/*--------------------------------*- C++ -*----------------------------------*\
  =========                 |
  \\      /  F ield         | OpenFOAM: The Open Source CFD Toolbox
   \\    /   O peration     | Website:  https://openfoam.org
    \\  /    A nd           | Version:  7
     \\/     M anipulation  |
\*---------------------------------------------------------------------------*/
FoamFile
{
    version     2.0;
    format      ascii;
    class       volScalarField;
    location    "99.999";
    object      p;
}
// * * * * * * * * * * * * * * * * * * * * * * * * * * * * * * * * * * * * * //

dimensions      [0 2 -2 0 0 0 0];

internalField   nonuniform List<scalar> 
3700
(
-0.199675
-0.183318
-0.168861
-0.155234
-0.142631
-0.131061
-0.12043
-0.110666
-0.101713
-0.0935054
-0.085987
-0.0791069
-0.0728193
-0.0670824
-0.061858
-0.0571112
-0.05281
-0.0489258
-0.0454323
-0.0423062
-0.0395265
-0.0370745
-0.0349341
-0.033091
-0.0315331
-0.03025
-0.0292334
-0.0284766
-0.0279749
-0.0277246
-0.208864
-0.189832
-0.172947
-0.157636
-0.143895
-0.13152
-0.120327
-0.11019
-0.100998
-0.092648
-0.0850564
-0.0781527
-0.0718758
-0.0661726
-0.0609966
-0.0563068
-0.052067
-0.0482452
-0.0448131
-0.0417457
-0.0390208
-0.0366192
-0.0345241
-0.0327209
-0.0311973
-0.0299429
-0.0289493
-0.0282098
-0.0277196
-0.0274751
-0.216793
-0.194871
-0.17568
-0.158862
-0.144081
-0.130974
-0.119296
-0.108856
-0.0994846
-0.0910458
-0.0834297
-0.0765463
-0.07032
-0.0646868
-0.0595925
-0.0549904
-0.0508399
-0.0471061
-0.0437586
-0.0407706
-0.0381193
-0.0357847
-0.0337494
-0.0319987
-0.0305202
-0.0293034
-0.0283399
-0.0276229
-0.0271476
-0.0269107
-0.222333
-0.197548
-0.176501
-0.158508
-0.142893
-0.129225
-0.117204
-0.106573
-0.0971152
-0.0886649
-0.0810898
-0.0742826
-0.0681551
-0.0626342
-0.0576587
-0.053177
-0.049145
-0.0455251
-0.0422851
-0.0393973
-0.0368377
-0.0345859
-0.0326243
-0.0309382
-0.0295148
-0.0283438
-0.0274169
-0.0267273
-0.0262702
-0.0260425
-0.224287
-0.197213
-0.174997
-0.156239
-0.140091
-0.126112
-0.113944
-0.103271
-0.0938466
-0.085482
-0.0780275
-0.0713624
-0.0653891
-0.0600273
-0.0552108
-0.0508842
-0.0470008
-0.0435211
-0.0404118
-0.0376442
-0.035194
-0.0330404
-0.0311659
-0.0295555
-0.0281968
-0.0270795
-0.0261952
-0.0255376
-0.0251018
-0.0248846
-0.221706
-0.193367
-0.170793
-0.15178
-0.135496
-0.121516
-0.109432
-0.0988961
-0.0896456
-0.081479
-0.0742357
-0.0677867
-0.0620286
-0.0568771
-0.0522627
-0.0481279
-0.0444246
-0.0411123
-0.0381571
-0.03553
-0.0332068
-0.0311666
-0.0293922
-0.0278686
-0.0265838
-0.0255277
-0.0246921
-0.0240708
-0.0236591
-0.023454
-0.214246
-0.185819
-0.163708
-0.144999
-0.129019
-0.115376
-0.103629
-0.0934248
-0.0845012
-0.0766538
-0.0697185
-0.0635644
-0.0580863
-0.0531987
-0.0488315
-0.0449265
-0.0414355
-0.0383183
-0.0355409
-0.0330748
-0.0308961
-0.0289845
-0.0273229
-0.0258971
-0.0246952
-0.0237076
-0.0229265
-0.0223458
-0.0219611
-0.0217694
-0.20214
-0.17476
-0.153837
-0.135958
-0.12071
-0.107729
-0.0965654
-0.0868845
-0.0784397
-0.0710321
-0.0645018
-0.0587213
-0.0535878
-0.0490178
-0.0449424
-0.0413049
-0.0380583
-0.0351633
-0.032587
-0.0303019
-0.0282849
-0.0265163
-0.0249801
-0.0236625
-0.0225523
-0.0216403
-0.0209191
-0.020383
-0.0200279
-0.019851
-0.186076
-0.160693
-0.141516
-0.124899
-0.110753
-0.0987113
-0.0883442
-0.0793588
-0.0715303
-0.0646728
-0.058637
-0.0533033
-0.048575
-0.0443727
-0.0406313
-0.0372969
-0.0343247
-0.0316776
-0.0293244
-0.0272389
-0.0253995
-0.0237877
-0.0223884
-0.0211887
-0.0201782
-0.0193483
-0.0186922
-0.0182046
-0.0178816
-0.0177207
-0.167038
-0.144311
-0.127234
-0.112196
-0.0994291
-0.0885333
-0.0791303
-0.070979
-0.0638795
-0.0576641
-0.0521986
-0.0473749
-0.0431043
-0.039314
-0.0359438
-0.0329439
-0.0302731
-0.0278967
-0.0257861
-0.0239171
-0.0222697
-0.0208269
-0.0195748
-0.0185018
-0.0175982
-0.0168562
-0.0162697
-0.0158339
-0.0155452
-0.0154015
-0.146115
-0.126381
-0.111558
-0.0982959
-0.0870756
-0.0774523
-0.0691276
-0.0619082
-0.0556192
-0.0501148
-0.0452783
-0.0410142
-0.0372436
-0.033901
-0.0309327
-0.0282937
-0.0259466
-0.0238603
-0.0220089
-0.0203707
-0.0189275
-0.0176641
-0.0165682
-0.0156292
-0.0148387
-0.0141897
-0.0136767
-0.0132955
-0.0130431
-0.0129173
-0.124329
-0.107642
-0.0950598
-0.0836536
-0.0740381
-0.0657425
-0.0585566
-0.0523242
-0.0468949
-0.0421459
-0.0379777
-0.0343079
-0.0310674
-0.0281992
-0.0256559
-0.0233978
-0.021392
-0.0196111
-0.0180321
-0.0166359
-0.0154068
-0.0143313
-0.0133986
-0.0125998
-0.0119273
-0.0113753
-0.010939
-0.0106148
-0.0104001
-0.0102931
-0.102539
-0.0887343
-0.0782619
-0.0686858
-0.0606442
-0.0536712
-0.0476355
-0.0424057
-0.0378548
-0.0338816
-0.0304023
-0.0273463
-0.0246543
-0.0222772
-0.0201741
-0.0183106
-0.0166582
-0.0151934
-0.0138962
-0.0127505
-0.0117425
-0.0108611
-0.0100971
-0.00944277
-0.00889208
-0.00844005
-0.00808279
-0.00781733
-0.00764151
-0.00755396
-0.0813915
-0.0701748
-0.0616046
-0.0537475
-0.047185
-0.0414825
-0.0365669
-0.0323219
-0.0286422
-0.0254441
-0.0226567
-0.0202198
-0.0180831
-0.0162044
-0.0145489
-0.0130872
-0.011795
-0.0106525
-0.00964284
-0.00875252
-0.00797025
-0.00728682
-0.00669473
-0.00618789
-0.00576137
-0.0054113
-0.00513461
-0.004929
-0.00479282
-0.00472501
-0.0613195
-0.0523407
-0.0454262
-0.0391222
-0.0339043
-0.0293864
-0.0255294
-0.0222263
-0.0193892
-0.0169476
-0.0148404
-0.0130159
-0.0114308
-0.0100493
-0.00884143
-0.00778248
-0.0068521
-0.00603361
-0.00531338
-0.00468033
-0.00412548
-0.0036416
-0.00322287
-0.00286468
-0.00256337
-0.00231609
-0.00212064
-0.00197538
-0.00187916
-0.00183124
-0.0425783
-0.0354824
-0.0299647
-0.0250209
-0.0209942
-0.017554
-0.0146736
-0.012252
-0.0102138
-0.00849641
-0.00704577
-0.00581641
-0.00477067
-0.00387735
-0.00311077
-0.00245
-0.00187806
-0.00138127
-0.000948698
-0.000571648
-0.000243269
4.17997e-05
0.00028772
0.000497688
0.000674138
0.000818898
0.000933319
0.00101838
0.00107474
0.00110281
-0.02531
-0.019737
-0.0153718
-0.01159
-0.00859734
-0.00611797
-0.00412162
-0.00251079
-0.00121706
-0.000182024
0.000644409
0.00130357
0.00182944
0.0022498
0.00258707
0.00285918
0.00308033
0.00326161
0.0034116
0.00353685
0.00364225
0.00373144
0.00380701
0.0038708
0.00392408
0.00396767
0.00400212
0.00402776
0.00404477
0.00405325
-0.00955417
-0.00517308
-0.001738
0.00107539
0.00318569
0.0048228
0.00603118
0.00690668
0.00751587
0.00791654
0.00815707
0.00827679
0.00830764
0.00827525
0.00819979
0.00809693
0.00797869
0.00785405
0.00772957
0.0076099
0.0074982
0.0073965
0.00730598
0.00722718
0.00716026
0.0071051
0.00706147
0.00702908
0.00700766
0.006997
0.00472351
0.00819149
0.010895
0.0129194
0.0142877
0.0151973
0.015712
0.0159281
0.015915
0.0157323
0.0154288
0.0150436
0.0146082
0.0141471
0.0136791
0.0132184
0.0127754
0.0123574
0.0119692
0.0116139
0.0112932
0.0110075
0.0107568
0.0105405
0.0103576
0.0102071
0.010088
0.0099996
0.00994105
0.0099119
0.0175888
0.0203729
0.0225195
0.0239147
0.0246675
0.0249566
0.0248663
0.0244969
0.0239232
0.0232089
0.0224048
0.0215516
0.0206813
0.0198183
0.0189809
0.0181823
0.0174317
0.0167353
0.0160965
0.0155171
0.0149973
0.0145365
0.0141332
0.0137857
0.0134921
0.0132506
0.0130596
0.0129176
0.0128236
0.0127768
0.0291005
0.0314026
0.0331452
0.0340522
0.0343016
0.0340671
0.0334537
0.0325681
0.0314935
0.0302985
0.0290378
0.0277547
0.0264825
0.0252463
0.0240645
0.0229501
0.0219116
0.020954
0.0200798
0.0192897
0.0185827
0.0179569
0.01741
0.016939
0.0165412
0.0162139
0.015955
0.0157625
0.0156351
0.0155716
0.0392995
0.0413174
0.0427885
0.0433318
0.0431765
0.0425047
0.0414421
0.0401052
0.0385863
0.03696
0.0352863
0.0336117
0.0319715
0.0303923
0.0288931
0.0274868
0.0261817
0.0249819
0.0238892
0.0229034
0.0220226
0.021244
0.0205638
0.0199782
0.0194836
0.0190765
0.0187544
0.0185149
0.0183563
0.0182772
0.0482269
0.0501605
0.0514695
0.0517563
0.0512835
0.0502493
0.0488037
0.0470755
0.0451661
0.043157
0.0411133
0.0390852
0.0371114
0.0352207
0.0334324
0.0317598
0.0302109
0.0287897
0.0274971
0.0263321
0.0252924
0.0243742
0.0235728
0.0228827
0.0222994
0.0218191
0.021439
0.0211564
0.0209691
0.0208759
0.0559234
0.0579608
0.0592079
0.0593278
0.0586146
0.0572763
0.0555081
0.0534476
0.0512
0.048856
0.0464847
0.0441408
0.0418688
0.0396985
0.0376506
0.0357387
0.0339706
0.0323501
0.0308776
0.029551
0.0283682
0.0273259
0.026417
0.0256334
0.0249702
0.0244239
0.0239912
0.0236696
0.0234566
0.0233506
0.062374
0.0646735
0.0659833
0.0660405
0.065171
0.0635422
0.0615192
0.059188
0.0566562
0.0540219
0.0513642
0.0487454
0.0462111
0.0437941
0.0415173
0.0393947
0.0374338
0.0356379
0.0340066
0.0325363
0.0312263
0.0300782
0.0290793
0.0282137
0.0274798
0.0268745
0.0263947
0.0260386
0.0258033
0.0256863
0.0674581
0.0701213
0.0717063
0.0718532
0.0710199
0.0689121
0.0667845
0.0642557
0.0614927
0.0586151
0.055715
0.052862
0.0501038
0.047476
0.0450034
0.0427009
0.0405761
0.0386318
0.0368672
0.0352793
0.0338643
0.0326176
0.0315306
0.0305939
0.0298019
0.0291496
0.0286329
0.0282488
0.0279947
0.0278682
0.0709684
0.0739162
0.0763472
0.0765145
0.075587
0.0737268
0.0713725
0.0686437
0.0656813
0.0626028
0.0595037
0.056457
0.0535145
0.050714
0.0480812
0.0456314
0.0433725
0.041307
0.0394338
0.0377489
0.0362474
0.0349226
0.033767
0.0327725
0.0319326
0.0312415
0.0306945
0.0302878
0.0300184
0.0298843
0.0732028
0.0756759
0.0792564
0.0800083
0.0792552
0.0775017
0.0750965
0.0722597
0.0691626
0.0659384
0.0626902
0.0594959
0.0564125
0.0534798
0.0507245
0.0481623
0.0458013
0.0436438
0.041688
0.0399296
0.0383625
0.0369794
0.0357728
0.0347349
0.0338587
0.0331381
0.0325679
0.032144
0.0318633
0.0317235
0.0723701
0.0769708
0.0809594
0.0822966
0.081865
0.0802725
0.0779083
0.075045
0.0718837
0.0685754
0.0652336
0.0619434
0.0587665
0.0557456
0.0529086
0.0502717
0.047843
0.0456247
0.0436145
0.0418076
0.0401973
0.0387761
0.0375361
0.0364696
0.0355694
0.0348292
0.0342436
0.0338083
0.03352
0.0333764
0.0695457
0.0760463
0.0809841
0.0832017
0.083298
0.0819808
0.0797485
0.0769393
0.0737879
0.0704633
0.0670905
0.063762
0.0605448
0.0574846
0.0546106
0.0519399
0.0494807
0.047235
0.0452003
0.0433715
0.0417417
0.0403031
0.0390477
0.0379679
0.0370565
0.036307
0.0357141
0.0352733
0.0349813
0.0348359
0.0654526
0.0733472
0.0793645
0.0826562
0.0834708
0.0825534
0.0805462
0.0778743
0.0748131
0.0715489
0.068216
0.0649146
0.0617169
0.0586718
0.0558104
0.0531505
0.0507009
0.0484636
0.0464362
0.0446135
0.0429887
0.0415541
0.0403018
0.0392244
0.0383146
0.0375664
0.0369743
0.0365341
0.0362425
0.0360972
0.0601871
0.06918
0.0762381
0.0806655
0.0823332
0.0819217
0.0802248
0.0777749
0.0748922
0.0717758
0.0685648
0.0653655
0.0622552
0.0592863
0.056492
0.0538917
0.0514947
0.0493038
0.047317
0.0455296
0.0439351
0.0425263
0.0412958
0.0402364
0.0393414
0.038605
0.038022
0.0375884
0.0373011
0.037158
0.0538623
0.0637521
0.0717336
0.0772496
0.0798299
0.0800032
0.0786932
0.0765541
0.0739509
0.0710848
0.0680921
0.065082
0.0621367
0.0593125
0.0566455
0.0541573
0.0518589
0.0497543
0.0478427
0.0461205
0.044582
0.043221
0.0420309
0.0410052
0.0401379
0.0394236
0.0388579
0.0384369
0.0381578
0.0380187
0.0465604
0.0572071
0.0659505
0.0724104
0.0758723
0.0766779
0.0758317
0.0741078
0.0719074
0.0694164
0.066757
0.064038
0.0613462
0.058743
0.0562689
0.0539491
0.0517975
0.0498205
0.0480195
0.0463925
0.0449358
0.0436443
0.0425127
0.0415359
0.0407087
0.0400267
0.0394858
0.0390831
0.0388159
0.0386828
0.03831
0.0495955
0.0589103
0.0660921
0.070321
0.0717765
0.0714873
0.0703178
0.0686791
0.0667175
0.0645293
0.0622196
0.0598811
0.0575825
0.0553715
0.0532789
0.0513237
0.049516
0.0478606
0.0463584
0.0450081
0.0438069
0.0427514
0.0418378
0.0410624
0.0404219
0.0399133
0.039534
0.0392823
0.0391567
0.0290446
0.0408289
0.0504997
0.0581467
0.0629838
0.0650966
0.0654953
0.0650732
0.0642016
0.0629575
0.0614014
0.0596344
0.0577577
0.0558523
0.0539767
0.052171
0.0504611
0.0488632
0.0473871
0.0460376
0.0448169
0.0437252
0.0427615
0.0419242
0.0412113
0.0406207
0.0401508
0.0397998
0.0395665
0.0394501
0.0185155
0.0306207
0.0404345
0.0483228
0.0536394
0.0564539
0.057733
0.0583164
0.0584625
0.0581521
0.0574053
0.0563221
0.055019
0.0535955
0.0521262
0.0506641
0.0492455
0.0478948
0.0466283
0.0454566
0.044386
0.0434207
0.0425626
0.0418128
0.0411713
0.040638
0.0402122
0.0398934
0.0396812
0.0395753
0.00622923
0.0184654
0.0282796
0.0363115
0.042101
0.0457594
0.0481946
0.0500991
0.0515418
0.0523916
0.0526306
0.0523667
0.0517419
0.0508813
0.0498818
0.0488132
0.0477254
0.0466536
0.0456223
0.0446488
0.043745
0.0429196
0.0421783
0.0415249
0.040962
0.0404915
0.0401141
0.0398308
0.0396417
0.0395471
-0.00849384
0.00374414
0.0135818
0.0218737
0.0283182
0.033105
0.037063
0.0406329
0.0436455
0.0458601
0.0472354
0.047903
0.0480406
0.047807
0.0473263
0.0466893
0.0459621
0.0451923
0.0444145
0.0436538
0.0429287
0.0422528
0.0416357
0.0410848
0.0406055
0.0402016
0.0398756
0.0396297
0.0394651
0.0393827
-0.0262543
-0.0139959
-0.00388113
0.00502558
0.0125026
0.0188481
0.0247545
0.0303132
0.0351169
0.0388404
0.0414487
0.0431155
0.0440652
0.0444958
0.0445617
0.0443774
0.0440269
0.0435716
0.0430568
0.0425164
0.0419759
0.0414539
0.0409648
0.0405195
0.040126
0.0397904
0.0395173
0.0393098
0.0391703
0.0391003
-0.0471542
-0.0346937
-0.0238284
-0.0137833
-0.00475414
0.0036766
0.0119333
0.0197137
0.0264217
0.031699
0.0355554
0.0382283
0.0399933
0.0410901
0.0417036
0.0419723
0.0419985
0.0418569
0.0416046
0.0412841
0.0409272
0.0405586
0.040197
0.0398566
0.0395485
0.0392811
0.0390604
0.0388912
0.0387767
0.038719
-0.0705041
-0.0575339
-0.0453017
-0.0335521
-0.0223944
-0.0113781
-0.000516957
0.00954286
0.0181037
0.0248472
0.0298706
0.0334844
0.0360162
0.0377418
0.0388737
0.039573
0.0399579
0.0401159
0.0401146
0.0400049
0.0398242
0.0396025
0.0393635
0.0391242
0.0388983
0.0386963
0.0385263
0.0383941
0.0383037
0.0382579
-0.0947958
-0.0808304
-0.0666354
-0.0526961
-0.0389041
-0.0250337
-0.0116049
0.000539126
0.0107068
0.0186899
0.0247044
0.0291236
0.0323216
0.0345987
0.0361904
0.0372757
0.0379836
0.038414
0.0386419
0.0387245
0.0387059
0.0386202
0.0384944
0.0383488
0.0381993
0.0380581
0.0379353
0.0378376
0.0377697
0.037735
-0.117739
-0.102054
-0.0855784
-0.069182
-0.0525548
-0.0359911
-0.0203993
-0.00664962
0.0046922
0.0135733
0.0203169
0.0253497
0.029065
0.0317851
0.0337564
0.0351629
0.0361443
0.0368079
0.0372338
0.0374839
0.0376075
0.037642
0.0376163
0.0375538
0.0374725
0.0373863
0.0373057
0.0372387
0.0371911
0.0371665
-0.136298
-0.118369
-0.0997558
-0.0809717
-0.0618831
-0.0432118
-0.0261997
-0.0115486
0.00038738
0.0097304
0.0168843
0.022295
0.0263567
0.0293907
0.0316432
0.0332954
0.0344914
0.0353413
0.0359277
0.0363159
0.0365575
0.0366925
0.0367513
0.0367594
0.0367363
0.0366971
0.0366528
0.0366123
0.0365821
0.0365662
-0.147141
-0.127322
-0.107616
-0.086589
-0.0658442
-0.0462896
-0.0288315
-0.0140681
-0.00213455
0.00724285
0.0144908
0.0200444
0.0242751
0.0274861
0.0299101
0.0317241
0.0330688
0.0340513
0.0347558
0.035248
0.0355799
0.0357925
0.035918
0.0359822
0.0360056
0.0360038
0.0359889
0.0359702
0.0359542
0.0359453
-0.149484
-0.128281
-0.107236
-0.0856634
-0.0646973
-0.0454092
-0.0285165
-0.0143837
-0.00296548
0.00606847
0.0131279
0.0186055
0.0228362
0.02609
0.0285797
0.0304716
0.0318967
0.0329579
0.0337363
0.0342964
0.0346894
0.034956
0.0351287
0.0352334
0.0352907
0.0353166
0.0353236
0.0353211
0.0353159
0.0353122
-0.14232
-0.121279
-0.100381
-0.0794033
-0.0594472
-0.0414502
-0.0258746
-0.0128932
-0.00235731
0.00605646
0.0127072
0.0179311
0.022015
0.0251924
0.0276511
0.0295411
0.0309816
0.0320681
0.0328767
0.0334688
0.0338933
0.0341898
0.0343898
0.0345189
0.0345972
0.0346407
0.0346619
0.03467
0.0346718
0.0346717
-0.128483
-0.108305
-0.0887999
-0.0694819
-0.05147
-0.035418
-0.0215913
-0.0100512
-0.000612589
0.00700363
0.0130927
0.0179299
0.0217516
0.0247542
0.0270989
0.0289167
0.0303138
0.0313764
0.0321743
0.0327642
0.033192
0.0334948
0.0337029
0.0338405
0.0339271
0.0339781
0.0340056
0.0340187
0.0340239
0.0340255
-0.11037
-0.092013
-0.0746786
-0.0576572
-0.0420553
-0.0282123
-0.0162926
-0.00629384
0.001959
0.00868693
0.0141227
0.0184837
0.0219597
0.0247122
0.0268763
0.028564
0.0298678
0.0308639
0.0316148
0.0321718
0.0325769
0.0328645
0.0330626
0.0331939
0.0332768
0.0333257
0.0333522
0.0333649
0.03337
0.0333716
-0.0906048
-0.0746248
-0.059784
-0.0452978
-0.0321795
-0.0205293
-0.010478
-0.00198795
0.00508194
0.0108982
0.0156393
0.019473
0.022549
0.0249981
0.0269315
0.0284436
0.0296136
0.0305074
0.0311802
0.0316775
0.0320371
0.03229
0.0324618
0.0325733
0.0326412
0.0326792
0.0326978
0.032705
0.0327067
0.0327067
-0.0711694
-0.0577101
-0.0453178
-0.0332946
-0.022483
-0.01285
-0.00451594
0.00257287
0.00851886
0.0134456
0.0174876
0.0207731
0.0234195
0.0255315
0.0271999
0.0285034
0.0295087
0.0302724
0.0308422
0.031258
0.0315529
0.0317548
0.0318863
0.0319661
0.0320095
0.0320288
0.0320334
0.0320308
0.0320262
0.032023
-0.0532191
-0.0421334
-0.0319392
-0.0221254
-0.0133282
-0.00546827
0.00134752
0.00717591
0.0120874
0.0161746
0.0195387
0.022278
0.0244847
0.0262422
0.027625
0.0286976
0.0295163
0.030129
0.0305764
0.030893
0.0311078
0.0312449
0.0313243
0.0313625
0.0313731
0.0313668
0.0313521
0.0313357
0.0313222
0.0313147
-0.0372609
-0.0282402
-0.0199214
-0.0119952
-0.00489879
0.0014431
0.0069456
0.0116612
0.015639
0.0189505
0.021673
0.0238829
0.0256536
0.0270522
0.0281394
0.0289688
0.0295871
0.0300348
0.0303464
0.0305514
0.0306746
0.0307367
0.0307552
0.0307441
0.0307153
0.0306782
0.0306402
0.0306069
0.0305825
0.0305697
-0.023375
-0.0160646
-0.00930327
-0.00294421
0.00273862
0.00779869
0.0121779
0.0159219
0.019068
0.0216738
0.0238002
0.0255084
0.0268578
0.0279032
0.0286945
0.0292762
0.0296875
0.0299621
0.0301294
0.0302142
0.0302375
0.0302171
0.0301677
0.0301014
0.0300281
0.0299559
0.0298911
0.0298385
0.0298015
0.0297824
-0.0114308
-0.00549919
-1.44952e-05
0.00506148
0.00957507
0.0135586
0.0169802
0.0198797
0.0222895
0.0242583
0.0258365
0.0270752
0.0280235
0.0287273
0.0292284
0.0295639
0.0297668
0.0298656
0.0298848
0.0298451
0.0297644
0.0296574
0.0295363
0.0294113
0.0292906
0.0291808
0.0290872
0.0290137
0.0289631
0.0289374
-0.00121414
0.00361655
0.00805743
0.0120863
0.0156309
0.0187102
0.0213152
0.0234822
0.0252433
0.0266418
0.0277218
0.0285275
0.0291011
0.0294817
0.0297048
0.029802
0.029801
0.0297259
0.0295971
0.0294322
0.0292457
0.02905
0.0288551
0.0286693
0.0284992
0.0283501
0.0282263
0.0281308
0.028066
0.0280331
0.00749928
0.0114501
0.0150337
0.0182039
0.0209402
0.023257
0.0251628
0.0266933
0.0278822
0.0287706
0.0293989
0.0298069
0.0300321
0.0301089
0.0300681
0.029937
0.0297393
0.0294953
0.0292223
0.0289347
0.0286444
0.0283613
0.0280935
0.0278475
0.0276284
0.0274404
0.0272865
0.0271692
0.0270901
0.0270504
0.0149052
0.0181444
0.0210172
0.0234748
0.0255298
0.0271987
0.0285036
0.0294813
0.0301678
0.0306035
0.0308269
0.0308753
0.030783
0.0305808
0.030296
0.0299524
0.0295704
0.0291673
0.0287573
0.0283523
0.0279622
0.0275946
0.027256
0.0269513
0.0266843
0.0264579
0.0262745
0.0261357
0.0260425
0.0259956
0.021169
0.0238244
0.0261039
0.0279633
0.0294377
0.0305499
0.0313328
0.031826
0.0320685
0.0321007
0.0319606
0.0316837
0.0313021
0.0308442
0.0303345
0.0297942
0.029241
0.0286896
0.028152
0.0276378
0.0271548
0.0267088
0.0263045
0.0259454
0.025634
0.0253723
0.0251617
0.025003
0.0248968
0.0248439
0.0263902
0.0285561
0.0303357
0.0316883
0.0326661
0.0332994
0.0336302
0.033702
0.0335567
0.0332352
0.032775
0.0322107
0.0315727
0.0308875
0.0301777
0.029462
0.028756
0.0280721
0.02742
0.0268075
0.0262405
0.0257234
0.0252593
0.0248505
0.0244986
0.0242045
0.0239688
0.0237918
0.0236737
0.0236144
0.0306751
0.0324213
0.0337698
0.0346858
0.0352335
0.0354502
0.0353849
0.0350855
0.0345973
0.0339626
0.0332193
0.0324011
0.0315369
0.0306514
0.0297651
0.0288948
0.028054
0.0272534
0.026501
0.0258028
0.0251632
0.024585
0.02407
0.0236193
0.0232333
0.0229121
0.0226556
0.0224636
0.0223358
0.0222723
0.0340459
0.03543
0.0363977
0.0369332
0.0371092
0.0369691
0.0365665
0.0359517
0.0351722
0.0342715
0.0332878
0.032254
0.0311983
0.0301439
0.0291097
0.028111
0.0271594
0.0262635
0.0254296
0.0246619
0.0239633
0.0233355
0.0227791
0.0222942
0.0218805
0.0215374
0.021264
0.0210597
0.0209239
0.0208556
0.036555
0.0376281
0.0382547
0.0384494
0.038292
0.037835
0.0371363
0.0362479
0.0352183
0.0340915
0.0329058
0.0316939
0.0304818
0.0292909
0.0281385
0.0270374
0.0259977
0.0250267
0.0241292
0.0233085
0.0225662
0.0219024
0.0213168
0.0208085
0.0203762
0.0200186
0.0197345
0.0195225
0.0193818
0.0193122
0.0381031
0.038929
0.0392737
0.0391834
0.038745
0.0380227
0.0370797
0.0359699
0.0347415
0.0334372
0.0320943
0.0307444
0.0294131
0.0281209
0.0268837
0.0257124
0.0246152
0.0235972
0.0226615
0.0218097
0.0210421
0.020358
0.0197562
0.0192353
0.0187933
0.0184283
0.0181387
0.0179229
0.0177797
0.0177076
0.0386321
0.0392615
0.0393851
0.0390641
0.038391
0.037444
0.0362954
0.0350043
0.0336207
0.0321863
0.0307357
0.0292967
0.0278927
0.0265417
0.0252566
0.0240466
0.0229187
0.0218774
0.020925
0.0200619
0.0192875
0.0186
0.0179974
0.0174772
0.0170369
0.0166742
0.0163869
0.0161731
0.0160315
0.015962
0.0380238
0.0385126
0.0384941
0.0380282
0.0372051
0.036111
0.0348247
0.0334114
0.0319246
0.0304071
0.0288923
0.027406
0.0259698
0.0246006
0.0233089
0.0221018
0.0209834
0.0199554
0.0190186
0.0181721
0.0174144
0.0167431
0.0161558
0.0156501
0.0152226
0.0148708
0.0145925
0.0143856
0.0142485
0.0141787
0.0361774
0.0365293
0.036405
0.0358497
0.0349446
0.0337757
0.0324226
0.0309552
0.0294329
0.0279017
0.0263927
0.0249285
0.023524
0.0221899
0.0209345
0.019765
0.0186856
0.0176973
0.0168013
0.0159952
0.0152762
0.0146415
0.0140878
0.0136119
0.0132106
0.0128811
0.0126207
0.0124274
0.0122997
0.0122379
0.0332123
0.0334347
0.0332349
0.0326431
0.0317281
0.0305671
0.0292297
0.0277838
0.0262899
0.0247968
0.0233363
0.0219343
0.0206091
0.0193644
0.0182045
0.0171313
0.0161445
0.0152436
0.0144274
0.0136943
0.0130414
0.012466
0.0119649
0.0115349
0.0111728
0.0108757
0.0106412
0.0104672
0.0103518
0.0102925
0.0287896
0.0288639
0.0285848
0.0279763
0.0271058
0.0260356
0.0248188
0.0235125
0.0221672
0.0208284
0.0195293
0.0182886
0.0171168
0.0160175
0.0149945
0.0140508
0.0131874
0.0124036
0.0116972
0.0110652
0.0105045
0.0100116
0.0095834
0.00921665
0.00890839
0.00865594
0.00845694
0.00830948
0.00821251
0.00816698
0.02336
0.0232839
0.0229614
0.0223723
0.0215807
0.02063
0.0195618
0.0184223
0.0172578
0.016112
0.0150214
0.0140061
0.0130703
0.0122081
0.011412
0.0106775
0.0100033
0.00938936
0.00883532
0.0083399
0.00790098
0.00751593
0.00718198
0.0068964
0.00665664
0.00646043
0.00630582
0.0061912
0.00611484
0.00607377
0.0157244
0.0156016
0.0152705
0.0147787
0.0141695
0.0134807
0.0127456
0.0119873
0.0112221
0.0104661
0.00973685
0.00904838
0.00840822
0.00781851
0.00727817
0.00678505
0.00633676
0.00593111
0.00556627
0.00524054
0.00495225
0.00469963
0.00448081
0.00429395
0.00413729
0.00400924
0.00390841
0.00383373
0.00378514
0.00376438
0.00714057
0.00696116
0.00673868
0.00643866
0.00605544
0.00560465
0.00511496
0.00462554
0.00418046
0.0038126
0.00352812
0.00330776
0.00312226
0.00294879
0.00277751
0.00260908
0.00244841
0.00229993
0.00216586
0.0020465
0.00194117
0.00184895
0.00176898
0.00170054
0.00164303
0.00159593
0.00155878
0.001531
0.00151116
0.00149676
-0.209028
-0.220879
-0.231319
-0.238278
-0.241532
-0.23986
-0.232714
-0.220291
-0.203339
-0.182973
-0.160433
-0.136895
-0.113351
-0.0905548
-0.0690307
-0.0490939
-0.0308926
-0.0144499
0.000287853
0.0134114
0.0250185
0.0351909
0.0439697
0.0513278
0.0571631
0.0612641
0.0634566
0.0638357
0.0616344
0.0586651
0.0543343
0.0489362
0.0425166
0.0350786
0.0266284
0.0171329
0.00641645
-0.00592569
-0.0205042
-0.0379315
-0.0584201
-0.0813713
-0.105261
-0.127807
-0.146004
-0.157
-0.159424
-0.153363
-0.139851
-0.121517
-0.101017
-0.0804882
-0.0612983
-0.0441248
-0.0291438
-0.0162658
-0.00527246
0.00407683
0.0120031
0.0186904
0.0242619
0.0288489
0.0324795
0.035212
0.0369135
0.0375534
0.0370074
0.0352472
0.0324126
0.0281493
0.0229573
0.0154255
0.00717232
-0.207241
-0.22146
-0.235018
-0.246441
-0.254912
-0.258569
-0.256197
-0.247428
-0.232717
-0.213164
-0.190228
-0.165398
-0.13998
-0.114995
-0.0911675
-0.0689644
-0.0486357
-0.0302647
-0.0138216
0.000787125
0.0136852
0.0249983
0.0348103
0.0431095
0.0497784
0.0546594
0.0576517
0.0587985
0.0582812
0.0558771
0.0524871
0.0480341
0.0425621
0.0360425
0.0284501
0.0197985
0.0100707
-0.00090819
-0.0135661
-0.028546
-0.0464655
-0.0674933
-0.0909477
-0.115203
-0.137873
-0.156051
-0.166996
-0.169119
-0.162066
-0.147512
-0.128159
-0.106712
-0.0853303
-0.0653912
-0.0475779
-0.0320643
-0.0187523
-0.00740828
0.00222195
0.0103731
0.0172405
0.022963
0.0276817
0.0314237
0.0342402
0.0359875
0.0366549
0.0361309
0.0344378
0.0317082
0.0275948
0.0225574
0.0151653
0.00712193
-0.216583
-0.232825
-0.248558
-0.26248
-0.271699
-0.275246
-0.27181
-0.261084
-0.243758
-0.221305
-0.195562
-0.168299
-0.140965
-0.114602
-0.0898894
-0.0672072
-0.0467149
-0.0284155
-0.012215
0.00202979
0.0144793
0.025274
0.0344762
0.0420258
0.0477678
0.0515606
0.0534046
0.0534984
0.052136
0.0494267
0.0458255
0.0413068
0.035806
0.0292324
0.0215429
0.0127536
0.00285281
-0.00833395
-0.0212391
-0.0365069
-0.0547446
-0.0760987
-0.0998497
-0.124317
-0.147079
-0.165266
-0.176043
-0.177582
-0.169724
-0.154139
-0.133685
-0.111234
-0.0890211
-0.0684335
-0.0501263
-0.0342407
-0.0206479
-0.0090913
0.000700528
0.0089754
0.0159394
0.0217434
0.0265301
0.0303259
0.0331701
0.0349227
0.0355881
0.0350814
0.0334595
0.0308407
0.0268934
0.022024
0.0148387
0.00701354
-0.22642
-0.245218
-0.263203
-0.278878
-0.289008
-0.292665
-0.288368
-0.275803
-0.255915
-0.230576
-0.202033
-0.172353
-0.143125
-0.115408
-0.0898208
-0.066659
-0.0459944
-0.0277547
-0.0117858
0.00210297
0.0141031
0.0243564
0.0328922
0.0396055
0.0443292
0.0469863
0.0477258
0.0469165
0.0449903
0.0421232
0.0385389
0.034136
0.0287555
0.022258
0.0145882
0.00576546
-0.00421685
-0.015535
-0.028631
-0.0441576
-0.0627117
-0.0843999
-0.108438
-0.133063
-0.155777
-0.173703
-0.184071
-0.18504
-0.176462
-0.160053
-0.138731
-0.115464
-0.0925513
-0.0713992
-0.052653
-0.0364334
-0.0225889
-0.0108438
-0.000911123
0.00746942
0.0145139
0.0203834
0.0252207
0.0290518
0.0319065
0.0336515
0.0343074
0.0338181
0.032269
0.0297716
0.0260111
0.0213508
0.014424
0.0068581
-0.236209
-0.257508
-0.278117
-0.295397
-0.306874
-0.310806
-0.305735
-0.291327
-0.268787
-0.240427
-0.208954
-0.176772
-0.145623
-0.116576
-0.0901725
-0.0666051
-0.0458459
-0.0277407
-0.0120728
0.0013947
0.0128755
0.0224973
0.0302452
0.0359755
0.0395429
0.0410003
0.0406986
0.0391745
0.0369707
0.0341614
0.0307849
0.0266401
0.0214936
0.0151755
0.00762445
-0.00113805
-0.0111169
-0.0224914
-0.03571
-0.0514269
-0.0702221
-0.0921611
-0.116401
-0.141103
-0.163708
-0.181311
-0.191201
-0.191579
-0.182331
-0.16523
-0.143221
-0.119317
-0.0958518
-0.0742436
-0.0551345
-0.0386338
-0.0245757
-0.0126712
-0.00262091
0.0058455
0.0129529
0.0188705
0.0237411
0.0275888
0.0304352
0.0321557
0.0327901
0.0323146
0.0308421
0.0284848
0.0249383
0.0205258
0.0139101
0.00665845
-0.222977
-0.245708
-0.26957
-0.293509
-0.311665
-0.324731
-0.329038
-0.323293
-0.307104
-0.281905
-0.250461
-0.215979
-0.181237
-0.148155
-0.117811
-0.0906617
-0.0667823
-0.0460337
-0.0281722
-0.0129132
2.4901e-05
0.0108674
0.019714
0.0265024
0.0310707
0.0333545
0.0336077
0.0323964
0.0303622
0.0281626
0.0256108
0.0225975
0.0188326
0.0140326
0.00800775
0.00068982
-0.00790238
-0.0177753
-0.0291119
-0.0423659
-0.058191
-0.0771482
-0.0992582
-0.123615
-0.148308
-0.17072
-0.18793
-0.19728
-0.197049
-0.187197
-0.169519
-0.146971
-0.122585
-0.0987099
-0.0767681
-0.0573962
-0.040695
-0.0264881
-0.0144766
-0.00435206
0.00416349
0.011302
0.0172387
0.0221145
0.0259499
0.0287599
0.030431
0.0310267
0.0305591
0.029168
0.0269683
0.0236608
0.019536
0.0132871
0.0064136
-0.229573
-0.254824
-0.281199
-0.306598
-0.326956
-0.341978
-0.346829
-0.340566
-0.322756
-0.295009
-0.26054
-0.223076
-0.185799
-0.150826
-0.119251
-0.0914412
-0.067347
-0.0467124
-0.0291993
-0.0144536
-0.00215418
0.00792251
0.0158374
0.0214859
0.0247275
0.025656
0.0247837
0.0228626
0.0204998
0.0186068
0.0165003
0.013992
0.010733
0.00640437
0.000799114
-0.00616187
-0.0144665
-0.0241244
-0.035321
-0.0485123
-0.0643475
-0.0833652
-0.105541
-0.129909
-0.154496
-0.17663
-0.193388
-0.202164
-0.201335
-0.190951
-0.172821
-0.149889
-0.125182
-0.101045
-0.0788995
-0.0593735
-0.0425615
-0.0282793
-0.0162215
-0.00607341
0.00244811
0.00957996
0.0155007
0.0203478
0.0241367
0.0268769
0.0284704
0.0290078
0.0285405
0.0272326
0.0252045
0.022162
0.0183687
0.012545
0.00612092
-0.236035
-0.263533
-0.292128
-0.318991
-0.341218
-0.358254
-0.363693
-0.357064
-0.337842
-0.307752
-0.270425
-0.230106
-0.190399
-0.153637
-0.120936
-0.0925773
-0.068382
-0.047974
-0.0309189
-0.0167949
-0.00525152
0.00391841
0.0107304
0.0150543
0.0168317
0.016397
0.0145501
0.0121789
0.00958849
0.00836071
0.00685856
0.00499959
0.00238259
-0.00133927
-0.00639163
-0.0128674
-0.0207635
-0.0300925
-0.0410395
-0.0540591
-0.0697925
-0.0887542
-0.110877
-0.135138
-0.15951
-0.181278
-0.197536
-0.205728
-0.204336
-0.193511
-0.175069
-0.151924
-0.127069
-0.102831
-0.0806171
-0.06105
-0.0442196
-0.0299377
-0.0178959
-0.00777631
0.000706371
0.0077917
0.013659
0.0184405
0.0221457
0.0247803
0.0262656
0.0267223
0.026244
0.0250186
0.023176
0.0204258
0.0170097
0.0116732
0.00577693
-0.242537
-0.271961
-0.302526
-0.331338
-0.354331
-0.373233
-0.379199
-0.372291
-0.351876
-0.319719
-0.279801
-0.236858
-0.194911
-0.156523
-0.122845
-0.094075
-0.0699094
-0.0498522
-0.0333735
-0.0199901
-0.00933593
-0.00123325
0.00428762
0.00710475
0.00732149
0.00557951
0.00295623
0.000480441
-0.000908331
-0.0024473
-0.00327198
-0.00432867
-0.00615527
-0.00912819
-0.0134922
-0.0193547
-0.0267218
-0.0356073
-0.0461921
-0.0589242
-0.074433
-0.0932084
-0.115143
-0.139166
-0.163207
-0.184525
-0.200241
-0.20786
-0.205961
-0.194806
-0.176207
-0.153028
-0.128208
-0.104034
-0.0818944
-0.0624036
-0.0456504
-0.0314469
-0.0194854
-0.00944832
-0.00105138
0.00594516
0.0117189
0.0163952
0.0199764
0.0224664
0.0238092
0.0241593
0.0236556
0.0225098
0.0208656
0.0184354
0.0154449
0.0106612
0.00537765
-0.221925
-0.24918
-0.280146