/*--------------------------------*- C++ -*----------------------------------*\
  =========                 |
  \\      /  F ield         | OpenFOAM: The Open Source CFD Toolbox
   \\    /   O peration     | Website:  https://openfoam.org
    \\  /    A nd           | Version:  7
     \\/     M anipulation  |
\*---------------------------------------------------------------------------*/
FoamFile
{
    version     2.0;
    format      ascii;
    class       volVectorField;
    location    "99.999";
    object      U;
}
// * * * * * * * * * * * * * * * * * * * * * * * * * * * * * * * * * * * * * //

dimensions      [0 1 -1 0 0 0 0];

internalField   nonuniform List<vector> 
3700
(
(1.3457 -0.00158732 0)
(1.3485 0.0102848 0)
(1.33765 0.0163627 0)
(1.3223 0.0207823 0)
(1.30631 0.0235447 0)
(1.2909 0.0249939 0)
(1.27645 0.025539 0)
(1.2631 0.025431 0)
(1.25088 0.0248416 0)
(1.23972 0.0239119 0)
(1.22952 0.0227512 0)
(1.22018 0.0214395 0)
(1.21163 0.0200382 0)
(1.2038 0.0185942 0)
(1.19663 0.0171416 0)
(1.1901 0.0157052 0)
(1.18415 0.0143024 0)
(1.17876 0.0129448 0)
(1.17389 0.0116393 0)
(1.16952 0.0103897 0)
(1.16562 0.00919692 0)
(1.16217 0.00805975 0)
(1.15915 0.0069755 0)
(1.15654 0.00594007 0)
(1.15433 0.00494848 0)
(1.15251 0.00399509 0)
(1.15106 0.00307343 0)
(1.14998 0.00217692 0)
(1.14927 0.00129971 0)
(1.14891 0.00043076 0)
(1.3581 0.0249417 0)
(1.35708 0.0351621 0)
(1.34306 0.039144 0)
(1.32549 0.0414463 0)
(1.30792 0.042201 0)
(1.29133 0.0418805 0)
(1.27602 0.0408415 0)
(1.26207 0.0392937 0)
(1.24944 0.0374009 0)
(1.23799 0.0352918 0)
(1.22761 0.0330593 0)
(1.21817 0.0307709 0)
(1.20958 0.0284778 0)
(1.20175 0.0262177 0)
(1.19462 0.0240168 0)
(1.18814 0.0218926 0)
(1.18226 0.0198563 0)
(1.17694 0.0179137 0)
(1.17216 0.0160666 0)
(1.16787 0.0143138 0)
(1.16405 0.0126519 0)
(1.16067 0.0110755 0)
(1.15772 0.00957813 0)
(1.15517 0.00815207 0)
(1.15302 0.00678893 0)
(1.15124 0.00547981 0)
(1.14983 0.00421524 0)
(1.14878 0.00298566 0)
(1.14809 0.00178201 0)
(1.14774 0.000591489 0)
(1.36815 0.0562036 0)
(1.36233 0.0636886 0)
(1.34533 0.064704 0)
(1.32592 0.0640567 0)
(1.30706 0.0622798 0)
(1.28957 0.0598013 0)
(1.27366 0.0568651 0)
(1.25932 0.0536429 0)
(1.24644 0.0502738 0)
(1.23487 0.0468555 0)
(1.22445 0.0434541 0)
(1.21503 0.0401176 0)
(1.2065 0.0368812 0)
(1.19876 0.0337688 0)
(1.19175 0.030795 0)
(1.18539 0.0279677 0)
(1.17965 0.0252894 0)
(1.17447 0.0227588 0)
(1.16981 0.0203711 0)
(1.16565 0.0181194 0)
(1.16195 0.015995 0)
(1.15868 0.013988 0)
(1.15583 0.0120873 0)
(1.15337 0.0102815 0)
(1.1513 0.00855852 0)
(1.14958 0.00690592 0)
(1.14823 0.00531108 0)
(1.14721 0.00376133 0)
(1.14654 0.00224443 0)
(1.14621 0.000745444 0)
(1.37398 0.0908603 0)
(1.36313 0.0953556 0)
(1.34371 0.0922732 0)
(1.32298 0.0880322 0)
(1.30328 0.0833365 0)
(1.28528 0.0783762 0)
(1.2691 0.0732918 0)
(1.25465 0.0682155 0)
(1.24177 0.0632386 0)
(1.23027 0.0584133 0)
(1.21997 0.0537725 0)
(1.21071 0.0493386 0)
(1.20236 0.0451258 0)
(1.19483 0.0411402 0)
(1.18802 0.0373822 0)
(1.18187 0.0338477 0)
(1.17633 0.0305292 0)
(1.17135 0.0274163 0)
(1.16688 0.0244969 0)
(1.16289 0.0217576 0)
(1.15934 0.0191837 0)
(1.15622 0.0167602 0)
(1.1535 0.0144715 0)
(1.15116 0.0123018 0)
(1.14918 0.0102352 0)
(1.14755 0.00825571 0)
(1.14625 0.00634738 0)
(1.14529 0.00449438 0)
(1.14465 0.00268127 0)
(1.14434 0.000890768 0)
(1.3736 0.128068 0)
(1.35851 0.129013 0)
(1.33756 0.120861 0)
(1.31619 0.11267 0)
(1.29624 0.104793 0)
(1.27823 0.0971228 0)
(1.26218 0.0897306 0)
(1.24795 0.0826914 0)
(1.23533 0.0760286 0)
(1.22413 0.0697419 0)
(1.21414 0.0638263 0)
(1.20519 0.0582743 0)
(1.19717 0.053075 0)
(1.18995 0.0482147 0)
(1.18344 0.0436773 0)
(1.17759 0.0394451 0)
(1.17232 0.0354993 0)
(1.1676 0.0318199 0)
(1.16337 0.0283865 0)
(1.1596 0.0251783 0)
(1.15625 0.0221748 0)
(1.15331 0.0193552 0)
(1.15075 0.0166992 0)
(1.14855 0.0141865 0)
(1.14669 0.0117972 0)
(1.14516 0.00951175 0)
(1.14394 0.00731083 0)
(1.14304 0.00517543 0)
(1.14244 0.00308696 0)
(1.14214 0.00102565 0)
(1.36561 0.166056 0)
(1.34774 0.163043 0)
(1.3264 0.149264 0)
(1.30523 0.137095 0)
(1.28572 0.125945 0)
(1.26827 0.11548 0)
(1.2528 0.105735 0)
(1.23915 0.096708 0)
(1.22709 0.0883459 0)
(1.21642 0.0805947 0)
(1.20694 0.0734098 0)
(1.19849 0.0667514 0)
(1.19092 0.0605823 0)
(1.18413 0.0548674 0)
(1.17804 0.0495734 0)
(1.17256 0.0446682 0)
(1.16765 0.040121 0)
(1.16325 0.0359016 0)
(1.15931 0.031981 0)
(1.15581 0.0283311 0)
(1.15271 0.0249248 0)
(1.14998 0.0217359 0)
(1.14761 0.0187389 0)
(1.14557 0.0159091 0)
(1.14385 0.0132229 0)
(1.14244 0.0106568 0)
(1.14131 0.00818834 0)
(1.14048 0.00579528 0)
(1.13993 0.00345603 0)
(1.13965 0.00114829 0)
(1.34959 0.202743 0)
(1.33064 0.195698 0)
(1.31012 0.176213 0)
(1.29005 0.160349 0)
(1.27172 0.146027 0)
(1.2554 0.132846 0)
(1.24097 0.120828 0)
(1.22825 0.109881 0)
(1.21706 0.0998763 0)
(1.20717 0.0907128 0)
(1.19841 0.082308 0)
(1.19062 0.0745902 0)
(1.18365 0.0674961 0)
(1.17742 0.0609699 0)
(1.17184 0.0549612 0)
(1.16683 0.0494235 0)
(1.16234 0.044314 0)
(1.15833 0.0395925 0)
(1.15475 0.0352214 0)
(1.15156 0.0311652 0)
(1.14874 0.0273905 0)
(1.14627 0.0238653 0)
(1.14411 0.0205595 0)
(1.14226 0.017444 0)
(1.1407 0.0144911 0)
(1.13942 0.0116741 0)
(1.1384 0.00896707 0)
(1.13765 0.00634492 0)
(1.13715 0.00378313 0)
(1.1369 0.00125694 0)
(1.32614 0.236222 0)
(1.30764 0.225337 0)
(1.28904 0.200552 0)
(1.2709 0.181533 0)
(1.25442 0.164307 0)
(1.23977 0.148639 0)
(1.2268 0.134545 0)
(1.21538 0.121831 0)
(1.20533 0.110309 0)
(1.19646 0.0998403 0)
(1.18862 0.0903081 0)
(1.18165 0.0816121 0)
(1.17543 0.073666 0)
(1.16987 0.0663949 0)
(1.1649 0.0597323 0)
(1.16044 0.0536185 0)
(1.15645 0.0479994 0)
(1.15289 0.0428251 0)
(1.14971 0.0380499 0)
(1.14689 0.0336313 0)
(1.14439 0.0295297 0)
(1.1422 0.0257079 0)
(1.1403 0.022131 0)
(1.13866 0.018766 0)
(1.13728 0.0155815 0)
(1.13614 0.0125473 0)
(1.13524 0.00963472 0)
(1.13457 0.00681572 0)
(1.13413 0.00406315 0)
(1.13391 0.00134992 0)
(1.29655 0.265033 0)
(1.27961 0.250615 0)
(1.26383 0.221379 0)
(1.24829 0.199889 0)
(1.23423 0.180147 0)
(1.22168 0.162353 0)
(1.21054 0.146472 0)
(1.20072 0.132215 0)
(1.19206 0.11936 0)
(1.18443 0.107739 0)
(1.17768 0.0972104 0)
(1.17168 0.0876491 0)
(1.16634 0.0789498 0)
(1.16156 0.0710215 0)
(1.15729 0.063784 0)
(1.15347 0.0571656 0)
(1.15005 0.0511022 0)
(1.14699 0.0455353 0)
(1.14427 0.0404117 0)
(1.14185 0.0356825 0)
(1.13971 0.0313026 0)
(1.13784 0.0272299 0)
(1.1362 0.0234252 0)
(1.1348 0.0198518 0)
(1.13362 0.0164749 0)
(1.13264 0.0132615 0)
(1.13187 0.0101799 0)
(1.1313 0.00719966 0)
(1.13092 0.00429132 0)
(1.13073 0.00142564 0)
(1.26244 0.288245 0)
(1.24767 0.270616 0)
(1.23536 0.238094 0)
(1.22291 0.214842 0)
(1.21168 0.193058 0)
(1.20156 0.173591 0)
(1.19252 0.15627 0)
(1.18453 0.140745 0)
(1.17748 0.126784 0)
(1.17126 0.114204 0)
(1.16575 0.10284 0)
(1.16086 0.0925517 0)
(1.15649 0.0832202 0)
(1.1526 0.0747412 0)
(1.14911 0.0670233 0)
(1.14599 0.0599853 0)
(1.1432 0.0535544 0)
(1.14071 0.0476649 0)
(1.13849 0.0422571 0)
(1.13651 0.0372766 0)
(1.13476 0.0326733 0)
(1.13322 0.028401 0)
(1.13189 0.0244167 0)
(1.13074 0.0206804 0)
(1.12976 0.0171544 0)
(1.12897 0.013803 0)
(1.12833 0.0105922 0)
(1.12786 0.00748958 0)
(1.12755 0.00446341 0)
(1.12739 0.00148271 0)
(1.22534 0.305408 0)
(1.21302 0.284897 0)
(1.20458 0.250394 0)
(1.19554 0.226021 0)
(1.18736 0.20273 0)
(1.17986 0.182079 0)
(1.17312 0.163689 0)
(1.16713 0.147199 0)
(1.16184 0.13239 0)
(1.15716 0.119066 0)
(1.15302 0.107051 0)
(1.14933 0.0961951 0)
(1.14604 0.0863693 0)
(1.14311 0.0774608 0)
(1.14048 0.0693702 0)
(1.13812 0.0620086 0)
(1.13601 0.0552968 0)
(1.13412 0.0491632 0)
(1.13243 0.0435428 0)
(1.13093 0.0383766 0)
(1.1296 0.0336106 0)
(1.12842 0.0291949 0)
(1.1274 0.0250835 0)
(1.12652 0.0212336 0)
(1.12577 0.0176051 0)
(1.12516 0.0141603 0)
(1.12467 0.0108631 0)
(1.12431 0.00767939 0)
(1.12407 0.00457582 0)
(1.12395 0.00151995 0)
(1.18653 0.316451 0)
(1.17684 0.293438 0)
(1.17244 0.258223 0)
(1.16692 0.233257 0)
(1.16187 0.209019 0)
(1.15709 0.18766 0)
(1.15274 0.168569 0)
(1.14886 0.151432 0)
(1.14543 0.136045 0)
(1.14238 0.122205 0)
(1.13969 0.109736 0)
(1.13729 0.0984824 0)
(1.13514 0.0883119 0)
(1.13322 0.0791061 0)
(1.1315 0.07076 0)
(1.12995 0.0631798 0)
(1.12856 0.0562814 0)
(1.12731 0.0499889 0)
(1.12619 0.0442335 0)
(1.12519 0.0389526 0)
(1.12429 0.034089 0)
(1.1235 0.0295902 0)
(1.12281 0.0254078 0)
(1.12221 0.0214968 0)
(1.1217 0.0178154 0)
(1.12128 0.0143241 0)
(1.12094 0.0109855 0)
(1.12069 0.0077642 0)
(1.12052 0.00462566 0)
(1.12044 0.00153639 0)
(1.14709 0.3216 -1.22344e-11)
(1.14018 0.29654 -1.05597e-11)
(1.13978 0.261701 0)
(1.13774 0.236554 -8.13584e-12)
(1.13576 0.211916 -7.16538e-12)
(1.1337 0.190276 -1.82257e-28)
(1.13178 0.170837 5.59535e-12)
(1.13006 0.153363 4.96574e-12)
(1.12852 0.137664 0)
(1.12717 0.123541 0)
(1.12597 0.110819 0)
(1.12491 0.0993455 0)
(1.12396 0.0889869 0)
(1.1231 0.0796225 0)
(1.12232 0.0711447 0)
(1.12161 0.0634568 0)
(1.12097 0.0564718 0)
(1.12038 0.0501109 0)
(1.11985 0.0443026 0)
(1.11936 0.0389819 0)
(1.11892 0.0340896 1.30994e-12)
(1.11853 0.0295711 2.4119e-12)
(1.11817 0.0253765 1.11584e-12)
(1.11786 0.0214594 0)
(1.1176 0.0177766 -9.73739e-13)
(1.11737 0.0142877 -9.20439e-13)
(1.11719 0.0109545 0)
(1.11706 0.00774056 -8.47009e-13)
(1.11697 0.0046109 -8.26276e-13)
(1.11692 0.00153138 -2.35411e-29)
(1.10782 0.321296 1.22341e-11)
(1.10391 0.294705 1.05597e-11)
(1.10731 0.261057 0)
(1.10856 0.236054 8.13584e-12)
(1.10954 0.211506 7.16538e-12)
(1.11014 0.18995 1.82257e-28)
(1.11062 0.170487 -5.59535e-12)
(1.11104 0.15297 -4.96574e-12)
(1.11142 0.137215 0)
(1.11177 0.123034 0)
(1.1121 0.110259 0)
(1.11239 0.0987443 0)
(1.11266 0.0883563 0)
(1.11288 0.0789753 0)
(1.11307 0.0704933 0)
(1.11322 0.0628125 0)
(1.11335 0.0558444 0)
(1.11344 0.0495088 0)
(1.1135 0.0437328 0)
(1.11354 0.0384502 0)
(1.11356 0.0336003 -1.30994e-12)
(1.11357 0.0291278 -2.4119e-12)
(1.11356 0.0249816 -1.11584e-12)
(1.11354 0.0211148 0)
(1.11352 0.0174836 9.73739e-13)
(1.1135 0.0140472 9.20439e-13)
(1.11348 0.0107671 0)
(1.11346 0.00760653 8.47009e-13)
(1.11344 0.00453041 8.26276e-13)
(1.11344 0.00150455 2.35411e-29)
(1.06938 0.316071 0)
(1.06869 0.288487 0)
(1.07552 0.256585 0)
(1.07985 0.231986 0)
(1.08362 0.207935 0)
(1.08679 0.186765 0)
(1.0896 0.167569 0)
(1.09211 0.150275 0)
(1.09438 0.134704 0)
(1.09643 0.120679 0)
(1.09827 0.108046 0)
(1.09993 0.0966644 0)
(1.10141 0.0864048 0)
(1.10273 0.0771496 0)
(1.10389 0.0687918 0)
(1.10491 0.0612342 0)
(1.1058 0.0543882 0)
(1.10657 0.0481735 0)
(1.10724 0.0425168 0)
(1.10781 0.0373514 0)
(1.10829 0.0326166 0)
(1.1087 0.0282567 0)
(1.10903 0.0242206 0)
(1.10931 0.0204614 0)
(1.10954 0.0169354 0)
(1.10971 0.0136019 0)
(1.10985 0.0104228 0)
(1.10994 0.0073618 0)
(1.11001 0.00438403 0)
(1.11004 0.00145583 0)
(1.03224 0.306491 0)
(1.03495 0.278414 0)
(1.04479 0.248588 0)
(1.05198 0.224608 0)
(1.05835 0.201379 0)
(1.06397 0.180841 0)
(1.06901 0.162169 0)
(1.07356 0.145335 0)
(1.07766 0.130165 0)
(1.08137 0.116499 0)
(1.08471 0.104193 0)
(1.08771 0.0931143 0)
(1.0904 0.0831373 0)
(1.0928 0.0741481 0)
(1.09492 0.0660422 0)
(1.0968 0.0587238 0)
(1.09845 0.0521054 0)
(1.0999 0.0461073 0)
(1.10116 0.040657 0)
(1.10225 0.0356885 0)
(1.10319 0.0311415 0)
(1.10399 0.026961 0)
(1.10467 0.0230966 0)
(1.10523 0.0195021 0)
(1.1057 0.0161345 0)
(1.10607 0.0129542 0)
(1.10636 0.0099237 0)
(1.10657 0.00700781 0)
(1.10671 0.00417265 0)
(1.10677 0.00138555 0)
(0.996719 0.29311 0)
(1.00291 0.264968 0)
(1.01536 0.237341 0)
(1.0252 0.214177 0)
(1.03403 0.192012 0)
(1.04196 0.172314 0)
(1.04912 0.15439 0)
(1.05561 0.138227 0)
(1.06149 0.123658 0)
(1.06681 0.110539 0)
(1.07161 0.0987362 0)
(1.07592 0.0881219 0)
(1.07978 0.0785768 0)
(1.08323 0.0699907 0)
(1.0863 0.0622619 0)
(1.08902 0.0552969 0)
(1.09141 0.0490101 0)
(1.09352 0.0433235 0)
(1.09536 0.0381661 0)
(1.09695 0.0334732 0)
(1.09834 0.0291859 0)
(1.09952 0.0252507 0)
(1.10053 0.0216186 0)
(1.10137 0.0182448 0)
(1.10207 0.0150879 0)
(1.10263 0.0121096 0)
(1.10306 0.00927418 0)
(1.10338 0.0065478 0)
(1.10359 0.00389822 0)
(1.1037 0.00129433 0)
(0.963004 0.276377 0)
(0.972679 0.248537 0)
(0.987406 0.223096 0)
(0.999738 0.20093 0)
(1.01087 0.180005 0)
(1.02098 0.161326 0)
(1.03016 0.144345 0)
(1.03851 0.12904 0)
(1.04608 0.115256 0)
(1.05295 0.10286 0)
(1.05915 0.0917261 0)
(1.06472 0.0817316 0)
(1.06972 0.0727625 0)
(1.07419 0.0647123 0)
(1.07816 0.0574825 0)
(1.08168 0.0509824 0)
(1.08479 0.0451291 0)
(1.08753 0.0398467 0)
(1.08992 0.0350664 0)
(1.09201 0.0307259 0)
(1.09381 0.0267684 0)
(1.09536 0.0231425 0)
(1.09668 0.0198015 0)
(1.09778 0.0167025 0)
(1.0987 0.0138065 0)
(1.09944 0.0110773 0)
(1.10001 0.00848131 0)
(1.10043 0.00598683 0)
(1.10071 0.00356378 0)
(1.10085 0.00118321 0)
(0.931149 0.256621 0)
(0.944321 0.22936 0)
(0.961069 0.206054 0)
(0.975742 0.185065 0)
(0.989061 0.165511 0)
(1.00123 0.14801 0)
(1.01233 0.132145 0)
(1.02244 0.117871 0)
(1.03164 0.105043 0)
(1.03998 0.0935363 0)
(1.04751 0.0832285 0)
(1.0543 0.0740023 0)
(1.06038 0.0657476 0)
(1.06581 0.0583616 0)
(1.07064 0.0517489 0)
(1.07493 0.0458218 0)
(1.07871 0.0405004 0)
(1.08204 0.0357119 0)
(1.08495 0.0313903 0)
(1.08749 0.027476 0)
(1.08968 0.0239155 0)
(1.09157 0.0206602 0)
(1.09318 0.0176661 0)
(1.09453 0.0148934 0)
(1.09565 0.0123057 0)
(1.09655 0.00986983 0)
(1.09725 0.00755481 0)
(1.09777 0.00533183 0)
(1.09811 0.00317349 0)
(1.09828 0.00105357 0)
(0.901073 0.234125 0)
(0.917834 0.2076 0)
(0.936481 0.186353 0)
(0.953357 0.16672 0)
(0.968766 0.148656 0)
(0.982899 0.132488 0)
(0.995818 0.117898 0)
(1.00761 0.104817 0)
(1.01834 0.0931087 0)
(1.02808 0.0826496 0)
(1.03688 0.0733197 0)
(1.04479 0.0650053 0)
(1.05189 0.0575989 0)
(1.05823 0.0510008 0)
(1.06386 0.0451189 0)
(1.06886 0.0398688 0)
(1.07326 0.0351738 0)
(1.07714 0.0309648 0)
(1.08053 0.0271795 0)
(1.08348 0.0237618 0)
(1.08603 0.0206617 0)
(1.08823 0.0178343 0)
(1.0901 0.0152393 0)
(1.09167 0.0128404 0)
(1.09297 0.010605 0)
(1.09402 0.00850295 0)
(1.09483 0.00650698 0)
(1.09543 0.00459154 0)
(1.09583 0.00273258 0)
(1.09603 0.000907144 0)
(0.872766 0.209029 0)
(0.893125 0.183454 0)
(0.913744 0.164131 0)
(0.932731 0.146004 0)
(0.950149 0.129541 0)
(0.966153 0.114861 0)
(0.980806 0.101704 0)
(0.994192 0.0899773 0)
(1.00638 0.0795475 0)
(1.01742 0.0702907 0)
(1.0274 0.0620871 0)
(1.03638 0.0548236 0)
(1.04441 0.0483953 0)
(1.05158 0.0427046 0)
(1.05795 0.0376629 0)
(1.06358 0.033189 0)
(1.06856 0.0292104 0)
(1.07292 0.0256621 0)
(1.07673 0.0224857 0)
(1.08005 0.0196297 0)
(1.08292 0.0170487 0)
(1.08539 0.014702 0)
(1.08748 0.0125537 0)
(1.08924 0.0105718 0)
(1.0907 0.00872789 0)
(1.09187 0.00699594 0)
(1.09279 0.00535269 0)
(1.09346 0.00377659 0)
(1.09391 0.0022474 0)
(1.09412 0.00074605 0)
(0.846483 0.181192 0)
(0.870181 0.157037 0)
(0.892894 0.139533 0)
(0.913975 0.123035 0)
(0.933363 0.108268 0)
(0.951169 0.095225 0)
(0.967478 0.0836579 0)
(0.982369 0.0734476 0)
(0.995915 0.0644583 0)
(1.00819 0.056559 0)
(1.01925 0.0496281 0)
(1.02919 0.0435529 0)
(1.03808 0.0382285 0)
(1.04599 0.0335607 0)
(1.05301 0.0294638 0)
(1.05922 0.0258607 0)
(1.06468 0.022683 0)
(1.06947 0.0198704 0)
(1.07365 0.0173701 0)
(1.07728 0.0151357 0)
(1.08041 0.0131265 0)
(1.0831 0.0113075 0)
(1.08538 0.00964795 0)
(1.0873 0.00812077 0)
(1.08888 0.00670213 0)
(1.09016 0.00537126 0)
(1.09116 0.00410939 0)
(1.09189 0.00289928 0)
(1.09237 0.00172533 0)
(1.09261 0.000572735 0)
(0.822134 0.150725 0)
(0.84921 0.12823 0)
(0.874047 0.112556 0)
(0.897196 0.0978798 0)
(0.918542 0.0849273 0)
(0.938117 0.0736708 0)
(0.956016 0.0638546 0)
(0.972329 0.055331 0)
(0.987141 0.0479457 0)
(1.00053 0.041562 0)
(1.01259 0.0360528 0)
(1.02339 0.0313007 0)
(1.03302 0.0272042 0)
(1.04159 0.0236707 0)
(1.04917 0.020618 0)
(1.05585 0.0179742 0)
(1.06172 0.0156757 0)
(1.06686 0.0136675 0)
(1.07133 0.0119035 0)
(1.07521 0.0103435 0)
(1.07855 0.00895238 0)
(1.08141 0.0077015 0)
(1.08384 0.00656611 0)
(1.08588 0.00552483 0)
(1.08756 0.00455952 0)
(1.08891 0.00365465 0)
(1.08997 0.0027968 0)
(1.09074 0.00197374 0)
(1.09125 0.00117471 0)
(1.0915 0.000389976 0)
(0.798024 0.119076 0)
(0.830084 0.0971625 0)
(0.857426 0.0830751 0)
(0.882629 0.0704523 0)
(0.90586 0.0595465 0)
(0.927174 0.0502722 0)
(0.946612 0.0423877 0)
(0.964262 0.0357295 0)
(0.980243 0.0301253 0)
(0.99464 0.0254219 0)
(1.00756 0.0214828 0)
(1.01911 0.0181902 0)
(1.02939 0.0154432 0)
(1.03849 0.0131514 0)
(1.04652 0.0112365 0)
(1.05358 0.00963324 0)
(1.05977 0.00828457 0)
(1.06516 0.00714231 0)
(1.06985 0.00616702 0)
(1.07391 0.00532571 0)
(1.07739 0.00459109 0)
(1.08037 0.00394101 0)
(1.0829 0.00335815 0)
(1.08501 0.00282674 0)
(1.08675 0.00233514 0)
(1.08815 0.00187482 0)
(1.08924 0.00143707 0)
(1.09004 0.00101545 0)
(1.09056 0.000604932 0)
(1.09082 0.00020094 0)
(0.770786 0.0891535 0)
(0.811297 0.0651229 0)
(0.842826 0.0514423 0)
(0.870543 0.0406857 0)
(0.895625 0.0320864 0)
(0.918592 0.0250568 0)
(0.93948 0.0193463 0)
(0.958377 0.0147617 0)
(0.975407 0.0111269 0)
(0.990689 0.00827921 0)
(1.00435 0.0060582 0)
(1.01651 0.00436121 0)
(1.02729 0.00308464 0)
(1.0368 0.00213521 0)
(1.04516 0.00144541 0)
(1.05249 0.000956337 0)
(1.05888 0.000619161 0)
(1.06444 0.000394351 0)
(1.06926 0.00025095 0)
(1.07341 0.000163934 0)
(1.07697 0.000114778 0)
(1.08 8.96562e-05 0)
(1.08257 7.83135e-05 0)
(1.08471 7.26702e-05 0)
(1.08647 6.81619e-05 0)
(1.08788 6.29424e-05 0)
(1.08898 5.42889e-05 0)
(1.08979 4.16139e-05 0)
(1.09032 2.61294e-05 0)
(1.09058 8.93985e-06 0)
(0.737847 0.0633102 0)
(0.789895 0.0344995 0)
(0.828933 0.019142 0)
(0.860684 0.00907225 0)
(0.888087 0.00265719 0)
(0.912675 -0.00190786 0)
(0.934896 -0.00517001 0)
(0.954915 -0.00743835 0)
(0.972855 -0.00889694 0)
(0.988874 -0.00971561 0)
(1.00312 -0.0100516 0)
(1.01573 -0.0100185 0)
(1.02685 -0.00971613 0)
(1.03662 -0.00922685 0)
(1.04518 -0.00861277 0)
(1.05264 -0.00792357 0)
(1.05912 -0.00719781 0)
(1.06474 -0.00646458 0)
(1.06958 -0.0057446 0)
(1.07375 -0.00505244 0)
(1.0773 -0.00439716 0)
(1.08033 -0.00378374 0)
(1.08287 -0.00321363 0)
(1.08499 -0.00268641 0)
(1.08673 -0.00219919 0)
(1.08813 -0.00174741 0)
(1.08921 -0.00132623 0)
(1.09 -0.00092955 0)
(1.09052 -0.000550622 0)
(1.09078 -0.000182347 0)
(0.700759 0.0406238 0)
(0.763392 0.00700084 0)
(0.813176 -0.0115888 0)
(0.851838 -0.0228608 0)
(0.883064 -0.0281494 0)
(0.909682 -0.0303934 0)
(0.933194 -0.0310286 0)
(0.954166 -0.0307206 0)
(0.972837 -0.0297683 0)
(0.989399 -0.028362 0)
(1.00403 -0.0266534 0)
(1.01691 -0.0247587 0)
(1.0282 -0.0227702 0)
(1.03806 -0.0207581 0)
(1.04665 -0.0187743 0)
(1.0541 -0.0168564 0)
(1.06054 -0.01503 0)
(1.0661 -0.0133114 0)
(1.07086 -0.011709 0)
(1.07494 -0.0102256 0)
(1.07841 -0.00885919 0)
(1.08135 -0.00760448 0)
(1.08381 -0.00645344 0)
(1.08586 -0.00539654 0)
(1.08753 -0.00442277 0)
(1.08887 -0.00352015 0)
(1.08991 -0.00267643 0)
(1.09067 -0.00187875 0)
(1.09116 -0.00111408 0)
(1.09141 -0.000369167 0)
(0.665879 0.0164866 0)
(0.732479 -0.0178321 0)
(0.79336 -0.0394145 0)
(0.842014 -0.0534392 0)
(0.879575 -0.0591573 0)
(0.909472 -0.0597848 0)
(0.93458 -0.0578822 0)
(0.956405 -0.054832 0)
(0.975591 -0.0512502 0)
(0.992463 -0.0474225 0)
(1.00725 -0.0435134 0)
(1.02018 -0.0396342 0)
(1.03143 -0.0358643 0)
(1.04119 -0.0322595 0)
(1.04963 -0.0288562 0)
(1.05691 -0.0256755 0)
(1.06317 -0.0227271 0)
(1.06852 -0.0200117 0)
(1.0731 -0.0175232 0)
(1.07699 -0.0152508 0)
(1.08029 -0.0131799 0)
(1.08306 -0.0112938 0)
(1.08538 -0.00957392 0)
(1.0873 -0.00800122 0)
(1.08887 -0.00655593 0)
(1.09011 -0.00521814 0)
(1.09108 -0.00396808 0)
(1.09178 -0.002786 0)
(1.09224 -0.00165233 0)
(1.09246 -0.000547571 0)
(0.640174 -0.0152492 0)
(0.702344 -0.0427642 0)
(0.770107 -0.0650792 0)
(0.829584 -0.0816751 0)
(0.876071 -0.0890415 0)
(0.911299 -0.0891469 0)
(0.938944 -0.0851678 0)
(0.961796 -0.0793958 0)
(0.981337 -0.0730331 0)
(0.998261 -0.0666099 0)
(1.01294 -0.0603555 0)
(1.02565 -0.0543828 0)
(1.03662 -0.0487549 0)
(1.04607 -0.043507 0)
(1.05416 -0.0386544 0)
(1.06109 -0.0341973 0)
(1.067 -0.0301255 0)
(1.07203 -0.0264209 0)
(1.07629 -0.0230603 0)
(1.07989 -0.0200174 0)
(1.08292 -0.0172636 0)
(1.08545 -0.0147696 0)
(1.08756 -0.0125056 0)
(1.0893 -0.0104423 0)
(1.0907 -0.00855102 0)
(1.09182 -0.00680348 0)
(1.09268 -0.00517239 0)
(1.0933 -0.00363104 0)
(1.09371 -0.00215333 0)
(1.09391 -0.000713575 0)
(0.627983 -0.0568993 0)
(0.679423 -0.0723541 0)
(0.746862 -0.0907956 0)
(0.81464 -0.107821 0)
(0.871327 -0.116974 0)
(0.914123 -0.117499 0)
(0.945843 -0.112131 0)
(0.970319 -0.103877 0)
(0.99022 -0.094702 0)
(1.00696 -0.0855636 0)
(1.02123 -0.076849 0)
(1.03343 -0.0686995 0)
(1.04385 -0.0611628 0)
(1.05272 -0.0542483 0)
(1.06025 -0.0479435 0)
(1.06664 -0.0422222 0)
(1.07203 -0.0370494 0)
(1.07658 -0.0323853 0)
(1.0804 -0.0281869 0)
(1.0836 -0.0244103 0)
(1.08627 -0.0210117 0)
(1.08848 -0.0179481 0)
(1.09031 -0.0151779 0)
(1.09181 -0.0126613 0)
(1.09301 -0.0103603 0)
(1.09396 -0.00823835 0)
(1.09469 -0.0062607 0)
(1.09521 -0.0043938 0)
(1.09556 -0.0026052 0)
(1.09573 -0.00086324 0)
(0.630423 -0.106826 0)
(0.667908 -0.10914 0)
(0.728253 -0.119633 0)
(0.799332 -0.133586 0)
(0.865284 -0.143107 0)
(0.917145 -0.144208 0)
(0.954676 -0.138005 0)
(0.981758 -0.127621 0)
(1.00226 -0.115725 0)
(1.01865 -0.103834 0)
(1.0322 -0.092598 0)
(1.04356 -0.0822301 0)
(1.05312 -0.0727723 0)
(1.06115 -0.0642037 0)
(1.06788 -0.0564778 0)
(1.07351 -0.0495356 0)
(1.07822 -0.0433133 0)
(1.08213 -0.0377451 0)
(1.08538 -0.0327659 0)
(1.08807 -0.0283126 0)
(1.09028 -0.0243249 0)
(1.0921 -0.0207456 0)
(1.09358 -0.017521 0)
(1.09478 -0.0146005 0)
(1.09574 -0.011937 0)
(1.09649 -0.00948595 0)
(1.09706 -0.00720524 0)
(1.09747 -0.00505489 0)
(1.09773 -0.00299649 0)
(1.09786 -0.000992776 0)
(0.644981 -0.161452 0)
(0.668908 -0.152643 0)
(0.718183 -0.15354 0)
(0.78709 -0.161136 0)
(0.859354 -0.168459 0)
(0.920353 -0.169212 0)
(0.965024 -0.162215 0)
(0.99582 -0.14995 0)
(1.01737 -0.135482 0)
(1.03335 -0.120885 0)
(1.04589 -0.107137 0)
(1.05606 -0.094569 0)
(1.06442 -0.0832297 0)
(1.07131 -0.0730671 0)
(1.07698 -0.063994 0)
(1.08165 -0.0559126 0)
(1.08547 -0.0487252 0)
(1.0886 -0.0423373 0)
(1.09115 -0.0366596 0)
(1.09322 -0.0316083 0)
(1.09489 -0.027106 0)
(1.09624 -0.0230812 0)
(1.09731 -0.0194678 0)
(1.09817 -0.0162052 0)
(1.09884 -0.0132371 0)
(1.09935 -0.0105116 0)
(1.09974 -0.00797996 0)
(1.10001 -0.00559618 0)
(1.10018 -0.00331649 0)
(1.10027 -0.00109866 0)
(0.667339 -0.217083 0)
(0.680632 -0.2006 0)
(0.718361 -0.192599 0)
(0.781227 -0.19196 0)
(0.856009 -0.194312 0)
(0.924734 -0.192898 0)
(0.976976 -0.184451 0)
(1.01234 -0.170245 0)
(1.0354 -0.153306 0)
(1.05098 -0.136103 0)
(1.06223 -0.119934 0)
(1.07085 -0.105261 0)
(1.07765 -0.0921486 0)
(1.08309 -0.0805119 0)
(1.08745 -0.070217 0)
(1.09093 -0.0611224 0)
(1.09369 -0.0530925 0)
(1.09588 -0.0460016 0)
(1.09761 -0.0397345 0)
(1.09895 -0.0341866 0)
(1.1 -0.0292634 0)
(1.10081 -0.0248791 0)
(1.10142 -0.0209564 0)
(1.10188 -0.0174249 0)
(1.10223 -0.0142204 0)
(1.10248 -0.0112842 0)
(1.10266 -0.00856152 0)
(1.10278 -0.00600148 0)
(1.10286 -0.00355569 0)
(1.10289 -0.00117773 0)
(0.693369 -0.27128 0)
(0.699965 -0.250402 0)
(0.728364 -0.235379 0)
(0.783892 -0.226184 0)
(0.857965 -0.221425 0)
(0.932069 -0.215663 0)
(0.991246 -0.204514 0)
(1.03141 -0.187926 0)
(1.05625 -0.168489 0)
(1.07138 -0.148811 0)
(1.08107 -0.130396 0)
(1.08776 -0.113807 0)
(1.09265 -0.0991158 0)
(1.09632 -0.0861982 0)
(1.0991 -0.0748687 0)
(1.10118 -0.0649377 0)
(1.10272 -0.0562294 0)
(1.10383 -0.048586 0)
(1.10462 -0.0418666 0)
(1.10515 -0.0359463 0)
(1.1055 -0.0307144 0)
(1.10571 -0.0260724 0)
(1.10581 -0.0219326 0)
(1.10585 -0.0182163 0)
(1.10584 -0.0148525 0)
(1.1058 -0.0117769 0)
(1.10576 -0.00893009 0)
(1.10571 -0.00625712 0)
(1.10568 -0.00370609 0)
(1.10566 -0.00122737 0)
(0.720193 -0.323003 0)
(0.72405 -0.299854 0)
(0.746711 -0.279593 0)
(0.795907 -0.262431 0)
(0.867461 -0.249377 0)
(0.944441 -0.237315 0)
(1.00902 -0.22197 0)
(1.05345 -0.202297 0)
(1.07988 -0.180241 0)
(1.09434 -0.158259 0)
(1.10214 -0.137879 0)
(1.10653 -0.119679 0)
(1.10915 -0.103708 0)
(1.11075 -0.0897889 0)
(1.1117 -0.077681 0)
(1.11218 -0.0671454 0)
(1.11234 -0.0579666 0)
(1.11226 -0.0499557 0)
(1.11202 -0.0429482 0)
(1.11167 -0.0368012 0)
(1.11126 -0.0313903 0)
(1.11082 -0.0266061 0)
(1.11038 -0.0223526 0)
(1.10995 -0.0185447 0)
(1.10957 -0.0151064 0)
(1.10923 -0.0119691 0)
(1.10895 -0.00907047 0)
(1.10874 -0.00635268 0)
(1.10859 -0.00376158 0)
(1.10851 -0.00124555 0)
(0.746629 -0.371787 0)
(0.751242 -0.347 0)
(0.772013 -0.32241 0)
(0.817233 -0.297988 0)
(0.885921 -0.276283 0)
(0.963682 -0.256634 0)
(1.03159 -0.235817 0)
(1.07897 -0.212382 0)
(1.10626 -0.187632 0)
(1.11956 -0.163631 0)
(1.12504 -0.141711 0)
(1.12673 -0.122348 0)
(1.12675 -0.105515 0)
(1.12602 -0.0909708 0)
(1.12493 -0.078415 0)
(1.12367 -0.0675625 0)
(1.12232 -0.0581631 0)
(1.12096 -0.050002 0)
(1.11962 -0.0428955 0)
(1.11833 -0.0366867 0)
(1.11713 -0.0312407 0)
(1.11601 -0.026441 0)
(1.115 -0.022186 0)
(1.11411 -0.0183867 0)
(1.11333 -0.014964 0)
(1.11268 -0.0118474 0)
(1.11216 -0.00897286 0)
(1.11177 -0.00628152 0)
(1.1115 -0.00371833 0)
(1.11137 -0.00123104 0)
(0.773169 -0.416453 0)
(0.78141 -0.389331 0)
(0.803652 -0.36031 0)
(0.84754 -0.329068 0)
(0.913912 -0.298959 0)
(0.990915 -0.271317 0)
(1.05986 -0.244384 0)
(1.10828 -0.216883 0)
(1.13519 -0.189619 0)
(1.14655 -0.164097 0)
(1.14918 -0.141253 0)
(1.14781 -0.121335 0)
(1.14495 -0.104188 0)
(1.14167 -0.0894889 0)
(1.13841 -0.0768845 0)
(1.13529 -0.0660539 0)
(1.13237 -0.0567211 0)
(1.12968 -0.0486535 0)
(1.12721 -0.0416562 0)
(1.12496 -0.0355642 0)
(1.12294 -0.0302377 0)
(1.12114 -0.0255569 0)
(1.11956 -0.0214181 0)
(1.11819 -0.0177315 0)
(1.11703 -0.0144178 0)
(1.11606 -0.0114064 0)
(1.1153 -0.00863362 0)
(1.11473 -0.0060413 0)
(1.11435 -0.00357502 0)
(1.11416 -0.00118341 0)
(0.8016 -0.45396 0)
(0.815629 -0.423056 0)
(0.841732 -0.388995 0)
(0.88636 -0.351284 0)
(0.951156 -0.313551 0)
(1.02627 -0.278426 0)
(1.09398 -0.245596 0)
(1.14121 -0.214354 0)
(1.16611 -0.185183 0)
(1.17454 -0.158932 0)
(1.17377 -0.135995 0)
(1.16902 -0.11629 0)
(1.1631 -0.0994878 0)
(1.15718 -0.085184 0)
(1.15168 -0.0729863 0)
(1.14668 -0.062553 0)
(1.14218 -0.0535986 0)
(1.13815 -0.0458856 0)
(1.13455 -0.039217 0)
(1.13136 -0.0334282 0)
(1.12854 -0.0283804 0)
(1.12607 -0.0239553 0)
(1.12393 -0.0200523 0)
(1.12209 -0.0165835 0)
(1.12055 -0.0134719 0)
(1.11928 -0.0106498 0)
(1.11828 -0.00805592 0)
(1.11754 -0.00563438 0)
(1.11704 -0.00333313 0)
(1.1168 -0.00110315 0)
(0.834276 -0.479124 0)
(0.855292 -0.443269 0)
(0.886365 -0.403938 0)
(0.93285 -0.360451 0)
(0.996561 -0.316389 0)
(1.06883 -0.275078 0)
(1.13316 -0.237434 0)
(1.17687 -0.203501 0)
(1.198 -0.173531 0)
(1.20246 -0.147669 0)
(1.19779 -0.125673 0)
(1.18949 -0.107068 0)
(1.18047 -0.0913456 0)
(1.17194 -0.0780327 0)
(1.16425 -0.0667228 0)
(1.15743 -0.0570787 0)
(1.1514 -0.0488226 0)
(1.14609 -0.0417283 0)
(1.14142 -0.035609 0)
(1.13733 -0.0303085 0)
(1.13375 -0.0256962 0)
(1.13065 -0.0216616 0)
(1.12797 -0.0181105 0)
(1.1257 -0.0149613 0)
(1.1238 -0.0121424 0)
(1.12224 -0.00959069 0)
(1.12102 -0.0072498 0)
(1.12011 -0.00506784 0)
(1.11952 -0.00299689 0)
(1.11922 -0.00099169 0)
(0.872907 -0.486014 0)
(0.90083 -0.445382 0)
(0.936862 -0.401421 0)
(0.985588 -0.353323 0)
(1.04837 -0.304623 0)
(1.11681 -0.25899 0)
(1.17574 -0.218373 0)
(1.21371 -0.183498 0)
(1.22938 -0.15433 0)
(1.22896 -0.130255 0)
(1.22008 -0.110364 0)
(1.20824 -0.0938007 0)
(1.19629 -0.0799046 0)
(1.18533 -0.068174 0)
(1.17562 -0.0582232 0)
(1.16713 -0.0497464 0)
(1.15971 -0.0424963 0)
(1.15324 -0.0362726 0)
(1.14759 -0.0309108 0)
(1.14268 -0.026273 0)
(1.13841 -0.0222435 0)
(1.13473 -0.0187254 0)
(1.13158 -0.0156352 0)
(1.1289 -0.0129002 0)
(1.12668 -0.0104576 0)
(1.12486 -0.00825172 0)
(1.12344 -0.00623235 0)
(1.12239 -0.00435379 0)
(1.1217 -0.00257346 0)
(1.12135 -0.000851367 0)
(0.917143 -0.470414 0)
(0.951154 -0.426452 0)
(0.991787 -0.37897 0)
(1.04282 -0.327705 0)
(1.10437 -0.276361 0)
(1.16776 -0.228774 0)
(1.2193 -0.187723 0)
(1.24951 -0.15428 0)
(1.25836 -0.1279 0)
(1.25248 -0.107169 0)
(1.23941 -0.0905607 0)
(1.22432 -0.0769261 0)
(1.20979 -0.0655345 0)
(1.19674 -0.0559169 0)
(1.18532 -0.0477437 0)
(1.17541 -0.0407686 0)
(1.1668 -0.0347956 0)
(1.15933 -0.0296659 0)
(1.15285 -0.0252462 0)
(1.14723 -0.021425 0)
(1.14237 -0.018109 0)
(1.13819 -0.0152189 0)
(1.13463 -0.0126854 0)
(1.13161 -0.0104489 0)
(1.1291 -0.00845721 0)
(1.12707 -0.00666387 0)
(1.12547 -0.00502712 0)
(1.12429 -0.00350848 0)
(1.12351 -0.00207243 0)
(1.12313 -0.000685371 0)
(0.964927 -0.430661 0)
(1.00466 -0.384753 0)
(1.04959 -0.334877 0)
(1.10257 -0.282336 0)
(1.16184 -0.230827 0)
(1.21848 -0.184319 0)
(1.2607 -0.146049 0)
(1.28157 -0.116844 0)
(1.28283 -0.0953814 0)
(1.27149 -0.079479 0)
(1.25466 -0.0671622 0)
(1.23689 -0.0571733 0)
(1.22035 -0.0488208 0)
(1.2057 -0.0417255 0)
(1.19297 -0.0356563 0)
(1.18194 -0.0304471 0)
(1.17241 -0.0259683 0)
(1.16416 -0.0221102 0)
(1.15702 -0.0187808 0)
(1.15084 -0.0159025 0)
(1.14551 -0.0134068 0)
(1.14093 -0.0112357 0)
(1.13703 -0.00933892 0)
(1.13373 -0.00767066 0)
(1.131 -0.00619153 0)
(1.12878 -0.0048668 0)
(1.12704 -0.00366381 0)
(1.12576 -0.00255259 0)
(1.12492 -0.00150604 0)
(1.1245 -0.000497796 0)
(1.015 -0.36584 0)
(1.06007 -0.318974 0)
(1.10849 -0.268481 0)
(1.16207 -0.217491 0)
(1.21712 -0.169078 0)
(1.26496 -0.127452 0)
(1.29625 -0.095592 0)
(1.30701 -0.0734234 0)
(1.30079 -0.0587266 0)
(1.28469 -0.048751 0)
(1.26496 -0.0413957 0)
(1.24537 -0.0354885 0)
(1.22752 -0.0304926 0)
(1.21184 -0.0261754 0)
(1.19826 -0.0224196 0)
(1.18651 -0.0191469 0)
(1.17635 -0.0163073 0)
(1.16756 -0.0138456 0)
(1.15995 -0.0117103 0)
(1.15338 -0.00986393 0)
(1.14771 -0.00826839 0)
(1.14285 -0.00688427 0)
(1.1387 -0.00568289 0)
(1.13521 -0.00463666 0)
(1.13231 -0.00371826 0)
(1.12996 -0.00290524 0)
(1.12811 -0.00217551 0)
(1.12676 -0.00150956 0)
(1.12586 -0.000888175 0)
(1.12542 -0.000293031 0)
(1.06704 -0.275966 0)
(1.11504 -0.229749 0)
(1.1654 -0.182031 0)
(1.21719 -0.136346 0)
(1.26552 -0.0950763 0)
(1.30273 -0.0624568 0)
(1.32235 -0.0402813 0)
(1.32345 -0.0272288 0)