/*--------------------------------*- C++ -*----------------------------------*\
  =========                 |
  \\      /  F ield         | OpenFOAM: The Open Source CFD Toolbox
   \\    /   O peration     | Website:  https://openfoam.org
    \\  /    A nd           | Version:  7
     \\/     M anipulation  |
\*---------------------------------------------------------------------------*/
FoamFile
{
    version     2.0;
    format      ascii;
    class       volScalarField;
    location    "35.001";
    object      p;
}
// * * * * * * * * * * * * * * * * * * * * * * * * * * * * * * * * * * * * * //

dimensions      [0 2 -2 0 0 0 0];

internalField   nonuniform List<scalar> 
14800
(
-0.257093
-0.260056
-0.261024
-0.26207
-0.263033
-0.263977
-0.264885
-0.265714
-0.266413
-0.266934
-0.267229
-0.267261
-0.267008
-0.266467
-0.265696
-0.257353
-0.26027
-0.261222
-0.262255
-0.263207
-0.264143
-0.265046
-0.265872
-0.266569
-0.267089
-0.267383
-0.267408
-0.267138
-0.266575
-0.265698
-0.257867
-0.260691
-0.261614
-0.262618
-0.263548
-0.264469
-0.265361
-0.266178
-0.266872
-0.267389
-0.267679
-0.267694
-0.267387
-0.266797
-0.265676
-0.25862
-0.261311
-0.262187
-0.263147
-0.264044
-0.264939
-0.265811
-0.266616
-0.267302
-0.267814
-0.268098
-0.268101
-0.267727
-0.267144
-0.265581
-0.259593
-0.262112
-0.262927
-0.263826
-0.264675
-0.265532
-0.266375
-0.267159
-0.267831
-0.268334
-0.268608
-0.268606
-0.268112
-0.267641
-0.265338
-0.260763
-0.263078
-0.263813
-0.264633
-0.265417
-0.266221
-0.267023
-0.267775
-0.268426
-0.268913
-0.269169
-0.269184
-0.268471
-0.268331
-0.264839
-0.262104
-0.264187
-0.264824
-0.265545
-0.266244
-0.266977
-0.267721
-0.268427
-0.269045
-0.269509
-0.269726
-0.269816
-0.268687
-0.269261
-0.263989
-0.263588
-0.265419
-0.265939
-0.266536
-0.267127
-0.267767
-0.268433
-0.269076
-0.269645
-0.270075
-0.270207
-0.270488
-0.26866
-0.270347
-0.263148
-0.265188
-0.266753
-0.267134
-0.267583
-0.268038
-0.268559
-0.269124
-0.269682
-0.270181
-0.270568
-0.270533
-0.271123
-0.268654
-0.271024
-0.262346
-0.266881
-0.268171
-0.268391
-0.268662
-0.268952
-0.269324
-0.26976
-0.270208
-0.270609
-0.270945
-0.270795
-0.271485
-0.268413
-0.271736
-0.261234
-0.26865
-0.269659
-0.269693
-0.269755
-0.269846
-0.270038
-0.270315
-0.270626
-0.270908
-0.271154
-0.27083
-0.27173
-0.267775
-0.272381
-0.259882
-0.270481
-0.271209
-0.27103
-0.270848
-0.270705
-0.270681
-0.270769
-0.270914
-0.271046
-0.271189
-0.270616
-0.27179
-0.266804
-0.272697
-0.258533
-0.272371
-0.272817
-0.272395
-0.271936
-0.271521
-0.271247
-0.271112
-0.271065
-0.271016
-0.271037
-0.270178
-0.271546
-0.265659
-0.272322
-0.257479
-0.274326
-0.274486
-0.273792
-0.273018
-0.272294
-0.271736
-0.271349
-0.271082
-0.270826
-0.270689
-0.269554
-0.27087
-0.264526
-0.270896
-0.256763
-0.276359
-0.276228
-0.275226
-0.274104
-0.273035
-0.27216
-0.271493
-0.270981
-0.270496
-0.270142
-0.268777
-0.269663
-0.263471
-0.268304
-0.25597
-0.278498
-0.27806
-0.276717
-0.27521
-0.273764
-0.272544
-0.271571
-0.270788
-0.270049
-0.269401
-0.267836
-0.267907
-0.262314
-0.264782
-0.254472
-0.280775
-0.279996
-0.278297
-0.276363
-0.27451
-0.27292
-0.271618
-0.270535
-0.269504
-0.268474
-0.266661
-0.265651
-0.260698
-0.260683
-0.251892
-0.283237
-0.28208
-0.279988
-0.277595
-0.27531
-0.273328
-0.271673
-0.270252
-0.268868
-0.267352
-0.265154
-0.262935
-0.25831
-0.256096
-0.248226
-0.285939
-0.284344
-0.281826
-0.278948
-0.276209
-0.273814
-0.271776
-0.269961
-0.268133
-0.266007
-0.263224
-0.259767
-0.255017
-0.250794
-0.24361
-0.288941
-0.286829
-0.283854
-0.280464
-0.277251
-0.274421
-0.271956
-0.269671
-0.267277
-0.264395
-0.260813
-0.256156
-0.250863
-0.24466
-0.238154
-0.292281
-0.289592
-0.286118
-0.282191
-0.278484
-0.275185
-0.272231
-0.269371
-0.266261
-0.26247
-0.257905
-0.252128
-0.246003
-0.238326
-0.231814
-0.296027
-0.292675
-0.288665
-0.284176
-0.279949
-0.276133
-0.272604
-0.269036
-0.265041
-0.260196
-0.254526
-0.247695
-0.240592
-0.232265
-0.224862
-0.300241
-0.29612
-0.291541
-0.286463
-0.281679
-0.277279
-0.273061
-0.268627
-0.263572
-0.257554
-0.250724
-0.242889
-0.234965
-0.226058
-0.218097
-0.304979
-0.299973
-0.294793
-0.289094
-0.283698
-0.278622
-0.273574
-0.268095
-0.261812
-0.254541
-0.246549
-0.237809
-0.229152
-0.219828
-0.211637
-0.310289
-0.304277
-0.298466
-0.292101
-0.286019
-0.280151
-0.274102
-0.267381
-0.259732
-0.25117
-0.242062
-0.232503
-0.223233
-0.213579
-0.205204
-0.316213
-0.309075
-0.302602
-0.295509
-0.288645
-0.281839
-0.274579
-0.266425
-0.257312
-0.247461
-0.237306
-0.227018
-0.217215
-0.207277
-0.198793
-0.322783
-0.314405
-0.307235
-0.299332
-0.291569
-0.283636
-0.274929
-0.265172
-0.254542
-0.243439
-0.232315
-0.221375
-0.211095
-0.200919
-0.192294
-0.330023
-0.320299
-0.312388
-0.303575
-0.294765
-0.285461
-0.275063
-0.263574
-0.251421
-0.239121
-0.227107
-0.215575
-0.204859
-0.194465
-0.185694
-0.337944
-0.326782
-0.31807
-0.308231
-0.298176
-0.287208
-0.274898
-0.261598
-0.247946
-0.234516
-0.221682
-0.209608
-0.198485
-0.187895
-0.178957
-0.346541
-0.33386
-0.324271
-0.313273
-0.301706
-0.288759
-0.274357
-0.259213
-0.244112
-0.229621
-0.216031
-0.203453
-0.191949
-0.181178
-0.17206
-0.355791
-0.341523
-0.330965
-0.318642
-0.305219
-0.289992
-0.273373
-0.256392
-0.239908
-0.224423
-0.210134
-0.197084
-0.185223
-0.174289
-0.164983
-0.365644
-0.349729
-0.338102
-0.324229
-0.308554
-0.290787
-0.271882
-0.253107
-0.235313
-0.218901
-0.203964
-0.190471
-0.178281
-0.167202
-0.157704
-0.376023
-0.358406
-0.345606
-0.329869
-0.31154
-0.291035
-0.26983
-0.249325
-0.2303
-0.213026
-0.197489
-0.183585
-0.171097
-0.159892
-0.150205
-0.386814
-0.367447
-0.353358
-0.335355
-0.314004
-0.290634
-0.267158
-0.245009
-0.224835
-0.206764
-0.190677
-0.176395
-0.163645
-0.152335
-0.14247
-0.397863
-0.376716
-0.361183
-0.340453
-0.315778
-0.289486
-0.26381
-0.240115
-0.218879
-0.200077
-0.183491
-0.16887
-0.1559
-0.144509
-0.134482
-0.408972
-0.386044
-0.368846
-0.344918
-0.3167
-0.287499
-0.259727
-0.234598
-0.21239
-0.192928
-0.175898
-0.160983
-0.147838
-0.136391
-0.126226
-0.4199
-0.395232
-0.376061
-0.348509
-0.316622
-0.284586
-0.25485
-0.228408
-0.205324
-0.185277
-0.167866
-0.152708
-0.139439
-0.12796
-0.117691
-0.430369
-0.404045
-0.382505
-0.350991
-0.315404
-0.280662
-0.249117
-0.221494
-0.197637
-0.177087
-0.159362
-0.144022
-0.130683
-0.119205
-0.108876
-0.440069
-0.412211
-0.387845
-0.35214
-0.312918
-0.275647
-0.242469
-0.213805
-0.189286
-0.168323
-0.15036
-0.134904
-0.121555
-0.110119
-0.0998006
-0.448673
-0.419423
-0.391757
-0.351754
-0.309049
-0.269465
-0.234847
-0.205295
-0.180231
-0.158952
-0.140833
-0.125334
-0.11204
-0.100707
-0.090495
-0.455846
-0.425345
-0.39394
-0.349647
-0.303692
-0.262048
-0.226197
-0.195917
-0.170437
-0.148948
-0.13076
-0.115293
-0.10212
-0.0909641
-0.0809646
-0.461254
-0.429625
-0.394132
-0.345665
-0.296755
-0.253332
-0.21647
-0.185634
-0.159874
-0.138286
-0.120123
-0.104764
-0.0917795
-0.0808682
-0.0711549
-0.464576
-0.431909
-0.392106
-0.339677
-0.288163
-0.243265
-0.205625
-0.174414
-0.148518
-0.126951
-0.108909
-0.0937401
-0.0810118
-0.0703883
-0.0609402
-0.465508
-0.431862
-0.387675
-0.331584
-0.277853
-0.231803
-0.19363
-0.162231
-0.136351
-0.114928
-0.0971094
-0.0822175
-0.069827
-0.0595192
-0.0501596
-0.463777
-0.429187
-0.38068
-0.321314
-0.265781
-0.218915
-0.18046
-0.149067
-0.12336
-0.10221
-0.0847216
-0.0701989
-0.0582411
-0.0482934
-0.0388424
-0.459141
-0.423639
-0.370994
-0.308815
-0.251921
-0.204583
-0.166099
-0.134908
-0.109538
-0.0887984
-0.0717594
-0.0577011
-0.0462644
-0.0366672
-0.0275048
-0.451396
-0.415019
-0.358529
-0.294064
-0.236264
-0.188795
-0.150532
-0.119753
-0.0948958
-0.0747101
-0.0582494
-0.0447705
-0.0338969
-0.024637
-0.0160636
-0.440377
-0.403185
-0.343236
-0.277058
-0.21881
-0.17154
-0.133762
-0.103634
-0.0794696
-0.0599906
-0.0441924
-0.0313975
-0.0211361
-0.0122985
-0.00443179
-0.425964
-0.388048
-0.325106
-0.25781
-0.199559
-0.15282
-0.115845
-0.086617
-0.0632858
-0.0446229
-0.0296162
-0.0175972
-0.00801088
0.000306235
0.00741227
-0.408084
-0.369574
-0.304166
-0.236354
-0.178516
-0.132708
-0.0969127
-0.0686661
-0.0463488
-0.0286457
-0.014551
-0.00339764
0.0054421
0.0131544
0.0194532
-0.386708
-0.347781
-0.280487
-0.212757
-0.155752
-0.111425
-0.0768303
-0.0498334
-0.0287008
-0.0120994
0.000966688
0.0111652
0.0191851
0.0262205
0.0316602
-0.361853
-0.322735
-0.254182
-0.18713
-0.131524
-0.0887657
-0.0557166
-0.0301764
-0.0103935
0.00496951
0.0168952
0.0260506
0.0331789
0.039468
0.0439887
-0.333588
-0.294569
-0.225374
-0.159565
-0.105798
-0.064897
-0.0336481
-0.00976218
0.00851434
0.0225091
0.0331869
0.0412143
0.0473821
0.0528531
0.0563872
-0.302041
-0.263516
-0.194087
-0.130168
-0.0786655
-0.0399293
-0.0107123
0.0113352
0.027957
0.040461
0.0497887
0.0566087
0.0617526
0.0663324
0.0688174
-0.267391
-0.229878
-0.160251
-0.0991281
-0.0502657
-0.0139789
0.0129953
0.0330334
0.0478624
0.0587603
0.0666417
0.0721828
0.0762505
0.0798707
0.0812562
-0.229836
-0.193708
-0.124369
-0.0665128
-0.0207415
0.0128302
0.0373696
0.0552428
0.0681521
0.0773369
0.0836824
0.0878844
0.0908346
0.0934181
0.0936099
-0.189577
-0.154514
-0.0873919
-0.0326374
0.00975348
0.0403667
0.062297
0.0778666
0.0887421
0.0961168
0.100849
0.103666
0.105448
0.106834
0.105578
-0.146884
-0.113112
-0.0491123
0.00225471
0.041046
0.0684921
0.0876574
0.100801
0.109544
0.115025
0.118088
0.119492
0.120008
0.119845
0.116746
-0.101969
-0.0700383
-0.00963278
0.037958
0.0729514
0.0970576
0.113324
0.123938
0.130463
0.133987
0.135351
0.135325
0.134427
0.132262
0.127105
-0.055265
-0.0256168
0.0308148
0.0742679
0.105281
0.125906
0.139163
0.147163
0.151402
0.152925
0.152575
0.151092
0.148625
0.144326
0.137705
-0.00716534
0.0198359
0.0719504
0.110965
0.137843
0.154876
0.165036
0.170356
0.172262
0.171757
0.169677
0.166664
0.162491
0.156272
0.151209
0.0419355
0.0659784
0.113477
0.147818
0.170439
0.183797
0.190802
0.193397
0.192941
0.190395
0.186561
0.181929
0.176061
0.168615
0.164319
0.0916292
0.112455
0.155092
0.184586
0.202867
0.2125
0.216314
0.216163
0.213334
0.208746
0.203141
0.19687
0.189471
0.181118
0.176566
0.141502
0.158899
0.196488
0.221023
0.234923
0.240811
0.241427
0.238528
0.233336
0.226713
0.219332
0.211441
0.20265
0.193472
0.188207
0.19114
0.204935
0.23736
0.256882
0.2664
0.268557
0.265992
0.260369
0.252837
0.244203
0.235063
0.225598
0.215504
0.205457
0.199262
0.240127
0.250193
0.277403
0.291917
0.297094
0.295564
0.289864
0.281561
0.271732
0.261121
0.250257
0.239274
0.227942
0.216997
0.209779
0.288048
0.294311
0.316321
0.325885
0.326802
0.321663
0.312898
0.301981
0.289914
0.277379
0.26484
0.2524
0.239877
0.228019
0.219744
0.334495
0.336936
0.353822
0.358549
0.355327
0.346688
0.334955
0.321509
0.307281
0.292889
0.278738
0.264904
0.251242
0.238476
0.229134
0.379074
0.377728
0.389627
0.389681
0.382477
0.370477
0.355898
0.34003
0.323734
0.307566
0.291878
0.276721
0.261975
0.248321
0.237921
0.421405
0.416364
0.423469
0.419061
0.40807
0.392877
0.375598
0.357433
0.339178
0.32133
0.30419
0.287786
0.27202
0.257512
0.246075
0.461127
0.452535
0.455097
0.446481
0.431932
0.413742
0.39393
0.373614
0.353525
0.334105
0.315607
0.298042
0.281327
0.266006
0.253568
0.497904
0.485955
0.484274
0.471749
0.453901
0.432935
0.410779
0.388474
0.36669
0.345818
0.326068
0.307435
0.289846
0.273765
0.260375
0.531423
0.516361
0.510783
0.494683
0.473826
0.45033
0.426038
0.401922
0.378597
0.356404
0.335515
0.315914
0.297536
0.280755
0.266474
0.5614
0.543511
0.534427
0.515122
0.491572
0.465812
0.439611
0.413877
0.389175
0.365803
0.343899
0.323436
0.304356
0.286942
0.271846
0.587582
0.567191
0.55503
0.532919
0.507016
0.479279
0.451411
0.424265
0.398361
0.373961
0.351171
0.32996
0.31027
0.2923
0.276476
0.609746
0.587216
0.572439
0.547949
0.520052
0.490641
0.461363
0.433021
0.406102
0.380832
0.357294
0.335451
0.315248
0.296802
0.28035
0.627705
0.603428
0.586523
0.560103
0.53059
0.499823
0.469402
0.440093
0.41235
0.386376
0.362233
0.339881
0.319263
0.300429
0.283459
0.641309
0.615699
0.597179
0.569295
0.538558
0.506763
0.475476
0.445435
0.41707
0.390563
0.365962
0.343224
0.322294
0.303163
0.285797
0.650443
0.623934
0.604327
0.57546
0.543901
0.511416
0.479548
0.449015
0.420232
0.393367
0.368459
0.345463
0.324323
0.304993
0.287357
0.655029
0.628067
0.607915
0.578554
0.546582
0.51375
0.481591
0.45081
0.421817
0.394773
0.369711
0.346585
0.325341
0.305911
0.288138
0.655029
0.628067
0.607915
0.578554
0.546582
0.51375
0.481591
0.45081
0.421817
0.394773
0.369711
0.346585
0.325341
0.305911
0.288138
0.650443
0.623934
0.604327
0.57546
0.543901
0.511416
0.479548
0.449015
0.420232
0.393367
0.368459
0.345463
0.324323
0.304993
0.287357
0.641309
0.615699
0.597179
0.569295
0.538558
0.506763
0.475476
0.445435
0.41707
0.390563
0.365962
0.343224
0.322294
0.303163
0.285797
0.627705
0.603428
0.586523
0.560103
0.53059
0.499823
0.469402
0.440093
0.41235
0.386376
0.362233
0.339881
0.319263
0.300429
0.283459
0.609746
0.587216
0.572439
0.547949
0.520052
0.490641
0.461363
0.433021
0.406102
0.380832
0.357294
0.335451
0.315248
0.296802
0.28035
0.587582
0.567191
0.55503
0.532919
0.507016
0.479279
0.451411
0.424265
0.398361
0.373961
0.351171
0.32996
0.31027
0.2923
0.276476
0.5614
0.543511
0.534427
0.515122
0.491572
0.465812
0.439611
0.413877
0.389175
0.365803
0.343898
0.323436
0.304356
0.286942
0.271846
0.531423
0.516361
0.510783
0.494683
0.473826
0.45033
0.426038
0.401922
0.378597
0.356404
0.335515
0.315914
0.297536
0.280755
0.266474
0.497904
0.485955
0.484274
0.471749
0.453901
0.432935
0.410779
0.388474
0.36669
0.345818
0.326068
0.307434
0.289846
0.273765
0.260375
0.461127
0.452535
0.455097
0.446481
0.431932
0.413742
0.39393
0.373614
0.353525
0.334105
0.315607
0.298042
0.281327
0.266006
0.253568
0.421405
0.416364
0.423469
0.419061
0.40807
0.392877
0.375598
0.357433
0.339178
0.32133
0.30419
0.287786
0.27202
0.257512
0.246075
0.379074
0.377728
0.389627
0.389681
0.382477
0.370477
0.355898
0.34003
0.323734
0.307566
0.291878
0.276721
0.261975
0.248321
0.237921
0.334495
0.336936
0.353822
0.358549
0.355327
0.346688
0.334955
0.321509
0.307281
0.292889
0.278738
0.264904
0.251242
0.238476
0.229134
0.288048
0.294311
0.316321
0.325885
0.326802
0.321663
0.312898
0.301981
0.289914
0.277379
0.26484
0.2524
0.239877
0.228019
0.219744
0.240127
0.250193
0.277403
0.291917
0.297094
0.295564
0.289864
0.281561
0.271732
0.261121
0.250257
0.239274
0.227942
0.216997
0.209779
0.19114
0.204935
0.23736
0.256882
0.2664
0.268557
0.265992
0.260369
0.252837
0.244203
0.235063
0.225598
0.215503
0.205457
0.199262
0.141502
0.158899
0.196488
0.221023
0.234923
0.240811
0.241426
0.238528
0.233336
0.226713
0.219332
0.211441
0.20265
0.193472
0.188207
0.0916292
0.112455
0.155092
0.184586
0.202867
0.2125
0.216314
0.216163
0.213334
0.208746
0.203141
0.19687
0.189471
0.181118
0.176566
0.0419355
0.0659783
0.113477
0.147818
0.170439
0.183797
0.190802
0.193397
0.192941
0.190395
0.186561
0.181928
0.176061
0.168615
0.164319
-0.00716544
0.0198358
0.0719503
0.110965
0.137843
0.154875
0.165036
0.170356
0.172262
0.171757
0.169677
0.166664
0.162491
0.156272
0.151209
-0.0552652
-0.0256169
0.0308147
0.0742677
0.105281
0.125906
0.139163
0.147162
0.151402
0.152925
0.152575
0.151092
0.148625
0.144326
0.137705
-0.101969
-0.0700384
-0.00963291
0.0379579
0.0729513
0.0970575
0.113324
0.123938
0.130463
0.133987
0.135351
0.135325
0.134427
0.132262
0.127105
-0.146884
-0.113113
-0.0491124
0.00225457
0.0410459
0.068492
0.0876573
0.100801
0.109543
0.115025
0.118088
0.119492
0.120008
0.119844
0.116746
-0.189577
-0.154514
-0.087392
-0.0326376
0.00975333
0.0403666
0.0622969
0.0778664
0.088742
0.0961166
0.100849
0.103666
0.105448
0.106834
0.105578
-0.229836
-0.193708
-0.124369
-0.066513
-0.0207417
0.01283
0.0373694
0.0552427
0.0681519
0.0773368
0.0836823
0.0878843
0.0908345
0.093418
0.0936098
-0.267391
-0.229879
-0.160251
-0.0991283
-0.0502659
-0.0139791
0.0129952
0.0330333
0.0478623
0.0587602
0.0666415
0.0721827
0.0762504
0.0798706
0.0812561
-0.302041
-0.263516
-0.194087
-0.130168
-0.0786657
-0.0399295
-0.0107125
0.011335
0.0279569
0.0404608
0.0497886
0.0566086
0.0617526
0.0663323
0.0688174
-0.333589
-0.294569
-0.225374
-0.159565
-0.105799
-0.0648972
-0.0336483
-0.00976235
0.00851419
0.022509
0.0331867
0.0412142
0.047382
0.052853
0.0563871
-0.361854
-0.322736
-0.254183
-0.18713
-0.131524
-0.0887659
-0.0557168
-0.0301765
-0.0103936
0.00496937
0.016895
0.0260505
0.0331788
0.039468
0.0439886
-0.386708
-0.347782
-0.280487
-0.212757
-0.155752
-0.111425
-0.0768305
-0.0498336
-0.028701
-0.0120995
0.000966561
0.0111651
0.019185
0.0262204
0.0316601
-0.408085
-0.369574
-0.304166
-0.236355
-0.178516
-0.132708
-0.0969129
-0.0686663
-0.046349
-0.0286458
-0.0145512
-0.00339775
0.00544201
0.0131544
0.0194532
-0.425965
-0.388048
-0.325106
-0.257811
-0.199559
-0.15282
-0.115845
-0.0866172
-0.0632859
-0.0446231
-0.0296163
-0.0175973
-0.00801097
0.00030616
0.00741221
-0.440377
-0.403185
-0.343236
-0.277058
-0.21881
-0.171541
-0.133762
-0.103634
-0.0794697
-0.0599907
-0.0441926
-0.0313976
-0.0211361
-0.0122986
-0.00443185
-0.451396
-0.415019
-0.358529
-0.294065
-0.236264
-0.188795
-0.150532
-0.119753
-0.094896
-0.0747103
-0.0582495
-0.0447706
-0.033897
-0.0246371
-0.0160637
-0.459142
-0.423639
-0.370995
-0.308816
-0.251922
-0.204583
-0.166099
-0.134908
-0.109538
-0.0887986
-0.0717595
-0.0577012
-0.0462645
-0.0366673
-0.0275049
-0.463778
-0.429187
-0.380681
-0.321314
-0.265781
-0.218915
-0.180461
-0.149067
-0.12336
-0.102211
-0.0847218
-0.070199
-0.0582412
-0.0482934
-0.0388424
-0.465509
-0.431862
-0.387675
-0.331585
-0.277853
-0.231803
-0.19363
-0.162231
-0.136351
-0.114928
-0.0971096
-0.0822176
-0.069827
-0.0595192
-0.0501597
-0.464576
-0.43191
-0.392106
-0.339677
-0.288163
-0.243265
-0.205626
-0.174414
-0.148518
-0.126951
-0.108909
-0.0937403
-0.0810119
-0.0703883
-0.0609402
-0.461255
-0.429625
-0.394132
-0.345665
-0.296756
-0.253333
-0.21647
-0.185635
-0.159874
-0.138286
-0.120123
-0.104765
-0.0917796
-0.0808683
-0.0711549
-0.455847
-0.425345
-0.393941
-0.349648
-0.303692
-0.262048
-0.226197
-0.195918
-0.170437
-0.148948
-0.13076
-0.115293
-0.10212
-0.0909641
-0.0809646
-0.448674
-0.419423
-0.391757
-0.351754
-0.30905
-0.269466
-0.234847
-0.205295
-0.180231
-0.158952
-0.140833
-0.125334
-0.11204
-0.100707
-0.090495
-0.44007
-0.412212
-0.387846
-0.352141
-0.312919
-0.275647
-0.242469
-0.213806
-0.189286
-0.168323
-0.15036
-0.134904
-0.121555
-0.110119
-0.0998006
-0.430369
-0.404046
-0.382506
-0.350991
-0.315404
-0.280662
-0.249118
-0.221494
-0.197637
-0.177087
-0.159362
-0.144022
-0.130683
-0.119205
-0.108876
-0.419901
-0.395233
-0.376062
-0.34851
-0.316623
-0.284586
-0.25485
-0.228408
-0.205324
-0.185277
-0.167866
-0.152708
-0.139439
-0.12796
-0.117691
-0.408973
-0.386045
-0.368847
-0.344919
-0.316701
-0.2875
-0.259728
-0.234598
-0.212391
-0.192928
-0.175899
-0.160983
-0.147838
-0.136391
-0.126226
-0.397864
-0.376716
-0.361183
-0.340453
-0.315778
-0.289486
-0.26381
-0.240116
-0.21888
-0.200078
-0.183491
-0.16887
-0.1559
-0.144509
-0.134482
-0.386815
-0.367448
-0.353358
-0.335355
-0.314005
-0.290634
-0.267158
-0.245009
-0.224836
-0.206764
-0.190677
-0.176395
-0.163645
-0.152335
-0.142469
-0.376024
-0.358406
-0.345607
-0.32987
-0.311541
-0.291036
-0.26983
-0.249325
-0.230301
-0.213027
-0.19749
-0.183585
-0.171097
-0.159891
-0.150205
-0.365645
-0.34973
-0.338103
-0.324229
-0.308554
-0.290788
-0.271883
-0.253107
-0.235314
-0.218902
-0.203964
-0.190471
-0.178281
-0.167201
-0.157703
-0.355792
-0.341524
-0.330965
-0.318643
-0.305219
-0.289992
-0.273373
-0.256392
-0.239909
-0.224424
-0.210134
-0.197084
-0.185223
-0.174289
-0.164983
-0.346542
-0.333861
-0.324272
-0.313274
-0.301707
-0.28876
-0.274358
-0.259213
-0.244113
-0.229621
-0.216031
-0.203453
-0.191949
-0.181178
-0.17206
-0.337945
-0.326782
-0.31807
-0.308231
-0.298177
-0.287209
-0.274899
-0.261598
-0.247946
-0.234516
-0.221682
-0.209608
-0.198485
-0.187895
-0.178956
-0.330024
-0.3203
-0.312389
-0.303576
-0.294766
-0.285461
-0.275064
-0.263575
-0.251421
-0.239121
-0.227107
-0.215575
-0.204859
-0.194465
-0.185694
-0.322784
-0.314406
-0.307235
-0.299333
-0.29157
-0.283637
-0.274929
-0.265172
-0.254543
-0.243439
-0.232316
-0.221375
-0.211095
-0.200919
-0.192293
-0.316213
-0.309076
-0.302603
-0.29551
-0.288646
-0.28184
-0.27458
-0.266426
-0.257313
-0.247462
-0.237306
-0.227018
-0.217215
-0.207277
-0.198792
-0.31029
-0.304278
-0.298467
-0.292102
-0.28602
-0.280152
-0.274102
-0.267382
-0.259733
-0.25117
-0.242062
-0.232503
-0.223233
-0.213578
-0.205204
-0.30498
-0.299973
-0.294793
-0.289094
-0.283699
-0.278623
-0.273575
-0.268096
-0.261813
-0.254542
-0.246549
-0.237809
-0.229152
-0.219828
-0.211637
-0.300242
-0.296121
-0.291542
-0.286464
-0.28168
-0.277279
-0.273062
-0.268628
-0.263573
-0.257554
-0.250724
-0.24289
-0.234965
-0.226057
-0.218096
-0.296027
-0.292676
-0.288666
-0.284177
-0.27995
-0.276134
-0.272605
-0.269037
-0.265042
-0.260196
-0.254526
-0.247695
-0.240592
-0.232265
-0.224861
-0.292281
-0.289593
-0.286119
-0.282192
-0.278485
-0.275186
-0.272232
-0.269372
-0.266262
-0.26247
-0.257905
-0.252128
-0.246002
-0.238326
-0.231813
-0.288941
-0.286829
-0.283855
-0.280465
-0.277252
-0.274422
-0.271957
-0.269672
-0.267278
-0.264396
-0.260813
-0.256156
-0.250863
-0.244659
-0.238153
-0.28594
-0.284345
-0.281827
-0.278948
-0.276209
-0.273815
-0.271777
-0.269962
-0.268134
-0.266008
-0.263224
-0.259767
-0.255016
-0.250793
-0.243608
-0.283237
-0.282081
-0.279989
-0.277596
-0.275311
-0.273329
-0.271674
-0.270253
-0.268869
-0.267353
-0.265154
-0.262936
-0.25831
-0.256096
-0.248225
-0.280776
-0.279997
-0.278298
-0.276364
-0.27451
-0.272921
-0.271619
-0.270536
-0.269505
-0.268475
-0.266662
-0.265651
-0.260698
-0.260682
-0.25189
-0.278499
-0.278061
-0.276717
-0.275211
-0.273764
-0.272545
-0.271572
-0.270789
-0.27005
-0.269402
-0.267837
-0.267907
-0.262314
-0.264781
-0.25447
-0.27636
-0.276229
-0.275227
-0.274104
-0.273036
-0.272161
-0.271494
-0.270982
-0.270497
-0.270143
-0.268778
-0.269663
-0.263471
-0.268303
-0.255968
-0.274326
-0.274486
-0.273792
-0.273019
-0.272295
-0.271737
-0.27135
-0.271083
-0.270827
-0.27069
-0.269555
-0.27087
-0.264526
-0.270896
-0.256761
-0.272372
-0.272817
-0.272396
-0.271937
-0.271521
-0.271248
-0.271113
-0.271065
-0.271017
-0.271038
-0.270178
-0.271546
-0.265659
-0.272321
-0.257478
-0.270481
-0.27121
-0.27103
-0.270849
-0.270705
-0.270682
-0.270769
-0.270915
-0.271047
-0.27119
-0.270617
-0.27179
-0.266804
-0.272696
-0.258531
-0.26865
-0.26966
-0.269694
-0.269755
-0.269846
-0.270038
-0.270315
-0.270627
-0.270908
-0.271155
-0.270831
-0.27173
-0.267775
-0.27238
-0.259881
-0.266882
-0.268171
-0.268391
-0.268662
-0.268952
-0.269325
-0.269761
-0.270209
-0.27061
-0.270946
-0.270796
-0.271485
-0.268413
-0.271735
-0.261233
-0.265188
-0.266753
-0.267134
-0.267583
-0.268039
-0.26856
-0.269124
-0.269682
-0.270181
-0.270568
-0.270534
-0.271123
-0.268654
-0.271023
-0.262345
-0.263588
-0.265419
-0.265939
-0.266537
-0.267128
-0.267767
-0.268433
-0.269076
-0.269646
-0.270076
-0.270207
-0.270488
-0.26866
-0.270346
-0.263146
-0.262104
-0.264187
-0.264825
-0.265545
-0.266245
-0.266977
-0.267721
-0.268428
-0.269046
-0.269509
-0.269726
-0.269816
-0.268686
-0.26926
-0.263988
-0.260764
-0.263078
-0.263813
-0.264634
-0.265418
-0.266221
-0.267023
-0.267775
-0.268426
-0.268914
-0.269169
-0.269184
-0.268471
-0.26833
-0.264837
-0.259593
-0.262112
-0.262927
-0.263826
-0.264675
-0.265532
-0.266375
-0.267159
-0.267831
-0.268334
-0.268608
-0.268605
-0.268112
-0.26764
-0.265337
-0.25862
-0.261311
-0.262187
-0.263147
-0.264044
-0.264939
-0.265811
-0.266616
-0.267302
-0.267814
-0.268098
-0.268101
-0.267726
-0.267143
-0.26558
-0.257867
-0.260692
-0.261614
-0.262618
-0.263549
-0.264469
-0.265361
-0.266178
-0.266872
-0.267389
-0.267679
-0.267694
-0.267386
-0.266796
-0.265675
-0.257353
-0.26027
-0.261222
-0.262255
-0.263207
-0.264143
-0.265047
-0.265872
-0.266569
-0.267089
-0.267383
-0.267408
-0.267138
-0.266575
-0.265697
-0.257093
-0.260056
-0.261024
-0.26207
-0.263033
-0.263977
-0.264885
-0.265714
-0.266413
-0.266934
-0.267229
-0.267261
-0.267008
-0.266467
-0.265695
-0.265222
-0.26398
-0.262763
-0.261237
-0.259549
-0.257661
-0.255595
-0.253351
-0.250934
-0.248346
-0.24559
-0.242669
-0.239596
-0.236372
-0.232997
-0.229472
-0.225801
-0.221986
-0.21803
-0.213937
-0.209712
-0.205359
-0.200883
-0.196291
-0.19159
-0.186786
-0.18189
-0.176909
-0.171853
-0.166734
-0.161563
-0.156351
-0.151111
-0.145854
-0.140594
-0.135342
-0.130112
-0.124917
-0.119767
-0.114675
-0.109651
-0.104707
-0.0998498
-0.0950898
-0.090434
-0.0858893
-0.0814608
-0.0771537
-0.0729711
-0.068916
-0.0649899
-0.0611937
-0.0575276
-0.0539906
-0.0505817
-0.0472987
-0.0441395
-0.0411011
-0.0381805
-0.0353745
-0.0326796
-0.0300923
-0.0276091
-0.0252267
-0.0229419
-0.0207515
-0.018653
-0.0166434
-0.0147218
-0.0128843
-0.0111342
-0.0094619
-0.00788528
-0.00636979
-0.00498848
-0.00360086
-0.00250393
-0.00111269
-0.000656861
0.00129505
-0.265392
-0.264086
-0.262875
-0.261342
-0.259651
-0.257762
-0.255695
-0.253451
-0.251034
-0.248446
-0.245689
-0.242764
-0.239697
-0.236476
-0.233102
-0.229579
-0.225909
-0.222094
-0.218139
-0.214047
-0.209823
-0.20547
-0.200994
-0.196403
-0.191701
-0.186898
-0.182001
-0.17702
-0.171963
-0.166844
-0.161672
-0.156459
-0.151217
-0.145959
-0.140697
-0.135443
-0.130212
-0.125014
-0.119862
-0.114768
-0.109742
-0.104795
-0.099936
-0.0951736
-0.0905155
-0.0859686
-0.0815375
-0.0772283
-0.0730436
-0.0689863
-0.0650582
-0.0612601
-0.0575921
-0.0540534
-0.0506428
-0.0473583
-0.0441976
-0.0411578
-0.038236
-0.0354288
-0.0327328
-0.0301445
-0.0276604
-0.0252772
-0.0229916
-0.0208004
-0.0187012
-0.0166909
-0.0147686
-0.0129303
-0.0111796
-0.00950636
-0.00792923
-0.00641228
-0.00503052
-0.00364052
-0.00254224
-0.00114854
-0.000681413
0.00125426
-0.265723
-0.264284
-0.263086
-0.261542
-0.259846
-0.257954
-0.255886
-0.253642
-0.251226
-0.248638
-0.245881
-0.242971
-0.2399
-0.236679
-0.233307
-0.229786
-0.226118
-0.222306
-0.218353
-0.214262
-0.210039
-0.205688
-0.201214
-0.196623
-0.191922
-0.187118
-0.182221
-0.177239
-0.172181
-0.16706
-0.161886
-0.15667
-0.151426
-0.146164
-0.140899
-0.135642
-0.130406
-0.125204
-0.120048
-0.11495
-0.109919
-0.104967
-0.100104
-0.0953365
-0.0906735
-0.0861221
-0.0816869
-0.0773733
-0.0731844
-0.0691232
-0.0651914
-0.0613897
-0.0577183
-0.0541765
-0.050763
-0.0474758
-0.0443125
-0.0412705
-0.0383465
-0.0355373
-0.0328394
-0.0302493
-0.0277636
-0.0253788
-0.0230917
-0.020899
-0.0187984
-0.0167866
-0.014863
-0.0130231
-0.011271
-0.00959567
-0.00801728
-0.00649723
-0.00511424
-0.00371931
-0.00261784
-0.00121917
-0.000729469
0.00117557
-0.266196
-0.264548
-0.263374
-0.261818
-0.260116
-0.258222
-0.256153
-0.253911
-0.251497
-0.248913
-0.24616
-0.243251
-0.240184
-0.236968
-0.2336
-0.230082
-0.226418
-0.222609
-0.218659
-0.214572
-0.210352
-0.206003
-0.20153
-0.19694
-0.19224
-0.187437
-0.182539
-0.177557
-0.172497
-0.167374
-0.162196
-0.156978
-0.151729
-0.146463
-0.141193
-0.13593
-0.13069
-0.125481
-0.120319
-0.115216
-0.110174
-0.105218
-0.100348
-0.0955741
-0.0909049
-0.0863469
-0.0819055
-0.0775858
-0.0733912
-0.0693245
-0.0653874
-0.0615808
-0.0579048
-0.0543587
-0.050941
-0.04765
-0.0444832
-0.0414378
-0.0385108
-0.0356987
-0.0329981
-0.0304055
-0.0279173
-0.0255301
-0.0232408
-0.0210458
-0.0189431
-0.0169289
-0.0150031
-0.0131606
-0.0114063
-0.00972763
-0.00814705
-0.00662217
-0.00523682
-0.00383447
-0.00272739
-0.00132153
-0.000798383
0.00106461
-0.266801
-0.264841
-0.26371
-0.262143
-0.260437
-0.258542
-0.256476
-0.254237
-0.251827
-0.24924
-0.246476
-0.243591
-0.240536
-0.237326
-0.233964
-0.230452
-0.226793
-0.222989
-0.219044
-0.214961
-0.210745
-0.206399
-0.201929
-0.197341
-0.192643
-0.18784
-0.182942
-0.177959
-0.172897
-0.167772
-0.162591
-0.157369
-0.152116
-0.146845
-0.141572
-0.136295
-0.13105
-0.125836
-0.120666
-0.115553
-0.110508
-0.105542
-0.100663
-0.0958813
-0.0912042
-0.0866383
-0.0821895
-0.0778624
-0.0736608
-0.0695873
-0.0656438
-0.0618312
-0.0581494
-0.0545978
-0.0511751
-0.0478793
-0.044708
-0.0416584
-0.0387273
-0.0359115
-0.0332073
-0.0306113
-0.0281198
-0.0257294
-0.0234369
-0.0212388
-0.0191329
-0.0171154
-0.0151865
-0.0133401
-0.0115826
-0.00989921
-0.00831523
-0.00678368
-0.00539441
-0.00398223
-0.00286636
-0.00145158
-0.000884564
0.000928764
-0.267568
-0.265112
-0.264059
-0.262487
-0.260779
-0.258889
-0.256827
-0.254596
-0.252194
-0.249621
-0.246898
-0.24399
-0.240937
-0.237733
-0.234379
-0.230874
-0.227223
-0.223427
-0.219488
-0.215411
-0.2112
-0.206859
-0.202393
-0.197808
-0.193112
-0.188311
-0.183415
-0.178437
-0.173358
-0.168237
-0.163054
-0.157828
-0.15257
-0.147294
-0.142012
-0.136736
-0.131481
-0.126258
-0.12108
-0.115959
-0.110904
-0.105929
-0.101042
-0.0962517
-0.0915658
-0.0869914
-0.0825342
-0.0781989
-0.0739894
-0.0699084
-0.0659576
-0.062138
-0.0584496
-0.0548918
-0.0514631
-0.0481616
-0.044985
-0.0419303
-0.0389943
-0.0361738
-0.0334651
-0.0308647
-0.028369
-0.0259743
-0.0236776
-0.0214753
-0.0193652
-0.0173433
-0.01541
-0.0135585
-0.0117964
-0.0101067
-0.00851783
-0.00697768
-0.00558238
-0.00415812
-0.00302951
-0.00160465
-0.000983937
0.000776163
-0.268474
-0.265261
-0.264392
-0.262813
-0.26111
-0.259229
-0.257179
-0.25496
-0.252567
-0.24999
-0.247282
-0.244397
-0.24136
-0.238168
-0.234825
-0.231332
-0.227692
-0.223893
-0.219967
-0.215899
-0.211695
-0.20736
-0.2029
-0.19832
-0.193627
-0.188829
-0.183933
-0.17895
-0.173886
-0.168758
-0.163572
-0.158342
-0.15308
-0.147799
-0.142511
-0.137228
-0.131966
-0.126736
-0.12155
-0.11642
-0.111358
-0.106374
-0.101478
-0.0966786
-0.0919839
-0.0874007
-0.0829348
-0.0785912
-0.0743734
-0.0702844
-0.0663258
-0.0624987
-0.0588031
-0.0552383
-0.051803
-0.0484951
-0.0453122
-0.0422515
-0.0393098
-0.0364836
-0.0337694
-0.0311635
-0.0286625
-0.0262624
-0.0239604
-0.0217526
-0.019637
-0.0176092
-0.0156702
-0.0138122
-0.0120439
-0.0103462
-0.00875049
-0.0071997
-0.00579577
-0.00435738
-0.00321133
-0.00177587
-0.00109245
0.00061469
-0.268945
-0.265651
-0.264586
-0.26309
-0.261397
-0.259532
-0.257499
-0.255298
-0.252924
-0.250383
-0.247676
-0.244804
-0.24178
-0.238602