/*--------------------------------*- C++ -*----------------------------------*\
  =========                 |
  \\      /  F ield         | OpenFOAM: The Open Source CFD Toolbox
   \\    /   O peration     | Website:  https://openfoam.org
    \\  /    A nd           | Version:  7
     \\/     M anipulation  |
\*---------------------------------------------------------------------------*/
FoamFile
{
    version     2.0;
    format      ascii;
    class       volScalarField;
    location    "80";
    object      p;
}
// * * * * * * * * * * * * * * * * * * * * * * * * * * * * * * * * * * * * * //

dimensions      [0 2 -2 0 0 0 0];

internalField   nonuniform List<scalar> 
3500
(
-0.23315
-0.234808
-0.236519
-0.238113
-0.239324
-0.23988
-0.240226
-0.23825
-0.229116
-0.232509
-0.233879
-0.235478
-0.237141
-0.238718
-0.239976
-0.240224
-0.241179
-0.238165
-0.231086
-0.234077
-0.235274
-0.236744
-0.2383
-0.239805
-0.241335
-0.240571
-0.243381
-0.237794
-0.233812
-0.236236
-0.237142
-0.23838
-0.239746
-0.240954
-0.243309
-0.240186
-0.246846
-0.236298
-0.23707
-0.23879
-0.239253
-0.240104
-0.241208
-0.241719
-0.245572
-0.238729
-0.249817
-0.234823
-0.240661
-0.241567
-0.241402
-0.241653
-0.242383
-0.242101
-0.246423
-0.237316
-0.251666
-0.233476
-0.244475
-0.244467
-0.24347
-0.242908
-0.2429
-0.242167
-0.246137
-0.235743
-0.249717
-0.234039
-0.248531
-0.247484
-0.245461
-0.243882
-0.242935
-0.241762
-0.244033
-0.235469
-0.243125
-0.233473
-0.253027
-0.250703
-0.247539
-0.244759
-0.242699
-0.240934
-0.24036
-0.234821
-0.234148
-0.227729
-0.258284
-0.2544
-0.249956
-0.245825
-0.242501
-0.239533
-0.236078
-0.230883
-0.223818
-0.216926
-0.264663
-0.258948
-0.253053
-0.24738
-0.242451
-0.237483
-0.231205
-0.223762
-0.212522
-0.202643
-0.272606
-0.264727
-0.257107
-0.249566
-0.242459
-0.234682
-0.22523
-0.21449
-0.201466
-0.189484
-0.282581
-0.272063
-0.26226
-0.252466
-0.24234
-0.230929
-0.218044
-0.2045
-0.189842
-0.176764
-0.294995
-0.281097
-0.268693
-0.256012
-0.241742
-0.226069
-0.209867
-0.193754
-0.177989
-0.164557
-0.310113
-0.291571
-0.276653
-0.259768
-0.24017
-0.219986
-0.200593
-0.182451
-0.16591
-0.151853
-0.327909
-0.303144
-0.28566
-0.262817
-0.237104
-0.212458
-0.190245
-0.170437
-0.153216
-0.138644
-0.347209
-0.315865
-0.294002
-0.263905
-0.232019
-0.203298
-0.178627
-0.157501
-0.139769
-0.124583
-0.365984
-0.329553
-0.299793
-0.261893
-0.224428
-0.192207
-0.165527
-0.143413
-0.125269
-0.109687
-0.382062
-0.342546
-0.301924
-0.256085
-0.213869
-0.178871
-0.150661
-0.127891
-0.109594
-0.0939627
-0.393772
-0.351953
-0.29951
-0.246082
-0.199962
-0.162946
-0.133741
-0.110698
-0.0925493
-0.0773751
-0.399991
-0.355124
-0.291375
-0.231489
-0.18239
-0.144132
-0.114523
-0.0916416
-0.0739724
-0.0595306
-0.39974
-0.350138
-0.276643
-0.211879
-0.160888
-0.122196
-0.0928472
-0.0706765
-0.0537707
-0.03987
-0.39185
-0.335932
-0.254797
-0.186892
-0.135244
-0.097035
-0.0686831
-0.0478502
-0.0319724
-0.0184059
-0.37493
-0.311991
-0.225515
-0.156317
-0.105426
-0.0687699
-0.0421664
-0.0231958
-0.00837661
0.00378286
-0.347627
-0.278187
-0.188565
-0.120281
-0.0717025
-0.0377119
-0.0135414
0.00344814
0.0167764
0.0266973
-0.309005
-0.234646
-0.144034
-0.0793234
-0.0344554
-0.00386388
0.0171474
0.0317552
0.0429818
0.0501346
-0.258836
-0.181408
-0.0929309
-0.0336959
0.00615558
0.0323752
0.0495991
0.0612032
0.0695612
0.0733615
-0.197555
-0.11836
-0.0366433
0.0159249
0.0495861
0.0705626
0.0834012
0.0912057
0.0956475
0.0953808
-0.125707
-0.0476595
0.024099
0.0685459
0.0951243
0.110184
0.118099
0.121301
0.120743
0.115935
-0.0437611
0.0270327
0.0881697
0.123159
0.141936
0.150584
0.153125
0.151212
0.145428
0.136787
0.0447847
0.104455
0.154007
0.178658
0.189096
0.190956
0.187743
0.180536
0.170234
0.16258
0.136804
0.182985
0.219942
0.233798
0.235608
0.230452
0.221258
0.208915
0.195275
0.187212
0.228941
0.260516
0.284276
0.287258
0.28042
0.26826
0.253247
0.236292
0.219744
0.209258
0.317849
0.334817
0.34532
0.3377
0.322456
0.303509
0.283004
0.261926
0.242602
0.229049
0.400297
0.403675
0.401432
0.383828
0.360721
0.335478
0.30998
0.285172
0.263031
0.246272
0.473454
0.464938
0.451028
0.4244
0.394235
0.363399
0.333549
0.305492
0.280695
0.260852
0.535178
0.51643
0.49262
0.458308
0.422157
0.386607
0.353124
0.322339
0.295204
0.272614
0.583444
0.556479
0.524942
0.484603
0.443766
0.404545
0.368253
0.335341
0.306311
0.281453
0.616588
0.583862
0.54703
0.50255
0.458492
0.416757
0.37855
0.344183
0.313822
0.287333
0.511646
0.465949
0.422938
0.38376
0.348653
0.317606
0.290259
-0.237428
-0.236647
-0.235766
-0.234799
-0.233752
-0.232632
-0.231444
-0.230195
-0.228889
-0.227529
-0.226117
-0.224653
-0.223138
-0.221573
-0.219955
-0.218286
-0.216564
-0.214787
-0.212955
-0.211065
-0.209114
-0.207131
-0.205099
-0.203011
-0.200865
-0.198661
-0.196402
-0.194091
-0.191724
-0.237744
-0.236941
-0.236037
-0.235065
-0.234023
-0.232917
-0.231754
-0.230539
-0.229275
-0.227963
-0.226604
-0.225198
-0.223743
-0.22224
-0.220684
-0.219075
-0.21741
-0.215687
-0.213902
-0.212055
-0.210182
-0.208232
-0.206221
-0.204148
-0.202012
-0.19981
-0.197544
-0.195211
-0.192811
-0.238468
-0.23752
-0.236556
-0.235574
-0.234534
-0.233438
-0.232295
-0.231107
-0.229879
-0.228611
-0.227301
-0.22595
-0.224555
-0.223113
-0.221621
-0.220074
-0.218466
-0.216794
-0.21506
-0.213293
-0.211451
-0.20954
-0.207559
-0.205507
-0.203384
-0.201186
-0.198914
-0.196566
-0.194141
-0.240471
-0.238074
-0.237207
-0.236136
-0.235075
-0.233993
-0.232874
-0.231721
-0.230533
-0.22931
-0.22805
-0.22675
-0.225408
-0.224018
-0.222577
-0.221072
-0.219471
-0.217881
-0.216216
-0.214508
-0.212675
-0.210826
-0.208875
-0.206853
-0.204751
-0.202568
-0.200301
-0.197949
-0.195512
-0.192988
-0.239163
-0.238861
-0.237651
-0.23651
-0.235458
-0.234393
-0.2333
-0.232183
-0.231039
-0.229865
-0.22866
-0.227419
-0.226141
-0.22482
-0.22345
-0.222024
-0.220537
-0.218967
-0.217333
-0.215639
-0.213877
-0.21204
-0.210122
-0.208122
-0.206038
-0.203866
-0.201605
-0.199253
-0.196809
-0.194273
-0.236269
-0.237199
-0.23693
-0.236205
-0.235306
-0.234334
-0.233332
-0.232293
-0.231206
-0.230074
-0.228908
-0.227709
-0.226469
-0.225181
-0.223838
-0.222428
-0.220942
-0.219444
-0.217889
-0.216257
-0.214545
-0.212756
-0.210887
-0.208932
-0.206887
-0.20475
-0.202518
-0.200189
-0.197762
-0.195237
-0.232799
-0.233605
-0.234379
-0.234395
-0.233806
-0.233057
-0.232321
-0.231521
-0.230596
-0.229581
-0.22852
-0.227424
-0.226283
-0.225092
-0.223847
-0.222538
-0.221145
-0.219613
-0.218064
-0.216494
-0.214845
-0.2131
-0.211262
-0.209334
-0.207314
-0.205201
-0.202992
-0.200687
-0.198284
-0.195782
-0.19318
-0.229757
-0.229501
-0.230818
-0.231152
-0.230574
-0.230019
-0.229661
-0.229189
-0.228481
-0.227627
-0.226709
-0.225734
-0.224691
-0.223581
-0.222406
-0.221162
-0.21984
-0.218421
-0.216893
-0.215314
-0.213768
-0.212176
-0.210481
-0.208672
-0.206749
-0.204718
-0.202583
-0.200349
-0.198017
-0.195584
-0.193049
-0.190413
-0.224298
-0.2244
-0.226255
-0.226267
-0.22544
-0.225176
-0.225291
-0.225214
-0.224851
-0.224338
-0.223739
-0.223041
-0.222236
-0.221337
-0.220352
-0.219282
-0.218124
-0.216867
-0.215496
-0.213956
-0.212224
-0.210488
-0.208883
-0.207213
-0.205418
-0.203492
-0.201446
-0.199297
-0.19705
-0.194699
-0.192241
-0.189681
-0.21649
-0.218595
-0.220147
-0.219181
-0.218141
-0.218077
-0.218345
-0.218423
-0.218313
-0.218106
-0.217809
-0.217403
-0.216892
-0.216282
-0.215573
-0.214763
-0.213852
-0.212839
-0.21173
-0.210526
-0.209212
-0.207709
-0.205958
-0.204263
-0.202628
-0.20089
-0.199028
-0.197075
-0.195031
-0.192879
-0.190614
-0.188239
-0.185763
-0.204117
-0.21105
-0.212042
-0.210684
-0.209654
-0.209506
-0.209815
-0.210163
-0.210389
-0.210473
-0.210432
-0.210285
-0.21004
-0.209695
-0.209245
-0.208688
-0.208026
-0.207259
-0.206386
-0.205404
-0.20431
-0.203101
-0.201764
-0.200255
-0.198572
-0.19678
-0.194936
-0.193056
-0.191108
-0.189062
-0.18691
-0.184656
-0.182305
-0.185618
-0.194822
-0.197849
-0.19734
-0.196404
-0.196264
-0.196819
-0.197585
-0.198225
-0.198644
-0.198873
-0.198968
-0.198955
-0.198837
-0.198604
-0.198252
-0.197776
-0.197174
-0.196446
-0.195589
-0.194599
-0.193477
-0.192229
-0.190884
-0.189498
-0.188114
-0.186691
-0.18515
-0.183452
-0.181617
-0.179671
-0.177629
-0.175492
-0.168978
-0.178893
-0.183045
-0.1835
-0.183138
-0.183358
-0.184241
-0.185357
-0.186346
-0.187081
-0.187591
-0.187943
-0.188178
-0.188302
-0.18831
-0.188193
-0.18795
-0.187583
-0.187094
-0.186491
-0.185779
-0.184967
-0.184065
-0.183078
-0.181996
-0.180796
-0.179446
-0.177944
-0.176336
-0.174651
-0.17289
-0.171043
-0.169107
-0.154807
-0.164233
-0.168873
-0.17017
-0.170511
-0.171192
-0.172386
-0.173767
-0.175022
-0.176023
-0.176789
-0.177381
-0.177842
-0.178185
-0.178408
-0.178503
-0.17847
-0.178311
-0.178031
-0.177634
-0.177125
-0.176502
-0.175764
-0.174907
-0.173928
-0.172835
-0.171642
-0.170369
-0.169023
-0.167581
-0.166036
-0.164395
-0.162663
-0.141923
-0.150812
-0.155698
-0.157634
-0.158592
-0.15971
-0.161191
-0.162797
-0.164272
-0.165504
-0.166503
-0.167319
-0.167992
-0.168537
-0.168956
-0.169244
-0.1694
-0.169428
-0.16933
-0.169112
-0.168775
-0.168319
-0.167747
-0.167062
-0.16627
-0.16538
-0.164402
-0.163333
-0.162165
-0.160895
-0.159528
-0.15807
-0.156526
-0.130378
-0.138766
-0.143724
-0.146089
-0.147521
-0.149003
-0.150735
-0.152537
-0.154201
-0.155632
-0.156834
-0.15785
-0.158714
-0.159443
-0.160039
-0.160502
-0.16083
-0.161027
-0.161098
-0.161046
-0.160874
-0.160585
-0.160184
-0.159675
-0.159063
-0.158351
-0.157541
-0.156631
-0.155621
-0.154516
-0.15332
-0.152037
-0.15067
-0.120269
-0.128055
-0.132944
-0.135585
-0.137367
-0.139133
-0.141069
-0.143031
-0.144849
-0.146442
-0.147814
-0.149
-0.150031
-0.150921
-0.151674
-0.152292
-0.152775
-0.153127
-0.153351
-0.153453
-0.153436
-0.153304
-0.153061
-0.15271
-0.152254
-0.151694
-0.151034
-0.150275
-0.149421
-0.148475
-0.147442
-0.146323
-0.145121
-0.111329
-0.118509
-0.123262
-0.126076
-0.12811
-0.130088
-0.132178
-0.134262
-0.136199
-0.137921
-0.139431
-0.140758
-0.141929
-0.142958
-0.14385
-0.144605
-0.145226
-0.145716
-0.14608
-0.146321
-0.146445
-0.146455
-0.146353
-0.146143
-0.145828
-0.14541
-0.144893
-0.144279
-0.143573
-0.142777
-0.141894
-0.140927
-0.139878
-0.103371
-0.110007
-0.114592
-0.1175
-0.119707
-0.121835
-0.124033
-0.126205
-0.12823
-0.13005
-0.131668
-0.13311
-0.134398
-0.135545
-0.136555
-0.137429
-0.138171
-0.138784
-0.139272
-0.139639
-0.139889
-0.140025
-0.140052
-0.139971
-0.139786
-0.1395
-0.139116
-0.138638
-0.138068
-0.137409
-0.136664
-0.135836
-0.134928
-0.0963161
-0.102446
-0.106839
-0.109784
-0.112103
-0.114332
-0.1166
-0.118828
-0.120913
-0.122805
-0.124507
-0.126039
-0.127422
-0.128666
-0.129776
-0.130752
-0.131598
-0.132318
-0.132914
-0.133392
-0.133755
-0.134006
-0.134148
-0.134185
-0.134119
-0.133954
-0.133692
-0.133338
-0.132892
-0.132359
-0.131741
-0.131041
-0.130262
-0.0900612
-0.0957155
-0.0999038
-0.102846
-0.105235
-0.107526
-0.109834
-0.112093
-0.114215
-0.116156
-0.117919
-0.119521
-0.120979
-0.122302
-0.123494
-0.124556
-0.125491
-0.126303
-0.126994
-0.12757
-0.128032
-0.128385
-0.128631
-0.128774
-0.128816
-0.12876
-0.12861
-0.128367
-0.128035
-0.127617
-0.127116
-0.126533
-0.125873
-0.0844932
-0.0897131
-0.0936981
-0.0966125
-0.0990378
-0.101363
-0.103688
-0.105959
-0.108098
-0.110071
-0.111876
-0.11353
-0.115045
-0.116431
-0.117689
-0.118823
-0.119833
-0.120723
-0.121497
-0.122157
-0.122707
-0.12315
-0.123489
-0.123726
-0.123865
-0.123908
-0.123858
-0.123717
-0.123489
-0.123176
-0.122781
-0.122306
-0.121754
-0.0795298
-0.0843587
-0.0881469
-0.0910161
-0.093454
-0.0957919
-0.0981171
-0.100383
-0.102527
-0.104515
-0.106348
-0.108038
-0.109596
-0.11103
-0.112342
-0.113533
-0.114606
-0.115562
-0.116406
-0.11714
-0.117766
-0.118289
-0.118709
-0.119031
-0.119256
-0.119388
-0.119428
-0.11938
-0.119245
-0.119027
-0.118729
-0.118352
-0.117899
-0.0751065
-0.0795819
-0.0831819
-0.0859947
-0.088428
-0.090763
-0.0930754
-0.0953267
-0.0974624
-0.0994547
-0.101303
-0.103016
-0.104606
-0.106076
-0.107429
-0.108667
-0.109791
-0.110803
-0.111706
-0.112503
-0.113196
-0.113787
-0.11428
-0.114676
-0.114978
-0.115189
-0.11531
-0.115344
-0.115295
-0.115163
-0.114952
-0.114663
-0.1143
-0.0711633
-0.0753193
-0.0787416
-0.0814917
-0.0839086
-0.0862299
-0.0885206
-0.0907491
-0.092869
-0.0948564
-0.0967098
-0.0984377
-0.100048
-0.101544
-0.10293
-0.104204
-0.105369
-0.106427
-0.10738
-0.108231
-0.108981
-0.109632
-0.110188
-0.11065
-0.11102
-0.1113
-0.111494
-0.111603
-0.111629
-0.111574
-0.111442
-0.111234
-0.110952
-0.067647
-0.0715161
-0.074773
-0.0774578
-0.0798505
-0.0821506
-0.0844138
-0.0866142
-0.0887126
-0.0906885
-0.0925403
-0.0942744
-0.0958972
-0.0974122
-0.0988209
-0.100124
-0.101323
-0.102418
-0.103413
-0.104308
-0.105107
-0.10581
-0.106421
-0.10694
-0.10737
-0.107713
-0.10797
-0.108145
-0.108239
-0.108254
-0.108193
-0.108057
-0.107849
-0.0645135
-0.0681262
-0.0712304
-0.0738496
-0.0762132
-0.0784873
-0.0807195
-0.0828886
-0.0849619
-0.0869218
-0.0887664
-0.0905007
-0.09213
-0.0936569
-0.0950824
-0.0964071
-0.0976318
-0.0987579
-0.0997869
-0.100721
-0.10156
-0.102308
-0.102966
-0.103535
-0.104017
-0.104415
-0.10473
-0.104963
-0.105117
-0.105194
-0.105196
-0.105125
-0.104983
-0.0617257
-0.0651096
-0.0680739
-0.0706291
-0.0729608
-0.0752062
-0.0774056
-0.0795419
-0.0815879
-0.0835288
-0.0853624
-0.0870926
-0.0887235
-0.090257
-0.091694
-0.0930347
-0.0942797
-0.0954302
-0.0964875
-0.0974528
-0.0983276
-0.0991135
-0.0998118
-0.100424
-0.100952
-0.101398
-0.101762
-0.102048
-0.102255
-0.102388
-0.102446
-0.102433
-0.102349
-0.0592514
-0.0624318
-0.0652689
-0.0677628
-0.0700616
-0.0722772
-0.0744433
-0.0765466
-0.0785645
-0.0804847
-0.0823048
-0.0840278
-0.0856567
-0.0871929
-0.088637
-0.0899891
-0.0912497
-0.0924195
-0.0934997
-0.0944912
-0.0953954
-0.0962135
-0.0969468
-0.0975966
-0.0981643
-0.0986516
-0.0990599
-0.0993908
-0.0996459
-0.0998269
-0.0999355
-0.0999735
-0.0999426
-0.057063
-0.0600632
-0.0627854
-0.0652217
-0.0674879
-0.0696738
-0.0718073
-0.0738782
-0.0758683
-0.077767
-0.0795723
-0.081286
-0.0829103
-0.0844463
-0.0858942
-0.0872541
-0.0885263
-0.0897112
-0.0908099
-0.091823
-0.0927517
-0.0935969
-0.0943599
-0.0950418
-0.0956438
-0.0961674
-0.0966138
-0.0969845
-0.0972811
-0.097505
-0.0976579
-0.0977413
-0.0977569
-0.0551367
-0.0579784
-0.0605978
-0.0629809
-0.0652155
-0.0673727
-0.0694751
-0.071515
-0.0734782
-0.0753558
-0.0771455
-0.0788487
-0.0804668
-0.0820004
-0.0834497
-0.0848146
-0.0860952
-0.0872919
-0.0884052
-0.089436
-0.090385
-0.0912531
-0.0920412
-0.0927504
-0.0933819
-0.0939367
-0.0944162
-0.0948216
-0.0951543
-0.0954158
-0.0956074
-0.0957307
-0.0957872
-0.0957785
-0.0534526
-0.0561557
-0.0586839
-0.0610185
-0.0632236
-0.0653536
-0.0674269
-0.0694381
-0.0713759
-0.073233
-0.0750074
-0.0766996
-0.0783105
-0.0798404
-0.0812894
-0.0826571
-0.0839436
-0.0851492
-0.0862742
-0.0873192
-0.0882849
-0.089172
-0.0899814
-0.0907138
-0.0913703
-0.0919519
-0.0924598
-0.0928951
-0.0932591
-0.0935531
-0.0937785
-0.0939365
-0.0940287
-0.0940566
-0.0519934
-0.0545765
-0.0570249
-0.059316
-0.061494
-0.0635991
-0.0656458
-0.0676307
-0.0695451
-0.0713832
-0.0731429
-0.0748242
-0.0764275
-0.0779529
-0.0794003
-0.0807693
-0.0820598
-0.0832721
-0.0844062
-0.0854627
-0.0864421
-0.0873449
-0.0881719
-0.0889238
-0.0896014
-0.0902058
-0.0907379
-0.0911988
-0.0915897
-0.0919116
-0.092166
-0.0923541
-0.0924771
-0.0925366
-0.0507447
-0.0532253
-0.0556047
-0.0578577
-0.0600114
-0.0620941
-0.0641171
-0.0660785
-0.0679719
-0.0697927
-0.0715388
-0.0732097
-0.0748056
-0.0763262
-0.0777713
-0.0791405
-0.0804337
-0.0816508
-0.082792
-0.0838576
-0.084848
-0.0857637
-0.0866053
-0.0873733
-0.0880687
-0.0886921
-0.0892446
-0.0897271
-0.0901406
-0.0904864
-0.0907654
-0.090979
-0.0911284
-0.091215
-0.0496944
-0.0520889
-0.0544098
-0.0566301
-0.0587627
-0.0608259
-0.0628284
-0.0647693
-0.0666444
-0.0684499
-0.0701838
-0.0718454
-0.0734343
-0.0749501
-0.0763926
-0.0777614
-0.0790561
-0.0802768
-0.0814234
-0.0824961
-0.0834954
-0.0844214
-0.0852748
-0.0860561
-0.086766
-0.0874052
-0.0879745
-0.088475
-0.0889074
-0.089273
-0.0895726
-0.0898076
-0.0899791
-0.0900884
-0.0488323
-0.0511561
-0.0534289
-0.055622
-0.057737
-0.059784
-0.0617692
-0.063693
-0.0655527
-0.0673452
-0.0690687
-0.0707221
-0.0723047
-0.0738163
-0.0752562
-0.0766241
-0.0779197
-0.0791428
-0.0802935
-0.0813717
-0.0823778
-0.083312
-0.0841748
-0.0849667
-0.0856883
-0.0863402
-0.0869232
-0.0874382
-0.087886
-0.0882676
-0.0885841
-0.0888366
-0.0890261
-0.0891539
-0.0481504
-0.0504184
-0.052653
-0.0548244
-0.0569253
-0.0589593
-0.0609308
-0.0628409
-0.0646882
-0.0664703
-0.0681853
-0.069832
-0.0714095
-0.0729173
-0.0743549
-0.0757219
-0.0770179
-0.0782428
-0.0793964
-0.0804787
-0.08149
-0.0824305
-0.0833006
-0.0841007
-0.0848313
-0.0854931
-0.0860867
-0.0866131
-0.0870729
-0.0874672
-0.0877969
-0.0880631
-0.0882668
-0.0884092
-0.0476431
-0.0498704
-0.0520769
-0.0542323
-0.0563225
-0.0583466
-0.0603076
-0.0622073
-0.0640452
-0.0658193
-0.0675279
-0.0691694
-0.0707429
-0.0722478
-0.0736835
-0.0750496
-0.0763458
-0.0775718
-0.0787274
-0.0798127
-0.0808278
-0.0817728
-0.0826482
-0.0834542
-0.0841915
-0.0848605
-0.085462
-0.0859967
-0.0864655
-0.0868691
-0.0872086
-0.0874849
-0.0876992
-0.0878524
-0.0473017
-0.0495041
-0.051694
-0.05384
-0.0559239
-0.0579417
-0.0598958
-0.0617886
-0.0636201
-0.0653888
-0.0670929
-0.0687309
-0.0703016
-0.0718043
-0.0732387
-0.0746041
-0.0759003
-0.0771269
-0.0782837
-0.0793708
-0.0803883
-0.0813362
-0.082215
-0.0830249
-0.0837665
-0.0844403
-0.0850469
-0.0855872
-0.0860617
-0.0864715
-0.0868174
-0.0871005
-0.0873216
-0.0874821
-0.0471152
-0.0493063
-0.0514905
-0.0536349
-0.0557181
-0.0577345
-0.0596863
-0.0615764
-0.0634054
-0.0651719
-0.0668743
-0.0685107
-0.0700803
-0.0715823
-0.0730161
-0.0743813
-0.0756775
-0.0769045
-0.078062
-0.0791501
-0.0801688
-0.0811182
-0.0819987
-0.0828106
-0.0835543
-0.0842305
-0.0848397
-0.0853827
-0.0858601
-0.086273
-0.0866221
-0.0869085
-0.0871331
-0.0872971
-0.191468
-0.172889
-0.155524
-0.142618
-0.130939
-0.120185
-0.110938
-0.102867
-0.0956422
-0.0892258
-0.0835579
-0.0785173
-0.0740177
-0.0700045
-0.0664263
-0.0632337
-0.060386
-0.0578502
-0.0555978
-0.0536037
-0.0518469
-0.0503092
-0.0489754
-0.0478326
-0.0468697
-0.0460777
-0.0454491
-0.0449788
-0.0446571
-0.0444751
-0.17844
-0.161288
-0.143996
-0.131802
-0.121411
-0.111406
-0.10268
-0.0952474
-0.0886307
-0.0827063
-0.0774737
-0.0728385
-0.0687004
-0.0650036
-0.0617054
-0.0587622
-0.0561349
-0.0537929
-0.0517103
-0.0498646
-0.0482363
-0.0468089
-0.0455686
-0.0445033
-0.0436033
-0.04286
-0.0422666
-0.0418182
-0.0415046
-0.041321
-0.166638
-0.151127
-0.134217
-0.121902
-0.112233
-0.103069
-0.0948397
-0.0878878
-0.0818141
-0.0763616
-0.0715192
-0.0672404
-0.0634304
-0.0600239
-0.056982
-0.0542673
-0.0518436
-0.0496818
-0.0477579
-0.0460514
-0.0445445
-0.043222
-0.0420711
-0.0410811
-0.0402426
-0.039548
-0.0389911
-0.0385671
-0.0382663
-0.0380892
-0.15401
-0.139369
-0.123689
-0.111899
-0.102894
-0.0946732
-0.0871156
-0.0806255
-0.0750305
-0.0700429
-0.0655894
-0.0616468
-0.0581449
-0.0550158
-0.0522189
-0.0497216
-0.0474918
-0.0455022
-0.0437307
-0.0421582
-0.0407687
-0.0395483
-0.0384851
-0.0375693
-0.0367925
-0.0361477
-0.0356293
-0.0352327
-0.034949
-0.0347835
-0.140928
-0.127601
-0.113499
-0.102331
-0.0936808
-0.086145
-0.0792744
-0.0732781
-0.0681246
-0.063583
-0.0595284
-0.0559266
-0.0527292
-0.0498763
-0.047326
-0.0450477
-0.043013
-0.0411975
-0.0395805
-0.0381447
-0.0368753
-0.0357599
-0.0347876
-0.0339495
-0.033238
-0.0326467
-0.0321708
-0.0318059
-0.0315442
-0.0313952
-0.127375
-0.115043
-0.102391
-0.0921861
-0.0841582
-0.0773517
-0.0712397
-0.0658313
-0.0611406
-0.0570302
-0.0533738
-0.0501182
-0.0472242
-0.0446441
-0.0423388
-0.0402785
-0.0384378
-0.0367955
-0.0353329
-0.034034
-0.0328855
-0.0318761
-0.0309961
-0.0302374
-0.0295932
-0.029058
-0.0286273
-0.0282973
-0.0280614
-0.027932
-0.113143
-0.10219
-0.0911968
-0.0820972
-0.07472
-0.0685221
-0.063063
-0.0582353
-0.0540203
-0.0503337
-0.0470702
-0.0441656
-0.0415797
-0.0392744
-0.0372169
-0.035379
-0.0337367
-0.0322717
-0.0309675
-0.0298097
-0.0287861
-0.0278866
-0.0271027
-0.0264272
-0.025854
-0.0253783
-0.0249964
-0.0247047
-0.0244982
-0.0243914
-0.0984729
-0.088934
-0.0794589
-0.0715031
-0.0649316
-0.0594455
-0.0546767
-0.0504713
-0.0467732
-0.0435259
-0.0406556
-0.038103
-0.0358266
-0.0337956
-0.0319868
-0.0303738
-0.0289331
-0.0276485
-0.0265056
-0.0254913
-0.0245952
-0.0238081
-0.0231228
-0.0225329
-0.0220332
-0.0216195
-0.0212887
-0.0210378
-0.0208631
-0.0207799
-0.0833055
-0.0752381
-0.0673847
-0.0607031
-0.0550286
-0.0502642
-0.0461426
-0.0425282
-0.0393466
-0.0365472
-0.0340757
-0.0318813
-0.0299216
-0.0281713
-0.0266185
-0.0252391
-0.0240086
-0.022912
-0.0219367
-0.0210719
-0.0203083
-0.0196384
-0.0190557
-0.0185552
-0.0181323
-0.0177837
-0.0175067
-0.0172991
-0.0171585
-0.0170983
-0.0676925
-0.0610123
-0.0547018
-0.0493311
-0.0446578
-0.040712
-0.0372974
-0.0343113
-0.0316804
-0.0293603
-0.0273117
-0.0254943
-0.0238695
-0.0224177
-0.0211342
-0.0199984
-0.0189866
-0.0180848
-0.017283
-0.0165723
-0.0159454
-0.015396
-0.0149191
-0.0145105
-0.0141668
-0.0138852
-0.0136638
-0.013501
-0.0133954
-0.0133569
-0.0512038
-0.0462503
-0.0413778
-0.0374552
-0.0338557
-0.0308002
-0.0281201
-0.025781
-0.023725
-0.0219164
-0.0203233
-0.0189128
-0.0176559
-0.0165407
-0.0155453
-0.0146649
-0.0138802
-0.0131805
-0.0125581
-0.0120066
-0.0115204
-0.011095
-0.0107268
-0.0104125
-0.0101498
-0.00993668
-0.00977216
-0.00965492
-0.00958258
-0.00956996
-0.0334369
-0.0310018
-0.0273737
-0.0250146
-0.0224721
-0.0203977
-0.0185335
-0.0169221
-0.0155086
-0.0142675
-0.0131736
-0.012202
-0.0113446
-0.0106073
-0.00990734
-0.00928856
-0.00873467
-0.00823978
-0.00779894
-0.00740807
-0.00706375
-0.00676314
-0.00650392
-0.00628425
-0.0061026
-0.00595792
-0.00585001
-0.0057776
-0.0057369
-0.00575433
-0.0144991
-0.0150711
-0.0127514
-0.0119705
-0.0106058
-0.00959986
-0.00866285
-0.00786142
-0.00715504
-0.00652797
-0.00596569
-0.00545669
-0.00500334
-0.00460685
-0.00422144
-0.0038708
-0.00355319
-0.00326659
-0.00300968
-0.00278121
-0.00258004
-0.00240516
-0.00225574
-0.0021311
-0.00203068
-0.00195435
-0.0019024
-0.00187315
-0.00186661
-0.00190687
0.00539277
0.00220213
0.00268512
0.00186733
0.00174234
0.00149349
0.00134396
0.00123871
0.00118508
0.00117492
0.00119943
0.00124894
0.00130975
0.00137639
0.00145879
0.00154545
0.00163065
0.00171156
0.00178623
0.0018533
0.00191188
0.00196135
0.00200124
0.00203119
0.00205086
0.00205964
0.00205708
0.00204442
0.00201775
0.00196111
0.026099
0.0204341
0.0186269
0.015922
0.0140703
0.012465
0.0112102
0.0102195
0.00944251
0.00883168
0.00834857
0.00796176
0.00764554
0.00738518
0.00717183
0.00699485
0.00684501
0.00671625
0.0066041
0.00650519
0.00641693
0.0063373
0.00626467
0.00619769
0.00613513
0.0060758
0.00601909
0.00596517
0.0059079
0.00584033
0.0470923
0.0388111
0.0343863
0.0297694
0.0263092
0.0234934
0.0212611
0.0194675
0.0180099
0.0168095
0.0158078
0.0149607
0.0142352
0.0136096
0.0130669
0.0125939
0.0121795
0.011815
0.0114936
0.0112098
0.0109591
0.0107378
0.0105428
0.0103713
0.010221
0.01009
0.00997727
0.00988153
0.00979637
0.00972314
0.0675897
0.0569018
0.0502426
0.0442395
0.0395769
0.0357463
0.0325805
0.0299253
0.0276731
0.0257457
0.0240839
0.0226419
0.0213845
0.020285
0.0193213
0.0184757
0.0177329
0.0170802
0.0165069
0.0160038
0.0155633
0.0151786
0.0148442
0.0145554
0.014308
0.0140989
0.0139259
0.0137866
0.0136756
0.0136009
0.0876427
0.0761598
0.0682806
0.0613038
0.0554274
0.0503352
0.0459092
0.0420575
0.0387035
0.0357813
0.0332333
0.0310092
0.0290666
0.0273691
0.0258854
0.0245886
0.0234553
0.0224654
0.0216016
0.020849
0.0201951
0.0196289
0.0191414
0.0187251
0.0183735
0.0180818
0.017846
0.0176624
0.0175278
0.0174533
0.108505
0.0981007
0.0889457
0.0803693
0.0726392
0.0657632
0.0597051
0.0544034
0.0497812
0.0457592
0.0422624
0.0392224
0.0365792
0.0342804
0.0322805
0.0305404
0.0290263
0.0277094
0.026565
0.0255722
0.0247133
0.0239734
0.02334
0.0228028
0.0223533
0.0219846
0.0216914
0.0214689
0.0213155
0.0212404
0.127692
0.116558
0.105021
0.0943642
0.0849363
0.0767087
0.0695577
0.0633524
0.0579705
0.0533023
0.0492511
0.0457322
0.0426729
0.0400108
0.0376926
0.0356729
0.0339131
0.0323803
0.0310468
0.029889
0.0288871
0.0280244
0.0272871
0.0266636
0.0261444
0.025722
0.0253901
0.025144
0.0249819
0.0249072
0.14243
0.126487
0.11332
0.101849
0.0919411
0.0834082
0.0760349
0.0696404
0.0640811
0.0592394
0.0550164
0.0513278
0.0481019
0.0452777
0.0428032
0.0406342
0.0387332
0.0370685
0.0356127
0.034343
0.03324
0.0322872
0.0314708
0.0307794
0.0302035
0.0297354
0.029369
0.0290999
0.0289256
0.0288428
0.15397
0.135775
0.121901
0.110178
0.100028
0.0912246
0.0835816
0.0769265
0.0711134
0.0660234
0.0615585
0.0576359
0.0541856
0.0511478
0.0484715
0.0461135
0.0440366
0.0422091
0.0406042
0.0391989
0.0379735
0.0369115
0.0359989
0.0352239
0.0345769
0.0340497
0.0336363
0.0333318
0.0331326
0.0330347
0.159412
0.142851
0.129024
0.117277
0.1071
0.0982167
0.0904438
0.0836278
0.0776356
0.072356
0.0676964
0.0635789
0.0599371
0.0567139
0.0538604
0.0513347
0.0491006
0.0471271
0.0453876
0.0438593
0.0425227
0.0413612
0.0403606
0.0395091
0.0387967
0.0382153
0.0377584
0.037421
0.0371988
0.0370886
0.161939
0.147014
0.133959
0.122652
0.112755
0.104018
0.0962888
0.089446
0.0833826
0.0780032
0.0732255
0.0689788
0.0652022
0.0618429
0.0588551
0.0561992
0.0538406
0.0517496
0.0499005
0.048271
0.0468421
0.0455973
0.0445226
0.0436062
0.0428382
0.0422105
0.0417164
0.0413507
0.0411093
0.0409894
0.162075
0.149185
0.137322
0.126683
0.117209
0.108756
0.101202
0.0944507
0.088417
0.0830235
0.0782006
0.0738873
0.0700297
0.0665805
0.0634982
0.0607463
0.0582928
0.0561098
0.0541729
0.052461
0.0509557
0.0496412
0.0485039
0.0475323
0.0467167
0.046049
0.0455226
0.0451325
0.0448745
0.0447462
0.161253
0.149873
0.139184
0.129386
0.120499
0.112459
0.105192
0.0986313
0.0927147
0.0873838
0.0825836
0.0782635
0.0743778
0.0708855
0.0677497
0.064938
0.0624213
0.060174
0.0581736
0.0564004
0.054837
0.0534686
0.0522821
0.0512667
0.0504128
0.0497128
0.0491603
0.0487502
0.0484789
0.048344
0.159473
0.149577
0.140059
0.13114
0.122897
0.115332
0.108419
0.102116
0.0963825
0.0911752
0.0864526
0.0821749
0.0783048
0.074808
0.0716531
0.0688117
0.0662582
0.0639699
0.0619262
0.0601092
0.058503
0.0570937
0.0558692
0.0548192
0.0539349
0.0532089
0.0526352
0.052209
0.0519268
0.0517863
0.15736
0.148648
0.140148
0.132074
0.124503
0.117461
0.11095
0.104956
0.0994535
0.0944169
0.0898165
0.0856228
0.0818066
0.0783402
0.0751978
0.0723552
0.0697905
0.0674838
0.065417
0.063574
0.0619404
0.0605038
0.059253
0.0581784
0.0572719
0.0565267
0.0559372
0.0554989
0.0552084
0.0550638
0.154891
0.147271
0.139722
0.132446
0.125528
0.119013
0.112924
0.107263
0.102024
0.0971915
0.0927461
0.0886678
0.0849351
0.0815266
0.0784218
0.0756009
0.0730457
0.0707391
0.0686656
0.0668112
0.0651632
0.0637104
0.0624428
0.0613519
0.0604302
0.0596714
0.0590705
0.0586233
0.0583268
0.058179
0.152376
0.145657
0.138926
0.132371
0.126071
0.120074
0.114411
0.1091
0.104142
0.0995348
0.095268
0.091329
0.0877034
0.0843757
0.08133
0.0785509
0.0760237
0.0737341
0.0716694
0.0698173
0.0681671
0.0667089
0.065434
0.0643348
0.0634046
0.0626379
0.06203
0.0615772
0.0612769
0.0611272
0.149795
0.143881
0.137891
0.131996
0.126269
0.120764
0.115517
0.110554
0.105885
0.101515
0.0974412
0.0936578
0.0901561
0.0869256
0.0839553
0.0812334
0.0787484
0.0764893
0.0744454
0.0726068
0.0709642
0.0695094
0.0682349
0.067134
0.066201
0.0654309
0.0648197
0.0643641
0.0640617
0.0639109
0.1473
0.142063
0.136711
0.131399
0.126196
0.12115
0.116302
0.111679
0.107298
0.10317
0.0992971
0.0956794
0.0923132
0.0891925
0.08631
0.0836577
0.0812272
0.0790099
0.0769974
0.075182
0.073556
0.0721126
0.0708455
0.0697491
0.0688184
0.0680493
0.0674383
0.0669824
0.0666797
0.0665287
0.144875
0.140233
0.13545
0.130663
0.125936
0.121315
0.11684
0.112542
0.108442
0.104553
0.100883
0.0974358
0.0942117
0.0912085
0.0884224
0.0858484
0.0834809
0.0813138
0.0793409
0.0775561
0.0759536
0.0745278
0.0732737
0.0721867
0.0712626
0.070498
0.0698899
0.0694359
0.0691342
0.0689837
0.142593
0.138456
0.134164
0.129838
0.125537
0.121304
0.117176
0.113186
0.109354
0.105698
0.102228
0.0989523
0.0958731
0.0929919
0.0903077
0.0878182
0.0855203
0.0834099
0.081483
0.079735
0.0781617
0.0767589
0.0755226
0.0744492
0.0735354
0.0727783
0.0721756
0.0717253
0.0714259
0.0712765
0.14044
0.136743
0.132884
0.128969
0.125051
0.121169
0.117361
0.113656
0.110078
0.106645
0.10337
0.100262
0.0973273
0.0945693
0.0919895
0.0895879
0.0873634
0.0853141
0.0834374
0.0817305
0.0801906
0.0788147
0.0775997
0.0765431
0.0756424
0.0748953
0.0742999
0.0738547
0.0735586
0.0734107
0.138448
0.135127
0.131642
0.128087
0.124509
0.120944
0.117427
0.113986
0.110645
0.107422
0.104333
0.101388
0.0985943
0.0959583
0.0934832
0.0911708
0.0890219
0.0870362
0.0852127
0.08355
0.0820466
0.0807004
0.0795097
0.0784725
0.077587
0.0768517
0.0762652
0.0758264
0.0755343
0.0753885
0.136605
0.13361
0.130453
0.127216
0.12394
0.120659
0.117406
0.114206
0.111085
0.108059
0.105145
0.102355
0.0996976
0.0971803
0.0948081
0.0925843
0.0905112
0.0885899
0.086821
0.0852042
0.0837389
0.0824244
0.0812596
0.0802434
0.0793748
0.0786527
0.0780762
0.0776446
0.0773571
0.0772135
0.134923
0.132207
0.129333
0.126373
0.123364
0.120337
0.11732
0.114341
0.11142
0.108576
0.105826
0.103182
0.100654
0.0982508
0.0959781
0.0938408
0.0918423
0.0899852
0.088271
0.0867006
0.0852744
0.0839925
0.0828547
0.0818607
0.0810099
0.0803019
0.0797362
0.0793123
0.0790299
0.0788888
0.133389
0.130915
0.128289
0.125572
0.122798
0.119996
0.117192
0.11441
0.111672
0.108996
0.106397
0.103889
0.101482
0.0991867
0.0970087
0.0949544
0.0930282
0.0912335
0.089573
0.0880484
0.0866612
0.0854121
0.0843016
0.0833301
0.0824976
0.0818041
0.0812495
0.0808337
0.0805566
0.0804181
0.132006
0.12974
0.127327
0.124821
0.122254
0.119651
0.117036
0.114431
0.111858
0.109333
0.106873
0.10449
0.102196
0.100001
0.0979118
0.095936
0.0940785
0.0923437
0.090735
0.089255
0.0879058
0.0866889
0.0856054
0.0846563
0.0838421