/*--------------------------------*- C++ -*----------------------------------*\
  =========                 |
  \\      /  F ield         | OpenFOAM: The Open Source CFD Toolbox
   \\    /   O peration     | Website:  https://openfoam.org
    \\  /    A nd           | Version:  7
     \\/     M anipulation  |
\*---------------------------------------------------------------------------*/
FoamFile
{
    version     2.0;
    format      ascii;
    class       volVectorField;
    location    "80";
    object      U;
}
// * * * * * * * * * * * * * * * * * * * * * * * * * * * * * * * * * * * * * //

dimensions      [0 1 -1 0 0 0 0];

internalField   nonuniform List<vector> 
3500
(
(-0.0612269 0.00958518 6.20836e-20)
(-0.0905074 0.0093764 1.08247e-20)
(-0.116803 0.00872326 2.10686e-20)
(-0.139936 0.00795005 -1.21897e-20)
(-0.159636 0.00707922 -2.25971e-20)
(-0.175012 0.00578477 2.19312e-20)
(-0.188783 0.00570601 2.14786e-20)
(-0.194023 0.00306133 1.67712e-20)
(-0.00856557 0.0149118 -7.86768e-20)
(-0.0305416 0.0262643 5.20832e-20)
(-0.0605338 0.0290526 -7.08965e-20)
(-0.0875888 0.028355 3.79594e-21)
(-0.11112 0.026275 -5.05726e-20)
(-0.130981 0.0237714 6.21264e-21)
(-0.147229 0.0210312 3.24593e-20)
(-0.157107 0.0163427 -1.42704e-19)
(-0.167957 0.0162586 3.52012e-20)
(-0.164893 0.00624002 1.46238e-22)
(-0.0105982 0.0236967 1.46455e-19)
(-0.0323626 0.0420509 -1.29731e-20)
(-0.0592515 0.0466811 9.84988e-20)
(-0.0819502 0.0455901 -9.22624e-21)
(-0.100001 0.0421966 -1.07803e-19)
(-0.113089 0.0380426 7.95948e-20)
(-0.12277 0.034041 -3.4226e-20)
(-0.120165 0.0253159 3.4344e-20)
(-0.126028 0.027345 -1.04157e-19)
(-0.104535 0.00759277 1.47765e-19)
(-0.0133896 0.0306775 1.72778e-20)
(-0.0349801 0.0549929 -2.33043e-19)
(-0.0575329 0.0613219 -1.38679e-19)
(-0.0739094 0.0599049 7.29583e-20)
(-0.0839116 0.0553399 8.66624e-20)
(-0.0862363 0.0496253 -1.4423e-19)
(-0.0866795 0.0447297 6.17769e-20)
(-0.0624821 0.0323654 4.10753e-20)
(-0.0614054 0.0373183 1.64865e-19)
(-0.00625034 0.0113251 -2.12874e-19)
(-0.0167082 0.0355408 -7.37018e-20)
(-0.0382456 0.0643388 1.14776e-19)
(-0.0554843 0.0719758 3.35876e-19)
(-0.0636687 0.0701655 -1.67511e-19)
(-0.0631283 0.0644711 1.55461e-19)
(-0.0503094 0.0576233 2.62059e-19)
(-0.0377597 0.0498821 -7.30209e-21)
(0.017049 0.038627 7.46502e-21)
(0.0275934 0.0426801 -2.43291e-19)
(0.13897 0.021735 1.14674e-19)
(-0.020358 0.0382793 -1.74724e-19)
(-0.0419247 0.0696794 1.03478e-19)
(-0.052969 0.0778986 -4.68747e-19)
(-0.0509462 0.0754332 2.28212e-19)
(-0.0366632 0.0684082 3.20003e-20)
(-0.00453213 0.0614025 -2.95608e-19)
(0.0288703 0.0484097 -8.67678e-20)
(0.126935 0.0449959 8.6652e-20)
(0.142785 0.0378138 1.64521e-19)
(0.347509 0.0345828 -9.14334e-20)
(-0.0242148 0.0391479 -1.91459e-20)
(-0.0455992 0.0709577 -3.25513e-19)
(-0.0492506 0.0787196 3.21565e-19)
(-0.0343467 0.0751476 -2.3115e-19)
(-0.00121471 0.0668288 5.73512e-20)
(0.056969 0.0608196 1.92062e-19)
(0.122139 0.0424144 -3.52097e-19)
(0.272758 0.051813 -1.47352e-19)
(0.303227 0.0311783 1.25146e-19)
(0.606841 0.0470654 7.29187e-20)
(-0.0282204 0.0385578 1.91679e-19)
(-0.0485071 0.0684223 5.6173e-19)
(-0.0425192 0.0745517 -5.42121e-19)
(-0.010145 0.0694835 1.32576e-19)
(0.0498634 0.0605197 3.31793e-19)
(0.14444 0.0564057 -1.68912e-19)
(0.259954 0.0400003 -5.36716e-20)
(0.452335 0.0568628 -1.99354e-19)
(0.534562 0.0402453 2.37548e-19)
(0.868157 0.068475 -1.66626e-19)
(-0.0322814 0.0368923 -3.51483e-19)
(-0.0493743 0.0625871 9.71689e-20)
(-0.0293755 0.0660369 2.02749e-19)
(0.0284299 0.0596828 -1.00852e-19)
(0.127761 0.0522256 -3.40698e-19)
(0.271578 0.0515068 4.03442e-19)
(0.44978 0.0509772 2.55991e-19)
(0.65933 0.0648653 2.30642e-19)
(0.813059 0.0701356 -1.87888e-19)
(1.07681 0.0962249 1.42151e-19)
(-0.0360524 0.0343806 -8.73043e-20)
(-0.0461817 0.05407 -2.84043e-19)
(-0.00457794 0.054387 -1.68546e-19)
(0.0912215 0.0485522 1.97902e-19)
(0.245043 0.0474524 3.80004e-20)
(0.447281 0.0554743 -2.37673e-19)
(0.671552 0.0742357 2.7694e-19)
(0.879137 0.0874138 -3.88722e-19)
(1.052 0.11171 -2.1848e-19)
(1.19601 0.116807 7.61029e-20)
(-0.0388686 0.0311144 2.13271e-19)
(-0.0359078 0.0434467 2.9934e-19)
(0.0389121 0.0415345 1.24349e-19)
(0.189177 0.0408345 1.73276e-19)
(0.407587 0.0529722 -1.00458e-19)
(0.657307 0.0765278 -2.56814e-19)
(0.887419 0.105548 1.02339e-19)
(1.0676 0.122465 1.25499e-19)
(1.18779 0.14487 4.17637e-19)
(1.23232 0.120575 -2.45395e-19)
(-0.039765 0.0270446 3.18035e-19)
(-0.0145725 0.0312776 -3.87874e-20)
(0.109232 0.0305805 2.86684e-19)
(0.328873 0.0430888 -1.27397e-19)
(0.603469 0.0738387 3.89105e-19)
(0.863139 0.110681 1.54097e-19)
(1.05898 0.140202 1.90585e-19)
(1.1823 0.154713 -3.1179e-19)
(1.23502 0.157949 -1.27286e-19)
(1.25989 0.143585 1.22043e-19)
(-0.0374124 0.0220032 2.28559e-20)
(0.022655 0.0184663 -2.80202e-19)
(0.213556 0.0265875 -2.65939e-19)
(0.503748 0.0607725 -6.71013e-20)
(0.800583 0.108107 -1.05982e-19)
(1.02768 0.147875 1.15406e-19)
(1.16603 0.170351 -4.77527e-19)
(1.23103 0.173921 3.1903e-19)
(1.2546 0.172017 -3.15822e-21)
(1.25863 0.153599 -3.75581e-19)
(-0.0300929 0.0158753 -4.53678e-19)
(0.0811975 0.00714844 -9.25562e-20)
(0.353165 0.0357633 -9.81507e-21)
(0.690098 0.0933607 2.85786e-20)
(0.965896 0.147303 1.49669e-19)
(1.13703 0.180638 -4.66752e-19)
(1.21996 0.191831 4.56373e-19)
(1.25062 0.189674 -1.00451e-19)
(1.25368 0.180267 5.88498e-20)
(1.24776 0.162944 9.6612e-20)
(-0.0156991 0.00883528 1.21107e-20)
(0.165713 0.0019502 3.71943e-19)
(0.51688 0.0613364 9.43857e-20)
(0.859177 0.134276 -5.06578e-20)
(1.0857 0.18439 -4.24181e-20)
(1.2004 0.206865 2.71768e-19)
(1.24405 0.209322 -1.2046e-21)
(1.25175 0.201335 1.98157e-19)
(1.24584 0.18856 -6.17643e-20)
(1.23935 0.172902 -2.88795e-21)
(0.00854221 0.00167289 7.41267e-20)
(0.276927 0.00955642 -1.35008e-19)
(0.682604 0.1004 1.0613e-19)
(0.994479 0.176991 1.40079e-19)
(1.16415 0.217222 -9.18917e-20)
(1.23304 0.228885 -1.52244e-20)
(1.24944 0.223765 -2.65186e-19)
(1.24535 0.2122 -1.73542e-19)
(1.23594 0.196636 2.11985e-19)
(1.22581 0.181496 -1.33156e-19)
(0.0454935 -0.00343393 9.59403e-20)
(0.408143 0.034731 1.71075e-19)
(0.830498 0.147142 1.20066e-19)
(1.09358 0.218486 -1.81108e-19)
(1.21084 0.246475 2.13669e-19)
(1.2453 0.24799 -1.13169e-19)
(1.24528 0.237223 -2.82934e-20)
(1.23486 0.222401 -1.01528e-20)
(1.22322 0.204825 -6.00344e-20)
(1.21368 0.190669 1.91558e-20)
(0.0965178 -0.00295955 2.43593e-19)
(0.545936 0.0765393 -1.35212e-19)
(0.951418 0.197258 8.46199e-20)
(1.16064 0.257851 9.87163e-20)
(1.23428 0.272913 -7.03681e-20)
(1.24506 0.265661 1.06541e-19)
(1.23525 0.250113 3.87493e-20)
(1.22182 0.232561 5.14655e-20)
(1.21014 0.213472 3.27377e-20)
(1.19939 0.199025 5.22623e-20)
(0.160402 0.00665732 -8.97646e-20)
(0.675977 0.130267 -1.3147e-19)
(1.0439 0.248415 -1.0288e-19)
(1.20143 0.294808 -9.74592e-20)
(1.2413 0.297367 -4.28006e-20)
(1.23658 0.282509 4.69615e-20)
(1.22164 0.262904 -2.31191e-20)
(1.20715 0.24269 -2.29597e-22)
(1.19518 0.222042 -2.12431e-20)
(1.18482 0.206947 3.84058e-21)
(0.233266 0.0274547 2.40292e-20)
(0.788142 0.191071 -5.22804e-21)
(1.10961 0.29923 2.32163e-20)
(1.22145 0.329499 1.81489e-20)
(1.23653 0.320355 1.35782e-20)
(1.22253 0.298924 -3.63452e-20)
(1.20522 0.275513 1.67735e-20)
(1.19056 0.252615 -1.63427e-20)
(1.1793 0.230424 -5.21107e-21)
(1.16919 0.213964 -8.49804e-21)
(0.309522 0.0593914 1.2477e-21)
(0.877823 0.25526 -7.29369e-22)
(1.15117 0.34868 -5.02944e-21)
(1.22513 0.362108 6.04121e-20)
(1.22309 0.342182 -1.6352e-20)
(1.20412 0.314843 -1.52902e-20)
(1.18628 0.287759 1.98225e-21)
(1.17228 0.262099 -1.6232e-21)
(1.16172 0.238077 -6.01891e-21)
(1.15253 0.220018 -1.24918e-20)
(0.383102 0.100847 -1.03406e-19)
(0.944079 0.320257 1.95558e-20)
(1.17163 0.395934 -1.6655e-19)
(1.21579 0.392588 -5.82624e-20)
(1.20288 0.362808 -1.7766e-20)
(1.18203 0.330023 -2.23514e-21)
(1.16489 0.299286 -1.16495e-20)
(1.1521 0.2708 -6.23349e-21)
(1.14278 0.244881 5.90696e-21)
(1.13428 0.224995 8.58174e-21)
(0.448457 0.149506 1.78426e-19)
(0.987335 0.383988 -9.09424e-20)
(1.17381 0.440086 1.26482e-19)
(1.19581 0.420682 5.02251e-20)
(1.17705 0.381959 -1.74659e-20)
(1.15653 0.344022 5.79274e-20)
(1.14109 0.309651 -1.46816e-20)
(1.13019 0.278422 1.65409e-20)
(1.12221 0.250786 3.30127e-21)
(1.11436 0.228814 5.32537e-21)
(0.501307 0.202778 -1.09301e-19)
(1.0089 0.44467 4.13673e-19)
(1.16025 0.480296 -7.60556e-20)
(1.16692 0.445948 -4.223e-20)
(1.14635 0.399111 8.85022e-20)
(1.12794 0.356307 -3.67049e-20)
(1.11506 0.318374 -1.26663e-20)
(1.10653 0.284618 -8.0653e-21)
(1.09999 0.255714 1.36031e-21)
(1.09353 0.231444 -1.06718e-20)
(0.538957 0.257894 -1.98227e-19)
(1.01048 0.500655 -2.20909e-19)
(1.13301 0.515644 1.3472e-19)
(1.13052 0.467734 3.71343e-20)
(1.11147 0.413589 -4.34644e-20)
(1.09664 0.366326 -5.20098e-21)
(1.08702 0.325084 1.906e-20)
(1.08105 0.289153 6.80185e-21)
(1.07617 0.259041 -2.12294e-20)
(1.07209 0.232722 -2.42544e-21)
(0.560263 0.311965 6.83724e-20)
(0.993987 0.550383 2.83842e-19)
(1.09389 0.545105 -5.70737e-20)
(1.08799 0.485221 4.42431e-21)
(1.07309 0.424676 -3.24711e-21)
(1.0628 0.373467 1.0054e-21)
(1.05702 0.329481 1.49818e-20)
(1.05387 0.2917 -1.21291e-20)
(1.05127 0.260487 2.00781e-20)
(1.05005 0.232555 -1.97108e-20)
(0.565425 0.362207 -5.05338e-19)
(0.961205 0.592223 2.51226e-20)
(1.04494 0.567678 -1.05012e-19)
(1.04048 0.497377 1.2365e-20)
(1.03155 0.431727 -1.80662e-21)
(1.02666 0.377224 5.9496e-20)
(1.02534 0.331069 -4.83262e-20)
(1.02553 0.291931 2.80749e-20)
(1.02588 0.259766 -2.67638e-20)
(1.02815 0.23087 -8.9789e-20)
(0.555517 0.406337 2.56348e-19)
(0.913684 0.624099 -2.39156e-19)
(0.988472 0.582497 -1.67744e-20)
(0.988924 0.503408 -2.84345e-21)
(0.987435 0.43397 9.20974e-20)
(0.988782 0.377055 -8.96352e-21)
(0.992404 0.329437 7.21829e-20)
(0.996566 0.289448 8.40332e-21)
(1.00085 0.2567 5.78315e-21)
(1.00722 0.227763 1.25662e-19)
(0.531661 0.442662 1.41567e-19)
(0.853912 0.64443 -1.96427e-20)
(0.926508 0.588316 -8.08186e-21)
(0.93442 0.502855 7.21931e-20)
(0.941494 0.430867 -3.09079e-20)
(0.949638 0.372469 -1.10228e-19)
(0.958695 0.324056 -7.09619e-20)
(0.967598 0.28366 7.04851e-21)
(0.976879 0.250765 9.76995e-20)
(0.987642 0.223587 -7.9812e-20)
(0.495038 0.468627 -1.23156e-20)
(0.78593 0.652884 -2.61597e-20)
(0.860918 0.584221 -1.00469e-19)
(0.878112 0.495164 4.56973e-21)
(0.894515 0.421985 1.50797e-19)
(0.909876 0.363119 -4.81176e-20)
(0.924767 0.314589 1.80341e-19)
(0.93903 0.273997 -2.49134e-19)
(0.95388 0.240697 -1.67867e-19)
(0.96825 0.217161 -3.61683e-20)
(0.447982 0.480971 3.69024e-20)
(0.712279 0.647918 5.4024e-20)
(0.793238 0.57011 3.47675e-20)
(0.821194 0.47989 -5.35913e-20)
(0.84738 0.407043 -2.2755e-19)
(0.870221 0.348821 2.14793e-19)
(0.891266 0.301055 8.32903e-20)
(0.911091 0.260864 1.08036e-19)
(0.93118 0.22604 3.09552e-19)
(0.946409 0.199854 -7.51876e-20)
(0.394662 0.47934 1.3135e-19)
(0.635957 0.629105 -2.33103e-20)
(0.725352 0.545784 -5.78873e-20)
(0.764926 0.456779 1.12548e-19)
(0.801054 0.385849 2.01349e-19)
(0.831515 0.329431 -4.77823e-19)
(0.858904 0.283439 -7.44708e-20)
(0.884002 0.245245 -1.94344e-19)
(0.907191 0.212984 3.93501e-20)
(0.921946 0.188133 -1.41202e-19)
(0.338235 0.463352 -2.66477e-19)
(0.559622 0.596102 -1.20403e-19)
(0.659054 0.51131 4.01084e-19)
(0.710597 0.425833 -2.3017e-19)
(0.756537 0.358409 -3.32236e-19)
(0.794553 0.3049 3.11824e-19)
(0.828243 0.261255 -2.86108e-19)
(0.858459 0.22477 1.42257e-19)
(0.884987 0.193861 -1.77031e-19)
(0.901883 0.17029 2.8017e-19)
(0.281833 0.433433 -1.08461e-19)
(0.486071 0.549288 5.95269e-19)
(0.59615 0.466955 -6.20356e-19)
(0.659498 0.387269 2.5953e-20)
(0.714836 0.324971 2.02699e-19)
(0.760038 0.275733 -1.25387e-20)
(0.799444 0.235821 4.37481e-19)
(0.833817 0.202679 -3.81607e-19)
(0.863081 0.174585 2.78171e-19)
(0.883087 0.152525 -1.88146e-19)
(0.228276 0.390603 -1.77453e-19)
(0.417818 0.489393 9.70326e-20)
(0.538367 0.413232 2.67236e-19)
(0.612895 0.341486 3.07429e-19)
(0.676993 0.28575 -7.06039e-20)
(0.728923 0.241748 2.91801e-19)
(0.773651 0.206092 2.45153e-20)
(0.811848 0.176535 3.15351e-20)
(0.843802 0.151673 -1.1205e-19)
(0.866862 0.132256 -6.0743e-21)
(0.179969 0.336432 5.35481e-19)
(0.357119 0.417618 -3.71758e-19)
(0.487365 0.350928 -4.96853e-19)
(0.571949 0.289193 2.78968e-20)
(0.643814 0.241489 -1.46207e-19)
(0.70162 0.203939 1.22161e-19)
(0.750883 0.173595 -4.46841e-19)
(0.792336 0.148443 1.31824e-19)
(0.82688 0.12719 3.7529e-19)
(0.853045 0.110418 -1.81549e-19)
(0.138791 0.272595 7.27197e-20)
(0.305999 0.335719 4.62252e-19)
(0.444727 0.281112 3.33967e-19)
(0.537808 0.231177 -3.1245e-19)
(0.616247 0.192683 1.95022e-19)
(0.679007 0.162422 -8.83678e-20)
(0.732028 0.138016 -5.75758e-20)
(0.776155 0.11784 -2.73838e-20)
(0.812934 0.100792 -1.16058e-19)
(0.841879 0.0872112 2.1432e-19)
(0.106301 0.200731 -3.58563e-19)
(0.26612 0.245733 -4.18063e-19)
(0.411662 0.205242 -6.76566e-21)
(0.51135 0.168555 2.97785e-19)
(0.594906 0.140315 -5.46244e-20)
(0.661503 0.11814 -5.90848e-20)
(0.717409 0.100272 8.58709e-20)
(0.763595 0.0854999 -4.63976e-20)
(0.802179 0.0729876 -3.70366e-20)
(0.833437 0.0629394 3.85089e-20)
(0.0838439 0.122879 5.2131e-20)
(0.238792 0.149827 -6.8574e-20)
(0.389103 0.124927 2.95911e-19)
(0.493311 0.102506 -7.2594e-20)
(0.58037 0.0852578 1.36988e-19)
(0.649587 0.0717249 -3.68037e-20)
(0.707446 0.0608312 -5.74226e-20)
(0.755026 0.0518297 9.19937e-20)
(0.794871 0.044186 1.28039e-20)
(0.827795 0.0380017 -3.31411e-20)
(0.484172 0.0343687 -6.87559e-20)
(0.573008 0.0285731 3.15452e-20)
(0.643552 0.0240275 -1.67147e-20)
(0.702397 0.0203701 1.99329e-20)
(0.750679 0.0173487 -2.61885e-20)
(0.79117 0.014779 -1.59603e-20)
(0.824971 0.0126913 5.6481e-24)
(-0.197721 0.00443446 -4.91866e-20)
(-0.201455 0.00441471 3.5197e-20)
(-0.204677 0.00432221 4.78896e-22)
(-0.207511 0.00426498 -6.09491e-21)
(-0.210025 0.00423629 -1.21647e-20)
(-0.212253 0.00422679 -1.39814e-20)
(-0.214225 0.00422347 -2.39091e-20)
(-0.215971 0.00421135 4.25126e-20)
(-0.217513 0.00418302 -2.40985e-20)
(-0.218867 0.00413102 4.94081e-20)
(-0.220046 0.00404668 -3.11123e-20)
(-0.22106 0.00392213 -4.48821e-21)
(-0.221916 0.00375125 -1.09772e-20)
(-0.222618 0.00352958 2.84588e-20)
(-0.223171 0.0032542 -1.87424e-20)
(-0.223578 0.00292366 1.91063e-20)
(-0.223839 0.002538 -1.32859e-20)
(-0.223957 0.00209838 -1.11821e-20)
(-0.223934 0.00160708 7.20205e-21)
(-0.22377 0.00106847 -4.7805e-21)
(-0.223463 0.000481945 1.78231e-20)
(-0.223027 -0.000158964 -8.11927e-21)
(-0.222472 -0.000848275 -1.2013e-20)
(-0.221785 -0.00158038 7.44871e-21)
(-0.220962 -0.00235053 -1.00994e-20)
(-0.220003 -0.003155 1.18858e-20)
(-0.218909 -0.00398459 3.29345e-21)
(-0.217679 -0.00482812 -9.48905e-21)
(-0.21631 -0.00567645 1.70114e-20)
(-0.165157 0.0100843 5.05755e-21)
(-0.168555 0.00959534 4.19002e-20)
(-0.171261 0.00889775 -6.57364e-20)
(-0.173581 0.00828652 1.00715e-19)
(-0.175636 0.00776647 -8.28865e-20)
(-0.177445 0.00732388 -2.70684e-21)
(-0.179031 0.00693683 1.08234e-19)
(-0.180416 0.00658473 -3.52858e-20)
(-0.181615 0.00624854 1.30622e-20)
(-0.182641 0.00591165 -4.26261e-20)
(-0.183503 0.00556003 -4.98239e-20)
(-0.184207 0.00518195 2.69349e-20)
(-0.184757 0.0047678 -3.47026e-20)
(-0.185156 0.00431033 6.96454e-20)
(-0.185405 0.00380476 -2.18772e-20)
(-0.185505 0.00324893 2.28151e-20)
(-0.185457 0.00264323 -1.17519e-20)
(-0.185263 0.00199168 -2.68023e-20)
(-0.184922 0.00129877 3.01678e-20)
(-0.184446 0.000550636 -9.88664e-21)
(-0.183854 -0.000263193 -4.36609e-20)
(-0.18314 -0.00113215 4.07607e-20)
(-0.182291 -0.00204943 -2.63885e-20)
(-0.181312 -0.00300964 -6.01069e-21)
(-0.180203 -0.00400729 1.02115e-20)
(-0.178965 -0.00503697 2.93523e-20)
(-0.177599 -0.0060918 -8.02962e-21)
(-0.176105 -0.00716344 5.38023e-20)
(-0.174481 -0.00824293 -7.21497e-22)
(-0.0997673 0.0146341 -1.30912e-19)
(-0.102705 0.0133313 5.2516e-20)
(-0.104462 0.0123109 -1.38732e-19)
(-0.105929 0.0112466 2.52885e-19)
(-0.107261 0.0103048 -1.70403e-19)
(-0.108434 0.00949816 2.06844e-19)
(-0.109444 0.0087853 -2.06279e-19)
(-0.110292 0.00813905 9.29657e-20)
(-0.110985 0.00753092 -2.09705e-20)
(-0.111524 0.00693708 1.12591e-19)
(-0.111914 0.0063391 -5.28455e-20)
(-0.112155 0.00572197 -6.67154e-20)
(-0.112248 0.00507323 -1.27876e-19)
(-0.112192 0.00438347 1.32062e-19)
(-0.111986 0.00364685 -1.7784e-21)
(-0.111626 0.0028608 -1.18281e-19)
(-0.111106 0.00203008 2.75806e-20)
(-0.110425 0.00118833 1.034e-19)
(-0.109619 0.000270349 -2.9514e-20)
(-0.108713 -0.000711222 5.39932e-21)
(-0.107669 -0.00179226 6.10525e-20)
(-0.106482 -0.00286443 -5.93252e-20)
(-0.105168 -0.00398754 9.48409e-20)
(-0.103723 -0.00515187 -1.49701e-20)
(-0.102151 -0.00635378 -1.2425e-19)
(-0.100454 -0.00758815 1.24758e-19)
(-0.0986327 -0.00884816 -4.54887e-20)
(-0.0966896 -0.0101259 4.39594e-20)
(-0.0946253 -0.0114128 -1.28799e-19)
(0.00176831 0.0150418 6.47355e-21)
(-0.00202344 0.0145442 -1.56174e-19)
(-0.00233413 0.0138938 1.39132e-19)
(-0.00320721 0.0127367 9.98449e-20)
(-0.00395784 0.01163 -6.76127e-20)
(-0.00464175 0.0105976 -1.32987e-19)
(-0.00524414 0.00963721 5.58863e-21)
(-0.0057294 0.00874611 9.64717e-20)
(-0.00608562 0.00790081 -7.90629e-20)
(-0.00629942 0.0070773 1.32879e-19)
(-0.00636175 0.00625733 -1.6947e-19)
(-0.00626941 0.005425 1.61555e-19)
(-0.00602097 0.00456491 -3.67235e-20)
(-0.00561431 0.00366396 2.47228e-20)
(-0.0050474 0.00271365 4.4387e-20)
(-0.00430947 0.00171582 -3.85979e-20)
(-0.0033438 0.000691131 -1.57941e-19)
(-0.00226588 -0.00040376 6.53472e-20)
(-0.00109561 -0.00157248 1.23456e-19)
(0.000177258 -0.00280168 -3.81795e-20)
(0.00165574 -0.00405513 -5.49672e-20)
(0.00334524 -0.0053338 -1.9304e-20)
(0.00510454 -0.00666881 -6.82422e-21)
(0.00700325 -0.00804126 -5.22642e-20)
(0.00902891 -0.00944988 1.4185e-19)
(0.0111792 -0.0108896 -1.77437e-21)
(0.013452 -0.0123537 -4.5357e-20)
(0.0158444 -0.0138344 2.3631e-20)
(0.0183535 -0.0153234 -4.08884e-20)
(0.0209764 -0.0168115 -7.38012e-20)
(0.1486 0.0175093 5.99546e-20)
(0.14574 0.0158844 8.11826e-21)
(0.142437 0.0144352 -3.03377e-19)
(0.140182 0.0133576 1.31156e-19)
(0.138495 0.0123166 -1.10412e-19)
(0.137085 0.0112152 2.69904e-20)
(0.135908 0.0101198 -4.65067e-20)
(0.134946 0.00905329 1.08399e-19)
(0.134184 0.00799367 -2.98797e-21)
(0.133628 0.00692571 3.39054e-19)
(0.133285 0.00584852 -5.6855e-20)
(0.133154 0.00475853 -1.45665e-19)
(0.13323 0.00364351 -2.31248e-20)
(0.133512 0.00248754 -6.90882e-21)
(0.134001 0.00127751 -5.6512e-20)
(0.134716 1.01066e-05 -5.1678e-20)
(0.135599 -0.0013222 3.48443e-21)
(0.136644 -0.00271722 6.56948e-20)
(0.137904 -0.00411206 8.81967e-20)
(0.139344 -0.00555088 -1.0078e-19)
(0.14095 -0.00697891 1.05095e-19)
(0.142725 -0.00848089 -1.40386e-19)
(0.144653 -0.0100174 4.65099e-20)
(0.146732 -0.0115893 -1.73509e-20)
(0.148955 -0.0131938 -1.21004e-19)
(0.151316 -0.0148263 1.05131e-19)
(0.153809 -0.016481 2.78612e-20)
(0.156429 -0.0181503 -7.06066e-20)
(0.15917 -0.0198254 9.4578e-20)
(0.162026 -0.0214975 4.57352e-20)
(0.344943 0.028079 -1.32447e-20)
(0.341121 0.0236959 -7.53498e-20)
(0.335706 0.0204259 7.22507e-20)
(0.330243 0.0180244 1.73243e-19)
(0.325315 0.015915 4.28862e-20)
(0.32109 0.0139869 -1.7157e-19)
(0.317505 0.0123012 2.93342e-20)
(0.314411 0.0107938 2.19404e-19)
(0.311734 0.00934814 -5.9806e-19)
(0.309469 0.00791136 2.1188e-19)
(0.307613 0.00648192 -1.79469e-19)
(0.306135 0.00505848 3.27504e-19)
(0.305005 0.00362708 9.63172e-20)
(0.304199 0.00217078 -2.7366e-19)
(0.303698 0.000673374 3.88517e-19)
(0.303504 -0.000882687 -8.34647e-20)
(0.303642 -0.00250075 -2.54013e-19)
(0.304062 -0.00419637 -2.32783e-19)
(0.304731 -0.00592825 3.02966e-19)
(0.305634 -0.00766985 1.69437e-19)
(0.306761 -0.00941761 -2.29711e-19)
(0.308105 -0.0111891 2.30996e-19)
(0.309652 -0.0129896 -3.51875e-19)
(0.311387 -0.0148176 8.55536e-20)
(0.313299 -0.0166695 -3.53167e-20)
(0.315378 -0.0185412 1.43463e-19)
(0.317617 -0.0204264 4.77079e-20)
(0.320007 -0.0223171 -2.44822e-19)
(0.322537 -0.024204 -3.84367e-20)
(0.325198 -0.0260788 1.47473e-19)
(0.587063 0.0410586 -1.1423e-19)
(0.577706 0.0368047 1.36344e-20)
(0.568918 0.0332972 2.01596e-19)
(0.559631 0.0299023 -2.25427e-19)
(0.550565 0.0263057 1.15737e-19)
(0.542445 0.0229042 1.06628e-19)
(0.535292 0.019965 9.26949e-20)
(0.528829 0.0173605 -2.80514e-19)
(0.522945 0.0149108 -1.64722e-19)
(0.51768 0.0125669 -3.12522e-20)
(0.513053 0.0103327 4.97592e-19)
(0.50902 0.00818909 8.03469e-21)
(0.50553 0.00610229 -4.65917e-19)
(0.502543 0.00404767 1.63514e-19)
(0.500024 0.00200834 -1.2886e-20)
(0.497943 -3.37228e-05 1.00064e-19)
(0.496225 -0.00210981 5.60348e-20)
(0.494915 -0.00422583 -9.33311e-20)
(0.49408 -0.00636815 2.27196e-19)
(0.493638 -0.00856566 9.91257e-21)
(0.493505 -0.0107328 -4.40107e-19)
(0.493655 -0.0128653 2.14378e-19)
(0.494081 -0.01498 1.06419e-19)
(0.49477 -0.0170899 -1.50567e-20)
(0.495703 -0.0192041 -4.8641e-20)
(0.496861 -0.0213266 6.24563e-20)
(0.49823 -0.0234545 1.13839e-19)
(0.499797 -0.0255787 -4.24496e-19)
(0.501545 -0.0276882 3.58462e-19)
(0.503456 -0.0297747 -2.24155e-19)
(0.505514 -0.031831 -6.51741e-20)
(0.839761 0.0595448 1.16186e-19)
(0.825701 0.0548442 -2.88103e-19)
(0.813624 0.0514728 3.60878e-22)
(0.800907 0.0473312 2.72643e-19)
(0.788359 0.0424622 -7.71094e-20)
(0.77702 0.0378703 -1.86638e-19)
(0.766805 0.0338292 3.30271e-20)
(0.757268 0.0300633 6.9531e-20)
(0.748311 0.0264253 -8.4499e-20)
(0.740042 0.022958 1.34171e-19)
(0.732505 0.0196899 7.30151e-20)
(0.725662 0.0165846 6.2325e-20)
(0.719468 0.0135983 -1.66024e-19)
(0.713896 0.0107066 5.90495e-20)
(0.708918 0.00789177 5.20381e-21)
(0.704504 0.00513907 -2.11354e-19)
(0.700598 0.0024264 2.8346e-19)
(0.697183 -0.000227747 -2.22389e-19)
(0.694176 -0.00288243 1.31059e-19)
(0.69178 -0.00550351 -1.47242e-19)
(0.689899 -0.00817523 9.56211e-20)
(0.688403 -0.0109264 -7.60021e-20)
(0.687228 -0.013628 -1.44313e-20)
(0.686356 -0.0162659 -1.52584e-19)
(0.685773 -0.0188537 3.19796e-20)
(0.685464 -0.0214052 2.1135e-19)
(0.685419 -0.0239274 8.56079e-20)
(0.685624 -0.0264146 -2.06558e-19)
(0.686058 -0.0288582 1.3119e-19)
(0.686695 -0.0312542 -1.00384e-19)
(0.687511 -0.0335996 1.24584e-19)
(0.688491 -0.035888 -1.147e-19)
(1.05033 0.0834502 5.45195e-21)
(1.03694 0.0784374 1.62543e-19)
(1.02469 0.0744771 1.41979e-19)
(1.01118 0.0687564 -4.02905e-19)
(0.997914 0.0624353 1.39926e-19)
(0.985986 0.0567701 1.57774e-19)
(0.975025 0.0516163 3.50987e-20)
(0.964529 0.0465745 1.06772e-19)
(0.954482 0.0416381 -2.48178e-19)
(0.94502 0.0369305 -1.39187e-19)
(0.936176 0.0324719 2.81382e-19)
(0.927923 0.0282229 -1.0893e-19)
(0.920246 0.0241591 -2.66882e-19)
(0.913142 0.0202694 3.51349e-19)
(0.906598 0.0165378 -2.01511e-19)
(0.900596 0.0129441 8.63734e-20)
(0.89511 0.00946948 2.06751e-19)
(0.890117 0.00610022 -2.29178e-19)
(0.885556 0.00282943 -2.80157e-19)
(0.881399 -0.000383458 1.44436e-20)
(0.877556 -0.00360504 3.08057e-19)
(0.874341 -0.00670594 2.38157e-19)
(0.871652 -0.00980589 -2.37555e-19)
(0.869305 -0.0129326 -2.40141e-19)
(0.867237 -0.0159983 1.3757e-19)
(0.865428 -0.0189996 1.56245e-19)
(0.863878 -0.0219425 7.38142e-20)
(0.862586 -0.0248104 -1.43592e-19)
(0.861532 -0.027593 1.62701e-19)
(0.860687 -0.0302933 -3.21388e-19)
(0.860028 -0.0329142 7.96259e-20)
(0.859537 -0.0354525 -1.09326e-19)
(1.18136 0.103888 -2.74231e-19)
(1.17411 0.100336 3.97889e-19)
(1.16578 0.0958175 -5.05495e-20)
(1.15573 0.0892304 -2.12859e-19)
(1.14601 0.0826909 3.14907e-19)
(1.13724 0.0768414 -4.08765e-19)
(1.12891 0.0712018 -1.29337e-19)
(1.12068 0.0655422 -1.12418e-19)
(1.11261 0.0599654 3.24795e-19)
(1.1048 0.0545495 -2.01266e-19)
(1.09727 0.0492872 2.72037e-19)
(1.09002 0.0441693 1.22365e-19)
(1.08306 0.0392059 -1.68563e-19)
(1.07642 0.0344026 -3.09087e-19)
(1.0701 0.0297548 3.63091e-19)
(1.06411 0.0252532 7.83422e-20)
(1.05844 0.0208921 -7.83171e-20)
(1.05309 0.0166627 -1.53534e-19)
(1.04805 0.0125739 3.00814e-19)
(1.04334 0.00861808 -3.57077e-19)
(1.03889 0.00484118 3.78371e-19)
(1.03463 0.00114663 -9.50145e-20)
(1.03061 -0.00254546 -2.68482e-19)
(1.02703 -0.00609847 -7.11633e-20)
(1.0238 -0.00957094 3.96242e-19)
(1.02078 -0.0130448 2.78675e-20)
(1.01795 -0.0164871 -1.89297e-19)
(1.01533 -0.0198425 3.01577e-20)
(1.01292 -0.0230957 -2.31531e-19)
(1.01067 -0.026251 -3.03899e-21)
(1.00857 -0.0293072 2.07771e-19)
(1.00662 -0.0322575 3.74567e-20)
(1.00479 -0.0350952 -1.60859e-19)
(1.26069 0.126614 0)
(1.26016 0.11942 0)
(1.25509 0.112876 0)
(1.24838 0.106432 0)
(1.24202 0.100037 0)
(1.23638 0.0936334 0)
(1.23113 0.0872953 0)
(1.22595 0.0811457 0)
(1.22075 0.0752225 0)
(1.21554 0.0694927 0)
(1.21036 0.0639217 0)
(1.20525 0.0584979 0)
(1.20021 0.0532212 0)
(1.19528 0.0480904 0)
(1.19044 0.0431025 0)
(1.18572 0.0382516 0)
(1.18111 0.0335337 0)
(1.17663 0.0289399 0)
(1.17227 0.0244686 0)
(1.16805 0.0201049 0)
(1.16395 0.0158532 0)
(1.15997 0.0117004 0)
(1.15609 0.00771642 0)
(1.15228 0.00386126 0)
(1.14854 6.75391e-05 0)
(1.14494 -0.00364033 0)
(1.14151 -0.00722457 0)
(1.13827 -0.0106812 0)
(1.13516 -0.0140279 0)
(1.13216 -0.0172742 1.85097e-27)
(1.12925 -0.0204184 -1.85098e-27)
(1.12643 -0.0234549 0)
(1.12369 -0.0263792 0)
(1.26367 0.129705 0)
(1.26998 0.122015 0)
(1.27118 0.115169 0)
(1.26961 0.108858 0)
(1.26764 0.102735 0)
(1.26614 0.0966626 0)
(1.26499 0.0906737 0)
(1.26384 0.0848337 0)
(1.26246 0.0791598 0)
(1.26082 0.0736315 0)
(1.25895 0.0682239 0)
(1.25694 0.0629232 0)
(1.2548 0.0577258 0)
(1.25257 0.0526318 0)
(1.25023 0.0476413 0)
(1.24782 0.0427524 0)
(1.24532 0.0379628 0)
(1.24276 0.0332694 0)
(1.24014 0.0286707 0)
(1.23747 0.0241657 0)
(1.23474 0.0197565 0)
(1.23198 0.015448 0)
(1.22919 0.0112469 0)
(1.2264 0.00717508 0)
(1.22365 0.00325657 0)
(1.22098 -0.000503654 0)
(1.21834 -0.00412414 0)
(1.21567 -0.00763862 0)
(1.21296 -0.0110624 0)
(1.21022 -0.0143901 5.57283e-27)
(1.20747 -0.0176119 -5.57283e-27)
(1.20473 -0.0207214 0)
(1.202 -0.0237153 0)
(1.25567 0.126782 0)
(1.26345 0.119899 0)
(1.26661 0.113297 0)
(1.26698 0.107139 0)
(1.26676 0.101307 0)
(1.26694 0.0956613 0)
(1.26751 0.0901381 0)
(1.26815 0.084729 0)
(1.26859 0.0794392 0)
(1.26875 0.0742664 0)
(1.26867 0.0692012 0)
(1.2684 0.0642344 0)
(1.26798 0.0593607 0)
(1.26743 0.054578 0)
(1.26673 0.049886 0)
(1.2659 0.0452843 0)
(1.26493 0.0407732 0)
(1.26384 0.0363531 0)
(1.26263 0.0320264 0)
(1.26131 0.0277962 0)
(1.25989 0.0236682 0)
(1.25838 0.0196476 0)
(1.2568 0.0157406 0)
(1.25514 0.011946 0)
(1.25341 0.00825534 0)
(1.25159 0.0046422 0)
(1.24966 0.00108748 0)
(1.24763 -0.00240428 0)
(1.24554 -0.00580746 0)
(1.24342 -0.00910678 1.71149e-27)
(1.24125 -0.012298 -1.71149e-27)
(1.23904 -0.0153804 0)
(1.23678 -0.0183527 0)
(1.24498 0.122684 0)
(1.25272 0.116479 0)
(1.25661 0.110301 0)
(1.25796 0.104439 0)
(1.25862 0.0989007 0)
(1.25953 0.0935844 0)
(1.26077 0.0884013 0)
(1.26208 0.0833142 0)
(1.26323 0.0783207 0)
(1.26412 0.0734263 0)
(1.26479 0.0686317 0)
(1.26528 0.0639325 0)
(1.26563 0.059323 0)
(1.26584 0.0547994 0)
(1.26592 0.0503598 0)
(1.26586 0.0460034 0)
(1.26566 0.0417302 0)
(1.26533 0.0375404 0)
(1.26488 0.0334343 0)
(1.26431 0.0294123 0)
(1.26362 0.0254742 0)
(1.26282 0.0216185 0)
(1.2619 0.0178419 0)
(1.26087 0.0141398 0)
(1.25973 0.0105097 0)
(1.25849 0.00695434 0)
(1.25715 0.00348595 0)
(1.25575 0.000122569 0)
(1.25427 -0.00312923 0)
(1.25271 -0.00627519 0)
(1.25107 -0.00932046 0)
(1.24934 -0.0122665 0)
(1.24755 -0.0151119 0)
(1.23358 0.117466 0)
(1.24105 0.111891 0)
(1.24526 0.106255 0)
(1.24721 0.100819 0)
(1.24845 0.0956373 0)
(1.2498 0.0906513 0)
(1.25138 0.0857885 0)
(1.25301 0.0810099 0)
(1.25448 0.0763091 0)
(1.25571 0.0716923 0)
(1.25674 0.0671641 0)
(1.25758 0.0627236 0)
(1.25829 0.0583668 0)
(1.25886 0.0540898 0)
(1.2593 0.0498903 0)
(1.25961 0.0457673 0)
(1.25978 0.0417207 0)
(1.25983 0.0377502 0)
(1.25975 0.0338557 0)
(1.25955 0.0300368 0)
(1.25923 0.0262932 0)
(1.2588 0.0226248 0)
(1.25825 0.0190328 0)
(1.25759 0.01552 0)
(1.25683 0.012091 0)
(1.25597 0.00875059 0)
(1.25502 0.0055013 0)
(1.25399 0.00234213 0)
(1.25286 -0.000734159 0)
(1.25164 -0.00372717 0)
(1.25033 -0.00663326 0)
(1.24894 -0.00944903 0)
(1.24748 -0.012172 0)
(1.22287 0.111589 0)
(1.22998 0.106637 0)
(1.23428 0.101565 0)
(1.23658 0.0966023 0)
(1.23819 0.0918215 0)
(1.23983 0.0871936 0)
(1.24163 0.0826676 0)
(1.24343 0.0782122 0)
(1.24509 0.0738204 0)
(1.24652 0.0694973 0)
(1.24775 0.0652485 0)
(1.2488 0.0610752 0)
(1.24971 0.0569758 0)
(1.25048 0.0529479 0)
(1.25113 0.0489896 0)
(1.25164 0.0451005 0)
(1.25202 0.0412806 0)
(1.25227 0.0375301 0)
(1.25241 0.0338494 0)
(1.25242 0.0302389 0)
(1.25232 0.0266993 0)
(1.2521 0.0232321 0)
(1.25178 0.0198394 0)
(1.25135 0.0165232 0)
(1.25082 0.0132856 0)
(1.25019 0.0101269 0)
(1.24947 0.00704557 0)
(1.24866 0.00403991 0)
(1.24776 0.00111078 0)
(1.24676 -0.00173854 0)
(1.24569 -0.0045052 0)
(1.24453 -0.00718696 0)
(1.2433 -0.00978223 0)
(1.21332 0.105595 0)
(1.21996 0.101195 0)
(1.22421 0.0966384 0)
(1.2267 0.0921343 0)
(1.22856 0.0877567 0)
(1.23039 0.0834921 5.10455e-28)
(1.23233 0.0793052 -5.10455e-28)
(1.23425 0.0751725 0)
(1.23602 0.071089 0)
(1.23758 0.0670594 0)
(1.23894 0.0630895 0)
(1.24013 0.0591822 0)
(1.24117 0.0553379 0)
(1.24208 0.0515557 0)
(1.24286 0.0478349 0)
(1.24351 0.0441758 0)
(1.24403 0.0405787 0)
(1.24443 0.0370446 0)
(1.2447 0.0335744 0)
(1.24486 0.0301689 0)
(1.24491 0.0268295 0)
(1.24485 0.0235573 0)
(1.24468 0.0203536 0)
(1.24441 0.0172193 0)
(1.24404 0.0141551 0)
(1.24357 0.011161 0)
(1.24301 0.00823756 0)
(1.24236 0.00538562 0)
(1.24162 0.00260754 0)
(1.2408 -9.48588e-05 0)
(1.23989 -0.00271997 0)
(1.23891 -0.00526644 0)
(1.23786 -0.00773321 0)
(1.20477 0.0996077 0)
(1.21093 0.0956855 0)
(1.21506 0.0915979 0)
(1.21766 0.0875254 0)
(1.21968 0.0835372 0)
(1.22166 0.0796286 -8.12375e-28)
(1.22369 0.0757742 8.12375e-28)
(1.22568 0.0719575 0)
(1.22753 0.0681758 0)
(1.22917 0.0644343 0)
(1.23063 0.0607393 0)
(1.23192 0.0570947 0)
(1.23307 0.0535022 0)
(1.23408 0.0499625 0)
(1.23496 0.0464758 0)
(1.23572 0.0430431 0)
(1.23634 0.0396655 0)
(1.23685 0.0363441 0)
(1.23724 0.0330803 0)
(1.23752 0.0298752 0)
(1.23768 0.02673 0)
(1.23774 0.0236458 0)
(1.23769 0.0206236 0)
(1.23755 0.0176643 0)
(1.2373 0.0147688 0)
(1.23696 0.0119382 0)
(1.23653 0.00917379 0)
(1.23601 0.00647696 0)
(1.23541 0.00384917 0)