/*--------------------------------*- C++ -*----------------------------------*\
  =========                 |
  \\      /  F ield         | OpenFOAM: The Open Source CFD Toolbox
   \\    /   O peration     | Website:  https://openfoam.org
    \\  /    A nd           | Version:  7
     \\/     M anipulation  |
\*---------------------------------------------------------------------------*/
FoamFile
{
    version     2.0;
    format      ascii;
    class       volVectorField;
    location    "45";
    object      U;
}
// * * * * * * * * * * * * * * * * * * * * * * * * * * * * * * * * * * * * * //

dimensions      [0 1 -1 0 0 0 0];

internalField   nonuniform List<vector> 
3700
(
(0.0317788 -0.0166899 4.18952e-20)
(0.127353 -0.0260619 -5.25913e-21)
(0.24813 -0.025416 -2.17006e-20)
(0.345566 -0.0224918 1.11175e-20)
(0.429264 -0.0196209 3.39665e-20)
(0.500083 -0.0172098 -2.9667e-20)
(0.560966 -0.0151764 -1.07873e-21)
(0.613491 -0.0134483 -3.21574e-21)
(0.659155 -0.0119675 1.35225e-20)
(0.699037 -0.0106894 1.89367e-21)
(0.734058 -0.0095792 -8.69786e-21)
(0.764944 -0.00860879 -6.95414e-21)
(0.79226 -0.00775033 -2.49448e-20)
(0.81644 -0.00697835 2.63051e-20)
(0.837931 -0.00629692 -1.03831e-20)
(0.0342631 -0.0499251 -8.76467e-20)
(0.131096 -0.0780052 5.05275e-20)
(0.251716 -0.0760948 1.74137e-20)
(0.348691 -0.0673501 -3.71277e-21)
(0.431943 -0.058758 -3.15001e-20)
(0.502393 -0.0515406 -5.77966e-20)
(0.562971 -0.0454535 4.69418e-20)
(0.615242 -0.0402802 -7.65152e-21)
(0.660692 -0.0358466 -3.55055e-20)
(0.700394 -0.0320202 -3.48634e-20)
(0.735262 -0.0286961 4.15343e-20)
(0.76602 -0.0257902 -4.26147e-20)
(0.793235 -0.0232192 5.7816e-20)
(0.817321 -0.0209077 -5.24699e-20)
(0.838679 -0.0188695 -1.02172e-20)
(0.0392023 -0.0827303 -1.35468e-19)
(0.138548 -0.129413 -2.33634e-19)
(0.258861 -0.126319 -1.26192e-20)
(0.35492 -0.111838 5.79801e-20)
(0.437282 -0.0975855 2.74053e-20)
(0.506998 -0.085609 9.24444e-20)
(0.566967 -0.0755073 -6.12326e-20)
(0.618732 -0.0669211 -6.9599e-20)
(0.663758 -0.0595619 7.57025e-20)
(0.7031 -0.0532098 2.84875e-20)
(0.737662 -0.0476911 -8.57073e-20)
(0.768165 -0.0428658 2.86521e-20)
(0.795179 -0.0385953 -2.45902e-20)
(0.819079 -0.0347571 -2.60157e-20)
(0.840174 -0.0313799 -3.96408e-20)
(0.0465379 -0.114823 1.18425e-19)
(0.149643 -0.179931 3.78386e-19)
(0.26951 -0.175791 -1.77832e-19)
(0.364209 -0.15571 1.41587e-20)
(0.445247 -0.135899 -6.14805e-20)
(0.513868 -0.119242 1.68247e-19)
(0.57293 -0.105191 -4.85333e-21)
(0.623939 -0.0932454 -7.72545e-22)
(0.668332 -0.0830053 -5.1647e-20)
(0.707139 -0.0741653 5.54418e-20)
(0.741245 -0.0664839 1.4416e-19)
(0.771367 -0.0597658 4.87666e-20)
(0.798079 -0.0538173 6.95793e-21)
(0.821704 -0.0484737 -1.12907e-20)
(0.842411 -0.0437862 4.56597e-20)
(0.0561829 -0.145928 2.45932e-19)
(0.164279 -0.229214 -1.78977e-19)
(0.283583 -0.224215 -4.77743e-21)
(0.376495 -0.198728 -1.87649e-20)
(0.455785 -0.1735 1.28264e-19)
(0.522959 -0.152271 -9.41856e-20)
(0.580822 -0.13436 3.25193e-20)
(0.630833 -0.11913 -4.33718e-20)
(0.674388 -0.106071 2.53907e-20)
(0.712488 -0.0947953 -1.40509e-19)
(0.745991 -0.0849957 -1.02209e-19)
(0.775608 -0.0764217 -6.30944e-20)
(0.80192 -0.0688252 9.25101e-20)
(0.825181 -0.0620049 -2.40871e-20)
(0.845383 -0.0560457 2.20008e-20)
(0.068022 -0.175778 -2.78911e-21)
(0.182324 -0.276925 -2.87327e-19)
(0.300973 -0.271305 2.15607e-19)
(0.391693 -0.240658 -1.69155e-19)
(0.468825 -0.210192 -1.37432e-19)
(0.534212 -0.184531 7.21274e-20)
(0.590592 -0.162874 -4.85481e-20)
(0.639369 -0.144454 1.81738e-19)
(0.68189 -0.128655 -5.15569e-20)
(0.719114 -0.115011 1.07417e-19)
(0.751871 -0.103149 -5.05385e-20)
(0.780864 -0.0927666 1.11716e-19)
(0.806677 -0.0835604 2.2906e-20)
(0.829492 -0.075299 4.87865e-20)
(0.849082 -0.0681147 -5.59717e-20)
(0.081913 -0.204119 2.18337e-20)
(0.203613 -0.32274 2.87754e-19)
(0.321547 -0.316785 -2.73914e-20)
(0.409697 -0.281274 -5.1715e-21)
(0.484282 -0.245788 -3.44128e-20)
(0.547553 -0.215862 -3.22869e-19)
(0.60218 -0.190597 2.37599e-20)
(0.649497 -0.169101 -1.43856e-19)
(0.690792 -0.150659 -1.9159e-20)
(0.726981 -0.134726 -8.9738e-21)
(0.758854 -0.120871 3.89153e-20)
(0.787103 -0.108736 -8.52842e-20)
(0.812324 -0.0979664 -1.91871e-19)
(0.834615 -0.0883055 2.04057e-19)
(0.853497 -0.0799493 6.99887e-20)
(0.0976877 -0.23071 -1.54681e-19)
(0.227951 -0.366346 -2.6631e-19)
(0.345148 -0.360388 7.04911e-20)
(0.430384 -0.320362 1.15876e-19)
(0.502053 -0.280108 1.15128e-19)
(0.562898 -0.246112 -8.43288e-21)
(0.615512 -0.2174 -9.39569e-20)
(0.661153 -0.192962 2.75444e-19)
(0.701041 -0.171986 1.4477e-21)
(0.736041 -0.153857 7.12282e-20)
(0.766898 -0.138088 1.6427e-19)
(0.794293 -0.124268 -1.58361e-19)
(0.818828 -0.111989 2.06811e-19)
(0.840522 -0.100976 -1.02771e-19)
(0.858613 -0.0915059 -6.85689e-20)
(0.115153 -0.255327 9.0446e-20)
(0.255113 -0.407452 -8.13369e-20)
(0.371594 -0.401863 1.56284e-19)
(0.45361 -0.357715 -1.35516e-19)
(0.522021 -0.312984 -1.70456e-19)
(0.580147 -0.275138 -1.94089e-19)
(0.630505 -0.243161 7.90719e-20)
(0.674266 -0.21593 5.17425e-20)
(0.712577 -0.192546 -2.4529e-19)
(0.746242 -0.172327 -1.65113e-19)
(0.77596 -0.154733 -1.47274e-19)
(0.802391 -0.139304 2.05111e-19)
(0.826152 -0.125577 -5.94711e-20)
(0.847183 -0.113262 -5.01778e-20)
(0.864414 -0.102741 3.4103e-21)
(0.134093 -0.277765 3.17135e-19)
(0.284846 -0.445781 4.15725e-19)
(0.400682 -0.440972 -1.69965e-19)
(0.479215 -0.393143 -1.97018e-19)
(0.544056 -0.344254 4.21507e-19)
(0.59919 -0.302805 3.15993e-20)
(0.647066 -0.267764 1.4664e-19)
(0.688758 -0.237907 -3.34898e-19)
(0.725331 -0.212254 1.44156e-19)
(0.757527 -0.190062 2.26023e-20)
(0.785989 -0.170742 -9.22544e-20)
(0.811355 -0.153789 -2.24324e-19)
(0.834257 -0.138683 -9.91091e-20)
(0.854565 -0.125122 7.01066e-20)
(0.870878 -0.113613 1.48519e-20)
(0.154271 -0.297842 -2.20301e-19)
(0.316869 -0.481082 -2.81126e-19)
(0.432185 -0.477495 1.76527e-19)
(0.507022 -0.426467 6.37475e-19)
(0.568012 -0.373774 5.94756e-20)
(0.619906 -0.328989 1.26693e-20)
(0.665091 -0.291102 -1.93224e-19)
(0.70454 -0.258801 3.99427e-19)
(0.739228 -0.231031 1.41506e-20)
(0.76983 -0.206993 1.91018e-19)
(0.796928 -0.186056 2.37763e-19)
(0.821134 -0.167672 1.49091e-19)
(0.843098 -0.151264 -1.31204e-20)
(0.86263 -0.136514 4.01016e-20)
(0.877984 -0.12408 1.32105e-19)
(0.175429 -0.315395 -1.00524e-19)
(0.350879 -0.513123 -1.65517e-19)
(0.465857 -0.511231 5.98497e-20)
(0.536838 -0.457526 4.66128e-20)
(0.593734 -0.401408 -4.77499e-19)
(0.642164 -0.353576 4.84454e-19)
(0.68447 -0.313079 -1.83125e-20)
(0.721518 -0.27853 -1.10711e-19)
(0.754189 -0.248805 -7.26322e-20)
(0.783082 -0.223057 -4.92859e-20)
(0.808718 -0.200619 -7.93078e-20)
(0.831676 -0.180905 5.47679e-20)
(0.852627 -0.163278 -1.59334e-19)
(0.87134 -0.147403 -1.22399e-19)
(0.885706 -0.134106 -7.93661e-20)
(0.197294 -0.330291 -2.52897e-20)
(0.386546 -0.541701 3.21229e-19)
(0.501432 -0.541996 -5.00475e-19)
(0.568457 -0.486174 -6.27991e-19)
(0.621054 -0.427038 2.15863e-19)
(0.665824 -0.376465 -8.0893e-20)
(0.705085 -0.333609 1.83412e-19)
(0.739593 -0.297017 2.5096e-20)
(0.770126 -0.26551 3.07445e-19)
(0.79721 -0.238197 -6.45252e-20)
(0.821295 -0.214381 -2.34196e-19)
(0.842923 -0.193445 3.04368e-20)
(0.862794 -0.174692 -6.7342e-20)
(0.880652 -0.157756 2.82456e-20)
(0.894016 -0.143656 -5.35154e-21)
(0.219579 -0.342421 1.67092e-19)
(0.423522 -0.566639 1.52604e-19)
(0.538626 -0.569632 4.68195e-19)
(0.601659 -0.512284 3.58685e-19)
(0.649795 -0.45056 2.71641e-19)
(0.690737 -0.397569 -3.11013e-19)
(0.726811 -0.352614 -6.46864e-20)
(0.758656 -0.314197 -1.3228e-19)
(0.786948 -0.281089 -8.2872e-20)
(0.812136 -0.252362 1.76704e-19)
(0.83459 -0.227297 9.70582e-20)
(0.854814 -0.205252 -2.23861e-20)
(0.873541 -0.185472 2.95281e-19)
(0.890521 -0.167544 -6.71115e-20)
(0.902884 -0.152696 1.62244e-19)
(0.241983 -0.351707 -7.26242e-20)
(0.46144 -0.587788 -5.61029e-19)
(0.577141 -0.593999 -3.36796e-19)
(0.636213 -0.535745 -1.58978e-19)
(0.679772 -0.471884 -4.06562e-19)
(0.716751 -0.416811 3.50773e-19)
(0.749517 -0.370032 1.39392e-19)
(0.778598 -0.330015 1.30928e-19)
(0.804562 -0.295493 -6.18309e-19)
(0.827778 -0.26551 -1.93287e-19)
(0.848535 -0.23933 1.46835e-19)
(0.867285 -0.216298 -7.56312e-20)
(0.88481 -0.195604 9.45718e-20)
(0.900901 -0.176763 -9.70925e-20)
(0.912284 -0.16121 -4.47405e-20)
(0.264199 -0.358098 1.20949e-20)
(0.499914 -0.605029 2.53306e-19)
(0.616661 -0.614982 2.41812e-19)
(0.671877 -0.556468 9.31704e-20)
(0.710795 -0.49094 1.8389e-19)
(0.743704 -0.434133 -1.91551e-19)
(0.773069 -0.385808 -9.67824e-20)
(0.799304 -0.344422 1.19902e-19)
(0.822869 -0.30868 1.77592e-20)
(0.844053 -0.277602 9.98138e-20)
(0.863059 -0.250439 -2.18405e-20)
(0.880271 -0.226533 -2.75997e-20)
(0.896532 -0.205027 -2.54482e-20)
(0.911737 -0.185353 -5.62457e-20)
(0.922195 -0.169154 1.53278e-19)
(0.285914 -0.361578 8.54879e-20)
(0.538546 -0.618274 -9.91666e-20)
(0.65686 -0.632492 -1.1215e-19)
(0.708403 -0.574384 -2.39189e-20)
(0.742664 -0.507673 -1.01301e-19)
(0.771435 -0.449487 1.4893e-19)
(0.797329 -0.399901 -1.62083e-19)
(0.820656 -0.357384 -3.7011e-20)
(0.841768 -0.320619 1.8684e-19)
(0.860873 -0.288611 -4.38547e-21)
(0.878088 -0.26061 1.62836e-19)
(0.893701 -0.235966 -1.4433e-19)
(0.90862 -0.213804 -2.01772e-20)
(0.922957 -0.193447 -2.91825e-20)
(0.932606 -0.176646 -1.54432e-19)
(0.306816 -0.362162 -1.33646e-19)
(0.576925 -0.627466 3.21507e-20)
(0.697399 -0.646463 3.99478e-20)
(0.745534 -0.589445 6.35613e-20)
(0.775181 -0.522044 2.38768e-19)
(0.799778 -0.462841 6.79486e-20)
(0.822158 -0.412285 -1.66293e-19)
(0.842538 -0.368873 9.61567e-20)
(0.861157 -0.331284 4.19447e-19)
(0.878154 -0.298511 -1.51293e-19)
(0.89356 -0.269799 -3.75411e-20)
(0.907537 -0.244505 9.54844e-20)
(0.92102 -0.22173 -5.05795e-20)
(0.934494 -0.200697 4.9764e-20)
(0.943578 -0.18336 -6.09723e-20)
(0.326591 -0.359893 5.90415e-20)
(0.614633 -0.632583 -9.54424e-20)
(0.737927 -0.656857 -1.08134e-19)
(0.783007 -0.601621 -1.12915e-19)
(0.808141 -0.534036 -1.93063e-19)
(0.828565 -0.47418 -2.0174e-19)
(0.847414 -0.422942 2.17837e-19)
(0.864828 -0.378875 -3.19213e-19)
(0.880935 -0.340662 -2.57756e-19)
(0.895803 -0.307293 2.26137e-19)
(0.909392 -0.278019 -1.72777e-19)
(0.921705 -0.252231 4.54384e-20)
(0.933584 -0.22909 8.33131e-20)
(0.94604 -0.207843 1.09866e-19)
(0.955054 -0.190522 5.57295e-20)
(0.344927 -0.354845 2.33368e-20)
(0.651249 -0.63364 -3.72267e-20)
(0.778089 -0.663661 1.40297e-20)
(0.820557 -0.610907 -1.46219e-21)
(0.841342 -0.543644 4.27044e-20)
(0.857629 -0.483502 4.69336e-21)
(0.872958 -0.431869 -1.64922e-19)
(0.88741 -0.387385 1.36074e-19)
(0.901 -0.348745 -1.26367e-19)
(0.913729 -0.314946 -1.75288e-19)
(0.925513 -0.285234 1.12494e-19)
(0.936213 -0.259003 -8.6946e-20)
(0.946423 -0.235383 3.31787e-20)
(0.95763 -0.21348 -8.19048e-20)
(0.96761 -0.195419 -3.93153e-20)
(0.361515 -0.347125 -5.5875e-20)
(0.68635 -0.630689 4.40258e-20)
(0.817523 -0.66689 1.05137e-22)
(0.857918 -0.617318 6.98521e-20)
(0.874579 -0.550884 8.15978e-20)
(0.886806 -0.490818 -4.3739e-20)
(0.89865 -0.439076 1.21671e-19)
(0.910164 -0.394407 -9.56537e-20)
(0.921254 -0.355536 5.18552e-20)
(0.931847 -0.321471 1.61799e-19)
(0.941839 -0.291458 9.42287e-20)
(0.951007 -0.264904 -1.40061e-19)
(0.959562 -0.241101 6.21236e-20)
(0.968688 -0.219912 3.68412e-20)
(0.979072 -0.203506 6.40124e-20)
(0.376043 -0.336873 1.72588e-19)
(0.719516 -0.623819 -1.35743e-19)
(0.855867 -0.666583 3.23522e-21)
(0.894821 -0.620891 3.24915e-20)
(0.907652 -0.555783 -2.71412e-20)
(0.915934 -0.496155 1.00389e-19)
(0.924353 -0.444584 -6.0595e-20)
(0.932976 -0.39996 -2.07539e-20)
(0.9416 -0.361049 2.17335e-19)
(0.950074 -0.326881 -1.96386e-19)
(0.958277 -0.296706 -5.86501e-20)
(0.965964 -0.269941 1.4995e-19)
(0.973005 -0.246044 -8.44473e-20)
(0.98005 -0.225122 -5.7595e-20)
(0.989133 -0.207288 -1.40401e-20)
(0.388198 -0.324256 -1.44433e-19)
(0.750314 -0.613147 2.0282e-19)
(0.892767 -0.662811 6.50335e-22)
(0.931004 -0.621681 1.35835e-20)
(0.940363 -0.558387 -4.86595e-20)
(0.944853 -0.499553 4.39621e-20)
(0.949936 -0.448426 -7.88248e-21)
(0.955732 -0.404069 8.26724e-20)
(0.961943 -0.365302 -1.79803e-19)
(0.968335 -0.331187 8.33306e-20)
(0.974758 -0.30098 -2.78319e-20)
(0.98099 -0.274085 4.29287e-20)
(0.986707 -0.25007 6.16922e-21)
(0.991991 -0.229199 -3.71051e-21)
(0.999232 -0.210519 -1.42252e-20)
(0.397783 -0.309548 4.48869e-20)
(0.778279 -0.598827 -1.68324e-19)
(0.927891 -0.655689 -9.77869e-20)
(0.966207 -0.619755 -2.61729e-21)
(0.972516 -0.558746 1.71571e-20)
(0.973409 -0.501066 2.53968e-20)
(0.975269 -0.450648 -1.86207e-20)
(0.978322 -0.406769 -9.69189e-20)
(0.982189 -0.368324 -2.37385e-20)
(0.986556 -0.33441 7.27113e-20)
(0.99123 -0.304295 2.39451e-20)
(0.996027 -0.277367 -9.57045e-21)
(1.00057 -0.253288 -7.47963e-20)
(1.00451 -0.232514 2.02891e-20)
(1.01001 -0.213458 1.92959e-20)
(0.404649 -0.292951 -2.55567e-20)
(0.802658 -0.580845 2.83158e-19)
(0.960998 -0.645461 6.05553e-20)
(1.00017 -0.615187 5.58631e-21)
(1.00392 -0.556927 1.21767e-20)
(1.00145 -0.50076 -3.1924e-20)
(1.00023 -0.451304 -2.40946e-20)
(1.00064 -0.408107 7.92228e-20)
(1.00225 -0.370154 6.91591e-20)
(1.00466 -0.336583 -1.23498e-19)
(1.00764 -0.306686 1.15444e-20)
(1.01104 -0.279843 9.319e-21)
(1.01447 -0.255794 9.13055e-20)
(1.01734 -0.235156 1.26458e-20)
(1.02139 -0.215899 -9.53164e-20)
(0.408733 -0.274642 -6.22476e-20)
(0.823224 -0.559685 -4.22757e-19)
(0.991665 -0.632363 -2.06096e-20)
(1.03266 -0.60792 -3.91315e-20)
(1.03438 -0.553005 -5.32298e-20)
(1.02884 -0.498716 9.49712e-21)
(1.0247 -0.450459 1.90071e-20)
(1.02259 -0.408137 -2.6212e-20)
(1.02204 -0.370837 5.08051e-21)
(1.02258 -0.337747 5.50586e-20)
(1.02394 -0.30819 -3.61281e-20)
(1.02597 -0.281552 2.32819e-20)
(1.02832 -0.257621 -3.27662e-20)
(1.03022 -0.237131 -5.75248e-20)
(1.033 -0.217828 1.21023e-20)
(0.409889 -0.254977 -9.62302e-21)
(0.839976 -0.535809 5.63446e-20)
(1.01915 -0.61625 6.96541e-20)
(1.06335 -0.598077 -1.00068e-20)
(1.0637 -0.5471 -1.22401e-20)
(1.05544 -0.49502 -3.06424e-20)
(1.04858 -0.448187 -7.19467e-21)
(1.04408 -0.406922 5.29373e-21)
(1.04147 -0.370426 -3.04824e-21)
(1.04025 -0.337945 -2.63078e-20)
(1.04007 -0.308844 3.52235e-20)
(1.04078 -0.282522 -1.04485e-20)
(1.04207 -0.258787 -6.27728e-21)
(1.04303 -0.238459 1.70073e-20)
(1.0446 -0.219262 -9.45617e-21)
(0.407976 -0.234307 1.64946e-19)
(0.852606 -0.509383 2.70961e-19)
(1.04312 -0.597262 4.32734e-20)
(1.09192 -0.585876 -8.37428e-20)
(1.09168 -0.539314 9.40163e-20)
(1.08111 -0.489767 4.02195e-20)
(1.07175 -0.44457 -1.4214e-20)
(1.06502 -0.404531 -4.8811e-21)
(1.06048 -0.368981 9.97207e-21)
(1.05758 -0.337229 -3.54346e-21)
(1.05595 -0.30869 -6.57777e-21)
(1.05541 -0.282784 1.9166e-20)
(1.05567 -0.25932 4.67491e-20)
(1.05573 -0.239176 -3.27421e-20)
(1.05614 -0.22021 5.29947e-20)
(0.402923 -0.212957 -1.91665e-19)
(0.86071 -0.480618 -8.49031e-20)
(1.0634 -0.575674 -2.05008e-19)
(1.11808 -0.571475 2.19637e-19)
(1.11814 -0.529764 -1.53022e-19)
(1.10573 -0.483064 5.11758e-20)
(1.09411 -0.439702 1.01965e-20)
(1.08532 -0.401041 4.41171e-21)
(1.07898 -0.366565 5.17509e-21)
(1.07453 -0.335651 -7.21568e-22)
(1.07153 -0.307769 6.56574e-21)
(1.0698 -0.282372 2.21943e-20)
(1.06908 -0.259252 -1.94369e-20)
(1.06828 -0.239323 -1.89664e-20)
(1.06762 -0.220692 -4.87949e-20)
(0.394744 -0.19125 -1.85321e-19)
(0.863957 -0.449816 8.3178e-20)
(1.07971 -0.551724 5.84335e-20)
(1.14157 -0.555026 -1.25625e-19)
(1.14294 -0.518601 2.27423e-20)
(1.12912 -0.475 -6.49256e-21)
(1.1156 -0.433676 -2.4097e-20)
(1.10493 -0.396536 -1.85872e-20)
(1.09693 -0.363247 1.24768e-20)
(1.09103 -0.333268 2.60321e-21)
(1.08676 -0.306131 -9.80654e-21)
(1.08392 -0.281326 -1.34226e-20)
(1.08225 -0.258619 8.96961e-21)
(1.08066 -0.238936 1.2275e-20)
(1.079 -0.220731 1.51488e-20)
(0.383522 -0.169514 1.80169e-19)
(0.862094 -0.417334 -8.29349e-20)
(1.09169 -0.525647 4.20469e-20)
(1.16211 -0.536709 1.85187e-19)
(1.16592 -0.50592 1.42105e-19)
(1.15126 -0.465695 -9.46603e-20)
(1.13607 -0.426608 3.36984e-20)
(1.12376 -0.391095 2.78277e-20)
(1.11425 -0.359099 -3.03874e-20)
(1.10703 -0.330142 1.10278e-20)
(1.10159 -0.303826 3.08844e-21)
(1.09771 -0.279687 -2.44256e-21)
(1.09516 -0.257459 1.06071e-21)
(1.09282 -0.238051 -1.43747e-20)
(1.09024 -0.220343 1.85218e-20)
(0.369401 -0.148072 -1.67957e-19)
(0.85493 -0.38355 1.05889e-19)
(1.099 -0.497684 1.28928e-19)
(1.17938 -0.516672 -2.77403e-20)
(1.18678 -0.491849 -1.97292e-19)
(1.1721 -0.455279 -6.48917e-20)
(1.15552 -0.418585 -7.56305e-20)
(1.14175 -0.384833 2.73242e-20)
(1.13091 -0.354195 -7.98009e-21)
(1.12249 -0.326338 -1.73967e-20)
(1.11599 -0.300905 -1.03871e-20)
(1.11114 -0.277498 -7.08682e-22)
(1.10775 -0.255809 -7.1808e-21)
(1.10474 -0.236698 6.35004e-21)
(1.10132 -0.21954 -8.71589e-21)
(0.352589 -0.12724 7.25138e-20)
(0.842331 -0.348862 7.91094e-22)
(1.10132 -0.468094 -3.91487e-19)
(1.19311 -0.495067 -2.14737e-20)
(1.20533 -0.476521 1.5728e-19)
(1.19143 -0.443866 1.31835e-19)
(1.17394 -0.409722 6.87488e-20)
(1.15889 -0.377818 -1.22663e-21)
(1.14685 -0.348627 1.29962e-20)
(1.13736 -0.321919 -1.07533e-21)
(1.12991 -0.297422 1.62264e-20)
(1.12418 -0.274802 3.75285e-21)
(1.12001 -0.25371 -1.85286e-23)
(1.1164 -0.234914 -4.13634e-21)
(1.11222 -0.218332 -2.52469e-21)
(0.333352 -0.107312 -1.23896e-20)
(0.82423 -0.313689 1.28799e-19)
(1.09834 -0.437154 2.12264e-19)
(1.20298 -0.472059 6.1627e-20)
(1.2214 -0.460059 -1.48391e-19)
(1.20911 -0.431576 -1.56313e-19)
(1.19121 -0.400125 5.77736e-20)
(1.17515 -0.370149 -2.19784e-20)
(1.16208 -0.342458 7.20951e-20)
(1.15163 -0.316955 -9.33901e-22)
(1.14332 -0.293436 -8.6147e-21)
(1.13679 -0.271641 -4.09844e-21)
(1.13189 -0.251203 1.10882e-20)
(1.12778 -0.23273 4.41841e-21)
(1.12293 -0.216747 4.26831e-22)
(0.312013 -0.0885627 1.85328e-19)
(0.800638 -0.278465 -1.95337e-19)
(1.08979 -0.405152 1.1164e-19)
(1.20868 -0.447815 1.37816e-19)
(1.23476 -0.442577 1.03168e-19)
(1.22505 -0.418518 3.36088e-20)
(1.20725 -0.389898 2.22234e-20)
(1.19049 -0.361918 -8.34148e-22)
(1.17656 -0.33577 -3.3049e-20)
(1.16528 -0.311508 1.42427e-20)
(1.15621 -0.288995 2.99512e-20)
(1.14897 -0.268063 8.04834e-21)
(1.14339 -0.248341 -7.55195e-21)
(1.13882 -0.230199 -5.23277e-21)
(1.13344 -0.214809 -4.02704e-21)
(0.288946 -0.0712303 -1.00112e-19)
(0.771658 -0.243638 7.10129e-20)
(1.07541 -0.372389 -5.70663e-21)
(1.20986 -0.422506 -1.47749e-19)
(1.24517 -0.424182 -3.07405e-20)
(1.23912 -0.404786 7.15084e-20)
(1.222 -0.379141 -5.31185e-20)
(1.20485 -0.353217 6.83871e-21)
(1.19025 -0.328641 -3.51965e-21)
(1.17829 -0.305643 -1.06453e-20)
(1.16857 -0.284163 -1.70822e-20)
(1.16072 -0.264111 -2.61708e-20)
(1.15451 -0.245139 -1.2262e-20)
(1.14947 -0.227353 1.4275e-20)
(1.1439 -0.212594 2.8792e-21)
(0.264564 -0.0555165 -1.24531e-19)
(0.737496 -0.209666 -1.53341e-20)
(1.05499 -0.339177 -7.37959e-20)
(1.20616 -0.396298 6.28823e-20)
(1.25233 -0.404976 -6.75824e-20)
(1.25116 -0.390467 -2.63195e-20)
(1.23542 -0.367942 7.04518e-21)
(1.21821 -0.344133 -7.18255e-21)
(1.20315 -0.321149 1.89598e-20)
(1.19064 -0.299429 8.9148e-22)
(1.18038 -0.278997 1.17078e-20)
(1.17201 -0.259825 1.45771e-20)
(1.16525 -0.241624 1.41831e-20)
(1.15974 -0.22435 -4.4398e-21)
(1.15417 -0.210126 -4.05785e-21)
(0.239311 -0.0415777 7.2329e-20)
(0.698481 -0.177008 7.56534e-20)
(1.02837 -0.305833 2.48438e-20)
(1.19721 -0.369359 -3.79335e-20)
(1.25592 -0.385046 7.32207e-21)
(1.26098 -0.375634 5.23541e-20)
(1.24742 -0.35638 -3.41819e-20)
(1.23057 -0.334747 -2.78544e-20)
(1.21524 -0.31337 -6.12419e-21)
(1.20232 -0.292932 5.34512e-21)
(1.19162 -0.27355 -2.45031e-20)
(1.18281 -0.255258 6.33974e-21)
(1.17559 -0.23784 1.3898e-20)
(1.16966 -0.221166 -3.27842e-21)
(1.16392 -0.207387 -4.36423e-21)
(0.213643 -0.0295209 -4.73838e-20)
(0.655083 -0.146118 -3.20168e-20)
(0.995453 -0.272688 -6.00417e-20)
(1.18264 -0.34186 -9.40009e-21)
(1.25556 -0.364475 -6.29046e-21)
(1.26836 -0.360344 -5.83385e-20)
(1.2579 -0.34452 1.74304e-20)
(1.24188 -0.32513 9.24004e-21)
(1.22654 -0.305372 -1.55455e-20)
(1.21334 -0.286211 -9.13143e-21)
(1.20229 -0.267875 -1.12138e-21)
(1.19312 -0.250457 -7.74599e-21)
(1.18553 -0.23382 -1.22033e-20)
(1.17922 -0.217749 -1.09463e-20)
(1.17319 -0.204393 7.38813e-21)
(0.188016 -0.0194006 -2.09847e-20)
(0.607912 -0.117424 7.56025e-21)
(0.956229 -0.240073 1.01198e-20)
(1.16207 -0.313978 1.01819e-20)
(1.25085 -0.343333 1.68423e-20)
(1.27299 -0.344637 1.1547e-20)
(1.26671 -0.332414 -3.22274e-21)
(1.2521 -0.315348 1.06416e-20)
(1.23702 -0.297221 -3.60581e-22)
(1.2237 -0.279325 -1.03374e-22)
(1.21242 -0.262022 3.96805e-21)
(1.20296 -0.245465 -1.81648e-21)
(1.19505 -0.229591 1.1712e-21)
(1.18841 -0.2141 4.75281e-21)
(1.18211 -0.201161 -3.87562e-21)
(0.162867 -0.011214 -1.25506e-20)
(0.55771 -0.0913169 -3.33846e-21)
(0.910801 -0.208333 1.46881e-20)
(1.13513 -0.285899 6.54647e-21)
(1.24129 -0.321686 1.84283e-20)
(1.27452 -0.328535 1.25501e-20)
(1.27368 -0.320092 -4.81313e-22)
(1.26116 -0.305448 1.4934e-20)
(1.24669 -0.288974 -7.30912e-21)
(1.23341 -0.272328 7.9485e-22)
(1.22199 -0.256039 4.91415e-21)
(1.21233 -0.240322 -2.25747e-21)
(1.20417 -0.225193 2.14491e-21)
(1.19726 -0.21026 7.78178e-21)
(1.19077 -0.197713 -3.01015e-21)
(0.1386 -0.00489971 -1.69737e-20)
(0.505339 -0.068132 -5.03747e-20)
(0.859425 -0.177821 -5.81653e-20)
(1.1015 -0.25782 -2.13939e-21)
(1.22638 -0.299591 -8.53991e-21)
(1.27253 -0.31204 -6.45892e-20)
(1.27855 -0.307564 3.26828e-20)
(1.26897 -0.295464 5.09397e-21)
(1.25551 -0.280677 -2.21822e-20)
(1.24249 -0.265271 -1.93203e-20)
(1.23103 -0.249971 3.48007e-21)
(1.22124 -0.235069 -1.20291e-20)
(1.2129 -0.220667 -1.27007e-20)
(1.2058 -0.206283 -1.65897e-20)
(1.19921 -0.194073 1.04043e-20)
(0.115568 -0.000341114 6.58398e-20)
(0.451757 -0.0481346 4.81074e-20)
(0.802542 -0.1489 2.09002e-20)
(1.06092 -0.229953 -3.15974e-20)
(1.20555 -0.277106 1.54593e-20)
(1.26648 -0.295136 3.40559e-20)
(1.28098 -0.294815 -2.84174e-20)
(1.27536 -0.285409 -5.74559e-20)
(1.26344 -0.272367 -8.45355e-21)
(1.25091 -0.258197 3.36125e-20)
(1.23956 -0.243862 -4.36668e-20)
(1.22972 -0.229746 1.68414e-20)
(1.22125 -0.21605 7.43252e-21)
(1.214 -0.202219 -1.05706e-21)
(1.2074 -0.190278 1.65618e-21)
(0.0940646 0.00262524 -7.66281e-20)
(0.397982 -0.0314975 -4.92211e-20)
(0.740807 -0.121945 -8.12195e-20)
(1.01324 -0.202528 7.62124e-20)
(1.1782 -0.254296 -8.69362e-20)
(1.25575 -0.277794 -2.31759e-20)
(1.28054 -0.281803 -2.64113e-21)
(1.28011 -0.275273 -1.49307e-21)
(1.2704 -0.264063 4.68252e-20)
(1.25868 -0.25114 -5.59182e-20)
(1.24757 -0.237749 4.19399e-20)
(1.23776 -0.224387 2.07083e-20)
(1.22924 -0.211373 5.27652e-20)
(1.22189 -0.19811 -5.94457e-21)
(1.21533 -0.186359 -1.62619e-20)
(0.0743121 0.0041969 1.28433e-20)
(0.345042 -0.0182816 1.37215e-20)
(0.67512 -0.0973356 -2.90712e-20)
(0.958443 -0.175805 -1.1939e-19)
(1.14374 -0.231238 -3.40911e-20)
(1.23962 -0.259974 9.19462e-20)
(1.27667 -0.268463 -7.79716e-20)
(1.2829 -0.265018 -4.27883e-20)
(1.27625 -0.255763 1.26306e-20)
(1.26576 -0.244122 -1.87609e-20)
(1.25509 -0.231664 -8.57068e-20)
(1.2454 -0.219027 -4.19759e-20)
(1.23688 -0.206659 2.98091e-21)
(1.22946 -0.193982 1.05131e-20)
(1.22297 -0.182347 9.30893e-21)
(0.0564603 0.00459042 1.43138e-19)
(0.293921 -0.00842088 -1.82162e-19)
(0.606624 -0.0754419 1.32743e-19)
(0.896764 -0.150075 7.26814e-20)
(1.10161 -0.208035 2.38677e-19)
(1.21728 -0.241637 1.30065e-20)
(1.26866 -0.254706 6.56302e-20)
(1.28327 -0.254576 1.75726e-20)
(1.28077 -0.247444 -1.50427e-19)
(1.27206 -0.23715 5.17852e-20)
(1.26208 -0.225629 3.54841e-20)
(1.25264 -0.213694 6.91171e-20)
(1.24418 -0.201931 -6.98272e-20)
(1.23672 -0.189859 -2.3229e-20)
(1.23032 -0.178268 -5.4999e-21)
(0.0405887 0.00402672 -1.90838e-20)
(0.245495 -0.00171899 2.13393e-19)
(0.536686 -0.0566008 1.8146e-19)
(0.828711 -0.125678 3.81936e-20)
(1.05139 -0.184833 -2.35717e-19)
(1.18784 -0.222754 -1.59924e-19)
(1.25565 -0.240424 5.89124e-20)
(1.28062 -0.243846 -4.44259e-20)
(1.28362 -0.23905 8.45444e-20)
(1.27746 -0.230213 2.33045e-20)
(1.26852 -0.219656 1.75463e-20)
(1.25947 -0.20841 -4.13599e-20)
(1.25116 -0.197204 2.28459e-20)
(1.24369 -0.185759 9.81076e-20)
(1.2374 -0.174146 1.1289e-19)
(0.0267149 0.00271909 1.58439e-19)
(0.200485 0.00213579 -1.75873e-19)
(0.466829 -0.0410784 -2.99706e-19)
(0.755162 -0.103005 3.08461e-20)
(0.992816 -0.161833 2.08227e-19)
(1.15039 -0.203324 2.23738e-19)
(1.23662 -0.2255 1.37231e-19)
(1.27416 -0.232698 -2.20518e-21)
(1.28433 -0.230492 3.38924e-20)
(1.28171 -0.223272 1.25413e-20)
(1.27433 -0.21374 8.78507e-20)
(1.2659 -0.203191 2.42529e-20)
(1.25783 -0.192495 1.87753e-20)
(1.2504 -0.181695 -2.48069e-20)
(1.24423 -0.170005 -3.2806e-20)
(0.0148031 0.000864969 -2.04679e-19)
(0.159422 0.0035392 1.6224e-19)
(0.398625 -0.0290218 1.59029e-19)
(0.677415 -0.0824905 -1.29552e-19)
(0.925971 -0.139316 -3.20236e-19)
(1.10409 -0.183393 -6.80111e-20)
(1.21041 -0.209824 -1.9201e-19)
(1.26287 -0.220972 7.46087e-20)
(1.28222 -0.221645 -1.18461e-20)
(1.28445 -0.216257 -9.73052e-20)
(1.27934 -0.207855 -3.94617e-20)
(1.27186 -0.19804 1.70304e-21)
(1.26419 -0.187814 -2.73714e-20)
(1.25685 -0.177678 -2.79087e-20)
(1.25083 -0.165864 3.34654e-21)
(0.00477461 -0.0013586 2.98093e-19)
(0.122631 0.00292977 -1.97002e-19)
(0.333559 -0.0204139 1.26213e-19)
(0.597183 -0.0645944 1.42304e-19)
(0.851369 -0.117657 2.76631e-19)
(1.04826 -0.163084 -2.1964e-19)
(1.17579 -0.193308 9.62777e-20)
(1.24551 -0.208491 1.12507e-19)
(1.27636 -0.212339 -1.16087e-19)
(1.28514 -0.20906 -4.90694e-20)
(1.2833 -0.201949 -1.41139e-20)
(1.27727 -0.192946 -1.86346e-20)
(1.2702 -0.183164 -8.73849e-20)
(1.26305 -0.173711 6.99922e-20)
(1.2572 -0.161737 -1.30506e-19)
(-0.00348149 -0.00379617 -1.63987e-19)
(0.0902482 0.000748899 8.17885e-21)
(0.272899 -0.0150539 8.8744e-20)
(0.516515 -0.0497403 -2.22241e-19)
(0.770103 -0.0973382 1.15009e-19)
(0.982552 -0.142622 -7.07342e-22)
(1.13149 -0.175923 -1.30022e-19)
(1.22062 -0.195078 -5.77712e-20)
(1.26554 -0.202373 8.6847e-21)
(1.28297 -0.201527 1.23855e-19)
(1.28577 -0.195931 1.5396e-19)
(1.28193 -0.187872 1.3535e-19)
(1.27581 -0.178536 2.33922e-20)
(1.269 -0.169793 -1.46842e-19)
(1.26337 -0.157637 -1.87234e-20)
(-0.0101031 -0.0063151 3.40759e-20)
(0.0622465 -0.00258884 -1.95602e-19)
(0.217594 -0.0125784 -2.98349e-19)
(0.43761 -0.0382349 2.89371e-19)
(0.683923 -0.0789368 -2.13407e-19)
(0.907157 -0.122379 1.16617e-19)
(1.07644 -0.157732 1.29159e-19)
(1.1866 -0.180582 9.3761e-20)
(1.24824 -0.191517 8.80792e-20)
(1.27682 -0.193454 2.56073e-20)
(1.28607 -0.189665 -1.03544e-19)
(1.2855 -0.18275 -1.27746e-19)
(1.28089 -0.173905 3.15127e-20)
(1.27464 -0.165909 3.62634e-20)
(1.26933 -0.153564 1.49151e-19)
(-0.0152473 -0.00880738 1.40456e-19)
(0.0384682 -0.00671618 3.88147e-19)
(0.168232 -0.0125198 -9.42498e-20)
(0.362573 -0.0301839 -1.85621e-19)
(0.59521 -0.0630708 4.25903e-19)
(0.823023 -0.102886 1.73745e-19)
(1.00995 -0.138937 3.98024e-20)
(1.14179 -0.164916 -6.12662e-20)
(1.22263 -0.179533 2.2567e-20)
(1.26519 -0.184593 -1.67972e-19)
(1.28319 -0.182958 7.82321e-20)
(1.28742 -0.177466 2.18803e-20)
(1.28516 -0.169216 -1.28249e-19)
(1.2799 -0.162035 -4.1641e-20)
(1.27505 -0.149512 -1.10712e-19)
(-0.0190808 -0.0111882 -6.0389e-20)
(0.0186604 -0.0113212 1.81497e-19)
(0.125057 -0.014377 1.74372e-19)
(0.293161 -0.0254494 -7.59701e-20)
(0.506785 -0.0502928 -3.02979e-20)
(0.732023 -0.0848375 -2.02e-19)
(0.931997 -0.119938 9.54191e-20)
(1.08473 -0.148118 -1.05479e-19)
(1.18668 -0.16622 -5.32661e-20)
(1.24616 -0.174661 1.44532e-19)
(1.27572 -0.175559 -1.37527e-19)
(1.28681 -0.171849 6.90122e-20)
(1.28818 -0.164381 1.54771e-19)
(1.28451 -0.158113 -1.80413e-19)
(1.28053 -0.14546 1.24548e-19)
(-0.0217756 -0.0133969 -1.4168e-19)
(0.00250375 -0.0161498 -5.88141e-19)
(0.0880254 -0.0176725 2.60412e-20)
(0.230621 -0.023678 -1.45818e-19)
(0.421548 -0.040958 -4.25786e-19)
(0.636967 -0.069021 1.40684e-19)
(0.843602 -0.101363 -2.65804e-19)
(1.01449 -0.13042 1.17464e-19)
(1.13829 -0.151467 1.13489e-19)
(1.21743 -0.163374 -1.69367e-19)
(1.26169 -0.167162 6.91213e-20)
(1.28232 -0.165657 2.54447e-20)
(1.28914 -0.159246 4.3512e-21)
(1.28821 -0.154072 4.91812e-20)
(1.28538 -0.141326 -3.73344e-20)
(-0.0235033 -0.0153963 8.93379e-21)
(-0.0103626 -0.0210046 3.34735e-19)
(0.0568771 -0.0219852 2.12703e-19)
(0.175641 -0.0243817 1.75537e-19)
(0.342065 -0.0351261 1.76164e-19)
(0.541354 -0.0561735 2.13891e-19)
(0.747042 -0.0840597 1.59587e-19)
(0.931119 -0.11232 -2.145e-19)
(1.07573 -0.135336 -2.97226e-19)
(1.17641 -0.150502 2.81688e-19)
(1.23862 -0.157423 3.56317e-20)
(1.27201 -0.15858 -2.57283e-20)
(1.2868 -0.153588 -1.8235e-19)
(1.2901 -0.149748 -5.33893e-20)
(1.28976 -0.137087 1.46889e-19)
(-0.0244301 -0.0171703 1.08044e-19)
(-0.0203206 -0.0257395 -4.65204e-19)
(0.0312006 -0.0269605 -4.10133e-20)
(0.128406 -0.0270291 -1.62219e-19)
(0.270245 -0.0325532 -1.19063e-19)
(0.448867 -0.0468 -8.31224e-21)
(0.645845 -0.0689831 -6.69748e-20)
(0.836105 -0.0946244 2.2957e-19)
(0.99808 -0.118178 1.75901e-19)
(1.12064 -0.135963 -1.96383e-19)
(1.20356 -0.146029 1.1158e-19)
(1.25322 -0.150227 -1.50534e-19)
(1.27929 -0.14712 1.4327e-19)
(1.28925 -0.14496 -3.39359e-20)
(1.29203 -0.132397 -1.4488e-19)
(-0.0247121 -0.0187209 -3.86339e-19)
(-0.0277567 -0.0302525 6.42948e-19)
(0.0104868 -0.032308 7.30659e-21)
(0.0887027 -0.0311092 -1.78027e-19)
(0.207202 -0.0327705 2.35457e-19)
(0.362767 -0.0410394 -6.90485e-20)
(0.544367 -0.0569865 -1.90239e-19)
(0.73262 -0.0783818 -2.13862e-19)
(0.905947 -0.100706 4.05512e-19)
(1.04834 -0.11996 -1.06874e-19)
(1.15337 -0.132761 -3.53084e-20)
(1.22274 -0.140259 1.96196e-19)
(1.26366 -0.139354 -1.44488e-19)
(1.28371 -0.139523 5.07508e-20)
(1.2925 -0.127191 -6.29227e-20)
(-0.0244922 -0.0200639 5.45133e-19)
(-0.0330482 -0.0344761 -5.97598e-19)
(-0.00582815 -0.0377909 -2.47544e-19)
(0.0560342 -0.0361614 9.76651e-20)
(0.1533 -0.0351952 -4.06315e-20)
(0.285423 -0.038649 -1.46401e-19)
(0.447031 -0.04859 1.9036e-19)
(0.625299 -0.0646791 -1.40672e-19)
(0.801965 -0.0839977 -2.32643e-19)
(0.959202 -0.103098 2.83883e-19)
(1.08547 -0.117723 -9.64632e-20)
(1.17666 -0.128273 5.33045e-20)
(1.23679 -0.13012 1.15471e-20)
(1.26996 -0.132643 1.36835e-19)
(1.28778 -0.121218 7.12963e-20)
(-0.0238973 -0.0212245 -2.24725e-19)
(-0.0365515 -0.0383669 8.79683e-20)
(-0.0183303 -0.0432144 -5.92132e-20)