/*--------------------------------*- C++ -*----------------------------------*\
  =========                 |
  \\      /  F ield         | OpenFOAM: The Open Source CFD Toolbox
   \\    /   O peration     | Website:  https://openfoam.org
    \\  /    A nd           | Version:  7
     \\/     M anipulation  |
\*---------------------------------------------------------------------------*/
FoamFile
{
    version     2.0;
    format      ascii;
    class       volScalarField;
    location    "75";
    object      p;
}
// * * * * * * * * * * * * * * * * * * * * * * * * * * * * * * * * * * * * * //

dimensions      [0 2 -2 0 0 0 0];

internalField   nonuniform List<scalar> 
14800
(
-0.243731
-0.246687
-0.247654
-0.2487
-0.249663
-0.250611
-0.251524
-0.25236
-0.25307
-0.253605
-0.253919
-0.253972
-0.253745
-0.253234
-0.252492
-0.244067
-0.246971
-0.247923
-0.248957
-0.249917
-0.250867
-0.25179
-0.252643
-0.253378
-0.253946
-0.254298
-0.254395
-0.254206
-0.253735
-0.252951
-0.244654
-0.24746
-0.248382
-0.249391
-0.250336
-0.251279
-0.252205
-0.25307
-0.253827
-0.254425
-0.254814
-0.254947
-0.254775
-0.254338
-0.253372
-0.245478
-0.248144
-0.249021
-0.249988
-0.250904
-0.251831
-0.252752
-0.253622
-0.254396
-0.25502
-0.255441
-0.255608
-0.255419
-0.255047
-0.253696
-0.246517
-0.249006
-0.24982
-0.25073
-0.251603
-0.2525
-0.253404
-0.254271
-0.255054
-0.255698
-0.256145
-0.256348
-0.256088
-0.255881
-0.253839
-0.247747
-0.250027
-0.250762
-0.251593
-0.252406
-0.253258
-0.254131
-0.254983
-0.255765
-0.25642
-0.25688
-0.25714
-0.2567
-0.256877
-0.253683
-0.249141
-0.251186
-0.251822
-0.252555
-0.253286
-0.254073
-0.254899
-0.255718
-0.256485
-0.257139
-0.25759
-0.257959
-0.257131
-0.258078
-0.253124
-0.250672
-0.252461
-0.252979
-0.253589
-0.254214
-0.254913
-0.255669
-0.256436
-0.25717
-0.257809
-0.258199
-0.258787
-0.257276
-0.259387
-0.252551
-0.252312
-0.253831
-0.25421
-0.25467
-0.255162
-0.255745
-0.256405
-0.257096
-0.257771
-0.258384
-0.258632
-0.259529
-0.257445
-0.260213
-0.251936
-0.254038
-0.25528
-0.255495
-0.255777
-0.256103
-0.25654
-0.257075
-0.257662
-0.258247
-0.25882
-0.258962
-0.259984
-0.257306
-0.261042
-0.250949
-0.255831
-0.256792
-0.256819
-0.25689
-0.257016
-0.257272
-0.25765
-0.258104
-0.258575
-0.259064
-0.259038
-0.260286
-0.256726
-0.26175
-0.249662
-0.25768
-0.258358
-0.258171
-0.257996
-0.257885
-0.257925
-0.258113
-0.258402
-0.258726
-0.259116
-0.258842
-0.26037
-0.255777
-0.262076
-0.248322
-0.259581
-0.259977
-0.259546
-0.25909
-0.258703
-0.258491
-0.258455
-0.25855
-0.258694
-0.258962
-0.258401
-0.260121
-0.254624
-0.261665
-0.247225
-0.26154
-0.261653
-0.260946
-0.260172
-0.259473
-0.258972
-0.258681
-0.258554
-0.25849
-0.258598
-0.257758
-0.259416
-0.253454
-0.260164
-0.246412
-0.263574
-0.263397
-0.262381
-0.261254
-0.260206
-0.259384
-0.258808
-0.258434
-0.258136
-0.258024
-0.256949
-0.258162
-0.252335
-0.257468
-0.245471
-0.265708
-0.265224
-0.26387
-0.262353
-0.260923
-0.259751
-0.258865
-0.258216
-0.257661
-0.257249
-0.255965
-0.256345
-0.251088
-0.253822
-0.243782
-0.267978
-0.267158
-0.265444
-0.263496
-0.261655
-0.260108
-0.25889
-0.257937
-0.257085
-0.256283
-0.254739
-0.254015
-0.24936
-0.24958
-0.240986
-0.27043
-0.269236
-0.267126
-0.264719
-0.262442
-0.260499
-0.258924
-0.257628
-0.256419
-0.255121
-0.253174
-0.251215
-0.246843
-0.24483
-0.237094
-0.273124
-0.271494
-0.268957
-0.266062
-0.263328
-0.260969
-0.259007
-0.257315
-0.255655
-0.253735
-0.251181
-0.247951
-0.243409
-0.239344
-0.232246
-0.276117
-0.273971
-0.270979
-0.267571
-0.264361
-0.261564
-0.259173
-0.257005
-0.254771
-0.25208
-0.248704
-0.244238
-0.239112
-0.233013
-0.226555
-0.279445
-0.276732
-0.273239
-0.269294
-0.265588
-0.262321
-0.259438
-0.25669
-0.25373
-0.250111
-0.245726
-0.240107
-0.234111
-0.226493
-0.219982
-0.283184
-0.279813
-0.275784
-0.271277
-0.267051
-0.263266
-0.259804
-0.256343
-0.252485
-0.247793
-0.242276
-0.235573
-0.228566
-0.220271
-0.212853
-0.287394
-0.283257
-0.27866
-0.273566
-0.268784
-0.264412
-0.260259
-0.255924
-0.250992
-0.245107
-0.238404
-0.230672
-0.222817
-0.213925
-0.20594
-0.29213
-0.28711
-0.281914
-0.276201
-0.270808
-0.26576
-0.260773
-0.255383
-0.249209
-0.242052
-0.234163
-0.225503
-0.216896
-0.207576
-0.199359
-0.297441
-0.291418
-0.285593
-0.279215
-0.273137
-0.267296
-0.261302
-0.254662
-0.247106
-0.238638
-0.229614
-0.220116
-0.210881
-0.201224
-0.192822
-0.303367
-0.296221
-0.289735
-0.282632
-0.275772
-0.268992
-0.261782
-0.253697
-0.244663
-0.23489
-0.224801
-0.21456
-0.20478
-0.194835
-0.186323
-0.309943
-0.301557
-0.294376
-0.286465
-0.278706
-0.270796
-0.262133
-0.252435
-0.241871
-0.23083
-0.219758
-0.208853
-0.198587
-0.1884
-0.179748
-0.317189
-0.307458
-0.299538
-0.290718
-0.281912
-0.272629
-0.262268
-0.250828
-0.238728
-0.226477
-0.214502
-0.202996
-0.192288
-0.181881
-0.173082
-0.325118
-0.313948
-0.305229
-0.295384
-0.285334
-0.274383
-0.262103
-0.248842
-0.235232
-0.221839
-0.209035
-0.196978
-0.185858
-0.175253
-0.166287
-0.333724
-0.321036
-0.311439
-0.300436
-0.288872
-0.275939
-0.261561
-0.246446
-0.231378
-0.216915
-0.203346
-0.190778
-0.179272
-0.168485
-0.159341
-0.342983
-0.328707
-0.318142
-0.305815
-0.292392
-0.277174
-0.260573
-0.243614
-0.227154
-0.21169
-0.197414
-0.184369
-0.172503
-0.161552
-0.152219
-0.352845
-0.336922
-0.325288
-0.31141
-0.295734
-0.277972
-0.259078
-0.240318
-0.222541
-0.206142
-0.191213
-0.177721
-0.165523
-0.154426
-0.144901
-0.363233
-0.345607
-0.332801
-0.317058
-0.298725
-0.27822
-0.25702
-0.236525
-0.21751
-0.200244
-0.18471
-0.170803
-0.158305
-0.147081
-0.137368
-0.374034
-0.354657
-0.340562
-0.322551
-0.301192
-0.277817
-0.254342
-0.232197
-0.212028
-0.19396
-0.177872
-0.163584
-0.150822
-0.139494
-0.129603
-0.385092
-0.363935
-0.348395
-0.327654
-0.302967
-0.276667
-0.250987
-0.227292
-0.206056
-0.187253
-0.170663
-0.156034
-0.14305
-0.13164
-0.121589
-0.39621
-0.373272
-0.356065
-0.332123
-0.30389
-0.274676
-0.246897
-0.221763
-0.199552
-0.180085
-0.163049
-0.148123
-0.134964
-0.123498
-0.113309
-0.407146
-0.382467
-0.363286
-0.335716
-0.30381
-0.271759
-0.242012
-0.215562
-0.192471
-0.172416
-0.154996
-0.139827
-0.126543
-0.115045
-0.104752
-0.417622
-0.391287
-0.369735
-0.338198
-0.302589
-0.267829
-0.236271
-0.208636
-0.18477
-0.16421
-0.146475
-0.131122
-0.117767
-0.10627
-0.0959184
-0.427329
-0.399459
-0.375078
-0.339348
-0.3001
-0.262808
-0.229613
-0.200937
-0.176405
-0.155431
-0.137455
-0.121986
-0.108621
-0.0971663
-0.0868258
-0.435939
-0.406676
-0.378991
-0.338959
-0.296226
-0.256619
-0.221982
-0.192415
-0.167338
-0.146046
-0.127913
-0.112399
-0.0990884
-0.0877377
-0.0775046
-0.443115
-0.412601
-0.381174
-0.336849
-0.290864
-0.249195
-0.213323
-0.183027
-0.157531
-0.136027
-0.117825
-0.102343
-0.0891532
-0.0779793
-0.0679597
-0.448526
-0.416884
-0.381364
-0.332862
-0.283921
-0.240471
-0.203587
-0.172733
-0.146956
-0.125352
-0.107174
-0.0917998
-0.0787983
-0.0678692
-0.0581365
-0.451849
-0.419169
-0.379335
-0.326869
-0.275321
-0.230395
-0.192732
-0.161501
-0.135588
-0.114004
-0.0959471
-0.080762
-0.0680171
-0.057376
-0.0479089
-0.452781
-0.41912
-0.3749
-0.31877
-0.265003
-0.218924
-0.180727
-0.149307
-0.123409
-0.101969
-0.0841346
-0.0692266
-0.0568197
-0.0464948
-0.0371168
-0.451049
-0.416443
-0.3679
-0.308492
-0.252923
-0.206027
-0.167547
-0.136132
-0.110406
-0.0892399
-0.0717347
-0.0571958
-0.0452221
-0.035258
-0.0257898
-0.44641
-0.410891
-0.358207
-0.295985
-0.239054
-0.191685
-0.153176
-0.121963
-0.0965732
-0.0758163
-0.0587608
-0.0446864
-0.0332344
-0.0236207
-0.014442
-0.43866
-0.402265
-0.345734
-0.281225
-0.223387
-0.175887
-0.137598
-0.106797
-0.0819201
-0.0617167
-0.0452397
-0.0317448
-0.020856
-0.0115801
-0.00299067
-0.427635
-0.390424
-0.330432
-0.264209
-0.205923
-0.158622
-0.120817
-0.0906672
-0.0664831
-0.0469862
-0.0311717
-0.0183611
-0.00808457
0.000768432
0.00865082
-0.413216
-0.375278
-0.312291
-0.244951
-0.186662
-0.139891
-0.102889
-0.0736398
-0.0502884
-0.0316078
-0.0165847
-0.00455039
0.00505074
0.0133829
0.0205041
-0.395327
-0.356795
-0.291341
-0.223484
-0.165607
-0.119769
-0.0839454
-0.0556777
-0.0333408
-0.0156199
-0.00150917
0.00965932
0.0185136
0.0262406
0.0325538
-0.373941
-0.334991
-0.26765
-0.199875
-0.142831
-0.098475
-0.0638526
-0.036834
-0.015682
0.000936818
0.0140188
0.0242321
0.0322662
0.0393158
0.0447694
-0.349075
-0.309934
-0.241333
-0.174236
-0.118591
-0.075804
-0.0427281
-0.017166
0.00263602
0.0180161
0.0299574
0.0391273
0.0462694
0.0525724
0.0571062
-0.320799
-0.281754
-0.212511
-0.146658
-0.0928542
-0.0519232
-0.0206485
0.00325912
0.0215545
0.0355661
0.0462591
0.0543007
0.0604818
0.0659664
0.069513
-0.289238
-0.250688
-0.18121
-0.117249
-0.0657091
-0.0269434
0.00229859
0.0243674
0.0410078
0.0535282
0.0628709
0.0697046
0.0748615
0.0794543
0.0819513
-0.254574
-0.217036
-0.147359
-0.0861949
-0.0372968
-0.000980925
0.0260178
0.0460767
0.0609238
0.0718379
0.0797337
0.0852881
0.0893685
0.0930012
0.094398
-0.217004
-0.180851
-0.111463
-0.0535657
-0.00775974
0.0258404
0.0504037
0.0682972
0.0812242
0.0904246
0.0967842
0.100999
0.103961
0.106557
0.10676
-0.17673
-0.141641
-0.0744708
-0.0196762
0.0227484
0.0533894
0.0753429
0.0909322
0.101825
0.109215
0.113961
0.11679
0.118584
0.119981
0.118735
-0.134021
-0.100222
-0.0361759
0.0152303
0.0540543
0.0815273
0.100715
0.113878
0.122637
0.128134
0.13121
0.132625
0.133153
0.133
0.12991
-0.0890886
-0.057131
0.00331936
0.0509481
0.0859732
0.110105
0.126393
0.137026
0.143567
0.147106
0.148482
0.148468
0.147581
0.145426
0.140275
-0.0423669
-0.012692
0.0437829
0.0872728
0.118317
0.138967
0.152244
0.160262
0.164517
0.166054
0.165716
0.164244
0.161788
0.157498
0.150882
0.00575103
0.0327785
0.0849348
0.123985
0.150892
0.167949
0.17813
0.183467
0.185388
0.184896
0.182828
0.179826
0.175663
0.169452
0.164396
0.0548706
0.078939
0.126478
0.160853
0.183502
0.196883
0.203908
0.206519
0.206077
0.203544
0.199721
0.1951
0.189242
0.181803
0.177515
0.104583
0.125434
0.168109
0.197636
0.215944
0.225599
0.229432
0.229297
0.226482
0.221906
0.216312
0.21005
0.20266
0.194315
0.18977
0.154475
0.171896
0.209522
0.234089
0.248014
0.253924
0.254557
0.251674
0.246494
0.239883
0.232513
0.224631
0.215848
0.206677
0.20142
0.204134
0.217951
0.250411
0.269963
0.279505
0.281682
0.279134
0.273526
0.266007
0.257383
0.248253
0.238797
0.228711
0.218671
0.212484
0.253141
0.263229
0.290472
0.305013
0.310213
0.308703
0.303019
0.29473
0.284912
0.274312
0.263457
0.252483
0.241158
0.23022
0.22301
0.301082
0.307366
0.329406
0.338997
0.339936
0.334815
0.326066
0.315161
0.303106
0.290581
0.278051
0.265618
0.253102
0.24125
0.232983
0.347549
0.35001
0.366925
0.371677
0.368475
0.359853
0.348135
0.334701
0.320484
0.306101
0.291959
0.278133
0.264477
0.251716
0.242382
0.392149
0.390822
0.402747
0.402825
0.39564
0.383656
0.369091
0.353234
0.336948
0.320789
0.305109
0.289958
0.275219
0.26157
0.251177
0.4345
0.429477
0.436608
0.432221
0.421248
0.40607
0.388803
0.370649
0.352404
0.334564
0.317431
0.301033
0.285273
0.270769
0.259339
0.474244
0.465668
0.468253
0.459658
0.445125
0.426948
0.407148
0.386842
0.366762
0.347349
0.328858
0.311299
0.294589
0.279272
0.266841
0.511042
0.499108
0.497448
0.484941
0.467108
0.446155
0.42401
0.401714
0.379938
0.359073
0.339329
0.320701
0.303118
0.287041
0.273656
0.544583
0.529534
0.523975
0.507892
0.487049
0.463564
0.439282
0.415174
0.391856
0.36967
0.348787
0.329191
0.310817
0.294039
0.279764
0.574582
0.556704
0.547638
0.528347
0.504809
0.47906
0.452868
0.427141
0.402446
0.379079
0.35718
0.336722
0.317646
0.300236
0.285145
0.600785
0.580405
0.568259
0.546161
0.520268
0.49254
0.464681
0.437541
0.411643
0.387248
0.364464
0.343256
0.32357
0.305602
0.289782
0.622971
0.600451
0.585685
0.561207
0.533319
0.503916
0.474645
0.44631
0.419396
0.39413
0.370597
0.348757
0.328557
0.310113
0.293665
0.640953
0.616683
0.599789
0.573378
0.543873
0.513112
0.482697
0.453394
0.425656
0.399686
0.375546
0.353197
0.332582
0.313749
0.296783
0.65458
0.628975
0.610463
0.582587
0.551856
0.520067
0.488786
0.458748
0.430387
0.403883
0.379285
0.35655
0.335622
0.316493
0.299129
0.663736
0.637231
0.617631
0.588769
0.557215
0.524734
0.492871
0.462341
0.433561
0.406699
0.381793
0.358799
0.337661
0.318332
0.300698
0.668345
0.641386
0.621237
0.59188
0.559911
0.527083
0.494927
0.464149
0.435158
0.408116
0.383056
0.359931
0.338688
0.319259
0.301487
0.668369
0.641408
0.621257
0.591897
0.559927
0.527098
0.49494
0.464162
0.43517
0.408128
0.383066
0.359941
0.338698
0.319268
0.301496
0.663807
0.637297
0.617689
0.588821
0.557263
0.524778
0.492912
0.462379
0.433597
0.406733
0.381825
0.358829
0.33769
0.31836
0.300723
0.654698
0.629085
0.61056
0.582674
0.551936
0.52014
0.488854
0.458812
0.430447
0.40394
0.379339
0.356601
0.33567
0.316539
0.299171
0.641118
0.616836
0.599925
0.5735
0.543984
0.513215
0.482793
0.453483
0.42574
0.399765
0.375621
0.353268
0.33265
0.313814
0.296843
0.623184
0.600647
0.585861
0.561364
0.533463
0.504048
0.474768
0.446425
0.419503
0.394232
0.370693
0.348849
0.328645
0.310197
0.293742
0.601045
0.580646
0.568473
0.546353
0.520444
0.492702
0.464831
0.437681
0.411775
0.387373
0.364581
0.343368
0.323677
0.305704
0.289877
0.57489
0.55699
0.547892
0.528575
0.505017
0.479251
0.453045
0.427307
0.402601
0.379227
0.357319
0.336854
0.317772
0.300356
0.285256
0.544939
0.529864
0.524269
0.508155
0.487289
0.463785
0.439487
0.415366
0.392036
0.36984
0.348947
0.329343
0.310962
0.294178
0.279893
0.511447
0.499484
0.497782
0.485241
0.467381
0.446406
0.424242
0.401931
0.380142
0.359266
0.339511
0.320874
0.303282
0.287198
0.273802
0.474698
0.466089
0.468627
0.459993
0.44543
0.427229
0.407408
0.387085
0.36699
0.347564
0.329062
0.311492
0.294773
0.279448
0.267004
0.435003
0.429943
0.437022
0.432593
0.421586
0.40638
0.389091
0.370918
0.352656
0.334802
0.317656
0.301247
0.285476
0.270963
0.25952
0.392701
0.391334
0.403203
0.403233
0.396011
0.383997
0.369407
0.353529
0.337225
0.32105
0.305356
0.290192
0.275441
0.261782
0.251375
0.348151
0.350569
0.367421
0.372122
0.368879
0.360225
0.348479
0.335022
0.320785
0.306385
0.292227
0.278386
0.264718
0.251947
0.242597
0.301733
0.307971
0.329944
0.339479
0.340373
0.335217
0.326438
0.315508
0.303431
0.290887
0.27834
0.265892
0.253363
0.241499
0.233216
0.253842
0.263881
0.291051
0.305532
0.310684
0.309135
0.303419
0.295103
0.285262
0.274642
0.263768
0.252778
0.241438
0.230487
0.223261
0.204885
0.218651
0.251032
0.270519
0.28001
0.282145
0.279563
0.273926
0.266381
0.257736
0.248586
0.239112
0.22901
0.218957
0.212752
0.155277
0.172643
0.210185
0.234682
0.248552
0.254417
0.255014
0.252099
0.246893
0.240259
0.232867
0.224966
0.216166
0.206981
0.201707
0.105435
0.126227
0.168814
0.198267
0.216516
0.226124
0.229918
0.229749
0.226905
0.222304
0.216688
0.210406
0.202997
0.194637
0.190075
0.0557718
0.0797798
0.127224
0.161522
0.184108
0.197439
0.204421
0.206998
0.206525
0.203965
0.200119
0.195475
0.189598
0.182143
0.177838
0.00670181
0.0336664
0.0857233
0.124692
0.151532
0.168536
0.178672
0.183972
0.18586
0.18534
0.183247
0.180222
0.176037
0.169809
0.164737
-0.0413671
-0.0117574
0.0446136
0.088017
0.118991
0.139585
0.152815
0.160793
0.165014
0.166522
0.166157
0.16466
0.162181
0.157871
0.151243
-0.0880406
-0.0561499
0.00419198
0.05173
0.0866814
0.110754
0.126993
0.137584
0.144089
0.147597
0.148945
0.148905
0.147993
0.145817
0.140651
-0.132925
-0.0991954
-0.0352613
0.0160496
0.0547964
0.0822069
0.101343
0.114463
0.123184
0.128647
0.131694
0.133083
0.133585
0.133408
0.130299
-0.175589
-0.140568
-0.0735146
-0.0188197
0.0235242
0.0540999
0.0759994
0.091543
0.102396
0.109752
0.114467
0.117268
0.119035
0.120406
0.119139
-0.215819
-0.179734
-0.110466
-0.0526725
-0.00695049
0.0265818
0.0510886
0.0689345
0.0818204
0.0909848
0.0973122
0.101498
0.104432
0.107
0.107179
-0.253346
-0.215873
-0.146326
-0.0852652
-0.0364545
-0.000208934
0.0267311
0.0467404
0.0615448
0.0724213
0.0802835
0.0858073
0.0898586
0.0934624
0.094834
-0.287969
-0.249483
-0.180138
-0.116283
-0.0648345
-0.0261408
0.0030401
0.0250574
0.0416536
0.0541351
0.0634427
0.0702445
0.0753712
0.0799338
0.082404
-0.319492
-0.280511
-0.211398
-0.145658
-0.0919482
-0.0510896
-0.0198792
0.00397527
0.0222252
0.0361964
0.0468531
0.0548615
0.0610112
0.0664643
0.0699826
-0.347732
-0.308653
-0.240181
-0.173201
-0.117655
-0.0749388
-0.0419317
-0.0164237
0.00333174
0.0186702
0.0305739
0.0397094
0.0468188
0.0530892
0.0575929
-0.372565
-0.333676
-0.266463
-0.198807
-0.141865
-0.0975777
-0.0630306
-0.0360653
-0.0149611
0.00161466
0.0146579
0.0248357
0.0328359
0.0398517
0.0452735
-0.39392
-0.355446
-0.290119
-0.222382
-0.164607
-0.118846
-0.0830986
-0.054882
-0.0325947
-0.0149181
-0.000847033
0.0102848
0.019104
0.026796
0.0330758
-0.411782
-0.3739
-0.311038
-0.243818
-0.185631
-0.138944
-0.102013
-0.0728168
-0.0495172
-0.0308818
-0.0158991
-0.00390259
0.00566246
0.0139584
0.0210444
-0.426178
-0.389019
-0.329149
-0.263047
-0.204865
-0.157649
-0.119912
-0.0898191
-0.0656866
-0.0462357
-0.0304621
-0.0176905
-0.00745094
0.00136439
0.00921042
-0.437183
-0.400837
-0.344424
-0.280036
-0.222302
-0.174886
-0.136666
-0.105923
-0.0810985
-0.0609412
-0.0445054
-0.0310509
-0.0201995
-0.010963
-0.00241071
-0.444917
-0.409443
-0.356873
-0.29477
-0.237943
-0.190658
-0.152217
-0.121063
-0.0957257
-0.0750147
-0.0580019
-0.0439686
-0.0325543
-0.0229817
-0.0138406
-0.449544
-0.414981
-0.366544
-0.307253
-0.251787
-0.204974
-0.166564
-0.135207
-0.109533
-0.088412
-0.0709499
-0.0564525
-0.0445188
-0.0345953
-0.0251673
-0.451269
-0.417648
-0.373526
-0.31751
-0.263844
-0.217847
-0.179718
-0.148356
-0.122509
-0.101115
-0.0833228
-0.0684567
-0.0560914
-0.0458094
-0.0364765
-0.450334
-0.417691
-0.377947
-0.32559
-0.27414
-0.229296
-0.191699
-0.160524
-0.13466
-0.113122
-0.0951073
-0.0799643
-0.0672619
-0.0566653
-0.0472449
-0.447012
-0.415406
-0.379966
-0.331567
-0.28272
-0.239349
-0.20253
-0.17173
-0.146001
-0.124441
-0.106305
-0.0909727
-0.078014
-0.0671301
-0.0574449
-0.441606
-0.411128
-0.37977
-0.33554
-0.289645
-0.248052
-0.212242
-0.181998
-0.156548
-0.135086
-0.116925
-0.101484
-0.0883377
-0.0772096
-0.0672391
-0.434439
-0.405211
-0.377584
-0.33764
-0.294993
-0.255458
-0.220879
-0.19136
-0.166326
-0.145074
-0.12698
-0.111507
-0.0982395
-0.0869353
-0.0767536
-0.425842
-0.398007
-0.373674
-0.338022
-0.298854
-0.261628
-0.228488
-0.199856
-0.175364
-0.154426
-0.136488
-0.121058
-0.107735
-0.0963287
-0.0860418
-0.416152
-0.389851
-0.368338
-0.33687
-0.301332
-0.266633
-0.235124
-0.207529
-0.183698
-0.163171
-0.14547
-0.130155
-0.116842
-0.105394
-0.095098
-0.405696
-0.38105
-0.3619
-0.334388
-0.302545
-0.270548
-0.240844
-0.214428
-0.191367
-0.171341
-0.153952
-0.138818
-0.125575
-0.114127
-0.103891
-0.394781
-0.371875
-0.354695
-0.3308
-0.302621
-0.273454
-0.24571
-0.220604
-0.198415
-0.178971
-0.161962
-0.147068
-0.13395
-0.122532
-0.112403
-0.383687
-0.362561
-0.347043
-0.326339
-0.301697
-0.275434
-0.249782
-0.226106
-0.204885
-0.186098
-0.169529
-0.154929
-0.141983
-0.130623
-0.120632
-0.372655
-0.353307
-0.339232
-0.321249
-0.299925
-0.276578
-0.25312
-0.230984
-0.210822
-0.192761
-0.176688
-0.162423
-0.149698
-0.138418
-0.128589
-0.36188
-0.344282
-0.331495
-0.315773
-0.297464
-0.276977
-0.255783
-0.235285
-0.216266
-0.198998
-0.18347
-0.169581
-0.157115
-0.14594
-0.136291
-0.351519
-0.335621
-0.324006
-0.310146
-0.294484
-0.276728
-0.257828
-0.239053
-0.221257
-0.204845
-0.189912
-0.176431
-0.164261
-0.153211
-0.143751
-0.341683
-0.327431
-0.316885
-0.304573
-0.291157
-0.275934
-0.259312
-0.242323
-0.22583
-0.210337
-0.196046
-0.183003
-0.171159
-0.160254
-0.150986
-0.332448
-0.319784
-0.310207
-0.299219
-0.287656
-0.274705
-0.260292
-0.24513
-0.23001
-0.215502
-0.201904
-0.189327
-0.177836
-0.167094
-0.158015
-0.323867
-0.31272
-0.304021
-0.294192
-0.284139
-0.273161
-0.26083
-0.247501
-0.233819
-0.220363
-0.207511
-0.195431
-0.184317
-0.173754
-0.164854
-0.315961
-0.306252
-0.298354
-0.289553
-0.280742
-0.271421
-0.260994
-0.249465
-0.237269
-0.22493
-0.212887
-0.201342
-0.190629
-0.18026
-0.171527
-0.308733
-0.300371
-0.293215
-0.285325
-0.27756
-0.269607
-0.26086
-0.251051
-0.240365
-0.229208
-0.218043
-0.207078
-0.196793
-0.18664
-0.178053
-0.302174
-0.295052
-0.288596
-0.281517
-0.274652
-0.267822
-0.260513
-0.252294
-0.243108
-0.233187
-0.222975
-0.21265
-0.202833
-0.192914
-0.184467
-0.296259
-0.290263
-0.284471
-0.278122
-0.272039
-0.266144
-0.26004
-0.253241
-0.245502
-0.236851
-0.227666
-0.218054
-0.208758
-0.199118
-0.19078
-0.290954
-0.285966
-0.280807
-0.275126
-0.26973
-0.264625
-0.259516
-0.253947
-0.247556
-0.240175
-0.232084
-0.223272
-0.214573
-0.205255
-0.1971
-0.286219
-0.282118
-0.277561
-0.272503
-0.26772
-0.263289
-0.259005
-0.254471
-0.24929
-0.24314
-0.236186
-0.228255
-0.220267
-0.211354
-0.203427
-0.282003
-0.278675
-0.274689
-0.270221
-0.265995
-0.262148
-0.258548
-0.254871
-0.250734
-0.245734
-0.239912
-0.232956
-0.225761
-0.217411
-0.21003
-0.278253
-0.275593
-0.272143
-0.268237
-0.264531
-0.261199
-0.258172
-0.255195
-0.251929
-0.247961
-0.243214
-0.23728
-0.231026
-0.223296
-0.216789
-0.274905
-0.272829
-0.269877
-0.266508
-0.263294
-0.260429
-0.257888
-0.25548
-0.252919
-0.24984
-0.246047
-0.241197
-0.235735
-0.22943
-0.222874
-0.271897
-0.27034
-0.267844
-0.264985
-0.262243
-0.259812
-0.257694
-0.255752
-0.253749
-0.251409
-0.248387
-0.2447
-0.239733
-0.235354
-0.228074
-0.269187
-0.268071
-0.266
-0.263625
-0.261333
-0.259311
-0.257574
-0.256021
-0.254455
-0.252712
-0.250253
-0.247769
-0.242877
-0.240465
-0.232443
-0.266719
-0.265984
-0.264304
-0.262384
-0.26052
-0.258886
-0.257497
-0.256279
-0.255061
-0.253793
-0.251702
-0.250397
-0.245129
-0.244885
-0.235869
-0.264437
-0.264047
-0.262718
-0.261222
-0.259761
-0.258492
-0.257428
-0.256506
-0.255576
-0.254683
-0.252826
-0.252579
-0.246629
-0.248841
-0.238222
-0.262296
-0.262213
-0.261227
-0.26011
-0.25902
-0.258092
-0.257329
-0.256674
-0.255995
-0.255389
-0.253726
-0.254272
-0.247698
-0.252236
-0.239524
-0.260265
-0.260475
-0.259794
-0.259022
-0.258271
-0.257654
-0.257168
-0.256755
-0.256302
-0.255909
-0.254471
-0.255431
-0.248696
-0.254721
-0.240171
-0.258318
-0.258815
-0.258404
-0.257941
-0.257495
-0.257158
-0.256921
-0.256725
-0.256478
-0.256242
-0.255077
-0.256077
-0.249798
-0.256067
-0.240802
-0.256442
-0.257221
-0.25705
-0.256861
-0.256684
-0.256593
-0.256577
-0.256572
-0.256505
-0.256393
-0.255515
-0.256316
-0.25094
-0.256404
-0.241826
-0.254633
-0.255692
-0.255731
-0.255782
-0.255837
-0.25596
-0.256132
-0.256295
-0.256381
-0.256374
-0.255749
-0.256281
-0.251938
-0.256102
-0.243196
-0.252893
-0.25423
-0.254453
-0.254711
-0.254963
-0.255267
-0.255599
-0.255902
-0.256115
-0.256202
-0.255763
-0.256091
-0.252637
-0.255527
-0.244622
-0.251236
-0.252845
-0.253228
-0.253662
-0.25408
-0.254533
-0.254997
-0.255417
-0.255734
-0.255886
-0.255593
-0.255806
-0.252982
-0.254939
-0.245866
-0.24968
-0.251551
-0.252071
-0.252654
-0.253207
-0.253783
-0.254354
-0.254868
-0.255266
-0.255479
-0.255356
-0.255303
-0.253163
-0.254423
-0.246858
-0.248248
-0.250366
-0.251002
-0.251708
-0.252372
-0.253046
-0.253703
-0.254291
-0.254753
-0.25502
-0.255
-0.254796
-0.253365
-0.25356
-0.247977
-0.246965
-0.249309
-0.250043
-0.25085
-0.251602
-0.252352
-0.253077
-0.253724
-0.254238
-0.254552
-0.254596
-0.254357
-0.253369
-0.252906
-0.249121
-0.245859
-0.248402
-0.249215
-0.250102
-0.250923
-0.251734
-0.252511
-0.253206
-0.253762
-0.254118
-0.254213
-0.253997
-0.253268
-0.252527
-0.249965
-0.244954
-0.247664
-0.248538
-0.249488
-0.250362
-0.251219
-0.252039
-0.252771
-0.253364
-0.253758
-0.253899
-0.253732
-0.253167
-0.252371
-0.250595
-0.244274
-0.247111
-0.248032
-0.249027
-0.249941
-0.250833
-0.251686
-0.25245
-0.253075
-0.253506
-0.253691
-0.253582
-0.253135
-0.252388
-0.25111
-0.243836
-0.246759
-0.24771
-0.248736
-0.249677
-0.250596
-0.251474
-0.252266
-0.252921
-0.253387
-0.253616
-0.253565
-0.253209
-0.25255
-0.251575
-0.243653
-0.246616
-0.247582
-0.248625
-0.249583
-0.25052
-0.251418
-0.252234
-0.252917
-0.253418
-0.25369
-0.253694
-0.25341
-0.252836
-0.25203
-0.252039
-0.250798
-0.249573
-0.248022
-0.24629
-0.24434
-0.2422
-0.239872
-0.237366
-0.23469
-0.231851
-0.228855
-0.22571
-0.22242
-0.218989
-0.21542
-0.211712
-0.207862
-0.203892
-0.199795
-0.195611
-0.19133
-0.186955
-0.182495
-0.177963
-0.173377
-0.168753
-0.164106
-0.159451
-0.1548
-0.150154
-0.145517
-0.140886
-0.136251
-0.131605
-0.126931
-0.122206
-0.117388
-0.112544
-0.107577
-0.10261
-0.0975938
-0.092537
-0.0874712
-0.0824314
-0.0774605
-0.0725885
-0.0678733
-0.0633443
-0.0590357
-0.0549729
-0.0511719
-0.0476386
-0.044369
-0.0413496
-0.0385597
-0.0359726
-0.0335584
-0.0312843
-0.0291165
-0.0270232
-0.0249775
-0.0229707
-0.0209883
-0.0190282
-0.0170932
-0.0151923
-0.013339
-0.0115507
-0.00984533
-0.00824286
-0.00675767
-0.0054101
-0.00419592
-0.00315116
-0.00220071
-0.00149742
-0.000653782
-0.000457774
0.000927768
-0.252715
-0.251429
-0.250193
-0.24861
-0.24681
-0.244755
-0.242473
-0.239968
-0.237251
-0.234336
-0.231235
-0.227963
-0.224537
-0.220974
-0.217288
-0.213494
-0.209606
-0.205637
-0.201596
-0.197465
-0.193352
-0.189221
-0.185071
-0.180909
-0.176746
-0.172588
-0.168445
-0.16432
-0.160211
-0.156114
-0.152016
-0.147904
-0.143756
-0.139546
-0.135258
-0.130862
-0.126324
-0.121573
-0.116765
-0.11173
-0.106561
-0.101264
-0.0958511
-0.0903578
-0.0848315
-0.0793357
-0.0739078
-0.0686123
-0.0634959
-0.0586041
-0.0539746
-0.0496349
-0.0456017
-0.0418808
-0.0384675
-0.0353478
-0.0325006
-0.0298986
-0.0275105
-0.0253028
-0.0232425
-0.0212997
-0.019453
-0.0176888
-0.0159949
-0.0143667
-0.0128048
-0.0113144
-0.00990437
-0.00858421
-0.0073655
-0.00625296
-0.00525905
-0.00436478
-0.00360248
-0.00286306
-0.00231693
-0.00147316
-0.00121172
0.000596955
-0.253537
-0.252141
-0.250952
-0.249291
-0.247421
-0.245263
-0.242843
-0.240165
-0.237244
-0.234096
-0.23074
-0.2272
-0.223503
-0.219674
-0.21574
-0.211727
-0.207662
-0.203567
-0.199473
-0.195307
-0.191273
-0.187287
-0.183356
-0.179485
-0.175678
-0.171936
-0.168259
-0.164638
-0.161055
-0.157492
-0.15392
-0.150307
-0.146617
-0.142805
-0.138848
-0.134695
-0.13032
-0.125735
-0.120856
-0.115724
-0.110337
-0.104753
-0.0989895
-0.0930825
-0.0870935
-0.0810878
-0.0751251
-0.0692763
-0.0636011
-0.0581554
-0.0529876
-0.0481351
-0.0436242
-0.0394695
-0.0356743
-0.0322315
-0.0291251
-0.0263317
-0.0238223
-0.0215644
-0.0195243
-0.0176703
-0.0159742
-0.0144166
-0.0129796
-0.0116514
-0.0104243
-0.00929503
-0.00826349
-0.00733011
-0.00649749
-0.00575951
-0.0051205
-0.0045449
-0.00406258
-0.00352732
-0.00313098
-0.00227863
-0.00193704
0.000262248
-0.254479
-0.252885
-0.251723
-0.250053
-0.2481
-0.245844
-0.243294
-0.240454
-0.23734
-0.23397
-0.230373
-0.226578
-0.222622
-0.21854
-0.214371
-0.21015
-0.205915
-0.201701
-0.19753
-0.193359
-0.189409
-0.185566
-0.181842
-0.178246
-0.174778
-0.171432
-0.168197
-0.165055
-0.161969
-0.158908
-0.155827
-0.152679
-0.149414
-0.14596
-0.142296
-0.138344
-0.134129
-0.129569
-0.124687
-0.11944
-0.113865
-0.108003
-0.101891
-0.0955824
-0.0891472
-0.0826604
-0.0761954
-0.0698306
-0.063636
-0.0576775
-0.0520119
-0.0466851
-0.0417314
-0.0371729
-0.03302
-0.029272
-0.025918
-0.0229388
-0.0203083
-0.0179956
-0.0159673
-0.0141904
-0.0126336
-0.0112703
-0.0100781
-0.00903847
-0.00813577
-0.00735808
-0.00669643
-0.00614156
-0.00568674
-0.00531401
-0.00501973
-0.00474985
-0.00453391
-0.00418535
-0.00392206
-0.00304748
-0.00260679
-6.01689e-05
-0.255523
-0.253629
-0.252516
-0.250824
-0.248812
-0.246473
-0.243806
-0.240817
-0.237525
-0.233952
-0.230131
-0.2261
-0.221903
-0.217586
-0.213198
-0.208785
-0.204391
-0.200059
-0.195797
-0.191539
-0.187788
-0.184081
-0.180548
-0.177209
-0.174058
-0.171079
-0.168257
-0.165561
-0.162931
-0.160334
-0.157703
-0.154978
-0.15209
-0.148924
-0.145499
-0.141725
-0.137672
-0.133174
-0.128233
-0.122855
-0.117075
-0.110938
-0.104493
-0.0978044
-0.0909514
-0.0840195
-0.0770926
-0.0702567
-0.0635912
-0.0571696
-0.0510559
-0.0453029
-0.039951
-0.0350288
-0.0305525
-0.0265268
-0.022946
-0.0197948
-0.0170505
-0.0146843
-0.0126638
-0.0109553
-0.00952555
-0.0083434
-0.00738062
-0.00661371
-0.0060188
-0.00557574
-0.00526668
-0.00507241
-0.00497683
-0.00494924
-0.0049787
-0.00499091
-0.00501773
-0.00482982
-0.00467509
-0.00376217
-0.00320182
-0.000357967
-0.256691
-0.254312
-0.253283
-0.251573
-0.249546
-0.247115
-0.244348
-0.24123
-0.237782
-0.234027
-0.230005
-0.225761
-0.221347
-0.216819
-0.212232
-0.207645
-0.203111
-0.198685
-0.194443
-0.190618
-0.186488
-0.18285
-0.179487
-0.176383
-0.173521
-0.170877
-0.168432
-0.166143
-0.163911
-0.161728
-0.159494
-0.157135
-0.154571
-0.151691
-0.148454
-0.144977
-0.140941
-0.136431
-0.131419
-0.125905
-0.119922
-0.113522
-0.106764
-0.0997234
-0.092488
-0.0851524
-0.0778103
-0.0705545
-0.0634722
-0.0566434
-0.0501375
-0.0440124
-0.0383137
-0.0330746
-0.0283161
-0.0240475
-0.0202673
-0.0169644
-0.0141193
-0.0117057
-0.00969246
-0.00804615
-0.00673195
-0.00571602
-0.00496437
-0.00445061
-0.00414136
-0.00400905
-0.00402731
-0.0041669
-0.00440266
-0.00469056
-0.00501337
-0.00527517
-0.00551297
-0.00545367
-0.00537751
-0.00441057
-0.00371139
-0.000623474
-0.257955
-0.254818
-0.253988
-0.25226
-0.250215
-0.247729
-0.244884
-0.241661
-0.238082
-0.234173
-0.229977
-0.225548
-0.220945
-0.21623
-0.21147
-0.20673
-0.202073
-0.197561
-0.193262
-0.189267
-0.185479
-0.181901
-0.178671
-0.175766
-0.173158
-0.170813
-0.168696
-0.166753
-0.1649
-0.163075
-0.161192
-0.159148
-0.156846
-0.154175
-0.151315
-0.147826
-0.143842
-0.139311
-0.134218
-0.128565
-0.122388
-0.115741
-0.108696
-0.101337
-0.0937598
-0.0860671
-0.078361
-0.0707406
-0.0632996
-0.0561225
-0.0492832
-0.0428433
-0.036852
-0.0313461
-0.0263503
-0.0218774
-0.0179297
-0.0144994
-0.0115701
-0.0091183
-0.00711453
-0.00552581
-0.00431644
-0.00345028
-0.00288901
-0.00260549
-0.0025548
-0.00270335
-0.00301683
-0.00345613
-0.0039876
-0.00455359
-0.00513194
-0.00560432
-0.00601544
-0.0060497
-0.00601917
-0.00498531
-0.00413193
-0.00085339
-0.258667
-0.255519
-0.254491
-0.252849
-0.250782
-0.248273
-0.245376
-0.242077
-0.238396
-0.234363
-0.230029
-0.225448
-0.220688