/*--------------------------------*- C++ -*----------------------------------*\
  =========                 |
  \\      /  F ield         | OpenFOAM: The Open Source CFD Toolbox
   \\    /   O peration     | Website:  https://openfoam.org
    \\  /    A nd           | Version:  7
     \\/     M anipulation  |
\*---------------------------------------------------------------------------*/
FoamFile
{
    version     2.0;
    format      ascii;
    class       volVectorField;
    location    "75";
    object      U;
}
// * * * * * * * * * * * * * * * * * * * * * * * * * * * * * * * * * * * * * //

dimensions      [0 1 -1 0 0 0 0];

internalField   nonuniform List<vector> 
14800
(
(-0.0027256 0.00263057 -1.5417e-20)
(-0.0137997 0.00537901 2.02646e-21)
(-0.0319007 0.00668013 8.75995e-21)
(-0.0508436 0.00714831 -4.64224e-21)
(-0.0697042 0.0071582 -1.51408e-20)
(-0.0875509 0.00694241 1.42875e-20)
(-0.10404 0.00661557 5.9269e-22)
(-0.119069 0.00621663 1.67851e-21)
(-0.132619 0.00574226 -7.92235e-21)
(-0.144689 0.00517038 -1.03047e-21)
(-0.155269 0.004477 5.93022e-21)
(-0.16436 0.00364745 5.05935e-21)
(-0.172022 0.00268948 1.89372e-20)
(-0.178435 0.00165682 -2.1048e-20)
(-0.18391 0.000528538 8.59164e-21)
(-0.00296976 0.0060204 3.23762e-20)
(-0.0141605 0.0123468 -2.0052e-20)
(-0.0321069 0.01535 -7.13084e-21)
(-0.0507786 0.0164383 1.53037e-21)
(-0.0692872 0.0164339 1.41493e-20)
(-0.0867254 0.0158696 2.80842e-20)
(-0.102758 0.01503 -2.40965e-20)
(-0.117284 0.0140386 4.30725e-21)
(-0.130284 0.0129239 2.09343e-20)
(-0.141753 0.011669 2.23444e-20)
(-0.151677 0.0102532 -2.79233e-20)
(-0.16004 0.00868127 3.03163e-20)
(-0.166861 0.00701887 -4.39486e-20)
(-0.172332 0.00549849 4.18653e-20)
(-0.176452 0.00405893 8.50235e-21)
(-0.00342248 0.00928832 5.19033e-20)
(-0.0148354 0.0191001 9.28583e-20)
(-0.032496 0.0237816 5.03899e-21)
(-0.0506544 0.0254915 -2.55193e-20)
(-0.0684877 0.0254838 -1.25626e-20)
(-0.085133 0.0245843 -4.46006e-20)
(-0.100271 0.0232461 3.14449e-20)
(-0.113803 0.0216778 3.92432e-20)
(-0.125706 0.0199408 -4.44474e-20)
(-0.135969 0.0180222 -1.76137e-20)
(-0.144565 0.0158997 5.8593e-20)
(-0.151455 0.0135875 -2.03364e-20)
(-0.156558 0.011177 1.90405e-20)
(-0.160165 0.009169 2.20267e-20)
(-0.16147 0.00720632 3.46683e-20)
(-0.00406821 0.012366 -4.40472e-20)
(-0.0158062 0.0255146 -1.53644e-19)
(-0.03306 0.0318324 7.49914e-20)
(-0.0504725 0.0341621 -7.2114e-21)
(-0.0673139 0.0341651 2.81373e-20)
(-0.0827852 0.0329486 -8.32284e-20)
(-0.0965891 0.0311313 2.87302e-21)
(-0.108629 0.029008 1.11862e-21)
(-0.118877 0.0266748 3.08676e-20)
(-0.127311 0.0241218 -3.59365e-20)
(-0.133884 0.021318 -9.8562e-20)
(-0.138543 0.0182763 -3.50731e-20)
(-0.141 0.0150386 -4.75721e-21)
(-0.141933 0.0125669 9.64791e-21)
(-0.138838 0.00968645 -3.90733e-20)
(-0.0048855 0.0151933 -9.77637e-20)
(-0.0170475 0.0314768 7.24333e-20)
(-0.0337873 0.0393677 4.41377e-21)
(-0.0502346 0.0423083 7.84611e-21)
(-0.0657771 0.0423359 -6.12506e-20)
(-0.0796977 0.0408231 4.59877e-20)
(-0.0917266 0.0385494 -1.67753e-20)
(-0.101768 0.0358971 2.64337e-20)
(-0.109785 0.0329999 -1.51457e-20)
(-0.115736 0.0298514 9.18375e-20)
(-0.119545 0.0264055 7.10901e-20)
(-0.121196 0.0226727 4.72225e-20)
(-0.119954 0.0184934 -7.37264e-20)
(-0.117571 0.0156491 1.99784e-20)
(-0.108292 0.0112671 -2.02249e-20)
(-0.00584864 0.0177214 1.62115e-22)
(-0.0185282 0.0368878 1.2596e-19)
(-0.0346629 0.0462637 -9.40039e-20)
(-0.0499411 0.0497949 7.81871e-20)
(-0.0638891 0.0498566 6.81424e-20)
(-0.0758868 0.0480671 -3.86688e-20)
(-0.0856966 0.0453601 2.67662e-20)
(-0.0932205 0.0422059 -1.07654e-19)
(-0.0984039 0.0387797 3.12458e-20)
(-0.101177 0.0350825 -7.01305e-20)
(-0.101405 0.0310473 3.643e-20)
(-0.099246 0.0267134 -8.47064e-20)
(-0.0930079 0.0214623 -2.01187e-20)
(-0.0868256 0.0184132 -4.08635e-20)
(-0.0693703 0.0119545 4.86841e-20)
(-0.00692945 0.0199141 -1.10996e-20)
(-0.0202128 0.0416659 -1.29367e-19)
(-0.035668 0.0524105 1.18991e-20)
(-0.0495894 0.0564952 1.64173e-21)
(-0.0616581 0.0565916 1.93534e-20)
(-0.0713638 0.0545403 1.70894e-19)
(-0.0785036 0.0514201 -1.35062e-20)
(-0.0829711 0.0477886 8.80921e-20)
(-0.0846823 0.0438674 1.09315e-20)
(-0.0835289 0.0396718 6.14549e-21)
(-0.0792375 0.035108 -2.70944e-20)
(-0.0724363 0.030323 6.43396e-20)
(-0.0595786 0.0239956 1.57322e-19)
(-0.0490334 0.0207513 -1.75739e-19)
(-0.021405 0.0123559 -6.20873e-20)
(-0.00809941 0.0217495 7.33705e-20)
(-0.0220631 0.0457491 1.27772e-19)
(-0.0367792 0.0577142 -3.44519e-20)
(-0.0491697 0.0622937 -5.95836e-20)
(-0.0590826 0.0624117 -5.92014e-20)
(-0.0661258 0.060105 7.85456e-21)
(-0.0701311 0.056586 5.44873e-20)
(-0.0709737 0.0524969 -1.71246e-19)
(-0.0685223 0.0481097 -2.80051e-21)
(-0.0626282 0.0434669 -5.11344e-20)
(-0.0527137 0.0384552 -1.24086e-19)
(-0.0403115 0.033331 1.26116e-19)
(-0.0190518 0.0264098 -1.71816e-19)
(-0.00291011 0.0223227 9.05439e-20)
(0.0370309 0.0128574 6.43879e-20)
(-0.0093316 0.0232202 -4.00597e-20)
(-0.0240393 0.0490963 4.75698e-20)
(-0.0379665 0.0620995 -8.55096e-20)
(-0.048661 0.0670888 7.27399e-20)
(-0.0561431 0.0671976 9.86488e-20)
(-0.0601428 0.0646305 1.17257e-19)
(-0.0605223 0.0607195 -4.73081e-20)
(-0.0571244 0.0561873 -3.67369e-20)
(-0.0497411 0.0513588 1.68972e-19)
(-0.0381931 0.046319 1.21405e-19)
(-0.0214219 0.0410287 1.13371e-19)
(-0.00205065 0.0354544 -1.66784e-19)
(0.0294883 0.0284876 4.78541e-20)
(0.0522125 0.0236538 4.70313e-20)
(0.109111 0.0135322 -1.24543e-21)
(-0.0106026 0.0243329 -1.75873e-19)
(-0.0261012 0.0516876 -2.29268e-19)
(-0.0391916 0.065511 8.58294e-20)
(-0.0480235 0.0707959 1.16163e-19)
(-0.0527897 0.0708439 -2.39679e-19)
(-0.0533391 0.0679989 -1.05973e-20)
(-0.0495532 0.0636961 -9.42123e-20)
(-0.0412227 0.0587332 2.241e-19)
(-0.028022 0.0534947 -9.92755e-20)
(-0.0097101 0.04809 -1.19892e-20)
(0.0152719 0.0426461 7.6577e-20)
(0.0430009 0.0366255 1.90693e-19)
(0.0879997 0.0299659 8.3552e-20)
(0.117021 0.0251121 -6.72874e-20)
(0.197385 0.0150687 -1.30489e-20)
(-0.0118936 0.0251064 1.22136e-19)
(-0.0282078 0.0535228 1.6425e-19)
(-0.0404032 0.0679148 -1.12819e-19)
(-0.0471907 0.0733508 -3.84559e-19)
(-0.0489278 0.0732649 -4.2309e-20)
(-0.0455697 0.0701127 1.73235e-21)
(-0.036997 0.0654158 1.26997e-19)
(-0.0229175 0.0600404 -2.82229e-19)
(-0.00285297 0.0544292 -1.27382e-20)
(0.0235213 0.048706 -1.48137e-19)
(0.0585128 0.0432438 -1.95168e-19)
(0.0959432 0.0368789 -1.25792e-19)
(0.158176 0.0312969 1.18274e-20)
(0.192948 0.0259503 -4.17668e-20)
(0.303672 0.018427 -1.27727e-19)
(-0.0131915 0.02557 6.75447e-20)
(-0.0303164 0.0546201 1.18771e-19)
(-0.0415326 0.0692985 -5.46951e-20)
(-0.046058 0.0747129 -4.96358e-20)
(-0.0443984 0.0744011 3.13565e-19)
(-0.0365911 0.0709049 -3.23502e-19)
(-0.0224821 0.0658177 1.67874e-20)
(-0.00165611 0.0600676 7.41779e-20)
(0.0265747 0.0541598 5.48111e-20)
(0.0625839 0.0482319 3.79034e-20)
(0.109697 0.0430981 6.60689e-20)
(0.15858 0.0361705 -4.96355e-20)
(0.241517 0.0332284 1.50956e-19)
(0.281927 0.0260793 1.2184e-19)
(0.428096 0.0239465 8.00749e-20)
(-0.0144882 0.0257597 2.91289e-20)
(-0.0323803 0.0550126 -2.40737e-19)
(-0.0424866 0.0696714 3.5087e-19)
(-0.0444699 0.0748687 4.34724e-19)
(-0.0389572 0.0742264 -1.46128e-19)
(-0.0260278 0.0703515 5.18848e-20)
(-0.005444 0.0648989 -1.35397e-19)
(0.0233828 0.0588589 -2.30756e-20)
(0.0614043 0.0528155 -2.55467e-19)
(0.109008 0.0468711 5.476e-20)
(0.170519 0.0426469 2.13317e-19)
(0.23327 0.0349886 -2.83196e-20)
(0.338708 0.0363662 7.03487e-20)
(0.386261 0.026615 -2.90722e-20)
(0.567625 0.0316556 8.02763e-21)
(-0.0157798 0.025715 -1.43145e-19)
(-0.0343448 0.0547439 -1.61602e-19)
(-0.0431401 0.0690634 -3.84963e-19)
(-0.0422064 0.0738356 -2.75426e-19)
(-0.0322512 0.0727557 -2.17249e-19)
(-0.0133385 0.0684848 2.46119e-19)
(0.0149182 0.0627358 4.86711e-20)
(0.0533337 0.0565687 1.06388e-19)
(0.103139 0.0506759 5.66406e-20)
(0.164698 0.0450609 -1.59485e-19)
(0.242758 0.0424285 -8.3011e-20)
(0.322446 0.0345821 2.33299e-20)
(0.448889 0.0409212 -2.98143e-19)
(0.507301 0.0295859 6.76342e-20)
(0.715086 0.0417407 -1.72694e-19)
(-0.0170646 0.025475 7.34501e-20)
(-0.0361413 0.053863 5.63516e-19)
(-0.0433279 0.067526 2.85338e-19)
(-0.0389677 0.0716636 1.3312e-19)
(-0.0237967 0.0700539 3.38475e-19)
(0.00221265 0.065409 -2.95543e-19)
(0.0396687 0.0595065 -1.22645e-19)
(0.0896468 0.0534934 -1.18259e-19)
(0.153574 0.0482035 5.66576e-19)
(0.231691 0.0435326 1.83325e-19)
(0.327884 0.0430346 -1.41907e-19)
(0.427359 0.0367025 7.66788e-20)
(0.569423 0.0469574 -1.01702e-19)
(0.64299 0.0367564 1.07154e-19)
(0.859856 0.054312 4.9907e-20)
(-0.0183406 0.0250743 -6.98726e-21)
(-0.0376825 0.052423 -3.01034e-19)
(-0.0428335 0.0651273 -2.73958e-19)
(-0.0343625 0.0684367 -9.50855e-20)
(-0.0129627 0.0662433 -1.66875e-19)
(0.0215709 0.0613148 1.71911e-19)
(0.0701293 0.0555133 8.34712e-20)
(0.134016 0.0500983 -1.26042e-19)
(0.214588 0.0460534 2.13423e-21)
(0.311638 0.043277 -9.65377e-20)
(0.426503 0.0452074 2.18822e-20)
(0.546414 0.0427519 2.99167e-20)
(0.696015 0.0548415 2.58691e-20)
(0.785897 0.048572 6.63435e-20)
(0.990454 0.0686344 -1.79851e-19)
(-0.0196019 0.0245417 -1.47705e-19)
(-0.0388601 0.0504787 1.21401e-19)
(-0.0413799 0.0619444 1.14413e-19)
(-0.0278974 0.0642757 1.43109e-20)
(0.00103593 0.0615106 1.15761e-19)
(0.0458815 0.0564926 -1.55596e-19)
(0.10782 0.0512 1.61426e-19)
(0.188201 0.0470302 2.56792e-20)
(0.287769 0.0450596 -1.82517e-19)
(0.405086 0.0453475 5.23834e-21)
(0.537551 0.0499429 -1.82361e-19)
(0.674335 0.0530345 1.65584e-19)
(0.822719 0.0650343 2.24239e-20)
(0.924007 0.0640079 3.80029e-20)
(1.09779 0.0829911 1.81005e-19)
(-0.0208333 0.0238956 4.14708e-19)
(-0.0395348 0.0480746 -1.63749e-19)
(-0.0386299 0.0580683 -8.68089e-20)
(-0.0189735 0.0593402 -1.07018e-19)
(0.0191287 0.0561117 -2.8951e-19)
(0.0764437 0.0513405 -9.55116e-20)
(0.154324 0.0471561 1.88475e-19)
(0.25372 0.0450968 -1.25973e-19)
(0.373855 0.0461763 -4.86276e-19)
(0.510778 0.0505795 1.78119e-19)
(0.657397 0.0581818 4.05096e-20)
(0.802987 0.0667855 -1.0971e-19)
(0.942146 0.0773985 6.35021e-20)
(1.04477 0.0811577 -6.08592e-20)
(1.17742 0.0954873 7.46739e-20)
(-0.0220023 0.0231367 -6.65347e-20)
(-0.0395306 0.0452468 2.14685e-19)
(-0.0341835 0.0536062 2.40701e-19)
(-0.00689656 0.053827 1.8525e-19)
(0.0423584 0.0503728 2.85501e-19)
(0.114619 0.0463645 2.52771e-19)
(0.21107 0.0441028 -2.85673e-19)
(0.331419 0.0451967 3.96281e-19)
(0.472095 0.0503221 3.11194e-19)
(0.625235 0.0593887 -2.89004e-19)
(0.779658 0.0701616 2.20374e-19)
(0.923463 0.0826131 -5.80719e-20)
(1.04685 0.0910297 -1.06425e-19)
(1.13974 0.0980927 -1.46951e-19)
(1.22991 0.104713 -7.56511e-20)
(-0.0230511 0.0222509 -1.85807e-19)
(-0.0386347 0.0420322 3.70242e-19)
(-0.0275794 0.0486741 -1.99297e-20)
(0.0091064 0.0479686 3.84782e-20)
(0.0718249 0.0446905 -5.19337e-20)
(0.161688 0.0421705 -3.90453e-21)
(0.27902 0.042849 2.43492e-19)
(0.420981 0.0481875 -1.85251e-19)
(0.579756 0.058115 1.87364e-19)
(0.742865 0.0716552 2.33196e-19)
(0.896409 0.085094 -1.50251e-19)
(1.02839 0.0989026 1.1919e-19)
(1.13163 0.104831 -4.56327e-20)
(1.20663 0.113225 1.11095e-19)
(1.25951 0.109804 5.23962e-20)
(-0.0239103 0.0212326 -2.62042e-19)
(-0.0365819 0.0384553 2.90515e-20)
(-0.0183019 0.0433944 9.90495e-20)
(0.0298579 0.0420344 -1.59414e-19)
(0.108603 0.0395282 -1.8231e-19)
(0.218651 0.039442 1.11853e-19)
(0.358304 0.0442071 -2.07932e-19)
(0.520508 0.0547009 1.63893e-19)
(0.69214 0.0696108 -6.72314e-20)
(0.856842 0.0866637 -2.55551e-19)
(1.0004 0.101467 -1.46737e-19)
(1.11353 0.114289 2.1511e-19)
(1.1949 0.117983 -9.09625e-20)
(1.24847 0.12491 -5.65916e-20)
(1.27289 0.11072 -9.71622e-20)
(-0.0245034 0.0200655 5.15993e-19)
(-0.0330687 0.0345286 -6.34314e-19)
(-0.00578877 0.0379075 -1.44926e-19)
(0.0561899 0.036333 -8.52988e-20)
(0.153634 0.0354111 5.30132e-20)
(0.28599 0.0388981 -2.10788e-19)
(0.447866 0.0488586 1.22398e-19)
(0.626399 0.0649429 6.07174e-20)
(0.803283 0.0842149 -4.03768e-19)
(0.960654 0.103218 3.29929e-19)
(1.08696 0.117686 8.62692e-20)
(1.17811 0.128046 -2.31895e-19)
(1.23814 0.129643 1.35314e-19)
(1.27116 0.131957 8.72173e-20)
(1.28881 0.120217 1.89828e-20)
(-0.0247232 0.0187196 -3.47945e-19)
(-0.0277665 0.0302789 5.77836e-19)
(0.0105449 0.0323762 5.62039e-20)
(0.0888913 0.0312175 -2.07018e-19)
(0.207589 0.0329163 2.55291e-19)
(0.363403 0.0412181 -1.54389e-19)
(0.545266 0.057185 1.65056e-20)
(0.733744 0.0785707 -1.97496e-19)
(0.907217 0.10084 3.54925e-19)
(1.04966 0.11999 -1.58195e-19)
(1.15467 0.132639 4.31797e-20)
(1.22396 0.139962 -6.73774e-20)
(1.26479 0.138842 -6.5925e-21)
(1.28471 0.138851 9.77902e-21)
(1.29335 0.126241 2.12871e-20)
(-0.0244417 0.0171682 7.48701e-20)
(-0.0203178 0.025748 -3.42568e-19)
(0.0312861 0.0269935 -2.99668e-19)
(0.128644 0.027091 7.94151e-20)
(0.270703 0.0326487 -2.07189e-19)
(0.449583 0.0469279 -1.91009e-19)
(0.646799 0.0691266 6.03898e-20)
(0.837224 0.0947481 2.82254e-19)
(0.99927 0.118236 9.34129e-20)
(1.12183 0.135914 -1.82511e-19)
(1.20469 0.145839 -4.98623e-20)
(1.25427 0.149882 2.61273e-20)
(1.28024 0.146597 1.44679e-19)
(1.29009 0.144297 -3.20551e-20)
(1.29275 0.131525 -3.86813e-20)
(-0.0235151 0.0153947 -4.10913e-20)
(-0.0103444 0.0210014 4.50469e-19)
(0.0569989 0.021994 2.11096e-19)
(0.175941 0.0244121 7.46412e-20)
(0.342606 0.035188 1.46903e-19)
(0.542146 0.0562649 2.83795e-19)
(0.748028 0.0841573 1.32574e-19)
(0.932202 0.112385 -2.92655e-19)
(1.07682 0.135328 -1.84143e-19)
(1.17746 0.150387 3.1526e-19)
(1.2396 0.157182 -3.10619e-20)
(1.27291 0.158204 -2.09555e-20)
(1.28762 0.153065 -1.84345e-19)
(1.29083 0.149111 -2.36268e-20)
(1.29039 0.136278 1.70958e-19)
(-0.0217865 0.0133962 -7.11106e-20)
(0.002541 0.0161391 -5.69668e-19)
(0.0881915 0.0176657 -4.28198e-20)
(0.230994 0.023689 -1.20268e-19)
(0.422174 0.040999 -3.25186e-19)
(0.63782 0.0690847 1.08531e-19)
(0.84459 0.101419 -2.65421e-19)
(1.01551 0.130431 1.20151e-19)
(1.13928 0.1514 -1.04085e-20)
(1.21835 0.163207 -1.79326e-19)
(1.26254 0.166884 1.16144e-19)
(1.2831 0.165264 -5.96825e-20)
(1.28985 0.158732 7.56336e-20)
(1.28885 0.153462 1.27307e-19)
(1.28594 0.140576 -2.46957e-20)
(-0.0190895 0.0111881 -4.97277e-22)
(0.0187207 0.0113057 9.41676e-20)
(0.125274 0.0143612 9.08432e-20)
(0.293611 0.0254505 -8.62521e-21)
(0.507489 0.0503212 4.5702e-20)
(0.732913 0.0848774 -3.43442e-19)
(0.932962 0.119956 8.11454e-20)
(1.08568 0.148081 -5.2156e-20)
(1.18756 0.166105 4.07628e-20)
(1.24698 0.174456 1.01668e-19)
(1.27647 0.175257 -1.23129e-19)
(1.28751 0.17145 3.10251e-20)
(1.28881 0.163883 2.72398e-20)
(1.28509 0.157533 -3.43717e-20)
(1.28103 0.144765 2.3175e-20)
(-0.0152519 0.0088074 1.65192e-19)
(0.0385554 0.00669754 2.91493e-19)
(0.168506 0.0124999 4.46841e-20)
(0.3631 0.0301818 -1.07627e-19)
(0.595976 0.0630905 3.1226e-19)
(0.823924 0.102903 2.08505e-19)
(1.01087 0.138919 -7.53743e-20)
(1.14266 0.164838 2.85057e-21)
(1.22343 0.17938 -7.12634e-20)
(1.26592 0.18436 2.01409e-20)
(1.28387 0.182642 1.6374e-20)
(1.28805 0.177069 -7.06638e-20)
(1.28573 0.168736 -1.46107e-19)
(1.28042 0.161485 9.16048e-20)
(1.2755 0.148868 -1.3803e-19)
(-0.0101016 0.00631454 -1.80669e-19)
(0.0623645 0.00256802 -9.46403e-20)
(0.217928 0.0125582 -2.53587e-19)
(0.438209 0.0382339 4.00105e-19)
(0.684729 0.0789489 -3.4866e-19)
(0.908047 0.122374 1.42414e-19)
(1.07732 0.157682 8.8401e-20)
(1.1874 0.18047 9.78169e-20)
(1.24896 0.191335 6.09863e-20)
(1.27748 0.193203 -1.20448e-20)
(1.28668 0.189343 -5.96426e-20)
(1.28607 0.182359 -1.4063e-19)
(1.28142 0.173445 7.36406e-20)
(1.27512 0.165389 6.93357e-20)
(1.26975 0.152966 1.47881e-19)
(-0.0034718 0.00379445 -1.61934e-19)
(0.0904005 -0.000771128 7.87833e-20)
(0.273294 0.0150365 8.07174e-20)
(0.517174 0.0497421 -1.75654e-19)
(0.770931 0.0973421 6.78462e-20)
(0.983417 0.142597 -6.003e-20)
(1.13231 0.175846 -9.23844e-20)
(1.22135 0.19494 -1.04711e-19)
(1.2662 0.202173 3.90195e-20)
(1.28357 0.201266 1.19005e-19)
(1.28633 0.19561 1.71569e-19)
(1.28245 0.187492 6.59782e-20)
(1.2763 0.178098 -4.37288e-20)
(1.26944 0.169302 -4.68321e-20)
(1.26375 0.157083 -3.93889e-20)
(0.00479446 0.00135529 1.56319e-19)
(0.12282 -0.00295247 -7.79541e-20)
(0.334013 0.0204018 4.4802e-20)
(0.597889 0.0645993 2.54359e-19)
(0.8522 0.117652 2.43475e-19)
(1.04909 0.163039 -2.26136e-19)
(1.17655 0.193208 1.10598e-19)
(1.24618 0.208333 1.28211e-19)
(1.27696 0.212126 -2.18206e-19)
(1.2857 0.208795 4.48991e-20)
(1.28382 0.201634 -9.9009e-20)
(1.27776 0.19258 1.58512e-20)
(1.27066 0.182748 -4.95078e-20)
(1.26347 0.173249 8.91067e-20)
(1.25756 0.161222 -9.64319e-20)
(0.014835 -0.000869988 -1.41991e-19)
(0.15965 -0.00356101 9.61628e-20)
(0.399134 0.0290168 1.29971e-19)
(0.678152 0.0824977 -3.36416e-20)
(0.926791 0.139302 -3.07338e-19)
(1.10488 0.183332 -1.09409e-19)
(1.21112 0.209707 -1.70913e-19)
(1.26349 0.220801 7.29538e-20)
(1.28278 0.221426 -1.02098e-20)
(1.28498 0.215994 -1.156e-19)
(1.27984 0.207548 -1.06303e-19)
(1.27232 0.197689 1.98822e-20)
(1.26461 0.18742 4.02468e-20)
(1.25724 0.177243 -8.18755e-20)
(1.25116 0.165386 4.14877e-20)
(0.0267604 -0.00272564 6.06422e-20)
(0.200755 -0.00215486 1.4528e-21)
(0.467386 0.0410818 -3.90983e-19)
(0.755917 0.103013 -2.81316e-20)
(0.993615 0.16181 2.20377e-19)
(1.15114 0.20325 2.22967e-19)
(1.23728 0.225372 1.52567e-19)
(1.27475 0.232521 -2.80781e-20)
(1.28487 0.230273 4.66786e-20)
(1.2822 0.223013 -1.48915e-21)
(1.27479 0.213443 8.43637e-20)
(1.26633 0.202856 3.30393e-20)
(1.25824 0.192123 7.14732e-20)
(1.25076 0.181288 -5.3352e-20)
(1.24455 0.169561 -3.9898e-20)
(0.0406492 -0.00403434 -1.07903e-20)
(0.245805 0.00170484 1.11143e-19)
(0.537283 0.0566131 2.05525e-19)
(0.829471 0.125687 6.91345e-20)
(1.05216 0.184802 -1.98118e-19)
(1.18854 0.22267 -2.4782e-19)
(1.25627 0.240288 1.01509e-19)
(1.28118 0.243667 -6.1389e-20)
(1.28413 0.238833 1.73537e-19)
(1.27793 0.229962 4.75721e-21)
(1.26897 0.219372 -4.38348e-20)
(1.25989 0.208092 -1.65618e-20)
(1.25155 0.196854 8.05016e-20)
(1.24404 0.185377 7.09272e-20)
(1.2377 0.173734 7.5988e-20)
(0.0565368 -0.00459837 1.60229e-19)
(0.29427 0.00841398 -1.7179e-19)
(0.607251 0.0754631 1.0825e-19)
(0.897519 0.150084 1.52194e-19)
(1.10236 0.207999 1.31532e-19)
(1.21795 0.241547 5.29631e-20)
(1.26925 0.254567 2.82438e-20)
(1.2838 0.254398 -1.09711e-20)
(1.28125 0.247233 -7.96203e-20)
(1.27252 0.236909 2.9901e-20)
(1.26251 0.225358 7.14435e-20)
(1.25303 0.213394 2.91184e-20)
(1.24455 0.201601 -2.77731e-20)
(1.23705 0.189502 -2.94454e-20)
(1.2306 0.177885 -3.57144e-20)
(0.0744057 -0.00420422 -8.60753e-20)
(0.345428 0.0182842 6.23255e-20)
(0.675768 0.0973654 -6.63366e-21)
(0.959187 0.175814 -1.60202e-19)
(1.14445 0.231198 -4.18661e-20)
(1.24025 0.259881 9.38147e-20)
(1.27723 0.268325 -8.34357e-20)
(1.2834 0.264845 5.61304e-21)
(1.27672 0.255561 -5.14326e-21)
(1.2662 0.243892 -2.74758e-20)
(1.2555 0.231407 -4.53892e-20)
(1.24578 0.218745 -6.41189e-20)
(1.23723 0.206351 -2.4394e-20)
(1.22977 0.193649 4.24703e-20)
(1.22324 0.181992 1.01495e-20)
(0.0941758 -0.00263078 -1.11142e-19)
(0.398401 0.0315114 -1.41477e-20)
(0.741468 0.121983 -7.07561e-20)
(1.01396 0.202539 6.6363e-20)
(1.17888 0.254255 -7.78692e-20)
(1.25635 0.277701 -3.38833e-20)
(1.28108 0.281669 8.7409e-21)
(1.2806 0.275108 -1.32651e-20)
(1.27085 0.263871 2.63786e-20)
(1.25911 0.250923 2.43044e-22)
(1.24797 0.237508 1.80579e-20)
(1.23813 0.224122 3.1804e-20)
(1.22958 0.211084 3.70824e-20)
(1.22219 0.197799 -1.66368e-20)
(1.21559 0.18603 -1.22308e-20)
(0.115697 0.000338644 6.70625e-20)
(0.452205 0.0481612 7.07501e-20)
(0.803208 0.148946 2.4756e-20)
(1.06163 0.229965 -3.89883e-20)
(1.2062 0.277066 8.60323e-21)
(1.26705 0.295047 5.91103e-20)
(1.28149 0.294687 -4.04725e-20)
(1.27583 0.285253 -3.522e-20)
(1.26388 0.272187 -1.14277e-20)
(1.25132 0.257994 7.01523e-21)
(1.23994 0.243636 -3.92325e-20)
(1.23007 0.229498 8.33711e-21)
(1.22157 0.215781 2.19258e-20)
(1.21429 0.201931 -8.82471e-21)
(1.20765 0.189973 -6.85793e-21)
(0.138746 0.00490161 -4.40493e-20)
(0.50581 0.0681724 -3.00973e-20)
(0.86009 0.177875 -5.86228e-20)
(1.10219 0.257836 -9.46538e-21)
(1.22701 0.299553 -6.14046e-21)
(1.27307 0.311956 -6.43437e-20)
(1.27904 0.307445 2.03028e-20)
(1.26942 0.295318 1.23039e-20)
(1.25593 0.280509 -2.02461e-20)
(1.24288 0.265082 -1.22029e-20)
(1.2314 0.249761 -4.56452e-22)
(1.22158 0.234839 -1.15895e-20)
(1.21321 0.220417 -1.76445e-20)
(1.20607 0.206016 -1.5503e-20)
(1.19945 0.193792 1.09602e-20)
(0.16303 0.0112215 -2.03165e-20)
(0.558199 0.0913715 7.40804e-21)
(0.911459 0.208396 9.97243e-21)
(1.13579 0.28592 1.02685e-20)
(1.24189 0.321653 1.74062e-20)
(1.27505 0.328458 1.21852e-20)
(1.27416 0.319983 -3.39767e-21)
(1.2616 0.305314 1.17236e-20)
(1.2471 0.288819 -6.09596e-22)
(1.2338 0.272153 -7.29834e-23)
(1.22235 0.255845 4.62464e-21)
(1.21266 0.240109 -2.14763e-21)
(1.20447 0.224962 1.45906e-21)
(1.19753 0.210013 5.97551e-21)
(1.191 0.197453 -4.77819e-21)
(0.188195 0.0194149 -1.29869e-20)
(0.608414 0.117494 -3.33422e-21)
(0.956876 0.240145 1.48011e-20)
(1.16271 0.314005 6.44048e-21)
(1.25142 0.343307 1.77027e-20)
(1.27349 0.344569 1.17793e-20)
(1.26717 0.332315 -3.79756e-22)
(1.25252 0.315226 1.34543e-20)
(1.23742 0.29708 -6.59458e-21)
(1.22407 0.279164 7.24772e-22)
(1.21276 0.261843 4.13173e-21)
(1.20328 0.245268 -1.83436e-21)
(1.19534 0.229377 1.74155e-21)
(1.18867 0.213872 6.09885e-21)
(1.18233 0.200922 -2.16762e-21)
(0.213836 0.0295429 -1.88031e-20)
(0.655593 0.146202 -5.28682e-20)
(0.996087 0.272768 -5.89918e-20)
(1.18326 0.341893 -2.16323e-21)
(1.25611 0.364457 -8.5767e-21)
(1.26885 0.360285 -5.78423e-20)
(1.25835 0.344434 2.78778e-20)
(1.24229 0.325022 2.67821e-21)
(1.22692 0.305245 -1.688e-20)
(1.2137 0.286065 -1.45419e-20)
(1.20263 0.267711 1.99501e-21)
(1.19343 0.250276 -7.77369e-21)
(1.18581 0.233623 -8.22095e-21)
(1.17947 0.21754 -1.12897e-20)
(1.17341 0.204172 6.56322e-21)
(0.239517 0.0416081 7.04912e-20)
(0.698995 0.177106 5.11954e-20)
(1.02899 0.305923 2.14568e-20)
(1.1978 0.3694 -2.98215e-20)
(1.25645 0.385037 1.36277e-20)
(1.26146 0.375586 3.07333e-20)
(1.24786 0.356305 -2.31657e-20)
(1.23097 0.334652 -4.3671e-20)
(1.21562 0.313256 -2.76446e-21)
(1.20267 0.2928 2.38758e-20)
(1.19195 0.273402 -2.66875e-20)
(1.18311 0.255093 1.11606e-20)
(1.17586 0.237661 5.06039e-21)
(1.16991 0.220975 1.16092e-21)
(1.16414 0.207185 -1.07298e-22)
(0.264782 0.055556 -8.57106e-20)
(0.738009 0.209778 -5.36355e-20)
(1.05559 0.339275 -8.32666e-20)
(1.20673 0.396347 7.22799e-20)
(1.25284 0.404976 -7.42168e-20)
(1.25162 0.390432 -1.70121e-20)
(1.23584 0.367881 -1.26258e-21)
(1.21861 0.344052 1.31557e-21)
(1.20352 0.321049 3.1014e-20)
(1.19098 0.299312 -3.17588e-20)
(1.1807 0.278864 2.52271e-20)
(1.1723 0.259676 9.1428e-21)
(1.16551 0.241461 2.08415e-20)
(1.15998 0.224176 1.40112e-23)
(1.15438 0.209941 -5.42131e-21)
(0.289172 0.0712793 1.21175e-20)
(0.772166 0.243763 1.55243e-20)
(1.07599 0.372498 -2.82239e-20)
(1.21041 0.422564 -1.08975e-19)
(1.24566 0.424194 -2.63684e-20)
(1.23956 0.404763 6.69948e-20)
(1.22242 0.379093 -5.02613e-20)
(1.20523 0.35315 -2.30761e-20)
(1.19061 0.328554 6.99983e-21)
(1.17863 0.30554 -6.10909e-21)
(1.16888 0.284044 -3.33334e-20)
(1.16101 0.263977 -1.55878e-20)
(1.15477 0.244992 -3.01478e-21)
(1.1497 0.227196 4.26203e-21)
(1.1441 0.212426 2.96976e-21)
(0.312246 0.0886214 1.64509e-19)
(0.801139 0.278602 -2.04243e-19)
(1.09035 0.40527 1.36633e-19)
(1.20921 0.447883 6.87301e-20)
(1.23524 0.4426 1.88586e-19)
(1.22548 0.418507 4.0085e-21)
(1.20765 0.389864 4.379e-20)
(1.19086 0.361865 1.16375e-20)
(1.17691 0.335697 -6.62987e-20)
(1.16561 0.311418 2.31064e-20)
(1.15651 0.28889 1.73757e-20)
(1.14925 0.267944 1.95985e-20)
(1.14364 0.248209 -1.62392e-20)
(1.13904 0.230057 -2.20561e-21)
(1.13364 0.214657 6.77654e-22)
(0.33359 0.107381 -2.19295e-20)
(0.824721 0.313838 2.37905e-19)
(1.09889 0.437281 1.76398e-19)
(1.20349 0.472137 2.84215e-20)
(1.22186 0.460093 -1.75081e-19)
(1.20953 0.431578 -1.00948e-19)
(1.1916 0.400103 2.95443e-20)
(1.17552 0.370109 -1.58366e-20)
(1.16242 0.342399 3.62454e-20)
(1.15194 0.316879 7.55634e-21)
(1.14361 0.293346 7.41574e-21)
(1.13706 0.271536 -9.76046e-21)
(1.13214 0.251086 3.215e-21)
(1.12799 0.232602 7.55058e-21)
(1.12312 0.216611 5.41126e-22)
(0.35283 0.127318 1.84168e-19)
(0.84281 0.349023 -1.96178e-19)
(1.10184 0.468232 -2.94444e-19)
(1.1936 0.495156 2.05782e-20)
(1.20577 0.476568 1.38262e-19)
(1.19183 0.443881 1.24531e-19)
(1.17432 0.409714 5.64816e-20)
(1.15924 0.377792 5.83289e-21)
(1.14718 0.348581 5.59544e-21)
(1.13766 0.321857 -2.40332e-22)
(1.13019 0.297345 1.32621e-20)
(1.12444 0.274711 4.59766e-22)
(1.12024 0.253606 -3.62424e-21)
(1.11661 0.2348 -2.91975e-21)
(1.11241 0.218211 -2.58425e-21)
(0.369643 0.14816 -2.37744e-19)
(0.855396 0.383722 1.80545e-19)
(1.09951 0.497831 1.53634e-19)
(1.17986 0.516771 -9.93658e-20)
(1.1872 0.491908 -1.92762e-19)
(1.1725 0.455307 -3.72952e-20)
(1.15589 0.418589 -7.92739e-20)
(1.14209 0.384819 3.03463e-20)
(1.13123 0.354162 -5.65626e-21)
(1.12278 0.326288 -1.18567e-20)
(1.11626 0.300841 -4.70512e-21)
(1.11139 0.27742 -3.86753e-21)
(1.10798 0.255718 -5.44174e-21)
(1.10495 0.236598 3.21054e-21)
(1.10151 0.219432 -4.25838e-21)
(0.383763 0.169611 3.3749e-19)
(0.862546 0.417516 -2.14136e-19)
(1.09218 0.525804 1.09976e-19)
(1.16256 0.536819 9.85132e-20)
(1.16633 0.505992 1.62907e-19)
(1.15164 0.465736 -8.91652e-20)
(1.13643 0.426624 2.88786e-20)
(1.12409 0.391094 2.49699e-20)
(1.11456 0.359079 -1.48183e-20)
(1.10731 0.330105 1.86563e-21)
(1.10186 0.303774 3.81179e-21)
(1.09796 0.279622 -3.08306e-21)
(1.09538 0.257382 5.56072e-21)
(1.09302 0.237964 -1.09074e-20)
(1.09042 0.220248 2.7942e-20)
(0.394983 0.191357 -1.87099e-19)
(0.864394 0.450008 1.20643e-20)
(1.08018 0.551891 7.14789e-20)
(1.14201 0.555146 -1.45842e-19)
(1.14334 0.518684 5.26719e-20)
(1.12949 0.475055 1.42404e-20)
(1.11595 0.433704 -3.46672e-20)
(1.10525 0.396546 -1.25091e-20)
(1.09723 0.363239 7.85404e-21)
(1.09131 0.333243 6.88913e-22)
(1.08702 0.306092 -1.04466e-20)
(1.08416 0.281273 -2.41619e-20)
(1.08247 0.258554 -7.23348e-21)
(1.08086 0.238862 3.25037e-20)
(1.07917 0.220649 9.44959e-21)
(0.403158 0.213072 3.49361e-20)
(0.861132 0.480819 -1.88044e-19)
(1.06385 0.575849 -2.34195e-19)
(1.1185 0.571606 1.67148e-19)
(1.11853 0.529857 -8.22096e-20)
(1.10609 0.483131 4.38902e-20)
(1.09445 0.439743 1.64552e-20)
(1.08563 0.401063 2.00055e-21)
(1.07928 0.366569 2.65178e-21)
(1.0748 0.335638 -6.98293e-21)
(1.07178 0.307741 1.06953e-20)
(1.07003 0.28233 1.95767e-20)
(1.06929 0.259198 -1.01113e-20)
(1.06847 0.23926 -8.50334e-21)
(1.06779 0.220621 -4.96578e-20)
(0.408205 0.23443 1.39192e-19)
(0.853011 0.509593 3.49235e-19)
(1.04355 0.597447 -5.62688e-20)
(1.09232 0.586017 -1.04102e-19)
(1.09205 0.539418 1.40711e-19)
(1.08145 0.489844 3.51318e-20)
(1.07207 0.444624 -5.42565e-21)
(1.06532 0.404564 -7.37754e-21)
(1.06076 0.368996 -1.00798e-21)
(1.05784 0.337227 2.5445e-20)
(1.05619 0.308673 -1.64563e-20)
(1.05563 0.282753 -5.62211e-21)
(1.05588 0.259278 3.91424e-20)
(1.05591 0.239125 1.38714e-20)
(1.05631 0.22015 4.43572e-20)
(0.410112 0.255107 -6.21457e-20)
(0.840365 0.536027 1.27806e-19)
(1.01956 0.616443 1.06611e-19)
(1.06373 0.598228 -5.01791e-20)
(1.06405 0.547214 -2.95923e-20)
(1.05577 0.495109 -1.59202e-20)
(1.04889 0.448252 -1.70737e-20)
(1.04437 0.406966 5.32435e-21)
(1.04174 0.370452 1.301e-20)
(1.0405 0.337954 -3.48507e-20)
(1.0403 0.308838 4.10573e-20)
(1.041 0.282503 -2.30744e-20)
(1.04227 0.258756 -5.75607e-20)
(1.0432 0.238419 7.58282e-20)
(1.04476 0.219213 -5.47351e-20)
(0.40895 0.274779 -1.19767e-19)
(0.823597 0.559911 -4.27141e-19)
(0.992056 0.632564 1.33425e-20)
(1.03303 0.608081 -5.1213e-20)
(1.03472 0.553131 -6.0135e-20)
(1.02916 0.498814 1.63346e-20)
(1.025 0.450534 2.44926e-20)
(1.02287 0.408192 -2.38073e-20)
(1.0223 0.370873 -2.67555e-20)
(1.02283 0.337766 4.87527e-20)
(1.02417 0.308194 -2.30741e-20)
(1.02618 0.281543 -1.27542e-20)
(1.02851 0.2576 -5.05888e-21)
(1.03039 0.237101 -2.12889e-20)
(1.03315 0.217789 1.89377e-20)
(0.404858 0.293094 1.11725e-20)
(0.803012 0.581079 2.20604e-19)
(0.961371 0.645671 8.1971e-20)
(1.00053 0.615356 3.34499e-20)
(1.00424 0.557062 9.44932e-21)
(1.00176 0.500869 -2.71772e-20)
(1.00052 0.451389 -2.79072e-20)
(1.00091 0.408172 5.8484e-20)
(1.0025 0.370199 1.06473e-19)
(1.0049 0.336613 -1.10081e-19)
(1.00786 0.3067 -1.46215e-20)
(1.01124 0.279844 1.1834e-20)
(1.01465 0.255783 9.18103e-20)
(1.01751 0.235135 2.89477e-20)
(1.02154 0.21587 -8.34221e-20)
(0.397984 0.309696 6.58162e-20)
(0.778614 0.599065 -2.07795e-19)
(0.928247 0.655907 -2.34347e-20)
(0.966542 0.619934 -2.23601e-20)
(0.972829 0.558891 2.17046e-20)
(0.973702 0.501184 -1.54064e-20)
(0.975545 0.450742 1.05252e-20)
(0.97858 0.406843 -7.93667e-20)
(0.982431 0.368379 -5.78064e-20)
(0.986781 0.334449 7.86175e-20)
(0.991439 0.304319 -5.72721e-20)
(0.996221 0.277377 7.88527e-20)
(1.00074 0.253286 -7.47241e-20)
(1.00467 0.232502 2.18466e-20)
(1.01016 0.213437 8.12228e-20)
(0.38839 0.324409 -1.56611e-19)
(0.750633 0.613391 2.21933e-19)
(0.893104 0.663036 -4.79453e-21)
(0.931323 0.621868 1.62817e-20)
(0.940662 0.55854 -4.50455e-20)
(0.945133 0.49968 1.71934e-20)
(0.950199 0.44853 7.32658e-20)
(0.955979 0.404152 9.79393e-20)
(0.962175 0.365366 -2.02045e-19)
(0.968551 0.331234 5.90659e-20)
(0.974959 0.301012 1.63815e-20)
(0.981176 0.274104 -1.08512e-19)
(0.986878 0.250077 8.63171e-20)
(0.992147 0.229197 -2.96372e-20)
(0.999373 0.210508 3.77998e-20)
(0.376226 0.337031 1.7924e-19)
(0.719817 0.624068 -1.23495e-19)
(0.856187 0.666814 1.14683e-20)
(0.895124 0.621085 -5.00942e-22)
(0.907937 0.555945 -3.82102e-21)
(0.916201 0.49629 7.26071e-20)
(0.924605 0.444696 -9.89556e-20)
(0.933213 0.400052 8.48503e-20)
(0.941822 0.361122 1.22747e-19)
(0.950281 0.326937 -1.72323e-19)
(0.95847 0.296747 5.3472e-20)
(0.966143 0.269969 -2.77828e-20)
(0.97317 0.246059 -6.74167e-21)
(0.980201 0.225127 -9.09397e-20)
(0.989271 0.207285 -4.78948e-20)
(0.361688 0.347287 -4.70684e-20)
(0.686635 0.630944 4.44819e-20)
(0.817826 0.667127 3.13925e-20)
(0.858205 0.61752 1.34566e-20)
(0.874849 0.551053 1.12522e-19)
(0.887061 0.490961 -1.06172e-19)
(0.89889 0.439196 1.40449e-19)
(0.91039 0.394507 -1.11871e-19)
(0.921466 0.355617 1.30038e-19)
(0.932044 0.321535 1.47378e-19)
(0.942023 0.291507 -2.58147e-20)