/*--------------------------------*- C++ -*----------------------------------*\
  =========                 |
  \\      /  F ield         | OpenFOAM: The Open Source CFD Toolbox
   \\    /   O peration     | Website:  https://openfoam.org
    \\  /    A nd           | Version:  7
     \\/     M anipulation  |
\*---------------------------------------------------------------------------*/
FoamFile
{
    version     2.0;
    format      ascii;
    class       volVectorField;
    location    "20";
    object      U;
}
// * * * * * * * * * * * * * * * * * * * * * * * * * * * * * * * * * * * * * //

dimensions      [0 1 -1 0 0 0 0];

internalField   nonuniform List<vector> 
1360
(
(1.22124 0.00154735 8.97467e-28)
(1.21802 0.00102794 -8.97467e-28)
(1.21539 0.000653891 0)
(1.21339 0.000390136 0)
(1.21205 0.000203512 9.47175e-28)
(1.21137 6.27015e-05 -9.53172e-28)
(0.956289 0.065202 0)
(1.04897 0.0582394 0)
(1.12194 0.0492276 3.07355e-11)
(1.17468 0.0403165 -3.07355e-11)
(1.20956 0.0322622 0)
(1.23032 0.0254362 0)
(1.24091 0.0198856 1.24846e-27)
(1.2447 0.0154741 -1.24846e-27)
(1.24428 0.0120054 -1.05182e-27)
(1.24147 0.00928476 1.05182e-27)
(1.23748 0.00714633 0)
(1.23307 0.00545994 0)
(1.22868 0.00412781 -2.24916e-11)
(1.22457 0.00307709 2.24916e-11)
(1.2209 0.00225219 0)
(1.21776 0.00160844 0)
(1.21519 0.00110767 2.0842e-11)
(1.21324 0.000715423 -2.0842e-11)
(1.21193 0.000399124 0)
(1.21127 0.000127979 0)
(0.953159 0.0655076 0)
(1.04486 0.0588382 0)
(1.11749 0.0501593 0)
(1.17043 0.041488 0)
(1.20581 0.0335736 0)
(1.22719 0.0268042 0)
(1.23838 0.0212509 0)
(1.24269 0.0167982 0)
(1.24269 0.0132641 0)
(1.24022 0.0104627 0)
(1.23649 0.00823333 0)
(1.23228 0.00644863 0)
(1.22805 0.00501242 -4.4593e-11)
(1.22407 0.00385284 4.4593e-11)
(1.2205 0.00291505 0)
(1.21744 0.00215507 0)
(1.21493 0.00153541 4.14952e-11)
(1.21303 0.00102228 -4.14952e-11)
(1.21175 0.000583754 -1.29913e-27)
(1.21111 0.000189608 1.30736e-27)
(0.950183 0.0657119 0)
(1.04092 0.0593197 0)
(1.11319 0.0509599 0)
(1.16627 0.0425247 0)
(1.20211 0.0347543 0)
(1.22407 0.0280496 0)
(1.23584 0.0225031 0)
(1.24065 0.018019 0)
(1.24107 0.0144293 0)
(1.23892 0.0115567 0)
(1.23545 0.00924553 0)
(1.23144 0.00737142 0)
(1.22736 0.00583974 -2.20845e-11)
(1.22351 0.00457963 2.20845e-11)
(1.22004 0.00353703 -8.80842e-28)
(1.21706 0.00266865 8.80842e-28)
(1.21462 0.00193771 4.1267e-11)
(1.21276 0.00131112 -4.1267e-11)
(1.21151 0.000757634 0)
(1.21088 0.000247665 0)
(0.947351 0.0658221 0)
(1.03714 0.0596925 0)
(1.10902 0.0516386 0)
(1.16221 0.0434354 0)
(1.19847 0.035812 0)
(1.22098 0.0291789 0)
(1.23329 0.0236478 0)
(1.23859 0.0191414 0)
(1.23941 0.0155051 0)
(1.23759 0.01257 0)
(1.23437 0.0101858 0)
(1.23055 0.00823064 0)
(1.22663 0.00661166 0)
(1.2229 0.00525899 0)
(1.21953 0.00411931 0)
(1.21662 0.00315009 0)
(1.21425 0.00231523 2.0501e-11)
(1.21243 0.00158238 -2.0501e-11)
(1.21121 0.000921021 0)
(1.2106 0.000302234 0)
(0.944657 0.0658453 0)
(1.03351 0.0599648 0)
(1.10499 0.0522041 0)
(1.15825 0.0442283 0)
(1.19488 0.036754 0)
(1.21791 0.0301984 0)
(1.23075 0.0246905 0)
(1.23652 0.0201701 0)
(1.23773 0.0164955 0)
(1.23622 0.0135063 0)
(1.23325 0.0110569 0)
(1.22962 0.00902865 0)
(1.22586 0.00733012 -2.16155e-11)
(1.22225 0.00589246 2.16155e-11)
(1.21897 0.00466314 0)
(1.21614 0.00360032 0)
(1.21382 0.00266866 8.44799e-28)
(1.21205 0.00183654 -8.44799e-28)
(1.21086 0.00107419 9.25526e-28)
(1.21026 0.000353405 -9.31386e-28)
(0.942092 0.0657881 -2.87398e-27)
(1.03002 0.0601444 0)
(1.10108 0.0526646 -6.05912e-29)
(1.15438 0.0449113 -2.86354e-27)
(1.19136 0.0375873 5.03678e-11)
(1.21486 0.0311144 4.93365e-11)
(1.22821 0.0256365 4.82587e-11)
(1.23444 0.0211097 4.71656e-11)
(1.23603 0.0174044 0)
(1.23483 0.0143687 0)
(1.2321 0.0118618 0)
(1.22866 0.00976785 0)
(1.22504 0.00799709 -2.13611e-11)
(1.22155 0.00648165 6.28605e-11)
(1.21837 0.00516976 2.77374e-19)
(1.21561 0.00402033 -4.02722e-11)
(1.21335 0.00299873 -8.37921e-28)
(1.21162 0.00207409 8.37921e-28)
(1.21046 0.00121744 0)
(1.20987 0.000401274 -1.97016e-27)
(0.93965 0.065657 2.87397e-27)
(1.02666 0.0602386 0)
(1.0973 0.0530279 0)
(1.15061 0.0454918 2.92413e-27)
(1.18789 0.0383187 -5.03678e-11)
(1.21185 0.0319328 -4.93365e-11)
(1.22568 0.0264911 -4.82587e-11)
(1.23235 0.0219646 -4.71656e-11)
(1.23432 0.0182358 1.97716e-27)
(1.23341 0.0151606 -1.97716e-27)
(1.23092 0.0126033 2.19194e-11)
(1.22766 0.0104506 -2.19194e-11)
(1.22419 0.00861455 -2.10951e-11)
(1.22081 0.00702817 -2.04043e-11)
(1.21772 0.0056405 3.7568e-28)
(1.21504 0.00441113 4.02722e-11)
(1.21284 0.00330619 1.72864e-27)
(1.21115 0.00229557 -1.72864e-27)
(1.21001 0.00135106 -1.25759e-27)
(1.20944 0.000445942 3.23572e-27)
(0.937325 0.0654581 0)
(1.02344 0.060254 0)
(1.09364 0.0533013 0)
(1.14693 0.0459771 0)
(1.18448 0.0389547 -4.17429e-28)
(1.20887 0.0326593 4.17429e-28)
(1.22315 0.0272592 0)
(1.23025 0.0227394 0)
(1.23258 0.0189936 0)
(1.23197 0.0158855 0)
(1.22971 0.0132842 4.31516e-11)
(1.22664 0.0110794 -4.31516e-11)
(1.22331 0.00918451 -4.16371e-11)
(1.22004 0.00753369 4.16371e-11)
(1.21704 0.00607668 -3.47328e-28)
(1.21443 0.00477377 3.47328e-28)
(1.21228 0.00359183 0)
(1.21063 0.00250151 0)
(1.20952 0.00147539 0)
(1.20896 0.000487514 0)
(0.93511 0.0651969 0)
(1.02034 0.0601972 0)
(1.09009 0.0534916 -8.70355e-28)
(1.14334 0.0463736 8.70355e-28)
(1.18114 0.0395015 0)
(1.20592 0.0332994 0)
(1.22065 0.0279457 0)
(1.22816 0.0234381 0)
(1.23084 0.0196813 -5.28452e-28)
(1.23052 0.0165464 5.28452e-28)
(1.22848 0.0139073 2.12258e-11)
(1.22559 0.0116565 -2.12258e-11)
(1.22239 0.00970897 -4.10652e-11)
(1.21924 0.00799985 4.10652e-11)
(1.21632 0.00647962 0)
(1.21378 0.0051093 0)
(1.21168 0.00385644 0)
(1.21008 0.00269246 0)
(1.20899 0.00159074 7.61706e-28)
(1.20845 0.000526095 -7.66528e-28)
(0.933001 0.0648789 0)
(1.01736 0.0600741 0)
(1.08665 0.0536052 0)
(1.13984 0.046688 0)
(1.17786 0.039965 0)
(1.20301 0.0338585 0)
(1.21816 0.0285553 0)
(1.22606 0.0240651 0)
(1.22909 0.0203027 3.70849e-28)
(1.22905 0.0171466 -3.70849e-28)
(1.22723 0.0144754 0)
(1.22451 0.0121843 0)
(1.22145 0.0101899 -2.02383e-11)
(1.2184 0.0084283 2.02383e-11)
(1.21558 0.00685069 0)
(1.2131 0.00541877 0)
(1.21105 0.00410081 1.93852e-11)
(1.20948 0.00286897 -1.93852e-11)
(1.20842 0.00169744 0)
(1.20789 0.000561796 0)
(0.930991 0.0645093 -5.5657e-28)
(1.01449 0.0598905 5.57304e-28)
(1.08333 0.0536484 0)
(1.13642 0.0469261 0)
(1.17463 0.0403508 0)
(1.20014 0.0343417 0)
(1.21568 0.0290927 0)
(1.22397 0.0246244 0)
(1.22733 0.0208613 0)
(1.22756 0.0176892 0)
(1.22596 0.0149912 4.92164e-28)
(1.22341 0.0126652 -4.92164e-28)
(1.22049 0.0106293 -1.99366e-11)
(1.21754 0.00882069 1.99366e-11)
(1.2148 0.00719123 4.6735e-28)
(1.21239 0.00570327 -4.6735e-28)
(1.21039 0.00432577 1.9156e-11)
(1.20886 0.00303163 -1.9156e-11)
(1.20782 0.00179582 -7.45287e-28)
(1.2073 0.000594727 7.50006e-28)
(0.929076 0.0640928 3.85309e-28)
(1.01173 0.0596515 -3.85818e-28)
(1.0801 0.0536268 0)
(1.1331 0.0470938 0)
(1.17148 0.0406644 0)
(1.19731 0.0347538 0)
(1.21323 0.029562 0)
(1.22189 0.0251198 0)
(1.22557 0.0213606 -3.56001e-28)
(1.22607 0.0181773 3.56001e-28)
(1.22468 0.0154573 0)
(1.2223 0.0131014 0)
(1.2195 0.0110291 -3.92567e-11)
(1.21666 0.00917867 3.92567e-11)
(1.214 0.00750258 0)
(1.21165 0.00596385 0)
(1.2097 0.00453211 1.89171e-11)
(1.2082 0.00318099 -1.89171e-11)
(1.20719 0.00188623 0)
(1.20668 0.000624999 0)
(0.927251 0.063634 -9.00574e-28)
(1.00907 0.0593624 9.01769e-28)
(1.07698 0.0535458 0)
(1.12985 0.0471964 0)
(1.16838 0.0409107 0)
(1.19451 0.0350995 0)
(1.2108 0.0299677 0)
(1.21982 0.025555 0)
(1.22381 0.0218039 -2.02952e-11)
(1.22457 0.0186137 2.02952e-11)
(1.22339 0.0158763 0)
(1.22117 0.0134951 0)
(1.2185 0.0113913 -3.86291e-11)
(1.21576 0.00950384 3.86291e-11)
(1.21317 0.00778607 -7.86032e-28)
(1.21088 0.00620157 7.86032e-28)
(1.20898 0.00472064 3.73388e-11)
(1.20752 0.00331761 -3.73388e-11)
(1.20653 0.001969 0)
(1.20603 0.000652723 0)
(0.925511 0.0631371 1.81293e-27)
(1.00651 0.0590276 -1.81534e-27)
(1.07395 0.0534104 2.38799e-28)
(1.12669 0.0472389 -2.38799e-28)
(1.16534 0.0410947 0)
(1.19176 0.0353832 0)
(1.20839 0.0303136 0)
(1.21775 0.0259338 0)
(1.22206 0.0221945 -1.98655e-11)
(1.22307 0.0190014 1.98655e-11)
(1.22209 0.0162508 0)
(1.22003 0.0138486 0)
(1.21748 0.0117177 -1.8996e-11)
(1.21483 0.0097978 1.8996e-11)
(1.21232 0.00804302 0)
(1.21009 0.0064175 0)
(1.20824 0.00489217 3.68275e-11)
(1.20681 0.00344208 -3.68275e-11)
(1.20584 0.00204446 1.16283e-27)
(1.20535 0.00067801 -1.17019e-27)
(0.923853 0.0626062 0)
(1.00405 0.0586516 0)
(1.07102 0.0532255 0)
(1.12361 0.0472263 0)
(1.16237 0.041221 8.34991e-28)
(1.18905 0.0356094 -8.34991e-28)
(1.20601 0.0306037 -9.12731e-28)
(1.2157 0.0262596 9.12731e-28)
(1.2203 0.0225355 0)
(1.22156 0.0193431 0)
(1.22078 0.0165832 0)
(1.21887 0.014164 0)
(1.21645 0.0120101 0)
(1.21389 0.0100621 0)
(1.21146 0.00827471 7.62469e-28)
(1.20928 0.00661266 -7.62469e-28)
(1.20747 0.0050475 1.8151e-11)
(1.20607 0.00355494 -1.8151e-11)
(1.20513 0.00211295 -8.30939e-28)
(1.20465 0.000700972 8.362e-28)
(0.922272 0.0620449 0)
(1.00168 0.0582386 0)
(1.06817 0.0529954 0)
(1.12061 0.047163 0)
(1.15946 0.0412939 -1.69042e-27)
(1.18638 0.0357819 1.69042e-27)
(1.20365 0.0308417 1.93275e-11)
(1.21366 0.0265358 -1.93275e-11)
(1.21855 0.0228298 0)
(1.22005 0.0196416 0)
(1.21946 0.0168758 0)
(1.21771 0.0144435 0)
(1.2154 0.0122704 -1.83475e-11)
(1.21294 0.0102983 1.83475e-11)
(1.21057 0.00848242 0)
(1.20846 0.00678808 0)
(1.20669 0.0051874 0)
(1.20532 0.00365674 0)
(1.20439 0.00217479 0)
(1.20392 0.000721716 0)
(0.920764 0.0614569 0)
(0.999389 0.0577923 0)
(1.06541 0.0527243 4.3424e-29)
(1.11768 0.0470534 -4.3424e-29)
(1.1566 0.0413177 0)
(1.18375 0.0359047 0)
(1.20132 0.0310312 1.88479e-11)
(1.21164 0.0267655 -1.88479e-11)
(1.21681 0.0230805 0)
(1.21854 0.0198994 0)
(1.21814 0.017131 -7.59677e-28)
(1.21654 0.0146889 7.59677e-28)
(1.21434 0.0125004 -3.60378e-11)
(1.21197 0.0105079 3.60378e-11)
(1.20968 0.00866741 0)
(1.20761 0.00694476 0)
(1.20588 0.00531265 0)
(1.20455 0.00374804 0)
(1.20364 0.00223032 0)
(1.20318 0.000740351 0)
(0.919326 0.0608453 1.26204e-27)
(0.997183 0.0573163 2.68179e-27)
(1.06274 0.0524162 2.11086e-28)
(1.11483 0.0469013 -2.11086e-28)
(1.15381 0.0412961 0)
(1.18116 0.0359815 0)
(1.19902 0.0311754 1.16832e-27)
(1.20963 0.026952 -1.16832e-27)
(1.21507 0.0232902 0)
(1.21703 0.0201191 0)
(1.21682 0.0173511 0)
(1.21536 0.0149024 0)
(1.21328 0.0127016 -3.53767e-11)
(1.211 0.0106923 3.53767e-11)
(1.20877 0.00883088 -1.51042e-27)
(1.20676 0.00708369 1.51042e-27)
(1.20507 0.005424 -1.49729e-27)
(1.20376 0.00382937 1.49729e-27)
(1.20287 0.00227984 3.37762e-11)
(1.20242 0.000756982 3.39522e-11)
(0.917954 0.0602131 -4.90681e-28)
(0.995055 0.056814 -3.45418e-27)
(1.06014 0.0520747 0)
(1.11205 0.0467107 0)
(1.15107 0.0412329 0)
(1.17862 0.0360158 0)
(1.19675 0.0312778 -8.2507e-28)
(1.20764 0.027098 8.2507e-28)
(1.21334 0.0234617 0)
(1.21553 0.020303 0)
(1.2155 0.0175382 0)
(1.21418 0.0150857 0)
(1.21221 0.0128759 -1.73564e-11)
(1.21001 0.010853 1.73564e-11)
(1.20785 0.00897403 0)
(1.20589 0.00720584 0)
(1.20423 0.00552219 1.70438e-11)
(1.20295 0.00390124 -1.70438e-11)
(1.20208 0.00232367 -3.37762e-11)
(1.20164 0.000771714 -3.39522e-11)
(0.916646 0.0595633 -7.12067e-28)
(0.993003 0.0562884 7.13033e-28)
(1.05762 0.0517032 -1.73765e-11)
(1.10933 0.046485 1.73765e-11)
(1.14838 0.0411316 0)
(1.17612 0.0360108 0)
(1.1945 0.0313412 8.04033e-28)
(1.20567 0.0272065 -8.04033e-28)
(1.21163 0.0235976 -7.20164e-28)
(1.21403 0.0204535 7.20164e-28)
(1.21418 0.0176943 0)
(1.213 0.0152409 0)
(1.21114 0.0130248 -1.70235e-11)
(1.20902 0.0109914 1.70235e-11)
(1.20692 0.00909801 0)
(1.20501 0.00731212 0)
(1.20339 0.00560795 3.35129e-11)
(1.20214 0.00396418 -3.35129e-11)
(1.20128 0.00236212 -7.6908e-28)
(1.20085 0.000784648 7.7395e-28)
(0.915398 0.0588984 1.43331e-27)
(0.991023 0.0557425 -1.43526e-27)
(1.05518 0.051305 -1.68429e-11)
(1.10669 0.0462276 1.68429e-11)
(1.14576 0.0409955 0)
(1.17366 0.0359698 0)
(1.19228 0.0313687 0)
(1.20372 0.0272802 0)
(1.20992 0.0237002 0)
(1.21254 0.0205728 0)
(1.21286 0.0178215 0)
(1.21181 0.0153695 0)
(1.21006 0.0131499 -1.66903e-11)
(1.20802 0.0111087 1.66903e-11)
(1.20598 0.00920394 1.4312e-27)
(1.20412 0.00740346 -1.4312e-27)
(1.20254 0.00568197 3.2932e-11)
(1.20131 0.00401869 -3.2932e-11)
(1.20047 0.00239549 1.0436e-27)
(1.20004 0.000795883 -1.05021e-27)
(0.914207 0.0582209 0)
(0.989111 0.0551791 0)
(1.0528 0.050883 -3.71671e-29)
(1.10411 0.0459416 3.71671e-29)
(1.14319 0.0408277 0)
(1.17124 0.0358956 0)
(1.1901 0.0313631 0)
(1.20178 0.0273216 0)
(1.20823 0.023772 6.86711e-28)
(1.21105 0.020663 -6.86711e-28)
(1.21154 0.0179216 0)
(1.21063 0.0154734 0)
(1.20898 0.0132527 0)
(1.20702 0.0112063 0)
(1.20504 0.00929291 -6.74705e-28)
(1.20322 0.00748075 6.74705e-28)
(1.20168 0.00574495 1.61732e-11)
(1.20047 0.00406524 -1.61732e-11)
(1.19965 0.00242406 -7.42994e-28)
(1.19923 0.000805516 7.47698e-28)
(0.91307 0.057533 0)
(0.987266 0.0546004 0)
(1.0505 0.0504399 0)
(1.10159 0.0456298 0)
(1.14067 0.0406311 0)
(1.16886 0.0357911 0)
(1.18794 0.0313269 0)
(1.19987 0.0273331 0)
(1.20654 0.0238152 -1.61475e-11)
(1.20957 0.0207263 1.61475e-11)
(1.21023 0.0179966 0)
(1.20945 0.0155541 0)
(1.20789 0.0133345 0)
(1.20601 0.0112854 0)
(1.20409 0.00936598 0)
(1.20232 0.00754482 0)
(1.20081 0.00579754 1.37206e-27)
(1.19962 0.00410431 -1.37206e-27)
(1.19882 0.00244812 0)
(1.19841 0.000813641 0)
(0.911985 0.0568369 0)
(0.985483 0.054009 0)
(1.04826 0.0499784 1.53328e-11)
(1.09914 0.0452951 -1.53328e-11)
(1.1382 0.0404084 0)
(1.16652 0.0356589 0)
(1.18581 0.0312627 0)
(1.19798 0.0273171 0)
(1.20488 0.023832 -1.57574e-11)
(1.2081 0.0207645 1.57574e-11)
(1.20892 0.0180483 0)
(1.20827 0.0156134 0)
(1.20681 0.0133969 0)
(1.20501 0.0113473 0)
(1.20314 0.00942415 0)
(1.20141 0.00759652 0)
(1.19993 0.00584039 -6.46827e-28)
(1.19877 0.00413636 6.46827e-28)
(1.19798 0.00246794 7.16461e-28)
(1.19758 0.000820348 -7.20997e-28)
(0.91095 0.0561344 0)
(0.98376 0.0534069 0)
(1.04608 0.0495009 1.48585e-11)
(1.09674 0.04494 -1.48585e-11)
(1.13578 0.0401622 0)
(1.16423 0.0355016 0)
(1.18371 0.0311729 0)
(1.1961 0.0272758 0)
(1.20322 0.0238243 0)
(1.20664 0.0207795 0)
(1.20761 0.0180782 0)
(1.20709 0.0156526 0)
(1.20573 0.0134411 0)
(1.204 0.011393 0)
(1.20219 0.0094684 0)
(1.2005 0.00763665 0)
(1.19905 0.00587411 1.52849e-11)
(1.19791 0.00416182 -1.52849e-11)
(1.19713 0.00248378 0)
(1.19674 0.000825726 0)
(0.909961 0.0554273 0)
(0.982095 0.0527961 0)
(1.04397 0.0490096 1.64361e-28)
(1.09441 0.0445668 -1.64361e-28)
(1.13342 0.0398949 0)
(1.16197 0.0353215 0)
(1.18164 0.0310596 0)
(1.19425 0.0272113 0)
(1.20158 0.0237941 -1.29562e-27)
(1.20519 0.0207731 1.29562e-27)
(1.20632 0.018088 0)
(1.20591 0.0156732 0)
(1.20465 0.0134685 0)
(1.20299 0.0114238 0)
(1.20124 0.00949969 1.29718e-27)
(1.19959 0.00766597 -1.29718e-27)
(1.19817 0.0058993 2.99742e-11)
(1.19705 0.00418114 -2.99742e-11)
(1.19629 0.00249591 -9.5189e-28)
(1.1959 0.000829861 9.57917e-28)
(0.909018 0.0547172 0)
(0.980485 0.0521784 0)
(1.04191 0.0485065 0)
(1.09212 0.0441777 0)
(1.1311 0.0396088 0)
(1.15975 0.0351208 0)
(1.1796 0.0309251 0)
(1.19242 0.0271256 0)
(1.19996 0.0237433 0)
(1.20375 0.020747 0)
(1.20503 0.0180793 0)
(1.20475 0.0156767 0)
(1.20358 0.0134802 -1.47072e-11)
(1.20199 0.0114406 1.47072e-11)
(1.20029 0.00951891 -6.103e-28)
(1.19868 0.00768522 6.103e-28)
(1.19729 0.00591655 1.46891e-11)
(1.19619 0.0041947 -1.46891e-11)
(1.19544 0.00250456 0)
(1.19505 0.000832834 0)
(0.908117 0.0540057 -1.13322e-27)
(0.978928 0.0515556 1.13478e-27)
(1.03991 0.0479936 -1.54307e-28)
(1.0899 0.0437749 1.54307e-28)
(1.12882 0.039306 0)
(1.15757 0.0349016 0)
(1.17759 0.0307712 0)
(1.19061 0.0270205 0)
(1.19835 0.0236736 0)
(1.20232 0.0207028 0)
(1.20375 0.0180535 0)
(1.20358 0.0156643 0)
(1.2025 0.0134775 -2.87653e-11)
(1.20098 0.0114445 2.87653e-11)
(1.19934 0.00952694 0)
(1.19776 0.00769512 0)
(1.1964 0.0059264 0)
(1.19532 0.00420293 0)
(1.19458 0.00250998 0)
(1.19421 0.000834724 0)
(0.907257 0.0532941 5.26431e-28)
(0.977422 0.0509291 -5.27158e-28)
(1.03797 0.0474727 0)
(1.08772 0.0433602 0)
(1.1266 0.0389884 0)
(1.15542 0.0346658 0)
(1.1756 0.0306 0)
(1.18882 0.0268978 0)
(1.19676 0.0235867 -1.38916e-11)
(1.2009 0.020642 1.38916e-11)
(1.20248 0.0180121 0)
(1.20243 0.0156373 0)
(1.20144 0.0134614 -2.81212e-11)
(1.19998 0.0114365 2.81212e-11)
(1.19839 0.0095246 0)
(1.19685 0.00769635 0)
(1.19552 0.00592938 5.85061e-28)
(1.19446 0.00420618 -5.85061e-28)
(1.19373 0.0025124 0)
(1.19336 0.000835609 0)
(0.906436 0.0525836 0)
(0.975964 0.0503005 0)
(1.03608 0.0469453 -2.88865e-29)
(1.0856 0.0429354 2.88865e-29)
(1.12442 0.0386579 0)
(1.15332 0.0344153 0)
(1.17365 0.030413 -6.14234e-28)
(1.18706 0.0267593 6.14234e-28)
(1.19518 0.0234841 -1.35361e-11)
(1.19949 0.0205661 1.35361e-11)
(1.20121 0.0179563 5.6728e-28)
(1.20128 0.015597 -5.6728e-28)
(1.20038 0.0134331 -1.37413e-11)
(1.19899 0.0114176 1.37413e-11)
(1.19744 0.0095127 1.37803e-11)
(1.19594 0.00768956 -1.37803e-11)
(1.19463 0.00592602 0)
(1.19359 0.00420484 0)
(1.19287 0.00251203 0)
(1.19251 0.00083556 0)
(0.905651 0.0518754 0)
(0.974553 0.0496709 0)
(1.03424 0.0464131 0)
(1.08352 0.0425022 0)
(1.12228 0.0383163 0)
(1.15124 0.0341518 0)
(1.17172 0.0302121 1.29668e-11)
(1.18531 0.0266064 -1.29668e-11)
(1.19362 0.0233674 0)
(1.1981 0.0204765 0)
(1.19996 0.0178874 0)
(1.20013 0.0155444 0)
(1.19932 0.0133935 0)
(1.198 0.0113885 0)
(1.1965 0.00949199 1.34764e-11)
(1.19503 0.00767539 -1.34764e-11)
(1.19375 0.00591679 0)
(1.19273 0.00419924 0)
(1.19202 0.00250908 0)
(1.19166 0.000834648 0)
(0.904903 0.0511705 0)
(0.973186 0.0490417 0)
(1.03244 0.0458774 2.71068e-29)
(1.08149 0.0420621 -2.71068e-29)
(1.12019 0.037965 0)
(1.14921 0.0338768 0)
(1.16983 0.0299988 1.26073e-11)
(1.18359 0.0264407 -1.26073e-11)
(1.19207 0.0232378 -5.33129e-28)
(1.19671 0.0203744 5.33129e-28)
(1.19871 0.0178066 0)
(1.199 0.0154807 0)
(1.19827 0.0133437 0)
(1.19701 0.0113502 0)
(1.19556 0.00946321 -5.46891e-28)
(1.19413 0.00765443 5.46891e-28)
(1.19287 0.00590217 1.32089e-11)
(1.19186 0.00418973 -1.32089e-11)
(1.19117 0.00250376 0)
(1.19081 0.000832941 0)
(0.904188 0.05047 0)
(0.971863 0.0484138 0)
(1.0307 0.0453395 0)
(1.07951 0.0416165 0)
(1.11813 0.0376057 0)
(1.14721 0.033592 0)
(1.16796 0.0297745 0)
(1.18189 0.0262636 0)
(1.19054 0.0230969 1.08062e-27)
(1.19534 0.0202611 -1.08062e-27)
(1.19748 0.0177152 0)
(1.19787 0.0154068 0)
(1.19723 0.0132845 0)
(1.19603 0.0113034 0)
(1.19462 0.00942705 0)
(1.19323 0.00762726 0)
(1.19199 0.0058826 1.29168e-11)
(1.191 0.00417663 -1.29168e-11)
(1.19032 0.00249626 8.22423e-28)
(1.18997 0.000830502 -8.2763e-28)
(0.903506 0.0497745 0)
(0.97058 0.0477884 0)
(1.02899 0.0448005 1.11693e-11)
(1.07757 0.0411668 -1.11693e-11)
(1.11612 0.0372396 0)
(1.14524 0.0332987 0)
(1.16611 0.0295406 0)
(1.1802 0.0260764 0)
(1.18903 0.0229457 -5.05367e-28)
(1.19399 0.0201379 5.05367e-28)
(1.19625 0.017614 -5.13277e-28)
(1.19675 0.0153238 5.13277e-28)
(1.19619 0.0132169 -1.24949e-11)
(1.19506 0.011249 1.24949e-11)
(1.19369 0.00938417 0)
(1.19233 0.00759442 0)
(1.19112 0.00585852 -5.24143e-28)
(1.19015 0.00416024 5.24143e-28)
(1.18947 0.00248676 0)
(1.18913 0.000827394 0)
(0.902855 0.049085 -8.95859e-28)
(0.969338 0.0471663 8.971e-28)
(1.02734 0.0442615 1.0817e-11)
(1.07568 0.040714 -1.0817e-11)
(1.11414 0.0368682 0)
(1.1433 0.0329981 0)
(1.16429 0.0292984 0)
(1.17854 0.0258803 0)
(1.18753 0.0227854 0)
(1.19264 0.0200056 0)
(1.19504 0.0175042 0)
(1.19564 0.0152327 0)
(1.19516 0.0131417 -2.43837e-11)
(1.19409 0.0111877 2.43837e-11)
(1.19277 0.0093352 0)
(1.19144 0.00755642 0)
(1.19025 0.00583032 1.23386e-11)
(1.18929 0.00414085 -1.23386e-11)
(1.18863 0.00247544 0)
(1.18829 0.000823674 0)
(0.902234 0.048402 4.1611e-28)
(0.968133 0.0465483 -4.16687e-28)
(1.02572 0.0437236 2.38488e-29)
(1.07383 0.0402595 -2.38488e-29)
(1.11221 0.0364925 0)
(1.1414 0.0326916 0)
(1.1625 0.0290491 -5.18023e-28)
(1.1769 0.0256766 5.18023e-28)
(1.18605 0.0226173 4.78607e-28)
(1.19131 0.0198655 -4.78607e-28)
(1.19383 0.0173868 0)
(1.19454 0.0151342 0)
(1.19414 0.0130596 -1.18925e-11)
(1.19313 0.0111202 1.18925e-11)
(1.19185 0.00928074 4.9782e-28)
(1.19056 0.00751377 -4.9782e-28)
(1.18939 0.0057984 2.41056e-11)
(1.18845 0.00411874 -2.41056e-11)
(1.18779 0.00246246 -5.56503e-28)
(1.18746 0.0008194 5.60026e-28)
(0.901641 0.0477263 -4.02309e-28)
(0.966965 0.0459352 4.02866e-28)
(1.02415 0.0431877 0)
(1.07202 0.0398041 0)
(1.11031 0.0361136 0)
(1.13953 0.0323803 0)
(1.16074 0.0287939 5.03196e-28)
(1.17528 0.0254662 -5.03196e-28)
(1.18459 0.0224422 -4.65599e-28)
(1.18999 0.0197185 4.65599e-28)
(1.19264 0.0172625 0)
(1.19345 0.0150292 0)
(1.19313 0.0129714 0)
(1.19217 0.0110471 0)
(1.19094 0.00922136 -4.85847e-28)
(1.18968 0.00746694 4.85847e-28)
(1.18853 0.00576312 2.3539e-11)
(1.1876 0.00409419 -2.3539e-11)
(1.18696 0.002448 0)
(1.18663 0.000814624 0)
(0.901076 0.0470583 8.09635e-28)
(0.965832 0.0453277 -8.10756e-28)
(1.02261 0.0426545 0)
(1.07024 0.0393488 0)
(1.10845 0.0357327 0)
(1.13769 0.0320651 0)
(1.159 0.0285337 0)
(1.17368 0.0252502 0)
(1.18314 0.0222613 9.42638e-28)
(1.18869 0.0195654 -9.42638e-28)
(1.19146 0.0171324 0)
(1.19237 0.0149185 0)
(1.19212 0.0128779 -1.13051e-11)
(1.19123 0.0109691 1.13051e-11)
(1.19004 0.00915759 0)
(1.1888 0.00741637 0)
(1.18768 0.00572483 1.14888e-11)
(1.18677 0.00406743 -1.14888e-11)
(1.18613 0.00243219 0)
(1.1858 0.000809397 0)
(0.900536 0.0463986 0)
(0.964733 0.0447264 0)
(1.02111 0.0421248 -2.16442e-29)
(1.06851 0.0388946 2.16442e-29)
(1.10662 0.0353506 0)
(1.13588 0.0317472 0)
(1.15729 0.0282696 0)
(1.1721 0.0250296 0)
(1.18171 0.0220753 -4.40317e-28)
(1.18739 0.0194073 4.40317e-28)
(1.19028 0.0169971 0)
(1.19129 0.0148028 0)
(1.19112 0.0127796 -2.20345e-11)
(1.19029 0.0108867 2.20345e-11)
(1.18914 0.00908994 0)
(1.18794 0.00736247 0)
(1.18683 0.00568387 0)
(1.18593 0.00403871 0)
(1.18531 0.00241518 5.18053e-28)
(1.18498 0.000803768 -5.21333e-28)
(0.900023 0.0457476 0)
(0.963667 0.0441317 0)
(1.01965 0.0415994 0)
(1.06681 0.0384421 0)
(1.10482 0.0349682 0)
(1.1341 0.0314273 0)
(1.1556 0.0280024 0)
(1.17054 0.0248053 0)
(1.18029 0.0218852 0)
(1.18611 0.0192448 0)
(1.18912 0.0168575 9.11978e-28)
(1.19023 0.0146829 -9.11978e-28)
(1.19014 0.0126773 -2.14667e-11)
(1.18935 0.0108006 2.14667e-11)
(1.18825 0.0090189 0)
(1.18708 0.00730567 0)
(1.18599 0.00564055 -9.44968e-28)
(1.18511 0.00400826 9.44968e-28)
(1.18449 0.00239712 -6.97667e-28)
(1.18417 0.000797781 7.02084e-28)
(0.899533 0.0451057 0)
(0.962633 0.0435443 0)
(1.01823 0.0410787 0)
(1.06515 0.0379921 0)
(1.10306 0.0345863 0)
(1.13235 0.0311064 0)
(1.15393 0.0277331 0)
(1.169 0.0245781 0)
(1.17889 0.0216918 0)
(1.18484 0.0190787 0)
(1.18797 0.0167143 -4.26276e-28)
(1.18917 0.0145594 4.26276e-28)
(1.18916 0.0125715 -2.0907e-11)
(1.18843 0.0107112 2.0907e-11)
(1.18737 0.00894492 4.3929e-28)
(1.18622 0.00724633 -4.3929e-28)
(1.18516 0.00559518 1.06637e-11)
(1.18429 0.00397629 -1.06637e-11)
(1.18368 0.00237812 4.93018e-28)
(1.18336 0.000791481 -4.9614e-28)
(0.899067 0.0444732 -3.39492e-28)
(0.961629 0.0429646 3.39961e-28)
(1.01684 0.0405635 1.96223e-29)
(1.06352 0.0375453 -1.96223e-29)
(1.10133 0.0342056 0)
(1.13063 0.0307851 0)
(1.15229 0.0274623 0)
(1.16748 0.0243487 0)
(1.1775 0.0214957 0)
(1.18359 0.0189098 0)
(1.18683 0.016568 0)
(1.18813 0.0144329 0)
(1.18818 0.0124628 -2.03554e-11)
(1.18752 0.010619 2.03554e-11)
(1.1865 0.00886844 -4.28003e-28)
(1.18538 0.00718481 4.28003e-28)
(1.18434 0.00554803 2.07894e-11)
(1.18348 0.003943 -2.07894e-11)
(1.18287 0.00235831 9.50485e-28)
(1.18256 0.000784908 1.02402e-27)
(0.898623 0.0438505 6.82893e-28)
(0.960654 0.0423928 -6.83834e-28)
(1.01548 0.0400541 9.51935e-29)
(1.06193 0.0371023 -9.51935e-29)
(1.09964 0.0338269 0)
(1.12893 0.0304643 0)
(1.15067 0.0271909 0)
(1.16598 0.0241179 0)
(1.17613 0.0212978 -9.45818e-12)
(1.18235 0.0187387 9.45818e-12)
(1.1857 0.0164194 0)
(1.18709 0.014304 0)
(1.18722 0.0123518 -9.90594e-12)
(1.18661 0.0105246 9.90594e-12)
(1.18563 0.00878986 0)
(1.18454 0.00712145 0)
(1.18352 0.00549936 2.02577e-11)
(1.18267 0.0039086 -2.02577e-11)
(1.18208 0.00233782 -9.50485e-28)
(1.18177 0.000778102 -1.02402e-27)
(0.8982 0.0432377 0)
(0.959708 0.0418295 0)
(1.01415 0.0395511 0)
(1.06036 0.0366636 0)
(1.09797 0.0334507 0)
(1.12727 0.0301446 0)
(1.14907 0.0269195 0)
(1.16449 0.0238863 0)
(1.17478 0.0210987 -9.18484e-12)
(1.18112 0.0185661 9.18484e-12)
(1.18458 0.0162691 0)
(1.18607 0.0141732 0)
(1.18627 0.0122388 0)
(1.18571 0.0104283 0)
(1.18477 0.00870957 0)
(1.18371 0.00705657 0)
(1.18271 0.00544945 9.86623e-12)
(1.18188 0.00387325 -9.86623e-12)
(1.18129 0.00231674 -4.56468e-28)
(1.18098 0.000771099 4.59358e-28)
(0.897799 0.0426352 0)
(0.95879 0.0412748 0)
(1.01286 0.0390548 0)
(1.05883 0.0362298 0)
(1.09633 0.0330776 0)
(1.12562 0.0298266 0)
(1.14749 0.0266488 0)
(1.16303 0.0236547 0)
(1.17344 0.0208989 0)
(1.1799 0.0183924 0)
(1.18347 0.0161176 0)
(1.18505 0.014041 0)
(1.18532 0.0121244 0)
(1.18482 0.0103306 0)
(1.18392 0.00862792 8.22306e-28)
(1.18289 0.00699048 -8.22306e-28)
(1.1819 0.00539851 8.30135e-28)
(1.18109 0.00383714 -8.30135e-28)
(1.1805 0.00229519 6.13605e-28)
(1.1802 0.000763935 -6.1749e-28)
(0.897418 0.042043 7.12454e-12)
(0.957898 0.0407291 -7.13431e-12)
(1.01159 0.0385657 1.71791e-29)
(1.05734 0.0358012 -1.71791e-29)
(1.09472 0.0327081 0)
(1.12401 0.0295108 0)
(1.14594 0.0263792 0)
(1.16158 0.0234235 0)
(1.17211 0.020699 0)
(1.17869 0.0182184 0)
(1.18238 0.0159654 0)
(1.18404 0.013908 0)
(1.18439 0.012009 0)
(1.18394 0.0102319 0)
(1.18308 0.00854526 0)
(1.18207 0.00692345 0)
(1.18111 0.00534678 -3.88163e-28)
(1.1803 0.00380042 3.88163e-28)
(1.17973 0.00227326 -4.32812e-28)
(1.17943 0.000756642 4.35552e-28)
(0.897056 0.0414613 6.88008e-12)
(0.957032 0.0401926 -6.88949e-12)
(1.01036 0.0380839 8.32784e-29)
(1.05587 0.0353783 -8.32784e-29)
(1.09314 0.0323428 0)
(1.12242 0.0291978 0)
(1.14441 0.0261114 0)
(1.16015 0.0231933 0)
(1.1708 0.0204996 7.25581e-28)
(1.1775 0.0180444 -7.25581e-28)
(1.18129 0.0158129 7.48189e-28)
(1.18305 0.0137746 -7.48189e-28)
(1.18346 0.0118931 0)
(1.18307 0.0101326 0)
(1.18224 0.00846191 -7.78113e-28)
(1.18127 0.00685577 7.78113e-28)
(1.18032 0.00529447 9.09821e-12)
(1.17953 0.00376325 -9.09821e-12)
(1.17896 0.00225104 0)
(1.17867 0.000749251 0)
(0.896714 0.0408904 0)
(0.956191 0.0396654 0)
(1.00915 0.0376099 7.05163e-12)
(1.05443 0.0349615 -7.05163e-12)
(1.09159 0.0319819 0)
(1.12085 0.0288881 0)
(1.1429 0.0258459 0)
(1.15874 0.0229646 0)
(1.1695 0.0203012 0)
(1.17632 0.017871 0)
(1.18021 0.0156607 0)
(1.18206 0.0136412 0)
(1.18254 0.0117769 0)
(1.1822 0.0100329 0)
(1.18142 0.00837817 0)
(1.18047 0.00678767 0)
(1.17954 0.00524178 8.84895e-12)
(1.17876 0.00372578 -8.84895e-12)
(1.1782 0.00222862 4.09749e-28)
(1.17791 0.000741791 -4.12343e-28)
(0.857732 0.0719132 -1.51735e-19)
(0.855886 0.0719215 1.21037e-19)
(0.854158 0.0718425 1.10909e-20)
(0.852541 0.0716827 -2.41948e-19)
(0.851031 0.0714482 3.39027e-19)
(0.849622 0.0711451 3.4526e-19)
(0.848307 0.0707791 -9.70793e-20)
(0.847083 0.0703556 -4.24541e-19)
(0.845945 0.0698798 5.48804e-19)
(0.844888 0.0693567 -2.73652e-19)
(0.843907 0.068791 -3.39879e-20)
(0.842999 0.068187 8.52594e-20)
(0.84216 0.0675489 -2.32374e-19)
(0.841387 0.0668807 -1.17745e-19)
(0.840675 0.0661859 2.53901e-19)
(0.840021 0.065468 -5.27711e-21)
(0.839423 0.0647302 -5.51358e-20)
(0.838877 0.0639754 9.43977e-20)
(0.838381 0.0632064 -9.72908e-20)
(0.837931 0.0624257 2.60501e-20)
(0.837526 0.0616357 1.30634e-19)
(0.837162 0.0608385 -3.8801e-20)
(0.836838 0.0600362 -1.16877e-19)
(0.836552 0.0592305 1.10519e-19)
(0.836301 0.0584232 -4.73412e-20)
(0.836083 0.0576159 5.32548e-20)
(0.835897 0.0568098 -3.22969e-20)
(0.835741 0.0560063 -1.06338e-19)
(0.835613 0.0552066 1.37871e-19)
(0.835512 0.0544117 -2.54278e-21)
(0.835436 0.0536226 -8.73913e-20)
(0.835384 0.0528401 6.58582e-20)
(0.835355 0.0520651 5.26213e-21)
(0.835348 0.0512981 -1.1494e-20)
(0.835361 0.0505398 -3.83629e-20)
(0.835393 0.0497907 4.44524e-20)
(0.835444 0.0490514 -1.83359e-21)
(0.835512 0.0483223 1.34029e-20)
(0.835597 0.0476037 -1.35748e-20)
(0.835698 0.0468959 -1.43907e-20)
(0.835814 0.0461992 -1.76578e-20)
(0.835944 0.0455138 2.293e-20)
(0.836088 0.04484 3.03916e-21)
(0.836245 0.0441778 -3.28836e-20)
(0.836415 0.0435274 1.02373e-20)
(0.836596 0.0428889 -3.1155e-20)
(0.836789 0.0422624 -5.18689e-21)
(0.836994 0.0416479 2.56072e-20)
(0.743528 0.0727096 4.36487e-19)
(0.74358 0.0725693 6.11592e-20)
(0.74369 0.0723525 -6.70704e-19)
(0.743858 0.0720652 6.20494e-19)
(0.744078 0.0717129 -4.02849e-20)
(0.74435 0.0713012 7.17035e-20)
(0.744671 0.0708351 -5.09596e-19)
(0.745037 0.0703197 2.7137e-19)
(0.745447 0.0697596 -1.80692e-19)
(0.745897 0.0691594 -1.72621e-19)
(0.746385 0.0685231 1.55004e-19)
(0.74691 0.0678547 1.67134e-19)
(0.747468 0.0671581 -1.09427e-19)
(0.748058 0.0664366 2.16089e-19)
(0.748676 0.0656935 -2.31157e-19)
(0.749322 0.0649319 3.42168e-20)
(0.749993 0.0641546 9.21784e-20)
(0.750688 0.0633642 -1.15851e-19)
(0.751404 0.0625632 1.63618e-19)
(0.752139 0.0617538 -4.0047e-20)
(0.752893 0.0609381 -5.5997e-21)
(0.753663 0.060118 -2.35968e-20)
(0.754449 0.0592953 -5.69628e-20)
(0.755248 0.0584715 2.45299e-20)
(0.756059 0.0576482 2.99012e-20)
(0.756882 0.0568267 6.03727e-20)
(0.757715 0.0560082 6.44728e-21)
(0.758557 0.0551939 -1.26426e-19)
(0.759407 0.0543847 1.30939e-19)
(0.760263 0.0535816 -1.04653e-19)
(0.761126 0.0527854 -3.45092e-20)
(0.761995 0.0519968 2.53536e-20)
(0.762867 0.0512165 -9.3157e-21)
(0.763744 0.0504451 5.55042e-20)
(0.764624 0.049683 -6.10242e-20)
(0.765506 0.0489308 2.62378e-21)
(0.766391 0.0481888 2.79479e-24)
(0.767277 0.0474574 8.97921e-20)
(0.768164 0.0467369 -6.48386e-20)
(0.769052 0.0460275 1.2443e-20)
(0.76994 0.0453294 1.78238e-20)
(0.770828 0.0446429 9.91311e-21)
(0.771716 0.043968 -6.5047e-20)
(0.772603 0.0433049 8.60452e-20)
(0.773489 0.0426536 -5.153e-20)
(0.774374 0.0420143 -3.04972e-20)
(0.775258 0.0413869 2.75859e-21)
(0.776141 0.0407714 6.36812e-20)
(0.777022 0.0401679 -1.3924e-20)
(0.619526 0.0701396 -1.04803e-20)