/*--------------------------------*- C++ -*----------------------------------*\
  =========                 |
  \\      /  F ield         | OpenFOAM: The Open Source CFD Toolbox
   \\    /   O peration     | Website:  https://openfoam.org
    \\  /    A nd           | Version:  7
     \\/     M anipulation  |
\*---------------------------------------------------------------------------*/
FoamFile
{
    version     2.0;
    format      ascii;
    class       surfaceScalarField;
    location    "10";
    object      phi;
}
// * * * * * * * * * * * * * * * * * * * * * * * * * * * * * * * * * * * * * //

dimensions      [0 3 -1 0 0 0 0];

internalField   nonuniform List<scalar> 
6869
(
-0.00138497
0.0144625
0.00151252
-0.00126246
0.0145645
-0.00114859
0.0146194
-0.00104516
0.014644
-0.00095119
0.0146541
-0.000865847
0.0146523
-0.000788308
0.0146437
-0.000717722
0.0146296
-0.000653348
0.014611
-0.000594539
0.0145888
-0.000540721
0.014564
-0.000491379
0.0145374
-0.000446055
0.0145096
-0.000404333
0.0144813
-0.00036584
0.0144531
-0.000330234
0.0144253
-0.000297208
0.0143982
-0.000266481
0.0143723
-0.000237794
0.0143478
-0.000210912
0.0143248
-0.000185617
0.0143035
-0.000161709
0.014284
-0.000138999
0.0142665
-0.000117313
0.0142511
-9.6487e-05
0.0142377
-7.63638e-05
0.0142265
-5.67949e-05
0.0142174
-3.76371e-05
0.0142107
-1.87511e-05
0.0142061
0.0142038
-0.0013632
0.0143413
0.00148442
-0.0012463
0.0144476
-0.00113712
0.0145102
-0.00103746
0.0145444
-0.000946443
0.0145631
-0.00086342
0.0145693
-0.000787685
0.014568
-0.000718483
0.0145604
-0.00065516
0.0145476
-0.000597132
0.0145308
-0.000543877
0.0145108
-0.000494923
0.0144884
-0.000449843
0.0144645
-0.000408251
0.0144397
-0.000369791
0.0144146
-0.000334144
0.0143896
-0.000301013
0.0143651
-0.000270129
0.0143415
-0.000241244
0.0143189
-0.000214131
0.0142977
-0.000188576
0.0142779
-0.000164385
0.0142598
-0.000141375
0.0142435
-0.000119374
0.0142291
-9.82204e-05
0.0142165
-7.77607e-05
0.014206
-5.78484e-05
0.0141975
-3.83421e-05
0.0141911
-1.91044e-05
0.0141869
0.0141847
-0.00133764
0.0142268
0.00145216
-0.00122668
0.0143367
-0.0011225
0.014406
-0.00102691
0.0144488
-0.000939121
0.0144753
-0.000858677
0.0144888
-0.00078498
0.0144943
-0.00071738
0.0144928
-0.000655303
0.0144856
-0.000598235
0.0144737
-0.000545705
0.0144583
-0.000497284
0.01444
-0.000452581
0.0144198
-0.000411236
0.0143984
-0.000372919
0.0143763
-0.000337325
0.014354
-0.000304176
0.014332
-0.000273215
0.0143105
-0.000244203
0.0142899
-0.000216922
0.0142704
-0.000191166
0.0142522
-0.000166746
0.0142354
-0.000143484
0.0142203
-0.000121212
0.0142068
-9.97728e-05
0.0141951
-7.90159e-05
0.0141853
-5.87973e-05
0.0141773
-3.89782e-05
0.0141713
-1.94235e-05
0.0141673
0.0141653
-0.00130881
0.0141192
0.00141641
-0.00120402
0.0142319
-0.0011051
0.0143071
-0.0010138
0.0143575
-0.000929462
0.014391
-0.000851815
0.0144112
-0.000780361
0.0144228
-0.00071455
0.0144269
-0.000653896
0.0144249
-0.000597949
0.0144178
-0.00054629
0.0144066
-0.000498537
0.0143923
-0.000454331
0.0143756
-0.000413343
0.0143574
-0.000375266
0.0143382
-0.000339817
0.0143186
-0.000306731
0.0142989
-0.000275765
0.0142795
-0.000246693
0.0142608
-0.000219304
0.014243
-0.000193402
0.0142263
-0.000168803
0.0142108
-0.000145334
0.0141968
-0.000122835
0.0141843
-0.00010115
0.0141734
-8.01337e-05
0.0141642
-5.96447e-05
0.0141568
-3.95474e-05
0.0141512
-1.97093e-05
0.0141475
0.0141456
-0.00127723
0.0140186
0.0013778
-0.00117877
0.0141334
-0.00108526
0.0142136
-0.000998413
0.0142706
-0.000917709
0.0143103
-0.000843036
0.0143365
-0.000773995
0.0143538
-0.000710137
0.0143631
-0.000651059
0.0143658
-0.000596373
0.0143631
-0.000545718
0.0143559
-0.000498751
0.0143453
-0.000455153
0.014332
-0.000414622
0.0143169
-0.000376877
0.0143005
-0.000341653
0.0142833
-0.000308705
0.0142659
-0.000277803
0.0142486
-0.000248732
0.0142318
-0.000221291
0.0142156
-0.000195294
0.0142003
-0.000170563
0.0141861
-0.000146933
0.0141732
-0.000124247
0.0141616
-0.000102355
0.0141515
-8.11158e-05
0.014143
-6.03916e-05
0.0141361
-4.00502e-05
0.0141309
-1.99621e-05
0.0141274
0.0141256
-0.0012434
0.0139251
0.00133693
-0.00115133
0.0140414
-0.00106333
0.0141256
-0.000981042
0.0141883
-0.000904101
0.0142333
-0.000832539
0.014265
-0.000766049
0.0142873
-0.00070428
0.0143013
-0.000646906
0.0143084
-0.000593606
0.0143098
-0.000544067
0.0143064
-0.000497993
0.0142992
-0.0004551
0.0142891
-0.000415116
0.0142769
-0.000377784
0.0142631
-0.000342861
0.0142484
-0.000310119
0.0142332
-0.000279342
0.0142179
-0.00025033
0.0142027
-0.000222891
0.0141881
-0.000196847
0.0141742
-0.00017203
0.0141613
-0.00014828
0.0141494
-0.000125447
0.0141388
-0.000103387
0.0141295
-8.19608e-05
0.0141216
-6.10367e-05
0.0141152
-4.04856e-05
0.0141103
-2.01814e-05
0.0141071
0.0141055
-0.0012078
0.0138385
0.00129433
-0.0011221
0.0139557
-0.00103963
0.0140431
-0.000961959
0.0141107
-0.000888868
0.0141603
-0.000820515
0.0141966
-0.000756682
0.0142234
-0.00069711
0.0142417
-0.000641548
0.0142529
-0.000589735
0.014258
-0.000541411
0.0142581
-0.000496322
0.0142541
-0.000454218
0.014247
-0.00041486
0.0142375
-0.000378013
0.0142263
-0.000343459
0.0142139
-0.000310984
0.0142007
-0.000280391
0.0141873
-0.000251489
0.0141738
-0.000224101
0.0141607
-0.000198057
0.0141482
-0.000173197
0.0141364
-0.00014937
0.0141256
-0.00012643
0.0141158
-0.000104239
0.0141073
-8.26638e-05
0.0141
-6.1576e-05
0.0140941
-4.08507e-05
0.0140896
-2.03656e-05
0.0140866
0.0140851
-0.00117086
0.0137589
0.00125052
-0.00109144
0.0138762
-0.00101448
0.0139662
-0.000941423
0.0140376
-0.000872225
0.0140911
-0.000807143
0.0141315
-0.000746041
0.0141623
-0.000688748
0.0141845
-0.000635081
0.0141992
-0.000584839
0.0142077
-0.00053781
0.0142111
-0.000493782
0.0142101
-0.000452542
0.0142058
-0.000413877
0.0141989
-0.000377581
0.01419
-0.000343454
0.0141797
-0.000311303
0.0141686
-0.000280945
0.0141569
-0.000252205
0.0141451
-0.000224914
0.0141334
-0.000198915
0.0141222
-0.000174056
0.0141116
-0.000150192
0.0141017
-0.000127185
0.0140928
-0.000104903
0.014085
-8.32168e-05
0.0140783
-6.20033e-05
0.0140729
-4.11415e-05
0.0140688
-2.05127e-05
0.014066
0.0140646
-0.00113295
0.0136859
0.00120594
-0.00105969
0.013803
-0.000988138
0.0138946
-0.000919667
0.0139692
-0.000854367
0.0140258
-0.000792585
0.0140697
-0.000734259
0.014104
-0.000679299
0.0141295
-0.000627589
0.0141475
-0.000578981
0.0141591
-0.000533312
0.0141654
-0.000490409
0.0141672
-0.000450092
0.0141655
-0.00041218
0.014161
-0.00037649
0.0141543
-0.000342844
0.0141461
-0.000311068
0.0141368
-0.000280995
0.0141268
-0.000252462
0.0141166
-0.000225315
0.0141063
-0.000199405
0.0140963
-0.000174589
0.0140867
-0.00015073
0.0140779
-0.000127698
0.0140698
-0.000105366
0.0140626
-8.36094e-05
0.0140566
-6.23105e-05
0.0140516
-4.13522e-05
0.0140478
-2.06199e-05
0.0140452
0.014044
-0.00109444
0.0136193
0.00116098
-0.00102714
0.0137357
-0.000960869
0.0138283
-0.000896902
0.0139052
-0.000835469
0.0139643
-0.000776981
0.0140113
-0.000721448
0.0140485
-0.000668854
0.0140769
-0.000619142
0.0140978
-0.000572214
0.0141122
-0.000527953
0.0141211
-0.000486225
0.0141255
-0.000446882
0.0141261
-0.000409772
0.0141239
-0.000374737
0.0141193
-0.00034162
0.014113
-0.000310266
0.0141054
-0.000280523
0.0140971
-0.000252243
0.0140883
-0.000225284
0.0140793
-0.000199506
0.0140705
-0.000174777
0.014062
-0.000150968
0.014054
-0.000127953
0.0140468
-0.000105613
0.0140403
-8.383e-05
0.0140348
-6.24886e-05
0.0140302
-4.14769e-05
0.0140268
-2.0684e-05
0.0140245
0.0140233
-0.0010556
0.013559
0.00111598
-0.000994045
0.0136741
-0.000932884
0.0137672
-0.000873312
0.0138456
-0.000815681
0.0139067
-0.000760455
0.013956
-0.000707707
0.0139957
-0.000657488
0.0140267
-0.000609793
0.0140501
-0.000564575
0.014067
-0.000521757
0.0140783
-0.000481241
0.014085
-0.000442914
0.0140878
-0.000406647
0.0140876
-0.00037231
0.0140849
-0.000339765
0.0140804
-0.000308877
0.0140745
-0.000279508
0.0140677
-0.000251525
0.0140603
-0.000224797
0.0140526
-0.000199197
0.0140449
-0.0001746
0.0140374
-0.000150884
0.0140303
-0.000127933
0.0140238
-0.000105631
0.014018
-8.38663e-05
0.014013
-6.25285e-05
0.0140089
-4.15093e-05
0.0140058
-2.07019e-05
0.0140036
0.0140026
-0.0010167
0.0135044
0.00107121
-0.000960622
0.013618
-0.000904372
0.0137109
-0.000849053
0.0137903
-0.000795132
0.0138528
-0.00074311
0.013904
-0.000693115
0.0139457
-0.000645259
0.0139788
-0.000599586
0.0140044
-0.000556092
0.0140235
-0.000514739
0.0140369
-0.000475465
0.0140457
-0.000438184
0.0140505
-0.000402797
0.0140522
-0.000369195
0.0140513
-0.000337262
0.0140485
-0.00030688
0.0140442
-0.000277928
0.0140388
-0.000250286
0.0140327
-0.000223835
0.0140262
-0.000198457
0.0140195
-0.000174037
0.014013
-0.000150462
0.0140068
-0.000127622
0.014001
-0.000105406
0.0139958
-8.37076e-05
0.0139913
-6.24217e-05
0.0139876
-4.14439e-05
0.0139848
-2.06709e-05
0.0139829
0.0139819
-0.000977937
0.0134555
0.00102691
-0.000927057
0.0135672
-0.000875488
0.0136594
-0.000824258
0.0137391
-0.000773932
0.0138024
-0.000725032
0.0138551
-0.00067774
0.0138984
-0.000632219
0.0139333
-0.000588557
0.0139608
-0.000546788
0.0139817
-0.000506912
0.0139971
-0.000468898
0.0140077
-0.000432689
0.0140143
-0.000398212
0.0140177
-0.000365379
0.0140185
-0.000334095
0.0140172
-0.000304259
0.0140143
-0.000275765
0.0140103
-0.000248507
0.0140054
-0.000222377
0.014
-0.000197268
0.0139944
-0.000173074
0.0139888
-0.000149688
0.0139834
-0.000127007
0.0139783
-0.000104927
0.0139737
-8.33453e-05
0.0139697
-6.2162e-05
0.0139664
-4.12763e-05
0.0139639
-2.05887e-05
0.0139622
0.0139613
-0.000939496
0.0134117
0.000983278
-0.000893503
0.0135212
-0.000846364
0.0136122
-0.00079904
0.0136917
-0.000752172
0.0137556
-0.000706296
0.0138092
-0.000661641
0.0138538
-0.000618412
0.0138901
-0.000576735
0.0139191
-0.000536683
0.0139417
-0.000498287
0.0139587
-0.000461545
0.0139709
-0.000426429
0.0139792
-0.000392887
0.0139842
-0.000360854
0.0139865
-0.000330254
0.0139866
-0.000301003
0.0139851
-0.000273008
0.0139823
-0.000246178
0.0139786
-0.000220414
0.0139743
-0.000195621
0.0139696
-0.0001717
0.0139649
-0.000148553
0.0139602
-0.000126081
0.0139558
-0.000104188
0.0139518
-8.27746e-05
0.0139483
-6.17455e-05
0.0139454
-4.10041e-05
0.0139432
-2.04542e-05
0.0139416
0.0139409
-0.000901518
0.0133727
0.000940464
-0.000860084
0.0134797
-0.000817113
0.0135692
-0.000773496
0.0136481
-0.000729935
0.013712
-0.00068697
0.0137663
-0.000644871
0.0138117
-0.000603879
0.0138491
-0.000564155
0.0138794
-0.000525802
0.0139033
-0.000488881
0.0139218
-0.000453419
0.0139355
-0.00041941
0.0139452
-0.000386826
0.0139516
-0.000355622
0.0139553
-0.00032574
0.0139567
-0.000297109
0.0139564
-0.000269655
0.0139548
-0.000243295
0.0139522
-0.000217944
0.0139489
-0.000193514
0.0139452
-0.000169915
0.0139413
-0.000147056
0.0139374
-0.000124844
0.0139336
-0.000103188
0.0139302
-8.1995e-05
0.0139271
-6.11722e-05
0.0139246
-4.06272e-05
0.0139226
-2.02673e-05
0.0139213
0.0139206
-0.000864114
0.0133383
0.000898593
-0.000826906
0.0134425
-0.000787832
0.0135302
-0.000747715
0.013608
-0.000707298
0.0136716
-0.000667121
0.0137261
-0.000627487
0.0137721
-0.00058867
0.0138103
-0.000550855
0.0138416
-0.000514177
0.0138666
-0.000478722
0.0138863
-0.000444541
0.0139013
-0.000411652
0.0139123
-0.000380046
0.01392
-0.000349697
0.0139249
-0.000320563
0.0139276
-0.000292591
0.0139285
-0.000265716
0.0139279
-0.00023987
0.0139264
-0.000214976
0.013924
-0.000190956
0.0139212
-0.000167726
0.013918
-0.000145204
0.0139148
-0.000123302
0.0139117
-0.000101934
0.0139088
-8.10113e-05
0.0139062
-6.04456e-05
0.013904
-4.0148e-05
0.0139023
-2.00293e-05
0.0139012
0.0139006
-0.000827371
0.0133079
0.000857765
-0.000794058
0.0134092
-0.000758611
0.0134947
-0.000721779
0.0135712
-0.000684336
0.0136342
-0.000646817
0.0136886
-0.000609552
0.0137348
-0.000572838
0.0137736
-0.000536886
0.0138056
-0.000501853
0.0138316
-0.000467851
0.0138523
-0.00043495
0.0138684
-0.000403188
0.0138805
-0.000372578
0.0138894
-0.000343109
0.0138954
-0.000314754
0.0138992
-0.000287474
0.0139012
-0.000261218
0.0139017
-0.000235926
0.0139011
-0.000211532
0.0138996
-0.000187966
0.0138976
-0.000165153
0.0138952
-0.000143014
0.0138927
-0.00012147
0.0138902
-0.000100438
0.0138878
-7.98337e-05
0.0138856
-5.95735e-05
0.0138838
-3.95718e-05
0.0138823
-1.97427e-05
0.0138813
0.0138808
-0.000791364
0.0132812
0.000818041
-0.000761626
0.0133795
-0.000729536
0.0134626
-0.000695773
0.0135374
-0.000661131
0.0135995
-0.000626135
0.0136536
-0.000591137
0.0136998
-0.000556452
0.0137389
-0.00052231
0.0137715
-0.00048889
0.0137982
-0.000456322
0.0138197
-0.000424697
0.0138368
-0.00039407
0.0138499
-0.00036447
0.0138598
-0.000335903
0.0138669
-0.000308356
0.0138717
-0.000281801
0.0138746
-0.000256198
0.0138761
-0.000231499
0.0138764
-0.000207646
0.0138758
-0.000184577
0.0138745
-0.000162223
0.0138729
-0.000140512
0.013871
-0.00011937
0.013869
-9.8718e-05
0.0138671
-7.84774e-05
0.0138654
-5.85675e-05
0.0138638
-3.89064e-05
0.0138627
-1.94116e-05
0.0138618
0.0138614
-0.000756162
0.0132579
0.000779465
-0.000729691
0.013353
-0.000700692
0.0134336
-0.000669785
0.0135065
-0.000637771
0.0135675
-0.000605162
0.013621
-0.000572327
0.013667
-0.000539593
0.0137061
-0.000507207
0.0137391
-0.000475364
0.0137663
-0.00044421
0.0137886
-0.000413854
0.0138064
-0.000384365
0.0138204
-0.000355788
0.0138312
-0.000328142
0.0138392
-0.000301427
0.013845
-0.000275626
0.0138488
-0.00025071
0.0138512
-0.00022664
0.0138523
-0.000203365
0.0138525
-0.000180831
0.013852
-0.000158975
0.013851
-0.000137732
0.0138497
-0.000117031
0.0138483
-9.67998e-05
0.0138469
-7.69625e-05
0.0138455
-5.74425e-05
0.0138443
-3.81617e-05
0.0138434
-1.90408e-05
0.0138427
0.0138424
-0.000721838
0.0132376
0.000742101
-0.000698336
0.0133295
-0.000672171
0.0134075
-0.000643909
0.0134782
-0.000614352
0.0135379
-0.000583995
0.0135906
-0.000553218
0.0136362
-0.000522358
0.0136753
-0.000491671
0.0137084
-0.000461366
0.013736
-0.000431604
0.0137588
-0.000402506
0.0137773
-0.000374157
0.0137921
-0.000346612
0.0138037
-0.000319903
0.0138125
-0.000294041
0.0138191
-0.00026902
0.0138238
-0.00024482
0.013827
-0.000221408
0.0138289
-0.000198744
0.0138298
-0.000176779
0.01383
-0.000155456
0.0138297
-0.000134714
0.013829
-0.000114489
0.0138281
-9.47125e-05
0.0138271
-7.53126e-05
0.0138261
-5.62167e-05
0.0138252
-3.73499e-05
0.0138245
-1.86365e-05
0.013824
0.0138237
-0.000688468
0.0132201
0.000706009
-0.000667646
0.0133087
-0.000644067
0.0133839
-0.000618249
0.0134524
-0.000590982
0.0135107
-0.000562744
0.0135624
-0.000533922
0.0136074
-0.000504854
0.0136462
-0.000475808
0.0136793
-0.000447002
0.0137072
-0.000418607
0.0137304
-0.000390754
0.0137495
-0.000363541
0.0137649
-0.000337034
0.0137772
-0.000311274
0.0137868
-0.000286283
0.0137941
-0.000262062
0.0137996
-0.000238601
0.0138035
-0.000215874
0.0138062
-0.000193848
0.0138078
-0.000172478
0.0138087
-0.000151716
0.0138089
-0.000131504
0.0138088
-0.000111783
0.0138084
-9.24891e-05
0.0138078
-7.35544e-05
0.0138072
-5.49097e-05
0.0138066
-3.64842e-05
0.0138061
-1.82053e-05
0.0138057
0.0138055
-0.000656124
0.013205
0.000671248
-0.000637708
0.0132903
-0.00061648
0.0133627
-0.000592911
0.0134289
-0.000567774
0.0134855
-0.000541526
0.0135361
-0.000514556
0.0135804
-0.000487203
0.0136189
-0.000459739
0.0136519
-0.000432389
0.0136799
-0.000405332
0.0137034
-0.000378709
0.0137228
-0.000352626
0.0137388
-0.000327157
0.0137517
-0.000302353
0.013762
-0.000278244
0.01377
-0.000254839
0.0137762
-0.000232134
0.0137808
-0.000210112
0.0137841
-0.000188743
0.0137864
-0.000167991
0.0137879
-0.000147811
0.0137888
-0.000128151
0.0137891
-0.000108955
0.0137892
-9.01647e-05
0.013789
-7.17158e-05
0.0137887
-5.35429e-05
0.0137884
-3.55787e-05
0.0137881
-1.77543e-05
0.0137879
0.0137878
-0.000624874
0.013192
0.000637868
-0.000608612
0.013274
-0.000589513
0.0133436
-0.000568008
0.0134074
-0.000544846
0.0134624
-0.000520463
0.0135117
-0.000495246
0.0135552
-0.000469529
0.0135931
-0.000443587
0.0136259
-0.000417649
0.0136539
-0.0003919
0.0136776
-0.000366487
0.0136974
-0.000341522
0.0137138
-0.000317087
0.0137273
-0.000293242
0.0137381
-0.00027002
0.0137468
-0.00024744
0.0137536
-0.000225504
0.0137589
-0.000204198
0.0137628
-0.000183502
0.0137657
-0.000163381
0.0137678
-0.000143797
0.0137692
-0.000124703
0.01377
-0.000106048
0.0137705
-8.77747e-05
0.0137707
-6.98252e-05
0.0137708
-5.21374e-05
0.0137707
-3.46476e-05
0.0137706
-1.72905e-05
0.0137705
0.0137705
-0.000594785
0.0131808
0.000605906
-0.000580442
0.0132597
-0.000563265
0.0133264
-0.000543651
0.0133877
-0.000522318
0.013441
-0.000499681
0.0134891
-0.000476118
0.0135316
-0.00045196
0.013569
-0.00042748
0.0136015
-0.000402908
0.0136294
-0.000378433
0.0136531
-0.000354205
0.0136732
-0.000330343
0.01369
-0.000306934
0.0137038
-0.000284041
0.0137152
-0.000261708
0.0137245
-0.000239956
0.0137319
-0.000218792
0.0137377
-0.00019821
0.0137423
-0.000178192
0.0137457
-0.000158711
0.0137483
-0.000139731
0.0137502
-0.000121211
0.0137515
-0.000103102
0.0137524
-8.53536e-05
0.013753
-6.79102e-05
0.0137533
-5.07139e-05
0.0137535
-3.37046e-05
0.0137536
-1.68208e-05
0.0137537
0.0137537
-0.000565918
0.0131714
0.000575392
-0.000553277
0.013247
-0.000537831
0.0133109
-0.000519947
0.0133699
-0.000500306
0.0134214
-0.000479299
0.0134681
-0.000457296
0.0135096
-0.00043462
0.0135463
-0.000411541
0.0135784
-0.000388287
0.0136061
-0.000365048
0.0136299
-0.000341978
0.0136501
-0.000319198
0.0136672
-0.0002968
0.0136814
-0.000274851
0.0136933
-0.000253399
0.013703
-0.000232471
0.0137109
-0.000212078
0.0137173
-0.000192219
0.0137224
-0.00017288
0.0137264
-0.000154039
0.0137295
-0.000135664
0.0137318
-0.000117718
0.0137336
-0.000100157
0.0137349
-8.29335e-05
0.0137358
-6.59964e-05
0.0137364
-4.92915e-05
0.0137368
-3.27625e-05
0.0137371
-1.63516e-05
0.0137372
0.0137373
-0.000538321
0.0131633
0.000546351
-0.000527185
0.0132359
-0.000513298
0.0132971
-0.000496994
0.0133536
-0.000478915
0.0134033
-0.00045943
0.0134486
-0.000438897
0.0134891
-0.000417627
0.013525
-0.000395886
0.0135566
-0.0003739
0.0135841
-0.000351858
0.0136079
-0.000329914
0.0136282
-0.00030819
0.0136455
-0.000286782
0.01366
-0.000265762
0.0136723
-0.000245179
0.0136824
-0.000225064
0.0136908
-0.000205434
0.0136977
-0.000186291
0.0137033
-0.000167625
0.0137077
-0.000149418
0.0137113
-0.000131643
0.013714
-0.000114266
0.0137162
-9.7247e-05
0.0137178
-8.05431e-05
0.0137191
-6.41066e-05
0.01372
-4.78873e-05
0.0137206
-3.18326e-05
0.013721
-1.58885e-05
0.0137213
0.0137214
-0.00051203
0.0131566
0.000518802
-0.000502225
0.0132261
-0.000489739
0.0132846
-0.000474879
0.0133387
-0.000458242
0.0133867
-0.000440175
0.0134305
-0.000421023
0.0134699
-0.000401086
0.0135051
-0.000380621
0.0135362
-0.000359851
0.0135634
-0.000338962
0.013587
-0.000318107
0.0136073
-0.00029741
0.0136248
-0.000276968
0.0136396
-0.000256854
0.0136521
-0.000237122
0.0136627
-0.000217805
0.0136715
-0.000198924
0.0136788
-0.000180484
0.0136848
-0.000162479
0.0136897
-0.000144895
0.0136937
-0.000127708
0.0136969
-0.000110889
0.0136994
-9.44022e-05
0.0137014
-7.82071e-05
0.0137029
-6.22605e-05
0.013704
-4.65158e-05
0.0137049
-3.09246e-05
0.0137054
-1.54364e-05
0.0137058
0.013706
-0.000487069
0.0131509
0.000492748
-0.00047844
0.0132175
-0.000467216
0.0132733
-0.000453674
0.0133251
-0.000438366
0.0133714
-0.000421619
0.0134138
-0.000403764
0.0134521
-0.000385086
0.0134864
-0.000365835
0.0135169
-0.000346226
0.0135438
-0.000326444
0.0135672
-0.000306639
0.0135875
-0.000286935
0.0136051
-0.000267429
0.0136201
-0.000248196
0.0136329
-0.000229291
0.0136438
-0.000210752
0.013653
-0.0001926
0.0136607
-0.000174845
0.0136671
-0.000157485
0.0136724
-0.000140507
0.0136767
-0.000123894
0.0136802
-0.000107617
0.0136831
-9.16465e-05
0.0136854
-7.59453e-05
0.0136872
-6.04736e-05
0.0136885
-4.51889e-05
0.0136896
-3.00462e-05
0.0136903
-1.49991e-05
0.0136908
0.013691
-0.000463447
0.0131462
0.000468178
-0.00045586
0.0132099
-0.000445772
0.0132633
-0.000433432
0.0133128
-0.000419349
0.0133573
-0.000403831
0.0133983
-0.000387191
0.0134354
-0.0003697
0.0134689
-0.0003516
0.0134988
-0.000333098
0.0135253
-0.000314374
0.0135485
-0.000295577
0.0135687
-0.000276827
0.0135863
-0.000258224
0.0136015
-0.000239842
0.0136145
-0.000221737
0.0136257
-0.00020395
0.0136352
-0.000186504
0.0136432
-0.000169412
0.01365
-0.000152675
0.0136556
-0.000136284
0.0136603
-0.000120224
0.0136642
-0.000104471
0.0136673
-8.89984e-05
0.0136699
-7.37727e-05
0.0136719
-5.87579e-05
0.0136735
-4.39152e-05
0.0136747
-2.92033e-05
0.0136756
-1.45795e-05
0.0136761
0.0136764
-0.000441159
0.0131423
0.000445066
-0.000434496
0.0132032
-0.000425432
0.0132542
-0.000414189
0.0133016
-0.000401236
0.0133443
-0.00038686
0.0133839
-0.000371356
0.0134199
-0.000354983
0.0134526
-0.00033797
0.0134818
-0.00032052
0.0135078
-0.000302804
0.0135308
-0.000284969
0.0135509
-0.000267134
0.0135685
-0.000249396
0.0135837
-0.000231831
0.013597
-0.000214496
0.0136083
-0.000197432
0.0136181
-0.000180666
0.0136264
-0.000164211
0.0136335
-0.000148073
0.0136395
-0.000132246
0.0136445
-0.000116717
0.0136487
-0.000101467
0.0136521
-8.64705e-05
0.0136549
-7.16997e-05
0.0136572
-5.71215e-05
0.013659
-4.27007e-05
0.0136603
-2.83998e-05
0.0136613
-1.41796e-05
0.0136619
0.0136622
-0.000420186
0.0131391
0.000423375
-0.000414346
0.0131974
-0.000406206
0.0132461
-0.000395965
0.0132913
-0.000384053
0.0133324
-0.000370735
0.0133706
-0.000356293
0.0134055
-0.00034097
0.0134372
-0.000324983
0.0134658
-0.000308527
0.0134913
-0.000291769
0.013514
-0.00027485
0.013534
-0.000257887
0.0135515
-0.000240976
0.0135668
-0.000224191
0.0135802
-0.000207592
0.0135917
-0.00019122
0.0136017
-0.000175104
0.0136103
-0.000159259
0.0136177
-0.000143694
0.0136239
-0.000128405
0.0136292
-0.000113383
0.0136336
-9.86118e-05
0.0136373
-8.407e-05
0.0136404
-6.9732e-05
0.0136428
-5.55689e-05
0.0136448
-4.15488e-05
0.0136463
-2.76378e-05
0.0136474
-1.38004e-05
0.0136481
0.0136484
-0.000400495
0.0131365
0.000403056
-0.00039539
0.0131923
-0.000388086
0.0132388
-0.00037876
0.013282
-0.000367806
0.0133215
-0.000355471
0.0133582
-0.000342019
0.013392
-0.000327678
0.0134229
-0.000312657
0.0134508
-0.000297139
0.0134758
-0.000281287
0.0134981
-0.000265236
0.0135179
-0.000249101
0.0135354
-0.000232976
0.0135507
-0.000216935
0.0135641
-0.000201037
0.0135759
-0.000185324
0.013586
-0.000169827
0.0135948
-0.000154564
0.0136024
-0.000139544
0.0136089
-0.000124767
0.0136144
-0.000110227
0.0136191
-9.59102e-05
0.013623
-8.17992e-05
0.0136263
-6.78714e-05
0.0136289
-5.41013e-05
0.013631
-4.04603e-05
0.0136326
-2.69179e-05
0.0136338
-1.34422e-05
0.0136346
0.013635
-0.000382043
0.0131345
0.000384052
-0.000377596
0.0131878
-0.000371049
0.0132322
-0.00036256
0.0132735
-0.000352488
0.0133114
-0.000341064
0.0133468
-0.000328533
0.0133795
-0.000315111
0.0134095
-0.000300995
0.0134367
-0.00028636
0.0134612
-0.000271362
0.0134831
-0.000256132
0.0135027
-0.000240781
0.01352
-0.000225401
0.0135353
-0.000210065
0.0135488
-0.000194832
0.0135606
-0.000179745
0.0135709
-0.000164835
0.0135799
-0.000150123
0.0135877
-0.000135621
0.0135944
-0.000121329
0.0136001
-0.000107246
0.013605
-9.336e-05
0.0136091
-7.96565e-05
0.0136126
-6.61165e-05
0.0136154
-5.27174e-05
0.0136176
-3.94341e-05
0.0136194
-2.62394e-05
0.0136206
-1.31046e-05
0.0136215
0.0136219
-0.000364777
0.013133
0.000366298
-0.000360922
0.013184
-0.000355062
0.0132263
-0.000347337
0.0132658
-0.000338076
0.0133021
-0.000327495
0.0133362
-0.000315821
0.0133678
-0.000303256
0.0133969
-0.000289987
0.0134234
-0.000276182
0.0134474
-0.000261988
0.0134689
-0.000247531
0.0134882
-0.00023292
0.0135054
-0.000218243
0.0135207
-0.000203574
0.0135341
-0.00018897
0.013546
-0.000174475
0.0135564
-0.000160121
0.0135656
-0.000145932
0.0135735
-0.000131918
0.0135804
-0.000118086
0.0135863
-0.000104435
0.0135914
-9.09555e-05
0.0135956
-7.7637e-05
0.0135992
-6.44628e-05
0.0136022
-5.14137e-05
0.0136046
-3.84675e-05
0.0136064
-2.56004e-05
0.0136078
-1.27867e-05
0.0136087
0.0136091
-0.000348636
0.0131319
0.000349726
-0.000345316
0.0131806
-0.000340079
0.0132211
-0.000333054
0.0132588
-0.000324539
0.0132936
-0.000314736
0.0133264
-0.000303857
0.0133569
-0.000292091
0.0133851
-0.000279614
0.0134109
-0.000266585
0.0134344
-0.000253144
0.0134555
-0.000239415
0.0134745
-0.0002255
0.0134915
-0.000211487
0.0135066
-0.000197446
0.0135201
-0.000183436
0.013532
-0.0001695
0.0135425
-0.000155673
0.0135517
-0.000141976
0.0135598
-0.000128425
0.0135668
-0.000115027
0.0135729
-0.000101783
0.0135781
-8.86883e-05
0.0135826
-7.5733e-05
0.0135863
-6.29041e-05
0.0135894
-5.0185e-05
0.0135919
-3.75568e-05
0.0135938
-2.49983e-05
0.0135952
-1.24872e-05
0.0135961
0.0135966
-0.000333558
0.0131312
0.000334264
-0.00033072
0.0131778
-0.000326048
0.0132164
-0.000319663
0.0132524
-0.000311834
0.0132858
-0.00030275
0.0133174
-0.000292608
0.0133468
-0.000281584
0.0133741
-0.000269845
0.0133992
-0.000257541
0.0134221
-0.000244807
0.0134428
-0.00023176
0.0134615
-0.000218499
0.0134782
-0.00020511
0.0134933
-0.000191662
0.0135066
-0.000178212
0.0135186
-0.000164804
0.0135291
-0.000151472
0.0135384
-0.00013824
0.0135466
-0.000125126
0.0135537
-0.000112139
0.0135599
-9.92797e-05
0.0135653
-8.65477e-05
0.0135698
-7.39356e-05
0.0135737
-6.14326e-05
0.0135769
-4.90252e-05
0.0135794
-3.66971e-05
0.0135815
-2.44301e-05
0.0135829
-1.22045e-05
0.0135839
0.0135844
-0.000319475
0.0131308
0.000319841
-0.000317073
0.0131754
-0.000312915
0.0132123
-0.000307114
0.0132466
-0.000299915
0.0132786
-0.000291493
0.0133089
-0.000282033
0.0133373
-0.000271698
0.0133638
-0.000260645
0.0133881
-0.000249019
0.0134104
-0.000236945
0.0134307
-0.000224537
0.013449
-0.00021189
0.0134656
-0.000199087
0.0134804
-0.000186197
0.0134938
-0.000173274
0.0135056
-0.000160363
0.0135162
-0.000147499
0.0135255
-0.000134707
0.0135338
-0.000122006
0.013541
-0.000109405
0.0135473
-9.69108e-05
0.0135528
-8.45219e-05
0.0135574
-7.22344e-05
0.0135614
-6.004e-05
0.0135647
-4.79275e-05
0.0135673
-3.58834e-05
0.0135694
-2.38922e-05
0.013571
-1.1937e-05
0.013572
0.0135725
-0.000306322
0.0131308
0.000306386
-0.000304311
0.0131734
-0.00030062
0.0132086
-0.000295351
0.0132413
-0.00028873
0.013272
-0.000280918
0.0133011
-0.000272087
0.0133285
-0.000262391
0.0133541
-0.000251977
0.0133777
-0.000240981
0.0133994
-0.000229524
0.0134192
-0.000217714
0.0134372
-0.000205643
0.0134535
-0.000193391
0.0134682
-0.000181024
0.0134814
-0.000168598
0.0134932
-0.000156156
0.0135037
-0.000143734
0.0135131
-0.000131357
0.0135214
-0.000119046
0.0135287
-0.000106812
0.0135351
-9.46622e-05
0.0135406
-8.25987e-05
0.0135454
-7.0619e-05
0.0135494
-5.87172e-05
0.0135528
-4.68847e-05
0.0135555
-3.51103e-05
0.0135576
-2.33811e-05
0.0135592
-1.16827e-05
0.0135603
0.0135608
-0.000294032
0.013131
0.000293831
-0.000292374
0.0131717
-0.000289105
0.0132053
-0.000284321
0.0132365
-0.000278229
0.0132659
-0.000270977
0.0132939
-0.000262727
0.0133203
-0.000253621
0.013345
-0.0002438
0.0133679
-0.000233391
0.013389
-0.00022251
0.0134084
-0.000211259
0.013426
-0.000199727
0.013442
-0.000187992
0.0134565
-0.000176118
0.0134695
-0.000164159
0.0134812
-0.00015216
0.0134917
-0.000140154
0.0135011
-0.000128171
0.0135094
-0.000116229
0.0135168
-0.000104343
0.0135232
-9.25203e-05
0.0135288
-8.07658e-05
0.0135336
-6.90789e-05
0.0135377
-5.74558e-05
0.0135411
-4.589e-05
0.0135439
-3.43727e-05
0.0135461
-2.28934e-05
0.0135477
-1.14401e-05
0.0135488
0.0135493
-0.000282543
0.0131314
0.000282112
-0.0002812
0.0131704
-0.000278312
0.0132024
-0.000273969
0.0132322
-0.000268359
0.0132603
-0.000261622
0.0132871
-0.000253906
0.0133125
-0.000245347
0.0133364
-0.000236075
0.0133586
-0.000226212
0.0133792
-0.000215867
0.013398
-0.000205139
0.0134153
-0.000194113
0.013431
-0.000182863
0.0134452
-0.000171452
0.0134581
-0.000159934
0.0134697
-0.000148352
0.0134802
-0.000136741
0.0134895
-0.00012513
0.0134978
-0.000113538
0.0135052
-0.000101982
0.0135116
-9.04716e-05
0.0135173
-7.90118e-05
0.0135222
-6.76043e-05
0.0135263
-5.62474e-05
0.0135298
-4.49368e-05
0.0135326
-3.36658e-05
0.0135349
-2.24259e-05
0.0135365
-1.12075e-05
0.0135376
0.0135381
-0.000271796
0.013132
0.000271168
-0.000270733
0.0131693
-0.000268187
0.0131999
-0.000264243
0.0132282
-0.000259072
0.0132551
-0.000252805
0.0132809
-0.000245581
0.0133053
-0.000237526
0.0133284
-0.000228763
0.0133499
-0.000219408
0.0133698
-0.000209563
0.0133882
-0.000199323
0.013405
-0.00018877
0.0134204
-0.000177976
0.0134344
-0.000167001
0.0134471
-0.000155899
0.0134586
-0.000144712
0.013469
-0.000133475
0.0134783
-0.000122216
0.0134866
-0.000110958
0.0134939
-9.97171e-05
0.0135004
-8.8504e-05
0.0135061
-7.73259e-05
0.013511
-6.61861e-05
0.0135152
-5.50847e-05
0.0135187
-4.40192e-05
0.0135216
-3.29849e-05
0.0135238
-2.19755e-05
0.0135255
-1.09833e-05
0.0135266
0.0135272
-0.000261737
0.0131328
0.000260942
-0.000260919
0.0131685
-0.000258678
0.0131976
-0.000255093
0.0132246
-0.000250321
0.0132503
-0.000244484
0.013275
-0.000237711
0.0132985
-0.000230121
0.0133208
-0.000221829
0.0133416
-0.000212945
0.0133609
-0.000203566
0.0133788
-0.000193782
0.0133952
-0.000183673
0.0134103
-0.000173307
0.013424
-0.000162743
0.0134366
-0.000152034
0.0134479
-0.00014122
0.0134582
-0.000130338
0.0134674
-0.000119415
0.0134756
-0.000108475
0.013483
-9.75348e-05
0.0134895
-8.66065e-05
0.0134951
-7.56987e-05
0.0135001
-6.48163e-05
0.0135043
-5.39609e-05
0.0135078
-4.31318e-05
0.0135107
-3.23262e-05
0.013513
-2.15396e-05
0.0135147
-1.07664e-05
0.0135158
0.0135164
-0.000252314
0.0131337
0.000251382
-0.000251709
0.0131679
-0.000249738
0.0131957
-0.000246476
0.0132214
-0.000242065
0.0132459
-0.000236619
0.0132696
-0.000230259
0.0132922
-0.000223096
0.0133136
-0.00021524
0.0133337
-0.000206792
0.0133525
-0.000197848
0.0133698
-0.000188491
0.0133859
-0.000178797
0.0134006
-0.000168834
0.0134141
-0.000158658
0.0134264
-0.000148319
0.0134376
-0.00013786
0.0134477
-0.000127315
0.0134568
-0.000116713
0.013465
-0.000106076
0.0134723
-9.54243e-05
0.0134788
-8.47696e-05
0.0134845
-7.4122e-05
0.0134894
-6.34878e-05
0.0134937
-5.28702e-05
0.0134972
-4.227e-05
0.0135001
-3.16862e-05
0.0135024
-2.1116e-05
0.0135041
-1.05555e-05
0.0135053
0.0135058
-0.000243482