/*--------------------------------*- C++ -*----------------------------------*\
  =========                 |
  \\      /  F ield         | OpenFOAM: The Open Source CFD Toolbox
   \\    /   O peration     | Website:  https://openfoam.org
    \\  /    A nd           | Version:  7
     \\/     M anipulation  |
\*---------------------------------------------------------------------------*/
FoamFile
{
    version     2.0;
    format      ascii;
    class       volScalarField;
    location    "100";
    object      p;
}
// * * * * * * * * * * * * * * * * * * * * * * * * * * * * * * * * * * * * * //

dimensions      [0 2 -2 0 0 0 0];

internalField   nonuniform List<scalar> 
3500
(
-0.246186
-0.226362
-0.207742
-0.191251
-0.176839
-0.164272
-0.153284
-0.143625
-0.135085
-0.127496
-0.120727
-0.114669
-0.109235
-0.104351
-0.099959
-0.0960079
-0.0924558
-0.0892678
-0.0864141
-0.0838693
-0.0816126
-0.0796256
-0.0778931
-0.0764027
-0.0751434
-0.0741066
-0.0732852
-0.0726738
-0.0722684
-0.0720663
-0.246245
-0.225509
-0.206454
-0.189725
-0.175172
-0.162547
-0.151564
-0.141947
-0.133475
-0.125972
-0.119299
-0.113343
-0.108011
-0.103228
-0.0989338
-0.0950754
-0.0916105
-0.0885034
-0.085724
-0.0832469
-0.081051
-0.0791182
-0.0774334
-0.0759842
-0.0747599
-0.073752
-0.0729536
-0.0723593
-0.0719652
-0.0717688
-0.245213
-0.223743
-0.204436
-0.187595
-0.173001
-0.160403
-0.149489
-0.139967
-0.131606
-0.124223
-0.117675
-0.111842
-0.106632
-0.101966
-0.097782
-0.0940275
-0.090659
-0.0876406
-0.0849421
-0.0825383
-0.080408
-0.0785335
-0.0768999
-0.0754947
-0.0743077
-0.0733306
-0.0725566
-0.0719804
-0.0715984
-0.071408
-0.243022
-0.221027
-0.20166
-0.184838
-0.170313
-0.157831
-0.147054
-0.137681
-0.129475
-0.122248
-0.115853
-0.110168
-0.105098
-0.100566
-0.0965057
-0.0928661
-0.0896034
-0.0866817
-0.0840708
-0.0817459
-0.079686
-0.0778738
-0.0762946
-0.0749363
-0.073789
-0.0728444
-0.0720962
-0.0715393
-0.07117
-0.070986
-0.239634
-0.21734
-0.198108
-0.181443
-0.167101
-0.154825
-0.144257
-0.135089
-0.127082
-0.120048
-0.113835
-0.108322
-0.103413
-0.0990296
-0.0951074
-0.0915941
-0.0884466
-0.0856294
-0.0831128
-0.0808723
-0.0788876
-0.0771415
-0.07562
-0.0743113
-0.0732059
-0.0722957
-0.0715747
-0.071038
-0.0706821
-0.0705048
-0.235034
-0.212679
-0.193777
-0.177408
-0.163366
-0.151387
-0.141099
-0.132192
-0.124431
-0.117626
-0.111625
-0.106308
-0.10158
-0.0973616
-0.0935905
-0.0902147
-0.0871918
-0.0844868
-0.082071
-0.0799205
-0.0780154
-0.0763394
-0.0748788
-0.0736223
-0.0725608
-0.0716868
-0.0709944
-0.0704789
-0.070137
-0.0699666
-0.229234
-0.207064
-0.18868
-0.172745
-0.159117
-0.147525
-0.137586
-0.128998
-0.121527
-0.114987
-0.109227
-0.104131
-0.0996023
-0.0955658
-0.0919592
-0.0887318
-0.0858426
-0.0832576
-0.0809489
-0.0788936
-0.0770726
-0.0754703
-0.0740736
-0.0728719
-0.0718565
-0.0710202
-0.0703575
-0.0698642
-0.0695369
-0.0693738
-0.222273
-0.20053
-0.182841
-0.167473
-0.154371
-0.143252
-0.133731
-0.125515
-0.118379
-0.112138
-0.106649
-0.101796
-0.0974869
-0.0936476
-0.0902183
-0.0871501
-0.0844033
-0.0819456
-0.0797501
-0.0777951
-0.0760624
-0.0745373
-0.0732075
-0.0720629
-0.0710954
-0.0702985
-0.0696668
-0.0691964
-0.0688843
-0.0687288
-0.214212
-0.193132
-0.1763
-0.161623
-0.149152
-0.138588
-0.129548
-0.121757
-0.114997
-0.109091
-0.103899
-0.0993116
-0.09524
-0.091613
-0.0883734
-0.0854745
-0.0828787
-0.0805551
-0.0784787
-0.0766287
-0.0749884
-0.0735437
-0.0722835
-0.0711983
-0.0702806
-0.0695243
-0.0689247
-0.068478
-0.0681817
-0.068034
-0.205136
-0.184937
-0.169105
-0.155233
-0.143491
-0.133555
-0.125057
-0.117739
-0.111395
-0.105854
-0.100987
-0.0966862
-0.0928694
-0.089469
-0.0864307
-0.0837108
-0.0812738
-0.079091
-0.0771389
-0.0753985
-0.0738542
-0.0724931
-0.0713049
-0.0702811
-0.0694148
-0.0687005
-0.068134
-0.0677118
-0.0674317
-0.067292
-0.195147
-0.176024
-0.161316
-0.148351
-0.137423
-0.128182
-0.120281
-0.113481
-0.107588
-0.102444
-0.0979236
-0.0939299
-0.0903841
-0.0872233
-0.0843972
-0.0818651
-0.0795942
-0.0775582
-0.0757355
-0.0741087
-0.0726637
-0.071389
-0.0702751
-0.0693145
-0.0685012
-0.0678301
-0.0672975
-0.0669005
-0.0666369
-0.0665055
-0.18436
-0.166485
-0.152998
-0.141029
-0.13099
-0.122503
-0.115246
-0.109005
-0.103596
-0.0988732
-0.0947228
-0.0910537
-0.0877935
-0.0848845
-0.0822803
-0.0799441
-0.077846
-0.0759622
-0.0742733
-0.0727639
-0.0714212
-0.0702352
-0.0691977
-0.068302
-0.0675428
-0.0669159
-0.0664181
-0.0660468
-0.0658002
-0.0656772
-0.1729
-0.156412
-0.144224
-0.133325
-0.124236
-0.116551
-0.109982
-0.104333
-0.0994367
-0.0951599
-0.0913986
-0.0880699
-0.0851084
-0.0824617
-0.0800883
-0.0779551
-0.0760356
-0.0743087
-0.0727576
-0.0713686
-0.0701309
-0.0690358
-0.0680763
-0.0672468
-0.066543
-0.0659612
-0.0654987
-0.0651536
-0.0649243
-0.0648099
-0.160896
-0.145905
-0.135069
-0.125299
-0.117209
-0.110367
-0.104519
-0.0994915
-0.0951324
-0.0913216
-0.0879659
-0.0849915
-0.0823398
-0.0799647
-0.0778296
-0.0759055
-0.0741696
-0.0726038
-0.0711936
-0.0699278
-0.0687972
-0.0677948
-0.0669147
-0.0661526
-0.0655049
-0.0649689
-0.0645424
-0.0642238
-0.064012
-0.0639063
-0.148477
-0.135062
-0.125611
-0.117013
-0.109958
-0.103989
-0.0988898
-0.0945078
-0.0907055
-0.0873773
-0.0844411
-0.0818322
-0.0794998
-0.0774039
-0.0755132
-0.0738033
-0.0722551
-0.0708536
-0.0695871
-0.0684465
-0.0674248
-0.0665163
-0.0657168
-0.0650229
-0.0644321
-0.0639423
-0.0635521
-0.0632603
-0.0630662
-0.0629693
-0.13577
-0.12398
-0.115925
-0.108529
-0.102532
-0.0974578
-0.0931288
-0.0894097
-0.0861795
-0.0833468
-0.0808409
-0.0786066
-0.0766007
-0.0747899
-0.0731486
-0.0716568
-0.0702993
-0.0690646
-0.0679437
-0.0669299
-0.0660182
-0.0652047
-0.0644864
-0.0638614
-0.0633278
-0.0628846
-0.062531
-0.0622662
-0.0620899
-0.0620018
-0.122895
-0.11275
-0.106088
-0.09991
-0.0949824
-0.090816
-0.0872701
-0.084226
-0.0815786
-0.0792506
-0.0771829
-0.0753295
-0.0736554
-0.0721341
-0.0707454
-0.0694743
-0.0683097
-0.0672434
-0.0662693
-0.0653833
-0.0645823
-0.0638642
-0.0632277
-0.0626716
-0.0621956
-0.0617991
-0.0614821
-0.0612443
-0.0610858
-0.0610066
-0.109965
-0.101461
-0.0961724
-0.0912154
-0.0873581
-0.0841046
-0.0813483
-0.0789858
-0.0769274
-0.0751097
-0.0734848
-0.0720162
-0.0706771
-0.0694477
-0.0683135
-0.0672646
-0.0662939
-0.0653967
-0.06457
-0.063812
-0.0631219
-0.0624994
-0.0619444
-0.0614574
-0.0610388
-0.060689
-0.0604085
-0.0601977
-0.060057
-0.0599866
-0.0970824
-0.0901935
-0.0862474
-0.0825031
-0.0797073
-0.0773643
-0.0753981
-0.0737184
-0.0722508
-0.0709452
-0.0697647
-0.0686823
-0.0676792
-0.0667422
-0.0658631
-0.0650364
-0.0642595
-0.0635313
-0.0628516
-0.0622214
-0.0616418
-0.0611144
-0.0606407
-0.0602224
-0.0598609
-0.0595575
-0.0593133
-0.0591294
-0.0590064
-0.0589447
-0.084338
-0.0790213
-0.0763782
-0.0738281
-0.0720769
-0.0706352
-0.0694533
-0.0684527
-0.0675735
-0.0667782
-0.0660408
-0.0653434
-0.064675
-0.0640294
-0.0634041
-0.0627986
-0.0622144
-0.061654
-0.0611203
-0.0606168
-0.0601469
-0.0597138
-0.0593206
-0.0589703
-0.0586653
-0.0584078
-0.0581996
-0.0580422
-0.0579367
-0.0578837
-0.0718134
-0.0680121
-0.066625
-0.0652421
-0.0645114
-0.0639558
-0.0635471
-0.0632172
-0.0629198
-0.0626298
-0.0623311
-0.0620149
-0.061678
-0.0613209
-0.0609466
-0.0605599
-0.0601662
-0.0597716
-0.0593821
-0.0590037
-0.0586419
-0.0583018
-0.057988
-0.0577047
-0.0574554
-0.0572432
-0.0570704
-0.0569392
-0.0568508
-0.0568064
-0.0595801
-0.057227
-0.0570438
-0.0567937
-0.0570535
-0.0573633
-0.0577118
-0.0580397
-0.058314
-0.0585207
-0.0586536
-0.0587124
-0.0587016
-0.0586282
-0.0585009
-0.0583291
-0.0581226
-0.0578908
-0.0576429
-0.0573873
-0.0571316
-0.0568827
-0.0566469
-0.0564293
-0.0562346
-0.0560667
-0.0559287
-0.0558231
-0.0557516
-0.0557156
-0.0477003
-0.0467204
-0.0476862
-0.0485283
-0.0497435
-0.0508935
-0.0519785
-0.0529474
-0.0537794
-0.0544712
-0.0550257
-0.055451
-0.0557589
-0.0559627
-0.0560766
-0.0561148
-0.056091
-0.0560183
-0.0559086
-0.0557728
-0.0556207
-0.0554608
-0.0553009
-0.0551475
-0.0550061
-0.0548815
-0.0547773
-0.0546967
-0.0546417
-0.0546139
-0.0362282
-0.0365421
-0.0386
-0.0404878
-0.0426193
-0.0445802
-0.046377
-0.0479662
-0.0493387
-0.0505011
-0.0514646
-0.0522455
-0.0528627
-0.0533355
-0.0536834
-0.0539254
-0.054079
-0.0541606
-0.0541849
-0.0541653
-0.0541136
-0.0540402
-0.053954
-0.0538628
-0.0537732
-0.0536905
-0.0536192
-0.0535628
-0.0535238
-0.0535039
-0.02521
-0.0267379
-0.029829
-0.0327112
-0.0357171
-0.0384559
-0.0409358
-0.0431212
-0.0450141
-0.0466294
-0.0479868
-0.0491103
-0.0500254
-0.0507573
-0.0513308
-0.0517691
-0.0520936
-0.0523238
-0.0524773
-0.0525698
-0.052615
-0.0526248
-0.0526097
-0.0525785
-0.0525387
-0.0524966
-0.052457
-0.052424
-0.0524005
-0.0523882
-0.0146863
-0.0173506
-0.0214131
-0.0252349
-0.029071
-0.0325512
-0.035682
-0.0384364
-0.0408264
-0.0428745
-0.0446083
-0.0460592
-0.047259
-0.0482386
-0.0490278
-0.0496537
-0.0501416
-0.0505141
-0.0507912
-0.050991
-0.0511288
-0.0512185
-0.0512715
-0.0512978
-0.0513059
-0.0513026
-0.0512935
-0.0512829
-0.0512741
-0.0512692
-0.00469365
-0.00841916
-0.0133887
-0.0180931
-0.0227131
-0.0268948
-0.0306413
-0.0339349
-0.0367959
-0.0392538
-0.0413442
-0.0431053
-0.0445749
-0.0457894
-0.0467828
-0.0475868
-0.0482297
-0.0487371
-0.0491317
-0.0494333
-0.0496593
-0.0498248
-0.0499426
-0.0500238
-0.0500774
-0.0501111
-0.050131
-0.0501419
-0.0501472
-0.0501493
0.00473202
2.20235e-05
-0.0057893
-0.0113178
-0.0166739
-0.0215141
-0.0258381
-0.0296383
-0.0329414
-0.0357838
-0.038209
-0.0402612
-0.041984
-0.0434188
-0.0446043
-0.0455754
-0.0463641
-0.0469985
-0.0475035
-0.0479011
-0.0482103
-0.0484474
-0.0486264
-0.0487593
-0.048856
-0.0489247
-0.0489721
-0.0490033
-0.049022
-0.0490308
0.013557
0.00793928
0.00135314
-0.00493961
-0.0109822
-0.0164345
-0.0212956
-0.0255673
-0.0292808
-0.0324804
-0.0352162
-0.0375386
-0.0394964
-0.0411359
-0.0424996
-0.0436262
-0.0445505
-0.0453031
-0.0459112
-0.0463984
-0.0467852
-0.0470893
-0.0473257
-0.0475071
-0.0476442
-0.0477458
-0.047819
-0.0478693
-0.0479006
-0.0479156
0.0217493
0.0152989
0.00800923
0.00101184
-0.0056654
-0.0116799
-0.0170359
-0.021741
-0.0258309
-0.029358
-0.0323785
-0.0349483
-0.0371215
-0.0389486
-0.0404759
-0.0417453
-0.0427943
-0.0436558
-0.044359
-0.0449289
-0.0453876
-0.0457537
-0.0460432
-0.0462697
-0.0464444
-0.0465767
-0.0466739
-0.0467419
-0.046785
-0.0468058
0.0292784
0.0220658
0.0141514
0.00650733
-0.000749075
-0.00727313
-0.0130799
-0.0181772
-0.0226072
-0.0264301
-0.0297075
-0.0325005
-0.0348679
-0.0368644
-0.0385396
-0.0399383
-0.0411004
-0.0420609
-0.0428506
-0.043496
-0.0440203
-0.0444433
-0.0447816
-0.0450495
-0.0452588
-0.0454193
-0.0455387
-0.0456232
-0.045677
-0.0457033
0.0361105
0.0282041
0.0197522
0.0115202
0.0037458
-0.00323628
-0.00944692
-0.0148928
-0.0196242
-0.0237091
-0.0272136
-0.0302042
-0.0327434
-0.0348899
-0.0366965
-0.0382102
-0.0394732
-0.0405222
-0.0413894
-0.0421027
-0.0426863
-0.0431605
-0.0435431
-0.0438486
-0.0440894
-0.0442756
-0.0444153
-0.0445147
-0.0445785
-0.0446097
0.042189
0.0337083
0.0247882
0.0160248
0.00779784
0.000409062
-0.00615441
-0.0119021
-0.0168953
-0.0212068
-0.0249066
-0.0280669
-0.0307547
-0.0330312
-0.0349516
-0.0365654
-0.0379164
-0.039043
-0.0399785
-0.0407518
-0.0413878
-0.0419077
-0.0423297
-0.0426689
-0.042938
-0.0431473
-0.0433053
-0.0434183
-0.043491
-0.0435266
0.0474613
0.0385918
0.0292254
0.0199815
0.0113738
0.00363994
-0.00321895
-0.00921662
-0.0144305
-0.0189324
-0.0227949
-0.0260967
-0.0289077
-0.0312931
-0.0333092
-0.0350076
-0.0364335
-0.0376263
-0.0386204
-0.0394454
-0.040127
-0.0406868
-0.0411434
-0.0415122
-0.0418062
-0.042036
-0.0422102
-0.0423352
-0.0424159
-0.0424555
0.0519812
0.042712
0.0329933
0.0233703
0.0144472
0.00643739
-0.000653791
-0.00685324
-0.0122406
-0.0168917
-0.0208812
-0.0242995
-0.0272078
-0.0296796
-0.031773
-0.03354
-0.0350269
-0.0362744
-0.0373172
-0.0381857
-0.0389058
-0.0394995
-0.0399856
-0.0403799
-0.0406954
-0.040943
-0.0411312
-0.0412668
-0.0413545
-0.0413975
0.0556202
0.0461043
0.0360675
0.0261615
0.0169999
0.00878594
0.00152373
-0.00482243
-0.0103327
-0.0150891
-0.0191746
-0.0226774
-0.0256566
-0.0281947
-0.0303456
-0.0321647
-0.0336989
-0.0349891
-0.0360707
-0.0369741
-0.0377254
-0.0383469
-0.0388576
-0.0392731
-0.0396068
-0.0398695
-0.0400697
-0.0402141
-0.0403078
-0.0403538
0.0584322
0.0487018
0.0384341
0.028338
0.0190197
0.0106739
0.00330435
-0.00313168
-0.00871591
-0.0135357
-0.0176776
-0.0212287
-0.0242589
-0.026839
-0.0290293
-0.0308837
-0.0324508
-0.0337718
-0.0348819
-0.0358116
-0.036587
-0.0372303
-0.0377604
-0.038193
-0.0385414
-0.0388163
-0.0390263
-0.0391782
-0.0392768
-0.0393253
0.0603492
0.0504968
0.0400765
0.0298807
0.0204905
0.0120898
0.00468097
-0.00178521
-0.00739352
-0.0122342
-0.0163956
-0.0199627
-0.0230117
-0.025613
-0.0278239
-0.0296976
-0.0312833
-0.0326231
-0.0337516
-0.0346991
-0.0354914
-0.0361503
-0.0366947
-0.0371402
-0.0374999
-0.0377843
-0.0380021
-0.0381598
-0.0382624
-0.0383128
0.0613615
0.0514523
0.0409695
0.0307703
0.0213982
0.0130243
0.0056477
-0.000786972
-0.00636695
-0.0111841
-0.0153274
-0.0188804
-0.0219198
-0.0245159
-0.0267285
-0.0286063
-0.0301967
-0.0315432
-0.0326801
-0.0336369
-0.0344388
-0.0351074
-0.0356611
-0.0361153
-0.0364828
-0.0367741
-0.0369975
-0.0371595
-0.037265
-0.037317
0.0614444
0.0515374
0.0410924
0.0309915
0.0217329
0.013472
0.00620154
-0.000138444
-0.00563642
-0.0103844
-0.0144711
-0.0179787
-0.0209823
-0.0235498
-0.0257419
-0.0276083
-0.0291906
-0.0305316
-0.0316671
-0.0326248
-0.0334292
-0.0341016
-0.0346596
-0.0351185
-0.0354905
-0.0357859
-0.0360129
-0.0361778
-0.0362852
-0.0363381
0.0605676
0.0507339
0.0404298
0.0305335
0.0214894
0.0134308
0.00634293
0.00016225
-0.00519946
-0.00983267
-0.0138242
-0.0172542
-0.0201953
-0.0227126
-0.0248644
-0.0267013
-0.0282636
-0.0295874
-0.0307119
-0.0316623
-0.0324624
-0.0331327
-0.0336903
-0.0341498
-0.0345231
-0.0348201
-0.0350486
-0.0352148
-0.0353232
-0.0353767
0.05871
0.0490304
0.0389714
0.029391
0.0206668
0.0129029
0.00607596
0.000120162
-0.00505074
-0.00952384
-0.0133822
-0.0167027
-0.0195548
-0.0220001
-0.0240938
-0.0258844
-0.0274121
-0.0287101
-0.0298135
-0.0307484
-0.0315375
-0.0322002
-0.0327527
-0.033209
-0.0335804
-0.0338765
-0.0341046
-0.0342708
-0.0343793
-0.0344328
0.0558635
0.0464221
0.0367144
0.0275654
0.01927
0.0118953
0.00540867
-0.000256404
-0.00518219
-0.0094504
-0.0131387
-0.0163188
-0.0190559
-0.0214078
-0.0234258
-0.0251552
-0.0266348
-0.0278964
-0.0289699
-0.0298819
-0.0306536
-0.0313033
-0.0318463
-0.0322957
-0.0326623
-0.0329549
-0.0331809
-0.0333456
-0.0334533
-0.0335064
0.0520302
0.0429134
0.0336652
0.0250662
0.0173104
0.0104203
0.00435351
-0.000955615
-0.00558298
-0.0096026
-0.0130848
-0.016095
-0.0186926
-0.0209305
-0.0228558
-0.0245101
-0.0259293
-0.0271436
-0.0281788
-0.0290609
-0.0298094
-0.030441
-0.0309703
-0.0314093
-0.0317681
-0.0320552
-0.0322771
-0.0324391
-0.0325451
-0.0325975
0.0472228
0.0385195
0.0298407
0.0219119
0.0148066
0.00849621
0.00292759
-0.0019619
-0.00623927
-0.00996837
-0.0132103
-0.0160224
-0.0184571
-0.0205618
-0.0223785
-0.0239444
-0.025292
-0.0264487
-0.0274379
-0.0282835
-0.0290031
-0.029612
-0.0301236
-0.0305489
-0.0308973
-0.0311766
-0.0313929
-0.031551
-0.0316545
-0.0317056
0.0414665
0.0332673
0.0252695
0.0181308
0.0117853
0.00614738
0.00115291
-0.00325587
-0.00713426
-0.0105333
-0.0135026
-0.0160904
-0.0183408
-0.0202944
-0.0219876
-0.0234529
-0.0247188
-0.0258083
-0.0267444
-0.0275473
-0.0282328
-0.0288147
-0.0293049
-0.0297135
-0.0300491
-0.0303185
-0.0305276
-0.0306807
-0.030781
-0.0308306
0.0348001
0.027197
0.019993
0.0137619
0.00828157
0.00340483
-0.000943504
-0.00481433
-0.00824815
-0.0112805
-0.0139479
-0.0162873
-0.0183337
-0.0201201
-0.0216765
-0.0230301
-0.0242049
-0.0252181
-0.0260948
-0.0268497
-0.0274965
-0.0280473
-0.0285128
-0.0289019
-0.0292223
-0.0294802
-0.0296807
-0.0298277
-0.0299241
-0.0299718
0.0272768
0.0203627
0.0140658
0.00885532
0.00433918
0.000306206
-0.00332964
-0.0066103
-0.00955831
-0.0121911
-0.0145302
-0.0165998
-0.0184248
-0.0200296
-0.0214373
-0.0226695
-0.023746
-0.0246734
-0.0254859
-0.0261879
-0.0267917
-0.0273079
-0.0277456
-0.0281128
-0.028416
-0.0286607
-0.0288513
-0.0289912
-0.0290831
-0.0291287
0.0189652
0.0128338
0.00755665
0.00347238
1.06007e-05
-0.00310429
-0.00596863
-0.00861324
-0.0110394
-0.0132441
-0.0152322
-0.0170137
-0.0186023
-0.0200131
-0.0212618
-0.0223642
-0.0233381
-0.0241681
-0.024914
-0.0255588
-0.0261159
-0.0265943
-0.0270017
-0.0273447
-0.0276289
-0.0278589
-0.0280385
-0.0281706
-0.0282574
-0.0283005
0.00994992
0.00469548
0.000547709
-0.00231459
-0.0046433
-0.00677621
-0.0088191
-0.0107893
-0.0126638
-0.0144168
-0.0160351
-0.0175135
-0.0188534
-0.02006
-0.0211412
-0.0221057
-0.0229622
-0.0237103
-0.0243765
-0.0249593
-0.0254663
-0.0259042
-0.0262791
-0.0265961
-0.0268597
-0.0270737
-0.0272413
-0.0273648
-0.0274461
-0.0274865
0.000332032
-0.00395126
-0.00686541
-0.00842298
-0.00955394
-0.0106535
-0.0118356
-0.0131018
-0.0144015
-0.0156848
-0.016919
-0.018083
-0.0191648
-0.0201594
-0.0210666
-0.0218878
-0.0226256
-0.0232816
-0.0238677
-0.0243857
-0.0248401
-0.0252353
-0.0255757
-0.0258651
-0.0261068
-0.0263039
-0.0264586
-0.0265729
-0.0266484
-0.0266858
-0.00977073
-0.0129899
-0.0145749
-0.0147611
-0.014646
-0.0146751
-0.0149694
-0.0155116
-0.0162209
-0.0170226
-0.0178633
-0.0187052
-0.0195227
-0.0203002
-0.0210288
-0.0217029
-0.0223198
-0.0228785
-0.0233831
-0.0238343
-0.0242341
-0.024585
-0.0248895
-0.0251501
-0.0253689
-0.0255481
-0.0256893
-0.025794
-0.0258632
-0.0258976
-0.0202244
-0.0222898
-0.0224623
-0.0212296
-0.0198388
-0.0187763
-0.0181694
-0.017978
-0.0180892
-0.0184039
-0.0188467
-0.0193629
-0.0199128
-0.020471
-0.0210179
-0.0215433
-0.0220377
-0.0224967
-0.0229184
-0.0233014
-0.0236455
-0.0239508
-0.0242184
-0.0244492
-0.0246444
-0.0248051
-0.0249323
-0.0250269
-0.0250896
-0.0251208
-0.0308798
-0.0317082
-0.0304008
-0.027724
-0.0250477
-0.0228901
-0.0213829
-0.020459
-0.0199731
-0.0198018
-0.0198478
-0.0200388
-0.0203216
-0.0206595
-0.0210247
-0.0214008
-0.0217728
-0.0221308
-0.022469
-0.0227833
-0.0230709
-0.0233301
-0.0235601
-0.0237606
-0.0239316
-0.0240734
-0.0241862
-0.0242705
-0.0243265
-0.0243545
-0.0415748
-0.0410924
-0.0382583
-0.0341369
-0.0301863
-0.0269484
-0.024557
-0.0229124
-0.0218395
-0.0211895
-0.020845
-0.0207154
-0.0207339
-0.0208537
-0.0210399
-0.0212685
-0.0215185
-0.0217757
-0.0220307
-0.0222763
-0.0225073
-0.0227202
-0.0229124
-0.0230824
-0.023229
-0.0233516
-0.0234499
-0.0235238
-0.023573
-0.0235976
-0.0521373
-0.0502831
-0.045901
-0.0403602
-0.0351688
-0.0308841
-0.0276394
-0.0252969
-0.0236561
-0.022541
-0.0218167
-0.0213748
-0.0211356
-0.021043
-0.0210549
-0.0211385
-0.0212683
-0.0214263
-0.0215991
-0.0217768
-0.0219518
-0.0221186
-0.0222733
-0.0224127
-0.022535
-0.0226384
-0.0227222
-0.0227855
-0.0228279
-0.0228492
-0.0623892
-0.0591185
-0.0531966
-0.0462895
-0.0399108
-0.034633
-0.0305804
-0.0275727
-0.0253914
-0.02383
-0.0227412
-0.0220016
-0.0215138
-0.0212176
-0.0210605
-0.0210032
-0.0210162
-0.0210774
-0.02117
-0.0212812
-0.0214013
-0.0215229
-0.0216405
-0.0217499
-0.021848
-0.0219325
-0.0220017
-0.0220546
-0.0220902
-0.0221081
-0.0721522
-0.0674385
-0.0600197
-0.0518264
-0.0443334
-0.0381339
-0.033335
-0.0297023
-0.027013
-0.0250278
-0.0236071
-0.0225777
-0.021857
-0.0213668
-0.0210476
-0.0208554
-0.0207563
-0.0207242
-0.0207393
-0.0207861
-0.0208529
-0.0209305
-0.021012
-0.021092
-0.0211664
-0.0212323
-0.0212874
-0.0213299
-0.0213589
-0.0213735
-0.0812519
-0.0750904
-0.0662551
-0.0568778
-0.0483708
-0.041331
-0.0358575
-0.0316471
-0.028494
-0.0261285
-0.0243823
-0.0230929
-0.0221536
-0.0214802
-0.0210083
-0.0206886
-0.020483
-0.0203622
-0.0203032
-0.0202884
-0.0203039
-0.0203392
-0.0203858
-0.0204374
-0.0204889
-0.0205367
-0.0205779
-0.0206105
-0.020633
-0.0206444
-0.0895246
-0.081932
-0.0717977
-0.061371
-0.0519639
-0.0441654
-0.0381097
-0.0333893
-0.0298075
-0.0270998
-0.0250637
-0.0235336
-0.0223921
-0.0215492
-0.0209353
-0.0204966
-0.0201914
-0.019987
-0.0198581
-0.019785
-0.0197519
-0.0197468
-0.0197601
-0.0197844
-0.019814
-0.0198444
-0.0198723
-0.0198952
-0.0199114
-0.0199198
-0.0968177
-0.0878347
-0.0765791
-0.065261
-0.055045
-0.0466383
-0.0400214
-0.0348833
-0.030942
-0.0279303
-0.0256347
-0.0238872
-0.0225628
-0.0215658
-0.0208221
-0.0202741
-0.0198767
-0.0195948
-0.0194008
-0.0192731
-0.0191944
-0.0191513
-0.0191332
-0.0191317
-0.0191404
-0.0191543
-0.0191695
-0.0191832
-0.0191934
-0.0191988
-0.102981
-0.0927436
-0.0805654
-0.0684224
-0.0575921
-0.0486679
-0.0416164
-0.0361228
-0.0318771
-0.0286027
-0.026082
-0.0241438
-0.0226576
-0.0215233
-0.0206629
-0.0200159
-0.0195348
-0.0191821
-0.0189283
-0.0187502
-0.0186292
-0.0185508
-0.0185034
-0.0184778
-0.0184669
-0.0184652
-0.0184685
-0.0184735
-0.018478
-0.0184806
-0.107911
-0.096645
-0.0836403
-0.0708464
-0.0595409
-0.0502434
-0.0428666
-0.0370897
-0.0325958
-0.029105
-0.0263961
-0.0242956
-0.0226698
-0.0214157
-0.0204527
-0.0197181
-0.0191622
-0.0187458
-0.018438
-0.0182141
-0.0180546
-0.0179437
-0.0178693
-0.0178214
-0.0177924
-0.0177763
-0.0177684
-0.0177652
-0.0177644
-0.0177644
-0.111615
-0.0993911
-0.0857418
-0.0724969
-0.0608981
-0.0513569
-0.0437542
-0.0377715
-0.0330896
-0.0294296
-0.0265697
-0.024336
-0.0225939
-0.0212384
-0.0201876
-0.0193771
-0.0187558
-0.0182834
-0.0179277
-0.0176629
-0.0174687
-0.0173286
-0.0172296
-0.0171615
-0.0171159
-0.0170865
-0.0170683
-0.0170577
-0.017052
-0.0170496
-0.113993
-0.100986
-0.0868735
-0.0734034
-0.0616678
-0.0520048
-0.0442754
-0.0381635
-0.0333536
-0.0295716
-0.026598
-0.0242609
-0.0224258
-0.0209878
-0.0198643
-0.0189901
-0.0183133
-0.0177928
-0.0173954
-0.0170949
-0.0168702
-0.0167042
-0.0165834
-0.016497
-0.0164365
-0.0163951
-0.0163677
-0.0163503
-0.0163401
-0.0163355
-0.115016
-0.101432
-0.0870973
-0.0735878
-0.0618593
-0.0521939
-0.0444329
-0.0382659
-0.0333866
-0.0295288
-0.0264786
-0.0240674
-0.0221631
-0.0206616
-0.0194807
-0.0185551
-0.0178328
-0.0172722
-0.0168398
-0.0165089
-0.0162579
-0.0160694
-0.0159296
-0.0158272
-0.0157535
-0.0157015
-0.0156657
-0.0156423
-0.0156282
-0.0156216
-0.114701
-0.100805
-0.0864599
-0.0730781
-0.0614948
-0.0519391
-0.0442352
-0.0380836
-0.033191
-0.0293022
-0.0262112
-0.023755
-0.0218047
-0.0202585
-0.0190354
-0.0180709
-0.0173131
-0.0167206
-0.0162598
-0.0159039
-0.015631
-0.0154236
-0.0152675
-0.0151514
-0.0150663
-0.015005
-0.0149621
-0.0149333
-0.0149157
-0.0149074
-0.113149
-0.0991667
-0.0850133
-0.0719169
-0.0606065
-0.0512622
-0.0436966
-0.0376256
-0.0327725
-0.0288952
-0.0257978
-0.0233244
-0.0213509
-0.0197784
-0.0185281
-0.0175368
-0.0167535
-0.0161372
-0.0156548
-0.0152792
-0.0149888
-0.014766
-0.0145966
-0.0144691
-0.0143744
-0.0143053
-0.0142563
-0.0142229
-0.0142023
-0.0141925
-0.110467
-0.0966043
-0.0828278
-0.0701578
-0.0592336
-0.0501906
-0.0428359
-0.0369051
-0.03214
-0.0283137
-0.0252423
-0.0227782
-0.020803
-0.019222
-0.0179591
-0.016953
-0.016154
-0.015522
-0.0150243
-0.0146345
-0.014331
-0.0140964
-0.0139165
-0.01378
-0.0136776
-0.0136021
-0.013548
-0.0135109
-0.0134878
-0.0134767
-0.106768
-0.093223
-0.079984
-0.0678613
-0.0574207
-0.0487561
-0.0416757
-0.0359381
-0.0313046
-0.0275656
-0.0245503
-0.0221203
-0.0201639
-0.0185912
-0.0173297
-0.0163202
-0.0155149
-0.014875
-0.0143686
-0.0139698
-0.0136575
-0.0134146
-0.0132271
-0.0130838
-0.0129755
-0.0128951
-0.012837
-0.0127969
-0.0127718
-0.0127597
-0.102186
-0.0891364
-0.0765689
-0.0650934
-0.0552165
-0.046994
-0.040242
-0.0347433
-0.03028
-0.0266608
-0.0237289
-0.0213558
-0.0194373
-0.0178888
-0.0166417
-0.0156398
-0.0148374
-0.014197
-0.013688
-0.0132853
-0.0129685
-0.0127207
-0.0125285
-0.0123806
-0.0122682
-0.0121843
-0.0121232
-0.012081
-0.0120544
-0.0120415
-0.0968638
-0.0844612
-0.0726717
-0.0619216
-0.0526712
-0.0449414
-0.038562
-0.0333409
-0.0290812
-0.0256105
-0.0227863
-0.0204908
-0.0186276
-0.017118
-0.0158976
-0.0149136
-0.0141225
-0.0134888
-0.0129832
-0.0125815
-0.0122642
-0.0120149
-0.0118205
-0.0116703
-0.0115556
-0.0114695
-0.0114067
-0.0113629
-0.0113353
-0.011322
-0.0909471
-0.079315
-0.0683821
-0.0584149
-0.0498363
-0.0426371
-0.0366653
-0.0317532
-0.027725
-0.0244275
-0.0217324
-0.0195328
-0.0177406
-0.0162833
-0.0151009
-0.0141442
-0.0133725
-0.0127522
-0.0122555
-0.0118595
-0.0115454
-0.0112978
-0.0111039
-0.0109535
-0.0108381
-0.0107512
-0.0106875
-0.010643
-0.0106149
-0.0106012
-0.0845767
-0.0738088
-0.0637851
-0.0546382
-0.0467611
-0.0401186
-0.0345804
-0.0300018
-0.0262279
-0.0231242
-0.0205766
-0.0184891
-0.0167819
-0.0153887
-0.0142547
-0.0133341
-0.0125891
-0.0119883
-0.0115057
-0.0111198
-0.0108126
-0.0105696
-0.0103787
-0.0102301
-0.0101157
-0.0100292
-0.00996558
-0.00992104
-0.00989283
-0.00987916
-0.0778883
-0.0680492
-0.058963
-0.0506562
-0.0434955
-0.0374249
-0.0323379
-0.0281109
-0.0246089
-0.0217157
-0.019331
-0.0173692
-0.015759
-0.0144405
-0.0133638
-0.0124871
-0.0117755
-0.0111999
-0.0107362
-0.0103642
-0.0100674
-0.00983177
-0.00964612
-0.0095011
-0.00938917
-0.00930429
-0.0092417
-0.00919778
-0.00916991
-0.00915638
-0.071001
-0.0621283
-0.053987
-0.046524
-0.0400822
-0.0345897
-0.0299642
-0.0261006
-0.0228837
-0.0202142
-0.0180046
-0.01618
-0.0146772
-0.0134426
-0.0124314
-0.0116055
-0.0109332
-0.010388
-0.00994756
-0.00959331
-0.00930979
-0.00908419
-0.00890592
-0.00876629
-0.00865824
-0.0085761
-0.00851538
-0.00847269
-0.00844555
-0.00843239
-0.0640278
-0.0561347
-0.048928
-0.0422992
-0.0365677
-0.0316512
-0.0274903
-0.0239967
-0.0210734
-0.0186368
-0.0166119
-0.0149335
-0.0135464
-0.0124033
-0.0114642
-0.0106951
-0.0100674
-0.00955692
-0.00914351
-0.00881017
-0.00854273
-0.00832939
-0.00816039
-0.0080277
-0.00792477
-0.00784635
-0.00778826
-0.00774735
-0.00772132
-0.00770865
-0.0570538
-0.0501333
-0.0438366
-0.0380215
-0.0329835
-0.0286343
-0.0249359
-0.0218143
-0.0191896
-0.0169925
-0.0151593
-0.0136344
-0.01237
-0.0113248
-0.0104636
-0.0097565
-0.00917791
-0.00870627
-0.00832338
-0.00801393
-0.00776509
-0.00756613
-0.00740818
-0.0072839
-0.00718729
-0.00711353
-0.0070588
-0.0070202
-0.00699561
-0.00698366
-0.0501694
-0.0441973
-0.038775
-0.0337442
-0.0293754
-0.0255789
-0.0223353
-0.0195829
-0.0172577
-0.015303
-0.0136656
-0.0122988
-0.0111618
-0.0102191
-0.00944029
-0.00879909
-0.00827314
-0.0078434
-0.00749373
-0.0072105
-0.00698223
-0.00679935
-0.00665384
-0.00653911
-0.00644976
-0.00638141
-0.00633061
-0.00629474
-0.00627185
-0.0062607
-0.0434182
-0.0383572
-0.0337661
-0.029484
-0.0257562
-0.0224942
-0.0196945
-0.0173062
-0.0152793
-0.0135683
-0.0121296
-0.0109245
-0.00991891
-0.00908284
-0.00839024
-0.00781862
-0.00734866
-0.00696381
-0.00665
-0.00639528
-0.00618959
-0.00602447
-0.00589284
-0.00578886
-0.00570774
-0.00564558
-0.00559932
-0.00556661
-0.00554573
-0.00553561
-0.036882
-0.0326851
-0.0288762
-0.0253021
-0.0221817
-0.0194312
-0.0170598
-0.0150258
-0.0132916
-0.0118216
-0.0105808
-0.009538
-0.00866509
-0.00793722
-0.00733264
-0.00683241
-0.00642015
-0.00608179
-0.00580528
-0.00558036
-0.00539834
-0.00525192
-0.00513497
-0.00504241
-0.00497006
-0.00491453
-0.00487313
-0.00484382
-0.0048251
-0.00481593
-0.0305476
-0.0271606
-0.0240827
-0.0211745
-0.0186281
-0.0163664
-0.0144079
-0.0127189
-0.0112724
-0.0100415
-0.00899871
-0.00811942
-0.00738121
-0.00676398
-0.00625001
-0.00582375
-0.00547167
-0.00518208
-0.00494495
-0.00475168
-0.00459499
-0.0044687
-0.00436765
-0.00428752
-0.00422479
-0.00417657
-0.00414058
-0.00411506
-0.00409876
-0.00409093
-0.0245245
-0.0218905
-0.0194901
-0.0172011
-0.0151903
-0.0133884
-0.011821
-0.0104611
-0.0092911
-0.00829116
-0.00744073
-0.00672112
-0.00611499
-0.00560664
-0.00518212
-0.00482907
-0.0045367
-0.0042956
-0.00409767
-0.00393595
-0.0038045
-0.00369831
-0.00361312
-0.00354542
-0.0034923
-0.00345137
-0.00342076
-0.00339902
-0.00338511
-0.00337822
-0.018696
-0.0167538
-0.0149793
-0.0132676
-0.0117604
-0.0103963
-0.00920491
-0.00816503
-0.00726651
-0.00649546
-0.00583728
-0.00527855
-0.0048065
-0.00440951
-0.00407711
-0.00379999
-0.00356994
-0.00337981
-0.00322337
-0.00309527
-0.00299092
-0.00290644
-0.00283853
-0.00278445
-0.00274193
-0.00270911
-0.00268453
-0.00266703
-0.00265584
-0.00265066
-0.0132801
-0.0119738
-0.0107724
-0.00958796
-0.00854224
-0.00758056
-0.00673671
-0.00599391
-0.00534851
-0.00479168
-0.00431399
-0.00390661
-0.00356093
-0.00326896
-0.00302348
-0.00281796
-0.00264665
-0.00250446
-0.00238697
-0.00229033
-0.00221127
-0.00214696
-0.00209504
-0.0020535
-0.00202069
-0.00199527
-0.00197615
-0.0019625
-0.00195368
-0.00194908
-0.00790848
-0.00717489
-0.00649901
-0.00580875
-0.00520339
-0.00463287
-0.00413221
-0.00368679
-0.00329805
-0.00296088
-0.00267028
-0.00242143
-0.00220941
-0.00202964
-0.00187793
-0.00175045
-0.00164379
-0.00155493
-0.00148123
-0.00142039
-0.00137042
-0.00132962
-0.00129654
-0.00126998
-0.00124893
-0.00123256
-0.00122022
-0.00121137
-0.00120564
-0.0012033
-0.00306339
-0.00285946
-0.00265336
-0.00240758
-0.00219228
-0.00197086
-0.00177612
-0.00159651
-0.00143772
-0.00129753
-0.00117487
-0.00106829
-0.000976128
-0.000896811
-0.00082884
-0.000770818
-0.000721476
-0.000679673
-0.000644394
-0.000614743
-0.000589941
-0.000569314
-0.000552281
-0.000538355
-0.000527123
-0.000518248
-0.000511461
-0.000506546
-0.000503191
-0.000500489
-0.259963
-0.260474
-0.259862
-0.25799
-0.254793
-0.250245
-0.244349
-0.237138
-0.228676
-0.219053
-0.208382
-0.196792
-0.184427
-0.171435
-0.157967
-0.14417
-0.130184
-0.116139
-0.102155
-0.0883376
-0.0747804
-0.0615631
-0.0487546
-0.0364135
-0.024588
-0.0133263
-0.00267151
0.00733737
0.0166644
0.0252746
0.0331327
0.0402025
0.046447
0.05185
0.0564176
0.0599609
0.0629677
0.0649019
0.0657329
0.0655295
0.0643415
0.0621581
0.0589791
0.0548186
0.0496982
0.0436471
0.0367035
0.0289156
0.020343
0.0110586
0.00115032
-0.00927802
-0.0201055
-0.0311947
-0.0423926
-0.0535318
-0.0644346
-0.0749168
-0.0847922
-0.0938782
-0.102002
-0.109004
-0.114769
-0.11924
-0.122372
-0.12403
-0.124144
-0.12289
-0.120374
-0.116686
-0.111958
-0.106345
-0.10001
-0.093113
-0.0858126
-0.0782503
-0.070561
-0.0628492
-0.0552227
-0.0477389