/*--------------------------------*- C++ -*----------------------------------*\
  =========                 |
  \\      /  F ield         | OpenFOAM: The Open Source CFD Toolbox
   \\    /   O peration     | Website:  https://openfoam.org
    \\  /    A nd           | Version:  7
     \\/     M anipulation  |
\*---------------------------------------------------------------------------*/
FoamFile
{
    version     2.0;
    format      ascii;
    class       volVectorField;
    location    "100";
    object      U;
}
// * * * * * * * * * * * * * * * * * * * * * * * * * * * * * * * * * * * * * //

dimensions      [0 1 -1 0 0 0 0];

internalField   nonuniform List<vector> 
3500
(
(1.20379 0.0642018 0)
(1.26653 0.0654345 0)
(1.28731 0.0617007 0)
(1.2859 0.0565275 0)
(1.2759 0.0511387 0)
(1.26379 0.0458858 0)
(1.25204 0.0409215 0)
(1.24136 0.0362999 0)
(1.23181 0.0320389 0)
(1.22325 0.0281384 0)
(1.21554 0.0245914 0)
(1.20853 0.0213867 0)
(1.20213 0.0185085 0)
(1.19627 0.0159383 0)
(1.19091 0.0136561 0)
(1.18599 0.0116393 0)
(1.18149 0.00986696 0)
(1.17738 0.00831725 0)
(1.17364 0.00696808 0)
(1.17026 0.00579999 0)
(1.16722 0.00479283 0)
(1.16451 0.00392755 0)
(1.16212 0.00318675 0)
(1.16004 0.00255322 0)
(1.15827 0.00201082 0)
(1.1568 0.0015443 0)
(1.15563 0.00113886 0)
(1.15476 0.000780232 0)
(1.15417 0.000455153 0)
(1.15388 0.0001493 0)
(1.20531 0.0772457 0)
(1.26475 0.0775597 0)
(1.28423 0.0720481 0)
(1.2825 0.0653522 0)
(1.27255 0.0586908 0)
(1.26062 0.0523629 0)
(1.2491 0.0464977 0)
(1.23866 0.0411258 0)
(1.22934 0.0362356 0)
(1.22101 0.0318038 0)
(1.21351 0.0278056 0)
(1.20671 0.0242149 0)
(1.2005 0.0210046 0)
(1.19482 0.0181465 0)
(1.18962 0.0156128 0)
(1.18486 0.0133749 0)
(1.18049 0.0114067 0)
(1.17651 0.00968198 0)
(1.17289 0.00817539 0)
(1.16961 0.00686432 0)
(1.16665 0.00572623 0)
(1.16402 0.00474019 0)
(1.1617 0.00388687 0)
(1.15968 0.00314769 0)
(1.15796 0.00250526 0)
(1.15653 0.00194314 0)
(1.15539 0.00144561 0)
(1.15454 0.000997533 0)
(1.15397 0.000584791 0)
(1.15369 0.000192422 0)
(1.20582 0.0904315 0)
(1.26198 0.0897146 0)
(1.28026 0.0822822 0)
(1.27831 0.0740389 0)
(1.26852 0.0660947 0)
(1.25689 0.0586838 0)
(1.2457 0.0519182 0)
(1.23556 0.0458 0)
(1.22654 0.0402864 0)
(1.21849 0.0353306 0)
(1.21125 0.0308892 0)
(1.20468 0.0269215 0)
(1.1987 0.023388 0)
(1.19322 0.0202509 0)
(1.1882 0.0174746 0)
(1.18361 0.0150244 0)
(1.1794 0.0128686 0)
(1.17555 0.0109767 0)
(1.17205 0.00932017 0)
(1.16887 0.00787317 0)
(1.16602 0.00661082 0)
(1.16347 0.00551025 0)
(1.16122 0.00455033 0)
(1.15926 0.0037111 0)
(1.15759 0.00297389 0)
(1.1562 0.0023212 0)
(1.1551 0.00173641 0)
(1.15427 0.00120357 0)
(1.15372 0.000707718 0)
(1.15344 0.000233313 0)
(1.20519 0.103586 0)
(1.25816 0.101733 0)
(1.27537 0.0922749 0)
(1.27331 0.0824923 0)
(1.26381 0.0732716 0)
(1.2526 0.0647857 0)
(1.24183 0.0571331 0)
(1.23208 0.0502824 0)
(1.22342 0.0441587 0)
(1.21569 0.0386922 0)
(1.20875 0.0338209 0)
(1.20246 0.0294887 0)
(1.19672 0.0256442 0)
(1.19147 0.0222398 0)
(1.18666 0.0192319 0)
(1.18225 0.0165796 0)
(1.1782 0.0142458 0)
(1.1745 0.0121959 0)
(1.17113 0.0103978 0)
(1.16807 0.00882275 0)
(1.16532 0.00744346 0)
(1.16285 0.00623518 0)
(1.16068 0.00517503 0)
(1.15879 0.00424169 0)
(1.15717 0.00341533 0)
(1.15583 0.00267742 0)
(1.15476 0.00201049 0)
(1.15395 0.00139778 0)
(1.15342 0.000823608 0)
(1.15315 0.000271861 0)
(1.2033 0.116518 0)
(1.25326 0.113446 0)
(1.26954 0.101897 0)
(1.26751 0.0906142 0)
(1.25845 0.0801415 0)
(1.24777 0.0706055 0)
(1.2375 0.0620922 0)
(1.22823 0.0545324 0)
(1.21999 0.0478199 0)
(1.21264 0.0418623 0)
(1.20604 0.0365791 0)
(1.20005 0.0318992 0)
(1.19459 0.027759 0)
(1.18959 0.0241014 0)
(1.185 0.0208751 0)
(1.18078 0.0180327 0)
(1.17691 0.0155321 0)
(1.17337 0.0133343 0)
(1.17014 0.011404 0)
(1.1672 0.00970945 0)
(1.16455 0.00822119 0)
(1.16218 0.00691254 0)
(1.16009 0.00575897 0)
(1.15826 0.00473788 0)
(1.1567 0.00382833 0)
(1.15541 0.00301083 0)
(1.15437 0.00226709 0)
(1.15359 0.00157966 0)
(1.15308 0.000932157 0)
(1.15282 0.000307971 0)
(1.20009 0.12903 0)
(1.24726 0.124681 0)
(1.26278 0.111023 0)
(1.26093 0.098307 0)
(1.25243 0.0866255 0)
(1.2424 0.0760809 0)
(1.23274 0.066746 0)
(1.22401 0.0585103 0)
(1.21625 0.051238 0)
(1.20933 0.0448152 0)
(1.20311 0.039143 0)
(1.19747 0.0341358 0)
(1.19231 0.0297185 0)
(1.18758 0.0258246 0)
(1.18322 0.0223949 0)
(1.17922 0.0193761 0)
(1.17554 0.016721 0)
(1.17216 0.0143867 0)
(1.16908 0.0123345 0)
(1.16627 0.0105299 0)
(1.16373 0.00894122 0)
(1.16146 0.00754006 0)
(1.15945 0.00630033 0)
(1.15769 0.00519821 0)
(1.15619 0.00421172 0)
(1.15494 0.00332052 0)
(1.15394 0.00250555 0)
(1.1532 0.00174874 0)
(1.1527 0.0010331 0)
(1.15245 0.000341553 0)
(1.19552 0.140927 0)
(1.24016 0.135272 0)
(1.25511 0.11953 0)
(1.2536 0.105476 0)
(1.24581 0.0926471 0)
(1.23653 0.081152 0)
(1.22757 0.0710467 0)
(1.21946 0.0621777 0)
(1.21224 0.0543821 0)
(1.20579 0.0475256 0)
(1.19999 0.0414923 0)
(1.19472 0.0361823 0)
(1.18988 0.0315095 0)
(1.18544 0.0273983 0)
(1.18135 0.0237824 0)
(1.17757 0.0206027 0)
(1.17409 0.0178069 0)
(1.17088 0.0153484 0)
(1.16795 0.0131855 0)
(1.16528 0.0112809 0)
(1.16286 0.009601 0)
(1.16069 0.00811566 0)
(1.15876 0.00679743 0)
(1.15708 0.00562133 0)
(1.15564 0.00456446 0)
(1.15444 0.00360568 0)
(1.15348 0.00272528 0)
(1.15276 0.00190462 0)
(1.15228 0.00112619 0)
(1.15204 0.000372529 0)
(1.18959 0.152021 0)
(1.232 0.145059 0)
(1.24658 0.127306 0)
(1.24556 0.112033 0)
(1.23861 0.0981344 0)
(1.2302 0.0857623 0)
(1.22201 0.0749489 0)
(1.21458 0.065498 0)
(1.20796 0.0572228 0)
(1.20204 0.0499701 0)
(1.19669 0.0436078 0)
(1.19181 0.0380231 0)
(1.18733 0.0331193 0)
(1.1832 0.0288126 0)
(1.17937 0.0250296 0)
(1.17583 0.0217057 0)
(1.17256 0.0187843 0)
(1.16954 0.0162151 0)
(1.16677 0.0139534 0)
(1.16424 0.0119596 0)
(1.16194 0.0101982 0)
(1.15987 0.00863752 0)
(1.15803 0.0072488 0)
(1.15643 0.00600609 0)
(1.15505 0.00488563 0)
(1.1539 0.00386561 0)
(1.15298 0.00292575 0)
(1.15229 0.00204694 0)
(1.15183 0.00121123 0)
(1.1516 0.000400831 0)
(1.18232 0.162137 0)
(1.22283 0.153894 0)
(1.23725 0.13425 0)
(1.23688 0.117896 0)
(1.23089 0.103021 0)
(1.22343 0.0898597 0)
(1.2161 0.0784108 0)
(1.20942 0.0684374 0)
(1.20345 0.0597328 0)
(1.19809 0.0521266 0)
(1.19323 0.0454718 0)
(1.18877 0.0396439 0)
(1.18467 0.0345365 0)
(1.18086 0.030058 0)
(1.17732 0.0261288 0)
(1.17403 0.0226792 0)
(1.17097 0.0196484 0)
(1.16815 0.0169828 0)
(1.16554 0.0146351 0)
(1.16315 0.0125635 0)
(1.16097 0.0107309 0)
(1.15901 0.00910403 0)
(1.15727 0.00765319 0)
(1.15574 0.00635149 0)
(1.15442 0.00517447 0)
(1.15333 0.00409974 0)
(1.15245 0.00310655 0)
(1.15179 0.00217543 0)
(1.15135 0.00128805 0)
(1.15113 0.000426406 0)
(1.17379 0.171123 0)
(1.21273 0.161647 0)
(1.22719 0.140273 0)
(1.22761 0.12299 0)
(1.2227 0.107249 0)
(1.21629 0.0933974 0)
(1.20988 0.0813942 0)
(1.20401 0.0709651 0)
(1.19873 0.0618872 0)
(1.19396 0.053975 0)
(1.18962 0.0470682 0)
(1.18562 0.0410317 0)
(1.1819 0.0357505 0)
(1.17843 0.0311262 0)
(1.17519 0.0270733 0)
(1.17216 0.0235177 0)
(1.16933 0.0203948 0)
(1.1667 0.0176481 0)
(1.16427 0.0152279 0)
(1.16202 0.0130905 0)
(1.15998 0.0111973 0)
(1.15812 0.00951388 0)
(1.15647 0.00800957 0)
(1.15502 0.00665674 0)
(1.15377 0.00543037 0)
(1.15273 0.0043076 0)
(1.15189 0.00326735 0)
(1.15126 0.00228984 0)
(1.15084 0.00135652 0)
(1.15063 0.000449211 0)
(1.16409 0.178849 0)
(1.20179 0.168208 0)
(1.21648 0.145303 0)
(1.21785 0.127255 0)
(1.21411 0.110766 0)
(1.20881 0.0963347 0)
(1.2034 0.0838658 0)
(1.19838 0.073054 0)
(1.19383 0.0636642 0)
(1.18969 0.0554977 0)
(1.18589 0.0483827 0)
(1.18236 0.042175 0)
(1.17905 0.0367523 0)
(1.17594 0.0320099 0)
(1.17301 0.0278574 0)
(1.17024 0.0242167 0)
(1.16765 0.02102 0)
(1.16522 0.0182082 0)
(1.16296 0.0157296 0)
(1.16086 0.0135389 0)
(1.15895 0.0115961 0)
(1.15721 0.00986605 0)
(1.15565 0.00831715 0)
(1.15428 0.00692125 0)
(1.15309 0.00565289 0)
(1.1521 0.00448889 0)
(1.1513 0.00340793 0)
(1.1507 0.00239005 0)
(1.1503 0.00141656 0)
(1.1501 0.000469219 0)
(1.15336 0.185211 0)
(1.19013 0.173487 0)
(1.20523 0.14928 0)
(1.20767 0.130636 0)
(1.2052 0.11353 0)
(1.20107 0.0986373 0)
(1.1967 0.0857971 0)
(1.19257 0.0746809 0)
(1.18878 0.065045 0)
(1.1853 0.0566795 0)
(1.18207 0.049403 0)
(1.17903 0.0430642 0)
(1.17614 0.0375341 0)
(1.17339 0.032703 0)
(1.17077 0.0284763 0)
(1.16829 0.0247725 0)
(1.16593 0.0215211 0)
(1.1637 0.0186609 0)
(1.16162 0.0161385 0)
(1.15968 0.0139073 0)
(1.15789 0.0119265 0)
(1.15627 0.0101598 0)
(1.1548 0.00857543 0)
(1.15351 0.00714465 0)
(1.15239 0.00584178 0)
(1.15145 0.00464342 0)
(1.1507 0.00352816 0)
(1.15013 0.00247597 0)
(1.14975 0.00146813 0)
(1.14956 0.000486419 0)
(1.14172 0.190133 0)
(1.17786 0.177419 0)
(1.19354 0.152164 0)
(1.19716 0.133092 0)
(1.19602 0.115509 0)
(1.19312 0.100278 0)
(1.18982 0.087165 0)
(1.18662 0.0758268 0)
(1.18363 0.0660142 0)
(1.18083 0.0575079 0)
(1.17818 0.0501195 0)
(1.17564 0.0436913 0)
(1.17318 0.0380898 0)
(1.17081 0.0332007 0)
(1.16851 0.0289263 0)
(1.1663 0.0251823 0)
(1.16418 0.021896 0)
(1.16217 0.0190046 0)
(1.16026 0.0164535 0)
(1.15848 0.0141951 0)
(1.15682 0.0121877 0)
(1.15531 0.0103949 0)
(1.15394 0.00878418 0)
(1.15273 0.00732683 0)
(1.15167 0.00599697 0)
(1.15079 0.00477118 0)
(1.15007 0.00362804 0)
(1.14954 0.00254761 0)
(1.14918 0.00151123 0)
(1.149 0.000500812 0)
(1.12933 0.193564 0)
(1.16511 0.17996 0)
(1.18151 0.153926 0)
(1.18641 0.134595 0)
(1.18666 0.11668 0)
(1.18503 0.101236 0)
(1.18284 0.0879521 0)
(1.18058 0.0764774 0)
(1.1784 0.06656 0)
(1.1763 0.0579735 0)
(1.17424 0.0505244 0)
(1.17221 0.0440507 0)
(1.17019 0.0384149 0)
(1.1682 0.0334997 0)
(1.16623 0.0292049 0)
(1.1643 0.0254442 0)
(1.16242 0.0221435 0)
(1.16062 0.0192385 0)
(1.15889 0.0166741 0)
(1.15726 0.0144018 0)
(1.15574 0.0123798 0)
(1.15433 0.0105712 0)
(1.15306 0.00894349 0)
(1.15193 0.00746789 0)
(1.15094 0.00611859 0)
(1.15011 0.00487229 0)
(1.14944 0.00370769 0)
(1.14893 0.00260507 0)
(1.14859 0.00154592 0)
(1.14842 0.000512419 0)
(1.11634 0.195478 0)
(1.15201 0.18109 0)
(1.16927 0.154556 0)
(1.17553 0.135126 0)
(1.1772 0.117026 0)
(1.17685 0.101498 0)
(1.17579 0.0881463 0)
(1.1745 0.0766228 0)
(1.17314 0.0666743 0)
(1.17174 0.05807 0)
(1.17029 0.0506129 0)
(1.16877 0.0441384 0)
(1.1672 0.0385066 0)
(1.16558 0.0335981 0)
(1.16394 0.0293109 0)
(1.1623 0.0255576 0)
(1.16066 0.0222631 0)
(1.15906 0.0193626 0)
(1.15752 0.0168003 0)
(1.15604 0.0145278 0)
(1.15465 0.012503 0)
(1.15336 0.0106891 0)
(1.15218 0.00905372 0)
(1.15112 0.0075682 0)
(1.1502 0.00620699 0)
(1.14942 0.00494704 0)
(1.14879 0.00376735 0)
(1.14831 0.0026485 0)
(1.14799 0.00157231 0)
(1.14783 0.000521274 0)
(1.1029 0.19587 0)
(1.13869 0.180809 0)
(1.15692 0.154052 0)
(1.1646 0.134678 0)
(1.16771 0.116543 0)
(1.16866 0.101056 0)
(1.16873 0.0877414 0)
(1.16842 0.0762575 0)
(1.16789 0.0663528 0)
(1.16719 0.0577939 0)
(1.16634 0.0503826 0)
(1.16535 0.043953 0)
(1.16422 0.038364 0)
(1.16298 0.0334953 0)
(1.16167 0.0292442 0)
(1.1603 0.0255226 0)
(1.15891 0.0222553 0)
(1.15752 0.0193774 0)
(1.15615 0.016833 0)
(1.15482 0.0145739 0)
(1.15356 0.0125582 0)
(1.15238 0.0107494 0)
(1.15129 0.00911559 0)
(1.15031 0.0076284 0)
(1.14946 0.0062627 0)
(1.14873 0.00499588 0)
(1.14813 0.00380738 0)
(1.14768 0.00267818 0)
(1.14738 0.00159055 0)
(1.14723 0.00052743 0)
(1.08915 0.194758 0)
(1.12526 0.179136 0)
(1.14456 0.152426 0)
(1.15372 0.133253 0)
(1.15827 0.115233 0)
(1.16053 0.0999116 0)
(1.16172 0.0867365 0)
(1.16238 0.0753808 0)
(1.16268 0.065595 0)
(1.16269 0.0571451 0)
(1.16244 0.0498336 0)
(1.16196 0.043495 0)
(1.16127 0.037988 0)
(1.16041 0.0331926 0)
(1.15942 0.0290061 0)
(1.15833 0.0253408 0)
(1.15718 0.0221217 0)
(1.15599 0.0192844 0)
(1.15479 0.0167735 0)
(1.15362 0.0145413 0)
(1.15248 0.0125465 0)
(1.1514 0.0107533 0)
(1.15041 0.0091301 0)
(1.1495 0.00764936 0)
(1.14871 0.00628649 0)
(1.14803 0.00501945 0)
(1.14747 0.00382825 0)
(1.14705 0.00269445 0)
(1.14677 0.00160084 0)
(1.14663 0.000530957 0)
(1.07524 0.192172 0)
(1.11186 0.176104 0)
(1.13231 0.1497 0)
(1.14296 0.130863 0)
(1.14896 0.113105 0)
(1.1525 0.0980694 0)
(1.15482 0.0851358 0)
(1.15643 0.0739962 0)
(1.15755 0.0644039 0)
(1.15826 0.0561265 0)
(1.1586 0.048969 0)
(1.15863 0.0427672 0)
(1.15838 0.0373815 0)
(1.15789 0.0326927 0)
(1.15722 0.0285994 0)
(1.1564 0.0250147 0)
(1.15548 0.0218647 0)
(1.15448 0.0190859 0)
(1.15346 0.0166239 0)
(1.15242 0.014432 0)
(1.15141 0.0124698 0)
(1.15044 0.0107022 0)
(1.14953 0.0090986 0)
(1.1487 0.00763226 0)
(1.14796 0.00627933 0)
(1.14733 0.00501854 0)
(1.14681 0.00383059 0)
(1.14642 0.00269774 0)
(1.14615 0.00160346 0)
(1.14602 0.000531941 0)
(1.06128 0.188158 0)
(1.09859 0.171761 0)
(1.12026 0.145903 0)
(1.13243 0.127528 0)
(1.13984 0.110175 0)
(1.14465 0.0955413 0)
(1.14807 0.0829489 0)
(1.15063 0.0721116 0)
(1.15254 0.0627864 0)
(1.15393 0.0547442 0)
(1.15486 0.047794 0)
(1.15538 0.0417747 0)
(1.15556 0.036549 0)
(1.15543 0.032 0)
(1.15507 0.0280279 0)
(1.15451 0.0245479 0)
(1.15381 0.0214876 0)
(1.15302 0.0187849 0)
(1.15215 0.016387 0)
(1.15126 0.0142485 0)
(1.15036 0.0123301 0)
(1.14949 0.010598 0)
(1.14867 0.00902276 0)
(1.1479 0.0075785 0)
(1.14722 0.00624241 0)
(1.14664 0.00499409 0)
(1.14616 0.00381512 0)
(1.14579 0.00268858 0)
(1.14554 0.00159871 0)
(1.14541 0.000530485 0)
(1.04739 0.182776 0)
(1.08556 0.166165 0)
(1.10852 0.141069 0)
(1.12219 0.123277 0)
(1.131 0.106466 0)
(1.13704 0.0923441 0)
(1.14154 0.0801897 0)
(1.145 0.0697388 0)
(1.1477 0.0607526 0)
(1.14975 0.0530072 0)
(1.15125 0.0463169 0)
(1.15225 0.0405248 0)
(1.15283 0.0354972 0)
(1.15306 0.0311203 0)
(1.15299 0.0272971 0)
(1.15269 0.0239453 0)
(1.15221 0.0209946 0)
(1.15159 0.0183853 0)
(1.15088 0.0160663 0)
(1.15012 0.0139937 0)
(1.14934 0.0121302 0)
(1.14856 0.0104432 0)
(1.14782 0.00890457 0)
(1.14712 0.00748978 0)
(1.1465 0.00617711 0)
(1.14595 0.00494722 0)
(1.14551 0.0037827 0)
(1.14516 0.00266757 0)
(1.14493 0.00158696 0)
(1.14481 0.000526709 0)
(1.03367 0.17609 0)
(1.07286 0.159381 0)
(1.09715 0.135241 0)
(1.11232 0.118142 0)
(1.12248 0.102005 0)
(1.12973 0.0884998 0)
(1.13526 0.0768767 0)
(1.13961 0.0668937 0)
(1.14305 0.0583163 0)
(1.14575 0.0509275 0)
(1.14778 0.0445481 0)
(1.14925 0.0390269 0)
(1.15022 0.0342344 0)
(1.15078 0.0300611 0)
(1.151 0.0264136 0)
(1.15094 0.0232127 0)
(1.15066 0.0203912 0)
(1.15022 0.0178918 0)
(1.14966 0.0156657 0)
(1.14902 0.0136714 0)
(1.14835 0.0118731 0)
(1.14766 0.0102403 0)
(1.14699 0.00874633 0)
(1.14636 0.00736802 0)
(1.14578 0.00608503 0)
(1.14528 0.00487923 0)
(1.14486 0.00373432 0)
(1.14454 0.0026354 0)
(1.14432 0.0015686 0)
(1.14421 0.00052075 0)
(1.0202 0.168175 0)
(1.06058 0.151478 0)
(1.08624 0.128463 0)
(1.10289 0.112164 0)
(1.11437 0.0968231 0)
(1.12277 0.0840347 0)
(1.12929 0.0730325 0)
(1.13448 0.0635956 0)
(1.13864 0.0554944 0)
(1.14194 0.0485199 0)
(1.1445 0.0425009 0)
(1.1464 0.0372924 0)
(1.14774 0.0327708 0)
(1.14862 0.0288314 0)
(1.1491 0.0253853 0)
(1.14927 0.0223573 0)
(1.14919 0.0196834 0)
(1.14891 0.0173097 0)
(1.14849 0.0151901 0)
(1.14797 0.0132855 0)
(1.14739 0.0115626 0)
(1.14679 0.00999251 0)
(1.14619 0.00855065 0)
(1.14561 0.00721543 0)
(1.14508 0.00596798 0)
(1.14462 0.00479154 0)
(1.14423 0.00367107 0)
(1.14393 0.00259284 0)
(1.14373 0.0015441 0)
(1.14363 0.000512759 0)
(1.00706 0.159109 0)
(1.04879 0.142532 0)
(1.07587 0.120785 0)
(1.09397 0.105387 0)
(1.10671 0.0909575 0)
(1.11622 0.0789791 0)
(1.12367 0.0686836 0)
(1.12966 0.0598676 0)
(1.1345 0.052307 0)
(1.13837 0.0458019 0)
(1.14141 0.0401905 0)
(1.14373 0.035335 0)
(1.14542 0.0311183 0)
(1.14659 0.0274417 0)
(1.14732 0.0242215 0)
(1.1477 0.021387 0)
(1.14779 0.0188784 0)
(1.14767 0.0166453 0)
(1.14738 0.0146448 0)
(1.14697 0.0128408 0)
(1.14648 0.0112024 0)
(1.14595 0.0097032 0)
(1.14541 0.00832044 0)
(1.14489 0.00703443 0)
(1.14441 0.00582794 0)
(1.14398 0.00468573 0)
(1.14362 0.00359414 0)
(1.14333 0.00254073 0)
(1.14314 0.00151396 0)
(1.14305 0.000502901 0)
(0.994319 0.148967 0)
(1.03757 0.132617 0)
(1.06611 0.112257 0)
(1.08561 0.0978577 0)
(1.09957 0.0844476 0)
(1.11012 0.0733673 0)
(1.11846 0.06386 0)
(1.12519 0.055736 0)
(1.13066 0.0487768 0)
(1.13507 0.0427938 0)
(1.13856 0.0376347 0)
(1.14125 0.0331701 0)
(1.14327 0.0292906 0)
(1.1447 0.025904 0)
(1.14567 0.0229326 0)
(1.14624 0.020311 0)
(1.14649 0.0179841 0)
(1.14651 0.0159054 0)
(1.14633 0.0140358 0)
(1.14602 0.0123425 0)
(1.14561 0.0107972 0)
(1.14515 0.00937616 0)
(1.14467 0.00805888 0)
(1.1442 0.00682766 0)
(1.14375 0.00566708 0)
(1.14335 0.00456353 0)
(1.14301 0.00350486 0)
(1.14275 0.00248 0)
(1.14257 0.00147873 0)
(1.14248 0.000491359 0)
(0.982016 0.137828 0)
(1.02696 0.12181 0)
(1.057 0.102936 0)
(1.07788 0.0896296 0)
(1.09299 0.0773364 0)
(1.10452 0.0672371 0)
(1.11368 0.0585952 0)
(1.12111 0.05123 0)
(1.12716 0.0449297 0)
(1.13205 0.0395181 0)
(1.13595 0.0348534 0)
(1.13899 0.0308153 0)
(1.1413 0.0273028 0)
(1.14298 0.0242315 0)
(1.14415 0.0215303 0)
(1.14489 0.0191394 0)
(1.14529 0.0170091 0)
(1.14543 0.0150976 0)
(1.14535 0.0133697 0)
(1.14513 0.0117961 0)
(1.1448 0.0103517 0)
(1.1444 0.00901547 0)
(1.14397 0.00776941 0)
(1.14353 0.00659799 0)
(1.14312 0.00548774 0)
(1.14275 0.0044268 0)
(1.14243 0.00340462 0)
(1.14218 0.00241163 0)
(1.14202 0.00143899 0)
(1.14193 0.000478324 0)
(0.97019 0.125774 0)
(1.01703 0.110188 0)
(1.04861 0.0928801 0)
(1.07082 0.0807572 0)
(1.08702 0.0696698 0)
(1.09947 0.0606298 0)
(1.10939 0.0529261 0)
(1.11744 0.046382 0)
(1.12402 0.0407942 0)
(1.12935 0.036 0)
(1.13362 0.0318685 0)
(1.13697 0.0282896 0)
(1.13953 0.0251718 0)
(1.14143 0.0224389 0)
(1.14278 0.0200271 0)
(1.14367 0.0178832 0)
(1.1442 0.0159632 0)
(1.14444 0.0142302 0)
(1.14445 0.0126535 0)
(1.1443 0.0112077 0)
(1.14403 0.00987103 0)
(1.14369 0.00862551 0)
(1.1433 0.00745572 0)
(1.1429 0.00634849 0)
(1.14252 0.0052924 0)
(1.14217 0.0042775 0)
(1.14187 0.00329493 0)
(1.14164 0.00233667 0)
(1.14147 0.00139535 0)
(1.14139 0.000464003 0)
(0.958868 0.11289 0)
(1.0078 0.0978282 0)
(1.04097 0.082154 0)
(1.06448 0.0712982 0)
(1.08172 0.0614971 0)
(1.09501 0.0535903 0)
(1.10561 0.0468923 0)
(1.11423 0.0412269 0)
(1.12127 0.0364014 0)
(1.12699 0.0322668 0)
(1.13158 0.028704 0)
(1.13519 0.025614 0)
(1.13797 0.0229158 0)
(1.14006 0.020542 0)
(1.14156 0.0184368 0)
(1.14258 0.0165543 0)
(1.14322 0.0148564 0)
(1.14355 0.0133119 0)
(1.14364 0.0118949 0)
(1.14355 0.0105838 0)
(1.14333 0.00936077 0)
(1.14303 0.00821095 0)
(1.14267 0.00712172 0)
(1.14231 0.00608237 0)
(1.14194 0.0050837 0)
(1.14161 0.00411771 0)
(1.14133 0.00317734 0)
(1.14111 0.00225621 0)
(1.14095 0.00134848 0)
(1.14087 0.00044861 0)
(0.948065 0.0992686 0)
(0.999323 0.0848105 0)
(1.03414 0.070824 0)
(1.05891 0.0613128 0)
(1.07713 0.0528704 0)
(1.09118 0.0461664 0)
(1.10239 0.0405367 0)
(1.11149 0.0358025 0)
(1.11894 0.0317846 0)
(1.12498 0.028348 0)
(1.12984 0.0253856 0)
(1.13368 0.022811 0)
(1.13665 0.0205543 0)
(1.13888 0.0185576 0)
(1.14051 0.0167741 0)
(1.14164 0.0151652 0)
(1.14236 0.0136998 0)
(1.14276 0.0123522 0)
(1.1429 0.0111017 0)
(1.14286 0.00993116 0)
(1.14269 0.00882669 0)
(1.14242 0.00777668 0)
(1.14209 0.00677149 0)
(1.14174 0.00580302 0)
(1.1414 0.00486437 0)
(1.14109 0.00394961 0)
(1.14081 0.00305351 0)
(1.1406 0.00217141 0)
(1.14045 0.00129904 0)
(1.14037 0.000432371 0)
(0.937775 0.085011 0)
(0.991605 0.071218 0)
(1.02814 0.05896 0)
(1.05414 0.0508631 0)
(1.07328 0.0438457 0)
(1.08801 0.0384096 0)
(1.09974 0.0339044 0)
(1.10927 0.0301493 0)
(1.11704 0.0269801 0)
(1.12336 0.024275 0)
(1.12843 0.0219408 0)
(1.13245 0.0199047 0)
(1.13556 0.0181081 0)
(1.13791 0.0165039 0)
(1.13963 0.0150545 0)
(1.14084 0.0137295 0)
(1.14162 0.0125047 0)
(1.14207 0.0113608 0)
(1.14226 0.0102823 0)
(1.14225 0.00925702 0)
(1.1421 0.00827484 0)
(1.14186 0.00732778 0)
(1.14155 0.00640929 0)
(1.14122 0.00551395 0)
(1.14089 0.00463727 0)
(1.14059 0.00377543 0)
(1.14032 0.00292512 0)
(1.14011 0.00208344 0)
(1.13996 0.00124773 0)
(1.13989 0.000415516 0)
(0.927979 0.0702266 0)
(0.984663 0.0571372 0)
(1.02299 0.0466379 0)
(1.05022 0.0400149 0)
(1.07021 0.0344821 0)
(1.08554 0.0303744 0)
(1.09771 0.0270436 0)
(1.10757 0.0243103 0)
(1.1156 0.0220257 0)
(1.12212 0.0200812 0)
(1.12736 0.0183989 0)
(1.1315 0.0169203 0)
(1.13471 0.0155992 0)
(1.13715 0.0143997 0)
(1.13893 0.0132942 0)
(1.14019 0.0122609 0)
(1.14101 0.0112831 0)
(1.14149 0.0103479 0)
(1.14171 0.00944562 0)
(1.14172 0.00856872 0)
(1.14159 0.00771148 0)
(1.14136 0.00686953 0)
(1.14106 0.00603949 0)
(1.14074 0.00521877 0)
(1.14042 0.00440532 0)
(1.14011 0.00359748 0)
(1.13985 0.00279393 0)
(1.13964 0.00199353 0)
(1.1395 0.00119529 0)
(1.13943 0.000398283 0)
(0.918637 0.0550256 0)
(0.9785 0.0426636 0)
(1.01872 0.0339387 0)
(1.04717 0.0288369 0)
(1.06795 0.024844 0)
(1.08379 0.0221179 0)
(1.09631 0.0200047 0)
(1.10642 0.0183313 0)
(1.11464 0.0169619 0)
(1.12129 0.0158018 0)
(1.12663 0.0147905 0)
(1.13085 0.0138842 0)
(1.13412 0.0130503 0)
(1.1366 0.0122648 0)
(1.13842 0.0115102 0)
(1.13969 0.010774 0)
(1.14053 0.0100473 0)
(1.14103 0.00932413 0)
(1.14125 0.00860045 0)
(1.14127 0.00787387 0)
(1.14114 0.00714302 0)
(1.14091 0.00640729 0)
(1.14061 0.0056666 0)
(1.14029 0.00492118 0)
(1.13997 0.00417149 0)
(1.13967 0.00341811 0)
(1.13941 0.00266169 0)
(1.1392 0.00190291 0)
(1.13906 0.00114243 0)
(1.13899 0.000380914 0)
(0.909693 0.0395293 0)
(0.973119 0.0278985 0)
(1.01533 0.0209473 0)
(1.04502 0.0173994 0)
(1.06652 0.0149995 0)
(1.08278 0.0137009 0)
(1.09557 0.0128415 0)
(1.10585 0.0122606 0)
(1.11416 0.0118304 0)
(1.12089 0.0114734 0)
(1.12627 0.0111477 0)
(1.13051 0.0108245 0)
(1.13379 0.0104854 0)
(1.13627 0.0101195 0)
(1.13808 0.00972 0)
(1.13935 0.00928379 0)
(1.14019 0.00881021 0)
(1.14067 0.00830026 0)
(1.14088 0.00775601 0)
(1.14089 0.00718022 0)
(1.14076 0.00657599 0)
(1.14052 0.00594656 0)
(1.14022 0.00529515 0)
(1.13989 0.00462491 0)
(1.13956 0.00393883 0)
(1.13926 0.00323971 0)
(1.13899 0.00253021 0)
(1.13878 0.00181282 0)
(1.13864 0.00108989 0)
(1.13856 0.000363653 0)
(0.901117 0.0238871 0)
(0.968484 0.0129364 0)
(1.01284 0.00776007 0)
(1.04379 0.00578107 0)
(1.06594 0.00501954 0)
(1.08255 0.00518478 0)
(1.09551 0.00561105 0)
(1.10585 0.00614853 0)
(1.11419 0.00667613 0)
(1.1209 0.00713461 0)
(1.12626 0.00750302 0)
(1.13047 0.00776927 0)
(1.13372 0.00792908 0)
(1.13616 0.00798472 0)
(1.13794 0.00794132 0)
(1.13917 0.00780535 0)
(1.13997 0.0075846 0)
(1.14043 0.00728724 0)
(1.14061 0.00692157 0)
(1.1406 0.0064956 0)
(1.14044 0.00601698 0)
(1.14018 0.00549282 0)
(1.13986 0.00492972 0)
(1.13952 0.00433372 0)
(1.13918 0.00371034 0)
(1.13887 0.00306464 0)
(1.1386 0.00240127 0)
(1.13838 0.00172452 0)
(1.13824 0.00103841 0)
(1.13816 0.000346742 0)
(0.892964 0.00827724 0)
(0.964389 -0.00209527 0)
(1.01125 -0.00552304 0)
(1.04349 -0.0059282 0)
(1.06624 -0.00502368 0)
(1.08311 -0.0033694 0)
(1.09613 -0.00162809 0)
(1.10645 4.64545e-05 0)
(1.11472 0.00154404 0)
(1.12136 0.00282547 0)
(1.12663 0.00389213 0)
(1.13075 0.00474783 0)
(1.13391 0.00540573 0)
(1.13627 0.00588203 0)
(1.13798 0.00619238 0)
(1.13915 0.00635416 0)
(1.13989 0.00638352 0)
(1.14029 0.00629613 0)
(1.14043 0.00610646 0)
(1.14038 0.00582788 0)
(1.14018 0.00547259 0)
(1.1399 0.00505161 0)
(1.13956 0.00457488 0)
(1.1392 0.00405134 0)
(1.13884 0.00348905 0)
(1.13851 0.00289528 0)
(1.13823 0.00227665 0)
(1.13801 0.00163925 0)
(1.13785 0.000988721 0)
(1.13778 0.000330425 0)
(0.885042 -0.00710956 0)
(0.960886 -0.0169903 0)
(1.0106 -0.0188822 0)
(1.04416 -0.017644 0)
(1.06746 -0.015048 0)
(1.08448 -0.011882 0)
(1.09745 -0.00880799 0)
(1.10764 -0.00599113 0)
(1.11576 -0.00352184 0)
(1.12224 -0.00141546 0)
(1.12735 0.000349488 0)
(1.13133 0.00179244 0)
(1.13436 0.00294123 0)
(1.1366 0.0038324 0)
(1.1382 0.00449165 0)
(1.13928 0.00494554 0)
(1.13994 0.00522011 0)
(1.14027 0.00533795 0)
(1.14034 0.00531997 0)
(1.14024 0.00518487 0)
(1.13999 0.00494937 0)
(1.13967 0.00462837 0)
(1.13929 0.00423514 0)
(1.13891 0.00378148 0)
(1.13853 0.00327794 0)
(1.13818 0.00273396 0)
(1.13789 0.00215812 0)
(1.13765 0.00155823 0)
(1.13749 0.000941547 0)
(1.13741 0.000314939 0)
(0.877136 -0.0223418 0)
(0.958136 -0.0316826 0)
(1.01087 -0.0321635 0)
(1.0458 -0.029258 0)
(1.0696 -0.0249632 0)
(1.08666 -0.0202746 0)
(1.09948 -0.0158637 0)
(1.10944 -0.0119044 0)
(1.11731 -0.00846751 0)
(1.12354 -0.00554437 0)
(1.12844 -0.00309363 0)
(1.13222 -0.00107238 0)
(1.13507 0.00056323 0)
(1.13715 0.0018589 0)
(1.13861 0.00285676 0)
(1.13956 0.00359527 0)
(1.14011 0.00410725 0)
(1.14034 0.00442361 0)
(1.14034 0.00457129 0)
(1.14017 0.00457426 0)
(1.13987 0.00445375 0)
(1.13949 0.00422846 0)
(1.13907 0.00391493 0)
(1.13865 0.00352776 0)
(1.13824 0.00307991 0)
(1.13788 0.00258297 0)
(1.13756 0.00204738 0)
(1.13732 0.00148265 0)
(1.13715 0.000897588 0)
(1.13706 0.000300517 0)
(0.869326 -0.0373469 0)
(0.956017 -0.0460686 0)
(1.01202 -0.0452224 0)
(1.04839 -0.0406591 0)
(1.07264 -0.0346765 0)
(1.08965 -0.0284684 0)
(1.10221 -0.0227275 0)
(1.11183 -0.0176355 0)
(1.11936 -0.0132433 0)
(1.12527 -0.00951787 0)
(1.12988 -0.00639709 0)
(1.1334 -0.0038152 0)
(1.13602 -0.00170812 0)
(1.13791 -1.77079e-05 0)
(1.13919 0.00130735 0)
(1.13998 0.00231793 0)
(1.1404 0.00305784 0)
(1.14053 0.00356386 0)
(1.14043 0.00386939 0)
(1.14017 0.00400357 0)
(1.1398 0.003992 0)
(1.13936 0.0038571 0)
(1.1389 0.00361855 0)
(1.13843 0.00329368 0)
(1.13799 0.00289779 0)
(1.13759 0.00244451 0)
(1.13726 0.00194609 0)
(1.137 0.00141366 0)
(1.13682 0.000857525 0)
(1.13673 0.000287382 0)
(0.861651 -0.0518399 0)
(0.954462 -0.0600088 0)
(1.01402 -0.0579271 0)
(1.05192 -0.0517342 0)
(1.07658 -0.0440901 0)
(1.09345 -0.0363799 0)
(1.10563 -0.0293282 0)
(1.11481 -0.0231248 0)
(1.12191 -0.0177998 0)
(1.12742 -0.0132947 0)
(1.13166 -0.00952462 0)
(1.13487 -0.00640265 0)
(1.13721 -0.00384592 0)
(1.13886 -0.00177945 0)
(1.13993 -0.000140386 0)
(1.14055 0.00112952 0)
(1.14081 0.00208425 0)
(1.1408 0.00276904 0)
(1.14059 0.00322295 0)
(1.14023 0.00348006 0)
(1.13978 0.00357018 0)
(1.13928 0.00351931 0)
(1.13875 0.00335014 0)
(1.13824 0.00308262 0)
(1.13776 0.00273429 0)
(1.13733 0.00232071 0)
(1.13698 0.00185584 0)
(1.1367 0.00135238 0)
(1.13651 0.000822008 0)
(1.13641 0.000275751 0)
(0.854159 -0.0657051 0)
(0.953445 -0.0733837 0)
(1.01683 -0.0701409 0)
(1.05637 -0.0623654 0)
(1.08141 -0.0531021 0)
(1.09804 -0.0439227 0)
(1.10973 -0.035593 0)
(1.11837 -0.0283112 0)
(1.12493 -0.0220862 0)
(1.12996 -0.016833 0)
(1.13378 -0.0124422 0)
(1.13661 -0.00880586 0)
(1.13863 -0.00582338 0)
(1.14 -0.00340428 0)
(1.14084 -0.00147063 0)
(1.14125 4.34525e-05 0)
(1.14133 0.00119857 0)
(1.14117 0.00204924 0)
(1.14083 0.00264029 0)
(1.14036 0.00301065 0)
(1.13982 0.00319406 0)
(1.13923 0.00321985 0)
(1.13865 0.00311363 0)
(1.13808 0.00289778 0)
(1.13756 0.00259196 0)
(1.1371 0.00221356 0)
(1.13671 0.00177814 0)
(1.13641 0.00129984 0)
(1.13621 0.000791652 0)
(1.13611 0.000265826 0)
(0.847007 -0.0789453 0)
(0.952954 -0.0860821 0)
(1.02042 -0.0817278 0)
(1.0617 -0.072431 0)
(1.0871 -0.0616071 0)
(1.1034 -0.0510081 0)
(1.11449 -0.0414483 0)
(1.12247 -0.0331337 0)
(1.12841 -0.0260516 0)
(1.13288 -0.0200904 0)
(1.13621 -0.0151156 0)
(1.13862 -0.0109972 0)
(1.14027 -0.00761719 0)
(1.14132 -0.0048708 0)
(1.14188 -0.00266657 0)
(1.14206 -0.000927702 0)
(1.14195 0.000412238 0)
(1.14162 0.00141388 0)
(1.14113 0.00212925 0)
(1.14055 0.00260189 0)
(1.1399 0.00286904 0)
(1.13923 0.00296321 0)
(1.13857 0.0029127 0)
(1.13794 0.00274216 0)
(1.13737 0.00247321 0)
(1.13687 0.00212494 0)
(1.13646 0.00171439 0)
(1.13614 0.00125702 0)
(1.13592 0.000767031 0)
(1.13581 0.000257796 0)
(0.840425 -0.0915856 0)
(0.953011 -0.0979974 0)
(1.02474 -0.0925553 0)
(1.06788 -0.0818079 0)
(1.09361 -0.0694974 0)
(1.10949 -0.0575466 0)
(1.11987 -0.0468203 0)
(1.1271 -0.0375317 0)
(1.13232 -0.0296465 0)
(1.13616 -0.0230262 0)
(1.13893 -0.0175109 0)
(1.14086 -0.0129493 0)
(1.1421 -0.00920535 0)
(1.1428 -0.00616052 0)
(1.14306 -0.00371167 0)
(1.14299 -0.00177094 0)
(1.14266 -0.000264766 0)
(1.14214 0.000871812 0)
(1.1415 0.00169715 0)
(1.14078 0.00225984 0)
(1.14002 0.00260018 0)
(1.13926 0.00275355 0)
(1.13852 0.00275075 0)
(1.13783 0.00261852 0)
(1.13721 0.00238026 0)
(1.13666 0.00205658 0)
(1.13622 0.00166589 0)
(1.13587 0.00122481 0)
(1.13564 0.000748672 0)
(1.13552 0.000251836 0)
(0.834678 -0.10363 0)
(0.953679 -0.109031 0)
(1.02978 -0.102495 0)
(1.07486 -0.090372 0)
(1.1009 -0.076665 0)
(1.11627 -0.0634486 0)
(1.12584 -0.0516356 0)
(1.13221 -0.0414457 0)
(1.13664 -0.0328227 0)
(1.13976 -0.0256011 0)
(1.14192 -0.0195964 0)
(1.14332 -0.0146359 0)
(1.14412 -0.0105667 0)
(1.14443 -0.00725643 0)
(1.14437 -0.00459132 0)
(1.14401 -0.00247417 0)
(1.14345 -0.000822722 0)
(1.14273 0.000431141 0)
(1.14192 0.00135052 0)
(1.14106 0.00199005 0)
(1.14018 0.00239204 0)
(1.13931 0.00259463 0)
(1.13849 0.00263087 0)
(1.13773 0.00252936 0)
(1.13705 0.00231509 0)
(1.13647 0.00201003 0)
(1.13598 0.00163379 0)
(1.13562 0.00120404 0)
(1.13537 0.000737053 0)
(1.13524 0.000248104 0)
(0.83006 -0.115066 0)
(0.955052 -0.119092 0)
(1.03553 -0.111424 0)
(1.08258 -0.0980007 0)
(1.1089 -0.0830029 0)
(1.12368 -0.0686258 0)
(1.13235 -0.055823 0)
(1.13776 -0.0448184 0)
(1.14131 -0.0355342 0)
(1.14366 -0.0277784 0)
(1.14515 -0.0213422 0)
(1.14598 -0.0160329 0)
(1.14629 -0.0116815 0)
(1.14619 -0.00814268 0)
(1.14577 -0.00529263 0)
(1.14512 -0.00302594 0)
(1.14431 -0.00125316 0)
(1.14338 9.84396e-05 0)
(1.14238 0.0010958 0)
(1.14137 0.00179754 0)
(1.14036 0.00224871 0)
(1.13939 0.0024898 0)
(1.13848 0.00255579 0)
(1.13765 0.00247691 0)
(1.13691 0.00227948 0)
(1.13628 0.00198669 0)
(1.13576 0.00161913 0)
(1.13536 0.0011954 0)
(1.1351 0.000732592 0)
(1.13496 0.000246737 0)
(0.826867 -0.125854 0)
(0.95725 -0.128097 0)
(1.04197 -0.119225 0)
(1.09099 -0.104575 0)
(1.11756 -0.0884071 0)
(1.13168 -0.0729928 0)
(1.13934 -0.0593141 0)
(1.14371 -0.0475957 0)
(1.1463 -0.0377382 0)
(1.14781 -0.0295238 0)
(1.14858 -0.022721 0)
(1.1488 -0.0171185 0)
(1.14859 -0.0125322 0)
(1.14805 -0.00880502 0)
(1.14726 -0.00580419 0)
(1.1463 -0.00341694 0)
(1.14522 -0.00154787 0)
(1.14407 -0.000119749 0)
(1.14288 0.000937913 0)
(1.14171 0.00168653 0)
(1.14057 0.0021737 0)
(1.13949 0.00244196 0)
(1.13848 0.00252789 0)