/*--------------------------------*- C++ -*----------------------------------*\
  =========                 |
  \\      /  F ield         | OpenFOAM: The Open Source CFD Toolbox
   \\    /   O peration     | Website:  https://openfoam.org
    \\  /    A nd           | Version:  7
     \\/     M anipulation  |
\*---------------------------------------------------------------------------*/
FoamFile
{
    version     2.0;
    format      ascii;
    class       volScalarField;
    location    "80.001";
    object      p;
}
// * * * * * * * * * * * * * * * * * * * * * * * * * * * * * * * * * * * * * //

dimensions      [0 2 -2 0 0 0 0];

internalField   nonuniform List<scalar> 
14800
(
-0.245135
-0.248101
-0.24907
-0.250118
-0.251081
-0.252026
-0.252932
-0.253756
-0.254447
-0.254953
-0.255225
-0.255222
-0.254921
-0.254313
-0.253453
-0.245451
-0.248385
-0.249347
-0.25039
-0.251353
-0.252299
-0.253208
-0.254031
-0.254715
-0.255202
-0.255436
-0.255364
-0.254947
-0.254171
-0.253001
-0.246022
-0.248878
-0.249818
-0.250842
-0.251794
-0.252734
-0.253639
-0.254459
-0.255135
-0.255604
-0.2558
-0.255656
-0.255107
-0.254163
-0.252555
-0.246835
-0.249571
-0.250472
-0.251463
-0.252392
-0.253317
-0.254211
-0.255023
-0.255689
-0.25614
-0.2563
-0.256088
-0.255385
-0.254314
-0.252081
-0.247874
-0.25045
-0.251296
-0.252237
-0.253129
-0.254026
-0.254902
-0.2557
-0.256353
-0.256785
-0.25691
-0.256643
-0.255745
-0.254658
-0.251524
-0.249115
-0.251496
-0.25227
-0.253142
-0.25398
-0.254837
-0.255683
-0.256458
-0.257093
-0.257503
-0.257591
-0.257299
-0.256118
-0.255243
-0.250798
-0.250532
-0.252688
-0.253372
-0.254154
-0.25492
-0.255719
-0.256519
-0.257259
-0.257868
-0.258252
-0.258291
-0.258034
-0.256397
-0.256138
-0.249805
-0.252098
-0.254006
-0.25458
-0.255248
-0.255919
-0.256639
-0.257375
-0.258064
-0.258632
-0.258983
-0.258938
-0.258833
-0.256475
-0.25734
-0.248657
-0.253786
-0.255429
-0.25587
-0.256399
-0.256947
-0.257562
-0.258212
-0.258829
-0.259338
-0.259647
-0.259456
-0.259624
-0.256493
-0.25808
-0.247839
-0.255571
-0.256938
-0.257222
-0.257583
-0.257978
-0.258459
-0.258994
-0.259514
-0.259939
-0.2602
-0.259859
-0.260156
-0.256411
-0.258862
-0.246745
-0.257434
-0.258516
-0.258619
-0.258779
-0.258986
-0.2593
-0.259691
-0.260086
-0.260399
-0.260579
-0.260058
-0.26056
-0.255903
-0.259571
-0.24543
-0.259361
-0.260154
-0.260047
-0.259972
-0.259955
-0.260065
-0.260278
-0.260519
-0.260687
-0.260766
-0.259994
-0.260731
-0.255038
-0.259927
-0.244127
-0.261345
-0.261847
-0.2615
-0.261152
-0.260872
-0.260742
-0.260743
-0.260798
-0.26079
-0.260741
-0.259673
-0.260566
-0.253964
-0.259552
-0.24311
-0.263391
-0.263596
-0.262978
-0.262319
-0.261736
-0.261329
-0.261083
-0.260922
-0.260706
-0.260487
-0.259127
-0.259927
-0.25285
-0.258084
-0.242393
-0.265511
-0.265412
-0.264485
-0.263478
-0.262554
-0.261835
-0.261311
-0.260904
-0.26045
-0.259996
-0.25838
-0.25871
-0.251754
-0.255419
-0.241545
-0.267728
-0.26731
-0.266041
-0.264647
-0.263346
-0.262281
-0.26145
-0.260765
-0.260042
-0.259271
-0.257416
-0.256901
-0.250501
-0.25181
-0.239982
-0.270076
-0.269305
-0.267674
-0.265849
-0.264138
-0.2627
-0.261533
-0.260536
-0.2595
-0.258317
-0.256171
-0.254551
-0.248752
-0.247618
-0.23738
-0.272599
-0.271437
-0.269407
-0.267118
-0.264968
-0.263131
-0.2616
-0.260247
-0.258832
-0.257129
-0.254554
-0.251709
-0.246217
-0.24294
-0.233722
-0.275353
-0.27374
-0.271277
-0.268494
-0.265881
-0.26362
-0.261691
-0.259922
-0.258032
-0.255684
-0.252486
-0.248392
-0.242784
-0.237556
-0.229123
-0.278392
-0.276256
-0.273327
-0.270022
-0.266923
-0.264212
-0.261838
-0.259573
-0.257083
-0.253945
-0.24992
-0.244627
-0.238512
-0.231365
-0.223715
-0.281758
-0.279043
-0.275605
-0.27175
-0.268144
-0.264947
-0.262062
-0.259193
-0.255953
-0.251875
-0.246851
-0.240452
-0.233559
-0.225008
-0.217509
-0.285524
-0.28214
-0.278157
-0.273729
-0.269587
-0.265855
-0.262369
-0.258762
-0.254604
-0.249447
-0.243314
-0.235888
-0.228082
-0.218974
-0.210752
-0.289752
-0.285594
-0.281034
-0.276004
-0.271289
-0.266951
-0.26275
-0.258245
-0.252996
-0.246651
-0.239365
-0.230972
-0.22241
-0.212819
-0.204161
-0.294496
-0.289451
-0.284283
-0.27862
-0.273277
-0.268239
-0.263179
-0.257597
-0.251096
-0.24349
-0.235057
-0.2258
-0.21657
-0.206646
-0.197856
-0.299809
-0.293758
-0.287951
-0.281611
-0.275563
-0.26971
-0.263617
-0.256764
-0.248878
-0.23998
-0.230454
-0.220419
-0.210635
-0.200454
-0.191557
-0.305732
-0.298556
-0.292082
-0.285002
-0.278153
-0.271336
-0.264002
-0.255689
-0.246326
-0.236146
-0.225598
-0.214875
-0.20461
-0.194205
-0.18526
-0.3123
-0.303885
-0.296709
-0.288807
-0.281039
-0.273067
-0.264257
-0.25432
-0.243435
-0.232013
-0.220522
-0.209184
-0.198488
-0.187896
-0.178861
-0.319537
-0.309778
-0.301856
-0.293032
-0.284196
-0.274825
-0.264298
-0.252613
-0.240202
-0.227597
-0.215241
-0.203346
-0.192254
-0.181487
-0.17235
-0.327452
-0.316258
-0.307531
-0.297667
-0.287565
-0.276503
-0.264041
-0.250533
-0.236627
-0.222906
-0.209755
-0.197348
-0.185885
-0.174959
-0.16569
-0.336041
-0.323334
-0.313724
-0.302688
-0.291049
-0.277983
-0.263411
-0.248053
-0.232704
-0.217937
-0.204053
-0.191169
-0.179355
-0.168279
-0.158864
-0.345298
-0.330993
-0.320407
-0.308031
-0.294513
-0.279143
-0.262341
-0.245145
-0.22842
-0.212675
-0.198111
-0.18478
-0.172636
-0.161425
-0.151848
-0.355139
-0.339191
-0.32753
-0.313587
-0.297794
-0.279867
-0.260771
-0.24178
-0.223754
-0.207096
-0.191904
-0.178152
-0.165702
-0.154369
-0.144625
-0.365505
-0.347857
-0.335016
-0.319191
-0.300724
-0.280044
-0.258641
-0.237925
-0.218676
-0.201171
-0.185396
-0.171252
-0.158526
-0.147088
-0.137176
-0.376282
-0.356883
-0.342744
-0.324635
-0.303128
-0.279572
-0.255897
-0.233541
-0.213154
-0.194864
-0.178555
-0.164051
-0.151081
-0.139558
-0.129486
-0.387312
-0.366133
-0.35054
-0.329685
-0.304839
-0.278355
-0.252481
-0.228585
-0.207145
-0.188137
-0.171344
-0.156516
-0.143343
-0.131755
-0.121538
-0.398397
-0.375437
-0.358168
-0.334097
-0.305697
-0.276301
-0.248333
-0.22301
-0.200607
-0.180951
-0.163728
-0.148621
-0.135288
-0.123658
-0.113319
-0.409296
-0.384595
-0.365339
-0.33763
-0.305553
-0.273322
-0.243394
-0.216765
-0.193496
-0.173266
-0.155674
-0.140337
-0.126894
-0.115247
-0.104816
-0.419729
-0.393372
-0.371733
-0.340049
-0.304268
-0.269333
-0.237602
-0.209799
-0.185767
-0.165045
-0.14715
-0.131644
-0.118143
-0.106508
-0.0960295
-0.429388
-0.401496
-0.377016
-0.341133
-0.301715
-0.264254
-0.230897
-0.202062
-0.177376
-0.156251
-0.138129
-0.122518
-0.109018
-0.097437
-0.0869796
-0.437944
-0.408659
-0.380865
-0.340677
-0.297779
-0.258011
-0.22322
-0.193505
-0.168284
-0.146853
-0.128584
-0.11294
-0.0995053
-0.0880372
-0.0776962
-0.445063
-0.414525
-0.38298
-0.3385
-0.292354
-0.250533
-0.214517
-0.184083
-0.158454
-0.136821
-0.118494
-0.102891
-0.0895867
-0.0783041
-0.0681845
-0.450411
-0.418743
-0.3831
-0.334444
-0.28535
-0.241757
-0.204739
-0.173757
-0.147856
-0.126133
-0.10784
-0.0923539
-0.0792463
-0.0682159
-0.05839
-0.453667
-0.420959
-0.380998
-0.328383
-0.276691
-0.231631
-0.193844
-0.162494
-0.136466
-0.114772
-0.0966087
-0.0813208
-0.0684776
-0.0577422
-0.0481877
-0.454529
-0.420838
-0.37649
-0.320217
-0.266316
-0.220112
-0.1818
-0.15027
-0.124267
-0.102725
-0.0847918
-0.0697889
-0.0572912
-0.0468793
-0.0374205
-0.452724
-0.418085
-0.369416
-0.309873
-0.254179
-0.207168
-0.168582
-0.137066
-0.111243
-0.0899831
-0.0723869
-0.0577604
-0.0457035
-0.0356594
-0.026121
-0.44801
-0.412456
-0.359649
-0.297302
-0.240255
-0.19278
-0.154174
-0.122868
-0.0973891
-0.0765464
-0.0594078
-0.0452519
-0.0337248
-0.0240349
-0.0147929
-0.440183
-0.403753
-0.347103
-0.282479
-0.224534
-0.176937
-0.138562
-0.107676
-0.0827161
-0.0624334
-0.0458815
-0.0323113
-0.0213519
-0.0120063
-0.00335735
-0.429081
-0.391833
-0.331729
-0.265402
-0.20702
-0.159627
-0.121744
-0.0915208
-0.0672607
-0.0476902
-0.0318067
-0.0189275
-0.00858496
0.000331758
0.00827049
-0.414584
-0.376609
-0.313518
-0.246086
-0.18771
-0.140856
-0.103777
-0.0744699
-0.0510474
-0.0322996
-0.0172127
-0.00511556
0.00454675
0.0129375
0.0201115
-0.396618
-0.358049
-0.292498
-0.22456
-0.166603
-0.120708
-0.0847968
-0.0564803
-0.0340815
-0.0162995
-0.0021299
0.00909616
0.0180068
0.025788
0.0321504
-0.375156
-0.336171
-0.268742
-0.200891
-0.143763
-0.0993884
-0.0646806
-0.0376109
-0.0164045
0.000269528
0.0134054
0.0236716
0.0317576
0.0388572
0.0443563
-0.350216
-0.311041
-0.242361
-0.175195
-0.119487
-0.0766712
-0.0435314
-0.0179193
0.00193135
0.0173611
0.0293515
0.0385698
0.0457597
0.0521089
0.0566849
-0.321867
-0.282793
-0.213474
-0.147566
-0.093713
-0.0527489
-0.0214253
0.00252779
0.020867
0.0349231
0.0456607
0.0537466
0.0599717
0.0654987
0.0690845
-0.290237
-0.251662
-0.182108
-0.118111
-0.0665314
-0.0277326
0.00154867
0.0236572
0.0403369
0.0528971
0.0622801
0.0691543
0.0743516
0.0789835
0.0815167
-0.255505
-0.217944
-0.148207
-0.0870107
-0.0380827
-0.00173745
0.0252938
0.0453869
0.0602687
0.0712184
0.0791506
0.0847418
0.0888591
0.0925278
0.0939582
-0.21787
-0.181682
-0.112277
-0.0543406
-0.00851057
0.0251141
0.0497043
0.0676269
0.0805842
0.0898163
0.0962087
0.100457
0.103453
0.106082
0.106315
-0.177536
-0.142417
-0.0752368
-0.0204127
0.0220308
0.0526912
0.0746667
0.0902804
0.101199
0.108617
0.113393
0.116252
0.118077
0.119504
0.118288
-0.13477
-0.100948
-0.0368945
0.0145304
0.0533679
0.0808554
0.100061
0.113244
0.122025
0.127546
0.130649
0.132092
0.132647
0.132523
0.12946
-0.089783
-0.0578111
0.00264417
0.0502826
0.0853157
0.109458
0.125759
0.136409
0.142968
0.146529
0.147928
0.147939
0.147077
0.144948
0.139823
-0.0430119
-0.0133296
0.043147
0.0866393
0.117686
0.138342
0.151629
0.15966
0.16393
0.165486
0.165169
0.163719
0.161285
0.157019
0.150427
0.00515089
0.0321804
0.0843341
0.123381
0.150286
0.167345
0.177532
0.182879
0.184812
0.184336
0.182286
0.179304
0.175162
0.168974
0.163941
0.0543111
0.078377
0.125909
0.160276
0.182919
0.196299
0.203326
0.205944
0.205513
0.202992
0.199186
0.194581
0.188743
0.181325
0.177059
0.10406
0.124904
0.167568
0.197083
0.215381
0.225032
0.228865
0.228734
0.225927
0.221361
0.215781
0.209535
0.202162
0.193837
0.189312
0.153984
0.171396
0.209006
0.233556
0.24747
0.253372
0.254003
0.251122
0.245948
0.239346
0.231987
0.224119
0.215352
0.206198
0.20096
0.203671
0.217476
0.249917
0.26945
0.278977
0.281145
0.278592
0.272984
0.265468
0.256852
0.247731
0.238287
0.228215
0.218192
0.212021
0.252702
0.262775
0.289996
0.304516
0.3097
0.308178
0.302487
0.294196
0.284381
0.273786
0.262939
0.251976
0.240663
0.22974
0.222544
0.300663
0.30693
0.328947
0.338514
0.339434
0.334301
0.325543
0.314635
0.30258
0.290059
0.277536
0.265112
0.252608
0.240769
0.232515
0.347147
0.349589
0.366478
0.371206
0.367984
0.359348
0.34762
0.334181
0.319963
0.305583
0.291446
0.277628
0.263982
0.251234
0.241911
0.391758
0.390412
0.402311
0.402363
0.395157
0.383158
0.368583
0.35272
0.336431
0.320274
0.304598
0.289455
0.274724
0.261086
0.250703
0.434119
0.429075
0.436179
0.431766
0.420772
0.405577
0.3883
0.370139
0.351891
0.334052
0.316922
0.30053
0.284778
0.270284
0.258863
0.473868
0.465271
0.467829
0.459207
0.444653
0.42646
0.406648
0.386335
0.366251
0.346839
0.32835
0.310796
0.294092
0.278785
0.266361
0.510669
0.498714
0.497027
0.484494
0.46664
0.44567
0.423513
0.401209
0.37943
0.358564
0.338821
0.320197
0.30262
0.286551
0.273174
0.544208
0.529139
0.523555
0.507445
0.486582
0.46308
0.438787
0.414671
0.391349
0.369161
0.348279
0.328686
0.310318
0.293547
0.279279
0.574203
0.556306
0.547215
0.5279
0.504342
0.478577
0.452373
0.426638
0.401938
0.37857
0.356672
0.336216
0.317145
0.299741
0.284656
0.600399
0.580001
0.567832
0.545711
0.5198
0.492057
0.464186
0.437038
0.411135
0.386738
0.363954
0.342749
0.323067
0.305105
0.289291
0.622576
0.600039
0.585253
0.560753
0.532848
0.50343
0.474148
0.445805
0.418886
0.393619
0.370085
0.348248
0.328052
0.309613
0.29317
0.640546
0.616261
0.599348
0.572918
0.543397
0.512623
0.482198
0.452887
0.425144
0.399172
0.375033
0.352685
0.332074
0.313246
0.296285
0.654158
0.628541
0.610013
0.58212
0.551375
0.519573
0.488283
0.458238
0.429873
0.403367
0.378769
0.356035
0.33511
0.315986
0.298627
0.663298
0.636782
0.617169
0.588293
0.556727
0.524235
0.492363
0.461827
0.433043
0.406179
0.381274
0.358281
0.337146
0.317822
0.300192
0.667889
0.640921
0.620763
0.591394
0.559415
0.526578
0.494414
0.463631
0.434637
0.407593
0.382533
0.35941
0.33817
0.318745
0.300978
0.667892
0.640925
0.620768
0.5914
0.559422
0.526585
0.494422
0.463639
0.434644
0.4076
0.38254
0.359416
0.338175
0.31875
0.300982
0.663307
0.636794
0.617184
0.588312
0.556747
0.524257
0.492386
0.46185
0.433066
0.406201
0.381294
0.3583
0.337163
0.317838
0.300206
0.654174
0.628561
0.610039
0.582151
0.55141
0.51961
0.488321
0.458277
0.42991
0.403403
0.378803
0.356067
0.335139
0.316012
0.29865
0.640569
0.61629
0.599385
0.572962
0.543446
0.512675
0.482252
0.452941
0.425197
0.399223
0.375081
0.352729
0.332114
0.313282
0.296317
0.622607
0.600077
0.585302
0.560811
0.532912
0.503498
0.474218
0.445875
0.418954
0.393684
0.370147
0.348305
0.328104
0.30966
0.293211
0.60044
0.580051
0.567894
0.545784
0.519879
0.492141
0.464272
0.437124
0.411219
0.386819
0.36403
0.342819
0.323131
0.305162
0.289341
0.574255
0.556369
0.547291
0.527988
0.504439
0.478678
0.452476
0.426741
0.402038
0.378666
0.356762
0.3363
0.317221
0.299809
0.284716
0.544274
0.529216
0.523647
0.507551
0.486696
0.4632
0.438908
0.414791
0.391465
0.369272
0.348384
0.328783
0.310406
0.293626
0.279347
0.510751
0.498808
0.497137
0.484617
0.466773
0.445808
0.423652
0.401347
0.379563
0.358691
0.338941
0.320308
0.30272
0.28664
0.273252
0.473969
0.465385
0.467959
0.459351
0.444806
0.426618
0.406807
0.386492
0.366403
0.346983
0.328485
0.31092
0.294205
0.278885
0.266448
0.434242
0.42921
0.43633
0.431931
0.420946
0.405756
0.388479
0.370315
0.35206
0.334213
0.317072
0.300668
0.284903
0.270394
0.258958
0.391907
0.390572
0.402486
0.402551
0.395355
0.383359
0.368783
0.352916
0.33662
0.320453
0.304765
0.289607
0.274861
0.261207
0.250808
0.347324
0.349777
0.36668
0.37142
0.368206
0.359573
0.347843
0.334399
0.320171
0.30578
0.291629
0.277795
0.264132
0.251366
0.242024
0.300873
0.307149
0.329178
0.338757
0.339683
0.334551
0.32579
0.314874
0.302809
0.290274
0.277735
0.265294
0.25277
0.240912
0.232637
0.252949
0.263029
0.290261
0.30479
0.309977
0.308455
0.302759
0.294458
0.284631
0.27402
0.263156
0.252173
0.240839
0.229893
0.222675
0.20396
0.217769
0.250217
0.269756
0.279286
0.28145
0.27889
0.273271
0.26574
0.257106
0.247965
0.238499
0.228404
0.218356
0.21216
0.15432
0.171732
0.209346
0.233899
0.247811
0.253708
0.254329
0.251434
0.246242
0.23962
0.232239
0.224346
0.215554
0.206374
0.201108
0.104447
0.125288
0.167951
0.197464
0.215758
0.2254
0.22922
0.229072
0.226245
0.221657
0.216051
0.209779
0.202378
0.194023
0.189469
0.0547544
0.078813
0.126338
0.160699
0.183333
0.196701
0.203712
0.20631
0.205855
0.203309
0.199474
0.194841
0.188972
0.181523
0.177225
0.00565578
0.0326726
0.0848142
0.123849
0.150741
0.167784
0.17795
0.183273
0.18518
0.184675
0.182594
0.17958
0.175404
0.169183
0.164117
-0.0424402
-0.012777
0.0436825
0.0871558
0.118184
0.138819
0.152081
0.160084
0.164324
0.165847
0.165496
0.16401
0.161541
0.157239
0.150616
-0.0891387
-0.0571942
0.00324004
0.0508507
0.0858586
0.109975
0.126246
0.136864
0.143389
0.146913
0.148274
0.148247
0.147345
0.145178
0.140018
-0.134046
-0.100263
-0.0362329
0.0151529
0.0539585
0.0814141
0.100585
0.113731
0.122474
0.127954
0.131015
0.132416
0.132929
0.132762
0.12966
-0.17673
-0.141657
-0.0745046
-0.0197331
0.0226719
0.0532942
0.0752295
0.090801
0.101676
0.109049
0.113779
0.116592
0.11837
0.119752
0.118493
-0.216978
-0.180842
-0.111473
-0.0536016
-0.00781656
0.0257636
0.0503074
0.0681819
0.0810903
0.0902727
0.0966146
0.100812
0.103758
0.106338
0.106525
-0.25452
-0.216996
-0.14735
-0.086209
-0.0373333
-0.00103893
0.0259388
0.0459773
0.0608046
0.0716993
0.0795762
0.0851123
0.0891749
0.0927905
0.0941713
-0.289155
-0.250619
-0.181177
-0.117239
-0.0657252
-0.0269821
0.0022371
0.024284
0.0409032
0.053403
0.0627254
0.0695394
0.0746775
0.0792519
0.0817317
-0.320686
-0.281657
-0.212449
-0.146626
-0.0928495
-0.0519416
-0.0206924
0.0031917
0.0214645
0.035454
0.0461254
0.0541459
0.0603068
0.0657717
0.0692999
-0.348933
-0.309807
-0.241243
-0.174179
-0.118566
-0.0758009
-0.0427545
-0.0172172
0.00256075
0.0179171
0.0298352
0.0389826
0.0461029
0.052385
0.0568991
-0.373767
-0.334834
-0.267531
-0.199793
-0.142784
-0.0984493
-0.063862
-0.0368687
-0.0157426
0.000850664
0.0139078
0.024097
0.0321077
0.039135
0.0445675
-0.395121
-0.356606
-0.291192
-0.223375
-0.165534
-0.119724
-0.0839381
-0.0556953
-0.0333866
-0.0156933
-0.00160917
0.00953342
0.0183626
0.0260657
0.0323563
-0.412977
-0.375056
-0.312113
-0.244815
-0.186564
-0.139829
-0.102861
-0.0736397
-0.0503196
-0.0316686
-0.016674
-0.00466748
0.0049067
0.0132132
0.0203101
-0.427364
-0.390169
-0.330223
-0.264045
-0.205801
-0.158538
-0.120768
-0.0906507
-0.0664994
-0.0470344
-0.0312504
-0.0184698
-0.00822229
0.000603029
0.00845957
-0.438357
-0.401977
-0.345493
-0.281034
-0.22324
-0.175781
-0.137529
-0.106763
-0.0819218
-0.0617524
-0.045308
-0.0318457
-0.0209879
-0.0117421
-0.00318027
-0.446075
-0.410569
-0.357935
-0.295765
-0.238881
-0.191556
-0.153086
-0.121912
-0.0965598
-0.0758392
-0.0588193
-0.0447799
-0.0333613
-0.0237803
-0.0146311
-0.450683
-0.416089
-0.367596
-0.308243
-0.252724
-0.205874
-0.167437
-0.136063
-0.110378
-0.0892501
-0.0717834
-0.0572823
-0.0453451
-0.0354158
-0.02598
-0.452384
-0.418734
-0.374564
-0.318491
-0.264778
-0.218747
-0.180596
-0.14922
-0.123365
-0.101967
-0.0841736
-0.0693064
-0.0569393
-0.0466526
-0.0373103
-0.451422
-0.418752
-0.378968
-0.32656
-0.275068
-0.230194
-0.192579
-0.161394
-0.135527
-0.113988
-0.0959764
-0.0808356
-0.068134
-0.0575346
-0.0481066
-0.448072
-0.416437
-0.380966
-0.332524
-0.28364
-0.240244
-0.203411
-0.172606
-0.146878
-0.125323
-0.107194
-0.0918675
-0.0789132
-0.0680296
-0.0583397
-0.442635
-0.412128
-0.380747
-0.336481
-0.290555
-0.248942
-0.213124
-0.182879
-0.157436
-0.135984
-0.117835
-0.102405
-0.0892668
-0.0781428
-0.0681701
-0.435434
-0.406177
-0.378534
-0.338561
-0.295889
-0.25634
-0.221759
-0.192246
-0.167224
-0.145988
-0.127912
-0.112456
-0.0992014
-0.0879056
-0.0777242
-0.426802
-0.398939
-0.374595
-0.338921
-0.299734
-0.262501
-0.229364
-0.200745
-0.176272
-0.155357
-0.137443
-0.122037
-0.108734
-0.09734
-0.0870568
-0.417076
-0.390747
-0.369227
-0.337744
-0.302195
-0.267494
-0.235994
-0.208419
-0.184615
-0.16412
-0.146451
-0.131166
-0.11788
-0.10645
-0.0961631
-0.406583
-0.381911
-0.362756
-0.335236
-0.303387
-0.271394
-0.241706
-0.215318
-0.192292
-0.172307
-0.15496
-0.139865
-0.126657
-0.115235
-0.105013
-0.395632
-0.372701
-0.355517
-0.331618
-0.303438
-0.274281
-0.246561
-0.22149
-0.199347
-0.179954
-0.162997
-0.148154
-0.13508
-0.123697
-0.113589
-0.384502
-0.363352
-0.34783
-0.327126
-0.302487
-0.27624
-0.250618
-0.226987
-0.205822
-0.187098
-0.170594
-0.156056
-0.143167
-0.131851
-0.12189
-0.373434
-0.354066
-0.339984
-0.322003
-0.300685
-0.277358
-0.253937
-0.231856
-0.211761
-0.193777
-0.177783
-0.163596
-0.150939
-0.139716
-0.129929
-0.362626
-0.345009
-0.332214
-0.316493
-0.298192
-0.277727
-0.256577
-0.236144
-0.217205
-0.200029
-0.184598
-0.170803
-0.158422
-0.147317
-0.137722
-0.352232
-0.336319
-0.324694
-0.310831
-0.295176
-0.277444
-0.258593
-0.239892
-0.222193
-0.20589
-0.191072
-0.177705
-0.165638
-0.154675
-0.145285
-0.342365
-0.328101
-0.317543
-0.305224
-0.291811
-0.276611
-0.260043
-0.243138
-0.226756
-0.211393
-0.197239
-0.184332
-0.172615
-0.161816
-0.152637
-0.333102
-0.320428
-0.310837
-0.299836
-0.288269
-0.275339
-0.260982
-0.245914
-0.230922
-0.216566
-0.20313
-0.190716
-0.179378
-0.168765
-0.159796
-0.324493
-0.31334
-0.304625
-0.294776
-0.284711
-0.273747
-0.261472
-0.248246
-0.23471
-0.221428
-0.208769
-0.196883
-0.185953
-0.175547
-0.166785
-0.316561
-0.30685
-0.298933
-0.290103
-0.28127
-0.271955
-0.261581
-0.250163
-0.23813
-0.225993
-0.214175
-0.20286
-0.192368
-0.18219
-0.173626
-0.309309
-0.300948
-0.29377
-0.285844
-0.278045
-0.270085
-0.261387
-0.251693
-0.241186
-0.23026
-0.219358
-0.208665
-0.198645
-0.188724
-0.180343
-0.302729
-0.295612
-0.289128
-0.282003
-0.275091
-0.268243
-0.260974
-0.252872
-0.243881
-0.234221
-0.224312
-0.214308
-0.204808
-0.19517
-0.186976
-0.296798
-0.290809
-0.284983
-0.278578
-0.272435
-0.266507
-0.260431
-0.253748
-0.246217
-0.237855
-0.22902
-0.219784
-0.210868
-0.201569
-0.193541
-0.291483
-0.286501
-0.281301
-0.275553
-0.270084
-0.264931
-0.259838
-0.254379
-0.248205
-0.241141
-0.233446
-0.225072
-0.216828
-0.207927
-0.200153
-0.286745
-0.282648
-0.278043
-0.272907
-0.268036
-0.263543
-0.25926
-0.254827
-0.249868
-0.244057
-0.237547
-0.23012
-0.222674
-0.214272
-0.20682
-0.282537
-0.279208
-0.275164
-0.270606
-0.26628
-0.262356
-0.258744
-0.255155
-0.251239
-0.246596
-0.241261
-0.234879
-0.228325
-0.2206
-0.213827
-0.278804
-0.276137
-0.272621
-0.268614
-0.264795
-0.261373
-0.258319
-0.255417
-0.252365
-0.248764
-0.244542
-0.239248
-0.233743
-0.226769
-0.221058
-0.275482
-0.273397
-0.270368
-0.266887
-0.26355
-0.260584
-0.258003
-0.255656
-0.253298
-0.250589
-0.247346
-0.243196
-0.23859
-0.233173
-0.227664
-0.272518
-0.270939
-0.268359
-0.265381
-0.262508
-0.259966
-0.257797
-0.255903
-0.254088
-0.252113
-0.249655
-0.246717
-0.242705
-0.239345
-0.233285
-0.269865
-0.268711
-0.266552
-0.264052
-0.261624
-0.259486
-0.257688
-0.256171
-0.254779
-0.253391
-0.251494
-0.249797
-0.245937
-0.244648
-0.238024
-0.267462
-0.266674
-0.264903
-0.262856
-0.260854
-0.259102
-0.257649
-0.256458
-0.2554
-0.254474
-0.252932
-0.252437
-0.24825
-0.249208
-0.241778
-0.265254
-0.264797
-0.263376
-0.261753
-0.260155
-0.258771
-0.257643
-0.256744
-0.255961
-0.255398
-0.254071
-0.254645
-0.249794
-0.253275
-0.244398
-0.263195
-0.26303
-0.261951
-0.260709
-0.25949
-0.258452
-0.257629
-0.256997
-0.256459
-0.256172
-0.255017
-0.256388
-0.250905
-0.256775
-0.245923
-0.261248
-0.261363
-0.260591
-0.259699
-0.258828
-0.258111
-0.257572
-0.257185
-0.256872
-0.256789
-0.255844
-0.257621
-0.251958
-0.259365
-0.246752
-0.259387
-0.259776
-0.259277
-0.258704
-0.258147
-0.257722
-0.257443
-0.25728
-0.257175
-0.257243
-0.256562
-0.258361
-0.253138
-0.26081
-0.247517
-0.257593
-0.258255
-0.258001
-0.25771
-0.257435
-0.25727
-0.257223
-0.257262
-0.257342
-0.25753
-0.257132
-0.258707
-0.254378
-0.261232
-0.248632
-0.255861
-0.256796
-0.256758
-0.256718
-0.256687
-0.25675
-0.256905
-0.257121
-0.25736
-0.25765
-0.257507
-0.258777
-0.255482
-0.260993
-0.25005
-0.254191
-0.2554
-0.255553
-0.25573
-0.25591
-0.256166
-0.256494
-0.256859
-0.257231
-0.25761
-0.257656
-0.258675
-0.256277
-0.260442
-0.251466
-0.252593
-0.254075
-0.254395
-0.254758
-0.255116
-0.255534
-0.256005
-0.256494
-0.256972
-0.257416
-0.257593
-0.258452
-0.256677
-0.259815
-0.252619
-0.251085
-0.252834
-0.253298
-0.253819
-0.254324
-0.254876
-0.255462
-0.256049
-0.256607
-0.257099
-0.257415
-0.258031
-0.256757
-0.259233
-0.253368
-0.249688
-0.251692
-0.252279
-0.252934
-0.25356
-0.254217
-0.254895
-0.255558
-0.256173
-0.256701
-0.25709
-0.2575
-0.256867
-0.258299
-0.253915
-0.248428
-0.25067
-0.251361
-0.252126
-0.252848
-0.25359
-0.254337
-0.255056
-0.25571
-0.256262
-0.256676
-0.256979
-0.256722
-0.257338
-0.254703
-0.247333
-0.249787
-0.250565
-0.251418
-0.252217
-0.253024
-0.253824
-0.254583
-0.255262
-0.255824
-0.256238
-0.256485
-0.256391
-0.256547
-0.255034
-0.246428
-0.249065
-0.249913
-0.250836
-0.251694
-0.252549
-0.253389
-0.254175
-0.254868
-0.25543
-0.255829
-0.256036
-0.255989
-0.255905
-0.255006
-0.245739
-0.248522
-0.249423
-0.2504
-0.251301
-0.252193
-0.253061
-0.253865
-0.254564
-0.255118
-0.255493
-0.255659
-0.255594
-0.255371
-0.254753
-0.245284
-0.248173
-0.249112
-0.250127
-0.25106
-0.251978
-0.252865
-0.25368
-0.254379
-0.25492
-0.255265
-0.255382
-0.255262
-0.254927
-0.254365
-0.24508
-0.248031
-0.248992
-0.25003
-0.250984
-0.251919
-0.252819
-0.25364
-0.254336
-0.25486
-0.25517
-0.255231
-0.25503
-0.254571
-0.253915
-0.252873
-0.251513
-0.250178
-0.24852
-0.246703
-0.244662
-0.24239
-0.240111
-0.237664
-0.235061
-0.232316
-0.229442
-0.226452
-0.223366
-0.220212
-0.217021
-0.213824
-0.210646
-0.207502
-0.204397
-0.201316
-0.198231
-0.195097
-0.191849
-0.188404
-0.184661
-0.180509
-0.175969
-0.170992
-0.165541
-0.159632
-0.153313
-0.146667
-0.139798
-0.132933
-0.126196
-0.119731
-0.113677
-0.108149
-0.103225
-0.0989318
-0.0952536
-0.0920798
-0.089386
-0.0869714
-0.0847268
-0.0823947
-0.079891
-0.0770755
-0.0739262
-0.0703739
-0.066439
-0.0621778
-0.0576792
-0.0530561
-0.0484372
-0.043958
-0.0397532
-0.0359488
-0.032654
-0.029952
-0.0278932
-0.0264872
-0.0256984
-0.0254454
-0.0256066
-0.0260285
-0.0265431
-0.0269763
-0.0271768
-0.0270016
-0.0263711
-0.0251922
-0.0234922
-0.0211905
-0.0184121
-0.0150786
-0.0112846
-0.00717937
-0.00214272
-0.252318
-0.250597
-0.248938
-0.246927
-0.244761
-0.242383
-0.239695
-0.237314
-0.234735
-0.232098
-0.229436
-0.226769
-0.224117
-0.2215
-0.218941
-0.216464
-0.214087
-0.211816
-0.209638
-0.207528
-0.205439
-0.203304
-0.201049
-0.198573
-0.195758
-0.192475
-0.188585
-0.184141
-0.179018
-0.173202
-0.166718
-0.159628
-0.152034
-0.144017
-0.135935
-0.127874
-0.120011
-0.112516
-0.105545
-0.0992141
-0.0935876
-0.0886857
-0.0844554
-0.0808658
-0.0777482
-0.0750794
-0.0725075
-0.070001
-0.0674089
-0.0646613
-0.0616937
-0.0584897
-0.0550786
-0.0515229
-0.0479122
-0.0443551
-0.0409705
-0.0378786
-0.0351916
-0.033003
-0.0313773
-0.030342
-0.0298812
-0.029933
-0.03039
-0.0311097
-0.0319228
-0.0326561
-0.0331352
-0.0332225
-0.0327852
-0.0317726
-0.0301075
-0.0278483
-0.0249204
-0.0214932
-0.0174701
-0.0129952
-0.00818393
-0.00250738
-0.251959
-0.249814
-0.247848
-0.245486
-0.242983
-0.240316
-0.237653
-0.234747
-0.231996
-0.229317
-0.226733
-0.224267
-0.221943
-0.219778
-0.217793
-0.216003
-0.214416
-0.213016
-0.211766
-0.21061
-0.209467
-0.208234
-0.20681
-0.20506
-0.202829
-0.199963
-0.196343
-0.19193
-0.186636
-0.180443
-0.173383
-0.165538
-0.157039
-0.147857
-0.138632
-0.129312
-0.120113
-0.111241
-0.10289
-0.0952066
-0.0882879
-0.0821885
-0.076897
-0.0723982
-0.0685499
-0.0654042
-0.0625244
-0.0599515
-0.0575142
-0.0551113
-0.052679
-0.0501685
-0.0475866
-0.0449703
-0.0423852
-0.0399183
-0.0376686
-0.0357375
-0.0342177
-0.0331816
-0.0326684
-0.0326784
-0.0331673
-0.0340452
-0.0351807
-0.0364134
-0.0375629
-0.0384561
-0.0389232
-0.0388456
-0.0381033
-0.0366764
-0.0345089
-0.0316931
-0.0281558
-0.0241113
-0.0194535
-0.0143671
-0.00895315
-0.00275922
-0.251794
-0.249167
-0.246924
-0.24422
-0.24139
-0.238417
-0.235404
-0.232364
-0.229477
-0.226759
-0.224246
-0.22197
-0.219955
-0.218217
-0.216772
-0.215628
-0.214786
-0.214207
-0.213829
-0.213567
-0.213311
-0.212913
-0.212256
-0.211171
-0.209462
-0.206954
-0.203558
-0.199165
-0.193679
-0.187102
-0.179476
-0.1709
-0.161591
-0.151163
-0.140938
-0.130437
-0.119992
-0.109838
-0.1002
-0.0912511
-0.083115
-0.0758777
-0.0695611
-0.064174
-0.0596203
-0.0558808
-0.0526831
-0.0499884
-0.0476435
-0.0455254
-0.0435779
-0.0417157
-0.039931
-0.0382364
-0.0366735
-0.0353059
-0.0342094
-0.0334621
-0.0331323
-0.0332657
-0.0338718
-0.03492
-0.036336
-0.0380032
-0.0397677
-0.0414556
-0.04288
-0.0438732
-0.0442738
-0.043987
-0.0429068
-0.0410591
-0.0383761
-0.0350152
-0.0308977
-0.0262778
-0.0210479
-0.0154251
-0.00951042
-0.00291452
-0.251877
-0.248659
-0.246168
-0.24314
-0.24
-0.236734
-0.233428
-0.230222
-0.22721
-0.224454
-0.222004
-0.219901
-0.218171
-0.216826
-0.215876
-0.215327
-0.215176
-0.215356
-0.215781
-0.216339
-0.216895
-0.217245
-0.217281
-0.21679
-0.215539
-0.213355
-0.210045
-0.205669
-0.199986
-0.193032
-0.184856
-0.175573
-0.165354
-0.154211
-0.142843
-0.131233
-0.119636
-0.108317
-0.0975102
-0.0874083
-0.0781597
-0.0698714
-0.0625969
-0.0563574
-0.0511003
-0.0467881
-0.0432374
-0.040375
-0.0380683
-0.0362011
-0.0346597
-0.0333928
-0.0323623
-0.0315566
-0.0309936
-0.0307118
-0.0307613
-0.0311925
-0.0320448
-0.0333334
-0.0350343
-0.0370848
-0.0393803
-0.0417791
-0.0441083
-0.0461851
-0.0478197
-0.0488544
-0.0491396
-0.0486077
-0.0471645
-0.044884
-0.041706
-0.0378233
-0.0331649
-0.0280204
-0.0222861
-0.0162055
-0.00988771
-0.00299549
-0.252143
-0.248237
-0.245556
-0.242243
-0.238821
-0.235293
-0.231728
-0.228354
-0.22522
-0.222423
-0.220027
-0.218077
-0.216603
-0.215608
-0.215106
-0.215096
-0.215569
-0.216433
-0.217578
-0.218872
-0.220152
-0.221136
-0.221778
-0.221791
-0.220931
-0.219042
-0.215885
-0.211434
-0.205536
-0.198206
-0.189506
-0.179561
-0.16855
-0.156642
-0.144296
-0.131681
-0.11906
-0.106706
-0.0948651
-0.0837431
-0.0735059
-0.0642772
-0.0561333
-0.0491108
-0.0431886
-0.0383336
-0.0344178
-0.03136
-0.0290445
-0.0273556
-0.026184
-0.0254595
-0.0251299
-0.0251649
-0.0255593
-0.0263258
-0.0274863
-0.0290608
-0.0310564
-0.0334542
-0.0361957
-0.0391859
-0.0422911
-0.0453473
-0.0481661
-0.0505596
-0.0523394
-0.0533611
-0.0534877
-0.0526832
-0.0508802
-0.0481635
-0.0445098
-0.0401385
-0.0349874
-0.0293761
-0.0232085
-0.0167495
-0.0101193
-0.00302581
-0.252765
-0.247816
-0.245108
-0.241515
-0.237843
-0.2341
-0.230324
-0.226774
-0.22352
-0.220681
-0.218326
-0.216508
-0.215255
-0.214563
-0.214463
-0.214922
-0.215937
-0.217388
-0.219152
-0.221072
-0.222966
-0.224576
-0.225724
-0.226153
-0.225622
-0.223963
-0.220886
-0.216352
-0.210243
-0.202561
-0.193378
-0.182835
-0.171131
-0.158499
-0.145311
-0.131819
-0.118309
-0.105061
-0.0923294
-0.0803301
-0.0692402
-0.0591956
-0.0502887
-0.0425711
-0.0360461
-0.0306916
-0.0264211
-0.0231587
-0.0208036
-0.0192491
-0.0183918
-0.0181509
-0.0184598
-0.0192725
-0.0205622
-0.0223157
-0.0245254
-0.027179
-0.0302493
-0.0336818
-0.0373835
-0.0412283
-0.0450556
-0.0486824
-0.0519082
-0.0545443
-0.0564062
-0.0573655
-0.0572964
-0.0561985
-0.0540343
-0.0509065
-0.0468069
-0.0419888
-0.0364
-0.0303851
-0.0238567
-0.0170976
-0.0102373
-0.00302697
-0.253138
-0.247789
-0.244646
-0.240919
-0.237041
-0.233133
-0.229489
-0.225501
-0.222125
-0.219243
-0.216917
-0.215203
-0.214127
-0.213686
-0.213912
-0.214784
-0.216255
-0.218206
-0.220498
-0.222953
-0.225363
-0.227471