/*--------------------------------*- C++ -*----------------------------------*\
  =========                 |
  \\      /  F ield         | OpenFOAM: The Open Source CFD Toolbox
   \\    /   O peration     | Website:  https://openfoam.org
    \\  /    A nd           | Version:  7
     \\/     M anipulation  |
\*---------------------------------------------------------------------------*/
FoamFile
{
    version     2.0;
    format      ascii;
    class       surfaceScalarField;
    location    "80.001";
    object      phi;
}
// * * * * * * * * * * * * * * * * * * * * * * * * * * * * * * * * * * * * * //

dimensions      [0 3 -1 0 0 0 0];

internalField   nonuniform List<scalar> 
29280
(
-1.62983e-05
1.42617e-05
2.03658e-06
-5.29842e-05
2.93467e-05
7.33921e-06
-0.000103828
3.76997e-05
1.31437e-05
-0.000164519
4.18591e-05
1.88325e-05
-0.000232329
4.33208e-05
2.44893e-05
-0.000305613
4.27284e-05
3.05558e-05
-0.000383402
4.02235e-05
3.75653e-05
-0.000465064
3.5695e-05
4.59668e-05
-0.000550052
2.89272e-05
5.60613e-05
-0.000637752
1.9701e-05
6.79982e-05
-0.000727459
7.93861e-06
8.17691e-05
-0.000818511
-6.11556e-06
9.71674e-05
-0.000910706
-2.15385e-05
0.000113734
-0.0010052
-3.62032e-05
0.000130694
-4.84512e-05
0.000146845
-0.00110359
-1.60842e-05
3.03459e-05
-5.23343e-05
6.55968e-05
-0.000102569
8.79345e-05
-0.000162484
0.000101774
-0.000229331
0.000110168
-0.000301438
0.000114835
-0.000377801
0.000116586
-0.000457751
0.000115646
-0.000540699
0.000111875
-0.000625962
0.000104963
-0.000712722
9.46991e-05
-0.0008001
8.12626e-05
-0.000887464
6.58246e-05
-0.000975922
5.22549e-05
4.08628e-05
-0.00106524
-1.55768e-05
4.59226e-05
-5.07849e-05
0.000100805
-9.95659e-05
0.000136716
-0.000157635
0.000159843
-0.0002222
0.000174734
-0.000291514
0.000184148
-0.00036448
0.000189552
-0.000440326
0.000191492
-0.000518348
0.000189896
-0.000597709
0.000184325
-0.000677367
0.000174356
-0.000756053
0.000159949
-0.0008322
0.000141972
-0.000907123
0.000127177
0.000110177
-0.000976436
-1.47991e-05
6.07217e-05
-4.83958e-05
0.000134402
-9.49169e-05
0.000183237
-0.000150106
0.000215033
-0.000211103
0.00023573
-0.000276033
0.000249078
-0.000343644
0.000257163
-0.000412988
0.000260837
-0.000483167
0.000260075
-0.00055311
0.000254268
-0.000621447
0.000242694
-0.000686465
0.000224967
-0.00074499
0.000200496
-0.000799335
0.000181522
0.000148755
-0.000837913
-1.37865e-05
7.45082e-05
-4.52591e-05
0.000165874
-8.87749e-05
0.000226752
-0.000140109
0.000266367
-0.000196301
0.000291922
-0.000255299
0.000308076
-0.000315623
0.000317487
-0.000376064
0.000321279
-0.00043544
0.000319451
-0.000492351
0.00031118
-0.000544996
0.000295338
-0.00059133
0.000271302
-0.000625638
0.000234803
-0.000652691
0.000208575
0.00014611
-0.000650045
-1.2585e-05
8.70932e-05
-4.14951e-05
0.000194784
-8.13406e-05
0.000266598
-0.000127922
0.000312948
-0.000178143
0.000342143
-0.000229717
0.00035965
-0.000280858
0.000368627
-0.000329995
0.000370416
-0.000375542
0.000364998
-0.000415652
0.00035129
-0.000447919
0.000327605
-0.000470318
0.000293701
-0.000473433
0.000237918
-0.000466149
0.000201291
9.3689e-05
-0.000413728
-1.12489e-05
9.83421e-05
-3.72464e-05
0.000220782
-7.28529e-05
0.000302204
-0.000113874
0.000353969
-0.000157042
0.00038531
-0.000199769
0.000402378
-0.000239873
0.000408731
-0.000275297
0.00040584
-0.000303899
0.0003936
-0.000323223
0.000370614
-0.000329923
0.000334304
-0.00032247
0.000286248
-0.000287077
0.000202525
-0.000235612
0.000149827
-1.28685e-05
-0.000129055
-9.83777e-06
0.00010818
-3.26702e-05
0.000243614
-6.35759e-05
0.00033311
-9.83338e-05
0.000388727
-0.000133454
0.000420431
-0.000165981
0.000434905
-0.000193228
0.000435977
-0.000212508
0.00042512
-0.000220919
0.000402011
-0.000215219
0.000364914
-0.000190594
0.000309679
-0.000145469
0.000241124
-6.66257e-05
0.000123681
4.69375e-05
3.62638e-05
-0.000183457
0.000217526
-8.4132e-06
0.000116593
-2.7929e-05
0.00026313
-5.37825e-05
0.000358964
-8.16767e-05
0.000416622
-0.000107843
0.000446597
-0.000128871
0.000455932
-0.000141448
0.000448555
-0.000142085
0.000425757
-0.000126859
0.000386786
-9.14948e-05
0.000329549
-3.04319e-05
0.000248616
6.32444e-05
0.000147447
0.000199508
-1.25824e-05
0.000371187
-0.000135415
-0.000447053
0.000634783
-7.03493e-06
0.000123628
-2.31802e-05
0.000279275
-4.37352e-05
0.000379519
-6.42589e-05
0.000437145
-8.06293e-05
0.000462968
-8.88787e-05
0.000464182
-8.49219e-05
0.000444598
-6.42593e-05
0.000405094
-2.16987e-05
0.000344225
4.88293e-05
0.000259021
0.000154688
0.000142757
0.000301763
3.73001e-07
0.000510663
-0.000221482
0.000759724
-0.000384476
-0.000813896
0.00112657
-5.75672e-06
0.000129385
-1.85633e-05
0.000292082
-3.36625e-05
0.000394618
-4.63771e-05
0.00044986
-5.21349e-05
0.000468725
-4.62787e-05
0.000458326
-2.37669e-05
0.000422086
2.11696e-05
0.000360158
9.53526e-05
0.000270042
0.000206572
0.000147802
0.000364816
-1.5487e-05
0.00057782
-0.000212631
0.000868602
-0.000512264
0.00121332
-0.000729199
-0.00129869
0.00169812
-4.62207e-06
0.000134007
-1.41876e-05
0.000301648
-2.37336e-05
0.000404164
-2.82265e-05
0.000454353
-2.2514e-05
0.000463013
-1.08338e-06
0.000436895
4.23283e-05
0.000378674
0.000115028
0.000287458
0.000225801
0.000159269
0.000384793
-1.11903e-05
0.000603452
-0.000234146
0.000894651
-0.00050383
0.00127653
-0.000894138
0.00173131
-0.00118398
-0.00190959
0.00234221
-3.66e-06
0.000137667
-1.01182e-05
0.000308106
-1.40315e-05
0.000408077
-9.85327e-06
0.000450174
8.32352e-06
0.000444836
4.71151e-05
0.000398103
0.000114257
0.000311532
0.000218991
0.000182724
0.000372343
5.91748e-06
0.000587192
-0.00022604
0.000875416
-0.00052237
0.00125559
-0.000884005
0.00173535
-0.00137389
0.00230725
-0.00175589
-0.00263757
0.00303523
-2.88126e-06
0.000140548
-6.36359e-06
0.000311588
-4.52623e-06
0.00040624
8.8886e-06
0.00043676
4.07779e-05
0.000412947
9.91519e-05
0.000339729
0.000193609
0.000217075
0.000335661
4.06731e-05
0.000538705
-0.000197127
0.000818196
-0.000505531
0.00118553
-0.000889707
0.00166114
-0.00135961
0.00223997
-0.00195273
0.00292454
-0.00244046
-0.00344972
0.0037367
-2.27542e-06
0.000142824
-2.85983e-06
0.000312172
4.94329e-06
0.000398437
2.83751e-05
0.000413328
7.56192e-05
0.000365703
0.000156447
0.000258901
0.000282708
9.08135e-05
0.000468445
-0.000145064
0.000729206
-0.000457888
0.0010816
-0.00085792
0.00153588
-0.00134399
0.00210584
-0.00192957
0.00277459
-0.00262147
0.00355113
-0.003217
-0.00429317
0.00439457
-1.81121e-06
0.000144635
5.46361e-07
0.000309815
1.46814e-05
0.000384302
4.92383e-05
0.000378771
0.000114013
0.000300929
0.000220954
0.00015196
0.000384488
-7.27207e-05
0.000621117
-0.000381693
0.000947666
-0.000784436
0.00137878
-0.00128904
0.00192182
-0.00188703
0.0025749
-0.00258265
0.00331067
-0.00335724
0.00413947
-0.0040458
-0.00511061
0.00495691
-1.44532e-06
0.00014608
3.90001e-06
0.00030447
2.51406e-05
0.000363061
7.23629e-05
0.000331549
0.000157492
0.0002158
0.000295058
1.43938e-05
0.000502156
-0.000279819
0.000796998
-0.000676535
0.00119565
-0.00118309
0.00170643
-0.00179982
0.00232933
-0.00250993
0.00304225
-0.00329557
0.00380985
-0.00412484
0.0046368
-0.00487274
-0.00585705
0.00538324
-1.08676e-06
0.000147167
7.6424e-06
0.00029574
3.69262e-05
0.000333777
9.8852e-05
0.000269623
0.000207866
0.000106786
0.000381335
-0.000159075
0.0006386
-0.000537084
0.000997762
-0.0010357
0.00147048
-0.0016558
0.00205411
-0.00238345
0.00273523
-0.00319106
0.00347382
-0.00403416
0.00423177
-0.00488279
0.00500266
-0.00564363
-0.00650809
0.0056537
-5.99512e-07
0.000147766
1.2051e-05
0.00028309
5.07365e-05
0.000295092
0.000129958
0.000190401
0.000267055
-3.03112e-05
0.000482141
-0.000374161
0.000795534
-0.000850477
0.001222
-0.00146216
0.00176372
-0.00219752
0.00240339
-0.00302313
0.00311078
-0.00389844
0.00383632
-0.0047597
0.00454531
-0.00559178
0.00522173
-0.00632005
-0.00705986
0.0057735
1.52547e-07
0.000147614
1.74779e-05
0.000265765
6.73256e-05
0.000245244
0.000166973
9.07537e-05
0.000336837
-0.000200175
0.000599081
-0.000636405
0.000972485
-0.00122388
0.0014639
-0.00195357
0.00206093
-0.00279455
0.0027304
-0.00369259
0.00342814
-0.00459618
0.00410664
-0.00543821
0.00473815
-0.00622328
0.00530231
-0.00688421
-0.00752864
0.00577109
1.09343e-06
0.00014652
2.42748e-05
0.000242583
8.74473e-05
0.000182072
0.000211094
-3.28926e-05
0.000418541
-0.000407623
0.000732369
-0.000950233
0.00116588
-0.00165739
0.00171281
-0.00250051
0.00234335
-0.00342509
0.0030113
-0.00436055
0.00366754
-0.00525241
0.00427631
-0.00604699
0.00481923
-0.0067662
0.00528553
-0.00735051
-0.00794306
0.00569995
2.48378e-06
0.000144037
3.27983e-05
0.000212269
0.000111786
0.000103084
0.000263264
-0.000184371
0.000512698
-0.000657057
0.000880203
-0.00131774
0.00136854
-0.00214572
0.00195426
-0.00308623
0.00259156
-0.00406239
0.00322843
-0.00499742
0.00382144
-0.00584543
0.0043505
-0.00657604
0.0048062
-0.0072219
0.00520829
-0.00775261
-0.00830335
0.00556858
4.39586e-06
0.000139641
4.33534e-05
0.000173311
0.000140891
5.54664e-06
0.000324015
-0.000367495
0.000618684
-0.000951726
0.00103834
-0.00173739
0.00157013
-0.00267751
0.00217258
-0.00368868
0.00279001
-0.00467982
0.00337377
-0.00558118
0.00389363
-0.00636529
0.00434393
-0.00702635
0.00472991
-0.00760788
0.00507462
-0.00809732
-0.00861369
0.00538497
6.90501e-06
0.000132736
5.61758e-05
0.00012404
0.000175119
-0.000113397
0.000393306
-0.000585682
0.000734416
-0.00129284
0.00120009
-0.00220306
0.00175863
-0.00323605
0.00235419
-0.00428424
0.00293012
-0.00525575
0.00344872
-0.00609978
0.00389517
-0.00681174
0.00427658
-0.00740775
0.00460564
-0.00793694
0.0049061
-0.00839778
-0.00889655
0.00518896
1.00707e-05
0.000122665
7.14258e-05
6.26852e-05
0.000214577
-0.000256548
0.000470364
-0.000841469
0.000856202
-0.00167867
0.001357
-0.00270386
0.00192259
-0.00380164
0.00249021
-0.00485186
0.00301074
-0.00577629
0.00346112
-0.00655016
0.00384064
-0.00719126
0.0041646
-0.00773171
0.00444932
-0.00822167
0.00471742
-0.00866588
-0.00915383
0.0049747
1.39334e-05
0.000108732
8.91753e-05
-1.25567e-05
0.000259078
-0.000426451
0.000553564
-0.00113595
0.000978882
-0.00210399
0.00150014
-0.00322511
0.00205328
-0.00435479
0.0025774
-0.00537598
0.00303642
-0.0062353
0.00342193
-0.00693567
0.00374381
-0.00751314
0.0040216
-0.0080095
0.00427202
-0.00847208
0.00451397
-0.00890783
-0.00939088
0.00475102
1.85154e-05
9.02162e-05
0.000109402
-0.000103443
0.000308089
-0.000625138
0.000640365
-0.00146823
0.00109637
-0.00255999
0.00162165
-0.0037504
0.00214591
-0.00487904
0.00261736
-0.00584743
0.00301491
-0.00663285
0.00334242
-0.00726318
0.00361644
-0.00778716
0.00385752
-0.00825058
0.00408067
-0.00869524
0.00430133
-0.00912849
-0.00960979
0.00452024
2.38217e-05
6.63945e-05
0.00013198
-0.000211601
0.000360679
-0.000853837
0.00072741
-0.00183496
0.00120249
-0.00303507
0.00171597
-0.00426388
0.00219955
-0.00536262
0.00261491
-0.00626279
0.00295501
-0.00697295
0.00323266
-0.00754083
0.00346763
-0.00802214
0.00367926
-0.00846221
0.0038801
-0.00889607
0.00408198
-0.00933038
-0.00981161
0.0042838
2.98401e-05
3.65544e-05
0.000156672
-0.000338433
0.000415488
-0.00111265
0.000810806
-0.00223028
0.00129194
-0.0035162
0.0017803
-0.00475225
0.00221632
-0.00579865
0.00257642
-0.00662289
0.00286517
-0.00726169
0.00310093
-0.00777659
0.00330409
-0.0082253
0.00349154
-0.00864966
0.00367311
-0.00907764
0.00385768
-0.00951495
-0.00999699
0.00404306
3.65387e-05
1.56976e-08
0.000183108
-0.000485002
0.00047074
-0.00140029
0.000886589
-0.00264613
0.00136097
-0.00399059
0.00181442
-0.00520569
0.00220021
-0.00618444
0.00250859
-0.00693127
0.00275271
-0.0075058
0.00295362
-0.0079775
0.00313053
-0.00840221
0.00329738
-0.00881651
0.00346156
-0.00924181
0.00362954
-0.00968293
-0.010166
0.00379851
4.38571e-05
-4.38414e-05
0.000210772
-0.000651917
0.000524346
-0.00171386
0.000951236
-0.00307302
0.00140764
-0.004447
0.00182003
-0.00561808
0.00215607
-0.00652048
0.00241769
-0.00719289
0.00262365
-0.00771177
0.00279549
-0.00814934
0.00295021
-0.00855693
0.00309879
-0.0089651
0.00324659
-0.00938961
0.00339827
-0.00983461
-0.0103185
0.00355083
5.17397e-05
-9.55811e-05
0.000238988
-0.000839165
0.000574081
-0.00204895
0.00100208
-0.00350102
0.00143168
-0.0048766
0.00180006
-0.00598646
0.00208888
-0.0068093
0.00230915
-0.00741316
0.0024827
-0.00788532
0.00262997
-0.00829662
0.00276531
-0.00869226
0.00289706
-0.00909685
0.00302901
-0.00952156
0.00316445
-0.00997005
-0.0104545
0.00330042
6.00749e-05
-0.000155656
0.000266932
-0.00104602
0.000617819
-0.00239984
0.00103753
-0.00392073
0.00143411
-0.00527318
0.001758
-0.00631034
0.0020033
-0.0070546
0.0021875
-0.00759736
0.00233341
-0.00803123
0.00245948
-0.00842269
0.00257732
-0.0088101
0.00269307
-0.0092126
0.00280938
-0.00963787
0.00292853
-0.0100892
-0.0105737
0.00304777
6.87289e-05
-0.000224385
0.000293671
-0.00127096
0.000653756
-0.00275993
0.00105704
-0.00432402
0.00141683
-0.00563297
0.00169748
-0.00659099
0.00190345
-0.00726056
0.00205633
-0.00775024
0.00217844
-0.00815334
0.00228571
-0.00852995
0.00238725
-0.00891164
0.00248745
-0.0093128
0.00258818
-0.0097386
0.00269095
-0.010192
-0.0106761
0.00279331
7.75357e-05
-0.000301921
0.000318235
-0.00151166
0.000680579
-0.00312227
0.00106097
-0.00470441
0.0013822
-0.0059542
0.00162196
-0.00683075
0.00179282
-0.00743142
0.00191848
-0.00787591
0.00201972
-0.00825458
0.00210985
-0.00862008
0.00219581
-0.0089976
0.0022807
-0.00939769
0.00236581
-0.00982371
0.00245211
-0.0102783
-0.0107615
0.00253746
8.62937e-05
-0.000388214
0.0003397
-0.00176507
0.000697542
-0.00348011
0.0010503
-0.00505716
0.00133275
-0.00623666
0.00153458
-0.00703258
0.00167427
-0.00757111
0.00177609
-0.00797773
0.00185865
-0.00833715
0.00193275
-0.00869418
0.00200357
-0.00906841
0.00207322
-0.00946734
0.00214265
-0.00989314
0.00221239
-0.010348
-0.0108297
0.00228065
9.47691e-05
-0.000482983
0.00035726
-0.00202756
0.000704448
-0.0038273
0.00102643
-0.00537914
0.00127098
-0.0064812
0.00143805
-0.00719965
0.0015501
-0.00768316
0.00163077
-0.0080584
0.00169624
-0.00840261
0.00175504
-0.00875298
0.00181094
-0.00912431
0.00186539
-0.00952179
0.00191907
-0.00994682
0.0019722
-0.0104011
-0.0108808
0.00202333
0.000102708
-0.000585691
0.000370284
-0.00229514
0.000701562
-0.00415858
0.000990972
-0.00566855
0.00119922
-0.00668945
0.00133468
-0.00733511
0.00142213
-0.00777061
0.00148376
-0.00812003
0.00153325
-0.0084521
0.0015772
-0.00879693
0.0016183
-0.00916541
0.00165755
-0.00956103
0.00169543
-0.00998471
0.00173194
-0.0104376
-0.0109149
0.00176596
0.000109849
-0.00069554
0.000378352
-0.00256364
0.000689494
-0.00446972
0.000945609
-0.00592467
0.00111958
-0.00686343
0.00122639
-0.00744192
0.00129178
-0.007836
0.00133596
-0.0081642
0.00137024
-0.00848638
0.00139962
-0.00882631
0.00142599
-0.00919178
0.00145003
-0.00958507
0.00147209
-0.0100068
0.00149202
-0.0104576
-0.0109319
0.00150904
0.000115948
-0.000811488
0.000381261
-0.00282895
0.000669072
-0.00475753
0.000891982
-0.00614758
0.0010339
-0.00700535
0.00111475
-0.00752277
0.00116015
-0.0078814
0.00118807
-0.00819212
0.00120766
-0.00850597
0.00122264
-0.00884128
0.0012343
-0.00920344
0.00124312
-0.00959389
0.00124936
-0.010013
0.00125282
-0.010461
-0.0109322
0.0012531
0.000120782
-0.00093227
0.000379016
-0.00308719
0.000641252
-0.00501977
0.000831629
-0.00633795
0.000943765
-0.00711749
0.00100101
-0.00758002
0.00102809
-0.00790848
0.00104062
-0.00820465
0.00104588
-0.00851122
0.00104655
-0.00884196
0.00104352
-0.00920042
0.00103711
-0.00958748
0.00102753
-0.0100034
0.00101465
-0.0104482
-0.0109158
0.00099829
0.000124171
-0.00105644
0.000371796
-0.00333481
0.000607028
-0.005255
0.000765952
-0.00649688
0.0008505
-0.00720203
0.000886189
-0.00761571
0.000896257
-0.00791855
0.000894037
-0.00820243
0.000885193
-0.00850238
0.000871644
-0.00882841
0.000853956
-0.00918273
0.00083231
-0.00956584
0.000806885
-0.009978
0.0007777
-0.010419
-0.0108825
0.000744425
0.000125977
-0.00118242
0.000359915
-0.00356875
0.000567391
-0.00546247
0.000696197
-0.00662568
0.000755221
-0.00726106
0.000771077
-0.00763157
0.00076516
-0.00791263
0.000748651
-0.00818592
0.000725884
-0.00847961
0.000698183
-0.00880071
0.000665884
-0.00915043
0.000629047
-0.009529
0.000587785
-0.00993674
0.000542091
-0.0103733
-0.0108323
0.000491862
0.000126115
-0.00130853
0.000343776
-0.00378641
0.000523283
-0.00564198
0.000623455
-0.00672586
0.000658846
-0.00729645
0.000656315
-0.00762903
0.000635209
-0.00789153
0.000604753
-0.00815547
0.000568199
-0.00844306
0.000526421
-0.00875893
0.000479588
-0.0091036
0.000427683
-0.00947709
0.000370752
-0.00987981
0.000308164
-0.0103107
-0.0107648
0.000240618
0.000124558
-0.00143309
0.000323901
-0.00398576
0.000475593
-0.00579367
0.000548665
-0.00679893
0.000562125
-0.00730991
0.000542405
-0.00760931
0.000506726
-0.00785585
0.000462588
-0.00811133
0.00041237
-0.00839284
0.000356609
-0.00870317
0.000295317
-0.0090423
0.000228496
-0.00941027
0.000156107
-0.00980742
7.80125e-05
-0.0102326
-0.0106746
-1.2151e-05
0.000121337
-0.00155443
0.000300849
-0.00416527
0.000425138
-0.00591796
0.00047263
-0.00684642
0.00046567
-0.00730295
0.000429747
-0.00757339
0.000379983
-0.00780608
0.000322378
-0.00805373
0.000258601
-0.00832907
0.000188976
-0.00863354
0.000113286
-0.00896661
3.13981e-05
-0.00932839
-5.62172e-05
-0.00971981
-0.000150245
-0.0101386
-0.0105724
-0.000252472
0.000116528
-0.00167096
0.000275119
-0.00432386
0.000372647
-0.00601549
0.000396026
-0.0068698
0.000369971
-0.00727689
0.000318661
-0.00752208
0.000255213
-0.00774264
0.000184301
-0.00798281
0.000107028
-0.00825179
2.34528e-05
-0.00854997
-6.6127e-05
-0.00887703
-0.000162189
-0.00923232
-0.000264887
-0.00961711
-0.000375554
-0.0100279
-0.0104555
-0.000492455
0.000110245
-0.0017812
0.000247194
-0.00446081
0.00031876
-0.00608706
0.000319424
-0.00687046
0.000275421
-0.00723289
0.000209416
-0.00745607
0.000132596
-0.00766582
4.83422e-05
-0.00789856
-4.21284e-05
-0.00816132
-0.00013884
-0.00845325
-0.000242489
-0.00877338
-0.000352999
-0.00912181
-0.000470835
-0.00949927
-0.000596725
-0.00990202
-0.0103229
-0.000729266
0.000102633
-0.00188383
0.000217534
-0.00457571
0.000264038
-0.00613356
0.00024329
-0.00684971
0.000182352
-0.00717196
0.000102208
-0.00737593
1.17365e-05
-0.00757534
-8.48081e-05
-0.00780201
-0.000188183
-0.00805795
-0.00029848
-0.00834296
-0.000415892
-0.00865597
-0.00054065
-0.00899706
-0.000673284
-0.00936664
-0.000814089
-0.00976121
-0.0101749
-0.000962143
9.38575e-05
-0.00197769
0.000186574
-0.00466843
0.000208975
-0.00615596
0.000167986
-0.00680872
9.10453e-05
-0.00709501
-3.57527e-06
-0.00728131
-0.000105567
-0.00747335
-0.000215166
-0.00769241
-0.000331583
-0.00794153
-0.000455113
-0.00821943
-0.000586057
-0.00852503
-0.000724795
-0.00885832
-0.000871888
-0.00921955
-0.00102744
-0.00960566
-0.0100116
-0.00119071
8.4094e-05
-0.00206178
0.000154721
-0.00473905
0.000154004
-0.00615524
9.38054e-05
-0.00674853
5.93832e-07
-0.0070018
-0.000105321
-0.0071754
-0.000220564
-0.00735811
-0.000342794
-0.00757018
-0.000471999
-0.00781233
-0.000608521
-0.00808291
-0.000752754
-0.00838079
-0.000905178
-0.00870589
-0.00106641
-0.00905832
-0.00123649
-0.00943557
-0.00983349
-0.0014146
7.35189e-05
-0.0021353
0.000122356
-0.00478789
9.94735e-05
-0.00613236
2.13064e-05
-0.00667036
-8.52893e-05
-0.00689521
-0.000205222
-0.00705546
-0.00033288
-0.00723045
-0.0004675
-0.00743556
-0.000609249
-0.00767058
-0.000758524
-0.00793363
-0.000915775
-0.00822354
-0.00108157
-0.0085401
-0.00125661
-0.00888328
-0.00144095
-0.00925123
-0.00964089
-0.00163355
6.23134e-05
-0.00219762
8.9817e-05
-0.00481539
4.57436e-05
-0.00608829
-4.94871e-05
-0.00657513
-0.00017009
-0.0067746
-0.000302541
-0.00692301
-0.000442357
-0.00709064
-0.000589129
-0.00728879
-0.000743181
-0.00751653
-0.000904951
-0.00777186
-0.00107493
-0.00805356
-0.00125376
-0.00836127
-0.00144228
-0.00869477
-0.00164055
-0.00905296
-0.00943428
-0.00184716
5.06844e-05
-0.0022483
5.74402e-05
-0.00482215
-6.62283e-06
-0.00602422
-0.000118441
-0.00646331
-0.000252562
-0.00664048
-0.000397154
-0.00677842
-0.000548862
-0.00693893
-0.000707552
-0.0071301
-0.00087365
-0.00735043
-0.00104764
-0.00759787
-0.00123006
-0.00787115
-0.00142159
-0.00816974
-0.00162321
-0.00849314
-0.001835
-0.00884117
-0.00921436
-0.00205492
3.88452e-05
-0.00228715
2.58664e-05
-0.00480917
-5.87651e-05
-0.00593959
-0.000185587
-0.00633649
-0.000332549
-0.00649352
-0.000488966
-0.006622
-0.000652295
-0.0067756
-0.000822643
-0.00695975
-0.00100052
-0.00717255
-0.00118645
-0.00741193
-0.00138098
-0.00767662
-0.00158487
-0.00796585
-0.00179921
-0.00827881
-0.00202399
-0.00861639
-0.00898181
-0.00225654
2.68118e-05
-0.00231396
-3.70071e-06
-0.00477866
-0.000108596
-0.0058347
-0.000250686
-0.0061944
-0.000409993
-0.00633422
-0.000577888
-0.00645411
-0.000752555
-0.00660093
-0.000934288
-0.00677802
-0.00112366
-0.00698317
-0.00132124
-0.00721436
-0.00152756
-0.0074703
-0.00174346
-0.00774995
-0.0019701
-0.00805216
-0.00220744
-0.00837906
-0.00873671
-0.00245253
1.4314e-05
-0.00232827
-3.86612e-05
-0.00472568
-0.000157686
-0.00571567
-0.000313581
-0.0060385
-0.000484793
-0.006163
-0.000663838
-0.00627506
-0.000849547
-0.00641522
-0.00104238
-0.00658519
-0.00124296
-0.00678259
-0.00145187
-0.00700545
-0.00166968
-0.00725249
-0.00189723
-0.0075224
-0.00213578
-0.00781361
-0.00238554
-0.0081293
-0.00847923
-0.00264302
2.09639e-06
-0.00233037
-7.03953e-05
-0.00465319
-0.000205316
-0.00558075
-0.000374203
-0.00586961
-0.000556856
-0.00598035
-0.000746733
-0.00608519
-0.00094318
-0.00621878
-0.0011468
-0.00638157
-0.00135828
-0.00657111
-0.00157823
-0.0067855
-0.00180726
-0.00702345
-0.00204623
-0.00728343
-0.0022962
-0.00756364
-0.00255748
-0.00786802
-0.00821098
-0.00282574
-1.07855e-05
-0.00231958
-0.000100799
-0.00456318
-0.000251201
-0.00543035
-0.000432504
-0.00568831
-0.000626129
-0.00578673
-0.0008265
-0.00588482
-0.00103336
-0.00601191
-0.00124745
-0.00616748
-0.0014695
-0.00634906
-0.00170019
-0.00655482
-0.00194023
-0.00678341
-0.00219054
-0.00703312
-0.00245158
-0.0073026
-0.0027214
-0.0075982
-0.00793109
-0.00300128
-2.31946e-05
-0.00229639
-0.00013007
-0.0044563
-0.000295223
-0.0052652
-0.000488398
-0.00549514
-0.000692558
-0.00558257
-0.00090307
-0.0056743
-0.00112001
-0.00579497
-0.00134422
-0.00594327
-0.0015765
-0.00611679
-0.00181759
-0.00631372
-0.00206838
-0.00653261
-0.00232983
-0.00677167
-0.00260236
-0.00703008
-0.00288681
-0.00731374
-0.00765694
-0.00316096
-3.51942e-05
-0.00226119
-0.000158211
-0.00433329
-0.000337332
-0.00508608
-0.000541826
-0.00529064
-0.000756093
-0.0053683
-0.000976379
-0.00545402
-0.00120305
-0.0055683
-0.00143702
-0.0057093
-0.00167915
-0.00587466
-0.00193028
-0.00606259
-0.00219139
-0.0062715
-0.00246331
-0.00649975
-0.00274525
-0.00674814
-0.00303537
-0.00702362
-0.00732142
-0.00337088
-4.6793e-05
-0.0022144
-0.000185179
-0.0041949
-0.000377488
-0.00489377
-0.000592743
-0.00507539
-0.00081669
-0.00514435
-0.00104637
-0.00522434
-0.00128238
-0.00533228
-0.00152574
-0.00546595
-0.00177735
-0.00562305
-0.00203815
-0.00580179
-0.00230905
-0.0060006
-0.00259036
-0.00621844
-0.00288145
-0.00645704
-0.00318644
-0.00671864
-0.00698923
-0.00351863
-5.79541e-05
-0.00215645
-0.000210928
-0.00404193
-0.000415658
-0.00468904
-0.000641113
-0.00484993
-0.000874306
-0.00491116
-0.00111298
-0.00498566
-0.00135795
-0.00508731
-0.00161029
-0.00521362
-0.00187099
-0.00536235
-0.00214105
-0.00553174
-0.00242136
-0.00572029
-0.00271239
-0.00592741
-0.00301499
-0.00615445
-0.00333337
-0.00640026
-0.00665383
-0.00366876
-6.86403e-05
-0.00208781
-0.00023541
-0.00387516
-0.000451813
-0.00447263
-0.00068691
-0.00461484
-0.000928906
-0.00466916
-0.00117617
-0.0047384
-0.00142969
-0.0048338
-0.0016906
-0.00495271
-0.00195996
-0.00509299
-0.00223878
-0.00525291
-0.00252794
-0.00543114
-0.00282806
-0.00562728
-0.00314057
-0.00584194
-0.00346839
-0.00607244
-0.00631141
-0.00381081
-7.88595e-05
-0.00200895
-0.000258591
-0.00369542
-0.000485929
-0.0042453
-0.000730109
-0.00437066
-0.000980454
-0.00441882
-0.00123588
-0.00448297
-0.00149751
-0.00457216
-0.00176657
-0.00468365
-0.00204415
-0.00481541
-0.00233131
-0.00496575
-0.00262895
-0.0051335
-0.00293795
-0.00531829
-0.0032598
-0.00552009
-0.0035963
-0.00573594
-0.0059611
-0.00394661
-8.85728e-05
-0.00192037
-0.000280438
-0.00350356
-0.000517983
-0.00400775
-0.000770691
-0.00411795
-0.00102892
-0.00416059
-0.00129206
-0.00421983
-0.00156138
-0.00430284
-0.00183813
-0.0044069
-0.00212347
-0.00453007
-0.00241848
-0.00467075
-0.00272411
-0.00482787
-0.00304137
-0.00500103
-0.00337166
-0.0051898
-0.00371626
-0.00539134
-0.00560265
-0.00407471
-9.77441e-05
-0.00182263
-0.000300923
-0.00330038
-0.000547959
-0.00376072
-0.000808637
-0.00385727
-0.00107428
-0.00389495
-0.00134468
-0.00394942
-0.00162123
-0.0040263
-0.00190521
-0.00412291
-0.00219785
-0.00423743
-0.00250023
-0.00436836
-0.00281338
-0.00451471
-0.00313837
-0.00467604
-0.00347648
-0.00485168
-0.00382876
-0.00503907
-0.00523636
-0.00419505
-0.000106345
-0.00171629
-0.00032002
-0.00308671
-0.00057584
-0.00350489
-0.000843932
-0.00358918
-0.0011165
-0.00362239
-0.0013937
-0.00367222
-0.001677
-0.003743
-0.00196775
-0.00383216
-0.00226719
-0.00393799
-0.00257646
-0.00405909
-0.00289663
-0.00419455
-0.00322877
-0.00434389
-0.00357412
-0.00450634
-0.00393361
-0.00467958
-0.00486263
-0.00430734
-0.000114353
-0.00160193
-0.000337708
-0.00286335
-0.000601614
-0.00324099
-0.000876561
-0.00331423
-0.00115556
-0.00334339
-0.00143908
-0.0033887
-0.00172865
-0.00345342
-0.00202569
-0.00353513
-0.00233145
-0.00363223
-0.00264711
-0.00374344
-0.00297376
-0.0038679
-0.00331252
-0.00400513
-0.00366455
-0.00415432
-0.00403076
-0.00431336
-0.00448197
-0.00441143
-0.000121748
-0.00148018
-0.000353969
-0.00263113
-0.000625269
-0.00296969
-0.000906512
-0.00303299
-0.00119143
-0.00305847
-0.00148078
-0.00309935
-0.00177615
-0.00315805
-0.00207897
-0.0032323
-0.00239055
-0.00332065
-0.00271209
-0.0034219
-0.00304472
-0.00353527
-0.00338954
-0.00366031
-0.0037477
-0.00379616
-0.00412012
-0.00394094
-0.00409489
-0.00450719
-0.000128515
-0.00135167
-0.000368788
-0.00239086
-0.000646797
-0.00269168
-0.000933773
-0.00274601
-0.00122411
-0.00276813
-0.00151878
-0.00280468
-0.00181944
-0.0028574
-0.00212755
-0.00292419
-0.00244445
-0.00300375
-0.00277135
-0.00309499
-0.00310941
-0.00319721
-0.00345976
-0.00330996
-0.00382351
-0.00343241
-0.00420159
-0.00356286
-0.00370197
-0.00459452
-0.000134638
-0.00121703
-0.000382154
-0.00214334
-0.00066619
-0.00240764
-0.000958334
-0.00245387
-0.00125357
-0.0024729
-0.00155305
-0.00250519
-0.0018585
-0.00255195
-0.00217139
-0.0026113
-0.00249308
-0.00268206
-0.00282483
-0.00276325
-0.00316779
-0.00285425
-0.00352312
-0.00295464
-0.00389192
-0.00306361
-0.0042751
-0.00317967
-0.00330376
-0.00467331
-0.000140107
-0.00107692
-0.000394056
-0.00188939
-0.000683441
-0.00211826
-0.000980187
-0.00215713
-0.00127979
-0.0021733
-0.00158358
-0.0022014
-0.00189329
-0.00224224
-0.00221044
-0.00229415
-0.00253641
-0.00235608
-0.00287248
-0.00242719
-0.00321981
-0.00250691
-0.00357957
-0.00259488
-0.00395285
-0.00269032
-0.00434058
-0.00279194
-0.00290085
-0.00474349
-0.000144911
-0.000932012
-0.000404485
-0.00162982
-0.000698546
-0.0018242
-0.000999323
-0.00185635
-0.00130276
-0.00186987
-0.00161032
-0.00189384
-0.00192378
-0.00192878
-0.00224468
-0.00197325
-0.00257441
-0.00202635
-0.00291425
-0.00208734
-0.00326542
-0.00215575
-0.00362906
-0.00223124
-0.00400627
-0.00231311
-0.00439797
-0.00240024
-0.00249383
-0.00480499
-0.000149043
-0.000782969
-0.000413435
-0.00136543
-0.000711498
-0.00152613
-0.00101574
-0.00155211
-0.00132247
-0.00156313
-0.00163328
-0.00158303
-0.00194996
-0.0016121
-0.00227407
-0.00164914
-0.00260703
-0.0016934
-0.00295012
-0.00174425
-0.00330457
-0.0018013
-0.00367154
-0.00186426
-0.00405213
-0.00193253
-0.00444722
-0.00200515
-0.0020833
-0.00485775
-0.000152496
-0.000630474
-0.000420901
-0.00109702
-0.000722296
-0.00122474
-0.00102942
-0.00124498
-0.00133891
-0.00125364
-0.00165243
-0.0012695
-0.00197181
-0.00129273
-0.0022986
-0.00132235
-0.00263425
-0.00135775
-0.00298006
-0.00139844
-0.00333725
-0.00144411
-0.003707
-0.00149451
-0.00409038
-0.00154914
-0.0044883
-0.00160724
-0.00166985
-0.00490174
-0.000155263
-0.00047521
-0.000426877
-0.000825407
-0.000730936
-0.00092068
-0.00104037
-0.000935547
-0.00135207
-0.000941947
-0.00166777
-0.000953805
-0.0019893
-0.000971201
-0.00231825
-0.000993398
-0.00265605
-0.00101994
-0.00300403
-0.00105046
-0.00336341
-0.00108472
-0.00373538
-0.00112254
-0.00412101
-0.00116351
-0.00452117
-0.00120708
-0.00125408
-0.00493694
-0.000157342
-0.000317869
-0.00043136
-0.000551389
-0.000737415
-0.000614625
-0.00104859
-0.000624376
-0.00136194
-0.000628592
-0.00167927
-0.000636473
-0.00200242
-0.000648051
-0.00233299
-0.000662834
-0.00267241
-0.00068052
-0.00302202
-0.000700858
-0.00338305
-0.000723693
-0.00375669
-0.0007489
-0.00414399
-0.000776207
-0.00454583
-0.000805235
-0.000836587
-0.00496333
-0.000158728
-0.00015914
-0.000434348
-0.000275769
-0.000741733
-0.00030724
-0.00105406
-0.000312048
-0.00136852
-0.00031413
-0.00168694
-0.000318051
-0.00201117
-0.00032382
-0.00234282
-0.000331192
-0.00268332
-0.000340016
-0.00303401
-0.000350165
-0.00339614
-0.000361565
-0.00377089
-0.00037415
-0.00415932
-0.000387785
-0.00456227
-0.000402278
-0.000417941
-0.00498092
-0.000159421
2.80663e-07
-0.00043584
6.49728e-07
-0.000743888
8.08879e-07
-0.00105679
8.57349e-07
-0.00137181
8.8409e-07
-0.00169077
9.14964e-07
-0.00201554
9.5031e-07
-0.00234773
9.88658e-07
-0.00268877
1.02904e-06
-0.00304001
1.07062e-06
-0.00340268
1.11275e-06
-0.00377799
1.15477e-06
-0.00416697
1.19592e-06
-0.00457048
1.23582e-06
1.27343e-06
-0.0049897
-0.000159418
0.000159699
-0.000435834
0.000277065
-0.00074388
0.000308855
-0.00105678
0.000313761
-0.0013718
0.000315897
-0.00169076
0.00031988
-0.00201553
0.00032572
-0.00234771
0.000333169
-0.00268875
0.000342073
-0.00303999
0.000352306
-0.00340267
0.00036379
-0.00377797
0.00037646
-0.00416695
0.000390177
-0.00457047
0.00040475
0.000420493
-0.00498969
-0.00015872
0.000318418
-0.00043433
0.000552676
-0.000741707
0.000616232
-0.00105403
0.000626082
-0.00136849
0.000630353