/*--------------------------------*- C++ -*----------------------------------*\
  =========                 |
  \\      /  F ield         | OpenFOAM: The Open Source CFD Toolbox
   \\    /   O peration     | Website:  https://openfoam.org
    \\  /    A nd           | Version:  7
     \\/     M anipulation  |
\*---------------------------------------------------------------------------*/
FoamFile
{
    version     2.0;
    format      ascii;
    class       volScalarField;
    location    "80";
    object      p;
}
// * * * * * * * * * * * * * * * * * * * * * * * * * * * * * * * * * * * * * //

dimensions      [0 2 -2 0 0 0 0];

internalField   nonuniform List<scalar> 
6000
(
-0.274863
-0.274606
-0.274335
-0.274073
-0.273913
-0.274576
-0.274454
-0.27436
-0.27432
-0.274447
-0.274329
-0.274327
-0.274393
-0.27455
-0.274933
-0.274214
-0.274422
-0.27475
-0.275341
-0.274103
-0.274432
-0.274907
-0.275638
-0.273984
-0.274412
-0.275016
-0.27579
-0.273846
-0.274348
-0.275079
-0.275755
-0.273682
-0.274229
-0.27511
-0.275479
-0.273486
-0.27404
-0.27511
-0.274977
-0.273255
-0.273784
-0.274943
-0.274648
-0.272978
-0.273511
-0.274628
-0.274177
-0.27316
-0.274291
-0.273482
-0.272721
-0.273938
-0.272581
-0.272185
-0.273568
-0.271485
-0.271541
-0.273181
-0.270204
-0.272771
-0.268756
-0.27232
-0.267176
-0.271791
-0.265517
-0.26385
-0.262244
-0.260743
-0.274004
-0.273639
-0.273665
-0.27361
-0.273709
-0.273817
-0.273941
-0.273982
-0.27386
-0.273457
-0.272646
-0.27132
-0.269398
-0.266768
-0.263361
-0.259157
-0.254202
-0.248605
-0.242538
-0.236242
-0.230015
-0.224176
-0.219045
-0.214919
-0.212033
-0.210522
-0.210433
-0.211703
-0.214124
-0.217362
-0.220988
-0.224483
-0.227307
-0.228954
-0.22895
-0.227032
-0.222996
-0.216896
-0.208826
-0.199162
-0.188298
-0.17673
-0.164952
-0.153432
-0.142582
-0.132751
-0.124236
-0.117298
-0.112185
-0.109131
-0.108323
-0.10985
-0.113619
-0.11931
-0.126369
-0.13407
-0.141618
-0.148253
-0.153328
-0.156356
-0.157027
-0.155249
-0.151097
-0.144833
-0.136858
-0.127661
-0.117757
-0.107632
-0.0976987
-0.0882781
-0.079598
-0.0718032
-0.0649737
-0.0591445
-0.0543229
-0.0505034
-0.0476838
-0.0458831
-0.045157
-0.045597
-0.047298
-0.0502937
-0.0544807
-0.0595763
-0.0651294
-0.0706028
-0.0754488
-0.0792123
-0.0815157
-0.0821508
-0.0809386
-0.0779296
-0.0730863
-0.0667013
-0.0587798
-0.049766
-0.0396867
-0.028798
-0.0176238
-0.0051324
-0.275091
-0.27526
-0.275974
-0.276658
-0.277557
-0.2785
-0.279474
-0.280357
-0.281038
-0.281365
-0.281186
-0.280367
-0.278782
-0.276292
-0.272808
-0.268295
-0.262788
-0.256394
-0.249291
-0.241728
-0.234033
-0.226556
-0.219648
-0.21364
-0.208816
-0.205349
-0.203349
-0.202809
-0.203579
-0.205386
-0.207839
-0.210469
-0.212738
-0.214203
-0.214339
-0.212841
-0.209506
-0.204373
-0.197437
-0.189066
-0.179578
-0.169431
-0.159074
-0.148943
-0.139433
-0.130891
-0.123622
-0.117912
-0.114035
-0.112239
-0.112712
-0.115507
-0.120478
-0.127237
-0.13517
-0.143513
-0.151459
-0.158254
-0.163264
-0.16602
-0.166225
-0.163821
-0.158902
-0.151768
-0.142863
-0.132714
-0.121874
-0.110853
-0.100082
-0.089889
-0.0805004
-0.0720559
-0.0646272
-0.0582395
-0.0528906
-0.0485657
-0.0452526
-0.0429583
-0.0417256
-0.0416353
-0.042782
-0.0452151
-0.0488632
-0.0534835
-0.0586607
-0.0638797
-0.0686015
-0.0723705
-0.0748068
-0.0756973
-0.0748595
-0.0723299
-0.0680599
-0.0623136
-0.0550808
-0.0467737
-0.0374061
-0.0272094
-0.0167038
-0.00483398
-0.276208
-0.27684
-0.278241
-0.279636
-0.281315
-0.283072
-0.284879
-0.286586
-0.288053
-0.289095
-0.28953
-0.289207
-0.287954
-0.285599
-0.282036
-0.277213
-0.271155
-0.263968
-0.255834
-0.247007
-0.237854
-0.228752
-0.220075
-0.212189
-0.205434
-0.200004
-0.19607
-0.193688
-0.192759
-0.193073
-0.194285
-0.195972
-0.197626
-0.198788
-0.199009
-0.197913
-0.195229
-0.191034
-0.185205
-0.178115
-0.169994
-0.161269
-0.152339
-0.143615
-0.135472
-0.128257
-0.122288
-0.117872
-0.115305
-0.114846
-0.116665
-0.120778
-0.126975
-0.134803
-0.143596
-0.152562
-0.160888
-0.167828
-0.172766
-0.175247
-0.174999
-0.171956
-0.166274
-0.15828
-0.148458
-0.137378
-0.125626
-0.113738
-0.102161
-0.091227
-0.081162
-0.0720987
-0.0640998
-0.0571809
-0.0513299
-0.0465226
-0.0427375
-0.0399707
-0.0382521
-0.0376522
-0.0382633
-0.0401478
-0.0432649
-0.0474116
-0.0522109
-0.0571722
-0.0617672
-0.0655388
-0.0681038
-0.069243
-0.0687698
-0.0667081
-0.0629997
-0.0578827
-0.0513318
-0.0437306
-0.0350768
-0.0255841
-0.0157561
-0.00453473
-0.277328
-0.278345
-0.280426
-0.282497
-0.284932
-0.287473
-0.290086
-0.292592
-0.294825
-0.296563
-0.297583
-0.297737
-0.296806
-0.294579
-0.290934
-0.285801
-0.279197
-0.271229
-0.26208
-0.252005
-0.241416
-0.230717
-0.220297
-0.210558
-0.201907
-0.194525
-0.188659
-0.184425
-0.181767
-0.180542
-0.180454
-0.181125
-0.182086
-0.182897
-0.183028
-0.1824
-0.180246
-0.176934
-0.172166
-0.166331
-0.159554
-0.152239
-0.144737
-0.13743
-0.130681
-0.124834
-0.120222
-0.117168
-0.115987
-0.116938
-0.120165
-0.125632
-0.133069
-0.141959
-0.151594
-0.161161
-0.169849
-0.176922
-0.181781
-0.183984
-0.183273
-0.179608
-0.173174
-0.164336
-0.153619
-0.141634
-0.129002
-0.116283
-0.103936
-0.0922986
-0.0815929
-0.0719445
-0.0634071
-0.0559861
-0.0496598
-0.0443949
-0.0401608
-0.0369434
-0.0347608
-0.0336727
-0.0337676
-0.0351186
-0.0377129
-0.0413874
-0.0458053
-0.050504
-0.0549676
-0.0587377
-0.0614267
-0.0628076
-0.0626892
-0.0610873
-0.0579236
-0.053425
-0.0475469
-0.0406485
-0.0327081
-0.0239287
-0.0147845
-0.00423595
-0.278428
-0.279739
-0.282489
-0.285198
-0.288354
-0.291644
-0.295027
-0.298299
-0.301269
-0.303682
-0.305246
-0.305857
-0.305234
-0.303125
-0.299393
-0.293953
-0.286813
-0.278082
-0.26795
-0.256645
-0.244661
-0.23241
-0.220288
-0.208736
-0.198255
-0.188957
-0.181178
-0.175107
-0.170709
-0.167916
-0.166481
-0.166072
-0.166258
-0.166638
-0.166661
-0.166167
-0.164646
-0.162153
-0.158382
-0.153757
-0.148289
-0.142364
-0.13628
-0.130398
-0.125067
-0.120632
-0.117435
-0.115815
-0.116092
-0.118517
-0.1232
-0.130048
-0.138726
-0.148663
-0.159116
-0.169261
-0.178292
-0.185486
-0.190258
-0.19218
-0.191012
-0.186738
-0.179568
-0.169908
-0.158324
-0.145469
-0.131994
-0.118485
-0.105411
-0.093111
-0.0818037
-0.0716068
-0.0625644
-0.0546722
-0.0478988
-0.0422024
-0.0375434
-0.0338984
-0.0312744
-0.0297203
-0.0293194
-0.0301528
-0.0322331
-0.0354367
-0.0394687
-0.0438977
-0.0482232
-0.0519862
-0.0547934
-0.0564085
-0.0566346
-0.0554765
-0.0528475
-0.0489552
-0.0437394
-0.0375384
-0.0303085
-0.0222491
-0.0137926
-0.00393891
-0.279491
-0.280988
-0.284396
-0.287697
-0.291533
-0.295528
-0.299639
-0.303636
-0.307307
-0.310373
-0.312418
-0.31348
-0.313138
-0.311135
-0.307313
-0.301569
-0.293905
-0.284437
-0.27337
-0.260859
-0.247534
-0.233795
-0.220026
-0.206713
-0.194508
-0.183341
-0.173689
-0.165822
-0.159695
-0.155323
-0.152509
-0.150966
-0.150302
-0.150163
-0.149991
-0.149597
-0.148478
-0.146801
-0.143945
-0.14047
-0.136262
-0.131695
-0.127015
-0.122562
-0.118672
-0.115691
-0.113968
-0.113847
-0.115645
-0.119599
-0.125772
-0.13401
-0.143918
-0.154877
-0.166119
-0.176816
-0.186169
-0.193472
-0.19815
-0.19979
-0.198176
-0.193307
-0.185424
-0.17497
-0.162555
-0.148869
-0.134598
-0.120345
-0.10659
-0.0936729
-0.0818061
-0.0710994
-0.0615873
-0.053256
-0.0460649
-0.0399636
-0.0349048
-0.030856
-0.027814
-0.0258169
-0.0249415
-0.0252743
-0.0268503
-0.0295842
-0.0332247
-0.0373751
-0.0415533
-0.0453016
-0.0482199
-0.0500614
-0.0506215
-0.0498944
-0.0477862
-0.0444871
-0.0399213
-0.0344106
-0.0278863
-0.0205511
-0.0127837
-0.00364476
-0.280503
-0.282062
-0.286116
-0.28996
-0.29443
-0.299079
-0.303868
-0.308541
-0.312871
-0.316582
-0.318992
-0.320519
-0.320427
-0.318515
-0.314598
-0.308557
-0.300386
-0.290211
-0.27828
-0.264569
-0.249985
-0.23484
-0.219495
-0.204473
-0.190708
-0.177729
-0.166256
-0.156662
-0.148835
-0.14289
-0.138687
-0.135969
-0.134387
-0.13365
-0.133177
-0.132839
-0.131923
-0.131008
-0.12898
-0.126576
-0.123571
-0.12032
-0.117021
-0.113996
-0.111567
-0.110078
-0.109881
-0.111318
-0.114691
-0.120208
-0.127886
-0.137508
-0.148622
-0.16057
-0.172566
-0.183785
-0.193439
-0.200836
-0.205415
-0.206771
-0.204725
-0.199283
-0.190714
-0.179501
-0.166295
-0.151827
-0.136809
-0.121865
-0.107481
-0.0939943
-0.0816126
-0.0704366
-0.0604914
-0.0517539
-0.044175
-0.0376964
-0.0322633
-0.027835
-0.0243989
-0.0219823
-0.0206547
-0.020505
-0.0215879
-0.0238539
-0.0270966
-0.0309573
-0.0349764
-0.0386997
-0.0417206
-0.0437796
-0.0446632
-0.0443545
-0.0427525
-0.0400326
-0.0361035
-0.0312742
-0.0254489
-0.0188399
-0.0117613
-0.00335455
-0.281472
-0.282932
-0.28763
-0.291958
-0.297009
-0.302258
-0.307668
-0.312963
-0.317901
-0.322302
-0.324834
-0.32689
-0.327015
-0.32518
-0.321166
-0.314841
-0.306187
-0.295337
-0.282652
-0.267696
-0.251977
-0.235518
-0.218687
-0.201974
-0.186937
-0.172175
-0.158945
-0.147719
-0.138242
-0.130741
-0.125161
-0.121245
-0.118686
-0.117284
-0.116416
-0.116023
-0.115303
-0.114868
-0.113647
-0.112219
-0.110348
-0.108362
-0.106414
-0.104809
-0.103853
-0.103888
-0.105258
-0.108296
-0.113279
-0.120376
-0.129554
-0.140537
-0.152819
-0.165714
-0.178425
-0.190133
-0.200063
-0.207541
-0.212016
-0.213096
-0.21063
-0.204638
-0.195414
-0.183481
-0.169533
-0.154335
-0.138628
-0.12305
-0.10809
-0.0940859
-0.0812361
-0.0696328
-0.0592919
-0.0501818
-0.0422454
-0.0354174
-0.0296357
-0.0248527
-0.0210466
-0.0182345
-0.0164777
-0.0158651
-0.0164671
-0.0182682
-0.0211064
-0.0246647
-0.0285103
-0.0321956
-0.0353081
-0.0375746
-0.0387708
-0.0388681
-0.0377575
-0.0356021
-0.0322957
-0.0281376
-0.0230029
-0.0171201
-0.0107284
-0.00306913
-0.282356
-0.28363
-0.288885
-0.29367
-0.299219
-0.305009
-0.310969
-0.316813
-0.322275
-0.32705
-0.330435
-0.332556
-0.332862
-0.331084
-0.32697
-0.320373
-0.311268
-0.299784
-0.28618
-0.27046
-0.253584
-0.235839
-0.217622
-0.199118
-0.183325
-0.166711
-0.151796
-0.139104
-0.128038
-0.119001
-0.112082
-0.10696
-0.103373
-0.101256
-0.0999075
-0.0993367
-0.09882
-0.0986322
-0.098127
-0.0975706
-0.0967576
-0.0959746
-0.0953401
-0.0951386
-0.0956603
-0.0972344
-0.100197
-0.104861
-0.111468
-0.12014
-0.130794
-0.143096
-0.156497
-0.170288
-0.183669
-0.19583
-0.206011
-0.213554
-0.217922
-0.218744
-0.215867
-0.209348
-0.199505
-0.186899
-0.172261
-0.156392
-0.140057
-0.123905
-0.108428
-0.0939598
-0.0806902
-0.0687025
-0.058004
-0.0485551
-0.0402917
-0.0331419
-0.0270377
-0.0219246
-0.0177727
-0.0145895
-0.0124272
-0.0113724
-0.0115077
-0.012848
-0.0152755
-0.0185174
-0.0221723
-0.0258036
-0.0289941
-0.0314564
-0.0329537
-0.0334441
-0.0328104
-0.0312045
-0.028506
-0.0250078
-0.0205543
-0.015396
-0.00968793
-0.00278908
-0.28277
-0.284305
-0.289826
-0.2951
-0.301069
-0.307343
-0.313789
-0.32012
-0.326043
-0.331229
-0.335288
-0.337464
-0.337911
-0.336177
-0.331964
-0.325111
-0.315589
-0.303514
-0.289119
-0.272618
-0.254714
-0.23581
-0.216386
-0.196917
-0.179023
-0.161269
-0.144789
-0.130905
-0.118308
-0.107785
-0.0996005
-0.0932804
-0.0886189
-0.0857542
-0.0838508
-0.0829609
-0.0824651
-0.0825693
-0.0826169
-0.0828312
-0.0829903
-0.0833397
-0.0839706
-0.0851448
-0.0871316
-0.0902459
-0.094806
-0.101097
-0.10932
-0.119539
-0.131624
-0.145188
-0.159648
-0.174278
-0.188279
-0.200853
-0.211258
-0.21885
-0.223108
-0.223681
-0.220414
-0.213395
-0.202973
-0.189743
-0.174474
-0.157998
-0.141101
-0.124439
-0.108507
-0.0936289
-0.0799888
-0.0676602
-0.0566423
-0.0468885
-0.0383284
-0.0308845
-0.0244833
-0.0190646
-0.0145913
-0.0110614
-0.00851758
-0.00704247
-0.00672694
-0.0076125
-0.0096239
-0.0125347
-0.0159795
-0.0195373
-0.0227893
-0.0254336
-0.0272193
-0.0280895
-0.0279182
-0.0268467
-0.0247412
-0.0218908
-0.018108
-0.0136708
-0.00864224
-0.00251461
-0.283127
-0.284788
-0.290522
-0.296219
-0.302547
-0.309234
-0.316098
-0.322845
-0.329158
-0.334706
-0.339517
-0.341544
-0.342121
-0.34042
-0.336113
-0.329026
-0.319124
-0.306518
-0.29144
-0.2742
-0.255372
-0.235447
-0.214951
-0.194455
-0.174979
-0.156055
-0.138399
-0.122918
-0.109029
-0.0971501
-0.0878352
-0.0803318
-0.0745637
-0.070961
-0.0684271
-0.0671341
-0.0665789
-0.0668571
-0.0673349
-0.0682145
-0.0692531
-0.0706563
-0.0724937
-0.0749992
-0.0784225
-0.0830576
-0.0891972
-0.0970913
-0.106894
-0.118613
-0.132065
-0.146821
-0.162269
-0.177673
-0.19224
-0.205186
-0.215785
-0.22341
-0.227558
-0.227887
-0.224253
-0.216767
-0.205809
-0.19201
-0.176173
-0.159159
-0.141767
-0.124664
-0.108337
-0.0931069
-0.079146
-0.0665201
-0.0552211
-0.0451959
-0.0363691
-0.0286583
-0.0219854
-0.0162854
-0.0115144
-0.00766201
-0.00476129
-0.00288868
-0.00214002
-0.00257904
-0.00417051
-0.00673533
-0.00994874
-0.0134104
-0.016704
-0.0195137
-0.0215735
-0.0228098
-0.0230861
-0.0225339
-0.0210065
-0.018791
-0.015668
-0.0119471
-0.00759333
-0.00224548
-0.283409
-0.285086
-0.290967
-0.297024
-0.303649
-0.310677
-0.317887
-0.324978
-0.331606
-0.337367
-0.341467
-0.344688
-0.345468
-0.343796
-0.339402
-0.332106
-0.321869
-0.3088
-0.293137
-0.275224
-0.255596
-0.234785
-0.213346
-0.191879
-0.171135
-0.151112
-0.132362
-0.115545
-0.100445
-0.0873977
-0.0767525
-0.0681523
-0.0612906
-0.057039
-0.05381
-0.052166
-0.0514044
-0.0516592
-0.0525065
-0.0539394
-0.05576
-0.0581297
-0.0610998
-0.0648777
-0.0696901
-0.0758045
-0.083481
-0.0929287
-0.104252
-0.1174
-0.132137
-0.148002
-0.16436
-0.180469
-0.195545
-0.208819
-0.219582
-0.227223
-0.231259
-0.231351
-0.227374
-0.219456
-0.20801
-0.1937
-0.177362
-0.15988
-0.142068
-0.124591
-0.107935
-0.0924081
-0.0781762
-0.0652964
-0.0537539
-0.0434905
-0.0344263
-0.0264752
-0.0195555
-0.0135977
-0.00855261
-0.00440167
-0.00116851
0.00107795
0.00224034
0.00223725
0.00106741
-0.0011374
-0.00409675
-0.0074369
-0.0107484
-0.0137036
-0.0160213
-0.0176085
-0.0183177
-0.0182696
-0.0173055
-0.0157116
-0.013237
-0.0102264
-0.00654251
-0.0019809
-0.283602
-0.285231
-0.291161
-0.29752
-0.304381
-0.311673
-0.319158
-0.326521
-0.333402
-0.339391
-0.343878
-0.347068
-0.34796
-0.346303
-0.341829
-0.334353
-0.323834
-0.310374
-0.294214
-0.275725
-0.255427
-0.233868
-0.211622
-0.189292
-0.167512
-0.146509
-0.126766
-0.108799
-0.0926042
-0.0784913
-0.0666759
-0.0570136
-0.0492908
-0.0440044
-0.0401716
-0.037997
-0.0370113
-0.037249
-0.0383411
-0.0402182
-0.0427188
-0.0459577
-0.0499756
-0.0549512
-0.0610856
-0.0686147
-0.0777609
-0.0886881
-0.101448
-0.115936
-0.131864
-0.148746
-0.165928
-0.182668
-0.198194
-0.21175
-0.222645
-0.230283
-0.234208
-0.23407
-0.229774
-0.221462
-0.209577
-0.194818
-0.17805
-0.160175
-0.142015
-0.124236
-0.107313
-0.0915473
-0.0770937
-0.0640026
-0.0522536
-0.0417844
-0.0325116
-0.0243462
-0.0172037
-0.0110112
-0.00571471
-0.00128869
0.00225256
0.00484868
0.00640383
0.00682349
0.00607434
0.00424205
0.00155984
-0.00163083
-0.00493293
-0.00801047
-0.0105668
-0.0124885
-0.0136152
-0.0140558
-0.0136402
-0.0126544
-0.0108165
-0.0085092
-0.00549034
-0.00171947
-0.283714
-0.285248
-0.291115
-0.297712
-0.30475
-0.312231
-0.319917
-0.32748
-0.334553
-0.340728
-0.345427
-0.348649
-0.349606
-0.34795
-0.343405
-0.335783
-0.325033
-0.311256
-0.294702
-0.275751
-0.254912
-0.232745
-0.209834
-0.186776
-0.164152
-0.142308
-0.121694
-0.102742
-0.0855752
-0.0704799
-0.0576206
-0.0469621
-0.0383901
-0.0321666
-0.0276672
-0.0249725
-0.0236791
-0.0237978
-0.0250263
-0.0272441
-0.030318
-0.0343239
-0.0392937
-0.0453769
-0.0527469
-0.0616043
-0.0721301
-0.0844402
-0.098534
-0.114255
-0.131269
-0.149066
-0.166981
-0.184277
-0.20019
-0.213982
-0.224976
-0.232591
-0.236368
-0.236047
-0.231457
-0.222789
-0.210518
-0.195374
-0.178247
-0.160056
-0.141626
-0.123614
-0.106489
-0.0905396
-0.0759127
-0.062652
-0.0507325
-0.0400888
-0.0306353
-0.0222808
-0.0149388
-0.00853378
-0.00300806
0.00167024
0.0054956
0.00841691
0.0103425
0.0111692
0.0108368
0.00938712
0.00700466
0.00399321
0.000731144
-0.0024414
-0.00521418
-0.00745147
-0.00897839
-0.00989318
-0.0100113
-0.00961944
-0.00840687
-0.00679469
-0.0044364
-0.00145915
-0.283733
-0.285157
-0.290843
-0.297608
-0.304767
-0.312361
-0.320174
-0.327866
-0.335065
-0.341357
-0.346191
-0.349437
-0.350421
-0.348754
-0.344149
-0.336412
-0.325491
-0.311485
-0.294642
-0.275347
-0.254102
-0.23147
-0.208039
-0.1844
-0.161106
-0.138565
-0.117209
-0.0974275
-0.0794139
-0.0634348
-0.0496445
-0.03807
-0.0286706
-0.0215871
-0.0164113
-0.0131757
-0.0115191
-0.0114468
-0.012719
-0.0151803
-0.018721
-0.0233881
-0.0292046
-0.0362916
-0.0447935
-0.0548735
-0.0666689
-0.0802463
-0.0955544
-0.112388
-0.130374
-0.148979
-0.167535
-0.185307
-0.201544
-0.215525
-0.226587
-0.23416
-0.237829
-0.237294
-0.232432
-0.223447
-0.210844
-0.195382
-0.177972
-0.159542
-0.140917
-0.122744
-0.105479
-0.0894003
-0.074647
-0.061257
-0.0492018
-0.038414
-0.0288066
-0.0202874
-0.0127683
-0.0061723
-0.000438564
0.00447001
0.00855608
0.0117781
0.0140507
0.0152666
0.0153433
0.0142834
0.0122218
0.00942022
0.0062318
0.00299548
3.23449e-05
-0.00249932
-0.00440909
-0.00578114
-0.00641777
-0.00660548
-0.0060068
-0.00508083
-0.00337926
-0.00119717
-0.283628
-0.28497
-0.290356
-0.297216
-0.304438
-0.312075
-0.319943
-0.327692
-0.334961
-0.341303
-0.346222
-0.349452
-0.350424
-0.348736
-0.344088
-0.336278
-0.325251
-0.311102
-0.294077
-0.27456
-0.253047
-0.230095
-0.206293
-0.182221
-0.15842
-0.135328
-0.113365
-0.0928983
-0.074161
-0.0574062
-0.0427923
-0.0303868
-0.0202001
-0.0123183
-0.00647541
-0.00267814
-0.00062434
-0.000311615
-0.00154154
-0.00415563
-0.00806026
-0.0132806
-0.0198317
-0.0278078
-0.0373239
-0.0485047
-0.0614433
-0.0761576
-0.0925476
-0.110365
-0.129202
-0.148505
-0.167605
-0.185774
-0.202272
-0.216395
-0.227493
-0.235004
-0.238558
-0.237825
-0.232713
-0.223452
-0.210572
-0.19486
-0.177243
-0.158654
-0.139909
-0.121644
-0.1043
-0.0881447
-0.0733102
-0.0598295
-0.047672
-0.0367692
-0.0270338
-0.0183731
-0.0106986
-0.00393214
0.00198923
0.00710697
0.0114311
0.0149296
0.0175252
0.0191099
0.0195852
0.0189183
0.0171962
0.0146349
0.011556
0.00829093
0.0051676
0.00236603
9.32141e-05
-0.00171815
-0.00285758
-0.0036099
-0.00361384
-0.00336431
-0.00231661
-0.000929855
-0.28334
-0.284684
-0.289659
-0.296539
-0.303767
-0.311379
-0.319231
-0.326965
-0.334238
-0.34096
-0.34556
-0.348718
-0.349646
-0.347935
-0.343262
-0.335422
-0.324355
-0.310152
-0.293054
-0.273439
-0.251793
-0.228668
-0.204642
-0.180287
-0.156135
-0.132635
-0.1102
-0.0891838
-0.0698431
-0.0524225
-0.0370884
-0.023938
-0.0130175
-0.00439513
0.00209677
0.00646095
0.00893795
0.00952811
0.00841933
0.005736
0.0015663
-0.00409936
-0.0112688
-0.0200115
-0.0304134
-0.0425613
-0.0565047
-0.0722146
-0.0895459
-0.108211
-0.127773
-0.147663
-0.167211
-0.185697
-0.202393
-0.21661
-0.227714
-0.23515
-0.238583
-0.237659
-0.23232
-0.222822
-0.209723
-0.193831
-0.176085
-0.157414
-0.138624
-0.120333
-0.102969
-0.0867879
-0.0719152
-0.0583807
-0.0461527
-0.0351626
-0.0253238
-0.0165439
-0.00873473
-0.0018175
0.00427206
0.0095788
0.0141192
0.0178705
0.0207645
0.0226962
0.0235558
0.0232813
0.0219139
0.0196219
0.0166897
0.0134342
0.0101852
0.00714208
0.00452855
0.00229759
0.000672268
-0.000629003
-0.00122433
-0.00164068
-0.00124524
-0.000652731
-0.282789
-0.284267
-0.288753
-0.295569
-0.302749
-0.310275
-0.318047
-0.325697
-0.332836
-0.33894
-0.344112
-0.347253
-0.348121
-0.346389
-0.341714
-0.333888
-0.322849
-0.30868
-0.291617
-0.272027
-0.250384
-0.227227
-0.203124
-0.178634
-0.154278
-0.130509
-0.107734
-0.0862982
-0.0664708
-0.0484923
-0.0325383
-0.0187279
-0.00713525
0.00217098
0.00928662
0.0142137
0.0171337
0.0180297
0.0171113
0.0144356
0.0100947
0.00408987
-0.00358006
-0.0129623
-0.0241149
-0.0370884
-0.0518904
-0.0684482
-0.0865752
-0.105949
-0.126109
-0.146475
-0.166376
-0.185099
-0.201931
-0.216193
-0.227275
-0.234646
-0.237933
-0.236819
-0.231276
-0.221584
-0.208324
-0.192323
-0.174524
-0.155849
-0.137085
-0.118832
-0.101504
-0.0853447
-0.0704744
-0.0569209
-0.0446524
-0.0336014
-0.0236825
-0.0148048
-0.00688059
0.000168605
0.00640782
0.0118844
0.0166202
0.0206014
0.0237692
0.0260246
0.0272515
0.0273641
0.0263623
0.0243662
0.0216179
0.0184131
0.0150768
0.011825
0.00889671
0.00626809
0.00417523
0.00234173
0.00116637
9.54514e-05
-0.00016114
-0.000360695
-0.281884
-0.283653
-0.287628
-0.294295
-0.301374
-0.308761
-0.316395
-0.323912
-0.330963
-0.337159
-0.342012
-0.345082
-0.345888
-0.344142
-0.33949
-0.331726
-0.320782
-0.306737
-0.289814
-0.270368
-0.248858
-0.225806
-0.201765
-0.177281
-0.152862
-0.128959
-0.10597
-0.0842376
-0.0640359
-0.0456043
-0.0291268
-0.0147402
-0.002541
0.0073923
0.0151008
0.0205805
0.0239586
0.0251866
0.0245142
0.0219166
0.0174928
0.0112519
0.00319852
-0.00669483
-0.0184601
-0.0321137
-0.0476246
-0.0648799
-0.0836558
-0.1036
-0.124232
-0.144963
-0.165122
-0.184006
-0.200912
-0.215171
-0.226195
-0.233549
-0.236638
-0.235332
-0.229607
-0.219765
-0.206404
-0.190365
-0.17259
-0.153985
-0.135316
-0.117163
-0.0999218
-0.0838292
-0.0689995
-0.0554596
-0.0431788
-0.0320917
-0.022115
-0.0131595
-0.005139
0.00202428
0.00839553
0.0140238
0.0189353
0.0231241
0.0265416
0.0290964
0.0306707
0.0311609
0.0305309
0.0288536
0.0263252
0.0232135
0.0198322
0.016409
0.0131961
0.010195
0.00765482
0.00530707
0.00356344
0.00185013
0.000940313
-4.82389e-05
-0.280535
-0.282747
-0.286259
-0.2927
-0.299624
-0.306829
-0.314276
-0.321614
-0.328509
-0.334499
-0.339247
-0.342232
-0.342989
-0.341242
-0.336643
-0.328988
-0.318208
-0.304371
-0.287689
-0.268501
-0.247246
-0.224429
-0.200583
-0.176237
-0.151887
-0.127975
-0.104894
-0.0829798
-0.0625109
-0.0437267
-0.0268185
-0.0119375
0.000800728
0.0113038
0.0195698
0.0255864
0.0294345
0.0310215
0.0306357
0.0281806
0.0237569
0.0173789
0.00905624
-0.00122112
-0.0134613
-0.0276497
-0.0437199
-0.061523
-0.0808026
-0.101181
-0.122162
-0.143149
-0.163476
-0.182446
-0.199366
-0.213576
-0.224498
-0.231716
-0.234703
-0.233219
-0.227344
-0.217397
-0.203997
-0.187992
-0.170315
-0.151852
-0.133342
-0.115345
-0.0982402
-0.0822554
-0.0675014
-0.0540055
-0.0417388
-0.0306388
-0.020625
-0.0116108
-0.00351171
0.00374868
0.0102352
0.0159979
0.0210665
0.025442
0.0290855
0.0319148
0.0338144
0.0346688
0.0344114
0.033071
0.030796
0.0278203
0.024439
0.0208861
0.0174233
0.0140784
0.0111135
0.00827144
0.00597216
0.00362959
0.00206407
0.000290269
-0.278677
-0.281428
-0.284607
-0.290763
-0.297481
-0.304467
-0.311687
-0.318804
-0.325502
-0.331307
-0.335893
-0.338755
-0.339475
-0.337743
-0.333229
-0.325733
-0.315181
-0.301633
-0.285287
-0.266461
-0.245575
-0.223112
-0.199582
-0.175497
-0.151337
-0.127534
-0.104473
-0.082485
-0.0618501
-0.0428086
-0.0255583
-0.0102625
0.00294679
0.0139617
0.0227454
0.0292788
0.0336035
0.0355772
0.0355077
0.0332536
0.0289074
0.022486
0.014004
0.00346605
-0.00911452
-0.0236954
-0.0401785
-0.0583835
-0.0780259
-0.0987068
-0.119917
-0.141057
-0.161463
-0.180447
-0.197324
-0.211442
-0.22224
-0.229279
-0.23214
-0.230511
-0.224521
-0.214518
-0.201141
-0.18524
-0.167733
-0.149478
-0.131189
-0.113399
-0.0964753
-0.0806361
-0.0659903
-0.0525662
-0.0403381
-0.0292469
-0.0192154
-0.0101603
-0.00199947
0.00534195
0.0119279
0.0178088
0.0230168
0.0275589
0.0314056
0.0344847
0.0366859
0.0378873
0.0379979
0.037007
0.035015
0.032217
0.0288824
0.0252454
0.0215721
0.017916
0.0145523
0.0112382
0.00839719
0.00543969
0.00321502
0.000660237
-0.276276
-0.27958
-0.28262
-0.288462
-0.294927
-0.301671
-0.308633
-0.315498
-0.321973
-0.327586
-0.332002
-0.334717
-0.335403
-0.333705
-0.32931
-0.322021
-0.311759
-0.298575
-0.28265
-0.264283
-0.243868
-0.221864
-0.198761
-0.175046
-0.151185
-0.127597
-0.10466
-0.0826974
-0.0619908
-0.0427817
-0.0252736
-0.0096399
0.00397307
0.0154415
0.0246991
0.0317255
0.0365329
0.038917
0.0391835
0.0371818
0.0329842
0.0266076
0.0180704
0.00738983
-0.00540211
-0.0202386
-0.0369942
-0.0554613
-0.0753317
-0.0961893
-0.117516
-0.138709
-0.159109
-0.178038
-0.194818
-0.208805
-0.21944
-0.226283
-0.229001
-0.22725
-0.221177
-0.211167
-0.197875
-0.182147
-0.164878
-0.146895
-0.12888
-0.111346
-0.0946429
-0.0789834
-0.0644752
-0.0511486
-0.0389817
-0.0279192
-0.0178883
-0.00880902
-0.000602165
0.0068051
0.0134755
0.0194591
0.02479
0.02948
0.033508
0.0368124
0.0392903
0.0408184
0.0412874
0.0406527
0.038968
0.0363868
0.0331461
0.0294733
0.0256331
0.0217033
0.0179699
0.0142088
0.0108419
0.00728525
0.00439752
0.00106645
-0.273342
-0.277127
-0.280246
-0.285774
-0.291958
-0.298442
-0.305127
-0.311717
-0.317947
-0.323355
-0.327609
-0.330179
-0.330836
-0.329196
-0.324954
-0.317917
-0.308002
-0.295249
-0.279821
-0.261995
-0.24214
-0.22069
-0.198108
-0.17486
-0.151394
-0.128117
-0.105395
-0.0835483
-0.0628566
-0.0435633
-0.0258769
-0.00997901
0.00397143
0.0158351
0.0255172
0.0330086
0.0383834
0.041126
0.0417331
0.040027
0.0360428
0.0297929
0.0212982
0.010586
-0.00229547
-0.0172584
-0.0341537
-0.0527509
-0.0727223
-0.093638
-0.114973
-0.136126
-0.156441
-0.175248
-0.191877
-0.205696
-0.216135
-0.222806
-0.225345
-0.223475
-0.217353
-0.207387
-0.194243
-0.178754
-0.161787
-0.144133
-0.126442
-0.109205
-0.0927584
-0.0773092
-0.0629651
-0.0497594
-0.0376741
-0.0266589
-0.0166453
-0.00755735
0.000680821
0.00813966
0.0148803
0.0209522
0.0263904
0.0312107
0.0353994
0.0389052
0.0416346
0.0434664
0.0442796
0.0440015
0.0426426
0.0403129
0.0372119
0.0335535
0.0295942
0.0254329
0.021362
0.0171821
0.0133076
0.00916935
0.00561486
0.00151267
-0.269896
-0.274077
-0.277439
-0.282684
-0.288579
-0.294798
-0.301198
-0.307502
-0.313469
-0.318662
-0.322736
-0.325207
-0.325846
-0.324287
-0.320231
-0.313487
-0.30397
-0.291705
-0.276839
-0.259626
-0.240407
-0.219588
-0.197608
-0.174909
-0.15192
-0.129036
-0.10661
-0.0849593
-0.0643606
-0.0450599
-0.027269
-0.0111766
0.00304709
0.0152481
0.0253002
0.0331967
0.039283
0.0422643
0.0432344
0.0418629
0.0381507
0.0321025
0.0237405
0.0130998
0.000242325
-0.0147266
-0.031638
-0.0502425
-0.0701965
-0.0910598
-0.112304
-0.133327
-0.153481
-0.172104
-0.188532
-0.202149
-0.212412
-0.21888
-0.221212
-0.219229
-0.213092
-0.203223
-0.19029
-0.175104
-0.158497
-0.141222
-0.1239
-0.106997
-0.0908374
-0.0756254
-0.061469
-0.0484047
-0.0364196
-0.0254684
-0.0154875
-0.00640524
0.0018506
0.00934771
0.0161453
0.0222919
0.0278228
0.0327569
0.0370868
0.0407713
0.0437267
0.0458378
0.046977
0.0470496
0.0460282
0.0439795
0.0410611
0.0374672
0.0334394
0.0290933
0.0247205
0.0201535
0.0157928
0.0110926
0.00686869
0.00200117
-0.270503
-0.27418
-0.279191
-0.284813
-0.290773
-0.29689
-0.302907
-0.308601
-0.313591
-0.317475
-0.319872
-0.32051
-0.319056
-0.315217
-0.308803
-0.299724
-0.287997
-0.273746
-0.257202
-0.23868
-0.218557
-0.197243
-0.175161
-0.152717
-0.130294
-0.108235
-0.0868502
-0.0664156
-0.0471757
-0.029347
-0.0131241
0.00131365
0.0137987
0.024167
0.0323802
0.0383948
0.0423738
0.0437724
0.0427733
0.0393844
0.0336053
0.0254581
0.0149837
0.00225443
-0.0126097
-0.0294237
-0.0479224
-0.0677502
-0.0884592
-0.109519
-0.130331
-0.150253
-0.168632
-0.184808
-0.198182
-0.208398
-0.214534
-0.216633
-0.214552
-0.208441
-0.198725
-0.186062
-0.171237
-0.155042
-0.138192
-0.121274
-0.104736
-0.0888907
-0.0739393
-0.059991
-0.0470868
-0.0352186
-0.0243468
-0.0144128
-0.00534964
0.00291099
0.0104337
0.0172755
0.0234838
0.0290937
0.0341259
0.0385788
0.04242
0.0455767
0.0479412
0.0493847
0.0497969
0.0491177
0.0473726
0.0446751
0.0411941
0.0371495
0.0326694
0.0280332
0.0231146
0.0182923
0.0130525
0.0081585
0.00253236
-0.266503
-0.270487
-0.275316
-0.280695
-0.286409
-0.292255
-0.297994
-0.303402
-0.308224
-0.311925
-0.314253
-0.314907
-0.313581
-0.309986
-0.303932
-0.295327
-0.284174
-0.270581
-0.254751
-0.236973
-0.217594
-0.196999
-0.175586
-0.153743
-0.131837
-0.110203
-0.0891451
-0.0689332
-0.0498148
-0.0320093
-0.0157153
-0.00111971
0.0115993
0.0222421
0.0307413
0.0372646
0.0416362
0.0434545
0.0428521
0.0398277
0.034376
0.0265169
0.0162943
0.00378821
-0.0108703
-0.0274831
-0.0457732
-0.0653754
-0.0858369
-0.106627
-0.127152
-0.146775
-0.164853
-0.180729
-0.193813
-0.203899
-0.209756
-0.211637
-0.209489
-0.203449
-0.193938
-0.181601
-0.167188
-0.151448
-0.135058
-0.118574
-0.102426
-0.0869175
-0.0722469
-0.0585256
-0.0457986
-0.0340635
-0.0232859
-0.0134128
-0.00438203
0.0038706
0.0114064
0.0182799
0.0245369
0.0302122
0.0353277
0.0398859
0.0438629
0.0471961
0.0497875
0.0515107
0.0522461
0.0519069
0.0504811
0.0480367
0.0447135
0.0407031
0.0361411
0.0312837
0.0260525
0.0207973
0.0150428
0.00948117
0.00310436
-0.262217
-0.266434
-0.271117
-0.276289
-0.281773
-0.287365
-0.292844
-0.297987
-0.302574
-0.306155
-0.308426
-0.30911
-0.307931
-0.304599
-0.298927
-0.290819
-0.280266
-0.267357
-0.25227
-0.235267
-0.216667
-0.196827
-0.176121
-0.15492
-0.133576
-0.112416
-0.0917356
-0.0718015
-0.0528625
-0.0351393
-0.0188333
-0.00413668
0.00876531
0.0196464
0.0283805
0.0353993
0.0401639
0.0423916
0.0421993
0.0395698
0.0344935
0.0269855
0.0170895
0.00489046
-0.00947197
-0.0257903
-0.0437786
-0.0630653
-0.0831944
-0.103637
-0.123805
-0.143067
-0.160789
-0.176328
-0.18909
-0.198719
-0.204525
-0.206269
-0.204098
-0.198173
-0.188918
-0.176955
-0.162995
-0.147745
-0.131844
-0.115819
-0.100083
-0.0849313
-0.0705599
-0.0570825
-0.0445486
-0.0329609
-0.022291
-0.0124913
-0.00350479
0.0047284
0.012266
0.0191598
0.0254539
0.0311821
0.0363672
0.0410149
0.0451084
0.0485948
0.0513867
0.0533632
0.0544009
0.0543931
0.0532949
0.0511293
0.048004
0.0440771
0.0394841
0.0344513
0.02895
0.0232942
0.0170532
0.0108306
0.00371275
-0.257794
-0.262118
-0.26669
-0.271697
-0.276983
-0.282346
-0.28759
-0.292481
-0.296745
-0.300229
-0.302493
-0.303238
-0.302224
-0.29917
-0.293891
-0.28629
-0.276347
-0.26413
-0.249797
-0.23358
-0.21577
-0.196699
-0.176719
-0.156182
-0.135427
-0.114776
-0.0945094
-0.0748939
-0.056178
-0.0385846
-0.0223165
-0.00757089
0.00545696
0.0165135
0.0252473
0.0329343
0.0380682
0.0406643
0.0409055
0.0387017
0.0340416
0.0269374
0.0174317
0.0056121
-0.00837697
-0.0243205
-0.0419261
-0.0608187
-0.0805409
-0.100566
-0.120314
-0.13916
-0.156477
-0.171651
-0.184057
-0.193266
-0.198865
-0.200552
-0.198423
-0.192678
-0.183745
-0.172217
-0.158763
-0.144047
-0.128668
-0.113129
-0.097825
-0.0830448
-0.0689838
-0.0557588
-0.0434243
-0.0319892
-0.0214314
-0.0117091
-0.00277068
0.00543891
0.0129737
0.0198825
0.0262074
0.0319812
0.0372269
0.041953
0.0461485
0.0497696
0.0527392
0.054944
0.0562615