/*--------------------------------*- C++ -*----------------------------------*\
  =========                 |
  \\      /  F ield         | OpenFOAM: The Open Source CFD Toolbox
   \\    /   O peration     | Website:  https://openfoam.org
    \\  /    A nd           | Version:  7
     \\/     M anipulation  |
\*---------------------------------------------------------------------------*/
FoamFile
{
    version     2.0;
    format      ascii;
    class       surfaceScalarField;
    location    "80";
    object      phi;
}
// * * * * * * * * * * * * * * * * * * * * * * * * * * * * * * * * * * * * * //

dimensions      [0 3 -1 0 0 0 0];

internalField   nonuniform List<scalar> 
11835
(
-0.000538189
0.00029831
-0.000569523
0.000327302
-0.000601386
0.000357807
-0.000634346
0.000389686
0.000422879
-0.000669263
-0.000515202
0.000326654
-0.000543271
0.000355371
-0.00057144
0.000385977
-0.000600244
0.00041849
0.000453169
-0.000630534
-0.000483887
-0.000507428
0.000378912
-0.00053042
0.000408969
-0.000553351
0.000441421
0.000476837
-0.000577019
-0.000462366
0.000396726
-0.000478767
0.00042537
-0.000494178
0.000456831
0.000491908
-0.000509249
-0.000408514
0.000407699
-0.000417001
0.000433858
-0.000423349
0.000463179
0.000496453
-0.000427895
-0.000346323
0.000410818
-0.000345684
0.000433219
-0.000341565
0.00045906
0.000488656
-0.000333768
-0.000276221
0.000405168
-0.000265358
0.000422356
-0.000249528
0.00044323
0.000466944
-0.000227816
-0.000198552
0.000389922
-0.000176469
0.000400273
-0.000147742
0.000414504
0.000430436
-0.000111234
-0.000113506
0.000364302
-7.9409e-05
0.000366176
-3.57247e-05
0.000370819
0.00038052
1.41912e-05
-2.09353e-05
0.000327384
2.56609e-05
0.00031958
8.42569e-05
0.000312223
0.000310528
0.00015425
7.9329e-05
0.000140082
0.000258827
0.00021383
0.000238476
0.000220426
0.000303932
0.000263755
0.000183005
0.000354299
0.000147931
0.000109339
0.000465386
0.000398138
9.05474e-05
0.000506843
3.92263e-05
-2.41654e-05
0.000640348
0.00054476
-2.05322e-05
0.000673365
-8.93784e-05
-0.000181841
0.00083104
0.000705353
0.000856062
-0.000240088
-0.000365677
0.0010399
0.00105706
-0.000415461
-0.000577695
0.00126908
0.00127796
-0.000618085
-0.000819538
0.0015198
0.00151919
-0.00109182
0.00179147
-0.00139332
0.00208089
-0.00172028
0.00238166
0.00268418
-0.0006881
0.000651527
-0.000701766
0.000681496
-0.000714478
0.000701527
-0.000724984
0.000703955
-0.000734142
0.000686867
-0.000741821
0.00064741
-0.000748199
0.000583423
-0.000753203
0.000493214
-0.000756764
0.000375735
-0.000758712
0.000230692
-0.000758811
5.84612e-05
-0.000756988
-0.000139266
-0.000753109
-0.000359955
-0.000747056
-0.000600018
-0.000738772
-0.000854901
-0.000728274
-0.00111923
-0.000715642
-0.00138693
-0.00070097
-0.00165144
-0.000684324
-0.00190595
-0.000665662
-0.00214352
-0.00064477
-0.00235733
-0.000621186
-0.0025408
-0.000594184
-0.00268762
-0.000562814
-0.00279164
-0.000525938
-0.00284702
-0.000482307
-0.00284853
-0.000430702
-0.00279166
-0.000370087
-0.00267306
-0.000299867
-0.00249099
-0.000219926
-0.00224556
-0.000130616
-0.00193915
-3.32271e-05
-0.0015771
7.13127e-05
-0.00116705
0.000180553
-0.000717257
0.000292527
-0.000239744
0.000404827
0.000254089
0.000515649
0.000750297
0.000622442
0.00123794
0.0007233
0.0017036
0.000815566
0.00213868
0.000896706
0.00253506
0.000964055
0.00288829
0.00101512
0.00319702
0.00104782
0.00346324
0.0010608
0.00369158
0.00105402
0.00388795
0.00102929
0.0040574
0.000990937
0.00420143
0.000945996
0.00431543
0.000903659
0.00438754
0.000873872
0.00439978
0.000865289
0.00433207
0.000883309
0.00416783
0.000928986
0.00389908
0.000999336
0.00352892
0.00108886
0.0030701
0.00119148
0.00254099
0.00130203
0.00196122
0.00141685
0.00134897
0.00153358
0.000720381
0.0016506
9.04756e-05
0.00176641
-0.000525918
0.00187934
-0.00111402
0.00198732
-0.00165928
0.00208805
-0.00214901
0.00217922
-0.00257388
0.00225881
-0.00292897
0.00232534
-0.0032141
0.00237796
-0.00343325
0.00241637
-0.00359346
0.00244074
-0.00370352
0.0024515
-0.00377284
0.00244911
-0.00381063
0.00243376
-0.0038257
0.00240494
-0.003827
0.00236136
-0.00382484
0.00230141
-0.0038312
0.00222464
-0.00385734
0.0021336
-0.00390802
0.00203492
-0.00397491
0.00193873
-0.00403357
0.00185624
-0.00404752
0.00179647
-0.00397887
0.00176363
-0.00380122
0.00175675
-0.00350771
0.00177138
-0.0031107
0.0018021
-0.00263394
0.00184429
-0.00210421
0.00189469
-0.00154506
0.00195107
-0.000976768
0.00201166
-0.000415247
0.00207459
0.000123804
0.00213808
0.000629278
0.00219973
0.00108713
0.0022582
0.0014949
0.00231053
0.00183651
0.00235695
0.00212884
0.00239386
0.00234339
0.00242445
0.00251969
0.00264168
-0.000647068
0.00066806
-0.000658583
0.000693011
-0.000669342
0.000712286
-0.000678179
0.000712792
-0.000685875
0.000694564
-0.000692354
0.000653889
-0.000697785
0.000588854
-0.000702129
0.000497559
-0.000705334
0.00037894
-0.000707275
0.000232632
-0.000707803
5.89896e-05
-0.00070677
-0.000140299
-0.000704159
-0.000362566
-0.000699914
-0.000604263
-0.000694054
-0.000860761
-0.000686673
-0.00112661
-0.000677932
-0.00139567
-0.000668007
-0.00166137
-0.000657028
-0.00191693
-0.000645008
-0.00215554
-0.000631762
-0.00237057
-0.000616808
-0.00255576
-0.000599351
-0.00270508
-0.00057835
-0.00281264
-0.000552512
-0.00287286
-0.000520364
-0.00288068
-0.000480422
-0.0028316
-0.000431321
-0.00272217
-0.000372073
-0.00255023
-0.000302177
-0.00231546
-0.000221679
-0.00201964
-0.000131469
-0.00166731
-3.31729e-05
-0.00126535
7.26555e-05
-0.000823085
0.00018283
-0.000349918
0.000294517
0.000142403
0.00040571
0.000639104
0.000513548
0.00113011
0.000616041
0.00160111
0.000710282
0.00204444
0.000793651
0.00245169
0.000863419
0.00281852
0.00091716
0.00314328
0.000952983
0.00342742
0.000969963
0.0036746
0.000968679
0.00388923
0.000951778
0.0040743
0.000924365
0.00422884
0.000893911
0.00434589
0.000869417
0.00441203
0.000859838
0.00440936
0.000872159
0.00431975
0.000909823
0.00413016
0.000972199
0.0038367
0.00105535
0.00344577
0.0011537
0.00297175
0.00126176
0.00243294
0.00137522
0.00184776
0.00149123
0.00123296
0.00160802
0.000603591
0.00172425
-2.57507e-05
0.00183865
-0.000640318
0.00194957
-0.00122495
0.002055
-0.00176471
0.00215264
-0.00224666
0.00224026
-0.00266149
0.00231595
-0.00300466
0.00237838
-0.00327653
0.00242687
-0.00348174
0.00246129
-0.00362789
0.00248197
-0.0037242
0.00248944
-0.00378032
0.00248432
-0.00380551
0.00246694
-0.00380832
0.00243703
-0.00379709
0.00239341
-0.00378122
0.00233428
-0.00377207
0.00225846
-0.00378153
0.00216733
-0.00381689
0.00206631
-0.00387388
0.00196482
-0.00393208
0.00187429
-0.00395699
0.00180488
-0.00390945
0.00176237
-0.00375872
0.00174716
-0.0034925
0.00175539
-0.00311893
0.00178152
-0.00266006
0.00182041
-0.0021431
0.00186829
-0.00159294
0.00192256
-0.00103104
0.00198128
-0.000473962
0.00204257
6.25124e-05
0.00210464
0.000567207
0.00216517
0.0010266
0.00222277
0.00143729
0.00227451
0.00178477
0.0023206
0.00208275
0.0023573
0.00230669
0.0023878
0.00248918
0.00262443
-0.000590774
0.000681814
-0.000599565
0.000701802
-0.000607834
0.000720554
-0.000614454
0.000719412
-0.00062014
0.00070025
-0.00062486
0.000658609
-0.000628784
0.000592778
-0.00063191
0.000500685
-0.000634211
0.00038124
-0.000635596
0.000234018
-0.000636022
5.94152e-05
-0.000635251
-0.00014107
-0.000633411
-0.000364406
-0.000630501
-0.000607173
-0.000626612
-0.00086465
-0.000621922
-0.0011313
-0.000616678
-0.00140091
-0.000611145
-0.0016669
-0.00060553
-0.00192255
-0.000599913
-0.00216116
-0.000594154
-0.00237633
-0.000587769
-0.00256214
-0.000579916
-0.00271293
-0.000569484
-0.00282307
-0.000555037
-0.00288731
-0.000534889
-0.00290082
-0.000507311
-0.00285918
-0.000470633
-0.00275884
-0.000423494
-0.00259737
-0.000365009
-0.00237394
-0.000294855
-0.0020898
-0.000213553
-0.00174862
-0.000122318
-0.00135658
-2.33084e-05
-0.000922094
8.35732e-05
-0.0004568
0.000193392
3.25842e-05
0.000303819
0.000528676
0.000411726
0.0010222
0.000515088
0.00149775
0.000610749
0.00194878
0.000696007
0.00236643
0.00076811
0.00274642
0.000824751
0.00308664
0.000864318
0.00338785
0.000886359
0.00365256
0.00089209
0.0038835
0.000884864
0.00408153
0.000870331
0.00424337
0.000856048
0.00436017
0.000850442
0.00441764
0.000861202
0.0043986
0.000893575
0.00428738
0.000949235
0.0040745
0.00102625
0.00375969
0.00112015
0.00335187
0.00122559
0.00286631
0.00133781
0.00232072
0.00145331
0.00173225
0.00156992
0.00111635
0.00168631
0.000487196
0.00180139
-0.000140827
0.001914
-0.00075293
0.00202255
-0.0013335
0.00212503
-0.00186718
0.00221919
-0.00234082
0.00230288
-0.00274518
0.00237432
-0.0030761
0.00243235
-0.00333456
0.00247645
-0.00352584
0.00250669
-0.00365813
0.00252353
-0.00374103
0.00252762
-0.00378441
0.00251967
-0.00379755
0.00250015
-0.0037888
0.002469
-0.00376595
0.00242523
-0.00373745
0.00236697
-0.00371381
0.00229249
-0.00370704
0.00220204
-0.00372645
0.00209976
-0.0037716
0.00199411
-0.00382643
0.00189643
-0.00385932
0.00181777
-0.00383079
0.0017655
-0.00370645
0.00174151
-0.00346851
0.00174281
-0.00312024
0.00176394
-0.00268119
0.00179932
-0.00217848
0.0018446
-0.00163822
0.00189676
-0.0010832
0.00195362
-0.000530819
0.00201326
2.87119e-06
0.00207385
0.000506614
0.00213317
0.000967284
0.00218978
0.00138069
0.00224079
0.00173376
0.00228637
0.00203717
0.00232266
0.0022704
0.0023529
0.00245894
0.00260748
-0.000519722
0.000692288
-0.000525247
0.000707327
-0.000530479
0.000725787
-0.000534346
0.000723279
-0.00053747
0.000703374
-0.000539877
0.000661015
-0.000541737
0.000594638
-0.000543087
0.000502036
-0.000543934
0.000382087
-0.000544233
0.000234317
-0.000543989
5.91711e-05
-0.00054294
-0.000142119
-0.000541348
-0.000365998
-0.000539263
-0.000609258
-0.000536849
-0.000867064
-0.000534362
-0.00113378
-0.000532143
-0.00140313
-0.000530553
-0.00166849
-0.000529887
-0.00192321
-0.000530306
-0.00216074
-0.000531738
-0.0023749
-0.000533715
-0.00256016
-0.000535381
-0.00271127
-0.000535564
-0.00282289
-0.000532702
-0.00289017
-0.000524888
-0.00290864
-0.000510173
-0.00287389
-0.000486609
-0.00278241
-0.000452492
-0.00263149
-0.000406579
-0.00241986
-0.000348152
-0.00214823
-0.00027734
-0.00181943
-0.000195055
-0.00143887
-0.000102902
-0.00101425
-4.06554e-06
-0.000555637
0.000103338
-7.48189e-05
0.000211792
0.000420222
0.00031867
0.000915322
0.000422039
0.00139438
0.000518535
0.00185229
0.000605372
0.0022796
0.000679812
0.00267198
0.000739716
0.00302674
0.000783794
0.00334377
0.000812073
0.00362428
0.000826344
0.00386923
0.000830481
0.00407739
0.000830398
0.00424345
0.000833416
0.00435715
0.000847086
0.00440397
0.000877676
0.00436801
0.000928755
0.0042363
0.0010005
0.00400276
0.00109006
0.00367013
0.0011928
0.00324912
0.00130384
0.00275527
0.00141914
0.00220542
0.00153596
0.00161543
0.00165265
0.000999665
0.00176825
0.000371592
0.0018818
-0.000254373
0.00199225
-0.00086338
0.00209804
-0.00143928
0.00219718
-0.00196633
0.00228748
-0.00243113
0.00236688
-0.00282457
0.00243373
-0.00314295
0.00248706
-0.00338789
0.00252655
-0.00356533
0.00255243
-0.00368401
0.00256531
-0.0037539
0.00256593
-0.00378504
0.00255509
-0.0037867
0.00253335
-0.00376706
0.00250084
-0.00373344
0.00245679
-0.00369339
0.00239937
-0.0036564
0.00232647
-0.00363414
0.00223738
-0.00363735
0.00213485
-0.00366907
0.00202622
-0.0037178
0.0019224
-0.0037555
0.00183507
-0.00374346
0.00177305
-0.00364443
0.00173988
-0.00343533
0.00173371
-0.00311407
0.00174937
-0.00269685
0.00178094
-0.00221005
0.0018235
-0.00168078
0.00187353
-0.00113324
0.00192855
-0.000585837
0.00198655
-5.51231e-05
0.00204563
0.000447529
0.00210367
0.000909243
0.00215917
0.00132519
0.00220933
0.00168361
0.00225425
0.00199225
0.00228997
0.00223467
0.00231978
0.00242913
0.00259102
-0.000434539
0.000698932
-0.000436326
0.000709114
-0.000437987
0.000727448
-0.000438589
0.000723881
-0.00043862
0.000703405
-0.000438177
0.000660572
-0.00043743
0.000593891
-0.000436461
0.000501067
-0.000435313
0.000380938
-0.000433992
0.000232997
-0.000432544
5.77225e-05
-0.000430667
-0.000143995
-0.000428792
-0.000367873
-0.000427009
-0.000611042
-0.000425544
-0.000868529
-0.000424736
-0.00113459
-0.000425013
-0.00140285
-0.000426842
-0.00166666
-0.00043061
-0.00191944
-0.00043657
-0.00215478
-0.000444747
-0.00236672
-0.00045472
-0.00255019
-0.000465658
-0.00270033
-0.000476333
-0.00281221
-0.000485082
-0.00288142
-0.00048976
-0.00290396
-0.000488212
-0.00287544
-0.00047824
-0.00279238
-0.000457815
-0.00265191
-0.000425385
-0.00245229
-0.000379834
-0.00219378
-0.000320896
-0.00187837
-0.000249132
-0.00151063
-0.000165871
-0.00109751
-7.32281e-05
-0.00064828
2.61977e-05
-0.000174245
0.000131736
0.000314684
0.0002364
0.000810658
0.000338843
0.00129193
0.000435566
0.00175556
0.000523683
0.00219148
0.000600517
0.00259515
0.000664119
0.00296314
0.000713526
0.00329437
0.000749204
0.0035886
0.000773396
0.00384504
0.00079028
0.0040605
0.000805737
0.004228
0.000826578
0.00433631
0.000859281
0.00437126
0.000908646
0.00431864
0.000976724
0.00416823
0.00106251
0.00391697
0.0011626
0.00357004
0.00127247
0.00313925
0.00138781
0.00263993
0.00150531
0.00208792
0.00162282
0.00149792
0.00173913
0.000883354
0.00185355
0.000257179
0.0019652
-0.000366022
0.00207311
-0.000971299
0.00217577
-0.00154194
0.00227119
-0.00206176
0.00235726
-0.00251719
0.00243199
-0.00289931
0.00249394
-0.0032049
0.00254231
-0.00343625
0.00257697
-0.00359999
0.00259834
-0.00370538
0.00260715
-0.00376272
0.00260426
-0.00378215
0.00259049
-0.00377293
0.0025665
-0.00374307
0.00253254
-0.00369948
0.00248806
-0.00364892
0.00243141
-0.00359975
0.00236024
-0.00356297
0.00227301
-0.00355012
0.00217118
-0.00356724
0.00206073
-0.00360735
0.00195189
-0.00364666
0.00185662
-0.0036482
0.00178504
-0.00357285
0.00174239
-0.00339268
0.00172818
-0.00309986
0.00173782
-0.00270649
0.0017652
-0.00223744
0.00180487
-0.00172045
0.00185273
-0.0011811
0.00190593
-0.000639037
0.00196229
-0.000111484
0.00201986
0.000389953
0.00207659
0.000852518
0.0021309
0.00127087
0.00218011
0.00163441
0.00222422
0.00194814
0.00225923
0.00219967
0.00228846
0.0023999
0.00257523
-0.000335924
0.000701089
-0.000333635
0.000706825
-0.000331218
0.00072503
-0.000328095
0.000720758
-0.000324532
0.000699842
-0.000320738
0.000656777
-0.000316873
0.000590027
-0.000313069
0.000497263
-0.00030941
0.000377279
-0.000305973
0.000229559
-0.000302765
5.45147e-05
-0.000299562
-0.000147198
-0.000296885
-0.00037055
-0.000294887
-0.000613039
-0.000293851
-0.000869565
-0.000294185
-0.00113426
-0.000296404
-0.00140064
-0.000301081
-0.00166198
-0.000308695
-0.00191183
-0.000319587
-0.00214389
-0.000333918
-0.00235239
-0.000351346
-0.00253276
-0.000371129
-0.00268055
-0.00039197
-0.00279137
-0.000412173
-0.00286122
-0.000429315
-0.00288682
-0.000441039
-0.00286372
-0.000444933
-0.00278849
-0.00043863
-0.00265822
-0.000420324
-0.00247059
-0.000388523
-0.00222558
-0.00034258
-0.00192431
-0.000282681
-0.00157053
-0.000209855
-0.00117033
-0.00012586
-0.000732274
-3.39294e-05
-0.000266176
6.57943e-05
0.000214961
0.000167175
0.000709277
0.000267709
0.0011914
0.000364034
0.00165924
0.000453129
0.00210238
0.00053242
0.00251586
0.000600145
0.00289541
0.000655642
0.00323887
0.000699728
0.00354451
0.000734938
0.00380983
0.000765524
0.00402992
0.000797072
0.00419645
0.000835652
0.00429773
0.000886576
0.00432034
0.000953234
0.00425198
0.00103638
0.00408508
0.00113414
0.00381921
0.00124287
0.00346131
0.00135837
0.00302375
0.00147691
0.00252138
0.00159584
0.001969
0.00171351
0.00138025
0.00182902
0.000767845
0.00194185
0.000144351
0.00205124
-0.000475413
0.00215627
-0.00107633
0.00225542
-0.00164109
0.00234676
-0.0021531
0.00242822
-0.00259865
0.00249796
-0.00296905
0.0025547
-0.00326164
0.00259785
-0.00347941
0.0026275
-0.00362965
0.00264424
-0.00372211
0.00264892
-0.00376739
0.00264247
-0.00377571
0.00262578
-0.00375624
0.00259952
-0.00371681
0.00256405
-0.00366401
0.00251904
-0.0036039
0.00246304
-0.00354375
0.00239364
-0.00349357
0.00230866
-0.00346515
0.00220834
-0.00346691
0.00209723
-0.00349624
0.00198454
-0.00353397
0.00188223
-0.00354589
0.00180145
-0.00349207
0.00174912
-0.00334034
0.00172633
-0.00307707
0.00172935
-0.0027095
0.00175209
-0.00226018
0.0017886
-0.00175696
0.0018342
-0.0012267
0.00188559
-0.000690423
0.00194035
-0.000166241
0.00199643
0.000333869
0.00205182
0.000797126
0.00210489
0.00121781
0.00215306
0.00158623
0.00219625
0.00190495
0.00223041
0.0021655
0.00225893
0.00237139
0.00256032
-0.000224564
0.000697836
-0.000218074
0.000700336
-0.000211126
0.000718082
-0.000203888
0.00071352
-0.000196273
0.000692227
-0.00018867
0.000649175
-0.000181214
0.00058257
-0.000174094
0.000490143
-0.000167435
0.000370621
-0.000161431
0.000223555
-0.000155919
4.90025e-05
-0.000150937
-0.00015218
-0.000146966
-0.00037452
-0.000144272
-0.000615733
-0.000143175
-0.000870663
-0.000144148
-0.00113328
-0.000147779
-0.001397
-0.000154741
-0.00165502
-0.000165598
-0.00190097
-0.000180751
-0.00212874
-0.000200536
-0.00233261
-0.000224724
-0.00250857
-0.000252732
-0.00265254
-0.000283172
-0.00276093
-0.000314447
-0.00282994
-0.000343806
-0.00285746
-0.00036869
-0.00283883
-0.000386525
-0.00277065
-0.000394548
-0.00265019
-0.00039075
-0.00247439
-0.000373285
-0.00224304
-0.000341152
-0.00195644
-0.000294175
-0.00161751
-0.000233036
-0.00123147
-0.000159205
-0.000806105
-7.53162e-05
-0.000350065
1.5868e-05
0.000123777
0.000113325
0.00061182
0.000210979
0.00109375
0.000306261
0.00156396
0.000396001
0.00201264
0.00047776
0.0024341
0.00054994
0.00282323
0.000612123
0.00317668
0.000665357
0.00349128
0.000712287
0.0037629
0.000757027
0.00398518
0.000804655
0.00414882
0.000860336
0.00424205
0.000928203
0.00425247
0.00101037
0.00416982
0.00110654
0.00398891
0.00121429
0.00371146
0.00132996
0.00334564
0.00144976
0.00290396
0.00157057
0.00240058
0.00169025
0.00184931
0.00180759
0.00126291
0.00192189
0.000653546
0.00203276
3.34741e-05
0.00213955
-0.000582198
0.00224134
-0.00117813
0.00233665
-0.00173639
0.00242355
-0.00224
0.00250006
-0.00267516
0.00256448
-0.00303347
0.00261573
-0.00331289
0.00265345
-0.00351713
0.00267794
-0.00365413
0.00268994
-0.00373412
0.00269044
-0.00376789
0.00268044
-0.00376571
0.00266083
-0.00373663
0.00263232
-0.00368831
0.00259533
-0.00362702
0.00254969
-0.00355826
0.00249421
-0.00348828
0.00242655
-0.00342591
0.00234409
-0.00338269
0.00224597
-0.00336879
0.00213527
-0.00338554
0.00201997
-0.00341868
0.00191165
-0.00343756
0.00182221
-0.00340263
0.00176016
-0.00327829
0.00172831
-0.00304523
0.00172406
-0.00270525
0.00174162
-0.00227774
0.00177463
-0.00178997
0.00181782
-0.00126989
0.00186738
-0.000739977
0.00192056
-0.000219428
0.00197519
0.000279245
0.00202925
0.000743063
0.00208104
0.00116601
0.00212814
0.00153914
0.00217029
0.00186279
0.00220351
0.00213229
0.00223117
0.00234372
0.00254647
-0.000100931
0.000687532
-9.07624e-05
0.000690168
-7.85865e-05
0.000705906
-6.69253e-05
0.000701859
-5.4779e-05
0.000680081
-4.28889e-05
0.000637285
-3.12955e-05
0.000570977
-2.02573e-05
0.000479105
-9.87956e-06
0.000360243
-1.60075e-07
0.000213835
7.50894e-06
4.13335e-05
1.43306e-05
-0.000159002
1.98027e-05
-0.000379992
2.3476e-05
-0.000619406
2.50211e-05
-0.000872208
2.3909e-05
-0.00113217
1.94929e-05
-0.00139259
1.11091e-05
-0.00164664
-2.37447e-06
-0.00188749
-2.17348e-05
-0.00210938
-4.64805e-05
-0.00230786
-7.66719e-05
-0.00247838
-0.000112105
-0.0026171
-0.000151278
-0.00272176
-0.000192964
-0.00278826
-0.000234007
-0.00281641
-0.00027167
-0.00280117
-0.000303302
-0.00273902
-0.000325644
-0.00262785
-0.000336488
-0.00246354
-0.000333678
-0.00224585
-0.000315863
-0.00197426
-0.000282538
-0.00165083
-0.000234037
-0.00127997
-0.000171515
-0.000868627
-9.7133e-05
-0.000424447
-1.41994e-05
4.0843e-05
7.70958e-05
0.000520525
0.000170966
0.000999876
0.000264514
0.00147041
0.000354509
0.00192265
0.000438642
0.00234996
0.000515441
0.00274643
0.00058465
0.00310748
0.000647412
0.00342852
0.000706309
0.003704
0.000765131
0.00392636
0.00082829
0.00408566
0.000899964
0.00417038
0.000983149
0.00416929
0.00107886
0.0040741
0.00118602
0.00388175
0.00130189
0.00359559
0.00142297
0.00322456
0.00154593
0.002781
0.00166818
0.00227833
0.00178804
0.00172945
0.00190457
0.00114638
0.00201733
0.000540785
0.00212579
-7.4986e-05
0.0022297
-0.000686101
0.00232794
-0.00127637
0.00241907
-0.00182752
0.0025012
-0.00232214
0.00257244
-0.0027464
0.00263124
-0.00309228
0.00267676
-0.0033584
0.00270886
-0.00354923
0.00272805
-0.00367333
0.00273525
-0.00374132
0.00273155
-0.00376419
0.00271801
-0.00375216
0.00269553
-0.00371415
0.00266481
-0.00365759
0.00262631
-0.00358851
0.00257998
-0.00351193
0.00252489
-0.00343319
0.00245888
-0.00335991
0.00237909
-0.0033029
0.00228372
-0.00327342
0.00217442
-0.00327624
0.00205774
-0.00330201
0.00194456
-0.00332439
0.00184719
-0.00330525
0.00177555
-0.00320665
0.00173425
-0.00300393
0.00172209
-0.0026931
0.00173383
-0.00228947
0.0017629
-0.00181905
0.00180347
-0.00131046
0.00185114
-0.000787639
0.00190277
-0.000271061
0.00195598
0.000226036
0.00200874
0.000690302
0.00205925
0.0011155
0.00210523
0.00149315
0.00214628
0.00182174
0.00217846
0.00210011
0.00220515
0.00231703
0.00253387
3.39869e-05
0.000667737
4.71949e-05
0.00067696
6.45938e-05
0.000688507
8.07165e-05
0.000685736
9.71023e-05
0.000663695
0.000113044
0.000621343
0.0001284
0.000555621
0.000142899
0.000464606
0.000156336
0.000346806
0.000168472
0.000201699
0.000179321
3.0485e-05
0.00018887
-0.000168551
0.000196415
-0.000387537
0.000201648
-0.000624639
0.000204181
-0.000874742
0.000203467
-0.00113146
0.000198825
-0.00138795
0.000189444
-0.00163725
0.000174569
-0.00187262
0.000153534
-0.00208834
0.000125705
-0.00228003
9.0588e-05
-0.00244327
4.84688e-05
-0.00257498
1.74933e-07
-0.00267346
-4.97622e-05
-0.00273832
-0.000101398
-0.00276478
-0.000151072
-0.0027515
-0.000196059
-0.00269403
-0.000232468
-0.00259144
-0.000257848
-0.00243816
-0.000269775
-0.00223393
-0.000266506
-0.00197752
-0.000247237
-0.0016701
-0.000212001
-0.00131521
-0.000161591
-0.000919037
-9.775e-05
-0.000488288
-2.33183e-05
-3.35888e-05
6.04887e-05
0.000436718
0.00014971
0.000910655
0.000240805
0.00137931
0.000330586
0.00183287
0.000416851
0.0022637
0.000498208
0.00266508
0.000574466
0.00303122
0.000646733
0.00335625
0.000717379
0.00363335
0.000789715
0.00385402
0.000867385
0.00400799
0.000953575
0.00408419
0.00105022
0.00407264
0.00115746
0.00396686
0.00127364
0.00376557
0.00139592
0.00347332
0.00152106
0.00309942
0.00164617
0.00265588
0.00176915
0.00215535
0.00188864
0.00160995
0.00200395
0.00103107
0.00211473
0.000430006
0.00222061
-0.000180866
0.00232125
-0.000786748
0.00241564
-0.00137076
0.00250229
-0.00191416
0.00257934
-0.00239919
0.002645
-0.00281206
0.00269792
-0.0031452
0.00273747
-0.00339795
0.0027638
-0.00357555
0.00277761
-0.00368714
0.00277998
-0.00374369
0.00277209
-0.0037563
0.00275504
-0.00373511
0.00272975
-0.00368886
0.00269689
-0.00362474
0.00265691
-0.00354853
0.00260987
-0.00346489
0.00255507
-0.00337838
0.00249058
-0.00329542
0.00241349
-0.00322581
0.00232128
-0.00318121
0.00221424
-0.0031692
0.00209741
-0.00318517
0.00198061
-0.00320759
0.00187621
-0.00320085
0.0017953
-0.00312574
0.0017443
-0.00295293
0.0017236
-0.0026724
0.00172883
-0.0022947
0.00175344
-0.00184366
0.00179107
-0.00134809
0.00183672
-0.000833292
0.00188681
-0.000321143
0.00193864
0.000174198
0.00199014
0.000638805
0.00203939
0.00106626
0.00208426
0.00144828
0.00212413
0.00178186
0.00215522
0.00206902
0.00218082
0.00229143
0.00252271
0.000176335
0.000645651
0.000195771
0.000657524
0.000217225
0.000667053
0.000238176
0.000664784
0.000258988
0.000642883
0.000279311
0.00060102
0.000298855
0.000536077
0.000317332
0.000446128
0.000334482
0.000329657
0.000350139
0.000186041
0.000363922
1.6702e-05
0.000376202
-0.000180831
0.000385946
-0.000397282
0.000392893
-0.000631586
0.000396632
-0.000878481
0.000396598
-0.00113142
0.000392094
-0.00138344
0.00038231
-0.00162747
0.000366466
-0.00185677
0.000343839
-0.00206571
0.000313531
-0.00224973
0.000274979
-0.00240472
0.00022848
-0.00252849
0.000175001
-0.00261998
0.000115463
-0.00267878
5.27575e-05
-0.00270207
-9.7514e-06
-0.00268899
-6.64011e-05
-0.00263738
-0.000116147
-0.0025417
-0.000155671
-0.00239864
-0.000182184
-0.00220741
-0.000193433
-0.00196628
-0.000188337
-0.0016752
-0.000166691
-0.00133686
-0.000128877
-0.000956851
-7.6273e-05
-0.000540892
-1.19172e-05
-9.79445e-05
6.50787e-05
0.000359722
0.000148782
0.000826951
0.000236698
0.0012914
0.000325709
0.00174386
0.000413692
0.00217572
0.000499291
0.00257948
0.000582289
0.00294822
0.000663642
0.0032749
0.000745379
0.00355162
0.000830226
0.00376917
0.000921017
0.0039172
0.00101998
0.00398522
0.00112812
0.0039645
0.00124488
0.00385011
0.00136824
0.0036422
0.00149539
0.00334617
0.0016234
0.00297141
0.0017498
0.00252948
0.00187285
0.00203231
0.00199149
0.00149132
0.00210516
0.000917398
0.00221363
0.000321541
0.00231662
-0.000283859
0.00241375
-0.000883876
0.00250401
-0.00146102
0.00258589
-0.00199604
0.00265758
-0.00247088
0.00271738
-0.00287186
0.00276416
-0.00319198
0.00279758
-0.00343137
0.00281801
-0.00359598
0.00282638
-0.00369552
0.00282393
-0.00374123
0.00281189
-0.00374426
0.0027914
-0.00371462
0.00276337
-0.00366083
0.00272846
-0.00358982
0.00268707
-0.00350714
0.00263932
-0.00341714
0.00258471
-0.00332377
0.00252161
-0.00323232
0.00244717
-0.00315137
0.0023584
-0.00309244
0.00225436
-0.00306516
0.0021385
-0.00306931
0.00201937
-0.00308847
0.00190902
-0.0030905
0.00181938
-0.0030361
0.00175857
-0.00289212
0.00172878
-0.00264261
0.00172677
-0.00229269
0.00174628
-0.00186316
0.00178057
-0.00138238
0.00182402
-0.000876746
0.00187251
-0.000369632
0.00192301
0.000123697
0.00197329
0.000588523
0.00202131
0.00101824
0.00206508
0.00140452
0.00210375
0.0017432
0.0021337
0.00203906
0.0021581
0.00226703
0.00251316
0.000329989
0.000619594
0.000354197
0.000633317
0.00037992
0.00064133
0.000405428
0.000639276
0.000430572
0.00061774
0.000455184
0.000576407
0.000478883
0.000512378
0.000501337
0.000423675
0.000522217
0.000308776
0.000541312
0.000166946
0.000558385
-3.70946e-07
0.000573353
-0.000195799
0.000585364
-0.000409292
0.000594126
-0.000640349
0.000599195
-0.00088355
0.000599998
-0.00113223
0.000595845
-0.00137929
0.000585955
-0.00161758
0.000569553
-0.00184037
0.000545797
-0.00204196
0.000513614
-0.00221754
0.000472568
-0.00236367
0.000422689
-0.00247861
0.000364552
-0.00256185
0.000299139
-0.00261337
0.000228984
-0.00263192
0.000157104
-0.00261711
8.6592e-05
-0.00256687
2.14621e-05
-0.00247657
-3.1935e-05
-0.00234524
-7.22275e-05
-0.00216712
-9.76099e-05
-0.00194089
-0.000106556
-0.00166625
-9.85563e-05
-0.00134486
-7.35199e-05
-0.000981888
-3.29251e-05
-0.000581487
2.28397e-05
-0.000153709
9.16669e-05
0.000290894
0.000169146
0.000749472
0.00025315
0.00120739
0.000340757
0.00165625
0.00042988
0.00208659
0.000519158
0.0024902
0.000608274
0.0028591
0.000697937
0.00318523
0.000789733
0.00345982
0.000885748
0.00367316
0.000988003
0.00381495
0.00109785
0.00387538
0.0012155
0.00384685
0.00133986
0.00372575
0.00146872
0.00351334
0.00159937
0.00321551
0.00172921
0.00284158
0.00185611
0.00240257
0.00197865
0.00190977
0.00209597
0.001374
0.00220764
0.000805729
0.0023135
0.00021568
0.00241333
-0.000383691
0.00250671
-0.000977251
0.0025926
-0.00154691
0.00266946
-0.0020729
0.0027355
-0.00253692
0.00278919
-0.00292555
0.00282964
-0.00323243
0.00285676
-0.00345849
0.00287121
-0.00361043
0.00287414
-0.00369845
0.0028669
-0.00373398
0.00285078
-0.00372815
0.00282695
-0.00369079
0.00279628
-0.00363016
0.0027594
-0.00355294
0.00271668
-0.00346442
0.00266826
-0.00336872
0.00261378
-0.0032693
0.00255192
-0.00317046
0.00248004
-0.00307949
0.00239484
-0.00300724
0.00229438
-0.0029647
0.00218055
-0.00295547
0.00206041
-0.00296833
0.0019453
-0.00297538
0.00184767
-0.00293847
0.00177715
-0.00282161
0.00173782
-0.00260327
0.00172785
-0.00228272
0.00174154
-0.00187686
0.00177197
-0.00141281
0.00181295
-0.000917718
0.00185975
-0.000416432
0.00190892
7.45217e-05
0.00195804
0.000539409
0.00200488
0.000971392
0.00204757
0.00136183
0.00208501
0.00170576
0.00211382
0.00201026
0.0021369
0.00224395
0.00250539
0.000494867
0.000590113
0.000522844
0.00060534
0.000552295
0.000611879
0.000581851
0.00060972
0.000610971
0.00058862
0.000639565
0.000547813
0.000667188
0.000484755
0.000693438
0.000397425
0.000717912
0.000284303
0.00074022
0.000144638
0.000760732
-2.08828e-05
0.000778222
-0.000213289
0.000792439
-0.000423509
0.000802985
-0.000650895
0.000809371
-0.000889936
0.000811024
-0.00113388
0.000807281
-0.00137555
0.000797415
-0.00160771
0.00078065
-0.00182361
0.000755986
-0.00201729
0.000722564
-0.00218412
0.000679887
-0.00232099
0.000627759
-0.00242648
0.000566422
-0.00250051
0.000496675
-0.00254362
0.000420581
-0.00255582
0.000340892
-0.00253742
0.000260932
-0.00248691
0.000185191
-0.00240083
0.000117297
-0.00227735
6.11314e-05
-0.00211096
1.96487e-05
-0.00189941
-4.62159e-06
-0.00164198
-9.6446e-06
-0.00133983
2.12097e-06
-0.000993653
3.40058e-05
-0.000613372
8.08581e-05
-0.000200562
0.000140334
0.000231418
0.000210994
0.000678813
0.000290417
0.00112797
0.00037594
0.00157073
0.000465492
0.00199704
0.000557684
0.00239801
0.000652035
0.00276475
0.000748933
0.00308833
0.000849472
0.00335928
0.000955071
0.00356756
0.00106698
0.00370304
0.00118577
0.00375659
0.00131099
0.00372162
0.00144117
0.00359558
0.001574
0.0033805
0.00170695
0.00308256
0.00183769
0.00271085
0.00196441
0.00227585
0.00208591
0.00178827
0.00220149
0.00125843
0.00231082
0.000696396
0.0024138
0.000112695
0.00251025
-0.000480135
0.00259966
-0.00106666
0.00268096
-0.00162821
0.00275256
-0.0021445
0.00281271
-0.00259708
0.00286007
-0.0029729
0.00289399
-0.00326635
0.00291471
-0.00347921
0.00292315
-0.00361888
0.00292067
-0.00369596
0.0029087
-0.00372202
0.00288862
-0.00370806
0.00286155
-0.00366372
0.00282835
-0.00359696
0.00278961
-0.0035142
0.00274566
-0.00342048
0.00269663
-0.00331969
0.00264227
-0.00321493
0.00258152
-0.00310971
0.00251203
-0.00301
0.00243044
-0.00292564
0.00233399
-0.00286826
0.00222311
-0.00284459
0.00210324
-0.00284845
0.00198467
-0.00285682
0.00187999
-0.00283379
0.00180009
-0.00274171
0.0017509
-0.00255408
0.00173228
-0.0022641
0.0017394
-0.00188398
0.00176535
-0.00143876
0.00180345