/*--------------------------------*- C++ -*----------------------------------*\
  =========                 |
  \\      /  F ield         | OpenFOAM: The Open Source CFD Toolbox
   \\    /   O peration     | Website:  https://openfoam.org
    \\  /    A nd           | Version:  7
     \\/     M anipulation  |
\*---------------------------------------------------------------------------*/
FoamFile
{
    version     2.0;
    format      ascii;
    class       volVectorField;
    location    "80";
    object      U;
}
// * * * * * * * * * * * * * * * * * * * * * * * * * * * * * * * * * * * * * //

dimensions      [0 1 -1 0 0 0 0];

internalField   nonuniform List<vector> 
6000
(
(-0.158872 0.0553301 -2.34084e-21)
(-0.161971 0.0593654 2.47354e-21)
(-0.164748 0.063377 -4.52555e-21)
(-0.167329 0.0673136 2.24626e-21)
(-0.169968 0.0711273 2.22925e-21)
(-0.154006 0.0574822 1.10151e-20)
(-0.156559 0.0612785 3.87047e-21)
(-0.158736 0.065144 -3.83295e-21)
(-0.160646 0.0690464 -2.38906e-21)
(-0.162543 0.0729758 -2.3781e-21)
(-0.146977 0.0593829 -1.02843e-20)
(-0.14872 0.0629133 2.76083e-21)
(-0.150003 0.0666046 1.94246e-20)
(-0.15091 0.0704494 -3.29394e-21)
(-0.151671 0.07448 4.20323e-22)
(-0.1385 0.0642164 3.37337e-21)
(-0.138606 0.067692 -6.8827e-21)
(-0.138187 0.0714448 8.75779e-21)
(-0.137406 0.075549 1.29353e-20)
(-0.12594 0.0651419 -9.53168e-22)
(-0.124598 0.0683454 -5.61447e-21)
(-0.12256 0.0719584 -1.96699e-20)
(-0.119807 0.0760859 -5.35908e-21)
(-0.111076 0.0656553 4.59319e-21)
(-0.108027 0.068515 1.49879e-20)
(-0.104115 0.0719244 2.49315e-20)
(-0.0989366 0.075991 -1.22653e-20)
(-0.0939242 0.0657379 -2.03935e-20)
(-0.0889162 0.0681675 -3.17011e-20)
(-0.0829346 0.0712918 -4.94331e-20)
(-0.0748585 0.0751842 1.91234e-20)
(-0.0744714 0.0653905 -6.59987e-21)
(-0.0672482 0.0672919 1.5071e-20)
(-0.0590536 0.0700167 8.25884e-20)
(-0.0476397 0.0736952 -1.60357e-20)
(-0.0526636 0.0646336 3.54086e-20)
(-0.0429573 0.065914 -2.35395e-20)
(-0.0323568 0.0680351 -5.54176e-20)
(-0.0173403 0.0717471 3.05374e-21)
(-0.0283842 0.0635011 2.8437e-21)
(-0.0159536 0.0641144 -2.2516e-20)
(-0.00252881 0.0654174 -2.99513e-20)
(0.016242 0.0691501 2.29514e-20)
(-0.00142766 0.0620377 -4.13075e-20)
(0.0139872 0.0619526 -7.33604e-21)
(0.03053 0.0623656 2.9726e-20)
(0.0536369 0.0656599 -2.48781e-20)
(0.0472518 0.0595008 3.73888e-21)
(0.0671058 0.0590464 1.20208e-21)
(0.0952563 0.0615137 2.1552e-20)
(0.084295 0.0568865 1.42109e-20)
(0.10768 0.0555801 -1.33452e-21)
(0.141696 0.0570229 -2.165e-20)
(0.125673 0.0542256 -1.60045e-20)
(0.152842 0.0521463 3.19297e-20)
(0.193742 0.0525097 3.24877e-20)
(0.172044 0.0516328 -2.56637e-20)
(0.203257 0.0489383 -3.16307e-20)
(0.252261 0.0483428 -6.85731e-20)
(0.25961 0.046135 -4.16262e-20)
(0.318068 0.04493 8.28378e-20)
(0.322534 0.0439082 5.75852e-20)
(0.391736 0.0426824 1.143e-20)
(0.392492 0.0424508 4.83273e-20)
(0.473353 0.0419682 -1.00388e-19)
(0.562256 0.0430618 1.77763e-20)
(0.656816 0.0460953 4.38951e-20)
(0.754388 0.0510209 -1.34284e-20)
(-0.173944 0.0756309 -6.1997e-22)
(-0.178507 0.0794525 6.4474e-22)
(-0.181821 0.0818594 -4.41474e-22)
(-0.185062 0.0822657 4.06743e-22)
(-0.187636 0.0803264 -7.78734e-22)
(-0.189927 0.0757615 8.93085e-22)
(-0.191788 0.0682995 -1.77435e-22)
(-0.193303 0.0577555 2.42143e-22)
(-0.194418 0.0440065 2.47297e-23)
(-0.195114 0.0270253 -9.58366e-23)
(-0.195328 0.00687184 1.28978e-22)
(-0.195031 -0.0163137 -1.26573e-22)
(-0.194196 -0.04218 1.92615e-22)
(-0.192792 -0.0703188 -1.18747e-22)
(-0.1908 -0.100199 1.28825e-22)
(-0.188224 -0.131192 -2.61741e-22)
(-0.185084 -0.162586 4.67263e-22)
(-0.181414 -0.193612 -5.62025e-22)
(-0.177248 -0.223463 5.42423e-22)
(-0.1726 -0.251316 -8.24252e-23)
(-0.16745 -0.276359 -4.86139e-22)
(-0.161718 -0.297801 2.25557e-22)
(-0.155254 -0.314884 -1.6207e-22)
(-0.147839 -0.32687 4.42307e-22)
(-0.139195 -0.333062 -2.83989e-22)
(-0.129 -0.332835 3.34609e-22)
(-0.116916 -0.325662 -1.24594e-22)
(-0.102628 -0.311161 -2.02286e-22)
(-0.0858959 -0.28915 -7.6706e-23)
(-0.0666116 -0.259675 7.52126e-23)
(-0.0447801 -0.223037 2.62765e-22)
(-0.0205706 -0.179934 -8.06943e-23)
(0.00565188 -0.131243 -1.13371e-22)
(0.0334113 -0.0780246 3.67598e-22)
(0.0622472 -0.021663 -1.36897e-22)
(0.0915684 0.0364712 -6.80246e-23)
(0.120825 0.0947614 6.81615e-23)
(0.149456 0.151888 -1.95385e-22)
(0.176858 0.206314 2.47559e-22)
(0.20246 0.256984 1.49533e-22)
(0.225543 0.302953 -7.92741e-23)
(0.245409 0.343691 6.11806e-23)
(0.261349 0.379053 -2.15419e-22)
(0.27272 0.409299 1.99103e-22)
(0.279018 0.435026 1.30352e-22)
(0.279997 0.45701 -6.63e-23)
(0.275821 0.475965 -6.11825e-25)
(0.267259 0.492212 3.28273e-23)
(0.255816 0.505359 -4.6665e-23)
(0.243725 0.514118 -1.19105e-22)
(0.233686 0.516394 3.31604e-23)
(0.228365 0.509722 1.27043e-22)
(0.229803 0.491946 -2.22917e-22)
(0.238932 0.461879 8.31554e-23)
(0.255447 0.419667 4.9197e-23)
(0.278081 0.366689 7.50871e-23)
(0.305142 0.305095 1.2913e-22)
(0.335028 0.23726 -1.97404e-23)
(0.366528 0.16541 -1.80251e-22)
(0.398851 0.09152 7.93402e-23)
(0.431491 0.0173969 1.02712e-23)
(0.464049 -0.055234 8.42582e-23)
(0.4961 -0.124623 -5.10044e-23)
(0.527126 -0.189088 -7.72749e-24)
(0.556509 -0.247154 1.26383e-22)
(0.58359 -0.29772 -1.69494e-23)
(0.607757 -0.340189 3.11459e-23)
(0.628519 -0.374509 -2.01922e-23)
(0.645553 -0.401112 2.89501e-23)
(0.658706 -0.42079 -3.54792e-23)
(0.667968 -0.434553 -1.25353e-23)
(0.673429 -0.443493 3.18027e-23)
(0.675222 -0.448693 3.63303e-23)
(0.673455 -0.451202 -2.77217e-23)
(0.668106 -0.452114 2.5657e-23)
(0.658915 -0.452692 1.13643e-23)
(0.645404 -0.454375 -4.4633e-23)
(0.627146 -0.458433 5.85107e-23)
(0.604289 -0.465263 -1.347e-25)
(0.578044 -0.473643 -1.98773e-23)
(0.550824 -0.480476 -1.28319e-23)
(0.525799 -0.481378 2.72823e-23)
(0.506022 -0.472001 6.08767e-25)
(0.493469 -0.449508 -6.19095e-24)
(0.488573 -0.413407 1.95529e-23)
(0.490417 -0.36538 -4.8553e-24)
(0.497511 -0.308298 -1.22719e-23)
(0.508335 -0.245272 3.42562e-23)
(0.521921 -0.178991 -3.42238e-23)
(0.537371 -0.111776 1.80165e-23)
(0.55448 -0.0454668 1.50193e-23)
(0.572273 0.01809 6.20141e-24)
(0.590982 0.0775916 -4.30535e-24)
(0.608974 0.131352 1.90461e-23)
(0.627067 0.17914 2.91928e-24)
(0.643016 0.218972 -3.22882e-24)
(0.658111 0.253021 8.05611e-25)
(0.670631 0.277702 3.16276e-24)
(0.68015 0.298073 1.22959e-24)
(0.690631 0.311644 3.64057e-25)
(-0.165761 0.0778099 1.0363e-21)
(-0.169947 0.0810349 -1.22368e-22)
(-0.172684 0.0833484 -1.73398e-21)
(-0.175421 0.0835151 1.68762e-21)
(-0.177479 0.0814339 -1.12347e-21)
(-0.179251 0.0767122 -5.0672e-22)
(-0.18059 0.0691124 1.78989e-21)
(-0.18158 0.0584214 -1.86551e-21)
(-0.182174 0.0445154 1.44168e-21)
(-0.182366 0.0273578 -1.2921e-21)
(-0.182115 0.00700648 1.6179e-21)
(-0.181394 -0.016397 -1.27943e-21)
(-0.180195 -0.0424916 7.88781e-22)
(-0.178526 -0.0708704 -1.22537e-22)
(-0.1764 -0.100993 -1.11871e-22)
(-0.173855 -0.132222 -8.31098e-22)
(-0.17095 -0.163837 1.14011e-21)
(-0.16776 -0.195065 6.57954e-23)
(-0.164354 -0.225104 -3.20909e-22)
(-0.160782 -0.253142 9.63336e-23)
(-0.157051 -0.278388 -1.28044e-21)
(-0.153099 -0.300085 1.29873e-21)
(-0.148774 -0.317508 -1.46259e-21)
(-0.143841 -0.329948 4.99218e-22)
(-0.137995 -0.336734 6.24543e-22)
(-0.130871 -0.337261 -8.66573e-22)
(-0.122076 -0.331003 -2.10662e-22)
(-0.111217 -0.317561 4.0794e-24)
(-0.0979586 -0.296709 -3.09181e-22)
(-0.0820796 -0.268435 2.84294e-22)
(-0.0634824 -0.232988 -4.32419e-22)
(-0.0422428 -0.19095 4.08251e-22)
(-0.0186138 -0.143177 3.47219e-22)
(0.0069636 -0.090708 -1.66151e-21)
(0.0340142 -0.0347959 3.89991e-22)
(0.0619097 0.0232042 1.06084e-21)
(0.0900963 0.0815686 -3.08706e-22)
(0.117948 0.139094 -8.05424e-22)
(0.144807 0.194154 -2.56805e-22)
(0.170096 0.245791 -5.37628e-22)
(0.193037 0.293037 5.23587e-22)
(0.212923 0.335378 8.35365e-22)
(0.229035 0.372641 -8.68287e-22)
(0.240753 0.405034 2.62734e-22)
(0.247641 0.433049 2.99457e-22)
(0.24958 0.457298 -8.88255e-23)
(0.246932 0.478257 3.59639e-23)
(0.240694 0.49595 -2.64183e-22)
(0.232575 0.509684 -7.37666e-23)
(0.224881 0.517947 3.51883e-23)
(0.220186 0.518604 -1.84102e-22)
(0.22081 0.509385 1.98173e-22)
(0.228282 0.48854 2.24431e-22)
(0.243 0.455381 -4.66691e-22)
(0.264256 0.410488 3.91914e-22)
(0.290611 0.355483 -1.29672e-22)
(0.320427 0.292541 -2.56287e-22)
(0.352294 0.223908 1.1324e-22)
(0.385214 0.15164 -1.90429e-22)
(0.418567 0.0775705 7.65303e-22)
(0.451942 0.00343662 -3.93819e-22)
(0.484982 -0.0690435 2.96275e-22)
(0.517278 -0.138082 -1.44568e-22)
(0.548299 -0.201953 -1.09214e-22)
(0.577422 -0.259149 -3.06753e-22)
(0.603996 -0.308571 2.2549e-22)
(0.627433 -0.349663 -1.24879e-22)
(0.647289 -0.382436 -1.57626e-22)
(0.663295 -0.407396 2.70748e-22)
(0.675362 -0.425406 -2.09003e-22)
(0.683539 -0.437527 -1.73957e-23)
(0.687968 -0.444883 -1.14774e-22)
(0.688825 -0.448559 7.62299e-23)
(0.686267 -0.449577 -7.45362e-24)
(0.680337 -0.448951 2.31897e-24)
(0.67085 -0.447842 4.26864e-23)
(0.657344 -0.447631 -9.79696e-23)
(0.639284 -0.449694 -1.4372e-23)
(0.61654 -0.454755 -5.68518e-23)
(0.589951 -0.462076 -2.20864e-23)
(0.561606 -0.469009 3.61739e-23)
(0.534569 -0.471355 2.46279e-23)
(0.512071 -0.464556 -1.17755e-22)
(0.496505 -0.445238 1.18995e-22)
(0.488765 -0.412279 -1.08108e-22)
(0.48824 -0.366905 -5.8927e-23)
(0.493512 -0.311829 3.28404e-24)
(0.502967 -0.25024 -6.53092e-23)
(0.515478 -0.184985 3.90398e-23)
(0.530043 -0.118515 -8.9809e-24)
(0.546375 -0.0527324 -3.78185e-24)
(0.563503 0.0105158 1.33163e-23)
(0.581643 0.0699198 -8.34842e-23)
(0.599185 0.123863 -2.92017e-23)
(0.616951 0.171995 -5.74121e-23)
(0.632678 0.212522 3.65795e-23)
(0.64766 0.247238 -1.67285e-23)
(0.660158 0.273025 1.93202e-23)
(0.66967 0.294127 -1.04634e-23)
(0.680237 0.309252 -3.18886e-24)
(-0.153857 0.079695 -1.80977e-21)
(-0.15762 0.0823327 -8.58796e-22)
(-0.159585 0.0845823 -8.41918e-22)
(-0.16169 0.0845431 8.18618e-22)
(-0.163079 0.0823457 1.61108e-21)
(-0.164189 0.0774984 1.0663e-21)
(-0.164856 0.0697913 -3.79791e-21)
(-0.165175 0.0589875 3.43263e-21)
(-0.1651 0.0449605 1.56144e-21)
(-0.164639 0.0276647 -3.61532e-21)
(-0.163773 0.00715514 1.91835e-21)
(-0.162481 -0.0164175 -2.66432e-21)
(-0.160773 -0.0426822 3.61595e-21)
(-0.158699 -0.0712374 -2.22015e-21)
(-0.156301 -0.101531 2.86451e-21)
(-0.153655 -0.132915 -4.93631e-21)
(-0.150862 -0.164661 3.0089e-21)
(-0.148036 -0.195991 9.74814e-22)
(-0.145287 -0.226108 -4.88257e-22)
(-0.142702 -0.254215 -8.99649e-23)
(-0.140321 -0.279545 -5.42549e-22)
(-0.138104 -0.301378 4.77336e-22)
(-0.135897 -0.319029 -2.48013e-22)
(-0.133453 -0.331818 3.85838e-22)
(-0.130441 -0.339111 1.48038e-21)
(-0.126462 -0.340329 7.32392e-23)
(-0.121066 -0.33495 -1.3464e-21)
(-0.113794 -0.322568 3.37361e-23)
(-0.104223 -0.302918 5.85796e-22)
(-0.0920257 -0.275935 -1.40595e-22)
(-0.0769959 -0.241803 -1.9239e-21)
(-0.0591029 -0.201003 2.05892e-21)
(-0.0385039 -0.154313 -4.90824e-23)
(-0.0155412 -0.102767 -4.49876e-22)
(0.00935497 -0.0475989 7.17344e-22)
(0.0354413 0.0101136 1.77969e-21)
(0.0621937 0.0684397 -1.81466e-21)
(0.0889505 0.126274 2.55419e-22)
(0.114993 0.181886 -2.70122e-22)
(0.139752 0.234436 6.99861e-22)
(0.162374 0.282914 3.07391e-22)
(0.182161 0.326817 5.77775e-22)
(0.198392 0.36593 -3.61056e-22)
(0.210497 0.400386 -1.66374e-22)
(0.218129 0.430554 -4.81464e-22)
(0.221316 0.456855 6.78303e-22)
(0.220613 0.479514 -5.92583e-22)
(0.217208 0.498271 2.84981e-22)
(0.21293 0.512177 -3.58878e-22)
(0.210057 0.519577 -2.57473e-22)
(0.210939 0.518383 8.40047e-23)
(0.217485 0.506591 1.15046e-21)
(0.230717 0.482872 -1.56515e-22)
(0.25057 0.446995 -4.92363e-22)
(0.276043 0.399883 -4.67022e-22)
(0.305635 0.343303 1.18354e-21)
(0.337824 0.279387 -2.01011e-22)
(0.371403 0.210232 -1.13301e-21)
(0.405562 0.137734 8.66949e-22)
(0.439815 0.0636149 2.82827e-23)
(0.473817 -0.0104356 2.00322e-22)
(0.507237 -0.082678 -5.91809e-22)
(0.539665 -0.15129 2.36366e-23)
(0.570562 -0.214493 -2.62348e-22)
(0.599298 -0.270749 1.17169e-21)
(0.625233 -0.318968 -5.54213e-22)
(0.647811 -0.358636 -1.3139e-22)
(0.666636 -0.389835 5.66596e-22)
(0.681504 -0.413149 -2.00953e-22)
(0.692391 -0.429507 2.12396e-22)
(0.699407 -0.440021 1.48753e-22)
(0.702741 -0.445841 -4.79422e-23)
(0.702611 -0.448058 3.73065e-24)
(0.699211 -0.447666 8.47778e-23)
(0.69264 -0.445611 -3.18488e-24)
(0.682787 -0.442942 -1.04237e-22)
(0.669238 -0.440951 1.08122e-22)
(0.651396 -0.441055 -5.27931e-23)
(0.628898 -0.444249 1.82307e-22)
(0.602217 -0.450262 6.79051e-23)
(0.573073 -0.456946 -5.81014e-23)
(0.544335 -0.460391 -6.93904e-24)
(0.519329 -0.455951 6.50315e-23)
(0.500814 -0.439775 -4.35635e-23)
(0.490161 -0.410096 2.13661e-23)
(0.487138 -0.3676 6.65236e-23)
(0.490464 -0.314756 -4.93493e-23)
(0.498472 -0.25477 1.73816e-22)
(0.509877 -0.190646 -1.57923e-22)
(0.52355 -0.124979 6.2703e-23)
(0.539107 -0.0597586 1.27258e-22)
(0.555568 0.0031492 -9.09092e-24)
(0.573123 0.0624264 4.3025e-23)
(0.590185 0.116512 1.22494e-22)
(0.607589 0.164955 2.81102e-23)
(0.623037 0.206139 -3.06932e-23)
(0.637868 0.241492 7.85672e-23)
(0.650261 0.268366 7.50328e-24)
(0.659741 0.29018 3.10598e-24)
(0.670283 0.30686 4.40007e-25)
(-0.138303 0.0812179 1.69499e-21)
(-0.141595 0.0832661 -7.40575e-21)
(-0.142591 0.0854824 6.57611e-21)
(-0.143936 0.0852699 -3.16554e-21)
(-0.144508 0.0829799 -4.44177e-22)
(-0.144811 0.0780366 -5.42732e-21)
(-0.144662 0.0702517 5.72925e-21)
(-0.144162 0.0593692 -3.48359e-21)
(-0.143272 0.045259 1.29374e-21)
(-0.142012 0.0278677 -7.48634e-22)
(-0.140385 0.00724488 6.78801e-21)
(-0.13837 -0.0164482 -7.29998e-21)
(-0.136006 -0.0428232 5.45895e-21)
(-0.133384 -0.0714885 -5.05834e-22)
(-0.130574 -0.101879 3.40802e-22)
(-0.12769 -0.133333 -1.19181e-21)
(-0.124873 -0.165114 -3.24557e-21)
(-0.122282 -0.19644 -7.32099e-23)
(-0.120069 -0.226521 2.3053e-21)
(-0.118361 -0.254574 9.10226e-22)
(-0.117237 -0.279857 -1.47594e-23)
(-0.116683 -0.301695 -1.73968e-21)
(-0.116547 -0.319446 1.13272e-21)
(-0.116567 -0.332466 -1.51053e-21)
(-0.116397 -0.340161 2.68453e-21)
(-0.115597 -0.341989 -1.66489e-21)
(-0.11367 -0.337436 -7.44535e-22)
(-0.110095 -0.326093 -9.47513e-22)
(-0.104369 -0.307665 7.35058e-22)
(-0.0960716 -0.282034 1.50629e-21)
(-0.0848899 -0.249321 3.03862e-22)
(-0.0706793 -0.209911 -6.91834e-22)
(-0.0534917 -0.164487 -3.85346e-22)
(-0.0336038 -0.114006 -3.73277e-22)
(-0.0112754 -0.0597123 -1.38284e-21)
(0.0126484 -0.00270853 1.06938e-21)
(0.03759 0.0554951 5.30729e-22)
(0.062901 0.113543 -2.90352e-22)
(0.0878306 0.169598 4.50452e-22)
(0.111833 0.22298 -1.18628e-21)
(0.133965 0.272617 1.38631e-21)
(0.153554 0.318009 7.12764e-22)
(0.16989 0.358878 -1.94672e-21)
(0.182466 0.395269 2.18643e-21)
(0.191044 0.427402 -1.2881e-21)
(0.1958 0.455495 1.02432e-21)
(0.197457 0.479521 -2.91598e-22)
(0.197342 0.49896 -8.91982e-22)
(0.197317 0.512667 -2.91092e-22)
(0.199539 0.518919 4.68732e-22)
(0.206056 0.515752 1.19687e-21)
(0.21834 0.501467 -9.96225e-22)
(0.236944 0.475152 -7.20215e-22)
(0.261425 0.436966 -2.11446e-22)
(0.2906 0.388086 9.38448e-22)
(0.322986 0.33034 -4.56381e-22)
(0.357218 0.265772 1.74947e-22)
(0.39228 0.196328 4.65863e-22)
(0.42752 0.123761 -4.52831e-22)
(0.462552 0.0497101 9.45205e-22)
(0.497074 -0.0241616 1.19866e-22)
(0.530765 -0.0960874 -1.11006e-21)
(0.56321 -0.164195 5.66688e-22)
(0.593859 -0.226655 -7.19325e-22)
(0.622077 -0.281903 3.99833e-23)
(0.64724 -0.328861 7.33714e-22)
(0.668828 -0.367064 -6.12924e-22)
(0.686503 -0.396669 -5.23492e-23)
(0.700128 -0.418338 -7.25149e-23)
(0.709746 -0.433068 2.17369e-22)
(0.715529 -0.442017 -3.27148e-22)
(0.717714 -0.446356 3.04989e-23)
(0.716553 -0.447178 6.5151e-23)
(0.712271 -0.445456 7.33882e-23)
(0.70501 -0.442075 1.64857e-22)
(0.694727 -0.437976 -2.27154e-22)
(0.681077 -0.434334 9.99015e-23)
(0.663445 -0.432554 7.25912e-23)
(0.641287 -0.433829 1.34728e-22)
(0.614732 -0.438326 -1.95752e-22)
(0.585103 -0.444425 8.82941e-23)
(0.554995 -0.448605 -4.93489e-23)
(0.527734 -0.446246 -1.86716e-23)
(0.506379 -0.433115 1.38306e-22)
(0.492776 -0.406808 -5.47733e-24)
(0.487128 -0.367403 1.362e-22)
(0.48837 -0.317025 -1.71022e-22)
(0.494831 -0.258832 1.98315e-22)
(0.505079 -0.195961 -1.0965e-22)
(0.51785 -0.131165 6.1758e-23)
(0.532633 -0.0665445 -8.00163e-23)
(0.548429 -0.00400512 -6.68675e-23)
(0.565391 0.0551194 6.73044e-23)
(0.581953 0.109313 -1.2553e-22)
(0.598965 0.158038 -2.60858e-23)
(0.614084 0.199844 -1.46486e-23)
(0.628731 0.235803 3.80447e-24)
(0.640941 0.26375 -4.47402e-23)
(0.650369 0.286256 1.73741e-23)
(0.660779 0.304492 3.46712e-24)
(-0.119176 0.0823072 -3.28937e-22)
(-0.121958 0.0837615 2.14903e-21)
(-0.121796 0.0859721 -6.99748e-21)
(-0.122256 0.085619 5.59166e-21)
(-0.121869 0.0832577 -3.14159e-21)
(-0.121228 0.0782464 2.11441e-21)
(-0.12012 0.0704118 -3.08184e-23)
(-0.118661 0.0594837 1.46025e-21)
(-0.116814 0.0453277 -7.94183e-21)
(-0.114615 0.027884 5.80604e-21)
(-0.112086 0.0071958 -2.345e-21)
(-0.109203 -0.01656 4.40797e-21)
(-0.106037 -0.0429861 -3.17184e-21)
(-0.102727 -0.0716942 4.63156e-21)
(-0.0993637 -0.102105 1.23944e-21)
(-0.0961011 -0.133544 -6.10088e-21)
(-0.0931213 -0.165263 2.95669e-21)
(-0.0906281 -0.196477 3.34587e-21)
(-0.0888169 -0.226402 -2.21548e-21)
(-0.087855 -0.254271 -2.07448e-21)
(-0.0878688 -0.279367 3.12494e-21)
(-0.088877 -0.301068 -4.33305e-21)
(-0.0907289 -0.318778 -1.03221e-21)
(-0.0931553 -0.331893 7.66361e-21)
(-0.0957994 -0.339869 -1.66593e-21)
(-0.0981821 -0.342212 -5.6613e-21)
(-0.0997553 -0.338413 4.92037e-21)
(-0.0999399 -0.328068 -1.42759e-21)
(-0.0981614 -0.310858 -1.17948e-21)
(-0.0939192 -0.286614 -9.69489e-22)
(-0.0868006 -0.2554 2.09232e-21)
(-0.0765494 -0.217504 9.13002e-22)
(-0.0631054 -0.173515 -1.33043e-21)
(-0.0466568 -0.124293 1.14277e-21)
(-0.0273976 -0.0709751 1.36414e-21)
(-0.00602191 -0.0148874 -2.06657e-21)
(0.0168462 0.0428576 1.67841e-21)
(0.0403208 0.10103 -3.92679e-22)
(0.0638201 0.15739 -7.47845e-22)
(0.0868368 0.211488 -7.55687e-23)
(0.108315 0.262174 -4.65459e-22)
(0.127626 0.308941 1.35648e-21)
(0.144078 0.351431 -6.65779e-22)
(0.157242 0.389581 -1.08357e-21)
(0.166989 0.423448 -1.5211e-22)
(0.173633 0.45304 2.06586e-22)
(0.178025 0.478089 4.82396e-22)
(0.181565 0.497855 -1.28672e-21)
(0.18607 0.511049 1.43754e-21)
(0.193496 0.51596 -8.27231e-22)
(0.205542 0.5108 -5.53924e-22)
(0.223249 0.494196 6.06629e-22)
(0.246756 0.465615 8.72084e-22)
(0.275339 0.42554 -8.93822e-22)
(0.307726 0.375311 9.86599e-22)
(0.342512 0.316759 -9.05153e-22)
(0.378503 0.251815 8.68974e-23)
(0.41485 0.182277 1.49031e-21)
(0.451029 0.109782 -1.66262e-21)
(0.486721 0.0359111 2.24935e-21)
(0.52165 -0.0376937 -7.74176e-22)
(0.5555 -0.109222 1.68472e-22)
(0.587844 -0.176747 -1.91848e-22)
(0.618119 -0.238389 4.4777e-22)
(0.645689 -0.29256 -7.85135e-22)
(0.669946 -0.3382 -1.21227e-22)
(0.690417 -0.374901 -3.58806e-23)
(0.706824 -0.402897 -2.79674e-22)
(0.719105 -0.422931 4.58119e-22)
(0.727373 -0.436066 -5.05714e-22)
(0.731859 -0.443497 -3.45616e-22)
(0.732848 -0.446415 -5.88398e-23)
(0.730621 -0.445912 7.25053e-22)
(0.725427 -0.442939 -5.40218e-22)
(0.717439 -0.438331 1.57904e-22)
(0.706672 -0.432926 -8.18717e-23)
(0.692858 -0.427774 -9.98815e-23)
(0.675405 -0.424213 8.22517e-23)
(0.653646 -0.423567 4.58632e-24)
(0.627397 -0.426386 1.68081e-22)
(0.597576 -0.43159 -2.27576e-22)
(0.566438 -0.436125 7.2229e-23)
(0.537211 -0.435523 9.89039e-23)
(0.513172 -0.425275 1.82901e-23)
(0.496619 -0.402375 3.14372e-23)
(0.48823 -0.366248 -5.77954e-23)
(0.487238 -0.318575 1.03056e-22)
(0.492031 -0.262386 -1.39951e-22)
(0.501055 -0.20091 -4.18449e-23)
(0.512898 -0.137068 -1.29533e-22)
(0.526909 -0.0730901 4.36178e-23)
(0.542044 -0.0109472 8.97967e-23)
(0.55841 0.0480034 -3.53533e-23)
(0.57446 0.102274 -2.52193e-23)
(0.591057 0.151258 1.18123e-22)
(0.605806 0.193651 1.51735e-23)
(0.620242 0.230193 1.05021e-23)
(0.632195 0.259197 1.29674e-23)
(0.641556 0.282376 -3.28019e-23)
(0.651727 0.302173 -8.40801e-24)
(-0.0965463 0.0828888 -3.86462e-23)
(-0.0988072 0.083758 3.57243e-21)
(-0.0973103 0.0859807 -2.62975e-21)
(-0.0967678 0.0855221 -6.81659e-22)
(-0.0952939 0.0831073 3.4205e-21)
(-0.09358 0.0780555 -4.63886e-21)
(-0.0913838 0.0701986 -1.50293e-21)
(-0.0888335 0.0592576 -2.80961e-21)
(-0.0858978 0.0450929 4.14008e-21)
(-0.0826281 0.0276405 -5.61678e-21)
(-0.0790633 0.00692857 4.09251e-21)
(-0.0751755 -0.0168236 3.33329e-21)
(-0.0710752 -0.0432423 -4.93886e-21)
(-0.0669437 -0.0719255 2.83325e-21)
(-0.0628944 -0.102279 -2.54532e-21)
(-0.0591182 -0.133618 -3.21455e-21)
(-0.0558375 -0.165179 -7.07245e-22)
(-0.0533015 -0.196171 3.36377e-21)
(-0.0517479 -0.225823 2.58171e-21)
(-0.0513847 -0.253377 -4.3156e-21)
(-0.0523918 -0.278141 4.29096e-21)
(-0.0548281 -0.299553 -5.20641e-21)
(-0.0585477 -0.317064 1.13944e-21)
(-0.0632818 -0.330123 1.2647e-21)
(-0.0686746 -0.338238 -2.82942e-21)
(-0.0742052 -0.340986 9.84189e-22)
(-0.0792705 -0.337855 -1.12208e-21)
(-0.0832375 -0.328447 2.64684e-21)
(-0.0854585 -0.312433 -3.61851e-21)
(-0.0853638 -0.289584 -9.59061e-22)
(-0.0824532 -0.259923 2.10227e-21)
(-0.0763656 -0.22364 -7.14176e-22)
(-0.0669334 -0.181225 -1.90087e-21)
(-0.0542411 -0.133447 3.16536e-21)
(-0.0384077 -0.0813367 -4.84182e-22)
(-0.0200347 -0.0261186 7.88988e-22)
(0.000435168 0.0307492 -5.32361e-22)
(0.0217929 0.08886 -6.09227e-22)
(0.0435263 0.14537 -3.62133e-21)
(0.0653318 0.200025 4.28042e-22)
(0.0860009 0.251616 2.648e-21)
(0.104967 0.299601 -6.53702e-22)
(0.121562 0.343532 -5.43161e-22)
(0.13544 0.383222 -6.71807e-22)
(0.146572 0.418557 1.68264e-21)
(0.155384 0.449338 -5.32678e-22)
(0.162807 0.475076 2.06872e-22)
(0.170249 0.494852 -1.22526e-21)
(0.17941 0.507296 5.07763e-22)
(0.191989 0.510762 -7.40495e-22)
(0.209316 0.503678 1.72528e-21)
(0.232028 0.484991 -1.34746e-21)
(0.259922 0.454505 5.97704e-22)
(0.292087 0.412946 -2.23879e-21)
(0.327234 0.361751 1.71094e-21)
(0.364073 0.302705 5.22868e-22)
(0.401573 0.237616 1.37525e-21)
(0.439029 0.168152 -1.95719e-21)
(0.47601 0.0958558 -1.10897e-22)
(0.512243 0.0222631 -1.04001e-21)
(0.547466 -0.0509854 -3.51574e-22)
(0.581361 -0.122033 -1.59613e-21)
(0.613486 -0.188896 1.14171e-21)
(0.643261 -0.249643 -9.79763e-23)
(0.670051 -0.302669 -1.8304e-21)
(0.693272 -0.346938 2.79233e-21)
(0.7125 -0.382105 -1.21864e-21)
(0.727528 -0.408485 5.29697e-22)
(0.73837 -0.426902 -1.14935e-22)
(0.745213 -0.438479 -1.02077e-21)
(0.748347 -0.444449 6.87332e-22)
(0.748099 -0.446012 -1.78893e-23)
(0.74478 -0.444255 -1.97896e-22)
(0.738653 -0.44011 1.81166e-22)
(0.729911 -0.434367 -3.93848e-22)
(0.718619 -0.427778 1.00732e-22)
(0.704582 -0.421257 1.51784e-22)
(0.687263 -0.416042 -7.43147e-23)
(0.665923 -0.413516 1.75116e-23)
(0.640123 -0.414547 -1.27218e-22)
(0.610375 -0.418581 4.88268e-23)
(0.578545 -0.423092 -8.11237e-24)
(0.54767 -0.423882 -1.98938e-22)
(0.521153 -0.41629 1.71847e-22)
(0.501692 -0.396772 -1.5463e-22)
(0.490469 -0.364071 -5.57478e-23)
(0.487088 -0.31934 -1.59651e-22)
(0.49007 -0.26538 2.54119e-22)
(0.497779 -0.205467 -3.49632e-23)
(0.508655 -0.142678 -7.3739e-23)
(0.521888 -0.0793949 -8.24552e-23)
(0.536368 -0.0176788 -6.2411e-23)
(0.55214 0.0410803 -2.72089e-23)
(0.567673 0.0954012 6.01268e-24)
(0.583838 0.144626 -1.44995e-22)
(0.598186 0.187575 7.90462e-24)
(0.612387 0.22468 -7.44353e-23)
(0.624015 0.254726 4.72952e-24)
(0.633301 0.278559 -8.98485e-24)
(0.643128 0.299928 8.16733e-24)
(-0.0704747 0.0828732 9.94919e-21)
(-0.0722382 0.0832182 -4.97173e-21)
(-0.0692534 0.0854447 4.51868e-21)
(-0.0676042 0.084921 -7.61448e-21)
(-0.0649325 0.0824631 3.60504e-21)
(-0.0620316 0.0773984 2.37052e-21)
(-0.058632 0.0695449 7.29667e-21)
(-0.0548743 0.0586236 -3.57808e-21)
(-0.0507323 0.0444879 -2.23212e-21)
(-0.046278 0.0270758 -8.54933e-22)
(-0.0415564 0.0063853 1.99925e-21)
(-0.0365419 -0.0173069 -4.68323e-21)
(-0.0313914 -0.0436573 9.48132e-21)
(-0.0263189 -0.0722461 -7.68488e-21)
(-0.0214629 -0.102467 6.12017e-21)
(-0.0170496 -0.133619 -9.63992e-21)
(-0.0133393 -0.164926 7.4716e-21)
(-0.0106259 -0.19559 -4.51526e-21)
(-0.00918573 -0.224849 -4.332e-22)
(-0.00926243 -0.251961 4.84246e-21)
(-0.0110972 -0.276251 -5.55471e-21)
(-0.0147957 -0.297224 3.79603e-21)
(-0.0202207 -0.314368 -4.22476e-21)
(-0.0271156 -0.327208 5.23181e-21)
(-0.0351444 -0.335297 -2.69832e-21)
(-0.0437447 -0.338326 -1.7514e-21)
(-0.0522509 -0.335759 2.99387e-21)
(-0.0599823 -0.327209 -1.45509e-21)
(-0.0662099 -0.312352 9.51463e-22)
(-0.0702998 -0.290887 1.30341e-21)
(-0.0716758 -0.262808 -1.8062e-21)
(-0.0698787 -0.228207 -9.44094e-22)
(-0.0646469 -0.187481 1.74087e-21)
(-0.0559625 -0.141297 6.87948e-22)
(-0.0438298 -0.0905996 1.26446e-21)
(-0.0288501 -0.0364508 -2.50081e-21)
(-0.0111139 0.0195132 8.65642e-22)
(0.00788007 0.0771292 2.39711e-21)
(0.0275462 0.133643 -2.16601e-21)
(0.0479211 0.188659 -1.3656e-21)
(0.0676366 0.240972 3.8346e-21)
(0.086197 0.289979 -1.27573e-21)
(0.102961 0.33513 8.92109e-22)
(0.117663 0.376107 -2.67204e-21)
(0.130359 0.412622 1.31405e-21)
(0.141549 0.444277 8.91289e-22)
(0.152196 0.470394 -7.5252e-22)
(0.16365 0.489917 -4.20501e-22)
(0.177442 0.501448 -2.87722e-22)
(0.194977 0.503449 -1.18516e-21)
(0.217219 0.49458 1.8016e-21)
(0.244448 0.474091 -7.27825e-22)
(0.276199 0.442064 -2.1376e-22)
(0.311448 0.399399 6.30874e-22)
(0.348945 0.347573 -1.69733e-21)
(0.387531 0.288299 1.6623e-21)
(0.426318 0.223262 7.12113e-22)
(0.46472 0.154018 1.67155e-22)
(0.502372 0.0820351 -2.66309e-21)
(0.539026 0.00883172 6.72979e-22)
(0.574429 -0.0639883 5.42464e-22)
(0.608256 -0.134473 -2.13291e-22)
(0.640043 -0.200593 8.69507e-22)
(0.669194 -0.260369 -2.70948e-21)
(0.695074 -0.312183 1.47157e-21)
(0.717129 -0.35503 7.77776e-22)
(0.734993 -0.388636 -6.47013e-22)
(0.748536 -0.413401 6.05584e-22)
(0.757854 -0.430226 -7.34798e-22)
(0.763207 -0.440292 2.81456e-22)
(0.764941 -0.444861 -4.04272e-22)
(0.763425 -0.44514 4.66603e-23)
(0.758992 -0.442206 8.46934e-22)
(0.751919 -0.436967 -4.87312e-23)
(0.74241 -0.430178 -1.12003e-22)
(0.73056 -0.422516 1.39673e-22)
(0.716248 -0.414767 -5.1857e-23)
(0.699007 -0.408041 -7.01481e-23)
(0.678083 -0.403715 1.08612e-22)
(0.652832 -0.402899 -1.27465e-23)
(0.623388 -0.405531 -5.15986e-25)
(0.591194 -0.409651 -4.32749e-23)
(0.559012 -0.411441 7.00348e-23)
(0.530264 -0.406217 -2.40069e-22)
(0.507989 -0.389987 1.36151e-22)
(0.49387 -0.360815 -1.1855e-22)
(0.487949 -0.319246 1.79915e-22)
(0.488959 -0.267757 6.26305e-23)
(0.495236 -0.209596 -5.28082e-23)
(0.505085 -0.14798 1.57153e-22)
(0.517523 -0.0854562 8.51257e-23)
(0.531352 -0.0241993 1.199e-23)
(0.546537 0.0343497 -6.46575e-23)
(0.561554 0.0886983 -1.26087e-23)
(0.577277 0.13815 8.38419e-24)
(0.591199 0.181625 7.72634e-24)
(0.605148 0.219279 -9.27664e-24)
(0.616392 0.250354 4.41183e-23)
(0.625599 0.274822 -1.18854e-23)
(0.634978 0.297781 -2.62797e-24)
(-0.0410011 0.0820821 -9.7693e-21)
(-0.0423252 0.0821723 5.73756e-23)
(-0.0377443 0.084284 1.3793e-20)
(-0.0348973 0.0837682 1.42607e-22)
(-0.0309436 0.0812594 -5.542e-22)
(-0.0267602 0.07621 7.2076e-21)
(-0.0220639 0.0683798 -1.82562e-20)
(-0.0170017 0.0575065 -5.09225e-21)
(-0.0115531 0.0434297 1.40956e-20)
(-0.00582 0.0260807 -1.70389e-21)
(0.000155176 0.00550975 -5.15334e-21)
(0.00639801 -0.0180435 7.21483e-21)
(0.0126959 -0.0442715 -1.08985e-20)
(0.0188089 -0.0726993 2.13786e-21)
(0.0245722 -0.102717 1.34373e-20)
(0.029727 -0.133603 -3.87541e-21)
(0.0339786 -0.164571 -1.03405e-20)
(0.0369899 -0.194813 7.2017e-21)
(0.0384477 -0.223547 -2.70538e-21)
(0.0380857 -0.250062 -1.39931e-21)
(0.0355993 -0.273765 6.00106e-21)
(0.030831 -0.294159 -1.46013e-22)
(0.0239027 -0.310765 -6.53537e-21)
(0.0150501 -0.323233 1.16777e-21)
(0.00455491 -0.331117 -9.19396e-22)
(-0.00698314 -0.33429 1.56147e-21)
(-0.0188227 -0.332159 -1.17206e-21)
(-0.0302568 -0.324355 3.48348e-21)
(-0.0404567 -0.310605 -1.63353e-21)
(-0.0487202 -0.290491 6.16951e-22)
(-0.0544039 -0.264001 -9.06913e-22)
(-0.0569527 -0.231131 4.71711e-22)
(-0.0560269 -0.192182 -2.96849e-22)
(-0.0515182 -0.147721 4.98872e-22)
(-0.0432985 -0.0985987 -1.34758e-22)
(-0.0319603 -0.0457611 -1.71285e-21)
(-0.0173092 0.00930086 1.46191e-21)
(-0.000931408 0.0659955 -1.90736e-21)
(0.0164715 0.122315 1.80052e-21)
(0.0351969 0.17746 -6.76878e-22)
(0.0538245 0.230279 -2.36174e-21)
(0.0719144 0.280071 3.2518e-21)
(0.0888579 0.32619 -1.34574e-21)
(0.104461 0.368177 -1.98125e-21)
(0.118836 0.405571 1.82539e-21)
(0.132524 0.437796 -1.00702e-21)
(0.146465 0.464015 6.78602e-22)
(0.161904 0.483082 1.34142e-21)
(0.180158 0.493609 2.4004e-22)
(0.20233 0.494192 -2.76089e-21)
(0.229038 0.48373 1.72723e-22)
(0.26026 0.461738 2.31653e-21)
(0.295341 0.428521 -3.02517e-21)
(0.33321 0.385094 1.14036e-21)
(0.372689 0.332928 7.33191e-22)
(0.412747 0.273649 2.10933e-22)
(0.452623 0.208832 -5.51318e-22)
(0.491815 0.139936 -1.25609e-22)
(0.530014 0.0683715 -1.73995e-21)
(0.566962 -0.00437743 -1.27141e-22)
(0.602426 -0.0766594 1.11572e-21)
(0.636079 -0.146496 1.08178e-21)
(0.667412 -0.211792 1.17614e-21)
(0.695816 -0.270521 -1.16206e-21)
(0.72066 -0.321056 8.60825e-22)
(0.741423 -0.362435 -8.02699e-22)
(0.757807 -0.394458 1.7859e-22)
(0.769767 -0.417615 -8.15018e-22)
(0.777484 -0.432882 -2.03775e-22)
(0.78129 -0.44149 4.54734e-22)
(0.781587 -0.444727 -2.75266e-22)
(0.778779 -0.443799 3.39606e-22)
(0.77322 -0.439765 -5.4815e-22)
(0.765196 -0.433512 2.30328e-22)
(0.754913 -0.425763 -8.19282e-23)
(0.742487 -0.41713 -1.5925e-22)
(0.727855 -0.408289 -3.67471e-23)
(0.710635 -0.400202 -4.85365e-23)
(0.690097 -0.394187 2.27857e-22)
(0.665458 -0.391516 -7.87733e-23)
(0.636511 -0.392563 -3.14435e-23)
(0.604263 -0.395952 2.83932e-23)
(0.571123 -0.398334 -1.03123e-22)
(0.540438 -0.395137 1.12864e-22)
(0.515493 -0.38203 -3.22646e-23)
(0.498456 -0.356431 1.44057e-22)
(0.489854 -0.318219 -1.91415e-22)
(0.488717 -0.269446 -1.05831e-22)
(0.493422 -0.21325 4.66403e-24)
(0.502161 -0.152952 -1.12888e-23)
(0.513772 -0.0912674 -9.48011e-23)
(0.526947 -0.0305102 -1.37642e-22)
(0.541554 0.0278096 8.41396e-23)
(0.556061 0.0821659 -5.70314e-23)
(0.571337 0.131835 1.77707e-22)
(0.584821 0.175809 -1.12247e-22)
(0.598501 0.214003 6.89027e-23)
(0.60931 0.246094 -7.57834e-23)
(0.618439 0.271184 2.4895e-23)
(0.627266 0.295757 -8.83196e-27)
(-0.00817216 0.0802111 -7.52204e-21)
(-0.00906952 0.0806969 1.58574e-21)
(-0.00289906 0.0824469 -2.0907e-21)