/*--------------------------------*- C++ -*----------------------------------*\
  =========                 |
  \\      /  F ield         | OpenFOAM: The Open Source CFD Toolbox
   \\    /   O peration     | Website:  https://openfoam.org
    \\  /    A nd           | Version:  7
     \\/     M anipulation  |
\*---------------------------------------------------------------------------*/
FoamFile
{
    version     2.0;
    format      ascii;
    class       volVectorField;
    location    "70";
    object      U;
}
// * * * * * * * * * * * * * * * * * * * * * * * * * * * * * * * * * * * * * //

dimensions      [0 1 -1 0 0 0 0];

internalField   nonuniform List<vector> 
6000
(
(0.0100673 -0.00725001 -1.49216e-21)
(0.053618 -0.0146904 6.60843e-21)
(0.123318 -0.017444 7.20242e-22)
(0.193069 -0.0177041 -4.32751e-21)
(0.259334 -0.0168379 2.96391e-21)
(0.319855 -0.0156242 -9.43569e-21)
(0.374559 -0.0143999 -2.80664e-21)
(0.423998 -0.0132707 2.90557e-21)
(0.468782 -0.0122526 -1.04681e-21)
(0.509469 -0.0113366 8.35282e-21)
(0.546535 -0.0105105 -1.71004e-21)
(0.580393 -0.00976321 1.74999e-22)
(0.611395 -0.0090853 1.93396e-21)
(0.639847 -0.00846855 -4.31908e-21)
(0.666016 -0.00790591 -8.32109e-23)
(0.690131 -0.00739127 3.48953e-21)
(0.712397 -0.00691936 1.31387e-21)
(0.73299 -0.00648555 1.89865e-22)
(0.752065 -0.0060858 2.298e-21)
(0.769763 -0.00571657 1.05451e-21)
(0.786208 -0.00537485 4.44025e-21)
(0.801506 -0.0050581 -2.96128e-21)
(0.815731 -0.00476347 5.26772e-21)
(0.828969 -0.0044871 -2.52676e-21)
(0.841424 -0.00422813 -2.41551e-21)
(0.0108115 -0.0217663 6.81942e-22)
(0.0550812 -0.0440828 1.34237e-20)
(0.125017 -0.052328 9.5591e-21)
(0.194767 -0.0530938 1.7065e-20)
(0.260928 -0.0504848 -1.41415e-20)
(0.321317 -0.0468367 8.65024e-21)
(0.375891 -0.0431576 -1.70807e-21)
(0.425212 -0.0397639 2.35084e-21)
(0.469891 -0.0367029 1.24296e-20)
(0.510483 -0.0339483 1.68811e-21)
(0.547467 -0.0314634 2.01774e-21)
(0.581249 -0.0292152 2.38184e-21)
(0.612184 -0.0271751 -1.20829e-20)
(0.640576 -0.0253187 -5.61456e-21)
(0.66669 -0.0236249 5.05735e-21)
(0.690756 -0.0220755 -1.07477e-20)
(0.712977 -0.0206546 -8.17657e-22)
(0.73353 -0.0193483 -5.35063e-21)
(0.752569 -0.0181446 -7.4523e-21)
(0.770233 -0.0170329 5.26246e-22)
(0.786647 -0.0160041 -1.38384e-20)
(0.801917 -0.0150506 -4.58967e-21)
(0.816119 -0.0141638 4.47667e-21)
(0.829334 -0.0133322 2.72354e-21)
(0.841757 -0.0125536 2.6019e-21)
(0.0122964 -0.036192 -1.69123e-20)
(0.0580021 -0.0733186 -6.05716e-22)
(0.128409 -0.0870484 3.98559e-20)
(0.198157 -0.0883336 -3.32692e-20)
(0.264113 -0.0839993 -3.65408e-21)
(0.324238 -0.0779319 2.19304e-20)
(0.378554 -0.0718104 1.1794e-20)
(0.427638 -0.0661625 1.10682e-20)
(0.472107 -0.0610679 2.2973e-22)
(0.512513 -0.0564828 4.73517e-21)
(0.549329 -0.0523462 5.16878e-21)
(0.582962 -0.0486033 -6.25379e-21)
(0.613762 -0.0452068 2.46473e-20)
(0.642034 -0.0421159 2.2252e-20)
(0.668039 -0.0392955 -1.73148e-20)
(0.692007 -0.0367154 2.71202e-20)
(0.714139 -0.0343491 5.24726e-21)
(0.73461 -0.0321738 -2.44484e-20)
(0.753576 -0.0301692 -2.55223e-21)
(0.771173 -0.0283176 5.06807e-21)
(0.787525 -0.0266042 7.3454e-21)
(0.80274 -0.0250162 -3.32554e-21)
(0.816894 -0.0235391 -2.24821e-20)
(0.830064 -0.0221539 3.72088e-21)
(0.842424 -0.0208583 -3.76567e-22)
(0.0145134 -0.0504673 1.35855e-20)
(0.0623669 -0.102294 -4.73962e-20)
(0.133481 -0.121497 -6.48871e-20)
(0.20323 -0.123324 2.71398e-20)
(0.268878 -0.117293 4.14516e-21)
(0.32861 -0.108832 -5.93949e-20)
(0.382539 -0.100289 -3.55627e-21)
(0.431271 -0.0924042 -4.54223e-21)
(0.475425 -0.085291 -2.30792e-20)
(0.51555 -0.0788886 4.2214e-20)
(0.552116 -0.0731123 1.13535e-20)
(0.585525 -0.0678854 -6.58267e-21)
(0.616125 -0.0631418 6.18764e-21)
(0.644216 -0.0588248 -1.93643e-20)
(0.670058 -0.0548855 8.2139e-21)
(0.693879 -0.0512815 -3.80728e-20)
(0.715877 -0.0479761 -9.49443e-21)
(0.736228 -0.0449371 1.18845e-21)
(0.755084 -0.0421366 -1.32136e-20)
(0.772581 -0.0395498 1.22584e-20)
(0.788841 -0.0371559 4.21984e-21)
(0.803972 -0.0349371 5.39986e-21)
(0.818055 -0.0328727 7.95147e-21)
(0.831159 -0.0309369 -9.74121e-21)
(0.843423 -0.0291287 -1.389e-20)
(0.0174499 -0.0645331 -2.7393e-20)
(0.068155 -0.130907 4.16558e-20)
(0.140212 -0.155566 -1.74522e-20)
(0.209965 -0.157967 -2.44798e-20)
(0.275208 -0.15028 8.26618e-20)
(0.334418 -0.13946 1.85328e-20)
(0.387834 -0.128524 -2.31534e-20)
(0.436098 -0.118427 2.13154e-21)
(0.479835 -0.109316 -4.13943e-20)
(0.519588 -0.101115 -3.23021e-21)
(0.555821 -0.0937155 -2.50718e-20)
(0.588933 -0.0870192 -2.34947e-20)
(0.619266 -0.0809418 -4.39714e-20)
(0.647116 -0.0754105 2.05809e-20)
(0.672742 -0.0703629 -6.12464e-21)
(0.696368 -0.0657445 7.63158e-21)
(0.718189 -0.0615085 2.02608e-20)
(0.738379 -0.0576137 7.76158e-21)
(0.757089 -0.0540242 -3.41433e-21)
(0.774453 -0.0507085 1.65355e-20)
(0.79059 -0.04764 -1.15291e-20)
(0.805611 -0.0447954 -2.01663e-20)
(0.819599 -0.0421482 6.4442e-21)
(0.832614 -0.0396659 2.17149e-20)
(0.844752 -0.0373515 5.82862e-21)
(0.0210888 -0.0783312 4.88524e-20)
(0.075339 -0.159057 7.1739e-21)
(0.148576 -0.189151 4.51098e-20)
(0.21834 -0.192165 1.90397e-20)
(0.283082 -0.182873 -6.84584e-20)
(0.341645 -0.169739 4.51944e-21)
(0.394423 -0.156447 5.34957e-20)
(0.442106 -0.144169 -4.3502e-20)
(0.485323 -0.133088 2.00726e-20)
(0.524613 -0.123112 -6.71915e-20)
(0.560433 -0.11411 3.36881e-20)
(0.593175 -0.105963 5.54292e-20)
(0.623176 -0.0985691 -9.93889e-21)
(0.650728 -0.0918387 3.73877e-21)
(0.676085 -0.0856962 2.09081e-20)
(0.699467 -0.0800757 2.26094e-20)
(0.721068 -0.07492 1.62264e-20)
(0.741059 -0.0701793 -1.53814e-20)
(0.759587 -0.0658098 -9.74401e-23)
(0.776785 -0.0617733 -7.99891e-21)
(0.79277 -0.0580374 1.93825e-20)
(0.807652 -0.0545738 -8.84524e-21)
(0.821523 -0.0513493 -1.67802e-20)
(0.834427 -0.0483258 -2.73259e-20)
(0.846409 -0.0455134 1.30561e-20)
(0.0254092 -0.0918048 -1.42752e-19)
(0.083885 -0.186643 3.43745e-20)
(0.158537 -0.222145 4.06488e-20)
(0.228324 -0.225822 1.82948e-20)
(0.292474 -0.214987 5.2724e-20)
(0.350269 -0.199595 -2.54107e-20)
(0.402287 -0.183992 -3.91568e-20)
(0.449276 -0.16957 4.00183e-20)
(0.491874 -0.156551 -2.78536e-20)
(0.530612 -0.144829 5.16234e-20)
(0.565939 -0.134251 5.29028e-21)
(0.59824 -0.124677 1.97581e-20)
(0.627845 -0.115986 4.03351e-20)
(0.655041 -0.108075 4.30561e-20)
(0.680076 -0.100854 1.28026e-20)
(0.703169 -0.0942465 -2.42016e-20)
(0.724507 -0.0881845 1.35475e-20)
(0.744259 -0.0826099 3.21505e-20)
(0.762571 -0.0774712 3.20994e-20)
(0.779571 -0.0727237 -3.09698e-20)
(0.795374 -0.0683296 2.51002e-20)
(0.810091 -0.0642549 5.89101e-21)
(0.82382 -0.0604598 3.60826e-20)
(0.836594 -0.0569017 5.39278e-20)
(0.848392 -0.0536008 -2.06781e-20)
(0.0303861 -0.104899 1.70494e-20)
(0.0937522 -0.213569 -9.67353e-20)
(0.170055 -0.254447 -4.99655e-20)
(0.239881 -0.258843 -3.34112e-20)
(0.303354 -0.24654 -7.00229e-20)
(0.360262 -0.228954 4.02422e-20)
(0.411402 -0.211093 2.95925e-21)
(0.457588 -0.194571 5.44265e-20)
(0.499468 -0.179653 5.40723e-20)
(0.537567 -0.166219 -3.30432e-20)
(0.572323 -0.154095 -4.61706e-20)
(0.604113 -0.14312 3.75251e-20)
(0.63326 -0.133157 2.25834e-20)
(0.660043 -0.124087 -1.18265e-19)
(0.684707 -0.115807 -4.80786e-21)
(0.707463 -0.108229 -1.13053e-20)
(0.728497 -0.101276 -9.04428e-21)
(0.747973 -0.0948819 -1.13266e-20)
(0.766033 -0.0889868 1.38704e-20)
(0.782804 -0.0835399 -4.79282e-21)
(0.798396 -0.078498 6.56235e-21)
(0.812922 -0.0738218 -9.7914e-21)
(0.826487 -0.0694641 -1.70488e-20)
(0.83911 -0.0653788 -8.94109e-20)
(0.850697 -0.0616004 1.72114e-20)
(0.0359907 -0.117559 1.17574e-19)
(0.104894 -0.23974 6.89617e-20)
(0.183084 -0.285957 1.04919e-19)
(0.25297 -0.291136 -3.26535e-20)
(0.315687 -0.277448 1.15738e-19)
(0.371595 -0.257743 -8.52999e-21)
(0.42174 -0.237685 -8.30227e-20)
(0.467018 -0.219114 1.84429e-20)
(0.508085 -0.202341 -7.08892e-21)
(0.545458 -0.187234 5.79166e-20)
(0.579568 -0.173598 3.36e-20)
(0.610778 -0.161254 -7.00046e-20)
(0.639405 -0.150046 -3.73155e-20)
(0.665721 -0.139841 5.70658e-20)
(0.689963 -0.130524 -1.44295e-20)
(0.712339 -0.121996 3.34773e-20)
(0.733028 -0.114171 7.00515e-21)
(0.75219 -0.106972 2.51e-20)
(0.769966 -0.100335 -5.32209e-20)
(0.786476 -0.0942024 -7.55154e-21)
(0.801829 -0.0885247 1.88807e-20)
(0.816138 -0.0832576 -3.69903e-20)
(0.829517 -0.0783467 2.69813e-20)
(0.841968 -0.0737426 5.96426e-20)
(0.853319 -0.0694988 -3.09066e-21)
(0.0421903 -0.129735 -4.78611e-20)
(0.117256 -0.265063 -8.62841e-21)
(0.197569 -0.316576 -7.92416e-20)
(0.267545 -0.322612 -3.33778e-20)
(0.329431 -0.307634 -1.18225e-19)
(0.384231 -0.285891 9.349e-20)
(0.433271 -0.263705 2.84083e-20)
(0.477536 -0.243143 -6.3044e-20)
(0.517697 -0.224563 6.20898e-20)
(0.554263 -0.207827 4.98186e-21)
(0.587652 -0.192719 1.44803e-20)
(0.618217 -0.179039 2.5319e-20)
(0.646265 -0.166617 -3.10798e-20)
(0.67206 -0.155305 2.36491e-20)
(0.695832 -0.144976 1.14491e-20)
(0.717783 -0.135521 -6.19653e-21)
(0.738087 -0.126843 -1.48599e-20)
(0.756901 -0.118859 -4.9352e-20)
(0.774359 -0.111496 4.34753e-20)
(0.790579 -0.104692 9.01623e-21)
(0.805666 -0.098392 -5.04283e-20)
(0.819732 -0.0925464 -3.42667e-20)
(0.832902 -0.0870924 2.43578e-20)
(0.845163 -0.0819788 3.11873e-20)
(0.856255 -0.0772828 -2.38854e-20)
(0.0489487 -0.141377 3.85117e-20)
(0.130779 -0.289452 -1.94282e-20)
(0.213452 -0.346211 2.45313e-21)
(0.283551 -0.353182 -5.11683e-20)
(0.344542 -0.337018 1.24479e-19)
(0.398132 -0.313332 -1.92847e-19)
(0.445959 -0.289092 -4.59776e-20)
(0.489112 -0.266602 -1.77304e-21)
(0.528278 -0.246272 -1.11354e-19)
(0.563957 -0.227954 -1.84135e-20)
(0.596553 -0.211416 -3.23672e-20)
(0.626409 -0.19644 9.27953e-20)
(0.65382 -0.182838 2.98964e-20)
(0.679042 -0.17045 -9.73677e-20)
(0.702298 -0.159136 1.30902e-20)
(0.723782 -0.148777 -1.44681e-20)
(0.743663 -0.139269 4.04258e-21)
(0.762093 -0.13052 1.08514e-19)
(0.779202 -0.12245 -3.19806e-20)
(0.795103 -0.11499 -2.3447e-20)
(0.809896 -0.108083 -1.43247e-20)
(0.823696 -0.101672 4.67788e-20)
(0.836634 -0.0956866 7.87838e-21)
(0.848687 -0.0900737 -3.12548e-20)
(0.859499 -0.0849394 2.53445e-20)
(0.0562261 -0.152438 -4.97152e-20)
(0.145399 -0.31282 -3.23096e-20)
(0.230665 -0.374771 1.06094e-19)
(0.300931 -0.382762 6.73452e-20)
(0.36097 -0.365526 5.66765e-21)
(0.413254 -0.339998 7.52161e-20)
(0.459768 -0.313788 8.8894e-20)
(0.501713 -0.28944 3.11366e-21)
(0.539797 -0.267418 1.20014e-19)
(0.574511 -0.247572 -9.63428e-21)
(0.606246 -0.229651 -4.08721e-20)
(0.635331 -0.213419 -7.9121e-20)
(0.66205 -0.198675 2.22312e-20)
(0.686649 -0.185244 6.70224e-20)
(0.709344 -0.172976 3.32514e-20)
(0.73032 -0.161741 4.29312e-20)
(0.749741 -0.151426 5.84512e-20)
(0.767753 -0.141934 -1.07581e-19)
(0.784482 -0.133176 1.26506e-20)
(0.800037 -0.125079 6.19617e-20)
(0.814511 -0.117581 -1.07176e-20)
(0.828019 -0.11062 -1.1139e-20)
(0.840705 -0.104115 -2.41773e-21)
(0.852532 -0.0980137 -1.51432e-21)
(0.863045 -0.0924557 -2.18354e-20)
(0.0639797 -0.162875 -1.55328e-20)
(0.161043 -0.335087 -2.1284e-20)
(0.249138 -0.402167 -8.31721e-20)
(0.319621 -0.41127 -1.42828e-19)
(0.378661 -0.393087 -8.93527e-20)
(0.429551 -0.365826 -1.90627e-20)
(0.474654 -0.337736 -3.81432e-20)
(0.5153 -0.311604 -1.33057e-20)
(0.55222 -0.287956 -9.51509e-20)
(0.585896 -0.266639 3.4775e-21)
(0.616703 -0.247385 -2.52922e-20)
(0.644958 -0.229944 -5.65248e-20)
(0.670932 -0.214098 2.49947e-20)
(0.694861 -0.19966 -8.88717e-20)
(0.71695 -0.18647 -5.1514e-20)
(0.73738 -0.174388 -5.03727e-20)
(0.756306 -0.163293 -1.1467e-19)
(0.773868 -0.15308 4.72284e-20)
(0.790188 -0.143656 5.71715e-20)
(0.805369 -0.134942 -4.48383e-21)
(0.819499 -0.12687 -5.54805e-20)
(0.832693 -0.119374 3.99411e-20)
(0.845106 -0.112365 1.64256e-20)
(0.85669 -0.105786 8.52155e-22)
(0.866887 -0.0998194 2.09375e-20)
(0.0721633 -0.172648 6.27371e-20)
(0.177635 -0.356176 1.13098e-19)
(0.268793 -0.428317 -1.68081e-20)
(0.339554 -0.438629 1.30376e-19)
(0.397555 -0.41963 -1.27206e-20)
(0.446972 -0.390756 -2.65958e-21)
(0.490575 -0.360883 1.54937e-19)
(0.529835 -0.333047 -3.04449e-20)
(0.565511 -0.307842 -6.39028e-20)
(0.598079 -0.285115 5.69496e-21)
(0.627896 -0.264583 6.0708e-20)
(0.655264 -0.245981 3.01768e-20)
(0.680442 -0.229076 -3.23383e-20)
(0.703655 -0.21367 -4.09212e-21)
(0.725098 -0.199592 -5.16396e-20)
(0.744944 -0.186695 7.09207e-20)
(0.76334 -0.174848 5.5846e-20)
(0.780422 -0.163941 1.09565e-20)
(0.796305 -0.153873 -1.09667e-20)
(0.811087 -0.144561 9.49639e-21)
(0.824849 -0.135935 3.96588e-20)
(0.837707 -0.127922 -2.32774e-20)
(0.849826 -0.120422 2.94298e-20)
(0.861152 -0.113378 -3.18066e-20)
(0.871018 -0.107018 -3.24155e-20)
(0.0807282 -0.181718 -1.521e-20)
(0.195093 -0.376015 -1.9376e-19)
(0.289546 -0.453141 1.19272e-19)
(0.360655 -0.464764 6.11781e-20)
(0.41759 -0.445089 7.55087e-20)
(0.465463 -0.414728 6.30552e-20)
(0.507481 -0.383176 -9.80285e-20)
(0.545274 -0.353723 6.60816e-21)
(0.579633 -0.327035 3.89824e-20)
(0.611025 -0.302963 -4.77682e-20)
(0.639792 -0.281211 -6.81643e-21)
(0.66622 -0.261498 -6.11568e-21)
(0.690554 -0.24358 1.3705e-20)
(0.713008 -0.227248 8.02102e-20)
(0.733767 -0.21232 6.38396e-20)
(0.752992 -0.19864 -4.7634e-20)
(0.770828 -0.186071 4.38926e-20)
(0.787399 -0.174496 -6.23387e-21)
(0.802818 -0.163809 -3.65278e-20)
(0.817176 -0.153922 1.44686e-20)
(0.830549 -0.144761 -2.33458e-20)
(0.843049 -0.136249 1.0016e-20)
(0.854854 -0.128274 1.58283e-20)
(0.865908 -0.120778 3.15236e-20)
(0.875431 -0.11404 6.69502e-20)
(0.0896226 -0.190052 1.0029e-19)
(0.21333 -0.394539 5.18879e-20)
(0.31131 -0.476565 -1.49126e-19)
(0.382845 -0.489604 -5.37659e-20)
(0.4387 -0.469403 -2.39949e-20)
(0.484965 -0.437689 -3.51428e-20)
(0.525322 -0.404567 -3.84485e-20)
(0.561572 -0.373588 1.02451e-19)
(0.594544 -0.345495 -3.69583e-20)
(0.624698 -0.320146 1.12321e-19)
(0.65236 -0.297236 -6.23976e-21)
(0.677797 -0.276467 6.54777e-20)
(0.701242 -0.257585 -9.01261e-20)
(0.722896 -0.240369 -2.1514e-20)
(0.742932 -0.22463 1.00159e-20)
(0.761505 -0.210202 1.31648e-20)
(0.778749 -0.196943 -4.76698e-20)
(0.794782 -0.184729 1.14302e-20)
(0.809712 -0.173449 -6.23063e-20)
(0.823623 -0.16301 -2.13103e-20)
(0.836585 -0.153335 3.05003e-20)
(0.848707 -0.144343 2.58521e-20)
(0.860181 -0.135909 -6.55513e-20)
(0.870948 -0.127974 1.40622e-20)
(0.880117 -0.120874 -7.90065e-20)
(0.0987929 -0.19762 -1.18858e-19)
(0.232254 -0.411683 -1.68432e-20)
(0.33399 -0.498518 -6.08419e-20)
(0.406043 -0.513083 -8.02855e-20)
(0.460812 -0.492512 -6.52401e-22)
(0.505418 -0.459586 7.87597e-20)
(0.544045 -0.42501 2.649e-20)
(0.578682 -0.392602 -4.26497e-20)
(0.610202 -0.363185 -5.32013e-21)
(0.63906 -0.336633 -8.54047e-20)
(0.665563 -0.312627 -5.63717e-20)
(0.689963 -0.29086 -6.53134e-20)
(0.712477 -0.271065 4.45945e-20)
(0.733292 -0.253011 -7.79164e-20)
(0.752572 -0.236501 2.44719e-20)
(0.77046 -0.221363 -2.40392e-20)
(0.787084 -0.207447 -5.69666e-20)
(0.802554 -0.194623 5.04492e-20)
(0.81697 -0.182776 1.92456e-20)
(0.830414 -0.171809 1.24931e-20)
(0.842945 -0.161643 7.47951e-21)
(0.85467 -0.152191 -4.01956e-20)
(0.865794 -0.143317 4.26221e-20)
(0.876262 -0.134956 -5.22129e-20)
(0.885068 -0.127508 -9.4805e-21)
(0.108183 -0.204394 1.02287e-20)
(0.25177 -0.427394 1.24331e-20)
(0.357488 -0.518937 1.51507e-19)
(0.430161 -0.535139 -1.57153e-20)
(0.483854 -0.514361 -2.75873e-20)
(0.526759 -0.480371 -4.50477e-20)
(0.563594 -0.444464 -1.25904e-20)
(0.596553 -0.410725 5.18754e-20)
(0.626562 -0.380072 -1.09414e-19)
(0.654069 -0.352391 1.01782e-19)
(0.679365 -0.327357 1.41868e-19)
(0.702685 -0.304651 3.10708e-21)
(0.724228 -0.283995 -1.1167e-21)
(0.744169 -0.265152 -1.06468e-20)
(0.762661 -0.247914 -5.36347e-20)
(0.779836 -0.232103 1.88349e-20)
(0.795812 -0.217564 7.67349e-20)
(0.810694 -0.204162 -6.41889e-20)
(0.824576 -0.191777 -2.55017e-20)
(0.837531 -0.180308 2.65788e-20)
(0.849613 -0.169674 4.35116e-20)
(0.860923 -0.159784 3.84905e-20)
(0.871681 -0.150488 8.48353e-23)
(0.881838 -0.141713 -8.46519e-20)
(0.890276 -0.133933 9.32491e-20)
(0.117734 -0.210353 3.5387e-20)
(0.271777 -0.44162 4.96611e-20)
(0.381702 -0.537762 -7.97049e-20)
(0.455106 -0.555715 1.56276e-19)
(0.507746 -0.534898 2.47487e-20)
(0.54892 -0.5 4.03558e-20)
(0.58391 -0.462888 -7.9839e-21)
(0.615135 -0.427924 2.30026e-20)
(0.643577 -0.396124 2.39261e-19)
(0.669684 -0.367392 -6.52609e-20)
(0.693729 -0.341399 -1.28352e-19)
(0.715928 -0.317816 -1.6742e-20)
(0.736465 -0.296355 -4.17743e-20)
(0.755499 -0.276771 2.22596e-20)
(0.773173 -0.25885 9.27134e-20)
(0.789608 -0.242406 6.53878e-20)
(0.804913 -0.227281 -7.79737e-20)
(0.819185 -0.213333 -3.97411e-22)
(0.832511 -0.200439 6.64184e-20)
(0.844959 -0.188494 -4.76765e-20)
(0.856575 -0.177415 4.91163e-20)
(0.867455 -0.167109 1.00715e-20)
(0.87783 -0.15741 1.50709e-20)
(0.887665 -0.148237 4.64184e-20)
(0.895731 -0.140137 4.07384e-20)
(0.127388 -0.215478 -3.19651e-20)
(0.292172 -0.454318 -8.53626e-20)
(0.406523 -0.554939 9.30476e-20)
(0.480783 -0.574758 -1.15298e-19)
(0.532407 -0.554077 -1.1472e-19)
(0.571831 -0.518432 -5.20772e-20)
(0.604933 -0.480246 5.2524e-20)
(0.634372 -0.444166 -6.72501e-20)
(0.661199 -0.411311 -1.54049e-19)
(0.685862 -0.38161 7.3986e-20)
(0.708615 -0.35473 -1.42368e-20)
(0.729657 -0.330333 8.30291e-20)
(0.749154 -0.308125 1.50968e-20)
(0.767253 -0.287851 9.85149e-20)
(0.784081 -0.269292 -1.02278e-19)
(0.799752 -0.252257 1.00141e-20)
(0.814363 -0.236582 1.50215e-20)
(0.828005 -0.222122 1.45984e-20)
(0.840757 -0.20875 -2.68487e-20)
(0.852681 -0.196356 4.22622e-20)
(0.863815 -0.184858 -3.58795e-20)
(0.87425 -0.174158 -8.4279e-21)
(0.884228 -0.164077 6.65115e-21)
(0.893733 -0.154519 2.91848e-20)
(0.901424 -0.146112 -3.58478e-20)
(0.137084 -0.219755 -5.36955e-21)
(0.312847 -0.46545 1.10157e-19)
(0.431841 -0.570422 -1.91667e-20)
(0.507093 -0.59222 9.61673e-20)
(0.557752 -0.571854 5.13903e-20)
(0.595421 -0.535629 -3.64464e-20)
(0.6266 -0.496508 1.33755e-20)
(0.65421 -0.459424 1.62474e-20)
(0.679378 -0.425609 5.11114e-20)
(0.702556 -0.395022 -5.60312e-20)
(0.723982 -0.367328 1.34174e-19)
(0.743835 -0.342184 -6.67577e-20)
(0.762263 -0.319286 -1.04117e-19)
(0.7794 -0.298375 -1.5997e-21)
(0.795359 -0.279225 -2.3103e-20)
(0.810243 -0.261642 -3.62592e-20)
(0.82414 -0.245456 -1.36049e-20)
(0.837133 -0.230518 -3.2578e-20)
(0.849294 -0.216698 2.36404e-20)
(0.86068 -0.203884 -1.12631e-19)
(0.871319 -0.191992 -1.22229e-19)
(0.881294 -0.180922 -7.91351e-20)
(0.890863 -0.17048 -4.6145e-20)
(0.900029 -0.160551 -7.21491e-20)
(0.907346 -0.151848 2.76604e-20)
(0.14676 -0.223174 -5.92479e-21)
(0.333693 -0.474985 -5.85738e-20)
(0.45754 -0.584168 -1.05823e-19)
(0.533933 -0.60806 -2.06366e-20)
(0.583695 -0.588192 -7.0058e-20)
(0.619615 -0.551558 1.12931e-19)
(0.648845 -0.511643 -6.82775e-20)
(0.67459 -0.473671 2.35956e-20)
(0.698063 -0.438995 -1.73199e-19)
(0.719722 -0.407607 1.07804e-19)
(0.739789 -0.379175 -3.12655e-20)
(0.758424 -0.35335 5.01628e-20)
(0.775758 -0.329824 1.33492e-19)
(0.791909 -0.308329 8.33044e-20)
(0.806977 -0.288637 3.39021e-20)
(0.821055 -0.270548 -1.065e-20)
(0.834221 -0.253889 -1.14099e-20)
(0.846548 -0.23851 1.71921e-20)
(0.858104 -0.224274 3.14391e-20)
(0.868936 -0.211069 9.93608e-20)
(0.879068 -0.198809 7.70862e-20)
(0.888573 -0.187395 5.072e-20)
(0.897721 -0.176613 2.75146e-20)
(0.906542 -0.166327 -6.05021e-20)
(0.913489 -0.157337 7.48577e-20)
(0.156353 -0.22573 -3.91705e-20)
(0.354598 -0.482899 -1.69697e-20)
(0.483502 -0.596143 3.43028e-20)
(0.561195 -0.62224 2.75367e-20)
(0.610143 -0.603057 4.4662e-20)
(0.644336 -0.56619 -4.09911e-20)
(0.671604 -0.525627 3.11615e-21)
(0.695455 -0.486885 -5.23883e-20)
(0.717202 -0.451448 1.06786e-19)
(0.737312 -0.419346 -1.12435e-19)
(0.755993 -0.390254 -1.63159e-20)
(0.773386 -0.363817 -2.85525e-21)
(0.789604 -0.339722 -7.98581e-20)
(0.804748 -0.317699 -5.1244e-20)
(0.818908 -0.297514 -1.49039e-20)
(0.832162 -0.278964 -2.69326e-20)
(0.844581 -0.261873 6.16944e-20)
(0.856229 -0.246087 -1.44534e-20)
(0.867165 -0.231469 7.44923e-20)
(0.877433 -0.217902 -1.1168e-19)
(0.887047 -0.205302 -1.15823e-21)
(0.896071 -0.193569 6.17869e-22)
(0.904789 -0.182472 2.16669e-20)
(0.913262 -0.171842 7.13952e-20)
(0.919845 -0.162571 3.81275e-20)
(0.165802 -0.227423 8.55169e-20)
(0.375446 -0.489175 1.77217e-20)
(0.509605 -0.606318 -4.58536e-21)
(0.588771 -0.634729 -2.49637e-20)
(0.637005 -0.616419 -1.78896e-20)
(0.669505 -0.579501 1.42582e-20)
(0.694808 -0.538438 1.29465e-20)
(0.716745 -0.499048 -7.51968e-20)
(0.73674 -0.462952 1.77756e-20)
(0.755278 -0.430226 1.92765e-20)
(0.772552 -0.400551 -3.20088e-20)
(0.788681 -0.373572 -2.38411e-20)
(0.803764 -0.348972 2.68771e-20)
(0.817886 -0.326476 1.00587e-19)
(0.831121 -0.305847 -1.60389e-20)
(0.843538 -0.286881 3.64378e-21)
(0.855196 -0.269398 1.00872e-20)
(0.866152 -0.253243 -1.55598e-20)
(0.876458 -0.238276 -1.17314e-19)
(0.886152 -0.224378 2.38814e-20)
(0.895238 -0.211464 4.63323e-20)
(0.903773 -0.199438 4.61415e-21)
(0.912052 -0.188051 -5.03812e-20)
(0.92018 -0.177093 -4.11912e-20)
(0.92641 -0.167544 -1.24807e-20)
(0.175043 -0.228256 -3.38943e-20)
(0.396122 -0.493803 3.10473e-20)
(0.535725 -0.614671 7.28437e-22)
(0.616547 -0.645501 -1.82206e-20)
(0.664184 -0.628254 -4.23676e-20)
(0.695043 -0.59147 -2.3759e-20)
(0.718387 -0.55006 2.93728e-20)
(0.738399 -0.510146 -1.5096e-21)
(0.756625 -0.473494 -5.25716e-20)
(0.773571 -0.440233 6.29271e-20)
(0.789419 -0.410055 -1.64313e-20)
(0.804271 -0.382604 5.49988e-20)
(0.818204 -0.357561 -7.95016e-20)
(0.831288 -0.334648 -4.68442e-20)
(0.843587 -0.313627 3.13427e-20)
(0.855154 -0.29429 4.57313e-21)
(0.866041 -0.276457 3.44425e-20)
(0.876295 -0.259971 -2.92644e-20)
(0.885961 -0.244688 -1.34875e-20)
(0.895072 -0.23049 -2.49167e-20)
(0.903623 -0.217292 8.76024e-20)
(0.911661 -0.205 -6.73019e-20)
(0.919497 -0.19335 9.62728e-20)
(0.927285 -0.182081 -4.52638e-20)
(0.933183 -0.172253 -2.66533e-20)
(0.184014 -0.228238 2.00801e-20)
(0.416508 -0.49678 -5.31304e-20)
(0.561736 -0.621188 1.49562e-20)
(0.64441 -0.654536 7.5914e-20)
(0.691583 -0.638543 -3.14721e-20)
(0.720866 -0.602079 3.68253e-20)
(0.742273 -0.560478 3.43186e-20)
(0.760355 -0.520166 4.30262e-20)
(0.7768 -0.483064 -4.0468e-20)
(0.792142 -0.449358 -5.48926e-20)
(0.806553 -0.418757 4.62783e-20)
(0.820114 -0.390906 -4.00292e-20)
(0.832886 -0.365483 -4.17518e-21)
(0.844924 -0.342211 1.64024e-20)
(0.856275 -0.320848 -4.89422e-20)
(0.866984 -0.301186 7.39644e-20)
(0.877091 -0.283045 -4.23332e-20)
(0.886634 -0.266264 2.90928e-20)
(0.895653 -0.250701 1.28831e-20)
(0.904175 -0.236233 -1.05591e-19)
(0.912186 -0.222778 -1.07537e-19)
(0.919717 -0.210249 -2.01177e-20)
(0.927104 -0.198364 4.79918e-20)
(0.934569 -0.186806 2.83203e-20)
(0.940168 -0.176695 -1.19751e-20)
(0.192655 -0.227383 -2.32724e-20)
(0.436488 -0.498112 4.11511e-20)
(0.587509 -0.625861 -1.55185e-20)
(0.672241 -0.66182 -4.79446e-20)
(0.719102 -0.647272 4.5001e-20)
(0.746892 -0.611318 -3.64293e-20)
(0.766393 -0.569683 4.54888e-20)
(0.782553 -0.529101 -6.6173e-22)
(0.797212 -0.491655 2.92975e-20)
(0.810943 -0.457596 3.3622e-20)
(0.823908 -0.426652 -9.22901e-21)
(0.836171 -0.398471 6.31331e-20)
(0.847775 -0.372733 -4.50885e-20)
(0.858758 -0.349158 4.59169e-22)
(0.869156 -0.327505 1.0978e-20)
(0.879 -0.307564 2.5247e-21)
(0.888321 -0.289155 -4.98518e-21)
(0.897148 -0.272118 -7.7886e-20)
(0.905513 -0.256309 1.16297e-19)
(0.913441 -0.241605 -4.81658e-20)
(0.920909 -0.227922 1.12352e-19)
(0.927929 -0.215185 3.72323e-21)
(0.934856 -0.203105 -5.37358e-21)
(0.942023 -0.191293 -3.23625e-20)
(0.947389 -0.180894 -2.40335e-20)
(0.200906 -0.225709 -1.74421e-21)
(0.455944 -0.49781 -1.35541e-20)
(0.612914 -0.628688 3.69699e-20)
(0.69992 -0.667345 7.75949e-21)
(0.74664 -0.654431 1.47775e-20)
(0.773036 -0.619178 1.35718e-20)
(0.790676 -0.57767 -1.23246e-19)
(0.804928 -0.536947 4.95309e-20)
(0.817805 -0.499263 9.92513e-21)
(0.829922 -0.464943 -2.97021e-20)
(0.841438 -0.433736 6.41094e-21)
(0.8524 -0.405297 -2.28252e-20)
(0.862833 -0.379307 1.42939e-20)
(0.872759 -0.355486 7.64136e-22)
(0.882199 -0.333594 2.73401e-20)
(0.891174 -0.313421 -8.85304e-21)
(0.899705 -0.294786 -1.93211e-20)
(0.907811 -0.27753 2.2649e-20)
(0.915519 -0.26151 -3.51917e-20)
(0.92285 -0.2466 3.91113e-20)
(0.929775 -0.232718 -2.25203e-20)
(0.936275 -0.219794 -3.07091e-20)
(0.942713 -0.207537 -2.33922e-21)
(0.949598 -0.195492 6.45134e-21)
(0.954864 -0.184826 4.2016e-20)
(0.208707 -0.223238 5.76518e-21)
(0.474757 -0.495896 -7.22189e-21)
(0.637821 -0.629677 -1.84372e-20)
(0.727327 -0.671109 -3.51058e-21)
(0.774094 -0.660016 -6.83499e-21)
(0.799213 -0.625656 5.98764e-21)
(0.81505 -0.584437 5.34699e-20)
(0.82742 -0.543702 1.08723e-20)
(0.838524 -0.505888 -1.34553e-20)
(0.849032 -0.471398 1.23521e-20)
(0.859101 -0.440008 -7.43387e-20)
(0.868762 -0.411383 8.15517e-21)
(0.878024 -0.385204 -3.67502e-20)
(0.886892 -0.361194 -6.18074e-20)
(0.895374 -0.339114 3.49951e-20)
(0.903479 -0.318754 -1.32323e-20)
(0.911218 -0.299935 -3.07781e-20)
(0.918602 -0.282498 1.02664e-20)
(0.925648 -0.266302 7.87909e-20)
(0.932379 -0.25122 3.92806e-22)
(0.938767 -0.237171 -2.96835e-20)
(0.944754 -0.224098 2.57309e-20)
(0.950672 -0.211739 -2.83319e-20)
(0.957265 -0.199619 2.38647e-20)
(0.962698 -0.188876 2.72654e-20)
(0.216005 -0.219997 -8.09358e-22)
(0.492813 -0.492396 1.68781e-22)
(0.662096 -0.62884 4.1639e-22)
(0.754339 -0.673117 1.15883e-20)
(0.801358 -0.664027 -1.32527e-20)
(0.825334 -0.630753 -7.79994e-22)
(0.839442 -0.589987 2.12298e-20)
(0.849965 -0.549371 -3.18284e-20)
(0.859313 -0.511534 1.76289e-20)
(0.868221 -0.476964 3.73613e-20)
(0.876851 -0.445472 1.04774e-19)
(0.885217 -0.41673 -4.03339e-20)
(0.893311 -0.390426 7.21901e-20)
(0.901124 -0.366283 4.03252e-21)
(0.90865 -0.344065 9.72314e-21)
(0.915888 -0.323564 -9.69475e-21)
(0.922836 -0.304601 2.46947e-20)
(0.929497 -0.287021 8.59745e-21)
(0.935882 -0.270682 -3.41495e-20)
(0.942011 -0.25546 3.67674e-20)
(0.947867 -0.241266 4.12749e-20)
(0.953368 -0.228042 -5.99589e-20)
(0.958717 -0.215515 3.9823e-20)
(0.96479 -0.203135 3.8005e-21)
(0.97071 -0.191998 9.38514e-21)
(0.222747 -0.216019 -8.83117e-21)
(0.509993 -0.487345 -5.56967e-21)
(0.685609 -0.626201 3.71354e-21)
(0.780831 -0.673379 -4.38574e-21)
(0.828328 -0.66647 2.07094e-20)
(0.851315 -0.634474 3.95033e-20)
(0.86378 -0.594324 -1.94508e-20)
(0.872501 -0.553959 2.60362e-20)
(0.880119 -0.516205 -2.4987e-20)
(0.887443 -0.481647 2.32026e-20)
(0.894644 -0.450131 -5.87866e-20)
(0.901724 -0.421343 9.00057e-21)
(0.908659 -0.394975 -3.26761e-20)
(0.915424 -0.370755 -4.26543e-20)
(0.921999 -0.348449 4.85554e-20)
(0.928372 -0.327852 4.82368e-20)
(0.934533 -0.308787 -2.32622e-21)
(0.940475 -0.291099 -1.14066e-20)
(0.946199 -0.274652 8.68376e-21)
(0.951722 -0.259322 -4.82232e-20)
(0.957043 -0.245021 -5.96327e-20)
(0.962081 -0.231689 6.59081e-20)
(0.966874 -0.219154 -8.34939e-21)
(0.972065 -0.207351 -1.71191e-20)
(0.978446 -0.197594 2.41063e-20)
(0.228894 -0.211344 2.48133e-20)
(0.52618 -0.480778 1.56469e-20)
(0.708228 -0.62179 -1.42472e-20)
(0.806679 -0.671913 1.10175e-21)
(0.854897 -0.667356 -1.55724e-21)
(0.877066 -0.636829 -3.1369e-20)
(0.887991 -0.597459 -2.54199e-20)
(0.894966 -0.557477 -9.70976e-22)
(0.900886 -0.519913 1.58575e-20)
(0.906647 -0.485455 -4.52445e-20)
(0.912436 -0.453992 5.36252e-20)
(0.918245 -0.425227 -2.20623e-20)
(0.924032 -0.398857 -2.00318e-20)
(0.929758 -0.374615 5.5373e-20)
(0.935391 -0.352271 -3.49059e-21)
(0.940906 -0.331622 -6.44718e-20)
(0.946285 -0.312493 -6.59497e-21)
(0.951512 -0.294735 -9.37085e-21)
(0.956579 -0.278212 -4.17649e-20)
(0.961493 -0.262806 2.76371e-20)
(0.966266 -0.248426 5.02301e-20)
(0.97084 -0.235005 -4.22524e-20)
(0.975152 -0.222454 1.00824e-19)
(0.979568 -0.210908 -4.53604e-20)
(0.985457 -0.200699 1.25903e-20)
(0.234424 -0.206013 -3.97512e-20)
(0.541253 -0.47273 -3.90016e-20)
(0.729822 -0.615649 3.65727e-22)
(0.831758 -0.668741 5.99116e-21)
(0.880956 -0.666701 5.24254e-22)
(0.902499 -0.637832 1.59523e-20)
(0.912003 -0.599406 1.53345e-20)
(0.9173 -0.559938 -2.64648e-20)
(0.921561 -0.522668 -5.31595e-22)
(0.925788 -0.488399 1.98944e-20)
(0.930186 -0.457067 -3.59509e-20)
(0.934741 -0.428391 8.49009e-21)
(0.939395 -0.402079 -6.84294e-20)
(0.944095 -0.377869 -1.48844e-20)
(0.948797 -0.355535 1.86082e-20)
(0.953464 -0.334877 2.37422e-20)
(0.958069 -0.315725 -2.36545e-21)
(0.962588 -0.297929 -1.48916e-20)
(0.967003 -0.281361 -2.87285e-20)
(0.971312 -0.265905 -4.50827e-21)
(0.97553 -0.251464 2.77339e-21)
(0.979645 -0.237952 1.47022e-20)
(0.983568 -0.225334 -4.7297e-20)
(0.987388 -0.213893 -6.02483e-21)
(0.992484 -0.203461 -4.05441e-20)
(0.239277 -0.200023 -7.95738e-21)
(0.555117 -0.463253 1.17652e-20)
(0.750263 -0.607837 1.75472e-20)
(0.855945 -0.663891 -1.63089e-20)
(0.906398 -0.664526 9.47622e-23)
(0.927526 -0.6375 -4.88592e-21)
(0.935743 -0.600182 5.39338e-21)
(0.939441 -0.561358 5.79576e-21)
(0.942092 -0.524487 -2.37043e-21)
(0.944817 -0.490494 1.45733e-20)
(0.947852 -0.459366 3.12892e-20)
(0.951174 -0.430846 1.77257e-20)
(0.954714 -0.404651 1.41687e-20)
(0.958404 -0.380526 3.9704e-20)
(0.962188 -0.358248 -1.22331e-20)
(0.96602 -0.337625 -6.48061e-22)
(0.96986 -0.318486 2.75258e-20)
(0.97368 -0.300688 -2.28804e-21)
(0.977454 -0.284103 -1.00315e-20)
(0.981168 -0.26862 -5.40637e-22)
(0.984842 -0.254137 -4.96315e-21)
(0.988509 -0.24055 -3.72642e-20)
(0.992104 -0.227868 4.0833e-20)
(0.9955 -0.216506 4.683e-20)
(0.999797 -0.205964 1.01851e-20)
(0.243371 -0.193409 7.07379e-20)
(0.567672 -0.452434 5.67941e-20)
(0.76945 -0.598421 -3.47136e-20)
(0.879118 -0.657396 1.3415e-20)
(0.931115 -0.660856 -1.03622e-20)
(0.952058 -0.635856 4.78884e-21)
(0.95914 -0.599807 2.65687e-21)
(0.96133 -0.561756 5.79747e-21)
(0.962428 -0.525388 7.83961e-21)
(0.963691 -0.491755 -2.43376e-20)
(0.965392 -0.460906 -1.24302e-20)
(0.967507 -0.432606 -1.26295e-20)
(0.969955 -0.406585 1.84359e-20)
(0.972655 -0.382596 -4.54307e-20)
(0.975538 -0.360421 4.68283e-20)
(0.978548 -0.339872 8.94295e-21)
(0.981638 -0.320785 -1.04861e-20)
(0.984771 -0.303016 2.07463e-20)
(0.987915 -0.286443 6.86657e-20)
(0.991051 -0.270958 -2.0845e-20)
(0.994202 -0.256457 -1.06597e-20)
(0.997437 -0.242825 2.302e-20)
(1.00072 -0.230103 -1.79262e-20)
(1.00376 -0.21879 -2.78786e-21)
(1.00738 -0.208123 1.46995e-20)
(0.246678 -0.186242 -1.18283e-19)
(0.578824 -0.440385 -1.84551e-20)