/*--------------------------------*- C++ -*----------------------------------*\
  =========                 |
  \\      /  F ield         | OpenFOAM: The Open Source CFD Toolbox
   \\    /   O peration     | Website:  https://openfoam.org
    \\  /    A nd           | Version:  7
     \\/     M anipulation  |
\*---------------------------------------------------------------------------*/
FoamFile
{
    version     2.0;
    format      ascii;
    class       volVectorField;
    location    "95.001";
    object      U;
}
// * * * * * * * * * * * * * * * * * * * * * * * * * * * * * * * * * * * * * //

dimensions      [0 1 -1 0 0 0 0];

internalField   nonuniform List<vector> 
3700
(
(1.2495 -0.0636913 0)
(1.28434 -0.0575088 0)
(1.29449 -0.050509 0)
(1.29361 -0.0435957 0)
(1.28833 -0.0374822 0)
(1.28125 -0.0322821 0)
(1.27345 -0.027878 0)
(1.26546 -0.0241462 0)
(1.25759 -0.0209894 0)
(1.24997 -0.0183191 0)
(1.24267 -0.0160538 0)
(1.23571 -0.0141241 0)
(1.22908 -0.0124717 0)
(1.22281 -0.0110482 0)
(1.2169 -0.0098127 0)
(1.21137 -0.00873134 0)
(1.20621 -0.00777662 0)
(1.20144 -0.00692527 0)
(1.19705 -0.00615821 0)
(1.19304 -0.00545967 0)
(1.18942 -0.00481654 0)
(1.18618 -0.00421811 0)
(1.18331 -0.00365536 0)
(1.1808 -0.00312095 0)
(1.17867 -0.00260876 0)
(1.1769 -0.00211377 0)
(1.17548 -0.00163205 0)
(1.17442 -0.00115937 0)
(1.17372 -0.000692071 0)
(1.17337 -0.000232382 0)
(1.25687 -0.0599372 0)
(1.29305 -0.0519988 0)
(1.30312 -0.0436269 0)
(1.30135 -0.035818 0)
(1.29497 -0.0292437 0)
(1.28684 -0.0238505 0)
(1.27811 -0.0194403 0)
(1.26933 -0.0158514 0)
(1.2608 -0.012944 0)
(1.25264 -0.0105951 0)
(1.24489 -0.00870057 0)
(1.23756 -0.00717403 0)
(1.23063 -0.00594421 0)
(1.22411 -0.00495294 0)
(1.21801 -0.00415229 0)
(1.21231 -0.00350346 0)
(1.20702 -0.00297448 0)
(1.20214 -0.00253964 0)
(1.19767 -0.00217847 0)
(1.1936 -0.00187453 0)
(1.18993 -0.00161451 0)
(1.18664 -0.00138763 0)
(1.18374 -0.00118561 0)
(1.18121 -0.00100198 0)
(1.17906 -0.000831669 0)
(1.17727 -0.000670658 0)
(1.17585 -0.000516321 0)
(1.17478 -0.000366196 0)
(1.17407 -0.000217801 0)
(1.17372 -7.37883e-05 0)
(1.26735 -0.0534843 0)
(1.30362 -0.0438162 0)
(1.31277 -0.0343515 0)
(1.30963 -0.0260519 0)
(1.30181 -0.0193777 0)
(1.29237 -0.0140731 0)
(1.28253 -0.00989831 0)
(1.27285 -0.00665644 0)
(1.26358 -0.0041643 0)
(1.25482 -0.00227308 0)
(1.24659 -0.000863904 0)
(1.23887 0.000167176 0)
(1.23163 0.000899114 0)
(1.22487 0.00139496 0)
(1.21857 0.00170953 0)
(1.21273 0.00188442 0)
(1.20732 0.00195406 0)
(1.20236 0.00194495 0)
(1.19782 0.00187803 0)
(1.1937 0.00176965 0)
(1.18999 0.00163253 0)
(1.18667 0.00147667 0)
(1.18375 0.00130916 0)
(1.18122 0.00113524 0)
(1.17905 0.000958513 0)
(1.17726 0.000781553 0)
(1.17584 0.000605457 0)
(1.17477 0.000430839 0)
(1.17406 0.000258603 0)
(1.17371 8.52453e-05 0)
(1.28067 -0.0431944 0)
(1.31554 -0.0321414 0)
(1.32293 -0.0220628 0)
(1.31802 -0.0139066 0)
(1.30847 -0.00758268 0)
(1.29753 -0.00273137 0)
(1.28647 0.000892208 0)
(1.27581 0.00353812 0)
(1.26576 0.0054135 0)
(1.25638 0.00668288 0)
(1.24765 0.00747702 0)
(1.23955 0.00790459 0)
(1.23202 0.00805035 0)
(1.22503 0.00798248 0)
(1.21856 0.00775571 0)
(1.21258 0.00741275 0)
(1.20709 0.00698782 0)
(1.20206 0.00650681 0)
(1.19747 0.00598989 0)
(1.19332 0.00545227 0)
(1.18959 0.00490519 0)
(1.18627 0.00435692 0)
(1.18335 0.00381286 0)
(1.18082 0.00327651 0)
(1.17866 0.00274963 0)
(1.17687 0.00223283 0)
(1.17545 0.00172542 0)
(1.17439 0.00122614 0)
(1.17368 0.00073372 0)
(1.17333 0.000243579 0)
(1.29636 -0.0282846 0)
(1.32783 -0.0163111 0)
(1.33292 -0.00649601 0)
(1.32591 0.000826744 0)
(1.31444 0.00632728 0)
(1.30192 0.0102842 0)
(1.28961 0.0129988 0)
(1.27796 0.0147679 0)
(1.26713 0.0158028 0)
(1.25715 0.0162702 0)
(1.24796 0.0163054 0)
(1.2395 0.0160158 0)
(1.23171 0.0154857 0)
(1.22453 0.0147819 0)
(1.21792 0.013957 0)
(1.21185 0.0130516 0)
(1.20629 0.0120973 0)
(1.20122 0.0111178 0)
(1.19662 0.0101307 0)
(1.19246 0.00914876 0)
(1.18874 0.00818085 0)
(1.18543 0.00723271 0)
(1.18252 0.0063074 0)
(1.18001 0.00540608 0)
(1.17787 0.00452825 0)
(1.1761 0.00367221 0)
(1.17469 0.00283511 0)
(1.17364 0.00201357 0)
(1.17294 0.00120394 0)
(1.1726 0.000400144 0)
(1.31295 -0.00881112 0)
(1.33997 0.00405858 0)
(1.34211 0.0122807 0)
(1.3326 0.0182602 0)
(1.31916 0.0223767 0)
(1.3051 0.0249496 0)
(1.29158 0.0263928 0)
(1.279 0.0269958 0)
(1.26747 0.0269569 0)
(1.25695 0.0264392 0)
(1.24737 0.0255711 0)
(1.23862 0.024451 0)
(1.23061 0.0231558 0)
(1.22329 0.0217462 0)
(1.21659 0.0202688 0)
(1.21047 0.0187591 0)
(1.20489 0.0172438 0)
(1.19982 0.0157421 0)
(1.19523 0.0142676 0)
(1.1911 0.0128294 0)
(1.18741 0.0114329 0)
(1.18414 0.0100804 0)
(1.18127 0.0087721 0)
(1.17879 0.00750619 0)
(1.17669 0.00627945 0)
(1.17495 0.00508754 0)
(1.17356 0.00392515 0)
(1.17253 0.00278644 0)
(1.17185 0.00166526 0)
(1.17151 0.000553663 0)
(1.32897 0.0162041 0)
(1.35099 0.0284979 0)
(1.34945 0.0345583 0)
(1.33732 0.0384022 0)
(1.32202 0.0404304 0)
(1.30657 0.0411433 0)
(1.292 0.0409562 0)
(1.27864 0.0401038 0)
(1.26654 0.0387665 0)
(1.2556 0.0370905 0)
(1.24572 0.0351836 0)
(1.23677 0.0331272 0)
(1.22864 0.0309854 0)
(1.22125 0.0288073 0)
(1.21452 0.0266298 0)
(1.20841 0.0244801 0)
(1.20286 0.0223776 0)
(1.19783 0.0203351 0)
(1.1933 0.0183609 0)
(1.18924 0.0164589 0)
(1.18561 0.0146301 0)
(1.1824 0.0128728 0)
(1.1796 0.0111834 0)
(1.17717 0.00955676 0)
(1.17512 0.00798651 0)
(1.17342 0.00646533 0)
(1.17207 0.00498514 0)
(1.17107 0.0035374 0)
(1.1704 0.00211329 0)
(1.17007 0.000702683 0)
(1.34302 0.0472707 0)
(1.35906 0.0568371 0)
(1.35368 0.0599279 0)
(1.33924 0.0607871 0)
(1.3224 0.0601433 0)
(1.30585 0.0585954 0)
(1.29049 0.0564488 0)
(1.27659 0.0538844 0)
(1.26411 0.0510551 0)
(1.25292 0.0480714 0)
(1.24289 0.04501 0)
(1.23387 0.041929 0)
(1.22572 0.0388736 0)
(1.21835 0.0358767 0)
(1.21168 0.0329622 0)
(1.20564 0.0301461 0)
(1.20018 0.0274384 0)
(1.19525 0.024844 0)
(1.19082 0.022364 0)
(1.18686 0.0199965 0)
(1.18333 0.0177369 0)
(1.18022 0.015579 0)
(1.1775 0.0135149 0)
(1.17515 0.0115355 0)
(1.17317 0.00963102 0)
(1.17153 0.00779078 0)
(1.17023 0.00600372 0)
(1.16926 0.00425843 0)
(1.16862 0.00254325 0)
(1.1683 0.000845627 0)
(1.35334 0.0818911 0)
(1.36286 0.0883006 0)
(1.35395 0.0875078 0)
(1.33769 0.0846959 0)
(1.31977 0.0809989 0)
(1.30252 0.0768796 0)
(1.28676 0.0725155 0)
(1.27261 0.0680481 0)
(1.26 0.063583 0)
(1.24878 0.0591803 0)
(1.23878 0.0548797 0)
(1.22982 0.0507112 0)
(1.22178 0.0466959 0)
(1.21454 0.0428475 0)
(1.20801 0.0391736 0)
(1.20213 0.0356771 0)
(1.19683 0.0323567 0)
(1.19206 0.0292082 0)
(1.18779 0.0262245 0)
(1.18397 0.0233967 0)
(1.18058 0.0207142 0)
(1.1776 0.0181655 0)
(1.17499 0.015738 0)
(1.17275 0.0134185 0)
(1.17085 0.0111932 0)
(1.16929 0.00904805 0)
(1.16805 0.0069688 0)
(1.16713 0.00494099 0)
(1.16652 0.00295005 0)
(1.16621 0.000980818 0)
(1.35821 0.118946 0)
(1.36138 0.121842 0)
(1.34965 0.116216 0)
(1.33219 0.109342 0)
(1.31374 0.102369 0)
(1.29633 0.0954668 0)
(1.28058 0.0887278 0)
(1.26654 0.0822474 0)
(1.2541 0.0760625 0)
(1.24308 0.0701777 0)
(1.2333 0.0645927 0)
(1.22459 0.0593053 0)
(1.21679 0.0543098 0)
(1.2098 0.049598 0)
(1.20353 0.04516 0)
(1.19788 0.0409838 0)
(1.19282 0.037056 0)
(1.18827 0.0333618 0)
(1.18421 0.0298855 0)
(1.18059 0.0266105 0)
(1.17738 0.02352 0)
(1.17455 0.0205965 0)
(1.17209 0.0178224 0)
(1.16998 0.0151802 0)
(1.16819 0.0126522 0)
(1.16672 0.0102206 0)
(1.16555 0.00786775 0)
(1.16468 0.00557621 0)
(1.16411 0.00332841 0)
(1.16382 0.00110651 0)
(1.35594 0.157027 0)
(1.35387 0.155941 0)
(1.34032 0.144839 0)
(1.32242 0.133842 0)
(1.30414 0.123526 0)
(1.28714 0.113764 0)
(1.27187 0.104612 0)
(1.25832 0.0960962 0)
(1.24635 0.0881757 0)
(1.23579 0.0808005 0)
(1.22645 0.07393 0)
(1.21815 0.0675279 0)
(1.21075 0.0615605 0)
(1.20414 0.0559974 0)
(1.19822 0.05081 0)
(1.19291 0.0459712 0)
(1.18816 0.0414548 0)
(1.1839 0.037235 0)
(1.1801 0.0332872 0)
(1.17672 0.0295869 0)
(1.17373 0.0261105 0)
(1.17111 0.0228347 0)
(1.16882 0.0197369 0)
(1.16686 0.0167948 0)
(1.1652 0.0139868 0)
(1.16384 0.0112914 0)
(1.16276 0.0086877 0)
(1.16196 0.00615506 0)
(1.16142 0.00367298 0)
(1.16116 0.00122094 0)
(1.34571 0.194129 0)
(1.34002 0.188858 0)
(1.32581 0.172107 0)
(1.30835 0.157245 0)
(1.29096 0.143693 0)
(1.27496 0.131155 0)
(1.26063 0.119674 0)
(1.24794 0.109192 0)
(1.23677 0.0995922 0)
(1.22692 0.0907761 0)
(1.21823 0.0826648 0)
(1.21053 0.0751889 0)
(1.20369 0.0682882 0)
(1.19758 0.0619104 0)
(1.19212 0.056009 0)
(1.18724 0.0505418 0)
(1.18287 0.0454698 0)
(1.17897 0.0407568 0)
(1.1755 0.0363689 0)
(1.17241 0.032274 0)
(1.16969 0.0284417 0)
(1.16729 0.024843 0)
(1.16521 0.02145 0)
(1.16342 0.0182362 0)
(1.16192 0.0151757 0)
(1.16068 0.0122437 0)
(1.1597 0.00941586 0)
(1.15897 0.00666855 0)
(1.15849 0.00397843 0)
(1.15825 0.00132233 0)
(1.32772 0.228312 -2.80294e-11)
(1.32009 0.218955 -2.4547e-11)
(1.30639 0.196858 0)
(1.29023 0.178645 -1.94902e-11)
(1.27442 0.162132 -1.75035e-11)
(1.25995 0.14705 -4.55922e-28)
(1.247 0.133439 1.43744e-11)
(1.23554 0.121145 1.31308e-11)
(1.22545 0.10999 0)
(1.21657 0.0998374 0)
(1.20874 0.0905741 0)
(1.20181 0.0821013 0)
(1.19565 0.0743352 0)
(1.19017 0.0672037 0)
(1.18528 0.0606438 0)
(1.18091 0.0545991 0)
(1.17702 0.0490189 0)
(1.17354 0.043857 0)
(1.17044 0.0390708 0)
(1.16769 0.0346209 0)
(1.16527 0.0304703 5.89026e-12)
(1.16314 0.0265846 1.13656e-11)
(1.16129 0.0229311 5.50325e-12)
(1.15971 0.0194788 0)
(1.15837 0.0161983 -5.2207e-12)
(1.15727 0.013061 -5.11494e-12)
(1.15641 0.0100398 0)
(1.15576 0.00710799 -4.96948e-12)
(1.15533 0.00423961 -4.92847e-12)
(1.15512 0.00140899 -1.41603e-28)
(1.30299 0.258024 2.80345e-11)
(1.29483 0.24488 2.4547e-11)
(1.28266 0.21817 0)
(1.26855 0.197282 1.94902e-11)
(1.25492 0.178206 1.75035e-11)
(1.24243 0.160937 4.55922e-28)
(1.23123 0.145485 -1.43744e-11)
(1.2213 0.131603 -1.31308e-11)
(1.21255 0.119075 0)
(1.20485 0.107738 0)
(1.19806 0.0974507 0)
(1.19206 0.0880902 0)
(1.18673 0.0795532 0)
(1.182 0.0717512 0)
(1.17777 0.0646068 0)
(1.174 0.0580514 0)
(1.17064 0.0520238 0)
(1.16764 0.0464688 0)
(1.16498 0.0413359 0)
(1.16262 0.0365788 0)
(1.16053 0.032155 -5.89026e-12)
(1.1587 0.0280248 -1.13656e-11)
(1.15711 0.024151 -5.50325e-12)
(1.15575 0.0204987 0)
(1.1546 0.0170348 5.2207e-12)
(1.15366 0.0137279 5.11494e-12)
(1.15291 0.0105478 0)
(1.15236 0.00746515 4.96948e-12)
(1.15199 0.00445164 4.92847e-12)
(1.15181 0.0014793 1.41603e-28)
(1.27296 0.282234 0)
(1.26529 0.265685 0)
(1.25548 0.23542 0)
(1.244 0.212585 0)
(1.23298 0.191426 0)
(1.22282 0.172413 0)
(1.21364 0.155467 0)
(1.20549 0.140271 0)
(1.1983 0.126598 0)
(1.19196 0.114266 0)
(1.18637 0.103113 0)
(1.18143 0.0929996 0)
(1.17705 0.0838089 0)
(1.17315 0.0754388 0)
(1.16968 0.0678004 0)
(1.16658 0.0608151 0)
(1.16382 0.0544129 0)
(1.16136 0.0485308 0)
(1.15917 0.0431116 0)
(1.15723 0.0381034 0)
(1.15552 0.0334581 0)
(1.15402 0.0291317 0)
(1.15272 0.025083 0)
(1.1516 0.0212737 0)
(1.15066 0.0176675 0)
(1.14988 0.0142302 0)
(1.14927 0.010929 0)
(1.14881 0.00773253 0)
(1.14851 0.0046101 0)
(1.14836 0.00153179 0)
(1.23918 0.300418 0)
(1.23264 0.280877 0)
(1.22578 0.248285 0)
(1.21732 0.224183 0)
(1.20919 0.201471 0)
(1.20156 0.181198 0)
(1.19462 0.163129 0)
(1.18843 0.146924 0)
(1.18294 0.132361 0)
(1.17811 0.119247 0)
(1.17385 0.107409 0)
(1.17008 0.096699 0)
(1.16673 0.086989 0)
(1.16376 0.0781684 0)
(1.16111 0.0701398 0)
(1.15875 0.0628171 0)
(1.15664 0.0561233 0)
(1.15477 0.0499891 0)
(1.1531 0.044352 0)
(1.15161 0.039155 0)
(1.1503 0.034346 0)
(1.14916 0.029877 0)
(1.14816 0.0257035 0)
(1.1473 0.0217843 0)
(1.14657 0.0180804 0)
(1.14598 0.0145553 0)
(1.14551 0.0111742 0)
(1.14516 0.00790355 0)
(1.14492 0.00471109 0)
(1.14481 0.00156519 0)
(1.20304 0.312463 0)
(1.19805 0.290385 0)
(1.19451 0.256695 0)
(1.18929 0.231903 0)
(1.18415 0.208185 0)
(1.17916 0.187128 0)
(1.17456 0.168308 0)
(1.17043 0.151407 0)
(1.16677 0.136221 0)
(1.16353 0.122553 0)
(1.16068 0.110225 0)
(1.15817 0.0990854 0)
(1.15593 0.0890027 0)
(1.15395 0.0798603 0)
(1.15219 0.0715556 0)
(1.15061 0.063997 0)
(1.1492 0.0571026 0)
(1.14794 0.0507986 0)
(1.14682 0.0450182 0)
(1.14583 0.0397008 0)
(1.14495 0.0347907 0)
(1.14417 0.0302371 0)
(1.14349 0.0259929 0)
(1.14291 0.0220143 0)
(1.14241 0.0182605 0)
(1.14201 0.014693 0)
(1.14168 0.0112754 0)
(1.14144 0.00797278 0)
(1.14128 0.00475141 0)
(1.1412 0.00157843 0)
(1.16569 0.318575 0)
(1.16262 0.294463 0)
(1.16254 0.260766 0)
(1.16057 0.235739 0)
(1.15841 0.211547 0)
(1.15609 0.19014 0)
(1.15387 0.170921 0)
(1.15185 0.153636 0)
(1.15006 0.138093 0)
(1.14848 0.124098 0)
(1.1471 0.111479 0)
(1.14589 0.100085 0)
(1.14482 0.0897831 0)
(1.14387 0.0804548 0)
(1.14303 0.0719947 0)
(1.14228 0.0643081 0)
(1.1416 0.0573103 0)
(1.14099 0.0509241 0)
(1.14044 0.0450801 0)
(1.13995 0.0397149 0)
(1.13952 0.0347704 0)
(1.13913 0.0301937 0)
(1.13878 0.0259357 0)
(1.13848 0.0219511 0)
(1.13823 0.0181975 0)
(1.13801 0.0146353 0)
(1.13784 0.0112268 0)
(1.13772 0.00793607 0)
(1.13763 0.0047286 0)
(1.13759 0.0015707 0)
(1.12808 0.31918 0)
(1.12725 0.293577 0)
(1.13057 0.260727 0)
(1.13177 0.235823 0)
(1.13249 0.211638 0)
(1.13277 0.190253 0)
(1.13291 0.170961 0)
(1.133 0.153581 0)
(1.13309 0.137935 0)
(1.13319 0.123838 0)
(1.13331 0.111126 0)
(1.13343 0.0996526 0)
(1.13356 0.0892872 0)
(1.13367 0.079912 0)
(1.13378 0.071421 0)
(1.13387 0.0637186 0)
(1.13394 0.0567182 0)
(1.134 0.0503413 0)
(1.13404 0.0445167 0)
(1.13407 0.0391794 0)
(1.13409 0.03427 0)
(1.1341 0.0297342 0)
(1.13409 0.0255217 0)
(1.13408 0.0215864 0)
(1.13407 0.0178849 0)
(1.13406 0.0143769 0)
(1.13404 0.0110243 0)
(1.13403 0.00779071 0)
(1.13402 0.00464108 0)
(1.13402 0.00154148 0)
(1.09096 0.314831 0)
(1.09266 0.288281 0)
(1.09918 0.25687 0)
(1.10335 0.232371 0)
(1.10679 0.208601 0)
(1.1096 0.187547 0)
(1.11203 0.168472 0)
(1.11419 0.151262 0)
(1.11613 0.13575 0)
(1.1179 0.121763 0)
(1.11952 0.109149 0)
(1.12099 0.0977681 0)
(1.12231 0.0874941 0)
(1.1235 0.0782114 0)
(1.12457 0.0698154 0)
(1.12551 0.0622107 0)
(1.12635 0.0553107 0)
(1.12708 0.0490366 0)
(1.12772 0.0433164 0)
(1.12827 0.0380847 0)
(1.12875 0.0332815 0)
(1.12915 0.028852 0)
(1.12949 0.0247457 0)
(1.12977 0.0209159 0)
(1.13001 0.0173194 0)
(1.13019 0.0139156 0)
(1.13033 0.0106664 0)
(1.13044 0.00753558 0)
(1.1305 0.00448822 0)
(1.13054 0.00149056 0)
(1.05485 0.306106 0)
(1.05936 0.279112 0)
(1.06875 0.249513 0)
(1.07569 0.225644 0)
(1.08169 0.202612 0)
(1.0869 0.182141 0)
(1.09153 0.163536 0)
(1.09568 0.146732 0)
(1.09944 0.131569 0)
(1.10285 0.117891 0)
(1.10594 0.105557 0)
(1.10874 0.0944347 0)
(1.11125 0.0844032 0)
(1.11351 0.0753505 0)
(1.11553 0.0671744 0)
(1.11733 0.059781 0)
(1.11892 0.0530848 0)
(1.12032 0.0470074 0)
(1.12156 0.0414774 0)
(1.12263 0.0364297 0)
(1.12356 0.0318045 0)
(1.12436 0.0275473 0)
(1.12504 0.023608 0)
(1.12561 0.0199405 0)
(1.12609 0.0165018 0)
(1.12647 0.013252 0)
(1.12677 0.0101537 0)
(1.12698 0.00717121 0)
(1.12713 0.00427033 0)
(1.1272 0.00141805 0)
(1.02016 0.293567 0)
(1.02762 0.266555 0)
(1.03956 0.238953 0)
(1.04907 0.215903 0)
(1.05747 0.193854 0)
(1.06494 0.174174 0)
(1.07166 0.156257 0)
(1.07773 0.140065 0)
(1.08324 0.125448 0)
(1.08824 0.112263 0)
(1.09277 0.10038 0)
(1.09686 0.0896747 0)
(1.10055 0.0800316 0)
(1.10386 0.071343 0)
(1.10681 0.0635096 0)
(1.10944 0.0564397 0)
(1.11178 0.0500495 0)
(1.11384 0.0442622 0)
(1.11565 0.0390077 0)
(1.11724 0.0342216 0)
(1.11861 0.0298457 0)
(1.1198 0.0258264 0)
(1.12081 0.0221146 0)
(1.12167 0.0186652 0)
(1.12238 0.0154367 0)
(1.12295 0.0123902 0)
(1.1234 0.00948934 0)
(1.12373 0.00669984 0)
(1.12394 0.0039888 0)
(1.12405 0.00132443 0)
(0.987108 0.27771 0)
(0.997595 0.25102 0)
(1.01179 0.225455 0)
(1.02369 0.203391 0)
(1.03434 0.182506 0)
(1.04394 0.163789 0)
(1.05264 0.146748 0)
(1.06055 0.131351 0)
(1.06773 0.117456 0)
(1.07426 0.104934 0)
(1.08018 0.0936637 0)
(1.08553 0.0835266 0)
(1.09035 0.0744124 0)
(1.09467 0.0662176 0)
(1.09854 0.0588462 0)
(1.10198 0.0522094 0)
(1.10503 0.0462256 0)
(1.10773 0.04082 0)
(1.1101 0.0359244 0)
(1.11218 0.0314766 0)
(1.11399 0.0274199 0)
(1.11554 0.0237024 0)
(1.11687 0.0202771 0)
(1.118 0.0171005 0)
(1.11893 0.0141328 0)
(1.11968 0.0113371 0)
(1.12027 0.00867889 0)
(1.12071 0.00612555 0)
(1.121 0.00364606 0)
(1.12114 0.00121048 0)
(0.955805 0.258917 0)
(0.969347 0.232816 0)
(0.985579 0.209247 0)
(0.999721 0.18832 0)
(1.01248 0.168727 0)
(1.0241 0.151121 0)
(1.03468 0.135121 0)
(1.04433 0.120683 0)
(1.05312 0.107674 0)
(1.06111 0.0959743 0)
(1.06836 0.085468 0)
(1.07491 0.0760426 0)
(1.08081 0.0675919 0)
(1.0861 0.0600161 0)
(1.09084 0.0532224 0)
(1.09505 0.047125 0)
(1.09879 0.0416448 0)
(1.10209 0.0367099 0)
(1.105 0.0322546 0)
(1.10754 0.028219 0)
(1.10975 0.024549 0)
(1.11165 0.0211952 0)
(1.11328 0.018113 0)
(1.11466 0.0152614 0)
(1.1158 0.0126031 0)
(1.11673 0.0101035 0)
(1.11745 0.00773056 0)
(1.11798 0.00545415 0)
(1.11833 0.0032456 0)
(1.11851 0.0010774 0)
(0.926241 0.237482 0)
(0.942889 0.212144 0)
(0.96101 0.190507 0)
(0.977272 0.170857 0)
(0.992057 0.152657 0)
(1.00559 0.136297 0)
(1.01795 0.121484 0)
(1.02926 0.108156 0)
(1.03957 0.0961857 0)
(1.04895 0.0854588 0)
(1.05746 0.0758619 0)
(1.06515 0.0672861 0)
(1.07208 0.0596285 0)
(1.07829 0.0527925 0)
(1.08384 0.0466882 0)
(1.08878 0.0412327 0)
(1.09315 0.0363502 0)
(1.09702 0.0319716 0)
(1.10042 0.0280343 0)
(1.10339 0.0244817 0)
(1.10597 0.0212626 0)
(1.1082 0.0183312 0)
(1.1101 0.0156455 0)
(1.11171 0.013168 0)
(1.11304 0.0108643 0)
(1.11413 0.00870305 0)
(1.11497 0.00665509 0)
(1.11559 0.00469329 0)
(1.116 0.00279203 0)
(1.1162 0.000926702 0)
(0.898324 0.213629 0)
(0.91818 0.189155 0)
(0.938172 0.169362 0)
(0.956459 0.151119 0)
(0.97319 0.134404 0)
(0.98855 0.119421 0)
(1.00262 0.105935 0)
(1.0155 0.0938626 0)
(1.02725 0.0830794 0)
(1.03794 0.0734705 0)
(1.04764 0.0649235 0)
(1.05641 0.057331 0)
(1.06429 0.0505921 0)
(1.07135 0.0446125 0)
(1.07766 0.039305 0)
(1.08326 0.0345902 0)
(1.08823 0.0303951 0)
(1.09261 0.0266542 0)
(1.09645 0.0233087 0)
(1.09981 0.0203057 0)
(1.10273 0.017598 0)
(1.10525 0.0151432 0)
(1.10739 0.0129036 0)
(1.1092 0.0108453 0)
(1.11071 0.00893767 0)
(1.11192 0.00715294 0)
(1.11287 0.0054657 0)
(1.11357 0.00385244 0)
(1.11404 0.00229099 0)
(1.11426 0.00076026 0)
(0.872039 0.187434 0)
(0.895131 0.163999 0)
(0.917115 0.145932 0)
(0.93739 0.129197 0)
(0.956016 0.114058 0)
(0.973137 0.100585 0)
(0.988841 0.0885651 0)
(1.00321 0.0778933 0)
(1.01633 0.0684439 0)
(1.02826 0.0600975 0)
(1.03907 0.0527391 0)
(1.04882 0.0462612 0)
(1.05758 0.0405634 0)
(1.06542 0.0355533 0)
(1.07241 0.0311464 0)
(1.07862 0.0272661 0)
(1.0841 0.0238436 0)
(1.08894 0.0208172 0)
(1.09318 0.0181324 0)
(1.09688 0.0157407 0)
(1.10008 0.0135993 0)
(1.10284 0.0116709 0)
(1.1052 0.00992195 0)
(1.10718 0.00832298 0)
(1.10883 0.00684797 0)
(1.11016 0.00547349 0)
(1.1112 0.00417825 0)
(1.11197 0.00294282 0)
(1.11247 0.00174919 0)
(1.11272 0.000580325 0)
(0.847459 0.158873 0)
(0.873732 0.136752 0)
(0.897853 0.120321 0)
(0.920153 0.105179 0)
(0.940666 0.0916971 0)
(0.959507 0.0798636 0)
(0.976782 0.0694544 0)
(0.992581 0.0603356 0)
(1.00698 0.0523717 0)
(1.02006 0.0454348 0)
(1.03188 0.0394045 0)
(1.04253 0.0341713 0)
(1.05209 0.0296348 0)
(1.06062 0.0257042 0)
(1.06821 0.0222974 0)
(1.07494 0.0193411 0)
(1.08087 0.0167709 0)
(1.08609 0.0145303 0)
(1.09066 0.012569 0)
(1.09464 0.0108441 0)
(1.09809 0.00931881 0)
(1.10105 0.00796013 0)
(1.10357 0.00674054 0)
(1.10569 0.00563577 0)
(1.10745 0.00462449 0)
(1.10888 0.00368828 0)
(1.10998 0.00281075 0)
(1.1108 0.00197729 0)
(1.11134 0.00117438 0)
(1.1116 0.000389466 0)
(0.824096 0.128398 0)
(0.854022 0.107422 0)
(0.880463 0.0925327 0)
(0.90484 0.0790971 0)
(0.927256 0.0673879 0)
(0.947813 0.0573325 0)
(0.966614 0.0486823 0)
(0.983771 0.0412792 0)
(0.999368 0.0349605 0)
(1.01349 0.0295848 0)
(1.02624 0.0250257 0)
(1.03769 0.0211684 0)
(1.04793 0.0179123 0)
(1.05706 0.0151679 0)
(1.06516 0.0128559 0)
(1.07232 0.0109076 0)
(1.07862 0.00926351 0)
(1.08415 0.00787281 0)
(1.08897 0.00669201 0)
(1.09317 0.00568304 0)
(1.09679 0.00481527 0)
(1.0999 0.00406373 0)
(1.10254 0.00340543 0)
(1.10477 0.00282256 0)
(1.10661 0.00229974 0)
(1.10809 0.0018238 0)
(1.10925 0.00138402 0)
(1.1101 0.000970547 0)
(1.11066 0.000575149 0)
(1.11093 0.000190534 0)
(0.799901 0.097745 0)
(0.835494 0.0764261 0)
(0.864981 0.0625823 0)
(0.891616 0.050909 0)
(0.915947 0.0411421 0)
(0.938229 0.0330417 0)
(0.958523 0.0263296 0)
(0.976972 0.0208142 0)
(0.993673 0.0163185 0)
(1.00875 0.0126677 0)
(1.0223 0.00972245 0)
(1.03443 0.00737333 0)
(1.04525 0.00551784 0)
(1.05486 0.00406221 0)
(1.06335 0.00293443 0)
(1.07084 0.00207138 0)
(1.07741 0.00142002 0)
(1.08316 0.000935648 0)
(1.08816 0.000583782 0)
(1.0925 0.000331435 0)
(1.09624 0.000155516 0)
(1.09944 4.00284e-05 0)
(1.10215 -3.27048e-05 0)
(1.10443 -7.28893e-05 0)
(1.10631 -8.98035e-05 0)
(1.10783 -9.04576e-05 0)
(1.10901 -7.96428e-05 0)
(1.10987 -6.15215e-05 0)
(1.11044 -3.87396e-05 0)
(1.11073 -1.32039e-05 0)
(0.771388 0.069768 0)
(0.816281 0.0452444 0)
(0.850934 0.0310017 0)
(0.880547 0.0206647 0)
(0.906974 0.0129568 0)
(0.930962 0.00701955 0)
(0.952715 0.00247529 0)
(0.972375 -0.000942017 0)
(0.990087 -0.00342986 0)
(1.00599 -0.00519008 0)
(1.02022 -0.00636328 0)
(1.0329 -0.00706979 0)
(1.04416 -0.00741284 0)
(1.05412 -0.00748017 0)
(1.06289 -0.00733948 0)
(1.07059 -0.00704711 0)
(1.07732 -0.00664811 0)
(1.08319 -0.00617816 0)
(1.08828 -0.00566452 0)
(1.09268 -0.00512881 0)
(1.09645 -0.00458612 0)
(1.09968 -0.00404635 0)
(1.10241 -0.00351725 0)
(1.1047 -0.00300255 0)
(1.10658 -0.0025042 0)
(1.1081 -0.00202233 0)
(1.10928 -0.00155547 0)
(1.11014 -0.00110141 0)
(1.11071 -0.000656941 0)
(1.11099 -0.000218321 0)
(0.735854 0.0466043 0)
(0.793274 0.0161198 0)
(0.836619 -0.000683886 0)
(0.871154 -0.0109712 0)
(0.900449 -0.0169876 0)
(0.926299 -0.0206474 0)
(0.94947 -0.0227983 0)
(0.970247 -0.0238804 0)
(0.988844 -0.0241544 0)
(1.00543 -0.023831 0)
(1.02018 -0.0230698 0)
(1.03325 -0.0219978 0)
(1.04479 -0.0207156 0)
(1.05495 -0.0193026 0)
(1.06385 -0.0178192 0)
(1.07163 -0.0163122 0)
(1.0784 -0.0148162 0)
(1.08428 -0.013356 0)
(1.08935 -0.0119487 0)
(1.09372 -0.0106049 0)
(1.09747 -0.00932979 0)
(1.10065 -0.00812466 0)
(1.10334 -0.0069879 0)
(1.10558 -0.00591525 0)
(1.10742 -0.00490087 0)
(1.1089 -0.00393755 0)
(1.11005 -0.00301702 0)
(1.11089 -0.00213046 0)
(1.11145 -0.00126842 0)
(1.11172 -0.000421162 0)
(0.694424 0.0273235 0)
(0.76388 -0.00929412 0)
(0.819305 -0.0304435 0)
(0.862062 -0.0426582 0)
(0.896027 -0.048086 0)
(0.924412 -0.0497026 0)
(0.949086 -0.0493234 0)
(0.970877 -0.0478315 0)
(0.990184 -0.0456557 0)
(1.00727 -0.0430521 0)
(1.02234 -0.0401955 0)
(1.03561 -0.0372136 0)
(1.04725 -0.034201 0)
(1.05743 -0.0312264 0)
(1.06631 -0.0283386 0)
(1.07401 -0.0255711 0)
(1.08069 -0.0229452 0)
(1.08645 -0.0204725 0)
(1.09141 -0.0181572 0)
(1.09566 -0.0159978 0)
(1.09928 -0.0139883 0)
(1.10235 -0.0121195 0)
(1.10493 -0.0103798 0)
(1.10707 -0.0087563 0)
(1.10883 -0.00723464 0)
(1.11024 -0.00579989 0)
(1.11133 -0.00443661 0)
(1.11213 -0.00312912 0)
(1.11265 -0.00186153 0)
(1.11291 -0.000617857 0)
(0.652497 0.00746331 0)
(0.728765 -0.0314726 0)
(0.797039 -0.0571687 0)
(0.851248 -0.0728911 0)
(0.89264 -0.0792039 0)
(0.925035 -0.0795194 0)
(0.9517 -0.0767419 0)
(0.974502 -0.0725298 0)
(0.994346 -0.0676898 0)
(1.0117 -0.0626107 0)
(1.02687 -0.0575002 0)
(1.04011 -0.0524859 0)
(1.05164 -0.0476509 0)
(1.06164 -0.0430486 0)
(1.0703 -0.0387111 0)
(1.07778 -0.0346544 0)
(1.08421 -0.0308827 0)
(1.08973 -0.0273915 0)
(1.09445 -0.0241698 0)
(1.09847 -0.021202 0)
(1.10188 -0.0184695 0)
(1.10476 -0.0159513 0)
(1.10717 -0.0136253 0)
(1.10916 -0.0114688 0)
(1.11079 -0.00945867 0)
(1.11209 -0.00757195 0)
(1.11309 -0.00578573 0)
(1.11382 -0.00407735 0)
(1.1143 -0.00242435 0)
(1.11454 -0.000804445 0)
(0.617084 -0.0194592 0)
(0.692482 -0.0538418 0)
(0.770265 -0.0814771 0)
(0.837138 -0.100693 0)
(0.888785 -0.109105 0)
(0.927427 -0.109179 0)
(0.957182 -0.104467 0)
(0.981275 -0.0975701 0)
(1.00155 -0.089924 0)
(1.01892 -0.0822001 0)
(1.03392 -0.0746935 0)
(1.04686 -0.0675416 0)
(1.05803 -0.0608125 0)
(1.06763 -0.0545381 0)
(1.07588 -0.0487276 0)
(1.08294 -0.0433746 0)
(1.08897 -0.0384621 0)
(1.0941 -0.033966 0)
(1.09846 -0.0298577 0)
(1.10215 -0.0261056 0)
(1.10526 -0.0226767 0)
(1.10786 -0.0195373 0)
(1.11003 -0.0166541 0)
(1.11182 -0.0139941 0)
(1.11327 -0.011525 0)
(1.11442 -0.00921555 0)
(1.11531 -0.00703535 0)
(1.11596 -0.00495476 0)
(1.11638 -0.00294478 0)
(1.11658 -0.000976924 0)
(0.59358 -0.0568476 0)
(0.661121 -0.0809562 0)
(0.742075 -0.105908 0)
(0.819813 -0.126473 0)
(0.883333 -0.137072 0)
(0.930613 -0.137749 0)
(0.965102 -0.131738 0)
(0.991163 -0.122387 0)
(1.01191 -0.111911 0)
(1.0291 -0.101433 0)
(1.04361 -0.0914251 0)
(1.05596 -0.0820615 0)
(1.06647 -0.0733969 0)
(1.07543 -0.0654359 0)
(1.08303 -0.0581582 0)
(1.08948 -0.0515291 0)
(1.09494 -0.0455059 0)
(1.09954 -0.0400416 0)
(1.10341 -0.0350872 0)
(1.10665 -0.0305933 0)
(1.10936 -0.0265113 0)
(1.11162 -0.022794 0)
(1.11348 -0.019396 0)
(1.115 -0.0162738 0)
(1.11623 -0.013386 0)
(1.1172 -0.010693 0)
(1.11794 -0.00815695 0)
(1.11848 -0.00574137 0)
(1.11883 -0.003411 0)
(1.11901 -0.00113138 0)
(0.584128 -0.104231 0)
(0.63974 -0.115869 0)
(0.717227 -0.133689 0)
(0.801447 -0.151965 0)
(0.876329 -0.163277 0)
(0.933904 -0.164609 0)
(0.974913 -0.157774 0)
(1.00396 -0.14629 0)
(1.02546 -0.13308 0)
(1.0423 -0.119827 0)
(1.05602 -0.107274 0)
(1.06743 -0.0956739 0)
(1.07699 -0.0850759 0)
(1.08501 -0.0754539 0)
(1.09174 -0.0667515 0)
(1.09736 -0.0589 0)
(1.10206 -0.0518263 0)
(1.10598 -0.0454569 0)
(1.10923 -0.0397202 0)
(1.11192 -0.0345476 0)
(1.11414 -0.0298738 0)
(1.11597 -0.0256375 0)
(1.11746 -0.021781 0)
(1.11866 -0.0182504 0)
(1.11962 -0.0149951 0)
(1.12038 -0.0119676 0)
(1.12095 -0.00912275 0)
(1.12136 -0.00641781 0)
(1.12163 -0.00381155 0)
(1.12176 -0.00126401 0)
(0.587439 -0.158716 0)
(0.630572 -0.158702 0)
(0.700147 -0.166943 0)
(0.785632 -0.179259 0)
(0.869287 -0.188614 0)
(0.937389 -0.189605 0)
(0.986262 -0.181929 0)
(1.01939 -0.168542 0)
(1.04208 -0.15276 0)
(1.05852 -0.136807 0)
(1.07116 -0.121749 0)
(1.08128 -0.107956 0)
(1.08954 -0.0954866 0)
(1.09632 -0.0842812 0)
(1.10191 -0.0742426 0)
(1.1065 -0.0652621 0)
(1.11026 -0.0572322 0)
(1.11333 -0.0500505 0)
(1.11584 -0.0436209 0)
(1.11787 -0.0378543 0)
(1.11952 -0.0326686 0)
(1.12084 -0.0279881 0)
(1.1219 -0.0237433 0)
(1.12273 -0.01987 0)
(1.12339 -0.016309 0)
(1.12389 -0.0130052 0)
(1.12427 -0.00990723 0)
(1.12453 -0.0069663 0)
(1.1247 -0.00413597 0)
(1.12479 -0.00137138 0)
(0.600177 -0.216584 0)
(0.633 -0.207385 0)
(0.693397 -0.205814 0)
(0.776042 -0.209686 0)
(0.8648 -0.214106 0)
(0.942116 -0.212903 0)
(0.999266 -0.203732 0)
(1.03727 -0.188412 0)
(1.0616 -0.170209 0)
(1.07763 -0.151711 0)
(1.08892 -0.134287 0)
(1.09739 -0.118436 0)
(1.10399 -0.104232 0)
(1.10924 -0.0915861 0)
(1.11342 -0.080354 0)
(1.11676 -0.070384 0)
(1.1194 -0.0615312 0)
(1.12149 -0.0536623 0)
(1.12313 -0.0466562 0)
(1.1244 -0.0404032 0)
(1.12539 -0.0348045 0)
(1.12614 -0.0297708 0)
(1.12671 -0.0252213 0)
(1.12713 -0.0210826 0)
(1.12745 -0.0172877 0)
(1.12767 -0.013775 0)
(1.12783 -0.0104872 0)
(1.12794 -0.00737073 0)
(1.128 -0.00437476 0)
(1.12803 -0.00145034 0)
(0.618839 -0.274702 0)
(0.644895 -0.258934 0)
(0.697488 -0.248647 0)
(0.775342 -0.243119 0)
(0.865731 -0.240195 0)
(0.949852 -0.234617 0)
(1.01458 -0.22279 0)
(1.05763 -0.205202 0)
(1.08382 -0.184653 0)
(1.0994 -0.163828 0)
(1.10908 -0.144281 0)
(1.11555 -0.126611 0)
(1.12015 -0.110904 0)
(1.12355 -0.0970356 0)
(1.12608 -0.0848154 0)
(1.12796 -0.0740459 0)
(1.12932 -0.0645444 0)
(1.13029 -0.0561468 0)
(1.13095 -0.0487075 0)
(1.13138 -0.0420975 0)
(1.13164 -0.0362028 0)
(1.13176 -0.0309216 0)
(1.1318 -0.0261635 0)
(1.13178 -0.0218469 0)
(1.13172 -0.0178985 0)
(1.13164 -0.0142514 0)
(1.13157 -0.0108437 0)
(1.1315 -0.00761813 0)
(1.13145 -0.00452033 0)
(1.13143 -0.00149838 0)
(0.640885 -0.330847 0)
(0.664047 -0.310317 0)
(0.711676 -0.292657 0)
(0.784836 -0.277885 0)
(0.874444 -0.266224 0)
(0.962589 -0.254371 0)
(1.03323 -0.238553 0)
(1.08072 -0.218161 0)
(1.10858 -0.195285 0)
(1.12354 -0.172409 0)
(1.13131 -0.151096 0)
(1.13544 -0.131965 0)
(1.13772 -0.115088 0)
(1.13899 -0.100301 0)
(1.13964 -0.0873657 0)
(1.13987 -0.0760403 0)
(1.13981 -0.0661065 0)
(1.13955 -0.0573719 0)
(1.13915 -0.0496692 0)
(1.13866 -0.0428528 0)
(1.13813 -0.0367957 0)
(1.13759 -0.0313863 0)
(1.13705 -0.0265264 0)
(1.13656 -0.0221286 0)
(1.13611 -0.0181147 0)
(1.13571 -0.0144139 0)
(1.13539 -0.0109617 0)
(1.13515 -0.00769807 0)
(1.13498 -0.0045666 0)
(1.13489 -0.00151353 0)
(0.665222 -0.383181 0)
(0.689054 -0.358563 0)
(0.734908 -0.334446 0)
(0.804731 -0.311071 0)
(0.892375 -0.290288 0)
(0.981984 -0.270983 0)
(1.05627 -0.250096 0)
(1.10687 -0.226412 0)
(1.13571 -0.201273 0)
(1.14962 -0.176722 0)
(1.15514 -0.154127 0)
(1.1566 -0.13402 0)
(1.15626 -0.116416 0)
(1.15517 -0.101101 0)
(1.15375 -0.08779 0)
(1.1522 -0.076203 0)
(1.15061 -0.0660916 0)
(1.14904 -0.057241 0)
(1.14751 -0.0494669 0)
(1.14606 -0.0426116 0)
(1.14471 -0.0365389 0)
(1.14347 -0.0311306 0)
(1.14235 -0.0262837 0)
(1.14137 -0.0219072 0)
(1.14051 -0.0179206 0)
(1.1398 -0.0142511 0)
(1.13922 -0.0108329 0)
(1.13879 -0.00760493 0)
(1.1385 -0.00451031 0)
(1.13836 -0.0014947 0)
(0.692175 -0.429369 0)
(0.719557 -0.400399 0)
(0.766398 -0.370177 0)
(0.834588 -0.338939 0)
(0.919951 -0.309447 0)
(1.00896 -0.282441 0)
(1.08442 -0.256019 0)
(1.13622 -0.228884 0)
(1.16489 -0.201748 0)
(1.17708 -0.176063 0)
(1.17994 -0.152823 0)
(1.17844 -0.132356 0)
(1.17527 -0.114575 0)
(1.17165 -0.0992038 0)
(1.16804 -0.0859175 0)
(1.16462 -0.0744081 0)
(1.16144 -0.0644071 0)
(1.15851 -0.0556857 0)
(1.15583 -0.0480503 0)
(1.15341 -0.0413366 0)
(1.15122 -0.0354047 0)
(1.14928 -0.0301341 0)
(1.14757 -0.0254203 0)
(1.14609 -0.021172 0)
(1.14484 -0.0173083 0)
(1.1438 -0.0137572 0)
(1.14297 -0.0104532 0)
(1.14235 -0.00733619 0)
(1.14195 -0.00435005 0)
(1.14174 -0.00144142 0)
(0.723016 -0.46596 0)
(0.755938 -0.431949 0)
(0.805653 -0.395724 0)
(0.873556 -0.357454 0)
(0.956638 -0.320303 0)
(1.04343 -0.286279 0)
(1.11766 -0.254669 0)
(1.1685 -0.224474 0)