/*--------------------------------*- C++ -*----------------------------------*\
  =========                 |
  \\      /  F ield         | OpenFOAM: The Open Source CFD Toolbox
   \\    /   O peration     | Website:  https://openfoam.org
    \\  /    A nd           | Version:  7
     \\/     M anipulation  |
\*---------------------------------------------------------------------------*/
FoamFile
{
    version     2.0;
    format      ascii;
    class       volScalarField;
    location    "30";
    object      p;
}
// * * * * * * * * * * * * * * * * * * * * * * * * * * * * * * * * * * * * * //

dimensions      [0 2 -2 0 0 0 0];

internalField   nonuniform List<scalar> 
13250
(
-0.224982
-0.22609
-0.226878
-0.227457
-0.227945
-0.228366
-0.228738
-0.229075
-0.229387
-0.229682
-0.229965
-0.230245
-0.230526
-0.23082
-0.231186
-0.225271
-0.226359
-0.227132
-0.227698
-0.228172
-0.22858
-0.228937
-0.229259
-0.229556
-0.229834
-0.230101
-0.230363
-0.230626
-0.2309
-0.231261
-0.225841
-0.226891
-0.227634
-0.228174
-0.228621
-0.229001
-0.22933
-0.229621
-0.229886
-0.23013
-0.230361
-0.230587
-0.230811
-0.231044
-0.231393
-0.22668
-0.227676
-0.228375
-0.228875
-0.229281
-0.229619
-0.229903
-0.230147
-0.230361
-0.230552
-0.230725
-0.230892
-0.231055
-0.23122
-0.231549
-0.22777
-0.228697
-0.22934
-0.229787
-0.230139
-0.230418
-0.23064
-0.230818
-0.230961
-0.231075
-0.231166
-0.231246
-0.231319
-0.231383
-0.231676
-0.229092
-0.229941
-0.230516
-0.230898
-0.231179
-0.231383
-0.231523
-0.231615
-0.231664
-0.231674
-0.231653
-0.231614
-0.231562
-0.231482
-0.231698
-0.23063
-0.231393
-0.23189
-0.232193
-0.232388
-0.232497
-0.232537
-0.232519
-0.23245
-0.232329
-0.232161
-0.231962
-0.231742
-0.23146
-0.231468
-0.232373
-0.233043
-0.233451
-0.233661
-0.233753
-0.23375
-0.233668
-0.233519
-0.233307
-0.233026
-0.232675
-0.23227
-0.231829
-0.231277
-0.230779
-0.234317
-0.234889
-0.235197
-0.235298
-0.235268
-0.235132
-0.234908
-0.234608
-0.23423
-0.233765
-0.233201
-0.232547
-0.231807
-0.23087
-0.230265
-0.236468
-0.236935
-0.237129
-0.237103
-0.236931
-0.236641
-0.236255
-0.235784
-0.235223
-0.234554
-0.233753
-0.232813
-0.231707
-0.230251
-0.229231
-0.238846
-0.239196
-0.239259
-0.239085
-0.238747
-0.23828
-0.23771
-0.237049
-0.236292
-0.23541
-0.234359
-0.233111
-0.231603
-0.229516
-0.22766
-0.24148
-0.241698
-0.241608
-0.241259
-0.240726
-0.240054
-0.239276
-0.238407
-0.237441
-0.236341
-0.235042
-0.233486
-0.231574
-0.228813
-0.225723
-0.244415
-0.244479
-0.244208
-0.243651
-0.24289
-0.24198
-0.240962
-0.239861
-0.238669
-0.237344
-0.235802
-0.233947
-0.231637
-0.228169
-0.223484
-0.247712
-0.247593
-0.247104
-0.246301
-0.245271
-0.244082
-0.24279
-0.241424
-0.239983
-0.238423
-0.236647
-0.234524
-0.231821
-0.22748
-0.221204
-0.251452
-0.251108
-0.250359
-0.249265
-0.247919
-0.246408
-0.244799
-0.243134
-0.241419
-0.239619
-0.237651
-0.235401
-0.232581
-0.227801
-0.222493
-0.255731
-0.25511
-0.254049
-0.252613
-0.250904
-0.249025
-0.24706
-0.24506
-0.243043
-0.240991
-0.238859
-0.23661
-0.23419
-0.231308
-0.236999
-0.260662
-0.259698
-0.258266
-0.256436
-0.254316
-0.252029
-0.24967
-0.247301
-0.244947
-0.242602
-0.240243
-0.23788
-0.235606
-0.233569
-0.236786
-0.266369
-0.264981
-0.263113
-0.260837
-0.258262
-0.255529
-0.252746
-0.249977
-0.247247
-0.244547
-0.241857
-0.239194
-0.236624
-0.234564
-0.234427
-0.272974
-0.27107
-0.268697
-0.265925
-0.262857
-0.259647
-0.256409
-0.253201
-0.250033
-0.246878
-0.243694
-0.240473
-0.237201
-0.234312
-0.231591
-0.280592
-0.278071
-0.275123
-0.271807
-0.26821
-0.264492
-0.26076
-0.257052
-0.253347
-0.249581
-0.245679
-0.241597
-0.237273
-0.233047
-0.228139
-0.289313
-0.286072
-0.282483
-0.278583
-0.274423
-0.270157
-0.265871
-0.261561
-0.257162
-0.252569
-0.24768
-0.24244
-0.236797
-0.231003
-0.224406
-0.299197
-0.295137
-0.290848
-0.286328
-0.281569
-0.276698
-0.271758
-0.26669
-0.261376
-0.255687
-0.249525
-0.242866
-0.235723
-0.228331
-0.220268
-0.310257
-0.305291
-0.300257
-0.295086
-0.289678
-0.284111
-0.278365
-0.272315
-0.265807
-0.25872
-0.25101
-0.242735
-0.234001
-0.225077
-0.215739
-0.322446
-0.316508
-0.310696
-0.304842
-0.298716
-0.292314
-0.28554
-0.278219
-0.270195
-0.26141
-0.251926
-0.241913
-0.231575
-0.221221
-0.21071
-0.335642
-0.328694
-0.322085
-0.315508
-0.308554
-0.301116
-0.293028
-0.284095
-0.274223
-0.263478
-0.252065
-0.240273
-0.228382
-0.216712
-0.205122
-0.349631
-0.341668
-0.334256
-0.326894
-0.318953
-0.310214
-0.300465
-0.289561
-0.277541
-0.264645
-0.251236
-0.237696
-0.224346
-0.211475
-0.198894
-0.364097
-0.355148
-0.346931
-0.338693
-0.329551
-0.319185
-0.307402
-0.294189
-0.279791
-0.264648
-0.249259
-0.234062
-0.219378
-0.205424
-0.191956
-0.378614
-0.368744
-0.359717
-0.350473
-0.339862
-0.327508
-0.31333
-0.297537
-0.280628
-0.263239
-0.245964
-0.229245
-0.21337
-0.198456
-0.184227
-0.392645
-0.38195
-0.372101
-0.36168
-0.349294
-0.334593
-0.317715
-0.299172
-0.279733
-0.260192
-0.241181
-0.22311
-0.206199
-0.190457
-0.175612
-0.405554
-0.394158
-0.383459
-0.37166
-0.357183
-0.33982
-0.320036
-0.298696
-0.276817
-0.255295
-0.234747
-0.215513
-0.197733
-0.181306
-0.166007
-0.41663
-0.404674
-0.393085
-0.379689
-0.362833
-0.342578
-0.319808
-0.29575
-0.271622
-0.248352
-0.226498
-0.20631
-0.187838
-0.170881
-0.155303
-0.42511
-0.412746
-0.400218
-0.385019
-0.365558
-0.3423
-0.316602
-0.290027
-0.26392
-0.239184
-0.216281
-0.195361
-0.176387
-0.159075
-0.143394
-0.43022
-0.417603
-0.404088
-0.386917
-0.364725
-0.338492
-0.310062
-0.281272
-0.253521
-0.227633
-0.203954
-0.182535
-0.163261
-0.145783
-0.130165
-0.431211
-0.418493
-0.403959
-0.384712
-0.359786
-0.330749
-0.299906
-0.269288
-0.240276
-0.213574
-0.189402
-0.167722
-0.148349
-0.130877
-0.115441
-0.427399
-0.414729
-0.399172
-0.377836
-0.350302
-0.31877
-0.285936
-0.253941
-0.224085
-0.196928
-0.172564
-0.150869
-0.131584
-0.114215
-0.0989666
-0.418201
-0.40572
-0.389179
-0.365841
-0.335961
-0.302357
-0.268035
-0.235158
-0.204899
-0.177667
-0.153436
-0.132005
-0.113022
-0.0958399
-0.0807087
-0.403162
-0.391009
-0.373575
-0.348427
-0.31658
-0.281422
-0.246167
-0.212927
-0.182719
-0.155802
-0.132049
-0.111193
-0.0927912
-0.0760962
-0.0616996
-0.381985
-0.370294
-0.352115
-0.325447
-0.29211
-0.255981
-0.220376
-0.187297
-0.157591
-0.131378
-0.108456
-0.0884864
-0.0709278
-0.0551062
-0.0420686
-0.354538
-0.34344
-0.324717
-0.296906
-0.262635
-0.226154
-0.190783
-0.158377
-0.129614
-0.104495
-0.0827349
-0.0639502
-0.0475499
-0.0329551
-0.0214522
-0.320869
-0.310489
-0.291477
-0.262973
-0.228369
-0.192138
-0.157566
-0.12633
-0.0989325
-0.0752656
-0.0549925
-0.0376879
-0.0227385
-0.0096527
0.000150003
-0.281199
-0.27166
-0.252671
-0.223984
-0.189602
-0.154162
-0.120976
-0.0913818
-0.0657415
-0.0438671
-0.0253834
-0.00983102
0.00340773
0.0147021
0.0224915
-0.235896
-0.227346
-0.208736
-0.180349
-0.146531
-0.112693
-0.0813684
-0.0538219
-0.0302854
-0.0105083
0.00591111
0.0194586
0.0307093
0.0398194
0.0451374
-0.185428
-0.178103
-0.160097
-0.132264
-0.100113
-0.0681979
-0.0391427
-0.0139869
0.00716589
0.0246081
0.0387562
0.0500883
0.0590111
0.0653487
0.0677826
-0.130389
-0.124601
-0.107346
-0.0808889
-0.0507033
-0.0211895
0.00523559
0.0277283
0.0462958
0.0612722
0.0730916
0.0821722
0.0885755
0.0916877
0.0910957
-0.0718191
-0.0674557
-0.0514607
-0.0267684
0.00102711
0.0277409
0.051227
0.0708317
0.0866661
0.0991247
0.108693
0.115731
0.119945
0.120514
0.118018
-0.0105743
-0.00758148
0.00680343
0.0293376
0.0543554
0.0779402
0.0982306
0.114752
0.127709
0.137563
0.144855
0.14991
0.152239
0.151501
0.153648
0.0525213
0.0540276
0.0665679
0.0866091
0.108529
0.128727
0.145626
0.158911
0.168863
0.175972
0.180753
0.183431
0.183728
0.182523
0.185588
0.116474
0.116411
0.126914
0.144198
0.16278
0.179412
0.192789
0.202745
0.20962
0.213917
0.216115
0.216414
0.21475
0.212328
0.213654
0.180274
0.178599
0.186917
0.201255
0.216342
0.229304
0.239097
0.245677
0.249431
0.250859
0.250411
0.248304
0.244628
0.240576
0.239618
0.242919
0.239624
0.245663
0.256945
0.268468
0.277738
0.283954
0.287181
0.287836
0.286408
0.283326
0.278809
0.273006
0.267036
0.26372
0.303433
0.29854
0.302265
0.310459
0.318433
0.324067
0.326782
0.326738
0.324369
0.320157
0.314505
0.307636
0.299724
0.291795
0.286152
0.360876
0.354439
0.355873
0.36103
0.365553
0.367681
0.36704
0.363866
0.358607
0.35173
0.34362
0.334493
0.324544
0.314699
0.306827
0.414365
0.406467
0.405694
0.407937
0.409184
0.408008
0.404218
0.398112
0.390149
0.380779
0.370369
0.359134
0.347278
0.335616
0.32564
0.463082
0.453833
0.450992
0.45052
0.448735
0.444523
0.437846
0.429059
0.418623
0.406974
0.394464
0.381307
0.367712
0.354373
0.342455
0.506286
0.495826
0.491108
0.488181
0.483675
0.476749
0.467502
0.456329
0.443695
0.430021
0.415645
0.400785
0.385648
0.370802
0.357141
0.543326
0.531815
0.525458
0.520395
0.513534
0.504268
0.49281
0.479588
0.465065
0.449652
0.433676
0.417358
0.400899
0.384749
0.369574
0.573644
0.561266
0.553548
0.546716
0.537913
0.526724
0.513452
0.498549
0.482478
0.465641
0.448354
0.430845
0.413305
0.396077
0.379651
0.596786
0.583743
0.574974
0.56678
0.556487
0.543826
0.529166
0.512979
0.495726
0.4778
0.459513
0.441096
0.422731
0.404674
0.387284
0.612409
0.598914
0.58943
0.580312
0.569009
0.555351
0.539753
0.522699
0.504648
0.485987
0.467025
0.447995
0.429073
0.410453
0.392409
0.620278
0.606556
0.59671
0.587124
0.575311
0.561152
0.545081
0.52759
0.509136
0.490104
0.470803
0.451464
0.432262
0.413358
0.394982
0.620278
0.606556
0.59671
0.587124
0.575311
0.561152
0.545081
0.52759
0.509136
0.490104
0.470803
0.451464
0.432262
0.413358
0.394982
0.612409
0.598914
0.58943
0.580312
0.569009
0.555351
0.539753
0.522699
0.504648
0.485987
0.467025
0.447995
0.429073
0.410453
0.392409
0.596786
0.583743
0.574974
0.56678
0.556487
0.543826
0.529165
0.512979
0.495726
0.4778
0.459513
0.441096
0.422731
0.404674
0.387284
0.573643
0.561266
0.553548
0.546716
0.537913
0.526724
0.513451
0.498549
0.482478
0.465641
0.448354
0.430845
0.413305
0.396077
0.379651
0.543325
0.531815
0.525458
0.520395
0.513534
0.504268
0.49281
0.479588
0.465065
0.449652
0.433675
0.417358
0.400899
0.384749
0.369574
0.506286
0.495825
0.491107
0.488181
0.483675
0.476749
0.467502
0.456329
0.443694
0.43002
0.415644
0.400785
0.385647
0.370802
0.357141
0.463082
0.453833
0.450992
0.45052
0.448735
0.444522
0.437846
0.429059
0.418623
0.406974
0.394464
0.381307
0.367712
0.354373
0.342455
0.414365
0.406467
0.405693
0.407937
0.409183
0.408008
0.404218
0.398112
0.390148
0.380778
0.370368
0.359133
0.347278
0.335616
0.32564
0.360876
0.354439
0.355873
0.361029
0.365552
0.367681
0.36704
0.363866
0.358607
0.35173
0.343619
0.334493
0.324543
0.314699
0.306827
0.303432
0.29854
0.302264
0.310458
0.318433
0.324066
0.326782
0.326738
0.324369
0.320156
0.314505
0.307635
0.299723
0.291795
0.286152
0.242919
0.239624
0.245663
0.256944
0.268467
0.277737
0.283953
0.287181
0.287835
0.286408
0.283326
0.278809
0.273006
0.267036
0.26372
0.180273
0.178598
0.186917
0.201255
0.216341
0.229304
0.239096
0.245677
0.249431
0.250858
0.250411
0.248304
0.244627
0.240576
0.239617
0.116474
0.11641
0.126914
0.144198
0.162779
0.179411
0.192789
0.202744
0.209619
0.213917
0.216115
0.216413
0.214749
0.212328
0.213653
0.0525206
0.0540269
0.0665672
0.0866084
0.108528
0.128727
0.145625
0.15891
0.168862
0.175972
0.180752
0.183431
0.183728
0.182522
0.185588
-0.0105751
-0.00758221
0.00680272
0.0293369
0.0543548
0.0779396
0.09823
0.114751
0.127709
0.137562
0.144855
0.14991
0.152238
0.151501
0.153648
-0.0718199
-0.0674565
-0.0514614
-0.0267691
0.00102643
0.0277402
0.0512264
0.0708312
0.0866655
0.0991242
0.108692
0.115731
0.119944
0.120513
0.118018
-0.13039
-0.124602
-0.107347
-0.0808896
-0.050704
-0.0211901
0.00523494
0.0277277
0.0462952
0.0612716
0.073091
0.0821717
0.088575
0.0916872
0.0910953
-0.185429
-0.178104
-0.160098
-0.132264
-0.100114
-0.0681987
-0.0391434
-0.0139876
0.00716527
0.0246075
0.0387556
0.0500878
0.0590106
0.0653482
0.0677821
-0.235897
-0.227347
-0.208737
-0.18035
-0.146532
-0.112693
-0.0813692
-0.0538226
-0.0302861
-0.0105089
0.00591052
0.0194581
0.0307088
0.0398189
0.0451369
-0.2812
-0.271661
-0.252672
-0.223984
-0.189603
-0.154163
-0.120977
-0.0913826
-0.0657422
-0.0438678
-0.025384
-0.00983162
0.00340716
0.0147016
0.022491
-0.32087
-0.31049
-0.291478
-0.262974
-0.22837
-0.192139
-0.157567
-0.126331
-0.0989332
-0.0752663
-0.0549931
-0.0376885
-0.0227391
-0.00965327
0.000149456
-0.354539
-0.343441
-0.324718
-0.296907
-0.262636
-0.226155
-0.190784
-0.158377
-0.129615
-0.104495
-0.0827356
-0.0639509
-0.0475505
-0.0329557
-0.0214528
-0.381986
-0.370295
-0.352116
-0.325448
-0.292111
-0.255982
-0.220377
-0.187298
-0.157592
-0.131379
-0.108456
-0.0884871
-0.0709284
-0.0551068
-0.0420692
-0.403163
-0.391011
-0.373576
-0.348428
-0.316581
-0.281423
-0.246168
-0.212928
-0.18272
-0.155802
-0.13205
-0.111194
-0.0927919
-0.0760968
-0.0617002
-0.418202
-0.405721
-0.38918
-0.365842
-0.335962
-0.302358
-0.268036
-0.235159
-0.2049
-0.177668
-0.153437
-0.132006
-0.113023
-0.0958405
-0.0807093
-0.4274
-0.41473
-0.399173
-0.377837
-0.350303
-0.318771
-0.285937
-0.253942
-0.224085
-0.196929
-0.172565
-0.150869
-0.131585
-0.114216
-0.0989672
-0.431212
-0.418494
-0.40396
-0.384714
-0.359787
-0.33075
-0.299907
-0.269289
-0.240277
-0.213575
-0.189403
-0.167722
-0.14835
-0.130877
-0.115442
-0.430221
-0.417604
-0.404089
-0.386918
-0.364726
-0.338493
-0.310063
-0.281273
-0.253522
-0.227634
-0.203954
-0.182536
-0.163262
-0.145784
-0.130166
-0.425111
-0.412747
-0.400219
-0.38502
-0.365559
-0.342301
-0.316603
-0.290028
-0.263921
-0.239185
-0.216282
-0.195362
-0.176388
-0.159075
-0.143395
-0.416631
-0.404675
-0.393086
-0.37969
-0.362834
-0.342579
-0.319809
-0.295751
-0.271623
-0.248353
-0.226499
-0.206311
-0.187839
-0.170882
-0.155304
-0.405556
-0.39416
-0.38346
-0.371661
-0.357184
-0.339821
-0.320037
-0.298697
-0.276818
-0.255296
-0.234748
-0.215514
-0.197734
-0.181307
-0.166008
-0.392646
-0.381951
-0.372102
-0.361681
-0.349295
-0.334594
-0.317716
-0.299173
-0.279734
-0.260193
-0.241182
-0.223111
-0.2062
-0.190458
-0.175612
-0.378615
-0.368745
-0.359718
-0.350474
-0.339863
-0.327509
-0.313331
-0.297538
-0.280629
-0.26324
-0.245965
-0.229246
-0.21337
-0.198457
-0.184227
-0.364099
-0.355149
-0.346932
-0.338694
-0.329552
-0.319186
-0.307403
-0.29419
-0.279791
-0.264648
-0.24926
-0.234063
-0.219379
-0.205425
-0.191957
-0.349632
-0.341669
-0.334257
-0.326895
-0.318954
-0.310215
-0.300466
-0.289561
-0.277542
-0.264646
-0.251237
-0.237696
-0.224347
-0.211476
-0.198895
-0.335643
-0.328695
-0.322087
-0.315509
-0.308555
-0.301117
-0.293029
-0.284096
-0.274224
-0.263479
-0.252066
-0.240274
-0.228383
-0.216713
-0.205122
-0.322447
-0.316509
-0.310697
-0.304843
-0.298717
-0.292315
-0.285541
-0.27822
-0.270196
-0.261411
-0.251927
-0.241914
-0.231576
-0.221222
-0.210711
-0.310258
-0.305292
-0.300258
-0.295087
-0.289679
-0.284112
-0.278366
-0.272316
-0.265808
-0.258721
-0.251011
-0.242736
-0.234002
-0.225077
-0.21574
-0.299198
-0.295138
-0.290849
-0.286329
-0.28157
-0.276699
-0.271759
-0.266691
-0.261377
-0.255688
-0.249526
-0.242867
-0.235724
-0.228332
-0.220269
-0.289314
-0.286073
-0.282484
-0.278584
-0.274424
-0.270158
-0.265872
-0.261562
-0.257163
-0.25257
-0.247681
-0.242441
-0.236798
-0.231004
-0.224407
-0.280593
-0.278072
-0.275124
-0.271808
-0.268211
-0.264493
-0.260761
-0.257053
-0.253347
-0.249582
-0.24568
-0.241598
-0.237274
-0.233048
-0.22814
-0.272975
-0.271071
-0.268698
-0.265926
-0.262857
-0.259647
-0.256409
-0.253202
-0.250034
-0.246879
-0.243695
-0.240474
-0.237201
-0.234313
-0.231592
-0.26637
-0.264982
-0.263114
-0.260838
-0.258263
-0.25553
-0.252747
-0.249978
-0.247248
-0.244548
-0.241858
-0.239195
-0.236625
-0.234565
-0.234428
-0.260663
-0.259699
-0.258267
-0.256437
-0.254317
-0.252029
-0.24967
-0.247302
-0.244948
-0.242603
-0.240244
-0.237881
-0.235607
-0.23357
-0.236787
-0.255732
-0.255111
-0.25405
-0.252614
-0.250905
-0.249026
-0.247061
-0.245061
-0.243044
-0.240992
-0.23886
-0.236611
-0.234191
-0.231309
-0.237
-0.251453
-0.251109
-0.25036
-0.249265
-0.24792
-0.246409
-0.2448
-0.243135
-0.24142
-0.23962
-0.237652
-0.235402
-0.232582
-0.227802
-0.222494
-0.247713
-0.247594
-0.247105
-0.246302
-0.245272
-0.244083
-0.24279
-0.241425
-0.239984
-0.238424
-0.236648
-0.234525
-0.231822
-0.227481
-0.221206
-0.244416
-0.24448
-0.244209
-0.243652
-0.242891
-0.241981
-0.240963
-0.239862
-0.23867
-0.237345
-0.235803
-0.233948
-0.231639
-0.228171
-0.223486
-0.241481
-0.241699
-0.241609
-0.24126
-0.240727
-0.240055
-0.239277
-0.238408
-0.237442
-0.236342
-0.235043
-0.233487
-0.231575
-0.228815
-0.225724
-0.238847
-0.239197
-0.23926
-0.239086
-0.238747
-0.23828
-0.23771
-0.23705
-0.236293
-0.235411
-0.23436
-0.233112
-0.231604
-0.229518
-0.227661
-0.236469
-0.236936
-0.23713
-0.237104
-0.236932
-0.236642
-0.236256
-0.235784
-0.235224
-0.234555
-0.233754
-0.232814
-0.231708
-0.230252
-0.229232
-0.234317
-0.23489
-0.235198
-0.235299
-0.235268
-0.235133
-0.234909
-0.234608
-0.234231
-0.233766
-0.233202
-0.232549
-0.231809
-0.230871
-0.230267
-0.232373
-0.233044
-0.233452
-0.233662
-0.233753
-0.23375
-0.233669
-0.23352
-0.233307
-0.233027
-0.232676
-0.232271
-0.23183
-0.231278
-0.230781
-0.230631
-0.231393
-0.23189
-0.232193
-0.232388
-0.232498
-0.232538
-0.23252
-0.232451
-0.23233
-0.232162
-0.231963
-0.231743
-0.231461
-0.231469
-0.229092
-0.229941
-0.230517
-0.230899
-0.23118
-0.231383
-0.231524
-0.231615
-0.231664
-0.231675
-0.231654
-0.231615
-0.231563
-0.231483
-0.231699
-0.22777
-0.228698
-0.22934
-0.229788
-0.230139
-0.230418
-0.23064
-0.230818
-0.230962
-0.231075
-0.231166
-0.231247
-0.23132
-0.231384
-0.231676
-0.226681
-0.227676
-0.228375
-0.228875
-0.229282
-0.229619
-0.229903
-0.230147
-0.230362
-0.230552
-0.230726
-0.230892
-0.231056
-0.231221
-0.23155
-0.225842
-0.226892
-0.227635
-0.228174
-0.228621
-0.229001
-0.22933
-0.229622
-0.229886
-0.230131
-0.230361
-0.230587
-0.230812
-0.231045
-0.231394
-0.225271
-0.22636
-0.227132
-0.227698
-0.228172
-0.22858
-0.228938
-0.229259
-0.229556
-0.229835
-0.230101
-0.230363
-0.230626
-0.2309
-0.231261
-0.224982
-0.22609
-0.226878
-0.227457
-0.227945
-0.228366
-0.228738
-0.229075
-0.229387
-0.229682
-0.229965
-0.230245
-0.230526
-0.23082
-0.231186
-0.232042
-0.232577
-0.233695
-0.234688
-0.235848
-0.237011
-0.238175
-0.239262
-0.240217
-0.24097
-0.24145
-0.241585
-0.241296
-0.240497
-0.239097
-0.237004
-0.234123
-0.230361
-0.225646
-0.219991
-0.213344
-0.205706
-0.197117
-0.187651
-0.177414
-0.166537
-0.155175
-0.143495
-0.131667
-0.119856
-0.108213
-0.0968768
-0.085962
-0.075564
-0.0657544
-0.0565861
-0.0480906
-0.0402912
-0.0331923
-0.026784
-0.021068
-0.0160014
-0.0116188
-0.00779303
-0.00472313
-0.00196228
-0.000371048
0.00175998
0.00101161
0.00389199
-0.232196
-0.232649
-0.233778
-0.234765
-0.235928
-0.237096
-0.238265
-0.239359
-0.240321
-0.241082
-0.241572
-0.241717
-0.241441
-0.240656
-0.239272
-0.237195
-0.234331
-0.230583
-0.225895
-0.220252
-0.213617
-0.205989
-0.197406
-0.187944
-0.177705
-0.166825
-0.155456
-0.143766
-0.131927
-0.120103
-0.108446
-0.0970972
-0.0861691
-0.0757582
-0.0659364
-0.0567571
-0.0482501
-0.040441
-0.0333333
-0.0269165
-0.0211933
-0.0161192
-0.011731
-0.00789807
-0.00482418
-0.00205561
-0.000459653
0.00167767
0.000954479
0.00380979
-0.232496
-0.23278
-0.233936
-0.234912
-0.236079
-0.237255
-0.238434
-0.239541
-0.240516
-0.241293
-0.241801
-0.241967
-0.241714
-0.240956
-0.239603
-0.237558
-0.234726
-0.231006
-0.226361
-0.220747
-0.214138
-0.20653
-0.19796
-0.188504
-0.178266
-0.16738
-0.155998
-0.144292
-0.132432
-0.120585
-0.108904
-0.0975293
-0.0865763
-0.0761411
-0.0662961
-0.0570962
-0.0485656
-0.0407388
-0.0336137
-0.0271802
-0.0214426
-0.0163537
-0.0119542
-0.00810686
-0.00502459
-0.00224041
-0.000634285
0.00151612
0.000843283
0.0036509
-0.232927
-0.232951
-0.234149
-0.23511
-0.236283
-0.237471
-0.238663
-0.239786
-0.24078
-0.241578
-0.24211
-0.242305
-0.242085
-0.241366
-0.240055
-0.238056
-0.235269
-0.231591
-0.227004
-0.221434
-0.214862
-0.207284
-0.198735
-0.189292
-0.179057
-0.168164
-0.156768
-0.14504
-0.133154
-0.121277
-0.109563
-0.0981556
-0.0871684
-0.0767
-0.0668225
-0.0575904
-0.0490344
-0.0411787
-0.0340284
-0.027571
-0.0218123
-0.0167016
-0.0122851
-0.00841619
-0.00532056
-0.00251278
-0.000889847
0.00128097
0.00068371
0.00342552
-0.233467
-0.233132
-0.234395
-0.235338
-0.236517
-0.237716
-0.238924
-0.240065
-0.241081
-0.241904
-0.242466
-0.242695
-0.242515
-0.241843
-0.240585
-0.238642
-0.23591
-0.23228
-0.227767
-0.222255
-0.215732
-0.208195
-0.199675
-0.190252
-0.180025
-0.169129
-0.157721
-0.145972
-0.134058
-0.122148
-0.110397
-0.0989525
-0.0879243
-0.0774169
-0.067502
-0.0582325
-0.0496425
-0.0417525
-0.0345707
-0.0280828
-0.0222969
-0.0171579
-0.0127187
-0.00882129
-0.0057066
-0.00286718
-0.00121916
0.000979636
0.000483371
0.00314731
-0.234103
-0.23329
-0.234646
-0.235572
-0.236753
-0.237963
-0.239185
-0.240345
-0.241383
-0.242234
-0.242828
-0.243095
-0.24296
-0.24234
-0.241141
-0.239262
-0.236592
-0.233037
-0.228595
-0.22315
-0.216685
-0.209199
-0.200718
-0.191323
-0.181112
-0.170222
-0.158806
-0.14704
-0.135103
-0.123164
-0.11137
-0.0998895
-0.088823
-0.0782744
-0.068318
-0.0590078
-0.0503788
-0.04245
-0.0352318
-0.0287081
-0.0228896
-0.0177163
-0.0132486
-0.00931602
-0.00617575
-0.00329676
-0.0016135
0.000620495
0.000250753
0.0028316
-0.234857
-0.233378
-0.234874
-0.235785
-0.236963
-0.238182
-0.239415
-0.240592
-0.241651
-0.242529
-0.243156
-0.243463
-0.243375
-0.242811
-0.241676
-0.239865
-0.237262
-0.233848
-0.229431
-0.224055
-0.217658
-0.210233
-0.2018
-0.192446
-0.182262
-0.171389
-0.15997
-0.148194
-0.136242
-0.124278
-0.112461
-0.100943
-0.089839
-0.0792504
-0.0692526
-0.0599005
-0.0512304
-0.0432601
-0.0360018
-0.0294379
-0.023582
-0.0183691
-0.0138672
-0.00989297
-0.00671981
-0.00379373
-0.00206318
0.000212309
-5.8538e-06
0.00249366
-0.235745
-0.233376
-0.235056
-0.235957
-0.237123
-0.238344
-0.239583
-0.240773
-0.241851
-0.242754
-0.243413
-0.24376
-0.24372
-0.243213
-0.242143
-0.240398
-0.237811
-0.234514
-0.230208
-0.224916
-0.218596
-0.211248
-0.202853
-0.193559
-0.183416
-0.172568
-0.161171
-0.149403
-0.137445
-0.125467
-0.11363
-0.102085
-0.0909485
-0.0803242
-0.0702879
-0.0608952
-0.0521834
-0.0441703
-0.0368695
-0.0302622
-0.0243649
-0.0191076
-0.0145658
-0.0105438
-0.00732974
-0.00434973
-0.00255825
-0.000236194
-0.000279172
0.00214709
-0.236304
-0.233481
-0.23514
-0.236071
-0.23721
-0.238421
-0.239661
-0.240858
-0.241951
-0.242876
-0.243566
-0.243951
-0.243959
-0.243506
-0.2425
-0.240826
-0.23846
-0.235112
-0.230885
-0.225678
-0.21944
-0.212164
-0.203862
-0.194623
-0.184534
-0.173729
-0.162366
-0.15062
-0.138672
-0.126695
-0.11485
-0.103289
-0.0921297
-0.0814764
-0.0714063
-0.061976
-0.053224
-0.045168
-0.0378233
-0.0311701
-0.0252279
-0.0199219
-0.0153349
-0.0112594
-0.00799593
-0.00495611
-0.00308899
-0.000716578
-0.000563294
0.00180276
-0.236927
-0.23359
-0.235098
-0.236108
-0.237198
-0.238392
-0.239623
-0.24082
-0.241923
-0.242867
-0.243584
-0.244005
-0.244057
-0.24366
-0.242712
-0.24104
-0.23877
-0.235555
-0.231423
-0.226305
-0.220157
-0.212968
-0.204754
-0.195592
-0.185574
-0.174831
-0.163519
-0.151814
-0.139894
-0.127935
-0.116098
-0.104533
-0.0933613
-0.0826874
-0.0725898
-0.0631261
-0.0543364
-0.0462385
-0.0388497
-0.0321489
-0.026159
-0.0208009
-0.0161633
-0.0120297
-0.00870804
-0.00560379
-0.00364605
-0.00122067
-0.00085351
0.00146837
-0.23765
-0.233633
-0.234945
-0.236032
-0.237062
-0.23822
-0.239434
-0.240627
-0.241736
-0.242696
-0.243439
-0.243894
-0.243988
-0.243645
-0.242758
-0.241308
-0.238958
-0.235826
-0.231785
-0.226761
-0.22071
-0.213618
-0.205501
-0.196432
-0.186501
-0.175838
-0.164597
-0.152952
-0.14108
-0.129156
-0.117342
-0.105787
-0.0946157
-0.0839311
-0.0738139
-0.0643227
-0.0554993
-0.0473621
-0.0399302
-0.0331818
-0.0271428
-0.0217302
-0.0170379
-0.0128426
-0.00945458
-0.00628272
-0.00422038
-0.00174028
-0.00114605
0.00114864
-0.238392
-0.233622
-0.234665
-0.235823
-0.236777
-0.237879
-0.239068
-0.240252
-0.241366
-0.24234
-0.243106
-0.243594
-0.243726
-0.243429
-0.242567
-0.24115
-0.23893
-0.235892
-0.231941
-0.227013
-0.221064
-0.214077
-0.206068
-0.197105
-0.187279
-0.176715
-0.165565
-0.154
-0.142196
-0.130327
-0.118554
-0.107026
-0.0958676
-0.0851842
-0.0750572
-0.0655464
-0.0566952
-0.0485228
-0.0410504
-0.0342554
-0.0281669
-0.0226984
-0.0179481
-0.0136881
-0.0102265
-0.00698422
-0.00480551
-0.00226839
-0.00143921
0.000845005
-0.239031
-0.233632
-0.234369
-0.23556
-0.236398
-0.237406
-0.238546
-0.239709
-0.240818
-0.241799
-0.24258
-0.24309
-0.243255
-0.242995
-0.242272
-0.240822
-0.238686
-0.235733
-0.231875
-0.227051
-0.221214
-0.214346
-0.206464
-0.197629
-0.18793
-0.17749
-0.166457
-0.154998
-0.143287
-0.131494
-0.119782
-0.108297
-0.0971654
-0.0864931
-0.0763631
-0.0668367
-0.0579596
-0.0497514
-0.0422366
-0.0353912
-0.0292487
-0.0237186
-0.0189035
-0.0145724
-0.0110279
-0.00770953
-0.00540286
-0.00280418
-0.00173463
0.000552495
-0.239492
-0.233708
-0.234056
-0.235223
-0.235873
-0.236723
-0.237783
-0.238913
-0.240012
-0.240994
-0.241787
-0.242327
-0.242542
-0.242326
-0.241616
-0.24026
-0.238213
-0.235358
-0.231615
-0.226918
-0.221221
-0.214506
-0.206785
-0.198114
-0.18858
-0.178299
-0.167416
-0.156091
-0.144495
-0.132797
-0.121157
-0.109722
-0.0986191
-0.0879558
-0.0778176
-0.0682677
-0.0593549
-0.0511
-0.043531
-0.0366233
-0.030414
-0.0248111
-0.0199175
-0.0155066
-0.0118632
-0.00846465
-0.00601035
-0.00335269
-0.00202569
0.000259586
-0.238017
-0.231659
-0.232268
-0.233665
-0.234278
-0.235056
-0.23612
-0.237322
-0.238515
-0.239587
-0.240461
-0.241079
-0.241396
-0.241329
-0.240617
-0.239343
-0.237386
-0.234632
-0.231001
-0.226427
-0.220864
-0.214292
-0.206722
-0.198207
-0.188829
-0.178703
-0.167966
-0.156777
-0.145302
-0.133708
-0.122154
-0.110787
-0.099735
-0.0891055
-0.0789858
-0.0694408
-0.0605207
-0.0522484
-0.0446517
-0.0377102
-0.0314552
-0.0258064
-0.0208461
-0.0163821
-0.0126371
-0.00918821
-0.00656619
-0.00388507
-0.00227139
-2.49293e-05
-0.206061
-0.206556
-0.213911
-0.219115
-0.221781
-0.223513
-0.225372
-0.227538
-0.229778
-0.231825
-0.233519
-0.234786
-0.235583
-0.235872
-0.235607
-0.234655
-0.232939
-0.23039
-0.226944
-0.222547
-0.217163
-0.210786
-0.203442
-0.195189
-0.186116
-0.176338
-0.165989
-0.155219
-0.144185
-0.133042
-0.121939
-0.111011
-0.100377
-0.0901365
-0.0803711
-0.0711409
-0.06249
-0.0544438
-0.0470182
-0.0402097
-0.0340168
-0.0284103
-0.0233845
-0.0188809
-0.0149044
-0.0113523
-0.00826125
-0.00545799
-0.00304525
-0.00077102
-0.177124
-0.188637
-0.194803
-0.198304
-0.200934
-0.203519
-0.206239
-0.208928
-0.211329
-0.213252
-0.214617
-0.215416
-0.215651
-0.2153
-0.214318
-0.21269
-0.21034
-0.207321
-0.203641
-0.199269
-0.194174
-0.18835
-0.181821
-0.174637
-0.166863
-0.158583
-0.149891
-0.140891
-0.13169
-0.122396
-0.113112
-0.103935
-0.0949506
-0.0862369
-0.0778551
-0.0698558
-0.0622744
-0.0551378
-0.0484585
-0.0422439
-0.0364875
-0.0311815
-0.0263036
-0.0218339
-0.0177349
-0.0139782
-0.0105085
-0.00729494
-0.00426511
-0.00141055
-0.152555
-0.161352
-0.166225
-0.169062
-0.17142
-0.173947
-0.176654
-0.17928
-0.181557
-0.183323
-0.184544
-0.185251
-0.185495
-0.185321
-0.18476
-0.183827
-0.182489
-0.180511
-0.177774
-0.174293
-0.170137
-0.165374
-0.160053
-0.154217
-0.147914
-0.141203
-0.134154
-0.126841
-0.119342
-0.111737
-0.1041
-0.096504
-0.0890104
-0.0816764
-0.0745485
-0.067669
-0.0610668
-0.0547692
-0.0487868
-0.043134
-0.0378034
-0.0327998
-0.0280978
-0.0236977
-0.019554
-0.0156697
-0.0119745
-0.00848365
-0.0050871
-0.00181296
-0.123298
-0.132769
-0.138279
-0.141738
-0.144644
-0.147621
-0.150688
-0.153621
-0.156204
-0.158325
-0.159957
-0.161115
-0.161825
-0.162092
-0.161874
-0.1611
-0.159711
-0.157741
-0.155261
-0.152298
-0.148856
-0.144945
-0.140589
-0.135821
-0.130679
-0.125207
-0.119454
-0.113474
-0.107323
-0.101058
-0.0947331
-0.088401
-0.0821082
-0.0758991
-0.0698098
-0.0638753
-0.0581195
-0.0525669
-0.0472272
-0.0421156
-0.0372268
-0.0325702
-0.0281246
-0.0238977
-0.0198496
-0.0159936
-0.0122642
-0.00869054
-0.00517301
-0.00178424
-0.100695
-0.109401
-0.115176
-0.119216
-0.122598
-0.125846
-0.129032
-0.132015
-0.134631
-0.13678
-0.138431
-0.13959
-0.140265
-0.140458
-0.14018
-0.139462
-0.13835
-0.136868
-0.13497
-0.132639
-0.129883
-0.126729
-0.123205
-0.119339
-0.115163
-0.110712
-0.106022
-0.101133
-0.096084
-0.0909168
-0.0856714
-0.0803873
-0.0750998
-0.0698433
-0.0646459
-0.0595359
-0.054532
-0.0496558
-0.0449152
-0.0403256
-0.035883
-0.0315998
-0.027458
-0.0234713
-0.0196049
-0.0158809
-0.012241
-0.00872799
-0.00524541
-0.00186344
-0.0835245
-0.0911036
-0.0966153
-0.100763
-0.104258
-0.107493
-0.110559
-0.113383
-0.115853
-0.117895
-0.119482
-0.120622
-0.121337
-0.121658
-0.121613
-0.121214
-0.120456
-0.119319
-0.117814
-0.115949
-0.113735
-0.111189
-0.10833
-0.105185
-0.101776
-0.0981313
-0.0942777
-0.090245
-0.0860628
-0.0817625
-0.0773738
-0.072927
-0.0684487
-0.063966
-0.0595004
-0.0550746
-0.0507033
-0.0464052
-0.0421871
-0.0380643
-0.0340339
-0.0301099
-0.0262779
-0.0225548
-0.0189108
-0.0153721
-0.0118865
-0.0084987
-0.00511669
-0.00181294
-0.0698615
-0.0764464
-0.0814348
-0.0853478
-0.0887002
-0.0917797
-0.0946592
-0.0972928
-0.0996053
-0.101544
-0.103093
-0.104261
-0.10507
-0.105538
-0.105675
-0.105482
-0.104956
-0.104102
-0.102931
-0.101454
-0.0996824
-0.0976304
-0.0953133
-0.0927486
-0.0899558
-0.0869559
-0.0837706
-0.0804226
-0.0769347
-0.0733304
-0.0696323
-0.065864
-0.0620463
-0.0582008
-0.0543446
-0.0504965
-0.0466683
-0.0428763
-0.0391262
-0.0354325
-0.0317931
-0.0282224
-0.0247084
-0.0212693
-0.0178792
-0.0145657
-0.0112819
-0.00807402
-0.00485938
-0.00171566
-0.0589835
-0.0646128
-0.0690156
-0.0725742
-0.0756747
-0.0785329
-0.0812012
-0.0836432
-0.0858018
-0.0876379
-0.0891387
-0.0903097
-0.091163
-0.0917097
-0.0919566
-0.0919083
-0.0915696
-0.090947
-0.0900519
-0.0888941
-0.0874836
-0.0858316
-0.08395
-0.0818527
-0.0795552
-0.0770743
-0.074427
-0.0716315
-0.0687053
-0.0656671
-0.0625344
-0.0593256
-0.056057
-0.0527459
-0.0494059
-0.0460527
-0.0426958
-0.0393494