/*--------------------------------*- C++ -*----------------------------------*\
  =========                 |
  \\      /  F ield         | OpenFOAM: The Open Source CFD Toolbox
   \\    /   O peration     | Website:  https://openfoam.org
    \\  /    A nd           | Version:  7
     \\/     M anipulation  |
\*---------------------------------------------------------------------------*/
FoamFile
{
    version     2.0;
    format      ascii;
    class       volScalarField;
    location    "15";
    object      p;
}
// * * * * * * * * * * * * * * * * * * * * * * * * * * * * * * * * * * * * * //

dimensions      [0 2 -2 0 0 0 0];

internalField   nonuniform List<scalar> 
3312
(
-0.253009
-0.26041
-0.255405
-0.261106
-0.257839
-0.263999
-0.261918
-0.260034
-0.265322
-0.264242
-0.262815
-0.261879
-0.265199
-0.264512
-0.263643
-0.26325
-0.265392
-0.265066
-0.264722
-0.264314
-0.264136
-0.264963
-0.264878
-0.264794
-0.264672
-0.264898
-0.264413
-0.264512
-0.264621
-0.264745
-0.264865
-0.265365
-0.263814
-0.26405
-0.264307
-0.264589
-0.264896
-0.265532
-0.26327
-0.263607
-0.263972
-0.264373
-0.264818
-0.26553
-0.262817
-0.263225
-0.263665
-0.264149
-0.264692
-0.26545
-0.262491
-0.262943
-0.263431
-0.263966
-0.264572
-0.265357
-0.261871
-0.262321
-0.262793
-0.263304
-0.263864
-0.2645
-0.265299
-0.239018
-0.207817
-0.179912
-0.147774
-0.122531
-0.103013
-0.0872821
-0.0746228
-0.0642577
-0.0557031
-0.0485696
-0.0425675
-0.0374793
-0.0331362
-0.0294068
-0.0261873
-0.023395
-0.0209629
-0.0188369
-0.016973
-0.0153336
-0.0138875
-0.012609
-0.0114762
-0.0104706
-0.00957653
-0.00878049
-0.00807093
-0.00743786
-0.00687263
-0.00636772
-0.00591655
-0.0055134
-0.00515324
-0.00483166
-0.00454481
-0.00428938
-0.00406244
-0.00386141
-0.00368405
-0.00352837
-0.00339266
-0.00327546
-0.00317549
-0.00309167
-0.00302314
-0.00296915
-0.00292913
-0.00290268
-0.00288949
-0.239333
-0.220485
-0.190019
-0.158219
-0.131943
-0.111059
-0.0941341
-0.0803712
-0.0690933
-0.0597787
-0.0520159
-0.0454935
-0.0399734
-0.0352706
-0.0312402
-0.0277674
-0.024761
-0.0221469
-0.0198655
-0.017868
-0.0161136
-0.0145683
-0.0132037
-0.0119961
-0.0109254
-0.00997433
-0.00912846
-0.00837521
-0.00770377
-0.00710481
-0.00657022
-0.00609293
-0.00566676
-0.00528635
-0.00494694
-0.00464442
-0.00437523
-0.00413622
-0.00392462
-0.00373803
-0.00357435
-0.00343174
-0.00330863
-0.00320366
-0.00311569
-0.00304378
-0.00298714
-0.00294518
-0.00291744
-0.00290362
-0.246884
-0.227809
-0.195813
-0.164348
-0.138078
-0.116701
-0.0990766
-0.0846148
-0.0727163
-0.0628653
-0.0546461
-0.0477393
-0.0418966
-0.0369228
-0.032664
-0.0289983
-0.0258279
-0.0230741
-0.020673
-0.0185726
-0.0167291
-0.0151067
-0.0136751
-0.0124091
-0.0112873
-0.0102916
-0.00940651
-0.0086188
-0.00791704
-0.00729136
-0.0067332
-0.00623511
-0.00579059
-0.00539397
-0.00504028
-0.00472518
-0.00444491
-0.00419616
-0.00397603
-0.00378198
-0.0036118
-0.00346359
-0.00333567
-0.00322663
-0.00313527
-0.0030606
-0.00300181
-0.00295824
-0.00292946
-0.00291512
-0.253292
-0.232828
-0.199484
-0.168263
-0.142302
-0.120796
-0.102766
-0.0878577
-0.0755348
-0.0652981
-0.0567401
-0.0495419
-0.0434508
-0.0382657
-0.0338273
-0.0300083
-0.026707
-0.0238409
-0.0213431
-0.0191589
-0.0172428
-0.0155571
-0.0140703
-0.012756
-0.0115919
-0.010559
-0.00964118
-0.00882463
-0.00809741
-0.00744924
-0.00687118
-0.0063555
-0.00589543
-0.00548504
-0.0051192
-0.00479337
-0.00450363
-0.00424654
-0.00401912
-0.00381867
-0.00364291
-0.00348988
-0.00335783
-0.00324528
-0.00315099
-0.00307394
-0.00301329
-0.00296835
-0.00293866
-0.00292387
-0.258125
-0.237524
-0.202797
-0.171628
-0.145835
-0.12417
-0.105824
-0.0905824
-0.0779338
-0.0673901
-0.0585565
-0.0511177
-0.0448186
-0.0394545
-0.0348621
-0.0309108
-0.0274955
-0.0245308
-0.0219476
-0.0196891
-0.0177082
-0.0159658
-0.0144294
-0.0130715
-0.011869
-0.0108024
-0.00985475
-0.00901185
-0.00826135
-0.00759256
-0.00699624
-0.0064644
-0.00599002
-0.00556696
-0.00518989
-0.00485418
-0.0045557
-0.00429091
-0.00405675
-0.00385038
-0.00366947
-0.00351199
-0.00337611
-0.00326031
-0.00316332
-0.00308408
-0.0030217
-0.00297548
-0.00294496
-0.00292975
-0.262953
-0.242723
-0.206451
-0.175152
-0.149252
-0.127258
-0.108577
-0.0930432
-0.0801109
-0.0692985
-0.0602234
-0.0525723
-0.0460879
-0.0405627
-0.0358308
-0.0317585
-0.0282381
-0.0251822
-0.0225194
-0.0201913
-0.0181495
-0.0163536
-0.0147701
-0.0133708
-0.0121319
-0.011033
-0.0100569
-0.00918878
-0.00841597
-0.00772742
-0.00711358
-0.0065662
-0.00607812
-0.00564287
-0.00525501
-0.00490982
-0.00460293
-0.00433073
-0.00409012
-0.00387806
-0.0036922
-0.00353045
-0.0033909
-0.003272
-0.00317242
-0.00309107
-0.00302703
-0.0029796
-0.00294827
-0.00293268
-0.268907
-0.248491
-0.210391
-0.17888
-0.15261
-0.13013
-0.111093
-0.0952876
-0.0820964
-0.0710436
-0.0617551
-0.0539155
-0.0472653
-0.0415951
-0.0367364
-0.0325535
-0.0289364
-0.0257959
-0.0230589
-0.0206658
-0.0185667
-0.0167203
-0.0150924
-0.0136538
-0.0123801
-0.0112506
-0.0102473
-0.00935512
-0.008561
-0.00785356
-0.00722293
-0.00666067
-0.0061595
-0.00571258
-0.00531436
-0.00496011
-0.00464517
-0.00436588
-0.00411908
-0.00390158
-0.003711
-0.00354514
-0.00340209
-0.00328023
-0.00317819
-0.00309483
-0.00302921
-0.00298062
-0.00294853
-0.00293256
-0.276208
-0.254499
-0.214244
-0.182567
-0.155699
-0.132665
-0.113298
-0.097254
-0.0838347
-0.0725778
-0.0631098
-0.0551109
-0.0483193
-0.042524
-0.0375551
-0.0332749
-0.0295721
-0.026356
-0.0235524
-0.0211004
-0.0189493
-0.0170569
-0.0153882
-0.0139135
-0.0126079
-0.01145
-0.0104215
-0.00950696
-0.00869304
-0.00796805
-0.00732179
-0.00674564
-0.00623231
-0.00577448
-0.00536664
-0.00500385
-0.00468142
-0.00439557
-0.00414289
-0.00392035
-0.00372539
-0.0035557
-0.00340939
-0.00328478
-0.00318045
-0.00309522
-0.00302813
-0.00297846
-0.00294566
-0.00292934
-0.284517
-0.260279
-0.217679
-0.185885
-0.158253
-0.134707
-0.115088
-0.0988569
-0.0852557
-0.0738438
-0.0642397
-0.0561177
-0.0492149
-0.0433197
-0.0382612
-0.0339009
-0.0301265
-0.0268465
-0.0239859
-0.0214833
-0.0192869
-0.0173543
-0.0156498
-0.0141431
-0.0128092
-0.0116261
-0.0105751
-0.00964053
-0.00880883
-0.00806807
-0.00740774
-0.00681904
-0.00629472
-0.00582703
-0.0054105
-0.00503992
-0.00471074
-0.00441895
-0.00416097
-0.00393388
-0.00373494
-0.00356181
-0.00341254
-0.00328543
-0.00317902
-0.0030921
-0.00302369
-0.00297304
-0.00293959
-0.00292295
-0.293285
-0.265395
-0.220516
-0.188572
-0.160056
-0.136151
-0.116386
-0.100035
-0.0863127
-0.074805
-0.0651144
-0.0569106
-0.049931
-0.0439644
-0.0388397
-0.0344185
-0.0305885
-0.0272577
-0.0243514
-0.0218074
-0.0195737
-0.0176075
-0.0158727
-0.014339
-0.0129808
-0.011776
-0.0107056
-0.00975371
-0.00890651
-0.008152
-0.00747939
-0.00687979
-0.00634552
-0.00586929
-0.00544516
-0.00506773
-0.00473261
-0.00443559
-0.00417299
-0.00394185
-0.00373939
-0.00356324
-0.00341136
-0.00328204
-0.00317378
-0.00308537
-0.0030158
-0.00296428
-0.00293026
-0.00291334
-0.301908
-0.269457
-0.2227
-0.190419
-0.161002
-0.136966
-0.117151
-0.100759
-0.0869881
-0.0754496
-0.0657245
-0.0574821
-0.0504616
-0.0444529
-0.0392863
-0.0348243
-0.0309552
-0.0275873
-0.0246465
-0.0220708
-0.0198079
-0.0178149
-0.0160558
-0.0144999
-0.0131217
-0.011899
-0.0108123
-0.00984588
-0.00898555
-0.00821921
-0.00753623
-0.00692734
-0.00638463
-0.00590104
-0.0054704
-0.00508716
-0.00474689
-0.00444534
-0.00417879
-0.00394415
-0.00373865
-0.00355987
-0.00340575
-0.00327452
-0.00316467
-0.00307496
-0.00300438
-0.00295212
-0.00291761
-0.00290044
-0.309699
-0.272065
-0.224257
-0.191206
-0.161115
-0.137148
-0.117366
-0.101027
-0.0872824
-0.0757806
-0.0660738
-0.057836
-0.0508099
-0.0447881
-0.0396033
-0.03512
-0.0312282
-0.0278371
-0.0248716
-0.0222743
-0.0199902
-0.0179772
-0.0161995
-0.0146264
-0.0132323
-0.0119949
-0.0108953
-0.0099171
-0.00904601
-0.00827
-0.00757841
-0.00696182
-0.00641213
-0.00592237
-0.00548625
-0.00509818
-0.00475359
-0.0044482
-0.00417832
-0.00394073
-0.00373267
-0.00355168
-0.00339566
-0.00326282
-0.00315163
-0.00306083
-0.00298939
-0.00293651
-0.00290158
-0.00288421
-0.315904
-0.272906
-0.225059
-0.190696
-0.16051
-0.136682
-0.117051
-0.100817
-0.0872125
-0.075809
-0.0661712
-0.0579799
-0.0509823
-0.0449751
-0.0397949
-0.0353091
-0.03141
-0.0280082
-0.0250303
-0.022419
-0.0201215
-0.0180951
-0.0163044
-0.014719
-0.013313
-0.0120647
-0.0109552
-0.00996775
-0.00908826
-0.00830464
-0.00760617
-0.00698341
-0.00642815
-0.00593339
-0.00549281
-0.00510082
-0.0047527
-0.00444419
-0.00417157
-0.0039316
-0.00372144
-0.00353863
-0.00338106
-0.00324691
-0.00313463
-0.00304294
-0.00297081
-0.0029174
-0.00288213
-0.00286459
-0.319673
-0.271915
-0.224406
-0.189045
-0.159101
-0.135565
-0.116199
-0.100187
-0.0867955
-0.0755486
-0.0660281
-0.0579225
-0.0509854
-0.0450191
-0.0398651
-0.0353946
-0.0315028
-0.0281027
-0.0251232
-0.0225071
-0.0202033
-0.0181697
-0.0163714
-0.0147782
-0.0133643
-0.0121087
-0.0109921
-0.00999809
-0.00911251
-0.00832324
-0.0076196
-0.00699215
-0.00643268
-0.0059341
-0.00549007
-0.00509505
-0.00474421
-0.00443329
-0.00415854
-0.0039167
-0.00370492
-0.00352071
-0.00336193
-0.00322676
-0.00311363
-0.00302125
-0.00294858
-0.00289478
-0.00285924
-0.00284158
-0.320267
-0.268925
-0.221846
-0.186293
-0.156848
-0.133794
-0.114825
-0.0991499
-0.086043
-0.0750116
-0.0656547
-0.0576721
-0.0508256
-0.0449249
-0.0398175
-0.0353793
-0.031509
-0.0281227
-0.0251518
-0.0225393
-0.0202363
-0.0182016
-0.0164008
-0.0148042
-0.0133866
-0.012127
-0.0110062
-0.0100081
-0.00911868
-0.00832574
-0.00761864
-0.00698801
-0.00642564
-0.00592441
-0.00547798
-0.00508081
-0.00472806
-0.00441544
-0.00413918
-0.00389602
-0.00368308
-0.00349788
-0.00333824
-0.00320234
-0.00308861
-0.00299574
-0.00292268
-0.0028686
-0.00283288
-0.00281512
-0.317066
-0.263572
-0.217305
-0.182387
-0.153757
-0.131375
-0.112945
-0.097713
-0.084963
-0.0742053
-0.0650578
-0.0572344
-0.0505076
-0.0446964
-0.0396551
-0.0352655
-0.0314304
-0.0280695
-0.0251166
-0.022516
-0.0202207
-0.0181908
-0.0163926
-0.0147972
-0.0133798
-0.0121194
-0.0109974
-0.00999776
-0.00910667
-0.00831201
-0.00760319
-0.00697089
-0.00640695
-0.00590424
-0.00545646
-0.00505806
-0.0047042
-0.00439058
-0.00411344
-0.0038695
-0.00365589
-0.00347009
-0.00330996
-0.00317363
-0.00305954
-0.00296639
-0.00289311
-0.00283886
-0.00280303
-0.00278522
-0.309548
-0.255572
-0.210867
-0.177294
-0.149839
-0.12832
-0.110574
-0.0958896
-0.0835672
-0.0731385
-0.064244
-0.0566145
-0.0500356
-0.0443367
-0.0393805
-0.0350551
-0.0312684
-0.0279439
-0.025018
-0.0224374
-0.0201567
-0.0181376
-0.0163471
-0.0147572
-0.0133437
-0.0120858
-0.0109655
-0.00996691
-0.0090764
-0.00828197
-0.00757315
-0.0069407
-0.00637653
-0.00587354
-0.00542546
-0.00502675
-0.00467258
-0.00435869
-0.0040813
-0.00383713
-0.00362331
-0.00343734
-0.00327706
-0.00314061
-0.00302642
-0.00293318
-0.00285983
-0.00280554
-0.00276968
-0.00275185
-0.297471
-0.244821
-0.202692
-0.171052
-0.145105
-0.12465
-0.107734
-0.0936959
-0.0818704
-0.0718231
-0.0632224
-0.0558194
-0.0494147
-0.0438497
-0.0389965
-0.0347503
-0.0310245
-0.0277468
-0.0248571
-0.0223042
-0.0200449
-0.0180422
-0.0162644
-0.0146843
-0.0132784
-0.0120264
-0.0109106
-0.00991559
-0.00902786
-0.00823562
-0.00752852
-0.00689745
-0.00633438
-0.00583229
-0.00538495
-0.00498686
-0.0046332
-0.00431974
-0.00404273
-0.00379888
-0.00358534
-0.00339961
-0.00323953
-0.00310326
-0.00298922
-0.00289611
-0.00282286
-0.00276864
-0.00273283
-0.00271502
-0.280937
-0.231398
-0.193006
-0.163754
-0.139593
-0.120402
-0.104454
-0.0911541
-0.0798903
-0.0702732
-0.0620044
-0.0548579
-0.0486517
-0.0432406
-0.038507
-0.034354
-0.0307009
-0.0274803
-0.0246352
-0.0221175
-0.019886
-0.0179053
-0.016145
-0.0145789
-0.0131842
-0.0119413
-0.0108329
-0.00984393
-0.00896115
-0.00817302
-0.00746935
-0.00684116
-0.00628054
-0.00578052
-0.00533495
-0.0049384
-0.00458607
-0.00427376
-0.00399774
-0.00375477
-0.00354198
-0.00335691
-0.0031974
-0.00306161
-0.00294797
-0.00285518
-0.00278219
-0.00272816
-0.00269247
-0.00267473
-0.260466
-0.215672
-0.181996
-0.15552
-0.133375
-0.115629
-0.100773
-0.0882937
-0.0776491
-0.0685057
-0.060603
-0.0537403
-0.0477546
-0.0425157
-0.037917
-0.0338701
-0.0303008
-0.0271466
-0.0243543
-0.0218788
-0.0196811
-0.0177277
-0.0159896
-0.0144415
-0.0130616
-0.0118309
-0.0107327
-0.00975213
-0.00887646
-0.00809433
-0.00739577
-0.00677194
-0.00621507
-0.00571829
-0.00527552
-0.00488141
-0.00453122
-0.00422076
-0.00394637
-0.00370481
-0.00349326
-0.00330926
-0.00315067
-0.00301565
-0.00290266
-0.00281041
-0.00273784
-0.00268411
-0.00264864
-0.002631
-0.236953
-0.198222
-0.169859
-0.146488
-0.126546
-0.110401
-0.096743
-0.0851499
-0.0751727
-0.0665404
-0.0590334
-0.0524781
-0.0467325
-0.0416819
-0.0372319
-0.0333029
-0.0298275
-0.0267483
-0.0240165
-0.0215897
-0.0194316
-0.0175105
-0.0157989
-0.0142728
-0.0129112
-0.0116957
-0.0106102
-0.00964049
-0.00877402
-0.00799974
-0.00730792
-0.00668992
-0.00613809
-0.00564569
-0.00520675
-0.00481598
-0.0044687
-0.00416081
-0.00388866
-0.00364906
-0.00343921
-0.00325669
-0.00309936
-0.00296542
-0.00285334
-0.00276182
-0.00268982
-0.00263653
-0.00260133
-0.00258384
-0.21152
-0.17971
-0.156867
-0.136812
-0.11922
-0.104801
-0.0924179
-0.0817613
-0.0724894
-0.0643989
-0.0573121
-0.0510842
-0.045595
-0.0407469
-0.0364577
-0.0326571
-0.0292846
-0.0262885
-0.0236239
-0.021252
-0.0191389
-0.0172549
-0.015574
-0.0140735
-0.0127334
-0.0115361
-0.010466
-0.00950935
-0.0086541
-0.00788948
-0.00720601
-0.00659525
-0.00604973
-0.00556284
-0.00512872
-0.00474217
-0.0043986
-0.00409396
-0.00382466
-0.00358755
-0.00337988
-0.00319923
-0.00304352
-0.00291096
-0.00280002
-0.00270944
-0.00263818
-0.00258543
-0.0025506
-0.00253327
-0.185314
-0.160774
-0.143378
-0.126655
-0.111529
-0.09892
-0.0878566
-0.078168
-0.0696291
-0.062104
-0.0554565
-0.0495715
-0.0443524
-0.0397186
-0.0356006
-0.0319374
-0.0286759
-0.02577
-0.0231791
-0.0208677
-0.0188045
-0.016962
-0.0153158
-0.0138445
-0.012529
-0.0113526
-0.0103003
-0.00935905
-0.008517
-0.0077638
-0.00709024
-0.00648812
-0.00595014
-0.00546986
-0.00504154
-0.00466009
-0.00432101
-0.0040203
-0.00375445
-0.00352036
-0.00331532
-0.00313695
-0.0029832
-0.00285231
-0.00274276
-0.00265331
-0.00258294
-0.00253086
-0.00249646
-0.00247935
-0.159379
-0.141977
-0.129741
-0.116233
-0.103623
-0.0928532
-0.0831183
-0.0744117
-0.0666229
-0.0596789
-0.0534839
-0.0479536
-0.0430149
-0.0386051
-0.034667
-0.031149
-0.0280055
-0.025196
-0.0226845
-0.0204387
-0.0184301
-0.0166333
-0.0150255
-0.0135866
-0.0122987
-0.0111459
-0.0101139
-0.00919002
-0.00836307
-0.007623
-0.00696087
-0.00636874
-0.00583952
-0.00536693
-0.00494537
-0.00456987
-0.00423602
-0.00393991
-0.0036781
-0.00344755
-0.0032456
-0.00306991
-0.00291846
-0.00278951
-0.0026816
-0.00259348
-0.00252416
-0.00247285
-0.00243896
-0.00242211
-0.134561
-0.123778
-0.116254
-0.105785
-0.0956539
-0.0866939
-0.0782614
-0.070535
-0.0635027
-0.0571475
-0.0514122
-0.0462437
-0.0415931
-0.0374145
-0.0336632
-0.0302969
-0.0272773
-0.0245699
-0.0221427
-0.0199672
-0.0180174
-0.01627
-0.0147041
-0.0133008
-0.0120433
-0.0109166
-0.00990708
-0.00900272
-0.0081927
-0.00746739
-0.00681817
-0.00623735
-0.00571807
-0.00525422
-0.00484036
-0.00447164
-0.00414376
-0.00385291
-0.00359572
-0.00336922
-0.0031708
-0.00299817
-0.00284935
-0.00272264
-0.0026166
-0.00253001
-0.00246188
-0.00241146
-0.00237815
-0.00236159
-0.111474
-0.106535
-0.103167
-0.0955299
-0.0877606
-0.0805263
-0.0733453
-0.0665816
-0.0603011
-0.0545336
-0.049259
-0.0444554
-0.0400975
-0.0361553
-0.0325958
-0.0293862
-0.0264956
-0.0238948
-0.0215565
-0.0194554
-0.0175681
-0.0158737
-0.0143528
-0.012988
-0.0117636
-0.0106654
-0.00968055
-0.00879763
-0.00800631
-0.00729734
-0.00666245
-0.00609422
-0.00558602
-0.00513193
-0.00472668
-0.00436555
-0.00404437
-0.00375943
-0.00350742
-0.00328547
-0.00309101
-0.00292182
-0.00277597
-0.00265177
-0.00254783
-0.00246295
-0.00239617
-0.00234674
-0.0023141
-0.00229786
-0.0905059
-0.0904996
-0.0906814
-0.0856355
-0.0800529
-0.0744234
-0.0684267
-0.0625951
-0.0570499
-0.0518602
-0.0470414
-0.0426022
-0.0385386
-0.0348356
-0.0314714
-0.0284222
-0.0256644
-0.0231743
-0.0209286
-0.0189054
-0.0170841
-0.0154458
-0.0139729
-0.0126493
-0.0114605
-0.010393
-0.00943489
-0.00857527
-0.00780433
-0.00711323
-0.00649404
-0.00593962
-0.00544361
-0.00500028
-0.00460452
-0.00425179
-0.00393801
-0.00365959
-0.00341333
-0.00319641
-0.00300634
-0.00284096
-0.00269838
-0.00257698
-0.00247536
-0.00239238
-0.0023271
-0.00227877
-0.00224685
-0.00223099
-0.0718405
-0.0758323
-0.0789557
-0.076224
-0.0726146
-0.0684473
-0.0635575
-0.0586161
-0.0537791
-0.0491493
-0.0447765
-0.0406974
-0.036927
-0.0334637
-0.0302963
-0.0274101
-0.024788
-0.0224116
-0.0202617
-0.0183195
-0.0165673
-0.0149879
-0.0135657
-0.0122858
-0.0111348
-0.0101002
-0.00917077
-0.00833622
-0.00758727
-0.00691549
-0.00631331
-0.0057739
-0.00529114
-0.00485952
-0.00447412
-0.00413053
-0.00382484
-0.00355355
-0.00331357
-0.00310216
-0.0029169
-0.0027557
-0.00261671
-0.00249835
-0.00239928
-0.00231838
-0.00225474
-0.00220762
-0.0021765
-0.00216103
-0.055505
-0.0626117
-0.0681001
-0.0673776
-0.0655103
-0.0626493
-0.0587824
-0.0546798
-0.0505149
-0.0464209
-0.04248
-0.0387536
-0.0352726
-0.0320473
-0.0290769
-0.0263549
-0.0238705
-0.0216102
-0.0195586
-0.0177001
-0.0160194
-0.0145016
-0.0131325
-0.0118986
-0.0107875
-0.00978779
-0.00888885
-0.00808105
-0.00735561
-0.00670454
-0.00612063
-0.00559737
-0.00512889
-0.0047099
-0.00433569
-0.004002
-0.00370505
-0.00344148
-0.0032083
-0.00300285
-0.00282281
-0.00266613
-0.00253103
-0.00241598
-0.00231968
-0.00224104
-0.00217917
-0.00213336
-0.00210311
-0.00208807
-0.0414087
-0.0508579
-0.0581815
-0.0591499
-0.0587896
-0.0570723
-0.0541394
-0.0508164
-0.0472805
-0.0436936
-0.0401673
-0.0367831
-0.033585
-0.0305942
-0.0278193
-0.0252616
-0.0229161
-0.0207734
-0.018822
-0.0170494
-0.0154426
-0.0139885
-0.0126746
-0.0114888
-0.0104197
-0.00945664
-0.0085899
-0.00781042
-0.00710993
-0.00648089
-0.00591645
-0.00541042
-0.00495719
-0.00455173
-0.00418949
-0.00386641
-0.00357885
-0.00332357
-0.00309769
-0.00289865
-0.00272421
-0.00257239
-0.00244148
-0.00232999
-0.00223667
-0.00216045
-0.00210049
-0.0020561
-0.00202678
-0.0020122
-0.0293833
-0.0405586
-0.0492263
-0.0515714
-0.0524868
-0.0517518
-0.0496598
-0.0470499
-0.0440949
-0.0409834
-0.0378517
-0.0347966
-0.0318728
-0.0291111
-0.0265293
-0.0241351
-0.0219285
-0.0199044
-0.0180547
-0.0163696
-0.0148385
-0.0134502
-0.0121935
-0.0110576
-0.0100322
-0.00910757
-0.00827462
-0.00752493
-0.00685074
-0.00624498
-0.00570115
-0.00521339
-0.00477636
-0.00438527
-0.00403577
-0.00372398
-0.00344642
-0.00319998
-0.00298189
-0.0027897
-0.00262124
-0.00247461
-0.00234817
-0.00224048
-0.00215033
-0.00207671
-0.00201879
-0.0019759
-0.00194758
-0.0019335
-0.0192376
-0.0316569
-0.0412233
-0.0446537
-0.0466233
-0.0467161
-0.0453689
-0.0434008
-0.0409752
-0.0383052
-0.0355457
-0.0328043
-0.0301441
-0.0276052
-0.0252126
-0.0229799
-0.0209117
-0.0190065
-0.0172594
-0.0156632
-0.0142094
-0.0128884
-0.0116905
-0.0106062
-0.00962621
-0.00874153
-0.00794384
-0.00722531
-0.00657871
-0.00599739
-0.00547524
-0.00500673
-0.00458679
-0.00421087
-0.00387485
-0.00357501
-0.00330803
-0.00307095
-0.00286111
-0.00267617
-0.00251405
-0.00237294
-0.00225123
-0.00214758
-0.00206081
-0.00198994
-0.00193418
-0.00189289
-0.00186563
-0.00185207
-0.010803
-0.0240344
-0.0341297
-0.0383911
-0.0412088
-0.041984
-0.0412842
-0.039884
-0.0379351
-0.0356711
-0.0332595
-0.0308143
-0.0284059
-0.026082
-0.023874
-0.0218003
-0.0198691
-0.0180825
-0.0164384
-0.0149321
-0.0135567
-0.0123044
-0.0111669
-0.0101358
-0.00920261
-0.00835932
-0.00759825
-0.00691216
-0.00629434
-0.00573857
-0.00523913
-0.00479079
-0.0043888
-0.00402882
-0.00370696
-0.0034197
-0.00316388
-0.00293666
-0.00273553
-0.00255823
-0.0024028
-0.0022675
-0.0021508
-0.0020514
-0.00196819
-0.00190023
-0.00184675
-0.00180716
-0.00178101
-0.00176801
-0.00391134
-0.0175555
-0.0278887
-0.0327655
-0.0362425
-0.0375658
-0.0374182
-0.0365119
-0.0349867
-0.0330923
-0.0310025
-0.0288348
-0.0266653
-0.0245478
-0.0225189
-0.0206006
-0.0188045
-0.0171358
-0.0155948
-0.0141788
-0.0128828
-0.0117003
-0.0106244
-0.00964769
-0.00876266
-0.00796203
-0.0072388
-0.00658633
-0.00599839
-0.00546919
-0.0049934
-0.00456611
-0.00418284
-0.00383954
-0.0035325
-0.00325841
-0.00301426
-0.00279738
-0.00260537
-0.0024361
-0.00228769
-0.00215848
-0.00204704
-0.00195211
-0.00187264
-0.00180773
-0.00175665
-0.00171884
-0.00169386
-0.00168144
0.00161162
-0.0121002
-0.0224431
-0.027749
-0.0317135
-0.0334624
-0.0337759
-0.0332916
-0.0321381
-0.0305764
-0.0287812
-0.0268714
-0.0249271
-0.0230069
-0.0211508
-0.0193839
-0.0177206
-0.0161685
-0.0147303
-0.013405
-0.0121889
-0.0110772
-0.010064
-0.00914285
-0.00830715
-0.00755036
-0.00686613
-0.00624837
-0.00569133
-0.00518967
-0.00473842
-0.004333
-0.00396923
-0.00364328
-0.00335169
-0.00309133
-0.00285937
-0.00265329
-0.00247081
-0.00230992
-0.00216885
-0.00204602
-0.00194007
-0.00184982
-0.00177425
-0.00171253
-0.00166397
-0.00162801
-0.00160426
-0.00159245
0.00594014
-0.00756633
-0.01774
-0.0233093
-0.0276061
-0.0296709
-0.0303597
-0.0302285
-0.0293962
-0.0281305
-0.0266026
-0.0249306
-0.0231974
-0.0214646
-0.0197745
-0.0181544
-0.0166211
-0.0151841
-0.013848
-0.0126131
-0.0114775
-0.0104372
-0.00948749
-0.00862285
-0.00783749
-0.00712557
-0.00648133
-0.00589925
-0.00537405
-0.0049008
-0.0044749
-0.0040921
-0.00374851
-0.00344055
-0.00316499
-0.00291888
-0.00269958
-0.00250471
-0.00233214
-0.00217997
-0.00204652
-0.00193033
-0.0018301
-0.00174471
-0.00167322
-0.00161482
-0.00156887
-0.00153485
-0.00151237
-0.0015012
0.00922971
-0.00386357
-0.0137252
-0.0194093
-0.0238994
-0.026182
-0.0271656
-0.0273225
-0.0267632
-0.0257574
-0.0244696
-0.0230155
-0.0214792
-0.0199236
-0.0183923
-0.0169142
-0.0155078
-0.0141841
-0.0129491
-0.0118045
-0.0107494
-0.00978111
-0.00889565
-0.00808839
-0.00735429
-0.00668818
-0.00608488
-0.00553939
-0.0050469
-0.00460289
-0.00420312
-0.00384367
-0.00352092
-0.00323156
-0.00297257
-0.00274122
-0.00253504
-0.00235179
-0.00218949
-0.00204636
-0.00192083
-0.00181152
-0.00171722
-0.00163688
-0.00156962
-0.00151467
-0.00147143
-0.00143942
-0.00141827
-0.00140776
0.0116222
-0.000904893
-0.0103421
-0.016011
-0.0205731
-0.0229865
-0.0241903
-0.024574
-0.0242421
-0.0234615
-0.0223872
-0.0211313
-0.0197774
-0.0183885
-0.0170086
-0.0156675
-0.0143844
-0.0131719
-0.0120369
-0.010982
-0.0100074
-0.00911128
-0.00829055
-0.00754131
-0.0068592
-0.00623967
-0.00567811
-0.00516999
-0.00471097
-0.00429692
-0.00392396
-0.00358848
-0.00328716
-0.00301694
-0.00277502
-0.00255887
-0.0023662
-0.00219494
-0.00204324
-0.00190944
-0.00179208
-0.00168988
-0.00160171
-0.00152659
-0.00146369
-0.0014123
-0.00137187
-0.00134193
-0.00132215
-0.00131232
0.0132342
0.00139176
-0.00753028
-0.0130722
-0.0176014
-0.0200683
-0.0214229
-0.0219768
-0.0218294
-0.021241
-0.0203547
-0.0192778
-0.0180923
-0.0168599
-0.0156241
-0.0144147
-0.0132517
-0.0121482
-0.0111117
-0.010146
-0.00925175
-0.00842805
-0.00767251
-0.00698189
-0.00635248
-0.00578028
-0.00526121
-0.00479122
-0.0043664
-0.00398301
-0.00363752
-0.00332664
-0.00304732
-0.00279676
-0.0025724
-0.0023719
-0.00219314
-0.00203423
-0.00189344
-0.00176926
-0.00166033
-0.00156546
-0.0014836
-0.00141386
-0.00135546
-0.00130776
-0.00127022
-0.00124242
-0.00122406
-0.00121493
0.0141782
0.00310402
-0.00523128
-0.0105536
-0.0149616
-0.0174138
-0.0188563
-0.0195286
-0.0195262
-0.0190985
-0.0183759
-0.0174598
-0.0164288
-0.0153426
-0.0142435
-0.0131606
-0.0121138
-0.0111167
-0.0101774
-0.00929979
-0.00848554
-0.00773422
-0.00704406
-0.00641244
-0.0058362
-0.00531187
-0.00483588
-0.00440461
-0.00401458
-0.00366242
-0.00334494
-0.00305917
-0.00280233
-0.00257188
-0.00236547
-0.00218098
-0.00201648
-0.00187021
-0.00174061
-0.00162629
-0.001526
-0.00143864
-0.00136327
-0.00129905
-0.00124527
-0.00120134
-0.00116677
-0.00114117
-0.00112425
-0.00111585
0.014537
0.00429937
-0.00338838
-0.00841238
-0.0126228
-0.0149997
-0.0164732
-0.0172176
-0.0173236
-0.0170276
-0.016446
-0.0156734
-0.0147841
-0.0138345
-0.012865
-0.0119035
-0.0109696
-0.0100767
-0.0092329
-0.00844274
-0.00770815
-0.00702923
-0.00640472
-0.00583251
-0.00530997
-0.00483412
-0.00440181
-0.0040099
-0.00365527
-0.00333492
-0.00304602
-0.00278588
-0.00255202
-0.00234213
-0.0021541
-0.00198601
-0.0018361
-0.00170279
-0.00158467
-0.00148045
-0.00138902
-0.00130938
-0.00124066
-0.0011821
-0.00113306
-0.001093
-0.00106147
-0.00103813
-0.00102271
-0.00101504
0.0144022
0.00504148
-0.00195214
-0.0066135
-0.0105619
-0.0128109
-0.014266
-0.0150408
-0.0152223
-0.0150311
-0.0145695
-0.0139241
-0.0131638
-0.0123415
-0.0114945
-0.0106492
-0.0098244
-0.00903305
-0.00828314
-0.00757925
-0.00692367
-0.00631683
-0.00575791
-0.00524525
-0.00477665
-0.00434959
-0.00396135
-0.00360919
-0.00329037
-0.00300226
-0.00274233
-0.0025082
-0.00229767
-0.00210868
-0.00193934
-0.00178793
-0.00165287
-0.00153276
-0.00142632
-0.0013324
-0.00125
-0.00117821
-0.00111627
-0.00106349
-0.00101928
-0.000983173
-0.000954751
-0.000933706
-0.000919804
-0.00091289
0.0138226
0.00538476
-0.00087463
-0.00511521
-0.008744
-0.0108187
-0.0122114
-0.0129797
-0.0132069
-0.0130968
-0.0127362
-0.0122033
-0.0115609
-0.0108575
-0.0101269
-0.00939325
-0.00867442
-0.00798249
-0.00732505
-0.00670666
-0.00612972
-0.00559493
-0.00510176
-0.00464897
-0.00423474
-0.00385696
-0.00351331
-0.00320142
-0.00291894
-0.00266357
-0.00243309
-0.00222545
-0.00203867
-0.00187097
-0.00172069
-0.00158629
-0.00146639
-0.00135975
-0.00126523
-0.00118183
-0.00110865
-0.0010449
-0.000989882
-0.000943
-0.000903737
-0.00087166
-0.000846413
-0.000827719
-0.00081537
-0.00080923
0.0128808
0.00538342
-0.000114047
-0.00388639
-0.00714998
-0.00901087
-0.0103044
-0.011034
-0.0112809
-0.0112304
-0.0109536
-0.0105194
-0.00998432
-0.00939146
-0.00877075
-0.00814409
-0.00752769
-0.00693256
-0.00636572
-0.00583153
-0.00533237
-0.00486907
-0.00444137
-0.00404832
-0.00368847
-0.00336007
-0.00306116
-0.00278976
-0.00254384
-0.00232144
-0.00212066
-0.00193972
-0.00177693
-0.00163074
-0.00149971
-0.00138251
-0.00127795
-0.00118493
-0.00110248
-0.00102973
-0.000965881
-0.000910259
-0.000862256
-0.00082135
-0.00078709
-0.0007591
-0.00073707
-0.000720756
-0.00070998
-0.00070462
0.0115903
0.00507999
0.000375713
-0.00288264
-0.00573992
-0.00735245
-0.00851311
-0.00917638
-0.00942062
-0.00941135
-0.00920351
-0.00885652
-0.00842003
-0.00793108
-0.00741538
-0.00689213
-0.00637567
-0.00587567
-0.00539839
-0.00494782
-0.00452622
-0.00413444
-0.00377241
-0.00343944
-0.00313438
-0.00285581
-0.00260214
-0.0023717
-0.00216282
-0.00197386
-0.00180322
-0.00164941
-0.001511
-0.00138667
-0.00127522
-0.00117553
-0.00108657
-0.00100743
-0.000937271
-0.000875357
-0.000821023
-0.000773685
-0.000732831
-0.000698014
-0.000668854
-0.00064503
-0.000626278
-0.000612392
-0.00060322
-0.000598662
0.0100409
0.00452135
0.000632712
-0.00207769
-0.00450246
-0.00583756
-0.00684
-0.00741419
-0.00763685
-0.00765299
-0.0075008
-0.00723023
-0.00688366
-0.00649171
-0.00607552
-0.00565142
-0.00523159
-0.00482417
-0.0044345
-0.00406611
-0.00372098
-0.00339993
-0.003103
-0.00282972
-0.00257919
-0.00235029
-0.00214175
-0.00195225
-0.00178042
-0.00162492
-0.00148448
-0.00135785
-0.00124388
-0.00114149
-0.0010497
-0.000967575
-0.00089429
-0.000829087
-0.000771282
-0.000720264
-0.000675491
-0.000636481
-0.000602813
-0.00057412
-0.000550087
-0.000530452
-0.000514998
-0.000503553
-0.000495993
-0.000492232
0.00820399
0.00374187
0.000702878
-0.0014235
-0.00338877
-0.00441906
-0.00524093
-0.00570655
-0.00589201
-0.00592116
-0.0058143
-0.00561227
-0.00534975
-0.00505035
-0.00473047
-0.00440333
-0.00407869
-0.00376298
-0.00346052
-0.00317421
-0.0029057
-0.0026557
-0.00242431
-0.00221122
-0.00201576
-0.00183709
-0.00167426
-0.00152623
-0.00139197
-0.00127045
-0.00116066
-0.00106166
-0.000972534
-0.000892461
-0.00082066
-0.000756418
-0.000699085
-0.00064807
-0.000602841
-0.000562921
-0.000527885
-0.000497358
-0.00047101
-0.000448555
-0.000429747
-0.000414381
-0.000402285
-0.000393328
-0.000387412
-0.000384475
0.00619532
0.0027882
0.000619287
-0.000904251
-0.00239921
-0.00310262
-0.00373379
-0.00407454
-0.00421145
-0.00424371
-0.00417244
-0.00403126
-0.00384637
-0.00363397
-0.00340585
-0.00317196
-0.00293945
-0.00271293
-0.00249564
-0.00228976
-0.00209652
-0.00191647
-0.00174973
-0.0015961
-0.00145512
-0.00132621
-0.00120869
-0.00110183
-0.00100488
-0.000917111
-0.000837805
-0.000766278
-0.000701884
-0.000644022
-0.000592133
-0.000545703
-0.000504264
-0.00046739
-0.000434696
-0.000405839
-0.000380512
-0.000358444
-0.000339396
-0.000323163
-0.000309567
-0.000298457
-0.000289713
-0.000283238
-0.00027896
-0.000276827
0.00392092
0.00169901
0.000428939
-0.000471168
-0.00146222
-0.00182511
-0.00225191
-0.00245173
-0.00253387
-0.00256183
-0.0025199
-0.00243617
-0.00232634
-0.00219921
-0.00206205
-0.00192122
-0.00178104
-0.00164427
-0.00151293
-0.00138841
-0.00127145
-0.00116241
-0.00106139
-0.000968266
-0.000882786
-0.000804597
-0.000733299
-0.000668453
-0.000609612
-0.000556334
-0.000508186
-0.000464754
-0.000425651
-0.000390511
-0.000358996
-0.000330795
-0.000305623
-0.000283224
-0.000263363
-0.000245833
-0.000230447
-0.000217041
-0.000205469
-0.000195607
-0.000187347
-0.000180598
-0.000175285
-0.000171351
-0.000168752
-0.000167466
0.00152532
0.000538114
0.000152262
-0.000140422
-0.000579289
-0.000626704
-0.000830674
-0.000881354
-0.000909429
-0.000924266
-0.000906023
-0.000875748
-0.000836351
-0.000790392
-0.000740812
-0.000690065
-0.000639565
-0.00059026
-0.000542937
-0.00049809
-0.000455963
-0.000416691
-0.000380315
-0.000346786
-0.000316012
-0.000287866
-0.000262203
-0.000238864
-0.000217688
-0.000198517
-0.000181193
-0.000165568
-0.000151501
-0.000138862
-0.000127527
-0.000117386
-0.000108335
-0.000100282
-9.31423e-05
-8.68411e-05
-8.13114e-05
-7.64935e-05
-7.23355e-05
-6.87921e-05
-6.58246e-05
-6.34e-05
-6.14916e-05
-6.00787e-05
-5.91439e-05
-5.86642e-05
-0.270057
-0.264515
-0.266258
-0.269609
-0.272848
-0.277159