/*--------------------------------*- C++ -*----------------------------------*\
  =========                 |
  \\      /  F ield         | OpenFOAM: The Open Source CFD Toolbox
   \\    /   O peration     | Website:  https://openfoam.org
    \\  /    A nd           | Version:  7
     \\/     M anipulation  |
\*---------------------------------------------------------------------------*/
FoamFile
{
    version     2.0;
    format      ascii;
    class       surfaceScalarField;
    location    "15";
    object      phi;
}
// * * * * * * * * * * * * * * * * * * * * * * * * * * * * * * * * * * * * * //

dimensions      [0 3 -1 0 0 0 0];

internalField   nonuniform List<scalar> 
6502
(
0.000744998
0.00170484
0.000985568
0.000316704
0.000444034
0.00128653
0.00069793
0.00012729
0.000204919
0.000937046
0.000330048
-7.00645e-05
0.000473125
-1.57864e-05
2.27118e-05
0.000655332
0.000113081
-0.000176018
0.000190598
-0.000147581
0.000295387
-0.000120576
-0.000109887
0.000427986
2.38449e-05
-0.000211273
7.61851e-05
-0.000199921
0.000148198
-0.000192589
-0.000200531
0.000238841
-7.20664e-05
-0.000229433
-5.40847e-05
-0.000229255
-2.37108e-05
-0.000230295
2.03327e-05
-0.000236632
-0.000253919
7.37203e-05
-0.000127915
-0.000224771
-0.00012573
-0.00023144
-0.000115536
-0.000240488
-9.73487e-05
-0.00025482
-0.000278456
-7.2811e-05
-0.000163965
-0.000198966
-0.000180288
-0.000208448
-0.000192717
-0.000219011
-0.000200784
-0.000232421
-0.00020478
-0.000250824
-0.000277094
-0.000206143
-0.000201633
-0.000171038
-0.000228649
-0.000181431
-0.000254381
-0.000193279
-0.000278857
-0.000207946
-0.000302685
-0.000226996
-0.00025236
-0.000327419
-0.000234882
-0.000135566
-0.000271248
-0.000145065
-0.000308534
-0.000155994
-0.000347132
-0.000169347
-0.000387907
-0.000186221
-0.000207897
-0.000432371
-0.00026194
-9.39878e-05
-0.000305848
-0.000101157
-0.000352403
-0.000109439
-0.000402263
-0.000119487
-0.000456483
-0.000132
-0.000147782
-0.000516598
-0.000281097
-4.81068e-05
-0.000330307
-5.19472e-05
-0.000383353
-5.63928e-05
-0.000441074
-6.17658e-05
-0.000504664
-6.84101e-05
-7.67172e-05
-0.000575729
-0.000242926
-0.000291032
-0.000342979
-0.000399371
-0.000461136
-0.000529546
-0.000606263
0.00170505
0.0305978
-0.000920959
0.00171902
0.0348497
0.00155222
0.035122
0.00136936
0.0344491
0.00117649
0.0337909
0.00100669
0.0332065
0.000859605
0.0326861
0.000734231
0.0322272
0.00062828
0.0318194
0.000538649
0.0314576
0.000462808
0.0311363
0.000398489
0.0308508
0.000343779
0.0305971
0.000297096
0.0303717
0.00025713
0.0301714
0.000222808
0.0299934
0.000193244
0.0298354
0.000167711
0.029695
0.000145603
0.0295703
0.000126428
0.0294596
0.000109768
0.0293613
9.5271e-05
0.029274
8.2641e-05
0.0291964
7.1626e-05
0.0291275
6.20126e-05
0.0290663
5.36188e-05
0.0290119
4.62888e-05
0.0289636
3.98885e-05
0.0289207
3.43024e-05
0.0288826
2.94305e-05
0.0288488
2.51855e-05
0.0288187
2.14917e-05
0.0287921
1.82826e-05
0.0287684
1.54997e-05
0.0287474
1.30914e-05
0.0287289
1.10117e-05
0.0287125
9.22063e-06
0.028698
7.68254e-06
0.0286852
6.36587e-06
0.028674
5.24237e-06
0.0286642
4.28663e-06
0.0286557
3.47564e-06
0.0286483
2.7885e-06
0.0286419
2.20614e-06
0.0286366
1.71095e-06
0.0286321
1.28656e-06
0.0286285
9.1756e-07
0.0286256
5.89403e-07
0.0286235
2.88255e-07
0.0286221
0.0286214
0.0015706
0.029781
-0.000753841
0.00154176
0.0348785
0.00141627
0.0352475
0.00125019
0.0346152
0.00108309
0.033958
0.000930301
0.0333593
0.000795821
0.0328206
0.000681008
0.0323421
0.000583289
0.0319171
0.000500344
0.0315405
0.000429992
0.0312066
0.000370222
0.0309106
0.000319319
0.030648
0.000275842
0.0304152
0.000238598
0.0302086
0.000206599
0.0300254
0.000179028
0.029863
0.000155214
0.0297188
0.000134595
0.0295909
0.000116713
0.0294775
0.000101177
0.0293768
8.76632e-05
0.0292875
7.5894e-05
0.0292082
6.56355e-05
0.0291378
5.66885e-05
0.0290753
4.8883e-05
0.0290197
4.20734e-05
0.0289704
3.61344e-05
0.0289267
3.09581e-05
0.0288878
2.64505e-05
0.0288533
2.25302e-05
0.0288226
1.91262e-05
0.0287955
1.61762e-05
0.0287714
1.36254e-05
0.02875
1.14253e-05
0.0287311
9.53322e-06
0.0287144
7.91157e-06
0.0286996
6.52695e-06
0.0286866
5.3497e-06
0.0286752
4.35333e-06
0.0286652
3.5141e-06
0.0286565
2.81031e-06
0.028649
2.22245e-06
0.0286425
1.73269e-06
0.0286371
1.32458e-06
0.0286325
9.82738e-07
0.0286288
6.92664e-07
0.0286259
4.40884e-07
0.0286237
2.14275e-07
0.0286223
0.0286216
0.00140711
0.0290603
-0.000686374
0.00140588
0.0348798
0.00128731
0.035366
0.00113192
0.0347706
0.00098135
0.0341086
0.000845221
0.0334955
0.000725052
0.0329408
0.000621802
0.0324453
0.000533364
0.0320055
0.000457995
0.0316159
0.000393863
0.0312708
0.000339234
0.0309652
0.000292611
0.0306946
0.000252724
0.0304551
0.00021851
0.0302428
0.000189084
0.0300549
0.000163711
0.0298883
0.000141782
0.0297407
0.000122789
0.0296099
0.000106313
0.029494
9.19993e-05
0.0293912
7.95488e-05
0.0293
6.87091e-05
0.029219
5.92651e-05
0.0291472
5.10339e-05
0.0290835
4.3859e-05
0.0290269
3.76063e-05
0.0289767
3.21601e-05
0.0289321
2.74206e-05
0.0288925
2.33011e-05
0.0288574
1.97263e-05
0.0288262
1.66301e-05
0.0287986
1.3955e-05
0.028774
1.16502e-05
0.0287523
9.67098e-06
0.0287331
7.97739e-06
0.0287161
6.53483e-06
0.028701
5.31235e-06
0.0286878
4.28206e-06
0.0286762
3.41964e-06
0.0286661
2.70312e-06
0.0286572
2.11215e-06
0.0286496
1.62868e-06
0.028643
1.23624e-06
0.0286374
9.19519e-07
0.0286328
6.6434e-07
0.0286291
4.56968e-07
0.0286261
2.85248e-07
0.0286239
1.36919e-07
0.0286225
0.0286218
0.00124978
0.0284697
-0.000659195
0.00126812
0.0348614
0.00115623
0.0354779
0.00101512
0.0349117
0.00087863
0.0342451
0.000757306
0.0336168
0.00065137
0.0330467
0.000559754
0.0325369
0.000480907
0.0320844
0.000413461
0.0316833
0.000355874
0.0313284
0.000306672
0.0310144
0.000264572
0.0307367
0.000228479
0.0304911
0.000197466
0.0302739
0.000170755
0.0300816
0.000147698
0.0299114
0.000127753
0.0297607
0.000110468
0.0296272
9.54678e-05
0.029509
8.24338e-05
0.0294042
7.10973e-05
0.0293113
6.12301e-05
0.0292289
5.26375e-05
0.0291558
4.51539e-05
0.029091
3.86371e-05
0.0290334
3.29652e-05
0.0289824
2.80326e-05
0.028937
2.37481e-05
0.0288968
2.00325e-05
0.0288611
1.6817e-05
0.0288294
1.40411e-05
0.0288013
1.16517e-05
0.0287764
9.60272e-06
0.0287543
7.85298e-06
0.0287348
6.36533e-06
0.0287175
5.10852e-06
0.0287023
4.05439e-06
0.0286889
3.1764e-06
0.0286771
2.45287e-06
0.0286668
1.86357e-06
0.0286578
1.38939e-06
0.02865
1.01397e-06
0.0286434
7.22308e-07
0.0286377
5.00168e-07
0.028633
3.34699e-07
0.0286292
2.12948e-07
0.0286262
1.24127e-07
0.028624
5.68335e-08
0.0286225
0.0286218
0.00110294
0.0279903
-0.000623487
0.00112561
0.0348388
0.00102369
0.0355798
0.000897086
0.0350383
0.00077481
0.0343674
0.000667889
0.0337237
0.000575668
0.0331389
0.000495598
0.032617
0.000426485
0.0321535
0.000367188
0.0317426
0.000316374
0.0313792
0.000272808
0.031058
0.000235418
0.0307741
0.000203281
0.0305233
0.000175605
0.0303015
0.000151725
0.0301055
0.000131081
0.029932
0.000113202
0.0297786
9.76946e-05
0.0296427
8.42292e-05
0.0295225
7.25256e-05
0.0294159
6.23462e-05
0.0293215
5.34886e-05
0.0292378
4.57798e-05
0.0291635
3.90716e-05
0.0290977
3.3237e-05
0.0290393
2.81669e-05
0.0289874
2.37663e-05
0.0289414
1.9953e-05
0.0289006
1.66554e-05
0.0288644
1.38119e-05
0.0288323
1.13673e-05
0.0288038
9.27334e-06
0.0287785
7.48862e-06
0.0287561
5.97643e-06
0.0287363
4.70139e-06
0.0287188
3.63656e-06
0.0287034
2.75654e-06
0.0286898
2.03542e-06
0.0286778
1.4552e-06
0.0286674
9.9717e-07
0.0286583
6.43353e-07
0.0286504
3.79319e-07
0.0286436
1.91366e-07
0.0286379
6.64748e-08
0.0286332
-7.18088e-09
0.0286293
-3.90543e-08
0.0286263
-4.20952e-08
0.028624
-2.56986e-08
0.0286225
0.0286218
0.000962605
0.0276064
-0.000578698
0.000980145
0.0348212
0.000891798
0.0356682
0.000776648
0.0351534
0.00066904
0.034475
0.000577056
0.0338157
0.00049821
0.0332178
0.00042962
0.0326856
0.000370373
0.0322127
0.000319403
0.0317936
0.000275541
0.031423
0.000237783
0.0310957
0.000205262
0.0308067
0.000177217
0.0305513
0.000152997
0.0303258
0.000132049
0.0301264
0.000113905
0.0299502
9.81663e-05
0.0297943
8.4499e-05
0.0296564
7.26222e-05
0.0295343
6.22951e-05
0.0294262
5.33129e-05
0.0293305
4.54997e-05
0.0292456
3.87045e-05
0.0291703
3.27979e-05
0.0291036
2.76681e-05
0.0290444
2.32198e-05
0.0289919
1.93688e-05
0.0289453
1.60418e-05
0.028904
1.31756e-05
0.0288673
1.07157e-05
0.0288347
8.61329e-06
0.0288059
6.82367e-06
0.0287803
5.31146e-06
0.0287576
4.04469e-06
0.0287376
2.98809e-06
0.0287199
2.12091e-06
0.0287042
1.42015e-06
0.0286905
8.60243e-07
0.0286784
4.27237e-07
0.0286678
1.0257e-07
0.0286586
-1.25263e-07
0.0286506
-2.72099e-07
0.0286438
-3.51769e-07
0.028638
-3.75354e-07
0.0286332
-3.53252e-07
0.0286293
-2.95694e-07
0.0286262
-2.11616e-07
0.0286239
-1.10082e-07
0.0286224
0.0286217
0.000822419
0.0273136
-0.000529681
0.000831857
0.0348118
0.000756127
0.0357439
0.000652681
0.0352569
0.000560734
0.0345669
0.000484454
0.033892
0.000418943
0.0332833
0.000361938
0.0327426
0.000312735
0.0322619
0.00027025
0.0318361
0.000233497
0.0314598
0.000201701
0.0311275
0.000174185
0.0308342
0.000150355
0.0305752
0.000129698
0.0303464
0.000111773
0.0301443
9.62069e-05
0.0299657
8.26767e-05
0.0298078
7.09075e-05
0.0296682
6.06693e-05
0.0295446
5.17622e-05
0.0294351
4.40144e-05
0.0293382
3.72783e-05
0.0292523
3.14255e-05
0.0291762
2.63446e-05
0.0291087
2.1941e-05
0.0290488
1.81332e-05
0.0289957
1.48484e-05
0.0289486
1.20221e-05
0.0289068
9.59988e-06
0.0288697
7.53477e-06
0.0288368
5.78477e-06
0.0288076
4.30767e-06
0.0287818
3.07538e-06
0.0287589
2.0607e-06
0.0287386
1.22805e-06
0.0287207
5.63397e-07
0.0287049
4.1109e-08
0.028691
-3.44298e-07
0.0286788
-6.21876e-07
0.0286681
-8.04683e-07
0.0286588
-9.05673e-07
0.0286507
-9.36467e-07
0.0286438
-9.07363e-07
0.028638
-8.28621e-07
0.0286331
-7.097e-07
0.0286292
-5.59244e-07
0.028626
-3.85615e-07
0.0286238
-1.96578e-07
0.0286222
0.0286215
0.000677339
0.0271123
-0.000475983
0.000678957
0.0348102
0.000613636
0.0358092
0.000524271
0.0353462
0.000449827
0.0346414
0.000389802
0.033952
0.000337814
0.0333353
0.000292689
0.0327877
0.000253742
0.0323009
0.000219889
0.03187
0.000190386
0.0314893
0.000164684
0.0311532
0.000142293
0.0308566
0.000122783
0.0305947
0.00010578
0.0303634
9.09596e-05
0.0301591
7.80412e-05
0.0299787
6.67793e-05
0.0298191
5.69599e-05
0.029678
4.84054e-05
0.0295531
4.09574e-05
0.0294426
3.44781e-05
0.0293447
2.88481e-05
0.0292579
2.39637e-05
0.0291811
1.97306e-05
0.0291129
1.6073e-05
0.0290525
1.29225e-05
0.0289988
1.02191e-05
0.0289513
7.90617e-06
0.0289091
5.93912e-06
0.0288717
4.27844e-06
0.0288385
2.88926e-06
0.028809
1.73173e-06
0.0287829
7.85191e-07
0.0287598
1.75307e-08
0.0287394
-5.68324e-07
0.0287213
-1.01839e-06
0.0287053
-1.34514e-06
0.0286913
-1.56538e-06
0.028679
-1.69023e-06
0.0286682
-1.73259e-06
0.0286588
-1.70404e-06
0.0286507
-1.61491e-06
0.0286437
-1.47437e-06
0.0286378
-1.29104e-06
0.0286329
-1.07311e-06
0.0286289
-8.28019e-07
0.0286258
-5.62992e-07
0.0286235
-2.84731e-07
0.028622
0.0286212
0.000524498
0.027001
-0.000413198
0.000519788
0.0348149
0.000464268
0.0358648
0.00038981
0.0354207
0.000336711
0.0346945
0.000292993
0.0339957
0.000254969
0.0333733
0.000222113
0.0328206
0.000193617
0.0323294
0.000168526
0.031895
0.000146397
0.0315114
0.000126899
0.0311727
0.000109728
0.0308737
9.46209e-05
0.0306098
8.13461e-05
0.0303767
6.96952e-05
0.0301708
5.94824e-05
0.0299889
5.05398e-05
0.029828
4.27127e-05
0.0296858
3.58798e-05
0.02956
2.99238e-05
0.0294485
2.47415e-05
0.0293499
2.02424e-05
0.0292624
1.63494e-05
0.029185
1.29819e-05
0.0291163
1.00867e-05
0.0290554
7.60757e-06
0.0290013
5.49771e-06
0.0289534
3.70863e-06
0.0289109
2.20529e-06
0.0288732
9.54898e-07
0.0288397
-7.40919e-08
0.02881
-8.8548e-07
0.0287837
-1.52927e-06
0.0287605
-2.02049e-06
0.0287399
-2.38194e-06
0.0287217
-2.62319e-06
0.0287056
-2.7608e-06
0.0286914
-2.80759e-06
0.028679
-2.77559e-06
0.0286682
-2.67448e-06
0.0286587
-2.51418e-06
0.0286505
-2.30309e-06
0.0286435
-2.04926e-06
0.0286376
-1.75976e-06
0.0286326
-1.44136e-06
0.0286286
-1.10037e-06
0.0286255
-7.4272e-07
0.0286231
-3.74049e-07
0.0286216
0.0286208
0.0003594
0.0269743
-0.000332699
0.000353026
0.0348213
0.000307412
0.0359104
0.000253139
0.035475
0.000221621
0.034726
0.000194163
0.0340232
0.000170761
0.0333967
0.000150537
0.0328408
0.000132636
0.0323473
0.000116414
0.0319113
0.000101755
0.0315261
8.85369e-05
0.0311859
7.66523e-05
0.0308856
6.60093e-05
0.0306204
5.65172e-05
0.0303862
4.80838e-05
0.0301792
4.06197e-05
0.0299963
3.40349e-05
0.0298346
2.82308e-05
0.0296916
2.31489e-05
0.029565
1.87104e-05
0.029453
1.48477e-05
0.0293537
1.14982e-05
0.0292658
8.61274e-06
0.0291878
6.12559e-06
0.0291188
4.00432e-06
0.0290575
2.2055e-06
0.0290031
6.909e-07
0.0289549
-5.54404e-07
0.0289121
-1.56739e-06
0.0288742
-2.3852e-06
0.0288405
-3.02674e-06
0.0288107
-3.51766e-06
0.0287842
-3.86791e-06
0.0287608
-4.09675e-06
0.0287401
-4.21853e-06
0.0287218
-4.24625e-06
0.0287056
-4.1907e-06
0.0286914
-4.06238e-06
0.0286789
-3.87102e-06
0.028668
-3.62465e-06
0.0286585
-3.33108e-06
0.0286502
-2.99691e-06
0.0286432
-2.62864e-06
0.0286372
-2.23198e-06
0.0286322
-1.81229e-06
0.0286282
-1.37464e-06
0.028625
-9.23702e-07
0.0286227
-4.63991e-07
0.0286211
0.0286204
0.000178064
0.0270234
-0.000227245
0.000178889
0.0348204
0.000141663
0.0359476
0.000116055
0.0355006
0.000103928
0.0347381
9.36396e-05
0.0340335
8.56031e-05
0.0334047
7.82801e-05
0.0328481
7.10666e-05
0.0323545
6.38165e-05
0.0319185
5.66932e-05
0.0315332
4.97979e-05
0.0311928
4.32371e-05
0.0308922
3.70925e-05
0.0306266
3.14149e-05
0.0303919
2.62273e-05
0.0301844
2.15367e-05
0.030001
1.73369e-05
0.0298388
1.35763e-05
0.0296954
1.02644e-05
0.0295684
7.35894e-06
0.0294559
4.82839e-06
0.0293563
2.63891e-06
0.029268
7.55808e-07
0.0291897
-8.12508e-07
0.0291203
-2.12352e-06
0.0290588
-3.21301e-06
0.0290042
-4.09953e-06
0.0289558
-4.80714e-06
0.0289128
-5.3524e-06
0.0288747
-5.75078e-06
0.0288409
-6.01892e-06
0.028811
-6.17315e-06
0.0287844
-6.22459e-06
0.0287609
-6.18593e-06
0.0287401
-6.06675e-06
0.0287217
-5.87799e-06
0.0287054
-5.62716e-06
0.0286911
-5.32258e-06
0.0286786
-4.97071e-06
0.0286676
-4.57804e-06
0.0286581
-4.15033e-06
0.0286498
-3.69253e-06
0.0286427
-3.20937e-06
0.0286367
-2.70515e-06
0.0286317
-2.18388e-06
0.0286277
-1.64931e-06
0.0286245
-1.10493e-06
0.0286221
-5.54049e-07
0.0286206
0.0286198
-1.55093e-05
0.0271286
-8.96675e-05
3.93924e-06
0.034801
-3.13599e-05
0.0359829
-2.16626e-05
0.0354909
-1.67145e-05
0.0347332
-7.96604e-06
0.0340247
-7.80336e-07
0.0333976
5.2137e-06
0.0328421
8.9163e-06
0.0323508
1.08143e-05
0.0319166
1.12965e-05
0.0315327
1.07675e-05
0.0311934
9.56079e-06
0.0308934
7.93586e-06
0.0306282
6.08829e-06
0.0303937
4.15889e-06
0.0301863
2.24351e-06
0.0300029
4.03179e-07
0.0298407
-1.20563e-06
0.029697
-2.69267e-06
0.0295698
-4.02328e-06
0.0294572
-5.18827e-06
0.0293574
-6.18591e-06
0.029269
-7.01913e-06
0.0291906
-7.70482e-06
0.029121
-8.244e-06
0.0290593
-8.64756e-06
0.0290046
-8.92665e-06
0.0289561
-9.09377e-06
0.028913
-9.15944e-06
0.0288748
-9.13208e-06
0.0288409
-9.02219e-06
0.0288108
-8.83762e-06
0.0287842
-8.58756e-06
0.0287606
-8.27867e-06
0.0287397
-7.91793e-06
0.0287213
-7.51134e-06
0.028705
-7.06437e-06
0.0286907
-6.58262e-06
0.0286781
-6.06991e-06
0.0286671
-5.53061e-06
0.0286575
-4.96852e-06
0.0286492
-4.38694e-06
0.0286421
-3.78891e-06
0.0286361
-3.17723e-06
0.0286311
-2.55452e-06
0.0286271
-1.92324e-06
0.0286239
-1.28563e-06
0.0286215
-6.43831e-07
0.0286199
0.0286192
-0.000232708
0.0272679
9.3466e-05
-0.000217091
0.0347854
-0.000196263
0.0359621
-0.000166472
0.0354611
-0.000133745
0.0347004
-0.000106315
0.0339973
-8.34225e-05
0.0333747
-6.52256e-05
0.0328239
-5.12708e-05
0.0323368
-4.08001e-05
0.0319061
-3.30817e-05
0.031525
-2.74923e-05
0.0311878
-2.35147e-05
0.0308894
-2.07328e-05
0.0306254
-1.8822e-05
0.0303918
-1.75338e-05
0.0301851
-1.66808e-05
0.0300021
-1.61178e-05
0.0298401
-1.57689e-05
0.0296966
-1.55279e-05
0.0295696
-1.53466e-05
0.029457
-1.5189e-05
0.0293573
-1.50273e-05
0.0292688
-1.4848e-05
0.0291904
-1.46364e-05
0.0291208
-1.4389e-05
0.0290591
-1.40983e-05
0.0290043
-1.37643e-05
0.0289557
-1.33878e-05
0.0289126
-1.29713e-05
0.0288744
-1.2516e-05
0.0288404
-1.20257e-05
0.0288104
-1.1502e-05
0.0287837
-1.09491e-05
0.0287601
-1.03691e-05
0.0287392
-9.76608e-06
0.0287207
-9.14144e-06
0.0287044
-8.49817e-06
0.02869
-7.83893e-06
0.0286774
-7.16541e-06
0.0286664
-6.47961e-06
0.0286568
-5.78335e-06
0.0286486
-5.07822e-06
0.0286414
-4.36563e-06
0.0286354
-3.64688e-06
0.0286304
-2.92318e-06
0.0286263
-2.19565e-06
0.0286231
-1.46531e-06
0.0286208
-7.33094e-07
0.0286192
0.0286184
-0.000466192
0.0274311
0.000302923
-0.000430388
0.0347496
-0.000369874
0.0359016
-0.000308483
0.0353997
-0.000251582
0.0346435
-0.000204865
0.0339506
-0.000166422
0.0333362
-0.000135563
0.0327931
-0.000111193
0.0323125
-9.20723e-05
0.031887
-7.713e-05
0.0315101
-6.54742e-05
0.0311761
-5.63771e-05
0.0308803
-4.92551e-05
0.0306183
-4.36493e-05
0.0303862
-3.92033e-05
0.0301806
-3.56415e-05
0.0299985
-3.27478e-05
0.0298372
-3.03749e-05
0.0296943
-2.83831e-05
0.0295676
-2.66797e-05
0.0294553
-2.51944e-05
0.0293558
-2.38719e-05
0.0292675
-2.26755e-05
0.0291892
-2.15676e-05
0.0291197
-2.05321e-05
0.0290581
-1.95461e-05
0.0290033
-1.85979e-05
0.0289548
-1.76777e-05
0.0289117
-1.67787e-05
0.0288735
-1.58951e-05
0.0288396
-1.50235e-05
0.0288095
-1.41607e-05
0.0287828
-1.33048e-05
0.0287592
-1.24539e-05
0.0287383
-1.16082e-05
0.0287198
-1.07657e-05
0.0287036
-9.92635e-06
0.0286892
-9.08983e-06
0.0286766
-8.25573e-06
0.0286656
-7.42377e-06
0.028656
-6.59378e-06
0.0286477
-5.76555e-06
0.0286406
-4.93888e-06
0.0286346
-4.11357e-06
0.0286296
-3.28942e-06
0.0286255
-2.46623e-06
0.0286223
-1.64376e-06
0.0286199
-8.21742e-07
0.0286184
0.0286176
-0.000712755
0.0275946
0.000549254
-0.000645614
0.0346824
-0.000545374
0.0358013
-0.000448657
0.035303
-0.000368239
0.0345631
-0.000302142
0.0338845
-0.000248186
0.0332823
-0.000204843
0.0327497
-0.000170262
0.0322779
-0.000142665
0.0318594
-0.000120644
0.031488
-0.000103041
0.0311585
-8.89185e-05
0.0308662
-7.75308e-05
0.0306069
-6.82878e-05
0.0303769
-6.0728e-05
0.0301731
-5.44889e-05
0.0299923
-4.92877e-05
0.029832
-4.49138e-05
0.0296899
-4.11858e-05
0.0295639
-3.79716e-05
0.0294521
-3.51671e-05
0.029353
-3.2691e-05
0.029265
-3.04798e-05
0.029187
-2.84819e-05
0.0291177
-2.66605e-05
0.0290562
-2.49812e-05
0.0290017
-2.34202e-05
0.0289532
-2.19574e-05
0.0289102
-2.05769e-05
0.0288721
-1.92657e-05
0.0288382
-1.80134e-05
0.0288082
-1.68117e-05
0.0287816
-1.56533e-05
0.0287581
-1.4532e-05
0.0287372
-1.34438e-05
0.0287188
-1.23838e-05
0.0287025
-1.13486e-05
0.0286882
-1.03352e-05
0.0286756
-9.34092e-06
0.0286646
-8.3632e-06
0.028655
-7.39992e-06
0.0286468
-6.44908e-06
0.0286397
-5.50883e-06
0.0286337
-4.57748e-06
0.0286287
-3.65341e-06
0.0286246
-2.7351e-06
0.0286214
-1.82106e-06
0.028619
-9.09817e-07
0.0286175
0.0286167
-0.000966862
0.0277322
0.000829268
-0.000861055
0.0345766
-0.000718567
0.0356588
-0.00058799
0.0351724
-0.000482623
0.0344577
-0.000397196
0.033799
-0.00032805
0.0332131
-0.000272557
0.0326942
-0.000228045
0.0322334
-0.000192232
0.0318236
-0.000163344
0.0314592
-0.000139967
0.0311351
-0.000120958
0.0308472
-0.000105414
0.0305914
-9.26194e-05
0.0303642
-8.20124e-05
0.0301624
-7.3149e-05
0.0299834
-6.56818e-05
0.0298245
-5.93399e-05
0.0296835
-5.39011e-05
0.0295584
-4.91952e-05
0.0294474
-4.50864e-05
0.0293489
-4.14672e-05
0.0292614
-3.82503e-05
0.0291838
-3.53693e-05
0.0291148
-3.27672e-05
0.0290536
-3.03987e-05
0.0289993
-2.82278e-05
0.0289511
-2.62246e-05
0.0289082
-2.43645e-05
0.0288702
-2.2627e-05
0.0288365
-2.09952e-05
0.0288066
-1.94553e-05
0.0287801
-1.7995e-05
0.0287566
-1.66038e-05
0.0287358
-1.52737e-05
0.0287174
-1.39966e-05
0.0287012
-1.2766e-05
0.0286869
-1.15762e-05
0.0286744
-1.04221e-05
0.0286634
-9.29896e-06
0.0286539
-8.20276e-06
0.0286457
-7.1297e-06
0.0286386
-6.07627e-06
0.0286326
-5.03928e-06
0.0286276
-4.01571e-06
0.0286236
-3.0027e-06
0.0286204
-1.99751e-06
0.028618
-9.97461e-07
0.0286165
0.0286157
-0.00122161
0.0278273
0.00112651
-0.00107025
0.0344252
-0.000886483
0.0354751
-0.000723732
0.0350096
-0.000593586
0.0343276
-0.0004892
0.0336947
-0.000405422
0.0331293
-0.000338256
0.0326271
-0.000284203
0.0321793
-0.000240498
0.0317799
-0.000205014
0.0314237
-0.000176079
0.0311062
-0.000152358
0.0308235
-0.000132796
0.0305718
-0.000116559
0.0303479
-0.000102991
0.0301489
-9.15711e-05
0.029972
-8.18897e-05
0.0298149
-7.36216e-05
0.0296753
-6.65044e-05
0.0295513
-6.03316e-05
0.0294412
-5.49377e-05
0.0293435
-5.01898e-05
0.0292566
-4.59799e-05
0.0291795
-4.22238e-05
0.0291111
-3.88483e-05
0.0290503
-3.5796e-05
0.0289962
-3.30194e-05
0.0289483
-3.04788e-05
0.0289057
-2.81415e-05
0.0288679
-2.59796e-05
0.0288344
-2.39698e-05
0.0288046
-2.20928e-05
0.0287782
-2.03315e-05
0.0287548
-1.86711e-05
0.0287341
-1.70997e-05
0.0287159
-1.56059e-05
0.0286997
-1.41803e-05
0.0286855
-1.28144e-05
0.028673
-1.15007e-05
0.0286621
-1.02325e-05
0.0286526
-9.00364e-06
0.0286444
-7.8086e-06
0.0286374
-6.64224e-06
0.0286314
-5.49986e-06
0.0286265
-4.37702e-06
0.0286224
-3.26955e-06
0.0286193
-2.17347e-06
0.0286169
-1.08486e-06
0.0286154
0.0286146
-0.0014686
0.0278706
0.00142537
-0.00127059
0.0342272
-0.00104672
0.0352512
-0.000853408
0.0348163
-0.000699779
0.034174
-0.000577355
0.0335722
-0.000479731
0.0330317
-0.000401514
0.0325489
-0.000338424
0.0321162
-0.000287223
0.0317287
-0.000245465
0.0313819
-0.000211233
0.031072
-0.000183005
0.0307952
-0.000159587
0.0305484
-0.000140036
0.0303284
-0.000123608
0.0301325
-0.000109712
0.0299581
-9.78782e-05
0.029803
-8.77329e-05
0.0296651
-7.89752e-05
0.0295426
-7.13652e-05
0.0294336
-6.4709e-05
0.0293368
-5.88503e-05
0.0292508
-5.36618e-05
0.0291744
-4.90408e-05
0.0291064
-4.49005e-05
0.0290461
-4.11709e-05
0.0289925
-3.77936e-05
0.0289449
-3.47196e-05
0.0289026
-3.1908e-05
0.0288651
-2.93239e-05
0.0288318
-2.6938e-05
0.0288022
-2.47253e-05
0.028776
-2.26639e-05
0.0287528
-2.07351e-05
0.0287322
-1.8923e-05
0.028714
-1.7213e-05
0.028698
-1.55927e-05
0.0286839
-1.40511e-05
0.0286715
-1.25781e-05
0.0286607
-1.1165e-05
0.0286512
-9.80362e-06
0.0286431
-8.48673e-06
0.0286361
-7.20757e-06
0.0286302
-5.95991e-06
0.0286252
-4.73792e-06
0.0286212
-3.53611e-06
0.0286181
-2.34922e-06
0.0286157
-1.17216e-06
0.0286142
0.0286135
-0.00169898
0.0278596
0.00170991
-0.00145967
0.0339879
-0.00119701
0.0349885
-0.000975332
0.0345946
-0.000799895
0.0339985
-0.00066086
0.0334332
-0.000550435
0.0329213
-0.000461947
0.0324604
-0.00039042
0.0320447
-0.000332196
0.0316705
-0.000284539
0.0313343
-0.000245304
0.0310327
-0.000212803
0.0307627
-0.000185713
0.0305213
-0.000162993
0.0303056
-0.000143819
0.0301133
-0.000127535
0.0299418
-0.000113618
0.0297891
-0.00010165
0.0296532
-9.12949e-05
0.0295322
-8.22808e-05
0.0294246
-7.43884e-05
0.0293289
-6.74394e-05
0.0292438
-6.12877e-05
0.0291682
-5.58143e-05
0.029101
-5.09188e-05
0.0290412
-4.65195e-05
0.0289881
-4.25472e-05
0.0289409
-3.89443e-05
0.028899
-3.5662e-05
0.0288618
-3.26586e-05
0.0288288
-2.98985e-05
0.0287994
-2.73518e-05
0.0287734
-2.49917e-05
0.0287504
-2.27956e-05
0.02873
-2.07435e-05
0.028712
-1.8818e-05
0.0286961
-1.70035e-05
0.0286821
-1.52864e-05
0.0286698
-1.36544e-05
0.028659
-1.20966e-05
0.0286497
-1.06029e-05
0.0286416
-9.16436e-06
0.0286346
-7.7725e-06
0.0286288
-6.41966e-06
0.0286239
-5.0986e-06
0.0286199
-3.8025e-06
0.0286168
-2.52487e-06
0.0286145
-1.2594e-06
0.0286129
0.0286122
-0.00190434
0.0277997
0.0019643
-0.00163067
0.0337143
-0.00133476
0.0346926
-0.00108786
0.0343477
-0.000892789
0.0338035
-0.00073896
0.0332794
-0.000617035
0.0327994
-0.000519199
0.0323625
-0.000439925
0.0319654
-0.000375219
0.0316058
-0.000322086
0.0312811
-0.000278179
0.0309888
-0.000241662
0.0307262
-0.000211102
0.0304907
-0.000185372
0.0302799
-0.000163576
0.0300915
-0.000145002
0.0299232
-0.000129078
0.0297732
-0.000115347
0.0296394
-0.000103441
0.0295203
-9.3059e-05
0.0294142
-8.39591e-05
0.0293198
-7.59423e-05
0.0292358
-6.8845e-05
0.0291611
-6.25331e-05
0.0290947
-5.68935e-05
0.0290356
-5.18329e-05
0.0289831
-4.72726e-05
0.0289364
-4.31463e-05
0.0288949
-3.93975e-05
0.0288581
-3.59782e-05
0.0288253
-3.28469e-05
0.0287963
-2.99683e-05
0.0287706
-2.73113e-05
0.0287478
-2.48492e-05
0.0287276
-2.25584e-05
0.0287097
-2.04183e-05
0.0286939
-1.84104e-05
0.0286801
-1.65185e-05
0.0286679
-1.47281e-05
0.0286572
-1.3026e-05
0.028648
-1.14004e-05
0.02864
-9.84046e-06
0.0286331
-8.3362e-06
0.0286273
-6.87842e-06
0.0286224
-5.45851e-06
0.0286185
-4.06833e-06
0.0286154
-2.70016e-06
0.0286131
-1.34647e-06
0.0286116
0.0286108
-0.00207796
0.0277019
0.00217571
-0.00177925
0.0334156
-0.00145812
0.0343715
-0.00118927
0.0340789
-0.000977477
0.0335917
-0.000811051
0.0331129
-0.000679114
0.0326674
-0.000572966
0.0322564
-0.000486719
0.0318792
-0.000416129
0.0315352
-0.000357983
0.031223
-0.000309761
0.0309406
-0.000269506
0.030686
-0.000235693
0.0304569
-0.000207121
0.0302513
-0.000182836
0.0300672
-0.000162074
0.0299025
-0.000144224
0.0297553
-0.000128794
0.029624
-0.000115386
0.0295069
-0.000103676
0.0294025
-9.33998e-05
0.0293095
-8.43396e-05
0.0292268
-7.63162e-05
0.0291531
-6.91813e-05
0.0290875
-6.28099e-05
0.0290292
-5.70982e-05
0.0289773
-5.19579e-05
0.0289312
-4.73147e-05
0.0288903
-4.31049e-05
0.0288538
-3.9274e-05
0.0288215
-3.5775e-05
0.0287928
-3.25676e-05
0.0287674
-2.96162e-05
0.0287448
-2.68901e-05
0.0287248
-2.43624e-05
0.0287072
-2.20091e-05
0.0286916
-1.98091e-05
0.0286779
-1.77436e-05
0.0286658
-1.57957e-05
0.0286553
-1.39502e-05
0.0286461
-1.21935e-05
0.0286382
-1.05128e-05
0.0286314
-8.89679e-06
0.0286256
-7.33466e-06
0.0286209
-5.81644e-06
0.028617
-4.33271e-06
0.0286139
-2.87448e-06
0.0286116
-1.43306e-06
0.0286102
0.0286094
-0.00221577
0.0275814
0.00233626
-0.00190243
0.0331022
-0.00156425
0.0340333
-0.00127798
0.0337926
-0.00105318
0.0333669
-0.000876669
0.0329364
-0.000736309
0.0325271
-0.000622969
0.032143
-0.000530596
0.0317868
-0.000454773
0.0314594
-0.00039211
0.0311603
-0.000339953
0.0308885
-0.000296251
0.0306423
-0.000259412
0.0304201
-0.000228177
0.0302201
-0.000201541
0.0300406
-0.000178701
0.0298796
-0.00015901
0.0297356
-0.000141949
0.0296069
-0.000127093
0.029492
-0.000114097
0.0293895
-0.000102678
0.0292981
-9.26017e-05
0.0292167
-8.36741e-05
0.0291442
-7.57339e-05
0.0290796
-6.86453e-05
0.0290221
-6.22942e-05
0.028971
-5.65838e-05
0.0289255
-5.14318e-05
0.0288851
-4.67677e-05
0.0288492
-4.2531e-05
0.0288173
-3.86691e-05
0.028789
-3.5137e-05
0.0287638
-3.18948e-05
0.0287416
-2.8908e-05
0.0287218
-2.6146e-05
0.0287044
-2.3582e-05
0.028689
-2.1192e-05
0.0286755
-1.89547e-05
0.0286636
-1.68511e-05
0.0286532
-1.48638e-05
0.0286441
-1.29773e-05
0.0286363
-1.11774e-05
0.0286296
-9.45083e-06
0.0286239
-7.78554e-06
0.0286192
-6.17016e-06
0.0286153
-4.59396e-06
0.0286123
-3.04674e-06
0.0286101
-1.51862e-06
0.0286086
0.0286079
-0.0023165
0.0274541
0.00244386
-0.00199847
0.0327842
-0.00164935
0.0336842
-0.00135281
0.0334961
-0.00111937
0.0331334
-0.000935497
0.0327526
-0.00078834
0.0323799
-0.000668997
0.0320237
-0.000571407
0.0316892
-0.000491039
0.031379
-0.000424376
0.0310937
-0.000368674
0.0308328
-0.000321828
0.0305954
-0.000282198
0.0303804
-0.000248483
0.0301864
-0.00021964
0.0300117
-0.000194834
0.0298548
-0.000173391
0.0297142
-0.000154769
0.0295883
-0.000138521
0.0294758
-0.000124285
0.0293753
-0.00011176
0.0292856
-0.000100697
0.0292056
-9.08888e-05
0.0291343
-8.21634e-05
0.0290709
-7.4374e-05
0.0290143
-6.73974e-05
0.028964
-6.11285e-05
0.0289193
-5.54776e-05
0.0288795
-5.03677e-05
0.0288441
-4.57324e-05
0.0288126
-4.1514e-05
0.0287847
-3.76627e-05
0.02876
-3.41344e-05
0.028738
-3.08911e-05
0.0287186
-2.78987e-05
0.0287014
-2.51273e-05
0.0286863
-2.25504e-05
0.0286729
-2.01442e-05
0.0286612
-1.78874e-05
0.0286509
-1.57607e-05
0.028642
-1.37468e-05
0.0286343
-1.18295e-05
0.0286277
-9.99445e-06
0.0286221
-8.22787e-06
0.0286174
-6.51711e-06
0.0286136
-4.85018e-06
0.0286107
-3.21567e-06
0.0286085
-1.60252e-06
0.028607
0.0286063
-0.00238125
0.0273338
0.0025015
-0.00206727
0.0324702
-0.00171432
0.0333313
-0.00141351
0.0331952
-0.00117569
0.0328956
-0.000987092
0.032564
-0.000834917
0.0322277
-0.000710855
0.0318996
-0.000609005
0.0315874
-0.000524805
0.0312948
-0.000454668
0.0310235
-0.000395822
0.0307739
-0.000346143
0.0305457
-0.000303966
0.0303383
-0.00026796
0.0301504
-0.000237058
0.0299808
-0.000210402
0.0298282
-0.000187301
0.0296911
-0.000167193
0.0295682
-0.000149614
0.0294582
-0.000134186
0.0293599
-0.000120595
0.029272
-0.000108579
0.0291936
-9.79186e-05
0.0291237
-8.84311e-05
0.0290614
-7.99606e-05
0.0290059
-7.23752e-05
0.0289564
-6.5562e-05
0.0289124
-5.94245e-05
0.0288733
-5.38795e-05
0.0288385
-4.88549e-05
0.0288076
-4.42882e-05
0.0287802
-4.01249e-05
0.0287558
-3.63172e-05
0.0287342
-3.28231e-05
0.0287151
-2.96055e-05
0.0286982
-2.66317e-05
0.0286833
-2.38723e-05
0.0286701
-2.13012e-05
0.0286586
-1.88949e-05
0.0286485
-1.66324e-05
0.0286397
-1.44942e-05
0.0286322
-1.24628e-05
0.0286257
-1.05221e-05
0.0286201
-8.6571e-06
0.0286156
-6.85371e-06
0.0286118
-5.09871e-06
0.0286089
-3.3795e-06
0.0286067
-1.68388e-06
0.0286053
0.0286046
-0.0024131
0.0272314
0.00251551
-0.00211017
0.0321673
-0.00176028
0.0329814
-0.00146059
0.0328956
-0.00122213
0.0326572
-0.00103124
0.0323731
-0.000875876
0.0320724
-0.00074845
0.0317722
-0.000643326
0.0314823
-0.000556008
0.0312075
-0.000482922
0.0309504
-0.000421334
0.0307123
-0.000369134
0.0304935
-0.000324653
0.0302938
-0.000286547
0.0301123
-0.000253736
0.029948
-0.00022535
0.0297998
-0.000200688
0.0296664
-0.000179172
0.0295467
-0.000160326
0.0294394
-0.000143759
0.0293433
-0.000129145
0.0292574
-0.000116212
0.0291807
-0.00010473
0.0291122
-9.45064e-05
0.0290511
-8.53769e-05
0.0289967
-7.72016e-05
0.0289483
-6.98605e-05
0.0289051
-6.32508e-05
0.0288667
-5.72832e-05
0.0288326
-5.18804e-05
0.0288022
-4.69752e-05
0.0287753
-4.25088e-05
0.0287513
-3.84294e-05
0.0287301
-3.46917e-05
0.0287114
-3.12555e-05
0.0286948
-2.8085e-05
0.0286801
-2.51485e-05
0.0286672
-2.24175e-05
0.0286559
-1.98665e-05
0.028646
-1.74724e-05
0.0286374
-1.52141e-05
0.0286299