/*--------------------------------*- C++ -*----------------------------------*\
  =========                 |
  \\      /  F ield         | OpenFOAM: The Open Source CFD Toolbox
   \\    /   O peration     | Website:  https://openfoam.org
    \\  /    A nd           | Version:  7
     \\/     M anipulation  |
\*---------------------------------------------------------------------------*/
FoamFile
{
    version     2.0;
    format      ascii;
    class       surfaceScalarField;
    location    "40";
    object      phi;
}
// * * * * * * * * * * * * * * * * * * * * * * * * * * * * * * * * * * * * * //

dimensions      [0 3 -1 0 0 0 0];

internalField   nonuniform List<scalar> 
6504
(
-0.000250425
4.02126e-05
-0.000293199
4.27594e-05
-0.000338866
4.56486e-05
-0.000388021
4.91329e-05
-0.000441511
5.34624e-05
5.88786e-05
-0.000500422
-0.00024403
7.89965e-05
-0.000285049
8.37785e-05
-0.000328604
8.92039e-05
-0.000375267
9.5796e-05
-0.000425891
0.000104086
0.000114601
-0.000481613
-0.00023151
0.000114943
-0.000269058
0.000121327
-0.000308416
0.000128562
-0.000350101
0.00013748
-0.000394973
0.000148959
0.00016392
-0.000444292
-0.000213371
0.000146741
-0.000245811
0.000153767
-0.000278942
0.000161694
-0.000313171
0.000171709
-0.000349356
0.000185143
0.000203534
-0.00038897
-0.000190262
0.000173194
-0.000216071
0.000179576
-0.00024103
0.000186652
-0.000265345
0.000196024
-0.000289804
0.000209603
0.000229921
-0.000316191
-0.000162819
-0.000180607
0.000197364
-0.00019556
0.000201605
-0.000207549
0.000208013
-0.000217154
0.000219208
0.000239084
-0.000226317
-0.000139886
0.000205845
-0.000143112
0.000204831
-0.000140445
0.000205345
-0.000132261
0.000211024
0.000226228
-0.000119405
-9.35656e-05
-8.32803e-05
0.000194546
-6.33834e-05
0.000185448
-3.38358e-05
0.000181477
0.000193016
-6.23468e-07
-1.37575e-05
0.000168412
2.6554e-05
0.000145137
8.2715e-05
0.000125316
0.00012267
0.000153061
6.9442e-05
0.000133808
8.07713e-05
0.000221234
3.7889e-05
1.29149e-05
0.000330989
0.000266908
0.000391387
-8.65899e-05
-0.00014435
0.000548652
0.000606848
-0.000255727
-0.000356563
0.000819062
0.000882355
-0.000629019
0.00115481
0.00156039
-0.000602002
0.00010147
-0.000691975
8.98191e-05
-0.000781991
8.98084e-05
-0.000869776
8.75135e-05
-0.0009558
8.5682e-05
-0.00103942
8.32065e-05
-0.00112002
8.01182e-05
-0.00119698
7.64237e-05
-0.00126972
7.21736e-05
-0.00133771
6.74228e-05
-0.00140043
6.22042e-05
-0.00145737
5.65291e-05
-0.00150798
5.03555e-05
-0.00155162
4.36133e-05
-0.00158761
3.62315e-05
-0.00161522
2.81668e-05
-0.00163374
1.94005e-05
-0.00164257
1.00255e-05
-0.00164112
-1.15947e-07
-0.00162975
-9.77669e-06
-0.00160794
-2.00167e-05
-0.00157561
-3.04591e-05
-0.00153292
-4.0819e-05
-0.00148023
-5.09096e-05
-0.00141809
-6.05236e-05
-0.00134722
-6.94962e-05
-0.00126842
-7.77038e-05
-0.00118263
-8.50335e-05
-0.00109077
-9.14481e-05
-0.000993892
-9.68288e-05
-0.000892911
-0.000101278
-0.000788735
-0.000104802
-0.000682223
-0.000107433
-0.000574131
-0.00010927
-0.000465106
-0.000110413
-0.00035576
-0.000110899
-0.000246568
-0.000110865
-0.000137949
-0.000110361
-3.02306e-05
-0.000109486
7.635e-05
-0.000108329
0.00018158
-0.00010692
0.000285398
-0.000105413
0.00038765
-0.000103718
0.000488513
-0.000102172
0.000587826
-0.000100438
0.000686033
-9.91236e-05
0.000783345
-9.79962e-05
0.000879496
-9.65775e-05
0.000978266
-9.89172e-05
-9.66481e-05
-2.53561e-07
-0.000581009
0.000200866
-0.000668487
0.000177297
-0.000756211
0.000177532
-0.000841772
0.000173075
-0.000925507
0.000169417
-0.00100679
0.000164487
-0.001085
0.000158327
-0.00115953
0.000150955
-0.00122982
0.000142465
-0.00129535
0.000132956
-0.00135563
0.000122484
-0.00141017
0.000111066
-0.00145843
9.8617e-05
-0.00149981
8.49945e-05
-0.00153364
7.00603e-05
-0.00155921
5.37386e-05
-0.00157583
3.60155e-05
-0.00158282
1.70182e-05
-0.00157999
-2.94625e-06
-0.0015672
-2.25621e-05
-0.0015442
-4.30244e-05
-0.00151087
-6.37864e-05
-0.00146738
-8.43085e-05
-0.00141409
-0.000104203
-0.00135154
-0.000123067
-0.00128046
-0.00014058
-0.00120165
-0.000156518
-0.00111601
-0.00017067
-0.00102446
-0.000182994
-0.000928051
-0.000193241
-0.000827673
-0.000201656
-0.000724216
-0.000208259
-0.000618527
-0.000213122
-0.000511344
-0.000216453
-0.000403297
-0.000218461
-0.000294987
-0.000219209
-0.000186871
-0.00021898
-7.93584e-05
-0.000217874
2.72363e-05
-0.00021608
0.000132684
-0.000213776
0.000236782
-0.000211018
0.000339474
-0.000208105
0.000440621
-0.000204865
0.000540385
-0.000201936
0.000638649
-0.000198702
0.000735782
-0.000196256
0.000832108
-0.000194322
0.000927224
-0.000191694
0.00102475
-0.000196447
-0.000192639
-0.000539478
0.000296052
-0.00062215
0.000259969
-0.000705419
0.0002608
-0.000786666
0.000254322
-0.000865952
0.000248703
-0.000942682
0.000241217
-0.00101624
0.000231882
-0.00108604
0.00022076
-0.00115157
0.000207991
-0.00121233
0.00019372
-0.00126788
0.000178027
-0.00131775
0.000160938
-0.00136146
0.000142332
-0.00139846
0.000121995
-0.00142812
9.97127e-05
-0.00144975
7.53698e-05
-0.00146269
4.89572e-05
-0.00146628
2.06125e-05
-0.00146053
-8.7023e-06
-0.00144514
-3.79462e-05
-0.00141986
-6.83112e-05
-0.00138464
-9.90063e-05
-0.00133964
-0.000129301
-0.00128524
-0.000158609
-0.00122197
-0.000186338
-0.00115053
-0.000212014
-0.00107173
-0.000235321
-0.000986444
-0.000255955
-0.000895548
-0.00027389
-0.000800081
-0.000288708
-0.000700904
-0.000300833
-0.000598866
-0.000310297
-0.000494785
-0.000317203
-0.000389372
-0.000321865
-0.000283218
-0.000324615
-0.000176907
-0.000325521
-7.08608e-05
-0.000325026
3.45298e-05
-0.000323265
0.00013897
-0.000320521
0.000242251
-0.000317057
0.000344191
-0.000312958
0.000444734
-0.000308648
0.000543776
-0.000303907
0.000641442
-0.000299602
0.000737708
-0.000294968
0.000832793
-0.000291341
0.000927231
-0.00028876
0.00102038
-0.000284845
0.00111556
-0.000291625
-0.000286844
-0.00047819
0.000385272
-0.000554133
0.000335912
-0.000631042
0.000337709
-0.000706144
0.000329425
-0.000779078
0.000321637
-0.00084929
0.000311429
-0.000916178
0.000298771
-0.000979212
0.000283794
-0.00103792
0.000266695
-0.00109186
0.000247663
-0.00114064
0.000226803
-0.00118385
0.000204151
-0.00122108
0.000179566
-0.00125184
0.000152757
-0.00127556
0.000123426
-0.00129159
9.14074e-05
-0.00129933
5.66974e-05
-0.00129814
1.9419e-05
-0.00128827
-1.85675e-05
-0.00126921
-5.7011e-05
-0.00124075
-9.67702e-05
-0.00120291
-0.000136843
-0.00115587
-0.000176345
-0.00109997
-0.000214508
-0.00103576
-0.000250551
-0.000963926
-0.000283847
-0.000885237
-0.000314009
-0.000800549
-0.000340644
-0.000710665
-0.000363774
-0.000616619
-0.000382754
-0.000519217
-0.000398235
-0.000419252
-0.000410262
-0.000317501
-0.000418954
-0.000214642
-0.000424724
-0.000111189
-0.000428068
-7.68467e-06
-0.000429025
9.53753e-05
-0.000428086
0.000197756
-0.000425646
0.00029916
-0.000421925
0.000399389
-0.000417286
0.000498294
-0.000411864
0.000595819
-0.000406173
0.00069191
-0.000399998
0.000786634
-0.000394326
0.0008801
-0.000388435
0.000972317
-0.000383557
0.00106409
-0.000380532
0.00115451
-0.000375264
0.00124644
-0.000383558
-0.000378469
-0.000397942
0.000467023
-0.000465861
0.000403831
-0.000534874
0.000406721
-0.000602361
0.000396912
-0.000667396
0.000386672
-0.000729466
0.000373499
-0.000788014
0.000357319
-0.000842575
0.000338355
-0.00089275
0.00031687
-0.000938177
0.000293091
-0.000978517
0.000267142
-0.00101344
0.000239075
-0.00104262
0.000208741
-0.00106563
0.000175773
-0.00108199
0.00013978
-0.00109111
0.000100529
-0.00109241
5.79931e-05
-0.00108539
1.24084e-05
-0.00107048
-3.34835e-05
-0.00104694
-8.05487e-05
-0.00101466
-0.000129049
-0.000973709
-0.000177796
-0.000924265
-0.000225789
-0.000866674
-0.000272099
-0.000801457
-0.000315768
-0.000729294
-0.00035601
-0.000650917
-0.000392387
-0.000567135
-0.000424426
-0.000478663
-0.000452246
-0.000386514
-0.000474903
-0.000291442
-0.000493307
-0.000194148
-0.000507556
-9.5353e-05
-0.000517749
4.41841e-06
-0.000524496
0.00010431
-0.000527959
0.000204203
-0.000528918
0.000303651
-0.000527534
0.00040232
-0.000524315
0.000499983
-0.000519588
0.000596464
-0.000513768
0.000691657
-0.000507056
0.000785491
-0.000500007
0.000877987
-0.000492494
0.000969123
-0.000485462
0.00105918
-0.000478491
0.00114791
-0.000472291
0.00123641
-0.000469028
0.00132354
-0.000462394
0.0014116
-0.00047162
-0.000466854
-0.000299142
0.000539848
-0.000358643
0.000463332
-0.000418689
0.000466768
-0.000477532
0.000455755
-0.000533547
0.000442687
-0.000586259
0.000426211
-0.000635196
0.000406255
-0.000679988
0.000383147
-0.000720337
0.000357219
-0.000755971
0.000328724
-0.00078663
0.000297802
-0.000812064
0.000264509
-0.000832028
0.000228706
-0.000846209
0.000189954
-0.000854181
0.000147752
-0.000855432
0.00010178
-0.000849658
5.22192e-05
-0.00083583
-1.41999e-06
-0.00081542
-5.38931e-05
-0.000786884
-0.000109084
-0.000750409
-0.000165524
-0.000706093
-0.000222112
-0.000654133
-0.000277749
-0.000594853
-0.000331378
-0.000528744
-0.000381877
-0.00045646
-0.000428293
-0.000378693
-0.000470154
-0.000296228
-0.000506892
-0.000209577
-0.000538897
-0.000119796
-0.000564684
-2.74755e-05
-0.000585627
6.64821e-05
-0.000601514
0.00016167
-0.000612937
0.000257502
-0.000620328
0.000353558
-0.000624016
0.00044936
-0.000624719
0.000544613
-0.000622787
0.000639041
-0.000618743
0.000732458
-0.000613005
0.000824703
-0.000606013
0.000915717
-0.00059807
0.00100541
-0.000589697
0.00109388
-0.000580969
0.00118101
-0.000572586
0.00126725
-0.000564739
0.00135212
-0.000557155
0.00143692
-0.000553832
0.00152042
-0.000545896
0.00160428
-0.000555473
-0.000551518
-0.000181244
0.000601687
-0.000233202
0.00051529
-0.000283789
0.000517355
-0.000333426
0.000505392
-0.000379777
0.000489038
-0.000422363
0.000468797
-0.000460856
0.000444749
-0.000495022
0.000417314
-0.000524694
0.000386891
-0.000549711
0.000353741
-0.000569905
0.000317996
-0.000585111
0.000279715
-0.000595174
0.000238769
-0.000599881
0.000194661
-0.000598892
0.000146763
-0.000591774
9.46618e-05
-0.000577789
3.82339e-05
-0.000558295
-2.09135e-05
-0.000531434
-8.07548e-05
-0.000497705
-0.000142813
-0.00045697
-0.00020626
-0.000409324
-0.000269757
-0.000354981
-0.000332093
-0.000294231
-0.000392129
-0.00022751
-0.000448598
-0.000155447
-0.000500355
-7.86156e-05
-0.000546986
2.68854e-06
-0.000588196
8.63015e-05
-0.00062251
0.000173052
-0.000651435
0.000261875
-0.000674449
0.000352176
-0.000691815
0.000443375
-0.000704136
0.000534975
-0.000711928
0.000626613
-0.000715653
0.0007179
-0.000716007
0.000808585
-0.000713472
0.000898426
-0.000708584
0.000987283
-0.000701862
0.001075
-0.000693732
0.00116158
-0.000684649
0.00124688
-0.000675001
0.00133113
-0.000665212
0.00141404
-0.000655496
0.00149628
-0.000646986
0.00157712
-0.000637991
0.00165802
-0.000634732
0.00173776
-0.000625639
0.00181733
-0.000635041
-0.000632195
-4.02424e-05
0.000641305
-8.96917e-05
0.000564739
-0.000130438
0.000558101
-0.000170821
0.000545774
-0.000207356
0.000525573
-0.00023952
0.000500961
-0.0002672
0.000472429
-0.000290346
0.000440459
-0.000308959
0.000405504
-0.000323012
0.000367794
-0.000332444
0.000327428
-0.000337178
0.000284449
-0.000337143
0.000238734
-0.000332229
0.000189747
-0.000322178
0.000136712
-0.000306679
7.9163e-05
-0.000285169
1.67242e-05
-0.000258761
-4.73217e-05
-0.000226216
-0.0001133
-0.000187505
-0.000181524
-0.00014275
-0.000251016
-9.20447e-05
-0.000320462
-3.55304e-05
-0.000388607
2.6272e-05
-0.000453931
9.27935e-05
-0.00051512
0.000163944
-0.000571506
0.000239051
-0.000622093
0.000317414
-0.000666558
0.000398734
-0.000703831
0.000482144
-0.000734845
0.000567139
-0.000759444
0.00065325
-0.000777925
0.000740006
-0.000790893
0.000826991
-0.000798913
0.000913896
-0.000802557
0.0010004
-0.000802508
0.00108629
-0.000799365
0.00117136
-0.000793657
0.00125552
-0.000786022
0.00133861
-0.000776821
0.00142069
-0.000766725
0.00150156
-0.000755874
0.00158155
-0.000745202
0.00166025
-0.000734193
0.00173849
-0.00072523
0.00181535
-0.000714844
0.00189233
-0.000711718
0.00196836
-0.000701662
0.00204379
-0.000710479
-0.000708834
0.000116432
0.000677935
7.43487e-05
0.000606822
4.27116e-05
0.000589738
1.11888e-05
0.000577297
-1.58842e-05
0.000552646
-3.7901e-05
0.000522977
-5.49064e-05
0.000489435
-6.71388e-05
0.000452691
-7.48186e-05
0.000413184
-7.80818e-05
0.000371058
-7.69809e-05
0.000326327
-7.15285e-05
0.000278996
-6.17306e-05
0.000228936
-4.75566e-05
0.000175573
-2.87788e-05
0.000117934
-5.00249e-06
5.53867e-05
2.31116e-05
-1.13898e-05
5.56275e-05
-7.98376e-05
9.34444e-05
-0.000151117
0.000136439
-0.000224518
0.000184474
-0.000299051
0.000237406
-0.000373394
0.000295008
-0.000446209
0.000357033
-0.000515957
0.000423169
-0.000581256
0.000492913
-0.000641249
0.000565797
-0.000694977
0.000641282
-0.000742043
0.000719059
-0.000781609
0.000798503
-0.000814288
0.000879174
-0.000840116
0.000960686
-0.000859437
0.00104266
-0.000872869
0.00112476
-0.000881013
0.00120673
-0.00088453
0.00128831
-0.000884087
0.00136934
-0.00088039
0.00144962
-0.000873938
0.00152911
-0.000865508
0.00160763
-0.000855343
0.0016853
-0.000844397
0.00176187
-0.000832445
0.00183776
-0.000821091
0.00191242
-0.000808853
0.00198683
-0.000799637
0.00205991
-0.00078793
0.00213316
-0.000784967
0.00220565
-0.000774154
0.0022773
-0.000782122
-0.000781588
0.000299685
0.000709239
0.000264172
0.000642335
0.000238392
0.000615518
0.000215011
0.000600678
0.00019667
0.000570987
0.000184225
0.000535423
0.000177267
0.000496393
0.000175292
0.000454666
0.000177833
0.000410642
0.000184577
0.000364313
0.000195353
0.000315551
0.000210062
0.000264287
0.000228633
0.000210366
0.000251016
0.00015319
0.000277342
9.16087e-05
0.000307945
2.47832e-05
0.000341602
-4.50466e-05
0.000379572
-0.000117807
0.000421687
-0.000193233
0.000467975
-0.000270806
0.000518307
-0.000349383
0.000572533
-0.000427619
0.000630444
-0.00050412
0.000691821
-0.000577334
0.000756401
-0.000645835
0.000823799
-0.000708648
0.000893644
-0.000764822
0.000965511
-0.000813909
0.00103915
-0.000855249
0.0011141
-0.000889238
0.00119002
-0.000916036
0.0012666
-0.00093602
0.00134356
-0.000949826
0.00142062
-0.000958076
0.00149759
-0.000961499
0.00157425
-0.000960743
0.00165047
-0.000956611
0.00172608
-0.000949549
0.00180107
-0.000940492
0.00187523
-0.000929511
0.00194875
-0.000917914
0.0020213
-0.000904992
0.00209337
-0.000893167
0.00216432
-0.000879805
0.0022352
-0.000870515
0.00230487
-0.0008576
0.00237472
-0.000854815
0.00244398
-0.000843417
0.0025123
-0.000850442
-0.000850779
0.00051776
0.000740131
0.000484697
0.000675398
0.000463714
0.000636501
0.000446888
0.000617504
0.000435845
0.00058203
0.00043147
0.000539798
0.000433129
0.000494734
0.000439966
0.000447829
0.00045123
0.000399378
0.000466417
0.000349127
0.000485238
0.00029673
0.00050753
0.000241995
0.000533177
0.000184718
0.000562081
0.000124286
0.00059426
5.94302e-05
0.000629819
-1.07762e-05
0.000667823
-8.3051e-05
0.000709215
-0.000159199
0.000753966
-0.000237983
0.000801968
-0.000318808
0.00085309
-0.000400505
0.000907186
-0.000481716
0.000964077
-0.00056101
0.00102358
-0.00063684
0.00108551
-0.000707761
0.00114958
-0.000772719
0.00121553
-0.000830772
0.00128305
-0.000881434
0.00135198
-0.000924173
0.00142198
-0.00095924
0.00149282
-0.000986871
0.00156426
-0.00100746
0.00163609
-0.00102166
0.0017081
-0.00103009
0.00178014
-0.00103354
0.00185202
-0.00103262
0.00192365
-0.00102824
0.00199486
-0.00102076
0.00206565
-0.00101129
0.00213582
-0.000999677
0.00220556
-0.000987651
0.00227449
-0.000973924
0.00234316
-0.000961843
0.00241085
-0.000947494
0.00247863
-0.000938288
0.00254534
-0.000924312
0.00261225
-0.000921729
0.00267869
-0.000909854
0.00274426
-0.000916007
-0.000916859
0.000778754
0.000780438
0.000745638
0.000708515
0.000727294
0.000654844
0.00071511
0.000629689
0.000709264
0.000587876
0.000710656
0.000538407
0.000718533
0.000486856
0.000731713
0.000434649
0.000749158
0.000381934
0.000770181
0.000328103
0.000794406
0.000272505
0.00082163
0.000214771
0.000851735
0.000154613
0.000884555
9.14662e-05
0.00092033
2.36545e-05
0.000957695
-4.81408e-05
0.000997876
-0.000123232
0.00104049
-0.000201816
0.0010857
-0.000283188
0.00113337
-0.000366476
0.00118337
-0.000450512
0.00123559
-0.000533933
0.00128988
-0.000615298
0.00134611
-0.000693074
0.00140417
-0.000765821
0.00146389
-0.000832435
0.0015251
-0.000891986
0.00158762
-0.000943957
0.00165135
-0.000987901
0.00171608
-0.00102397
0.00178165
-0.00105244
0.0018479
-0.00107371
0.00191468
-0.00108843
0.0019818
-0.00109722
0.00204916
-0.0011009
0.00211659
-0.00110005
0.002184
-0.00109565
0.00225122
-0.00108798
0.00231828
-0.00107834
0.00238493
-0.00106633
0.00245138
-0.00105411
0.00251723
-0.00103977
0.00258302
-0.00102763
0.00264799
-0.00101247
0.00271319
-0.00100348
0.00277748
-0.000988607
0.00284202
-0.000986271
0.00290612
-0.000973956
0.00296956
-0.000979447
-0.000980369
0.00109244
0.000842814
0.00105823
0.000742722
0.00104072
0.00067235
0.00103082
0.000639587
0.00102716
0.000591542
0.00103074
0.000534824
0.001041
0.000476593
0.00105659
0.000419062
0.00107624
0.000362281
0.00109914
0.000305211
0.00112484
0.000246806
0.00115317
0.000186441
0.001184
0.000123776
0.0012171
5.83653e-05
0.00125248
-1.17273e-05
0.00128919
-8.48507e-05
0.00132806
-0.000162099
0.00136897
-0.000242728
0.0014119
-0.000326118
0.00145674
-0.000411313
0.00150338
-0.000497148
0.00155171
-0.000582268
0.00160165
-0.000665239
0.00165314
-0.000744559
0.00170612
-0.000818803
0.00176053
-0.000886842
0.00181629
-0.000947751
0.00187332
-0.00100099
0.00193158
-0.00104616
0.00199095
-0.00108334
0.00205132
-0.00111281
0.00211257
-0.00113496
0.00217459
-0.00115045
0.00223723
-0.00115985
0.00230037
-0.00116404
0.00236386
-0.00116353
0.00242761
-0.00115941
0.00249144
-0.00115181
0.00255536
-0.00114226
0.00261912
-0.00113008
0.00268291
-0.0011179
0.00274631
-0.00110317
0.00280982
-0.00109115
0.00287272
-0.00107538
0.00293593
-0.00106669
0.00299843
-0.0010511
0.00306122
-0.00104906
0.00312354
-0.00103628
0.00318554
-0.00104145
-0.00104189
0.00147227
0.000930937
0.00144097
0.000774016
0.00142275
0.000690573
0.00141086
0.000651473
0.001404
0.000598404
0.00140372
0.000535102
0.00141003
0.000470286
0.00142168
0.000407411
0.00143737
0.000346594
0.00145621
0.000286368
0.00147777
0.000225253
0.00150185
0.000162353
0.00152833
9.72969e-05
0.00155713
2.95726e-05
0.00158721
-4.18065e-05
0.00161937
-0.000117019
0.00165331
-0.00019604
0.0016891
-0.000278518
0.00172669
-0.000363701
0.00176598
-0.000450601
0.00180688
-0.00053805
0.00184932
-0.000624713
0.00189326
-0.000709182
0.00193869
-0.000789986
0.00198561
-0.000865725
0.00203403
-0.000935257
0.00208394
-0.000997659
0.00213531
-0.00105236
0.00218814
-0.00109899
0.00224236
-0.00113756
0.00229789
-0.00116834
0.00235462
-0.00119169
0.00241244
-0.00120827
0.0024712
-0.00121862
0.00253079
-0.00122363
0.00259103
-0.00122377
0.00265183
-0.0012202
0.00271298
-0.00121296
0.00277448
-0.00120377
0.00283607
-0.00119167
0.00289789
-0.00117972
0.00295954
-0.00116482
0.00302146
-0.00115307
0.00308297
-0.00113688
0.00314486
-0.00112859
0.00320617
-0.0011124
0.00326793
-0.00111082
0.00332899
-0.00109734
0.00339036
-0.00110282
-0.00110197
0.00196764
0.000982319
0.00194243
0.000799227
0.00191181
0.000721189
0.0018857
0.000677582
0.00186397
0.000620137
0.00184839
0.000550679
0.00183964
0.00047904
0.00183682
0.000410226
0.00183878
0.00034464
0.00184465
0.000280491
0.00185399
0.00021592
0.00186658
0.000149758
0.00188234
8.1538e-05
0.00190048
1.14315e-05
0.00192083
-6.21579e-05
0.00194368
-0.000139866
0.00196878
-0.000221138
0.00199605
-0.000305792
0.00202541
-0.000393063
0.00205675
-0.000481938
0.00208996
-0.000571258
0.00212496
-0.000659717
0.00216172
-0.000745938
0.00220023
-0.000828495
0.00224052
-0.000906014
0.00228261
-0.000977348
0.00232652
-0.00104158
0.00237226
-0.0010981
0.00241982
-0.00114655
0.00246916
-0.00118689
0.0025202
-0.00121938
0.00257283
-0.00124433
0.00262695
-0.00126238
0.00268239
-0.00127406
0.00273901
-0.00128026
0.00279663
-0.00128139
0.00285513
-0.0012787
0.00291429
-0.00127213
0.00297405
-0.00126353
0.0030342
-0.00125182
0.00309472
-0.00124024
0.00315544
-0.00122554
0.00321633
-0.00121395
0.0032774
-0.00119796
0.00333832
-0.0011895
0.00339975
-0.00117384
0.00346025
-0.00117132
0.00352214
-0.00115923
0.00358159
-0.00116227
-0.0011624
0.0295497
0.00186348
0.0286225
0.00172638
0.0277857
0.001558
0.0270654
0.0013979
0.0264329
0.00125268
0.0258643
0.00111922
0.0253518
0.000991522
0.0248944
0.000867645
0.0244917
0.000747323
0.024142
0.000630217
0.0238423
0.000515599
0.0235895
0.000402591
0.0233809
0.000290159
0.0232167
0.000175644
0.0230873
6.72081e-05
0.0229874
-4.0013e-05
0.0229188
-0.000152529
0.0228765
-0.000263479
0.0228562
-0.000372745
0.022854
-0.000479713
0.0228665
-0.000583767
0.022891
-0.000684195
0.0229252
-0.000780184
0.0229676
-0.000870862
0.023017
-0.000955407
0.0230727
-0.0010331
0.0231345
-0.0011034
0.0232024
-0.00116592
0.0232763
-0.00122052
0.0233566
-0.00126717
0.0234433
-0.0013061
0.0235366
-0.00133757
0.0236363
-0.00136213
0.0237424
-0.00138013
0.0238546
-0.00139242
0.0239724
-0.00139928
0.0240956
-0.00140184
0.0242236
-0.00140011
0.0243557
-0.00139565
0.0244918
-0.00138791
0.0246306
-0.00137909
0.0247729
-0.0013678
0.0249161
-0.00135714
0.0250628
-0.00134463
0.0252076
-0.00133433
0.0253568
-0.00132304
0.0255
-0.00131456
0.0256482
-0.00130739
0.0257868
-0.00130085
-0.00129949
0.0341725
0.00191809
0.0341423
0.00175661
0.0340653
0.00163499
0.033951
0.00151221
0.033817
0.00138666
0.0336744
0.00126187
0.0335266
0.00113924
0.0333758
0.00101846
0.0332243
0.000898853
0.0330746
0.00077995
0.0329286
0.000661551
0.0327875
0.000543672
0.0326513
0.000426412
0.0325168
0.000310134
0.0323886
0.000195353
0.0322656
8.30039e-05
0.0321425
-2.93986e-05
0.0320286
-0.00014959
0.0319189
-0.000263079
0.0318117
-0.000372501
0.0317062
-0.000478295
0.0316021
-0.00058004
0.0314989
-0.000676992
0.0313965
-0.000768411
0.0312948
-0.000853707
0.031194
-0.000932389
0.0310948
-0.00100412
0.0309975
-0.00106863
0.0309028
-0.00112584
0.0308113
-0.00117571
0.0307236
-0.00121839
0.0306402
-0.00125416
0.0305616
-0.00128351
0.0304882
-0.00130671
0.0304201
-0.00132438
0.0303577
-0.00133687
0.0303009
-0.001345
0.0302498
-0.001349
0.030204
-0.00134989
0.0301638
-0.00134767
0.0301283
-0.00134366
0.030098
-0.00133741
0.0300715
-0.0013307
0.0300493
-0.0013224
0.03003
-0.001315
0.0300132
-0.00130628
0.0299985
-0.00129983
0.029983
-0.00129191
0.02997
-0.00128788
-0.00128377
0.0346359
0.00177803
0.0347312
0.00166139
0.0348133
0.00155285
0.034883
0.00144253
0.0349377
0.00133197
0.0349778
0.00122177
0.0350048
0.00111224
0.0350195
0.00100374
0.0350221
0.000896229
0.0350143
0.000787798
0.0349968
0.000679032
0.0349703
0.000570161
0.0349353
0.00046137
0.0348927
0.000352736
0.0348438
0.000244276
0.0347909
0.000135864
0.0347349
2.66692e-05
0.0346606
-7.53152e-05
0.034574
-0.000176471
0.0344781
-0.000276557
0.0343733
-0.000373527
0.0342596
-0.000466314
0.0341373
-0.00055469
0.0340074
-0.000638507
0.033871
-0.000717341
0.0337292
-0.000790625
0.0335832
-0.000858089
0.0334341
-0.000919519
0.0332831
-0.000974845
0.0331314
-0.00102404
0.0329803
-0.00106724
0.0328307
-0.0011046
0.0326836
-0.00113643
0.0325399
-0.00116295
0.0324001
-0.00118465
0.032265
-0.00120176
0.0321349
-0.00121492
0.0320103
-0.00122431
0.0318911
-0.00123072
0.0317776
-0.00123416
0.0316696
-0.00123565
0.031567
-0.00123486
0.0314695
-0.00123317
0.0313768
-0.00122969
0.0312882
-0.0012264
0.0312034
-0.0012215
0.0311216
-0.00121806
0.0310424
-0.00121272
0.0309649
-0.00121029
-0.00120199
0.034073
0.0016116
0.0342236
0.0015108
0.0343636
0.00141279
0.0344886
0.00131757
0.034598
0.00122259
0.0346924
0.00112734
0.0347729
0.0010317
0.034841
0.000935701
0.0348979
0.000839352
0.0349431
0.000742591
0.0349766
0.000645505
0.0349987
0.000548069
0.0350102
0.000449822
0.0350104
0.000352598
0.0349979
0.000256764
0.0349712
0.000162566
0.0349273
7.05891e-05
0.0348717
-1.98051e-05
0.0348073
-0.000112005
0.0347309
-0.000200215
0.0346428
-0.000285436
0.0345442
-0.000367682
0.0344361
-0.000446552
0.0343192
-0.000521588
0.0341942
-0.000592435
0.0340624
-0.0006588
0.0339248
-0.000720485
0.0337826
-0.000777327
0.033637
-0.000829266
0.0334893
-0.000876258
0.0333404
-0.000918384
0.0331915
-0.000955707
0.0330435
-0.000988447
0.0328973
-0.00101674
0.0327536
-0.00104094
0.0326131
-0.0010612
0.0324761
-0.00107798
0.0323432
-0.00109141
0.0322146
-0.00110209
0.0320904
-0.00110998
0.0319706
-0.00111591
0.0318553
-0.00111954
0.0317442
-0.00112204
0.0316371
-0.00112255
0.0315335
-0.00112285
0.0314332
-0.00112114
0.0313353
-0.00112023
0.0312394
-0.00111676
0.0311446
-0.0011155
-0.00111172
0.0335067
0.0014268
0.0336659
0.00135151
0.0338097
0.00126903
0.0339403
0.001187
0.0340575
0.00110536
0.0341614
0.00102341
0.0342525
0.000940646
0.0343313
0.000856928
0.0343982
0.000772392
0.0344535
0.00068729
0.0344972
0.000601816
0.0345291
0.000516196
0.034548
0.000430874
0.0345541
0.000346475
0.0345477
0.00026321
0.0345299
0.00018038
0.0345028
9.77279e-05
0.034468
1.49538e-05
0.0344196
-6.36184e-05
0.0343601
-0.000140714
0.0342906
-0.000215903
0.0342114
-0.000288557
0.0341232
-0.000358327
0.0340266
-0.000424952
0.0339224
-0.000488214
0.0338115
-0.000547906
0.0336949
-0.000603866
0.0335735
-0.000655955
0.0334483
-0.000704103
0.0333203
-0.000748253
0.0331904
-0.00078844
0.0330594
-0.000824693
0.0329281
-0.000857152
0.0327972
-0.000885903
0.0326675
-0.000911187
0.0325394
-0.000933104
0.0324134
-0.000951995
0.0322899
-0.000967914
0.0321691
-0.000981325
0.0320513
-0.000992174
0.0319365
-0.0010011
0.0318248
-0.0010078
0.031716
-0.00101322
0.03161
-0.00101662
0.0315066
-0.00101943
0.0314056
-0.00102018
0.0313066
-0.00102122
0.0312097
-0.0010198
0.0311141
-0.00101998
-0.00101632
0.0330031
0.00125973
0.0331544
0.00120014
0.0332908
0.0011327
0.0334143
0.00106343
0.0335261
0.000993643
0.0336261
0.000923334
0.0337147
0.000852127
0.0337918
0.000779821
0.0338576
0.000706509
0.0339125
0.000632476
0.0339562
0.000558051
0.0339889
0.000483541
0.0340106
0.000409153
0.0340221
0.000334981
0.0340242
0.000261094
0.034017
0.000187639
0.0339998
0.000114896
0.0339715
4.32649e-05
0.0339344
-2.65619e-05
0.033888
-9.43198e-05
0.0338325
-0.000160397
0.0337684
-0.00022449
0.0336964
-0.000286307
0.0336171
-0.000345594
0.033531
-0.000402153
0.0334389
-0.000455822
0.0333415
-0.000506473
0.0332396
-0.000553995
0.0331338
-0.000598328
0.0330249
-0.000639399
0.0329137
-0.000677217
0.0328008
-0.000711789
0.0326869
-0.000743204
0.0325725
-0.00077151
0.0324582
-0.00079687
0.0323444
-0.000819346
0.0322316
-0.000839178
0.0321201
-0.000856402
0.0320101
-0.00087135
0.0319019
-0.000883977
0.0317956
-0.000894749
0.0316912
-0.000903445
0.0315887
-0.000910753
0.0314882
-0.000916128
0.0313895
-0.000920656
0.0312925
-0.000923213
0.0311969
-0.000925604
0.0311027
-0.000925669
0.0310092
-0.000926468
-0.000923582
0.0325551
0.00111058
0.0326935
0.00106179
0.0328195
0.00100668
0.0329336
0.000949289
0.0330368
0.000890465
0.0331296
0.000830508
0.0332124
0.000769416
0.033285
0.000707165
0.0333477
0.000643856
0.0334004
0.000579707
0.0334435
0.00051498
0.0334771
0.000449912
0.0335016
0.000384707
0.033517
0.00031955
0.0335234
0.000254673
0.0335208
0.000190311
0.033509
0.000126696
0.0334883
6.39156e-05
0.0334602
1.59713e-06
0.0334234
-5.76111e-05
0.033379
-0.000115969
0.0333272
-0.000172705
0.0332685
-0.000227566
0.0332033
-0.000280375
0.0331321
-0.000330976
0.0330555
-0.000379226
0.032974
-0.000425013
0.0328883
-0.000468242
0.0327988
-0.00050885
0.0327062
-0.000546783
0.032611
-0.000582032
0.0325138
-0.000614589
0.0324151
-0.000644504
0.0323154
-0.000671797
0.0322151
-0.000696574
0.0321146
-0.000718874
0.0320143
-0.000738864
0.0319145
-0.000756562
0.0318153
-0.000772207
0.0317171
-0.000785755
0.0316199
-0.000797554
0.0315239
-0.000807424
0.031429
-0.000815891
0.0313354
-0.000822521
0.0312429
-0.000828157
0.0311516
-0.000831899
0.0310612
-0.000835158
0.0309717
-0.000836195
0.0308827
-0.0008375
-0.000836135
0.0321587
0.000979509
0.032281
0.000939476
0.0323937
0.000893997
0.0324969
0.000846092
0.0325909
0.000796471
0.0326759
0.000745433
0.0327523
0.00069309
0.0328199
0.00063952
0.0328789
0.000584852
0.0329293
0.000529277
0.0329713
0.000473021
0.0330049
0.000416317
0.0330302
0.000359388
0.0330473
0.000302447
0.0330563
0.000245694
0.0330573
0.000189307
0.0330505
0.000133443
0.0330362
7.82445e-05
0.033014
2.38355e-05
0.0329855
-2.90977e-05
0.0329501
-8.05834e-05
0.0329082
-0.000130817
0.0328602
-0.000179571
0.0328065
-0.000226663
0.0327475
-0.000271948
0.0326835
-0.000315307
0.0326152
-0.000356644
0.0325428
-0.000395876
0.0324669
-0.000432943
0.0323879
-0.000467799
0.0323063
-0.000500422
0.0322225
-0.000530798
0.032137
-0.000558946
0.03205
-0.000584871
0.0319621
-0.000608639
0.0318735
-0.000630272
0.0317845
-0.000649878
0.0316954
-0.000667471
0.0316064
-0.000683211
0.0315177
-0.000697073
0.0314295
-0.00070929
0.0313418
-0.000719748
0.0312547
-0.000728806
0.0311684
-0.000736171
0.0310826
-0.000742428
0.0309977
-0.000746955
0.0309133
-0.00075076
0.0308297
-0.000752622
0.0307466
-0.000754339
-0.000753389
0.0318026
0.000865423
0.0319101
0.000831954
0.0320101
0.000793981
0.0321024
0.000753736
0.0321872
0.000711733
0.0322644
0.000668232
0.0323341
0.00062337
0.0323964
0.000577267
0.0324511
0.00053007
0.0324985
0.000481962
0.0325383
0.00043315
0.0325708
0.000383844
0.0325959
0.000334247
0.0326138
0.000284545
0.0326246
0.000234907
0.0326284
0.000185495
0.0326254
0.000136455
0.0326157
8.79413e-05
0.0325995
4.00409e-05
0.0325775
-7.11278e-06
0.0325495
-5.25143e-05
0.0325157
-9.70585e-05
0.0324765
-0.000140401
0.0324323
-0.00018239
0.0323832
-0.000222904
0.0323298
-0.00026184
0.0322722
-0.000299112
0.032211
-0.000334643
0.0321464
-0.000368378
0.0320789
-0.000400271
0.0320088
-0.000430293
0.0319364
-0.000458424
0.0318621
-0.000484664
0.0317863
-0.000509015
0.0317091
-0.000531506
0.031631
-0.000552151
0.0315521
-0.000571013
0.0314728
-0.000588108
0.0313931
-0.00060353
0.0313133
-0.000617276
0.0312335
-0.00062949
0.0311539
-0.000640112
0.0310744
-0.000649368
0.0309953
-0.000657083
0.0309166
-0.000663638
0.0308382
-0.000668632
0.0307602
-0.000672734
0.0306827
-0.000675121
0.0306054
-0.000677003
-0.000676792
0.0314826