/*--------------------------------*- C++ -*----------------------------------*\
  =========                 |
  \\      /  F ield         | OpenFOAM: The Open Source CFD Toolbox
   \\    /   O peration     | Website:  https://openfoam.org
    \\  /    A nd           | Version:  7
     \\/     M anipulation  |
\*---------------------------------------------------------------------------*/
FoamFile
{
    version     2.0;
    format      ascii;
    class       surfaceScalarField;
    location    "60";
    object      phi;
}
// * * * * * * * * * * * * * * * * * * * * * * * * * * * * * * * * * * * * * //

dimensions      [0 3 -1 0 0 0 0];

internalField   nonuniform List<scalar> 
11803
(
-4.09605e-05
4.09952e-05
-0.00012879
8.78959e-05
-0.000240654
0.000111941
-0.000362827
0.00012225
-0.000488545
0.000125792
-0.000615219
0.000126743
-0.000742228
0.000127075
-0.000869663
0.000127496
-0.000997791
0.000128183
-0.00112689
0.00012915
-0.00125722
0.000130379
-0.00138903
0.000131851
-0.00152254
0.000133548
-0.00165797
0.000135458
-0.00179551
0.000137568
-0.00193535
0.000139867
-0.00207768
0.000142348
-0.00222267
0.000145004
-0.00237049
0.000147827
-0.0025213
0.000150814
-0.00267526
0.000153961
-0.00283253
0.000157266
-0.00299326
0.00016072
-0.00315757
0.000164302
0.000168039
-0.00332563
-4.08721e-05
8.18673e-05
-0.000128557
0.000175581
-0.000240276
0.00022366
-0.000362321
0.000244295
-0.000487924
0.000251395
-0.000614491
0.00025331
-0.000741399
0.000253982
-0.000868734
0.000254832
-0.000996762
0.000256212
-0.00112576
0.000258151
-0.001256
0.000260614
-0.00138771
0.000263562
-0.00152112
0.000266962
-0.00165645
0.000270786
-0.00179389
0.00027501
-0.00193364
0.000279613
-0.00207587
0.000284579
-0.00222076
0.000289894
-0.00236848
0.000295545
-0.00251919
0.000301521
-0.00267304
0.000307818
-0.00283021
0.000314432
-0.00299083
0.000321344
-0.00315504
0.000328509
0.000335985
-0.00332298
-4.06956e-05
0.000122563
-0.000128092
0.000262977
-0.000239521
0.000335089
-0.000361307
0.000366081
-0.000486682
0.00037677
-0.000613036
0.000379664
-0.000739739
0.000380685
-0.000866874
0.000381967
-0.000994705
0.000384042
-0.00112351
0.000386955
-0.00125355
0.000390653
-0.00138506
0.000395079
-0.00151828
0.000400181
-0.00165342
0.000405919
-0.00179066
0.000412256
-0.00193021
0.000419163
-0.00207225
0.000426613
-0.00221694
0.000434585
-0.00236445
0.000443061
-0.00251496
0.000452025
-0.00266861
0.00046147
-0.00282557
0.00047139
-0.00298598
0.000481756
-0.00314997
0.000492503
0.000503711
-0.0033177
-4.04309e-05
0.000162994
-0.000127394
0.00034994
-0.000238388
0.000446083
-0.000359787
0.000487481
-0.000484818
0.0005018
-0.000610854
0.0005057
-0.00073725
0.000507081
-0.000864085
0.000508801
-0.000991618
0.000511575
-0.00112013
0.000515465
-0.00124987
0.0005204
-0.0013811
0.000526303
-0.00151403
0.000533109
-0.00164887
0.00054076
-0.00178582
0.00054921
-0.00192508
0.000558418
-0.00206681
0.00056835
-0.00221121
0.000578977
-0.00235842
0.000590276
-0.00250862
0.000602225
-0.00266196
0.000614813
-0.00281861
0.000628035
-0.0029787
0.000641851
-0.00314238
0.000656176
0.00067111
-0.00330978
-4.00785e-05
0.000203072
-0.000126463
0.000436325
-0.000236877
0.000556497
-0.000357761
0.000608364
-0.000482332
0.000626372
-0.000607943
0.000631311
-0.000733932
0.00063307
-0.000860366
0.000635235
-0.000987504
0.000638713
-0.00111562
0.000643582
-0.00124498
0.000649756
-0.00137581
0.000657138
-0.00150835
0.000665647
-0.0016428
0.000675212
-0.00177937
0.000685773
-0.00191823
0.000697281
-0.00205957
0.000709692
-0.00220357
0.000722972
-0.00235038
0.000737089
-0.00250017
0.000752018
-0.0026531
0.000767745
-0.00280933
0.000784263
-0.00296901
0.000801525
-0.00313225
0.000819422
0.000838074
-0.00329922
-3.96389e-05
0.000242711
-0.000125302
0.000521988
-0.00023499
0.000666185
-0.000355228
0.000728602
-0.000479226
0.00075037
-0.000604306
0.000756392
-0.000729784
0.000758548
-0.000855719
0.00076117
-0.000982362
0.000765357
-0.00110999
0.000771209
-0.00123886
0.000778624
-0.00136921
0.000787488
-0.00150126
0.0007977
-0.00163523
0.000809178
-0.0017713
0.000821849
-0.00190967
0.000835654
-0.00205052
0.000850541
-0.00219402
0.000866469
-0.00234033
0.000883401
-0.00248962
0.000901305
-0.00264204
0.000920165
-0.00279775
0.000939972
-0.00295689
0.000960672
-0.00311961
0.000982136
0.0010045
-0.00328603
-3.91125e-05
0.000281824
-0.00012391
0.000606785
-0.000232727
0.000775002
-0.000352189
0.000848064
-0.000475499
0.00087368
-0.000599943
0.000880836
-0.000724809
0.000883415
-0.000850144
0.000886505
-0.000976196
0.000891408
-0.00110324
0.000898249
-0.00123152
0.000906909
-0.00136129
0.000917255
-0.00149276
0.000929171
-0.00162614
0.000942561
-0.00176163
0.00095734
-0.00189942
0.000973439
-0.00203968
0.0009908
-0.00218258
0.00100937
-0.00232829
0.00102911
-0.00247697
0.00104998
-0.00262877
0.00107197
-0.00278386
0.00109506
-0.00294237
0.00111919
-0.00310445
0.00114421
0.00117027
-0.00327022
-3.85002e-05
0.000320324
-0.000122288
0.000690573
-0.000230088
0.000882802
-0.000348645
0.000966621
-0.000471152
0.000996186
-0.000594853
0.00100454
-0.000719007
0.00100757
-0.000843644
0.00101114
-0.000969006
0.00101677
-0.00109536
0.0010246
-0.00122296
0.00103451
-0.00135205
0.00104634
-0.00148285
0.00105996
-0.00161555
0.00107526
-0.00175036
0.00109215
-0.00188746
0.00111054
-0.00202703
0.00113037
-0.00216924
0.00115158
-0.00231425
0.00117412
-0.00246222
0.00119795
-0.00261331
0.00122306
-0.00276766
0.00124941
-0.00292544
0.00127697
-0.00308677
0.00130554
0.00133528
-0.00325178
-3.78026e-05
0.000358126
-0.000120438
0.000773209
-0.000227075
0.00098944
-0.000344597
0.00108414
-0.000466185
0.00111777
-0.000589038
0.00112739
-0.000712379
0.00113091
-0.000836219
0.00113498
-0.000960794
0.00114134
-0.00108637
0.00115018
-0.00121319
0.00116134
-0.00134151
0.00117466
-0.00147153
0.00118998
-0.00160346
0.00120719
-0.00173749
0.00122618
-0.00187381
0.00124686
-0.0020126
0.00126915
-0.00215401
0.00129299
-0.00229822
0.00131833
-0.00244538
0.00134512
-0.00259565
0.00137332
-0.00274918
0.00140294
-0.00290612
0.0014339
-0.0030666
0.00146602
0.00149942
-0.00323074
-3.70207e-05
0.000395147
-0.000118361
0.000854549
-0.000223689
0.00109477
-0.000340045
0.0012005
-0.0004606
0.00123833
-0.000582499
0.00124929
-0.000704926
0.00125334
-0.000827872
0.00125793
-0.000951562
0.00126503
-0.00107626
0.00127488
-0.00120221
0.00128729
-0.00132966
0.0013021
-0.00145881
0.00131913
-0.00158987
0.00133825
-0.00172303
0.00135934
-0.00185848
0.00138231
-0.00199638
0.00140705
-0.0021369
0.00143352
-0.00228021
0.00146164
-0.00242647
0.00149137
-0.00257582
0.00152267
-0.00272841
0.00155554
-0.00288441
0.0015899
-0.00304393
0.00162554
0.00166259
-0.00320709
-3.61557e-05
0.000431303
-0.000116058
0.000934451
-0.000219931
0.00119864
-0.00033499
0.00131556
-0.000454396
0.00135774
-0.000575237
0.00137013
-0.00069665
0.00137475
-0.000818603
0.00137988
-0.000941313
0.00138774
-0.00106504
0.0013986
-0.00119003
0.00141228
-0.00131651
0.00142858
-0.00144469
0.00144732
-0.00157479
0.00146835
-0.00170698
0.00149154
-0.00184146
0.00151678
-0.00197838
0.00154398
-0.00211792
0.00157306
-0.00226024
0.00160396
-0.00240548
0.00163662
-0.00255381
0.001671
-0.00270537
0.0017071
-0.00286032
0.00174484
-0.00301878
0.001784
0.00182467
-0.00318086
-3.52086e-05
0.000466511
-0.000113531
0.00101277
-0.000215803
0.00130091
-0.000329433
0.00142919
-0.000447574
0.00147588
-0.000567252
0.00148981
-0.000687552
0.00149505
-0.000808416
0.00150074
-0.000930051
0.00150938
-0.00105271
0.00152126
-0.00117664
0.00153621
-0.00130206
0.001554
-0.00142919
0.00157445
-0.00155823
0.00159739
-0.00168936
0.00162267
-0.00182276
0.00165018
-0.00195861
0.00167983
-0.00209707
0.00171152
-0.00223829
0.00174518
-0.00238243
0.00178076
-0.00252964
0.00181821
-0.00268007
0.00185753
-0.00283386
0.00189863
-0.00299115
0.00194129
0.00198556
-0.00315204
-3.41808e-05
0.000500692
-0.000110783
0.00108938
-0.000211306
0.00140144
-0.000323375
0.00154125
-0.000440136
0.00159264
-0.000558546
0.00160822
-0.000677633
0.00161414
-0.000797312
0.00162042
-0.000917777
0.00162984
-0.00103927
0.00164276
-0.00116205
0.00165898
-0.00128632
0.00167828
-0.0014123
0.00170043
-0.00154018
0.00172527
-0.00167016
0.00175265
-0.00180241
0.00178243
-0.00193709
0.00181451
-0.00207437
0.0018488
-0.0022144
0.00188521
-0.00235734
0.0019237
-0.00250333
0.0019642
-0.00265252
0.00200672
-0.00280506
0.00205117
-0.00296108
0.00209731
0.00214515
-0.00312067
-3.30738e-05
0.000533766
-0.000107815
0.00116412
-0.000206442
0.00150006
-0.000316817
0.00165163
-0.000432082
0.0017079
-0.000549119
0.00172526
-0.000666896
0.00173191
-0.000785295
0.00173882
-0.000904495
0.00174904
-0.00102474
0.001763
-0.00114626
0.00178051
-0.00126929
0.0018013
-0.00139403
0.00182517
-0.00152067
0.00185192
-0.0016494
0.00188138
-0.00178039
0.00191342
-0.00191381
0.00194793
-0.00204981
0.0019848
-0.00218856
0.00202396
-0.0023302
0.00206534
-0.00247488
0.00210888
-0.00262273
0.00215457
-0.00277392
0.00220236
-0.00292856
0.00225195
0.00230334
-0.00308675
-3.18892e-05
0.000565655
-0.000104629
0.00123686
-0.000201213
0.00159665
-0.000309761
0.00176018
-0.000423414
0.00182156
-0.000538974
0.00184082
-0.000655343
0.00184828
-0.000772366
0.00185585
-0.000890209
0.00186689
-0.00100911
0.0018819
-0.00112929
0.00190069
-0.00125099
0.001923
-0.00137439
0.00194857
-0.0014997
0.00197722
-0.00162708
0.00200877
-0.00175673
0.00204306
-0.00188879
0.00207999
-0.00202343
0.00211944
-0.0021608
0.00216133
-0.00230104
0.00220558
-0.0024443
0.00225214
-0.00259072
0.00230099
-0.00274045
0.00235208
-0.00289362
0.00240512
0.00246002
-0.0030503
-3.06289e-05
0.000596284
-0.000101229
0.00130746
-0.000195621
0.00169104
-0.000302208
0.00186677
-0.000414132
0.00193348
-0.000528111
0.00195479
-0.000642974
0.00196315
-0.000758529
0.0019714
-0.000874922
0.00198328
-0.000992382
0.00199936
-0.00111114
0.00201945
-0.00123141
0.00204327
-0.00135339
0.00207055
-0.00147727
0.0021011
-0.00160322
0.00213472
-0.00173143
0.00217127
-0.00186204
0.0022106
-0.00199522
0.00225262
-0.00213111
0.00229722
-0.00226987
0.00234433
-0.00241162
0.00239389
-0.00255651
0.00244589
-0.00270469
0.00250026
-0.00285627
0.00255671
0.00261509
-0.00301135
-2.92946e-05
0.000625579
-9.76178e-05
0.00137578
-0.00018967
0.00178309
-0.000294161
0.00197126
-0.000404238
0.00204356
-0.000516532
0.00206709
-0.000629793
0.00207641
-0.000743786
0.00208539
-0.000858639
0.00209813
-0.000974571
0.00211529
-0.00109181
0.00213669
-0.00121056
0.00216202
-0.00133103
0.00219102
-0.00145339
0.00222346
-0.00157783
0.00225916
-0.0017045
0.00229794
-0.00183358
0.00233968
-0.0019652
0.00238424
-0.00209953
0.00243155
-0.0022367
0.0024815
-0.00237685
0.00253404
-0.00252011
0.00258915
-0.00266663
0.00264678
-0.00281655
0.00270662
0.00276845
-0.0029699
-2.78887e-05
0.000653467
-9.37982e-05
0.00144169
-0.000183361
0.00187265
-0.000285621
0.00207352
-0.000393734
0.00215167
-0.000504238
0.00217759
-0.000615803
0.00218797
-0.000728142
0.00219773
-0.000841364
0.00221135
-0.000955679
0.00222961
-0.00107131
0.00225232
-0.00118846
0.00227917
-0.00130732
0.00230988
-0.00142808
0.00234422
-0.0015509
0.00238198
-0.00167596
0.002423
-0.00180341
0.00246712
-0.00193339
0.00251423
-0.00206606
0.00256422
-0.00220155
0.002617
-0.00234
0.00267249
-0.00248154
0.00273069
-0.00262632
0.00279156
-0.00277446
0.00285476
0.00292
-0.002926
-2.64134e-05
0.000679881
-8.97741e-05
0.00150505
-0.000176699
0.00195958
-0.00027659
0.00217341
-0.00038262
0.0022577
-0.000491232
0.0022862
-0.000601004
0.00229774
-0.000711599
0.00230833
-0.000823101
0.00232286
-0.000935712
0.00234222
-0.00104964
0.00236625
-0.0011651
0.00239462
-0.00128227
0.00242705
-0.00140134
0.00246329
-0.00152247
0.00250311
-0.00164582
0.00254635
-0.00177154
0.00259285
-0.00189979
0.00264248
-0.00203071
0.00269514
-0.00216444
0.00275072
-0.0023011
0.00280916
-0.00244083
0.00287042
-0.00258376
0.00293449
-0.00273003
0.00300102
0.00306963
-0.00287967
-2.48713e-05
0.000704752
-8.55495e-05
0.00156573
-0.000169687
0.00204372
-0.00026707
0.00227079
-0.000370899
0.00236153
-0.000477515
0.00239282
-0.0005854
0.00240563
-0.000694161
0.00241709
-0.000803856
0.00243255
-0.000914675
0.00245304
-0.00102683
0.0024784
-0.00114051
0.0025083
-0.0012559
0.00254245
-0.00137319
0.00258057
-0.00149253
0.00262245
-0.00161408
0.0026679
-0.001738
0.00271677
-0.00186443
0.00276891
-0.00199351
0.00282421
-0.00212538
0.00288259
-0.00226016
0.00294394
-0.00239798
0.00300825
-0.00253899
0.00307549
-0.00268329
0.00314533
0.00321727
-0.00283093
-2.3265e-05
0.000728017
-8.11289e-05
0.00162359
-0.000162329
0.00212492
-0.000257066
0.00236553
-0.000358573
0.00246304
-0.000463089
0.00249734
-0.000568994
0.00251153
-0.000675832
0.00252392
-0.000783633
0.00254035
-0.000892575
0.00256198
-0.00100286
0.00258868
-0.00111468
0.00262012
-0.00122821
0.00265598
-0.00134363
0.00269599
-0.0014611
0.00273992
-0.00158078
0.00278758
-0.0017028
0.00283879
-0.00182732
0.00289343
-0.00195447
0.00295137
-0.00208439
0.0030125
-0.0022172
0.00307675
-0.00235303
0.00314408
-0.00249202
0.00321448
-0.00263427
0.00328759
0.00336281
-0.00277981
-2.15975e-05
0.000749615
-7.65173e-05
0.00167851
-0.000154629
0.00220303
-0.00024658
0.00245748
-0.000345644
0.0025621
-0.000447956
0.00259965
-0.000551788
0.00261537
-0.000656616
0.00262875
-0.000762439
0.00264618
-0.000869419
0.00266896
-0.000977752
0.00269701
-0.00108762
0.00273
-0.00119921
0.00276757
-0.00131269
0.00280947
-0.0014282
0.00285544
-0.00154591
0.00290528
-0.00166595
0.00295884
-0.00178847
0.00301595
-0.00191361
0.0030765
-0.00204149
0.00314039
-0.00217225
0.0032075
-0.002306
0.00327783
-0.00244288
0.00335135
-0.002583
0.00342771
0.00350617
-0.00272637
-1.98719e-05
0.000769486
-7.17199e-05
0.00173036
-0.000146594
0.0022779
-0.000235615
0.0025465
-0.000332114
0.0026586
-0.000432119
0.00269965
-0.000533786
0.00271703
-0.000636517
0.00273148
-0.000740278
0.00274994
-0.000845214
0.0027739
-0.000951514
0.00280331
-0.00105936
0.00283784
-0.00116892
0.00287714
-0.00128036
0.00292091
-0.00139384
0.00296891
-0.00150949
0.00302094
-0.00162747
0.00307682
-0.00174791
0.00313639
-0.00187095
0.00319954
-0.00199671
0.00326615
-0.00212532
0.00333611
-0.0022569
0.00340941
-0.0023916
0.00348605
-0.00252952
0.00356564
0.00364728
-0.00267063
-1.80917e-05
0.000787578
-6.67429e-05
0.00177901
-0.000138228
0.00234939
-0.000224177
0.00263245
-0.000317987
0.00275241
-0.00041558
0.00279725
-0.00051499
0.00281644
-0.00061554
0.00283203
-0.000717156
0.00285155
-0.000819968
0.00287671
-0.000924154
0.0029075
-0.00102989
0.00294358
-0.00113734
0.00298459
-0.00124667
0.00303024
-0.00135803
0.00308027
-0.00147155
0.00313446
-0.00158738
0.00319265
-0.00170565
0.00325466
-0.0018265
0.00332039
-0.00195006
0.0033897
-0.00207643
0.00346249
-0.00220576
0.00353874
-0.00233819
0.00361848
-0.00247386
0.0037013
0.00378609
-0.00261267
-1.62605e-05
0.000803839
-6.15926e-05
0.00182434
-0.000129537
0.00241733
-0.000212269
0.00271518
-0.000303266
0.00284341
-0.000398343
0.00289232
-0.000495404
0.0029135
-0.00059369
0.00293032
-0.00069308
0.00295094
-0.000793688
0.00297732
-0.000895681
0.00300949
-0.000999229
0.00304712
-0.00110449
0.00308985
-0.00121163
0.00313737
-0.00132078
0.00318942
-0.00143209
0.00324577
-0.00154569
0.00330625
-0.00166172
0.00337069
-0.00178029
0.00343897
-0.00190155
0.00351096
-0.00202562
0.00358655
-0.0021526
0.00366572
-0.00228269
0.00374858
-0.00241606
0.00383467
0.00392258
-0.00255254
-1.43824e-05
0.000818221
-5.62763e-05
0.00186624
-0.00012053
0.00248158
-0.000199897
0.00279455
-0.000287954
0.00293146
-0.000380409
0.00298478
-0.000475032
0.00300813
-0.00057097
0.00302626
-0.000668056
0.00304803
-0.000766382
0.00307564
-0.000866105
0.00310922
-0.000967388
0.00314841
-0.00107039
0.00319285
-0.00117525
0.00324224
-0.00128213
0.00329629
-0.00139114
0.00335479
-0.00150243
0.00341753
-0.00161612
0.00348438
-0.00173234
0.00355519
-0.00185123
0.00362985
-0.00197289
0.00370821
-0.00209744
0.00379027
-0.0022251
0.00387623
-0.00235615
0.00396572
0.00405679
-0.00249036
-1.24615e-05
0.000830683
-5.08017e-05
0.00190458
-0.000111214
0.002542
-0.000187067
0.0028704
-0.000272055
0.00301645
-0.000361782
0.00307451
-0.000453877
0.00310022
-0.000547386
0.00311977
-0.000642091
0.00314273
-0.000738059
0.00317161
-0.000835436
0.00320659
-0.000934379
0.00324735
-0.00103504
0.00329351
-0.00113756
0.00334476
-0.00124207
0.00340081
-0.00134871
0.00346143
-0.00145761
0.00352643
-0.00156889
0.00359565
-0.00168267
0.00366897
-0.00179909
0.00374627
-0.00191828
0.0038274
-0.0020403
0.0039123
-0.00216539
0.00400132
-0.0022941
0.00409443
0.0041889
-0.00242621
-1.0503e-05
0.000841186
-4.51775e-05
0.00193925
-0.000101597
0.00259842
-0.000173786
0.00294259
-0.000255575
0.00309824
-0.000342467
0.0031614
-0.000431944
0.0031897
-0.000522944
0.00321077
-0.000615192
0.00323498
-0.000708728
0.00326515
-0.000803685
0.00330155
-0.000900214
0.00334388
-0.000998458
0.00339176
-0.00109855
0.00344485
-0.00120064
0.00350289
-0.00130483
0.00356562
-0.00141125
0.00363286
-0.00152004
0.00370444
-0.0016313
0.00378023
-0.00174518
0.00386015
-0.00186181
0.00394403
-0.00198126
0.00403174
-0.00210363
0.0041237
-0.0022299
0.00422069
0.00431937
-0.00236037
-8.51261e-06
0.000849698
-3.94127e-05
0.00197015
-9.16895e-05
0.00265069
-0.000160062
0.00301096
-0.000238519
0.0031767
-0.000322467
0.00324534
-0.000409236
0.00327647
-0.00049765
0.00329918
-0.000587366
0.0033247
-0.000678398
0.00335618
-0.000770864
0.00339402
-0.000864907
0.00343792
-0.000960663
0.00348751
-0.00105826
0.00354246
-0.00115784
0.00360246
-0.00125951
0.00366729
-0.00136339
0.00373674
-0.0014696
0.00381065
-0.00157826
0.00388889
-0.00168949
0.00397138
-0.00180347
0.00405802
-0.00192026
0.00414853
-0.00203966
0.00424309
-0.00216266
0.0043437
0.00444927
-0.00229257
-6.49812e-06
0.000856196
-3.35168e-05
0.00199717
-8.15022e-05
0.00269868
-0.000145904
0.00307537
-0.000220893
0.00325169
-0.000301787
0.00332624
-0.000385759
0.00336044
-0.000471508
0.00338493
-0.000558621
0.00341181
-0.000647078
0.00344463
-0.000736984
0.00348392
-0.00082847
0.00352941
-0.000921669
0.00358071
-0.00101671
0.00363749
-0.0011137
0.00369946
-0.00121277
0.00376636
-0.00131403
0.003838
-0.0014176
0.00391421
-0.00152357
0.00399487
-0.0016321
0.0040799
-0.00174336
0.00416928
-0.0018576
0.00426277
-0.00197455
0.00436005
-0.00209336
0.0044625
0.00458104
-0.00222513
-4.47119e-06
0.000860668
-2.74989e-05
0.0020202
-7.10471e-05
0.00274223
-0.000131321
0.00313564
-0.000202704
0.00332307
-0.000280434
0.00340397
-0.000361518
0.00344152
-0.000444525
0.00346794
-0.000528965
0.00349625
-0.00061478
0.00353045
-0.000702057
0.0035712
-0.000790919
0.00361827
-0.000881492
0.00367128
-0.000973894
0.00372989
-0.00106824
0.0037938
-0.00116464
0.00386276
-0.00126321
0.00393657
-0.00136406
0.00401506
-0.00146728
0.00409809
-0.001573
0.00418562
-0.00168136
0.00427764
-0.00179257
0.00437399
-0.00190685
0.00447433
-0.00202502
0.00458067
0.0046983
-0.00214227
-2.45473e-06
0.000863122
-2.1366e-05
0.00203911
-6.03368e-05
0.0027812
-0.000116326
0.00319163
-0.000183962
0.00339071
-0.000258412
0.00347842
-0.000336519
0.00351963
-0.000416708
0.00354813
-0.000498406
0.00357795
-0.000581512
0.00361356
-0.000666095
0.00365578
-0.000752268
0.00370444
-0.000840149
0.00375917
-0.000929851
0.0038196
-0.00102148
0.00388543
-0.00111515
0.00395643
-0.00121096
0.00403238
-0.00130901
0.0041131
-0.0014094
0.00419848
-0.00151222
0.00428844
-0.00161758
0.004383
-0.00172567
0.00448208
-0.00183675
0.0045854
-0.00195064
0.00469456
0.00481562
-0.00206796
-5.28951e-07
0.000863651
-1.51185e-05
0.0020537
-4.9386e-05
0.00281546
-0.000100931
0.00324317
-0.000164674
0.00345445
-0.000235729
0.00354947
-0.000310767
0.00359467
-0.000388064
0.00362542
-0.000466952
0.00365684
-0.000547285
0.00369389
-0.000629111
0.00373761
-0.000712532
0.00378786
-0.000797657
0.00384429
-0.000884594
0.00390653
-0.000973446
0.00397429
-0.00106431
0.0040473
-0.00115729
0.00412536
-0.00125248
0.00420829
-0.00134997
0.00429597
-0.00144984
0.00438832
-0.0015522
0.00448536
-0.00165725
0.00458712
-0.00176543
0.00469358
-0.00187705
0.00480618
0.00492885
-0.00199028
1.70372e-06
0.000861947
-8.73871e-06
0.00206414
-3.82098e-05
0.00284494
-8.515e-05
0.00329011
-0.000144854
0.00351415
-0.000212394
0.00361701
-0.000284271
0.00366655
-0.0003586
0.00369975
-0.000434614
0.00373285
-0.000512112
0.00377139
-0.00059112
0.00381662
-0.000671727
0.00386847
-0.000754035
0.0039266
-0.000838145
0.00399064
-0.000924154
0.0040603
-0.00101216
0.0041353
-0.00110224
0.00421544
-0.00119451
0.00430056
-0.00128904
0.0043905
-0.00138594
0.00448521
-0.0014853
0.00458473
-0.00158738
0.00468919
-0.00169261
0.00479881
-0.00180114
0.00491471
0.00503898
-0.00191127
3.86407e-06
0.000858083
-2.15069e-06
0.00207016
-2.68257e-05
0.00286961
-6.90007e-05
0.00333229
-0.000124515
0.00356967
-0.000188417
0.00368091
-0.000257038
0.00373517
-0.000328326
0.00377104
-0.000401399
0.00380593
-0.000476003
0.00384599
-0.000552134
0.00389275
-0.000629869
0.00394621
-0.000709301
0.00400603
-0.000790524
0.00407187
-0.000873631
0.0041434
-0.000958709
0.00422038
-0.00104585
0.00430258
-0.00113513
0.00438984
-0.00122666
0.00448203
-0.00132054
0.00457909
-0.00141689
0.00468109
-0.00151598
0.00478828
-0.00161816
0.004901
-0.00172336
0.0050199
0.00514569
-0.00183006
5.92794e-06
0.000852155
4.10698e-06
0.00207198
-1.52512e-05
0.00288897
-5.25058e-05
0.00336954
-0.000103674
0.00362084
-0.00016381
0.00374105
-0.000229078
0.00380043
-0.000297248
0.00383921
-0.00036732
0.003876
-0.000438971
0.00391764
-0.000512169
0.00396595
-0.000586974
0.00402101
-0.000663473
0.00408253
-0.000741753
0.00415015
-0.000821899
0.00422355
-0.000903996
0.00430248
-0.000988129
0.00438671
-0.00107438
0.0044761
-0.00116285
0.0045705
-0.00125366
0.0046699
-0.00134697
0.00477439
-0.00144301
0.00488432
-0.00154205
0.00500004
-0.00164388
0.00512173
0.00524895
-0.00174714
7.94069e-06
0.000844215
1.04001e-05
0.00206952
-3.29879e-06
0.00290267
-3.56974e-05
0.00340194
-8.2349e-05
0.00366749
-0.000138585
0.00379729
-0.0002004
0.00386225
-0.000265378
0.00390419
-0.000332385
0.003943
-0.000401028
0.00398628
-0.000471238
0.00403615
-0.000543061
0.00409283
-0.000616572
0.00415604
-0.000691853
0.00422543
-0.000768983
0.00430068
-0.000848043
0.00438154
-0.000929114
0.00446779
-0.00101228
0.00455927
-0.00109765
0.00465587
-0.00118534
0.00475759
-0.00127554
0.00486459
-0.00136845
0.00497723
-0.00146423
0.00509582
-0.00156261
0.00522011
0.00534882
-0.00166248
9.91452e-06
0.0008343
1.67717e-05
0.00206266
8.36066e-06
0.00291108
-1.86145e-05
0.00342892
-6.05548e-05
0.00370943
-0.00011276
0.00384949
-0.000171018
0.00392051
-0.000232725
0.00396589
-0.000296607
0.00400689
-0.000362187
0.00405186
-0.000429357
0.00410333
-0.000498145
0.00416162
-0.000568617
0.00422651
-0.000640846
0.00429765
-0.000714907
0.00437474
-0.000790876
0.00445751
-0.000868832
0.00454574
-0.000948861
0.00463929
-0.00103107
0.00473808
-0.00111559
0.00484211
-0.0012026
0.0049516
-0.00129228
0.00506691
-0.00138469
0.00518823
-0.0014795
0.00531492
0.00544522
-0.00157591
1.18443e-05
0.000822456
2.31426e-05
0.00205136
2.01631e-05
0.00291406
-9.34428e-07
0.00345001
-3.83206e-05
0.00374682
-8.63547e-05
0.00389753
-0.000140944
0.0039751
-0.000199302
0.00402425
-0.000259998
0.00406758
-0.000322462
0.00411433
-0.000386543
0.00416741
-0.000452247
0.00422733
-0.000519628
0.00429389
-0.000588755
0.00436678
-0.000659695
0.00444568
-0.000732522
0.00453033
-0.00080731
0.00462053
-0.000884147
0.00471613
-0.000963141
0.00481707
-0.00104443
0.00492341
-0.00112818
0.00503535
-0.00121453
0.00515325
-0.00130345
0.00527716
-0.00139462
0.00540609
0.00553804
-0.00148744
1.37201e-05
0.000808736
2.94889e-05
0.00203559
3.20757e-05
0.00291147
1.63281e-05
0.00346576
-1.57244e-05
0.00377887
-5.93859e-05
0.00394119
-0.000110194
0.0040259
-0.000165122
0.00407918
-0.000222569
0.00412503
-0.000281867
0.00417363
-0.000342811
0.00422835
-0.000405383
0.0042899
-0.000469627
0.00435814
-0.000535603
0.00443276
-0.000603373
0.00451345
-0.000673006
0.00459996
-0.000744575
0.0046921
-0.000818167
0.00478972
-0.000893891
0.0048928
-0.000971884
0.0050014
-0.00105229
0.00511576
-0.0011352
0.00523616
-0.00122055
0.0053625
-0.00130802
0.00549355
0.00562721
-0.00139718
1.55514e-05
0.000793184
3.57794e-05
0.00201537
4.40428e-05
0.00290321
3.40801e-05
0.00347572
7.30307e-06
0.00380565
-3.18851e-05
0.00398038
-7.8788e-05
0.00407281
-0.000130198
0.00413059
-0.000184336
0.00417917
-0.000240417
0.00422971
-0.000298178
0.00428611
-0.000357574
0.0043493
-0.000418636
0.0044192
-0.000481414
0.00449553
-0.000545966
0.004578
-0.000612357
0.00466636
-0.000680656
0.0047604
-0.00075095
0.00486002
-0.000823346
0.00496519
-0.000897973
0.00507603
-0.000974956
0.00519274
-0.00105434
0.00531555
-0.00113603
0.00544419
-0.00121975
0.00557727
0.00571267
-0.00130521
1.7328e-05
0.000775856
4.1985e-05
0.00199071
5.60193e-05
0.00288917
5.20028e-05
0.00347974
3.05978e-05
0.00382705
-3.87513e-06
0.00401485
-4.67438e-05
0.00411568
-9.45475e-05
0.00417839
-0.000145313
0.00422993
-0.000198128
0.00428252
-0.000252662
0.00434065
-0.00030884
0.00440547
-0.000366676
0.00447704
-0.000426212
0.00455507
-0.000487501
0.00463929
-0.000550602
0.00472946
-0.000615583
0.00482538
-0.000682526
0.00492696
-0.000751535
0.0050342
-0.00082273
0.00514722
-0.000896209
0.00526622
-0.000971989
0.00539133
-0.00104995
0.00552215
-0.00112987
0.00565718
0.00579438
-0.00121158
1.90343e-05
0.000756822
4.80737e-05
0.00196167
6.79499e-05
0.0028693
7.00395e-05
0.00347765
5.42447e-05
0.00384284
2.46133e-05
0.00404448
-1.40894e-05
0.00415438
-5.81882e-05
0.00422249
-0.000105516
0.00427726
-0.000155016
0.00433202
-0.000206283
0.00439191
-0.000259202
0.00445839
-0.000313771
0.0045316
-0.000370023
0.00461132
-0.000428005
0.00469727
-0.000487771
0.00478922
-0.000549385
0.00488699
-0.000612926
0.0049905
-0.000678491
0.00509977
-0.000746186
0.00521492
-0.00081609
0.00533613
-0.000888191
0.00546343
-0.000962367
0.00559633
-0.00103844
0.00573326
0.00587229
-0.00111635
2.06571e-05
0.000736165
5.40129e-05
0.00192831
7.97815e-05
0.00284353
8.81374e-05
0.0034693
7.815e-05
0.00385283
5.35533e-05
0.00406908
1.91633e-05
0.00418877
-2.11467e-05
0.0042628
-6.49639e-05
0.00432108
-0.000111101
0.00437816
-0.000159058
0.00443987
-0.00020868
0.00450801
-0.000259944
0.00458287
-0.000312874
0.00466425
-0.000367507
0.00475191
-0.000423894
0.00484561
-0.000482094
0.00494519
-0.000542182
0.00505059
-0.000604248
0.00516183
-0.000668381
0.00527905
-0.000734642
0.00540239
-0.000803
0.00553179
-0.000873339
0.00566667
-0.000945536
0.00580546
0.00594634
-0.00101959
2.21841e-05
0.000713981
5.97658e-05
0.00189073
9.14601e-05
0.00281183
0.000106234
0.00345452
0.000102257
0.00385681
8.28941e-05
0.00408844
5.29738e-05
0.00421869
1.65658e-05
0.00429921
-2.36832e-05
0.00436133
-6.64015e-05
0.00442088
-0.000111009
0.00448448
-0.000157297
0.0045543
-0.000205222
0.00463079
-0.00025479
0.00471382
-0.000306035
0.00480315
-0.000359001
0.00489857
-0.000413744
0.00499994
-0.00047033
0.00510718
-0.000528842
0.00522034
-0.000589355
0.00533956
-0.000651911
0.00546494
-0.000716471
0.00559635
-0.000782929
0.00573313
-0.000851209
0.00587374
0.00601649
-0.000921353
2.36043e-05
0.000690377
6.52951e-05
0.00184904
0.000102928
0.0027742
0.00012426
0.00343319
0.000126505
0.00385456
0.000112584
0.00410236
8.73026e-05
0.00424397
5.49294e-05
0.00433159
1.83183e-05
0.00439794
-2.09476e-05
0.00446014
-6.216e-05
0.00452569
-0.000105077
0.00459722
-0.000149629
0.00467535
-0.000195801
0.00475999
-0.00024362
0.00485097
-0.000293126
0.00494808
-0.000344368
0.00505118
-0.000397407
0.00516022
-0.000452313
0.00527525
-0.000509151
0.0053964
-0.000567947
0.00552374
-0.000628658
0.00565706
-0.000691194
0.00579566
-0.00075552
0.00593806
0.00608267
-0.000821705
2.49077e-05
0.000665469
7.05673e-05
0.00180338
0.000114126
0.00273064
0.000142144
0.00340517
0.000150822
0.00384589
0.000142565
0.00411062
0.000122105
0.00426443
9.389e-05
0.0043598
6.10256e-05
0.0044308
2.52651e-05
0.0044959
-1.25494e-05
0.0045635
-5.20433e-05
0.00463671
-9.31956e-05
0.0047165
-0.000135934
0.00480273
-0.000180294
0.00489533
-0.000226302
0.00499409
-0.000274003
0.00509888
-0.000323449
0.00520966
-0.000374703
0.0053265
-0.000427815
0.00544951
-0.0004828
0.00557873
-0.000539617
0.00571387
-0.000598195
0.00585424
-0.000658529
0.0059984
0.00614485
-0.000720705
2.60852e-05
0.000639384
7.55475e-05
0.00175392
0.00012499
0.0026812
0.000159805
0.00337036
0.000175128
0.00383056
0.00017277
0.00411298
0.000157331
0.00427987
0.000133417
0.00438371
0.000104381
0.00445984
7.22032e-05
0.00452808
3.78524e-05
0.00459785
1.70535e-06
0.00467286
-3.59531e-05
0.00475416
-7.52226e-05
0.004842
-0.000116089
0.0049362
-0.000158564
0.00503656
-0.000202685
0.005143
-0.000248499
0.00525548
-0.000296054
0.00537406
-0.000345393
0.00549885
-0.000396523
0.00562985
-0.000449404
0.00576676
-0.00050399
0.00590883
-0.000560297
0.0060547
0.00620296
-0.000618412
2.7128e-05
0.000612256
8.02003e-05
0.00170085
0.000135451
0.00262595
0.000177158
0.00332865
0.000199336
0.00380839
0.000203121
0.00410919
0.00019292
0.00429007
0.000173466
0.00440317
0.000148363
0.00448494
0.000119823
0.00455662
8.89844e-05
0.00462869
5.63573e-05
0.00470549
2.2093e-05
0.00478842
-1.37108e-05
0.0048778
-5.1042e-05
0.00497353
-8.99492e-05
0.00507547
-0.000130455
0.00518351
-0.000172595
0.00529762
-0.000216412
0.00541787
-0.000261935
0.00554438
-0.000309167
0.00567709
-0.000358074
0.00581566
-0.000408633
0.00595939
-0.000460885
0.00610695
0.00625697
-0.000514887
2.80286e-05
0.000584227
8.44904e-05
0.00164439
0.00014544
0.002565
0.000194106
0.00327998
0.000223345
0.00377915
0.00023353
0.00409901
0.000228803
0.0042948
0.000213987
0.00441798
0.000192933
0.00450599
0.000168101
0.00458146
0.00014081
0.00465598
0.000111666
0.00473463
8.09082e-05
0.00481918
4.86188e-05
0.00491009
1.48105e-05
0.00500734
-2.05031e-05
0.00511078
-5.73532e-05
0.00522036
-9.57839e-05
0.00533605
-0.000135823
0.00545791
-0.000177489
0.00558604
-0.000220787
0.00572038
-0.000265681
0.00586056
-0.000312178
0.00600588
-0.000360357
0.00615513
0.0063068
-0.000410194
2.87801e-05
0.000555447
8.83832e-05
0.00158478