/*--------------------------------*- C++ -*----------------------------------*\
  =========                 |
  \\      /  F ield         | OpenFOAM: The Open Source CFD Toolbox
   \\    /   O peration     | Website:  https://openfoam.org
    \\  /    A nd           | Version:  7
     \\/     M anipulation  |
\*---------------------------------------------------------------------------*/
FoamFile
{
    version     2.0;
    format      ascii;
    class       volScalarField;
    location    "20";
    object      p;
}
// * * * * * * * * * * * * * * * * * * * * * * * * * * * * * * * * * * * * * //

dimensions      [0 2 -2 0 0 0 0];

internalField   nonuniform List<scalar> 
3500
(
-0.281274
-0.283078
-0.284997
-0.286869
-0.288438
-0.289446
-0.290385
-0.289119
-0.277134
-0.280619
-0.282079
-0.283829
-0.285709
-0.287576
-0.289208
-0.289895
-0.29147
-0.289075
-0.279224
-0.282283
-0.283565
-0.285187
-0.28696
-0.288753
-0.290673
-0.29026
-0.293745
-0.288648
-0.282082
-0.28454
-0.285519
-0.286897
-0.288469
-0.289933
-0.292701
-0.289794
-0.297192
-0.287136
-0.28546
-0.28718
-0.287692
-0.288657
-0.289945
-0.290655
-0.294887
-0.288304
-0.299915
-0.28541
-0.289148
-0.29002
-0.289872
-0.290196
-0.291067
-0.290973
-0.295659
-0.286692
-0.301586
-0.28406
-0.293031
-0.292958
-0.291941
-0.291413
-0.291503
-0.290907
-0.295212
-0.285067
-0.299137
-0.284601
-0.297135
-0.295992
-0.293922
-0.292332
-0.291444
-0.290383
-0.292863
-0.284776
-0.292135
-0.283507
-0.301674
-0.299231
-0.295988
-0.293172
-0.291135
-0.289454
-0.288975
-0.28383
-0.282905
-0.276956
-0.306983
-0.302962
-0.298415
-0.294207
-0.290889
-0.287951
-0.284493
-0.279399
-0.272123
-0.26524
-0.313433
-0.307575
-0.301558
-0.295785
-0.290804
-0.285776
-0.279353
-0.271755
-0.260192
-0.249928
-0.321487
-0.313453
-0.305688
-0.298012
-0.29077
-0.282796
-0.273053
-0.261971
-0.248498
-0.236032
-0.331617
-0.32092
-0.310934
-0.300958
-0.290576
-0.278815
-0.265511
-0.251498
-0.23632
-0.222693
-0.344226
-0.330102
-0.317483
-0.304535
-0.289855
-0.27369
-0.256967
-0.240312
-0.223988
-0.209986
-0.359574
-0.34071
-0.325577
-0.308275
-0.288104
-0.267319
-0.247338
-0.228617
-0.211499
-0.19685
-0.377629
-0.352415
-0.334668
-0.311231
-0.284815
-0.259496
-0.236655
-0.216251
-0.198446
-0.183275
-0.397114
-0.365295
-0.342977
-0.312139
-0.279473
-0.250039
-0.224723
-0.202998
-0.184686
-0.168903
-0.415977
-0.379135
-0.348638
-0.30988
-0.271599
-0.238653
-0.211325
-0.188617
-0.169906
-0.153747
-0.43204
-0.392173
-0.35058
-0.303787
-0.260741
-0.225023
-0.196174
-0.172825
-0.153979
-0.137804
-0.443657
-0.401476
-0.347909
-0.293474
-0.246522
-0.208803
-0.17898
-0.15538
-0.136706
-0.121025
-0.449726
-0.404398
-0.339448
-0.278545
-0.228629
-0.189695
-0.159495
-0.136089
-0.117925
-0.103004
-0.44927
-0.399055
-0.324338
-0.258576
-0.206796
-0.167464
-0.137562
-0.114907
-0.0975494
-0.0831892
-0.441107
-0.384417
-0.302076
-0.233207
-0.180812
-0.14201
-0.113158
-0.0918745
-0.0755962
-0.061614
-0.423828
-0.359988
-0.27234
-0.202234
-0.150659
-0.113454
-0.0864211
-0.0670159
-0.051822
-0.0393206
-0.396076
-0.325649
-0.234895
-0.165798
-0.116618
-0.082113
-0.0575521
-0.0401782
-0.0265037
-0.0162952
-0.356924
-0.281532
-0.189837
-0.124456
-0.0790319
-0.0479931
-0.0266245
-0.0116819
-0.000147499
0.00725512
-0.306159
-0.227678
-0.138234
-0.0784153
-0.0380876
-0.0114862
0.00605408
0.0179471
0.0265721
0.030589
-0.244211
-0.163982
-0.0814824
-0.0283932
0.00566661
0.0269625
0.0400715
0.0481205
0.0527866
0.0527018
-0.171617
-0.0927141
-0.0202764
0.024612
0.0515162
0.0668359
0.0749736
0.0783756
0.0779997
0.0733388
-0.0889685
-0.01744
0.0442494
0.0795913
0.0986232
0.107474
0.110191
0.108435
0.102796
0.0942811
0.000269732
0.0605429
0.110522
0.135436
0.14606
0.148068
0.144985
0.137896
0.12771
0.1202
0.092947
0.139594
0.176864
0.190896
0.192828
0.187768
0.17866
0.1664
0.152853
0.144927
0.185693
0.217602
0.24157
0.244648
0.237873
0.22576
0.210795
0.193893
0.177419
0.167044
0.27515
0.292329
0.302945
0.295351
0.280115
0.261173
0.240682
0.219632
0.200363
0.186896
0.358076
0.36156
0.359346
0.341708
0.31856
0.293285
0.267772
0.24297
0.220864
0.204169
0.431635
0.423139
0.409187
0.382473
0.352227
0.321327
0.291438
0.263369
0.238588
0.218791
0.493683
0.47489
0.450979
0.416538
0.380274
0.344634
0.311092
0.280279
0.253147
0.230587
0.542196
0.515135
0.483455
0.442955
0.401979
0.362649
0.326283
0.293331
0.264293
0.239454
0.575509
0.542653
0.505648
0.460984
0.416771
0.374914
0.336623
0.302208
0.271831
0.245353
0.470126
0.424265
0.381125
0.341859
0.306699
0.275631
0.24829
-0.289014
-0.288773
-0.288491
-0.288182
-0.287853
-0.287514
-0.287173
-0.286833
-0.286497
-0.286164
-0.28583
-0.285491
-0.285139
-0.284763
-0.28435
-0.283884
-0.28335
-0.282726
-0.281989
-0.281117
-0.280082
-0.278857
-0.277415
-0.275723
-0.27375
-0.271467
-0.26886
-0.265911
-0.262594
-0.28938
-0.289098
-0.288764
-0.28842
-0.288063
-0.287703
-0.287346
-0.286999
-0.286661
-0.286334
-0.286012
-0.285692
-0.285365
-0.28502
-0.284644
-0.284223
-0.283739
-0.283171
-0.282497
-0.281692
-0.280729
-0.279583
-0.278223
-0.276612
-0.274716
-0.272525
-0.270026
-0.267177
-0.263954
-0.290072
-0.2896
-0.28914
-0.28874
-0.288344
-0.287951
-0.287572
-0.287211
-0.28687
-0.286548
-0.286243
-0.285949
-0.285657
-0.285359
-0.28504
-0.284686
-0.284279
-0.283799
-0.283223
-0.282526
-0.281681
-0.280656
-0.279415
-0.277929
-0.276194
-0.27418
-0.271835
-0.269143
-0.266078
-0.291394
-0.290116
-0.289445
-0.288969
-0.28852
-0.288092
-0.28769
-0.287317
-0.286973
-0.286655
-0.286361
-0.286086
-0.285823
-0.285563
-0.285293
-0.284998
-0.28466
-0.284262
-0.283778
-0.283183
-0.282443
-0.281523
-0.280451
-0.279152
-0.277577
-0.275717
-0.273547
-0.271036
-0.268155
-0.264882
-0.290111
-0.290307
-0.289605
-0.288992
-0.288496
-0.288037
-0.287608
-0.287216
-0.286858
-0.286532
-0.286236
-0.285966
-0.285715
-0.285474
-0.285232
-0.284976
-0.284687
-0.284346
-0.283927
-0.283422
-0.2828
-0.282019
-0.28101
-0.279796
-0.278356
-0.276649
-0.274638
-0.272295
-0.269593
-0.266506
-0.28683
-0.288199
-0.288438
-0.288248
-0.287883
-0.287476
-0.287094
-0.286733
-0.286377
-0.286033
-0.285715
-0.285425
-0.285154
-0.284892
-0.284628
-0.284352
-0.284052
-0.283743
-0.283369
-0.282885
-0.282276
-0.281532
-0.280623
-0.279517
-0.278182
-0.276586
-0.274702
-0.272499
-0.269951
-0.26703
-0.283197
-0.284197
-0.285463
-0.285973
-0.285851
-0.285613
-0.285456
-0.285284
-0.285029
-0.284732
-0.284445
-0.284179
-0.283924
-0.283673
-0.283422
-0.28316
-0.282867
-0.282503
-0.28208
-0.281584
-0.280985
-0.28025
-0.279356
-0.278276
-0.276984
-0.27545
-0.273643
-0.271536
-0.269102
-0.266314
-0.263149
-0.279743
-0.279635
-0.281398
-0.282145
-0.281948
-0.28185
-0.282026
-0.282128
-0.282026
-0.281825
-0.28161
-0.281381
-0.281126
-0.280842
-0.280529
-0.280183
-0.279805
-0.279433
-0.279059
-0.278604
-0.278028
-0.277311
-0.27644
-0.275396
-0.274151
-0.272676
-0.270942
-0.268926
-0.266603
-0.263948
-0.260938
-0.257552
-0.27349
-0.273834
-0.276124
-0.276437
-0.27592
-0.276068
-0.276658
-0.277086
-0.277262
-0.277339
-0.277376
-0.277357
-0.277277
-0.277144
-0.27696
-0.276706
-0.276344
-0.275833
-0.275287
-0.274769
-0.274177
-0.273444
-0.272561
-0.271518
-0.270288
-0.268838
-0.267145
-0.265188
-0.262947
-0.260398
-0.257519
-0.25429
-0.264891
-0.267289
-0.269164
-0.268385
-0.2676
-0.26789
-0.268547
-0.269034
-0.269371
-0.269655
-0.269883
-0.270035
-0.270112
-0.270117
-0.270043
-0.269883
-0.269633
-0.269284
-0.268811
-0.268278
-0.267719
-0.267042
-0.26624
-0.265303
-0.264189
-0.262861
-0.261304
-0.259503
-0.25744
-0.255094
-0.252446
-0.24948
-0.24618
-0.251719
-0.259188
-0.260405
-0.259167
-0.2583
-0.258393
-0.259007
-0.259703
-0.260312
-0.260811
-0.261218
-0.261555
-0.261832
-0.262049
-0.262199
-0.262275
-0.262261
-0.262127
-0.261822
-0.261284
-0.260514
-0.259648
-0.258749
-0.257769
-0.256634
-0.255297
-0.253737
-0.251942
-0.249898
-0.247586
-0.24499
-0.242095
-0.238889
-0.231993
-0.24182
-0.24516
-0.244779
-0.243958
-0.243999
-0.244807
-0.245872
-0.246837
-0.247596
-0.248183
-0.248653
-0.249032
-0.249318
-0.249494
-0.24954
-0.24944
-0.249187
-0.248801
-0.248329
-0.24783
-0.247266
-0.246514
-0.245545
-0.244368
-0.242989
-0.241397
-0.239579
-0.237521
-0.235211
-0.232638
-0.229793
-0.226669
-0.214349
-0.224877
-0.229345
-0.229921
-0.229645
-0.23
-0.231077
-0.232428
-0.233668
-0.23466
-0.235432
-0.236053
-0.236561
-0.236963
-0.237249
-0.23741
-0.237452
-0.237384
-0.237211
-0.236914
-0.236439
-0.235747
-0.234888
-0.233874
-0.232684
-0.231304
-0.229725
-0.227935
-0.225924
-0.223684
-0.221207
-0.218487
-0.21552
-0.199286
-0.209257
-0.214177
-0.215571
-0.215964
-0.216732
-0.218061
-0.219607
-0.221037
-0.222214
-0.223154
-0.223919
-0.224555
-0.225072
-0.225468
-0.225733
-0.225864
-0.225852
-0.225686
-0.225357
-0.224873
-0.224244
-0.223454
-0.222487
-0.22134
-0.22001
-0.218488
-0.216769
-0.214843
-0.212706
-0.210353
-0.207781
-0.204986
-0.18552
-0.1949
-0.200025
-0.202023
-0.202996
-0.204154
-0.205713
-0.207421
-0.209003
-0.210338
-0.211434
-0.212342
-0.213102
-0.21373
-0.214222
-0.214571
-0.214768
-0.21481
-0.214697
-0.21443
-0.214015
-0.213447
-0.212715
-0.211808
-0.210724
-0.209461
-0.208016
-0.206383
-0.204559
-0.202539
-0.200321
-0.197903
-0.195284
-0.173129
-0.181957
-0.187113
-0.189503
-0.190908
-0.192385
-0.194143
-0.19599
-0.197699
-0.199167
-0.200397
-0.20143
-0.202304
-0.203031
-0.203611
-0.204038
-0.20431
-0.204425
-0.204386
-0.204193
-0.203846
-0.203338
-0.202667
-0.201829
-0.20082
-0.199638
-0.198283
-0.19675
-0.195039
-0.193146
-0.191071
-0.188812
-0.18637
-0.16222
-0.170392
-0.175437
-0.178065
-0.179781
-0.181497
-0.183411
-0.185364
-0.18717
-0.188741
-0.190077
-0.191214
-0.192183
-0.192997
-0.193658
-0.194163
-0.19451
-0.1947
-0.194733
-0.19461
-0.19433
-0.19389
-0.193291
-0.192529
-0.191604
-0.190514
-0.189258
-0.187835
-0.186242
-0.184481
-0.182551
-0.180451
-0.178184
-0.152521
-0.160033
-0.164901
-0.167665
-0.169596
-0.171483
-0.173504
-0.175531
-0.177405
-0.17905
-0.180467
-0.181686
-0.182735
-0.183625
-0.184358
-0.184934
-0.185351
-0.185611
-0.185713
-0.185659
-0.18545
-0.185084
-0.184563
-0.183884
-0.183048
-0.182054
-0.180901
-0.179589
-0.178118
-0.176489
-0.174702
-0.172758
-0.170659
-0.143843
-0.150759
-0.155419
-0.158243
-0.160312
-0.162311
-0.164399
-0.166469
-0.168383
-0.170078
-0.171554
-0.172837
-0.173949
-0.174902
-0.175698
-0.176337
-0.176818
-0.177142
-0.177311
-0.177325
-0.177187
-0.176896
-0.176455
-0.175861
-0.175114
-0.174216
-0.173166
-0.171965
-0.170615
-0.169115
-0.167467
-0.165673
-0.163735
-0.13611
-0.142468
-0.146898
-0.149727
-0.151877
-0.153942
-0.156062
-0.158148
-0.160081
-0.161805
-0.16332
-0.164649
-0.16581
-0.166813
-0.167661
-0.168354
-0.168891
-0.169274
-0.169505
-0.169586
-0.169517
-0.1693
-0.168935
-0.168423
-0.167765
-0.166961
-0.166012
-0.164921
-0.163686
-0.162312
-0.160798
-0.159147
-0.157362
-0.129216
-0.13505
-0.139238
-0.142036
-0.144228
-0.146324
-0.148451
-0.150531
-0.152464
-0.1542
-0.155738
-0.157097
-0.158293
-0.159335
-0.160225
-0.160963
-0.16155
-0.161986
-0.162274
-0.162415
-0.162411
-0.162263
-0.161972
-0.161539
-0.160967
-0.160254
-0.159404
-0.158416
-0.157294
-0.156038
-0.154651
-0.153136
-0.151494
-0.12305
-0.128401
-0.132352
-0.135096
-0.137299
-0.139402
-0.141517
-0.143577
-0.145495
-0.147228
-0.148775
-0.150152
-0.151372
-0.152442
-0.153365
-0.154141
-0.154769
-0.155251
-0.15559
-0.155787
-0.155843
-0.15576
-0.155539
-0.155182
-0.15469
-0.154064
-0.153306
-0.152418
-0.151401
-0.150258
-0.148991
-0.147602
-0.146093
-0.117529
-0.122442
-0.126164
-0.128839
-0.131033
-0.133125
-0.135213
-0.137241
-0.139134
-0.140854
-0.1424
-0.143784
-0.145018
-0.146108
-0.147055
-0.14786
-0.148524
-0.149046
-0.14943
-0.149677
-0.149788
-0.149765
-0.149609
-0.149322
-0.148906
-0.148361
-0.147691
-0.146895
-0.145978
-0.144939
-0.143783
-0.142512
-0.141128
-0.112586
-0.117102
-0.120605
-0.123203
-0.125373
-0.127442
-0.129493
-0.131482
-0.133342
-0.135041
-0.136577
-0.13796
-0.1392
-0.140302
-0.141267
-0.142096
-0.142788
-0.143345
-0.143768
-0.144059
-0.14422
-0.144251
-0.144155
-0.143933
-0.143587
-0.143118
-0.142528
-0.141819
-0.140993
-0.140052
-0.139
-0.137837
-0.136567
-0.108161
-0.112316
-0.115613
-0.11813
-0.120267
-0.122304
-0.124313
-0.126258
-0.12808
-0.129753
-0.131273
-0.132649
-0.133889
-0.134997
-0.135974
-0.13682
-0.137535
-0.138121
-0.138578
-0.138908
-0.139113
-0.139194
-0.139153
-0.13899
-0.138708
-0.138308
-0.137793
-0.137163
-0.136422
-0.135571
-0.134613
-0.133551
-0.132386
-0.104201
-0.10803
-0.111134
-0.113569
-0.115668
-0.117668
-0.119633
-0.12153
-0.123312
-0.124955
-0.126455
-0.127819
-0.129054
-0.130164
-0.131148
-0.132007
-0.132741
-0.13335
-0.133836
-0.134201
-0.134445
-0.13457
-0.134577
-0.134469
-0.134245
-0.133909
-0.133461
-0.132904
-0.132241
-0.131472
-0.130601
-0.129629
-0.128561
-0.100659
-0.104195
-0.107122
-0.109476
-0.111534
-0.113494
-0.115413
-0.117263
-0.119004
-0.120614
-0.122092
-0.123441
-0.124668
-0.125775
-0.126763
-0.127631
-0.128379
-0.129007
-0.129518
-0.129913
-0.130191
-0.130355
-0.130407
-0.130346
-0.130176
-0.129896
-0.129511
-0.12902
-0.128427
-0.127733
-0.126941
-0.126053
-0.125071
-0.0974978
-0.10077
-0.103535
-0.105811
-0.107827
-0.109748
-0.111621
-0.113424
-0.115124
-0.116702
-0.118155
-0.119488
-0.120704
-0.121806
-0.122794
-0.123667
-0.124426
-0.125071
-0.125602
-0.126022
-0.126331
-0.126529
-0.126619
-0.126602
-0.126479
-0.126251
-0.125921
-0.125491
-0.124961
-0.124335
-0.123614
-0.122802
-0.121899
-0.0946838
-0.0977213
-0.100338
-0.102541
-0.104515
-0.106397
-0.108226
-0.109984
-0.111643
-0.113189
-0.114618
-0.115932
-0.117137
-0.118232
-0.119218
-0.120094
-0.120861
-0.121518
-0.122067
-0.122509
-0.122843
-0.123072
-0.123196
-0.123217
-0.123136
-0.122955
-0.122675
-0.122298
-0.121826
-0.121261
-0.120604
-0.119859
-0.119028
-0.0921883
-0.0950166
-0.0974992
-0.0996345
-0.101569
-0.103413
-0.105199
-0.106915
-0.108536
-0.110051
-0.111455
-0.112752
-0.113944
-0.115031
-0.116013
-0.11689
-0.117663
-0.11833
-0.118893
-0.119353
-0.11971
-0.119965
-0.12012
-0.120175
-0.120131
-0.119991
-0.119756
-0.119427
-0.119005
-0.118494
-0.117896
-0.117211
-0.116443
-0.0899864
-0.0926298
-0.0949925
-0.0970655
-0.0989621
-0.100771
-0.102518
-0.104194
-0.10578
-0.107265
-0.108646
-0.109925
-0.111104
-0.112182
-0.11316
-0.114037
-0.114813
-0.115488
-0.116064
-0.116539
-0.116915
-0.117193
-0.117374
-0.117458
-0.117448
-0.117344
-0.117147
-0.116861
-0.116485
-0.116022
-0.115474
-0.114843
-0.114131
-0.11334
-0.0880572
-0.0905384
-0.0927946
-0.0948112
-0.0966732
-0.0984492
-0.100161
-0.101801
-0.103354
-0.104812
-0.106171
-0.107433
-0.108599
-0.109668
-0.110641
-0.111517
-0.112295
-0.112977
-0.113561
-0.11405
-0.114442
-0.11474
-0.114943
-0.115053
-0.115071
-0.114999
-0.114837
-0.114587
-0.114251
-0.113831
-0.113327
-0.112744
-0.112081
-0.111342
-0.0863827
-0.0887229
-0.0908857
-0.092852
-0.0946826
-0.0964292
-0.098109
-0.0997164
-0.10124
-0.102673
-0.104013
-0.105259
-0.106412
-0.107473
-0.10844
-0.109314
-0.110094
-0.11078
-0.111373
-0.111872
-0.112278
-0.112592
-0.112815
-0.112947
-0.11299
-0.112945
-0.112813
-0.112595
-0.112294
-0.11191
-0.111445
-0.110903
-0.110283
-0.109589
-0.0849475
-0.0871668
-0.0892488
-0.0911712
-0.0929741
-0.0946947
-0.0963462
-0.097925
-0.0994228
-0.100834
-0.102155
-0.103387
-0.104529
-0.105582
-0.106544
-0.107416
-0.108197
-0.108886
-0.109485
-0.109992
-0.11041
-0.110738
-0.110977
-0.111128
-0.111192
-0.11117
-0.111064
-0.110874
-0.110602
-0.110249
-0.109819
-0.109311
-0.108728
-0.108073
-0.0837387
-0.0858562
-0.0878697
-0.0897545
-0.0915336
-0.0932318
-0.094859
-0.0964133
-0.0978887
-0.0992804
-0.100586
-0.101806
-0.102938
-0.103983
-0.104941
-0.10581
-0.106591
-0.107283
-0.107886
-0.108401
-0.108828
-0.109168
-0.109421
-0.109587
-0.109669
-0.109666
-0.109581
-0.109414
-0.109167
-0.108841
-0.108439
-0.107961
-0.107409
-0.106786
-0.0827455
-0.0847795
-0.0867365
-0.0885901
-0.0903494
-0.092029
-0.0936361
-0.0951699
-0.0966265
-0.0980023
-0.0992951
-0.100504
-0.101628
-0.102667
-0.10362
-0.104487
-0.105268
-0.105961
-0.106569
-0.107089
-0.107524
-0.107873
-0.108136
-0.108316
-0.108412
-0.108425
-0.108357
-0.108209
-0.107983
-0.107679
-0.107299
-0.106845
-0.106319
-0.105723
-0.0819595
-0.0839273
-0.0858394
-0.0876684
-0.0894118
-0.0910767
-0.0926677
-0.0941853
-0.095627
-0.0969901
-0.0982723
-0.0994724
-0.10059
-0.101623
-0.102573
-0.103438
-0.104218
-0.104914
-0.105524
-0.106049
-0.106489
-0.106845
-0.107117
-0.107307
-0.107414
-0.10744
-0.107386
-0.107253
-0.107042
-0.106755
-0.106394
-0.105959
-0.105454
-0.104878
-0.0813747
-0.0832939
-0.085173
-0.0869835
-0.0887151
-0.0903688
-0.0919477
-0.093453
-0.0948835
-0.0962369
-0.0975111
-0.0987047
-0.0998168
-0.100847
-0.101793
-0.102657
-0.103437
-0.104133
-0.104745
-0.105273
-0.105718
-0.106079
-0.106358
-0.106555
-0.10667
-0.106705
-0.106661
-0.106539
-0.106341
-0.106067
-0.105719
-0.105299
-0.104808
-0.104248
-0.0809821
-0.0828711
-0.0847299
-0.0865295
-0.088254
-0.0899005
-0.0914715
-0.0929686
-0.0943916
-0.0957385
-0.0970073
-0.0981965
-0.099305
-0.100332
-0.101277
-0.102139
-0.102919
-0.103616
-0.104229
-0.104759
-0.105206
-0.105571
-0.105854
-0.106056
-0.106177
-0.106218
-0.106181
-0.106066
-0.105875
-0.10561
-0.105271
-0.10486
-0.104379
-0.10383
-0.0807714
-0.0826463
-0.0844976
-0.0862945
-0.0880177
-0.0896623
-0.0912303
-0.0927241
-0.0941439
-0.095488
-0.0967545
-0.0979418
-0.0990488
-0.100075
-0.101019
-0.101881
-0.10266
-0.103357
-0.103971
-0.104502
-0.104951
-0.105318
-0.105603
-0.105807
-0.10593
-0.105975
-0.105941
-0.10583
-0.105643
-0.105382
-0.105047
-0.104641
-0.104165
-0.103621
-0.238222
-0.218464
-0.200108
-0.186417
-0.173934
-0.162395
-0.152418
-0.143658
-0.135778
-0.128746
-0.122501
-0.116921
-0.111917
-0.107437
-0.103426
-0.0998349
-0.0966213
-0.0937512
-0.0911949
-0.0889264
-0.0869235
-0.0851673
-0.0836416
-0.0823328
-0.0812291
-0.080321
-0.0796006
-0.0790622
-0.078696
-0.0784943
-0.224457
-0.206295
-0.188051
-0.175134
-0.164028
-0.153303
-0.143908
-0.13585
-0.128639
-0.122154
-0.116396
-0.111269
-0.106672
-0.102549
-0.0988558
-0.0955479
-0.0925857
-0.0899374
-0.0875762
-0.0854786
-0.0836243
-0.0819962
-0.0805796
-0.079362
-0.078333
-0.0774836
-0.0768067
-0.0762968
-0.0759439
-0.0757443
-0.212023
-0.195653
-0.177876
-0.164874
-0.154562
-0.144751
-0.135911
-0.128389
-0.121774
-0.11581
-0.110487
-0.105758
-0.101527
-0.0977284
-0.0943228
-0.0912714
-0.0885378
-0.086092
-0.0839093
-0.0819685
-0.0802511
-0.0787413
-0.077426
-0.0762937
-0.0753349
-0.0745414
-0.0739068
-0.073426
-0.0730894
-0.072898
-0.198871
-0.183474
-0.167039
-0.154611
-0.145015
-0.136213
-0.128099
-0.121087
-0.114997
-0.109541
-0.104646
-0.100287
-0.096396
-0.0929045
-0.08977
-0.0869595
-0.0844406
-0.0821855
-0.0801713
-0.0783789
-0.0767914
-0.0753946
-0.0741763
-0.0731263
-0.0722358
-0.0714976
-0.0709058
-0.0704557
-0.0701385
-0.0699594
-0.185343
-0.17135
-0.156591
-0.144836
-0.135641
-0.127577
-0.120202
-0.113729
-0.108123
-0.103152
-0.0986914
-0.0947053
-0.0911468
-0.0879575
-0.085093
-0.0825222
-0.0802171
-0.0781524
-0.0763072
-0.0746639
-0.0732075
-0.0719251
-0.0708056
-0.06984
-0.0690203
-0.0683401
-0.0677943
-0.0673782
-0.0670845
-0.0669219
-0.171432
-0.158499
-0.145269
-0.134537
-0.12601
-0.118723
-0.112151
-0.106306
-0.101199
-0.0966934
-0.0926623
-0.0890501
-0.08582
-0.0829259
-0.0803261
-0.0779911
-0.0758962
-0.074019
-0.0723405
-0.0708448
-0.0695185
-0.0683501
-0.0673297
-0.066449
-0.0657013
-0.0650807
-0.0645827
-0.0642033
-0.0639362
-0.0637929
-0.156907
-0.145415
-0.133907
-0.124331
-0.116498
-0.109861
-0.103981
-0.0987525
-0.0941538
-0.0901022
-0.086491
-0.0832542
-0.0803556
-0.0777579
-0.075424
-0.0733272
-0.0714452
-0.0697581
-0.068249
-0.0669037
-0.0657104
-0.0646588
-0.0637403
-0.0629476
-0.0622748
-0.0617167
-0.0612695
-0.0609297
-0.0606925
-0.0605712
-0.142015
-0.131989
-0.122048
-0.113662
-0.106677
-0.10079
-0.0956352
-0.0910588
-0.0870044
-0.0834167
-0.0802184
-0.0773507
-0.0747828
-0.0724819
-0.0704141
-0.0685561
-0.0668878
-0.0653917
-0.0640531
-0.0628595
-0.0618005
-0.0608672
-0.0600521
-0.0593491
-0.0587528
-0.0582592
-0.0578648
-0.0575667
-0.0573615
-0.0572631
-0.126675
-0.118175
-0.1099
-0.102825
-0.0967715
-0.0916393
-0.0871614
-0.0832033
-0.0796903
-0.076572
-0.0737866
-0.0712861
-0.0690533
-0.0670574
-0.065264
-0.0636518
-0.0622037
-0.0609044
-0.0597414
-0.0587041
-0.0577836
-0.0569724
-0.0562644
-0.0556541
-0.0551374
-0.0547108
-0.0543716
-0.0541175
-0.0539464
-0.0538705
-0.110925
-0.103865
-0.0971752
-0.0914443
-0.0864225
-0.082138
-0.0783936
-0.0750878
-0.072148
-0.0695288
-0.0671796
-0.0650649
-0.0631815
-0.0615025
-0.0599933
-0.0586352
-0.0574137
-0.0563167
-0.0553339
-0.0544568
-0.0536782
-0.052992
-0.0523934
-0.0518781
-0.0514429
-0.051085
-0.0508025
-0.0505938
-0.0504575
-0.0504033
-0.094315
-0.0890347
-0.0838187
-0.0795687
-0.0756468
-0.0722787
-0.0692928
-0.0666563
-0.0643119
-0.0622232
-0.0603471
-0.0586739
-0.0571648
-0.0558192
-0.0546066
-0.0535125
-0.0525262
-0.0516384
-0.0508416
-0.0501293
-0.0494964
-0.0489384
-0.0484518
-0.0480337
-0.0476817
-0.0473939
-0.0471694
-0.0470067
-0.0469039
-0.0468752
-0.0764431
-0.0737262
-0.0697853
-0.0671311
-0.0642921
-0.0619309
-0.0597825
-0.0578931
-0.0562079
-0.0547019
-0.0533391
-0.0521852
-0.0510638
-0.0500637
-0.0491555
-0.0483314
-0.0475843
-0.0469085
-0.0462995
-0.0457534
-0.045267
-0.0448378
-0.0444637
-0.044143
-0.0438742
-0.0436565
-0.0434897
-0.0433723
-0.0433019
-0.0433018
-0.0574334
-0.0577339
-0.0551544
-0.0540944
-0.0524633
-0.0511897
-0.0499886
-0.0489264
-0.0479644
-0.0470855
-0.0462809
-0.0455782
-0.0448846
-0.0442423
-0.0436483
-0.0430999
-0.0425956
-0.0421342
-0.0417147
-0.0413359
-0.0409971
-0.0406974
-0.0404363
-0.0402133
-0.0400279
-0.0398802
-0.0397704
-0.0396971
-0.0396611
-0.0396833
-0.0374873
-0.0404217
-0.0397139
-0.0402779
-0.0401585
-0.0401577
-0.0400595
-0.039919
-0.0397304
-0.0395023
-0.039252
-0.0389954
-0.0387126
-0.0384229
-0.0381362
-0.0378579
-0.0375923
-0.0373424
-0.0371103
-0.0368977
-0.0367057
-0.0365351
-0.0363866
-0.0362609
-0.0361583
-0.0360797
-0.0360256
-0.0359951
-0.0359924
-0.0360312
-0.0167114
-0.0221418
-0.0237628
-0.0262442
-0.0278709
-0.0292438
-0.030266
-0.0310247
-0.0315718
-0.0319569
-0.0322246
-0.0324033
-0.0325099
-0.0325635
-0.0325808
-0.0325732
-0.0325489
-0.0325143
-0.0324741
-0.0324319
-0.0323905
-0.0323522
-0.0323189
-0.0322923
-0.0322736
-0.0322645
-0.0322655
-0.0322769
-0.032305
-0.0323551
0.00437081
-0.00371938
-0.00798194
-0.0124027
-0.0156587
-0.018261
-0.0202775
-0.0218541
-0.0230958
-0.024084
-0.0248801
-0.0255257
-0.0260525
-0.0264841
-0.0268402
-0.0271357
-0.0273821
-0.0275882
-0.0277613
-0.0279072
-0.0280309
-0.0281364
-0.0282271
-0.0283062
-0.0283762
-0.0284394
-0.028497
-0.0285506
-0.0286066
-0.0286631
0.0249459
0.0144164
0.00791138
0.00208768
-0.00239257
-0.00603166
-0.00900247
-0.0114606
-0.0135154
-0.0152474
-0.0167172
-0.0179693
-0.0190394
-0.0199558
-0.0207417
-0.0214164
-0.021996
-0.0224938
-0.0229213
-0.0232883
-0.0236029
-0.0238725
-0.0241029
-0.0242996
-0.0244668
-0.0246081
-0.024726
-0.0248233
-0.0249052
-0.0249639
0.045064
0.0337236
0.0259895
0.0191734
0.0134582
0.00853327
0.00427884
0.000602651
-0.00257328
-0.00531654
-0.00768562
-0.00973068
-0.0114955
-0.0130175
-0.0143295
-0.0154597
-0.0164327
-0.0172697
-0.017989
-0.0186061
-0.0191346
-0.0195859
-0.0199695
-0.0202938
-0.0205653
-0.0207895
-0.0209705
-0.0211124
-0.0212183
-0.0212776
0.0659889
0.0557074
0.0466753
0.0382357
0.0306472
0.0239202
0.018018
0.0128783
0.00842272
0.00457043
0.00124518
-0.00162209
-0.00409285
-0.00622094
-0.00805328
-0.00963049
-0.0109876
-0.0121546
-0.0131572
-0.0140173
-0.0147532
-0.0153806
-0.0159125
-0.0163598
-0.0167314
-0.0170344
-0.0172745
-0.0174568
-0.0175829
-0.0176439
0.0852714
0.0742428
0.0628133
0.0522798
0.0429848
0.0348987
0.0278965
0.0218458
0.016623
0.012117
0.00822951
0.00487496
0.00197919
-0.000521541
-0.00268184
-0.00454838
-0.00616092
-0.00755333
-0.00875433
-0.00978822
-0.0106755
-0.0114335
-0.0120766
-0.0126168
-0.0130638
-0.0134257
-0.0137088
-0.0139182
-0.0140556
-0.0141179
0.100166
0.0843247
0.0712589
0.0598988
0.0501144
0.0417137
0.0344792
0.0282285
0.0228164
0.0181242
0.0140517
0.0105134
0.00743641
0.00475843
0.00242649
0.000395439
-0.00137317
-0.00291206
-0.0042491
-0.00540791
-0.00640853
-0.00726786
-0.00800011
-0.00861712
-0.0091287
-0.00954285
-0.00986591
-0.0101024
-0.010255
-0.0103269
0.11186
0.0937368
0.0799555
0.0683329
0.0582939
0.0496103
0.042094
0.0355704
0.029892
0.0249387
0.0206111
0.0168256
0.0135108
0.010606
0.00805929
0.00582646
0.00386963
0.00215646
0.000659315
-0.000645377
-0.0017777
-0.00275471
-0.00359081
-0.00429809
-0.00488661
-0.00536459
-0.00573852
-0.00601323
-0.00619257
-0.0062805
0.117414
0.100913
0.0871681
0.0755125
0.0654364
0.0566617
0.0490041
0.0423079
0.0364387
0.0312839
0.0267499
0.0227578
0.01924
0.0161386
0.0134038
0.0109928
0.00886876
0.00700007
0.0053595
0.0039237
0.00267266
0.00158931
0.000659143
-0.000130065
-0.000788531
-0.00132463
-0.00174503
-0.00205499
-0.00225879
-0.00235987
0.120032
0.10516
0.0921776
0.0809537
0.0711486
0.062511
0.0548862
0.0481527
0.0422017
0.0369366
0.0322741
0.0281424
0.0244797
0.0212324
0.0183538
0.0158035
0.0135464
0.0115521
0.00979427
0.00825021
0.00690033
0.00572779
0.00471827
0.00385959
0.00314156
0.0025558
0.00209552
0.0017553
0.00153094
0.00141955
0.12024
0.107404
0.0956073
0.0850443
0.0756542
0.0672912
0.0598328
0.0531814
0.0472505
0.0419616
0.0372444
0.0330366
0.0292837
0.0259375
0.0229557
0.0203011
0.0179412
0.0158475
0.0139949
0.012362
0.0109299
0.00968227
0.00860534
0.00768719
0.00691786
0.00628908
0.0057941
0.00542758
0.00518547
0.00506503
0.119485
0.108155
0.0975279
0.0878001
0.0789897
0.0710323
0.0638528
0.0573832
0.0515607
0.0463258
0.0416226
0.0373996
0.0336102
0.0302126
0.0271696
0.0244477
0.0220174
0.0198526
0.0179303
0.0162301
0.0147345
0.0134281
0.0122976
0.0113317
0.0105209
0.00985699
0.0093336
0.00894554
0.00868895
0.00856133
0.117764
0.107916
0.0984559
0.0896019
0.081429
0.0739403
0.0671071
0.0608884
0.0552411
0.0501219
0.0454883
0.0412998
0.0375183
0.0341089
0.0310394
0.0282809
0.0258073
0.0235951
0.0216236
0.0198743
0.0183308
0.0169789
0.0158063
0.0148024
0.0139579
0.0132655
0.0127188
0.012313
0.0120445
0.0119108
0.115706
0.107039
0.0985932
0.090579
0.083073
0.0761011
0.069664
0.0637462
0.0583236
0.053368
0.0488495
0.0447379
0.0410033
0.0376175
0.0345539
0.0317879
0.0292971
0.0270608
0.0250608
0.0232804
0.021705
0.0203216
0.0191189
0.018087
0.0172175
0.0165035
0.015939
0.0155196
0.0152419
0.0151036
0.113287
0.10571
0.0982117
0.0909916
0.0841336
0.0776829
0.0716613
0.0660719
0.0609059
0.0561475
0.0517776
0.0477749
0.0441174
0.0407833
0.0377512
0.035001
0.032514
0.0302726
0.0282609
0.0264645
0.0248703
0.0234669
0.0222439
0.0211926
0.0203052
0.0195753
0.0189977
0.0185681
0.0182834
0.0181415
0.110819
0.104141
0.0974558
0.0909523
0.0847081
0.0787706
0.073171
0.0679245
0.0630343
0.0584956
0.0542983
0.0504291
0.046873
0.0436138
0.0406354
0.0379217
0.0354575
0.0332283
0.0312208
0.0294225
0.0278221
0.0264097
0.0251762
0.0241137
0.0232154
0.0224755
0.0218893
0.0214529
0.0211635
0.0210193
0.10828
0.102405
0.0964586
0.0906111
0.0849363
0.0794858
0.0742973
0.069394
0.0647875
0.0604807
0.0564712
0.0527522
0.0493146
0.0461475
0.0432393
0.0405779
0.0381513
0.0359481
0.0339572
0.0321683
0.030572
0.0291597
0.0279236
0.0268568
0.0259534
0.0252082
0.0246171
0.0241767
0.0238845
0.0237388
0.105825
0.100624
0.0953124
0.0900451
0.0848899
0.0798957
0.0751011
0.0705337
0.0662104
0.0621404
0.0583269
0.0547688
0.0514619
0.0483998
0.0455749
0.0429786
0.0406022
0.0384367
0.0364734
0.0347041
0.0331211
0.0317171
0.0304856
0.0294209
0.0285178
0.0277719
0.0271795
0.0267378
0.0264445
0.0262982
0.103436
0.0988274
0.0940829
0.0893379
0.0846548
0.0800812
0.0756564
0.0714102
0.0673631
0.0635283
0.0599132
0.0565212
0.0533519
0.0504031
0.0476703
0.0451482
0.0428309
0.0407118
0.0387846
0.0370427
0.03548
0.0340909
0.0328699
0.0318123
0.0309138
0.0301708
0.02958
0.0291392
0.0288463
0.0287002
0.101188
0.0970821
0.0928255
0.0885389
0.0842791
0.0800898
0.0760088
0.0720659
0.0682836
0.0646778
0.0612591
0.0580341
0.0550059
0.0521751
0.0495403
0.0470991
0.0448477
0.042782
0.0408974
0.0391894
0.0376532
0.0362844
0.035079
0.034033
0.033143
0.032406
0.0318195
0.0313814
0.0310902
0.0309449
0.0990652
0.0953978
0.0915724
0.0876941
0.0838143
0.0799736
0.0762083
0.072548
0.0690159
0.0656295
0.0624016
0.0593411
0.0564537
0.0537424
0.0512086
0.0488518
0.0466707
0.0446628
0.0428256
0.0411559
0.0396505
0.0383063
0.0371201
0.0360891
0.0352105
0.0344821
0.0339018
0.033468
0.0331795
0.0330355
0.0971016
0.0938084
0.0903549
0.0868336
0.0832912
0.0797646
0.0762873
0.0728879
0.0695896
0.0664107
0.0633654
0.0604642
0.0577149
0.0551225
0.0526902
0.0504196
0.048311
0.046364
0.0445773
0.0429493
0.0414781
0.0401615
0.0389976
0.0379842
0.0371195
0.0364017
0.0358293
0.0354011
0.0351162
0.0349739
0.0952842
0.0923151
0.0891879
0.0859823
0.0827401
0.0794952
0.0762788
0.0731182
0.0700362
0.0670512
0.0641784
0.0614294
0.0588133
0.0563367
0.0540044
0.0518195
0.0497841
0.047899
0.0461644
0.04458
0.0431448
0.041858
0.0407183
0.0397244
0.0388752
0.0381694
0.0376061
0.0371844
0.0369037
0.0367634
0.0936252
0.0909338
0.0880881
0.0851576
0.0821801
0.0791863
0.0762048
0.0732613
0.0703776
0.0675722
0.0648605
0.0622549
0.0597655
0.0574001
0.0551648
0.0530639
0.0511008
0.0492775
0.0475955
0.0460553
0.0446574
0.0434014
0.0422872
0.041314
0.0404814
0.0397888
0.0392354
0.0388209
0.0385447
0.0384068
0.0921126
0.0896615
0.0870615
0.0843724
0.0816286
0.078858
0.0760868
0.073339
0.0706357
0.0679949
0.0654322
0.0629603
0.0605899
0.0583298
0.056187
0.0541669
0.0522738
0.0505109
0.0488806
0.0473845
0.0460237
0.044799
0.0437106
0.0427587
0.0419433
0.0412642
0.0407213
0.0403143
0.040043
0.0399075
0.0907483
0.0885041
0.0861161
0.0836366
0.0810973
0.0785236
0.0759393
0.0733669
0.0708264
0.0683352
0.0659087
0.0635599
0.0613
0.0591383
0.0570825
0.0551389
0.0533127
0.0516078
0.0500276
0.0485744
0.0472501
0.0460562
0.0449936
0.044063
0.0432649
0.0425996
0.0420672
0.0416679
0.0414016