/*--------------------------------*- C++ -*----------------------------------*\
  =========                 |
  \\      /  F ield         | OpenFOAM: The Open Source CFD Toolbox
   \\    /   O peration     | Website:  https://openfoam.org
    \\  /    A nd           | Version:  7
     \\/     M anipulation  |
\*---------------------------------------------------------------------------*/
FoamFile
{
    version     2.0;
    format      ascii;
    class       volVectorField;
    location    "20";
    object      U;
}
// * * * * * * * * * * * * * * * * * * * * * * * * * * * * * * * * * * * * * //

dimensions      [0 1 -1 0 0 0 0];

internalField   nonuniform List<vector> 
3500
(
(-0.0632623 0.0104032 7.48907e-20)
(-0.0936243 0.0101911 1.30519e-20)
(-0.121101 0.009527 2.53889e-20)
(-0.14557 0.00873987 -1.46872e-20)
(-0.166821 0.00784101 -2.72398e-20)
(-0.184037 0.00648523 2.64555e-20)
(-0.200105 0.00637783 2.59588e-20)
(-0.208105 0.00362931 2.0399e-20)
(-0.00885872 0.0157069 -9.51247e-20)
(-0.0314725 0.0275763 6.28509e-20)
(-0.062324 0.0305347 -8.55144e-20)
(-0.0902313 0.0299275 4.54719e-21)
(-0.114626 0.0279528 -6.09165e-20)
(-0.135376 0.0255954 7.48222e-21)
(-0.152561 0.023057 3.91207e-20)
(-0.163332 0.0185559 -1.72226e-19)
(-0.175363 0.0189809 4.24714e-20)
(-0.173236 0.00936908 1.15686e-22)
(-0.0109067 0.024714 1.76855e-19)
(-0.0331581 0.0437761 -1.57552e-20)
(-0.0606094 0.0486739 1.18751e-19)
(-0.0837753 0.0477341 -1.11104e-20)
(-0.102171 0.0444989 -1.29759e-19)
(-0.115428 0.0405411 9.581e-20)
(-0.125171 0.0368398 -4.11943e-20)
(-0.122014 0.0283247 4.14626e-20)
(-0.127623 0.031151 -1.25904e-19)
(-0.104652 0.0118652 1.79312e-19)
(-0.0137053 0.0317858 2.05556e-20)
(-0.035609 0.0569375 -2.80735e-19)
(-0.0583766 0.0636068 -1.66886e-19)
(-0.0747758 0.0623594 8.77746e-20)
(-0.0845634 0.0579342 1.04397e-19)
(-0.0862877 0.0523568 -1.73582e-19)
(-0.0860069 0.0476734 7.42977e-20)
(-0.05989 0.0354679 4.95275e-20)
(-0.0575549 0.0409275 1.98451e-19)
(0.000676211 0.0151499 -2.58526e-19)
(-0.0170197 0.0366105 -8.8838e-20)
(-0.038713 0.0662935 1.38052e-19)
(-0.0558394 0.0743075 4.03844e-19)
(-0.0636287 0.0726446 -2.01425e-19)
(-0.0623836 0.0670134 1.86939e-19)
(-0.0483363 0.060237 3.1494e-19)
(-0.034424 0.052498 -9.11348e-21)
(0.0235316 0.0410834 8.78759e-21)
(0.0351806 0.0451422 -2.9172e-19)
(0.153048 0.024555 1.3979e-19)
(-0.0206562 0.0392123 -2.09713e-19)
(-0.0422624 0.0714569 1.24107e-19)
(-0.0529354 0.0800449 -5.62873e-19)
(-0.0501757 0.0776732 2.74052e-19)
(-0.0347514 0.0706024 3.84475e-20)
(-0.000836193 0.0635798 -3.55261e-19)
(0.0342174 0.0502716 -1.04311e-19)
(0.136995 0.0465897 1.04362e-19)
(0.153414 0.0387367 1.97745e-19)
(0.367011 0.0352845 -1.10652e-19)
(-0.0244991 0.0398935 -2.27181e-20)
(-0.0458467 0.0724219 -3.8978e-19)
(-0.0489371 0.0804953 3.85541e-19)
(-0.0330123 0.0769246 -2.77264e-19)
(0.00166571 0.0684083 6.88034e-20)
(0.0622913 0.062252 2.30668e-19)
(0.129891 0.0432985 -4.21973e-19)
(0.285823 0.0522059 -1.76843e-19)
(0.31837 0.0311336 1.5108e-19)
(0.629377 0.0456443 8.92314e-20)
(-0.0285018 0.0391137 2.28846e-19)
(-0.0486943 0.0695105 6.72271e-19)
(-0.04197 0.0758304 -6.49044e-19)
(-0.00825169 0.0706381 1.58977e-19)
(0.0538854 0.061329 3.98106e-19)
(0.151712 0.0568781 -2.02866e-19)
(0.271124 0.040286 -6.5065e-20)
(0.468001 0.0556094 -2.41029e-19)
(0.555397 0.0396066 2.85515e-19)
(0.890096 0.065621 -2.02957e-19)
(-0.0325698 0.0372869 -4.19451e-19)
(-0.0494956 0.0632941 1.15797e-19)
(-0.028501 0.0667648 2.42731e-19)
(0.0311945 0.0601509 -1.20663e-19)
(0.133585 0.0523064 -4.08663e-19)
(0.281684 0.0510605 4.84704e-19)
(0.464525 0.050711 3.07844e-19)
(0.677426 0.062734 2.79225e-19)
(0.835715 0.0685486 -2.26832e-19)
(1.09511 0.0917212 1.72532e-19)
(-0.0363452 0.034653 -1.02956e-19)
(-0.0461595 0.0544301 -3.38007e-19)
(-0.00311894 0.0545847 -2.00841e-19)
(0.0954774 0.0484208 2.36922e-19)
(0.253563 0.0470341 4.55507e-20)
(0.460722 0.0546363 -2.85783e-19)
(0.688476 0.073126 3.33973e-19)
(0.897956 0.0849443 -4.70183e-19)
(1.0701 0.108553 -2.66759e-19)
(1.20927 0.110584 9.39398e-20)
(-0.0391495 0.0313083 2.53088e-19)
(-0.0355728 0.0435104 3.55485e-19)
(0.0414327 0.0412923 1.48614e-19)
(0.195733 0.0403377 2.07108e-19)
(0.419223 0.0523304 -1.20174e-19)
(0.672868 0.0755124 -3.0902e-19)
(0.904138 0.10365 1.23883e-19)
(1.08322 0.119176 1.53084e-19)
(1.19955 0.139934 5.10146e-19)
(1.24232 0.113246 -3.02189e-19)
(-0.0400001 0.0271805 3.74175e-19)
(-0.0136764 0.0310754 -4.63171e-20)
(0.113431 0.0300498 3.40919e-19)
(0.338273 0.0425273 -1.51981e-19)
(0.617339 0.0731249 4.67235e-19)
(0.878436 0.109195 1.86562e-19)
(1.07293 0.137393 2.32039e-19)
(1.1932 0.150249 -3.80067e-19)
(1.24357 0.152044 -1.57462e-19)
(1.26666 0.136479 1.52571e-19)
(-0.0375365 0.0220727 2.43267e-20)
(0.0244353 0.0180221 -3.2996e-19)
(0.220008 0.0260259 -3.15726e-19)
(0.51555 0.0603379 -8.02147e-20)
(0.814667 0.107126 -1.26676e-19)
(1.04077 0.145633 1.4068e-19)
(1.17653 0.166592 -5.81908e-19)
(1.23927 0.168814 3.92446e-19)
(1.26117 0.166072 -3.52582e-21)
(1.26416 0.146531 -4.72701e-19)
(-0.0300163 0.0158536 -5.30284e-19)
(0.0842476 0.00653918 -1.07178e-19)
(0.362011 0.0354399 -1.14158e-20)
(0.702834 0.0929135 3.37085e-20)
(0.978535 0.145765 1.79117e-19)
(1.14753 0.177647 -5.65117e-19)
(1.22826 0.187568 5.58949e-19)
(1.25728 0.184504 -1.23302e-19)
(1.25928 0.174345 7.4262e-20)
(1.25279 0.156398 1.22096e-19)
(-0.0153073 0.00869821 1.44476e-20)
(0.17039 0.00139453 4.34819e-19)
(0.527435 0.0612905 1.11711e-19)
(0.871386 0.13354 -6.01166e-20)
(1.09644 0.182279 -5.10941e-20)
(1.20901 0.203448 3.30327e-19)
(1.25093 0.204952 -1.25006e-22)
(1.25751 0.196241 2.49195e-19)
(1.25091 0.182985 -7.9155e-20)
(1.2438 0.166772 -3.39642e-21)
(0.00943397 0.00141317 8.62588e-20)
(0.283357 0.0093555 -1.56243e-19)
(0.693684 0.100427 1.2519e-19)
(1.00549 0.175882 1.6645e-19)
(1.17328 0.214746 -1.09374e-19)
(1.24031 0.225332 -1.61266e-20)
(1.25545 0.21947 -3.27865e-19)
(1.25058 0.207392 -2.20377e-19)
(1.24057 0.191383 2.7342e-19)
(1.22996 0.17582 -1.78256e-19)
(0.0470885 -0.00373555 1.10947e-19)
(0.41603 0.0350452 1.97622e-19)
(0.841227 0.14707 1.39905e-19)
(1.10332 0.217096 -2.1418e-19)
(1.21871 0.243844 2.57122e-19)
(1.2517 0.244486 -1.39929e-19)
(1.25074 0.233161 -3.60339e-20)
(1.2397 0.217894 -1.37351e-20)
(1.22757 0.199972 -7.8068e-20)
(1.21749 0.185462 2.41084e-20)
(0.0989314 -0.00315067 2.77266e-19)
(0.554657 0.0772709 -1.55964e-19)
(0.961429 0.197057 9.80908e-20)
(1.16925 0.256306 1.16561e-19)
(1.24123 0.270288 -8.50726e-20)
(1.25085 0.262342 1.31624e-19)
(1.24032 0.246333 4.9588e-20)
(1.22638 0.228414 6.78814e-20)
(1.2142 0.209009 4.52525e-20)
(1.20295 0.194242 7.31297e-20)
(0.163642 0.00672486 -1.01556e-19)
(0.684896 0.131245 -1.50917e-19)
(1.0531 0.248131 -1.20065e-19)
(1.20909 0.293227 -1.16021e-19)
(1.24756 0.294867 -5.27049e-20)
(1.24194 0.279445 5.91469e-20)
(1.22641 0.259453 -2.99063e-20)
(1.21144 0.238896 6.84291e-22)
(1.199 0.217971 -2.89907e-20)
(1.18815 0.202601 6.14724e-21)
(0.237224 0.0278663 2.71406e-20)
(0.796826 0.192178 -5.89524e-21)
(1.118 0.298928 2.72224e-20)
(1.22834 0.327989 2.15903e-20)
(1.24226 0.31806 1.67109e-20)
(1.22755 0.296159 -4.60885e-20)
(1.20972 0.272393 2.235e-20)
(1.19462 0.249181 -2.25555e-20)
(1.18289 0.226733 -7.47886e-21)
(1.17232 0.210009 -1.23052e-20)
(0.314013 0.0601578 1.35662e-21)
(0.886068 0.25645 -9.15321e-22)
(1.15881 0.348428 -6.13026e-21)
(1.2314 0.360747 7.2889e-20)
(1.22841 0.34014 -2.04675e-20)
(1.20885 0.312389 -2.0839e-20)
(1.19054 0.284974 2.9438e-21)
(1.17612 0.259013 -2.95484e-21)
(1.1651 0.234749 -9.93791e-21)
(1.15547 0.216448 -2.30485e-20)
(0.387901 0.10194 -1.16477e-19)
(0.95179 0.32152 2.26931e-20)
(1.17858 0.395779 -1.95011e-19)
(1.22154 0.391428 -7.06506e-20)
(1.20784 0.361044 -2.23493e-20)
(1.18648 0.327883 -3.38466e-21)
(1.16891 0.296823 -1.76685e-20)
(1.15573 0.268049 -1.23493e-20)
(1.14598 0.24191 8.56629e-21)
(1.13705 0.221779 1.60453e-20)
(0.453344 0.150889 2.00793e-19)
(0.994474 0.385329 -1.05439e-19)
(1.18015 0.440065 1.49273e-19)
(1.20109 0.419753 6.35484e-20)
(1.18169 0.380477 -2.53061e-20)
(1.16073 0.342183 8.97848e-20)
(1.1449 0.307494 -2.14075e-20)
(1.13362 0.275983 3.17881e-20)
(1.12524 0.248155 4.245e-21)
(1.11699 0.225949 2.33603e-20)
(0.506096 0.204415 -1.23236e-19)
(1.01545 0.446098 4.78344e-19)
(1.16602 0.480432 -9.09751e-20)
(1.17178 0.445263 -5.6185e-20)
(1.15069 0.397904 1.28479e-19)
(1.13189 0.354747 -5.66013e-20)
(1.11867 0.316508 -2.3943e-20)
(1.10977 0.282469 -1.55628e-20)
(1.10285 0.253387 -2.75871e-20)
(1.09604 0.228899 -1.68402e-21)
(0.54351 0.259743 -2.2519e-19)
(1.01645 0.502175 -2.60752e-19)
(1.13824 0.515946 1.67084e-19)
(1.13499 0.467289 4.63489e-20)
(1.11554 0.412645 -7.24263e-20)
(1.10035 0.36502 -3.73801e-20)
(1.09041 0.323486 2.09146e-20)
(1.08409 0.287291 -1.56774e-20)
(1.07886 0.25699 2.06236e-20)
(1.07446 0.230463 -8.8531e-21)
(0.564496 0.313983 8.18687e-20)
(0.999381 0.551997 3.48222e-19)
(1.09861 0.545559 -6.47362e-20)
(1.09213 0.484993 6.87377e-21)
(1.07688 0.423971 -9.10835e-21)
(1.06626 0.372406 3.95958e-20)
(1.06018 0.328124 3.06946e-20)
(1.05673 0.290093 1.4877e-20)
(1.0538 0.258693 -8.45273e-21)
(1.05229 0.230557 -3.34922e-21)
(0.56929 0.364357 -6.04167e-19)
(0.966019 0.593926 5.20467e-20)
(1.04919 0.568269 -1.38004e-19)
(1.04428 0.497334 5.46994e-20)
(1.03505 0.431238 -1.23022e-20)
(1.02988 0.376382 -5.61673e-21)
(1.02829 0.329936 -1.14644e-20)
(1.0282 0.29056 1.1811e-20)
(1.02825 0.25821 -1.3764e-20)
(1.03026 0.22912 -4.44219e-20)
(0.558972 0.408581 3.02353e-19)
(0.917924 0.625858 -3.10724e-19)
(0.992304 0.583214 -2.56167e-20)
(0.992395 0.503517 -4.93091e-20)
(0.990664 0.433665 3.22058e-20)
(0.991767 0.376408 2.19491e-20)
(0.995148 0.328505 3.18644e-20)
(0.999058 0.288285 2.79345e-21)
(1.00308 0.255359 -1.02266e-21)
(1.00922 0.226243 6.80836e-20)
(0.534654 0.444936 1.86029e-19)
(0.857641 0.646235 -3.69649e-20)
(0.929952 0.589126 8.59471e-21)
(0.937575 0.503104 4.65512e-20)
(0.944456 0.430717 -5.75504e-21)
(0.952393 0.371991 -6.21197e-20)
(0.961239 0.323302 -4.13848e-20)
(0.969921 0.282683 6.31779e-21)
(0.978977 0.249617 6.14598e-20)
(0.989526 0.22228 -4.69196e-20)
(0.497565 0.470819 4.08556e-20)
(0.789171 0.654669 -9.09569e-21)
(0.863981 0.585104 -7.1481e-20)
(0.880964 0.49552 1.31275e-20)
(0.897222 0.421963 1.08051e-19)
(0.912408 0.362784 -3.52668e-20)
(0.927119 0.313991 1.29678e-19)
(0.941192 0.273182 -1.77093e-19)
(0.955849 0.239712 -1.24763e-19)
(0.970026 0.216036 -2.25894e-20)
(0.450113 0.483077 -3.83759e-20)
(0.715071 0.64966 3.52038e-20)
(0.795947 0.571028 1.2685e-20)
(0.82376 0.480327 -4.06308e-20)
(0.849843 0.407121 -1.74097e-19)
(0.872543 0.348606 1.71802e-19)
(0.893437 0.300594 6.41012e-20)
(0.913099 0.260197 8.33915e-20)
(0.93302 0.225199 2.27098e-19)
(0.948051 0.198872 -5.38165e-20)
(0.396419 0.481314 1.00291e-19)
(0.638333 0.630763 -1.6552e-20)
(0.727732 0.546705 -5.45155e-20)
(0.767224 0.457264 9.14826e-20)
(0.803289 0.386001 1.67621e-19)
(0.833641 0.329311 -3.87946e-19)
(0.860909 0.283094 -6.20902e-20)
(0.885868 0.244714 -1.53948e-19)
(0.908902 0.212307 3.18962e-20)
(0.923474 0.187348 -1.1066e-19)
(0.339655 0.465162 -2.11077e-19)
(0.561627 0.597649 -1.08039e-19)
(0.661136 0.512204 3.4232e-19)
(0.712649 0.426339 -1.97338e-19)
(0.758562 0.358611 -2.78476e-19)
(0.7965 0.304854 2.59315e-19)
(0.830096 0.261001 -2.41979e-19)
(0.860194 0.224341 1.17265e-19)
(0.886579 0.193288 -1.4196e-19)
(0.903303 0.169611 2.23354e-19)
(0.282957 0.43505 -9.76905e-20)
(0.487748 0.550695 5.1537e-19)
(0.597966 0.467795 -5.42518e-19)
(0.661328 0.387769 2.14615e-20)
(0.716672 0.325201 1.76753e-19)
(0.761822 0.275744 -1.33419e-20)
(0.801158 0.235649 3.69671e-19)
(0.835433 0.202358 -3.19606e-19)
(0.864575 0.174142 2.29179e-19)
(0.88443 0.151989 -1.53334e-19)
(0.229148 0.392004 -1.6129e-19)
(0.419213 0.490636 8.89152e-20)
(0.53995 0.413995 2.39614e-19)
(0.614531 0.341957 2.73564e-19)
(0.678664 0.285987 -6.29251e-20)
(0.730566 0.241791 2.54106e-19)
(0.775243 0.205975 2.33918e-20)
(0.813355 0.176285 2.59099e-20)
(0.845202 0.151316 -9.59194e-20)
(0.868131 0.131822 -5.65541e-21)
(0.180633 0.337603 4.88939e-19)
(0.358279 0.418676 -3.38665e-19)
(0.48875 0.351593 -4.50355e-19)
(0.57342 0.289615 2.58607e-20)
(0.645342 0.241716 -1.30894e-19)
(0.703142 0.204006 1.07999e-19)
(0.752371 0.173529 -3.90013e-19)
(0.793755 0.148267 1.13196e-19)
(0.828207 0.126924 3.18097e-19)
(0.854256 0.110086 -1.53353e-19)
(0.139292 0.273527 6.93185e-20)
(0.30697 0.336573 4.24889e-19)
(0.445952 0.281662 3.04485e-19)
(0.539143 0.231535 -2.83734e-19)
(0.617659 0.192884 1.73986e-19)
(0.680428 0.162495 -7.87941e-20)
(0.73343 0.137983 -5.045e-20)
(0.777499 0.117719 -2.40187e-20)
(0.814198 0.100599 -9.92225e-20)
(0.843042 0.0869661 1.80673e-19)
(0.106679 0.201418 -3.32623e-19)
(0.266947 0.246371 -3.85665e-19)
(0.412764 0.205662 -5.76318e-21)
(0.512581 0.168835 2.71864e-19)
(0.596229 0.14048 -5.03426e-20)
(0.662848 0.118211 -5.25045e-20)
(0.718744 0.100264 7.58956e-20)
(0.764882 0.0854278 -4.11652e-20)
(0.803396 0.072863 -3.1637e-20)
(0.834562 0.0627753 3.30963e-20)
(0.0841395 0.123315 4.84247e-20)
(0.239521 0.150241 -6.35194e-20)
(0.390121 0.125207 2.73285e-19)
(0.494471 0.102698 -6.67308e-20)
(0.581631 0.0853777 1.24115e-19)
(0.650879 0.0717852 -3.33167e-20)
(0.708736 0.0608418 -5.11727e-20)
(0.756274 0.0517993 8.08015e-20)
(0.796055 0.0441221 1.14789e-20)
(0.828895 0.0379123 -2.80921e-20)
(0.485293 0.0344679 -6.30852e-20)
(0.574235 0.0286429 2.87353e-20)
(0.644815 0.0240729 -1.5123e-20)
(0.703661 0.0203948 1.78124e-20)
(0.751905 0.0173562 -2.29213e-20)
(0.792336 0.0147722 -1.38032e-20)
(0.826057 0.0126733 6.57482e-24)
(-0.214499 0.0050059 -5.9838e-20)
(-0.220335 0.00486247 4.29647e-20)
(-0.225772 0.00466392 6.62117e-22)
(-0.230999 0.0045175 -7.40795e-21)
(-0.236085 0.00440946 -1.49399e-20)
(-0.241064 0.00433102 -1.72976e-20)
(-0.245965 0.00427485 -2.97824e-20)
(-0.25081 0.00423335 5.29038e-20)
(-0.255613 0.00419937 -3.01894e-20)
(-0.260379 0.00416649 6.21979e-20)
(-0.265106 0.00412902 -3.92148e-20)
(-0.269786 0.00408188 -5.70495e-21)
(-0.274406 0.00402045 -1.40848e-20)
(-0.278946 0.00394053 3.65817e-20)
(-0.283385 0.00383834 -2.41861e-20)
(-0.287693 0.00371043 2.48954e-20)
(-0.291838 0.00355375 -1.73125e-20)
(-0.295785 0.00336562 -1.47451e-20)
(-0.299495 0.00314381 9.49406e-21)
(-0.302924 0.00288668 -6.39896e-21)
(-0.306029 0.00259324 2.38856e-20)
(-0.308762 0.00226291 -1.08816e-20)
(-0.311078 0.00189526 -1.62632e-20)
(-0.312926 0.00149111 1.00878e-20)
(-0.314251 0.00105467 -1.37889e-20)
(-0.315005 0.000584604 1.62203e-20)
(-0.315165 7.1898e-05 4.51075e-21)
(-0.314701 -0.00048607 -1.29972e-20)
(-0.313571 -0.00108186 2.32893e-20)
(-0.174864 0.0136939 6.06448e-21)
(-0.179679 0.0133354 5.10923e-20)
(-0.183855 0.0127448 -8.0506e-20)
(-0.187777 0.0123097 1.23561e-19)
(-0.191586 0.0119863 -1.02021e-19)
(-0.195294 0.0117474 -3.52312e-21)
(-0.198922 0.011573 1.34267e-19)
(-0.202486 0.0114415 -4.36735e-20)
(-0.205996 0.0113318 1.65438e-20)
(-0.209456 0.0112256 -5.34076e-20)
(-0.212862 0.0111064 -6.30379e-20)
(-0.216206 0.0109599 3.39401e-20)
(-0.219476 0.0107727 -4.45318e-20)
(-0.222656 0.0105327 8.91665e-20)
(-0.225724 0.0102289 -2.82034e-20)
(-0.228654 0.00985125 2.96184e-20)
(-0.231419 0.00939096 -1.52792e-20)
(-0.233986 0.00884012 -3.52798e-20)
(-0.236318 0.00819185 3.97631e-20)
(-0.238379 0.0074405 -1.31329e-20)
(-0.240125 0.00658145 -5.85048e-20)
(-0.241516 0.00561164 5.45295e-20)
(-0.24251 0.00453175 -3.57305e-20)
(-0.243049 0.00334915 -8.347e-21)
(-0.243092 0.00208461 1.3724e-20)
(-0.242624 0.000700003 3.99696e-20)
(-0.24162 -0.000816623 -1.09864e-20)
(-0.240026 -0.0024503 7.36353e-20)
(-0.237796 -0.0041875 -1.00795e-21)
(-0.0994584 0.0190471 -1.59248e-19)
(-0.102733 0.0184875 6.39584e-20)
(-0.104883 0.0176407 -1.69804e-19)
(-0.106718 0.0169673 3.09938e-19)
(-0.108535 0.0164284 -2.09401e-19)
(-0.110284 0.0160113 2.55363e-19)
(-0.111947 0.0156951 -2.55164e-19)
(-0.113527 0.0154481 1.15493e-19)
(-0.115027 0.0152364 -2.60347e-20)
(-0.116442 0.0150304 1.41542e-19)
(-0.117769 0.0148053 -6.59329e-20)
(-0.118998 0.0145393 -8.41622e-20)
(-0.12012 0.0142121 -1.6305e-19)
(-0.12112 0.0138048 1.68548e-19)
(-0.121984 0.0133002 -2.18967e-21)
(-0.122691 0.0126826 -1.53369e-19)
(-0.12322 0.0119376 3.51689e-20)
(-0.123547 0.0110523 1.35143e-19)
(-0.123645 0.0100145 -3.87966e-20)
(-0.123485 0.00881385 7.12636e-21)
(-0.123035 0.0074435 8.15445e-20)
(-0.122257 0.00590838 -7.92378e-20)
(-0.121106 0.00423499 1.2797e-19)
(-0.119502 0.0023959 -1.97249e-20)
(-0.117509 0.000344879 -1.68612e-19)
(-0.115123 -0.00190155 1.70066e-19)
(-0.112246 -0.00432529 -6.19662e-20)
(-0.108823 -0.00691112 6.02879e-20)
(-0.104838 -0.00965233 -1.76467e-19)
(0.0109834 0.0190916 7.93478e-21)
(0.00814691 0.0189759 -1.90288e-19)
(0.00777362 0.018581 1.6971e-19)
(0.00769108 0.0179515 1.22435e-19)
(0.00755158 0.0173129 -8.26632e-20)
(0.00746602 0.0167363 -1.63796e-19)
(0.00749233 0.0162396 6.56718e-21)
(0.0076427 0.0158128 1.19499e-19)
(0.00792669 0.0154249 -9.85134e-20)
(0.00835886 0.0150436 1.66178e-19)
(0.00895181 0.0146428 -2.12862e-19)
(0.00971387 0.0141981 2.03766e-19)
(0.0106523 0.0136845 -4.62401e-20)
(0.0117761 0.0130779 3.18205e-20)
(0.0130957 0.0123566 5.74625e-20)
(0.0146222 0.0115012 -4.91403e-20)
(0.0163678 0.0104937 -2.04963e-19)
(0.0183431 0.00931755 8.47823e-20)
(0.0205623 0.0079551 1.62281e-19)
(0.0230418 0.00639886 -4.98161e-20)
(0.0258156 0.00463808 -7.27639e-20)
(0.0289602 0.00266441 -2.58252e-20)
(0.0324096 0.000444653 -9.29805e-21)
(0.0361147 -0.00202559 -7.08379e-20)
(0.0401423 -0.00474965 1.92254e-19)
(0.0446206 -0.00768516 -2.08256e-21)
(0.0495295 -0.0108264 -6.1756e-20)
(0.0548787 -0.0141753 3.24438e-20)
(0.0606892 -0.0177236 -5.60262e-20)
(0.06698 -0.0214583 -1.01272e-19)
(0.163525 0.0205011 7.28396e-20)
(0.162143 0.0186133 1.02442e-20)
(0.160044 0.01741 -3.69741e-19)
(0.158965 0.0166378 1.59935e-19)
(0.15848 0.0159335 -1.35597e-19)
(0.158356 0.0152024 3.26787e-20)
(0.158562 0.0145013 -5.79072e-20)
(0.159068 0.0138422 1.33625e-19)
(0.159853 0.0131875 -3.96696e-21)
(0.160926 0.0125092 4.23243e-19)
(0.162299 0.0117972 -6.97887e-20)
(0.163972 0.0110383 -1.82289e-19)
(0.165946 0.0102098 -2.87947e-20)
(0.168222 0.00928532 -8.42572e-21)
(0.170805 0.00824048 -7.19907e-20)
(0.173698 0.00705426 -6.65722e-20)
(0.176905 0.00571225 4.06824e-21)
(0.18042 0.00422088 8.51332e-20)
(0.184263 0.00254849 1.15649e-19)
(0.188426 0.000652404 -1.3208e-19)
(0.192881 -0.00149237 1.39352e-19)
(0.197605 -0.00390035 -1.86456e-19)
(0.202612 -0.0065915 6.20936e-20)
(0.207996 -0.00953737 -2.33248e-20)
(0.213738 -0.0127068 -1.63891e-19)
(0.219834 -0.0161237 1.42208e-19)
(0.226292 -0.0197923 3.78985e-20)
(0.233122 -0.0237044 -9.65924e-20)
(0.240334 -0.0278482 1.29473e-19)
(0.247933 -0.0322088 6.27903e-20)
(0.364799 0.0289318 -1.60981e-20)
(0.362278 0.0246337 -9.16197e-20)
(0.358372 0.0214992 8.78945e-20)
(0.35437 0.0192427 2.11707e-19)
(0.350885 0.0172566 5.31241e-20)
(0.348183 0.0154642 -2.10009e-19)
(0.346242 0.01395 3.63475e-20)
(0.344907 0.0126411 2.71622e-19)
(0.344103 0.0114021 -7.40815e-19)
(0.343836 0.0101665 2.62511e-19)
(0.344113 0.00892255 -2.24926e-19)
(0.344911 0.00765644 4.09974e-19)
(0.346203 0.00634116 1.21918e-19)
(0.347973 0.00494927 -3.46124e-19)
(0.350217 0.00345828 4.9458e-19)
(0.352929 0.00184597 -1.05093e-19)
(0.356163 0.000100012 -3.2613e-19)
(0.359844 -0.00182546 -3.02361e-19)
(0.363911 -0.00396637 3.92896e-19)
(0.368343 -0.00633748 2.22302e-19)
(0.373168 -0.00894377 -3.01789e-19)
(0.378393 -0.011792 3.06089e-19)
(0.384 -0.0148683 -4.68225e-19)
(0.38998 -0.0181933 1.13495e-19)
(0.396322 -0.0217772 -4.82052e-20)
(0.403024 -0.0256222 1.93427e-19)
(0.410081 -0.0297255 6.4896e-20)
(0.417488 -0.0340805 -3.33452e-19)
(0.425236 -0.0386766 -5.31132e-20)
(0.433317 -0.0434995 2.01351e-19)
(0.610426 0.0396073 -1.39001e-19)
(0.60219 0.035422 1.65172e-20)
(0.594957 0.0321213 2.45582e-19)
(0.587176 0.0288613 -2.75068e-19)
(0.579617 0.0253134 1.41348e-19)
(0.573103 0.0219428 1.30843e-19)
(0.567675 0.0190427 1.14414e-19)
(0.563037 0.0164705 -3.45461e-19)
(0.559079 0.0140356 -2.04271e-19)
(0.55586 0.0116897 -3.98921e-20)
(0.553413 0.00943321 6.19278e-19)
(0.551708 0.00723446 1.11738e-20)
(0.550703 0.00504502 -5.84644e-19)
(0.550372 0.00282583 2.05211e-19)
(0.550703 0.000544363 -1.67826e-20)
(0.551669 -0.00183109 1.27119e-19)
(0.553261 -0.00434318 7.19998e-20)
(0.555403 -0.00700512 -1.19846e-19)
(0.558124 -0.00978788 2.94564e-19)
(0.561397 -0.012707 1.44262e-20)
(0.565183 -0.0157987 -5.75596e-19)
(0.569455 -0.0190995 2.81101e-19)
(0.5742 -0.0226272 1.41052e-19)
(0.579399 -0.0263879 -1.93669e-20)
(0.58503 -0.0303852 -6.45818e-20)
(0.591068 -0.034624 8.4234e-20)
(0.597491 -0.039106 1.54281e-19)
(0.604276 -0.0438263 -5.74237e-19)
(0.611402 -0.0487752 4.86271e-19)
(0.618844 -0.0539391 -3.04749e-19)
(0.626576 -0.0593007 -8.88961e-20)
(0.863277 0.0562682 1.41595e-19)
(0.850504 0.0514935 -3.51022e-19)
(0.840004 0.0482098 2.83546e-22)
(0.828812 0.0440683 3.32825e-19)
(0.817811 0.0391367 -9.40802e-20)
(0.808131 0.0344933 -2.28806e-19)
(0.799679 0.0304003 4.02275e-20)
(0.791983 0.0265527 8.53904e-20)
(0.784952 0.0228021 -1.04567e-19)
(0.778714 0.0191981 1.65941e-19)
(0.773319 0.0157645 9.0939e-20)
(0.768732 0.0124535 7.82471e-20)
(0.764922 0.00921194 -2.07393e-19)
(0.761865 0.00600278 7.42657e-20)
(0.759559 0.00279708 6.83008e-21)
(0.757971 -0.00044713 -2.68084e-19)
(0.757155 -0.00375652 3.60707e-19)
(0.757079 -0.00717395 -2.84458e-19)
(0.757675 -0.0107353 1.68377e-19)
(0.758872 -0.0144292 -1.90778e-19)
(0.760634 -0.0182616 1.23918e-19)
(0.762941 -0.0222575 -9.97048e-20)
(0.765785 -0.0264301 -1.96016e-20)
(0.769143 -0.0307821 -2.02536e-19)
(0.772978 -0.0353213 4.08986e-20)
(0.777255 -0.0400593 2.80774e-19)
(0.781939 -0.0450003 1.14612e-19)
(0.787001 -0.0501404 -2.77369e-19)
(0.792405 -0.0554714 1.76323e-19)
(0.798112 -0.0609819 -1.35598e-19)
(0.804086 -0.0666562 1.6828e-19)
(0.810286 -0.0724737 -1.5511e-19)
(1.07036 0.0784234 6.49321e-21)
(1.05833 0.0733395 1.98301e-19)
(1.04759 0.0693694 1.73406e-19)
(1.03552 0.0634983 -4.92326e-19)
(1.02376 0.0570108 1.70967e-19)
(1.01345 0.0512097 1.93458e-19)
(1.00419 0.0459058 4.33426e-20)
(0.995461 0.0406751 1.31838e-19)
(0.987263 0.0355183 -3.05719e-19)
(0.979742 0.0305617 -1.72355e-19)
(0.972934 0.0258154 3.48813e-19)
(0.966814 0.0212309 -1.35173e-19)
(0.961379 0.0167768 -3.33484e-19)
(0.956626 0.0124333 4.39628e-19)
(0.952551 0.00816592 -2.53265e-19)
(0.94912 0.0039333 1.08723e-19)
(0.946303 -0.000332312 2.62395e-19)
(0.944079 -0.00466069 -2.91086e-19)
(0.942551 -0.00904328 -3.59027e-19)
(0.94171 -0.0134848 1.63406e-20)
(0.941441 -0.0180109 3.96862e-19)
(0.941689 -0.022661 3.10124e-19)
(0.942446 -0.0274348 -3.09218e-19)
(0.943692 -0.0323246 -3.15258e-19)
(0.945385 -0.0373423 1.80135e-19)
(0.947479 -0.0425044 2.06326e-19)
(0.949942 -0.0478163 9.8348e-20)
(0.952738 -0.0532747 -1.90765e-19)
(0.955829 -0.0588738 2.17325e-19)
(0.95917 -0.0646045 -4.29761e-19)
(0.962717 -0.0704531 1.06436e-19)
(0.966427 -0.0764008 -1.46593e-19)
(1.19603 0.0972359 -3.35509e-19)
(1.18988 0.0937028 4.86576e-19)
(1.1827 0.0891277 -6.16189e-20)
(1.17378 0.082364 -2.60442e-19)
(1.16529 0.0756599 3.86603e-19)
(1.15786 0.0696495 -5.01946e-19)
(1.15094 0.0638116 -1.59338e-19)
(1.14418 0.0579167 -1.3902e-19)
(1.13767 0.0520792 4.00418e-19)
(1.13151 0.046371 -2.49129e-19)
(1.1257 0.0407723 3.36915e-19)
(1.12026 0.0352671 1.5241e-19)
(1.1152 0.0298586 -2.09584e-19)
(1.11055 0.0245445 -3.86546e-19)
(1.10631 0.0193093 4.54467e-19)
(1.10249 0.0141427 9.8924e-20)
(1.09909 0.00903274 -9.82661e-20)
(1.09609 0.00398368 -1.94274e-19)
(1.09352 -0.00104336 3.82287e-19)
(1.09141 -0.00608921 -4.54904e-19)
(1.08973 -0.0112377 4.84587e-19)
(1.08843 -0.0165308 -1.20921e-19)
(1.08751 -0.0219224 -3.46944e-19)
(1.08695 -0.0273914 -9.32881e-20)
(1.08671 -0.0329516 5.16676e-19)
(1.08674 -0.0386165 3.74605e-20)
(1.08702 -0.0443873 -2.47962e-19)
(1.08753 -0.0502599 3.99142e-20)
(1.08823 -0.0562296 -3.05747e-19)
(1.08908 -0.0622891 -4.37489e-21)
(1.09004 -0.0684265 2.75087e-19)
(1.09108 -0.0746253 4.96689e-20)
(1.09215 -0.0808648 -2.13174e-19)
(1.2692 0.118768 0)
(1.26967 0.1113 0)
(1.26546 0.104482 0)
(1.25958 0.0977621 0)
(1.25412 0.091069 0)
(1.24947 0.0843286 0)
(1.24528 0.0776214 0)
(1.24124 0.0710792 0)
(1.23725 0.0647391 0)
(1.23332 0.0585592 0)
(1.22948 0.0524996 0)
(1.22578 0.0465423 0)
(1.22224 0.0406836 0)
(1.21886 0.0349147 0)
(1.21568 0.0292301 0)
(1.21267 0.0236126 0)
(1.20985 0.0180534 0)
(1.20719 0.0125241 0)
(1.20467 0.00702404 0)
(1.20223 0.00153846 0)
(1.1999 -0.00396504 0)
(1.19781 -0.00946505 0)
(1.19599 -0.0149716 0)
(1.19439 -0.0205092 0)
(1.19295 -0.0260913 0)
(1.19162 -0.0317186 0)
(1.19037 -0.0373878 0)
(1.1892 -0.0430956 0)
(1.18807 -0.0488377 0)
(1.18697 -0.0546067 2.42532e-27)
(1.18585 -0.0603923 -2.42536e-27)
(1.1847 -0.0661813 0)
(1.18349 -0.0719578 0)
(1.26987 0.121227 0)
(1.27679 0.113073 0)
(1.27842 0.105792 0)
(1.27721 0.0990598 0)
(1.27563 0.0925085 0)
(1.27461 0.08599 0)
(1.27403 0.0795346 0)
(1.27352 0.0732069 0)
(1.27283 0.0670204 0)
(1.27193 0.060948 0)
(1.27086 0.0549578 0)
(1.26969 0.0490283 0)
(1.26845 0.0431483 0)
(1.26717 0.0373077 0)
(1.26583 0.0314976 0)
(1.26443 0.0257049 0)
(1.26299 0.0199217 0)
(1.2615 0.0141439 0)
(1.25999 0.00838397 0)
(1.25851 0.00265885 0)
(1.25711 -0.00299488 0)
(1.25573 -0.00861337 0)
(1.25429 -0.0142336 0)
(1.25279 -0.0198785 0)
(1.25123 -0.0255589 0)
(1.24961 -0.0312742 0)
(1.24794 -0.0370185 0)
(1.24619 -0.0427859 0)
(1.24434 -0.0485703 0)
(1.24239 -0.0543629 7.21654e-27)
(1.24032 -0.0601521 -7.21654e-27)
(1.2381 -0.0659232 0)
(1.23574 -0.0716598 0)
(1.26062 0.117905 0)
(1.2689 0.110561 0)
(1.27236 0.103489 0)
(1.27291 0.0968564 0)
(1.27286 0.0905386 0)
(1.27327 0.0843909 0)
(1.27413 0.0783422 0)
(1.27511 0.0723803 0)
(1.27591 0.0665068 0)
(1.27647 0.0607152 0)
(1.27681 0.0549916 0)
(1.27699 0.0493217 0)
(1.27705 0.0436948 0)
(1.277 0.0381044 0)
(1.27683 0.0325455 0)
(1.27655 0.0270172 0)
(1.27617 0.0215188 0)
(1.27569 0.0160547 0)
(1.27513 0.0106199 0)
(1.27448 0.00520637 0)
(1.27367 -0.000220719 0)
(1.27271 -0.00568284 0)
(1.27165 -0.0111743 0)
(1.27047 -0.0166857 0)
(1.26918 -0.02221 0)
(1.26775 -0.0277427 0)
(1.26617 -0.033279 0)
(1.26444 -0.038813 0)
(1.26255 -0.0443365 0)
(1.26048 -0.0498396 2.19089e-27)
(1.25824 -0.0553105 -2.19089e-27)
(1.2558 -0.0607356 0)
(1.25316 -0.0661 0)
(1.24901 0.113583 0)
(1.25717 0.10691 0)
(1.26129 0.100243 0)
(1.26275 0.093879 0)
(1.2635 0.087824 0)
(1.26453 0.0819709 0)
(1.26593 0.0762258 0)
(1.26743 0.0705473 0)
(1.26878 0.0649298 0)
(1.26989 0.0593759 0)
(1.27078 0.0538831 0)
(1.2715 0.0484437 0)
(1.2721 0.0430485 0)
(1.27256 0.0376904 0)
(1.27291 0.0323641 0)
(1.27312 0.0270659 0)
(1.2732 0.0217892 0)
(1.27315 0.0165262 0)
(1.27295 0.0112628 0)
(1.2726 0.00599324 0)
(1.27212 0.000709964 0)
(1.27151 -0.00455869 0)
(1.27075 -0.00981304 0)
(1.26983 -0.0150611 0)
(1.26874 -0.0203039 0)
(1.26749 -0.0255391 0)
(1.26607 -0.0307631 0)
(1.26447 -0.0359703 0)
(1.26268 -0.0411533 0)
(1.26069 -0.046303 0)
(1.25851 -0.0514094 0)
(1.25612 -0.0564611 0)
(1.25353 -0.0614455 0)
(1.23679 0.108192 0)
(1.24464 0.102142 0)
(1.24903 0.0960108 0)
(1.25104 0.0900617 0)
(1.25231 0.0843491 0)
(1.25372 0.0788106 0)
(1.25539 0.0733701 0)
(1.25712 0.0679853 0)
(1.2587 0.0626467 0)
(1.26005 0.0573583 0)
(1.26119 0.052122 0)
(1.26215 0.0469342 0)
(1.26296 0.041788 0)
(1.26364 0.0366763 0)
(1.26419 0.0315931 0)
(1.2646 0.0265331 0)
(1.26486 0.0214915 0)
(1.26498 0.0164631 0)
(1.26494 0.0114477 0)
(1.26476 0.00644432 0)
(1.26444 0.00146028 0)
(1.26397 -0.00351538 0)
(1.26334 -0.00848336 0)
(1.26254 -0.0134395 0)
(1.26158 -0.018381 0)
(1.26044 -0.0233051 0)
(1.25912 -0.0282082 0)
(1.25763 -0.0330846 0)
(1.25594 -0.0379273 0)
(1.25407 -0.0427284 0)
(1.252 -0.0474789 0)
(1.24973 -0.052169 0)
(1.24726 -0.0567876 0)
(1.22531 0.102195 0)
(1.23276 0.0967702 0)
(1.23721 0.0912033 0)
(1.23953 0.0857275 0)
(1.24113 0.0804138 0)
(1.24278 0.0752309 0)
(1.24461 0.0701252 0)
(1.24646 0.0650627 0)
(1.24816 0.0600339 0)
(1.24963 0.0550417 0)
(1.25089 0.0500894 0)
(1.25197 0.045176 0)
(1.2529 0.0402973 0)
(1.25368 0.0354481 0)
(1.25432 0.0306237 0)
(1.25482 0.0258209 0)
(1.25517 0.0210377 0)
(1.25536 0.0162729 0)
(1.25541 0.0115266 0)
(1.25531 0.00679832 0)
(1.25506 0.00208692 0)
(1.25466 -0.00261056 0)
(1.2541 -0.00729357 0)
(1.25337 -0.0119592 0)
(1.25248 -0.0166039 0)
(1.25142 -0.0212239 0)
(1.25019 -0.0258148 0)
(1.24878 -0.0303715 0)
(1.2472 -0.0348877 0)
(1.24543 -0.0393565 0)
(1.24348 -0.0437699 0)
(1.24134 -0.0481192 0)
(1.23902 -0.0523952 0)
(1.21502 0.0961474 0)
(1.22196 0.0912796 0)
(1.22631 0.0862327 0)
(1.2288 0.0812195 0)
(1.2306 0.0763133 0)
(1.2324 0.0714984 6.64767e-28)
(1.23433 0.0667371 -6.64767e-28)
(1.23624 0.0620037 0)
(1.238 0.0572912 0)
(1.23954 0.0526025 0)
(1.24087 0.0479415 0)
(1.24202 0.0433093 0)
(1.24301 0.0387042 0)
(1.24385 0.0341233 0)
(1.24455 0.0295644 0)
(1.24509 0.0250258 0)
(1.24549 0.0205068 0)
(1.24574 0.0160072 0)
(1.24584 0.0115266 0)
(1.24578 0.00706437 0)
(1.24558 0.00262032 0)
(1.24522 -0.00180509 0)
(1.24471 -0.00621008 0)
(1.24404 -0.010592 0)
(1.24321 -0.0149476 0)
(1.24222 -0.019273 0)
(1.24106 -0.023564 0)
(1.23974 -0.0278158 0)
(1.23824 -0.0320229 0)
(1.23658 -0.0361792 0)
(1.23475 -0.0402776 0)
(1.23274 -0.0443107 0)
(1.23056 -0.0482705 0)
(1.20573 0.0901625 0)
(1.21214 0.0857805 0)
(1.21635 0.0812104 0)
(1.21891 0.0766368 0)
(1.22085 0.0721286 0)
(1.22274 0.0676791 -1.06861e-27)
(1.22472 0.0632609 1.06861e-27)
(1.22666 0.0588555 0)
(1.22845 0.0544586 0)
(1.23002 0.050074 0)
(1.23139 0.0457064 0)
(1.23258 0.0413586 0)
(1.23361 0.0370308 0)
(1.2345 0.032722 0)
(1.23523 0.0284316 0)
(1.23581 0.0241592 0)
(1.23624 0.0199048 0)
(1.23653 0.0156687 0)
(1.23666 0.0114511 0)
(1.23665 0.00725273 0)
(1.23648 0.00307458 0)
(1.23617 -0.00108175 0)
(1.2357 -0.00521391 0)
(1.23508 -0.00931941 0)
(1.23431 -0.0133953 0)
(1.23338 -0.0174381 0)
(1.2323 -0.0214436 0)
(1.23105 -0.0254074 0)
(1.22965 -0.0293245 0)
(1.22809 -0.0331892 5.41708e-27)
(1.22637 -0.0369954 -5.41708e-27)