/*--------------------------------*- C++ -*----------------------------------*\
  =========                 |
  \\      /  F ield         | OpenFOAM: The Open Source CFD Toolbox
   \\    /   O peration     | Website:  https://openfoam.org
    \\  /    A nd           | Version:  7
     \\/     M anipulation  |
\*---------------------------------------------------------------------------*/
FoamFile
{
    version     2.0;
    format      ascii;
    class       surfaceScalarField;
    location    "45";
    object      phi;
}
// * * * * * * * * * * * * * * * * * * * * * * * * * * * * * * * * * * * * * //

dimensions      [0 3 -1 0 0 0 0];

internalField   nonuniform List<scalar> 
7248
(
-1.62687e-05
1.62585e-05
-5.2896e-05
3.66012e-05
-0.000103662
5.07263e-05
-0.000164259
6.05481e-05
-0.000231959
6.76397e-05
-0.000305109
7.30815e-05
-0.000382734
7.75456e-05
-0.000464196
8.13694e-05
-0.000548941
8.46395e-05
-0.000636352
8.729e-05
-0.000725731
8.92402e-05
-0.000816426
9.054e-05
-0.00090824
9.16436e-05
-0.00100234
9.39196e-05
9.7876e-05
-0.00110041
-1.59677e-05
3.22262e-05
-5.19776e-05
7.26111e-05
-0.000101887
0.000100636
-0.000161407
0.000120068
-0.000227784
0.000134016
-0.000299322
0.000144619
-0.000374988
0.000153212
-0.000454082
0.000160463
-0.000535981
0.000166539
-0.00061998
0.000171289
-0.000705249
0.000174509
-0.000790919
0.00017621
-0.000876353
0.000177077
-0.000962691
0.000180258
0.000184938
-0.00104975
-1.53792e-05
4.76054e-05
-5.0176e-05
0.000107408
-9.83973e-05
0.000148857
-0.000155784
0.000177455
-0.000219536
0.000197768
-0.000287867
0.000212951
-0.000359631
0.000224976
-0.000433998
0.00023483
-0.000510205
0.000242747
-0.000587374
0.000248457
-0.000664427
0.000251563
-0.000740109
0.000251892
-0.000812828
0.000249796
-0.000883956
0.000251386
0.000250071
-0.000949088
-1.45303e-05
6.21357e-05
-4.7562e-05
0.00014044
-9.33097e-05
0.000194605
-0.000147554
0.0002317
-0.000207422
0.000257636
-0.000270992
0.00027652
-0.000336939
0.000290923
-0.000404235
0.000302126
-0.000471904
0.000310415
-0.000538805
0.000315359
-0.000603515
0.000316272
-0.000664337
0.000312714
-0.000718026
0.000303485
-0.000767019
0.000300379
0.000282625
-0.000799573
-1.34597e-05
7.55954e-05
-4.42374e-05
0.000171217
-8.67952e-05
0.000237163
-0.000136955
0.00028186
-0.000191744
0.000312424
-0.000249051
0.000333828
-0.000307313
0.000349184
-0.00036522
0.000360034
-0.000421491
0.000366685
-0.000474636
0.000368504
-0.00052277
0.000364406
-0.000563893
0.000353837
-0.000592132
0.000331724
-0.000612482
0.000320729
0.000272629
-0.000602486
-1.22164e-05
8.78118e-05
-4.03311e-05
0.000199332
-7.90704e-05
0.000275902
-0.000124289
0.000327079
-0.000172883
0.000361017
-0.000222501
0.000383446
-0.000271264
0.000397947
-0.000317489
0.000406259
-0.000359476
0.000408672
-0.000395275
0.000404304
-0.00042236
0.000391491
-0.000438807
0.000370284
-0.000434907
0.000327824
-0.000419752
0.000305574
0.000211797
-0.00035892
-1.08567e-05
9.86685e-05
-3.59923e-05
0.000224467
-7.03874e-05
0.000310297
-0.00010991
0.000366602
-0.000151286
0.000402393
-0.000191871
0.000424031
-0.000229383
0.000435459
-0.000261654
0.00043853
-0.000286422
0.000433441
-0.000301132
0.000419014
-0.000302265
0.000392623
-0.000288497
0.000356516
-0.000245756
0.000285083
-0.00018509
0.000244908
9.85043e-05
-7.17974e-05
-9.44141e-06
0.00010811
-3.13828e-05
0.000246409
-6.10201e-05
0.000339934
-9.42006e-05
0.000399782
-0.000127438
0.00043563
-0.000157724
0.000454318
-0.000182287
0.000460021
-0.000198335
0.000454579
-0.000202859
0.000437964
-0.00019255
0.000408705
-0.000162338
0.00036241
-0.000110763
0.000304942
-2.62375e-05
0.000200558
9.50686e-05
0.000123602
-8.41905e-05
0.000277763
-8.03255e-06
0.000116142
-2.66674e-05
0.000265044
-5.12475e-05
0.000364515
-7.75488e-05
0.000426084
-0.000101818
0.000459899
-0.00012061
0.00047311
-0.000130545
0.000469956
-0.000128053
0.000452087
-0.000109121
0.000419032
-6.94517e-05
0.000369036
-4.07719e-06
0.000297036
9.54427e-05
0.000205422
0.00023959
5.64098e-05
0.000417521
-5.43287e-05
-0.000356828
0.000690158
-6.68911e-06
0.000122832
-2.20025e-05
0.000280357
-4.13325e-05
0.000383845
-6.03144e-05
0.000445066
-7.48571e-05
0.000474442
-8.0982e-05
0.000479235
-7.45642e-05
0.000463538
-5.1066e-05
0.000428589
-5.30103e-06
0.000373267
6.89347e-05
0.0002948
0.000179265
0.000186705
0.000330491
5.4197e-05
0.000545196
-0.000158296
0.000799441
-0.000308573
-0.000731052
0.00117366
-5.46307e-06
0.000128295
-1.75241e-05
0.000292418
-3.14988e-05
0.000397819
-4.27895e-05
0.000456356
-4.68727e-05
0.000478525
-3.91102e-05
0.000471472
-1.44562e-05
0.000438884
3.28561e-05
0.000381277
0.000109651
0.000296473
0.000223654
0.000180797
0.000384958
2.54013e-05
0.000600897
-0.000161743
0.000895683
-0.000453082
0.00124381
-0.000656698
-0.00122169
0.00173445
-4.3951e-06
0.00013269
-1.33342e-05
0.000301357
-2.19048e-05
0.00040639
-2.51544e-05
0.000459606
-1.79988e-05
0.000471369
5.02873e-06
0.000448445
5.01344e-05
0.000393778
0.000124594
0.000306817
0.000237136
0.000183931
0.000397831
2.01021e-05
0.000618198
-0.000194966
0.000910831
-0.000454376
0.00129511
-0.000837364
0.00175182
-0.0011134
-0.00183757
0.0023677
-3.51045e-06
0.0001362
-9.48816e-06
0.000307335
-1.26161e-05
0.000409518
-7.42926e-06
0.000454419
1.18897e-05
0.000452051
5.18735e-05
0.000408461
0.00012018
0.000325472
0.000225961
0.000201036
0.000380158
2.97335e-05
0.000595596
-0.000195335
0.000884243
-0.000483613
0.00126467
-0.000834806
0.0017457
-0.00131839
0.00231905
-0.00168675
-0.00257083
0.0030523
-2.81526e-06
0.000139015
-5.98146e-06
0.000310501
-3.57866e-06
0.000407115
1.05662e-05
0.000440274
4.32472e-05
0.00041937
0.000102362
0.000349346
0.000197396
0.000230437
0.000339752
5.86806e-05
0.000542747
-0.000173262
0.000821847
-0.000474436
0.00118863
-0.000850391
0.00166396
-0.00131014
0.0022437
-0.00189814
0.00293056
-0.00237361
-0.00338959
0.00374932
-2.29394e-06
0.000141309
-2.73572e-06
0.000310943
5.3933e-06
0.000398986
2.9254e-05
0.000416414
7.69122e-05
0.000371711
0.000158007
0.000268251
0.00028426
0.000104185
0.000469609
-0.000126669
0.000729572
-0.000433225
0.0010809
-0.00082576
0.00153417
-0.00130366
0.00210412
-0.00188009
0.00277432
-0.00256834
0.00355517
-0.00315446
-0.00424153
0.00440711
-1.90965e-06
0.000143219
4.25495e-07
0.000308608
1.46382e-05
0.000384773
4.93163e-05
0.000381735
0.000114126
0.000306901
0.000220878
0.0001615
0.000383874
-5.88112e-05
0.000619554
-0.000362349
0.000944809
-0.00075848
0.00137461
-0.00125556
0.00191685
-0.0018459
0.00257086
-0.0025341
0.0033094
-0.00330688
0.00414496
-0.00399001
-0.00506874
0.00497216
-1.61304e-06
0.000144832
3.54346e-06
0.000303451
2.46364e-05
0.00036368
7.16881e-05
0.000334684
0.000156501
0.000222088
0.000293475
2.4526e-05
0.000499609
-0.000264946
0.000793132
-0.000655872
0.00119033
-0.00115567
0.00170002
-0.00176525
0.00232296
-0.00246884
0.0030382
-0.00324934
0.00381021
-0.00407889
0.00464578
-0.00482558
-0.00582459
0.00540163
-1.31623e-06
0.000146148
7.08873e-06
0.000295046
3.60215e-05
0.000334748
9.75176e-05
0.000273188
0.000205913
0.000113693
0.000378467
-0.000148028
0.000634484
-0.000520963
0.000992191
-0.00101358
0.00146364
-0.00162712
0.00204684
-0.00234846
0.00272925
-0.00315125
0.00347164
-0.00399174
0.00423539
-0.00484264
0.00501556
-0.00560576
-0.00648392
0.0056749
-8.83628e-07
0.000147032
1.13446e-05
0.000282818
4.95117e-05
0.000296581
0.00012809
0.000194609
0.000264331
-2.25478e-05
0.000478278
-0.000361975
0.000790295
-0.00083298
0.00121542
-0.0014387
0.00175638
-0.00216809
0.00239662
-0.0029887
0.00310659
-0.00386121
0.00383709
-0.00472224
0.00455256
-0.00555811
0.00523778
-0.00629097
-0.00704251
0.00579637
-1.50569e-07
0.000147182
1.66698e-05
0.000265998
6.58716e-05
0.000247379
0.000164715
9.57661e-05
0.000333553
-0.000191386
0.000594538
-0.00062296
0.000966605
-0.00120505
0.00145702
-0.00192912
0.00205406
-0.00276512
0.00272517
-0.00365981
0.00342655
-0.00456259
0.00411055
-0.00540624
0.00474843
-0.00619599
0.00532003
-0.00686257
-0.00751669
0.00579421
8.04302e-07
0.000146378
2.3415e-05
0.000243387
8.58537e-05
0.00018494
0.000208584
-2.69642e-05
0.000414904
-0.000397706
0.000727457
-0.000935513
0.00115983
-0.00163742
0.00170631
-0.0024756
0.00233771
-0.00339653
0.00300826
-0.00433036
0.00366871
-0.00522304
0.0042829
-0.00602043
0.00483149
-0.00674458
0.00530361
-0.00733468
-0.00793516
0.00572207
2.19443e-06
0.000144184
3.19266e-05
0.000213655
0.00011013
0.000106736
0.000260625
-0.000177459
0.000508892
-0.000645973
0.00087521
-0.00130183
0.00136276
-0.00212497
0.00194869
-0.00306153
0.00258766
-0.00403549
0.00322773
-0.00497043
0.00382507
-0.00582038
0.004359
-0.00655435
0.00481938
-0.00720497
0.00522555
-0.00774085
-0.0082982
0.0055886
4.12228e-06
0.000140061
4.25012e-05
0.000175276
0.000139233
1.00044e-05
0.000321342
-0.000359568
0.000614863
-0.000939494
0.00103352
-0.00172049
0.00156499
-0.00265644
0.00216833
-0.00366486
0.00278803
-0.0046552
0.00337523
-0.00555762
0.00389913
-0.00634429
0.00435357
-0.00700879
0.00474322
-0.00759461
0.0050909
-0.00808853
-0.00861046
0.00540315
6.65442e-06
0.000133407
5.53629e-05
0.000126567
0.000173496
-0.000108128
0.000390665
-0.000576737
0.00073071
-0.00127954
0.00119568
-0.00218546
0.00175443
-0.00321519
0.00235144
-0.00426188
0.00292999
-0.00523375
0.00345194
-0.00607957
0.00390195
-0.0067943
0.00428672
-0.00739357
0.00461862
-0.00792651
0.00492126
-0.00839118
-0.0088946
0.00520541
9.8445e-06
0.000123563
7.06584e-05
6.57535e-05
0.000213005
-0.000250475
0.000467802
-0.000831534
0.000852726
-0.00166446
0.00135319
-0.00268592
0.0019195
-0.00378149
0.00248897
-0.00483135
0.0030122
-0.00575697
0.00346563
-0.00653301
0.00384816
-0.00717682
0.0041748
-0.00772021
0.00446169
-0.0082134
0.00473142
-0.0086609
-0.00915283
0.00498964
1.37288e-05
0.000109834
8.84501e-05
-8.96774e-06
0.000257562
-0.000419588
0.000551118
-0.00112509
0.000975747
-0.00208909
0.00149708
-0.00320726
0.00205137
-0.00433578
0.00257754
-0.00535753
0.00303913
-0.00621855
0.00342731
-0.0069212
0.00375166
-0.00750117
0.00403157
-0.00800012
0.00428366
-0.0084655
0.00452686
-0.0089041
-0.00939057
0.0047646
1.8327e-05
9.15068e-05
0.000108709
-9.93502e-05
0.000306628
-0.000617507
0.00063808
-0.00145654
0.00109367
-0.00254469
0.00161944
-0.00373303
0.00214513
-0.00486147
0.00261867
-0.00583107
0.00301854
-0.00661842
0.00334831
-0.00725096
0.00362433
-0.00777719
0.00386709
-0.00824287
0.00409155
-0.00868996
0.00431317
-0.00912572
-0.00961
0.0045326
2.36428e-05
6.7864e-05
0.00013131
-0.000207018
0.000359277
-0.000845473
0.000725334
-0.0018226
0.00120032
-0.00301967
0.00171462
-0.00424732
0.00219979
-0.00534663
0.00261713
-0.00624841
0.00295927
-0.00696057
0.0032388
-0.00753049
0.00347538
-0.00801378
0.00368835
-0.00845584
0.00389021
-0.00889183
0.00409285
-0.00932836
-0.00981221
0.00429506
2.96644e-05
3.81996e-05
0.000156017
-0.00033337
0.000414156
-0.00110361
0.000808997
-0.00221744
0.00129036
-0.00350103
0.00177977
-0.00473674
0.00221741
-0.00578427
0.00257932
-0.00661033
0.00286981
-0.00725106
0.00310712
-0.00776779
0.00331158
-0.00821824
0.0035001
-0.00864436
0.0036825
-0.00907423
0.00386767
-0.00951353
-0.00999789
0.00405335
3.63621e-05
1.83748e-06
0.000182465
-0.000479473
0.000469502
-0.00139065
0.000885098
-0.00263304
0.00135998
-0.00397592
0.00181462
-0.00519138
0.00220198
-0.00617162
0.00251197
-0.00692031
0.00275755
-0.00749664
0.00295973
-0.00796997
0.0031377
-0.00839621
0.00330542
-0.00881208
0.00347026
-0.00923907
0.00363873
-0.009682
-0.0101671
0.00380792
4.36855e-05
-4.1848e-05
0.000210144
-0.000645932
0.000523231
-0.00170374
0.000950103
-0.00305991
0.00140722
-0.00443304
0.00182086
-0.00560502
0.00215835
-0.00650911
0.00242136
-0.00718333
0.00262856
-0.00770384
0.00280144
-0.00814285
0.00295702
-0.0085518
0.00310632
-0.00896138
0.00325467
-0.00938742
0.00340673
-0.00983406
-0.0103198
0.00355945
5.15634e-05
-9.34114e-05
0.000238385
-0.000832753
0.000573122
-0.00203847
0.00100132
-0.00348811
0.00143178
-0.00486349
0.00180139
-0.00597463
0.00209152
-0.00679924
0.00231299
-0.0074048
0.00248756
-0.00787841
0.0026357
-0.00829098
0.00277176
-0.00868785
0.0029041
-0.00909372
0.0030365
-0.00951982
0.00317225
-0.0099698
-0.0104559
0.00330835
5.98946e-05
-0.000153306
0.000266365
-0.00103922
0.000617044
-0.00238915
0.00103715
-0.00390821
0.00143467
-0.00526102
0.00175973
-0.00629969
0.00200619
-0.0070457
0.0021914
-0.00759002
0.00233818
-0.00802518
0.00246496
-0.00841777
0.0025834
-0.00880629
0.00269965
-0.00920997
0.00281634
-0.00963651
0.00293574
-0.0100892
-0.0105752
0.00305507
6.85479e-05
-0.000221854
0.000293155
-0.00126383
0.000653186
-0.00274918
0.00105701
-0.00431204
0.00141776
-0.00562177
0.0016995
-0.00658143
0.00190649
-0.00725268
0.00206024
-0.00774377
0.00218306
-0.00814801
0.00229093
-0.00852564
0.00239298
-0.00890834
0.0024936
-0.00931059
0.00259465
-0.00973756
0.00269762
-0.0101922
-0.0106777
0.00280003
7.73576e-05
-0.000299212
0.000317787
-0.00150426
0.000680223
-0.00311162
0.00106125
-0.00469307
0.00138343
-0.00594395
0.00162419
-0.00682218
0.00179592
-0.00742442
0.00192232
-0.00787016
0.00202417
-0.00824986
0.00211481
-0.00861628
0.00220121
-0.00899474
0.00228645
-0.00939583
0.00237183
-0.00982293
0.00245829
-0.0102786
-0.010763
0.00254367
8.61226e-05
-0.000385334
0.000339334
-0.00175747
0.000697397
-0.00346968
0.00105085
-0.00504652
0.00133422
-0.00622732
0.00153694
-0.0070249
0.00167739
-0.00756487
0.00177983
-0.00797261
0.00186291
-0.00833294
0.00193746
-0.00869083
0.00200865
-0.00906593
0.0020786
-0.00946579
0.00214826
-0.00989258
0.00221813
-0.0103485
-0.0108313
0.00228641
9.46096e-05
-0.000479944
0.000356985
-0.00201985
0.000704502
-0.0038172
0.00102721
-0.00536923
0.00127262
-0.00647272
0.00144048
-0.00719276
0.00155319
-0.00767758
0.0016344
-0.00805381
0.00170031
-0.00839885
0.00175949
-0.00875001
0.00181572
-0.00912215
0.00187043
-0.0095205
0.0019243
-0.00994646
0.00197753
-0.0104017
-0.0108824
0.00202867
0.000102564
-0.000582508
0.000370106
-0.00228739
0.000701797
-0.00414889
0.000991937
-0.00565937
0.00120098
-0.00668176
0.00133714
-0.00732892
0.00142516
-0.0077656
0.00148725
-0.0081159
0.00153713
-0.00844873
0.00158141
-0.0087943
0.0016228
-0.00916354
0.00166227
-0.00955997
0.00170032
-0.0099845
0.0017369
-0.0104383
-0.0109165
0.00177092
0.000109726
-0.000692233
0.000378272
-0.00255594
0.000689886
-0.0044605
0.000946715
-0.0059162
0.00112141
-0.00685646
0.00122884
-0.00743635
0.00129472
-0.00783148
0.00133931
-0.00816049
0.00137393
-0.00848336
0.0014036
-0.00882397
0.00143022
-0.00919016
0.00145445
-0.0095842
0.00147665
-0.0100067
0.00149664
-0.0104583
-0.0109335
0.00151365
0.000115847
-0.00080808
0.000381277
-0.00282137
0.000669597
-0.00474882
0.000893191
-0.00613979
0.00103577
-0.00699904
0.00111716
-0.00751775
0.00116299
-0.00787731
0.00119127
-0.00818876
0.00121116
-0.00850325
0.0012264
-0.00883921
0.00123828
-0.00920204
0.00124727
-0.0095932
0.00125363
-0.0100131
0.00125714
-0.0104618
-0.0109337
0.00125741
0.000120707
-0.000928787
0.000379121
-0.00307978
0.000641885
-0.00501159
0.00083291
-0.00633082
0.000945639
-0.00711176
0.00100337
-0.00757547
0.00103082
-0.00790477
0.00104367
-0.00820161
0.0010492
-0.00850878
0.00105011
-0.00884012
0.00104728
-0.00919921
0.00104102
-0.00958693
0.00103153
-0.0100036
0.00101869
-0.010449
-0.0109174
0.00100231
0.000124123
-0.00105291
0.000371982
-0.00332764
0.000607747
-0.00524735
0.000767277
-0.00649035
0.000852358
-0.00719685
0.000888472
-0.00761159
0.000898876
-0.00791517
0.000896939
-0.00819967
0.000888341
-0.00850018
0.000875003
-0.00882678
0.00085749
-0.0091817
0.000835975
-0.00956542
0.000810635
-0.00997823
0.000781486
-0.0104199
-0.0108841
0.00074819
0.000125957
-0.00117887
0.000360173
-0.00356186
0.000568174
-0.00545535
0.000697543
-0.00661972
0.000757047
-0.00725635
0.000773281
-0.00762782
0.000767665
-0.00790956
0.000751412
-0.00818342
0.000728867
-0.00847763
0.000701357
-0.00879927
0.000669213
-0.00914955
0.000632491
-0.0095287
0.000591301
-0.00993704
0.000545643
-0.0103742
-0.0108338
0.000495401
0.000126123
-0.00130499
0.000344095
-0.00377983
0.000524112
-0.00563537
0.000624804
-0.00672041
0.000660625
-0.00729217
0.000658434
-0.00762563
0.000637599
-0.00788872
0.000607376
-0.00815319
0.000571025
-0.00844128
0.00052942
-0.00875766
0.000482726
-0.00910286
0.000430922
-0.0094769
0.000374048
-0.00988016
0.000311484
-0.0103116
-0.0107663
0.000243974
0.000124593
-0.00142958
0.000324266
-0.0039795
0.000476452
-0.00578756
0.000550002
-0.00679396
0.000563849
-0.00730602
0.000544437
-0.00760622
0.000509003
-0.00785329
0.000465079
-0.00810927
0.000415047
-0.00839125
0.000359443
-0.00870206
0.000298277
-0.00904169
0.000231543
-0.00941016
0.000159213
-0.00980783
8.10797e-05
-0.0102335
-0.010676
-9.25241e-06
0.000121396
-0.00155098
0.000301251
-0.00415936
0.000426012
-0.00591232
0.000473943
-0.00684189
0.000467332
-0.00729941
0.000431689
-0.00757058
0.00038215
-0.00780375
0.000324741
-0.00805186
0.000261137
-0.00832765
0.000191654
-0.00863257
0.000116084
-0.00896612
3.4288e-05
-0.00932837
-5.33144e-05
-0.00972023
-0.000147302
-0.0101395
-0.0105737
-0.000249559
0.000116608
-0.00166759
0.000275549
-0.0043183
0.000373524
-0.00601029
0.000397306
-0.00686567
0.000371569
-0.00727367
0.000320514
-0.00751952
0.000257275
-0.00774051
0.000186543
-0.00798113
0.000109436
-0.00825054
2.60022e-05
-0.00854914
-6.34913e-05
-0.00887663
-0.000159487
-0.00923237
-0.000262131
-0.00961759
-0.000372798
-0.0100288
-0.0104568
-0.00048971
0.000110345
-0.00177793
0.000247643
-0.00445559
0.000319631
-0.00608228
0.000320663
-0.0068667
0.000276952
-0.00722996
0.000211183
-0.00745375
0.000134553
-0.00766388
5.04754e-05
-0.00789705
-3.98625e-05
-0.0081602
-0.000136451
-0.00845255
-0.000239998
-0.00877308
-0.000350445
-0.00912192
-0.000468238
-0.00949979
-0.000594126
-0.00990295
-0.0103242
-0.000726683
0.000102749
-0.00188068
0.000217995
-0.00457084
0.000264897
-0.00612918
0.000244484
-0.00684629
0.000183805
-0.00716928
0.000103907
-0.00737386
1.36358e-05
-0.00757361
-8.27925e-05
-0.00780062
-0.000186031
-0.00805697
-0.000296218
-0.00834236
-0.000413539
-0.00865576
-0.000538235
-0.00899723
-0.000670834
-0.00936719
-0.000811635
-0.00976215
-0.0101762
-0.000959707
9.39868e-05
-0.00197467
0.00018704
-0.00466389
0.000209817
-0.00615196
0.000169142
-0.00680561
9.23984e-05
-0.00709254
-2.08161e-06
-0.00727938
-0.000103824
-0.00747186
-0.000213252
-0.00769119
-0.000329544
-0.00794067
-0.000452971
-0.00821894
-0.000583833
-0.0085249
-0.000722513
-0.00885855
-0.000869573
-0.00922013
-0.00102512
-0.0096066
-0.0100129
-0.0011884
8.42333e-05
-0.0020589
0.000155186
-0.00473485
0.000154823
-0.0061516
9.49356e-05
-0.00674573
2.11108e-06
-0.00699971
-0.000103759
-0.00717351
-0.000218902
-0.00735672
-0.000340982
-0.00756911
-0.000470068
-0.00781159
-0.000606493
-0.00808251
-0.000750649
-0.00838074
-0.000903019
-0.00870618
-0.00106422
-0.00905894
-0.0012343
-0.00943652
-0.00983477
-0.00141243
7.36653e-05
-0.00213257
0.000122813
-0.00478399
0.000100262
-0.00612905
2.23708e-05
-0.00666784
-8.40701e-05
-0.00689327
-0.00020376
-0.00705382
-0.000331296
-0.00722919
-0.000465785
-0.00743462
-0.00060742
-0.00766995
-0.000756603
-0.00793333
-0.000913783
-0.00822356
-0.00107952
-0.00854044
-0.00125453
-0.00888393
-0.00143887
-0.00925219
-0.00964215
-0.00163148
6.24636e-05
-0.00219503
9.0264e-05
-0.00481179
4.64935e-05
-0.00608528
-4.84796e-05
-0.00657286
-0.000168912
-0.00677284
-0.000301169
-0.00692156
-0.000440851
-0.00708951
-0.000587503
-0.00728797
-0.000741448
-0.00751601
-0.000903133
-0.00777165
-0.00107305
-0.00805365
-0.00125183
-0.00836165
-0.00144032
-0.00869544
-0.00163858
-0.00905392
-0.00943553
-0.0018452
5.08354e-05
-0.00224587
5.78698e-05
-0.00481883
-5.86158e-06
-0.00602154
-0.000117479
-0.00646124
-0.000251432
-0.00663889
-0.00039586
-0.00677713
-0.000547435
-0.00693793
-0.00070601
-0.0071294
-0.000872009
-0.00735001
-0.00104592
-0.00759773
-0.00122827
-0.0078713
-0.00141976
-0.00817016
-0.00162135
-0.00849384
-0.00183313
-0.00884214
-0.00921561
-0.00205306
3.89992e-05
-0.00228486
2.62569e-05
-0.00480609
-5.80781e-05
-0.00593721
-0.000184673
-0.00633465
-0.000331472
-0.00649209
-0.000487742
-0.00662086
-0.000650943
-0.00677473
-0.000821181
-0.00695916
-0.000998966
-0.00717222
-0.00118482
-0.00741188
-0.00137929
-0.00767683
-0.00158314
-0.00796632
-0.00179745
-0.00827953
-0.00202222
-0.00861737
-0.00898305
-0.00225478
2.69767e-05
-0.00231184
-3.15358e-06
-0.00477596
-0.000107919
-0.00583244
-0.000249821
-0.00619275
-0.000408969
-0.00633294
-0.000576728
-0.0064531
-0.000751274
-0.00660018
-0.000932903
-0.00677753
-0.00112219
-0.00698294
-0.00131969
-0.00721438
-0.00152596
-0.00747056
-0.00174181
-0.00775047
-0.00196843
-0.00805292
-0.00220575
-0.00838004
-0.00873794
-0.00245086
1.44731e-05
-0.00232631
-3.826e-05
-0.00472322
-0.000157044
-0.00571366
-0.000312761
-0.00603703
-0.000483823
-0.00616188
-0.000662738
-0.00627419
-0.000848333
-0.00641459
-0.00104106
-0.0065848
-0.00124156
-0.00678244
-0.0014504
-0.00700554
-0.00166816
-0.00725281
-0.00189567
-0.00752295
-0.00213419
-0.00781439
-0.00238394
-0.0081303
-0.00848046
-0.00264143
2.23613e-06
-0.00232855
-7.00154e-05
-0.00465097
-0.000204709
-0.00557897
-0.000373426
-0.00586831
-0.000555938
-0.00597936
-0.000745692
-0.00608444
-0.00094203
-0.00621825
-0.00114556
-0.00638127
-0.00135695
-0.00657104
-0.00157684
-0.00678565
-0.00180582
-0.00702383
-0.00204474
-0.00728402
-0.00229469
-0.00756444
-0.00255596
-0.00786903
-0.0082122
-0.00282422
-1.0633e-05
-0.00231792
-0.000100434
-0.00456117
-0.000250627
-0.00542877
-0.000431767
-0.00568717
-0.00062526
-0.00578587
-0.000825513
-0.00588418
-0.00103227
-0.00601149
-0.00124627
-0.00616727
-0.00146825
-0.00634907
-0.00169887
-0.00655503
-0.00193886
-0.00678383
-0.00218913
-0.00703375
-0.00245014
-0.00730343
-0.00271995
-0.00759922
-0.00793231
-0.00299984
-2.30498e-05
-0.00229487
-0.000129721
-0.0044545
-0.00029468
-0.00526381
-0.000487701
-0.00549415
-0.000691735
-0.00558184
-0.000902135
-0.00567378
-0.00111898
-0.00579464
-0.00134311
-0.00594315
-0.0015753
-0.00611687
-0.00181634
-0.006314
-0.00206708
-0.00653309
-0.00232849
-0.00677234
-0.00260099
-0.00703094
-0.00288543
-0.00731478
-0.00765813
-0.00315961
-3.50557e-05
-0.00225981
-0.000157876
-0.00433168
-0.000336818
-0.00508487
-0.000541167
-0.0052898
-0.000755314
-0.00536769
-0.000975494
-0.0054536
-0.00120207
-0.00556807
-0.00143596
-0.00570926
-0.00167802
-0.00587481
-0.00192909
-0.00606293
-0.00219015
-0.00627203
-0.00246204
-0.00650046
-0.00274395
-0.00674902
-0.00303405
-0.00702468
-0.00732265
-0.00336953
-4.66604e-05
-0.00221315
-0.00018486
-0.00419348
-0.000377001
-0.00489273
-0.00059212
-0.00507468
-0.000815952
-0.00514386
-0.00104553
-0.00522402
-0.00128146
-0.00533214
-0.00152473
-0.00546599
-0.00177628
-0.00562326
-0.00203702
-0.00580218
-0.00230788
-0.00600117
-0.00258915
-0.00621918
-0.00288022
-0.00645795
-0.00318519
-0.00671971
-0.00699047
-0.00351738
-5.78272e-05
-0.00215532
-0.000210624
-0.00404068
-0.000415197
-0.00468816
-0.000640524
-0.00484936
-0.000873608
-0.00491078
-0.00111219
-0.00498544
-0.00135707
-0.00508726
-0.00160934
-0.00521372
-0.00186998
-0.00536262
-0.00213998
-0.00553218
-0.00242025
-0.0057209
-0.00271125
-0.00592818
-0.00301383
-0.00615538
-0.00333219
-0.00640135
-0.00665508
-0.00366758
-6.85191e-05
-0.00208681
-0.000235122
-0.00387408
-0.000451377
-0.0044719
-0.000686352
-0.00461438
-0.000928244
-0.00466888
-0.00117542
-0.00473827
-0.00142885
-0.00483382
-0.00168969
-0.00495288
-0.00195899
-0.00509333
-0.00223777
-0.0052534
-0.00252688
-0.00543179
-0.00282698
-0.00562808
-0.00313946
-0.00584289
-0.00346727
-0.00607354
-0.00631265
-0.00380969
-7.87441e-05
-0.00200806
-0.000258318
-0.00369451
-0.000485516
-0.00424471
-0.000729581
-0.00437032
-0.000979828
-0.00441864
-0.00123516
-0.00448293
-0.00149672
-0.00457226
-0.00176571
-0.0046839
-0.00204323
-0.0048158
-0.00233035
-0.00496629
-0.00262795
-0.00513418
-0.00293692
-0.00531911
-0.00325875
-0.00552106
-0.00359524
-0.00573705
-0.00596235
-0.00394555
-8.84629e-05
-0.0019196
-0.000280179
-0.00350279
-0.000517593
-0.00400729
-0.000770191
-0.00411772
-0.00102833
-0.0041605
-0.00129139
-0.00421987
-0.00156063
-0.00430302
-0.00183731
-0.00440721
-0.0021226
-0.00453051
-0.00241756
-0.00467133
-0.00272316
-0.00482859
-0.00304039
-0.00500188
-0.00337066
-0.00519078
-0.00371525
-0.00539246
-0.00560389
-0.00407371
-9.76396e-05
-0.00182196
-0.000300677
-0.00329975
-0.000547589
-0.00376038
-0.000808164
-0.00385714
-0.00107371
-0.00389495
-0.00134404
-0.00394955
-0.00162051
-0.00402655
-0.00190444
-0.00412329
-0.00219702
-0.00423793
-0.00249936
-0.00436899
-0.00281248
-0.00451547
-0.00313744
-0.00467692
-0.00347553
-0.00485269
-0.0038278
-0.0050402
-0.0052376
-0.00419409
-0.000106246
-0.00171571
-0.000319787
-0.00308621
-0.00057549
-0.00350468
-0.000843484
-0.00358915
-0.00111596
-0.00362248
-0.00139309
-0.00367242
-0.00167632
-0.00374332
-0.00196702
-0.00383259
-0.00226641
-0.00393854
-0.00257564
-0.00405976
-0.00289577
-0.00419534
-0.00322789
-0.0043448
-0.00357321
-0.00450736
-0.0039327
-0.00468071
-0.00486388
-0.00430643
-0.000114259
-0.00160145
-0.000337488
-0.00286298
-0.000601283
-0.00324088
-0.000876137
-0.0033143
-0.00115505
-0.00334356
-0.0014385
-0.00338897
-0.00172801
-0.0034538
-0.00202499
-0.00353561
-0.0023307
-0.00363283
-0.00264632
-0.00374414
-0.00297294
-0.00386872
-0.00331168
-0.00400606
-0.00366369
-0.00415536
-0.00402989
-0.0043145
-0.00448321
-0.00441056
-0.000121659
-0.00147979
-0.00035376
-0.00263088
-0.000624956
-0.00296969
-0.000906109
-0.00303314
-0.00119095
-0.00305872
-0.00148023
-0.0030997
-0.00177554
-0.00315849
-0.0020783
-0.00323284
-0.00238984
-0.00332129
-0.00271134
-0.00342264
-0.00304393
-0.00353613
-0.00338874
-0.00366126
-0.00374688
-0.00379721
-0.00411929
-0.00394209
-0.00409614
-0.00450636
-0.00012843
-0.00135136
-0.000368591
-0.00239072
-0.000646501
-0.00269178
-0.000933391
-0.00274625
-0.00122365
-0.00276846
-0.00151826
-0.00280509
-0.00181886
-0.0028579
-0.00212692
-0.00292478
-0.00244377
-0.00300444
-0.00277063
-0.00309578
-0.00310867
-0.00319809
-0.00345899
-0.00331094
-0.00382273
-0.00343348
-0.0042008
-0.00356402
-0.00370321
-0.00459373
-0.000134558
-0.00121681
-0.000381968
-0.00214331
-0.000665909
-0.00240783
-0.000957972
-0.00245419
-0.00125313
-0.0024733
-0.00155256
-0.00250567
-0.00185794
-0.00255251
-0.00217078
-0.00261194
-0.00249243
-0.00268279
-0.00282414
-0.00276407
-0.00316708
-0.00285515
-0.00352239
-0.00295563
-0.00389117
-0.00306469
-0.00427435
-0.00318084
-0.00330501
-0.00467256
-0.000140031
-0.00107678
-0.000393879
-0.00188946
-0.000683175
-0.00211854
-0.000979843
-0.00215752
-0.00127937
-0.00217377
-0.0015831
-0.00220194
-0.00189276
-0.00224285
-0.00220986
-0.00229484
-0.0025358
-0.00235685
-0.00287182
-0.00242804
-0.00321913
-0.00250785
-0.00357887
-0.00259589
-0.00395214
-0.00269142
-0.00433986
-0.00279312
-0.0029021
-0.00474277
-0.00014484
-0.000931936
-0.000404318
-0.00162998
-0.000698293
-0.00182456
-0.000998997
-0.00185682
-0.00130237
-0.0018704
-0.00160987
-0.00189444
-0.00192328
-0.00192945
-0.00224413
-0.00197399
-0.00257382
-0.00202716
-0.00291363
-0.00208823
-0.00326477
-0.00215671
-0.00362839
-0.00223227
-0.00400559
-0.00231422
-0.00439728
-0.00240143
-0.00249508
-0.00480429
-0.000148975
-0.00078296
-0.000413277
-0.00136568
-0.000711258
-0.00152658
-0.00101543
-0.00155265
-0.0013221
-0.00156373
-0.00163285
-0.00158368
-0.00194948
-0.00161282
-0.00227355
-0.00164992
-0.00260646
-0.00169425
-0.00294953
-0.00174516
-0.00330395
-0.00180229
-0.0036709
-0.00186532
-0.00405147
-0.00193365
-0.00444656
-0.00200634
-0.00208455
-0.00485708
-0.000152431
-0.000630529
-0.00042075
-0.00109736
-0.000722068
-0.00122527
-0.00102913
-0.00124559
-0.00133855
-0.0012543
-0.00165202
-0.00127021
-0.00197134
-0.0012935
-0.0022981
-0.00132317
-0.00263371
-0.00135864
-0.00297948
-0.00139939
-0.00333665
-0.00144512
-0.00370638
-0.00149559
-0.00408975
-0.00155028
-0.00448766
-0.00160844
-0.00167111
-0.0049011
-0.000155203
-0.000475326
-0.000426734
-0.000825831
-0.000730719
-0.00092128
-0.00104009
-0.000936219
-0.00135173
-0.000942662
-0.00166737
-0.000954567
-0.00198886
-0.000972013
-0.00231776
-0.000994265
-0.00265553
-0.00102087
-0.00300348
-0.00105144
-0.00336284
-0.00108576
-0.00373479
-0.00112364
-0.0041204
-0.00116466
-0.00452056
-0.00120828
-0.00125535
-0.00493632
-0.000157285
-0.000318042
-0.000431225
-0.000551891
-0.000737209
-0.000615296
-0.00104832
-0.000625111
-0.00136162
-0.000629364
-0.0016789
-0.000637287
-0.002002
-0.00064891
-0.00233252
-0.000663742
-0.00267191
-0.000681478
-0.00302149
-0.000701868
-0.0033825
-0.000724756
-0.00375612
-0.000750015
-0.00414341
-0.000777373
-0.00454524
-0.000806452
-0.000837852
-0.00496273
-0.000158674
-0.000159368
-0.00043422
-0.000276345
-0.000741537
-0.000307979
-0.0010538
-0.000312843
-0.00136821
-0.000314958
-0.00168658
-0.000318915
-0.00201077
-0.000324724
-0.00234237
-0.000332139
-0.00268284
-0.000341008
-0.00303351
-0.000351204
-0.00339561
-0.000362651
-0.00377034
-0.000375284
-0.00415875
-0.000388964
-0.0045617
-0.000403503
-0.00041921
-0.00498034
-0.000159369
-0.000435718
-0.000743701
-0.00105655
-0.00137151
-0.00169043
-0.00201515
-0.0023473
-0.00268831
-0.00303952
-0.00340217
-0.00377746
-0.00416642
-0.00456993
-0.00498914
-0.00114636
4.5746e-05
-0.0011808
3.42689e-05
3.0548e-05
-0.00109412
9.01163e-05
-0.00112709
6.72311e-05
5.98477e-05
-0.000990255
0.000131283
-0.00102037
9.73462e-05
8.65045e-05
-0.00083574
0.00016745
-0.000861917
0.000123523
0.000109469
-0.000631503
0.000196467
-0.000653172
0.000145192
0.000128001
-0.000377683
0.00021523
-0.000395191
0.0001627
-0.000409034
0.000141844
0.000118959
-7.07484e-05
0.000214181
-8.87159e-05
0.000180667
-9.75175e-05
0.000150645
0.000126465
0.000281455
0.000210489
0.000269718
0.000192404
0.000262865
0.000157498
0.000131255
0.000690761
0.000209887
0.000681792
0.000201373
0.000674677
0.000164614
0.000136033
0.00116392
0.000219632
0.0011514
0.000213891
0.00113992
0.000176095
0.000144625
0.00170456
0.000249518
0.00168081
0.000237644
0.0016594
0.000197502
0.000162108
0.00230966