/*--------------------------------*- C++ -*----------------------------------*\
  =========                 |
  \\      /  F ield         | OpenFOAM: The Open Source CFD Toolbox
   \\    /   O peration     | Website:  https://openfoam.org
    \\  /    A nd           | Version:  7
     \\/     M anipulation  |
\*---------------------------------------------------------------------------*/
FoamFile
{
    version     2.0;
    format      ascii;
    class       volScalarField;
    location    "35.001";
    object      p;
}
// * * * * * * * * * * * * * * * * * * * * * * * * * * * * * * * * * * * * * //

dimensions      [0 2 -2 0 0 0 0];

internalField   nonuniform List<scalar> 
3700
(
-0.257093
-0.260056
-0.261024
-0.26207
-0.263033
-0.263977
-0.264885
-0.265714
-0.266413
-0.266934
-0.267229
-0.267261
-0.267008
-0.266467
-0.265696
-0.257353
-0.26027
-0.261222
-0.262255
-0.263207
-0.264143
-0.265046
-0.265872
-0.266569
-0.267089
-0.267383
-0.267408
-0.267138
-0.266575
-0.265698
-0.257867
-0.260691
-0.261614
-0.262618
-0.263548
-0.264469
-0.265361
-0.266178
-0.266872
-0.267389
-0.267679
-0.267694
-0.267387
-0.266797
-0.265676
-0.25862
-0.261311
-0.262187
-0.263147
-0.264044
-0.264939
-0.265811
-0.266616
-0.267302
-0.267814
-0.268098
-0.268101
-0.267727
-0.267144
-0.265581
-0.259593
-0.262112
-0.262927
-0.263826
-0.264675
-0.265532
-0.266375
-0.267159
-0.267831
-0.268334
-0.268608
-0.268606
-0.268112
-0.267641
-0.265338
-0.260763
-0.263078
-0.263813
-0.264633
-0.265417
-0.266221
-0.267023
-0.267775
-0.268426
-0.268913
-0.269169
-0.269184
-0.268471
-0.268331
-0.264839
-0.262104
-0.264187
-0.264824
-0.265545
-0.266244
-0.266977
-0.267721
-0.268427
-0.269045
-0.269509
-0.269726
-0.269816
-0.268687
-0.269261
-0.263989
-0.263588
-0.265419
-0.265939
-0.266536
-0.267127
-0.267767
-0.268433
-0.269076
-0.269645
-0.270075
-0.270207
-0.270488
-0.26866
-0.270347
-0.263148
-0.265188
-0.266753
-0.267134
-0.267583
-0.268038
-0.268559
-0.269124
-0.269682
-0.270181
-0.270568
-0.270533
-0.271123
-0.268654
-0.271024
-0.262346
-0.266881
-0.268171
-0.268391
-0.268662
-0.268952
-0.269324
-0.26976
-0.270208
-0.270609
-0.270945
-0.270795
-0.271485
-0.268413
-0.271736
-0.261234
-0.26865
-0.269659
-0.269693
-0.269755
-0.269846
-0.270038
-0.270315
-0.270626
-0.270908
-0.271154
-0.27083
-0.27173
-0.267775
-0.272381
-0.259882
-0.270481
-0.271209
-0.27103
-0.270848
-0.270705
-0.270681
-0.270769
-0.270914
-0.271046
-0.271189
-0.270616
-0.27179
-0.266804
-0.272697
-0.258533
-0.272371
-0.272817
-0.272395
-0.271936
-0.271521
-0.271247
-0.271112
-0.271065
-0.271016
-0.271037
-0.270178
-0.271546
-0.265659
-0.272322
-0.257479
-0.274326
-0.274486
-0.273792
-0.273018
-0.272294
-0.271736
-0.271349
-0.271082
-0.270826
-0.270689
-0.269554
-0.27087
-0.264526
-0.270896
-0.256763
-0.276359
-0.276228
-0.275226
-0.274104
-0.273035
-0.27216
-0.271493
-0.270981
-0.270496
-0.270142
-0.268777
-0.269663
-0.263471
-0.268304
-0.25597
-0.278498
-0.27806
-0.276717
-0.27521
-0.273764
-0.272544
-0.271571
-0.270788
-0.270049
-0.269401
-0.267836
-0.267907
-0.262314
-0.264782
-0.254472
-0.280775
-0.279996
-0.278297
-0.276363
-0.27451
-0.27292
-0.271618
-0.270535
-0.269504
-0.268474
-0.266661
-0.265651
-0.260698
-0.260683
-0.251892
-0.283237
-0.28208
-0.279988
-0.277595
-0.27531
-0.273328
-0.271673
-0.270252
-0.268868
-0.267352
-0.265154
-0.262935
-0.25831
-0.256096
-0.248226
-0.285939
-0.284344
-0.281826
-0.278948
-0.276209
-0.273814
-0.271776
-0.269961
-0.268133
-0.266007
-0.263224
-0.259767
-0.255017
-0.250794
-0.24361
-0.288941
-0.286829
-0.283854
-0.280464
-0.277251
-0.274421
-0.271956
-0.269671
-0.267277
-0.264395
-0.260813
-0.256156
-0.250863
-0.24466
-0.238154
-0.292281
-0.289592
-0.286118
-0.282191
-0.278484
-0.275185
-0.272231
-0.269371
-0.266261
-0.26247
-0.257905
-0.252128
-0.246003
-0.238326
-0.231814
-0.296027
-0.292675
-0.288665
-0.284176
-0.279949
-0.276133
-0.272604
-0.269036
-0.265041
-0.260196
-0.254526
-0.247695
-0.240592
-0.232265
-0.224862
-0.300241
-0.29612
-0.291541
-0.286463
-0.281679
-0.277279
-0.273061
-0.268627
-0.263572
-0.257554
-0.250724
-0.242889
-0.234965
-0.226058
-0.218097
-0.304979
-0.299973
-0.294793
-0.289094
-0.283698
-0.278622
-0.273574
-0.268095
-0.261812
-0.254541
-0.246549
-0.237809
-0.229152
-0.219828
-0.211637
-0.310289
-0.304277
-0.298466
-0.292101
-0.286019
-0.280151
-0.274102
-0.267381
-0.259732
-0.25117
-0.242062
-0.232503
-0.223233
-0.213579
-0.205204
-0.316213
-0.309075
-0.302602
-0.295509
-0.288645
-0.281839
-0.274579
-0.266425
-0.257312
-0.247461
-0.237306
-0.227018
-0.217215
-0.207277
-0.198793
-0.322783
-0.314405
-0.307235
-0.299332
-0.291569
-0.283636
-0.274929
-0.265172
-0.254542
-0.243439
-0.232315
-0.221375
-0.211095
-0.200919
-0.192294
-0.330023
-0.320299
-0.312388
-0.303575
-0.294765
-0.285461
-0.275063
-0.263574
-0.251421
-0.239121
-0.227107
-0.215575
-0.204859
-0.194465
-0.185694
-0.337944
-0.326782
-0.31807
-0.308231
-0.298176
-0.287208
-0.274898
-0.261598
-0.247946
-0.234516
-0.221682
-0.209608
-0.198485
-0.187895
-0.178957
-0.346541
-0.33386
-0.324271
-0.313273
-0.301706
-0.288759
-0.274357
-0.259213
-0.244112
-0.229621
-0.216031
-0.203453
-0.191949
-0.181178
-0.17206
-0.355791
-0.341523
-0.330965
-0.318642
-0.305219
-0.289992
-0.273373
-0.256392
-0.239908
-0.224423
-0.210134
-0.197084
-0.185223
-0.174289
-0.164983
-0.365644
-0.349729
-0.338102
-0.324229
-0.308554
-0.290787
-0.271882
-0.253107
-0.235313
-0.218901
-0.203964
-0.190471
-0.178281
-0.167202
-0.157704
-0.376023
-0.358406
-0.345606
-0.329869
-0.31154
-0.291035
-0.26983
-0.249325
-0.2303
-0.213026
-0.197489
-0.183585
-0.171097
-0.159892
-0.150205
-0.386814
-0.367447
-0.353358
-0.335355
-0.314004
-0.290634
-0.267158
-0.245009
-0.224835
-0.206764
-0.190677
-0.176395
-0.163645
-0.152335
-0.14247
-0.397863
-0.376716
-0.361183
-0.340453
-0.315778
-0.289486
-0.26381
-0.240115
-0.218879
-0.200077
-0.183491
-0.16887
-0.1559
-0.144509
-0.134482
-0.408972
-0.386044
-0.368846
-0.344918
-0.3167
-0.287499
-0.259727
-0.234598
-0.21239
-0.192928
-0.175898
-0.160983
-0.147838
-0.136391
-0.126226
-0.4199
-0.395232
-0.376061
-0.348509
-0.316622
-0.284586
-0.25485
-0.228408
-0.205324
-0.185277
-0.167866
-0.152708
-0.139439
-0.12796
-0.117691
-0.430369
-0.404045
-0.382505
-0.350991
-0.315404
-0.280662
-0.249117
-0.221494
-0.197637
-0.177087
-0.159362
-0.144022
-0.130683
-0.119205
-0.108876
-0.440069
-0.412211
-0.387845
-0.35214
-0.312918
-0.275647
-0.242469
-0.213805
-0.189286
-0.168323
-0.15036
-0.134904
-0.121555
-0.110119
-0.0998006
-0.448673
-0.419423
-0.391757
-0.351754
-0.309049
-0.269465
-0.234847
-0.205295
-0.180231
-0.158952
-0.140833
-0.125334
-0.11204
-0.100707
-0.090495
-0.455846
-0.425345
-0.39394
-0.349647
-0.303692
-0.262048
-0.226197
-0.195917
-0.170437
-0.148948
-0.13076
-0.115293
-0.10212
-0.0909641
-0.0809646
-0.461254
-0.429625
-0.394132
-0.345665
-0.296755
-0.253332
-0.21647
-0.185634
-0.159874
-0.138286
-0.120123
-0.104764
-0.0917795
-0.0808682
-0.0711549
-0.464576
-0.431909
-0.392106
-0.339677
-0.288163
-0.243265
-0.205625
-0.174414
-0.148518
-0.126951
-0.108909
-0.0937401
-0.0810118
-0.0703883
-0.0609402
-0.465508
-0.431862
-0.387675
-0.331584
-0.277853
-0.231803
-0.19363
-0.162231
-0.136351
-0.114928
-0.0971094
-0.0822175
-0.069827
-0.0595192
-0.0501596
-0.463777
-0.429187
-0.38068
-0.321314
-0.265781
-0.218915
-0.18046
-0.149067
-0.12336
-0.10221
-0.0847216
-0.0701989
-0.0582411
-0.0482934
-0.0388424
-0.459141
-0.423639
-0.370994
-0.308815
-0.251921
-0.204583
-0.166099
-0.134908
-0.109538
-0.0887984
-0.0717594
-0.0577011
-0.0462644
-0.0366672
-0.0275048
-0.451396
-0.415019
-0.358529
-0.294064
-0.236264
-0.188795
-0.150532
-0.119753
-0.0948958
-0.0747101
-0.0582494
-0.0447705
-0.0338969
-0.024637
-0.0160636
-0.440377
-0.403185
-0.343236
-0.277058
-0.21881
-0.17154
-0.133762
-0.103634
-0.0794696
-0.0599906
-0.0441924
-0.0313975
-0.0211361
-0.0122985
-0.00443179
-0.425964
-0.388048
-0.325106
-0.25781
-0.199559
-0.15282
-0.115845
-0.086617
-0.0632858
-0.0446229
-0.0296162
-0.0175972
-0.00801088
0.000306235
0.00741227
-0.408084
-0.369574
-0.304166
-0.236354
-0.178516
-0.132708
-0.0969127
-0.0686661
-0.0463488
-0.0286457
-0.014551
-0.00339764
0.0054421
0.0131544
0.0194532
-0.386708
-0.347781
-0.280487
-0.212757
-0.155752
-0.111425
-0.0768303
-0.0498334
-0.0287008
-0.0120994
0.000966688
0.0111652
0.0191851
0.0262205
0.0316602
-0.361853
-0.322735
-0.254182
-0.18713
-0.131524
-0.0887657
-0.0557166
-0.0301764
-0.0103935
0.00496951
0.0168952
0.0260506
0.0331789
0.039468
0.0439887
-0.333588
-0.294569
-0.225374
-0.159565
-0.105798
-0.064897
-0.0336481
-0.00976218
0.00851434
0.0225091
0.0331869
0.0412143
0.0473821
0.0528531
0.0563872
-0.302041
-0.263516
-0.194087
-0.130168
-0.0786655
-0.0399293
-0.0107123
0.0113352
0.027957
0.040461
0.0497887
0.0566087
0.0617526
0.0663324
0.0688174
-0.267391
-0.229878
-0.160251
-0.0991281
-0.0502657
-0.0139789
0.0129953
0.0330334
0.0478624
0.0587603
0.0666417
0.0721828
0.0762505
0.0798707
0.0812562
-0.229836
-0.193708
-0.124369
-0.0665128
-0.0207415
0.0128302
0.0373696
0.0552428
0.0681521
0.0773369
0.0836824
0.0878844
0.0908346
0.0934181
0.0936099
-0.189577
-0.154514
-0.0873919
-0.0326374
0.00975348
0.0403667
0.062297
0.0778666
0.0887421
0.0961168
0.100849
0.103666
0.105448
0.106834
0.105578
-0.146884
-0.113112
-0.0491123
0.00225471
0.041046
0.0684921
0.0876574
0.100801
0.109544
0.115025
0.118088
0.119492
0.120008
0.119845
0.116746
-0.101969
-0.0700383
-0.00963278
0.037958
0.0729514
0.0970576
0.113324
0.123938
0.130463
0.133987
0.135351
0.135325
0.134427
0.132262
0.127105
-0.055265
-0.0256168
0.0308148
0.0742679
0.105281
0.125906
0.139163
0.147163
0.151402
0.152925
0.152575
0.151092
0.148625
0.144326
0.137705
-0.00716534
0.0198359
0.0719504
0.110965
0.137843
0.154876
0.165036
0.170356
0.172262
0.171757
0.169677
0.166664
0.162491
0.156272
0.151209
0.0419355
0.0659784
0.113477
0.147818
0.170439
0.183797
0.190802
0.193397
0.192941
0.190395
0.186561
0.181929
0.176061
0.168615
0.164319
0.0916292
0.112455
0.155092
0.184586
0.202867
0.2125
0.216314
0.216163
0.213334
0.208746
0.203141
0.19687
0.189471
0.181118
0.176566
0.141502
0.158899
0.196488
0.221023
0.234923
0.240811
0.241427
0.238528
0.233336
0.226713
0.219332
0.211441
0.20265
0.193472
0.188207
0.19114
0.204935
0.23736
0.256882
0.2664
0.268557
0.265992
0.260369
0.252837
0.244203
0.235063
0.225598
0.215504
0.205457
0.199262
0.240127
0.250193
0.277403
0.291917
0.297094
0.295564
0.289864
0.281561
0.271732
0.261121
0.250257
0.239274
0.227942
0.216997
0.209779
0.288048
0.294311
0.316321
0.325885
0.326802
0.321663
0.312898
0.301981
0.289914
0.277379
0.26484
0.2524
0.239877
0.228019
0.219744
0.334495
0.336936
0.353822
0.358549
0.355327
0.346688
0.334955
0.321509
0.307281
0.292889
0.278738
0.264904
0.251242
0.238476
0.229134
0.379074
0.377728
0.389627
0.389681
0.382477
0.370477
0.355898
0.34003
0.323734
0.307566
0.291878
0.276721
0.261975
0.248321
0.237921
0.421405
0.416364
0.423469
0.419061
0.40807
0.392877
0.375598
0.357433
0.339178
0.32133
0.30419
0.287786
0.27202
0.257512
0.246075
0.461127
0.452535
0.455097
0.446481
0.431932
0.413742
0.39393
0.373614
0.353525
0.334105
0.315607
0.298042
0.281327
0.266006
0.253568
0.497904
0.485955
0.484274
0.471749
0.453901
0.432935
0.410779
0.388474
0.36669
0.345818
0.326068
0.307435
0.289846
0.273765
0.260375
0.531423
0.516361
0.510783
0.494683
0.473826
0.45033
0.426038
0.401922
0.378597
0.356404
0.335515
0.315914
0.297536
0.280755
0.266474
0.5614
0.543511
0.534427
0.515122
0.491572
0.465812
0.439611
0.413877
0.389175
0.365803
0.343899
0.323436
0.304356
0.286942
0.271846
0.587582
0.567191
0.55503
0.532919
0.507016
0.479279
0.451411
0.424265
0.398361
0.373961
0.351171
0.32996
0.31027
0.2923
0.276476
0.609746
0.587216
0.572439
0.547949
0.520052
0.490641
0.461363
0.433021
0.406102
0.380832
0.357294
0.335451
0.315248
0.296802
0.28035
0.627705
0.603428
0.586523
0.560103
0.53059
0.499823
0.469402
0.440093
0.41235
0.386376
0.362233
0.339881
0.319263
0.300429
0.283459
0.641309
0.615699
0.597179
0.569295
0.538558
0.506763
0.475476
0.445435
0.41707
0.390563
0.365962
0.343224
0.322294
0.303163
0.285797
0.650443
0.623934
0.604327
0.57546
0.543901
0.511416
0.479548
0.449015
0.420232
0.393367
0.368459
0.345463
0.324323
0.304993
0.287357
0.655029
0.628067
0.607915
0.578554
0.546582
0.51375
0.481591
0.45081
0.421817
0.394773
0.369711
0.346585
0.325341
0.305911
0.288138
-0.265222
-0.26398
-0.262763
-0.265392
-0.264086
-0.262875
-0.265723
-0.264284
-0.263086
-0.266196
-0.264548
-0.263374
-0.266801
-0.264841
-0.26371
-0.267568
-0.265112
-0.264059
-0.262487
-0.268474
-0.265261
-0.264392
-0.262813
-0.268945
-0.265651
-0.264586
-0.26309
-0.26915
-0.266016
-0.264671
-0.263257
-0.269095
-0.266286
-0.26462
-0.263277
-0.268579
-0.266392
-0.264407
-0.2631
-0.267445
-0.266154
-0.263983
-0.262681
-0.261275
-0.265695
-0.265329
-0.263249
-0.261965
-0.260659
-0.263463
-0.263744
-0.262061
-0.260867
-0.259668
-0.260808
-0.261389
-0.260285
-0.259277
-0.25822
-0.257593
-0.258311
-0.257851
-0.257103
-0.256246
-0.255212
-0.253644
-0.25464
-0.254764
-0.254296
-0.253705
-0.252949
-0.249174
-0.250563
-0.25111
-0.250915
-0.250646
-0.250202
-0.244521
-0.246261
-0.247002
-0.247079
-0.247171
-0.247082
-0.239941
-0.241755
-0.242203
-0.242349
-0.242707
-0.242945
-0.242832
-0.23267
-0.235997
-0.236223
-0.236354
-0.236904
-0.237488
-0.237762
-0.219672
-0.22536
-0.226239
-0.226309
-0.226942
-0.227906
-0.228667
-0.207395
-0.214339
-0.216022
-0.216408
-0.217283
-0.218604
-0.219799
-0.196035
-0.203488
-0.205985
-0.20692
-0.208138
-0.209768
-0.211308
-0.185334
-0.193083
-0.196295
-0.19784
-0.199447
-0.20136
-0.203184
-0.175412
-0.183293
-0.187078
-0.189193
-0.191194
-0.193377
-0.19545
-0.166295
-0.174171
-0.1784
-0.181014
-0.183387
-0.18583
-0.188128
-0.157927
-0.165723
-0.170287
-0.173323
-0.176032
-0.178718
-0.181222
-0.150271
-0.157935
-0.162743
-0.166128
-0.16913
-0.172035
-0.174724
-0.143281
-0.150776
-0.155756
-0.159423
-0.162675
-0.165773
-0.168626
-0.136905
-0.14421
-0.149305
-0.153197
-0.156657
-0.159921
-0.162917
-0.131094
-0.138201
-0.143366
-0.147433
-0.151065
-0.154468
-0.157587
-0.125805
-0.132709
-0.137911
-0.142114
-0.145884
-0.149402
-0.152626
-0.120999
-0.127701
-0.132912
-0.137218
-0.141098
-0.14471
-0.148021
-0.116636
-0.123142
-0.128344
-0.132726
-0.136692
-0.140379
-0.143762
-0.112685
-0.119002
-0.12418
-0.128616
-0.132649
-0.136396
-0.139836
-0.109114
-0.115251
-0.120396
-0.124869
-0.128953
-0.132746
-0.136232
-0.105896
-0.111866
-0.116971
-0.121468
-0.125588
-0.129416
-0.132939
-0.103008
-0.108821
-0.113883
-0.118393
-0.122539
-0.126393
-0.129944
-0.100428
-0.106097
-0.111113
-0.115629
-0.119794
-0.123666
-0.127238
-0.0981362
-0.103674
-0.108646
-0.113162
-0.117338
-0.121223
-0.124811
-0.0961168
-0.101537
-0.106465
-0.110977
-0.115161
-0.119053
-0.122653
-0.094355
-0.0996705
-0.104558
-0.109064
-0.113251
-0.117148
-0.120756
-0.0928383
-0.0980625
-0.102913
-0.107412
-0.111599
-0.115499
-0.119112
-0.091556
-0.0967022
-0.101521
-0.106011
-0.110199
-0.114099
-0.117715
-0.090499
-0.0955807
-0.100372
-0.104855
-0.109041
-0.112942
-0.11656
-0.0896599
-0.0946906
-0.09946
-0.103937
-0.108122
-0.112022
-0.115641
-0.0890334
-0.0940265
-0.0987802
-0.103253
-0.107436
-0.111336
-0.114955
-0.0886156
-0.0935848
-0.0983289
-0.102799
-0.106982
-0.11088
-0.1145
-0.0883925
-0.0933577
-0.0980997
-0.10257
-0.106753
-0.110652
-0.114272
-0.224206
-0.210425
-0.197413
-0.186548
-0.176242
-0.166675
-0.158023
-0.150106
-0.142865
-0.136275
-0.130271
-0.124802
-0.119828
-0.11531
-0.111211
-0.1075
-0.104147
-0.101126
-0.0984136
-0.0959905
-0.0938382
-0.0919409
-0.090285
-0.0888586
-0.0876516
-0.0866555
-0.0858628
-0.0852688
-0.0848704
-0.0846421
-0.216733
-0.203648
-0.190693
-0.180308
-0.170473
-0.161184
-0.152844
-0.145244
-0.138274
-0.131934
-0.126167
-0.120913
-0.116135
-0.111796
-0.107858
-0.104292
-0.101068
-0.0981624
-0.0955527
-0.0932193
-0.091145
-0.0893148
-0.0877157
-0.0863362
-0.0851666
-0.0841988
-0.0834255
-0.0828425
-0.0824449
-0.0822077
-0.21052
-0.197992
-0.184854
-0.17453
-0.165084
-0.15603
-0.147901
-0.140569
-0.133842
-0.127716
-0.122156
-0.117096
-0.112492
-0.108312
-0.104521
-0.101086
-0.0979805
-0.0951812
-0.0926661
-0.0904163
-0.0884152
-0.0866482
-0.0851028
-0.083768
-0.0826344
-0.081694
-0.0809399
-0.080368
-0.0799722
-0.0797305
-0.204135
-0.191972
-0.17899
-0.168766
-0.159703
-0.150954
-0.143024
-0.135933
-0.129445
-0.123524
-0.118156
-0.113278
-0.108841
-0.104814
-0.101161
-0.0978527
-0.0948615
-0.0921645
-0.0897407
-0.0875717
-0.0856415
-0.0839361
-0.0824432
-0.0811522
-0.0800541
-0.0791413
-0.0784068
-0.0778469
-0.0774548
-0.0772115
-0.197817
-0.186054
-0.1733
-0.163102
-0.154289
-0.14585
-0.138127
-0.13125
-0.124998
-0.119286
-0.114106
-0.109408
-0.105138
-0.101261
-0.097746
-0.0945629
-0.0916851
-0.08909
-0.0867574
-0.0846694
-0.0828105
-0.0811672
-0.0797275
-0.0784813
-0.0774199
-0.0765358
-0.0758225
-0.0752762
-0.0748899
-0.0746476
-0.191313
-0.179825
-0.167409
-0.157346
-0.148769
-0.140664
-0.133189
-0.126523
-0.1205
-0.115001
-0.110011
-0.105489
-0.101384
-0.0976569
-0.0942789
-0.0912204
-0.0884555
-0.085962
-0.0837204
-0.0817134
-0.079926
-0.0783451
-0.0769592
-0.0757585
-0.0747346
-0.0738803
-0.0731894
-0.0726583
-0.0722797
-0.0720405
-0.184676
-0.173497
-0.161485
-0.151596
-0.143204
-0.135399
-0.12819
-0.121738
-0.115935
-0.110653
-0.105855
-0.10151
-0.0975691
-0.0939933
-0.0907524
-0.0878188
-0.0851672
-0.0827758
-0.0806258
-0.0787005
-0.0769854
-0.0754678
-0.0741367
-0.0729826
-0.0719975
-0.0711744
-0.0705074
-0.0699932
-0.0696242
-0.0693903
-0.177888
-0.166967
-0.155382
-0.145738
-0.13755
-0.13004
-0.123118
-0.116896
-0.111311
-0.106244
-0.101642
-0.0974742
-0.0936979
-0.0902734
-0.0871701
-0.0843616
-0.0818235
-0.0795346
-0.0774767
-0.0756336
-0.0739914
-0.0725379
-0.0712624
-0.070156
-0.0692107
-0.0684201
-0.0677784
-0.0672827
-0.066925
-0.0666981
-0.170945
-0.160299
-0.149175
-0.139819
-0.131844
-0.124607
-0.117971
-0.11199
-0.106624
-0.101771
-0.0973673
-0.0933789
-0.0897676
-0.0864949
-0.0835301
-0.0808473
-0.0784234
-0.0762377
-0.0742726
-0.0725126
-0.0709442
-0.0695557
-0.068337
-0.0672792
-0.0663751
-0.0656183
-0.0650034
-0.0645276
-0.064183
-0.0639649
-0.163847
-0.153476
-0.142817
-0.133784
-0.126052
-0.11909
-0.112743
-0.107017
-0.101876
-0.097236
-0.0930324
-0.0892258
-0.0857803
-0.08266
-0.0798344
-0.0772782
-0.0749692
-0.0728874
-0.0710159
-0.0693397
-0.067846
-0.0665234
-0.0653623
-0.0643544
-0.0634926
-0.0627708
-0.0621841
-0.0617297
-0.0613997
-0.0611921
-0.156584
-0.146513
-0.136334
-0.127654
-0.120188
-0.113502
-0.107441
-0.101975
-0.0970641
-0.0926388
-0.0886363
-0.0850135
-0.0817355
-0.0787687
-0.0760834
-0.0736548
-0.0714615
-0.0694845
-0.0677075
-0.0661161
-0.0646979
-0.0634423
-0.06234
-0.061383
-0.0605647
-0.0598791
-0.0593219
-0.0588903
-0.0585763
-0.058381
-0.14915
-0.139408
-0.129714
-0.121406
-0.114233
-0.107834
-0.10206
-0.0968606
-0.0921877
-0.0879803
-0.0841803
-0.0807434
-0.0776348
-0.0748227
-0.0722787
-0.0699788
-0.0679023
-0.0660311
-0.0643495
-0.0628438
-0.0615023
-0.0603146
-0.0592721
-0.0583671
-0.0575933
-0.0569453
-0.0564187
-0.0560112
-0.0557147
-0.0555329
-0.141537
-0.13216
-0.122962
-0.115047
-0.108189
-0.102089
-0.0966046
-0.0916753
-0.0872458
-0.0832602
-0.0796648
-0.0764158
-0.0734787
-0.070823
-0.0684218
-0.0662518
-0.0642933
-0.0625289
-0.0609438
-0.0595249
-0.0582609
-0.0571423
-0.0561606
-0.0553087
-0.0545805
-0.0539711
-0.0534765
-0.0530941
-0.0528164
-0.0526496
-0.13374
-0.12477
-0.116077
-0.108571
-0.102049
-0.0962607
-0.0910728
-0.0864181
-0.0822379
-0.0784787
-0.0750909
-0.0720322
-0.0692688
-0.0667714
-0.0645145
-0.0624758
-0.0606366
-0.0589803
-0.0574927
-0.0561616
-0.0549763
-0.0539277
-0.0530078
-0.05221
-0.0515286
-0.050959
-0.0504973
-0.0501412
-0.0498834
-0.0497328
-0.125752
-0.117235
-0.10906
-0.101977
-0.0958113
-0.0903502
-0.0854658
-0.0810906
-0.0771645
-0.0736364
-0.0704596
-0.067594
-0.0650067
-0.0626697
-0.0605589
-0.0586531
-0.0569345
-0.0553876
-0.0539988
-0.0527566
-0.0516511
-0.0506734
-0.0498164
-0.0490737
-0.0484401
-0.0479111
-0.0474833
-0.0471545
-0.0469177
-0.0467844
-0.117566
-0.109548
-0.101908
-0.0952668
-0.0894731
-0.0843537
-0.0797823
-0.0756929
-0.0720265
-0.0687346
-0.0657729
-0.0631032
-0.0606946
-0.0585204
-0.0565575
-0.0547864
-0.0531899
-0.0517536
-0.0504649
-0.0493128
-0.0482879
-0.0473824
-0.0465892
-0.0459025
-0.0453175
-0.0448301
-0.0444371
-0.0441365
-0.0439217
-0.0438065
-0.109173
-0.101704
-0.0946207
-0.0884408
-0.0830355
-0.0782713
-0.0740226
-0.0702264
-0.0668256
-0.0637749
-0.0610325
-0.0585621
-0.056335
-0.0543259
-0.0525131
-0.0508783
-0.0494056
-0.0480814
-0.0468939
-0.045833
-0.04489
-0.0440574
-0.043329
-0.0426992
-0.0421636
-0.0417186
-0.0413612
-0.0410894
-0.0408977
-0.0408012
-0.100579
-0.0936913
-0.0871915
-0.0814981
-0.0764977
-0.0721014
-0.0681856
-0.0646906
-0.0615619
-0.0587581
-0.0562395
-0.0539721
-0.0519296
-0.0500882
-0.0484279
-0.0469314
-0.0455842
-0.0443735
-0.0432886
-0.0423201
-0.04146
-0.0407014
-0.0400386
-0.0394665
-0.0389812
-0.0385793
-0.038258
-0.0380157
-0.0378477
-0.03777
-0.0918052
-0.0855073
-0.0796115
-0.0744326
-0.0698567
-0.0658415
-0.0622687
-0.0590831
-0.056233
-0.0536818
-0.0513924
-0.0493327
-0.0474785
-0.0458083
-0.0443031
-0.0429474
-0.0417277
-0.0406323
-0.0396515
-0.0387767
-0.0380006
-0.037317
-0.0367207
-0.0362072
-0.0357728
-0.0354145
-0.0351299
-0.0349177
-0.0347739
-0.0347135
-0.082884
-0.0771599
-0.0718703
-0.0672301
-0.0631019
-0.0594848
-0.0562675
-0.0533997
-0.0508338
-0.0485417
-0.0464884
-0.0446425
-0.0429818
-0.0414867
-0.0401402
-0.038928
-0.0378381
-0.0368601
-0.035985
-0.0352054
-0.0345146
-0.0339071
-0.0333782
-0.032924
-0.0325413
-0.0322272
-0.0319798
-0.0317982
-0.0316786
-0.0316333
-0.0738023
-0.0686724
-0.0639569
-0.0598782
-0.0562209
-0.0530253
-0.0501795
-0.0476392
-0.0453635
-0.0433386
-0.0415299
-0.0399049
-0.0384432
-0.0371276
-0.0359432
-0.0348775
-0.0339199
-0.0330612
-0.0322937
-0.0316106
-0.0310064
-0.030476
-0.0300155
-0.0296214
-0.0292909
-0.0290216
-0.0288118
-0.0286614
-0.028565
-0.0285356
-0.0644929
-0.0600319
-0.0558645
-0.0523838
-0.049213
-0.0464662
-0.0440078
-0.0418104
-0.0398382
-0.0380901
-0.0365332
-0.0351339
-0.0338751
-0.0327421
-0.0317224
-0.0308054
-0.0299818
-0.0292441
-0.0285854
-0.028
-0.0274832
-0.0270308
-0.0266393
-0.0263057
-0.0260279
-0.0258038
-0.0256318
-0.0255132
-0.0254378
-0.0254305
-0.0548546
-0.051237
-0.047602
-0.0447761
-0.0420948
-0.0398209
-0.0377589
-0.0359292
-0.0342927
-0.0328259
-0.0315219
-0.0303489
-0.0292936
-0.0283441
-0.0274901
-0.0267225
-0.0260338
-0.0254176
-0.0248683
-0.0243812
-0.0239522
-0.023578
-0.0232557
-0.0229829
-0.0227578
-0.0225787
-0.0224445
-0.0223579
-0.0223019
-0.0223231
-0.0448359
-0.0423459
-0.0392129
-0.0370994
-0.0349019
-0.0331157
-0.0314514
-0.0300133
-0.0287474
-0.0275586
-0.0265047
-0.0255569
-0.0247051
-0.0239393
-0.0232511
-0.0226334
-0.02208
-0.0215856
-0.0211459
-0.0207571
-0.020416
-0.0201199
-0.0198666
-0.0196543
-0.0194816
-0.0193471
-0.0192507
-0.0191936
-0.0191608
-0.0192042
-0.0345684
-0.0333642
-0.030777
-0.0293596
-0.0276838
-0.0263768
-0.0251346
-0.0240666
-0.0231219
-0.0222364
-0.0214434
-0.0207302
-0.0200887
-0.019512
-0.018994
-0.0185295
-0.0181139
-0.0177436
-0.0174152
-0.017126
-0.0168737
-0.0166564
-0.0164727
-0.0163212
-0.0162009
-0.0161111
-0.0160521
-0.0160237
-0.0160156
-0.0160762
-0.0241294
-0.0240507
-0.0222289
-0.0214687
-0.020374
-0.0195543
-0.018753
-0.018062
-0.0174435
-0.0168672
-0.0163452
-0.015874
-0.0154492
-0.0150667
-0.014723
-0.0144151
-0.0141401
-0.0138958
-0.0136804
-0.0134921
-0.0133296
-0.0131919
-0.0130782
-0.0129876
-0.0129199
-0.0128746
-0.0128525
-0.0128524
-0.0128686
-0.0129436
-0.0135783
-0.0145108
-0.0135357
-0.0134465
-0.0129576
-0.0126438
-0.0122968
-0.0119969
-0.0117207
-0.0114595
-0.0112173
-0.0109954
-0.0107931
-0.0106097
-0.0104442
-0.0102959
-0.0101639
-0.0100477
-0.00994667
-0.00986042
-0.00978861
-0.00973103
-0.00968753
-0.00965811
-0.00964278
-0.00964169
-0.0096558
-0.00968381
-0.00972298
-0.00981062
-0.00290325
-0.00481352
-0.00469137
-0.00530056
-0.00543232
-0.00564696
-0.00577071
-0.0058799
-0.00596352
-0.00602562
-0.00607084
-0.00610434
-0.00612951
-0.00614895
-0.00616474
-0.00617846
-0.00619145
-0.00620477
-0.00621936
-0.00623602
-0.00625546
-0.00627834
-0.00630528
-0.00633689
-0.0063737
-0.00641636
-0.00646602
-0.00652144
-0.00658221
-0.00668093
0.0079125
0.0050184
0.00429754
0.00296203
0.00218762
0.00141857
0.000804187
0.000269059
-0.000187857
-0.000580113
-0.00091774
-0.00121052
-0.00146623
-0.00169117
-0.00189041
-0.00206807
-0.00222756
-0.00237171
-0.00250292
-0.00262324
-0.00273443
-0.00283807
-0.00293552
-0.00302802
-0.00311665
-0.00320251
-0.00328696
-0.00336895
-0.00344992
-0.00355797
0.0188785
0.0149786
0.0134067
0.0113139
0.0098666
0.00852109
0.00740264
0.00643324
0.0055976
0.00487238
0.00424004
0.00368549
0.00319656
0.00276345
0.00237819
0.00203423
0.00172617
0.00144944
0.00120018
0.000975103
0.000771354
0.000586466
0.000418282
0.000264923
0.000124769
-3.76871e-06
-0.000122224
-0.000229839
-0.000329644
-0.000445067
0.0299822
0.0250377
0.0225838
0.019712
0.0175776
0.0156551
0.0140354
0.0126331
0.0114172
0.0103551
0.00942263
0.00860003
0.0078715
0.00722417
0.00664743
0.00613246
0.00567184
0.00525928
0.00488939
0.00455756
0.00425981
0.00399268
0.0037532
0.00353879
0.00334723
0.00317646
0.00302474
0.00289246
0.00277519
0.0026545
0.041179
0.0351536
0.0317982
0.0281719
0.0253742
0.0228937
0.0207778
0.0189355
0.0173251
0.0159092
0.0146597
0.0135536
0.0125721
0.0116992
0.0109217
0.0102282
0.00960915
0.00905617
0.00856218
0.00812104
0.00772749
0.00737696
0.00706552
0.00678983
0.00654702
0.00633452
0.00615034
0.00599441
0.00586113
0.00573737
0.0524306
0.0453491
0.041134
0.0368201
0.033381
0.0303337
0.0276915
0.0253715
0.0233301
0.0215292
0.0199374
0.0185282
0.0172786
0.016169
0.0151825
0.0143046
0.0135229
0.0128267
0.0122068
0.0116553
0.0111655
0.0107315
0.0103485
0.0100121
0.00971888
0.0094657
0.00925032
0.00907207
0.0089245
0.00879995
0.0637746
0.0557568
0.050716
0.0457126
0.0415673
0.0378769
0.0346419
0.0317952
0.0292914
0.027087
0.0251439
0.0234282
0.021911
0.0205672
0.0193754
0.0183172
0.0173771
0.0165416
0.0157996
0.0151412
0.0145583
0.0140438
0.0135917
0.0131971
0.0128557
0.012564
0.0123195
0.0121209
0.0119613
0.0118384
0.0752565
0.0663671
0.0603282
0.0544764
0.0494968
0.0450966
0.0412525
0.0378928
0.0349554
0.032382
0.0301216
0.0281313
0.0263745
0.0248205
0.0234437
0.0222222
0.0211377
0.0201746
0.01932
0.0185625
0.0178929
0.0173032
0.0167867
0.0163377
0.0159515
0.0156243
0.0153534
0.0151367
0.0149676
0.0148491
0.0866285
0.0766695
0.0693212
0.0625089
0.0567204
0.0517003
0.0473568
0.0435856
0.0402999
0.0374255
0.0349012
0.0326771
0.0307118
0.0289712
0.0274267
0.0260547
0.0248351
0.0237512
0.0227888
0.0219358
0.0211822
0.0205194
0.01994
0.0194381
0.0190085
0.0186471
0.018351
0.0181177
0.0179416
0.0178297
0.0974083
0.0863446
0.0778312
0.0703079
0.0639511
0.0584735
0.0537225
0.0495776
0.0459471
0.0427554
0.0399407
0.0374515
0.035245
0.0332856
0.0315433
0.0299931
0.0286138
0.0273872
0.0262981
0.0253335
0.0244823
0.023735
0.0230837
0.0225215
0.0220428
0.0216431
0.021319
0.0210675
0.0208846
0.0207801
0.108049
0.0969621
0.0880135
0.0800739
0.0731841
0.0671294
0.0617821
0.057052
0.0528685
0.0491669
0.0458886
0.0429818
0.0404015
0.0381091
0.0360717
0.0342607
0.032652
0.0312244
0.02996
0.0288435
0.0278614
0.0270025
0.0262571
0.025617
0.0250755
0.024627
0.0242672
0.0239925
0.0238002
0.0237006
0.119886
0.110216
0.1011
0.0925157
0.0847302
0.0777271
0.0714539
0.065858
0.060885
0.0564747
0.0525662
0.0491025
0.0460325
0.043311
0.0408987
0.0387612
0.0368689
0.0351958
0.0337198
0.0324215
0.0312844
0.0302944
0.0294394
0.0287092
0.0280954
0.0275911
0.0271907
0.0268897
0.0266857
0.026586
0.130146
0.121021
0.111338
0.101972
0.0933741
0.0856306
0.0787064
0.0725375
0.0670563
0.0621939
0.0578841
0.0540648
0.0506803
0.0476815
0.0450249
0.0426729
0.0405925
0.0387553
0.0371366
0.035715
0.0344721
0.0333924
0.0324624
0.0316709
0.0310084
0.0304673
0.0300414
0.0297258
0.0295174
0.0294184
0.144866
0.13298
0.122103
0.112018
0.102932
0.0948731
0.0877484
0.081426
0.0757995
0.0707872
0.066321
0.0623412
0.058795
0.0556354
0.0528215
0.0503175
0.0480919
0.0461176
0.0443707
0.0428308
0.0414801
0.0403033
0.0392873
0.0384212
0.0376957
0.037103
0.036637
0.0362928
0.0360665
0.0359549
0.158633
0.145035
0.133879
0.124091
0.115303
0.107392
0.100286
0.0939058
0.0881719
0.0830155
0.0783782
0.0742091
0.0704626
0.0670978
0.0640786
0.0613726
0.0589517
0.0567907
0.0548678
0.0531639
0.0516621
0.0503481
0.0492092
0.0482349
0.0474161
0.0467453
0.0462164
0.0458246
0.0455664
0.0454395
0.162245
0.151689
0.141935
0.13298
0.124774
0.117269
0.110429
0.10421
0.0985627
0.0934359
0.0887832
0.084563
0.0807385
0.0772761
0.0741462
0.0713217
0.0687787
0.0664956
0.0644532
0.0626347
0.061025
0.059611
0.0583812
0.0573257
0.0564362
0.0557055
0.0551278
0.0546987
0.0544146
0.0542725
0.163278
0.154265
0.145762
0.137836
0.130503
0.123727
0.117467
0.111692
0.106377
0.101493
0.097013
0.0929101
0.0891593
0.085737
0.0826211
0.0797908
0.0772274
0.0749134
0.0728332
0.0709727
0.0693191
0.0678612
0.0665892
0.0654944
0.0645695
0.0638082
0.0632054
0.0627569
0.0624598
0.0623125
0.161199
0.154131
0.147218
0.140569
0.134246
0.128272
0.122658
0.117406
0.112511
0.107964
0.103752
0.0998599
0.0962724
0.0929738
0.089949
0.0871835
0.0846635
0.0823762
0.0803097
0.078453
0.0767961
0.0753299
0.0740465
0.0729388
0.0720005
0.0712265
0.0706124
0.0701548
0.0698511
0.069699
0.158931
0.153037
0.147205
0.141529
0.136077
0.130875
0.125937
0.121267
0.116869
0.112741
0.10888
0.10528
0.101934
0.098835
0.0959735
0.0933409
0.0909284
0.0887272
0.086729
0.084926
0.0833107
0.0818765
0.0806172
0.0795273
0.078602
0.0778373
0.0772297
0.0767764
0.0764755
0.0763258
0.155687
0.150967
0.146216
0.141526
0.136942
0.132494
0.128209
0.124105
0.120197
0.116493
0.112997
0.109711
0.106634
0.103764
0.101096
0.0986274
0.0963524
0.094266
0.0923633
0.090639
0.0890884
0.0877069
0.0864901
0.0854343