/*--------------------------------*- C++ -*----------------------------------*\
  =========                 |
  \\      /  F ield         | OpenFOAM: The Open Source CFD Toolbox
   \\    /   O peration     | Website:  https://openfoam.org
    \\  /    A nd           | Version:  7
     \\/     M anipulation  |
\*---------------------------------------------------------------------------*/
FoamFile
{
    version     2.0;
    format      ascii;
    class       volScalarField;
    location    "90";
    object      p;
}
// * * * * * * * * * * * * * * * * * * * * * * * * * * * * * * * * * * * * * //

dimensions      [0 2 -2 0 0 0 0];

internalField   nonuniform List<scalar> 
3500
(
-0.169219
-0.163281
-0.158157
-0.152906
-0.147881
-0.143026
-0.138371
-0.133918
-0.129665
-0.125615
-0.121769
-0.118129
-0.114694
-0.111465
-0.108441
-0.105621
-0.103004
-0.100588
-0.0983707
-0.0963495
-0.0945221
-0.0928859
-0.0914387
-0.090178
-0.0891017
-0.0882078
-0.0874949
-0.0869613
-0.0866062
-0.0864289
-0.165139
-0.159715
-0.155042
-0.150202
-0.145532
-0.140989
-0.136606
-0.13239
-0.128347
-0.124482
-0.120799
-0.117303
-0.113996
-0.11088
-0.107957
-0.105227
-0.102689
-0.100343
-0.0981876
-0.0962206
-0.0944405
-0.0928455
-0.0914336
-0.0902029
-0.0891517
-0.0882784
-0.0875815
-0.0870598
-0.0867126
-0.0865391
-0.161032
-0.156124
-0.151899
-0.147465
-0.143149
-0.138913
-0.134798
-0.130818
-0.126981
-0.123298
-0.119777
-0.116424
-0.113244
-0.110241
-0.107418
-0.104776
-0.102318
-0.100041
-0.0979471
-0.0960343
-0.0943017
-0.092748
-0.0913716
-0.0901712
-0.0891453
-0.0882926
-0.0876119
-0.0871023
-0.086763
-0.0865935
-0.156927
-0.152531
-0.148747
-0.144713
-0.140743
-0.136809
-0.132958
-0.129209
-0.125575
-0.122071
-0.118708
-0.115496
-0.112441
-0.109549
-0.106825
-0.104272
-0.101891
-0.0996843
-0.0976516
-0.0957928
-0.0941076
-0.0925952
-0.0912544
-0.0900844
-0.0890839
-0.088252
-0.0875877
-0.0870902
-0.0867589
-0.0865933
-0.152853
-0.14896
-0.145607
-0.141962
-0.138329
-0.13469
-0.131096
-0.127571
-0.124135
-0.120806
-0.117599
-0.114524
-0.111592
-0.10881
-0.106183
-0.103717
-0.101413
-0.099275
-0.0973031
-0.0954981
-0.0938602
-0.0923889
-0.0910837
-0.089944
-0.088969
-0.0881579
-0.08751
-0.0870247
-0.0867014
-0.0865399
-0.148837
-0.145435
-0.142497
-0.139227
-0.13592
-0.132566
-0.12922
-0.125913
-0.122669
-0.11951
-0.116454
-0.113513
-0.110701
-0.108026
-0.105495
-0.103113
-0.100886
-0.0988158
-0.0969041
-0.0951523
-0.0935612
-0.0921308
-0.0908611
-0.0897517
-0.0888021
-0.0880118
-0.0873803
-0.0869071
-0.0865919
-0.0864344
-0.144906
-0.141978
-0.139435
-0.136525
-0.13353
-0.130447
-0.12734
-0.124242
-0.121183
-0.118188
-0.115278
-0.112468
-0.109772
-0.1072
-0.104763
-0.102465
-0.100313
-0.098309
-0.0964566
-0.0947574
-0.0932126
-0.0918228
-0.0905882
-0.0895089
-0.0885846
-0.087815
-0.0871999
-0.0867389
-0.0864317
-0.0862782
-0.141086
-0.138609
-0.13644
-0.133869
-0.131169
-0.128345
-0.125464
-0.122566
-0.119684
-0.116846
-0.114076
-0.111391
-0.108808
-0.106338
-0.103991
-0.101775
-0.0996953
-0.0977568
-0.0959627
-0.0943153
-0.0928162
-0.0914665
-0.0902667
-0.0892172
-0.0883181
-0.0875691
-0.0869703
-0.0865214
-0.0862222
-0.0860726
-0.137399
-0.135348
-0.133528
-0.131274
-0.12885
-0.126269
-0.123601
-0.120891
-0.118177
-0.115489
-0.112852
-0.110288
-0.107813
-0.105441
-0.103182
-0.101045
-0.0990363
-0.0971617
-0.0954246
-0.093828
-0.0923739
-0.0910636
-0.0898982
-0.0888782
-0.0880039
-0.0872754
-0.0866927
-0.0862558
-0.0859646
-0.085819
-0.133868
-0.132213
-0.130713
-0.128753
-0.126584
-0.124227
-0.121758
-0.119225
-0.116668
-0.114121
-0.111612
-0.109162
-0.106791
-0.104512
-0.102338
-0.100277
-0.0983381
-0.0965255
-0.0948442
-0.0932973
-0.0918872
-0.0906158
-0.0894843
-0.0884934
-0.0876436
-0.0869353
-0.0863686
-0.0859436
-0.0856602
-0.0855186
-0.130512
-0.129221
-0.12801
-0.126315
-0.124378
-0.122227
-0.119941
-0.117571
-0.115161
-0.112747
-0.110357
-0.108017
-0.105744
-0.103555
-0.101462
-0.0994753
-0.0976027
-0.0958505
-0.0942233
-0.092725
-0.0913581
-0.0901247
-0.0890264
-0.0880641
-0.0872386
-0.0865502
-0.0859993
-0.085586
-0.0853105
-0.0851727
-0.127348
-0.126384
-0.12543
-0.123971
-0.122242
-0.120277
-0.118157
-0.115936
-0.113661
-0.11137
-0.109093
-0.106855
-0.104675
-0.102571
-0.100556
-0.0986405
-0.0968323
-0.0951384
-0.0935639
-0.0921128
-0.090788
-0.0895919
-0.0885262
-0.087592
-0.0867902
-0.0861214
-0.0855861
-0.0851844
-0.0849166
-0.0847826
-0.12439
-0.123715
-0.122983
-0.12173
-0.120182
-0.118381
-0.116409
-0.114324
-0.112173
-0.109995
-0.107821
-0.105679
-0.103587
-0.101564
-0.0996232
-0.0977751
-0.0960289
-0.0943912
-0.0928676
-0.0914623
-0.0901786
-0.0890188
-0.0879849
-0.0870783
-0.0862999
-0.0856504
-0.0851304
-0.0847401
-0.0844798
-0.0843497
-0.121648
-0.121223
-0.120676
-0.119596
-0.118204
-0.116544
-0.114703
-0.112738
-0.110698
-0.108623
-0.106545
-0.104491
-0.102482
-0.100535
-0.0986644
-0.096881
-0.095194
-0.0936105
-0.0921361
-0.0907753
-0.0895313
-0.088407
-0.0874042
-0.0865245
-0.085769
-0.0851384
-0.0846334
-0.0842544
-0.0840015
-0.0838751
-0.119132
-0.118914
-0.118514
-0.117576
-0.116311
-0.11477
-0.113041
-0.11118
-0.109239
-0.107257
-0.105267
-0.103295
-0.101362
-0.0994864
-0.0976819
-0.0959599
-0.0943295
-0.0927979
-0.0913709
-0.090053
-0.0888477
-0.0877578
-0.0867854
-0.0859319
-0.0851988
-0.0845867
-0.0840965
-0.0837284
-0.0834829
-0.0833601
-0.116847
-0.116792
-0.116502
-0.115671
-0.114506
-0.113062
-0.111425
-0.109654
-0.107799
-0.1059
-0.103988
-0.10209
-0.100228
-0.0984193
-0.0966771
-0.0950133
-0.0934368
-0.0919549
-0.0905735
-0.089297
-0.0881291
-0.0870726
-0.0861297
-0.0853019
-0.0845906
-0.0839967
-0.0835209
-0.0831636
-0.0829253
-0.082806
-0.114793
-0.114857
-0.114639
-0.113883
-0.112789
-0.111419
-0.109856
-0.10816
-0.106378
-0.104551
-0.102709
-0.10088
-0.0990825
-0.0973352
-0.0956515
-0.0940425
-0.0925172
-0.0910828
-0.0897451
-0.0885086
-0.0873769
-0.0863528
-0.0854385
-0.0846357
-0.0839457
-0.0833695
-0.0829078
-0.0825611
-0.0823298
-0.0822141
-0.112969
-0.113109
-0.112924
-0.112209
-0.111161
-0.109841
-0.108334
-0.106697
-0.104977
-0.103212
-0.101432
-0.0996633
-0.0979255
-0.0962352
-0.094606
-0.0930487
-0.091572
-0.0901829
-0.0888871
-0.087689
-0.0865922
-0.0855995
-0.084713
-0.0839345
-0.0832653
-0.0827064
-0.0822584
-0.0819221
-0.0816976
-0.0815854
-0.11137
-0.111541
-0.111354
-0.110648
-0.109618
-0.108327
-0.106859
-0.105266
-0.103595
-0.101882
-0.100157
-0.098442
-0.0967579
-0.0951202
-0.0935418
-0.092033
-0.0906022
-0.0892562
-0.0880005
-0.0868394
-0.0857762
-0.0848139
-0.0839544
-0.0831996
-0.0825506
-0.0820085
-0.081574
-0.0812478
-0.08103
-0.0809211
-0.109988
-0.110148
-0.109921
-0.109194
-0.108156
-0.106875
-0.105427
-0.103865
-0.102232
-0.100562
-0.0988827
-0.097216
-0.0955804
-0.0939908
-0.0924595
-0.0909961
-0.0896088
-0.0883038
-0.0870865
-0.0859608
-0.0849302
-0.0839972
-0.0831639
-0.082432
-0.0818027
-0.081277
-0.0808557
-0.0805393
-0.0803281
-0.0802225
-0.108809
-0.108917
-0.108618
-0.107841
-0.106772
-0.105479
-0.104036
-0.102492
-0.100886
-0.0992505
-0.0976098
-0.095985
-0.0943929
-0.0928473
-0.0913596
-0.0899389
-0.0885926
-0.0873266
-0.0861459
-0.0850544
-0.084055
-0.0831504
-0.0823425
-0.0816329
-0.0810228
-0.0805131
-0.0801046
-0.0797978
-0.0795931
-0.0794907
-0.107819
-0.107837
-0.107434
-0.106579
-0.105457
-0.104135
-0.102682
-0.101144
-0.0995556
-0.0979458
-0.0963372
-0.0947486
-0.0931954
-0.09169
-0.0902427
-0.0888619
-0.0875543
-0.0863254
-0.0851798
-0.0841209
-0.0831518
-0.0822746
-0.0814913
-0.0808034
-0.0802119
-0.0797178
-0.0793218
-0.0790244
-0.078826
-0.0787267
-0.106999
-0.106892
-0.106356
-0.105399
-0.104204
-0.102836
-0.101361
-0.0998172
-0.0982375
-0.0966462
-0.0950636
-0.0935062
-0.0919875
-0.0905187
-0.0891088
-0.0877654
-0.0864944
-0.0853009
-0.0841888
-0.0831614
-0.0822214
-0.0813708
-0.0806114
-0.0799445
-0.0793711
-0.0788923
-0.0785085
-0.0782202
-0.0780279
-0.0779317
-0.106329
-0.106064
-0.105369
-0.104289
-0.103004
-0.101577
-0.100066
-0.0985081
-0.0969289
-0.0953496
-0.0937876
-0.0922568
-0.0907688
-0.0893333
-0.0879582
-0.0866498
-0.0854135
-0.0842536
-0.0831737
-0.0821766
-0.0812647
-0.0804398
-0.0797036
-0.0790572
-0.0785015
-0.0780375
-0.0776656
-0.0773863
-0.0771999
-0.0771067
-0.105783
-0.105333
-0.104458
-0.103238
-0.101847
-0.100348
-0.0987932
-0.0972119
-0.0956264
-0.0940535
-0.0925072
-0.090999
-0.0895385
-0.0881335
-0.0867906
-0.0855153
-0.084312
-0.0831843
-0.0821352
-0.0811673
-0.0802826
-0.0794827
-0.0787689
-0.0781424
-0.077604
-0.0771544
-0.0767941
-0.0765236
-0.0763431
-0.0762528
-0.105338
-0.104679
-0.103606
-0.10223
-0.100722
-0.0991418
-0.0975345
-0.0959236
-0.0943262
-0.0927551
-0.0912206
-0.0897317
-0.0882957
-0.0869188
-0.0856061
-0.084362
-0.0831901
-0.0820932
-0.0810739
-0.0801342
-0.0792759
-0.0785002
-0.0778083
-0.0772012
-0.0766796
-0.0762441
-0.0758952
-0.0756333
-0.0754585
-0.075371
-0.104966
-0.104078
-0.102794
-0.101252
-0.0996187
-0.0979493
-0.0962834
-0.0946379
-0.0930244
-0.0914513
-0.0899256
-0.0884533
-0.0870395
-0.0856886
-0.0844044
-0.08319
-0.0820481
-0.0809809
-0.0799903
-0.079078
-0.0782452
-0.0774931
-0.0768226
-0.0762345
-0.0757293
-0.0753076
-0.0749698
-0.0747162
-0.074547
-0.0744624
-0.104639
-0.103508
-0.102004
-0.100289
-0.0985241
-0.0967613
-0.0950329
-0.0933494
-0.0917167
-0.0901391
-0.0886198
-0.087162
-0.0857687
-0.0844423
-0.0831851
-0.0819991
-0.0808862
-0.0798477
-0.078885
-0.0779993
-0.0771915
-0.0764624
-0.0758127
-0.075243
-0.0747539
-0.0743458
-0.0740188
-0.0737734
-0.0736097
-0.0735279
-0.104331
-0.102945
-0.101216
-0.0993252
-0.0974266
-0.0955684
-0.0937757
-0.0920523
-0.0903989
-0.0888152
-0.0873009
-0.0858564
-0.0844822
-0.0831791
-0.0819479
-0.0807895
-0.0797046
-0.078694
-0.0777585
-0.0768987
-0.0761152
-0.0754086
-0.0747793
-0.0742278
-0.0737545
-0.0733595
-0.0730433
-0.0728059
-0.0726476
-0.0725684
-0.104012
-0.102365
-0.100412
-0.0983459
-0.0963144
-0.0943613
-0.0925044
-0.0907411
-0.0890667
-0.0874763
-0.0859665
-0.0845345
-0.0831789
-0.0818984
-0.0806925
-0.0795609
-0.0785034
-0.0775202
-0.0766112
-0.0757768
-0.0750172
-0.0743327
-0.0737234
-0.0731897
-0.0727318
-0.0723498
-0.0720441
-0.0718146
-0.0716616
-0.0715851
-0.103655
-0.101746
-0.0995736
-0.0973363
-0.0951758
-0.0931308
-0.091212
-0.0894103
-0.0877158
-0.0861194
-0.0846142
-0.0831949
-0.0818576
-0.0805995
-0.0794185
-0.0783133
-0.0772828
-0.0763264
-0.0754436
-0.0746342
-0.0738981
-0.0732352
-0.0726456
-0.0721294
-0.0716867
-0.0713176
-0.0710221
-0.0708005
-0.0706527
-0.0705787
-0.103231
-0.101065
-0.0986818
-0.096282
-0.0939993
-0.0918681
-0.0898915
-0.0880545
-0.0863421
-0.0847413
-0.0832418
-0.0818358
-0.0805172
-0.0792816
-0.0781256
-0.0770466
-0.0760429
-0.0751131
-0.0742562
-0.0734715
-0.0727585
-0.072117
-0.0715469
-0.0710479
-0.0706202
-0.0702637
-0.0699784
-0.0697644
-0.0696217
-0.0695503
-0.102715
-0.1003
-0.09772
-0.0951694
-0.0927745
-0.0905648
-0.0885365
-0.0866687
-0.0849419
-0.0833392
-0.0818472
-0.0804557
-0.0791567
-0.0779441
-0.0768134
-0.0757608
-0.0747839
-0.0738806
-0.0730494
-0.0722891
-0.0715991
-0.0709788
-0.0704279
-0.069946
-0.069533
-0.0691889
-0.0689137
-0.0687072
-0.0685696
-0.0685008
-0.102081
-0.099431
-0.0966723
-0.093986
-0.0914914
-0.0892132
-0.0871409
-0.0852483
-0.0835116
-0.0819103
-0.0804284
-0.0790533
-0.0777752
-0.0765866
-0.0754817
-0.0744559
-0.073506
-0.0726292
-0.0718236
-0.0710878
-0.0704206
-0.0698213
-0.0692894
-0.0688244
-0.0684261
-0.0680943
-0.0678289
-0.0676299
-0.0674973
-0.067431
-0.101306
-0.0984411
-0.0955246
-0.0927205
-0.0901411
-0.0878064
-0.0856994
-0.0837891
-0.0820479
-0.0804523
-0.0789837
-0.0776273
-0.0763719
-0.0752085
-0.0741303
-0.0731319
-0.0722093
-0.0713593
-0.0705795
-0.069868
-0.0692236
-0.0686453
-0.0681322
-0.0676839
-0.0673001
-0.0669805
-0.066725
-0.0665334
-0.0664057
-0.0663419
-0.100372
-0.0973144
-0.0942644
-0.0913632
-0.088716
-0.0863382
-0.0842071
-0.0822874
-0.0805482
-0.0789632
-0.0775115
-0.0761768
-0.0749461
-0.0738095
-0.0727592
-0.071789
-0.0708943
-0.0700714
-0.0693175
-0.0686305
-0.0680088
-0.0674513
-0.0669571
-0.0665255
-0.0661561
-0.0658486
-0.0656028
-0.0654185
-0.0652957
-0.0652343
-0.0992591
-0.0960376
-0.0928814
-0.0899056
-0.0872094
-0.0848037
-0.0826602
-0.0807403
-0.0790101
-0.0774412
-0.0760108
-0.0747009
-0.0734975
-0.0723895
-0.0713684
-0.0704273
-0.0695612
-0.0687658
-0.0680381
-0.0673758
-0.066777
-0.0662403
-0.0657648
-0.0653498
-0.0649947
-0.0646992
-0.0644631
-0.0642861
-0.0641681
-0.0641091
-0.0979557
-0.0946004
-0.0913674
-0.0883414
-0.0856162
-0.0831986
-0.0810554
-0.0791452
-0.0774319
-0.0758851
-0.0744806
-0.0731991
-0.0720257
-0.0709484
-0.069958
-0.0690472
-0.0682104
-0.0674432
-0.0667421
-0.0661046
-0.0655287
-0.0650129
-0.0645562
-0.0641577
-0.0638169
-0.0635334
-0.0633068
-0.063137
-0.0630238
-0.0629673
-0.0964512
-0.0929954
-0.0897164
-0.0866656
-0.0839328
-0.0815201
-0.0793905
-0.0775005
-0.0758123
-0.074294
-0.0729204
-0.0716712
-0.0705307
-0.0694863
-0.0685284
-0.0676491
-0.0668425
-0.066104
-0.0654299
-0.0648175
-0.0642647
-0.06377
-0.063332
-0.0629501
-0.0626235
-0.0623518
-0.0621348
-0.0619721
-0.0618638
-0.0618096
-0.0947392
-0.0912179
-0.0879248
-0.0848755
-0.0821567
-0.0797665
-0.0776642
-0.0758052
-0.0741506
-0.0726676
-0.07133
-0.0701172
-0.0690127
-0.0680036
-0.0670799
-0.0662334
-0.0654581
-0.064749
-0.0641024
-0.0635154
-0.0629859
-0.0625122
-0.0620931
-0.0617276
-0.0614152
-0.0611554
-0.0609478
-0.0607923
-0.0606887
-0.0606369
-0.0928168
-0.0892665
-0.0859912
-0.08297
-0.0802873
-0.077937
-0.075876
-0.0740591
-0.0724468
-0.0710058
-0.0697096
-0.0685373
-0.067472
-0.0665007
-0.065613
-0.0648008
-0.0640577
-0.0633788
-0.0627602
-0.062199
-0.0616929
-0.0612404
-0.0608401
-0.0604912
-0.060193
-0.059945
-0.0597468
-0.0595984
-0.0594995
-0.0594501
-0.0906849
-0.0871425
-0.0839167
-0.0809499
-0.078325
-0.0760321
-0.0740264
-0.0722625
-0.0707012
-0.0693092
-0.0680598
-0.0669322
-0.0659094
-0.0649784
-0.0641286
-0.0633521
-0.0626422
-0.0619942
-0.0614041
-0.060869
-0.0603867
-0.0599554
-0.0595741
-0.0592417
-0.0589576
-0.0587213
-0.0585326
-0.0583912
-0.058297
-0.05825
-0.0883479
-0.0848498
-0.0817046
-0.0788177
-0.076272
-0.0740535
-0.0721165
-0.0704167
-0.068915
-0.0675787
-0.0663815
-0.0653027
-0.0643256
-0.0634373
-0.0626275
-0.0618879
-0.0612124
-0.060596
-0.060035
-0.0595263
-0.0590679
-0.0586581
-0.0582957
-0.0579798
-0.0577099
-0.0574854
-0.057306
-0.0571716
-0.0570821
-0.0570374
-0.0858134
-0.0823952
-0.0793599
-0.0765776
-0.0741315
-0.0720038
-0.0701488
-0.0685235
-0.0670897
-0.0658157
-0.0646759
-0.0636499
-0.0627218
-0.0618787
-0.0611105
-0.0604094
-0.0597693
-0.0591852
-0.0586537
-0.0581719
-0.0577376
-0.0573493
-0.0570059
-0.0567066
-0.0564507
-0.0562378
-0.0560678
-0.0559404
-0.0558555
-0.0558131
-0.0830918
-0.0797877
-0.0768899
-0.0742353
-0.0719081
-0.0698866
-0.0681261
-0.0665852
-0.0652274
-0.064022
-0.0629445
-0.0619754
-0.0610992
-0.0603036
-0.0595789
-0.0589175
-0.0583137
-0.0577627
-0.0572612
-0.0568065
-0.0563965
-0.0560299
-0.0557055
-0.0554227
-0.0551808
-0.0549796
-0.0548189
-0.0546984
-0.0546181
-0.054578
-0.0801963
-0.0770382
-0.0743034
-0.0717981
-0.0696075
-0.0677066
-0.0660522
-0.0646051
-0.0633307
-0.0621999
-0.0611894
-0.0602808
-0.0594594
-0.0587134
-0.0580338
-0.0574135
-0.0568468
-0.0563296
-0.0558585
-0.0554311
-0.0550456
-0.0547007
-0.0543953
-0.054129
-0.0539011
-0.0537115
-0.05356
-0.0534464
-0.0533707
-0.0533328
-0.0771424
-0.0741596
-0.0716107
-0.0692741
-0.0672364
-0.0654691
-0.0639314
-0.0625868
-0.0614027
-0.0603519
-0.0594128
-0.0585681
-0.057804
-0.0571097
-0.0564767
-0.0558985
-0.0553698
-0.0548868
-0.0544465
-0.0540467
-0.0536858
-0.0533626
-0.0530763
-0.0528264
-0.0526125
-0.0524344
-0.052292
-0.0521852
-0.052114
-0.0520784
-0.0739472
-0.0711661
-0.0688233
-0.0666727
-0.0648021
-0.0631802
-0.0617688
-0.0605343
-0.0594467
-0.0584809
-0.057617
-0.0568392
-0.0561349
-0.0554941
-0.0549091
-0.0543739
-0.0538839
-0.0534356
-0.0530264
-0.0526543
-0.052318
-0.0520166
-0.0517493
-0.0515157
-0.0513156
-0.051149
-0.0510156
-0.0509156
-0.0508488
-0.0508155
-0.0706295
-0.0680732
-0.0659536
-0.064004
-0.062313
-0.0608466
-0.0595698
-0.0584522
-0.0574665
-0.0565901
-0.0558049
-0.0550967
-0.0544541
-0.0538683
-0.0533324
-0.0528411
-0.0523903
-0.0519771
-0.0515992
-0.051255
-0.0509433
-0.0506635
-0.0504151
-0.0501978
-0.0500115
-0.0498561
-0.0497317
-0.0496383
-0.049576
-0.0495449
-0.0672086
-0.064897
-0.063015
-0.0612789
-0.0597779
-0.0584755
-0.0573404
-0.0563455
-0.0554663
-0.0546829
-0.0539793
-0.0533429
-0.0527638
-0.0522343
-0.0517484
-0.0513016
-0.0508905
-0.0505126
-0.050166
-0.0498496
-0.0495626
-0.0493043
-0.0490747
-0.0488735
-0.0487007
-0.0485565
-0.048441
-0.0483542
-0.0482963
-0.0482673
-0.063705
-0.0616542
-0.060021
-0.0585087
-0.0572059
-0.0560744
-0.0550867
-0.0542193
-0.0534505
-0.052763
-0.0521434
-0.0515806
-0.0510664
-0.0505941
-0.0501589
-0.049757
-0.0493857
-0.0490432
-0.048728
-0.0484394
-0.0481768
-0.04794
-0.0477289
-0.0475436
-0.0473843
-0.0472511
-0.0471443
-0.047064
-0.0470103
-0.0469835
-0.060139
-0.0583617
-0.0569857
-0.0557048
-0.0546066
-0.0536513
-0.0528155
-0.052079
-0.0514234
-0.0508343
-0.0503004
-0.0498125
-0.049364
-0.0489497
-0.0485655
-0.0482088
-0.0478775
-0.0475703
-0.0472864
-0.0470253
-0.046787
-0.0465713
-0.0463786
-0.046209
-0.0460629
-0.0459406
-0.0458423
-0.0457684
-0.0457189
-0.0456942
-0.0565309
-0.0550364
-0.0539232
-0.052879
-0.0519896
-0.0512141
-0.0505332
-0.0499302
-0.0493899
-0.0489007
-0.0484536
-0.0480415
-0.0476593
-0.0473031
-0.0469702
-0.0466586
-0.0463671
-0.0460951
-0.0458422
-0.0456084
-0.045394
-0.0451993
-0.0450246
-0.0448705
-0.0447373
-0.0446256
-0.0445358
-0.0444681
-0.0444228
-0.0444001
-0.0529008
-0.0516951
-0.0508476
-0.050043
-0.0493646
-0.048771
-0.0482468
-0.0477787
-0.0473547
-0.0469662
-0.0466064
-0.0462705
-0.0459547
-0.0456567
-0.0453748
-0.0451081
-0.0448561
-0.0446189
-0.0443967
-0.0441898
-0.043999
-0.0438247
-0.0436678
-0.0435288
-0.0434084
-0.0433071
-0.0432254
-0.0431638
-0.0431225
-0.0431019
-0.049268
-0.0483539
-0.0477724
-0.0472083
-0.0467414
-0.0463301
-0.045963
-0.0456301
-0.0453227
-0.0450349
-0.0447624
-0.0445023
-0.0442527
-0.0440125
-0.0437812
-0.0435589
-0.043346
-0.0431431
-0.0429509
-0.0427705
-0.0426028
-0.0424486
-0.042309
-0.0421848
-0.0420767
-0.0419856
-0.0419119
-0.0418562
-0.0418189
-0.0418002
-0.0456511
-0.0450287
-0.0447112
-0.0443863
-0.0441295
-0.0438994
-0.0436887
-0.0434902
-0.0432987
-0.0431109
-0.042925
-0.0427401
-0.0425559
-0.0423727
-0.0421913
-0.0420127
-0.0418381
-0.0416687
-0.0415061
-0.0413515
-0.0412063
-0.0410717
-0.040949
-0.0408391
-0.0407431
-0.0406618
-0.0405959
-0.040546
-0.0405125
-0.0404956
-0.0420679
-0.0417343
-0.0416767
-0.0415878
-0.0415381
-0.0414869
-0.0414303
-0.0413646
-0.0412873
-0.0411982
-0.0410976
-0.0409866
-0.0408666
-0.0407394
-0.0406069
-0.040471
-0.0403338
-0.0401973
-0.0400633
-0.0399339
-0.0398105
-0.039695
-0.0395886
-0.0394926
-0.0394083
-0.0393365
-0.0392781
-0.0392338
-0.0392039
-0.0391889
-0.038535
-0.0384851
-0.0386814
-0.0388234
-0.0389762
-0.0391
-0.0391946
-0.0392588
-0.0392934
-0.0393008
-0.0392836
-0.0392448
-0.0391875
-0.0391148
-0.0390298
-0.0389354
-0.0388345
-0.0387298
-0.0386237
-0.0385185
-0.0384163
-0.0383191
-0.0382285
-0.038146
-0.0380728
-0.0380102
-0.0379591
-0.0379201
-0.0378938
-0.0378805
-0.0350681
-0.0352944
-0.0357368
-0.0361031
-0.0364525
-0.0367464
-0.0369877
-0.0371781
-0.0373215
-0.0374225
-0.0374862
-0.0375174
-0.0375208
-0.0375009
-0.0374618
-0.0374075
-0.0373417
-0.0372675
-0.0371882
-0.0371064
-0.0370245
-0.0369449
-0.0368694
-0.0367998
-0.0367375
-0.0366837
-0.0366394
-0.0366056
-0.0365826
-0.0365711
-0.0316814
-0.0321747
-0.0328539
-0.0334365
-0.0339751
-0.0344329
-0.0348156
-0.0351278
-0.0353759
-0.0355672
-0.0357087
-0.0358072
-0.0358689
-0.0358996
-0.0359046
-0.0358888
-0.0358564
-0.0358116
-0.0357578
-0.0356984
-0.035636
-0.0355732
-0.0355121
-0.0354548
-0.0354027
-0.0353573
-0.0353197
-0.0352907
-0.035271
-0.0352611
-0.0283885
-0.0291377
-0.0300432
-0.0308325
-0.0315519
-0.0321663
-0.0326843
-0.0331127
-0.0334608
-0.0337382
-0.0339541
-0.0341167
-0.034234
-0.0343129
-0.0343598
-0.0343805
-0.03438
-0.0343631
-0.0343336
-0.0342953
-0.0342514
-0.0342045
-0.0341572
-0.0341115
-0.0340692
-0.0340318
-0.0340004
-0.0339761
-0.0339595
-0.0339511
-0.0252015
-0.0261942
-0.0273141
-0.0282995
-0.0291902
-0.0299529
-0.0305989
-0.0311375
-0.0315802
-0.0319391
-0.0322251
-0.0324484
-0.0326181
-0.0327425
-0.032829
-0.0328841
-0.0329137
-0.0329229
-0.0329164
-0.032898
-0.0328714
-0.0328396
-0.0328053
-0.0327706
-0.0327375
-0.0327075
-0.0326821
-0.0326621
-0.0326484
-0.0326414
-0.0221315
-0.023354
-0.0246755
-0.0258454
-0.0268967
-0.0277987
-0.0285648
-0.0292065
-0.0297379
-0.030173
-0.0305246
-0.0308046
-0.0310233
-0.0311902
-0.0313135
-0.0314008
-0.0314584
-0.0314921
-0.0315069
-0.0315072
-0.0314969
-0.0314791
-0.0314569
-0.0314324
-0.031408
-0.0313851
-0.0313652
-0.0313493
-0.0313383
-0.0313327
-0.0191888
-0.0206264
-0.0221357
-0.0234772
-0.0246778
-0.0257091
-0.0265865
-0.0273237
-0.0279371
-0.0284427
-0.028855
-0.0291873
-0.0294512
-0.0296573
-0.0298147
-0.0299316
-0.0300151
-0.0300714
-0.030106
-0.0301236
-0.0301283
-0.0301236
-0.0301125
-0.0300977
-0.0300812
-0.0300648
-0.0300501
-0.030038
-0.0300296
-0.0300252
-0.0163825
-0.0180195
-0.0197021
-0.0212017
-0.0225393
-0.0236891
-0.0246684
-0.0254929
-0.0261812
-0.026751
-0.0272185
-0.0275984
-0.0279035
-0.0281452
-0.0283337
-0.0284776
-0.0285847
-0.0286617
-0.0287144
-0.0287478
-0.0287662
-0.0287735
-0.0287727
-0.0287666
-0.0287575
-0.0287472
-0.0287372
-0.0287287
-0.0287225
-0.0287193
-0.0137211
-0.0155412
-0.0173816
-0.0190249
-0.0204864
-0.0217433
-0.0228143
-0.0237173
-0.0244728
-0.0251002
-0.0256172
-0.0260397
-0.0263816
-0.0266553
-0.0268715
-0.0270397
-0.0271681
-0.0272636
-0.0273326
-0.0273802
-0.0274111
-0.0274292
-0.0274378
-0.0274397
-0.0274373
-0.0274325
-0.0274269
-0.0274216
-0.0274176
-0.0274154
-0.0112121
-0.0131982
-0.0151803
-0.0169521
-0.0185239
-0.0198758
-0.0210278
-0.022
-0.0228144
-0.0234924
-0.0240527
-0.0245126
-0.0248868
-0.0251885
-0.0254292
-0.0256187
-0.0257657
-0.0258777
-0.0259611
-0.0260214
-0.0260635
-0.0260913
-0.0261083
-0.0261173
-0.026121
-0.0261211
-0.0261194
-0.0261171
-0.026115
-0.0261138
-0.00886241
-0.0109968
-0.0131039
-0.0149883
-0.0166561
-0.0180901
-0.0193119
-0.0203433
-0.0212083
-0.0219293
-0.0225266
-0.0230183
-0.02342
-0.0237457
-0.0240072
-0.0242151
-0.0243782
-0.0245045
-0.0246004
-0.0246718
-0.0247236
-0.0247599
-0.0247843
-0.0247997
-0.0248087
-0.0248133
-0.0248151
-0.0248153
-0.024815
-0.0248147
-0.00667841
-0.00894274
-0.0111573
-0.0131378
-0.0148866
-0.0163893
-0.0176692
-0.0187496
-0.0196561
-0.0204125
-0.0210401
-0.0215578
-0.0219822
-0.0223276
-0.0226064
-0.0228295
-0.0230061
-0.0231442
-0.0232508
-0.0233316
-0.0233917
-0.0234354
-0.0234662
-0.0234872
-0.0235008
-0.0235093
-0.0235142
-0.0235167
-0.0235179
-0.0235184
-0.00466589
-0.00704105
-0.00934495
-0.0114043
-0.0132184
-0.014776
-0.0161017
-0.0172204
-0.0181592
-0.018943
-0.019594
-0.0201319
-0.0205738
-0.0209346
-0.021227
-0.0214621
-0.0216495
-0.0217973
-0.0219125
-0.0220011
-0.0220681
-0.0221179
-0.0221541
-0.0221798
-0.0221975
-0.0222093
-0.0222168
-0.0222213
-0.0222239
-0.022225
-0.00283005
-0.00529623
-0.00767061
-0.00979099
-0.0116542
-0.0132523
-0.014611
-0.0157571
-0.0167186
-0.0175216
-0.018189
-0.018741
-0.0191953
-0.0195671
-0.0198693
-0.0201133
-0.0203087
-0.0204639
-0.0205857
-0.0206804
-0.0207529
-0.0208076
-0.0208483
-0.0208778
-0.0208988
-0.0209134
-0.0209232
-0.0209294
-0.020933
-0.0209347
-0.00117579
-0.00371242
-0.00613764
-0.00830039
-0.010196
-0.0118195
-0.0131983
-0.0143603
-0.0153349
-0.0161486
-0.0168252
-0.0173853
-0.0178468
-0.0182251
-0.0185334
-0.018783
-0.0189837
-0.0191439
-0.0192704
-0.0193695
-0.0194461
-0.0195046
-0.0195487
-0.0195813
-0.019605
-0.0196218
-0.0196333
-0.0196409
-0.0196455
-0.0196477
0.000292665
-0.00229294
-0.00474853
-0.00693432
-0.0088449
-0.0104786
-0.011864
-0.0130305
-0.0140081
-0.0148242
-0.0155027
-0.0160647
-0.0165281
-0.0169085
-0.0172191
-0.0174712
-0.0176745
-0.0178374
-0.0179667
-0.0180685
-0.0181479
-0.018209
-0.0182555
-0.0182903
-0.018316
-0.0183345
-0.0183475
-0.0183562
-0.0183615
-0.018364
0.00157116
-0.00104097
-0.00350553
-0.00569427
-0.00760183
-0.00922987
-0.0106082
-0.0117674
-0.012738
-0.0135478
-0.0142211
-0.0147788
-0.0152389
-0.015617
-0.0159261
-0.0161775
-0.0163808
-0.016544
-0.0166742
-0.0167772
-0.0168579
-0.0169205
-0.0169684
-0.0170048
-0.0170318
-0.0170515
-0.0170656
-0.017075
-0.0170809
-0.0170837
0.00265659
4.15868e-05
-0.00240953
-0.00458036
-0.00646643
-0.00807269
-0.00943014
-0.0105701
-0.0115237
-0.0123188
-0.0129795
-0.0135269
-0.0139786
-0.0143501
-0.0146541
-0.0149017
-0.0151023
-0.0152638
-0.015393
-0.0154956
-0.0155763
-0.0156393
-0.0156878
-0.0157248
-0.0157526
-0.0157731
-0.0157878
-0.0157978
-0.015804
-0.015807
0.00354545
0.000952513
-0.00146165
-0.00359291
-0.0054384
-0.00700637
-0.00832881
-0.00943765
-0.0103641
-0.0111359
-0.011777
-0.012308
-0.0127463
-0.0131068
-0.0134021
-0.0136429
-0.0138383
-0.0139959
-0.0141223
-0.014223
-0.0143025
-0.0143647
-0.014413
-0.01445
-0.014478
-0.0144987
-0.0145137
-0.0145239
-0.0145303
-0.0145334
0.00423625
0.00169196
-0.000660524
-0.0027298
-0.00451528
-0.0060284
-0.00730184
-0.00836783
-0.00925734
-0.00999765
-0.0106122
-0.011121
-0.011541
-0.0118866
-0.0121698
-0.012401
-0.0125888
-0.0127405
-0.0128624
-0.0129597
-0.0130368
-0.0130974
-0.0131446
-0.0131809
-0.0132085
-0.013229
-0.0132439
-0.0132542
-0.0132606
-0.0132637
0.00472624
0.00225868
-6.25156e-06
-0.00199034
-0.00369583
-0.00513715
-0.00634742
-0.00735869
-0.00820138
-0.00890198
-0.00948316
-0.00996413
-0.0103611
-0.0106877
-0.0109555
-0.0111742
-0.0113521
-0.011496
-0.0116118
-0.0117044
-0.011778
-0.0118359
-0.0118812
-0.0119162
-0.0119428
-0.0119628
-0.0119773
-0.0119874
-0.0119937
-0.0119967
0.00501676
0.00265631
0.0005062
-0.0013689
-0.00297448
-0.00432751
-0.00546103
-0.00640645
-0.00719314
-0.00784648
-0.00838804
-0.008836
-0.00920563
-0.00950976
-0.0097592
-0.00996302
-0.0101289
-0.0102632
-0.0103715
-0.0104582
-0.0105272
-0.0105817
-0.0106244
-0.0106574
-0.0106827
-0.0107017
-0.0107155
-0.0107252
-0.0107312
-0.0107342
0.0051058
0.0028842
0.000877108
-0.000864559
-0.00234977
-0.00359762
-0.00464051
-0.00550868
-0.00623001
-0.0068284
-0.00732401
-0.00773372
-0.00807169
-0.00834974
-0.00857781
-0.00876424
-0.00891603
-0.00903908
-0.00913832
-0.00921793
-0.00928138
-0.00933159
-0.00937099
-0.00940159
-0.00942505
-0.0094427
-0.00945562
-0.00946463
-0.00947032
-0.00947309
0.00500021
0.00295234
0.00111801
-0.000465692
-0.00181102
-0.00293823
-0.00387819
-0.00465931
-0.00530743
-0.00584452
-0.00628901
-0.00665628
-0.00695913
-0.00720827
-0.00741264
-0.00757975
-0.00771587
-0.00782629
-0.00791544
-0.00798703
-0.00804416
-0.00808945
-0.00812505
-0.00815277
-0.00817406
-0.00819012
-0.00820189
-0.00821012
-0.00821532
-0.00821781
0.0046981
0.00285903
0.00122726
-0.000173615
-0.0013589
-0.0023491
-0.00317292
-0.00385628
-0.00442251
-0.00489124
-0.00527886
-0.00559894
-0.0058628
-0.00607982
-0.00625784
-0.00640342
-0.00652206
-0.00661834
-0.00669613
-0.00675865
-0.0068086
-0.00684825
-0.00687946
-0.0069038
-0.00692253
-0.00693668
-0.00694708
-0.00695435
-0.00695897
-0.00696127
0.004217
0.00262656
0.00122879
3.44222e-05
-0.000973448
-0.00181378
-0.00251181
-0.00309012
-0.00356885
-0.00396486
-0.00429215
-0.00456233
-0.004785
-0.00496814
-0.00511839
-0.00524131
-0.00534151
-0.0054229
-0.0054887
-0.00554165
-0.005584
-0.00561767
-0.00564421
-0.00566495
-0.00568093
-0.00569304
-0.00570194
-0.00570818
-0.00571214
-0.00571399
0.00355156
0.00224623
0.00111198
0.000147825
-0.000663514
-0.00133838
-0.001898
-0.00236104
-0.00274398
-0.00306052
-0.00332199
-0.00353775
-0.00371553
-0.00386173
-0.00398168
-0.00407983
-0.00415987
-0.00422491
-0.00427753
-0.0043199
-0.00435383
-0.00438082
-0.00440213
-0.0044188
-0.00443168
-0.00444144
-0.00444863
-0.00445366
-0.00445687
-0.00445861
0.00274097
0.00176483
0.000924859
0.00021059
-0.00039178
-0.000893282
-0.00130956
-0.00165423
-0.00193942
-0.00217522
-0.00237005
-0.00253088
-0.00266346
-0.00277255
-0.00286213
-0.00293549
-0.00299539
-0.00304413
-0.00308363
-0.00311549
-0.00314106
-0.00316145
-0.00317759
-0.00319025
-0.00320005
-0.0032075
-0.00321301
-0.00321687
-0.00321929
-0.00322028
0.00176093
0.00114622
0.000625964
0.000182856
-0.000191527
-0.000503085
-0.000761951
-0.000976416
-0.00115395
-0.00130079
-0.00142215
-0.00152237
-0.00160501
-0.00167306
-0.00172897
-0.00177479
-0.00181225
-0.00184276
-0.00186752
-0.00188752
-0.0019036
-0.00191645
-0.00192664
-0.00193465
-0.00194087
-0.00194561
-0.00194912
-0.00195157
-0.00195312
-0.00195416
0.00068866
0.00048073
0.000304297
0.000144195
3.20494e-06
-0.000117374
-0.000219979
-0.000306287
-0.000378514
-0.000438722
-0.000488811
-0.000530417
-0.000564931
-0.000593523
-0.000617173
-0.000636701
-0.00065279
-0.000666012
-0.000676845
-0.00068569
-0.00069288
-0.000698694
-0.000703365
-0.000707084
-0.000710008
-0.000712265
-0.000713958
-0.000715159
-0.000715826
-0.000715474
-0.171918
-0.167523
-0.163104
-0.15869
-0.154314
-0.150005
-0.145793
-0.141705
-0.137768
-0.134006
-0.130439
-0.127087
-0.123964
-0.121083
-0.118452
-0.11608
-0.113966
-0.11211
-0.110508
-0.109149
-0.108022
-0.107111
-0.106395
-0.105851
-0.105452
-0.105169
-0.104972
-0.104829
-0.104709
-0.104582
-0.104415
-0.10418
-0.103846
-0.103386
-0.102774
-0.101988
-0.101006
-0.0998151
-0.0984013
-0.0967568
-0.0948776
-0.0927636
-0.0904187
-0.0878505
-0.0850703
-0.082092
-0.0789327
-0.0756112
-0.0721482
-0.0685656
-0.064886
-0.0611323
-0.0573272
-0.0534933
-0.0496524
-0.0458252
-0.0420315
-0.03829
-0.0346181
-0.0310317
-0.0275457
-0.0241736
-0.0209276
-0.0178188
-0.0148573
-0.0120522
-0.00941187
-0.00694384
-0.004655
-0.00255175
-0.000639914
0.0010749
0.00258767
0.00389329
0.00498748
0.00586539
0.0065238
0.00695802
0.00716679
0.00714571
0.0068976
0.00641875
0.00572021
0.00479835
0.00368001
0.0023555
0.000880029