/*--------------------------------*- C++ -*----------------------------------*\
  =========                 |
  \\      /  F ield         | OpenFOAM: The Open Source CFD Toolbox
   \\    /   O peration     | Website:  https://openfoam.org
    \\  /    A nd           | Version:  7
     \\/     M anipulation  |
\*---------------------------------------------------------------------------*/
FoamFile
{
    version     2.0;
    format      ascii;
    class       volScalarField;
    location    "95";
    object      p;
}
// * * * * * * * * * * * * * * * * * * * * * * * * * * * * * * * * * * * * * //

dimensions      [0 2 -2 0 0 0 0];

internalField   nonuniform List<scalar> 
3500
(
-0.228501
-0.232109
0.634542
0.598817
0.559257
0.63439
0.598686
0.559144
0.512538
0.466827
0.423807
0.384628
0.349526
0.318489
0.291158
0.617348
0.584636
0.547809
0.503326
0.459266
0.417532
0.379332
0.344975
0.314632
0.288168
0.58401
0.557087
0.52558
0.485256
0.44443
0.405222
0.368945
0.336052
0.307046
0.282223
0.535533
0.516858
0.493105
0.458828
0.422705
0.387179
0.353722
0.322964
0.295861
0.273316
0.473581
0.465171
0.451351
0.424781
0.394661
0.363863
0.33405
0.306029
0.281273
0.261485
0.400177
0.403703
0.401583
0.384061
0.361017
0.335828
0.310379
0.285617
0.263527
0.246833
0.317462
0.334626
0.345289
0.337776
0.322617
0.30374
0.283298
0.262278
0.243013
0.229537
0.228271
0.260095
0.284053
0.287171
0.280439
0.268367
0.253433
0.236547
0.220067
0.209668
0.135839
0.182321
0.219516
0.233539
0.235479
0.230431
0.221331
0.209071
0.195508
0.187543
0.0435152
0.103537
0.153369
0.178221
0.188813
0.190801
0.1877
0.180592
0.170378
0.162818
-0.0453388
0.0258523
0.0873136
0.122537
0.141495
0.150291
0.152962
0.151164
0.145481
0.136919
-0.127589
-0.0491075
0.0230211
0.0677354
0.09452
0.109749
0.117811
0.121146
0.120706
0.115992
-0.199745
-0.12007
-0.0379429
0.0149216
0.0488152
0.0699828
0.0829862
0.0909408
0.0955214
0.095371
-0.261303
-0.1834
-0.0944495
-0.0348957
0.00521542
0.0316487
0.0490546
0.0608258
0.0693413
0.0732777
-0.311721
-0.236902
-0.145781
-0.0807216
-0.0355667
-0.00473834
0.0164702
0.0312624
0.0426629
0.0499684
-0.350563
-0.28069
-0.190546
-0.121867
-0.072986
-0.0387354
-0.0143554
0.00283712
0.0163543
0.0264457
-0.378052
-0.314722
-0.227716
-0.158094
-0.106874
-0.0699467
-0.04312
-0.0239273
-0.00890748
0.00344649
-0.395121
-0.33887
-0.257201
-0.188858
-0.136862
-0.098369
-0.0697701
-0.048708
-0.0326174
-0.0188255
-0.403124
-0.353259
-0.279234
-0.214027
-0.162679
-0.12369
-0.0940779
-0.0716652
-0.054524
-0.0403769
-0.403459
-0.358395
-0.294135
-0.233808
-0.184351
-0.145791
-0.115909
-0.0927708
-0.0748463
-0.0601431
-0.397299
-0.355328
-0.302415
-0.248563
-0.202091
-0.164774
-0.135294
-0.111984
-0.0935635
-0.0781067
-0.385623
-0.345963
-0.304941
-0.258714
-0.216165
-0.180876
-0.152393
-0.129352
-0.110771
-0.0948286
-0.369547
-0.33295
-0.302889
-0.264656
-0.226889
-0.194399
-0.16746
-0.145076
-0.126635
-0.110713
-0.35073
-0.319193
-0.297145
-0.266781
-0.23464
-0.205689
-0.180788
-0.159402
-0.141364
-0.125809
-0.331349
-0.306393
-0.288803
-0.265772
-0.239875
-0.215065
-0.192669
-0.172623
-0.155088
-0.14012
-0.31344
-0.294747
-0.27974
-0.262757
-0.243078
-0.222827
-0.203327
-0.184986
-0.168133
-0.153643
-0.298227
-0.284196
-0.271698
-0.258996
-0.244769
-0.229161
-0.212967
-0.196725
-0.180653
-0.166752
-0.285746
-0.275087
-0.265193
-0.255427
-0.245466
-0.234286
-0.221569
-0.208017
-0.193085
-0.179465
-0.275739
-0.267701
-0.259997
-0.252513
-0.245676
-0.238309
-0.229233
-0.218676
-0.205454
-0.192903
-0.267808
-0.261907
-0.255938
-0.25035
-0.245771
-0.24138
-0.235708
-0.228746
-0.217482
-0.207005
-0.261485
-0.25736
-0.25288
-0.248869
-0.245956
-0.243694
-0.24107
-0.236713
-0.230002
-0.222811
-0.256248
-0.253692
-0.250531
-0.247918
-0.24632
-0.245356
-0.245764
-0.241487
-0.241497
-0.235232
-0.251735
-0.250482
-0.248508
-0.247151
-0.246722
-0.246421
-0.249759
-0.242809
-0.251314
-0.242476
-0.24761
-0.247436
-0.246504
-0.246225
-0.246769
-0.246977
-0.25206
-0.243382
-0.258489
-0.244149
-0.243647
-0.244412
-0.244343
-0.2449
-0.246196
-0.24689
-0.25231
-0.244902
-0.260693
-0.243903
-0.239812
-0.241417
-0.241992
-0.243152
-0.244814
-0.246166
-0.251093
-0.245926
-0.258398
-0.244789
-0.236214
-0.23855
-0.239564
-0.24108
-0.242934
-0.244872
-0.248235
-0.246334
-0.254527
-0.245137
-0.233058
-0.235988
-0.237273
-0.238962
-0.240896
-0.242965
-0.24527
-0.245443
-0.249377
-0.244722
-0.230588
-0.233944
-0.235372
-0.23711
-0.239012
-0.240946
-0.242691
-0.243537
-0.245188
-0.24273
-0.229023
-0.232609
-0.234081
-0.235788
-0.237584
-0.239305
-0.24069
-0.241457
-0.242046
-0.240232
0.270032
0.253443
0.238838
0.226145
0.214923
0.205089
0.196373
0.188684
0.181847
0.175785
0.170379
0.165565
0.161253
0.157388
0.15392
0.150831
0.148082
0.145641
0.143476
0.141563
0.139879
0.138408
0.137133
0.136043
0.135125
0.134371
0.133773
0.133328
0.133035
0.132892
0.267842
0.251727
0.237413
0.224966
0.213931
0.204258
0.195667
0.188083
0.181329
0.175335
0.169984
0.165214
0.160942
0.157117
0.153682
0.150613
0.147877
0.145448
0.143293
0.141389
0.139714
0.138249
0.136981
0.135895
0.134981
0.134231
0.133636
0.133192
0.132898
0.132754
0.263452
0.248302
0.234591
0.222655
0.211996
0.202644
0.194298
0.186921
0.180327
0.174467
0.169221
0.164541
0.160346
0.156593
0.153217
0.150181
0.147476
0.145074
0.142941
0.141055
0.139395
0.137944
0.136686
0.13561
0.134704
0.13396
0.133371
0.132929
0.132634
0.132487
0.2568
0.243144
0.230378
0.219237
0.209152
0.200282
0.192299
0.185225
0.178867
0.173202
0.16811
0.163558
0.159469
0.155812
0.152527
0.14957
0.146903
0.144532
0.142427
0.140566
0.138928
0.137496
0.136254
0.135191
0.134297
0.133564
0.132981
0.132543
0.132245
0.132097
0.24784
0.236219
0.224748
0.2147
0.205392
0.197176
0.189679
0.183009
0.176962
0.171554
0.166665
0.162281
0.158326
0.154784
0.151604
0.148749
0.146155
0.143828
0.141762
0.139933
0.138322
0.136913
0.135691
0.134646
0.133767
0.133046
0.132473
0.132038
0.131739
0.131587
0.236588
0.227566
0.217758
0.20913
0.200804
0.19341
0.186511
0.180337
0.174665
0.169569
0.164924
0.160742
0.156948
0.153538
0.150466
0.147719
0.145246
0.14299
0.140952
0.139163
0.137586
0.136204
0.135006
0.133982
0.13312
0.132414
0.131852
0.131422
0.131121
0.130966
0.223079
0.217189
0.209351
0.202433
0.195284
0.188885
0.182714
0.177145
0.171932
0.167216
0.162866
0.158929
0.155331
0.152081
0.149133
0.146485
0.144106
0.141978
0.14005
0.138287
0.136731
0.135387
0.134216
0.133209
0.132365
0.131675
0.131127
0.130703
0.1304
0.130244
0.207296
0.205107
0.199651
0.194847
0.189122
0.183904
0.178562
0.173673
0.168961
0.164656
0.160623
0.156948
0.153558
0.15048
0.147671
0.145133
0.142836
0.140776
0.138934
0.137299
0.135822
0.134482
0.133299
0.132324
0.131513
0.130843
0.130305
0.129888
0.129587
0.12943
0.189584
0.19149
0.188646
0.186045
0.181863
0.177928
0.173555
0.169463
0.165369
0.161571
0.157938
0.154594
0.151468
0.14861
0.145979
0.143589
0.141412
0.139447
0.137676
0.136094
0.134687
0.133453
0.132381
0.131422
0.130599
0.129923
0.129395
0.128989
0.128692
0.128538
0.168911
0.175798
0.176169
0.17659
0.174422
0.172157
0.168851
0.165642
0.162139
0.158833
0.155545
0.152488
0.149573
0.14689
0.144393
0.142115
0.140027
0.138139
0.136428
0.134894
0.133521
0.132314
0.131263
0.130355
0.129584
0.128947
0.128426
0.128019
0.127727
0.127583
0.14274
0.154403
0.159938
0.16254
0.162735
0.161967
0.160233
0.158161
0.155729
0.153246
0.150694
0.148224
0.145822
0.143561
0.141426
0.13945
0.137621
0.135952
0.13443
0.133057
0.131823
0.130729
0.129768
0.128939
0.128238
0.12766
0.127192
0.126831
0.126582
0.126457
0.126838
0.136225
0.143384
0.147618
0.14985
0.150589
0.150339
0.14945
0.148109
0.146527
0.144779
0.142986
0.141179
0.139422
0.137727
0.136127
0.134624
0.133234
0.131953
0.130788
0.129734
0.128793
0.12796
0.127237
0.126622
0.126112
0.125703
0.125393
0.125185
0.125083
0.113714
0.122385
0.129582
0.134581
0.138
0.139911
0.140829
0.140957
0.140565
0.1398
0.138793
0.137637
0.136398
0.135131
0.133869
0.132643
0.131468
0.130361
0.129327
0.128375
0.127507
0.126725
0.126029
0.12542
0.124899
0.124464
0.124115
0.123854
0.123681
0.123596
0.102291
0.110702
0.117867
0.123299
0.127381
0.13013
0.131924
0.132894
0.133299
0.133252
0.132903
0.13233
0.131615
0.130809
0.129957
0.12909
0.128232
0.127401
0.126611
0.12587
0.125185
0.124562
0.124002
0.12351
0.123085
0.122729
0.122442
0.122228
0.122087
0.122018
0.0924387
0.100598
0.107729
0.113434
0.117934
0.121265
0.123699
0.125339
0.126394
0.126963
0.127186
0.127135
0.126894
0.126513
0.126043
0.125515
0.124959
0.124395
0.123839
0.123304
0.122799
0.122332
0.121907
0.121529
0.121199
0.120922
0.120698
0.12053
0.120419
0.120365
0.0839665
0.091846
0.0988893
0.104735
0.109512
0.113252
0.116157
0.118316
0.119895
0.120981
0.121693
0.1221
0.122282
0.122288
0.122168
0.121956
0.121683
0.121372
0.12104
0.120703
0.120373
0.120057
0.119763
0.119496
0.119261
0.119061
0.118898
0.118775
0.118694
0.118654
0.0766577
0.0842588
0.0911643
0.0970464
0.101994
0.106015
0.10927
0.111828
0.113825
0.115335
0.116461
0.117264
0.117818
0.11817
0.118368
0.118446
0.118436
0.11836
0.118241
0.118092
0.117928
0.117757
0.11759
0.117431
0.117287
0.117161
0.117058
0.116979
0.116926
0.116901
0.0703304
0.0776624
0.0843992
0.0902478
0.0952806
0.0994872
0.102996
0.105858
0.108187
0.110042
0.111514
0.112655
0.113533
0.11419
0.114673
0.115013
0.115244
0.115387
0.115464
0.115492
0.115485
0.115453
0.115406
0.115351
0.115294
0.11524
0.115193
0.115156
0.115131
0.115119
0.0648398
0.0719096
0.0784598
0.0842306
0.0892874
0.093606
0.0972937
0.100383
0.102971
0.105106
0.106863
0.108291
0.109447
0.11037
0.111105
0.111681
0.11213
0.112473
0.112732
0.112924
0.113064
0.113162
0.113228
0.113271
0.113297
0.113312
0.113319
0.113322
0.113323
0.113323
0.0600674
0.0668807
0.073234
0.0788988
0.0839357
0.088312
0.0921189
0.0953752
0.0981638
0.10052
0.102513
0.104179
0.105573
0.106728
0.107684
0.108469
0.109114
0.109638
0.110063
0.110406
0.110681
0.1109
0.111072
0.111207
0.111311
0.11139
0.111449
0.111489
0.111515
0.111528
0.0559135
0.0624767
0.0686285
0.0741691
0.0791556
0.0835497
0.0874298
0.0908046
0.0937447
0.0962767
0.0984596
0.100325
0.101919
0.103272
0.104421
0.105391
0.106209
0.106896
0.107472
0.107952
0.108352
0.108682
0.108953
0.109174
0.109351
0.10949
0.109596
0.109672
0.109721
0.109745
0.0522929
0.0586145
0.0645648
0.0699705
0.0748851
0.0792679
0.0831861
0.0866412
0.0896934
0.0923617
0.0946975
0.0967258
0.0984886
0.100011
0.101327
0.102458
0.10343
0.104261
0.104972
0.105577
0.10609
0.106522
0.106883
0.107183
0.107427
0.107622
0.107772
0.107882
0.107952
0.107986
0.0491333
0.0552232
0.0609757
0.0662413
0.07107
0.0754203
0.0793502
0.0828555
0.0859879
0.0887605
0.0912175
0.0933789
0.0952818
0.0969474
0.0984057
0.0996765
0.100783
0.101743
0.102575
0.103291
0.103906
0.104431
0.104875
0.105246
0.105552
0.105799
0.10599
0.10613
0.106221
0.106264
0.046373
0.0522425
0.0578039
0.0629284
0.0676626
0.0719655
0.0758872
0.0794195
0.0826067
0.0854572
0.0880089
0.0902778
0.0922961
0.0940818
0.0956616
0.097053
0.0982773
0.09935
0.100288
0.101104
0.101811
0.102419
0.102937
0.103374
0.103737
0.104031
0.10426
0.104427
0.104536
0.104589
0.0439597
0.0496211
0.055
0.0599855
0.064621
0.0688666
0.0727654
0.076307
0.0795288
0.0824357
0.0850603
0.0874149
0.0895275
0.0914133
0.0930959
0.0945905
0.0959164
0.0970875
0.0981192
0.0990233
0.0998119
0.100495
0.10108
0.101577
0.101991
0.102327
0.10259
0.102783
0.102908
0.102969
0.0418488
0.0473152
0.0525216
0.0573726
0.0619082
0.0660903
0.0699562
0.0734935
0.0767343
0.0796804
0.0823598
0.0847819
0.0869709
0.0889395
0.0907084
0.0922908
0.093704
0.0949604
0.0960741
0.0970558
0.0979168
0.0986659
0.0993118
0.0998614
0.100321
0.100696
0.10099
0.101206
0.101346
0.101415
0.0400025
0.0452875
0.0503324
0.055055
0.0594921
0.0636077
0.0674337
0.0709569
0.0742045
0.0771761
0.0798957
0.0823701
0.0846204
0.0866568
0.0884977
0.0901543
0.0916421
0.0929721
0.0941571
0.0952067
0.0961314
0.0969393
0.0976384
0.0982353
0.0987361
0.0991454
0.0994669
0.0997035
0.0998579
0.0999328
0.0383886
0.0435062
0.048401
0.0530027
0.0573444
0.0613927
0.0651748
0.068677
0.0719223
0.0749087
0.0776566
0.080171
0.0824697
0.0845613
0.0864617
0.0881807
0.0897319
0.0911249
0.0923714
0.0934801
0.0944605
0.09532
0.0960661
0.096705
0.0972423
0.0976822
0.0980284
0.0982835
0.09845
0.0985309
0.03698
0.0419442
0.0467008
0.0511897
0.0554407
0.0594227
0.063159
0.0666356
0.0698719
0.072865
0.0756318
0.0781759
0.0805125
0.0826486
0.0845979
0.0863689
0.0879735
0.0894203
0.0907196
0.0918793
0.0929081
0.0938126
0.0946
0.0952758
0.0958452
0.0963123
0.0966804
0.0969518
0.0971291
0.0972152
0.0357535
0.0405782
0.0452088
0.0495937
0.0537596
0.0576778
0.0613679
0.0648163
0.0680392
0.0710327
0.0738111
0.0763768
0.0787426
0.0809142
0.0829034
0.0847174
0.0863668
0.087859
0.0892034
0.0904069
0.0914774
0.0924211
0.0932443
0.0939523
0.0945499
0.0950409
0.0954281
0.095714
0.0959008
0.0959915
0.0346896
0.0393886
0.0439053
0.0481953
0.0522826
0.0561405
0.0597856
0.0632048
0.0664113
0.0694009
0.0721854
0.0747661
0.0771539
0.0793535
0.0813749
0.0832244
0.084911
0.0864415
0.087824
0.0890649
0.0901711
0.0911485
0.0920027
0.0927387
0.0933608
0.0938724
0.0942765
0.0945749
0.09477
0.0948648
0.0337719
0.0383589
0.0427737
0.0469782
0.0509938
0.0547957
0.0583982
0.0617882
0.0649769
0.0679595
0.070746
0.0733367
0.075741
0.0779624
0.0800096
0.0818879
0.0836053
0.0851676
0.0865822
0.0878547
0.0889913
0.0899974
0.0908782
0.0916382
0.0922814
0.092811
0.0932295
0.0935388
0.0937411
0.0938394
0.0329867
0.037475
0.0417998
0.0459283
0.0498794
0.0536306
0.0571933
0.0605554
0.0637259
0.0666998
0.0694854
0.0720823
0.0744985
0.0767367
0.0788043
0.0807059
0.0824485
0.0840372
0.0854784
0.0867774
0.0879396
0.08897
0.0898734
0.0906537
0.0913149
0.0918599
0.0922908
0.0926094
0.0928178
0.0929192
0.0323224
0.0367251
0.0409716
0.0450337
0.048928
0.0526338
0.0561607
0.0594968
0.0626497
0.0656141
0.0683968
0.0709972
0.0734218
0.0756727
0.0777563
0.0796766
0.0814395
0.0830497
0.0845129
0.0858337
0.0870173
0.088068
0.0889902
0.0897877
0.0904641
0.0910219
0.0914633
0.0917898
0.0920034
0.0921073
0.0317697
0.0360995
0.0402792
0.0442844
0.0481298
0.0517961
0.0552913
0.0586042
0.0617407
0.0646956
0.0674745
0.0700764
0.0725067
0.0747671
0.0768631
0.078798
0.0805772
0.0822047
0.0836857
0.0850243
0.0862254
0.0872927
0.0882305
0.0890421
0.089731
0.0902996
0.0907497
0.0910827
0.0913006
0.0914066
0.0313209
0.0355902
0.0397145
0.0436722
0.0474766
0.0511096
0.0545779
0.0578706
0.0609926
0.0639387
0.0667135
0.0693156
0.0717497
0.074017
0.0761223
0.0780685
0.0798604
0.0815015
0.0829966
0.0843495
0.0855645
0.0866452
0.0875955
0.0884186
0.0891176
0.0896948
0.0901519
0.0904902
0.0907117
0.0908194
0.0309697
0.035191
0.039271
0.0431906
0.0469619
0.0505679
0.0540142
0.0572903
0.0604002
0.0633387
0.0661096
0.0687112
0.0711477
0.0734199
0.0755321
0.0774867
0.0792882
0.0809397
0.0824457
0.0838095
0.0850352
0.0861263
0.0870863
0.0879183
0.0886252
0.0892091
0.0896717
0.0900142
0.0902384
0.0903474
0.0307121
0.0348972
0.0389435
0.0428343
0.0465805
0.0501661
0.0535956
0.056859
0.0599595
0.062892
0.0656595
0.0682605
0.0706983
0.0729738
0.0750908
0.0770514
0.0788598
0.0805188
0.0820326
0.0834044
0.084638
0.0857366
0.0867037
0.0875422
0.0882549
0.0888438
0.0893105
0.089656
0.0898822
0.0899922
0.0305453
0.0347051
0.038728
0.0425991
0.0463284
0.0499002
0.0533185
0.0565733
0.0596674
0.0625956
0.0653608
0.0679611
0.0703998
0.0726773
0.0747973
0.0767618
0.0785745
0.0802384
0.0817573
0.0831343
0.084373
0.0854766
0.0864483
0.0872911
0.0880076
0.0885998
0.0890691
0.0894166
0.0896441
0.0897549
0.0304664
0.0346108
0.0386211
0.0424824
0.046203
0.0497679
0.0531805
0.056431
0.0595218
0.0624479
0.0652118
0.0678118
0.0702508
0.0725293
0.0746507
0.0766171
0.078432
0.0800983
0.0816197
0.0829992
0.0842405
0.0853465
0.0863206
0.0871655
0.0878839
0.0884777
0.0889483
0.0892968
0.089525
0.0896361
0.127877
0.116795
0.105309
0.0947107
0.0853465
0.0771874
0.0701089
0.0639788
0.0586741
0.0540839
0.0501104
0.046668
0.0436833
0.0410933
0.038844
0.0368896
0.035191
0.0337152
0.0324342
0.0313245
0.030366
0.0295423
0.0288393
0.0282457
0.027752
0.0273507
0.0270356
0.026802
0.0266483
0.0265778
0.108612
0.0982656
0.089172
0.0806634
0.0730044
0.0662036
0.0602242
0.0550039
0.0504648
0.0465265
0.0431128
0.0401547
0.0375915
0.0353698
0.0334436
0.0317733
0.0303247
0.0290686
0.0279802
0.0270385
0.0262258
0.0255273
0.0249304
0.0244248
0.0240023
0.0236561
0.0233808
0.0231717
0.0230273
0.0229569
0.0876951
0.076278
0.0684729
0.0615774
0.055784
0.050778
0.0464403
0.0426781
0.0394139
0.0365807
0.0341199
0.0319808
0.0301205
0.028502
0.0270934
0.0258674
0.0248004
0.0238718
0.0230645
0.0223633
0.0217558
0.0212311
0.0207803
0.0203957
0.0200713
0.0198021
0.0195844
0.0194144
0.0192891
0.0192194
0.0675853
0.0569719
0.0503945
0.0444841
0.0399173
0.036187
0.0331227
0.0305688
0.0284165
0.0265865
0.0250184
0.0236658
0.0224942
0.0214758
0.0205886
0.0198145
0.0191379
0.0185463
0.0180287
0.0175763
0.0171814
0.0168374
0.0165389
0.0162811
0.0160603
0.0158734
0.0157181
0.0155921
0.0154903
0.0154205
0.0470214
0.038833
0.0344988
0.0299859
0.026636
0.023934
0.0218156
0.0201346
0.0187864
0.0176916
0.0167904
0.0160373
0.0154013
0.0148599
0.014396
0.0139958
0.0136481
0.0133446
0.0130786
0.0128448
0.012639
0.0124575
0.0122975
0.0121564
0.012032
0.0119225
0.011827
0.0117443
0.0116681
0.0115999
0.0259554
0.0204079
0.0187082
0.0161245
0.0143972
0.0129179
0.0117874
0.0109181
0.0102581
0.00975917
0.00938213
0.0090927
0.00886775
0.00869535
0.00856367
0.00846076
0.00837844
0.00831096
0.00825415
0.00820496
0.00816107
0.00812072
0.00808252
0.00804531
0.00800806
0.00796973
0.00792984
0.00788864
0.00784007
0.00777762
0.00518622
0.00212844
0.00274302
0.00206556
0.00207883
0.00196781
0.00195251
0.00197695
0.00204711
0.00215418
0.00228964
0.0024404
0.00258919
0.00275086
0.0029169
0.0030786
0.00323188
0.00337431
0.00350429
0.00362086
0.00372345
0.00381175
0.00388555
0.00394475
0.00398921
0.00401851
0.00403237
0.00403211
0.00401384
0.00396224
-0.0147601
-0.0151833
-0.0127096
-0.0117708
-0.0102532
-0.00909758
-0.00801628
-0.00707676
-0.00623956
-0.00548984
-0.00481212
-0.00419422
-0.00366622
-0.00315895
-0.00269064
-0.00226482
-0.00187893
-0.00153093
-0.00121901
-0.000941485
-0.000696846
-0.000483752
-0.000301054
-0.000147795
-2.31976e-05
7.30932e-05
0.000140965
0.000182231
0.000196782
0.000161399
-0.0337604
-0.0311585
-0.027348
-0.0248146
-0.0221002
-0.0198624
-0.0178419
-0.016083
-0.0145311
-0.0131613
-0.0119495
-0.0108563
-0.00994186
-0.00907348
-0.0082975
-0.0076029
-0.00698112
-0.00642539
-0.00593024
-0.00549112
-0.00510419
-0.00476624
-0.00447464
-0.0042272
-0.00402216
-0.00385824
-0.00373506
-0.00365112
-0.00360285
-0.00361576
-0.0516023
-0.0464501
-0.0413708
-0.0372498
-0.0334597
-0.0302248
-0.027376
-0.0248795
-0.0226777
-0.0207351
-0.0190198
-0.0174906
-0.0161354
-0.0149231
-0.01385
-0.0128946
-0.0120422
-0.0112822
-0.0106064
-0.0100077
-0.00948
-0.00901844
-0.00861885
-0.00827787
-0.00799272
-0.00776127
-0.00758224
-0.00745413
-0.00737458
-0.00735806
-0.0681739
-0.0612585
-0.0547104
-0.0491149
-0.0442306
-0.0400882
-0.0364911
-0.0333369
-0.0305522
-0.0280922
-0.0259173
-0.0239804
-0.0222451
-0.0207055
-0.0193449
-0.0181352
-0.0170569
-0.0160963
-0.0152426
-0.0144861
-0.0138192
-0.0132351
-0.0127283
-0.0122943
-0.0119293
-0.0116304
-0.0113954
-0.0112225
-0.0111102
-0.0110683
-0.0838791
-0.0755318
-0.0674027
-0.0604676
-0.0545603
-0.0495821
-0.0452646
-0.0414719
-0.038129
-0.0351841
-0.0325826
-0.0302686
-0.0281998
-0.0263605
-0.0247291
-0.0232765
-0.0219814
-0.0208279
-0.0198026
-0.0188939
-0.0180921
-0.0173891
-0.0167782
-0.0162538
-0.015811
-0.0154463
-0.0151567
-0.0149399
-0.0147933
-0.01473
-0.0991632
-0.089291
-0.0794938
-0.07125
-0.0644204
-0.0587005
-0.0537199
-0.0493247
-0.0454575
-0.0420593
-0.0390558
-0.0363842
-0.0340014
-0.0318796
-0.0299911
-0.0283062
-0.0268031
-0.0254639
-0.0242732
-0.0232173
-0.0222851
-0.0214671
-0.0207554
-0.0201432
-0.0196252
-0.0191967
-0.0188544
-0.0185951
-0.0184153
-0.0183295
-0.113979
-0.102625
-0.0912529
-0.0818261
-0.0741633
-0.0677099
-0.0620223
-0.0569932
-0.0526013
-0.0487587
-0.045359
-0.0423349
-0.0396435
-0.037247
-0.0351104
-0.0332025
-0.0315
-0.0299829
-0.0286334
-0.0274363
-0.026379
-0.0254508
-0.0246426
-0.0239467
-0.0233568
-0.0228678
-0.0224756
-0.0221765
-0.0219655
-0.0218567
-0.12841
-0.115585
-0.102478
-0.0918998
-0.0835558
-0.0764678
-0.0701071
-0.0644842
-0.0596082
-0.0553367
-0.0515413
-0.0481656
-0.045167
-0.0424972
-0.0401148
-0.0379875
-0.0360895
-0.0343979
-0.0328929
-0.0315577
-0.0303783
-0.0293427
-0.0284407
-0.0276637
-0.0270046
-0.0264575
-0.0260178
-0.0256815
-0.0254418
-0.025311
-0.1422
-0.128262
-0.113614
-0.102025
-0.0930278
-0.0851814
-0.0780418
-0.0718186
-0.0664718
-0.0617642
-0.0575683
-0.053846
-0.0505453
-0.0476047
-0.0449801
-0.0426381
-0.0405494
-0.0386879
-0.0370318
-0.0355629
-0.0342656
-0.0331267
-0.0321349
-0.0312807
-0.0305561
-0.0299546
-0.029471
-0.0291008
-0.0288361
-0.0286862
-0.155601
-0.140174
-0.123834
-0.111579
-0.102188
-0.0936205
-0.085771
-0.0790407
-0.0732436
-0.0680855
-0.0634895
-0.0594274
-0.0558247
-0.0526114
-0.049744
-0.0471872
-0.0449076
-0.0428762
-0.0410695
-0.0394677
-0.0380537
-0.0368129
-0.035733
-0.0348036
-0.0340159
-0.0333626
-0.0328378
-0.032437
-0.0321509
-0.0319851
-0.168598
-0.15209
-0.134405
-0.121574
-0.111468
-0.101917
-0.0933756
-0.0861709
-0.0798864
-0.0742595
-0.0692739
-0.0648771
-0.0609694
-0.0574825
-0.0543744
-0.0516049
-0.049136
-0.0469369
-0.0449822
-0.0432504
-0.0417227
-0.0403832
-0.0392185
-0.0382173
-0.0373701
-0.0366688
-0.036107
-0.0356798
-0.0353772
-0.0352001
-0.180856
-0.162432
-0.144268
-0.131495
-0.120591
-0.110153
-0.101091
-0.0933879
-0.08655
-0.0804476
-0.0750718
-0.0703208
-0.0660892
-0.0623169
-0.0589581
-0.0559657
-0.0532989
-0.050925
-0.0488168
-0.0469504
-0.0453055
-0.0438649
-0.042614
-0.0415405
-0.040634
-0.0398859
-0.0392891
-0.0388385
-0.0385237
-0.0383404
-0.194467
-0.174357
-0.15599
-0.142372
-0.130087
-0.118858
-0.109243
-0.100878
-0.093418
-0.086817
-0.0810035
-0.0758479
-0.0712577
-0.0671734
-0.0635395
-0.0603032
-0.0574215
-0.0548592
-0.0525861
-0.0505761
-0.0488069
-0.0472597
-0.0459187
-0.0447704
-0.0438035
-0.0430085
-0.0423779
-0.0419063
-0.0415838
-0.0414021
-0.207915
-0.187774
-0.169916
-0.154819
-0.141207
-0.129106
-0.118567
-0.109289
-0.101067
-0.0938089
-0.0873966
-0.0817073
-0.0766509
-0.0721566
-0.0681594
-0.0646024
-0.0614384
-0.058628
-0.0561371
-0.0539365
-0.0520016
-0.0503113
-0.0488478
-0.0475963
-0.0465441
-0.0456808
-0.0449982
-0.0444905
-0.044149
-0.0439628
-0.215375
-0.197418
-0.180091
-0.164363
-0.150131
-0.137469
-0.126284
-0.116373
-0.107591
-0.0998176
-0.0929253
-0.0868012
-0.0813559
-0.0765118
-0.0721999
-0.0683613
-0.0649462
-0.0619123
-0.0592229
-0.0568469
-0.0547577
-0.0529327
-0.0513527
-0.0500015
-0.0488656
-0.0479337
-0.0471969
-0.0466497
-0.0462841
-0.0460868
-0.216405
-0.200382
-0.184098
-0.168812
-0.154804
-0.142201
-0.130942
-0.120899
-0.111958
-0.104004
-0.0969207
-0.0906067
-0.0849779
-0.0799581
-0.0754804
-0.0714872
-0.0679293
-0.0647643
-0.0619555
-0.0594716
-0.0572856
-0.0553746
-0.0537191
-0.0523027
-0.0511115
-0.0501339
-0.0493609
-0.048787
-0.0484056
-0.0482031
-0.214717
-0.199442
-0.18411
-0.169689
-0.156343
-0.144192
-0.133236
-0.123393
-0.114575
-0.106685
-0.0996246
-0.0933063
-0.0876534
-0.0825962
-0.0780725
-0.0740287
-0.0704181
-0.0672002
-0.0643397
-0.0618064
-0.0595742
-0.0576207
-0.0559269
-0.0544764
-0.0532559
-0.0522539
-0.0514613
-0.0508729
-0.0504831
-0.0502794
-0.213173
-0.197911
-0.183175
-0.169501
-0.156816
-0.145181
-0.134616
-0.125067
-0.11646
-0.108717
-0.101757
-0.0955033
-0.0898878
-0.0848476
-0.0803264
-0.0762746
-0.0726488
-0.069411
-0.0665279
-0.0639707
-0.0617143
-0.0597374
-0.0580216
-0.0565512
-0.055313
-0.0542961
-0.0534916
-0.0528941
-0.052499
-0.052295
-0.212409
-0.197102
-0.182759
-0.169601
-0.157406
-0.146187
-0.135957
-0.126667
-0.118253
-0.110649
-0.103785
-0.0975959
-0.0920193
-0.086999
-0.0824837
-0.0784276
-0.0747903
-0.071536
-0.0686335
-0.0660553
-0.0637776
-0.0617798
-0.0600442
-0.0585556
-0.0573015
-0.0562711
-0.0554556
-0.0548497
-0.0544494
-0.0542444
-0.212002
-0.196905
-0.182936
-0.170156
-0.158313
-0.147408
-0.137441
-0.128358
-0.120101
-0.112609
-0.105823
-0.0996833
-0.0941345
-0.0891255
-0.084609
-0.080543
-0.0768895
-0.0736151
-0.07069
-0.0680882
-0.0657869
-0.0637663
-0.0620092
-0.0605012
-0.05923
-0.0581851
-0.0573579
-0.0567431
-0.0563368
-0.0561301
-0.211479
-0.196786
-0.183245
-0.17082
-0.159285
-0.148653
-0.138916
-0.130018
-0.121903
-0.114515
-0.107801
-0.101708
-0.0961856
-0.0911873
-0.0866698
-0.0825942
-0.0789251
-0.0756309
-0.0726838
-0.0700589
-0.0677344
-0.0656913
-0.0639133
-0.062386
-0.0610978
-0.0600385
-0.0591998
-0.058576
-0.0581638
-0.0579549
-0.210622
-0.196373
-0.183301
-0.171263
-0.160055
-0.149705
-0.140206
-0.131501
-0.123536
-0.116262
-0.109631
-0.103594
-0.0981083
-0.09313
-0.08862
-0.0845424
-0.0808645
-0.0775568
-0.074593
-0.0719497
-0.0696061
-0.0675441
-0.0657479
-0.0642041
-0.0629009
-0.0618289
-0.0609798
-0.0603482
-0.0599305
-0.0597196
-0.209388
-0.195556
-0.182973
-0.171358
-0.160511
-0.150473
-0.141234
-0.132741
-0.124945
-0.117803
-0.111271
-0.105307
-0.0998723
-0.0949274
-0.090437
-0.0863683
-0.0826913
-0.0793787
-0.0764057
-0.0737506
-0.0713936
-0.0693177
-0.0675078
-0.0659508
-0.0646358
-0.0635535
-0.062696
-0.0620579
-0.0616358
-0.061423
-0.207805
-0.194372
-0.182297
-0.171128
-0.160668
-0.150965
-0.142007
-0.133745
-0.126136
-0.119142
-0.112726
-0.10685
-0.101479
-0.0965804
-0.0921211
-0.0880717
-0.0844048
-0.0810954
-0.0781207
-0.0754602
-0.0730956
-0.0710106
-0.0691911
-0.0676247
-0.0663008
-0.0652106
-0.0643466
-0.0637033
-0.0632777
-0.0630636
-0.205903
-0.192886
-0.181351
-0.170645
-0.160586
-0.151231
-0.142567
-0.134549
-0.12714
-0.120306
-0.114017
-0.10824
-0.102945
-0.0981014
-0.0936821
-0.0896603
-0.0860112
-0.0827118
-0.0797414
-0.077081
-0.0747135
-0.0726238
-0.0707983
-0.0692255
-0.0678953
-0.0667994
-0.0659304
-0.0652833
-0.0648549
-0.0646398
-0.203686
-0.191144
-0.180191
-0.169963
-0.160313
-0.151313
-0.142952
-0.135186
-0.127983
-0.121319
-0.115164
-0.109494
-0.104282
-0.0995017
-0.0951296
-0.0911419
-0.0875165
-0.0842328
-0.0812717
-0.0786159
-0.0762495
-0.0741584
-0.0723301
-0.0707536
-0.0694193
-0.0683194
-0.067447
-0.0667971
-0.0663667
-0.0661508
-0.201148
-0.189169
-0.178844
-0.169107
-0.159875
-0.151238
-0.143183
-0.135674
-0.128684
-0.122194
-0.116181
-0.110623
-0.1055
-0.100789
-0.0964694
-0.0925212
-0.0889246
-0.0856612
-0.0827137
-0.0800664
-0.0777047
-0.0756154
-0.073787
-0.0722091
-0.0708727
-0.0697705
-0.0688959
-0.0682442
-0.0678123
-0.067596
-0.198303
-0.186989
-0.177321
-0.168089
-0.159284
-0.151015
-0.143273
-0.136025
-0.129252
-0.12294
-0.117073
-0.111633
-0.106603
-0.101966
-0.0977048
-0.0938009
-0.0902376
-0.0869987
-0.0840687
-0.0814335
-0.0790796
-0.076995
-0.075169
-0.0735919
-0.0722554
-0.0711524
-0.0702769
-0.0696241
-0.0691915
-0.0689749
-0.195193
-0.184633
-0.175636
-0.166916
-0.158548
-0.150656
-0.14323
-0.136247
-0.129695
-0.123565
-0.117847
-0.112529
-0.107597
-0.103039
-0.0988388
-0.0949832
-0.0914571
-0.0882465
-0.0853376
-0.0827177
-0.0803746
-0.0782975
-0.0764763
-0.0749021
-0.0735671
-0.0724648
-0.0715895
-0.0709367
-0.0705038
-0.0702872
-0.191876
-0.182138
-0.173808
-0.165605
-0.157684
-0.150173
-0.143067
-0.13635
-0.13002
-0.124075
-0.11851
-0.113316
-0.108485
-0.104009
-0.0998744
-0.0960706
-0.0925853
-0.0894062
-0.0865216
-0.0839199
-0.0815904
-0.0795231
-0.0777089
-0.0761396
-0.0748078
-0.0737076
-0.0728336
-0.0721815
-0.071749
-0.0715327
-0.188425
-0.179536
-0.171862
-0.16418
-0.15671
-0.149583
-0.142797
-0.136347
-0.13024
-0.124481
-0.119068
-0.114001
-0.109274
-0.104882
-0.100815
-0.0970662
-0.0936244
-0.0904798
-0.0876221
-0.0850413
-0.0827277
-0.0806725
-0.0788673
-0.0773046
-0.0759776
-0.0748808
-0.074009
-0.0733585
-0.0729268
-0.072711
-0.184911
-0.176853
-0.169825
-0.162667
-0.15565
-0.148905
-0.142436
-0.136251
-0.130365
-0.12479
-0.119531
-0.114591
-0.109969
-0.105662
-0.101665
-0.0979732
-0.0945772
-0.0914693
-0.0886408
-0.0860831
-0.0837876
-0.0817465
-0.0799521
-0.0783975
-0.0770767
-0.0759843
-0.0751158
-0.0744675
-0.0740372
-0.0738221
-0.181405
-0.174119
-0.167729
-0.161094
-0.154526
-0.148157
-0.141999
-0.136074
-0.130407
-0.125014
-0.119907
-0.115092
-0.110575
-0.106354
-0.102429
-0.0987949
-0.0954464
-0.092377
-0.0895795
-0.0870467
-0.0847712
-0.0827457
-0.0809637
-0.0794187
-0.0781053
-0.0770185
-0.0761541
-0.0755087
-0.0750801
-0.0748659
-0.17792
-0.171378
-0.165612
-0.15949
-0.153362
-0.147357
-0.141502
-0.135831
-0.130376
-0.125161
-0.120202
-0.115512
-0.111098
-0.106964
-0.10311
-0.0995345
-0.0962345
-0.0932049
-0.09044
-0.0879336
-0.0856794
-0.0836712
-0.0819029
-0.0803688
-0.0790638
-0.0779835
-0.077124
-0.076482
-0.0760556
-0.0758425
-0.17448
-0.168674
-0.163509
-0.157883
-0.152178
-0.146524
-0.140961
-0.135533
-0.130283
-0.125239
-0.120425
-0.115856
-0.111543
-0.107494
-0.103711
-0.100195
-0.0969441
-0.0939552
-0.0912239
-0.0887451
-0.0865136
-0.0845237
-0.0827703
-0.0812482
-0.0799527
-0.0788797
-0.0780257
-0.0773877
-0.0769638
-0.076752
-0.171126
-0.166053
-0.161453
-0.156299
-0.150996
-0.145675
-0.140388
-0.135192
-0.130137
-0.125258
-0.120583
-0.11613
-0.111916
-0.10795
-0.104237
-0.100779
-0.0975777
-0.0946299
-0.0919329
-0.0894826
-0.0872747
-0.0853043
-0.0835668
-0.0820575
-0.0807723
-0.0797075
-0.0788596
-0.0782261
-0.077805
-0.0775947
-0.167909
-0.163551
-0.159474
-0.154764
-0.149837
-0.144827
-0.139798
-0.13482
-0.129949
-0.125225
-0.120681
-0.116341
-0.112221
-0.108335
-0.10469
-0.10129
-0.0981376
-0.0952309
-0.0925686
-0.0901475
-0.0879639
-0.0860138
-0.084293
-0.0827974
-0.0815233
-0.0804672
-0.0796261
-0.0789974
-0.0785795
-0.0783707
-0.164883
-0.161203
-0.157603
-0.1533
-0.148719
-0.143994
-0.139204
-0.134427
-0.129726
-0.125147
-0.120727
-0.116492
-0.112462
-0.108653
-0.105074
-0.101731
-0.0986259
-0.0957603
-0.0931327
-0.0907411
-0.0885824
-0.0866531
-0.0849498