/*--------------------------------*- C++ -*----------------------------------*\
  =========                 |
  \\      /  F ield         | OpenFOAM: The Open Source CFD Toolbox
   \\    /   O peration     | Website:  https://openfoam.org
    \\  /    A nd           | Version:  7
     \\/     M anipulation  |
\*---------------------------------------------------------------------------*/
FoamFile
{
    version     2.0;
    format      ascii;
    class       volVectorField;
    location    "95";
    object      U;
}
// * * * * * * * * * * * * * * * * * * * * * * * * * * * * * * * * * * * * * //

dimensions      [0 1 -1 0 0 0 0];

internalField   nonuniform List<vector> 
3500
(
(-0.00739517 0.0011899 -4.75962e-22)
(-0.0295044 0.00253286 9.66339e-22)
(0.0723905 0.0406973 -1.41547e-21)
(0.224981 0.0494931 1.85986e-21)
(0.377796 0.0411843 1.37821e-19)
(0.0724457 -0.0421318 1.41002e-21)
(0.225061 -0.0512891 -1.85845e-21)
(0.377876 -0.0427724 -1.37762e-19)
(0.484401 -0.0351052 -2.45639e-20)
(0.573251 -0.0291971 -4.16809e-20)
(0.643799 -0.0245524 2.23153e-20)
(0.702641 -0.0208084 3.5416e-20)
(0.750915 -0.0177107 -3.25587e-20)
(0.791395 -0.0150734 -2.85632e-20)
(0.825179 -0.0129287 -1.96297e-20)
(0.0839825 -0.123716 1.66965e-19)
(0.239043 -0.15085 -1.18708e-19)
(0.389402 -0.125815 1.69104e-19)
(0.493625 -0.103254 -2.34708e-21)
(0.580692 -0.085886 9.868e-20)
(0.649905 -0.0722482 -8.12552e-21)
(0.707756 -0.0612632 -4.99833e-20)
(0.755322 -0.0521816 2.0211e-19)
(0.795149 -0.0444677 -4.74242e-20)
(0.828047 -0.0382256 -1.24558e-21)
(0.106513 -0.201611 -3.58306e-19)
(0.266474 -0.24679 4.17601e-20)
(0.412061 -0.206147 -2.27743e-19)
(0.511755 -0.16931 2.10906e-20)
(0.595311 -0.140942 1.96523e-19)
(0.661896 -0.118657 -1.32902e-19)
(0.717787 -0.100692 5.27932e-20)
(0.763953 -0.0858363 -4.92997e-20)
(0.802513 -0.0732511 1.30933e-19)
(0.833735 -0.0631437 -1.74215e-19)
(0.139086 -0.273516 -5.68098e-21)
(0.306465 -0.336806 5.13319e-19)
(0.445234 -0.282027 2.79926e-19)
(0.538309 -0.231933 -1.36314e-19)
(0.61674 -0.193303 -1.6048e-19)
(0.679479 -0.162926 2.40494e-19)
(0.732478 -0.138419 -9.2304e-20)
(0.776578 -0.118155 -5.77548e-20)
(0.813325 -0.101031 -1.92721e-19)
(0.842226 -0.0873908 2.45943e-19)
(0.180356 -0.337395 1.57276e-19)
(0.357706 -0.418729 -2.27652e-19)
(0.487986 -0.351845 -6.28458e-19)
(0.572554 -0.289942 2.98981e-19)
(0.644399 -0.242096 -2.66501e-19)
(0.702175 -0.204425 -3.76933e-19)
(0.751406 -0.173975 2.90796e-20)
(0.792825 -0.148732 -1.22009e-20)
(0.827331 -0.127401 2.74688e-19)
(0.853442 -0.110568 -1.28174e-19)
(0.228768 -0.391607 2.6639e-19)
(0.418537 -0.490519 -1.52522e-19)
(0.53911 -0.414145 7.75814e-19)
(0.613607 -0.342222 -3.62935e-19)
(0.677676 -0.286336 -3.55814e-20)
(0.729565 -0.242206 4.13572e-19)
(0.774251 -0.206439 1.27305e-19)
(0.812404 -0.176787 -1.06067e-19)
(0.844312 -0.151844 -1.77467e-19)
(0.867309 -0.132366 9.5343e-20)
(0.282442 -0.434471 -4.83279e-21)
(0.486934 -0.550422 4.06661e-19)
(0.597022 -0.467855 -4.45832e-19)
(0.660323 -0.387982 3.06207e-19)
(0.71562 -0.325529 -7.54401e-20)
(0.760769 -0.276159 -2.47784e-19)
(0.800123 -0.236134 4.07468e-19)
(0.834444 -0.202896 1.57102e-19)
(0.863654 -0.17472 -1.36461e-19)
(0.883588 -0.152594 -6.88634e-20)
(0.338973 -0.464416 -1.36428e-19)
(0.56064 -0.597237 -6.40632e-19)
(0.660061 -0.512189 6.22483e-19)
(0.711541 -0.426515 -1.65582e-19)
(0.757425 -0.358929 -3.6191e-19)
(0.795378 -0.305282 1.74134e-19)
(0.829004 -0.261519 3.55852e-20)
(0.859158 -0.224931 1.91112e-19)
(0.885622 -0.193932 -2.20532e-19)
(0.902436 -0.170293 1.47367e-19)
(0.39554 -0.480419 2.35994e-19)
(0.637141 -0.63023 -4.92453e-20)
(0.726503 -0.546632 -2.20696e-19)
(0.765994 -0.457419 8.95383e-20)
(0.802052 -0.386321 3.45147e-19)
(0.832435 -0.329762 -3.82323e-19)
(0.859748 -0.283652 -2.46362e-19)
(0.884771 -0.245357 -2.00445e-19)
(0.907889 -0.213014 1.61546e-19)
(0.92256 -0.188101 -1.20817e-19)
(0.449008 -0.482054 -5.36895e-20)
(0.71364 -0.649023 9.27887e-20)
(0.794538 -0.570915 5.59881e-20)
(0.82239 -0.480477 -1.46207e-19)
(0.84849 -0.407459 -2.4019e-20)
(0.871239 -0.349092 2.12605e-19)
(0.892195 -0.301204 -2.19506e-19)
(0.911933 -0.260907 3.10498e-19)
(0.931946 -0.225986 1.54541e-19)
(0.947091 -0.199712 -5.32234e-20)
(0.496216 -0.469699 -3.72072e-21)
(0.787476 -0.653956 -2.83448e-20)
(0.862373 -0.584973 -9.0049e-20)
(0.879439 -0.495686 -6.15218e-20)
(0.895739 -0.422333 5.99452e-20)
(0.910994 -0.36332 1.56601e-19)
(0.925783 -0.314665 -6.74819e-20)
(0.939947 -0.273968 -8.15923e-20)
(0.954705 -0.240582 -2.9953e-19)
(0.968993 -0.216977 1.6947e-19)
(0.533009 -0.44372 1.8731e-19)
(0.855651 -0.645461 1.82346e-20)
(0.928123 -0.588999 -2.88022e-20)
(0.935881 -0.503301 4.88103e-20)
(0.942833 -0.431136 -1.46917e-19)
(0.950858 -0.37259 -7.60829e-20)
(0.9598 -0.324052 -9.74782e-20)
(0.968589 -0.283554 1.7782e-19)
(0.977759 -0.250579 7.25622e-20)
(0.988426 -0.223331 -6.91529e-20)
(0.55703 -0.407347 9.94995e-20)
(0.915624 -0.62507 -1.44394e-19)
(0.990249 -0.583103 -2.06068e-20)
(0.99052 -0.503766 6.36524e-21)
(0.98889 -0.43415 3.5994e-20)
(0.990103 -0.377085 -9.36188e-21)
(0.993597 -0.329343 1.77094e-19)
(0.997631 -0.289253 -1.45499e-19)
(1.00178 -0.256427 -1.08995e-20)
(1.00804 -0.227417 1.98505e-19)
(0.567085 -0.363151 -3.73458e-19)
(0.96336 -0.59313 -1.0854e-19)
(1.04689 -0.568194 -1.03269e-20)
(1.04221 -0.497641 -8.61292e-22)
(1.03312 -0.431806 6.28645e-21)
(1.02808 -0.377153 7.88519e-20)
(1.02662 -0.330875 -1.15238e-19)
(1.02667 -0.291636 2.68282e-20)
(1.02687 -0.259394 -3.28711e-20)
(1.02902 -0.230425 -5.37292e-20)
(0.562054 -0.312831 9.03408e-21)
(0.996358 -0.551214 2.95114e-19)
(1.09602 -0.545528 3.10431e-20)
(1.08986 -0.485378 -1.69717e-20)
(1.07478 -0.424641 -2.66945e-22)
(1.06432 -0.373284 3.3429e-21)
(1.05838 -0.329176 1.94578e-20)
(1.05509 -0.291292 -2.82732e-20)
(1.05233 -0.260005 3.97865e-21)
(1.05096 -0.232003 -1.86388e-21)
(0.54086 -0.25867 7.39318e-20)
(1.01306 -0.50141 -1.38121e-19)
(1.13533 -0.515968 4.87982e-20)
(1.13252 -0.467773 6.32322e-20)
(1.11327 -0.413431 -4.5655e-20)
(1.09826 -0.366021 -3.44042e-21)
(1.08847 -0.32466 -1.23347e-20)
(1.08234 -0.288624 1.4997e-20)
(1.07728 -0.25844 -2.14854e-20)
(1.07304 -0.232056 2.12782e-20)
(0.503289 -0.203451 1.01681e-19)
(1.01169 -0.445352 1.75003e-19)
(1.16278 -0.480517 9.96673e-20)
(1.16908 -0.44586 -1.07507e-19)
(1.14826 -0.39882 9.83035e-20)
(1.12966 -0.355873 -4.21752e-20)
(1.1166 -0.317819 -5.87447e-21)
(1.10789 -0.283953 -5.33404e-21)
(1.10117 -0.254984 1.73982e-21)
(1.09453 -0.230651 -1.19327e-20)
(0.450467 -0.150062 2.61721e-19)
(0.990343 -0.3846 -1.37683e-19)
(1.17655 -0.440208 7.87367e-20)
(1.19813 -0.420465 7.25972e-20)
(1.17908 -0.381529 -3.20419e-20)
(1.15834 -0.34345 4.92733e-20)
(1.14271 -0.308954 1.50812e-20)
(1.13162 -0.277617 1.57801e-20)
(1.12344 -0.249911 8.73903e-21)
(1.11539 -0.227875 3.63456e-21)
(0.38507 -0.101277 -9.57564e-20)
(0.947293 -0.320806 -1.33204e-19)
(1.17459 -0.395967 -8.79893e-20)
(1.21829 -0.392247 -8.0631e-20)
(1.20504 -0.362237 -2.81734e-20)
(1.18394 -0.329303 3.67016e-20)
(1.16659 -0.298438 -1.4775e-20)
(1.1536 -0.269842 2.98316e-21)
(1.14406 -0.243843 -7.95568e-21)
(1.13535 -0.223891 4.80284e-21)
(0.311365 -0.0596853 2.47896e-20)
(0.881231 -0.255752 -5.41597e-21)
(1.15439 -0.348641 2.22558e-20)
(1.22782 -0.361656 1.46319e-20)
(1.22539 -0.341471 1.27607e-20)
(1.20615 -0.313969 -2.95665e-20)
(1.18807 -0.286752 1.3179e-20)
(1.17386 -0.260975 -1.2245e-20)
(1.16306 -0.236863 -2.99321e-21)
(1.15364 -0.21874 -3.95948e-21)
(0.234898 -0.027605 1.03283e-21)
(0.791707 -0.191506 -7.87289e-22)
(1.11311 -0.29914 -5.25581e-21)
(1.22437 -0.328958 6.73384e-20)
(1.23898 -0.319516 -1.82599e-20)
(1.22467 -0.297899 -2.101e-20)
(1.20712 -0.27434 3.83784e-21)
(1.19222 -0.251314 -3.85681e-21)
(1.18071 -0.229023 -9.08406e-21)
(1.17035 -0.212485 -1.99455e-20)
(0.161753 -0.00666999 -9.92844e-20)
(0.679624 -0.130634 2.15256e-20)
(1.04769 -0.248305 -1.84869e-19)
(1.20463 -0.294212 -7.00461e-20)
(1.24396 -0.296421 -2.59478e-20)
(1.23886 -0.281337 -7.66474e-21)
(1.22365 -0.261566 -1.9639e-20)
(1.20891 -0.241201 -1.86949e-20)
(1.19668 -0.220433 5.66808e-21)
(1.18603 -0.205251 1.38433e-20)
(0.0975449 0.00305271 1.67976e-19)
(0.549501 -0.0767974 -9.42774e-20)
(0.955506 -0.19716 1.4489e-19)
(1.1642 -0.257248 7.42035e-20)
(1.2372 -0.271898 -4.3617e-20)
(1.24753 -0.264366 1.34601e-19)
(1.2374 -0.248608 -2.81687e-20)
(1.2237 -0.230881 5.15989e-20)
(1.21174 -0.211641 3.56632e-21)
(1.20068 -0.197065 5.10532e-20)
(0.0461978 0.00357969 -1.03742e-19)
(0.41138 -0.0348163 4.30909e-19)
(0.834849 -0.147085 -9.46223e-20)
(1.09756 -0.217935 -8.03486e-20)
(1.21411 -0.24545 2.0525e-19)
(1.24802 -0.246604 -9.11981e-20)
(1.24762 -0.235575 -4.72707e-20)
(1.23689 -0.220516 -2.5412e-20)
(1.22495 -0.202752 -9.65271e-20)
(1.21505 -0.188438 3.46228e-20)
(0.00896654 -0.00152812 -1.8787e-19)
(0.279588 -0.00942871 -2.55908e-19)
(0.687074 -0.100382 2.02236e-19)
(0.998937 -0.176559 5.68324e-20)
(1.16792 -0.216267 -1.46635e-19)
(1.23613 -0.227481 -1.48592e-19)
(1.25205 -0.22199 7.82252e-21)
(1.2476 -0.210135 -9.67563e-20)
(1.23783 -0.194298 1.46982e-19)
(1.22731 -0.178909 -2.11718e-20)
(-0.0154717 -0.00871699 8.35862e-20)
(0.167673 -0.00167129 3.99902e-19)
(0.521123 -0.0613056 -5.02126e-20)
(0.864079 -0.134024 1.41387e-20)
(1.09011 -0.18362 -3.338e-20)
(1.20407 -0.205534 1.94835e-19)
(1.24709 -0.207513 6.58768e-20)
(1.25431 -0.199066 1.12315e-19)
(1.24798 -0.185972 -1.02494e-19)
(1.24099 -0.16996 6.16723e-20)
(-0.029984 -0.0157773 -6.18719e-19)
(0.0824974 -0.00684909 1.57317e-19)
(0.35672 -0.0356715 -2.00865e-19)
(0.695176 -0.093292 2.42295e-19)
(0.971057 -0.146839 -5.98511e-20)
(1.14152 -0.179548 -3.42123e-19)
(1.22369 -0.190058 1.83369e-19)
(1.25369 -0.187333 -6.8585e-20)
(1.25617 -0.177342 6.24699e-20)
(1.24968 -0.159542 1.86321e-19)
(-0.037375 -0.0219268 2.8968e-19)
(0.0234378 -0.0182835 -4.35587e-19)
(0.216179 -0.0265241 -5.3887e-20)
(0.50845 -0.060854 -2.69078e-19)
(0.806323 -0.10801 -3.32818e-19)
(1.0333 -0.147202 1.63834e-19)
(1.17083 -0.168866 -2.04291e-19)
(1.23497 -0.171478 -2.4494e-20)
(1.25772 -0.168982 -1.88957e-20)
(1.26086 -0.149585 -2.38204e-19)
(-0.0397696 -0.0270126 2.69137e-19)
(-0.0141443 -0.0313451 -1.03055e-19)
(0.111042 -0.0307865 9.82623e-20)
(0.332727 -0.0434105 -1.45884e-19)
(0.609196 -0.0741174 1.43425e-19)
(0.869764 -0.110539 2.66448e-19)
(1.06544 -0.139215 1.58184e-19)
(1.18769 -0.152598 -8.03432e-21)
(1.23932 -0.154509 -1.76719e-19)
(1.26287 -0.139237 1.41268e-19)
(-0.0389154 -0.0311852 3.1331e-19)
(-0.0357023 -0.0439204 1.00386e-19)
(0.0402241 -0.0422957 1.6837e-19)
(0.192189 -0.0416748 4.94137e-20)
(0.412705 -0.0537611 -2.41257e-19)
(0.6643 -0.0769671 7.24403e-20)
(0.89538 -0.10525 -2.76282e-19)
(1.07551 -0.120821 3.83003e-19)
(1.19403 -0.141965 2.30896e-19)
(1.23708 -0.114664 6.08429e-20)
(-0.0361909 -0.0346758 -4.43309e-19)
(-0.0460989 -0.05511 -1.1025e-19)
(-0.00345669 -0.0559457 -1.28501e-19)
(0.0937667 -0.0502272 7.4805e-20)
(0.249492 -0.0490413 3.04738e-19)
(0.453975 -0.0566155 -2.45887e-19)
(0.680199 -0.0748088 -1.07285e-19)
(0.889116 -0.086434 -1.36048e-19)
(1.06222 -0.10939 -4.33579e-19)
(1.2031 -0.111697 1.10063e-19)
(-0.0325348 -0.0375688 -1.81032e-19)
(-0.0493586 -0.0643694 3.95413e-20)
(-0.0282914 -0.0685521 1.9789e-20)
(0.0308491 -0.0623921 -1.21213e-19)
(0.131866 -0.0548438 -1.94382e-19)
(0.277751 -0.053599 5.15101e-19)
(0.458579 -0.0526744 7.29527e-20)
(0.669723 -0.0646754 2.27015e-19)
(0.827307 -0.0686164 -4.49926e-20)
(1.08762 -0.0918937 1.72106e-19)
(-0.0285854 -0.0397169 3.22883e-19)
(-0.048577 -0.0710742 7.21416e-20)
(-0.0414812 -0.0780928 -3.41276e-19)
(-0.00776051 -0.0732668 1.90335e-19)
(0.0538304 -0.0642336 3.10512e-19)
(0.150273 -0.05965 -3.03443e-19)
(0.268346 -0.0427161 2.60248e-19)
(0.462602 -0.0578764 -1.41713e-19)
(0.549848 -0.0394852 2.07723e-19)
(0.882575 -0.0650131 -3.27072e-19)
(-0.0246867 -0.0408654 6.20702e-20)
(-0.0457973 -0.0745348 -4.65226e-19)
(-0.0483387 -0.0832349 4.52303e-19)
(-0.0321102 -0.0798987 -2.58163e-20)
(0.00252342 -0.0715103 -1.5093e-19)
(0.0623876 -0.06507 -5.46303e-21)
(0.129598 -0.0459162 -4.01059e-19)
(0.2828 -0.0542569 3.62509e-19)
(0.316361 -0.0307329 -2.90939e-19)
(0.623416 -0.0441746 2.03872e-19)
(-0.0209198 -0.0405931 9.30161e-20)
(-0.0422532 -0.0741656 -4.66817e-20)
(-0.0522494 -0.0832659 -1.59966e-19)
(-0.0490259 -0.0809487 -1.96807e-19)
(-0.0334074 -0.073775 4.44563e-20)
(4.94404e-05 -0.066373 -2.20373e-19)
(0.0351232 -0.0525289 -7.23102e-21)
(0.135723 -0.0480641 -3.38266e-20)
(0.152796 -0.0375139 1.00055e-19)
(0.363191 -0.032215 4.47989e-21)
(-0.0173095 -0.0384385 -2.66633e-19)
(-0.03866 -0.0696358 1.90797e-19)
(-0.0549869 -0.0780519 2.68594e-19)
(-0.0621747 -0.0762447 -1.15064e-20)
(-0.0606272 -0.0702499 8.89991e-20)
(-0.0468391 -0.0628974 -8.41127e-20)
(-0.0329096 -0.0541322 3.36948e-19)
(0.0233532 -0.0415942 -1.09324e-19)
(0.0345272 -0.042295 -3.48923e-19)
(0.150175 -0.0188419 1.65612e-19)
(-0.0139607 -0.0340983 -1.86078e-20)
(-0.0354143 -0.0609651 -2.14484e-19)
(-0.0572419 -0.0679458 -1.69833e-19)
(-0.0728698 -0.0663757 1.656e-19)
(-0.0821744 -0.0613551 -1.2265e-19)
(-0.0838481 -0.0548937 5.59475e-20)
(-0.0835951 -0.0487262 4.20733e-20)
(-0.0587127 -0.0347347 1.95851e-20)
(-0.0574475 -0.0362324 1.03166e-19)
(-0.00049077 -0.00613592 -1.95713e-19)
(-0.0110671 -0.0275409 1.46714e-19)
(-0.0327406 -0.0485412 1.8527e-19)
(-0.0591104 -0.0536954 5.77248e-21)
(-0.0813044 -0.0523029 -1.48649e-19)
(-0.098929 -0.0482964 2.40997e-20)
(-0.111688 -0.0431903 3.84098e-20)
(-0.121143 -0.0376715 -5.82962e-20)
(-0.118448 -0.0266436 3.00674e-20)
(-0.12472 -0.0250993 3.16022e-20)
(-0.10323 -8.73661e-05 -3.19964e-20)
(-0.00887118 -0.0190535 -2.09312e-20)
(-0.0307923 -0.0331052 2.88349e-20)
(-0.0604708 -0.0363161 -1.28576e-19)
(-0.0872366 -0.0352004 3.3498e-20)
(-0.110549 -0.0323778 -7.38999e-20)
(-0.130284 -0.0287496 2.00184e-20)
(-0.14652 -0.0242417 3.61119e-20)
(-0.156553 -0.01685 -6.49644e-20)
(-0.167897 -0.0128029 -7.30027e-21)
(-0.165191 0.00281926 2.91599e-20)
(-0.00759875 -0.00921578 -1.43519e-20)
(-0.029687 -0.0156804 3.06512e-21)
(-0.0611825 -0.0169741 6.84617e-20)
(-0.0903588 -0.0162827 2.71868e-20)
(-0.116581 -0.0148132 -1.59901e-20)
(-0.139679 -0.0128169 9.07934e-21)
(-0.1594 -0.0100392 -1.22209e-20)
(-0.174869 -0.00586628 1.88725e-20)
(-0.188869 -0.00162812 1.25372e-20)
(-0.194253 0.00673509 -4.35962e-24)
(0.850485 -0.0116574 4.33826e-20)
(0.870078 -0.00935917 -2.60944e-20)
(0.88671 -0.00840733 9.73486e-21)
(0.90113 -0.00697019 -6.56792e-21)
(0.913497 -0.0062078 1.34183e-20)
(0.924351 -0.00525672 -7.52e-21)
(0.93374 -0.00466988 4.74006e-22)
(0.942044 -0.00401721 8.40247e-21)
(0.949287 -0.00356995 -1.82481e-22)
(0.955726 -0.00310709 3.45131e-22)
(0.961383 -0.00276421 -4.06339e-21)
(0.966431 -0.00242453 5.0382e-21)
(0.9709 -0.00215756 -8.54945e-21)
(0.974911 -0.00190393 3.34651e-21)
(0.97848 -0.00170229 6.17329e-21)
(0.981666 -0.00151511 -8.83882e-21)
(0.984481 -0.0013528 3.32737e-22)
(0.986984 -0.00120126 3.55497e-21)
(0.989192 -0.00106682 -3.5244e-21)
(0.991145 -0.000941211 2.27663e-21)
(0.992858 -0.000827751 -1.39391e-21)
(0.994356 -0.000721069 3.48316e-21)
(0.995651 -0.000622734 -1.31745e-21)
(0.996761 -0.000529305 -2.91508e-21)
(0.997695 -0.000441463 1.37312e-21)
(0.998465 -0.000357054 2.97479e-22)
(0.999075 -0.000276227 4.04419e-22)
(0.999533 -0.000197186 9.86198e-22)
(0.999839 -0.000118994 2.43847e-23)
(0.999994 -3.98312e-05 3.59989e-22)
(0.85244 -0.0345274 -1.577e-20)
(0.871613 -0.0276591 -2.89986e-20)
(0.887913 -0.0248464 4.59226e-20)
(0.902135 -0.0205663 1.33829e-21)
(0.914293 -0.0183198 -2.15537e-20)
(0.925016 -0.0154978 2.0819e-20)
(0.934268 -0.0137685 -5.21508e-20)
(0.942484 -0.0118342 9.04286e-21)
(0.949638 -0.010514 -1.17086e-20)
(0.956019 -0.00914185 4.77484e-20)
(0.961618 -0.00812784 -2.17039e-20)
(0.966628 -0.00712129 -1.54958e-21)
(0.971055 -0.00633262 1.37967e-21)
(0.975032 -0.00558069 8.79252e-22)
(0.978568 -0.00497896 4.18328e-21)
(0.981735 -0.00441923 3.45315e-21)
(0.984537 -0.00393532 -1.20733e-20)
(0.987029 -0.00348414 8.35711e-22)
(0.989227 -0.00308687 -9.21267e-21)
(0.991172 -0.00271566 7.7194e-21)
(0.992878 -0.00238196 -1.45615e-21)
(0.99437 -0.00206861 -2.95831e-21)
(0.99566 -0.00178122 -2.72544e-21)
(0.996766 -0.00150916 -1.08402e-21)
(0.997696 -0.00125487 3.47283e-21)
(0.998463 -0.00101176 6.22215e-22)
(0.999072 -0.00078047 -3.29197e-21)
(0.999529 -0.000555558 1.32463e-22)
(0.999836 -0.000334395 -7.47059e-22)
(0.999994 -0.00011161 -8.71333e-22)
(0.856368 -0.0571691 -2.14748e-20)
(0.874696 -0.0457005 8.9133e-20)
(0.890309 -0.0410521 -4.32397e-20)
(0.904124 -0.0339345 9.92453e-20)
(0.915855 -0.0302433 -1.1208e-20)
(0.926319 -0.0255737 -1.01581e-19)
(0.935297 -0.0227354 3.58611e-21)
(0.943342 -0.0195401 3.72088e-20)
(0.950321 -0.0173697 3.25603e-20)
(0.956589 -0.0151025 -4.26521e-20)
(0.962075 -0.013432 5.12519e-20)
(0.967008 -0.0117689 -1.28729e-20)
(0.971355 -0.0104679 9.72781e-22)
(0.975266 -0.00921969 8.77739e-21)
(0.978738 -0.00821292 -3.52967e-20)
(0.981874 -0.00727644 6.62098e-21)
(0.98465 -0.00648842 1.82116e-20)
(0.987118 -0.0057404 1.30869e-20)
(0.989296 -0.00508701 -1.86913e-20)
(0.991225 -0.00447193 1.46851e-20)
(0.992916 -0.00392145 2.87655e-21)
(0.994397 -0.00340317 -7.61371e-21)
(0.995678 -0.00292905 1.12606e-20)
(0.996776 -0.00247989 -7.67806e-21)
(0.997699 -0.0020608 2.37053e-21)
(0.99846 -0.00166031 1.98512e-21)
(0.999065 -0.00127988 2.4723e-21)
(0.999522 -0.000910239 1.81959e-22)
(0.999832 -0.000547368 3.55889e-21)
(0.999993 -0.000182487 1.27876e-21)
(0.862334 -0.0794154 -5.23321e-20)
(0.879374 -0.0633655 1.11184e-19)
(0.893909 -0.0569561 -7.78735e-20)
(0.907088 -0.0470197 1.22211e-19)
(0.918166 -0.041939 -1.18376e-19)
(0.928239 -0.0354475 7.56173e-20)
(0.936808 -0.0315402 -1.99054e-20)
(0.944603 -0.0271066 9.22603e-21)
(0.951322 -0.0241137 -6.78995e-20)
(0.957426 -0.0209692 2.55e-21)
(0.962746 -0.0186615 -1.44416e-20)
(0.967569 -0.0163554 9.62104e-20)
(0.971805 -0.0145546 -5.90563e-20)
(0.975632 -0.0128145 -1.03949e-21)
(0.979013 -0.0114004 -2.09085e-20)
(0.982074 -0.0100807 6.22363e-21)
(0.984803 -0.00899125 -3.0934e-21)
(0.987247 -0.00795624 -9.74073e-21)
(0.989397 -0.00705154 1.62915e-20)
(0.991305 -0.00619919 -7.2361e-21)
(0.992974 -0.005436 1.21939e-20)
(0.99444 -0.004717 -5.92711e-21)
(0.995705 -0.00405924 -6.90546e-21)
(0.996792 -0.00343573 9.81456e-21)
(0.997705 -0.00285443 -9.12954e-21)
(0.998458 -0.00229887 8.13786e-22)
(0.999057 -0.00177136 9.30759e-22)
(0.999513 -0.00125884 -8.66002e-21)
(0.999826 -0.000756317 4.57443e-21)
(0.999992 -0.000251877 -2.00829e-21)
(0.87037 -0.101003 1.58431e-19)
(0.885674 -0.0804379 6.06704e-20)
(0.898729 -0.0724013 -1.67646e-19)
(0.911035 -0.0596885 -6.01079e-20)
(0.921223 -0.0533052 3.5783e-20)
(0.930774 -0.0450347 2.20785e-20)
(0.938795 -0.0401176 2.71214e-20)
(0.94626 -0.0344802 2.36051e-20)
(0.952636 -0.0307035 -9.05283e-20)
(0.958524 -0.0267068 1.11238e-20)
(0.963625 -0.0237873 6.4408e-20)
(0.968304 -0.0208564 -4.33739e-20)
(0.972397 -0.0185744 -4.23654e-20)
(0.976123 -0.0163594 1.02284e-20)
(0.979396 -0.0145517 1.55397e-20)
(0.982363 -0.0128426 1.10212e-20)
(0.985013 -0.0114214 -1.93938e-20)
(0.987417 -0.0101157 1.27923e-20)
(0.989531 -0.00897202 2.18987e-20)
(0.99141 -0.00788604 -1.25835e-20)
(0.993053 -0.00691697 7.83653e-21)
(0.994498 -0.00600208 -4.47453e-20)
(0.995745 -0.00516475 2.24853e-20)
(0.996817 -0.00437103 -4.08135e-21)
(0.997716 -0.00363143 -8.28856e-21)
(0.998459 -0.00292375 8.03741e-21)
(0.99905 -0.00225181 -6.35856e-21)
(0.999503 -0.00159898 8.19457e-21)
(0.999819 -0.000959636 -7.83277e-21)
(0.999991 -0.000319196 -1.67292e-21)
(0.880512 -0.121765 -1.40954e-19)
(0.893631 -0.0968537 -2.21411e-20)
(0.904775 -0.0874308 2.42539e-19)
(0.915952 -0.072021 -1.79137e-19)
(0.924999 -0.0644386 1.28338e-19)
(0.933893 -0.0544233 2.1222e-20)
(0.941227 -0.0485402 3.41502e-21)
(0.948287 -0.0417182 -3.25131e-20)
(0.95424 -0.0371808 -7.54258e-20)
(0.959867 -0.0323462 4.39857e-20)
(0.964699 -0.0288297 3.03391e-20)
(0.969203 -0.0252851 -1.71027e-20)
(0.973124 -0.022533 3.89214e-20)
(0.976734 -0.0198553 -5.15483e-20)
(0.979893 -0.0176696 4.82647e-20)
(0.982766 -0.0155841 -4.98027e-20)
(0.985294 -0.0138227 3.79393e-20)
(0.987616 -0.0121944 1.36751e-20)
(0.989696 -0.0108061 -2.56375e-20)
(0.991546 -0.00951997 -3.34499e-21)
(0.993154 -0.00835177 2.16329e-21)
(0.994575 -0.00724751 1.44955e-20)
(0.995799 -0.00623959 -1.75028e-20)
(0.996852 -0.00528206 6.50978e-21)
(0.997734 -0.00438767 5.12261e-21)
(0.998464 -0.00353111 1.07317e-20)
(0.999045 -0.00271817 -3.58118e-22)
(0.999494 -0.00192826 -3.63313e-21)
(0.999814 -0.00115562 3.24196e-21)
(0.99999 -0.000383818 3.59608e-21)
(0.892677 -0.141425 3.51575e-20)
(0.903182 -0.112322 -3.87577e-20)
(0.912017 -0.101705 2.16927e-20)
(0.921854 -0.0836617 9.16494e-21)
(0.929523 -0.0750043 1.1984e-19)
(0.937638 -0.0633262 -1.76463e-19)
(0.94414 -0.0565702 1.68452e-19)
(0.950716 -0.0486337 -7.38309e-20)
(0.956159 -0.0433972 4.34052e-20)
(0.961473 -0.0377742 -5.19084e-20)
(0.965984 -0.0337005 -4.75389e-21)
(0.970279 -0.0295751 -6.20647e-20)
(0.973991 -0.0263788 -7.09445e-21)
(0.97746 -0.0232615 7.43776e-20)
(0.980488 -0.0207226 -3.87936e-21)
(0.983274 -0.0182952 -3.20381e-20)
(0.985713 -0.0162308 4.28831e-20)
(0.987926 -0.0142794 -2.77198e-20)
(0.989884 -0.0126043 2.06399e-20)
(0.991688 -0.0110628 -4.3931e-20)
(0.99328 -0.00971141 2.56338e-20)
(0.99467 -0.00845522 3.91731e-21)
(0.995865 -0.00728947 1.74529e-20)
(0.9969 -0.00616005 -1.6163e-20)
(0.997765 -0.00511594 -1.6984e-20)
(0.998479 -0.00411686 8.94817e-21)
(0.999046 -0.00316767 1.00311e-20)
(0.99949 -0.00224393 -3.76774e-21)
(0.99981 -0.00134224 -4.92484e-21)
(0.99999 -0.000444985 3.98211e-21)
(0.906956 -0.159842 -9.76931e-20)
(0.914552 -0.126762 3.24122e-20)
(0.920576 -0.115522 4.2745e-21)
(0.928779 -0.0951308 1.15397e-19)
(0.934757 -0.0855809 5.51759e-20)
(0.941933 -0.0723356 5.221e-20)
(0.947458 -0.0647116 -9.72801e-20)
(0.953473 -0.0556684 -1.43982e-19)
(0.958334 -0.0497015 -2.4034e-21)
(0.963292 -0.0432753 1.80388e-19)
(0.967443 -0.0386159 2.73054e-20)
(0.971503 -0.0338939 3.14864e-21)
(0.974982 -0.0302336 -8.97188e-20)
(0.97829 -0.0266635 -6.9908e-20)
(0.981164 -0.0237584 2.21736e-20)
(0.983842 -0.020987 9.74309e-20)
(0.986186 -0.0186412 -1.05503e-21)
(0.988337 -0.0164198 -6.69514e-20)
(0.990217 -0.0144724 5.6547e-21)
(0.99191 -0.0126488 6.13356e-20)
(0.993397 -0.0110549 -7.34466e-20)
(0.994758 -0.0095642 7.39491e-21)
(0.995959 -0.0082175 1.23157e-22)
(0.996977 -0.00697393 1.07691e-20)
(0.997809 -0.00580599 7.84356e-21)
(0.998504 -0.00468013 -1.57079e-20)
(0.999058 -0.00359485 7.56338e-21)
(0.999493 -0.00254232 2.95209e-21)
(0.999811 -0.00151666 2.82976e-22)
(0.99999 -0.000501719 -5.49877e-23)
(0.923255 -0.177108 -2.01699e-19)
(0.927253 -0.140176 2.03361e-19)
(0.930256 -0.128144 -6.56857e-20)
(0.936637 -0.105243 -3.32365e-20)
(0.940826 -0.0947818 4.19679e-20)
(0.94695 -0.0800508 -5.86438e-21)
(0.951401 -0.0717124 1.45692e-19)
(0.956751 -0.0617115 -1.68371e-19)
(0.960949 -0.0551721 1.48059e-19)
(0.965477 -0.0480757 -1.72413e-19)
(0.969207 -0.0429551 -2.31339e-20)
(0.97298 -0.0377382 -1.85303e-20)
(0.976183 -0.0337044 1.49237e-20)
(0.979297 -0.0297537 6.8123e-20)
(0.981986 -0.0265425 -1.76858e-20)
(0.984529 -0.02347 6.61299e-21)
(0.986747 -0.0208751 3.2056e-20)
(0.988807 -0.0184221 -4.68879e-20)
(0.990609 -0.0162852 7.92393e-21)
(0.992252 -0.0142658 -6.823e-21)
(0.993686 -0.0124464 5.17936e-21)
(0.994964 -0.0107333 1.56123e-21)
(0.99605 -0.00920398 7.85041e-21)
(0.997016 -0.00778731 -9.88094e-21)
(0.997848 -0.00645909 4.98397e-22)
(0.998541 -0.00519314 -1.20876e-20)
(0.999086 -0.00399076 1.16828e-20)
(0.999508 -0.00281811 -3.34155e-21)
(0.999818 -0.00167605 -1.79096e-21)
(0.999991 -0.000552453 -5.06137e-21)
(0.943899 -0.190935 1.20179e-19)
(0.94358 -0.151271 9.50588e-20)
(0.942677 -0.139498 -2.41905e-19)
(0.946583 -0.116087 -8.15678e-21)
(0.948301 -0.105096 -2.8705e-20)
(0.95296 -0.0895774 1.05113e-19)
(0.956021 -0.0803713 -6.16571e-20)
(0.960548 -0.069475 1.05973e-20)
(0.963933 -0.0621175 2.0879e-20)
(0.967962 -0.0542265 4.00613e-20)
(0.971192 -0.0484225 -7.91696e-20)
(0.974646 -0.0425556 2.11239e-19)
(0.977531 -0.0379714 -9.59908e-20)
(0.98043 -0.0335037 -4.98298e-20)
(0.982909 -0.0298532 2.11758e-20)
(0.985306 -0.0263716 5.09886e-21)
(0.987382 -0.0234262 -2.82095e-20)
(0.989335 -0.0206502 1.1166e-20)
(0.991037 -0.0182369 1.67688e-20)
(0.992607 -0.0159719 4.32764e-22)
(0.993974 -0.0139538 -4.25697e-20)
(0.995205 -0.0120577 9.45447e-21)
(0.996256 -0.0103269 7.91661e-21)
(0.99718 -0.00867302 2.58721e-20)
(0.997954 -0.00715686 4.79514e-21)
(0.9986 -0.00572272 -1.98498e-20)
(0.99912 -0.00437911 2.09704e-20)
(0.999535 -0.00307289 -6.40114e-21)
(0.999834 -0.00181692 1.24874e-21)
(0.999995 -0.000598512 -5.32646e-21)
(0.967457 -0.19403 0)
(0.963474 -0.150493 0)
(0.957183 -0.14303 0)
(0.958866 -0.116823 0)
(0.958156 -0.107706 0)
(0.961453 -0.0907823 0)
(0.962917 -0.0823365 0)
(0.966456 -0.0707975 0)
(0.968761 -0.0637422 0)
(0.972089 -0.0555396 0)
(0.974587 -0.0498494 0)
(0.977542 -0.0438145 0)
(0.979924 -0.0392618 0)
(0.982465 -0.0346892 0)
(0.984595 -0.0310299 0)
(0.986732 -0.02747 0)
(0.988561 -0.0244931 0)
(0.990324 -0.0216477 0)
(0.991849 -0.0191859 0)
(0.993277 -0.016852 0)
(0.994514 -0.0147785 0)
(0.995641 -0.0128167 0)
(0.996607 -0.0110277 0)
(0.997458 -0.00931853 0)
(0.998165 -0.00772756 0)
(0.998759 -0.00619669 0)
(0.999232 -0.00473938 0)
(0.999605 -0.00332771 0)
(0.99986 -0.00197183 0)
(0.999996 -0.000652745 0)
(0.984969 -0.175849 0)
(0.979889 -0.146195 0)
(0.973186 -0.138811 0)
(0.97202 -0.116022 0)
(0.969883 -0.1078 0)
(0.97114 -0.0917329 0)
(0.97141 -0.0840889 0)
(0.973555 -0.0726801 0)
(0.97491 -0.0660556 0)
(0.977265 -0.0577546 0)
(0.979033 -0.0522147 0)
(0.981294 -0.0460117 0)
(0.983124 -0.0414487 0)
(0.985162 -0.0366931 0)
(0.986876 -0.0329444 0)
(0.988644 -0.029208 0)
(0.990162 -0.0261106 0)
(0.991652 -0.0231032 0)
(0.992944 -0.0205132 0)
(0.994168 -0.0180328 0)
(0.99523 -0.015833 0)
(0.996207 -0.0137375 0)
(0.997046 -0.0118318 0)
(0.997791 -0.0100113 0)
(0.998411 -0.00831698 0)
(0.998936 -0.00668226 0)
(0.999351 -0.00512542 0)
(0.999672 -0.00361119 0)
(0.999885 -0.00214927 0)
(0.999997 -0.000711598 0)
(0.998721 -0.162535 0)
(0.992841 -0.140199 0)
(0.986497 -0.133082 0)
(0.983653 -0.11442 0)
(0.980727 -0.106524 0)
(0.980301 -0.0921973 0)
(0.979661 -0.0848207 0)
(0.980514 -0.0740845 0)
(0.981074 -0.0676169 0)
(0.982468 -0.0595217 0)
(0.983584 -0.0540267 0)
(0.985135 -0.047828 0)
(0.986445 -0.0432305 0)
(0.987957 -0.0383949 0)
(0.989266 -0.0345657 0)
(0.990641 -0.0307174 0)
(0.991847 -0.0275177 0)
(0.993044 -0.0243906 0)
(0.994097 -0.0216915 0)
(0.995103 -0.0190936 0)
(0.995984 -0.0167842 0)
(0.996798 -0.0145751 0)
(0.997502 -0.0125631 0)
(0.998129 -0.0106372 0)
(0.998656 -0.00884348 0)
(0.999103 -0.00711238 0)
(0.999457 -0.00546458 0)
(0.999727 -0.00385853 0)
(0.999906 -0.00230168 0)
(0.999998 -0.00076289 0)
(1.01011 -0.152196 0)
(1.0038 -0.133633 0)
(0.997568 -0.12714 0)
(0.993742 -0.111484 0)
(0.990281 -0.104097 0)
(0.988677 -0.0914788 0)
(0.98728 -0.0843884 0)
(0.987081 -0.0745053 0)
(0.98693 -0.0681923 0)
(0.987482 -0.060488 0)
(0.987994 -0.055057 0)
(0.988891 -0.0490078 0)
(0.98971 -0.0444109 0)
(0.99072 -0.0396012 0)
(0.991638 -0.0357318 0)
(0.992631 -0.031848 0)
(0.993531 -0.0285845 0)
(0.994438 -0.025393 0)
(0.995254 -0.0226186 0)
(0.996041 -0.0199444 0)
(0.996741 -0.017555 0)
(0.997391 -0.015265 0)
(0.99796 -0.0131709 0)
(0.998468 -0.0111623 0)
(0.998899 -0.00928628 0)
(0.999265 -0.0074745 0)
(0.999556 -0.005748 0)
(0.999778 -0.00406325 0)
(0.999923 -0.00242603 0)
(0.999998 -0.000804645 0)
(1.01963 -0.142887 0)
(1.01308 -0.126856 0)
(1.00689 -0.121207 0)
(1.00242 -0.107658 0)
(0.998564 -0.100955 0)
(0.996136 -0.0897709 0)
(0.994137 -0.0831184 0)
(0.99312 -0.0740745 0)
(0.992351 -0.068012 0)
(0.992196 -0.060761 0)
(0.99216 -0.0554597 0)
(0.992481 -0.0496341 0)
(0.992842 -0.0450888 0)
(0.993394 -0.0403705 0)
(0.993941 -0.036503 0)
(0.994575 -0.0326366 0)
(0.995179 -0.0293446 0)
(0.995808 -0.0261302 0)
(0.996392 -0.0233099 0)
(0.996966 -0.0205919 0)
(0.997488 -0.0181473 0)
(0.997978 -0.015803 0)
(0.998412 -0.0136488 0)
(0.998804 -0.01158 0)
(0.999139 -0.00964108 0)
(0.999424 -0.00776671 0)
(0.999652 -0.00597659 0)
(0.999826 -0.00422791 0)
(0.99994 -0.00252534 0)
(0.999998 -0.000837911 0)
(1.02753 -0.134081 0)
(1.02084 -0.120066 0)
(1.01474 -0.115263 0)
(1.00985 -0.103348 0)
(1.00572 -0.0973643 0)
(1.00269 -0.087367 0)
(1.00023 -0.0812358 0)
(0.998577 -0.0729631 0)
(0.997296 -0.067233 0)
(0.996554 -0.0604443 0)
(0.996038 -0.0553385 0)
(0.995858 -0.0497725 0)
(0.995803 -0.0453308 0)
(0.995943 -0.0407453 0)
(0.996143 -0.0369215 0)
(0.996447 -0.0331109 0)
(0.99677 -0.0298246 0)
(0.997137 -0.0266202 0)
(0.997498 -0.0237821 0)
(0.997868 -0.0210474 0)
(0.998216 -0.0185711 0)
(0.998551 -0.0161951 0)
(0.998855 -0.014001 0)
(0.999132 -0.011892 0)
(0.999372 -0.00990822 0)
(0.999579 -0.00798873 0)
(0.999745 -0.00615083 0)
(0.999872 -0.00435377 0)
(0.999956 -0.0026011 0)
(0.999999 -0.000863326 0)
(1.03406 -0.125681 0)
(1.02731 -0.113361 0)
(1.02135 -0.109302 0)
(1.01618 -0.0987564 0)
(1.01188 -0.0934549 0)
(1.00842 -0.0844765 0)
(1.00561 -0.0788806 0)
(1.00346 -0.0713129 0)
(1.00176 -0.0659584 0)
(1.00053 -0.0596256 0)
(0.999606 -0.0547632 0)
(0.998993 -0.0494766 0)
(0.998569 -0.0451823 0)
(0.998342 -0.0407586 0)
(0.998226 -0.0370163 0)
(0.998227 -0.0332914 0)
(0.998288 -0.0300426 0)
(0.998411 -0.0268757 0)
(0.998561 -0.0240466 0)
(0.998738 -0.0213194 0)
(0.99892 -0.0188339 0)
(0.999106 -0.016447 0)
(0.999283 -0.0142323 0)
(0.99945 -0.0121013 0)
(0.999599 -0.0100899 0)
(0.999729 -0.00814179 0)
(0.999835 -0.00627181 0)
(0.999917 -0.00444176 0)
(0.999971 -0.00265416 0)
(0.999999 -0.000881198 0)
(1.03943 -0.117664 0)
(1.03269 -0.1068 0)
(1.02687 -0.103362 0)
(1.02155 -0.0940032 0)
(1.01716 -0.0893165 0)
(1.01339 -0.0812421 0)
(1.01032 -0.07616 0)
(1.00778 -0.0692434 0)
(1.00575 -0.0642763 0)
(1.00413 -0.0583888 0)
(1.00286 -0.0537973 0)
(1.00187 -0.0488022 0)
(1.00113 -0.0446869 0)
(1.00057 -0.0404465 0)