/*--------------------------------*- C++ -*----------------------------------*\
  =========                 |
  \\      /  F ield         | OpenFOAM: The Open Source CFD Toolbox
   \\    /   O peration     | Website:  https://openfoam.org
    \\  /    A nd           | Version:  7
     \\/     M anipulation  |
\*---------------------------------------------------------------------------*/
FoamFile
{
    version     2.0;
    format      ascii;
    class       volScalarField;
    location    "60";
    object      p;
}
// * * * * * * * * * * * * * * * * * * * * * * * * * * * * * * * * * * * * * //

dimensions      [0 2 -2 0 0 0 0];

internalField   nonuniform List<scalar> 
14000
(
-0.229295
-0.232896
-0.234351
-0.236014
-0.237733
-0.239336
-0.24056
-0.24113
-0.241491
-0.239522
-0.230355
-0.233748
-0.235124
-0.236735
-0.238416
-0.240019
-0.24131
-0.241597
-0.242593
-0.239601
-0.232364
-0.235354
-0.23656
-0.238047
-0.239632
-0.241178
-0.24276
-0.242057
-0.244933
-0.239381
-0.235126
-0.237546
-0.238462
-0.239723
-0.241127
-0.242388
-0.244811
-0.241767
-0.248519
-0.238006
-0.238412
-0.240127
-0.240601
-0.241478
-0.242625
-0.243199
-0.247124
-0.240392
-0.251561
-0.236617
-0.242026
-0.242925
-0.24277
-0.243047
-0.243821
-0.243613
-0.248011
-0.239015
-0.253453
-0.235314
-0.245855
-0.245838
-0.244849
-0.244313
-0.244349
-0.243687
-0.247734
-0.237455
-0.25149
-0.235865
-0.24992
-0.248861
-0.246845
-0.245287
-0.244382
-0.243276
-0.245621
-0.237163
-0.24486
-0.235227
-0.25442
-0.252082
-0.248921
-0.246158
-0.244137
-0.242433
-0.241927
-0.236468
-0.235824
-0.229382
-0.259679
-0.255779
-0.251334
-0.247217
-0.243927
-0.241013
-0.237615
-0.232469
-0.225413
-0.218472
-0.266055
-0.260327
-0.254429
-0.248766
-0.243867
-0.238942
-0.232705
-0.225287
-0.214032
-0.204092
-0.273998
-0.266107
-0.258483
-0.25095
-0.243866
-0.236119
-0.226692
-0.215957
-0.202909
-0.190875
-0.283976
-0.273447
-0.263639
-0.25385
-0.243739
-0.232345
-0.219469
-0.20592
-0.191235
-0.178111
-0.296395
-0.282487
-0.270077
-0.257396
-0.243133
-0.227464
-0.211261
-0.195134
-0.179343
-0.165874
-0.31152
-0.292967
-0.278043
-0.261153
-0.24155
-0.221362
-0.20196
-0.183801
-0.167235
-0.153145
-0.329325
-0.304545
-0.287055
-0.2642
-0.238474
-0.213817
-0.191589
-0.171763
-0.154518
-0.139916
-0.348631
-0.317272
-0.295397
-0.265282
-0.233378
-0.20464
-0.179953
-0.158808
-0.141053
-0.125839
-0.36741
-0.330967
-0.301186
-0.263262
-0.225775
-0.193535
-0.166837
-0.144703
-0.126538
-0.110931
-0.383488
-0.343962
-0.303311
-0.257445
-0.215205
-0.180186
-0.151956
-0.129167
-0.11085
-0.0951968
-0.395196
-0.353367
-0.30089
-0.247431
-0.201286
-0.164249
-0.135025
-0.111963
-0.0937946
-0.0786008
-0.401411
-0.356531
-0.292744
-0.232827
-0.183702
-0.145423
-0.115795
-0.0928955
-0.0752085
-0.0607487
-0.401154
-0.351534
-0.278001
-0.213205
-0.162189
-0.123476
-0.0941085
-0.0719209
-0.0549989
-0.0410813
-0.393257
-0.337315
-0.256142
-0.188205
-0.136532
-0.0983036
-0.0699345
-0.0490857
-0.0331934
-0.0196116
-0.376327
-0.31336
-0.226845
-0.157617
-0.106702
-0.0700277
-0.0434087
-0.0244227
-0.00958988
0.00258262
-0.34901
-0.279539
-0.18988
-0.121568
-0.0729677
-0.0389589
-0.014774
0.00222945
0.0155705
0.0255028
-0.310373
-0.235981
-0.145332
-0.0805967
-0.0357085
-0.00510054
0.0159243
0.0305447
0.0417829
0.0489458
-0.260186
-0.182724
-0.0942126
-0.0349552
0.00491449
0.0311489
0.0483853
0.0600007
0.0683692
0.0721784
-0.198885
-0.119655
-0.0379095
0.0146796
0.0483569
0.0693466
0.0821965
0.090011
0.094462
0.0942029
-0.127015
-0.0489362
0.0228486
0.0673143
0.0939069
0.108979
0.116903
0.120114
0.119564
0.114762
-0.0450471
0.0257752
0.0869351
0.121941
0.14073
0.149388
0.151938
0.150032
0.144255
0.135619
0.0435209
0.103216
0.152788
0.177453
0.187902
0.18977
0.186564
0.179364
0.169067
0.161419
0.135562
0.181764
0.218738
0.232606
0.234425
0.229275
0.220088
0.20775
0.194114
0.186058
0.22772
0.259313
0.283087
0.286078
0.279247
0.267092
0.252085
0.235134
0.21859
0.20811
0.316649
0.33363
0.344145
0.336531
0.321294
0.302351
0.28185
0.260775
0.241455
0.227907
0.399116
0.402505
0.400269
0.382671
0.359568
0.334328
0.308834
0.284028
0.26189
0.245135
0.472291
0.463782
0.449878
0.423254
0.393092
0.362258
0.33241
0.304355
0.27956
0.25972
0.534031
0.515289
0.491482
0.457172
0.421023
0.385473
0.351992
0.321208
0.294075
0.271487
0.582313
0.55535
0.523816
0.483477
0.44264
0.403419
0.367128
0.334217
0.305188
0.280332
0.615471
0.582745
0.545913
0.501433
0.457374
0.415639
0.377432
0.343064
0.312704
0.286216
0.632346
0.596652
0.557126
0.510537
0.46484
0.421827
0.382649
0.347541
0.316494
0.289147
0.632346
0.596652
0.557126
0.510537
0.46484
0.421827
0.382649
0.347541
0.316494
0.289147
0.615471
0.582745
0.545914
0.501433
0.457374
0.415639
0.377432
0.343065
0.312704
0.286217
0.582313
0.55535
0.523816
0.483478
0.442641
0.40342
0.367128
0.334217
0.305188
0.280332
0.534032
0.515289
0.491482
0.457172
0.421023
0.385474
0.351992
0.321209
0.294075
0.271487
0.472292
0.463783
0.449879
0.423255
0.393092
0.362258
0.332411
0.304356
0.27956
0.259721
0.399117
0.402506
0.40027
0.382672
0.359569
0.334329
0.308834
0.284029
0.261891
0.245136
0.31665
0.333632
0.344146
0.336533
0.321295
0.302352
0.281851
0.260776
0.241456
0.227907
0.227721
0.259315
0.283089
0.28608
0.279249
0.267094
0.252086
0.235135
0.218591
0.20811
0.135564
0.181766
0.21874
0.232608
0.234426
0.229277
0.220089
0.207751
0.194116
0.186059
0.0435233
0.103218
0.15279
0.177455
0.187903
0.189772
0.186566
0.179365
0.169069
0.16142
-0.0450442
0.0257778
0.0869376
0.121943
0.140732
0.14939
0.15194
0.150034
0.144257
0.135621
-0.127011
-0.048933
0.0228515
0.0673169
0.0939093
0.108981
0.116905
0.120115
0.119565
0.114763
-0.198881
-0.119651
-0.0379062
0.0146826
0.0483596
0.069349
0.0821985
0.0900128
0.0944635
0.0942042
-0.260181
-0.18272
-0.0942089
-0.0349518
0.00491748
0.0311516
0.0483876
0.0600026
0.0683708
0.0721797
-0.310367
-0.235976
-0.145328
-0.0805929
-0.0357052
-0.00509765
0.0159268
0.0305468
0.0417846
0.0489472
-0.349004
-0.279534
-0.189875
-0.121563
-0.0729641
-0.0389558
-0.0147713
0.00223166
0.0155723
0.0255042
-0.37632
-0.313353
-0.22684
-0.157612
-0.106698
-0.0700242
-0.0434058
-0.0244204
-0.00958806
0.00258398
-0.393249
-0.337308
-0.256136
-0.1882
-0.136528
-0.0982999
-0.0699314
-0.0490833
-0.0331915
-0.0196103
-0.401146
-0.351527
-0.277994
-0.213199
-0.162184
-0.123472
-0.0941053
-0.0719184
-0.0549971
-0.0410801
-0.401402
-0.356523
-0.292737
-0.232821
-0.183697
-0.145419
-0.115792
-0.092893
-0.0752067
-0.0607476
-0.395187
-0.353358
-0.300882
-0.247425
-0.20128
-0.164244
-0.135021
-0.11196
-0.0937929
-0.0786
-0.383478
-0.343952
-0.303303
-0.257438
-0.215199
-0.180181
-0.151953
-0.129164
-0.110849
-0.0951963
-0.3674
-0.330957
-0.301177
-0.263254
-0.225769
-0.19353
-0.166833
-0.1447
-0.126536
-0.110931
-0.348621
-0.317263
-0.295388
-0.265274
-0.233371
-0.204634
-0.179949
-0.158805
-0.141052
-0.12584
-0.329315
-0.304535
-0.287045
-0.264191
-0.238466
-0.21381
-0.191584
-0.17176
-0.154517
-0.139917
-0.311509
-0.292957
-0.278033
-0.261143
-0.241541
-0.221354
-0.201954
-0.183798
-0.167234
-0.153147
-0.296384
-0.282476
-0.270066
-0.257386
-0.243122
-0.227455
-0.211255
-0.195131
-0.179343
-0.165877
-0.283966
-0.273436
-0.263628
-0.253839
-0.243728
-0.232335
-0.219462
-0.205916
-0.191235
-0.178116
-0.273987
-0.266096
-0.258472
-0.250938
-0.243854
-0.236108
-0.226683
-0.215952
-0.20291
-0.190882
-0.266045
-0.260317
-0.254417
-0.248754
-0.243853
-0.238929
-0.232694
-0.225281
-0.214032
-0.204101
-0.259668
-0.255769
-0.251323
-0.247204
-0.243913
-0.240999
-0.237603
-0.232462
-0.225413
-0.218484
-0.254411
-0.252072
-0.24891
-0.246146
-0.244123
-0.242418
-0.241914
-0.236459
-0.235823
-0.229395
-0.249912
-0.248852
-0.246834
-0.245275
-0.244369
-0.243262
-0.245608
-0.237154
-0.244858
-0.23524
-0.245848
-0.24583
-0.24484
-0.244302
-0.244336
-0.243674
-0.247722
-0.237446
-0.251488
-0.235878
-0.24202
-0.242918
-0.242762
-0.243038
-0.243811
-0.243602
-0.248
-0.239008
-0.253452
-0.235328
-0.238408
-0.240122
-0.240595
-0.24147
-0.242617
-0.24319
-0.247115
-0.240388
-0.251561
-0.236633
-0.235122
-0.237542
-0.238457
-0.239717
-0.24112
-0.242382
-0.244805
-0.241764
-0.248521
-0.238022
-0.232362
-0.235351
-0.236556
-0.238044
-0.239628
-0.241174
-0.242757
-0.242056
-0.244935
-0.239393
-0.230354
-0.233747
-0.235123
-0.236733
-0.238414
-0.240016
-0.241308
-0.241596
-0.242595
-0.239609
-0.229294
-0.232896
-0.234351
-0.236014
-0.237732
-0.239335
-0.240559
-0.24113
-0.241492
-0.239525
-0.238697
-0.237909
-0.237019
-0.23604
-0.234979
-0.233841
-0.232635
-0.231365
-0.230034
-0.228647
-0.227205
-0.225709
-0.224159
-0.222557
-0.220902
-0.219194
-0.217433
-0.215624
-0.213769
-0.211866
-0.209914
-0.207913
-0.205862
-0.203762
-0.201611
-0.199411
-0.19716
-0.194859
-0.192507
-0.190104
-0.187652
-0.185149
-0.182595
-0.179993
-0.177341
-0.174641
-0.171894
-0.169101
-0.166262
-0.16338
-0.160455
-0.15749
-0.154487
-0.151447
-0.148373
-0.145267
-0.142132
-0.138972
-0.135788
-0.132583
-0.129362
-0.126128
-0.122883
-0.119631
-0.116377
-0.113123
-0.109874
-0.106634
-0.103405
-0.100191
-0.0969971
-0.0938256
-0.0906801
-0.0875642
-0.084481
-0.0814339
-0.0784261
-0.0754597
-0.0725383
-0.0696639
-0.0668388
-0.0640656
-0.0613461
-0.0586821
-0.0560751
-0.0535265
-0.0510389
-0.0486121
-0.0462471
-0.0439447
-0.0417056
-0.0395302
-0.0374187
-0.0353713
-0.0333879
-0.0314684
-0.0296126
-0.0278199
-0.02609
-0.0244223
-0.0228161
-0.0212708
-0.0197854
-0.0183593
-0.0169914
-0.0156809
-0.0144268
-0.0132282
-0.0120841
-0.0109934
-0.00995533
-0.00896881
-0.00803293
-0.00714679
-0.00630951
-0.00552029
-0.00477835
-0.00408298
-0.00343358
-0.0028296
-0.00227061
-0.0017563
-0.0012865
-0.00086119
-0.000480849
-0.000145139
0.000141792
0.000392843
0.000534264
0.000859689
-0.23917
-0.238349
-0.237422
-0.236417
-0.235334
-0.234179
-0.232959
-0.231678
-0.230341
-0.22895
-0.227505
-0.226007
-0.224458
-0.222856
-0.221199
-0.21949
-0.217734
-0.215935
-0.214087
-0.212191
-0.210245
-0.20825
-0.206205
-0.204111
-0.201968
-0.199775
-0.197532
-0.195238
-0.192894
-0.1905
-0.188054
-0.185558
-0.183012
-0.180416
-0.17777
-0.175076
-0.172334
-0.169544
-0.166709
-0.163829
-0.160907
-0.157943
-0.154939
-0.151899
-0.148823
-0.145715
-0.142577
-0.139412
-0.136223
-0.133012
-0.129784
-0.126542
-0.123289
-0.120029
-0.116766
-0.113503
-0.110243
-0.106991
-0.103752
-0.100527
-0.0973216
-0.0941389
-0.0909823
-0.0878554
-0.0847616
-0.0817049
-0.0786898
-0.0757046
-0.0727769
-0.0698947
-0.0670613
-0.0642801
-0.0615532
-0.0588824
-0.0562693
-0.0537154
-0.0512222
-0.0487905
-0.0464212
-0.0441152
-0.0418728
-0.0396946
-0.0375808
-0.0355313
-0.0335463
-0.0316255
-0.0297685
-0.027975
-0.0262444
-0.0245762
-0.0229696
-0.0214239
-0.0199383
-0.0185118
-0.0171436
-0.0158328
-0.0145782
-0.013379
-0.0122342
-0.0111427
-0.0101036
-0.00911579
-0.00817844
-0.0072906
-0.00645137
-0.00565991
-0.00491546
-0.00421727
-0.00356471
-0.00295721
-0.00239429
-0.00187558
-0.00140089
-0.000969986
-0.000583392
-0.000239839
5.45587e-05
0.000319961
0.000463924
0.000783898
-0.240031
-0.239058
-0.23806
-0.237028
-0.235925
-0.234753
-0.233519
-0.23223
-0.230887
-0.229494
-0.228051
-0.226558
-0.225016
-0.22342
-0.221769
-0.220072
-0.21833
-0.216537
-0.214695
-0.212805
-0.210867
-0.20888
-0.206846
-0.204761
-0.202627
-0.200444
-0.19821
-0.195926
-0.193591
-0.191206
-0.18877
-0.186284
-0.183746
-0.181159
-0.178521
-0.175834
-0.173099
-0.170315
-0.167485
-0.164609
-0.161689
-0.158727
-0.155725
-0.152684
-0.149607
-0.146496
-0.143354
-0.140184
-0.136989
-0.133772
-0.130536
-0.127286
-0.124026
-0.120742
-0.117468
-0.114194
-0.110922
-0.107657
-0.104404
-0.101165
-0.097945
-0.0947474
-0.0915759
-0.088434
-0.0853252
-0.0822527
-0.07922
-0.0762294
-0.0732848
-0.070388
-0.0675414
-0.0647475
-0.0620085
-0.059326
-0.0567019
-0.0541375
-0.0516342
-0.049193
-0.0468147
-0.0445002
-0.0422499
-0.0400642
-0.0379432
-0.0358871
-0.0338958
-0.0319689
-0.0301063
-0.0283074
-0.0265717
-0.0248985
-0.0232871
-0.0217368
-0.0202466
-0.0188156
-0.017443
-0.0161277
-0.0148687
-0.0136649
-0.0125155
-0.0114193
-0.0103753
-0.00938256
-0.00844006
-0.00754686
-0.00670205
-0.00590478
-0.00515423
-0.00444963
-0.0037903
-0.00317561
-0.00260504
-0.00207807
-0.00159449
-0.0011536
-0.000756397
-0.000399281
-9.31283e-05
0.000194695
0.00034545
0.000656898
-0.242182
-0.239719
-0.238842
-0.237675
-0.236549
-0.235367
-0.234132
-0.232848
-0.231513
-0.230128
-0.228693
-0.227208
-0.225674
-0.224085
-0.222438
-0.220758
-0.219021
-0.217241
-0.215415
-0.213541
-0.21162
-0.209651
-0.207614
-0.205551
-0.203433
-0.201266
-0.199048
-0.19678
-0.194461
-0.19209
-0.189668
-0.187195
-0.18467
-0.182094
-0.179467
-0.17679
-0.174063
-0.171287
-0.168464
-0.165593
-0.162678
-0.159719
-0.156719
-0.153678
-0.150601
-0.147488
-0.144343
-0.141169
-0.137969
-0.134745
-0.131501
-0.128241
-0.124968
-0.121686
-0.1184
-0.115112
-0.111826
-0.108548
-0.10528
-0.102027
-0.0987919
-0.0955794
-0.0923928
-0.0892358
-0.0861118
-0.0830243
-0.0799763
-0.0769708
-0.0740111
-0.0710998
-0.0682392
-0.0654316
-0.0626791
-0.0599835
-0.0573466
-0.0547698
-0.0522544
-0.0498015
-0.047412
-0.0450865
-0.0428256
-0.0406296
-0.0384987
-0.0364329
-0.0344321
-0.032496
-0.0306244
-0.0288167
-0.0270723
-0.0253906
-0.0237707
-0.022212
-0.0207134
-0.0192742
-0.0178932
-0.0165695
-0.015302
-0.0140898
-0.0129317
-0.0118268
-0.0107739
-0.00977207
-0.00882029
-0.00791758
-0.007063
-0.00625566
-0.00549469
-0.00477928
-0.00410869
-0.00348219
-0.00289921
-0.00235897
-0.00186138
-0.00140486
-0.000991601
-0.000614328
-0.000290714
2.52352e-05
0.00019592
0.000505446
-0.240937
-0.240611
-0.239352
-0.238141
-0.237001
-0.235828
-0.234606
-0.233341
-0.232031
-0.230674
-0.229269
-0.227817
-0.226316
-0.224761
-0.223146
-0.221483
-0.219772
-0.21801
-0.216199
-0.214339
-0.212432
-0.210477
-0.208472
-0.206417
-0.204312
-0.202157
-0.199952
-0.197696
-0.19539
-0.193032
-0.190623
-0.188162
-0.185649
-0.183085
-0.180469
-0.177803
-0.175086
-0.172319
-0.169504
-0.166642
-0.163733
-0.16078
-0.157784
-0.154747
-0.151672
-0.148561
-0.145417
-0.142242
-0.13904
-0.135813
-0.132566
-0.129302
-0.126023
-0.122735
-0.119441
-0.116145
-0.112852
-0.109565
-0.106288
-0.103025
-0.0997799
-0.0965568
-0.0933594
-0.0901913
-0.0870561
-0.0839571
-0.0808977
-0.0778808
-0.0749095
-0.0719865
-0.0691142
-0.066295
-0.0635309
-0.0608239
-0.0581756
-0.0555875
-0.0530608
-0.0505967
-0.0481961
-0.0458595
-0.0435875
-0.0413805
-0.0392386
-0.0371619
-0.0351501
-0.0332031
-0.0313204
-0.0295016
-0.027746
-0.0260531
-0.0244219
-0.0228517
-0.0213416
-0.0198906
-0.0184977
-0.0171619
-0.0158822
-0.0146575
-0.0134867
-0.0123688
-0.0113027
-0.0102874
-0.00932178
-0.00840489
-0.00753575
-0.0067134
-0.00593694
-0.00520547
-0.00451821
-0.00387425
-0.00327303
-0.00271338
-0.00219549
-0.00171656
-0.00128048
-0.000875885
-0.000526675
-0.000177999
3.06404e-05
0.000350706
-0.238074
-0.238977
-0.238669
-0.237876
-0.236887
-0.235804
-0.234669
-0.233476
-0.232212
-0.230886
-0.229507
-0.22808
-0.226599
-0.22506
-0.223453
-0.221769
-0.220098
-0.218391
-0.216628
-0.214807
-0.212934
-0.211012
-0.20904
-0.207018
-0.204946
-0.202823
-0.200647
-0.198418
-0.196138
-0.193804
-0.191418
-0.188979
-0.186487
-0.183942
-0.181345
-0.178696
-0.175996
-0.173245
-0.170445
-0.167596
-0.1647
-0.161759
-0.158774
-0.155747
-0.152682
-0.149579
-0.146442
-0.143274
-0.140078
-0.136857
-0.133614
-0.130353
-0.127078
-0.123793
-0.120501
-0.117206
-0.113913
-0.110625
-0.107348
-0.104083
-0.100837
-0.0976112
-0.094411
-0.0912397
-0.0881009
-0.084998
-0.0819341
-0.0789125
-0.0759361
-0.0730075
-0.0701292
-0.0673037
-0.064533
-0.0618189
-0.0591632
-0.0565673
-0.0540325
-0.0515599
-0.0491503
-0.0468044
-0.0445228
-0.0423058
-0.0401534
-0.0380659
-0.0360429
-0.0340843
-0.0321896
-0.0303584
-0.0285901
-0.0268839
-0.0252392
-0.023655
-0.0221305
-0.0206648
-0.0192567
-0.0179054
-0.0166097
-0.0153686
-0.014181
-0.0130458
-0.011962
-0.0109285
-0.00994417
-0.00900803
-0.00811906
-0.00727624
-0.00647862
-0.00572521
-0.00501516
-0.00434737
-0.0037213
-0.0031353
-0.00258995
-0.00208116
-0.00161433
-0.00117519
-0.000790377
-0.000404104
-0.000140577
0.000204408
-0.234572
-0.23535
-0.236094
-0.236057
-0.235387
-0.234533
-0.233672
-0.232723
-0.23163
-0.230428
-0.229162
-0.227843
-0.226466
-0.225023
-0.223508
-0.221902
-0.22018
-0.218447
-0.216744
-0.214999
-0.213184
-0.211301
-0.209357
-0.207359
-0.205308
-0.203205
-0.201051
-0.198846
-0.19659
-0.194282
-0.191921
-0.189506
-0.187038
-0.184516
-0.181943
-0.179317
-0.176639
-0.17391
-0.171132
-0.168304
-0.16543
-0.16251
-0.159545
-0.156539
-0.153493
-0.15041
-0.147292
-0.144143
-0.140965
-0.137761
-0.134536
-0.131292
-0.128033
-0.124763
-0.121486
-0.118206
-0.114926
-0.111652
-0.108386
-0.105133
-0.101897
-0.0986821
-0.0954911
-0.0923283
-0.089197
-0.0861008
-0.0830429
-0.0800263
-0.0770539
-0.0741284
-0.0712524
-0.0684282
-0.0656578
-0.0629431
-0.0602858
-0.0576874
-0.0551491
-0.0526721
-0.0502572
-0.0479051
-0.0456163
-0.0433912
-0.0412299
-0.0391324
-0.0370988
-0.0351286
-0.0332216
-0.0313773
-0.0295951
-0.0278742
-0.0262141
-0.0246138
-0.0230724
-0.0215891
-0.0201628
-0.0187926
-0.0174773
-0.016216
-0.0150075
-0.0138508
-0.0127447
-0.0116882
-0.0106802
-0.00971963
-0.00880542
-0.0079365
-0.00711187
-0.00633041
-0.00559123
-0.00489302
-0.00423526
-0.00361585
-0.00303559
-0.0024896
-0.0019837
-0.00150307
-0.00107245
-0.000642884
-0.000312131
7.12555e-05
-0.231447
-0.23116
-0.232461
-0.232758
-0.23211
-0.231461
-0.230988
-0.230381
-0.229515
-0.228485
-0.227371
-0.226185
-0.224917
-0.223572
-0.222157
-0.220673
-0.219111
-0.217442
-0.215663
-0.213895
-0.212222
-0.210503
-0.208704
-0.206822
-0.204864
-0.202836
-0.200744
-0.198597
-0.196399
-0.194148
-0.191842
-0.189479
-0.187061
-0.184589
-0.182063
-0.179484
-0.176851
-0.174166
-0.17143
-0.168645
-0.16581
-0.16293
-0.160004
-0.157036
-0.154027
-0.15098
-0.147898
-0.144784
-0.14164
-0.138471
-0.135278
-0.132067
-0.128839
-0.1256
-0.122353
-0.119103
-0.115852
-0.112605
-0.109365
-0.106138
-0.102926
-0.0997334
-0.0965641
-0.0934217
-0.0903095
-0.087231
-0.0841894
-0.0811878
-0.0782288
-0.0753154
-0.0724499
-0.0696346
-0.0668716
-0.0641629
-0.06151
-0.0589146
-0.0563778
-0.0539008
-0.0514844
-0.0491293
-0.0468362
-0.0446054
-0.042437
-0.0403312
-0.0382879
-0.0363068
-0.0343877
-0.03253
-0.0307333
-0.0289969
-0.0273201
-0.0257021
-0.0241421
-0.0226391
-0.0211921
-0.0198003
-0.0184625
-0.0171777
-0.0159448
-0.0147628
-0.0136306
-0.012547
-0.0115109
-0.0105213
-0.00957704
-0.00867696
-0.00782002
-0.007005
-0.00623095
-0.00549638
-0.00480067
-0.00414154
-0.00351959
-0.00292995
-0.00237742
-0.00184909
-0.00136393
-0.000884765
-0.000479091
-4.60316e-05
-0.22588
-0.225956
-0.227807
-0.227791
-0.226908
-0.22657
-0.226594
-0.226408
-0.225913
-0.225248
-0.224479
-0.223592
-0.222585
-0.22147
-0.220259
-0.218956
-0.217563
-0.216084
-0.214506
-0.212774
-0.210845
-0.208968
-0.207259
-0.205518
-0.203692
-0.201773
-0.199766
-0.197692
-0.195565
-0.193381
-0.191136
-0.18883
-0.186467
-0.18405
-0.181579
-0.179054
-0.176476
-0.173845
-0.171164
-0.168434
-0.165655
-0.162829
-0.159959
-0.157046
-0.154093
-0.151102
-0.148075
-0.145016
-0.141927
-0.138812
-0.135673
-0.132515
-0.12934
-0.126153
-0.122957
-0.119756
-0.116554
-0.113354
-0.110161
-0.106978
-0.103809
-0.100658
-0.0975287
-0.0944239
-0.0913475
-0.0883027
-0.0852927
-0.0823205
-0.0793889
-0.0765004
-0.0736576
-0.0708628
-0.068118
-0.0654252
-0.0627861
-0.060202
-0.0576744
-0.0552044
-0.0527928
-0.0504406
-0.0481481
-0.0459159
-0.0437442
-0.0416332
-0.0395828
-0.0375929
-0.0356631
-0.0337932
-0.0319826
-0.0302307
-0.028537
-0.0269006
-0.0253207
-0.0237966
-0.0223272
-0.0209116
-0.0195489
-0.0182379
-0.0169777
-0.0157672
-0.0146053
-0.0134908
-0.0124227
-0.0113999
-0.0104211
-0.00948521
-0.00859112
-0.00773754
-0.00692337
-0.00614711
-0.00540788
-0.0047035
-0.00403392
-0.00339507
-0.00278962
-0.00220818
-0.00166197
-0.00112699
-0.000641522
-0.000147578
-0.217983
-0.220071
-0.221616
-0.220619
-0.219529
-0.219404
-0.219599
-0.21959
-0.219376
-0.219048
-0.218613
-0.218055
-0.217377
-0.216589
-0.215694
-0.214693
-0.21359
-0.21239
-0.211101
-0.209732
-0.208268
-0.206621
-0.204723
-0.202908
-0.20123
-0.199488
-0.19764
-0.195731
-0.193775
-0.191757
-0.189666
-0.187504
-0.185277
-0.182989
-0.180641
-0.178233
-0.175767
-0.173245
-0.170668
-0.168039
-0.165358
-0.162627
-0.15985
-0.157027
-0.154162
-0.151256
-0.148313
-0.145335
-0.142325
-0.139286
-0.136222
-0.133136
-0.130031
-0.126912
-0.123781
-0.120642
-0.117499
-0.114357
-0.111218
-0.108087
-0.104966
-0.101861
-0.0987743
-0.0957094
-0.09267
-0.0896592
-0.0866803
-0.0837362
-0.0808297
-0.0779635
-0.07514
-0.0723615
-0.0696303
-0.0669482
-0.0643171
-0.0617385
-0.0592138
-0.0567442
-0.0543307
-0.0519742
-0.0496753
-0.0474346
-0.0452523
-0.0431288
-0.041064
-0.039058
-0.0371104
-0.0352211
-0.0333896
-0.0316153
-0.0298978
-0.0282363
-0.0266301
-0.0250784
-0.0235803
-0.0221348
-0.0207411
-0.0193981
-0.0181048
-0.0168601
-0.015663
-0.0145122
-0.0134067
-0.0123453
-0.0113269
-0.0103501
-0.00941387
-0.00851677
-0.00765758
-0.00683483
-0.00604725
-0.00529303
-0.00457111
-0.00387876
-0.00321587
-0.00257737
-0.00196632
-0.00137161
-0.000806085
-0.000244207
-0.205502
-0.212461
-0.213446
-0.212053
-0.210974
-0.210768
-0.211013
-0.211287
-0.211424
-0.211404
-0.211244
-0.210964
-0.210575
-0.210074
-0.20946
-0.208733
-0.207895
-0.206952
-0.205907
-0.204761
-0.203519
-0.202188
-0.200764
-0.199206
-0.197493
-0.195699
-0.193859
-0.192014
-0.190145
-0.188221
-0.186229
-0.184169
-0.182046
-0.179862
-0.177617
-0.175311
-0.172947
-0.170526
-0.168049
-0.165519
-0.162938
-0.160307
-0.157628
-0.154904
-0.152137
-0.14933
-0.146486
-0.143607
-0.140696
-0.137756
-0.134791
-0.131804
-0.128799
-0.125778
-0.122745
-0.119704
-0.116659
-0.113613
-0.11057
-0.107533
-0.104505
-0.101492
-0.0984948
-0.095518
-0.0925646
-0.0896376
-0.0867401
-0.0838749
-0.0810447
-0.0782519
-0.075499
-0.0727881
-0.0701214
-0.0675007
-0.0649276
-0.0624038
-0.0599305
-0.0575088
-0.0551398
-0.0528244
-0.0505631
-0.0483566
-0.0462051
-0.044109
-0.0420683
-0.040083
-0.038153
-0.036278
-0.0344577
-0.0326917
-0.0309793
-0.02932
-0.0277131
-0.0261579
-0.0246536
-0.0231993
-0.021794
-0.020437
-0.019127
-0.0178632
-0.0166445
-0.0154698
-0.0143379
-0.0132477
-0.0121981
-0.0111877
-0.0102153
-0.00927973
-0.00837941
-0.00751311
-0.00667911
-0.00587613
-0.00510202
-0.00435566
-0.00363406
-0.00293657
-0.00225852
-0.00160054
-0.00095407
-0.000322701
-0.186898
-0.196123
-0.199137
-0.198588
-0.197602
-0.197406
-0.197899
-0.198594
-0.199152
-0.199477
-0.199602
-0.199583
-0.199448
-0.199201
-0.198837
-0.198349
-0.197739
-0.197009
-0.196161
-0.195196
-0.194116
-0.19292
-0.191611
-0.190213
-0.188777
-0.187355
-0.185954
-0.184507
-0.182927
-0.18122
-0.179421
-0.177553
-0.17562
-0.173622
-0.171557
-0.169429
-0.167238
-0.164989
-0.162683
-0.160323
-0.157909
-0.155446
-0.152934
-0.150377
-0.147777
-0.145137
-0.142459
-0.139746
-0.137001
-0.134228
-0.131429
-0.128608
-0.125767
-0.122911
-0.120042
-0.117164
-0.11428
-0.111394
-0.108509
-0.105628
-0.102755
-0.099893
-0.0970447
-0.0942135
-0.0914024
-0.0886143
-0.0858518
-0.0831177
-0.0804144
-0.0777443
-0.0751097
-0.0725125
-0.0699547
-0.0674381
-0.0649642
-0.0625345
-0.0601503
-0.0578127
-0.0555227
-0.0532812
-0.0510888
-0.0489462
-0.0468536
-0.0448114
-0.0428199
-0.040879
-0.0389886
-0.0371487
-0.035359
-0.0336192
-0.0319287
-0.0302872
-0.028694
-0.0271485
-0.02565
-0.0241978
-0.0227909
-0.0214287
-0.0201101
-0.0188342
-0.0176
-0.0164066
-0.0152528
-0.0141375
-0.0130595
-0.0120178
-0.0110109
-0.0100378
-0.00909675
-0.00818681
-0.00730586
-0.00645319
-0.00562573
-0.0048238
-0.00404209
-0.00328367
-0.00253798
-0.0018148
-0.00109057
-0.000389784
-0.170182
-0.180106
-0.184241
-0.184658
-0.18425
-0.184419
-0.185246
-0.1863
-0.187219
-0.187875
-0.1883
-0.18856
-0.188697
-0.188721
-0.188627
-0.188408
-0.188066
-0.187603
-0.187025
-0.18634
-0.185555
-0.18468
-0.183728
-0.182709
-0.181624
-0.180455
-0.179168
-0.177723
-0.176177
-0.174585
-0.172949
-0.171255
-0.169494
-0.167664
-0.165768
-0.163808
-0.161786
-0.159705
-0.157567
-0.155374
-0.153128
-0.150832
-0.148487
-0.146097
-0.143663
-0.141189
-0.138678
-0.136131
-0.133552
-0.130944
-0.128309
-0.125651
-0.122973
-0.120279
-0.11757
-0.11485
-0.112123
-0.109392
-0.106659
-0.103929
-0.101203
-0.0984849
-0.095778
-0.0930849
-0.0904083
-0.087751
-0.0851154
-0.0825042
-0.0799197
-0.077364
-0.0748393
-0.0723475
-0.0698904
-0.0674698
-0.0650872
-0.062744
-0.0604414
-0.0581806
-0.0559626
-0.0537883
-0.0516582
-0.0495732
-0.0475336
-0.0455397
-0.0435919
-0.0416903
-0.0398348
-0.0380255
-0.0362621
-0.0345445
-0.0328722
-0.031245
-0.0296622
-0.0281234
-0.026628
-0.0251752
-0.0237644
-0.0223948
-0.0210655
-0.0197758
-0.0185246
-0.017311
-0.016134
-0.0149925
-0.0138854
-0.0128117
-0.0117699
-0.010759
-0.00977736
-0.0088241
-0.00789689
-0.00699549
-0.00611616
-0.00526036
-0.00442119
-0.00360433
-0.00279547
-0.00201036
-0.00121569
-0.00044748
-0.155954
-0.165381
-0.170001
-0.171265
-0.171565
-0.172201
-0.173347
-0.174675
-0.17587
-0.176806
-0.177502
-0.17802
-0.178405
-0.178669
-0.178812
-0.178828
-0.178718
-0.178486
-0.178137
-0.177679
-0.177116
-0.176452
-0.175688
-0.17482
-0.173848
-0.172775
-0.17161
-0.170379
-0.169106
-0.167767
-0.166341
-0.164832
-0.163248
-0.161594
-0.159872
-0.158086
-0.156237
-0.154328
-0.15236
-0.150336
-0.148259
-0.146131
-0.143954
-0.14173
-0.139463
-0.137155
-0.134809
-0.132427
-0.130012
-0.127567
-0.125096
-0.122599
-0.120082
-0.117546
-0.114995
-0.112431
-0.109858
-0.107279
-0.104696
-0.102113
-0.0995317
-0.0969557
-0.0943877
-0.0918302
-0.0892859
-0.0867573
-0.0842467
-0.0817566
-0.0792892
-0.0768465
-0.0744305
-0.0720431
-0.069686
-0.0673609
-0.0650692
-0.0628123
-0.0605914
-0.0584078
-0.0562622
-0.0541557
-0.0520889
-0.0500626
-0.0480771
-0.046133
-0.0442304
-0.0423697
-0.0405509
-0.0387741
-0.037039
-0.0353457
-0.0336938
-0.0320831
-0.0305131
-0.0289833
-0.0274934
-0.0260426
-0.0246303
-0.023256
-0.0219187
-0.0206177
-0.0193521
-0.0181212
-0.0169238
-0.015759
-0.0146258
-0.013523
-0.0124495
-0.0114042
-0.0103854
-0.00939241
-0.00842282
-0.00747672
-0.00655
-0.00564485
-0.0047535
-0.0038832
-0.00301744
-0.00217535
-0.00131805
-0.000488885
-0.143026
-0.151912
-0.156779
-0.158685
-0.159607
-0.160686
-0.162125
-0.163685
-0.16511
-0.166289
-0.16723
-0.167986
-0.168598
-0.169081
-0.169437
-0.169663
-0.16976
-0.169732
-0.169585
-0.169322
-0.16895
-0.168469
-0.167882
-0.167193
-0.166409
-0.165538
-0.164593
-0.163577
-0.16248
-0.161295
-0.160025
-0.158677
-0.157255
-0.155763
-0.154204
-0.15258
-0.150892
-0.149144
-0.147336
-0.145473
-0.143555
-0.141586
-0.139568
-0.137504
-0.135395
-0.133246
-0.131057
-0.128832
-0.126574
-0.124285
-0.121967
-0.119625
-0.11726
-0.114876
-0.112475
-0.110059
-0.107633
-0.105198
-0.102758
-0.100315
-0.097871
-0.0954299
-0.0929938
-0.0905652
-0.0881466
-0.0857403
-0.0833486
-0.0809736
-0.0786176
-0.0762824
-0.0739699
-0.071682
-0.0694203
-0.0671863
-0.0649815
-0.0628072
-0.0606646
-0.0585549
-0.056479
-0.0544377
-0.0524319
-0.0504622
-0.0485292
-0.0466333
-0.0447749
-0.0429541
-0.0411713
-0.0394264
-0.0377195
-0.0360505
-0.0344191
-0.0328253
-0.0312686
-0.0297487
-0.0282651
-0.0268174
-0.0254049
-0.0240271
-0.0226834
-0.0213728
-0.0200948
-0.0188485
-0.0176329
-0.0164471
-0.0152902
-0.0141612
-0.0130588
-0.0119821
-0.0109294
-0.00990028
-0.00889213
-0.00790535
-0.00693566
-0.00598574
-0.00504732
-0.0041287
-0.00321205
-0.00231875
-0.00140673
-0.000523692
-0.13145
-0.139832
-0.144771
-0.147109
-0.148509
-0.149957
-0.151653
-0.153417
-0.155039
-0.156425
-0.15758
-0.158548
-0.159363
-0.160042
-0.16059
-0.161004
-0.161288
-0.161444
-0.161478
-0.161395
-0.161199
-0.160895
-0.160486
-0.159979
-0.159378
-0.158689
-0.157913
-0.157052
-0.156102
-0.155068
-0.153953
-0.152762
-0.151498
-0.150163
-0.14876
-0.147291
-0.145757
-0.144163
-0.142509
-0.140798
-0.139033
-0.137216
-0.13535
-0.133436
-0.131478
-0.129479
-0.127439
-0.125363
-0.123253
-0.121111
-0.118941
-0.116744
-0.114523
-0.112281
-0.110021
-0.107746
-0.105457
-0.103159
-0.100852
-0.0985407
-0.0962265
-0.0939122
-0.0916002
-0.0892929
-0.0869925
-0.0847014
-0.0824216
-0.0801552
-0.0779042
-0.0756705
-0.0734559
-0.0712621
-0.0690907
-0.0669431
-0.0648208
-0.062725
-0.060657
-0.0586178
-0.0566085
-0.0546298
-0.0526825
-0.0507674
-0.0488851
-0.0470359
-0.0452203
-0.0434387
-0.0416911
-0.0399779
-0.0382989
-0.0366542
-0.0350437
-0.0334673
-0.0319246
-0.0304154
-0.0289394
-0.027496
-0.0260848
-0.0247053
-0.0233568
-0.0220388
-0.0207504
-0.019491
-0.0182596
-0.0170556
-0.0158778
-0.0147255
-0.0135974
-0.0124927
-0.0114098
-0.0103483
-0.00930568
-0.00828251
-0.00727446
-0.00628456
-0.00530428
-0.00434264
-0.00338107
-0.00244243
-0.00148259
-0.000552168
-0.121318
-0.129095
-0.133967
-0.136583
-0.138337
-0.140074
-0.141979
-0.143909
-0.145691
-0.147248
-0.148581
-0.149728
-0.150719
-0.151571
-0.152286
-0.152868
-0.153317
-0.153638
-0.153836
-0.153916
-0.153883
-0.153742
-0.153496
-0.15315
-0.152708
-0.152172
-0.151544
-0.150827
-0.150024
-0.149139
-0.148175
-0.147135
-0.14602
-0.144833
-0.143577
-0.142253
-0.140865
-0.139416
-0.137906
-0.136339
-0.134718
-0.133044
-0.13132
-0.129549
-0.127733
-0.125874
-0.123975
-0.122039
-0.120068
-0.118064
-0.116031
-0.11397
-0.111884
-0.109776
-0.107649
-0.105504
-0.103345
-0.101174
-0.0989925
-0.0968043
-0.0946112
-0.0924156
-0.0902199
-0.0880262
-0.0858367
-0.0836535
-0.0814787
-0.0793143
-0.077162
-0.0750237
-0.0729012
-0.070796
-0.0687097
-0.0666437
-0.0645994
-0.062578
-0.0605807
-0.0586085
-0.0566625
-0.0547434
-0.0528521
-0.0509893
-0.0491556
-0.0473514
-0.0455773
-0.0438335
-0.0421204
-0.040438
-0.0387866
-0.0371661
-0.0355765
-0.0340177
-0.0324895
-0.0309918
-0.0295241
-0.0280861
-0.0266775
-0.0252977
-0.0239462
-0.0226224
-0.0213256
-0.0200553
-0.0188105
-0.0175907
-0.0163948
-0.015222
-0.0140713
-0.0129419
-0.0118323
-0.0107421
-0.00966888
-0.00861343
-0.00757139
-0.00654609
-0.00552885
-0.00452925
-0.00352821
-0.00254974
-0.00154822
-0.000576536
-0.112361
-0.119531
-0.124268
-0.127059
-0.129069
-0.131022
-0.133085
-0.135142