/*--------------------------------*- C++ -*----------------------------------*\
  =========                 |
  \\      /  F ield         | OpenFOAM: The Open Source CFD Toolbox
   \\    /   O peration     | Website:  https://openfoam.org
    \\  /    A nd           | Version:  7
     \\/     M anipulation  |
\*---------------------------------------------------------------------------*/
FoamFile
{
    version     2.0;
    format      ascii;
    class       surfaceScalarField;
    location    "60";
    object      phi;
}
// * * * * * * * * * * * * * * * * * * * * * * * * * * * * * * * * * * * * * //

dimensions      [0 3 -1 0 0 0 0];

internalField   nonuniform List<scalar> 
27710
(
-7.48515e-05
7.48349e-05
1.65746e-08
-0.000225941
0.000151032
5.77829e-08
-0.000423603
0.000197561
1.00639e-07
-0.000652034
0.000228286
1.45367e-07
-0.000903747
0.000251514
1.99331e-07
-0.00117538
0.000271367
2.69364e-07
-0.0014619
0.000286155
3.58748e-07
-0.0017474
0.000285033
4.6638e-07
-0.00205893
0.000310952
5.83192e-07
0.000247624
7.14964e-07
-0.00230727
-6.95276e-05
0.000144363
-0.000210529
0.000292033
-0.000393868
0.0003809
-0.000602911
0.000437328
-0.000828415
0.000477018
-0.00106494
0.000507893
-0.00130975
0.000530965
-0.00152754
0.000502819
-0.00178029
0.000563708
0.000378563
-0.00191123
-5.98104e-05
0.000204173
-0.000181905
0.000414128
-0.000337898
0.000536893
-0.000509427
0.000608858
-0.000683885
0.000651475
-0.000849209
0.000673217
-0.00100928
0.000691034
-0.00109183
0.000585367
-0.00121505
0.000686929
0.000290097
-0.00112658
-4.74013e-05
0.000251574
-0.000144134
0.000510861
-0.000262244
0.000655003
-0.000380471
0.000727084
-0.000482008
0.000753012
-0.000542158
0.000733367
-0.000564451
0.000713328
-0.000454987
0.000475903
-0.00032126
0.000553202
-7.43373e-05
4.31748e-05
-3.44362e-05
0.00028601
-0.000102365
0.00057879
-0.00017525
0.000727888
-0.00022711
0.000778945
-0.000234386
0.000760288
-0.00016667
0.000665651
3.14492e-05
0.000515208
0.000376361
0.000130991
0.000871171
5.83918e-05
-0.000945451
0.00174229
-2.29987e-05
0.000309009
-6.1573e-05
0.000617364
-8.47211e-05
0.000751036
-5.9783e-05
0.000754007
5.29267e-05
0.000647579
0.000284934
0.000433643
0.000730502
6.96401e-05
0.00143424
-0.000572749
0.00239452
-0.000901885
-0.00247462
0.00392369
-1.45503e-05
0.000323559
-2.48319e-05
0.000627645
5.80806e-06
0.000720396
0.000121695
0.000638119
0.000378697
0.000390577
0.000839091
-2.67508e-05
0.00162083
-0.000712094
0.00273332
-0.00168524
0.00426392
-0.00243249
-0.00461416
0.00640346
-9.62591e-06
0.000333185
8.18745e-06
0.000609832
0.000100237
0.000628347
0.000330979
0.000407377
0.00078438
-6.28245e-05
0.00155467
-0.000797039
0.0027339
-0.00189132
0.00431698
-0.00326832
0.00639295
-0.00450846
-0.00698594
0.00876472
-6.50244e-06
0.000339688
4.17492e-05
0.00056158
0.000213195
0.000456901
0.000601093
1.94787e-05
0.00132031
-0.000782045
0.00247951
-0.00195623
0.00405943
-0.00347124
0.00602301
-0.0052319
0.00838188
-0.00686733
-0.00910606
0.010502
-2.09446e-06
0.000341782
8.67965e-05
0.000472689
0.000369057
0.000174641
0.000976614
-0.000588079
0.00202874
-0.00183417
0.00356206
-0.00348955
0.0054329
-0.00534208
0.00748009
-0.00727909
0.00958988
-0.00897712
-0.0107493
0.0112331
6.08616e-06
0.000335696
0.000155544
0.000323232
0.000595686
-0.000265501
0.00148445
-0.00147685
0.00287438
-0.0032241
0.00463316
-0.00524833
0.00652655
-0.00723547
0.0083196
-0.00907214
0.00985487
-0.0105124
-0.0118904
0.010996
2.15962e-05
0.0003141
0.00026048
8.43476e-05
0.000912053
-0.000917074
0.00209932
-0.00266411
0.00370694
-0.00483173
0.00544736
-0.00698874
0.00707644
-0.00886455
0.00841509
-0.0104108
0.00954008
-0.0116374
-0.0128617
0.0105113
4.76825e-05
0.000266417
0.000411317
-0.000279287
0.00130999
-0.00181575
0.00272079
-0.00407491
0.00433402
-0.00644495
0.00583669
-0.00849141
0.00708046
-0.0101083
0.00806816
-0.0113985
0.00892312
-0.0124923
-0.0135974
0.0096588
8.66257e-05
0.000179792
0.000610887
-0.000803548
0.00173743
-0.0029423
0.0032119
-0.00554938
0.00464199
-0.00787504
0.00582078
-0.0096702
0.00674247
-0.01103
0.0074853
-0.0121413
0.00815219
-0.0131592
-0.0142436
0.00879846
0.000141187
3.86041e-05
0.000845834
-0.00150819
0.0021098
-0.00420626
0.00348332
-0.00692291
0.00464498
-0.0090367
0.00553083
-0.010556
0.00621153
-0.0117107
0.00678249
-0.0127123
0.00733277
-0.0137095
-0.0147794
0.00786857
0.000213744
-0.00017514
0.0010826
-0.00237705
0.00235472
-0.00547838
0.0035296
-0.00809778
0.00442427
-0.00993137
0.00507365
-0.0112054
0.00557843
-0.0122155
0.00602617
-0.01316
0.00646689
-0.0141502
-0.0152198
0.0069073
0.000301656
-0.000476796
0.00128032
-0.00335572
0.002449
-0.00664706
0.00339452
-0.0090433
0.00405592
-0.0105928
0.00452212
-0.0116716
0.00489428
-0.0125876
0.0052372
-0.0135029
0.00558219
-0.0144952
-0.0155671
0.00592942
0.000393105
-0.000869901
0.00140579
-0.0043684
0.00240748
-0.00764875
0.00312946
-0.00976527
0.00359747
-0.0110608
0.00392029
-0.0119945
0.00418405
-0.0128514
0.00443355
-0.0137525
0.00468256
-0.0147442
-0.0158145
0.00492998
0.000472781
-0.00134268
0.00144199
-0.00533761
0.00225721
-0.00846398
0.00277839
-0.0102865
0.0030879
-0.0113703
0.00329401
-0.0122006
0.00346275
-0.0130201
0.00362132
-0.013911
0.00377558
-0.0148985
-0.0159647
0.00392578
0.000528399
-0.00187108
0.00139369
-0.0062029
0.00202632
-0.00909661
0.00237471
-0.0106348
0.00255305
-0.0115486
0.00265877
-0.0123063
0.0027382
-0.0130996
0.00280699
-0.0139798
0.00286755
-0.014959
-0.016018
0.00292087
0.000552537
-0.00242362
0.00128378
-0.00693414
0.0017413
-0.00955413
0.00194193
-0.0108355
0.00200902
-0.0116157
0.00202393
-0.0123212
0.00201676
-0.0130924
0.00199514
-0.0139582
0.00195973
-0.0149236
-0.0159765
0.00191823
0.000542597
-0.00296621
0.00112713
-0.00751867
0.00142315
-0.00985015
0.00149599
-0.0109083
0.00146594
-0.0115857
0.00139573
-0.012251
0.00130346
-0.0130001
0.00119158
-0.0138463
0.00105717
-0.0147892
-0.015832
0.000912684
0.000501352
-0.00346757
0.000937704
-0.00795502
0.00108767
-0.0100001
0.00104886
-0.0108695
0.000930669
-0.0114675
0.000778223
-0.0120986
0.000601729
-0.0128236
0.000400415
-0.013645
0.000178041
-0.0145669
-0.0155603
-9.36953e-05
0.000435663
-0.00390323
0.00072789
-0.00824725
0.00074709
-0.0100193
0.000608514
-0.0107309
0.000407208
-0.0112662
0.000173086
-0.0118644
-8.72786e-05
-0.0125633
-0.000369833
-0.0133625
-0.000688148
-0.0142485
-0.0152091
-0.00103935
0.00035356
-0.00425679
0.000507946
-0.00840164
0.000409614
-0.00992099
0.000178235
-0.0104995
-0.000101535
-0.0109864
-0.000407201
-0.0115588
-0.000743579
-0.0122269
-0.00111496
-0.0129911
-0.00152431
-0.0138392
-0.0147707
-0.00196265
0.000262119
-0.00451891
0.00028701
-0.00842653
7.80436e-05
-0.00971202
-0.000231419
-0.0101901
-0.000581146
-0.0106367
-0.000964158
-0.0111758
-0.00137952
-0.0118115
-0.00183391
-0.0125367
-0.0023259
-0.0133472
-0.0142453
-0.00285138
0.000166859
-0.00468577
7.5579e-05
-0.00833525
-0.000233068
-0.00940338
-0.00061956
-0.00980359
-0.00104208
-0.0102141
-0.00149761
-0.0107202
-0.00198857
-0.0113206
-0.00252063
-0.0120046
-0.00309265
-0.0127752
-0.0136366
-0.0037013
7.32824e-05
-0.00475905
-0.000139305
-0.00812266
-0.000528877
-0.0090138
-0.000988356
-0.00934411
-0.00148005
-0.00972245
-0.0020052
-0.0101951
-0.00256785
-0.0107579
-0.00317234
-0.0114001
-0.00382029
-0.0121272
-0.012952
-0.00450488
-1.28363e-05
-0.00474621
-0.000341352
-0.00779414
-0.000809435
-0.00854572
-0.00133503
-0.00881851
-0.00189254
-0.00916494
-0.00248505
-0.00960258
-0.00311685
-0.0101261
-0.00378947
-0.0107275
-0.00449811
-0.0114186
-0.0121992
-0.0052509
-0.000118947
-0.00462727
-0.000528384
-0.00738471
-0.00107028
-0.00800382
-0.00165795
-0.00823085
-0.00227758
-0.0085453
-0.00293431
-0.00894585
-0.00363292
-0.0094275
-0.0043762
-0.00998424
-0.00516805
-0.0106267
-0.011426
-0.00594124
-0.000209142
-0.00441812
-0.000701231
-0.00689262
-0.00130928
-0.00739577
-0.00195536
-0.00758477
-0.00263315
-0.00786751
-0.00334941
-0.00822959
-0.00410936
-0.00866755
-0.00491576
-0.00917784
-0.00576958
-0.00977292
-0.0104268
-0.00676883
-0.000290006
-0.00412812
-0.00085862
-0.006324
-0.00152617
-0.00672822
-0.00222612
-0.00688482
-0.00295781
-0.00713582
-0.00372823
-0.00745917
-0.00454103
-0.00785475
-0.00540014
-0.00831873
-0.00632517
-0.00884789
-0.00939919
-0.00735275
-0.000362028
-0.00376609
-0.000999371
-0.00568666
-0.00172012
-0.00600747
-0.00246901
-0.00613594
-0.00324988
-0.00635495
-0.00407065
-0.0066384
-0.00493784
-0.00698756
-0.00586045
-0.00739611
-0.00685323
-0.00785511
-0.00834266
-0.00790976
-0.000424902
-0.00334119
-0.00112277
-0.00498879
-0.00189055
-0.0052397
-0.00268302
-0.00534347
-0.00350711
-0.00553086
-0.0043707
-0.00577481
-0.00528171
-0.00607655
-0.00625116
-0.00642667
-0.00729068
-0.00681558
-0.00723801
-0.00839533
-0.000477643
-0.00286354
-0.00122813
-0.0042383
-0.00203704
-0.00443079
-0.00286787
-0.00451263
-0.00373048
-0.00466825
-0.00463344
-0.00487185
-0.00558563
-0.00512435
-0.00659665
-0.00541565
-0.00767379
-0.00573845
-0.00609442
-0.00881738
-0.000518744
-0.0023448
-0.0013151
-0.00344194
-0.00215921
-0.00358669
-0.00302228
-0.00364956
-0.00391672
-0.00377382
-0.0048517
-0.00393686
-0.00583687
-0.00413919
-0.00688118
-0.00437134
-0.00799113
-0.0046285
-0.00491549
-0.00917005
-0.000554062
-0.00179074
-0.00138499
-0.00261102
-0.00225732
-0.00271435
-0.00314666
-0.00276022
-0.0040672
-0.00285327
-0.00502846
-0.0029756
-0.00604022
-0.00312743
-0.00711059
-0.00330097
-0.00824599
-0.00349309
-0.00370919
-0.0094523
-0.000581482
-0.00120926
-0.00143775
-0.00175475
-0.002331
-0.00182111
-0.00324006
-0.00185115
-0.0041802
-0.00191313
-0.00516113
-0.00199468
-0.0061927
-0.00209586
-0.0072825
-0.00221117
-0.00843678
-0.00233881
-0.002483
-0.00966298
-0.000599981
-0.000609275
-0.00147313
-0.000881601
-0.00238023
-0.000914005
-0.00330251
-0.000928878
-0.00425579
-0.000959852
-0.00524985
-0.00100062
-0.00629454
-0.00105118
-0.00739699
-0.00110871
-0.00856345
-0.00117234
-0.00124434
-0.0098021
-0.000609276
9.26412e-10
-0.00149088
2.3813e-09
-0.00240489
2.87074e-09
-0.00333377
3.17593e-09
-0.00429362
3.56355e-09
-0.00529424
3.96185e-09
-0.00634543
4.3685e-09
-0.00745414
4.75778e-09
-0.00862649
5.13757e-09
5.48825e-09
-0.00987084
-0.000609276
0.000609277
-0.00149088
0.000881606
-0.00240489
0.00091401
-0.00333377
0.000928885
-0.00429362
0.000959859
-0.00529424
0.00100062
-0.00634543
0.00105119
-0.00745414
0.00110872
-0.00862649
0.00117236
0.00124436
-0.00987084
-0.000599981
0.00120926
-0.00147313
0.00175476
-0.00238023
0.00182111
-0.00330251
0.00185116
-0.00425579
0.00191314
-0.00524985
0.00199469
-0.00629454
0.00209587
-0.00739699
0.00221118
-0.00856345
0.00233882
0.00248301
-0.0098021
-0.000581481
0.00179074
-0.00143775
0.00261102
-0.00233099
0.00271436
-0.00324006
0.00276023
-0.0041802
0.00285328
-0.00516112
0.00297561
-0.0061927
0.00312744
-0.0072825
0.00330098
-0.00843678
0.0034931
0.0037092
-0.00966297
-0.000554062
0.0023448
-0.00138499
0.00344195
-0.00225732
0.00358669
-0.00314665
0.00364957
-0.0040672
0.00377383
-0.00502846
0.00393687
-0.00604022
0.00413919
-0.00711059
0.00437135
-0.00824599
0.00462851
0.0049155
-0.00945229
-0.000518743
0.00286354
-0.0013151
0.0042383
-0.00215921
0.0044308
-0.00302228
0.00451264
-0.00391671
0.00466826
-0.00485169
0.00487185
-0.00583686
0.00512436
-0.00688117
0.00541566
-0.00799113
0.00573846
0.00609443
-0.00917005
-0.000477642
0.00334119
-0.00122813
0.00498879
-0.00203703
0.0052397
-0.00286787
0.00534347
-0.00373048
0.00553086
-0.00463344
0.00577481
-0.00558563
0.00607656
-0.00659665
0.00642668
-0.00767378
0.0068156
0.00723802
-0.00881738
-0.000424901
0.00376609
-0.00112277
0.00568666
-0.00189055
0.00600748
-0.00268301
0.00613594
-0.0035071
0.00635495
-0.00437069
0.00663841
-0.00528171
0.00698757
-0.00625115
0.00739612
-0.00729068
0.00785512
0.00834268
-0.00839533
-0.000362027
0.00412811
-0.000999369
0.006324
-0.00172012
0.00672822
-0.002469
0.00688483
-0.00324987
0.00713582
-0.00407065
0.00745918
-0.00493784
0.00785476
-0.00586045
0.00831874
-0.00685323
0.0088479
0.0093992
-0.00790975
-0.000290005
0.00441812
-0.000858617
0.00689262
-0.00152617
0.00739577
-0.00222611
0.00758477
-0.0029578
0.00786752
-0.00372823
0.0082296
-0.00454103
0.00866756
-0.00540013
0.00917785
-0.00632517
0.00977293
0.0104268
-0.00735274
-0.00020914
0.00462726
-0.000701227
0.0073847
-0.00130928
0.00800382
-0.00195536
0.00823085
-0.00263315
0.00854531
-0.0033494
0.00894586
-0.00410935
0.0094275
-0.00491575
0.00998425
-0.00576957
0.0106268
0.011426
-0.00676883
-0.000118945
0.0047462
-0.00052838
0.00779414
-0.00107028
0.00854572
-0.00165794
0.00881851
-0.00227758
0.00916494
-0.00293431
0.00960259
-0.00363291
0.0101261
-0.00437619
0.0107275
-0.00516804
0.0114186
0.0121992
-0.00594123
-1.28333e-05
0.00475904
-0.000341347
0.00812265
-0.000809429
0.0090138
-0.00133503
0.00934411
-0.00189253
0.00972245
-0.00248504
0.0101951
-0.00311685
0.0107579
-0.00378946
0.0114001
-0.0044981
0.0121272
0.012952
-0.0052509
7.32846e-05
0.00468575
-0.0001393
0.00833524
-0.00052887
0.00940337
-0.000988348
0.00980359
-0.00148004
0.0102141
-0.00200519
0.0107202
-0.00256784
0.0113206
-0.00317233
0.0120046
-0.00382028
0.0127752
0.0136366
-0.00450488
0.000166861
0.00451889
7.55844e-05
0.00842651
-0.00023306
0.00971202
-0.000619551
0.0101901
-0.00104207
0.0106367
-0.00149759
0.0111758
-0.00198856
0.0118115
-0.00252062
0.0125367
-0.00309264
0.0133472
0.0142453
-0.0037013
0.000262122
0.00425677
0.000287016
0.00840162
7.80529e-05
0.00992098
-0.000231409
0.0104995
-0.000581134
0.0109864
-0.000964145
0.0115588
-0.00137951
0.0122269
-0.0018339
0.0129911
-0.00232589
0.0138392
0.0147708
-0.00285137
0.000353563
0.00390321
0.000507953
0.00824723
0.000409625
0.0100193
0.000178248
0.0107309
-0.000101522
0.0112662
-0.000407186
0.0118644
-0.000743564
0.0125633
-0.00111494
0.0133625
-0.0015243
0.0142486
0.0152091
-0.00196264
0.000435666
0.00346754
0.000727898
0.007955
0.000747102
0.0100001
0.000608528
0.0108695
0.000407224
0.0114675
0.000173103
0.0120986
-8.72617e-05
0.0128236
-0.000369816
0.013645
-0.000688133
0.0145669
0.0155603
-0.00103933
0.000501354
0.00296619
0.000937712
0.00751864
0.00108768
0.00985013
0.00104888
0.0109083
0.000930687
0.0115857
0.000778242
0.012251
0.000601749
0.0130001
0.000400435
0.0138463
0.000178059
0.0147892
0.015832
-9.36795e-05
0.000542598
0.00242359
0.00112714
0.0069341
0.00142316
0.00955411
0.00149601
0.0108355
0.00146596
0.0116157
0.00139576
0.0123212
0.00130348
0.0130924
0.00119161
0.0139582
0.0010572
0.0149237
0.0159765
0.000912704
0.000552538
0.00187105
0.00128378
0.00620286
0.00174132
0.00909657
0.00194194
0.0106348
0.00200904
0.0115486
0.00202396
0.0123063
0.00201679
0.0130996
0.00199517
0.0139798
0.00195976
0.0149591
0.016018
0.00191826
0.000528398
0.00134265
0.0013937
0.00533756
0.00202634
0.00846394
0.00237473
0.0102864
0.00255307
0.0113703
0.0026588
0.0122006
0.00273823
0.0130202
0.00280702
0.013911
0.00286758
0.0148985
0.0159647
0.0029209
0.000472779
0.000869873
0.00144199
0.00436834
0.00225722
0.0076487
0.00277841
0.00976524
0.00308793
0.0110608
0.00329404
0.0119944
0.00346279
0.0128514
0.00362136
0.0137525
0.00377562
0.0147442
0.0158145
0.00392582
0.000393102
0.000476771
0.00140579
0.00335566
0.00240749
0.006647
0.00312948
0.00904325
0.0035975
0.0105927
0.00392033
0.0116716
0.00418409
0.0125876
0.0044336
0.013503
0.00468261
0.0144952
0.0155671
0.00493002
0.000301653
0.000175118
0.00128032
0.002377
0.00244901
0.00547831
0.00339454
0.00809772
0.00405595
0.00993132
0.00452216
0.0112054
0.00489433
0.0122155
0.00523726
0.01316
0.00558225
0.0141502
0.0152199
0.00592947
0.000213741
-3.86222e-05
0.00108259
0.00150814
0.00235472
0.00420619
0.00352961
0.00692283
0.0044243
0.00903663
0.0050737
0.010556
0.00557849
0.0117107
0.00602623
0.0127123
0.00646696
0.0137095
0.0147795
0.00690737
0.000141184
-0.000179806
0.000845823
0.000803503
0.00210979
0.00294222
0.00348333
0.00554929
0.00464501
0.00787495
0.00553087
0.00967013
0.0062116
0.01103
0.00678258
0.0121413
0.00733286
0.0131592
0.0142437
0.00786866
8.66214e-05
-0.000266427
0.000610873
0.000279252
0.00173741
0.00181568
0.00321189
0.00407481
0.004642
0.00644484
0.00582082
0.00849131
0.00674254
0.0101082
0.00748539
0.0113984
0.0081523
0.0124923
0.0135974
0.00879858
4.76769e-05
-0.000314104
0.0004113
-8.43716e-05
0.00130996
0.000917016
0.00272076
0.00266401
0.00433401
0.0048316
0.00583672
0.00698861
0.00708054
0.00886443
0.00806827
0.0104107
0.00892326
0.0116373
0.0128617
0.00965894
2.1589e-05
-0.000335693
0.000260461
-0.000323243
0.00091202
0.000265457
0.00209928
0.00147676
0.00370691
0.00322396
0.00544736
0.00524816
0.0070765
0.00723529
0.00841521
0.00907199
0.00954025
0.0105123
0.0118905
0.0105115
6.0784e-06
-0.000341772
0.000155523
-0.000472688
0.000595651
-0.000174671
0.00148441
0.000588004
0.00287433
0.00183404
0.00463313
0.00348936
0.00652657
0.00534185
0.0083197
0.00727887
0.00985507
0.00897693
0.0107493
0.0109963
-2.10351e-06
-0.000339668
8.67788e-05
-0.000561571
0.000369028
-0.000456921
0.000976572
-1.95402e-05
0.00202869
0.000781924
0.003562
0.00195604
0.00543288
0.00347096
0.00748013
0.00523162
0.00959008
0.00686698
0.00910591
0.0112334
-6.50764e-06
-0.000333161
4.17401e-05
-0.000609818
0.000213182
-0.000628363
0.000601075
-0.000407433
0.00132028
6.27154e-05
0.00247947
0.000796858
0.00405941
0.00189102
0.00602302
0.00326801
0.00838203
0.00450797
0.00698564
0.0105023
-9.62657e-06
-0.000323534
8.19107e-06
-0.000627636
0.000100249
-0.000720421
0.000330999
-0.000638183
0.000784404
-0.000390689
0.00155469
2.65728e-05
0.00273393
0.000711786
0.00431702
0.00168491
0.00639308
0.00243191
0.00461371
0.00876501
-1.45459e-05
-0.000308988
-2.48138e-05
-0.000617368
5.84695e-06
-0.000751082
0.000121759
-0.000754095
0.000378787
-0.000647717
0.000839204
-0.000433844
0.00162097
-6.99773e-05
0.00273349
0.000572386
0.00426415
0.000901259
0.00247403
0.00640383
-2.29898e-05
-0.000285998
-6.15431e-05
-0.000578815
-8.46604e-05
-0.000727964
-5.96837e-05
-0.000779072
5.30708e-05
-0.000760472
0.000285142
-0.000665915
0.000730765
-0.0005156
0.00143459
-0.00013144
0.00239494
-5.9088e-05
0.000944731
0.00392424
-3.44245e-05
-0.000251574
-0.000102328
-0.000510911
-0.000175177
-0.000655115
-0.000226991
-0.000727258
-0.000234205
-0.000753257
-0.000166419
-0.000733702
3.17642e-05
-0.000713783
0.000376853
-0.000476529
0.000871745
-0.000553979
7.34491e-05
0.00174303
-4.73888e-05
-0.000204185
-0.000144097
-0.000414203
-0.000262172
-0.00053704
-0.000380352
-0.000609078
-0.000481829
-0.00065178
-0.0005419
-0.000673631
-0.000564089
-0.000691595
-0.000454513
-0.000586105
-0.000320645
-0.000687847
-0.000291284
4.40878e-05
-5.97994e-05
-0.000144386
-0.000181872
-0.00029213
-0.000337837
-0.000381076
-0.000509329
-0.000437586
-0.000683736
-0.000477373
-0.000848993
-0.000508374
-0.00100898
-0.000531609
-0.00109142
-0.000503661
-0.00121451
-0.000564759
-0.000379887
-0.00112591
-6.95202e-05
-7.48654e-05
-0.000210508
-0.000151143
-0.000393828
-0.000197755
-0.000602846
-0.000228568
-0.000828317
-0.000251901
-0.0010648
-0.000271891
-0.00130956
-0.000286854
-0.00152727
-0.000285943
-0.00177994
-0.000312088
-0.000249028
-0.0019108
-7.48488e-05
-0.000225934
-0.000423589
-0.000652011
-0.000903713
-0.00117533
-0.00146183
-0.00174731
-0.00205881
-0.00230712
-0.00234896
4.13218e-05
3.70695e-07
-0.00238738
3.80411e-05
3.71142e-07
-0.00242128
3.35368e-05
3.63656e-07
-0.00245105
2.94292e-05
3.4817e-07
-0.0024772
2.58259e-05
3.22475e-07
-0.00250015
2.26613e-05
2.86405e-07
-0.00252026
1.98717e-05
2.39137e-07
-0.00253783
1.73872e-05
1.80033e-07
-0.00255308
1.51406e-05
1.08696e-07
-0.00256618
1.30745e-05
2.46908e-08
-0.00257725
1.11414e-05
-6.80923e-08
-0.00258638
9.30315e-06
-1.724e-07
-0.00259363
7.52965e-06
-2.85236e-07
-0.00259902
5.80177e-06
-4.04678e-07
-0.00260261
4.1192e-06
-5.27514e-07
-0.00260446
2.49336e-06
-6.44712e-07
-0.00260459
8.6774e-07
-7.45289e-07
-0.0026031
-6.50745e-07
-8.34414e-07
-0.00260015
-2.01228e-06
-9.41719e-07
-0.00259567
-3.42278e-06
-1.05207e-06
-0.00258965
-4.85636e-06
-1.1602e-06
-0.00258208
-6.30743e-06
-1.26287e-06
-0.00257295
-7.77469e-06
-1.35747e-06
-0.00256226
-9.25371e-06
-1.44145e-06
-0.00254998
-1.07593e-05
-1.51328e-06
-0.00253612
-1.22944e-05
-1.57111e-06
-0.00252064
-1.3862e-05
-1.6133e-06
-0.00250354
-1.54653e-05
-1.63837e-06
-0.00248479
-1.71067e-05
-1.64498e-06
-0.00246437
-1.87878e-05
-1.63199e-06
-0.00244226
-2.05098e-05
-1.59846e-06
-0.00241844
-2.22732e-05
-1.54371e-06
-0.0023929
-2.40781e-05
-1.46728e-06
-0.00236561
-2.59237e-05
-1.369e-06
-0.00233655
-2.78086e-05
-1.24897e-06
-0.00230571
-2.97309e-05
-1.1076e-06
-0.00227308
-3.16881e-05
-9.45573e-07
-0.00223863
-3.3677e-05
-7.63894e-07
-0.00220238
-3.5694e-05
-5.63572e-07
-0.0021643
-3.77349e-05
-3.4579e-07
-0.00212439
-3.97949e-05
-1.11852e-07
-0.00208265
-4.18685e-05
1.31573e-07
-0.00203909
-4.39502e-05
3.86864e-07
-0.00199371
-4.60341e-05
6.50556e-07
-0.00194651
-4.8114e-05
9.19555e-07
-0.00189752
-5.01832e-05
1.19089e-06
-0.00184675
-5.22352e-05
1.4615e-06
-0.00179421
-5.42633e-05
1.72828e-06
-0.00173994
-5.62609e-05
1.98809e-06
-0.00168395
-5.82216e-05
2.23786e-06
-0.00162629
-6.01389e-05
2.47464e-06
-0.00156698
-6.20063e-05
2.69569e-06
-0.00150605
-6.38238e-05
2.89854e-06
-0.00144354
-6.55906e-05
3.08071e-06
-0.00137953
-6.72552e-05
3.23864e-06
-0.00131406
-6.88395e-05
3.37091e-06
-0.00124719
-7.03475e-05
3.47553e-06
-0.00117896
-7.17734e-05
3.55081e-06
-0.00110945
-7.31123e-05
3.59542e-06
-0.00103869
-7.43606e-05
3.60834e-06
-0.000966768
-7.55151e-05
3.58891e-06
-0.000893732
-7.65736e-05
3.53682e-06
-0.000819649
-7.75343e-05
3.45213e-06
-0.000744588
-7.83963e-05
3.33527e-06
-0.000668616
-7.91588e-05
3.18687e-06
-0.000591805
-7.98194e-05
3.00803e-06
-0.000514227
-8.03801e-05
2.80214e-06
-0.000435886
-8.09101e-05
2.56935e-06
-0.000356929
-8.1267e-05
2.30989e-06
-0.000277414
-8.15419e-05
2.02652e-06
-0.0001974
-8.17374e-05
1.72347e-06
-0.000116953
-8.18498e-05
1.4029e-06
-3.6139e-05
-8.18813e-05
1.0673e-06
4.49778e-05
-8.18357e-05
7.18899e-07
0.000126335
-8.17177e-05
3.60531e-07
0.00020787
-8.15323e-05
-2.75265e-09
0.000289517
-8.12848e-05
-3.6233e-07
0.000371222
-8.09789e-05
-7.25888e-07
0.000452928
-8.06199e-05
-1.08608e-06
0.00053458
-8.02128e-05
-1.4396e-06
0.000616127
-7.97629e-05
-1.78347e-06
0.000697517
-7.92752e-05
-2.11486e-06
0.000778703
-7.87549e-05
-2.43113e-06
0.000859639
-7.82066e-05
-2.72978e-06
0.000940283
-7.76353e-05
-3.0085e-06
0.00102059
-7.70455e-05
-3.2652e-06
0.00110053
-7.64415e-05
-3.49799e-06
0.00118007
-7.58276e-05
-3.70523e-06
0.00125916
-7.52076e-05
-3.8855e-06
0.00133778
-7.45852e-05
-4.03765e-06
0.00141591
-7.39639e-05
-4.16075e-06
0.00149351
-7.33468e-05
-4.25414e-06
0.00157056
-7.27367e-05
-4.31741e-06
0.00164705
-7.21364e-05
-4.35037e-06
0.00172295
-7.15481e-05
-4.35309e-06
0.00179825
-7.0974e-05
-4.32587e-06
0.00187293
-7.04159e-05
-4.2692e-06
0.00194699
-6.98753e-05
-4.18381e-06
0.00202042
-6.93538e-05
-4.07062e-06
0.0020932
-6.88525e-05
-3.93073e-06
0.00216534
-6.83724e-05
-3.76543e-06
0.00223683
-6.79144e-05
-3.57613e-06
0.00230767
-6.7479e-05
-3.36439e-06
0.00237787
-6.70671e-05
-3.1319e-06
0.00244743
-6.66791e-05
-2.88043e-06
0.00251636
-6.63156e-05
-2.61184e-06
0.00258466
-6.5977e-05
-2.32806e-06
0.00265236
-6.56642e-05
-2.03106e-06
0.00271946
-6.53777e-05
-1.72281e-06
0.00278598
-6.51188e-05
-1.4053e-06
0.00285195
-6.48887e-05
-1.08046e-06
0.00291739
-6.46897e-05
-7.50076e-07
0.00298233
-6.45237e-05
-4.15815e-07
0.00304681
-6.43964e-05
-7.72647e-08
0.00311086
-6.43067e-05
2.52177e-07
0.00317455
-6.42787e-05
5.85441e-07
0.00323792
-6.42851e-05
9.16422e-07
0.00330111
-6.44288e-05
1.24462e-06
0.0033641
-6.45564e-05
1.56746e-06
-6.45249e-05
1.91375e-06
-0.00194583
7.59183e-05
-0.00197855
7.07636e-05
-0.00200781
6.27942e-05
-0.0020335
5.51178e-05
-0.00205599
4.83156e-05
-0.00207561
4.22874e-05
-0.00209267
3.69269e-05
-0.00210739
3.21099e-05
-0.00211996
2.77085e-05
-0.0021305
2.36143e-05
-0.0021391
1.97412e-05
-0.00214581
1.60176e-05
-0.00215067
1.23841e-05
-0.00215367
8.80213e-06
-0.00215482
5.27464e-06
-0.00215411
1.78362e-06
-0.00215181
-1.43208e-06
-0.00214815
-4.30953e-06
-0.0021429
-7.2665e-06
-0.00213607
-1.02542e-05
-0.00212766
-1.32644e-05
-0.00211767
-1.63009e-05
-0.00210607
-1.93695e-05
-0.00209292
-2.24068e-05
-0.00207819
-2.5486e-05
-0.00206188
-2.86085e-05
-0.00204396
-3.1778e-05
-0.00202443
-3.49987e-05
-0.00200326
-3.8273e-05
-0.00198045
-4.16029e-05
-0.00195597
-4.49891e-05
-0.00192981
-4.84321e-05
-0.00190196
-5.19308e-05
-0.0018724
-5.54836e-05
-0.00184112
-5.90877e-05
-0.00180811
-6.27396e-05
-0.00177336
-6.64349e-05
-0.00173687
-7.01683e-05
-0.00169863
-7.39337e-05
-0.00165864
-7.77243e-05
-0.0016169
-8.15323e-05
-0.00157342
-8.53495e-05
-0.00152821
-8.91672e-05
-0.00148126
-9.29761e-05
-0.00143261
-9.67665e-05
-0.00138227
-0.000100528
-0.00133025
-0.000104252
-0.00127659
-0.000107926
-0.00122131
-0.000111542
-0.00116444
-0.000115089
-0.00110602
-0.000118559
-0.00104608
-0.000121941
-0.000984676
-0.000125231
-0.000921789
-0.000128477
-0.000857536
-0.000131508
-0.000791968
-0.000134407
-0.000725134
-0.000137182
-0.000657086
-0.000139821
-0.00058788
-0.000142318
-0.000517577
-0.000144664
-0.000446235
-0.000146857
-0.000373916
-0.000148892
-0.000300684
-0.000150766
-0.000226603
-0.000152478
-0.000151735
-0.000154027
-7.61319e-05
-0.000155422
1.53715e-07
-0.000156666
7.69062e-05
-0.000157663
0.000154207
-0.000158568
0.00023198
-0.000159315
0.000310149
-0.000159907
0.000388648
-0.000160349
0.000467415
-0.000160648
0.000546388
-0.000160809
0.000625508
-0.000160838
0.000704717
-0.000160741
0.000783959
-0.000160526
0.000863179
-0.000160199
0.000942326
-0.000159767
0.00102135
-0.000159237
0.0011002
-0.000158616
0.00117884
-0.000157911
0.00125721
-0.000157131
0.00133529
-0.000156281
0.00141302
-0.00015537
0.00149038
-0.000154404
0.00156733
-0.000153389
0.00164383
-0.000152332
0.00171987
-0.000151241
0.0017954
-0.000150119
0.00187041
-0.000148974
0.00194487
-0.000147811
0.00201877
-0.000146634
0.00209209
-0.00014545
0.0021648
-0.000144262
0.0022369
-0.000143074
0.00230837
-0.000141892
0.00237922
-0.000140718
0.00244942
-0.000139556
0.00251898
-0.00013841
0.00258789
-0.000137282
0.00265615
-0.000136177
0.00272377
-0.000135096
0.00279074
-0.000134042
0.00285708
-0.000133018
0.00292279
-0.000132028
0.00298789
-0.000131073
0.00305238
-0.000130158
0.00311629
-0.000129285
0.00317963
-0.000128458
0.00324242
-0.000127682
0.0033047
-0.000126963
0.00336648
-0.000126305
0.0034278
-0.000125722
0.00348871
-0.000125211
0.00354925
-0.000124819
0.00360945
-0.000124492
0.00366941
-0.000124384
0.0037292
-0.000124348
-0.000124074
-0.00115285
0.000102187
-0.0011738
9.17123e-05
-0.0011952
8.41949e-05
-0.00121441
7.4323e-05
-0.00123147
6.53813e-05
-0.00124637
5.71842e-05
-0.00125916
4.9722e-05
-0.00126996
4.29067e-05
-0.00127884
3.65886e-05
-0.00128586
3.06323e-05
-0.00129105
2.49356e-05
-0.00129444
1.94072e-05
-0.00129601
1.39562e-05
-0.00129572
8.50383e-06
-0.00129341
2.97187e-06
-0.0012895
-2.12635e-06
-0.00128425
-6.68495e-06
-0.00127725
-1.13133e-05
-0.00126857
-1.59415e-05
-0.00125825
-2.05739e-05
-0.0012463
-2.52178e-05
-0.00123271
-2.98896e-05
-0.00121748
-3.45973e-05
-0.00120067
-3.92155e-05
-0.00118226
-4.38955e-05
-0.00116225
-4.86224e-05
-0.00114063
-5.34013e-05
-0.00111739
-5.82377e-05
-0.00109253
-6.3134e-05
-0.00106604
-6.80915e-05
-0.00103792
-7.31111e-05
-0.00100816
-7.81928e-05
-0.000976751
-8.33348e-05
-0.0009437
-8.85343e-05
-0.000909001
-9.37871e-05
-0.000872653
-9.9088e-05
-0.000834657
-0.000104431
-0.000795018
-0.000109808
-0.000753741
-0.000115211
-0.000710834
-0.000120631
-0.00066631
-0.000126057
-0.000620181
-0.000131478
-0.000572464
-0.000136884
-0.000523179
-0.000142261
-0.000472349
-0.000147597
-0.000419998
-0.000152879
-0.000366156
-0.000158094
-0.000310853
-0.000163229
-0.000254124
-0.000168271
-0.000196006
-0.000173207
-0.000136538
-0.000178027
-7.57539e-05
-0.000182725
-1.36935e-05
-0.000187291
4.94231e-05
-0.000191594
0.000113693
-0.000195778
0.000179082
-0.000199796
0.000245526
-0.000203626
0.000312965
-0.000207261
0.000381339
-0.000210691
0.000450585
-0.000213911
0.000520643
-0.000216915
0.000591449
-0.000219698
0.000662941
-0.000222258
0.000735056
-0.000224593
0.000807731
-0.000226702
0.000880897
-0.000228589
0.000954483
-0.000230252
0.00102849
-0.00023167
0.0011028
-0.000232879
0.00117736
-0.000233878
0.00125212
-0.000234666
0.00132702
-0.000235248
0.00140201
-0.000235633
0.00147702
-0.000235825
0.00155202
-0.000235834
0.00162695
-0.000235667
0.00170175
-0.000235333
0.00177639
-0.00023484
0.00185082
-0.000234198
0.001925
-0.000233415
0.00199889
-0.000232502
0.00207244
-0.000231467
0.00214563
-0.00023032
0.00221842
-0.000229071
0.00229078
-0.000227728
0.00236268
-0.0002263
0.00243409
-0.000224798
0.00250498
-0.000223228
0.00257534
-0.000221601
0.00264515
-0.000219923
0.00271437
-0.000218203
0.00278301
-0.000216448
0.00285104
-0.000214666
0.00291846
-0.000212863
0.00298524
-0.000211047
0.00305139
-0.000209223
0.0031169
-0.000207398
0.00318176
-0.000205577
0.00324597
-0.000203766
0.00330953
-0.00020197
0.00337244
-0.000200195
0.00343471
-0.000198444
0.00349634
-0.000196724
0.00355733
-0.000195039
0.00361771
-0.000193393
0.00367747
-0.000191792
0.00373664
-0.00019024
0.00379522
-0.000188743
0.00385325
-0.000187307
0.00391073
-0.000185938
0.00396769
-0.000184643
0.00402416
-0.000183432
0.00408016
-0.000182308
0.00413573
-0.000181296
0.00419091
-0.000180385
0.00424573
-0.000179639
0.00430023
-0.000179
0.00435443
-0.000178579
0.00440849
-0.000178411
-0.000178031
3.6291e-05
0.000109071
1.86149e-05
0.000109388
4.12956e-06
9.86802e-05
-1.02362e-05
8.86888e-05
-2.40049e-05
7.91501e-05
-3.6646e-05
6.98253e-05
-4.78132e-05
6.08892e-05
-5.73586e-05
5.24522e-05
-6.51683e-05
4.43983e-05
-7.11457e-05
3.66098e-05
-7.52448e-05
2.90347e-05
-7.74482e-05
2.16107e-05
-7.77109e-05
1.42189e-05
-7.58895e-05
6.68246e-06
-7.18175e-05
-1.10015e-06
-6.64765e-05
-7.46734e-06
-5.91693e-05
-1.39922e-05
-5.00282e-05
-2.04544e-05
-3.90945e-05
-2.68752e-05
-2.63908e-05
-3.32777e-05
-1.19376e-05
-3.9671e-05
4.23267e-06
-4.60599e-05
2.19686e-05