/*--------------------------------*- C++ -*----------------------------------*\
  =========                 |
  \\      /  F ield         | OpenFOAM: The Open Source CFD Toolbox
   \\    /   O peration     | Website:  https://openfoam.org
    \\  /    A nd           | Version:  7
     \\/     M anipulation  |
\*---------------------------------------------------------------------------*/
FoamFile
{
    version     2.0;
    format      ascii;
    class       volScalarField;
    location    "15";
    object      p;
}
// * * * * * * * * * * * * * * * * * * * * * * * * * * * * * * * * * * * * * //

dimensions      [0 2 -2 0 0 0 0];

internalField   nonuniform List<scalar> 
14000
(
-0.284593
-0.288576
-0.29038
-0.292644
-0.295255
-0.298091
-0.300954
-0.303663
-0.30679
-0.308307
-0.285819
-0.289543
-0.291261
-0.293466
-0.296026
-0.298841
-0.301748
-0.304061
-0.307818
-0.308034
-0.288109
-0.291341
-0.292861
-0.294914
-0.297332
-0.300011
-0.303173
-0.304148
-0.30987
-0.307083
-0.291192
-0.293736
-0.29491
-0.296665
-0.298813
-0.301018
-0.304999
-0.303147
-0.312786
-0.304791
-0.294763
-0.296477
-0.297117
-0.298364
-0.300133
-0.301374
-0.30669
-0.301162
-0.314402
-0.302232
-0.298574
-0.299362
-0.299254
-0.299735
-0.300954
-0.301292
-0.306907
-0.298766
-0.315071
-0.30022
-0.302504
-0.302289
-0.301223
-0.300743
-0.301039
-0.300732
-0.305874
-0.296648
-0.311728
-0.300226
-0.306598
-0.305267
-0.303091
-0.301443
-0.300661
-0.299823
-0.302974
-0.296062
-0.304091
-0.298234
-0.311105
-0.308462
-0.30506
-0.302119
-0.300134
-0.298663
-0.298687
-0.294683
-0.294455
-0.290535
-0.316393
-0.312183
-0.307454
-0.303108
-0.299788
-0.297031
-0.293951
-0.289679
-0.283061
-0.277498
-0.322865
-0.316837
-0.310633
-0.304701
-0.299682
-0.294762
-0.288571
-0.281448
-0.270308
-0.260574
-0.331003
-0.322808
-0.314851
-0.306998
-0.299654
-0.291667
-0.281992
-0.271087
-0.257763
-0.245409
-0.341276
-0.330411
-0.320211
-0.310034
-0.299452
-0.28753
-0.27413
-0.260066
-0.244814
-0.231051
-0.354077
-0.339741
-0.326896
-0.313684
-0.298673
-0.282207
-0.265241
-0.248375
-0.23182
-0.217542
-0.369653
-0.350483
-0.335136
-0.317448
-0.296806
-0.2756
-0.255264
-0.236221
-0.218771
-0.203744
-0.387965
-0.362319
-0.344322
-0.320349
-0.293345
-0.267517
-0.244242
-0.223442
-0.205238
-0.189629
-0.407634
-0.375359
-0.352615
-0.321114
-0.287787
-0.257786
-0.231983
-0.209816
-0.191067
-0.174809
-0.426589
-0.389353
-0.358169
-0.318643
-0.279662
-0.246118
-0.218273
-0.195097
-0.175929
-0.159287
-0.442646
-0.402445
-0.359951
-0.312298
-0.268528
-0.232199
-0.20282
-0.178993
-0.159688
-0.143041
-0.454186
-0.411662
-0.357051
-0.301702
-0.254015
-0.215688
-0.185336
-0.161261
-0.142134
-0.126007
-0.460126
-0.41436
-0.348292
-0.286463
-0.235816
-0.196286
-0.16557
-0.141707
-0.123108
-0.107758
-0.45949
-0.40869
-0.332835
-0.266156
-0.213664
-0.173761
-0.14337
-0.120287
-0.102527
-0.087746
-0.45108
-0.393653
-0.310185
-0.240425
-0.187351
-0.148014
-0.118717
-0.0970309
-0.0803962
-0.0660217
-0.433471
-0.368769
-0.280024
-0.209073
-0.156873
-0.119169
-0.091752
-0.0719576
-0.0564239
-0.0436018
-0.405299
-0.333929
-0.24211
-0.172256
-0.122523
-0.0875498
-0.0626368
-0.0449167
-0.0309258
-0.0204514
-0.36565
-0.28927
-0.196549
-0.130548
-0.0846092
-0.0531622
-0.0314701
-0.0162244
-0.0044086
0.00322196
-0.314321
-0.234832
-0.14447
-0.0841108
-0.0433429
-0.0163928
0.00143406
0.0135891
0.0224573
0.0266702
-0.251741
-0.170517
-0.0872774
-0.0337031
0.000724017
0.0223109
0.0356643
0.0439343
0.0488036
0.0488817
-0.178438
-0.0987022
-0.025628
0.0196709
0.0468739
0.0624288
0.0707666
0.0743482
0.0741352
0.0696046
-0.0951142
-0.0228732
0.0393338
0.0750013
0.0942653
0.103298
0.10617
0.104554
0.0990422
0.0906383
-0.00520986
0.0556444
0.106024
0.131176
0.141968
0.144105
0.141135
0.134147
0.124063
0.116681
0.0881006
0.135194
0.172755
0.186944
0.188981
0.184
0.174964
0.162771
0.149305
0.1415
0.181433
0.213658
0.237815
0.240975
0.234247
0.222169
0.207238
0.190376
0.173963
0.163686
0.271418
0.288792
0.299507
0.291926
0.276686
0.257737
0.237247
0.216215
0.196988
0.183597
0.354802
0.358379
0.356183
0.338499
0.315301
0.289983
0.264444
0.239638
0.217557
0.200917
0.428744
0.42026
0.406257
0.379447
0.349111
0.318139
0.288201
0.26011
0.235338
0.215578
0.491099
0.472255
0.448236
0.413658
0.377273
0.341536
0.307927
0.277079
0.249941
0.227404
0.539844
0.512684
0.480854
0.440186
0.399065
0.35962
0.323173
0.290174
0.26112
0.236293
0.573312
0.540324
0.503141
0.458289
0.413915
0.371931
0.33355
0.29908
0.26868
0.242206
0.590343
0.554353
0.514448
0.467468
0.421439
0.378165
0.338804
0.303586
0.272492
0.245151
0.590343
0.554353
0.514448
0.467468
0.421439
0.378165
0.338804
0.303586
0.272492
0.245151
0.573312
0.540324
0.503141
0.458289
0.413915
0.371931
0.33355
0.29908
0.26868
0.242206
0.539844
0.512684
0.480854
0.440186
0.399065
0.35962
0.323173
0.290174
0.26112
0.236293
0.491099
0.472255
0.448236
0.413658
0.377273
0.341536
0.307927
0.277079
0.249941
0.227404
0.428744
0.42026
0.406257
0.379447
0.349111
0.318139
0.288201
0.26011
0.235338
0.215578
0.354802
0.358379
0.356183
0.338499
0.315301
0.289983
0.264444
0.239638
0.217557
0.200917
0.271418
0.288792
0.299507
0.291926
0.276686
0.257737
0.237247
0.216215
0.196988
0.183597
0.181433
0.213658
0.237815
0.240975
0.234247
0.222169
0.207238
0.190376
0.173963
0.163686
0.0881006
0.135194
0.172755
0.186944
0.188981
0.184
0.174964
0.162771
0.149305
0.1415
-0.00520986
0.0556444
0.106024
0.131176
0.141968
0.144105
0.141135
0.134147
0.124063
0.116681
-0.0951142
-0.0228732
0.0393338
0.0750013
0.0942653
0.103298
0.10617
0.104554
0.0990422
0.0906383
-0.178438
-0.0987022
-0.025628
0.0196709
0.0468739
0.0624288
0.0707666
0.0743482
0.0741352
0.0696046
-0.251741
-0.170517
-0.0872774
-0.0337031
0.000724012
0.0223109
0.0356643
0.0439343
0.0488036
0.0488817
-0.314321
-0.234832
-0.14447
-0.0841108
-0.0433429
-0.0163928
0.00143405
0.0135891
0.0224573
0.0266702
-0.36565
-0.28927
-0.196549
-0.130548
-0.0846092
-0.0531622
-0.0314701
-0.0162244
-0.00440861
0.00322195
-0.405299
-0.333929
-0.24211
-0.172256
-0.122523
-0.0875498
-0.0626368
-0.0449167
-0.0309258
-0.0204514
-0.433471
-0.368769
-0.280024
-0.209073
-0.156873
-0.119169
-0.091752
-0.0719576
-0.056424
-0.0436018
-0.45108
-0.393653
-0.310185
-0.240425
-0.187351
-0.148014
-0.118717
-0.097031
-0.0803962
-0.0660217
-0.45949
-0.40869
-0.332835
-0.266156
-0.213664
-0.173761
-0.14337
-0.120287
-0.102528
-0.087746
-0.460126
-0.41436
-0.348292
-0.286463
-0.235816
-0.196286
-0.16557
-0.141707
-0.123108
-0.107758
-0.454186
-0.411662
-0.357051
-0.301702
-0.254015
-0.215688
-0.185336
-0.161261
-0.142134
-0.126007
-0.442646
-0.402445
-0.359951
-0.312298
-0.268528
-0.2322
-0.20282
-0.178993
-0.159688
-0.143041
-0.426589
-0.389353
-0.358169
-0.318643
-0.279662
-0.246118
-0.218273
-0.195097
-0.175929
-0.159287
-0.407634
-0.375359
-0.352615
-0.321114
-0.287787
-0.257786
-0.231983
-0.209816
-0.191067
-0.174809
-0.387965
-0.362319
-0.344322
-0.320349
-0.293345
-0.267517
-0.244242
-0.223442
-0.205238
-0.189629
-0.369653
-0.350483
-0.335136
-0.317448
-0.296806
-0.2756
-0.255264
-0.236221
-0.218771
-0.203744
-0.354077
-0.339741
-0.326896
-0.313684
-0.298673
-0.282207
-0.265241
-0.248375
-0.23182
-0.217542
-0.341276
-0.330411
-0.320211
-0.310034
-0.299452
-0.28753
-0.27413
-0.260066
-0.244814
-0.231051
-0.331003
-0.322808
-0.314851
-0.306998
-0.299654
-0.291667
-0.281992
-0.271087
-0.257763
-0.245409
-0.322865
-0.316837
-0.310633
-0.304701
-0.299682
-0.294762
-0.288571
-0.281448
-0.270308
-0.260574
-0.316393
-0.312183
-0.307454
-0.303108
-0.299788
-0.297031
-0.293951
-0.289679
-0.283061
-0.277499
-0.311105
-0.308462
-0.30506
-0.302119
-0.300134
-0.298663
-0.298687
-0.294683
-0.294455
-0.290535
-0.306598
-0.305267
-0.303091
-0.301443
-0.300661
-0.299823
-0.302974
-0.296062
-0.304091
-0.298234
-0.302504
-0.302289
-0.301223
-0.300743
-0.301039
-0.300732
-0.305874
-0.296648
-0.311728
-0.300226
-0.298574
-0.299362
-0.299254
-0.299735
-0.300954
-0.301292
-0.306907
-0.298766
-0.315071
-0.30022
-0.294763
-0.296477
-0.297117
-0.298364
-0.300133
-0.301374
-0.30669
-0.301162
-0.314402
-0.302232
-0.291192
-0.293736
-0.29491
-0.296665
-0.298813
-0.301018
-0.304999
-0.303147
-0.312786
-0.304791
-0.288109
-0.291341
-0.292861
-0.294914
-0.297332
-0.300011
-0.303173
-0.304148
-0.30987
-0.307083
-0.285819
-0.289543
-0.291261
-0.293466
-0.296026
-0.298841
-0.301748
-0.304061
-0.307818
-0.308034
-0.284593
-0.288576
-0.29038
-0.292644
-0.295255
-0.298091
-0.300954
-0.303663
-0.30679
-0.308307
-0.310765
-0.312366
-0.314015
-0.315683
-0.317353
-0.318996
-0.320582
-0.322071
-0.323417
-0.324571
-0.325475
-0.326068
-0.326285
-0.326057
-0.325314
-0.323981
-0.321984
-0.319264
-0.315786
-0.311541
-0.306483
-0.300583
-0.293824
-0.286202
-0.277727
-0.268422
-0.258325
-0.247485
-0.235964
-0.223835
-0.211182
-0.198096
-0.184676
-0.171036
-0.157279
-0.143511
-0.129836
-0.116358
-0.103178
-0.0903817
-0.0780345
-0.066211
-0.0549734
-0.0443571
-0.0344219
-0.0251791
-0.0166428
-0.00881732
-0.00169688
0.00473218
0.0104905
0.0156045
0.0201052
0.0240273
0.0274074
0.0302842
0.0326965
0.0346832
0.0362825
0.0375312
0.0384647
0.0391163
0.0395173
0.0396971
0.039683
0.0395001
0.0391712
0.038717
0.0381561
0.0375055
0.0367801
0.0359932
0.0351567
0.0342809
0.0333751
0.0324471
0.031504
0.0305516
0.0295952
0.0286391
0.027687
0.026742
0.0258069
0.0248836
0.0239739
0.0230792
0.0222005
0.0213386
0.0204941
0.0196672
0.0188582
0.018067
0.0172934
0.0165372
0.015798
0.0150754
0.0143688
0.0136776
0.0130011
0.0123387
0.0116896
0.011053
0.010428
0.00981374
0.00920934
0.0086139
0.00802633
0.00744584
0.00687107
0.00630157
0.0057352
0.00517288
0.0046099
0.00405183
0.00348552
0.00293181
0.00234914
0.00180665
0.00116213
0.0006187
-0.311079
-0.312686
-0.314339
-0.316038
-0.317755
-0.319464
-0.321132
-0.322718
-0.324175
-0.325451
-0.326493
-0.327239
-0.32762
-0.327565
-0.326998
-0.325841
-0.324012
-0.321443
-0.3182
-0.314159
-0.309284
-0.303551
-0.296945
-0.289462
-0.281113
-0.271918
-0.261913
-0.251146
-0.239679
-0.227585
-0.214953
-0.201877
-0.188438
-0.174761
-0.160948
-0.147107
-0.133345
-0.119771
-0.106496
-0.0935522
-0.0810796
-0.0691329
-0.0577686
-0.0470373
-0.0369772
-0.0276125
-0.0189576
-0.011017
-0.00378562
0.0027499
0.00861003
0.0138211
0.0184143
0.0224241
0.0258878
0.0288438
0.0313313
0.0333895
0.0350566
0.0363699
0.0373649
0.0380754
0.0385329
0.0387665
0.0388031
0.0386679
0.0383841
0.0379725
0.0374522
0.0368398
0.0361506
0.0353979
0.0345938
0.0337487
0.0328718
0.0319712
0.0310539
0.030126
0.0291926
0.0282582
0.0273267
0.0264011
0.0254843
0.0245783
0.0236849
0.0228057
0.0219416
0.0210935
0.0202621
0.0194476
0.0186502
0.0178701
0.017107
0.0163608
0.015631
0.0149174
0.0142193
0.0135363
0.0128676
0.0122126
0.0115706
0.0109407
0.0103223
0.00971428
0.00911592
0.0085263
0.00794436
0.00736931
0.00679981
0.00623541
0.00567398
0.00511637
0.004558
0.00400404
0.00344205
0.00289114
0.00231287
0.00176999
0.00113339
0.000585288
-0.311456
-0.312936
-0.314513
-0.316247
-0.31804
-0.31985
-0.321647
-0.323388
-0.325026
-0.326502
-0.327757
-0.328732
-0.32937
-0.3296
-0.329337
-0.328494
-0.327
-0.324831
-0.321861
-0.318109
-0.31353
-0.30809
-0.301767
-0.294553
-0.286454
-0.277488
-0.267688
-0.257099
-0.245779
-0.233803
-0.221276
-0.208259
-0.194672
-0.181007
-0.167165
-0.153266
-0.139421
-0.125736
-0.112314
-0.0992519
-0.0866257
-0.0745098
-0.0629693
-0.0520566
-0.0418114
-0.0322608
-0.0234208
-0.0152971
-0.00788553
-0.00117337
0.00485929
0.0102385
0.014995
0.0191634
0.0227806
0.0258852
0.0285163
0.030713
0.0325138
0.0339558
0.0350746
0.0359041
0.0364759
0.0368195
0.036962
0.0369277
0.0367393
0.0364181
0.0359834
0.0354523
0.0348401
0.0341603
0.0334252
0.0326452
0.0318299
0.0309874
0.0301249
0.0292487
0.0283641
0.0274758
0.0265876
0.025703
0.0248246
0.023955
0.0230959
0.0222489
0.0214153
0.020596
0.0197917
0.0190029
0.0182298
0.0174725
0.0167311
0.0160054
0.0152952
0.0146
0.0139195
0.0132531
0.0126003
0.0119605
0.0113329
0.0107169
0.0101116
0.00951633
0.00893019
0.00835234
0.00778178
0.00721772
0.00665887
0.00610474
0.00555333
0.00500524
0.00445629
0.00391078
0.0033577
0.00281304
0.00224397
0.00170212
0.00108108
0.000527714
-0.311812
-0.31281
-0.31413
-0.31583
-0.317656
-0.319538
-0.321443
-0.323327
-0.325137
-0.326815
-0.328301
-0.329527
-0.330425
-0.330937
-0.330991
-0.330476
-0.329337
-0.327518
-0.32495
-0.321597
-0.31741
-0.312356
-0.306412
-0.299567
-0.291822
-0.283192
-0.273706
-0.263405
-0.252347
-0.240598
-0.228239
-0.215364
-0.202063
-0.18847
-0.174682
-0.160809
-0.14696
-0.133242
-0.119757
-0.106601
-0.0938659
-0.081628
-0.0699502
-0.0588859
-0.0484767
-0.038752
-0.0297295
-0.0214165
-0.0138102
-0.00689915
-0.000664655
0.00491829
0.00987955
0.0142527
0.0180738
0.0213807
0.0242117
0.0266052
0.0285991
0.0302298
0.0315325
0.0325406
0.0332854
0.0337962
0.0340999
0.0342212
0.0341821
0.0340029
0.0337028
0.0332995
0.0328085
0.0322438
0.0316174
0.0309404
0.0302222
0.0294715
0.0286955
0.0279008
0.027093
0.026277
0.0254569
0.0246364
0.0238184
0.0230056
0.0222
0.0214034
0.0206172
0.0198426
0.0190804
0.0183313
0.0175957
0.0168738
0.0161659
0.0154718
0.0147915
0.0141246
0.013471
0.0128301
0.0122016
0.0115848
0.0109792
0.0103842
0.009799
0.009223
0.00865535
0.00809531
0.00754192
0.00699445
0.00645168
0.00591309
0.00537683
0.00484324
0.00430868
0.00377632
0.00323712
0.00270311
0.0021486
0.00161192
0.00101346
0.000459971
-0.309451
-0.311672
-0.313067
-0.314657
-0.316445
-0.318324
-0.320254
-0.322195
-0.32409
-0.325883
-0.327515
-0.328921
-0.330032
-0.330778
-0.331089
-0.330883
-0.330082
-0.328608
-0.326422
-0.323468
-0.319699
-0.315076
-0.309572
-0.30317
-0.295869
-0.287679
-0.278623
-0.268739
-0.258079
-0.246706
-0.234695
-0.222133
-0.209123
-0.195781
-0.182213
-0.168526
-0.154831
-0.141234
-0.127838
-0.11474
-0.10203
-0.0897848
-0.0780721
-0.0669464
-0.0564508
-0.0466165
-0.0374632
-0.0289996
-0.0212249
-0.0141295
-0.0076967
-0.00190345
0.00327814
0.00787961
0.0119352
0.0154806
0.0185527
0.0211879
0.0234226
0.0252919
0.0268296
0.0280681
0.0290377
0.0297668
0.030282
0.0306076
0.0307658
0.0307761
0.0306566
0.0304248
0.0300965
0.0296861
0.029206
0.0286673
0.02808
0.0274527
0.0267932
0.0261082
0.0254037
0.024685
0.0239564
0.023222
0.0224851
0.0217484
0.0210145
0.0202854
0.0195628
0.018848
0.0181421
0.0174461
0.0167605
0.0160859
0.0154226
0.0147707
0.0141303
0.0135012
0.0128833
0.0122764
0.0116801
0.011094
0.0105176
0.00995048
0.00939198
0.0088415
0.00829837
0.0077619
0.00723126
0.00670575
0.00618429
0.00566632
0.00515024
0.00463606
0.00412083
0.00360654
0.00308631
0.00256822
0.00203382
0.00150887
0.000938928
0.000394741
-0.304783
-0.308102
-0.310497
-0.312414
-0.314216
-0.316065
-0.317995
-0.319941
-0.321828
-0.323617
-0.325271
-0.326734
-0.327935
-0.328801
-0.329262
-0.329253
-0.328688
-0.327504
-0.325639
-0.323038
-0.319654
-0.315446
-0.310383
-0.304447
-0.297629
-0.289938
-0.281391
-0.272024
-0.261884
-0.251031
-0.239534
-0.227476
-0.21495
-0.202058
-0.188905
-0.175598
-0.162244
-0.14895
-0.135817
-0.122943
-0.110416
-0.0983141
-0.0867032
-0.0756389
-0.0651652
-0.0553148
-0.0461092
-0.0375591
-0.0296661
-0.0224233
-0.0158168
-0.00982681
-0.00442852
0.000406411
0.00470902
0.00851208
0.0118493
0.0147547
0.017262
0.0194041
0.0212128
0.0227187
0.0239508
0.0249361
0.0257003
0.0262669
0.0266577
0.0268926
0.026989
0.0269628
0.0268298
0.0266045
0.0262999
0.0259274
0.0254971
0.0250182
0.0244988
0.0239459
0.023366
0.0227645
0.0221464
0.0215159
0.0208767
0.0202321
0.0195847
0.0189371
0.0182911
0.0176485
0.0170107
0.0163788
0.0157537
0.0151362
0.0145268
0.0139259
0.0133337
0.0127503
0.0121758
0.01161
0.0110527
0.0105038
0.0099629
0.0094296
0.00890346
0.008384
0.00787065
0.00736285
0.00685988
0.00636112
0.00586565
0.00537289
0.00488153
0.00439132
0.00389999
0.00340853
0.00291207
0.00241543
0.00190633
0.00140065
0.000863762
0.000339392
-0.300227
-0.302644
-0.305906
-0.30842
-0.310268
-0.312068
-0.314062
-0.316066
-0.31793
-0.319656
-0.321262
-0.322707
-0.323928
-0.324861
-0.325427
-0.32555
-0.325154
-0.324178
-0.322565
-0.320265
-0.317225
-0.313402
-0.308765
-0.303294
-0.296977
-0.289817
-0.281829
-0.273041
-0.263496
-0.253247
-0.242363
-0.230924
-0.219018
-0.206744
-0.194195
-0.181465
-0.168653
-0.155856
-0.14317
-0.130693
-0.118512
-0.106704
-0.0953342
-0.0844565
-0.0741159
-0.0643468
-0.0551725
-0.0466062
-0.0386523
-0.0313073
-0.0245615
-0.018399
-0.0127996
-0.00773909
-0.00319079
0.000873998
0.00448515
0.00767308
0.0104682
0.0129007
0.0149996
0.0167934
0.0183091
0.0195722
0.0206071
0.0214363
0.022081
0.0225606
0.0228927
0.0230928
0.0231756
0.0231551
0.0230446
0.0228558
0.0225993
0.0222846
0.02192
0.0215134
0.0210715
0.0206002
0.0201049
0.0195902
0.0190602
0.0185185
0.0179681
0.0174117
0.0168518
0.0162904
0.0157291
0.0151694
0.0146125
0.0140594
0.0135108
0.0129675
0.0124298
0.0118982
0.0113727
0.0108535
0.0103407
0.00983404
0.00933346
0.00883871
0.0083495
0.00786546
0.00738617
0.00691119
0.00643994
0.0059719
0.00550632
0.00504266
0.00457987
0.00411755
0.00365405
0.00318966
0.0027211
0.00225095
0.00177146
0.00129195
0.000791213
0.000295551
-0.295729
-0.296886
-0.300331
-0.302803
-0.304235
-0.305873
-0.307965
-0.31003
-0.311845
-0.313483
-0.314981
-0.316281
-0.317342
-0.318174
-0.318742
-0.318916
-0.318612
-0.317775
-0.316364
-0.31433
-0.311615
-0.308175
-0.30398
-0.299008
-0.293244
-0.286687
-0.279346
-0.271244
-0.262418
-0.252916
-0.242796
-0.232129
-0.220994
-0.20948
-0.19768
-0.185691
-0.173605
-0.161495
-0.14944
-0.137529
-0.12585
-0.114478
-0.103476
-0.092897
-0.0827874
-0.0731852
-0.0641173
-0.0555997
-0.0476406
-0.0402411
-0.033396
-0.0270947
-0.0213219
-0.0160586
-0.011283
-0.00697111
-0.00309749
0.000364249
0.00344091
0.00615926
0.00854573
0.0106261
0.0124254
0.0139673
0.0152748
0.0163693
0.017271
0.017999
0.0185709
0.0190028
0.0193083
0.0195007
0.0195925
0.0195956
0.0195207
0.0193775
0.0191749
0.0189209
0.0186228
0.0182872
0.01792
0.0175262
0.0171104
0.0166764
0.0162279
0.0157677
0.0152987
0.0148231
0.014343
0.01386
0.0133757
0.0128913
0.0124079
0.0119263
0.0114473
0.0109713
0.0104987
0.01003
0.00956513
0.00910435
0.0086476
0.00819483
0.00774587
0.00730054
0.00685854
0.00641955
0.00598316
0.00554894
0.00511635
0.00468488
0.00425377
0.00382255
0.00339008
0.00295625
0.00251892
0.00207937
0.00163274
0.00118455
0.000721724
0.000260748
-0.288108
-0.289611
-0.293246
-0.294835
-0.295617
-0.297292
-0.299484
-0.301474
-0.303251
-0.304974
-0.306615
-0.30808
-0.309289
-0.31015
-0.310661
-0.310887
-0.310674
-0.309946
-0.308703
-0.306896
-0.30446
-0.301353
-0.297551
-0.293033
-0.287783
-0.281797
-0.275081
-0.267654
-0.259545
-0.250798
-0.241462
-0.231602
-0.221286
-0.210594
-0.199608
-0.188417
-0.177108
-0.165761
-0.154438
-0.14321
-0.132153
-0.121335
-0.110813
-0.100633
-0.0908448
-0.0814902
-0.072601
-0.0641979
-0.0562936
-0.0488943
-0.0420002
-0.0356061
-0.0297021
-0.0242745
-0.0193066
-0.0147794
-0.0106718
-0.00696178
-0.00362621
-0.000641741
0.00201505
0.00436733
0.00643776
0.00824832
0.00982015
0.0111734
0.0123273
0.0132999
0.0141082
0.0147681
0.0152943
0.0156997
0.0159963
0.0161955
0.0163078
0.0163429
0.0163095
0.0162155
0.0160684
0.0158751
0.0156419
0.0153742
0.0150772
0.0147551
0.0144121
0.0140515
0.0136764
0.0132895
0.0128933
0.0124896
0.0120804
0.0116671
0.0112511
0.0108335
0.0104152
0.00999699
0.00957951
0.00916325
0.00874857
0.00833573
0.00792492
0.00751623
0.00710965
0.00670512
0.00630252
0.00590165
0.00550226
0.00510403
0.00470659
0.00430954
0.00391234
0.00351458
0.00311547
0.00271477
0.00231111
0.00190511
0.00149362
0.00108011
0.000655829
0.000231982
-0.278132
-0.281514
-0.284445
-0.284506
-0.284787
-0.286334
-0.288218
-0.289959
-0.291599
-0.29317
-0.29459
-0.295792
-0.296748
-0.29748
-0.298037
-0.298419
-0.29835
-0.297846
-0.296938
-0.295541
-0.293575
-0.291008
-0.287822
-0.283998
-0.279517
-0.274371
-0.268561
-0.262097
-0.255002
-0.247306
-0.239048
-0.230278
-0.221052
-0.211432
-0.201488
-0.19129
-0.180911
-0.170425
-0.159904
-0.149421
-0.139044
-0.128837
-0.118853
-0.109124
-0.0996953
-0.0906116
-0.08191
-0.0736174
-0.0657531
-0.0583305
-0.0513571
-0.0448349
-0.038761
-0.0331285
-0.0279268
-0.0231428
-0.0187607
-0.0147629
-0.0111309
-0.00784473
-0.00488429
-0.00222911
0.000141171
0.00224663
0.00410684
0.00574071
0.00716639
0.00840115
0.00946132
0.0103622
0.011118
0.0117422
0.0122472
0.0126447
0.0129456
0.01316
0.0132975
0.0133667
0.0133753
0.01333
0.0132371
0.0131023
0.0129308
0.0127275
0.0124965
0.0122418
0.0119667
0.0116743
0.0113672
0.0110479
0.0107185
0.0103807
0.0100363
0.00968654
0.00933268
0.00897572
0.00861651
0.00825576
0.00789407
0.00753189
0.00716958
0.00680742
0.00644557
0.00608415
0.00572316
0.00536258
0.0050023
0.00464214
0.0042819
0.00392131
0.00356004
0.00319776
0.00283401
0.00246854
0.00210051
0.0017303
0.00135579
0.000979507
0.000594962
0.000209796
-0.263825
-0.272298
-0.274195
-0.273597
-0.273525
-0.274544
-0.276129
-0.277826
-0.279466
-0.281015
-0.282484
-0.283875
-0.28514
-0.286153
-0.286692
-0.286647
-0.28619
-0.285513
-0.284543
-0.283143
-0.281224
-0.278748
-0.2757
-0.272066
-0.267833
-0.262995
-0.257553
-0.251518
-0.244912
-0.237762
-0.230106
-0.221987
-0.213458
-0.204574
-0.195397
-0.18599
-0.176418
-0.166748
-0.157042
-0.14736
-0.13776
-0.128293
-0.119009
-0.109953
-0.101164
-0.0926798
-0.0845293
-0.0767369
-0.0693207
-0.0622935
-0.0556628
-0.0494317
-0.0435994
-0.0381611
-0.0331091
-0.0284333
-0.0241211
-0.0201584
-0.01653
-0.0132195
-0.0102099
-0.00748409
-0.00502461
-0.00281426
-0.000836061
0.000926497
0.00248933
0.00386773
0.00507636
0.00612918
0.00703927
0.00781878
0.00847909
0.00903093
0.00948435
0.00984873
0.0101328
0.0103443
0.0104906
0.0105783
0.0106136
0.0106023
0.0105498
0.0104607
0.0103394
0.0101899
0.0100156
0.00981983
0.00960534
0.00937469
0.00913015
0.00887371
0.00860716
0.00833204
0.00804971
0.00776136
0.00746801
0.00717054
0.00686967
0.00656605
0.00626017
0.00595247
0.00564326
0.0053328
0.00502126
0.00470875
0.00439533
0.00408095
0.0037656
0.00344913
0.00313141
0.00281225
0.00249143
0.00216878
0.0018439
0.001517
0.00118689
0.00085527
0.000517954
0.000180232
-0.242212
-0.253167
-0.257293
-0.257492
-0.257244
-0.257935
-0.259461
-0.261271
-0.262971
-0.264423
-0.265627
-0.266594
-0.267299
-0.267712
-0.267847
-0.26779
-0.267527
-0.266878
-0.26577
-0.264195
-0.262153
-0.25963
-0.256607
-0.253073
-0.249024
-0.244459
-0.239387
-0.23382
-0.22778
-0.221292
-0.21439
-0.207112
-0.1995
-0.191601
-0.183463
-0.175139
-0.16668
-0.158137
-0.149562
-0.141003
-0.132506
-0.124116
-0.115873
-0.107816
-0.099975
-0.0923794
-0.0850533
-0.0780174
-0.0712882
-0.0648779
-0.0587947
-0.0530432
-0.0476249
-0.042538
-0.0377786
-0.0333401
-0.0292143
-0.0253914
-0.0218601
-0.0186084
-0.0156235
-0.012892
-0.0104003
-0.00813475
-0.00608169
-0.00422762
-0.00255929
-0.00106378
0.000271338
0.00145792
0.00250721
0.00342984
0.00423591
0.00493497
0.00553605
0.00604758
0.00647745
0.00683301
0.00712114
0.00734822
0.00752019
0.00764248
0.00772012
0.00775767
0.00775935
0.00772896
0.00767
0.00758563
0.0074787
0.0073518
0.00720726
0.00704717
0.00687341
0.00668763
0.00649134
0.00628584
0.00607229
0.00585173
0.00562503
0.00539298
0.00515623
0.00491537
0.00467087
0.00442313
0.00417248
0.00391919
0.00366345
0.00340542
0.0031452
0.00288283
0.00261838
0.00235179
0.00208312
0.00181228
0.00153927
0.00126421
0.00098675
0.000707873
0.000425826
0.000144447
-0.223087
-0.234703
-0.239884
-0.240905
-0.241007
-0.241781
-0.243329
-0.245163
-0.246852
-0.248228
-0.249297
-0.250114
-0.250718
-0.251125
-0.25131
-0.251208
-0.250737
-0.2499
-0.248681
-0.247072
-0.245063
-0.242641
-0.239792
-0.236507
-0.232783
-0.228624
-0.224037
-0.219033
-0.213632
-0.207853
-0.201724
-0.195275
-0.18854
-0.181556
-0.174361
-0.166998
-0.159508
-0.151933
-0.144315
-0.136694
-0.12911
-0.121599
-0.114197
-0.106934
-0.0998392
-0.0929379
-0.0862526
-0.0798026
-0.0736038
-0.0676689
-0.0620069
-0.0566241
-0.0515239
-0.0467072
-0.0421725
-0.0379164
-0.0339335
-0.0302172
-0.0267595
-0.0235512
-0.0205826
-0.0178433
-0.0153224
-0.0130089
-0.0108914
-0.00895884
-0.0072
-0.00560399
-0.0041602
-0.00285841
-0.00168875
-0.000641779
0.000291529
0.00111975
0.00185103
0.00249304
0.00305306
0.00353789
0.00395392
0.00430709
0.00460292
0.00484654
0.00504269
0.00519578
0.00530986
0.00538866
0.00543561
0.00545386
0.00544626
0.00541544
0.00536377
0.00529342
0.00520634
0.00510429
0.00498886
0.00486148
0.00472343
0.00457585
0.00441976
0.00425605
0.00408553
0.0039089
0.00372676
0.00353966
0.00334807
0.00315237
0.00295293
0.00275
0.00254387
0.0023347
0.00212274
0.00190804
0.0016909
0.00147129
0.00124956
0.00102569
0.000800113
0.000573093
0.000344719
0.000115979
-0.206747
-0.217624
-0.223109
-0.224808
-0.225422
-0.226428
-0.228026
-0.229842
-0.231505
-0.232851
-0.233884
-0.234663
-0.235222
-0.235558
-0.235632
-0.235405
-0.234864
-0.233995
-0.23279
-0.231239
-0.22933
-0.227054
-0.224402
-0.221369
-0.217956
-0.214167
-0.210007
-0.20549
-0.20063
-0.195445
-0.189958
-0.184194
-0.178183
-0.171954
-0.165541
-0.158978
-0.152299
-0.14554
-0.138736
-0.131921
-0.125127
-0.118386
-0.111728
-0.105178
-0.0987633
-0.0925045
-0.086422
-0.0805328
-0.0748512
-0.069389
-0.064155
-0.0591559
-0.0543959
-0.0498772
-0.0455999
-0.0415624
-0.0377617
-0.0341933
-0.0308515
-0.0277298
-0.0248209
-0.0221166
-0.0196087
-0.0172883
-0.0151463
-0.0131737
-0.0113614
-0.00970016
-0.00818123
-0.00679586
-0.00553558
-0.00439221
-0.00335787
-0.00242502
-0.00158645
-0.000835302
-0.000165047
0.000430465
0.000957028
0.00142008
0.00182474
0.00217578
0.00247768
0.00273459
0.00295038
0.00312864
0.00327268
0.00338556
0.00347009
0.00352886
0.00356426
0.00357844
0.0035734
0.00355095
0.00351274
0.00346026
0.00339486
0.00331779
0.00323014
0.00313291
0.003027
0.00291323
0.00279231
0.00266489
0.00253156
0.00239281
0.00224913
0.00210091
0.00194854
0.00179231
0.00163262
0.00146961
0.00130378
0.00113508
0.000964254
0.000790989
0.000616483
0.000439954
0.000263457
8.54446e-05
-0.1917
-0.201842
-0.207403
-0.209586
-0.210653
-0.211911
-0.213589
-0.215409
-0.217065
-0.218414
-0.219451
-0.220219
-0.220746
-0.221033
-0.221061
-0.220814
-0.220284
-0.219455
-0.218317
-0.216859
-0.215077
-0.212964
-0.210519
-0.207738
-0.204624
-0.201181
-0.197417
-0.193343
-0.188973
-0.184322
-0.179411
-0.174261
-0.168895
-0.16334
-0.157623
-0.151771
-0.145814
-0.139781
-0.133701
-0.127602
-0.121511
-0.115455
-0.109458
-0.103544
-0.0977343
-0.0920484
-0.0865035
-0.0811149
-0.0758959
-0.0708575
-0.0660085
-0.061356
-0.056905
-0.0526587
-0.0486186
-0.0447849
-0.0411561
-0.0377296
-0.034502
-0.0314687
-0.0286242
-0.0259628
-0.0234778
-0.0211625
-0.0190096
-0.0170119
-0.0151618
-0.0134519
-0.0118746
-0.0104227
-0.00908882
-0.00786598
-0.0067473
-0.00572618
-0.00479624
-0.00395138
-0.00318576
-0.00249383
-0.00187033
-0.00131026
-0.000808902
-0.000361824
3.5147e-05
0.000385917
0.000694139
0.00096322
0.00119633
0.00139642
0.00156623
0.00170829
0.00182493
0.00191831
0.00199043
0.00204312
0.00207804
0.00209675
0.00210064
0.00209102
0.00206905
0.00203581
0.00199228
0.00193935
0.00187784
0.00180848
0.00173195
0.00164885
0.00155977
0.00146518
0.00136561
0.00126142
0.00115315
0.00104099
0.000925627
0.000806985
0.000686125
0.00056242
0.000437827
0.000310536
0.000184718
5.62598e-05
-0.178098
-0.187571
-0.193054
-0.195526
-0.196924
-0.19839
-0.200151
-0.201987
-0.203645
-0.205003
-0.206051
-0.206826
-0.207354
-0.207643
-0.207685
-0.207469
-0.206983
-0.206216
-0.205161
-0.203814
-0.202171
-0.200232
-0.197995
-0.19546
-0.192631
-0.189513
-0.186114
-0.182444
-0.178514
-0.17434
-0.169938
-0.165326
-0.160524
-0.155555
-0.15044
-0.145203
-0.139868
-0.13446
-0.129002
-0.123519
-0.118034
-0.11257
-0.107147
-0.101786
-0.0965052
-0.0913224
-0.0862527
-0.0813101
-0.0765066
-0.0718526
-0.0673567
-0.063026
-0.0588657
-0.0548798
-0.0510705
-0.047439
-0.0439852
-0.0407078
-0.0376046
-0.0346727
-0.0319083
-0.0293069
-0.0268637
-0.0245733
-0.0224302
-0.0204284
-0.0185618
-0.0168243
-0.0152097
-0.0137118
-0.0123245
-0.0110418
-0.00985765
-0.00876645
-0.00776257
-0.00684065
-0.00599549
-0.00522214
-0.00451585
-0.00387209
-0.00328659
-0.00275525
-0.00227426
-0.00183996
-0.00144897
-0.00109806
-0.000784237
-0.000504694
-0.000256805
-3.81251e-05
0.000153621
0.000320548
0.000464619
0.00058765
0.000691324
0.000777196
0.000846702
0.000901166
0.00094181
0.00096976
0.000986053
0.000991644
0.000987417
0.000974177
0.000952683
0.000923612
0.000887632
0.000845298
0.000797232
0.000743859
0.000685835
0.000623391
0.000557375
0.000487648
0.000415585
0.000340232
0.000264293
0.000184944
0.000108388
2.79281e-05
-0.166088
-0.174788
-0.180064
-0.182689
-0.184312
-0.18593
-0.187751
-0.189597
-0.191255
-0.192619
-0.193683
-0.194478
-0.19503
-0.195347
-0.195425
-0.195252
-0.194828
-0.194138
-0.193181
-0.191957
-0.190463
-0.188701
-0.18667
-0.184373
-0.181813
-0.178997
-0.175932
-0.172626
-0.169091
-0.165341
-0.161388
-0.157248
-0.15294
-0.148481
-0.143891
-0.139189
-0.134395
-0.129531
-0.124617
-0.119674
-0.11472
-0.109776
-0.10486
-0.0999888
-0.0951796
-0.090447
-0.0858048
-0.0812655
-0.0768401
-0.0725382
-0.0683679
-0.0643361
-0.0604481
-0.0567082
-0.0531193
-0.0496832
-0.0464008
-0.0432718
-0.0402951
-0.037469
-0.0347909
-0.0322578
-0.029866
-0.0276116
-0.0254901
-0.023497
-0.0216273
-0.0198761
-0.0182383
-0.0167088
-0.0152823
-0.0139539
-0.0127184
-0.0115708
-0.0105065
-0.00952053
-0.00860846
-0.00776584
-0.00698845
-0.00627221
-0.00561323
-0.00500783
-0.00445245
-0.00394378
-0.00347863
-0.00305401
-0.00266711
-0.00231527
-0.00199599
-0.00170693
-0.00144591
-0.00121086
-0.000999878
-0.000811176
-0.000643089
-0.000494066
-0.000362666
-0.000247548
-0.000147464
-6.12585e-05
1.21485e-05
7.37545e-05
0.000124495
0.00016523
0.000196779
0.000219878
0.000235262
0.000243548
0.000245436
0.000241403
0.000232202
0.000218085
0.000200045
0.000177877
0.000153243
0.000124869
9.61643e-05
6.33256e-05
3.44955e-05
5.25842e-07
-0.155379
-0.163314
-0.168328
-0.171018
-0.172788
-0.174505
-0.17636
-0.178204
-0.179855
-0.181224
-0.182305
-0.183126
-0.183711
-0.184068
-0.184195
-0.184086
-0.183724
-0.18312
-0.18227
-0.181173
-0.17983
-0.178242
-0.176411
-0.174339
-0.172031
-0.169492