/*--------------------------------*- C++ -*----------------------------------*\
  =========                 |
  \\      /  F ield         | OpenFOAM: The Open Source CFD Toolbox
   \\    /   O peration     | Website:  https://openfoam.org
    \\  /    A nd           | Version:  7
     \\/     M anipulation  |
\*---------------------------------------------------------------------------*/
FoamFile
{
    version     2.0;
    format      ascii;
    class       volVectorField;
    location    "15";
    object      U;
}
// * * * * * * * * * * * * * * * * * * * * * * * * * * * * * * * * * * * * * //

dimensions      [0 1 -1 0 0 0 0];

internalField   nonuniform List<vector> 
14000
(
(-0.00843686 0.00585264 -6.05852e-22)
(-0.0331187 0.0102067 1.19978e-21)
(-0.0684899 0.0113764 7.732e-20)
(-0.101829 0.0113442 1.34796e-20)
(-0.132661 0.0109054 2.63086e-20)
(-0.160988 0.0104139 -1.52527e-20)
(-0.186751 0.00989959 -2.84529e-20)
(-0.209332 0.0090141 2.77117e-20)
(-0.231718 0.00953098 2.7409e-20)
(-0.247373 0.00754545 2.18893e-20)
(-0.00950625 0.0169959 -9.81217e-20)
(-0.0336892 0.0298081 6.48555e-20)
(-0.0667857 0.0333031 -8.82727e-20)
(-0.0970448 0.0331983 4.74212e-21)
(-0.12393 0.0318321 -6.30722e-20)
(-0.147327 0.0302557 7.83023e-21)
(-0.167394 0.0287565 4.0858e-20)
(-0.181215 0.0254432 -1.80722e-19)
(-0.196774 0.0276852 4.46601e-20)
(-0.198211 0.0201328 -7.70682e-23)
(-0.011514 0.0265627 1.82507e-19)
(-0.0348757 0.0470757 -1.62643e-20)
(-0.0637544 0.0528167 1.22597e-19)
(-0.0882244 0.0526065 -1.14365e-20)
(-0.107722 0.0501968 -1.34413e-19)
(-0.121731 0.0472348 9.94869e-20)
(-0.132072 0.0449569 -4.29086e-20)
(-0.128543 0.0378697 4.36439e-20)
(-0.134126 0.0432938 -1.33062e-19)
(-0.109181 0.0267219 1.90716e-19)
(-0.0142413 0.0338393 2.12758e-20)
(-0.0367371 0.0607787 -2.89786e-19)
(-0.0600003 0.0685213 -1.72335e-19)
(-0.0765409 0.0681094 9.07456e-20)
(-0.0860181 0.0645372 1.08311e-19)
(-0.086602 0.0598862 -1.80215e-19)
(-0.0850747 0.0566044 7.73309e-20)
(-0.0557854 0.0457391 5.18619e-20)
(-0.0510921 0.0532819 2.08725e-19)
(0.0123168 0.0307291 -2.74073e-19)
(-0.0174529 0.0385263 -9.17152e-20)
(-0.0392903 0.0701175 1.42506e-19)
(-0.0560985 0.0793276 4.17051e-19)
(-0.0630418 0.0784904 -2.08252e-19)
(-0.0604501 0.073574 1.9349e-19)
(-0.0440281 0.0676103 3.267e-19)
(-0.0278598 0.0608578 -9.55164e-21)
(0.0347224 0.0499621 9.27252e-21)
(0.0486636 0.0550826 -3.05299e-19)
(0.17354 0.0375421 1.48878e-19)
(-0.0209694 0.0407451 -2.16524e-19)
(-0.0424272 0.0747884 1.28093e-19)
(-0.0522519 0.0845683 -5.81107e-19)
(-0.0480378 0.0829308 2.83091e-19)
(-0.0306732 0.0763207 3.98491e-20)
(0.00607638 0.0699389 -3.677e-19)
(0.0429828 0.05703 -1.0865e-19)
(0.15167 0.053204 1.08932e-19)
(0.168459 0.0461719 2.07532e-19)
(0.389898 0.0431579 -1.1638e-19)
(-0.0247047 0.040939 -2.34218e-20)
(-0.0457804 0.0749534 -4.02121e-19)
(-0.0478102 0.0840898 3.9776e-19)
(-0.0302288 0.0810667 -2.86116e-19)
(0.00652134 0.0726921 7.09984e-20)
(0.0701424 0.066918 2.38794e-19)
(0.139319 0.0480016 -4.36705e-19)
(0.301518 0.0562889 -1.83867e-19)
(0.334177 0.0365199 1.57976e-19)
(0.652413 0.0492596 9.45466e-20)
(-0.0286467 0.0397021 2.36098e-19)
(-0.0485746 0.0711611 6.9344e-19)
(-0.0407876 0.0782753 -6.69314e-19)
(-0.00540157 0.0733774 1.63977e-19)
(0.0589154 0.0639636 4.10657e-19)
(0.159915 0.0595941 -2.092e-19)
(0.281843 0.0433029 -6.71912e-20)
(0.484047 0.0570676 -2.50848e-19)
(0.574132 0.0427852 2.96745e-19)
(0.912039 0.0662146 -2.13825e-19)
(-0.0327057 0.037541 -4.32622e-19)
(-0.0494283 0.0641656 1.19366e-19)
(-0.0273781 0.0680793 2.50254e-19)
(0.0341474 0.0615486 -1.24337e-19)
(0.139279 0.0535122 -4.21367e-19)
(0.291172 0.0520598 5.00074e-19)
(0.477584 0.0523131 3.18473e-19)
(0.694393 0.0626574 2.90147e-19)
(0.856229 0.0697313 -2.36241e-19)
(1.11423 0.0896928 1.80873e-19)
(-0.036512 0.0347237 -1.06023e-19)
(-0.0460982 0.0547168 -3.48306e-19)
(-0.00178232 0.0549841 -2.06877e-19)
(0.0992831 0.0487518 2.44107e-19)
(0.261117 0.0472775 4.69165e-20)
(0.472653 0.0547567 -2.94937e-19)
(0.703512 0.0734124 3.4528e-19)
(0.915316 0.0840984 -4.87332e-19)
(1.0875 0.107632 -2.76933e-19)
(1.22414 0.10617 9.85468e-20)
(-0.0393588 0.0313206 2.60806e-19)
(-0.035333 0.0434171 3.66199e-19)
(0.0435663 0.0410582 1.53121e-19)
(0.201483 0.0400425 2.13359e-19)
(0.429527 0.0521322 -1.23772e-19)
(0.686761 0.0752497 -3.18725e-19)
(0.919313 0.102908 1.28113e-19)
(1.09801 0.11734 1.58683e-19)
(1.2117 0.136774 5.30404e-19)
(1.25388 0.107253 -3.15258e-19)
(-0.0402219 0.0271952 3.85173e-19)
(-0.0129738 0.0307473 -4.77248e-20)
(0.117093 0.0295024 3.5114e-19)
(0.34669 0.0421164 -1.56539e-19)
(0.629828 0.0727943 4.81595e-19)
(0.892334 0.108402 1.92555e-19)
(1.08592 0.135624 2.39798e-19)
(1.20397 0.147086 -3.93182e-19)
(1.25276 0.147487 -1.63275e-19)
(1.27487 0.130483 1.58334e-19)
(-0.0376984 0.0220865 2.48079e-20)
(0.025952 0.0175311 -3.3967e-19)
(0.225834 0.0254985 -3.25167e-19)
(0.526312 0.0600708 -8.26439e-20)
(0.82754 0.10653 -1.30501e-19)
(1.05288 0.144068 1.45132e-19)
(1.18658 0.163792 -6.0081e-19)
(1.24765 0.164793 4.05883e-19)
(1.26844 0.161218 -3.34533e-21)
(1.2709 0.140234 -4.90388e-19)
(-0.030018 0.0158254 -5.45539e-19)
(0.0869702 0.00595611 -1.10157e-19)
(0.370156 0.0351953 -1.17434e-20)
(0.714578 0.0926589 3.47071e-20)
(0.990239 0.144637 1.84545e-19)
(1.15743 0.175318 -5.82733e-19)
(1.23638 0.184143 5.77012e-19)
(1.26418 0.180242 -1.27324e-19)
(1.2655 0.169234 7.70021e-20)
(1.25874 0.150498 1.26701e-19)
(-0.0150276 0.00858338 1.48934e-20)
(0.17467 0.000905352 4.47315e-19)
(0.537238 0.0613391 1.15044e-19)
(0.882742 0.133029 -6.19019e-20)
(1.10652 0.180595 -5.26547e-20)
(1.21725 0.200644 3.40572e-19)
(1.25776 0.201301 -1.32851e-22)
(1.26352 0.191868 2.57502e-19)
(1.25648 0.178068 -8.18192e-20)
(1.24899 0.161114 -3.48296e-21)
(0.0101819 0.00118814 8.87179e-20)
(0.28932 0.00922353 -1.60567e-19)
(0.704029 0.100557 1.2888e-19)
(1.01582 0.175024 1.71329e-19)
(1.18194 0.212691 -1.12573e-19)
(1.24737 0.222324 -1.65029e-20)
(1.26148 0.215772 -3.38306e-19)
(1.25604 0.203175 -2.27762e-19)
(1.24562 0.186628 2.82766e-19)
(1.23468 0.170517 -1.84441e-19)
(0.0485077 -0.00400132 1.14045e-19)
(0.423401 0.0354069 2.0305e-19)
(0.851297 0.147114 1.43812e-19)
(1.11252 0.215968 -2.20349e-19)
(1.22624 0.241606 2.64764e-19)
(1.25795 0.241456 -1.44301e-19)
(1.25624 0.229598 -3.72242e-20)
(1.24473 0.213857 -1.42204e-20)
(1.23224 0.195519 -8.07463e-20)
(1.22176 0.180545 2.49067e-20)
(0.101138 -0.00331343 2.84386e-19)
(0.562848 0.0780269 -1.60223e-19)
(0.970874 0.196982 1.00706e-19)
(1.17742 0.255016 1.19847e-19)
(1.24792 0.268016 -8.76195e-20)
(1.25655 0.259427 1.35715e-19)
(1.24542 0.242962 5.12272e-20)
(1.23109 0.22465 7.02268e-20)
(1.21852 0.204858 4.68836e-20)
(1.20686 0.189683 7.57409e-20)
(0.166647 0.00680677 -1.04065e-19)
(0.693306 0.132234 -1.54889e-19)
(1.06182 0.247974 -1.23339e-19)
(1.2164 0.291882 -1.19301e-19)
(1.25361 0.292676 -5.43212e-20)
(1.24722 0.276719 6.10346e-20)
(1.2312 0.256337 -3.09107e-20)
(1.21585 0.235408 7.5573e-22)
(1.20302 0.214149 -3.00263e-20)
(1.19176 0.198435 6.4184e-21)
(0.240931 0.0282755 2.7796e-20)
(0.805044 0.193288 -6.03886e-21)
(1.12599 0.298744 2.79569e-20)
(1.23495 0.326689 2.21995e-20)
(1.24783 0.316028 1.72163e-20)
(1.23249 0.293674 -4.75791e-20)
(1.21424 0.269546 2.31369e-20)
(1.19876 0.245997 -2.33881e-20)
(1.18664 0.223239 -7.76381e-21)
(1.17566 0.206194 -1.27739e-20)
(0.318247 0.0609049 1.38007e-21)
(0.893901 0.257638 -9.44786e-22)
(1.1661 0.34828 -6.31124e-21)
(1.23742 0.359566 7.49733e-20)
(1.23358 0.338318 -2.11084e-20)
(1.2135 0.310165 -2.1614e-20)
(1.19479 0.282412 3.07088e-21)
(1.18001 0.256126 -3.11033e-21)
(1.1686 0.231578 -1.03963e-20)
(1.15858 0.212991 -2.41748e-20)
(0.39245 0.103 -1.19141e-19)
(0.959137 0.322774 2.32806e-20)
(1.18524 0.395711 -2.00093e-19)
(1.22707 0.390415 -7.26912e-20)
(1.21267 0.359458 -2.30594e-20)
(1.19086 0.325929 -3.53575e-21)
(1.17292 0.294539 -1.84389e-20)
(1.15939 0.26546 -1.30486e-20)
(1.14927 0.23906 8.89638e-21)
(1.13994 0.218651 1.68326e-20)
(0.457994 0.152227 2.05324e-19)
(1.00129 0.386653 -1.08041e-19)
(1.18623 0.440111 1.53246e-19)
(1.20619 0.418941 6.55883e-20)
(1.1862 0.379138 -2.63773e-20)
(1.16485 0.340493 9.39156e-20)
(1.14868 0.305482 -2.23003e-20)
(1.13707 0.273672 3.35855e-20)
(1.12834 0.245621 4.39416e-21)
(1.11971 0.223156 2.52292e-20)
(0.510666 0.205995 -1.26036e-19)
(1.02173 0.447499 4.90128e-19)
(1.17157 0.480617 -9.34711e-20)
(1.17648 0.444668 -5.82162e-20)
(1.15491 0.396808 1.33936e-19)
(1.13577 0.353304 -5.92105e-20)
(1.12224 0.314756 -2.53269e-20)
(1.11301 0.280422 -1.64428e-20)
(1.10575 0.251139 -3.0595e-20)
(1.0986 0.22641 -8.21618e-22)
(0.547868 0.261526 -2.30385e-19)
(1.02218 0.503659 -2.67582e-19)
(1.14328 0.516277 1.7216e-19)
(1.13932 0.466909 4.77815e-20)
(1.11949 0.411785 -7.61801e-20)
(1.10398 0.363805 -4.10959e-20)
(1.09376 0.321975 2.12853e-20)
(1.08712 0.285508 -1.81368e-20)
(1.08156 0.255003 2.48329e-20)
(1.07687 0.228251 -9.5586e-21)
(0.568555 0.315929 8.41243e-20)
(1.00457 0.553566 3.58469e-19)
(1.10315 0.546026 -6.61625e-20)
(1.09613 0.484811 7.20333e-21)
(1.08056 0.423325 -9.84191e-21)
(1.06965 0.371414 4.41085e-20)
(1.06331 0.326833 3.25753e-20)
(1.05956 0.288548 1.77608e-20)
(1.05634 0.256949 -1.12783e-20)
(1.05456 0.228594 -1.78595e-21)
(0.573002 0.36643 -6.20899e-19)
(0.970653 0.595576 5.54885e-20)
(1.05328 0.568858 -1.42856e-19)
(1.04795 0.497317 5.99378e-20)
(1.03846 0.430789 -1.35865e-20)
(1.03304 0.375588 -1.28496e-20)
(1.0312 0.328853 -7.56189e-21)
(1.03084 0.289234 1.02615e-20)
(1.03063 0.256691 -1.24963e-20)
(1.03239 0.227398 -4.02924e-20)
(0.562296 0.410742 3.10287e-19)
(0.922011 0.627557 -3.21469e-19)
(0.995999 0.583917 -2.68461e-20)
(0.995754 0.503637 -5.50254e-20)
(0.993807 0.433382 2.5636e-20)
(0.994688 0.375793 2.55306e-20)
(0.997849 0.327607 2.77208e-20)
(1.00152 0.287155 2.24648e-21)
(1.0053 0.254047 -1.62316e-21)
(1.01121 0.224743 6.29525e-20)
(0.537542 0.447127 1.92803e-19)
(0.861235 0.647971 -3.93076e-20)
(0.933275 0.589912 1.06218e-20)
(0.940631 0.503349 4.38772e-20)
(0.947339 0.430577 -2.88258e-21)
(0.955087 0.37153 -5.70943e-20)
(0.96374 0.32257 -3.83931e-20)
(0.972216 0.281728 6.23944e-21)
(0.981061 0.248489 5.8098e-20)
(0.991406 0.220988 -4.40211e-20)
(0.500008 0.472936 4.76403e-20)
(0.792296 0.656384 -7.1279e-21)
(0.866938 0.585952 -6.84715e-20)
(0.883727 0.495862 1.41985e-20)
(0.899856 0.421938 1.0384e-19)
(0.914883 0.362456 -3.40298e-20)
(0.929429 0.313404 1.24952e-19)
(0.943325 0.272379 -1.70501e-19)
(0.9578 0.23874 -1.21026e-19)
(0.971793 0.214923 -2.13938e-20)
(0.45217 0.485109 -4.78651e-20)
(0.717764 0.65133 3.31896e-20)
(0.798564 0.571902 1.0168e-20)
(0.826246 0.480739 -3.93409e-20)
(0.852241 0.407188 -1.68983e-19)
(0.874812 0.348387 1.67903e-19)
(0.895569 0.300135 6.23895e-20)
(0.915079 0.259534 8.12641e-20)
(0.93484 0.224364 2.19971e-19)
(0.949681 0.197898 -5.19678e-20)
(0.398114 0.483216 9.70304e-20)
(0.640626 0.632348 -1.58576e-20)
(0.730033 0.547576 -5.43894e-20)
(0.769452 0.457718 8.95486e-20)
(0.805466 0.386134 1.64661e-19)
(0.835719 0.329181 -3.79996e-19)
(0.862877 0.282743 -6.10753e-20)
(0.887705 0.244183 -1.50482e-19)
(0.910593 0.21163 3.12857e-20)
(0.924989 0.186564 -1.08227e-19)
(0.341024 0.466901 -2.05486e-19)
(0.563562 0.599122 -1.07126e-19)
(0.66315 0.513044 3.37212e-19)
(0.714641 0.426807 -1.94542e-19)
(0.760535 0.358788 -2.73814e-19)
(0.798404 0.30479 2.54799e-19)
(0.831915 0.260735 -2.38373e-19)
(0.861902 0.223905 1.15162e-19)
(0.888152 0.192711 -1.39118e-19)
(0.904709 0.168929 2.18818e-19)
(0.28404 0.436597 -9.68878e-20)
(0.489367 0.552028 5.0856e-19)
(0.599725 0.468579 -5.3613e-19)
(0.663108 0.388227 2.10438e-20)
(0.718464 0.3254 1.74664e-19)
(0.763569 0.275731 -1.34567e-20)
(0.802841 0.235461 3.64147e-19)
(0.837024 0.202025 -3.14601e-19)
(0.866049 0.17369 2.25244e-19)
(0.885759 0.151446 -1.50591e-19)
(0.229986 0.393339 -1.60158e-19)
(0.420561 0.491805 8.83834e-20)
(0.541486 0.414699 2.37544e-19)
(0.616125 0.342383 2.70984e-19)
(0.680296 0.286188 -6.2333e-20)
(0.732176 0.241808 2.51138e-19)
(0.776807 0.205838 2.33602e-20)
(0.81484 0.17602 2.54511e-20)
(0.846584 0.150948 -9.46668e-20)
(0.869387 0.131379 -5.61754e-21)
(0.181271 0.338709 4.85759e-19)
(0.3594 0.419659 -3.36398e-19)
(0.490098 0.352198 -4.47079e-19)
(0.574855 0.28999 2.5738e-20)
(0.646838 0.241905 -1.29773e-19)
(0.704636 0.204044 1.06944e-19)
(0.753836 0.17344 -3.85624e-19)
(0.795154 0.148072 1.11744e-19)
(0.829517 0.126644 3.13681e-19)
(0.855455 0.109742 -1.51198e-19)
(0.139773 0.274396 6.92331e-20)
(0.307911 0.337354 4.22512e-19)
(0.447147 0.282151 3.02485e-19)
(0.54045 0.231842 -2.81745e-19)
(0.619045 0.193045 1.72425e-19)
(0.681827 0.162535 -7.80857e-20)
(0.734812 0.137923 -4.99098e-20)
(0.778826 0.117577 -2.37685e-20)
(0.815448 0.10039 -9.79282e-20)
(0.844193 0.086707 1.78122e-19)
(0.107044 0.202044 -3.31107e-19)
(0.267753 0.246937 -3.8367e-19)
(0.413844 0.206021 -5.6758e-21)
(0.513791 0.169063 2.70129e-19)
(0.597532 0.140603 -5.00766e-20)
(0.664175 0.118248 -5.20148e-20)
(0.720064 0.100229 7.51533e-20)
(0.766156 0.0853328 -4.07824e-20)
(0.804602 0.0727198 -3.123e-20)
(0.835679 0.062596 3.26936e-20)
(0.0844265 0.123693 4.82119e-20)
(0.240237 0.150584 -6.32222e-20)
(0.391123 0.125426 2.71903e-19)
(0.495615 0.102839 -6.63572e-20)
(0.582878 0.0854545 1.2322e-19)
(0.652157 0.0718099 -3.30734e-20)
(0.710014 0.0608229 -5.07164e-20)
(0.757511 0.0517446 7.99645e-20)
(0.797231 0.0440383 1.13824e-20)
(0.829988 0.0378066 -2.77143e-20)
(0.0728739 0.0416467 -1.31666e-21)
(0.226252 0.0506019 1.67693e-21)
(0.379607 0.0421133 1.2664e-19)
(0.486404 0.0345155 -6.27187e-20)
(0.575454 0.0286691 2.85457e-20)
(0.646069 0.0240815 -1.50123e-20)
(0.704918 0.020389 1.76585e-20)
(0.753124 0.0173384 -2.26774e-20)
(0.793497 0.0147447 -1.36413e-20)
(0.827138 0.0126385 6.5718e-24)
(0.0728739 -0.0416467 1.31666e-21)
(0.226252 -0.0506019 -1.67693e-21)
(0.379607 -0.0421133 -1.2664e-19)
(0.486404 -0.0345155 -2.24904e-20)
(0.575454 -0.0286691 -3.76344e-20)
(0.646069 -0.0240816 1.99755e-20)
(0.704918 -0.020389 3.10898e-20)
(0.753124 -0.0173384 -2.83579e-20)
(0.793497 -0.0147447 -2.44528e-20)
(0.827138 -0.0126385 -1.63793e-20)
(0.0844265 -0.123693 1.54716e-19)
(0.240237 -0.150584 -1.09554e-19)
(0.391123 -0.125426 1.55548e-19)
(0.495615 -0.102839 -1.63977e-21)
(0.582878 -0.0854545 8.90191e-20)
(0.652157 -0.0718099 -6.94467e-21)
(0.710014 -0.0608229 -4.37861e-20)
(0.757511 -0.0517446 1.74829e-19)
(0.797231 -0.0440383 -4.07454e-20)
(0.829988 -0.0378066 -1.22756e-21)
(0.107044 -0.202044 -3.30364e-19)
(0.267753 -0.246937 3.91939e-20)
(0.413844 -0.206021 -2.09008e-19)
(0.513791 -0.169063 1.93314e-20)
(0.597532 -0.140603 1.76046e-19)
(0.664175 -0.118248 -1.17775e-19)
(0.720064 -0.100229 4.63109e-20)
(0.766156 -0.0853328 -4.2742e-20)
(0.804602 -0.0727199 1.11103e-19)
(0.835679 -0.062596 -1.45745e-19)
(0.139773 -0.274396 -2.53937e-21)
(0.307911 -0.337354 4.69255e-19)
(0.447147 -0.282151 2.53712e-19)
(0.54045 -0.231842 -1.22477e-19)
(0.619045 -0.193045 -1.43956e-19)
(0.681827 -0.162535 2.13118e-19)
(0.734812 -0.137923 -8.06573e-20)
(0.778826 -0.117577 -4.9936e-20)
(0.815448 -0.10039 -1.6201e-19)
(0.844193 -0.0867071 2.04634e-19)
(0.181271 -0.338709 1.43281e-19)
(0.3594 -0.419659 -2.06044e-19)
(0.490098 -0.352198 -5.65073e-19)
(0.574855 -0.28999 2.67292e-19)
(0.646838 -0.241905 -2.37069e-19)
(0.704636 -0.204044 -3.27469e-19)
(0.753836 -0.17344 2.74049e-20)
(0.795154 -0.148072 -1.10261e-20)
(0.829517 -0.126644 2.30114e-19)
(0.855455 -0.109742 -1.05572e-19)
(0.229986 -0.393339 2.33485e-19)
(0.420561 -0.491805 -1.33087e-19)
(0.541486 -0.414699 6.8752e-19)
(0.616125 -0.342383 -3.19877e-19)
(0.680296 -0.286188 -2.94955e-20)
(0.732176 -0.241808 3.57466e-19)
(0.776807 -0.205838 1.11033e-19)
(0.81484 -0.17602 -8.96371e-20)
(0.846584 -0.150948 -1.47046e-19)
(0.869387 -0.131379 7.78549e-20)
(0.28404 -0.436597 -8.43993e-21)
(0.489367 -0.552028 3.45584e-19)
(0.599725 -0.468579 -3.85248e-19)
(0.663108 -0.388227 2.62468e-19)
(0.718464 -0.3254 -6.45795e-20)
(0.763569 -0.275731 -2.11459e-19)
(0.802841 -0.235461 3.41562e-19)
(0.837024 -0.202025 1.29497e-19)
(0.866049 -0.17369 -1.12524e-19)
(0.885759 -0.151446 -5.41534e-20)
(0.341024 -0.466901 -1.00239e-19)
(0.563562 -0.599122 -5.35108e-19)
(0.66315 -0.513044 5.20327e-19)
(0.714641 -0.426807 -1.40448e-19)
(0.760535 -0.358788 -2.98528e-19)
(0.798404 -0.30479 1.416e-19)
(0.831915 -0.260735 2.45564e-20)
(0.861902 -0.223905 1.51951e-19)
(0.888152 -0.192711 -1.75207e-19)
(0.904709 -0.168929 1.14174e-19)
(0.398114 -0.483216 1.6972e-19)
(0.640626 -0.632348 -3.09507e-20)
(0.730033 -0.547576 -1.82409e-19)
(0.769452 -0.457718 7.03781e-20)
(0.805466 -0.386134 2.79911e-19)
(0.835719 -0.329181 -3.04318e-19)
(0.862877 -0.282743 -1.97002e-19)
(0.887705 -0.244183 -1.54369e-19)
(0.910593 -0.21163 1.24667e-19)
(0.924989 -0.186564 -9.27632e-20)
(0.45217 -0.485109 -7.0101e-20)
(0.717764 -0.65133 3.92997e-20)
(0.798564 -0.571902 2.39999e-20)
(0.826246 -0.480739 -1.08252e-19)
(0.852241 -0.407188 -1.66325e-20)
(0.874812 -0.348387 1.6636e-19)
(0.895569 -0.300135 -1.64539e-19)
(0.915079 -0.259534 2.32337e-19)
(0.93484 -0.224364 1.07513e-19)
(0.949681 -0.197898 -3.61057e-20)
(0.500008 -0.472936 3.64895e-20)
(0.792296 -0.656384 2.79831e-20)
(0.866938 -0.585952 -6.64473e-20)
(0.883727 -0.495862 -2.80495e-20)
(0.899856 -0.421938 4.06329e-20)
(0.914883 -0.362456 1.05584e-19)
(0.929429 -0.313404 -4.64879e-20)
(0.943325 -0.272379 -5.46078e-20)
(0.9578 -0.23874 -2.0968e-19)
(0.971793 -0.214923 1.14309e-19)
(0.537542 -0.447127 2.46284e-19)
(0.861235 -0.647971 1.0873e-20)
(0.933275 -0.589912 2.55323e-20)
(0.940631 -0.503349 2.45037e-20)
(0.947339 -0.430577 -6.9602e-20)
(0.955087 -0.37153 -4.40266e-20)
(0.96374 -0.32257 -5.64232e-20)
(0.972216 -0.281728 1.10468e-19)
(0.981061 -0.248489 4.24495e-20)
(0.991406 -0.220988 -3.8592e-20)
(0.562296 -0.410742 1.02381e-19)
(0.922011 -0.627557 -1.96028e-19)
(0.995999 -0.583917 -7.09311e-20)
(0.995754 -0.503637 -6.79833e-21)
(0.993807 -0.433382 1.55252e-20)
(0.994688 -0.375793 1.64046e-20)
(0.997849 -0.327607 7.26112e-20)
(1.00152 -0.287155 -7.19243e-20)
(1.0053 -0.254047 -1.14109e-20)
(1.01121 -0.224743 1.00456e-19)
(0.573002 -0.36643 -4.55519e-19)
(0.970653 -0.595576 -1.24657e-19)
(1.05328 -0.568858 -1.20184e-20)
(1.04795 -0.497317 4.26022e-21)
(1.03846 -0.430789 3.61673e-20)
(1.03304 -0.375588 -2.04439e-20)
(1.0312 -0.328853 -1.13848e-20)
(1.03084 -0.289234 3.68703e-21)
(1.03063 -0.256691 -1.72375e-20)
(1.03239 -0.227398 -2.79263e-20)
(0.568555 -0.315929 1.15251e-20)
(1.00457 -0.553566 3.62039e-19)
(1.10315 -0.546026 4.87832e-20)
(1.09613 -0.484811 -2.67235e-20)
(1.08056 -0.423325 -9.09354e-21)
(1.06965 -0.371414 6.33535e-20)
(1.06331 -0.326833 2.10143e-20)
(1.05956 -0.288548 2.44971e-20)
(1.05634 -0.256949 -1.41849e-20)
(1.05456 -0.228594 -2.37876e-21)
(0.547868 -0.261526 8.71013e-20)
(1.02218 -0.503659 -1.61356e-19)
(1.14328 -0.516277 6.84929e-20)
(1.13932 -0.466909 9.07941e-20)
(1.11949 -0.411785 -6.40306e-20)
(1.10398 -0.363805 -4.14181e-21)
(1.09376 -0.321975 -7.73388e-20)
(1.08712 -0.285508 -3.37416e-20)
(1.08156 -0.255003 4.27487e-20)
(1.07687 -0.228251 -2.63288e-20)
(0.510666 -0.205995 1.18119e-19)
(1.02173 -0.447499 2.04158e-19)
(1.17157 -0.480617 1.21025e-19)
(1.17648 -0.444668 -1.42479e-19)
(1.15491 -0.396808 1.4414e-19)
(1.13577 -0.353304 -7.05104e-20)
(1.12224 -0.314756 -1.40635e-20)
(1.11301 -0.280422 -9.21124e-21)
(1.10575 -0.251139 -1.7212e-20)
(1.0986 -0.22641 -6.87249e-21)
(0.457994 -0.152227 2.99348e-19)
(1.00129 -0.386653 -1.60456e-19)
(1.18623 -0.440111 9.35769e-20)
(1.20619 -0.418941 9.18077e-20)
(1.1862 -0.379138 -4.75619e-20)
(1.16485 -0.340493 7.59832e-20)
(1.14868 -0.305482 2.66617e-20)
(1.13707 -0.273672 3.33252e-20)
(1.12834 -0.245621 2.21756e-20)
(1.11971 -0.223156 2.59304e-20)
(0.39245 -0.103 -1.09032e-19)
(0.959137 -0.322774 -1.54829e-19)
(1.18524 -0.395711 -1.06696e-19)
(1.22707 -0.390415 -1.00919e-19)
(1.21267 -0.359458 -3.88647e-20)
(1.19086 -0.325929 5.00158e-20)
(1.17292 -0.294539 -2.21338e-20)
(1.15939 -0.26546 4.03816e-21)
(1.14927 -0.23906 -1.62904e-20)
(1.13994 -0.218651 7.33902e-21)
(0.318247 -0.0609049 2.83149e-20)
(0.893901 -0.257638 -6.17214e-21)
(1.1661 -0.34828 2.67131e-20)
(1.23742 -0.359566 1.8378e-20)
(1.23358 -0.338318 1.62304e-20)
(1.2135 -0.310165 -4.02377e-20)
(1.19479 -0.282412 1.92761e-20)
(1.18001 -0.256126 -1.9027e-20)
(1.1686 -0.231578 -5.45372e-21)
(1.15858 -0.212991 -8.07595e-21)
(0.240931 -0.0282755 1.16357e-21)
(0.805044 -0.193288 -1.00049e-21)
(1.12599 -0.298744 -6.4832e-21)
(1.23495 -0.326689 8.15006e-20)
(1.24783 -0.316028 -2.2886e-20)
(1.23249 -0.293674 -2.72676e-20)
(1.21424 -0.269546 4.93445e-21)
(1.19876 -0.245997 -5.35641e-21)
(1.18664 -0.223239 -1.34342e-20)
(1.17566 -0.206194 -3.16107e-20)
(0.166647 -0.00680677 -1.14368e-19)
(0.693306 -0.132234 2.50988e-20)
(1.06182 -0.247974 -2.17844e-19)
(1.2164 -0.291882 -8.42621e-20)
(1.25361 -0.292676 -3.12726e-20)
(1.24722 -0.276719 -9.05868e-21)
(1.2312 -0.256337 -2.64132e-20)
(1.21585 -0.235408 -2.5611e-20)
(1.20302 -0.214149 8.59149e-21)
(1.19176 -0.198435 2.20843e-20)
(0.101138 0.00331343 1.93878e-19)
(0.562848 -0.0780269 -1.11278e-19)
(0.970874 -0.196982 1.71318e-19)
(1.17742 -0.255016 8.97109e-20)
(1.24792 -0.268016 -5.29298e-20)
(1.25655 -0.259427 1.71257e-19)
(1.24542 -0.242962 -3.58727e-20)
(1.23109 -0.22465 6.89433e-20)
(1.21852 -0.204858 4.63224e-21)
(1.20686 -0.189683 7.14791e-20)
(0.0485077 0.00400132 -1.19892e-19)
(0.423401 -0.0354069 5.06622e-19)
(0.851297 -0.147114 -1.12227e-19)
(1.11252 -0.215968 -9.68968e-20)
(1.22624 -0.241606 2.52146e-19)
(1.25795 -0.241456 -1.14283e-19)
(1.25624 -0.229598 -6.03156e-20)
(1.24473 -0.213857 -3.39381e-20)
(1.23224 -0.195519 -1.29738e-19)
(1.22176 -0.180545 4.51603e-20)
(0.0101819 -0.00118814 -2.19337e-19)
(0.28932 -0.00922354 -3.02969e-19)
(0.704029 -0.100557 2.40985e-19)
(1.01582 -0.175024 6.78054e-20)
(1.18194 -0.212691 -1.80776e-19)
(1.24737 -0.222324 -1.86536e-19)
(1.26148 -0.215772 9.82139e-21)
(1.25604 -0.203175 -1.23156e-19)
(1.24562 -0.186628 1.95395e-19)
(1.23468 -0.170517 -2.85433e-20)
(-0.0150276 -0.00858338 9.95745e-20)
(0.17467 -0.000905352 4.76827e-19)
(0.537238 -0.0613391 -5.91192e-20)
(0.882742 -0.133029 1.70989e-20)
(1.10652 -0.180595 -4.05081e-20)
(1.21725 -0.200644 2.40912e-19)
(1.25776 -0.201301 8.40843e-20)
(1.26352 -0.191868 1.43957e-19)
(1.25648 -0.178068 -1.35613e-19)
(1.24899 -0.161114 8.0902e-20)
(-0.030018 -0.0158254 -7.3566e-19)
(0.0869702 -0.00595611 1.90414e-19)
(0.370156 -0.0351953 -2.40705e-19)
(0.714578 -0.0926589 2.94038e-19)
(0.990239 -0.144637 -7.26787e-20)
(1.15743 -0.175318 -4.20844e-19)
(1.23638 -0.184143 2.2763e-19)
(1.26418 -0.180242 -8.78921e-20)
(1.2655 -0.169234 7.81581e-20)
(1.25874 -0.150498 2.40785e-19)
(-0.0376984 -0.0220865 3.43983e-19)
(0.025952 -0.0175311 -5.21801e-19)
(0.225834 -0.0254985 -6.46851e-20)
(0.526312 -0.0600708 -3.26113e-19)
(0.82754 -0.10653 -4.06356e-19)
(1.05288 -0.144068 2.0118e-19)
(1.18658 -0.163792 -2.52931e-19)
(1.24765 -0.164793 -3.1224e-20)
(1.26844 -0.161218 -2.68032e-20)
(1.2709 -0.140234 -3.07904e-19)
(-0.0402219 -0.0271952 3.22498e-19)
(-0.0129738 -0.0307473 -1.24182e-19)
(0.117093 -0.0295024 1.18869e-19)
(0.34669 -0.0421164 -1.77784e-19)
(0.629828 -0.0727943 1.74477e-19)
(0.892334 -0.108402 3.25601e-19)
(1.08592 -0.135624 1.94239e-19)
(1.20397 -0.147086 -8.90426e-21)
(1.25276 -0.147487 -2.20727e-19)
(1.27487 -0.130483 1.81585e-19)
(-0.0393588 -0.0313206 3.78603e-19)
(-0.035333 -0.0434171 1.21617e-19)
(0.0435663 -0.0410582 2.04705e-19)
(0.201483 -0.0400425 5.99362e-20)
(0.429527 -0.0521322 -2.94313e-19)
(0.686761 -0.0752497 8.8376e-20)
(0.919313 -0.102908 -3.38524e-19)
(1.09801 -0.11734 4.71401e-19)
(1.2117 -0.136774 2.8427e-19)
(1.25388 -0.107253 7.77375e-20)
(-0.036512 -0.0347237 -5.35891e-19)
(-0.0460982 -0.0547168 -1.3385e-19)
(-0.00178232 -0.0549841 -1.5591e-19)
(0.0992831 -0.0487518 9.10818e-20)
(0.261117 -0.0472776 3.71421e-19)
(0.472653 -0.0547567 -2.99445e-19)
(0.703512 -0.0734124 -1.31056e-19)
(0.915316 -0.0840984 -1.66684e-19)
(1.0875 -0.107632 -5.36212e-19)
(1.22414 -0.10617 1.36853e-19)
(-0.0327057 -0.037541 -2.20144e-19)
(-0.0494283 -0.0641656 4.80388e-20)
(-0.0273781 -0.0680793 2.43831e-20)
(0.0341474 -0.0615486 -1.47731e-19)
(0.139279 -0.0535122 -2.36879e-19)
(0.291172 -0.0520598 6.27079e-19)
(0.477584 -0.0523131 8.84395e-20)
(0.694393 -0.0626574 2.77357e-19)
(0.856229 -0.0697313 -5.40266e-20)
(1.11423 -0.0896928 2.12991e-19)
(-0.0286467 -0.0397021 3.92942e-19)
(-0.0485746 -0.0711611 8.83349e-20)
(-0.0407876 -0.0782753 -4.16369e-19)
(-0.00540157 -0.0733774 2.32232e-19)
(0.0589154 -0.0639636 3.78298e-19)
(0.159915 -0.0595941 -3.69171e-19)
(0.281843 -0.0433029 3.15979e-19)
(0.484047 -0.0570676 -1.7306e-19)
(0.574132 -0.0427853 2.51845e-19)
(0.912039 -0.0662146 -4.02155e-19)
(-0.0247048 -0.040939 7.61302e-20)
(-0.0457804 -0.0749534 -5.68035e-19)
(-0.0478102 -0.0840898 5.52624e-19)
(-0.0302288 -0.0810667 -3.15011e-20)
(0.00652135 -0.0726922 -1.84217e-19)
(0.0701424 -0.066918 -6.18569e-21)
(0.139319 -0.0480016 -4.86902e-19)
(0.301518 -0.056289 4.40591e-19)
(0.334177 -0.0365199 -3.52751e-19)
(0.652413 -0.0492597 2.49929e-19)
(-0.0209694 -0.0407451 1.14231e-19)
(-0.0424272 -0.0747884 -5.74112e-20)
(-0.0522519 -0.0845683 -1.96005e-19)
(-0.0480378 -0.0829309 -2.40831e-19)
(-0.0306732 -0.0763207 5.44359e-20)
(0.0060764 -0.0699389 -2.68833e-19)
(0.0429828 -0.0570301 -9.39157e-21)
(0.15167 -0.053204 -4.07816e-20)
(0.168459 -0.0461719 1.21118e-19)
(0.389898 -0.0431579 4.70898e-21)
(-0.0174529 -0.0385263 -3.27845e-19)
(-0.0392903 -0.0701175 2.34392e-19)
(-0.0560985 -0.0793276 3.29754e-19)
(-0.0630418 -0.0784905 -1.42618e-20)
(-0.0604501 -0.073574 1.09302e-19)
(-0.0440281 -0.0676103 -1.03064e-19)
(-0.0278598 -0.0608578 4.11246e-19)
(0.0347224 -0.0499621 -1.33484e-19)
(0.0486637 -0.0550826 -4.25125e-19)
(0.17354 -0.0375421 2.04323e-19)
(-0.0142413 -0.0338393 -2.33457e-20)
(-0.0367371 -0.0607788 -2.64118e-19)
(-0.0600003 -0.0685214 -2.08861e-19)
(-0.0765409 -0.0681094 2.03722e-19)
(-0.0860181 -0.0645372 -1.50375e-19)
(-0.086602 -0.0598862 6.85365e-20)
(-0.0850747 -0.0566044 5.17228e-20)
(-0.0557854 -0.0457391 2.43992e-20)
(-0.051092 -0.053282 1.25786e-19)
(0.0123168 -0.0307291 -2.43512e-19)
(-0.011514 -0.0265627 1.81257e-19)
(-0.0348757 -0.0470758 2.28468e-19)
(-0.0637544 -0.0528167 7.14554e-21)
(-0.0882244 -0.0526066 -1.83456e-19)
(-0.107722 -0.0501968 3.0095e-20)
(-0.121731 -0.0472348 4.72042e-20)
(-0.132072 -0.0449569 -7.20337e-20)
(-0.128543 -0.0378697 3.78331e-20)
(-0.134126 -0.0432938 3.94176e-20)
(-0.109181 -0.0267219 -4.07658e-20)
(-0.00950625 -0.0169959 -2.58581e-20)
(-0.0336892 -0.0298081 3.56147e-20)
(-0.0667857 -0.0333031 -1.59152e-19)
(-0.0970447 -0.0331983 4.13541e-20)
(-0.12393 -0.0318321 -9.14296e-20)
(-0.147327 -0.0302557 2.4772e-20)
(-0.167394 -0.0287566 4.48712e-20)
(-0.181215 -0.0254432 -8.07138e-20)
(-0.196774 -0.0276852 -9.32076e-21)
(-0.198211 -0.0201328 3.71611e-20)
(-0.00843686 -0.00585266 -1.78187e-20)
(-0.0331187 -0.0102068 3.8035e-21)
(-0.0684899 -0.0113765 8.48335e-20)
(-0.101829 -0.0113442 3.37196e-20)
(-0.132661 -0.0109055 -1.98837e-20)
(-0.160988 -0.0104139 1.1308e-20)
(-0.186751 -0.00989963 -1.51892e-20)
(-0.209332 -0.00901414 2.36879e-20)
(-0.231718 -0.00953101 1.58029e-20)
(-0.247373 -0.00754547 1.52165e-23)
(-0.260599 0.00945794 -6.4234e-20)
(-0.271422 0.00927934 4.65086e-20)
(-0.281736 0.00907622 9.01327e-22)
(-0.291869 0.0088761 -7.95403e-21)
(-0.301779 0.00865437 -1.63873e-20)
(-0.311438 0.00840013 -1.9221e-20)
(-0.320803 0.00810409 -3.34318e-20)
(-0.329825 0.00775811 5.92928e-20)
(-0.338448 0.00735686 -3.41038e-20)
(-0.346605 0.00689851 7.05858e-20)
(-0.354222 0.0063806 -4.4555e-20)
(-0.36122 0.00579838 -6.51437e-21)
(-0.367514 0.00514803 -1.61266e-20)
(-0.373016 0.00442801 4.18715e-20)
(-0.377636 0.00363886 -2.76738e-20)
(-0.381275 0.00278374 2.83683e-20)
(-0.383834 0.00186557 -1.97334e-20)
(-0.385231 0.000886242 -1.66058e-20)
(-0.385438 -0.000136745 1.07022e-20)
(-0.384419 -0.00122573 -7.01556e-21)
(-0.382126 -0.00236509 2.60756e-20)
(-0.378501 -0.00354307 -1.1894e-20)
(-0.373497 -0.00474983 -1.71391e-20)
(-0.367082 -0.00597623 1.06243e-20)
(-0.35923 -0.0072132 -1.37591e-20)
(-0.349931 -0.00845149 1.62443e-20)
(-0.339183 -0.00968157 4.25808e-21)
(-0.326995 -0.0108935 -1.20403e-20)
(-0.313389 -0.012077 2.08022e-20)
(-0.298398 -0.0132206 2.06283e-20)
(-0.282061 -0.0143153 -2.02366e-20)
(-0.264428 -0.0153571 8.61359e-21)
(-0.245578 -0.0163333 9.43743e-21)
(-0.225587 -0.017245 -1.57515e-20)
(-0.204537 -0.0180835 1.75188e-20)
(-0.182515 -0.0188419 -1.56423e-20)
(-0.159614 -0.0195152 1.7248e-20)
(-0.135938 -0.020099 -7.59321e-21)
(-0.111594 -0.0206006 -2.45295e-21)
(-0.0866546 -0.0210613 5.48886e-22)
(-0.0612545 -0.0213526 2.88851e-21)
(-0.0355316 -0.0215539 1.10481e-21)
(-0.00956528 -0.0216701 -4.5836e-22)
(0.0165492 -0.0217046 -2.94117e-21)
(0.0426971 -0.0216629 -1.26777e-22)
(0.0687805 -0.0215459 -2.88156e-22)
(0.0947186 -0.0213587 8.84668e-22)
(0.120429 -0.0211074 -4.96179e-23)
(0.145838 -0.0207984 -7.9369e-23)
(0.170877 -0.0204383 4.27589e-22)
(0.195488 -0.0200337 -4.10663e-22)
(0.219618 -0.0195914 -1.04514e-22)
(0.243223 -0.0191177 1.97732e-21)
(0.266269 -0.0186187 -8.11668e-22)
(0.288724 -0.0181003 -4.63758e-22)
(0.310568 -0.0175678 -3.34871e-22)
(0.331783 -0.0170262 1.03062e-21)
(0.35236 -0.0164797 3.43642e-23)
(0.372292 -0.0159325 -3.62279e-21)
(0.39158 -0.0153881 5.59723e-21)
(0.410226 -0.0148496 -4.01176e-21)
(0.428237 -0.0143198 -6.45091e-22)
(0.445623 -0.0138013 5.6081e-22)
(0.462394 -0.0132956 4.56857e-22)
(0.478564 -0.0128034 -5.75879e-22)
(0.494148 -0.0123255 1.05743e-21)
(0.509161 -0.0118625 1.02562e-22)
(0.523621 -0.0114149 2.87558e-22)
(0.537547 -0.0109831 -1.43565e-22)
(0.550956 -0.0105671 -8.13828e-22)
(0.563866 -0.010167 1.55697e-21)
(0.576298 -0.00978265 4.43946e-22)
(0.588269 -0.00941388 -1.31909e-21)
(0.599798 -0.00906037 -9.57489e-22)
(0.610903 -0.00872179 1.14555e-21)
(0.621601 -0.00839773 -4.84425e-22)
(0.631911 -0.00808774 1.31201e-21)
(0.641848 -0.00779135 -8.67148e-22)