/*--------------------------------*- C++ -*----------------------------------*\
  =========                 |
  \\      /  F ield         | OpenFOAM: The Open Source CFD Toolbox
   \\    /   O peration     | Website:  https://openfoam.org
    \\  /    A nd           | Version:  7
     \\/     M anipulation  |
\*---------------------------------------------------------------------------*/
FoamFile
{
    version     2.0;
    format      ascii;
    class       volScalarField;
    location    "95.001";
    object      p;
}
// * * * * * * * * * * * * * * * * * * * * * * * * * * * * * * * * * * * * * //

dimensions      [0 2 -2 0 0 0 0];

internalField   nonuniform List<scalar> 
3700
(
0.661863
0.634485
0.613878
0.583935
0.5514
0.51806
0.485475
0.454359
0.425122
0.397922
0.372783
0.349653
0.328469
0.309156
0.291546
0.657934
0.630952
0.610817
0.581305
0.549134
0.516103
0.48378
0.452887
0.423841
0.396805
0.371808
0.348798
0.327712
0.308493
0.291005
0.649362
0.623233
0.604122
0.575542
0.544154
0.511783
0.480018
0.449599
0.420957
0.394267
0.369569
0.34681
0.32593
0.306906
0.289676
0.63622
0.611391
0.593847
0.56669
0.536497
0.505131
0.474214
0.444516
0.416488
0.390324
0.366079
0.343702
0.323135
0.304406
0.287564
0.618624
0.59552
0.58007
0.554815
0.526216
0.496192
0.466408
0.437671
0.410461
0.385
0.361359
0.339493
0.319341
0.301003
0.284675
0.596723
0.575748
0.562894
0.54
0.513384
0.485027
0.456651
0.429108
0.402915
0.378326
0.355435
0.334204
0.314572
0.296715
0.281015
0.570703
0.55223
0.542448
0.522355
0.49809
0.471711
0.445006
0.41888
0.393895
0.370341
0.348343
0.327868
0.308852
0.291561
0.276593
0.540785
0.525152
0.518884
0.502003
0.480439
0.456334
0.431549
0.407052
0.383456
0.361092
0.34012
0.320517
0.302214
0.285568
0.271423
0.50722
0.494725
0.492378
0.479091
0.460554
0.438997
0.416365
0.393697
0.371659
0.350631
0.330813
0.312192
0.294694
0.278762
0.26552
0.470292
0.46119
0.463125
0.45378
0.438569
0.419815
0.399552
0.378896
0.358575
0.33902
0.320474
0.302938
0.28633
0.271177
0.258903
0.430312
0.424809
0.431343
0.426249
0.414635
0.398914
0.381215
0.362741
0.344281
0.326324
0.309159
0.292806
0.277167
0.262848
0.251595
0.387615
0.385867
0.397264
0.396691
0.388913
0.376429
0.361471
0.345329
0.328861
0.312614
0.29693
0.281848
0.267253
0.253813
0.24362
0.342562
0.344671
0.361142
0.365314
0.361577
0.352506
0.340442
0.326765
0.312403
0.297968
0.283853
0.270124
0.256639
0.244115
0.235007
0.295531
0.301543
0.323241
0.332335
0.332808
0.3273
0.318259
0.307159
0.295004
0.282466
0.269999
0.257696
0.24538
0.233795
0.225786
0.246917
0.256823
0.283841
0.297983
0.302799
0.300971
0.295057
0.286629
0.276761
0.266192
0.255441
0.244634
0.23354
0.222903
0.215985
0.197126
0.210863
0.243231
0.262495
0.271745
0.273685
0.270977
0.265292
0.257777
0.249235
0.240255
0.231005
0.221187
0.211484
0.205627
0.146576
0.164025
0.201708
0.226113
0.23985
0.245612
0.246164
0.243272
0.238159
0.231684
0.224514
0.216883
0.208407
0.199611
0.194727
0.0956828
0.11668
0.159576
0.189084
0.207319
0.216925
0.220763
0.220695
0.218013
0.213634
0.208294
0.202333
0.195291
0.187362
0.183239
0.0448623
0.0692062
0.117141
0.151654
0.174358
0.187799
0.194922
0.197684
0.197448
0.195177
0.191668
0.1874
0.181937
0.174956
0.171141
-0.00546934
0.0219717
0.0747078
0.11407
0.141172
0.158406
0.168789
0.174366
0.176572
0.176413
0.174723
0.172132
0.168414
0.162701
0.158169
-0.0549001
-0.0246629
0.0325801
0.0765744
0.107965
0.128919
0.142509
0.150864
0.15549
0.157436
0.157543
0.156545
0.154589
0.150842
0.144786
-0.103034
-0.0703485
-0.00894629
0.0394009
0.0749347
0.0995073
0.116226
0.1273
0.134303
0.138332
0.140226
0.140753
0.140426
0.138863
0.134302
-0.149488
-0.114764
-0.0495901
0.00277301
0.0422754
0.0703339
0.0900792
0.103794
0.113112
0.119185
0.122857
0.124884
0.126036
0.12652
0.124051
-0.193772
-0.15763
-0.0891055
-0.0330997
0.0101755
0.0415574
0.0642032
0.0804607
0.092017
0.100075
0.105498
0.109014
0.111501
0.113588
0.112992
-0.235688
-0.198389
-0.127335
-0.068012
-0.0211805
0.0133286
0.0387263
0.0574114
0.0711111
0.0810774
0.088201
0.0931803
0.0969102
0.100259
0.10115
-0.274972
-0.236449
-0.164301
-0.101734
-0.0516166
-0.0142114
0.0137704
0.0347501
0.0504849
0.0622677
0.0710199
0.0774221
0.0823482
0.086805
0.0889426
-0.311382
-0.271774
-0.199555
-0.133988
-0.0809741
-0.0409297
-0.0105496
0.0125752
0.0302234
0.0437211
0.0540181
0.061788
0.0678731
0.0733667
0.0766654
-0.344724
-0.304493
-0.232481
-0.164592
-0.109112
-0.0667014
-0.0341264
-0.00902223
0.010406
0.0255089
0.0372602
0.0463316
0.0535275
0.0599944
0.0644106
-0.374816
-0.334396
-0.26289
-0.193438
-0.135899
-0.0914097
-0.0568622
-0.0299581
-0.00889478
0.00769681
0.0208065
0.031105
0.0393529
0.0467248
0.052203
-0.401515
-0.361236
-0.290784
-0.220386
-0.161225
-0.114949
-0.0786692
-0.0501563
-0.0276139
-0.00965573
0.00471154
0.0161572
0.0253929
0.033603
0.0400825
-0.424734
-0.384851
-0.316083
-0.24533
-0.185036
-0.137211
-0.0994724
-0.0695462
-0.0456959
-0.0264948
-0.0109755
0.0015336
0.0116903
0.0206752
0.0281008
-0.444438
-0.405151
-0.338677
-0.268175
-0.207202
-0.158206
-0.119206
-0.0880657
-0.0630923
-0.0427704
-0.026211
-0.0127238
-0.00171541
0.00797931
0.0163025
-0.460642
-0.422104
-0.358482
-0.288846
-0.227636
-0.177863
-0.137885
-0.105661
-0.0797585
-0.0584366
-0.0409584
-0.026577
-0.014787
-0.00445799
0.004721
-0.473404
-0.435723
-0.375456
-0.307298
-0.246303
-0.196105
-0.155445
-0.12245
-0.0955711
-0.0734586
-0.0551863
-0.0399948
-0.027487
-0.0166192
-0.00661958
-0.482829
-0.446077
-0.389594
-0.323506
-0.263189
-0.212903
-0.171821
-0.138251
-0.110654
-0.0878466
-0.0688616
-0.0529587
-0.039778
-0.0284751
-0.0177218
-0.489064
-0.453288
-0.40093
-0.337468
-0.27829
-0.228259
-0.187002
-0.153047
-0.124951
-0.101575
-0.0819918
-0.0654761
-0.0516324
-0.039944
-0.0286463
-0.4923
-0.457533
-0.409535
-0.349203
-0.291614
-0.242183
-0.201004
-0.166858
-0.138426
-0.114615
-0.094546
-0.0775135
-0.0630857
-0.0508432
-0.0395564
-0.492764
-0.459039
-0.415523
-0.358752
-0.303185
-0.254695
-0.213847
-0.179703
-0.151082
-0.12696
-0.106508
-0.0890483
-0.0741356
-0.0614196
-0.0500026
-0.490718
-0.458081
-0.419042
-0.366181
-0.313046
-0.265827
-0.225556
-0.191598
-0.162933
-0.138617
-0.117879
-0.100076
-0.0847671
-0.0716406
-0.0598696
-0.486453
-0.454977
-0.420264
-0.371579
-0.321252
-0.275621
-0.236162
-0.202569
-0.173998
-0.149602
-0.128668
-0.110598
-0.0949578
-0.0814589
-0.0692735
-0.480285
-0.450077
-0.419397
-0.375061
-0.327876
-0.284129
-0.245708
-0.212647
-0.184302
-0.159933
-0.138889
-0.120619
-0.104703
-0.0908825
-0.0783378
-0.472542
-0.443733
-0.416684
-0.37677
-0.333006
-0.291415
-0.254245
-0.221874
-0.193877
-0.169631
-0.148558
-0.130153
-0.114015
-0.0999339
-0.0871266
-0.463558
-0.436287
-0.412407
-0.376877
-0.336739
-0.297548
-0.261828
-0.230297
-0.20276
-0.178726
-0.157696
-0.139218
-0.122912
-0.108622
-0.095643
-0.453665
-0.428057
-0.406877
-0.375574
-0.339188
-0.302605
-0.26852
-0.237968
-0.210992
-0.18725
-0.166327
-0.147832
-0.131409
-0.116946
-0.103857
-0.44318
-0.419329
-0.400422
-0.37307
-0.340474
-0.306665
-0.274384
-0.244941
-0.218621
-0.195241
-0.17448
-0.156017
-0.139518
-0.124904
-0.111744
-0.432393
-0.410351
-0.393366
-0.369591
-0.340727
-0.309814
-0.279486
-0.251272
-0.225695
-0.202737
-0.182186
-0.163792
-0.147255
-0.132504
-0.119298
-0.421562
-0.401335
-0.386012
-0.36537
-0.340088
-0.312137
-0.283891
-0.257018
-0.232261
-0.209781
-0.189478
-0.171182
-0.154636
-0.139761
-0.126524
-0.410901
-0.392462
-0.378616
-0.360643
-0.338707
-0.313723
-0.287661
-0.262231
-0.238369
-0.216414
-0.19639
-0.178211
-0.161682
-0.146691
-0.133429
-0.400582
-0.383882
-0.371378
-0.355645
-0.336742
-0.314663
-0.290854
-0.266962
-0.244065
-0.222678
-0.202957
-0.184907
-0.16841
-0.153309
-0.140019
-0.390734
-0.375714
-0.36444
-0.350593
-0.334355
-0.31505
-0.293526
-0.271252
-0.249389
-0.228612
-0.209214
-0.191298
-0.174841
-0.159628
-0.146299
-0.381448
-0.368046
-0.357896
-0.345669
-0.331708
-0.314981
-0.29573
-0.275139
-0.254375
-0.234249
-0.215194
-0.197408
-0.180991
-0.165663
-0.152275
-0.37278
-0.360931
-0.351805
-0.341005
-0.32896
-0.314556
-0.297516
-0.27865
-0.25905
-0.239617
-0.220924
-0.203264
-0.186878
-0.171424
-0.157947
-0.364756
-0.354393
-0.346203
-0.33668
-0.326246
-0.31388
-0.298933
-0.281806
-0.263428
-0.244734
-0.226427
-0.208886
-0.192516
-0.176919
-0.163318
-0.35738
-0.348425
-0.341106
-0.332731
-0.323673
-0.313052
-0.300033
-0.284621
-0.267513
-0.249608
-0.231716
-0.214292
-0.197917
-0.182158
-0.168382
-0.350634
-0.343003
-0.336505
-0.329163
-0.321303
-0.312164
-0.300868
-0.287105
-0.271295
-0.254231
-0.236791
-0.219488
-0.20309
-0.187138
-0.17314
-0.344484
-0.338085
-0.332372
-0.325964
-0.319159
-0.311281
-0.301489
-0.289268
-0.274759
-0.258582
-0.24164
-0.224473
-0.208035
-0.191868
-0.177566
-0.338884
-0.333622
-0.328663
-0.323107
-0.317232
-0.310438
-0.301942
-0.291121
-0.277881
-0.262627
-0.246232
-0.229231
-0.212746
-0.196326
-0.181701
-0.33378
-0.329558
-0.32532
-0.320552
-0.315498
-0.309641
-0.302254
-0.292676
-0.280638
-0.266323
-0.250525
-0.233726
-0.217213
-0.200524
-0.185503
-0.329117
-0.32584
-0.322283
-0.318246
-0.313922
-0.308874
-0.302435
-0.293941
-0.283009
-0.269624
-0.254455
-0.237918
-0.221387
-0.204454
-0.189175
-0.324837
-0.322416
-0.319494
-0.316131
-0.312461
-0.308111
-0.302479
-0.29492
-0.284978
-0.272491
-0.257963
-0.241736
-0.225258
-0.208092
-0.192611
-0.320887
-0.319242
-0.316899
-0.314155
-0.311068
-0.30732
-0.302374
-0.295612
-0.286539
-0.274894
-0.260984
-0.245153
-0.228609
-0.211848
-0.195464
-0.317216
-0.316289
-0.314456
-0.312271
-0.309702
-0.306474
-0.302104
-0.296017
-0.287692
-0.27682
-0.263467
-0.248158
-0.231351
-0.215319
-0.197579
-0.313806
-0.313514
-0.312136
-0.310447
-0.308334
-0.305551
-0.301665
-0.296141
-0.288452
-0.278274
-0.265395
-0.25073
-0.233385
-0.218066
-0.198855
-0.310625
-0.310897
-0.309927
-0.308666
-0.306946
-0.304543
-0.301061
-0.296004
-0.288849
-0.279283
-0.266793
-0.252875
-0.23468
-0.220281
-0.199199
-0.307655
-0.308437
-0.30782
-0.306922
-0.305538
-0.303456
-0.30031
-0.295639
-0.288931
-0.279899
-0.267736
-0.254626
-0.235338
-0.222321
-0.198698
-0.304893
-0.306135
-0.305816
-0.305228
-0.304125
-0.302314
-0.299449
-0.295097
-0.28877
-0.280195
-0.268348
-0.256007
-0.235644
-0.224322
-0.197537
-0.302342
-0.303998
-0.303929
-0.303602
-0.302737
-0.301151
-0.298528
-0.294449
-0.288455
-0.280271
-0.268785
-0.257041
-0.236028
-0.226128
-0.196081
-0.300012
-0.30204
-0.30218
-0.302071
-0.301409
-0.300021
-0.297606
-0.293774
-0.288088
-0.280257
-0.269202
-0.257835
-0.236883
-0.22759
-0.19529
-0.29792
-0.300279
-0.300593
-0.300668
-0.30018
-0.298971
-0.296755
-0.293162
-0.287779
-0.280308
-0.269733
-0.258624
-0.238397
-0.228841
-0.195949
-0.296087
-0.298737
-0.299195
-0.299426
-0.299094
-0.298055
-0.29604
-0.292695
-0.287642
-0.280567
-0.270512
-0.259719
-0.240594
-0.230364
-0.198419
-0.294535
-0.297436
-0.298013
-0.298378
-0.29819
-0.297322
-0.29552
-0.292455
-0.287766
-0.2811
-0.271782
-0.261321
-0.243504
-0.232747
-0.202661
-0.293287
-0.296396
-0.297071
-0.297554
-0.297505
-0.296815
-0.295249
-0.292501
-0.288234
-0.282084
-0.273584
-0.263383
-0.247522
-0.236271
-0.208511
-0.292363
-0.295638
-0.296393
-0.296981
-0.297069
-0.29657
-0.295268
-0.292882
-0.289101
-0.283578
-0.275947
-0.266346
-0.25261
-0.240701
-0.216274
-0.291781
-0.295176
-0.295995
-0.296678
-0.296906
-0.296612
-0.295605
-0.29363
-0.290405
-0.28561
-0.278938
-0.270278
-0.258516
-0.246719
-0.226588
-0.291554
-0.29502
-0.295888
-0.296659
-0.297031
-0.296959
-0.296276
-0.294761
-0.292159
-0.288191
-0.282585
-0.275134
-0.265273
-0.254392
-0.237975
-0.291688
-0.295173
-0.296079
-0.29693
-0.297449
-0.297614
-0.297285
-0.296273
-0.29436
-0.291307
-0.286874
-0.280843
-0.272906
-0.26355
-0.250511
-0.292179
-0.295631
-0.296561
-0.297487
-0.298157
-0.298572
-0.298623
-0.298152
-0.296984
-0.294921
-0.291762
-0.28731
-0.281372
-0.273994
-0.264187
-0.293018
-0.296382
-0.297325
-0.298317
-0.29914
-0.299816
-0.300265
-0.300367
-0.299987
-0.298975
-0.297172
-0.294419
-0.290568
-0.285494
-0.278845
-0.294185
-0.297406
-0.298349
-0.2994
-0.300374
-0.301317
-0.302176
-0.30287
-0.30331
-0.303391
-0.303003
-0.302025
-0.300339
-0.297778
-0.294235
-0.295652
-0.298675
-0.299605
-0.300704
-0.301825
-0.303033
-0.304306
-0.305601
-0.306873
-0.308068
-0.309124
-0.309959
-0.310478
-0.310532
-0.310016
0.268865
0.246646
0.227756
0.213375
0.200919
0.191351
0.182899
0.176351
0.170509
0.165974
0.161911
0.158769
0.155968
0.153832
0.15196
0.150585
0.14943
0.14866
0.148093
0.147882
0.268524
0.246463
0.227644
0.21336
0.200916
0.191313
0.182876
0.176355
0.170517
0.16599
0.161932
0.158795
0.155996
0.153863
0.151991
0.150616
0.149461
0.14869
0.148123
0.147913
0.267591
0.24586
0.227208
0.213053
0.200695
0.19124
0.182823
0.176303
0.170468
0.165955
0.161908
0.15878
0.155988
0.153859
0.15199
0.150617
0.149464
0.148695
0.148129
0.147918
0.266094
0.244882
0.226491
0.212569
0.200322
0.190952
0.18263
0.176175
0.170351
0.165867
0.161836
0.158724
0.155942
0.153821
0.151958
0.15059
0.14944
0.148673
0.148109
0.147899
0.264025
0.243517
0.225479
0.211872
0.199789
0.190578
0.182329
0.175932
0.170177
0.165726
0.161718
0.158626
0.155858
0.153749
0.151896
0.150534
0.14939
0.148626
0.148064
0.147854
0.261384
0.241769
0.22418
0.21097
0.199091
0.190068
0.181919
0.175661
0.169932
0.165532
0.161553
0.158488
0.155738
0.153644
0.151802
0.150449
0.149312
0.148553
0.147995
0.147785
0.258173
0.239642
0.222594
0.209866
0.198236
0.189444
0.181408
0.175263
0.16966
0.165302
0.161344
0.15831
0.155583
0.153507
0.151679
0.150336
0.149208
0.148455
0.147901
0.147693
0.254392
0.237137
0.220726
0.208563
0.197225
0.188702
0.180815
0.174811
0.16929
0.165007
0.161091
0.158092
0.155392
0.153337
0.151527
0.150196
0.149079
0.148332
0.147784
0.147576
0.250045
0.234259
0.21858
0.207064
0.196062
0.187844
0.180126
0.174278
0.168869
0.164659
0.160794
0.157836
0.155167
0.153136
0.151346
0.150029
0.148924
0.148185
0.147643
0.147436
0.245139
0.231013
0.216159
0.20537
0.194751
0.186872
0.179349
0.17367
0.168376
0.16426
0.160456
0.157543
0.154909
0.152905
0.151137
0.149837
0.148745
0.148015
0.14748
0.147274
0.239681
0.227402
0.213471
0.203486
0.193297
0.185789
0.178487
0.17299
0.167814
0.163785
0.160074
0.157214
0.15462
0.152645
0.150902
0.149619
0.148542
0.147822
0.147294
0.14709
0.23368
0.223431
0.210521
0.201411
0.191705
0.184596
0.177541
0.172237
0.167187
0.163334
0.159671
0.156858
0.154301
0.152357
0.15064
0.149376
0.148317
0.147607
0.147087
0.146885
0.227149
0.219103
0.207316
0.19915
0.189978
0.183296
0.176516
0.171419
0.166507
0.162744
0.159248
0.156475
0.153951
0.152041
0.150354
0.149111
0.148069
0.147371
0.14686
0.146659
0.220101
0.214421
0.203866
0.196703
0.188123
0.181891
0.175413
0.170536
0.165784
0.162142
0.158727
0.156019
0.153573
0.1517
0.150045
0.148823
0.1478
0.147115
0.146612
0.146414
0.212553
0.209386
0.20018
0.194073
0.186143
0.180385
0.174235
0.16959
0.165011
0.161491
0.158173
0.155595
0.153165
0.151338
0.149713
0.148514
0.147511
0.146839
0.146346
0.14615
0.204524
0.203995
0.196267
0.191263
0.184044
0.17878
0.172985
0.168584
0.164191
0.160801
0.157578
0.155071
0.152782
0.150951
0.14936
0.148186
0.147204
0.146544
0.146061
0.145868
0.196027
0.198242
0.192137
0.188276
0.181828
0.177082
0.171663
0.16752
0.163325
0.160073
0.156959
0.154529
0.152291
0.150555
0.148984
0.147839
0.146877
0.146232
0.14576
0.14557
0.187103
0.192132
0.187804
0.185114
0.179495
0.175287
0.17027
0.166397
0.16241
0.159304
0.156307
0.153962
0.151791
0.150111
0.148619
0.147473
0.146532
0.145904
0.145441
0.145256
0.177716
0.185685
0.183292
0.181838
0.177089
0.173448
0.168844
0.165253
0.161478
0.158522
0.15564
0.153383
0.151279
0.149647
0.148191
0.147111
0.146192
0.14556
0.145108
0.144927
0.167451
0.178438
0.178347
0.178255
0.17449
0.171479
0.167314
0.164032
0.160478
0.157685
0.154926
0.152762
0.150733
0.149157
0.147745
0.146694
0.145809
0.145206
0.144762
0.144585
0.152589
0.166571
0.170329
0.171455
0.169473
0.167285
0.164121
0.161358
0.158382
0.155911
0.153497
0.151534
0.149716
0.148269
0.146988
0.146011
0.1452
0.14464
0.144238
0.144077
0.141363
0.153557
0.160278
0.162897
0.162811
0.161754
0.159728
0.157718
0.155439
0.153454
0.151474
0.149825
0.14828
0.147034
0.145924
0.14507
0.144357
0.14386
0.143508
0.143371
0.131119
0.142996
0.151047
0.154863
0.156313
0.156295
0.15531
0.154024
0.15242
0.150918
0.149372
0.148041
0.146775
0.145735
0.144803
0.144077
0.143468
0.143039
0.142737
0.14262
0.121689
0.133801
0.142623
0.147412
0.150085
0.150997
0.150956
0.150346
0.149387
0.148348
0.147231
0.146211
0.145226
0.144391
0.143639
0.143041
0.142539
0.142181
0.141931
0.141832
0.113283
0.125615
0.134953
0.140556
0.144184
0.145922
0.146709
0.14673
0.146372
0.145778
0.145073
0.144357
0.143649
0.143016
0.142443
0.141972
0.141579
0.141292
0.141094
0.141013
0.105919
0.118312
0.127987
0.134256
0.138633
0.141097
0.142597
0.143206
0.143395
0.143228
0.142913
0.142494
0.142054
0.141622
0.141224
0.140881
0.140594
0.140379
0.140233
0.140169
0.0994895
0.111815
0.121684
0.12847
0.13344
0.136533
0.138646
0.139793
0.140478
0.140716
0.140767
0.140637
0.140452
0.140218
0.139991
0.139774
0.139592
0.139448
0.139353
0.139307
0.0938575
0.106039
0.115998
0.123166
0.128606
0.132235
0.134874
0.136508
0.13764
0.138259
0.138649
0.138797
0.138856
0.138814
0.138752
0.138659
0.13858
0.138507
0.138461
0.138433
0.0889121
0.100901
0.110875
0.118315
0.124122
0.128203
0.131293
0.133362
0.134896
0.135868
0.136573
0.136985
0.137275
0.137419
0.137515
0.137545
0.137564
0.13756
0.137562
0.137552
0.0845672
0.0963282
0.106262
0.113886
0.119979
0.124434
0.127909
0.130365
0.132257
0.133556
0.134551
0.135213
0.135719
0.136041
0.136288
0.136436
0.136551
0.136614
0.136661
0.136671
0.0807509
0.092259
0.10211
0.10985
0.116162
0.120924
0.124727
0.127522
0.129735
0.131331
0.132592
0.133488
0.134196
0.134689
0.135079
0.135342
0.135547
0.135675
0.135766
0.135794
0.0773999
0.0886397
0.0983756
0.106178
0.112653
0.117666
0.121745
0.124838
0.127334
0.129201
0.130706
0.131818
0.132716
0.13337
0.133895
0.134266
0.134558
0.134749
0.134881
0.134927
0.074458
0.0854223
0.0950189
0.102843
0.109436
0.114651
0.118964
0.122314
0.125062
0.127171
0.128898
0.130211
0.131284
0.13209
0.132741
0.133216
0.133589
0.133841
0.134011
0.134076
0.071876
0.0825638
0.0920053
0.0998206
0.106493
0.11187
0.116378
0.11995
0.122919
0.125248
0.127175
0.128673
0.129907
0.130854
0.131624
0.132197
0.132647
0.132955
0.133163
0.133245
0.0696108
0.0800263
0.0893032
0.0970866
0.10381
0.109313
0.113983
0.117747
0.12091
0.123433
0.125541
0.127208
0.128591
0.129669
0.130549
0.131214
0.131735
0.132097
0.132339
0.132439
0.0676249
0.077776
0.0868845
0.0946191
0.101368
0.106971
0.111774
0.115702
0.119034
0.121731
0.124001
0.125821
0.12734
0.128539
0.129521
0.130271
0.13086
0.131272
0.131546
0.131662
0.0658855
0.0757835
0.0847238
0.0923982
0.0991549
0.104833
0.109745
0.113813
0.117292
0.120142
0.122558
0.124516
0.126159
0.127468
0.128544
0.129374
0.130024
0.130483
0.130788
0.130919
0.0643645
0.0740228
0.0827986
0.0904054
0.0971557
0.10289
0.107891
0.112077
0.115683
0.118668
0.121213
0.123296
0.12505
0.126461
0.127623
0.128525
0.129233
0.129734
0.130067
0.130212
0.0630372
0.0724711
0.081089
0.0886243
0.0953577
0.101133
0.106205
0.110491
0.114206
0.117309
0.119969
0.122163
0.124018
0.12552
0.12676
0.127729
0.128489
0.12903
0.129388
0.129547
0.0618826
0.0711087
0.0795773
0.08704
0.0937494
0.0995537
0.104681
0.109052
0.11286
0.116067
0.118826
0.12112
0.123064
0.124649
0.125959
0.126988
0.127796
0.128373
0.128754
0.128925
0.0608826
0.0699183
0.0782479
0.0856391
0.0923201
0.0981434
0.103315
0.107756
0.111643
0.114939
0.117786
0.120167
0.122191
0.12385
0.125223
0.126307
0.127157
0.127767
0.128169
0.128351
0.0600215
0.0688851
0.0770871
0.0844099
0.0910602
0.096895
0.1021
0.1066
0.110554
0.113927
0.11685
0.119308
0.121402
0.123125
0.124554
0.125686
0.126574
0.127213
0.127634
0.127826
0.0592862
0.0679964
0.0760832
0.0833422
0.0899612
0.095802
0.101034
0.10558
0.109591
0.113029
0.116018
0.118541
0.120696
0.122477
0.123955
0.125129
0.126051
0.126716
0.127153
0.127354
0.0586655
0.0672411
0.0752259
0.0824268
0.0890155
0.0948585
0.10011
0.104695
0.108753
0.112246
0.11529
0.11787
0.120076
0.121906
0.123427
0.124638
0.125588
0.126275
0.126727
0.126936
0.0581501
0.0666102
0.0745065
0.0816561
0.0882168
0.0940593
0.0993249
0.103942
0.108037
0.111576
0.114665
0.117293
0.119544
0.121414
0.122971
0.124213
0.125189
0.125895
0.126359
0.126574
0.0577324
0.0660961
0.0739179
0.0810237
0.0875595
0.0934001
0.098676
0.103318
0.107443
0.111018
0.114145
0.116812
0.119098
0.121003
0.122589
0.123857
0.124853
0.125575
0.12605
0.12627
0.0574062
0.0656924
0.073454
0.0805242
0.0870391
0.0928772
0.0981603
0.102821
0.106969
0.110573
0.11373
0.116426
0.118741
0.120673
0.122283
0.123572
0.124584
0.125318
0.125801
0.126026
0.0571665
0.0653946
0.0731103
0.0801533
0.0866518
0.0924876
0.0977754
0.102449
0.106614
0.11024
0.113418
0.116137
0.118473
0.120425
0.122052
0.123356
0.124381
0.125124
0.125613
0.125841
0.05701
0.0651989
0.0728832
0.079908
0.0863951
0.0922291
0.0975197
0.102202
0.106378
0.110018
0.11321
0.115944
0.118294
0.12026
0.121898
0.123212
0.124245
0.124995
0.125487
0.125718
0.0569331
0.0651031
0.0727696
0.0797865
0.0862666
0.0921007
0.0973917
0.102079
0.10626
0.109907
0.113106
0.115848
0.118204
0.120177
0.121821
0.12314
0.124177
0.12493
0.125425
0.125656
0.137664
0.129106
0.120062
0.111402
0.103542
0.0965514
0.0903861
0.0849756
0.0802456
0.0761214
0.0725315
0.0694098
0.0666969
0.0643403
0.0622943
0.060519
0.0589798
0.057647
0.0564949
0.0555016
0.0546484
0.0539191
0.0533005
0.0527812
0.0523518
0.0520047
0.051734
0.0515346
0.0514038
0.0513436
0.12751
0.11847
0.110031
0.10219
0.0951712
0.0889449
0.0834511
0.0786314
0.0744247
0.0707649
0.0675863
0.064828
0.0624354
0.0603607
0.0585622
0.0570038
0.0556543
0.0544869
0.0534785
0.0526093
0.0518625
0.0512239
0.0506812
0.0502243
0.0498449
0.0495362
0.0492927
0.0491099
0.0489857
0.0489264
0.115911
0.105578
0.0973842
0.0902473
0.0841678
0.0789253
0.0743841
0.0704484
0.0670417
0.0640945
0.0615443
0.0593362
0.0574229
0.0557639
0.0543248
0.0530762
0.051993
0.0510539
0.0502405
0.0495373
0.048931
0.0484103
0.0479656
0.0475891
0.0472738
0.0470146
0.0468071
0.0466477
0.0465341
0.0464754
0.105439
0.0952071
0.0875056
0.0808342
0.0753294
0.0707019
0.0667902
0.063467
0.0606346
0.0582129
0.0561366
0.0543518
0.0528137
0.0514857
0.0503372
0.0493426
0.0484807
0.0477336
0.047086
0.0465254
0.0460408
0.0456233
0.0452651
0.0449597
0.0447018
0.044487
0.0443121
0.0441742
0.0440696
0.0440074
0.0948254
0.0857481
0.0792404
0.0733098
0.0683995
0.0642558
0.0607769
0.057851
0.0553843
0.0532979
0.0515272
0.0500197
0.0487327
0.0476309
0.0466856
0.0458728
0.0451728
0.0445692
0.0440483
0.0435986
0.0432106
0.0428762
0.0425887
0.0423424
0.0421326
0.0419555
0.0418084
0.0416889
0.041592
0.0415249
0.0836507
0.0757024
0.0705359
0.0655964
0.0615166
0.0580108
0.0550459
0.0525443
0.0504382
0.0486642
0.0471678
0.0459034
0.0448329
0.0439249
0.0431532
0.042496
0.0419353
0.041456
0.0410456
0.0406936
0.0403914
0.0401315
0.0399079
0.0397156
0.0395502
0.0394083
0.0392874
0.0391856
0.0390971
0.0390259
0.0723852
0.0653727
0.0612468
0.0571978
0.0539829
0.0512112
0.0488724
0.0468959
0.0452318
0.0438334
0.0426594
0.0416739
0.0408465
0.0401513
0.0395667
0.0390746
0.0386596
0.038309
0.0380121
0.0377599
0.0375448
0.0373607
0.0372021
0.0370646
0.0369445
0.0368388
0.0367452
0.0366624
0.0365842
0.0365109
0.0612716
0.0552573
0.0519991
0.0486849
0.0462122
0.0441149
0.0423929
0.0409611
0.0397723
0.0387858
0.0379686
0.0372925
0.0367341
0.0362734
0.0358937
0.0355809
0.0353231
0.0351102
0.034934
0.0347872
0.0346639
0.0345591
0.0344685
0.0343884
0.034316
0.0342484
0.034184
0.0341218
0.0340561
0.0339828
0.0502683
0.0453741
0.0430165
0.040432
0.0386352
0.0371354
0.035965
0.0350316
0.0342896
0.0336995
0.0332319
0.0328633
0.0325749
0.0323512
0.0321797
0.0320497
0.0319524
0.0318804
0.0318276
0.0317886
0.0317592
0.0317357
0.0317147
0.0316937
0.0316703
0.0316424
0.0316086
0.0315685
0.0315169
0.0314457
0.0393471
0.0355966
0.0341876
0.0323986
0.0312968
0.0303813
0.0297286
0.0292533
0.0289201
0.0286947
0.0285517
0.0284714
0.0284386
0.0284414
0.0284703
0.0285176
0.0285769
0.028643
0.0287117
0.0287795
0.0288433
0.0289006
0.0289494
0.0289877
0.0290138
0.0290263
0.0290239
0.0290069
0.0289708
0.0289036
0.0285486
0.0259066
0.0254279
0.0244589
0.0240726
0.0237577
0.0236252
0.0235988
0.0236587
0.0237796
0.0239433
0.0241353
0.0243445
0.0245625
0.0247826
0.0249998
0.0252099
0.0254097
0.0255966
0.0257685
0.0259236
0.0260607
0.0261784
0.0262756
0.0263514
0.0264045
0.0264342
0.026441
0.0264215
0.02636
0.0179125
0.016349
0.016763
0.0165919
0.0169046
0.0171892
0.0175795
0.0180035
0.0184547
0.0189174
0.0193813
0.0198384
0.0202824
0.0207088
0.0211143
0.0214963
0.021853
0.0221831
0.0224854
0.0227591
0.023004
0.0232196
0.0234055
0.0235614
0.0236866
0.0237806
0.0238428
0.0238742
0.0238725
0.0238184
0.00745262
0.00694867
0.0082412
0.00883834
0.00981643
0.0106791
0.0115797
0.0124472
0.0132858
0.014087
0.014848
0.0155666
0.0162419
0.0168734
0.017461
0.0180049
0.0185056
0.0189637
0.0193796
0.0197537
0.0200871
0.0203804
0.0206341
0.0208483
0.0210231
0.0211582
0.0212534
0.02131
0.021327
0.021282
-0.00283293
-0.00229075
-0.000114466
0.0012274
0.00284224
0.00425904
0.00565081
0.0069467
0.00816151
0.00929327
0.0103453
0.0113209
0.0122237
0.0130568
0.0138237
0.0145271
0.0151698
0.0157541
0.0162821
0.0167553
0.0171761
0.0175465
0.0178677
0.0181401
0.0183644
0.0185409
0.0186696
0.018752
0.0187887
0.0187541
-0.0129512
-0.0113552
-0.00829529
-0.00623154
-0.00400743
-0.00205254
-0.000185499
0.00152211
0.00309937
0.0045504
0.00588462
0.0071102
0.00823478
0.00926525
0.0102078
0.0110677
0.0118499
0.0125586
0.0131972
0.0137682
0.014275
0.014722
0.0151104
0.0154408
0.0157145
0.0159326
0.0160951
0.0162038
0.0162611
0.0162382
-0.0229148
-0.0201988
-0.0163017
-0.0135309
-0.0107339
-0.00824839
-0.00591988
-0.00381586
-0.00188937
-0.000130775
0.00147583
0.00294332
0.00428324
0.0055057
0.00661959
0.00763265
0.00855161
0.00938229
0.0101298
0.0107972
0.0113881
0.0119115
0.0123664
0.0127544
0.0130775
0.0133372
0.0135337
0.0136688
0.0137477
0.0137376
-0.0327091
-0.0287537
-0.0241622
-0.0206642
-0.0173372
-0.0143169
-0.0115487
-0.00906315
-0.00680035
-0.00474531
-0.00287568
-0.00117415
0.000374534
0.00178356
0.00306435
0.00422684
0.00527959
0.00622991
0.0070845
0.00784673
0.00851974
0.00911958
0.00964029
0.0100853
0.0104574
0.0107585
0.0109894
0.0111508
0.0112519
0.011256
-0.0422873
-0.037118
-0.0319728
-0.0277334
-0.023752
-0.0202425
-0.0170668
-0.0142162
-0.0116321
-0.00929168
-0.00716805
-0.00523991
-0.0034886
-0.00189812
-0.000454663
0.000853719
0.00203735
0.00310486
0.00406487
0.00492013
0.00567602
0.00635153
0.00693666
0.00743798
0.00785851
0.00820063
0.00846576
0.00865366
0.00877613
0.00879751
-0.0514463
-0.0453154
-0.0395882
-0.0346524
-0.0301131
-0.0261144
-0.0225309
-0.0193174
-0.0164156
-0.0137931
-0.0114188
-0.00926715
-0.00731602
-0.0055466
-0.00394273
-0.00249047
-0.00117785
5.18517e-06
0.0010681
0.00202058
0.00286685
0.00361349
0.00426116
0.00481731
0.00528532
0.00566779
0.0059666
0.00618214
0.00632242
0.0063664
-0.0602132
-0.0533118
-0.0469736
-0.0414027
-0.0363652
-0.031908
-0.0279243
-0.0243555
-0.0211413
-0.0182418
-0.0156213
-0.0132499
-0.0111023
-0.00915678
-0.00739486
-0.0058007
-0.00436062
-0.00306303
-0.00189768
-0.000852797
7.92254e-05
0.000897346
0.00160818
0.00221961
0.00273534
0.00315836
0.00349102
0.00373439
0.0038932
0.0039564
-0.0686936
-0.061109
-0.054137
-0.0479745
-0.0424594
-0.037576
-0.0332121
-0.0293032
-0.0257875
-0.0226201
-0.0197608
-0.0171758
-0.0148367
-0.0127193
-0.0108027
-0.00906945
-0.00750416
-0.00609376
-0.00482728
-0.00369315
-0.00268153
-0.00179237
-0.00101806
-0.000351136
0.0002124
0.000676031
0.00104254
0.00131348
0.00149253
0.00156998
-0.0769616
-0.0687161
-0.0610887
-0.0543617
-0.0483868
-0.0430999
-0.0383755
-0.0341438
-0.0303404
-0.0269161
-0.0238268
-0.0210355
-0.0185108
-0.0162263
-0.0141592
-0.0122901
-0.0106025
-0.00908176
-0.00771619
-0.00649431
-0.00540586
-0.00444685
-0.00360996
-0.00288825
-0.00227744
-0.00177363
-0.0013737
-0.00107561
-0.000875577
-0.000785074
-0.0850308
-0.0761103
-0.0678376
-0.0605738
-0.0541612
-0.0484874
-0.0434181
-0.0388782
-0.0347995
-0.0311284
-0.0278176
-0.0248267
-0.022122
-0.019675
-0.0174612
-0.0154597
-0.0136524
-0.0120239
-0.0105614
-0.00925289
-0.00808811
-0.00706031
-0.00616219
-0.00538686
-0.00472967
-0.00418641
-0.00375368
-0.00342905
-0.00320824
-0.00310345
-0.0928684
-0.083281
-0.0743897
-0.0666217
-0.0597947
-0.0537504
-0.0483498
-0.0435133
-0.0391696
-0.0352605
-0.031735
-0.0285504
-0.0256706
-0.0230651
-0.0207079
-0.0185768
-0.0166524
-0.0149182
-0.0133605
-0.0119666
-0.0107259
-0.00963021
-0.00867203
-0.00784416
-0.00714151
-0.00655956
-0.0060947
-0.0057442
-0.00550312
-0.00538318
-0.100447
-0.0902266
-0.0807497
-0.07251
-0.0652916
-0.0588943
-0.0531759
-0.0480538
-0.043454
-0.0393143
-0.0355805
-0.0322072
-0.0291565
-0.0263961
-0.0238986
-0.0216402
-0.0196008
-0.0177627
-0.0161113
-0.0146334
-0.0133175
-0.012155
-0.0111377
-0.0102581
-0.00951085
-0.00889096
-0.00839461
-0.0080189
-0.00775824
-0.0076232
-0.107755
-0.0969496
-0.0869194
-0.0782385
-0.0706524
-0.0639207
-0.0578981
-0.0525009
-0.0476536
-0.0432904
-0.0393539
-0.0357967
-0.0325789
-0.0296669
-0.0270317
-0.0246484
-0.0224958
-0.0205555
-0.0188118
-0.017251
-0.0158611
-0.0146327
-0.0135571
-0.0126268
-0.0118356
-0.0111785
-0.0106513
-0.0102511
-0.00997168
-0.00982214
-0.114794
-0.103451
-0.0928969
-0.0838048
-0.0758763
-0.0688294
-0.0625158
-0.0568538
-0.0517677
-0.0471882
-0.0430548
-0.039318
-0.0359368
-0.0328761
-0.0301057
-0.0275997
-0.0253357
-0.0232946
-0.0214599
-0.0198174
-0.0183545
-0.0170611
-0.0159282
-0.0149478
-0.0141136
-0.01342
-0.0128628
-0.0124388
-0.0121415
-0.0119782
-0.121561
-0.109726
-0.0986798
-0.0892094
-0.0809668
-0.0736232
-0.0670301
-0.0611129
-0.0557968
-0.0510078
-0.0466826
-0.0427703
-0.0392292
-0.0360227
-0.0331195
-0.0304925
-0.0281187
-0.0259782