/*--------------------------------*- C++ -*----------------------------------*\
  =========                 |
  \\      /  F ield         | OpenFOAM: The Open Source CFD Toolbox
   \\    /   O peration     | Website:  https://openfoam.org
    \\  /    A nd           | Version:  7
     \\/     M anipulation  |
\*---------------------------------------------------------------------------*/
FoamFile
{
    version     2.0;
    format      ascii;
    class       surfaceScalarField;
    location    "15";
    object      phi;
}
// * * * * * * * * * * * * * * * * * * * * * * * * * * * * * * * * * * * * * //

dimensions      [0 3 -1 0 0 0 0];

internalField   nonuniform List<scalar> 
6504
(
-0.000291032
4.81056e-05
-0.000342979
5.19461e-05
-0.000399371
5.63918e-05
-0.000461136
6.17649e-05
-0.000529546
6.84092e-05
7.67164e-05
-0.000606263
-0.000281097
9.39867e-05
-0.000330307
0.000101156
-0.000383353
0.000109438
-0.000441074
0.000119486
-0.000504664
0.000131999
0.000147781
-0.000575729
-0.00026194
0.000135565
-0.000305848
0.000145064
-0.000352403
0.000155993
-0.000402263
0.000169346
-0.000456484
0.00018622
0.000207896
-0.000516599
-0.000234882
0.000171037
-0.000271248
0.00018143
-0.000308534
0.000193278
-0.000347133
0.000207945
-0.000387908
0.000226995
0.000252359
-0.000432371
-0.000201633
0.000198965
-0.00022865
0.000208447
-0.000254382
0.00021901
-0.000278857
0.00023242
-0.000302685
0.000250823
0.000277093
-0.000327419
-0.000163966
-0.000180289
0.00022477
-0.000192718
0.000231439
-0.000200785
0.000240488
-0.000204781
0.000254819
0.000278455
-0.000206143
-0.000127915
0.000229432
-0.00012573
0.000229254
-0.000115537
0.000230294
-9.73495e-05
0.000236631
0.000253918
-7.28119e-05
-7.20672e-05
-5.40855e-05
0.000211273
-2.37117e-05
0.00019992
2.03317e-05
0.000192588
0.00020053
7.37192e-05
2.3844e-05
0.000176017
7.6184e-05
0.00014758
0.000148196
0.000120575
0.000109887
0.00023884
0.00011308
0.000190596
7.0064e-05
0.000295386
1.5786e-05
-2.2712e-05
0.000427985
0.000330047
0.000473123
-0.00012729
-0.000204919
0.00065533
0.000697929
-0.000316704
-0.000444034
0.000937044
0.000985566
-0.000744998
0.00128653
0.00170483
-0.000750361
0.000144097
-0.000890032
0.000139671
-0.00103713
0.000147099
-0.00118926
0.000152128
-0.00134594
0.000156683
-0.00150521
0.00015928
-0.00166444
0.000159242
-0.00182034
0.00015591
-0.00196897
0.000148643
-0.00210586
0.000136904
-0.0022261
0.000120255
-0.00232451
9.84301e-05
-0.00239611
7.16149e-05
-0.00243591
3.98107e-05
-0.00243737
1.47973e-06
-0.00239968
-3.76825e-05
-0.0023204
-7.92814e-05
-0.00219933
-0.000121073
-0.00203885
-0.000160484
-0.00184351
-0.000195351
-0.00161974
-0.000223776
-0.00137492
-0.000244839
-0.00111641
-0.000258528
-0.000851482
-0.000264948
-0.000586107
-0.000265394
-0.000324746
-0.00026138
-7.10405e-05
-0.000253723
0.000172775
-0.000243831
0.000405323
-0.000232562
0.000625941
-0.000220629
0.000834473
-0.000208543
0.00103111
-0.000196645
0.00121628
-0.000185178
0.00139053
-0.000174257
0.00155451
-0.000163982
0.00170885
-0.00015434
0.00185425
-0.000145398
0.0019913
-0.000137047
0.00212071
-0.000129406
0.00224295
-0.000122238
0.00235879
-0.000115834
0.00246849
-0.000109697
0.00257301
-0.000104512
0.00267223
-9.92203e-05
0.00276757
-9.53315e-05
0.00285824
-9.0667e-05
0.00294653
-8.82822e-05
0.00303063
-8.40927e-05
0.00311402
-8.33881e-05
-8.02706e-05
-5.84772e-09
-0.000713601
0.000281969
-0.000846627
0.000272697
-0.000986914
0.000287386
-0.00113209
0.000297306
-0.0012816
0.000306196
-0.00143359
0.00031127
-0.00158552
0.000311172
-0.00173422
0.000304603
-0.00187587
0.000290294
-0.00200614
0.000267175
-0.00212026
0.000234379
-0.00221319
0.000191359
-0.00228002
0.000138444
-0.00231598
7.57658e-05
-0.00231471
2.14926e-07
-0.00227533
-7.70604e-05
-0.00219527
-0.00015934
-0.00207443
-0.000241918
-0.00191508
-0.000319836
-0.00172169
-0.000388737
-0.0015006
-0.000444863
-0.00125912
-0.000486319
-0.00100442
-0.000513235
-0.00074374
-0.000525625
-0.000482884
-0.00052625
-0.000226192
-0.000518072
2.28331e-05
-0.000502748
0.000261962
-0.00048296
0.000489956
-0.000460556
0.000706191
-0.000436864
0.000910544
-0.000412896
0.00110322
-0.000389323
0.00128467
-0.000366621
0.00145542
-0.000345008
0.00161612
-0.000324683
0.00176739
-0.000305611
0.00190992
-0.000287931
0.00204429
-0.000271418
0.0021712
-0.000256317
0.00229111
-0.000242143
0.00240477
-0.000229494
0.00251243
-0.00021736
0.00261504
-0.000207124
0.00271249
-0.000196667
0.00280615
-0.000188994
0.00289528
-0.000179796
0.00298208
-0.000175078
0.00306485
-0.000166864
0.00314688
-0.000165423
-0.000159372
-0.000642653
0.000408024
-0.000763015
0.000393059
-0.000890272
0.000414643
-0.00102214
0.000429179
-0.00115793
0.000441976
-0.00129596
0.000449304
-0.00143391
0.000449121
-0.00156883
0.000439526
-0.00169718
0.000418646
-0.00181489
0.000384882
-0.00191745
0.000336942
-0.00200009
0.000273994
-0.00205802
0.000196372
-0.00208666
0.000104406
-0.00208092
-5.5243e-06
-0.00203836
-0.000119619
-0.00195715
-0.00024055
-0.00183707
-0.000361993
-0.00168019
-0.000476717
-0.00149082
-0.000578109
-0.00127507
-0.000660613
-0.00104015
-0.000721245
-0.000792798
-0.000760583
-0.000540262
-0.000778161
-0.000288013
-0.000778499
-3.98866e-05
-0.000766199
0.000200037
-0.000742671
0.000430388
-0.000713311
0.000649872
-0.000680041
0.000857931
-0.000644923
0.0010545
-0.000609464
0.00123981
-0.000574636
0.00141432
-0.00054113
0.00157856
-0.000509249
0.00173317
-0.000479289
0.00187874
-0.00045118
0.00201594
-0.000425138
0.00214533
-0.000400807
0.00226759
-0.000378578
0.00238315
-0.000357696
0.00249274
-0.00033909
0.0025966
-0.000321217
0.00269565
-0.000306175
0.00278977
-0.000290788
0.0028803
-0.000279519
0.00296653
-0.000266031
0.00305053
-0.000259073
0.0031308
-0.000247139
0.00321028
-0.000244904
-0.000236256
-0.000542153
0.000517806
-0.00064505
0.000495956
-0.000754172
0.000523765
-0.00086749
0.000542496
-0.000984098
0.000558584
-0.00110263
0.000567837
-0.00122107
0.000567557
-0.00133682
0.000555275
-0.00144671
0.000528544
-0.00154707
0.000485238
-0.00163377
0.000423642
-0.00170241
0.000342636
-0.00174839
0.000242355
-0.00176758
0.000123589
-0.00175564
-1.74657e-05
-0.0017094
-0.000165853
-0.00162723
-0.000322722
-0.00150887
-0.000480355
-0.00135606
-0.000629521
-0.00117286
-0.000761314
-0.000965026
-0.000868447
-0.000739613
-0.000946657
-0.000502773
-0.000997423
-0.000261554
-0.00101938
-2.02871e-05
-0.00101977
0.000214385
-0.00100087
0.000442269
-0.000970554
0.000660738
-0.00093178
0.000868721
-0.000888024
0.00106578
-0.00084198
0.0012519
-0.00079559
0.00142736
-0.000750093
0.00159261
-0.000706377
0.00174816
-0.000664806
0.00189465
-0.000625772
0.00203262
-0.000589148
0.00216272
-0.000555244
0.00228547
-0.000523552
0.00240152
-0.000494633
0.00251126
-0.000467436
0.00261543
-0.000443253
0.00271419
-0.000419982
0.00280847
-0.000400455
0.00289813
-0.000380447
0.00298444
-0.000365826
0.00306678
-0.000348372
0.003147
-0.000339291
0.0032239
-0.000324041
0.00329993
-0.000320938
-0.000310115
-0.000417842
0.000608229
-0.000500219
0.000578333
-0.000587632
0.000611177
-0.000678649
0.000633513
-0.000772154
0.00065209
-0.000867132
0.000662815
-0.000961996
0.000662421
-0.00105463
0.000647905
-0.00114236
0.000616273
-0.00122198
0.000564859
-0.00128984
0.00049151
-0.00134202
0.000394808
-0.0013742
0.00027454
-0.00138263
0.000132016
-0.0013637
-3.63914e-05
-0.00131372
-0.000215837
-0.00123113
-0.000405307
-0.00111562
-0.000595864
-0.000968561
-0.000776583
-0.000793598
-0.000936277
-0.000596004
-0.00106604
-0.00038269
-0.00115997
-0.000158586
-0.00122153
6.84275e-05
-0.00124639
0.000293421
-0.00124476
0.000514346
-0.0012218
0.000727843
-0.00118405
0.000932294
-0.00113623
0.00112684
-0.00108257
0.00131112
-0.00102626
0.00148519
-0.00096966
0.00164932
-0.000914225
0.00180396
-0.00086102
0.00194961
-0.000810449
0.00208683
-0.000762997
0.00221615
-0.000718466
0.00233818
-0.000677276
0.00245337
-0.000638743
0.00256237
-0.000603632
0.0026655
-0.000570563
0.00276348
-0.00054123
0.00285644
-0.000512941
0.00294527
-0.000489287
0.00302983
-0.000465007
0.0031113
-0.000447304
0.00318918
-0.000426247
0.00326506
-0.000415171
0.00333807
-0.000397047
0.00341013
-0.000393005
-0.000380449
-0.000275273
0.000677358
-0.000336289
0.00063935
-0.000400224
0.000675112
-0.000466954
0.000700243
-0.00053517
0.000720306
-0.000604228
0.000731872
-0.000673096
0.00073129
-0.00074023
0.000715039
-0.00080356
0.000679603
-0.000860451
0.00062175
-0.000907792
0.00053885
-0.00094213
0.000429146
-0.000959596
0.000292006
-0.000956699
0.000129119
-0.000930456
-6.26337e-05
-0.000876891
-0.000269403
-0.000794427
-0.000487771
-0.000682704
-0.000707587
-0.000542762
-0.000916525
-0.00037764
-0.0011014
-0.000191659
-0.00125202
9.83646e-06
-0.00136147
0.000214615
-0.00142631
0.000424565
-0.00145634
0.000633603
-0.0014538
0.00083815
-0.00142634
0.00103571
-0.00138161
0.00122487
-0.0013254
0.00140491
-0.00126261
0.00157556
-0.00119691
0.00173686
-0.00113097
0.00188909
-0.00106645
0.00203266
-0.00100459
0.002168
-0.000945788
0.00229564
-0.00089064
0.00241603
-0.000838857
0.00252975
-0.000790994
0.00263718
-0.000746168
0.00273893
-0.000705383
0.00283527
-0.000666899
0.00292689
-0.000632854
0.00301389
-0.000599938
0.00309712
-0.000572518
0.00317643
-0.000544322
0.00325293
-0.000523803
0.0033262
-0.000499514
0.00339759
-0.000486566
0.00346655
-0.000466005
0.00353451
-0.000460966
-0.000447077
-0.000117864
0.000722411
-0.000159958
0.000681444
-0.000200468
0.000715623
-0.000242734
0.000742508
-0.00028532
0.000762893
-0.000327849
0.000774401
-0.000369943
0.000773383
-0.000410729
0.000755825
-0.000448826
0.0007177
-0.000482235
0.000655158
-0.000508416
0.000565031
-0.000524427
0.000445158
-0.000526843
0.000294421
-0.000512448
0.000114725
-0.0004787
-9.63815e-05
-0.000421581
-0.000326523
-0.000339321
-0.00057003
-0.000231496
-0.000815412
-9.85387e-05
-0.00104948
5.54096e-05
-0.00125535
0.000224464
-0.00142108
0.000406403
-0.00154341
0.000596806
-0.00161671
0.000789345
-0.00164888
0.000980513
-0.00164497
0.00116749
-0.00161332
0.0013482
-0.00156231
0.00152143
-0.00149863
0.00168658
-0.00142775
0.00184337
-0.0013537
0.00199187
-0.00127946
0.00213227
-0.00120686
0.00226493
-0.00113725
0.0023902
-0.00107106
0.00250853
-0.00100898
0.0026203
-0.000950627
0.00272603
-0.000896716
0.00282601
-0.000846152
0.00292083
-0.000800207
0.0030107
-0.000756762
0.00309627
-0.000718428
0.0031776
-0.000681266
0.0032555
-0.000650423
0.00332983
-0.000618652
0.0034016
-0.000595566
0.00347047
-0.000568392
0.0035376
-0.000553693
0.00360268
-0.000531082
0.00366673
-0.000525014
-0.000510111
5.21715e-05
0.000743958
2.34673e-05
0.000710148
5.9952e-06
0.000733095
-1.39402e-05
0.000762443
-3.2292e-05
0.000781245
-4.94012e-05
0.00079151
-6.54989e-05
0.000789481
-8.04613e-05
0.000770788
-9.36504e-05
0.000730889
-0.000103787
0.000665295
-0.000108982
0.000570226
-0.000106811
0.000442987
-9.41128e-05
0.000281723
-6.78395e-05
8.84514e-05
-2.54489e-05
-0.000138772
3.52599e-05
-0.000387231
0.000115963
-0.000650733
0.000217987
-0.000917436
0.000340355
-0.00117185
0.000480965
-0.00139596
0.000636672
-0.00157678
0.000802148
-0.00170888
0.000973998
-0.00178856
0.00114755
-0.00182243
0.00131982
-0.00181723
0.00148851
-0.00178201
0.00165195
-0.00172575
0.0018091
-0.00165578
0.0019594
-0.00157806
0.0021026
-0.0014969
0.00223868
-0.00141554
0.00236776
-0.00133593
0.00249008
-0.00125957
0.0026059
-0.00118688
0.00271559
-0.00111866
0.0028194
-0.00105444
0.0029178
-0.000995112
0.00301101
-0.000939359
0.00309955
-0.000888754
0.00318358
-0.000840787
0.00326372
-0.000798565
0.00333997
-0.000757518
0.00341311
-0.000723568
0.003483
-0.000688539
0.00355055
-0.000663115
0.00361552
-0.000633362
0.00367886
-0.000617031
0.00374046
-0.000592683
0.00380104
-0.000585596
-0.000569893
0.000229831
0.000752967
0.000219275
0.000720704
0.000217496
0.000734874
0.000217025
0.000762915
0.000219598
0.000778671
0.000225097
0.000786011
0.000232581
0.000781997
0.000241419
0.000761949
0.000251472
0.000720836
0.000263309
0.000653458
0.000278198
0.000555337
0.000297948
0.000423238
0.000325107
0.000254564
0.000362216
5.1343e-05
0.000410938
-0.000187495
0.000474969
-0.000451263
0.000555782
-0.000731546
0.000653468
-0.00101512
0.000767203
-0.00128558
0.000895262
-0.00152402
0.001035
-0.00171652
0.0011824
-0.00185629
0.00133468
-0.00194084
0.0014884
-0.00197615
0.00164123
-0.00197006
0.0017914
-0.00193218
0.00193758
-0.00187193
0.0020789
-0.00179711
0.00221483
-0.00171398
0.00234502
-0.0016271
0.00246938
-0.0015399
0.00258789
-0.00145444
0.0027007
-0.00137238
0.00280791
-0.00129409
0.0029098
-0.00122055
0.00300651
-0.00115116
0.00309843
-0.00108703
0.00318569
-0.00102662
0.00326878
-0.000971838
0.00334776
-0.00091977
0.00342323
-0.000874037
0.00349516
-0.000829445
0.00356427
-0.00079268
0.00363041
-0.000754679
0.00369442
-0.00072713
0.00375612
-0.000695054
0.00381631
-0.000677221
0.00387499
-0.000651364
0.0039327
-0.000643312
-0.000626928
0.000428789
0.000752163
0.000427245
0.000722247
0.000437284
0.000724835
0.000451276
0.000748922
0.000470406
0.000759542
0.000494433
0.000761983
0.000521872
0.000754558
0.000551372
0.000732449
0.000582026
0.000690183
0.000613677
0.000621806
0.000646944
0.00052207
0.000683048
0.000387134
0.000724193
0.000213418
0.000772202
3.33416e-06
0.000828448
-0.000243741
0.000895982
-0.000518797
0.000976019
-0.000811583
0.00106857
-0.00110767
0.00117277
-0.00138979
0.00128729
-0.00163853
0.00141012
-0.00183935
0.00153857
-0.00198474
0.00167069
-0.00207296
0.00180425
-0.00210971
0.00193762
-0.00210343
0.00206953
-0.00206409
0.00219895
-0.00200136
0.00232512
-0.00192327
0.00244744
-0.0018363
0.0025655
-0.00174516
0.00267906
-0.00165346
0.00278796
-0.00156334
0.00289219
-0.00147661
0.00299175
-0.00139365
0.00308677
-0.00131557
0.0031773
-0.0012417
0.00326364
-0.00117336
0.00334584
-0.00110882
0.00342432
-0.00105032
0.0034991
-0.000994554
0.00357073
-0.000945662
0.00363913
-0.000897845
0.00370499
-0.000858537
0.00376813
-0.000817824
0.00382935
-0.000788352
0.00388846
-0.000754162
0.00394621
-0.000734973
0.0040026
-0.00070775
0.00405813
-0.000698837
-0.000681804
0.000656814
0.00075068
0.000657838
0.000721223
0.000673737
0.000708936
0.000696646
0.000726014
0.000726863
0.000729326
0.000764115
0.000724731
0.00080658
0.000712093
0.000852313
0.000686716
0.000899715
0.000642781
0.000947953
0.000573569
0.000996986
0.000473037
0.0010474
0.000336723
0.00110088
0.000159937
0.00115889
-5.4678e-05
0.00122172
-0.000306571
0.00129212
-0.000589197
0.00137062
-0.00089008
0.00145701
-0.00119406
0.00155058
-0.00148336
0.00165046
-0.0017384
0.00175554
-0.00194444
0.00186445
-0.00209364
0.00197626
-0.00218478
0.00208986
-0.00222331
0.0022043
-0.00221787
0.00231874
-0.00217853
0.00243236
-0.00211498
0.00254441
-0.00203532
0.00265424
-0.00194613
0.00276128
-0.0018522
0.00286512
-0.0017573
0.00296546
-0.00166368
0.00306215
-0.0015733
0.00315504
-0.00148654
0.00324414
-0.00140467
0.00332943
-0.00132698
0.00341107
-0.001255
0.00348908
-0.00118683
0.00356379
-0.00112503
0.0036352
-0.00106596
0.00370377
-0.00101424
0.00376943
-0.000963498
0.00383279
-0.000921901
0.00389368
-0.00087871
0.00395284
-0.000847515
0.00401005
-0.000811374
0.00406608
-0.000791
0.00412081
-0.000762479
0.00417483
-0.000752858
-0.000735139
0.000925439
0.000762285
0.000923489
0.000723173
0.000939637
0.000692788
0.00096581
0.000699841
0.00100119
0.000693948
0.00104555
0.000680371
0.00109703
0.000660607
0.00115334
0.000630412
0.00121232
0.000583802
0.00127256
0.000513323
0.00133339
0.00041221
0.00139469
0.000275421
0.00145786
9.67676e-05
0.00152305
-0.000119867
0.00159028
-0.000373801
0.00166134
-0.000660257
0.0017363
-0.000965042
0.00181464
-0.0012724
0.00189575
-0.00156448
0.00197957
-0.00182222
0.00206605
-0.00203092
0.00215514
-0.00218274
0.00224699
-0.00227663
0.00234141
-0.00231773
0.00243804
-0.00231449
0.00253632
-0.00227681
0.00263555
-0.0022142
0.00273492
-0.0021347
0.00283366
-0.00204487
0.002931
-0.00194955
0.00302638
-0.00185268
0.00311934
-0.00175663
0.00320957
-0.00166353
0.00329681
-0.00157378
0.00338096
-0.00148883
0.00346189
-0.00140791
0.00353971
-0.00133282
0.00361435
-0.00126148
0.0036861
-0.00119678
0.0037549
-0.00113476
0.00382118
-0.00108051
0.00388481
-0.00102714
0.0039464
-0.000983485
0.00400572
-0.000938035
0.00406352
-0.000905308
0.00411949
-0.000867348
0.00417446
-0.000845974
0.00422815
-0.000816164
0.00428133
-0.000806037
-0.00078754
0.00124633
0.000802489
0.00123787
0.000731626
0.00125011
0.000680556
0.00127461
0.000675335
0.00130928
0.000659276
0.00135418
0.000635478
0.00140781
0.000606977
0.00146784
0.00057038
0.00153181
0.00051983
0.00159788
0.000447249
0.00166474
0.000345356
0.00173182
0.000208344
0.00179968
2.89025e-05
0.00186791
-0.000188094
0.00193502
-0.00044091
0.0020025
-0.000727736
0.00206997
-0.00103251
0.00213685
-0.00133928
0.00220291
-0.00163054
0.0022689
-0.00188821
0.00233603
-0.00209806
0.00240548
-0.00225219
0.00247832
-0.00234946
0.00255506
-0.00239447
0.00263568
-0.00239512
0.00271977
-0.0023609
0.00280659
-0.00230102
0.00289519
-0.00222331
0.00298461
-0.00213429
0.00307391
-0.00203884
0.00316231
-0.00194108
0.00324921
-0.00184353
0.00333418
-0.0017485
0.00341687
-0.00165646
0.00349706
-0.00156903
0.00357457
-0.00148542
0.00364941
-0.00140766
0.0037215
-0.00133357
0.00379104
-0.00126632
0.00385796
-0.00120169
0.00392263
-0.00114518
0.00398494
-0.00108944
0.0040454
-0.00104395
0.00410381
-0.000996443
0.00416086
-0.000962359
0.00421621
-0.000922696
0.00427074
-0.00090051
0.00432395
-0.000869374
0.00437692
-0.000859008
-0.000839573
0.0016318
0.000875521
0.0016197
0.000743728
0.00162511
0.000675143
0.00164253
0.000657914
0.0016698
0.000632003
0.00170759
0.000597693
0.00175518
0.000559385
0.00181059
0.000514971
0.00187128
0.000459139
0.00193516
0.000383374
0.00200028
0.000280232
0.00206533
0.000143291
0.00213119
-3.69569e-05
0.00219533
-0.000252233
0.00225582
-0.000501401
0.00231374
-0.00078565
0.0023686
-0.00108737
0.00242008
-0.00139077
0.00246859
-0.00167905
0.00251563
-0.00193524
0.00256346
-0.00214589
0.00261434
-0.00230306
0.00266996
-0.00240508
0.00273119
-0.0024557
0.00279813
-0.00246206
0.00287032
-0.00243308
0.00294687
-0.00237757
0.00302667
-0.00230311
0.00310854
-0.00221615
0.00319133
-0.00212164
0.00327413
-0.00202387
0.00335619
-0.00192559
0.00343699
-0.00182931
0.0035161
-0.00173557
0.00359323
-0.00164615
0.00366813
-0.00156032
0.00374076
-0.00148029
0.00381101
-0.00140382
0.00387903
-0.00133434
0.00394474
-0.0012674
0.00400844
-0.00120889
0.00407003
-0.00115103
0.00412997
-0.00110389
0.00418804
-0.00105451
0.00424494
-0.00101926
0.00430019
-0.000977953
0.00435489
-0.000955204
0.00440809
-0.000922579
0.0044615
-0.000912415
-0.000891733
0.00212287
0.000920959
0.00211276
0.00075384
0.00210153
0.000686373
0.00210025
0.000659195
0.00210877
0.000623488
0.00212776
0.000578701
0.00215746
0.000529686
0.00219644
0.00047599
0.00224237
0.000413208
0.00229303
0.000332712
0.002346
0.00022726
0.00239961
8.96838e-05
0.0024561
-9.345e-05
0.00250678
-0.000302909
0.00255462
-0.000549241
0.00259823
-0.000829261
0.00263736
-0.0011265
0.00267197
-0.00142537
0.00270284
-0.00170992
0.00273191
-0.00196432
0.00276175
-0.00217573
0.00279497
-0.00233628
0.00283377
-0.00244388
0.00287959
-0.00250152
0.00293306
-0.00251553
0.0029937
-0.00249372
0.00306042
-0.00244429
0.00313188
-0.00237457
0.00320671
-0.00229098
0.00328359
-0.00219852
0.00336143
-0.00210171
0.00343938
-0.00200355
0.0035168
-0.00190673
0.00359316
-0.00181192
0.00366807
-0.00172106
0.00374124
-0.00163349
0.00381251
-0.00155156
0.00388183
-0.00147313
0.00394913
-0.00140164
0.00401451
-0.00133278
0.00407796
-0.00127233
0.00413973
-0.0012128
0.00419972
-0.00116388
0.00425843
-0.00111322
0.00431552
-0.00107635
0.00437183
-0.00103427
0.00442665
-0.00101002
0.00448131
-0.000977237
0.00453454
-0.000965646
-0.000945184
0.0305978
0.00170505
0.029781
0.0015706
0.0290603
0.00140711
0.0284697
0.00124978
0.0279903
0.00110295
0.0276063
0.00096261
0.0273136
0.000822424
0.0271122
0.000677346
0.027001
0.000524506
0.0269743
0.000359408
0.0270234
0.000178073
0.0271286
-1.55002e-05
0.0272679
-0.0002327
0.0274312
-0.000466186
0.0275947
-0.000712752
0.0277323
-0.000966862
0.0278274
-0.00122161
0.0278706
-0.0014686
0.0278597
-0.00169899
0.0277997
-0.00190436
0.027702
-0.00207798
0.0275815
-0.00221578
0.0274541
-0.00231652
0.0273338
-0.00238127
0.0272314
-0.00241312
0.0271538
-0.00241612
0.0271045
-0.00239491
0.0270838
-0.00235387
0.0270897
-0.00229691
0.0271184
-0.00222728
0.0271677
-0.00215096
0.0272348
-0.00207065
0.0273163
-0.00198826
0.0274093
-0.00190495
0.027511
-0.00182275
0.0276194
-0.00174186
0.027732
-0.00166419
0.0278479
-0.00158897
0.0279648
-0.00151857
0.028083
-0.00145097
0.0282002
-0.00138954
0.0283179
-0.00133047
0.0284331
-0.00127911
0.0285488
-0.00122889
0.0286609
-0.00118848
0.0287738
-0.00114716
0.0288823
-0.00111855
0.0289913
-0.00108626
0.0290964
-0.00107075
-0.00105127
0.0348497
0.00171903
0.0348785
0.00154176
0.0348798
0.00140588
0.0348614
0.00126812
0.0348388
0.00112561
0.0348212
0.000980149
0.0348118
0.000831861
0.0348102
0.000678962
0.0348149
0.000519794
0.0348213
0.000353033
0.0348204
0.000178896
0.034801
3.94124e-06
0.0347854
-0.000217086
0.0347496
-0.000430385
0.0346824
-0.000645613
0.0345766
-0.000861056
0.0344253
-0.00107025
0.0342273
-0.0012706
0.033988
-0.00145967
0.0337143
-0.00163068
0.0334156
-0.00177927
0.0331022
-0.00190244
0.0327842
-0.00199849
0.0324702
-0.00206728
0.0321673
-0.00211018
0.0318806
-0.00212943
0.0316136
-0.00212794
0.0313684
-0.00210869
0.0311465
-0.00207495
0.0309489
-0.00202974
0.0307743
-0.00197633
0.0306207
-0.00191704
0.0304865
-0.00185403
0.03037
-0.00178849
0.0302695
-0.00172223
0.0301835
-0.0016559
0.0301105
-0.00159119
0.0300496
-0.00152804
0.0299992
-0.00146815
0.0299588
-0.0014106
0.0299268
-0.0013575
0.029903
-0.00130673
0.0298857
-0.00126173
0.0298751
-0.00121832
0.0298692
-0.00118256
0.0298687
-0.00114664
0.0298714
-0.00112127
0.0298776
-0.00109252
0.0298855
-0.00107866
-0.00105309
0.035122
0.00155222
0.0352475
0.00141627
0.035366
0.00128732
0.0354779
0.00115623
0.0355798
0.00102369
0.0356682
0.000891801
0.0357439
0.00075613
0.0358093
0.00061364
0.0358648
0.000464272
0.0359104
0.000307415
0.0359476
0.000141666
0.0359829
-3.13581e-05
0.0359621
-0.000196262
0.0359016
-0.000369874
0.0358013
-0.000545374
0.0356589
-0.000718569
0.0354751
-0.000886487
0.0352512
-0.00104672
0.0349886
-0.00119702
0.0346927
-0.00133477
0.0343715
-0.00145813
0.0340333
-0.00156426
0.0336842
-0.00164936
0.0333313
-0.00171433
0.0329814
-0.00176029
0.0326405
-0.00178854
0.0323134
-0.00180089
0.032004
-0.00179928
0.031715
-0.00178597
0.0314482
-0.00176287
0.0312039
-0.00173207
0.030982
-0.00169511
0.0307819
-0.00165392
0.0306028
-0.00160945
0.0304439
-0.00156331
0.0303039
-0.00151594
0.0301816
-0.00146889
0.0300756
-0.00142204
0.0299845
-0.00137701
0.0299069
-0.00133298
0.0298414
-0.00129202
0.0297869
-0.00125221
0.029742
-0.00121685
0.0297057
-0.00118204
0.0296767
-0.00115356
0.0296539
-0.00112388
0.0296361
-0.00110339
0.0296219
-0.00107832
0.02961
-0.00106679
-0.00104403
0.0344491
0.00136937
0.0346152
0.00125019
0.0347706
0.00113192
0.0349117
0.00101512
0.0350383
0.000897088
0.0351534
0.00077665
0.0352569
0.000652683
0.0353462
0.000524273
0.0354207
0.000389812
0.035475
0.00025314
0.0355006
0.000116056
0.0354909
-2.16616e-05
0.0354611
-0.000166472
0.0353997
-0.000308483
0.035303
-0.000448658
0.0351724
-0.000587992
0.0350096
-0.000723735
0.0348163
-0.000853412
0.0345947
-0.000975337
0.0343477
-0.00108786
0.0340789
-0.00118927
0.0337926
-0.00127798
0.0334961
-0.00135281
0.0331952
-0.00141351
0.0328955
-0.00146059
0.0326018
-0.00149481
0.0323182
-0.00151723
0.0320477
-0.00152883
0.0317927
-0.00153097
0.0315546
-0.00152472
0.031334
-0.00151155
0.0311314
-0.00149245
0.0309464
-0.00146892
0.0307786
-0.00144162
0.0306272
-0.00141192
0.0304913
-0.00138009
0.03037
-0.00134754
0.030262
-0.0013141
0.0301664
-0.00128136
0.030082
-0.00124855
0.0300077
-0.00121774
0.0299426
-0.00118708
0.0298855
-0.00115984
0.0298357
-0.00113215
0.0297919
-0.00110979
0.0297531
-0.00108511
0.0297185
-0.00106873
0.0296866
-0.00104644
0.0296573
-0.00103748
-0.00101959
0.0337909
0.00117649
0.033958
0.00108309
0.0341086
0.000981351
0.0342451
0.000878631
0.0343674
0.000774811
0.034475
0.000669041
0.0345669
0.000560735
0.0346414
0.000449828
0.0346945
0.000336712
0.034726
0.000221622
0.0347381
0.000103929
0.0347332
-1.67143e-05
0.0347004
-0.000133745
0.0346435
-0.000251582
0.0345631
-0.00036824
0.0344577
-0.000482625
0.0343276
-0.000593588
0.034174
-0.000699782
0.0339985
-0.000799898
0.0338035
-0.000892793
0.0335917
-0.000977481
0.0333669
-0.00105319
0.0331334
-0.00111938
0.0328956
-0.00117569
0.0326572
-0.00122213
0.0324213
-0.00125896
0.0321909
-0.00128678
0.0319682
-0.00130614
0.031755
-0.00131778
0.0315526
-0.00132232
0.0313618
-0.0013208
0.0311832
-0.00131384
0.0310169
-0.00130258
0.0308627
-0.00128743
0.0307203
-0.00126958
0.0305894
-0.00124918
0.0304694
-0.00122751
0.0303597
-0.0012044
0.0302596
-0.0011813
0.0301686
-0.00115754
0.0300858
-0.00113496
0.0300107
-0.001112
0.0299424
-0.00109148
0.0298803
-0.00107007
0.0298234
-0.00105284
0.0297713
-0.00103305
0.0297228
-0.00102025
0.029678
-0.00100159
0.0296348
-0.000994313
-0.000972583
0.0332065
0.00100669
0.0333593
0.000930302
0.0334955
0.000845222
0.0336168
0.000757306
0.0337237
0.00066789
0.0338157
0.000577056
0.033892
0.000484455
0.033952
0.000389803
0.0339957
0.000292994
0.0340232
0.000194163
0.0340335
9.36398e-05
0.0340247
-7.96615e-06
0.0339973
-0.000106316
0.0339506
-0.000204866
0.0338845
-0.000302143
0.033799
-0.000397197
0.0336947
-0.000489202
0.0335722
-0.000577357
0.0334332
-0.000660862
0.0332794
-0.000738963
0.0331129
-0.000811054
0.0329364
-0.000876672
0.0327525
-0.000935501
0.032564
-0.000987096
0.0323731
-0.00103125
0.0321821
-0.00106802
0.0319931
-0.00109775
0.0318077
-0.00112073
0.0316274
-0.00113749
0.0314535
-0.00114839
0.0312868
-0.00115418
0.0311282
-0.0011552
0.030978
-0.00115235
0.0308364
-0.00114584
0.0307035
-0.0011367
0.0305793
-0.00112495
0.0304635
-0.00111172
0.0303559
-0.00109679
0.0302561
-0.00108148
0.0301637
-0.00106512
0.0300781
-0.00104941
0.029999
-0.00103287
0.0299256
-0.0010181
0.0298575
-0.00100198
0.0297938
-0.000989198
0.0297341
-0.00097335
0.0296773
-0.000963416
0.0296227
-0.000946999
0.0295694
-0.000940979
-0.000924987
0.0326861
0.000859605
0.0328206
0.000795821
0.0329408
0.000725053
0.0330467
0.00065137
0.0331389
0.000575668
0.0332178
0.000498211
0.0332833
0.000418943
0.0333353
0.000337814
0.0333733
0.00025497
0.0333967
0.000170761
0.0334048
8.5603e-05
0.0333976
-7.80595e-07
0.0333747
-8.3423e-05
0.0333362
-0.000166423
0.0332823
-0.000248187
0.0332131
-0.000328051
0.0331293
-0.000405423
0.0330317
-0.000479733
0.0329213
-0.000550437
0.0327994
-0.000617037
0.0326674
-0.000679116
0.0325271
-0.000736311
0.0323799
-0.000788342
0.0322277
-0.000834919
0.0320724
-0.000875878
0.0319155
-0.000911155
0.0317587
-0.000940964
0.0316034
-0.000965436
0.0314509
-0.000984953
0.0313022
-0.000999681
0.0311582
-0.00101016
0.0310195
-0.00101652
0.0308866
-0.00101949
0.0307599
-0.00101911
0.0306395
-0.00101627
0.0305254
-0.00101089
0.0304177
-0.00100398
0.0303162
-0.000995274
0.0302206
-0.000985955
0.0301309
-0.00097539
0.0300466
-0.000965073
0.0299674
-0.000953679
0.0298927
-0.000943462
0.0298224
-0.000931649
0.0297556
-0.000922358
0.0296921
-0.00090989
0.0296311
-0.000902379
0.0295727
-0.000888624
0.0295159
-0.000884157
-0.000867199
0.0322272
0.000734231
0.0323421
0.000681009
0.0324453
0.000621803
0.0325369
0.000559754
0.032617
0.000495598
0.0326856
0.00042962
0.0327426
0.000361938
0.0327877
0.000292689
0.0328206
0.000222113
0.0328408
0.000150537
0.0328481
7.82798e-05
0.0328421
5.21333e-06
0.0328239
-6.52261e-05
0.0327931
-0.000135564
0.0327497
-0.000204844
0.0326942
-0.000272559
0.0326271
-0.000338257
0.0325489
-0.000401515
0.0324604
-0.000461948
0.0323625
-0.000519201
0.0322564
-0.000572968
0.032143
-0.000622971
0.0320237
-0.000668999
0.0318996
-0.000710856
0.0317722
-0.000748452
0.0316427
-0.000781685
0.0315124
-0.00081066
0.0313824
-0.000835399
0.0312536
-0.00085615
0.0311269
-0.000872949
0.0310029
-0.00088619
0.0308823
-0.000895891
0.0307654
-0.000902623
0.0306526
-0.000906359
0.0305442
-0.000907851
0.0304403
-0.000906967
0.0303409
-0.00090462
0.0302462
-0.000900498
0.0301559
-0.00089567
0.03007
-0.000889516
0.0299883
-0.000883349
0.0299106
-0.000875961
0.0298364
-0.00086929
0.0297656
-0.000860899
0.0296976
-0.000854363
0.0296324
-0.000844651
0.029569
-0.000838957
0.0295075
-0.000827158
0.0294466
-0.000823273
-0.000808402
0.0318194
0.000628281
0.0319171
0.000583289
0.0320055
0.000533364
0.0320844
0.000480907
0.0321535
0.000426486
0.0322127
0.000370373
0.0322619
0.000312735
0.0323009
0.000253742
0.0323294
0.000193617
0.0323473
0.000132636
0.0323545
7.10664e-05
0.0323508
8.91591e-06
0.0323368
-5.12713e-05
0.0323125
-0.000111194
0.0322779
-0.000170262
0.0322334
-0.000228046
0.0321793
-0.000284204
0.0321162
-0.000338425
0.0320447
-0.000390421
0.0319654
-0.000439927
0.0318792
-0.00048672
0.0317868
-0.000530597
0.0316892
-0.000571408
0.0315874
-0.000609006
0.0314823
-0.000643328
0.0313748
-0.000674268
0.031266
-0.000701847
0.0311566
-0.000726009
0.0310474
-0.000746917
0.030939
-0.000764531
0.0308319
-0.000779154
0.0307268
-0.000790738
0.0306239
-0.000799766
0.0305237
-0.000806149
0.0304264
-0.000810556
0.0303323
-0.0008128
0.0302414
-0.000813713
0.0301538
-0.000812942
0.0300696
-0.000811451
0.0299887
-0.00080862
0.0299109
-0.000805605
0.0298363
-0.000801289
0.0297643
-0.000797353
0.0296951
-0.000791629
0.0296279
-0.000787233
0.029563
-0.000779695
0.0294995
-0.000775437
0.0294377
-0.000765352
0.0293767
-0.000762345
-0.00074909
0.0314576
0.000538649
0.0315405
0.000500344
0.0316159
0.000457995
0.0316833
0.000413461
0.0317426
0.000367188
0.0317936
0.000319403
0.0318361
0.00027025
0.03187
0.000219889
0.031895
0.000168525
0.0319113
0.000116413
0.0319185
6.38162e-05
0.0319166
1.08139e-05
0.0319062
-4.08005e-05
0.031887
-9.20728e-05
0.0318594
-0.000142666
0.0318236
-0.000192232
0.0317799
-0.000240498
0.0317287
-0.000287224
0.0316705