/*--------------------------------*- C++ -*----------------------------------*\
  =========                 |
  \\      /  F ield         | OpenFOAM: The Open Source CFD Toolbox
   \\    /   O peration     | Website:  https://openfoam.org
    \\  /    A nd           | Version:  7
     \\/     M anipulation  |
\*---------------------------------------------------------------------------*/
FoamFile
{
    version     2.0;
    format      ascii;
    class       volVectorField;
    location    "15";
    object      U;
}
// * * * * * * * * * * * * * * * * * * * * * * * * * * * * * * * * * * * * * //

dimensions      [0 1 -1 0 0 0 0];

internalField   nonuniform List<vector> 
3313
(
(-0.0661985 0.00501919 -1.8448e-20)
(-0.0749827 0.00498408 -3.67093e-20)
(-0.0837391 0.00499347 1.97438e-20)
(-0.0925637 0.0050747 -5.59127e-22)
(-0.10159 0.00524999 -2.40365e-20)
(-0.1111 0.00553629 2.47318e-20)
(-0.0652459 0.0148648 2.09881e-20)
(-0.0735602 0.0147435 8.10748e-20)
(-0.081779 0.014755 -4.45152e-20)
(-0.0899955 0.0149839 -2.06135e-20)
(-0.0983327 0.0155 1.68557e-20)
(-0.107103 0.0163542 1.36185e-20)
(-0.0633974 0.0241386 -1.68892e-19)
(-0.070788 0.0238827 1.60806e-20)
(-0.0779491 0.0238457 -1.21848e-19)
(-0.0849688 0.024177 2.25567e-19)
(-0.0919511 0.0250054 -3.25554e-20)
(-0.0992714 0.0264178 2.47165e-21)
(-0.0607498 0.0324851 4.45439e-20)
(-0.0667927 0.0320126 5.07063e-20)
(-0.0724072 0.03184 -8.54502e-20)
(-0.0776758 0.0321952 1.1113e-19)
(-0.0826763 0.0332877 -2.37683e-20)
(-0.0878794 0.0352538 9.39535e-20)
(-0.0574082 0.0395908 -6.33256e-20)
(-0.0617155 0.0387858 6.3108e-20)
(-0.0653319 0.03835 -6.5023e-20)
(-0.068335 0.0386103 -2.58494e-19)
(-0.0707695 0.0398928 1.26819e-21)
(-0.0732209 0.042419 1.85105e-19)
(-0.0534335 0.0452074 2.16543e-20)
(-0.0556489 0.0439239 -2.73144e-19)
(-0.0568473 0.0430562 2.37279e-19)
(-0.0571042 0.0430545 -2.25921e-19)
(-0.0564259 0.0444147 2.93691e-19)
(-0.0554754 0.0475163 -1.58607e-19)
(-0.048544 0.0472545 3.96657e-19)
(-0.0469084 0.0457538 -2.39841e-19)
(-0.0439378 0.0452733 5.0345e-19)
(-0.0396231 0.0465603 -5.63512e-19)
(-0.0345754 0.0503187 -1.63504e-19)
(-0.0400873 0.0487494 -4.76763e-19)
(-0.0351432 0.0464006 6.05676e-19)
(-0.0283625 0.0451662 -4.36037e-19)
(-0.019747 0.0461428 4.13018e-19)
(-0.00992451 0.050781 -4.26873e-19)
(-0.0207282 0.0451913 2.77145e-19)
(-0.00940531 0.0429248 -1.10544e-19)
(0.00458683 0.0433412 -1.43282e-19)
(0.0202265 0.0488238 -8.79514e-21)
(-0.00216271 0.0426445 -2.72211e-19)
(0.0147116 0.0391907 2.10533e-19)
(0.0352727 0.0387236 -2.79614e-20)
(0.058483 0.0448337 -2.07428e-19)
(0.0466303 0.0350348 -2.91221e-19)
(0.0753375 0.0335239 7.94896e-20)
(0.108495 0.0402945 -4.40601e-19)
(0.128555 0.0296454 -4.01738e-19)
(0.174601 0.0376002 2.74175e-19)
(0.198611 0.0293723 -3.68403e-19)
(0.260089 0.0402356 8.0771e-19)
(0.3642 0.0520757 -1.42216e-19)
(-0.129371 0.00618092 -1.16384e-20)
(-0.157462 0.00602319 4.32344e-21)
(-0.184643 0.00636541 5.55119e-22)
(-0.214178 0.00660381 5.31868e-21)
(-0.244318 0.0068241 -1.2346e-20)
(-0.275531 0.0069587 9.75477e-21)
(-0.307056 0.00697856 -9.94226e-22)
(-0.338456 0.00685359 5.67968e-21)
(-0.36896 0.00655487 -4.27237e-21)
(-0.397762 0.00605764 -2.76837e-21)
(-0.423903 0.00534137 2.86265e-21)
(-0.446377 0.00439228 7.72138e-22)
(-0.464188 0.0032125 -1.48173e-21)
(-0.476279 0.0018382 -7.81681e-22)
(-0.48135 0.000271724 2.45521e-21)
(-0.478761 -0.00148105 2.08302e-21)
(-0.468124 -0.00330277 3.84532e-22)
(-0.449051 -0.00512301 -4.09386e-21)
(-0.421776 -0.00683208 6.19849e-21)
(-0.386941 -0.0083376 -2.44631e-21)
(-0.345663 -0.00955848 -5.27064e-22)
(-0.299284 -0.0104575 -1.20646e-21)
(-0.249282 -0.0110349 1.92174e-21)
(-0.197098 -0.0112998 -3.04474e-21)
(-0.144072 -0.0113086 2.44974e-21)
(-0.0912344 -0.0111277 4.03562e-24)
(-0.0393813 -0.0107966 4.05979e-22)
(0.0108702 -0.0103707 -6.66431e-22)
(0.0591569 -0.00988964 9.19179e-23)
(0.105277 -0.00938348 -7.83326e-24)
(0.149132 -0.00887357 -1.55635e-22)
(0.190721 -0.00837412 2.25155e-22)
(0.230088 -0.007895 -8.03726e-23)
(0.267338 -0.0074407 -3.28946e-22)
(0.30255 -0.00701514 3.75082e-22)
(0.335904 -0.00661746 -1.35405e-22)
(0.36742 -0.00625015 -1.72746e-22)
(0.397401 -0.00590856 2.6256e-22)
(0.425669 -0.00559731 -1.65103e-22)
(0.452835 -0.00530651 -1.09796e-23)
(0.478209 -0.00504779 7.81522e-23)
(0.503188 -0.00480071 -1.58046e-22)
(0.525831 -0.00459305 4.59129e-23)
(0.549458 -0.00438166 -1.37955e-22)
(0.569154 -0.00422789 6.47174e-23)
(0.592764 -0.00404316 -1.85987e-23)
(0.608522 -0.00395148 -6.54573e-23)
(0.634583 -0.00378785 -2.20262e-23)
(0.643842 -0.00376443 4.86827e-23)
(0.677397 -0.0036501 -1.17161e-23)
(-0.124281 0.0182645 1.90084e-20)
(-0.15145 0.017767 7.5136e-21)
(-0.177332 0.0187872 -1.19239e-20)
(-0.205636 0.0194941 2.50917e-21)
(-0.234464 0.0201437 -1.44206e-20)
(-0.264307 0.0205406 3.22969e-22)
(-0.294418 0.0205975 2.39916e-20)
(-0.324372 0.0202252 -1.74298e-20)
(-0.353418 0.0193377 -3.23394e-20)
(-0.380773 0.0178611 1.3668e-20)
(-0.405504 0.0157344 -3.37783e-21)
(-0.426629 0.0129159 5.24986e-21)
(-0.443174 0.00940821 -3.93181e-21)
(-0.454121 0.00532142 -1.02397e-20)
(-0.458221 0.000711246 -2.63513e-20)
(-0.454855 -0.00455116 1.63121e-20)
(-0.443609 -0.00997214 2.02824e-20)
(-0.424139 -0.0153867 -8.80201e-21)
(-0.396675 -0.0204728 -1.51731e-20)
(-0.361857 -0.0249514 6.54164e-21)
(-0.320802 -0.0285808 -8.49527e-21)
(-0.274833 -0.0312469 4.13812e-21)
(-0.225401 -0.032956 -4.91567e-21)
(-0.173922 -0.0337296 -1.00374e-21)
(-0.121714 -0.0337411 1.30857e-21)
(-0.0697595 -0.0331989 2.87386e-22)
(-0.0188304 -0.0321971 -1.6375e-21)
(0.0304805 -0.0309191 3.17749e-22)
(0.0778309 -0.0294808 1.06359e-22)
(0.123036 -0.027969 1.92186e-22)
(0.166007 -0.0264474 -7.72658e-22)
(0.206752 -0.0249579 9.60554e-22)
(0.245316 -0.0235299 4.68341e-22)
(0.281808 -0.0221762 -7.68839e-22)
(0.316305 -0.0209087 9.14031e-22)
(0.348987 -0.0197242 2.77382e-22)
(0.379869 -0.0186306 -1.7647e-22)
(0.409257 -0.0176134 -2.19565e-22)
(0.436963 -0.0166869 1.51951e-21)
(0.463606 -0.015821 -5.89186e-22)
(0.488481 -0.0150512 1.11706e-21)
(0.512998 -0.0143155 2.06363e-22)
(0.535196 -0.0136979 3.0148e-22)
(0.558409 -0.0130687 -2.44465e-22)
(0.577713 -0.0126114 5.01096e-22)
(0.60094 -0.0120623 -4.16695e-23)
(0.616373 -0.011789 2.30872e-22)
(0.642037 -0.0113046 1.43269e-22)
(0.651092 -0.0112326 5.15469e-24)
(0.684121 -0.0108966 5.09619e-23)
(-0.114364 0.0295418 -1.80293e-20)
(-0.139771 0.0286317 1.81614e-20)
(-0.163155 0.0303096 5.785e-20)
(-0.18909 0.0314611 -4.4739e-20)
(-0.215399 0.0325076 -2.06222e-21)
(-0.242605 0.0331478 2.10366e-20)
(-0.269999 0.0332357 -4.44678e-20)
(-0.297176 0.0326261 -1.1807e-20)
(-0.323432 0.0311777 5.35742e-20)
(-0.348023 0.0287683 -1.73197e-20)
(-0.370069 0.0252978 1.61013e-20)
(-0.388638 0.0206965 3.11804e-20)
(-0.40279 0.0149592 -4.23407e-21)
(-0.411566 0.00825164 3.96633e-21)
(-0.413876 0.000677453 -3.38136e-20)
(-0.40909 -0.00792234 -1.47934e-20)
(-0.396713 -0.016805 4.71756e-20)
(-0.376537 -0.0256819 -9.89741e-21)
(-0.348768 -0.0340289 -1.05756e-20)
(-0.314037 -0.0413735 1.13938e-20)
(-0.27345 -0.047318 -2.5754e-20)
(-0.228307 -0.0516653 1.65744e-20)
(-0.179992 -0.0544468 -4.216e-22)
(-0.129878 -0.0556736 -1.95456e-21)
(-0.0792417 -0.0556571 5.91282e-22)
(-0.0289733 -0.0547373 -4.84239e-21)
(0.020205 -0.0530378 3.3245e-21)
(0.0677351 -0.0509178 6.57768e-22)
(0.113319 -0.0485367 4.14313e-22)
(0.1568 -0.046038 -2.90076e-22)
(0.198112 -0.0435274 2.32847e-23)
(0.237271 -0.0410729 2.62374e-22)
(0.27433 -0.038722 -5.72027e-22)
(0.3094 -0.0364948 -3.22139e-23)
(0.342556 -0.0344105 -1.49392e-21)
(0.373977 -0.0324632 1.72378e-21)
(0.40367 -0.0306661 -3.24748e-21)
(0.431944 -0.0289944 -3.01301e-22)
(0.458596 -0.0274729 6.81827e-22)
(0.484254 -0.02605 -1.3623e-21)
(0.50819 -0.0247865 1.43594e-21)
(0.531834 -0.0235778 4.69584e-22)
(0.553195 -0.0225649 -1.996e-21)
(0.575625 -0.0215319 6.79245e-22)
(0.59419 -0.0207822 3.26194e-22)
(0.616688 -0.0198834 -5.5086e-22)
(0.631507 -0.0194333 -2.93077e-22)
(0.656413 -0.0186467 2.14265e-22)
(0.665084 -0.0185212 -1.63358e-22)
(0.697107 -0.0179834 -4.33622e-23)
(-0.100071 0.0395681 -5.59945e-20)
(-0.123045 0.0381228 5.24218e-21)
(-0.142925 0.0404212 3.86692e-20)
(-0.165532 0.0419778 -2.87607e-20)
(-0.188303 0.0433696 2.46475e-20)
(-0.211799 0.0442228 2.94748e-20)
(-0.235374 0.0443341 3.42133e-21)
(-0.258657 0.0435059 -7.8644e-20)
(-0.28101 0.0415444 -2.92622e-20)
(-0.301753 0.0382803 1.10611e-19)
(-0.320076 0.0335751 -1.13846e-20)
(-0.335121 0.0273331 -3.86924e-20)
(-0.346 0.0195354 2.60544e-20)
(-0.351842 0.0103567 -1.56367e-20)
(-0.351711 -6.00604e-05 -3.00968e-20)
(-0.344999 -0.0117111 1.51484e-20)
(-0.331167 -0.0238373 7.27375e-21)
(-0.310107 -0.0359697 6.39354e-20)
(-0.282022 -0.0473952 -9.25984e-20)
(-0.24752 -0.057442 6.41011e-20)
(-0.207676 -0.0655613 -2.90159e-20)
(-0.163778 -0.07146 2.07686e-20)
(-0.117093 -0.0752504 -1.4847e-20)
(-0.0689359 -0.076847 -7.78169e-21)
(-0.0205192 -0.0767889 1.40789e-20)
(0.02739 -0.075372 2.47438e-21)
(0.0741428 -0.0730102 -2.79399e-21)
(0.119206 -0.0700651 1.58635e-21)
(0.162367 -0.0667645 -5.6616e-22)
(0.203494 -0.0633104 -3.36291e-23)
(0.242545 -0.0598476 -1.59836e-21)
(0.279549 -0.0564676 1.02142e-21)
(0.314567 -0.0532342 -2.16303e-21)
(0.347712 -0.0501732 3.855e-21)
(0.379051 -0.0473109 -3.51325e-22)
(0.408766 -0.0446372 -2.45242e-21)
(0.436849 -0.0421715 3.06036e-21)
(0.463614 -0.0398769 -1.68793e-21)
(0.488835 -0.0377909 1.60931e-21)
(0.513156 -0.0358381 6.72402e-22)
(0.535815 -0.0341074 -2.68704e-21)
(0.558269 -0.032449 1.22873e-21)
(0.578488 -0.0310629 3.75881e-22)
(0.599845 -0.0296473 -3.87775e-22)
(0.617401 -0.0286216 -8.14355e-22)
(0.638892 -0.0273952 5.36743e-22)
(0.652874 -0.0267755 2.86962e-22)
(0.676724 -0.0257145 -3.57508e-22)
(0.684872 -0.0255282 -2.96376e-23)
(0.715493 -0.0248174 -2.81423e-24)
(-0.0818999 0.0480217 -1.01813e-19)
(-0.102028 0.0458752 5.12582e-20)
(-0.117663 0.0487334 -6.78678e-20)
(-0.13623 0.0506393 -1.77378e-20)
(-0.154703 0.0523072 4.41857e-21)
(-0.173678 0.0533326 9.36786e-20)
(-0.192596 0.0534591 5.4755e-20)
(-0.21114 0.0524406 -4.52721e-21)
(-0.228759 0.0500338 2.82667e-20)
(-0.244851 0.0460225 -1.94065e-19)
(-0.258699 0.0402306 7.98414e-20)
(-0.269531 0.0325373 3.86393e-20)
(-0.276531 0.0229065 -4.9231e-20)
(-0.278922 0.0114839 8.98301e-20)
(-0.275923 -0.00150557 2.05004e-20)
(-0.266963 -0.0159458 -4.83809e-20)
(-0.251489 -0.0310368 -8.18101e-20)
(-0.229476 -0.0461563 4.9712e-20)
(-0.201137 -0.0604228 3.36155e-20)
(-0.167064 -0.0729733 -3.12623e-20)
(-0.128249 -0.0831082 2.97284e-20)
(-0.0860122 -0.0904045 -2.2379e-20)
(-0.0414339 -0.0951148 1.41325e-20)
(0.00425263 -0.0969742 -9.83484e-21)
(0.0499398 -0.0967875 -9.45717e-21)
(0.0949436 -0.0948769 5.29804e-22)
(0.138702 -0.0918813 -1.47756e-22)
(0.180805 -0.0881274 5.46727e-21)
(0.221068 -0.0839427 -1.98249e-21)
(0.259399 -0.0795784 3.70862e-22)
(0.295779 -0.0752138 1.52138e-23)
(0.330251 -0.0709605 2.35954e-22)
(0.362877 -0.0668972 4.75219e-22)
(0.393771 -0.0630531 4.27266e-22)
(0.422991 -0.0594615 -2.44847e-22)
(0.450716 -0.0561065 -2.75839e-21)
(0.476922 -0.0530153 1.82323e-21)
(0.501928 -0.0501366 1.81898e-21)
(0.525479 -0.0475233 3.85511e-22)
(0.548239 -0.0450736 -8.493e-22)
(0.569404 -0.0429075 -8.38774e-22)
(0.590462 -0.0408278 7.70495e-22)
(0.609341 -0.039095 1.29657e-21)
(0.629432 -0.0373224 -7.41071e-22)
(0.6458 -0.0360404 -3.16709e-22)
(0.666093 -0.0345132 -1.27061e-22)
(0.679091 -0.0337319 -1.06257e-22)
(0.701669 -0.0324298 9.03353e-23)
(0.709208 -0.0321748 1.05865e-22)
(0.738134 -0.0313231 4.1755e-24)
(-0.060209 0.0546951 2.408e-20)
(-0.0774202 0.0517034 6.06969e-20)
(-0.0883928 0.0550149 -6.02438e-20)
(-0.102501 0.0571918 -3.24853e-20)
(-0.116224 0.0590514 7.63341e-20)
(-0.130163 0.0601952 -2.58314e-20)
(-0.143887 0.0603267 5.05191e-21)
(-0.157145 0.0591536 -1.05869e-19)
(-0.169494 0.0563859 4.39735e-20)
(-0.180426 0.0517595 6.4003e-20)
(-0.189327 0.0450592 4.66264e-20)
(-0.195526 0.036138 -2.11492e-20)
(-0.198287 0.0249377 4.17835e-20)
(-0.196924 0.0115649 7.72544e-20)
(-0.190805 -0.00369041 -2.41771e-19)
(-0.179405 -0.0206012 1.23271e-19)
(-0.162187 -0.0383392 -3.82724e-20)
(-0.1392 -0.0561328 4.87835e-20)
(-0.110691 -0.0729638 1.25192e-20)
(-0.077261 -0.0877888 -7.36022e-21)
(-0.0397489 -0.0997699 -1.14325e-20)
(0.000457528 -0.108371 -2.75099e-20)
(0.0424831 -0.11361 2.93643e-20)
(0.0852905 -0.115769 -1.96996e-22)
(0.127756 -0.115414 1.50742e-20)
(0.169403 -0.113102 -1.92267e-20)
(0.209771 -0.109457 5.42894e-21)
(0.248547 -0.104931 -2.058e-21)
(0.28559 -0.0999161 6.95859e-22)
(0.320842 -0.0947026 -5.75162e-22)
(0.354305 -0.0895006 -1.61365e-21)
(0.38603 -0.0844383 4.09105e-21)
(0.416075 -0.0796078 -3.60358e-21)
(0.444551 -0.0750398 -1.66804e-21)
(0.471502 -0.0707748 -4.33731e-22)
(0.497102 -0.0667896 -6.2942e-23)
(0.521306 -0.0631206 -1.51899e-21)
(0.544435 -0.0597009 1.28988e-21)
(0.566207 -0.0566009 -2.35666e-21)
(0.587298 -0.0536903 3.70661e-21)
(0.606869 -0.0511231 -6.43809e-21)
(0.626431 -0.0486526 6.77356e-22)
(0.643876 -0.0466013 3.16414e-22)
(0.6626 -0.0444995 1.3082e-21)
(0.677698 -0.0429813 -2.89973e-22)
(0.696681 -0.0411822 -3.94215e-22)
(0.708629 -0.0402477 8.17794e-23)
(0.729801 -0.0387387 2.43412e-22)
(0.736696 -0.0384078 3.30715e-24)
(0.763746 -0.0374458 -1.48883e-22)
(-0.0350195 0.0593873 8.83986e-20)
(-0.0496299 0.0556978 -2.94362e-20)
(-0.0558948 0.0591908 3.06656e-20)
(-0.0654473 0.0615478 3.84875e-20)
(-0.0742926 0.0634993 5.71758e-20)
(-0.0830051 0.0646912 -2.24884e-21)
(-0.0913036 0.0648095 -2.17709e-19)
(-0.0990268 0.0635183 -9.41418e-22)
(-0.105854 0.0604828 2.19836e-19)
(-0.111387 0.055388 -2.12991e-20)
(-0.115119 0.0479761 2.67114e-20)
(-0.116486 0.0380701 -6.07916e-20)
(-0.114841 0.0255822 -2.00227e-19)
(-0.109571 0.010595 2.23154e-19)
(-0.100191 -0.00658174 -9.28526e-21)
(-0.0862429 -0.0256348 -2.46695e-19)
(-0.0672055 -0.0456863 9.43654e-20)
(-0.0432152 -0.065824 -6.97996e-20)
(-0.0145904 -0.0849347 1.33383e-19)
(0.0180102 -0.101706 2.04084e-20)
(0.0539368 -0.11518 -9.66067e-20)
(0.0919137 -0.124953 4.66004e-20)
(0.130983 -0.130639 -2.73673e-20)
(0.17039 -0.133064 1.11273e-20)
(0.209268 -0.132562 -6.42682e-21)
(0.247205 -0.129836 -1.15925e-20)
(0.283875 -0.125585 9.93296e-21)
(0.31906 -0.120351 -8.6632e-21)
(0.35267 -0.11458 3.99894e-21)
(0.384678 -0.108597 -5.43445e-22)
(0.415097 -0.102636 2.04627e-21)
(0.443979 -0.0968414 2.1822e-22)
(0.471375 -0.0913158 -4.2528e-22)
(0.497382 -0.0860902 5.31025e-22)
(0.522027 -0.081213 1.89365e-21)
(0.545476 -0.0766525 7.76896e-22)
(0.567658 -0.0724566 -1.15845e-22)
(0.588895 -0.0685408 9.10744e-22)
(0.608875 -0.0649958 -1.80142e-22)
(0.628286 -0.0616612 -2.40382e-21)
(0.646252 -0.0587273 2.25825e-21)
(0.664301 -0.055897 -1.22759e-21)
(0.680304 -0.0535549 1.71792e-21)
(0.697637 -0.0511515 -3.60842e-22)
(0.711456 -0.049417 -1.3029e-21)
(0.729093 -0.0473741 -1.20529e-23)
(0.739987 -0.0462946 7.51642e-22)
(0.759695 -0.0446106 -2.72481e-22)
(0.76595 -0.0441988 1.85214e-22)
(0.791044 -0.0431514 1.14282e-22)
(-0.00588897 0.0620019 1.53678e-19)
(-0.018495 0.0582055 -8.63719e-20)
(-0.0204746 0.0612868 6.67506e-20)
(-0.0256623 0.063806 -1.54067e-19)
(-0.0298359 0.065714 1.34848e-20)
(-0.0334535 0.0668627 2.11834e-20)
(-0.0364013 0.0669309 -2.631e-20)
(-0.0386281 0.0655462 -1.78194e-20)
(-0.0399468 0.0623303 3.21946e-20)
(-0.0400777 0.0569146 9.94049e-20)
(-0.0386276 0.0489933 -4.08333e-20)
(-0.0351396 0.0383507 3.05018e-20)
(-0.0290541 0.0248534 1.3874e-20)
(-0.019821 0.00858906 -1.64696e-20)
(-0.00710803 -0.0102128 6.69009e-20)
(0.00945218 -0.0309941 -5.22171e-20)
(0.0303744 -0.0529501 2.5349e-21)
(0.0554 -0.0750747 4.22633e-20)
(0.0841414 -0.0961088 -6.13054e-20)
(0.11586 -0.114515 4.34971e-20)
(0.14992 -0.129228 -6.81912e-20)
(0.185263 -0.139915 -1.04472e-20)
(0.221065 -0.146192 9.87705e-20)
(0.256734 -0.148721 -2.33088e-20)
(0.291681 -0.148046 -6.34986e-21)
(0.325617 -0.144937 2.05796e-20)
(0.358353 -0.140153 -1.6652e-21)
(0.389767 -0.134302 -9.52599e-21)
(0.419817 -0.127871 -1.4224e-21)
(0.448499 -0.121214 -1.80988e-21)
(0.475829 -0.114589 4.38452e-22)
(0.501853 -0.108149 -3.82901e-22)
(0.526604 -0.102008 -1.47291e-21)
(0.550166 -0.0961975 5.13601e-21)
(0.57254 -0.0907733 -2.74783e-21)
(0.593879 -0.0856953 7.59125e-21)
(0.614086 -0.0810244 -5.80437e-21)
(0.633479 -0.0766582 5.87528e-23)
(0.651717 -0.0727099 -4.03773e-23)
(0.669494 -0.0689877 2.81881e-21)
(0.685905 -0.0657209 8.28627e-22)
(0.702482 -0.0625606 1.56394e-21)
(0.717089 -0.0599542 -4.93651e-22)
(0.733059 -0.0572755 -3.99657e-22)
(0.745645 -0.0553434 2.73321e-22)
(0.761948 -0.0530823 7.59835e-22)
(0.771833 -0.0518665 -7.16838e-22)
(0.790074 -0.0500341 6.9249e-22)
(0.795724 -0.0495397 -1.9982e-22)
(0.818861 -0.0484243 2.99206e-23)
(0.0283695 0.0630379 -1.07789e-19)
(0.0169118 0.0592733 2.84119e-19)
(0.0182948 0.0616275 -1.31835e-19)
(0.017065 0.0642131 -9.27137e-20)
(0.0170163 0.0659214 7.45828e-20)
(0.018055 0.0669076 -4.20981e-20)
(0.0200873 0.0668613 1.74992e-19)
(0.0230437 0.0653832 -2.19487e-19)
(0.0269733 0.0620527 2.28151e-20)
(0.0320308 0.0564447 1.87697e-19)
(0.0384961 0.048199 -1.41634e-19)
(0.0467111 0.0370547 1.48395e-19)
(0.0571602 0.0228216 -7.91651e-20)
(0.0703084 0.00561403 -5.30381e-20)
(0.0863988 -0.0144622 -5.93913e-20)
(0.105664 -0.0366174 2.02334e-19)
(0.128482 -0.0601032 -1.67938e-19)
(0.154518 -0.0838186 5.34296e-20)
(0.183286 -0.106357 1.1474e-19)
(0.213972 -0.12611 -5.84743e-20)
(0.245945 -0.141918 -7.60493e-20)
(0.278343 -0.15328 -5.56014e-20)
(0.310551 -0.159974 6.28757e-20)
(0.342184 -0.162569 2.50691e-20)
(0.372924 -0.161741 -4.06445e-21)
(0.402645 -0.158315 1.9971e-20)
(0.431292 -0.153096 -3.99029e-20)
(0.458836 -0.146738 1.27301e-20)
(0.485274 -0.139763 6.8369e-22)
(0.510616 -0.132544 1.44804e-21)
(0.534874 -0.125359 5.5684e-24)
(0.558078 -0.118369 -3.89917e-22)
(0.58024 -0.1117 -1.01739e-21)
(0.601422 -0.10538 2.56346e-21)
(0.621599 -0.0994756 -6.11462e-21)
(0.640904 -0.0939388 3.22513e-21)
(0.659217 -0.088845 -8.20705e-21)
(0.676845 -0.0840738 2.58215e-21)
(0.693422 -0.0797631 1.93125e-21)
(0.709639 -0.0756889 -1.49363e-21)
(0.724576 -0.072121 -3.30238e-21)
(0.739747 -0.0686597 2.46647e-21)
(0.753037 -0.0658137 -1.23672e-21)
(0.767701 -0.0628841 -9.49019e-22)
(0.779129 -0.0607717 -4.81534e-23)
(0.794142 -0.0583148 -8.21308e-22)
(0.803086 -0.0569721 -3.69231e-22)
(0.819897 -0.0550116 2.82607e-22)
(0.824988 -0.0544366 -7.59342e-22)
(0.846222 -0.0532627 3.99717e-23)
(0.0700113 0.0631531 -4.92502e-20)
(0.0583911 0.0590386 1.13923e-19)
(0.0619544 0.0607291 -6.54177e-20)
(0.0639238 0.0631203 2.82315e-19)
(0.0672182 0.0644776 -2.30846e-19)
(0.0721852 0.065152 6.08709e-20)
(0.0785468 0.0648956 9.10899e-20)
(0.0861042 0.0632907 -1.62118e-19)
(0.0947731 0.0598783 1.08047e-19)
(0.104586 0.0541721 -1.68864e-21)
(0.115715 0.0457514 -5.12114e-20)
(0.12838 0.0343083 1.14916e-19)
(0.143 0.0195843 3.20087e-20)
(0.159924 0.00171448 -2.71415e-19)
(0.179283 -0.0191996 5.17968e-20)
(0.201204 -0.0424435 3.38138e-20)
(0.225856 -0.0671307 -1.72985e-20)
(0.252785 -0.0920437 -1.303e-20)
(0.281375 -0.115701 6.39495e-20)
(0.310768 -0.136438 1.66691e-20)
(0.34035 -0.15303 2.7089e-20)
(0.369476 -0.164882 -4.83934e-20)
(0.397782 -0.171863 -5.93081e-20)
(0.425133 -0.174513 -3.93562e-21)
(0.451477 -0.173577 8.9096e-20)
(0.476863 -0.169925 -4.46316e-20)
(0.501365 -0.164388 1.04126e-20)
(0.525027 -0.157651 4.37854e-21)
(0.54788 -0.150259 -1.09566e-20)
(0.569935 -0.1426 4.59174e-21)
(0.59119 -0.134965 -1.20665e-21)
(0.611655 -0.127525 -2.22106e-22)
(0.631316 -0.120416 1.92903e-22)
(0.650208 -0.113664 -1.18281e-21)
(0.66828 -0.107349 -2.99929e-21)
(0.685645 -0.101412 7.15542e-21)
(0.702156 -0.0959471 -5.84348e-21)
(0.718107 -0.090816 8.38624e-21)
(0.733115 -0.0861825 3.4494e-21)
(0.747855 -0.0817913 -5.08059e-21)
(0.761406 -0.0779531 1.37444e-21)
(0.775247 -0.0742183 -3.69676e-22)
(0.787307 -0.071156 -2.55191e-22)
(0.800729 -0.0679981 3.15325e-21)
(0.811086 -0.0657224 -5.3393e-22)
(0.824864 -0.0630882 -2.08654e-23)
(0.832946 -0.0616294 4.6651e-22)
(0.848382 -0.0595545 3.88367e-22)
(0.852967 -0.058905 1.68326e-22)
(0.872383 -0.057675 -2.26943e-22)
(0.121972 0.0628069 2.36129e-19)
(0.108728 0.0581446 -3.5482e-19)
(0.113158 0.0590578 3.20932e-19)
(0.117343 0.0610123 1.06474e-19)
(0.123012 0.0618377 -1.3471e-19)
(0.130933 0.0620323 -5.71791e-20)
(0.140707 0.061438 1.27558e-20)
(0.15201 0.0596343 8.36688e-21)
(0.164641 0.0561298 -9.1937e-21)
(0.178521 0.0503753 1.4837e-19)
(0.193731 0.0418852 -2.94051e-19)
(0.210353 0.0302998 8.09652e-20)
(0.228751 0.0152783 -2.3894e-20)
(0.249146 -0.00294737 -5.41894e-21)
(0.271482 -0.0244162 8.8579e-20)
(0.295764 -0.0484063 -4.64693e-20)
(0.321944 -0.0739001 -1.36955e-20)
(0.349403 -0.0996034 -3.91968e-20)
(0.377394 -0.123977 1.11489e-19)
(0.405054 -0.145328 -1.81058e-19)
(0.431829 -0.162398 9.7071e-20)
(0.457323 -0.174558 -5.72617e-20)
(0.481453 -0.181728 6.81972e-20)
(0.504355 -0.184436 -4.16116e-20)
(0.526221 -0.183462 5.51595e-21)
(0.547268 -0.179694 -2.8866e-20)
(0.567674 -0.173976 3.60075e-21)
(0.587541 -0.167005 1.99504e-20)
(0.606917 -0.159337 -1.25613e-20)
(0.625801 -0.151369 5.32264e-21)
(0.644174 -0.143405 3.34829e-21)
(0.662015 -0.135621 -5.82197e-22)
(0.679287 -0.128166 1.41645e-21)
(0.695996 -0.121066 2.14087e-22)
(0.712067 -0.11441 -3.03922e-21)
(0.727586 -0.108135 6.0574e-21)
(0.74239 -0.102353 -2.37862e-21)
(0.75675 -0.0969092 -4.40406e-21)
(0.770278 -0.0919935 2.5665e-21)
(0.78362 -0.0873212 1.3599e-21)
(0.795872 -0.0832432 -1.93312e-21)
(0.808452 -0.0792628 3.02178e-21)
(0.819369 -0.076007 -1.691e-21)
(0.831612 -0.0726421 -2.38617e-21)
(0.840981 -0.0702199 2.27398e-21)
(0.853582 -0.0674239 -1.35869e-21)
(0.860879 -0.0658618 5.03606e-22)
(0.875001 -0.0636801 8.96439e-23)
(0.87913 -0.0629662 6.27449e-22)
(0.896825 -0.0616762 4.82347e-23)
(0.187547 0.0629103 8.79457e-20)
(0.171648 0.0572818 -5.69201e-20)
(0.175758 0.0572128 -1.44494e-19)
(0.181098 0.0584758 2.67165e-19)
(0.188044 0.0585693 -1.09818e-19)
(0.197732 0.0580989 6.25496e-20)
(0.209734 0.0570068 -1.17741e-19)
(0.223629 0.0548885 -2.78515e-20)
(0.239127 0.051231 -4.54613e-20)
(0.256062 0.045423 1.53625e-19)
(0.274445 0.0369159 -2.63841e-19)
(0.29421 0.0253017 1.26436e-19)
(0.315694 0.0101348 -1.0849e-19)
(0.338897 -0.00821553 1.39289e-19)
(0.363543 -0.0299663 4.40835e-20)
(0.389543 -0.0543371 -1.61933e-19)
(0.416572 -0.0802189 2.08399e-19)
(0.443844 -0.106264 -2.40693e-20)
(0.470527 -0.130913 -2.3676e-20)
(0.49581 -0.152494 4.48738e-20)
(0.519265 -0.16975 1.60972e-20)
(0.540768 -0.182049 -5.18895e-20)
(0.560521 -0.189348 1.88428e-20)
(0.578917 -0.192156 -4.92337e-20)
(0.596353 -0.191251 3.89341e-20)
(0.613179 -0.187516 4.57134e-21)
(0.629651 -0.181785 -9.79098e-21)
(0.645904 -0.174751 1.4383e-20)
(0.661984 -0.166969 -2.81348e-20)
(0.677873 -0.15884 8.64171e-21)
(0.693523 -0.150677 5.5107e-21)
(0.708886 -0.142666 -1.0019e-21)
(0.723899 -0.134966 1.05048e-21)
(0.738543 -0.127603 6.28205e-22)
(0.752719 -0.120681 -1.84102e-21)
(0.766488 -0.114133 1.46802e-21)
(0.779675 -0.108088 -1.57003e-21)
(0.792527 -0.102379 1.71845e-22)
(0.804657 -0.0972213 -2.4403e-21)
(0.816672 -0.0923038 -3.03399e-21)
(0.827703 -0.0880162 5.60682e-21)
(0.839086 -0.0838175 -1.20038e-21)
(0.848937 -0.0803912 -3.5292e-21)
(0.860057 -0.0768394 -7.48609e-22)
(0.868516 -0.0742886 4.57607e-22)
(0.879991 -0.0713426 -7.88138e-22)
(0.886573 -0.0696933 -1.06575e-21)
(0.899441 -0.0674059 4.76506e-22)
(0.903159 -0.066644 -4.13435e-22)
(0.91923 -0.0652845 4.60769e-23)
(0.269861 0.0648576 -6.33591e-20)
(0.251774 0.0567738 -2.54737e-22)
(0.254912 0.0554118 -3.4736e-20)
(0.260355 0.055854 -2.92977e-19)
(0.267341 0.0551167 4.92745e-19)
(0.277362 0.0538672 -2.23101e-19)
(0.290084 0.0521412 9.51578e-20)
(0.305049 0.0495817 -6.88487e-21)
(0.321916 0.0456761 1.99632e-20)
(0.340458 0.0397604 -9.1802e-20)
(0.360651 0.0312369 -1.66871e-19)
(0.382261 0.0196572 -1.78048e-19)
(0.405615 0.00434997 2.28173e-20)
(0.430472 -0.0138494 3.34348e-19)
(0.456264 -0.0355462 -2.36555e-19)
(0.482805 -0.059947 3.68096e-20)
(0.509531 -0.0858219 -3.75562e-20)
(0.53552 -0.111801 -2.28425e-20)
(0.559914 -0.136348 -1.00031e-20)
(0.58203 -0.157873 8.78128e-20)
(0.601631 -0.175153 3.38808e-20)
(0.618852 -0.187557 -8.90097e-20)
(0.634153 -0.195046 4.13553e-20)
(0.648128 -0.198086 -1.804e-20)
(0.661325 -0.197414 6.39301e-20)
(0.674177 -0.193885 -1.23226e-20)
(0.686981 -0.188306 9.21055e-21)
(0.699881 -0.181354 -3.07834e-20)
(0.712911 -0.173581 7.4796e-21)
(0.726023 -0.165391 2.20559e-21)
(0.739141 -0.15711 -4.17088e-21)
(0.752192 -0.148937 3.04033e-21)
(0.765089 -0.141045 4.18882e-23)
(0.77779 -0.133465 -1.09705e-21)
(0.790178 -0.126316 3.69106e-21)
(0.802292 -0.119527 -2.63373e-21)
(0.813949 -0.113247 6.54913e-23)
(0.825367 -0.107298 4.64405e-22)
(0.836175 -0.101922 -6.1218e-22)
(0.846926 -0.0967811 -1.43554e-21)
(0.856807 -0.0923034 -8.39421e-22)
(0.867048 -0.0879054 3.55134e-21)
(0.875902 -0.0843266 4.70072e-22)
(0.885947 -0.080603 1.90425e-21)
(0.893564 -0.0779413 -1.43706e-21)
(0.903959 -0.0748528 7.23434e-22)
(0.909888 -0.0731367 3.46106e-22)
(0.921554 -0.0707386 -4.15599e-22)
(0.924903 -0.0699545 1.5491e-22)
(0.939443 -0.0685156 3.58839e-23)
(0.371855 0.0689272 4.07355e-19)
(0.355055 0.0555434 -4.49442e-19)
(0.357363 0.0528741 1.69351e-19)
(0.361709 0.052773 -1.47756e-19)
(0.367128 0.0514887 6.80173e-20)
(0.375598 0.049659 -6.23107e-20)
(0.387035 0.0473854 3.77611e-19)
(0.401019 0.0444111 -1.67255e-19)
(0.417203 0.0402629 -6.56375e-20)
(0.435321 0.0342363 -1.25657e-19)
(0.455343 0.0257026 4.06559e-19)
(0.476821 0.0141245 2.41247e-20)
(0.500193 -0.00122629 -4.29553e-19)
(0.524881 -0.0188075 2.78354e-19)
(0.549975 -0.0403967 -2.79604e-20)
(0.575303 -0.0647411 -1.77129e-19)
(0.600113 -0.0905346 2.25248e-19)
(0.623413 -0.116418 -7.09809e-20)
(0.644402 -0.140901 1.04696e-20)
(0.662573 -0.16247 -2.12498e-20)
(0.677896 -0.179943 -2.84046e-20)
(0.690726 -0.192664 -1.56913e-20)
(0.701697 -0.200546 2.76994e-20)
(0.711529 -0.203986 2.05958e-20)
(0.720839 -0.203664 -6.00879e-20)
(0.73009 -0.2004 2.14943e-20)
(0.739588 -0.194982 -2.07671e-20)
(0.749464 -0.188083 2.73705e-20)
(0.759731 -0.180263 1.5718e-22)
(0.770313 -0.171938 4.13024e-21)
(0.781107 -0.16346 -1.06198e-20)
(0.792015 -0.155048 5.29494e-21)
(0.802939 -0.146895 1.34708e-22)
(0.813815 -0.139039 -7.7995e-22)
(0.824518 -0.131613 5.54939e-23)
(0.835063 -0.124545 3.73129e-21)
(0.84527 -0.118001 -3.89042e-21)
(0.855323 -0.111793 -1.52089e-21)
(0.864874 -0.106185 -1.40408e-21)
(0.874419 -0.100815 5.07141e-21)
(0.883209 -0.0961446 -1.28083e-21)
(0.892356 -0.0915521 1.63529e-21)
(0.900272 -0.0878255 -1.67088e-21)
(0.909284 -0.08394 1.36626e-21)
(0.916119 -0.0811768 -1.66493e-21)
(0.925471 -0.0779551 6.28798e-22)
(0.930806 -0.0761873 1.47539e-23)
(0.941312 -0.0736806 -2.603e-23)
(0.94433 -0.0728962 1.5995e-22)
(0.957421 -0.0713823 4.38053e-23)
(0.501339 0.0735733 -1.68571e-19)
(0.49114 0.0563853 1.94645e-19)
(0.491944 0.0528893 -2.68431e-20)
(0.49294 0.0519053 -1.68609e-19)
(0.494255 0.0499371 1.39767e-19)
(0.498419 0.0474193 -9.89505e-20)
(0.505733 0.0444734 -1.78423e-19)
(0.515896 0.0409614 3.26788e-19)
(0.528591 0.0364811 -3.57856e-19)
(0.543496 0.0302975 4.66463e-20)
(0.560574 0.0217682 7.62604e-20)
(0.579204 0.0102536 1.83863e-19)
(0.600007 -0.00473827 -2.23988e-19)
(0.621868 -0.0221548 -1.85765e-19)
(0.643733 -0.0436485 3.97243e-19)
(0.66563 -0.0678068 -8.4863e-20)
(0.686643 -0.0934263 -7.6502e-20)
(0.705802 -0.11915 7.60374e-20)
(0.722417 -0.143519 -1.6696e-20)
(0.73614 -0.165089 1.3961e-19)
(0.74709 -0.182714 -1.60213e-19)
(0.755743 -0.195727 3.82926e-20)
(0.762794 -0.204 8.44527e-20)
(0.768984 -0.20787 -8.55424e-20)
(0.774924 -0.207969 4.01709e-20)
(0.78106 -0.205066 -4.83624e-20)
(0.787681 -0.199921 -4.76062e-21)
(0.794896 -0.193197 -2.58993e-21)
(0.802701 -0.18546 3.39445e-20)
(0.810998 -0.177137 -1.96412e-20)
(0.819662 -0.168596 -8.05739e-22)
(0.828582 -0.160068 6.6304e-21)
(0.837654 -0.151765 -1.19189e-21)
(0.846806 -0.143732 1.17323e-23)
(0.855909 -0.136116 -5.75201e-22)
(0.864958 -0.12885 2.21263e-22)
(0.873779 -0.12211 1.81374e-21)
(0.882523 -0.115708 -4.51687e-22)
(0.890873 -0.109916 -2.19379e-21)
(0.899258 -0.104372 1.84113e-21)
(0.90701 -0.0995404 1.66428e-21)
(0.915104 -0.0947982 -2.04046e-21)
(0.922132 -0.0909365 2.69179e-22)
(0.930149 -0.0869294 -1.49531e-21)
(0.936253 -0.0840591 -3.30798e-22)
(0.944597 -0.0807448 1.28941e-21)
(0.949386 -0.0789007 -4.09982e-22)
(0.958769 -0.0763263 -3.57225e-22)
(0.961493 -0.075503 2.44316e-22)
(0.9732 -0.0739356 -8.91338e-23)
(1.07016 0.127643 0)
(1.04361 0.110359 0)
(1.02522 0.0961705 0)
(1.00687 0.0832627 0)
(0.98859 0.0713994 0)
(0.972346 0.0602001 0)
(0.959512 0.0494475 0)
(0.950383 0.0388682 0)
(0.944881 0.0282755 0)
(0.942418 0.0171829 0)
(0.942929 0.00527793 0)
(0.945551 -0.00794903 0)
(0.950158 -0.0225333 0)
(0.955837 -0.039059 0)
(0.9619 -0.0569938 0)
(0.967671 -0.0758888 0)
(0.972425 -0.0951557 0)
(0.975561 -0.114029 0)
(0.976669 -0.13174 0)
(0.975662 -0.147602 0)
(0.972831 -0.161073 0)
(0.968713 -0.171819 0)
(0.963941 -0.179732 0)
(0.959123 -0.1849 0)
(0.954768 -0.187571 0)
(0.951238 -0.188052 0)
(0.948744 -0.186693 0)
(0.947351 -0.183832 0)
(0.947031 -0.179802 0)
(0.947655 -0.174878 0)
(0.949068 -0.169323 0)
(0.951134 -0.163304 0)
(0.953758 -0.157028 0)
(0.956854 -0.150589 0)
(0.960305 -0.144184 0)
(0.964043 -0.13782 0)
(0.967932 -0.131703 0)
(0.972 -0.125728 0)
(0.976053 -0.120156 0)
(0.980272 -0.114741 0)
(0.984297 -0.109868 0)
(0.988597 -0.105087 0)
(0.992435 -0.101009 0)
(0.996852 -0.0968849 0)
(1.00032 -0.093684 0)
(1.00502 -0.0902284 0)
(1.00783 -0.0879927 0)
(1.01317 -0.0852377 0)
(1.01482 -0.0840636 0)
(1.02155 -0.0821193 0)
(1.21964 0.137652 0)
(1.22387 0.128151 0)
(1.22367 0.118428 0)
(1.22168 0.108032 0)
(1.21956 0.0972647 0)
(1.21799 0.0863001 0)
(1.21719 0.075072 0)
(1.21696 0.0633077 0)
(1.21716 0.0507343 0)
(1.21741 0.0370828 0)
(1.21773 0.0222181 0)
(1.21765 0.00604113 0)
(1.21703 -0.0112844 0)
(1.216 -0.0296152 0)
(1.21434 -0.0487709 0)
(1.21163 -0.0684478 0)
(1.20752 -0.0881897 0)
(1.2018 -0.107452 0)
(1.19438 -0.125623 0)
(1.18542 -0.142104 0)