/*--------------------------------*- C++ -*----------------------------------*\
  =========                 |
  \\      /  F ield         | OpenFOAM: The Open Source CFD Toolbox
   \\    /   O peration     | Website:  https://openfoam.org
    \\  /    A nd           | Version:  7
     \\/     M anipulation  |
\*---------------------------------------------------------------------------*/
FoamFile
{
    version     2.0;
    format      ascii;
    class       volScalarField;
    location    "10";
    object      p;
}
// * * * * * * * * * * * * * * * * * * * * * * * * * * * * * * * * * * * * * //

dimensions      [0 2 -2 0 0 0 0];

internalField   nonuniform List<scalar> 
1360
(
-0.0182706
-0.0171104
-0.0159887
-0.0149052
-0.0138594
-0.0128509
-0.0118791
-0.0109438
-0.0100445
-0.00918067
-0.00835189
-0.00755767
-0.00679754
-0.00607098
-0.00537751
-0.0047166
-0.00408773
-0.00349038
-0.00292402
-0.0023881
-0.00188207
-0.0014054
-0.000957517
-0.000537864
-0.000145873
0.000219027
0.000557415
0.000869876
0.001157
0.00141939
0.00165764
0.00187238
0.00206422
0.00223379
0.00238175
0.00250874
0.00261543
0.00270252
0.00277069
0.00282066
0.00285319
0.00286904
0.00286901
0.00285394
0.00282473
0.00278252
0.00272807
0.00265679
0.00257696
0.00267507
0.00275212
-0.0186958
-0.0175269
-0.0163965
-0.0153042
-0.0142497
-0.0132325
-0.0122522
-0.0113082
-0.0104003
-0.00952785
-0.00869051
-0.00788778
-0.00711917
-0.00638418
-0.00568231
-0.00501306
-0.0043759
-0.00377031
-0.00319576
-0.00265172
-0.00213763
-0.00165295
-0.00119714
-0.00076962
-0.000369843
2.76411e-06
0.000348775
0.000668769
0.000963331
0.00123305
0.00147854
0.00170039
0.00189922
0.00207566
0.00223034
0.0023639
0.002477
0.00257032
0.00264452
0.00270033
0.00273844
0.00275962
0.00276461
0.00275424
0.00272933
0.00269095
0.00263983
0.00257152
0.00249365
0.00258477
0.00265763
-0.0183239
-0.0171771
-0.0160683
-0.0149973
-0.0139637
-0.0129669
-0.0120066
-0.0110823
-0.0101936
-0.00934006
-0.00852118
-0.00773649
-0.0069855
-0.00626771
-0.00558262
-0.00492972
-0.00430848
-0.00371837
-0.00315888
-0.00262945
-0.00212955
-0.00165863
-0.00121614
-0.000801528
-0.000414229
-5.36788e-05
0.000280691
0.000589458
0.000873201
0.00113251
0.00136797
0.0015802
0.00176979
0.00193736
0.00208354
0.00220896
0.00231426
0.0024001
0.00246715
0.00251607
0.00254757
0.00256234
0.00256112
0.00254465
0.00251386
0.00246937
0.0024071
0.00233341
0.00241194
0.0024772
-0.0194388
-0.0182692
-0.0171378
-0.0160441
-0.0149878
-0.0139684
-0.0129855
-0.0120387
-0.0111276
-0.0102517
-0.00941055
-0.00860368
-0.00783061
-0.00709084
-0.00638387
-0.00570921
-0.00506632
-0.00445471
-0.00387383
-0.00332316
-0.00280216
-0.0023103
-0.00184704
-0.00141182
-0.0010041
-0.000623334
-0.00026895
5.96063e-05
0.000362903
0.00064151
0.000896005
0.00112697
0.00133499
0.00152065
0.00168456
0.00182732
0.00194954
0.00205183
0.00213481
0.00219911
0.00224534
0.00227414
0.00228613
0.00228195
0.00226235
0.00222783
0.00217475
0.00210794
0.00217083
0.00222642
-0.0207962
-0.0195995
-0.0184408
-0.01732
-0.0162366
-0.0151902
-0.0141803
-0.0132066
-0.0122686
-0.0113659
-0.0104981
-0.00966468
-0.00886515
-0.00809903
-0.00736585
-0.00666509
-0.00599624
-0.0053588
-0.00475224
-0.00417604
-0.00362967
-0.00311261
-0.00262432
-0.00216427
-0.00173192
-0.00132673
-0.000948148
-0.000595637
-0.000268643
3.33855e-05
0.000311006
0.000564777
0.000795263
0.00100303
0.00118865
0.00135268
0.00149571
0.00161829
0.00172101
0.00180442
0.00186907
0.00191552
0.00194429
0.00195588
0.00195088
0.00192963
0.00188907
0.0018324
0.00187966
0.00192531
-0.0223118
-0.0210853
-0.019897
-0.0187465
-0.0176334
-0.0165574
-0.0155179
-0.0145148
-0.0135474
-0.0126155
-0.0117185
-0.0108559
-0.0100274
-0.00923246
-0.00847053
-0.00774115
-0.00704382
-0.00637803
-0.00574326
-0.005139
-0.00456473
-0.00401992
-0.00350406
-0.00301661
-0.00255706
-0.00212487
-0.0017195
-0.00134044
-0.000987148
-0.000659083
-0.000355712
-7.6495e-05
0.000179106
0.000411631
0.000621621
0.000809613
0.000976143
0.00112174
0.00124692
0.0013522
0.00143807
0.001505
0.00155342
0.00158373
0.00159635
0.00159152
0.00156676
0.00152382
0.00155832
0.00159547
-0.0226847
-0.0214647
-0.0202825
-0.0191378
-0.0180302
-0.0169593
-0.0159248
-0.0149262
-0.0139631
-0.013035
-0.0121415
-0.0112822
-0.0104566
-0.00966411
-0.00890434
-0.00817675
-0.00748085
-0.00681612
-0.00618206
-0.00557814
-0.00500386
-0.00445869
-0.00394212
-0.00345363
-0.00299269
-0.00255879
-0.0021514
-0.00177001
-0.00141409
-0.00108312
-0.000776585
-0.000493957
-0.00023472
1.64152e-06
0.000215639
0.000407779
0.000578556
0.000728454
0.000857941
0.00096746
0.00105742
0.00112821
0.00118013
0.0012135
0.00122847
0.00122314
0.00119816
0.0012255
0.00125713
-0.0244249
-0.0231694
-0.0219519
-0.020772
-0.0196294
-0.0185236
-0.0174544
-0.0164212
-0.0154237
-0.0144615
-0.0135341
-0.0126411
-0.0117819
-0.0109561
-0.0101632
-0.00940277
-0.00867421
-0.00797705
-0.00731077
-0.00667486
-0.00606881
-0.0054921
-0.0049442
-0.00442461
-0.0039328
-0.00346826
-0.00303046
-0.00261889
-0.00223304
-0.00187238
-0.0015364
-0.0012246
-0.000936461
-0.000671483
-0.000429168
-0.000209026
-1.05807e-05
0.000166633
0.000323059
0.00045912
0.000575203
0.000671659
0.000748786
0.000806854
0.000846016
0.00086501
0.000864016
0.0008936
0.000923718
-0.0244823
-0.0232436
-0.0220422
-0.0208779
-0.0197503
-0.0186591
-0.0176039
-0.0165843
-0.0155997
-0.0146499
-0.0137343
-0.0128525
-0.012004
-0.0111883
-0.0104049
-0.00965328
-0.00893297
-0.00824346
-0.00758424
-0.0069548
-0.00635465
-0.00578327
-0.00524018
-0.00472488
-0.00423687
-0.00377567
-0.00334078
-0.00293172
-0.002548
-0.00218915
-0.00185467
-0.00154411
-0.00125698
-0.000992823
-0.000751168
-0.000531566
-0.000333573
-0.000156762
-7.19412e-07
0.000134945
0.000250595
0.000346567
0.000423181
0.000480694
0.000518573
0.000537487
0.000568974
0.000589849
-0.025572
-0.0243372
-0.0231385
-0.0219756
-0.0208482
-0.0197559
-0.0186984
-0.0176753
-0.0166863
-0.0157308
-0.0148085
-0.0139189
-0.0130616
-0.012236
-0.0114419
-0.0106785
-0.00994559
-0.00924254
-0.00856891
-0.00792421
-0.00730798
-0.00671973
-0.00615898
-0.00562527
-0.00511812
-0.00463707
-0.00418165
-0.0037514
-0.00334587
-0.00296459
-0.00260711
-0.00227298
-0.00196175
-0.00167298
-0.00140623
-0.00116107
-0.000937076
-0.000733833
-0.000550943
-0.000388022
-0.000244701
-0.000120631
-1.54714e-05
7.10884e-05
0.000139
0.000188774
0.000235205
0.000267934
-0.026598
-0.0253654
-0.0241677
-0.0230047
-0.0218761
-0.0207815
-0.0197206
-0.0186932
-0.0176988
-0.016737
-0.0158074
-0.0149096
-0.0140433
-0.0132078
-0.0124029
-0.011628
-0.0108827
-0.0101665
-0.00947894
-0.00881961
-0.00818803
-0.00758372
-0.00700625
-0.00645516
-0.00592999
-0.0054303
-0.00495565
-0.00450558
-0.00407967
-0.00367747
-0.00329855
-0.00294247
-0.0026088
-0.00229711
-0.00200698
-0.00173798
-0.00148971
-0.00126176
-0.00105371
-0.000865197
-0.000695828
-0.00054524
-0.000413079
-0.000299009
-0.000202714
-0.000123875
-6.1957e-05
-1.66623e-05
-0.0275349
-0.0263068
-0.0251124
-0.0239514
-0.0228237
-0.0217289
-0.0206667
-0.0196368
-0.0186389
-0.0176726
-0.0167376
-0.0158335
-0.0149598
-0.0141162
-0.0133021
-0.0125173
-0.0117613
-0.0110336
-0.0103337
-0.00966134
-0.00901597
-0.00839717
-0.00780451
-0.00723754
-0.00669584
-0.00617897
-0.00568651
-0.00521802
-0.00477308
-0.00435126
-0.00395214
-0.00357529
-0.0032203
-0.00288675
-0.0025742
-0.00228225
-0.00201049
-0.0017585
-0.00152588
-0.00131222
-0.00111714
-0.000940249
-0.000781176
-0.000639553
-0.00051477
-0.00040658
-0.000326205
-0.000265343
-0.0283862
-0.0271644
-0.025975
-0.0248178
-0.0236926
-0.0225992
-0.0215372
-0.0205065
-0.0195066
-0.0185373
-0.0175983
-0.0166892
-0.0158096
-0.0149592
-0.0141375
-0.0133441
-0.0125787
-0.0118408
-0.0111301
-0.010446
-0.0097882
-0.00915625
-0.00854974
-0.00796824
-0.00741133
-0.0068786
-0.00636962
-0.00588398
-0.00542126
-0.00498105
-0.00456292
-0.00416646
-0.00379125
-0.00343687
-0.0031029
-0.00278892
-0.00249452
-0.00221927
-0.00196275
-0.00172456
-0.00150428
-0.0013015
-0.00111583
-0.000946861
-0.000793749
-0.000656254
-0.000555035
-0.000476252
-0.0291613
-0.027947
-0.0267639
-0.0256116
-0.0244901
-0.0233991
-0.0223384
-0.0213078
-0.0203071
-0.0193359
-0.0183939
-0.0174809
-0.0165964
-0.0157402
-0.0149118
-0.014111
-0.0133372
-0.0125902
-0.0118696
-0.0111749
-0.0105057
-0.00986168
-0.0092424
-0.00864744
-0.00807642
-0.00752891
-0.00700451
-0.00650281
-0.00602339
-0.00556585
-0.00512977
-0.00471473
-0.00432032
-0.0039461
-0.00359167
-0.00325658
-0.00294041
-0.00264274
-0.00236312
-0.00210112
-0.00185631
-0.00162824
-0.0014165
-0.00122066
-0.00103965
-0.000873209
-0.000749346
-0.000650573
-0.029867
-0.0286611
-0.027485
-0.0263385
-0.0252215
-0.0241338
-0.0230753
-0.0220457
-0.0210449
-0.0200726
-0.0191285
-0.0182123
-0.0173238
-0.0164626
-0.0156285
-0.014821
-0.0140398
-0.0132845
-0.0125548
-0.0118504
-0.0111708
-0.0105156
-0.00988442
-0.00927695
-0.00869274
-0.00813141
-0.00759254
-0.00707573
-0.00658058
-0.00610668
-0.00565361
-0.00522095
-0.00480828
-0.00441517
-0.00404119
-0.0036859
-0.00334885
-0.00302961
-0.00272772
-0.00244271
-0.00217413
-0.00192151
-0.00168439
-0.0014623
-0.00125404
-0.00105924
-0.000911499
-0.000791069
-0.0305091
-0.0293121
-0.0281435
-0.0270034
-0.0258914
-0.0248076
-0.0237518
-0.0227239
-0.0217237
-0.0207509
-0.0198053
-0.0188867
-0.0179948
-0.0171294
-0.0162901
-0.0154767
-0.0146887
-0.013926
-0.0131881
-0.0124746
-0.0117853
-0.0111197
-0.0104776
-0.00985841
-0.00926187
-0.00868757
-0.0081351
-0.00760408
-0.00709409
-0.00660473
-0.00613558
-0.00568621
-0.00525621
-0.00484513
-0.00445253
-0.00407796
-0.00372097
-0.00338107
-0.00305782
-0.00275071
-0.00245925
-0.00218296
-0.00192133
-0.00167386
-0.0014392
-0.00121692
-0.00104469
-0.000901509
-0.0310917
-0.0299039
-0.0287432
-0.0276096
-0.0265031
-0.0254236
-0.024371
-0.0233451
-0.0223459
-0.0213732
-0.0204266
-0.0195062
-0.0186115
-0.0177425
-0.0168987
-0.0160799
-0.0152859
-0.0145163
-0.0137709
-0.0130492
-0.0123509
-0.0116757
-0.0110233
-0.0103932
-0.00978516
-0.00919871
-0.00863349
-0.00808911
-0.00756516
-0.00706123
-0.00657691
-0.00611177
-0.00566538
-0.00523728
-0.00482703
-0.00443417
-0.00405821
-0.00369868
-0.00335507
-0.00302689
-0.00271361
-0.00241469
-0.00212962
-0.00185785
-0.00159792
-0.00134933
-0.00115261
-0.000986211
-0.0316178
-0.0304392
-0.0292864
-0.0281596
-0.0270587
-0.0259837
-0.0249346
-0.0239111
-0.0229133
-0.0219409
-0.0209939
-0.0200721
-0.0191752
-0.018303
-0.0174553
-0.0166318
-0.0158324
-0.0150566
-0.0143043
-0.013575
-0.0128685
-0.0121845
-0.0115225
-0.0108824
-0.0102636
-0.00966582
-0.00908871
-0.00853184
-0.00799483
-0.00747727
-0.00697873
-0.00649878
-0.00603699
-0.00559289
-0.00516604
-0.00475594
-0.00436211
-0.00398405
-0.00362125
-0.00327316
-0.00293925
-0.00261895
-0.00231171
-0.00201694
-0.00173313
-0.00145966
-0.00123904
-0.00104959
-0.0320897
-0.03092
-0.0297751
-0.028655
-0.0275597
-0.0264893
-0.0254437
-0.0244229
-0.0234267
-0.0224551
-0.021508
-0.0205851
-0.0196864
-0.0188116
-0.0179605
-0.0171329
-0.0163286
-0.0155473
-0.0147888
-0.0140527
-0.0133387
-0.0126465
-0.0119759
-0.0113264
-0.0106978
-0.0100896
-0.00950144
-0.00893302
-0.0083839
-0.00785368
-0.00734192
-0.00684821
-0.00637208
-0.00591309
-0.00547076
-0.0050446
-0.0046341
-0.00423876
-0.00385803
-0.00349136
-0.0031382
-0.00279793
-0.00247
-0.00215376
-0.00184767
-0.00155102
-0.00130759
-0.00109582
-0.032509
-0.0313479
-0.0302105
-0.0290968
-0.0280071
-0.0269412
-0.0258992
-0.0248811
-0.0238868
-0.0229161
-0.0219691
-0.0210457
-0.0201455
-0.0192686
-0.0184146
-0.0175835
-0.0167749
-0.0159887
-0.0152246
-0.0144824
-0.0137616
-0.0130622
-0.0123836
-0.0117257
-0.011088
-0.0104703
-0.00987214
-0.00929315
-0.00873293
-0.00819109
-0.0076672
-0.00716084
-0.00667154
-0.00619884
-0.00574227
-0.00530132
-0.00487548
-0.00446422
-0.00406698
-0.00368321
-0.0033123
-0.00295366
-0.00260668
-0.00227071
-0.00194415
-0.00162625
-0.00136152
-0.00112869
-0.0328772
-0.0317241
-0.0305937
-0.0294863
-0.0284018
-0.0273403
-0.0263018
-0.0252864
-0.0242939
-0.0233244
-0.0223778
-0.021454
-0.0205528
-0.0196741
-0.0188177
-0.0179835
-0.0171713
-0.0163808
-0.0156119
-0.0148641
-0.0141374
-0.0134314
-0.0127458
-0.0120803
-0.0114346
-0.0108083
-0.0102011
-0.00961256
-0.00904232
-0.00848999
-0.00795513
-0.00743731
-0.00693608
-0.00645097
-0.00598149
-0.00552713
-0.00508737
-0.00466168
-0.00424948
-0.0038502
-0.00346323
-0.00308795
-0.00272373
-0.00236992
-0.00202488
-0.00168783
-0.00140364
-0.00115141
-0.0331956
-0.0320498
-0.030926
-0.0298242
-0.0287446
-0.0276872
-0.026652
-0.0256392
-0.0246487
-0.0236804
-0.0227343
-0.0218103
-0.0209083
-0.0200282
-0.0191699
-0.0183331
-0.0175178
-0.0167236
-0.0159504
-0.015198
-0.0144661
-0.0137544
-0.0130626
-0.0123904
-0.0117376
-0.0111037
-0.0104885
-0.0098915
-0.00931238
-0.00875073
-0.00820613
-0.00767814
-0.0071663
-0.00667015
-0.00618918
-0.0057229
-0.00527077
-0.00483223
-0.00440673
-0.00399366
-0.00359242
-0.00320236
-0.00282285
-0.00245322
-0.00209182
-0.00173784
-0.0014363
-0.00116665
-0.0334656
-0.0323264
-0.0312083
-0.0301116
-0.0290364
-0.0279827
-0.0269506
-0.0259402
-0.0249514
-0.0239843
-0.0230388
-0.0221148
-0.0212123
-0.0203312
-0.0194712
-0.0186324
-0.0178144
-0.0170172
-0.0162404
-0.015484
-0.0147476
-0.014031
-0.0133339
-0.012656
-0.011997
-0.0113566
-0.0107345
-0.0101302
-0.00954337
-0.00897364
-0.00842058
-0.00788376
-0.00736271
-0.00685696
-0.00636602
-0.00588938
-0.00542649
-0.0049768
-0.00453974
-0.0041147
-0.00370107
-0.0032982
-0.00290545
-0.00252212
-0.00214659
-0.00177801
-0.00146139
-0.00117654
-0.0336884
-0.0325548
-0.0314418
-0.0303494
-0.029278
-0.0282275
-0.0271981
-0.0261898
-0.0252027
-0.0242367
-0.0232918
-0.0223679
-0.0214651
-0.0205831
-0.0197219
-0.0188813
-0.0180613
-0.0172615
-0.0164819
-0.0157221
-0.014982
-0.0142613
-0.0135598
-0.0128771
-0.012213
-0.0115672
-0.0109392
-0.0103288
-0.00973548
-0.00915896
-0.00859879
-0.00805453
-0.00752572
-0.0070119
-0.00651255
-0.00602718
-0.00555523
-0.00509615
-0.00464936
-0.00421425
-0.0037902
-0.00337656
-0.00297268
-0.00257787
-0.00219049
-0.0018097
-0.00148038
-0.00118271
-0.0338651
-0.0327361
-0.0316272
-0.0305385
-0.0294702
-0.0284224
-0.0273953
-0.0263888
-0.025403
-0.0244379
-0.0234936
-0.0225699
-0.0216668
-0.0207843
-0.0199221
-0.0190802
-0.0182585
-0.0174568
-0.0166748
-0.0159124
-0.0151694
-0.0144455
-0.0137404
-0.0130539
-0.0123857
-0.0117354
-0.0111028
-0.0104874
-0.00988891
-0.00930692
-0.00874102
-0.00819076
-0.0076557
-0.00713536
-0.00662924
-0.00613682
-0.00565756
-0.00519091
-0.00473627
-0.00429305
-0.00386061
-0.0034383
-0.00302546
-0.00262142
-0.00222453
-0.00183394
-0.00149442
-0.00118639
-0.0339967
-0.0328713
-0.0317655
-0.0306796
-0.0296137
-0.028568
-0.0275425
-0.0265375
-0.0255527
-0.0245885
-0.0236446
-0.022721
-0.0218178
-0.0209349
-0.020072
-0.0192292
-0.0184063
-0.0176031
-0.0168194
-0.016055
-0.0153098
-0.0145835
-0.0138757
-0.0131864
-0.0125151
-0.0118615
-0.0112253
-0.0106062
-0.0100038
-0.00941772
-0.00884749
-0.00829271
-0.00775293
-0.00722767
-0.00671643
-0.0062187
-0.00573393
-0.00526157
-0.00480102
-0.00435167
-0.00391291
-0.00348407
-0.00306449
-0.0026535
-0.00224944
-0.00185146
-0.00150426
-0.00118844
-0.0340841
-0.032961
-0.0318574
-0.0307733
-0.0297091
-0.0286648
-0.0276405
-0.0266363
-0.0256524
-0.0246886
-0.0237451
-0.0228217
-0.0219184
-0.0210352
-0.0201719
-0.0193285
-0.0185047
-0.0177005
-0.0169157
-0.0161501
-0.0154034
-0.0146754
-0.0139659
-0.0132746
-0.0126013
-0.0119455
-0.011307
-0.0106854
-0.0100804
-0.00949151
-0.00891838
-0.00836058
-0.00781764
-0.00728908
-0.00677442
-0.00627314
-0.00578468
-0.0053085
-0.00484399
-0.00439057
-0.00394758
-0.00351439
-0.00309032
-0.00267468
-0.00226578
-0.00186272
-0.0015101
-0.00118827
-0.0341276
-0.0330057
-0.0319031
-0.03082
-0.0297566
-0.028713
-0.0276893
-0.0266857
-0.0257021
-0.0247386
-0.0237952
-0.0228719
-0.0219686
-0.0210852
-0.0202218
-0.019378
-0.0185539
-0.0177492
-0.0169638
-0.0161975
-0.0154501
-0.0147214
-0.014011
-0.0133187
-0.0126443
-0.0119875
-0.0113478
-0.0107249
-0.0101186
-0.00952835
-0.00895377
-0.00839445
-0.00784993
-0.00731973
-0.00680336
-0.00630029
-0.00580999
-0.0053319
-0.00486543
-0.00440997
-0.00396491
-0.00352959
-0.00310338
-0.0026856
-0.00227464
-0.00187037
-0.00151687
-0.00117955
)
;

boundaryField
{
    inlet
    {
        type            zeroGradient;
    }
    outlet
    {
        type            fixedValue;
        value           uniform 0;
    }
    cylinder
    {
        type            zeroGradient;
    }
    top
    {
        type            symmetryPlane;
    }
    bottom
    {
        type            symmetryPlane;
    }
    defaultFaces
    {
        type            empty;
    }
    procBoundary7to3
    {
        type            processor;
        value           nonuniform List<scalar> 
51
(
-0.0182706
-0.0171104
-0.0159887
-0.0149051
-0.0138594
-0.0128508
-0.0118791
-0.0109438
-0.0100445
-0.00918067
-0.00835189
-0.00755767
-0.00679754
-0.00607098
-0.00537751
-0.0047166
-0.00408773
-0.00349038
-0.00292402
-0.0023881
-0.00188208
-0.0014054
-0.000957518
-0.000537864
-0.000145874
0.000219027
0.000557415
0.000869876
0.001157
0.00141939
0.00165764
0.00187238
0.00206422
0.00223379
0.00238175
0.00250874
0.00261543
0.00270252
0.00277069
0.00282066
0.00285319
0.00286904
0.00286901
0.00285394
0.00282473
0.00278252
0.00272807
0.00265679
0.00257696
0.00267507
0.00275212
)
;
    }
    procBoundary7to6
    {
        type            processor;
        value           nonuniform List<scalar> 
31
(
-0.0194697
-0.0199035
-0.0195093
-0.0195093
-0.0206467
-0.0220313
-0.0235766
-0.0239428
-0.0239428
-0.0257186
-0.0257588
-0.0257588
-0.0268431
-0.0278658
-0.0287969
-0.0296405
-0.0304067
-0.0311027
-0.0317345
-0.0323067
-0.0328224
-0.0332842
-0.0336938
-0.0340529
-0.0343631
-0.0346258
-0.0348423
-0.0350139
-0.0351416
-0.0352263
-0.0352685
)
;
    }
}


// ************************************************************************* //
