/*--------------------------------*- C++ -*----------------------------------*\
  =========                 |
  \\      /  F ield         | OpenFOAM: The Open Source CFD Toolbox
   \\    /   O peration     | Website:  https://openfoam.org
    \\  /    A nd           | Version:  7
     \\/     M anipulation  |
\*---------------------------------------------------------------------------*/
FoamFile
{
    version     2.0;
    format      ascii;
    class       surfaceScalarField;
    location    "50";
    object      phi;
}
// * * * * * * * * * * * * * * * * * * * * * * * * * * * * * * * * * * * * * //

dimensions      [0 3 -1 0 0 0 0];

internalField   nonuniform List<scalar> 
2638
(
-8.60371e-06
0.0179501
-5.46947e-06
0.0179034
-3.29017e-06
0.0178653
-1.81139e-06
0.0178363
-7.91972e-07
0.0178169
0.0178071
-0.000459429
0.0140251
0.000506838
-0.000397655
0.0153815
-0.000331164
0.0164531
-0.000267897
0.0172313
-0.000212452
0.0177489
-0.000166391
0.0180597
-0.00012936
0.0182206
-0.000100118
0.0182808
-7.71988e-05
0.0182782
-5.92545e-05
0.0182398
-4.51765e-05
0.0181834
-3.41121e-05
0.0181203
-2.54231e-05
0.0180571
-1.86294e-05
0.0179979
-1.33562e-05
0.0179448
-9.29384e-06
0.0178993
-6.17083e-06
0.0178621
-3.7375e-06
0.0178339
-1.75675e-06
0.0178149
0.0178054
-0.00046259
0.01398
0.000507685
-0.0004033
0.0153222
-0.000338907
0.0163887
-0.000277055
0.0171694
-0.000222343
0.0176942
-0.000176485
0.0180139
-0.000139294
0.0181834
-0.000109658
0.0182511
-8.62e-05
0.0182547
-6.76217e-05
0.0182212
-5.28447e-05
0.0181686
-4.10329e-05
0.0181085
-3.15575e-05
0.0180476
-2.39447e-05
0.0179903
-1.78251e-05
0.0179387
-1.28942e-05
0.0178944
-8.88532e-06
0.0178581
-5.55362e-06
0.0178306
-2.6668e-06
0.017812
0.0178027
-0.000464942
0.0139371
0.000507853
-0.000408016
0.0152653
-0.000345658
0.0163263
-0.000285222
0.017109
-0.000231289
0.0176402
-0.000185699
0.0179683
-0.000148419
0.0181461
-0.000118464
0.0182212
-9.45379e-05
0.0182308
-7.53954e-05
0.0182021
-5.99871e-05
0.0181532
-4.74932e-05
0.018096
-3.72948e-05
0.0180374
-2.89242e-05
0.0179819
-2.20175e-05
0.0179318
-1.62757e-05
0.0178886
-1.14372e-05
0.0178533
-7.26212e-06
0.0178264
-3.52304e-06
0.0178083
0.0177992
-0.000466545
0.0138962
0.000507391
-0.00041187
0.0152106
-0.000351483
0.016266
-0.00029246
0.01705
-0.000239341
0.0175871
-0.000194077
0.017923
-0.000156775
0.0181088
-0.000126567
0.018191
-0.000102241
0.0182065
-8.25988e-05
0.0181824
-6.66227e-05
0.0181372
-5.35087e-05
0.0180828
-4.26473e-05
0.0180266
-3.35777e-05
0.0179728
-2.59414e-05
0.0179241
-1.94444e-05
0.0178821
-1.38305e-05
0.0178477
-8.86562e-06
0.0178214
-4.3271e-06
0.0178037
0.0177949
-0.000467455
0.0138574
0.000506348
-0.000414925
0.0151581
-0.000356447
0.0162075
-0.000298826
0.0169923
-0.000246552
0.0175348
-0.000201665
0.0178781
-0.0001644
0.0180716
-0.000134001
0.0181606
-0.000109335
0.0181818
-8.92553e-05
0.0181623
-7.2771e-05
0.0181208
-5.90953e-05
0.0180692
-4.76282e-05
0.0180151
-3.79157e-05
0.0179631
-2.96046e-05
0.0179158
-2.24061e-05
0.0178749
-1.607e-05
0.0178413
-1.03669e-05
0.0178157
-5.0801e-06
0.0177985
0.0177898
-0.000467726
0.0138203
0.000504768
-0.000417241
0.0151076
-0.000360609
0.0161508
-0.000304376
0.0169361
-0.000252971
0.0174834
-0.000208504
0.0178336
-0.00017133
0.0180344
-0.000140798
0.01813
-0.00011585
0.0181569
-9.53881e-05
0.0181419
-7.84515e-05
0.0181038
-6.42692e-05
0.018055
-5.2251e-05
0.0180031
-4.19489e-05
0.0179528
-3.30156e-05
0.0179069
-2.51674e-05
0.0178671
-1.81595e-05
0.0178343
-1.17689e-05
0.0178093
-5.78383e-06
0.0177925
0.017784
-0.000467407
0.013785
0.000502696
-0.000418873
0.0150591
-0.000364026
0.016096
-0.000309163
0.0168813
-0.000258644
0.0174329
-0.000214637
0.0177896
-0.000177602
0.0179973
-0.000146988
0.0180994
-0.000121811
0.0181317
-0.00010102
0.0181211
-8.36837e-05
0.0180865
-6.90467e-05
0.0180404
-5.65285e-05
0.0179906
-4.5688e-05
0.017942
-3.61826e-05
0.0178974
-2.77346e-05
0.0178586
-2.01047e-05
0.0178267
-1.30747e-05
0.0178023
-6.43958e-06
0.0177858
0.0177775
-0.000466547
0.0137514
0.000500173
-0.000419874
0.0150124
-0.00036675
0.0160429
-0.000313237
0.0168277
-0.000263617
0.0173833
-0.000220103
0.0177461
-0.000183251
0.0179605
-0.000152602
0.0180688
-0.000127244
0.0181063
-0.000106174
0.0181
-8.84869e-05
0.0180688
-7.34442e-05
0.0180253
-6.04749e-05
0.0179776
-4.91441e-05
0.0179306
-3.91148e-05
0.0178874
-3.01147e-05
0.0178496
-2.19095e-05
0.0178185
-1.42874e-05
0.0177947
-7.04865e-06
0.0177786
0.0177705
-0.00046519
0.0137194
0.000497239
-0.000420292
0.0149675
-0.000368833
0.0159914
-0.000316646
0.0167756
-0.000267933
0.0173346
-0.000224941
0.0177031
-0.00018831
0.0179239
-0.000157671
0.0180381
-0.000132177
0.0180808
-0.000110873
0.0180787
-9.28803e-05
0.0180508
-7.74778e-05
0.0180099
-6.41034e-05
0.0179642
-5.23284e-05
0.0179189
-4.18212e-05
0.0178769
-3.23145e-05
0.0178401
-2.35796e-05
0.0178098
-1.54104e-05
0.0177865
-7.61288e-06
0.0177708
0.0177629
-0.000463378
0.0136888
0.00049393
-0.000420176
0.0149243
-0.000370323
0.0159416
-0.000319437
0.0167247
-0.000271635
0.0172868
-0.000229189
0.0176607
-0.000192814
0.0178875
-0.000162222
0.0180075
-0.000136635
0.0180553
-0.000115138
0.0180572
-9.68831e-05
0.0180326
-8.11638e-05
0.0179942
-6.74277e-05
0.0179505
-5.5252e-05
0.0179067
-4.43105e-05
0.0178659
-3.43408e-05
0.0178302
-2.51197e-05
0.0178005
-1.64469e-05
0.0177778
-8.13416e-06
0.0177625
0.0177548
-0.000461152
0.0136597
0.000490283
-0.000419568
0.0148827
-0.000371264
0.0158933
-0.000321652
0.0166751
-0.000274763
0.0172399
-0.000232881
0.0176188
-0.000196793
0.0178514
-0.000166285
0.017977
-0.000140641
0.0180296
-0.000118991
0.0180356
-0.000100514
0.0180141
-8.45182e-05
0.0179782
-7.04609e-05
0.0179364
-5.79259e-05
0.0178941
-4.65917e-05
0.0178546
-3.62006e-05
0.0178198
-2.65352e-05
0.0177909
-1.74003e-05
0.0177687
-8.61388e-06
0.0177537
0.0177461
-0.000458548
0.0136319
0.000486331
-0.000418509
0.0148427
-0.000371699
0.0158464
-0.000323333
0.0166267
-0.000277353
0.0171939
-0.000236053
0.0175775
-0.000200278
0.0178156
-0.000169885
0.0179466
-0.00014422
0.0180039
-0.000122454
0.0180138
-0.000103791
0.0179954
-8.75565e-05
0.017962
-7.32168e-05
0.0179221
-6.03613e-05
0.0178813
-4.86736e-05
0.0178429
-3.7901e-05
0.017809
-2.78308e-05
0.0177808
-1.82738e-05
0.0177592
-9.05347e-06
0.0177445
0.0177371
-0.000455602
0.0136054
0.000482104
-0.000417039
0.0148041
-0.000371668
0.0158011
-0.000324519
0.0165795
-0.000279444
0.0171488
-0.000238738
0.0175368
-0.000203299
0.0177802
-0.000173051
0.0179164
-0.000147396
0.0179783
-0.000125546
0.017992
-0.000106732
0.0179766
-9.02944e-05
0.0179455
-7.57083e-05
0.0179075
-6.25692e-05
0.0178681
-5.05652e-05
0.0178309
-3.94487e-05
0.0177979
-2.90119e-05
0.0177704
-1.9071e-05
0.0177492
-9.45495e-06
0.0177349
0.0177276
-0.000452347
0.0135801
0.000477632
-0.000415192
0.014767
-0.000371209
0.0157571
-0.000325247
0.0165336
-0.000281069
0.0171047
-0.000240967
0.0174967
-0.000205884
0.0177451
-0.000175807
0.0178863
-0.000150191
0.0179527
-0.000128288
0.0179701
-0.000109355
0.0179577
-9.2747e-05
0.0179289
-7.79483e-05
0.0178927
-6.45601e-05
0.0178548
-5.22755e-05
0.0178186
-4.08508e-05
0.0177864
-3.00836e-05
0.0177596
-1.9795e-05
0.0177389
-9.81973e-06
0.0177249
0.0177178
-0.000448813
0.013556
0.000472943
-0.000413005
0.0147312
-0.000370356
0.0157144
-0.000325551
0.0164888
-0.000282261
0.0170614
-0.00024277
0.0174572
-0.000208061
0.0177104
-0.000178178
0.0178564
-0.000152627
0.0179271
-0.0001307
0.0179481
-0.000111677
0.0179386
-9.4929e-05
0.0179122
-7.99494e-05
0.0178777
-6.63449e-05
0.0178412
-5.38129e-05
0.0178061
-4.2114e-05
0.0177747
-3.10507e-05
0.0177485
-2.04492e-05
0.0177283
-1.01499e-05
0.0177146
0.0177077
-0.00044503
0.0135329
0.000468063
-0.000410507
0.0146966
-0.000369145
0.0156731
-0.000325465
0.0164451
-0.000283052
0.017019
-0.000244176
0.0174183
-0.000209856
0.0176761
-0.000180188
0.0178268
-0.000154726
0.0179017
-0.0001328
0.0179262
-0.000113714
0.0179196
-9.6855e-05
0.0178953
-8.17241e-05
0.0178626
-6.79338e-05
0.0178274
-5.51858e-05
0.0177933
-4.32451e-05
0.0177628
-3.19183e-05
0.0177372
-2.10369e-05
0.0177174
-1.04465e-05
0.017704
0.0176972
-0.000441025
0.0135109
0.000463014
-0.00040773
0.0146634
-0.000367605
0.015633
-0.000325019
0.0164025
-0.000283471
0.0169774
-0.000245214
0.0173801
-0.000211295
0.0176422
-0.000181859
0.0177973
-0.000156508
0.0178763
-0.000134606
0.0179043
-0.000115483
0.0179004
-9.8539e-05
0.0178784
-8.32845e-05
0.0178473
-6.93371e-05
0.0178134
-5.64027e-05
0.0177804
-4.42505e-05
0.0177507
-3.26912e-05
0.0177257
-2.15612e-05
0.0177063
-1.07114e-05
0.0176932
0.0176865
-0.000436822
0.0134899
0.00045782
-0.000404701
0.0146312
-0.000365767
0.015594
-0.000324245
0.016361
-0.000283548
0.0169367
-0.000245908
0.0173424
-0.0002124
0.0176086
-0.000183213
0.0177681
-0.000157992
0.0178511
-0.000136136
0.0178824
-0.000116999
0.0178813
-9.99946e-05
0.0178614
-8.46422e-05
0.017832
-7.05647e-05
0.0177993
-5.74718e-05
0.0177673
-4.51367e-05
0.0177383
-3.33741e-05
0.0177139
-2.20255e-05
0.017695
-1.09461e-05
0.0176821
0.0176756
-0.000432446
0.0134699
0.000452502
-0.000401446
0.0146002
-0.000363658
0.0155562
-0.000323168
0.0163205
-0.000283307
0.0168968
-0.000246284
0.0173054
-0.000213196
0.0175756
-0.000184271
0.0177392
-0.000159197
0.017826
-0.000137407
0.0178607
-0.000118277
0.0178622
-0.000101235
0.0178443
-8.58087e-05
0.0178166
-7.16263e-05
0.0177852
-5.84012e-05
0.0177541
-4.59101e-05
0.0177258
-3.39722e-05
0.017702
-2.24327e-05
0.0176834
-1.11524e-05
0.0176708
0.0176644
-0.000427917
0.0134507
0.000447079
-0.000397989
0.0145703
-0.000361303
0.0155195
-0.000321816
0.016281
-0.000282775
0.0168578
-0.000246366
0.017269
-0.000213703
0.0175429
-0.000185053
0.0177106
-0.000160142
0.0178011
-0.000138436
0.0178389
-0.000119332
0.0178431
-0.000102273
0.0178273
-8.67953e-05
0.0178011
-7.25312e-05
0.0177709
-5.91983e-05
0.0177407
-4.65767e-05
0.0177132
-3.44894e-05
0.0176899
-2.27859e-05
0.0176717
-1.13316e-05
0.0176593
0.0176531
-0.000423257
0.0134324
0.000441568
-0.000394353
0.0145414
-0.000358728
0.0154839
-0.000320213
0.0162425
-0.000281976
0.0168196
-0.000246177
0.0172332
-0.000213944
0.0175107
-0.000185578
0.0176822
-0.000160844
0.0177764
-0.000139237
0.0178173
-0.000120177
0.017824
-0.000103121
0.0178102
-8.76124e-05
0.0177856
-7.32886e-05
0.0177566
-5.9871e-05
0.0177273
-4.71426e-05
0.0177005
-3.49304e-05
0.0176777
-2.3088e-05
0.0176599
-1.14849e-05
0.0176477
0.0176416
-0.000418484
0.0134149
0.000435986
-0.000390559
0.0145135
-0.000355954
0.0154493
-0.000318381
0.0162049
-0.000280931
0.0167821
-0.000245737
0.017198
-0.000213937
0.0174789
-0.000185864
0.0176541
-0.000161319
0.0177518
-0.000139827
0.0177958
-0.000120827
0.017805
-0.000103791
0.0177932
-8.82704e-05
0.0177701
-7.39072e-05
0.0177422
-6.0426e-05
0.0177138
-4.76136e-05
0.0176877
-3.52996e-05
0.0176653
-2.33419e-05
0.0176479
-1.16145e-05
0.017636
0.01763
-0.000413616
0.0133982
0.000430348
-0.000386626
0.0144865
-0.000353003
0.0154157
-0.000316343
0.0161683
-0.000279663
0.0167454
-0.000245066
0.0171634
-0.000213701
0.0174475
-0.000185929
0.0176264
-0.000161584
0.0177275
-0.000140218
0.0177745
-0.000121294
0.0177861
-0.000104295
0.0177762
-8.87794e-05
0.0177545
-7.43957e-05
0.0177278
-6.08711e-05
0.0177003
-4.79952e-05
0.0176748
-3.56014e-05
0.017653
-2.35504e-05
0.0176359
-1.17209e-05
0.0176242
0.0176183
-0.000408668
0.0133822
0.000424669
-0.000382574
0.0144604
-0.000349893
0.015383
-0.000314119
0.0161325
-0.000278191
0.0167095
-0.000244185
0.0171294
-0.000213255
0.0174166
-0.00018579
0.0175989
-0.000161653
0.0177033
-0.000140426
0.0177533
-0.000121591
0.0177672
-0.000104643
0.0177592
-8.9149e-05
0.017739
-7.47621e-05
0.0177134
-6.12127e-05
0.0176868
-4.8293e-05
0.0176619
-3.58391e-05
0.0176405
-2.37162e-05
0.0176237
-1.18058e-05
0.0176123
0.0176064
-0.000403657
0.0133669
0.000418961
-0.000378418
0.0144352
-0.000346645
0.0153512
-0.000311727
0.0160976
-0.000276534
0.0166743
-0.00024311
0.017096
-0.000212615
0.0173861
-0.000185461
0.0175717
-0.000161542
0.0176794
-0.000140464
0.0177322
-0.000121729
0.0177485
-0.000104845
0.0177423
-8.93884e-05
0.0177236
-7.50145e-05
0.0176991
-6.14574e-05
0.0176732
-4.85121e-05
0.0176489
-3.60177e-05
0.017628
-2.3842e-05
0.0176116
-1.18709e-05
0.0176003
0.0175946
-0.000398594
0.0133522
0.000413236
-0.000374174
0.0144107
-0.000343275
0.0153203
-0.000309185
0.0160635
-0.000274709
0.0166398
-0.000241859
0.0170631
-0.000211798
0.017356
-0.000184959
0.0175449
-0.000161263
0.0176557
-0.000140343
0.0177113
-0.000121719
0.0177299
-0.000104913
0.0177255
-8.95064e-05
0.0177082
-7.51603e-05
0.0176847
-6.16117e-05
0.0176597
-4.86576e-05
0.017636
-3.61401e-05
0.0176155
-2.39301e-05
0.0175994
-1.19171e-05
0.0175883
0.0175827
-0.000393494
0.0133382
0.000407505
-0.000369858
0.0143871
-0.000339797
0.0152903
-0.000306511
0.0160302
-0.000272733
0.0166061
-0.000240448
0.0170308
-0.000210818
0.0173264
-0.000184296
0.0175184
-0.00016083
0.0176323
-0.000140076
0.0176905
-0.000121574
0.0177114
-0.000104856
0.0177088
-8.95115e-05
0.0176928
-7.5207e-05
0.0176704
-6.16813e-05
0.0176461
-4.87344e-05
0.017623
-3.62103e-05
0.017603
-2.39832e-05
0.0175871
-1.19454e-05
0.0175762
0.0175707
-0.000388367
0.0133248
0.000401777
-0.000365481
0.0143642
-0.000336229
0.015261
-0.000303719
0.0159977
-0.000270622
0.016573
-0.000238892
0.0169991
-0.00020969
0.0172972
-0.000183487
0.0174922
-0.000160255
0.017609
-0.000139675
0.0176699
-0.000121302
0.017693
-0.000104682
0.0176922
-8.9412e-05
0.0176776
-7.51615e-05
0.0176562
-6.16726e-05
0.0176327
-4.87472e-05
0.0176101
-3.62319e-05
0.0175904
-2.40034e-05
0.0175749
-1.19573e-05
0.0175642
0.0175588
-0.000383225
0.013312
0.000396063
-0.000361057
0.014342
-0.000332582
0.0152326
-0.000300823
0.0159659
-0.00026839
0.0165405
-0.000237205
0.0169679
-0.000208428
0.0172684
-0.000182544
0.0174663
-0.000159551
0.017586
-0.000139149
0.0176495
-0.000120914
0.0176748
-0.000104401
0.0176757
-8.92154e-05
0.0176624
-7.50305e-05
0.017642
-6.15908e-05
0.0176192
-4.87005e-05
0.0175972
-3.62083e-05
0.017578
-2.39931e-05
0.0175627
-1.19538e-05
0.0175522
0.0175468
-0.000378077
0.0132997
0.000390369
-0.000356596
0.0143206
-0.000328869
0.0152048
-0.000297838
0.0159349
-0.000266051
0.0165087
-0.000235401
0.0169373
-0.000207043
0.01724
-0.00018148
0.0174407
-0.000158728
0.0175633
-0.00013851
0.0176293
-0.000120419
0.0176567
-0.000104022
0.0176593
-8.89295e-05
0.0176473
-7.48203e-05
0.0176279
-6.14414e-05
0.0176058
-4.85984e-05
0.0175844
-3.61423e-05
0.0175655
-2.39544e-05
0.0175505
-1.1936e-05
0.0175401
0.0175349
-0.000372931
0.0132879
0.000384704
-0.00035211
0.0142997
-0.000325103
0.0151778
-0.000294775
0.0159046
-0.000263617
0.0164776
-0.000233491
0.0169072
-0.000205549
0.0172121
-0.000180304
0.0174155
-0.000157796
0.0175408
-0.000137768
0.0176093
-0.000119826
0.0176387
-0.000103551
0.017643
-8.85609e-05
0.0176323
-7.45372e-05
0.0176138
-6.12294e-05
0.0175925
-4.84453e-05
0.0175716
-3.60374e-05
0.0175531
-2.38893e-05
0.0175384
-1.1905e-05
0.0175282
0.017523
-0.000367797
0.0132766
0.000379073
-0.000347607
0.0142795
-0.000321293
0.0151515
-0.000291646
0.0158749
-0.000261101
0.016447
-0.000231488
0.0168775
-0.000203956
0.0171846
-0.000179029
0.0173906
-0.000156766
0.0175185
-0.00013693
0.0175894
-0.000119143
0.017621
-0.000102997
0.0176269
-8.81166e-05
0.0176174
-7.41869e-05
0.0175999
-6.09597e-05
0.0175793
-4.82449e-05
0.0175589
-3.58964e-05
0.0175407
-2.37999e-05
0.0175263
-1.18618e-05
0.0175162
0.0175111
-0.000362681
0.0132658
0.000373484
-0.000343097
0.01426
-0.000317451
0.0151259
-0.000288463
0.0158459
-0.000258512
0.0164171
-0.000229403
0.0168484
-0.000202274
0.0171574
-0.000177664
0.0173659
-0.000155648
0.0174965
-0.000136007
0.0175698
-0.000118379
0.0176033
-0.000102368
0.0176108
-8.7603e-05
0.0176027
-7.37749e-05
0.0175861
-6.06373e-05
0.0175662
-4.80011e-05
0.0175462
-3.57223e-05
0.0175285
-2.36881e-05
0.0175142
-1.1807e-05
0.0175043
0.0174993
-0.00035759
0.0132555
0.000367942
-0.000338588
0.014241
-0.000313585
0.0151009
-0.000285233
0.0158176
-0.000255862
0.0163877
-0.000227245
0.0168198
-0.000200515
0.0171307
-0.000176219
0.0173417
-0.000154449
0.0174747
-0.000135006
0.0175504
-0.000117541
0.0175859
-0.000101669
0.017595
-8.70261e-05
0.017588
-7.33066e-05
0.0175724
-6.02662e-05
0.0175531
-4.77175e-05
0.0175337
-3.55174e-05
0.0175163
-2.35556e-05
0.0175023
-1.17421e-05
0.0174925
0.0174876
-0.000352531
0.0132456
0.000362451
-0.000334087
0.0142225
-0.000309703
0.0150765
-0.000281968
0.0157898
-0.000253161
0.0163589
-0.000225024
0.0167917
-0.000198687
0.0171044
-0.000174702
0.0173177
-0.000153179
0.0174532
-0.000133935
0.0175311
-0.000116636
0.0175686
-0.000100907
0.0175792
-8.63919e-05
0.0175735
-7.27869e-05
0.0175588
-5.98508e-05
0.0175402
-4.73973e-05
0.0175212
-3.52849e-05
0.0175042
-2.34042e-05
0.0174904
-1.16676e-05
0.0174808
0.0174759
-0.000347508
0.0132361
0.000357016
-0.0003296
0.0142046
-0.000305813
0.0150527
-0.000278675
0.0157627
-0.000250416
0.0163307
-0.00022275
0.016764
-0.000196798
0.0170784
-0.000173122
0.017294
-0.000151845
0.0174319
-0.000132801
0.0175121
-0.000115672
0.0175514
-0.000100089
0.0175637
-8.57056e-05
0.0175591
-7.22207e-05
0.0175453
-5.93952e-05
0.0175274
-4.70439e-05
0.0175089
-3.50267e-05
0.0174921
-2.32355e-05
0.0174786
-1.15844e-05
0.0174691
0.0174643
-0.000342527
0.0132269
0.00035164
-0.000325133
0.0141872
-0.000301922
0.0150295
-0.000275363
0.0157361
-0.000247636
0.0163029
-0.00022043
0.0167368
-0.000194857
0.0170528
-0.000171487
0.0172706
-0.000150455
0.0174109
-0.000131612
0.0174932
-0.000114653
0.0175345
-9.92206e-05
0.0175482
-8.49723e-05
0.0175449
-7.16124e-05
0.0175319
-5.89028e-05
0.0175146
-4.66604e-05
0.0174966
-3.47453e-05
0.0174802
-2.3051e-05
0.0174669
-1.1493e-05
0.0174576
0.0174528
-0.000337592
0.0132182
0.000346328
-0.000320693
0.0141703
-0.000298038
0.0150068
-0.000272037
0.0157101
-0.000244828
0.0162757
-0.000218072
0.01671
-0.000192873
0.0170276
-0.000169803
0.0172476
-0.000149016
0.0173901
-0.000130374
0.0174746
-0.000113587
0.0175177
-9.83066e-05
0.017533
-8.4197e-05
0.0175308
-7.09662e-05
0.0175187
-5.83779e-05
0.0175021
-4.62496e-05
0.0174845
-3.4443e-05
0.0174684
-2.28523e-05
0.0174553
-1.13945e-05
0.0174461
0.0174414
-0.000332707
0.0132098
0.000341082
-0.000316284
0.0141539
-0.000294165
0.0149847
-0.000268706
0.0156847
-0.000242001
0.016249
-0.000215684
0.0166837
-0.00019085
0.0170028
-0.000168079
0.0172248
-0.000147533
0.0173696
-0.000129093
0.0174561
-0.000112478
0.0175011
-9.73524e-05
0.0175178
-8.33846e-05
0.0175168
-7.02862e-05
0.0175056
-5.78233e-05
0.0174896
-4.58144e-05
0.0174725
-3.41217e-05
0.0174567
-2.26407e-05
0.0174438
-1.12894e-05
0.0174348
0.0174301
-0.000327875
0.0132018
0.000335904
-0.00031191
0.0141379
-0.000290308
0.0149631
-0.000265375
0.0156598
-0.000239159
0.0162228
-0.000213271
0.0166578
-0.000188797
0.0169783
-0.000166319
0.0172023
-0.000146014
0.0173493
-0.000127774
0.0174379
-0.000111333
0.0174846
-9.6363e-05
0.0175029
-8.2539e-05
0.017503
-6.95763e-05
0.0174926
-5.72425e-05
0.0174773
-4.53572e-05
0.0174606
-3.37834e-05
0.0174451
-2.24176e-05
0.0174325
-1.11788e-05
0.0174235
0.0174189
-0.0003231
0.0131941
0.000330797
-0.000307576
0.0141224
-0.000286474
0.014942
-0.000262049
0.0156353
-0.00023631
0.0161971
-0.000210841
0.0166324
-0.000186719
0.0169542
-0.000164531
0.0171801
-0.000144464
0.0173292
-0.000126424
0.0174199
-0.000110156
0.0174684
-9.53429e-05
0.017488
-8.16646e-05
0.0174893
-6.884e-05
0.0174798
-5.66387e-05
0.0174651
-4.48807e-05
0.0174489
-3.34303e-05
0.0174337
-2.21842e-05
0.0174212
-1.10625e-05
0.0174124
0.0174079
-0.000318384
0.0131867
0.000325763
-0.000303285
0.0141073
-0.000282666
0.0149214
-0.000258734
0.0156114
-0.000233458
0.0161718
-0.000208398
0.0166073
-0.000184621
0.0169304
-0.000162719
0.0171582
-0.000142888
0.0173094
-0.000125047
0.017402
-0.000108953
0.0174523
-9.42965e-05
0.0174734
-8.07651e-05
0.0174758
-6.80807e-05
0.0174671
-5.60141e-05
0.017453
-4.43872e-05
0.0174372
-3.30638e-05
0.0174224
-2.19418e-05
0.0174101
-1.0942e-05
0.0174014
0.0173969
-0.00031373
0.0131797
0.000320803
-0.00029904
0.0140926
-0.000278889
0.0149012
-0.000255434
0.0155879
-0.000230609
0.016147
-0.000205948
0.0165827
-0.000182511
0.016907
-0.000160889
0.0171366
-0.000141291
0.0172898
-0.000123647
0.0173844
-0.000107726
0.0174363
-9.32277e-05
0.0174589
-7.98443e-05
0.0174624
-6.73015e-05
0.0174546
-5.53723e-05
0.0174411
-4.38788e-05
0.0174257
-3.26857e-05
0.0174112
-2.16914e-05
0.0173991
-1.08173e-05
0.0173905
0.0173861
-0.00030914
0.0131729
0.000315919
-0.000294845
0.0140783
-0.000275145
0.0148815
-0.000252154
0.0155649
-0.000227767
0.0161226
-0.000203496
0.0165584
-0.000180391
0.0168839
-0.000159046
0.0171152
-0.000139678
0.0172704
-0.00012223
0.0173669
-0.000106481
0.0174206
-9.21403e-05
0.0174445
-7.89054e-05
0.0174491
-6.65056e-05
0.0174422
-5.47154e-05
0.0174293
-4.33576e-05
0.0174144
-3.22976e-05
0.0174001
-2.14341e-05
0.0173882
-1.06893e-05
0.0173798
0.0173754
-0.000304615
0.0131664
0.000311112
-0.000290701
0.0140644
-0.000271438
0.0148623
-0.000248897
0.0155424
-0.000224937
0.0160986
-0.000201047
0.0165345
-0.000178267
0.0168611
-0.000157194
0.0170942
-0.000138053
0.0172513
-0.000120799
0.0173497
-0.000105222
0.017405
-9.10379e-05
0.0174304
-7.79518e-05
0.0174361
-6.56957e-05
0.0174299
-5.40459e-05
0.0174176
-4.28257e-05
0.0174032
-3.19012e-05
0.0173892
-2.11709e-05
0.0173775
-1.05578e-05
0.0173692
0.0173649
-0.000300157
0.0131602
0.000306382
-0.000286612
0.0140509
-0.000267772
0.0148434
-0.000245667
0.0155203
-0.000222122
0.0160751
-0.000198604
0.016511
-0.000176142
0.0168387
-0.000155337
0.0170734
-0.00013642
0.0172323
-0.000119358
0.0173326
-0.000103951
0.0173896
-8.99238e-05
0.0174163
-7.69864e-05
0.0174231
-6.48744e-05
0.0174178
-5.33658e-05
0.0174061
-4.22848e-05
0.0173921
-3.14972e-05
0.0173784
-2.09028e-05
0.0173669
-1.04243e-05
0.0173587
0.0173545
-0.000295767
0.0131542
0.000301731
-0.000282578
0.0140377
-0.000264148
0.014825
-0.000242467
0.0154986
-0.000219326
0.0160519
-0.000196171
0.0164878
-0.000174022
0.0168165
-0.000153479
0.0170528
-0.000134783
0.0172136
-0.000117911
0.0173157
-0.000102673
0.0173744
-8.88011e-05
0.0174025
-7.60121e-05
0.0174103
-6.40443e-05
0.0174058
-5.26774e-05
0.0173948
-4.17366e-05
0.0173811
-3.10879e-05
0.0173678
-2.06306e-05
0.0173564
-1.02884e-05
0.0173484
0.0173442
-0.000291446
-0.000278601
-0.000260569
-0.000239299
-0.000216552
-0.000193751
-0.000171908
-0.000151624
-0.000133146
-0.000116461
-0.00010139
-8.76727e-05
-7.50314e-05
-6.32077e-05
-5.1983e-05
-4.11829e-05
-3.06738e-05
-2.03552e-05
-1.01508e-05
0.00917776
0.000505193
0.00917988
0.000504718
0.00918392
0.000503653
0.00918973
0.000502042
0.00919719
0.000499929
0.00920618
0.000497353
0.0092166
0.000494353
0.00922833
0.000490967
0.00924127
0.000487231
0.00925533
0.000483177
0.00927042
0.000478838
0.00928646
0.000474243
0.00930337
0.00046942
0.00932108
0.000464395
0.00933952
0.000459194
0.00935863
0.000453839
0.00937834
0.000448351
0.0093986
0.000442751
0.00941936
0.000437057
0.00944058
0.000431286
0.0094622
0.000425454
0.00948419
0.000419576
0.00950652
0.000413665
0.00952913
0.000407733
0.00955201
0.000401792
0.00957512
0.000395852
0.00959843
0.000389922
0.00962192
0.000384012
0.00964557
0.000378128
0.00966936
0.000372279
0.00969326
0.00036647
0.00971725
0.000360707
0.00974133
0.000354995
0.00976548
0.000349339
0.00978967
0.000343743
0.00981392
0.000338211
0.00983819
0.000332745
0.00986248
0.000327349
0.00988678
0.000322025
0.00991109
0.000316774
0.00993539
0.000311599
0.00995969
0.000306502
0.00998397
0.000301482
0.0100082
0.000296542
0.0100325
0.000291682
0.0100567
0.000286902
0.0100809
0.000282202
0.000277584
0.00847478
0.000490261
0.00849084
0.000489127
0.00850811
0.000487449
0.0085265
0.000485268
0.00854591
0.000482627
0.00856628
0.000479564
0.00858751
0.000476117
0.00860954
0.000472322
0.0086323
0.000468211
0.00865571
0.000463817
0.00867972
0.000459169
0.00870426
0.000454296
0.00872928
0.000449225
0.00875472
0.000443979
0.00878054
0.000438582
0.00880668
0.000433055
0.0088331
0.000427418
0.00885976
0.000421689
0.00888662
0.000415886
0.00891366
0.000410025
0.00894082
0.000404119
0.0089681
0.000398182
0.00899545
0.000392227
0.00902285
0.000386265
0.00905027
0.000380305
0.00907771
0.000374358
0.00910513
0.000368431
0.00913252
0.000362533
0.00915986
0.000356671
0.00918714
0.00035085
0.00921434
0.000345076
0.00924145
0.000339355
0.00926847
0.00033369
0.00929538
0.000328087
0.00932217
0.000322547
0.00934884
0.000317075
0.00937538
0.000311673
0.00940178
0.000306344
0.00942804
0.000301088
0.00945415
0.000295909
0.00948012
0.000290807
0.00950594
0.000285784
0.0095316
0.000280839
0.0095571
0.000275975
0.00958246
0.000271191
0.00960765
0.000266488
0.00963269
0.000261866
0.00965756
0.000257324
0.00746786
0.000455746
0.00750351
0.000454608
0.0075397
0.000452944
0.00757635
0.000450797
0.00761341
0.000448207
0.00765083
0.000445213
0.00768854
0.000441852
0.0077265
0.00043816
0.00776465
0.000434169
0.00780295
0.000429911
0.00784135
0.000425414
0.00787981
0.000420706
0.0079183
0.000415812
0.00795677
0.000410757
0.00799518
0.000405563
0.00803351
0.00040025
0.00807173
0.000394836
0.00810981
0.000389341
0.00814772
0.000383779
0.00818544
0.000378167
0.00822295
0.000372517
0.00826022
0.000366842
0.00829725
0.000361154
0.00833402
0.000355463
0.0083705
0.000349779
0.0084067
0.000344111
0.00844259
0.000338466
0.00847817
0.000332851
0.00851343
0.000327273
0.00854836
0.000321738
0.00858296
0.00031625
0.00861722
0.000310815
0.00865114
0.000305437
0.00868471
0.000300118
0.00871794
0.000294863
0.00875081
0.000289673
0.00878333
0.000284552
0.00881551
0.000279501
0.00884733
0.000274522
0.0088788
0.000269616
0.00890992
0.000264785
0.0089407
0.000260029
0.00897114
0.00025535
0.00900123
0.000250747
0.00903098
0.000246221
0.0090604
0.000241772
0.00908949
0.000237401
0.00911825
0.000233106
0.000228888
0.00626305
0.00039869
0.0063208
0.000397991
0.00637862
0.000396795
0.00643642
0.000395138
0.00649416
0.000393058
0.00655178
0.000390592
0.00660921
0.000387775
0.00666643
0.000384639
0.00672337
0.000381216
0.00678001
0.000377536
0.00683629
0.000373626
0.00689219
0.000369513
0.00694767
0.000365222
0.00700271
0.000360774
0.00705728
0.000356191
0.00711135
0.000351494
0.0071649
0.000346699
0.00721791
0.000341823
0.00727037
0.000336883
0.00732226
0.000331892
0.00737356
0.000326863
0.00742427
0.000321808
0.00747438
0.000316737
0.00752387
0.000311661
0.00757274
0.000306589
0.00762099
0.000301529
0.00766862
0.000296488
0.00771561
0.000291473
0.00776197
0.000286489
0.0078077
0.000281543
0.0078528
0.000276639
0.00789727
0.00027178
0.00794111
0.000266972
0.00798433
0.000262217
0.00802693
0.000257518
0.00806892
0.000252878
0.00811029
0.000248299
0.00815106
0.000243782
0.00819123
0.00023933
0.00823081
0.000234943
0.0082698
0.000230624
0.00830821
0.000226371
0.00834606
0.000222187
0.00838334
0.000218071
0.00842006
0.000214024
0.00845623
0.000210046
0.00849187
0.000206137
0.00852697
0.000202297
0.00856155
0.000198526
0.000194823
0.00508269
0.000319824
0.00516143
0.000319252
0.00523995
0.000318276
0.00531816
0.000316925
0.00539599
0.000315229
0.00547336
0.000313217
0.00555022
0.000310917
0.0056265
0.000308357
0.00570216
0.000305562
0.00577714
0.000302556
0.0058514
0.000299363
0.00592491
0.000296004
0.00599763
0.000292499
0.00606954
0.000288868
0.0061406
0.000285127
0.0062108
0.000281294
0.00628012
0.000277382
0.00634854
0.000273406
0.00641604
0.000269379
0.00648262
0.000265311
0.00654827
0.000261214
0.00661298
0.000257098
0.00667675
0.00025297
0.00673957
0.00024884
0.00680144
0.000244714
0.00686237
0.0002406
0.00692236
0.000236502
0.0069814
0.000232427
0.00703951
0.000228379
0.00709669
0.000224363
0.00715295
0.000220382
0.00720829
0.00021644
0.00726272
0.00021254
0.00731626
0.000208683
0.0073689
0.000204874
0.00742067
0.000201113
0.00747156
0.000197403
0.0075216
0.000193744
0.00757079
0.000190138
0.00761915
0.000186586
0.00766669
0.000183089
0.00771341
0.000179648
0.00775933
0.000176262
0.00780447
0.000172932
0.00784884
0.000169659
0.00789244
0.000166442
0.0079353
0.000163281
0.00797742
0.000160177
0.00801882
0.000157128
0.000154135
0.00394137
0.00022361
0.00403765
0.000223545
0.00413372
0.000223176
0.00422948
0.000222521
0.0043248
0.000221601
0.00441959
0.000220436
0.00451377
0.000219044
0.00460724
0.000217448
0.00469993
0.000215664
0.00479178
0.000213711
0.00488273
0.000211608
0.00497272
0.00020937
0.00506171
0.000207012
0.00514966
0.00020455
0.00523653
0.000201997
0.00532229
0.000199365
0.00540692
0.000196666
0.00549039
0.000193911
0.00557269
0.000191109
0.0056538
0.000188271
0.0057337
0.000185403
0.0058124
0.000182515
0.00588989
0.000179612
0.00596616
0.000176701
0.00604121
0.000173788
0.00611505
0.000170878
0.00618767
0.000167976
0.00625909
0.000165086
0.0063293
0.000162212
0.00639832
0.000159358
0.00646616
0.000156525
0.00653283
0.000153718
0.00659833
0.000150939
0.00666268
0.000148189
0.00672589
0.00014547
0.00678798
0.000142785
0.00684896
0.000140134
0.00690884
0.000137518
0.00696765
0.00013494
0.00702539
0.000132399
0.00708208
0.000129896
0.00713774
0.000127432
0.00719238
0.000125007
0.00724602
0.000122622
0.00729867
0.000120277
0.00735036
0.000117971
0.0074011
0.000115706
0.0074509
0.00011348
0.00749978
0.000111293
0.00754776
0.000109147
0.00314953
0.000114974
0.00325812
0.000114957
0.00336651
0.000114783
0.00347457
0.000114461
0.00358217
0.000114002
0.00368919
0.000113415
0.00379553
0.00011271
0.00390108
0.000111898
0.00400575
0.000110988
0.00410947
0.00010999
0.00421217
0.000108912
0.00431378
0.000107764
0.00441424
0.000106553
0.0045135
0.000105286
0.00461152
0.000103972
0.00470827
0.000102616
0.00480371
0.000101225
0.00489782
9.98039e-05
0.00499057
9.83585e-05
0.00508195
9.68933e-05
0.00517194
9.54127e-05
0.00526053
9.39208e-05
0.00534772
9.24212e-05
0.00543351
9.09173e-05
0.00551788
8.9412e-05
0.00560085
8.79082e-05
0.00568242
8.64082e-05
0.00576259
8.49143e-05
0.00584138
8.34286e-05
0.00591878
8.19527e-05
0.00599482
8.04883e-05
0.0060695
7.90369e-05
0.00614284
7.75997e-05
0.00621485
7.61778e-05
0.00628555
7.47721e-05
0.00635495
7.33836e-05
0.00642307
7.20129e-05
0.00648993
7.06607e-05