/*--------------------------------*- C++ -*----------------------------------*\
  =========                 |
  \\      /  F ield         | OpenFOAM: The Open Source CFD Toolbox
   \\    /   O peration     | Website:  https://openfoam.org
    \\  /    A nd           | Version:  7
     \\/     M anipulation  |
\*---------------------------------------------------------------------------*/
FoamFile
{
    version     2.0;
    format      ascii;
    class       volVectorField;
    location    "50";
    object      U;
}
// * * * * * * * * * * * * * * * * * * * * * * * * * * * * * * * * * * * * * //

dimensions      [0 1 -1 0 0 0 0];

internalField   nonuniform List<vector> 
1360
(
(1.22153 0.00140132 8.72916e-28)
(1.21831 0.000907851 -8.72916e-28)
(1.21569 0.00056012 0)
(1.2137 0.000322962 0)
(1.21236 0.000163128 9.20047e-28)
(1.21169 4.9226e-05 -9.25872e-28)
(0.955875 0.0649288 0)
(1.04866 0.057936 0)
(1.12174 0.0489053 3.01146e-11)
(1.17459 0.0399823 -3.01146e-11)
(1.20955 0.0319237 0)
(1.23039 0.0251007 0)
(1.24104 0.0195591 1.22052e-27)
(1.24487 0.0151615 -1.22052e-27)
(1.24448 0.0117104 -1.02689e-27)
(1.2417 0.0090102 1.02689e-27)
(1.23774 0.00689416 0)
(1.23334 0.00523162 0)
(1.22896 0.00392442 -2.18997e-11)
(1.22487 0.00289945 2.18997e-11)
(1.2212 0.00210093 0)
(1.21807 0.00148406 0)
(1.21551 0.00101055 2.02545e-11)
(1.21356 0.000645847 -2.02545e-11)
(1.21225 0.000357298 0)
(1.2116 0.000114022 0)
(0.95273 0.065225 0)
(1.04454 0.0585246 0)
(1.11728 0.0498263 0)
(1.17033 0.0411426 0)
(1.2058 0.0332238 0)
(1.22726 0.0264573 0)
(1.23851 0.0209132 0)
(1.24287 0.0164747 0)
(1.24291 0.0129588 0)
(1.24046 0.0101785 0)
(1.23675 0.00797222 0)
(1.23256 0.0062122 0)
(1.22834 0.00480179 -4.34134e-11)
(1.22437 0.00366888 4.34134e-11)
(1.22082 0.0027584 0)
(1.21776 0.00202626 0)
(1.21526 0.00143484 4.03246e-11)
(1.21337 0.000950234 -4.03246e-11)
(1.21209 0.000540443 -1.26197e-27)
(1.21145 0.000175157 1.26996e-27)
(0.949738 0.0654195 0)
(1.04059 0.0589955 0)
(1.11297 0.0506157 0)
(1.16617 0.0421679 0)
(1.20211 0.0343928 0)
(1.22415 0.0276909 0)
(1.23598 0.0221538 0)
(1.24084 0.0176844 0)
(1.24129 0.0141133 0)
(1.23917 0.0112625 0)
(1.23573 0.00897523 0)
(1.23173 0.00712665 0)
(1.22767 0.00562168 -2.14969e-11)
(1.22383 0.00438918 2.14969e-11)
(1.22037 0.00337486 -8.56566e-28)
(1.2174 0.0025353 8.56566e-28)
(1.21496 0.00183359 4.0101e-11)
(1.21311 0.00123653 -4.0101e-11)
(1.21186 0.000712796 0)
(1.21124 0.000232704 0)
(0.946891 0.0655197 0)
(1.03679 0.0593575 0)
(1.1088 0.051283 0)
(1.16211 0.0430668 0)
(1.19846 0.0354385 0)
(1.22106 0.0288082 0)
(1.23344 0.0232867 0)
(1.23879 0.0187953 0)
(1.23965 0.0151782 0)
(1.23785 0.0122656 0)
(1.23466 0.00990603 0)
(1.23086 0.0079773 0)
(1.22695 0.00638596 0)
(1.22324 0.00506185 0)
(1.21988 0.00395145 0)
(1.21698 0.00301206 0)
(1.21461 0.00220745 1.99203e-11)
(1.2128 0.00150517 -1.99203e-11)
(1.21158 0.000874612 0)
(1.21097 0.000286749 0)
(0.94418 0.0655327 0)
(1.03315 0.0596188 0)
(1.10475 0.0518369 0)
(1.15814 0.0438476 0)
(1.19488 0.0363682 0)
(1.21799 0.0298154 0)
(1.2309 0.0243172 0)
(1.23673 0.0198123 0)
(1.23798 0.0161574 0)
(1.2365 0.0131913 0)
(1.23355 0.0107675 0)
(1.22995 0.0087665 0)
(1.22619 0.00709656 -2.10324e-11)
(1.2226 0.00568845 2.10324e-11)
(1.21933 0.00448942 0)
(1.21651 0.00345748 0)
(1.2142 0.00255713 8.20797e-28)
(1.21243 0.00175664 -8.20797e-28)
(1.21124 0.00102617 8.98935e-28)
(1.21065 0.000337382 -9.04627e-28)
(0.941598 0.0654651 -2.80863e-27)
(1.02964 0.0597872 0)
(1.10084 0.0522855 -5.9198e-29)
(1.15427 0.0445182 -2.79644e-27)
(1.19135 0.0371889 4.9173e-11)
(1.21495 0.0307188 4.81493e-11)
(1.22837 0.0252508 4.70791e-11)
(1.23465 0.0207398 4.59932e-11)
(1.23629 0.0170549 0)
(1.23512 0.0140429 0)
(1.23241 0.0115624 0)
(1.229 0.00949665 0)
(1.22539 0.00775544 -2.07804e-11)
(1.22191 0.00627057 6.11381e-11)
(1.21875 0.00499004 2.69619e-19)
(1.216 0.00387254 -3.91361e-11)
(1.21374 0.00288334 -8.14022e-28)
(1.21202 0.00199144 8.14022e-28)
(1.21086 0.00116775 0)
(1.21028 0.000384697 -1.9132e-27)
(0.939139 0.0653234 2.80861e-27)
(1.02628 0.0598697 0)
(1.09705 0.0526365 0)
(1.15049 0.0450861 2.85564e-27)
(1.18788 0.0379074 -4.9173e-11)
(1.21194 0.0315242 -4.81493e-11)
(1.22584 0.0260926 -4.70791e-11)
(1.23257 0.0215823 -4.59932e-11)
(1.23459 0.0178745 1.92632e-27)
(1.23372 0.0148238 -1.92632e-27)
(1.23125 0.0122936 2.13367e-11)
(1.22802 0.0101701 -2.13367e-11)
(1.22456 0.0083646 -2.05167e-11)
(1.22119 0.00680984 -1.9841e-11)
(1.21812 0.00545459 3.65205e-28)
(1.21544 0.00425826 3.91361e-11)
(1.21324 0.00318683 1.67911e-27)
(1.21156 0.00221007 -1.67911e-27)
(1.21043 0.00129967 -1.22121e-27)
(1.20986 0.000428795 3.14215e-27)
(0.936796 0.0651135 0)
(1.02304 0.0598733 0)
(1.09338 0.0528974 0)
(1.1468 0.0455583 0)
(1.18448 0.0385301 -4.07111e-28)
(1.20896 0.0322374 4.07111e-28)
(1.22333 0.0268475 0)
(1.23049 0.0223443 0)
(1.23287 0.0186201 0)
(1.23229 0.0155373 0)
(1.23005 0.012964 4.19909e-11)
(1.22701 0.0107893 -4.19909e-11)
(1.22369 0.00892601 -4.04852e-11)
(1.22044 0.00730788 4.04852e-11)
(1.21745 0.0058844 -3.37491e-28)
(1.21485 0.00461567 3.37491e-28)
(1.2127 0.00346839 0)
(1.21106 0.00241308 0)
(1.20996 0.00142224 0)
(1.2094 0.00046978 0)
(0.934563 0.0648411 0)
(1.01993 0.0598043 0)
(1.08982 0.0530748 -8.48688e-28)
(1.1432 0.0459415 8.48688e-28)
(1.18113 0.0390633 0)
(1.20602 0.0328639 0)
(1.22083 0.0275206 0)
(1.2284 0.02303 0)
(1.23114 0.0192953 -5.14443e-28)
(1.23085 0.0161865 5.14443e-28)
(1.22884 0.0135763 2.06478e-11)
(1.22597 0.0113566 -2.06478e-11)
(1.22279 0.00944169 -3.99183e-11)
(1.21965 0.00776636 3.99183e-11)
(1.21675 0.0062808 0)
(1.21422 0.00494581 0)
(1.21213 0.00372879 0)
(1.21053 0.00260102 0)
(1.20944 0.00153578 7.39458e-28)
(1.2089 0.000507758 -7.44139e-28)
(0.932434 0.0645117 0)
(1.01693 0.0596688 0)
(1.08637 0.0531753 0)
(1.1397 0.0462422 0)
(1.17785 0.0395128 0)
(1.20311 0.033409 0)
(1.21834 0.0281164 0)
(1.22632 0.0236436 0)
(1.2294 0.0199039 3.60862e-28)
(1.22939 0.0167747 -3.60862e-28)
(1.22761 0.0141333 0)
(1.22491 0.0118743 0)
(1.22187 0.0099136 -1.96674e-11)
(1.21884 0.00818691 1.96674e-11)
(1.21602 0.00664515 0)
(1.21356 0.00524976 0)
(1.21152 0.00396885 1.88199e-11)
(1.20995 0.00277445 -1.88199e-11)
(1.2089 0.00164062 0)
(1.20836 0.000542839 0)
(0.930405 0.0641304 -5.4203e-28)
(1.01405 0.0594724 5.42745e-28)
(1.08303 0.053205 0)
(1.13628 0.0464663 0)
(1.17462 0.0398843 0)
(1.20024 0.0338777 0)
(1.21588 0.0286396 0)
(1.22424 0.0241891 0)
(1.22765 0.0204494 0)
(1.22792 0.0173049 0)
(1.22635 0.0146377 4.78413e-28)
(1.22383 0.0123448 -4.78413e-28)
(1.22092 0.0103437 -1.93683e-11)
(1.21799 0.00857119 1.93683e-11)
(1.21526 0.00697877 4.53796e-28)
(1.21286 0.00552856 -4.53796e-28)
(1.21087 0.00418936 1.85934e-11)
(1.20935 0.00293392 -1.85934e-11)
(1.20831 0.00173709 -7.23254e-28)
(1.20779 0.000575132 7.27833e-28)
(0.92847 0.0637019 3.74939e-28)
(1.01127 0.0592205 -3.75436e-28)
(1.0798 0.0531695 0)
(1.13295 0.0466196 0)
(1.17147 0.0401831 0)
(1.19741 0.0342751 0)
(1.21343 0.0290944 0)
(1.22217 0.0246704 0)
(1.22591 0.0209352 -3.46095e-28)
(1.22645 0.0177803 3.46095e-28)
(1.22509 0.015092 0)
(1.22273 0.0127703 0)
(1.21996 0.010734 -3.81255e-11)
(1.21713 0.00892082 3.81255e-11)
(1.21448 0.007283 0)
(1.21214 0.00578328 0)
(1.2102 0.00439113 1.83573e-11)
(1.20871 0.00308 -1.83573e-11)
(1.2077 0.00182553 0)
(1.20719 0.000604747 0)
(0.926624 0.0632308 -8.75609e-28)
(1.0086 0.0589179 8.76772e-28)
(1.07666 0.0530743 0)
(1.1297 0.0467074 0)
(1.16837 0.0404144 0)
(1.19462 0.0346056 0)
(1.21101 0.0294851 0)
(1.2201 0.0250911 0)
(1.22416 0.0213647 -1.97209e-11)
(1.22496 0.0182037 1.97209e-11)
(1.22382 0.015499 0)
(1.22162 0.013153 0)
(1.21897 0.0110863 -3.75033e-11)
(1.21625 0.0092374 3.75033e-11)
(1.21367 0.00755917 -7.62815e-28)
(1.2114 0.00601499 7.62815e-28)
(1.2095 0.00457496 3.6225e-11)
(1.20805 0.00321327 -3.6225e-11)
(1.20706 0.00190628 0)
(1.20656 0.000631796 0)
(0.924863 0.0627213 1.76116e-27)
(1.00602 0.0585695 -1.76351e-27)
(1.07362 0.0529244 2.32004e-28)
(1.12653 0.0467348 -2.32004e-28)
(1.16533 0.0405829 0)
(1.19187 0.0348739 0)
(1.20861 0.0298157 0)
(1.21805 0.025455 0)
(1.22242 0.021741 -1.92938e-11)
(1.22347 0.018578 1.92938e-11)
(1.22253 0.0158611 0)
(1.2205 0.0134953 0)
(1.21797 0.0114026 -1.84358e-11)
(1.21534 0.00952253 1.84358e-11)
(1.21285 0.00780859 0)
(1.21063 0.00622472 0)
(1.20878 0.00474166 3.57195e-11)
(1.20736 0.00333427 -3.57195e-11)
(1.20639 0.00197966 1.12768e-27)
(1.2059 0.00065639 -1.13482e-27)
(0.923183 0.0621775 0)
(1.00354 0.0581795 0)
(1.07068 0.0527245 0)
(1.12344 0.0467067 0)
(1.16236 0.0406934 8.10687e-28)
(1.18916 0.0350841 -8.10687e-28)
(1.20623 0.0300901 -8.8615e-28)
(1.21601 0.0257655 8.8615e-28)
(1.22067 0.0220673 0)
(1.22198 0.018906 0)
(1.22124 0.0161807 0)
(1.21936 0.0137991 0)
(1.21696 0.0116847 0)
(1.21442 0.00977777 0)
(1.212 0.00803255 7.39493e-28)
(1.20984 0.00641352 -7.39493e-28)
(1.20804 0.00489201 1.76e-11)
(1.20665 0.00344356 -1.76e-11)
(1.2057 0.00204601 -8.05613e-28)
(1.20522 0.000678637 8.10714e-28)
(0.92158 0.0616031 0)
(1.00115 0.057752 0)
(1.06782 0.0524791 0)
(1.12043 0.0466275 0)
(1.15944 0.04075 -1.64004e-27)
(1.1865 0.0352403 1.64004e-27)
(1.20388 0.0303119 1.87529e-11)
(1.21398 0.026026 -1.87529e-11)
(1.21894 0.0223466 0)
(1.22049 0.0191903 0)
(1.21994 0.0164602 0)
(1.21822 0.0140666 0)
(1.21593 0.0119343 -1.7793e-11)
(1.21349 0.0100046 1.7793e-11)
(1.21114 0.0082323 0)
(1.20904 0.00658239 0)
(1.20727 0.0050268 0)
(1.20591 0.00354171 0)
(1.20499 0.00210565 0)
(1.20452 0.000698647 0)
(0.920049 0.0610015 0)
(0.998843 0.057291 0)
(1.06505 0.0521924 4.20849e-29)
(1.1175 0.0465015 -4.20849e-29)
(1.15658 0.040757 0)
(1.18387 0.0353463 0)
(1.20156 0.0304847 1.82759e-11)
(1.21197 0.0262396 -1.82759e-11)
(1.21721 0.0225819 0)
(1.219 0.0194336 0)
(1.21864 0.016702 -7.36558e-28)
(1.21707 0.0142998 7.36558e-28)
(1.2149 0.0121533 -3.49348e-11)
(1.21255 0.0102046 3.49348e-11)
(1.21027 0.00840911 0)
(1.20822 0.00673234 0)
(1.2065 0.00514679 0)
(1.20516 0.00362924 0)
(1.20426 0.00215891 0)
(1.2038 0.000716526 0)
(0.918587 0.060376 1.22032e-27)
(0.996618 0.0567999 2.59498e-27)
(1.06236 0.0518682 2.04399e-28)
(1.11464 0.0463327 -2.04399e-28)
(1.15379 0.0407183 0)
(1.18129 0.0354059 0)
(1.19927 0.030612 1.13212e-27)
(1.20998 0.0264095 -1.13212e-27)
(1.21549 0.0227758 0)
(1.21751 0.0196383 0)
(1.21734 0.0169083 0)
(1.21591 0.0145006 0)
(1.21386 0.0123433 -3.42797e-11)
(1.21159 0.0103792 3.42797e-11)
(1.20938 0.00856416 -1.46337e-27)
(1.20738 0.00686435 1.46337e-27)
(1.2057 0.00525274 -1.45048e-27)
(1.2044 0.00370669 1.45048e-27)
(1.20351 0.0022061 3.2713e-11)
(1.20307 0.000732381 3.28829e-11)
(0.917191 0.0597297 -4.75195e-28)
(0.994472 0.0562821 -3.34111e-27)
(1.05975 0.0515102 0)
(1.11185 0.0461249 0)
(1.15105 0.0406376 0)
(1.17875 0.0354224 0)
(1.197 0.0306968 -7.98963e-28)
(1.208 0.0265385 7.98963e-28)
(1.21378 0.022931 0)
(1.21602 0.0198069 0)
(1.21604 0.0170811 0)
(1.21475 0.014671 0)
(1.21281 0.012506 -1.6811e-11)
(1.21063 0.0105297 1.6811e-11)
(1.20848 0.00869866 0)
(1.20654 0.00697938 0)
(1.20489 0.00534537 1.65054e-11)
(1.20362 0.00377459 -1.65054e-11)
(1.20275 0.00224754 -3.2713e-11)
(1.20231 0.000746314 -3.28829e-11)
(0.915858 0.0590653 -6.87825e-28)
(0.9924 0.0557407 6.88759e-28)
(1.05722 0.0511218 -1.67959e-11)
(1.10913 0.0458815 1.67959e-11)
(1.14836 0.0405182 0)
(1.17625 0.0353993 0)
(1.19477 0.0307423 7.78051e-28)
(1.20604 0.0266296 -7.78051e-28)
(1.21208 0.0230501 -6.97106e-28)
(1.21454 0.0199416 6.97106e-28)
(1.21474 0.0172226 0)
(1.21359 0.0148129 0)
(1.21176 0.012643 -1.64812e-11)
(1.20966 0.0106576 1.64812e-11)
(1.20758 0.00881374 0)
(1.20568 0.00707834 0)
(1.20408 0.00542541 3.24425e-11)
(1.20283 0.00383343 -3.24425e-11)
(1.20198 0.00228353 -7.44491e-28)
(1.20155 0.000758427 7.49205e-28)
(0.914584 0.0583855 1.38308e-27)
(0.990399 0.0551785 -1.38496e-27)
(1.05476 0.0507063 -1.62649e-11)
(1.10647 0.045606 1.62649e-11)
(1.14573 0.0403636 0)
(1.1738 0.0353396 0)
(1.19256 0.0307514 0)
(1.2041 0.0266853 0)
(1.21039 0.0231356 0)
(1.21307 0.0200447 0)
(1.21344 0.0173348 0)
(1.21243 0.0149278 0)
(1.2107 0.0127559 -1.61512e-11)
(1.20869 0.0107642 1.61512e-11)
(1.20667 0.00891052 1.385e-27)
(1.20482 0.00716215 -1.385e-27)
(1.20325 0.00549355 3.18684e-11)
(1.20203 0.00388372 -3.18684e-11)
(1.20119 0.00231436 1.00988e-27)
(1.20077 0.000768817 -1.01627e-27)
(0.913366 0.0576927 0)
(0.988466 0.0545984 0)
(1.05237 0.0502665 -3.58574e-29)
(1.10389 0.0453014 3.58574e-29)
(1.14316 0.0401768 0)
(1.17138 0.0352463 0)
(1.19038 0.0307268 0)
(1.20218 0.0267082 0)
(1.20871 0.0231898 6.63898e-28)
(1.2116 0.0201184 -6.63898e-28)
(1.21214 0.0174195 0)
(1.21127 0.0150176 0)
(1.20965 0.012846 0)
(1.20771 0.0108508 0)
(1.20575 0.00899009 -6.52648e-28)
(1.20395 0.00723169 6.52648e-28)
(1.20241 0.00555048 1.56447e-11)
(1.20122 0.00392594 -1.56447e-11)
(1.2004 0.00234033 -7.1872e-28)
(1.19998 0.000777581 7.2327e-28)
(0.912202 0.0569892 0)
(0.986599 0.0540026 0)
(1.05005 0.0498052 0)
(1.10136 0.0449707 0)
(1.14064 0.0399607 0)
(1.16901 0.0351222 0)
(1.18823 0.0306713 0)
(1.20028 0.0267008 0)
(1.20705 0.0232148 -1.5601e-11)
(1.21014 0.0201645 1.5601e-11)
(1.21085 0.0174787 0)
(1.21011 0.0150839 0)
(1.20859 0.012915 0)
(1.20673 0.0109186 0)
(1.20483 0.00905348 0)
(1.20308 0.00728781 0)
(1.20157 0.00559686 1.3267e-27)
(1.2004 0.00396056 -1.3267e-27)
(1.1996 0.00236171 0)
(1.19919 0.000784812 0)
(0.911089 0.056277 0)
(0.984793 0.0533937 0)
(1.04779 0.049325 1.47631e-11)
(1.0989 0.0446164 -1.47631e-11)
(1.13817 0.039718 0)
(1.16667 0.0349699 0)
(1.18611 0.0305871 0)
(1.1984 0.0266654 0)
(1.2054 0.023213 -1.5214e-11)
(1.2087 0.0201852 1.5214e-11)
(1.20957 0.017514 0)
(1.20896 0.0151283 0)
(1.20754 0.012964 0)
(1.20576 0.0109688 0)
(1.20391 0.00910171 0)
(1.2022 0.00733133 0)
(1.20073 0.00563331 -6.25185e-28)
(1.19958 0.00398803 6.25185e-28)
(1.19879 0.00237877 6.92514e-28)
(1.19839 0.000790601 -6.96899e-28)
(0.910025 0.055558 0)
(0.983048 0.0527736 0)
(1.0456 0.0488283 1.42917e-11)
(1.09649 0.0442413 -1.42917e-11)
(1.13575 0.0394512 0)
(1.16438 0.0347919 0)
(1.18402 0.0304768 0)
(1.19654 0.0266042 0)
(1.20376 0.0231862 0)
(1.20726 0.0201821 0)
(1.20829 0.0175272 0)
(1.20781 0.0151523 0)
(1.20648 0.0129946 0)
(1.20478 0.0110026 0)
(1.20299 0.00913574 0)
(1.20132 0.00736304 0)
(1.19988 0.00566046 1.47671e-11)
(1.19875 0.00400878 -1.47671e-11)
(1.19798 0.00239179 0)
(1.19758 0.000795035 0)
(0.909006 0.054834 0)
(0.981359 0.0521443 0)
(1.04347 0.0483173 1.57924e-28)
(1.09414 0.0438475 -1.57924e-28)
(1.13338 0.0391629 0)
(1.16213 0.0345906 0)
(1.18196 0.0303426 0)
(1.19471 0.0265192 0)
(1.20214 0.0231364 -1.24922e-27)
(1.20583 0.0201572 1.24922e-27)
(1.20702 0.0175199 0)
(1.20666 0.0151572 0)
(1.20543 0.0130079 0)
(1.2038 0.011021 0)
(1.20207 0.00915652 1.25249e-27)
(1.20044 0.0073837 -1.25249e-27)
(1.19903 0.00567889 2.89461e-11)
(1.19792 0.00402325 -2.89461e-11)
(1.19716 0.002401 -9.19309e-28)
(1.19677 0.000798199 9.25129e-28)
(0.908032 0.0541066 0)
(0.979725 0.0515077 0)
(1.0414 0.047794 0)
(1.09185 0.0434374 0)
(1.13106 0.0388552 0)
(1.15991 0.0343681 0)
(1.17993 0.0301865 0)
(1.19289 0.0264125 0)
(1.20054 0.0230655 0)
(1.20441 0.0201121 0)
(1.20575 0.0174935 0)
(1.20552 0.0151446 0)
(1.20439 0.0130052 -1.41886e-11)
(1.20282 0.0110252 1.41886e-11)
(1.20115 0.00916494 -5.88982e-28)
(1.19955 0.00739406 5.88982e-28)
(1.19818 0.00568919 1.41788e-11)
(1.19709 0.00403184 -1.41788e-11)
(1.19634 0.00240667 0)
(1.19596 0.000800173 0)
(0.9071 0.0533773 -1.08477e-27)
(0.978142 0.0508655 1.08626e-27)
(1.03938 0.0472604 -1.47939e-28)
(1.08961 0.0430129 1.47939e-28)
(1.12878 0.0385302 0)
(1.15773 0.0341265 0)
(1.17793 0.0300105 0)
(1.1911 0.0262858 0)
(1.19895 0.0229751 0)
(1.203 0.0200484 0)
(1.2045 0.0174496 0)
(1.20438 0.0151156 0)
(1.20334 0.0129876 -2.77355e-11)
(1.20185 0.0110161 2.77355e-11)
(1.20023 0.00916186 0)
(1.19867 0.00739482 0)
(1.19732 0.00569189 0)
(1.19626 0.00403495 0)
(1.19552 0.00240901 0)
(1.19515 0.000801037 0)
(0.906207 0.0526475 5.0329e-28)
(0.97661 0.0502191 -5.03985e-28)
(1.03742 0.0467183 0)
(1.08743 0.042576 0)
(1.12655 0.0381898 0)
(1.15559 0.0338678 0)
(1.17596 0.0298165 0)
(1.18933 0.026141 0)
(1.19738 0.0228669 -1.33647e-11)
(1.20161 0.0199675 1.33647e-11)
(1.20325 0.0173895 0)
(1.20326 0.0150716 0)
(1.20231 0.0129563 -2.70989e-11)
(1.20089 0.0109947 2.70989e-11)
(1.19931 0.00914811 0)
(1.1978 0.00738665 0)
(1.19647 0.00568754 5.64202e-28)
(1.19542 0.00403294 -5.64202e-28)
(1.1947 0.00240826 0)
(1.19433 0.000800865 0)
(0.905353 0.0519183 0)
(0.975126 0.0495701 0)
(1.0355 0.0461692 -2.7631e-29)
(1.08529 0.0421285 2.7631e-29)
(1.12437 0.037836 0)
(1.15349 0.0335938 0)
(1.17401 0.0296062 -5.89662e-28)
(1.18757 0.0259797 5.89662e-28)
(1.19582 0.0227425 -1.30127e-11)
(1.20023 0.019871 1.30127e-11)
(1.20202 0.0173145 5.45925e-28)
(1.20214 0.0150138 -5.45925e-28)
(1.20128 0.0129123 -1.3234e-11)
(1.19992 0.010962 1.3234e-11)
(1.1984 0.00912447 1.32783e-11)
(1.19692 0.0073702 -1.32783e-11)
(1.19562 0.00567662 0)
(1.19459 0.00402619 0)
(1.19388 0.00240464 0)
(1.19352 0.000799732 0)
(0.904534 0.051191 0)
(0.973687 0.0489196 0)
(1.03364 0.0456146 0)
(1.08321 0.0416719 0)
(1.12223 0.0374704 0)
(1.15142 0.0333061 0)
(1.1721 0.0293813 1.24368e-11)
(1.18585 0.0258035 -1.24368e-11)
(1.19428 0.0226033 0)
(1.19886 0.0197602 0)
(1.20079 0.017226 0)
(1.20103 0.0149432 0)
(1.20025 0.0128566 0)
(1.19897 0.0109188 0)
(1.19749 0.00909171 1.29784e-11)
(1.19605 0.0073461 -1.29784e-11)
(1.19478 0.00565964 0)
(1.19377 0.00401503 0)
(1.19307 0.00239835 0)
(1.19271 0.000797705 0)
(0.903751 0.0504665 0)
(0.972292 0.0482689 0)
(1.03183 0.045056 2.58664e-29)
(1.08117 0.0412079 -2.58664e-29)
(1.12013 0.0370945 0)
(1.14939 0.0330064 0)
(1.17021 0.0291434 1.20808e-11)
(1.18414 0.0256138 -1.20808e-11)
(1.19276 0.0224508 -5.11707e-28)
(1.1975 0.0196364 5.11707e-28)
(1.19958 0.017125 0)
(1.19992 0.014861 0)
(1.19924 0.0127902 0)
(1.19801 0.010866 0)
(1.19659 0.00905054 -5.26388e-28)
(1.19518 0.00731494 5.26388e-28)
(1.19393 0.00563704 1.27186e-11)
(1.19294 0.00399981 -1.27186e-11)
(1.19225 0.00238959 0)
(1.1919 0.000794851 0)
(0.903 0.0497457 0)
(0.970939 0.0476191 0)
(1.03006 0.0444946 0)
(1.07917 0.0407377 0)
(1.11807 0.03671 0)
(1.14739 0.0326961 0)
(1.16835 0.0288939 0)
(1.18245 0.0254121 0)
(1.19125 0.0222862 1.03635e-27)
(1.19616 0.0195008 -1.03635e-27)
(1.19837 0.0170128 0)
(1.19883 0.0147682 0)
(1.19823 0.0127141 0)
(1.19707 0.0108043 0)
(1.19569 0.00900164 0)
(1.19432 0.00727727 0)
(1.1931 0.00560928 1.24307e-11)
(1.19212 0.00398083 -1.24307e-11)
(1.19144 0.00237856 7.91636e-28)
(1.1911 0.000791234 -7.96648e-28)
(0.902281 0.0490296 0)
(0.969627 0.0469711 0)
(1.02834 0.0439315 1.06315e-11)
(1.07722 0.0402628 -1.06315e-11)
(1.11605 0.0363181 0)
(1.14543 0.0323767 0)
(1.16652 0.0286341 0)
(1.18079 0.0251997 0)
(1.18976 0.0221107 -4.84261e-28)
(1.19483 0.0193546 4.84261e-28)
(1.19718 0.0168904 -4.92565e-28)
(1.19774 0.0146658 4.92565e-28)
(1.19723 0.012629 -1.20037e-11)
(1.19613 0.0107346 1.20037e-11)
(1.1948 0.00894568 0)
(1.19346 0.00723365 0)
(1.19226 0.00557677 -5.04145e-28)
(1.1913 0.0039584 5.04145e-28)
(1.19064 0.00236543 0)
(1.19029 0.000786915 0)
(0.901591 0.0483189 -8.49483e-28)
(0.968354 0.0463258 8.50661e-28)
(1.02666 0.0433679 1.02828e-11)
(1.07531 0.0397842 -1.02828e-11)
(1.11407 0.0359201 0)
(1.1435 0.0320494 0)
(1.16471 0.0283654 0)
(1.17915 0.0249777 0)
(1.18829 0.0219256 0)
(1.19351 0.0191989 0)
(1.19599 0.0167587 0)
(1.19667 0.0145546 0)
(1.19624 0.0125358 -2.34096e-11)
(1.1952 0.0106575 2.34096e-11)
(1.19392 0.00888326 0)
(1.19261 0.00718458 0)
(1.19144 0.00553991 1.18612e-11)
(1.19049 0.00393281 -1.18612e-11)
(1.18983 0.00235038 0)
(1.1895 0.000781951 0)
(0.900931 0.0476141 3.93987e-28)
(0.967117 0.0456841 -3.94533e-28)
(1.02502 0.0428046 2.26409e-29)
(1.07345 0.0393031 -2.26409e-29)
(1.11213 0.0355171 0)
(1.1416 0.0317154 0)
(1.16293 0.0280888 -4.94455e-28)
(1.17753 0.0247473 4.94455e-28)
(1.18683 0.0217319 4.57828e-28)
(1.19221 0.0190346 -4.57828e-28)
(1.19482 0.0166188 0)
(1.1956 0.0144355 0)
(1.19525 0.0124353 -1.14097e-11)
(1.19428 0.0105738 1.14097e-11)
(1.19304 0.00881499 4.78027e-28)
(1.19177 0.00713055 -4.78027e-28)
(1.19062 0.0054991 2.31598e-11)
(1.18969 0.00390433 -2.31598e-11)
(1.18904 0.00233358 -5.34808e-28)
(1.18871 0.000776398 5.38194e-28)
(0.900297 0.0469161 -3.80344e-28)
(0.965916 0.0450467 3.80872e-28)
(1.02342 0.0422427 0)
(1.07162 0.0388205 0)
(1.11023 0.0351104 0)
(1.13973 0.0313758 0)
(1.16118 0.0278056 4.79809e-28)
(1.17593 0.0245096 -4.79809e-28)
(1.18539 0.0215306 -4.44989e-28)
(1.19092 0.0188627 4.44989e-28)
(1.19366 0.0164714 0)
(1.19455 0.0143094 0)
(1.19428 0.0123282 0)
(1.19337 0.0104841 0)
(1.19217 0.00874141 -4.66241e-28)
(1.19093 0.00707203 4.66241e-28)
(1.1898 0.00545468 2.26023e-11)
(1.18889 0.00387322 -2.26023e-11)
(1.18825 0.00231517 0)
(1.18792 0.000770309 0)
(0.89969 0.0462253 7.64251e-28)
(0.96475 0.0444142 -7.65311e-28)
(1.02186 0.0416828 0)
(1.06983 0.0383374 0)
(1.10836 0.0347008 0)
(1.1379 0.0310318 0)
(1.15945 0.0275167 0)
(1.17435 0.0242656 0)
(1.18397 0.0213227 9.00097e-28)
(1.18964 0.0186842 -9.00097e-28)
(1.19252 0.0163176 0)
(1.1935 0.0141771 0)
(1.19331 0.0122152 -1.08312e-11)
(1.19246 0.010389 1.08312e-11)
(1.19131 0.00866306 0)
(1.1901 0.00700944 0)
(1.18899 0.005407 1.10251e-11)
(1.18809 0.00383974 -1.10251e-11)
(1.18747 0.00229532 0)
(1.18714 0.000763732 0)
(0.899109 0.0455421 0)
(0.963617 0.0437872 0)
(1.02034 0.0411258 -2.04626e-29)
(1.06808 0.0378545 2.04626e-29)
(1.10652 0.0342893 0)
(1.13609 0.0306841 0)
(1.15775 0.0272232 0)
(1.17279 0.0240163 0)
(1.18256 0.0211091 -4.20057e-28)
(1.18838 0.0184999 4.20057e-28)
(1.19138 0.016158 0)
(1.19247 0.0140392 0)
(1.19236 0.012097 -2.10958e-11)
(1.19157 0.0102891 2.10958e-11)
(1.19046 0.00858044 0)
(1.18928 0.00694321 0)
(1.18819 0.0053564 0)
(1.18731 0.00380411 0)
(1.18669 0.00227416 4.97006e-28)
(1.18637 0.000756716 -5.00152e-28)
(0.898551 0.044867 0)
(0.962515 0.0431663 0)
(1.01885 0.0405723 0)
(1.06637 0.0373727 0)
(1.10472 0.0338767 0)
(1.13431 0.0303338 0)
(1.15608 0.0269258 0)
(1.17125 0.0237624 0)
(1.18117 0.0208906 0)
(1.18714 0.0183106 0)
(1.19025 0.0159934 8.71086e-28)
(1.19144 0.0138964 -8.71086e-28)
(1.19141 0.0119742 -2.05373e-11)
(1.19068 0.010185 2.05373e-11)
(1.18961 0.00849402 0)
(1.18847 0.00687374 0)
(1.1874 0.00530318 -9.05726e-28)
(1.18653 0.00376656 9.05726e-28)
(1.18592 0.00225182 -6.68926e-28)
(1.18561 0.000749305 6.73161e-28)
(0.898016 0.0442004 0)
(0.961444 0.042552 0)
(1.0174 0.0400229 0)
(1.06469 0.0368926 0)
(1.10296 0.0334639 0)
(1.13257 0.0299817 0)
(1.15442 0.0266255 0)
(1.16973 0.0235049 0)
(1.1798 0.0206681 0)
(1.1859 0.018117 0)
(1.18914 0.0158245 -4.06823e-28)
(1.19043 0.0137494 4.06823e-28)
(1.19048 0.0118473 -1.99871e-11)
(1.1898 0.0100771 1.99871e-11)
(1.18878 0.00840425 4.20466e-28)
(1.18766 0.00680138 -4.20466e-28)
(1.18662 0.00524763 1.02145e-11)
(1.18576 0.00372729 -1.02145e-11)
(1.18516 0.00222844 4.72423e-28)
(1.18485 0.000741541 -4.75414e-28)
(0.897503 0.0435426 -3.18379e-28)
(0.960402 0.0419446 3.18819e-28)
(1.01598 0.0394782 1.84689e-29)
(1.06304 0.0364149 -1.84689e-29)
(1.10122 0.0330515 0)
(1.13085 0.0296284 0)
(1.15279 0.0263229 0)
(1.16823 0.0232444 0)
(1.17844 0.0204422 0)
(1.18468 0.0179198 0)
(1.18804 0.015652 0)
(1.18943 0.0135989 0)
(1.18955 0.011717 -1.94451e-11)
(1.18894 0.00996599 1.94451e-11)
(1.18795 0.00831155 -4.09384e-28)
(1.18687 0.0067265 4.09384e-28)
(1.18584 0.00519003 1.9901e-11)
(1.185 0.00368652 -1.9901e-11)
(1.18441 0.00220413 9.09896e-28)
(1.1841 0.000733466 9.80385e-28)
(0.897012 0.0428939 6.39322e-28)
(0.959389 0.0413445 -6.40205e-28)
(1.01459 0.0389386 8.94598e-29)
(1.06143 0.0359403 -8.94598e-29)
(1.09952 0.0326403 0)
(1.12916 0.0292748 0)
(1.15119 0.0260189 0)
(1.16675 0.0229818 0)
(1.1771 0.0202136 -8.98805e-12)
(1.18347 0.0177197 8.98805e-12)
(1.18695 0.0154764 0)
(1.18844 0.0134452 0)
(1.18864 0.0115837 -9.45574e-12)
(1.18808 0.00985208 9.45574e-12)
(1.18714 0.00821632 0)
(1.18608 0.00664942 0)
(1.18508 0.00513064 1.93795e-11)
(1.18425 0.00364443 -1.93795e-11)
(1.18366 0.00217901 -9.09896e-28)
(1.18336 0.000725117 -9.80385e-28)
(0.896541 0.0422545 0)
(0.958403 0.0407521 0)
(1.01324 0.0384045 0)
(1.05985 0.0354691 0)
(1.09784 0.0322307 0)
(1.12749 0.0289214 0)
(1.1496 0.0257141 0)
(1.16529 0.0227176 0)
(1.17578 0.019983 -8.71943e-12)
(1.18228 0.0175173 8.71943e-12)
(1.18587 0.0152984 0)
(1.18746 0.0132891 0)
(1.18773 0.011448 0)
(1.18723 0.00973581 0)
(1.18633 0.00811893 0)
(1.1853 0.00657045 0)
(1.18432 0.00506971 9.43231e-12)
(1.18351 0.00360118 -9.43231e-12)
(1.18293 0.00215319 -4.36582e-28)
(1.18263 0.000716531 4.39346e-28)
(0.896089 0.0416247 0)
(0.957444 0.0401677 0)
(1.01191 0.0378765 0)
(1.0583 0.035002 0)
(1.0962 0.0318234 0)
(1.12585 0.0285688 0)
(1.14804 0.025409 0)
(1.16384 0.0224524 0)
(1.17447 0.019751 0)
(1.1811 0.0173131 0)
(1.18481 0.0151184 0)
(1.18649 0.0131309 0)
(1.18683 0.0113102 0)
(1.18639 0.00961759 0)
(1.18553 0.00801974 7.84875e-28)
(1.18453 0.0064899 -7.84875e-28)
(1.18357 0.00500747 7.93097e-28)
(1.18277 0.00355697 -7.93097e-28)
(1.1822 0.00212676 5.86496e-28)
(1.18191 0.00070774 -5.90209e-28)
(0.895657 0.0410045 6.63413e-12)
(0.95651 0.0395914 -6.64325e-12)
(1.01062 0.0373547 1.60666e-29)
(1.05678 0.0345393 -1.60666e-29)
(1.09458 0.0314189 0)
(1.12424 0.0282177 0)
(1.1465 0.0251043 0)
(1.16242 0.0221868 0)
(1.17317 0.019518 0)
(1.17993 0.0171078 0)
(1.18375 0.014937 0)
(1.18553 0.0129712 0)
(1.18595 0.0111709 0)
(1.18556 0.0094978 0)
(1.18474 0.00791907 0)
(1.18377 0.00640803 0)
(1.18283 0.00494413 -3.70594e-28)
(1.18205 0.00351193 3.70594e-28)
(1.18148 0.00209983 -4.13421e-28)
(1.18119 0.000698777 4.16039e-28)
(0.895242 0.0403941 6.3945e-12)
(0.955601 0.0390236 -6.40327e-12)
(1.00935 0.0368396 7.77542e-29)
(1.0553 0.0340815 -7.77542e-29)
(1.09299 0.0310176 0)
(1.12265 0.0278683 0)
(1.14499 0.0248004 0)
(1.16101 0.0219213 0)
(1.17189 0.0192847 6.86642e-28)
(1.17878 0.0169017 -6.86642e-28)
(1.18271 0.0147546 7.10253e-28)
(1.18458 0.0128104 -7.10253e-28)
(1.18507 0.0110303 0)
(1.18474 0.0093768 0)
(1.18397 0.00781724 -7.41611e-28)
(1.18303 0.0063251 7.41611e-28)
(1.18211 0.00487991 8.68046e-12)
(1.18133 0.00346622 -8.68046e-12)
(1.18078 0.00207247 0)
(1.18049 0.000689673 0)
(0.894845 0.0397936 0)
(0.954715 0.0384643 0)
(1.00811 0.0363313 6.57258e-12)
(1.05383 0.0336288 -6.57258e-12)
(1.09143 0.0306198 0)
(1.12109 0.0275214 0)
(1.14349 0.0244979 0)
(1.15962 0.0216565 0)
(1.17063 0.0190515 0)
(1.17764 0.0166953 0)
(1.18168 0.0145717 0)
(1.18364 0.0126489 0)
(1.18421 0.0108889 0)
(1.18393 0.00925492 0)
(1.1832 0.00771453 0)
(1.18229 0.00624137 0)
(1.18139 0.00481499 8.43679e-12)
(1.18062 0.00341998 -8.43679e-12)
(1.18008 0.00204479 3.90871e-28)
(1.17979 0.000680455 -3.93345e-28)
(0.857257 0.0716672 -1.48789e-19)
(0.855393 0.0716668 1.18841e-19)
(0.853648 0.071579 1.09661e-20)
(0.852013 0.0714102 -2.3683e-19)
(0.850484 0.0711666 3.32023e-19)
(0.849055 0.0708541 3.37671e-19)
(0.847721 0.0704785 -9.5071e-20)
(0.846477 0.0700451 -4.14706e-19)
(0.845318 0.0695593 5.35673e-19)
(0.844239 0.069026 -2.67055e-19)
(0.843236 0.0684498 -3.31473e-20)
(0.842305 0.067835 8.29836e-20)
(0.841443 0.067186 -2.26084e-19)
(0.840645 0.0665065 -1.143e-19)
(0.839909 0.0658003 2.46723e-19)
(0.83923 0.0650706 -5.11917e-21)
(0.838606 0.0643208 -5.34237e-20)
(0.838033 0.0635536 9.14404e-20)
(0.837509 0.062772 -9.41236e-20)
(0.837031 0.0619784 2.52292e-20)
(0.836597 0.0611751 1.26107e-19)
(0.836203 0.0603643 -3.75041e-20)
(0.835848 0.0595481 -1.12605e-19)
(0.83553 0.0587281 1.06367e-19)
(0.835247 0.0579062 -4.55365e-20)
(0.834996 0.0570839 5.10972e-20)
(0.834775 0.0562625 -3.10176e-20)
(0.834584 0.0554433 -1.01808e-19)
(0.83442 0.0546274 1.31893e-19)
(0.834281 0.053816 -2.49721e-21)
(0.834167 0.0530099 -8.33811e-20)
(0.834076 0.0522101 6.27433e-20)
(0.834007 0.0514172 4.9603e-21)
(0.833958 0.0506319 -1.09614e-20)
(0.833928 0.0498549 -3.63979e-20)
(0.833917 0.0490866 4.20899e-20)
(0.833922 0.0483276 -1.77826e-21)
(0.833944 0.0475782 1.26013e-20)
(0.833982 0.0468389 -1.28513e-20)
(0.834034 0.0461098 -1.35775e-20)
(0.834099 0.0453914 -1.65996e-20)
(0.834178 0.0446837 2.14937e-20)
(0.834269 0.0439869 2.81032e-21)
(0.834372 0.0433012 -3.0745e-20)
(0.834486 0.0426268 9.55906e-21)
(0.83461 0.0419636 -2.89842e-20)
(0.834745 0.0413117 -4.76082e-21)
(0.834889 0.0406712 2.37956e-20)
(0.743022 0.0724915 4.28407e-19)
(0.743054 0.0723435 5.98244e-20)
(0.743146 0.0721189 -6.57496e-19)
(0.743293 0.0718236 6.07927e-19)
(0.743494 0.0714631 -3.96011e-20)
(0.743745 0.071043 6.99768e-20)
(0.744044 0.0705684 -4.98249e-19)
(0.744388 0.0700443 2.65177e-19)
(0.744775 0.0694753 -1.7637e-19)
(0.745202 0.0688659 -1.68223e-19)
(0.745667 0.0682203 1.51254e-19)
(0.746167 0.0675424 1.62815e-19)
(0.7467 0.0668361 -1.06453e-19)
(0.747264 0.0661046 2.10059e-19)
(0.747856 0.0653514 -2.24542e-19)
(0.748474 0.0645794 3.32787e-20)
(0.749117 0.0637915 8.93822e-20)
(0.749783 0.0629902 -1.12177e-19)
(0.750469 0.062178 1.58315e-19)
(0.751175 0.0613572 -3.87651e-20)
(0.751897 0.0605299 -5.44183e-21)
(0.752636 0.0596978 -2.2779e-20)
(0.753388 0.0588628 -5.48549e-20)
(0.754153 0.0580266 2.3647e-20)
(0.75493 0.0571904 2.87518e-20)
(0.755717 0.0563558 5.79178e-20)
(0.756514 0.0555239 6.09983e-21)
(0.757318 0.0546958 -1.21078e-19)
(0.758129 0.0538725 1.25214e-19)
(0.758946 0.0530549 -9.9987e-20)
(0.759768 0.0522438 -3.28566e-20)
(0.760594 0.05144 2.42162e-20)
(0.761424 0.0506441 -8.80374e-21)
(0.762257 0.0498567 5.27428e-20)
(0.763091 0.0490783 -5.78439e-20)
(0.763927 0.0483093 2.55759e-21)
(0.764764 0.0475501 7.5012e-23)
(0.7656 0.0468011 8.47686e-20)
(0.766437 0.0460625 -6.11213e-20)
(0.767273 0.0453346 1.17351e-20)
(0.768108 0.0446176 1.67459e-20)
(0.768942 0.0439116 9.2765e-21)
(0.769773 0.0432168 -6.08626e-20)
(0.770603 0.0425332 8.0409e-20)
(0.77143 0.041861 -4.8082e-20)
(0.772255 0.0412002 -2.83403e-20)
(0.773077 0.0405507 2.63979e-21)
(0.773895 0.0399127 5.90727e-20)
(0.77471 0.039286 -1.29154e-20)
(0.619028 0.0699546 -1.03314e-20)
(0.621128 0.0697896 6.90244e-20)