/*--------------------------------*- C++ -*----------------------------------*\
  =========                 |
  \\      /  F ield         | OpenFOAM: The Open Source CFD Toolbox
   \\    /   O peration     | Website:  https://openfoam.org
    \\  /    A nd           | Version:  7
     \\/     M anipulation  |
\*---------------------------------------------------------------------------*/
FoamFile
{
    version     2.0;
    format      ascii;
    class       surfaceScalarField;
    location    "40";
    object      phi;
}
// * * * * * * * * * * * * * * * * * * * * * * * * * * * * * * * * * * * * * //

dimensions      [0 3 -1 0 0 0 0];

internalField   nonuniform List<scalar> 
6502
(
0.000628992
0.00156036
0.000882332
0.00025571
0.000356541
0.00115478
0.000606833
8.65754e-05
0.000144331
0.000819043
0.000266905
-8.07815e-05
0.000391383
-3.79025e-05
-1.29315e-05
0.000548646
6.94469e-05
-0.00016842
0.000133814
-0.000145148
0.000221241
-0.00012533
-0.000122687
0.000330996
-1.37455e-05
-0.000194557
2.65684e-05
-0.000185462
8.2732e-05
-0.000181494
-0.000193037
0.000153082
-9.35513e-05
-0.000205856
-8.32625e-05
-0.000204845
-6.33617e-05
-0.000205363
-3.38094e-05
-0.000211046
-0.000226254
-5.92278e-07
-0.000139869
-0.000197378
-0.000143091
-0.000201623
-0.000140418
-0.000208035
-0.000132229
-0.000219235
-0.000239116
-0.000119366
-0.000162804
-0.000173208
-0.000180588
-0.000179594
-0.000195537
-0.000186675
-0.00020752
-0.000196052
-0.000217119
-0.000209636
-0.000229961
-0.000226274
-0.000190248
-0.000146757
-0.000216053
-0.000153788
-0.000241007
-0.000161721
-0.000265317
-0.000171742
-0.00028977
-0.000185183
-0.000203582
-0.000316148
-0.000213358
-0.000114962
-0.000245794
-0.000121351
-0.000278922
-0.000128593
-0.000313146
-0.000137518
-0.000349325
-0.000149005
-0.000163976
-0.000388932
-0.000231499
-7.90178e-05
-0.000269045
-8.38057e-05
-0.000308401
-8.92377e-05
-0.000350081
-9.58375e-05
-0.000394949
-0.000104137
-0.000114662
-0.000444262
-0.000244023
-4.02353e-05
-0.000285041
-4.27881e-05
-0.000328594
-4.56844e-05
-0.000375255
-4.91767e-05
-0.000425875
-5.35159e-05
-5.89435e-05
-0.000481594
-0.000210199
-0.000250423
-0.000293196
-0.000338862
-0.000388017
-0.000441505
-0.000500416
0.00186355
0.0295495
-0.000982341
0.00191815
0.0341725
0.00177807
0.034636
0.00161162
0.0340731
0.00142681
0.0335067
0.00125973
0.0330031
0.00111056
0.0325552
0.000979494
0.0321587
0.000865407
0.0318026
0.000766043
0.0314826
0.000679515
0.0311946
0.000604048
0.0309349
0.000538089
0.0307008
0.000480301
0.0304898
0.000429544
0.0302996
0.000384845
0.0301283
0.000345382
0.0299741
0.000310456
0.0298355
0.000279469
0.0297109
0.00025193
0.0295991
0.000227402
0.0294986
0.000205507
0.0294084
0.000185924
0.0293275
0.000168369
0.0292549
0.000152602
0.0291898
0.00013841
0.0291314
0.00012561
0.0290791
0.000114042
0.0290322
0.000103563
0.0289903
9.40523e-05
0.0289527
8.53989e-05
0.028919
7.7507e-05
0.028889
7.02913e-05
0.0288621
6.36756e-05
0.0288381
5.75926e-05
0.0288167
5.19792e-05
0.0287977
4.67817e-05
0.0287807
4.19517e-05
0.0287657
3.74455e-05
0.0287525
3.3224e-05
0.0287408
2.92513e-05
0.0287306
2.54948e-05
0.0287217
2.19242e-05
0.0287141
1.85117e-05
0.0287076
1.52315e-05
0.0287022
1.20591e-05
0.0286977
8.97136e-06
0.0286942
5.94682e-06
0.0286917
2.96372e-06
0.02869
0.0286891
0.00172647
0.0286223
-0.000799259
0.00175668
0.0341423
0.00166143
0.0347313
0.00151082
0.0342237
0.00135151
0.0336661
0.00120013
0.0331545
0.00106178
0.0326935
0.000939458
0.032281
0.000831937
0.0319101
0.000737767
0.0315768
0.0006554
0.031277
0.000583322
0.031007
0.000520171
0.030764
0.000464736
0.0305452
0.00041597
0.0303483
0.000372971
0.0301713
0.00033497
0.0300121
0.00030131
0.0298692
0.000271429
0.0297408
0.000244851
0.0296257
0.00022116
0.0295223
0.000200001
0.0294296
0.000181064
0.0293464
0.000164079
0.0292719
0.000148814
0.0292051
0.000135067
0.0291452
0.00012266
0.0290915
0.00011144
0.0290435
0.000101271
0.0290004
9.20329e-05
0.0289619
8.36219e-05
0.0289275
7.59448e-05
0.0288966
6.89195e-05
0.0288691
6.24725e-05
0.0288446
5.65383e-05
0.0288227
5.10577e-05
0.0288031
4.59786e-05
0.0287858
4.12538e-05
0.0287705
3.68416e-05
0.0287569
3.27039e-05
0.028745
2.88062e-05
0.0287345
2.5117e-05
0.0287254
2.16071e-05
0.0287176
1.82498e-05
0.028711
1.50201e-05
0.0287054
1.18944e-05
0.0287009
8.85052e-06
0.0286973
5.86731e-06
0.0286946
2.9239e-06
0.0286929
0.028692
0.00155811
0.0277854
-0.000721245
0.00163507
0.0340653
0.0015529
0.0348134
0.0014128
0.0343638
0.00126902
0.0338098
0.00113269
0.0332909
0.00100666
0.0328196
0.000893976
0.0323937
0.000793961
0.0320101
0.00070575
0.031665
0.000628175
0.0313545
0.000560009
0.0310752
0.000500087
0.0308239
0.000447347
0.0305979
0.000400851
0.0303948
0.000359782
0.0302124
0.000323433
0.0300485
0.000291197
0.0299014
0.000262547
0.0297695
0.000237041
0.0296512
0.000214285
0.0295451
0.000193942
0.0294499
0.00017572
0.0293647
0.000159364
0.0292883
0.000144653
0.0292198
0.000131395
0.0291584
0.00011942
0.0291035
0.000108582
0.0290543
9.87502e-05
0.0290103
8.98119e-05
0.0289708
8.1666e-05
0.0289356
7.4224e-05
0.0289041
6.74069e-05
0.0288759
6.11444e-05
0.0288508
5.53743e-05
0.0288284
5.00392e-05
0.0288085
4.50895e-05
0.0287908
4.04804e-05
0.0287751
3.61712e-05
0.0287612
3.21257e-05
0.028749
2.83106e-05
0.0287383
2.46957e-05
0.0287291
2.12532e-05
0.0287211
1.79571e-05
0.0287143
1.47835e-05
0.0287086
1.171e-05
0.0287039
8.7149e-06
0.0287003
5.77814e-06
0.0286976
2.87979e-06
0.0286958
0.0286949
0.00139804
0.0270651
-0.000677679
0.0015123
0.0339511
0.00144257
0.0348832
0.00131758
0.0344888
0.001187
0.0339404
0.00106341
0.0334144
0.000949265
0.0329337
0.000846067
0.0324969
0.000753713
0.0321025
0.000671679
0.0317471
0.000599136
0.0314271
0.000535111
0.0311392
0.000478626
0.0308804
0.000428762
0.0306478
0.000384695
0.0304389
0.000345692
0.0302514
0.000311113
0.0300831
0.0002804
0.0299322
0.000253069
0.0297968
0.000228707
0.0296755
0.000206948
0.0295668
0.000187477
0.0294694
0.000170018
0.0293821
0.000154333
0.0293039
0.000140213
0.0292339
0.000127475
0.0291712
0.00011596
0.029115
0.000105528
0.0290647
9.60562e-05
0.0290197
8.74362e-05
0.0289795
7.95725e-05
0.0289435
7.23805e-05
0.0289113
6.5785e-05
0.0288825
5.97192e-05
0.0288569
5.41236e-05
0.028834
4.89439e-05
0.0288137
4.41325e-05
0.0287956
3.96467e-05
0.0287796
3.54477e-05
0.0287654
3.15009e-05
0.028753
2.77745e-05
0.0287421
2.42396e-05
0.0287326
2.08694e-05
0.0287244
1.76394e-05
0.0287175
1.45266e-05
0.0287117
1.15094e-05
0.0287069
8.56742e-06
0.0287032
5.68117e-06
0.0287005
2.83164e-06
0.0286987
0.0286977
0.00125286
0.0264325
-0.000620295
0.00138677
0.0338172
0.00133201
0.0349379
0.0012226
0.0345982
0.00110535
0.0340577
0.000993617
0.0335262
0.000890435
0.0330369
0.000796442
0.0325909
0.000711707
0.0321872
0.000635948
0.0318228
0.000568588
0.0314944
0.000508866
0.0311989
0.000455974
0.0309333
0.000409133
0.0306946
0.000367624
0.0304804
0.000330801
0.0302882
0.000298091
0.0301158
0.000268988
0.0299613
0.00024305
0.0298227
0.000219897
0.0296987
0.000199192
0.0295875
0.000180641
0.029488
0.000163989
0.0293988
0.000149013
0.0293189
0.000135516
0.0292474
0.000123327
0.0291834
0.000112297
0.029126
0.000102294
0.0290747
9.32012e-05
0.0290288
8.4917e-05
0.0289878
7.73508e-05
0.028951
7.04225e-05
0.0289182
6.40611e-05
0.0288889
5.82031e-05
0.0288627
5.2792e-05
0.0288394
4.77765e-05
0.0288187
4.31116e-05
0.0288002
3.87564e-05
0.0287839
3.46744e-05
0.0287695
3.08324e-05
0.0287568
2.72002e-05
0.0287457
2.37504e-05
0.028736
2.04575e-05
0.0287277
1.72981e-05
0.0287206
1.42503e-05
0.0287147
1.12937e-05
0.0287099
8.40867e-06
0.0287061
5.57674e-06
0.0287033
2.77978e-06
0.0287015
0.0287005
0.00111943
0.025864
-0.00055092
0.00126198
0.0336746
0.00122181
0.0349781
0.00112734
0.0346927
0.00102339
0.0341616
0.000923299
0.0336263
0.000830472
0.0331297
0.0007454
0.032676
0.000668203
0.0322644
0.000598766
0.0318923
0.000536696
0.0315565
0.000481404
0.0312542
0.000432236
0.0309824
0.000388539
0.0307383
0.000349703
0.0305192
0.000315162
0.0303227
0.00028441
0.0301465
0.000256995
0.0299887
0.000232519
0.0298472
0.000210636
0.0297206
0.000191037
0.0296071
0.000173453
0.0295055
0.000157648
0.0294146
0.000143415
0.0293332
0.000130572
0.0292602
0.000118961
0.029195
0.00010844
0.0291366
9.88861e-05
0.0290843
9.01915e-05
0.0290375
8.22598e-05
0.0289957
7.5006e-05
0.0289583
6.83547e-05
0.0289249
6.22392e-05
0.028895
5.65995e-05
0.0288684
5.13825e-05
0.0288446
4.654e-05
0.0288235
4.20293e-05
0.0288048
3.78118e-05
0.0287881
3.38531e-05
0.0287734
3.01218e-05
0.0287605
2.65892e-05
0.0287492
2.32295e-05
0.0287394
2.00185e-05
0.0287309
1.69341e-05
0.0287237
1.39555e-05
0.0287177
1.10633e-05
0.0287128
8.23909e-06
0.0287089
5.46517e-06
0.0287061
2.72441e-06
0.0287042
0.0287033
0.000991776
0.0253516
-0.000479389
0.00113935
0.033527
0.00111228
0.0350052
0.00103169
0.0347732
0.000940609
0.0342527
0.000852082
0.0337148
0.000769373
0.0332124
0.000693052
0.0327523
0.000623337
0.0323341
0.000560261
0.0319553
0.000503568
0.0316132
0.000452815
0.031305
0.000407482
0.0310278
0.000367041
0.0307788
0.000330978
0.0305553
0.000298812
0.0303549
0.000270101
0.0301753
0.000244448
0.0300143
0.000221498
0.0298702
0.000200942
0.0297411
0.000182498
0.0296256
0.000165925
0.0295221
0.000151005
0.0294295
0.00013755
0.0293466
0.000125391
0.0292724
0.000114383
0.029206
0.000104394
0.0291466
9.53108e-05
0.0290934
8.70324e-05
0.0290458
7.94692e-05
0.0290032
7.25422e-05
0.0289652
6.61808e-05
0.0289312
6.03226e-05
0.0289009
5.49116e-05
0.0288738
4.9898e-05
0.0288497
4.52367e-05
0.0288282
4.08877e-05
0.0288091
3.68148e-05
0.0287922
3.29856e-05
0.0287773
2.93706e-05
0.0287641
2.59429e-05
0.0287527
2.26781e-05
0.0287427
1.95536e-05
0.0287341
1.65483e-05
0.0287267
1.36429e-05
0.0287206
1.0819e-05
0.0287156
8.0591e-06
0.0287117
5.34672e-06
0.0287088
2.66564e-06
0.0287069
0.0287059
0.000867926
0.0248944
-0.000410697
0.00101857
0.0333764
0.00100377
0.03502
0.000935672
0.0348413
0.000856877
0.0343315
0.000779766
0.0337919
0.000707114
0.0332851
0.000639476
0.0328199
0.000577231
0.0323964
0.000520555
0.032012
0.000469315
0.0316645
0.00042319
0.0313511
0.000381791
0.0310692
0.000344701
0.0308159
0.000311504
0.0305885
0.000281795
0.0303846
0.0002552
0.0302018
0.000231377
0.0300382
0.000210013
0.0298915
0.000190835
0.0297603
0.000173595
0.0296428
0.000158073
0.0295376
0.000144075
0.0294435
0.000131429
0.0293593
0.000119983
0.0292838
0.000109602
0.0292164
0.000100168
0.029156
9.15749e-05
0.029102
8.37301e-05
0.0290536
7.6551e-05
0.0290104
6.99644e-05
0.0289718
6.39052e-05
0.0289373
5.83153e-05
0.0289065
5.31428e-05
0.028879
4.83416e-05
0.0288545
4.38695e-05
0.0288327
3.96894e-05
0.0288133
3.57676e-05
0.0287961
3.20739e-05
0.028781
2.85807e-05
0.0287676
2.52629e-05
0.028756
2.20976e-05
0.0287458
1.90637e-05
0.0287371
1.61417e-05
0.0287297
1.33132e-05
0.0287234
1.05612e-05
0.0287184
7.86918e-06
0.0287144
5.22171e-06
0.0287114
2.60361e-06
0.0287095
0.0287085
0.000747612
0.024492
-0.000345227
0.000898946
0.033225
0.000896228
0.0350227
0.0008393
0.0348983
0.000772323
0.0343985
0.000706441
0.0338578
0.000643797
0.0333477
0.000584802
0.0328789
0.00053003
0.0324511
0.000479794
0.0320622
0.000434066
0.0317102
0.000392643
0.0313925
0.000355258
0.0311066
0.000321601
0.0308495
0.000291347
0.0306188
0.000264169
0.0304118
0.000239757
0.0302263
0.000217822
0.0300601
0.000198097
0.0299113
0.000180347
0.0297781
0.000164352
0.0296588
0.000149919
0.0295521
0.000136877
0.0294565
0.00012507
0.0293711
0.000114362
0.0292946
0.000104633
0.0292261
9.5773e-05
0.0291648
8.76882e-05
0.0291101
8.02931e-05
0.029061
7.35125e-05
0.0290172
6.72793e-05
0.028978
6.15338e-05
0.028943
5.62226e-05
0.0289118
5.12979e-05
0.0288839
4.67173e-05
0.028859
4.24419e-05
0.0288369
3.84376e-05
0.0288173
3.46731e-05
0.0287999
3.11204e-05
0.0287845
2.77541e-05
0.028771
2.45509e-05
0.0287592
2.14895e-05
0.0287489
1.85504e-05
0.02874
1.57154e-05
0.0287325
1.29675e-05
0.0287262
1.02907e-05
0.0287211
7.66985e-06
0.028717
5.09049e-06
0.028714
2.53849e-06
0.028712
0.0287111
0.000630483
0.0241427
-0.000281167
0.000780005
0.0330755
0.000787759
0.0350149
0.000742509
0.0349435
0.000687199
0.0344538
0.000632395
0.0339126
0.000579638
0.0334005
0.000529222
0.0329293
0.000481919
0.0324984
0.000438148
0.032106
0.00039797
0.0317504
0.000361303
0.0314292
0.000327993
0.0311399
0.000297834
0.0308797
0.000270586
0.030646
0.000245999
0.0304364
0.000223826
0.0302484
0.000203831
0.0300801
0.000185793
0.0299293
0.000169511
0.0297943
0.000154799
0.0296735
0.000141489
0.0295654
0.000129432
0.0294686
0.000118491
0.029382
0.000108545
0.0293045
9.94878e-05
0.0292352
9.12219e-05
0.0291731
8.36619e-05
0.0291176
7.67315e-05
0.029068
7.03626e-05
0.0290236
6.44947e-05
0.0289839
5.90733e-05
0.0289484
5.40503e-05
0.0289168
4.9382e-05
0.0288886
4.50297e-05
0.0288634
4.09581e-05
0.028841
3.71357e-05
0.0288211
3.35342e-05
0.0288035
3.01278e-05
0.0287879
2.68932e-05
0.0287742
2.38089e-05
0.0287623
2.08556e-05
0.0287518
1.8015e-05
0.0287429
1.52706e-05
0.0287352
1.26066e-05
0.0287289
1.00083e-05
0.0287236
7.4617e-06
0.0287196
4.95344e-06
0.0287165
2.47047e-06
0.0287145
0.0287135
0.000515803
0.0238435
-0.000216625
0.000661544
0.0329298
0.000678943
0.0349975
0.000645386
0.0349771
0.000601701
0.0344975
0.000557955
0.0339563
0.000514902
0.0334435
0.00047296
0.0329713
0.000433104
0.0325383
0.000395798
0.0321433
0.000361187
0.031785
0.000329305
0.0314611
0.000300113
0.0311691
0.000273498
0.0309063
0.000249306
0.0306702
0.000227357
0.0304583
0.000207469
0.0302683
0.000189456
0.0300981
0.000173143
0.0299456
0.000158366
0.0298091
0.000144969
0.0296869
0.000132811
0.0295775
0.000121765
0.0294796
0.000111713
0.0293921
0.000102551
0.0293137
9.41841e-05
0.0292435
8.65285e-05
0.0291808
7.95083e-05
0.0291246
7.30559e-05
0.0290744
6.71107e-05
0.0290295
6.16187e-05
0.0289894
5.65312e-05
0.0289535
5.18049e-05
0.0289215
4.74008e-05
0.028893
4.32839e-05
0.0288675
3.94223e-05
0.0288449
3.57877e-05
0.0288247
3.23544e-05
0.0288069
2.90991e-05
0.0287912
2.60005e-05
0.0287773
2.30393e-05
0.0287652
2.01977e-05
0.0287547
1.74592e-05
0.0287456
1.48086e-05
0.0287379
1.22316e-05
0.0287314
9.71484e-06
0.0287262
7.24535e-06
0.028722
4.81097e-06
0.028719
2.39976e-06
0.0287169
0.0287159
0.000402679
0.0235912
-0.000150406
0.000543577
0.0327889
0.000570006
0.0349711
0.000547906
0.0349992
0.000516056
0.0345293
0.000483429
0.033989
0.000449824
0.0334771
0.00041625
0.0330049
0.000383796
0.0325707
0.000352926
0.0321742
0.000323872
0.031814
0.000296787
0.0314882
0.000271735
0.0311941
0.000248695
0.0309293
0.000227591
0.0306913
0.000208316
0.0304776
0.000190746
0.0302859
0.00017475
0.0301141
0.000160193
0.0299602
0.00014695
0.0298224
0.000134895
0.029699
0.000123914
0.0295885
0.000113901
0.0294897
0.000104758
0.0294012
9.63972e-05
0.029322
8.87378e-05
0.0292512
8.17071e-05
0.0291878
7.52399e-05
0.0291311
6.92773e-05
0.0290804
6.37663e-05
0.029035
5.86597e-05
0.0289945
5.39147e-05
0.0289583
4.9493e-05
0.0289259
4.536e-05
0.0288971
4.14847e-05
0.0288714
3.78389e-05
0.0288485
3.43974e-05
0.0288282
3.11371e-05
0.0288102
2.80372e-05
0.0287943
2.50787e-05
0.0287803
2.22442e-05
0.0287681
1.95177e-05
0.0287574
1.68845e-05
0.0287482
1.43308e-05
0.0287404
1.18438e-05
0.0287339
9.41115e-06
0.0287286
7.02142e-06
0.0287244
4.66348e-06
0.0287213
2.32655e-06
0.0287193
0.0287183
0.000290062
0.0233832
-8.20326e-05
0.000426207
0.0326527
0.000461135
0.0349362
0.000449609
0.0350107
0.000430706
0.0345482
0.000409024
0.0340106
0.00038461
0.0335016
0.000359317
0.0330301
0.000334196
0.0325959
0.000309706
0.0321987
0.000286178
0.0318376
0.000263879
0.0315105
0.000242972
0.031215
0.000223519
0.0309488
0.000205523
0.0307093
0.000188944
0.0304942
0.000173718
0.0303011
0.000159763
0.030128
0.000146987
0.0299729
0.0001353
0.029834
0.000124609
0.0297097
0.000114825
0.0295983
0.000105864
0.0294986
9.76474e-05
0.0294094
9.01032e-05
0.0293296
8.3165e-05
0.0292581
7.67719e-05
0.0291942
7.0869e-05
0.029137
6.54065e-05
0.0290858
6.03391e-05
0.0290401
5.56263e-05
0.0289992
5.12313e-05
0.0289627
4.7121e-05
0.0289301
4.32653e-05
0.0289009
3.96374e-05
0.028875
3.62125e-05
0.0288519
3.29687e-05
0.0288314
2.98856e-05
0.0288133
2.6945e-05
0.0287972
2.41302e-05
0.0287831
2.14258e-05
0.0287708
1.88176e-05
0.02876
1.62926e-05
0.0287508
1.38386e-05
0.0287429
1.1444e-05
0.0287363
9.09812e-06
0.0287309
6.79055e-06
0.0287267
4.51141e-06
0.0287236
2.25106e-06
0.0287215
0.0287205
0.000175345
0.0232195
-1.16911e-05
0.0003098
0.0325183
0.00035241
0.0348936
0.000352335
0.0350108
0.000346283
0.0345543
0.000334836
0.0340221
0.000319444
0.033517
0.000302372
0.0330472
0.000284494
0.0326137
0.000266301
0.0322169
0.000248246
0.0318556
0.000230706
0.031528
0.000213931
0.0312318
0.000198064
0.0309647
0.000183182
0.0307242
0.000169311
0.030508
0.000156443
0.030314
0.000144545
0.0301399
0.000133568
0.0299839
0.000123455
0.0298442
0.000114144
0.029719
0.000105572
0.0296069
9.76782e-05
0.0295065
9.04019e-05
0.0294167
8.36872e-05
0.0293363
7.74817e-05
0.0292643
7.17369e-05
0.0291999
6.64081e-05
0.0291423
6.14544e-05
0.0290908
5.68385e-05
0.0290447
5.25268e-05
0.0290035
4.84884e-05
0.0289667
4.46954e-05
0.0289338
4.11226e-05
0.0289045
3.77469e-05
0.0288784
3.45475e-05
0.0288551
3.15055e-05
0.0288345
2.86034e-05
0.0288162
2.58257e-05
0.0288
2.31577e-05
0.0287858
2.05864e-05
0.0287733
1.80993e-05
0.0287625
1.56851e-05
0.0287532
1.33332e-05
0.0287453
1.10335e-05
0.0287386
8.7766e-06
0.0287332
6.55337e-06
0.0287289
4.35516e-06
0.0287258
2.17349e-06
0.0287237
0.0287227
6.67575e-05
0.0230905
6.22528e-05
0.000194877
0.0323902
0.000243854
0.0348446
0.000256452
0.0349982
0.000262988
0.0345477
0.000260933
0.0340241
0.000254561
0.0335233
0.000245618
0.0330562
0.000234856
0.0326245
0.000222861
0.0322289
0.000210214
0.0318683
0.000197389
0.0315408
0.000184717
0.0312445
0.000172419
0.0309769
0.000160644
0.0307359
0.000149483
0.0305192
0.000138979
0.0303245
0.000129147
0.0301498
0.000119978
0.0299931
0.000111451
0.0298527
0.000103532
0.0297269
9.61846e-05
0.0296142
8.93684e-05
0.0295133
8.30428e-05
0.029423
7.71676e-05
0.0293422
7.17043e-05
0.0292698
6.66164e-05
0.029205
6.18695e-05
0.0291471
5.7432e-05
0.0290952
5.32744e-05
0.0290489
4.93698e-05
0.0290074
4.56935e-05
0.0289704
4.2223e-05
0.0289373
3.89376e-05
0.0289078
3.58185e-05
0.0288815
3.28484e-05
0.0288581
3.00117e-05
0.0288373
2.7294e-05
0.0288189
2.46821e-05
0.0288026
2.21639e-05
0.0287883
1.97283e-05
0.0287758
1.73648e-05
0.0287649
1.50637e-05
0.0287555
1.28161e-05
0.0287475
1.06134e-05
0.0287408
8.44748e-06
0.0287354
6.31056e-06
0.0287311
4.19519e-06
0.0287279
2.09407e-06
0.0287258
0.0287248
-4.0752e-05
0.0229909
0.000140369
8.2387e-05
0.032267
0.000135345
0.0347916
0.000162211
0.0349713
0.000180131
0.0345298
0.000187466
0.0340168
0.000190195
0.0335206
0.00018923
0.0330571
0.000185445
0.0326283
0.000179535
0.0322348
0.000172212
0.0318756
0.000164043
0.031549
0.00015543
0.0312531
0.000146672
0.0309857
0.000137988
0.0307446
0.000129526
0.0305277
0.000121383
0.0303326
0.000113618
0.0301575
0.000106261
0.0300004
9.93246e-05
0.0298596
9.28047e-05
0.0297334
8.66888e-05
0.0296203
8.09584e-05
0.0295191
7.55912e-05
0.0294284
7.05629e-05
0.0293472
6.58489e-05
0.0292745
6.14245e-05
0.0292095
5.72659e-05
0.0291512
5.33502e-05
0.0290992
4.96562e-05
0.0290526
4.61638e-05
0.0290109
4.28542e-05
0.0289737
3.97103e-05
0.0289405
3.67162e-05
0.0289108
3.38572e-05
0.0288844
3.11198e-05
0.0288608
2.84915e-05
0.0288399
2.59609e-05
0.0288214
2.35175e-05
0.0288051
2.11515e-05
0.0287907
1.88538e-05
0.0287781
1.66159e-05
0.0287671
1.443e-05
0.0287577
1.22887e-05
0.0287496
1.01848e-05
0.0287429
8.11165e-06
0.0287374
6.06275e-06
0.0287331
4.0319e-06
0.0287299
2.01299e-06
0.0287278
0.0287268
-0.000153531
0.0229223
0.000222104
-3.02918e-05
0.0321438
2.60484e-05
0.0347353
7.01999e-05
0.0349272
9.74559e-05
0.0345026
0.000114716
0.0339996
0.000126581
0.0335087
0.000133368
0.0330503
0.000136408
0.0326253
0.00013646
0.0322347
0.000134367
0.0318777
0.000130783
0.0315526
0.000126168
0.0312577
0.000120907
0.030991
0.000115285
0.0307503
0.000109504
0.0305334
0.000103709
0.0303384
9.80048e-05
0.0301632
9.24578e-05
0.030006
8.71128e-05
0.029865
8.19941e-05
0.0297385
7.71134e-05
0.0296252
7.24729e-05
0.0295237
6.80686e-05
0.0294328
6.3892e-05
0.0293514
5.9932e-05
0.0292785
5.61758e-05
0.0292132
5.26099e-05
0.0291548
4.92205e-05
0.0291025
4.59941e-05
0.0290558
4.29175e-05
0.029014
3.99782e-05
0.0289766
3.71643e-05
0.0289433
3.44645e-05
0.0289135
3.18685e-05
0.028887
2.93662e-05
0.0288633
2.69488e-05
0.0288424
2.46077e-05
0.0288238
2.23349e-05
0.0288073
2.0123e-05
0.0287929
1.79652e-05
0.0287802
1.58548e-05
0.0287692
1.37859e-05
0.0287597
1.17524e-05
0.0287517
9.74888e-06
0.0287449
7.77002e-06
0.0287394
5.81064e-06
0.0287351
3.86576e-06
0.0287319
1.9305e-06
0.0287298
0.0287287
-0.000264716
0.0228798
0.000307211
-0.000150547
0.0320296
-7.59455e-05
0.0346607
-2.02541e-05
0.0348715
1.46618e-05
0.0344676
4.3083e-05
0.0339711
6.38029e-05
0.033488
7.81738e-05
0.033036
8.78998e-05
0.0326155
9.37734e-05
0.0322288
9.6797e-05
0.0318746
9.7713e-05
0.0315517
9.70198e-05
0.0312584
9.52071e-05
0.0309928
9.26093e-05
0.0307529
8.94793e-05
0.0305366
8.60131e-05
0.0303419
8.23562e-05
0.0301669
7.86106e-05
0.0300097
7.48518e-05
0.0298687
7.1132e-05
0.0297422
6.74856e-05
0.0296289
6.39358e-05
0.0295273
6.04962e-05
0.0294362
5.71734e-05
0.0293547
5.39699e-05
0.0292817
5.08847e-05
0.0292163
4.79143e-05
0.0291578
4.50539e-05
0.0291054
4.22978e-05
0.0290585
3.96397e-05
0.0290167
3.70731e-05
0.0289792
3.45915e-05
0.0289458
3.21883e-05
0.0289159
2.98574e-05
0.0288893
2.75925e-05
0.0288656
2.53879e-05
0.0288446
2.32379e-05
0.0288259
2.11375e-05
0.0288094
1.90814e-05
0.0287949
1.70649e-05
0.0287822
1.50835e-05
0.0287712
1.31328e-05
0.0287617
1.12086e-05
0.0287536
9.30679e-06
0.0287468
7.4235e-06
0.0287413
5.55488e-06
0.028737
3.6972e-06
0.0287337
1.8468e-06
0.0287316
0.0287306
-0.000374163
0.0228591
0.000394878
-0.000264113
0.0319196
-0.000177152
0.0345737
-0.000112444
0.0348068
-6.38932e-05
0.0344191
-2.67351e-05
0.033934
1.48372e-06
0.0334598
2.37722e-05
0.0330137
4.00063e-05
0.0325993
5.15859e-05
0.0322173
5.96139e-05
0.0318666
6.49396e-05
0.0315463
6.80741e-05
0.0312553
6.9649e-05
0.0309912
7.00293e-05
0.0307525
6.95118e-05
0.0305371
6.83493e-05
0.0303431
6.67192e-05
0.0301685
6.47599e-05
0.0300117
6.25774e-05
0.0298709
6.02499e-05
0.0297446
5.78335e-05
0.0296313
5.53718e-05
0.0295297
5.28952e-05
0.0294387
5.0426e-05
0.0293572
4.79794e-05
0.0292841
4.55658e-05
0.0292187
4.31919e-05
0.0291601
4.08618e-05
0.0291077
3.85774e-05
0.0290608
3.63393e-05
0.0290189
3.41469e-05
0.0289814
3.19991e-05
0.0289479
2.9894e-05
0.028918
2.78296e-05
0.0288914
2.58033e-05
0.0288676
2.38128e-05
0.0288466
2.18553e-05
0.0288279
1.99284e-05
0.0288114
1.80293e-05
0.0287968
1.61554e-05
0.0287841
1.43041e-05
0.028773
1.24727e-05
0.0287635
1.06588e-05
0.0287554
8.85974e-06
0.0287486
7.07303e-06
0.0287431
5.29616e-06
0.0287387
3.52668e-06
0.0287355
1.76212e-06
0.0287334
0.0287323
-0.000481246
0.0228563
0.000484056
-0.000373577
0.0318119
-0.000277247
0.0344774
-0.000200642
0.0347301
-0.000140978
0.0343594
-9.44789e-05
0.0338875
-5.77029e-05
0.033423
-2.91487e-05
0.0329851
-7.13761e-06
0.0325773
9.92526e-06
0.0322002
2.2889e-05
0.0318537
3.25275e-05
0.0315367
3.94071e-05
0.0312484
4.43092e-05
0.0309863
4.76102e-05
0.0307492
4.96576e-05
0.030535
5.07675e-05
0.0303419
5.11377e-05
0.0301682
5.09452e-05
0.0300119
5.03251e-05
0.0298715
4.9378e-05
0.0297455
4.81834e-05
0.0296325
4.68042e-05
0.0295311
4.52868e-05
0.0294402
4.36681e-05
0.0293588
4.19763e-05
0.0292858
4.02333e-05
0.0292204
3.84554e-05
0.0291619
3.66553e-05
0.0291095
3.48427e-05
0.0290626
3.30249e-05
0.0290207
3.12072e-05
0.0289832
2.93937e-05
0.0289497
2.75873e-05
0.0289198
2.57901e-05
0.0288932
2.40032e-05
0.0288694
2.22276e-05
0.0288483
2.04634e-05
0.0288296
1.87108e-05
0.0288131
1.69695e-05
0.0287986
1.52389e-05
0.0287858
1.35185e-05
0.0287748
1.18073e-05
0.0287652
1.01044e-05
0.0287571
8.40885e-06
0.0287503
6.7195e-06
0.0287448
5.03516e-06
0.0287404
3.35464e-06
0.0287372
1.67668e-06
0.0287351
0.028734
-0.000585335
0.0228681
0.000573553
-0.000479358
0.0317059
-0.000374188
0.0343722
-0.000285836
0.0346418
-0.000216142
0.0342897
-0.000160535
0.0338319
-0.000116043
0.0333785
-8.06206e-05
0.0329497
-5.25282e-05
0.0325492
-3.03985e-05
0.0321781
-1.3077e-05
0.0318363
3.06239e-07
0.0315233
1.10661e-05
0.0312376
1.92336e-05
0.0309781
2.54019e-05
0.030743
2.99704e-05
0.0305305
3.33185e-05
0.0303386
3.56544e-05
0.0301658
3.7204e-05
0.0300103
3.81286e-05
0.0298706
3.85465e-05
0.0297451
3.85633e-05
0.0296325
3.82569e-05
0.0295314
3.76915e-05
0.0294408
3.69184e-05
0.0293595
3.59775e-05
0.0292867
3.49019e-05
0.0292215
3.37176e-05
0.0291631
3.2446e-05
0.0291108
3.11039e-05
0.029064
2.97055e-05
0.0290221
2.82619e-05
0.0289847
2.67825e-05
0.0289512
2.52747e-05
0.0289213
2.37446e-05
0.0288947
2.21972e-05
0.028871
2.06366e-05
0.0288499
1.9066e-05
0.0288312
1.74881e-05
0.0288147
1.59049e-05
0.0288002
1.4318e-05
0.0287874
1.27288e-05
0.0287764
1.11382e-05
0.0287668
9.54693e-06
0.0287587
7.95538e-06
0.0287519
6.36388e-06
0.0287464
4.77258e-06
0.028742
3.18154e-06
0.0287388
1.59072e-06
0.0287367
0.0287356
-0.000685709
0.0228917
0.000662046
-0.000581031
0.0316012
-0.00046691
0.0342581
-0.000368034
0.0345429
-0.000288758
0.0342105
-0.000224598
0.0337677
-0.000172757
0.0333267
-0.000130837
0.0329078
-9.70592e-05
0.0325154
-6.98632e-05
0.0321509
-4.8034e-05
0.0318145
-3.0497e-05
0.0315058
-1.65686e-05
0.0312237
-5.46455e-06
0.030967
3.3908e-06
0.0307341
1.04828e-05
0.0305234
1.60346e-05
0.030333
2.03041e-05
0.0301616
2.35724e-05
0.0300071
2.60205e-05
0.0298682
2.77821e-05
0.0297433
2.89974e-05
0.0296312
2.97516e-05
0.0295306
3.01298e-05
0.0294404
3.0194e-05
0.0293595
2.99979e-05
0.0292869
2.95852e-05
0.0292219
2.89907e-05
0.0291637
2.82443e-05
0.0291116
2.73704e-05
0.0290649
2.63894e-05
0.0290231
2.53185e-05
0.0289857
2.41718e-05
0.0289523
2.29616e-05
0.0289225
2.16981e-05
0.0288959
2.03897e-05
0.0288723
1.90438e-05
0.0288512
1.76665e-05
0.0288326
1.62631e-05
0.0288161
1.4838e-05
0.0288016
1.33949e-05
0.0287889
1.19371e-05
0.0287778
1.04673e-05
0.0287683
8.98772e-06
0.0287602
7.50041e-06
0.0287534
6.00704e-06
0.0287479
4.50906e-06
0.0287435
3.00781e-06
0.0287403
1.50443e-06
0.0287382
0.0287371
-0.000781555
0.0229251
0.000748155
-0.000677851
0.0314975
-0.000555189
0.0341355
-0.000446833
0.0344346
-0.000358476
0.0341221
-0.000286379
0.0336956
-0.000227592
0.0332679
-0.000179572
0.0328598
-0.000140387
0.0324762
-0.000108389
0.0321189
-8.22764e-05
0.0317884
-6.09679e-05
0.0314845
-4.36112e-05
0.0312063
-2.94709e-05
0.0309529
-1.79501e-05
0.0307226
-8.62595e-06
0.030514
-1.08739e-06
0.0303255
5.10299e-06
0.0301554
1.00756e-05
0.0300021
1.40255e-05
0.0298642
1.71122e-05
0.0297403
1.95132e-05
0.0296288
2.131e-05
0.0295289
2.26213e-05
0.0294391
2.35132e-05
0.0293586
2.40546e-05
0.0292864
2.42976e-05
0.0292217
2.42873e-05
0.0291637
2.4062e-05
0.0291118
2.36524e-05
0.0290653
2.30858e-05
0.0290237
2.23849e-05
0.0289864
2.1569e-05
0.0289532
2.06547e-05
0.0289234
1.96562e-05
0.0288969
1.85856e-05
0.0288733
1.74535e-05
0.0288524
1.62688e-05
0.0288338
1.50393e-05
0.0288173
1.37718e-05
0.0288028
1.24722e-05
0.0287902
1.11455e-05
0.0287791
9.79627e-06
0.0287696
8.42835e-06
0.0287616
7.04523e-06
0.0287548
5.64997e-06
0.0287493
4.24535e-06
0.0287449
2.83393e-06
0.0287417
1.41807e-06
0.0287396
0.0287385
-0.000872006
0.0229667
0.000830466
-0.000769085
0.0313946
-0.000638878
0.0340052
-0.000521779
0.0343175
-0.00042504
0.0340254
-0.000345622
0.0336162
-0.00028037
0.0332026
-0.000226641
0.032806
-0.000182359
0.0324319
-0.000145821
0.0320823
-0.000115647
0.0317582
-9.07209e-05
0.0314595
-7.01124e-05
0.0311857
-5.3071e-05
0.0309359
-3.89674e-05
0.0307085
-2.73108e-05
0.0305024
-1.76704e-05
0.0303159
-9.73769e-06
0.0301474
-3.22235e-06
0.0299956
2.13626e-06
0.0298589
6.5549e-06
0.0297358
1.01259e-05
0.0296253
1.29503e-05
0.029526
1.51861e-05
0.0294369
1.68909e-05
0.0293569
1.81608e-05
0.0292851
1.90517e-05
0.0292208
1.96193e-05
0.0291631
1.99088e-05
0.0291115
1.99587e-05
0.0290652
1.98025e-05
0.0290238
1.94681e-05
0.0289868
1.898e-05
0.0289536
1.83592e-05
0.0289241
1.76237e-05
0.0288977
1.67892e-05
0.0288742
1.58694e-05
0.0288533
1.4876e-05
0.0288348
1.38195e-05
0.0288184
1.27088e-05
0.028804
1.15519e-05
0.0287913
1.03558e-05
0.0287803
9.1267e-06
0.0287709
7.87007e-06
0.0287628
6.59084e-06
0.0287561
5.29347e-06
0.0287506
3.98203e-06
0.0287462
2.66029e-06
0.028743
1.33182e-06
0.0287409
0.0287398
-0.000956254
0.0230153
0.000907624
-0.00085415
0.0312925
-0.000717552
0.0338686
-0.000592519
0.0341924
-0.00048823
0.0339211
-0.000402132
0.0335301
-0.000330937
0.0331314
-0.000271901
0.032747
-0.000222856
0.0323829
-0.000182047
0.0320415
-0.000148035
0.0317242
-0.000119661
0.0314312
-9.59595e-05
0.031162
-7.61372e-05
0.030916
-5.95546e-05
0.0306919
-4.56603e-05
0.0304885
-3.40377e-05
0.0303042
-2.43109e-05
0.0301377
-1.61913e-05
0.0299875
-9.41659e-06
0.0298521
-3.81004e-06
0.0297302
8.16357e-07
0.0296206
4.68931e-06
0.0295222
7.83727e-06
0.0294337
1.03434e-05
0.0293544
1.23342e-05
0.0292831
1.38611e-05
0.0292193
1.49987e-05
0.029162
1.57965e-05
0.0291107
1.62997e-05
0.0290647
1.65485e-05
0.0290236
1.65764e-05
0.0289867
1.64123e-05
0.0289538
1.60816e-05
0.0289244
1.56064e-05
0.0288982
1.50056e-05
0.0288748
1.42961e-05
0.028854
1.34923e-05
0.0288356
1.26072e-05
0.0288193
1.1652e-05
0.0288049
1.06368e-05
0.0287923
9.57034e-06
0.0287814
8.46057e-06
0.028772
7.31453e-06
0.028764
6.13861e-06
0.0287572
4.93861e-06
0.0287518
3.71988e-06
0.0287474
2.48742e-06
0.0287443
1.24594e-06
0.0287421
0.0287411
-0.00103359
0.0230704
0.000978512
-0.00093257
0.0311915
-0.000790656
0.0337267
-0.000658765
0.0340605
-0.000547842
0.0338102
-0.000455747
0.033438
-0.000379149
0.0330549
-0.000315235
0.0326831
-0.000261774
0.0323294
-0.000216974
0.0319967
-0.000179354
0.0316866
-0.000147718
0.0313995
-0.000121077
0.0311354
-9.8604e-05
0.0308936
-7.9639e-05
0.030673
-6.36047e-05
0.0304725
-5.00624e-05
0.0302907
-3.86149e-05
0.0301263
-2.8949e-05
0.0299778
-2.07992e-05