/*--------------------------------*- C++ -*----------------------------------*\
  =========                 |
  \\      /  F ield         | OpenFOAM: The Open Source CFD Toolbox
   \\    /   O peration     | Website:  https://openfoam.org
    \\  /    A nd           | Version:  7
     \\/     M anipulation  |
\*---------------------------------------------------------------------------*/
FoamFile
{
    version     2.0;
    format      ascii;
    class       volVectorField;
    location    "20";
    object      U;
}
// * * * * * * * * * * * * * * * * * * * * * * * * * * * * * * * * * * * * * //

dimensions      [0 1 -1 0 0 0 0];

internalField   nonuniform List<vector> 
3312
(
(0.00822444 -0.0116711 3.70843e-21)
(0.0386253 -0.0256787 -3.95331e-20)
(0.0914884 -0.0325169 7.84868e-20)
(0.152255 -0.0345951 5.01452e-20)
(0.213127 -0.0339701 -3.1691e-21)
(0.271308 -0.0320895 -2.8956e-20)
(0.325746 -0.0298092 4.4977e-21)
(0.376232 -0.0275333 7.0811e-21)
(0.422956 -0.0254034 8.43978e-21)
(0.466202 -0.0234483 1.1841e-20)
(0.506253 -0.0216622 6.39122e-20)
(0.543381 -0.0200314 -3.35274e-20)
(0.57785 -0.0185391 1.58634e-21)
(0.609869 -0.0171712 3.65835e-20)
(0.639505 -0.0159442 -3.69657e-20)
(0.0106174 -0.0348183 1.17067e-19)
(0.0437672 -0.0766595 1.41121e-19)
(0.0978618 -0.0971255 -2.61608e-20)
(0.158935 -0.103376 -7.63313e-21)
(0.219611 -0.10154 -2.08634e-19)
(0.277371 -0.095938 2.68492e-20)
(0.331324 -0.0891322 -1.35127e-20)
(0.381336 -0.082334 -4.06314e-20)
(0.427621 -0.0759699 4.51994e-20)
(0.470466 -0.0701272 3.21141e-21)
(0.510153 -0.0647886 -1.3864e-19)
(0.546957 -0.0599136 7.52265e-20)
(0.581138 -0.0554514 2.92301e-20)
(0.612876 -0.0513624 -2.9121e-20)
(0.642168 -0.0476991 -2.30889e-20)
(0.0153479 -0.057384 -3.09683e-19)
(0.0539501 -0.126516 2.00004e-19)
(0.110499 -0.160464 9.48794e-20)
(0.172192 -0.170935 7.92447e-20)
(0.23249 -0.168001 -1.79392e-20)
(0.28942 -0.158799 -1.81624e-20)
(0.342412 -0.147572 6.85519e-20)
(0.391482 -0.136341 2.36825e-20)
(0.436894 -0.125819 1.61298e-19)
(0.478944 -0.116155 1.24379e-19)
(0.51791 -0.107324 -2.91007e-20)
(0.554067 -0.0992563 1.97284e-19)
(0.587678 -0.0918684 -3.50751e-19)
(0.618857 -0.0851008 5.11724e-20)
(0.64747 -0.0790533 -6.5832e-21)
(0.0223062 -0.0789928 -5.22011e-20)
(0.0689735 -0.174518 -1.50576e-19)
(0.129184 -0.221705 -3.41292e-19)
(0.191826 -0.236473 4.28903e-19)
(0.251586 -0.232631 2.21142e-19)
(0.3073 -0.220027 -4.06829e-19)
(0.358875 -0.204555 1.89527e-19)
(0.40655 -0.189036 1.60404e-19)
(0.450669 -0.174482 -2.45239e-19)
(0.49154 -0.161109 -2.82883e-20)
(0.529434 -0.148883 -8.96044e-20)
(0.564632 -0.137708 1.23817e-19)
(0.597395 -0.127467 -1.71052e-19)
(0.62775 -0.11809 3.84677e-20)
(0.655365 -0.109742 -1.32495e-19)
(0.03133 -0.0992872 -1.6723e-19)
(0.0885393 -0.219966 7.30194e-20)
(0.153593 -0.280051 1.12926e-20)
(0.217536 -0.299218 -1.05255e-19)
(0.276636 -0.29473 6.80507e-19)
(0.330782 -0.279 -4.61986e-19)
(0.380509 -0.259523 -1.46682e-19)
(0.42636 -0.23992 8.02923e-20)
(0.468785 -0.22151 -9.76762e-20)
(0.508109 -0.204581 -1.85823e-19)
(0.544598 -0.189095 -8.77498e-20)
(0.578534 -0.17493 9.84355e-20)
(0.610181 -0.161936 3.81335e-19)
(0.63946 -0.150042 -1.73991e-21)
(0.665782 -0.139504 -2.54675e-19)
(0.0422073 -0.117935 2.37097e-19)
(0.112256 -0.262198 -2.25214e-19)
(0.1833 -0.334744 2.65857e-20)
(0.248926 -0.358435 -1.7477e-19)
(0.307292 -0.353628 1.69652e-20)
(0.359563 -0.335123 -1.297e-19)
(0.40705 -0.311947 1.04937e-19)
(0.450676 -0.28852 3.80221e-20)
(0.491029 -0.266474 -3.59388e-20)
(0.528462 -0.246183 -3.89654e-19)
(0.563232 -0.227608 4.23713e-19)
(0.595621 -0.210602 -3.54339e-19)
(0.625898 -0.194979 3.10238e-19)
(0.653869 -0.18068 -3.95963e-19)
(0.678631 -0.168082 2.20548e-19)
(0.0546798 -0.134636 -2.42207e-19)
(0.139644 -0.300606 5.40373e-19)
(0.21778 -0.385075 -3.64982e-19)
(0.285507 -0.413434 -7.01992e-20)
(0.343123 -0.408699 4.07951e-19)
(0.39327 -0.387837 1.1859e-19)
(0.438169 -0.361334 -4.61907e-19)
(0.479206 -0.334393 3.30534e-19)
(0.517143 -0.308976 3.45724e-21)
(0.552368 -0.285555 -3.76817e-19)
(0.58513 -0.264096 2.7001e-19)
(0.615707 -0.244425 3.26561e-19)
(0.644377 -0.22632 -6.77217e-19)
(0.670832 -0.209743 7.34518e-19)
(0.693807 -0.195229 2.10544e-19)
(0.0684476 -0.149126 3.99202e-19)
(0.170141 -0.334642 8.27771e-22)
(0.256416 -0.430402 -3.91703e-19)
(0.3267 -0.463578 2.60045e-19)
(0.383622 -0.459361 -7.05639e-19)
(0.431461 -0.43663 -2.5768e-19)
(0.473483 -0.407228 -4.14233e-20)
(0.511612 -0.377135 -1.52992e-19)
(0.546823 -0.348656 8.63322e-19)
(0.579558 -0.322373 -6.77619e-19)
(0.610053 -0.298265 2.90228e-19)
(0.638581 -0.276133 -8.02013e-19)
(0.665431 -0.255715 5.62794e-19)
(0.69019 -0.236993 -5.06895e-19)
(0.711188 -0.220706 5.38516e-19)
(0.0831745 -0.161186 1.20088e-19)
(0.203108 -0.363831 -8.23274e-19)
(0.2985 -0.470148 -1.13787e-19)
(0.371844 -0.508296 1.57218e-19)
(0.428206 -0.505092 8.57807e-19)
(0.473635 -0.481039 -1.25918e-19)
(0.512551 -0.449224 -6.86377e-19)
(0.547503 -0.416386 4.33062e-19)
(0.579724 -0.385191 -7.19264e-20)
(0.609723 -0.356345 7.38173e-19)
(0.637728 -0.32985 -5.98505e-19)
(0.664002 -0.305484 -3.0949e-19)
(0.68885 -0.282935 1.17583e-19)
(0.711771 -0.262207 1.57246e-19)
(0.730648 -0.244283 4.84311e-21)
(0.0984945 -0.170644 6.28364e-19)
(0.237841 -0.387777 9.7129e-20)
(0.343249 -0.503822 1.03628e-18)
(0.420198 -0.547087 -7.37815e-19)
(0.476224 -0.545432 -2.40835e-20)
(0.519226 -0.520658 1.18001e-19)
(0.554884 -0.486968 8.48696e-19)
(0.586449 -0.451839 -4.93896e-19)
(0.615464 -0.418313 1.25573e-19)
(0.642526 -0.38724 2.73151e-19)
(0.66786 -0.358657 -9.45863e-21)
(0.691718 -0.332319 6.15844e-19)
(0.714421 -0.307849 -2.33719e-19)
(0.735402 -0.285244 2.40622e-20)
(0.752062 -0.265783 2.27326e-19)
(0.114018 -0.177381 3.27823e-19)
(0.27358 -0.406175 -4.15156e-19)
(0.389806 -0.531022 -1.23716e-20)
(0.470952 -0.579531 1.85353e-21)
(0.526962 -0.579988 -9.65059e-20)
(0.567621 -0.555142 1.68928e-19)
(0.599949 -0.520162 -1.15333e-19)
(0.627983 -0.483233 -3.97871e-19)
(0.653627 -0.44779 7.11642e-19)
(0.677597 -0.414844 -1.13782e-18)
(0.700122 -0.384474 3.88934e-20)
(0.721442 -0.356415 2.91492e-19)
(0.741913 -0.330215 -2.77553e-19)
(0.760926 -0.30584 -7.96692e-20)
(0.775345 -0.284918 4.53177e-19)
(0.129341 -0.181334 2.39796e-20)
(0.30952 -0.418816 -5.27052e-19)
(0.437251 -0.55144 5.39493e-22)
(0.523228 -0.605293 -1.47059e-19)
(0.579645 -0.608445 -3.49836e-20)
(0.618151 -0.584215 -6.11369e-20)
(0.647164 -0.548574 -4.41735e-20)
(0.671586 -0.510379 2.93054e-19)
(0.693746 -0.473475 -9.36932e-20)
(0.714511 -0.439064 7.42897e-19)
(0.734128 -0.407292 1.19108e-19)
(0.752835 -0.377894 -2.54416e-19)
(0.771058 -0.350318 -1.23416e-20)
(0.788179 -0.324371 -2.85779e-19)
(0.800416 -0.301947 -2.56985e-19)
(0.144052 -0.182499 -1.47563e-19)
(0.344822 -0.425593 1.51195e-19)
(0.484618 -0.564878 1.61874e-19)
(0.576097 -0.624129 3.86448e-20)
(0.633449 -0.63056 4.19329e-20)
(0.670111 -0.607662 -1.36444e-19)
(0.695928 -0.572021 2.26411e-19)
(0.716743 -0.533117 -2.74633e-19)
(0.735384 -0.495215 -9.19345e-20)
(0.752913 -0.459722 -1.87769e-19)
(0.769604 -0.426849 -5.56301e-19)
(0.785681 -0.39631 6.74062e-19)
(0.801709 -0.3674 -2.08095e-19)
(0.817217 -0.339724 3.84413e-19)
(0.827562 -0.315663 -6.60147e-19)
(0.157742 -0.180934 -1.36248e-20)
(0.378634 -0.426513 -3.10092e-20)
(0.530903 -0.571243 -7.06086e-20)
(0.62858 -0.635891 1.84997e-21)
(0.687505 -0.646176 8.35048e-20)
(0.722751 -0.625348 -1.08956e-19)
(0.745589 -0.590403 -1.81872e-19)
(0.762865 -0.55139 2.03428e-19)
(0.777969 -0.513018 -3.81161e-20)
(0.792207 -0.47694 2.15661e-19)
(0.805891 -0.443501 8.28617e-21)
(0.819201 -0.412511 -1.6342e-19)
(0.832908 -0.383269 3.59883e-19)
(0.847134 -0.355094 -2.90222e-19)
(0.856449 -0.330019 1.95926e-19)
(0.170018 -0.176763 3.82762e-20)
(0.410102 -0.421696 3.29138e-20)
(0.57508 -0.570562 2.26695e-20)
(0.679667 -0.640531 3.9522e-20)
(0.740909 -0.655215 -3.61405e-20)
(0.775298 -0.637195 -6.44025e-20)
(0.795491 -0.603652 -2.32011e-20)
(0.809388 -0.565128 1.04925e-19)
(0.821026 -0.526776 2.25099e-19)
(0.832043 -0.490501 -1.82518e-20)
(0.842875 -0.456742 -1.1238e-19)
(0.853654 -0.425301 -2.33498e-19)
(0.865233 -0.395151 4.70955e-19)
(0.878924 -0.364527 -3.35585e-19)
(0.890177 -0.335499 7.69998e-19)
(0.180538 -0.170184 -1.75647e-19)
(0.438386 -0.411368 5.25838e-20)
(0.616121 -0.562978 -7.92044e-20)
(0.728326 -0.638106 -2.50223e-20)
(0.79273 -0.657683 4.81357e-20)
(0.826958 -0.643196 2.41592e-20)
(0.844961 -0.611771 1.70763e-20)
(0.85573 -0.574359 -3.37124e-20)
(0.864016 -0.536572 -1.38856e-20)
(0.871849 -0.500636 -1.67315e-19)
(0.879836 -0.46718 2.25597e-19)
(0.888058 -0.436208 -3.96053e-19)
(0.896952 -0.407231 2.55821e-19)
(0.907585 -0.38007 -2.04644e-19)
(0.919416 -0.357664 -2.08615e-20)
(0.189024 -0.161386 3.74104e-20)
(0.462703 -0.395815 -4.97895e-20)
(0.653015 -0.548779 -1.18999e-19)
(0.773518 -0.628786 1.4956e-19)
(0.842024 -0.653673 -2.45158e-20)
(0.876923 -0.643415 3.32939e-20)
(0.893317 -0.614818 2.63732e-20)
(0.901294 -0.579138 -2.75733e-20)
(0.906379 -0.542443 -1.31525e-21)
(0.911024 -0.507316 1.66136e-20)
(0.916024 -0.474593 -6.76417e-20)
(0.921425 -0.444436 1.28715e-19)
(0.927271 -0.416694 -1.40165e-19)
(0.934318 -0.391303 8.64587e-20)
(0.943711 -0.368511 -1.00172e-20)
(0.195147 -0.150553 3.37482e-19)
(0.482353 -0.375491 3.55412e-19)
(0.684738 -0.528362 -6.5203e-21)
(0.814271 -0.612855 -1.69474e-19)
(0.887843 -0.643361 1.07261e-19)
(0.924381 -0.637972 -1.74921e-19)
(0.939891 -0.612882 -6.71144e-20)
(0.945528 -0.579514 4.65804e-20)
(0.947648 -0.544361 -1.88222e-20)
(0.949185 -0.510365 1.39272e-20)
(0.951158 -0.478544 4.61068e-20)
(0.95367 -0.44913 6.9944e-20)
(0.956549 -0.422141 -1.13877e-19)
(0.960173 -0.397622 6.55717e-20)
(0.966495 -0.374664 -1.82869e-19)
(0.198633 -0.138161 -1.27111e-19)
(0.496715 -0.351091 1.69598e-19)
(0.710351 -0.502288 -3.20963e-19)
(0.849481 -0.59067 1.24369e-20)
(0.929342 -0.626977 -4.36342e-20)
(0.968542 -0.627063 -1.13202e-19)
(0.98404 -0.606114 -1.12595e-19)
(0.987933 -0.575608 -6.72437e-20)
(0.987451 -0.542411 -3.28663e-21)
(0.986099 -0.509829 5.5485e-20)
(0.985188 -0.479087 2.05527e-20)
(0.984965 -0.450497 -2.61769e-20)
(0.985227 -0.42423 5.05143e-20)
(0.986054 -0.400562 -1.34231e-20)
(0.989471 -0.378005 -7.33058e-20)
(0.199406 -0.124636 5.10727e-20)
(0.505263 -0.323264 -3.12662e-19)
(0.729142 -0.471151 5.19891e-20)
(0.878103 -0.562799 -1.59106e-19)
(0.965433 -0.604935 -1.22503e-19)
(1.00867 -0.610886 5.01016e-20)
(1.02515 -0.594728 1.05806e-20)
(1.02803 -0.567629 2.04639e-19)
(1.02545 -0.536807 -1.35026e-19)
(1.02154 -0.505948 -1.08695e-20)
(1.01801 -0.476527 -6.0292e-21)
(1.0153 -0.448973 -2.93729e-20)
(1.01328 -0.423578 1.25996e-20)
(1.01186 -0.400788 1.35425e-20)
(1.01283 -0.378794 2.6467e-20)
(0.197428 -0.110355 4.22033e-19)
(0.507616 -0.292771 -3.98703e-19)
(0.740429 -0.435739 1.0928e-19)
(0.89941 -0.5298 7.58946e-19)
(0.995147 -0.577661 -2.84909e-20)
(1.04383 -0.589862 -9.47153e-20)
(1.06257 -0.57898 -2.58509e-19)
(1.06535 -0.555834 1.74789e-19)
(1.06128 -0.527823 -8.98098e-20)
(1.05526 -0.499009 6.82433e-20)
(1.04943 -0.471159 -1.02419e-19)
(1.04449 -0.444853 1.3991e-20)
(1.04046 -0.420473 4.08637e-20)
(1.03715 -0.3986 3.58691e-20)
(1.03608 -0.377342 -1.7758e-21)
(0.192723 -0.0957047 -2.88008e-20)
(0.503557 -0.260432 4.37943e-19)
(0.743613 -0.396928 -1.87514e-19)
(0.912592 -0.492392 -1.75174e-19)
(1.01773 -0.545687 1.14195e-19)
(1.07321 -0.564349 8.90334e-20)
(1.09561 -0.559228 -1.67312e-19)
(1.09938 -0.540539 2.13177e-19)
(1.09458 -0.515762 -6.38042e-20)
(1.08696 -0.489306 -2.96521e-20)
(1.07921 -0.463261 9.31922e-20)
(1.07235 -0.43839 3.90046e-20)
(1.06653 -0.415156 -1.05132e-19)
(1.06157 -0.394278 3.6143e-20)
(1.05872 -0.373999 -2.33845e-20)
(0.185405 -0.0810874 -1.57212e-20)
(0.493055 -0.227106 8.47383e-20)
(0.738293 -0.355667 -8.24477e-20)
(0.916915 -0.451383 3.37753e-19)
(1.03233 -0.509607 5.16981e-20)
(1.09604 -0.534802 -6.54349e-20)
(1.12359 -0.535835 1.31799e-19)
(1.12961 -0.522073 -4.35935e-19)
(1.12499 -0.500936 3.94279e-20)
(1.11638 -0.477147 1.55647e-19)
(1.10714 -0.453131 1.70586e-19)
(1.09867 -0.429863 -1.36263e-19)
(1.09136 -0.407893 6.20479e-21)
(1.085 -0.388082 -3.77829e-20)
(1.0805 -0.36901 -8.5004e-20)
(0.17568 -0.0668946 -1.65345e-19)
(0.476273 -0.193676 -5.96316e-19)
(0.72429 -0.312972 4.76882e-19)
(0.911812 -0.407668 1.25545e-19)
(1.03813 -0.470102 -4.59497e-19)
(1.11151 -0.501713 -4.30018e-19)
(1.14581 -0.509179 3.17293e-19)
(1.1555 -0.500766 -1.21486e-19)
(1.15212 -0.483671 1.99672e-19)
(1.14326 -0.462849 -2.55416e-19)
(1.13302 -0.441076 -3.06763e-19)
(1.12329 -0.41959 2.18701e-19)
(1.11476 -0.399006 -4.70792e-20)
(1.1073 -0.380263 -4.48757e-20)
(1.10141 -0.362561 -6.31845e-20)
(0.163837 -0.0534875 7.60228e-20)
(0.453578 -0.161008 2.3164e-20)
(0.701663 -0.269893 -4.21842e-20)
(0.896906 -0.362211 -2.81244e-19)
(1.03443 -0.42792 4.36898e-19)
(1.11878 -0.465614 2.18646e-19)
(1.16153 -0.479646 2.15984e-19)
(1.17646 -0.476942 1.93334e-19)
(1.17558 -0.464271 -3.76013e-20)
(1.16733 -0.446722 9.53988e-20)
(1.15668 -0.427405 2.7107e-20)
(1.14609 -0.40785 -1.19623e-20)
(1.13661 -0.388772 -9.68573e-21)
(1.12838 -0.371157 1.25923e-19)
(1.12167 -0.354923 1.0454e-19)
(0.15024 -0.0411792 1.81319e-19)
(0.425542 -0.129924 -1.99485e-19)
(0.670732 -0.227488 -1.75046e-19)
(0.872041 -0.316024 -1.77486e-20)
(1.02065 -0.383862 -4.36131e-19)
(1.11705 -0.427071 2.47153e-19)
(1.16994 -0.447631 -1.00237e-19)
(1.19185 -0.450908 8.99555e-20)
(1.19489 -0.443021 8.05992e-20)
(1.18829 -0.429057 -3.2137e-19)
(1.17791 -0.412418 1.65294e-19)
(1.1669 -0.394957 -1.15489e-19)
(1.15676 -0.377586 -2.74009e-20)
(1.14796 -0.361377 -1.33614e-20)
(1.14078 -0.346492 8.87912e-20)
(0.135309 -0.0302219 1.11576e-19)
(0.392932 -0.101156 -2.85328e-19)
(0.632103 -0.186781 -6.71702e-20)
(0.837325 -0.270149 2.73557e-19)
(0.99635 -0.338783 -1.5156e-19)
(1.10554 -0.386686 -1.10351e-20)
(1.17017 -0.413533 5.55569e-20)
(1.20092 -0.422948 -3.94099e-20)
(1.20951 -0.420167 3.73797e-20)
(1.20579 -0.410101 4.06939e-19)
(1.1965 -0.396369 -3.01657e-19)
(1.18559 -0.38115 9.81597e-20)
(1.17508 -0.365592 8.27099e-20)
(1.16578 -0.35085 -4.48762e-21)
(1.15806 -0.337254 -1.16573e-19)
(0.119507 -0.0207969 1.39929e-19)
(0.35669 -0.0753227 -5.00796e-20)
(0.586671 -0.148725 1.13825e-19)
(0.793182 -0.225629 -1.91309e-20)
(0.961344 -0.293578 6.58146e-20)
(1.08357 -0.3451 -6.15787e-20)
(1.16134 -0.377754 -6.42701e-20)
(1.2028 -0.393315 -1.03507e-19)
(1.21878 -0.395901 1.3831e-19)
(1.21938 -0.39004 -1.09239e-19)
(1.21219 -0.379451 -1.57886e-20)
(1.202 -0.366606 -2.54666e-20)
(1.19148 -0.352907 7.44205e-20)
(1.18185 -0.33962 6.89631e-20)
(1.17364 -0.32738 -8.63557e-20)
(0.103314 -0.0130086 1.10628e-19)
(0.31789 -0.0528926 -1.83777e-19)
(0.535611 -0.114153 2.16812e-19)
(0.740388 -0.183473 -2.22219e-20)
(0.915721 -0.249177 -5.78512e-20)
(1.05059 -0.302997 -5.60769e-21)
(1.1425 -0.340714 -2.52312e-21)
(1.19651 -0.362238 1.21949e-21)
(1.22187 -0.370363 1.29624e-20)
(1.2285 -0.368999 -2.13053e-20)
(1.22464 -0.361807 1.13046e-19)
(1.21598 -0.351488 -6.04842e-20)
(1.20594 -0.339705 -9.72958e-20)
(1.19626 -0.32786 -4.44968e-21)
(1.18773 -0.317011 4.95189e-20)
(0.0872044 -0.00688234 1.48283e-20)
(0.277694 -0.0341661 5.29752e-20)
(0.480348 -0.0837404 -2.67619e-20)
(0.680096 -0.144617 2.21447e-20)
(0.85995 -0.206526 3.04632e-20)
(1.00629 -0.261116 -1.96208e-20)
(1.11279 -0.302865 -3.37911e-20)
(1.18094 -0.329934 4.94223e-21)
(1.21775 -0.343639 -3.91895e-20)
(1.23238 -0.347036 3.66006e-20)
(1.23338 -0.343521 -2.14699e-20)
(1.2273 -0.335926 4.03177e-20)
(1.21838 -0.326159 1.57155e-20)
(1.20905 -0.315757 -1.79282e-20)
(1.20043 -0.306272 -1.23774e-21)
(0.0716201 -0.00236814 -6.36905e-20)
(0.237286 -0.0192618 3.91217e-20)
(0.422491 -0.0579642 5.39416e-20)
(0.613832 -0.109878 -2.17044e-20)
(0.794944 -0.166561 -1.93923e-21)
(0.950702 -0.220254 -6.22101e-20)
(1.07145 -0.264721 4.45675e-21)
(1.15491 -0.296637 4.93967e-21)
(1.20519 -0.315784 4.97693e-21)
(1.22999 -0.324137 7.06025e-21)
(1.23773 -0.324601 3.48144e-20)
(1.23557 -0.319982 -1.75408e-20)
(1.22865 -0.312386 3.29978e-20)
(1.22017 -0.303469 -9.10395e-21)
(1.2118 -0.295293 -3.95395e-20)
(0.0569503 0.000651262 -1.55492e-20)
(0.197806 -0.00811809 9.60321e-20)
(0.363754 -0.0370778 -1.36998e-19)
(0.543454 -0.0799013 5.20776e-20)
(0.722116 -0.13017 -3.79058e-20)
(0.884331 -0.181267 1.7423e-20)
(1.018 -0.226888 3.03722e-20)
(1.11723 -0.262635 4.17319e-20)
(1.18272 -0.286839 -9.42033e-20)
(1.21999 -0.300227 1.02491e-19)
(1.23666 -0.304963 -8.01509e-20)
(1.24016 -0.303627 -3.27552e-20)
(1.23641 -0.29843 5.00116e-20)
(1.2295 -0.291107 -4.50182e-20)
(1.2218 -0.284204 6.06008e-20)
(0.0435099 0.00234729 -8.84994e-20)
(0.160282 -0.000506602 1.21927e-20)
(0.305844 -0.0210966 -5.05663e-20)
(0.47106 -0.0551152 -4.94237e-20)
(0.643378 -0.0981376 8.80631e-20)
(0.808295 -0.145046 1.63952e-19)
(0.952447 -0.190082 -1.09122e-19)
(1.06689 -0.228321 -1.20496e-19)
(1.14877 -0.256882 1.58893e-19)
(1.20069 -0.275187 -2.97716e-20)
(1.22874 -0.284431 -1.07356e-19)
(1.24006 -0.286725 1.11017e-19)
(1.24109 -0.284235 7.08782e-20)
(1.23678 -0.278712 -1.49361e-19)
(1.23036 -0.27311 5.06845e-20)
(0.031528 0.00292932 -1.55803e-19)
(0.125574 0.00394 2.70391e-20)
(0.250355 -0.00980604 2.18109e-19)
(0.398851 -0.0356926 8.12918e-20)
(0.561079 -0.0710795 5.1091e-20)
(0.724393 -0.112472 -1.00472e-19)
(0.875469 -0.155145 1.22893e-19)
(1.00333 -0.194248 2.32468e-19)
(1.10178 -0.226099 7.94076e-20)
(1.17013 -0.24891 -1.22879e-19)
(1.21209 -0.262758 1.3048e-19)
(1.23377 -0.269027 7.37697e-20)
(1.24169 -0.269631 -1.00572e-19)
(1.24145 -0.266226 1.36711e-19)
(1.23723 -0.262056 2.3281e-20)
(0.0211427 0.00262689 -1.15881e-19)
(0.0943315 0.0056909 4.96972e-20)
(0.198657 -0.00278834 1.29954e-20)
(0.328971 -0.0215364 -2.70218e-19)
(0.477851 -0.049374 2.80151e-19)
(0.635098 -0.0843367 -4.71895e-19)
(0.788616 -0.12301 5.43705e-20)
(0.926688 -0.161168 1.78505e-19)
(1.04058 -0.194866 -2.95341e-19)
(1.12624 -0.22139 9.08e-20)
(1.18439 -0.239682 -2.5017e-19)
(1.21923 -0.250184 2.26816e-19)
(1.23664 -0.254309 -1.91322e-19)
(1.24251 -0.253453 -2.50452e-21)
(1.24191 -0.250996 -1.45249e-19)
(0.0124029 0.00167217 -5.12247e-20)
(0.066972 0.00527412 6.17205e-20)
(0.151818 0.000531516 2.34193e-20)
(0.263332 -0.0122917 2.56884e-19)
(0.396387 -0.0331127 -1.61509e-19)
(0.543409 -0.0612447 7.04597e-19)
(0.694384 -0.094625 -2.23495e-19)
(0.838186 -0.130036 -2.41467e-19)
(0.964753 -0.163833 4.44842e-19)
(1.06721 -0.192833 -5.28475e-20)
(1.14303 -0.215021 2.79437e-19)
(1.19372 -0.229798 -2.29253e-19)
(1.22366 -0.237829 3.53326e-19)
(1.23833 -0.240032 -7.22699e-21)
(1.24339 -0.239749 -8.52423e-20)
(0.00527874 0.000284484 -1.87992e-19)
(0.0436823 0.0032328 4.06242e-19)
(0.110552 0.00082772 -2.77459e-19)
(0.203473 -0.00738816 -5.08769e-20)
(0.319192 -0.0220831 -3.37924e-20)
(0.452577 -0.0435181 -2.34123e-19)
(0.596095 -0.0708203 -3.3099e-19)
(0.740277 -0.101934 -2.57365e-20)
(0.87512 -0.133958 -4.66932e-19)
(0.992036 -0.163785 -2.56769e-19)
(1.08556 -0.188826 7.39237e-19)
(1.15412 -0.207535 -7.56752e-19)
(1.19966 -0.219675 1.2236e-19)
(1.22636 -0.225426 2.55209e-19)
(1.24001 -0.22795 1.31229e-19)
(-0.000324948 -0.00134179 1.16452e-19)
(0.0244385 8.56992e-05 -3.05049e-21)
(0.0752172 -0.00118868 -3.13028e-19)
(0.150471 -0.00610634 1.95497e-19)
(0.24835 -0.0157964 4.38791e-19)
(0.365747 -0.0311374 -2.0634e-19)
(0.497567 -0.0521651 -2.90982e-20)
(0.636592 -0.0779084 3.83234e-19)
(0.774091 -0.106444 1.70465e-19)
(0.901153 -0.13521 -3.03967e-19)
(1.01039 -0.161556 -3.29892e-19)
(1.09732 -0.183315 7.0797e-20)
(1.16092 -0.199382 -1.73165e-19)
(1.20307 -0.208992 -3.6973e-19)
(1.22899 -0.215029 3.65326e-19)
(-0.00455158 -0.00304534 -2.9434e-19)
(0.00904122 -0.00370426 -1.4984e-19)
(0.0458347 -0.00482796 2.54888e-19)
(0.104903 -0.00765477 -5.65835e-19)
(0.185364 -0.0135538 8.362e-20)
(0.285617 -0.0237417 1.83996e-19)
(0.402637 -0.0388542 2.40554e-19)
(0.53155 -0.0587746 -1.46238e-19)
(0.665641 -0.0825472 -2.91226e-19)
(0.796977 -0.108434 9.87955e-19)
(0.917635 -0.134203 -1.12344e-19)
(1.02114 -0.157542 7.37517e-20)
(1.10366 -0.176782 -1.93314e-19)
(1.16403 -0.190128 -3.98045e-19)
(1.20647 -0.200239 2.41134e-19)
(-0.00757562 -0.00470234 8.71469e-20)
(-0.00284043 -0.00775161 3.15284e-19)
(0.0221488 -0.0094687 3.31712e-19)
(0.0668859 -0.0112452 -3.91569e-19)
(0.131093 -0.0145354 -1.70428e-20)
(0.214178 -0.0206894 4.04973e-19)
(0.314668 -0.030671 2.37662e-19)
(0.429727 -0.0449355 -4.40239e-19)
(0.554849 -0.0633101 9.97644e-20)
(0.683921 -0.0849161 -1.5272e-19)
(0.809823 -0.108233 -3.86404e-19)
(0.925474 -0.131277 5.39668e-19)
(1.02517 -0.152293 9.39291e-20)
(1.10477 -0.168654 -2.44172e-19)
(1.16697 -0.182842 -4.86884e-20)
(-0.00958645 -0.00622689 4.36418e-19)
(-0.0116241 -0.0117583 -4.71481e-19)
(0.00369298 -0.0145873 -3.20851e-19)
(0.0361392 -0.0161517 3.32579e-19)
(0.0857757 -0.0178909 1.74902e-19)
(0.152605 -0.0211545 -8.30481e-20)
(0.236175 -0.0270353 1.62542e-19)
(0.335182 -0.0363034 -3.93325e-19)
(0.447077 -0.0493136 1.112e-18)
(0.567818 -0.065896 -1.10264e-18)
(0.691967 -0.0852991 2.37498e-20)
(0.813181 -0.106164 -2.24958e-20)
(0.925335 -0.12712 9.39072e-19)
(1.0221 -0.145165 -3.5059e-19)
(1.1052 -0.162467 -7.79666e-20)
(-0.0107746 -0.00756748 -1.49628e-19)
(-0.0177706 -0.0155124 -5.4492e-19)
(-0.0101365 -0.0197706 4.62795e-20)
(0.0120884 -0.0217485 7.67661e-20)
(0.0491265 -0.0228105 -3.5008e-19)
(0.10127 -0.0242314 -5.25416e-20)
(0.168646 -0.0271069 -5.47489e-20)
(0.250946 -0.0323317 3.54937e-19)
(0.34708 -0.04055 -1.1999e-19)
(0.45485 -0.0520719 4.35717e-19)
(0.570759 -0.0667866 -2.33881e-19)
(0.690064 -0.0840413 3.86561e-19)
(0.807508 -0.103062 -6.60355e-21)
(0.916437 -0.121413 -5.45197e-20)
(1.01575 -0.13965 -1.30958e-20)
(-0.0113197 -0.00870114 -3.94569e-19)
(-0.0217454 -0.0188778 3.85258e-19)
(-0.0200114 -0.0247106 4.19379e-19)
(-0.00603433 -0.0275224 -3.19693e-19)
(0.0204625 -0.0285705 -5.39968e-19)
(0.0598648 -0.0290212 5.13253e-20)
(0.112557 -0.0299065 6.06031e-19)
(0.178769 -0.0321281 -8.63556e-19)
(0.258337 -0.036444 -1.09032e-19)
(0.350413 -0.0434267 -6.37015e-19)
(0.453199 -0.0534012 -1.67408e-21)
(0.563778 -0.0663327 1.8826e-19)
(0.678415 -0.081991 -2.65802e-19)
(0.792166 -0.0996827 1.95133e-19)
(0.898949 -0.116208 -2.75732e-19)
(-0.0113808 -0.00962509 3.52261e-20)
(-0.0239877 -0.0217771 -8.37165e-19)
(-0.0266125 -0.0291892 6.47048e-19)
(-0.0190924 -0.0330691 -3.17008e-19)
(-0.00115287 -0.0345542 1.95285e-19)
(0.0275756 -0.0346927 3.31475e-19)
(0.0675326 -0.0344264 -5.44923e-19)
(0.119161 -0.0346038 1.2813e-18)
(0.182766 -0.035989 -5.04132e-19)
(0.258318 -0.0392562 3.04502e-19)
(0.345214 -0.0449707 -1.18465e-21)
(0.44206 -0.0535294 4.13946e-19)
(0.546579 -0.0651386 -6.52379e-19)
(0.657573 -0.0822165 1.1075e-19)
(0.756356 -0.0946465 -2.89821e-19)
(-0.0110909 -0.0103481 -2.01405e-19)
(-0.0248879 -0.0241735 2.66186e-19)
(-0.0305824 -0.0330582 -4.89112e-19)
(-0.0279613 -0.0380812 2.16902e-19)
(-0.0167763 -0.0402582 -4.47815e-19)
(0.0032781 -0.0405232 6.67521e-19)
(0.0325895 -0.0397224 -1.27914e-20)
(0.0716155 -0.0386265 -8.27214e-20)
(0.120816 -0.0379479 5.42984e-20)
(0.18053 -0.0383581 -4.56605e-19)
(0.250812 -0.0405032 1.04517e-19)
(0.331196 -0.0449815 -3.91261e-19)
(0.420491 -0.052436 8.70875e-19)
(0.520708 -0.0683526 -6.27559e-19)
(0.595207 -0.0839248 2.7181e-19)
(-0.0105545 -0.0108828 6.08973e-19)
(-0.0247759 -0.0260549 3.86345e-19)
(-0.0324942 -0.036222 -7.33808e-20)
(-0.0334649 -0.0423358 3.46511e-19)
(-0.0274709 -0.0452955 -3.35715e-19)
(-0.0142804 -0.0459296 -5.99619e-20)
(0.0064038 -0.0449929 -7.96468e-21)
(0.0349598 -0.0431712 -3.8103e-19)
(0.0718215 -0.0410948 2.6224e-19)
(0.117413 -0.0393591 -1.5011e-19)
(0.17203 -0.0385471 2.25871e-19)
(0.235598 -0.039183 -9.18695e-19)
(0.307254 -0.0416766 6.28374e-19)
(0.387266 -0.0495763 -5.00205e-19)
(0.465344 -0.0730965 9.999e-21)
(-0.00985008 -0.0112407 -9.82325e-20)
(-0.0239192 -0.0274219 1.24977e-19)
(-0.0328355 -0.0386246 -1.33843e-19)
(-0.0363358 -0.0456843 -6.85835e-20)
(-0.0342275 -0.0493946 1.54952e-19)
(-0.0263406 -0.05049 -3.90283e-19)
(-0.0124652 -0.0496431 7.4941e-21)
(0.00767623 -0.04746 -2.38623e-20)
(0.0344278 -0.0444844 2.42394e-19)
(0.0681732 -0.0412123 -4.39516e-20)
(0.109273 -0.0381121 -3.26519e-19)
(0.15789 -0.0355956 -1.60637e-19)
(0.21365 -0.033966 7.13731e-19)
(0.276856 -0.0355091 -2.73945e-19)
(-0.00903463 -0.0114302 -4.49237e-19)
(-0.0225274 -0.0282809 -4.74461e-19)
(-0.0320088 -0.0402397 2.9842e-19)
(-0.037201 -0.048042 -3.12522e-19)
(-0.0379238 -0.0523912 -2.74592e-19)
(-0.0340489 -0.0539416 2.68535e-19)
(-0.0254301 -0.0532974 -2.46598e-19)
(-0.0118736 -0.0510007 2.58678e-19)
(0.00687498 -0.0475288 1.69398e-19)
(0.0311296 -0.043306 8.44456e-19)
(0.0612428 -0.0387294 -2.7933e-19)
(0.0974876 -0.0341842 5.35033e-19)
(0.139822 -0.0301352 -6.85679e-19)
(-0.00814919 -0.0114558 2.82237e-19)
(-0.0207651 -0.0286395 1.84074e-19)
(-0.0303415 -0.0410606 3.33473e-19)
(-0.0365839 -0.0493734 2.56235e-19)
(-0.0393125 -0.0542069 -2.66901e-19)
(-0.0384185 -0.0561515 1.60174e-19)
(-0.0337913 -0.0557588 2.83691e-19)
(-0.0252911 -0.0535274 2.32234e-19)
(-0.0127313 -0.0498985 -8.31866e-19)
(0.00413405 -0.0452706 -1.45511e-19)
(0.0256053 -0.0400371 -6.31288e-19)
(0.0519417 -0.0346472 6.07083e-19)
(0.0832211 -0.0298258 7.23855e-19)
(-0.00722489 -0.011319 2.74277e-19)
(-0.0187623 -0.0285055 -6.89025e-20)
(-0.0280987 -0.041093 2.15527e-19)
(-0.0349175 -0.0496748 -1.39137e-19)
(-0.0390274 -0.0548218 -1.48013e-19)
(-0.0403195 -0.0570746 1.71512e-19)
(-0.0386941 -0.056948 2.28683e-19)
(-0.0340363 -0.0549158 -5.2612e-19)
(-0.0262005 -0.0514093 8.23771e-19)
(-0.0149935 -0.0468367 6.09012e-20)
(-0.000178926 -0.041632 9.62286e-20)
(0.0184409 -0.0363394 3.68904e-19)
(-0.00628657 -0.0110182 1.69187e-19)
(-0.0166239 -0.027884 -5.36528e-19)
(-0.0254967 -0.040348 -9.02181e-20)
(-0.0325585 -0.0489603 -3.83113e-19)
(-0.0375955 -0.0542475 5.19026e-19)
(-0.0404845 -0.0567128 -1.66827e-19)
(-0.0411175 -0.0568451 -7.29404e-20)
(-0.0393831 -0.0551059 -2.88961e-19)
(-0.0351538 -0.0519306 2.31776e-19)
(-0.0282735 -0.0477515 -6.75909e-19)
(-0.0185638 -0.0430496 -3.78133e-20)
(-0.0053555 -0.0105497 3.41852e-19)
(-0.0144374 -0.0267769 -4.79284e-19)
(-0.0227139 -0.0388373 4.38592e-19)
(-0.0297994 -0.0472507 -4.44066e-19)
(-0.035449 -0.0525095 -1.42349e-19)
(-0.0395156 -0.055087 -3.63726e-19)
(-0.0418712 -0.055451 -5.44545e-20)
(-0.042394 -0.0540542 1.1541e-19)
(-0.0409618 -0.0513363 -1.4036e-19)
(-0.0374433 -0.047747 4.11207e-19)
(-0.0317079 -0.0437914 7.41568e-20)
(-0.00445128 -0.00990833 1.27393e-20)
(-0.012278 -0.0251841 -5.19667e-20)
(-0.0198985 -0.0365729 -2.50443e-19)
(-0.0268782 -0.0445707 6.0997e-19)
(-0.0329345 -0.0496401 2.26865e-19)
(-0.037891 -0.0522264 7.25433e-20)
(-0.041594 -0.0527753 -1.52193e-19)
(-0.0439053 -0.0517253 1.19493e-19)
(-0.0447001 -0.0495104 3.96725e-19)
(-0.0438643 -0.0465784 -9.04641e-21)
(-0.00359321 -0.00908911 9.95502e-20)
(-0.0102127 -0.0231076 3.71142e-19)
(-0.0171743 -0.0335712 -2.95963e-19)
(-0.0239856 -0.0409515 -8.66277e-20)
(-0.0303216 -0.0456803 8.60483e-20)
(-0.0359743 -0.0481717 1.24878e-19)
(-0.040763 -0.0488426 -2.90921e-19)
(-0.0445306 -0.0481071 -9.97303e-20)
(-0.0471474 -0.0463776 1.21629e-19)
(-0.0485104 -0.0440778 -4.24002e-19)
(-0.00280115 -0.00809011 1.11512e-19)
(-0.00830257 -0.0205565 -1.741e-19)
(-0.0146451 -0.0298593 3.31472e-19)
(-0.0212717 -0.0364383 -9.33501e-20)
(-0.0278127 -0.0406883 1.02066e-19)
(-0.0340284 -0.0429849 -4.0035e-20)
(-0.0397115 -0.0437064 5.70913e-20)
(-0.0446871 -0.0432297 3.94437e-21)
(-0.0488189 -0.0419296 2.21492e-19)
(-0.00209583 -0.00691512 -1.00746e-19)
(-0.00660458 -0.017553 1.13678e-19)
(-0.0123986 -0.0254823 -1.96554e-19)
(-0.0188535 -0.0310977 1.53811e-19)
(-0.025555 -0.034747 1.71862e-19)
(-0.0322333 -0.0367575 -2.93763e-19)
(-0.0386569 -0.0374582 1.98818e-19)
(-0.0446345 -0.0371759 2.67213e-20)
(-0.0500234 -0.0362337 1.12016e-19)
(-0.00149835 -0.00557619 1.4607e-20)
(-0.00517133 -0.0141374 7.87497e-20)
(-0.0105084 -0.0205088 -1.10128e-19)
(-0.0168206 -0.0250234 -2.61384e-20)
(-0.0236517 -0.0279695 3.49535e-20)
(-0.0307054 -0.0296159 -1.11991e-19)
(-0.0377294 -0.0302313 -3.87233e-20)
(-0.0445179 -0.0300814 3.70438e-19)
(-0.0509224 -0.0294272 -2.21311e-19)
(-0.00102886 -0.00409518 3.12655e-22)
(-0.00404972 -0.0103709 -5.26055e-20)
(-0.00903522 -0.015034 7.40949e-21)
(-0.0152401 -0.0183384 7.88734e-20)
(-0.0221731 -0.0205006 1.93908e-20)
(-0.0295162 -0.021721 -8.26201e-20)
(-0.0369999 -0.0221986 -6.50771e-20)
(-0.0444076 -0.0221295 -2.05625e-20)
(-0.051585 -0.0217046 2.04802e-20)
(-0.0007049 -0.00250389 3.48269e-20)
(-0.00327853 -0.00633554 2.58318e-20)
(-0.00802593 -0.00917909 -5.09158e-20)
(-0.0141604 -0.0111938 4.79957e-20)
(-0.021165 -0.0125142 -2.90848e-20)
(-0.0287062 -0.0132641 4.13801e-21)
(-0.0365028 -0.0135658 3.16624e-20)
(-0.0443301 -0.0135396 -5.28364e-20)
(-0.0520299 -0.0133016 -9.27326e-21)
(-0.000539454 -0.000842592 -2.75948e-20)
(-0.00288563 -0.002131 9.12452e-21)
(-0.007513 -0.0030865 1.59526e-20)
(-0.0136127 -0.00376338 -4.86672e-20)
(-0.0206546 -0.00420734 -2.00252e-20)
(-0.0282967 -0.00446021 4.30464e-20)
(-0.036252 -0.00456331 -3.42295e-20)
(-0.0442915 -0.00455707 -4.98576e-21)
(0.730073 -0.0125163 8.43722e-21)
(0.808153 -0.00628098 1.58826e-21)
(0.864903 -0.00514946 -7.85301e-21)
(0.900119 -0.00267604 1.57887e-21)
(0.926363 -0.00261484 -2.25669e-21)
(0.945727 -0.00131959 -9.84375e-22)
(0.959155 -0.00149066 -7.78434e-22)
(0.971349 -0.0007093 -2.22755e-21)
(0.978355 -0.000887847 1.80838e-21)
(0.986537 -0.00040727 1.05656e-21)
(0.989841 -0.000523129 -7.53444e-22)
(0.995363 -0.000209727 -7.00596e-24)
(0.996295 -0.000274509 1.11352e-21)
(0.999673 -6.43612e-05 1.34971e-21)
(0.998943 -8.20715e-05 -4.74084e-22)
(0.731453 -0.0374828 -5.78708e-21)
(0.808865 -0.0188234 -1.6587e-20)
(0.865179 -0.0154324 9.36142e-21)
(0.90033 -0.00802714 2.15972e-21)
(0.926415 -0.00783865 -9.7855e-22)
(0.945809 -0.00396114 -7.69722e-21)
(0.959154 -0.0044686 1.00116e-20)
(0.971388 -0.00213209 -5.38419e-21)
(0.978339 -0.00266118 -9.81013e-22)
(0.986557 -0.00122338 -1.32179e-21)