/*--------------------------------*- C++ -*----------------------------------*\
  =========                 |
  \\      /  F ield         | OpenFOAM: The Open Source CFD Toolbox
   \\    /   O peration     | Website:  https://openfoam.org
    \\  /    A nd           | Version:  7
     \\/     M anipulation  |
\*---------------------------------------------------------------------------*/
FoamFile
{
    version     2.0;
    format      ascii;
    class       volScalarField;
    location    "75";
    object      p;
}
// * * * * * * * * * * * * * * * * * * * * * * * * * * * * * * * * * * * * * //

dimensions      [0 2 -2 0 0 0 0];

internalField   nonuniform List<scalar> 
3700
(
-0.223833
-0.215729
-0.207648
-0.199763
-0.192114
-0.184764
-0.177753
-0.171098
-0.164805
-0.158872
-0.153296
-0.148072
-0.143193
-0.138652
-0.134441
-0.13055
-0.12697
-0.123692
-0.120707
-0.118004
-0.115577
-0.113416
-0.111514
-0.109866
-0.108463
-0.107302
-0.106379
-0.105689
-0.105231
-0.105002
-0.2241
-0.216301
-0.208516
-0.200895
-0.193489
-0.18636
-0.179549
-0.173072
-0.166937
-0.161145
-0.155694
-0.15058
-0.145798
-0.141342
-0.137203
-0.133374
-0.129847
-0.126614
-0.123665
-0.120994
-0.118592
-0.116452
-0.114567
-0.112932
-0.11154
-0.110388
-0.109471
-0.108786
-0.10833
-0.108103
-0.224223
-0.216639
-0.209082
-0.201677
-0.19448
-0.187552
-0.18093
-0.174627
-0.168651
-0.163004
-0.157683
-0.152686
-0.148008
-0.143644
-0.139587
-0.13583
-0.132365
-0.129185
-0.126284
-0.123652
-0.121284
-0.119172
-0.117311
-0.115696
-0.11432
-0.113181
-0.112273
-0.111595
-0.111145
-0.110919
-0.22423
-0.216793
-0.209413
-0.202186
-0.195166
-0.188412
-0.181958
-0.175816
-0.169992
-0.164486
-0.159296
-0.154418
-0.149849
-0.145582
-0.141613
-0.137933
-0.134538
-0.13142
-0.128571
-0.125986
-0.123659
-0.121582
-0.119751
-0.11816
-0.116805
-0.115682
-0.114787
-0.114119
-0.113674
-0.113452
-0.224116
-0.216756
-0.209521
-0.202452
-0.195582
-0.188976
-0.182669
-0.176675
-0.170993
-0.165623
-0.16056
-0.155801
-0.151342
-0.147176
-0.143298
-0.139701
-0.13638
-0.133329
-0.130539
-0.128007
-0.125724
-0.123687
-0.12189
-0.120328
-0.118997
-0.117894
-0.117015
-0.116358
-0.115921
-0.115702
-0.223861
-0.216477
-0.209389
-0.202464
-0.195719
-0.189242
-0.183071
-0.177214
-0.171668
-0.166428
-0.16149
-0.156849
-0.1525
-0.148437
-0.144654
-0.141144
-0.137902
-0.134921
-0.132196
-0.12972
-0.127488
-0.125495
-0.123736
-0.122206
-0.120903
-0.119822
-0.11896
-0.118316
-0.117888
-0.117674
-0.223395
-0.215891
-0.209002
-0.202192
-0.195547
-0.189191
-0.183152
-0.177429
-0.172014
-0.166902
-0.162089
-0.157567
-0.15333
-0.149373
-0.145688
-0.142269
-0.139109
-0.136204
-0.133547
-0.131132
-0.128955
-0.12701
-0.125293
-0.123799
-0.122526
-0.12147
-0.120628
-0.119999
-0.11958
-0.119371
-0.222571
-0.214978
-0.208342
-0.201586
-0.195038
-0.188807
-0.182901
-0.177309
-0.172025
-0.167044
-0.162357
-0.157957
-0.153837
-0.149988
-0.146406
-0.143081
-0.14001
-0.137185
-0.1346
-0.132251
-0.130133
-0.128239
-0.126568
-0.125113
-0.123873
-0.122844
-0.122024
-0.121411
-0.121003
-0.120799
-0.221197
-0.213821
-0.207339
-0.200606
-0.194177
-0.18808
-0.182307
-0.176849
-0.1717
-0.166852
-0.162297
-0.158023
-0.154024
-0.15029
-0.146814
-0.143589
-0.14061
-0.13787
-0.135363
-0.133083
-0.131027
-0.12919
-0.127567
-0.126155
-0.12495
-0.123951
-0.123154
-0.122558
-0.122162
-0.121964
-0.219492
-0.212441
-0.205869
-0.199257
-0.192962
-0.186998
-0.18136
-0.176042
-0.171035
-0.166329
-0.161911
-0.157771
-0.153898
-0.150283
-0.14692
-0.143801
-0.140919
-0.138268
-0.135842
-0.133637
-0.131647
-0.129869
-0.128298
-0.126931
-0.125765
-0.124797
-0.124025
-0.123448
-0.123064
-0.122872
-0.217465
-0.210576
-0.20399
-0.197523
-0.191369
-0.185545
-0.180054
-0.174887
-0.170033
-0.165477
-0.161204
-0.157206
-0.153465
-0.149977
-0.146732
-0.143723
-0.140944
-0.138387
-0.136048
-0.133921
-0.132001
-0.130285
-0.128769
-0.12745
-0.126324
-0.12539
-0.124644
-0.124087
-0.123716
-0.123531
-0.214971
-0.208176
-0.20168
-0.195367
-0.189369
-0.183708
-0.178383
-0.173384
-0.168696
-0.164301
-0.160184
-0.156332
-0.152734
-0.149379
-0.14626
-0.143367
-0.140696
-0.138238
-0.135989
-0.133944
-0.132098
-0.130448
-0.12899
-0.12772
-0.126637
-0.125738
-0.125021
-0.124484
-0.124127
-0.123949
-0.211913
-0.205243
-0.198896
-0.192765
-0.186952
-0.181479
-0.176343
-0.171532
-0.167025
-0.162805
-0.158855
-0.155162
-0.151714
-0.1485
-0.145512
-0.142742
-0.140184
-0.13783
-0.135676
-0.133716
-0.131948
-0.130367
-0.128969
-0.127751
-0.126714
-0.125851
-0.125163
-0.124648
-0.124306
-0.124135
-0.208257
-0.201767
-0.195618
-0.189707
-0.184113
-0.178859
-0.173939
-0.169335
-0.165028
-0.160997
-0.157227
-0.153704
-0.150415
-0.147351
-0.144502
-0.14186
-0.139419
-0.137174
-0.135119
-0.13325
-0.131562
-0.130052
-0.128717
-0.127554
-0.126562
-0.125738
-0.125081
-0.124589
-0.124261
-0.124098
-0.203995
-0.197738
-0.191839
-0.186191
-0.180856
-0.175853
-0.171175
-0.166802
-0.162712
-0.158887
-0.155311
-0.151969
-0.148849
-0.145942
-0.143239
-0.140732
-0.138415
-0.136283
-0.134331
-0.132555
-0.13095
-0.129514
-0.128245
-0.127139
-0.126194
-0.12541
-0.124784
-0.124315
-0.124003
-0.123848
-0.199128
-0.193161
-0.187566
-0.182227
-0.177191
-0.172475
-0.168066
-0.163946
-0.160093
-0.15649
-0.153121
-0.149971
-0.14703
-0.144289
-0.141738
-0.139372
-0.137184
-0.135169
-0.133324
-0.131643
-0.130125
-0.128766
-0.127563
-0.126515
-0.12562
-0.124877
-0.124283
-0.123839
-0.123543
-0.123395
-0.193671
-0.188055
-0.182819
-0.177837
-0.17314
-0.168741
-0.16463
-0.160786
-0.157189
-0.153824
-0.150674
-0.147728
-0.144975
-0.142406
-0.140015
-0.137794
-0.135739
-0.133846
-0.13211
-0.130529
-0.129099
-0.127818
-0.126685
-0.125696
-0.124852
-0.12415
-0.123589
-0.123169
-0.12289
-0.12275
-0.187657
-0.182454
-0.177631
-0.17305
-0.168729
-0.16468
-0.160892
-0.157344
-0.154022
-0.150908
-0.14799
-0.145257
-0.1427
-0.140311
-0.138085
-0.136015
-0.134097
-0.132328
-0.130705
-0.129225
-0.127885
-0.126684
-0.125621
-0.124693
-0.1239
-0.12324
-0.122713
-0.122319
-0.122056
-0.121925
-0.181144
-0.17641
-0.172048
-0.167907
-0.163997
-0.160325
-0.156882
-0.153651
-0.150618
-0.147768
-0.145093
-0.142581
-0.140227
-0.138023
-0.135966
-0.13405
-0.132272
-0.13063
-0.129122
-0.127744
-0.126497
-0.125377
-0.124384
-0.123518
-0.122777
-0.12216
-0.121667
-0.121298
-0.121052
-0.120929
-0.174202
-0.169988
-0.166127
-0.16246
-0.158988
-0.155717
-0.152638
-0.149739
-0.147007
-0.144432
-0.142006
-0.139723
-0.137577
-0.135562
-0.133677
-0.131918
-0.130283
-0.128769
-0.127376
-0.126103
-0.124947
-0.12391
-0.122988
-0.122184
-0.121495
-0.120921
-0.120462
-0.120118
-0.119889
-0.119775
-0.166919
-0.163264
-0.159935
-0.156768
-0.153755
-0.150901
-0.148201
-0.145644
-0.143222
-0.140929
-0.138759
-0.136708
-0.134772
-0.13295
-0.131239
-0.129637
-0.128145
-0.126761
-0.125484
-0.124314
-0.123251
-0.122295
-0.121446
-0.120702
-0.120065
-0.119535
-0.11911
-0.118792
-0.11858
-0.118473
-0.159389
-0.156322
-0.153547
-0.150895
-0.148354
-0.145929
-0.143615
-0.141407
-0.1393
-0.137291
-0.135379
-0.133561
-0.131838
-0.130208
-0.128671
-0.127227
-0.125877
-0.124621
-0.12346
-0.122394
-0.121423
-0.120548
-0.119769
-0.119087
-0.118502
-0.118014
-0.117623
-0.11733
-0.117134
-0.117036
-0.151718
-0.149254
-0.147041
-0.144911
-0.142847
-0.140853
-0.138928
-0.137068
-0.135276
-0.133552
-0.131897
-0.130312
-0.128798
-0.127359
-0.125994
-0.124706
-0.123497
-0.122369
-0.121321
-0.120357
-0.119477
-0.118681
-0.117972
-0.11735
-0.116816
-0.116369
-0.116012
-0.115743
-0.115564
-0.115474
-0.14401
-0.142152
-0.140499
-0.138888
-0.137297
-0.135729
-0.134187
-0.132672
-0.13119
-0.129746
-0.128343
-0.126986
-0.125679
-0.124425
-0.12323
-0.122095
-0.121023
-0.120019
-0.119083
-0.118218
-0.117426
-0.116708
-0.116067
-0.115504
-0.115019
-0.114613
-0.114288
-0.114044
-0.11388
-0.113799
-0.136374
-0.13511
-0.134003
-0.132897
-0.131765
-0.130612
-0.129441
-0.128261
-0.127079
-0.125906
-0.124747
-0.123611
-0.122503
-0.121431
-0.120398
-0.119411
-0.118473
-0.117588
-0.116759
-0.115991
-0.115284
-0.114642
-0.114067
-0.11356
-0.113123
-0.112757
-0.112463
-0.112242
-0.112095
-0.112021
-0.128911
-0.128217
-0.127633
-0.127008
-0.126313
-0.125553
-0.124737
-0.123875
-0.12298
-0.122065
-0.121139
-0.120214
-0.119297
-0.118396
-0.11752
-0.116673
-0.115862
-0.115092
-0.114367
-0.11369
-0.113065
-0.112496
-0.111984
-0.111531
-0.11114
-0.110812
-0.110548
-0.110349
-0.110217
-0.11015
-0.121717
-0.121559
-0.121462
-0.121285
-0.120998
-0.120605
-0.120119
-0.119555
-0.118928
-0.118254
-0.117547
-0.116819
-0.116081
-0.115343
-0.114613
-0.113899
-0.113208
-0.112546
-0.111918
-0.111329
-0.110782
-0.11028
-0.109828
-0.109427
-0.10908
-0.108788
-0.108553
-0.108375
-0.108257
-0.108197
-0.114879
-0.115212
-0.115558
-0.115789
-0.115871
-0.115813
-0.115629
-0.115336
-0.114954
-0.114502
-0.113996
-0.11345
-0.112877
-0.112289
-0.111695
-0.111105
-0.110526
-0.109965
-0.109428
-0.10892
-0.108445
-0.108008
-0.107612
-0.10726
-0.106953
-0.106695
-0.106487
-0.10633
-0.106224
-0.106171
-0.108475
-0.109244
-0.109982
-0.110571
-0.110981
-0.111219
-0.111301
-0.11125
-0.111088
-0.110834
-0.110509
-0.110127
-0.109704
-0.109252
-0.108782
-0.108305
-0.107828
-0.10736
-0.106907
-0.106474
-0.106067
-0.105689
-0.105345
-0.105038
-0.10477
-0.104543
-0.10436
-0.104221
-0.104128
-0.104082
-0.102569
-0.103711
-0.104783
-0.105678
-0.106365
-0.106855
-0.107167
-0.107325
-0.107353
-0.107273
-0.107106
-0.106869
-0.106578
-0.106248
-0.105889
-0.105513
-0.105128
-0.104744
-0.104366
-0.104002
-0.103656
-0.103333
-0.103037
-0.102771
-0.102538
-0.102341
-0.10218
-0.102059
-0.101978
-0.101937
-0.0972098
-0.0986587
-0.100001
-0.101142
-0.102055
-0.102751
-0.103252
-0.103583
-0.103769
-0.103836
-0.103803
-0.10369
-0.103514
-0.103288
-0.103026
-0.102739
-0.102436
-0.102126
-0.101817
-0.101513
-0.101222
-0.100948
-0.100695
-0.100467
-0.100266
-0.100095
-0.099956
-0.0998504
-0.0997793
-0.0997436
-0.0924338
-0.0941179
-0.0956644
-0.0969903
-0.0980734
-0.0989266
-0.0995729
-0.100039
-0.100352
-0.100536
-0.100613
-0.100603
-0.100521
-0.100385
-0.100205
-0.0999938
-0.0997613
-0.099516
-0.0992654
-0.099016
-0.0987736
-0.098543
-0.0983285
-0.0981335
-0.0979612
-0.097814
-0.0976939
-0.0976024
-0.0975408
-0.0975098
-0.0882602
-0.0901063
-0.0917882
-0.0932358
-0.0944323
-0.0953927
-0.0961411
-0.0967047
-0.0971105
-0.0973832
-0.0975446
-0.0976142
-0.097609
-0.0975437
-0.0974315
-0.0972837
-0.0971102
-0.0969196
-0.0967195
-0.0965165
-0.0963162
-0.0961235
-0.0959426
-0.0957771
-0.09563
-0.0955037
-0.0954004
-0.0953216
-0.0952684
-0.0952416
-0.0846928
-0.0866275
-0.0883759
-0.089882
-0.0911356
-0.0921535
-0.0929604
-0.0935834
-0.0940491
-0.0943815
-0.0946021
-0.0947298
-0.0947812
-0.0947709
-0.0947114
-0.094614
-0.0944882
-0.0943426
-0.0941845
-0.0940203
-0.0938557
-0.0936953
-0.0935433
-0.0934032
-0.0932779
-0.09317
-0.0930813
-0.0930135
-0.0929677
-0.0929446
-0.0817194
-0.0836707
-0.0854182
-0.0869213
-0.0881771
-0.0892043
-0.0900274
-0.090673
-0.0911664
-0.0915306
-0.091786
-0.0919506
-0.0920401
-0.0920683
-0.0920474
-0.0919878
-0.0918989
-0.0917887
-0.0916643
-0.0915317
-0.0913964
-0.0912629
-0.0911351
-0.0910165
-0.0909099
-0.0908176
-0.0907415
-0.0906832
-0.0906437
-0.0906238
-0.0793124
-0.0812113
-0.0828935
-0.0843354
-0.0855418
-0.0865326
-0.0873321
-0.0879655
-0.0884564
-0.088826
-0.0890932
-0.0892745
-0.0893844
-0.0894359
-0.0894399
-0.0894064
-0.089344
-0.0892601
-0.0891614
-0.0890536
-0.0889416
-0.0888298
-0.0887218
-0.088621
-0.0885298
-0.0884506
-0.0883851
-0.0883348
-0.0883007
-0.0882835
-0.0774293
-0.0792111
-0.0807685
-0.082096
-0.0832056
-0.0841185
-0.0848579
-0.0854474
-0.085908
-0.0862589
-0.0865167
-0.0866962
-0.0868105
-0.0868709
-0.0868875
-0.0868691
-0.0868236
-0.0867576
-0.0866773
-0.0865877
-0.0864935
-0.0863985
-0.0863063
-0.0862196
-0.086141
-0.0860725
-0.0860158
-0.0859721
-0.0859424
-0.0859275
-0.0760129
-0.0776195
-0.0789994
-0.0801657
-0.0811369
-0.0819351
-0.0825825
-0.0831
-0.083506
-0.0838167
-0.0840465
-0.0842078
-0.0843119
-0.0843687
-0.0843866
-0.0843736
-0.0843363
-0.0842807
-0.084212
-0.0841348
-0.0840533
-0.0839708
-0.0838904
-0.0838147
-0.083746
-0.083686
-0.0836362
-0.0835979
-0.0835719
-0.0835587
-0.0749933
-0.0763749
-0.0775332
-0.078499
-0.0792969
-0.0799499
-0.0804785
-0.0809006
-0.0812314
-0.0814839
-0.0816697
-0.0817989
-0.0818806
-0.0819227
-0.0819324
-0.0819162
-0.0818796
-0.0818276
-0.0817647
-0.0816949
-0.0816214
-0.0815475
-0.0814756
-0.081408
-0.0813467
-0.0812932
-0.0812489
-0.0812148
-0.0811916
-0.0811799
-0.0742901
-0.0754071
-0.0763091
-0.077044
-0.0776417
-0.0781257
-0.0785146
-0.0788229
-0.0790623
-0.0792423
-0.0793715
-0.0794573
-0.0795064
-0.079525
-0.0795185
-0.079492
-0.0794497
-0.0793958
-0.0793338
-0.0792668
-0.0791976
-0.0791288
-0.0790625
-0.0790005
-0.0789445
-0.0788958
-0.0788556
-0.0788247
-0.0788037
-0.0787931
-0.0738162
-0.07464
-0.0752613
-0.0757442
-0.0761233
-0.076422
-0.0766567
-0.0768384
-0.0769748
-0.077072
-0.0771351
-0.0771691
-0.0771781
-0.0771664
-0.0771376
-0.0770952
-0.0770423
-0.076982
-0.0769167
-0.076849
-0.076781
-0.0767145
-0.0766513
-0.0765928
-0.0765404
-0.076495
-0.0764577
-0.0764291
-0.0764097
-0.0764
-0.0734818
-0.0739943
-0.0743211
-0.0745409
-0.0746916
-0.0747964
-0.0748691
-0.0749169
-0.0749436
-0.0749517
-0.0749431
-0.0749198
-0.0748838
-0.0748371
-0.0747816
-0.0747194
-0.0746523
-0.0745822
-0.0745107
-0.0744396
-0.0743701
-0.0743038
-0.0742417
-0.0741851
-0.0741347
-0.0740916
-0.0740562
-0.0740292
-0.074011
-0.0740018
-0.0731956
-0.0733896
-0.0734191
-0.0733747
-0.0732964
-0.0732064
-0.0731159
-0.0730282
-0.0729434
-0.0728602
-0.0727775
-0.0726946
-0.0726111
-0.0725269
-0.0724424
-0.072358
-0.0722744
-0.0721923
-0.0721126
-0.072036
-0.0719635
-0.0718956
-0.0718333
-0.0717772
-0.0717279
-0.0716859
-0.0716518
-0.0716259
-0.0716085
-0.0715997
-0.0728674
-0.0727475
-0.0724878
-0.072188
-0.0718886
-0.0716105
-0.071362
-0.0711428
-0.0709491
-0.0707765
-0.0706209
-0.0704789
-0.0703478
-0.0702259
-0.0701116
-0.0700042
-0.0699031
-0.0698081
-0.069719
-0.069636
-0.0695592
-0.0694889
-0.0694253
-0.0693689
-0.0693198
-0.0692785
-0.0692451
-0.0692198
-0.0692029
-0.0691944
-0.072412
-0.0719942
-0.0714641
-0.070927
-0.0704225
-0.0699699
-0.0695746
-0.0692329
-0.0689376
-0.0686811
-0.0684568
-0.0682588
-0.0680825
-0.0679244
-0.0677815
-0.0676517
-0.0675334
-0.0674254
-0.0673267
-0.0672369
-0.0671555
-0.0670822
-0.067017
-0.0669598
-0.0669105
-0.0668694
-0.0668363
-0.0668115
-0.0667949
-0.0667866
-0.0717533
-0.0710639
-0.0702918
-0.0695437
-0.0688572
-0.0682499
-0.0677243
-0.0672736
-0.0668876
-0.0665562
-0.0662702
-0.0660218
-0.0658047
-0.0656138
-0.0654448
-0.0652945
-0.0651604
-0.0650403
-0.0649328
-0.0648365
-0.0647506
-0.0646745
-0.0646075
-0.0645493
-0.0644998
-0.0644587
-0.0644259
-0.0644013
-0.0643849
-0.0643768
-0.0708264
-0.0699013
-0.0689233
-0.0679974
-0.0671582
-0.0664211
-0.0657861
-0.0652437
-0.0647812
-0.0643864
-0.0640482
-0.0637571
-0.0635053
-0.0632865
-0.0630953
-0.0629276
-0.0627799
-0.0626496
-0.0625345
-0.0624328
-0.0623432
-0.0622646
-0.0621962
-0.0621373
-0.0620876
-0.0620465
-0.062014
-0.0619897
-0.0619736
-0.0619655
-0.0695806
-0.0684631
-0.0673217
-0.0662563
-0.065298
-0.06446
-0.06374
-0.063126
-0.0626039
-0.0621595
-0.0617803
-0.0614558
-0.0611769
-0.0609362
-0.0607278
-0.0605466
-0.0603886
-0.0602505
-0.0601298
-0.0600241
-0.0599319
-0.0598517
-0.0597825
-0.0597234
-0.0596738
-0.059633
-0.0596009
-0.059577
-0.0595611
-0.0595532
-0.0679806
-0.0667196
-0.0654613
-0.0642983
-0.0632576
-0.0623502
-0.0615715
-0.0609083
-0.0603449
-0.0598663
-0.0594589
-0.0591114
-0.0588139
-0.0585585
-0.0583385
-0.0581485
-0.0579839
-0.0578411
-0.0577171
-0.0576094
-0.0575161
-0.0574355
-0.0573664
-0.0573077
-0.0572586
-0.0572186
-0.0571871
-0.0571637
-0.0571483
-0.0571406
-0.0660079
-0.0646551
-0.0633285
-0.0621114
-0.0610263
-0.060082
-0.0592724
-0.0585832
-0.0579979
-0.0575012
-0.0570791
-0.0567197
-0.0564128
-0.0561503
-0.055925
-0.0557312
-0.0555642
-0.05542
-0.0552955
-0.0551879
-0.0550952
-0.0550155
-0.0549476
-0.0548901
-0.0548423
-0.0548034
-0.0547729
-0.0547504
-0.0547355
-0.0547281
-0.0636597
-0.0622677
-0.0609213
-0.0596933
-0.0586016
-0.057653
-0.05684
-0.056148
-0.0555606
-0.0550622
-0.0546389
-0.054279
-0.0539723
-0.0537104
-0.0534863
-0.0532941
-0.053129
-0.052987
-0.0528648
-0.0527597
-0.0526695
-0.0525923
-0.0525266
-0.0524713
-0.0524255
-0.0523883
-0.0523592
-0.0523377
-0.0523236
-0.0523165
-0.0609489
-0.0595685
-0.0582489
-0.0570513
-0.0559891
-0.0550673
-0.0542775
-0.0536052
-0.0530345
-0.0525503
-0.0521394
-0.0517901
-0.0514928
-0.0512393
-0.0510227
-0.0508374
-0.0506786
-0.0505423
-0.0504254
-0.0503251
-0.0502393
-0.050166
-0.0501039
-0.0500518
-0.0500086
-0.0499737
-0.0499464
-0.0499263
-0.0499131
-0.0499065
-0.057901
-0.0565798
-0.0553299
-0.0542007
-0.0532014
-0.052335
-0.0515931
-0.0509614
-0.0504251
-0.0499702
-0.0495841
-0.0492561
-0.048977
-0.0487393
-0.0485364
-0.048363
-0.0482146
-0.0480875
-0.0479787
-0.0478855
-0.0478059
-0.0477381
-0.0476807
-0.0476327
-0.0475929
-0.0475608
-0.0475358
-0.0475174
-0.0475052
-0.0474992
-0.0545534
-0.0533339
-0.0521916
-0.0511643
-0.0502573
-0.0494719
-0.0487997
-0.0482273
-0.0477413
-0.047329
-0.0469791
-0.0466818
-0.046429
-0.0462136
-0.04603
-0.0458731
-0.045739
-0.0456242
-0.045526
-0.045442
-0.0453703
-0.0453094
-0.0452579
-0.0452147
-0.0451791
-0.0451504
-0.0451279
-0.0451115
-0.0451006
-0.0450953
-0.050951
-0.0498698
-0.0488673
-0.0479703
-0.0471805
-0.0464978
-0.0459138
-0.0454167
-0.0449947
-0.0446366
-0.0443326
-0.0440744
-0.0438547
-0.0436676
-0.043508
-0.0433717
-0.0432552
-0.0431555
-0.0430701
-0.0429972
-0.0429349
-0.042882
-0.0428373
-0.0427998
-0.0427689
-0.042744
-0.0427245
-0.0427102
-0.0427008
-0.0426962
-0.0471461
-0.0462327
-0.0453958
-0.0446517
-0.043999
-0.0434361
-0.0429553
-0.0425464
-0.0421992
-0.0419046
-0.0416545
-0.041442
-0.041261
-0.0411068
-0.0409752
-0.0408627
-0.0407664
-0.0406839
-0.0406132
-0.0405528
-0.0405011
-0.0404572
-0.04042
-0.0403888
-0.0403631
-0.0403423
-0.0403261
-0.0403141
-0.0403063
-0.0403024
-0.0431933
-0.0424703
-0.0418182
-0.0412439
-0.0407428
-0.0403125
-0.039946
-0.0396346
-0.0393705
-0.0391465
-0.0389562
-0.0387943
-0.0386563
-0.0385385
-0.0384378
-0.0383514
-0.0382774
-0.0382138
-0.0381591
-0.0381122
-0.038072
-0.0380377
-0.0380086
-0.0379842
-0.0379639
-0.0379476
-0.0379347
-0.0379253
-0.0379191
-0.037916
-0.0391498
-0.0386329
-0.0381783
-0.0377845
-0.0374444
-0.0371548
-0.0369093
-0.0367016
-0.0365256
-0.0363764
-0.0362495
-0.0361413
-0.0360487
-0.0359694
-0.0359013
-0.0358425
-0.0357918
-0.035748
-0.0357101
-0.0356773
-0.035649
-0.0356247
-0.0356039
-0.0355864
-0.0355718
-0.0355599
-0.0355506
-0.0355437
-0.0355391
-0.0355369
-0.0350721
-0.03477
-0.0345191
-0.0343108
-0.0341359
-0.0339903
-0.033869
-0.0337674
-0.0336818
-0.0336093
-0.0335473
-0.0334941
-0.0334481
-0.0334081
-0.0333732
-0.0333425
-0.0333156
-0.0332918
-0.0332708
-0.0332523
-0.033236
-0.0332218
-0.0332094
-0.0331987
-0.0331898
-0.0331824
-0.0331765
-0.0331722
-0.0331693
-0.0331678
-0.0310158
-0.0309307
-0.0308841
-0.030861
-0.0308504
-0.0308478
-0.0308496
-0.030853
-0.0308567
-0.0308598
-0.0308618
-0.0308627
-0.0308624
-0.0308609
-0.0308586
-0.0308554
-0.0308516
-0.0308474
-0.0308428
-0.0308382
-0.0308335
-0.0308289
-0.0308246
-0.0308206
-0.0308171
-0.030814
-0.0308114
-0.0308095
-0.0308082
-0.0308075
-0.0270343
-0.0271621
-0.0273142
-0.0274705
-0.0276184
-0.0277536
-0.0278736
-0.0279779
-0.0280672
-0.0281428
-0.028206
-0.0282585
-0.0283018
-0.0283371
-0.0283656
-0.0283885
-0.0284067
-0.0284209
-0.0284319
-0.0284403
-0.0284465
-0.0284511
-0.0284543
-0.0284566
-0.0284581
-0.028459
-0.0284596
-0.0284599
-0.02846
-0.0284601
-0.0231769
-0.0235089
-0.0238494
-0.0241746
-0.0244709
-0.0247344
-0.024964
-0.0251614
-0.0253293
-0.0254712
-0.0255903
-0.0256898
-0.0257725
-0.025841
-0.0258975
-0.0259438
-0.0259817
-0.0260124
-0.0260373
-0.0260573
-0.0260733
-0.026086
-0.026096
-0.0261038
-0.0261097
-0.0261143
-0.0261176
-0.0261199
-0.0261213
-0.0261221
-0.0194932
-0.0200135
-0.0205262
-0.0210046
-0.0214346
-0.021813
-0.0221404
-0.0224205
-0.0226582
-0.0228586
-0.0230268
-0.0231674
-0.0232847
-0.0233821
-0.0234629
-0.0235296
-0.0235845
-0.0236296
-0.0236665
-0.0236966
-0.023721
-0.0237407
-0.0237564
-0.0237689
-0.0237788
-0.0237863
-0.023792
-0.023796
-0.0237986
-0.0237998
-0.0160238
-0.0167137
-0.017379
-0.0179908
-0.0185359
-0.0190119
-0.0194216
-0.0197704
-0.0200655
-0.0203137
-0.0205217
-0.0206955
-0.0208404
-0.0209609
-0.0210609
-0.0211437
-0.0212121
-0.0212685
-0.0213148
-0.0213527
-0.0213836
-0.0214088
-0.021429
-0.0214453
-0.0214581
-0.0214681
-0.0214756
-0.0214809
-0.0214844
-0.0214861
-0.0128159
-0.0136479
-0.0144386
-0.0151587
-0.0157958
-0.016349
-0.0168229
-0.0172249
-0.0175639
-0.0178484
-0.0180864
-0.018285
-0.0184505
-0.018588
-0.0187022
-0.0187968
-0.018875
-0.0189396
-0.0189928
-0.0190364
-0.0190721
-0.0191012
-0.0191248
-0.0191437
-0.0191588
-0.0191705
-0.0191793
-0.0191856
-0.0191897
-0.0191916
-0.00989914
-0.0108448
-0.0117315
-0.0125312
-0.0132335
-0.0138393
-0.0143555
-0.0147914
-0.0151575
-0.0154639
-0.0157195
-0.0159323
-0.0161094
-0.0162564
-0.0163783
-0.0164792
-0.0165628
-0.0166317
-0.0166885
-0.0167352
-0.0167734
-0.0168046
-0.01683
-0.0168503
-0.0168665
-0.0168791
-0.0168887
-0.0168956
-0.0169
-0.0169023
-0.00732111
-0.00833852
-0.00928256
-0.0101269
-0.0108634
-0.0114951
-0.0120306
-0.0124809
-0.0128577
-0.0131719
-0.0134334
-0.0136507
-0.0138311
-0.0139807
-0.0141047
-0.0142072
-0.014292
-0.0143621
-0.0144198
-0.0144672
-0.0145061
-0.0145378
-0.0145636
-0.0145844
-0.0146009
-0.0146138
-0.0146236
-0.0146306
-0.0146351
-0.0146371
-0.00509555
-0.00614465
-0.00710564
-0.00795631
-0.00869205
-0.00931848
-0.0098461
-0.0102874
-0.0106549
-0.0109602
-0.0112134
-0.0114232
-0.0115969
-0.0117407
-0.0118597
-0.011958
-0.0120392
-0.0121062
-0.0121614
-0.0122067
-0.0122439
-0.0122743
-0.0122989
-0.0123188
-0.0123346
-0.0123469
-0.0123563
-0.012363
-0.0123674
-0.0123699
-0.00327086
-0.00429186
-0.00521798
-0.00603059
-0.0067281
-0.007318
-0.00781197
-0.00822303
-0.00856385
-0.00884587
-0.00907901
-0.00927168
-0.00943087
-0.00956239
-0.00967103
-0.00976074
-0.00983475
-0.00989577
-0.00994601
-0.00998729
-0.0100211
-0.0100487
-0.0100712
-0.0100892
-0.0101036
-0.0101148
-0.0101233
-0.0101294
-0.0101333
-0.0101349
-0.00183512
-0.00277266
-0.00361051
-0.00433685
-0.00495403
-0.00547151
-0.00590162
-0.00625724
-0.00655046
-0.00679196
-0.00699081
-0.00715461
-0.00728958
-0.00740084
-0.00749257
-0.00756819
-0.00763051
-0.00768182
-0.00772403
-0.00775868
-0.00778705
-0.0078102
-0.00782899
-0.00784412
-0.00785616
-0.00786556
-0.00787268
-0.00787782
-0.00788125
-0.00788347
-0.00083035
-0.00160569
-0.00229243
-0.00288205
-0.00337888
-0.00379243
-0.00413396
-0.00441477
-0.0046452
-0.00483424
-0.00498939
-0.00511685
-0.00522165
-0.00530787
-0.00537886
-0.0054373
-0.00548541
-0.00552498
-0.0055575
-0.00558418
-0.00560602
-0.00562382
-0.00563827
-0.00564989
-0.00565913
-0.00566634
-0.00567178
-0.00567566
-0.00567804
-0.00567853
-0.000202699
-0.000742011
-0.00121086
-0.00160767
-0.00193843
-0.00221123
-0.00243469
-0.00261714
-0.002766
-0.00288755
-0.00298695
-0.00306835
-0.00313513
-0.00318996
-0.00323503
-0.00327209
-0.00330256
-0.00332759
-0.00334815
-0.003365
-0.00337878
-0.00339001
-0.00339911
-0.00340643
-0.00341224
-0.00341678
-0.00342019
-0.00342262
-0.00342436
-0.00342615
2.56281e-05
-0.000190598
-0.000376987
-0.000533361
-0.000663033
-0.000769382
-0.000856065
-0.00092661
-0.000984057
-0.00103091
-0.00106919
-0.00110052
-0.0011262
-0.00114727
-0.00116456
-0.00117875
-0.0011904
-0.00119995
-0.00120778
-0.00121418
-0.0012194
-0.00122364
-0.00122707
-0.00122982
-0.00123199
-0.00123369
-0.00123496
-0.00123578
-0.00123584
-0.00123446
-0.228361
-0.228398
-0.228334
-0.228179
-0.227904
-0.227446
-0.226686
-0.22565
-0.224528
-0.222957
-0.220943
-0.218412
-0.21529
-0.211543
-0.207158
-0.202133
-0.196482
-0.19024
-0.183465
-0.176233
-0.168634
-0.16077
-0.152752
-0.144695
-0.136712
-0.128914
-0.121406
-0.114278
-0.107615
-0.101484
-0.0959415
-0.0910241
-0.0867535
-0.0831344
-0.0801543
-0.0777844
-0.0759798
-0.0746803
-0.0738113
-0.0732855
-0.0730089
-0.0728844
-0.0728127
-0.0726964
-0.0724443
-0.0719743
-0.0712161
-0.0701138
-0.0686278
-0.0667368
-0.0644363
-0.0617391
-0.0586719
-0.0552746
-0.0515952
-0.0476902
-0.0436182
-0.0394416
-0.035221
-0.0310169
-0.0268869
-0.0228844
-0.0190639
-0.0154681
-0.0121525
-0.00914462
-0.00650837
-0.00424835
-0.00244269
-0.00106017
-0.000188605
0.000255074
0.000201753
-0.231806
-0.231736
-0.23158
-0.231365
-0.231089
-0.230725
-0.230227
-0.229459
-0.228337
-0.227079
-0.225397
-0.223229
-0.220524
-0.217211
-0.213253
-0.208635
-0.203353
-0.197426
-0.190896
-0.183824
-0.176293
-0.1684
-0.160255
-0.151974
-0.143678
-0.135484
-0.127504
-0.119846
-0.112604
-0.105863
-0.0996911
-0.0941414
-0.0892499
-0.0850356
-0.0814998
-0.0786265
-0.0763831
-0.0747205
-0.0735739
-0.0728642
-0.0725
-0.0723858
-0.0724236
-0.0725102
-0.0725428
-0.0724263
-0.0720754
-0.0714168
-0.0703926
-0.0689622
-0.0671038
-0.0648134
-0.0621055
-0.0590083
-0.0555646
-0.0518248
-0.0478484
-0.0436966
-0.0394348
-0.0351261
-0.0308333
-0.0266167
-0.0225309
-0.0186339
-0.0149682
-0.0115952
-0.00853981
-0.00587738
-0.00360499
-0.00182335
-0.000485207
0.000283832
0.000592971
0.000329085
-0.234513
-0.234245
-0.233943
-0.233618
-0.23325
-0.232796
-0.23217
-0.231321
-0.230299
-0.229021
-0.227267
-0.225003
-0.222175
-0.218717
-0.214591
-0.209779
-0.20428
-0.198118
-0.191337
-0.184006
-0.176214
-0.168064
-0.159671
-0.151158
-0.14265
-0.134268
-0.126129
-0.118342
-0.111003
-0.104197
-0.0979912
-0.0924374
-0.0875699
-0.0834052
-0.079942
-0.0771617
-0.0750286
-0.073491
-0.072481
-0.071916
-0.0716999
-0.0717386
-0.0719288
-0.0721618
-0.0723316
-0.0723383
-0.072095
-0.0715264
-0.0705731
-0.0691933
-0.0673648
-0.065084
-0.0623665
-0.0592425
-0.0557567
-0.0519622
-0.047921
-0.0436972
-0.0393585
-0.0349705
-0.0305982
-0.0263039
-0.0221439
-0.0181785
-0.0144505
-0.0110261
-0.00792819
-0.00524229
-0.00295948
-0.0012011
9.35243e-05
0.000762062
0.000937504
0.000459996
-0.236844
-0.236419
-0.236003
-0.235596
-0.235171
-0.234681
-0.234016
-0.233186
-0.23216
-0.230787
-0.228946
-0.226587
-0.223649
-0.220063
-0.21579
-0.21081
-0.205124
-0.198758
-0.191761
-0.184206
-0.176186
-0.167811
-0.1592
-0.150481
-0.141783
-0.133232
-0.124948
-0.117042
-0.10961
-0.102739
-0.0964938
-0.0909267
-0.08607
-0.0819383
-0.0785279
-0.0758177
-0.0737699
-0.0723306
-0.0714297
-0.0709824
-0.0708912
-0.0710601
-0.0713801
-0.0717388
-0.0720298
-0.0721487
-0.0720066
-0.0715265
-0.0706469
-0.0693243
-0.0675354
-0.0652761
-0.0625625
-0.059426
-0.0559128
-0.052078
-0.0479856
-0.043702
-0.0392974
-0.0348395
-0.0303954
-0.0260295
-0.0217996
-0.0177683
-0.0139791
-0.0105022
-0.00735945
-0.00464527
-0.00234608
-0.000602715
0.000656968
0.00123407
0.00128286
0.000593263
-0.23874
-0.238186
-0.237676
-0.237201
-0.236728
-0.23621
-0.235539
-0.234655
-0.233598
-0.232179
-0.230283
-0.227855
-0.224828
-0.221136
-0.216738
-0.211615
-0.20577
-0.199231
-0.19205
-0.184304
-0.176091
-0.167523
-0.158727
-0.149834
-0.140976
-0.132283
-0.123877
-0.115869
-0.108359
-0.101431
-0.0951524
-0.0895719
-0.084721
-0.0806126
-0.077241
-0.074583
-0.0725991
-0.071234
-0.070416
-0.0700589
-0.0700659
-0.0703381
-0.070762
-0.0712225
-0.071615
-0.0718321
-0.0717815
-0.0713849
-0.0705786
-0.0693172
-0.0675755
-0.0653485
-0.062652
-0.0595181
-0.0559938
-0.0521354
-0.0480084
-0.0436812
-0.0392257
-0.0347117
-0.0302081
-0.0257812
-0.0214901
-0.0173997
-0.0135542
-0.0100271
-0.00683988
-0.0040947
-0.00177461
-3.8232e-05
0.0011957
0.00169257
0.00162421
0.000727932
-0.240889
-0.240181
-0.23953
-0.238949
-0.238421
-0.237909
-0.237358
-0.236712
-0.235814
-0.234705
-0.233227
-0.231279
-0.22879
-0.225688
-0.221908
-0.217408
-0.212171
-0.206199
-0.199522
-0.192196
-0.1843
-0.175936
-0.167219
-0.15828
-0.149251
-0.140269
-0.131466
-0.122964
-0.114878
-0.107307
-0.100333
-0.0940246
-0.0884291
-0.0835765
-0.0794783
-0.076127
-0.0734977
-0.0715502
-0.0702289
-0.0694611
-0.069161
-0.0692326
-0.0695763
-0.0700735
-0.0706051
-0.071074
-0.0713691
-0.0713951
-0.0710726
-0.0703358
-0.0691369
-0.0674483
-0.0652634
-0.0625974
-0.0594822
-0.0559649
-0.0521023
-0.0479607
-0.0436095
-0.0391221
-0.0345699
-0.0300233
-0.02555
-0.0212107
-0.0170718
-0.0131784
-0.00960673
-0.00637842
-0.00360163
-0.00125767
0.000479532
0.00169734
0.00212793
0.00195473
0.000863351
-0.242035
-0.241221
-0.240494
-0.239857
-0.239286
-0.238742
-0.23817
-0.237502
-0.236589
-0.235433
-0.233908
-0.231915
-0.229374
-0.22621
-0.22236
-0.217783
-0.21246
-0.206395
-0.199621
-0.192193
-0.184194
-0.175726
-0.166909
-0.157874
-0.148756
-0.139693
-0.130817
-0.122253
-0.114114
-0.106501
-0.0994952
-0.0931627
-0.087551
-0.0826888
-0.0785864
-0.0752345
-0.0726074
-0.0706648
-0.0693522
-0.0685968
-0.0683136
-0.0684081
-0.0687838
-0.0693182
-0.0698845
-0.0704001
-0.0707468
-0.0708295
-0.0705676
-0.0698931
-0.0687555
-0.0671246
-0.064991
-0.0623692
-0.0592902
-0.0558002
-0.0519554
-0.0478221
-0.0434701
-0.0389735
-0.0344048
-0.0298352
-0.0253341
-0.0209629
-0.0167893
-0.0128597
-0.00925159
-0.00598779
-0.0031804
-0.000810796
0.00093519
0.00214728
0.00252888
0.00226659
0.000999564
-0.242818
-0.241922
-0.241135
-0.240448
-0.239835
-0.239254
-0.238645
-0.237872
-0.236992
-0.235796
-0.234227
-0.232189
-0.229599
-0.226384
-0.222481
-0.217849
-0.212469
-0.206347
-0.199515
-0.192032
-0.183979
-0.175461
-0.166597
-0.157518
-0.148363
-0.139266
-0.13036
-0.121771
-0.113612
-0.105981
-0.0989586
-0.0926109
-0.086984
-0.0821053
-0.0779845
-0.0746108
-0.0719577
-0.0699855
-0.068644
-0.0678603
-0.0675494
-0.067618
-0.0679752
-0.0684985
-0.0690599
-0.0695929
-0.0699598
-0.0700736
-0.0698537
-0.0692304
-0.06815
-0.0665787
-0.0645039
-0.0619391
-0.0589138
-0.0554723
-0.0516693
-0.0475698
-0.0432431
-0.0387633
-0.0342032
-0.0296347
-0.0251276
-0.0207446
-0.0165536
-0.0126026
-0.00896924
-0.0056783
-0.00284346
-0.000448179
0.00131402
0.00253104