/*--------------------------------*- C++ -*----------------------------------*\
  =========                 |
  \\      /  F ield         | OpenFOAM: The Open Source CFD Toolbox
   \\    /   O peration     | Website:  https://openfoam.org
    \\  /    A nd           | Version:  7
     \\/     M anipulation  |
\*---------------------------------------------------------------------------*/
FoamFile
{
    version     2.0;
    format      ascii;
    class       surfaceScalarField;
    location    "75";
    object      phi;
}
// * * * * * * * * * * * * * * * * * * * * * * * * * * * * * * * * * * * * * //

dimensions      [0 3 -1 0 0 0 0];

internalField   nonuniform List<scalar> 
7273
(
0.000583541
0.012205
-0.000524414
0.000609393
0.0126052
0.000613129
0.0127394
0.000605629
0.012751
0.000592796
0.0127142
0.000577072
0.0126596
0.000559427
0.0125992
0.000540354
0.0125382
0.000520168
0.0124793
0.000499077
0.0124234
0.000477216
0.0123708
0.000454678
0.0123212
0.000431542
0.0122743
0.00040788
0.0122301
0.000383766
0.0121884
0.000359269
0.0121492
0.000334453
0.0121125
0.000309375
0.0120785
0.000284083
0.012047
0.000258621
0.0120181
0.000233024
0.0119919
0.000207321
0.0119682
0.000181537
0.0119472
0.000155691
0.0119289
0.0001298
0.0119131
0.000103875
0.0119
7.79253e-05
0.0118895
5.19568e-05
0.0118817
2.59766e-05
0.0118764
0.0118739
0.000500427
0.0121479
-0.00044336
0.000527808
0.0125779
0.000534359
0.0127328
0.000529847
0.0127555
0.000520041
0.012724
0.000507459
0.0126722
0.000493091
0.0126136
0.000477385
0.0125539
0.000460605
0.012496
0.000442922
0.0124411
0.000424448
0.0123892
0.000405259
0.0123403
0.000385421
0.0122941
0.000364997
0.0122505
0.00034405
0.0122093
0.000322647
0.0121706
0.000300846
0.0121343
0.000278705
0.0121006
0.000256274
0.0120694
0.000233598
0.0120408
0.000210717
0.0120148
0.000187664
0.0119913
0.000164471
0.0119704
0.000141164
0.0119522
0.000117764
0.0119365
9.42928e-05
0.0119235
7.07656e-05
0.0119131
4.71962e-05
0.0119052
2.36001e-05
0.0119
0.0118975
0.000419491
0.0120935
-0.000365083
0.000447968
0.0125494
0.000457201
0.0127236
0.000455677
0.012757
0.000448867
0.0127308
0.000439353
0.0126817
0.000428159
0.0126247
0.000415705
0.0125664
0.000402214
0.0125095
0.000387826
0.0124555
0.000372632
0.0124044
0.000356692
0.0123563
0.000340058
0.0123108
0.000322782
0.0122678
0.000304921
0.0122272
0.000286534
0.012189
0.00026768
0.0121532
0.000248413
0.0121199
0.000228786
0.012089
0.000208846
0.0120607
0.000188637
0.012035
0.000168196
0.0120117
0.00014756
0.0119911
0.000126761
0.011973
0.000105828
0.0119575
8.47869e-05
0.0119445
6.36612e-05
0.0119342
4.2472e-05
0.0119264
2.1242e-05
0.0119213
0.0119187
0.000340045
0.0120422
-0.000288685
0.000369428
0.01252
0.000381338
0.0127117
0.000382774
0.0127556
0.000378986
0.0127346
0.000372575
0.0126881
0.000364547
0.0126328
0.000355295
0.0125756
0.00034502
0.0125198
0.000333846
0.0124666
0.000321847
0.0124164
0.000309069
0.0123691
0.000295552
0.0123243
0.000281341
0.012282
0.000266485
0.012242
0.000251039
0.0122044
0.00023506
0.0121692
0.000218602
0.0121363
0.000201718
0.0121059
0.000184458
0.012078
0.000166869
0.0120526
0.000148994
0.0120296
0.000130873
0.0120092
0.000112544
0.0119913
9.40413e-05
0.011976
7.53976e-05
0.0119632
5.66426e-05
0.0119529
3.78043e-05
0.0119452
1.89121e-05
0.0119401
0.0119376
0.000261578
0.0119942
-0.000213622
0.000291993
0.0124896
0.000306385
0.0126973
0.000310766
0.0127512
0.000310156
0.0127352
0.00030696
0.0126913
0.00030214
0.0126376
0.000296088
0.0125817
0.000289003
0.0125269
0.000280998
0.0124746
0.000272134
0.0124253
0.000262449
0.0123787
0.000251976
0.0123348
0.000240753
0.0122932
0.000228826
0.012254
0.000216248
0.012217
0.000203073
0.0121823
0.000189355
0.0121501
0.000175151
0.0121201
0.000160511
0.0120926
0.000145486
0.0120676
0.000130123
0.012045
0.000114468
0.0120249
9.8562e-05
0.0120072
8.24464e-05
0.0119921
6.61589e-05
0.0119795
4.97354e-05
0.0119694
3.32101e-05
0.0119618
1.66187e-05
0.0119567
0.0119542
0.000183708
0.0119492
-0.000138748
0.000215395
0.0124579
0.000232068
0.0126806
0.000239557
0.0127437
0.000242298
0.0127324
0.000242422
0.0126912
0.000240864
0.0126392
0.00023804
0.0125845
0.00023415
0.0125308
0.000229294
0.0124795
0.000223526
0.0124311
0.000216881
0.0123854
0.00020939
0.0123423
0.000201087
0.0123015
0.00019202
0.012263
0.000182237
0.0122268
0.000171794
0.0121928
0.000160749
0.0121611
0.000149156
0.0121317
0.000137072
0.0121047
0.000124549
0.0120801
0.000111641
0.0120579
9.83952e-05
0.0120381
8.48601e-05
0.0120208
7.10811e-05
0.0120059
5.71014e-05
0.0119934
4.29626e-05
0.0119835
2.87048e-05
0.011976
1.43694e-05
0.0119711
0.0119686
0.000106327
0.0119055
-6.25873e-05
0.000139167
0.0124251
0.00015804
0.0126617
0.000169143
0.0127326
0.00017545
0.0127261
0.000178964
0.0126877
0.000180723
0.0126374
0.000181174
0.0125841
0.000180498
0.0125315
0.000178783
0.0124812
0.000176081
0.0124338
0.000172429
0.012389
0.000167862
0.0123468
0.000162417
0.012307
0.000156139
0.0122693
0.000149081
0.0122338
0.000141299
0.0122006
0.000132853
0.0121695
0.000123802
0.0121408
0.000114205
0.0121143
0.000104119
0.0120902
9.36007e-05
0.0120684
8.27036e-05
0.012049
7.148e-05
0.012032
5.99804e-05
0.0120174
4.82533e-05
0.0120052
3.63455e-05
0.0119954
2.43026e-05
0.0119881
1.21713e-05
0.0119832
0.0119808
3.1353e-05
0.0118612
1.29832e-05
6.28936e-05
0.0123935
8.49496e-05
0.0126397
9.97694e-05
0.0127178
0.000109598
0.0127163
0.000116591
0.0126807
0.000121785
0.0126322
0.000125574
0.0125803
0.000128128
0.0125289
0.000129542
0.0124798
0.000129876
0.0124334
0.000129176
0.0123897
0.000127478
0.0123485
0.000124825
0.0123096
0.000121267
0.0122729
0.00011686
0.0122382
0.000111663
0.0122058
0.000105741
0.0121755
9.91572e-05
0.0121474
9.19738e-05
0.0121215
8.42529e-05
0.0120979
7.60551e-05
0.0120766
6.7439e-05
0.0120576
5.84615e-05
0.012041
4.91778e-05
0.0120267
3.96415e-05
0.0120147
2.99043e-05
0.0120051
2.0017e-05
0.011998
1.00313e-05
0.0119932
0.0119908
-4.57652e-05
0.0118215
8.53785e-05
-1.28301e-05
0.0123606
1.35449e-05
0.0126133
3.14565e-05
0.0126999
4.48481e-05
0.0127029
5.54859e-05
0.01267
6.42063e-05
0.0126235
7.13666e-05
0.0125731
7.71581e-05
0.0125231
8.16885e-05
0.0124753
8.50275e-05
0.0124301
8.72251e-05
0.0123875
8.83329e-05
0.0123474
8.84033e-05
0.0123095
8.74905e-05
0.0122738
8.56555e-05
0.0122401
8.29652e-05
0.0122085
7.94867e-05
0.0121789
7.52891e-05
0.0121516
7.04404e-05
0.0121264
6.50071e-05
0.0121033
5.90545e-05
0.0120826
5.26458e-05
0.012064
4.58427e-05
0.0120478
3.87053e-05
0.0120338
3.12916e-05
0.0120221
2.36584e-05
0.0120128
1.5861e-05
0.0120058
7.9559e-06
0.0120011
0.0119988
-0.000122571
0.0117832
0.000160961
-8.63776e-05
0.0123244
-5.80993e-05
0.012585
-3.59852e-05
0.0126777
-1.85472e-05
0.0126855
-4.13087e-06
0.0126556
8.14646e-06
0.0126112
1.87091e-05
0.0125625
2.77375e-05
0.0125141
3.53566e-05
0.0124676
4.16619e-05
0.0124238
4.66926e-05
0.0123825
5.05396e-05
0.0123436
5.32558e-05
0.0123068
5.49057e-05
0.0122721
5.5558e-05
0.0122394
5.52847e-05
0.0122087
5.41614e-05
0.0121801
5.22639e-05
0.0121535
4.96648e-05
0.012129
4.64355e-05
0.0121066
4.26463e-05
0.0120863
3.83656e-05
0.0120683
3.36596e-05
0.0120525
2.85927e-05
0.0120389
2.32276e-05
0.0120275
1.76255e-05
0.0120184
1.18464e-05
0.0120115
5.95099e-06
0.012007
0.0120047
-0.000197892
0.0117445
0.000236543
-0.000160006
0.0122865
-0.000127881
0.0125529
-0.00010181
0.0126517
-8.03052e-05
0.012664
-6.20067e-05
0.0126373
-4.60926e-05
0.0125953
-3.21489e-05
0.0125486
-1.99303e-05
0.0125019
-9.29064e-06
0.012457
-1.2778e-07
0.0124146
7.70053e-06
0.0123747
1.42117e-05
0.0123371
1.94864e-05
0.0123015
2.36056e-05
0.012268
2.66529e-05
0.0122364
2.86992e-05
0.0122067
2.98382e-05
0.0121789
3.01472e-05
0.0121532
2.97051e-05
0.0121294
2.85898e-05
0.0121077
2.68767e-05
0.0120881
2.46384e-05
0.0120705
2.19457e-05
0.0120552
1.88674e-05
0.0120419
1.54713e-05
0.0120309
1.18222e-05
0.012022
7.98425e-06
0.0120154
4.02204e-06
0.012011
0.0120087
-0.000272054
0.0117053
0.000311297
-0.000231644
0.0122461
-0.000195736
0.012517
-0.000165558
0.0126215
-0.000139988
0.0126384
-0.000117828
0.0126151
-9.83084e-05
0.0125758
-8.09908e-05
0.0125313
-6.56142e-05
0.0124865
-5.19976e-05
0.0124434
-4.00017e-05
0.0124026
-2.95429e-05
0.0123642
-2.04991e-05
0.012328
-1.27843e-05
0.0122938
-6.31233e-06
0.0122615
-9.92858e-07
0.0122311
3.28249e-06
0.0122024
6.58316e-06
0.0121756
8.99829e-06
0.0121507
1.06153e-05
0.0121278
1.15178e-05
0.0121068
1.17865e-05
0.0120878
1.14995e-05
0.0120708
1.07313e-05
0.0120559
9.55518e-06
0.0120431
8.043e-06
0.0120324
6.26342e-06
0.0120238
4.28445e-06
0.0120174
2.17406e-06
0.0120131
0.0120109
-0.000344142
0.0116648
0.000384631
-0.000300767
0.0122027
-0.000261113
0.0124773
-0.000226787
0.0125872
-0.000197153
0.0126088
-0.000171185
0.0125892
-0.000148136
0.0125527
-0.000127542
0.0125107
-0.000109114
0.0124681
-9.26427e-05
0.0124269
-7.79659e-05
0.0123879
-6.49477e-05
0.0123512
-5.34717e-05
0.0123165
-4.34275e-05
0.0122838
-3.47095e-05
0.0122528
-2.72163e-05
0.0122236
-2.08552e-05
0.012196
-1.55195e-05
0.0121703
-1.11148e-05
0.0121463
-7.54975e-06
0.0121242
-4.73614e-06
0.012104
-2.58862e-06
0.0120856
-1.02457e-06
0.0120693
3.75754e-08
0.0120549
6.75175e-07
0.0120425
9.58692e-07
0.0120321
9.61517e-07
0.0120238
7.55319e-07
0.0120176
4.11322e-07
0.0120134
0.0120113
-0.000413206
0.0116223
0.000455654
-0.00036673
0.0121562
-0.000323289
0.0124339
-0.000284907
0.0125488
-0.00025132
0.0125752
-0.000221666
0.0125595
-0.000195221
0.0125263
-0.000171497
0.012487
-0.000150167
0.0124467
-0.000130989
0.0124077
-0.000113771
0.0123707
-9.83489e-05
0.0123358
-8.45855e-05
0.0123028
-7.23535e-05
0.0122716
-6.15332e-05
0.012242
-5.20111e-05
0.012214
-4.36743e-05
0.0121877
-3.6418e-05
0.012163
-3.01382e-05
0.0121401
-2.47363e-05
0.0121188
-2.01184e-05
0.0120993
-1.61943e-05
0.0120817
-1.28777e-05
0.0120659
-1.00861e-05
0.0120521
-7.73934e-06
0.0120401
-5.75813e-06
0.0120301
-4.06732e-06
0.0120221
-2.593e-06
0.0120161
-1.26153e-06
0.0120121
0.0120101
-0.000478346
0.0115774
0.00052326
-0.000428697
0.0121066
-0.000381545
0.0123867
-0.000339294
0.0125065
-0.000301968
0.0125378
-0.000268839
0.0125264
-0.000239202
0.0124966
-0.000212548
0.0124603
-0.000188512
0.0124227
-0.000166816
0.012386
-0.000147237
0.0123511
-0.000129588
0.0123181
-0.000113707
0.0122869
-9.94478e-05
0.0122573
-8.66776e-05
0.0122292
-7.52686e-05
0.0122026
-6.50999e-05
0.0121775
-5.60566e-05
0.012154
-4.80288e-05
0.012132
-4.09123e-05
0.0121117
-3.46079e-05
0.012093
-2.90214e-05
0.0120761
-2.40624e-05
0.012061
-1.9644e-05
0.0120477
-1.56838e-05
0.0120362
-1.21007e-05
0.0120266
-8.81688e-06
0.0120188
-5.75585e-06
0.012013
-2.84183e-06
0.0120092
0.0120072
-0.000538601
0.0115297
0.000586269
-0.000485812
0.0120538
-0.00043516
0.0123361
-0.000389331
0.0124607
-0.000348575
0.0124971
-0.000312267
0.0124901
-0.00027972
0.0124641
-0.000250397
0.012431
-0.0002239
0.0123962
-0.000199917
0.0123621
-0.000178194
0.0123294
-0.000158521
0.0122985
-0.000140712
0.0122691
-0.000124607
0.0122412
-0.000110055
0.0122147
-9.69193e-05
0.0121895
-8.50694e-05
0.0121657
-7.43823e-05
0.0121433
-6.47419e-05
0.0121224
-5.60392e-05
0.012103
-4.81706e-05
0.0120852
-4.10379e-05
0.012069
-3.45474e-05
0.0120545
-2.86103e-05
0.0120417
-2.31411e-05
0.0120307
-1.80573e-05
0.0120215
-1.3279e-05
0.0120141
-8.72802e-06
0.0120085
-4.32707e-06
0.0120048
0.0120029
-0.000592976
0.0114792
0.000643506
-0.000537233
0.0119981
-0.000483429
0.0122823
-0.000434429
0.0124117
-0.000390648
0.0124533
-0.000351543
0.012451
-0.000316435
0.012429
-0.000284764
0.0123993
-0.000256101
0.0123675
-0.000230101
0.0123361
-0.000206486
0.0123058
-0.000185018
0.012277
-0.000165496
0.0122496
-0.000147742
0.0122234
-0.000131594
0.0121985
-0.000116903
0.0121748
-0.000103533
0.0121523
-9.13535e-05
0.0121311
-8.0243e-05
0.0121113
-7.00881e-05
0.0120928
-6.0782e-05
0.0120759
-5.22236e-05
0.0120604
-4.43172e-05
0.0120466
-3.69721e-05
0.0120344
-3.01008e-05
0.0120238
-2.36196e-05
0.012015
-1.74477e-05
0.0120079
-1.15056e-05
0.0120025
-5.71537e-06
0.011999
0.0119972
-0.000640535
0.0114259
0.000693841
-0.000582178
0.0119397
-0.000525702
0.0122258
-0.000474048
0.01236
-0.000427741
0.012407
-0.000386298
0.0124095
-0.000349046
0.0123917
-0.000315405
0.0123657
-0.000284916
0.012337
-0.000257209
0.0123084
-0.00023198
0.0122806
-0.000208974
0.012254
-0.000187972
0.0122286
-0.000168783
0.0122042
-0.000151237
0.012181
-0.000135176
0.0121587
-0.000120455
0.0121376
-0.000106941
0.0121176
-9.45077e-05
0.0120988
-8.30394e-05
0.0120814
-7.24266e-05
0.0120653
-6.25665e-05
0.0120506
-5.33622e-05
0.0120374
-4.47215e-05
0.0120257
-3.65566e-05
0.0120157
-2.87831e-05
0.0120072
-2.13196e-05
0.0120004
-1.40866e-05
0.0119953
-7.00569e-06
0.0119919
0.0119902
-0.00068046
0.0113701
0.000736261
-0.000619977
0.0118792
-0.000561424
0.0121673
-0.00050773
0.0123064
-0.000459481
0.0123588
-0.00041623
0.0123663
-0.00037731
0.0123528
-0.000342123
0.0123305
-0.000310187
0.0123051
-0.000281113
0.0122793
-0.000254576
0.012254
-0.000230309
0.0122297
-0.000208078
0.0122063
-0.000187684
0.0121839
-0.000168948
0.0121622
-0.000151707
0.0121415
-0.000135813
0.0121217
-0.000121127
0.0121029
-0.000107524
0.0120852
-9.48844e-05
0.0120687
-8.30982e-05
0.0120535
-7.20622e-05
0.0120395
-6.1679e-05
0.012027
-5.18566e-05
0.0120159
-4.25072e-05
0.0120063
-3.35468e-05
0.0119983
-2.48942e-05
0.0119918
-1.64705e-05
0.0119869
-8.19785e-06
0.0119836
0.011982
-0.000712091
0.0113123
0.000769918
-0.000650103
0.0118172
-0.000590167
0.0121073
-0.00053513
0.0122513
-0.000485588
0.0123092
-0.000441116
0.0123218
-0.00040105
0.0123127
-0.00036478
0.0122942
-0.000331809
0.0122721
-0.000301732
0.0122492
-0.000274215
0.0122265
-0.000248978
0.0122045
-0.000225783
0.0121831
-0.000204422
0.0121625
-0.000184712
0.0121425
-0.000166489
0.0121233
-0.000149602
0.0121048
-0.000133913
0.0120872
-0.000119293
0.0120706
-0.000105626
0.0120551
-9.28002e-05
0.0120406
-8.07144e-05
0.0120275
-6.92717e-05
0.0120156
-5.83811e-05
0.012005
-4.7956e-05
0.0119959
-3.79135e-05
0.0119882
-2.81737e-05
0.011982
-1.86589e-05
0.0119774
-9.29264e-06
0.0119742
0.0119727
-0.000734965
0.0112531
0.000794191
-0.000672202
0.0117545
-0.000611657
0.0120468
-0.000556031
0.0121957
-0.000505894
0.0122591
-0.000460828
0.0122768
-0.00042017
0.0122721
-0.000383307
0.0122574
-0.000349733
0.0122386
-0.000319037
0.0122185
-0.00029088
0.0121984
-0.000264976
0.0121786
-0.000241086
0.0121593
-0.000219002
0.0121404
-0.00019854
0.0121221
-0.000179535
0.0121043
-0.000161838
0.0120871
-0.000145312
0.0120707
-0.00012983
0.0120551
-0.000115278
0.0120405
-0.000101547
0.0120269
-8.8536e-05
0.0120144
-7.61518e-05
0.0120032
-6.43051e-05
0.0119932
-5.29114e-05
0.0119845
-4.18901e-05
0.0119772
-3.11633e-05
0.0119713
-2.06553e-05
0.0119669
-1.02918e-05
0.0119639
0.0119624
-0.000748844
0.0111932
0.000808717
-0.000686116
0.0116917
-0.000625788
0.0119865
-0.000570363
0.0121403
-0.000520356
0.0122091
-0.000475344
0.0122317
-0.000434667
0.0122314
-0.000397714
0.0122204
-0.00036398
0.0122048
-0.000333055
0.0121876
-0.000304601
0.0121699
-0.000278337
0.0121523
-0.000254026
0.0121349
-0.000231463
0.0121178
-0.000210468
0.0121011
-0.000190881
0.0120847
-0.000172554
0.0120688
-0.000155356
0.0120535
-0.000139165
0.0120389
-0.000123868
0.0120252
-0.000109362
0.0120124
-9.55488e-05
0.0120006
-8.23384e-05
0.01199
-6.9645e-05
0.0119805
-5.73872e-05
0.0119722
-4.54876e-05
0.0119653
-3.38711e-05
0.0119597
-2.24651e-05
0.0119554
-1.1198e-05
0.0119526
0.0119512
-0.000753733
0.0111335
0.000813412
-0.000691895
0.0116299
-0.000632632
0.0119272
-0.000578211
0.0120858
-0.000529064
0.0121599
-0.000484755
0.0121874
-0.000444632
0.0121913
-0.000408092
0.0121839
-0.000374637
0.0121714
-0.00034387
0.0121568
-0.000315461
0.0121415
-0.00028914
0.012126
-0.000264676
0.0121105
-0.000241874
0.012095
-0.000220562
0.0120798
-0.000200585
0.0120647
-0.000181805
0.01205
-0.000164097
0.0120358
-0.000147343
0.0120222
-0.000131437
0.0120093
-0.000116282
0.0119973
-0.000101784
0.0119861
-8.78586e-05
0.011976
-7.44235e-05
0.011967
-6.14021e-05
0.0119592
-4.87207e-05
0.0119526
-3.63083e-05
0.0119473
-2.40956e-05
0.0119432
-1.2015e-05
0.0119405
0.0119392
-0.000749883
0.0110749
0.000808486
-0.000689805
0.0115698
-0.000632447
0.0118698
-0.000579814
0.0120332
-0.000532239
0.0121123
-0.000489268
0.0121445
-0.000450255
0.0121523
-0.000414613
0.0121482
-0.000381866
0.0121386
-0.00035163
0.0121266
-0.000323596
0.0121135
-0.000297507
0.0120999
-0.000273149
0.0120861
-0.000250338
0.0120722
-0.000228913
0.0120583
-0.000208733
0.0120445
-0.000189667
0.012031
-0.0001716
0.0120177
-0.000154423
0.012005
-0.000138038
0.0119929
-0.000122353
0.0119816
-0.000107283
0.0119711
-9.27468e-05
0.0119615
-7.86698e-05
0.011953
-6.49799e-05
0.0119455
-5.16084e-05
0.0119392
-3.84887e-05
0.0119341
-2.55561e-05
0.0119303
-1.27472e-05
0.0119277
0.0119264
-0.000737779
0.0110183
0.000794408
-0.000680312
0.0115124
-0.000625668
0.0118152
-0.000575569
0.0119831
-0.000530238
0.012067
-0.000489199
0.0121034
-0.000451819
0.0121149
-0.000417535
0.0121139
-0.000385895
0.012107
-0.000356542
0.0120972
-0.00032919
0.0120861
-0.000303606
0.0120743
-0.000279593
0.0120621
-0.000256987
0.0120496
-0.000235642
0.012037
-0.000215429
0.0120243
-0.000196234
0.0120118
-0.00017795
0.0119995
-0.00016048
0.0119875
-0.000143735
0.0119762
-0.000127632
0.0119655
-0.000112093
0.0119555
-9.70447e-05
0.0119465
-8.24188e-05
0.0119383
-6.81492e-05
0.0119313
-5.41729e-05
0.0119253
-4.04289e-05
0.0119204
-2.68575e-05
0.0119167
-1.34003e-05
0.0119143
0.011913
-0.000718122
0.0109645
0.000771901
-0.000664076
0.0114583
-0.000612894
0.011764
-0.000566012
0.0119362
-0.000523539
0.0120245
-0.000484974
0.0120649
-0.000449703
0.0120796
-0.000417191
0.0120814
-0.000387021
0.0120768
-0.000358869
0.0120691
-0.000332478
0.0120597
-0.000307643
0.0120495
-0.000284194
0.0120387
-0.000261985
0.0120274
-0.000240892
0.0120159
-0.000220804
0.0120042
-0.000201619
0.0119926
-0.000183247
0.0119811
-0.000165602
0.0119699
-0.000148605
0.0119592
-0.000132185
0.011949
-0.000116272
0.0119396
-0.000100801
0.011931
-8.57107e-05
0.0119233
-7.09428e-05
0.0119165
-5.64402e-05
0.0119108
-4.21481e-05
0.0119061
-2.80124e-05
0.0119026
-1.39803e-05
0.0119002
0.0118991
-0.000691823
0.0109144
0.000741929
-0.000641932
0.0114084
-0.000594879
0.011717
-0.000551815
0.0118932
-0.000512733
0.0119855
-0.000477114
0.0120292
-0.000444365
0.0120469
-0.000413987
0.012051
-0.000385602
0.0120484
-0.000358925
0.0120424
-0.000333737
0.0120345
-0.000309865
0.0120256
-0.000287167
0.012016
-0.000265524
0.0120058
-0.000244833
0.0119952
-0.000225004
0.0119844
-0.000205953
0.0119735
-0.000187605
0.0119627
-0.000169887
0.0119522
-0.000152735
0.011942
-0.000136087
0.0119324
-0.000119883
0.0119234
-0.000104069
0.0119152
-8.85908e-05
0.0119078
-7.33973e-05
0.0119013
-5.8439e-05
0.0118958
-4.36674e-05
0.0118913
-2.90349e-05
0.011888
-1.44944e-05
0.0118857
0.0118846
-0.00065996
0.0108687
0.00070564
-0.000614868
0.0113633
-0.000572507
0.0116746
-0.00053376
0.0118544
-0.000498512
0.0119502
-0.000466227
0.011997
-0.000436339
0.012017
-0.000408389
0.0120231
-0.000382047
0.0120221
-0.000357071
0.0120174
-0.000333283
0.0120108
-0.000310548
0.0120029
-0.000288755
0.0119942
-0.000267816
0.0119848
-0.000247652
0.011975
-0.000228194
0.0119649
-0.00020938
0.0119547
-0.000191148
0.0119445
-0.000173446
0.0119345
-0.000156219
0.0119248
-0.000139419
0.0119156
-0.000122997
0.011907
-0.000106909
0.0118991
-9.1108e-05
0.011892
-7.55527e-05
0.0118857
-6.02004e-05
0.0118804
-4.50099e-05
0.0118761
-2.99399e-05
0.0118729
-1.49499e-05
0.0118707
0.0118696
-0.000623755
0.0108281
0.000664353
-0.000583993
0.0113236
-0.000546774
0.0116374
-0.00051273
0.0118204
-0.00048165
0.0119191
-0.000452991
0.0119683
-0.000426217
0.0119902
-0.000400917
0.0119978
-0.000376809
0.011998
-0.000353702
0.0119943
-0.000331463
0.0119885
-0.000309996
0.0119814
-0.000289226
0.0119734
-0.000269095
0.0119647
-0.000249552
0.0119555
-0.000230553
0.0119459
-0.000212053
0.0119362
-0.000194014
0.0119265
-0.000176395
0.0119169
-0.000159159
0.0119076
-0.000142269
0.0118987
-0.000125688
0.0118904
-0.000109382
0.0118828
-9.33143e-05
0.0118759
-7.74509e-05
0.0118699
-6.17575e-05
0.0118648
-4.61998e-05
0.0118606
-3.07436e-05
0.0118574
-1.53548e-05
0.0118553
0.0118543
-0.000584548
0.0107931
0.000619521
-0.000550521
0.0112895
-0.000518761
0.0116056
-0.000489679
0.0117913
-0.000462985
0.0118924
-0.000438138
0.0119435
-0.000414638
0.0119667
-0.000392126
0.0119753
-0.000370375
0.0119762
-0.000349243
0.0119732
-0.000328647
0.0119679
-0.000308531
0.0119613
-0.00028886
0.0119537
-0.000269606
0.0119454
-0.000250749
0.0119366
-0.000232266
0.0119275
-0.000214137
0.0119181
-0.000196342
0.0119087
-0.000178857
0.0118994
-0.00016166
0.0118904
-0.000144727
0.0118818
-0.000128034
0.0118737
-0.000111554
0.0118663
-9.52636e-05
0.0118596
-7.91358e-05
0.0118537
-6.31443e-05
0.0118488
-4.72622e-05
0.0118447
-3.14624e-05
0.0118416
-1.57174e-05
0.0118396
0.0118385
-0.000543754
0.0107642
0.000572686
-0.000515731
0.0112615
-0.000489606
0.0115795
-0.00046561
0.0117673
-0.000443396
0.0118702
-0.000422435
0.0119225
-0.000402271
0.0119465
-0.0003826
0.0119556
-0.00036325
0.0119569
-0.000344135
0.0119541
-0.000325218
0.011949
-0.000306489
0.0119426
-0.000287948
0.0119352
-0.000269603
0.0119271
-0.000251461
0.0119185
-0.000233526
0.0119095
-0.000215798
0.0119004
-0.000198278
0.0118911
-0.000180958
0.0118821
-0.000163831
0.0118732
-0.000146886
0.0118648
-0.000130111
0.0118569
-0.000113492
0.0118497
-9.70107e-05
0.0118431
-8.06515e-05
0.0118374
-6.43953e-05
0.0118325
-4.82227e-05
0.0118285
-3.21132e-05
0.0118255
-1.60459e-05
0.0118235
0.0118225
-0.000502836
0.0107416
0.000525442
-0.000480938
0.0112396
-0.000460478
0.011559
-0.000441552
0.0117484
-0.000423782
0.0118525
-0.000406666
0.0119054
-0.000389797
0.0119297
-0.000372929
0.0119387
-0.000355949
0.0119399
-0.000338823
0.0119369
-0.000321564
0.0119317
-0.000304204
0.0119252
-0.000286784
0.0119178
-0.000269341
0.0119097
-0.000251911
0.0119011
-0.000234524
0.0118921
-0.000217203
0.011883
-0.000199965
0.0118739
-0.000182821
0.0118649
-0.000165778
0.0118562
-0.000148838
0.0118479
-0.000132
0.0118401
-0.000115259
0.0118329
-9.86098e-05
0.0118265
-8.2042e-05
0.0118208
-6.5545e-05
0.011816
-4.91063e-05
0.0118121
-3.27124e-05
0.0118091
-1.63485e-05
0.0118071
0.0118061
-0.000463257
0.0107255
0.00047939
-0.000447458
0.0112238
-0.000432543
0.0115441
-0.000418528
0.0117344
-0.000405037
0.011839
-0.000391607
0.0118919
-0.000377889
0.011916
-0.000363698
0.0119246
-0.000348977
0.0119252
-0.000333746
0.0119217
-0.000318066
0.0119161
-0.00030201
0.0119091
-0.000285653
0.0119014
-0.000269067
0.0118931
-0.000252315
0.0118843
-0.000235449
0.0118753
-0.000218514
0.0118661
-0.000201545
0.0118569
-0.000184568
0.0118479
-0.000167606
0.0118392
-0.000150671
0.011831
-0.000133775
0.0118232
-0.000116922
0.0118161
-0.000100114
0.0118097
-8.33498e-05
0.0118041
-6.66263e-05
0.0117993
-4.99376e-05
0.0117954
-3.3276e-05
0.0117925
-1.66331e-05
0.0117905
0.0117895
-0.000426446
0.0107158
0.000436102
-0.000416568
0.0112139
-0.000406931
0.0115345
-0.00039753
0.011725
-0.000388023
0.0118295
-0.000378007
0.0118819
-0.000367197
0.0119052
-0.000355468
0.0119128
-0.000342821
0.0119125
-0.000329326
0.0119082
-0.000315088
0.0119018
-0.000300219
0.0118943
-0.00028483
0.011886
-0.00026902
0.0118773
-0.000252878
0.0118682
-0.000236479
0.0118589
-0.000219885
0.0118495
-0.00020315
0.0118402
-0.000186315
0.0118311
-0.000169413
0.0118223
-0.000152471
0.011814
-0.000135508
0.0118062
-0.000118538
0.0117991
-0.000101572
0.0117927
-8.4615e-05
0.0117871
-6.76708e-05
0.0117823
-5.07394e-05
0.0117785
-3.38194e-05
0.0117756
-1.69074e-05
0.0117736
0.0117726
-0.000393757
0.0107125
0.000397075
-0.000389476
0.0112097
-0.000384704
0.0115297
-0.000379487
0.0117197
-0.00037355
0.0118235
-0.000366567
0.0118749
-0.000358325
0.0118969
-0.000348762
0.0119033
-0.000337932
0.0119017
-0.000325952
0.0118962
-0.000312968
0.0118888
-0.000299126
0.0118804
-0.000284568
0.0118715
-0.000269419
0.0118621
-0.00025379
0.0118525
-0.000237777
0.0118429
-0.000221459
0.0118332
-0.000204904
0.0118236
-0.000188167
0.0118144
-0.000171292
0.0118055
-0.000154315
0.011797
-0.000137265
0.0117892
-0.000120164
0.011782
-0.00010303
0.0117756
-8.58747e-05
0.0117699
-6.87072e-05
0.0117652
-5.15332e-05
0.0117613
-3.43563e-05
0.0117584
-1.71782e-05
0.0117564
0.0117554
-0.000366429
0.0107152
0.000363697
-0.000367276
0.0112105
-0.000366826
0.0115293
-0.000365237
0.0117182
-0.000362343
0.0118206
-0.000357914
0.0118705
-0.000351815
0.0118908
-0.000344048
0.0118955
-0.000334714
0.0118924
-0.000323973
0.0118855
-0.000312006
0.0118769
-0.00029899
0.0118674
-0.000285091
0.0118576
-0.000270458
0.0118475
-0.00025522
0.0118373
-0.00023949
0.0118271
-0.000223362
0.0118171
-0.000206916
0.0118072
-0.000190218
0.0117977
-0.000173321
0.0117886
-0.000156271
0.01178
-0.000139105
0.011772
-0.000121849
0.0117648
-0.000104529
0.0117583
-8.71617e-05
0.0117526
-6.9761e-05
0.0117478
-5.23376e-05
0.0117439
-3.48991e-05
0.0117409
-1.74516e-05
0.011739
0.011738
-0.000345548
0.0107236
0.000337207
-0.00035092
0.0112159
-0.000354129
0.0115325
-0.000355504
0.0117195
-0.000355028
0.0118201
-0.000352587
0.0118681
-0.000348131
0.0118864
-0.000341723
0.0118891
-0.000333509
0.0118842
-0.000323685
0.0118757
-0.000312458
0.0118656
-0.000300031
0.011855
-0.000286591
0.0118441
-0.000272302
0.0118332
-0.000257311
0.0118223
-0.000241742
0.0118116
-0.000225702
0.011801
-0.000209279
0.0117908
-0.000192548
0.0117809
-0.000175571
0.0117716
-0.0001584
0.0117628
-0.000141077
0.0117547
-0.000123635
0.0117473
-0.000106104
0.0117407
-8.85039e-05
0.011735
-7.08543e-05
0.0117301
-5.31687e-05
0.0117262
-3.54585e-05
0.0117232
-1.77329e-05
0.0117212
0.0117202
-0.000332014
0.0107369
0.000318654
-0.000341187
0.011225
-0.000347283
0.0115386
-0.000350865
0.0117231
-0.000352101
0.0118214
-0.000351012
0.011867
-0.00034764
0.011883
-0.000342104
0.0118836
-0.00033459
0.0118766
-0.00032532
0.0118664
-0.000314526
0.0118549
-0.000302424
0.0118429
-0.000289217
0.0118309
-0.000275083
0.0118191
-0.000260176
0.0118074
-0.000244631
0.011796
-0.000228562
0.0117849
-0.000212065
0.0117743
-0.00019522
0.0117641
-0.000178095
0.0117545
-0.000160747
0.0117455
-0.000143221
0.0117372
-0.000125555
0.0117297
-0.000107781
0.011723
-8.99238e-05
0.0117171
-7.20044e-05
0.0117122
-5.40395e-05
0.0117082
-3.60429e-05
0.0117052
-1.80262e-05
0.0117032
0.0117022
-0.000326504
0.0107546
0.000308857
-0.000338648
0.0112372
-0.000346774
0.0115467
-0.000351734
0.0117281
-0.000353917
0.0118236
-0.000353495
0.0118666
-0.000350602
0.0118801
-0.000345414
0.0118784
-0.000338148
0.0118694
-0.000329047
0.0118573
-0.000318352
0.0118442
-0.000306293
0.0118308
-0.000293079
0.0118177
-0.000278892
0.0118049
-0.000263896
0.0117924
-0.000248227
0.0117803
-0.000232004
0.0117687
-0.000215328
0.0117576
-0.000198281
0.011747
-0.000180934
0.0117371
-0.000163347
0.0117279
-0.000145566
0.0117194
-0.000127634
0.0117117
-0.000109582
0.0117049
-9.1438e-05
0.011699
-7.32243e-05
0.011694
-5.49594e-05
0.01169
-3.66585e-05
0.0116869
-1.83348e-05
0.0116849
0.0116839
-0.000329435
0.0107757
0.000308343
-0.000343639
0.0112514
-0.000352877
0.0115559
-0.000358341
0.0117335
-0.00036067
0.0118259
-0.000360198
0.0118661
-0.000357158
0.0118771
-0.000351774
0.011873
-0.000344288
0.0118619
-0.000334953
0.011848
-0.000324015
0.0118332
-0.000311706
0.0118185
-0.000298233
0.0118042
-0.000283783
0.0117904
-0.000268515
0.0117771
-0.000252569
0.0117644
-0.000236063
0.0117522
-0.000219098
0.0117406
-0.000201756
0.0117297
-0.000184111
0.0117195
-0.000166219
0.01171
-0.00014813
0.0117013
-0.000129886
0.0116935
-0.000111518
0.0116865
-9.30562e-05
0.0116805
-7.45219e-05
0.0116755
-5.59343e-05
0.0116714
-3.73093e-05
0.0116683
-1.86604e-05
0.0116662
0.0116652
-0.000340965
0.0107993
0.000317371
-0.000356255
0.0112667
-0.000365652
0.0115653
-0.000370728
0.0117386
-0.00037239
0.0118276
-0.000371148
0.0118648
-0.000367328
0.0118732
-0.000361202
0.0118669
-0.000353025
0.0118537
-0.000343053
0.011838
-0.000331528
0.0118217
-0.000318674
0.0118057
-0.000304693
0.0117902
-0.000289765
0.0117755
-0.000274045
0.0117614
-0.000257668
0.011748
-0.000240748
0.0117353
-0.000223383
0.0117233
-0.000205655
0.011712
-0.000187632
0.0117014
-0.00016937
0.0116917
-0.000150919
0.0116829
-0.000132316
0.0116749
-0.000113595
0.0116678
-9.47826e-05
0.0116617
-7.59003e-05
0.0116566
-5.69666e-05
0.0116524
-3.79968e-05
0.0116493
-1.90039e-05
0.0116473
0.0116462
-0.000360983
0.0108243
0.000335936
-0.00037634
0.011282
-0.000384933
0.0115739
-0.000388734
0.0117424
-0.000388933
0.0118278
-0.000386216
0.0118621
-0.000381004
0.011868
-0.000373603
0.0118595
-0.00036428
0.0118444
-0.000353281
0.011827
-0.000340834
0.0118092
-0.00032715
0.011792
-0.000312418
0.0117755
-0.000296805
0.0117599
-0.000280457
0.0117451
-0.000263499
0.0117311
-0.00024604
0.0117178
-0.000228169
0.0117054
-0.000209963
0.0116938
-0.000191487
0.011683
-0.000172793
0.011673
-0.000153925
0.011664
-0.00013492
0.0116559
-0.000115808
0.0116487
-9.66137e-05
0.0116425
-7.7357e-05
0.0116373
-5.80544e-05
0.0116331
-3.87198e-05
0.01163
-1.93648e-05
0.0116279
0.0116268
-0.000389103
0.0108497
0.000363726
-0.000403493
0.0112964
-0.000410339
0.0115808
-0.000412015
0.0117441
-0.000409996
0.0118257
-0.000405141
0.0118573
-0.000397959
0.0118608
-0.000388788
0.0118503
-0.000377891
0.0118335
-0.000365497
0.0118146
-0.000351815
0.0117956
-0.000337034
0.0117772
-0.000321323
0.0117598
-0.000304832
0.0117434
-0.000287691
0.0117279
-0.000270013
0.0117134
-0.000251896
0.0116997
-0.000233419
0.0116869
-0.000214652
0.011675
-0.000195652
0.011664
-0.000176465
0.0116538
-0.000157132
0.0116447
-0.000137683
0.0116364
-0.000118146
0.0116292
-9.8541e-05
0.0116229
-7.88854e-05
0.0116177
-5.91931e-05
0.0116134
-3.94754e-05
0.0116103
-1.97416e-05
0.0116082
0.0116071
-0.000424656
0.0108742
0.000400104
-0.000437065
0.0113088
-0.00044127
0.011585
-0.000440034
0.0117429
-0.000435107
0.0118208
-0.000427516
0.0118497
-0.000417846
0.0118512
-0.000406457
0.0118389
-0.000393601
0.0118206
-0.000379485
0.0118005
-0.000364288
0.0117804
-0.00034817