/*--------------------------------*- C++ -*----------------------------------*\
  =========                 |
  \\      /  F ield         | OpenFOAM: The Open Source CFD Toolbox
   \\    /   O peration     | Website:  https://openfoam.org
    \\  /    A nd           | Version:  7
     \\/     M anipulation  |
\*---------------------------------------------------------------------------*/
FoamFile
{
    version     2.0;
    format      ascii;
    class       volVectorField;
    location    "75";
    object      U;
}
// * * * * * * * * * * * * * * * * * * * * * * * * * * * * * * * * * * * * * //

dimensions      [0 1 -1 0 0 0 0];

internalField   nonuniform List<vector> 
3700
(
(1.24869 -0.0514664 0)
(1.28795 -0.0542307 0)
(1.30053 -0.0550619 0)
(1.30114 -0.0547361 0)
(1.29709 -0.0537436 0)
(1.29137 -0.0524131 0)
(1.2851 -0.0508944 0)
(1.2788 -0.0492383 0)
(1.27273 -0.0474731 0)
(1.26698 -0.0456211 0)
(1.26157 -0.0436959 0)
(1.25647 -0.0417067 0)
(1.25166 -0.0396607 0)
(1.24712 -0.0375646 0)
(1.24284 -0.035425 0)
(1.23882 -0.0332483 0)
(1.23506 -0.0310404 0)
(1.23157 -0.0288069 0)
(1.22834 -0.0265524 0)
(1.22538 -0.0242809 0)
(1.2227 -0.0219959 0)
(1.22028 -0.0197004 0)
(1.21813 -0.0173967 0)
(1.21625 -0.0150866 0)
(1.21464 -0.0127719 0)
(1.2133 -0.0104537 0)
(1.21223 -0.00813325 0)
(1.21142 -0.00581057 0)
(1.21089 -0.00348511 0)
(1.21062 -0.00116495 0)
(1.24273 -0.0439872 0)
(1.28522 -0.0467755 0)
(1.30002 -0.0478832 0)
(1.30178 -0.0478234 0)
(1.29829 -0.0470929 0)
(1.29286 -0.0460386 0)
(1.28678 -0.0448096 0)
(1.28062 -0.0434523 0)
(1.27465 -0.0419911 0)
(1.26899 -0.0404443 0)
(1.26365 -0.0388234 0)
(1.25862 -0.0371359 0)
(1.25387 -0.0353877 0)
(1.24938 -0.0335843 0)
(1.24515 -0.0317314 0)
(1.24117 -0.0298349 0)
(1.23745 -0.0279005 0)
(1.23399 -0.0259333 0)
(1.23078 -0.023938 0)
(1.22785 -0.0219191 0)
(1.22518 -0.0198801 0)
(1.22277 -0.0178245 0)
(1.22063 -0.0157551 0)
(1.21876 -0.0136744 0)
(1.21716 -0.0115845 0)
(1.21582 -0.00948739 0)
(1.21475 -0.00738485 0)
(1.21395 -0.00527771 0)
(1.21342 -0.00316644 0)
(1.21316 -0.00105789 0)
(1.23701 -0.0367384 0)
(1.28232 -0.0394895 0)
(1.29918 -0.0408447 0)
(1.30206 -0.041051 0)
(1.29912 -0.0405842 0)
(1.29397 -0.0398019 0)
(1.28807 -0.0388538 0)
(1.28205 -0.0377854 0)
(1.27619 -0.0366179 0)
(1.27063 -0.0353666 0)
(1.26537 -0.0340406 0)
(1.26042 -0.0326457 0)
(1.25573 -0.0311864 0)
(1.25131 -0.0296675 0)
(1.24713 -0.0280937 0)
(1.2432 -0.0264703 0)
(1.23952 -0.0248027 0)
(1.2361 -0.0230959 0)
(1.23293 -0.0213547 0)
(1.23002 -0.0195836 0)
(1.22737 -0.0177865 0)
(1.22499 -0.0159671 0)
(1.22287 -0.0141288 0)
(1.22101 -0.0122746 0)
(1.21942 -0.0104072 0)
(1.21809 -0.0085289 0)
(1.21703 -0.0066423 0)
(1.21623 -0.00474892 0)
(1.21571 -0.00285009 0)
(1.21544 -0.000951873 0)
(1.23159 -0.029653 0)
(1.27933 -0.0323086 0)
(1.29807 -0.0339138 0)
(1.30203 -0.0343898 0)
(1.29962 -0.0341926 0)
(1.29476 -0.0336847 0)
(1.28903 -0.0330166 0)
(1.28314 -0.0322335 0)
(1.27739 -0.0313545 0)
(1.27192 -0.030392 0)
(1.26675 -0.0293534 0)
(1.26187 -0.0282434 0)
(1.25726 -0.0270655 0)
(1.25291 -0.0258234 0)
(1.24879 -0.0245214 0)
(1.24492 -0.0231642 0)
(1.2413 -0.0217569 0)
(1.23792 -0.0203043 0)
(1.23479 -0.0188115 0)
(1.23192 -0.0172829 0)
(1.2293 -0.0157229 0)
(1.22694 -0.0141355 0)
(1.22485 -0.0125244 0)
(1.22301 -0.010893 0)
(1.22143 -0.00924464 0)
(1.22012 -0.00758223 0)
(1.21907 -0.00590876 0)
(1.21828 -0.00422646 0)
(1.21775 -0.00253745 0)
(1.21749 -0.00084729 0)
(1.2265 -0.0226782 0)
(1.27627 -0.025194 0)
(1.29672 -0.0270459 0)
(1.30171 -0.0278099 0)
(1.29983 -0.027895 0)
(1.29523 -0.0276679 0)
(1.28967 -0.0272847 0)
(1.28391 -0.0267894 0)
(1.27826 -0.0261979 0)
(1.27288 -0.0255208 0)
(1.2678 -0.0247648 0)
(1.26301 -0.0239337 0)
(1.25848 -0.0230307 0)
(1.2542 -0.0220589 0)
(1.25016 -0.0210218 0)
(1.24635 -0.0199241 0)
(1.24278 -0.0187706 0)
(1.23945 -0.0175662 0)
(1.23637 -0.0163158 0)
(1.23354 -0.0150243 0)
(1.23096 -0.0136961 0)
(1.22864 -0.0123357 0)
(1.22657 -0.0109472 0)
(1.22476 -0.00953443 0)
(1.2232 -0.00810115 0)
(1.2219 -0.00665083 0)
(1.22086 -0.0051869 0)
(1.22008 -0.00371226 0)
(1.21956 -0.00222967 0)
(1.21931 -0.000744467 0)
(1.22174 -0.015792 0)
(1.27313 -0.0181017 0)
(1.29513 -0.0202527 0)
(1.3011 -0.0213126 0)
(1.29973 -0.0216762 0)
(1.29539 -0.0217395 0)
(1.29 -0.0216512 0)
(1.28436 -0.021449 0)
(1.27882 -0.0211464 0)
(1.27354 -0.0207535 0)
(1.26855 -0.0202769 0)
(1.26384 -0.0197207 0)
(1.25939 -0.0190874 0)
(1.25519 -0.0183798 0)
(1.25122 -0.0176016 0)
(1.24749 -0.016757 0)
(1.24398 -0.0158508 0)
(1.24072 -0.0148882 0)
(1.23769 -0.0138742 0)
(1.23491 -0.0128138 0)
(1.23237 -0.0117119 0)
(1.23008 -0.0105732 0)
(1.22804 -0.00940218 0)
(1.22626 -0.0082032 0)
(1.22472 -0.0069804 0)
(1.22344 -0.00573774 0)
(1.22242 -0.00447913 0)
(1.22165 -0.00320801 0)
(1.22114 -0.00192779 0)
(1.22089 -0.000643701 0)
(1.21726 -0.00893823 0)
(1.26989 -0.0110165 0)
(1.29329 -0.0135343 0)
(1.30017 -0.0148742 0)
(1.29928 -0.0155296 0)
(1.29521 -0.0159003 0)
(1.28999 -0.0161183 0)
(1.28448 -0.0162146 0)
(1.27905 -0.0162025 0)
(1.27387 -0.0160934 0)
(1.26898 -0.0158946 0)
(1.26436 -0.0156098 0)
(1.26001 -0.0152415 0)
(1.25589 -0.0147928 0)
(1.252 -0.0142672 0)
(1.24834 -0.0136694 0)
(1.24491 -0.0130043 0)
(1.24171 -0.0122771 0)
(1.23874 -0.0114931 0)
(1.23601 -0.0106576 0)
(1.23352 -0.00977591 0)
(1.23127 -0.00885304 0)
(1.22927 -0.00789393 0)
(1.22752 -0.00690333 0)
(1.22601 -0.00588581 0)
(1.22476 -0.0048458 0)
(1.22375 -0.00378764 0)
(1.22299 -0.00271531 0)
(1.22249 -0.00163277 0)
(1.22224 -0.000545285 0)
(1.21287 -0.00221667 0)
(1.26654 -0.00396421 0)
(1.2912 -0.00692165 0)
(1.29888 -0.00849619 0)
(1.29847 -0.00945316 0)
(1.29468 -0.0101567 0)
(1.28964 -0.0106936 0)
(1.28427 -0.0110925 0)
(1.27896 -0.0113727 0)
(1.27389 -0.0115478 0)
(1.2691 -0.011625 0)
(1.26459 -0.0116083 0)
(1.26033 -0.0115006 0)
(1.2563 -0.0113052 0)
(1.25251 -0.0110263 0)
(1.24893 -0.0106689 0)
(1.24557 -0.010238 0)
(1.24244 -0.00973936 0)
(1.23954 -0.00917862 0)
(1.23687 -0.00856146 0)
(1.23443 -0.00789349 0)
(1.23223 -0.00718017 0)
(1.23027 -0.00642685 0)
(1.22855 -0.00563869 0)
(1.22707 -0.0048207 0)
(1.22584 -0.00397774 0)
(1.22485 -0.00311458 0)
(1.22411 -0.00223569 0)
(1.22362 -0.00134553 0)
(1.22337 -0.000449505 0)
(1.20856 0.00465578 0)
(1.26318 0.00288723 0)
(1.28879 -0.000393775 0)
(1.2972 -0.00215405 0)
(1.29728 -0.0034807 0)
(1.29378 -0.00453143 0)
(1.28893 -0.00538861 0)
(1.28371 -0.0060928 0)
(1.27854 -0.00666793 0)
(1.27359 -0.00712757 0)
(1.26891 -0.00747895 0)
(1.26451 -0.00772633 0)
(1.26036 -0.00787372 0)
(1.25644 -0.0079257 0)
(1.25273 -0.00788699 0)
(1.24925 -0.00776287 0)
(1.24597 -0.00755919 0)
(1.24292 -0.00728196 0)
(1.24009 -0.00693725 0)
(1.23748 -0.00653125 0)
(1.2351 -0.00607 0)
(1.23295 -0.0055594 0)
(1.23103 -0.00500519 0)
(1.22935 -0.00441297 0)
(1.22791 -0.00378819 0)
(1.2267 -0.00313612 0)
(1.22574 -0.00246194 0)
(1.22501 -0.00177057 0)
(1.22453 -0.00106694 0)
(1.22429 -0.000356636 0)
(1.2045 0.0114705 0)
(1.25972 0.00960323 0)
(1.28602 0.00613578 0)
(1.29515 0.00407097 0)
(1.2957 0.00236442 0)
(1.29251 0.000963906 0)
(1.28787 -0.000218133 0)
(1.28281 -0.00123213 0)
(1.27778 -0.00210375 0)
(1.27297 -0.00284644 0)
(1.26842 -0.00346803 0)
(1.26414 -0.00397456 0)
(1.2601 -0.00437139 0)
(1.25629 -0.00466392 0)
(1.25269 -0.00485804 0)
(1.2493 -0.00495984 0)
(1.24612 -0.00497551 0)
(1.24315 -0.00491167 0)
(1.2404 -0.00477518 0)
(1.23786 -0.00457264 0)
(1.23554 -0.00431054 0)
(1.23344 -0.00399525 0)
(1.23158 -0.00363294 0)
(1.22994 -0.00322966 0)
(1.22853 -0.00279125 0)
(1.22735 -0.00232336 0)
(1.22641 -0.00183159 0)
(1.2257 -0.00132129 0)
(1.22523 -0.000797815 0)
(1.225 -0.000266939 0)
(1.2006 0.0182033 0)
(1.25601 0.0162315 0)
(1.28291 0.0125839 0)
(1.2927 0.010141 0)
(1.29373 0.00806337 0)
(1.29084 0.00631131 0)
(1.28643 0.00479745 0)
(1.28156 0.00346976 0)
(1.2767 0.00230238 0)
(1.27203 0.00128032 0)
(1.26763 0.000392503 0)
(1.26348 -0.000366713 0)
(1.25957 -0.00100445 0)
(1.25588 -0.0015299 0)
(1.2524 -0.00194883 0)
(1.24911 -0.0022678 0)
(1.24603 -0.00249421 0)
(1.24315 -0.00263545 0)
(1.24047 -0.0026986 0)
(1.23801 -0.00269115 0)
(1.23576 -0.00262006 0)
(1.23372 -0.00249213 0)
(1.23191 -0.00231399 0)
(1.23031 -0.00209205 0)
(1.22894 -0.00183258 0)
(1.2278 -0.00154168 0)
(1.22688 -0.00122526 0)
(1.22619 -0.000889087 0)
(1.22573 -0.000538885 0)
(1.22551 -0.000180651 0)
(1.19669 0.0248415 0)
(1.25202 0.0227418 0)
(1.27945 0.0188688 0)
(1.28984 0.0160285 0)
(1.29133 0.013581 0)
(1.28878 0.0114757 0)
(1.28462 0.00962858 0)
(1.27996 0.00798868 0)
(1.27529 0.00652967 0)
(1.2708 0.00523416 0)
(1.26655 0.00408882 0)
(1.26255 0.00308515 0)
(1.25878 0.00221401 0)
(1.25522 0.0014652 0)
(1.25185 0.000831284 0)
(1.24868 0.000304165 0)
(1.24571 -0.000123468 0)
(1.24292 -0.000459686 0)
(1.24033 -0.000713363 0)
(1.23795 -0.000892083 0)
(1.23577 -0.00100321 0)
(1.23379 -0.00105408 0)
(1.23203 -0.00105172 0)
(1.23049 -0.0010031 0)
(1.22916 -0.000914772 0)
(1.22805 -0.000793124 0)
(1.22716 -0.000644538 0)
(1.22649 -0.000475082 0)
(1.22604 -0.00029083 0)
(1.22582 -9.79938e-05 0)
(1.19266 0.0313214 -2.78995e-11)
(1.24775 0.0290603 -2.70463e-11)
(1.27561 0.0249269 0)
(1.28655 0.0216903 -2.54157e-11)
(1.28852 0.0188742 -2.46577e-11)
(1.28633 0.0164175 -6.90187e-28)
(1.28245 0.0142417 2.32767e-11)
(1.27803 0.0122969 2.2651e-11)
(1.27356 0.010555 0)
(1.26926 0.00899586 0)
(1.26519 0.00760336 0)
(1.26135 0.00636576 0)
(1.25773 0.00527182 0)
(1.25431 0.0043103 0)
(1.25108 0.00347235 0)
(1.24803 0.00274835 0)
(1.24516 0.00213016 0)
(1.24248 0.00160884 0)
(1.23998 0.00117458 0)
(1.23768 0.000819526 0)
(1.23557 0.000535674 1.75105e-11)
(1.23367 0.000315171 3.46102e-11)
(1.23197 0.000150442 1.71235e-11)
(1.23047 3.42471e-05 0)
(1.22918 -4.00753e-05 -1.68305e-11)
(1.22811 -7.94792e-05 -1.67184e-11)
(1.22725 -9.08103e-05 0)
(1.2266 -8.02663e-05 -1.65621e-11)
(1.22617 -5.42386e-05 -1.65176e-11)
(1.22595 -1.91565e-05 -4.75908e-28)
(1.18845 0.0375623 2.79005e-11)
(1.24317 0.0351045 2.70463e-11)
(1.27137 0.0306934 0)
(1.28285 0.0270714 2.54157e-11)
(1.28529 0.0238946 2.46577e-11)
(1.28349 0.0210955 6.90187e-28)
(1.27992 0.0186023 -2.32767e-11)
(1.27577 0.0163654 -2.2651e-11)
(1.27153 0.014354 0)
(1.26744 0.0125446 0)
(1.26355 0.0109181 0)
(1.25989 0.00945977 0)
(1.25644 0.00815613 0)
(1.25317 0.00699467 0)
(1.25008 0.00596508 0)
(1.24716 0.00505657 0)
(1.24441 0.00425948 0)
(1.24183 0.00356395 0)
(1.23943 0.00296001 0)
(1.23722 0.0024391 0)
(1.23519 0.00199255 -1.75105e-11)
(1.23336 0.00161204 -3.46102e-11)
(1.23172 0.00128963 -1.71235e-11)
(1.23027 0.00101793 0)
(1.22903 0.000789646 1.68305e-11)
(1.22799 0.00059747 1.67184e-11)
(1.22716 0.000434612 0)
(1.22653 0.000294454 1.65621e-11)
(1.22611 0.00017034 1.65176e-11)
(1.22591 5.56754e-05 4.75908e-28)
(1.18401 0.0434776 0)
(1.23828 0.0407943 0)
(1.26676 0.0361004 0)
(1.27873 0.0321113 0)
(1.28167 0.0285907 0)
(1.28028 0.0254672 0)
(1.27706 0.0226749 0)
(1.27319 0.0201645 0)
(1.26921 0.0179016 0)
(1.26535 0.0158592 0)
(1.26167 0.0140153 0)
(1.2582 0.0123522 0)
(1.25492 0.0108544 0)
(1.25181 0.00950783 0)
(1.24887 0.00830061 0)
(1.24608 0.00722085 0)
(1.24346 0.00625759 0)
(1.241 0.00540013 0)
(1.2387 0.00463823 0)
(1.23658 0.00396256 0)
(1.23463 0.00336394 0)
(1.23287 0.00283368 0)
(1.23129 0.00236353 0)
(1.2299 0.00194567 0)
(1.22871 0.00157243 0)
(1.2277 0.00123645 0)
(1.2269 0.000930728 0)
(1.2263 0.000648353 0)
(1.22589 0.000382476 0)
(1.22569 0.000126362 0)
(1.1793 0.0489749 0)
(1.23306 0.0460479 0)
(1.26176 0.041078 0)
(1.27424 0.0367494 0)
(1.27768 0.0329112 0)
(1.27673 0.02949 0)
(1.27388 0.0264246 0)
(1.27033 0.0236652 0)
(1.26663 0.0211736 0)
(1.26301 0.0189196 0)
(1.25956 0.0168781 0)
(1.25629 0.0150291 0)
(1.2532 0.0133548 0)
(1.25026 0.0118398 0)
(1.24747 0.0104706 0)
(1.24483 0.0092342 0)
(1.24233 0.00811862 0)
(1.23999 0.00711249 0)
(1.2378 0.00620509 0)
(1.23577 0.00538644 0)
(1.23391 0.00464696 0)
(1.23222 0.00397763 0)
(1.2307 0.0033699 0)
(1.22937 0.00281562 0)
(1.22822 0.00230694 0)
(1.22726 0.00183638 0)
(1.22649 0.00139671 0)
(1.22591 0.000980858 0)
(1.22552 0.000581829 0)
(1.22533 0.000192795 0)
(1.1743 0.0539604 0)
(1.22752 0.0507825 0)
(1.25643 0.0455572 0)
(1.26939 0.0409272 0)
(1.27336 0.0368077 0)
(1.27288 0.0331239 0)
(1.27042 0.0298184 0)
(1.26721 0.02684 0)
(1.26381 0.0241474 0)
(1.26046 0.021707 0)
(1.25724 0.0194913 0)
(1.25419 0.0174778 0)
(1.25129 0.015647 0)
(1.24853 0.0139821 0)
(1.2459 0.0124679 0)
(1.2434 0.0110908 0)
(1.24104 0.00983783 0)
(1.23882 0.00869704 0)
(1.23673 0.00765724 0)
(1.2348 0.00670796 0)
(1.23303 0.00583928 0)
(1.23141 0.00504194 0)
(1.22997 0.00430715 0)
(1.22869 0.00362656 0)
(1.22759 0.0029922 0)
(1.22667 0.00239646 0)
(1.22593 0.00183196 0)
(1.22537 0.00129155 0)
(1.225 0.000768158 0)
(1.22481 0.000254894 0)
(1.16901 0.0583451 0)
(1.22169 0.0549202 0)
(1.2508 0.0494744 0)
(1.26424 0.0445917 0)
(1.26876 0.0402364 0)
(1.26876 0.0363331 0)
(1.26672 0.0328268 0)
(1.26387 0.029665 0)
(1.26078 0.0268033 0)
(1.25771 0.0242055 0)
(1.25474 0.0218419 0)
(1.25191 0.0196879 0)
(1.24921 0.0177225 0)
(1.24664 0.0159276 0)
(1.24418 0.014287 0)
(1.24183 0.0127862 0)
(1.2396 0.0114116 0)
(1.2375 0.0101508 0)
(1.23553 0.00899231 0)
(1.2337 0.00792518 0)
(1.23201 0.00693936 0)
(1.23047 0.00602539 0)
(1.22909 0.00517434 0)
(1.22787 0.00437776 0)
(1.22682 0.00362761 0)
(1.22594 0.0029162 0)
(1.22523 0.00223612 0)
(1.22469 0.0015802 0)
(1.22434 0.000941322 0)
(1.22416 0.000312615 0)
(1.16344 0.0620496 0)
(1.21562 0.0583935 0)
(1.24491 0.0527752 0)
(1.25886 0.0476978 0)
(1.26392 0.0431606 0)
(1.26443 0.0390875 0)
(1.26282 0.0354255 0)
(1.26035 0.0321205 0)
(1.25759 0.0291257 0)
(1.2548 0.0264027 0)
(1.2521 0.02392 0)
(1.24949 0.0216515 0)
(1.247 0.0195751 0)
(1.24461 0.0176716 0)
(1.24232 0.0159241 0)
(1.24013 0.0143175 0)
(1.23804 0.0128378 0)
(1.23606 0.0114722 0)
(1.2342 0.010209 0)
(1.23246 0.00903722 0)
(1.23086 0.00794655 0)
(1.2294 0.00692752 0)
(1.22809 0.00597115 0)
(1.22693 0.00506899 0)
(1.22592 0.004213 0)
(1.22508 0.00339551 0)
(1.2244 0.00260915 0)
(1.22389 0.00184676 0)
(1.22355 0.0011013 0)
(1.22338 0.00036595 0)
(1.15763 0.0650078 0)
(1.20936 0.0611489 0)
(1.23885 0.0554177 0)
(1.25329 0.0502114 0)
(1.25891 0.0455525 0)
(1.25994 0.0413651 0)
(1.25878 0.037597 0)
(1.25669 0.0341929 0)
(1.25427 0.0311039 0)
(1.25178 0.0282903 0)
(1.24933 0.0257194 0)
(1.24696 0.0233641 0)
(1.24468 0.0212014 0)
(1.24248 0.0192117 0)
(1.24035 0.0173777 0)
(1.23831 0.0156837 0)
(1.23636 0.0141158 0)
(1.2345 0.012661 0)
(1.23275 0.0113075 0)
(1.23112 0.0100443 0)
(1.2296 0.00886115 0)
(1.22822 0.00774868 0)
(1.22697 0.00669796 0)
(1.22587 0.00570061 0)
(1.22491 0.00474871 0)
(1.22411 0.00383467 0)
(1.22346 0.00295126 0)
(1.22297 0.00209141 0)
(1.22265 0.0012482 0)
(1.22249 0.000414937 0)
(1.15164 0.0671718 0)
(1.20297 0.0631497 0)
(1.23268 0.0573744 0)
(1.24763 0.0521105 0)
(1.25381 0.0473953 0)
(1.25535 0.043153 0)
(1.25465 0.0393316 0)
(1.25295 0.0358749 0)
(1.25086 0.0327329 0)
(1.24867 0.029865 0)
(1.24648 0.0272381 0)
(1.24434 0.0248246 0)
(1.24227 0.0226014 0)
(1.24025 0.0205485 0)
(1.2383 0.0186485 0)
(1.23641 0.016886 0)
(1.23459 0.0152469 0)
(1.23286 0.0137185 0)
(1.23121 0.012289 0)
(1.22967 0.0109477 0)
(1.22824 0.00968444 0)
(1.22693 0.00849007 0)
(1.22575 0.00735585 0)
(1.2247 0.00627359 0)
(1.22379 0.00523556 0)
(1.22303 0.00423439 0)
(1.22241 0.003263 0)
(1.22195 0.00231454 0)
(1.22164 0.00138225 0)
(1.22148 0.000459652 0)
(1.14554 0.0685138 0)
(1.19655 0.0643787 0)
(1.2265 0.0586344 0)
(1.24194 0.0533874 0)
(1.24868 0.048684 0)
(1.25074 0.0444485 0)
(1.25048 0.0406284 0)
(1.24917 0.037167 0)
(1.24741 0.0340141 0)
(1.24551 0.0311291 0)
(1.24358 0.0284789 0)
(1.24167 0.0260363 0)
(1.2398 0.0237782 0)
(1.23797 0.0216851 0)
(1.23618 0.01974 0)
(1.23443 0.0179276 0)
(1.23275 0.0162343 0)
(1.23113 0.0146477 0)
(1.22959 0.0131564 0)
(1.22815 0.01175 0)
(1.2268 0.0104188 0)
(1.22556 0.00915379 0)
(1.22444 0.00794667 0)
(1.22345 0.00678953 0)
(1.22259 0.00567492 0)
(1.22186 0.00459576 0)
(1.22127 0.00354523 0)
(1.22083 0.00251676 0)
(1.22053 0.00150383 0)
(1.22038 0.000500217 0)
(1.13942 0.0690285 0)
(1.19017 0.0648389 0)
(1.22037 0.0592037 0)
(1.23631 0.0540494 0)
(1.2436 0.0494267 0)
(1.24616 0.0452597 0)
(1.24634 0.0414956 0)
(1.2454 0.0380775 0)
(1.24397 0.0349558 0)
(1.24235 0.0320904 0)
(1.24067 0.0294494 0)
(1.23898 0.0270063 0)
(1.2373 0.0247388 0)
(1.23565 0.0226282 0)
(1.23401 0.0206582 0)
(1.23241 0.0188142 0)
(1.23085 0.0170832 0)
(1.22934 0.0154534 0)
(1.22791 0.013914 0)
(1.22655 0.0124551 0)
(1.22528 0.0110676 0)
(1.22411 0.00974284 0)
(1.22305 0.00847303 0)
(1.22211 0.00725065 0)
(1.22129 0.00606865 0)
(1.2206 0.00492028 0)
(1.22004 0.00379912 0)
(1.21962 0.00269888 0)
(1.21934 0.00161341 0)
(1.2192 0.000536797 0)
(1.13336 0.0687337 0)
(1.18392 0.0645541 0)
(1.21439 0.0591062 0)
(1.23083 0.0541188 0)
(1.23865 0.0496441 0)
(1.24169 0.0456061 0)
(1.24229 0.0419511 0)
(1.24171 0.0386228 0)
(1.24058 0.0355728 0)
(1.23923 0.0327628 0)
(1.23778 0.0301622 0)
(1.2363 0.0277462 0)
(1.23481 0.0254937 0)
(1.23331 0.0233874 0)
(1.23182 0.0214118 0)
(1.23035 0.0195535 0)
(1.22891 0.0178005 0)
(1.22751 0.0161418 0)
(1.22617 0.0145674 0)
(1.2249 0.013068 0)
(1.2237 0.0116352 0)
(1.2226 0.0102611 0)
(1.2216 0.00893828 0)
(1.22071 0.00765981 0)
(1.21993 0.00641909 0)
(1.21927 0.00520987 0)
(1.21874 0.00402611 0)
(1.21834 0.00286195 0)
(1.21807 0.00171162 0)
(1.21793 0.000569595 0)
(1.12745 0.0676691 0)
(1.1779 0.0635681 0)
(1.20866 0.0583826 0)
(1.22556 0.0536326 0)
(1.23389 0.0493697 0)
(1.23739 0.0455177 0)
(1.23838 0.0420217 0)
(1.23813 0.0388269 0)
(1.23729 0.0358869 0)
(1.23618 0.0331657 0)
(1.23495 0.0306349 0)
(1.23365 0.0282717 0)
(1.23233 0.0260571 0)
(1.23099 0.0239752 0)
(1.22964 0.0220121 0)
(1.22829 0.0201558 0)
(1.22696 0.0183954 0)
(1.22565 0.016721 0)
(1.2244 0.0151237 0)
(1.2232 0.0135949 0)
(1.22208 0.0121272 0)
(1.22104 0.0107133 0)
(1.22009 0.00934648 0)
(1.21924 0.00802042 0)
(1.2185 0.00672911 0)
(1.21787 0.0054668 0)
(1.21736 0.00422796 0)
(1.21698 0.00300719 0)
(1.21672 0.00179919 0)
(1.2166 0.000598856 0)
(1.12178 0.0658954 0)
(1.17218 0.0619429 0)
(1.20323 0.0570893 0)
(1.22059 0.0526417 0)
(1.22939 0.0486491 0)
(1.23331 0.0450348 0)
(1.23466 0.0417434 0)
(1.2347 0.0387218 0)
(1.23412 0.0359263 0)
(1.23323 0.0333241 0)
(1.23219 0.0308897 0)
(1.23107 0.0286027 0)
(1.2299 0.0264465 0)
(1.2287 0.0244072 0)
(1.22747 0.022473 0)
(1.22623 0.0206333 0)
(1.22499 0.0188787 0)
(1.22378 0.0172006 0)
(1.2226 0.0155912 0)
(1.22148 0.0140432 0)
(1.22042 0.0125499 0)
(1.21943 0.0111049 0)
(1.21853 0.00970231 0)
(1.21772 0.00833644 0)
(1.21701 0.00700195 0)
(1.21642 0.00569368 0)
(1.21593 0.00440667 0)
(1.21556 0.00313603 0)
(1.21532 0.00187696 0)
(1.2152 0.00062486 0)
(1.11646 0.0634938 0)
(1.16685 0.0597574 0)
(1.1982 0.0552974 0)
(1.21598 0.0512096 0)
(1.22521 0.0475386 0)
(1.22951 0.0442072 0)
(1.23117 0.0411599 0)
(1.23148 0.0383458 0)
(1.23112 0.0357251 0)
(1.23043 0.0332681 0)
(1.22956 0.030953 0)
(1.22858 0.0287623 0)
(1.22754 0.0266824 0)
(1.22645 0.0247017 0)
(1.22533 0.0228104 0)
(1.22419 0.0209999 0)
(1.22304 0.0192626 0)
(1.2219 0.0175914 0)
(1.2208 0.0159796 0)
(1.21973 0.0144212 0)
(1.21873 0.0129105 0)
(1.21779 0.0114422 0)
(1.21693 0.0100111 0)
(1.21616 0.00861231 0)
(1.21548 0.00724127 0)
(1.21491 0.00589345 0)
(1.21445 0.00456447 0)
(1.21409 0.00325003 0)
(1.21386 0.00194587 0)
(1.21374 0.000647915 0)
(1.11154 0.0605598 0)
(1.16198 0.0571046 0)
(1.19361 0.0530907 0)
(1.21179 0.049411 0)
(1.2214 0.0461041 0)
(1.22603 0.0430929 0)
(1.22796 0.040322 0)
(1.2285 0.0377438 0)
(1.22832 0.0353222 0)
(1.22778 0.033032 0)
(1.22705 0.0308549 0)
(1.2262 0.0287772 0)
(1.22527 0.0267881 0)
(1.22427 0.0248789 0)
(1.22324 0.0230422 0)
(1.22218 0.0212716 0)
(1.2211 0.0195611 0)
(1.22003 0.0179054 0)
(1.21899 0.0162992 0)
(1.21798 0.0147379 0)
(1.21702 0.0132169 0)
(1.21612 0.0117318 0)
(1.2153 0.0102785 0)
(1.21456 0.00885284 0)
(1.21391 0.00745104 0)
(1.21336 0.00606926 0)
(1.21291 0.00470377 0)
(1.21258 0.00335089 0)
(1.21235 0.00200693 0)
(1.21224 0.000668358 0)
(1.10711 0.0572036 0)
(1.15763 0.0540896 0)
(1.18954 0.0505634 0)
(1.20806 0.0473296 0)
(1.218 0.0444195 0)
(1.22291 0.0417566 0)
(1.22506 0.0392864 0)
(1.22577 0.0369651 0)
(1.22574 0.0347611 0)
(1.22532 0.0326537 0)
(1.2247 0.0306287 0)
(1.22394 0.0286762 0)
(1.22309 0.026789 0)
(1.22217 0.0249612 0)
(1.22121 0.023188 0)
(1.22021 0.0214652 0)
(1.2192 0.0197889 0)
(1.21818 0.0181555 0)
(1.21718 0.0165614 0)
(1.21622 0.0150032 0)
(1.2153 0.0134775 0)
(1.21443 0.011981 0)
(1.21364 0.0105106 0)
(1.21293 0.00906314 0)
(1.21231 0.00763545 0)
(1.21177 0.00622446 0)
(1.21134 0.00482714 0)
(1.21102 0.00344041 0)
(1.2108 0.0020612 0)
(1.21069 0.000686541 0)
(1.10324 0.0535471 0)
(1.15385 0.0508269 0)
(1.186 0.0478182 0)
(1.20483 0.0450563 0)
(1.21504 0.0425648 0)
(1.22017 0.0402682 0)
(1.22249 0.0381143 0)
(1.22333 0.0360632 0)
(1.22339 0.0340883 0)
(1.22306 0.0321736 0)
(1.2225 0.0303096 0)
(1.22181 0.0284903 0)
(1.22102 0.026712 0)
(1.22016 0.024972 0)
(1.21925 0.0232681 0)
(1.2183 0.0215986 0)
(1.21732 0.0199617 0)
(1.21635 0.0183554 0)
(1.21539 0.0167779 0)
(1.21446 0.0152271 0)
(1.21357 0.013701 0)
(1.21273 0.0121973 0)
(1.21197 0.0107139 0)
(1.21128 0.00924853 0)
(1.21067 0.00779885 0)
(1.21016 0.00636253 0)
(1.20974 0.00493721 0)
(1.20942 0.00352045 0)
(1.20921 0.00210979 0)
(1.2091 0.000702831 0)
(1.09996 0.0497207 0)
(1.15067 0.0474374 0)
(1.18304 0.0449631 0)
(1.20211 0.042687 0)
(1.21254 0.0406239 0)
(1.21783 0.0387013 0)
(1.22026 0.0368696 0)
(1.22117 0.0350936 0)
(1.22129 0.0333521 0)
(1.221 0.031634 0)
(1.22049 0.0299344 0)
(1.21983 0.0282515 0)
(1.21907 0.026585 0)
(1.21824 0.0249356 0)
(1.21736 0.0233038 0)
(1.21644 0.0216903 0)
(1.21549 0.0200954 0)
(1.21455 0.0185189 0)
(1.21361 0.0169607 0)
(1.2127 0.0154202 0)
(1.21184 0.0138964 0)
(1.21103 0.0123883 0)
(1.21028 0.0108948 0)
(1.2096 0.00941438 0)
(1.20901 0.00794565 0)
(1.20851 0.00648698 0)
(1.2081 0.00503665 0)
(1.20779 0.00359289 0)
(1.20758 0.00215381 0)
(1.20748 0.000717598 0)
(1.09731 0.0458593 0)
(1.14811 0.0440449 0)
(1.18065 0.0421093 0)
(1.19992 0.0403197 0)
(1.2105 0.038683 0)
(1.21588 0.0371307 0)
(1.21836 0.0356174 0)
(1.2193 0.0341132 0)
(1.21944 0.0326019 0)
(1.21915 0.0310777 0)
(1.21864 0.0295402 0)
(1.21798 0.0279918 0)
(1.21723 0.026436 0)
(1.21641 0.0248763 0)
(1.21554 0.0233162 0)
(1.21463 0.0217586 0)
(1.2137 0.0202059 0)
(1.21277 0.0186599 0)
(1.21185 0.0171219 0)
(1.21096 0.0155926 0)
(1.21011 0.0140725 0)
(1.20931 0.0125615 0)
(1.20857 0.0110596 0)
(1.20791 0.00956603 0)
(1.20733 0.00808024 0)
(1.20684 0.00660128 0)
(1.20644 0.00512812 0)
(1.20613 0.00365958 0)
(1.20593 0.00219436 0)
(1.20582 0.000731208 0)
(1.09532 0.042099 0)
(1.14618 0.0407735 0)
(1.17884 0.039368 0)
(1.19823 0.0380524 0)
(1.2089 0.0368274 0)
(1.21432 0.0356309 0)
(1.2168 0.0344225 0)
(1.21772 0.0331778 0)
(1.21782 0.0318861 0)
(1.2175 0.0305466 0)
(1.21696 0.0291635 0)
(1.21628 0.0277432 0)
(1.21551 0.0262925 0)
(1.21468 0.024818 0)
(1.2138 0.023326 0)
(1.21288 0.0218215 0)
(1.21195 0.0203089 0)
(1.21102 0.0187918 0)
(1.21011 0.017273 0)
(1.20922 0.0157545 0)
(1.20838 0.0142379 0)
(1.20759 0.0127244 0)
(1.20686 0.0112145 0)
(1.2062 0.00970867 0)
(1.20563 0.00820684 0)
(1.20514 0.00670882 0)
(1.20474 0.00521419 0)
(1.20444 0.00372234 0)
(1.20424 0.00223253 0)
(1.20414 0.000744014 0)
(1.094 0.0385739 0)
(1.14487 0.0377438 0)
(1.17759 0.0368471 0)
(1.19704 0.0359799 0)
(1.20773 0.0351399 0)
(1.21313 0.0342736 0)
(1.21556 0.033347 0)
(1.2164 0.0323413 0)
(1.21643 0.0312514 0)
(1.21604 0.0300812 0)
(1.21543 0.0288393 0)
(1.2147 0.0275357 0)
(1.21389 0.0261806 0)
(1.21303 0.0247835 0)
(1.21212 0.0233529 0)
(1.21119 0.0218961 0)
(1.21024 0.0204192 0)
(1.2093 0.0189275 0)
(1.20838 0.0174251 0)
(1.20749 0.0159153 0)
(1.20665 0.0144009 0)
(1.20586 0.0128838 0)
(1.20513 0.0113655 0)
(1.20448 0.00984718 0)
(1.20391 0.00832946 0)
(1.20342 0.00681277 0)
(1.20303 0.00529726 0)
(1.20273 0.00378285 0)
(1.20253 0.0022693 0)
(1.20243 0.000756351 0)
(1.09333 0.0354116 0)
(1.14415 0.0350703 0)
(1.17686 0.0346485 0)
(1.1963 0.0341912 0)
(1.20695 0.0336978 0)
(1.21227 0.0331261 0)
(1.21459 0.0324491 0)
(1.21532 0.031654 0)
(1.21523 0.0307411 0)
(1.21474 0.0297189 0)
(1.21405 0.0285999 0)
(1.21324 0.0273975 0)
(1.21237 0.0261248 0)
(1.21145 0.0247938 0)
(1.2105 0.0234151 0)
(1.20953 0.0219981 0)
(1.20857 0.0205504 0)
(1.20761 0.0190787 0)
(1.20667 0.0175884 0)
(1.20577 0.016084 0)
(1.20492 0.0145689 0)
(1.20412 0.0130461 0)
(1.20339 0.011518 0)
(1.20274 0.00998606 0)
(1.20217 0.00845179 0)
(1.20168 0.00691608 0)
(1.20129 0.00537958 0)
(1.20099 0.00384269 0)
(1.20079 0.00230562 0)
(1.20069 0.000768528 0)
(1.09331 0.0327308 0)
(1.14398 0.0328575 0)
(1.17661 0.0328646 0)
(1.19597 0.0327667 0)
(1.20651 0.032571 0)
(1.2117 0.0322487 0)
(1.21387 0.0317808 0)
(1.21444 0.0311607 0)
(1.21421 0.0303939 0)
(1.21359 0.0294931 0)
(1.21278 0.0284741 0)
(1.21187 0.0273534 0)
(1.21092 0.0261464 0)
(1.20993 0.0248674 0)
(1.20893 0.0235289 0)
(1.20792 0.0221415 0)
(1.20691 0.0207147 0)
(1.20592 0.019256 0)
(1.20497 0.017772 0)
(1.20405 0.0162681 0)
(1.20318 0.0147486 0)
(1.20238 0.0132171 0)
(1.20164 0.0116766 0)
(1.20098 0.0101293 0)
(1.20041 0.00857709 0)
(1.19992 0.00702133 0)
(1.19952 0.00546311 0)
(1.19922 0.00390325 0)
(1.19902 0.00234231 0)
(1.19892 0.000780816 0)
(1.09388 0.0306371 0)
(1.14431 0.0311973 0)
(1.17676 0.0315755 0)
(1.19597 0.0317755 0)
(1.20635 0.0318194 0)
(1.21136 0.0316932 0)
(1.21334 0.0313866 0)
(1.21373 0.0308998 0)
(1.21332 0.0302428 0)
(1.21255 0.0294322 0)
(1.2116 0.0284865 0)
(1.21058 0.0274246 0)
(1.20953 0.0262639 0)
(1.20846 0.0250203 0)
(1.20739 0.0237078 0)
(1.20632 0.0223383 0)
(1.20527 0.0209222 0)
(1.20425 0.0194682 0)
(1.20326 0.0179835 0)
(1.20232 0.0164743 0)
(1.20144 0.0149456 0)
(1.20062 0.0134016 0)
(1.19987 0.0118456 0)
(1.1992 0.0102804 0)
(1.19862 0.00870815 0)
(1.19813 0.00713074 0)
(1.19773 0.00554955 0)
(1.19743 0.0039657 0)
(1.19723 0.00238006 0)
(1.19713 0.000793449 0)
(1.095 0.0292197 0)
(1.14507 0.0301647 0)
(1.17725 0.0308456 0)
(1.19624 0.0312734 0)
(1.20641 0.0314908 0)
(1.21119 0.0315005 0)
(1.21295 0.0313018 0)
(1.21313 0.0309014 0)
(1.21253 0.0303139 0)
(1.21158 0.0295586 0)
(1.21048 0.0286564 0)
(1.20934 0.0276278 0)
(1.20817 0.0264916 0)
(1.20701 0.025265 0)
(1.20587 0.0239627 0)
(1.20474 0.0225977 0)
(1.20364 0.0211812 0)
(1.20257 0.0197223 0)
(1.20155 0.018229 0)
(1.20058 0.016708 0)
(1.19968 0.0151646 0)
(1.19884 0.0136033 0)
(1.19808 0.0120281 0)
(1.1974 0.0104419 0)
(1.19681 0.00884719 0)
(1.19631 0.0072461 0)
(1.19591 0.00564025 0)
(1.19561 0.004031 0)
(1.1954 0.00241945 0)
(1.1953 0.000806614 0)
(1.0966 0.0285475 0)
(1.14618 0.0298153 0)
(1.178 0.0307219 0)
(1.1967 0.0313004 0)
(1.2066 0.0316196 0)
(1.21113 0.0317001 0)
(1.21265 0.0315515 0)
(1.21259 0.0311871 0)
(1.21179 0.0306255 0)
(1.21065 0.0298882 0)
(1.2094 0.0289975 0)
(1.20811 0.0279748 0)
(1.20683 0.0268399 0)
(1.20557 0.0256102 0)
(1.20434 0.0243013 0)
(1.20315 0.0229266 0)
(1.20199 0.0214974 0)
(1.20088 0.0200235 0)
(1.19982 0.018513 0)
(1.19882 0.0169728 0)
(1.1979 0.0154086 0)
(1.19704 0.0138252 0)
(1.19626 0.0122266 0)
(1.19558 0.0106159 0)
(1.19498 0.00899587 0)
(1.19447 0.00736871 0)
(1.19406 0.00573621 0)
(1.19375 0.00409986 0)
(1.19355 0.0024609 0)
(1.19345 0.000820451 0)
(1.0986 0.0286644 0)
(1.14755 0.0301823 0)
(1.17891 0.0312315 0)
(1.19725 0.0318789 0)
(1.20685 0.0322243 0)
(1.21111 0.0323076 0)
(1.21236 0.0321491 0)
(1.21207 0.0317684 0)
(1.21105 0.0311875 0)
(1.20972 0.0304295 0)
(1.2083 0.0295171 0)
(1.20687 0.0284721 0)
(1.20547 0.0273141 0)
(1.20412 0.0260609 0)
(1.2028 0.0247279 0)
(1.20154 0.0233285 0)
(1.20032 0.0218741 0)
(1.19917 0.0203745 0)
(1.19807 0.0188378 0)
(1.19704 0.0172709 0)
(1.19609 0.0156797 0)
(1.19521 0.0140689 0)
(1.19442 0.0124424 0)
(1.19372 0.0108036 0)
(1.19311 0.00915516 0)
(1.1926 0.00749936 0)
(1.19218 0.00583803 0)
(1.19187 0.0041727 0)
(1.19166 0.00250464 0)
(1.19156 0.000835042 0)
(1.10091 0.0295893 0)
(1.14908 0.0312763 0)
(1.17989 0.0323808 0)
(1.19781 0.0330132 0)
(1.20708 0.0333082 0)
(1.21104 0.0333254 0)
(1.21203 0.0330964 0)
(1.2115 0.0326469 0)
(1.21026 0.0320015 0)
(1.20875 0.0311838 0)
(1.20716 0.0302165 0)
(1.2056 0.0291207 0)
(1.20408 0.0279155 0)
(1.20262 0.0266182 0)
(1.20123 0.0252435 0)
(1.19989 0.0238045 0)
(1.19862 0.0223122 0)
(1.19742 0.0207762 0)
(1.19628 0.0192043 0)
(1.19522 0.0176032 0)
(1.19424 0.0159785 0)
(1.19335 0.0143348 0)
(1.19254 0.0126761 0)
(1.19183 0.0110054 0)
(1.19121 0.00932544 0)
(1.19069 0.00763836 0)
(1.19027 0.00594596 0)
(1.18995 0.00424969 0)
(1.18974 0.0025508 0)
(1.18964 0.000850425 0)
(1.10342 0.0313161 0)
(1.15067 0.0330847 0)
(1.18083 0.0341551 0)
(1.19829 0.0346885 0)
(1.20719 0.0348574 0)
(1.21086 0.0347413 0)
(1.21158 0.0343828 0)
(1.21082 0.0338135 0)
(1.20938 0.0330595 0)
(1.20769 0.0321445 0)
(1.20595 0.03109 0)
(1.20425 0.0299159 0)
(1.20262 0.0286401 0)
(1.20107 0.0272785 0)
(1.19959 0.0258452 0)
(1.1982 0.0243521 0)
(1.19687 0.0228098 0)
(1.19562 0.021227 0)
(1.19445 0.0196111 0)
(1.19336 0.0179684 0)
(1.19236 0.016304 0)
(1.19144 0.0146224 0)
(1.19062 0.012927 0)
(1.1899 0.0112209 0)
(1.18927 0.00950637 0)
(1.18874 0.00778547 0)
(1.18832 0.0060598 0)
(1.188 0.00433071 0)
(1.18779 0.0025993 0)
(1.18768 0.000866572 0)
(1.10603 0.0338123 0)
(1.15222 0.035572 0)
(1.18165 0.0365191 0)
(1.1986 0.0368722 0)
(1.20712 0.0368429 0)
(1.21049 0.0365299 0)
(1.21097 0.0359866 0)
(1.20999 0.0352494 0)
(1.20836 0.0343458 0)
(1.2065 0.0332982 0)
(1.20462 0.0321263 0)
(1.2028 0.0308481 0)
(1.20107 0.0294796 0)
(1.19944 0.0280351 0)
(1.19789 0.0265271 0)
(1.19643 0.0249665 0)
(1.19506 0.0233626 0)
(1.19377 0.0217234 0)
(1.19257 0.0200553 0)
(1.19145 0.0183641 0)
(1.19043 0.0166544 0)
(1.1895 0.01493 0)
(1.18866 0.013194 0)
(1.18792 0.011449 0)
(1.18729 0.00969707 0)
(1.18676 0.00793998 0)
(1.18633 0.00617906 0)
(1.18601 0.00441541 0)
(1.18579 0.00264993 0)
(1.18568 0.000883419 0)
(1.10861 0.0370195 0)
(1.15362 0.0386787 0)