/*--------------------------------*- C++ -*----------------------------------*\
  =========                 |
  \\      /  F ield         | OpenFOAM: The Open Source CFD Toolbox
   \\    /   O peration     | Website:  https://openfoam.org
    \\  /    A nd           | Version:  7
     \\/     M anipulation  |
\*---------------------------------------------------------------------------*/
FoamFile
{
    version     2.0;
    format      ascii;
    class       volScalarField;
    location    "45";
    object      p;
}
// * * * * * * * * * * * * * * * * * * * * * * * * * * * * * * * * * * * * * //

dimensions      [0 2 -2 0 0 0 0];

internalField   nonuniform List<scalar> 
3700
(
-0.249943
-0.248253
-0.246363
-0.244296
-0.242052
-0.239636
-0.237051
-0.234298
-0.231384
-0.228317
-0.225103
-0.221741
-0.218232
-0.214579
-0.210785
-0.206854
-0.202789
-0.198595
-0.194277
-0.18984
-0.185291
-0.180636
-0.175883
-0.17104
-0.166116
-0.16112
-0.156064
-0.150957
-0.145813
-0.140641
-0.135456
-0.130268
-0.12509
-0.119935
-0.114815
-0.109742
-0.104728
-0.0997841
-0.0949205
-0.0901472
-0.0854732
-0.0809066
-0.0764549
-0.0721248
-0.0679214
-0.0638493
-0.0599122
-0.056113
-0.0524534
-0.0489345
-0.0455568
-0.0423198
-0.0392226
-0.0362636
-0.0334407
-0.0307515
-0.0281932
-0.0257627
-0.0234566
-0.0212714
-0.0192035
-0.0172494
-0.0154053
-0.0136677
-0.0120329
-0.0104981
-0.00905916
-0.00771496
-0.00645929
-0.00529734
-0.00421119
-0.00323393
-0.00228984
-0.00154239
-0.000634486
-0.000358896
0.000999626
-0.250044
-0.248351
-0.246459
-0.244391
-0.242146
-0.239731
-0.237146
-0.234394
-0.231478
-0.228419
-0.225208
-0.221848
-0.218341
-0.214691
-0.210899
-0.20697
-0.202908
-0.198716
-0.1944
-0.189965
-0.185416
-0.180762
-0.176008
-0.171165
-0.166239
-0.161241
-0.156182
-0.151073
-0.145925
-0.14075
-0.13556
-0.130367
-0.125184
-0.120024
-0.1149
-0.109822
-0.104804
-0.0998549
-0.0949871
-0.0902099
-0.0855325
-0.0809628
-0.0765087
-0.0721761
-0.0679709
-0.0638974
-0.0599593
-0.0561593
-0.0524993
-0.0489802
-0.0456025
-0.0423656
-0.0392685
-0.0363097
-0.0334871
-0.0307981
-0.0282398
-0.0258092
-0.0235029
-0.0213174
-0.0192489
-0.017294
-0.0154489
-0.0137101
-0.012074
-0.0105376
-0.00909689
-0.00775083
-0.00649299
-0.00532898
-0.00424023
-0.00326089
-0.00231368
-0.00156392
-0.000653412
-0.000370192
0.000974029
-0.25024
-0.248541
-0.246646
-0.244576
-0.242332
-0.239917
-0.237332
-0.23458
-0.231671
-0.228615
-0.225408
-0.222052
-0.218549
-0.214903
-0.211114
-0.207189
-0.20313
-0.198941
-0.194628
-0.190194
-0.185647
-0.180994
-0.17624
-0.171396
-0.166469
-0.161468
-0.156406
-0.151293
-0.14614
-0.140959
-0.135763
-0.130564
-0.125374
-0.120208
-0.115076
-0.109991
-0.104966
-0.10001
-0.0951354
-0.0903518
-0.0856684
-0.0810925
-0.0766333
-0.072296
-0.0680863
-0.0640089
-0.0600672
-0.056264
-0.0526011
-0.0490795
-0.0456994
-0.0424605
-0.0393615
-0.0364009
-0.0335765
-0.0308858
-0.0283258
-0.0258935
-0.0235853
-0.0213977
-0.0193272
-0.0173701
-0.0155226
-0.0137813
-0.0121425
-0.0106033
-0.00915961
-0.00781057
-0.00654933
-0.00538228
-0.00428956
-0.00330732
-0.00235529
-0.00160224
-0.000687932
-0.000391181
0.000925016
-0.250512
-0.248806
-0.246908
-0.244838
-0.242595
-0.240183
-0.237602
-0.234855
-0.231956
-0.228899
-0.225694
-0.222343
-0.218845
-0.215204
-0.21142
-0.2075
-0.203445
-0.19926
-0.19495
-0.190519
-0.185974
-0.181321
-0.176568
-0.171722
-0.166794
-0.16179
-0.156724
-0.151606
-0.146448
-0.141261
-0.136057
-0.130851
-0.125653
-0.120478
-0.115337
-0.110244
-0.105209
-0.100243
-0.0953604
-0.0905684
-0.0858766
-0.0812933
-0.0768264
-0.072482
-0.0682657
-0.064182
-0.0602345
-0.056426
-0.0527581
-0.0492318
-0.0458474
-0.0426044
-0.0395015
-0.0365372
-0.0337092
-0.031015
-0.0284515
-0.0260157
-0.023704
-0.0215129
-0.0194388
-0.017478
-0.0156267
-0.0138815
-0.0122387
-0.0106955
-0.00924748
-0.00789428
-0.00662835
-0.00545717
-0.00435906
-0.00337296
-0.00241443
-0.0016568
-0.000737679
-0.000421724
0.000855241
-0.250833
-0.249122
-0.247224
-0.245155
-0.242916
-0.240507
-0.237925
-0.235168
-0.232288
-0.229245
-0.226049
-0.222705
-0.219214
-0.21558
-0.211801
-0.207887
-0.203838
-0.199658
-0.195352
-0.190925
-0.186382
-0.181731
-0.176978
-0.172131
-0.167201
-0.162195
-0.157125
-0.152002
-0.146837
-0.141643
-0.136433
-0.13122
-0.126008
-0.120824
-0.115674
-0.11057
-0.105525
-0.10055
-0.0956569
-0.0908546
-0.0861529
-0.0815601
-0.077084
-0.0727308
-0.0685061
-0.0644145
-0.0604595
-0.0566438
-0.0529691
-0.0494364
-0.0460459
-0.042797
-0.0396885
-0.0367187
-0.0338854
-0.0311859
-0.0286173
-0.0261764
-0.0238596
-0.0216635
-0.0195842
-0.0176182
-0.0157617
-0.0140113
-0.0123631
-0.0108145
-0.00936087
-0.00800222
-0.00673024
-0.00555372
-0.00444873
-0.00345754
-0.00249087
-0.00172691
-0.000802194
-0.000461487
0.000768319
-0.249461
-0.247566
-0.245502
-0.24327
-0.240869
-0.238298
-0.235579
-0.232683
-0.229642
-0.226454
-0.223117
-0.219634
-0.216009
-0.21224
-0.208334
-0.204291
-0.200117
-0.195816
-0.191393
-0.186854
-0.182205
-0.177454
-0.172608
-0.167679
-0.162662
-0.15759
-0.152463
-0.147293
-0.142092
-0.136874
-0.13165
-0.126433
-0.121239
-0.116078
-0.110963
-0.105907
-0.100921
-0.0960168
-0.0912037
-0.0864913
-0.0818881
-0.0774018
-0.0730387
-0.0688046
-0.0647038
-0.06074
-0.0569158
-0.053233
-0.0496924
-0.0462943
-0.043038
-0.0399224
-0.0369456
-0.0341055
-0.0313993
-0.028824
-0.0263764
-0.0240531
-0.0218503
-0.0197645
-0.0177918
-0.0159286
-0.0141715
-0.0125164
-0.0109611
-0.00950034
-0.00813487
-0.00685534
-0.00567206
-0.00455861
-0.00356078
-0.00258435
-0.00181178
-0.000880914
-0.000509892
0.000668458
-0.249788
-0.247903
-0.24585
-0.243629
-0.241239
-0.238667
-0.235964
-0.233087
-0.230061
-0.226885
-0.223561
-0.22009
-0.216483
-0.212703
-0.208813
-0.204779
-0.200614
-0.19632
-0.191903
-0.187369
-0.182723
-0.177974
-0.173128
-0.168196
-0.163186
-0.15811
-0.152978
-0.147802
-0.142595
-0.137369
-0.132137
-0.126912
-0.121708
-0.116537
-0.111412
-0.106345
-0.101348
-0.0964331
-0.0916091
-0.0868859
-0.0822721
-0.0777753
-0.073402
-0.0691577
-0.0650472
-0.0610738
-0.0572403
-0.0535484
-0.049999
-0.0465922
-0.0433274
-0.0402034
-0.0372184
-0.03437
-0.0316557
-0.0290724
-0.0266168
-0.0242853
-0.0220745
-0.0199805
-0.0179998
-0.0161284
-0.0143631
-0.0126996
-0.0111359
-0.00966659
-0.00829273
-0.00700405
-0.00581238
-0.00468876
-0.0036824
-0.0026946
-0.00191056
-0.000973136
-0.000566165
0.000560048
-0.250073
-0.248203
-0.246167
-0.243964
-0.241591
-0.239049
-0.236351
-0.23349
-0.230478
-0.227316
-0.224006
-0.220548
-0.216945
-0.213198
-0.209313
-0.205289
-0.201132
-0.196847
-0.192437
-0.187909
-0.183268
-0.178523
-0.17368
-0.168749
-0.163738
-0.15866
-0.153526
-0.148346
-0.143135
-0.137903
-0.132664
-0.127432
-0.12222
-0.11704
-0.111906
-0.10683
-0.101824
-0.0968983
-0.0920642
-0.0873309
-0.082707
-0.0782001
-0.0738168
-0.0695626
-0.0654422
-0.0614591
-0.0576159
-0.0539145
-0.0503556
-0.0469394
-0.0436652
-0.0405318
-0.0375375
-0.0346798
-0.0319561
-0.0293634
-0.0268984
-0.0245575
-0.0223372
-0.0202336
-0.0182432
-0.0163621
-0.014587
-0.0129136
-0.01134
-0.0098603
-0.00847634
-0.00717674
-0.00597481
-0.00483919
-0.00382204
-0.00282124
-0.00202232
-0.00107797
-0.000629435
0.000447266
-0.250276
-0.24843
-0.24642
-0.244242
-0.241893
-0.239388
-0.236696
-0.233856
-0.230866
-0.227723
-0.224431
-0.220991
-0.217404
-0.213671
-0.2098
-0.20579
-0.201645
-0.197371
-0.192971
-0.188451
-0.183818
-0.179078
-0.17424
-0.169313
-0.164304
-0.159227
-0.154093
-0.148912
-0.143698
-0.138463
-0.13322
-0.127982
-0.122764
-0.117578
-0.112437
-0.107353
-0.102339
-0.0974056
-0.0925631
-0.0878211
-0.0831883
-0.0786723
-0.0742798
-0.0700164
-0.0658866
-0.061894
-0.0580413
-0.0543302
-0.0507615
-0.0473355
-0.0440513
-0.0409079
-0.0379033
-0.0350354
-0.0323013
-0.029698
-0.0272223
-0.0248706
-0.0226393
-0.0205247
-0.0185232
-0.0166307
-0.0148441
-0.0131591
-0.0115738
-0.010082
-0.00868609
-0.00737367
-0.00615939
-0.00500982
-0.00397926
-0.0029638
-0.00214612
-0.0011943
-0.00069884
0.000333751
-0.250359
-0.248549
-0.246573
-0.24443
-0.242108
-0.239624
-0.236968
-0.234158
-0.231194
-0.228076
-0.224806
-0.221387
-0.217821
-0.214107
-0.210253
-0.20626
-0.202131
-0.197871
-0.193484
-0.188975
-0.184352
-0.179622
-0.174791
-0.16987
-0.164867
-0.159794
-0.154662
-0.149484
-0.14427
-0.139035
-0.133791
-0.128551
-0.12333
-0.118141
-0.112996
-0.107908
-0.102888
-0.0979489
-0.0931002
-0.0883516
-0.0837117
-0.0791884
-0.0747881
-0.0705166
-0.0663783
-0.062377
-0.0585152
-0.0547947
-0.0512163
-0.0477802
-0.0444858
-0.0413317
-0.0383163
-0.0354372
-0.0326917
-0.0300768
-0.0275891
-0.0252253
-0.0229817
-0.0208546
-0.0188403
-0.0169348
-0.0151351
-0.0134367
-0.0118378
-0.0103321
-0.00892212
-0.00759488
-0.00636591
-0.00520036
-0.00415344
-0.00312166
-0.002281
-0.00132082
-0.000773586
0.000222414
-0.250271
-0.248515
-0.246586
-0.244486
-0.242201
-0.239738
-0.237126
-0.234357
-0.231428
-0.228342
-0.225102
-0.22171
-0.218168
-0.214479
-0.210647
-0.206675
-0.202565
-0.198323
-0.193952
-0.18946
-0.184851
-0.180133
-0.175314
-0.170403
-0.16541
-0.160345
-0.15522
-0.150048
-0.144839
-0.139608
-0.134367
-0.129129
-0.12391
-0.118721
-0.113575
-0.108486
-0.103464
-0.0985225
-0.0936705
-0.0889179
-0.0842735
-0.0797449
-0.0753387
-0.0710607
-0.0669153
-0.0629063
-0.0590362
-0.0553068
-0.051719
-0.048273
-0.0449681
-0.0418031
-0.0387762
-0.0358853
-0.0331274
-0.0304999
-0.0279992
-0.025622
-0.0233646
-0.0212234
-0.0191948
-0.0172747
-0.0154601
-0.0137464
-0.012132
-0.0106103
-0.00918423
-0.00784005
-0.0065939
-0.00541027
-0.00434382
-0.00329397
-0.002426
-0.00145604
-0.000852961
0.000115374
-0.248276
-0.246411
-0.244372
-0.242147
-0.239727
-0.23715
-0.234421
-0.231535
-0.228489
-0.225285
-0.221927
-0.218418
-0.214759
-0.210955
-0.207009
-0.202924
-0.198705
-0.194356
-0.189884
-0.185294
-0.180594
-0.175792
-0.170896
-0.165918
-0.160866
-0.155753
-0.150591
-0.145393
-0.14017
-0.134937
-0.129707
-0.124493
-0.119309
-0.114168
-0.109081
-0.104062
-0.0991213
-0.0942695
-0.0895161
-0.08487
-0.0803387
-0.0759289
-0.0716463
-0.0674954
-0.06348
-0.0596026
-0.0558651
-0.0522684
-0.0488127
-0.0454973
-0.0423211
-0.0392824
-0.0363789
-0.033608
-0.0309667
-0.0284519
-0.02606
-0.0237876
-0.0216309
-0.0195863
-0.0176499
-0.0158186
-0.0140878
-0.012456
-0.0109163
-0.00947176
-0.0081085
-0.00684256
-0.00563872
-0.00454944
-0.00347967
-0.00258016
-0.00159839
-0.000936301
1.40138e-05
-0.247769
-0.245991
-0.244023
-0.241846
-0.2394
-0.23694
-0.234295
-0.231472
-0.22848
-0.225324
-0.222008
-0.218539
-0.214917
-0.211149
-0.207236
-0.203183
-0.198993
-0.194673
-0.190227
-0.185663
-0.180987
-0.176208
-0.171334
-0.166375
-0.161343
-0.156248
-0.151103
-0.14592
-0.140713
-0.135493
-0.130276
-0.125073
-0.1199
-0.114767
-0.109689
-0.104676
-0.0997406
-0.0948928
-0.0901422
-0.0854976
-0.0809664
-0.0765555
-0.0722705
-0.068116
-0.0640957
-0.0602123
-0.0564676
-0.0528626
-0.0493974
-0.0460716
-0.0428841
-0.0398332
-0.0369166
-0.0341319
-0.0314761
-0.028946
-0.0265383
-0.0242494
-0.0220757
-0.0200136
-0.0180593
-0.0162095
-0.0144597
-0.0128084
-0.0112487
-0.00978357
-0.0083991
-0.0071107
-0.00588453
-0.00476912
-0.00367748
-0.0027425
-0.00174629
-0.00102297
-8.08891e-05
-0.24692
-0.245261
-0.243401
-0.241355
-0.239099
-0.236511
-0.233924
-0.231192
-0.228273
-0.22518
-0.22192
-0.218501
-0.214927
-0.211204
-0.207333
-0.20332
-0.199168
-0.194884
-0.190473
-0.185941
-0.181296
-0.176547
-0.171702
-0.166771
-0.161765
-0.156695
-0.151574
-0.146414
-0.141227
-0.136028
-0.130829
-0.125644
-0.120486
-0.115368
-0.110303
-0.105302
-0.100376
-0.0955365
-0.0907925
-0.0861527
-0.0816248
-0.0772154
-0.0729303
-0.0687741
-0.0647506
-0.0608624
-0.0571115
-0.0534988
-0.0500247
-0.0466887
-0.0434898
-0.0404263
-0.0374962
-0.0346969
-0.0320257
-0.0294794
-0.0270547
-0.0247481
-0.022556
-0.0204749
-0.018501
-0.016631
-0.0148605
-0.0131878
-0.0116061
-0.010118
-0.00871029
-0.0073968
-0.00614624
-0.00500152
-0.00388595
-0.00291201
-0.00189823
-0.00111234
-0.000169021
-0.245659
-0.244155
-0.242422
-0.240473
-0.238279
-0.235842
-0.233323
-0.230672
-0.22784
-0.224825
-0.221634
-0.218278
-0.214763
-0.211096
-0.207278
-0.203315
-0.199211
-0.194972
-0.190604
-0.186114
-0.181509
-0.176798
-0.17199
-0.167094
-0.162123
-0.157086
-0.151996
-0.146866
-0.141708
-0.136536
-0.131362
-0.126201
-0.121065
-0.115968
-0.11092
-0.105936
-0.101024
-0.0961972
-0.0914635
-0.086832
-0.0823104
-0.0779053
-0.0736224
-0.0694665
-0.0654414
-0.0615497
-0.0577935
-0.0541739
-0.0506913
-0.0473453
-0.0441349
-0.0410586
-0.0381145
-0.0353001
-0.0326127
-0.0300492
-0.0276064
-0.0252809
-0.0230692
-0.0209676
-0.0189726
-0.0170807
-0.0152877
-0.0135917
-0.0119862
-0.0104731
-0.0090401
-0.00769902
-0.00642204
-0.00524511
-0.00410345
-0.00308766
-0.00205281
-0.00120377
-0.000250389
-0.24262
-0.241055
-0.239265
-0.237245
-0.234947
-0.232312
-0.229817
-0.227128
-0.224225
-0.221124
-0.217846
-0.214406
-0.210808
-0.207055
-0.203153
-0.199108
-0.194925
-0.190611
-0.186172
-0.181617
-0.176954
-0.172192
-0.167341
-0.162412
-0.157416
-0.152366
-0.147273
-0.142151
-0.137013
-0.131872
-0.126741
-0.121633
-0.116561
-0.111538
-0.106574
-0.101682
-0.0968713
-0.0921517
-0.0875319
-0.0830194
-0.0786211
-0.0743427
-0.0701889
-0.0661636
-0.0622697
-0.0585092
-0.0548833
-0.0513926
-0.0480367
-0.0448149
-0.0417256
-0.0387671
-0.035937
-0.0332327
-0.0306511
-0.0281893
-0.0258438
-0.0236112
-0.0214879
-0.0194704
-0.0175552
-0.0157382
-0.0140171
-0.0123861
-0.010846
-0.00938595
-0.00801502
-0.00670975
-0.00549808
-0.00432814
-0.00326823
-0.00220868
-0.00129656
-0.000325153
-0.240616
-0.239262
-0.237658
-0.235814
-0.233735
-0.231425
-0.228702
-0.226118
-0.223359
-0.220374
-0.217194
-0.213842
-0.210328
-0.206654
-0.202826
-0.198851
-0.194736
-0.190487
-0.18611
-0.181614
-0.177009
-0.172302
-0.167504
-0.162626
-0.15768
-0.152677
-0.14763
-0.142551
-0.137454
-0.132351
-0.127257
-0.122183
-0.117142
-0.112148
-0.10721
-0.102341
-0.0975507
-0.0928488
-0.0882437
-0.0837434
-0.0793544
-0.0750826
-0.0709328
-0.066909
-0.0630142
-0.0592505
-0.0556192
-0.052121
-0.0487557
-0.0455226
-0.0424204
-0.0394474
-0.0366013
-0.0338797
-0.0312795
-0.0287981
-0.0264317
-0.0241774
-0.0220313
-0.0199902
-0.0180504
-0.0162081
-0.0144605
-0.0128025
-0.0112337
-0.00974508
-0.00834235
-0.00700707
-0.00575857
-0.00455822
-0.00345256
-0.0023647
-0.00139003
-0.000393499
-0.23816
-0.237042
-0.235645
-0.233987
-0.232063
-0.229854
-0.227411
-0.22484
-0.222198
-0.219354
-0.216299
-0.213057
-0.209645
-0.206066
-0.202327
-0.198436
-0.1944
-0.190227
-0.185924
-0.181498
-0.17696
-0.172318
-0.167583
-0.162766
-0.157877
-0.15293
-0.147935
-0.142907
-0.137858
-0.132802
-0.12775
-0.122716
-0.117712
-0.112751
-0.107844
-0.103003
-0.0982373
-0.0935566
-0.0889697
-0.0844843
-0.0801071
-0.0758442
-0.0717004
-0.0676797
-0.0637852
-0.0600193
-0.0563834
-0.0528783
-0.0495038
-0.0462596
-0.0431443
-0.0401566
-0.0372941
-0.0345546
-0.0319352
-0.0294332
-0.0270451
-0.0247679
-0.022598
-0.020532
-0.0185663
-0.0166972
-0.0149217
-0.0132352
-0.011636
-0.0101171
-0.00868064
-0.00731352
-0.00602632
-0.00479329
-0.00364061
-0.00252083
-0.00148432
-0.000456011
-0.235389
-0.234562
-0.233419
-0.23199
-0.230294
-0.228331
-0.226039
-0.223368
-0.220866
-0.218173
-0.215255
-0.212135
-0.208836
-0.205363
-0.201725
-0.19793
-0.193987
-0.189902
-0.185684
-0.181341
-0.176881
-0.172315
-0.167653
-0.162906
-0.158084
-0.153201
-0.148268
-0.143298
-0.138303
-0.133298
-0.128294
-0.123304
-0.118341
-0.113417
-0.108544
-0.103732
-0.0989917
-0.0943331
-0.0897646
-0.085294
-0.0809282
-0.0766732
-0.0725341
-0.0685151
-0.0646193
-0.0608494
-0.0572068
-0.0536925
-0.0503066
-0.0470489
-0.0439182
-0.0409132
-0.0380318
-0.0352719
-0.0326308
-0.0301058
-0.0276935
-0.0253911
-0.0231948
-0.0211017
-0.0191076
-0.0172097
-0.0154038
-0.0136866
-0.0120547
-0.0105033
-0.00903102
-0.00762991
-0.00630204
-0.00503388
-0.00383301
-0.00267779
-0.0015805
-0.000514005
-0.231127
-0.230287
-0.229137
-0.227704
-0.225993
-0.224046
-0.221824
-0.219079
-0.216513
-0.213789
-0.210847
-0.207708
-0.20438
-0.200873
-0.197199
-0.19337
-0.189393
-0.185276
-0.181029
-0.176661
-0.172182
-0.167602
-0.162933
-0.158186
-0.153373
-0.148507
-0.143599
-0.138664
-0.133713
-0.128761
-0.123818
-0.118899
-0.114015
-0.109177
-0.104397
-0.0996851
-0.0950509
-0.0905031
-0.0860496
-0.0816973
-0.0774525
-0.0733203
-0.0693051
-0.0654102
-0.0616383
-0.0579912
-0.0544699
-0.0510748
-0.0478057
-0.0446617
-0.0416415
-0.0387433
-0.035965
-0.033304
-0.0307579
-0.0283232
-0.0259972
-0.0237762
-0.0216574
-0.0196364
-0.0177108
-0.0158758
-0.0141289
-0.0124652
-0.0108823
-0.00937487
-0.00794015
-0.00657252
-0.0052689
-0.00402149
-0.002829
-0.00167503
-0.000566093
-0.226432
-0.2259
-0.225034
-0.223875
-0.222438
-0.220727
-0.218717
-0.216453
-0.213905
-0.211179
-0.208323
-0.205302
-0.202095
-0.198709
-0.195156
-0.191446
-0.187586
-0.183584
-0.179451
-0.175195
-0.170826
-0.166356
-0.161795
-0.157155
-0.152448
-0.147687
-0.142883
-0.138049
-0.133198
-0.128343
-0.123496
-0.11867
-0.113875
-0.109124
-0.104427
-0.0997936
-0.095234
-0.0907564
-0.0863685
-0.0820771
-0.0778882
-0.073807
-0.0698377
-0.0659838
-0.0622479
-0.0586318
-0.0551368
-0.0517632
-0.048511
-0.0453794
-0.0423674
-0.0394734
-0.0366953
-0.0340308
-0.0314775
-0.0290323
-0.0266926
-0.0244546
-0.0223159
-0.020272
-0.0183208
-0.0164571
-0.0146792
-0.0129809
-0.0113616
-0.00981308
-0.00833684
-0.0069205
-0.00557002
-0.00426472
-0.00301942
-0.00179552
-0.000623793
-0.217825
-0.217655
-0.217101
-0.216224
-0.215045
-0.21356
-0.211786
-0.209763
-0.207624
-0.205393
-0.202922
-0.200193
-0.197246
-0.19411
-0.190799
-0.187323
-0.183689
-0.179909
-0.175991
-0.171947
-0.167787
-0.163523
-0.159165
-0.154725
-0.150215
-0.145648
-0.141034
-0.136388
-0.13172
-0.127044
-0.122371
-0.117713
-0.113081
-0.108486
-0.103938
-0.099447
-0.0950222
-0.0906715
-0.0864025
-0.0822218
-0.0781353
-0.074148
-0.0702642
-0.0664874
-0.0628203
-0.059265
-0.0558227
-0.0524943
-0.0492799
-0.0461789
-0.0431907
-0.0403139
-0.0375468
-0.0348874
-0.0323335
-0.0298823
-0.0275316
-0.0252776
-0.0231184
-0.0210493
-0.0190689
-0.0171713
-0.015356
-0.0136154
-0.011951
-0.0103513
-0.00882224
-0.00734539
-0.00593437
-0.00455801
-0.00324419
-0.00193671
-0.000686929
-0.209424
-0.209636
-0.20943
-0.208892
-0.208065
-0.206965
-0.205615
-0.204035
-0.202218
-0.200111
-0.19777
-0.195241
-0.192523
-0.189615
-0.186527
-0.183269
-0.17985
-0.176282
-0.172575
-0.168738
-0.164783
-0.16072
-0.156562
-0.152319
-0.148004
-0.143628
-0.139202
-0.13474
-0.130253
-0.125752
-0.121249
-0.116756
-0.112283
-0.107841
-0.103439
-0.0990876
-0.0947943
-0.0905676
-0.0864146
-0.082342
-0.0783554
-0.0744598
-0.0706597
-0.0669584
-0.0633589
-0.0598633
-0.0564732
-0.0531894
-0.0500124
-0.046942
-0.0439777
-0.0411183
-0.0383627
-0.0357087
-0.0331549
-0.0306984
-0.0283374
-0.0260682
-0.0238892
-0.0217958
-0.019787
-0.0178563
-0.0160046
-0.0142225
-0.0125137
-0.0108643
-0.0092832
-0.00774788
-0.00627721
-0.00483313
-0.00345224
-0.00206701
-0.000742209
-0.201336
-0.201898
-0.20202
-0.201799
-0.201285
-0.200495
-0.199426
-0.198073
-0.196448
-0.194592
-0.192537
-0.19027
-0.187795
-0.18512
-0.182258
-0.179221
-0.17602
-0.172666
-0.169169
-0.16554
-0.161789
-0.157929
-0.15397
-0.149923
-0.145801
-0.141614
-0.137375
-0.133094
-0.128785
-0.124457
-0.120122
-0.115791
-0.111474
-0.107181
-0.102923
-0.0987072
-0.0945429
-0.0904376
-0.0863983
-0.0824315
-0.0785429
-0.0747375
-0.0710195
-0.0673925
-0.0638595
-0.0604229
-0.0570842
-0.0538447
-0.050705
-0.0476651
-0.0447248
-0.0418832
-0.0391393
-0.0364914
-0.0339382
-0.031477
-0.0291064
-0.0268227
-0.0246249
-0.0225079
-0.0204715
-0.018509
-0.0166216
-0.0147995
-0.0130474
-0.0113499
-0.00971802
-0.00812662
-0.00659798
-0.00508973
-0.00364413
-0.00218642
-0.000789853
-0.19356
-0.194438
-0.194865
-0.194934
-0.194698
-0.19417
-0.193351
-0.192249
-0.190886
-0.189291
-0.187476
-0.185439
-0.183186
-0.18073
-0.178084
-0.175259
-0.172268
-0.169121
-0.165829
-0.162401
-0.15885
-0.155186
-0.15142
-0.147564
-0.143629
-0.139626
-0.135567
-0.131463
-0.127325
-0.123164
-0.118992
-0.114817
-0.110652
-0.106504
-0.102384
-0.0983007
-0.0942612
-0.0902735
-0.0863446
-0.0824807
-0.0786874
-0.0749697
-0.0713318
-0.0677775
-0.0643098
-0.060931
-0.0576432
-0.0544475
-0.0513449
-0.0483356
-0.0454196
-0.0425961
-0.0398647
-0.0372237
-0.034672
-0.0322072
-0.0298281
-0.0275313
-0.0253159
-0.0231769
-0.0211146
-0.0191217
-0.0172004
-0.0153402
-0.0135467
-0.0118036
-0.0101232
-0.00847871
-0.00689484
-0.00532642
-0.00381948
-0.00229466
-0.000830884
-0.186133
-0.187299
-0.188009
-0.188348
-0.188369
-0.188091
-0.18752
-0.186668
-0.185553
-0.184193
-0.182597
-0.180773
-0.178733
-0.176487
-0.174048
-0.171429
-0.16864
-0.165691
-0.162595
-0.159361
-0.156
-0.152524
-0.148944
-0.14527
-0.141515
-0.137688
-0.133802
-0.129866
-0.125893
-0.121892
-0.117875
-0.113851
-0.10983
-0.105821
-0.101834
-0.0978764
-0.0939565
-0.0900818
-0.0862588
-0.0824937
-0.0787922
-0.075159
-0.0715986
-0.0681145
-0.0647101
-0.0613877
-0.0581495
-0.0549967
-0.0519307
-0.0489516
-0.0460599
-0.0432549
-0.0405364
-0.0379029
-0.0353536
-0.0328862
-0.0304999
-0.0281913
-0.0259598
-0.0238004
-0.0217137
-0.0196925
-0.0177393
-0.0158432
-0.0140106
-0.0122245
-0.0104983
-0.00880408
-0.00716821
-0.00554378
-0.00397943
-0.00239287
-0.000867009
-0.179086
-0.180509
-0.181479
-0.18207
-0.182333
-0.182291
-0.181955
-0.181336
-0.180446
-0.1793
-0.177912
-0.176294
-0.174457
-0.172413
-0.170173
-0.167749
-0.165152
-0.162393
-0.159484
-0.156434
-0.153256
-0.149959
-0.146556
-0.143056
-0.139471
-0.135812
-0.13209
-0.128315
-0.124498
-0.12065
-0.11678
-0.112899
-0.109015
-0.105138
-0.101277
-0.09744
-0.0936341
-0.089867
-0.0861451
-0.0824745
-0.0788607
-0.0753086
-0.0718225
-0.0684061
-0.0650627
-0.0617948
-0.0586046
-0.0554937
-0.0524634
-0.0495141
-0.0466465
-0.04386
-0.0411547
-0.0385293
-0.0359832
-0.0335142
-0.0311218
-0.0288026
-0.0265565
-0.0243784
-0.0222692
-0.0202216
-0.0182385
-0.0163089
-0.0144397
-0.0126133
-0.0108442
-0.00910366
-0.00741926
-0.00574293
-0.00412533
-0.00248213
-0.000899306
-0.172424
-0.174077
-0.175284
-0.176106
-0.176595
-0.176774
-0.176655
-0.176248
-0.175566
-0.174623
-0.173433
-0.172012
-0.170369
-0.168516
-0.166464
-0.164226
-0.161812
-0.159234
-0.156502
-0.153628
-0.150622
-0.147496
-0.14426
-0.140926
-0.137503
-0.134003
-0.130437
-0.126814
-0.123146
-0.119442
-0.115712
-0.111965
-0.108212
-0.10446
-0.100719
-0.0969957
-0.0932981
-0.0896332
-0.0860075
-0.0824269
-0.0788968
-0.075422
-0.072007
-0.0686554
-0.0653706
-0.0621551
-0.0590114
-0.055941
-0.0529454
-0.0500253
-0.0471814
-0.0444134
-0.0417215
-0.0391045
-0.0365622
-0.0340925
-0.0316951
-0.0293666
-0.0271072
-0.024912
-0.022782
-0.02071
-0.0186992
-0.0167385
-0.0148351
-0.0129714
-0.0111623
-0.00937878
-0.00764936
-0.00592512
-0.00425844
-0.00256335
-0.000928464
-0.166145
-0.168002
-0.169421
-0.170457
-0.171153
-0.171535
-0.171617
-0.171408
-0.17092
-0.170168
-0.169168
-0.167931
-0.166471
-0.164799
-0.162926
-0.160863
-0.158622
-0.156215
-0.153652
-0.150944
-0.148102
-0.145138
-0.142061
-0.138883
-0.135614
-0.132264
-0.128845
-0.125366
-0.121838
-0.11827
-0.114673
-0.111054
-0.107424
-0.103791
-0.100163
-0.0965473
-0.0929522
-0.0893843
-0.0858498
-0.0823546
-0.078904
-0.075503
-0.0721557
-0.068866
-0.0656373
-0.0624721
-0.059373
-0.0563417
-0.0533798
-0.050488
-0.0476673
-0.0449176
-0.0422392
-0.039631
-0.0370931
-0.0346234
-0.0322219
-0.0298853
-0.0276141
-0.0254033
-0.0232542
-0.0211597
-0.0191233
-0.0171337
-0.0151987
-0.0133004
-0.0114543
-0.00963098
-0.00785999
-0.00609164
-0.00437988
-0.00263733
-0.000954969
-0.160242
-0.16228
-0.163889
-0.165117
-0.166004
-0.166574
-0.166841
-0.166815
-0.166509
-0.165937
-0.165113
-0.164052
-0.162764
-0.161262
-0.159556
-0.157659
-0.155583
-0.153337
-0.150933
-0.148383
-0.145696
-0.142884
-0.139958
-0.136928
-0.133804
-0.130597
-0.127317
-0.123974
-0.120578
-0.117139
-0.113666
-0.110168
-0.106654
-0.103133
-0.0996115
-0.0960983
-0.0926001
-0.0891239
-0.0856757
-0.0822615
-0.0788864
-0.0755553
-0.0722725
-0.0690418
-0.0658665
-0.0627495
-0.0596931
-0.0566994
-0.0537699
-0.0509057
-0.0481077
-0.0453759
-0.0427108
-0.0401117
-0.0375785
-0.0351095
-0.0327048
-0.0303613
-0.0280794
-0.0258544
-0.023688
-0.0215729
-0.0195128
-0.0174966
-0.0155324
-0.0136021
-0.0117218
-0.00986187
-0.00805261
-0.00624375
-0.0044907
-0.00270474
-0.000979157
-0.154706
-0.156903
-0.158683
-0.160085
-0.161146
-0.161888
-0.162325
-0.162469
-0.162331
-0.161927
-0.161269
-0.160371
-0.159245
-0.157903
-0.156356
-0.154616
-0.152693
-0.1506
-0.148347
-0.145945
-0.143405
-0.140737
-0.137953
-0.135062
-0.132075
-0.129002
-0.125853
-0.122638
-0.119367
-0.11605
-0.112694
-0.10931
-0.105906
-0.102489
-0.0990688
-0.0956518
-0.0922451
-0.0888554
-0.0854888
-0.0821511
-0.0788475
-0.0755827
-0.0723611
-0.0691863
-0.066062
-0.0629908
-0.0599754
-0.0570176
-0.0541194
-0.0512817
-0.0485056
-0.0457914
-0.0431396
-0.0405495
-0.0380215
-0.0355537
-0.0331465
-0.030797
-0.0285056
-0.026268
-0.0240857
-0.0219516
-0.0198699
-0.0178292
-0.0158381
-0.0138784
-0.0119667
-0.010073
-0.00822862
-0.00638261
-0.0045918
-0.00276619
-0.00100126
-0.149528
-0.151866
-0.153797
-0.155355
-0.156573
-0.157473
-0.158066
-0.158367
-0.158386
-0.158137
-0.157634
-0.156889
-0.155914
-0.154722
-0.153324
-0.151731
-0.149953
-0.148004
-0.145893
-0.14363
-0.141228
-0.138696
-0.136045
-0.133286
-0.130427
-0.127481
-0.124455
-0.121361
-0.118207
-0.115004
-0.111759
-0.108481
-0.10518
-0.101863
-0.0985373
-0.0952108
-0.0918902
-0.0885821
-0.0852925
-0.082027
-0.0787908
-0.0755887
-0.0724249
-0.0693032
-0.0662272
-0.0631996
-0.0602231
-0.0572998
-0.0544314
-0.0516192
-0.0488643
-0.0461672
-0.0435284
-0.0409475
-0.0384248
-0.0359588
-0.0335498
-0.0311951
-0.0288954
-0.0266463
-0.0244496
-0.0222983
-0.0201967
-0.0181336
-0.0161178
-0.014131
-0.0121905
-0.0102659
-0.00838929
-0.00650928
-0.00468399
-0.0028222
-0.00102144
-0.1447
-0.147161
-0.149225
-0.150923
-0.152283
-0.153325
-0.154063
-0.154507
-0.154671
-0.154566
-0.154206
-0.153604
-0.152771
-0.151719
-0.150459
-0.149004
-0.147363
-0.145548
-0.14357
-0.141439
-0.139166
-0.136762
-0.134236
-0.1316
-0.128862
-0.126034
-0.123125
-0.120143
-0.1171
-0.114003
-0.110862
-0.107685
-0.10448
-0.101256
-0.0980196
-0.0947781
-0.0915384
-0.0883069
-0.0850897
-0.0818921
-0.0787195
-0.0755765
-0.0724673
-0.0693958
-0.0663655
-0.0633792
-0.0604397
-0.057549
-0.0547092
-0.0519214
-0.0491869
-0.0465063
-0.0438802
-0.0413084
-0.0387912
-0.0363273
-0.0339171
-0.0315581
-0.029251
-0.0269916
-0.0247819
-0.022615
-0.0204953
-0.0184116
-0.0163732
-0.0143617
-0.0123947
-0.0104418
-0.00853579
-0.00662473
-0.00476798
-0.0028732
-0.00103986
-0.140211
-0.142779
-0.14496
-0.146782
-0.14827
-0.149442
-0.15031
-0.150886
-0.151183
-0.151211
-0.150984
-0.150514
-0.149812
-0.148891
-0.147762
-0.146435
-0.144921
-0.143232
-0.141378
-0.13937
-0.137219
-0.134934
-0.132526
-0.130005
-0.127381
-0.124663
-0.121862
-0.118987
-0.116046
-0.11305
-0.110006
-0.106923
-0.103809
-0.100671
-0.097518
-0.0943562
-0.0911923
-0.0880327
-0.0848833
-0.0817496
-0.0786367
-0.0755492
-0.0724914
-0.0694671
-0.0664799
-0.0635327
-0.0606282
-0.0577685
-0.0549558
-0.0521912
-0.0494763
-0.0468115
-0.0441979
-0.0416349
-0.0391234
-0.0366618
-0.034251
-0.0318883
-0.0295748
-0.0273062
-0.0250848
-0.0229036
-0.0207674
-0.0186651
-0.016606
-0.0145719
-0.0125808
-0.010602
-0.00866918
-0.0067298
-0.00484441
-0.0029196
-0.00105662
-0.136052
-0.138712
-0.140996
-0.142928
-0.14453
-0.145818
-0.146805
-0.147502
-0.14792
-0.14807
-0.147965
-0.147618
-0.147038
-0.146239
-0.14523
-0.144022
-0.142628
-0.141056
-0.139318
-0.137425
-0.135386
-0.133213
-0.130915
-0.128501
-0.125983
-0.123369
-0.120669
-0.117892
-0.115048
-0.112145
-0.109192
-0.106196
-0.103166
-0.10011
-0.097035
-0.0939476
-0.0908545
-0.0877621
-0.0846762
-0.0816021
-0.0785451
-0.0755096
-0.0725
-0.0695202
-0.0665735
-0.063663
-0.0607914
-0.0579611
-0.0551739
-0.0524315
-0.0497352
-0.0470856
-0.0444838
-0.0419296
-0.0394237
-0.0369648
-0.0345537
-0.0321881
-0.0298689
-0.0275921
-0.0253602
-0.0231661
-0.021015
-0.0188957
-0.0168178
-0.0147631
-0.01275
-0.0107477
-0.00879042
-0.00682526
-0.00491384
-0.00296174
-0.00107186
-0.132212
-0.134951
-0.137324
-0.139353
-0.141057
-0.14245
-0.143545
-0.144351
-0.144879
-0.145141
-0.145149
-0.144914
-0.144448
-0.14376
-0.142863
-0.141766
-0.140482
-0.139019
-0.137389
-0.135603
-0.133669
-0.131599
-0.129403
-0.12709
-0.124669
-0.122152
-0.119546
-0.116861
-0.114106
-0.11129
-0.108421
-0.105507
-0.102556
-0.0995754
-0.0965726
-0.0935544
-0.0905273
-0.0874975
-0.0844707
-0.0814523
-0.0784473
-0.0754605
-0.0724959
-0.0695575
-0.0666488
-0.0637727
-0.0609322
-0.0581293
-0.0553664
-0.0526447
-0.0499661
-0.047331
-0.0447406
-0.0421948
-0.0396945
-0.0372384
-0.0348275
-0.0324593
-0.0301353
-0.0278513
-0.0256099
-0.0234043
-0.0212396
-0.0191049
-0.01701
-0.0149366
-0.0129035
-0.0108798
-0.00890036
-0.00691182
-0.00497677
-0.00299993
-0.00108567
-0.128681
-0.131487
-0.133938
-0.136052
-0.137846
-0.139333
-0.140524
-0.141429
-0.142058
-0.142423
-0.142534
-0.142402
-0.142038
-0.141454
-0.14066
-0.139666
-0.138483
-0.137121
-0.135591
-0.133903
-0.132067
-0.130093
-0.127991
-0.12577
-0.123441
-0.121013
-0.118494
-0.115895
-0.113223
-0.110487
-0.107696
-0.104857
-0.101979
-0.0990684
-0.0961328
-0.0931787
-0.0902128
-0.087241
-0.0842691
-0.0813024
-0.0783459
-0.0754042
-0.0724815
-0.0695818
-0.0667084
-0.0638644
-0.0610528
-0.0582757
-0.0555354
-0.0528334
-0.0501713
-0.0475499
-0.0449705
-0.0424328
-0.0399379
-0.0374847
-0.0350742
-0.0327041
-0.0303759
-0.0280855
-0.0258356
-0.0236196
-0.0214428
-0.0192942
-0.0171838
-0.0150935
-0.0130424
-0.0109994
-0.0089998
-0.0069901
-0.00503368
-0.00303445
-0.00109815
-0.125449
-0.128312
-0.13083
-0.133019
-0.134892
-0.136463
-0.13774
-0.138734
-0.139454
-0.139911
-0.140116
-0.140078
-0.139809
-0.13932
-0.13862
-0.13772
-0.13663
-0.135361
-0.133923
-0.132326
-0.130579
-0.128694
-0.126679
-0.124544
-0.122299
-0.119953
-0.117514
-0.114993
-0.112398
-0.109736
-0.107017
-0.104248
-0.101437
-0.0985909
-0.0957172