/*--------------------------------*- C++ -*----------------------------------*\
  =========                 |
  \\      /  F ield         | OpenFOAM: The Open Source CFD Toolbox
   \\    /   O peration     | Website:  https://openfoam.org
    \\  /    A nd           | Version:  7
     \\/     M anipulation  |
\*---------------------------------------------------------------------------*/
FoamFile
{
    version     2.0;
    format      ascii;
    class       surfaceScalarField;
    location    "45";
    object      phi;
}
// * * * * * * * * * * * * * * * * * * * * * * * * * * * * * * * * * * * * * //

dimensions      [0 3 -1 0 0 0 0];

internalField   nonuniform List<scalar> 
7273
(
-0.00123738
2.58438e-05
-0.00125928
2.19093e-05
-0.0012775
1.83443e-05
-0.00129233
1.50738e-05
-0.00130399
1.2028e-05
-0.0013126
9.14224e-06
-0.00131831
6.38737e-06
-0.00132123
3.75354e-06
-0.0013215
1.20851e-06
-0.00131932
-1.16262e-06
-0.00131476
-3.43608e-06
-0.00130782
-5.74069e-06
-0.00129852
-8.05841e-06
-0.00128687
-1.03918e-05
-0.0012729
-1.27497e-05
-0.00125664
-1.51097e-05
-0.00123811
-1.75091e-05
-0.0012173
-1.99373e-05
-0.00119425
-2.23959e-05
-0.00116896
-2.48796e-05
-0.00114144
-2.73813e-05
-0.00111173
-2.98915e-05
-0.00107984
-3.23992e-05
-0.00104581
-3.48911e-05
-0.00100967
-3.73518e-05
-0.000971455
-3.97689e-05
-0.000931239
-4.21023e-05
-0.000889075
-4.43538e-05
-0.000845029
-4.65051e-05
-0.000799172
-4.85399e-05
-0.000751582
-5.04432e-05
-0.000702345
-5.22008e-05
-0.000651545
-5.38087e-05
-0.0005993
-5.52324e-05
-0.000545709
-5.64844e-05
-0.000490881
-5.75585e-05
-0.000434926
-5.84523e-05
-0.000377953
-5.91726e-05
-0.000320088
-5.97094e-05
-0.000261449
-6.00781e-05
-0.000202151
-6.02872e-05
-0.000142308
-6.03497e-05
-8.20398e-05
-6.02705e-05
-2.14568e-05
-6.00699e-05
3.93307e-05
-5.97598e-05
0.000100218
-5.93563e-05
0.000161104
-5.88748e-05
0.000221892
-5.83305e-05
0.000282493
-5.77383e-05
0.000342822
-5.71124e-05
0.0004028
-5.64658e-05
0.000462355
-5.58104e-05
0.00052142
-5.51569e-05
0.000579936
-5.45141e-05
0.00063785
-5.38896e-05
0.000695113
-5.32894e-05
0.000751686
-5.27177e-05
0.000807534
-5.21773e-05
0.000862628
-5.16698e-05
0.000916944
-5.11953e-05
0.000970466
-5.07528e-05
0.00102318
-5.03401e-05
0.00107508
-4.9955e-05
0.00112617
-4.95928e-05
0.00117644
-4.92518e-05
0.0012259
-4.8924e-05
0.00127458
-4.86121e-05
0.00132248
-4.82996e-05
0.00136963
-4.80027e-05
0.00141605
-4.76882e-05
0.00146179
-4.73947e-05
0.00150687
-4.70748e-05
0.00155134
-4.67465e-05
0.00159535
-4.65228e-05
0.00163866
-4.59221e-05
0.00168225
-4.63456e-05
-4.48067e-05
-0.00118111
5.05724e-05
-0.00120191
4.27006e-05
-0.00121911
3.55482e-05
-0.00123299
2.89512e-05
-0.00124373
2.27755e-05
-0.00125149
1.68961e-05
-0.00125636
1.12619e-05
-0.0012585
5.88713e-06
-0.00125796
6.69491e-07
-0.00125509
-4.02728e-06
-0.00124983
-8.70342e-06
-0.00124219
-1.33749e-05
-0.00123222
-1.80332e-05
-0.00121992
-2.2685e-05
-0.00120532
-2.73485e-05
-0.00118847
-3.19687e-05
-0.00116935
-3.66232e-05
-0.001148
-4.12907e-05
-0.00112442
-4.59742e-05
-0.00109863
-5.06664e-05
-0.00107066
-5.53574e-05
-0.00104051
-6.00342e-05
-0.00100823
-6.46818e-05
-0.00097384
-6.92824e-05
-0.000937378
-7.38142e-05
-0.000898881
-7.82653e-05
-0.000858424
-8.25598e-05
-0.000816062
-8.67153e-05
-0.000771862
-9.07053e-05
-0.000725896
-9.45061e-05
-0.000678243
-9.80962e-05
-0.00062899
-0.000101454
-0.000578217
-0.000104581
-0.000526046
-0.000107404
-0.000472575
-0.000109955
-0.000417912
-0.000112222
-0.000362167
-0.000114197
-0.000305445
-0.000115894
-0.000247873
-0.000117281
-0.000189566
-0.000118385
-0.000130639
-0.000119214
-7.12003e-05
-0.000119788
-1.13697e-05
-0.000120101
4.87407e-05
-0.00012018
0.000109028
-0.000120047
0.000169388
-0.000119717
0.000229723
-0.000119209
0.000289938
-0.000118546
0.000349945
-0.000117746
0.000409662
-0.000116829
0.000469012
-0.000115815
0.000527923
-0.000114722
0.000586332
-0.000113566
0.000644181
-0.000112363
0.000701417
-0.000111125
0.000757994
-0.000109867
0.000813873
-0.000108597
0.00086902
-0.000107325
0.000923408
-0.000106057
0.000977013
-0.0001048
0.00102982
-0.000103559
0.00108182
-0.000102336
0.00113299
-0.000101135
0.00118336
-9.99543e-05
0.0012329
-9.88003e-05
0.00128165
-9.76654e-05
0.0013296
-9.6564e-05
0.00137677
-9.54735e-05
0.0014232
-9.44327e-05
0.0014689
-9.33872e-05
0.00151392
-9.24169e-05
0.0015583
-9.1447e-05
0.00160205
-9.05037e-05
0.00164537
-8.9843e-05
0.00168797
-8.8519e-05
0.00173083
-8.92062e-05
-8.6446e-05
-0.00106948
7.30285e-05
-0.00108817
6.1386e-05
-0.00110342
5.08009e-05
-0.00111547
4.10032e-05
-0.0011245
3.18007e-05
-0.00113061
2.30101e-05
-0.00113391
1.45612e-05
-0.0011345
6.47362e-06
-0.00113257
-1.25646e-06
-0.00112833
-8.27116e-06
-0.00112172
-1.53135e-05
-0.00111278
-2.23117e-05
-0.00110155
-2.92686e-05
-0.00108804
-3.61954e-05
-0.00107225
-4.31293e-05
-0.00105426
-4.99586e-05
-0.00103407
-5.682e-05
-0.00101168
-6.36768e-05
-0.000987123
-7.05327e-05
-0.000960412
-7.7378e-05
-0.000931569
-8.41997e-05
-0.000900623
-9.0981e-05
-0.000867602
-9.77027e-05
-0.000832541
-0.000104343
-0.000795483
-0.000110873
-0.000756457
-0.000117291
-0.000715549
-0.000123468
-0.000672818
-0.000129447
-0.000628329
-0.000135194
-0.000582157
-0.000140677
-0.000534385
-0.000145868
-0.000485101
-0.000150738
-0.000434378
-0.000155304
-0.000382344
-0.000159438
-0.000329097
-0.000163202
-0.000274744
-0.000166575
-0.000219394
-0.000169547
-0.000163147
-0.000172142
-0.000106129
-0.000174299
-4.84521e-05
-0.000176062
9.77613e-06
-0.000177443
6.84222e-05
-0.000178434
0.0001274
-0.000179079
0.0001866
-0.00017938
0.000245915
-0.000179362
0.000305247
-0.000179048
0.0003645
-0.000178463
0.000423585
-0.000177631
0.000482418
-0.000176579
0.000540921
-0.000175331
0.000599019
-0.000173914
0.000656646
-0.00017235
0.000713742
-0.000170662
0.000770252
-0.000168872
0.000826126
-0.000167
0.000881323
-0.000165063
0.000935805
-0.000163079
0.000989541
-0.000161061
0.00104251
-0.000159023
0.00109468
-0.000156975
0.00114605
-0.000154929
0.00119661
-0.000152892
0.00124634
-0.000150872
0.00129526
-0.000148874
0.00134337
-0.000146908
0.00139068
-0.000144971
0.0014372
-0.000143085
0.00148295
-0.000141225
0.00152796
-0.000139447
0.00157226
-0.000137685
0.00161588
-0.000136041
0.00165889
-0.000134449
0.00170126
-0.000132881
0.00174325
-0.000131825
0.0017845
-0.000129772
0.00182595
-0.00013066
-0.000126891
-0.00090414
9.2287e-05
-0.000919895
7.71415e-05
-0.00093244
6.33453e-05
-0.000941966
5.05298e-05
-0.000948614
3.84482e-05
-0.00095246
2.68568e-05
-0.000953575
1.56752e-05
-0.000952071
4.97047e-06
-0.000948303
-5.02482e-06
-0.000942146
-1.44279e-05
-0.000933694
-2.37654e-05
-0.00092298
-3.30258e-05
-0.00091003
-4.22189e-05
-0.000894869
-5.13562e-05
-0.000877483
-6.05155e-05
-0.000857961
-6.94809e-05
-0.000836299
-7.84812e-05
-0.000812519
-8.74572e-05
-0.00078664
-9.64118e-05
-0.000758685
-0.000105333
-0.000728682
-0.000114203
-0.00069666
-0.000123002
-0.000662657
-0.000131706
-0.000626711
-0.000140288
-0.00058887
-0.000148714
-0.000549155
-0.000157005
-0.000507666
-0.000164957
-0.000464465
-0.000172648
-0.00041962
-0.000180039
-0.000373209
-0.000187089
-0.000325317
-0.00019376
-0.000276037
-0.000200018
-0.000225428
-0.000205913
-0.000173629
-0.000211237
-0.000120738
-0.000216093
-6.68541e-05
-0.00022046
-1.20707e-05
-0.00022433
4.34336e-05
-0.000227647
9.96107e-05
-0.000230476
0.000156345
-0.000232797
0.000213522
-0.000234619
0.000271037
-0.00023595
0.00032878
-0.000236822
0.00038665
-0.00023725
0.00044455
-0.000237262
0.000502385
-0.000236883
0.000560066
-0.000236144
0.000617509
-0.000235074
0.000674636
-0.000233706
0.000731373
-0.000232069
0.000787653
-0.000230194
0.000843415
-0.000228112
0.000898603
-0.00022585
0.000953167
-0.000223436
0.00100706
-0.000220897
0.00106026
-0.000218255
0.00111271
-0.000215532
0.0011644
-0.00021275
0.0012153
-0.000209927
0.00126541
-0.000207078
0.0013147
-0.000204219
0.00136317
-0.000201363
0.00141082
-0.000198525
0.00145766
-0.000195711
0.00150369
-0.00019294
0.00154893
-0.000190208
0.00159339
-0.000187548
0.0016371
-0.000184933
0.00168008
-0.00018243
0.00172237
-0.000179976
0.001764
-0.000177667
0.00180504
-0.000175493
0.00184545
-0.000173292
0.00188552
-0.000171895
0.00192487
-0.000169121
0.00196433
-0.000170122
-0.000165612
-0.000687106
-0.000699386
8.94212e-05
-0.000708733
7.26923e-05
-0.000715292
5.70887e-05
-0.000719157
4.23132e-05
-0.000720373
2.80726e-05
-0.000719023
1.43256e-05
-0.000714989
9.35986e-07
-0.00070903
-1.09839e-05
-0.000700712
-2.2745e-05
-0.000690143
-3.43347e-05
-0.000677379
-4.57896e-05
-0.000662456
-5.71426e-05
-0.000645404
-6.84079e-05
-0.000626175
-7.97444e-05
-0.000604897
-9.07591e-05
-0.000581563
-0.000101815
-0.000556195
-0.000112826
-0.000528817
-0.00012379
-0.000499457
-0.000134692
-0.000468148
-0.000145512
-0.000434926
-0.000156225
-0.000399832
-0.0001668
-0.000362916
-0.000177204
-0.00032423
-0.0001874
-0.000283784
-0.000197452
-0.000241691
-0.00020705
-0.000198021
-0.000216318
-0.000152843
-0.000225217
-0.000106233
-0.000233698
-5.82712e-05
-0.000241722
-9.01216e-06
-0.000249277
4.12613e-05
-0.000256186
9.26226e-05
-0.000262598
0.000144952
-0.000268422
0.000198132
-0.00027364
0.000252049
-0.000278247
0.00030661
-0.000282207
0.000361694
-0.000285559
0.000417193
-0.000288296
0.000473006
-0.000290431
0.000529031
-0.000291975
0.000585166
-0.000292958
0.000641318
-0.000293402
0.000697394
-0.000293337
0.000753306
-0.000292795
0.000808973
-0.000291811
0.000864317
-0.000290418
0.000919267
-0.000288655
0.000973756
-0.000286558
0.00102772
-0.000284162
0.00108112
-0.000281504
0.00113388
-0.000278617
0.00118598
-0.000275535
0.00123738
-0.00027229
0.00128803
-0.00026891
0.00133792
-0.000265424
0.00138703
-0.000261856
0.00143533
-0.00025823
0.00148282
-0.000254569
0.00152949
-0.000250891
0.00157535
-0.000247215
0.00162038
-0.00024356
0.00166461
-0.000239936
0.00170803
-0.000236368
0.00175068
-0.000232855
0.00179257
-0.000229434
0.00183372
-0.000226086
0.00187416
-0.000222874
0.00191395
-0.000219761
0.00195308
-0.000216797
0.00199168
-0.000214093
0.00202965
-0.000211256
0.00206733
-0.000209574
0.00210432
-0.000206111
0.00214132
-0.000207125
-0.000202146
-0.000428954
9.80709e-05
-0.000434989
7.87276e-05
-0.000438489
6.05886e-05
-0.000439491
4.33158e-05
-0.000437972
2.65533e-05
-0.000433894
1.02471e-05
-0.000427843
-5.11465e-06
-0.000419464
-1.93624e-05
-0.000408891
-3.33187e-05
-0.000396163
-4.70628e-05
-0.000381323
-6.06298e-05
-0.00036441
-7.40548e-05
-0.000345446
-8.73724e-05
-0.000324376
-0.000100814
-0.000301334
-0.000113801
-0.000276328
-0.000126821
-0.000249379
-0.000139775
-0.000220517
-0.000152652
-0.000189774
-0.000165435
-0.000157188
-0.000178099
-0.000122798
-0.000190615
-8.66474e-05
-0.00020295
-4.87787e-05
-0.000215073
-9.1999e-06
-0.000226979
3.17521e-05
-0.000238404
7.4243e-05
-0.000249541
0.0001182
-0.000260275
0.000163529
-0.000270546
0.000210136
-0.000280305
0.000257925
-0.000289511
0.000306791
-0.000298144
0.000356679
-0.000306074
0.000407454
-0.000313373
0.000459015
-0.000319983
0.000511258
-0.000325883
0.000564079
-0.000331068
0.000617382
-0.00033551
0.000671058
-0.000339235
0.000725004
-0.000342242
0.00077912
-0.000344548
0.000833314
-0.000346168
0.000887489
-0.000347133
0.000941558
-0.000347471
0.000995435
-0.000347215
0.00104904
-0.000346402
0.0011023
-0.000345071
0.00115515
-0.000343264
0.00120752
-0.000341022
0.00125935
-0.000338388
0.00131059
-0.000335402
0.00136119
-0.000332106
0.00141111
-0.000328541
0.00146032
-0.000324745
0.00150879
-0.000320754
0.00155648
-0.000316604
0.00160338
-0.000312327
0.00164948
-0.000307953
0.00169476
-0.000303511
0.00173922
-0.000299028
0.00178286
-0.000294528
0.00182567
-0.000290032
0.00186768
-0.000285565
0.00190889
-0.000281142
0.00194931
-0.00027679
0.00198897
-0.000272515
0.00202789
-0.000268353
0.0020661
-0.0002643
0.00210362
-0.000260399
0.00214053
-0.000256668
0.0021768
-0.000253063
0.00221259
-0.000249886
0.00224775
-0.00024642
0.00228268
-0.000244499
0.00231697
-0.000240409
0.00235118
-0.000241329
-0.000236129
-0.000110432
0.00010348
-0.000113547
8.18429e-05
-0.000114367
6.14087e-05
-0.000112875
4.18232e-05
-0.000109014
2.26929e-05
-0.000102663
3.89606e-06
-9.45325e-05
-1.32455e-05
-8.41646e-05
-2.97302e-05
-7.16354e-05
-4.58479e-05
-5.70028e-05
-6.16954e-05
-4.03051e-05
-7.73275e-05
-2.15711e-05
-9.27889e-05
-7.01051e-07
-0.000108242
2.16869e-05
-0.000123202
4.614e-05
-0.000138254
7.2508e-05
-0.000153189
0.000100748
-0.000168015
0.000130816
-0.000182719
0.000162665
-0.000197284
0.000196248
-0.000211683
0.000231516
-0.000225882
0.000268412
-0.000239846
0.000306871
-0.000253532
0.000346815
-0.000266923
0.000388236
-0.000279824
0.000431019
-0.000292324
0.000475078
-0.000304335
0.000520333
-0.0003158
0.000566696
-0.000326668
0.000614072
-0.000336887
0.000662359
-0.000346431
0.000711485
-0.0003552
0.000761332
-0.000363221
0.000811799
-0.00037045
0.000862783
-0.000376868
0.000914181
-0.000382466
0.000965899
-0.000387229
0.00101783
-0.00039117
0.00106989
-0.000394298
0.00112197
-0.00039663
0.00117399
-0.000398188
0.00122586
-0.000399004
0.0012775
-0.000399111
0.00132884
-0.000398548
0.00137979
-0.000397356
0.0014303
-0.000395581
0.0014803
-0.000393267
0.00152975
-0.000390464
0.00157858
-0.000387217
0.00162675
-0.000383575
0.00167423
-0.000379585
0.00172098
-0.00037529
0.00176697
-0.000370737
0.00181218
-0.000365966
0.00185659
-0.000361016
0.00190019
-0.000355927
0.00194297
-0.000350732
0.00198492
-0.000345465
0.00202605
-0.000340156
0.00206636
-0.000334835
0.00210585
-0.000329527
0.00214455
-0.000324259
0.00218246
-0.000319054
0.0022196
-0.000313935
0.00225601
-0.000308923
0.0022917
-0.000304043
0.00232672
-0.00029932
0.00236108
-0.000294754
0.00239486
-0.000290453
0.00242803
-0.000286226
0.00246077
-0.000282633
0.00249292
-0.000278561
0.00252485
-0.000276433
0.00255624
-0.000271803
0.00258745
-0.000272534
-0.000267309
0.000254839
0.000106715
0.000253602
8.30808e-05
0.000254491
6.05197e-05
0.000257578
3.87355e-05
0.000262999
1.72722e-05
0.000270604
-3.70888e-06
0.000280103
-2.27445e-05
0.000291795
-4.1422e-05
0.000305597
-5.96503e-05
0.00032145
-7.75483e-05
0.000339308
-9.51852e-05
0.000359124
-0.000112605
0.000380837
-0.000129956
0.000404528
-0.000146893
0.000430076
-0.000163801
0.000457435
-0.000180549
0.000486569
-0.000197149
0.000517435
-0.000213585
0.000549983
-0.000229832
0.000584161
-0.00024586
0.00061991
-0.000261631
0.000657167
-0.000277104
0.000695864
-0.000292228
0.000735915
-0.000306975
0.000777287
-0.000321196
0.000819876
-0.000334913
0.000863594
-0.000348053
0.000908353
-0.000360559
0.000954059
-0.000372374
0.00100062
-0.000383445
0.00104792
-0.000393737
0.0010959
-0.000403173
0.00114443
-0.00041175
0.00119341
-0.000419435
0.00124275
-0.000426209
0.00129235
-0.000432064
0.00134211
-0.00043699
0.00139194
-0.000440998
0.00144175
-0.000444102
0.00149144
-0.000446324
0.00154094
-0.000447688
0.00159017
-0.000448231
0.00163905
-0.000447992
0.00168751
-0.000447014
0.0017355
-0.000445344
0.00178295
-0.000443032
0.00182981
-0.000440131
0.00187604
-0.000436692
0.00192159
-0.000432769
0.00196643
-0.000428414
0.00201053
-0.000423679
0.00205385
-0.000418616
0.00209639
-0.000413272
0.00213812
-0.000407694
0.00217903
-0.000401928
0.00221912
-0.000396013
0.00225838
-0.000389992
0.00229681
-0.000383899
0.00233442
-0.000377771
0.00237123
-0.000371638
0.00240724
-0.000365534
0.00244246
-0.000359484
0.00247693
-0.00035352
0.00251065
-0.000347661
0.00254367
-0.000341946
0.00257601
-0.000336376
0.00260771
-0.000331025
0.00263878
-0.000325822
0.00266933
-0.000321001
0.00269928
-0.000316181
0.00272888
-0.000312225
0.0027579
-0.000307588
0.00278674
-0.000305267
0.00281514
-0.000300206
0.00284327
-0.000300667
-0.000295556
0.000666725
0.00010989
0.000665485
8.43203e-05
0.000666371
5.96337e-05
0.00066949
3.5617e-05
0.000675065
1.16972e-05
0.000682517
-1.11615e-05
0.000692268
-3.2495e-05
0.000704181
-5.3335e-05
0.000718225
-7.36942e-05
0.000734339
-9.3663e-05
0.000752472
-0.000113318
0.000772572
-0.000132705
0.000794562
-0.000151946
0.0008185
-0.00017083
0.000844264
-0.000189566
0.000871812
-0.000208097
0.000901089
-0.000226426
0.00093204
-0.000244536
0.000964604
-0.000262396
0.000998717
-0.000279973
0.00103431
-0.000297226
0.00107131
-0.000314107
0.00110965
-0.000330562
0.00114922
-0.00034655
0.00118998
-0.000361956
0.00123183
-0.000376758
0.00127467
-0.00039089
0.0013184
-0.000404293
0.00136293
-0.000416909
0.00140817
-0.000428682
0.001454
-0.000439571
0.00150035
-0.000449516
0.00154709
-0.000458497
0.00159415
-0.000466487
0.0016414
-0.000473468
0.00168877
-0.000479434
0.00173617
-0.000484381
0.00178349
-0.000488321
0.00183066
-0.000491272
0.00187759
-0.000493259
0.00192422
-0.000494314
0.00197047
-0.000494477
0.00201627
-0.000493792
0.00206156
-0.000492308
0.0021063
-0.000490078
0.00215042
-0.000487156
0.00219389
-0.000483601
0.00223667
-0.00047947
0.00227872
-0.000474822
0.00232002
-0.000469714
0.00236054
-0.000464203
0.00240027
-0.000458345
0.0024392
-0.000452194
0.0024773
-0.000445799
0.00251458
-0.000439211
0.00255104
-0.000432474
0.00258668
-0.000425633
0.00262151
-0.000418727
0.00265554
-0.000411797
0.00268877
-0.000404875
0.00272124
-0.000398001
0.00275295
-0.000391197
0.00278394
-0.000384509
0.00281422
-0.000377943
0.00284384
-0.000371565
0.00287281
-0.000365342
0.0029012
-0.000359411
0.00292898
-0.000353609
0.0029563
-0.000348321
0.00298307
-0.000342945
0.00300951
-0.000338672
0.00303545
-0.000333528
0.0030612
-0.000331016
0.00308664
-0.00032564
0.00311175
-0.000325778
-0.000320867
0.00112498
0.000116239
0.00112094
8.83564e-05
0.00111933
6.12417e-05
0.00112022
3.47312e-05
0.00112374
8.17361e-06
0.0011295
-1.69152e-05
0.00113768
-4.06823e-05
0.00114825
-6.38964e-05
0.00116108
-8.65297e-05
0.0011761
-0.000108685
0.00119324
-0.000130453
0.00121242
-0.000151889
0.00123357
-0.000173091
0.00125667
-0.000193938
0.00128164
-0.000214535
0.00130841
-0.000234863
0.0013369
-0.000254919
0.00136705
-0.000274683
0.00139878
-0.000294123
0.00143201
-0.000313203
0.00146666
-0.000331876
0.00150265
-0.000350095
0.00153988
-0.000367798
0.00157827
-0.000384938
0.00161773
-0.000401418
0.00165817
-0.000417194
0.00169948
-0.000432201
0.00174156
-0.000446378
0.00178432
-0.000459666
0.00182765
-0.00047201
0.00187144
-0.000483367
0.00191561
-0.000493683
0.00196005
-0.000502935
0.00200466
-0.000511099
0.00204935
-0.00051816
0.00209403
-0.000524114
0.00213861
-0.000528962
0.00218301
-0.000532721
0.00222715
-0.000535411
0.00227096
-0.000537065
0.00231436
-0.000537719
0.0023573
-0.000537417
0.00239972
-0.000536211
0.00244157
-0.000534153
0.00248279
-0.000531304
0.00252336
-0.000527722
0.00256323
-0.000523471
0.00260237
-0.000518614
0.00264076
-0.000513214
0.00267838
-0.000507334
0.00271522
-0.000501037
0.00275125
-0.00049438
0.00278648
-0.000487423
0.0028209
-0.00048022
0.00285452
-0.000472824
0.00288732
-0.000465283
0.00291934
-0.000457647
0.00295057
-0.000449955
0.00298103
-0.000442256
0.00301073
-0.00043458
0.00303971
-0.000426975
0.00306797
-0.000419458
0.00309555
-0.000412092
0.00312247
-0.000404862
0.00314878
-0.000397873
0.00317448
-0.000391041
0.00319965
-0.000384584
0.00322427
-0.000378227
0.00324847
-0.000372527
0.00327217
-0.000366644
0.00329559
-0.000362093
0.00331858
-0.000356517
0.00334137
-0.000353807
0.00336396
-0.000348229
0.00338621
-0.000348019
-0.000343352
0.0016281
0.0016176
9.88514e-05
0.00161029
6.85549e-05
0.00160606
3.8962e-05
0.00160486
9.36959e-06
0.00160666
-1.87083e-05
0.0016112
-4.52297e-05
0.00161848
-7.11734e-05
0.00162832
-9.63727e-05
0.0016406
-0.000120963
0.0016552
-0.000145053
0.00167202
-0.000168714
0.00169097
-0.000192035
0.00171198
-0.000214951
0.00173496
-0.00023751
0.0017598
-0.00025971
0.00178643
-0.000281545
0.00181474
-0.000302996
0.00184465
-0.00032403
0.00187605
-0.000344607
0.00190886
-0.000364682
0.00194297
-0.000384201
0.00197827
-0.000403104
0.00201467
-0.000421337
0.00205207
-0.000438814
0.00209035
-0.00045548
0.00212942
-0.000471271
0.00216917
-0.000486125
0.00220949
-0.000499985
0.00225028
-0.000512795
0.00229142
-0.000524513
0.00233283
-0.000535094
0.00237441
-0.000544511
0.00241605
-0.000552744
0.00245768
-0.000559784
0.00249919
-0.00056563
0.00254052
-0.000570289
0.00258158
-0.000573782
0.00262231
-0.000576135
0.00266263
-0.000577385
0.00270248
-0.000577575
0.00274182
-0.000576755
0.00278059
-0.00057498
0.00281875
-0.000572312
0.00285626
-0.000568813
0.00289308
-0.000564549
0.0029292
-0.000559588
0.00296458
-0.000553998
0.00299922
-0.000547848
0.00303309
-0.000541204
0.00306618
-0.000534133
0.0030985
-0.000526697
0.00313004
-0.00051896
0.0031608
-0.000510978
0.00319078
-0.000502809
0.00322
-0.000494502
0.00324847
-0.000486114
0.00327619
-0.000477682
0.0033032
-0.000469263
0.0033295
-0.000460881
0.00335513
-0.0004526
0.00338009
-0.000444423
0.00340443
-0.000436434
0.00342817
-0.000428596
0.00345135
-0.000421054
0.00347397
-0.000413667
0.00349613
-0.000406744
0.00351779
-0.000399887
0.00353909
-0.000393827
0.00355995
-0.000387501
0.00358056
-0.000382703
0.00360082
-0.00037678
0.00362088
-0.000373864
0.00364084
-0.000368188
0.00366045
-0.000367631
-0.000363222
0.00215
0.000119909
0.00213341
8.51508e-05
0.00212092
5.14521e-05
0.00211224
1.8047e-05
0.00210733
-1.37983e-05
0.00210584
-4.37456e-05
0.0021077
-7.30265e-05
0.00211259
-0.000101268
0.00212032
-0.000128693
0.00213071
-0.000155444
0.00214362
-0.000181625
0.00215891
-0.000207323
0.00217647
-0.000232511
0.00219617
-0.000257211
0.00221789
-0.000281427
0.00224151
-0.00030516
0.0022669
-0.000328389
0.00229395
-0.000351082
0.00232254
-0.000373201
0.00235256
-0.000394698
0.00238388
-0.000415524
0.00241639
-0.000435615
0.00244997
-0.000454916
0.00248451
-0.00047335
0.00251988
-0.000490855
0.00255598
-0.000507372
0.0025927
-0.000522837
0.00262991
-0.000537197
0.00266751
-0.0005504
0.0027054
-0.000562405
0.00274348
-0.000573173
0.00278165
-0.00058268
0.00281982
-0.000590912
0.0028579
-0.000597862
0.00289581
-0.000603538
0.00293347
-0.000607951
0.00297081
-0.000611127
0.00300778
-0.000613099
0.0030443
-0.00061391
0.00308034
-0.000613608
0.00311583
-0.000612249
0.00315074
-0.000609894
0.00318504
-0.000606609
0.00321869
-0.000602464
0.00325167
-0.000597527
0.00328396
-0.000591874
0.00331553
-0.000585575
0.00334639
-0.000578704
0.00337652
-0.000571331
0.00340591
-0.000563526
0.00343457
-0.000555356
0.0034625
-0.000546887
0.0034897
-0.000538179
0.00351618
-0.000529293
0.00354196
-0.00052028
0.00356704
-0.000511199
0.00359145
-0.00050209
0.0036152
-0.000493015
0.00363832
-0.000483994
0.00366082
-0.000475102
0.00368273
-0.000466331
0.00370408
-0.000457788
0.00372489
-0.000449406
0.00374521
-0.000441377
0.00376505
-0.000433499
0.00378448
-0.000426173
0.00380347
-0.00041888
0.00382215
-0.000412513
0.00384047
-0.000405815
0.00385856
-0.000400798
0.0038764
-0.000394617
0.00389403
-0.000391496
0.00391165
-0.000385808
0.00392895
-0.000384924
-0.000380773
0.00270724
0.0001552
0.00267807
0.000114322
0.00265428
7.52444e-05
0.00263506
3.72609e-05
0.00262189
-6.2444e-07
0.00261199
-3.38489e-05
0.00260627
-6.73043e-05
0.00260429
-9.92915e-05
0.00260574
-0.000130138
0.00261032
-0.000160029
0.00261784
-0.000189137
0.00262808
-0.000217571
0.0026409
-0.000245329
0.00265612
-0.000272425
0.00267356
-0.000298874
0.00269309
-0.000324682
0.00271453
-0.000349835
0.00273776
-0.000374305
0.00276261
-0.000398053
0.00278895
-0.000421039
0.00281664
-0.000443213
0.00284554
-0.000464517
0.00287552
-0.000484894
0.00290645
-0.000504278
0.0029382
-0.000522606
0.00297065
-0.00053982
0.00300367
-0.000555864
0.00303716
-0.000570687
0.003071
-0.000584241
0.00310509
-0.00059649
0.00313932
-0.000607404
0.0031736
-0.000616962
0.00320785
-0.000625156
0.00324197
-0.000631986
0.0032759
-0.000637464
0.00330956
-0.000641612
0.00334289
-0.000644458
0.00337583
-0.000646043
0.00340834
-0.000646416
0.00344036
-0.00064563
0.00347186
-0.000643748
0.0035028
-0.000640836
0.00353316
-0.000636966
0.0035629
-0.00063221
0.00359202
-0.000626644
0.00362049
-0.000620346
0.00364831
-0.000613391
0.00367546
-0.000605857
0.00370195
-0.000597818
0.00372777
-0.000589346
0.00375293
-0.000580511
0.00377742
-0.000571383
0.00380126
-0.000562022
0.00382447
-0.000552495
0.00384704
-0.000542852
0.003869
-0.000533158
0.00389036
-0.00052345
0.00391114
-0.000513797
0.00393136
-0.000504215
0.00395105
-0.000494791
0.00397022
-0.000485502
0.00398891
-0.00047648
0.00400713
-0.000467628
0.00402494
-0.000459185
0.00404233
-0.000450889
0.00405938
-0.000443224
0.00407607
-0.000435567
0.0040925
-0.000428943
0.00410864
-0.000421952
0.00412458
-0.000416743
0.00414036
-0.000410393
0.00415594
-0.000407072
0.00417157
-0.000401442
0.00418691
-0.000400268
-0.000396367
0.0032712
0.000206802
0.00322745
0.000158076
0.00319072
0.000111973
0.00316024
6.77387e-05
0.00313461
2.50129e-05
0.00311579
-1.50352e-05
0.00310113
-5.26382e-05
0.00309092
-8.90904e-05
0.0030848
-0.000124018
0.00308237
-0.000157599
0.00308335
-0.000190115
0.00308749
-0.000221705
0.00309455
-0.000252395
0.00310432
-0.000282198
0.00311659
-0.000311143
0.00313116
-0.000339249
0.00314783
-0.000366511
0.00316644
-0.000392907
0.00318679
-0.000418407
0.00320873
-0.000442976
0.00323208
-0.00046657
0.0032567
-0.000489138
0.00328244
-0.000510629
0.00330914
-0.000530982
0.00333668
-0.000550143
0.00336492
-0.000568057
0.00339373
-0.000584676
0.00342299
-0.000599953
0.0034526
-0.000613851
0.00348245
-0.000626337
0.00351243
-0.000637389
0.00354247
-0.000646994
0.00357246
-0.00065515
0.00360234
-0.000661866
0.00363204
-0.000667159
0.00366148
-0.000671058
0.00369062
-0.0006736
0.00371941
-0.00067483
0.0037478
-0.000674803
0.00377575
-0.000673579
0.00380323
-0.000671226
0.00383021
-0.000667815
0.00385666
-0.000663422
0.00388258
-0.000658125
0.00390794
-0.000652004
0.00393273
-0.000645139
0.00395695
-0.000637611
0.00398059
-0.000629499
0.00400365
-0.000620879
0.00402614
-0.00061183
0.00404805
-0.00060242
0.00406939
-0.000592725
0.00409017
-0.000582804
0.0041104
-0.000572728
0.0041301
-0.000562548
0.00414927
-0.000552332
0.00416794
-0.000542116
0.00418612
-0.000531976
0.00420382
-0.00052192
0.00422108
-0.00051205
0.00423791
-0.000502328
0.00425434
-0.00049291
0.00427038
-0.000483668
0.00428608
-0.000474886
0.00430144
-0.000466248
0.00431652
-0.00045831
0.00433132
-0.000450366
0.00434591
-0.000443534
0.00436029
-0.000436331
0.0043745
-0.000430957
0.00438863
-0.000424518
0.00440257
-0.000421014
0.00441663
-0.000415497
0.00443043
-0.000414075
-0.000410414
0.00381669
0.00375856
0.000216203
0.00370868
0.000161851
0.00366596
0.000110465
0.00362967
6.13005e-05
0.00360035
1.42881e-05
0.00357644
-2.87316e-05
0.00355743
-7.00758e-05
0.00354318
-0.000109775
0.00353322
-0.00014763
0.00352714
-0.000184044
0.00352465
-0.000219211
0.00352545
-0.000253197
0.00352928
-0.000286022
0.00353586
-0.000317729
0.00354497
-0.00034836
0.00355638
-0.000377921
0.00356988
-0.000406401
0.00358525
-0.000433781
0.00360231
-0.000460037
0.00362088
-0.000485134
0.00364077
-0.000509032
0.00366183
-0.000531686
0.0036839
-0.000553049
0.00370683
-0.000573072
0.00373048
-0.000591712
0.00375473
-0.000608926
0.00377945
-0.000624678
0.00380454
-0.000638939
0.00382989
-0.000651685
0.0038554
-0.000662902
0.00388099
-0.000672585
0.00390658
-0.00068074
0.0039321
-0.000687383
0.00395748
-0.00069254
0.00398267
-0.000696246
0.00400761
-0.000698544
0.00403227
-0.000699487
0.0040566
-0.000699134
0.00408057
-0.000697552
0.00410416
-0.000694812
0.00412734
-0.000690992
0.00415008
-0.00068617
0.00417239
-0.00068043
0.00419424
-0.000673853
0.00421562
-0.000666525
0.00423654
-0.000658527
0.00425698
-0.000649942
0.00427695
-0.00064085
0.00429645
-0.00063133
0.00431549
-0.000621453
0.00433406
-0.000611296
0.00435217
-0.000600921
0.00436985
-0.000590401
0.00438709
-0.000579786
0.0044039
-0.000569149
0.00442031
-0.000558523
0.00443633
-0.000547992
0.00445196
-0.000537557
0.00446724
-0.000527331
0.00448218
-0.000517264
0.0044968
-0.000507533
0.00451112
-0.000497986
0.00452517
-0.00048894
0.00453897
-0.00048004
0.00455255
-0.000471891
0.00456592
-0.000463738
0.00457913
-0.000456744
0.0045922
-0.000449407
0.00460514
-0.000443895
0.00461807
-0.000437441
0.00463083
-0.000433775
0.00464374
-0.000428411
0.00465645
-0.000426785
-0.000423357
0.00424459
0.000285858
0.0041838
0.000222644
0.00413099
0.00016328
0.00408516
0.000107127
0.00404551
5.39415e-05
0.00401447
2.30814e-06
0.0039874
-4.30029e-05
0.00396545
-8.7835e-05
0.00394827
-0.000130442
0.00393541
-0.000171185
0.00392648
-0.000210284
0.00392115
-0.000247863
0.00391909
-0.000283962
0.00392
-0.000318646
0.00392363
-0.000351983
0.0039297
-0.000383996
0.00393799
-0.000414686
0.00394826
-0.000444051
0.0039603
-0.000472079
0.00397392
-0.000498751
0.00398892
-0.000524038
0.00400514
-0.000547908
0.00402242
-0.000570325
0.0040406
-0.000591252
0.00405954
-0.000610656
0.00407912
-0.000628505
0.00409922
-0.000644775
0.00411973
-0.000659444
0.00414054
-0.0006725
0.00416158
-0.000683938
0.00418275
-0.000693761
0.004204
-0.000701983
0.00422524
-0.000708629
0.00424643
-0.000713731
0.00426752
-0.000717331
0.00428845
-0.000719479
0.0043092
-0.000720233
0.00432972
-0.000719658
0.00435
-0.000717825
0.00437
-0.000714811
0.0043897
-0.000710696
0.00440909
-0.000705563
0.00442816
-0.000699498
0.00444689
-0.000692586
0.00446528
-0.000684914
0.00448332
-0.000676567
0.00450101
-0.000667631
0.00451835
-0.000658185
0.00453533
-0.000648312
0.00455196
-0.000638085
0.00456825
-0.000627581
0.00458419
-0.000616863
0.0045998
-0.000606009
0.00461508
-0.000595065
0.00463004
-0.000584112
0.00464469
-0.000573177
0.00465905
-0.000562351
0.00467313
-0.000551632
0.00468694
-0.000541141
0.00470049
-0.000530817
0.00471381
-0.000520855
0.00472691
-0.000511084
0.00473982
-0.000501846
0.00475254
-0.000492762
0.00476511
-0.00048446
0.00477754
-0.000476173
0.00478986
-0.00046906
0.00480211
-0.000461661
0.00481426
-0.00045604
0.00482645
-0.000449632
0.0048385
-0.000445829
0.00485074
-0.000440647
0.00486281
-0.000438857
-0.000435652
0.00465986
0.000361784
0.00459259
0.000289915
0.00453326
0.000222607
0.00448121
0.000159179
0.00443604
9.91115e-05
0.00439612
4.22238e-05
0.00436442
-1.12968e-05
0.00433657
-5.99903e-05