/*--------------------------------*- C++ -*----------------------------------*\
  =========                 |
  \\      /  F ield         | OpenFOAM: The Open Source CFD Toolbox
   \\    /   O peration     | Website:  https://openfoam.org
    \\  /    A nd           | Version:  7
     \\/     M anipulation  |
\*---------------------------------------------------------------------------*/
FoamFile
{
    version     2.0;
    format      ascii;
    class       volVectorField;
    location    "45";
    object      U;
}
// * * * * * * * * * * * * * * * * * * * * * * * * * * * * * * * * * * * * * //

dimensions      [0 1 -1 0 0 0 0];

internalField   nonuniform List<vector> 
3700
(
(-0.209072 0.00127657 2.09742e-22)
(-0.213332 0.00109592 -2.69029e-21)
(-0.217034 0.000933594 2.9304e-21)
(-0.220116 0.000786372 -3.62712e-21)
(-0.222655 0.000650824 1.9297e-21)
(-0.224666 0.000523881 -7.1089e-22)
(-0.226172 0.000404071 3.07482e-21)
(-0.227191 0.000290022 -1.72208e-21)
(-0.227741 0.00017875 1.56822e-21)
(-0.227859 7.4142e-05 -7.28413e-22)
(-0.227564 -3.42135e-05 -1.20166e-21)
(-0.226854 -0.000143551 -6.29196e-22)
(-0.225733 -0.00025447 6.21201e-22)
(-0.224201 -0.000367554 -5.20656e-22)
(-0.222259 -0.000483503 7.40982e-22)
(-0.219913 -0.000601397 -2.64479e-22)
(-0.217164 -0.000723255 -9.21333e-22)
(-0.214011 -0.000848524 1.98289e-21)
(-0.210456 -0.000977265 -2.32141e-21)
(-0.2065 -0.00110908 -4.17247e-22)
(-0.202143 -0.00124343 2.09897e-21)
(-0.197388 -0.0013796 -3.18174e-22)
(-0.192238 -0.00151671 -3.33722e-22)
(-0.186694 -0.00165374 3.88846e-22)
(-0.180763 -0.00178952 -1.6077e-21)
(-0.174447 -0.00192299 1.21765e-21)
(-0.167756 -0.00205177 8.46651e-23)
(-0.160699 -0.00217547 -3.50885e-22)
(-0.153285 -0.00229275 -1.4825e-21)
(-0.145525 -0.0024024 1.24228e-21)
(-0.137431 -0.00250332 6.65447e-22)
(-0.129016 -0.00259451 -1.18664e-21)
(-0.120294 -0.00267548 -3.12681e-23)
(-0.111281 -0.00274461 -3.88727e-22)
(-0.101997 -0.00280224 1.05011e-21)
(-0.0924574 -0.00284813 -6.79077e-22)
(-0.0826826 -0.00288225 1.88112e-22)
(-0.07269 -0.00290498 -3.55809e-22)
(-0.0625001 -0.00291642 -8.85552e-23)
(-0.0521346 -0.00291747 2.08552e-22)
(-0.0416134 -0.00290892 -9.74581e-23)
(-0.0309562 -0.00289194 4.93569e-23)
(-0.0201837 -0.00286717 -9.43236e-23)
(-0.00931646 -0.00283606 9.58489e-23)
(0.00162636 -0.00279985 -4.07212e-23)
(0.0126253 -0.00275977 -1.17392e-22)
(0.0236622 -0.00271708 9.35059e-24)
(0.0347192 -0.00267298 -3.14383e-22)
(0.0457796 -0.00262861 3.07671e-22)
(0.0568274 -0.00258505 -1.00573e-22)
(0.0678477 -0.00254325 -1.68582e-22)
(0.0788267 -0.00250403 1.01176e-22)
(0.0897515 -0.0024681 -9.78415e-23)
(0.10061 -0.002436 -1.05699e-23)
(0.111393 -0.00240815 -6.60298e-23)
(0.12209 -0.00238479 2.36073e-23)
(0.132692 -0.00236606 1.74011e-23)
(0.143192 -0.00235193 -3.34356e-23)
(0.153585 -0.00234226 8.7837e-24)
(0.163864 -0.00233678 2.6359e-24)
(0.174026 -0.00233515 -7.7194e-24)
(0.184067 -0.00233692 -1.82135e-23)
(0.193985 -0.00234159 1.03682e-23)
(0.203779 -0.00234854 1.68168e-23)
(0.21345 -0.00235728 -2.24474e-24)
(0.222994 -0.002367 -2.74138e-23)
(0.232419 -0.00237739 -4.36646e-24)
(0.241717 -0.00238736 2.59508e-24)
(0.250913 -0.00239711 -1.61603e-24)
(0.259963 -0.00240473 2.74668e-24)
(0.268977 -0.00241159 2.81701e-24)
(0.27773 -0.00241514 -3.62162e-24)
(0.28675 -0.00241561 -2.14496e-24)
(0.29488 -0.00241845 -1.64567e-25)
(0.304737 -0.00239865 -7.29876e-26)
(0.310594 -0.00242675 -1.65069e-25)
(0.325131 -0.0023484 7.63116e-25)
(-0.200044 0.00377414 -1.56136e-21)
(-0.204069 0.00322029 4.85669e-21)
(-0.207553 0.00271795 -4.44179e-21)
(-0.210432 0.00225677 -2.94374e-21)
(-0.212777 0.00182702 -1.75221e-21)
(-0.214603 0.00142003 2.82552e-21)
(-0.21593 0.00103235 -3.94837e-21)
(-0.216775 0.000665195 1.13072e-20)
(-0.217155 0.000321133 -5.04378e-21)
(-0.217112 -2.15436e-05 -8.70901e-22)
(-0.216662 -0.000365112 1.78697e-21)
(-0.215798 -0.000706327 -2.64741e-21)
(-0.214524 -0.00104591 3.1169e-21)
(-0.212844 -0.00138508 -2.08565e-21)
(-0.210757 -0.00172539 -3.30421e-21)
(-0.208269 -0.00206371 -1.21898e-21)
(-0.205382 -0.00240535 4.60448e-21)
(-0.202096 -0.00274894 -1.10651e-21)
(-0.198413 -0.00309475 7.02995e-21)
(-0.194332 -0.00344221 -7.3947e-21)
(-0.189857 -0.00379052 -9.00552e-22)
(-0.184989 -0.00413864 3.91959e-21)
(-0.179731 -0.00448533 -3.79163e-22)
(-0.174087 -0.00482912 1.35934e-21)
(-0.168062 -0.00516823 -3.59612e-21)
(-0.161659 -0.00550138 4.63985e-21)
(-0.154888 -0.00582331 -2.99227e-21)
(-0.14776 -0.00613479 1.6785e-21)
(-0.140283 -0.0064337 -4.95595e-22)
(-0.132468 -0.00671816 1.98223e-21)
(-0.124328 -0.00698644 3.21577e-23)
(-0.115877 -0.00723682 -1.11552e-21)
(-0.107126 -0.00746899 -1.3716e-21)
(-0.0980945 -0.0076782 3.41266e-21)
(-0.0888005 -0.00786641 -1.8167e-21)
(-0.0792605 -0.00803272 1.08231e-22)
(-0.0694941 -0.00817664 5.24521e-22)
(-0.0595185 -0.00829926 -1.50882e-21)
(-0.0493541 -0.00839838 1.52312e-21)
(-0.0390224 -0.00847615 -7.90703e-22)
(-0.0285431 -0.00853336 -1.69619e-22)
(-0.0179351 -0.00857171 8.08069e-22)
(-0.00721905 -0.0085908 5.09735e-22)
(0.00358486 -0.00859314 -1.40755e-21)
(0.0144581 -0.00858023 1.02453e-21)
(0.0253815 -0.00855359 -9.87897e-22)
(0.0363372 -0.00851489 1.89722e-21)
(0.0473081 -0.00846583 -9.04269e-22)
(0.0582776 -0.00840805 -6.01568e-22)
(0.0692303 -0.00834316 6.34644e-22)
(0.0801515 -0.00827269 -2.23926e-22)
(0.0910279 -0.00819805 9.72976e-23)
(0.101847 -0.00812053 -5.42566e-24)
(0.112597 -0.00804127 -4.81527e-23)
(0.123268 -0.00796127 4.62163e-22)
(0.133851 -0.00788139 -1.62593e-22)
(0.144337 -0.00780231 1.38902e-22)
(0.154719 -0.0077246 -7.2423e-23)
(0.164992 -0.00764865 -2.1835e-22)
(0.17515 -0.00757475 -9.79684e-23)
(0.185189 -0.00750308 1.93262e-22)
(0.195106 -0.00743365 -4.83803e-23)
(0.204899 -0.00736653 -1.16278e-23)
(0.214566 -0.00730147 8.0671e-23)
(0.224109 -0.00723864 3.87386e-24)
(0.233525 -0.00717731 7.46722e-24)
(0.242821 -0.00711831 1.30631e-23)
(0.251989 -0.00705977 -2.13772e-23)
(0.261056 -0.00700433 3.46986e-23)
(0.269974 -0.00694774 1.49947e-23)
(0.278861 -0.00689589 -3.24201e-23)
(0.287477 -0.00684241 6.09497e-24)
(0.296377 -0.00679061 1.38228e-23)
(0.304363 -0.00675573 -1.74741e-24)
(0.314106 -0.00667404 4.77523e-26)
(0.319831 -0.00673291 3.26271e-25)
(0.334175 -0.00654085 -1.49971e-24)
(-0.182036 0.00607417 8.68033e-21)
(-0.185611 0.00515841 -1.68291e-20)
(-0.188675 0.00432714 1.24941e-20)
(-0.191161 0.00356103 -9.00628e-22)
(-0.193134 0.00284475 -9.0561e-21)
(-0.194603 0.0021646 1.12119e-20)
(-0.195587 0.00151649 3.65976e-22)
(-0.196094 0.000905503 4.5848e-21)
(-0.196157 0.000332295 -4.17479e-21)
(-0.195812 -0.000260139 -2.33502e-21)
(-0.195059 -0.000837068 1.19946e-20)
(-0.193899 -0.00140633 -1.61731e-20)
(-0.192336 -0.00197077 1.09647e-20)
(-0.190374 -0.00253238 2.22164e-21)
(-0.188011 -0.00309404 -1.66284e-20)
(-0.185255 -0.00364872 1.02964e-20)
(-0.182108 -0.00420633 -9.72916e-22)
(-0.17857 -0.0047643 -2.19072e-21)
(-0.174643 -0.00532305 -5.19367e-22)
(-0.170328 -0.00588181 -6.18694e-21)
(-0.165628 -0.0064395 2.91105e-21)
(-0.160547 -0.00699476 -1.93633e-21)
(-0.155087 -0.00754594 5.46824e-21)
(-0.149252 -0.00809118 -2.21199e-21)
(-0.14305 -0.00862807 4.59728e-21)
(-0.136483 -0.00915551 -4.0756e-21)
(-0.129562 -0.00966453 3.94764e-21)
(-0.122298 -0.0101577 -5.59247e-21)
(-0.114701 -0.010632 -3.09725e-21)
(-0.106783 -0.0110848 3.92535e-21)
(-0.0985551 -0.0115139 1.55815e-21)
(-0.0900334 -0.0119167 -2.64425e-21)
(-0.0812287 -0.0122943 -1.02295e-21)
(-0.0721594 -0.0126368 4.14402e-21)
(-0.0628455 -0.0129489 -2.83258e-21)
(-0.0533028 -0.013229 8.4224e-22)
(-0.0435512 -0.0134762 -3.5814e-21)
(-0.033607 -0.013693 3.24665e-21)
(-0.0234898 -0.0138737 -2.17067e-21)
(-0.0132219 -0.0140224 1.73309e-21)
(-0.00282225 -0.01414 -9.77039e-22)
(0.0076911 -0.014227 -3.03441e-22)
(0.0182985 -0.0142853 -4.57851e-22)
(0.0289796 -0.0143163 -1.49357e-21)
(0.0397168 -0.0143221 2.3993e-21)
(0.0504919 -0.0143045 2.18119e-22)
(0.0612878 -0.0142658 -8.47226e-22)
(0.0720878 -0.0142079 5.04326e-22)
(0.0828764 -0.0141332 -1.14571e-22)
(0.0936388 -0.0140438 2.1768e-22)
(0.104361 -0.0139417 3.46778e-23)
(0.115031 -0.0138289 -2.24291e-23)
(0.125636 -0.0137073 -1.26079e-21)
(0.136165 -0.0135786 3.39034e-22)
(0.14661 -0.0134444 -2.03362e-22)
(0.156961 -0.0133062 3.63063e-22)
(0.167211 -0.0131652 -3.61688e-22)
(0.177353 -0.0130224 1.3049e-23)
(0.187381 -0.0128789 -2.82385e-22)
(0.197292 -0.0127355 4.3381e-22)
(0.207081 -0.0125928 -7.61801e-23)
(0.216746 -0.0124513 -1.80633e-23)
(0.226285 -0.0123117 -1.4235e-23)
(0.235697 -0.0121741 4.08954e-23)
(0.244984 -0.0120392 2.79069e-23)
(0.254142 -0.0119065 6.91372e-23)
(0.263182 -0.0117779 -3.71919e-23)
(0.272091 -0.0116509 -3.68421e-23)
(0.280903 -0.0115301 5.07911e-23)
(0.28956 -0.0114098 -7.84373e-24)
(0.2982 -0.0112989 3.09428e-23)
(0.306549 -0.0111898 -7.49426e-24)
(0.315215 -0.0110844 2.87907e-24)
(0.322922 -0.0110143 9.80176e-25)
(0.332444 -0.0108695 -3.1739e-24)
(0.337917 -0.0109539 2.17237e-24)
(0.351888 -0.0106639 2.54752e-25)
(-0.155121 0.00806044 9.90514e-21)
(-0.158065 0.00680275 -1.51042e-20)
(-0.160536 0.00566028 1.70261e-20)
(-0.162473 0.00460383 -2.05263e-21)
(-0.163923 0.00361287 5.41269e-21)
(-0.164894 0.00266816 5.50943e-21)
(-0.165395 0.00176317 -1.087e-20)
(-0.165434 0.000906476 5.18617e-21)
(-0.165063 9.83866e-05 -1.06364e-20)
(-0.164296 -0.000720954 -5.31327e-22)
(-0.16312 -0.00152293 2.37229e-20)
(-0.161549 -0.00231448 -2.03215e-20)
(-0.159586 -0.00309853 -2.63127e-21)
(-0.157235 -0.00387743 1.31038e-20)
(-0.15449 -0.00465627 -8.93629e-22)
(-0.151363 -0.00542129 -3.41166e-21)
(-0.147857 -0.0061892 1.96098e-21)
(-0.143972 -0.00695569 2.48101e-21)
(-0.13971 -0.00772122 2.02505e-21)
(-0.135074 -0.00848477 -7.04209e-22)
(-0.130067 -0.00924496 -8.17318e-21)
(-0.124693 -0.01 4.67233e-21)
(-0.118956 -0.010748 5.41044e-21)
(-0.112863 -0.0114864 4.58204e-21)
(-0.106421 -0.0122123 -1.38638e-20)
(-0.0996315 -0.0129264 1.08236e-20)
(-0.0925073 -0.0136132 -5.29151e-21)
(-0.0850625 -0.0142784 3.06605e-21)
(-0.0773057 -0.0149184 -5.95415e-21)
(-0.0692495 -0.0155296 6.89117e-21)
(-0.0609068 -0.0161089 -1.90223e-21)
(-0.0522954 -0.0166533 1.15711e-21)
(-0.0434238 -0.0171679 2.42674e-21)
(-0.0343099 -0.0176331 2.12662e-21)
(-0.024977 -0.0180585 -1.56057e-21)
(-0.0154392 -0.0184424 5.82954e-23)
(-0.00571756 -0.0187838 9.58984e-22)
(0.00417329 -0.0190811 -3.45293e-21)
(0.014215 -0.0193344 -4.78097e-22)
(0.0243838 -0.019545 2.70924e-21)
(0.0346623 -0.0197139 -1.62372e-21)
(0.0450326 -0.0198408 2.89696e-21)
(0.0554761 -0.0199298 1.01235e-21)
(0.0659739 -0.0199814 -2.27276e-21)
(0.0765088 -0.0199982 1.65827e-21)
(0.0870637 -0.0199825 -3.17857e-22)
(0.0976226 -0.0199368 1.0056e-21)
(0.10817 -0.0198639 -5.21899e-22)
(0.118691 -0.0197664 -2.35847e-22)
(0.129172 -0.019647 -1.30368e-22)
(0.139601 -0.0195082 2.55908e-22)
(0.149965 -0.0193527 8.77762e-22)
(0.160255 -0.0191829 -1.22806e-21)
(0.170459 -0.0190011 6.80374e-22)
(0.180571 -0.0188094 3.02954e-22)
(0.190581 -0.0186099 1.7936e-22)
(0.200483 -0.0184042 -2.01902e-22)
(0.210271 -0.0181942 6.868e-22)
(0.219941 -0.0179812 -3.04527e-22)
(0.229488 -0.0177665 -3.71221e-22)
(0.238911 -0.0175514 4.41734e-23)
(0.248207 -0.0173369 4.41645e-22)
(0.257375 -0.0171239 1.23339e-22)
(0.266413 -0.0169131 -2.1621e-22)
(0.275326 -0.0167059 1.3194e-23)
(0.28411 -0.0165017 -2.11169e-23)
(0.292776 -0.0163034 -2.0026e-24)
(0.301309 -0.0161083 5.1231e-23)
(0.309752 -0.0159225 -9.58302e-23)
(0.318032 -0.0157394 6.23391e-23)
(0.326312 -0.0155694 -1.54299e-23)
(0.334277 -0.0154071 -1.169e-23)
(0.342604 -0.0152465 -5.93176e-24)
(0.349912 -0.0151453 -8.49064e-24)
(0.35911 -0.0149365 4.50449e-24)
(0.364233 -0.0150385 -1.32137e-24)
(0.377658 -0.0146728 -1.9828e-24)
(-0.119337 0.0096398 1.6072e-21)
(-0.121521 0.00807041 -1.3352e-20)
(-0.123278 0.00664061 2.41887e-20)
(-0.124553 0.00531378 -2.47384e-20)
(-0.125378 0.0040647 2.46371e-20)
(-0.125756 0.00287012 -9.51758e-21)
(-0.125684 0.00172916 -3.05587e-21)
(-0.125165 0.000666505 -2.79142e-20)
(-0.124266 -0.000412846 4.31046e-20)
(-0.122994 -0.0014572 -4.1771e-20)
(-0.121322 -0.00247842 3.07174e-20)
(-0.119264 -0.00348509 -6.0712e-21)
(-0.116827 -0.00448162 6.33945e-23)
(-0.114016 -0.00546999 -4.6584e-21)
(-0.110821 -0.00646044 -1.3192e-21)
(-0.107255 -0.0074276 1.00377e-20)
(-0.103327 -0.00839836 -4.93487e-21)
(-0.0990332 -0.00936567 -2.98589e-21)
(-0.0943783 -0.0103298 -4.53631e-21)
(-0.0893656 -0.0112896 -7.05674e-21)
(-0.0839995 -0.0122432 1.16047e-20)
(-0.078285 -0.0131885 -1.36966e-20)
(-0.0722281 -0.0141228 8.87469e-21)
(-0.0658354 -0.0150432 2.56238e-21)
(-0.0591189 -0.0159462 -8.61936e-21)
(-0.0520773 -0.0168393 7.88028e-21)
(-0.0447229 -0.0176919 -5.65177e-21)
(-0.0370753 -0.0185164 5.02786e-21)
(-0.0291423 -0.0193093 -4.15199e-21)
(-0.0209372 -0.0200663 -5.79413e-21)
(-0.0124734 -0.0207838 -6.75057e-21)
(-0.00377315 -0.0214596 1.11432e-20)
(0.00515903 -0.0220872 9.81939e-22)
(0.014308 -0.0226641 1.14052e-21)
(0.0236434 -0.023191 -6.74152e-21)
(0.0331538 -0.0236659 2.26944e-22)
(0.0428197 -0.0240884 4.17919e-21)
(0.0526243 -0.0244532 -6.25434e-21)
(0.0625502 -0.0247666 3.79754e-21)
(0.0725762 -0.0250267 -2.48281e-21)
(0.0826848 -0.0252345 -2.12469e-21)
(0.0928583 -0.025391 -1.88889e-21)
(0.103079 -0.0254991 4.55271e-21)
(0.113331 -0.0255607 -1.26234e-21)
(0.123596 -0.0255784 -1.55929e-21)
(0.133859 -0.025555 1.00072e-21)
(0.144105 -0.0254936 -3.56676e-23)
(0.15432 -0.0253973 -1.47942e-21)
(0.164491 -0.0252693 2.23878e-21)
(0.174606 -0.0251127 -2.41926e-21)
(0.184652 -0.0249308 -2.99675e-22)
(0.194621 -0.0247267 1.47879e-21)
(0.204501 -0.0245033 -1.77291e-21)
(0.214285 -0.0242635 9.59651e-22)
(0.223966 -0.02401 7.11995e-22)
(0.233536 -0.0237454 -1.32308e-21)
(0.24299 -0.0234718 2.50863e-22)
(0.252324 -0.0231916 -3.54481e-22)
(0.261533 -0.0229067 -2.476e-22)
(0.270615 -0.0226189 3.58889e-22)
(0.279569 -0.0223298 -2.37082e-22)
(0.288392 -0.022041 -1.68225e-22)
(0.297085 -0.0217538 1.81633e-22)
(0.305648 -0.0214693 9.5498e-23)
(0.314084 -0.0211894 -1.2684e-22)
(0.32239 -0.0209139 -1.52943e-22)
(0.330582 -0.0206461 -4.72221e-23)
(0.338638 -0.0203838 4.32234e-23)
(0.346611 -0.0201333 3.7429e-23)
(0.354413 -0.0198895 -6.58854e-23)
(0.362238 -0.0196602 -1.79565e-23)
(0.369717 -0.0194483 2.63686e-23)
(0.377615 -0.019231 -1.9625e-23)
(0.384422 -0.0191029 -5.5147e-24)
(0.393201 -0.0188311 -6.57025e-24)
(0.397899 -0.0189406 -1.36441e-24)
(0.410622 -0.0185241 3.44316e-24)
(-0.0759823 0.00891313 2.84085e-20)
(-0.0769735 0.00722498 -3.43602e-20)
(-0.0775423 0.00565168 4.41112e-21)
(-0.0777011 0.00416391 1.52829e-20)
(-0.0774411 0.00273408 -1.55446e-20)
(-0.0767414 0.00136481 -2.44126e-20)
(-0.0756601 8.5589e-05 1.7022e-20)
(-0.0742276 -0.00123414 2.16433e-20)
(-0.0724 -0.0024956 -4.93952e-21)
(-0.0701955 -0.00372811 2.12644e-20)
(-0.0676224 -0.00494126 -2.9895e-20)
(-0.0646821 -0.00614041 -1.07979e-20)
(-0.0613875 -0.00732736 2.84453e-20)
(-0.0577195 -0.00853291 -7.66524e-21)
(-0.0536916 -0.0096914 7.28901e-21)
(-0.0493206 -0.0108549 -3.00708e-20)
(-0.044599 -0.0120135 3.03673e-20)
(-0.0395338 -0.0131665 -2.22415e-20)
(-0.0341293 -0.0143124 2.35214e-21)
(-0.0283912 -0.0154489 2.26929e-20)
(-0.0223259 -0.0165735 -1.13528e-20)
(-0.0159407 -0.0176832 1.85959e-21)
(-0.00924308 -0.0187748 2.01256e-21)
(-0.00225282 -0.0198468 -1.49108e-20)
(0.0050367 -0.0208888 3.91092e-21)
(0.0126183 -0.0218953 2.65894e-21)
(0.02046 -0.0228674 2.1048e-21)
(0.0285561 -0.0238 4.59731e-21)
(0.0368932 -0.0246885 -8.03721e-22)
(0.0454565 -0.0255291 4.49641e-21)
(0.0542269 -0.0263204 -2.26534e-21)
(0.0631916 -0.0270457 2.53341e-21)
(0.0723376 -0.027719 -7.43906e-21)
(0.0816397 -0.0283317 7.88129e-21)
(0.0910829 -0.0288816 -6.13022e-21)
(0.100649 -0.0293686 6.39266e-21)
(0.110319 -0.0297895 1.46181e-21)
(0.120078 -0.0301474 5.99858e-21)
(0.129906 -0.0304421 -7.6926e-21)
(0.139786 -0.0306749 -5.39941e-22)
(0.149701 -0.0308472 1.52238e-21)
(0.159635 -0.0309618 3.2439e-21)
(0.169572 -0.0310211 5.66918e-21)
(0.179496 -0.0310281 -2.32552e-22)
(0.189395 -0.0309862 -5.51182e-21)
(0.199253 -0.0308988 3.0876e-21)
(0.209059 -0.0307696 2.05984e-21)
(0.218801 -0.0306022 -2.20872e-21)
(0.228467 -0.0304005 -1.48559e-23)
(0.238049 -0.030168 6.28145e-23)
(0.247537 -0.0299085 1.46239e-21)
(0.256924 -0.0296255 1.54996e-22)
(0.266202 -0.0293224 -8.12377e-22)
(0.275365 -0.0290023 4.58967e-22)
(0.284408 -0.0286684 2.54671e-22)
(0.293327 -0.0283234 -9.96537e-23)
(0.302118 -0.02797 1.02966e-21)
(0.31078 -0.0276107 3.18543e-22)
(0.319309 -0.0272476 -4.73215e-22)
(0.327706 -0.0268831 -3.0158e-22)
(0.335969 -0.0265188 5.61153e-22)
(0.344102 -0.0261568 -3.0458e-23)
(0.352102 -0.0257983 -1.80189e-23)
(0.359977 -0.0254458 2.8368e-22)
(0.36772 -0.0250994 5.04363e-23)
(0.375353 -0.0247628 2.58723e-23)
(0.382848 -0.0244345 1.37856e-22)
(0.390272 -0.0241202 1.70362e-23)
(0.397511 -0.023818 1.29108e-22)
(0.404803 -0.0235296 3.67736e-24)
(0.411712 -0.0232723 1.5559e-23)
(0.419104 -0.0229974 -4.20565e-24)
(0.425334 -0.0228464 4.15848e-23)
(0.433606 -0.0225149 4.87917e-24)
(0.437831 -0.0226208 2.92747e-24)
(0.449716 -0.022177 -4.41924e-24)
(-0.0212858 0.0093306 -2.43327e-20)
(-0.0215602 0.00741555 3.06099e-20)
(-0.0214678 0.00562111 -2.04275e-20)
(-0.0210058 0.00391508 -4.95683e-21)
(-0.0201551 0.00226659 1.57092e-20)
(-0.0188755 0.000690583 2.11799e-20)
(-0.0172532 -0.000858323 -2.33324e-20)
(-0.0153002 -0.00237115 -2.2567e-20)
(-0.012961 -0.00383455 4.4996e-20)
(-0.0102594 -0.00526915 -4.1787e-20)
(-0.00720055 -0.00668172 3.65984e-21)
(-0.00378482 -0.0080774 3.64222e-20)
(-4.17186e-05 -0.00946803 -1.8988e-21)
(0.00406565 -0.0108394 -2.53313e-20)
(0.00853571 -0.0121923 -5.86555e-21)
(0.0133205 -0.0135426 3.46965e-21)
(0.0184408 -0.0148843 1.37037e-20)
(0.023887 -0.0162169 -3.13971e-20)
(0.0296532 -0.0175385 2.98707e-20)
(0.0357321 -0.0188468 -2.16897e-20)
(0.0421158 -0.0201388 -5.59929e-21)
(0.0487951 -0.0214114 1.71104e-20)
(0.0557607 -0.0226608 -5.00156e-25)
(0.0629971 -0.0238866 2.20746e-20)
(0.0704974 -0.0250629 -1.69732e-20)
(0.0782557 -0.0262091 -1.14879e-20)
(0.0862482 -0.0273134 2.541e-20)
(0.0944629 -0.0283694 -1.46319e-20)
(0.102885 -0.0293725 -2.90635e-21)
(0.111498 -0.0303185 -1.14023e-20)
(0.120284 -0.031205 1.73317e-21)
(0.129228 -0.0320212 -7.87751e-22)
(0.138315 -0.0327718 -2.87566e-21)
(0.147525 -0.0334519 4.787e-21)
(0.156839 -0.0340598 5.34586e-22)
(0.166241 -0.0345946 -9.69329e-22)
(0.175712 -0.0350545 4.27329e-21)
(0.185237 -0.0354412 -5.9386e-21)
(0.194798 -0.0357553 6.3608e-21)
(0.204378 -0.0359982 -9.0375e-21)
(0.213962 -0.036172 5.60849e-21)
(0.223536 -0.0362794 -5.89896e-21)
(0.233084 -0.0363235 2.35296e-21)
(0.242592 -0.0363077 3.43377e-22)
(0.25205 -0.0362358 9.58479e-22)
(0.261443 -0.0361117 1.68777e-21)
(0.270763 -0.0359396 -3.85921e-21)
(0.279997 -0.0357238 -1.76923e-21)
(0.289139 -0.0354685 4.72331e-21)
(0.298178 -0.0351779 -2.86503e-22)
(0.307109 -0.0348562 -2.4541e-23)
(0.315924 -0.0345075 -2.33607e-21)
(0.324619 -0.0341356 -1.27445e-22)
(0.333189 -0.0337443 -1.2697e-21)
(0.341629 -0.0333371 1.26697e-21)
(0.349938 -0.0329172 6.01871e-23)
(0.358112 -0.0324879 -1.20966e-21)
(0.366152 -0.0320519 1.12004e-21)
(0.374055 -0.0316121 -9.72342e-22)
(0.381824 -0.0311708 1.51684e-22)
(0.389457 -0.0307304 2.64749e-23)
(0.396959 -0.0302933 -4.31993e-22)
(0.404327 -0.0298611 6.63147e-22)
(0.411573 -0.0294364 -2.7849e-24)
(0.418687 -0.0290202 -9.69538e-23)
(0.425697 -0.0286157 -1.62343e-22)
(0.432564 -0.0282235 -3.53064e-23)
(0.439375 -0.0278462 -6.51409e-24)
(0.445988 -0.0274888 -9.21091e-24)
(0.452687 -0.027142 -7.1709e-24)
(0.458966 -0.0268436 -5.42337e-23)
(0.46579 -0.0265115 -2.80486e-24)
(0.47139 -0.0263401 -1.42601e-24)
(0.479078 -0.0259552 1.65571e-24)
(0.482806 -0.0260467 -5.64655e-24)
(0.493743 -0.0255947 2.30963e-24)
(0.0429484 0.00937916 3.45798e-20)
(0.0432074 0.00727122 -3.66437e-20)
(0.0437977 0.00527887 3.20841e-20)
(0.0447302 0.0033734 -3.83136e-20)
(0.0460437 0.00152554 2.20311e-20)
(0.047756 -0.000238543 3.26398e-20)
(0.0497859 -0.00203688 -4.71495e-20)
(0.0521614 -0.00375685 5.56687e-20)
(0.0549072 -0.00542245 -4.14869e-20)
(0.0580063 -0.0070532 -1.79763e-20)
(0.0614535 -0.00865844 5.0281e-21)
(0.0652468 -0.010244 3.65709e-20)
(0.0693714 -0.0118268 -3.62434e-20)
(0.073832 -0.0133564 3.4912e-20)
(0.0786375 -0.0148985 -1.89891e-21)
(0.0837583 -0.0164259 5.03427e-21)
(0.0891974 -0.0179411 -1.36536e-20)
(0.0949458 -0.0194428 1.01352e-20)
(0.100996 -0.0209291 -1.33945e-21)
(0.107338 -0.0223972 -9.09094e-21)
(0.113963 -0.0238439 1.956e-20)
(0.120859 -0.0252653 -1.92788e-20)
(0.128016 -0.026657 1.99596e-20)
(0.135418 -0.0280169 -2.23634e-21)
(0.143053 -0.0293288 -1.72578e-20)
(0.150913 -0.0305974 -9.90723e-21)
(0.158977 -0.0318153 1.26513e-20)
(0.16723 -0.032977 -1.16039e-20)
(0.175656 -0.0340774 -1.32946e-20)
(0.184238 -0.0351115 3.04201e-20)
(0.192958 -0.0360763 -1.32788e-20)
(0.201799 -0.0369638 -7.27033e-21)
(0.210746 -0.0377745 -5.59372e-21)
(0.219778 -0.0385052 2.48445e-20)
(0.228879 -0.0391539 -1.46909e-20)
(0.238032 -0.03972 -1.56966e-21)
(0.24722 -0.0402022 6.66201e-21)
(0.256426 -0.0406018 4.66434e-21)
(0.265635 -0.0409198 -7.82925e-21)
(0.274832 -0.0411582 1.74633e-21)
(0.284001 -0.0413192 -5.60269e-21)
(0.293131 -0.041406 7.47437e-21)
(0.302207 -0.0414222 -3.96918e-21)
(0.311219 -0.0413716 8.65601e-23)
(0.320154 -0.0412586 4.27273e-21)
(0.329004 -0.0410876 -6.78372e-21)
(0.337758 -0.0408632 4.47529e-21)
(0.346409 -0.0405903 -5.06683e-21)
(0.35495 -0.0402736 5.23028e-21)
(0.363373 -0.0399178 -2.8054e-21)
(0.371674 -0.0395278 -1.51487e-21)
(0.379847 -0.0391079 -6.25886e-22)
(0.387889 -0.0386626 1.16979e-21)
(0.395798 -0.038196 -4.99031e-22)
(0.40357 -0.0377122 6.48183e-22)
(0.411204 -0.0372148 1.35274e-21)
(0.4187 -0.0367075 -6.16647e-22)
(0.426057 -0.0361934 -1.17471e-22)
(0.433276 -0.0356758 -3.00163e-22)
(0.440359 -0.0351574 -6.7953e-22)
(0.447306 -0.034641 7.8764e-22)
(0.454124 -0.0341291 -4.93896e-22)
(0.460808 -0.0336241 -7.92866e-22)
(0.467375 -0.0331283 2.34666e-22)
(0.473809 -0.0326441 7.672e-23)
(0.480148 -0.0321732 -1.72877e-22)
(0.486342 -0.0317197 2.7339e-23)
(0.492496 -0.0312811 -3.47802e-23)
(0.498438 -0.0308723 -1.49619e-22)
(0.5045 -0.0304681 6.67834e-23)
(0.510107 -0.0301329 -8.64403e-23)
(0.516316 -0.0297457 -2.38355e-23)
(0.521261 -0.029555 -3.33109e-24)
(0.528297 -0.0291251 -9.47182e-24)
(0.531529 -0.0291928 9.22504e-25)
(0.541432 -0.0287466 3.65225e-24)
(0.117316 0.00920134 -8.80653e-20)
(0.117752 0.00692482 -1.62886e-20)
(0.118526 0.00474868 5.77547e-20)
(0.119644 0.00265342 -1.42397e-20)
(0.121163 0.000608359 3.5065e-20)
(0.123061 -0.00139655 -2.79485e-20)
(0.125283 -0.00339375 1.6661e-21)
(0.127884 -0.00530929 2.09508e-20)
(0.130849 -0.00717005 -6.11516e-21)
(0.134167 -0.00899196 -2.46297e-20)
(0.137833 -0.0107842 2.72363e-20)
(0.141843 -0.0125521 1.05782e-21)
(0.146186 -0.0143093 -7.82279e-21)
(0.150856 -0.0160314 7.51236e-22)
(0.155861 -0.0177435 3.2193e-20)
(0.161178 -0.0194385 -1.82174e-20)
(0.166801 -0.0211174 -2.45172e-20)
(0.17272 -0.0227784 -1.17796e-23)
(0.178926 -0.0244189 3.19737e-20)
(0.185407 -0.0260358 -2.04525e-20)
(0.192151 -0.0276254 1.81436e-20)
(0.199144 -0.0291833 -2.61698e-20)
(0.206374 -0.0307044 7.84383e-22)
(0.213824 -0.0321855 3.2966e-20)
(0.221478 -0.0336144 -2.0283e-20)
(0.229326 -0.0349902 -1.98261e-21)
(0.237348 -0.0363067 2.85129e-21)
(0.245526 -0.0375583 1.03406e-20)
(0.253844 -0.0387396 -2.50313e-20)
(0.262283 -0.0398454 7.39695e-23)
(0.270826 -0.0408719 -9.24613e-22)
(0.279454 -0.0418129 1.52949e-20)
(0.288152 -0.042667 1.40596e-20)
(0.2969 -0.0434316 -6.6397e-21)
(0.305682 -0.0441048 7.68384e-21)
(0.314481 -0.0446861 -1.52006e-20)
(0.323281 -0.0451749 4.96364e-21)
(0.332067 -0.0455722 -1.10008e-20)
(0.340825 -0.0458797 1.2443e-20)
(0.34954 -0.0460996 -3.81822e-22)
(0.3582 -0.0462347 -7.01451e-21)
(0.366793 -0.0462886 2.34386e-21)
(0.375307 -0.0462652 -1.37311e-21)
(0.383733 -0.0461691 3.46722e-21)
(0.392061 -0.0460051 2.06278e-21)
(0.400284 -0.045778 -7.06547e-21)
(0.408393 -0.0454931 5.17433e-21)
(0.416383 -0.0451557 -8.56785e-22)
(0.424249 -0.0447711 -4.8974e-23)
(0.431984 -0.0443446 -1.9798e-21)
(0.439587 -0.0438812 -9.99555e-22)
(0.447053 -0.043386 1.98365e-21)
(0.454381 -0.0428638 1.22445e-21)
(0.461569 -0.0423193 -1.22435e-21)
(0.468616 -0.0417568 6.71561e-22)
(0.475522 -0.0411805 -2.43472e-22)
(0.482288 -0.0405943 -2.02241e-21)
(0.488915 -0.0400018 1.37684e-21)
(0.495403 -0.0394066 6.99469e-22)
(0.501757 -0.0388117 -1.9284e-22)
(0.507978 -0.0382204 2.53049e-22)
(0.514072 -0.0376351 5.92116e-22)
(0.520036 -0.0370593 -2.91244e-22)
(0.525888 -0.0364943 -4.68605e-22)
(0.531609 -0.0359448 4.22546e-22)
(0.537247 -0.0354098 1.87182e-24)
(0.542736 -0.0348984 2.38221e-22)
(0.548205 -0.0344008 -1.18284e-22)
(0.55345 -0.0339445 1.23904e-22)
(0.558847 -0.0334853 9.79646e-23)
(0.563764 -0.0331171 -2.95797e-23)
(0.569321 -0.0326786 1.72044e-23)
(0.573607 -0.0324684 2.93072e-23)
(0.57994 -0.0320032 -2.08513e-24)
(0.582691 -0.0320404 1.21784e-23)
(0.591506 -0.0316083 -5.04985e-25)
(0.202491 0.00904723 -4.15229e-21)
(0.202559 0.00659633 -8.51664e-20)
(0.203033 0.0042305 6.27581e-20)
(0.203904 0.00193843 3.90921e-20)
(0.205219 -0.000308631 -4.32774e-20)
(0.206955 -0.00257671 -1.7805e-20)
(0.209068 -0.00476788 -4.44251e-20)
(0.211587 -0.00688537 8.89678e-20)
(0.214492 -0.00894595 -1.7e-20)
(0.217769 -0.0109622 -2.68962e-20)
(0.22141 -0.0129436 1.11991e-20)
(0.225406 -0.0148958 -2.97332e-23)
(0.229747 -0.0168298 -1.33177e-20)
(0.23442 -0.0187309 1.43271e-20)
(0.239426 -0.0206126 4.76624e-22)
(0.244745 -0.0224726 -1.3798e-20)
(0.250367 -0.0243105 2.18181e-20)
(0.256279 -0.0261246 -1.76416e-20)
(0.262467 -0.0279119 -1.83681e-20)
(0.268918 -0.0296691 3.18321e-20)
(0.275616 -0.0313918 -9.03116e-21)
(0.282546 -0.0330756 2.07335e-20)
(0.289692 -0.0347148 -3.49089e-20)
(0.297036 -0.036305 2.31196e-20)
(0.304559 -0.0378366 1.06247e-20)
(0.312247 -0.0393057 -1.98727e-20)
(0.320081 -0.0407066 9.51636e-21)
(0.328042 -0.0420333 -3.15368e-21)
(0.33611 -0.0432802 -2.0629e-20)
(0.344268 -0.0444421 1.37576e-21)
(0.352498 -0.045515 1.52019e-20)
(0.360779 -0.0464935 -3.77961e-21)
(0.369097 -0.0473755 -6.85615e-22)
(0.377432 -0.0481587 -4.76157e-21)
(0.385769 -0.0488415 2.51671e-20)
(0.394092 -0.0494235 -1.49981e-20)
(0.402385 -0.0499047 1.04535e-21)
(0.410635 -0.0502864 1.14306e-20)
(0.418829 -0.0505706 -6.41699e-21)
(0.426954 -0.0507599 8.07003e-21)
(0.434998 -0.0508578 -1.01825e-20)
(0.442953 -0.0508682 3.37141e-21)
(0.450808 -0.0507957 -5.33142e-21)
(0.458555 -0.0506453 5.63944e-21)
(0.466187 -0.0504223 2.01257e-21)
(0.473698 -0.0501321 -7.31163e-23)
(0.481083 -0.0497806 -4.63362e-21)
(0.488336 -0.0493734 1.19771e-21)
(0.495455 -0.0489163 -1.28293e-21)
(0.502436 -0.0484151 1.36091e-21)
(0.509277 -0.0478754 2.8949e-21)
(0.515977 -0.0473026 -2.29605e-21)
(0.522535 -0.046702 2.31116e-21)
(0.528951 -0.0460786 -1.5513e-21)
(0.535225 -0.0454371 -4.2127e-22)
(0.54136 -0.044782 1.38284e-21)
(0.547355 -0.0441178 2.05079e-21)
(0.553213 -0.043448 4.18069e-22)
(0.558938 -0.0427769 -2.08714e-21)
(0.564532 -0.0421075 3.91029e-22)
(0.569997 -0.0414437 5.30205e-23)
(0.575342 -0.0407877 -2.65067e-22)
(0.580563 -0.0401441 -2.64219e-23)
(0.58568 -0.039513 9.04889e-22)
(0.590671 -0.0389019 -7.1866e-23)
(0.59559 -0.0383058 -3.39314e-22)
(0.600361 -0.0377409 3.21453e-22)
(0.605131 -0.0371873 -2.35716e-22)
(0.60967 -0.0366881 -1.78482e-22)
(0.614387 -0.0361773 3.98846e-23)
(0.618613 -0.0357794 7.4773e-23)
(0.623498 -0.0352952 1.66657e-23)
(0.627138 -0.0350646 1.99692e-23)
(0.63273 -0.034574 -2.18148e-24)
(0.635029 -0.0345769 2.57197e-26)
(0.642729 -0.0341631 -2.21341e-24)
(0.298946 0.00928088 2.92239e-20)
(0.297924 0.00659865 -1.29079e-20)
(0.297455 0.00400183 5.64852e-20)
(0.29751 0.00148009 -1.36898e-21)
(0.298096 -0.000984911 -6.68975e-20)
(0.299203 -0.00350121 -4.59291e-20)
(0.30079 -0.00593549 3.92823e-20)
(0.302842 -0.00828906 -3.41327e-21)
(0.305332 -0.0105698 2.9399e-20)
(0.308236 -0.0127947 -5.97091e-20)
(0.311541 -0.0149762 2.31006e-20)
(0.315231 -0.0171212 3.86329e-21)
(0.319291 -0.0192391 1.42707e-20)
(0.323706 -0.0213218 3.05821e-20)
(0.328464 -0.0233763 -1.78685e-20)
(0.333548 -0.0254018 -6.42228e-21)
(0.338941 -0.0273977 -5.99138e-21)
(0.344625 -0.0293623 3.81403e-20)
(0.350585 -0.0312923 2.22916e-21)
(0.356801 -0.0331842 -6.44347e-21)
(0.363255 -0.0350333 -1.84913e-20)
(0.369928 -0.0368349 2.24406e-20)
(0.376802 -0.038583 -3.69826e-20)
(0.383855 -0.0402727 2.65795e-20)
(0.391068 -0.0418954 -2.36021e-20)
(0.398423 -0.0434462 2.18716e-20)
(0.405897 -0.0449189 -1.69398e-20)
(0.413473 -0.0463077 1.99677e-20)
(0.421129 -0.047607 -2.55151e-20)
(0.428846 -0.0488116 1.14874e-20)
(0.436605 -0.0499174 -1.73066e-20)
(0.444387 -0.0509198 2.22823e-20)
(0.452177 -0.0518163 -1.9019e-20)
(0.459955 -0.052605 8.48979e-21)
(0.467708 -0.0532846 4.76541e-21)
(0.475419 -0.0538552 2.59015e-21)
(0.483074 -0.0543171 -1.33973e-20)
(0.490662 -0.0546721 1.21675e-21)
(0.498171 -0.0549227 1.46842e-20)
(0.505589 -0.055072 -1.69054e-20)
(0.512908 -0.055124 7.74587e-21)
(0.520119 -0.0550831 -9.31341e-21)
(0.527215 -0.0549545 1.1713e-20)
(0.53419 -0.0547437 -1.36112e-20)
(0.541038 -0.0544564 5.14239e-21)
(0.547754 -0.0540987 4.82519e-21)
(0.554336 -0.0536768 -5.98014e-21)
(0.560781 -0.053197 7.09912e-21)
(0.567086 -0.0526655 -3.73253e-21)
(0.57325 -0.0520884 -1.28273e-21)
(0.579273 -0.0514717 -1.8855e-21)
(0.585155 -0.0508214 2.82229e-21)
(0.590897 -0.050143 -1.53156e-21)
(0.596499 -0.0494418 -6.48415e-22)
(0.601963 -0.0487231 5.595e-22)
(0.607291 -0.0479915 1.19321e-21)
(0.612487 -0.0472518 7.39246e-22)
(0.617552 -0.0465077 -1.74726e-21)
(0.62249 -0.0457642 -7.79995e-22)
(0.627305 -0.0450237 1.8265e-21)
(0.632 -0.0442915 -2.57189e-22)
(0.636584 -0.0435687 -2.61984e-22)
(0.641052 -0.0428618 4.56096e-22)
(0.645427 -0.0421688 -7.73074e-23)
(0.649683 -0.0415008 -3.50367e-22)
(0.653881 -0.0408481 1.94165e-22)
(0.657935 -0.0402345 1.71174e-22)
(0.662004 -0.0396292 -2.44376e-22)
(0.665844 -0.0390917 -9.21712e-23)
(0.669879 -0.0385343 1.26246e-22)
(0.673429 -0.0381094 3.08715e-25)
(0.677631 -0.0375867 -4.80101e-23)