/*--------------------------------*- C++ -*----------------------------------*\
  =========                 |
  \\      /  F ield         | OpenFOAM: The Open Source CFD Toolbox
   \\    /   O peration     | Website:  https://openfoam.org
    \\  /    A nd           | Version:  7
     \\/     M anipulation  |
\*---------------------------------------------------------------------------*/
FoamFile
{
    version     2.0;
    format      ascii;
    class       volScalarField;
    location    "90";
    object      p;
}
// * * * * * * * * * * * * * * * * * * * * * * * * * * * * * * * * * * * * * //

dimensions      [0 2 -2 0 0 0 0];

internalField   nonuniform List<scalar> 
14000
(
-0.228335
-0.231943
-0.233406
-0.235081
-0.236813
-0.238429
-0.239658
-0.240214
-0.240531
-0.238455
-0.22953
-0.232942
-0.234345
-0.235995
-0.237724
-0.239372
-0.240687
-0.240948
-0.241821
-0.238532
-0.231674
-0.234695
-0.235945
-0.2375
-0.239167
-0.240794
-0.24242
-0.241698
-0.244397
-0.238383
-0.234571
-0.23703
-0.238009
-0.239364
-0.240882
-0.242265
-0.244758
-0.24171
-0.248284
-0.23701
-0.237992
-0.239747
-0.240299
-0.241295
-0.242588
-0.243321
-0.247371
-0.240547
-0.251576
-0.235838
-0.241733
-0.242667
-0.242602
-0.243018
-0.243965
-0.243946
-0.248449
-0.239452
-0.253744
-0.234693
-0.245675
-0.245684
-0.24479
-0.244404
-0.244627
-0.24418
-0.248307
-0.238037
-0.251746
-0.235223
-0.249834
-0.248784
-0.246865
-0.245457
-0.244738
-0.24384
-0.246231
-0.237735
-0.245025
-0.234469
-0.254407
-0.252057
-0.248984
-0.246361
-0.244512
-0.242976
-0.242493
-0.236879
-0.235807
-0.228438
-0.259714
-0.255781
-0.251409
-0.24741
-0.244269
-0.241471
-0.238053
-0.232666
-0.225153
-0.217356
-0.266103
-0.260348
-0.254496
-0.248928
-0.244141
-0.239277
-0.232962
-0.225269
-0.213548
-0.202912
-0.274053
-0.266131
-0.258536
-0.25107
-0.244056
-0.236312
-0.226761
-0.21575
-0.20229
-0.189751
-0.284035
-0.273473
-0.263676
-0.253926
-0.243837
-0.232395
-0.219369
-0.205563
-0.190539
-0.177025
-0.296458
-0.282516
-0.270104
-0.257429
-0.243138
-0.227383
-0.211019
-0.194664
-0.178597
-0.164824
-0.31159
-0.292999
-0.278062
-0.261138
-0.241467
-0.221167
-0.201606
-0.183247
-0.166454
-0.15212
-0.329406
-0.304579
-0.287057
-0.264132
-0.238308
-0.213526
-0.191147
-0.171146
-0.15371
-0.138909
-0.348708
-0.317306
-0.295368
-0.265155
-0.233136
-0.20427
-0.179442
-0.158143
-0.140226
-0.124845
-0.367472
-0.330993
-0.301114
-0.263072
-0.225464
-0.193098
-0.166269
-0.143999
-0.125695
-0.109947
-0.383523
-0.343964
-0.303189
-0.257193
-0.214829
-0.179691
-0.151341
-0.128431
-0.109993
-0.0942198
-0.395195
-0.353325
-0.300711
-0.247118
-0.200852
-0.163702
-0.134368
-0.111199
-0.0929244
-0.0776274
-0.401367
-0.356432
-0.292502
-0.232453
-0.183213
-0.144829
-0.115101
-0.0921059
-0.0743253
-0.0597749
-0.40106
-0.351368
-0.277692
-0.212771
-0.161646
-0.122837
-0.0933798
-0.0711073
-0.0541033
-0.0401048
-0.393105
-0.337076
-0.255765
-0.18771
-0.135938
-0.0976224
-0.0691736
-0.0482485
-0.0322852
-0.0186324
-0.376109
-0.313044
-0.2264
-0.157063
-0.106059
-0.0693054
-0.0426179
-0.0235612
-0.00866482
0.0035677
-0.348719
-0.279145
-0.189363
-0.120956
-0.0722779
-0.0381968
-0.0139505
0.00311485
0.0165132
0.0264972
-0.310003
-0.235507
-0.144744
-0.0799305
-0.0349711
-0.00430015
0.0167803
0.0314546
0.0427439
0.0499525
-0.259735
-0.18217
-0.0935584
-0.034233
0.00569806
0.031987
0.0492728
0.0609354
0.0693492
0.073199
-0.198349
-0.119021
-0.0371947
0.0154554
0.0491851
0.0702218
0.0831149
0.0909708
0.0954613
0.0952374
-0.12639
-0.0482336
0.0236224
0.0681409
0.0947782
0.10989
0.117852
0.121098
0.120583
0.11581
-0.044342
0.0265469
0.0877658
0.122816
0.141642
0.150335
0.152917
0.151042
0.145294
0.136682
0.0443027
0.104054
0.153672
0.178374
0.188854
0.19075
0.187572
0.180398
0.170127
0.162505
0.136415
0.182662
0.219674
0.23357
0.235414
0.230288
0.221123
0.208808
0.195194
0.187164
0.228639
0.260267
0.28407
0.287083
0.280272
0.268136
0.253147
0.236215
0.21969
0.209232
0.317628
0.334635
0.345171
0.337575
0.322352
0.303424
0.282938
0.261879
0.242575
0.229046
0.400148
0.403555
0.401336
0.38375
0.360658
0.33543
0.309947
0.285154
0.263029
0.246291
0.473372
0.464875
0.450982
0.424366
0.394212
0.363386
0.333548
0.305503
0.280718
0.260892
0.535155
0.51642
0.49262
0.458315
0.422171
0.386627
0.353152
0.322377
0.295252
0.272675
0.583475
0.556517
0.524986
0.484649
0.443815
0.404598
0.368311
0.335406
0.306383
0.281535
0.616669
0.583944
0.547113
0.502632
0.458574
0.416841
0.378637
0.344273
0.313917
0.287435
0.633577
0.597881
0.558353
0.511763
0.466064
0.423052
0.383875
0.348769
0.317724
0.290381
0.633607
0.59791
0.55838
0.511788
0.466088
0.423074
0.383895
0.348788
0.317741
0.290396
0.616761
0.58403
0.547193
0.502708
0.458646
0.416908
0.378699
0.34433
0.313969
0.28748
0.583632
0.556662
0.525121
0.484777
0.443935
0.40471
0.368415
0.335501
0.306469
0.28161
0.535379
0.516628
0.492812
0.458495
0.42234
0.386785
0.353298
0.322511
0.295373
0.27278
0.473669
0.465149
0.451234
0.424602
0.394432
0.363591
0.333736
0.305676
0.280875
0.261028
0.400525
0.403901
0.401653
0.384044
0.360931
0.335683
0.31018
0.285366
0.263221
0.246458
0.318093
0.335057
0.345556
0.33793
0.32268
0.303727
0.283216
0.262132
0.242803
0.229243
0.229201
0.260773
0.284527
0.287503
0.280658
0.268491
0.253471
0.236509
0.219954
0.209461
0.137084
0.183259
0.22021
0.234058
0.235861
0.230696
0.221494
0.209143
0.195494
0.187423
0.0450864
0.104749
0.154292
0.178935
0.189363
0.191214
0.187991
0.180774
0.170463
0.162799
-0.0434344
0.0273493
0.0884739
0.123452
0.142218
0.150855
0.153385
0.15146
0.145666
0.137016
-0.125352
-0.0473186
0.0244237
0.0688573
0.0954225
0.110469
0.118371
0.121559
0.120989
0.116171
-0.197166
-0.117994
-0.0362968
0.0162555
0.0499008
0.0708616
0.0836849
0.0914743
0.0959012
0.0956211
-0.258413
-0.181013
-0.0925612
-0.0333448
0.00648745
0.0326884
0.0498943
0.0614808
0.0698218
0.0736064
-0.308547
-0.234218
-0.143638
-0.0789502
-0.0341056
-0.00353649
0.0174539
0.0320411
0.0432481
0.0503832
-0.347133
-0.277725
-0.18814
-0.119886
-0.071334
-0.0373701
-0.0132234
0.00374147
0.0170472
0.0269476
-0.374401
-0.311494
-0.225059
-0.155898
-0.105039
-0.0684131
-0.0418373
-0.0228959
-0.00810282
0.00403241
-0.391287
-0.3354
-0.254311
-0.186447
-0.134837
-0.0966627
-0.0683441
-0.0475442
-0.0316971
-0.01816
-0.399145
-0.34957
-0.276125
-0.211408
-0.160459
-0.121808
-0.0924979
-0.0703654
-0.0534965
-0.0396307
-0.399368
-0.354522
-0.290824
-0.230989
-0.181938
-0.143726
-0.114162
-0.0913261
-0.073701
-0.0593005
-0.393124
-0.351318
-0.298928
-0.245553
-0.199484
-0.16252
-0.133368
-0.110378
-0.0922823
-0.0771579
-0.381391
-0.341883
-0.301311
-0.255526
-0.213362
-0.178422
-0.150272
-0.127566
-0.109334
-0.0937635
-0.365294
-0.328871
-0.299152
-0.2613
-0.223888
-0.19173
-0.16512
-0.143082
-0.125017
-0.109511
-0.346504
-0.315172
-0.293334
-0.263276
-0.23144
-0.202785
-0.178196
-0.157162
-0.139528
-0.124438
-0.327194
-0.302446
-0.28497
-0.26215
-0.236479
-0.2119
-0.18978
-0.170084
-0.152985
-0.138538
-0.309395
-0.29087
-0.275947
-0.259063
-0.23949
-0.219369
-0.200082
-0.182077
-0.165691
-0.151796
-0.294272
-0.280392
-0.267974
-0.255269
-0.240999
-0.225377
-0.209291
-0.193346
-0.177783
-0.164564
-0.281855
-0.271353
-0.261526
-0.251685
-0.241527
-0.230147
-0.21738
-0.204041
-0.189644
-0.176855
-0.271877
-0.264012
-0.256357
-0.248745
-0.241574
-0.233797
-0.224456
-0.213955
-0.201269
-0.189684
-0.26394
-0.258234
-0.252286
-0.246522
-0.241497
-0.236493
-0.230303
-0.223125
-0.21229
-0.202989
-0.257577
-0.253702
-0.249185
-0.244943
-0.241496
-0.238453
-0.235053
-0.230124
-0.223489
-0.21737
-0.252365
-0.250034
-0.246784
-0.243877
-0.241678
-0.239797
-0.239253
-0.233936
-0.233691
-0.228161
-0.247938
-0.246867
-0.244751
-0.243041
-0.241945
-0.240627
-0.242915
-0.234491
-0.242566
-0.233847
-0.243968
-0.243923
-0.242837
-0.242147
-0.241993
-0.241114
-0.245075
-0.234784
-0.249127
-0.234366
-0.240254
-0.241115
-0.240869
-0.241005
-0.241603
-0.241203
-0.245489
-0.236509
-0.251105
-0.233835
-0.23677
-0.238443
-0.238837
-0.239592
-0.240591
-0.240999
-0.244798
-0.238149
-0.249416
-0.235285
-0.233621
-0.236001
-0.236852
-0.238015
-0.239301
-0.240436
-0.242784
-0.23975
-0.246652
-0.236938
-0.230999
-0.233955
-0.235112
-0.23653
-0.238029
-0.239488
-0.241021
-0.240332
-0.243364
-0.238303
-0.229127
-0.232497
-0.233844
-0.235412
-0.237041
-0.238592
-0.239854
-0.240159
-0.241265
-0.238581
-0.228202
-0.231795
-0.233239
-0.234887
-0.236586
-0.23817
-0.239383
-0.239958
-0.240356
-0.238496
-0.237514
-0.236642
-0.235662
-0.234586
-0.233422
-0.232178
-0.230865
-0.229487
-0.228049
-0.226557
-0.225011
-0.223411
-0.221755
-0.22004
-0.218314
-0.216567
-0.214798
-0.213004
-0.211186
-0.209342
-0.207474
-0.20558
-0.203663
-0.201721
-0.199756
-0.197767
-0.195756
-0.193722
-0.191665
-0.189583
-0.187475
-0.185339
-0.183174
-0.180975
-0.178738
-0.176458
-0.174131
-0.171749
-0.169307
-0.166798
-0.16421
-0.161533
-0.158745
-0.155834
-0.152937
-0.149943
-0.146827
-0.143612
-0.140304
-0.136907
-0.133427
-0.129871
-0.12625
-0.122575
-0.118859
-0.115115
-0.111359
-0.107606
-0.103872
-0.10017
-0.0965157
-0.092922
-0.0894018
-0.0859658
-0.082623
-0.0793798
-0.0762404
-0.0732092
-0.0702896
-0.0674565
-0.0647258
-0.0620947
-0.0595532
-0.0570967
-0.0547365
-0.0524268
-0.0501995
-0.0480274
-0.0458869
-0.0437606
-0.0417647
-0.0397913
-0.0378312
-0.0358997
-0.0340003
-0.0321359
-0.03031
-0.0285263
-0.0267897
-0.0251055
-0.0234792
-0.0219167
-0.0204233
-0.0190042
-0.017664
-0.0164062
-0.0152335
-0.0141475
-0.0131482
-0.0122349
-0.0114052
-0.0106555
-0.00998092
-0.0093753
-0.00883124
-0.00834031
-0.00789309
-0.00747936
-0.00708815
-0.00670784
-0.00632604
-0.00592928
-0.00550246
-0.00502667
-0.00447464
-0.0037956
-0.00315816
-0.00232426
-0.00137059
8.97173e-05
-0.237764
-0.23665
-0.235442
-0.234137
-0.232733
-0.231242
-0.229679
-0.228055
-0.22638
-0.224661
-0.222903
-0.22111
-0.219284
-0.217429
-0.215603
-0.213799
-0.212013
-0.210248
-0.208504
-0.206782
-0.205085
-0.203413
-0.201765
-0.20014
-0.198539
-0.196958
-0.195396
-0.193848
-0.192308
-0.190771
-0.189228
-0.187672
-0.186092
-0.184478
-0.182818
-0.181098
-0.179306
-0.177427
-0.175445
-0.173344
-0.171105
-0.168725
-0.166182
-0.163589
-0.160738
-0.15773
-0.154551
-0.151206
-0.147684
-0.143991
-0.140139
-0.136142
-0.132013
-0.127768
-0.123427
-0.119011
-0.114542
-0.110043
-0.105534
-0.101036
-0.096572
-0.0921638
-0.0878328
-0.0835977
-0.0794749
-0.0754786
-0.07162
-0.0679081
-0.0644442
-0.0610035
-0.0577456
-0.0546675
-0.0517471
-0.0489805
-0.0463667
-0.0438949
-0.0415639
-0.0393616
-0.0372758
-0.0352991
-0.0334366
-0.0316729
-0.0300129
-0.0284374
-0.0269477
-0.0255407
-0.0242134
-0.0229637
-0.0217907
-0.020694
-0.0196736
-0.0187298
-0.0178623
-0.0170708
-0.0163543
-0.0157109
-0.0151379
-0.0146316
-0.0141871
-0.0137989
-0.01346
-0.0131629
-0.0128988
-0.012658
-0.01243
-0.0122034
-0.0119664
-0.0117064
-0.0114105
-0.0110653
-0.0106568
-0.0101703
-0.00959014
-0.00890074
-0.00809127
-0.00716203
-0.0059033
-0.00442326
-0.00276852
-0.000453448
-0.238389
-0.237063
-0.235607
-0.234066
-0.232457
-0.230755
-0.228974
-0.227126
-0.225229
-0.223297
-0.221343
-0.219373
-0.217386
-0.215376
-0.213497
-0.211652
-0.209849
-0.2081
-0.206414
-0.204796
-0.203248
-0.201766
-0.200353
-0.199012
-0.197736
-0.196521
-0.195361
-0.194248
-0.193171
-0.192119
-0.191078
-0.190035
-0.188973
-0.187876
-0.186723
-0.185495
-0.184169
-0.182721
-0.181123
-0.17935
-0.177361
-0.175302
-0.173057
-0.170537
-0.16777
-0.164757
-0.161435
-0.157919
-0.154209
-0.150236
-0.146044
-0.141645
-0.137057
-0.132302
-0.127404
-0.122391
-0.117291
-0.112132
-0.106941
-0.101744
-0.0965743
-0.0914598
-0.0864279
-0.0815035
-0.0767093
-0.0720655
-0.0675901
-0.063299
-0.0592082
-0.0553008
-0.0516002
-0.0481165
-0.0448486
-0.0417946
-0.0389519
-0.0363159
-0.0338814
-0.0316411
-0.0295861
-0.0277078
-0.0259979
-0.0244458
-0.0230419
-0.0217792
-0.0206593
-0.0196713
-0.0188024
-0.0180458
-0.0173955
-0.0168457
-0.0163907
-0.0160247
-0.0157417
-0.0155352
-0.0153984
-0.0153233
-0.0153016
-0.0153237
-0.0153798
-0.0154589
-0.0155502
-0.0156422
-0.0157229
-0.0157794
-0.0157989
-0.0157678
-0.0156727
-0.0154999
-0.0152355
-0.0148649
-0.0143744
-0.0137486
-0.012973
-0.0120255
-0.0108883
-0.00952398
-0.00789715
-0.00592283
-0.00373474
-0.000827223
-0.240926
-0.237575
-0.236121
-0.234377
-0.232484
-0.230539
-0.228605
-0.226614
-0.22458
-0.222517
-0.220429
-0.218341
-0.216289
-0.214306
-0.21217
-0.210198
-0.208332
-0.206574
-0.204925
-0.203389
-0.201966
-0.200633
-0.199441
-0.19833
-0.197313
-0.196394
-0.195563
-0.194804
-0.194103
-0.193443
-0.192807
-0.192177
-0.191531
-0.190849
-0.190103
-0.189264
-0.188295
-0.187166
-0.185833
-0.184403
-0.182795
-0.180856
-0.178678
-0.176228
-0.173488
-0.170448
-0.167103
-0.163468
-0.159538
-0.155316
-0.15082
-0.14607
-0.141088
-0.135899
-0.130533
-0.125022
-0.119398
-0.113696
-0.107949
-0.102192
-0.096461
-0.0907879
-0.0852045
-0.07974
-0.0744212
-0.0692724
-0.0643148
-0.0595669
-0.0550434
-0.0507531
-0.0467064
-0.042912
-0.0393748
-0.0360965
-0.0330764
-0.030312
-0.027799
-0.0255316
-0.0235023
-0.0217025
-0.0201229
-0.0187527
-0.0175805
-0.0165946
-0.0157612
-0.015151
-0.014679
-0.0143442
-0.0141401
-0.0140569
-0.0140833
-0.0142083
-0.01442
-0.0147062
-0.0150543
-0.015451
-0.0158824
-0.0163338
-0.0167898
-0.0172346
-0.0176543
-0.018035
-0.018362
-0.0186203
-0.0187955
-0.018873
-0.0188383
-0.0186778
-0.018378
-0.0179254
-0.0173086
-0.0165102
-0.0155165
-0.0143108
-0.0128768
-0.0111733
-0.00920291
-0.00684791
-0.00429392
-0.00105317
-0.23947
-0.238548
-0.23659
-0.234635
-0.232704
-0.230677
-0.228496
-0.226276
-0.22404
-0.221844
-0.21971
-0.217571
-0.21545
-0.213372
-0.211366
-0.209307
-0.207427
-0.205681
-0.204063
-0.202576
-0.201224
-0.200005
-0.198919
-0.197974
-0.197159
-0.196462
-0.195871
-0.195372
-0.194947
-0.194576
-0.194238
-0.193909
-0.193565
-0.193184
-0.192731
-0.19217
-0.191458
-0.190619
-0.189623
-0.188332
-0.186805
-0.185006
-0.182912
-0.180504
-0.177765
-0.174686
-0.171263
-0.167498
-0.163399
-0.158977
-0.154246
-0.149227
-0.143947
-0.138433
-0.13272
-0.126842
-0.120837
-0.114744
-0.108601
-0.102447
-0.0963202
-0.0902568
-0.084291
-0.0784547
-0.0727773
-0.067285
-0.0620014
-0.0569468
-0.052138
-0.0475887
-0.0433103
-0.039312
-0.0356003
-0.0321789
-0.029049
-0.0262093
-0.0236567
-0.0213864
-0.0193917
-0.0176644
-0.0161953
-0.014974
-0.0139904
-0.0132356
-0.012708
-0.012325
-0.0121418
-0.0121303
-0.01227
-0.0125451
-0.0129397
-0.0134379
-0.0140229
-0.0146773
-0.015384
-0.0161254
-0.0168838
-0.0176401
-0.0183733
-0.0190595
-0.0196865
-0.0202406
-0.0207058
-0.0210634
-0.0213
-0.0214008
-0.0213509
-0.0211395
-0.0207523
-0.0201797
-0.0194085
-0.0184274
-0.0172258
-0.0157872
-0.0141038
-0.0121376
-0.00991361
-0.0073128
-0.00454616
-0.00118539
-0.236734
-0.237009
-0.23599
-0.234406
-0.232573
-0.230609
-0.228569
-0.226453
-0.224252
-0.221939
-0.219559
-0.217247
-0.21501
-0.212857
-0.210795
-0.208864
-0.20698
-0.20522
-0.203603
-0.202139
-0.200832
-0.199681
-0.198688
-0.197845
-0.197147
-0.196584
-0.196143
-0.195807
-0.195555
-0.195362
-0.195205
-0.195054
-0.194866
-0.194686
-0.194421
-0.194035
-0.193525
-0.192821
-0.191913
-0.190758
-0.189332
-0.187608
-0.185561
-0.183175
-0.180433
-0.177325
-0.173849
-0.170005
-0.165802
-0.161252
-0.156372
-0.151186
-0.145721
-0.140009
-0.134086
-0.127991
-0.121762
-0.115441
-0.109069
-0.102687
-0.0963351
-0.0900506
-0.0838695
-0.0778251
-0.0719479
-0.0662655
-0.0608023
-0.0555798
-0.0506163
-0.0459269
-0.0415243
-0.0374184
-0.0336165
-0.0301235
-0.0269417
-0.0240709
-0.0215092
-0.0192523
-0.0172943
-0.0156274
-0.0142424
-0.0131284
-0.0122736
-0.0116649
-0.0112865
-0.0111137
-0.0111434
-0.0113608
-0.0117401
-0.0122491
-0.0128829
-0.0136227
-0.0144466
-0.015333
-0.0162615
-0.0172121
-0.0181658
-0.0191028
-0.0199979
-0.0207915
-0.0215046
-0.022124
-0.0226332
-0.0229958
-0.0232141
-0.0232698
-0.0231509
-0.0228442
-0.02234
-0.021629
-0.0207028
-0.019552
-0.0181706
-0.0165455
-0.0146783
-0.0125373
-0.0101607
-0.00744545
-0.00459376
-0.00126835
-0.233083
-0.233308
-0.233455
-0.232681
-0.231189
-0.229454
-0.22766
-0.225746
-0.223676
-0.22151
-0.219329
-0.217155
-0.214997
-0.212869
-0.210803
-0.20884
-0.206971
-0.205212
-0.203586
-0.202109
-0.200791
-0.199639
-0.198653
-0.19783
-0.197163
-0.196643
-0.196253
-0.195978
-0.195796
-0.195673
-0.195601
-0.195547
-0.195494
-0.195344
-0.19513
-0.194811
-0.194357
-0.193721
-0.192868
-0.191764
-0.190378
-0.188686
-0.186662
-0.184288
-0.18155
-0.178437
-0.174946
-0.171078
-0.166843
-0.162254
-0.157328
-0.152092
-0.146573
-0.140804
-0.134821
-0.128664
-0.122372
-0.115987
-0.109551
-0.103105
-0.0966894
-0.0903416
-0.084098
-0.077992
-0.0720546
-0.0663135
-0.0607938
-0.0555172
-0.0505028
-0.0457665
-0.0413216
-0.0371789
-0.0333463
-0.0298294
-0.0266315
-0.0237533
-0.0211937
-0.0189491
-0.0170141
-0.0153816
-0.0140422
-0.0129852
-0.0121979
-0.011666
-0.0113736
-0.0113043
-0.0114476
-0.0117897
-0.0123215
-0.0129199
-0.0136636
-0.0145167
-0.0154493
-0.0164366
-0.017456
-0.0184867
-0.0195119
-0.0205259
-0.0215617
-0.0222671
-0.0229482
-0.0235373
-0.0239939
-0.0243155
-0.0244661
-0.0244358
-0.0242153
-0.0237951
-0.0231668
-0.0223236
-0.0212603
-0.0199718
-0.0184562
-0.016706
-0.0147281
-0.0125013
-0.0100653
-0.00734716
-0.00450979
-0.00132392
-0.229936
-0.229091
-0.22982
-0.229502
-0.228137
-0.226673
-0.225329
-0.223828
-0.222059
-0.220125
-0.218127
-0.216102
-0.214068
-0.212051
-0.210084
-0.208189
-0.206385
-0.204689
-0.203115
-0.201677
-0.200386
-0.199246
-0.198261
-0.197431
-0.19675
-0.196213
-0.195811
-0.195529
-0.195341
-0.195216
-0.195128
-0.195061
-0.194981
-0.194851
-0.194644
-0.194327
-0.193868
-0.193229
-0.192377
-0.191279
-0.189906
-0.18823
-0.186228
-0.183882
-0.181176
-0.178102
-0.174656
-0.170841
-0.166663
-0.162137
-0.157282
-0.15212
-0.14668
-0.140994
-0.135097
-0.129028
-0.122825
-0.116528
-0.110179
-0.103816
-0.0974785
-0.0912043
-0.0850284
-0.0789838
-0.0731006
-0.0674067
-0.0619268
-0.056683
-0.0516945
-0.0469778
-0.0425468
-0.0384127
-0.0345842
-0.0310678
-0.0278674
-0.0249848
-0.0224196
-0.020169
-0.0182284
-0.0165912
-0.0152484
-0.0141896
-0.0134019
-0.0128713
-0.0125818
-0.0125181
-0.0126607
-0.0129834
-0.0134549
-0.0141535
-0.0149456
-0.0158187
-0.0167548
-0.0177299
-0.0187209
-0.019705
-0.0206554
-0.0215348
-0.0222659
-0.0231566
-0.0238548
-0.0243946
-0.0247805
-0.0250045
-0.0250531
-0.0249158
-0.0245838
-0.02405
-0.0233087
-0.0223562
-0.0211898
-0.0198082
-0.0182121
-0.0164006
-0.0143817
-0.0121479
-0.00972976
-0.00709227
-0.00434014
-0.00135556
-0.224229
-0.223828
-0.225231
-0.224742
-0.223251
-0.222203
-0.221475
-0.220506
-0.219193
-0.217688
-0.216083
-0.214391
-0.212631
-0.210838
-0.209047
-0.207286
-0.205578
-0.203947
-0.202414
-0.200995
-0.199704
-0.198551
-0.197539
-0.19667
-0.195939
-0.195337
-0.194851
-0.194467
-0.194196
-0.194009
-0.193861
-0.193726
-0.19358
-0.193389
-0.193123
-0.192751
-0.192245
-0.191569
-0.19069
-0.189578
-0.188204
-0.186542
-0.184569
-0.182268
-0.179624
-0.176629
-0.17328
-0.169577
-0.165528
-0.161147
-0.156449
-0.151458
-0.1462
-0.140705
-0.135005
-0.129137
-0.123137
-0.117042
-0.110892
-0.104722
-0.0985706
-0.0924717
-0.0864589
-0.080564
-0.0748165
-0.0692438
-0.0638706
-0.0587189
-0.0538081
-0.0491551
-0.0447743
-0.0406776
-0.0368743
-0.0333717
-0.0301746
-0.0272857
-0.0247053
-0.0224318
-0.0204613
-0.018788
-0.0174039
-0.0162989
-0.0154612
-0.0148757
-0.0145252
-0.01439
-0.0144526
-0.0147
-0.0151147
-0.0156813
-0.0163621
-0.0171345
-0.0179777
-0.0188683
-0.0197786
-0.02068
-0.0215452
-0.0223506
-0.023079
-0.0237506
-0.0243056
-0.0247244
-0.0249939
-0.0251024
-0.0250384
-0.0247926
-0.0243574
-0.0237276
-0.0228992
-0.021871
-0.0206419
-0.0192144
-0.0175902
-0.015775
-0.0137743
-0.0115959
-0.00925373
-0.00675155
-0.00412928
-0.00136825
-0.21627
-0.217958
-0.219231
-0.217861
-0.216243
-0.215529
-0.215123
-0.214489
-0.213609
-0.212587
-0.211453
-0.210209
-0.208877
-0.207483
-0.206052
-0.204605
-0.203166
-0.201757
-0.200399
-0.199111
-0.197908
-0.196802
-0.195799
-0.194904
-0.194115
-0.193428
-0.192837
-0.192336
-0.191911
-0.191589
-0.191318
-0.19108
-0.190841
-0.190561
-0.190212
-0.189768
-0.189205
-0.188491
-0.187595
-0.186491
-0.185153
-0.183555
-0.181676
-0.1795
-0.177011
-0.174201
-0.171065
-0.167602
-0.163818
-0.159722
-0.155328
-0.150654
-0.145724
-0.140563
-0.135201
-0.129667
-0.123996
-0.118222
-0.112379
-0.106502
-0.100626
-0.0947839
-0.0890074
-0.0833268
-0.0777696
-0.0723625
-0.0671302
-0.062095
-0.0572767
-0.0526928
-0.0483584
-0.0442865
-0.0404874
-0.0369694
-0.0337387
-0.030799
-0.0281521
-0.0257977
-0.0237332
-0.021954
-0.0204534
-0.0192225
-0.0182507
-0.0175254
-0.0170328
-0.0167575
-0.0166808
-0.0167798
-0.0170356
-0.0174319
-0.0179467
-0.0185557
-0.0192346
-0.0199586
-0.0207024
-0.0214412
-0.0221512
-0.022811
-0.0234022
-0.0239117
-0.0243156
-0.0245943
-0.0247328
-0.0247193
-0.0245437
-0.0241979
-0.0236752
-0.0229718
-0.0220845
-0.021014
-0.0197601
-0.0183282
-0.0167197
-0.0149463
-0.013009
-0.0109292
-0.00870379
-0.00636967
-0.00390922
-0.00137728
-0.203527
-0.210381
-0.211142
-0.20938
-0.207844
-0.207144
-0.206879
-0.206617
-0.206186
-0.205572
-0.204808
-0.203932
-0.202969
-0.201934
-0.200843
-0.199713
-0.198567
-0.197424
-0.196305
-0.19523
-0.194213
-0.193267
-0.192403
-0.191626
-0.190939
-0.190336
-0.189801
-0.189308
-0.188825
-0.18835
-0.187929
-0.187577
-0.187236
-0.18685
-0.186389
-0.185834
-0.18516
-0.18434
-0.183346
-0.182152
-0.180737
-0.179078
-0.177159
-0.174962
-0.172478
-0.169699
-0.166622
-0.163247
-0.159581
-0.155633
-0.151418
-0.146952
-0.142257
-0.137356
-0.132277
-0.127047
-0.121696
-0.116256
-0.110757
-0.10523
-0.0997064
-0.0942157
-0.0887864
-0.0834456
-0.078219
-0.0731305
-0.0682023
-0.0634543
-0.0589045
-0.0545688
-0.050461
-0.0465929
-0.0429741
-0.0396122
-0.0365128
-0.0336795
-0.0311137
-0.0288155
-0.0267827
-0.0250114
-0.0234955
-0.0222273
-0.0211971
-0.020393
-0.0198008
-0.019404
-0.0191859
-0.0191311
-0.0192235
-0.0194447
-0.0197734
-0.0201867
-0.020662
-0.0211766
-0.0217079
-0.0222339
-0.0227335
-0.023187
-0.0235764
-0.0238852
-0.0240965
-0.024195
-0.0241674
-0.0240027
-0.0236919
-0.0232282
-0.0226063
-0.021824
-0.0208793
-0.0197747
-0.0185105
-0.0170948
-0.0155281
-0.0138269
-0.0119879
-0.0100424
-0.00797306
-0.00584018
-0.00358411
-0.00131498
-0.18485
-0.193913
-0.19665
-0.195751
-0.194379
-0.193781
-0.193855
-0.194112
-0.194217
-0.194082
-0.193752
-0.193296
-0.192758
-0.192152
-0.191489
-0.190776
-0.19003
-0.189265
-0.188499
-0.187745
-0.187014
-0.186315
-0.185654
-0.185031
-0.184444
-0.183889
-0.183361
-0.18286
-0.182391
-0.181969
-0.181637
-0.181243
-0.180772
-0.180232
-0.179613
-0.178893
-0.178049
-0.17706
-0.175906
-0.174568
-0.173029
-0.171272
-0.169285
-0.167058
-0.164582
-0.161854
-0.158873
-0.155642
-0.152167
-0.148457
-0.144524
-0.140384
-0.136056
-0.131558
-0.126915
-0.122148
-0.117284
-0.112347
-0.107364
-0.102361
-0.097362
-0.0923932
-0.0874784
-0.0826404
-0.0779011
-0.0732806
-0.0687976
-0.0644696
-0.0603119
-0.0563386
-0.0525617
-0.0489918
-0.0456374
-0.0425056
-0.0396016
-0.0369292
-0.03449
-0.0322838
-0.0303087
-0.0285613
-0.0270362
-0.0257264
-0.0246233
-0.0237165
-0.0229942
-0.0224437
-0.0220519
-0.0218043
-0.0216847
-0.0216756
-0.0217586
-0.0219147
-0.0221246
-0.0223687
-0.0226282
-0.0228842
-0.0231188
-0.0233149
-0.0234567
-0.0235292
-0.0235187
-0.0234126
-0.0231999
-0.0228719
-0.0224208
-0.0218417
-0.0211301
-0.0202852
-0.0193051
-0.0181936
-0.0169505
-0.0155854
-0.0140971
-0.012505
-0.0108009
-0.00902314
-0.00714194
-0.0052342
-0.00320994
-0.00121917
-0.168055
-0.177783
-0.18166
-0.181787
-0.181076
-0.180933
-0.181434
-0.18215
-0.182724
-0.183039
-0.183134
-0.183086
-0.182946
-0.182733
-0.182453
-0.182108
-0.18171
-0.181271
-0.180803
-0.180319
-0.179827
-0.179334
-0.178847
-0.178367
-0.1779
-0.177448
-0.177016
-0.176601
-0.176192
-0.175767
-0.175242
-0.174677
-0.174074
-0.173413
-0.172672
-0.171831
-0.170872
-0.16978
-0.168538
-0.167133
-0.165552
-0.163782
-0.161815
-0.159641
-0.157257
-0.154659
-0.151847
-0.148824
-0.145596
-0.14217
-0.138556
-0.134769
-0.130822
-0.126732
-0.122517
-0.118198
-0.113794
-0.109327
-0.104819
-0.100292
-0.0957656
-0.0912627
-0.0868034
-0.0824072
-0.078093
-0.0738782
-0.0697794
-0.0658116
-0.0619887
-0.0583229
-0.0548251
-0.0515046
-0.0483694
-0.0454258
-0.0426785
-0.0401307
-0.0377841
-0.0356386
-0.0336928
-0.0319438
-0.0303871
-0.029017
-0.0278261
-0.026806
-0.025947
-0.0252382
-0.0246675
-0.0242215
-0.0238862
-0.0236469
-0.0234883
-0.0233945
-0.0233494
-0.0233367
-0.0233403
-0.0233443
-0.0233335
-0.0232935
-0.0232104
-0.0230718
-0.022866
-0.0225828
-0.022213
-0.0217492
-0.0211852
-0.0205167
-0.0197402
-0.0188551
-0.0178599
-0.0167586
-0.0155505
-0.0142455
-0.0128411
-0.0113576
-0.00978354
-0.00815988
-0.00644969
-0.00473704
-0.00291439
-0.00114446
-0.153769
-0.163022
-0.167428
-0.16846
-0.168522
-0.168915
-0.169809
-0.170879
-0.171815
-0.172498
-0.172955
-0.173255
-0.173449
-0.173558
-0.173587
-0.173539
-0.17342
-0.173242
-0.173015
-0.172749
-0.172453
-0.172132
-0.171793
-0.171438
-0.17107
-0.170689
-0.170291
-0.169868
-0.169414
-0.168922
-0.168392
-0.167825
-0.167191
-0.166476
-0.165672
-0.16477
-0.163756
-0.162618
-0.161345
-0.159925
-0.158348
-0.156606
-0.154692
-0.1526
-0.150326
-0.14787
-0.145232
-0.142415
-0.139423
-0.136264
-0.132947
-0.129482
-0.125881
-0.12216
-0.118333
-0.114417
-0.110429
-0.106386
-0.102306
-0.098209
-0.0941117
-0.0900322
-0.0859879
-0.0819956
-0.0780711
-0.0742297
-0.0704854
-0.0668512
-0.0633392
-0.05996
-0.0567231
-0.0536367
-0.0507078
-0.0479419
-0.0453433
-0.0429149
-0.0406583
-0.0385738
-0.0366602
-0.0349154
-0.0333356
-0.0319161
-0.0306508
-0.0295325
-0.0285529
-0.0277026
-0.0269713
-0.026348
-0.0258211
-0.0253782
-0.0250065
-0.0246926
-0.0244231
-0.0241844
-0.0239628
-0.0237454
-0.0235192
-0.0232721
-0.0229928
-0.0226707
-0.022296
-0.0218602
-0.0213558
-0.0207764
-0.0201169
-0.0193739
-0.0185442
-0.0176278
-0.0166231
-0.015534
-0.0143595
-0.0131093
-0.0117797
-0.0103906
-0.00892874
-0.00743449
-0.00586773
-0.00431169
-0.00265326
-0.00105596
-0.140844
-0.149578
-0.154266
-0.155985
-0.156718
-0.157606
-0.15885
-0.160213
-0.161443
-0.162435
-0.163205
-0.163808
-0.164292
-0.164678
-0.164972
-0.165177
-0.1653
-0.165349
-0.165333
-0.165261
-0.165141
-0.164977
-0.164775
-0.164536
-0.164262
-0.163953
-0.163605
-0.163218
-0.16279
-0.162318
-0.161798
-0.161215
-0.160557
-0.159814
-0.158982
-0.158054
-0.157021
-0.155872
-0.154599
-0.153193
-0.151648
-0.149957
-0.148115
-0.146119
-0.143967
-0.141658
-0.139193
-0.136575
-0.133808
-0.1309
-0.127856
-0.124687
-0.121403
-0.118016
-0.114539
-0.110984
-0.107367
-0.103702
-0.100004
-0.0962894
-0.0925721
-0.0888677
-0.0851908
-0.0815558
-0.0779761
-0.0744648
-0.071034
-0.0676949
-0.064458
-0.0613326
-0.058327
-0.0554484
-0.052703
-0.0500957
-0.0476304
-0.0453099
-0.0431356
-0.0411079
-0.0392262
-0.0374886
-0.0358922
-0.034433
-0.0331059
-0.0319048
-0.030823
-0.0298526
-0.0289851
-0.0282112
-0.0275214
-0.0269051
-0.0263516
-0.0258499
-0.0253886
-0.0249567
-0.0245427
-0.024136
-0.0237258
-0.0233021
-0.0228553
-0.0223767
-0.0218583
-0.0212928
-0.0206739
-0.0199966
-0.0192564
-0.0184505
-0.0175762
-0.0166336
-0.0156213
-0.0145429
-0.0133969
-0.0121923
-0.010925
-0.00961336
-0.00824343
-0.00685315
-0.00540199
-0.00396901
-0.00244295
-0.000980068
-0.129304
-0.137548
-0.142337
-0.144523
-0.145774
-0.147073
-0.148619
-0.150233
-0.15171
-0.152961
-0.153995
-0.154859
-0.155593
-0.156218
-0.15674
-0.157165
-0.157496
-0.157743
-0.157912
-0.158011
-0.158047
-0.158024
-0.157946
-0.157816
-0.157634
-0.157402
-0.157119
-0.156785
-0.156398
-0.155954
-0.155445
-0.154865
-0.154208
-0.153468
-0.15264
-0.151717
-0.150694
-0.149562
-0.148316
-0.14695
-0.145458
-0.143836
-0.142081
-0.140191
-0.138165
-0.136002
-0.133705
-0.131276
-0.128719
-0.126039
-0.123244
-0.120341
-0.117339
-0.114248
-0.111078
-0.107841
-0.10455
-0.101215
-0.097851
-0.0944697
-0.0910844
-0.0877077
-0.0843521
-0.0810297
-0.0777523
-0.0745309
-0.0713759
-0.0682972
-0.0653037
-0.0624035
-0.0596038
-0.0569111
-0.0543308
-0.0518672
-0.0495238
-0.0473032
-0.0452068
-0.0432351
-0.0413877
-0.039663
-0.0380589
-0.0365719
-0.0351981
-0.0339323
-0.032769
-0.0317016
-0.0307232
-0.029826
-0.0290019
-0.0282422
-0.0275381
-0.0268804
-0.0262598
-0.0256671
-0.025093
-0.0245284
-0.0239646
-0.0233932
-0.0228064
-0.0221969
-0.0215579
-0.0208835
-0.0201685
-0.0194086
-0.0186001
-0.0177407
-0.016828
-0.0158621
-0.0148418
-0.0137701
-0.0126456
-0.0114762
-0.0102574
-0.0090061
-0.00770812
-0.0063984
-0.00503747
-0.0036987
-0.00227576
-0.000914165
-0.119215
-0.126871
-0.131617
-0.134112
-0.135749
-0.137372
-0.139163
-0.14098
-0.142657
-0.144116
-0.145367
-0.146447
-0.147391
-0.148217
-0.148933
-0.149544
-0.150053
-0.150469
-0.150798
-0.151047
-0.15122
-0.151323
-0.151359
-0.151331
-0.15124
-0.151087
-0.150873
-0.150597
-0.150257
-0.149849
-0.14937
-0.148817
-0.148186
-0.147471
-0.146669
-0.145774
-0.144782
-0.143689
-0.142488
-0.141178
-0.139753
-0.138212
-0.136551
-0.134771
-0.13287
-0.13085
-0.128712
-0.126459
-0.124094
-0.121623
-0.119051
-0.116386
-0.113634
-0.110804
-0.107906
-0.104948
-0.101942
-0.0988973
-0.0958249
-0.0927358
-0.0896409
-0.086551
-0.0834768
-0.0804286
-0.0774165
-0.07445
-0.071538
-0.0686889
-0.0659107
-0.0632103
-0.060594
-0.0580675
-0.0556355
-0.0533019
-0.0510699
-0.0489417
-0.0469189
-0.0450019
-0.0431905
-0.0414837
-0.0398796
-0.0383756
-0.0369684
-0.0356538
-0.0344273
-0.0332834
-0.0322164
-0.0312198
-0.030287
-0.0294108
-0.0285839
-0.0277988
-0.0270476
-0.0263229
-0.0256169
-0.0249221
-0.0242314
-0.0235379
-0.0228349
-0.0221164
-0.0213769
-0.0206115
-0.0198158
-0.0189862
-0.0181195
-0.0172139
-0.0162674
-0.01528
-0.0142505
-0.0131817
-0.0120718
-0.0109281
-0.00974574
-0.00853995
-0.00729683
-0.00604825
-0.00475638
-0.00348872
-0.00214501
-0.000859794
-0.110307
-0.117373
-0.122006
-0.124702
-0.126621
-0.128486
-0.130463
-0.132437
-0.134268
-0.135892
-0.137315
-0.138571
-0.139687
-0.14068
-0.141559
-0.142327
-0.142988
-0.14355
-0.144017
-0.144396
-0.144692
-0.144908
-0.145049
-0.145117