/*--------------------------------*- C++ -*----------------------------------*\
  =========                 |
  \\      /  F ield         | OpenFOAM: The Open Source CFD Toolbox
   \\    /   O peration     | Website:  https://openfoam.org
    \\  /    A nd           | Version:  7
     \\/     M anipulation  |
\*---------------------------------------------------------------------------*/
FoamFile
{
    version     2.0;
    format      ascii;
    class       surfaceScalarField;
    location    "90";
    object      phi;
}
// * * * * * * * * * * * * * * * * * * * * * * * * * * * * * * * * * * * * * //

dimensions      [0 3 -1 0 0 0 0];

internalField   nonuniform List<scalar> 
27710
(
-7.49437e-05
7.67708e-05
-1.82706e-06
-0.00022623
0.000150456
8.30105e-07
-0.000424192
0.000192069
5.89358e-06
-0.000653059
0.000216732
1.21351e-05
-0.000905406
0.000232176
2.01708e-05
-0.00117795
0.000241333
3.1211e-05
-0.00146574
0.000241463
4.6323e-05
-0.0017529
0.000221023
6.61406e-05
-0.00206673
0.000223508
9.03232e-05
0.000130646
0.000120067
-0.00231744
-6.98264e-05
0.000146597
-0.000211475
0.000292105
-0.000395799
0.000376393
-0.000606251
0.000427183
-0.00083378
0.000459705
-0.0010732
0.000480758
-0.00132196
0.000490214
-0.00154523
0.000444298
-0.00180514
0.000483422
0.000269999
-0.0019445
-6.02325e-05
0.00020683
-0.000183285
0.000415158
-0.000340767
0.000533875
-0.000514427
0.000600843
-0.000691915
0.000637193
-0.00086161
0.000650453
-0.00102747
0.000656074
-0.00111805
0.000534882
-0.00125183
0.0006172
0.000194566
-0.0011764
-4.78241e-05
0.000254654
-0.000145612
0.000512946
-0.00026542
0.000653682
-0.000386088
0.000721512
-0.00049106
0.000742165
-0.000556029
0.000715422
-0.000584935
0.00068498
-0.000483353
0.000433299
-0.000360388
0.000494235
-0.000153117
-1.27049e-05
-3.47245e-05
0.000289378
-0.000103548
0.00058177
-0.00017797
0.000728104
-0.000232038
0.00077558
-0.000242397
0.000752524
-0.000178528
0.000651552
1.6252e-05
0.000490201
0.000350803
9.87482e-05
0.000842426
2.61126e-06
-0.00101322
0.00170253
-2.3039e-05
0.000312417
-6.21046e-05
0.000620835
-8.62588e-05
0.000752258
-6.27363e-05
0.000752057
4.82762e-05
0.000641511
0.00027792
0.000421909
0.000721969
4.61516e-05
0.00142226
-0.000601545
0.00238124
-0.000956367
-0.00253618
0.0039042
-1.42871e-05
0.000326704
-2.44888e-05
0.000631037
5.92329e-06
0.000721846
0.00012153
0.00063645
0.000378472
0.000384569
0.000839446
-3.90647e-05
0.00162186
-0.000736263
0.00273488
-0.00171457
0.00426534
-0.00248682
-0.00466668
0.00639583
-9.08884e-06
0.000335793
9.36081e-06
0.000612588
0.000102088
0.000629119
0.000333734
0.000404805
0.000788676
-7.03731e-05
0.00156144
-0.000811827
0.00274233
-0.00191716
0.00432755
-0.00329979
0.00640017
-0.00455944
-0.00702713
0.00876063
-5.72871e-06
0.000341522
4.36156e-05
0.000563243
0.0002164
0.000456334
0.000606089
1.51163e-05
0.00132781
-0.000792097
0.0024898
-0.00197382
0.00407059
-0.00349795
0.006034
-0.00526319
0.00838265
-0.00690809
-0.00913439
0.0104899
-1.12213e-06
0.000342644
8.89761e-05
0.000473145
0.000372934
0.000172376
0.00098278
-0.00059473
0.00203748
-0.0018468
0.00357246
-0.0035088
0.00544177
-0.00536726
0.00748475
-0.00730617
0.0095809
-0.00900424
-0.0107668
0.0112133
6.76691e-06
0.000335877
0.000157658
0.000322254
0.000599682
-0.000269648
0.00149075
-0.00148579
0.00288246
-0.00323851
0.00464089
-0.00526722
0.00653032
-0.0072567
0.00831644
-0.00909229
0.00984109
-0.0105289
-0.0119002
0.0109745
2.21767e-05
0.0003137
0.000262374
8.20567e-05
0.000915853
-0.000923127
0.00210497
-0.00267491
0.00371292
-0.00484646
0.00545102
-0.00700532
0.00707514
-0.00888081
0.00840765
-0.0104248
0.00952694
-0.0116482
-0.0128679
0.0104946
4.81389e-05
0.000265561
0.000413021
-0.000282825
0.00131345
-0.00182355
0.00272515
-0.00408662
0.00433721
-0.00645851
0.0058367
-0.00850482
0.00707623
-0.0101203
0.00805986
-0.0114084
0.00891136
-0.0124997
-0.0136012
0.0096446
8.70146e-05
0.000178547
0.000612501
-0.000808312
0.00174032
-0.00295137
0.00321455
-0.00556085
0.00464265
-0.00788661
0.00581852
-0.00968068
0.00673715
-0.011039
0.00747722
-0.0121485
0.00814188
-0.0131643
-0.0142461
0.00878684
0.000141587
3.69602e-05
0.000847361
-0.00151409
0.00211184
-0.00421584
0.0034843
-0.00693331
0.00464391
-0.00904622
0.00552745
-0.0105642
0.00620599
-0.0117175
0.0067751
-0.0127176
0.00732393
-0.0137132
-0.0147809
0.00785874
0.000214194
-0.000177234
0.00108392
-0.00238381
0.00235578
-0.00548771
0.00352928
-0.00810682
0.00442219
-0.00993912
0.00506985
-0.0112119
0.00557311
-0.0122208
0.00601957
-0.0131641
0.00645927
-0.0141529
-0.0152207
0.00689905
0.000302151
-0.000479385
0.00128128
-0.00336294
0.0024492
-0.00665563
0.00339336
-0.00905097
0.00405334
-0.0105991
0.00451828
-0.0116768
0.00488935
-0.0125918
0.00523137
-0.0135061
0.00557564
-0.0144971
-0.0155675
0.00592246
0.000393576
-0.000872961
0.0014063
-0.00437566
0.00240705
-0.00765638
0.00312781
-0.00977174
0.00359471
-0.011066
0.0039166
-0.0119987
0.00417957
-0.0128548
0.00442841
-0.013755
0.00467692
-0.0147456
-0.0158147
0.00492408
0.000473161
-0.00134612
0.00144204
-0.00534454
0.00225634
-0.00847068
0.00277651
-0.0102919
0.00308516
-0.0113747
0.00329057
-0.0122041
0.00345872
-0.013023
0.0036168
-0.013913
0.0037707
-0.0148995
-0.0159647
0.00392075
0.000528649
-0.00187477
0.00139342
-0.00620931
0.00202519
-0.00910245
0.00237275
-0.0106395
0.00255043
-0.0115523
0.00265561
-0.0123093
0.00273457
-0.0131019
0.00280299
-0.0139815
0.00286332
-0.0149599
-0.016018
0.00291657
0.000552642
-0.00242741
0.00128328
-0.00693995
0.00174004
-0.0095592
0.00193999
-0.0108394
0.00200656
-0.0116189
0.00202105
-0.0123238
0.00201352
-0.0130944
0.00199161
-0.0139595
0.00195602
-0.0149243
-0.0159764
0.00191447
0.000542562
-0.00296998
0.00112649
-0.00752388
0.00142184
-0.00985455
0.00149414
-0.0109117
0.00146367
-0.0115884
0.00139312
-0.0122532
0.00130055
-0.0130018
0.00118846
-0.0138475
0.00105392
-0.0147897
-0.0158319
0.000909369
0.000501207
-0.00347118
0.000936992
-0.00795966
0.00108639
-0.0100039
0.00104713
-0.0108725
0.000928592
-0.0114699
0.000775861
-0.0121005
0.00059911
-0.0128251
0.000397636
-0.013646
0.000175235
-0.0145673
-0.0155602
-9.64602e-05
0.000435444
-0.00390663
0.000727149
-0.00825137
0.000745863
-0.0100227
0.000606916
-0.0107335
0.000405298
-0.0112683
0.000170933
-0.0118661
-8.95648e-05
-0.0125646
-0.000372283
-0.0133633
-0.000690711
-0.0142489
-0.015209
-0.00104189
0.000353302
-0.00425993
0.000507211
-0.00840528
0.000408468
-0.00992391
0.000176755
-0.0105018
-0.000103217
-0.0109883
-0.000409102
-0.0115603
-0.000745673
-0.012228
-0.00111716
-0.0129918
-0.00152659
-0.0138395
-0.0147707
-0.00196494
0.000261849
-0.00452178
0.000286311
-0.00842974
7.69512e-05
-0.00971455
-0.000232732
-0.0101921
-0.000582693
-0.0106383
-0.00096588
-0.0111771
-0.0013814
-0.0118125
-0.0018359
-0.0125373
-0.00232795
-0.0133474
-0.0142452
-0.00285344
0.000166599
-0.00468838
7.49606e-05
-0.0083381
-0.000234013
-0.00940558
-0.000620759
-0.00980539
-0.00104348
-0.0102156
-0.00149916
-0.0107214
-0.00199026
-0.0113214
-0.00252241
-0.0120051
-0.00309449
-0.0127754
-0.0136365
-0.00370317
7.30559e-05
-0.00476143
-0.000139942
-0.0081251
-0.000529751
-0.00901577
-0.00098944
-0.0093457
-0.00148131
-0.00972375
-0.0020066
-0.0101961
-0.00256937
-0.0107586
-0.00317394
-0.0114006
-0.00382195
-0.0121274
-0.0129518
-0.00450657
-1.31659e-05
-0.00474827
-0.00034192
-0.00779635
-0.000810226
-0.00854747
-0.00133601
-0.00881993
-0.00189367
-0.00916608
-0.00248631
-0.00960346
-0.00311822
-0.0101267
-0.00379092
-0.0107279
-0.0044996
-0.0114187
-0.012199
-0.00525242
-0.000119183
-0.00462908
-0.000528891
-0.00738664
-0.00107099
-0.00800537
-0.00165882
-0.0082321
-0.0022786
-0.00854631
-0.00293544
-0.00894661
-0.00363415
-0.009428
-0.00437751
-0.0099845
-0.0051694
-0.0106268
-0.0114259
-0.00594257
-0.000209354
-0.00441973
-0.000701681
-0.00689432
-0.00130991
-0.00739713
-0.00195614
-0.00758588
-0.00263405
-0.00786839
-0.00335042
-0.00823024
-0.00411045
-0.00866797
-0.00491693
-0.00917802
-0.00577081
-0.0097729
-0.0104265
-0.00677017
-0.000290198
-0.00412953
-0.000859017
-0.0063255
-0.00152673
-0.00672942
-0.0022268
-0.0068858
-0.00295861
-0.00713658
-0.00372912
-0.00745973
-0.004542
-0.00785509
-0.00540115
-0.00831886
-0.00632623
-0.00884782
-0.0093989
-0.00735384
-0.000362199
-0.00376733
-0.000999721
-0.00568797
-0.00172061
-0.00600854
-0.00246961
-0.0061368
-0.00325058
-0.00635561
-0.00407144
-0.00663887
-0.0049387
-0.00698784
-0.00586137
-0.0073962
-0.00685418
-0.007855
-0.00834237
-0.00791071
-0.000425052
-0.00334228
-0.00112308
-0.00498995
-0.00189098
-0.00524064
-0.00268355
-0.00534423
-0.00350773
-0.00553144
-0.00437139
-0.0057752
-0.00528246
-0.00607677
-0.00625195
-0.00642671
-0.00729151
-0.00681545
-0.0072377
-0.00839617
-0.000477775
-0.00286451
-0.0012284
-0.00423932
-0.00203741
-0.00443163
-0.00286833
-0.0045133
-0.00373102
-0.00466875
-0.00463404
-0.00487218
-0.00558629
-0.00512452
-0.00659735
-0.00541565
-0.00767451
-0.00573829
-0.00609409
-0.00881812
-0.000518856
-0.00234565
-0.00131533
-0.00344285
-0.00215953
-0.00358743
-0.00302268
-0.00365015
-0.00391718
-0.00377425
-0.00485222
-0.00393714
-0.00583743
-0.0041393
-0.00688177
-0.0043713
-0.00799175
-0.00462831
-0.00491516
-0.00917069
-0.000554154
-0.0017915
-0.00138517
-0.00261183
-0.00225758
-0.00271502
-0.00314699
-0.00276075
-0.00406759
-0.00285365
-0.0050289
-0.00297583
-0.00604069
-0.00312751
-0.00711109
-0.0033009
-0.00824652
-0.00349288
-0.00370885
-0.00945284
-0.000581556
-0.00120994
-0.0014379
-0.00175548
-0.00233121
-0.00182171
-0.00324034
-0.00185162
-0.00418053
-0.00191346
-0.00516149
-0.00199487
-0.00619309
-0.00209591
-0.00728292
-0.00221107
-0.00843722
-0.00233858
-0.00248264
-0.00966343
-0.00060004
-0.000609899
-0.00147325
-0.000882272
-0.00238041
-0.000914552
-0.00330273
-0.0009293
-0.00425605
-0.000960141
-0.00525015
-0.00100077
-0.00629486
-0.0010512
-0.00739733
-0.0011086
-0.00856381
-0.0011721
-0.00124398
-0.00980247
-0.00060932
-5.79707e-07
-0.00149097
-6.21145e-07
-0.00240502
-5.04421e-07
-0.00333394
-3.83384e-07
-0.00429382
-2.54047e-07
-0.00529447
-1.23767e-07
-0.00634567
6.4135e-09
-0.00745441
1.33845e-07
-0.00862677
2.60311e-07
3.79228e-07
-0.00987112
-0.000609305
0.000608725
-0.00149094
0.000881015
-0.00240498
0.000913531
-0.00333388
0.000928524
-0.00429376
0.000959625
-0.0052944
0.00100052
-0.0063456
0.00105121
-0.00745433
0.00110886
-0.00862669
0.00117262
0.00124474
-0.00987105
-0.000599995
0.00120872
-0.00147316
0.00175418
-0.00238028
0.00182065
-0.00330257
0.00185082
-0.00425587
0.00191292
-0.00524995
0.00199459
-0.00629464
0.0020959
-0.0073971
0.00221133
-0.00856357
0.00233909
0.00248339
-0.00980222
-0.00058148
0.0017902
-0.00143775
0.00261045
-0.002331
0.0027139
-0.00324008
0.00275989
-0.00418022
0.00285307
-0.00516115
0.00297552
-0.00619273
0.00312748
-0.00728254
0.00330114
-0.00843683
0.00349337
0.00370959
-0.00966302
-0.000554046
0.00234425
-0.00138496
0.00344136
-0.00225728
0.00358623
-0.00314662
0.00364923
-0.00406716
0.00377361
-0.00502843
0.00393678
-0.00604018
0.00413923
-0.00711055
0.00437151
-0.00824596
0.00462878
0.00491589
-0.00945227
-0.000518711
0.00286296
-0.00131504
0.00423769
-0.00215913
0.00443032
-0.00302219
0.00451228
-0.00391662
0.00466804
-0.00485159
0.00487176
-0.00583676
0.0051244
-0.00688107
0.00541582
-0.00799103
0.00573874
0.00609482
-0.00916995
-0.000477593
0.00334055
-0.00122804
0.00498814
-0.00203691
0.00523919
-0.00286773
0.0053431
-0.00373032
0.00553063
-0.00463327
0.00577471
-0.00558546
0.00607659
-0.00659648
0.00642684
-0.00767361
0.00681588
0.00723842
-0.00881721
-0.000424836
0.00376539
-0.00112265
0.00568595
-0.00189038
0.00600693
-0.00268282
0.00613553
-0.00350688
0.00635469
-0.00437046
0.00663829
-0.00528146
0.00698759
-0.0062509
0.00739628
-0.00729043
0.0078554
0.00834308
-0.00839509
-0.000361945
0.00412733
-0.000999208
0.00632322
-0.0017199
0.00672762
-0.00246875
0.00688438
-0.00324959
0.00713553
-0.00407034
0.00745904
-0.00493751
0.00785477
-0.00586012
0.00831889
-0.0068529
0.00884818
0.00939962
-0.00790944
-0.000289905
0.00441724
-0.000858418
0.00689173
-0.0015259
0.0073951
-0.00222579
0.00758428
-0.00295745
0.00786718
-0.00372784
0.00822943
-0.00454062
0.00866755
-0.00539973
0.00917799
-0.00632477
0.00977322
0.0104272
-0.00735235
-0.000209022
0.00462626
-0.000700987
0.00738369
-0.00130895
0.00800307
-0.00195497
0.00823029
-0.00263271
0.00854492
-0.00334894
0.00894565
-0.00410886
0.00942747
-0.00491524
0.00998438
-0.00576906
0.010627
0.0114264
-0.00676828
-0.000118807
0.00474507
-0.000528094
0.00779298
-0.00106989
0.00854486
-0.00165748
0.00881788
-0.00227706
0.0091645
-0.00293375
0.00960234
-0.00363233
0.010126
-0.00437559
0.0107276
-0.00516745
0.0114189
0.0121997
-0.0059407
-1.26281e-05
0.00475769
-0.000341012
0.00812136
-0.000808979
0.00901283
-0.00133449
0.00934339
-0.00189193
0.00972194
-0.00248438
0.0101948
-0.00311616
0.0107578
-0.00378877
0.0114003
-0.00449742
0.0121275
0.0129525
-0.00525025
7.34307e-05
0.00468426
-0.000138911
0.00833371
-0.000528354
0.00940227
-0.000987725
0.00980276
-0.00147934
0.0102136
-0.00200443
0.0107199
-0.00256705
0.0113204
-0.00317152
0.0120047
-0.00381949
0.0127755
0.0136371
-0.00450412
0.000167036
0.00451723
7.59767e-05
0.00842476
-0.000232482
0.00971073
-0.000618837
0.0101891
-0.00104126
0.010636
-0.00149672
0.0111753
-0.00198764
0.0118114
-0.00251969
0.0125368
-0.00309173
0.0133475
0.0142458
-0.00370043
0.000262311
0.00425492
0.000287473
0.0083996
7.87429e-05
0.00991946
-0.000230601
0.0104985
-0.000580206
0.0109856
-0.000963139
0.0115583
-0.00137844
0.0122267
-0.00183282
0.0129912
-0.00232484
0.0138396
0.0147714
-0.00285037
0.000353753
0.00390116
0.00050845
0.00824491
0.000410371
0.0100175
0.000179186
0.0107296
-0.00010048
0.0112653
-0.000406038
0.0118638
-0.000742337
0.012563
-0.0011137
0.0133625
-0.00152307
0.0142489
0.0152098
-0.00196148
0.000435838
0.00346533
0.000728416
0.00795233
0.000747923
0.00999803
0.000609569
0.010868
0.000408441
0.0114664
0.000174444
0.0120978
-8.58779e-05
0.0128233
-0.000368383
0.013645
-0.000686702
0.0145673
0.0155611
-0.001038
0.000501486
0.00296384
0.000938229
0.00751558
0.00108857
0.0098477
0.00105003
0.0109065
0.000932048
0.0115844
0.000779758
0.0122501
0.000603388
0.0129997
0.000402119
0.0138463
0.00017969
0.0147897
0.0158329
-9.21692e-05
0.000542663
0.00242118
0.00112762
0.00693063
0.00142409
0.00955123
0.00149727
0.0108333
0.00146748
0.0116142
0.00139748
0.0123201
0.00130535
0.0130918
0.00119356
0.0139581
0.00105916
0.0149241
0.0159775
0.000914596
0.000552513
0.00186866
0.00128419
0.00619895
0.00174224
0.00909318
0.0019433
0.0106323
0.00201073
0.0115467
0.00202591
0.0123049
0.00201895
0.0130987
0.00199746
0.0139796
0.00196209
0.0149595
0.0160191
0.0019205
0.000528274
0.00134039
0.00139398
0.00533325
0.0020272
0.00845995
0.00237614
0.0102833
0.00255492
0.011368
0.002661
0.0121989
0.00274071
0.013019
0.0028097
0.0139106
0.00287034
0.0148988
0.0159659
0.00292358
0.000472563
0.000867827
0.00144206
0.00436375
0.00225794
0.00764407
0.00277981
0.00976147
0.0030899
0.0110579
0.00329649
0.0119923
0.00346563
0.0128499
0.0036245
0.0137517
0.00377892
0.0147444
0.0158157
0.00392908
0.000392816
0.000475011
0.00140555
0.00335102
0.00240793
0.00664169
0.00313075
0.00903865
0.00359954
0.0105891
0.00392302
0.0116688
0.00418733
0.0125856
0.00443728
0.0135018
0.00468656
0.0144951
0.0155682
0.00493402
0.000301339
0.000173672
0.00127976
0.0023726
0.00244902
0.00547244
0.0033955
0.00809216
0.00405792
0.00992667
0.00452504
0.0112017
0.00489798
0.0122126
0.00524156
0.0131582
0.005587
0.0141497
0.0152209
0.00593438
0.000213445
-3.97737e-05
0.00108177
0.00150428
0.00235413
0.00420007
0.00353001
0.00691629
0.00442597
0.00903071
0.00507663
0.010551
0.00558255
0.0117067
0.00603124
0.0127095
0.00647268
0.0137082
0.0147801
0.00691342
0.000140906
-0.00018068
0.000844803
0.000800378
0.00210849
0.00293638
0.00348283
0.00554195
0.004646
0.00786753
0.00553359
0.00966342
0.00621597
0.0110243
0.00678836
0.0121371
0.00733972
0.0131569
0.0142437
0.00787612
8.6322e-05
-0.000267002
0.000609713
0.000276987
0.00173543
0.00181067
0.00321016
0.00406722
0.00464177
0.00643592
0.00582282
0.00848238
0.00674691
0.0101003
0.00749193
0.0113921
0.00816057
0.0124882
0.0135965
0.00880774
4.72828e-05
-0.000314284
0.000409954
-8.56843e-05
0.00130741
0.000913211
0.00271767
0.00265696
0.00433191
0.00482169
0.00583711
0.00697717
0.0070843
0.00885306
0.0080753
0.0104011
0.00893302
0.0116305
0.0128591
0.0096705
2.10454e-05
-0.00033533
0.000258823
-0.000323461
0.000908979
0.000263054
0.002095
0.00147093
0.0037026
0.00321409
0.00544502
0.00523476
0.00707825
0.00721983
0.00842196
0.00905737
0.00955173
0.0105008
0.0118852
0.0105256
5.41172e-06
-0.000340742
0.000153577
-0.000471627
0.000592212
-0.000175581
0.00147934
0.000583807
0.00286815
0.00182528
0.00462754
0.00347536
0.00652453
0.00532284
0.00832351
0.0072584
0.00986803
0.00895623
0.0107382
0.0110151
-3.03203e-06
-0.00033771
8.46995e-05
-0.000559358
0.000365517
-0.000456398
0.00097134
-2.20161e-05
0.00202167
0.000774947
0.00355406
0.00194298
0.00542679
0.00345011
0.00747786
0.00520732
0.0096002
0.00683389
0.00908485
0.0112535
-7.2921e-06
-0.000330417
3.99226e-05
-0.000606573
0.000210213
-0.000626689
0.00059672
-0.000408523
0.00131413
5.75357e-05
0.00247147
0.000785639
0.00405134
0.00187024
0.00601567
0.00324299
0.0083846
0.00446497
0.00695226
0.0105172
-1.01752e-05
-0.000320242
7.04485e-06
-0.000623793
9.85514e-05
-0.000718196
0.000328689
-0.000638661
0.000781108
-0.000394884
0.0015498
1.69445e-05
0.00272832
0.000691723
0.00431038
0.00166093
0.00639042
0.00238493
0.00456886
0.00877382
-1.48193e-05
-0.000305423
-2.51367e-05
-0.000613475
5.85422e-06
-0.000749186
0.000122264
-0.00075507
0.000379769
-0.000652389
0.000840304
-0.000443591
0.00162227
-9.02441e-05
0.00273543
0.000547775
0.0042671
0.000853254
0.00242048
0.00641549
-2.29512e-05
-0.000282472
-6.09786e-05
-0.000575448
-8.30025e-05
-0.000727163
-5.64426e-05
-0.00078163
5.83074e-05
-0.000767139
0.000293266
-0.000678549
0.000741203
-0.000538181
0.00144955
-0.000160572
0.00241234
-0.000109535
0.000882845
0.00394997
-3.41269e-05
-0.000248345
-0.000101089
-0.000508486
-0.000172311
-0.00065594
-0.000221769
-0.000732173
-0.000225675
-0.000763233
-0.000153821
-0.000750403
4.84018e-05
-0.000740404
0.000404282
-0.000516453
0.000904156
-0.000609409
-1.15168e-06
0.00178815
-4.69442e-05
-0.000201401
-0.000142534
-0.000412896
-0.000258809
-0.000539665
-0.000374401
-0.00061658
-0.000472248
-0.000665386
-0.000527215
-0.000695437
-0.000542359
-0.00072526
-0.00042415
-0.000634662
-0.000278503
-0.000755055
-0.000384988
0.000105333
-5.93432e-05
-0.000142057
-0.000180377
-0.000291862
-0.000334735
-0.000385308
-0.000503939
-0.000447376
-0.000675109
-0.000494216
-0.000835691
-0.000534855
-0.000989455
-0.000571496
-0.00106325
-0.00056087
-0.00117489
-0.000643409
-0.000486931
-0.00107295
-6.91774e-05
-7.288e-05
-0.000209423
-0.000151616
-0.000391625
-0.000203106
-0.000599062
-0.00023994
-0.000822281
-0.000270997
-0.00105554
-0.000301592
-0.00129593
-0.000331107
-0.00150755
-0.000349256
-0.00175225
-0.000398702
-0.000365023
-0.00187416
-7.47071e-05
-0.000225493
-0.000422705
-0.00065051
-0.000901336
-0.00117172
-0.0014565
-0.00173962
-0.00204799
-0.00229295
-0.0023596
-2.46277e-05
6.67836e-05
-0.00239822
-3.14621e-05
7.00807e-05
-0.00243221
-3.83641e-05
7.23555e-05
-0.00246194
-4.37411e-05
7.34676e-05
-0.00248785
-4.73182e-05
7.32332e-05
-0.00251039
-4.89668e-05
7.15072e-05
-0.00252992
-4.86508e-05
6.81785e-05
-0.00254673
-4.63517e-05
6.31576e-05
-0.00256103
-4.2076e-05
5.63808e-05
-0.002573
-3.58458e-05
4.78107e-05
-0.00258273
-2.77077e-05
3.74368e-05
-0.00259024
-1.77516e-05
2.52702e-05
-0.00259539
-6.17614e-06
1.13249e-05
-0.00259883
7.62707e-06
-4.19275e-06
-0.00260068
2.2892e-05
-2.10408e-05
-0.00260085
3.93996e-05
-3.92261e-05
-0.00259933
5.70156e-05
-5.85364e-05
-0.00259611
7.55292e-05
-7.87506e-05
-0.00259118
9.46964e-05
-9.96245e-05
-0.00258454
0.000114249
-0.000120892
-0.00257617
0.0001339
-0.000142269
-0.00256606
0.000153348
-0.000163453
-0.00255421
0.000172274
-0.000184131
-0.00254057
0.000190344
-0.000203982
-0.00252514
0.000207251
-0.000222684
-0.00250789
0.000222675
-0.000239916
-0.00248883
0.000236297
-0.000255363
-0.00246792
0.000247806
-0.000268715
-0.00244515
0.000256906
-0.000279679
-0.00242049
0.000263321
-0.000287978
-0.00239393
0.000266796
-0.000293355
-0.00236545
0.000267105
-0.00029558
-0.00233505
0.000264051
-0.000294454
-0.00230271
0.000257477
-0.000289814
-0.00226844
0.000247263
-0.000281539
-0.00223223
0.000233338
-0.00026955
-0.00219409
0.000215674
-0.000253816
-0.00215403
0.000194295
-0.000234355
-0.00211207
0.000169276
-0.000211233
-0.00206824
0.000140738
-0.000184569
-0.00202255
0.000108842
-0.000154532
-0.00197497
7.37618e-05
-0.000121337
-0.00192547
3.573e-05
-8.52329e-05
-0.00187436
-4.53586e-06
-4.65708e-05
-0.00182295
-4.59716e-05
-5.43859e-06
-0.00176953
-8.96886e-05
3.62613e-05
-0.00171485
-0.000134969
8.02964e-05
-0.00165902
-0.000181242
0.000125411
-0.00160233
-0.000227678
0.000170987
-0.0015449
-0.000273999
0.000216573
-0.00148686
-0.000319713
0.000261666
-0.0014283
-0.000364317
0.000305762
-0.00136934
-0.000407329
0.000348362
-0.00131003
-0.00044828
0.000388979
-0.00125046
-0.000486719
0.000427145
-0.00119065
-0.000522224
0.000462413
-0.00113061
-0.000554404
0.000494363
-0.00107031
-0.0005829
0.0005226
-0.00100969
-0.000607395
0.000546774
-0.000948654
-0.0006276
0.000566568
-0.000887098
-0.000643258
0.000581702
-0.000824887
-0.000654157
0.000591945
-0.000761872
-0.000660137
0.000597123
-0.000697898
-0.000661083
0.000597109
-0.000632783
-0.000656922
0.000591806
-0.000566354
-0.000647638
0.000581209
-0.000498456
-0.000633274
0.000565376
-0.000428998
-0.000613883
0.000544425
-0.000357969
-0.000589474
0.000518445
-0.000285517
-0.000560129
0.000487677
-0.000211276
-0.000526724
0.000452483
-0.000135082
-0.00048912
0.000412925
-5.71985e-05
-0.000447592
0.000369709
2.23467e-05
-0.000402575
0.00032303
0.000103845
-0.000354619
0.000273121
0.000186628
-0.000303642
0.00022086
0.000270531
-0.000250387
0.000166484
0.000355412
-0.000195303
0.000110421
0.000440997
-0.000138905
5.33204e-05
0.000526731
-8.15975e-05
-4.13615e-06
0.000611855
-2.38652e-05
-6.12595e-05
0.000697151
3.30662e-05
-0.000118362
0.000782011
8.97962e-05
-0.000174656
0.000866141
0.000145525
-0.000229656
0.000949316
0.000199741
-0.000282916
0.00103136
0.00025199
-0.000334031
0.00111212
0.000301861
-0.000382629
0.00119153
0.000348968
-0.000428375
0.00126954
0.000392959
-0.000470964
0.00134615
0.000433511
-0.000510125
0.00142144
0.000470332
-0.000545618
0.00149551
0.000503159
-0.000577231
0.00156853
0.000531764
-0.000604781
0.00164069
0.000555949
-0.000628112
0.00171223
0.00057555
-0.000647092
0.00178341
0.000590436
-0.000661615
0.0018545
0.000600511
-0.000671601
0.00192578
0.000605712
-0.000676992
0.00199752
0.000606015
-0.000677757
0.00206998
0.000601431
-0.000673891
0.00214339
0.00059201
-0.000665415
0.00221793
0.000577839
-0.000652383
0.00229376
0.000559041
-0.000634873
0.00237098
0.000535777
-0.000612996
0.00244963
0.000508242
-0.000586892
0.0025297
0.000476661
-0.000556728
0.00261111
0.00044129
-0.000522699
0.00269372
0.000402408
-0.000485022
0.00277734
0.000360313
-0.000443934
0.00286171
0.000315316
-0.000399685
0.00294652
0.000267732
-0.000352536
0.00303138
0.000217876
-0.000302742
0.00311589
0.000166046
-0.000250547
0.00319953
0.000112525
-0.000196173
0.00328175
5.75631e-05
-0.00013978
0.0033619
1.30344e-06
-8.14542e-05
0.00343856
-5.54297e-05
-2.12301e-05
0.00351191
-0.000113769
4.04154e-05
0.00357952
-0.000171172
0.000103566
-0.000240113
0.000177835
-0.00198235
1.3228e-05
-0.00201585
2.03571e-06
-0.00204601
-8.20489e-06
-0.0020725
-1.7249e-05
-0.00209542
-2.4401e-05
-0.00211503
-2.93612e-05
-0.00213158
-3.20915e-05
-0.00214533
-3.26029e-05
-0.00215643
-3.09762e-05
-0.002165
-2.72786e-05
-0.00217112
-2.15879e-05
-0.00217483
-1.40421e-05
-0.00217609
-4.91703e-06
-0.00217513
6.67158e-06
-0.00217227
2.00252e-05
-0.00216745
3.45845e-05
-0.00216066
5.02285e-05
-0.00215189
6.67579e-05
-0.00214113
8.39332e-05
-0.00212837
0.000101486
-0.0021136
0.00011913
-0.00209682
0.00013657
-0.00207804
0.000153491
-0.00205719
0.000169493
-0.00203426
0.000184328
-0.00200927
0.000197682
-0.0019822
0.000209229
-0.00195306
0.000218661
-0.00192184
0.000225686
-0.00188855
0.000230034
-0.00185321
0.000231457
-0.00181584
0.000229737
-0.00177648
0.000224685
-0.00173515
0.000216149
-0.00169191
0.00020402
-0.0016468
0.000188234
-0.0015999
0.000168774
-0.00155128
0.00014567
-0.00150101
0.000119006
-0.00144914
8.88721e-05
-0.00139572
5.54169e-05
-0.0013405
1.85444e-05
-0.00128519
-1.95749e-05
-0.00122964
-6.00871e-05
-0.00117284
-0.000102773
-0.00111537
-0.000147159
-0.00105742
-0.000192921
-0.00099907
-0.00023959
-0.000941065
-0.000285684
-0.000883458
-0.000331606
-0.000826465
-0.000376706
-0.000770277
-0.000420505
-0.000715062
-0.000462545
-0.000660962
-0.00050238
-0.000608092
-0.000539589
-0.000556534
-0.000573783
-0.000506329
-0.000604608
-0.000457478
-0.000631752
-0.000409942
-0.000654931
-0.000363647
-0.000673896
-0.000318464
-0.000688441
-0.00027421
-0.00069841
-0.000230662
-0.000703686
-0.000187558
-0.000704188
-0.000144604
-0.000699875
-0.000101495
-0.000690748
-5.79161e-05
-0.000676853
-1.35189e-05
-0.00065828
3.22476e-05
-0.000635241
8.01172e-05
-0.000607998
0.000129569
-0.000576176
0.00018088
-0.00054043
0.000234296
-0.000501009
0.000289912
-0.000458191
0.000347624
-0.000412332
0.00040771
-0.000363728
0.000470125
-0.000312802
0.000534825
-0.000260004
0.000601697
-0.000205777
0.000670691
-0.000150591
0.000741758
-9.49329e-05
0.000814105
-3.92805e-05
0.000888121
1.57797e-05
0.000963586
7.00605e-05
0.00104036
0.000122968
0.00111831
0.000174036
0.00119735
0.000222826
0.00127739
0.000268928
0.00135839
0.00031196
0.00144033
0.000351572
0.00152322
0.000387441
0.0016071
0.00041928
0.00169203
0.000446835
0.00177808
0.00046989
0.00186537
0.000488268
0.00195397
0.000501832
0.00204399
0.000510489
0.00213552
0.000514185
0.00222862
0.000512915
0.00232334
0.000506715
0.00241968
0.000495665
0.00251763
0.000479892
0.00261711
0.000459559
0.00271801
0.000434875
0.00282017
0.000406081
0.00292338
0.000373456
0.00302736
0.000337306
0.00313181
0.000297957
0.00323637
0.000255759
0.00334061
0.000211073
0.00344408
0.000164264
0.00354629
0.000115665
0.00364661
6.57212e-05
0.00374454
1.45936e-05
0.00383899
-3.68823e-05
0.00392935
-8.90577e-05
0.00401497
-0.000141051
0.00409481
-0.000193606
0.00416628
-0.000242645
-0.000303511
-0.00120625
4.30798e-05
-0.00123203
2.78173e-05
-0.00125718
1.69391e-05
-0.00127886
4.43234e-06
-0.00129755
-5.71201e-06
-0.0013137
-1.32096e-05
-0.00132718
-1.8606e-05
-0.00133794
-2.1845e-05
-0.00134595
-2.29625e-05
-0.00135124
-2.19888e-05
-0.00135388
-1.89557e-05
-0.0013539
-1.40139e-05
-0.00135145
-7.37474e-06
-0.0013457
9.2071e-07
-0.00133791
1.22408e-05
-0.00132777
2.44475e-05
-0.00131526
3.7716e-05
-0.00130038
5.18802e-05
-0.00128316
6.67048e-05
-0.00126359
8.19209e-05
-0.00124169
9.72284e-05
-0.00121741
0.000112293
-0.00119106
0.000127136
-0.00116226
0.000140692
-0.00113108
0.000153153
-0.00109757
0.000164173
-0.00106174
0.000173399
-0.00102361
0.000180528
-0.000983208
0.000185283
-0.000940578
0.000187404
-0.000895776
0.000186655
-0.000848868
0.000182829
-0.000799932
0.000175749
-0.000749052
0.00016527
-0.000696317
0.000151286
-0.000641827
0.000133744
-0.000585692
0.000112638
-0.000527985
8.79629e-05
-0.000468789
5.98106e-05
-0.000408115
2.81975e-05
-0.000346448
-6.24947e-06
-0.000285479
-4.2425e-05
-0.00022353
-8.15235e-05
-0.000160903
-0.000122714
-9.80581e-05
-0.000165618
-3.54183e-05
-0.000209799
2.64338e-05
-0.000254773
8.65535e-05
-0.000299709
0.000145908
-0.000345038
0.000203993
-0.000389691
0.00026058
-0.000433293
0.000315429
-0.000475354
0.0003683
-0.000515416
0.000418979
-0.000553059
0.000467284
-0.000587894
0.000513065
-0.000619564
0.000556204
-0.000647748
0.000596616
-0.000672163
0.000634261
-0.000692577
0.000669181
-0.000708816
0.000701504
-0.000720764
0.000731429
-0.000728335
0.00075922
-0.000731477
0.0007852
-0.000730168
0.000809744
-0.000724419
0.000833268
-0.000714272
0.000856217
-0.000699802
0.000879049
-0.000681111
0.000902152
-0.000658344
0.00092583
-0.000631676
0.000950848
-0.000601194
0.000977545
-0.000567127
0.00100628
-0.000529741
0.00103739
-0.000489303
0.00107116
-0.000446104
0.00110788
-0.000400447
0.00114776
-0.000352682
0.00119095
-0.000303195
0.00123757
-0.00025239
0.00128767
-0.000200693
0.00134128
-0.000148542
0.00139841
-9.64123e-05
0.00145896
-4.47735e-05
0.00152276
6.26019e-06
0.00158986
5.58716e-05
0.00166019
0.000103703
0.0017337
0.00014932
0.00181031
0.000192319
0.00188995
0.000232318
0.00197256
0.000268961
0.00205808
0.00030192
0.00214646
0.0003309
0.00223765
0.000355645
0.0023316
0.000375938
0.00242826
0.000391605
0.00252757
0.000402522
0.00262946
0.000408607
0.00273382
0.000409826
0.00284054
0.000406196
0.00294947
0.00039778
0.00306044
0.000384692
0.00317325
0.000367089
0.00328763
0.000345176
0.00340331
0.000319193
0.00351997
0.000289426
0.00363724
0.000256187
0.00375472
0.000219825
0.00387197
0.000180701
0.00398854
0.000139193
0.00410388
9.57342e-05
0.00421748
5.06647e-05
0.00432887
4.27591e-06
0.00443708
-4.24877e-05
0.00454159
-8.99169e-05
0.00464196
-0.000137254
0.00473721
-0.000184313
0.00482638
-0.00023022
0.00490881
-0.000276031
0.00498238
-0.000316214
-0.000367628
-2.6926e-05
5.7301e-05
-5.0824e-05
5.17153e-05
-7.19597e-05
3.80748e-05
-9.25451e-05
2.50178e-05
-0.000111805
1.35475e-05
-0.000128119
3.10484e-06
-0.000142066
-4.65915e-06
-0.000153783
-1.01282e-05
-0.000162847
-1.38984e-05
-0.000169051
-1.57847e-05
-0.000172342
-1.56643e-05
-0.000172614
-1.37427e-05
-0.000169877
-1.01114e-05
-0.00016403
-4.92619e-06
-0.000154131
2.34148e-06
-0.000141542
1.1859e-05
-0.000126072
2.22456e-05
-0.0001077
3.35088e-05
-8.64364e-05
4.54409e-05
-6.23014e-05
5.77858e-05
-3.53569e-05
7.02839e-05
-5.69524e-06
8.26316e-05
2.73542e-05
9.40864e-05
6.28928e-05
0.000105154
0.000100935
0.000115111
0.000141542
0.000123566
0.000184694
0.000130246