/*--------------------------------*- C++ -*----------------------------------*\
  =========                 |
  \\      /  F ield         | OpenFOAM: The Open Source CFD Toolbox
   \\    /   O peration     | Website:  https://openfoam.org
    \\  /    A nd           | Version:  7
     \\/     M anipulation  |
\*---------------------------------------------------------------------------*/
FoamFile
{
    version     2.0;
    format      ascii;
    class       volVectorField;
    location    "90";
    object      U;
}
// * * * * * * * * * * * * * * * * * * * * * * * * * * * * * * * * * * * * * //

dimensions      [0 1 -1 0 0 0 0];

internalField   nonuniform List<vector> 
14000
(
(-0.00752684 0.00547318 -4.85991e-22)
(-0.0296639 0.00900227 9.68571e-22)
(-0.0613009 0.00931066 6.21799e-20)
(-0.090613 0.00838357 1.08466e-20)
(-0.116953 0.00689848 2.10964e-20)
(-0.140144 0.00508322 -1.22067e-20)
(-0.15992 0.00289425 -2.26424e-20)
(-0.175382 5.66062e-06 2.19785e-20)
(-0.189292 -0.00187783 2.15179e-20)
(-0.194619 -0.00657182 1.67784e-20)
(-0.00865309 0.0154878 -7.88347e-20)
(-0.0306852 0.0266518 5.2195e-20)
(-0.0607454 0.0288382 -7.10223e-20)
(-0.0878891 0.02744 3.83675e-21)
(-0.111545 0.0245527 -5.07266e-20)
(-0.131574 0.0210402 6.24004e-21)
(-0.148033 0.0170186 3.2556e-20)
(-0.158163 0.0107901 -1.43182e-19)
(-0.169422 0.00893121 3.53392e-20)
(-0.166599 -0.00314949 1.7457e-22)
(-0.0107409 0.0243052 1.46853e-19)
(-0.0325833 0.0425169 -1.29532e-20)
(-0.0595608 0.0465807 9.87602e-20)
(-0.0823798 0.0448256 -9.24798e-21)
(-0.1006 0.0406733 -1.08281e-19)
(-0.113923 0.0355786 7.99732e-20)
(-0.123877 0.0303678 -3.43869e-20)
(-0.121586 0.0201941 3.43913e-20)
(-0.128054 0.0205474 -1.04533e-19)
(-0.106754 -0.00126352 1.48116e-19)
(-0.0135809 0.0313177 1.74174e-20)
(-0.0352505 0.0555557 -2.33808e-19)
(-0.0578785 0.0613758 -1.3922e-19)
(-0.0743665 0.0593507 7.32743e-20)
(-0.0845274 0.0540988 8.69838e-20)
(-0.0870765 0.0475415 -1.44932e-19)
(-0.0877607 0.0415392 6.21316e-20)
(-0.0637407 0.0277974 4.12785e-20)
(-0.0633379 0.0312379 1.65855e-19)
(-0.00745486 0.0036338 -2.1363e-19)
(-0.0169358 0.0361958 -7.39622e-20)
(-0.0385297 0.0649942 1.15218e-19)
(-0.05579 0.0722026 3.37348e-19)
(-0.0640253 0.0698595 -1.6833e-19)
(-0.0635574 0.0635704 1.56266e-19)
(-0.0508401 0.055986 2.63915e-19)
(-0.0384037 0.0472027 -7.21434e-21)
(0.0163975 0.0349811 7.4483e-21)
(0.0266864 0.0375369 -2.45122e-19)
(0.13904 0.0155276 1.14925e-19)
(-0.0206031 0.0389184 -1.75538e-19)
(-0.0421814 0.0703974 1.03986e-19)
(-0.0531567 0.0782881 -4.71098e-19)
(-0.0510707 0.0753796 2.29504e-19)
(-0.0367034 0.0678601 3.23051e-20)
(-0.00447415 0.0602221 -2.97805e-19)
(0.0293195 0.0462773 -8.73569e-20)
(0.127543 0.0423934 8.73454e-20)
(0.143841 0.0333547 1.65667e-19)
(0.349677 0.0296056 -9.20341e-20)
(-0.0244544 0.039733 -1.92712e-20)
(-0.0457882 0.071686 -3.27141e-19)
(-0.049257 0.0792301 3.23326e-19)
(-0.0341387 0.0753073 -2.32635e-19)
(-0.00070865 0.0665894 5.77386e-20)
(0.0578205 0.0600399 1.93641e-19)
(0.123886 0.0408389 -3.55109e-19)
(0.274605 0.049794 -1.48637e-19)
(0.30658 0.0274291 1.26183e-19)
(0.6101 0.0430745 7.31422e-20)
(-0.0284326 0.0390526 1.92698e-19)
(-0.0485997 0.0690983 5.64672e-19)
(-0.0423092 0.0751086 -5.45153e-19)
(-0.00956757 0.0697728 1.33425e-19)
(0.0509486 0.0604836 3.34321e-19)
(0.146109 0.055874 -1.70285e-19)
(0.262812 0.0388804 -5.41804e-20)
(0.455097 0.0551332 -2.0116e-19)
(0.539317 0.0374111 2.39585e-19)
(0.87109 0.0653399 -1.67212e-19)
(-0.0324444 0.0372661 -3.53374e-19)
(-0.0493617 0.0631477 9.76907e-20)
(-0.0289535 0.0665493 2.03938e-19)
(0.0293535 0.059989 -1.01457e-19)
(0.12935 0.0522557 -3.43215e-19)
(0.273919 0.0510877 4.068e-19)
(0.453147 0.0500935 2.58263e-19)
(0.662579 0.0633361 2.32587e-19)
(0.817326 0.0678126 -1.89201e-19)
(1.07853 0.0935024 1.42864e-19)
(-0.0361429 0.0346158 -8.77813e-20)
(-0.0460683 0.0544744 -2.85584e-19)
(-0.00397862 0.0547754 -1.69508e-19)
(0.0924307 0.0487746 1.99198e-19)
(0.247015 0.047435 3.82555e-20)
(0.450015 0.0550858 -2.39687e-19)
(0.674794 0.073375 2.79199e-19)
(0.882207 0.0860067 -3.91799e-19)
(1.05451 0.109605 -2.19753e-19)
(1.19651 0.114353 7.59207e-20)
(-0.0388808 0.0312357 2.14447e-19)
(-0.0356855 0.0436812 3.0096e-19)
(0.0396703 0.0417486 1.25081e-19)
(0.190635 0.0409202 1.74353e-19)
(0.409804 0.0528523 -1.01116e-19)
(0.660027 0.0760875 -2.58706e-19)
(0.890131 0.104648 1.03059e-19)
(1.06973 0.121044 1.2628e-19)
(1.18885 0.142981 4.19723e-19)
(1.23228 0.118193 -2.45706e-19)
(-0.0397183 0.0270833 3.19703e-19)
(-0.0142291 0.0313449 -3.9001e-20)
(0.110178 0.0306227 2.88287e-19)
(0.33057 0.0430445 -1.28157e-19)
(0.605733 0.0736123 3.91678e-19)
(0.86548 0.110134 1.55172e-19)
(1.06092 0.139224 1.91801e-19)
(1.18349 0.153318 -3.13728e-19)
(1.2355 0.15622 -1.27771e-19)
(1.25963 0.141801 1.22335e-19)
(-0.0373137 0.0219831 2.29108e-20)
(0.0231403 0.018403 -2.81634e-19)
(0.21474 0.0265137 -2.674e-19)
(0.505601 0.0606388 -6.74986e-20)
(0.80264 0.107771 -1.06671e-19)
(1.02947 0.147212 1.16025e-19)
(1.16729 0.169329 -4.80395e-19)
(1.23175 0.172606 3.20671e-19)
(1.25483 0.170568 -3.31205e-21)
(1.25837 0.152097 -3.76253e-19)
(-0.029942 0.0158182 -4.55955e-19)
(0.0818614 0.00700907 -9.29856e-20)
(0.354592 0.0356467 -9.85818e-21)
(0.691927 0.093155 2.87408e-20)
(0.96759 0.146857 1.50515e-19)
(1.13832 0.179896 -4.69502e-19)
(1.22083 0.190832 4.58888e-19)
(1.2511 0.188506 -1.01003e-19)
(1.25382 0.179015 5.89822e-20)
(1.24758 0.161681 9.67098e-20)
(-0.0154905 0.00875808 1.2182e-20)
(0.166587 0.00179972 3.73772e-19)
(0.518448 0.0612131 9.48905e-20)
(0.860821 0.133995 -5.09232e-20)
(1.08704 0.183862 -4.26562e-20)
(1.20137 0.206105 2.73236e-19)
(1.24469 0.208393 -1.25751e-21)
(1.25211 0.2003 1.99004e-19)
(1.24596 0.187488 -6.20121e-20)
(1.23922 0.171847 -2.93581e-21)
(0.00882824 0.00158539 7.44889e-20)
(0.278005 0.0094502 -1.35633e-19)
(0.684157 0.100263 1.0667e-19)
(0.995886 0.176649 1.40773e-19)
(1.16522 0.21666 -9.23434e-20)
(1.23379 0.228152 -1.53398e-20)
(1.24995 0.22292 -2.66479e-19)
(1.24566 0.211293 -1.74244e-19)
(1.23605 0.195716 2.12712e-19)
(1.22574 0.180593 -1.33347e-19)
(0.0458772 -0.00351466 9.63908e-20)
(0.409363 0.0346919 1.71852e-19)
(0.831935 0.146982 1.20619e-19)
(1.09477 0.21811 -1.8197e-19)
(1.21171 0.245915 2.14703e-19)
(1.24593 0.247308 -1.13706e-19)
(1.24572 0.236468 -2.84194e-20)
(1.23513 0.221609 -1.01923e-20)
(1.22335 0.204031 -6.0239e-20)
(1.21365 0.189899 1.91672e-20)
(0.0970017 -0.0030129 2.44593e-19)
(0.547205 0.0765508 -1.35821e-19)
(0.95271 0.197081 8.49749e-20)
(1.16166 0.25747 9.91611e-20)
(1.23503 0.272382 -7.07051e-20)
(1.24561 0.265041 1.07041e-19)
(1.23565 0.249446 3.89223e-20)
(1.22209 0.231871 5.1673e-20)
(1.21028 0.212786 3.28384e-20)
(1.1994 0.198362 5.23587e-20)
(0.160976 0.00664656 -9.01127e-20)
(0.677214 0.130306 -1.32019e-19)
(1.04506 0.248236 -1.03326e-19)
(1.20231 0.294442 -9.78838e-20)
(1.24196 0.29688 -4.29978e-20)
(1.23708 0.281958 4.71761e-20)
(1.22201 0.262319 -2.32249e-20)
(1.2074 0.24209 -2.31468e-22)
(1.19533 0.221448 -2.13195e-20)
(1.18486 0.206374 3.86112e-21)
(0.233908 0.0274926 2.41182e-20)
(0.789302 0.191126 -5.24772e-21)
(1.11064 0.299061 2.33118e-20)
(1.22223 0.329163 1.82284e-20)
(1.23712 0.319923 1.3638e-20)
(1.22299 0.298442 -3.65124e-20)
(1.20558 0.275004 1.68509e-20)
(1.19082 0.252094 -1.6415e-20)
(1.17946 0.22991 -5.23026e-21)
(1.16926 0.213468 -8.52493e-21)
(0.310203 0.0594758 1.25039e-21)
(0.87889 0.255328 -7.32831e-22)
(1.15209 0.348532 -5.05152e-21)
(1.22583 0.361813 6.06635e-20)
(1.22364 0.341806 -1.64252e-20)
(1.20456 0.314427 -1.53693e-20)
(1.18662 0.287319 1.99468e-21)
(1.17254 0.261649 -1.63474e-21)
(1.16188 0.237631 -6.05047e-21)
(1.15261 0.219587 -1.25466e-20)
(0.383792 0.100973 -1.03747e-19)
(0.945051 0.320339 1.96316e-20)
(1.17245 0.395813 -1.67174e-19)
(1.21643 0.392339 -5.85051e-20)
(1.20339 0.36249 -1.7847e-20)
(1.18244 0.329669 -2.24987e-21)
(1.16521 0.29891 -1.17183e-20)
(1.15235 0.270412 -6.28377e-21)
(1.14295 0.244496 5.93206e-21)
(1.13439 0.22462 8.61855e-21)
(0.449129 0.149666 1.78995e-19)
(0.988216 0.384086 -9.12508e-20)
(1.17454 0.439997 1.26964e-19)
(1.19639 0.420481 5.04541e-20)
(1.17752 0.381695 -1.75745e-20)
(1.15692 0.343725 5.83167e-20)
(1.14141 0.309331 -1.47679e-20)
(1.13044 0.27809 1.66823e-20)
(1.12238 0.250456 3.31809e-21)
(1.11448 0.228489 5.43078e-21)
(0.501942 0.202969 -1.09654e-19)
(1.00969 0.444786 4.15086e-19)
(1.16091 0.480241 -7.63438e-20)
(1.16745 0.445794 -4.24482e-20)
(1.14679 0.398898 8.90547e-20)
(1.12831 0.356061 -3.69566e-20)
(1.11537 0.318106 -1.27873e-20)
(1.10677 0.284333 -8.13397e-21)
(1.10018 0.255431 1.17891e-21)
(1.09366 0.231163 -1.06268e-20)
(0.539542 0.25811 -1.98851e-19)
(1.01119 0.500789 -2.21697e-19)
(1.1336 0.515623 1.35281e-19)
(1.131 0.467624 3.72949e-20)
(1.11188 0.413424 -4.38244e-20)
(1.09699 0.366125 -5.50397e-21)
(1.08731 0.324861 1.91097e-20)
(1.08129 0.288914 6.62264e-21)
(1.07635 0.258797 -2.09917e-20)
(1.07222 0.232478 -2.47564e-21)
(0.560793 0.312199 6.86181e-20)
(0.994621 0.550536 2.84961e-19)
(1.09442 0.545114 -5.72466e-20)
(1.08844 0.485151 4.45677e-21)
(1.07347 0.424553 -3.31514e-21)
(1.06312 0.373307 1.38564e-21)
(1.05729 0.329297 1.51407e-20)
(1.0541 0.291499 -1.19309e-20)
(1.05145 0.260279 1.99239e-20)
(1.05018 0.232343 -1.96341e-20)
(0.5659 0.362456 -5.07163e-19)
(0.961763 0.592395 2.54408e-20)
(1.04541 0.567715 -1.05522e-19)
(1.04088 0.497341 1.28441e-20)
(1.0319 0.431641 -1.92223e-21)
(1.02697 0.377101 5.89293e-20)
(1.0256 0.330921 -4.80508e-20)
(1.02574 0.291765 2.79962e-20)
(1.02605 0.259591 -2.66916e-20)
(1.02829 0.230687 -8.96203e-20)
(0.555934 0.406597 2.57226e-19)
(0.914171 0.624284 -2.40274e-19)
(0.988898 0.58256 -1.68985e-20)
(0.989294 0.5034 -3.36302e-21)
(0.987759 0.433916 9.15857e-20)
(0.989064 0.376964 -8.66235e-21)
(0.992645 0.32932 7.19078e-20)
(0.996768 0.289312 8.37274e-21)
(1.00101 0.256552 5.76481e-21)
(1.00735 0.227607 1.25477e-19)
(0.532018 0.442927 1.4226e-19)
(0.854337 0.644629 -1.98671e-20)
(0.926888 0.5884 -7.89891e-21)
(0.934753 0.502874 7.1997e-20)
(0.94179 0.43084 -3.06665e-20)
(0.949897 0.372407 -1.0987e-19)
(0.958919 0.323966 -7.07666e-20)
(0.967788 0.28355 7.0421e-21)
(0.977036 0.250642 9.75403e-20)
(0.987773 0.223454 -7.97132e-20)
(0.495337 0.468883 -1.17006e-20)
(0.786298 0.653088 -2.59901e-20)
(0.861253 0.584324 -1.00245e-19)
(0.878411 0.495205 4.67023e-21)
(0.894783 0.421982 1.50529e-19)
(0.910112 0.36308 -4.80444e-20)
(0.924972 0.314522 1.80101e-19)
(0.939207 0.273909 -2.48833e-19)
(0.95403 0.240594 -1.67747e-19)
(0.968378 0.217047 -3.61269e-20)
(0.448234 0.48122 3.6051e-20)
(0.712594 0.648126 5.3864e-20)
(0.793532 0.570226 3.45561e-20)
(0.821459 0.479949 -5.35025e-20)
(0.84762 0.407059 -2.27244e-19)
(0.870434 0.348802 2.14601e-19)
(0.891453 0.301009 8.3219e-20)
(0.911253 0.260796 1.07969e-19)
(0.931321 0.225953 3.09329e-19)
(0.946529 0.19975 -7.51295e-20)
(0.394871 0.47958 1.31102e-19)
(0.636224 0.629312 -2.32584e-20)
(0.725607 0.54591 -5.79009e-20)
(0.765159 0.456852 1.12441e-19)
(0.801268 0.38588 2.01214e-19)
(0.831706 0.329429 -4.77478e-19)
(0.859074 0.283411 -7.44497e-20)
(0.88415 0.245195 -1.94238e-19)
(0.90732 0.212919 3.93405e-20)
(0.922053 0.188057 -1.4118e-19)
(0.338405 0.46358 -2.66071e-19)
(0.559846 0.596307 -1.20367e-19)
(0.659272 0.511443 4.00816e-19)
(0.7108 0.425917 -2.30042e-19)
(0.756724 0.358453 -3.32034e-19)
(0.794723 0.304912 3.11651e-19)
(0.828395 0.261241 -2.86031e-19)
(0.858594 0.224734 1.42199e-19)
(0.885104 0.193807 -1.76995e-19)
(0.90198 0.170223 2.8013e-19)
(0.28197 0.433648 -1.08428e-19)
(0.486257 0.549488 5.94902e-19)
(0.596336 0.467091 -6.20068e-19)
(0.659673 0.38736 2.59238e-20)
(0.715 0.325025 2.02635e-19)
(0.760187 0.275757 -1.25498e-20)
(0.799579 0.235819 4.37377e-19)
(0.833938 0.202656 -3.81539e-19)
(0.863187 0.174546 2.7813e-19)
(0.883175 0.152474 -1.88137e-19)
(0.228383 0.390805 -1.77419e-19)
(0.41797 0.489587 9.70254e-20)
(0.538522 0.41337 2.67171e-19)
(0.613043 0.341583 3.07365e-19)
(0.677134 0.285812 -7.05835e-20)
(0.729053 0.24178 2.91759e-19)
(0.773769 0.206099 2.45356e-20)
(0.811954 0.176522 3.1527e-20)
(0.843896 0.151643 -1.12055e-19)
(0.866941 0.132215 -6.07254e-21)
(0.180051 0.33662 5.35399e-19)
(0.357241 0.417805 -3.71712e-19)
(0.487493 0.351065 -4.96799e-19)
(0.572074 0.289292 2.79e-20)
(0.643933 0.241555 -1.46209e-19)
(0.701731 0.203978 1.2217e-19)
(0.750985 0.173611 -4.46824e-19)
(0.792429 0.148439 1.31823e-19)
(0.826964 0.12717 3.75323e-19)
(0.853116 0.110387 -1.81578e-19)
(0.138853 0.27277 7.27481e-20)
(0.306094 0.335899 4.62246e-19)
(0.44483 0.281249 3.33956e-19)
(0.537909 0.231278 -3.12451e-19)
(0.616346 0.192753 1.95013e-19)
(0.6791 0.162466 -8.83653e-20)
(0.732115 0.138038 -5.75816e-20)
(0.776235 0.117843 -2.7391e-20)
(0.813006 0.100779 -1.1607e-19)
(0.841941 0.0871867 2.14367e-19)
(0.106344 0.200894 -3.58573e-19)
(0.266191 0.245905 -4.18077e-19)
(0.411742 0.205376 -6.76919e-21)
(0.511431 0.168656 2.97814e-19)
(0.594986 0.140387 -5.46411e-20)
(0.66158 0.118187 -5.90878e-20)
(0.717481 0.100297 8.58841e-20)
(0.763662 0.0855078 -4.64126e-20)
(0.802241 0.0729804 -3.70455e-20)
(0.83349 0.0629206 3.8523e-20)
(0.0838716 0.123031 5.21321e-20)
(0.238841 0.149991 -6.85802e-20)
(0.389162 0.125057 2.95959e-19)
(0.493372 0.102605 -7.26014e-20)
(0.580432 0.0853301 1.37009e-19)
(0.649648 0.0717737 -3.681e-20)
(0.707505 0.0608597 -5.74354e-20)
(0.755081 0.0518411 9.2014e-20)
(0.794922 0.0441827 1.28089e-20)
(0.827841 0.0379868 -3.31533e-20)
(0.0723874 0.0414812 -1.41033e-21)
(0.224934 0.0504588 1.85585e-21)
(0.377709 0.0420309 1.37577e-19)
(0.484215 0.034466 -6.87705e-20)
(0.573053 0.0286449 3.15532e-20)
(0.643598 0.024077 -1.67192e-20)
(0.702442 0.0204003 1.99377e-20)
(0.750722 0.0173625 -2.61965e-20)
(0.791211 0.0147789 -1.59656e-20)
(0.825008 0.0126799 5.56096e-24)
(0.0723793 -0.0413127 1.41142e-21)
(0.224922 -0.0502917 -1.85619e-21)
(0.377697 -0.0419053 -1.37591e-19)
(0.484204 -0.0343776 -2.45342e-20)
(0.573043 -0.0285906 -4.16155e-20)
(0.643588 -0.0240525 2.22779e-20)
(0.702434 -0.0204014 3.53503e-20)
(0.750715 -0.017385 -3.24952e-20)
(0.791205 -0.0148194 -2.84994e-20)
(0.825004 -0.0127347 -1.95748e-20)
(0.083847 -0.12286 1.66827e-19)
(0.238806 -0.149822 -1.186e-19)
(0.389125 -0.124931 1.68908e-19)
(0.493338 -0.102518 -2.35394e-21)
(0.5804 -0.0852772 9.85628e-20)
(0.649619 -0.0717508 -8.11152e-21)
(0.70748 -0.0608627 -4.98973e-20)
(0.755059 -0.0518658 2.01738e-19)
(0.794903 -0.0442257 -4.73376e-20)
(0.827827 -0.0380441 -1.24857e-21)
(0.106302 -0.200718 -3.58102e-19)
(0.26613 -0.245733 4.16641e-20)
(0.41168 -0.205251 -2.27549e-19)
(0.511373 -0.16857 2.10743e-20)
(0.594933 -0.140336 1.96343e-19)
(0.661532 -0.118167 -1.32753e-19)
(0.71744 -0.100304 5.27216e-20)
(0.763626 -0.0855357 -4.91931e-20)
(0.80221 -0.0730264 1.30676e-19)
(0.833467 -0.0629802 -1.73848e-19)
(0.138791 -0.272585 -5.78522e-21)
(0.306007 -0.335724 5.1309e-19)
(0.444742 -0.281124 2.79805e-19)
(0.537827 -0.231195 -1.36223e-19)
(0.61627 -0.192707 -1.60282e-19)
(0.679033 -0.162451 2.40237e-19)
(0.732057 -0.138049 -9.21969e-20)
(0.776185 -0.117876 -5.76634e-20)
(0.812963 -0.10083 -1.92413e-19)
(0.841909 -0.0872513 2.45476e-19)
(0.179966 -0.336424 1.57273e-19)
(0.357124 -0.417626 -2.27622e-19)
(0.487376 -0.350943 -6.28306e-19)
(0.571965 -0.289213 2.98831e-19)
(0.643834 -0.241515 -2.66327e-19)
(0.701644 -0.20397 -3.76664e-19)
(0.750909 -0.173629 2.90291e-20)
(0.792364 -0.14848 -1.21726e-20)
(0.826909 -0.127229 2.74319e-19)
(0.853075 -0.110458 -1.27915e-19)
(0.228271 -0.390596 2.66705e-19)
(0.41782 -0.489403 -1.52677e-19)
(0.538375 -0.41325 7.75932e-19)
(0.612907 -0.34151 -3.62922e-19)
(0.677011 -0.285779 -3.55612e-20)
(0.728945 -0.24178 4.13414e-19)
(0.773676 -0.206128 1.2716e-19)
(0.811875 -0.176572 -1.0595e-19)
(0.84383 -0.151712 -1.77213e-19)
(0.866891 -0.132296 9.52169e-20)
(0.281825 -0.433425 -4.68795e-21)
(0.48607 -0.549299 4.07377e-19)
(0.596155 -0.466976 -4.46199e-19)
(0.659507 -0.387296 3.06379e-19)
(0.714851 -0.325003 -7.548e-20)
(0.760057 -0.275769 -2.47704e-19)
(0.799468 -0.235859 4.07404e-19)
(0.833844 -0.202719 1.57004e-19)
(0.86311 -0.174626 -1.36329e-19)
(0.883117 -0.152566 -6.87692e-20)
(0.338223 -0.463342 -1.37296e-19)
(0.559616 -0.596115 -6.42007e-19)
(0.659055 -0.511334 6.2359e-19)
(0.710604 -0.425863 -1.65723e-19)
(0.756549 -0.358444 -3.62259e-19)
(0.794571 -0.304939 1.74324e-19)
(0.828266 -0.261296 3.56847e-20)
(0.858486 -0.224812 1.91063e-19)
(0.885016 -0.193903 -2.2045e-19)
(0.901915 -0.170331 1.47217e-19)
(0.394645 -0.479327 2.37559e-19)
(0.635946 -0.629118 -4.9701e-20)
(0.725349 -0.545811 -2.21124e-19)
(0.76493 -0.456813 8.98043e-20)
(0.801064 -0.385887 3.45641e-19)
(0.831531 -0.329473 -3.82807e-19)
(0.858927 -0.283483 -2.46484e-19)
(0.88403 -0.245289 -2.00508e-19)
(0.907222 -0.213028 1.61511e-19)
(0.921979 -0.188175 -1.20744e-19)
(0.447957 -0.480954 -5.2902e-20)
(0.712261 -0.647931 9.42544e-20)
(0.79323 -0.570139 5.67713e-20)
(0.821194 -0.479928 -1.46761e-19)
(0.847388 -0.407086 -2.41327e-20)
(0.870236 -0.348868 2.12894e-19)
(0.891288 -0.301103 -2.19836e-19)
(0.911119 -0.260912 3.10809e-19)
(0.931212 -0.226087 1.54721e-19)
(0.946443 -0.1999 -5.32055e-20)
(0.495003 -0.468606 -5.14585e-21)
(0.785904 -0.652897 -3.00996e-20)
(0.860904 -0.584255 -9.04585e-20)
(0.878108 -0.495207 -6.22387e-20)
(0.894521 -0.422034 6.02759e-20)
(0.90989 -0.363171 1.57248e-19)
(0.924789 -0.314642 -6.76554e-20)
(0.939059 -0.274049 -8.17563e-20)
(0.953915 -0.240746 -2.99797e-19)
(0.968288 -0.217207 1.69558e-19)
(0.53161 -0.442634 1.84539e-19)
(0.853874 -0.644443 1.83886e-20)
(0.926486 -0.588355 -3.03519e-20)
(0.934411 -0.502904 4.93531e-20)
(0.941497 -0.430922 -1.48353e-19)
(0.949651 -0.372527 -7.6502e-20)
(0.958718 -0.324114 -9.79379e-20)
(0.96763 -0.283716 1.78436e-19)
(0.976918 -0.250817 7.27636e-20)
(0.987686 -0.223635 -6.93151e-20)
(0.555449 -0.406305 9.89487e-20)
(0.913633 -0.624114 -1.42192e-19)
(0.988443 -0.582542 -1.90162e-20)
(0.988911 -0.503464 6.7017e-21)
(0.987434 -0.434033 3.64246e-20)
(0.988794 -0.37712 -9.90676e-21)
(0.992428 -0.329503 1.78656e-19)
(0.996601 -0.28951 -1.46311e-19)
(1.00089 -0.256757 -1.07884e-20)
(1.00727 -0.227815 1.99076e-19)
(0.565338 -0.362174 -3.69117e-19)
(0.961136 -0.592241 -1.07557e-19)
(1.0449 -0.56773 -1.02443e-20)
(1.04046 -0.497442 -1.02395e-21)
(1.03154 -0.4318 5.45021e-21)
(1.02667 -0.377299 8.09408e-20)
(1.02537 -0.331143 -1.17022e-19)
(1.02557 -0.292001 2.72109e-20)
(1.02593 -0.25983 -3.29543e-20)
(1.02821 -0.230926 -5.38461e-20)
(0.560155 -0.311931 8.91208e-21)
(0.993898 -0.550403 2.91708e-19)
(1.09384 -0.545165 3.03877e-20)
(1.08797 -0.485296 -1.66205e-20)
(1.07308 -0.42476 -3.74308e-23)
(1.06281 -0.373553 1.86384e-21)
(1.05705 -0.329565 1.93395e-20)
(1.05392 -0.291779 -2.91582e-20)
(1.05133 -0.260558 4.28482e-21)
(1.05011 -0.232615 -1.82843e-21)
(0.538825 -0.25786 7.3177e-20)
(1.01036 -0.500679 -1.36728e-19)
(1.13294 -0.515714 4.80128e-20)
(1.13048 -0.467822 6.21716e-20)
(1.11146 -0.413686 -4.4926e-20)
(1.09666 -0.366426 -3.3573e-21)
(1.08705 -0.32518 -1.08209e-20)
(1.0811 -0.289243 1.58336e-20)
(1.07624 -0.25912 -2.24653e-20)
(1.07216 -0.232789 2.17629e-20)
(0.501151 -0.202746 1.0068e-19)
(1.00876 -0.444697 1.73217e-19)
(1.16017 -0.480376 9.85408e-20)
(1.16688 -0.446051 -1.06002e-19)
(1.14633 -0.399224 9.66092e-20)
(1.12796 -0.356421 -4.1286e-20)
(1.1151 -0.318485 -5.67324e-21)
(1.10659 -0.284721 -5.23659e-21)
(1.10007 -0.255804 2.04904e-21)
(1.09362 -0.231518 -1.19394e-20)
(0.448276 -0.149477 2.59169e-19)
(0.987164 -0.384018 -1.3629e-19)
(1.1737 -0.440177 7.78689e-20)
(1.19576 -0.420802 7.16816e-20)
(1.17704 -0.38209 -3.1485e-20)
(1.15654 -0.344154 4.83729e-20)
(1.14114 -0.309779 1.47547e-20)
(1.13026 -0.27854 1.53741e-20)
(1.12229 -0.250889 8.5015e-21)
(1.11447 -0.228899 3.37011e-21)
(0.382898 -0.100824 -9.48232e-20)
(0.943871 -0.32029 -1.31811e-19)
(1.1715 -0.396036 -8.69822e-20)
(1.21573 -0.392726 -7.96282e-20)
(1.20286 -0.36296 -2.77531e-20)
(1.18204 -0.330176 3.61719e-20)
(1.16494 -0.299434 -1.45301e-20)
(1.15217 -0.270937 2.95576e-21)
(1.14288 -0.245 -7.77953e-21)
(1.13441 -0.225093 4.74031e-21)
(0.309302 -0.0593761 2.4538e-20)
(0.877573 -0.255295 -5.36079e-21)
(1.15101 -0.348793 2.19996e-20)
(1.22505 -0.362264 1.44498e-20)
(1.22307 -0.342356 1.25959e-20)
(1.20414 -0.31502 -2.91398e-20)
(1.18633 -0.287931 1.29742e-20)
(1.17237 -0.262259 -1.20478e-20)
(1.16184 -0.238216 -2.94072e-21)
(1.15268 -0.220133 -3.88346e-21)
(0.233039 -0.0274507 1.02141e-21)
(0.787846 -0.191105 -7.74827e-22)
(1.10941 -0.299351 -5.19233e-21)
(1.22135 -0.329673 6.65196e-20)
(1.2365 -0.320554 -1.80257e-20)
(1.22255 -0.299129 -2.07217e-20)
(1.20528 -0.275714 3.78473e-21)
(1.19066 -0.252803 -3.80359e-21)
(1.17944 -0.230589 -8.96201e-21)
(1.16937 -0.214098 -1.9718e-20)
(0.16018 -0.00666763 -9.81672e-20)
(0.675632 -0.130301 2.12924e-20)
(1.04365 -0.248541 -1.82644e-19)
(1.2013 -0.294997 -6.91863e-20)
(1.24125 -0.297589 -2.56186e-20)
(1.23659 -0.282745 -7.56762e-21)
(1.22171 -0.263139 -1.93627e-20)
(1.20726 -0.242912 -1.84446e-20)
(1.19534 -0.222238 5.58794e-21)
(1.18503 -0.207109 1.36935e-20)
(0.0963109 0.00293377 1.66044e-19)
(0.545551 -0.0765752 -9.30673e-20)
(0.95111 -0.197382 1.43133e-19)
(1.16046 -0.25805 7.32539e-20)
(1.23421 -0.273159 -4.30217e-20)
(1.24507 -0.26593 1.32726e-19)
(1.23532 -0.250387 -2.77865e-20)
(1.22195 -0.232826 5.08794e-20)
(1.21034 -0.213707 3.49749e-21)
(1.19964 -0.199218 5.0451e-20)
(0.0453104 0.00339503 -1.02542e-19)
(0.407738 -0.0347753 4.255e-19)
(0.83012 -0.147259 -9.34059e-20)
(1.09334 -0.218687 -7.92811e-20)
(1.21072 -0.24674 2.02433e-19)
(1.24528 -0.248295 -8.99232e-20)
(1.24535 -0.237545 -4.65918e-20)
(1.235 -0.222715 -2.50637e-20)
(1.22345 -0.205111 -9.52683e-20)
(1.21397 -0.190908 3.41985e-20)
(0.00838844 -0.00171804 -1.85551e-19)
(0.276535 -0.00961572 -2.52601e-19)
(0.682153 -0.100501 1.99553e-19)
(0.994143 -0.177183 5.60953e-20)
(1.16396 -0.2175 -1.44553e-19)
(1.23298 -0.229227 -1.46319e-19)
(1.2495 -0.224139 7.8045e-21)
(1.24551 -0.212581 -9.52376e-20)
(1.23619 -0.196985 1.45007e-19)
(1.22617 -0.181791 -2.08015e-20)
(-0.0158253 -0.00887739 8.24685e-20)
(0.165362 -0.00201627 3.94597e-19)
(0.516379 -0.0614179 -4.95736e-20)
(0.858728 -0.134442 1.39372e-20)
(1.0854 -0.184666 -3.28846e-20)
(1.20026 -0.207237 1.91785e-19)
(1.24407 -0.20976 6.49778e-20)
(1.25191 -0.201792 1.10566e-19)
(1.24614 -0.189 -1.01143e-19)
(1.23978 -0.17327 6.0846e-20)
(-0.0301936 -0.0159045 -6.10459e-19)
(0.0809004 -0.00719666 1.55125e-19)
(0.352654 -0.0358183 -1.98145e-19)
(0.689529 -0.0934878 2.38747e-19)
(0.965436 -0.147557 -5.89564e-20)
(1.13676 -0.181032 -3.36385e-19)
(1.2199 -0.192333 1.80082e-19)
(1.25077 -0.190233 -6.74224e-20)
(1.25401 -0.18081 6.12723e-20)
(1.24828 -0.163423 1.8367e-19)
(-0.0374832 -0.0220032 2.85866e-19)
(0.0224112 -0.0184616 -4.29708e-19)
(0.213072 -0.0265943 -5.31862e-20)
(0.503088 -0.0608488 -2.65196e-19)
(0.799923 -0.10832 -3.27328e-19)
(1.0272 -0.148269 1.61308e-19)
(1.16582 -0.170919 -2.0043e-19)
(1.23111 -0.174592 -2.41744e-20)
(1.25495 -0.172717 -1.89411e-20)
(1.25927 -0.154193 -2.34873e-19)
(-0.0397995 -0.0269971 2.65423e-19)
(-0.0147649 -0.0311889 -1.01621e-19)
(0.108787 -0.0305098 9.69093e-20)
(0.328176 -0.0431031 -1.43587e-19)
(0.602625 -0.0740022 1.41325e-19)
(0.862358 -0.111054 2.61707e-19)
(1.05847 -0.140815 1.55093e-19)
(1.18222 -0.155515 -7.59476e-21)
(1.23536 -0.158839 -1.73061e-19)
(1.26066 -0.144384 1.3928e-19)
(-0.0388582 -0.0310038 3.08726e-19)
(-0.0360413 -0.0432594 9.89968e-20)
(0.0385152 -0.041378 1.65915e-19)
(0.188496 -0.0407884 4.87651e-20)
(0.406644 -0.0530973 -2.36822e-19)
(0.656249 -0.0768845 7.10084e-20)
(0.886498 -0.1062 -2.69919e-19)
(1.06714 -0.123375 3.73796e-19)
(1.18795 -0.146004 2.2443e-19)
(1.23321 -0.121675 6.01583e-20)
(-0.0359848 -0.0341944 -4.36806e-19)
(-0.0462456 -0.0538003 -1.08727e-19)
(-0.00489682 -0.0541764 -1.2668e-19)
(0.0906252 -0.0484876 7.36879e-20)
(0.244135 -0.047582 2.99175e-19)
(0.446113 -0.0558693 -2.40671e-19)
(0.670259 -0.0749796 -1.04511e-19)
(0.878193 -0.0884155 -1.3192e-19)
(1.05154 -0.113161 -4.22218e-19)
(1.19683 -0.118127 1.07305e-19)
(-0.0321625 -0.0366282 -1.78276e-19)
(-0.0493622 -0.0622711 3.89951e-20)
(-0.0295648 -0.0658403 1.9496e-20)
(0.0280173 -0.0596815 -1.19133e-19)
(0.12706 -0.0524488 -1.90647e-19)
(0.270592 -0.0520537 5.03345e-19)
(0.448338 -0.0519011 7.07323e-20)
(0.658269 -0.0660819 2.20001e-19)
(0.811674 -0.0719357 -4.33486e-20)
(1.07714 -0.0979405 1.6677e-19)
(-0.0280693 -0.0382429 3.18048e-19)
(-0.0484146 -0.0681143 7.12192e-20)
(-0.0425383 -0.0744527 -3.36093e-19)
(-0.0102855 -0.0696478 1.87203e-19)
(0.0495336 -0.0609599 3.04384e-19)
(0.143921 -0.0572249 -2.96428e-19)
(0.258817 -0.0412781 2.52854e-19)
(0.45163 -0.0584361 -1.37315e-19)
(0.53284 -0.0426201 2.00497e-19)
(0.867951 -0.070745 -3.1566e-19)
(-0.0240515 -0.03882 6.12024e-20)
(-0.045438 -0.070722 -4.58594e-19)
(-0.0490985 -0.0787956 4.45626e-19)
(-0.0341923 -0.0755682 -2.55201e-20)
(-0.00109091 -0.0675998 -1.48112e-19)
(0.0570694 -0.0620237 -5.03002e-21)
(0.121785 -0.0442276 -3.89415e-19)
(0.272775 -0.0538735 3.50103e-19)
(0.302374 -0.0344035 -2.80421e-19)
(0.606612 -0.0501775 1.96026e-19)
(-0.0202012 -0.0379772 9.17969e-20)
(-0.0417209 -0.0695715 -4.60931e-20)
(-0.0526829 -0.0782015 -1.57832e-19)
(-0.0505444 -0.0761595 -1.9363e-19)
(-0.0361332 -0.0695672 4.39107e-20)
(-0.0038699 -0.0630899 -2.15154e-19)
(0.0294642 -0.0508402 -7.27183e-21)
(0.12782 -0.0477454 -3.2544e-20)
(0.143451 -0.0418437 9.67439e-20)
(0.348132 -0.038757 4.38511e-21)
(-0.016573 -0.0352983 -2.63329e-19)
(-0.0380303 -0.0643944 1.88485e-19)
(-0.0551244 -0.0725246 2.65126e-19)
(-0.0631209 -0.0712055 -1.1466e-20)
(-0.0623635 -0.0660183 8.74997e-20)
(-0.0492919 -0.0597821 -8.22176e-20)
(-0.0364346 -0.0528447 3.2846e-19)
(0.0186036 -0.0423065 -1.05785e-19)
(0.0295718 -0.0473786 -3.36701e-19)
(0.140818 -0.02695 1.59591e-19)
(-0.0132846 -0.030515 -1.86439e-20)
(-0.0347824 -0.0552216 -2.12241e-19)
(-0.0571682 -0.062104 -1.67782e-19)
(-0.0733376 -0.0612303 1.63472e-19)
(-0.0830906 -0.0572402 -1.20407e-19)
(-0.0850984 -0.052203 5.48383e-20)
(-0.0852023 -0.0481532 4.1111e-20)
(-0.0607002 -0.0368087 1.92452e-20)
(-0.0588499 -0.0427313 9.97859e-20)
(-0.00418165 -0.0176585 -1.89045e-19)
(-0.0105257 -0.0236167 1.45346e-19)
(-0.0322059 -0.042436 1.83473e-19)
(-0.0589441 -0.0476581 5.7227e-21)
(-0.0814625 -0.0471451 -1.47107e-19)
(-0.0992927 -0.0443755 2.40944e-20)
(-0.112105 -0.0409668 3.76787e-20)
(-0.121486 -0.0378866 -5.7238e-20)
(-0.118539 -0.0301951 2.99315e-20)
(-0.123821 -0.033329 3.06983e-20)
(-0.10218 -0.0148752 -3.1606e-20)
(-0.00852395 -0.0148989 -2.07248e-20)
(-0.0304417 -0.0267668 2.86053e-20)
(-0.0603302 -0.0301682 -1.27776e-19)
(-0.0872641 -0.0300687 3.31837e-20)
(-0.110648 -0.0286434 -7.31665e-20)
(-0.130327 -0.0269306 1.98229e-20)
(-0.146364 -0.0251512 3.57116e-20)
(-0.155998 -0.0215387 -6.38748e-20)
(-0.166489 -0.0225931 -7.42478e-21)
(-0.163237 -0.0138127 2.86253e-20)
(-0.00748396 -0.00494185 -1.42904e-20)
(-0.0295799 -0.00922358 3.05163e-21)
(-0.0611549 -0.0107728 6.81233e-20)
(-0.0903922 -0.0111715 2.70488e-20)
(-0.116636 -0.0111885 -1.59275e-20)
(-0.139702 -0.011228 9.04178e-21)
(-0.159325 -0.011338 -1.21031e-20)
(-0.174608 -0.0111527 1.86721e-20)
(-0.18825 -0.0122164 1.23704e-20)
(-0.193409 -0.0107529 5.53457e-24)
(-0.198451 -0.0062699 -4.92073e-20)
(-0.202228 -0.00702056 3.51943e-20)
(-0.205484 -0.00768835 4.69093e-22)
(-0.208352 -0.00814661 -6.09824e-21)
(-0.210896 -0.00837641 -1.21525e-20)
(-0.213148 -0.00836346 -1.39525e-20)
(-0.215142 -0.0080972 -2.38365e-20)
(-0.216904 -0.00756985 4.23893e-20)
(-0.218455 -0.00677715 -2.40073e-20)
(-0.21981 -0.00571791 4.91914e-20)
(-0.220979 -0.00439431 -3.09714e-20)
(-0.221964 -0.00281241 -4.46358e-21)
(-0.22276 -0.000982246 -1.09038e-20)
(-0.22339 0.00108259 2.8262e-20)
(-0.223883 0.00334538 -1.86039e-20)
(-0.22424 0.00579481 1.89548e-20)
(-0.224453 0.00840353 -1.31803e-20)
(-0.22452 0.0111398 -1.10898e-20)
(-0.22444 0.0139687 7.14123e-21)
(-0.224208 0.0168521 -4.74253e-21)
(-0.223824 0.0197493 1.76846e-20)
(-0.223285 0.0226177 -8.05512e-21)
(-0.222586 0.0254127 -1.19313e-20)
(-0.221726 0.0280883 7.39681e-21)
(-0.2207 0.0305996 -1.00505e-20)
(-0.219506 0.0329014 1.18259e-20)
(-0.218142 0.0349489 3.28594e-21)
(-0.216605 0.0366983 -9.47335e-21)
(-0.214891 0.0381079 1.70113e-20)
(-0.212999 0.0391386 1.7377e-20)
(-0.210926 0.0397545 -1.81109e-20)
(-0.20867 0.0399232 7.622e-21)
(-0.206229 0.039617 9.39138e-21)
(-0.203602 0.0388135 -1.68995e-20)
(-0.200788 0.0374957 1.97699e-20)
(-0.197788 0.0356534 -1.9385e-20)
(-0.194602 0.0332825 2.31325e-20)
(-0.19123 0.0303862 -1.05545e-20)
(-0.187676 0.026975 -4.10581e-21)
(-0.183941 0.0230672 7.31878e-22)
(-0.180027 0.0186908 6.23929e-21)
(-0.175933 0.0138829 3.64408e-21)
(-0.171662 0.00869319 9.96437e-23)
(-0.167229 0.00313742 -9.64388e-21)
(-0.162699 -0.00275617 -1.10157e-21)
(-0.15806 -0.00892953 -3.09748e-21)
(-0.15327 -0.0153078 6.5362e-21)
(-0.148368 -0.0218177 -5.54042e-22)
(-0.143374 -0.0283729 7.00857e-21)
(-0.138309 -0.0349188 -1.34143e-20)
(-0.133185 -0.041385 6.77421e-21)
(-0.128013 -0.0477005 5.16283e-22)
(-0.122802 -0.0537958 -1.14182e-20)
(-0.117562 -0.0596033 5.50032e-21)
(-0.112301 -0.0650581 2.4898e-21)
(-0.107022 -0.0700985 1.4216e-21)
(-0.101729 -0.0746672 -3.31215e-21)
(-0.0964205 -0.0787111 2.1089e-22)
(-0.0910925 -0.0821825 1.02674e-20)
(-0.0857376 -0.085038 -1.4922e-20)
(-0.0803462 -0.0872392 1.02482e-20)
(-0.0749067 -0.0887547 1.37752e-21)
(-0.0694059 -0.0895605 -1.40872e-21)
(-0.0638293 -0.08964 -1.06135e-21)
(-0.0581606 -0.0889821 1.13591e-21)
(-0.0523815 -0.087581 -2.16559e-21)
(-0.0464768 -0.085447 -2.0063e-22)
(-0.0404343 -0.0825894 -5.38581e-22)
(-0.0342396 -0.0790115 2.76073e-22)
(-0.027908 -0.0747427 1.45298e-21)
(-0.0214336 -0.0698678 -2.73324e-21)
(-0.0147706 -0.0643824 -7.25809e-22)
(-0.00791414 -0.0583637 2.25648e-21)
(-0.000874703 -0.0518552 1.58605e-21)
(0.00627509 -0.0449086 -1.89368e-21)
(0.01354 -0.0375881 7.85451e-22)
(0.0209718 -0.0299607 -2.08016e-21)
(0.0285259 -0.0220939 1.37479e-21)
(0.036176 -0.0140731 1.03775e-21)