/*--------------------------------*- C++ -*----------------------------------*\
  =========                 |
  \\      /  F ield         | OpenFOAM: The Open Source CFD Toolbox
   \\    /   O peration     | Website:  https://openfoam.org
    \\  /    A nd           | Version:  7
     \\/     M anipulation  |
\*---------------------------------------------------------------------------*/
FoamFile
{
    version     2.0;
    format      ascii;
    class       volVectorField;
    location    "24.999";
    object      U;
}
// * * * * * * * * * * * * * * * * * * * * * * * * * * * * * * * * * * * * * //

dimensions      [0 1 -1 0 0 0 0];

internalField   nonuniform List<vector> 
3700
(
(-0.212052 0.00141384 2.4656e-22)
(-0.216804 0.00124431 -3.1684e-21)
(-0.221075 0.00109445 3.4533e-21)
(-0.224809 0.000961702 -4.28625e-21)
(-0.228102 0.000843196 2.27972e-21)
(-0.230982 0.000736168 -8.46754e-22)
(-0.233491 0.000639083 3.65825e-21)
(-0.235659 0.000551004 -2.05182e-21)
(-0.237516 0.000470593 1.88096e-21)
(-0.239085 0.000396493 -8.70099e-22)
(-0.240387 0.000326964 -1.44888e-21)
(-0.241433 0.00026112 -7.6627e-22)
(-0.24223 0.000196571 7.53643e-22)
(-0.242779 0.000129691 -6.40604e-22)
(-0.243076 6.496e-05 9.11911e-22)
(-0.243115 -1.14397e-05 -3.27553e-22)
(-0.24287 -9.51433e-05 -1.15577e-21)
(-0.242313 -0.00018732 2.49511e-21)
(-0.241408 -0.000289814 -2.94254e-21)
(-0.240111 -0.000404526 -5.45234e-22)
(-0.238375 -0.000533184 2.701e-21)
(-0.236143 -0.000677267 -4.0574e-22)
(-0.233357 -0.000837954 -4.32605e-22)
(-0.229952 -0.00101602 5.17977e-22)
(-0.225861 -0.00121175 -2.13812e-21)
(-0.221017 -0.00142524 1.62928e-21)
(-0.215359 -0.00165424 1.18526e-22)
(-0.208823 -0.00189973 -4.72129e-22)
(-0.20135 -0.00215969 -2.01843e-21)
(-0.192886 -0.00243225 1.69334e-21)
(-0.183385 -0.00271486 9.08503e-22)
(-0.172812 -0.00300446 -1.61984e-21)
(-0.161141 -0.00329847 -4.17477e-23)
(-0.148363 -0.00359116 -5.22974e-22)
(-0.134481 -0.00388152 1.40688e-21)
(-0.11951 -0.00416481 -9.05359e-22)
(-0.103467 -0.00443922 2.44318e-22)
(-0.0864014 -0.00469678 -4.57378e-22)
(-0.0683765 -0.00493761 -1.07533e-22)
(-0.0494431 -0.00516135 2.55962e-22)
(-0.0296892 -0.00535665 -1.1836e-22)
(-0.00919815 -0.0055353 5.40594e-23)
(0.0119437 -0.00567925 -1.06299e-22)
(0.0336244 -0.0057991 9.65732e-23)
(0.0557458 -0.00589116 -4.84387e-23)
(0.0782049 -0.00595534 -1.1599e-22)
(0.100898 -0.00599226 4.372e-24)
(0.123724 -0.00600299 -2.55311e-22)
(0.146585 -0.00598896 2.3546e-22)
(0.169391 -0.00595193 -7.42918e-23)
(0.192056 -0.00589393 -1.03415e-22)
(0.214503 -0.00581712 5.59558e-23)
(0.236663 -0.0057238 -4.75388e-23)
(0.258475 -0.00561627 -2.38957e-24)
(0.279886 -0.00549682 -1.8576e-23)
(0.300854 -0.00536767 9.95126e-24)
(0.321343 -0.0052309 5.07142e-24)
(0.341324 -0.0050885 -1.00378e-24)
(0.360778 -0.00494225 2.62442e-24)
(0.379688 -0.00479381 1.60403e-24)
(0.398051 -0.00464459 2.65995e-24)
(0.415857 -0.00449599 6.43527e-24)
(0.43312 -0.00434896 -2.15865e-24)
(0.449825 -0.0042048 -8.27762e-24)
(0.466022 -0.0040638 -6.64541e-25)
(0.481654 -0.00392767 1.82841e-23)
(0.496858 -0.00379529 4.26746e-24)
(0.511443 -0.00367028 -2.29552e-24)
(0.525791 -0.00354778 2.16941e-24)
(0.539308 -0.00343728 -3.39462e-24)
(0.553063 -0.00332398 -5.24156e-24)
(0.565319 -0.0032334 6.45018e-24)
(0.579062 -0.00312534 5.39411e-24)
(0.589386 -0.00306439 9.4713e-25)
(0.604518 -0.00295343 1.16441e-24)
(0.611 -0.00293453 8.17472e-25)
(0.631171 -0.00282154 1.64772e-24)
(-0.202677 0.00415943 -1.83012e-21)
(-0.207139 0.00365204 5.72358e-21)
(-0.211128 0.00320342 -5.2277e-21)
(-0.214587 0.00280498 -3.47595e-21)
(-0.217604 0.00244843 -2.07941e-21)
(-0.220208 0.00212562 3.34748e-21)
(-0.222436 0.00183208 -4.70558e-21)
(-0.224318 0.00156524 1.34935e-20)
(-0.225882 0.00132112 -6.02297e-21)
(-0.227153 0.00109639 -1.04542e-21)
(-0.228149 0.000886535 2.15714e-21)
(-0.228881 0.000684267 -3.20858e-21)
(-0.229359 0.000484334 3.79857e-21)
(-0.229577 0.000301926 -2.55282e-21)
(-0.229541 8.65774e-05 -4.09116e-21)
(-0.229243 -0.000147539 -1.5556e-21)
(-0.228653 -0.00039967 5.71869e-21)
(-0.227746 -0.000676141 -1.40611e-21)
(-0.226487 -0.000982959 8.91857e-21)
(-0.224836 -0.00132579 -9.4409e-21)
(-0.222746 -0.00170975 -1.19504e-21)
(-0.220163 -0.00213924 5.06958e-21)
(-0.21703 -0.00261778 -4.97485e-22)
(-0.213286 -0.00314773 1.80099e-21)
(-0.208865 -0.00373002 -4.7873e-21)
(-0.203701 -0.00436512 6.20956e-21)
(-0.197737 -0.00504568 -4.03104e-21)
(-0.190911 -0.00577519 2.27009e-21)
(-0.183167 -0.00654762 -6.77069e-22)
(-0.174453 -0.0073574 2.70509e-21)
(-0.164726 -0.00819701 4.4932e-23)
(-0.153952 -0.00905723 -1.52379e-21)
(-0.142106 -0.00993071 -1.86137e-21)
(-0.129183 -0.0107996 4.62109e-21)
(-0.115187 -0.0116615 -2.44676e-21)
(-0.100135 -0.0125024 1.4602e-22)
(-0.0840442 -0.0133185 6.88202e-22)
(-0.0669626 -0.0140822 -1.92566e-21)
(-0.0489593 -0.0147964 1.92939e-21)
(-0.0300792 -0.0154617 -9.65383e-22)
(-0.010415 -0.0160467 -1.78204e-22)
(0.00995417 -0.0165576 9.34623e-22)
(0.0309446 -0.0169914 5.3967e-22)
(0.0524383 -0.0173456 -1.47767e-21)
(0.0743446 -0.0176161 1.03954e-21)
(0.0965608 -0.0178035 -9.19268e-22)
(0.118985 -0.0179097 1.68028e-21)
(0.141519 -0.0179377 -7.84966e-22)
(0.164068 -0.017892 -4.59979e-22)
(0.186542 -0.0177779 4.29973e-22)
(0.20886 -0.0176012 -1.6036e-22)
(0.230946 -0.0173687 4.82437e-23)
(0.252734 -0.017087 -4.92242e-24)
(0.274166 -0.0167631 -1.83114e-23)
(0.295191 -0.0164039 1.46127e-22)
(0.315769 -0.0160159 -5.35844e-23)
(0.335865 -0.0156053 1.24862e-23)
(0.355453 -0.0151782 -1.9895e-23)
(0.374516 -0.0147398 -2.58653e-24)
(0.393038 -0.0142951 1.74495e-23)
(0.411016 -0.0138483 -2.64087e-23)
(0.428443 -0.0134035 1.57097e-23)
(0.445335 -0.0129635 8.08131e-24)
(0.461674 -0.0125324 -3.54057e-23)
(0.477514 -0.0121107 -1.0189e-24)
(0.492795 -0.0117039 -6.5925e-24)
(0.50766 -0.0113083 -1.26474e-23)
(0.521912 -0.010935 2.15827e-23)
(0.53594 -0.0105691 -4.01028e-23)
(0.549141 -0.0102395 -2.30952e-23)
(0.562595 -0.00990132 5.10493e-23)
(0.574556 -0.00963134 -1.0404e-23)
(0.58801 -0.00930932 -3.31239e-23)
(0.598073 -0.00912733 4.55514e-24)
(0.612901 -0.00879818 -1.20872e-24)
(0.619205 -0.00873987 -1.79567e-24)
(0.638958 -0.00840721 -3.16322e-24)
(-0.184034 0.0066614 1.01952e-20)
(-0.187945 0.00582119 -1.98152e-20)
(-0.191397 0.00507788 1.47093e-20)
(-0.194333 0.00441489 -1.06954e-21)
(-0.196829 0.00381926 -1.07359e-20)
(-0.19891 0.00327791 1.32804e-20)
(-0.200608 0.00278368 4.36543e-22)
(-0.201951 0.00233329 5.48154e-21)
(-0.202965 0.00192077 -4.98188e-21)
(-0.203672 0.00154035 -2.79999e-21)
(-0.204092 0.00118026 1.45045e-20)
(-0.204236 0.000841019 -1.95707e-20)
(-0.204098 0.000529367 1.33646e-20)
(-0.203704 0.000180953 2.78235e-21)
(-0.203053 -0.000194765 -2.04663e-20)
(-0.202111 -0.000587726 1.27589e-20)
(-0.200867 -0.00100937 -1.17891e-21)
(-0.199299 -0.00147047 -2.73174e-21)
(-0.197374 -0.00198088 -6.42904e-22)
(-0.195055 -0.00254979 -7.91705e-21)
(-0.192298 -0.00318553 3.7116e-21)
(-0.189055 -0.00389527 -2.54768e-21)
(-0.185271 -0.00468484 7.14627e-21)
(-0.180888 -0.00555823 -2.91348e-21)
(-0.175849 -0.0065169 6.1305e-21)
(-0.170086 -0.00756222 -5.43859e-21)
(-0.163549 -0.00868015 5.34173e-21)
(-0.156184 -0.00987811 -7.56762e-21)
(-0.147936 -0.0111457 -4.22695e-21)
(-0.13876 -0.0124737 5.35685e-21)
(-0.128616 -0.0138498 2.13167e-21)
(-0.117476 -0.0152588 -3.61752e-21)
(-0.105314 -0.0166914 -1.39029e-21)
(-0.0921294 -0.0181114 5.60537e-21)
(-0.077933 -0.0195193 -3.8383e-21)
(-0.0627455 -0.0208924 1.09837e-21)
(-0.0465795 -0.0222279 -4.70376e-21)
(-0.0294831 -0.0234741 4.18092e-21)
(-0.0115382 -0.02464 -2.75165e-21)
(0.00721948 -0.0257047 2.12625e-21)
(0.0267085 -0.0266604 -1.18276e-21)
(0.04683 -0.0274799 -3.44287e-22)
(0.0675081 -0.028183 -4.87035e-22)
(0.0886364 -0.0287494 -1.52797e-21)
(0.110121 -0.0291778 2.4515e-21)
(0.131864 -0.0294695 1.69448e-22)
(0.153767 -0.0296276 -7.84478e-22)
(0.175736 -0.0296574 4.08516e-22)
(0.197681 -0.0295662 -1.05886e-22)
(0.219517 -0.0293629 1.31386e-22)
(0.241167 -0.0290575 -7.29219e-24)
(0.262561 -0.0286608 -4.93423e-23)
(0.283637 -0.0281842 -6.17321e-22)
(0.304341 -0.027639 1.66566e-22)
(0.324628 -0.0270366 -5.66137e-23)
(0.344459 -0.0263878 9.00595e-23)
(0.363806 -0.025703 -7.49031e-23)
(0.382645 -0.0249918 1.84355e-24)
(0.400961 -0.0242631 7.08415e-24)
(0.418742 -0.0235248 -1.79033e-23)
(0.435988 -0.0227839 9.56536e-24)
(0.452693 -0.0220473 2.89454e-24)
(0.468874 -0.0213193 7.99228e-24)
(0.484517 -0.0206067 -1.14648e-23)
(0.499676 -0.0199102 -1.39992e-23)
(0.51429 -0.0192391 -4.8591e-23)
(0.528507 -0.0185865 2.82709e-23)
(0.542124 -0.0179718 3.92822e-23)
(0.55554 -0.0173689 -4.96813e-23)
(0.56814 -0.0168273 1.20462e-23)
(0.581017 -0.0162708 -5.014e-23)
(0.592416 -0.0158279 1.37841e-23)
(0.605316 -0.0152997 -6.16358e-24)
(0.614882 -0.0150004 -6.99889e-24)
(0.629126 -0.014465 1.36658e-23)
(0.635093 -0.0143638 -1.40624e-23)
(0.65404 -0.0138305 8.86459e-25)
(-0.156297 0.00878265 1.1631e-20)
(-0.159446 0.00762065 -1.77841e-20)
(-0.162159 0.00659021 2.00488e-20)
(-0.164377 0.00566587 -2.42359e-21)
(-0.16616 0.00483068 6.40571e-21)
(-0.167528 0.00406738 6.54937e-21)
(-0.168505 0.0033667 -1.29153e-20)
(-0.169116 0.00272657 6.18142e-21)
(-0.169383 0.00213765 -1.27399e-20)
(-0.16933 0.00159054 -6.8379e-22)
(-0.168967 0.00108707 2.86092e-20)
(-0.168296 0.0006182 -2.45935e-20)
(-0.167358 0.000122915 -3.25659e-21)
(-0.166147 -0.000406825 1.60127e-20)
(-0.164632 -0.000934334 -1.08442e-21)
(-0.162817 -0.00148809 -4.23282e-21)
(-0.160687 -0.00208195 2.43247e-21)
(-0.158221 -0.00272901 3.11819e-21)
(-0.155391 -0.0034423 2.58173e-21)
(-0.152165 -0.00423424 -8.80832e-22)
(-0.148504 -0.00511617 -1.05553e-20)
(-0.144365 -0.00609788 6.00791e-21)
(-0.139698 -0.00718734 7.07381e-21)
(-0.134453 -0.00839013 6.08721e-21)
(-0.12858 -0.00970813 -1.84476e-20)
(-0.122012 -0.0111464 1.44756e-20)
(-0.114709 -0.0126786 -7.13962e-21)
(-0.106625 -0.0143198 4.14678e-21)
(-0.0977095 -0.0160548 -8.13416e-21)
(-0.0879237 -0.0178704 9.41074e-21)
(-0.077235 -0.0197498 -2.60549e-21)
(-0.0656251 -0.0216733 1.58765e-21)
(-0.0530617 -0.0236358 3.31797e-21)
(-0.0395516 -0.0255688 2.87811e-21)
(-0.0251154 -0.0274854 -2.1179e-21)
(-0.00978059 -0.0293577 8.01282e-23)
(0.00644504 -0.0311502 1.25988e-21)
(0.0235225 -0.0328436 -4.44344e-21)
(0.0413581 -0.0344242 -5.26827e-22)
(0.059909 -0.0358497 3.40276e-21)
(0.079103 -0.0371337 -1.89792e-21)
(0.0988474 -0.0382398 3.39658e-21)
(0.119062 -0.0391712 1.09308e-21)
(0.13965 -0.0399159 -2.42361e-21)
(0.16052 -0.0404712 1.71497e-21)
(0.181578 -0.0408386 -3.11122e-22)
(0.202732 -0.0410225 8.75185e-22)
(0.223894 -0.0410308 -4.84032e-22)
(0.24498 -0.0408737 -1.961e-22)
(0.265913 -0.0405635 -7.89863e-23)
(0.286621 -0.0401144 1.75249e-22)
(0.307041 -0.0395414 4.74903e-22)
(0.327117 -0.0388603 -6.10733e-22)
(0.346802 -0.0380868 3.22077e-22)
(0.366056 -0.0372366 1.12019e-22)
(0.384846 -0.0363247 4.44244e-23)
(0.403148 -0.0353652 -3.58633e-23)
(0.420943 -0.0343715 7.44828e-23)
(0.43822 -0.0333554 -2.90079e-23)
(0.454972 -0.0323282 2.74622e-23)
(0.471201 -0.031299 1.70049e-23)
(0.486902 -0.0302775 -9.47153e-23)
(0.502099 -0.0292693 -5.78249e-23)
(0.516773 -0.0282839 7.73838e-23)
(0.530987 -0.0273216 -1.01549e-23)
(0.544675 -0.026396 1.10091e-23)
(0.557993 -0.0254961 8.85651e-25)
(0.570728 -0.0246506 -5.01699e-23)
(0.583294 -0.0238208 1.00435e-22)
(0.59506 -0.023078 -7.70541e-23)
(0.607133 -0.0223136 1.94949e-23)
(0.617754 -0.0217076 2.05853e-23)
(0.629877 -0.0209853 1.30957e-23)
(0.638758 -0.0205741 2.53867e-23)
(0.652178 -0.019851 -1.76497e-23)
(0.657684 -0.0197019 8.20794e-24)
(0.675498 -0.0189958 -4.4878e-24)
(-0.119614 0.010421 1.88727e-21)
(-0.121866 0.00895737 -1.57165e-20)
(-0.123706 0.00765202 2.84951e-20)
(-0.125086 0.00647293 -2.91972e-20)
(-0.126041 0.00539974 2.91364e-20)
(-0.126584 0.00441202 -1.12566e-20)
(-0.126728 0.00349922 -3.61933e-21)
(-0.126493 0.00266133 -3.33121e-20)
(-0.125902 0.00188596 5.15348e-20)
(-0.124965 0.00118373 -5.01366e-20)
(-0.123695 0.000519445 3.69791e-20)
(-0.122133 -0.000156394 -7.32013e-21)
(-0.120272 -0.000856373 9.49698e-23)
(-0.118085 -0.00153255 -5.68582e-21)
(-0.115583 -0.00222312 -1.63002e-21)
(-0.112761 -0.00294665 1.24619e-20)
(-0.109606 -0.003718 -6.08697e-21)
(-0.106102 -0.00455342 -3.71374e-21)
(-0.102227 -0.00546899 -5.72699e-21)
(-0.0979515 -0.00648013 -9.03659e-21)
(-0.0932445 -0.00760089 1.4924e-20)
(-0.0880688 -0.00884345 -1.77735e-20)
(-0.082384 -0.0102175 1.15847e-20)
(-0.0761461 -0.0117299 3.4219e-21)
(-0.0693171 -0.013384 -1.14462e-20)
(-0.0618315 -0.0151971 1.05828e-20)
(-0.0536551 -0.0171131 -7.59343e-21)
(-0.0447584 -0.0191642 6.85325e-21)
(-0.035094 -0.0213311 -5.63645e-21)
(-0.0246316 -0.0235965 -7.93073e-21)
(-0.0133463 -0.0259407 -9.26662e-21)
(-0.00123609 -0.0283387 1.52864e-20)
(0.0117423 -0.0307536 1.32682e-21)
(0.0255822 -0.0331615 1.51305e-21)
(0.0402376 -0.0355403 -9.14713e-21)
(0.0556954 -0.0378616 3.07826e-22)
(0.0719272 -0.0400618 5.46814e-21)
(0.0888997 -0.0421512 -8.1674e-21)
(0.106533 -0.0440918 4.82038e-21)
(0.124771 -0.0458455 -3.12581e-21)
(0.143547 -0.0474073 -2.53958e-21)
(0.162773 -0.0487499 -2.09535e-21)
(0.182371 -0.0498674 5.17343e-21)
(0.20225 -0.0507499 -1.39987e-21)
(0.222324 -0.0513945 -1.58346e-21)
(0.242506 -0.0518031 9.94621e-22)
(0.262711 -0.0519819 -3.4757e-23)
(0.282859 -0.0519409 -1.22162e-21)
(0.302872 -0.0516937 1.7544e-21)
(0.322682 -0.0512561 -1.76442e-21)
(0.342226 -0.0506461 -1.31951e-22)
(0.361446 -0.0498831 8.87654e-22)
(0.380296 -0.048987 -8.79428e-22)
(0.398735 -0.0479778 4.69867e-22)
(0.416729 -0.0468753 2.37813e-22)
(0.434253 -0.0456984 -3.98532e-22)
(0.451287 -0.0444648 6.96509e-23)
(0.467818 -0.0431914 -3.60389e-23)
(0.483841 -0.0418927 1.31046e-23)
(0.49935 -0.0405832 7.71588e-24)
(0.514353 -0.0392736 2.93315e-23)
(0.528845 -0.0379765 5.21669e-23)
(0.542857 -0.0366982 -3.92047e-23)
(0.556367 -0.0354513 -4.18533e-23)
(0.569446 -0.0342348 5.48199e-23)
(0.58202 -0.0330674 9.59708e-23)
(0.594258 -0.0319327 4.87452e-23)
(0.605934 -0.0308698 -3.10632e-23)
(0.617477 -0.0298258 -4.37583e-23)
(0.628241 -0.0288951 7.29767e-23)
(0.639344 -0.0279362 2.43939e-23)
(0.649033 -0.0271789 -4.65254e-23)
(0.660214 -0.0262784 3.54639e-23)
(0.668277 -0.0257616 1.02268e-23)
(0.680689 -0.0248737 2.50684e-23)
(0.685652 -0.0246716 4.36404e-24)
(0.702085 -0.0238246 8.77769e-24)
(-0.07532 0.00978627 3.34301e-20)
(-0.0762504 0.0082238 -4.04438e-20)
(-0.0767586 0.00680086 5.19739e-21)
(-0.0768602 0.00549428 1.80836e-20)
(-0.0765563 0.00428111 -1.84005e-20)
(-0.0758452 0.00314935 -2.90446e-20)
(-0.0747464 0.002109 2.02083e-20)
(-0.0732672 0.00116468 2.58644e-20)
(-0.0714337 0.000270687 -5.88743e-21)
(-0.0692805 -0.00062994 2.56867e-20)
(-0.0667942 -0.00152068 -3.60908e-20)
(-0.0639597 -0.00237741 -1.31765e-20)
(-0.0607831 -0.00323321 3.47563e-20)
(-0.0572676 -0.00409805 -9.34061e-21)
(-0.0534099 -0.00499928 9.10373e-21)
(-0.0491998 -0.0059541 -3.74628e-20)
(-0.0446249 -0.00698103 3.80889e-20)
(-0.0396678 -0.00809874 -2.8094e-20)
(-0.0343074 -0.00932523 2.92169e-21)
(-0.0285181 -0.0106771 2.92305e-20)
(-0.0222709 -0.0121688 -1.46029e-20)
(-0.0155336 -0.0138121 2.47648e-21)
(-0.00827091 -0.0156156 2.70925e-21)
(-0.000465454 -0.0175875 -1.98533e-20)
(0.00795322 -0.019713 5.15311e-21)
(0.0170206 -0.0219874 3.53372e-21)
(0.0267338 -0.0244122 2.82292e-21)
(0.0371418 -0.0269691 6.264e-21)
(0.0482655 -0.0296385 -1.10556e-21)
(0.0601221 -0.0323976 6.17503e-21)
(0.0727136 -0.0352162 -3.11168e-21)
(0.0860559 -0.03803 3.47665e-21)
(0.100148 -0.0408572 -1.01355e-20)
(0.114951 -0.0436387 1.07382e-20)
(0.130443 -0.0463435 -8.17763e-21)
(0.146587 -0.0489156 8.56679e-21)
(0.163347 -0.0513412 1.93992e-21)
(0.180655 -0.0535833 7.61972e-21)
(0.19845 -0.0556066 -9.62759e-21)
(0.216665 -0.0573944 -5.06249e-22)
(0.235223 -0.0589222 1.95249e-21)
(0.254046 -0.0601791 3.7502e-21)
(0.273052 -0.0611557 6.0408e-21)
(0.292161 -0.0618491 -4.66755e-22)
(0.311293 -0.0622622 -5.4633e-21)
(0.330373 -0.062403 2.88181e-21)
(0.349328 -0.0622842 1.67826e-21)
(0.36809 -0.0619222 -1.84964e-21)
(0.386599 -0.0613366 4.6406e-24)
(0.404801 -0.0605491 7.91605e-23)
(0.422648 -0.0595833 8.75076e-22)
(0.440101 -0.0584629 3.37228e-23)
(0.457126 -0.0572123 -3.77635e-22)
(0.473698 -0.0558547 1.97933e-22)
(0.489796 -0.054413 8.52366e-23)
(0.505409 -0.052908 -2.53491e-24)
(0.520527 -0.0513599 1.62779e-22)
(0.535151 -0.0497857 -1.46043e-23)
(0.549277 -0.0482025 -1.98756e-23)
(0.562919 -0.0466228 4.23987e-23)
(0.576073 -0.0450618 -7.68074e-23)
(0.588773 -0.0435257 1.20784e-23)
(0.600999 -0.042031 2.01032e-23)
(0.612824 -0.040574 -1.20173e-22)
(0.624172 -0.0391796 -2.63844e-23)
(0.63522 -0.0378244 -1.19222e-23)
(0.64573 -0.0365595 -1.04337e-22)
(0.656146 -0.035316 -6.50993e-24)
(0.66581 -0.0342125 -1.41899e-22)
(0.675841 -0.0330745 -8.32453e-24)
(0.684509 -0.0321787 -2.36266e-23)
(0.694642 -0.031118 9.22472e-24)
(0.701816 -0.0305023 -9.45309e-23)
(0.713098 -0.0294746 -2.04757e-23)
(0.717479 -0.0292156 -1.03614e-23)
(0.732367 -0.0282594 -1.21666e-23)
(-0.0197222 0.0101202 -2.8629e-20)
(-0.019816 0.00832284 3.60186e-20)
(-0.0195277 0.0066704 -2.41019e-20)
(-0.0188527 0.00513872 -5.8968e-21)
(-0.0177806 0.00370414 1.85805e-20)
(-0.0162897 0.00235723 2.51825e-20)
(-0.0143893 0.00112595 -2.77404e-20)
(-0.0121179 -3.57904e-05 -2.69955e-20)
(-0.00950621 -0.00119419 5.39455e-20)
(-0.00652909 -0.00231617 -5.02588e-20)
(-0.00317731 -0.00338276 4.3395e-21)
(0.000535911 -0.00442887 4.42611e-20)
(0.00462255 -0.00546896 -2.15608e-21)
(0.00907665 -0.006523 -3.10312e-20)
(0.0138941 -0.00761322 -7.3014e-21)
(0.0190854 -0.00875929 4.25677e-21)
(0.0246592 -0.0099821 1.71968e-20)
(0.0306272 -0.0113024 -3.97196e-20)
(0.0370042 -0.0127405 3.79569e-20)
(0.0438084 -0.0143152 -2.79072e-20)
(0.0510602 -0.0160428 -7.44756e-21)
(0.0587827 -0.0179371 2.22445e-20)
(0.0670013 -0.0200082 -1.3531e-23)
(0.0757335 -0.0222667 2.9448e-20)
(0.085015 -0.0246712 -2.26143e-20)
(0.0948825 -0.0272673 -1.55209e-20)
(0.105338 -0.0300225 3.45738e-20)
(0.116408 -0.0329215 -1.99047e-20)
(0.128105 -0.0359419 -3.96512e-21)
(0.14044 -0.0390572 -1.56852e-20)
(0.153408 -0.0422341 2.38624e-21)
(0.167012 -0.0454188 -1.06829e-21)
(0.181245 -0.0485962 -3.90395e-21)
(0.196075 -0.0517168 6.54677e-21)
(0.211471 -0.0547427 7.23525e-22)
(0.227392 -0.0576202 -1.29545e-21)
(0.243801 -0.060321 5.54628e-21)
(0.260635 -0.0628068 -7.69218e-21)
(0.277834 -0.0650412 7.92735e-21)
(0.295334 -0.0670009 -1.1078e-20)
(0.313063 -0.068662 6.67964e-21)
(0.330949 -0.0700103 -6.69688e-21)
(0.348918 -0.0710367 2.72216e-21)
(0.366899 -0.0717387 4.19443e-22)
(0.38482 -0.0721204 9.40949e-22)
(0.402614 -0.0721919 1.484e-21)
(0.42022 -0.0719682 -3.43553e-21)
(0.437579 -0.071469 -1.32903e-21)
(0.454641 -0.0707174 3.57521e-21)
(0.47136 -0.0697387 -3.29561e-22)
(0.4877 -0.0685602 -1.47503e-22)
(0.503628 -0.0672097 -1.34806e-21)
(0.519119 -0.065715 -5.54076e-23)
(0.534155 -0.0641031 -4.77188e-22)
(0.548723 -0.0624001 4.57123e-22)
(0.562817 -0.0606298 -3.713e-24)
(0.576431 -0.0588152 -2.21284e-22)
(0.58957 -0.0569755 1.18953e-22)
(0.602236 -0.0551305 -3.94127e-23)
(0.614445 -0.0532936 1.95676e-23)
(0.626194 -0.0514827 2.13658e-23)
(0.637522 -0.0497038 1.29155e-22)
(0.648405 -0.0479768 -1.8404e-22)
(0.658923 -0.0462951 -9.33279e-24)
(0.668995 -0.0446901 3.3326e-23)
(0.678805 -0.0431307 9.39745e-23)
(0.688107 -0.0416802 2.95659e-23)
(0.697351 -0.0402537 5.18616e-24)
(0.705879 -0.038993 7.69805e-24)
(0.714794 -0.0376927 7.95928e-24)
(0.722412 -0.0366713 7.70948e-23)
(0.731446 -0.0354699 1.16906e-23)
(0.737716 -0.0347621 9.51044e-24)
(0.747803 -0.0336196 -5.91411e-25)
(0.7516 -0.0333015 2.00832e-23)
(0.764864 -0.0322643 6.17495e-24)
(0.0452807 0.0100333 4.06407e-20)
(0.045809 0.00802881 -4.31318e-20)
(0.0466951 0.0061622 3.78194e-20)
(0.0479555 0.00441315 -4.52788e-20)
(0.0496119 0.00275104 2.60338e-20)
(0.05171 0.00116868 3.87633e-20)
(0.0542109 -0.00025855 -5.61103e-20)
(0.0570694 -0.00169594 6.64685e-20)
(0.0603111 -0.00308599 -4.96537e-20)
(0.0639542 -0.00439803 -2.17169e-20)
(0.0679892 -0.00567279 5.92989e-21)
(0.0724128 -0.00692013 4.43437e-20)
(0.0772323 -0.00815673 -4.42486e-20)
(0.0824471 -0.00941221 4.27761e-20)
(0.088054 -0.0107014 -2.26356e-21)
(0.0940576 -0.0120464 6.35669e-21)
(0.100463 -0.0134698 -1.70319e-20)
(0.107277 -0.0149938 1.28344e-20)
(0.114508 -0.0166402 -1.60912e-21)
(0.122167 -0.0184295 -1.16106e-20)
(0.130266 -0.0203796 2.54221e-20)
(0.138819 -0.0225053 -2.50603e-20)
(0.14784 -0.0248167 2.64066e-20)
(0.157343 -0.0273243 -2.74148e-21)
(0.167342 -0.0300054 -2.29914e-20)
(0.177865 -0.0328755 -1.33888e-20)
(0.188912 -0.0359154 1.7183e-20)
(0.200494 -0.0391076 -1.58566e-20)
(0.212615 -0.0424269 -1.83093e-20)
(0.225276 -0.0458435 4.18629e-20)
(0.238466 -0.0493208 -1.82976e-20)
(0.252178 -0.0528087 -9.99306e-21)
(0.266398 -0.0562757 -7.59973e-21)
(0.281093 -0.0596736 3.39269e-20)
(0.296229 -0.0629583 -1.99071e-20)
(0.311763 -0.0660765 -2.00665e-21)
(0.327656 -0.0689911 8.84133e-21)
(0.343847 -0.0716613 5.95949e-21)
(0.360281 -0.074049 -9.94609e-21)
(0.376896 -0.0761267 2.16923e-21)
(0.393628 -0.0778699 -6.61657e-21)
(0.410412 -0.0792628 8.65094e-21)
(0.427181 -0.0802965 -4.46887e-21)
(0.443874 -0.0809694 1.14782e-22)
(0.460429 -0.0812868 4.21926e-21)
(0.47679 -0.0812609 -6.48571e-21)
(0.492905 -0.0809093 4.01505e-21)
(0.508727 -0.0802547 -4.19198e-21)
(0.524217 -0.0793235 4.0517e-21)
(0.539339 -0.0781445 -2.04758e-21)
(0.554065 -0.0767485 -9.09931e-22)
(0.568373 -0.0751666 -2.38532e-22)
(0.582245 -0.0734303 6.84938e-22)
(0.59567 -0.0715694 -1.43868e-22)
(0.608641 -0.0696132 3.03103e-22)
(0.621158 -0.0675879 3.87633e-22)
(0.63322 -0.0655192 -1.71194e-22)
(0.644836 -0.063428 -3.10841e-23)
(0.656008 -0.0613364 -3.60411e-23)
(0.666759 -0.0592584 1.44508e-23)
(0.677084 -0.0572148 -8.53339e-23)
(0.687025 -0.0552103 4.98827e-23)
(0.696557 -0.0532689 2.18969e-22)
(0.705765 -0.0513804 -5.77305e-23)
(0.71456 -0.0495828 -2.81299e-23)
(0.723133 -0.0478369 1.00839e-22)
(0.731234 -0.0462183 -1.7026e-23)
(0.73931 -0.0446262 2.26809e-23)
(0.746713 -0.0432241 1.41368e-22)
(0.754514 -0.0417796 -7.20358e-23)
(0.761101 -0.0406454 1.08119e-22)
(0.769033 -0.0393228 4.16633e-23)
(0.774423 -0.0385301 7.21552e-24)
(0.783303 -0.037296 2.86363e-23)
(0.786542 -0.0369192 -2.53501e-24)
(0.798177 -0.0358239 8.9312e-24)
(0.120296 0.00968638 -1.0348e-19)
(0.12106 0.00749549 -1.92672e-20)
(0.122195 0.00542439 6.80034e-20)
(0.123713 0.00346368 -1.68451e-20)
(0.125637 0.00159189 4.14895e-20)
(0.128067 -0.000153421 -3.31458e-20)
(0.130885 -0.0019171 1.93872e-21)
(0.134066 -0.00362078 2.49884e-20)
(0.137685 -0.00522027 -7.29878e-21)
(0.141726 -0.00675382 -2.96474e-20)
(0.146186 -0.0082463 3.28133e-20)
(0.151063 -0.00971138 1.30445e-21)
(0.156364 -0.0111657 -9.53995e-21)
(0.162089 -0.0126316 8.80741e-22)
(0.168235 -0.0141289 3.97869e-20)
(0.174802 -0.0156807 -2.2467e-20)
(0.181792 -0.01731 -3.07071e-20)
(0.189208 -0.01904 -1.92734e-22)
(0.197052 -0.0208935 4.06052e-20)
(0.205328 -0.0228917 -2.61708e-20)
(0.214041 -0.0250539 2.34719e-20)
(0.223195 -0.0273956 -3.41535e-20)
(0.232796 -0.0299275 8.5926e-22)
(0.242846 -0.0326592 4.3774e-20)
(0.253349 -0.0355772 -2.70506e-20)
(0.264318 -0.0386855 -2.70327e-21)
(0.275747 -0.0419688 3.84848e-21)
(0.287635 -0.0454077 1.41633e-20)
(0.299977 -0.0489753 -3.43766e-20)
(0.312764 -0.052639 4.86143e-23)
(0.325979 -0.0563598 -1.28708e-21)
(0.339603 -0.0600883 2.11005e-20)
(0.353616 -0.063784 1.9293e-20)
(0.367984 -0.067397 -9.16928e-21)
(0.382669 -0.0708787 1.02889e-20)
(0.397628 -0.0741752 -2.04834e-20)
(0.412816 -0.0772431 6.55438e-21)
(0.42818 -0.0800394 -1.42344e-20)
(0.443666 -0.0825245 1.58676e-20)
(0.459218 -0.084668 -6.25368e-22)
(0.474778 -0.086445 -8.4765e-21)
(0.490289 -0.0878389 2.80101e-21)
(0.505695 -0.0888411 -1.47454e-21)
(0.520944 -0.089451 3.71614e-21)
(0.535985 -0.0896757 1.94504e-21)
(0.550773 -0.0895292 -6.8585e-21)
(0.565269 -0.089032 4.74907e-21)
(0.579437 -0.0882094 -8.35941e-22)
(0.593248 -0.0870907 -1.0943e-22)
(0.606677 -0.0857082 -1.44172e-21)
(0.619707 -0.0840956 -5.79893e-22)
(0.632322 -0.0822872 1.24665e-21)
(0.644515 -0.0803173 6.11234e-22)
(0.65628 -0.0782184 -6.09871e-22)
(0.667618 -0.0760224 2.3735e-22)
(0.678531 -0.0737575 -1.30897e-22)
(0.689023 -0.0714518 -4.85508e-22)
(0.699107 -0.0691271 2.93634e-22)
(0.708787 -0.0668081 6.21886e-23)
(0.718087 -0.0645089 -1.49734e-23)
(0.727003 -0.0622526 -1.0045e-23)
(0.735578 -0.0600428 -9.3271e-23)
(0.743785 -0.0579072 2.98404e-23)
(0.751711 -0.0558318 1.37558e-22)
(0.759264 -0.0538612 -1.51423e-22)
(0.766636 -0.051948 -7.37072e-24)
(0.773576 -0.0501796 -1.45849e-22)
(0.780522 -0.0484404 8.2292e-23)
(0.786847 -0.0469131 -9.25637e-23)
(0.79357 -0.0453428 -9.82216e-23)
(0.799177 -0.0441082 2.60857e-23)
(0.806037 -0.0426839 -2.31713e-23)
(0.810602 -0.0418138 -5.04105e-23)
(0.818303 -0.0405086 -1.9453e-24)
(0.821027 -0.040076 -3.26972e-23)
(0.831085 -0.0389401 3.73259e-24)
(0.20603 0.00934595 -4.83865e-21)
(0.206461 0.0069612 -1.00233e-19)
(0.207333 0.00467751 7.39014e-20)
(0.208656 0.0024943 4.6209e-20)
(0.210462 0.000393168 -5.11434e-20)
(0.21275 -0.00163039 -2.11373e-20)
(0.21546 -0.00368495 -5.29419e-20)
(0.218667 -0.00560743 1.06044e-19)
(0.222327 -0.0074407 -2.02453e-20)
(0.226435 -0.00921076 -3.22937e-20)
(0.230995 -0.0109346 1.34691e-20)
(0.236006 -0.0126298 -4.32735e-23)
(0.241473 -0.014313 -1.62548e-20)
(0.247396 -0.0160031 1.75164e-20)
(0.25377 -0.0177205 6.24357e-22)
(0.260593 -0.0194888 -1.71211e-20)
(0.267863 -0.0213315 2.72935e-20)
(0.27558 -0.0232718 -2.21379e-20)
(0.283739 -0.0253329 -2.34247e-20)
(0.292338 -0.0275367 4.0698e-20)
(0.301375 -0.029903 -1.15651e-20)
(0.310845 -0.032448 2.71622e-20)
(0.320743 -0.0351828 -4.5805e-20)
(0.331066 -0.0381161 3.06394e-20)
(0.341804 -0.0412398 1.43625e-20)
(0.352957 -0.0445528 -2.66804e-20)
(0.364511 -0.0480406 1.29534e-20)
(0.376455 -0.0516826 -4.26125e-21)
(0.388772 -0.0554505 -2.83491e-20)
(0.401445 -0.05931 1.83259e-21)
(0.414449 -0.0632199 2.09613e-20)
(0.427757 -0.0671308 -5.20547e-21)
(0.44134 -0.0709965 -9.08533e-22)
(0.455161 -0.0747648 -6.4359e-21)
(0.46918 -0.078384 3.4214e-20)
(0.483352 -0.0817992 -2.02463e-20)
(0.497632 -0.084963 1.4397e-21)
(0.51197 -0.0878302 1.48404e-20)
(0.526315 -0.0903604 -8.34696e-21)
(0.540618 -0.0925215 9.88427e-21)
(0.554828 -0.0942882 -1.24829e-20)
(0.568897 -0.0956439 3.95308e-21)
(0.58278 -0.0965808 -5.99249e-21)
(0.596434 -0.0970995 6.1797e-21)
(0.609823 -0.0972087 1.9865e-21)
(0.622912 -0.0969247 -2.10881e-22)
(0.635675 -0.0962702 -4.30398e-21)
(0.648087 -0.0952733 1.164e-21)
(0.660131 -0.0939661 -8.94062e-22)
(0.671793 -0.0923833 1.16013e-21)
(0.683064 -0.0905617 2.01505e-21)
(0.693939 -0.0885378 -1.40176e-21)
(0.704416 -0.0863485 1.31957e-21)
(0.714497 -0.0840284 -7.41502e-22)
(0.724187 -0.0816116 -8.26262e-23)
(0.733494 -0.0791277 5.7206e-22)
(0.742424 -0.0766067 5.74389e-22)
(0.750992 -0.0740713 -4.09765e-24)
(0.759204 -0.071548 -3.34864e-22)
(0.767084 -0.0690506 5.9573e-23)
(0.774629 -0.066605 6.96522e-24)
(0.781881 -0.0642127 3.43096e-23)
(0.788812 -0.0619055 2.85715e-23)
(0.795508 -0.059665 -2.03784e-22)
(0.801877 -0.0575424 -2.14053e-24)
(0.808104 -0.0554827 1.30066e-22)
(0.813946 -0.0535834 -1.64748e-22)
(0.819821 -0.0517166 1.29235e-22)
(0.825136 -0.0500804 1.35658e-22)
(0.830839 -0.0484029 -2.35992e-23)
(0.835538 -0.0470807 -6.51655e-23)
(0.841381 -0.0455731 -1.22915e-23)
(0.84519 -0.0446339 -2.51638e-23)
(0.851771 -0.0432751 7.2886e-24)
(0.854031 -0.0427918 3.26993e-24)
(0.862601 -0.0416279 -1.25428e-23)
(0.302981 0.00938827 3.43425e-20)
(0.302338 0.00675247 -1.51599e-20)
(0.302285 0.00421426 6.66248e-20)
(0.302806 0.00176981 -1.47826e-21)
(0.303904 -0.000602671 -7.90559e-20)
(0.305598 -0.00298355 -5.45376e-20)
(0.307817 -0.00525677 4.65731e-20)
(0.310578 -0.00743613 -4.13756e-21)
(0.313857 -0.00953264 3.51325e-20)
(0.317642 -0.0115585 -7.1762e-20)
(0.321925 -0.0135318 2.76287e-20)
(0.326703 -0.0154743 4.52043e-21)
(0.331978 -0.0174022 1.72371e-20)
(0.337748 -0.0193312 3.74195e-20)
(0.344004 -0.0212815 -2.19434e-20)
(0.35074 -0.0232774 -8.01443e-21)
(0.357952 -0.0253421 -7.60165e-21)
(0.365632 -0.0274987 4.79631e-20)
(0.373773 -0.0297701 3.04282e-21)
(0.382366 -0.0321787 -8.04089e-21)
(0.3914 -0.034744 -2.37722e-20)
(0.400864 -0.0374826 2.92838e-20)
(0.410745 -0.0404058 -4.85049e-20)
(0.421028 -0.0435218 3.51642e-20)
(0.431696 -0.0468258 -3.15092e-20)
(0.442734 -0.0503136 2.94259e-20)
(0.454122 -0.0539711 -2.29468e-20)
(0.465836 -0.0577768 2.72723e-20)
(0.477852 -0.0617017 -3.49708e-20)
(0.49014 -0.0657097 1.57955e-20)
(0.502669 -0.0697586 -2.38787e-20)
(0.515404 -0.0737985 3.07388e-20)
(0.528308 -0.0777795 -2.61833e-20)
(0.541342 -0.0816478 1.16749e-20)
(0.554462 -0.0853493 6.46585e-21)
(0.567622 -0.0888285 3.40197e-21)
(0.580778 -0.0920351 -1.78395e-20)
(0.593882 -0.0949231 1.70377e-21)
(0.606889 -0.0974515 1.87517e-20)
(0.619756 -0.0995872 -2.12804e-20)
(0.632441 -0.101305 9.51945e-21)
(0.644905 -0.10259 -1.09215e-20)
(0.657113 -0.103434 1.34243e-20)
(0.669037 -0.10384 -1.48456e-20)
(0.680651 -0.103818 5.67395e-21)
(0.691933 -0.103386 4.83086e-21)
(0.702869 -0.10257 -5.61166e-21)
(0.713447 -0.1014 6.32205e-21)
(0.72366 -0.0999103 -3.22618e-21)
(0.733505 -0.0981376 -9.76034e-22)
(0.742981 -0.0961211 -1.2348e-21)
(0.752092 -0.0938992 1.91076e-21)
(0.760843 -0.0915108 -8.69103e-22)
(0.769241 -0.088992 -2.40621e-22)
(0.777296 -0.0863785 3.46612e-22)
(0.785017 -0.0837009 4.96239e-22)
(0.792415 -0.0809908 1.98706e-22)
(0.799505 -0.0782711 -4.71494e-22)
(0.806294 -0.0755701 -7.40843e-23)
(0.812805 -0.072901 2.73308e-22)
(0.819034 -0.0702919 -2.6307e-23)
(0.825024 -0.0677424 8.61167e-24)
(0.830744 -0.0652878 -4.20585e-23)
(0.836277 -0.0629059 -7.16855e-25)
(0.841533 -0.0606535 8.53944e-23)
(0.846686 -0.0584689 -5.49421e-23)
(0.851507 -0.0564584 -7.85315e-23)
(0.856383 -0.0544842 1.18922e-22)
(0.860766 -0.0527554 6.55328e-23)
(0.865519 -0.0509893 -8.78915e-23)
(0.869391 -0.0495923 -2.33439e-24)
(0.874287 -0.0480185 4.78284e-23)
(0.877417 -0.0470196 -1.83982e-23)
(0.882952 -0.0456216 -4.01879e-24)
(0.884802 -0.0450943 1.98493e-23)