/*--------------------------------*- C++ -*----------------------------------*\
  =========                 |
  \\      /  F ield         | OpenFOAM: The Open Source CFD Toolbox
   \\    /   O peration     | Website:  https://openfoam.org
    \\  /    A nd           | Version:  7
     \\/     M anipulation  |
\*---------------------------------------------------------------------------*/
FoamFile
{
    version     2.0;
    format      ascii;
    class       surfaceScalarField;
    location    "80";
    object      phi;
}
// * * * * * * * * * * * * * * * * * * * * * * * * * * * * * * * * * * * * * //

dimensions      [0 3 -1 0 0 0 0];

internalField   nonuniform List<scalar> 
6868
(
-0.00245888
-5.64395e-05
-0.00243726
-6.30795e-05
-0.00241399
-6.95713e-05
-0.00238904
-7.5845e-05
-0.00236241
-8.18302e-05
-0.00233408
-8.74576e-05
-0.00230403
-9.26595e-05
-0.00227224
-9.73706e-05
-0.00223871
-0.000101529
-0.00220343
-0.000105078
-0.00216638
-0.000107966
-0.00212756
-0.000110148
-0.00208695
-0.000111585
-0.00204457
-0.000112248
-0.00200039
-0.000112116
-0.00195442
-0.000111178
-0.00190664
-0.000109434
-0.00185705
-0.000106902
-0.00180566
-0.000103612
-0.00175257
-9.9598e-05
-0.00169778
-9.48811e-05
-0.0016413
-8.94984e-05
-0.00158314
-8.34993e-05
-0.00152328
-7.69468e-05
-0.00146178
-6.99185e-05
-0.0013987
-6.24875e-05
-0.00133417
-5.47528e-05
-0.00126814
-4.68164e-05
-0.00120066
-3.87442e-05
-0.00113178
-3.06288e-05
-0.00106154
-2.25712e-05
-0.000990002
-1.46781e-05
-0.000917172
-7.07713e-06
-0.000842894
-2.16901e-08
-0.000767917
7.42207e-06
-0.000691932
1.39845e-05
-0.000614965
1.99204e-05
-0.000537077
2.5196e-05
-0.000458334
2.9762e-05
-0.000378807
3.35665e-05
-0.000298574
3.65745e-05
-0.000217704
3.87385e-05
-0.000136265
4.00274e-05
-5.43247e-05
4.04225e-05
2.8036e-05
3.99158e-05
0.00011073
3.85091e-05
0.000193711
3.6202e-05
0.000276907
3.30155e-05
0.000360247
2.89743e-05
0.000443662
2.41094e-05
0.00052709
1.84553e-05
0.000610488
1.20415e-05
0.000693897
4.84993e-06
0.000777008
-2.65195e-06
0.000859716
-1.0632e-05
0.000942059
-1.92016e-05
0.001024
-2.81976e-05
0.00110546
-3.75216e-05
0.0011864
-4.70886e-05
0.00126673
-5.68183e-05
0.00134639
-6.66315e-05
0.00142525
-7.64437e-05
0.00150351
-8.61362e-05
0.00158097
-9.56844e-05
0.00165759
-0.000105011
0.00173334
-0.000114042
0.00180819
-0.00012271
0.00188211
-0.00013095
0.00195509
-0.000138702
0.00202713
-0.00014591
0.00209821
-0.000152525
0.00216835
-0.000158497
0.00223754
-0.000163787
0.00230581
-0.000168356
0.00237317
-0.00017217
0.00243965
-0.0001752
0.00250528
-0.000177419
0.0025701
-0.000178804
0.00263414
-0.000179334
0.00269746
-0.000178988
0.0027601
-0.000177747
0.00282212
-0.000175591
0.00288358
-0.000172494
0.00294456
-0.000168427
0.00300513
-0.000163353
0.00306538
-0.000157215
0.00312543
-0.000149952
8.99021e-05
0.00318539
-0.000141446
8.14805e-05
0.00324548
-0.000131558
7.14709e-05
0.0033059
-0.000120366
5.99442e-05
-0.000104466
4.39957e-05
-0.00197415
-7.78993e-05
-0.00195117
-8.60557e-05
-0.00192667
-9.40769e-05
-0.00190062
-0.000101892
-0.00187302
-0.000109431
-0.00184385
-0.000116624
-0.00181311
-0.000123403
-0.00178078
-0.000129701
-0.00174685
-0.000135458
-0.00171131
-0.000140615
-0.00167416
-0.000145121
-0.00163537
-0.000148932
-0.00159495
-0.000152009
-0.00155288
-0.000154322
-0.00150914
-0.000155849
-0.00146374
-0.000156581
-0.00141666
-0.000156517
-0.00136789
-0.000155668
-0.00131744
-0.000154058
-0.00126533
-0.000151712
-0.00121155
-0.000148661
-0.0011561
-0.000144946
-0.00109899
-0.000140617
-0.0010402
-0.000135732
-0.000979759
-0.00013036
-0.000917691
-0.000124555
-0.000854071
-0.000118373
-0.00078885
-0.000112037
-0.00072207
-0.000105525
-0.000653771
-9.89273e-05
-0.000584001
-9.23417e-05
-0.000512817
-8.58622e-05
-0.00044031
-7.95841e-05
-0.000366733
-7.35983e-05
-0.00029144
-6.78707e-05
-0.000214865
-6.25912e-05
-0.000137107
-5.78372e-05
-5.82417e-05
-5.36694e-05
2.16553e-05
-5.0135e-05
0.000102496
-4.72746e-05
0.000184216
-4.51448e-05
0.000266733
-4.3779e-05
0.000349963
-4.32024e-05
0.000433817
-4.34312e-05
0.000518204
-4.44711e-05
0.000603033
-4.63199e-05
0.000688205
-4.897e-05
0.000773621
-5.24012e-05
0.000859182
-5.65859e-05
0.000944781
-6.14898e-05
0.00103031
-6.70724e-05
0.00111564
-7.32875e-05
0.00120056
-8.00767e-05
0.00128524
-8.73285e-05
0.0013696
-9.49879e-05
0.00145342
-0.000103025
0.00153659
-0.000111368
0.00161901
-0.000119942
0.00170059
-0.000128671
0.00178125
-0.000137477
0.00186091
-0.000146285
0.00193948
-0.000155017
0.00201694
-0.000163597
0.00209322
-0.000171962
0.00216826
-0.00018005
0.00224201
-0.000187798
0.00231445
-0.000195146
0.00238554
-0.00020204
0.00245526
-0.000208429
0.00252362
-0.000214266
0.00259061
-0.00021951
0.00265623
-0.000224123
0.00272052
-0.000228071
0.00278349
-0.000231327
0.00284518
-0.000233864
0.00290564
-0.000235662
0.00296493
-0.000236703
0.00302309
-0.000236972
0.00308022
-0.000236455
0.00313637
-0.00023514
0.00319164
-0.000233018
0.00324612
-0.000230075
0.00329993
-0.000226301
0.00335318
-0.000221677
0.00340601
-0.000216185
0.00345859
-0.00020979
0.0035111
-0.000202468
0.00356381
-0.000194153
0.00361695
-0.000184702
0.00367127
-0.000174686
-0.000159745
-0.00105844
-0.00103274
-0.000111755
-0.00100563
-0.00012118
-0.000977123
-0.000130403
-0.000947201
-0.000139353
-0.000915865
-0.000147961
-0.00088311
-0.000156157
-0.000848933
-0.000163878
-0.000813329
-0.000171062
-0.000776293
-0.000177651
-0.000737819
-0.000183595
-0.000697902
-0.000188849
-0.000656536
-0.000193375
-0.000613712
-0.000197146
-0.00056942
-0.000200141
-0.000523652
-0.00020235
-0.000476396
-0.000203772
-0.000427646
-0.000204418
-0.000377397
-0.000204307
-0.000325644
-0.000203464
-0.000272382
-0.000201923
-0.000217602
-0.000199727
-0.000161295
-0.000196923
-0.000103458
-0.000193569
-4.40908e-05
-0.000189727
1.68475e-05
-0.000185493
7.94737e-05
-0.000180999
0.000143599
-0.000176162
0.000209212
-0.000171138
0.000276304
-0.000166019
0.000344856
-0.000160894
0.000414839
-0.000155845
0.000486209
-0.000150953
0.000558899
-0.000146289
0.000632945
-0.000141917
0.000708284
-0.000137929
0.000784846
-0.0001344
0.000862564
-0.000131387
0.000941366
-0.000128937
0.00102118
-0.000127091
0.00110193
-0.00012589
0.00118351
-0.000125365
0.00126585
-0.000125535
0.00134883
-0.000126412
0.00143235
-0.000127998
0.00151632
-0.000130287
0.00160062
-0.000133265
0.00168512
-0.000136909
0.00176972
-0.000141187
0.0018543
-0.000146063
0.00193872
-0.000151492
0.00202285
-0.000157421
0.00210657
-0.000163791
0.00218977
-0.00017053
0.00227236
-0.00017758
0.00235422
-0.000184881
0.00243522
-0.000192369
0.00251525
-0.000199975
0.00259421
-0.000207628
0.00267199
-0.000215259
0.0027485
-0.000222798
0.00282366
-0.000230178
0.0028974
-0.000237335
0.00296965
-0.00024421
0.00304034
-0.000250747
0.00310944
-0.000256894
0.0031769
-0.000262603
0.00324269
-0.000267829
0.00330679
-0.000272531
0.0033692
-0.000276676
0.00342992
-0.000280232
0.00348897
-0.000283172
0.00354637
-0.000285475
0.00360217
-0.000287122
0.0036564
-0.000288099
0.00370914
-0.000288397
0.00376044
-0.000288006
0.00381039
-0.000286923
0.00385908
-0.000285145
0.00390661
-0.000282672
0.0039531
-0.000279503
0.00399866
-0.000275641
0.00404345
-0.000271087
0.00408762
-0.000265841
0.00413134
-0.000259908
0.00417483
-0.000253282
0.00421832
-0.000245957
0.00426217
-0.000238
0.00430653
-0.000229071
0.00435245
-0.0002206
-0.000207251
0.000232732
-0.000139735
0.000262041
-0.000150489
0.000292671
-0.000161033
0.000324611
-0.000171294
0.000357855
-0.000181204
0.000392392
-0.000190695
0.000428216
-0.000199702
0.00046532
-0.000208166
0.000503698
-0.000216029
0.000543345
-0.000223242
0.000584258
-0.000229762
0.000626435
-0.000235552
0.000669877
-0.000240587
0.000714585
-0.000244849
0.000760566
-0.000248331
0.000807826
-0.000251032
0.000856371
-0.000252964
0.00090621
-0.000254146
0.000957351
-0.000254604
0.0010098
-0.000254375
0.00106358
-0.000253501
0.00111869
-0.000252032
0.00117514
-0.000250025
0.00123296
-0.000247545
0.00129214
-0.00024467
0.00135262
-0.000241485
0.00141448
-0.000238022
0.00147771
-0.000234367
0.0015423
-0.000230608
0.00160823
-0.000226827
0.00167549
-0.000223101
0.00174404
-0.000219507
0.00181387
-0.000216113
0.00188494
-0.000212987
0.00195721
-0.000210198
0.00203062
-0.000207808
0.0021051
-0.000205872
0.0021806
-0.000204432
0.00225703
-0.000203526
0.00233432
-0.000203184
0.00241239
-0.000203427
0.00249112
-0.000204271
0.00257043
-0.000205721
0.00265021
-0.000207773
0.00273033
-0.000210416
0.0028107
-0.000213631
0.00289118
-0.000217391
0.00297166
-0.000221662
0.003052
-0.000226403
0.00313207
-0.000231568
0.00321176
-0.000237104
0.00329092
-0.000242952
0.00336944
-0.000249051
0.0034472
-0.000255339
0.00352407
-0.000261756
0.00359994
-0.000268239
0.00367469
-0.000274723
0.00374821
-0.000281145
0.00382039
-0.000287442
0.00389114
-0.000293552
0.00396038
-0.000299418
0.00402803
-0.000304983
0.00409402
-0.000310198
0.00415829
-0.000315016
0.00422079
-0.000319394
0.00428148
-0.000323295
0.00434034
-0.000326685
0.00439734
-0.000329537
0.00445249
-0.000331826
0.00450579
-0.000333532
0.00455726
-0.000334642
0.00460693
-0.000335145
0.00465484
-0.000335034
0.00470105
-0.000334307
0.00474562
-0.000332965
0.00478863
-0.000331012
0.00483016
-0.000328455
0.00487032
-0.000325304
0.00490921
-0.000321569
0.00494698
-0.000317266
0.00498375
-0.00031241
0.00501968
-0.000307017
0.00505494
-0.000301109
0.00508974
-0.000294702
0.0051243
-0.000287847
0.00515884
-0.000280495
0.00519378
-0.000272944
0.0052292
-0.000264484
0.00526603
-0.000257431
-0.000245821
0.00174617
-0.000168046
0.00177578
-0.000180102
0.00180666
-0.000191919
0.0018388
-0.000203427
0.00187215
-0.000214557
0.0019067
-0.000225245
0.00194243
-0.000235427
0.00197931
-0.000245046
0.00201732
-0.000254047
0.00205647
-0.000262384
0.00209672
-0.000270015
0.00213807
-0.000276908
0.00218052
-0.000283038
0.00222407
-0.000288391
0.0022687
-0.000292961
0.00231442
-0.000296751
0.00236123
-0.000299774
0.00240913
-0.00030205
0.00245813
-0.000303608
0.00250824
-0.000304485
0.00255947
-0.000304726
0.00261182
-0.000304383
0.00266531
-0.000303513
0.00271994
-0.000302179
0.00277572
-0.000300452
0.00283264
-0.000298406
0.00289072
-0.000296102
0.00294997
-0.000293615
0.00301038
-0.000291021
0.00307195
-0.000288394
0.00313466
-0.000285809
0.00319848
-0.000283334
0.00326341
-0.000281036
0.0033294
-0.000278976
0.00339641
-0.000277214
0.00346441
-0.000275803
0.00353332
-0.000274788
0.0036031
-0.000274208
0.00367367
-0.000274093
0.00374495
-0.000274465
0.00381686
-0.00027534
0.00388931
-0.000276725
0.00396221
-0.000278618
0.00403545
-0.00028101
0.00410892
-0.000283885
0.00418251
-0.00028722
0.0042561
-0.000290982
0.00432957
-0.000295136
0.00440281
-0.000299638
0.00447568
-0.000304439
0.00454806
-0.000309488
0.00461984
-0.000314728
0.00469089
-0.000320101
0.0047611
-0.000325545
0.00483034
-0.000331004
0.00489852
-0.000336415
0.00496552
-0.000341721
0.00503124
-0.000346863
0.00509558
-0.000351785
0.00515846
-0.000356433
0.0052198
-0.000360758
0.00527953
-0.000364711
0.00533758
-0.000368253
0.00539391
-0.000371346
0.00544848
-0.000373956
0.00550124
-0.000376056
0.00555218
-0.000377624
0.00560128
-0.000378641
0.00564855
-0.000379094
0.00569399
-0.000378975
0.00573763
-0.00037828
0.00577949
-0.00037701
0.00581963
-0.00037517
0.00585809
-0.000372767
0.00589494
-0.000369814
0.00593026
-0.000366327
0.00596412
-0.000362323
0.00599664
-0.000357824
0.00602793
-0.000352854
0.0060581
-0.000347439
0.0060873
-0.000341609
0.00611568
-0.000335393
0.00614341
-0.00032884
0.00617066
-0.000321959
0.0061977
-0.000314881
0.00622466
-0.000307456
0.00625198
-0.000300265
0.00627969
-0.000292191
0.00630844
-0.000286185
-0.000276072
0.00341035
0.00343625
-0.000206009
0.00346354
-0.000219207
0.00349215
-0.000232039
0.00352204
-0.00024444
0.00355314
-0.000256351
0.00358543
-0.000267712
0.00361885
-0.000278469
0.00365338
-0.000288574
0.00368897
-0.000297981
0.00372561
-0.000306655
0.00376327
-0.000314567
0.00380193
-0.000321697
0.00384157
-0.000328034
0.00388219
-0.000333574
0.00392376
-0.000338324
0.00396629
-0.0003423
0.00400976
-0.000345526
0.00405419
-0.000348033
0.00409956
-0.00034986
0.00414589
-0.000351054
0.00419318
-0.000351668
0.00424142
-0.000351761
0.00429064
-0.000351395
0.00434083
-0.000350638
0.00439198
-0.00034956
0.00444411
-0.00034823
0.00449721
-0.000346718
0.00455128
-0.000345095
0.00460632
-0.000343432
0.00466231
-0.000341796
0.00471923
-0.000340253
0.00477706
-0.000338862
0.00483576
-0.00033768
0.0048953
-0.000336759
0.00495565
-0.000336144
0.00501673
-0.000335874
0.0050785
-0.000335979
0.00514089
-0.000336485
0.00520384
-0.000337407
0.00526725
-0.000338754
0.00533105
-0.000340526
0.00539515
-0.000342718
0.00545946
-0.000345315
0.00552387
-0.000348295
0.00558828
-0.000351632
0.00565259
-0.000355291
0.00571668
-0.000359233
0.00578046
-0.000363413
0.00584381
-0.000367784
0.00590661
-0.000372292
0.00596876
-0.000376884
0.00603017
-0.000381503
0.00609071
-0.000386092
0.0061503
-0.000390594
0.00620884
-0.000394955
0.00626624
-0.00039912
0.00632242
-0.000403036
0.00637728
-0.000406654
0.00643078
-0.000409927
0.00648283
-0.000412812
0.00653339
-0.000415271
0.00658241
-0.000417271
0.00662985
-0.000418783
0.00667567
-0.000419781
0.00671986
-0.000420248
0.00676241
-0.00042017
0.00680331
-0.000419538
0.00684256
-0.000418348
0.00688019
-0.0004166
0.00691621
-0.0004143
0.00695065
-0.000411459
0.00698357
-0.000408089
0.00701502
-0.000404209
0.00704504
-0.000399841
0.00707372
-0.000395008
0.00710114
-0.000389739
0.00712738
-0.000384065
0.00715255
-0.000378022
0.00717675
-0.000371643
0.00720012
-0.000364978
0.00722278
-0.000358053
0.0072449
-0.000350957
0.00726661
-0.000343666
0.00728814
-0.000336412
0.00730959
-0.000328912
0.00733133
-0.000322005
0.00735339
-0.000314246
0.00737614
-0.000308938
-0.000299944
0.0051314
0.00515073
-0.000238535
0.0051716
-0.000252907
0.00519392
-0.000266764
0.00521762
-0.00028005
0.00524262
-0.000292714
0.00526886
-0.000304708
0.00529628
-0.000315989
0.00532481
-0.000326519
0.00535443
-0.000336268
0.00538507
-0.000345213
0.00541672
-0.00035334
0.00544932
-0.000360642
0.00548287
-0.000367122
0.00551734
-0.000372791
0.00555271
-0.000377669
0.00558896
-0.000381782
0.0056261
-0.000385167
0.0056641
-0.000387865
0.00570297
-0.000389925
0.00574271
-0.000391403
0.0057833
-0.000392356
0.00582476
-0.000392848
0.00586707
-0.000392947
0.00591023
-0.00039272
0.00595423
-0.000392237
0.00599908
-0.000391566
0.00604476
-0.000390776
0.00609126
-0.000389931
0.00613856
-0.000389097
0.00618664
-0.000388333
0.00623548
-0.000387696
0.00628503
-0.000387235
0.00633527
-0.000386997
0.00638615
-0.000387022
0.00643762
-0.000387341
0.00648962
-0.000387981
0.00654209
-0.00038896
0.00659497
-0.000390288
0.00664819
-0.000391971
0.00670167
-0.000394002
0.00675532
-0.000396373
0.00680907
-0.000399064
0.00686283
-0.000402052
0.0069165
-0.000405306
0.00697
-0.000408792
0.00702324
-0.000412468
0.00707611
-0.000416289
0.00712854
-0.000420209
0.00718042
-0.000424176
0.00723167
-0.000428138
0.00728221
-0.000432041
0.00733195
-0.000435833
0.00738082
-0.000439461
0.00742874
-0.000442873
0.00747564
-0.000446019
0.00752146
-0.000448855
0.00756614
-0.000451335
0.00760963
-0.000453419
0.00765189
-0.000455073
0.00769288
-0.000456263
0.00773258
-0.000456965
0.00777095
-0.000457155
0.00780798
-0.000456817
0.00784367
-0.000455939
0.00787802
-0.000454515
0.00791103
-0.000452544
0.00794271
-0.000450027
0.00797308
-0.000446974
0.00800218
-0.000443397
0.00803003
-0.000439312
0.00805668
-0.000434741
0.00808218
-0.000429708
0.00810658
-0.000424242
0.00812995
-0.000418374
0.00815235
-0.000412141
0.00817386
-0.000405579
0.00819458
-0.000398735
0.00821458
-0.000391645
0.00823398
-0.000384377
0.00825287
-0.000376949
0.00827141
-0.000369489
0.00828967
-0.000361928
0.00830786
-0.000354598
0.00832603
-0.000347084
0.00834445
-0.000340425
0.00836315
-0.000332946
0.00838233
-0.000328117
-0.000319909
0.00673858
-0.000246277
0.00674817
-0.000262494
0.00675948
-0.000278074
0.0067724
-0.000292974
0.00678684
-0.000307153
0.0068027
-0.00032057
0.00681991
-0.000333193
0.00683838
-0.000344991
0.00685805
-0.000355943
0.00687887
-0.000366034
0.00690079
-0.000375256
0.00692376
-0.00038361
0.00694774
-0.000391104
0.0069727
-0.000397754
0.00699862
-0.000403585
0.00702547
-0.000408629
0.00705322
-0.000412925
0.00708188
-0.000416517
0.00711141
-0.000419458
0.00714181
-0.000421802
0.00717306
-0.000423612
0.00720516
-0.000424949
0.0072381
-0.000425881
0.00727185
-0.000426475
0.00730642
-0.000426798
0.00734177
-0.000426918
0.00737789
-0.000426898
0.00741476
-0.000426804
0.00745236
-0.000426695
0.00749065
-0.000426627
0.00752961
-0.000426652
0.00756919
-0.000426817
0.00760936
-0.000427164
0.00765006
-0.000427726
0.00769125
-0.000428533
0.00773288
-0.000429606
0.00777488
-0.000430959
0.00781719
-0.0004326
0.00785975
-0.000434528
0.00790248
-0.000436738
0.00794532
-0.000439214
0.0079882
-0.000441939
0.00803103
-0.000444886
0.00807375
-0.000448024
0.00811628
-0.000451318
0.00815854
-0.000454727
0.00820045
-0.000458207
0.00824196
-0.000461714
0.00828298
-0.000465197
0.00832345
-0.000468609
0.00836331
-0.000471898
0.00840249
-0.000475017
0.00844095
-0.000477915
0.00847862
-0.000480547
0.00851547
-0.000482868
0.00855145
-0.000484837
0.00858653
-0.000486415
0.00862068
-0.000487568
0.00865387
-0.000488265
0.00868609
-0.000488482
0.00871732
-0.000488197
0.00874756
-0.000487394
0.00877681
-0.000486062
0.00880507
-0.000484195
0.00883234
-0.000481791
0.00885865
-0.000478854
0.00888402
-0.000475392
0.00890846
-0.000471419
0.00893202
-0.000466952
0.00895472
-0.000462011
0.0089766
-0.000456624
0.00899771
-0.000450819
0.0090181
-0.00044463
0.00903782
-0.000438092
0.00905692
-0.000431248
0.00907548
-0.000424137
0.00909356
-0.000416815
0.00911123
-0.000409315
0.00912858
-0.000401724
0.00914567
-0.000394043
0.00916262
-0.000386438
0.00917948
-0.000378793
0.00919641
-0.00037152
0.00921342
-0.000364098
0.0092307
-0.000357703
0.00924826
-0.000350507
0.0092662
-0.000346059
-0.000338431
0.0080779
0.00807547
-0.000260073
0.00807496
-0.000277555
0.00807622
-0.000294238
0.00807916
-0.000310092
0.00808368
-0.000325089
0.00808969
-0.000339205
0.00809712
-0.000352421
0.0081059
-0.000364724
0.00811597
-0.000376107
0.00812729
-0.00038657
0.0081398
-0.000396119
0.00815346
-0.000404769
0.00816825
-0.00041254
0.00818412
-0.000419461
0.00820106
-0.000425567
0.00821904
-0.0004309
0.00823803
-0.000435507
0.00825801
-0.000439439
0.00827896
-0.000442755
0.00830086
-0.000445513
0.00832369
-0.000447779
0.00834743
-0.000449615
0.00837204
-0.000451088
0.00839751
-0.000452263
0.00842379
-0.000453206
0.00845087
-0.000453979
0.00847871
-0.000454643
0.00850727
-0.000455256
0.00853652
-0.000455872
0.00856641
-0.000456538
0.00859689
-0.0004573
0.00862792
-0.000458194
0.00865945
-0.000459254
0.00869142
-0.000460505
0.00872378
-0.000461967
0.00875647
-0.00046365
0.00878943
-0.000465562
0.00882261
-0.0004677
0.00885593
-0.000470058
0.00888933
-0.00047262
0.00892276
-0.000475367
0.00895615
-0.000478275
0.00898943
-0.000481312
0.00902256
-0.000484444
0.00905547
-0.000487633
0.0090881
-0.000490838
0.0091204
-0.000494016
0.00915232
-0.00049712
0.00918382
-0.000500105
0.00921485
-0.000502926
0.00924537
-0.000505536
0.00927534
-0.000507891
0.00930475
-0.00050995
0.00933355
-0.000511672
0.00936173
-0.00051302
0.00938928
-0.000513961
0.00941618
-0.000514465
0.00944242
-0.000514506
0.009468
-0.000514063
0.00949292
-0.00051312
0.00951719
-0.000511664
0.00954082
-0.000509688
0.00956381
-0.000507191
0.00958619
-0.000504173
0.00960798
-0.000500643
0.0096292
-0.000496612
0.00964988
-0.000492097
0.00967005
-0.000487117
0.00968973
-0.000481697
0.00970897
-0.000475866
0.00972781
-0.000469655
0.00974628
-0.000463101
0.00976443
-0.000456242
0.00978231
-0.000449124
0.00979996
-0.000441787
0.00981743
-0.000434292
0.00983479
-0.000426669
0.00985208
-0.000419018
0.00986936
-0.000411325
0.00988671
-0.000403783
0.00990415
-0.000396238
0.00992179
-0.000389157
0.00993963
-0.000381938
0.00995778
-0.000375848
0.00997622
-0.000368949
0.00999499
-0.000364831
-0.000357717
0.00902941
-0.000247124
0.00901841
-0.00026655
0.00900926
-0.000285092
0.0090019
-0.000302728
0.00899624
-0.000319435
0.00899224
-0.000335198
0.00898982
-0.000350003
0.00898894
-0.000363844
0.00898955
-0.000376717
0.00899161
-0.000388628
0.00899508
-0.000399588
0.00899992
-0.000409613
0.00900611
-0.000418726
0.0090136
-0.000426958
0.00902238
-0.000434345
0.00903241
-0.000440928
0.00904366
-0.000446754
0.00905609
-0.000451875
0.00906968
-0.000456347
0.0090844
-0.000460227
0.0091002
-0.000463579
0.00911705
-0.000466463
0.0091349
-0.000468945
0.00915373
-0.000471087
0.00917347
-0.000472952
0.00919409
-0.000474601
0.00921554
-0.000476093
0.00923777
-0.000477484
0.00926072
-0.000478824
0.00928435
-0.000480162
0.00930859
-0.000481539
0.00933338
-0.000482992
0.00935868
-0.000484553
0.00938442
-0.000486246
0.00941055
-0.00048809
0.00943699
-0.000490097
0.0094637
-0.000492273
0.00949062
-0.000494617
0.00951769
-0.000497123
0.00954484
-0.000499778
0.00957204
-0.000502563
0.00959922
-0.000505457
0.00962634
-0.000508431
0.00965335
-0.000511453
0.0096802
-0.000514488
0.00970686
-0.000517497
0.00973329
-0.000520442
0.00975945
-0.00052328
0.00978531
-0.00052597
0.00981086
-0.000528468
0.00983606
-0.000530735
0.00986089
-0.000532728
0.00988535
-0.000534411
0.00990943
-0.000535746
0.00993311
-0.000536701
0.00995639
-0.000537246
0.00997928
-0.000537355
0.0100018
-0.000537006
0.0100239
-0.000536179
0.0100456
-0.000534863
0.010067
-0.000533048
0.0100881
-0.000530728
0.0101088
-0.000527905
0.0101292
-0.000524583
0.0101493
-0.000520771
0.0101692
-0.000516483
0.0101888
-0.000511737
0.0102083
-0.000506554
0.0102275
-0.00050096
0.0102467
-0.000494987
0.0102657
-0.000488665
0.0102846
-0.000482035
0.0103035
-0.000475133
0.0103224
-0.00046801
0.0103413
-0.000460701
0.0103603
-0.000453275
0.0103794
-0.000445755
0.0103986
-0.000438249
0.010418
-0.000430731
0.0104376
-0.000423413
0.0104575
-0.000416109
0.0104777
-0.000409319
0.0104981
-0.000402394
0.0105189
-0.000396637
0.01054
-0.000390072
0.0105614
-0.000386242
-0.000379451
0.0147033
-0.000212644
0.0146697
-0.000233002
0.0146371
-0.00025243
0.0146053
-0.000270914
0.0145743
-0.000288441
0.0145441
-0.000305002
0.0145147
-0.000320593
0.014486
-0.000335216
0.0144582
-0.000348875
0.0144311
-0.000361581
0.0144049
-0.00037335
0.0143795
-0.000384204
0.0143549
-0.000394169
0.0143313
-0.000403278
0.0143085
-0.000411567
0.0142866
-0.000419078
0.0142657
-0.000425856
0.0142458
-0.000431952
0.0142269
-0.000437417
0.014209
-0.000442306
0.0141921
-0.000446676
0.0141762
-0.000450582
0.0141613
-0.000454084
0.0141475
-0.000457238
0.0141346
-0.0004601
0.0141227
-0.000462724
0.0141118
-0.000465161
0.0141018
-0.000467461
0.0140926
-0.000469668
0.0140843
-0.000471823
0.0140767
-0.000473963
0.0140698
-0.000476118
0.0140636
-0.000478315
0.0140579
-0.000480575
0.0140528
-0.000482913
0.014048
-0.000485338
0.0140436
-0.000487856
0.0140394
-0.000490463
0.0140355
-0.000493155
0.0140316
-0.00049592
0.0140278
-0.000498741
0.0140239
-0.000501598
0.01402
-0.000504467
0.0140158
-0.00050732
0.0140115
-0.000510129
0.0140068
-0.000512859
0.0140019
-0.000515478
0.0139965
-0.000517951
0.0139908
-0.000520243
0.0139847
-0.000522318
0.0139781
-0.000524142
0.013971
-0.000525683
0.0139635
-0.000526909
0.0139556
-0.000527792
0.0139472
-0.000528304
0.0139383
-0.000528423
0.0139291
-0.000528129
0.0139195
-0.000527404
0.0139096
-0.000526236
0.0138993
-0.000524617
0.0138888
-0.00052254
0.0138781
-0.000520005
0.0138672
-0.000517016
0.0138562
-0.000513578
0.0138451
-0.000509703
0.0138341
-0.000505407
0.013823
-0.000500707
0.0138121
-0.000495626
0.0138013
-0.00049019
0.0137908
-0.000484428
0.0137805
-0.000478372
0.0137705
-0.00047206
0.0137609
-0.000465527
0.0137517
-0.00045882
0.013743
-0.000451973
0.0137348
-0.000445052
0.0137271
-0.000438075
0.01372
-0.000431149
0.0137135
-0.000424237
0.0137076
-0.00041755
0.0137024
-0.00041089
0.0136978
-0.000404752
0.0136939
-0.000398478
0.0136906
-0.000393331
0.0136879
-0.000387396
0.0136857
-0.000384005
-0.000377852
0.0157299
-0.000176871
0.0156943
-0.000197361
0.0156588
-0.000216956
0.0156235
-0.000235641
0.0155885
-0.000253408
0.0155537
-0.000270252
0.0155193
-0.000286171
0.0154853
-0.000301169
0.0154516
-0.000315251
0.0154185
-0.00032843
0.0153859
-0.000340722
0.0153538
-0.000352149
0.0153224
-0.000362735
0.0152916
-0.000372512
0.0152616
-0.000381514
0.0152323
-0.000389778
0.0152037
-0.000397346
0.0151761
-0.000404262
0.0151492
-0.000410574
0.0151232
-0.000416328
0.0150981
-0.000421577
0.0150739
-0.000426368
0.0150506
-0.000430754
0.0150281
-0.000434784
0.0150065
-0.000438507
0.0149858
-0.000441971
0.0149658
-0.000445219
0.0149467
-0.000448294
0.0149282
-0.000451235
0.0149105
-0.000454078
0.0148934
-0.000456853
0.0148769
-0.000459589
0.0148609
-0.000462307
0.0148453
-0.000465025
0.0148302
-0.000467757
0.0148153
-0.000470511
0.0148008
-0.000473292
0.0147864
-0.000476098
0.0147722
-0.000478925
0.014758
-0.000481762
0.0147439
-0.000484597
0.0147297
-0.000487414
0.0147154
-0.000490192
0.014701
-0.000492909
0.0146864
-0.00049554
0.0146716
-0.00049806
0.0146566
-0.000500439
0.0146413
-0.00050265
0.0146257
-0.000504665
0.0146098
-0.000506454
0.0145937
-0.000507991
0.0145772
-0.000509248
0.0145605
-0.000510201
0.0145436
-0.000510827
0.0145264
-0.000511104
0.014509
-0.000511016
0.0144914
-0.000510546
0.0144737
-0.000509682
0.0144558
-0.000508415
0.014438
-0.00050674
0.0144201
-0.000504653
0.0144022
-0.000502157
0.0143845
-0.000499256
0.0143668
-0.000495958
0.0143494
-0.000492275
0.0143322
-0.000488221
0.0143153
-0.000483815
0.0142988
-0.000479079
0.0142826
-0.000474036
0.0142669
-0.000468715
0.0142517
-0.000463145
0.014237
-0.000457361
0.0142229
-0.000451394
0.0142093
-0.000445291
0.0141964
-0.00043908
0.0141842
-0.000432822
0.0141727
-0.000426531
0.0141618
-0.000420308
0.0141517
-0.000414109
0.0141423
-0.000408138
0.0141336
-0.000402194
0.0141256
-0.000396746
0.0141183
-0.000391158
0.0141115
-0.000386616
0.0141055
-0.000381317
0.0140998
-0.000378345
-0.000372828
0.0161947
-0.000146397
0.0161637
-0.000166427
0.0161324
-0.000185622
0.0161007
-0.000203976
0.0160688
-0.000221481
0.0160367
-0.000238133
0.0160045
-0.000253933
0.0159722
-0.000268883
0.0159399
-0.00028299
0.0159077
-0.000296266
0.0158758
-0.000308725
0.015844
-0.000320386
0.0158125
-0.000331273
0.0157814
-0.000341411
0.0157507
-0.000350831
0.0157205
-0.000359565
0.0156908
-0.00036765
0.0156617
-0.000375124
0.0156331
-0.000382027
0.0156052
-0.000388401
0.0155779
-0.000394288
0.0155513
-0.000399731
0.0155253
-0.000404775
0.0155
-0.000409462
0.0154753
-0.000413833
0.0154513
-0.000417929
0.0154278
-0.000421789
0.015405
-0.000425448
0.0153827
-0.00042894
0.0153609
-0.000432296
0.0153396
-0.000435541
0.0153187
-0.000438701
0.0152982
-0.000441795
0.015278
-0.000444838
0.0152581
-0.000447843
0.0152384
-0.000450817
0.0152189
-0.000453765
0.0151995
-0.000456687
0.0151801
-0.000459579
0.0151608
-0.000462436
0.0151415
-0.000465245
0.015122
-0.000467996
0.0151025
-0.000470672
0.0150829
-0.000473255
0.0150631
-0.000475727
0.0150431
-0.000478065
0.0150229
-0.000480248
0.0150025
-0.000482253
0.0149819
-0.000484058
0.014961
-0.00048564
0.01494
-0.000486977
0.0149188
-0.000488048
0.0148975
-0.000488833
0.014876
-0.000489314
0.0148543
-0.000489475
0.0148326
-0.000489302
0.0148108
-0.000488784
0.0147891
-0.000487912
0.0147673
-0.000486678
0.0147457
-0.000485081
0.0147241
-0.000483119
0.0147028
-0.000480795
0.0146816
-0.000478113
0.0146608
-0.000475084
0.0146402
-0.000471717
0.01462
-0.000468028
0.0146002
-0.000464033
0.0145809
-0.000459752
0.0145621
-0.000455208
0.0145438
-0.000450426
0.0145261
-0.000445433
0.014509
-0.000440261
0.0144925
-0.000434937
0.0144767
-0.000429503
0.0144616
-0.000423983
0.0144473
-0.000418435
0.0144336
-0.000412866
0.0144206
-0.000407369
0.0144084
-0.000401899
0.0143969
-0.000396645
0.0143862
-0.00039141
0.014376
-0.00038663
0.0143666
-0.000381708
0.0143577
-0.000377733
0.0143494
-0.000373044
0.0143415
-0.000370447
-0.000365478
0.0163446
-0.000121574
0.016319
-0.00014085
0.0162928
-0.000159366
0.0162659
-0.000177114
0.0162385
-0.000194087
0.0162107
-0.000210284
0.0161824
-0.000225705
0.0161539
-0.000240352
0.0161251
-0.000254234
0.0160962
-0.000267358
0.0160673
-0.000279739
0.0160383
-0.000291393
0.0160093
-0.00030234
0.0159805
-0.000312602
0.0159519
-0.000322205
0.0159235
-0.000331177
0.0158954
-0.000339548
0.0158676
-0.000347352
0.0158402
-0.000354621
0.0158132
-0.000361392
0.0157866
-0.0003677
0.0157605
-0.000373582
0.0157348
-0.000379075
0.0157095
-0.000384214
0.0156847
-0.000389036
0.0156604
-0.000393574
0.0156365
-0.000397862
0.0156129
-0.00040193
0.0155898
-0.000405806
0.015567
-0.000409517
0.0155446
-0.000413086
0.0155224
-0.000416533
0.0155005
-0.000419877
0.0154788
-0.00042313
0.0154572
-0.000426305
0.0154358
-0.000429408
0.0154145
-0.000432445
0.0153932
-0.000435416
0.015372
-0.000438319
0.0153507
-0.000441151
0.0153293
-0.000443905
0.0153079
-0.000446569
0.0152864
-0.000449134
0.0152647
-0.000451585
0.0152429
-0.000453906
0.0152209
-0.000456083
0.0151988
-0.000458098
0.0151764
-0.000459933
0.015154
-0.00046157
0.0151313
-0.000462992
0.0151085
-0.000464181
0.0150856
-0.000465121
0.0150625
-0.000465798
0.0150394
-0.000466196
0.0150163
-0.000466303
0.0149931
-0.00046611
0.0149699
-0.000465607
0.0149468
-0.000464788
0.0149237
-0.000463648
0.0149008
-0.000462187
0.0148781
-0.000460404
0.0148556
-0.000458303
0.0148334
-0.000455889
0.0148115
-0.000453172
0.0147899
-0.000450161
0.0147688
-0.00044687
0.0147481
-0.000443314
0.0147278
-0.000439512
0.0147081
-0.000435484
0.0146889
-0.000431252
0.0146703
-0.000426841
0.0146523
-0.000422278
0.014635
-0.000417589
0.0146183
-0.00041281
0.0146023
-0.000407962
0.0145869
-0.000403095
0.0145723
-0.000398215
0.0145583
-0.000393405
0.0145451
-0.000388619
0.0145324
-0.00038403
0.0145205
-0.000379451
0.0145091
-0.000375282
0.0144984
-0.000370966
0.0144882
-0.000367499
0.0144785
-0.000363356
0.0144691
-0.000361086
-0.000356649
0.0163501
-0.000100988
0.0163287
-0.000119429