/*--------------------------------*- C++ -*----------------------------------*\
  =========                 |
  \\      /  F ield         | OpenFOAM: The Open Source CFD Toolbox
   \\    /   O peration     | Website:  https://openfoam.org
    \\  /    A nd           | Version:  7
     \\/     M anipulation  |
\*---------------------------------------------------------------------------*/
FoamFile
{
    version     2.0;
    format      ascii;
    class       volVectorField;
    location    "9.999";
    object      U;
}
// * * * * * * * * * * * * * * * * * * * * * * * * * * * * * * * * * * * * * //

dimensions      [0 1 -1 0 0 0 0];

internalField   nonuniform List<vector> 
11400
(
(-0.00214731 0.00183259 5.10378e-21)
(-0.0113585 0.00404485 -1.84795e-20)
(-0.0275323 0.00537407 -1.52667e-21)
(-0.0461395 0.00615955 -2.84327e-21)
(-0.0659901 0.00659874 -1.65676e-20)
(-0.0863029 0.00683038 -1.59412e-20)
(-0.106607 0.00694807 -2.97989e-21)
(0.0175817 0.013149 1.03605e-20)
(0.079034 0.0241249 -3.64118e-20)
(0.169065 0.0264481 -2.94582e-21)
(0.252796 0.0252146 -5.26366e-21)
(0.327411 0.022976 -2.90786e-20)
(0.393252 0.0207377 -2.66438e-20)
(0.451346 0.018743 -4.64078e-21)
(0.502858 0.0169943 1.63459e-20)
(0.0175817 -0.013149 -1.03605e-20)
(0.079034 -0.0241248 3.64118e-20)
(0.169065 -0.026448 2.94582e-21)
(0.252796 -0.0252146 5.26366e-21)
(0.327411 -0.022976 2.90786e-20)
(0.393252 -0.0207377 2.66438e-20)
(0.451346 -0.018743 4.64078e-21)
(0.502858 -0.0169943 -1.63459e-20)
(0.548733 -0.0154568 -3.90443e-21)
(0.589752 -0.0140987 -5.18895e-21)
(0.626565 -0.0128937 -1.26849e-20)
(0.659718 -0.0118203 -1.65461e-20)
(0.689668 -0.0108601 1.54966e-21)
(0.716804 -0.00999791 7.11461e-21)
(0.741454 -0.00922113 -2.49305e-20)
(0.763903 -0.00851949 -2.16922e-21)
(0.784396 -0.00788352 9.07426e-21)
(0.803144 -0.00730158 9.02346e-21)
(0.820321 -0.0067626 -8.45244e-22)
(0.836053 -0.0062733 -2.23652e-21)
(0.0195794 -0.0393271 9.44043e-20)
(0.0825736 -0.0721934 8.07971e-21)
(0.172863 -0.0791714 -3.94955e-20)
(0.256367 -0.0754946 2.62494e-20)
(0.330623 -0.0687997 -3.64819e-20)
(0.396114 -0.0621012 -3.06695e-21)
(0.453898 -0.0561305 -3.13249e-20)
(0.505143 -0.0508959 2.4722e-20)
(0.550785 -0.0462933 -6.73356e-21)
(0.591601 -0.0422275 3.66962e-20)
(0.628237 -0.0386201 2.65377e-20)
(0.661234 -0.0354061 1.21871e-20)
(0.691047 -0.0325313 4.1924e-20)
(0.718061 -0.0299497 -3.17728e-20)
(0.742603 -0.0276238 2.79923e-20)
(0.764954 -0.0255228 2.66356e-20)
(0.785364 -0.0236182 2.27874e-21)
(0.804043 -0.021875 -2.2871e-20)
(0.821154 -0.0202608 5.25974e-21)
(0.836782 -0.0187975 2.54403e-20)
(0.0235497 -0.0651469 -1.03845e-19)
(0.0896178 -0.11972 2.55174e-20)
(0.180429 -0.131378 1.14221e-19)
(0.263484 -0.125328 -5.00164e-20)
(0.337026 -0.114239 -4.6847e-20)
(0.401817 -0.10313 -1.9876e-20)
(0.458986 -0.0932235 2.94122e-20)
(0.509697 -0.0845371 -9.43055e-21)
(0.554876 -0.0768988 -8.09836e-20)
(0.595288 -0.0701508 -7.41828e-20)
(0.63157 -0.0641633 -6.43512e-21)
(0.664257 -0.0588283 2.07001e-21)
(0.693796 -0.0540558 -9.71622e-21)
(0.720568 -0.0497698 2.04715e-20)
(0.744894 -0.045908 8.19834e-21)
(0.767052 -0.0424192 3.15815e-20)
(0.787294 -0.0392558 -4.54507e-20)
(0.805838 -0.0363593 2.67712e-20)
(0.822815 -0.0336781 -1.25014e-20)
(0.838238 -0.0312543 -4.3502e-20)
(0.0294427 -0.0903735 -5.0826e-20)
(0.100097 -0.166348 -3.09452e-20)
(0.191698 -0.182728 -1.95729e-19)
(0.274094 -0.174419 -4.32178e-20)
(0.346574 -0.159042 -1.00904e-19)
(0.410325 -0.143604 -3.46883e-20)
(0.466576 -0.129828 9.19695e-20)
(0.516492 -0.117746 5.2115e-20)
(0.56098 -0.107121 1.95779e-21)
(0.600789 -0.0977335 6.57477e-20)
(0.636545 -0.0894028 -1.43171e-20)
(0.668768 -0.081979 1.6692e-21)
(0.6979 -0.075337 -4.3035e-20)
(0.724311 -0.0693715 1.33552e-20)
(0.748314 -0.0639956 -1.05713e-19)
(0.770183 -0.0591384 -8.74176e-20)
(0.790177 -0.0547325 -4.10957e-20)
(0.808517 -0.0506959 1.19624e-20)
(0.825296 -0.0469612 2.96025e-20)
(0.840417 -0.0435988 2.38139e-20)
(0.037184 -0.114778 1.22337e-19)
(0.113907 -0.211728 -1.10342e-19)
(0.206576 -0.232886 -8.89948e-20)
(0.288117 -0.222481 -1.45594e-20)
(0.359203 -0.20296 1.93548e-19)
(0.421579 -0.183306 5.51598e-20)
(0.476618 -0.165753 1.50495e-20)
(0.525483 -0.150355 -4.20446e-20)
(0.569058 -0.136811 -3.56653e-20)
(0.608072 -0.124843 5.04173e-20)
(0.64313 -0.11422 1.17722e-19)
(0.674742 -0.104752 -1.79037e-19)
(0.703334 -0.0962801 7.05375e-20)
(0.729268 -0.0886694 1.63194e-20)
(0.752845 -0.0818099 7.95289e-20)
(0.774333 -0.0756113 4.90576e-20)
(0.793995 -0.0699857 1.27476e-19)
(0.812065 -0.0648273 -2.50683e-20)
(0.828584 -0.0600574 1.04812e-20)
(0.84331 -0.0557861 6.54528e-20)
(0.0466754 -0.138141 -1.30442e-19)
(0.13091 -0.255522 4.49864e-20)
(0.224939 -0.281527 2.84195e-19)
(0.305451 -0.269229 1.51605e-19)
(0.374825 -0.24575 -1.37553e-19)
(0.435506 -0.222026 -9.0338e-20)
(0.489047 -0.200815 7.73963e-20)
(0.536612 -0.1822 7.10836e-20)
(0.579059 -0.165824 4.13693e-20)
(0.617089 -0.15135 -1.46542e-19)
(0.651286 -0.1385 1.38891e-20)
(0.682141 -0.127046 8.88776e-20)
(0.710067 -0.116793 -7.20427e-20)
(0.73541 -0.107581 -1.07143e-19)
(0.75846 -0.0992763 2.99947e-20)
(0.779477 -0.0917704 -1.11584e-19)
(0.79873 -0.0849542 -4.09603e-20)
(0.816463 -0.0786974 1.85346e-20)
(0.832662 -0.0729151 -5.22584e-20)
(0.84691 -0.0677715 -3.37104e-20)
(0.0577961 -0.160251 2.29264e-19)
(0.150936 -0.297402 -1.51502e-19)
(0.246631 -0.328336 -2.61711e-20)
(0.325965 -0.314393 -6.28401e-20)
(0.393332 -0.287179 -5.15604e-20)
(0.452012 -0.259561 8.73027e-20)
(0.50378 -0.234833 -1.42448e-19)
(0.549808 -0.213123 -3.72678e-21)
(0.59092 -0.194019 3.65783e-20)
(0.627786 -0.177129 2.37717e-20)
(0.660964 -0.162132 -3.23093e-20)
(0.690923 -0.148759 -7.93516e-20)
(0.718059 -0.136786 -2.97155e-20)
(0.742703 -0.126025 7.22619e-20)
(0.76513 -0.116323 -2.73689e-20)
(0.785588 -0.107551 8.01086e-20)
(0.804354 -0.0995791 6.28246e-20)
(0.821687 -0.0922523 -2.0425e-20)
(0.837509 -0.0854845 -3.47699e-20)
(0.851202 -0.0795105 5.54523e-20)
(0.0704033 -0.180913 4.45528e-20)
(0.173783 -0.337057 -1.8568e-21)
(0.271469 -0.373012 4.91813e-20)
(0.349507 -0.357709 3.91733e-21)
(0.414596 -0.327023 -1.14215e-19)
(0.470986 -0.295716 -1.56384e-19)
(0.520723 -0.267637 -1.04482e-19)
(0.564987 -0.242972 -1.90823e-19)
(0.604566 -0.221261 -4.39992e-20)
(0.640095 -0.202062 6.95552e-20)
(0.672103 -0.185008 -5.88238e-20)
(0.701034 -0.169797 1.07716e-19)
(0.727264 -0.156174 1.56871e-19)
(0.751106 -0.143926 -1.50994e-19)
(0.772817 -0.132879 7.85428e-20)
(0.792633 -0.122889 -1.06088e-19)
(0.810839 -0.113804 -8.00432e-20)
(0.827708 -0.10544 -8.7039e-20)
(0.843102 -0.0977174 1.68656e-19)
(0.856174 -0.0909592 2.02e-21)
(0.0843341 -0.199945 -2.28043e-19)
(0.199218 -0.374195 6.44156e-20)
(0.29924 -0.415268 2.51389e-19)
(0.3759 -0.398929 -3.44028e-20)
(0.438469 -0.365069 1.04873e-20)
(0.492304 -0.330307 -6.65683e-20)
(0.539764 -0.299066 1.01786e-19)
(0.582051 -0.271605 1.0266e-19)
(0.619912 -0.247425 2.32698e-20)
(0.653943 -0.226034 -7.90015e-20)
(0.684638 -0.207028 1.85803e-19)
(0.712415 -0.190069 -8.45642e-20)
(0.737628 -0.174875 -1.00274e-19)
(0.76057 -0.16121 -1.63932e-19)
(0.781479 -0.148881 -3.70924e-20)
(0.800575 -0.137727 -4.63419e-20)
(0.818149 -0.127575 2.6185e-21)
(0.834495 -0.118213 3.57156e-20)
(0.849412 -0.109568 -1.67702e-19)
(0.861807 -0.102075 4.57422e-20)
(0.0994064 -0.217182 -1.0827e-19)
(0.226981 -0.408544 -7.34006e-20)
(0.329706 -0.454836 -6.74065e-20)
(0.404946 -0.43782 -8.54191e-20)
(0.464787 -0.401117 1.21246e-19)
(0.515822 -0.363161 -4.27414e-20)
(0.56078 -0.328967 -2.22977e-19)
(0.60089 -0.298887 2.97796e-19)
(0.636861 -0.27239 9.17819e-20)
(0.669242 -0.248941 1.90472e-19)
(0.698493 -0.228097 -2.45148e-19)
(0.725 -0.209491 2.21911e-19)
(0.749093 -0.192814 -2.91769e-20)
(0.771043 -0.177808 2.39539e-20)
(0.791069 -0.164265 2.75706e-19)
(0.809372 -0.152009 7.87126e-20)
(0.826247 -0.140843 1.18925e-19)
(0.842013 -0.130525 -5.45739e-21)
(0.856408 -0.120993 8.38249e-20)
(0.868081 -0.112816 -1.20226e-19)
(0.115421 -0.23248 1.67884e-19)
(0.256781 -0.439855 -8.91375e-20)
(0.362602 -0.491467 1.84819e-19)
(0.436425 -0.474163 -1.36017e-19)
(0.493366 -0.434983 1.15989e-19)
(0.541384 -0.394118 6.58092e-20)
(0.583634 -0.3572 3.89382e-19)
(0.621387 -0.324695 -2.59247e-19)
(0.655308 -0.296047 -1.93618e-19)
(0.685901 -0.270683 2.07165e-20)
(0.713585 -0.248128 -2.55643e-20)
(0.738714 -0.227984 -1.00406e-19)
(0.761591 -0.20992 1.58059e-19)
(0.782467 -0.193658 5.6645e-20)
(0.801533 -0.178976 -9.17582e-20)
(0.818976 -0.165683 -1.73423e-19)
(0.835092 -0.153562 -1.41931e-20)
(0.850223 -0.142334 9.90734e-20)
(0.864058 -0.131954 -8.86334e-20)
(0.874974 -0.123142 8.64375e-20)
(0.132165 -0.245713 -1.40521e-19)
(0.288306 -0.467905 -4.57882e-20)
(0.397638 -0.524934 -1.26951e-19)
(0.470095 -0.50776 1.44332e-19)
(0.524007 -0.466496 2.25493e-19)
(0.568823 -0.423033 1.65571e-19)
(0.608179 -0.383638 -7.49359e-20)
(0.64341 -0.348915 -1.23594e-19)
(0.675138 -0.318295 2.36759e-19)
(0.703817 -0.291172 -1.03829e-19)
(0.729824 -0.267039 3.18351e-21)
(0.753478 -0.245475 1.05367e-19)
(0.775054 -0.226128 2.19609e-19)
(0.794776 -0.208701 -1.71352e-19)
(0.812816 -0.192959 -1.12095e-19)
(0.829337 -0.178702 1.8345e-19)
(0.844637 -0.165688 -1.50443e-19)
(0.859084 -0.153604 3.39073e-21)
(0.872326 -0.142413 1.64122e-19)
(0.882461 -0.133017 4.67274e-20)
(0.14941 -0.25678 8.94643e-20)
(0.321219 -0.492496 -8.8617e-20)
(0.434502 -0.555031 -2.7931e-20)
(0.505699 -0.53843 -1.21222e-20)
(0.556498 -0.495505 -3.43228e-19)
(0.597954 -0.449774 -2.33135e-19)
(0.634258 -0.408167 1.06458e-19)
(0.666822 -0.371446 9.56476e-20)
(0.69623 -0.339044 -1.5235e-19)
(0.722883 -0.310326 -1.87594e-19)
(0.747115 -0.284759 1.209e-19)
(0.769207 -0.261901 -3.46539e-19)
(0.789403 -0.241379 -1.2164e-19)
(0.807905 -0.222884 2.25752e-19)
(0.824857 -0.206168 -2.42779e-20)
(0.840402 -0.191023 -4.26784e-20)
(0.854834 -0.177186 1.13397e-20)
(0.868552 -0.164302 -1.15592e-19)
(0.881174 -0.152341 -8.56555e-20)
(0.890518 -0.142406 -8.28636e-20)
(0.16692 -0.265604 -6.95483e-20)
(0.355162 -0.513465 2.39578e-19)
(0.472864 -0.581581 3.07401e-19)
(0.542961 -0.566015 -7.88555e-20)
(0.59061 -0.521875 1.98023e-19)
(0.628588 -0.474228 3.60753e-20)
(0.661703 -0.430686 -1.62297e-19)
(0.691476 -0.392201 2.73435e-20)
(0.718454 -0.358216 -1.86521e-19)
(0.742986 -0.328075 1.13149e-19)
(0.765357 -0.301225 -7.49494e-20)
(0.785811 -0.277203 3.07766e-19)
(0.80456 -0.255623 8.08248e-20)
(0.82178 -0.236161 8.22222e-20)
(0.837592 -0.21856 -1.33246e-19)
(0.852111 -0.202607 6.64964e-21)
(0.86563 -0.188022 1.02633e-19)
(0.878582 -0.1744 8.31361e-20)
(0.890566 -0.161712 7.13853e-20)
(0.899118 -0.15128 3.39845e-20)
(0.184448 -0.27213 -1.37974e-19)
(0.389759 -0.530676 -4.04035e-20)
(0.512369 -0.604431 -8.07858e-20)
(0.581588 -0.590377 2.34166e-20)
(0.626105 -0.54549 -2.33996e-20)
(0.660522 -0.496297 1.06151e-19)
(0.690341 -0.451111 -1.21843e-19)
(0.717219 -0.411103 1.73981e-19)
(0.741677 -0.375743 -1.93342e-19)
(0.764006 -0.344359 9.11724e-21)
(0.784444 -0.316381 2.37927e-19)
(0.803195 -0.291333 -6.5605e-20)
(0.82044 -0.268814 -1.41758e-19)
(0.836328 -0.248491 -9.70793e-20)
(0.850951 -0.2301 1.61535e-19)
(0.864402 -0.213426 8.68521e-20)
(0.876968 -0.198173 -1.22561e-20)
(0.889122 -0.183886 -8.59992e-20)
(0.900464 -0.170513 -8.66488e-20)
(0.908239 -0.159615 1.04146e-19)
(0.201744 -0.276333 1.65489e-19)
(0.424621 -0.544029 -1.03155e-19)
(0.55265 -0.623457 6.03619e-20)
(0.621273 -0.611401 -1.93051e-20)
(0.662732 -0.566256 -1.39692e-19)
(0.693546 -0.515901 -9.92573e-20)
(0.71999 -0.469374 1.51732e-19)
(0.743895 -0.428092 -1.13835e-19)
(0.765758 -0.39157 3.05952e-19)
(0.78582 -0.359128 -1.52975e-20)
(0.804267 -0.330183 -1.55378e-19)
(0.821264 -0.304248 2.13179e-20)
(0.836957 -0.280915 1.37575e-19)
(0.85147 -0.259838 5.56782e-20)
(0.864869 -0.240751 9.50459e-22)
(0.877214 -0.223438 -1.0505e-19)
(0.888787 -0.207597 -2.90772e-20)
(0.900116 -0.192719 -1.21608e-19)
(0.910827 -0.178718 -3.28928e-20)
(0.917867 -0.167391 3.96129e-20)
(0.218555 -0.278214 2.06705e-20)
(0.459343 -0.553458 1.10433e-19)
(0.593322 -0.638563 -1.01185e-19)
(0.661697 -0.628998 -1.19331e-20)
(0.700232 -0.584096 3.04191e-20)
(0.727446 -0.532978 1.94651e-20)
(0.750466 -0.485421 3.24208e-20)
(0.771339 -0.443121 -6.46225e-20)
(0.790556 -0.405654 1.39727e-19)
(0.808302 -0.372343 3.33117e-20)
(0.824715 -0.342595 1.68903e-19)
(0.839916 -0.315918 -1.68098e-19)
(0.854021 -0.291896 -9.14916e-20)
(0.867124 -0.27018 6.57403e-20)
(0.879269 -0.250498 7.67075e-21)
(0.890475 -0.232645 7.41675e-21)
(0.90101 -0.216318 2.23917e-20)
(0.911486 -0.200961 3.44806e-20)
(0.921607 -0.186408 -9.65483e-20)
(0.927998 -0.174651 -1.99578e-19)
(0.23463 -0.277801 -3.05025e-20)
(0.493515 -0.558933 -4.96875e-20)
(0.633988 -0.649683 -2.75989e-20)
(0.70253 -0.643102 -1.9396e-20)
(0.738339 -0.598958 5.4795e-20)
(0.761999 -0.547486 1.66109e-20)
(0.78158 -0.499216 -3.04274e-21)
(0.799389 -0.456157 5.10954e-20)
(0.815924 -0.417967 -3.93005e-21)
(0.831324 -0.383977 -1.11556e-19)
(0.845674 -0.353592 -1.3334e-19)
(0.859053 -0.326316 5.06191e-20)
(0.871542 -0.301732 7.77914e-20)
(0.883214 -0.279486 -1.50716e-19)
(0.894089 -0.259302 -1.37918e-19)
(0.904145 -0.240978 -7.64133e-20)
(0.913607 -0.224218 7.14174e-20)
(0.923178 -0.208435 -1.28021e-20)
(0.932767 -0.193392 1.18871e-20)
(0.938689 -0.181286 1.58017e-19)
(0.249718 -0.275151 1.50162e-20)
(0.52672 -0.560462 1.7224e-20)
(0.67424 -0.656784 3.46277e-20)
(0.743429 -0.653672 3.71894e-20)
(0.776778 -0.610808 3.68794e-20)
(0.796983 -0.559401 -8.50425e-20)
(0.81314 -0.51074 -3.55141e-20)
(0.827877 -0.467184 9.3836e-20)
(0.841719 -0.428492 -9.26089e-20)
(0.854757 -0.394013 5.48873e-20)
(0.867029 -0.363157 7.3969e-20)
(0.878572 -0.335428 -2.66172e-20)
(0.889429 -0.310411 -2.64909e-20)
(0.899649 -0.287751 6.85944e-20)
(0.909238 -0.267175 7.10035e-20)
(0.918127 -0.248492 4.21658e-20)
(0.92645 -0.231448 4.36913e-20)
(0.934961 -0.21547 -6.34535e-21)
(0.944003 -0.200252 -3.52402e-20)
(0.949936 -0.188023 -5.09901e-20)
(0.26358 -0.27035 1.68264e-21)
(0.558537 -0.55809 -2.52656e-20)
(0.713661 -0.65986 1.2976e-20)
(0.784046 -0.660696 2.80725e-21)
(0.815272 -0.619636 -3.49301e-20)
(0.832169 -0.568716 5.82461e-20)
(0.844955 -0.519991 7.09641e-20)
(0.856638 -0.476199 -1.96425e-19)
(0.867792 -0.437225 -1.14205e-20)
(0.878473 -0.402448 4.50652e-20)
(0.888668 -0.371286 9.27412e-20)
(0.898373 -0.343248 2.8089e-20)
(0.907593 -0.317922 1.27736e-19)
(0.916353 -0.294958 -4.19434e-20)
(0.92465 -0.274077 -1.42748e-20)
(0.9324 -0.255084 1.38103e-20)
(0.939629 -0.237725 -1.14682e-19)
(0.947009 -0.221412 3.53148e-20)
(0.95545 -0.205828 -2.74398e-20)
(0.962481 -0.193507 7.16396e-20)
(0.275995 -0.263514 5.96285e-20)
(0.588543 -0.551894 7.59708e-21)
(0.751827 -0.658944 1.09417e-20)
(0.824026 -0.664188 4.18548e-21)
(0.853538 -0.625451 -1.74731e-20)
(0.867332 -0.575445 -2.01313e-20)
(0.876836 -0.526982 -2.29213e-20)
(0.885506 -0.483214 5.15725e-20)
(0.894001 -0.444176 1.12043e-21)
(0.902344 -0.409288 -1.43174e-20)
(0.910478 -0.377982 -5.98725e-20)
(0.918355 -0.349776 1.69031e-20)
(0.925947 -0.324265 -3.49073e-20)
(0.933247 -0.301107 -1.53049e-21)
(0.940249 -0.280024 9.20186e-20)
(0.946878 -0.260819 -8.65383e-21)
(0.953072 -0.243278 6.71146e-20)
(0.959179 -0.227084 1.2756e-20)
(0.96601 -0.212618 1.62402e-20)
(0.973784 -0.201452 -2.64064e-20)
(0.28678 -0.254792 -1.86069e-20)
(0.616309 -0.541983 2.35135e-20)
(0.788317 -0.654107 1.14749e-19)
(0.863009 -0.664186 -2.2537e-20)
(0.891292 -0.628283 -1.40627e-20)
(0.902246 -0.57962 1.48792e-20)
(0.908594 -0.531745 4.75137e-21)
(0.914322 -0.488256 1.3318e-20)
(0.920204 -0.449367 6.47703e-20)
(0.926245 -0.414552 -7.93715e-20)
(0.932347 -0.38326 -5.49043e-20)
(0.938422 -0.355024 -2.1913e-20)
(0.944404 -0.32945 -6.13239e-20)
(0.950257 -0.306204 3.66589e-20)
(0.955959 -0.285015 -1.17678e-20)
(0.961461 -0.265677 -7.55613e-20)
(0.966662 -0.247992 9.48747e-21)
(0.971601 -0.231834 3.22264e-20)
(0.976742 -0.217613 -2.06561e-20)
(0.983412 -0.204835 1.13922e-19)
(0.295745 -0.244293 -2.0775e-19)
(0.641415 -0.528484 -1.09351e-19)
(0.822715 -0.645482 -2.05102e-19)
(0.900638 -0.660755 -1.22917e-20)
(0.92825 -0.62818 -3.6063e-20)
(0.936685 -0.581288 6.64084e-21)
(0.940045 -0.534324 -6.16181e-21)
(0.942926 -0.491366 -3.20742e-20)
(0.946263 -0.452833 4.67176e-20)
(0.950056 -0.418268 -2.79434e-20)
(0.954169 -0.387146 3.74571e-20)
(0.958478 -0.359013 2.48617e-20)
(0.962883 -0.33349 4.00239e-20)
(0.967313 -0.310256 3.52133e-21)
(0.97173 -0.289043 -3.06325e-20)
(0.976104 -0.269625 9.0361e-21)
(0.980356 -0.251799 3.53969e-21)
(0.984343 -0.235555 2.57386e-20)
(0.988152 -0.221288 -5.31163e-20)
(0.993346 -0.207572 -7.48616e-20)
(0.302665 -0.23214 5.81087e-21)
(0.663359 -0.511547 2.22263e-19)
(0.854677 -0.633268 1.90423e-19)
(0.93656 -0.65397 7.77284e-20)
(0.964126 -0.625212 3.98099e-20)
(0.970427 -0.580517 -5.91583e-21)
(0.971009 -0.534782 1.04046e-21)
(0.971166 -0.492598 2.83237e-22)
(0.972044 -0.454622 -2.79363e-20)
(0.973658 -0.420477 -7.66479e-21)
(0.975841 -0.389672 -1.15926e-20)
(0.978432 -0.361771 2.12196e-21)
(0.981301 -0.33641 -3.20364e-20)
(0.98435 -0.313281 -1.3719e-20)
(0.987519 -0.292123 2.09274e-20)
(0.990791 -0.272697 -2.97269e-20)
(0.994128 -0.254796 -1.00284e-21)
(0.997314 -0.238508 3.08428e-20)
(1.00015 -0.224256 4.63911e-20)
(1.00411 -0.210081 1.85146e-20)
(0.307442 -0.218554 -6.30757e-20)
(0.681838 -0.491615 -1.51768e-19)
(0.883736 -0.617671 -2.48655e-20)
(0.970455 -0.643861 1.46014e-19)
(0.998641 -0.619462 -6.73825e-20)
(1.00325 -0.577384 6.2392e-20)
(1.00131 -0.533191 1.9799e-20)
(0.998895 -0.49202 -1.7992e-20)
(0.99742 -0.454792 2.21158e-20)
(0.996941 -0.42123 -6.18712e-21)
(0.997263 -0.390882 1.14293e-20)
(0.998197 -0.363336 -1.50908e-20)
(0.999584 -0.338243 1.55344e-21)
(1.0013 -0.315313 -4.23978e-20)
(1.00327 -0.294294 2.81496e-20)
(1.00549 -0.274947 -9.96785e-21)
(1.00793 -0.257067 1.10839e-20)
(1.01036 -0.240809 7.71248e-21)
(1.01237 -0.226609 -6.02883e-20)
(1.01526 -0.212188 -1.35631e-20)
(0.309999 -0.203848 1.85107e-19)
(0.696666 -0.469024 2.21978e-19)
(0.909182 -0.598647 -1.01512e-19)
(1.00198 -0.630617 -1.11282e-19)
(1.03151 -0.611044 -5.49717e-20)
(1.03495 -0.571981 -5.55034e-20)
(1.03078 -0.529638 -5.2305e-20)
(1.02597 -0.489711 6.03643e-21)
(1.02227 -0.453413 -2.83647e-20)
(1.0198 -0.420587 -9.01491e-22)
(1.01834 -0.39083 -7.32309e-21)
(1.01769 -0.363754 4.7792e-25)
(1.01766 -0.339033 4.68188e-21)
(1.0181 -0.316391 -3.5706e-21)
(1.01893 -0.295595 -9.50102e-21)
(1.02013 -0.27641 -1.52013e-20)
(1.0217 -0.258636 1.07629e-20)
(1.02335 -0.242456 -4.19301e-21)
(1.02457 -0.228305 9.90882e-21)
(1.02644 -0.213789 2.11541e-21)
(0.310257 -0.188283 -1.74648e-19)
(0.707599 -0.443937 2.01027e-19)
(0.930689 -0.576508 9.0159e-20)
(1.03064 -0.614482 -6.8733e-20)
(1.06246 -0.600021 9.25172e-20)
(1.0653 -0.564406 -6.12064e-20)
(1.05926 -0.524221 8.4889e-20)
(1.05227 -0.48576 3.74958e-20)
(1.04648 -0.450564 -3.00217e-20)
(1.04213 -0.418618 3.57772e-20)
(1.03899 -0.389574 -1.80529e-20)
(1.03683 -0.363078 1.1065e-21)
(1.03545 -0.338825 1.33914e-20)
(1.03469 -0.316558 3.81711e-21)
(1.03443 -0.296062 8.43282e-22)
(1.03466 -0.277114 1.36696e-20)
(1.03536 -0.259514 -1.2147e-20)
(1.03624 -0.243447 5.32108e-22)
(1.03668 -0.229352 -1.65683e-20)
(1.03757 -0.21487 1.26569e-20)
(0.308164 -0.172099 1.17831e-19)
(0.714328 -0.416674 -1.87584e-19)
(0.948128 -0.551593 9.51218e-22)
(1.05594 -0.595553 -3.13159e-20)
(1.09116 -0.58656 -1.16682e-19)
(1.09408 -0.554769 1.43192e-19)
(1.08658 -0.517049 -2.46397e-20)
(1.07766 -0.480268 -6.96133e-20)
(1.06995 -0.446335 -1.20376e-20)
(1.06384 -0.415399 1.40312e-20)
(1.05913 -0.387183 4.79873e-20)
(1.05555 -0.361367 1.30527e-20)
(1.0529 -0.33767 -1.2121e-21)
(1.05099 -0.315858 -6.68513e-21)
(1.04971 -0.295732 1.26973e-21)
(1.04901 -0.277087 3.33737e-21)
(1.04887 -0.259722 2.56847e-21)
(1.04899 -0.243809 3.52997e-21)
(1.04867 -0.229796 1.96143e-21)
(1.04866 -0.215456 -2.71785e-22)
(0.303712 -0.155542 1.30294e-20)
(0.716591 -0.387608 2.13197e-20)
(0.961157 -0.52415 -1.57949e-19)
(1.07764 -0.574046 6.46563e-20)
(1.11726 -0.570821 1.36697e-19)
(1.12108 -0.543206 -1.46258e-19)
(1.1126 -0.508238 2.08635e-20)
(1.10202 -0.473343 7.10574e-20)
(1.09258 -0.440822 -1.37862e-20)
(1.08485 -0.411016 1.72723e-20)
(1.07867 -0.383729 -6.66569e-20)
(1.07378 -0.358684 -2.13154e-20)
(1.06993 -0.335625 -3.39122e-21)
(1.06695 -0.314339 -6.20152e-21)
(1.06471 -0.294649 -6.02346e-21)
(1.06313 -0.276366 -8.72877e-21)
(1.06219 -0.259293 5.24994e-21)
(1.06156 -0.243576 -2.08503e-21)
(1.06053 -0.22968 4.70852e-22)
(1.05969 -0.21557 1.44143e-21)
(0.296946 -0.138859 9.32277e-20)
(0.714204 -0.357131 -1.13585e-19)
(0.969401 -0.494473 1.46574e-19)
(1.09543 -0.550184 -6.266e-20)
(1.14051 -0.552968 4.12613e-20)
(1.14608 -0.529859 7.06951e-20)
(1.13715 -0.497918 -2.45677e-20)
(1.12524 -0.4651 -7.58573e-20)
(1.11429 -0.434129 3.34285e-20)
(1.10509 -0.405558 3.20887e-20)
(1.09757 -0.379292 4.4454e-20)
(1.09145 -0.355097 1.05648e-20)
(1.08651 -0.332748 6.00626e-20)
(1.08253 -0.312053 1.11202e-20)
(1.07939 -0.292857 3.20397e-21)
(1.07698 -0.27499 1.12516e-20)
(1.07526 -0.258261 1.52948e-20)
(1.07392 -0.242782 -4.2403e-21)
(1.07223 -0.229032 -6.86735e-21)
(1.07063 -0.21522 3.45805e-21)
(0.287957 -0.122298 -1.23428e-19)
(0.707059 -0.325654 -1.9214e-19)
(0.972543 -0.462896 -8.43805e-20)
(1.10894 -0.524198 -2.30485e-21)
(1.1606 -0.533169 1.1992e-20)
(1.16886 -0.51487 -1.70175e-19)
(1.16012 -0.486214 8.82524e-20)
(1.14724 -0.455662 -4.18389e-20)
(1.13498 -0.426364 -5.95403e-20)
(1.12448 -0.39912 4.81233e-21)
(1.11574 -0.373955 -4.73998e-20)
(1.10852 -0.350682 -4.594e-20)
(1.10257 -0.329104 -5.5788e-20)
(1.09767 -0.309057 9.46248e-21)
(1.09369 -0.290405 1.99989e-20)
(1.09052 -0.273002 -1.8899e-20)
(1.08807 -0.256661 7.33077e-21)
(1.08604 -0.241458 2.27004e-20)
(1.08375 -0.227882 -1.145e-20)
(1.08145 -0.214416 1.1938e-20)
(0.276877 -0.106101 6.28511e-20)
(0.695121 -0.293607 5.55287e-20)
(0.970323 -0.429782 -2.57844e-19)
(1.11784 -0.496334 8.92509e-20)
(1.17724 -0.511596 -1.8329e-19)
(1.18919 -0.498379 1.26369e-19)
(1.18134 -0.473262 -1.21885e-20)
(1.16792 -0.445144 7.86135e-20)
(1.1546 -0.417635 1.08688e-19)
(1.14297 -0.391808 -5.97381e-21)
(1.13315 -0.367805 6.28977e-20)
(1.12495 -0.345512 6.27773e-20)
(1.11807 -0.324759 -1.99074e-20)
(1.11234 -0.305408 -3.48216e-20)
(1.10759 -0.287344 -2.19956e-20)
(1.1037 -0.270443 2.84251e-20)
(1.10057 -0.25453 -1.96951e-20)
(1.0979 -0.239638 -5.25018e-21)
(1.09505 -0.226256 4.35755e-21)
(1.09212 -0.213175 -3.48789e-21)
(0.263881 -0.090498 1.49134e-19)
(0.678428 -0.261432 1.61444e-19)
(0.96253 -0.395516 -5.37153e-20)
(1.12177 -0.466854 2.72145e-19)
(1.1901 -0.488424 5.49624e-20)
(1.20685 -0.480523 -2.00279e-19)
(1.20066 -0.459188 1.42863e-19)
(1.18719 -0.43367 -1.84438e-20)
(1.1731 -0.408056 -1.16405e-20)
(1.16052 -0.383712 -4.14819e-20)
(1.14976 -0.360937 1.74935e-20)
(1.14067 -0.33967 1.6357e-20)
(1.13298 -0.319777 -4.64558e-20)
(1.1265 -0.301164 -3.1036e-21)
(1.12106 -0.283725 -1.37738e-20)
(1.11651 -0.267359 -2.19734e-20)
(1.11274 -0.251907 2.18104e-20)
(1.10949 -0.237358 -1.97122e-20)
(1.10614 -0.224187 -2.07485e-20)
(1.10263 -0.211511 1.27404e-20)
(0.249184 -0.0756996 -3.10687e-19)
(0.657101 -0.229579 9.49298e-20)
(0.949013 -0.360499 1.75916e-21)
(1.12044 -0.436033 -1.66517e-19)
(1.19885 -0.463834 1.95112e-20)
(1.22158 -0.461437 -4.34979e-20)
(1.21791 -0.444111 -4.32001e-20)
(1.20493 -0.421362 -6.21314e-20)
(1.19042 -0.397741 -3.1264e-21)
(1.1771 -0.374943 -2.85575e-20)
(1.16555 -0.353433 -5.66685e-20)
(1.15568 -0.333224 -2.47986e-20)
(1.14728 -0.314236 6.00357e-20)
(1.14013 -0.296392 3.42877e-20)
(1.13406 -0.279602 1.25311e-20)
(1.12891 -0.263795 3.32078e-20)
(1.12457 -0.248834 -4.79716e-20)
(1.12078 -0.234656 1.51582e-20)
(1.11698 -0.221701 1.13448e-20)
(1.11296 -0.209452 -1.29515e-21)
(0.233034 -0.0618927 2.22289e-19)
(0.631353 -0.19849 -1.91986e-19)
(0.929684 -0.325145 -7.85434e-20)
(1.11353 -0.40416 1.86503e-19)
(1.20315 -0.438011 1.56679e-20)
(1.2331 -0.441252 2.18527e-21)
(1.23294 -0.428146 6.67258e-20)
(1.22107 -0.408331 -9.61665e-20)
(1.20649 -0.3868 1.59894e-20)
(1.19266 -0.3656 5.72639e-20)
(1.18048 -0.345384 -2.12592e-20)
(1.16996 -0.326262 -5.69208e-20)
(1.16094 -0.308202 3.27758e-22)
(1.1532 -0.291146 -2.35281e-20)
(1.14657 -0.275027 -2.32921e-20)
(1.1409 -0.259803 -5.5899e-20)
(1.13603 -0.245355 3.40472e-20)
(1.13176 -0.231575 -1.99792e-21)
(1.12758 -0.218843 1.48939e-21)
(1.12309 -0.20701 -1.44732e-20)
(0.215711 -0.0492356 -2.00223e-19)
(0.601495 -0.168598 1.83025e-19)
(0.904534 -0.289882 -2.81997e-20)
(1.10077 -0.371535 -1.69204e-20)
(1.20264 -0.411144 2.15328e-20)
(1.24112 -0.420092 -3.02778e-20)
(1.24553 -0.411398 -1.80849e-21)
(1.23548 -0.39468 1.00094e-19)
(1.22127 -0.375337 -4.81558e-21)
(1.20718 -0.355782 6.68096e-21)
(1.19452 -0.336883 3.07236e-21)
(1.18349 -0.318864 7.56277e-21)
(1.17395 -0.301744 -2.33265e-20)
(1.1657 -0.28549 5.46201e-20)
(1.1586 -0.27006 6.54916e-21)
(1.15246 -0.255427 3.06562e-20)
(1.14712 -0.241503 -1.12873e-20)
(1.14239 -0.228159 4.81413e-21)
(1.13789 -0.215634 -1.72025e-20)
(1.13314 -0.204244 1.61227e-20)
(0.197514 -0.0378544 8.61686e-20)
(0.567932 -0.140304 -7.52184e-20)
(0.873648 -0.255138 -2.68608e-20)
(1.08194 -0.338471 -2.76326e-20)
(1.19696 -0.383423 3.71811e-20)
(1.24529 -0.398075 9.33152e-21)
(1.25545 -0.393958 5.08597e-20)
(1.24806 -0.380503 -1.07891e-19)
(1.2347 -0.363447 6.00717e-20)
(1.22063 -0.345582 4.10743e-20)
(1.20767 -0.328018 -2.68041e-20)
(1.19625 -0.311108 5.4567e-20)
(1.18629 -0.294932 7.32345e-22)
(1.17763 -0.279488 1.37817e-20)
(1.17011 -0.264752 1.87796e-20)
(1.16358 -0.250714 -2.34588e-20)
(1.15784 -0.237316 1.78758e-20)
(1.15271 -0.224432 6.4163e-21)
(1.14789 -0.212236 4.20537e-22)
(1.14303 -0.201185 -8.4613e-21)
(0.178757 -0.0278389 -4.56207e-20)
(0.531158 -0.113973 1.32213e-20)
(0.837221 -0.221341 8.29847e-20)
(1.05686 -0.305294 -1.72042e-20)
(1.18574 -0.355044 2.02684e-20)
(1.24524 -0.37531 -1.23074e-20)
(1.26243 -0.375905 1.48658e-20)
(1.25862 -0.365874 -1.07344e-20)
(1.2467 -0.351215 -6.35882e-20)
(1.23298 -0.335087 3.58267e-21)
(1.21993 -0.318872 2.15477e-21)
(1.20825 -0.303071 -3.82029e-20)
(1.19797 -0.287835 1.38612e-20)
(1.18898 -0.273198 -2.87035e-21)
(1.18112 -0.259157 -2.40263e-20)
(1.17425 -0.245715 2.06327e-20)
(1.16817 -0.232842 -2.87361e-20)
(1.16269 -0.220432 -9.686e-21)
(1.15757 -0.208613 6.8735e-21)
(1.1525 -0.197846 -2.73065e-21)
(0.159758 -0.0192412 5.12339e-20)
(0.491754 -0.0899234 1.68185e-20)
(0.795569 -0.188915 -2.34321e-20)
(1.02543 -0.272342 -9.42304e-21)
(1.1686 -0.32621 -3.82695e-20)
(1.24054 -0.351901 -3.61385e-21)
(1.26613 -0.357299 -8.58251e-21)
(1.26697 -0.350855 1.49126e-21)
(1.25718 -0.33871 -5.97417e-21)
(1.24422 -0.324376 -1.2043e-20)
(1.23129 -0.309523 -5.78274e-21)
(1.21949 -0.294825 1.40156e-20)
(1.209 -0.280519 2.08348e-21)
(1.19976 -0.26668 -1.15756e-20)
(1.19163 -0.253327 4.26393e-21)
(1.18447 -0.240478 3.61365e-21)
(1.17811 -0.228123 1.40207e-20)
(1.17235 -0.21618 -4.91604e-21)
(1.16695 -0.204727 -4.73855e-21)
(1.16161 -0.19424 -1.43227e-21)
(0.140829 -0.0120742 -1.08577e-20)
(0.450369 -0.0684105 2.62388e-20)
(0.74914 -0.158265 8.88129e-21)
(0.987633 -0.239961 -4.02295e-21)
(1.14521 -0.29713 -9.77792e-21)
(1.23075 -0.327946 1.22083e-20)
(1.26616 -0.338188 9.99709e-21)
(1.27285 -0.335485 -1.67051e-20)
(1.266 -0.325985 4.37601e-21)
(1.25427 -0.313513 -1.78226e-21)
(1.24174 -0.300042 5.4475e-22)
(1.22997 -0.28644 -5.45988e-21)
(1.21938 -0.273048 -6.46493e-21)
(1.20996 -0.259991 1.48915e-21)
(1.20163 -0.247314 5.30529e-22)
(1.19426 -0.235046 -7.73474e-21)
(1.18767 -0.223198 6.52952e-22)
(1.18166 -0.211705 4.73585e-21)
(1.17603 -0.2006 4.54404e-21)
(1.17048 -0.190392 -1.37261e-22)
(0.12227 -0.00631363 -1.0719e-21)
(0.407708 -0.0496225 2.24309e-20)
(0.698524 -0.129775 2.33937e-21)
(0.94359 -0.208512 4.08153e-21)
(1.11524 -0.268029 -1.72571e-20)
(1.21535 -0.303545 3.02281e-20)
(1.26205 -0.318601 -9.22076e-21)
(1.27592 -0.31978 -5.69537e-21)
(1.27296 -0.313072 -2.52713e-21)
(1.26306 -0.302549 -6.81609e-21)
(1.25126 -0.290487 1.103e-20)
(1.23971 -0.277977 -1.26934e-20)
(1.22912 -0.265481 -8.18248e-21)
(1.21962 -0.253185 3.81572e-22)
(1.21116 -0.241165 2.56085e-21)
(1.20362 -0.229463 -1.34891e-21)
(1.19685 -0.218107 -4.79817e-21)
(1.19066 -0.20705 5.05807e-21)
(1.18485 -0.19628 7.00386e-21)
(1.17915 -0.18633 5.17552e-21)
(0.104355 -0.00189987 7.56248e-20)
(0.364504 -0.0336699 1.91032e-20)
(0.644453 -0.10379 -4.2816e-20)
(0.893562 -0.178359 2.01704e-20)
(1.07845 -0.239148 -6.21874e-20)
(1.19384 -0.278802 -1.97943e-21)
(1.25324 -0.298557 -2.21744e-20)
(1.27576 -0.303735 2.70887e-20)
(1.27782 -0.299979 3.50521e-21)
(1.27046 -0.291514 -2.26951e-20)
(1.2598 -0.280908 -2.18166e-20)
(1.24869 -0.269491 7.42267e-21)
(1.23824 -0.257873 6.88885e-21)
(1.22874 -0.246315 -1.09982e-20)
(1.22021 -0.234928 2.9566e-21)
(1.21256 -0.223771 3.86012e-21)
(1.20566 -0.212888 2.27029e-20)
(1.19934 -0.202256 -4.35533e-21)
(1.1934 -0.191816 -1.25885e-20)
(1.18761 -0.182086 8.17547e-21)
(0.0873277 0.0012572 -5.49238e-20)
(0.321494 -0.0205814 -5.93571e-21)
(0.587787 -0.0806033 1.12107e-19)
(0.837991 -0.149873 -5.90432e-20)
(1.03472 -0.210755 6.77459e-20)
(1.16568 -0.253835 -1.62266e-20)
(1.23911 -0.27807 -5.15418e-21)
(1.27183 -0.287323 -6.69968e-21)
(1.28021 -0.286685 -5.66077e-20)
(1.27628 -0.280415 -1.95185e-20)
(1.26728 -0.271334 2.22105e-20)
(1.25691 -0.261027 -4.48092e-20)
(1.24675 -0.250274 -2.55945e-20)
(1.23735 -0.239429 1.24487e-20)
(1.22882 -0.228649 -2.38575e-20)
(1.22112 -0.218014 7.72328e-21)
(1.21414 -0.207582 -3.85436e-20)
(1.20772 -0.197357 1.65577e-20)
(1.20169 -0.187249 -7.86915e-21)
(1.19585 -0.177691 1.64426e-20)
(0.0713914 0.00327302 4.22014e-20)
(0.27939 -0.0103035 9.73177e-22)
(0.529501 -0.0604443 -6.55948e-20)
(0.777524 -0.123422 -3.38695e-20)
(0.984051 -0.183143 5.86112e-20)
(1.1304 -0.228786 -2.5984e-20)
(1.21897 -0.257153 1.87849e-20)
(1.26348 -0.270497 -5.05124e-21)
(1.27966 -0.273143 -5.17748e-22)
(1.28023 -0.269231 1.43199e-20)
(1.27357 -0.261776 -8.33895e-21)
(1.2643 -0.252615 7.19935e-20)
(1.25464 -0.242723 1.16696e-20)