/*--------------------------------*- C++ -*----------------------------------*\
  =========                 |
  \\      /  F ield         | OpenFOAM: The Open Source CFD Toolbox
   \\    /   O peration     | Website:  https://openfoam.org
    \\  /    A nd           | Version:  7
     \\/     M anipulation  |
\*---------------------------------------------------------------------------*/
FoamFile
{
    version     2.0;
    format      ascii;
    class       volScalarField;
    location    "20.001";
    object      p;
}
// * * * * * * * * * * * * * * * * * * * * * * * * * * * * * * * * * * * * * //

dimensions      [0 2 -2 0 0 0 0];

internalField   nonuniform List<scalar> 
45600
(
-0.272372
-0.274663
-0.275677
-0.276512
-0.277261
-0.277962
-0.278647
-0.27932
-0.279971
-0.280583
-0.281138
-0.281617
-0.282003
-0.282281
-0.282437
-0.282467
-0.282378
-0.282181
-0.281907
-0.281668
-0.272628
-0.27488
-0.275878
-0.2767
-0.27744
-0.278132
-0.278811
-0.279478
-0.280125
-0.280733
-0.281286
-0.281763
-0.282147
-0.282421
-0.282571
-0.28259
-0.282483
-0.28226
-0.281937
-0.281655
-0.273133
-0.275309
-0.276276
-0.277072
-0.277791
-0.278466
-0.279131
-0.279787
-0.280424
-0.281026
-0.281573
-0.282046
-0.282425
-0.282691
-0.282829
-0.282826
-0.282686
-0.282412
-0.281994
-0.281614
-0.273872
-0.275939
-0.276858
-0.277617
-0.278303
-0.278952
-0.279594
-0.280233
-0.280855
-0.281445
-0.281982
-0.282447
-0.282818
-0.283074
-0.283195
-0.283161
-0.282971
-0.282627
-0.282079
-0.281512
-0.274827
-0.276754
-0.27761
-0.278318
-0.27896
-0.279571
-0.280182
-0.280794
-0.281394
-0.281965
-0.282488
-0.282941
-0.2833
-0.283542
-0.283641
-0.283571
-0.283318
-0.282889
-0.282198
-0.281291
-0.275973
-0.277736
-0.278515
-0.279157
-0.279741
-0.280303
-0.280871
-0.281445
-0.282014
-0.282559
-0.28306
-0.283494
-0.283837
-0.284061
-0.284136
-0.284025
-0.283699
-0.283174
-0.282378
-0.28084
-0.277284
-0.278863
-0.279552
-0.280114
-0.280625
-0.281123
-0.281633
-0.282157
-0.282683
-0.283192
-0.283662
-0.28407
-0.28439
-0.284591
-0.284638
-0.284487
-0.284084
-0.283432
-0.282663
-0.280039
-0.278732
-0.280114
-0.280699
-0.281166
-0.281588
-0.282004
-0.282441
-0.2829
-0.283368
-0.283827
-0.284255
-0.284627
-0.284914
-0.285085
-0.2851
-0.28491
-0.284438
-0.283587
-0.282971
-0.27931
-0.280291
-0.281468
-0.281937
-0.282292
-0.282607
-0.282923
-0.283267
-0.283642
-0.284036
-0.28443
-0.284801
-0.285123
-0.285368
-0.285499
-0.285474
-0.285238
-0.284717
-0.283731
-0.283016
-0.278584
-0.281936
-0.282908
-0.283249
-0.283475
-0.283661
-0.283854
-0.284085
-0.284356
-0.284657
-0.284968
-0.285265
-0.285523
-0.28571
-0.285788
-0.285711
-0.285415
-0.284863
-0.283654
-0.283118
-0.277523
-0.28365
-0.284419
-0.284619
-0.284697
-0.284733
-0.28478
-0.284873
-0.285018
-0.285204
-0.285412
-0.285619
-0.285794
-0.285907
-0.285916
-0.285773
-0.28539
-0.284837
-0.283259
-0.283197
-0.276164
-0.28542
-0.285992
-0.28604
-0.285949
-0.285811
-0.285687
-0.285617
-0.285611
-0.28566
-0.285746
-0.285841
-0.285917
-0.285937
-0.285859
-0.285633
-0.285121
-0.284608
-0.282505
-0.283112
-0.274617
-0.287243
-0.287626
-0.287506
-0.287227
-0.286888
-0.286566
-0.286308
-0.286127
-0.286017
-0.285959
-0.285926
-0.285884
-0.285793
-0.285605
-0.285282
-0.284588
-0.284137
-0.281407
-0.282672
-0.273061
-0.289124
-0.289324
-0.289023
-0.28853
-0.287966
-0.28742
-0.286947
-0.286567
-0.286277
-0.286057
-0.285876
-0.285699
-0.285479
-0.285157
-0.284714
-0.283793
-0.28336
-0.280045
-0.281645
-0.271638
-0.291078
-0.291099
-0.2906
-0.289867
-0.289054
-0.288257
-0.287545
-0.286945
-0.286455
-0.286054
-0.285709
-0.285378
-0.285008
-0.284523
-0.283921
-0.282749
-0.282182
-0.278496
-0.27985
-0.270283
-0.293131
-0.292971
-0.292248
-0.29126
-0.290168
-0.289096
-0.288123
-0.287282
-0.286575
-0.285977
-0.285451
-0.284945
-0.284394
-0.283708
-0.28288
-0.281446
-0.280516
-0.276734
-0.277262
-0.268715
-0.295319
-0.294963
-0.294
-0.292728
-0.291333
-0.289963
-0.28871
-0.287612
-0.286671
-0.285861
-0.285132
-0.284421
-0.283647
-0.282705
-0.281554
-0.279829
-0.27831
-0.274601
-0.273979
-0.266603
-0.297683
-0.297109
-0.295885
-0.294299
-0.292579
-0.290893
-0.289343
-0.287973
-0.286785
-0.285741
-0.284782
-0.283822
-0.282761
-0.281483
-0.279897
-0.277791
-0.275531
-0.271874
-0.270051
-0.263695
-0.300278
-0.299451
-0.297936
-0.296012
-0.293945
-0.291925
-0.290065
-0.28841
-0.286956
-0.285652
-0.284419
-0.283147
-0.281712
-0.279989
-0.277854
-0.275232
-0.272158
-0.268374
-0.26533
-0.259859
-0.303164
-0.302026
-0.300194
-0.297905
-0.295471
-0.293104
-0.290921
-0.288966
-0.287221
-0.285617
-0.284047
-0.282375
-0.280457
-0.278165
-0.275377
-0.272103
-0.268226
-0.26407
-0.259666
-0.255005
-0.306388
-0.304892
-0.302702
-0.300022
-0.297204
-0.294474
-0.291954
-0.289678
-0.287607
-0.285644
-0.28365
-0.281469
-0.278943
-0.275963
-0.272436
-0.268422
-0.263825
-0.259111
-0.253595
-0.248996
-0.310012
-0.30809
-0.305504
-0.302407
-0.299185
-0.296081
-0.293206
-0.290577
-0.288125
-0.28572
-0.283194
-0.280377
-0.277123
-0.273356
-0.269037
-0.264267
-0.259024
-0.253642
-0.247765
-0.242513
-0.314097
-0.311668
-0.308646
-0.305105
-0.301461
-0.297964
-0.294708
-0.291679
-0.28877
-0.285817
-0.28263
-0.279047
-0.274959
-0.270344
-0.265223
-0.259738
-0.253895
-0.248022
-0.241803
-0.236133
-0.318695
-0.315669
-0.312172
-0.30816
-0.304075
-0.300161
-0.296483
-0.292985
-0.289518
-0.285887
-0.281903
-0.277437
-0.27244
-0.266953
-0.261059
-0.254918
-0.248567
-0.242289
-0.235812
-0.230003
-0.323856
-0.320139
-0.316125
-0.311616
-0.307065
-0.3027
-0.298541
-0.29448
-0.290326
-0.285872
-0.280958
-0.275514
-0.269568
-0.263224
-0.256607
-0.249884
-0.243099
-0.236493
-0.229826
-0.223877
-0.32962
-0.325115
-0.320547
-0.315514
-0.310465
-0.3056
-0.300876
-0.296128
-0.291136
-0.285708
-0.279745
-0.273262
-0.266363
-0.2592
-0.251923
-0.244685
-0.237527
-0.230645
-0.223804
-0.217744
-0.336021
-0.330633
-0.325477
-0.319889
-0.314303
-0.308865
-0.303461
-0.297872
-0.291874
-0.285328
-0.278227
-0.270676
-0.262846
-0.254918
-0.247044
-0.239348
-0.231862
-0.224731
-0.217737
-0.211552
-0.343083
-0.336723
-0.330947
-0.324774
-0.318591
-0.312481
-0.306248
-0.299638
-0.292461
-0.284672
-0.276374
-0.267758
-0.25904
-0.250404
-0.241987
-0.233879
-0.226095
-0.218735
-0.211595
-0.205279
-0.350818
-0.343405
-0.336982
-0.330184
-0.323327
-0.316411
-0.309164
-0.301332
-0.292812
-0.283685
-0.274165
-0.264511
-0.254956
-0.245669
-0.236755
-0.228269
-0.22021
-0.212632
-0.205354
-0.198904
-0.359223
-0.350689
-0.343597
-0.336122
-0.328481
-0.320585
-0.312109
-0.302852
-0.292846
-0.282319
-0.271583
-0.260935
-0.250597
-0.240709
-0.231336
-0.2225
-0.214182
-0.206399
-0.198991
-0.192407
-0.368279
-0.358568
-0.350783
-0.342562
-0.333994
-0.324905
-0.314963
-0.304085
-0.292486
-0.280534
-0.268613
-0.257022
-0.245955
-0.235508
-0.22571
-0.216548
-0.207987
-0.200009
-0.192484
-0.18577
-0.377935
-0.367016
-0.358512
-0.34945
-0.339772
-0.329241
-0.317588
-0.304924
-0.291662
-0.278294
-0.265233
-0.252756
-0.241011
-0.230045
-0.219849
-0.210383
-0.201595
-0.193438
-0.185808
-0.178973
-0.388124
-0.37598
-0.366723
-0.356696
-0.345682
-0.333433
-0.319839
-0.305263
-0.290312
-0.27556
-0.261417
-0.248112
-0.235736
-0.224288
-0.213723
-0.203976
-0.194979
-0.186663
-0.178944
-0.171997
-0.398741
-0.385377
-0.375318
-0.364168
-0.351553
-0.337304
-0.321571
-0.305004
-0.288374
-0.272294
-0.257134
-0.243058
-0.230097
-0.218204
-0.2073
-0.197298
-0.188113
-0.179659
-0.171869
-0.164825
-0.409649
-0.39509
-0.384163
-0.371692
-0.357183
-0.340665
-0.322644
-0.304054
-0.285789
-0.268452
-0.252344
-0.237557
-0.224057
-0.211757
-0.200546
-0.190317
-0.180969
-0.172404
-0.164563
-0.157441
-0.420675
-0.404963
-0.39308
-0.379054
-0.362345
-0.343326
-0.322923
-0.302328
-0.282499
-0.263986
-0.247004
-0.231565
-0.217577
-0.204911
-0.193429
-0.183006
-0.173525
-0.164877
-0.157008
-0.149829
-0.431608
-0.414804
-0.40185
-0.386005
-0.366802
-0.345102
-0.322283
-0.299743
-0.278443
-0.258846
-0.241068
-0.225041
-0.210617
-0.19763
-0.185918
-0.175337
-0.165755
-0.157059
-0.149184
-0.141976
-0.442206
-0.42438
-0.410218
-0.392271
-0.370311
-0.345818
-0.320608
-0.296219
-0.273559
-0.252978
-0.234487
-0.217939
-0.203137
-0.18988
-0.177984
-0.167286
-0.157641
-0.148931
-0.141076
-0.133868
-0.452192
-0.433429
-0.417894
-0.397561
-0.372638
-0.34531
-0.317791
-0.29168
-0.267786
-0.246329
-0.227212
-0.210217
-0.1951
-0.181629
-0.169599
-0.15883
-0.149165
-0.140479
-0.13267
-0.1255
-0.461264
-0.441655
-0.424564
-0.401584
-0.373561
-0.343431
-0.313732
-0.286053
-0.261064
-0.238845
-0.219197
-0.201835
-0.186472
-0.172848
-0.160739
-0.14995
-0.140311
-0.131692
-0.123964
-0.116879
-0.469104
-0.448744
-0.429904
-0.404056
-0.372877
-0.340048
-0.308342
-0.279269
-0.253336
-0.230477
-0.210399
-0.192756
-0.177222
-0.163512
-0.151384
-0.140628
-0.131065
-0.12256
-0.114958
-0.108022
-0.47538
-0.454366
-0.433587
-0.404713
-0.370407
-0.335045
-0.301539
-0.271265
-0.244546
-0.221179
-0.20078
-0.182948
-0.167324
-0.1536
-0.141516
-0.130849
-0.121412
-0.113067
-0.105647
-0.0989326
-0.479762
-0.458188
-0.435299
-0.403313
-0.365993
-0.32832
-0.293253
-0.261985
-0.23465
-0.210911
-0.190305
-0.172384
-0.156757
-0.143095
-0.131122
-0.120602
-0.11134
-0.103197
-0.0960014
-0.0895568
-0.481929
-0.459887
-0.434749
-0.39965
-0.359506
-0.319792
-0.283424
-0.251381
-0.223606
-0.199641
-0.178951
-0.161045
-0.145507
-0.131986
-0.120193
-0.10988
-0.100847
-0.0929522
-0.0859885
-0.0797556
-0.481575
-0.459152
-0.43168
-0.39355
-0.350843
-0.309397
-0.272007
-0.239416
-0.211386
-0.187345
-0.166698
-0.148918
-0.133563
-0.120268
-0.108726
-0.0986826
-0.0899374
-0.0823521
-0.0756195
-0.0694638
-0.478425
-0.455704
-0.425872
-0.384877
-0.339927
-0.297089
-0.258968
-0.226066
-0.197967
-0.174007
-0.153536
-0.135994
-0.120922
-0.107938
-0.0967287
-0.0870173
-0.078614
-0.0714063
-0.0649201
-0.0590139
-0.472236
-0.4493
-0.417154
-0.373536
-0.326712
-0.282841
-0.244291
-0.211315
-0.183339
-0.15962
-0.13946
-0.122277
-0.107591
-0.095004
-0.084216
-0.0749074
-0.0669229
-0.0600783
-0.0538934
-0.0484382
-0.462808
-0.439741
-0.405402
-0.35947
-0.311177
-0.266649
-0.227971
-0.19516
-0.167502
-0.144187
-0.124485
-0.107781
-0.0935957
-0.0815005
-0.0711845
-0.0623586
-0.0548475
-0.0484145
-0.0425898
-0.0376605
-0.449989
-0.426887
-0.390532
-0.342661
-0.29333
-0.248522
-0.210016
-0.177608
-0.150479
-0.127735
-0.108644
-0.0925352
-0.0789368
-0.067426
-0.0576668
-0.0493891
-0.0424062
-0.0364404
-0.0310272
-0.0266624
-0.433675
-0.410648
-0.372509
-0.323123
-0.273203
-0.228492
-0.190451
-0.158689
-0.132323
-0.110309
-0.0919379
-0.0765524
-0.0636488
-0.0528088
-0.0436883
-0.0360247
-0.0296258
-0.0241789
-0.0192212
-0.0154563
-0.413819
-0.390988
-0.351345
-0.300909
-0.250857
-0.206613
-0.169338
-0.138507
-0.113025
-0.0919196
-0.0744161
-0.0598699
-0.0477656
-0.0376839
-0.02928
-0.0222963
-0.016537
-0.0116552
-0.00719386
-0.00406696
-0.390426
-0.367927
-0.327106
-0.276113
-0.22637
-0.182961
-0.146773
-0.117049
-0.0926626
-0.0726208
-0.0561252
-0.0425336
-0.031329
-0.0220914
-0.014479
-0.00824019
-0.00317451
0.00109808
0.00502251
0.00747424
-0.363551
-0.341543
-0.299928
-0.248874
-0.199815
-0.157628
-0.122793
-0.0944063
-0.0713034
-0.0524772
-0.0371219
-0.0245966
-0.0143875
-0.00607668
0.000672258
0.00610349
0.0104235
0.0140427
0.017387
0.0191279
-0.333304
-0.311969
-0.270004
-0.2193
-0.171295
-0.130707
-0.0975035
-0.0706707
-0.0490276
-0.0315627
-0.0174719
-0.00611927
0.00300376
0.0103095
0.0161265
0.0206908
0.0242164
0.0271394
0.029857
0.0308507
-0.29985
-0.279409
-0.237432
-0.187345
-0.141117
-0.102362
-0.0710237
-0.0459458
-0.0259265
-0.00995991
0.00275018
0.0128311
0.0207832
0.0270105
0.0318307
0.0354729
0.0381619
0.0403523
0.0423986
0.0426138
-0.263404
-0.244153
-0.202025
-0.15355
-0.109353
-0.0727399
-0.0434876
-0.0203466
-0.00210232
0.0122397
0.0234623
0.0321807
0.0388839
0.0439639
0.0477252
0.0503931
0.0522109
0.0536415
0.0549745
0.0543951
-0.224173
-0.206439
-0.164176
-0.118029
-0.0762089
-0.042006
-0.0150406
0.00600017
0.0223331
0.0349365
0.0445756
0.0518499
0.0572343
0.0611038
0.0637468
0.0653913
0.066306
0.0669372
0.0674697
0.0660341
-0.182382
-0.165922
-0.12499
-0.0810338
-0.0418897
-0.0103378
0.0141619
0.0329577
0.047259
0.0580232
0.0659947
0.0717546
0.0757594
0.0783633
0.0798378
0.080421
0.0803996
0.0801276
0.0795933
0.0770365
-0.138427
-0.123425
-0.084324
-0.0428317
-0.00661577
0.0220782
0.043955
0.0603805
0.0725466
0.0813859
0.0876187
0.0918051
0.0943803
0.0956756
0.0959505
0.0954609
0.0944772
0.0931201
0.0910445
0.086978
-0.0927387
-0.0792222
-0.0423645
-0.00368374
0.0293795
0.0550438
0.0741652
0.0881153
0.0980604
0.104904
0.109341
0.111907
0.113013
0.112971
0.112036
0.110485
0.108522
0.105922
0.102085
0.0968975
-0.0455873
-0.0337412
0.000587418
0.0361422
0.0658556
0.0883512
0.104611
0.116002
0.123659
0.128454
0.131051
0.131961
0.131571
0.130172
0.128025
0.125412
0.122428
0.118546
0.113337
0.110011
0.00263556
0.0126255
0.0441913
0.0763639
0.102566
0.121786
0.135106
0.143877
0.149198
0.151905
0.152633
0.151865
0.149962
0.147202
0.14384
0.140131
0.136052
0.131026
0.125196
0.12265
0.0515153
0.0594954
0.0880957
0.116689
0.139259
0.15513
0.165457
0.17157
0.174527
0.175126
0.173971
0.171515
0.168096
0.163976
0.159402
0.154584
0.149429
0.143447
0.137151
0.134384
0.100633
0.106481
0.131948
0.156818
0.175679
0.188161
0.195472
0.198912
0.199496
0.197984
0.194946
0.190805
0.185877
0.180407
0.174622
0.168694
0.162506
0.155679
0.148879
0.145529
0.149566
0.153191
0.175397
0.196455
0.211571
0.220656
0.224955
0.22573
0.223954
0.220345
0.215438
0.209629
0.20321
0.196406
0.189425
0.182404
0.175225
0.167589
0.1602
0.156115
0.197894
0.199235
0.218096
0.235303
0.246679
0.252394
0.253712
0.251856
0.24775
0.242075
0.23533
0.227883
0.22
0.211889
0.203733
0.195647
0.187515
0.17909
0.17107
0.166189
0.2452
0.244228
0.259705
0.27307
0.280755
0.283158
0.281553
0.27712
0.270737
0.263044
0.254506
0.245461
0.236154
0.22677
0.217472
0.208354
0.199301
0.190107
0.181441
0.175739
0.291075
0.287792
0.299895
0.309475
0.313552
0.312734
0.308292
0.301359
0.292769
0.283123
0.272851
0.262264
0.251581
0.24097
0.23057
0.220459
0.210523
0.200585
0.191277
0.184746
0.335125
0.329563
0.338347
0.344242
0.344836
0.340917
0.333747
0.324414
0.313708
0.302188
0.290255
0.278192
0.266194
0.254409
0.242957
0.231897
0.221119
0.210472
0.200537
0.193184
0.376969
0.369192
0.374757
0.377113
0.374381
0.36751
0.357746
0.346134
0.333417
0.320122
0.306615
0.293152
0.27991
0.267014
0.254566
0.242609
0.231037
0.219721
0.209185
0.201024
0.416249
0.406348
0.408838
0.407839
0.401973
0.392325
0.380126
0.366374
0.351772
0.336811
0.321828
0.307056
0.292648
0.278713
0.265334
0.252538
0.240226
0.228288
0.21718
0.208241
0.452626
0.440723
0.440321
0.43619
0.427411
0.41519
0.400734
0.384999
0.368652
0.35215
0.335804
0.319821
0.304337
0.289442
0.275203
0.261632
0.248639
0.236129
0.224488
0.214809
0.485788
0.472031
0.46896
0.461954
0.450512
0.435941
0.419426
0.401885
0.383949
0.366043
0.348455
0.33137
0.314907
0.29914
0.284117
0.269843
0.256233
0.243207
0.231075
0.220703
0.515453
0.500015
0.494529
0.484936
0.471107
0.454433
0.436076
0.416919
0.397561
0.378401
0.359703
0.341634
0.324297
0.30775
0.292028
0.277127
0.262968
0.249483
0.236909
0.225903
0.541365
0.524442
0.516828
0.504965
0.489047
0.470535
0.450568
0.429999
0.409399
0.389144
0.369478
0.350551
0.332451
0.315225
0.298893
0.283444
0.268809
0.254926
0.241963
0.230392
0.563305
0.545112
0.535683
0.521891
0.504201
0.484131
0.462801
0.441038
0.419387
0.398205
0.37772
0.358067
0.339322
0.321521
0.304674
0.288762
0.273725
0.259508
0.246212
0.234154
0.581085
0.561855
0.550947
0.535586
0.516459
0.495126
0.472691
0.449959
0.427457
0.405525
0.384376
0.364135
0.344868
0.326601
0.309337
0.293051
0.277691
0.263203
0.249637
0.237178
0.594554
0.574533
0.5625
0.545948
0.525732
0.503441
0.48017
0.456704
0.433557
0.411056
0.389405
0.368719
0.349056
0.330438
0.312858
0.296289
0.280683
0.265992
0.25222
0.239454
0.603597
0.583044
0.570252
0.552899
0.531951
0.509018
0.485184
0.461226
0.437646
0.414764
0.392775
0.37179
0.351863
0.333008
0.315216
0.298457
0.282688
0.26786
0.253949
0.240974
0.608138
0.587317
0.574143
0.556388
0.535072
0.511816
0.4877
0.463495
0.439697
0.416623
0.394466
0.373331
0.35327
0.334297
0.316398
0.299544
0.283693
0.268797
0.254815
0.241736
0.608138
0.587317
0.574143
0.556388
0.535072
0.511816
0.4877
0.463495
0.439697
0.416623
0.394466
0.373331
0.35327
0.334297
0.316398
0.299544
0.283693
0.268797
0.254815
0.241736
0.603597
0.583044
0.570252
0.552899
0.531951
0.509018
0.485184
0.461226
0.437646
0.414764
0.392775
0.37179
0.351863
0.333008
0.315216
0.298457
0.282688
0.26786
0.253949
0.240974
0.594554
0.574533
0.5625
0.545948
0.525731
0.503441
0.48017
0.456704
0.433557
0.411056
0.389405
0.368719
0.349056
0.330438
0.312858
0.296289
0.280683
0.265992
0.25222
0.239454
0.581085
0.561855
0.550947
0.535586
0.516459
0.495126
0.472691
0.449959
0.427457
0.405525
0.384376
0.364135
0.344868
0.326601
0.309337
0.293051
0.277691
0.263203
0.249637
0.237178
0.563305
0.545112
0.535683
0.521891
0.504201
0.484131
0.462801
0.441038
0.419387
0.398205
0.37772
0.358067
0.339322
0.321521
0.304674
0.288762
0.273725
0.259508
0.246212
0.234154
0.541365
0.524442
0.516828
0.504965
0.489047
0.470535
0.450568
0.429999
0.409399
0.389144
0.369478
0.350551
0.332451
0.315225
0.298893
0.283444
0.268809
0.254926
0.241963
0.230392
0.515453
0.500015
0.494529
0.484936
0.471107
0.454433
0.436076
0.416919
0.397561
0.378401
0.359703
0.341634
0.324297
0.30775
0.292028
0.277127
0.262968
0.249483
0.236909
0.225903
0.485788
0.472031
0.46896
0.461954
0.450512
0.435941
0.419426
0.401885
0.383949
0.366043
0.348455
0.33137
0.314907
0.29914
0.284117
0.269843
0.256233
0.243207
0.231075
0.220703
0.452626
0.440723
0.440321
0.43619
0.427411
0.41519
0.400734
0.384999
0.368652
0.35215
0.335804
0.319821
0.304337
0.289442
0.275203
0.261632
0.248639
0.236129
0.224488
0.214809
0.416249
0.406348
0.408838
0.407839
0.401973
0.392325
0.380126
0.366374
0.351772
0.336811
0.321828
0.307056
0.292648
0.278713
0.265334
0.252538
0.240226
0.228288
0.21718
0.208241
0.376969
0.369192
0.374757
0.377113
0.374381
0.367509
0.357746
0.346134
0.333417
0.320122
0.306614
0.293152
0.279909
0.267014
0.254566
0.242609
0.231037
0.219721
0.209185
0.201024
0.335125
0.329563
0.338347
0.344242
0.344836
0.340917
0.333747
0.324414
0.313708
0.302188
0.290255
0.278192
0.266194
0.254409
0.242957
0.231897
0.221119
0.210472
0.200537
0.193183
0.291075
0.287792
0.299895
0.309475
0.313552
0.312734
0.308292
0.301359
0.292769
0.283123
0.272851
0.262264
0.251581
0.24097
0.23057
0.220459
0.210523
0.200585
0.191276
0.184746
0.2452
0.244228
0.259705
0.27307
0.280755
0.283158
0.281553
0.27712
0.270737
0.263044
0.254506
0.245461
0.236154
0.22677
0.217472
0.208354
0.199301
0.190107
0.181441
0.175739
0.197894
0.199235
0.218095
0.235303
0.246679
0.252394
0.253712
0.251856
0.24775
0.242075
0.23533
0.227883
0.22
0.211889
0.203733
0.195647
0.187515
0.17909
0.17107
0.166189
0.149566
0.153191
0.175396
0.196455
0.211571
0.220656
0.224955
0.22573
0.223954
0.220345
0.215438
0.209629
0.20321
0.196406
0.189425
0.182404
0.175225
0.167589
0.1602
0.156115
0.100633
0.106481
0.131948
0.156818
0.175679
0.188161
0.195472
0.198912
0.199496
0.197984
0.194946
0.190805
0.185877
0.180406
0.174622
0.168694
0.162506
0.155679
0.148879
0.145529
0.0515153
0.0594953
0.0880956
0.116688
0.139259
0.15513
0.165457
0.17157
0.174527
0.175126
0.173971
0.171515
0.168096
0.163976
0.159402
0.154584
0.149429
0.143447
0.137151
0.134384
0.00263547
0.0126255
0.0441912
0.0763638
0.102566
0.121786
0.135106
0.143877
0.149198
0.151905
0.152633
0.151865
0.149962
0.147202
0.14384
0.140131
0.136052
0.131026
0.125196
0.12265
-0.0455874
-0.0337413
0.000587322
0.0361421
0.0658556
0.0883512
0.104611
0.116002
0.123659
0.128454
0.131051
0.131961
0.131571
0.130172
0.128025
0.125411
0.122428
0.118546
0.113337
0.110011
-0.0927388
-0.0792223
-0.0423646
-0.00368383
0.0293794
0.0550437
0.0741651
0.0881152
0.0980604
0.104904
0.109341
0.111907
0.113013
0.11297
0.112035
0.110485
0.108522
0.105922
0.102085
0.0968974
-0.138427
-0.123426
-0.0843241
-0.0428318
-0.00661587
0.0220781
0.0439549
0.0603804
0.0725465
0.0813858
0.0876186
0.091805
0.0943803
0.0956755
0.0959505
0.0954608
0.0944771
0.09312
0.0910445
0.0869779
-0.182382
-0.165922
-0.12499
-0.0810339
-0.0418898
-0.0103379
0.0141618
0.0329576
0.0472589
0.0580232
0.0659946
0.0717545
0.0757593
0.0783632
0.0798377
0.080421
0.0803996
0.0801276
0.0795932
0.0770364
-0.224173
-0.206439
-0.164176
-0.11803
-0.076209
-0.0420061
-0.0150407
0.00600007
0.022333
0.0349364
0.0445755
0.0518499
0.0572342
0.0611037
0.0637467
0.0653913
0.066306
0.0669371
0.0674696
0.066034
-0.263404
-0.244153
-0.202025
-0.15355
-0.109353
-0.07274
-0.0434877
-0.0203467
-0.00210242
0.0122396
0.0234623
0.0321806
0.0388838
0.0439639
0.0477251
0.0503931
0.0522108
0.0536414
0.0549744
0.0543951
-0.29985
-0.279409
-0.237432
-0.187345
-0.141117
-0.102362
-0.0710238
-0.0459459
-0.0259266
-0.00996001
0.00275009
0.012831
0.0207832
0.0270104
0.0318306
0.0354729
0.0381618
0.0403522
0.0423985
0.0426138
-0.333304
-0.311969
-0.270004
-0.2193
-0.171295
-0.130708
-0.0975036
-0.0706708
-0.0490277
-0.0315628
-0.017472
-0.00611936
0.00300367
0.0103094
0.0161264
0.0206908
0.0242163
0.0271393
0.029857
0.0308506
-0.363552
-0.341543
-0.299928
-0.248874
-0.199815
-0.157628
-0.122793
-0.0944065
-0.0713035
-0.0524773
-0.037122
-0.0245967
-0.0143876
-0.00607677
0.000672175
0.00610341
0.0104234
0.0140427
0.0173869
0.0191278
-0.390426
-0.367927
-0.327106
-0.276113
-0.22637
-0.182961
-0.146773
-0.117049
-0.0926627
-0.0726209
-0.0561253
-0.0425337
-0.0313291
-0.0220915
-0.0144791
-0.00824027
-0.00317459
0.001098
0.00502244
0.00747418
-0.413819
-0.390988
-0.351345
-0.300909
-0.250857
-0.206613
-0.169338
-0.138507
-0.113025
-0.0919198
-0.0744162
-0.05987
-0.0477657
-0.037684
-0.0292801
-0.0222964
-0.0165371
-0.0116553
-0.00719393
-0.00406703
-0.433675
-0.410648
-0.372509
-0.323124
-0.273203
-0.228492
-0.190452
-0.158689
-0.132323
-0.110309
-0.091938
-0.0765525
-0.0636489
-0.0528089
-0.0436884
-0.0360248
-0.0296259
-0.0241789
-0.0192213
-0.0154564
-0.449989
-0.426887
-0.390532
-0.342661
-0.29333
-0.248522
-0.210017
-0.177608
-0.150479
-0.127736
-0.108644
-0.0925353
-0.0789369
-0.0674261
-0.0576669
-0.0493892
-0.0424063
-0.0364405
-0.0310273
-0.0266625
-0.462808
-0.439742
-0.405402
-0.35947
-0.311178
-0.266649
-0.227971
-0.19516
-0.167502
-0.144187
-0.124485
-0.107781
-0.0935958
-0.0815006
-0.0711846
-0.0623587
-0.0548476
-0.0484146
-0.0425899
-0.0376606
-0.472236
-0.4493
-0.417154
-0.373536
-0.326713
-0.282842
-0.244291
-0.211315
-0.18334
-0.15962
-0.13946
-0.122277
-0.107592
-0.0950041
-0.0842161
-0.0749075
-0.066923
-0.0600784
-0.0538935
-0.0484382
-0.478425
-0.455705
-0.425872
-0.384877
-0.339928
-0.297089
-0.258968
-0.226066
-0.197967
-0.174008
-0.153536
-0.135994
-0.120922
-0.107938
-0.0967288
-0.0870174
-0.0786141
-0.0714064
-0.0649202
-0.059014
-0.481575
-0.459152
-0.43168
-0.39355
-0.350843
-0.309397
-0.272007
-0.239417
-0.211386
-0.187346
-0.166699
-0.148918
-0.133563
-0.120268
-0.108726
-0.0986827
-0.0899375
-0.0823522
-0.0756196
-0.0694639
-0.481929
-0.459887
-0.43475
-0.399651
-0.359506
-0.319792
-0.283424
-0.251381
-0.223607
-0.199642
-0.178951
-0.161045
-0.145507
-0.131987
-0.120193
-0.10988
-0.100847
-0.0929523
-0.0859886
-0.0797557
-0.479763
-0.458189
-0.435299
-0.403314
-0.365993
-0.32832
-0.293253
-0.261985
-0.23465
-0.210912
-0.190306
-0.172384
-0.156757
-0.143095
-0.131122
-0.120602
-0.11134
-0.103198
-0.0960015
-0.0895569
-0.47538
-0.454366
-0.433587
-0.404713
-0.370407
-0.335045
-0.301539
-0.271265
-0.244547
-0.221179
-0.20078
-0.182948
-0.167324
-0.1536
-0.141516
-0.130849
-0.121412
-0.113067
-0.105647
-0.0989327
-0.469104
-0.448744
-0.429904
-0.404056
-0.372878
-0.340049
-0.308342
-0.279269
-0.253336
-0.230477
-0.2104
-0.192756
-0.177222
-0.163513
-0.151384
-0.140628
-0.131065
-0.12256
-0.114958
-0.108022
-0.461264
-0.441655
-0.424565
-0.401584
-0.373561
-0.343432
-0.313732
-0.286053
-0.261065
-0.238845
-0.219197
-0.201835
-0.186472
-0.172848
-0.160739
-0.14995
-0.140311
-0.131693
-0.123964
-0.116879
-0.452192
-0.433429
-0.417894
-0.397561
-0.372638
-0.345311
-0.317791
-0.29168
-0.267787
-0.246329
-0.227212
-0.210217
-0.1951
-0.181629
-0.169599
-0.15883
-0.149165
-0.14048
-0.13267
-0.1255
-0.442206
-0.424381
-0.410218
-0.392271
-0.370311
-0.345818
-0.320608
-0.296219
-0.273559
-0.252978
-0.234487
-0.217939
-0.203137
-0.18988
-0.177984
-0.167286
-0.157641
-0.148931
-0.141076
-0.133868
-0.431609
-0.414804
-0.401851
-0.386006
-0.366802
-0.345102
-0.322283
-0.299743
-0.278443
-0.258846
-0.241068
-0.225041
-0.210617
-0.19763
-0.185918
-0.175337
-0.165755
-0.157059
-0.149185
-0.141976
-0.420675
-0.404964
-0.39308
-0.379054
-0.362346
-0.343326
-0.322923
-0.302328
-0.282499
-0.263986
-0.247005
-0.231566
-0.217578
-0.204911
-0.193429
-0.183006
-0.173525
-0.164877
-0.157008
-0.14983
-0.409649
-0.39509
-0.384163
-0.371692
-0.357183
-0.340665
-0.322644
-0.304054
-0.28579
-0.268452
-0.252344
-0.237557
-0.224058
-0.211757
-0.200546
-0.190317
-0.18097
-0.172404
-0.164563
-0.157441
-0.398741
-0.385377
-0.375318
-0.364168
-0.351553
-0.337304
-0.321572
-0.305004
-0.288374
-0.272294
-0.257134
-0.243059
-0.230097
-0.218204
-0.2073
-0.197298
-0.188113
-0.179659
-0.171869
-0.164825
-0.388124
-0.37598
-0.366723
-0.356696
-0.345682
-0.333433
-0.319839
-0.305263
-0.290312
-0.27556
-0.261417
-0.248113
-0.235736
-0.224288
-0.213723
-0.203976
-0.194979
-0.186663
-0.178944
-0.171997
-0.377936
-0.367016
-0.358513
-0.34945
-0.339773
-0.329241
-0.317588
-0.304924
-0.291663
-0.278294
-0.265233
-0.252756
-0.241011
-0.230045
-0.219849
-0.210383
-0.201595
-0.193439
-0.185808
-0.178973
-0.368279
-0.358568
-0.350784
-0.342562
-0.333995
-0.324906
-0.314963
-0.304086
-0.292486
-0.280534
-0.268613
-0.257023
-0.245956
-0.235509
-0.22571
-0.216548
-0.207987
-0.200009
-0.192484
-0.18577
-0.359224
-0.350689
-0.343597
-0.336122
-0.328481
-0.320585
-0.31211
-0.302852
-0.292846
-0.282319
-0.271584
-0.260936
-0.250598
-0.240709
-0.231336
-0.222501
-0.214183
-0.206399
-0.198991
-0.192407
-0.350819
-0.343405
-0.336983
-0.330184
-0.323327
-0.316411
-0.309164
-0.301333
-0.292812
-0.283685
-0.274165
-0.264512
-0.254956
-0.245669
-0.236755
-0.22827
-0.22021
-0.212632
-0.205354
-0.198904
-0.343083
-0.336723
-0.330947
-0.324774
-0.318592
-0.312482
-0.306249
-0.299638
-0.292461
-0.284672
-0.276374
-0.267759
-0.25904
-0.250405
-0.241987
-0.233879
-0.226095
-0.218735
-0.211595
-0.205279
-0.336021
-0.330634
-0.325477
-0.31989
-0.314303
-0.308865
-0.303461
-0.297872
-0.291874
-0.285329
-0.278227
-0.270677
-0.262846
-0.254919
-0.247044
-0.239349
-0.231862
-0.224731
-0.217737
-0.211552
-0.32962
-0.325115
-0.320547
-0.315514
-0.310465
-0.3056
-0.300876
-0.296128
-0.291136
-0.285708
-0.279746
-0.273263
-0.266363
-0.2592
-0.251923
-0.244686
-0.237527
-0.230645
-0.223804
-0.217745
-0.323856
-0.320139
-0.316125
-0.311616
-0.307065
-0.3027
-0.298542
-0.29448
-0.290327
-0.285872
-0.280958
-0.275515
-0.269568
-0.263224
-0.256607
-0.249884
-0.243099
-0.236494
-0.229826
-0.223877
-0.318696
-0.31567
-0.312172
-0.30816
-0.304075
-0.300161
-0.296483
-0.292986
-0.289519
-0.285887
-0.281903
-0.277437
-0.27244
-0.266954
-0.261059
-0.254918
-0.248567
-0.242289
-0.235812
-0.230003
-0.314097
-0.311668
-0.308646
-0.305105
-0.301462
-0.297964
-0.294708
-0.291679
-0.288771
-0.285817
-0.282631
-0.279048
-0.27496
-0.270345
-0.265223
-0.259738
-0.253895
-0.248022
-0.241804
-0.236133
-0.310013
-0.308091
-0.305504
-0.302407
-0.299185
-0.296081
-0.293206
-0.290577
-0.288125
-0.285721
-0.283195
-0.280377
-0.277123
-0.273357
-0.269038
-0.264267
-0.259024
-0.253642
-0.247765
-0.242514
-0.306388
-0.304892
-0.302702
-0.300022
-0.297204
-0.294475
-0.291955
-0.289678
-0.287607
-0.285644
-0.283651
-0.281469
-0.278944
-0.275964
-0.272437
-0.268422
-0.263825
-0.259111
-0.253595
-0.248997
-0.303165
-0.302027
-0.300194
-0.297905
-0.295472
-0.293104
-0.290921
-0.288966
-0.287221
-0.285618
-0.284047
-0.282376
-0.280457
-0.278165
-0.275378
-0.272103
-0.268226
-0.26407
-0.259666
-0.255005
-0.300278
-0.299451
-0.297937
-0.296012
-0.293945
-0.291925
-0.290065
-0.288411
-0.286956
-0.285653
-0.284419
-0.283147
-0.281712
-0.279989
-0.277855
-0.275233
-0.272158
-0.268375
-0.265331
-0.259859
-0.297683
-0.29711
-0.295885
-0.2943
-0.292579
-0.290893
-0.289343
-0.287974
-0.286785
-0.285742
-0.284782
-0.283823
-0.282762
-0.281483
-0.279897
-0.277792
-0.275531
-0.271875
-0.270051
-0.263695
-0.295319
-0.294963
-0.294
-0.292728
-0.291333
-0.289963
-0.28871
-0.287613
-0.286672
-0.285861
-0.285133
-0.284421
-0.283648
-0.282706
-0.281555
-0.279829
-0.27831
-0.274601
-0.27398
-0.266603
-0.293132
-0.292971
-0.292248
-0.291261
-0.290168
-0.289096
-0.288123
-0.287283
-0.286575
-0.285977
-0.285451
-0.284945
-0.284395
-0.283709
-0.28288
-0.281447
-0.280517
-0.276735
-0.277262
-0.268715
-0.291078
-0.2911
-0.2906
-0.289867
-0.289054
-0.288257
-0.287545
-0.286945
-0.286455
-0.286054
-0.285709
-0.285378
-0.285008
-0.284523
-0.283921
-0.282749
-0.282183
-0.278497
-0.279851
-0.270283
-0.289124
-0.289324
-0.289023
-0.28853
-0.287966
-0.28742
-0.286947
-0.286568
-0.286277
-0.286057
-0.285877
-0.285699
-0.285479
-0.285157
-0.284715
-0.283794
-0.28336
-0.280045
-0.281645
-0.271638
-0.287243
-0.287626
-0.287506
-0.287227
-0.286888
-0.286566
-0.286308
-0.286127
-0.286017
-0.285959
-0.285926
-0.285884
-0.285794
-0.285605
-0.285282
-0.284588
-0.284137
-0.281407
-0.282672
-0.273061
-0.28542
-0.285992
-0.28604
-0.28595
-0.285811
-0.285687
-0.285617
-0.285611
-0.28566
-0.285746
-0.285842
-0.285918
-0.285938
-0.285859
-0.285634
-0.285121
-0.284608
-0.282506
-0.283112
-0.274617
-0.28365
-0.284419
-0.284619
-0.284697
-0.284733
-0.28478
-0.284873
-0.285018
-0.285204
-0.285413
-0.285619
-0.285795
-0.285907
-0.285916
-0.285773
-0.28539
-0.284838
-0.28326
-0.283198
-0.276164
-0.281936
-0.282908
-0.283249
-0.283475
-0.283661
-0.283855
-0.284085
-0.284356
-0.284657
-0.284968
-0.285266
-0.285523
-0.28571
-0.285789
-0.285712
-0.285416
-0.284864