/*--------------------------------*- C++ -*----------------------------------*\
  =========                 |
  \\      /  F ield         | OpenFOAM: The Open Source CFD Toolbox
   \\    /   O peration     | Website:  https://openfoam.org
    \\  /    A nd           | Version:  7
     \\/     M anipulation  |
\*---------------------------------------------------------------------------*/
FoamFile
{
    version     2.0;
    format      ascii;
    class       surfaceScalarField;
    location    "20.001";
    object      phi;
}
// * * * * * * * * * * * * * * * * * * * * * * * * * * * * * * * * * * * * * //

dimensions      [0 3 -1 0 0 0 0];

internalField   nonuniform List<scalar> 
90700
(
-8.96086e-06
8.96072e-06
1.41246e-10
-3.05137e-05
2.15526e-05
2.51693e-10
-6.15504e-05
3.10365e-05
2.53824e-10
-9.97455e-05
3.81949e-05
1.87324e-10
-0.000143395
4.36494e-05
8.01066e-11
-0.000191289
4.78936e-05
-5.10169e-11
-0.000242589
5.1301e-05
-1.99023e-10
-0.000296731
5.41419e-05
-3.6441e-10
-0.000353327
5.65962e-05
-5.53581e-10
-0.000412094
5.87683e-05
-7.75626e-10
-0.000472797
6.07043e-05
-1.03865e-09
-0.000535207
6.24113e-05
-1.34951e-09
-0.000599086
6.38807e-05
-1.71402e-09
-0.000664201
6.51166e-05
-2.13706e-09
-0.00073037
6.61721e-05
-2.6213e-09
-0.000797565
6.71978e-05
-3.16807e-09
-0.000866054
6.84931e-05
-3.77563e-09
-0.000936538
7.04879e-05
-4.44077e-09
-0.00101029
7.3762e-05
-5.1576e-09
7.95195e-05
-5.91983e-09
-0.00108981
-8.78952e-06
1.77502e-05
-2.99638e-05
4.27269e-05
-6.04694e-05
6.1542e-05
-9.80048e-05
7.57304e-05
-0.000140871
8.65155e-05
-0.000187849
9.4872e-05
-0.000238087
0.000101539
-0.000290997
0.000107052
-0.000346168
0.000111767
-0.00040329
0.00011589
-0.000462097
0.000119511
-0.000522323
0.000122637
-0.000583684
0.000125241
-0.000645878
0.00012731
-0.000708625
0.000128919
-0.00077175
0.000130323
-0.000835333
0.000132076
-0.000899875
0.00013503
-0.000966422
0.000140309
0.000150341
-0.00103724
-8.45496e-06
2.62052e-05
-2.88873e-05
6.31593e-05
-5.83483e-05
9.1003e-05
-9.45827e-05
0.000111965
-0.0001359
0.000127833
-0.000181066
0.000140038
-0.000229196
0.000149669
-0.00027966
0.000157516
-0.000331997
0.000164104
-0.000385844
0.000169738
-0.000440875
0.000174541
-0.000496753
0.000178515
-0.000553104
0.000181592
-0.000609504
0.00018371
-0.000665489
0.000184905
-0.000720616
0.00018545
-0.000774594
0.000186055
-0.000827535
0.000187971
-0.000880029
0.000192803
0.000204082
-0.00093377
-7.97295e-06
3.41782e-05
-2.73295e-05
8.25158e-05
-5.52674e-05
0.000118941
-8.95955e-05
0.000146293
-0.000128634
0.000166871
-0.000171125
0.000182529
-0.000216135
0.000194679
-0.000262971
0.000204352
-0.000311098
0.000212232
-0.000360071
0.000218711
-0.000409473
0.000223944
-0.000458868
0.000227911
-0.000507759
0.000230483
-0.000555556
0.000231507
-0.000601562
0.000230911
-0.000644979
0.000228866
-0.000684999
0.000226075
-0.000721155
0.000224127
-0.000753414
0.000225062
0.000232831
-0.000782163
-7.3662e-06
4.15443e-05
-2.53555e-05
0.000100505
-5.13424e-05
0.000144928
-8.32116e-05
0.000178162
-0.000119294
0.000202954
-0.000158297
0.000221532
-0.000199224
0.000235606
-0.000241297
0.000246424
-0.00028388
0.000254815
-0.000326418
0.000261248
-0.000368374
0.000265899
-0.000409178
0.000268715
-0.000448181
0.000269487
-0.000484606
0.000267932
-0.000517497
0.000263802
-0.000545673
0.000257042
-0.000567717
0.000248119
-0.000582387
0.000238796
-0.00058906
0.000231735
0.000229194
-0.000585423
-6.66307e-06
4.82074e-05
-2.30474e-05
0.000116889
-4.67193e-05
0.0001686
-7.56436e-05
0.000207086
-0.000108158
0.000235468
-0.000142925
0.000256299
-0.000178868
0.000271549
-0.0002151
0.000282656
-0.000250859
0.000290574
-0.000285444
0.000295834
-0.000318162
0.000298617
-0.000348274
0.000298827
-0.000374946
0.000296159
-0.000397187
0.000290173
-0.000413779
0.000280394
-0.000423186
0.000266449
-0.000423373
0.000248306
-0.000411988
0.000227412
-0.000388453
0.0002082
0.000186635
-0.000345894
-5.89614e-06
5.41036e-05
-2.04994e-05
0.000131493
-4.15665e-05
0.000189667
-6.71376e-05
0.000232658
-9.5549e-05
0.00026388
-0.000125406
0.000286156
-0.000155533
0.000301676
-0.00018491
0.000312034
-0.000212617
0.000318281
-0.00023777
0.000320987
-0.000259474
0.000320321
-0.00027677
0.000316123
-0.000288588
0.000307977
-0.000293684
0.000295269
-0.000290557
0.000277268
-0.000277354
0.000253245
-0.000251629
0.000222581
-0.000209356
0.000185139
-0.000149516
0.00014836
0.000104609
-6.74897e-05
-5.10037e-06
5.92039e-05
-1.78131e-05
0.000144205
-3.60659e-05
0.000207919
-5.796e-05
0.000254552
-8.18164e-05
0.000287736
-0.000106168
0.000310507
-0.000129718
0.000325226
-0.000151289
0.000333605
-0.000169762
0.000336754
-0.000184028
0.000335252
-0.000192928
0.000329221
-0.000195217
0.000318411
-0.000189508
0.000302268
-0.000174225
0.000279986
-0.000147523
0.000250566
-0.000107181
0.000212903
-5.0585e-05
0.000165985
2.60872e-05
0.000108467
0.0001294
4.50473e-05
-2.94747e-05
0.000263484
-4.31103e-06
6.3515e-05
-1.5091e-05
0.000154985
-3.04017e-05
0.00022323
-4.83797e-05
0.00027253
-6.73114e-05
0.000306668
-8.56363e-05
0.000328832
-0.000101914
0.000341503
-0.000114772
0.000346463
-0.000122856
0.000344838
-0.000124766
0.000337163
-0.000119015
0.00032347
-0.000103973
0.00030337
-7.78326e-05
0.000276127
-3.85577e-05
0.000240711
1.61688e-05
0.00019584
8.90452e-05
0.000140027
0.00018292
7.21102e-05
0.000303774
-1.2388e-05
0.000451308
-0.000102487
-0.000226103
0.000647937
-3.56154e-06
6.70765e-05
-1.24301e-05
0.000163854
-2.4747e-05
0.000235547
-3.86486e-05
0.000286431
-5.23593e-05
0.000320379
-6.41985e-05
0.000340671
-7.2549e-05
0.000349854
-7.58062e-05
0.000349721
-7.23195e-05
0.000341351
-6.03349e-05
0.000325178
-3.79411e-05
0.000301076
-3.02074e-06
0.000268449
4.6798e-05
0.000226308
0.000114164
0.000173345
0.000202037
0.000107967
0.00031384
2.82241e-05
0.000452465
-6.65155e-05
0.000625346
-0.000185269
0.000828639
-0.00030578
-0.000492242
0.00109478
-2.88104e-06
6.99575e-05
-9.91403e-06
0.000170887
-1.92501e-05
0.000244883
-2.89784e-05
0.00029616
-3.72248e-05
0.000328625
-4.21526e-05
0.000345599
-4.19261e-05
0.000349627
-3.46527e-05
0.000342447
-1.83187e-05
0.000325017
9.27395e-06
0.000297585
5.0567e-05
0.000259783
0.000108296
0.000210721
0.000185529
0.000149075
0.000285695
7.31797e-05
0.000412529
-1.8867e-05
0.000570393
-0.000129639
0.000762197
-0.00025832
0.000997182
-0.000420254
0.00126669
-0.000575283
-0.000837078
0.00161152
-2.2921e-06
7.22496e-05
-7.60588e-06
0.000176201
-1.40189e-05
0.000251296
-1.95153e-05
0.000301656
-2.20746e-05
0.000331184
-1.96555e-05
0.00034318
-1.01455e-05
0.000340117
8.70794e-06
0.000323594
3.93718e-05
0.000294353
8.45966e-05
0.00025236
0.000147478
0.000196901
0.000231503
0.000126696
0.00034057
4.00077e-05
0.000478986
-6.52359e-05
0.000651301
-0.000191182
0.000862733
-0.000341072
0.00111638
-0.000511962
0.00142237
-0.000726249
0.00176772
-0.00092063
-0.00126726
0.0021979
-1.80842e-06
7.40581e-05
-5.54051e-06
0.000179933
-9.10644e-06
0.000254862
-1.0315e-05
0.000302864
-6.93847e-06
0.000327808
3.33434e-06
0.000332907
2.29717e-05
0.00032048
5.4682e-05
0.000291884
0.000101499
0.000247537
0.000166854
0.000187005
0.00025463
0.000109125
0.00036918
1.21459e-05
0.000515293
-0.000106106
0.000698125
-0.000248067
0.000922905
-0.000415962
0.00119504
-0.00061321
0.00151799
-0.000834912
0.00190034
-0.0011086
0.00232696
-0.00134724
-0.0017813
0.00284099
-1.43277e-06
7.54908e-05
-3.7176e-06
0.000182218
-4.49723e-06
0.000255642
-1.31444e-06
0.000299682
8.32678e-06
0.000318167
2.71085e-05
0.000314126
5.79546e-05
0.000289634
0.00010415
0.000245688
0.000169431
0.000182256
0.000258045
9.83905e-05
0.00037477
-7.60061e-06
0.000524866
-0.00013795
0.000713925
-0.000295164
0.000947641
-0.000481783
0.00123148
-0.000699797
0.00156977
-0.000951508
0.00196597
-0.00123111
0.00242364
-0.00156628
0.00292898
-0.00185258
-0.0023642
0.00351188
-1.15592e-06
7.66467e-05
-2.09662e-06
0.000183158
-6.57591e-08
0.000253611
7.66774e-06
0.000291948
2.40644e-05
0.00030177
5.22488e-05
0.000285941
9.57306e-05
0.000246152
0.000158515
0.000182904
0.000245181
9.55902e-05
0.000360899
-1.73273e-05
0.000511364
-0.000158066
0.000702604
-0.00032919
0.000940648
-0.000533209
0.00123101
-0.000772143
0.00157835
-0.00104714
0.0019845
-0.00135766
0.00245125
-0.00169786
0.0029741
-0.00208912
0.00354443
-0.00242292
-0.00298604
0.00416627
-9.56327e-07
7.76031e-05
-5.90895e-07
0.000182793
4.2849e-06
0.000248735
1.69658e-05
0.000279267
4.08367e-05
0.000277899
7.96421e-05
0.000247136
0.000137631
0.000188163
0.000219675
0.00010086
0.000331304
-1.60384e-05
0.000478622
-0.000164646
0.000668071
-0.000347515
0.000906006
-0.000567125
0.00119808
-0.000825285
0.00154844
-0.0011225
0.00195919
-0.00145789
0.00242843
-0.0018269
0.0029537
-0.00222313
0.0035213
-0.00265672
0.00413032
-0.00303194
-0.0036074
0.00475167
-8.00836e-07
7.84039e-05
8.94233e-07
0.000181098
8.89725e-06
0.000240732
2.7058e-05
0.000261107
5.94117e-05
0.000245545
0.000110458
0.00019609
0.000185334
0.000113286
0.000289891
-3.69709e-06
0.000430624
-0.000156771
0.000614381
-0.000348404
0.000847867
-0.000581
0.00113687
-0.000856132
0.00148535
-0.00117377
0.00189447
-0.00153161
0.0023617
-0.00192511
0.00288056
-0.00234577
0.00344207
-0.00278464
0.00402578
-0.00324042
0.00463713
-0.0036433
-0.00418961
0.00521935
-6.45611e-07
7.90495e-05
2.53185e-06
0.00017792
1.40805e-05
0.000229183
3.85358e-05
0.000236651
8.07305e-05
0.000203351
0.000146077
0.000130743
0.000240725
1.86383e-05
0.000371532
-0.000134504
0.000545766
-0.000331005
0.000770533
-0.000573171
0.00105187
-0.000862333
0.00139362
-0.00119788
0.0017963
-0.00157645
0.00225633
-0.00199165
0.00276513
-0.00243392
0.00331124
-0.00289187
0.00387899
-0.00335239
0.00444705
-0.00380848
0.00502226
-0.0042185
-0.00470419
0.00553684
-4.37769e-07
7.94873e-05
4.52072e-06
0.000172962
2.02299e-05
0.000213474
5.20772e-05
0.000204804
0.00010584
0.000149588
0.000187975
4.86084e-05
0.000305686
-9.9073e-05
0.000466681
-0.000295498
0.000678538
-0.000542863
0.000947688
-0.000842321
0.0012781
-0.00119274
0.00166992
-0.00158971
0.00211851
-0.00202503
0.00261426
-0.0024874
0.00314262
-0.00296228
0.00368775
-0.003437
0.00423029
-0.00389493
0.00475419
-0.00433238
0.00526291
-0.00472723
-0.00513858
0.0056973
-6.40742e-08
7.95514e-05
7.05995e-06
0.000165838
2.77645e-05
0.000192769
6.83946e-05
0.000164174
0.0001358
8.21826e-05
0.000237549
-5.31404e-05
0.000381795
-0.00024332
0.000576681
-0.000490384
0.000829222
-0.000795404
0.0011438
-0.0011569
0.00152057
-0.00156951
0.00195429
-0.00202343
0.00243406
-0.0025048
0.00294426
-0.0029976
0.00346637
-0.0034844
0.00398243
-0.00395305
0.00447482
-0.00438733
0.00493484
-0.0047924
0.00535906
-0.00515145
-0.00550129
0.00572178
4.46198e-07
7.91052e-05
1.03426e-05
0.000155942
3.70996e-05
0.000166012
8.81722e-05
0.000113101
0.00017157
-1.21551e-06
0.000295926
-0.000177496
0.000470012
-0.000417405
0.000701632
-0.000722004
0.000995938
-0.00108971
0.00135355
-0.00151451
0.00176911
-0.00198507
0.00223092
-0.00248525
0.00272211
-0.00299598
0.00322297
-0.00349845
0.00371428
-0.00397571
0.00417975
-0.00441852
0.00460876
-0.00481634
0.00499878
-0.00518242
0.00534298
-0.00549565
-0.00580904
0.00565073
1.19642e-06
7.79087e-05
1.45604e-05
0.000142578
4.86131e-05
0.00013196
0.000111999
4.9715e-05
0.000213896
-0.000103112
0.00036376
-0.000327361
0.000570354
-0.000623999
0.000839971
-0.000991621
0.00117425
-0.00142399
0.00156832
-0.00190859
0.00201023
-0.00242698
0.00248214
-0.00295715
0.00296315
-0.003477
0.00343293
-0.00396823
0.00387522
-0.00441801
0.00427925
-0.00482255
0.00464265
-0.00517974
0.00496518
-0.00550495
0.00525578
-0.00578625
-0.00607762
0.00552436
2.23639e-06
7.56723e-05
1.98763e-05
0.000124938
6.2616e-05
8.922e-05
0.000140317
-2.79863e-05
0.000263186
-0.000225981
0.000441042
-0.000505217
0.000681639
-0.000864596
0.000988223
-0.0012982
0.00135718
-0.00179294
0.00177695
-0.00232836
0.00222916
-0.00287918
0.00269172
-0.00341971
0.00314313
-0.00392841
0.00356617
-0.00439127
0.00395049
-0.00480233
0.00429262
-0.00516467
0.00459601
-0.00548313
0.00486623
-0.00577518
0.00511438
-0.00603439
-0.00630877
0.00534553
3.60218e-06
7.20702e-05
2.64152e-05
0.000102125
7.93271e-05
3.63081e-05
0.000173357
-0.000122016
0.00031943
-0.000372054
0.000526956
-0.000712743
0.000801326
-0.00113897
0.00114102
-0.0016379
0.00153579
-0.00218772
0.0019673
-0.00275987
0.00241244
-0.00332432
0.00284818
-0.00385545
0.00325602
-0.00433625
0.0036247
-0.00475995
0.0039509
-0.00512853
0.00423744
-0.00545122
0.00449207
-0.00573776
0.00472258
-0.00600569
0.0049393
-0.00625111
-0.00651701
0.00514754
5.32181e-06
6.67484e-05
3.42592e-05
7.31874e-05
9.88558e-05
-2.82885e-05
0.000211108
-0.000234268
0.00038212
-0.000543066
0.00061979
-0.000950412
0.000925529
-0.00144471
0.00129149
-0.00200387
0.00170032
-0.00259654
0.00212823
-0.00318778
0.00255045
-0.00374654
0.00294654
-0.00425154
0.00330379
-0.0046935
0.00361791
-0.00507407
0.00389176
-0.00540238
0.00413245
-0.0056919
0.00434946
-0.00595477
0.00455054
-0.00620677
0.00474489
-0.00644546
-0.00670747
0.00493536
7.4137e-06
5.93347e-05
4.34476e-05
3.71535e-05
0.000121192
-0.000106033
0.000253284
-0.00036636
0.000450201
-0.000739983
0.000716922
-0.00121713
0.00104922
-0.00177701
0.00143201
-0.00238665
0.00184161
-0.00300614
0.00225151
-0.00359768
0.00263874
-0.00413377
0.00298826
-0.00460106
0.00329423
-0.00499947
0.00355865
-0.0053385
0.00378866
-0.00563239
0.00399331
-0.00589656
0.00418191
-0.00614337
0.00436114
-0.00638599
0.00453823
-0.00662255
-0.00688315
0.00471391
9.88752e-06
4.94471e-05
5.39755e-05
-6.93453e-06
0.000146199
-0.000198257
0.000299308
-0.00051947
0.00052206
-0.000962735
0.000814922
-0.00150999
0.0011667
-0.00212879
0.00155519
-0.00277514
0.00195258
-0.00340352
0.00233292
-0.00397802
0.00267798
-0.00447883
0.00297946
-0.00490254
0.00323794
-0.00525795
0.00345998
-0.00556053
0.00365483
-0.00582724
0.00383172
-0.00607345
0.00399869
-0.00631034
0.00416085
-0.00654816
0.0043236
-0.0067853
-0.00704594
0.0044864
1.27448e-05
3.67023e-05
6.57927e-05
-5.99824e-05
0.000173604
-0.000306068
0.000348294
-0.00069416
0.000595553
-0.00120999
0.000909779
-0.00182422
0.00127222
-0.00249123
0.00165496
-0.00315788
0.00202907
-0.00377763
0.00237225
-0.00432121
0.0026727
-0.00477928
0.00292872
-0.00515855
0.00314583
-0.00547506
0.00333315
-0.00574785
0.00350036
-0.00599445
0.0036557
-0.00622878
0.00380552
-0.00646016
0.00395349
-0.00669613
0.00410346
-0.00693527
-0.0071965
0.00425402
1.5979e-05
2.07233e-05
7.88007e-05
-0.000122804
0.000202988
-0.000430256
0.000399047
-0.000890218
0.000668096
-0.00147904
0.00099727
-0.00215339
0.00136072
-0.00285469
0.00172729
-0.00352445
0.00207007
-0.00412041
0.00237254
-0.00462368
0.00262961
-0.00503635
0.00284505
-0.00537398
0.0030275
-0.00565752
0.00318696
-0.00590731
0.00333234
-0.00613984
0.00347041
-0.00636685
0.00360588
-0.00659563
0.00374122
-0.00683146
0.00387908
-0.00707314
-0.00733509
0.00401768
1.9574e-05
1.14928e-06
9.28481e-05
-0.000196078
0.000233786
-0.000571194
0.000450091
-0.00110652
0.000736844
-0.0017658
0.00107341
-0.00248996
0.00142844
-0.00320971
0.0017705
-0.00386652
0.00207726
-0.00442716
0.00233881
-0.00488523
0.00255608
-0.00525362
0.00273667
-0.00555458
0.0028907
-0.00581156
0.0030278
-0.0060444
0.00315552
-0.00626756
0.00327908
-0.00649041
0.00340181
-0.00671836
0.00352527
-0.00695492
0.0036513
-0.00719916
-0.00746177
0.00377797
2.35013e-05
-2.2352e-05
0.000107726
-0.000280303
0.00026528
-0.000728748
0.000499729
-0.00134097
0.000798927
-0.00206499
0.00113491
-0.00282594
0.00147324
-0.00354804
0.00178506
-0.00417834
0.00205409
-0.0046962
0.0022769
-0.00510803
0.00245906
-0.00543578
0.00261042
-0.00570594
0.00274126
-0.0059424
0.00286009
-0.00616324
0.00297296
-0.00638044
0.00308368
-0.00660113
0.00319451
-0.00682919
0.00330642
-0.00706683
0.00342065
-0.00731339
-0.00757646
0.00353534
2.77217e-05
-5.00736e-05
0.000123162
-0.000375743
0.000296615
-0.0009022
0.000546146
-0.0015905
0.000851737
-0.00237059
0.00117948
-0.00315369
0.00149464
-0.00386319
0.00177306
-0.00445676
0.00200503
-0.00492816
0.00219261
-0.00529561
0.00234457
-0.00558774
0.00247163
-0.005833
0.00258334
-0.00605411
0.0026868
-0.00626669
0.0027866
-0.00648023
0.00288542
-0.00669996
0.00298477
-0.00692853
0.00308521
-0.00716728
0.00318759
-0.00741576
-0.00767908
0.00329021
3.21772e-05
-8.22509e-05
0.000138826
-0.000482392
0.000326834
-0.00109021
0.000587551
-0.00185122
0.00089318
-0.00267621
0.00120601
-0.00346652
0.00149355
-0.00415073
0.00173764
-0.00470085
0.00193473
-0.00512526
0.00209117
-0.00545205
0.00221751
-0.00571408
0.00232429
-0.00593978
0.00241987
-0.00614969
0.00250987
-0.00635669
0.00259767
-0.00656803
0.00268509
-0.00678738
0.00277311
-0.00701654
0.00286207
-0.00725624
0.0029525
-0.00750619
-0.00776954
0.00304296
3.67939e-05
-0.000119045
0.00015433
-0.000599928
0.000354927
-0.00129081
0.000622329
-0.00211862
0.000921853
-0.00297574
0.00121445
-0.00375912
0.00147189
-0.00440816
0.00168236
-0.00491133
0.00184765
-0.00529055
0.00197702
-0.00558142
0.00208165
-0.00581871
0.00217127
-0.0060294
0.00225281
-0.00623123
0.00233059
-0.00643447
0.00240698
-0.00664442
0.00248324
-0.00686363
0.00255996
-0.00709327
0.00263737
-0.00733365
0.00271578
-0.0075846
-0.00784774
0.00279398
4.14819e-05
-0.000160527
0.000169245
-0.000727692
0.000379901
-0.00150146
0.000649182
-0.0023879
0.000937101
-0.00326366
0.00120567
-0.00402769
0.00143216
-0.00463465
0.00161085
-0.00509002
0.00174772
-0.00542742
0.00185373
-0.00568742
0.00193985
-0.00590484
0.00201459
-0.00610414
0.00208352
-0.00630016
0.00214981
-0.00650076
0.00221512
-0.00670973
0.00228028
-0.0069288
0.00234568
-0.00715867
0.00241146
-0.00739943
0.00247777
-0.00765091
-0.0079136
0.00254363
4.61374e-05
-0.000206664
0.000183125
-0.00086468
0.000400847
-0.00171918
0.000667221
-0.00265428
0.000938968
-0.0035354
0.00118116
-0.00426988
0.00137711
-0.00483061
0.00152648
-0.00523939
0.00163826
-0.0055392
0.0017241
-0.00577326
0.00179419
-0.00597492
0.00185569
-0.00616564
0.0019129
-0.00635737
0.00196813
-0.00655599
0.00202251
-0.00676411
0.00207659
-0.00698288
0.00213062
-0.0072127
0.0021847
-0.00745351
0.00223885
-0.00770507
-0.00796705
0.00229231
5.06461e-05
-0.00025731
0.000195525
-0.00100956
0.000417017
-0.00194067
0.000676007
-0.00291327
0.000928075
-0.00378747
0.00114279
-0.00448459
0.00130949
-0.0049973
0.00143224
-0.00536215
0.00152198
-0.00562893
0.00159027
-0.00584156
0.00164618
-0.00603083
0.00169554
-0.006215
0.00174161
-0.00640344
0.00178601
-0.00660039
0.00182951
-0.00680761
0.00187249
-0.00702585
0.0019151
-0.00725532
0.00195742
-0.00749582
0.00199938
-0.00774703
-0.00800805
0.00204038
5.4888e-05
-0.000312198
0.000206031
-0.0011607
0.000427864
-0.00216251
0.000675523
-0.00316093
0.000905462
-0.00401741
0.00109261
-0.00467174
0.00123185
-0.00513654
0.00133067
-0.00546097
0.00140101
-0.00569927
0.00145383
-0.00589438
0.00149691
-0.00607391
0.00153488
-0.00625298
0.00157014
-0.0064387
0.00160383
-0.00663407
0.00163646
-0.00684024
0.00166829
-0.00705769
0.00169945
-0.00728648
0.00172996
-0.00752632
0.00175971
-0.00777678
-0.00803657
0.00178823
5.87428e-05
-0.000370941
0.000214286
-0.00131625
0.000433073
-0.00238129
0.000666117
-0.00339397
0.000872431
-0.00422373
0.00103263
-0.00483194
0.00114646
-0.00525037
0.00122386
-0.00553837
0.00127704
-0.00575245
0.00131597
-0.00593331
0.00134717
-0.00610511
0.00137423
-0.00628003
0.00139887
-0.00646335
0.00142189
-0.00665709
0.00144364
-0.00686199
0.00146431
-0.00707836
0.00148399
-0.00730615
0.00150267
-0.007545
0.0015202
-0.00779432
-0.00805262
0.00153625
6.20959e-05
-0.000433037
0.000220007
-0.00147416
0.000432559
-0.00259384
0.000648415
-0.00360983
0.00083041
-0.00440572
0.000964781
-0.00496632
0.00105531
-0.0053409
0.00111353
-0.00559659
0.00115134
-0.00579026
0.00117757
-0.00595955
0.00119755
-0.00612509
0.00121399
-0.00629647
0.00122812
-0.00647749
0.00124049
-0.00666946
0.00125135
-0.00687285
0.00126084
-0.00708785
0.00126902
-0.00731434
0.00127587
-0.00755185
0.00128123
-0.00779967
-0.00805626
0.00128486
6.48431e-05
-0.00049788
0.000223003
-0.00163232
0.000426446
-0.00279729
0.00062323
-0.00380661
0.000780845
-0.00456333
0.00089079
-0.00507626
0.000960058
-0.00541017
0.00100102
-0.00563755
0.00102489
-0.00581412
0.00103929
-0.00597395
0.00104849
-0.00613428
0.00105449
-0.00630248
0.00105818
-0.00648117
0.00105991
-0.00667119
0.00105987
-0.00687281
0.00105817
-0.00708615
0.00105485
-0.00731102
0.0010499
-0.0075469
0.00104314
-0.00779292
-0.00804757
0.00103445
6.68955e-05
-0.000564776
0.000223177
-0.0017886
0.000415028
-0.00298914
0.000591483
-0.00398307
0.000725127
-0.00469698
0.00081219
-0.00516332
0.000862074
-0.00546005
0.000887397
-0.00566287
0.000898436
-0.00582516
0.00090164
-0.00597716
0.000900344
-0.00613299
0.000896032
-0.00629816
0.000889302
-0.00647444
0.000880405
-0.00666229
0.000869464
-0.00686187
0.000856563
-0.00707324
0.000841745
-0.0072962
0.000825005
-0.00753016
0.000806222
-0.00777413
-0.00802658
0.000785231
6.81834e-05
-0.000632959
0.000220522
-0.00194094
0.000398727
-0.00316734
0.000554133
-0.00413847
0.000664547
-0.00480739
0.000730296
-0.00522907
0.000762476
-0.00549223
0.000773491
-0.00567389
0.000772548
-0.00582422
0.000764999
-0.00596961
0.000753413
-0.0061214
0.000738861
-0.00628361
0.000721748
-0.00645733
0.00070224
-0.00664279
0.000680418
-0.00684005
0.000656333
-0.00704916
0.000630004
-0.00726987
0.000601448
-0.0075016
0.000570621
-0.00774331
-0.00799342
0.000537466
6.86579e-05
-0.000701617
0.000215116
-0.00208739
0.000378053
-0.00333028
0.000512129
-0.00427255
0.000600265
-0.00489553
0.000646222
-0.00527503
0.000662164
-0.00550817
0.000659948
-0.00567167
0.000647665
-0.00581194
0.000629682
-0.00595162
0.000607946
-0.00609967
0.000583216
-0.00625888
0.000555756
-0.00642987
0.000525669
-0.0066127
0.000493004
-0.00680738
0.000457784
-0.00701394
0.000420002
-0.00723209
0.000379622
-0.00746122
0.000336482
-0.00770017
-0.00794798
0.000291037
6.82917e-05
-0.000769909
0.000207106
-0.00222621
0.000353557
-0.00347673
0.000466373
-0.00438536
0.000533301
-0.00496246
0.000560893
-0.00530262
0.000561856
-0.00550914
0.000547273
-0.00565709
0.000524134
-0.0057888
0.000495948
-0.00592344
0.000464168
-0.00606789
0.000429316
-0.00622403
0.000391559
-0.00639211
0.000350943
-0.00657208
0.000307483
-0.00676392
0.000261188
-0.00696765
0.000212136
-0.00718304
0.000160099
-0.00740918
0.000104868
-0.00764494
-0.00788766
4.45536e-05
6.70791e-05
-0.000836988
0.000196691
-0.00235582
0.000325809
-0.00360585
0.000417696
-0.00447725
0.000464539
-0.0050093
0.000475072
-0.00531315
0.000462123
-0.00549619
0.000435859
-0.00563083
0.000402232
-0.00575517
0.00036402
-0.00588522
0.000322286
-0.00602615
0.000277371
-0.00617912
0.000229372
-0.00634411
0.000178319
-0.00652103
0.000124107
-0.00670971
6.67666e-05
-0.0069103
6.20133e-06
-0.00712247
-5.69949e-05
-0.00734599
-0.000123792
-0.00757814
-0.00781642
-0.000195032
6.5034e-05
-0.000902022
0.000184106
-0.00247489
0.000295367
-0.00371711
0.00036685
-0.00454873
0.000394731
-0.00503718
0.00038938
-0.0053078
0.000363415
-0.00547022
0.000326018
-0.00559343
0.000282191
-0.00571134
0.000234093
-0.00583713
0.000182486
-0.00597454
0.000127581
-0.00612421
6.93666e-05
-0.0062859
7.82024e-06
-0.00645948
-5.6873e-05
-0.00664502
-0.00012499
-0.00684219
-0.000196388
-0.00705108
-0.000271373
-0.007271
-0.000350061
-0.00749945
-0.00773436
-0.000432122
6.21886e-05
-0.00096421
0.000169606
-0.00258231
0.000262763
-0.00381027
0.0003145
-0.00460047
0.000324511
-0.00504719
0.00030432
-0.00528761
0.00026609
-0.00543199
0.000218003
-0.00554534
0.000164201
-0.00565754
0.000106334
-0.00577926
4.48837e-05
-0.00591309
-1.99598e-05
-0.00605937
-8.81226e-05
-0.00621774
-0.000159773
-0.00638783
-0.000235087
-0.0065697
-0.000313976
-0.0067633
-0.000396465
-0.00696859
-0.000482697
-0.00718477
-0.000572717
-0.00740943
-0.00764069
-0.000666389
5.85941e-05
-0.0010228
0.000153487
-0.0026772
0.0002285
-0.00388528
0.000261231
-0.0046332
0.000254408
-0.00504037
0.000220295
-0.0052535
0.000170427
-0.00538212
0.000112033
-0.00548695
4.83599e-05
-0.00559387
-1.92002e-05
-0.0057117
-9.01811e-05
-0.00584211
-0.000164733
-0.00598481
-0.000242926
-0.00613954
-0.000324777
-0.00630598
-0.00041044
-0.00648404
-0.000499964
-0.00667377
-0.00059338
-0.00687517
-0.000690713
-0.00708744
-0.000791968
-0.00730818
-0.00753549
-0.000897174
5.43151e-05
-0.00107712
0.00013603
-0.00275892
0.000193036
-0.00394229
0.000207549
-0.00464771
0.000184861
-0.00501768
0.000137634
-0.00520627
7.66377e-05
-0.00532113
7.99431e-06
-0.0054183
-6.50392e-05
-0.00552084
-0.000141972
-0.00563477
-0.000222621
-0.00576146
-0.000306899
-0.00590054
-0.000394923
-0.00605152
-0.000486804
-0.0062141
-0.000582682
-0.00638816
-0.000682675
-0.00657378
-0.000786829
-0.00677102
-0.000895126
-0.00697914
-0.00100751
-0.0071958
-0.00741893
-0.00112406
4.94266e-05
-0.00112655
0.000117501
-0.00282699
0.000156788
-0.00398157
0.000153889
-0.00464481
0.000116228
-0.00498002
5.65876e-05
-0.00514663
-1.51482e-05
-0.00524939
-9.3203e-05
-0.00534025
-0.000175845
-0.00543819
-0.000262237
-0.00554838
-0.000352336
-0.00567137
-0.000446187
-0.00580668
-0.000543906
-0.0059538
-0.000645647
-0.00611236
-0.000751579
-0.00628223
-0.000861862
-0.0064635
-0.000976577
-0.0066563
-0.00109569
-0.00686003
-0.00121905
-0.00707243
-0.00729129
-0.00134669
4.40129e-05
-0.00117056
9.81614e-05
-0.00288114
0.000120132
-0.00400354
0.000100603
-0.00462528
4.88082e-05
-0.00492823
-2.26163e-05
-0.00507521
-0.000104404
-0.0051676
-0.000192142
-0.00525251
-0.000284071
-0.00534626
-0.000379745
-0.0054527
-0.000479162
-0.00557195
-0.000582431
-0.00570342
-0.000689691
-0.00584654
-0.00080112
-0.00600093
-0.000916918
-0.00616643
-0.00103729
-0.00634313
-0.00116236
-0.00653123
-0.00129211
-0.00673027
-0.00142629
-0.00693826
-0.00715281
-0.00156477
3.81608e-05
-0.00120872
7.82698e-05
-0.00292125
8.34051e-05
-0.00400868
4.80198e-05
-0.0045899
-1.70993e-05
-0.00486311
-9.96891e-05
-0.00499262
-0.000191453
-0.00507584
-0.000288519
-0.00515545
-0.000389573
-0.00524521
-0.000494363
-0.00534791
-0.00060295
-0.00546336
-0.000715477
-0.00559089
-0.000832108
-0.00572991
-0.00095304
-0.00588
-0.0010785
-0.00604097
-0.00120873
-0.0062129
-0.00134393
-0.00639603
-0.00148413
-0.00659008
-0.00162892
-0.00679346
-0.00700373
-0.00177801
3.1951e-05
-0.00124067
5.80633e-05
-0.00294736
4.69244e-05
-0.00399754
-2.98618e-06
-0.00453999
-8.12881e-05
-0.0047848
-0.000174701
-0.00489921
-0.000276064
-0.00497448
-0.000382227
-0.00504928
-0.000492234
-0.0051352
-0.000605975
-0.00523417
-0.000723566
-0.00534577
-0.000845178
-0.00546928
-0.000970998
-0.00560409
-0.00110124
-0.00574976
-0.00123615
-0.00590606
-0.001376
-0.00607305
-0.00152107
-0.00625095
-0.00167147
-0.00643968
-0.00182669
-0.00663824
-0.00684435
-0.00198607
2.54906e-05
-0.00126616
3.77264e-05
-0.0029596
1.13819e-05
-0.0039712
-5.4062e-05
-0.00447455
-0.0001439
-0.00469497
-0.000247492
-0.00479561
-0.000358133
-0.00486384
-0.000473176
-0.00493424
-0.000591953
-0.00501643
-0.000714466
-0.00511166
-0.00084088
-0.00521935
-0.000971392
-0.00533877
-0.00110621
-0.00546927
-0.00124555
-0.00561042
-0.00138968
-0.00576193
-0.00153889
-0.00592384
-0.00169357
-0.00609627
-0.00185392
-0.00627933
-0.00201929
-0.00647287
-0.00667516
-0.00218848
1.8939e-05
-0.0012851
1.75109e-05
-0.00295817
-2.47889e-05
-0.0039289
-0.000103292
-0.00439604
-0.000204581
-0.00459368
-0.000317956
-0.00468224
-0.000437575
-0.00474422
-0.00056128
-0.00481053
-0.000688632
-0.00488907
-0.000819726
-0.00498056
-0.00095477
-0.00508431
-0.00109398
-0.00519955
-0.00123759
-0.00532567
-0.00138582
-0.00546218
-0.00153893
-0.00560882
-0.00169725
-0.00576552
-0.00186122
-0.00593229
-0.00203121
-0.00610934
-0.0022064
-0.00629769
-0.00649663
-0.00238492
1.22017e-05
-0.0012973
-9.98375e-07
-0.00294497
-5.98642e-05
-0.00387003
-0.000151204
-0.0043047
-0.000263261
-0.00448162
-0.000386016
-0.00455948
-0.000514324
-0.00461591
-0.000646462
-0.0046784
-0.00078218
-0.00475336
-0.00092165
-0.00484109
-0.00106512
-0.00494084
-0.00121282
-0.00505185
-0.00136501
-0.00517348
-0.00152192
-0.00530528
-0.00168377
-0.00544696
-0.00185091
-0.00559839
-0.00202383
-0.00575937
-0.00220305
-0.00593012
-0.00238783
-0.0061129
-0.0063087
-0.00257577
4.89312e-06
-0.0013022
-2.32927e-05
-0.00291678
-9.41265e-05
-0.0037992
-0.000197555
-0.00420127
-0.000319855
-0.00435932
-0.000451597
-0.00442774
-0.000588311
-0.0044792
-0.000728645
-0.00453806
-0.000872508
-0.00460949
-0.00102013
-0.00469347
-0.0011718
-0.00478918
-0.00132778
-0.00489586
-0.00148834
-0.00501292
-0.00165371
-0.00513991
-0.00182412
-0.00527655
-0.00199985
-0.00542266
-0.00218139
-0.00557783
-0.00236933
-0.00574218
-0.00256344
-0.0059188
-0.0061114
-0.00276073
-2.48555e-06
-0.00129971
-4.34988e-05
-0.00287577
-0.000127363
-0.00371533
-0.00024222
-0.00408642
-0.000374264
-0.00422728
-0.000514636
-0.00428737
-0.000659475
-0.00433436
-0.000807759
-0.00438978
-0.000959529
-0.00445772
-0.00111507
-0.00453792
-0.00127471
-0.00462954
-0.00143873
-0.00473184
-0.00160743
-0.00484422
-0.00178106
-0.00496628
-0.00195988
-0.00509774
-0.00214416
-0.00523837
-0.00233432
-0.00538767
-0.00253068
-0.00554582
-0.0027323
-0.00571717
-0.00590625
-0.00293746
-9.28508e-06
-0.00129042
-6.2963e-05
-0.00282209
-0.00015943
-0.00361887
-0.000285143
-0.0039607
-0.000426438
-0.00408598
-0.000575082
-0.00413872
-0.00072776
-0.00418168
-0.000883736
-0.0042338
-0.00104316
-0.0042983
-0.00120638
-0.00437471
-0.00137372
-0.00446219
-0.00154554
-0.00456003
-0.00172212
-0.00466764
-0.00190378
-0.00478462
-0.00209083
-0.00491069
-0.00228368
-0.00504552
-0.00248271
-0.00518864
-0.0026882
-0.00534033
-0.00290017
-0.00550521
-0.00570164
-0.00310478
-1.6191e-05
-0.00127423
-8.17949e-05
-0.00275649
-0.000190254
-0.00351041
-0.000326253
-0.0038247
-0.000476328
-0.00393591
-0.000632889
-0.00398216
-0.000793114
-0.00402145
-0.000956511
-0.00407041
-0.00112333
-0.00413148
-0.00129394
-0.0042041
-0.00146873
-0.0042874
-0.00164806
-0.0043807
-0.00183225
-0.00448344
-0.00202164
-0.00459523
-0.00221662
-0.00471572
-0.00241769
-0.00484445
-0.00262523
-0.0049811
-0.00283867
-0.0051269
-0.00305823