/*--------------------------------*- C++ -*----------------------------------*\
  =========                 |
  \\      /  F ield         | OpenFOAM: The Open Source CFD Toolbox
   \\    /   O peration     | Website:  https://openfoam.org
    \\  /    A nd           | Version:  7
     \\/     M anipulation  |
\*---------------------------------------------------------------------------*/
FoamFile
{
    version     2.0;
    format      ascii;
    class       volVectorField;
    location    "20.001";
    object      U;
}
// * * * * * * * * * * * * * * * * * * * * * * * * * * * * * * * * * * * * * //

dimensions      [0 1 -1 0 0 0 0];

internalField   nonuniform List<vector> 
45600
(
(-0.00146398 0.0012726 4.71853e-21)
(-0.00795849 0.00286099 -1.70593e-20)
(-0.0194632 0.00380624 -1.40808e-21)
(-0.0326469 0.00432822 -2.61769e-21)
(-0.0465404 0.0045616 -1.52179e-20)
(-0.0604679 0.00460586 -1.46042e-20)
(-0.0739901 0.00453132 -2.71665e-21)
(-0.0868748 0.0043851 5.82286e-21)
(-0.0990074 0.00419699 2.45927e-21)
(-0.110339 0.00398427 3.55873e-21)
(-0.120855 0.00375579 9.1666e-21)
(-0.130554 0.00351548 1.2718e-20)
(-0.139437 0.00326555 -1.12971e-21)
(-0.147512 0.00300936 -6.06715e-21)
(-0.154791 0.00275431 2.25792e-20)
(-0.161313 0.00251477 2.02817e-21)
(-0.167161 0.00231397 -9.30034e-21)
(-0.172465 0.00218048 -9.60091e-21)
(-0.177412 0.00214832 9.64294e-22)
(-0.182439 0.00228182 2.48999e-21)
(-0.00163466 0.00378869 -3.6523e-20)
(-0.00826951 0.00852494 -3.22208e-20)
(-0.0197429 0.0113486 1.25699e-20)
(-0.0328045 0.0129104 -1.33759e-20)
(-0.046513 0.0136105 -1.07061e-20)
(-0.0602096 0.0137452 -3.06694e-20)
(-0.0734656 0.0135241 1.75132e-20)
(-0.0860537 0.0130881 -1.48323e-20)
(-0.0978613 0.0125264 4.57123e-21)
(-0.10884 0.0118909 -2.50966e-20)
(-0.118974 0.0112081 -1.93997e-20)
(-0.12826 0.0104895 -9.06163e-21)
(-0.136696 0.00974112 -3.41219e-20)
(-0.144284 0.00897191 2.71337e-20)
(-0.151028 0.00820229 -2.52969e-20)
(-0.156952 0.00747326 -2.58834e-20)
(-0.162123 0.00685327 -2.91368e-21)
(-0.166652 0.00643037 2.48199e-20)
(-0.170674 0.00630927 -5.41482e-21)
(-0.174636 0.00668555 -3.03743e-20)
(-0.00196954 0.00621864 4.77645e-20)
(-0.00888172 0.0140167 -1.2427e-20)
(-0.0202951 0.0186821 -5.6433e-20)
(-0.0331166 0.0212711 2.5914e-20)
(-0.0464588 0.0224376 2.54133e-20)
(-0.059697 0.0226678 1.15719e-20)
(-0.0724229 0.0223076 -1.67012e-20)
(-0.0844194 0.0215898 5.7876e-21)
(-0.0955781 0.0206625 5.28587e-20)
(-0.105851 0.0196122 5.0978e-20)
(-0.11522 0.0184831 4.22486e-21)
(-0.123679 0.0172939 -2.36313e-21)
(-0.131221 0.0160526 7.51543e-21)
(-0.137837 0.0147705 -1.71892e-20)
(-0.143515 0.0134759 -7.52521e-21)
(-0.148253 0.0122299 -3.07642e-20)
(-0.152089 0.0111414 4.63736e-20)
(-0.155099 0.0103639 -2.91055e-20)
(-0.157313 0.0100809 1.3787e-20)
(-0.159147 0.0106218 5.25243e-20)
(-0.00245615 0.00850963 2.42957e-20)
(-0.00977604 0.0192288 1.45559e-20)
(-0.0211055 0.0256745 9.86776e-20)
(-0.0335763 0.0292678 2.34279e-20)
(-0.0463785 0.0308981 5.57628e-20)
(-0.0589371 0.0312312 1.98396e-20)
(-0.0708738 0.0307428 -5.49415e-20)
(-0.0819868 0.0297553 -3.38043e-20)
(-0.0921737 0.0284748 -1.06756e-21)
(-0.101387 0.0270226 -4.57723e-20)
(-0.109608 0.0254607 1.00669e-20)
(-0.116823 0.0238144 -1.83759e-21)
(-0.123019 0.0220918 3.58739e-20)
(-0.128176 0.0203018 -1.08667e-20)
(-0.132261 0.018473 1.00619e-19)
(-0.135241 0.0166754 8.82342e-20)
(-0.137108 0.0150476 4.41717e-20)
(-0.137902 0.013813 -1.28831e-20)
(-0.137515 0.0132486 -3.41259e-20)
(-0.136134 0.0137996 -2.91071e-20)
(-0.00307695 0.0106155 -5.97422e-20)
(-0.0109254 0.0240647 5.69332e-20)
(-0.0221539 0.0322036 4.92144e-20)
(-0.0341737 0.0367658 9.46139e-21)
(-0.0462725 0.0388528 -1.06877e-19)
(-0.0579389 0.0392953 -3.18983e-20)
(-0.0688336 0.0386914 -8.14986e-21)
(-0.0787747 0.0374489 2.77175e-20)
(-0.0876682 0.0358311 2.58774e-20)
(-0.0954678 0.0339937 -3.4961e-20)
(-0.10215 0.0320173 -8.94763e-20)
(-0.107697 0.0299339 1.42546e-19)
(-0.112086 0.0277501 -5.97421e-20)
(-0.115285 0.0254681 -1.506e-20)
(-0.117243 0.0231076 -7.44417e-20)
(-0.117892 0.0207328 -4.87619e-20)
(-0.117169 0.018492 -1.34389e-19)
(-0.115086 0.0166726 2.74258e-20)
(-0.111438 0.0156721 -1.17632e-20)
(-0.105662 0.0159674 -8.04462e-20)
(-0.00381068 0.0124988 6.77532e-20)
(-0.0122963 0.0284419 -2.33493e-20)
(-0.0234142 0.0381606 -1.52837e-19)
(-0.0348948 0.0436413 -8.3091e-20)
(-0.046139 0.0461697 7.83734e-20)
(-0.0567104 0.0467247 5.26348e-20)
(-0.0663174 0.0460169 -4.86478e-20)
(-0.0748021 0.0445349 -4.6409e-20)
(-0.0820803 0.042597 -2.79719e-20)
(-0.0881065 0.0403936 1.08932e-19)
(-0.092852 0.0380248 -9.7946e-21)
(-0.0962909 0.0355302 -7.29527e-20)
(-0.0983903 0.0329151 6.04708e-20)
(-0.0991043 0.0301722 9.66132e-20)
(-0.0983674 0.0273049 -2.78219e-20)
(-0.0960833 0.0243564 1.15054e-19)
(-0.0921263 0.0214548 4.48143e-20)
(-0.0864729 0.0189157 -2.14255e-20)
(-0.0790749 0.0173175 6.13825e-20)
(-0.0675519 0.0170435 4.17144e-20)
(-0.00463388 0.0141323 -1.24223e-19)
(-0.013851 0.0322953 8.52762e-20)
(-0.024856 0.0434534 1.47913e-20)
(-0.0357213 0.0497837 3.60575e-20)
(-0.0459719 0.0527263 3.2967e-20)
(-0.0552559 0.0533898 -5.60014e-20)
(-0.0633353 0.052586 9.32361e-20)
(-0.0700808 0.0508782 2.2803e-21)
(-0.0754187 0.0486369 -2.63015e-20)
(-0.0793029 0.0460874 -1.67551e-20)
(-0.0816969 0.0433502 2.81929e-20)
(-0.0825626 0.0404749 6.69471e-20)
(-0.0818529 0.0374672 2.76614e-20)
(-0.0795059 0.0343113 -6.81051e-20)
(-0.0754404 0.0309915 2.94759e-20)
(-0.0695441 0.027519 -8.17586e-20)
(-0.0616335 0.0239742 -6.94859e-20)
(-0.0515564 0.0206212 2.34483e-20)
(-0.0399854 0.018219 4.55026e-20)
(-0.0213841 0.017443 -7.01559e-20)
(-0.00552265 0.0154999 -3.12976e-20)
(-0.0155494 0.0355782 2.85902e-21)
(-0.0264448 0.0480086 -2.50613e-20)
(-0.0366295 0.0550984 -5.63527e-21)
(-0.0457581 0.0584126 7.61345e-20)
(-0.0535696 0.05917 1.02196e-19)
(-0.0598854 0.0582711 7.52633e-20)
(-0.0646063 0.0563469 1.37124e-19)
(-0.0676698 0.0538169 3.48502e-20)
(-0.0690264 0.05094 -5.5847e-20)
(-0.068627 0.0478587 5.03363e-20)
(-0.066415 0.0446352 -9.4533e-20)
(-0.0623213 0.0412799 -1.45986e-19)
(-0.056261 0.0377728 1.4528e-19)
(-0.0481308 0.034083 -7.5889e-20)
(-0.0378074 0.0301902 1.1721e-19)
(-0.0250999 0.0261253 9.29214e-20)
(-0.00954135 0.0220542 1.04648e-19)
(0.00709775 0.0184946 -2.10612e-19)
(0.0337275 0.0173988 -2.60741e-21)
(-0.00645438 0.016597 1.38556e-19)
(-0.0173511 0.0382639 -3.91597e-20)
(-0.0281424 0.0517734 -1.61654e-19)
(-0.037588 0.059509 1.7164e-20)
(-0.0454725 0.0631334 -1.25785e-21)
(-0.0516297 0.0639561 4.96251e-20)
(-0.0559429 0.0629536 -6.77905e-20)
(-0.0583443 0.0608164 -7.16814e-20)
(-0.0587804 0.0580086 -1.72001e-20)
(-0.0571941 0.0548213 6.58057e-20)
(-0.0535165 0.05142 -1.57606e-19)
(-0.0476627 0.0478821 7.69699e-20)
(-0.0395307 0.0442275 9.32777e-20)
(-0.0290005 0.04044 1.65009e-19)
(-0.0159332 0.0364833 4.33689e-20)
(-0.000173696 0.032319 5.68547e-20)
(0.0184143 0.0279507 1.52191e-21)
(0.0406617 0.023361 -4.25781e-20)
(0.0633809 0.0188079 2.17548e-19)
(0.100414 0.0170384 -6.07545e-20)
(-0.00740922 0.0174296 7.89747e-20)
(-0.019217 0.040345 5.46525e-20)
(-0.0299072 0.0547157 4.56415e-20)
(-0.0385551 0.0629588 5.59405e-20)
(-0.0450727 0.066811 -7.98636e-20)
(-0.0493883 0.0676545 3.48465e-20)
(-0.0514474 0.0665288 1.74027e-19)
(-0.0512121 0.0641752 -2.3406e-19)
(-0.0486334 0.0610971 -7.4178e-20)
(-0.0436396 0.0576162 -1.62349e-19)
(-0.0361319 0.0539207 2.22875e-19)
(-0.0259851 0.0501064 -2.09498e-19)
(-0.0130493 0.0462072 2.67397e-20)
(0.00284511 0.0422187 -2.42517e-20)
(0.0218852 0.0381124 -3.04558e-19)
(0.0442981 0.0338498 -9.19471e-20)
(0.070008 0.0294262 -1.41507e-19)
(0.100841 0.0246738 7.85534e-21)
(0.130147 0.0197441 -1.10644e-19)
(0.181066 0.017158 1.62541e-19)
(-0.00837131 0.0180134 -1.25485e-19)
(-0.0211105 0.0418318 7.46357e-20)
(-0.0316921 0.0568243 -1.41825e-19)
(-0.0394749 0.0654125 1.03042e-19)
(-0.0444908 0.0693884 -8.10088e-20)
(-0.0467596 0.0701916 -5.25619e-20)
(-0.0462855 0.0689118 -3.15103e-19)
(-0.0430555 0.0663325 2.1288e-19)
(-0.0370173 0.0629914 1.67645e-19)
(-0.0280736 0.0592376 -2.10294e-20)
(-0.0160831 0.0552829 2.95218e-20)
(-0.000865538 0.0512433 1.01633e-19)
(0.0177915 0.0471719 -1.64111e-19)
(0.0401209 0.0430835 -6.47657e-20)
(0.0663562 0.0389673 1.00082e-19)
(0.0968712 0.0348111 2.083e-19)
(0.131015 0.0305838 1.52581e-20)
(0.172797 0.0262622 -1.32878e-19)
(0.208945 0.0213135 1.23729e-19)
(0.27771 0.0189243 -1.2087e-19)
(-0.00932938 0.0183714 1.20777e-19)
(-0.0229971 0.0427497 5.13035e-20)
(-0.0334434 0.0581074 1.11771e-19)
(-0.0402717 0.066856 -1.25723e-19)
(-0.0436243 0.0708319 -1.93082e-19)
(-0.0436054 0.0715185 -1.46511e-19)
(-0.0402704 0.0700451 5.54174e-20)
(-0.0336209 0.0672291 1.16398e-19)
(-0.0235891 0.0636374 -2.20209e-19)
(-0.0100374 0.059645 9.83979e-20)
(0.00723356 0.0554874 7.37888e-21)
(0.0284732 0.0513044 -1.1277e-19)
(0.0539668 0.0471732 -2.44702e-19)
(0.0840152 0.0431343 1.9599e-19)
(0.118859 0.0391974 1.32614e-19)
(0.159136 0.0354313 -2.29017e-19)
(0.202989 0.0315952 1.98513e-19)
(0.258217 0.0285235 -2.38267e-21)
(0.301055 0.0236371 -2.36896e-19)
(0.391249 0.0231267 -6.79575e-20)
(-0.0102767 0.0185319 -9.49016e-20)
(-0.0248436 0.0431361 1.20086e-19)
(-0.0350964 0.0585902 4.01178e-20)
(-0.0408433 0.0672974 3.90516e-21)
(-0.0423249 0.0711339 3.19252e-19)
(-0.039719 0.0716172 2.13489e-19)
(-0.0331184 0.0699074 -1.08295e-19)
(-0.0225242 0.0668494 -8.95287e-20)
(-0.0078353 0.0630356 1.47181e-19)
(0.0111437 0.0588661 1.93815e-19)
(0.0346859 0.0546027 -1.19493e-19)
(0.0631184 0.0504131 3.88036e-19)
(0.0967936 0.0464042 1.38715e-19)
(0.136063 0.0426498 -2.68537e-19)
(0.181073 0.0391629 2.86138e-20)
(0.232835 0.036217 5.61501e-20)
(0.287526 0.0329137 -1.22795e-20)
(0.358106 0.0320722 1.6556e-19)
(0.407221 0.0271596 1.28821e-19)
(0.520258 0.030201 1.24759e-19)
(-0.0112104 0.0185255 7.70079e-20)
(-0.0266154 0.0430355 -2.74995e-19)
(-0.0365711 0.0583118 -3.60981e-19)
(-0.0410531 0.0667657 8.14875e-20)
(-0.0403869 0.0703158 -1.96882e-19)
(-0.0348073 0.0705064 -3.27597e-20)
(-0.0244256 0.0685236 1.62065e-19)
(-0.00922091 0.0652358 -2.60002e-20)
(0.0109624 0.0612594 2.06035e-19)
(0.0363955 0.0570215 -1.18506e-19)
(0.067433 0.0528144 9.5696e-20)
(0.104469 0.0488392 -3.65192e-19)
(0.147885 0.0452367 -1.06496e-19)
(0.198015 0.0421224 -1.1016e-19)
(0.254748 0.0394636 1.79936e-19)
(0.319402 0.0379159 -9.21205e-21)
(0.385788 0.0353759 -1.51494e-19)
(0.471842 0.0375976 -1.28135e-19)
(0.526961 0.0327661 -1.15489e-19)
(0.659918 0.0403297 -5.59864e-20)
(-0.0121296 0.0183818 2.39198e-19)
(-0.0282726 0.0424945 4.1221e-20)
(-0.0377651 0.0573202 8.13936e-20)
(-0.0407231 0.0653133 -3.03371e-20)
(-0.0375345 0.0684298 2.67707e-20)
(-0.0284749 0.0682468 -1.2544e-19)
(-0.0136475 0.0659745 1.44758e-19)
(0.00701618 0.0625033 -2.06235e-19)
(0.0337472 0.0584752 2.45615e-19)
(0.066901 0.0543491 -4.53803e-21)
(0.1069 0.0504533 -2.90569e-19)
(0.154155 0.0470258 8.01167e-20)
(0.208974 0.04424 1.84834e-19)
(0.27152 0.0422535 1.31862e-19)
(0.341223 0.0409253 -2.34179e-19)
(0.419256 0.0413574 -1.30362e-19)
(0.497612 0.0401101 1.39978e-20)
(0.596329 0.0455943 1.32505e-19)
(0.657431 0.0414295 1.42631e-19)
(0.801786 0.0533538 -1.77339e-19)
(-0.013034 0.0181265 -3.18581e-19)
(-0.0297665 0.0415572 2.14455e-19)
(-0.0385503 0.0556775 -1.20932e-19)
(-0.0396206 0.063008 3.05068e-20)
(-0.0334126 0.0655578 2.14128e-19)
(-0.0202116 0.0649462 1.28168e-19)
(-8.64336e-05 0.0624061 -1.95376e-19)
(0.0271039 0.0588529 1.42063e-19)
(0.0616771 0.05496 -3.8911e-19)
(0.104056 0.0512237 2.17294e-20)
(0.15467 0.0480112 2.14356e-19)
(0.213826 0.0455945 -3.4279e-20)
(0.281569 0.044164 -2.00628e-19)
(0.357608 0.0438892 -8.8533e-20)
(0.440714 0.0445035 -6.23973e-21)
(0.531072 0.0472688 1.63927e-19)
(0.620381 0.0481344 5.16239e-20)
(0.72584 0.0561995 2.08036e-19)
(0.792404 0.0535577 5.94325e-20)
(0.935184 0.0684764 -8.05845e-20)
(-0.0139205 0.0177794 -1.23284e-19)
(-0.0310319 0.0402658 -3.43024e-19)
(-0.0387658 0.053446 2.29112e-19)
(-0.0374583 0.0599305 2.70258e-20)
(-0.0275772 0.0618161 -1.74257e-20)
(-0.00938726 0.060764 -3.50253e-20)
(0.0171052 0.0580366 -5.28277e-20)
(0.0521283 0.0545817 9.46869e-20)
(0.0960698 0.0511116 -2.25321e-19)
(0.149353 0.0481624 -5.12297e-20)
(0.212274 0.0461348 -2.47026e-19)
(0.284815 0.0453144 2.61369e-19)
(0.366453 0.0458693 1.43717e-19)
(0.456061 0.047893 -1.22479e-19)
(0.551541 0.0510485 -1.73672e-20)
(0.651305 0.0561481 -1.30704e-20)
(0.748331 0.0598117 -3.36267e-20)
(0.852752 0.0690894 -5.76228e-20)
(0.922503 0.0685754 1.85338e-19)
(1.04987 0.0841603 3.79751e-19)
(-0.0147802 0.0173529 5.68736e-20)
(-0.0319857 0.0386522 2.76298e-19)
(-0.0382076 0.0506826 1.66884e-19)
(-0.0338867 0.0561817 7.78212e-20)
(-0.0194976 0.0573538 -1.01913e-19)
(0.00473998 0.0559125 -5.11098e-20)
(0.0389007 0.0531602 2.65117e-21)
(0.0832876 0.050087 -1.04901e-19)
(0.13829 0.0474475 -2.99755e-20)
(0.20418 0.045811 2.00031e-19)
(0.280873 0.0455871 2.36939e-19)
(0.367681 0.0470219 -7.97099e-20)
(0.463122 0.0501879 -1.32652e-19)
(0.564851 0.0549665 2.62596e-19)
(0.66968 0.0609899 2.5443e-19)
(0.774164 0.0681127 1.45566e-19)
(0.873117 0.07456 -1.32478e-19)
(0.968914 0.0834067 3.25252e-20)
(1.03739 0.0850693 -2.45971e-20)
(1.13879 0.0985035 -3.21228e-19)
(-0.0155951 0.0168492 3.88906e-19)
(-0.0325191 0.0367345 -1.11964e-19)
(-0.0366314 0.0474467 -1.58553e-19)
(-0.0284933 0.0518752 -1.60003e-19)
(-0.00856297 0.0523511 -1.34941e-19)
(0.0230018 0.0506562 2.18952e-19)
(0.0663496 0.0481459 9.93009e-20)
(0.121794 0.0458586 -2.43841e-19)
(0.189572 0.0445853 1.63927e-19)
(0.269542 0.0449016 -9.14979e-20)
(0.360863 0.0471647 -1.31127e-19)
(0.461742 0.0514861 5.44647e-20)
(0.56934 0.0577285 5.92213e-20)
(0.679879 0.0654339 -1.37181e-19)
(0.789032 0.0741216 -1.32976e-19)
(0.892274 0.0827006 -8.9919e-20)
(0.985829 0.0909826 -9.54533e-20)
(1.0674 0.0979339 2.28421e-20)
(1.12906 0.101411 7.31666e-20)
(1.19971 0.109881 1.19201e-19)
(-0.0163307 0.0162568 -9.02496e-20)
(-0.0324961 0.0345237 -2.03576e-19)
(-0.0337502 0.0437985 2.42039e-19)
(-0.020809 0.0471366 -2.11388e-19)
(0.00590064 0.0470182 1.42641e-19)
(0.04628 0.0453097 -1.93328e-19)
(0.100497 0.0434293 -2.11473e-19)
(0.168731 0.0424611 5.1085e-19)
(0.250798 0.0432054 2.58133e-20)
(0.345742 0.0461777 -1.21258e-19)
(0.451497 0.0515755 -2.28863e-19)
(0.564735 0.0592388 -6.01553e-20)
(0.681024 0.0686831 -2.89925e-19)
(0.795285 0.079049 8.50285e-20)
(0.902453 0.0896102 3.93123e-20)
(0.998137 0.0988214 -3.56112e-20)
(1.07957 0.107309 2.64098e-19)
(1.14424 0.111615 -7.05848e-20)
(1.19416 0.116251 6.21552e-20)
(1.23485 0.117101 -1.6551e-19)
(-0.0169377 0.0155642 1.18731e-19)
(-0.0317447 0.0320237 5.79952e-21)
(-0.0292359 0.0397952 4.03892e-20)
(-0.010319 0.0421039 7.69253e-20)
(0.0246036 0.0415944 9.21907e-20)
(0.07545 0.0402328 1.42512e-19)
(0.142281 0.039501 6.74424e-20)
(0.22488 0.0405052 -1.55863e-19)
(0.322237 0.0439891 3.51605e-20)
(0.432078 0.0502908 -7.49025e-21)
(0.550633 0.0592924 1.4861e-19)
(0.672785 0.0704093 -6.20335e-20)
(0.792656 0.0827065 7.19153e-20)
(0.904445 0.0949575 -7.52877e-21)
(1.00329 0.106203 -2.42455e-19)
(1.08602 0.115003 1.73835e-20)
(1.15123 0.122035 -1.7405e-19)
(1.1992 0.123991 -1.96949e-20)
(1.23418 0.12812 -4.83192e-20)
(1.25021 0.119261 7.92442e-20)
(-0.0173592 0.0147548 -8.81946e-20)
(-0.0300613 0.0292284 1.40628e-20)
(-0.0227215 0.0354987 3.32229e-19)
(0.00352189 0.0369317 -1.68422e-19)
(0.0482548 0.0363504 8.62579e-20)
(0.111309 0.0358262 -1.43898e-19)
(0.192404 0.0368874 -1.3057e-19)
(0.290532 0.0406025 -1.20194e-19)
(0.403322 0.0475373 -2.36386e-19)
(0.52665 0.0576797 2.61977e-19)
(0.654737 0.0704179 2.17982e-19)
(0.780816 0.0846298 4.95695e-20)
(0.898203 0.0989371 1.85852e-19)
(1.00139 0.111899 -1.31893e-19)
(1.08686 0.122553 2.59028e-20)
(1.1534 0.129864 2.22079e-19)
(1.20164 0.134491 -4.30015e-20)
(1.23463 0.134742 -8.04412e-20)
(1.25408 0.135271 5.4945e-20)
(1.26455 0.127674 -3.41934e-19)
(-0.0175203 0.0138055 -3.306e-19)
(-0.0272173 0.0261366 -1.67641e-19)
(-0.0138119 0.030982 -4.11624e-19)
(0.021269 0.031797 -3.20002e-20)
(0.0775194 0.0315879 -1.29173e-19)
(0.154494 0.0325218 -4.0784e-20)
(0.251203 0.0361239 8.67942e-20)
(0.365308 0.0433075 4.19295e-19)
(0.492488 0.0542761 -4.25223e-19)
(0.626373 0.0684602 1.35916e-19)
(0.759255 0.0846112 -1.64826e-19)
(0.883377 0.101073 -1.29058e-19)
(0.992342 0.116186 -1.80066e-19)
(1.08211 0.128569 -4.67009e-20)
(1.15135 0.137548 1.17674e-19)
(1.20111 0.14261 -4.54215e-20)
(1.23416 0.144799 -1.88233e-20)
(1.25418 0.142931 -7.24406e-20)
(1.26426 0.141632 1.75469e-19)
(1.26934 0.133559 2.58158e-19)
(-0.0173303 0.0126955 2.4651e-20)
(-0.0229592 0.0227573 3.19706e-19)
(-0.00209563 0.0263371 3.30671e-19)
(0.043461 0.0269048 1.26751e-19)
(0.112967 0.0276419 1.51749e-19)
(0.205389 0.0307742 -1.42526e-20)
(0.318516 0.0377193 5.59924e-20)
(0.448038 0.0490485 -1.49802e-19)
(0.587173 0.0643664 3.00472e-19)
(0.727267 0.0823616 3.41165e-20)
(0.859303 0.101124 1.24691e-19)
(0.975673 0.118632 -5.38594e-20)
(1.07151 0.133246 1.36004e-19)
(1.14513 0.143949 1.4577e-20)
(1.1977 0.150556 -8.86547e-20)
(1.2323 0.153165 1.12372e-19)
(1.25288 0.153022 4.51161e-21)
(1.26363 0.149551 -1.10222e-19)
(1.26737 0.146758 -1.9148e-19)
(1.26817 0.13838 -5.5601e-20)
(-0.0166866 0.0114107 -6.35048e-20)
(-0.017014 0.0191174 -1.87401e-19)
(0.0128424 0.0216842 -7.31961e-20)
(0.0705909 0.0224973 2.26751e-19)
(0.155015 0.0248825 -1.49096e-19)
(0.264039 0.0310414 2.02025e-19)
(0.39358 0.0421078 1.04962e-19)
(0.536727 0.0580531 -1.0066e-19)
(0.684016 0.0776442 2.78057e-19)
(0.825011 0.0987501 -2.86918e-19)
(0.950525 0.118953 -1.68027e-19)
(1.05443 0.136189 1.31187e-19)
(1.13436 0.149175 -2.14727e-20)
(1.19133 0.157482 2.89988e-19)
(1.22869 0.161484 -1.99643e-19)
(1.25083 0.161774 4.94537e-20)
(1.26216 0.15971 -6.41206e-20)
(1.26655 0.155025 -1.9867e-20)
(1.26629 0.151187 2.6339e-19)
(1.26518 0.142637 7.4407e-20)
(-0.0154767 0.00994723 1.96295e-19)
(-0.00909691 0.0152701 2.36146e-19)
(0.0314038 0.0171816 -1.43309e-19)
(0.103072 0.0188598 -1.82332e-19)
(0.203863 0.0237084 -1.06744e-19)
(0.330058 0.033756 -1.55038e-19)
(0.474979 0.0495914 -1.99531e-19)
(0.628671 0.0702902 7.7469e-20)
(0.779269 0.0936232 -3.40496e-19)
(0.915629 0.116749 1.82922e-19)
(1.02981 0.13707 -9.55567e-20)
(1.11826 0.152855 -1.13669e-19)
(1.18155 0.163442 1.70583e-20)
(1.22311 0.169066 1.16335e-19)
(1.24777 0.170577 9.21408e-20)
(1.26043 0.168899 1.46656e-19)
(1.2653 0.165342 -9.40909e-20)
(1.2656 0.159816 5.07722e-20)
(1.26313 0.15522 -7.91958e-20)
(1.26067 0.146611 4.34915e-21)
(-0.0135806 0.0083148 -1.63948e-19)
(0.00107889 0.0113021 1.80015e-19)
(0.0539566 0.0130333 1.05314e-19)
(0.141197 0.0163223 -7.69111e-20)
(0.259434 0.0245326 1.44669e-19)
(0.402574 0.0392837 -1.10676e-19)
(0.560682 0.0602835 2.21006e-19)
(0.720725 0.0854503 1.61284e-19)
(0.86933 0.111577 -1.5218e-19)
(0.996102 0.13542 2.62234e-19)
(1.09563 0.154621 -1.13185e-19)
(1.16751 0.168094 7.78792e-20)
(1.21506 0.175913 1.66568e-19)
(1.24346 0.178904 -1.0852e-19)
(1.25821 0.178242 -8.11556e-21)
(1.26408 0.174997 -2.40053e-19)
(1.26467 0.170329 1.99739e-19)
(1.26249 0.164236 2.47893e-20)
(1.25874 0.15907 1.51324e-19)
(1.25557 0.150461 -1.14827e-19)
(-0.0108742 0.00653886 1.06437e-19)
(0.0137915 0.00733891 -1.88709e-19)
(0.0808109 0.00949246 -1.21677e-20)
(0.185095 0.0152547 -3.83611e-20)
(0.321317 0.0277561 -1.92379e-19)
(0.480214 0.047874 2.53247e-19)
(0.648195 0.0740721 -5.87047e-20)
(0.809699 0.102988 -1.8989e-19)
(0.951256 0.130678 -3.88659e-20)
(1.06469 0.153944 4.57182e-20)
(1.14793 0.171047 2.8183e-19)
(1.20371 0.18172 9.4733e-20)
(1.23746 0.186733 -8.51149e-20)
(1.2553 0.18735 -9.59607e-20)
(1.26272 0.184899 5.02787e-20)
(1.26394 0.180452 2.10659e-19)
(1.26182 0.174968 -1.1001e-19)
(1.25816 0.168485 -1.26513e-19)
(1.25374 0.162853 -7.1271e-20)
(1.25012 0.154291 3.17958e-21)
(-0.0072325 0.00466256 8.00517e-21)
(0.0292969 0.00354817 1.61399e-20)
(0.112191 0.00686058 -1.49453e-19)
(0.234687 0.0160511 7.89996e-20)
(0.388726 0.0337297 1.8324e-19)
(0.561161 0.0596138 -2.25277e-19)
(0.734815 0.0906238 4.13483e-20)
(0.892774 0.122217 1.58142e-19)
(1.02309 0.150151 -2.31286e-20)
(1.12094 0.17173 5.92797e-20)
(1.18778 0.186092 -2.74573e-19)
(1.22899 0.193801 -1.15916e-19)
(1.25131 0.196193 -3.17725e-20)
(1.26108 0.194784 -2.63266e-20)
(1.26331 0.190911 -5.52776e-20)
(1.26146 0.185552 -1.62349e-19)
(1.25766 0.179454 1.3018e-19)
(1.25315 0.172682 -5.60467e-20)
(1.24837 0.166642 1.43603e-19)
(1.24444 0.158132 4.04216e-20)
(-0.00253395 0.00274766 7.39418e-20)
(0.047814 0.000139098 -9.7691e-20)
(0.148208 0.00547984 1.35458e-19)
(0.289648 0.0191059 -6.07019e-20)
(0.460502 0.0427106 4.78739e-20)
(0.643293 0.0744032 1.12338e-19)
(0.81795 0.109436 -2.91114e-20)
(0.96782 0.142433 -1.50602e-19)
(1.08394 0.169377 9.16428e-20)
(1.16538 0.188441 8.8211e-20)
(1.21685 0.199736 1.36772e-19)
(1.24557 0.20456 3.13023e-20)
(1.25885 0.204628 2.36876e-19)
(1.26269 0.201545 6.56275e-20)
(1.26136 0.196553 1.74898e-20)
(1.25754 0.190488 6.45269e-20)
(1.25273 0.183907 1.09363e-19)
(1.24772 0.176892 -2.95522e-20)
(1.24274 0.170466 -1.08756e-19)
(1.23858 0.162002 2.05993e-20)
(0.00333637 0.000873843 -9.98421e-20)
(0.0695082 -0.00264053 -1.55548e-19)
(0.188826 0.00571974 -7.63091e-20)
(0.349377 0.0247813 -1.90346e-21)
(0.535161 0.0548237 7.16516e-21)
(0.72439 0.0919656 -2.26626e-19)
(0.895402 0.129922 1.31788e-19)
(1.03353 0.163013 -6.38628e-20)
(1.13382 0.187941 -1.03967e-19)
(1.19921 0.20396 1.53457e-21)
(1.23701 0.212119 -1.22861e-19)
(1.25549 0.214277 -1.30954e-19)
(1.26188 0.212352 -2.03098e-19)
(1.2615 0.207903 2.5248e-20)
(1.2578 0.202021 6.28265e-20)
(1.25273 0.195384 -9.25293e-20)
(1.24731 0.188391 1.04032e-20)
(1.242 0.181141 1.35708e-19)
(1.2369 0.174337 -8.27249e-20)
(1.23254 0.165904 7.75179e-20)
(0.0104792 -0.000859844 5.00342e-20)
(0.0944738 -0.00450925 4.89988e-20)
(0.23384 0.00795794 -2.23808e-19)
(0.413002 0.0333715 8.77942e-20)
(0.610999 0.0700419 -1.98744e-19)
(0.802358 0.111893 1.54586e-19)
(0.965552 0.151499 -1.8021e-20)
(1.08941 0.183478 1.20975e-19)
(1.1734 0.20562 1.92349e-19)
(1.22394 0.218329 -1.57953e-20)
(1.25007 0.223457 1.33068e-19)
(1.26044 0.223236 1.52328e-19)
(1.26174 0.219626 -5.35144e-20)
(1.25844 0.214058 -1.04764e-19)
(1.25317 0.207442 -9.01803e-20)
(1.24732 0.200307 1.10077e-19)
(1.24152 0.192936 -9.17782e-20)
(1.23604 0.185439 -4.15838e-20)
(1.23086 0.178255 1.91584e-20)
(1.22633 0.169831 -1.69728e-20)
(0.0189744 -0.00233797 1.18407e-19)
(0.122717 -0.0051631 1.30682e-19)
(0.28286 0.0125564 -4.47063e-20)
(0.479408 0.0450706 2.55471e-19)
(0.686234 0.0881909 6.03869e-20)
(0.87542 0.133709 -2.32303e-19)
(1.02742 0.173658 1.85504e-19)
(1.13559 0.203504 -3.36081e-20)
(1.20377 0.222347 -2.30029e-20)
(1.2411 0.231685 -7.4443e-20)
(1.25764 0.23399 1.67871e-20)
(1.26177 0.231685 2.61196e-20)
(1.25938 0.226653 -1.00047e-19)
(1.25408 0.220142 2.79724e-22)
(1.2478 0.212889 -3.63393e-20)
(1.24146 0.205292 -5.35879e-20)
(1.23543 0.197552 5.10864e-20)
(1.22984 0.189781 -6.27961e-20)
(1.2246 0.182212 -7.51553e-20)
(1.21994 0.173773 5.1949e-20)
(0.0288767 -0.00343113 -2.47589e-19)
(0.154142 -0.00428653 7.80592e-20)
(0.335304 0.0198356 7.63487e-22)
(0.547301 0.0599527 -1.55034e-19)
(0.759161 0.108979 2.14391e-20)
(0.942232 0.156933 -4.48735e-20)
(1.0806 0.195993 -5.44962e-20)
(1.17267 0.222906 -8.9564e-20)
(1.22616 0.238161 -4.38136e-21)
(1.25216 0.244209 -3.99882e-20)
(1.261 0.243944 -1.01064e-19)
(1.26044 0.239825 -4.79195e-20)
(1.25546 0.233573 1.18244e-19)
(1.24882 0.226239 7.05321e-20)
(1.24188 0.218399 3.18697e-20)
(1.23523 0.210348 7.73682e-20)
(1.22906 0.202232 -1.22461e-19)
(1.22339 0.194155 4.57085e-20)
(1.21812 0.186199 3.29106e-20)
(1.21334 0.177716 -7.21441e-21)
(0.0402087 -0.0039986 1.79075e-19)
(0.18854 -0.00156666 -1.58245e-19)
(0.390416 0.0300498 -6.76852e-20)
(0.615298 0.077967 1.67489e-19)
(0.828281 0.132041 1.60071e-20)
(1.00192 0.181126 4.30152e-21)
(1.12518 0.218211 7.8209e-20)
(1.2015 0.241611 -1.19221e-19)
(1.24182 0.253164 2.03359e-20)
(1.25835 0.256088 8.66134e-20)
(1.26118 0.253512 -3.06956e-20)
(1.25718 0.247804 -8.6926e-20)
(1.25038 0.240478 -4.60777e-21)
(1.24285 0.232392 -4.29569e-20)
(1.23549 0.223984 -3.7297e-20)
(1.22864 0.215471 -1.09643e-19)
(1.22239 0.206962 7.05459e-20)
(1.21669 0.198546 -2.31479e-21)
(1.2114 0.190201 2.2113e-21)
(1.20653 0.181644 -3.58695e-20)
(0.0529546 -0.00389276 -1.64509e-19)
(0.225587 0.00329053 1.50737e-19)
(0.447294 0.043367 -2.37808e-20)
(0.682022 0.0989503 -1.5085e-20)
(0.892384 0.15698 2.16871e-20)
(1.05402 0.205911 -3.16218e-20)
(1.16154 0.240115 -8.133e-22)
(1.22305 0.259619 1.1759e-19)
(1.25188 0.267486 -7.87689e-21)
(1.2607 0.267496 9.36274e-21)
(1.25892 0.262845 2.82506e-21)
(1.25244 0.255723 1.28151e-20)
(1.2444 0.24742 -3.8134e-20)
(1.23629 0.238615 8.54226e-20)
(1.22866 0.229638 1.38116e-20)
(1.22171 0.220644 5.4485e-20)
(1.21542 0.211722 -2.05334e-20)
(1.2097 0.202935 1.01585e-20)
(1.20442 0.194201 -3.18066e-20)
(1.1995 0.185536 3.14426e-20)
(0.0670562 -0.00296436 7.17193e-20)
(0.264845 0.0105435 -6.44009e-20)
(0.504934 0.0598562 -2.41369e-20)
(0.746192 0.12265 -2.46281e-20)
(0.950584 0.183401 3.56509e-20)
(1.09845 0.230985 9.61106e-21)
(1.1903 0.261588 5.52151e-20)
(1.23829 0.276977 -1.21376e-19)
(1.25734 0.28126 6.56856e-20)
(1.26001 0.278576 4.8506e-20)
(1.25478 0.27205 -3.3249e-20)
(1.24654 0.263641 6.93049e-20)
(1.23768 0.254418 7.13104e-22)
(1.22919 0.244904 1.81351e-20)
(1.22141 0.235341 2.66698e-20)
(1.21441 0.225845 -3.26359e-20)
(1.20812 0.216487 2.51943e-20)
(1.20243 0.207299 1.08227e-20)
(1.19718 0.19818 1.10326e-21)
(1.19222 0.189373 -1.27125e-20)
(0.0824109 -0.00106846 -4.03619e-20)
(0.305773 0.0203993 1.04533e-20)
(0.562288 0.0794845 7.28289e-20)
(0.80669 0.148753 -1.55733e-20)
(1.00231 0.210932 1.88699e-20)
(1.13537 0.256106 -1.22793e-20)
(1.21215 0.282569 1.45226e-20)
(1.24811 0.293752 -1.14077e-20)
(1.25903 0.294605 -7.0856e-20)
(1.25689 0.289435 1.93727e-21)
(1.24913 0.281195 2.1642e-21)
(1.23968 0.271586 -4.64805e-20)
(1.23028 0.261468 1.59129e-20)
(1.22157 0.251237 -4.39689e-21)
(1.21373 0.241069 -3.03618e-20)
(1.20673 0.231047 2.66014e-20)
(1.20048 0.221229 -3.70169e-20)
(1.19484 0.211617 -1.26078e-20)
(1.18965 0.202118 8.72926e-21)
(1.18468 0.193128 -2.32789e-21)
(0.0988706 0.0019291 4.49841e-20)
(0.347743 0.0329995 1.40991e-20)
(0.618316 0.102123 -2.09281e-20)
(0.862599 0.176906 -8.77523e-21)
(1.04725 0.239237 -3.63303e-20)
(1.16512 0.28109 -3.07234e-21)
(1.22784 0.303031 -8.63058e-21)
(1.25332 0.310016 1.29394e-21)
(1.2576 0.307615 -6.17983e-21)
(1.25178 0.300146 -1.34342e-20)
(1.24221 0.290313 -6.15742e-21)
(1.23196 0.279555 1.4556e-20)
(1.22224 0.268549 1.76147e-21)
(1.21343 0.257585 -1.30605e-20)
(1.20559 0.246788 5.09943e-21)
(1.19865 0.236218 3.67662e-21)
(1.19249 0.225918 1.67249e-20)
(1.18694 0.215863 -5.21766e-21)
(1.18182 0.205991 -5.19099e-21)
(1.17689 0.196777 -1.03351e-21)
(0.116244 0.00614512 -9.91217e-21)
(0.390069 0.0484108 2.38105e-20)
(0.672038 0.127557 8.14313e-21)
(0.913217 0.206742 -3.73433e-21)
(1.08533 0.268011 -9.17941e-21)
(1.18817 0.30579 1.17009e-20)
(1.23804 0.322965 9.47484e-21)
(1.25459 0.325828 -1.61702e-20)
(1.25357 0.320356 4.21061e-21)
(1.24501 0.310744 -1.84699e-21)
(1.23419 0.299406 7.44928e-22)
(1.22344 0.287529 -5.66258e-21)
(1.21357 0.275627 -6.60672e-21)
(1.20476 0.26391 1.50244e-21)
(1.19699 0.252461 6.07169e-22)
(1.19015 0.241321 -7.84647e-21)
(1.18412 0.230521 5.11342e-22)
(1.1787 0.22001 4.99739e-21)
(1.17371 0.20977 4.90199e-21)
(1.16884 0.200292 3.67664e-23)
(0.1343 0.0116726 -1.11238e-21)
(0.432031 0.0666191 2.16328e-20)
(0.722573 0.155504 2.27889e-21)
(0.958047 0.237886 3.83484e-21)
(1.11663 0.296983 -1.60386e-20)
(1.20501 0.330089 2.76899e-20)
(1.24341 0.342368 -8.4651e-21)
(1.25249 0.341231 -4.91736e-21)
(1.24733 0.332865 -2.31068e-21)
(1.23679 0.321239 -5.94624e-21)
(1.22517 0.308456 9.59201e-21)
(1.21416 0.295469 -1.08293e-20)
(1.20427 0.282659 -6.83305e-21)
(1.19554 0.270167 2.95189e-22)
(1.1879 0.258045 2.14658e-21)
(1.18123 0.246318 -9.02596e-22)
(1.17537 0.235003 -4.00638e-21)
(1.17013 0.224027 4.02275e-21)
(1.1653 0.213422 5.60223e-21)
(1.16055 0.203642 4.24484e-21)
(0.152775 0.0185753 7.50485e-20)
(0.472902 0.0875292 1.95615e-20)
(0.769161 0.185628 -4.16597e-20)
(0.996775 0.269972 1.90658e-20)
(1.14137 0.325908 -5.7514e-20)
(1.21615 0.353886 -2.18068e-21)
(1.24451 0.361232 -1.93001e-20)
(1.24748 0.356244 2.36267e-20)
(1.23917 0.345148 2.82104e-21)
(1.22727 0.331611 -1.82066e-20)
(1.21519 0.317424 -1.7813e-20)
(1.20412 0.303328 6.29499e-21)
(1.19432 0.289594 5.95548e-21)
(1.18576 0.276309 -8.10703e-21)
(1.17832 0.263497 1.94485e-21)
(1.17186 0.251168 3.24643e-21)
(1.16623 0.239324 1.62231e-20)
(1.16122 0.227875 -3.53898e-21)
(1.15659 0.216899 -9.44219e-21)
(1.15204 0.206798 5.46047e-21)
(0.17138 0.0268832 -5.46861e-20)
(0.511982 0.110968 -4.77899e-21)
(0.811183 0.217552 1.11036e-19)
(1.02924 0.302637 -5.65766e-20)
(1.15983 0.354561 6.26005e-20)
(1.2221 0.37709 -1.49939e-20)
(1.24183 0.379537 -4.15e-21)
(1.2399 0.370865 -5.45054e-21)
(1.2293 0.357187 -4.35334e-20)
(1.21655 0.341821 -1.36386e-20)
(1.20429 0.326254 1.67431e-20)
(1.19331 0.311048 -3.14837e-20)
(1.18372 0.296377 -1.78774e-20)
(1.17541 0.282284 9.5421e-21)
(1.16823 0.268769 -1.57925e-20)
(1.16204 0.25583 4.772e-21)
(1.15668 0.243448 -2.49516e-20)
(1.15194 0.231513 1.04854e-20)
(1.14758 0.220149 -4.74682e-21)
(1.14328 0.20972 9.17439e-21)
(0.189808 0.0365892 4.49548e-20)
(0.548614 0.136693 1.54528e-21)
(0.848155 0.250873 -6.54072e-20)
(1.05543 0.335535 -3.25304e-20)
(1.17234 0.382735 5.34316e-20)
(1.22331 0.399607 -2.21925e-20)
(1.23578 0.39725 1.5938e-20)
(1.23005 0.385067 -2.0196e-21)
(1.21787 0.368938 1.69585e-21)
(1.20468 0.351809 1.15249e-20)
(1.19248 0.334883 -4.84471e-21)
(1.18175 0.318563 4.8512e-20)
(1.17246 0.302946 7.92131e-21)
(1.16447 0.288038 -1.51074e-20)
(1.15762 0.273815 1.29619e-20)
(1.15176 0.260261 1.15048e-20)
(1.14673 0.247339 1.05183e-20)
(1.14231 0.234909 3.99086e-21)
(1.13824 0.223138 1.02121e-20)
(1.13417 0.212368 -8.15033e-21)
(0.207747 0.0476482 -1.27563e-19)
(0.582209 0.1644 1.13029e-19)