/*--------------------------------*- C++ -*----------------------------------*\
  =========                 |
  \\      /  F ield         | OpenFOAM: The Open Source CFD Toolbox
   \\    /   O peration     | Website:  https://openfoam.org
    \\  /    A nd           | Version:  7
     \\/     M anipulation  |
\*---------------------------------------------------------------------------*/
FoamFile
{
    version     2.0;
    format      ascii;
    class       volScalarField;
    location    "84.999";
    object      p;
}
// * * * * * * * * * * * * * * * * * * * * * * * * * * * * * * * * * * * * * //

dimensions      [0 2 -2 0 0 0 0];

internalField   nonuniform List<scalar> 
3700
(
-0.248108
-0.246632
-0.245155
-0.243758
-0.242488
-0.241383
-0.240454
-0.239673
-0.238975
-0.238249
-0.237341
-0.236059
-0.234172
-0.231471
-0.227875
-0.22323
-0.217499
-0.210772
-0.203205
-0.195059
-0.186702
-0.178556
-0.171056
-0.164595
-0.159485
-0.155907
-0.153905
-0.1533
-0.153819
-0.154955
-0.156146
-0.156824
-0.156369
-0.154396
-0.150664
-0.14514
-0.137956
-0.12945
-0.120036
-0.110193
-0.100404
-0.0911287
-0.0828027
-0.0758333
-0.0705905
-0.0673776
-0.0663786
-0.0675853
-0.0707396
-0.0753239
-0.0806187
-0.0858122
-0.0901279
-0.0929323
-0.0938033
-0.0925507
-0.0892154
-0.0840177
-0.0772942
-0.0694491
-0.0608965
-0.0520191
-0.0431401
-0.0345167
-0.0263418
-0.0187606
-0.0118882
-0.00583824
-0.000739967
0.00324144
0.00596515
0.00728177
0.00736073
0.00611871
0.00470451
0.00213666
0.00170798
-0.246236
-0.24536
-0.244681
-0.244277
-0.244175
-0.244384
-0.244874
-0.245566
-0.246343
-0.247029
-0.247406
-0.247216
-0.246176
-0.244027
-0.240593
-0.235712
-0.22933
-0.221571
-0.212578
-0.202641
-0.192171
-0.181638
-0.171553
-0.162364
-0.154466
-0.148129
-0.143508
-0.140554
-0.139052
-0.138594
-0.138681
-0.138783
-0.13832
-0.136869
-0.134067
-0.129859
-0.124275
-0.117582
-0.110103
-0.102253
-0.0944733
-0.0872065
-0.0808924
-0.0759561
-0.0727761
-0.0716346
-0.0726567
-0.0757411
-0.0805187
-0.0863709
-0.0925107
-0.0981047
-0.102396
-0.104797
-0.104946
-0.102731
-0.0982656
-0.0918397
-0.0838551
-0.0747704
-0.0650403
-0.0550734
-0.0452055
-0.035696
-0.0267326
-0.0184501
-0.0109489
-0.00432274
0.00131917
0.00583117
0.00905881
0.0108347
0.0111971
0.0100506
0.00820965
0.00490516
0.00280901
-0.244492
-0.244182
-0.244259
-0.244798
-0.245808
-0.247268
-0.249108
-0.251202
-0.25338
-0.255404
-0.256992
-0.257826
-0.257575
-0.255929
-0.252629
-0.247489
-0.240431
-0.231668
-0.221285
-0.209606
-0.197099
-0.184251
-0.171669
-0.159842
-0.149237
-0.140189
-0.132957
-0.127628
-0.12404
-0.121868
-0.1207
-0.120088
-0.119412
-0.118258
-0.11631
-0.113308
-0.109232
-0.104305
-0.0987458
-0.092918
-0.0872173
-0.0820674
-0.077905
-0.0751616
-0.0742064
-0.0752731
-0.0784063
-0.0834006
-0.0897799
-0.0968411
-0.103752
-0.109677
-0.113889
-0.115851
-0.115251
-0.112078
-0.106502
-0.0988797
-0.0896789
-0.0794123
-0.0685729
-0.0575922
-0.0468151
-0.0365003
-0.0268276
-0.0179208
-0.00986645
-0.00274098
0.00336342
0.00832194
0.0119721
0.0141416
0.0147516
0.0137028
0.0114739
0.00751603
0.00381331
-0.242864
-0.243079
-0.243856
-0.24527
-0.247313
-0.249933
-0.253031
-0.256426
-0.259909
-0.263178
-0.265887
-0.267655
-0.268114
-0.266906
-0.263708
-0.258296
-0.250518
-0.240811
-0.229092
-0.215752
-0.201327
-0.186262
-0.171327
-0.157018
-0.143859
-0.132219
-0.122434
-0.11478
-0.109095
-0.105132
-0.102576
-0.101117
-0.100078
-0.0989819
-0.0976596
-0.0957835
-0.0930816
-0.08984
-0.0861639
-0.0823673
-0.0788024
-0.0758673
-0.0739826
-0.0735651
-0.0749587
-0.0783251
-0.0836112
-0.0905049
-0.0984344
-0.106631
-0.114239
-0.120432
-0.124522
-0.126018
-0.124662
-0.120549
-0.113894
-0.105122
-0.0947649
-0.0833897
-0.071524
-0.0596183
-0.0480228
-0.0369923
-0.0266968
-0.0172478
-0.0087189
-0.00117076
0.005318
0.0106436
0.0146379
0.0171358
0.0179537
0.0170023
0.0144272
0.00990888
0.00469217
-0.241344
-0.242035
-0.243439
-0.245644
-0.24862
-0.252291
-0.256529
-0.261098
-0.265764
-0.270161
-0.273885
-0.276496
-0.277575
-0.276732
-0.273602
-0.267929
-0.259329
-0.248798
-0.235813
-0.220925
-0.204752
-0.187559
-0.170489
-0.153907
-0.1384
-0.124347
-0.112126
-0.102288
-0.0945488
-0.0887684
-0.0847061
-0.0823083
-0.0807427
-0.0795514
-0.0785569
-0.0776792
-0.0762018
-0.0745358
-0.0726789
-0.0708989
-0.0695019
-0.0688517
-0.0693363
-0.0713354
-0.075146
-0.0808443
-0.0882699
-0.0970088
-0.106409
-0.115655
-0.123882
-0.130287
-0.134217
-0.135224
-0.133155
-0.128109
-0.120412
-0.110549
-0.0991128
-0.0867179
-0.0739224
-0.061192
-0.0488778
-0.0372281
-0.0264015
-0.0164959
-0.00757303
0.000321278
0.00711854
0.0127356
0.0169987
0.0197609
0.0207436
0.0198853
0.017006
0.0120253
0.00541857
-0.241037
-0.242987
-0.245886
-0.249684
-0.254279
-0.259529
-0.265095
-0.270786
-0.276171
-0.28078
-0.284124
-0.285699
-0.285171
-0.282054
-0.276087
-0.2671
-0.255541
-0.241377
-0.225068
-0.207222
-0.188315
-0.169228
-0.150563
-0.132916
-0.116689
-0.102177
-0.0904221
-0.0807026
-0.073136
-0.067466
-0.0641373
-0.0618906
-0.0604296
-0.0596542
-0.0594562
-0.0590719
-0.0588445
-0.0587172
-0.0589054
-0.059668
-0.0613257
-0.0642183
-0.0686664
-0.0748964
-0.0828934
-0.0923887
-0.102877
-0.113641
-0.123837
-0.132603
-0.139163
-0.142901
-0.143398
-0.140637
-0.134711
-0.126029
-0.115149
-0.102726
-0.0894141
-0.075798
-0.0623525
-0.0494263
-0.0372583
-0.0259946
-0.0157196
-0.0064835
0.00168149
0.0087138
0.0145508
0.0190106
0.0219745
0.0230764
0.0223022
0.0191584
0.013814
0.00597032
-0.240079
-0.242483
-0.24596
-0.250441
-0.255806
-0.261877
-0.268365
-0.274948
-0.281172
-0.286535
-0.2905
-0.292508
-0.292204
-0.289077
-0.282848
-0.273403
-0.260979
-0.245753
-0.228182
-0.208862
-0.188387
-0.167574
-0.147096
-0.127563
-0.109424
-0.0931359
-0.0792891
-0.0677482
-0.0585192
-0.0511492
-0.0470693
-0.0440329
-0.0422033
-0.0415989
-0.0416825
-0.042226
-0.0432777
-0.0447584
-0.0468261
-0.0496907
-0.0536204
-0.0588931
-0.0657524
-0.074335
-0.0845324
-0.0959751
-0.108079
-0.120078
-0.131114
-0.140335
-0.146996
-0.150516
-0.150481
-0.147071
-0.140316
-0.13072
-0.118916
-0.105611
-0.0914994
-0.0771822
-0.0631388
-0.0497116
-0.0371283
-0.0255219
-0.0149635
-0.00549318
0.0028695
0.0100667
0.0160562
0.0206451
0.0237511
0.024925
0.0242217
0.0208496
0.0152369
0.00633358
-0.239124
-0.241916
-0.245865
-0.250907
-0.256907
-0.263663
-0.27087
-0.278166
-0.285078
-0.291065
-0.295532
-0.297878
-0.297736
-0.294579
-0.288114
-0.278233
-0.265093
-0.24896
-0.230302
-0.20972
-0.187905
-0.16564
-0.143632
-0.122504
-0.102757
-0.0848813
-0.0693022
-0.0561164
-0.0453409
-0.036859
-0.0312451
-0.0274005
-0.0251753
-0.0244658
-0.0248971
-0.0261915
-0.0283493
-0.0312852
-0.0351011
-0.0399559
-0.0460572
-0.0536101
-0.0627694
-0.0735706
-0.0858117
-0.0990345
-0.11259
-0.125678
-0.137434
-0.147022
-0.153728
-0.157014
-0.156597
-0.152438
-0.144899
-0.134473
-0.12185
-0.107784
-0.0929999
-0.078109
-0.0635896
-0.0497746
-0.0368787
-0.025022
-0.014263
-0.00463406
0.00385742
0.011154
0.0172339
0.0218894
0.0250818
0.0262821
0.025633
0.0220649
0.016274
0.0065059
-0.238226
-0.241304
-0.245609
-0.251076
-0.257559
-0.264837
-0.27259
-0.28043
-0.28787
-0.294352
-0.299268
-0.301797
-0.301746
-0.298547
-0.29188
-0.281629
-0.26792
-0.25105
-0.231501
-0.209914
-0.187016
-0.163582
-0.140337
-0.117915
-0.096846
-0.0776163
-0.0606015
-0.0459906
-0.0338604
-0.0242366
-0.0173445
-0.0126313
-0.00989816
-0.00897141
-0.00957405
-0.0114399
-0.0145222
-0.0187334
-0.024126
-0.0308066
-0.0389166
-0.048582
-0.0598624
-0.0726891
-0.0867692
-0.10157
-0.116391
-0.130408
-0.142757
-0.152621
-0.159314
-0.162332
-0.161455
-0.15669
-0.148443
-0.137285
-0.123962
-0.109268
-0.0939466
-0.0786147
-0.0637434
-0.0496532
-0.036545
-0.0245268
-0.0136457
-0.00392831
0.00462856
0.0119647
0.0180794
0.0227458
0.0259746
0.0271593
0.026546
0.0228128
0.0169262
0.00649786
-0.237384
-0.240653
-0.245198
-0.250955
-0.257768
-0.265404
-0.273534
-0.28175
-0.289552
-0.296379
-0.301731
-0.304262
-0.304251
-0.301009
-0.294186
-0.283655
-0.269521
-0.252101
-0.231902
-0.209578
-0.185871
-0.161559
-0.137372
-0.113954
-0.0918452
-0.0715204
-0.0533409
-0.0375371
-0.0242398
-0.0135386
-0.00554458
2.56065e-05
0.00333336
0.00456368
0.0039274
0.00165748
-0.00216507
-0.00745353
-0.0142187
-0.0225159
-0.0324189
-0.0439722
-0.0571397
-0.0717515
-0.0874306
-0.103583
-0.119467
-0.134244
-0.147054
-0.157102
-0.163724
-0.166442
-0.165129
-0.159814
-0.150945
-0.139167
-0.125275
-0.110093
-0.0943761
-0.0787378
-0.0636381
-0.0493825
-0.0361579
-0.0240616
-0.013131
-0.00338937
0.0051759
0.0124988
0.0185995
0.023229
0.0264512
0.0275854
0.02699
0.0231234
0.0172147
0.00633285
-0.236594
-0.239966
-0.244639
-0.250554
-0.257551
-0.265386
-0.273725
-0.282151
-0.290158
-0.297141
-0.302173
-0.305246
-0.305292
-0.302018
-0.295093
-0.284382
-0.269991
-0.252237
-0.231634
-0.208844
-0.184614
-0.159718
-0.134884
-0.110758
-0.0878833
-0.066722
-0.047631
-0.0308625
-0.0165849
-0.00492299
0.0040336
0.0104165
0.014331
0.0159194
0.0153624
0.0128455
0.00846474
0.0023076
-0.00560333
-0.015275
-0.0267159
-0.0398904
-0.0546715
-0.0707958
-0.087811
-0.105073
-0.121811
-0.137174
-0.150313
-0.16045
-0.16695
-0.169379
-0.16763
-0.161818
-0.152422
-0.140144
-0.125822
-0.110299
-0.0943295
-0.0785186
-0.0633103
-0.0489939
-0.0357428
-0.0236456
-0.0127313
-0.00302294
0.00550061
0.0127649
0.0188104
0.0233643
0.0265445
0.0276023
0.0270093
0.0230449
0.0171778
0.00604733
-0.23923
-0.243929
-0.249878
-0.256918
-0.264801
-0.273189
-0.281663
-0.289742
-0.296864
-0.30184
-0.3049
-0.304943
-0.301657
-0.294698
-0.283929
-0.269449
-0.251574
-0.230816
-0.207832
-0.183364
-0.158174
-0.132982
-0.108426
-0.0850466
-0.0632956
-0.0435282
-0.0260096
-0.0109335
0.00155115
0.0113429
0.0184774
0.0230029
0.0249949
0.0246081
0.0219845
0.0172223
0.0104085
0.00159123
-0.00919327
-0.0218922
-0.0363956
-0.0524933
-0.0698395
-0.0879174
-0.106043
-0.123421
-0.139198
-0.152531
-0.162664
-0.16899
-0.171124
-0.168972
-0.162724
-0.152902
-0.140256
-0.125649
-0.109932
-0.0938529
-0.0779988
-0.0627952
-0.0485153
-0.0353204
-0.0232918
-0.0124529
-0.0028281
0.00561056
0.0127783
0.0187353
0.0231838
0.0262948
0.0272608
0.0266591
0.022637
0.0168656
0.00568575
-0.238399
-0.243033
-0.248904
-0.255858
-0.263649
-0.271938
-0.280302
-0.288295
-0.295974
-0.30035
-0.303287
-0.303311
-0.300039
-0.293118
-0.282411
-0.268011
-0.250225
-0.229553
-0.20664
-0.18221
-0.157005
-0.131728
-0.107004
-0.0833649
-0.0612545
-0.0410266
-0.0229556
-0.00725306
0.00591271
0.0164186
0.0242342
0.029359
0.0318173
0.0316488
0.0290397
0.0240651
0.0168041
0.00732256
-0.00430553
-0.0179726
-0.0335019
-0.050611
-0.0688839
-0.0877502
-0.106494
-0.124304
-0.140324
-0.153721
-0.163756
-0.169865
-0.171698
-0.169183
-0.162571
-0.152435
-0.139555
-0.124811
-0.109047
-0.0929958
-0.0772202
-0.0621264
-0.0479715
-0.0349066
-0.0230085
-0.0122965
-0.00279857
0.00551879
0.0125594
0.0184018
0.0227243
0.0257465
0.0266157
0.0259997
0.0219649
0.0163355
0.00529352
-0.237394
-0.241891
-0.247588
-0.254345
-0.261922
-0.269988
-0.278098
-0.285701
-0.291863
-0.297562
-0.300487
-0.300501
-0.29728
-0.290473
-0.27995
-0.265793
-0.248295
-0.227939
-0.205343
-0.181206
-0.156243
-0.131132
-0.10648
-0.0828067
-0.0605469
-0.0400544
-0.0216109
-0.00544193
0.00826802
0.0193736
0.027797
0.0334887
0.0363903
0.0365384
0.0340631
0.0290373
0.0215308
0.0116214
-0.000584409
-0.0149319
-0.0311869
-0.0490063
-0.067917
-0.0873051
-0.10643
-0.12447
-0.14057
-0.153908
-0.163757
-0.169603
-0.17114
-0.168307
-0.161417
-0.151084
-0.13811
-0.123375
-0.107706
-0.0918105
-0.0762251
-0.0613353
-0.0473839
-0.0345139
-0.0227996
-0.0122587
-0.00292391
0.00524219
0.0121321
0.0178401
0.0220243
0.0249454
0.0257221
0.0250919
0.0210927
0.0156451
0.0049101
-0.236111
-0.24042
-0.245869
-0.252339
-0.259606
-0.26735
-0.275135
-0.282487
-0.288789
-0.293896
-0.296637
-0.296649
-0.293515
-0.2869
-0.276676
-0.262915
-0.245889
-0.226054
-0.203996
-0.180379
-0.155885
-0.131162
-0.106794
-0.0832852
-0.0610623
-0.0404793
-0.0218246
-0.0053354
0.00878956
0.0203859
0.0293495
0.0355955
0.0388423
0.039406
0.0371815
0.0322546
0.0246899
0.0145765
0.00204661
-0.0127059
-0.0293999
-0.0476428
-0.0669165
-0.0865736
-0.105856
-0.123935
-0.139963
-0.153128
-0.16272
-0.168268
-0.169511
-0.166411
-0.159336
-0.148929
-0.136
-0.121414
-0.105972
-0.0903477
-0.0750514
-0.060448
-0.0467679
-0.0341483
-0.0226634
-0.0123308
-0.0031891
0.00480141
0.011523
0.0170822
0.0211229
0.0239365
0.0246326
0.0239931
0.0200793
0.0148468
0.0045636
-0.238535
-0.243688
-0.249809
-0.256695
-0.264043
-0.271445
-0.278477
-0.284513
-0.289331
-0.291884
-0.291898
-0.288891
-0.282544
-0.272729
-0.2595
-0.243108
-0.223972
-0.202641
-0.179737
-0.155903
-0.131755
-0.10785
-0.0846756
-0.062651
-0.0421291
-0.0234036
-0.00672333
0.00769937
0.0196821
0.0291172
0.0360083
0.0395308
0.0404739
0.0385833
0.0338846
0.0264317
0.0163198
0.00370064
-0.0112016
-0.0280685
-0.0464693
-0.0658515
-0.0855439
-0.104776
-0.122719
-0.138532
-0.151423
-0.160725
-0.165953
-0.166888
-0.163577
-0.156416
-0.14606
-0.133308
-0.119002
-0.103902
-0.0886512
-0.0737286
-0.0594816
-0.0461301
-0.0338082
-0.0225909
-0.0124979
-0.00357397
0.00422116
0.0107614
0.0161616
0.0200588
0.0227631
0.0233955
0.022755
0.0189747
0.0139839
0.00426825
-0.23617
-0.241002
-0.246735
-0.253194
-0.260099
-0.267074
-0.273753
-0.279472
-0.283967
-0.286372
-0.286399
-0.283559
-0.277548
-0.268233
-0.255653
-0.240025
-0.221732
-0.201277
-0.179239
-0.156217
-0.132793
-0.109497
-0.0868026
-0.0651147
-0.0447855
-0.0261155
-0.00936351
0.00524675
0.0175095
0.0273062
0.0351145
0.0386662
0.0399971
0.038497
0.0341333
0.0269396
0.0170121
0.00451479
-0.0103067
-0.0271065
-0.0454251
-0.0646859
-0.0842019
-0.103197
-0.120846
-0.136315
-0.148829
-0.157875
-0.162719
-0.163368
-0.159913
-0.152769
-0.142583
-0.130133
-0.116221
-0.101566
-0.0867735
-0.0722949
-0.0584616
-0.0454855
-0.033499
-0.0225797
-0.0127508
-0.00406293
0.00352241
0.00987354
0.0151089
0.0188671
0.0214642
0.0220534
0.0214225
0.0178202
0.013089
0.00402559
-0.233363
-0.237867
-0.243195
-0.249201
-0.255626
-0.262131
-0.268375
-0.273865
-0.277994
-0.28031
-0.280373
-0.277737
-0.272115
-0.26337
-0.251518
-0.236747
-0.219395
-0.199918
-0.178847
-0.156739
-0.134142
-0.111565
-0.0894556
-0.0682068
-0.0481745
-0.0296643
-0.0129443
0.00174857
0.0141798
0.0241254
0.0311657
0.0363664
0.0382156
0.0371772
0.0332351
0.0264204
0.0168305
0.0046352
-0.00990597
-0.026429
-0.0444549
-0.063392
-0.0825451
-0.101138
-0.118355
-0.133375
-0.145425
-0.154078
-0.158607
-0.159044
-0.155545
-0.148537
-0.138649
-0.126621
-0.11321
-0.0990889
-0.0848249
-0.0708449
-0.0574668
-0.0448971
-0.0332694
-0.0226649
-0.013112
-0.00466728
0.00270408
0.00886727
0.01394
0.0175701
0.0200685
0.0206383
0.0200314
0.0166477
0.0121856
0.00383035
-0.230077
-0.234294
-0.239243
-0.244819
-0.250804
-0.256887
-0.262748
-0.267758
-0.27152
-0.273808
-0.273986
-0.271646
-0.266512
-0.258443
-0.247437
-0.233643
-0.217352
-0.198966
-0.178964
-0.157858
-0.136164
-0.114372
-0.0929033
-0.072142
-0.0524434
-0.0341191
-0.0174489
-0.00268039
0.00994535
0.0202153
0.027899
0.0330593
0.0353268
0.0348252
0.0314083
0.0250977
0.0159905
0.0042605
-0.00982374
-0.0258859
-0.0434344
-0.0618699
-0.0804947
-0.0985384
-0.1152
-0.129687
-0.141328
-0.149418
-0.153631
-0.153962
-0.150563
-0.143837
-0.134384
-0.122899
-0.110086
-0.0965707
-0.082888
-0.0694434
-0.0565463
-0.0444002
-0.0331428
-0.0228599
-0.0135868
-0.00538522
0.00177393
0.00775581
0.0126724
0.0161896
0.0185995
0.0191757
0.0186051
0.0154795
0.0112873
0.00369448
-0.229914
-0.234454
-0.239544
-0.245001
-0.250537
-0.255923
-0.260768
-0.264427
-0.26646
-0.266697
-0.264655
-0.260043
-0.25271
-0.242627
-0.2299
-0.214769
-0.197581
-0.17876
-0.158773
-0.138097
-0.117196
-0.096497
-0.076388
-0.0572113
-0.039262
-0.022825
-0.0081666
0.00445289
0.0148879
0.0228291
0.0288372
0.0316193
0.0315538
0.0286906
0.022981
0.0144982
0.00340787
-0.0100242
-0.025421
-0.0422915
-0.0600338
-0.0779593
-0.0953128
-0.1113
-0.125162
-0.136364
-0.143996
-0.148108
-0.148307
-0.145024
-0.138606
-0.129611
-0.118686
-0.106487
-0.0936001
-0.0805289
-0.0676594
-0.0552888
-0.0436165
-0.0327795
-0.022867
-0.0139193
-0.00600028
0.000909926
0.00668561
0.0114188
0.0148167
0.0171181
0.0177154
0.0171605
0.0143321
0.0103753
0.00358179
-0.225123
-0.229441
-0.234193
-0.239225
-0.24432
-0.2492
-0.253416
-0.25635
-0.257937
-0.257785
-0.255462
-0.250723
-0.243452
-0.23364
-0.221398
-0.206955
-0.190635
-0.172829
-0.153963
-0.134473
-0.114779
-0.095271
-0.0762978
-0.0581749
-0.0411728
-0.0255465
-0.0115265
0.000646022
0.0107042
0.0184729
0.0238621
0.0266882
0.0268807
0.0243434
0.0190452
0.011055
0.000531912
-0.0122581
-0.0269316
-0.0429902
-0.0598294
-0.076759
-0.0930474
-0.107955
-0.120745
-0.1309
-0.137416
-0.140615
-0.140364
-0.136877
-0.130548
-0.121924
-0.111602
-0.100169
-0.0881474
-0.0759793
-0.0640079
-0.0524938
-0.0416192
-0.0315072
-0.0222453
-0.0138762
-0.00646272
-1.67371e-06
0.00540491
0.00980422
0.0129886
0.015084
0.0157046
0.0151272
0.0127344
0.00904994
0.00338042
-0.217224
-0.221246
-0.225445
-0.229703
-0.233836
-0.237572
-0.240607
-0.242727
-0.243432
-0.24246
-0.23959
-0.234645
-0.227534
-0.218268
-0.206953
-0.193783
-0.179028
-0.163009
-0.146079
-0.128596
-0.110915
-0.0933655
-0.0762585
-0.0598864
-0.0445189
-0.030394
-0.0177463
-0.00677047
0.00242388
0.00951963
0.0145682
0.0172335
0.0174545
0.0151814
0.0104046
0.00319621
-0.00628136
-0.0177653
-0.0308865
-0.0451738
-0.0600614
-0.0749082
-0.0890235
-0.101727
-0.112457
-0.120348
-0.125812
-0.128181
-0.127521
-0.124101
-0.11829
-0.110552
-0.101381
-0.0912624
-0.0806246
-0.0698352
-0.059183
-0.048894
-0.0391316
-0.0300143
-0.021629
-0.0140291
-0.00727716
-0.0013894
0.00354963
0.00755507
0.0104796
0.012384
0.013029
0.0125478
0.0106428
0.0075107
0.00297066
-0.20891
-0.212622
-0.216312
-0.219917
-0.223289
-0.22622
-0.228496
-0.229797
-0.229806
-0.228333
-0.225222
-0.220335
-0.213598
-0.205022
-0.194699
-0.182788
-0.169509
-0.155127
-0.139936
-0.124241
-0.108349
-0.0925528
-0.0771343
-0.0623586
-0.0484665
-0.0356716
-0.0241705
-0.0141347
-0.00567291
0.000841887
0.00541661
0.00786925
0.00813996
0.00618886
0.0020148
-0.0043049
-0.012607
-0.0226367
-0.0340428
-0.0463842
-0.0591446
-0.0717599
-0.0836588
-0.0943385
-0.103579
-0.109898
-0.114134
-0.115824
-0.115005
-0.111885
-0.106762
-0.100007
-0.0920171
-0.0831842
-0.0738606
-0.0643555
-0.0549174
-0.0457495
-0.0370019
-0.0287929
-0.0212083
-0.0143127
-0.00816518
-0.00280052
0.00171757
0.00537408
0.00807867
0.00983623
0.010531
0.0101891
0.00872734
0.00614475
0.00251334
-0.200458
-0.203901
-0.207184
-0.210266
-0.213042
-0.215345
-0.216956
-0.217643
-0.217182
-0.215415
-0.212216
-0.207478
-0.201146
-0.193235
-0.183823
-0.173047
-0.161089
-0.148173
-0.134546
-0.120472
-0.106214
-0.0920313
-0.0781705
-0.0648651
-0.0523287
-0.0407591
-0.0303409
-0.0212412
-0.0136583
-0.00763708
-0.00341182
-0.00106463
-0.000647164
-0.00218798
-0.00566995
-0.0110093
-0.0180485
-0.0265515
-0.0362028
-0.0466154
-0.0573463
-0.0679157
-0.0778276
-0.0865908
-0.0935742
-0.0994089
-0.102904
-0.104203
-0.103401
-0.100664
-0.09623
-0.0903989
-0.0834904
-0.0758245
-0.0676925
-0.0593559
-0.0510284
-0.0428924
-0.0350843
-0.0277205
-0.0208825
-0.0146443
-0.00905799
-0.0041752
-3.81589e-05
0.00331076
0.00583215
0.00748376
0.00824643
0.00806493
0.00699464
0.00492822
0.00206409
-0.192076
-0.19531
-0.198276
-0.200954
-0.203262
-0.205058
-0.20617
-0.206428
-0.205656
-0.203723
-0.200524
-0.195982
-0.190062
-0.182782
-0.174211
-0.164464
-0.153697
-0.142098
-0.129876
-0.117257
-0.104467
-0.0917334
-0.0792726
-0.0672924
-0.0559874
-0.0455403
-0.0361209
-0.0278779
-0.0209594
-0.0154625
-0.0115375
-0.00925824
-0.00866975
-0.00978623
-0.0125788
-0.0169634
-0.0227939
-0.0298597
-0.0378857
-0.0465398
-0.0554447
-0.0641919
-0.0723687
-0.0795881
-0.0854864
-0.0900425
-0.0928413
-0.0938419
-0.093091
-0.0907155
-0.086906
-0.0818994
-0.0759503
-0.069318
-0.0622412
-0.0549415
-0.0476024
-0.0403884
-0.0334231
-0.0268206
-0.020657
-0.0150132
-0.00993334
-0.0054825
-0.00168307
0.0014009
0.00377072
0.00535002
0.00618586
0.00617415
0.00544893
0.00386385
0.00165234
-0.183911
-0.18698
-0.189705
-0.192073
-0.194022
-0.195441
-0.196201
-0.196164
-0.195194
-0.193181
-0.190046
-0.185734
-0.180226
-0.17354
-0.165738
-0.156919
-0.147215
-0.136785
-0.125809
-0.114479
-0.102994
-0.0915495
-0.0803391
-0.0695483
-0.0593523
-0.0499152
-0.041387
-0.0339003
-0.0275825
-0.0225316
-0.018858
-0.0166245
-0.0158643
-0.0165803
-0.018737
-0.0222524
-0.026993
-0.0327727
-0.0393532
-0.0464507
-0.0537462
-0.0609014
-0.0675822
-0.0734755
-0.078312
-0.0819374
-0.0841589
-0.0849065
-0.0842009
-0.0821357
-0.0788567
-0.0745486
-0.0694128
-0.0636596
-0.057486
-0.0510805
-0.0446014
-0.0381966
-0.0319773
-0.0260533
-0.0204939
-0.0153836
-0.0107583
-0.00669216
-0.00319145
-0.00033453
0.00190841
0.0034414
0.00435043
0.00451137
0.0040905
0.00294092
0.00128586
-0.176043
-0.178981
-0.181523
-0.183659
-0.185345
-0.186499
-0.187014
-0.18678
-0.185693
-0.183669
-0.180646
-0.176586
-0.17148
-0.165348
-0.158245
-0.150257
-0.141498
-0.132104
-0.122231
-0.112043
-0.101714
-0.0914156
-0.081319
-0.071589
-0.0623811
-0.0538408
-0.0461026
-0.0392869
-0.0335024
-0.0288352
-0.0253758
-0.0231737
-0.0222509
-0.0226028
-0.0241906
-0.0269359
-0.030718
-0.0353729
-0.0406956
-0.0464464
-0.0523593
-0.0581588
-0.06357
-0.0683203
-0.0722283
-0.0751131
-0.0768469
-0.0773666
-0.0766807
-0.0748559
-0.0720016
-0.068262
-0.063797
-0.058778
-0.0533675
-0.0477259
-0.0419889
-0.0362889
-0.0307245
-0.0253998
-0.0203767
-0.0157405
-0.0115196
-0.00779271
-0.00455482
-0.00189089
0.000245598
0.00175198
0.00273165
0.00306015
0.00290736
0.0021439
0.000965936
-0.168517
-0.171354
-0.17376
-0.175728
-0.177228
-0.178195
-0.178545
-0.178191
-0.177054
-0.17507
-0.172193
-0.168396
-0.163677
-0.158059
-0.15159
-0.144348
-0.136431
-0.127956
-0.119059
-0.109883
-0.100578
-0.0912964
-0.0821881
-0.0733989
-0.065067
-0.0573222
-0.0502847
-0.0440614
-0.0387429
-0.0344116
-0.0311354
-0.0289541
-0.027882
-0.0279093
-0.0289964
-0.0310701
-0.0340222
-0.0377095
-0.0419575
-0.0465645
-0.0513095
-0.0559639
-0.0603002
-0.0641095
-0.0672004
-0.0694559
-0.0707649
-0.071072
-0.0703768
-0.0687262
-0.0662026
-0.0629187
-0.0590014
-0.0545905
-0.0498199
-0.0448259
-0.0397246
-0.0346336
-0.0296398
-0.0248403
-0.02029
-0.0160718
-0.0122087
-0.00877924
-0.00577179
-0.00327158
-0.00122471
0.000268633
0.00131508
0.00180033
0.00188342
0.00145828
0.000690133
-0.161362
-0.16412
-0.166427
-0.168278
-0.169649
-0.170491
-0.170739
-0.170325
-0.169189
-0.167283
-0.164572
-0.161041
-0.156691
-0.151548
-0.145656
-0.139084
-0.131918
-0.12426
-0.116229
-0.107949
-0.099551
-0.0911696
-0.0829367
-0.0749811
-0.0674259
-0.060386
-0.0539676
-0.0482643
-0.043352
-0.0393183
-0.0361986
-0.0340308
-0.0328247
-0.0325669
-0.0332187
-0.034713
-0.0369539
-0.0398177
-0.043155
-0.0467954
-0.0505547
-0.054241
-0.0576622
-0.060664
-0.063077
-0.0647966
-0.0657337
-0.0658412
-0.065114
-0.0635844
-0.0613146
-0.0583927
-0.0549195
-0.0510092
-0.0467725
-0.042325
-0.0377657
-0.0331987
-0.0286998
-0.0243583
-0.0202226
-0.0163713
-0.0128229
-0.00965315
-0.00684706
-0.00448587
-0.00251448
-0.00102533
8.33287e-05
0.000711419
0.00100165
0.000870676
0.000453896
-0.154593
-0.157293
-0.159529
-0.161299
-0.162586
-0.163351
-0.163546
-0.163117
-0.162018
-0.160215
-0.157684
-0.154415
-0.150417
-0.145712
-0.140345
-0.134376
-0.127881
-0.120951
-0.113687
-0.106201
-0.0986072
-0.091023
-0.0835653
-0.0763481
-0.0694806
-0.0630642
-0.0571922
-0.0519491
-0.0474049
-0.0436196
-0.0406327
-0.0384744
-0.0371503
-0.0366449
-0.0369211
-0.0379187
-0.0395531
-0.0417172
-0.0442834
-0.0471075
-0.0500353
-0.0529057
-0.0555474
-0.0578734
-0.0597088
-0.0609684
-0.061579
-0.061501
-0.0607261
-0.0592768
-0.0571996
-0.0545635
-0.0514494
-0.0479505
-0.0441583
-0.0401711
-0.0360729
-0.0319552
-0.0278841
-0.0239404
-0.0201667
-0.0166359
-0.0133633
-0.0104196
-0.00778889
-0.00554599
-0.00363815
-0.00214792
-0.000982114
-0.000226043
0.00024523
0.000368397
0.000252114
-0.148219
-0.150875
-0.153062
-0.15478
-0.156016
-0.156741
-0.156919
-0.156507
-0.155473
-0.15379
-0.151445
-0.148433
-0.144765
-0.140466
-0.135576
-0.13015
-0.124255
-0.117973
-0.111392
-0.10461
-0.0977286
-0.0908505
-0.0840793
-0.0775157
-0.0712563
-0.0653909
-0.0600015
-0.0551636
-0.050939
-0.047374
-0.0445032
-0.0423531
-0.0409269
-0.040208
-0.0401619
-0.0407348
-0.0418525
-0.0434224
-0.0453358
-0.0474713
-0.0496997
-0.0518888
-0.0539165
-0.0556285
-0.0569624
-0.0578237
-0.0581475
-0.0578986
-0.0570667
-0.0556671
-0.0537349
-0.0513245
-0.0485005
-0.0453397
-0.0419176
-0.0383175
-0.034611
-0.0308777
-0.0271751
-0.0235758
-0.020117
-0.0168651
-0.0138332
-0.0110859
-0.00860756
-0.00646558
-0.00461135
-0.0031172
-0.0018997
-0.00103029
-0.000401539
-5.99154e-05
7.99877e-05
-0.14224
-0.144863
-0.147019
-0.148706
-0.149917
-0.15063
-0.150816
-0.150444
-0.149492
-0.147942
-0.145785
-0.143021
-0.139663
-0.135738
-0.131282
-0.126345
-0.120988
-0.115284
-0.10931
-0.103153
-0.096903
-0.0906503
-0.0844868
-0.0785013
-0.0727795
-0.0674009
-0.0624376
-0.0579559
-0.0540108
-0.0506404
-0.0478726
-0.0457308
-0.0442174
-0.0433156
-0.0429938
-0.0432042
-0.0438823
-0.0449482
-0.0463091
-0.0478627
-0.0494992
-0.0511054
-0.0525791
-0.0538083
-0.0547191
-0.0552377
-0.0553101
-0.0549051
-0.0540117
-0.05264
-0.0508164
-0.0485841
-0.0459948
-0.0431119
-0.0399978
-0.0367231
-0.0333486
-0.0299437
-0.0265579
-0.0232558
-0.02007
-0.0170603
-0.0142378
-0.0116607
-0.00931435
-0.00725872
-0.00544984
-0.0039504
-0.00268675
-0.00171811
-0.000953126
-0.000424105
-6.63245e-05
-0.136653
-0.139253
-0.141389
-0.143062
-0.144267
-0.144988
-0.145202
-0.144888
-0.14403
-0.142617
-0.140645
-0.138118
-0.13505
-0.131468
-0.127406
-0.122911
-0.118036
-0.112847
-0.107414
-0.101812
-0.0961217
-0.0904231
-0.0847973
-0.0793233
-0.0740765
-0.0691278
-0.0645408
-0.0603726
-0.0566726
-0.0534737
-0.0507981
-0.0486659
-0.0470788
-0.0460212
-0.0454643
-0.0453662
-0.0456707
-0.0463093
-0.0472024
-0.0482631
-0.0493985
-0.0505113
-0.0515205
-0.0523354
-0.0528852
-0.0531086
-0.052961
-0.0524147
-0.0514587
-0.0500993
-0.0483565
-0.0462646
-0.0438654
-0.0412109
-0.0383532
-0.035352
-0.0322587
-0.0291337
-0.0260196
-0.0229735
-0.0200236
-0.0172236
-0.0145827
-0.0121528
-0.00992076
-0.00793914
-0.0061688
-0.00466365
-0.0033593
-0.00230447
-0.00142233
-0.000733152
-0.000190377
-0.131455
-0.134037
-0.136163
-0.137834
-0.139046
-0.139788
-0.140045
-0.139799
-0.139042
-0.137768
-0.135975
-0.133672
-0.130875
-0.127607
-0.123904
-0.119806
-0.115364
-0.110635
-0.105682
-0.100574
-0.0953793
-0.0901714
-0.0850214
-0.0799996
-0.0751728
-0.0706035
-0.0663483
-0.0624568
-0.0589719
-0.0559214
-0.0533327
-0.0512118
-0.049563
-0.0483732
-0.0476166
-0.0472562
-0.0472436
-0.0475195
-0.0480166
-0.0486602
-0.0493705
-0.0500711
-0.0506858
-0.0511449
-0.0513847
-0.0513538
-0.0510138
-0.0503405
-0.0493231
-0.0479652
-0.0462821
-0.044301
-0.0420556
-0.0395892
-0.0369448
-0.0341732
-0.0313179
-0.0284311
-0.0255496
-0.0227233
-0.019977
-0.0173578
-0.014874
-0.0125714
-0.010438
-0.00851994
-0.00678246
-0.00527176
-0.00393205
-0.00280278
-0.00182034
-0.000994727
-0.000295328
-0.126635
-0.129206
-0.131328
-0.133005
-0.134234
-0.135008
-0.135315
-0.135145
-0.134493
-0.133355
-0.131734
-0.129642
-0.127094
-0.124114
-0.120735
-0.116996
-0.112941
-0.108623
-0.104098
-0.099427
-0.0946727
-0.0898991
-0.0851702
-0.080548
-0.0760921
-0.0718577
-0.0678953
-0.0642481
-0.0609534
-0.0580399
-0.0555256
-0.0534162
-0.0517159
-0.0504144
-0.0494885
-0.0489057
-0.048624
-0.0485928
-0.0487542
-0.0490443
-0.0493954
-0.0497454
-0.0500277
-0.0501825
-0.0501566
-0.0499064
-0.0493985
-0.0486116
-0.0475354
-0.0461718
-0.0445322
-0.0426383
-0.0405176
-0.0382059
-0.0357391
-0.0331602
-0.0305061
-0.0278217
-0.0251387
-0.0225009
-0.0199295
-0.0174662
-0.015118
-0.0129251
-0.0108768
-0.00901329
-0.00730398
-0.00578823
-0.00441803
-0.00322499
-0.00215716
-0.00121563
-0.00038388
-0.122186
-0.124748
-0.126872
-0.12856
-0.129812
-0.130624
-0.130988
-0.130896
-0.130348
-0.129342
-0.127885
-0.125989
-0.123671
-0.120955
-0.117869
-0.114452
-0.110744
-0.106792
-0.102647
-0.0983648
-0.0940003
-0.0896112
-0.0852542
-0.0809851
-0.0768565
-0.0729178
-0.0692135
-0.0657823
-0.0626567
-0.0598632
-0.0574159
-0.05532
-0.0535783
-0.052183
-0.0511141
-0.0503429
-0.0498334
-0.049542
-0.049419
-0.0494099
-0.0494596
-0.0495104
-0.0495093
-0.0494047
-0.0491514
-0.048712
-0.0480578
-0.0471698
-0.0460385
-0.0446643
-0.0430559
-0.0412307
-0.039211
-0.0370266
-0.0347075
-0.0322901
-0.0298058
-0.0272932
-0.0247794
-0.0223028
-0.0198814
-0.0175521
-0.0153205
-0.013222
-0.011247
-0.00943037
-0.00774531
-0.00622518
-0.004829
-0.00358151
-0.00244132
-0.00140179
-0.000458542
-0.118097
-0.120652
-0.12278
-0.124484
-0.125764
-0.126618
-0.12704
-0.127027
-0.12658
-0.125701
-0.124398
-0.122684
-0.120577
-0.118099
-0.115279
-0.11215
-0.108752
-0.105126
-0.10132
-0.0973817
-0.0933621
-0.0893127
-0.0852843
-0.0813265
-0.0774867
-0.0738087
-0.070332
-0.0670914
-0.0641156
-0.0614274
-0.0590395
-0.0569598
-0.0551859
-0.0537125
-0.0525231
-0.0515929
-0.0508907
-0.050379
-0.0500153
-0.0497532
-0.0495456
-0.049344
-0.0491022
-0.0487765
-0.0483286
-0.0477264
-0.0469449
-0.0459674
-0.044785
-0.0433973
-0.0418108
-0.0400395
-0.0381016
-0.0360219
-0.0338256
-0.0315435
-0.0292022
-0.026835
-0.0244652
-0.022126
-0.0198331
-0.0176185
-0.0154871
-0.0134697
-0.0115578
-0.00978134
-0.00811722
-0.00659342
-0.00517533
-0.00388163
-0.00268026
-0.0015582
-0.000521388
-0.114357
-0.116907
-0.119042
-0.120763
-0.122073
-0.122969
-0.123451
-0.123515
-0.123164
-0.122405
-0.121246
-0.1197
-0.117785
-0.115523
-0.112941
-0.110072
-0.10695
-0.103614
-0.100107
-0.0964736
-0.0927588
-0.089009
-0.0852703
-0.0815869
-0.0780014
-0.0745528
-0.0712768
-0.0682042
-0.0653606
-0.0627658
-0.0604336
-0.0583695
-0.0565709
-0.0550327
-0.053742
-0.0526777
-0.0518127
-0.0511149
-0.0505475
-0.0500717
-0.0496462
-0.0492302
-0.0487838
-0.04827
-0.0476557
-0.0469134
-0.0460214
-0.044965
-0.0437358
-0.0423331
-0.0407614
-0.0390323