/*--------------------------------*- C++ -*----------------------------------*\
  =========                 |
  \\      /  F ield         | OpenFOAM: The Open Source CFD Toolbox
   \\    /   O peration     | Website:  https://openfoam.org
    \\  /    A nd           | Version:  7
     \\/     M anipulation  |
\*---------------------------------------------------------------------------*/
FoamFile
{
    version     2.0;
    format      ascii;
    class       surfaceScalarField;
    location    "84.999";
    object      phi;
}
// * * * * * * * * * * * * * * * * * * * * * * * * * * * * * * * * * * * * * //

dimensions      [0 3 -1 0 0 0 0];

internalField   nonuniform List<scalar> 
7273
(
-0.00120128
0.000645636
-0.00121436
0.000754312
-0.00122269
0.000854054
-0.00122674
0.00093821
-0.00122692
0.00100017
-0.00122358
0.00103356
-0.00121699
0.00103258
-0.00120727
0.000992312
-0.0011945
0.000909085
-0.00117869
0.000780668
-0.00115979
0.000606244
-0.00113771
0.000386971
-0.00111218
0.000125373
-0.00108404
-0.000171206
-0.00105367
-0.0004975
-0.00102152
-0.000843884
-0.000988214
-0.00119992
-0.000954438
-0.0015545
-0.000920819
-0.00189596
-0.000887529
-0.00221307
-0.000854163
-0.00249505
-0.000819563
-0.00273178
-0.00078168
-0.00291383
-0.000737867
-0.00303193
-0.000685039
-0.00307761
-0.000620029
-0.00304358
-0.000540332
-0.00292459
-0.000443912
-0.00271816
-0.000330326
-0.002425
-0.000200589
-0.00205023
-5.66713e-05
-0.00160211
9.90482e-05
-0.00109552
0.000261309
-0.000544049
0.00042431
3.31819e-05
0.000583075
0.000616966
0.00073235
0.00118794
0.00086697
0.00172992
0.000981446
0.00223162
0.00107099
0.0026849
0.0011319
0.00308634
0.0011624
0.00343601
0.00116354
0.00373576
0.00114008
0.00398637
0.00110102
0.00418447
0.00105905
0.00432044
0.00102887
0.00437862
0.00102432
0.00434044
0.00105555
0.00418957
0.00112705
0.00391731
0.00123738
0.00352601
0.00138051
0.00302913
0.00154789
0.00244855
0.00173056
0.0018106
0.00192048
0.00114252
0.00211097
0.000470323
0.00229607
-0.000181813
0.00247117
-0.000794465
0.00263191
-0.00135076
0.00277438
-0.00183881
0.00289521
-0.00225177
0.00299166
-0.00258805
0.00306165
-0.00285058
0.00310356
-0.00304611
0.00311585
-0.00318413
0.00309671
-0.00327654
0.00304414
-0.00333705
0.00295693
-0.0033808
0.00283689
-0.00342083
0.00269116
-0.00346336
0.00253336
-0.00350091
0.00238199
-0.00350906
0.00225614
-0.00345365
0.00217069
-0.00328563
0.00213093
-0.00300341
0.00213557
-0.00251074
0.00217069
-0.00204852
-0.00101276
-0.00111147
0.000656859
-0.00111748
0.000760323
-0.00111881
0.000855378
-0.00111596
0.000935366
-0.00110942
0.000993625
-0.00109957
0.00102371
-0.00108674
0.00101976
-0.00107109
0.000976665
-0.00105283
0.000890819
-0.0010321
0.000759941
-0.00100898
0.000583123
-0.000983597
0.000361591
-0.000956035
9.78114e-05
-0.00092704
-0.000200201
-0.000897253
-0.000527286
-0.000867488
-0.000873649
-0.000838686
-0.00122873
-0.000811813
-0.00158137
-0.000787882
-0.00191989
-0.000767353
-0.0022336
-0.000750014
-0.00251239
-0.000734856
-0.00274693
-0.000719748
-0.00292894
-0.000701757
-0.00304992
-0.000677164
-0.0031022
-0.000641997
-0.00307875
-0.000592738
-0.00297385
-0.000526293
-0.0027846
-0.000441058
-0.00251024
-0.00033701
-0.00215428
-0.000215467
-0.00172366
-8.00174e-05
-0.00123097
6.71679e-05
-0.000691235
0.000220672
-0.000120322
0.00037227
0.000465369
0.000516936
0.00104327
0.000649552
0.00159731
0.00076444
0.00211673
0.000857048
0.0025923
0.000924296
0.00301909
0.000965456
0.00339485
0.000982945
0.00371827
0.000982852
0.00398646
0.000974827
0.0041925
0.000971115
0.00432415
0.000984525
0.00436522
0.0010258
0.00429917
0.00110139
0.00411398
0.00121241
0.00380629
0.00135515
0.00338327
0.00152269
0.0028616
0.00170692
0.00226432
0.00190018
0.00161735
0.00209594
0.000946764
0.00228903
0.000277226
0.00247435
-0.000367129
0.00264809
-0.00096821
0.00280629
-0.00150896
0.00294534
-0.00197785
0.00306218
-0.00236861
0.00315448
-0.00268036
0.00322066
-0.00291675
0.00325966
-0.00308512
0.00327059
-0.00319506
0.00325218
-0.00325814
0.00320247
-0.00328734
0.00311928
-0.00329761
0.00300203
-0.00330358
0.00285454
-0.00331588
0.00268734
-0.0033337
0.00251735
-0.00333906
0.00236485
-0.00330115
0.00224801
-0.00316879
0.00217743
-0.00293283
0.0021552
-0.0024885
0.0021719
-0.00206523
-0.00105595
-0.000967772
0.000659868
-0.000965608
0.000758159
-0.000958841
0.000848611
-0.000948025
0.00092455
-0.000933662
0.000979261
-0.000916204
0.00100626
-0.000896052
0.000999605
-0.000873392
0.000954005
-0.000848577
0.000866003
-0.000821903
0.000733267
-0.000793574
0.000554794
-0.000763923
0.000331939
-0.000733361
6.72501e-05
-0.000702542
-0.000231021
-0.000672365
-0.000557463
-0.000643945
-0.000902069
-0.000618491
-0.00125418
-0.000597213
-0.00160265
-0.000581596
-0.00193551
-0.000572404
-0.00224279
-0.000569652
-0.00251514
-0.000572693
-0.00274389
-0.00057956
-0.00292207
-0.000587144
-0.00304234
-0.000591191
-0.00309815
-0.000586926
-0.00308302
-0.000570008
-0.00299077
-0.000536158
-0.00281845
-0.000482627
-0.00256377
-0.000408275
-0.00222863
-0.000313647
-0.00181828
-0.000201259
-0.00134335
-7.51777e-05
-0.000817316
6.16381e-05
-0.000257138
0.000203328
0.000323679
0.000340885
0.000905718
0.000470038
0.00146816
0.000585047
0.00200172
0.000681681
0.00249566
0.000757499
0.00294327
0.000812665
0.00333968
0.000850532
0.0036804
0.000877805
0.00395919
0.00090397
0.00416633
0.000939893
0.00428823
0.000995874
0.00430923
0.00107942
0.00421563
0.00119371
0.00399969
0.00133735
0.00366265
0.00150531
0.00321532
0.00169065
0.00267626
0.00188623
0.00206874
0.00208581
0.00141776
0.0022844
0.000748178
0.00247764
8.39896e-05
0.00266147
-0.000550967
0.00283238
-0.00113912
0.00298666
-0.00166323
0.00312093
-0.00211213
0.00323245
-0.00248013
0.00331929
-0.00276721
0.00338036
-0.00297781
0.00341517
-0.00311992
0.00342347
-0.00320336
0.0034047
-0.00323937
0.00335733
-0.00323997
0.00327887
-0.00321915
0.00316707
-0.00319178
0.00302261
-0.00317142
0.00285229
-0.00316338
0.00267018
-0.00315696
0.00249626
-0.00312723
0.00235085
-0.00302338
0.00224961
-0.0028316
0.00219859
-0.00243748
0.00219406
-0.0020607
-0.00108731
-0.000774062
0.000653716
-0.000762839
0.000746935
-0.000747094
0.000832866
-0.000727409
0.000904865
-0.000704321
0.000956174
-0.000678347
0.000980281
-0.000649995
0.000971253
-0.000619438
0.000923449
-0.000587225
0.000833791
-0.000553796
0.000699838
-0.000519485
0.000520483
-0.000484742
0.000297196
-0.000450303
3.2812e-05
-0.000416746
-0.000264578
-0.000385239
-0.00058897
-0.000357122
-0.000930186
-0.00033381
-0.00127749
-0.000316636
-0.00161982
-0.000307693
-0.00194445
-0.000308035
-0.00224245
-0.000317783
-0.00250539
-0.000336959
-0.00272472
-0.000364013
-0.00289502
-0.000395747
-0.0030106
-0.000427549
-0.00306635
-0.000453897
-0.00305667
-0.000469862
-0.00297481
-0.000469907
-0.00281841
-0.000450138
-0.00258354
-0.000408231
-0.00227054
-0.00034384
-0.00188268
-0.000258574
-0.00142862
-0.000155412
-0.000920478
-4.00423e-05
-0.000372507
8.65412e-05
0.000197095
0.00021477
0.000777489
0.000338976
0.00134395
0.000453743
0.00188695
0.000555144
0.00239426
0.000641286
0.00285713
0.000712902
0.00326807
0.000773706
0.0036196
0.000830266
0.00390263
0.000891145
0.00410545
0.000965305
0.00421407
0.00106032
0.00421422
0.00118068
0.00409526
0.00132699
0.00385338
0.00149615
0.00349349
0.00168266
0.0030288
0.00188014
0.00247878
0.00208264
0.00186624
0.00228531
0.0012151
0.0024845
0.000548979
0.00267577
-0.000107281
0.00285679
-0.000731979
0.0030235
-0.00130583
0.00317248
-0.00181222
0.00330062
-0.00224026
0.00340548
-0.002585
0.0034856
-0.00284732
0.00354034
-0.00303256
0.0035698
-0.00314938
0.00357429
-0.00320786
0.00355394
-0.00321901
0.00350792
-0.00319395
0.00343398
-0.00314521
0.00332901
-0.00308681
0.00319113
-0.00303354
0.00302333
-0.00299558
0.00283589
-0.00296951
0.00264689
-0.00293824
0.00247731
-0.00285379
0.00234717
-0.00270145
0.00226655
-0.00235686
0.00223831
-0.00203246
-0.0011048
-0.000534928
-0.000514129
0.000726136
-0.00048885
0.000807587
-0.000459691
0.000875706
-0.000427232
0.000923714
-0.00039207
0.00094512
-0.000354883
0.000934066
-0.000315735
0.0008843
-0.000275395
0.000793451
-0.000234473
0.000658915
-0.000193445
0.000479455
-0.000152843
0.000256594
-0.000113484
-6.54735e-06
-7.6058e-05
-0.000302004
-4.18493e-05
-0.000623179
-1.22503e-05
-0.000959785
1.0671e-05
-0.00130041
2.38742e-05
-0.00163303
2.7469e-05
-0.00194805
1.94524e-05
-0.00223443
-2.04671e-06
-0.0024839
-3.53674e-05
-0.0026914
-8.00918e-05
-0.00285029
-0.000133269
-0.00295743
-0.000190425
-0.0030092
-0.000245539
-0.00300156
-0.00029348
-0.00292686
-0.000327289
-0.0027846
-0.000341907
-0.00256892
-0.000333817
-0.00227863
-0.000301619
-0.00191487
-0.000246053
-0.00148419
-0.000169092
-0.000997439
-7.51229e-05
-0.000466477
3.10246e-05
9.09477e-05
0.000148203
0.00066031
0.000265897
0.00122626
0.000379728
0.00177312
0.000485998
0.00228799
0.000583172
0.00275995
0.000672169
0.00317907
0.000756518
0.00353525
0.000842013
0.00381713
0.000935732
0.00401173
0.0010445
0.0041053
0.00117326
0.00408546
0.00132398
0.00394453
0.00149536
0.00368201
0.00168339
0.00330546
0.00188266
0.00282953
0.00208767
0.00227377
0.00229367
0.00166024
0.0024969
0.00101187
0.00269456
0.000351318
0.0028829
-0.00029562
0.00305947
-0.000908555
0.0032206
-0.00146696
0.00336291
-0.00195453
0.00348352
-0.00236087
0.00358041
-0.00268189
0.00365257
-0.00291948
0.00369991
-0.00307991
0.00372302
-0.00317248
0.00372272
-0.00320756
0.00369972
-0.00319602
0.00365391
-0.00314813
0.00358366
-0.00307497
0.00348577
-0.00298891
0.00335667
-0.00290444
0.00319597
-0.00283489
0.00300961
-0.00278315
0.00281253
-0.00274116
0.00262459
-0.00266586
0.00246896
-0.00254582
0.00235938
-0.00224728
0.00230562
-0.0019787
-0.00110643
-0.000224666
0.000695768
-0.000189755
0.000772676
-0.000150829
0.00083678
-0.000108483
0.000881368
-6.33627e-05
0.000899999
-1.58449e-05
0.000886549
3.1451e-05
0.000837004
7.86232e-05
0.000746279
0.000125746
0.000611792
0.000172106
0.000433096
0.000217075
0.000211624
0.000260065
-4.9537e-05
0.000299866
-0.000341805
0.000335318
-0.000658631
0.000365008
-0.000989475
0.000387341
-0.00132275
0.000400701
-0.00164639
0.000402518
-0.00194986
0.00039107
-0.00222298
0.000365221
-0.00245805
0.000323083
-0.00264926
0.000265307
-0.00279252
0.000194184
-0.0028863
0.000113733
-0.00292875
2.93194e-05
-0.00291714
-4.69792e-05
-0.00285057
-0.000112173
-0.00271941
-0.000159972
-0.00252112
-0.000185589
-0.00225301
-0.000186127
-0.00191433
-0.000161587
-0.00150873
-0.000112615
-0.00104641
-4.3167e-05
-0.000535925
4.55641e-05
2.21657e-06
0.000148385
0.00055749
0.000257786
0.00111685
0.000369406
0.0016615
0.000479751
0.00217764
0.000587374
0.00265233
0.000693
0.00307344
0.000799529
0.00342872
0.000911545
0.00370512
0.00103434
0.00388893
0.00117258
0.00396707
0.00132888
0.00392916
0.00150324
0.00377017
0.00169311
0.00349215
0.00189414
0.00310442
0.00210139
0.00262228
0.00231027
0.00206488
0.00251711
0.0014534
0.00271902
0.00080996
0.00291352
0.000156825
0.00309753
-0.000479632
0.00326835
-0.00107938
0.00342249
-0.00162109
0.00355669
-0.00208872
0.00366839
-0.00247257
0.00375602
-0.00276952
0.00381911
-0.00298257
0.00385809
-0.00311889
0.00387403
-0.00318842
0.00386819
-0.00320173
0.00384172
-0.00316955
0.00379511
-0.00310152
0.0037275
-0.00300736
0.00363614
-0.00289755
0.00351673
-0.00278503
0.00336634
-0.0026845
0.00318663
-0.00260343
0.00298847
-0.002543
0.00278899
-0.00246638
0.00261286
-0.0023697
0.00247657
-0.00211099
0.00239652
-0.00189864
-0.00109052
0.000100881
0.000656515
0.000144406
0.000729151
0.0001918
0.000789386
0.000242277
0.000830891
0.000295005
0.00084727
0.000349097
0.000832458
0.000404175
0.000781926
0.000459284
0.000691169
0.000513609
0.000557467
0.000566433
0.000380272
0.000616922
0.000161135
0.000664846
-9.7461e-05
0.00070843
-0.000385388
0.000746697
-0.000696898
0.000778286
-0.00102106
0.000801598
-0.00134606
0.000814913
-0.0016597
0.000815993
-0.00195094
0.000802863
-0.00220985
0.000773329
-0.00242851
0.000725617
-0.00260155
0.000659824
-0.00272672
0.000577392
-0.00280387
0.000481768
-0.00283312
0.00037871
-0.00281408
0.000273977
-0.00274583
0.000176455
-0.00262188
9.37047e-05
-0.00243837
3.16206e-05
-0.00219093
-4.03815e-06
-0.00187868
-9.57264e-06
-0.00150319
1.1902e-05
-0.00106789
6.18491e-05
-0.000585872
0.000132015
-6.79497e-05
0.00021837
0.000471135
0.000317605
0.00101762
0.000425275
0.00155383
0.000538062
0.00206486
0.000654351
0.00253604
0.000774381
0.00295342
0.000900112
0.00330299
0.0010347
0.00357053
0.00118159
0.00374204
0.00134338
0.00380528
0.00152081
0.00375174
0.00171241
0.00357856
0.00191491
0.00328965
0.00212402
0.00289531
0.0023354
0.0024109
0.00254533
0.00185495
0.00275092
0.00124781
0.00295006
0.000610814
0.00313975
-3.28586e-05
0.00331819
-0.000658077
0.00348191
-0.0012431
0.00362762
-0.0017668
0.00375227
-0.00221338
0.0038537
-0.00257401
0.00393086
-0.00284668
0.00398387
-0.00303558
0.00401369
-0.00314871
0.00402185
-0.00319657
0.00400995
-0.00318983
0.00397947
-0.00313907
0.00393133
-0.00305338
0.00386534
-0.00294137
0.00377953
-0.00281174
0.0036697
-0.0026752
0.00353141
-0.00254621
0.00336263
-0.00243466
0.00316988
-0.00235024
0.0029661
-0.0022626
0.00277574
-0.00217934
0.00261672
-0.00195197
0.00251092
-0.00179285
-0.00105587
0.000459821
0.000611582
0.000509779
0.000679193
0.000563992
0.000735173
0.00062159
0.000773293
0.000681644
0.000787217
0.000743139
0.000770963
0.000805339
0.000719725
0.000867221
0.000629288
0.000927841
0.000496846
0.00098641
0.000321704
0.00104177
0.000105774
0.00109402
-0.000149708
0.00114088
-0.000432251
0.00118153
-0.000737543
0.00121465
-0.00105419
0.00123876
-0.00137017
0.0012522
-0.00167314
0.00125293
-0.00195167
0.00123869
-0.00219561
0.00120712
-0.00239694
0.00115672
-0.00255114
0.00108682
-0.00265683
0.000997947
-0.002715
0.000892467
-0.00272764
0.000774964
-0.00269658
0.00065138
-0.00262225
0.000530419
-0.00250092
0.000420595
-0.00232855
0.00032982
-0.00210016
0.000264011
-0.00181287
0.000226398
-0.00146558
0.000218921
-0.00106041
0.000240162
-0.000607114
0.000287372
-0.000115159
0.000356332
0.000402175
0.000443813
0.000930138
0.000545676
0.00145197
0.000658718
0.00195182
0.000781035
0.00241373
0.000912206
0.00282224
0.00105312
0.00316208
0.00120544
0.0034182
0.00137086
0.00357662
0.00155019
0.00362595
0.00174263
0.00355929
0.00194575
0.00337545
0.00215592
0.00307947
0.00236912
0.00268212
0.00258158
0.00219844
0.00279031
0.00164623
0.00299296
0.00104516
0.00318775
0.000416023
0.00337176
-0.000216871
0.00354311
-0.000829431
0.00369832
-0.00139831
0.00383413
-0.00190261
0.00394782
-0.00232706
0.00403769
-0.00266388
0.00410331
-0.0029123
0.0041454
-0.00307767
0.00416545
-0.00316876
0.0041654
-0.00319651
0.00414714
-0.00317158
0.00411236
-0.00310429
0.00406224
-0.00300325
0.00399709
-0.00287622
0.00391577
-0.00273042
0.00381471
-0.00257414
0.00368903
-0.00242054
0.00353403
-0.00227966
0.00335208
-0.00216829
0.00315111
-0.00206163
0.00295361
-0.00198184
0.0027774
-0.00177576
0.00264794
-0.00166339
-0.00100203
0.000851778
0.000564183
0.000905137
0.000625834
0.000963574
0.000676737
0.00102606
0.000710807
0.00109149
0.000721787
0.00115868
0.000703777
0.00122658
0.000651818
0.00129402
0.000561852
0.00135982
0.000431045
0.00142319
0.000258338
0.00148256
4.63975e-05
0.00153819
-0.000205337
0.00158749
-0.000481552
0.00162971
-0.000779758
0.00166361
-0.00108809
0.00168782
-0.00139438
0.00170081
-0.00168612
0.00170062
-0.00195148
0.00168511
-0.00218011
0.00165255
-0.00236438
0.00160141
-0.0025
0.0015306
-0.00258602
0.00143984
-0.00262423
0.00133031
-0.00261811
0.00120515
-0.00257142
0.00106948
-0.00248657
0.000931141
-0.00236259
0.000799023
-0.00219643
0.000682102
-0.00198323
0.000587737
-0.0017185
0.000521184
-0.00139903
0.000485551
-0.00102478
0.00048089
-0.000602453
0.000505712
-0.00013998
0.000556784
0.000351103
0.000631294
0.000855628
0.000725525
0.00135774
0.000836371
0.00184097
0.000961615
0.00228848
0.00110013
0.00268373
0.00125172
0.00301049
0.00141666
0.00325327
0.00159506
0.00339822
0.00178622
0.00343479
0.00198821
0.0033573
0.00219795
0.00316571
0.00241173
0.0028657
0.00262582
0.00246804
0.00283699
0.00198727
0.00304272
0.0014405
0.00324105
0.000846828
0.0034301
0.000226977
0.00360728
-0.000394049
0.0037702
-0.000992349
0.00391546
-0.00154357
0.00403994
-0.00202709
0.00414131
-0.00242842
0.00421846
-0.00274104
0.00427164
-0.00296548
0.00430217
-0.0031082
0.00431206
-0.00317865
0.00430357
-0.00318803
0.00427886
-0.00314686
0.0042397
-0.00306513
0.00418743
-0.00295098
0.00412263
-0.00281143
0.00404488
-0.00265267
0.00395147
-0.00248072
0.00383795
-0.00230702
0.00369806
-0.00213977
0.00353089
-0.00200113
0.00333911
-0.00186985
0.00314177
-0.00178449
0.00295516
-0.00158915
0.00280575
-0.00151398
-0.000929483
0.00127901
0.000519669
0.00133112
0.000573732
0.00138971
0.000618145
0.00145355
0.000646967
0.00152129
0.000654043
0.00159152
0.000633547
0.00166287
0.000580465
0.0017339
0.000490827
0.0018031
0.000361847
0.00186921
0.000192224
0.00193237
-1.67617e-05
0.00198944
-0.000262403
0.00203986
-0.000531972
0.00208238
-0.000822282
0.0021158
-0.00112152
0.00213881
-0.00141738
0.00214989
-0.0016972
0.00214751
-0.00194911
0.00213026
-0.00216286
0.00209676
-0.00233088
0.00204569
-0.00244893
0.00197589
-0.00251621
0.00188662
-0.00253497
0.00177807
-0.00250957
0.00165191
-0.00244526
0.00151176
-0.00234642
0.00136395
-0.00221478
0.00121678
-0.00204926
0.00107957
-0.00184602
0.000961045
-0.00159998
0.000868368
-0.00130635
0.00080642
-0.000962827
0.000776862
-0.000572896
0.00077949
-0.000142608
0.000812252
0.000318341
0.000872684
0.000795197
0.000957489
0.00127293
0.00106362
0.00173484
0.00118857
0.00216354
0.00133051
0.00254178
0.00148827
0.00285274
0.00166087
0.00308067
0.00184708
0.003212
0.00204501
0.00323686
0.00225187
0.00315044
0.0024642
0.00295338
0.00267831
0.00265159
0.00289077
0.00225558
0.00309873
0.0017793
0.00330002
0.00123921
0.00349273
0.000654118
0.00367493
4.47845e-05
0.00384398
-0.000563097
0.00399713
-0.0011455
0.00413103
-0.00167747
0.00424279
-0.00213885
0.00433059
-0.00251622
0.00439404
-0.00280449
0.00443408
-0.00300552
0.00445266
-0.00312678
0.00445223
-0.00317821
0.00443533
-0.00317112
0.00440423
-0.00311576
0.00436081
-0.00302172
0.00430641
-0.00289658
0.00424176
-0.00274678
0.00416691
-0.00257782
0.00408001
-0.00239382
0.00397758
-0.00220459
0.0038529
-0.00201509
0.0037029
-0.00185113
0.00352544
-0.00169239
0.00333515
-0.0015942
0.00314563
-0.00139963
0.00298146
-0.00134981
-0.000839811
0.00174508
0.00178996
0.000528852
0.00184337
0.000564737
0.00190382
0.000586523
0.00196968
0.000588183
0.00203925
0.000563974
0.00211083
0.00050889
0.00218264
0.000419017
0.00225282
0.000291662
0.00231955
0.000125493
0.002384
-8.12105e-05
0.00244081
-0.000319215
0.00249048
-0.000581636
0.00253137
-0.000863173
0.00256226
-0.00115241
0.002582
-0.00143712
0.00258952
-0.00170472
0.00258375
-0.00194335
0.00256374
-0.00214285
0.00252858
-0.00229572
0.00247737
-0.00239772
0.0024092
-0.00244804
0.00232327
-0.00244905
0.0022192
-0.0024055
0.00209744
-0.0023235
0.00195997
-0.00220895
0.0018111
-0.00206591
0.00165757
-0.00189572
0.00150803
-0.00169648
0.0013718
-0.00146375
0.00125756
-0.0011921
0.00117212
-0.00087739
0.00111915
-0.000519927
0.00110016
-0.000123619
0.00111419
0.00030431
0.00115948
0.000749908
0.00123311
0.0011993
0.00133209
0.00163586
0.00145361
0.00204202
0.00159527
0.00240012
0.00175499
0.00269302
0.00193074
0.00290491
0.00212022
0.00302252
0.00232058
0.0030365
0.00252844
0.00294259
0.0027401
0.00274171
0.00295194
0.00243974
0.00316078
0.00204674
0.00336401
0.00157607
0.00355957
0.00104365
0.00374567
0.000468017
0.00391966
-0.000129207
0.0040794
-0.00072284
0.00422143
-0.00128754
0.00434256
-0.00179859
0.00444028
-0.00223657
0.00451344
-0.00258938
0.00456243
-0.00285348
0.00458892
-0.00303201
0.00459544
-0.0031333
0.00458478
-0.00316756
0.00455969
-0.00314603
0.0045225
-0.00307857
0.00447507
-0.00297429
0.00441873
-0.00284023
0.00435422
-0.00268227
0.00428188
-0.00250548
0.00420053
-0.00231248
0.00410786
-0.00211192
0.00399755
-0.00190478
0.00386557
-0.00171914
0.00370602
-0.00153284
0.00352866
-0.00141684
0.00334378
-0.00121475
0.00317126
-0.00117729
-0.000735791
0.00228275
0.000497652
0.00232501
0.000522478
0.00237657
0.000534962
0.00243554
0.000529218
0.0024999
0.000499612
0.00256759
0.000441204
0.00263646
0.000350146
0.00270451
0.000223611
0.00276873
6.12675e-05
0.00283081
-0.00014329
0.00288481
-0.000373211
0.00293106
-0.000627884
0.00296791
-0.000900031
0.0029942
-0.0011787
0.00300893
-0.00145184
0.00301128
-0.00170708
0.00300064
-0.0019327
0.0029765
-0.00211871
0.00293849
-0.0022577
0.00288624
-0.00234547
0.00281932
-0.00238113
0.00273721
-0.00236693
0.00263937
-0.00230765
0.00252554
-0.00220967
0.00239631
-0.00207972
0.00225395
-0.00192355
0.00210301
-0.00174478
0.00195042
-0.0015439
0.00180492
-0.00131826
0.00167582
-0.001063
0.00157153
-0.000773106
0.00149789
-0.000446281
0.00145841
-8.41418e-05
0.00145364
0.000309075
0.00148289
0.00072066
0.00154374
0.00113845
0.00163329
0.0015463
0.00174852
0.00192678
0.00188652
0.00226212
0.00204447
0.00253508
0.00221947
0.00272991
0.00240835
0.00283364
0.00260755
0.0028373
0.00281327
0.00273687
0.00302168
0.0025333
0.00322923
0.0022322
0.00343285
0.00184312
0.00363007
0.00137885
0.00381881
0.000854914
0.00399702
0.00028981
0.00416202
-0.000294214
0.004311
-0.000871819
0.00444051
-0.00141705
0.00454749
-0.00190557
0.00463
-0.00231908
0.00468767
-0.00264705
0.00472173
-0.00288754
0.00473457
-0.00304484
0.00472919
-0.00312793
0.00470868
-0.00314704
0.00467584
-0.00311319
0.00463299
-0.00303573
0.00458194
-0.00292324
0.00452396
-0.00278225
0.00445973
-0.00261805
0.00438974
-0.00243549
0.00431326
-0.00223599
0.00422905
-0.00202771
0.00413173
-0.00180746
0.00401732
-0.00160473
0.00387762
-0.00139314
0.00371761
-0.00125682
0.00354424
-0.00104138
0.00337054
-0.00100359
-0.0006213
0.00280535
0.000485707
0.00283092
0.000496912
0.00286819
0.000497689
0.00291504
0.000482365
0.00296921
0.000445449
0.00302828
0.000382133
0.00308971
0.000288716
0.00315143
0.000161887
0.00321002
2.67903e-06
0.00326595
-0.000199223
0.00331414
-0.000421399
0.00335427
-0.000668014
0.00338469
-0.000930451
0.00340422
-0.00119823
0.00341198
-0.0014596
0.00340743
-0.00170252
0.00339029
-0.00191556
0.00336053
-0.00208895
0.00331831
-0.00221548
0.00326384
-0.002291
0.00319727
-0.00231455
0.00311851
-0.00228817
0.00302723
-0.00221638
0.00292296
-0.0021054
0.00280541
-0.00196217
0.00267519
-0.00179334
0.0025346
-0.00160419
0.00238823
-0.00139753
0.00224305
-0.00117307
0.00210775
-0.000927703
0.0019915
-0.000656849
0.00190185
-0.000356631
0.00184424
-2.65354e-05
0.00182154
0.00033178
0.00183435
0.00070785
0.00188109
0.00109171
0.00195922
0.00146818
0.00206564
0.00182037
0.00219704
0.00213072
0.00235001
0.00238211
0.00252096
0.00255897
0.00270604
0.00264856
0.00290118
0.00264216
0.00310228
0.00253577
0.00330541
0.00233017
0.00350703
0.00203057
0.00370416
0.00164599
0.00389428
0.00118873
0.00407512
0.000674069
0.00424448
0.000120453
0.0043992
-0.000448936
0.00453606
-0.00100868
0.00465163
-0.00153261
0.00474319
-0.00199713
0.00480952
-0.00238542
0.00485115
-0.00268868
0.00487017
-0.00290656
0.00486959
-0.00304426
0.00485282
-0.00311115
0.00482305
-0.00311728
0.00478311
-0.00307325
0.00473521
-0.00298783
0.00468104
-0.00286906
0.00462179
-0.00272299
0.00455808
-0.00255434
0.00449044
-0.00236785
0.00441839
-0.00216394
0.00434153
-0.00195086
0.00425563
-0.00172156
0.00415743
-0.00150654
0.00403798
-0.00127369
0.00389802
-0.00111687
0.00374174
-0.000885095
0.00357415
-0.000836001
-0.000501097
0.00334466
0.000496052
0.00334997
0.000491602
0.00336901
0.000478642
0.00339957
0.000451803
0.00343925
0.000405769
0.00348543
0.000335955
0.00353524
0.000238904
0.0035856
0.00011153
0.00363721
-4.89311e-05
0.00368242
-0.000244432
0.00372158
-0.000460564
0.0037528
-0.000699232
0.00377431
-0.000951963
0.0037849
-0.00120881
0.00378378
-0.00145848
0.00377061
-0.00168936
0.00374546
-0.00189041
0.00370872
-0.00205221
0.00366104
-0.00216781
0.00360321
-0.00223317
0.00353594
-0.00224728
0.00345968
-0.00221191
0.00337448
-0.00213118
0.00327996
-0.00201088
0.0031755
-0.0018577
0.00306066
-0.00167849
0.00293592
-0.00147945
0.00280349
-0.0012651
0.00266791
-0.0010375
0.00253609
-0.000795879
0.00241662
-0.000537379
0.00231823
-0.000258247
0.0022463
4.53938e-05
0.00220839
0.000369691
0.00220544
0.000710802
0.00223748
0.00105967
0.00230269
0.00140296
0.0023982
0.00172486
0.00252052
0.0020084
0.00266582
0.00223681
0.00282997
0.00239481
0.00300864
0.00246989
0.00319739
0.00245341
0.00339189
0.00234127
0.00358811
0.00213395
0.00378251
0.00183618
0.00397204
0.00145645
0.00415406
0.00100672
0.0043259
0.000502225
0.00448533
-3.89749e-05
0.00462841
-0.000592015
0.00475174
-0.00113202
0.004852
-0.00163287
0.00492703
-0.00207217
0.00497652
-0.0024349
0.00500195
-0.00271411
0.0050062
-0.00291081
0.00499281
-0.00303088
0.00496543
-0.00308377
0.00492727
-0.00307912
0.00488103
-0.00302702
0.0048288
-0.00293559
0.00477209
-0.00281236
0.004712
-0.00266291
0.00464911
-0.00249144
0.0045839
-0.00230264
0.00451604
-0.00209608
0.00444569
-0.00188051
0.00436972
-0.00164558
0.00428588
-0.0014227
0.00418583
-0.00117363
0.00406695
-0.000997989
0.00393155
-0.000749694
0.0037768
-0.000681251
-0.000380468
0.00387716
0.00386186
0.000506903
0.00386145
0.00047905
0.00387379
0.000439465
0.00389653
0.000383033
0.003927
0.000305487
0.00396237
0.000203526
0.00399962
7.42811e-05
0.00403803
-8.73409e-05
0.00407099
-0.000277387
0.0040986
-0.000488175
0.00411852
-0.000719159
0.00412899
-0.000962431
0.00412876
-0.00120858
0.00411715
-0.00144687
0.00409398
-0.00166619
0.00405962
-0.00185605
0.00401485
-0.00200744
0.00396078
-0.00211374
0.00389873
-0.00217112
0.00382994
-0.00217849
0.00375535
-0.00213732
0.00367543
-0.00205126
0.00359009
-0.00192554
0.0034987
-0.00176631
0.00340035
-0.00158014
0.00329437
-0.00137347
0.00318108
-0.00115181
0.00306256
-0.000918975
0.00294325
-0.000676575
0.00282995
-0.000424081
0.00273114
-0.000159433
0.00265269
0.000123842
0.00260367
0.000418716
0.00258733
0.000727135
0.00260533
0.00104168
0.00265705
0.00135125
0.00274023
0.00164168
0.00285154
0.00189709
0.00298697
0.00210138
0.0031421
0.00223969
0.00331225
0.00229974
0.00349271
0.00227294
0.003679
0.00215499
0.00386696
0.00194598
0.00405298
0.00165016
0.00423389
0.00127554
0.00440684
0.000833777
0.00456868
0.000340383
0.00471681
-0.000187111
0.00484685
-0.000722046
0.00495518
-0.00124035
0.00503885
-0.00171654
0.00509653
-0.00212985
0.0051289
-0.00246727
0.00513839
-0.00272361
0.00512858
-0.002901
0.00510336
-0.00300566
0.00506643
-0.00304683
0.00502091
-0.0030336
0.00496932
-0.00297544
0.00491355
-0.00287981
0.00485496
-0.00275377
0.00479451
-0.00260246
0.00473274
-0.00242966
0.0046701
-0.00224001
0.00460634
-0.00203232
0.00454189
-0.00181606
0.00447461
-0.00157829
0.00440313
-0.00135123
0.00432078
-0.00109128
0.00422254
-0.000899751
0.00410985
-0.000637005
0.00397343
-0.000544826
-0.000264765
0.00433908
0.000539565
0.00432127
0.000496865
0.00431639
0.000444342
0.00432231
0.000377115
0.0043365
0.000291298
0.00435629
0.00018374
0.00437887
5.16965e-05
0.00440241
-0.000110879
0.00442144
-0.000296414
0.00443582
-0.000502555
0.00444289
-0.000726237
0.0044409
-0.000960441
0.00442863
-0.00119631
0.00440547
-0.0014237
0.00437144
-0.00163217
0.00432718
-0.00181178
0.00427384
-0.00195409
0.00421297
-0.00205287
0.00414632
-0.00210447
0.00407559
-0.00210776
0.00400214
-0.00206387
0.00392682
-0.00197594
0.00384984
-0.00184857
0.00377078
-0.00168725
0.00368863
-0.00149799
0.00360215
-0.00128699
0.00351042
-0.00106008
0.00341362
-0.000822172
0.00331379
-0.000576742
0.00321512
-0.000325413
0.00312501
-6.93268e-05
0.00304846
0.000200398
0.00299507
0.000472099
0.00296995
0.000752258
0.00297645
0.00103518
0.00301552
0.00131217
0.00308601
0.00157119
0.00318517
0.00179793
0.00330918
0.00197737
0.00345356
0.00209531
0.0036135
0.0021398
0.00378416
0.00210228
0.00396089
0.00197826
0.00413946
0.00176741
0.00431608
0.00147353
0.00448739
0.00110423
0.00465026
0.000670913
0.0048008
0.000189844
0.00493619
-0.000322502
0.00505156
-0.000837424
0.00514343
-0.00133222
0.00520947
-0.00178258
0.00524935
-0.00216973
0.00526483
-0.00248275
0.00525917
-0.00271796
0.00523644
-0.00287827
0.00520067
-0.00296988
0.00515548
-0.00300164
0.00510379
-0.0029819
0.00504788
-0.00291953
0.00498942
-0.00282135
0.00492962
-0.00269397
0.00486932
-0.00254216
0.00480899
-0.00236933
0.00474908
-0.0021801
0.00468939
-0.00197263
0.00463043
-0.0017571
0.00457086
-0.00151873
0.00450992
-0.00129028
0.00444312
-0.00102448
0.00436404
-0.000820668
0.00427401
-0.000546976
0.00415967
-0.00043049
-0.000158918
0.00475248
0.000583382
0.00472222
0.000527123
0.00470397
0.000462596
0.00469587
0.000385211
0.00469571
0.000291455
0.0047012
0.000178255
0.00470941
4.34891e-05
0.00471798
-0.000119449
0.00472314
-0.000301579
0.00472389
-0.000503307
0.0047177
-0.00072004
0.0047028
-0.000945547
0.00467808
-0.00117159
0.00464307
-0.0013887
0.00459802
-0.00158711
0.00454385
-0.00175761
0.00448209
-0.00189233
0.00441466
-0.00198544
0.00434368
-0.0020335
0.00427118
-0.00203526
0.00419886
-0.00199155
0.00412787
-0.00190495
0.00405877
-0.00177948
0.00399126
-0.00161974
0.00392435
-0.00143109
0.00385668
-0.00121931
0.00378675
-0.000990145
0.00371352
-0.000748946
0.00363715
-0.000500369
0.0035597
-0.000247965
0.00348527
5.10007e-06
0.00341941
0.000266263
0.0033696
0.000521909
0.00334207
0.000779789
0.00334155
0.0010357
0.00337059
0.00128313
0.00342946
0.00151232
0.00351642
0.00171096
0.00362828
0.00186551
0.00376083
0.00196275
0.00390938
0.00199125
0.00406906
0.00194261
0.00423516
0.00181216
0.00440333
0.00159924
0.00456958
0.00130729
0.0047302
0.000943613
0.00488156
0.000519554
0.00501971
5.16948e-05
0.00514043
-0.000443228
0.00523944
-0.000936434
0.00531351
-0.00140629
0.00536126
-0.00183032
0.00538346
-0.00219193
0.00538286
-0.00248215
0.00536335
-0.00269845
0.00532924
-0.00284416
0.00528449
-0.00292513
0.00523249
-0.00294964
0.00517589
-0.0029253
0.00511672
-0.00286037
0.00505645
-0.00276108
0.00499612
-0.00263364