/*--------------------------------*- C++ -*----------------------------------*\
  =========                 |
  \\      /  F ield         | OpenFOAM: The Open Source CFD Toolbox
   \\    /   O peration     | Website:  https://openfoam.org
    \\  /    A nd           | Version:  7
     \\/     M anipulation  |
\*---------------------------------------------------------------------------*/
FoamFile
{
    version     2.0;
    format      ascii;
    class       volScalarField;
    location    "25";
    object      p;
}
// * * * * * * * * * * * * * * * * * * * * * * * * * * * * * * * * * * * * * //

dimensions      [0 2 -2 0 0 0 0];

internalField   nonuniform List<scalar> 
1360
(
0.0505157
0.0583992
0.0624242
0.075326
0.0837989
0.0908526
0.0971092
0.102511
0.10357
0.107199
0.117445
0.125597
0.131956
0.136801
0.140505
0.143636
0.145989
0.144061
0.159901
0.169725
0.1772
0.182606
0.186243
0.188397
0.189327
0.189273
0.188452
0.186706
0.182139
0.22533
0.233814
0.240054
0.244127
0.246271
0.246784
0.245972
0.244133
0.241545
0.238261
0.233834
0.228652
0.228459
0.306734
0.311634
0.315283
0.317144
0.317118
0.315359
0.312137
0.307749
0.302486
0.296624
0.290397
0.283821
0.276607
0.269476
0.26677
0.406416
0.404626
0.402594
0.399433
0.394789
0.388677
0.381306
0.372956
0.363912
0.354434
0.344754
0.335057
0.325348
0.315466
0.306064
0.300239
0.501248
0.49294
0.484336
0.474787
0.464099
0.452377
0.439863
0.426837
0.413557
0.400248
0.387099
0.374248
0.3617
0.349348
0.337679
0.328829
0.597069
0.582323
0.56821
0.553798
0.53865
0.522701
0.506125
0.489184
0.472144
0.455239
0.438656
0.422544
0.407004
0.392039
0.377579
0.363942
0.352476
0.687431
0.665534
0.646286
0.627456
0.608352
0.588707
0.568556
0.548119
0.527667
0.507454
0.487685
0.46852
0.450072
0.432413
0.415547
0.39943
0.384231
0.370678
0.737694
0.712905
0.690474
0.668319
0.645924
0.623135
0.600057
0.576939
0.554055
0.531645
0.509899
0.488951
0.468892
0.449772
0.431598
0.414343
0.398065
0.383058
0.763405
0.737119
0.713041
0.689169
0.665076
0.640671
0.616092
0.591601
0.567472
0.543941
0.521184
0.499326
0.478445
0.45858
0.43974
0.421906
0.405077
0.389323
0.0597496
0.0561812
0.0521611
0.0498052
0.0483349
0.0473993
0.0468388
0.0465289
0.046381
0.046334
0.046347
0.0463919
0.0464493
0.0465053
0.0465498
0.0465757
0.0465779
0.0465485
0.0464745
0.0464014
0.0960214
0.0878143
0.0796649
0.0738875
0.0695371
0.0661823
0.0636019
0.0616114
0.0600704
0.0588725
0.0579372
0.0572028
0.0566226
0.0561609
0.0557901
0.0554898
0.0552446
0.0550393
0.0548598
0.0547499
0.133756
0.122355
0.110108
0.100389
0.0925912
0.0863189
0.081317
0.0773378
0.074172
0.0716511
0.0696409
0.0680356
0.0667528
0.0657285
0.0649133
0.0642699
0.06377
0.0633902
0.0631148
0.0629761
0.169791
0.154751
0.138168
0.124634
0.113779
0.104992
0.0979069
0.0921996
0.0875995
0.0838889
0.0808938
0.0784764
0.0765285
0.0749655
0.0737219
0.0727475
0.0720042
0.0714628
0.0711048
0.0709404
0.18499
0.167856
0.15088
0.136571
0.125086
0.115686
0.107991
0.101691
0.0965253
0.0922858
0.0888057
0.0859521
0.0836194
0.0817244
0.0802019
0.0790013
0.078084
0.077421
0.0769933
0.0767961
0.197344
0.178335
0.160463
0.145434
0.133325
0.123356
0.115139
0.108361
0.102764
0.098139
0.0943179
0.0911662
0.0885761
0.0864618
0.084756
0.0834059
0.0823711
0.0816212
0.0811357
0.0809037
0.20657
0.186857
0.168583
0.153195
0.140686
0.130319
0.121712
0.114563
0.108619
0.103676
0.0995684
0.0961617
0.0933484
0.0910421
0.0891743
0.0876913
0.0865513
0.0857233
0.0851853
0.084924
0.213602
0.193901
0.175606
0.160108
0.147371
0.136732
0.127835
0.120393
0.114165
0.108954
0.104599
0.100969
0.0979571
0.0954784
0.093464
0.0918597
0.0906233
0.0897233
0.089137
0.0888499
0.21897
0.199682
0.18164
0.166225
0.153406
0.142609
0.133513
0.125851
0.119397
0.113965
0.109402
0.105579
0.102395
0.0997634
0.0976181
0.0959048
0.0945814
0.0936161
0.0929858
0.0926758
0.222998
0.204362
0.186773
0.171595
0.158822
0.14797
0.138756
0.130942
0.124318
0.11871
0.113975
0.109991
0.106657
0.103893
0.101633
0.0998227
0.0984214
0.0973974
0.0967276
0.0963974
0.225941
0.208097
0.191101
0.17628
0.163659
0.152839
0.143582
0.135676
0.128933
0.123193
0.11832
0.114202
0.110744
0.107866
0.105505
0.10361
0.10214
0.101064
0.100359
0.100011
0.228003
0.21103
0.194717
0.180342
0.167957
0.157246
0.14801
0.140067
0.133251
0.127416
0.12244
0.118215
0.114653
0.11168
0.109234
0.107265
0.105735
0.104613
0.103877
0.103513
0.229354
0.213286
0.197711
0.183844
0.171762
0.16122
0.15206
0.144129
0.137281
0.131388
0.126337
0.122031
0.118387
0.115335
0.112817
0.110785
0.109203
0.108042
0.107279
0.106901
0.230132
0.214974
0.200165
0.186845
0.175116
0.164793
0.155756
0.147877
0.141035
0.135115
0.130017
0.125652
0.121945
0.11883
0.116253
0.11417
0.112544
0.111349
0.110563
0.110173
0.230452
0.216188
0.20215
0.189402
0.178061
0.167996
0.159119
0.151329
0.144524
0.138605
0.133485
0.129083
0.125331
0.122168
0.119544
0.117419
0.115757
0.114533
0.113727
0.113328
0.230408
0.217009
0.203735
0.191567
0.180638
0.17086
0.162173
0.154502
0.147761
0.141868
0.136747
0.132327
0.128546
0.125349
0.12269
0.120531
0.11884
0.117593
0.116772
0.116364
0.230077
0.217508
0.204976
0.193389
0.182885
0.173414
0.164942
0.157412
0.150758
0.144913
0.139811
0.135389
0.131594
0.128375
0.125692
0.123508
0.121795
0.120529
0.119695
0.119281
0.229526
0.217743
0.205927
0.19491
0.184837
0.175687
0.167446
0.160077
0.15353
0.147751
0.142683
0.138276
0.134479
0.13125
0.128551
0.12635
0.12462
0.123341
0.122496
0.122077
0.228806
0.217764
0.206632
0.196171
0.186528
0.177705
0.169707
0.162514
0.156089
0.15039
0.145372
0.140991
0.137205
0.133975
0.131269
0.129058
0.127317
0.126028
0.125177
0.124754
0.227961
0.217615
0.207131
0.197206
0.187986
0.179493
0.171746
0.164738
0.158447
0.152841
0.147885
0.143542
0.139776
0.136555
0.133849
0.131634
0.129888
0.128593
0.127736
0.127311
0.227029
0.217331
0.207458
0.198046
0.189239
0.181074
0.173581
0.166767
0.160618
0.155115
0.15023
0.145933
0.142197
0.138992
0.136294
0.13408
0.132332
0.131034
0.130175
0.129748
0.226038
0.216943
0.207644
0.19872
0.190312
0.182469
0.175231
0.168613
0.162614
0.15722
0.152414
0.148172
0.144472
0.14129
0.138605
0.136398
0.134652
0.133355
0.132495
0.132068
0.225013
0.216476
0.207714
0.199252
0.191228
0.183698
0.176712
0.170292
0.164445
0.159167
0.154445
0.150265
0.146607
0.143453
0.140786
0.138589
0.136849
0.135555
0.134697
0.134269
0.223974
0.215953
0.20769
0.199663
0.192005
0.18478
0.17804
0.171817
0.166124
0.160964
0.156331
0.152216
0.148605
0.145484
0.142839
0.140657
0.138926
0.137636
0.136781
0.136354
0.222936
0.215391
0.207592
0.199973
0.192663
0.185729
0.179229
0.173199
0.16766
0.16262
0.158079
0.154033
0.150472
0.147388
0.144768
0.142603
0.140883
0.139601
0.138749
0.138325
0.221914
0.214807
0.207436
0.200198
0.193216
0.18656
0.180291
0.174451
0.169063
0.164143
0.159696
0.15572
0.152213
0.149167
0.146576
0.14443
0.142724
0.14145
0.140603
0.140181
0.220918
0.214211
0.207237
0.200353
0.193679
0.187287
0.18124
0.175582
0.170343
0.165542
0.161187
0.157284
0.153832
0.150827
0.148265
0.146141
0.144449
0.143185
0.142344
0.141925
0.219957
0.213616
0.207005
0.20045
0.194064
0.187921
0.182085
0.176603
0.171508
0.166823
0.162561
0.15873
0.155333
0.15237
0.149839
0.147738
0.146062
0.144808
0.143974
0.143557
0.219037
0.21303
0.206753
0.200501
0.194383
0.188474
0.182837
0.177522
0.172566
0.167993
0.163821
0.160061
0.15672
0.1538
0.151301
0.149223
0.147563
0.146321
0.145494
0.145081
0.218164
0.21246
0.206487
0.200514
0.194645
0.188954
0.183504
0.178348
0.173523
0.169059
0.164974
0.161284
0.157998
0.15512
0.152653
0.150598
0.148956
0.147726
0.146906
0.146496
0.217342
0.211913
0.206217
0.200499
0.194859
0.189369
0.184095
0.179088
0.174388
0.170026
0.166026
0.162403
0.15917
0.156333
0.153898
0.151867
0.150242
0.149024
0.148211
0.147805
0.216575
0.211394
0.205948
0.200463
0.195032
0.189728
0.184616
0.179748
0.175165
0.170901
0.16698
0.163422
0.160239
0.157443
0.155039
0.153031
0.151423
0.150217
0.149411
0.149009
0.215865
0.210905
0.205686
0.200411
0.195171
0.190038
0.185074
0.180334
0.17586
0.171687
0.167841
0.164344
0.16121
0.158452
0.156078
0.154093
0.152501
0.151306
0.150508
0.15011
0.215215
0.210452
0.205435
0.200349
0.195281
0.190302
0.185475
0.180852
0.176479
0.172389
0.168613
0.165173
0.162085
0.159363
0.157017
0.155054
0.153478
0.152294
0.151503
0.151108
0.214625
0.210037
0.205199
0.200281
0.195368
0.190528
0.185823
0.181307
0.177025
0.173012
0.1693
0.165912
0.162867
0.160179
0.157859
0.155916
0.154355
0.153182
0.152398
0.152006
0.214098
0.209661
0.204982
0.200212
0.195435
0.190719
0.186123
0.181703
0.177502
0.173559
0.169905
0.166565
0.163558
0.160901
0.158605
0.156681
0.155134
0.15397
0.153192
0.152803
0.213633
0.209327
0.204785
0.200144
0.195487
0.190878
0.186379
0.182043
0.177915
0.174034
0.170431
0.167133
0.164161
0.161532
0.159258
0.15735
0.155816
0.154661
0.153889
0.153503
0.213233
0.209036
0.204611
0.200081
0.195526
0.19101
0.186594
0.18233
0.178265
0.174438
0.17088
0.167619
0.164678
0.162073
0.159818
0.157925
0.156402
0.155255
0.154488
0.154104
0.212896
0.20879
0.204462
0.200024
0.195555
0.191117
0.18677
0.182568
0.178556
0.174774
0.171254
0.168025
0.16511
0.162526
0.160288
0.158408
0.156894
0.155754
0.154991
0.154609
0.212624
0.208588
0.204339
0.199976
0.195576
0.191201
0.186911
0.182759
0.17879
0.175045
0.171557
0.168354
0.165459
0.162892
0.160668
0.158798
0.157293
0.156158
0.155399
0.155019
0.212415
0.208432
0.204243
0.199938
0.19559
0.191264
0.187018
0.182904
0.178969
0.175252
0.171788
0.168605
0.165727
0.163174
0.16096
0.159099
0.157599
0.156469
0.155712
0.155334
0.212273
0.208324
0.204176
0.19991
0.1956
0.191307
0.187091
0.183004
0.179092
0.175395
0.171947
0.168778
0.165912
0.163367
0.161161
0.159306
0.15781
0.156683
0.155929
0.155551
0.212199
0.208267
0.204141
0.199896
0.195604
0.19133
0.187129
0.183056
0.179156
0.17547
0.172031
0.16887
0.166009
0.16347
0.161267
0.159415
0.157922
0.156796
0.156043
0.155665
0.212185
0.208254
0.204133
0.199893
0.195606
0.191334
0.187138
0.183067
0.17917
0.175486
0.172049
0.168889
0.16603
0.163491
0.16129
0.159438
0.157946
0.15682
0.156067
0.15569
0.238662
0.245126
0.249349
0.252149
0.253764
0.254422
0.254339
0.253688
0.252607
0.251209
0.249581
0.247796
0.245909
0.243967
0.242005
0.24005
0.238125
0.236245
0.234425
0.232674
0.231
0.229407
0.2279
0.22648
0.22515
0.22391
0.22276
0.221701
0.22073
0.219849
0.219056
0.218348
0.217727
0.217191
0.216739
0.216367
0.216078
0.215871
0.215749
0.215715
0.270309
0.272003
0.272331
0.271861
0.270773
0.269207
0.267289
0.26512
0.262781
0.260333
0.257827
0.255302
0.252791
0.250317
0.2479
0.245554
0.243291
0.241119
0.239044
0.23707
0.235199
0.233433
0.231772
0.230217
0.228767
0.227422
0.22618
0.225041
0.224001
0.22306
0.222216
0.221461
0.220799
0.22023
0.219754
0.219372
0.219081
0.21888
0.21877
0.21875
0.299196
0.29724
0.294561
0.291494
0.28816
0.284653
0.281055
0.277431
0.273828
0.270285
0.266827
0.263476
0.260246
0.257146
0.254184
0.251364
0.248686
0.24615
0.243757
0.241504
0.239389
0.237408
0.235558
0.233838
0.232244
0.230776
0.229429
0.228203
0.227065
0.226034
0.225113
0.224306
0.223605
0.223004
0.222502
0.222098
0.221792
0.221584
0.221476
0.221461
0.323831
0.318665
0.313316
0.307973
0.302698
0.297537
0.292527
0.287694
0.283054
0.278617
0.274389
0.27037
0.266561
0.262957
0.259555
0.256349
0.253332
0.2505
0.247845
0.245361
0.243041
0.24088
0.238873
0.237017
0.23531
0.233744
0.232265
0.230911
0.229709
0.228628
0.227661
0.226806
0.226062
0.225425
0.224895
0.224469
0.224147
0.22393
0.22382
0.223807
0.344171
0.336365
0.328814
0.321596
0.314721
0.308195
0.302017
0.296182
0.290681
0.285502
0.280633
0.27606
0.271769
0.267746
0.263979
0.260454
0.257158
0.254081
0.251211
0.248537
0.24605
0.243744
0.241615
0.239652
0.237807
0.236101
0.234577
0.233185
0.231922
0.230784
0.229769
0.228874
0.228094
0.227429
0.226875
0.22643
0.226093
0.225866
0.225754
0.225741
0.359781
0.349942
0.340694
0.332035
0.323935
0.316366
0.309297
0.302699
0.296542
0.290797
0.285439
0.280443
0.275784
0.271442
0.267395
0.263625
0.260116
0.256851
0.253815
0.250995
0.248381
0.245965
0.243732
0.241639
0.239735
0.237991
0.236396
0.234944
0.23363
0.23245
0.231398
0.23047
0.229663
0.228974
0.228401
0.22794
0.227591
0.227355
0.227239
0.227226
0.370372
0.359152
0.348748
0.33911
0.330179
0.321903
0.31423
0.307115
0.300514
0.294387
0.288699
0.283416
0.278509
0.27395
0.269714
0.265779
0.262125
0.258732
0.255584
0.252666
0.249964
0.24746
0.245134
0.243009
0.241055
0.239263
0.237627
0.236138
0.234792
0.233583
0.232506
0.231556
0.23073
0.230025
0.229438
0.228967
0.228608
0.228366
0.228246
0.228233
0.375723
0.363804
0.352817
0.342683
0.333332
0.324699
0.316722
0.309346
0.302521
0.296201
0.290346
0.284919
0.279887
0.275219
0.270888
0.266869
0.263142
0.259685
0.25648
0.253511
0.250761
0.248215
0.245868
0.24371
0.241727
0.23991
0.238251
0.236744
0.235381
0.234157
0.233067
0.232106
0.231271
0.230557
0.229963
0.229486
0.229122
0.228877
0.228755
0.228741
)
;

boundaryField
{
    inlet
    {
        type            zeroGradient;
    }
    outlet
    {
        type            fixedValue;
        value           nonuniform 0();
    }
    cylinder
    {
        type            zeroGradient;
    }
    top
    {
        type            symmetryPlane;
    }
    bottom
    {
        type            symmetryPlane;
    }
    defaultFaces
    {
        type            empty;
    }
    procBoundary4to0
    {
        type            processor;
        value           nonuniform List<scalar> 
58
(
0.763405
0.737119
0.713041
0.689169
0.665076
0.640671
0.616092
0.591601
0.567472
0.543941
0.521184
0.499326
0.478445
0.45858
0.43974
0.421906
0.405077
0.389323
0.375723
0.363804
0.352817
0.342683
0.333332
0.324699
0.316722
0.309346
0.302521
0.296201
0.290346
0.284919
0.279887
0.275219
0.270888
0.266869
0.263142
0.259685
0.25648
0.253511
0.250761
0.248215
0.245868
0.24371
0.241727
0.23991
0.238251
0.236744
0.235381
0.234157
0.233067
0.232106
0.231271
0.230557
0.229963
0.229486
0.229122
0.228877
0.228755
0.228741
)
;
    }
    procBoundary4to1
    {
        type            processor;
        value           uniform 0.79896;
    }
    procBoundary4to5
    {
        type            processor;
        value           nonuniform List<scalar> 
49
(
0.00529887
0.0153788
0.0221519
0.0197872
0.0315217
0.0415772
0.0415772
0.0380169
0.0527199
0.0650589
0.0650589
0.0792629
0.0945544
0.0945544
0.132693
0.147547
0.147547
0.203066
0.214838
0.214838
0.301715
0.301715
0.409486
0.510477
0.510477
0.614874
0.614874
0.718819
0.771834
0.0243796
0.0258747
0.0262313
0.0272655
0.0284733
0.0296811
0.0308698
0.0320137
0.0330757
0.0340368
0.034891
0.0356376
0.036278
0.0368153
0.0372523
0.0375921
0.0378377
0.0379876
0.0380307
0.0380073
)
;
    }
}


// ************************************************************************* //
