/*--------------------------------*- C++ -*----------------------------------*\
  =========                 |
  \\      /  F ield         | OpenFOAM: The Open Source CFD Toolbox
   \\    /   O peration     | Website:  https://openfoam.org
    \\  /    A nd           | Version:  7
     \\/     M anipulation  |
\*---------------------------------------------------------------------------*/
FoamFile
{
    version     2.0;
    format      ascii;
    class       volVectorField;
    location    "25";
    object      U;
}
// * * * * * * * * * * * * * * * * * * * * * * * * * * * * * * * * * * * * * //

dimensions      [0 1 -1 0 0 0 0];

internalField   nonuniform List<vector> 
1360
(
(1.11745 0.307514 4.50955e-20)
(1.11607 0.288481 -1.66181e-20)
(1.11505 0.269512 -1.64592e-19)
(1.07019 0.377014 3.24429e-20)
(1.07197 0.35241 4.37996e-20)
(1.07364 0.329309 -2.23798e-19)
(1.07516 0.307975 -1.09066e-19)
(1.07639 0.288565 5.08347e-19)
(1.07824 0.269278 -1.94873e-19)
(0.998468 0.456918 1.73024e-20)
(1.00628 0.427938 2.75318e-19)
(1.01257 0.399758 8.75386e-20)
(1.018 0.372957 -1.72158e-19)
(1.02295 0.3478 1.5344e-19)
(1.02765 0.324393 7.9053e-20)
(1.03207 0.302914 -3.02608e-19)
(1.03623 0.283505 6.25439e-20)
(1.04128 0.264545 -1.49946e-19)
(0.903577 0.506304 1.24475e-19)
(0.92094 0.476885 2.17065e-19)
(0.934845 0.446533 -5.70281e-19)
(0.946458 0.416645 -3.52772e-19)
(0.956564 0.388051 2.20449e-19)
(0.965671 0.361184 1.52483e-19)
(0.974095 0.336212 -2.05506e-19)
(0.982031 0.31315 2.05587e-19)
(0.989627 0.292017 -5.10253e-20)
(0.997172 0.273039 -4.06345e-19)
(1.00554 0.255877 5.49993e-19)
(0.773633 0.53811 5.90164e-19)
(0.805968 0.514766 -4.72972e-20)
(0.831911 0.486467 -1.87832e-19)
(0.853285 0.456027 7.95848e-19)
(0.871427 0.425345 -8.53569e-19)
(0.887275 0.395598 -4.7489e-20)
(0.901462 0.367422 7.85064e-19)
(0.914399 0.341094 -5.27471e-19)
(0.926329 0.316672 -7.11442e-20)
(0.937447 0.294028 9.14019e-20)
(0.948161 0.272765 8.14485e-19)
(0.958949 0.252529 -7.3325e-19)
(0.968027 0.234907 -1.60998e-19)
(0.59947 0.528673 1.18447e-19)
(0.652555 0.523919 1.60901e-19)
(0.695877 0.506777 -4.05924e-19)
(0.73168 0.482089 5.48863e-19)
(0.761794 0.453489 1.48715e-19)
(0.787639 0.423526 4.1784e-19)
(0.810266 0.393854 -1.43472e-18)
(0.830421 0.365439 5.00222e-19)
(0.848621 0.338763 -1.89115e-19)
(0.865212 0.314001 1.92102e-19)
(0.880412 0.29115 -6.60977e-19)
(0.894431 0.270074 6.72717e-19)
(0.907629 0.250443 -7.77275e-19)
(0.920124 0.231961 4.48826e-19)
(0.930113 0.215609 5.32335e-19)
(0.456651 0.475847 3.65066e-19)
(0.520864 0.48509 -6.07004e-19)
(0.575277 0.47776 8.82686e-19)
(0.621612 0.45967 -5.07737e-19)
(0.66142 0.435325 3.55539e-19)
(0.696021 0.408004 -9.24823e-19)
(0.726477 0.379932 7.95485e-19)
(0.753604 0.352499 -7.03326e-19)
(0.778009 0.326476 1.17882e-18)
(0.800136 0.302213 -3.0726e-19)
(0.820303 0.279808 -4.86478e-19)
(0.83874 0.259214 -3.9494e-19)
(0.855673 0.24029 -6.11151e-20)
(0.871418 0.222779 9.38205e-19)
(0.886036 0.206485 4.87024e-19)
(0.898172 0.192065 -6.60433e-19)
(0.38428 0.418198 2.07425e-19)
(0.448126 0.423937 6.02657e-19)
(0.504468 0.415476 -9.83942e-19)
(0.554142 0.398059 4.39884e-19)
(0.598048 0.375653 1.81832e-19)
(0.637048 0.351075 -1.13684e-18)
(0.671902 0.326181 4.12744e-19)
(0.70324 0.302093 -4.47944e-19)
(0.731573 0.279403 1.1702e-18)
(0.757303 0.258359 -7.76347e-19)
(0.780746 0.239001 -2.39733e-19)
(0.802152 0.221262 5.6658e-19)
(0.821762 0.20501 -8.01234e-19)
(0.839875 0.19004 5.55657e-19)
(0.856577 0.176193 5.0551e-19)
(0.870948 0.163838 -1.2434e-18)
(0.251721 0.323822 -1.74989e-19)
(0.320972 0.344029 -2.85365e-19)
(0.385015 0.347239 6.4456e-20)
(0.44348 0.339017 -3.28092e-20)
(0.496401 0.323754 4.34387e-19)
(0.544104 0.304714 1.08117e-19)
(0.587069 0.284164 -8.65418e-19)
(0.625815 0.263567 -8.89284e-20)
(0.660836 0.243781 3.25018e-19)
(0.692577 0.225241 4.06414e-19)
(0.72142 0.208112 -5.50197e-19)
(0.74769 0.192401 1.09427e-18)
(0.77166 0.178037 -8.15677e-19)
(0.79359 0.164907 9.77653e-19)
(0.813764 0.152857 -8.17202e-19)
(0.832309 0.141754 3.86529e-19)
(0.848688 0.131752 1.99277e-19)
(0.135143 0.209896 6.66799e-20)
(0.202898 0.241941 -6.63486e-20)
(0.270223 0.256129 1.21646e-19)
(0.334725 0.257699 -6.10443e-21)
(0.395139 0.2509 4.05028e-20)
(0.450841 0.239043 -5.16537e-19)
(0.501703 0.22455 1.83466e-19)
(0.547908 0.209083 4.80449e-19)
(0.589794 0.193693 -5.91912e-19)
(0.627763 0.178984 2.42831e-19)
(0.662215 0.165252 -2.29627e-19)
(0.693528 0.152599 6.59659e-19)
(0.722037 0.141016 -8.27449e-19)
(0.748039 0.130443 -6.39053e-20)
(0.771808 0.120794 8.1262e-19)
(0.793617 0.11196 -7.47993e-19)
(0.813634 0.103839 -1.3379e-19)
(0.831643 0.0964635 -2.66275e-19)
(0.10463 0.130057 -8.63017e-21)
(0.168663 0.149533 -1.03308e-19)
(0.234794 0.157934 2.51167e-19)
(0.299758 0.158572 -5.84401e-20)
(0.361648 0.154109 -1.03342e-19)
(0.419375 0.146602 2.2816e-20)
(0.472494 0.137542 -4.99559e-19)
(0.520986 0.12794 6.50424e-19)
(0.565074 0.11843 1.06292e-19)
(0.605097 0.109371 -2.26869e-19)
(0.641433 0.100933 -7.59691e-21)
(0.674457 0.0931706 2.54639e-19)
(0.704518 0.0860745 4.42745e-20)
(0.731927 0.0796032 1.62887e-19)
(0.756969 0.0737028 1.26505e-19)
(0.779908 0.0683104 -3.84164e-19)
(0.800945 0.0633584 9.44935e-20)
(0.820098 0.0588344 -2.24905e-19)
(0.088871 0.044051 7.62169e-20)
(0.15103 0.0505836 1.11833e-20)
(0.216592 0.0533642 1.41602e-19)
(0.281836 0.0535248 -1.16035e-19)
(0.344519 0.0519718 7.01812e-20)
(0.40331 0.0494028 -2.6693e-20)
(0.457603 0.046321 -1.01218e-19)
(0.507278 0.0430662 1.58251e-19)
(0.552499 0.0398499 -7.52028e-20)
(0.593576 0.0367907 -9.02165e-20)
(0.630877 0.0339446 2.19045e-20)
(0.664777 0.0313286 -7.27279e-20)
(0.69563 0.0289385 3.82961e-20)
(0.723759 0.0267599 -5.59147e-20)
(0.749451 0.0247744 2.19899e-19)
(0.772967 0.0229613 -7.32271e-20)
(0.794526 0.0212971 -2.50967e-20)
(0.814269 0.0197721 1.23167e-19)
(1.11672 0.237986 1.02334e-19)
(1.12032 0.21116 2.39078e-20)
(1.12288 0.190396 2.33604e-20)
(1.12463 0.171368 -7.06079e-20)
(1.12522 0.154285 -1.55379e-20)
(1.12489 0.138825 7.11833e-20)
(1.12391 0.124708 -3.80418e-20)
(1.12247 0.111746 9.70275e-21)
(1.12074 0.0997798 -5.40918e-20)
(1.11885 0.0886696 6.99177e-20)
(1.11691 0.0782938 4.12395e-22)
(1.11499 0.0685456 -2.47588e-21)
(1.11317 0.0593312 -1.88609e-20)
(1.1115 0.0505667 1.71688e-20)
(1.11002 0.0421767 -6.91611e-21)
(1.10875 0.0340929 -1.6571e-20)
(1.10774 0.0262533 -1.08375e-20)
(1.10699 0.0185978 1.06613e-20)
(1.10651 0.0110561 3.80417e-21)
(1.10629 0.0036085 -2.76018e-21)
(1.08488 0.236829 6.89879e-20)
(1.09385 0.211247 -7.17196e-20)
(1.10005 0.191699 -3.03269e-20)
(1.10471 0.173243 1.99401e-20)
(1.10766 0.156397 -6.09368e-21)
(1.10929 0.140984 4.07184e-20)
(1.10992 0.126803 -1.14361e-20)
(1.10982 0.113715 1.1335e-20)
(1.10919 0.10159 -1.98674e-20)
(1.10819 0.090305 2.92145e-20)
(1.10697 0.0797508 4.43556e-20)
(1.10564 0.0698266 -5.53693e-20)
(1.10429 0.0604416 7.2824e-21)
(1.103 0.0515134 1.61329e-20)
(1.10181 0.0429666 -8.93495e-21)
(1.10077 0.0347322 -2.28047e-21)
(1.09993 0.0267469 1.70558e-21)
(1.0993 0.0189487 -8.01364e-21)
(1.0989 0.011268 3.96392e-21)
(1.09872 0.00368487 1.28565e-21)
(1.05247 0.233161 8.03695e-20)
(1.06584 0.20952 2.77476e-19)
(1.07549 0.191484 -3.50106e-19)
(1.08323 0.173855 2.00966e-19)
(1.08891 0.15743 -1.00932e-19)
(1.09285 0.142239 3.82917e-20)
(1.09539 0.128154 -1.73598e-20)
(1.09685 0.115077 3.46579e-20)
(1.09747 0.102908 -7.16136e-20)
(1.09748 0.0915434 9.83808e-20)
(1.09706 0.080888 -5.62717e-20)
(1.09637 0.0708503 2.27967e-20)
(1.09552 0.0613458 -8.55895e-20)
(1.09461 0.0522957 7.39433e-20)
(1.09372 0.0436272 -2.71399e-20)
(1.09291 0.0352726 -8.91034e-21)
(1.09223 0.0271687 3.97509e-21)
(1.09171 0.0192536 -5.47487e-21)
(1.09137 0.0114618 1.83014e-20)
(1.09121 0.00376646 -3.66197e-21)
(1.02006 0.229287 -1.93358e-19)
(1.03793 0.206584 -6.64821e-21)
(1.05166 0.189447 4.43874e-19)
(1.06265 0.172733 -3.8018e-19)
(1.07102 0.156953 2.72605e-19)
(1.07716 0.142246 -1.50371e-19)
(1.08151 0.128497 7.66323e-20)
(1.08442 0.115634 -5.38762e-20)
(1.08622 0.103584 1.19234e-20)
(1.08717 0.0922703 3.92736e-20)
(1.08751 0.0816167 2.07369e-22)
(1.08742 0.0715471 -1.96687e-20)
(1.08704 0.061988 -2.37613e-20)
(1.0865 0.0528689 1.87529e-20)
(1.08589 0.0441225 -2.34417e-20)
(1.08529 0.035685 1.1919e-20)
(1.08475 0.0274956 -2.21083e-11)
(1.08431 0.0194949 2.19259e-11)
(1.08401 0.011624 -1.34021e-20)
(1.08385 0.00384512 7.75954e-21)
(1.00294 0.226986 2.45933e-27)
(1.02441 0.203227 -2.46317e-27)
(1.04008 0.18647 0)
(1.05203 0.170827 0)
(1.06117 0.155807 0)
(1.06802 0.141641 0)
(1.07299 0.128274 0)
(1.07646 0.115665 0)
(1.07874 0.103777 0)
(1.08012 0.0925562 0)
(1.08081 0.0819468 1.21431e-27)
(1.08102 0.0718877 -1.214e-27)
(1.08089 0.0623161 2.29502e-11)
(1.08056 0.0531696 -2.29461e-11)
(1.08011 0.0443864 0)
(1.07963 0.0359067 0)
(1.07918 0.0276726 -2.15743e-11)
(1.0788 0.0196272 2.15736e-11)
(1.07853 0.0117153 0)
(1.07838 0.00389238 0)
(0.996411 0.212954 -9.52633e-28)
(1.01716 0.19311 9.54834e-28)
(1.03275 0.178337 7.17545e-27)
(1.04492 0.164178 -7.32758e-27)
(1.05431 0.150354 -6.52388e-28)
(1.06143 0.137161 6.52388e-28)
(1.0667 0.124587 -3.0612e-27)
(1.07047 0.112628 -3.08153e-27)
(1.07306 0.101273 0)
(1.07472 0.0904929 0)
(1.07569 0.080248 0)
(1.07614 0.0704925 0)
(1.07623 0.0611761 2.41781e-11)
(1.07609 0.0522462 -2.41781e-11)
(1.07581 0.0436494 -4.27404e-28)
(1.07547 0.0353329 4.27404e-28)
(1.07512 0.0272441 -2.26524e-11)
(1.07483 0.0193314 2.26524e-11)
(1.07461 0.0115444 -2.42662e-27)
(1.07449 0.00383799 -2.028e-27)
(0.990323 0.197861 0)
(1.01035 0.181754 0)
(1.02588 0.169181 -6.52266e-27)
(1.03821 0.156661 6.67479e-27)
(1.04782 0.14416 2.84921e-28)
(1.05519 0.132034 -2.84921e-28)
(1.06073 0.120334 3.0612e-27)
(1.06478 0.109095 3.08153e-27)
(1.06763 0.098335 0)
(1.06956 0.0880498 0)
(1.07076 0.0782194 0)
(1.07144 0.0688133 0)
(1.07173 0.0597939 2.547e-11)
(1.07176 0.0511194 -2.547e-11)
(1.07163 0.042745 -2.44305e-11)
(1.07141 0.034625 2.44305e-11)
(1.07116 0.0267131 -2.37964e-11)
(1.07094 0.0189629 2.37964e-11)
(1.07077 0.0113288 1.27985e-27)
(1.07068 0.00376753 3.182e-27)
(0.985726 0.183377 0)
(1.0048 0.170457 0)
(1.02002 0.159949 0)
(1.03229 0.149018 0)
(1.04197 0.137816 0)
(1.04948 0.126747 0)
(1.0552 0.115918 0)
(1.05945 0.105402 0)
(1.06251 0.0952453 0)
(1.06465 0.0854661 0)
(1.06605 0.0760627 0)
(1.06692 0.0670194 0)
(1.06738 0.0583111 2.67194e-11)
(1.06756 0.0499059 -2.67194e-11)
(1.06756 0.0417678 -2.55989e-11)
(1.06745 0.033858 2.55989e-11)
(1.06729 0.0261363 -2.49114e-11)
(1.06714 0.0185618 2.49114e-11)
(1.06701 0.0110931 0)
(1.06694 0.00369 0)
(0.982381 0.169777 0)
(1.00033 0.159536 0)
(1.01505 0.150874 2.13424e-27)
(1.02709 0.14142 -2.13424e-27)
(1.0367 0.131452 0)
(1.04425 0.121403 0)
(1.05006 0.111421 0)
(1.05445 0.101617 0)
(1.05767 0.0920594 0)
(1.05997 0.0827873 0)
(1.06154 0.0738154 0)
(1.06257 0.0651418 0)
(1.06318 0.0567529 2.79242e-11)
(1.06349 0.0486264 -2.79242e-11)
(1.0636 0.0407343 0)
(1.06359 0.0330448 0)
(1.06352 0.0255235 -2.59958e-11)
(1.06342 0.0181347 2.59958e-11)
(1.06334 0.0108414 9.49304e-28)
(1.06329 0.00360698 -9.5529e-28)
(0.980034 0.1571 -1.41528e-27)
(0.996793 0.149099 8.28174e-27)
(1.01087 0.142053 4.89278e-27)
(1.02255 0.133947 -5.45881e-27)
(1.03198 0.125131 0)
(1.03947 0.116049 -5.00558e-27)
(1.04531 0.106884 0)
(1.04977 0.0977721 -3.206e-27)
(1.0531 0.0888041 -1.67972e-27)
(1.05553 0.0800353 1.67972e-27)
(1.05723 0.0714956 3.53655e-27)
(1.05839 0.0631954 -1.90957e-27)
(1.05912 0.0551314 2.90835e-11)
(1.05955 0.0472905 -2.90835e-11)
(1.05977 0.0396522 3.14799e-28)
(1.05984 0.0321913 1.05384e-27)
(1.05984 0.0248791 -2.70486e-11)
(1.0598 0.0176847 2.70486e-11)
(1.05975 0.0105757 -3.35737e-27)
(1.05972 0.00351921 2.0219e-27)
(0.978494 0.14533 -2.99373e-27)
(0.99404 0.139193 -3.86358e-27)
(1.00738 0.133545 -1.36309e-27)
(1.0186 0.126651 1.92913e-27)
(1.02777 0.118897 0)
(1.03513 0.110723 5.00558e-27)
(1.04093 0.102338 0)
(1.04541 0.0938942 3.206e-27)
(1.0488 0.0855012 0)
(1.05132 0.0772284 0)
(1.05313 0.0691183 -2.79328e-27)
(1.05439 0.0611923 1.16631e-27)
(1.05522 0.0534567 3.01967e-11)
(1.05575 0.0459063 -3.01967e-11)
(1.05605 0.0385279 -7.68688e-28)
(1.05621 0.0313025 -5.99949e-28)
(1.05626 0.0242067 -2.80687e-11)
(1.05627 0.0172145 2.80687e-11)
(1.05626 0.0102977 2.36991e-27)
(1.05624 0.00342726 -1.02821e-27)
(0.977602 0.134426 0)
(0.991952 0.129836 0)
(1.0045 0.125386 -5.18071e-11)
(1.01519 0.11957 5.18071e-11)
(1.02403 0.112785 0)
(1.0312 0.105458 0)
(1.0369 0.0978093 -1.47296e-27)
(1.04135 0.0900064 1.47296e-27)
(1.04477 0.0821705 0)
(1.04734 0.0743832 0)
(1.04922 0.0666974 1.66331e-27)
(1.05056 0.0591442 -1.66331e-27)
(1.05148 0.0517381 3.12635e-11)
(1.05209 0.0444815 -3.12635e-11)
(1.05247 0.0373676 0)
(1.05268 0.0303832 0)
(1.05279 0.02351 0)
(1.05284 0.0167266 0)
(1.05286 0.0100089 1.0604e-27)
(1.05286 0.00333164 -1.06709e-27)
(0.977229 0.124341 0)
(0.990422 0.121027 0)
(1.00215 0.117597 -5.27044e-11)
(1.01227 0.112733 5.27044e-11)
(1.02072 0.106825 0)
(1.02764 0.10028 0)
(1.0332 0.0933225 2.20153e-28)
(1.03759 0.0861294 -2.20153e-28)
(1.04099 0.0788299 6.82855e-28)
(1.04358 0.0715149 -6.82855e-28)
(1.04551 0.0642459 0)
(1.04691 0.0570618 0)
(1.04789 0.0499847 0)
(1.04857 0.0430234 0)
(1.04901 0.0361771 5.68312e-28)
(1.04928 0.0294379 -5.68312e-28)
(1.04944 0.0227924 -3.00082e-11)
(1.04952 0.0162233 3.00082e-11)
(1.04956 0.00971066 -1.59196e-28)
(1.04957 0.00323286 1.602e-28)
(0.977268 0.115019 -1.26993e-10)
(0.989356 0.112756 -1.19113e-10)
(1.00026 0.110187 1.63237e-27)
(1.00978 0.106157 -1.63237e-27)
(1.01781 0.101038 0)
(1.02445 0.0952094 0)
(1.02982 0.0888974 0)
(1.03411 0.0822811 0)
(1.03747 0.0754954 0)
(1.04005 0.0686374 0)
(1.04199 0.0617754 0)
(1.04343 0.0549552 0)
(1.04446 0.0482047 0)
(1.04519 0.0415388 0)
(1.04567 0.034962 -2.42255e-28)
(1.04599 0.0284711 2.42255e-28)
(1.04619 0.0220572 -3.09265e-11)
(1.0463 0.0157071 3.09265e-11)
(1.04636 0.00940443 5.87255e-28)
(1.04639 0.00313137 -5.90958e-28)
(0.977632 0.106407 1.26997e-10)
(0.988674 0.105002 1.19113e-10)
(0.998773 0.103157 -4.11331e-27)
(1.00767 0.0998526 4.11331e-27)
(1.01525 0.095438 0)
(1.02157 0.0902638 0)
(1.02674 0.0845506 0)
(1.03089 0.0784772 0)
(1.03417 0.0721809 0)
(1.03672 0.065763 0)
(1.03867 0.0592969 0)
(1.04012 0.0528335 0)
(1.04119 0.046406 3.41871e-11)
(1.04195 0.0400343 -3.41871e-11)
(1.04247 0.0337275 6.02271e-28)
(1.04283 0.0274869 -6.02271e-28)
(1.04305 0.0213075 -5.8531e-28)
(1.04319 0.01518 5.8531e-28)
(1.04327 0.0090915 0)
(1.04331 0.00302762 0)
(0.978248 0.0984507 0)
(0.988308 0.0977427 0)
(0.997618 0.0965012 0)
(1.0059 0.0938256 0)
(1.01302 0.0900366 0)
(1.019 0.0854559 0)
(1.02393 0.0802954 0)
(1.02792 0.0747305 0)
(1.03111 0.0688984 0)
(1.0336 0.0629027 0)
(1.03553 0.0568199 -1.85974e-27)
(1.03698 0.0507051 1.85974e-27)
(1.03806 0.0445957 7.01412e-11)
(1.03885 0.0385157 -7.01412e-11)
(1.0394 0.0324785 -1.68105e-27)
(1.03978 0.0264891 1.68105e-27)
(1.04004 0.0205462 -3.26587e-11)
(1.04019 0.0146441 3.26587e-11)
(1.04029 0.00877311 -1.19204e-27)
(1.04033 0.00292201 1.19956e-27)
(0.979056 0.0910979 0)
(0.988197 0.0909516 0)
(0.99675 0.0902102 4.18488e-27)
(1.00442 0.0880755 -4.18488e-27)
(1.01107 0.0848395 -9.05578e-28)
(1.0167 0.0807948 9.05578e-28)
(1.02138 0.0761424 -2.396e-28)
(1.02519 0.071052 2.396e-28)
(1.02826 0.0656585 -7.51486e-28)
(1.03068 0.060066 7.51486e-28)
(1.03257 0.0543531 0)
(1.03401 0.0485775 0)
(1.03509 0.0427802 3.59097e-11)
(1.03589 0.0369886 -3.59097e-11)
(1.03646 0.0312195 0)
(1.03686 0.0254813 0)
(1.03713 0.0197762 -3.34723e-11)
(1.03731 0.0141014 3.34723e-11)
(1.03741 0.00845042 0)
(1.03746 0.00281493 0)
(0.980008 0.0842991 3.47946e-27)
(0.988294 0.0846007 -1.30761e-26)
(0.996122 0.0842702 0)
(1.0032 0.0825986 -1.33113e-27)
(1.00938 0.0798491 6.75725e-29)
(1.01465 0.0762866 1.19645e-27)
(1.01906 0.0720996 -5.59856e-28)
(1.02268 0.0674501 5.59856e-28)
(1.02562 0.0624695 0)
(1.02795 0.057261 2.88029e-28)
(1.02979 0.0519038 1.3068e-27)
(1.0312 0.0464575 9.32402e-28)
(1.03227 0.0409655 3.67052e-11)
(1.03307 0.035458 -3.67052e-11)
(1.03365 0.0299546 -8.45924e-28)
(1.03406 0.024467 -1.76592e-27)
(1.03435 0.0189999 -1.06629e-27)
(1.03453 0.0135537 8.22893e-28)
(1.03464 0.00812449 2.55854e-27)
(1.0347 0.00270673 2.06163e-28)
(0.981063 0.0780075 3.03651e-27)
(0.988556 0.0786619 6.54823e-27)
(0.995697 0.0786657 -7.11086e-28)
(1.0022 0.0773882 2.04222e-27)
(1.00792 0.0750652 -1.26402e-27)
(1.01282 0.0719348 0)
(1.01696 0.0681724 0)
(1.02038 0.0639315 0)
(1.02317 0.0593386 3.45757e-27)
(1.0254 0.0544946 -3.7456e-27)
(1.02717 0.0494785 -2.23921e-27)
(1.02854 0.0443508 0)
(1.02959 0.0391566 3.74582e-11)
(1.03038 0.0339282 -3.74582e-11)
(1.03097 0.0286877 -2.93691e-27)
(1.03138 0.023449 5.54875e-27)
(1.03168 0.0182198 -3.49948e-11)
(1.03187 0.0130026 3.49948e-11)
(1.03199 0.00779632 -2.39273e-28)
(1.03204 0.00259775 -2.54005e-27)
(0.982188 0.0721797 0)
(0.988948 0.073107 0)
(0.995439 0.0733798 -5.58512e-11)
(1.00139 0.0724357 5.58512e-11)
(1.00665 0.0704848 0)
(1.0112 0.0677404 0)
(1.01505 0.0643645 0)
(1.01827 0.0605012 0)
(1.0209 0.0562712 -7.91179e-28)
(1.02302 0.0517725 7.91179e-28)
(1.02471 0.0470827 0)
(1.02604 0.0422626 0)
(1.02706 0.0373581 0)
(1.02783 0.0324032 0)
(1.02841 0.0274219 6.74759e-28)
(1.02883 0.0224302 -6.74759e-28)
(1.02912 0.0174378 -3.5704e-11)
(1.02932 0.0124497 3.5704e-11)
(1.02944 0.0074668 0)
(1.0295 0.00248829 0)
(0.983356 0.066775 0)
(0.989439 0.0679089 0)
(0.995319 0.0683948 -5.60125e-11)
(1.00074 0.0677309 5.60125e-11)
(1.00557 0.0661034 0)
(1.00976 0.0637028 0)
(1.01334 0.0606776 0)
(1.01633 0.0571625 0)
(1.0188 0.0532716 8.02475e-28)
(1.02081 0.0490991 -8.02475e-28)
(1.02241 0.0447209 0)
(1.02368 0.0401971 0)
(1.02466 0.035574 3.88407e-11)
(1.02542 0.0308866 -3.88407e-11)
(1.02598 0.0261604 0)
(1.02639 0.021413 0)
(1.02669 0.016656 0)
(1.02689 0.0118962 0)
(1.02701 0.00713675 -1.93197e-28)
(1.02707 0.00237861 1.94415e-28)
(0.984546 0.0617562 0)
(0.990004 0.063041 -6.82225e-27)
(0.995313 0.0636926 0)
(1.00023 0.0632625 0)
(1.00464 0.0619149 6.00566e-27)
(1.00849 0.0598195 0)
(1.01178 0.0571121 -8.12563e-27)
(1.01456 0.0539173 3.26064e-27)
(1.01686 0.0503427 -3.60824e-27)
(1.01875 0.046478 3.60824e-27)
(1.02026 0.0423967 -8.47733e-11)
(1.02147 0.0381578 -8.24465e-11)
(1.0224 0.0338075 3.94724e-11)
(1.02313 0.0293813 3.91909e-11)
(1.02367 0.0249056 3.91985e-11)
(1.02408 0.0203995 3.79863e-11)
(1.02437 0.015876 1.80268e-27)
(1.02456 0.0113435 -6.77394e-28)
(1.02468 0.0068069 3.69345e-27)
(1.02474 0.00226895 0)
(0.985739 0.0570887 0)
(0.990622 0.0584784 6.82225e-27)
(0.995397 0.0592554 1.44871e-27)
(0.999844 0.0590184 -1.44871e-27)
(1.00384 0.0579121 -6.00566e-27)
(1.00736 0.0560871 0)
(1.01038 0.0536669 4.27183e-27)
(1.01294 0.0507664 5.93158e-28)
(1.01508 0.0474863 0)
(1.01683 0.0439117 0)
(1.01825 0.040113 8.47733e-11)
(1.01939 0.0361478 8.24465e-11)
(1.02028 0.0320615 0)
(1.02097 0.0278899 -7.86633e-11)
(1.02149 0.0236599 -1.15775e-10)
(1.02188 0.0193916 3.85902e-11)
(1.02216 0.0150992 0)
(1.02235 0.0107926 -1.12529e-27)
(1.02247 0.00647789 -3.49353e-27)
(1.02253 0.00215954 -2.01178e-28)
(0.986921 0.0527409 0)
(0.991275 0.054197 0)
(0.995554 0.0550654 0)
(0.999555 0.0549863 0)
(1.00317 0.054087 0)
(1.00636 0.052501 0)
(1.00912 0.0503399 -2.60043e-28)
(1.01147 0.0477095 2.60043e-28)
(1.01344 0.0447034 0)
(1.01506 0.0414017 0)
(1.01638 0.0378718 7.84212e-28)
(1.01744 0.0341691 -7.84212e-28)
(1.01828 0.0303382 0)
(1.01893 0.0264144 0)
(1.01942 0.0224251 -7.20539e-28)
(1.0198 0.0183909 7.20539e-28)
(1.02007 0.014327 -3.82017e-11)
(1.02025 0.0102443 3.82017e-11)
(1.02037 0.00615028 -2.03017e-28)
(1.02042 0.00205056 2.04297e-28)
(0.988081 0.0486837 0)
(0.991949 0.0501745 0)
(0.995766 0.0511053 7.19493e-28)
(0.999349 0.0511537 -7.19493e-28)
(1.0026 0.0504311 0)
(1.00548 0.0490556 0)
(1.00799 0.0471281 3.34203e-27)
(1.01013 0.0447454 -3.34203e-27)
(1.01193 0.041994 3.72609e-27)
(1.01342 0.0389491 -3.72609e-27)
(1.01464 0.0356745 0)
(1.01562 0.0322234 0)
(1.0164 0.0286392 4.11436e-11)
(1.01701 0.0249565 -4.11436e-11)
(1.01748 0.0212026 3.24201e-27)
(1.01783 0.0173986 -3.24201e-27)
(1.01809 0.0135603 -3.87434e-11)
(1.01826 0.0096995 3.87434e-11)
(1.01837 0.00582453 2.62746e-27)
(1.01843 0.00194217 -2.64403e-27)
(0.989208 0.0448904 5.51202e-27)
(0.992631 0.0463895 1.44932e-27)
(0.99602 0.0473584 -5.85766e-27)
(0.999213 0.0475079 4.86738e-27)
(1.00212 0.0469353 0)
(1.00471 0.045745 5.54862e-27)
(1.00696 0.0440279 -4.67265e-27)
(1.0089 0.0418721 0)
(1.01054 0.0393574 1.42029e-27)
(1.0119 0.0365539 1.67587e-27)
(1.01302 0.0335219 0)
(1.01392 0.0303119 -1.59108e-27)
(1.01464 0.0269658 8.32597e-11)
(1.01521 0.0235174 -8.32597e-11)
(1.01565 0.0199938 0)
(1.01598 0.016416 4.01663e-27)
(1.01622 0.0128002 -3.9253e-11)
(1.01638 0.00915881 3.9253e-11)
(1.01649 0.00550104 -3.65698e-27)
(1.01654 0.0018345 -3.92419e-27)
(0.990296 0.0413364 -8.06327e-27)
(0.993311 0.0428222 1.10594e-27)
(0.996305 0.0438087 5.07625e-27)
(0.999133 0.0440365 -4.08597e-27)
(1.00172 0.0435904 0)
(1.00403 0.0425627 -5.54862e-27)
(1.00605 0.0410348 4.67265e-27)
(1.00779 0.0390869 0)
(1.00927 0.0367921 -1.42029e-27)
(1.0105 0.0342157 -1.67587e-27)
(1.01152 0.031414 0)
(1.01234 0.0284351 1.59108e-27)
(1.013 0.0253189 4.20827e-11)
(1.01352 0.0220982 -4.20827e-11)
(1.01393 0.0187995 9.77028e-28)
(1.01423 0.0154437 -4.99366e-27)
(1.01446 0.0120471 -3.9731e-11)
(1.01461 0.00862274 3.9731e-11)
(1.01471 0.00518014 3.65698e-27)
(1.01476 0.00172766 3.92419e-27)
(0.991339 0.0379991 0)
(0.99398 0.0394539 0)
(0.996609 0.0404408 -5.6282e-11)
(0.999099 0.0407272 5.6282e-11)
(1.00138 0.040387 0)
(1.00343 0.0395017 0)
(1.00523 0.0381441 0)
(1.00678 0.0363866 0)
(1.0081 0.0342963 -8.59909e-28)
(1.00921 0.0319334 8.59909e-28)
(1.01013 0.0293506 -8.16598e-28)
(1.01087 0.026593 8.16598e-28)
(1.01147 0.0236988 0)
(1.01195 0.0206993 0)
(1.01232 0.0176203 7.56328e-28)
(1.0126 0.0144823 -7.56328e-28)
(1.01281 0.0113018 0)
(1.01295 0.00809168 0)
(1.01304 0.00486206 0)
(1.01309 0.00162173 0)
(0.992332 0.0348579 0)
(0.994632 0.036267 0)
(0.996925 0.0372398 -5.62541e-11)
(0.999103 0.0375681 5.62541e-11)
(1.0011 0.0373159 0)
(1.0029 0.036555 0)
(1.00449 0.0353504 0)
(1.00586 0.0337675 0)
(1.00704 0.0318675 3.84205e-27)
(1.00803 0.0297056 -3.84205e-27)
(1.00884 0.0273309 0)
(1.00951 0.0247855 0)
(1.01005 0.0221055 4.28922e-11)
(1.01048 0.019321 -4.28922e-11)
(1.01082 0.0164566 -3.39038e-27)
(1.01107 0.0135324 3.39038e-27)
(1.01126 0.0105645 0)
(1.01139 0.00756592 0)
(1.01148 0.00454699 -2.75548e-27)
(1.01152 0.00151677 2.77286e-27)
(0.993271 0.0318936 1.0928e-27)
(0.99526 0.0332452 -1.09448e-27)
(0.997246 0.0341919 0)
(0.999134 0.0345475 0)
(1.00087 0.0343675 0)
(1.00244 0.0337152 0)
(1.00383 0.0326483 -4.75108e-27)
(1.00504 0.0312257 0)
(1.00607 0.0295028 4.7321e-11)
(1.00694 0.0275304 -4.7321e-11)
(1.00767 0.0253536 -1.08274e-27)
(1.00826 0.0230118 -5.62647e-28)
(1.00874 0.0205389 8.65021e-11)
(1.00912 0.0179633 -8.65021e-11)
(1.00942 0.0153085 -1.55827e-27)
(1.00965 0.0125939 0)
(1.00982 0.00983534 -4.09808e-11)
(1.00994 0.00704561 4.09808e-11)
(1.01002 0.00423503 0)
(1.01005 0.00141283 0)
(0.994154 0.0290886 1.42239e-27)
(0.995859 0.030373 -1.42454e-27)
(0.997564 0.0312836 0)
(0.999188 0.0316541 0)
(1.00069 0.0315327 0)
(1.00204 0.0309749 0)
(1.00324 0.030032 4.75108e-27)
(1.00429 0.0287567 0)
(1.00519 0.0271991 4.75741e-11)
(1.00595 0.0254054 -4.75741e-11)
(1.00659 0.0234172 0)
(1.00711 0.021271 1.64538e-27)
(1.00753 0.0189983 4.35805e-11)
(1.00787 0.0166257 -4.35805e-11)
(1.00813 0.0141758 5.43548e-28)
(1.00834 0.011667 1.01472e-27)
(1.00849 0.00911448 -4.13377e-11)
(1.00859 0.00653084 4.13377e-11)
(1.00866 0.00392624 -5.06e-28)
(1.00869 0.00130991 5.09191e-28)
(0.994979 0.0264266 0)
(0.996427 0.0276359 0)
(0.997875 0.028502 0)
(0.999256 0.028877 0)
(1.00053 0.0288023 0)
(1.00169 0.0283267 0)
(1.00272 0.0274955 0)
(1.00362 0.0263558 0)
(1.00439 0.0249527 4.78022e-11)
(1.00505 0.0233281 -4.78022e-11)
(1.0056 0.0215199 0)
(1.00605 0.0195617 0)
(1.00642 0.0174827 4.38816e-11)
(1.00671 0.0153079 -4.38816e-11)
(1.00694 0.0130583 0)
(1.00712 0.0107514 0)
(1.00725 0.0084018 -4.16657e-11)
(1.00735 0.00602157 4.16657e-11)
(1.00741 0.00362062 -2.82989e-27)
(1.00744 0.00120803 2.84773e-27)
(0.995743 0.0238924 0)
(0.996959 0.0250203 0)
(0.998175 0.0258351 0)
(0.999336 0.0262055 0)
(1.00041 0.0261673 0)
(1.00139 0.0257631 0)
(1.00226 0.0250329 0)
(1.00302 0.0240183 0)
(1.00368 0.02276 4.80068e-11)
(1.00423 0.0212955 -4.80068e-11)
(1.0047 0.0196594 0)
(1.00509 0.0178823 0)
(1.0054 0.0159912 8.83102e-11)
(1.00566 0.014009 -8.83102e-11)
(1.00585 0.0119554 0)
(1.00601 0.00984688 0)
(1.00612 0.00769712 -4.19651e-11)
(1.0062 0.00551769 4.19651e-11)
(1.00625 0.0033181 2.23445e-28)
(1.00628 0.00110716 -2.24853e-28)
(0.996447 0.021472 6.37059e-27)
(0.997454 0.0225135 6.61873e-27)
(0.99846 0.0232711 -5.6763e-27)
(0.999421 0.0236295 0)
(1.00031 0.0236189 0)
(1.00112 0.0232767 -1.05209e-10)
(1.00185 0.0226378 -1.02575e-10)
(1.00248 0.0217392 -1.00051e-10)
(1.00303 0.0206169 -9.76592e-11)
(1.0035 0.0193045 0)
(1.00389 0.0178333 9.33524e-11)
(1.00422 0.0162311 1.82932e-10)
(1.00448 0.0145223 1.34173e-10)
(1.00469 0.012728 -4.44018e-11)
(1.00486 0.0108665 4.06965e-27)
(1.00499 0.0089529 4.2986e-27)
(1.00509 0.00700012 -1.27279e-10)
(1.00516 0.00501901 -4.21546e-11)
(1.0052 0.00301859 -8.3956e-11)
(1.00522 0.00100727 -8.42665e-11)
(0.997088 0.0191523 -6.3708e-27)
(0.997908 0.0201033 -6.61873e-27)
(0.998726 0.0207991 5.6763e-27)
(0.999508 0.0211389 0)
(1.00023 0.0211484 0)
(1.0009 0.02086 1.05209e-10)
(1.00149 0.0203042 1.02575e-10)
(1.00201 0.0195133 1.00051e-10)
(1.00246 0.0185192 9.76592e-11)
(1.00284 0.0173519 -1.16165e-27)
(1.00316 0.0160392 -9.33524e-11)
(1.00343 0.014606 -1.82932e-10)
(1.00365 0.0130745 -8.97716e-11)
(1.00383 0.0114639 1.33717e-27)
(1.00397 0.00979067 -3.02834e-27)
(1.00407 0.00806889 -5.33991e-27)
(1.00416 0.0063104 4.25622e-11)
(1.00421 0.00452527 1.26871e-10)
(1.00425 0.00272194 8.3956e-11)
(1.00427 0.000908327 8.42665e-11)
(0.997667 0.0169206 0)
(0.99832 0.0177782 0)
(0.998971 0.0184083 0)
(0.999594 0.0187242 0)
(1.00017 0.0187474 0)
(1.0007 0.0185058 0)
(1.00117 0.0180257 -3.48805e-27)
(1.00159 0.0173355 3.48805e-27)
(1.00195 0.0164628 0)
(1.00226 0.0154341 0)
(1.00252 0.0142741 3.79592e-27)
(1.00273 0.0130048 -3.79592e-27)
(1.00291 0.0116461 3.66042e-27)
(1.00305 0.0102152 -3.66042e-27)
(1.00317 0.008727 3.55693e-27)
(1.00325 0.00719415 -3.55693e-27)
(1.00332 0.00562745 -4.26968e-11)
(1.00336 0.00403615 4.26968e-11)
(1.00339 0.00242797 0)
(1.00341 0.000810256 0)
(0.998183 0.0147656 0)
(0.99869 0.0155273 0)
(0.999194 0.0160885 6.65077e-28)
(0.999676 0.0163761 -6.65077e-28)
(1.00012 0.0164075 0)
(1.00053 0.0162066 0)
(1.0009 0.0157962 2.73842e-28)
(1.00122 0.0152003 -2.73842e-28)
(1.00151 0.0144431 0)
(1.00175 0.0135475 0)
(1.00195 0.0125351 0)
(1.00212 0.0114252 0)
(1.00226 0.0102353 4.49881e-11)
(1.00237 0.00898065 -4.49881e-11)
(1.00246 0.00767439 0)
(1.00252 0.00632786 0)
(1.00258 0.00495072 -8.57728e-11)
(1.00261 0.00355126 8.57728e-11)
(1.00264 0.00213645 2.28479e-28)
(1.00265 0.000712992 -2.2992e-28)
(0.998636 0.0126763 -1.17572e-10)
(0.999015 0.0133399 1.15429e-10)
(0.999392 0.0138299 1.13011e-10)
(0.999752 0.0140854 6.64688e-28)
(1.00009 0.0141205 0)
(1.00039 0.0139554 0)
(1.00067 0.0136092 0)
(1.00091 0.0131025 0)
(1.00112 0.0124556 0)
(1.0013 0.0116884 -4.51343e-27)
(1.00146 0.0108191 0)
(1.00158 0.00986469 -1.70616e-27)
(1.00169 0.00884011 9.02684e-11)
(1.00177 0.0077586 -9.02684e-11)
(1.00184 0.00663165 0)
(1.00189 0.00546914 0)
(1.00193 0.00427955 -4.30494e-11)
(1.00196 0.00307018 -4.28703e-11)
(1.00197 0.00184715 -8.5497e-11)
(1.00198 0.000616454 2.30818e-28)
(0.999024 0.010642 1.17576e-10)
(0.999295 0.011206 -1.15429e-10)
(0.999563 0.0116228 -1.13011e-10)
(0.99982 0.0118433 0)
(1.00006 0.0118785 0)
(1.00028 0.011745 0)
(1.00047 0.0114587 0)
(1.00065 0.0110366 0)
(1.0008 0.0104958 -2.37659e-27)
(1.00093 0.00985279 6.89002e-27)
(1.00104 0.00912304 -3.82762e-27)
(1.00113 0.00832069 5.53379e-27)
(1.0012 0.00745843 4.52564e-11)
(1.00126 0.00654745 -4.52564e-11)
(1.00131 0.00559751 0)
(1.00135 0.00461703 0)
(1.00138 0.00361324 -4.31862e-11)
(1.0014 0.00259242 1.29106e-10)
(1.00141 0.00155979 8.5497e-11)
(1.00142 0.000520553 0)
(0.999349 0.00865233 -1.06927e-27)
(0.999529 0.00911579 1.07056e-27)
(0.999708 0.00945802 0)
(0.999879 0.00964125 0)
(1.00004 0.0096735 0)
(1.00018 0.00956822 0)
(1.00031 0.00933821 0)
(1.00043 0.00899717 0)
(1.00053 0.00855894 0)
(1.00062 0.00803689 0)
(1.00069 0.00744357 0)
(1.00075 0.00679051 0)
(1.0008 0.00608808 4.53554e-11)
(1.00084 0.00534544 -4.53554e-11)
(1.00087 0.0045706 -8.11963e-28)
(1.0009 0.00377048 8.11963e-28)
(1.00092 0.00295105 -8.65943e-11)
(1.00093 0.00211748 8.65943e-11)
(1.00094 0.00127408 2.30729e-28)
(1.00094 0.000425197 -2.32183e-28)
(0.999609 0.00669783 0)
(0.999717 0.0070598 0)
(0.999824 0.00732656 0)
(0.999927 0.00747069 0)
(1.00002 0.00749776 0)
(1.00011 0.00741811 0)
(1.00019 0.00724163 0)
(1.00026 0.00697884 0)
(1.00032 0.00664042 0)
(1.00037 0.00623669 0)
(1.00041 0.00577737 8.65151e-28)
(1.00045 0.00527141 -8.65151e-28)
(1.00048 0.00472684 4.54312e-11)
(1.0005 0.0041508 -4.54312e-11)
(1.00052 0.00354954 8.13468e-28)
(1.00054 0.00292844 -8.13468e-28)
(1.00055 0.00229218 -8.67648e-11)
(1.00056 0.00164483 8.67648e-11)
(1.00056 0.000989713 -2.31196e-28)
(1.00056 0.00033029 2.32653e-28)
(0.999805 0.00476922 0)
(0.999858 0.00502887 0)
(0.999912 0.00521964 -5.58167e-11)
(0.999963 0.00532337 5.58167e-11)
(1.00001 0.00534361 0)
(1.00005 0.00528772 -7.05536e-27)
(1.00009 0.00516274 3.61528e-28)
(1.00013 0.00497615 3.74339e-27)
(1.00016 0.00473552 -2.78485e-27)
(1.00018 0.00444819 0)
(1.00021 0.00412109 2.67393e-27)
(1.00022 0.00376058 0)
(1.00024 0.00337242 0)
(1.00025 0.00296169 -2.54068e-27)
(1.00026 0.00253286 0)
(1.00027 0.00208978 3.25929e-27)
(1.00027 0.00163582 -4.34412e-11)
(1.00028 0.00117389 4.34412e-11)
(1.00028 0.000706354 3.19027e-27)
(1.00028 0.000235721 3.02557e-28)
(0.999932 0.00285738 -1.39386e-27)
(0.99995 0.00301381 1.39537e-27)