/*--------------------------------*- C++ -*----------------------------------*\
  =========                 |
  \\      /  F ield         | OpenFOAM: The Open Source CFD Toolbox
   \\    /   O peration     | Website:  https://openfoam.org
    \\  /    A nd           | Version:  7
     \\/     M anipulation  |
\*---------------------------------------------------------------------------*/
FoamFile
{
    version     2.0;
    format      ascii;
    class       volVectorField;
    location    "40";
    object      U;
}
// * * * * * * * * * * * * * * * * * * * * * * * * * * * * * * * * * * * * * //

dimensions      [0 1 -1 0 0 0 0];

internalField   nonuniform List<vector> 
1360
(
(0.508091 -0.00437218 -1.66619e-21)
(0.512453 -0.00429897 -3.32289e-22)
(0.516747 -0.00422716 1.5353e-21)
(0.520972 -0.00415673 4.82016e-22)
(0.525132 -0.00408766 -1.29107e-21)
(0.529226 -0.00401995 -1.99658e-21)
(0.533256 -0.00395356 2.68842e-21)
(0.537224 -0.00388849 -2.33484e-22)
(0.54113 -0.00382472 -1.44131e-21)
(0.544976 -0.00376223 7.10081e-22)
(0.548763 -0.003701 -1.00215e-21)
(0.552492 -0.003641 1.78825e-21)
(0.556164 -0.00358222 2.20723e-22)
(0.559781 -0.00352465 -1.45996e-21)
(0.563343 -0.00346824 -3.77201e-22)
(0.566851 -0.003413 5.18655e-22)
(0.570307 -0.00335889 3.80638e-22)
(0.573712 -0.00330589 -5.13291e-22)
(0.577066 -0.00325399 2.14828e-22)
(0.580371 -0.00320316 2.02843e-22)
(0.583627 -0.00315337 -4.36221e-22)
(0.586836 -0.00310462 4.52001e-22)
(0.589998 -0.00305687 -2.60243e-22)
(0.593115 -0.00301011 1.88369e-22)
(0.596188 -0.0029643 1.55877e-22)
(0.599217 -0.00291944 -2.67803e-22)
(0.602202 -0.00287549 -2.89402e-22)
(0.605146 -0.00283244 2.01188e-22)
(0.608049 -0.00279025 1.49752e-22)
(0.610911 -0.0027489 -1.98802e-22)
(0.613734 -0.00270837 -7.05033e-23)
(0.616518 -0.00266863 1.47633e-22)
(0.619263 -0.00262964 -6.00469e-23)
(0.621972 -0.00259138 2.90614e-22)
(0.624643 -0.00255381 -2.61549e-22)
(0.627279 -0.00251688 3.51318e-23)
(0.629879 -0.00248056 7.38351e-23)
(0.632444 -0.0024448 1.94955e-23)
(0.634974 -0.00240954 -2.8885e-23)
(0.637471 -0.0023747 -3.78353e-23)
(0.639933 -0.00234023 5.07355e-23)
(0.642363 -0.00230601 -3.6548e-23)
(0.644759 -0.00227195 2.10114e-23)
(0.647121 -0.00223791 1.88498e-24)
(0.64945 -0.00220374 -5.68114e-24)
(0.651747 -0.00216925 6.26098e-25)
(0.65401 -0.00213426 -1.45843e-25)
(0.656228 -0.00209864 1.696e-24)
(0.658389 -0.00206209 1.50525e-24)
(0.660698 -0.00202494 1.40156e-25)
(0.663559 -0.00199628 1.53634e-24)
(0.524283 -0.0128904 -6.20981e-21)
(0.528408 -0.0126752 -4.54317e-21)
(0.532468 -0.0124642 9.36365e-21)
(0.536464 -0.0122572 -3.34349e-21)
(0.540399 -0.0120542 3.70341e-21)
(0.544272 -0.0118552 -1.03774e-20)
(0.548086 -0.0116601 1.27666e-20)
(0.551841 -0.0114688 2.18549e-22)
(0.555538 -0.0112814 -3.70171e-21)
(0.559179 -0.0110977 -1.92499e-21)
(0.562765 -0.0109177 6.05511e-23)
(0.566296 -0.0107414 -9.87935e-22)
(0.569774 -0.0105686 2.57441e-21)
(0.5732 -0.0103994 -1.39177e-21)
(0.576574 -0.0102336 7.48714e-22)
(0.579898 -0.0100712 -4.61454e-22)
(0.583174 -0.00991215 1.96311e-22)
(0.586401 -0.00975637 -2.04869e-22)
(0.589581 -0.0096038 -1.72694e-21)
(0.592714 -0.00945438 1.34058e-22)
(0.595802 -0.00930804 1.07395e-21)
(0.598846 -0.00916473 -1.83355e-21)
(0.601846 -0.00902437 1.76478e-21)
(0.604804 -0.00888691 -1.09638e-21)
(0.60772 -0.00875227 6.78327e-22)
(0.610594 -0.0086204 4.14177e-22)
(0.613429 -0.00849122 4.41296e-22)
(0.616224 -0.00836466 -3.10345e-22)
(0.618981 -0.00824066 -1.54068e-21)
(0.621699 -0.00811914 1.48456e-21)
(0.624381 -0.00800002 -6.53482e-22)
(0.627026 -0.00788321 -9.74131e-23)
(0.629636 -0.00776864 8.61853e-23)
(0.63221 -0.0076562 1.47731e-22)
(0.63475 -0.0075458 -1.70477e-22)
(0.637257 -0.00743732 -8.72321e-23)
(0.63973 -0.00733063 4.99128e-22)
(0.64217 -0.00722559 -1.81489e-22)
(0.644578 -0.00712204 -1.47342e-23)
(0.646954 -0.00701978 -1.68338e-22)
(0.649299 -0.0069186 1.37226e-22)
(0.651613 -0.00681823 3.15994e-23)
(0.653895 -0.00671837 -1.43396e-23)
(0.656147 -0.00661863 -6.62294e-24)
(0.658367 -0.00651859 1.18194e-23)
(0.660558 -0.00641771 -1.52686e-24)
(0.662717 -0.0063155 -2.00449e-24)
(0.664835 -0.00621157 2.66724e-24)
(0.6669 -0.00610505 -4.8235e-24)
(0.669106 -0.00599684 1.7669e-24)
(0.671848 -0.00591306 -8.75398e-24)
(0.55912 -0.0204083 9.45037e-21)
(0.562737 -0.0200706 -7.94381e-21)
(0.566299 -0.0197395 -4.04307e-21)
(0.569807 -0.0194147 2.82915e-21)
(0.573262 -0.0190963 -2.14881e-21)
(0.576665 -0.0187841 -2.70917e-21)
(0.580016 -0.0184781 3.48711e-21)
(0.583317 -0.0181782 -5.65485e-21)
(0.586569 -0.0178843 3.04771e-22)
(0.589772 -0.0175963 4.75334e-21)
(0.592928 -0.0173141 -8.14538e-22)
(0.596038 -0.0170376 -5.23825e-22)
(0.599102 -0.0167668 -5.87233e-21)
(0.602121 -0.0165015 3.93644e-21)
(0.605096 -0.0162416 1.12551e-21)
(0.608029 -0.0159871 2.78478e-22)
(0.610919 -0.0157377 -2.20851e-21)
(0.613768 -0.0154936 1.98055e-21)
(0.616577 -0.0152544 -4.64569e-22)
(0.619346 -0.0150202 2.22242e-21)
(0.622076 -0.0147908 -6.94201e-22)
(0.624768 -0.0145662 -2.0092e-21)
(0.627423 -0.0143462 1.54885e-21)
(0.630041 -0.0141307 -7.40942e-22)
(0.632624 -0.0139197 -2.16851e-21)
(0.635171 -0.013713 1.09496e-21)
(0.637684 -0.0135104 -2.43955e-22)
(0.640163 -0.013312 7.54199e-22)
(0.64261 -0.0131176 -1.47881e-21)
(0.645023 -0.012927 1.72761e-21)
(0.647405 -0.0127401 -3.86022e-22)
(0.649756 -0.0125568 -3.58565e-22)
(0.652077 -0.012377 5.29723e-22)
(0.654367 -0.0122005 -1.04819e-21)
(0.656628 -0.0120271 1.12993e-21)
(0.65886 -0.0118565 -7.51674e-22)
(0.661063 -0.0116887 1.21572e-22)
(0.663239 -0.0115233 4.07155e-23)
(0.665386 -0.0113601 -1.49359e-22)
(0.667507 -0.0111987 7.43045e-23)
(0.6696 -0.0110388 -6.19005e-23)
(0.671667 -0.0108798 1.06076e-22)
(0.673708 -0.0107212 4.55578e-23)
(0.675722 -0.0105623 -6.54451e-23)
(0.67771 -0.0104025 1.16885e-23)
(0.679672 -0.0102409 2.51934e-24)
(0.6816 -0.010077 -9.85072e-25)
(0.683482 -0.0099095 -3.79551e-24)
(0.685491 -0.00973953 -7.54213e-24)
(0.688003 -0.00960699 1.57101e-23)
(0.602337 -0.0271396 -1.15224e-20)
(0.605348 -0.0266949 1.3514e-21)
(0.608314 -0.0262587 -1.29275e-21)
(0.611237 -0.0258309 5.88081e-21)
(0.614117 -0.0254114 -5.47342e-22)
(0.616956 -0.0250001 1.76876e-20)
(0.619753 -0.0245969 -1.88722e-20)
(0.622511 -0.0242017 -5.38009e-21)
(0.625229 -0.0238144 1.30698e-20)
(0.627908 -0.0234348 -6.88089e-21)
(0.63055 -0.0230629 6.17847e-21)
(0.633154 -0.0226986 3.53237e-21)
(0.635721 -0.0223416 -6.59574e-21)
(0.638253 -0.0219919 -2.77454e-21)
(0.640749 -0.0216493 2.76585e-21)
(0.643211 -0.0213138 7.32721e-21)
(0.64564 -0.0209851 -4.55335e-21)
(0.648035 -0.0206633 -7.76856e-22)
(0.650397 -0.020348 9.95821e-22)
(0.652728 -0.0200393 -1.27335e-21)
(0.655028 -0.0197369 4.47532e-22)
(0.657297 -0.0194408 -4.04495e-22)
(0.659536 -0.0191508 2.69523e-22)
(0.661746 -0.0188668 -1.72764e-22)
(0.663927 -0.0185886 1.82889e-21)
(0.66608 -0.0183162 -1.65545e-21)
(0.668205 -0.0180493 1.03891e-21)
(0.670303 -0.0177878 -7.11598e-22)
(0.672375 -0.0175316 -1.08103e-22)
(0.674421 -0.0172805 1.79014e-22)
(0.676441 -0.0170344 9.47332e-22)
(0.678436 -0.016793 -4.56643e-22)
(0.680407 -0.0165563 -6.71848e-22)
(0.682354 -0.0163239 -5.34622e-22)
(0.684277 -0.0160957 3.86572e-23)
(0.686177 -0.0158714 7.31663e-24)
(0.688055 -0.0156508 1.71436e-22)
(0.68991 -0.0154335 3.49048e-22)
(0.691744 -0.0152193 1.40761e-22)
(0.693556 -0.0150076 1.14544e-22)
(0.695347 -0.0147981 -2.40895e-22)
(0.697117 -0.0145902 2.91786e-23)
(0.698866 -0.0143832 -3.21106e-23)
(0.700595 -0.0141764 -4.47483e-23)
(0.702305 -0.0139689 1.91017e-23)
(0.703995 -0.0137598 -4.64647e-24)
(0.70566 -0.0135485 1.58873e-24)
(0.707287 -0.0133334 4.72724e-24)
(0.709025 -0.0131157 -5.34144e-24)
(0.711217 -0.0129443 8.1411e-24)
(0.655015 -0.0326083 1.63371e-21)
(0.657313 -0.0320806 -5.67504e-21)
(0.659579 -0.0315629 1.08658e-20)
(0.661815 -0.0310551 -1.91134e-20)
(0.664022 -0.0305571 1.69087e-20)
(0.666198 -0.0300688 -6.85564e-21)
(0.668346 -0.0295901 -9.15505e-21)
(0.670465 -0.0291208 1.22638e-20)
(0.672557 -0.0286608 -5.50448e-21)
(0.674621 -0.02821 -8.4213e-22)
(0.676658 -0.0277683 -4.03068e-21)
(0.678668 -0.0273355 1.27276e-20)
(0.680653 -0.0269114 -2.92979e-21)
(0.682612 -0.0264959 -3.85495e-21)
(0.684546 -0.026089 2.32294e-21)
(0.686455 -0.0256903 -5.42721e-21)
(0.688341 -0.0252999 2.69656e-22)
(0.690203 -0.0249175 4.72862e-21)
(0.692041 -0.0245429 3.44501e-21)
(0.693857 -0.0241761 -3.0233e-21)
(0.695651 -0.0238169 -2.22609e-21)
(0.697423 -0.0234651 1.76615e-21)
(0.699173 -0.0231206 -2.18801e-21)
(0.700902 -0.0227832 3.82838e-21)
(0.702611 -0.0224528 -5.08635e-22)
(0.7043 -0.0221292 -2.42217e-21)
(0.70597 -0.0218123 3.70339e-21)
(0.707619 -0.0215019 -2.41282e-21)
(0.70925 -0.0211977 -1.00272e-21)
(0.710863 -0.0208997 2.73945e-21)
(0.712457 -0.0206077 -9.22039e-22)
(0.714034 -0.0203214 -1.71461e-21)
(0.715593 -0.0200406 1.57636e-21)
(0.717136 -0.0197652 -1.43219e-21)
(0.718662 -0.0194948 1.42231e-21)
(0.720171 -0.0192293 -2.8596e-22)
(0.721665 -0.0189683 5.66656e-22)
(0.723143 -0.0187115 -3.73801e-22)
(0.724606 -0.0184585 -3.51782e-22)
(0.726054 -0.0182089 4.95428e-22)
(0.727488 -0.0179622 -1.27581e-22)
(0.728907 -0.0177179 -1.88953e-22)
(0.730313 -0.0174753 2.39821e-22)
(0.731706 -0.0172336 -4.41493e-23)
(0.733086 -0.0169921 -2.62457e-23)
(0.734454 -0.0167497 4.80294e-24)
(0.735806 -0.0165061 7.37362e-24)
(0.737133 -0.0162596 -1.47322e-23)
(0.738549 -0.016011 2.89623e-24)
(0.740357 -0.0158131 -7.84828e-24)
(0.713662 -0.0366614 2.41696e-20)
(0.715206 -0.0360772 6.849e-21)
(0.716732 -0.0355039 -1.56738e-20)
(0.718243 -0.0349415 1.21228e-20)
(0.719736 -0.0343897 7.35849e-21)
(0.721213 -0.0338487 -2.10399e-20)
(0.722674 -0.0333181 -1.44917e-21)
(0.724118 -0.0327979 -3.65695e-21)
(0.725547 -0.032288 2.37581e-20)
(0.72696 -0.0317881 -1.03764e-20)
(0.728358 -0.0312983 2.43398e-21)
(0.729741 -0.0308183 -1.75503e-21)
(0.731109 -0.0303479 -7.07502e-21)
(0.732463 -0.0298871 8.27359e-21)
(0.733802 -0.0294357 -2.2688e-21)
(0.735127 -0.0289934 1.57086e-21)
(0.736438 -0.0285603 4.405e-21)
(0.737735 -0.0281361 -3.54032e-22)
(0.739019 -0.0277206 -8.86864e-21)
(0.74029 -0.0273137 3.81606e-22)
(0.741548 -0.0269152 4.1155e-21)
(0.742793 -0.0265251 4.73195e-21)
(0.744026 -0.026143 -1.57262e-21)
(0.745247 -0.0257689 -8.64059e-21)
(0.746456 -0.0254025 -3.07212e-23)
(0.747654 -0.0250438 5.85134e-21)
(0.74884 -0.0246925 1.5368e-21)
(0.750015 -0.0243485 -3.31083e-21)
(0.751179 -0.0240116 1.36404e-21)
(0.752332 -0.0236815 2.28627e-22)
(0.753475 -0.0233582 1.84272e-21)
(0.754608 -0.0230414 -4.82846e-22)
(0.755731 -0.0227309 -1.67912e-21)
(0.756845 -0.0224264 5.00001e-22)
(0.757949 -0.0221277 -2.56965e-22)
(0.759044 -0.0218346 -4.6751e-22)
(0.76013 -0.0215468 7.9337e-22)
(0.761208 -0.0212639 -2.82235e-22)
(0.762278 -0.0209855 2.19236e-22)
(0.76334 -0.0207114 1.57487e-22)
(0.764394 -0.020441 3.51742e-22)
(0.765441 -0.0201739 -4.11783e-22)
(0.766482 -0.0199094 9.29297e-23)
(0.767517 -0.0196469 8.56192e-23)
(0.768546 -0.0193857 -3.93677e-23)
(0.76957 -0.0191251 5.77735e-24)
(0.770588 -0.0188647 -1.25028e-23)
(0.771591 -0.0186033 -2.22356e-25)
(0.772664 -0.0183414 7.90133e-25)
(0.774056 -0.0181303 -1.69185e-25)
(0.775524 -0.0386713 1.03525e-20)
(0.776333 -0.0380673 9.14066e-22)
(0.777137 -0.0374745 -2.05706e-20)
(0.777938 -0.0368928 1.23993e-20)
(0.778735 -0.0363221 -4.42767e-21)
(0.779529 -0.0357624 -2.58276e-20)
(0.780318 -0.0352135 1.44891e-20)
(0.781103 -0.0346754 1.76124e-20)
(0.781884 -0.0341478 -1.78332e-20)
(0.782661 -0.0336306 1.72598e-20)
(0.783434 -0.0331238 -7.41377e-21)
(0.784203 -0.0326271 -1.25307e-20)
(0.784967 -0.0321404 1.46366e-22)
(0.785728 -0.0316637 9.92048e-21)
(0.786485 -0.0311966 -1.05374e-20)
(0.787237 -0.0307392 3.94622e-21)
(0.787986 -0.0302912 4.86975e-21)
(0.788731 -0.0298524 4.8966e-22)
(0.789472 -0.0294227 3.92594e-21)
(0.790209 -0.029002 -3.05956e-21)
(0.790942 -0.0285901 -7.52529e-22)
(0.791672 -0.0281868 -2.11987e-21)
(0.792398 -0.027792 5.57944e-22)
(0.793121 -0.0274055 -5.37308e-21)
(0.79384 -0.0270271 4.8097e-21)
(0.794556 -0.0266566 3.40569e-21)
(0.795268 -0.026294 -8.20303e-21)
(0.795978 -0.025939 4.06612e-21)
(0.796685 -0.0255914 4.66367e-22)
(0.797388 -0.025251 -1.32596e-22)
(0.798089 -0.0249177 -1.81219e-22)
(0.798788 -0.0245912 4.52752e-22)
(0.799484 -0.0242713 3.10131e-23)
(0.800177 -0.0239578 5.6695e-22)
(0.800869 -0.0236505 -1.52415e-21)
(0.801559 -0.023349 8.34819e-22)
(0.802247 -0.0230532 1.19078e-21)
(0.802933 -0.0227626 -5.54374e-22)
(0.803619 -0.0224769 -2.37193e-22)
(0.804303 -0.0221958 3.56741e-22)
(0.804988 -0.0219189 -2.85549e-22)
(0.805672 -0.0216457 6.96588e-23)
(0.806356 -0.0213756 1.09232e-22)
(0.807042 -0.0211083 -2.20362e-22)
(0.807731 -0.0208433 2.3354e-23)
(0.80842 -0.0205803 1.68896e-23)
(0.809105 -0.0203188 -1.50019e-24)
(0.809841 -0.0200591 -1.80026e-24)
(0.810817 -0.0198473 4.07644e-24)
(0.835043 -0.0400428 2.42165e-20)
(0.835205 -0.039425 -4.18463e-20)
(0.835375 -0.0388185 2.68107e-20)
(0.835553 -0.0382233 -2.93739e-20)
(0.835738 -0.0376392 4.39034e-20)
(0.83593 -0.0370663 -1.16702e-20)
(0.836129 -0.0365044 -3.13154e-20)
(0.836335 -0.0359534 4.04822e-20)
(0.836547 -0.0354133 -9.50022e-21)
(0.836765 -0.0348839 7.61628e-21)
(0.836989 -0.034365 9.96446e-22)
(0.837219 -0.0338566 -1.19072e-20)
(0.837454 -0.0333585 -3.88069e-21)
(0.837694 -0.0328706 7.10968e-21)
(0.837939 -0.0323928 5.05828e-21)
(0.838189 -0.0319248 -1.0679e-20)
(0.838444 -0.0314666 4.80655e-21)
(0.838704 -0.031018 -3.50469e-21)
(0.838968 -0.0305788 2.33138e-21)
(0.839236 -0.0301489 -1.82975e-21)
(0.839509 -0.0297282 1.79176e-21)
(0.839786 -0.0293164 1.53561e-21)
(0.840067 -0.0289134 4.44101e-21)
(0.840352 -0.0285191 -6.79493e-21)
(0.840641 -0.0281334 2.73813e-21)
(0.840934 -0.0277559 -1.39946e-21)
(0.841231 -0.0273866 -5.98314e-22)
(0.841532 -0.0270253 5.12311e-21)
(0.841837 -0.0266718 -4.93234e-21)
(0.842146 -0.026326 3.27449e-22)
(0.842459 -0.0259876 -1.25894e-21)
(0.842776 -0.0256566 -1.46971e-22)
(0.843097 -0.0253325 1.88035e-21)
(0.843421 -0.0250154 5.75576e-22)
(0.84375 -0.0247049 -1.16549e-21)
(0.844084 -0.0244009 -6.31461e-22)
(0.844422 -0.024103 5.08704e-22)
(0.844764 -0.0238111 -2.02325e-22)
(0.845111 -0.0235249 -1.17287e-22)
(0.845464 -0.023244 1.60299e-23)
(0.845821 -0.0229682 -6.40093e-23)
(0.846185 -0.0226971 1.28983e-22)
(0.846555 -0.0224305 1.34838e-22)
(0.846932 -0.022168 -2.18767e-22)
(0.847316 -0.0219093 6.7445e-23)
(0.847708 -0.0216547 2.98315e-24)
(0.848105 -0.0214037 -2.50451e-23)
(0.848536 -0.0211565 2.69906e-25)
(0.849123 -0.020952 -1.90052e-26)
(0.894466 -0.039204 0)
(0.894102 -0.0386236 0)
(0.893754 -0.0380534 0)
(0.893421 -0.0374932 4.57818e-28)
(0.893102 -0.0369431 -2.11597e-28)
(0.892798 -0.0364031 2.03495e-28)
(0.892508 -0.0358732 -4.07207e-28)
(0.89223 -0.0353533 0)
(0.891966 -0.0348433 0)
(0.891714 -0.0343432 0)
(0.891475 -0.0338528 -4.00386e-12)
(0.891247 -0.0333722 -3.83839e-12)
(0.891031 -0.0329012 0)
(0.890826 -0.0324397 0)
(0.890632 -0.0319876 0)
(0.890449 -0.0315449 0)
(0.890276 -0.0311112 0)
(0.890114 -0.0306867 0)
(0.889962 -0.0302711 0)
(0.889819 -0.0298643 0)
(0.889686 -0.0294662 2.18408e-28)
(0.889563 -0.0290767 -9.96029e-29)
(0.889449 -0.0286956 0)
(0.889344 -0.0283228 0)
(0.889248 -0.0279582 0)
(0.889161 -0.0276016 0)
(0.889084 -0.0272528 0)
(0.889014 -0.0269118 1.46305e-28)
(0.888954 -0.0265784 -6.5801e-29)
(0.888902 -0.0262525 1.27868e-28)
(0.888859 -0.0259338 -5.71598e-29)
(0.888824 -0.0256223 0)
(0.888798 -0.0253177 0)
(0.888781 -0.02502 0)
(0.888772 -0.0247289 0)
(0.888772 -0.0244443 0)
(0.888781 -0.024166 0)
(0.888799 -0.0238937 6.28552e-29)
(0.888827 -0.0236274 -2.67577e-29)
(0.888864 -0.0233668 0)
(0.888912 -0.0231117 0)
(0.888969 -0.022862 3.55959e-29)
(0.889038 -0.0226174 -1.41105e-29)
(0.889118 -0.0223779 0)
(0.88921 -0.0221436 1.77045e-29)
(0.889313 -0.0219143 -5.90143e-30)
(0.889437 -0.0216898 7.15233e-30)
(0.889623 -0.0215015 -1.15332e-30)
(0.953854 -0.0379146 0)
(0.953014 -0.0373729 0)
(0.952195 -0.0368401 0)
(0.951397 -0.0363163 -4.58438e-28)
(0.95062 -0.0358016 2.11882e-28)
(0.949863 -0.035296 -7.23273e-28)
(0.949124 -0.0347995 9.27257e-28)
(0.948405 -0.034312 0)
(0.947703 -0.0338337 0)
(0.947019 -0.0333645 0)
(0.946352 -0.0329042 4.00914e-12)
(0.945702 -0.032453 3.84343e-12)
(0.945068 -0.0320106 0)
(0.944451 -0.0315771 0)
(0.943849 -0.0311524 0)
(0.943262 -0.0307364 0)
(0.94269 -0.030329 0)
(0.942132 -0.0299302 -3.2954e-28)
(0.941589 -0.0295398 3.2954e-28)
(0.94106 -0.0291577 0)
(0.940545 -0.0287839 -2.18682e-28)
(0.940043 -0.0284183 9.97267e-29)
(0.939555 -0.0280607 0)
(0.93908 -0.027711 0)
(0.938617 -0.0273692 0)
(0.938168 -0.0270351 0)
(0.937731 -0.0267086 0)
(0.937306 -0.0263897 -1.46479e-28)
(0.936894 -0.0260781 6.58787e-29)
(0.936494 -0.0257739 -1.28018e-28)
(0.936106 -0.0254768 5.72261e-29)
(0.93573 -0.0251868 0)
(0.935366 -0.0249038 0)
(0.935015 -0.0246277 0)
(0.934675 -0.0243582 0)
(0.934347 -0.0240955 0)
(0.934032 -0.0238393 0)
(0.933729 -0.0235895 -6.29235e-29)
(0.933439 -0.0233461 2.67864e-29)
(0.933161 -0.0231089 0)
(0.932897 -0.022878 0)
(0.932646 -0.0226533 -3.5633e-29)
(0.932408 -0.0224346 1.4125e-29)
(0.932185 -0.0222222 0)
(0.931978 -0.022016 -1.77222e-29)
(0.931787 -0.0218161 5.90728e-30)
(0.931605 -0.0216222 -7.15932e-30)
(0.931386 -0.0214585 1.15176e-30)
(1.0069 -0.0358311 0)
(1.00571 -0.0353373 0)
(1.00455 -0.034851 -1.34222e-29)
(1.00341 -0.0343723 0)
(1.00229 -0.0339013 1.2462e-29)
(1.0012 -0.0334383 -5.83012e-28)
(1.00013 -0.0329831 5.71011e-28)
(0.999084 -0.0325359 1.11148e-29)
(0.998058 -0.0320968 0)
(0.997052 -0.0316657 0)
(0.996066 -0.0312426 4.94861e-29)
(0.995101 -0.0308277 0)
(0.994154 -0.0304208 -1.42955e-28)
(0.993226 -0.0300219 -1.02076e-28)
(0.992317 -0.029631 0)
(0.991425 -0.0292482 -4.00854e-29)
(0.990551 -0.0288732 0)
(0.989694 -0.0285061 0)
(0.988855 -0.0281469 0)
(0.988031 -0.0277954 -6.65313e-30)
(0.987224 -0.0274516 0)
(0.986433 -0.0271154 0)
(0.985658 -0.0267868 0)
(0.984898 -0.0264657 0)
(0.984153 -0.0261521 5.14761e-30)
(0.983424 -0.0258458 0)
(0.982709 -0.0255468 0)
(0.982009 -0.025255 2.16918e-29)
(0.981323 -0.0249704 1.78554e-12)
(0.980652 -0.0246928 1.67358e-12)
(0.979995 -0.0244222 0)
(0.979352 -0.0241587 3.31859e-30)
(0.978723 -0.023902 0)
(0.978108 -0.0236521 0)
(0.977507 -0.0234091 0)
(0.976921 -0.0231728 -2.40548e-30)
(0.976348 -0.0229432 0)
(0.97579 -0.0227204 8.71283e-13)
(0.975246 -0.0225043 7.82502e-13)
(0.974717 -0.0222949 0)
(0.974202 -0.0220924 1.39519e-30)
(0.973702 -0.0218967 0)
(0.973218 -0.0217079 0)
(0.97275 -0.0215263 -8.62431e-31)
(0.972298 -0.0213521 0)
(0.971867 -0.0211855 0)
(0.971437 -0.0210266 0)
(0.970881 -0.0208922 0)
(1.0524 -0.0331826 0)
(1.05099 -0.0327412 0)
(1.04961 -0.0323058 1.34222e-29)
(1.04826 -0.0318766 0)
(1.04693 -0.0314538 -1.2462e-29)
(1.04562 -0.0310375 1.20009e-29)
(1.04434 -0.030628 0)
(1.04308 -0.0302253 -1.11148e-29)
(1.04184 -0.0298295 0)
(1.04063 -0.0294406 0)
(1.03943 -0.0290589 -4.94861e-29)
(1.03826 -0.0286842 0)
(1.0371 -0.0283166 1.42955e-28)
(1.03597 -0.0279562 1.02076e-28)
(1.03485 -0.027603 0)
(1.03376 -0.027257 4.00854e-29)
(1.03268 -0.0269181 0)
(1.03162 -0.0265864 0)
(1.03058 -0.0262618 0)
(1.02956 -0.0259444 6.65313e-30)
(1.02855 -0.025634 0)
(1.02756 -0.0253308 0)
(1.02659 -0.0250345 0)
(1.02563 -0.0247453 0)
(1.02469 -0.024463 -5.14761e-30)
(1.02377 -0.0241876 0)
(1.02286 -0.0239192 0)
(1.02196 -0.0236576 -2.16918e-29)
(1.02109 -0.0234029 -1.78554e-12)
(1.02022 -0.0231549 -1.67358e-12)
(1.01938 -0.0229138 0)
(1.01854 -0.0226794 -3.31859e-30)
(1.01773 -0.0224518 0)
(1.01692 -0.022231 0)
(1.01613 -0.0220169 0)
(1.01536 -0.0218097 2.40548e-30)
(1.0146 -0.0216093 0)
(1.01386 -0.0214158 -8.71283e-13)
(1.01313 -0.0212293 -7.82502e-13)
(1.01241 -0.0210499 0)
(1.01171 -0.0208777 -1.39519e-30)
(1.01103 -0.0207129 0)
(1.01036 -0.0205557 0)
(1.00971 -0.0204065 8.62431e-31)
(1.00907 -0.0202655 0)
(1.00846 -0.0201332 0)
(1.00784 -0.0200101 0)
(1.00703 -0.0199069 0)
(1.0899 -0.0302271 0)
(1.08839 -0.0298378 0)
(1.08691 -0.029453 0)
(1.08545 -0.0290732 0)
(1.08401 -0.0286985 0)
(1.0826 -0.0283291 0)
(1.08121 -0.0279653 0)
(1.07984 -0.0276072 0)
(1.0785 -0.0272549 0)
(1.07717 -0.0269086 0)
(1.07587 -0.0265683 0)
(1.07458 -0.0262342 0)
(1.07332 -0.0259064 0)
(1.07208 -0.0255848 0)
(1.07085 -0.0252696 0)
(1.06964 -0.0249608 0)
(1.06845 -0.0246584 0)
(1.06728 -0.0243625 3.76648e-28)
(1.06613 -0.0240731 -3.76648e-28)
(1.06499 -0.0237901 0)
(1.06387 -0.0235136 0)
(1.06277 -0.0232436 0)
(1.06168 -0.0229802 0)
(1.06061 -0.0227232 0)
(1.05956 -0.0224727 0)
(1.05852 -0.0222287 0)
(1.0575 -0.0219912 0)
(1.05649 -0.0217602 0)
(1.05549 -0.0215357 0)
(1.05452 -0.0213178 0)
(1.05355 -0.0211063 0)
(1.0526 -0.0209015 0)
(1.05167 -0.0207032 0)
(1.05075 -0.0205116 0)
(1.04984 -0.0203267 0)
(1.04895 -0.0201486 0)
(1.04807 -0.0199773 0)
(1.04721 -0.0198131 0)
(1.04636 -0.019656 0)
(1.04553 -0.0195063 0)
(1.04471 -0.019364 0)
(1.0439 -0.0192296 0)
(1.04311 -0.0191032 0)
(1.04233 -0.0189853 0)
(1.04158 -0.0188762 0)
(1.04084 -0.0187766 0)
(1.04009 -0.0186873 0)
(1.03909 -0.0186143 0)
(1.11955 -0.0271781 0)
(1.11803 -0.026837 0)
(1.11654 -0.0264994 0)
(1.11507 -0.0261655 0)
(1.11362 -0.0258357 0)
(1.11219 -0.0255101 -5.97389e-28)
(1.11078 -0.0251891 5.97389e-28)
(1.1094 -0.0248728 0)
(1.10803 -0.0245614 0)
(1.10668 -0.024255 0)
(1.10535 -0.0239538 0)
(1.10404 -0.023658 0)
(1.10275 -0.0233676 0)
(1.10147 -0.0230827 0)
(1.10022 -0.0228035 0)
(1.09898 -0.0225299 0)
(1.09775 -0.0222621 0)
(1.09655 -0.0220001 3.70263e-28)
(1.09536 -0.0217439 -3.70263e-28)
(1.09418 -0.0214936 0)
(1.09302 -0.0212493 0)
(1.09188 -0.0210109 0)
(1.09075 -0.0207785 0)
(1.08964 -0.0205522 0)
(1.08854 -0.0203318 0)
(1.08745 -0.0201176 0)
(1.08638 -0.0199095 0)
(1.08533 -0.0197075 0)
(1.08428 -0.0195117 0)
(1.08326 -0.0193222 0)
(1.08224 -0.0191389 0)
(1.08124 -0.0189619 0)
(1.08025 -0.0187914 0)
(1.07928 -0.0186274 0)
(1.07831 -0.0184699 0)
(1.07737 -0.0183192 0)
(1.07643 -0.0181753 0)
(1.07551 -0.0180385 0)
(1.0746 -0.0179088 0)
(1.0737 -0.0177866 0)
(1.07282 -0.0176721 0)
(1.07195 -0.0175656 0)
(1.07109 -0.0174674 0)
(1.07025 -0.0173779 0)
(1.06942 -0.0172977 0)
(1.06861 -0.0172272 0)
(1.0678 -0.0171678 0)
(1.06668 -0.0171219 0)
(1.14201 -0.0241981 0)
(1.14056 -0.0238995 0)
(1.13912 -0.0236034 0)
(1.1377 -0.0233102 0)
(1.13631 -0.0230202 2.86416e-28)
(1.13493 -0.0227336 2.60106e-28)
(1.13357 -0.0224506 -1.68255e-28)
(1.13222 -0.0221716 -2.57496e-28)
(1.1309 -0.0218967 0)
(1.12959 -0.0216261 0)
(1.1283 -0.02136 0)
(1.12702 -0.0210985 0)
(1.12576 -0.0208417 0)
(1.12452 -0.0205898 0)
(1.12329 -0.0203429 0)
(1.12208 -0.0201011 0)
(1.12088 -0.0198644 0)
(1.11969 -0.0196329 0)
(1.11852 -0.0194068 0)
(1.11737 -0.019186 0)
(1.11623 -0.0189706 0)
(1.1151 -0.0187608 0)
(1.11399 -0.0185565 3.01277e-12)
(1.11289 -0.0183578 2.86898e-12)
(1.1118 -0.0181647 2.7282e-12)
(1.11072 -0.0179773 2.59034e-12)
(1.10966 -0.0177957 -1.13103e-28)
(1.10861 -0.0176199 0)
(1.10757 -0.0174499 0)
(1.10655 -0.017286 0)
(1.10553 -0.017128 0)
(1.10453 -0.0169761 0)
(1.10354 -0.0168305 0)
(1.10256 -0.0166911 0)
(1.1016 -0.0165582 0)
(1.10064 -0.0164319 0)
(1.0997 -0.0163124 0)
(1.09876 -0.0161998 0)
(1.09784 -0.0160944 0)
(1.09693 -0.0159964 0)
(1.09604 -0.0159061 3.82153e-29)
(1.09515 -0.0158238 0)
(1.09427 -0.0157499 0)
(1.09341 -0.0156849 -2.47797e-29)
(1.09255 -0.0156291 2.82658e-29)
(1.09172 -0.0155832 -1.6257e-29)
(1.09087 -0.0155485 0)
(1.08971 -0.0155254 0)
(1.15825 -0.0213936 0)
(1.1569 -0.0211313 0)
(1.15556 -0.0208708 0)
(1.15424 -0.0206125 0)
(1.15293 -0.0203566 -2.86416e-28)
(1.15164 -0.0201035 2.76553e-28)
(1.15037 -0.0198534 -3.68405e-28)
(1.14911 -0.0196066 2.57496e-28)
(1.14787 -0.0193633 0)
(1.14664 -0.0191237 0)
(1.14542 -0.0188879 0)
(1.14422 -0.0186562 0)
(1.14304 -0.0184286 0)
(1.14187 -0.0182054 0)
(1.14071 -0.0179866 0)
(1.13956 -0.0177724 0)
(1.13843 -0.0175628 0)
(1.13731 -0.017358 3.71794e-28)
(1.1362 -0.017158 -3.71794e-28)
(1.1351 -0.0169629 0)
(1.13402 -0.0167729 0)
(1.13295 -0.0165879 0)
(1.13189 -0.016408 -3.01277e-12)
(1.13084 -0.0162334 -2.86898e-12)
(1.1298 -0.016064 -2.7282e-12)
(1.12877 -0.0159 -2.59034e-12)
(1.12775 -0.0157414 1.13103e-28)
(1.12675 -0.0155882 0)
(1.12575 -0.0154407 0)
(1.12477 -0.0152988 0)
(1.1238 -0.0151627 0)
(1.12283 -0.0150325 0)
(1.12188 -0.0149082 0)
(1.12093 -0.0147901 0)
(1.12 -0.0146782 0)
(1.11907 -0.0145727 0)
(1.11816 -0.0144738 0)
(1.11725 -0.0143818 0)
(1.11636 -0.0142967 0)
(1.11547 -0.014219 0)
(1.11459 -0.0141488 -3.82153e-29)
(1.11372 -0.0140865 0)
(1.11286 -0.0140326 0)
(1.11201 -0.0139873 2.47797e-29)
(1.11117 -0.0139511 -2.82658e-29)
(1.11034 -0.0139247 1.6257e-29)
(1.10951 -0.0139091 0)
(1.10835 -0.0139039 0)
(1.16938 -0.0188197 0)
(1.16814 -0.018588 7.22052e-12)
(1.16692 -0.0183575 1.3977e-11)
(1.16571 -0.0181287 6.76133e-12)
(1.16452 -0.0179018 0)
(1.16334 -0.0176772 -2.62395e-28)
(1.16217 -0.0174551 0)
(1.16102 -0.0172358 0)
(1.15988 -0.0170195 -5.69464e-12)
(1.15875 -0.0168063 -5.49444e-12)
(1.15763 -0.0165965 0)
(1.15653 -0.0163903 -5.10639e-12)
(1.15544 -0.0161878 -4.91835e-12)
(1.15436 -0.0159891 0)
(1.15329 -0.0157945 -4.55377e-12)
(1.15223 -0.0156039 -4.37704e-12)
(1.15119 -0.0154176 0)
(1.15015 -0.0152355 -3.48601e-28)
(1.14913 -0.015058 0)
(1.14811 -0.0148849 1.53801e-28)
(1.14711 -0.0147164 -3.06359e-28)
(1.14611 -0.0145527 1.40675e-28)
(1.14513 -0.0143937 3.23539e-12)
(1.14416 -0.0142396 3.08491e-12)
(1.14319 -0.0140904 -1.21931e-28)
(1.14224 -0.0139462 2.79258e-12)
(1.14129 -0.0138071 2.65059e-12)
(1.14035 -0.0136732 2.17e-28)
(1.13942 -0.0135446 2.37455e-12)
(1.13851 -0.0134214 2.24036e-12)
(1.13759 -0.0133037 -8.75311e-29)
(1.13669 -0.0131916 1.97928e-12)
(1.1358 -0.0130851 8.00271e-29)
(1.13491 -0.0129846 -1.72747e-12)
(1.13403 -0.0128901 1.60486e-12)
(1.13316 -0.0128017 1.48436e-12)
(1.1323 -0.0127198 0)
(1.13145 -0.0126444 -1.24939e-12)
(1.1306 -0.0125758 -2.26956e-12)
(1.12976 -0.0125142 -1.02198e-12)
(1.12893 -0.01246 -9.10927e-13)
(1.1281 -0.0124135 -8.01528e-13)
(1.12728 -0.0123749 -2.87961e-29)
(1.12647 -0.0123447 0)
(1.12566 -0.0123233 4.16782e-29)
(1.12487 -0.0123112 -1.57071e-29)
(1.12407 -0.0123095 0)
(1.12295 -0.012317 7.92571e-30)
(1.17651 -0.0164899 0)
(1.17539 -0.0162842 -7.22052e-12)
(1.17428 -0.0160795 -1.3977e-11)
(1.17319 -0.015876 -6.76133e-12)
(1.17211 -0.015674 0)
(1.17104 -0.0154738 2.62395e-28)
(1.16999 -0.0152758 0)
(1.16894 -0.0150801 0)
(1.16791 -0.014887 5.69464e-12)
(1.16689 -0.0146966 5.49444e-12)
(1.16587 -0.0145092 0)
(1.16487 -0.014325 5.10639e-12)
(1.16388 -0.0141441 4.91835e-12)
(1.1629 -0.0139666 0)
(1.16193 -0.0137927 4.55377e-12)
(1.16097 -0.0136225 4.37704e-12)
(1.16001 -0.0134561 0)
(1.15907 -0.0132937 7.18696e-28)
(1.15814 -0.0131354 -3.70095e-28)
(1.15722 -0.0129812 -1.53801e-28)
(1.1563 -0.0128312 3.06359e-28)
(1.15539 -0.0126856 -1.40675e-28)
(1.1545 -0.0125444 -3.23539e-12)
(1.15361 -0.0124077 -3.08491e-12)
(1.15273 -0.0122757 1.21931e-28)
(1.15185 -0.0121483 -2.79258e-12)
(1.15099 -0.0120257 -2.65059e-12)
(1.15013 -0.011908 -2.17e-28)
(1.14928 -0.0117952 -2.37455e-12)
(1.14843 -0.0116875 -2.24036e-12)
(1.1476 -0.011585 8.75311e-29)
(1.14677 -0.0114878 -1.97928e-12)
(1.14595 -0.0113961 -8.00271e-29)
(1.14513 -0.0113099 1.72747e-12)
(1.14432 -0.0112294 -1.60486e-12)
(1.14352 -0.0111549 -1.48436e-12)
(1.14273 -0.0110864 0)
(1.14193 -0.0110241 1.24939e-12)
(1.14115 -0.0109684 2.26956e-12)
(1.14037 -0.0109193 1.02198e-12)
(1.1396 -0.0108773 9.10927e-13)
(1.13883 -0.0108425 8.01528e-13)
(1.13807 -0.0108153 2.87961e-29)
(1.13731 -0.0107959 0)
(1.13655 -0.0107849 -4.16782e-29)
(1.13581 -0.0107825 1.57071e-29)
(1.13506 -0.0107898 0)
(1.134 -0.0108053 -7.92086e-30)
(1.18066 -0.0143895 3.20908e-28)
(1.17965 -0.0142068 -6.47471e-28)
(1.17865 -0.0140246 3.01359e-28)
(1.17767 -0.0138434 0)
(1.17669 -0.0136633 0)
(1.17572 -0.0134848 0)
(1.17477 -0.013308 0)
(1.17383 -0.0131333 0)
(1.17289 -0.0129607 -5.14218e-28)
(1.17197 -0.0127905 0)
(1.17105 -0.0126229 4.79345e-28)
(1.17015 -0.0124581 -2.22138e-28)
(1.16925 -0.0122963 0)
(1.16836 -0.0121375 0)
(1.16748 -0.0119819 0)
(1.16662 -0.0118297 3.9784e-28)
(1.16575 -0.011681 -1.83729e-28)
(1.1649 -0.0115358 4.06432e-28)
(1.16406 -0.0113943 -2.37068e-28)
(1.16322 -0.0112566 -1.62381e-28)
(1.1624 -0.0111228 3.23752e-28)
(1.16158 -0.010993 0)
(1.16076 -0.0108672 0)
(1.15996 -0.0107457 0)
(1.15916 -0.0106283 0)
(1.15837 -0.0105154 0)
(1.15758 -0.0104068 0)
(1.15681 -0.0103028 -2.30838e-28)
(1.15604 -0.0102035 1.04954e-28)
(1.15527 -0.0101089 -2.06318e-28)
(1.15451 -0.0100191 0)
(1.15376 -0.00993429 0)
(1.15301 -0.00985458 0)
(1.15227 -0.0097801 7.66802e-29)
(1.15153 -0.00971098 0)
(1.1508 -0.0096474 -6.5971e-29)
(1.15007 -0.0095895 6.07307e-29)
(1.14935 -0.00953749 0)
(1.14864 -0.00949155 0)
(1.14792 -0.0094519 0)
(1.14721 -0.00941877 0)
(1.14651 -0.0093924 0)
(1.14581 -0.00937306 0)
(1.14511 -0.00936105 0)
(1.14441 -0.00935665 0)
(1.14372 -0.00936022 -1.62501e-29)
(1.14303 -0.00937255 2.42417e-29)
(1.14205 -0.0093922 -7.40011e-30)
(1.18271 -0.0124877 -3.20908e-28)
(1.18179 -0.0123259 6.47471e-28)
(1.18088 -0.0121644 -3.01359e-28)
(1.17999 -0.0120036 0)
(1.1791 -0.0118437 0)
(1.17822 -0.0116851 0)
(1.17735 -0.0115278 0)
(1.1765 -0.0113723 0)
(1.17565 -0.0112186 5.14218e-28)
(1.17481 -0.011067 0)
(1.17398 -0.0109176 -4.79345e-28)
(1.17316 -0.0107707 2.22138e-28)
(1.17234 -0.0106263 0)
(1.17154 -0.0104847 0)
(1.17074 -0.0103459 0)
(1.16996 -0.0102101 -3.9784e-28)
(1.16918 -0.0100774 1.83729e-28)
(1.16841 -0.00994798 3.88958e-28)
(1.16764 -0.00982183 -5.58322e-28)
(1.16689 -0.00969912 1.62381e-28)
(1.16614 -0.00957992 -3.23752e-28)
(1.16539 -0.00946434 0)
(1.16466 -0.00935247 0)
(1.16393 -0.0092444 0)
(1.16321 -0.00914022 0)
(1.16249 -0.00904002 0)
(1.16179 -0.00894389 0)
(1.16108 -0.00885192 2.30838e-28)
(1.16038 -0.00876422 -1.04954e-28)
(1.15969 -0.00868088 2.06318e-28)
(1.15901 -0.00860201 0)
(1.15832 -0.00852772 0)
(1.15765 -0.00845813 0)
(1.15697 -0.00839337 -7.66802e-29)
(1.15631 -0.00833356 0)
(1.15564 -0.00827886 6.5971e-29)
(1.15498 -0.00822941 -6.07307e-29)
(1.15433 -0.00818537 0)
(1.15368 -0.00814692 0)
(1.15303 -0.00811425 0)
(1.15238 -0.00808754 0)