/*--------------------------------*- C++ -*----------------------------------*\
  =========                 |
  \\      /  F ield         | OpenFOAM: The Open Source CFD Toolbox
   \\    /   O peration     | Website:  https://openfoam.org
    \\  /    A nd           | Version:  7
     \\/     M anipulation  |
\*---------------------------------------------------------------------------*/
FoamFile
{
    version     2.0;
    format      ascii;
    class       volScalarField;
    location    "5";
    object      p;
}
// * * * * * * * * * * * * * * * * * * * * * * * * * * * * * * * * * * * * * //

dimensions      [0 2 -2 0 0 0 0];

internalField   nonuniform List<scalar> 
3500
(
-0.355524
-0.377128
-0.403544
-0.431236
-0.455372
-0.47
-0.466137
-0.432461
-0.333709
-0.34597
-0.360102
-0.381885
-0.408842
-0.437594
-0.46328
-0.480035
-0.482323
-0.448413
-0.343661
-0.353821
-0.367446
-0.389113
-0.416402
-0.446179
-0.473961
-0.49234
-0.505073
-0.472188
-0.355314
-0.362509
-0.374833
-0.39544
-0.421933
-0.451231
-0.480933
-0.497338
-0.520844
-0.487797
-0.366333
-0.36999
-0.379928
-0.398081
-0.42225
-0.449269
-0.478144
-0.493811
-0.517638
-0.489673
-0.375225
-0.375199
-0.381841
-0.395955
-0.416399
-0.440036
-0.466168
-0.480396
-0.50033
-0.477469
-0.38155
-0.378187
-0.38074
-0.389922
-0.405852
-0.425805
-0.448918
-0.462352
-0.474794
-0.453383
-0.385746
-0.379738
-0.378096
-0.382301
-0.393796
-0.410689
-0.430258
-0.441315
-0.445099
-0.420698
-0.388901
-0.381005
-0.375763
-0.375778
-0.383609
-0.397427
-0.411574
-0.417574
-0.411814
-0.383509
-0.392489
-0.383215
-0.375365
-0.372233
-0.376708
-0.386272
-0.393072
-0.391771
-0.375806
-0.346038
-0.397964
-0.387447
-0.377822
-0.372075
-0.372725
-0.376142
-0.374829
-0.365648
-0.342223
-0.311067
-0.40633
-0.394353
-0.383035
-0.374609
-0.370316
-0.366097
-0.356852
-0.340538
-0.315099
-0.285568
-0.418114
-0.403978
-0.390381
-0.378748
-0.368109
-0.355741
-0.339285
-0.318175
-0.291643
-0.263302
-0.433443
-0.415532
-0.399562
-0.383376
-0.365103
-0.344838
-0.322498
-0.297833
-0.270988
-0.244541
-0.452124
-0.42828
-0.410182
-0.387305
-0.360625
-0.333309
-0.306211
-0.27917
-0.252343
-0.226552
-0.473616
-0.442234
-0.420551
-0.389206
-0.354251
-0.32091
-0.290156
-0.261407
-0.234535
-0.209449
-0.495339
-0.457717
-0.428443
-0.387893
-0.345579
-0.307362
-0.273794
-0.2439
-0.217147
-0.192352
-0.515072
-0.473629
-0.432602
-0.38267
-0.334228
-0.292243
-0.256654
-0.226068
-0.199492
-0.175242
-0.530815
-0.486975
-0.432348
-0.37325
-0.319819
-0.275126
-0.238224
-0.207386
-0.181258
-0.157825
-0.541311
-0.494636
-0.426524
-0.359348
-0.302019
-0.255576
-0.218068
-0.187447
-0.162031
-0.139867
-0.545657
-0.494229
-0.414128
-0.340572
-0.280513
-0.233232
-0.195821
-0.165944
-0.141592
-0.120719
-0.542802
-0.48442
-0.394554
-0.316524
-0.255003
-0.207832
-0.171274
-0.142724
-0.119826
-0.0999735
-0.531333
-0.46452
-0.367425
-0.286849
-0.225305
-0.179305
-0.144431
-0.117743
-0.0965837
-0.0779462
-0.509653
-0.434211
-0.332412
-0.251348
-0.191569
-0.14781
-0.115455
-0.0910617
-0.0714297
-0.0551383
-0.476401
-0.393541
-0.289256
-0.210243
-0.154222
-0.113569
-0.0842342
-0.0624648
-0.0448357
-0.0314649
-0.430848
-0.342809
-0.238194
-0.16458
-0.112906
-0.0766107
-0.050998
-0.0322389
-0.0172791
-0.00720035
-0.373
-0.281999
-0.180709
-0.114036
-0.068312
-0.037302
-0.0160994
-0.000946021
0.0105894
0.0168652
-0.303275
-0.210655
-0.118767
-0.0596434
-0.0210564
0.00387396
0.0200481
0.0308102
0.037878
0.0396611
-0.22208
-0.132656
-0.052406
-0.00246081
0.0281281
0.0463638
0.0569775
0.0625593
0.0641026
0.0609608
-0.131175
-0.0508137
0.0171644
0.0564899
0.0783803
0.0894701
0.0940964
0.0940172
0.0898839
0.0826913
-0.0339359
0.0334207
0.088241
0.116067
0.12875
0.132353
0.130639
0.124769
0.115779
0.109741
0.0662488
0.118269
0.159039
0.17498
0.178214
0.174145
0.165904
0.154461
0.141861
0.135283
0.16587
0.201548
0.227788
0.231866
0.225696
0.214025
0.199487
0.183074
0.167313
0.158004
0.261453
0.280959
0.292753
0.285351
0.270097
0.251104
0.230659
0.209821
0.191043
0.178384
0.349669
0.354254
0.352265
0.334122
0.310413
0.284665
0.258872
0.234034
0.212203
0.196088
0.427621
0.419263
0.404723
0.376915
0.345651
0.313926
0.283491
0.255181
0.230485
0.211072
0.493169
0.473779
0.448624
0.412611
0.37496
0.338213
0.303912
0.27269
0.245488
0.223156
0.544312
0.516097
0.482687
0.440256
0.397618
0.356971
0.319684
0.286194
0.256969
0.232238
0.579382
0.544994
0.505938
0.459105
0.413046
0.369732
0.330413
0.295373
0.264732
0.238281
0.468658
0.420859
0.376191
0.335843
0.300016
0.268645
0.24129
-0.394577
-0.364134
-0.330204
-0.293589
-0.255529
-0.217033
-0.179107
-0.142653
-0.108399
-0.0768262
-0.0483618
-0.0232358
-0.00153879
0.0168132
0.0319843
0.0442167
0.0538019
0.0610552
0.0662956
0.069831
0.0719475
0.0729025
0.0729221
0.0722058
0.0709244
0.06922
0.0672084
0.0649837
0.0626212
-0.412998
-0.382815
-0.348889
-0.311835
-0.273191
-0.233872
-0.194982
-0.157546
-0.122092
-0.0892095
-0.0596644
-0.0335332
-0.0108855
0.00834088
0.0243113
0.0372689
0.0475081
0.0553497
0.0611193
0.0651322
0.067682
0.0690335
0.0694182
0.0690308
0.0680432
0.0666031
0.0648314
0.0628249
0.0606604
-0.440757
-0.411145
-0.378305
-0.338689
-0.300316
-0.260439
-0.220675
-0.182018
-0.145303
-0.111185
-0.0801763
-0.05256
-0.0284524
-0.00782261
0.00947743
0.0236829
0.035086
0.0440085
0.0507792
0.0557175
0.0591217
0.0612623
0.0623771
0.0626681
0.0622983
0.061413
0.0601401
0.0585843
0.0568278
-0.458773
-0.433018
-0.401785
-0.366404
-0.328497
-0.289142
-0.249504
-0.210568
-0.173202
-0.138182
-0.106067
-0.0771976
-0.0517359
-0.0296923
-0.0109528
0.00469094
0.0175098
0.0278088
0.035904
0.0421052
0.046704
0.0499661
0.0521284
0.0533959
0.0539397
0.0538931
0.0533753
0.0524956
0.051346
0.0499996
-0.459597
-0.437225
-0.411852
-0.381603
-0.34742
-0.310898
-0.273536
-0.236279
-0.199911
-0.165261
-0.133032
-0.103679
-0.0774427
-0.0543945
-0.0344761
-0.0175277
-0.00332206
0.00840602
0.0179384
0.0255574
0.0315324
0.0361122
0.0395207
0.0419566
0.0435918
0.0445706
0.0450029
0.044982
0.0445996
0.0439372
-0.443871
-0.424563
-0.406667
-0.382575
-0.352999
-0.320787
-0.287603
-0.254158
-0.220828
-0.18833
-0.157432
-0.128716
-0.102562
-0.0791671
-0.0585693
-0.0406799
-0.0253354
-0.012333
-0.00144619
0.00756226
0.014926
0.0208646
0.0255797
0.0292536
0.0320486
0.0341077
0.0355531
0.0364825
0.0369697
0.0370873
-0.417944
-0.401288
-0.389805
-0.371446
-0.346962
-0.319901
-0.291606
-0.262458
-0.23312
-0.204337
-0.176416
-0.149746
-0.124776
-0.101884
-0.0812733
-0.0629669
-0.0468886
-0.032921
-0.020914
-0.0106903
-0.00206369
0.00514696
0.0111129
0.0159938
0.0199358
0.0230706
0.0255151
0.0273726
0.0287324
0.0296633
0.0302227
-0.38628
-0.37287
-0.366213
-0.352212
-0.332545
-0.310982
-0.288092
-0.263761
-0.238592
-0.213453
-0.188979
-0.16536
-0.142624
-0.12114
-0.101266
-0.0831531
-0.0668317
-0.0522918
-0.0394817
-0.0283002
-0.0186189
-0.0103031
-0.00321867
0.0027659
0.0077761
0.0119291
0.0153326
0.0180845
0.0202722
0.0219724
0.0232517
0.024167
-0.354398
-0.345034
-0.340979
-0.329648
-0.314217
-0.297769
-0.279901
-0.260257
-0.23937
-0.217951
-0.196577
-0.175699
-0.15543
-0.135892
-0.117366
-0.100034
-0.0839907
-0.0693252
-0.0560978
-0.044297
-0.0338607
-0.0247068
-0.0167418
-0.00986479
-0.0039722
0.00103751
0.00526169
0.00879253
0.0117168
0.0141142
0.0160542
0.0175916
-0.329885
-0.32489
-0.320146
-0.309092
-0.296347
-0.283728
-0.2702
-0.255198
-0.2389
-0.221675
-0.203901
-0.185946
-0.168134
-0.150725
-0.133933
-0.117921
-0.102731
-0.0884266
-0.0751409
-0.0629508
-0.0518728
-0.0418941
-0.0329816
-0.0250843
-0.0181391
-0.0120754
-0.00681925
-0.0022959
0.00156739
0.00483981
0.00758618
0.00986582
0.011733
-0.297824
-0.307964
-0.30229
-0.289373
-0.275734
-0.263046
-0.250672
-0.237664
-0.223612
-0.208632
-0.19308
-0.177323
-0.161636
-0.146205
-0.131178
-0.116706
-0.102922
-0.0899315
-0.0778093
-0.0666031
-0.056334
-0.0470002
-0.0385799
-0.0310363
-0.024322
-0.0183829
-0.0131608
-0.00859638
-0.00463072
-0.00120702
0.00172988
0.00423235
0.00634851
-0.24815
-0.260658
-0.259366
-0.249488
-0.237728
-0.226849
-0.216755
-0.206478
-0.195401
-0.183488
-0.171028
-0.158349
-0.145687
-0.133196
-0.120987
-0.109167
-0.0978281
-0.0870441
-0.0768686
-0.0673438
-0.0584979
-0.0503418
-0.0428711
-0.0360703
-0.0299158
-0.0243776
-0.0194213
-0.0150092
-0.0111013
-0.00765698
-0.00463611
-0.00200097
0.000283747
-0.215786
-0.227501
-0.227779
-0.220595
-0.211336
-0.202529
-0.194332
-0.186044
-0.177125
-0.167486
-0.157322
-0.146892
-0.136394
-0.125957
-0.115669
-0.10561
-0.0958569
-0.0864803
-0.0775408
-0.0690858
-0.0611486
-0.0537483
-0.0468922
-0.0405778
-0.034795
-0.029527
-0.0247521
-0.0204445
-0.0165761
-0.0131174
-0.0100389
-0.0073112
-0.00490574
-0.189955
-0.199479
-0.20023
-0.194892
-0.187561
-0.180366
-0.173581
-0.166728
-0.159383
-0.151446
-0.143051
-0.134397
-0.125643
-0.116898
-0.108236
-0.099721
-0.0914178
-0.0833864
-0.0756788
-0.0683352
-0.0613848
-0.0548469
-0.0487323
-0.0430444
-0.0377801
-0.0329313
-0.0284853
-0.0244263
-0.0207357
-0.0173937
-0.014379
-0.01167
-0.009245
-0.166979
-0.175417
-0.176652
-0.172693
-0.166914
-0.161137
-0.155651
-0.150098
-0.144138
-0.137678
-0.130811
-0.123688
-0.116437
-0.109147
-0.101878
-0.0946846
-0.0876186
-0.0807303
-0.0740643
-0.0676572
-0.0615379
-0.0557278
-0.0502416
-0.0450881
-0.0402708
-0.0357885
-0.0316361
-0.0278053
-0.024285
-0.0210622
-0.0181222
-0.0154496
-0.0130283
-0.147652
-0.155271
-0.156764
-0.153797
-0.149234
-0.144629
-0.140235
-0.135758
-0.130915
-0.125628
-0.119971
-0.114064
-0.108012
-0.101886
-0.0957394
-0.0896167
-0.0835629
-0.0776216
-0.0718326
-0.0662296
-0.06084
-0.0556852
-0.0507809
-0.0461381
-0.0417633
-0.0376592
-0.0338248
-0.0302563
-0.0269475
-0.02389
-0.0210742
-0.0184892
-0.0161234
-0.131752
-0.138318
-0.139817
-0.137593
-0.134001
-0.130339
-0.126824
-0.12321
-0.119264
-0.114921
-0.110243
-0.105329
-0.100265
-0.0951107
-0.0899081
-0.084696
-0.0795126
-0.0743951
-0.0693776
-0.06449
-0.0597569
-0.0551982
-0.0508297
-0.0466632
-0.0427072
-0.0389667
-0.0354439
-0.0321385
-0.0290479
-0.0261677
-0.0234922
-0.0210141
-0.0187255
-0.118091
-0.12376
-0.125263
-0.123634
-0.120818
-0.117908
-0.115096
-0.112181
-0.108966
-0.105398
-0.101528
-0.0974386
-0.0931995
-0.0888588
-0.0844523
-0.080012
-0.07557
-0.0711581
-0.0668059
-0.0625395
-0.0583811
-0.0543497
-0.0504604
-0.0467258
-0.0431551
-0.0397552
-0.0365303
-0.0334824
-0.0306115
-0.0279161
-0.0253931
-0.0230381
-0.020846
-0.106204
-0.111243
-0.112761
-0.111593
-0.109382
-0.107069
-0.104823
-0.102475
-0.0998598
-0.09693
-0.0937274
-0.0903205
-0.0867667
-0.0831058
-0.0793672
-0.0755778
-0.0717651
-0.0679563
-0.0641772
-0.0604508
-0.0567973
-0.0532339
-0.0497752
-0.0464333
-0.0432181
-0.040137
-0.0371955
-0.0343969
-0.0317433
-0.0292347
-0.0268703
-0.0246478
-0.0225642
-0.0962137
-0.100563
-0.101998
-0.101162
-0.099426
-0.0975906
-0.095802
-0.0939167
-0.0917922
-0.089387
-0.0867352
-0.0838937
-0.0809103
-0.0778181
-0.0746417
-0.0714037
-0.0681276
-0.0648368
-0.0615536
-0.0582983
-0.0550887
-0.0519405
-0.0488673
-0.0458806
-0.0429901
-0.0402036
-0.0375273
-0.0349654
-0.032521
-0.0301958
-0.0279902
-0.0259037
-0.0239349
-0.0874152
-0.0912519
-0.0926208
-0.0920584
-0.0907174
-0.0892756
-0.087861
-0.0863531
-0.0846306
-0.0826574
-0.0804615
-0.0780903
-0.075584
-0.0729698
-0.0702686
-0.0674993
-0.0646819
-0.0618365
-0.0589824
-0.0561373
-0.0533171
-0.0505358
-0.0478059
-0.0451383
-0.0425423
-0.0400258
-0.037595
-0.035255
-0.0330095
-0.030861
-0.0288112
-0.0268606
-0.0250089
-0.0797952
-0.0831559
-0.0844515
-0.0841069
-0.0830872
-0.0819667
-0.0808569
-0.0796573
-0.078265
-0.0766488
-0.0748317
-0.0728534
-0.070747
-0.0685358
-0.0662368
-0.0638662
-0.0614411
-0.0589787
-0.0564956
-0.0540074
-0.0515281
-0.0490703
-0.0466454
-0.0442636
-0.0419335
-0.0396629
-0.037458
-0.0353242
-0.0332656
-0.0312853
-0.0293855
-0.0275678
-0.0258328
-0.0731426
-0.0760972
-0.0773226
-0.0771505
-0.0763906
-0.0755313
-0.0746701
-0.0737229
-0.0726026
-0.0712823
-0.0697807
-0.0681309
-0.0663606
-0.0644892
-0.0625312
-0.0605002
-0.0584108
-0.0562778
-0.0541157
-0.051938
-0.0497571
-0.0475843
-0.0454299
-0.0433032
-0.0412123
-0.0391645
-0.0371662
-0.0352224
-0.0333376
-0.0315154
-0.0297583
-0.0280685
-0.0264472
-0.0673339
-0.0699262
-0.0710866
-0.0710501
-0.0705014
-0.069856
-0.0691985
-0.0684587
-0.0675631
-0.0664884
-0.06525
-0.0638755
-0.0623881
-0.060804
-0.0591354
-0.0573941
-0.0555924
-0.0537431
-0.0518588
-0.0499512
-0.0480313
-0.0461091
-0.044194
-0.0422943
-0.0404177
-0.0385711
-0.0367603
-0.0349906
-0.0332664
-0.0315913
-0.0299685
-0.0284001
-0.026888
-0.0622788
-0.0645845
-0.0656398
-0.0656971
-0.0653173
-0.0648465
-0.0643559
-0.0637867
-0.063077
-0.0622067
-0.0611885
-0.0600452
-0.0587963
-0.0574555
-0.0560331
-0.0545391
-0.0529841
-0.0513792
-0.0497352
-0.0480625
-0.0463706
-0.0446686
-0.0429647
-0.0412666
-0.0395815
-0.0379155
-0.0362744
-0.0346632
-0.0330862
-0.0315472
-0.0300493
-0.0285951
-0.0271866
-0.0578211
-0.059839
-0.0608339
-0.0609789
-0.0607438
-0.0604196
-0.0600676
-0.0596399
-0.0590846
-0.0583848
-0.0575511
-0.0566025
-0.0555551
-0.0544206
-0.0532077
-0.0519251
-0.0505818
-0.0491874
-0.0477514
-0.0462827
-0.0447899
-0.0432808
-0.0417631
-0.0402437
-0.0387289
-0.0372247
-0.0357364
-0.0342687
-0.0328259
-0.0314117
-0.0300293
-0.0286813
-0.0273701
-0.0539066
-0.0556851
-0.0566147
-0.0568278
-0.0567117
-0.056509
-0.0562719
-0.0559614
-0.0555346
-0.0549776
-0.0542988
-0.0535141
-0.0526372
-0.0516778
-0.0506434
-0.0495414
-0.0483798
-0.0471668
-0.0459105
-0.044619
-0.0432997
-0.0419596
-0.0406056
-0.0392439
-0.0378804
-0.0365205
-0.0351691
-0.0338308
-0.0325097
-0.0312093
-0.0299328
-0.028683
-0.0274622
-0.0504725
-0.0520441
-0.0529123
-0.0531787
-0.0531603
-0.0530581
-0.0529162
-0.0527029
-0.0523832
-0.0519455
-0.0513969
-0.0507506
-0.0500179
-0.0492072
-0.0483248
-0.0473774
-0.0463716
-0.0453146
-0.0442137
-0.0430758
-0.0419075
-0.0407151
-0.0395047
-0.038282
-0.0370522
-0.0358205
-0.0345914
-0.0333692
-0.0321577
-0.0309604
-0.0297804
-0.0286204
-0.027483
-0.0474641
-0.0488553
-0.0496666
-0.0499752
-0.0500375
-0.0500185
-0.0499554
-0.0498228
-0.0495924
-0.0492547
-0.0488156
-0.0482859
-0.0476753
-0.0469908
-0.046238
-0.0454225
-0.0445502
-0.0436275
-0.0426606
-0.0416556
-0.0406184
-0.0395547
-0.0384699
-0.0373692
-0.0362574
-0.0351391
-0.0340186
-0.0328999
-0.0317867
-0.0306822
-0.0295894
-0.0285112
-0.0274499
-0.0448339
-0.0460685
-0.0468294
-0.04717
-0.0472987
-0.0473488
-0.0473511
-0.0472855
-0.0471295
-0.0468756
-0.0465285
-0.0460972
-0.0455899
-0.0450124
-0.0443697
-0.0436667
-0.0429087
-0.0421011
-0.0412495
-0.0403593
-0.0394356
-0.0384837
-0.0375084
-0.0365143
-0.035506
-0.0344876
-0.0334631
-0.0324362
-0.0314105
-0.030389
-0.0293746
-0.0283701
-0.0273778
-0.0425419
-0.0436405
-0.0443532
-0.0447206
-0.0449054
-0.0450136
-0.0450704
-0.0450607
-0.0449667
-0.0447827
-0.0445128
-0.0441644
-0.0437442
-0.0432573
-0.042708
-0.0421008
-0.0414402
-0.0407311
-0.0399783
-0.0391868
-0.0383611
-0.0375058
-0.0366254
-0.0357241
-0.034806
-0.0338751
-0.0329349
-0.031989
-0.0310406
-0.0300928
-0.0291482
-0.0282096
-0.0272792
-0.0263592
-0.0405559
-0.0415375
-0.0422086
-0.0425969
-0.0428276
-0.0429838
-0.0430858
-0.0431222
-0.0430798
-0.0429543
-0.042749
-0.04247
-0.042123
-0.0417125
-0.0412422
-0.0407161
-0.0401382
-0.0395129
-0.0388445
-0.0381373
-0.0373955
-0.0366234
-0.0358248
-0.0350037
-0.0341639
-0.0333089
-0.0324422
-0.0315671
-0.0306865
-0.0298034
-0.0289205
-0.0280403
-0.0271649
-0.0262966
-0.0388492
-0.0397312
-0.040366
-0.0407707
-0.0410392
-0.0412348
-0.0413738
-0.0414484
-0.0414486
-0.0413715
-0.0412199
-0.0409989
-0.0407132
-0.0403667
-0.0399627
-0.0395048
-0.0389967
-0.0384422
-0.0378452
-0.0372096
-0.0365393
-0.035838
-0.0351093
-0.0343569
-0.0335843
-0.0327947
-0.0319915
-0.0311775
-0.0303559
-0.0295292
-0.0287
-0.0278708
-0.0270438
-0.026221
-0.0373993
-0.0381972
-0.0388006
-0.0392183
-0.0395176
-0.0397455
-0.0399149
-0.0400205
-0.0400557
-0.0400185
-0.0399113
-0.0397382
-0.0395033
-0.0392098
-0.038861
-0.03846
-0.0380101
-0.0375149
-0.0369778
-0.0364024
-0.0357921
-0.0351505
-0.0344809
-0.0337867
-0.0330711
-0.0323371
-0.0315879
-0.0308263
-0.030055
-0.0292766
-0.0284937
-0.0277086
-0.0269233
-0.0261399
-0.0361876
-0.0369157
-0.0374924
-0.0379201
-0.0382443
-0.0384985
-0.0386924
-0.0388232
-0.0388867
-0.0388819
-0.0388108
-0.0386769
-0.0384834
-0.0382335
-0.0379299
-0.0375756
-0.0371737
-0.0367273
-0.0362396
-0.0357139
-0.0351534
-0.0345614
-0.0339409
-0.0332951
-0.032627
-0.0319396
-0.0312356
-0.0305178
-0.0297889
-0.0290513
-0.0283074
-0.0275595
-0.0268096
-0.0260598
-0.0351986
-0.0358701
-0.036425
-0.0368604
-0.0372045
-0.0374795
-0.0376929
-0.0378437
-0.0379297
-0.0379507
-0.0379085
-0.0378058
-0.0376456
-0.0374305
-0.0371632
-0.0368465
-0.0364831
-0.0360761
-0.0356283
-0.0351428
-0.0346226
-0.0340707
-0.0334901
-0.0328837
-0.0322543
-0.0316048
-0.0309377
-0.0302558
-0.0295616
-0.0288575
-0.0281457
-0.0274285
-0.0267078
-0.0259857
-0.0344205
-0.0350475
-0.0355849
-0.0360262
-0.0363858
-0.036677
-0.0369054
-0.0370716
-0.037175
-0.0372159
-0.037196
-0.0371175
-0.036983
-0.0367949
-0.0365558
-0.0362683
-0.0359349
-0.0355585
-0.0351418
-0.0346877
-0.034199
-0.0336785
-0.0331291
-0.0325535
-0.0319545
-0.0313347
-0.0306968
-0.0300432
-0.0293763
-0.0286986
-0.0280122
-0.0273193
-0.0266218
-0.0259218
-0.0338445
-0.0344391
-0.0349635
-0.0354086
-0.0357793
-0.0360823
-0.0363218
-0.0364992
-0.0366153
-0.0366707
-0.036667
-0.0366062
-0.0364905
-0.0363222
-0.0361037
-0.0358376
-0.0355262
-0.0351723
-0.0347784
-0.0343474
-0.0338818
-0.0333845
-0.0328581
-0.0323053
-0.0317288
-0.031131
-0.0305146
-0.0298819
-0.0292354
-0.0285773
-0.0279098
-0.0272349
-0.0265548
-0.0258711
-0.0334611
-0.0340358
-0.0345531
-0.0350021
-0.0353794
-0.0356896
-0.0359362
-0.036121
-0.0362453
-0.0363102
-0.0363172
-0.0362679
-0.0361645
-0.0360091
-0.0358042
-0.035552
-0.035255
-0.0349159
-0.034537
-0.0341211
-0.0336708
-0.0331887
-0.0326774
-0.0321396
-0.0315779
-0.0309947
-0.0303924
-0.0297736
-0.0291405
-0.0284954
-0.0278404
-0.0271775
-0.0265088
-0.0258361
-0.0332621
-0.0338267
-0.0343415
-0.0347935
-0.0351773
-0.0354926
-0.0357431
-0.0359316
-0.0360602
-0.0361301
-0.0361424
-0.036099
-0.0360017
-0.0358528
-0.0356546
-0.0354094
-0.0351196
-0.0347878
-0.0344164
-0.034008
-0.0335653
-0.0330907
-0.032587
-0.0320567
-0.0315023
-0.0309263
-0.0303312
-0.0297192
-0.0290928
-0.0284542
-0.0278054
-0.0271485
-0.0264855
-0.0258182
-0.273274
-0.228139
-0.196907
-0.175338
-0.155073
-0.137139
-0.122719
-0.11054
-0.0997921
-0.0905408
-0.0825436
-0.0755941
-0.069496
-0.064151
-0.0594798
-0.0553714
-0.0517543
-0.0485731
-0.0457814
-0.0433373
-0.0412047
-0.0393545
-0.0377625
-0.0364085
-0.0352756
-0.0343501
-0.0336212
-0.0330803
-0.0327181
-0.03253
-0.253292
-0.214688
-0.184218
-0.16427
-0.146857
-0.130181
-0.116344
-0.105083
-0.0952355
-0.0865294
-0.0789875
-0.0724671
-0.066747
-0.0617045
-0.0572752
-0.053382
-0.0499518
-0.0469283
-0.0442691
-0.0419374
-0.0399003
-0.0381305
-0.0366055
-0.0353067
-0.0342186
-0.0333282
-0.0326255
-0.0321023
-0.0317496
-0.0315654
-0.236337
-0.203595
-0.174635
-0.154697
-0.139001
-0.124036
-0.110874
-0.100135
-0.0909981
-0.0828735
-0.0757305
-0.0695417
-0.0641339
-0.0593584
-0.055142
-0.0514283
-0.0481546
-0.0452657
-0.0427199
-0.040484
-0.0385282
-0.0368272
-0.0353597
-0.0341084
-0.0330588
-0.0321989
-0.0315191
-0.0310116
-0.0306681
-0.0304888
-0.219929
-0.191163
-0.165034
-0.145914
-0.131178
-0.117783
-0.105627
-0.0953894
-0.086774
-0.0792041
-0.0724884
-0.0666128
-0.0614793
-0.0569522
-0.0529435
-0.0494004
-0.0462724
-0.0435096
-0.0410717
-0.038927
-0.0370487
-0.0354133
-0.034001
-0.0327955
-0.0317834
-0.0309533
-0.0302963
-0.0298049
-0.0294717
-0.0292986
-0.203485
-0.178741
-0.155651
-0.137634
-0.123497
-0.111235
-0.100163
-0.0905679
-0.0824235
-0.0753457
-0.0690722
-0.0635345
-0.0586735
-0.0543883
-0.0505905
-0.047224
-0.0442446
-0.0416099
-0.0392823
-0.0372317
-0.0354335
-0.0338662
-0.0325114
-0.0313541
-0.0303815
-0.0295833
-0.0289512
-0.0284779
-0.028157
-0.0279919
-0.187791
-0.16587
-0.145412
-0.128959
-0.115719
-0.10444
-0.0944009
-0.0855652
-0.0779401
-0.0713192
-0.0654738
-0.0602913
-0.0557136
-0.051669
-0.0480821
-0.0448962
-0.0420696
-0.0395656
-0.0373508
-0.0353972
-0.0336819
-0.0321853
-0.0308906
-0.0297838
-0.0288531
-0.028089
-0.0274836
-0.0270305
-0.0267239
-0.0265686
-0.171759
-0.152722
-0.134936
-0.120176
-0.107942
-0.0975388
-0.0883961
-0.080324
-0.0732674
-0.0671056
-0.0616727
-0.0568494
-0.0525681
-0.0487712
-0.0453985
-0.0423983
-0.0397308
-0.0373631
-0.0352661
-0.0334142
-0.0317864
-0.0303647
-0.0291339
-0.0280811
-0.0271955
-0.0264683
-0.0258925
-0.0254619
-0.0251718
-0.0250277
-0.156152
-0.139617
-0.124077
-0.110972
-0.0999005
-0.0904492
-0.0821696
-0.0748536
-0.068399
-0.0627154
-0.0576904
-0.0532229
-0.0492438
-0.0457013
-0.0425468
-0.0397361
-0.0372327
-0.0350066
-0.0330319
-0.0312861
-0.0297499
-0.0284071
-0.0272438
-0.0262483
-0.0254108
-0.0247233
-0.0241794
-0.0237736
-0.0235019
-0.0233703
-0.140369
-0.126271
-0.113004
-0.101587
-0.0917255
-0.0832383
-0.0757797
-0.0691779
-0.0633195
-0.058123
-0.0535074
-0.0493945
-0.0457221
-0.0424424
-0.0395141
-0.0368999
-0.0345675
-0.0324899
-0.0306442
-0.0290103
-0.0275711
-0.026312
-0.0252205
-0.0242862
-0.0235002
-0.0228555
-0.0223462
-0.0219675
-0.0217163
-0.0215975
-0.124446
-0.112632
-0.101483
-0.0917371
-0.0831444
-0.0756862
-0.0690791
-0.0631995
-0.0579503
-0.0532629
-0.0490767
-0.0453335
-0.0419818
-0.0389796
-0.0362912
-0.0338851
-0.0317338
-0.0298138
-0.0281049
-0.0265899
-0.0252536
-0.0240834
-0.0230684
-0.0221993
-0.0214683
-0.0208693
-0.0203971
-0.0200476
-0.0198182
-0.0197138
-0.107582
-0.0983098
-0.0891089
-0.0812808
-0.0740167
-0.0676586
-0.0619355
-0.0568048
-0.0521952
-0.0480545
-0.0443361
-0.0409957
-0.0379926
-0.0352919
-0.032864
-0.0306832
-0.0287272
-0.0269765
-0.0254144
-0.0240265
-0.0228005
-0.0217254
-0.020792
-0.0199926
-0.0193204
-0.0187702
-0.0183377
-0.018019
-0.0178114
-0.0177256
-0.0894629
-0.0833834
-0.0757917
-0.0701759
-0.0641918
-0.0590005
-0.0542271
-0.0499153
-0.0460109
-0.0424769
-0.0392784
-0.0363831
-0.0337618
-0.0313887
-0.0292423
-0.0273038
-0.0255568
-0.0239868
-0.0225813
-0.0213289
-0.0202201
-0.0192461
-0.0183996
-0.0176741
-0.0170643
-0.0165658
-0.0161751
-0.0158884
-0.0157055
-0.0156356
-0.0704648
-0.0675224
-0.0619443
-0.0580276
-0.0536016
-0.0496525
-0.0459633
-0.0425726
-0.0394548
-0.0365886
-0.0339555
-0.0315387
-0.0293235
-0.0272968
-0.025447
-0.0237635
-0.0222366
-0.0208572
-0.0196169
-0.0185079
-0.0175232
-0.0166563
-0.0159017
-0.0152543
-0.0147101
-0.0142658
-0.0139185
-0.0136653
-0.0135079
-0.0134521
-0.050602
-0.0505646
-0.0472391
-0.0450804
-0.0423865
-0.0398629
-0.0373884
-0.0350049
-0.0327203
-0.0305441
-0.0284852
-0.0265503
-0.0247434
-0.0230658
-0.0215168
-0.0200938
-0.0187935
-0.0176115
-0.0165431
-0.0155836
-0.0147284
-0.0139733
-0.0133143
-0.012748
-0.0122717
-0.011883
-0.0115798
-0.0113605
-0.011228
-0.0111843
-0.029779
-0.0325767
-0.0318904
-0.0318542
-0.0310824
-0.0300813
-0.0288363
-0.0274347
-0.0259448
-0.024422
-0.0229102
-0.0214411
-0.0200357
-0.0187076
-0.0174641
-0.0163091
-0.0152435
-0.0142668
-0.0133774
-0.0125734
-0.0118526
-0.0112129
-0.0106523
-0.0101691
-0.00976171
-0.00942905
-0.00916982
-0.00898369
-0.00887437
-0.00883988
-0.00843059
-0.0142712
-0.0165677
-0.0187385
-0.019789
-0.0201778
-0.0200445
-0.0195526
-0.0188275
-0.0179612
-0.0170202
-0.0160509
-0.0150847
-0.0141421
-0.0132365
-0.0123766
-0.0115678
-0.0108137
-0.0101167
-0.00947811
-0.00889899
-0.00837994
-0.00792134
-0.00752343
-0.00718643
-0.00691036
-0.00669509
-0.00654144
-0.00645297
-0.0064242
0.0125384
0.0039172
-0.000905641
-0.00474939
-0.00725534
-0.00888969
-0.00988901
-0.0104288
-0.0106378
-0.0106077
-0.0104062
-0.0100831
-0.00967652
-0.00921555
-0.00872257
-0.00821489
-0.00770614
-0.00720723
-0.00672693
-0.00627225
-0.00584881
-0.00546108
-0.00511262
-0.00480625
-0.00454415
-0.00432792
-0.00415871
-0.00403836
-0.00396931
-0.0039435
0.0330663
0.023413
0.0172302
0.0121463
0.00814188
0.00495079
0.00242552
0.000462585
-0.0010298
-0.00213051
-0.00290723
-0.0034184
-0.00371721
-0.00384963
-0.00385447
-0.00376432
-0.0036062
-0.00340229
-0.0031706
-0.00292567
-0.00267912
-0.00244025
-0.00221641
-0.00201338
-0.00183566
-0.0016866
-0.00156887
-0.00148505
-0.00143616
-0.00141333
0.0544605
0.0455793
0.0378688
0.0308963
0.0248016
0.0196173
0.0152912
0.0117469
0.0088886
0.00661965
0.0048491
0.00349328
0.00247849
0.00174029
0.00122297
0.000878651
0.000667458
0.000556721
0.000519941
0.000535763
0.000587074
0.000660219
0.000744357
0.000830954
0.000913379
0.00098653
0.00104633
0.00108964
0.00111615
0.00113274
0.0745893
0.0647251
0.054466
0.045251
0.0373542
0.0307277
0.0252247
0.0206945
0.0169956
0.014
0.0115936
0.00967654
0.00816343
0.00698089
0.00606639
0.00536755
0.0048408
0.00445019
0.00416625
0.00396496
0.00382681
0.00373606
0.00368003
0.00364862
0.00363386
0.00362951
0.00363063
0.00363377
0.00363809
0.00364568
0.0909256
0.0762322
0.0642497
0.0540675
0.0455611
0.0385046
0.0326484
0.0277899
0.0237679
0.0204484
0.017717
0.0154764
0.0136444
0.0121516
0.0109396
0.00995922
0.00916945
0.00853593
0.00803006
0.00762813
0.00731057
0.00706128
0.00686709
0.00671733
0.00660337
0.00651837
0.00645702
0.00641572
0.00639234
0.00638419
0.10402
0.0867246
0.0739381
0.063369
0.0544669
0.0469901
0.0407204
0.0354583
0.0310395
0.02733
0.0242185
0.0216109
0.019428
0.0176028
0.0160788
0.0148083
0.0137509
0.0128724
0.0121441
0.011542
0.0110457
0.0106386
0.0103065
0.0100381
0.00982397
0.00965651
0.00952993
0.00943993
0.00938313
0.00935614
0.11056
0.0947454
0.0818894
0.0711916
0.0621369
0.054444
0.0479087
0.0423536
0.0376271
0.0336039
0.0301795
0.0272655
0.024787
0.0226801
0.0208904
0.0193715
0.0180839
0.0169938
0.0160727
0.0152962
0.0146437
0.0140979
0.0136444
0.0132711
0.0129681
0.0127273
0.0125425
0.0124087
0.0123221
0.0122795
0.113983
0.0997058
0.087492
0.0771349
0.0682559
0.0605948
0.0539845
0.0482867
0.0433769
0.0391464
0.0355015
0.0323621
0.029659
0.027333
0.0253325
0.0236136
0.0221382
0.0208736
0.0197917
0.0188686
0.0180837
0.0174197
0.016862
0.0163982
0.0160182
0.0157137
0.015478
0.015306
0.0151936
0.0151382
0.114825
0.102566
0.0914656
0.0816825
0.0731327
0.065655
0.0591158
0.0534045
0.0484221
0.0440788
0.0402948
0.037
0.034133
0.0316401
0.0294741
0.0275942
0.0259646
0.0245544
0.0233365
0.022288
0.0213887
0.0206218
0.0199725
0.0194289
0.0189806
0.0186192
0.0183381
0.0181319
0.0179966
0.0179296
0.114653
0.103854
0.0938612
0.0848394
0.0767921
0.0696404
0.0632977
0.0576853
0.0527298
0.0483619
0.0445168
0.0411357
0.0381656
0.0355594
0.0332751
0.0312754
0.0295277
0.0280031
0.0266765
0.025526
0.0245326
0.0236799
0.0229538
0.0223425
0.021836
0.0214259
0.0211057
0.02087
0.0207151
0.0206382
0.113443
0.104099
0.0952275
0.087019
0.0795409
0.0727866
0.0667166
0.0612807
0.0564263
0.0521017
0.0482569
0.0448443
0.0418199
0.0391436
0.0367788
0.0346927
0.0328561
0.0312427
0.0298296
0.0285964
0.0275253
0.026601
0.02581
0.0251411
0.0245846
0.0241325
0.0237784
0.0235172
0.0233452
0.0232597
0.111862
0.103661
0.0957571
0.0883352
0.0814647
0.075164
0.0694253
0.0642244
0.0595291
0.0553039
0.0515119
0.0481165
0.0450825
0.0423765
0.0399678
0.037828
0.0359315
0.0342552
0.0327781
0.0314821
0.0303506
0.0293696
0.0285265
0.0278107
0.0272133
0.0267265
0.0263443
0.0260617
0.0258754
0.0257828
0.109875
0.102737
0.0957411
0.0890671
0.0827923
0.0769567
0.071575
0.0666429
0.0621446
0.0580577
0.0543568
0.0510151
0.0480054
0.0453013
0.0428773
0.0407098
0.0387769
0.0370584
0.0355361
0.0341935
0.033016
0.0319907
0.0311062
0.0303527
0.0297218
0.0292065
0.028801
0.0285008
0.0283025
0.0282038
0.107809
0.101539
0.0953187
0.0893186
0.0836109
0.0782387
0.0732269
0.0685846
0.0643088
0.0603888
0.0568088
0.0535506
0.0505943
0.0479194
0.045506
0.0433347
0.0413871
0.0396463
0.0380964
0.0367232
0.0355138
0.0344565
0.0335412
0.0327591
0.0321024
0.0315648
0.0311409
0.0308266
0.0306188
0.0305154
0.105639
0.100147
0.0946324
0.0892503
0.0840704
0.0791404
0.0744928
0.0701456
0.0661048
0.0623684
0.0589287
0.0557745
0.0528923
0.0502672
0.0478839
0.0457271
0.0437821
0.0420347
0.0404717
0.0390808
0.0378509
0.0367719
0.0358348
0.0350316
0.0343557
0.033801
0.033363
0.0330378
0.0328225
0.0327153
0.103528
0.098683
0.0937713
0.0889342
0.084236
0.079722
0.0754264
0.0713719
0.0675709
0.0640278
0.0607414
0.0577063
0.0549143
0.0523555
0.0500187
0.0478924
0.045965
0.0442252
0.042662
0.0412653
0.0400257
0.0389344
0.0379838
0.0371669
0.0364778
0.0359112
0.0354631
0.0351299
0.0349091
0.0347992
0.101455
0.0971792
0.0928061
0.0884599
0.0841996
0.0800698
0.076106
0.0723337
0.0687693
0.0654218
0.0622947
0.0593873
0.056696
0.0542147
0.0519361
0.0498519
0.0479535
0.046232
0.0446789
0.0432859
0.0420451
0.0409494
0.0399922
0.0391676
0.0384704
0.0378961
0.0374412
0.0371026
0.036878
0.0367661
0.0995
0.0957033
0.0917912
0.0878742
0.0840061
0.0802278
0.0765735
0.0730695
0.0697343
0.0665802
0.0636143
0.0608394
0.0582554
0.0558597
0.0536481
0.0516153
0.0497551
0.0480611
0.0465267
0.0451455
0.0439111
0.0428178
0.0418601
0.0410331
0.0403325
0.0397544
0.0392958
0.038954
0.0387273
0.0386142
0.097646
0.0942665
0.0907615
0.0872267
0.0837106
0.0802513
0.0768818
0.0736286
0.0705114
0.0675444
0.0647371
0.0620951
0.0596212
0.0573154
0.0551762
0.0532008
0.0513853
0.0497253
0.0482161
0.0468528
0.0456307
0.0445452
0.0435919
0.0427669
0.0420665
0.0414878
0.041028
0.040685
0.0404572
0.0403436
0.0959292
0.0929041
0.0897483
0.0865466
0.0833423
0.0801703
0.0770611
0.0740402
0.0711279
0.0683393
0.0656857
0.0631746
0.0608109
0.058597
0.0565335
0.0546196
0.0528534
0.0512323
0.0497532
0.0484129
0.0472078
0.0461345
0.0451897
0.0443703
0.0436734
0.0430967
0.0426379
0.0422953
0.0420677
0.0419541
0.0943363
0.0916179
0.0887683
0.0858606
0.0829337
0.0800193
0.077146
0.0743382
0.071616
0.0689951
0.0664878
0.0641031
0.0618473
0.0597247
0.0577376
0.055887
0.0541726
0.0525934
0.0511478
0.0498338
0.0486491
0.0475912
0.046658
0.0458469
0.0451561
0.0445834
0.0441273
0.0437865
0.0435598
0.0434467