/*--------------------------------*- C++ -*----------------------------------*\
  =========                 |
  \\      /  F ield         | OpenFOAM: The Open Source CFD Toolbox
   \\    /   O peration     | Website:  https://openfoam.org
    \\  /    A nd           | Version:  7
     \\/     M anipulation  |
\*---------------------------------------------------------------------------*/
FoamFile
{
    version     2.0;
    format      ascii;
    class       surfaceScalarField;
    location    "5";
    object      phi;
}
// * * * * * * * * * * * * * * * * * * * * * * * * * * * * * * * * * * * * * //

dimensions      [0 3 -1 0 0 0 0];

internalField   nonuniform List<scalar> 
6856
(
-0.00140318
0.000625645
-0.00212105
0.000717864
-0.00290956
0.000788516
-0.00373347
0.000823906
-0.00453402
0.000800547
-0.00523232
0.000698299
-0.00574979
0.000517471
1.16965e-05
-0.00576148
-0.000233513
0.000511983
-0.000664426
0.000929982
-0.00120261
0.00116383
-0.00180407
0.00131933
-0.00243699
0.00142144
-0.00306068
0.00144759
-0.00361769
0.00135756
-0.00400511
0.00108572
-0.00420336
0.000715715
-0.000333671
-0.00385799
-0.000155212
0.000667195
-0.000464252
0.00123902
-0.000846529
0.00154611
-0.00124408
0.00171688
-0.00160925
0.00178661
-0.00189043
0.00172878
-0.00205079
0.00151792
-0.00196058
0.000995503
-0.00161082
0.000365961
-0.00120195
-0.000742549
-6.32829e-05
0.000730478
-0.00022179
0.00139753
-0.000411492
0.00173581
-0.000564168
0.00186955
-0.0006191
0.00184154
-0.000515725
0.0016254
-0.00018823
0.00119043
0.000334371
0.000472902
0.00127871
-0.000578381
-0.00262854
0.0027053
2.04365e-05
0.000710041
1.17518e-05
0.00140621
1.41702e-05
0.00173339
0.000101914
0.00178181
0.000338729
0.00160472
0.000777759
0.00118637
0.00149541
0.000472776
0.00248645
-0.000518139
0.00385781
-0.00194974
-0.00457641
0.00580568
7.79909e-05
0.00063205
0.000190385
0.00129382
0.000360834
0.00156294
0.000647465
0.00149518
0.00111324
0.00113895
0.00180504
0.000494567
0.00281365
-0.000535834
0.00419275
-0.00189724
0.00602577
-0.00378275
-0.0068091
0.00825846
0.000100505
0.000531545
0.000286327
0.001108
0.000570013
0.00127925
0.000998805
0.00106638
0.00163587
0.000501884
0.00255949
-0.000429051
0.00385182
-0.00182817
0.00563639
-0.0036818
0.00788983
-0.00603619
-0.00904166
0.0101224
9.02703e-05
0.000441275
0.000298931
0.000899337
0.00064422
0.000933966
0.00117895
0.00053165
0.00199351
-0.000312674
0.00321569
-0.00165123
0.0048837
-0.00349618
0.00704244
-0.00584054
0.00938043
-0.00837419
-0.0109515
0.0112903
5.99887e-05
0.000381286
0.000260258
0.000699068
0.000649257
0.000544967
0.0013215
-0.000140594
0.00240876
-0.00139993
0.00401153
-0.003254
0.00602567
-0.00551032
0.00823955
-0.00805442
0.0101868
-0.0103214
-0.0123725
0.0116078
2.85446e-05
0.000352742
0.000224836
0.000502776
0.00069808
7.17232e-05
0.00160428
-0.0010468
0.00305403
-0.00284968
0.00495718
-0.00515716
0.00701436
-0.0075675
0.00884604
-0.0098861
0.0101834
-0.0116588
-0.0134478
0.0112587
1.33095e-05
0.000339432
0.000245657
0.000270429
0.000888105
-0.000570725
0.00210873
-0.00226742
0.00384599
-0.00458694
0.00576417
-0.00707534
0.00751228
-0.00931561
0.00883254
-0.0112064
0.00975049
-0.0125767
-0.0139785
0.0102812
2.21195e-05
0.000317313
0.000350719
-5.81711e-05
0.00124069
-0.0014607
0.00273684
-0.00376357
0.00451831
-0.0063684
0.00616979
-0.00872681
0.00747941
-0.0106252
0.00839595
-0.0121229
0.00913499
-0.0133158
-0.0145335
0.00968994
5.51943e-05
0.000262119
0.000538335
-0.000541312
0.00168852
-0.00261089
0.00329073
-0.00536578
0.00487852
-0.00795619
0.00616394
-0.0100122
0.00710663
-0.0115679
0.0077957
-0.012812
0.00835177
-0.0138719
-0.0149675
0.00878576
0.000109073
0.000153046
0.000785631
-0.00121787
0.0021153
-0.00394056
0.00362819
-0.00687867
0.00491857
-0.00924657
0.00587392
-0.0109676
0.00656095
-0.012255
0.0070747
-0.0133257
0.00753131
-0.0143285
-0.0154032
0.00796701
0.000182605
-2.95594e-05
0.00104979
-0.00208506
0.00242097
-0.00531173
0.00372626
-0.00818396
0.00471992
-0.0102402
0.00541573
-0.0116634
0.00591454
-0.0127538
0.00631879
-0.01373
0.00669916
-0.0147089
-0.0157404
0.0070364
0.000273886
-0.000303445
0.00128397
-0.00309514
0.00256734
-0.00659511
0.00362718
-0.0092438
0.00436403
-0.0109771
0.00486002
-0.0121594
0.00522672
-0.0131205
0.00553842
-0.0140417
0.00583508
-0.0150055
-0.0160354
0.00613005
0.000374508
-0.000677954
0.00145006
-0.00417069
0.00256626
-0.00771131
0.00338509
-0.0100626
0.00391047
-0.0115025
0.00425537
-0.0125043
0.00451597
-0.0133811
0.00474732
-0.014273
0.00497388
-0.0152321
-0.0162478
0.0051863
0.000468208
-0.00114616
0.0015243
-0.00522678
0.0024453
-0.00863231
0.00304671
-0.010664
0.00340151
-0.0118573
0.00362619
-0.012729
0.00379818
-0.0135531
0.00395212
-0.014427
0.00409712
-0.0153771
-0.0163904
0.00423976
0.000540781
-0.00168694
0.00150385
-0.00618985
0.00223332
-0.00936178
0.00264841
-0.0110791
0.00286421
-0.0120731
0.00298912
-0.0128539
0.00307867
-0.0136426
0.00315412
-0.0145024
0.00322206
-0.015445
-0.0164499
0.00328157
0.000582691
-0.00226963
0.00141343
-0.00702059
0.00195856
-0.00990692
0.00221593
-0.0113365
0.00231613
-0.0121732
0.00235229
-0.01289
0.00236247
-0.0136528
0.0023583
-0.0144982
0.00234288
-0.0154296
-0.0164321
0.00232506
0.000588864
-0.0028585
0.00126986
-0.00770158
0.00164415
-0.0102812
0.00176651
-0.0114589
0.00176759
-0.0121743
0.00172171
-0.0128442
0.00165303
-0.0135841
0.00156696
-0.0144122
0.00146515
-0.0153278
-0.0163266
0.00135965
0.000559888
-0.00341839
0.00108755
-0.00822924
0.00130732
-0.010501
0.00131277
-0.0114643
0.0012258
-0.0120874
0.00110094
-0.0127193
0.000953103
-0.0134363
0.000785781
-0.0142449
0.000594854
-0.0151368
-0.0161168
0.000385106
0.000501889
-0.00392027
0.000879824
-0.00860718
0.000961417
-0.0105826
0.000864122
-0.011367
0.000695065
-0.0119183
0.000492593
-0.0125168
0.000263878
-0.0132076
1.0434e-05
-0.0139914
-0.000255814
-0.0148706
-0.0158068
-0.000565807
0.000423435
-0.00434371
0.00065784
-0.00884158
0.000615585
-0.0105403
0.000426347
-0.0111778
0.000176129
-0.0116681
-0.000101463
-0.0122392
-0.000402278
-0.0129067
-0.000729685
-0.013664
-0.00109574
-0.0145045
-0.0154178
-0.00148483
0.000332716
-0.00467643
0.000430799
-0.00893967
0.00027662
-0.0103861
-5.40135e-06
-0.0108957
-0.000318459
-0.011355
-0.000665575
-0.0118921
-0.00104437
-0.0125279
-0.00145574
-0.0132526
-0.00190399
-0.0140563
-0.0149427
-0.00237905
0.000236282
-0.00491271
0.000207529
-0.00891091
-5.31117e-05
-0.0101255
-0.000399157
-0.0105497
-0.000789734
-0.0109645
-0.00121001
-0.0114718
-0.00166363
-0.0120743
-0.00215458
-0.0127617
-0.00268028
-0.0135306
-0.0143847
-0.00323831
0.000139053
-0.00505176
4.01428e-06
-0.00877587
-0.000355584
-0.00976589
-0.000781455
-0.0101238
-0.00124031
-0.0105056
-0.00173059
-0.0109815
-0.00225567
-0.0115493
-0.0028203
-0.012197
-0.00342257
-0.0129283
-0.0137469
-0.00406035
4.67173e-05
-0.00509848
-0.000222266
-0.00850689
-0.000648258
-0.0093399
-0.00114292
-0.00962917
-0.00166767
-0.00998085
-0.00222483
-0.0104244
-0.00281832
-0.0109558
-0.00345173
-0.0115636
-0.00412599
-0.0122541
-0.013038
-0.00483488
-5.06808e-05
-0.0050478
-0.000419498
-0.00813807
-0.000923814
-0.00883559
-0.00148138
-0.0090716
-0.00206956
-0.00939267
-0.00269147
-0.00980248
-0.00335105
-0.0102962
-0.00404941
-0.0108653
-0.00478082
-0.0115227
-0.0122656
-0.0055532
-0.000152163
-0.00489563
-0.000602465
-0.00768777
-0.00117874
-0.00825931
-0.00179627
-0.00845408
-0.00244419
-0.00874474
-0.00312774
-0.00911894
-0.00385132
-0.00957261
-0.00461738
-0.0100992
-0.00542899
-0.010711
-0.0114804
-0.00621415
-0.000241154
-0.00465448
-0.000771438
-0.00715749
-0.00141174
-0.00761901
-0.00208575
-0.00778006
-0.00278974
-0.00804076
-0.00353031
-0.00837837
-0.00431233
-0.00879059
-0.00513822
-0.00927332
-0.00600893
-0.00984034
-0.010462
-0.00702733
-0.000320833
-0.00433365
-0.000925126
-0.00655319
-0.00162281
-0.00692133
-0.00234902
-0.00705385
-0.00310498
-0.0072848
-0.0038974
-0.00758594
-0.00472947
-0.00795852
-0.0056048
-0.00839799
-0.00654375
-0.00890139
-0.00942366
-0.00758214
-0.000391588
-0.00394206
-0.00106238
-0.00588241
-0.00181133
-0.00617237
-0.00258492
-0.00628026
-0.00338834
-0.00648138
-0.00422927
-0.00674502
-0.00511399
-0.0070738
-0.00605134
-0.00746063
-0.00705611
-0.00789662
-0.0083607
-0.00811907
-0.000453197
-0.00348886
-0.00118255
-0.00515305
-0.00197685
-0.00537807
-0.00279259
-0.00546452
-0.0036376
-0.00563637
-0.00451946
-0.00586316
-0.00544602
-0.00614724
-0.0064282
-0.00647845
-0.00747707
-0.00684775
-0.00725099
-0.00858678
-0.000504789
-0.00298407
-0.00128501
-0.00437283
-0.002119
-0.00454408
-0.00297192
-0.0046116
-0.00385418
-0.00475411
-0.00477405
-0.00494329
-0.00574033
-0.00518096
-0.00676237
-0.00545641
-0.00784702
-0.0057631
-0.00610363
-0.00899438
-0.000544465
-0.00243961
-0.00136935
-0.00354795
-0.00223743
-0.00367599
-0.00312154
-0.0037275
-0.00403449
-0.00384116
-0.00498518
-0.00399259
-0.00598317
-0.00418297
-0.00703715
-0.00440243
-0.00815336
-0.00464689
-0.00492184
-0.00933514
-0.000578568
-0.00186104
-0.00143706
-0.00268946
-0.00233252
-0.00278053
-0.00324208
-0.00281794
-0.00418025
-0.00290299
-0.00515628
-0.00301657
-0.00617985
-0.0031594
-0.00725886
-0.00332342
-0.00839958
-0.00350617
-0.0037134
-0.00960802
-0.000605281
-0.00125576
-0.00148821
-0.00180653
-0.00240391
-0.00186482
-0.00333257
-0.00188928
-0.00428966
-0.00194591
-0.00528463
-0.00202159
-0.00632729
-0.00211675
-0.00742497
-0.00222574
-0.00858393
-0.00234721
-0.00248555
-0.00981178
-0.00062334
-0.00152253
-0.00245161
-0.00339306
-0.000947833
-0.00436284
-0.000976127
-0.00537048
-0.00101395
-0.00642572
-0.0010615
-0.00753558
-0.00111589
-0.00870633
-0.00117645
-0.00124555
-0.00994633
-0.00342333
-0.00439946
-0.00541341
-0.00647491
-0.0075908
-0.00876725
-0.0100128
-0.00546578
-0.000295705
-0.00509101
-0.000374771
-0.00465067
-0.000440342
-0.00415177
-0.000498898
-0.0036045
-0.000547265
-0.00301767
-0.000586831
-0.00240061
-0.000617063
-0.00176273
-0.000637885
-0.0011118
-0.000650923
-0.000457662
-0.000654141
0.0001921
-0.000649762
0.000831278
-0.000639178
0.00145438
-0.000623104
0.00205685
-0.000602472
0.00263518
-0.000578326
0.00318682
-0.000551645
0.00371015
-0.000523328
0.00420433
-0.000494174
0.0046692
-0.000464871
0.00510519
-0.000435995
0.00551318
-0.00040799
0.00589429
-0.000381107
0.00624976
-0.000355469
0.00658101
-0.000331254
0.00688958
-0.000308567
0.00717702
-0.000287439
0.00744487
-0.000267857
0.00769465
-0.000249772
-0.000233112
-0.00359107
-0.000562624
-0.00325965
-0.000706196
-0.00286765
-0.000832337
-0.00242012
-0.000946431
-0.0019293
-0.00103808
-0.00140205
-0.00111408
-0.000846592
-0.00117252
-0.000271309
-0.00121317
0.000311697
-0.00123393
0.000897357
-0.0012398
0.00147948
-0.00123188
0.00205182
-0.00121152
0.00260913
-0.00118041
0.00314711
-0.00114046
0.00366246
-0.00109367
0.0041528
-0.00104199
0.00461667
-0.000987198
0.00505337
-0.000930872
0.00546285
-0.000874347
0.00584557
-0.000818721
0.00620244
-0.000764862
0.00653472
-0.000713379
0.0068438
-0.000664551
0.00713103
-0.000618484
0.00739783
-0.00057537
0.00764568
-0.000535291
0.00787605
-0.000498226
0.00809036
-0.000464075
-0.000432689
-0.000547499
-0.000757674
-0.000294568
-0.000959127
1.27259e-05
-0.00113963
0.000352632
-0.00128634
0.000730176
-0.00141563
0.00113903
-0.00152293
0.00157283
-0.00160633
0.00202425
-0.00166459
0.00248773
-0.00169741
0.00295606
-0.00170813
0.00342271
-0.00169852
0.00388193
-0.00167074
0.00432897
-0.00162745
0.00476004
-0.00157153
0.00517224
-0.00150587
0.00556353
-0.00143328
0.00593266
-0.00135633
0.00627907
-0.00127728
0.00660275
-0.00119803
0.00690415
-0.00112011
0.00718401
-0.00104472
0.00744338
-0.000972749
0.00768359
-0.000904766
0.00790608
-0.000840973
0.00811204
-0.000781323
0.00830265
-0.000725907
0.00847914
-0.000674719
0.00864271
-0.000627641
-0.000584469
0.00278936
-0.000841727
0.00293124
-0.00110101
0.00310856
-0.00131695
0.00331994
-0.00149772
0.00356004
-0.00165573
0.00382702
-0.00178991
0.0041157
-0.001895
0.00442024
-0.00196913
0.0047363
-0.00201348
0.0050583
-0.00203012
0.0053812
-0.00202143
0.00570069
-0.00199024
0.00601316
-0.00193992
0.00631567
-0.00187404
0.00660593
-0.00179613
0.00688228
-0.00170963
0.00714366
-0.00161771
0.00738953
-0.00152315
0.00761978
-0.00142827
0.0078346
-0.00133493
0.00803444
-0.00124457
0.00821993
-0.00115823
0.0083918
-0.00107664
0.00855104
-0.00100021
0.00869873
-0.000929015
0.00883567
-0.000862846
0.0089626
-0.00080165
0.00908028
-0.000745319
0.00918946
-0.000693651
-0.000646361
0.00583921
-0.000875249
0.00589216
-0.00115396
0.0059532
-0.00137799
0.00602914
-0.00157367
0.00612637
-0.00175296
0.00624405
-0.00190758
0.00637843
-0.00202938
0.00652611
-0.00211682
0.00668447
-0.00217183
0.0068505
-0.00219615
0.00702108
-0.00219201
0.00719346
-0.00216262
0.00736539
-0.00211185
0.00753501
-0.00204366
0.00770079
-0.00196191
0.00786152
-0.00187036
0.00801635
-0.00177254
0.0081647
-0.00167151
0.00830624
-0.00156981
0.00844079
-0.00146948
0.00856832
-0.0013721
0.0086889
-0.00127881
0.00880265
-0.00119038
0.00890972
-0.00110729
0.00901046
-0.00102975
0.00910538
-0.000957771
0.0091948
-0.000891067
0.00927891
-0.00082943
0.00935793
-0.000772674
-0.000720556
0.00826432
-0.00088111
0.00825882
-0.00114846
0.00823776
-0.00135693
0.00821008
-0.00154598
0.00818512
-0.001728
0.00816589
-0.00188836
0.00815432
-0.00201781
0.00815318
-0.00211568
0.0081628
-0.00218146
0.00818205
-0.0022154
0.00820998
-0.00221993
0.00824563
-0.00219827
0.00828823
-0.00215444
0.008337
-0.00209243
0.00839108
-0.00201598
0.00844958
-0.00192886
0.00851172
-0.00183468
0.00857677
-0.00173656
0.00864402
-0.00163706
0.00871279
-0.00153825
0.00878245
-0.00144176
0.00885242
-0.00134878
0.00892215
-0.00126012
0.00899116
-0.00117629
0.00905898
-0.00109756
0.00912523
-0.00102402
0.00918978
-0.000955624
0.00925259
-0.000892241
0.00931341
-0.000833491
-0.000779151
0.0100678
-0.000826514
0.00998702
-0.00106769
0.00988019
-0.0012501
0.00975959
-0.00142538
0.00963325
-0.00160166
0.00950308
-0.00175818
0.00937195
-0.00188668
0.00924434
-0.00198806
0.00912551
-0.00206263
0.00901962
-0.00210951
0.00892759
-0.00212791
0.00884958
-0.00212026
0.00878621
-0.00209107
0.00873767
-0.0020439
0.0087035
-0.00198181
0.00868282
-0.00190818
0.00867462
-0.00182648
0.00867779
-0.00173974
0.0086911
-0.00165037
0.00871325
-0.0015604
0.00874294
-0.00147145
0.00877892
-0.00138476
0.00882001
-0.00130121
0.0088651
-0.00122138
0.00891316
-0.00114563
0.00896329
-0.00107414
0.00901464
-0.00100698
0.00906652
-0.000944122
0.00911852
-0.000885492
0.00917019
-0.000830816
-0.000779818
0.0111684
-0.000704662
0.0110099
-0.000909188
0.0108238
-0.00106397
0.0106249
-0.00122657
0.0104182
-0.00139486
0.0102052
-0.00154526
0.00999081
-0.00167227
0.00977983
-0.00177708
0.00957639
-0.00185919
0.00938447
-0.00191759
0.00920886
-0.0019523
0.00905287
-0.00196428
0.00891783
-0.00195603
0.00880426
-0.00193033
0.00871196
-0.0018895
0.00864001
-0.00183623
0.00858716
-0.00177362
0.00855189
-0.00170447
0.00853249
-0.00163097
0.00852709
-0.001555
0.00853384
-0.0014782
0.00855094
-0.00140186
0.00857668
-0.00132695
0.00860949
-0.00125419
0.00864792
-0.00118407
0.00869069
-0.0011169
0.00873661
-0.0010529
0.00878467
-0.000992185
0.008834
-0.000934822
0.00888386
-0.000880678
0.00893367
-0.000829624
-0.000781693
0.0114625
-0.000559364
0.0112672
-0.000713902
0.0110455
-0.000842266
0.0108123
-0.00099337
0.010568
-0.00115055
0.0103161
-0.00129333
0.0100627
-0.00141884
0.00981289
-0.0015273
0.00957096
-0.00161726
0.00934101
-0.00168765
0.00912738
-0.00173866
0.00893478
-0.00177167
0.00876612
-0.00178737
0.00862209
-0.0017863
0.00850234
-0.00176976
0.00840596
-0.00173985
0.00833181
-0.00169947
0.00827838
-0.00165105
0.00824377
-0.00159636
0.00822584
-0.00153707
0.00822238
-0.00147474
0.00823125
-0.00141073
0.00825044
-0.00134614
0.0082781
-0.00128185
0.00831257
-0.00121855
0.0083524
-0.00115673
0.00839627
-0.00109677
0.00844299
-0.00103891
0.00849153
-0.000983356
0.00854108
-0.000930233
0.0085911
-0.000879637
-0.000831654
0.0111034
-0.00040403
0.010908
-0.000518577
0.0107028
-0.000637032
0.0104841
-0.000774614
0.0102503
-0.000916796
0.0100087
-0.00105172
0.0097648
-0.00117496
0.00952248
-0.00128498
0.00928587
-0.00138065
0.00905929
-0.00146107
0.00884638
-0.00152576
0.00864966
-0.00157496
0.00847141
-0.00160911
0.00831386
-0.00162875
0.00817884
-0.00163474
0.00806758
-0.00162859
0.00797978
-0.00161166
0.00791404
-0.00158531
0.00786861
-0.00155093
0.00784147
-0.00150993
0.00783043
-0.00146369
0.00783322
-0.00141353
0.0078477
-0.00136061
0.00787184
-0.00130599
0.00790385
-0.00125056
0.00794213
-0.00119501
0.0079853
-0.00113993
0.00803214
-0.00108576
0.00808163
-0.00103284
0.00813288
-0.000981487
0.00818517
-0.000931925
0.00823785
-0.000884334
-0.000838853
0.0175186
-0.000236038
-0.0176866
0.0173872
-0.000387171
0.0172698
-0.00051966
0.0171405
-0.000645273
0.0169901
-0.000766404
0.0168203
-0.00088191
0.0166348
-0.000989511
0.0164366
-0.00108677
0.0162282
-0.00117218
0.0160123
-0.0012452
0.0157922
-0.00130569
0.0155709
-0.00135369
0.0153513
-0.00138942
0.0151358
-0.00141331
0.0149271
-0.00142598
0.0147269
-0.00142843
0.014537
-0.00142173
0.0143585
-0.00140681
0.0141921
-0.00138461
0.0140384
-0.00135619
0.0138973
-0.00132262
0.0137687
-0.00128495
0.0136523
-0.00124416
0.0135474
-0.00120115
0.0134536
-0.0011567
0.0133701
-0.00111147
0.0132961
-0.00106599
0.0132311
-0.0010207
0.0131741
-0.000975929
0.0131246
-0.00093195
0.0130817
-0.000889004
0.0130447
-0.000847312
-0.000807077
0.0171107
-0.000156659
-0.0171901
0.0170124
-0.000288868
0.0169094
-0.000416587
0.0167974
-0.000533306
0.0166717
-0.000640697
0.0165308
-0.000740987
0.0163757
-0.000834428
0.0162088
-0.000919925
0.0160329
-0.00099626
0.0158504
-0.00106268
0.0156636
-0.0011189
0.0154749
-0.00116494
0.0152864
-0.00120099
0.0151005
-0.00122739
0.0149191
-0.00124458
0.0147438
-0.00125313
0.0145758
-0.00125374
0.0144161
-0.00124712
0.0142655
-0.00123403
0.0141246
-0.00121529
0.0139938
-0.00119173
0.013873
-0.00116419
0.0137623
-0.00113346
0.0136614
-0.00110028
0.01357
-0.0010653
0.0134876
-0.00102909
0.0134138
-0.000992114
0.0133478
-0.000954754
0.0132892
-0.000917326
0.0132374
-0.000880105
0.0131917
-0.000843344
0.0131517
-0.000807277
-0.000772111
0.0167369
-0.000114487
-0.0167791
0.0166738
-0.000225697
0.016594
-0.000336816
0.0165011
-0.000440393
0.0163958
-0.000535414
0.0162783
-0.000623436
0.016149
-0.000705217
0.0160096
-0.000780492
0.0158619
-0.000848511
0.0157078
-0.000908606
0.0155493
-0.000960426
0.0153883
-0.00100392
0.0152265
-0.00103921
0.0150657
-0.00106655
0.0149073
-0.00108624
0.0147529
-0.00109867
0.0146035
-0.00110435
0.0144602
-0.00110382
0.0143238
-0.00109766
0.014195
-0.00108648
0.0140742
-0.00107092
0.0139616
-0.00105162
0.0138573
-0.00102919
0.0137613
-0.00100422
0.0136732
-0.000977255
0.0135929
-0.000948761
0.0135199
-0.000919144
0.0134539
-0.000888745
0.0133945
-0.00085786
0.0133411
-0.000826752
0.0132934
-0.00079566
0.013251
-0.000764804
-0.000734387
0.0164059
-8.48432e-05
-0.0164356
0.0163579
-0.000177693
0.0162931
-0.000271971
0.016215
-0.000362364
0.016126
-0.000446395
0.0160268
-0.000524166
0.0159178
-0.000596315
0.0158003
-0.000662983
0.0156756
-0.000723794
0.0155453
-0.000778253
0.0154109
-0.000826017
0.0152739
-0.00086697
0.0151359
-0.000901164
0.0149981
-0.000928753
0.0148618
-0.000949958
0.0147282
-0.000965062
0.0145982
-0.000974409
0.0144728
-0.000978392
0.0143526
-0.00097744
0.0142381
-0.000972013
0.0141298
-0.000962592
0.0140279
-0.000949672
0.0139324
-0.000933745
0.0138435
-0.000915288
0.013761
-0.000894743
0.0136847
-0.000872511
0.0136145
-0.000848944
0.0135501
-0.000824354
0.0134913
-0.00079901
0.0134377
-0.000773156
0.013389
-0.00074701
0.013345
-0.000720777
-0.000694642
0.0161106
-5.74676e-05
-0.016138
0.0160711
-0.000138102
0.016019
-0.000219964
0.0159555
-0.000298815
0.0158818
-0.000372727
0.0157992
-0.000441508
0.0157084
-0.000505521
0.0156103
-0.000564917
0.015506
-0.000619488
0.0153966
-0.000668877
0.0152834
-0.000712789
0.0151675
-0.000751084
0.0150501
-0.000783764
0.0149323
-0.00081092
0.014815
-0.000832704
0.0146993
-0.000849318
0.0145859
-0.000861008
0.0144756
-0.000868062
0.0143689
-0.000870803
0.0142665
-0.000869583
0.0141687
-0.000864774
0.0140758
-0.000856761
0.0139879
-0.000845934
0.0139053
-0.000832673
0.0138279
-0.000817341
0.0137557
-0.000800273
0.0136885
-0.000781774
0.0136263
-0.000762114
0.0135688
-0.000741534
0.0135159
-0.000720252
0.0134674
-0.000698462
0.0134229
-0.000676348
-0.000654076
0.0158531
-3.66049e-05
-0.015874
0.0158219
-0.000106892
0.0157803
-0.000178349
0.0157287
-0.000247186
0.015668
-0.000312026
0.0155993
-0.000372787
0.0155234
-0.00042967
0.0154412
-0.00048272
0.0153535
-0.000531758
0.0152611
-0.00057651
0.0151651
-0.000616738
0.0150663
-0.000652311
0.0149657
-0.0006832
0.0148643
-0.000709456
0.0147627
-0.000731183
0.0146619
-0.000748525
0.0145626
-0.00076166
0.0144653
-0.000770802
0.0143707
-0.000776192
0.0142792
-0.000778094
0.0141913
-0.000776793
0.0141071
-0.000772585
0.0140269
-0.000765775
0.0139509
-0.000756665
0.0138791
-0.000745551
0.0138116
-0.000732711
0.0137482
-0.000718405
0.0136889
-0.000702867
0.0136337
-0.000686311
0.0135824
-0.000668927
0.0135348
-0.000650891
0.0134908
-0.000632365
-0.000613498
0.0156319
-2.12464e-05
-0.0156472
0.0156074
-8.23695e-05
0.0155735
-0.000144464
0.0155309
-0.000204618
0.0154805
-0.000261652
0.0154232
-0.000315416
0.0153595
-0.000366014
0.0152902
-0.000413442
0.015216
-0.000457537
0.0151376
-0.000498073
0.0150557
-0.000534854
0.0149711
-0.00056776
0.0148847
-0.000596751
0.0147971
-0.000621848
0.014709
-0.000643118
0.0146211
-0.000660659
0.0145341
-0.000674599
0.0144484
-0.000685093
0.0143645
-0.000692319
0.0142829
-0.000696477
0.0142039
-0.000697783
0.0141278
-0.000696466
0.0140547
-0.000692766
0.013985
-0.000686923
0.0139186
-0.000679179
0.0138557
-0.000669765
0.0137962
-0.000658901
0.0137401
-0.000646787
0.0136874
-0.00063361
0.013638
-0.000619536
0.0135918
-0.00060472
0.0135488
-0.000589305
-0.000573425
0.0154407
-9.14225e-06
-0.0154528
0.0154206
-6.23256e-05
0.0153927
-0.000116502
0.0153574
-0.00016931
0.0153154
-0.000219648
0.0152673
-0.000267313
0.0152136
-0.000312371
0.015155
-0.000354809
0.0150919
-0.000394485
0.0150251
-0.000431204
0.014955
-0.000464794
0.0148824
-0.000495144
0.0148078
-0.000522207
0.014732
-0.000545986
0.0146554
-0.000566518
0.0145786
-0.000583868
0.0145021
-0.000598126
0.0144264
-0.000609405
0.0143519
-0.000617837
0.014279
-0.000623573
0.014208
-0.000626778
0.0141392
-0.000627631
0.0140728
-0.00062632
0.0140089
-0.000623039
0.0139477
-0.000617981
0.0138892
-0.000611338
0.0138336
-0.000603292
0.0137809
-0.000594017
0.0137309
-0.000583669
0.0136838
-0.000572394
0.0136394
-0.000560326
0.0135977
-0.000547592
-0.000534311
0.0152733
6.02667e-07
-0.0152831
0.0152567
-4.57174e-05
0.0152336
-9.33877e-05
0.0152043
-0.000139954
0.0151691
-0.000184483
0.0151286
-0.000226809
0.0150832
-0.000266987
0.0150334
-0.000305004
0.0149797
-0.000340731
0.0149224
-0.000373991
0.0148623
-0.000404632
0.0147997
-0.000432552
0.0147352
-0.000457701
0.0146693
-0.000480069
0.0146024
-0.000499674
0.0145351
-0.000516558
0.0144678
-0.000530782
0.0144008
-0.000542428
0.0143345
-0.000551595
0.0142694
-0.000558394
0.0142055
-0.000562955
0.0141433
-0.000565415
0.0140829
-0.000565921
0.0140245
-0.000564629
0.0139682
-0.000561696
0.0139142
-0.000557277
0.0138624
-0.000551526
0.013813
-0.000544586
0.0137659
-0.000536591
0.0137212
-0.000527666
0.0136788
-0.00051793
0.0136387
-0.000507491
-0.000496458
0.0151255
8.6199e-06
-0.0151335
0.0151121
-3.23036e-05
0.0150931
-7.43374e-05
0.0150686
-0.000115482
0.015039
-0.000154939
0.0150048
-0.000192586
0.0149663
-0.000228466
0.0149239
-0.000262558
0.0148779
-0.000294743
0.0148287
-0.000324863
0.0147769
-0.000352781
0.0147227
-0.000378406
0.0146667
-0.000401687
0.0146093
-0.000422608
0.0145508
-0.000441173
0.0144916
-0.000457406
0.0144322
-0.000471348
0.0143728
-0.000483056
0.0143138
-0.000492602
0.0142555
-0.000500072
0.0141981
-0.000505563
0.0141419
-0.000509182
0.014087
-0.000511046
0.0140336
-0.000511279
0.013982
-0.000510007
0.013932
-0.000507358
0.013884
-0.000503457
0.0138378
-0.000498426
0.0137936
-0.000492377
0.0137513
-0.000485416
0.0137111
-0.000477646
0.0136727
-0.000469164
-0.000460065
0.0149951
1.48495e-05
-0.0150014
0.0149843
-2.14448e-05
0.0149685
-5.85546e-05
0.014948
-9.49831e-05
0.0149231
-0.000130033
0.0148941
-0.000163583
0.0148613
-0.000195668
0.014825
-0.000226263
0.0147855
-0.000255262
0.0147432
-0.000282528
0.0146983
-0.000307939
0.0146513
-0.000331411
0.0146025
-0.000352897
0.0145523
-0.000372373
0.014501
-0.000389836
0.0144489
-0.000405296
0.0143963
-0.000418778
0.0143436
-0.000430322
0.0142909
-0.00043998
0.0142387
-0.000447817
0.014187
-0.000453906
0.0141362
-0.000458331
0.0140863
-0.000461185
0.0140376
-0.000462566
0.0139902
-0.000462576
0.0139441
-0.00046132
0.0138996
-0.000458901
0.0138566
-0.000455418
0.0138152
-0.000450967
0.0137754
-0.000445638
0.0137372
-0.00043952
0.0137008
-0.000432696
-0.00042525
0.0148797
1.95835e-05
-0.0148844
0.0148709
-1.26244e-05
0.0148578
-4.54614e-05
0.0148406
-7.77866e-05
0.0148195
-0.000108984
0.0147949
-0.000138932
0.0147668
-0.000167652
0.0147357
-0.000195125
0.0147017
-0.000221258
0.0146651
-0.00024593
0.0146262
-0.000269035
0.0145853
-0.000290497
0.0145427
-0.000310269
0.0144986
-0.000328327
0.0144534
-0.000344658
0.0144074
-0.000359267
0.0143608
-0.000372166
0.0143139
-0.000383382
0.0142668
-0.000392951
0.0142199
-0.000400923
0.0141734
-0.000407353
0.0141274
-0.000412306
0.014082
-0.000415856
0.0140375
-0.000418082
0.013994
-0.000419065
0.0139516
-0.000418892
0.0139103
-0.000417645
0.0138703
-0.000415407
0.0138316
-0.000412259
0.0137943
-0.000408276
0.0137583
-0.000403535
0.0137237
-0.000398109
-0.000392071
0.0147771
2.31324e-05
-0.0147806
0.01477
-5.50857e-06
0.0147591
-3.46262e-05
0.0147447
-6.33689e-05
0.0147269
-9.11732e-05
0.0147059
-0.000117929
0.0146819
-0.000143654
0.0146551
-0.000168331
0.0146257
-0.000191879
0.014594
-0.000214192
0.0145601
-0.000235176
0.0145244
-0.000254764
0.014487
-0.000272911
0.0144483
-0.00028959
0.0144084
-0.000304787
0.0143677
-0.000318499
0.0143262
-0.000330732
0.0142843
-0.000341501
0.0142422
-0.000350834
0.0142001
-0.000358764
0.014158
-0.000365335
0.0141163
-0.000370598
0.0140751
-0.000374611
0.0140344
-0.000377436
0.0139945
-0.00037914
0.0139554
-0.000379792
0.0139172
-0.00037946
0.01388
-0.000378213
0.0138439
-0.000376116
0.0138089
-0.000373236
0.013775
-0.000369636
0.0137422
-0.000365381
-0.000360534
0.0146857
2.56734e-05
-0.0146883
0.0146801
1.05249e-07
0.0146712
-2.56863e-05
0.0146591
-5.12805e-05
0.014644
-7.60835e-05
0.0146261
-0.000100001
0.0146055
-0.00012305
0.0145823
-0.000145214
0.0145569
-0.000166423
0.0145293
-0.000186585
0.0144997
-0.000205617
0.0144684
-0.000223458
0.0144356
-0.000240068
0.0144014
-0.000255419
0.0143661
-0.000269495
0.0143299
-0.00028229
0.014293
-0.000293802
0.0142555
-0.000304042
0.0142177
-0.000313027
0.0141797
-0.000320783
0.0141417
-0.000327341
0.0141039
-0.000332742
0.0140663
-0.00033703
0.0140291
-0.000340257
0.0139924
-0.000342476
0.0139564
-0.000343742
0.013921
-0.000344112
0.0138865
-0.000343641
0.0138527
-0.000342385
0.0138199
-0.000340398
0.013788
-0.000337737
0.0137571
-0.000334456
-0.000330611
0.0146044
2.72975e-05
-0.014606
0.0146
4.56281e-06
0.0145927
-1.83895e-05
0.0145826
-4.11736e-05
0.0145698
-6.3298e-05
0.0145545
-8.46766e-05
0.0145367
-0.000105321
0.0145167
-0.000125217
0.0144946
-0.000144302
0.0144705
-0.000162497
0.0144446
-0.000179729
0.0144171
-0.000195943
0.0143882
-0.000211102
0.0143579
-0.00022518
0.0143266
-0.00023816
0.0142943
-0.000250032
0.0142613
-0.000260793
0.0142277
-0.000270447
0.0141937
-0.000279004
0.0141594
-0.000286484
0.014125
-0.00029291
0.0140905
-0.000298313
0.0140562
-0.000302729
0.0140222
-0.000306199
0.0139885
-0.000308765
0.0139552
-0.000310472
0.0139224
-0.000311366
0.0138903
-0.000311492
0.0138588
-0.000310898
0.013828
-0.000309629
0.013798
-0.000307732
0.0137688
-0.000305256
-0.000302247
0.0145319
2.8161e-05
-0.0145328
0.0145285
7.98426e-06
0.0145226
-1.24658e-05
0.0145142
-3.27431e-05
0.0145033
-5.24704e-05
0.0144902
-7.15665e-05
0.014475
-9.00402e-05
0.0144576
-0.000107878
0.0144383
-0.000125027
0.0144173
-0.000141417
0.0143945
-0.000156985
0.0143703
-0.000171681
0.0143446
-0.000185471
0.0143178
-0.000198333
0.0142899
-0.000210248
0.014261
-0.000221204
0.0142314
-0.000231197
0.0142012
-0.000240226
0.0141705
-0.000248298
0.0141395
-0.000255427
0.0141082
-0.000261629
0.0140768
-0.00026693
0.0140454
-0.000271356
0.0140142
-0.00027494
0.0139831
-0.000277717
0.0139524
-0.000279723
0.013922
-0.000280994
0.0138921
-0.000281569
0.0138627
-0.000281486
0.0138338
-0.000280784
0.0138056
-0.000279503
0.013778
-0.000277684
-0.000275368
0.0144674
2.83874e-05
-0.0144676
0.0144649
1.04812e-05
0.0144601
-7.71478e-06
0.0144531
-2.57417e-05
0.0144439
-4.33096e-05
0.0144327
-6.03419e-05
0.0144195
-7.6845e-05
0.0144045
-9.28075e-05
0.0143876
-0.000108183
0.0143691
-0.000122911
0.0143491
-0.000136935
0.0143276
-0.000150212
0.0143048
-0.000162713
0.0142809
-0.000174413
0.014256
-0.000185296
0.0142301
-0.000195351
0.0142035
-0.000204571
0.0141762
-0.000212952
0.0141484
-0.000220499
0.0141202
-0.000227221
0.0140917
-0.00023313
0.014063
-0.000238245
0.0140342
-0.000242588
0.0140055
-0.000246184
0.0139768
-0.000249061
0.0139484
-0.000251248
0.0139201
-0.000252775
0.0138922
-0.000253674
0.0138647
-0.000253976
0.0138377
-0.000253715
0.0138111
-0.000252923
0.013785
-0.000251636
-0.000249889
0.0144099
2.80486e-05
-0.0144095
0.0144082
1.21863e-05
0.0144044
-3.97255e-06
0.0143987
-1.99626e-05
0.0143909
-3.55717e-05
0.0143813
-5.07268e-05
0.0143699
-6.54316e-05
0.0143568
-7.96759e-05
0.014342
-9.34199e-05
0.0143257
-0.00010661
0.014308
-0.000119199
0.0142889
-0.000131147
0.0142686
-0.000142427
0.0142472
-0.00015302
0.0142248
-0.000162908
0.0142016
-0.000172081
0.0141775
-0.000180529
0.0141528
-0.00018825
0.0141276
-0.000195244
0.0141019
-0.000201518
0.0140758
-0.00020708
0.0140495
-0.000211945
0.014023
-0.000216131
0.0139965
-0.000219656
0.01397
-0.000222544