/*--------------------------------*- C++ -*----------------------------------*\
  =========                 |
  \\      /  F ield         | OpenFOAM: The Open Source CFD Toolbox
   \\    /   O peration     | Website:  https://openfoam.org
    \\  /    A nd           | Version:  7
     \\/     M anipulation  |
\*---------------------------------------------------------------------------*/
FoamFile
{
    version     2.0;
    format      ascii;
    class       volVectorField;
    location    "5";
    object      U;
}
// * * * * * * * * * * * * * * * * * * * * * * * * * * * * * * * * * * * * * //

dimensions      [0 1 -1 0 0 0 0];

internalField   nonuniform List<vector> 
3500
(
(-0.207011 0.0314766 9.50138e-20)
(-0.297438 0.0304351 1.69345e-20)
(-0.379746 0.0280139 3.60093e-20)
(-0.450342 0.0239466 -2.17775e-20)
(-0.505304 0.0177838 -4.35755e-20)
(-0.540461 0.00954325 4.32573e-20)
(-0.548176 -0.00024206 4.22087e-20)
(-0.512737 -0.0171966 2.83637e-20)
(-0.0301244 0.0556222 -1.15435e-19)
(-0.099922 0.0867679 7.79035e-20)
(-0.188691 0.0917084 -1.07921e-19)
(-0.265772 0.0888534 8.30566e-21)
(-0.332018 0.0818321 -8.6416e-20)
(-0.383825 0.0701458 1.29512e-20)
(-0.417373 0.0526192 6.33809e-20)
(-0.428721 0.0284431 -2.8677e-19)
(-0.418752 0.00144934 7.24699e-20)
(-0.348683 -0.0493098 3.156e-21)
(-0.0310925 0.0831958 2.19301e-19)
(-0.0884519 0.134021 -1.93195e-20)
(-0.156138 0.143932 1.51136e-19)
(-0.209412 0.139994 -1.31634e-20)
(-0.24746 0.128956 -1.8852e-19)
(-0.266731 0.110966 1.47777e-19)
(-0.264884 0.0852055 -6.64813e-20)
(-0.233466 0.0469381 6.83839e-20)
(-0.203108 0.0081791 -2.12619e-19)
(-0.0717391 -0.0700802 2.95247e-19)
(-0.0320002 0.098799 3.00365e-20)
(-0.0747725 0.16678 -3.56206e-19)
(-0.116209 0.183393 -2.17954e-19)
(-0.139894 0.179421 1.20914e-19)
(-0.143991 0.165043 1.56334e-19)
(-0.124582 0.142105 -2.66754e-19)
(-0.0854321 0.110697 1.19899e-19)
(-0.00141545 0.0682649 8.39973e-20)
(0.044081 0.00894334 3.44578e-19)
(0.247032 -0.0711888 -4.40944e-19)
(-0.0324664 0.101659 -1.12639e-19)
(-0.0618014 0.181991 1.76954e-19)
(-0.0765353 0.206335 5.32724e-19)
(-0.0695758 0.203338 -2.79586e-19)
(-0.0400721 0.186256 2.69299e-19)
(0.0161033 0.159175 4.90286e-19)
(0.0879895 0.119452 -1.54908e-20)
(0.217577 0.0848658 1.5105e-20)
(0.277077 0.00334481 -4.98869e-19)
(0.552585 -0.070551 2.34515e-19)
(-0.0323787 0.0937888 -2.72667e-19)
(-0.0518027 0.179243 1.61119e-19)
(-0.0435219 0.210073 -7.4343e-19)
(-0.00905703 0.208526 3.74599e-19)
(0.0499945 0.189364 6.1418e-20)
(0.137172 0.159868 -5.30658e-19)
(0.237155 0.111223 -1.73816e-19)
(0.401746 0.0800188 1.7643e-19)
(0.49696 -0.0075534 3.36285e-19)
(0.817549 -0.0751766 -1.85124e-19)
(-0.0321015 0.0792426 -2.97369e-20)
(-0.0460873 0.161149 -5.01241e-19)
(-0.0207438 0.194353 5.01931e-19)
(0.0358697 0.193456 -3.7175e-19)
(0.120081 0.172594 9.27697e-20)
(0.235275 0.142234 3.47372e-19)
(0.372873 0.0926193 -6.2874e-19)
(0.568598 0.056814 -2.78419e-19)
(0.732663 -0.0252375 2.48241e-19)
(1.04473 -0.0760848 1.37955e-19)
(-0.032437 0.0627463 2.96771e-19)
(-0.0444516 0.1331 8.64893e-19)
(-0.00735616 0.162966 -8.34417e-19)
(0.0680906 0.160565 2.09832e-19)
(0.17977 0.1392 5.37512e-19)
(0.333111 0.109027 -2.74398e-19)
(0.526917 0.0690666 -8.65865e-20)
(0.762207 0.02942 -3.73042e-19)
(0.980888 -0.0313472 4.37758e-19)
(1.21805 -0.0646804 -2.99139e-19)
(-0.0341737 0.0481575 -5.41235e-19)
(-0.044724 0.101581 1.47653e-19)
(0.00388859 0.122948 3.11335e-19)
(0.103923 0.117339 -1.52708e-19)
(0.259173 0.0986477 -5.41242e-19)
(0.472796 0.0740523 6.62618e-19)
(0.725848 0.052133 4.43835e-19)
(0.981288 0.0176545 4.10934e-19)
(1.18285 -0.0148003 -3.32796e-19)
(1.31419 -0.0462983 2.52579e-19)
(-0.0373153 0.0373812 -1.30956e-19)
(-0.0422412 0.071946 -4.28546e-19)
(0.0270096 0.0824163 -2.5131e-19)
(0.170906 0.0751292 3.0113e-19)
(0.393329 0.065649 5.75732e-20)
(0.671035 0.0568474 -3.91901e-19)
(0.946349 0.0526186 4.61362e-19)
(1.16546 0.0276939 -6.61779e-19)
(1.29385 0.0138189 -3.58881e-19)
(1.34232 -0.0324539 1.11379e-19)
(-0.0406059 0.030234 3.23436e-19)
(-0.0303781 0.0469294 4.48488e-19)
(0.0787608 0.0482855 1.86796e-19)
(0.292449 0.046408 2.60896e-19)
(0.587007 0.053831 -1.51592e-19)
(0.889992 0.0637742 -4.04659e-19)
(1.12828 0.0674226 1.65263e-19)
(1.27303 0.0492583 2.04989e-19)
(1.3318 0.0382412 6.81415e-19)
(1.33458 -0.0325838 -3.77839e-19)
(-0.0419002 0.025174 4.72758e-19)
(-0.00226392 0.0265067 -5.80236e-20)
(0.171824 0.0257087 4.27496e-19)
(0.468739 0.0396261 -1.90304e-19)
(0.802003 0.0653081 5.96951e-19)
(1.07281 0.084591 2.43591e-19)
(1.24049 0.0867922 3.01948e-19)
(1.31885 0.0716132 -4.97551e-19)
(1.33626 0.0487148 -1.97346e-19)
(1.32809 0.0173302 1.85458e-19)
(-0.0388324 0.0202405 2.99046e-20)
(0.0483343 0.00943302 -4.15182e-19)
(0.309783 0.0189921 -3.96481e-19)
(0.671531 0.0544689 -1.01117e-19)
(0.989541 0.0903608 -1.60731e-19)
(1.19535 0.108272 1.75959e-19)
(1.29762 0.1064 -7.42507e-19)
(1.33175 0.0881197 4.96597e-19)
(1.32953 0.0726788 -6.24245e-21)
(1.31135 0.0352597 -5.62816e-19)
(-0.0290825 0.0139032 -6.68002e-19)
(0.126699 -0.00326257 -1.34556e-19)
(0.482108 0.0306382 -1.45965e-20)
(0.862342 0.0832515 4.23467e-20)
(1.12773 0.119319 2.25375e-19)
(1.26771 0.131447 -7.13488e-19)
(1.3214 0.124017 7.02535e-19)
(1.32916 0.107951 -1.55189e-19)
(1.31521 0.0859537 8.89016e-20)
(1.29558 0.0599409 1.42862e-19)
(-0.0100707 0.00590944 1.84137e-20)
(0.235484 -0.00611086 5.46681e-19)
(0.664095 0.0583193 1.40739e-19)
(1.01819 0.118236 -7.54759e-20)
(1.22007 0.148667 -6.4072e-20)
(1.30543 0.153381 4.12214e-19)
(1.32619 0.142515 -2.41733e-21)
(1.31829 0.123704 3.03409e-19)
(1.30031 0.104162 -9.51847e-20)
(1.28033 0.0806709 -5.19348e-21)
(0.0217347 -0.00249284 1.08792e-19)
(0.370564 0.00728774 -1.95898e-19)
(0.831114 0.0966397 1.57542e-19)
(1.13474 0.155675 2.0748e-19)
(1.27659 0.177475 -1.3609e-19)
(1.32068 0.175002 -2.17715e-20)
(1.32036 0.159891 -4.0373e-19)
(1.3046 0.141295 -2.66096e-19)
(1.28459 0.119437 3.25066e-19)
(1.26434 0.0991024 -2.0071e-19)
(0.0689849 -0.00768611 1.39657e-19)
(0.51909 0.0388289 2.4768e-19)
(0.970732 0.141302 1.74664e-19)
(1.21582 0.193889 -2.66411e-19)
(1.30691 0.205699 3.18236e-19)
(1.32177 0.196093 -1.71729e-19)
(1.30896 0.178116 -4.37366e-20)
(1.28903 0.157366 -1.63109e-20)
(1.26865 0.135733 -9.25256e-20)
(1.24905 0.117707 2.6952e-20)
(0.131452 -0.00525429 3.43675e-19)
(0.66463 0.0849277 -1.95279e-19)
(1.08021 0.189648 1.21056e-19)
(1.26758 0.23188 1.44091e-19)
(1.31856 0.233234 -1.05045e-19)
(1.31397 0.217348 1.61475e-19)
(1.29405 0.196002 6.01878e-20)
(1.27251 0.174047 8.12509e-20)
(1.25234 0.151365 5.26086e-20)
(1.2329 0.133658 8.23188e-20)
(0.206267 0.00802326 -1.24978e-19)
(0.794273 0.140898 -1.8724e-19)
(1.16093 0.239988 -1.48353e-19)
(1.29606 0.26915 -1.42569e-19)
(1.31698 0.26026 -6.46701e-20)
(1.30017 0.238493 7.23599e-20)
(1.27677 0.21421 -3.64139e-20)
(1.25478 0.190015 6.75765e-22)
(1.23517 0.166597 -3.41783e-20)
(1.21673 0.149082 7.44635e-21)
(0.28811 0.0332362 3.32139e-20)
(0.901335 0.202819 -7.24761e-21)
(1.21542 0.290968 3.33884e-20)
(1.30628 0.305537 2.65279e-20)
(1.30578 0.286727 2.04642e-20)
(1.28198 0.259591 -5.63922e-20)
(1.25725 0.231984 2.71735e-20)
(1.23573 0.205692 -2.71803e-20)
(1.21709 0.18099 -8.79881e-21)
(1.1997 0.162204 -1.42713e-20)
(0.370526 0.0694825 1.57851e-21)
(0.984074 0.267857 -1.13254e-21)
(1.24691 0.341502 -7.51418e-21)
(1.30206 0.340755 8.9153e-20)
(1.28723 0.312532 -2.51072e-20)
(1.26007 0.280183 -2.57977e-20)
(1.23554 0.249266 3.72175e-21)
(1.21509 0.220401 -3.70856e-21)
(1.19772 0.194146 -1.20455e-20)
(1.18177 0.17403 -2.70829e-20)
(0.447131 0.11484 -1.40661e-19)
(1.04254 0.333746 2.77357e-20)
(1.25837 0.390413 -2.3715e-19)
(1.28613 0.374408 -8.64715e-20)
(1.26267 0.337326 -2.76035e-20)
(1.23478 0.299914 -4.378e-21)
(1.21151 0.265443 -2.20315e-20)
(1.19276 0.233995 -1.56601e-20)
(1.17711 0.206054 1.02136e-20)
(1.16226 0.183907 1.87827e-20)
(0.512619 0.166969 2.41823e-19)
(1.0778 0.398534 -1.27113e-19)
(1.25257 0.436658 1.81638e-19)
(1.26043 0.40599 7.84582e-20)
(1.23289 0.360616 -3.23988e-20)
(1.20627 0.31818 1.14576e-19)
(1.18523 0.280154 -2.68903e-20)
(1.16873 0.245982 4.09574e-20)
(1.15502 0.216589 5.25641e-21)
(1.14151 0.192415 3.0762e-20)
(0.563309 0.22327 -1.48427e-19)
(1.09142 0.46042 5.77757e-19)
(1.23175 0.479188 -1.1079e-19)
(1.22632 0.434814 -7.04595e-20)
(1.19856 0.381712 1.64178e-19)
(1.1748 0.334394 -7.26964e-20)
(1.15686 0.292904 -3.17114e-20)
(1.14306 0.256198 -2.00188e-20)
(1.13116 0.225488 -4.01153e-20)
(1.1198 0.199091 1.67463e-21)
(0.597213 0.280917 -2.70773e-19)
(1.08524 0.517692 -3.16094e-19)
(1.1977 0.5169 2.05669e-19)
(1.18503 0.459952 5.70378e-20)
(1.16042 0.399869 -9.57689e-20)
(1.14066 0.347982 -5.71365e-20)
(1.12638 0.303268 2.39666e-20)
(1.11552 0.264468 -2.76261e-20)
(1.10573 0.232391 3.74718e-20)
(1.09735 0.203937 -1.20498e-20)
(0.613867 0.336989 9.99185e-20)
(1.06126 0.568749 4.27407e-19)
(1.15206 0.5486 -7.68128e-20)
(1.13815 0.480425 9.05979e-21)
(1.11868 0.414176 -1.36021e-20)
(1.10389 0.358508 6.45432e-20)
(1.09389 0.310939 4.0933e-20)
(1.08634 0.270339 2.82622e-20)
(1.07931 0.237065 -1.95905e-20)
(1.0742 0.206967 2.51476e-21)
(0.61398 0.388716 -7.3965e-19)
(1.02117 0.611857 7.41224e-20)
(1.09705 0.573122 -1.73115e-19)
(1.08647 0.495137 8.64848e-20)
(1.07362 0.424044 -1.99879e-20)
(1.06491 0.365187 -4.34004e-20)
(1.05978 0.315501 7.25486e-21)
(1.05601 0.273577 5.87348e-21)
(1.0524 0.239301 -8.48448e-21)
(1.05114 0.20823 -2.99294e-20)
(0.598723 0.433796 3.67246e-19)
(0.966293 0.644535 -3.90518e-19)
(1.03524 0.589762 -3.41657e-20)
(1.03091 0.503227 -8.39935e-20)
(1.02619 0.428715 -2.12713e-21)
(1.02418 0.367605 4.17308e-20)
(1.02445 0.316502 1.27799e-20)
(1.02512 0.273769 5.32833e-22)
(1.02591 0.238944 -2.81091e-21)
(1.02907 0.207974 5.08687e-20)
(0.568996 0.470425 2.37034e-19)
(0.899831 0.665422 -5.29268e-20)
(0.968427 0.596953 2.08886e-20)
(0.972528 0.50456 3.33767e-20)
(0.976995 0.427659 1.02036e-20)
(0.982286 0.365224 -3.7663e-20)
(0.988425 0.313444 -2.77363e-20)
(0.994282 0.270354 5.90234e-21)
(1.00052 0.235433 4.86715e-20)
(1.00839 0.206419 -3.73212e-20)
(0.526421 0.495422 8.47408e-20)
(0.825645 0.673755 2.19228e-21)
(0.898113 0.593843 -5.64871e-20)
(0.912513 0.498324 1.9739e-20)
(0.926915 0.420467 8.92259e-20)
(0.939866 0.357755 -2.99564e-20)
(0.952274 0.306001 1.10921e-19)
(0.963916 0.262789 -1.52175e-19)
(0.976126 0.227499 -1.12235e-19)
(0.987856 0.202387 -1.85809e-20)
(0.474196 0.506561 -9.90557e-20)
(0.746342 0.668313 2.47132e-20)
(0.826059 0.580258 -1.48058e-21)
(0.852082 0.484138 -3.46481e-20)
(0.876827 0.406862 -1.52235e-19)
(0.89771 0.345024 1.56829e-19)
(0.916678 0.294239 5.78627e-20)
(0.934256 0.251559 7.62721e-20)
(0.952023 0.21473 2.03485e-19)
(0.964604 0.187039 -4.77388e-20)
(0.416121 0.503191 8.35064e-20)
(0.664845 0.648522 -1.31466e-20)
(0.754123 0.556038 -5.54998e-20)
(0.792545 0.461704 8.37829e-20)
(0.827748 0.386668 1.56974e-19)
(0.856677 0.3269 -3.59078e-19)
(0.882382 0.278136 -5.90668e-20)
(0.905549 0.237716 -1.42418e-19)
(0.926639 0.203766 3.00919e-20)
(0.93902 0.177777 -1.04131e-19)
(0.355478 0.485083 -1.84013e-19)
(0.583904 0.614173 -1.06151e-19)
(0.684168 0.521295 3.241e-19)
(0.735223 0.431077 -1.87897e-19)
(0.780704 0.359915 -2.62152e-19)
(0.817588 0.303351 2.43914e-19)
(0.849952 0.257154 -2.31257e-19)
(0.878523 0.218575 1.10533e-19)
(0.903131 0.186033 -1.33853e-19)
(0.917823 0.161384 2.11005e-19)
(0.295408 0.452718 -9.59513e-20)
(0.506315 0.565653 4.92038e-19)
(0.618012 0.476331 -5.22917e-19)
(0.681444 0.3925 1.97414e-20)
(0.736734 0.326889 1.70761e-19)
(0.781156 0.274955 -1.40951e-20)
(0.819541 0.232824 3.53384e-19)
(0.852534 0.197898 -3.05289e-19)
(0.880156 0.168418 2.18142e-19)
(0.898248 0.145409 -1.46115e-19)
(0.238753 0.407194 -1.5957e-19)
(0.434614 0.503754 8.84957e-20)
(0.557403 0.421704 2.35039e-19)
(0.632498 0.346412 2.67455e-19)
(0.696909 0.287806 -6.14565e-20)
(0.748373 0.241454 2.46203e-19)
(0.792332 0.20385 2.37965e-20)
(0.829344 0.172729 2.45592e-20)
(0.859861 0.146683 -9.27276e-20)
(0.881259 0.126495 -5.508e-21)
(0.18792 0.350162 4.84934e-19)
(0.371054 0.42971 -3.35754e-19)
(0.50401 0.358239 -4.45161e-19)
(0.589563 0.293577 2.58801e-20)
(0.662041 0.243494 -1.2866e-19)
(0.719648 0.204007 1.05708e-19)
(0.768372 0.172063 -3.79058e-19)
(0.808837 0.145622 1.09465e-19)
(0.842139 0.12338 3.07087e-19)
(0.866836 0.105952 -1.48162e-19)
(0.144769 0.283377 7.08137e-20)
(0.317657 0.34533 4.23796e-19)
(0.459444 0.287038 3.02127e-19)
(0.55381 0.234806 -2.80931e-19)
(0.633105 0.19443 1.70675e-19)
(0.695872 0.162634 -7.73143e-20)
(0.748529 0.136963 -4.91895e-20)
(0.791824 0.115779 -2.34763e-20)
(0.827524 0.0979652 -9.60381e-20)
(0.855167 0.0838707 1.74702e-19)
(0.110819 0.208503 -3.33512e-19)
(0.276074 0.252713 -3.85529e-19)
(0.424927 0.209612 -5.4429e-21)
(0.526131 0.171278 2.7005e-19)
(0.610728 0.141683 -5.02822e-20)
(0.67749 0.118402 -5.14485e-20)
(0.733166 0.0996202 7.42899e-20)
(0.778641 0.0841214 -4.03944e-20)
(0.816271 0.0710578 -3.07029e-20)
(0.846349 0.0606367 3.22167e-20)
(0.0873932 0.127587 4.85977e-20)
(0.24761 0.15408 -6.36667e-20)
(0.401396 0.127619 2.73304e-19)
(0.507271 0.104204 -6.65476e-20)
(0.595492 0.0861349 1.228e-19)
(0.66498 0.0719313 -3.29485e-20)
(0.7227 0.0604849 -5.02689e-20)
(0.769652 0.0510444 7.89464e-20)
(0.808625 0.0430672 1.1289e-20)
(0.840454 0.0366553 -2.72478e-20)
(0.497717 0.034977 -6.28425e-20)
(0.587776 0.0289017 2.85176e-20)
(0.658644 0.0241272 -1.49583e-20)
(0.717396 0.0202812 1.75163e-20)
(0.765092 0.0171098 -2.23836e-20)
(0.804754 0.0144259 -1.34381e-20)
(0.837501 0.0122595 5.93123e-24)
(-0.476798 -0.022634 -8.24932e-20)
(-0.448362 -0.028727 5.35485e-20)
(-0.413478 -0.0333982 -2.4269e-21)
(-0.373564 -0.0376743 -1.0495e-20)
(-0.329026 -0.0412303 -1.48212e-20)
(-0.280727 -0.0441148 -1.24842e-20)
(-0.229422 -0.0462993 -1.50009e-20)
(-0.175913 -0.0478218 2.84362e-20)
(-0.12086 -0.0488703 -1.09075e-20)
(-0.0650939 -0.048998 1.57287e-20)
(-0.00926842 -0.048546 -8.83693e-21)
(0.0460583 -0.0476583 -4.65837e-22)
(0.100254 -0.0463793 5.95324e-22)
(0.152932 -0.044776 -2.11618e-21)
(0.203769 -0.0429258 2.30125e-21)
(0.252498 -0.0409011 -4.12522e-21)
(0.298934 -0.0387668 2.90135e-21)
(0.342964 -0.0365803 3.25875e-21)
(0.384542 -0.0343905 -2.10107e-21)
(0.423673 -0.0322383 1.6432e-21)
(0.460409 -0.0301566 -6.13292e-21)
(0.494833 -0.0281711 2.80657e-21)
(0.527044 -0.0262979 4.26641e-21)
(0.557151 -0.024541 -2.64939e-21)
(0.585277 -0.0229004 3.53723e-21)
(0.611551 -0.0213755 -4.16792e-21)
(0.636105 -0.0199644 -1.11516e-21)
(0.659068 -0.0186631 3.16637e-21)
(0.680561 -0.0174655 -5.53309e-21)
(-0.307722 -0.0652237 1.25763e-20)
(-0.281786 -0.0823997 6.89815e-20)
(-0.249092 -0.0968333 -9.35536e-20)
(-0.212008 -0.109831 1.34344e-19)
(-0.170914 -0.120169 -9.7172e-20)
(-0.126656 -0.128557 3.82363e-21)
(-0.0799049 -0.134856 8.91791e-20)
(-0.0317201 -0.139107 -3.18003e-20)
(0.0181958 -0.14129 1.46803e-21)
(0.0691888 -0.141633 -1.99285e-20)
(0.119571 -0.140404 -1.04393e-20)
(0.169133 -0.137822 7.87441e-21)
(0.217509 -0.134068 1.81105e-21)
(0.264336 -0.129357 -6.35596e-22)
(0.309329 -0.123914 2.19923e-21)
(0.352274 -0.117957 -3.94129e-21)
(0.393029 -0.111682 2.22035e-21)
(0.431514 -0.105261 7.21141e-21)
(0.467711 -0.0988395 -8.30626e-21)
(0.501644 -0.092536 3.02933e-21)
(0.533376 -0.0864438 1.43284e-20)
(0.563003 -0.0806335 -1.32612e-20)
(0.590641 -0.0751546 8.93928e-21)
(0.616412 -0.0700322 2.03351e-21)
(0.640432 -0.0652681 -3.51968e-21)
(0.662818 -0.0608546 -9.83528e-21)
(0.683694 -0.0567807 2.59851e-21)
(0.70318 -0.0530319 -1.71844e-20)
(0.721391 -0.0495896 5.50685e-22)
(-0.0330044 -0.102976 -2.42759e-19)
(-0.0105086 -0.127718 9.38885e-20)
(0.0168783 -0.15033 -2.10796e-19)
(0.0488976 -0.169608 3.65759e-19)
(0.0847262 -0.185791 -2.22509e-19)
(0.121794 -0.199198 2.2303e-19)
(0.160645 -0.209415 -2.03957e-19)
(0.200588 -0.216335 7.49549e-20)
(0.241093 -0.21972 -1.71433e-20)
(0.281808 -0.22043 4.51197e-20)
(0.322166 -0.218647 -3.18397e-20)
(0.361703 -0.214611 -2.05968e-20)
(0.400051 -0.208658 -1.12342e-20)
(0.436921 -0.201159 9.52096e-21)
(0.4721 -0.192484 -8.84161e-22)
(0.505446 -0.182989 1.5162e-20)
(0.536877 -0.172997 1.19609e-22)
(0.566366 -0.162788 -1.97119e-20)
(0.59393 -0.152597 6.66173e-21)
(0.619619 -0.14261 -1.31366e-21)
(0.643509 -0.132972 -1.74287e-20)
(0.665693 -0.123787 1.69496e-20)
(0.68628 -0.115129 -2.86841e-20)
(0.705399 -0.107043 4.29961e-21)
(0.723171 -0.09955 3.79927e-20)
(0.739697 -0.0926405 -3.79865e-20)
(0.75507 -0.0862892 1.39569e-20)
(0.769385 -0.0804655 -1.28087e-20)
(0.782736 -0.0751354 3.77667e-20)
(0.277729 -0.123163 9.19008e-21)
(0.298959 -0.157965 -2.78146e-19)
(0.321785 -0.187901 2.41766e-19)
(0.346226 -0.212094 1.44296e-19)
(0.372085 -0.233013 -1.08132e-19)
(0.399264 -0.250372 -1.62178e-19)
(0.427499 -0.263754 1.86229e-20)
(0.456202 -0.272985 9.21309e-20)
(0.484921 -0.278179 -5.69369e-20)
(0.513358 -0.279603 7.89498e-20)
(0.54117 -0.27761 -7.84267e-20)
(0.568069 -0.272612 5.71126e-20)
(0.593849 -0.265076 -1.38057e-20)
(0.618364 -0.255496 -6.3256e-22)
(0.641525 -0.244367 -3.69115e-21)
(0.663287 -0.232158 -4.55677e-21)
(0.683646 -0.2193 1.29985e-20)
(0.702632 -0.206163 -5.51604e-21)
(0.720295 -0.193055 -2.13517e-20)
(0.736704 -0.180219 5.42673e-21)
(0.751934 -0.167841 1.13794e-20)
(0.766065 -0.156052 4.63767e-21)
(0.779178 -0.144939 1.91027e-21)
(0.791352 -0.134554 1.38012e-20)
(0.802684 -0.124926 -3.72463e-20)
(0.813265 -0.11606 3.80528e-22)
(0.823158 -0.107933 1.20899e-20)
(0.832413 -0.100505 -6.18167e-21)
(0.841078 -0.0937253 1.08033e-20)
(0.849203 -0.0875422 1.89983e-20)
(0.568344 -0.130175 1.05932e-19)
(0.58618 -0.170066 2.13758e-21)
(0.607087 -0.203539 -5.22756e-19)
(0.626735 -0.232309 2.23655e-19)
(0.644925 -0.257678 -1.4992e-19)
(0.662667 -0.279073 5.55274e-20)
(0.680368 -0.295605 -3.292e-20)
(0.697562 -0.307051 1.2696e-19)
(0.713843 -0.313698 5.48721e-21)
(0.729144 -0.315924 2.28547e-19)
(0.74347 -0.31415 -6.6673e-20)
(0.756802 -0.308873 -8.51309e-20)
(0.769139 -0.300649 -1.53451e-20)
(0.780523 -0.290046 -6.68665e-21)
(0.79102 -0.277625 -1.0698e-20)
(0.800704 -0.26393 -1.91799e-21)
(0.809662 -0.249457 3.39433e-21)
(0.817987 -0.234639 -1.22827e-21)
(0.825764 -0.21983 -9.26046e-21)
(0.833068 -0.205312 1.02332e-20)
(0.839961 -0.191298 -1.66439e-20)
(0.846497 -0.177937 2.30441e-20)
(0.852716 -0.165329 -8.4926e-21)
(0.858648 -0.153526 3.50139e-21)
(0.864313 -0.142555 2.60969e-20)
(0.869745 -0.132419 -2.24511e-20)
(0.874981 -0.123108 -6.17275e-21)
(0.880038 -0.114595 1.59891e-20)
(0.884915 -0.10683 -2.14112e-20)
(0.889609 -0.0997539 -1.02938e-20)
(0.821959 -0.136505 -2.70161e-20)
(0.835855 -0.174832 -1.33083e-19)
(0.854134 -0.206554 1.25934e-19)
(0.868003 -0.235679 2.6935e-19)
(0.87826 -0.262658 3.88308e-20)
(0.887245 -0.28574 -2.53084e-19)
(0.895495 -0.30389 2.69812e-20)
(0.902327 -0.317122 2.13553e-19)
(0.907258 -0.325532 -5.7168e-19)
(0.910439 -0.329147 1.99532e-19)
(0.912171 -0.32833 -1.0146e-19)
(0.912741 -0.323659 1.98156e-19)
(0.912443 -0.315789 3.23177e-20)
(0.911566 -0.305354 -9.89453e-20)
(0.910351 -0.292946 9.62496e-20)
(0.908989 -0.279135 -3.2364e-20)
(0.907644 -0.264448 -3.36204e-20)
(0.906459 -0.249339 -3.70602e-21)
(0.90554 -0.234178 9.41265e-21)
(0.904954 -0.219261 -8.93881e-21)
(0.904736 -0.204812 1.38123e-20)
(0.904898 -0.190991 -2.38349e-20)
(0.905431 -0.177902 4.23085e-20)
(0.906312 -0.165605 -9.58502e-21)
(0.907504 -0.154125 6.91848e-21)
(0.90896 -0.143462 -2.31763e-20)
(0.910643 -0.133608 -8.63224e-21)
(0.912531 -0.124539 4.48423e-20)
(0.914601 -0.116227 7.94464e-21)
(0.916815 -0.108629 -2.76351e-20)
(1.03825 -0.135913 -2.01857e-19)
(1.0454 -0.169833 3.01866e-20)
(1.05758 -0.197533 3.33579e-19)
(1.064 -0.224941 -3.55525e-19)
(1.06586 -0.251293 1.77708e-19)
(1.06582 -0.274039 1.4013e-19)
(1.06418 -0.292346 9.79763e-20)
(1.06062 -0.306324 -3.25039e-19)
(1.0553 -0.315878 -1.46704e-19)
(1.04833 -0.321045 3.29998e-21)
(1.03974 -0.321981 3.8778e-19)
(1.02987 -0.319023 -1.9684e-20)
(1.01924 -0.312793 -2.57735e-19)
(1.0084 -0.30391 8.87494e-20)
(0.997793 -0.292943 1.79183e-21)
(0.987689 -0.280455 3.10338e-20)
(0.978297 -0.266973 8.99023e-21)
(0.969782 -0.252943 -1.58685e-20)
(0.962251 -0.238727 1.74643e-20)
(0.955744 -0.224614 -8.76014e-21)
(0.950254 -0.210835 -4.90038e-21)
(0.945747 -0.197552 -1.31865e-21)
(0.942164 -0.184879 -6.72948e-21)
(0.939428 -0.172882 -9.27262e-22)
(0.937451 -0.161596 3.53535e-21)
(0.936141 -0.151029 -7.9586e-21)
(0.935406 -0.141173 -1.61255e-20)
(0.935156 -0.132014 5.76127e-20)
(0.935316 -0.123536 -5.15121e-20)
(0.935835 -0.115713 3.36661e-20)
(0.936651 -0.108514 1.06321e-20)
(1.20164 -0.122373 1.9075e-19)
(1.20156 -0.151186 -4.69226e-19)
(1.20583 -0.174706 7.89349e-21)
(1.20392 -0.200148 4.14547e-19)
(1.19783 -0.225185 -1.18821e-19)
(1.19012 -0.246839 -2.48067e-19)
(1.18061 -0.264711 5.31807e-20)
(1.16885 -0.279011 8.68201e-20)
(1.15515 -0.289663 -8.04888e-20)
(1.14019 -0.296518 1.30894e-19)
(1.12443 -0.299585 5.51171e-20)
(1.10786 -0.299186 3.34548e-20)
(1.09066 -0.295778 -1.12338e-19)
(1.0735 -0.289755 3.05038e-20)
(1.05694 -0.281548 -1.73424e-21)
(1.04132 -0.271656 -7.57336e-20)
(1.02686 -0.260581 8.79342e-20)
(1.01374 -0.248744 -5.4425e-20)
(1.00207 -0.236486 2.59055e-20)
(0.991869 -0.224091 -1.76794e-20)
(0.983094 -0.21179 1.12611e-20)
(0.975674 -0.199755 -1.67099e-21)
(0.969512 -0.188112 2.88429e-21)
(0.964495 -0.176943 6.74999e-21)
(0.960501 -0.166301 4.37871e-21)
(0.957405 -0.156214 -9.79809e-21)
(0.955086 -0.146692 -6.83107e-21)
(0.953429 -0.137737 1.89745e-20)
(0.952329 -0.129343 -1.25207e-20)
(0.951691 -0.121508 1.17597e-20)
(0.951441 -0.114228 -1.46119e-20)
(0.951511 -0.107484 1.47489e-20)
(1.2946 -0.0988295 1.43229e-20)
(1.29066 -0.121452 2.51182e-19)
(1.28891 -0.141457 2.07995e-19)
(1.28122 -0.165267 -5.85406e-19)
(1.27051 -0.188775 2.03668e-19)
(1.25862 -0.209342 2.07107e-19)
(1.2449 -0.227041 3.42758e-20)
(1.22903 -0.241907 1.07064e-19)
(1.21141 -0.253603 -2.74173e-19)
(1.19261 -0.261979 -1.27472e-19)
(1.17319 -0.267166 2.4837e-19)
(1.1535 -0.269476 -9.24376e-20)
(1.13369 -0.269212 -1.76975e-19)
(1.11412 -0.266565 2.21939e-19)
(1.09528 -0.261766 -1.07884e-19)
(1.07747 -0.255147 4.34744e-20)
(1.0609 -0.247133 7.35423e-20)
(1.04577 -0.238112 -7.87334e-20)
(1.0322 -0.228396 -6.36751e-20)
(1.02024 -0.218261 1.8425e-20)
(1.00981 -0.207944 5.60469e-20)
(1.00085 -0.197631 2.31871e-20)
(0.993246 -0.187463 -2.38697e-20)
(0.986868 -0.177546 -8.34578e-21)
(0.981587 -0.167951 7.03738e-21)
(0.977274 -0.158725 -3.36294e-22)
(0.973802 -0.149899 -3.81598e-21)
(0.971052 -0.14149 5.15082e-21)
(0.96891 -0.133513 -1.06274e-20)
(0.967276 -0.125974 2.31838e-20)
(0.966073 -0.11887 -5.33367e-21)
(0.965238 -0.112195 1.12807e-20)
(1.3289 -0.0761329 -4.18824e-19)
(1.32502 -0.0912855 5.89827e-19)
(1.31969 -0.108051 -8.27846e-20)
(1.30935 -0.129406 -3.05554e-19)
(1.29743 -0.150583 4.18741e-19)
(1.28485 -0.170002 -5.38944e-19)
(1.27077 -0.187772 -1.50054e-19)
(1.25487 -0.203631 -1.11918e-19)
(1.23737 -0.217197 3.68069e-19)
(1.21863 -0.228279 -1.96517e-19)
(1.1991 -0.236828 2.60423e-19)
(1.17921 -0.242938 9.44253e-20)
(1.15943 -0.246633 -1.39311e-19)
(1.14011 -0.247953 -2.05614e-19)
(1.12159 -0.24706 2.34037e-19)
(1.10403 -0.244265 3.51012e-20)
(1.0875 -0.23993 -4.53875e-20)
(1.07216 -0.234297 -6.39007e-20)
(1.05818 -0.227571 1.03089e-19)
(1.04561 -0.219987 -1.09595e-19)
(1.03444 -0.211779 9.17786e-20)
(1.02462 -0.203151 -2.78526e-20)
(1.01605 -0.194282 -4.38599e-20)
(1.00865 -0.185321 -3.28272e-21)
(1.00231 -0.176391 3.56941e-20)
(0.996905 -0.167586 -4.34109e-21)
(0.992341 -0.158979 -9.97979e-21)
(0.988513 -0.150622 -8.37475e-22)
(0.985329 -0.142553 2.49084e-21)
(0.982701 -0.134802 2.63496e-21)
(0.980553 -0.127389 -7.36629e-21)
(0.978817 -0.120335 -2.70066e-21)
(0.977432 -0.113657 1.00672e-20)
(1.32957 -0.0321648 0)
(1.33349 -0.0500392 0)
(1.32596 -0.066889 0)
(1.3133 -0.0835382 0)
(1.29994 -0.0998847 0)
(1.28688 -0.115768 0)
(1.2736 -0.130681 0)
(1.25945 -0.144153 0)
(1.24422 -0.15597 0)
(1.22805 -0.166081 0)
(1.21132 -0.174485 0)
(1.19438 -0.181192 0)
(1.1775 -0.186244 0)
(1.16087 -0.189726 0)
(1.14467 -0.191748 0)
(1.12904 -0.192464 0)
(1.11414 -0.191977 0)
(1.10007 -0.190365 0)
(1.08691 -0.187746 0)
(1.0747 -0.184257 0)
(1.06346 -0.180032 0)
(1.05319 -0.175206 0)
(1.04386 -0.169906 0)
(1.03544 -0.164254 0)
(1.02788 -0.158359 0)
(1.02114 -0.152312 0)
(1.01516 -0.146188 0)
(1.00988 -0.140047 0)
(1.00525 -0.133939 0)
(1.00122 -0.127909 -2.57511e-30)
(0.997714 -0.121998 2.57505e-30)
(0.994687 -0.116248 0)
(0.992082 -0.110694 0)
(1.29403 -0.0257929 0)
(1.30116 -0.0458657 0)
(1.29737 -0.0645978 0)
(1.2871 -0.0818333 0)
(1.27528 -0.097895 0)
(1.26381 -0.112928 0)
(1.25253 -0.12685 0)
(1.24073 -0.139484 0)
(1.22801 -0.150678 0)
(1.21442 -0.160336 0)
(1.20025 -0.168415 0)
(1.18582 -0.174907 0)
(1.17137 -0.179838 0)
(1.15706 -0.183254 0)
(1.14303 -0.185221 0)
(1.12941 -0.185827 0)
(1.11631 -0.185186 0)
(1.1038 -0.183427 0)
(1.09196 -0.180692 0)
(1.08084 -0.177123 0)
(1.07048 -0.172865 0)
(1.06089 -0.168057 0)
(1.05207 -0.162833 0)
(1.04402 -0.157312 0)
(1.0367 -0.151598 0)
(1.03009 -0.145778 0)
(1.02415 -0.139922 0)
(1.01884 -0.134083 0)
(1.01411 -0.128307 0)
(1.00991 -0.122631 1.8962e-28)
(1.00621 -0.117088 -1.8962e-28)
(1.00296 -0.111707 0)
(1.00012 -0.10651 0)
(1.26692 -0.0189314 0)
(1.27379 -0.0346363 0)
(1.27146 -0.0502174 0)
(1.26336 -0.0647387 0)
(1.25357 -0.0780744 0)
(1.2439 -0.0903716 0)
(1.23438 -0.101731 0)
(1.22448 -0.112121 0)
(1.21382 -0.121446 0)
(1.20241 -0.129618 0)
(1.19044 -0.13659 0)
(1.17817 -0.142363 0)
(1.1658 -0.14696 0)
(1.15347 -0.150427 0)
(1.14129 -0.152818 0)
(1.12935 -0.154202 0)
(1.11775 -0.154659 0)
(1.10658 -0.154275 0)
(1.0959 -0.153132 0)
(1.08579 -0.151317 0)
(1.07627 -0.148918 0)
(1.06737 -0.146023 0)
(1.05911 -0.142717 0)
(1.05148 -0.139081 0)
(1.04447 -0.135187 0)
(1.03806 -0.131098 0)
(1.03223 -0.126868 0)
(1.02694 -0.122542 0)
(1.02218 -0.11816 0)
(1.01789 -0.113757 1.14035e-28)
(1.01405 -0.109364 -1.14035e-28)
(1.01063 -0.105012 0)
(1.00758 -0.100729 0)
(1.2429 -0.0131015 0)
(1.24851 -0.0267094 0)
(1.24689 -0.0403628 0)
(1.24045 -0.0532735 0)
(1.23236 -0.0652471 0)
(1.2242 -0.0763558 0)
(1.21611 -0.0866823 0)
(1.20771 -0.0962235 0)
(1.1987 -0.104912 0)
(1.18906 -0.112669 0)
(1.17894 -0.119446 0)
(1.16853 -0.125222 0)
(1.15799 -0.130005 0)
(1.14745 -0.133816 0)
(1.13699 -0.136688 0)
(1.12669 -0.13866 0)
(1.11663 -0.139784 0)
(1.10689 -0.140117 0)
(1.09751 -0.139723 0)
(1.08856 -0.138672 0)
(1.08007 -0.13704 0)
(1.07205 -0.134904 0)
(1.06453 -0.132341 0)
(1.0575 -0.129424 0)
(1.05098 -0.126221 0)
(1.04493 -0.122794 0)
(1.03936 -0.119195 0)
(1.03424 -0.115472 0)
(1.02955 -0.111663 0)
(1.02527 -0.107804 0)
(1.02139 -0.103926 0)
(1.01786 -0.10006 0)
(1.01468 -0.0962318 0)
(1.22077 -0.00923181 0)
(1.22587 -0.0210402 0)
(1.2249 -0.0328578 0)
(1.21975 -0.0441403 0)
(1.2131 -0.0546885 0)
(1.2063 -0.0645055 0)
(1.19953 -0.0736333 0)
(1.1925 -0.0820737 0)
(1.18497 -0.0897856 0)
(1.1769 -0.0967162 0)
(1.16839 -0.102827 0)
(1.15961 -0.108103 0)
(1.15068 -0.112548 0)
(1.14169 -0.116182 0)
(1.13272 -0.119031 0)
(1.12383 -0.121129 0)
(1.11509 -0.122516 0)
(1.10655 -0.123241 0)
(1.09827 -0.123354 0)
(1.09029 -0.122911 0)
(1.08266 -0.121969 0)
(1.07539 -0.120588 0)
(1.0685 -0.118823 0)
(1.062 -0.116733 0)
(1.05591 -0.114369 0)
(1.05021 -0.111779 0)
(1.0449 -0.109005 0)
(1.03998 -0.106086 0)
(1.03542 -0.103054 0)
(1.03122 -0.0999396 0)
(1.02736 -0.096769 0)
(1.02382 -0.0935676 0)
(1.02059 -0.0903586 0)
(1.20177 -0.00634929 0)
(1.20645 -0.0164641 0)
(1.20589 -0.026679 0)
(1.20171 -0.0365105 0)
(1.19621 -0.0457594 0)
(1.19056 -0.0544056 0)
(1.18491 -0.0624754 0)
(1.17903 -0.069974 0)
(1.1727 -0.076876 0)
(1.1659 -0.0831442 0)
(1.15871 -0.088748 0)
(1.15124 -0.0936724 0)
(1.14361 -0.0979167 0)
(1.13589 -0.101491 0)
(1.12815 -0.104412 0)
(1.12043 -0.106703 0)
(1.11279 -0.108391 0)
(1.10529 -0.109509 0)
(1.09797 -0.110093 0)
(1.09087 -0.110182 0)
(1.08403 -0.109818 0)
(1.07746 -0.109045 0)
(1.0712 -0.107908 0)
(1.06525 -0.106451 0)
(1.05961 -0.104718 0)
(1.05431 -0.102749 0)
(1.04932 -0.100582 0)
(1.04465 -0.0982496 0)
(1.04029 -0.0957839 0)
(1.03624 -0.0932118 0)
(1.03248 -0.0905587 0)
(1.02899 -0.0878477 0)
(1.02578 -0.0851003 0)
(1.18576 -0.00390957 0)
(1.18977 -0.01267 0)
(1.18941 -0.0215739 0)
(1.18599 -0.0301815 0)
(1.18143 -0.0383153 0)
(1.17672 -0.0459572 4.68484e-28)
(1.172 -0.0531285 -4.68484e-28)
(1.16705 -0.0598326 0)
(1.16171 -0.0660478 0)
(1.15594 -0.0717419 0)
(1.14982 -0.0768874 0)
(1.14344 -0.0814681 0)
(1.1369 -0.0854794 0)
(1.13025 -0.0889254 0)
(1.12355 -0.0918165 0)
(1.11683 -0.0941681 0)
(1.11016 -0.0959998 0)
(1.10357 -0.0973354 0)
(1.0971 -0.0982021 0)
(1.09079 -0.0986304 0)
(1.08466 -0.0986533 0)
(1.07875 -0.0983055 0)
(1.07306 -0.0976233 0)
(1.06762 -0.0966429 0)
(1.06244 -0.0954001 0)
(1.05751 -0.093929 0)
(1.05284 -0.0922615 0)
(1.04844 -0.0904271 0)
(1.0443 -0.0884522 0)
(1.04041 -0.0863608 0)
(1.03678 -0.0841748 0)
(1.03338 -0.0819146 0)
(1.03022 -0.079599 0)
(1.17179 -0.0020011 0)
(1.17524 -0.00966983 0)
(1.17505 -0.0174511 0)
(1.17225 -0.0249956 0)
(1.16845 -0.0321597 0)
(1.16451 -0.0389264 -7.21736e-28)
(1.16053 -0.0453102 7.21736e-28)
(1.15635 -0.0513108 0)
(1.15182 -0.056907 0)
(1.14691 -0.0620699 0)
(1.14168 -0.0667747 0)
(1.13622 -0.0710061 0)
(1.13059 -0.0747584 0)
(1.12484 -0.0780329 0)
(1.11903 -0.0808363 0)
(1.11318 -0.0831795 0)
(1.10733 -0.085077 0)
(1.10153 -0.0865465 0)
(1.0958 -0.0876087 0)
(1.09018 -0.0882867 0)
(1.08469 -0.088606 0)
(1.07936 -0.0885933 0)
(1.0742 -0.088277 0)
(1.06923 -0.0876857 0)
(1.06446 -0.0868481 0)
(1.05991 -0.0857922 0)
(1.05556 -0.0845446 0)
(1.05143 -0.0831301 0)
(1.04752 -0.0815715 0)
(1.04383 -0.0798895 8.22289e-28)
(1.04034 -0.0781033 -8.22289e-28)
(1.03706 -0.0762309 0)
(1.03399 -0.0742892 0)
(1.15948 -0.000517598 0)
(1.16253 -0.0072353 0)
(1.16247 -0.014051 0)
(1.16017 -0.0206832 0)
(1.15699 -0.0270108 0)
(1.15367 -0.0330157 0)
(1.15031 -0.0387067 0)
(1.14676 -0.0440809 0)
(1.1429 -0.049119 0)
(1.13871 -0.0537954 0)
(1.13423 -0.0580886 0)
(1.12953 -0.0619848 0)
(1.12467 -0.0654778 0)
(1.11969 -0.0685673 0)