/*--------------------------------*- C++ -*----------------------------------*\
  =========                 |
  \\      /  F ield         | OpenFOAM: The Open Source CFD Toolbox
   \\    /   O peration     | Website:  https://openfoam.org
    \\  /    A nd           | Version:  7
     \\/     M anipulation  |
\*---------------------------------------------------------------------------*/
FoamFile
{
    version     2.0;
    format      ascii;
    class       volScalarField;
    location    "20";
    object      p;
}
// * * * * * * * * * * * * * * * * * * * * * * * * * * * * * * * * * * * * * //

dimensions      [0 2 -2 0 0 0 0];

internalField   nonuniform List<scalar> 
3500
(
-0.276026
-0.279734
0.592462
0.556621
0.516908
0.592462
0.556621
0.516908
0.470126
0.424265
0.381125
0.341859
0.306699
0.275631
0.24829
0.575509
0.542653
0.505648
0.460984
0.416771
0.374914
0.336623
0.302208
0.271831
0.245353
0.542196
0.515135
0.483455
0.442955
0.401979
0.362649
0.326283
0.293331
0.264293
0.239454
0.493683
0.47489
0.450979
0.416538
0.380274
0.344634
0.311092
0.280279
0.253147
0.230587
0.431635
0.423139
0.409187
0.382473
0.352227
0.321327
0.291438
0.263369
0.238588
0.218791
0.358076
0.36156
0.359346
0.341708
0.31856
0.293285
0.267772
0.24297
0.220864
0.204169
0.27515
0.292329
0.302945
0.295351
0.280115
0.261173
0.240682
0.219632
0.200363
0.186896
0.185693
0.217602
0.24157
0.244648
0.237873
0.22576
0.210795
0.193893
0.177419
0.167044
0.092947
0.139594
0.176864
0.190896
0.192828
0.187768
0.17866
0.1664
0.152853
0.144927
0.000269734
0.0605429
0.110522
0.135436
0.14606
0.148068
0.144985
0.137896
0.12771
0.1202
-0.0889685
-0.01744
0.0442494
0.0795913
0.0986232
0.107474
0.110191
0.108435
0.102796
0.0942811
-0.171617
-0.0927141
-0.0202764
0.024612
0.0515162
0.0668359
0.0749736
0.0783756
0.0779997
0.0733388
-0.244211
-0.163982
-0.0814824
-0.0283931
0.00566661
0.0269625
0.0400715
0.0481206
0.0527866
0.0527018
-0.306159
-0.227678
-0.138234
-0.0784153
-0.0380876
-0.0114862
0.00605409
0.0179471
0.0265721
0.030589
-0.356924
-0.281532
-0.189837
-0.124456
-0.0790319
-0.0479931
-0.0266245
-0.0116819
-0.000147489
0.00725513
-0.396076
-0.325649
-0.234895
-0.165798
-0.116618
-0.082113
-0.0575521
-0.0401782
-0.0265037
-0.0162952
-0.423828
-0.359988
-0.27234
-0.202234
-0.150659
-0.113454
-0.0864211
-0.0670159
-0.0518219
-0.0393206
-0.441107
-0.384417
-0.302076
-0.233207
-0.180812
-0.142009
-0.113158
-0.0918745
-0.0755962
-0.061614
-0.44927
-0.399055
-0.324338
-0.258576
-0.206796
-0.167464
-0.137562
-0.114907
-0.0975494
-0.0831892
-0.449726
-0.404398
-0.339448
-0.278545
-0.228629
-0.189695
-0.159495
-0.136089
-0.117925
-0.103004
-0.443657
-0.401476
-0.347909
-0.293474
-0.246522
-0.208803
-0.17898
-0.15538
-0.136706
-0.121025
-0.43204
-0.392173
-0.35058
-0.303787
-0.260741
-0.225023
-0.196174
-0.172825
-0.153979
-0.137804
-0.415977
-0.379135
-0.348638
-0.30988
-0.271599
-0.238653
-0.211325
-0.188617
-0.169906
-0.153747
-0.397114
-0.365295
-0.342977
-0.312139
-0.279473
-0.250039
-0.224723
-0.202998
-0.184686
-0.168903
-0.377629
-0.352415
-0.334668
-0.311231
-0.284815
-0.259496
-0.236655
-0.216251
-0.198446
-0.183275
-0.359574
-0.340711
-0.325577
-0.308275
-0.288104
-0.267319
-0.247338
-0.228617
-0.211499
-0.19685
-0.344226
-0.330102
-0.317483
-0.304535
-0.289855
-0.27369
-0.256967
-0.240312
-0.223988
-0.209986
-0.331617
-0.32092
-0.310934
-0.300958
-0.290576
-0.278815
-0.265511
-0.251498
-0.23632
-0.222693
-0.321487
-0.313453
-0.305688
-0.298012
-0.29077
-0.282796
-0.273053
-0.261971
-0.248498
-0.236032
-0.313433
-0.307575
-0.301558
-0.295785
-0.290804
-0.285776
-0.279353
-0.271755
-0.260192
-0.249928
-0.306983
-0.302962
-0.298415
-0.294207
-0.290889
-0.287951
-0.284493
-0.279399
-0.272123
-0.26524
-0.301674
-0.299231
-0.295988
-0.293172
-0.291135
-0.289454
-0.288975
-0.28383
-0.282905
-0.276956
-0.297135
-0.295992
-0.293922
-0.292332
-0.291444
-0.290383
-0.292863
-0.284776
-0.292135
-0.283507
-0.293031
-0.292958
-0.291941
-0.291413
-0.291503
-0.290907
-0.295212
-0.285067
-0.299137
-0.284601
-0.289148
-0.29002
-0.289872
-0.290196
-0.291067
-0.290973
-0.295659
-0.286692
-0.301586
-0.28406
-0.28546
-0.28718
-0.287692
-0.288657
-0.289945
-0.290655
-0.294887
-0.288304
-0.299915
-0.28541
-0.282082
-0.28454
-0.285519
-0.286897
-0.288469
-0.289933
-0.292701
-0.289794
-0.297192
-0.287136
-0.279224
-0.282283
-0.283565
-0.285187
-0.28696
-0.288753
-0.290673
-0.29026
-0.293745
-0.288648
-0.277134
-0.280619
-0.282079
-0.283829
-0.285709
-0.287576
-0.289208
-0.289895
-0.29147
-0.289075
-0.276026
-0.279734
-0.281274
-0.283078
-0.284997
-0.286869
-0.288438
-0.289446
-0.290385
-0.289119
0.227169
0.210593
0.196008
0.183337
0.172141
0.162334
0.153645
0.145984
0.139175
0.133139
0.127759
0.122969
0.11868
0.114835
0.111384
0.108316
0.105587
0.103163
0.101014
0.0991145
0.0974434
0.0959833
0.0947185
0.0936365
0.0927257
0.0919772
0.0913843
0.0909432
0.0906525
0.0905101
0.225026
0.208919
0.194621
0.182194
0.171181
0.161532
0.152965
0.145407
0.138678
0.13271
0.127382
0.122636
0.118385
0.114579
0.111164
0.108113
0.105395
0.102982
0.100842
0.0989513
0.0972878
0.0958343
0.0945749
0.0934975
0.0925908
0.0918458
0.0912554
0.0908153
0.0905238
0.0903805
0.220679
0.205533
0.191835
0.179914
0.169276
0.159945
0.151622
0.144268
0.137698
0.131861
0.126638
0.121979
0.117805
0.114071
0.110715
0.107698
0.105008
0.10262
0.100501
0.0986281
0.0969795
0.0955387
0.0942901
0.0932219
0.0923231
0.0915849
0.0909995
0.0905614
0.0902684
0.0901232
0.214067
0.200412
0.187657
0.176528
0.16646
0.15761
0.149649
0.142596
0.13626
0.130617
0.125546
0.121015
0.116947
0.11331
0.11004
0.107092
0.104444
0.102089
0.0999986
0.098151
0.0965239
0.0951017
0.0938688
0.0928139
0.0919266
0.0911983
0.0906201
0.090185
0.08989
0.0897423
0.205144
0.193523
0.182059
0.172023
0.16273
0.15453
0.147053
0.140403
0.134376
0.128989
0.12412
0.119755
0.11582
0.112298
0.109137
0.106297
0.103709
0.101398
0.0993451
0.097529
0.0959297
0.0945308
0.0933175
0.0922798
0.0914072
0.0906914
0.0901225
0.0896913
0.0893942
0.0892436
0.193926
0.184901
0.1751
0.166482
0.15817
0.150791
0.14391
0.137754
0.132102
0.127025
0.122398
0.118235
0.11446
0.111067
0.108013
0.105282
0.102822
0.100575
0.0985521
0.096775
0.0952071
0.0938345
0.0926452
0.0916282
0.0907725
0.0900711
0.0895132
0.089087
0.0887879
0.0886346
0.180448
0.174555
0.166725
0.159814
0.152678
0.146293
0.140138
0.134586
0.129391
0.124693
0.120361
0.116442
0.112861
0.109628
0.106696
0.104064
0.1017
0.0995846
0.0976601
0.0959047
0.0943622
0.0930284
0.0918665
0.0908677
0.09003
0.0893454
0.0888002
0.0883796
0.0880795
0.0879244
0.164689
0.162498
0.157051
0.152254
0.146541
0.141336
0.13601
0.131137
0.126442
0.122154
0.118138
0.11448
0.111106
0.108044
0.10525
0.102728
0.100445
0.0983977
0.0965674
0.0949407
0.0934672
0.0921361
0.0909691
0.0900002
0.0891925
0.0885257
0.0879911
0.0875776
0.0872788
0.0871237
0.147001
0.148908
0.146075
0.143482
0.13931
0.135388
0.131029
0.126952
0.122873
0.119092
0.115474
0.112146
0.109035
0.106193
0.103576
0.1012
0.0990355
0.0970824
0.0953217
0.0937507
0.0923532
0.0911261
0.0900545
0.089103
0.0882875
0.0876166
0.0870937
0.0866913
0.086397
0.086245
0.126332
0.133231
0.133612
0.134045
0.131888
0.129638
0.126345
0.123151
0.119663
0.116372
0.1131
0.110058
0.107158
0.10449
0.102007
0.0997429
0.0976672
0.0957902
0.0940898
0.0925653
0.0912024
0.090003
0.0889576
0.0880552
0.0872891
0.0866571
0.0861399
0.0857353
0.0854464
0.0853032
0.100166
0.11186
0.117414
0.120032
0.12024
0.119485
0.117764
0.115706
0.113287
0.110819
0.10828
0.105825
0.103436
0.101188
0.0990652
0.0971016
0.0952842
0.0936252
0.0921126
0.0907483
0.0895226
0.0884354
0.0874806
0.0866568
0.0859607
0.085387
0.0849226
0.084564
0.0843171
0.0841926
0.0843247
0.0937368
0.100913
0.10516
0.107404
0.108155
0.107916
0.107039
0.10571
0.104141
0.102405
0.100624
0.0988274
0.0970821
0.0953978
0.0938084
0.0923151
0.0909338
0.0896615
0.0885041
0.087457
0.0865214
0.0856937
0.0849754
0.0843648
0.0838589
0.0834526
0.0831449
0.0829388
0.0828367
0.0712589
0.0799555
0.0871681
0.0921776
0.0956073
0.0975279
0.0984559
0.0985932
0.0982117
0.0974558
0.0964586
0.0953124
0.0940829
0.0928255
0.0915724
0.0903549
0.0891879
0.0880881
0.0870615
0.0861161
0.0852534
0.0844764
0.0837848
0.0831805
0.0826628
0.0822312
0.0818849
0.0816252
0.0814534
0.0813693
0.0598988
0.0683329
0.0755125
0.0809538
0.0850443
0.0878001
0.0896019
0.090579
0.0909917
0.0909523
0.0906111
0.0900451
0.0893379
0.0885389
0.0876941
0.0868336
0.0859823
0.0851576
0.0843724
0.0836366
0.0829566
0.0823373
0.0817818
0.0812925
0.0808705
0.0805167
0.0802324
0.0800195
0.0798792
0.0798108
0.0501144
0.0582939
0.0654364
0.0711486
0.0756542
0.0789897
0.081429
0.083073
0.0841337
0.0847081
0.0849363
0.0848899
0.0846548
0.0842791
0.0838143
0.0832912
0.0827401
0.0821801
0.0816287
0.0810974
0.0805961
0.0801318
0.0797098
0.0793341
0.0790072
0.0787314
0.078509
0.0783422
0.0782323
0.0781785
0.0417137
0.0496103
0.0566618
0.0625111
0.0672912
0.0710323
0.0739403
0.0761011
0.0776829
0.0787706
0.0794859
0.0798957
0.0800812
0.0800898
0.0799737
0.0797646
0.0794952
0.0791863
0.078858
0.0785236
0.0781953
0.0778816
0.0775898
0.0773249
0.0770912
0.076892
0.0767302
0.0766084
0.0765279
0.0764884
0.0344792
0.042094
0.0490041
0.0548862
0.0598328
0.0638528
0.0671071
0.069664
0.0716613
0.073171
0.0742973
0.0751012
0.0756564
0.0760088
0.0762083
0.0762873
0.0762788
0.0762048
0.0760868
0.0759393
0.0757763
0.0756072
0.0754408
0.0752833
0.0751399
0.0750149
0.0749119
0.0748334
0.0747813
0.0747557
0.0282285
0.0355704
0.0423079
0.0481527
0.0531814
0.0573832
0.0608884
0.0637462
0.0660719
0.0679245
0.0693941
0.0705337
0.0714102
0.0720659
0.072548
0.0728879
0.0731183
0.0732613
0.073339
0.0733669
0.0733597
0.0733279
0.0732811
0.0732262
0.0731696
0.0731158
0.0730691
0.0730323
0.0730075
0.0729951
0.0228164
0.029892
0.0364387
0.0422017
0.0472505
0.0515607
0.0552411
0.0583236
0.0609059
0.0630343
0.0647875
0.0662104
0.0673631
0.0682836
0.0690159
0.0695896
0.0700362
0.0703776
0.0706357
0.0708264
0.0709647
0.0710617
0.0711276
0.07117
0.0711956
0.0712097
0.0712166
0.0712195
0.0712205
0.0712207
0.0181242
0.0249387
0.0312839
0.0369366
0.0419617
0.0463258
0.0501219
0.053368
0.0561475
0.0584956
0.0604807
0.0621404
0.0635283
0.0646778
0.0656295
0.0664107
0.0670513
0.0675722
0.067995
0.0683352
0.0686081
0.0688248
0.0689961
0.0691296
0.0692327
0.0693107
0.0693682
0.0694085
0.0694341
0.0694462
0.0140517
0.0206111
0.02675
0.0322741
0.0372444
0.0416226
0.0454883
0.0488495
0.0517776
0.0542983
0.0564712
0.0583269
0.0599132
0.0612591
0.0624016
0.0633654
0.0641784
0.0648605
0.0654322
0.0659087
0.0663049
0.0666321
0.0669008
0.0671191
0.0672943
0.067432
0.0675369
0.0676124
0.0676609
0.0676842
0.0105134
0.0168256
0.0227578
0.0281424
0.0330366
0.0373996
0.0412998
0.0447379
0.0477749
0.0504291
0.0527522
0.0547688
0.0565212
0.0580341
0.0593411
0.0604642
0.0614294
0.0622549
0.0629603
0.0635599
0.0640683
0.0644964
0.0648547
0.0651511
0.0653931
0.0655861
0.065735
0.0658431
0.065913
0.0659468
0.00743643
0.0135108
0.01924
0.0244797
0.0292837
0.0336102
0.0375184
0.0410034
0.0441174
0.046873
0.0493146
0.0514619
0.053352
0.0550059
0.0564537
0.0577149
0.0588133
0.0597655
0.0605899
0.0613
0.0619097
0.0624293
0.0628692
0.0632371
0.0635403
0.0637843
0.0639738
0.064112
0.0642017
0.064245
0.00475845
0.010606
0.0161386
0.0212324
0.0259375
0.0302126
0.0341089
0.0376176
0.0407833
0.0436138
0.0461475
0.0483998
0.0504031
0.0521751
0.0537425
0.0551225
0.0563367
0.0574001
0.0583298
0.0591383
0.0598387
0.0604408
0.0609545
0.0613873
0.0617464
0.0620369
0.0622635
0.0624293
0.0625371
0.0625893
0.00242651
0.00805931
0.0134038
0.0183538
0.0229557
0.0271696
0.0310394
0.0345539
0.0377512
0.0406354
0.0432393
0.0455749
0.0476703
0.0495404
0.0512086
0.0526902
0.0540044
0.0551648
0.056187
0.0570825
0.0578636
0.0585395
0.0591196
0.059611
0.0600205
0.0603532
0.0606136
0.0608045
0.0609288
0.0609891
0.00039546
0.00582648
0.0109928
0.0158035
0.0203011
0.0244477
0.0282809
0.031788
0.0350011
0.0379217
0.0405779
0.0429787
0.0451483
0.0470991
0.0488519
0.0504196
0.0518195
0.0530639
0.0541669
0.055139
0.0559914
0.0567329
0.0573722
0.0579161
0.058371
0.0587418
0.0590325
0.0592462
0.0593855
0.059453
-0.00137315
0.00386965
0.00886878
0.0135464
0.0179413
0.0220174
0.0258073
0.0292971
0.032514
0.0354575
0.0381513
0.0406022
0.0428309
0.0448477
0.0466707
0.048311
0.0497841
0.0511008
0.0522738
0.0533127
0.0542278
0.0550273
0.0557191
0.0563097
0.0568052
0.05721
0.0575281
0.0577622
0.0579149
0.057989
-0.00291204
0.00215648
0.00700009
0.0115521
0.0158475
0.0198527
0.0235952
0.0270608
0.0302726
0.0332284
0.0359481
0.0384367
0.0407118
0.042782
0.0446628
0.046364
0.047899
0.0492775
0.0505109
0.0516078
0.0525778
0.053428
0.0541661
0.0547981
0.0553295
0.0557646
0.056107
0.0563593
0.056524
0.0566039
-0.00424908
0.000659335
0.00535952
0.00979429
0.013995
0.0179303
0.0216236
0.0250608
0.0282609
0.0312208
0.0339572
0.0364734
0.0387846
0.0408975
0.0428256
0.0445773
0.0461644
0.0475955
0.0488806
0.0500276
0.051045
0.0519396
0.0527182
0.0533865
0.0539496
0.0544115
0.0547754
0.0550438
0.0552191
0.0553043
-0.00540789
-0.000645357
0.00392372
0.00825023
0.012362
0.0162301
0.0198743
0.0232804
0.0264645
0.0294225
0.0321683
0.0347041
0.0370427
0.0391894
0.0411559
0.0429493
0.04458
0.0460553
0.0473845
0.0485744
0.0496327
0.0505657
0.0513796
0.0520796
0.0526704
0.0531557
0.0535386
0.0538211
0.0540058
0.0540955
-0.00640851
-0.00177768
0.00267268
0.00690035
0.0109299
0.0147345
0.0183308
0.021705
0.0248704
0.0278222
0.0305721
0.0331211
0.03548
0.0376532
0.0396505
0.0414781
0.0431449
0.0446574
0.0460237
0.0472501
0.0483435
0.0493095
0.0501538
0.0508812
0.0514961
0.0520018
0.0524012
0.0526961
0.0528889
0.0529826
-0.00726784
-0.00275469
0.00158933
0.00572781
0.00968229
0.0134281
0.016979
0.0203216
0.0234669
0.0264097
0.0291597
0.0317171
0.0340909
0.0362845
0.0383063
0.0401615
0.041858
0.0434015
0.044799
0.0460562
0.0471793
0.0481734
0.0490438
0.0497947
0.0504303
0.0509536
0.0513672
0.0516729
0.0518727
0.0519699
-0.00800008
-0.00359079
0.000659164
0.00471829
0.00860536
0.0122977
0.0158064
0.0191189
0.0222439
0.0251762
0.0279236
0.0304857
0.0328699
0.035079
0.0371201
0.0389976
0.0407183
0.0422872
0.0437106
0.0449936
0.0461417
0.0471595
0.0480519
0.0488229
0.0494761
0.0500145
0.0504403
0.050755
0.0509609
0.0510611
-0.0086171
-0.00429807
-0.000130045
0.00385961
0.00768721
0.0113318
0.0148024
0.018087
0.0211926
0.0241137
0.0268568
0.0294209
0.0318123
0.034033
0.0360891
0.0379842
0.0397244
0.0413141
0.0427588
0.044063
0.0452318
0.0462695
0.0471803
0.0479681
0.0486361
0.0491872
0.0496232
0.0499457
0.0501567
0.0502593
-0.00912868
-0.00488659
-0.00078851
0.00314158
0.00691788
0.0105209
0.013958
0.0172176
0.0203052
0.0232154
0.0259534
0.0285178
0.0309138
0.033143
0.0352105
0.0371195
0.0388752
0.0404815
0.0419433
0.0432649
0.0444507
0.0455046
0.0464306
0.0472322
0.0479125
0.048474
0.0489186
0.0492475
0.0494627
0.0495674
-0.00954283
-0.00536457
-0.00132461
0.00255582
0.0062891
0.00985701
0.0132655
0.0165035
0.0195753
0.0224755
0.0252082
0.0277719
0.0301708
0.032406
0.0344821
0.0364017
0.0381694
0.0397888
0.0412643
0.0425996
0.0437989
0.0448658
0.045804
0.0466167
0.047307
0.0478769
0.0483284
0.0486625
0.0488812
0.0489875
-0.00986588
-0.0057385
-0.00174501
0.00209554
0.00579412
0.00933362
0.0127188
0.0159391
0.0189977
0.0218893
0.0246171
0.0271795
0.0295801
0.0318195
0.0339018
0.0358293
0.0376061
0.0392354
0.0407213
0.0420672
0.043277
0.0443539
0.0453016
0.046123
0.0468209
0.0473975
0.0478543
0.0481925
0.0484138
0.0485215
-0.0101024
-0.00601321
-0.00205497
0.00175532
0.0054276
0.00894556
0.012313
0.0155197
0.0185681
0.0214529
0.0241767
0.0267378
0.0291392
0.0313814
0.033468
0.0354011
0.0371844
0.0388209
0.0403143
0.0416679
0.0428852
0.0439696
0.0449242
0.0457519
0.0464555
0.0470369
0.0474977
0.0478388
0.0480621
0.0481708
-0.0102549
-0.00619254
-0.00225877
0.00153096
0.00518549
0.00868897
0.0120445
0.0152419
0.0182834
0.0211635
0.0238845
0.0264445
0.0288463
0.0310902
0.0331796
0.0351162
0.0369037
0.0385448
0.0400431
0.0414016
0.042624
0.0437131
0.0446722
0.0455042
0.0462115
0.0467961
0.0472594
0.0476025
0.0478271
0.0479365
-0.0103268
-0.00628047
-0.00235984
0.00141957
0.00506505
0.00856135
0.0119108
0.0151036
0.0181415
0.0210193
0.0237388
0.0262983
0.0287002
0.0309449
0.0330355
0.0349739
0.0367634
0.0384068
0.0399075
0.0412685
0.0424933
0.0435848
0.0445462
0.0453802
0.0460894
0.0466755
0.0471401
0.0474842
0.0477095
0.0478192
0.0852714
0.0742428
0.0628133
0.0522799
0.0429848
0.0348987
0.0278965
0.0218458
0.016623
0.012117
0.00822953
0.00487498
0.00197921
-0.00052152
-0.00268182
-0.00454835
-0.0061609
-0.00755331
-0.00875431
-0.0097882
-0.0106755
-0.0114335
-0.0120766
-0.0126167
-0.0130638
-0.0134256
-0.0137088
-0.0139182
-0.0140555
-0.0141179
0.0659889
0.0557074
0.0466753
0.0382357
0.0306472
0.0239203
0.018018
0.0128783
0.00842274
0.00457044
0.0012452
-0.00162207
-0.00409283
-0.00622092
-0.00805326
-0.00963047
-0.0109876
-0.0121546
-0.0131572
-0.0140172
-0.0147532
-0.0153805
-0.0159125
-0.0163598
-0.0167314
-0.0170343
-0.0172745
-0.0174568
-0.0175829
-0.0176439
0.045064
0.0337236
0.0259895
0.0191735
0.0134582
0.00853328
0.00427885
0.000602669
-0.00257326
-0.00531652
-0.0076856
-0.00973066
-0.0114954
-0.0130175
-0.0143294
-0.0154597
-0.0164327
-0.0172697
-0.0179889
-0.0186061
-0.0191346
-0.0195858
-0.0199695
-0.0202937
-0.0205653
-0.0207895
-0.0209705
-0.0211123
-0.0212183
-0.0212776
0.0249459
0.0144164
0.00791139
0.00208769
-0.00239255
-0.00603164
-0.00900245
-0.0114606
-0.0135154
-0.0152474
-0.0167172
-0.0179692
-0.0190394
-0.0199557
-0.0207416
-0.0214164
-0.0219959
-0.0224938
-0.0229213
-0.0232883
-0.0236029
-0.0238724
-0.0241029
-0.0242995
-0.0244667
-0.024608
-0.0247259
-0.0248233
-0.0249052
-0.0249638
0.00437082
-0.00371936
-0.00798193
-0.0124027
-0.0156586
-0.018261
-0.0202774
-0.0218541
-0.0230958
-0.024084
-0.0248801
-0.0255257
-0.0260524
-0.0264841
-0.0268402
-0.0271357
-0.027382
-0.0275882
-0.0277613
-0.0279072
-0.0280309
-0.0281363
-0.0282271
-0.0283062
-0.0283762
-0.0284394
-0.028497
-0.0285506
-0.0286066
-0.028663
-0.0167113
-0.0221418
-0.0237628
-0.0262442
-0.0278709
-0.0292437
-0.0302659
-0.0310247
-0.0315718
-0.0319569
-0.0322246
-0.0324033
-0.0325099
-0.0325635
-0.0325808
-0.0325732
-0.0325489
-0.0325143
-0.0324741
-0.0324319
-0.0323905
-0.0323522
-0.0323189
-0.0322922
-0.0322736
-0.0322645
-0.0322655
-0.0322769
-0.0323049
-0.0323551
-0.0374873
-0.0404217
-0.0397138
-0.0402779
-0.0401585
-0.0401576
-0.0400595
-0.039919
-0.0397304
-0.0395022
-0.0392519
-0.0389953
-0.0387126
-0.0384229
-0.0381361
-0.0378579
-0.0375923
-0.0373423
-0.0371103
-0.0368977
-0.0367056
-0.0365351
-0.0363866
-0.0362608
-0.0361583
-0.0360797
-0.0360256
-0.0359951
-0.0359924
-0.0360312
-0.0574334
-0.0577339
-0.0551544
-0.0540944
-0.0524633
-0.0511897
-0.0499885
-0.0489264
-0.0479644
-0.0470855
-0.0462808
-0.0455782
-0.0448845
-0.0442423
-0.0436483
-0.0430998
-0.0425956
-0.0421342
-0.0417146
-0.0413359
-0.040997
-0.0406974
-0.0404363
-0.0402132
-0.0400279
-0.0398801
-0.0397704
-0.039697
-0.039661
-0.0396833
-0.0764431
-0.0737261
-0.0697853
-0.067131
-0.0642921
-0.0619309
-0.0597825
-0.0578931
-0.0562078
-0.0547019
-0.053339
-0.0521852
-0.0510638
-0.0500637
-0.0491555
-0.0483313
-0.0475842
-0.0469085
-0.0462995
-0.0457534
-0.045267
-0.0448378
-0.0444637
-0.0441429
-0.0438742
-0.0436565
-0.0434896
-0.0433723
-0.0433019
-0.0433018
-0.094315
-0.0890347
-0.0838187
-0.0795687
-0.0756467
-0.0722787
-0.0692928
-0.0666563
-0.0643119
-0.0622232
-0.0603471
-0.0586739
-0.0571648
-0.0558191
-0.0546065
-0.0535125
-0.0525262
-0.0516384
-0.0508415
-0.0501293
-0.0494963
-0.0489384
-0.0484518
-0.0480337
-0.0476816
-0.0473939
-0.0471693
-0.0470066
-0.0469039
-0.0468751
-0.110925
-0.103865
-0.0971752
-0.0914442
-0.0864225
-0.082138
-0.0783936
-0.0750878
-0.072148
-0.0695288
-0.0671795
-0.0650649
-0.0631815
-0.0615025
-0.0599933
-0.0586352
-0.0574137
-0.0563167
-0.0553339
-0.0544568
-0.0536781
-0.052992
-0.0523934
-0.0518781
-0.0514429
-0.0510849
-0.0508025
-0.0505938
-0.0504575
-0.0504033
-0.126675
-0.118175
-0.1099
-0.102825
-0.0967715
-0.0916393
-0.0871614
-0.0832033
-0.0796903
-0.0765719
-0.0737865
-0.0712861
-0.0690533
-0.0670574
-0.0652639
-0.0636518
-0.0622036
-0.0609044
-0.0597414
-0.0587041
-0.0577836
-0.0569724
-0.0562643
-0.0556541
-0.0551374
-0.0547107
-0.0543716
-0.0541175
-0.0539463
-0.0538705
-0.142015
-0.131989
-0.122048
-0.113662
-0.106677
-0.10079
-0.0956351
-0.0910588
-0.0870044
-0.0834166
-0.0802183
-0.0773507
-0.0747827
-0.0724818
-0.0704141
-0.0685561
-0.0668878
-0.0653917
-0.0640531
-0.0628595
-0.0618004
-0.0608671
-0.0600521
-0.0593491
-0.0587528
-0.0582591
-0.0578648
-0.0575667
-0.0573614
-0.0572631
-0.156907
-0.145415
-0.133907
-0.124331
-0.116498
-0.109861
-0.103981
-0.0987524
-0.0941538
-0.0901022
-0.086491
-0.0832542
-0.0803556
-0.0777579
-0.075424
-0.0733272
-0.0714452
-0.069758
-0.0682489
-0.0669037
-0.0657104
-0.0646588
-0.0637403
-0.0629476
-0.0622747
-0.0617166
-0.0612695
-0.0609297
-0.0606924
-0.0605712
-0.171432
-0.158499
-0.145269
-0.134537
-0.12601
-0.118723
-0.112151
-0.106306
-0.101199
-0.0966934
-0.0926623
-0.0890501
-0.08582
-0.0829259
-0.080326
-0.0779911
-0.0758962
-0.074019
-0.0723405
-0.0708448
-0.0695185
-0.06835
-0.0673296
-0.066449
-0.0657013
-0.0650806
-0.0645827
-0.0642033
-0.0639362
-0.0637929
-0.185343
-0.17135
-0.156591
-0.144836
-0.135641
-0.127577
-0.120202
-0.113729
-0.108123
-0.103152
-0.0986914
-0.0947052
-0.0911467
-0.0879575
-0.085093
-0.0825222
-0.0802171
-0.0781524
-0.0763072
-0.0746639
-0.0732075
-0.071925
-0.0708056
-0.06984
-0.0690203
-0.0683401
-0.0677942
-0.0673782
-0.0670845
-0.0669219
-0.198871
-0.183474
-0.167039
-0.154611
-0.145015
-0.136213
-0.128099
-0.121087
-0.114997
-0.109541
-0.104646
-0.100287
-0.0963959
-0.0929044
-0.08977
-0.0869594
-0.0844405
-0.0821854
-0.0801713
-0.0783789
-0.0767914
-0.0753945
-0.0741763
-0.0731262
-0.0722358
-0.0714975
-0.0709058
-0.0704556
-0.0701384
-0.0699593
-0.212023
-0.195653
-0.177876
-0.164874
-0.154562
-0.144751
-0.135911
-0.128389
-0.121774
-0.11581
-0.110487
-0.105758
-0.101527
-0.0977284
-0.0943227
-0.0912713
-0.0885378
-0.0860919
-0.0839093
-0.0819684
-0.080251
-0.0787413
-0.077426
-0.0762937
-0.0753348
-0.0745414
-0.0739068
-0.073426
-0.0730893
-0.0728979
-0.224457
-0.206295
-0.188051
-0.175134
-0.164028
-0.153303
-0.143908
-0.13585
-0.128639
-0.122154
-0.116396
-0.111269
-0.106672
-0.102549
-0.0988557
-0.0955479
-0.0925857
-0.0899374
-0.0875762
-0.0854785
-0.0836243
-0.0819962
-0.0805796
-0.079362
-0.0783329
-0.0774835
-0.0768066
-0.0762967
-0.0759439
-0.0757443
-0.238222
-0.218464
-0.200108
-0.186417
-0.173934
-0.162395
-0.152418
-0.143658
-0.135778
-0.128746
-0.122501
-0.116921
-0.111917
-0.107437
-0.103426
-0.0998348
-0.0966213
-0.0937512
-0.0911949
-0.0889263
-0.0869234
-0.0851672
-0.0836416
-0.0823327
-0.0812291
-0.0803209
-0.0796006
-0.0790621
-0.0786959
-0.0784943
-0.251719
-0.231993
-0.214349
-0.199286
-0.18552
-0.173129
-0.16222
-0.152521
-0.143843
-0.13611
-0.129216
-0.12305
-0.117528
-0.112586
-0.108161
-0.104201
-0.100659
-0.0974978
-0.0946838
-0.0921882
-0.0899864
-0.0880572
-0.0863826
-0.0849474
-0.0837386
-0.0827455
-0.0819595
-0.0813747
-0.080982
-0.0807714
-0.259188
-0.24182
-0.224877
-0.209257
-0.1949
-0.181957
-0.170392
-0.160033
-0.150759
-0.142468
-0.13505
-0.128401
-0.122442
-0.117102
-0.112316
-0.10803
-0.104195
-0.10077
-0.0977212
-0.0950165
-0.0926298
-0.0905384
-0.0887229
-0.0871668
-0.0858562
-0.0847794
-0.0839273
-0.0832939
-0.0828711
-0.0826462
-0.260405
-0.24516
-0.229345
-0.214177
-0.200025
-0.187113
-0.175437
-0.164901
-0.155419
-0.146898
-0.139238
-0.132352
-0.126164
-0.120605
-0.115613
-0.111134
-0.107122
-0.103535
-0.100338
-0.0974991
-0.0949925
-0.0927946
-0.0908856
-0.0892488
-0.0878697
-0.0867364
-0.0858394
-0.0851729
-0.0847299
-0.0844976
-0.259166
-0.244779
-0.229921
-0.215571
-0.202023
-0.189502
-0.178065
-0.167665
-0.158243
-0.149727
-0.142036
-0.135096
-0.128839
-0.123203
-0.11813
-0.113569
-0.109476
-0.105811
-0.102541
-0.0996344
-0.0970654
-0.0948112
-0.092852
-0.0911711
-0.0897545
-0.0885901
-0.0876683
-0.0869834
-0.0865295
-0.0862945
-0.2583
-0.243958
-0.229645
-0.215964
-0.202996
-0.190908
-0.179781
-0.169596
-0.160312
-0.151877
-0.144227
-0.137299
-0.131033
-0.125373
-0.120267
-0.115668
-0.111534
-0.107827
-0.104515
-0.101569
-0.0989621
-0.0966731
-0.0946826
-0.0929741
-0.0915336
-0.0903494
-0.0894118
-0.0887151
-0.0882539
-0.0880177
-0.258393
-0.243999
-0.23
-0.216732
-0.204154
-0.192385
-0.181497
-0.171483
-0.162311
-0.153942
-0.146324
-0.139402
-0.133125
-0.127442
-0.122304
-0.117668
-0.113494
-0.109748
-0.106397
-0.103413
-0.100771
-0.0984491
-0.0964292
-0.0946946
-0.0932318
-0.092029
-0.0910766
-0.0903687
-0.0899005
-0.0896622
-0.259006
-0.244807
-0.231077
-0.218061
-0.205713
-0.194143
-0.183411
-0.173504
-0.164399
-0.156062
-0.148451
-0.141516
-0.135213
-0.129493
-0.124313
-0.119633
-0.115413
-0.111621
-0.108226
-0.105199
-0.102518
-0.100161
-0.098109
-0.0963462
-0.094859
-0.093636
-0.0926677
-0.0919476
-0.0914715
-0.0912303
-0.259703
-0.245872
-0.232428
-0.219607
-0.20742
-0.19599
-0.185364
-0.175531
-0.166469
-0.158148
-0.150531
-0.143577
-0.137241
-0.131482
-0.126257
-0.12153
-0.117263
-0.113424
-0.109984
-0.106915
-0.104194
-0.101801
-0.0997164
-0.097925
-0.0964133
-0.0951699
-0.0941853
-0.093453
-0.0929686
-0.0927241
-0.260312
-0.246837
-0.233668
-0.221037
-0.209003
-0.197699
-0.18717
-0.177405
-0.168383
-0.160081
-0.152464
-0.145495
-0.139134
-0.133342
-0.12808
-0.123312
-0.119004
-0.115124
-0.111643
-0.108536
-0.10578
-0.103354
-0.10124
-0.0994228
-0.0978886
-0.0966265
-0.095627
-0.0948835
-0.0943915
-0.0941438
-0.26081
-0.247596
-0.23466
-0.222214
-0.210338
-0.199167
-0.188741
-0.17905
-0.170078
-0.161805
-0.1542
-0.147228
-0.140854
-0.135041
-0.129753
-0.124955
-0.120614
-0.116702
-0.113189
-0.110051
-0.107265
-0.104812
-0.102673
-0.100834
-0.0992804
-0.0980023
-0.09699
-0.0962368
-0.0957384
-0.095488
-0.261218
-0.248183
-0.235432
-0.223154
-0.211434
-0.200396
-0.190077
-0.180467
-0.171554
-0.16332
-0.155738
-0.148775
-0.1424
-0.136577
-0.131273
-0.126455
-0.122092
-0.118155
-0.114617
-0.111455
-0.108646
-0.106171
-0.104013
-0.102155
-0.100586
-0.0992951
-0.0982722
-0.0975111
-0.0970073
-0.0967545
-0.261555
-0.248652
-0.236053
-0.223919
-0.212341
-0.20143
-0.191214
-0.181686
-0.172837
-0.164648
-0.157096
-0.150152
-0.143783
-0.13796
-0.132649
-0.127819
-0.123441
-0.119488
-0.115932
-0.112752
-0.109925
-0.107433
-0.105259
-0.103387
-0.101806
-0.100504
-0.0994724
-0.0987047
-0.0981964
-0.0979418
-0.261832
-0.249032
-0.236561
-0.224555
-0.213102
-0.202304
-0.192183
-0.182735
-0.173949
-0.16581
-0.158293
-0.151372
-0.145017
-0.1392
-0.133889
-0.129054
-0.124668
-0.120704
-0.117137
-0.113943
-0.111104
-0.108599
-0.106412
-0.104529
-0.102938
-0.101628
-0.10059
-0.0998167
-0.0993049
-0.0990487
-0.262049
-0.249318
-0.236963
-0.225072
-0.21373
-0.203031
-0.192997
-0.183625
-0.174902
-0.166813
-0.159335
-0.152442
-0.146108
-0.140302
-0.134997
-0.130164
-0.125775
-0.121806
-0.118232
-0.11503
-0.112182
-0.109668
-0.107473
-0.105582
-0.103983
-0.102667
-0.101623
-0.100847
-0.100332
-0.100075
-0.262199
-0.249494
-0.237249
-0.225468
-0.214222
-0.203611
-0.193658
-0.184358
-0.175698
-0.167661
-0.160225
-0.153365
-0.147055
-0.141267
-0.135974
-0.131148
-0.126763
-0.122794
-0.119218
-0.116013
-0.11316
-0.110641
-0.10844
-0.106544
-0.104941
-0.10362
-0.102573
-0.101793
-0.101277
-0.101019
-0.262275
-0.24954
-0.23741
-0.225733
-0.21457
-0.204038
-0.194163
-0.184934
-0.176337
-0.168354
-0.160963
-0.154141
-0.14786
-0.142096
-0.13682
-0.132007
-0.127631
-0.123667
-0.120094
-0.11689
-0.114037
-0.111517
-0.109314
-0.107416
-0.10581
-0.104487
-0.103438
-0.102657
-0.102139
-0.101881
-0.262261
-0.249439
-0.237452
-0.225864
-0.214768
-0.20431
-0.19451
-0.185351
-0.176818
-0.168891
-0.16155
-0.154769
-0.148524
-0.142788
-0.137535
-0.13274
-0.128378
-0.124426
-0.120861
-0.117663
-0.114813
-0.112295
-0.110094
-0.108197
-0.106591
-0.105268
-0.104218
-0.103437
-0.102919
-0.10266
-0.262127
-0.249187
-0.237384
-0.225852
-0.21481
-0.204425
-0.1947
-0.185611
-0.177142
-0.169274
-0.161986
-0.155251
-0.149046
-0.143345
-0.138121
-0.13335
-0.129007
-0.125071
-0.121518
-0.11833
-0.115488
-0.112977
-0.11078
-0.108886
-0.107283
-0.105961
-0.104914
-0.104133
-0.103615
-0.103357
-0.261822
-0.248801
-0.237211
-0.225686
-0.214697
-0.204386
-0.194733
-0.185713
-0.17731
-0.169505
-0.162273
-0.15559
-0.14943
-0.143768
-0.138578
-0.133836
-0.129518
-0.125602
-0.122067
-0.118893
-0.116063
-0.113561
-0.111373
-0.109485
-0.107886
-0.106569
-0.105524
-0.104745
-0.104229
-0.103971
-0.261284
-0.248329
-0.236914
-0.225357
-0.21443
-0.204193
-0.19461
-0.185659
-0.177325
-0.169586
-0.162415
-0.155787
-0.149677
-0.144059
-0.138908
-0.134201
-0.129913
-0.126022
-0.122509
-0.119353
-0.116539
-0.11405
-0.111872
-0.109992
-0.108401
-0.107089
-0.106049
-0.105273
-0.104759
-0.104502
-0.260514
-0.24783
-0.236439
-0.224873
-0.214015
-0.203846
-0.19433
-0.185449
-0.177187
-0.169517
-0.162411
-0.155843
-0.149788
-0.14422
-0.139113
-0.134445
-0.130191
-0.126331
-0.122843
-0.11971
-0.116915
-0.114442
-0.112278
-0.11041
-0.108828
-0.107524
-0.106489
-0.105718
-0.105206
-0.104951
-0.259648
-0.247266
-0.235746
-0.224244
-0.213447
-0.203338
-0.19389
-0.185084
-0.176896
-0.1693
-0.162263
-0.15576
-0.149765
-0.144251
-0.139194
-0.13457
-0.130355
-0.126529
-0.123072
-0.119965
-0.117193
-0.11474
-0.112592
-0.110738
-0.109168
-0.107873
-0.106845
-0.106079
-0.105571
-0.105318
-0.258749
-0.246514
-0.234888
-0.223454
-0.212715
-0.202667
-0.193291
-0.184563
-0.176455
-0.168935
-0.161972
-0.155539
-0.149609
-0.144155
-0.139153
-0.134577
-0.130407
-0.126619
-0.123196
-0.12012
-0.117374
-0.114943
-0.112815
-0.110977
-0.109421
-0.108136
-0.107117
-0.106358
-0.105854
-0.105603
-0.257769
-0.245545
-0.233874
-0.222487
-0.211808
-0.201829
-0.192529
-0.183884
-0.175861
-0.168423
-0.161539
-0.155182
-0.149322
-0.143933
-0.13899
-0.134469
-0.130346
-0.126602
-0.123217
-0.120175
-0.117458
-0.115053
-0.112947