/*--------------------------------*- C++ -*----------------------------------*\
  =========                 |
  \\      /  F ield         | OpenFOAM: The Open Source CFD Toolbox
   \\    /   O peration     | Website:  https://openfoam.org
    \\  /    A nd           | Version:  7
     \\/     M anipulation  |
\*---------------------------------------------------------------------------*/
FoamFile
{
    version     2.0;
    format      ascii;
    class       surfaceScalarField;
    location    "20";
    object      phi;
}
// * * * * * * * * * * * * * * * * * * * * * * * * * * * * * * * * * * * * * //

dimensions      [0 3 -1 0 0 0 0];

internalField   nonuniform List<scalar> 
6855
(
-7.73955e-05
3.26154e-12
-3.756e-11
-0.00061115
7.59779e-13
-0.00149485
-1.68317e-12
-2.95432e-12
-0.00061115
0.00061115
-0.00149485
0.000883699
-0.00241064
0.000915793
-0.0033411
0.000930457
-0.00430234
0.000961236
-0.00530412
0.00100179
-0.00635625
0.00105213
-0.00746567
0.00110942
-0.00863848
0.00117281
0.00124456
-0.00988303
-0.000601871
0.00121302
-0.00147714
0.00175897
-0.00238605
0.0018247
-0.00330991
0.00185433
-0.00426459
0.00191591
-0.00525984
0.00199703
-0.00630549
0.00209777
-0.00740867
0.0022126
-0.0085756
0.00233975
0.00248344
-0.00981448
-0.000583401
0.00179642
-0.00144183
0.0026174
-0.00233692
0.00271979
-0.00324761
0.00276502
-0.00418918
0.00285749
-0.00517133
0.00297918
-0.00620391
0.00313035
-0.00729448
0.00330317
-0.00844928
0.00349455
0.0037099
-0.00967574
-0.00055603
0.00235245
-0.00138918
0.00345055
-0.00226341
0.00359401
-0.00315442
0.00365603
-0.00407645
0.00377952
-0.00503899
0.00394172
-0.00605181
0.00414317
-0.00712302
0.00437438
-0.00825901
0.00463053
0.00491652
-0.00946563
-0.000520797
0.00287325
-0.00131946
0.00424921
-0.00216552
0.00444007
-0.00303033
0.00452084
-0.00392631
0.0046755
-0.00486265
0.00487806
-0.00584897
0.00512949
-0.0068942
0.00541961
-0.00800483
0.00574116
0.00609584
-0.00918416
-0.000479797
0.00335305
-0.00123267
0.00500209
-0.00204361
0.00525102
-0.00287627
0.00535349
-0.00374052
0.00553975
-0.00464493
0.00578247
-0.00559837
0.00608294
-0.00661044
0.00643167
-0.00768836
0.00681908
0.00723994
-0.00883246
-0.000427127
0.00378017
-0.00112751
0.00570248
-0.00189744
0.00602094
-0.00269181
0.00614786
-0.00351764
0.00636558
-0.00438279
0.00664761
-0.00529517
0.00699532
-0.0062658
0.0074023
-0.00730628
0.00785957
0.00834523
-0.00841157
-0.000364328
0.0041445
-0.00100433
0.00634248
-0.00172735
0.00674397
-0.00247826
0.00689877
-0.003261
0.00714832
-0.00408348
0.0074701
-0.0049522
0.00786404
-0.00587617
0.00832627
-0.00687013
0.00885353
0.00940254
-0.00792744
-0.000292371
0.00443687
-0.00086381
0.00691392
-0.00153378
0.00741394
-0.00223587
0.00760085
-0.00296956
0.00788202
-0.00374184
0.00824237
-0.00455631
0.00867852
-0.00541688
0.00918684
-0.00634325
0.00977989
0.0104313
-0.00737201
-0.000211552
0.00464842
-0.000706662
0.00740903
-0.00131729
0.00802457
-0.00196564
0.00824919
-0.00264558
0.00856196
-0.00336387
0.00896067
-0.00412572
0.00944036
-0.00493387
0.00999499
-0.00578928
0.0106353
0.0114325
-0.00679047
-0.000121388
0.00476981
-0.000534057
0.0078217
-0.00107869
0.0085692
-0.00166877
0.00883927
-0.00229072
0.00918392
-0.00294969
0.00961963
-0.00365043
0.0101411
-0.00439573
0.0107403
-0.00518943
0.011429
0.0122069
-0.00596385
-1.58477e-05
0.00478566
-0.000347255
0.0081531
-0.000818222
0.00904017
-0.0013464
0.00936745
-0.0019064
0.00974392
-0.00250134
0.0102146
-0.0031355
0.0107753
-0.00381038
0.0114152
-0.00452109
0.0121397
0.0129616
-0.00527576
7.13846e-05
0.00471427
-0.000145453
0.00836994
-0.00053795
0.00943266
-0.00100026
0.00982976
-0.00149462
0.0102383
-0.00202241
0.0107424
-0.00258767
0.0113405
-0.00319469
0.0120222
-0.00384502
0.0127901
0.0136485
-0.00453192
0.000164932
0.00454934
7.00947e-05
0.00846478
-0.000242235
0.00974499
-0.000631925
0.0102194
-0.00105733
0.0106637
-0.0015157
0.0112007
-0.00200956
0.0118344
-0.00254446
0.0125571
-0.0031192
0.0133648
0.0142599
-0.00373058
0.000260422
0.00428892
0.000281352
0.00844385
6.81704e-05
0.00995817
-0.000244087
0.0105317
-0.000597021
0.0110166
-0.000983052
0.0115868
-0.00140169
0.012253
-0.00185928
0.0130147
-0.00235433
0.0138599
0.0147885
-0.00288294
0.000352341
0.00393658
0.000502631
0.00829356
0.000400122
0.0100607
0.000164922
0.0107669
-0.000117706
0.0112993
-0.000426785
0.0118958
-0.000766837
0.0125931
-0.00114166
0.0133895
-0.00155466
0.0142729
0.0152303
-0.00199649
0.00043519
0.00350139
0.000723285
0.00800546
0.000737851
0.0100461
0.00059527
0.0109095
0.000390147
0.0115044
0.000152369
0.0121336
-0.000111109
0.0128566
-0.000397732
0.0136761
-0.000720526
0.0145956
0.0155852
-0.00107542
0.000501909
0.00299948
0.000934199
0.00757317
0.00107905
0.00990127
0.00103574
0.0109528
0.000913574
0.0116265
0.000757236
0.01229
0.000576409
0.0130374
0.000370893
0.0138816
0.000144947
0.0148216
0.0158611
-0.000130932
0.000544423
0.00245506
0.00112519
0.00699241
0.00141563
0.00961083
0.00148335
0.0108851
0.00144891
0.011661
0.00137444
0.0123644
0.00127769
0.0131341
0.00116109
0.0139982
0.00102144
0.0149612
0.0160114
0.000871062
0.000555705
0.00189935
0.00128393
0.00626419
0.00173553
0.00915922
0.0019303
0.0106903
0.00199238
0.0115989
0.00200262
0.0123542
0.00199063
0.0131461
0.00196371
0.0140251
0.00192249
0.0150025
0.0160589
0.001875
0.000532735
0.00136662
0.00139648
0.00540044
0.00202312
0.00853259
0.00236481
0.0103486
0.0025373
0.0114264
0.00263782
0.0122537
0.00271198
0.013072
0.00277503
0.0139621
0.0028293
0.0149482
0.0160122
0.00287601
0.000477915
0.000888702
0.00144811
0.00443025
0.00225765
0.00772305
0.00277118
0.00983508
0.0030738
0.0111238
0.00327397
0.0120535
0.00343694
0.012909
0.00358931
0.0138097
0.00373671
0.0148008
0.0158697
0.00387921
0.000398509
0.000490193
0.00141588
0.00341288
0.00241276
0.00672617
0.00312635
0.00912149
0.00358619
0.0106639
0.00390198
0.0117377
0.00415929
0.0126517
0.00440209
0.0135669
0.00464351
0.0145594
0.0156308
0.00488246
0.000306651
0.000183542
0.00129352
0.00242601
0.00246023
0.00555946
0.00339739
0.00818433
0.00404917
0.0100122
0.00450684
0.01128
0.00487146
0.0122871
0.00520701
0.0132314
0.00554394
0.0142225
0.0152932
0.00588151
0.00021772
-3.41775e-05
0.00109732
0.00154641
0.00237269
0.00428408
0.00354073
0.00701629
0.0044246
0.00912829
0.00506338
0.0106413
0.00555903
0.0117914
0.00599835
0.0127921
0.0064302
0.0137906
0.0148628
0.00686062
0.000144019
-0.000178197
0.000860054
0.000830374
0.00213392
0.00301022
0.00350495
0.00564526
0.0046558
0.00797744
0.00552889
0.00976816
0.00619788
0.0111224
0.00675878
0.0122312
0.0072993
0.0132501
0.0143386
0.0078235
8.84878e-05
-0.000266685
0.000622765
0.000296097
0.00176445
0.00186853
0.0032447
0.00416501
0.00466747
0.00655467
0.00583202
0.00860361
0.00673895
0.0102155
0.00746848
0.0115016
0.008124
0.0125946
0.0137044
0.00875816
4.88161e-05
-0.000315501
0.000420054
-7.51409e-05
0.00133521
0.000953381
0.00276125
0.00273897
0.00437672
0.0049392
0.00586802
0.00711232
0.00709382
0.00898969
0.00806421
0.0105312
0.00890343
0.0117553
0.0129833
0.00962455
2.22024e-05
-0.000337703
0.000266412
-0.000319351
0.000932183
0.00028761
0.00214005
0.00153111
0.00376278
0.00331646
0.00550355
0.00537155
0.00711817
0.00737506
0.00843384
0.00921556
0.0095382
0.010651
0.0120349
0.0104866
6.39005e-06
-0.000344093
0.000159535
-0.000472495
0.000610289
-0.000163144
0.00151898
0.000622413
0.0029328
0.00190265
0.00470778
0.00359657
0.00660387
0.00547898
0.00837868
0.00744075
0.00988728
0.00914238
0.0109242
0.010998
-1.73751e-06
-0.000342356
8.98443e-05
-0.000564077
0.000379674
-0.000452974
0.00100315
-1.06146e-06
0.00207974
0.000826059
0.00364015
0.00203616
0.00553446
0.00358466
0.00758603
0.00538918
0.0096785
0.00704991
0.00929395
0.0113087
-5.97931e-06
-0.000336376
4.46872e-05
-0.000614744
0.000221957
-0.000630244
0.000621317
-0.000400422
0.00136058
8.67925e-05
0.00254936
0.000847384
0.00416252
0.00197151
0.00615498
0.00339671
0.00853468
0.00467021
0.00718153
0.0106471
-8.85768e-06
-0.000327519
1.13107e-05
-0.000634912
0.000108284
-0.000727217
0.000347815
-0.000639953
0.000816643
-0.000382036
0.00161217
5.18605e-05
0.00282385
0.000759829
0.00444771
0.00177285
0.00656962
0.0025483
0.00478869
0.00896246
-1.35817e-05
-0.000313937
-2.14896e-05
-0.000627004
1.3323e-05
-0.00076203
0.000136491
-0.000763121
0.000405707
-0.000651252
0.000885271
-0.000427703
0.00169565
-5.05513e-05
0.00284659
0.000621908
0.00442719
0.000967708
0.002597
0.00661887
-2.21248e-05
-0.000291812
-5.88733e-05
-0.000590256
-7.87414e-05
-0.000742162
-4.81563e-05
-0.000793706
7.40565e-05
-0.000773464
0.000321847
-0.000675493
0.000790816
-0.000519521
0.00152755
-0.000114824
0.00253326
-3.80009e-05
0.00100159
0.00412867
-3.40169e-05
-0.000257795
-0.000101183
-0.00052309
-0.000172372
-0.000670973
-0.000220599
-0.000745479
-0.000221007
-0.000773056
-0.000142971
-0.00075353
7.15592e-05
-0.000734051
0.000448636
-0.000491901
0.000980525
-0.00056989
6.90806e-05
0.00191303
-4.7746e-05
-0.000210049
-0.000145252
-0.000425584
-0.000263917
-0.000552307
-0.000381632
-0.000627764
-0.000480673
-0.000674014
-0.000534648
-0.000699555
-0.000545496
-0.000723203
-0.000418029
-0.000619368
-0.000253284
-0.000734634
-0.000343999
0.000159795
-6.10625e-05
-0.000148987
-0.000185656
-0.00030099
-0.000344776
-0.000393188
-0.000519536
-0.000453004
-0.000696781
-0.000496769
-0.00086345
-0.000532885
-0.00102346
-0.000563191
-0.00110026
-0.000542572
-0.00121515
-0.000619747
-0.000449412
-0.00110973
-7.15913e-05
-7.73955e-05
-0.0002166
-0.000155981
-0.000405353
-0.000204435
-0.000621098
-0.00023726
-0.000854675
-0.000263192
-0.00110082
-0.000286739
-0.00135741
-0.000306597
-0.00158794
-0.00031205
-0.00185874
-0.000348947
-0.000298373
-0.00200978
-7.73955e-05
-0.000233377
-0.000437811
-0.000675072
-0.000938264
-0.001225
-0.0015316
-0.00184365
-0.0021926
-0.00249097
-0.0101059
0.000222822
-0.0102767
0.000170848
-0.0104264
0.000149715
-0.0105438
0.000117393
-0.0106443
0.000100462
-0.0107234
7.91306e-05
-0.0107895
6.60718e-05
-0.0108409
5.14442e-05
-0.0108824
4.14655e-05
-0.0109135
3.10913e-05
-0.0109369
2.34297e-05
-0.0109527
1.58329e-05
-0.0109626
9.88911e-06
-0.0109669
4.2639e-06
-0.0109669
-1.0004e-08
-0.010962
-4.8659e-06
-0.0109532
-8.79005e-06
-0.0109408
-1.23804e-05
-0.0109253
-1.55135e-05
-0.0109069
-1.84106e-05
-0.0108859
-2.0993e-05
-0.0108625
-2.33953e-05
-0.010837
-2.55788e-05
-0.0108093
-2.76276e-05
-0.0107798
-2.95257e-05
-0.0107485
-3.13254e-05
-0.0107155
-3.30243e-05
-0.0106808
-3.46668e-05
-0.0106445
-3.62774e-05
-3.79077e-05
-0.01004
0.000448377
-0.0102128
0.000343592
-0.0103644
0.000301289
-0.0104834
0.000236417
-0.0105857
0.000202737
-0.0106666
0.000160102
-0.0107347
0.000134161
-0.0107882
0.000104967
-0.0108319
8.51252e-05
-0.0108652
6.44188e-05
-0.010891
4.916e-05
-0.0109091
3.39922e-05
-0.0109214
2.21458e-05
-0.010928
1.08842e-05
-0.0109301
2.06241e-06
-0.0109277
-7.19473e-06
-0.0109215
-1.50601e-05
-0.0109116
-2.22942e-05
-0.0108985
-2.85568e-05
-0.0108826
-3.43673e-05
-0.010864
-3.95287e-05
-0.0108431
-4.43401e-05
-0.0108199
-4.87078e-05
-0.0107948
-5.2811e-05
-0.0107677
-5.66102e-05
-0.0107388
-6.02149e-05
-0.0107082
-6.36179e-05
-0.0106759
-6.69092e-05
-0.0106421
-7.0135e-05
-7.33971e-05
-0.00990629
0.000678929
-0.0100829
0.000520175
-0.0102385
0.0004569
-0.0103612
0.000359127
-0.0104675
0.000309021
-0.0105525
0.000245077
-0.0106248
0.000206525
-0.0106827
0.000162826
-0.0107308
0.000133297
-0.0107687
0.000102307
-0.0107991
7.95518e-05
-0.010822
5.68477e-05
-0.010839
3.91451e-05
-0.0108503
2.21692e-05
-0.0108568
8.59235e-06
-0.0108595
-4.49449e-06
-0.0108582
-1.63932e-05
-0.0108531
-2.73125e-05
-0.010845
-3.66886e-05
-0.010834
-4.54243e-05
-0.0108203
-5.31644e-05
-0.0108043
-6.03947e-05
-0.010786
-6.69527e-05
-0.0107657
-7.31198e-05
-0.0107435
-7.88276e-05
-0.0107195
-8.42482e-05
-0.0106937
-8.93658e-05
-0.0106663
-9.43182e-05
-0.0106373
-9.91684e-05
-0.000104065
-0.00970293
0.00091623
-0.00988524
0.000702488
-0.0100473
0.000618946
-0.0101761
0.000487907
-0.0102889
0.000421858
-0.0103804
0.000336528
-0.0104595
0.000285672
-0.0105242
0.000227479
-0.0105793
0.000188447
-0.0106242
0.000147198
-0.0106617
0.000117053
-0.0106917
8.68327e-05
-0.0107159
6.33223e-05
-0.0107343
4.05852e-05
-0.0107478
2.21526e-05
-0.0107575
5.13925e-06
-0.0107636
-1.02862e-05
-0.010766
-2.494e-05
-0.0107652
-3.74761e-05
-0.0107614
-4.91538e-05
-0.0107551
-5.94863e-05
-0.0107464
-6.91479e-05
-0.0107354
-7.79088e-05
-0.0107224
-8.61519e-05
-0.0107074
-9.37832e-05
-0.0106906
-0.000101036
-0.0106721
-0.000107885
-0.0106519
-0.000114516
-0.0106301
-0.000121004
-0.000127538
-0.00942975
0.00116183
-0.00961969
0.000892421
-0.00979067
0.000789929
-0.00992802
0.000625253
-0.01005
0.000543879
-0.0101505
0.000437031
-0.0102391
0.000374192
-0.0103131
0.000301475
-0.0103777
0.000253108
-0.0104321
0.000201599
-0.0104792
0.000164148
-0.0105188
0.000126407
-0.0105526
9.71306e-05
-0.0105807
6.86755e-05
-0.010604
4.55089e-05
-0.0106225
2.35667e-05
-0.0106383
5.52141e-06
-0.0106505
-1.27147e-05
-0.0106594
-2.85511e-05
-0.0106654
-4.31429e-05
-0.0106688
-5.61283e-05
-0.0106697
-6.82284e-05
-0.0106684
-7.92059e-05
-0.010665
-8.95547e-05
-0.0106597
-9.91293e-05
-0.0106525
-0.000108234
-0.0106435
-0.000116838
-0.0106329
-0.000125174
-0.0106206
-0.000133314
-0.000141489
-0.00908771
0.00141708
-0.00928698
0.00109169
-0.00946915
0.000972097
-0.00961749
0.000773594
-0.00975135
0.000677736
-0.00986359
0.00054927
-0.00996416
0.000474763
-0.0100501
0.000387453
-0.0101269
0.000329856
-0.0101933
0.000268047
-0.0102525
0.000223323
-0.0103041
0.000178032
-0.01035
0.000142993
-0.0103901
0.000108818
-0.0104257
8.10226e-05
-0.0104566
5.44927e-05
-0.0104831
3.20881e-05
-0.0105071
1.12756e-05
-0.0105286
-7.1193e-06
-0.0105465
-2.51786e-05
-0.0105619
-4.07558e-05
-0.0105748
-5.52955e-05
-0.0105855
-6.85521e-05
-0.010594
-8.10462e-05
-0.0106006
-9.25628e-05
-0.0106052
-0.000103553
-0.0106081
-0.000113954
-0.0106093
-0.000124024
-0.0106088
-0.000133833
-0.000143649
-0.0086788
0.00168432
-0.00888918
0.00130206
-0.00908513
0.00116805
-0.00924702
0.00093548
-0.0093951
0.000825822
-0.00952157
0.000675741
-0.00963656
0.000589747
-0.009737
0.000487897
-0.00982824
0.000421097
-0.00990919
0.000348996
-0.00998284
0.000296974
-0.0100489
0.000244109
-0.0101092
0.000203272
-0.0101637
0.000163345
-0.0102136
0.000130912
-0.010259
9.98967e-05
-0.0103006
7.36635e-05
-0.0103382
4.88668e-05
-0.0103726
2.73427e-05
-0.0104053
7.52164e-06
-0.0104353
-1.08502e-05
-0.0104623
-2.82963e-05
-0.0104871
-4.37181e-05
-0.0105098
-5.83094e-05
-0.0105305
-7.18791e-05
-0.0105493
-8.48076e-05
-0.0105662
-9.70395e-05
-0.0105813
-0.000108869
-0.0105948
-0.000120375
-0.000131827
-0.0082063
0.00196318
-0.00842925
0.00152502
-0.00863964
0.00137843
-0.00881692
0.00111276
-0.00898141
0.000990314
-0.00912489
0.000819223
-0.00925708
0.000721937
-0.00937478
0.00060559
-0.00948319
0.000529508
-0.0095812
0.000447009
-0.0096718
0.00038758
-0.00975472
0.000327024
-0.00983175
0.000280301
-0.00990293
0.000234526
-0.00996941
0.00019739
-0.0100314
0.000161839
-0.0100895
0.000131826
-0.010144
0.000103396
-0.0101954
7.86564e-05
-0.0102433
5.54442e-05
-0.0102889
3.47213e-05
-0.0103324
1.52625e-05
-0.0103742
-1.9436e-06
-0.010413
-1.9448e-05
-0.0104498
-3.50906e-05
-0.0104848
-4.98276e-05
-0.0105179
-6.39166e-05
-0.0105492
-7.76246e-05
-0.0105787
-9.08592e-05
-0.000103921
-0.00767118
0.00226235
-0.00791048
0.00176431
-0.00813852
0.00160648
-0.00833555
0.00130979
-0.00851818
0.00117294
-0.00868085
0.000981887
-0.00883151
0.000872598
-0.00896823
0.00074231
-0.00909541
0.000656687
-0.00921238
0.000563987
-0.00932183
0.000497026
-0.00942362
0.000428811
-0.00951944
0.000376121
-0.00960938
0.000324467
-0.00969454
0.000282557
-0.0097751
0.000242399
-0.00985182
0.000208541
-0.00992491
0.000176487
-0.00999488
0.000148628
-0.0100618
0.000122345
-0.0101259
9.88734e-05
-0.0101875
7.6846e-05
-0.0102464
5.69072e-05
-0.0103037
3.78829e-05
-0.010359
2.02437e-05
-0.0104125
3.66653e-06
-0.0104638
-1.26731e-05
-0.010513
-2.83538e-05
-0.0105606
-4.32818e-05
-5.79409e-05
-0.00710159
0.00257347
-0.00734918
0.00201189
-0.00758798
0.00184528
-0.00779963
0.00152144
-0.00800105
0.00137437
-0.00818397
0.0011648
-0.00835725
0.00104588
-0.0085159
0.000900954
-0.00866563
0.000806423
-0.00880439
0.000702743
-0.00893568
0.000628322
-0.00905876
0.000551886
-0.00917579
0.000493155
-0.00928659
0.000435264
-0.00939252
0.00038849
-0.00949363
0.000343507
-0.00959081
0.000305715
-0.00968418
0.000269862
-0.00977434
0.00023879
-0.00986145
0.000209452
-0.00994592
0.000183345
-0.0100278
0.000158739
-0.0101072
0.000136324
-0.0101844
0.000115054
-0.0102596
9.54151e-05
-0.0103326
7.6679e-05
-0.0104039
5.86367e-05
-0.0104733
4.103e-05
-0.0105407
2.41502e-05
7.9491e-06
-0.0126863
0.00236223
0.0128976
-0.0125904
0.00191595
-0.0125826
0.00183755
-0.0125792
0.00151795
-0.0126099
0.00140513
-0.0126337
0.00118861
-0.0126729
0.00108506
-0.012707
0.000935053
-0.0127471
0.000846503
-0.0127829
0.000738583
-0.0128202
0.000665574
-0.0128538
0.000585512
-0.0128867
0.000526103
-0.0129165
0.000465066
-0.0129448
0.000416724
-0.0129703
0.000368991
-0.0129939
0.000329337
-0.0130151
0.00029108
-0.0130344
0.000258117
-0.0130517
0.000226677
-0.0130671
0.0001988
-0.0130807
0.000172299
-0.0130925
0.00014818
-0.0131027
0.000125226
-0.0131112
0.000103966
-0.0131181
8.35158e-05
-0.0131235
6.40356e-05
-0.0131275
4.50724e-05
-0.0131302
2.6824e-05
8.88086e-06
-0.0129038
0.00219653
0.0130695
-0.0128395
0.0018517
-0.012769
0.00176697
-0.0127508
0.00149975
-0.0127444
0.00139871
-0.0127553
0.00119959
-0.0127725
0.0011022
-0.0127946
0.000957169
-0.01282
0.00087195
-0.0128461
0.00076463
-0.0128732
0.000692692
-0.0128993
0.00061156
-0.012925
0.000551816
-0.012949
0.000489113
-0.012972
0.000439694
-0.0129931
0.000390146
-0.0130129
0.000349089
-0.0130309
0.000309049
-0.0130473
0.000274584
-0.0130621
0.000241474
-0.0130754
0.00021211
-0.0130872
0.000184053
-0.0130975
0.000158528
-0.0131064
0.000134128
-0.0131139
0.000111447
-0.01312
8.95756e-05
-0.0131247
6.87856e-05
-0.0131282
4.85594e-05
-0.0131304
2.89986e-05
9.62244e-06
-0.0130856
0.00204913
0.013233
-0.0130116
0.00177769
-0.0129353
0.00169065
-0.0129028
0.00146725
-0.012875
0.00137095
-0.0128709
0.00119546
-0.0128709
0.00110222
-0.0128811
0.00096738
-0.0128936
0.000884443
-0.0129101
0.000781159
-0.0129276
0.000710125
-0.0129461
0.000630123
-0.0129646
0.000570306
-0.0129829
0.000507358
-0.0130004
0.000457265
-0.0130171
0.000406847
-0.0130329
0.000364795
-0.0130474
0.000323627
-0.0130609
0.000288026
-0.0130731
0.000253708
-0.0130842
0.000223163
-0.013094
0.0001939
-0.0131027
0.000167216
-0.0131102
0.000141637
-0.0131165
0.000117789
-0.0131217
9.47617e-05
-0.0131258
7.28524e-05
-0.0131287
5.15019e-05
-0.0131305
3.07889e-05
1.02211e-05
-0.0132385
0.00191829
0.0133693
-0.013153
0.00169213
-0.0130761
0.00161378
-0.0130317
0.00142292
-0.0129936
0.00133285
-0.0129762
0.00117802
-0.0129637
0.00108971
-0.0129626
0.000966308
-0.0129644
0.000886209
-0.0129718
0.000788607
-0.0129807
0.000718954
-0.012992
0.00064148
-0.0130038
0.000582078
-0.0130164
0.000519953
-0.0130288
0.000469658
-0.0130411
0.000419159
-0.0130528
0.000376538
-0.013064
0.000334827
-0.0130745
0.000298457
-0.0130841
0.00026337
-0.0130929
0.000231956
-0.0131009
0.000201826
-0.0131079
0.000174235
-0.013114
0.000147745
-0.0131192
0.000122972
-0.0131234
9.90287e-05
-0.0131268
7.61999e-05
-0.0131292
5.39153e-05
-0.0131306
3.22443e-05
1.07057e-05
-0.0133627
0.0017981
0.0134828
-0.0132732
0.00160266
-0.0131953
0.0015359
-0.0131422
0.00136976
-0.0130976
0.00128826
-0.01307
0.0011504
-0.0130484
0.00106816
-0.0130376
0.000955483
-0.0130306
0.000879269
-0.0130298
0.000787813
-0.0130312
0.00072035
-0.0130359
0.00064613
-0.0130416
0.000587791
-0.0130488
0.000527191
-0.0130564
0.00047723
-0.0130645
0.000427248
-0.0130725
0.000384504
-0.0130804
0.000342735
-0.0130879
0.000305968
-0.013095
0.000270503
-0.0131016
0.000238532
-0.0131076
0.00020785
-0.013113
0.000179612
-0.0131177
0.000152472
-0.0131217
0.000127006
-0.0131251
0.000102372
-0.0131277
7.88249e-05
-0.0131296
5.58103e-05
-0.0131308
3.33848e-05
1.10867e-05
-0.0134636
0.00168472
0.013577
-0.0133744
0.00151352
-0.0132959
0.00145734
-0.0132372
0.00131111
-0.0131877
0.00123873
-0.0131526
0.00111528
-0.0131242
0.00103978
-0.0131055
0.000936809
-0.0130915
0.000865233
-0.0130836
0.0007799
-0.0130786
0.000715355
-0.0130772
0.000644748
-0.0130775
0.000588093
-0.0130798
0.000529481
-0.0130829
0.000480372
-0.013087
0.000431357
-0.0130915
0.000388923
-0.0130962
0.000347494
-0.0131009
0.000310689
-0.0131056
0.000275185
-0.01311
0.000242961
-0.0131142
0.000212014
-0.013118
0.000183387
-0.0131214
0.000155848
-0.0131243
0.000129915
-0.0131267
0.000104806
-0.0131286
8.0743e-05
-0.01313
5.72008e-05
-0.0131309
3.42222e-05
1.13677e-05
-0.0135463
0.00157667
0.0136543
-0.0134589
0.00142613
-0.0133804
0.00137882
-0.0133187
0.00124943
-0.0132655
0.00118555
-0.013225
0.00107476
-0.0131913
0.00100607
-0.0131665
0.000912
-0.0131467
0.000845399
-0.0131328
0.000766035
-0.0131223
0.000704884
-0.0131157
0.000638083
-0.0131112
0.000583598
-0.013109
0.000527295
-0.0131081
0.000479481
-0.0131085
0.000431783
-0.0131096
0.000390043
-0.0131114
0.000349286
-0.0131135
0.000312775
-0.0131159
0.00027753
-0.0131182
0.000245337
-0.0131206
0.000214386
-0.0131228
0.00018562
-0.0131249
0.000157914
-0.0131267
0.000131733
-0.0131283
0.000106357
-0.0131295
8.19774e-05
-0.0131304
5.81045e-05
-0.0131309
3.47676e-05
1.15518e-05
-0.0136142
0.00147353
0.0137173
-0.013529
0.00134097
-0.0134512
0.001301
-0.0133881
0.00118628
-0.0133324
0.00112992
-0.0132881
0.00103045
-0.0132503
0.000968229
-0.0132207
0.000882434
-0.0131962
0.000820846
-0.0131774
0.000747272
-0.0131623
0.000689761
-0.0131511
0.000626869
-0.0131424
0.000574885
-0.0131362
0.000521128
-0.0131317
0.000474953
-0.0131287
0.00042885
-0.0131268
0.00038813
-0.0131259
0.000348323
-0.0131255
0.000312398
-0.0131256
0.000277673
-0.0131261
0.00024577
-0.0131267
0.000215054
-0.0131275
0.000186378
-0.0131283
0.000158723
-0.0131291
0.000132502
-0.0131298
0.000107058
-0.0131303
8.25555e-05
-0.0131308
5.85412e-05
-0.013131
3.50335e-05
1.16428e-05
-0.0136698
0.00137512
0.0137682
-0.0135871
0.00125829
-0.0135105
0.00122438
-0.0134468
0.0011226
-0.0133897
0.00107282
-0.0133428
0.000983552
-0.0133018
0.0009273
-0.0132686
0.000849206
-0.0132403
0.000792493
-0.0132175
0.000724516
-0.0131985
0.000670724
-0.0131834
0.000611783
-0.013171
0.000562503
-0.0131613
0.000511459
-0.0131536
0.000467177
-0.0131476
0.000422891
-0.0131429
0.000383451
-0.0131394
0.00034483
-0.0131368
0.000309741
-0.0131349
0.000275765
-0.0131335
0.000244383
-0.0131325
0.000214117
-0.0131319
0.000185745
-0.0131315
0.000158339
-0.0131313
0.000132275
-0.0131312
0.00010695
-0.0131311
8.25087e-05
-0.0131311
5.85329e-05
-0.0131311
3.50332e-05
1.16451e-05
-0.0137149
0.00128126
0.0138088
-0.0136348
0.00117823
-0.0135598
0.00114934
-0.0134962
0.00105903
-0.0134384
0.00101499
-0.0133898
0.00093494
-0.0133466
0.000884135
-0.0133106
0.000813194
-0.0132792
0.000761126
-0.0132532
0.000698525
-0.013231
0.000648433
-0.0132126
0.000593426
-0.0131971
0.000546962
-0.0131843
0.00049874
-0.0131737
0.000456528
-0.013165
0.000414232
-0.0131579
0.000376277
-0.0131521
0.000339038
-0.0131473
0.000304994
-0.0131435
0.000271966
-0.0131404
0.000241308
-0.013138
0.000211685
-0.0131361
0.000183808
-0.0131346
0.000156836
-0.0131334
0.000131109
-0.0131325
0.000106078
-0.0131319
8.18715e-05
-0.0131315
5.81042e-05
-0.0131312
3.47812e-05
1.15635e-05
-0.0137512
0.00119174
0.0138407
-0.0136739
0.00110085
-0.0136007
0.00107615
-0.0135376
0.000996011
-0.0134796
0.000956993
-0.01343
0.000885274
-0.0133853
0.00083942
-0.0133472
0.000775101
-0.0133135
0.000727413
-0.0132849
0.000669935
-0.0132599
0.000623462
-0.0132388
0.000572331
-0.0132206
0.000528726
-0.0132052
0.000483385
-0.013192
0.000443365
-0.013181
0.000403182
-0.0131716
0.000366873
-0.0131637
0.000331173
-0.0131571
0.000298349
-0.0131516
0.000266438
-0.0131469
0.00023668
-0.0131431
0.000207871
-0.01314
0.000180661
-0.0131374
0.00015429
-0.0131354
0.000129067
-0.0131338
0.000104492
-0.0131326
8.06811e-05
-0.0131318
5.7281e-05
-0.0131313
3.4293e-05
1.14031e-05
-0.0137802
0.00110634
0.0138656
-0.0137055
0.00102616
-0.0136343
0.00100495
-0.0135721
0.000933859
-0.0135144
0.000899251
-0.0134642
0.000835053
-0.0134184
0.000793697
-0.0133788
0.000735489
-0.0133433
0.000691908
-0.0133127
0.000639282
-0.0132855
0.000596312
-0.0132621
0.000548958
-0.0132416
0.000508213
-0.013224
0.000465769
-0.0132087
0.000428016
-0.0131955
0.000390035
-0.0131841
0.000355491
-0.0131744
0.000321455
-0.0131661
0.000289993
-0.013159
0.000259343
-0.0131529
0.000230636
-0.0131478
0.000202791
-0.0131436
0.000176401
-0.0131401
0.000150781
-0.0131372
0.000126213
-0.013135
0.000102243
-0.0131333
7.89763e-05
-0.0131321
5.60907e-05
-0.0131314
3.35848e-05
1.11693e-05
-0.0138029
0.00102481
0.0138844
-0.0137308
0.000954087
-0.0136617
0.000935826
-0.0136006
0.000872784
-0.0135434
0.000842061
-0.013493
0.000784654
-0.0134467
0.000747387
-0.013406
0.000694807
-0.0133692
0.000655064
-0.0133369
0.000607012
-0.013308
0.00056741
-0.0132828
0.000523711
-0.0132604
0.000485792
-0.0132408
0.000446231
-0.0132236
0.000410785
-0.0132086
0.00037506
-0.0131955
0.000342368
-0.0131841
0.000310093
-0.0131742
0.000280108
-0.0131657
0.000250838
-0.0131584
0.000223311
-0.0131522
0.00019656
-0.0131469
0.000171124
-0.0131425
0.000146389
-0.0131389
0.000122612
-0.0131361
9.93834e-05
-0.0131339
7.67968e-05
-0.0131323
5.45611e-05
-0.0131314
3.26731e-05
1.08677e-05
-0.0138204
0.000946904
0.0138983
-0.0137509
0.000884554
-0.0136839
0.000868785
-0.013624
0.000812919
-0.0135676
0.000785634
-0.0135173
0.000734363
-0.0134707
0.000700816
-0.0134293
0.000653412
-0.0133915
0.000617252
-0.013358
0.000573498
-0.0133277
0.000537117
-0.0133009
0.000496932
-0.0132769
0.000461786
-0.0132558
0.000425067
-0.0132369
0.000391944
-0.0132204
0.000358503
-0.0132057
0.000327725
-0.0131929
0.000297282
-0.0131817
0.000268866
-0.0131719
0.000241072
-0.0131634
0.000214834
-0.0131561
0.000189289
-0.0131499
0.000164925
-0.0131448
0.000141195
-0.0131405
0.00011833
-0.0131371
9.59647e-05
-0.0131344
7.41823e-05
-0.0131326
5.27204e-05
-0.0131315
3.15747e-05
1.05037e-05
-0.0138337
0.000872368
0.0139082
-0.0137666
0.000817444
-0.0137016
0.000803796
-0.013643
0.000754339
-0.0135875
0.000730109
-0.0135375
0.000684386
-0.0134909
0.000654231
-0.0134491
0.000611588
-0.0134106
0.00057877
-0.0133762
0.000539044
-0.0133448
0.000505735
-0.0133168
0.000468917
-0.0132915
0.000436476
-0.0132689
0.000402542
-0.0132487
0.000371737
-0.0132308
0.000340586
-0.0132148
0.000311763
-0.0132008
0.000283204
-0.0131883
0.000256427
-0.0131774
0.000230189
-0.0131679
0.00020533
-0.0131597
0.000181085
-0.0131527
0.000157896
-0.0131468
0.000135274
-0.0131419
0.000113431
-0.013138
9.20385e-05
-0.0131349
7.1172e-05
-0.0131328
5.05961e-05
-0.0131316
3.03059e-05
1.00828e-05
-0.0138434
0.000800948
0.0139148
-0.0137786
0.000752626
-0.0137156
0.000740794
-0.0136583
0.000697073
-0.0136038
0.00067557
-0.0135542
0.000634871
-0.0135078
0.000607819
-0.0134658
0.000569552
-0.0134269
0.000539854
-0.0133917
0.000503901
-0.0133595
0.000473518
-0.0133305
0.000439915
-0.0133041
0.000410102
-0.0132805
0.000378884
-0.0132591
0.000350377
-0.01324
0.000321508
-0.0132229
0.000294665
-0.0132078
0.000268022
-0.0131943
0.00024294
-0.0131824
0.00021832
-0.013172
0.000194916
-0.013163
0.000172051
-0.0131552
0.000150124
-0.0131486
0.000128703
-0.0131432
0.000107977
-0.0131388
8.76545e-05
-0.0131354
6.78041e-05
-0.013133
4.82152e-05
-0.0131316
2.8883e-05
9.61052e-06
-0.0138502
0.000732393
0.0139187
-0.0137875
0.000689955
-0.0137264
0.000679688
-0.0136704
0.000641115
-0.0136169
0.000622058
-0.013568
0.000585919
-0.0135219
0.000561711
-0.0134798
0.000527475
-0.0134406
0.000500691
-0.013405
0.000468271
-0.0133722
0.000440671
-0.0133424
0.000410135
-0.0133151
0.00038287
-0.0132905
0.000354292
-0.0132682
0.000328054
-0.0132482
0.000301447
-0.0132301
0.000276594
-0.013214
0.000251888
-0.0131996
0.000228541
-0.0131868
0.000205587
-0.0131756
0.000183699
-0.0131658
0.000162282
-0.0131574
0.000141693
-0.0131503
0.000121551
-0.0131443
0.000102025
-0.0131395
8.28601e-05
-0.0131358
6.41151e-05
-0.0131332
4.56037e-05
-0.0131317
2.73214e-05
9.09186e-06
-0.0138546
0.000666458
0.0139206
-0.013794
0.000629281
-0.0137347
0.000620371
-0.01368
0.000586433
-0.0136275
0.000569581
-0.0135792
0.000537591
-0.0135335
0.000515999
-0.0134915
0.000485482
-0.0134522
0.000461424
-0.0134162
0.000432316
-0.0133829
0.000407365
-0.0133525
0.000379753
-0.0133246
0.000354952
-0.0132993
0.000328936
-0.0132761
0.00030493
-0.0132553
0.000280557
-0.0132364
0.000257696
-0.0132194
0.000234936
-0.0132042
0.000213354
-0.0131907
0.000192102
-0.0131788
0.00017178
-0.0131684
0.000151867
-0.0131594
0.000132679
-0.0131517
0.000113884
-0.0131453
9.56333e-05
-0.0131402
7.77005e-05
-0.0131362
6.01397e-05
-0.0131334
4.27863e-05
-0.0131317
2.56359e-05
8.53178e-06
-0.0138573
0.000602903
0.0139208
-0.0137984
0.000570448
-0.0137408
0.000562724
-0.0136873
0.000532972
-0.0136359
0.000518119
-0.0135882
0.000489917
-0.0135429
0.00047074
-0.0135011
0.000443662
-0.0134618
0.000422162
-0.0134257
0.000396163
-0.0133921
0.000373735
-0.0133612
0.000348911
-0.0133328
0.000326493
-0.0133068
0.000302961
-0.013283
0.000281146
-0.0132614
0.000258974
-0.0132418
0.000238098
-0.0132242
0.000217287
-0.0132083
0.000197489
-0.0131942
0.000177968
-0.0131816
0.000159252
-0.0131707
0.000140887
-0.0131611
0.000123155
-0.013153
0.000105765
-0.0131462
8.88519e-05
-0.0131408
7.22178e-05
-0.0131365
5.59108e-05
-0.0131335
3.97863e-05
-0.0131317
2.38405e-05
7.93496e-06
-0.0138584
0.000541498
0.0139198
-0.0138013
0.000513298
-0.0137452
0.000506618
-0.0136929
0.000480664
-0.0136424
0.000467634
-0.0135954
0.000442901
-0.0135506
0.000425965
-0.013509
0.000402078
-0.0134698
0.000382985
-0.0134336
0.00035991
-0.0133997
0.000339888
-0.0133686
0.000317727
-0.0133397
0.000297614
-0.0133132
0.000276489
-0.0132889
0.000256824
-0.0132667
0.000236817
-0.0132465
0.000217913
-0.0132283