/*--------------------------------*- C++ -*----------------------------------*\
  =========                 |
  \\      /  F ield         | OpenFOAM: The Open Source CFD Toolbox
   \\    /   O peration     | Website:  https://openfoam.org
    \\  /    A nd           | Version:  7
     \\/     M anipulation  |
\*---------------------------------------------------------------------------*/
FoamFile
{
    version     2.0;
    format      ascii;
    class       volScalarField;
    location    "95";
    object      p;
}
// * * * * * * * * * * * * * * * * * * * * * * * * * * * * * * * * * * * * * //

dimensions      [0 2 -2 0 0 0 0];

internalField   nonuniform List<scalar> 
3500
(
-0.233543
-0.235163
-0.23681
-0.23831
-0.239397
-0.239792
-0.239953
-0.237801
-0.229052
-0.232472
-0.233793
-0.235275
-0.23674
-0.238023
-0.238893
-0.238647
-0.239037
-0.235507
-0.23059
-0.233629
-0.23475
-0.236036
-0.237272
-0.238297
-0.2392
-0.237656
-0.239553
-0.233122
-0.232943
-0.235437
-0.236249
-0.23725
-0.238198
-0.23876
-0.240292
-0.236176
-0.241602
-0.230016
-0.235902
-0.237716
-0.238079
-0.238663
-0.239291
-0.239014
-0.241932
-0.233848
-0.243738
-0.227437
-0.239279
-0.240301
-0.240046
-0.240028
-0.240284
-0.239086
-0.242503
-0.231965
-0.245074
-0.225581
-0.242964
-0.243092
-0.242026
-0.241213
-0.240724
-0.23914
-0.24216
-0.230263
-0.243113
-0.226264
-0.24697
-0.24608
-0.244001
-0.242221
-0.240806
-0.238847
-0.240144
-0.23017
-0.236821
-0.226388
-0.251459
-0.249307
-0.24613
-0.24319
-0.240697
-0.238188
-0.236661
-0.229945
-0.228391
-0.221599
-0.256752
-0.253037
-0.248611
-0.244346
-0.24062
-0.236957
-0.232629
-0.226516
-0.21883
-0.211845
-0.263194
-0.257609
-0.251753
-0.245963
-0.240656
-0.235056
-0.228039
-0.21991
-0.208326
-0.198524
-0.271176
-0.2634
-0.255817
-0.248161
-0.240704
-0.232381
-0.222339
-0.211121
-0.197888
-0.185982
-0.281165
-0.270723
-0.260941
-0.251031
-0.240592
-0.228735
-0.215402
-0.201525
-0.186732
-0.173723
-0.293566
-0.279722
-0.267322
-0.254523
-0.239988
-0.223966
-0.207435
-0.191088
-0.175233
-0.161837
-0.308653
-0.29015
-0.27522
-0.258222
-0.238406
-0.21796
-0.19833
-0.180023
-0.163413
-0.149383
-0.32641
-0.301673
-0.284163
-0.261218
-0.235336
-0.210498
-0.188115
-0.16819
-0.150919
-0.136362
-0.345662
-0.314342
-0.292446
-0.262264
-0.230251
-0.201393
-0.176602
-0.155393
-0.137623
-0.122447
-0.364392
-0.327978
-0.298188
-0.260222
-0.222665
-0.190348
-0.163585
-0.141411
-0.123241
-0.107665
-0.380426
-0.340918
-0.300278
-0.254393
-0.212115
-0.177052
-0.148784
-0.125974
-0.107658
-0.0920318
-0.392094
-0.350279
-0.297831
-0.244377
-0.198219
-0.161161
-0.131919
-0.108849
-0.0906875
-0.0755172
-0.398273
-0.353411
-0.28967
-0.229777
-0.18066
-0.142379
-0.112747
-0.089849
-0.0721718
-0.0577333
-0.397985
-0.348393
-0.27492
-0.210166
-0.159172
-0.120471
-0.0911111
-0.0689319
-0.0520221
-0.0381258
-0.390061
-0.334162
-0.253063
-0.185181
-0.133543
-0.0953367
-0.0669832
-0.0461477
-0.0302697
-0.0167101
-0.373111
-0.310203
-0.223776
-0.154613
-0.103743
-0.0670979
-0.0405007
-0.0215315
-0.00671566
0.00543515
-0.345784
-0.276387
-0.186826
-0.118588
-0.0700395
-0.036066
-0.0119073
0.00507586
0.0183974
0.0283091
-0.307146
-0.232841
-0.142299
-0.0776458
-0.0328132
-0.00224525
0.0187501
0.0333473
0.0445641
0.0517076
-0.256968
-0.179605
-0.0912079
-0.032036
0.00777401
0.0339653
0.0511697
0.0627599
0.0711062
0.0748976
-0.195684
-0.116567
-0.034939
0.0175626
0.0511777
0.0721222
0.0849384
0.0927266
0.0971561
0.0968831
-0.123837
-0.0458917
0.0257794
0.0701569
0.096686
0.111711
0.119601
0.122784
0.122216
0.117406
-0.0419101
0.0287749
0.089821
0.124739
0.143464
0.152075
0.154589
0.152657
0.146864
0.138224
0.0466071
0.106166
0.155624
0.180203
0.190588
0.192409
0.189167
0.181941
0.171631
0.163971
0.138587
0.184658
0.221519
0.235303
0.237059
0.231863
0.222641
0.21028
0.196631
0.188557
0.230674
0.262143
0.285808
0.288718
0.281827
0.269626
0.254586
0.237613
0.221057
0.210558
0.319522
0.33639
0.3468
0.33911
0.323814
0.304828
0.284296
0.263202
0.243869
0.230302
0.401899
0.405187
0.402855
0.385184
0.362025
0.336745
0.311222
0.286399
0.26425
0.247478
0.474976
0.466379
0.452386
0.425695
0.395482
0.364611
0.334738
0.306668
0.281863
0.262009
0.536611
0.51779
0.493907
0.459537
0.423342
0.38776
0.354257
0.323461
0.29632
0.273722
0.584776
0.557748
0.52615
0.48576
0.444884
0.405636
0.369327
0.336407
0.307373
0.282512
0.617807
0.585032
0.54815
0.503628
0.459538
0.41778
0.379561
0.345188
0.314828
0.288341
0.512638
0.466918
0.42389
0.384705
0.349597
0.318554
0.291215
-0.236942
-0.236167
-0.235319
-0.234413
-0.233458
-0.232463
-0.231439
-0.230393
-0.229332
-0.228259
-0.227178
-0.22609
-0.224994
-0.223889
-0.222769
-0.22163
-0.220461
-0.219255
-0.217998
-0.216677
-0.215276
-0.213775
-0.212153
-0.210387
-0.20845
-0.206386
-0.204176
-0.201804
-0.19926
-0.235021
-0.234272
-0.233501
-0.232752
-0.232023
-0.231324
-0.230665
-0.230054
-0.229495
-0.228987
-0.228529
-0.228115
-0.227737
-0.227383
-0.227039
-0.226687
-0.226307
-0.225876
-0.225369
-0.22476
-0.224018
-0.22311
-0.222002
-0.220661
-0.219075
-0.217229
-0.2151
-0.21267
-0.209929
-0.233734
-0.232866
-0.232088
-0.231453
-0.230906
-0.23045
-0.230096
-0.229852
-0.229723
-0.229705
-0.229792
-0.22997
-0.230224
-0.230533
-0.230874
-0.231219
-0.231537
-0.231795
-0.231955
-0.231982
-0.231832
-0.231457
-0.230805
-0.229839
-0.228587
-0.226946
-0.224898
-0.222426
-0.219514
-0.233909
-0.231757
-0.231055
-0.230447
-0.230012
-0.229734
-0.229607
-0.229651
-0.229869
-0.230246
-0.230769
-0.231421
-0.232181
-0.233025
-0.233919
-0.23483
-0.235715
-0.236531
-0.23723
-0.237763
-0.238084
-0.238144
-0.237882
-0.23727
-0.236237
-0.234755
-0.232781
-0.230286
-0.227249
-0.223657
-0.231587
-0.231253
-0.230271
-0.229609
-0.229244
-0.229082
-0.229113
-0.229349
-0.22979
-0.230425
-0.23124
-0.232216
-0.233329
-0.234547
-0.235836
-0.237154
-0.238454
-0.239686
-0.240793
-0.241715
-0.242393
-0.242768
-0.24279
-0.242427
-0.241588
-0.240235
-0.238325
-0.235824
-0.232708
-0.22896
-0.228209
-0.229108
-0.228973
-0.228662
-0.228436
-0.228378
-0.228532
-0.2289
-0.229466
-0.230227
-0.231185
-0.232326
-0.233621
-0.235037
-0.236536
-0.238075
-0.239607
-0.241075
-0.242419
-0.243574
-0.244474
-0.245056
-0.245264
-0.245043
-0.24433
-0.24307
-0.241219
-0.238738
-0.235599
-0.231782
-0.225012
-0.225816
-0.226638
-0.226937
-0.226921
-0.227006
-0.227355
-0.22789
-0.228547
-0.229354
-0.230353
-0.231538
-0.232879
-0.234343
-0.235896
-0.237497
-0.239098
-0.240643
-0.242075
-0.243327
-0.244328
-0.245009
-0.245329
-0.245201
-0.244568
-0.243381
-0.241594
-0.239164
-0.236063
-0.232271
-0.22778
-0.222882
-0.222636
-0.223849
-0.224353
-0.224252
-0.224427
-0.225034
-0.225762
-0.226494
-0.227321
-0.228316
-0.229469
-0.230751
-0.232141
-0.233616
-0.235142
-0.236674
-0.23816
-0.239535
-0.240741
-0.241727
-0.242394
-0.242708
-0.242602
-0.242018
-0.240906
-0.239218
-0.236909
-0.233948
-0.230315
-0.226001
-0.221008
-0.218528
-0.218654
-0.220339
-0.220439
-0.219964
-0.220239
-0.221077
-0.221935
-0.222742
-0.223654
-0.224715
-0.225885
-0.227141
-0.228477
-0.229874
-0.2313
-0.232719
-0.234093
-0.235386
-0.236544
-0.237479
-0.238133
-0.23843
-0.238374
-0.237858
-0.236837
-0.235272
-0.233114
-0.230333
-0.226912
-0.222846
-0.218131
-0.211642
-0.213731
-0.215217
-0.214409
-0.213699
-0.214095
-0.214959
-0.215781
-0.216595
-0.217509
-0.218526
-0.21962
-0.220786
-0.22202
-0.223304
-0.224609
-0.225898
-0.227126
-0.228241
-0.229193
-0.229947
-0.230491
-0.230786
-0.230796
-0.230412
-0.229621
-0.228362
-0.22657
-0.224215
-0.221286
-0.217772
-0.213667
-0.208975
-0.200215
-0.206863
-0.207844
-0.206687
-0.205995
-0.206281
-0.207104
-0.208067
-0.209061
-0.210092
-0.211169
-0.2123
-0.213484
-0.214708
-0.215951
-0.217195
-0.218423
-0.219615
-0.22075
-0.221782
-0.222643
-0.223226
-0.223391
-0.223073
-0.222445
-0.221553
-0.220263
-0.218478
-0.216171
-0.213338
-0.209972
-0.206069
-0.201634
-0.182667
-0.191629
-0.194689
-0.194427
-0.193853
-0.194143
-0.195199
-0.196565
-0.197933
-0.199217
-0.200446
-0.201663
-0.202884
-0.204101
-0.205291
-0.206428
-0.207487
-0.208435
-0.209234
-0.209838
-0.210205
-0.210316
-0.210208
-0.20989
-0.209312
-0.208314
-0.206874
-0.205003
-0.202699
-0.199952
-0.196754
-0.193105
-0.189014
-0.166652
-0.176445
-0.180686
-0.181396
-0.181379
-0.182001
-0.18335
-0.185014
-0.186645
-0.188121
-0.189466
-0.190737
-0.191967
-0.193152
-0.194271
-0.195301
-0.196217
-0.196998
-0.197625
-0.198083
-0.198368
-0.198477
-0.198371
-0.197968
-0.197194
-0.196073
-0.194622
-0.192829
-0.190673
-0.188142
-0.185233
-0.181948
-0.178296
-0.152906
-0.16231
-0.167072
-0.168612
-0.169266
-0.170309
-0.171916
-0.173774
-0.175574
-0.17719
-0.178635
-0.179966
-0.181216
-0.18239
-0.183473
-0.184446
-0.185292
-0.185999
-0.186556
-0.18695
-0.187162
-0.18716
-0.186906
-0.186386
-0.185601
-0.184543
-0.183189
-0.181524
-0.179543
-0.177243
-0.174622
-0.171685
-0.16844
-0.140321
-0.149242
-0.154265
-0.156427
-0.157663
-0.159098
-0.160936
-0.162948
-0.164879
-0.166618
-0.168168
-0.169575
-0.170872
-0.172068
-0.173153
-0.174113
-0.174937
-0.175612
-0.176128
-0.176469
-0.176617
-0.176556
-0.176276
-0.175775
-0.175044
-0.174066
-0.172823
-0.171304
-0.169511
-0.167444
-0.165104
-0.162496
-0.159627
-0.128964
-0.13742
-0.142521
-0.145091
-0.146766
-0.148521
-0.150558
-0.152701
-0.154743
-0.156586
-0.158233
-0.159718
-0.161073
-0.162306
-0.163413
-0.164383
-0.165205
-0.165872
-0.166372
-0.166699
-0.166844
-0.1668
-0.16656
-0.166115
-0.165452
-0.164558
-0.163431
-0.162069
-0.160469
-0.158632
-0.156559
-0.154255
-0.151727
-0.118963
-0.126839
-0.13187
-0.134694
-0.136684
-0.138682
-0.140873
-0.143118
-0.145245
-0.147171
-0.148897
-0.150451
-0.151861
-0.153136
-0.154274
-0.155266
-0.156106
-0.156787
-0.157306
-0.157658
-0.157837
-0.157837
-0.157651
-0.15727
-0.156687
-0.155898
-0.154905
-0.153705
-0.152296
-0.150678
-0.148854
-0.146829
-0.144611
-0.110077
-0.117358
-0.122245
-0.125218
-0.127427
-0.129598
-0.131898
-0.134213
-0.136399
-0.138386
-0.140173
-0.141785
-0.143245
-0.144563
-0.145737
-0.146762
-0.147634
-0.148349
-0.148906
-0.149299
-0.149526
-0.149582
-0.149461
-0.14916
-0.148676
-0.148006
-0.14715
-0.146109
-0.144882
-0.143471
-0.141878
-0.140107
-0.138167
-0.102131
-0.10887
-0.113577
-0.116621
-0.118973
-0.121258
-0.123626
-0.125983
-0.128206
-0.130233
-0.132065
-0.133723
-0.135227
-0.136585
-0.137797
-0.13886
-0.139772
-0.140529
-0.141131
-0.141575
-0.141858
-0.141979
-0.141935
-0.141725
-0.141345
-0.140797
-0.140078
-0.139189
-0.138134
-0.136914
-0.135533
-0.133994
-0.132304
-0.0950573
-0.101288
-0.105789
-0.108846
-0.111283
-0.113637
-0.116041
-0.118414
-0.120653
-0.122704
-0.124566
-0.126258
-0.127798
-0.129192
-0.13044
-0.131542
-0.132494
-0.133296
-0.133947
-0.134446
-0.134792
-0.134984
-0.135022
-0.134903
-0.134629
-0.134197
-0.13361
-0.132867
-0.131974
-0.130932
-0.129744
-0.128416
-0.126951
-0.0887617
-0.0945097
-0.0987926
-0.101826
-0.104307
-0.106696
-0.109109
-0.11148
-0.113718
-0.115778
-0.117658
-0.119374
-0.12094
-0.122364
-0.123645
-0.124782
-0.125773
-0.12662
-0.127321
-0.127877
-0.128287
-0.128552
-0.12867
-0.128643
-0.12847
-0.128151
-0.127689
-0.127085
-0.126341
-0.125462
-0.124451
-0.123312
-0.12205
-0.0831387
-0.0884433
-0.0925082
-0.0954951
-0.0979903
-0.100389
-0.102793
-0.105146
-0.107371
-0.109428
-0.111315
-0.113045
-0.114631
-0.116077
-0.117386
-0.118555
-0.119584
-0.120473
-0.121223
-0.121835
-0.122307
-0.122642
-0.122839
-0.122898
-0.122822
-0.12261
-0.122265
-0.121789
-0.121184
-0.120453
-0.119602
-0.118634
-0.117553
-0.0781107
-0.0830139
-0.0868679
-0.0897923
-0.0922809
-0.0946713
-0.0970526
-0.0993776
-0.10158
-0.103624
-0.105509
-0.107246
-0.108843
-0.110308
-0.111638
-0.112835
-0.113898
-0.114827
-0.115623
-0.116286
-0.116818
-0.117219
-0.11749
-0.117632
-0.117646
-0.117534
-0.117297
-0.116938
-0.116459
-0.115864
-0.115158
-0.114343
-0.113425
-0.0736174
-0.078156
-0.0818083
-0.0846609
-0.0871284
-0.0894981
-0.0918474
-0.0941368
-0.0963092
-0.0983348
-0.100211
-0.101947
-0.103551
-0.105027
-0.106376
-0.107596
-0.108688
-0.109653
-0.11049
-0.111202
-0.111789
-0.112252
-0.112591
-0.112809
-0.112907
-0.112886
-0.112748
-0.112497
-0.112134
-0.111662
-0.111085
-0.110408
-0.109634
-0.0696018
-0.0738098
-0.0772719
-0.0800484
-0.0824852
-0.084826
-0.0871374
-0.0893866
-0.091525
-0.0935268
-0.0953893
-0.0971198
-0.0987251
-0.100208
-0.10157
-0.10281
-0.103927
-0.104923
-0.105798
-0.106554
-0.107191
-0.10771
-0.108112
-0.1084
-0.108574
-0.108636
-0.108589
-0.108434
-0.108175
-0.107814
-0.107354
-0.106799
-0.106154
-0.0660131
-0.0699233
-0.0732084
-0.0759078
-0.0783083
-0.0806151
-0.0828855
-0.0850921
-0.087194
-0.0891689
-0.091014
-0.0927351
-0.0943378
-0.0958245
-0.0971955
-0.0984504
-0.0995892
-0.100612
-0.101521
-0.102315
-0.102997
-0.103567
-0.104027
-0.104377
-0.10462
-0.104758
-0.104792
-0.104725
-0.104559
-0.104297
-0.103941
-0.103496
-0.102966
-0.062809
-0.0664521
-0.069574
-0.0721976
-0.0745588
-0.076829
-0.0790569
-0.0812202
-0.0832846
-0.0852308
-0.0870563
-0.0887653
-0.0903623
-0.0918493
-0.0932263
-0.094493
-0.0956493
-0.0966958
-0.097633
-0.0984621
-0.0991839
-0.0997995
-0.10031
-0.100717
-0.101023
-0.101228
-0.101335
-0.101346
-0.101263
-0.10109
-0.100828
-0.100482
-0.100052
-0.0599535
-0.0633578
-0.0663304
-0.0688812
-0.0712019
-0.0734345
-0.0756201
-0.0777407
-0.0797676
-0.0816847
-0.0834891
-0.0851842
-0.0867734
-0.0882582
-0.0896385
-0.0909139
-0.0920845
-0.0931506
-0.0941127
-0.0949719
-0.0957289
-0.0963849
-0.0969411
-0.0973987
-0.0977593
-0.0980246
-0.0981965
-0.0982771
-0.0982686
-0.0981735
-0.0979944
-0.0977341
-0.0973954
-0.0574154
-0.060607
-0.0634439
-0.0659259
-0.0682066
-0.0704019
-0.0725464
-0.0746258
-0.0766164
-0.0785045
-0.0802874
-0.0819676
-0.0835475
-0.0850283
-0.0864097
-0.0876914
-0.0888733
-0.0899557
-0.0909391
-0.0918243
-0.0926122
-0.0933036
-0.0938998
-0.0944019
-0.0948115
-0.0951301
-0.0953595
-0.0955017
-0.0955588
-0.095533
-0.0954268
-0.0952429
-0.0949839
-0.0551677
-0.0581707
-0.0608852
-0.0633033
-0.0655454
-0.0677048
-0.0698102
-0.0718506
-0.0738066
-0.0756667
-0.0774284
-0.0790933
-0.0806631
-0.0821385
-0.0835194
-0.0848053
-0.0859961
-0.0870919
-0.0880933
-0.0890009
-0.0898154
-0.0905377
-0.0911689
-0.0917101
-0.0921627
-0.0925282
-0.0928082
-0.0930046
-0.0931193
-0.0931544
-0.0931123
-0.0929954
-0.0928061
-0.053187
-0.0560239
-0.0586291
-0.0609886
-0.0631942
-0.0653198
-0.0673889
-0.0693929
-0.0713165
-0.0731502
-0.0748915
-0.0765411
-0.0781005
-0.0795699
-0.080949
-0.0822374
-0.083435
-0.0845418
-0.0855582
-0.0864847
-0.0873221
-0.0880711
-0.0887327
-0.0893079
-0.089798
-0.0902044
-0.0905287
-0.0907724
-0.0909376
-0.091026
-0.0910399
-0.0909815
-0.0908531
-0.0906572
-0.0514537
-0.0541452
-0.0566536
-0.0589601
-0.0611322
-0.0632266
-0.0652622
-0.067233
-0.0691269
-0.070936
-0.072658
-0.0742931
-0.0758421
-0.0773051
-0.0786816
-0.0799713
-0.0811739
-0.0822896
-0.0833185
-0.084261
-0.0851179
-0.0858898
-0.0865775
-0.087182
-0.0877046
-0.0881464
-0.088509
-0.0887938
-0.0890027
-0.0891373
-0.0891998
-0.089192
-0.0891164
-0.088975
-0.0499508
-0.0525164
-0.05494
-0.0571994
-0.059341
-0.0614071
-0.0634127
-0.0653536
-0.0672207
-0.0690075
-0.0707118
-0.0723333
-0.0738724
-0.0753289
-0.0767024
-0.0779924
-0.0791988
-0.0803215
-0.0813606
-0.0823165
-0.0831898
-0.083981
-0.084691
-0.0853206
-0.0858709
-0.0863432
-0.0867386
-0.0870587
-0.0873051
-0.0874795
-0.0875836
-0.0876194
-0.087589
-0.0874945
-0.0486638
-0.0511217
-0.0534723
-0.0556904
-0.0578051
-0.0598462
-0.0618253
-0.0637399
-0.0655832
-0.0673502
-0.0690386
-0.0706477
-0.0721776
-0.073628
-0.0749982
-0.076288
-0.077497
-0.0786252
-0.0796726
-0.0806396
-0.0815265
-0.082334
-0.0830627
-0.0837134
-0.0842872
-0.0847852
-0.0852085
-0.0855585
-0.0858367
-0.0860447
-0.0861842
-0.0862571
-0.0862651
-0.0862102
-0.0475807
-0.0499482
-0.0522369
-0.0544198
-0.0565113
-0.0585309
-0.0604872
-0.0623791
-0.064202
-0.0659517
-0.0676262
-0.0692244
-0.0707461
-0.0721908
-0.0735579
-0.074847
-0.0760579
-0.0771903
-0.0782444
-0.0792203
-0.0801184
-0.0809393
-0.0816834
-0.0823517
-0.082945
-0.0834643
-0.0839108
-0.0842857
-0.0845905
-0.0848266
-0.0849956
-0.0850992
-0.0851393
-0.0851175
-0.0466913
-0.0489846
-0.0512224
-0.0533762
-0.0554484
-0.0574501
-0.0593874
-0.0612605
-0.0630663
-0.0648017
-0.0664644
-0.0680534
-0.069568
-0.0710077
-0.0723719
-0.0736602
-0.0748723
-0.0760079
-0.0770672
-0.0780502
-0.0789573
-0.0797889
-0.0805455
-0.081228
-0.0818371
-0.0823737
-0.0828391
-0.0832343
-0.0835606
-0.0838196
-0.0840126
-0.0841413
-0.0842075
-0.0842127
-0.0459876
-0.0482223
-0.0504198
-0.0525504
-0.0546073
-0.0565947
-0.058517
-0.0603751
-0.0621673
-0.0638911
-0.0655445
-0.067126
-0.0686348
-0.0700704
-0.0714322
-0.0727197
-0.0739326
-0.0750706
-0.0761339
-0.0771223
-0.0780363
-0.0788763
-0.0796427
-0.0803362
-0.0809576
-0.0815079
-0.081988
-0.0823991
-0.0827424
-0.0830192
-0.0832311
-0.0833795
-0.0834661
-0.0834925
-0.0454641
-0.0476559
-0.0498238
-0.0519372
-0.0539826
-0.0559592
-0.0578701
-0.0597169
-0.0614988
-0.0632139
-0.0648601
-0.0664359
-0.0679404
-0.0693728
-0.0707327
-0.0720194
-0.0732328
-0.0743726
-0.0754386
-0.0764311
-0.0773502
-0.0781962
-0.0789698
-0.0796715
-0.080302
-0.0808623
-0.0813533
-0.0817761
-0.0821319
-0.082422
-0.0826478
-0.0828108
-0.0829125
-0.0829545
-0.0451118
-0.0472775
-0.0494275
-0.0515309
-0.0535694
-0.0555392
-0.0574426
-0.0592818
-0.0610569
-0.0627661
-0.0644074
-0.0659794
-0.0674808
-0.068911
-0.0702694
-0.0715556
-0.0727692
-0.07391
-0.0749778
-0.0759728
-0.0768951
-0.0777452
-0.0785234
-0.0792304
-0.0798669
-0.0804338
-0.080932
-0.0813625
-0.0817265
-0.0820253
-0.0822603
-0.0824328
-0.0825445
-0.0825969
-0.0449201
-0.0470737
-0.0492176
-0.0513189
-0.0533564
-0.0553245
-0.0572253
-0.0590616
-0.0608338
-0.0625406
-0.06418
-0.0657503
-0.0672505
-0.0686798
-0.0700377
-0.0713237
-0.0725375
-0.0736789
-0.0747477
-0.075744
-0.076668
-0.0775201
-0.0783007
-0.0790104
-0.0796499
-0.08022
-0.0807217
-0.0811561
-0.0815242
-0.0818274
-0.0820669
-0.0822442
-0.0823608
-0.0824183
-0.188028
-0.170302
-0.153424
-0.140802
-0.129344
-0.118733
-0.109563
-0.101528
-0.094309
-0.0878732
-0.0821688
-0.0770806
-0.0725257
-0.068453
-0.0648134
-0.0615594
-0.0586518
-0.0560586
-0.0537519
-0.0517073
-0.049904
-0.0483243
-0.046953
-0.0457773
-0.0447863
-0.0439708
-0.0433236
-0.0428394
-0.0425084
-0.0423221
-0.175363
-0.158863
-0.141977
-0.129987
-0.119763
-0.109884
-0.101224
-0.0938218
-0.0872122
-0.0812747
-0.0760137
-0.0713402
-0.0671573
-0.0634114
-0.0600622
-0.0570675
-0.0543895
-0.0519986
-0.0498696
-0.0479804
-0.0463119
-0.044848
-0.043575
-0.0424811
-0.0415565
-0.0407927
-0.040183
-0.0397225
-0.0394009
-0.0392138
-0.163844
-0.148792
-0.13223
-0.120087
-0.110541
-0.101481
-0.0933128
-0.0863889
-0.0803239
-0.0748643
-0.0700015
-0.0656933
-0.0618477
-0.0584016
-0.0553177
-0.0525601
-0.0500936
-0.0478902
-0.0459264
-0.0441823
-0.0426405
-0.0412862
-0.0401066
-0.0390913
-0.0382311
-0.0375185
-0.0369472
-0.0365125
-0.0362047
-0.0360245
-0.151452
-0.137126
-0.121717
-0.110077
-0.101169
-0.0930324
-0.0855319
-0.0790706
-0.0734864
-0.0684964
-0.0640291
-0.0600643
-0.0565342
-0.053373
-0.0505414
-0.0480082
-0.0457422
-0.043717
-0.041911
-0.040306
-0.0388859
-0.0376375
-0.036549
-0.0356108
-0.0348148
-0.0341538
-0.0336225
-0.0332164
-0.0329266
-0.0327583
-0.13857
-0.125448
-0.111546
-0.100505
-0.0919374
-0.0844682
-0.0776468
-0.0716783
-0.0665369
-0.0619963
-0.0579332
-0.0543153
-0.051096
-0.0482176
-0.0456391
-0.0433309
-0.0412657
-0.03942
-0.0377734
-0.0363093
-0.0350134
-0.0338733
-0.0328787
-0.0320208
-0.0312921
-0.0306865
-0.030199
-0.0298256
-0.0295585
-0.0294069
-0.125168
-0.112971
-0.100462
-0.0903605
-0.0824029
-0.075651
-0.0695812
-0.0641996
-0.0595222
-0.0554152
-0.0517541
-0.0484871
-0.0455761
-0.0429756
-0.0406473
-0.038562
-0.0366956
-0.0350275
-0.0335394
-0.0322159
-0.0310441
-0.0300131
-0.0291133
-0.028337
-0.0276775
-0.0271294
-0.0266884
-0.0263507
-0.0261098
-0.0259781
-0.111061
-0.100196
-0.0893007
-0.0802804
-0.0729615
-0.0668084
-0.0613841
-0.0565803
-0.0523786
-0.0486968
-0.0454315
-0.0425192
-0.0399204
-0.0375992
-0.0355233
-0.0336647
-0.0320008
-0.030514
-0.0291879
-0.0280087
-0.0269647
-0.0260462
-0.0252448
-0.0245536
-0.0239668
-0.0234796
-0.0230884
-0.0227897
-0.0225786
-0.0224697
-0.0964869
-0.0870036
-0.0775952
-0.0696989
-0.0631749
-0.0577262
-0.0529868
-0.0488027
-0.0451176
-0.0418761
-0.0390058
-0.0364477
-0.0341613
-0.0321181
-0.0302945
-0.0286643
-0.0272055
-0.0259021
-0.0247403
-0.0237075
-0.0227934
-0.0219896
-0.0212887
-0.0206848
-0.0201729
-0.0197488
-0.0194096
-0.0191523
-0.0189735
-0.0188882
-0.0813985
-0.0733657
-0.0655567
-0.0589179
-0.0532803
-0.048546
-0.0444485
-0.0408522
-0.0376824
-0.0348892
-0.032419
-0.0302207
-0.028253
-0.0264937
-0.0249294
-0.0235359
-0.0222901
-0.0211774
-0.0201858
-0.0193048
-0.0185256
-0.0178408
-0.0172443
-0.0167313
-0.0162974
-0.0159394
-0.0156548
-0.0154414
-0.015297
-0.0152348
-0.065849
-0.0591889
-0.052907
-0.0475664
-0.0429212
-0.0389997
-0.035605
-0.0326343
-0.0300141
-0.0277001
-0.0256533
-0.0238331
-0.0222021
-0.0207432
-0.0194506
-0.0183031
-0.0172781
-0.0163626
-0.0155466
-0.0148218
-0.014181
-0.0136185
-0.0131293
-0.0127095
-0.0123558
-0.0120657
-0.0118374
-0.0116694
-0.0115601
-0.0115198
-0.0494152
-0.0444727
-0.0396182
-0.0357154
-0.0321359
-0.0290985
-0.0264339
-0.0241072
-0.0220602
-0.0202571
-0.0186661
-0.0172535
-0.0159934
-0.0148712
-0.0138683
-0.0129782
-0.0121823
-0.0114707
-0.010836
-0.0102721
-0.00977372
-0.00933665
-0.00895737
-0.00863304
-0.00836136
-0.00814057
-0.00796974
-0.00784763
-0.00777199
-0.00775762
-0.0316967
-0.0292646
-0.0256472
-0.0232999
-0.0207713
-0.01871
-0.0168576
-0.0152559
-0.0138497
-0.0126131
-0.011521
-0.0105475
-0.009692
-0.0089443
-0.00823857
-0.00761133
-0.00704789
-0.00654266
-0.00609103
-0.0056892
-0.00533404
-0.00502296
-0.00475388
-0.00452512
-0.00433536
-0.00418367
-0.00406998
-0.00399308
-0.00394938
-0.00396505
-0.0128027
-0.013371
-0.0110574
-0.0102824
-0.00892637
-0.00792894
-0.00700012
-0.00620569
-0.0055047
-0.00488112
-0.00432009
-0.00381016
-0.0033572
-0.00295316
-0.00256193
-0.002204
-0.00187801
-0.0015823
-0.00131583
-0.0010776
-0.00086674
-0.000682461
-0.000524137
-0.000391267
-0.000283474
-0.000200742
-0.000143484
-0.000110111
-0.000100778
-0.000139337
0.00704887
0.00386656
0.00434823
0.00352901
0.00339956
0.00314568
0.00299093
0.00288105
0.00282382
0.00281143
0.00283541
0.00288562
0.00294789
0.00301975
0.0031078
0.00320106
0.00329376
0.00338284
0.00346609
0.00354195
0.00360928
0.00366725
0.00371522
0.00375267
0.00377908
0.00379372
0.00379604
0.00378719
0.00376314
0.0037081
0.027716
0.0220623
0.0202584
0.0175562
0.0157041
0.0140972
0.0128403
0.0118473
0.0110684
0.0104567
0.00997372
0.00958792
0.00927406
0.00901789
0.00880978
0.00863884
0.00849582
0.00837446
0.00827009
0.00817914
0.00809884
0.00802697
0.00796173
0.00790162
0.00784526
0.00779135
0.00773916
0.00768877
0.00763397
0.00756789
0.0486712
0.0404043
0.0359871
0.0313762
0.0279192
0.025105
0.022873
0.0210794
0.0196216
0.0184216
0.017421
0.0165755
0.0158529
0.0152312
0.0146933
0.0142259
0.0138178
0.01346
0.0131457
0.0128692
0.0126259
0.0124117
0.0122235
0.0120584
0.0119139
0.011788
0.0116794
0.011587
0.0115041
0.0114323
0.069133
0.0584618
0.0518133
0.0458187
0.0411622
0.0373359
0.0341731
0.03152
0.0292695
0.0273439
0.0256842
0.0242447
0.0229905
0.0218948
0.0209357
0.0200953
0.0193583
0.0187119
0.0181451
0.0176488
0.0172151
0.0168371
0.0165091
0.0162262
0.0159843
0.01578
0.015611
0.0154748
0.015366
0.0152925
0.0891541
0.0776878
0.0698208
0.0628541
0.056986
0.0519005
0.0474799
0.0436327
0.0402824
0.0373637
0.0348189
0.0325982
0.0306593
0.028966
0.0274869
0.0261952
0.0250675
0.0240836
0.023226
0.0224799
0.0218324
0.0212725
0.0207912
0.0203805
0.0200341
0.0197469
0.0195149
0.0193343
0.0192018
0.0191284
0.109985
0.099594
0.0904523
0.0818879
0.0741685
0.0673019
0.0612518
0.0559569
0.0513405
0.0473237
0.0438315
0.040796
0.0381573
0.0358633
0.0338685
0.0321338
0.0306254
0.0293144
0.0281762
0.0271897
0.026337
0.0256032
0.0249757
0.0244439
0.0239993
0.0236349
0.0233453
0.0231255
0.022974
0.0229
0.129138
0.118016
0.106494
0.0958522
0.0864377
0.078222
0.0710812
0.0648846
0.0595104
0.054849
0.050804
0.0472909
0.0442372
0.0415807
0.0392683
0.0372544
0.0355006
0.0339739
0.0326465
0.0314949
0.030499
0.0296421
0.0289102
0.0282918
0.0277771
0.0273586
0.0270299
0.0267862
0.0266258
0.026552
0.143836
0.127914
0.114766
0.103311
0.093419
0.0848994
0.0775376
0.0711532
0.0656028
0.0607692
0.0565535
0.0528719
0.0496526
0.0468348
0.0443665
0.0422038
0.0403091
0.0386505
0.0372008
0.035937
0.0348396
0.0338922
0.0330808
0.032394
0.0318221
0.0313575
0.030994
0.030727
0.0305542
0.0304722
0.155337
0.13717
0.123318
0.111614
0.101481
0.0926919
0.0850618
0.0784181
0.0726153
0.0675346
0.0630781
0.0591635
0.0557206
0.0526899
0.0500205
0.0476691
0.0455986
0.0437774
0.0421785
0.0407789
0.0395589
0.0385021
0.0375942
0.0368235
0.0361802
0.0356563
0.0352454
0.0349429
0.0347451
0.0346479
0.16075
0.144218
0.130414
0.118687
0.108529
0.0996614
0.0919027
0.0850993
0.0791185
0.0738492
0.069199
0.0650903
0.0614566
0.0582411
0.0553949
0.0528761
0.0506486
0.0486814
0.046948
0.0454254
0.0440941
0.0429375
0.0419415
0.041094
0.0403852
0.0398068
0.0393524
0.0390169
0.038796
0.0386864
0.163253
0.148357
0.135327
0.124041
0.114163
0.105443
0.0977286
0.0908992
0.084848
0.0794796
0.074712
0.0704747
0.0667068
0.0633556
0.0603755
0.0577267
0.0553749
0.0532904
0.0514473
0.0498235
0.0483998
0.0471598
0.0460896
0.0451771
0.0444126
0.0437878
0.0432961
0.0429322
0.042692
0.0425727
0.163371
0.150509
0.13867
0.128053
0.118598
0.110162
0.102624
0.0958868
0.0898659
0.084484
0.0796718
0.0753684
0.0715199
0.0680792
0.0650048
0.0622603
0.0598138
0.0576373
0.0557065
0.0540003
0.0525002
0.0511905
0.0500575
0.0490898
0.0482775
0.0476126
0.0470885
0.0467001
0.0464433
0.0463155
0.162534
0.151181
0.140516
0.13074
0.121872
0.11385
0.106598
0.100052
0.0941484
0.0888296
0.0840405
0.0797306
0.0758543
0.0723707
0.0692431
0.066439
0.0639294
0.0616887
0.0596945
0.0579269
0.0563688
0.0550051
0.0538229
0.0528112
0.0519607
0.0512634
0.0507131
0.0503048
0.0500346
0.0499002
0.160743
0.150872
0.141376
0.132479
0.124255
0.116708
0.10981
0.103523
0.0978023
0.0926073
0.087896
0.0836287
0.0797683
0.0762805
0.0731339
0.0703003
0.067754
0.0654723
0.0634349
0.0616235
0.0600225
0.058618
0.0573977
0.0563515
0.0554704
0.0547471
0.0541756
0.0537511
0.05347
0.05333
0.15862
0.149932
0.141454
0.1334
0.125848
0.118824
0.112329
0.106349
0.10086
0.0958363
0.0912474
0.0870642
0.0832579
0.0798006
0.0766667
0.0738319
0.0712746
0.0689746
0.066914
0.0650767
0.0634484
0.0620164
0.0607698
0.059699
0.0587957
0.0580532
0.0574658
0.0570291
0.0567397
0.0565956
0.156144
0.148546
0.141018
0.133762
0.126863
0.120365
0.114291
0.108645
0.10342
0.0985991
0.0941654
0.0900977
0.0863749
0.0829757
0.0798794
0.0770665
0.0745186
0.0722188
0.0701516
0.0683029
0.0666601
0.065212
0.0639486
0.0628613
0.0619428
0.0611866
0.0605878
0.0601422
0.0598468
0.0596996
0.153622
0.146925
0.140214
0.133678
0.127395
0.121415
0.115768
0.110471
0.105527
0.100932
0.0966764
0.0927482
0.0891326
0.0858141
0.082777
0.0800059
0.077486
0.0752033
0.0731448
0.0712985
0.0696534
0.0681999
0.0669292
0.0658336
0.0649066
0.0641425
0.0635367
0.0630855
0.0627862
0.0626371
0.151037
0.145143
0.139172
0.133295
0.127586
0.122096
0.116865
0.111916
0.10726
0.102902
0.0988399
0.0950671
0.0915753
0.0883541
0.0853923
0.0826784
0.0802009
0.0779486
0.0759109
0.074078
0.0724406
0.0709905
0.0697201
0.0686228
0.0676929
0.0669255
0.0663163
0.0658623
0.065561
0.0654107
0.148538
0.14332
0.137986
0.132692
0.127505
0.122475
0.117642
0.113032
0.108665
0.104548
0.100687
0.0970796
0.0937232
0.0906117
0.0877378
0.0850935
0.0826703
0.0804598
0.0784536
0.0766438
0.075023
0.0735842
0.0723213
0.0712285
0.0703009
0.0695344
0.0689254
0.0684711
0.0681694
0.068019
0.14611
0.141486
0.13672
0.13195
0.127239
0.122633
0.118172
0.113888
0.1098
0.105923
0.102264
0.0988276
0.0956132
0.0926191
0.0898416
0.0872755
0.0849153
0.082755
0.0807883
0.0790092
0.0774118
0.0759907
0.0747407
0.0736572
0.0727362
0.0719742
0.0713681
0.0709157
0.070615
0.070465
0.143826
0.139706
0.13543
0.131121
0.126835
0.122616
0.118502
0.114525
0.110705
0.107061
0.103602
0.100336
0.0972668
0.0943946
0.0917188
0.0892372
0.0869466
0.0848429
0.0829222
0.0811799
0.0796117
0.0782135
0.0769812
0.0759114
0.0750006
0.0742461
0.0736455
0.0731967
0.0728983
0.0727494
0.141672
0.137991
0.134147
0.130248
0.126344
0.122476
0.118681
0.114989
0.111423
0.108001
0.104737
0.101639
0.0987139
0.0959648
0.0933933
0.0909995
0.0887822
0.0867395
0.0848689
0.0831677
0.0816329
0.0802615
0.0790506
0.0779976
0.0770998
0.0763552
0.0757619
0.0753182
0.0750231
0.0748758
0.139679
0.136373
0.132903
0.129362
0.125798
0.122246
0.118742
0.115313
0.111984
0.108773
0.105694
0.102758
0.0999743
0.0973471
0.0948802
0.0925755
0.0904337
0.0884546
0.0866372
0.0849801
0.0834817
0.0821401
0.0809533
0.0799196
0.0790372
0.0783044
0.0777199
0.0772826
0.0769915
0.0768462
0.137835
0.134854
0.131712
0.128488
0.125226
0.121958
0.118717
0.115529
0.112419
0.109404
0.1065
0.10372
0.101072
0.0985631
0.0961989
0.0939827
0.0919166
0.0900019
0.088239
0.0866277
0.0851674
0.0838574
0.0826966
0.0816839
0.0808183
0.0800987
0.0795242
0.079094
0.0788075
0.0786644
0.136152
0.13345
0.13059
0.127643
0.124647
0.121632
0.118627
0.115659
0.112749
0.109916
0.107176
0.104542
0.102023
0.099628
0.0973632
0.0952334
0.0932419
0.0913913
0.089683
0.088118
0.0866968
0.0854194
0.0842856
0.083295
0.0824472
0.0817416
0.0811779
0.0807555
0.0804741
0.0803334
0.134618
0.132157
0.129544
0.12684
0.124078
0.121288
0.118496
0.115725
0.112998
0.110332
0.107743
0.105244
0.102846
0.100559
0.0983887
0.0963418
0.0944225
0.0926342
0.0909795
0.0894604
0.088078
0.0868333
0.0857268
0.0847587
0.0839292
0.0832381
0.0826855
0.0822711
0.081995
0.081857
0.133235
0.130981
0.128581
0.126087
0.123532
0.12094
0.118336
0.115743
0.11318
0.110665
0.108214
0.105841
0.103555
0.101368
0.0992872
0.0973186
0.095468
0.0937395
0.0921366
0.0906619
0.0893176
0.088105