/*--------------------------------*- C++ -*----------------------------------*\
  =========                 |
  \\      /  F ield         | OpenFOAM: The Open Source CFD Toolbox
   \\    /   O peration     | Website:  https://openfoam.org
    \\  /    A nd           | Version:  7
     \\/     M anipulation  |
\*---------------------------------------------------------------------------*/
FoamFile
{
    version     2.0;
    format      ascii;
    class       surfaceScalarField;
    location    "95";
    object      phi;
}
// * * * * * * * * * * * * * * * * * * * * * * * * * * * * * * * * * * * * * //

dimensions      [0 3 -1 0 0 0 0];

internalField   nonuniform List<scalar> 
6856
(
-0.000424838
0.000142089
-0.000653522
0.000171936
-0.000905245
0.000197321
-0.00117645
0.000223675
-0.00146175
0.000253036
-0.00174442
0.00027918
-0.00205156
0.000351938
0.000362466
-0.00229258
-7.07954e-05
0.000118246
-0.00021356
0.00024524
-0.000398534
0.000327064
-0.000608888
0.000382291
-0.00083511
0.000423543
-0.00107115
0.000459719
-0.00131347
0.000495348
-0.00152453
0.000490242
-0.00176614
0.000593552
0.000475799
-0.00187947
-6.19463e-05
0.000180192
-0.000187111
0.000370404
-0.000346104
0.000486057
-0.000520298
0.000556485
-0.000696786
0.000600031
-0.000862667
0.000625599
-0.00102108
0.000653758
-0.00109609
0.000565259
-0.00120656
0.000704019
0.000365475
-0.00109624
-5.0317e-05
0.000230509
-0.000151406
0.000471493
-0.000273999
0.00060865
-0.000396568
0.000679054
-0.000502153
0.000705616
-0.000565157
0.000688602
-0.000590022
0.000678623
-0.000475622
0.000450859
-0.000338111
0.000566507
-1.65356e-05
4.38998e-05
-3.79638e-05
0.000268473
-0.000111395
0.000544924
-0.000190206
0.000687461
-0.000248157
0.000737005
-0.000261978
0.000719437
-0.00019931
0.000625935
-3.86764e-06
0.000483181
0.000332835
0.000114156
0.000824643
7.46997e-05
-0.000887963
0.00169607
-2.68719e-05
0.000295345
-7.17779e-05
0.00058983
-0.000101982
0.000717665
-8.44072e-05
0.000719431
2.11703e-05
0.000613859
0.000242597
0.000404508
0.000679089
4.66884e-05
0.00137432
-0.000581078
0.00232276
-0.000873734
-0.0024072
0.003842
-1.84042e-05
0.000313749
-3.54009e-05
0.000606827
-1.22234e-05
0.000694487
9.54602e-05
0.000611747
0.000343844
0.000365476
0.00079518
-4.68273e-05
0.00156628
-0.000724409
0.00266746
-0.00168226
0.0041851
-0.00239138
-0.00454002
0.00631792
-1.29073e-05
0.000326656
-9.8272e-07
0.000594903
8.35635e-05
0.000609941
0.000306758
0.000388553
0.000752498
-8.02638e-05
0.0015149
-0.000809228
0.00268518
-0.00189469
0.00425695
-0.00325404
0.00632367
-0.0044581
-0.00691372
0.00869737
-9.27904e-06
0.000335935
3.39642e-05
0.000551659
0.000199566
0.000444339
0.000581542
6.57587e-06
0.00129478
-0.000793506
0.00244773
-0.00196217
0.00402026
-0.00346722
0.00597561
-0.00520939
0.0083348
-0.00681728
-0.00904291
0.010464
-4.07993e-06
0.000340015
8.13407e-05
0.000466239
0.000359397
0.000166283
0.000962656
-0.000596683
0.00201005
-0.0018409
0.00353802
-0.00349015
0.00540313
-0.00533232
0.00744738
-0.00725365
0.00956763
-0.00893753
-0.0106955
0.0112203
5.28928e-06
0.000334726
0.000152388
0.00031914
0.000589631
-0.00027096
0.001475
-0.00148205
0.00286064
-0.00322655
0.00461497
-0.00524447
0.00650533
-0.00722269
0.0083008
-0.00904911
0.00984631
-0.010483
-0.0118545
0.0110052
2.13669e-05
0.000313359
0.00025891
8.15972e-05
0.000908273
-0.000920323
0.00209238
-0.00266615
0.00369622
-0.0048304
0.00543377
-0.00698202
0.00706268
-0.00885159
0.00840567
-0.0103921
0.00953694
-0.0116143
-0.0128357
0.0105181
4.77502e-05
0.000265609
0.000410472
-0.000281124
0.0013071
-0.00181695
0.00271501
-0.00407406
0.00432557
-0.00644095
0.00582716
-0.00848361
0.00707221
-0.0100966
0.00806318
-0.0113831
0.00892339
-0.0124745
-0.0135783
0.00966604
8.67315e-05
0.000178877
0.000610109
-0.000804502
0.00173469
-0.00294153
0.00320698
-0.00554635
0.00463569
-0.00786967
0.00581448
-0.0096624
0.00673752
-0.0110197
0.00748318
-0.0121287
0.00815377
-0.0131451
-0.0142287
0.00880417
0.000141181
3.76963e-05
0.000844828
-0.00150815
0.00210715
-0.00420385
0.00347938
-0.00691858
0.00464053
-0.00903083
0.00552675
-0.0105486
0.00620876
-0.0117017
0.00678179
-0.0127018
0.00733472
-0.013698
-0.014768
0.00787405
0.000213573
-0.000175877
0.00108139
-0.00237596
0.00235237
-0.00547484
0.00352661
-0.00809282
0.00442121
-0.00992543
0.0050711
-0.0111985
0.00557691
-0.0122075
0.00602627
-0.0131511
0.00646912
-0.0141409
-0.0152107
0.00691182
0.00030134
-0.000477217
0.00127904
-0.00335367
0.00244705
-0.00664284
0.00339233
-0.00903809
0.00405385
-0.010587
0.00452054
-0.0116652
0.00489356
-0.0125805
0.00523775
-0.0134953
0.00558426
-0.0144874
-0.0155597
0.00593326
0.000392694
-0.000869911
0.0014046
-0.00436557
0.00240594
-0.00764418
0.00312788
-0.00976003
0.00359609
-0.0110552
0.00391935
-0.0119885
0.00418381
-0.012845
0.00443428
-0.0137458
0.00468449
-0.0147376
-0.0158084
0.00493314
0.000472329
-0.00134224
0.00144098
-0.00533423
0.00225602
-0.00845922
0.00277727
-0.0102813
0.00308699
-0.0113649
0.00329348
-0.0121949
0.00346279
-0.0130143
0.00362212
-0.0139051
0.00377724
-0.0148927
-0.0159595
0.00392832
0.000527948
-0.00187019
0.00139287
-0.00619915
0.00202542
-0.00909177
0.00237391
-0.0106298
0.00255245
-0.0115434
0.0026585
-0.012301
0.00273838
-0.0130942
0.00280775
-0.0139745
0.00286897
-0.014954
-0.0160134
0.0029229
0.000552121
-0.00242231
0.00128311
-0.00693015
0.00174063
-0.00954928
0.00194135
-0.0108305
0.00200863
-0.0116107
0.00202382
-0.0123162
0.00201701
-0.0130874
0.00199584
-0.0139533
0.00196092
-0.014919
-0.0159723
0.00191983
0.000542236
-0.00296455
0.0011266
-0.00751451
0.00142264
-0.00984532
0.00149558
-0.0109034
0.00146568
-0.0115808
0.0013957
-0.0122462
0.00130372
-0.0129954
0.00119218
-0.0138418
0.00105813
-0.014785
-0.0158282
0.000913965
0.000501054
-0.0034656
0.000937288
-0.00795075
0.00108728
-0.00999531
0.00104855
-0.0108647
0.000930494
-0.0114628
0.000778231
-0.0120939
0.000601973
-0.0128191
0.000400918
-0.0136407
0.000178769
-0.0145628
-0.0155566
-9.2737e-05
0.000435422
-0.00390102
0.000727558
-0.00824288
0.00074678
-0.0100145
0.000608275
-0.0107262
0.000407078
-0.0112616
0.000173108
-0.01186
-8.70846e-05
-0.0125589
-0.000369445
-0.0133584
-0.000687557
-0.0142447
-0.0152056
-0.0010386
0.000353364
-0.00425439
0.000507675
-0.00839719
0.000409359
-0.00991621
0.000178036
-0.0104949
-0.000101647
-0.0109819
-0.000407201
-0.0115544
-0.00074344
-0.0122227
-0.00111467
-0.0129871
-0.00152387
-0.0138355
-0.0147674
-0.0019621
0.000261958
-0.00451634
0.00028678
-0.00842202
7.78165e-05
-0.00970725
-0.000231603
-0.0101855
-0.000581269
-0.0106322
-0.000964193
-0.0111715
-0.00137945
-0.0118074
-0.00183373
-0.0125328
-0.00232562
-0.0133436
-0.014242
-0.00285101
0.000166723
-0.00468307
7.53794e-05
-0.00833067
-0.000233277
-0.00939859
-0.000619751
-0.00979898
-0.00104223
-0.0102097
-0.00149769
-0.010716
-0.00198857
-0.0113166
-0.00252055
-0.0120009
-0.0030925
-0.0127717
-0.0136334
-0.00370109
7.31675e-05
-0.00475623
-0.00013951
-0.008118
-0.000529096
-0.009009
-0.000988565
-0.00933951
-0.00148023
-0.00971807
-0.00200534
-0.0101909
-0.00256793
-0.010754
-0.00317236
-0.0113964
-0.00382027
-0.0121238
-0.0129488
-0.00450483
-1.30244e-05
-0.00474321
-0.000341555
-0.00778947
-0.000809667
-0.00854089
-0.00133527
-0.00881391
-0.00189276
-0.00916057
-0.00248524
-0.00959845
-0.00311701
-0.0101222
-0.00378958
-0.0107238
-0.0044982
-0.0114152
-0.012196
-0.005251
-0.000119073
-0.00462414
-0.000528595
-0.00737994
-0.00107053
-0.00799895
-0.00165822
-0.00822623
-0.00227786
-0.00854093
-0.00293458
-0.00894173
-0.00363315
-0.00942362
-0.00437639
-0.00998061
-0.00516823
-0.0106233
-0.0114227
-0.00594154
-0.000209266
-0.00441487
-0.000701455
-0.00688775
-0.00130956
-0.00739085
-0.00195568
-0.00758011
-0.00263349
-0.00786312
-0.00334975
-0.00822547
-0.00410968
-0.00866369
-0.00491606
-0.00917423
-0.00576985
-0.00976954
-0.0104236
-0.00676899
-0.000290136
-0.00412473
-0.000858863
-0.00631903
-0.00152649
-0.00672322
-0.00222649
-0.00688011
-0.00295821
-0.00713139
-0.00372865
-0.00745503
-0.00454147
-0.00785087
-0.00540059
-0.0083151
-0.00632565
-0.00884448
-0.00939606
-0.00735317
-0.000362166
-0.00376257
-0.000999639
-0.00568155
-0.00172048
-0.00600238
-0.00246944
-0.00613116
-0.00325036
-0.00635047
-0.00407116
-0.00663422
-0.00493837
-0.00698367
-0.00586099
-0.00739248
-0.00685376
-0.00785172
-0.00833955
-0.00791027
-0.000425047
-0.00333752
-0.00112307
-0.00498353
-0.00189096
-0.00523449
-0.00268352
-0.0053386
-0.00350767
-0.00552631
-0.00437132
-0.00577058
-0.00528237
-0.00607262
-0.00625184
-0.00642301
-0.00729136
-0.0068122
-0.00723491
-0.00839599
-0.000477787
-0.00285973
-0.00122846
-0.00423286
-0.0020375
-0.00442545
-0.00286845
-0.00450765
-0.00373114
-0.00466362
-0.00463417
-0.00486755
-0.00558641
-0.00512038
-0.00659745
-0.00541197
-0.00767459
-0.00573506
-0.00609132
-0.00881818
-0.000518908
-0.00234083
-0.00131547
-0.0034363
-0.00215974
-0.00358119
-0.00302294
-0.00364445
-0.00391748
-0.00376908
-0.00485255
-0.00393248
-0.00583778
-0.00413514
-0.00688213
-0.00436762
-0.00799209
-0.0046251
-0.0049124
-0.00917101
-0.000554266
-0.00178656
-0.0013854
-0.00260516
-0.00225792
-0.00270867
-0.00314741
-0.00275496
-0.00406809
-0.0028484
-0.00502945
-0.00297112
-0.00604128
-0.00312331
-0.0071117
-0.00329721
-0.00824712
-0.00348967
-0.00370611
-0.00945342
-0.000581712
-0.00120485
-0.00143822
-0.00174865
-0.00233168
-0.00181522
-0.00324092
-0.00184571
-0.00418121
-0.00190811
-0.00516226
-0.00199007
-0.00619393
-0.00209165
-0.0072838
-0.00220734
-0.00843811
-0.00233536
-0.00247991
-0.0096643
-0.000600238
-0.00147366
-0.002381
-0.00330348
-0.00092323
-0.00425694
-0.000954653
-0.00525115
-0.000995857
-0.00629595
-0.00104685
-0.00739849
-0.0011048
-0.00856499
-0.00116886
-0.00124125
-0.00980366
-0.00333487
-0.00429493
-0.00529572
-0.00634704
-0.00745587
-0.00862828
-0.00987265
-0.00233045
0.00013036
-0.00236501
0.000149242
-0.00239472
0.000167311
-0.00242004
0.00018624
-0.00244149
0.000205571
-0.00245948
0.000224784
-0.00247443
0.000243355
-0.00248665
0.00026074
-0.00249643
0.000276386
-0.00250401
0.000289749
-0.00250958
0.000300301
-0.0025133
0.000307542
-0.00251533
0.000311006
-0.00251576
0.000310265
-0.00251471
0.00030494
-0.00251224
0.000294709
-0.00250842
0.000279312
-0.0025033
0.000258557
-0.0024969
0.000232322
-0.00248922
0.000200562
-0.00248026
0.000163301
-0.00246996
0.000120629
-0.0024582
7.26567e-05
-0.00244457
1.92937e-05
-0.00243025
-3.6274e-05
-0.00241491
-9.6316e-05
-0.00239848
-0.000159869
-0.00238091
-0.000226092
-0.000294205
-0.00190412
0.000155004
-0.00192715
0.000172274
-0.0019459
0.000186058
-0.00196079
0.000201132
-0.00197216
0.000216945
-0.00198037
0.00023299
-0.00198576
0.000248747
-0.00198867
0.000263646
-0.00198937
0.000277093
-0.00198813
0.0002885
-0.00198514
0.000297311
-0.0019806
0.000303003
-0.00197468
0.000305086
-0.00196753
0.000303116
-0.00195928
0.000296695
-0.00195006
0.000285486
-0.00193996
0.000269218
-0.00192909
0.000247686
-0.00191753
0.000220763
-0.00190536
0.000188388
-0.00189263
0.000150569
-0.00187937
0.00010737
-0.00186559
5.8874e-05
-0.00185099
4.69772e-06
-0.00183666
-5.06064e-05
-0.00182199
-0.000110988
-0.00180718
-0.000174677
-0.00179234
-0.000240935
-0.000309007
-0.00110804
0.000166808
-0.00111342
0.000177652
-0.00111794
0.000190576
-0.00112005
0.000203247
-0.0011194
0.000216297
-0.00111605
0.000229632
-0.00111013
0.000242828
-0.00110192
0.000255435
-0.00109169
0.000266868
-0.00107968
0.000276488
-0.00106609
0.000283723
-0.00105113
0.000288047
-0.00103501
0.000288962
-0.0010179
0.000286008
-0.000999985
0.000278777
-0.000981422
0.000266923
-0.000962372
0.000250168
-0.000942991
0.000228306
-0.000923442
0.000201214
-0.000903885
0.000168831
-0.00088444
0.000131124
-0.000865171
8.81009e-05
-0.000846008
3.97109e-05
-0.000828559
-1.27513e-05
-0.000810684
-6.84817e-05
-0.000793545
-0.000128127
-0.000777322
-0.0001909
-0.000762164
-0.000256093
-0.000322959
5.41057e-05
0.000156602
5.59659e-05
0.000175791
6.16747e-05
0.000184867
6.97878e-05
0.000195134
7.98179e-05
0.000206267
9.21283e-05
0.000217322
0.000106889
0.000228067
0.000123944
0.00023838
0.000143142
0.000247669
0.000164318
0.000255312
0.000187256
0.000260786
0.00021169
0.000263613
0.000237347
0.000263305
0.000263964
0.000259391
0.000291291
0.000251449
0.000319097
0.000239118
0.000347166
0.000222099
0.000375305
0.000200167
0.000403331
0.000173187
0.000431042
0.00014112
0.000458156
0.00010401
0.000484395
6.18616e-05
0.000509751
1.43557e-05
0.000533419
-3.64193e-05
0.000556172
-9.12352e-05
0.000577548
-0.000149502
0.000597277
-0.000210629
0.000615135
-0.000273952
0.000630919
-0.000338742
-0.000404218
0.00165734
0.000195336
0.00163867
0.000194458
0.00162652
0.000197016
0.0016206
0.000201056
0.00162043
0.000206439
0.00162563
0.000212119
0.00163563
0.000218068
0.00164958
0.000224429
0.00166703
0.000230214
0.00168775
0.000234593
0.00171143
0.000237112
0.00173766
0.000237374
0.00176607
0.000234898
0.00179626
0.000229201
0.00182785
0.00021986
0.00186046
0.000206506
0.00189374
0.000188818
0.00192738
0.000166533
0.00196109
0.000139471
0.00199465
0.000107564
0.0020278
7.08656e-05
0.00206017
2.94884e-05
0.00209078
-1.62526e-05
0.00212033
-6.59737e-05
0.00214841
-0.000119311
0.00217471
-0.000175804
0.00219896
-0.000234877
0.00222089
-0.000295884
0.00224026
-0.000358111
-0.000420778
0.00375286
0.000284473
0.00368131
0.000266005
0.00362134
0.000256987
0.00356989
0.000252502
0.00352941
0.000246923
0.00350043
0.000241104
0.00348118
0.000237314
0.00346994
0.000235666
0.00346594
0.000234222
0.00346858
0.000231947
0.00347713
0.00022856
0.00349082
0.000223688
0.00350895
0.000216763
0.00353091
0.00020725
0.00355605
0.000194719
0.00358376
0.000178796
0.00361344
0.000159132
0.00364456
0.000135417
0.00367662
0.000107413
0.00370921
7.49686e-05
0.00374203
3.80521e-05
0.00377459
-3.07275e-06
0.00380635
-4.80202e-05
0.00383699
-9.66103e-05
0.00386618
-0.000148505
0.0038936
-0.000203214
0.00391888
-0.000260161
0.00394171
-0.000318718
0.00396179
-0.000378192
-0.000437811
0.00617743
0.000424967
0.00605397
0.00038946
0.00593984
0.00037112
0.00583318
0.000359165
0.0057394
0.000340701
0.00565969
0.000320819
0.00559241
0.000304591
0.00553626
0.000291815
0.00549103
0.000279447
0.00545623
0.000266752
0.00543086
0.000253933
0.00541392
0.000240624
0.00540455
0.00022613
0.0054019
0.000209899
0.00540511
0.000191515
0.00541332
0.000170584
0.00542573
0.000146718
0.00544157
0.00011958
0.00546009
8.88961e-05
0.00548057
5.44897e-05
0.00550199
1.66317e-05
0.00552471
-2.58008e-05
0.00554733
-7.06392e-05
0.00556961
-0.000118885
0.00559108
-0.000169982
0.00561131
-0.000223438
0.00562982
-0.000278674
0.00564622
-0.000335112
0.00566013
-0.000392108
0.00567124
-0.000448922
-0.000504762
0.00853153
0.000590811
0.00837575
0.000545244
0.00822214
0.000524725
0.00807669
0.000504615
0.00794522
0.000472176
0.00782609
0.000439942
0.00771784
0.000412847
0.00762058
0.000389069
0.00753479
0.000365244
0.00746019
0.000341348
0.00739623
0.000317897
0.00734229
0.000294561
0.00729773
0.000270693
0.00726177
0.000245859
0.00723355
0.000219728
0.00721218
0.000191956
0.0071967
0.000162205
0.00718617
0.000130109
0.00717981
9.5255e-05
0.00717722
5.70782e-05
0.00717922
1.46352e-05
0.00718249
-2.90751e-05
0.00718708
-7.52282e-05
0.00719216
-0.000123966
0.00719727
-0.000175093
0.0072019
-0.000228066
0.00720549
-0.000282268
0.00720759
-0.000337213
0.00720781
-0.000392329
0.00720581
-0.000446914
0.00720128
-0.000500229
-0.000551533
0.0103036
0.000751184
0.0101462
0.000702644
0.0099862
0.000684741
0.00983704
0.000653777
0.00969829
0.000610926
0.00956833
0.000569906
0.00944701
0.000534164
0.00933485
0.000501226
0.00923206
0.000468032
0.00913834
0.000435071
0.00905348
0.000402754
0.00897737
0.000370673
0.00890968
0.000338389
0.00884991
0.000305622
0.00879756
0.000272082
0.00875208
0.000237432
0.00871296
0.000201328
0.00867961
0.000163457
0.00865135
0.000123515
0.00862701
8.14165e-05
0.0086045
3.7149e-05
0.00858506
-9.6345e-06
0.0085673
-5.74676e-05
0.00855062
-0.000107291
0.00853475
-0.00015922
0.00851905
-0.000212362
0.00850291
-0.000266134
0.0084859
-0.0003202
0.00846763
-0.000374055
0.00844776
-0.000427047
0.00842604
-0.000478507
-0.000527776
0.0111172
0.000854192
0.010994
0.000825925
0.0108813
0.000797453
0.0107747
0.000760308
0.0106707
0.000714939
0.0105707
0.000669898
0.0104756
0.000629282
0.0103853
0.000591546
0.0102995
0.000553768
0.0102186
0.000516044
0.0101426
0.000478753
0.0100716
0.000441632
0.0100057
0.000404335
0.00994461
0.000366677
0.00988819
0.000328502
0.00983603
0.000289584
0.00978768
0.000249684
0.00974257
0.000208567
0.00970022
0.000165861
0.00966032
0.000121322
0.00962313
7.43411e-05
0.00958889
2.46054e-05
0.00955597
-2.45546e-05
0.00952281
-7.41241e-05
0.0094894
-0.000125815
0.00945536
-0.000178325
0.00942046
-0.000231229
0.00938448
-0.000284218
0.00934723
-0.000336808
0.00930859
-0.000388407
0.00926849
-0.000438414
0.00922696
-0.000486244
-0.000531312
0.0165415
0.000958933
-0.0166462
0.0164615
0.000905873
0.0163938
0.000865147
0.0163306
0.000823557
0.0162658
0.000779775
0.0161993
0.000736319
0.0161347
0.000693897
0.0160737
0.000652569
0.0160154
0.000612063
0.0159595
0.000571985
0.0159062
0.000532
0.015856
0.000491888
0.0158088
0.000451511
0.0157648
0.00041071
0.0157239
0.00036932
0.0156864
0.000327141
0.0156521
0.000283992
0.0156209
0.000239748
0.0155924
0.000194319
0.0155659
0.00014786
0.0155397
0.000100543
0.0155113
5.29925e-05
0.0154805
6.28457e-06
0.015452
-4.56605e-05
0.0154225
-9.6276e-05
0.0153909
-0.00014678
0.0153569
-0.000197185
0.0153197
-0.000247001
0.0152786
-0.000295743
0.0152332
-0.000342977
0.015183
-0.000388266
0.0151279
-0.000431147
-0.000471148
0.0166644
0.000967724
-0.0166732
0.0166544
0.000915845
0.0166516
0.00086791
0.0166505
0.000824707
0.0166467
0.000783575
0.0166401
0.000742902
0.0166317
0.000702273
0.0166223
0.000661994
0.0166121
0.000622268
0.0166012
0.000582901
0.0165896
0.000543574
0.0165775
0.000504049
0.0165648
0.000464181
0.0165516
0.000423849
0.016538
0.000382942
0.0165238
0.000341363
0.0165087
0.00029905
0.0164925
0.000255987
0.0164746
0.000212274
0.0164544
0.000168014
0.0164319
0.000123064
0.0164078
7.70982e-05
0.0163841
2.99269e-05
0.0163556
-1.71657e-05
0.0163233
-6.39473e-05
0.0162873
-0.000110825
0.0162472
-0.000156994
0.0162024
-0.000202256
0.016153
-0.00024633
0.0160989
-0.000288839
0.01604
-0.000329387
0.0159764
-0.000367586
-0.000403061
0.0165749
0.000945668
-0.0165528
0.0165959
0.000894831
0.0166159
0.000847888
0.0166355
0.000805128
0.0166541
0.000764993
0.0166711
0.000725872
0.0166864
0.000686992
0.0167001
0.000648314
0.0167124
0.000609961
0.0167234
0.000571887
0.016733
0.00053391
0.0167413
0.000495836
0.0167479
0.000457516
0.0167529
0.000418847
0.0167561
0.000379756
0.0167573
0.000340194
0.0167562
0.000300131
0.0167526
0.000259552
0.0167465
0.000218432
0.0167378
0.000176673
0.0167266
0.000134299
0.0167122
9.14804e-05
0.0166934
4.87499e-05
0.0166696
6.58003e-06
0.0166423
-3.65809e-05
0.0166103
-7.8813e-05
0.0165736
-0.000120345
0.0165323
-0.000160972
0.0164864
-0.000200365
0.0164357
-0.000238208
0.0163805
-0.000274189
0.0163209
-0.000308005
-0.000339357
0.0164376
0.000904215
-0.0163962
0.0164712
0.000861223
0.016501
0.000818172
0.0165289
0.000777152
0.0165557
0.000738229
0.016581
0.000700554
0.0166046
0.000663398
0.0166265
0.000626464
0.0166467
0.00058972
0.0166654
0.000553165
0.0166826
0.000516727
0.0166982
0.000480289
0.0167119
0.000443734
0.0167238
0.000406975
0.0167336
0.000369951
0.0167412
0.000332622
0.0167464
0.000294953
0.016749
0.000256923
0.0167489
0.000218523
0.0167458
0.000179812
0.0167391
0.000140923
0.0167286
0.000102021
0.0167141
6.32418e-05
0.0166962
2.44544e-05
0.0166738
-1.41226e-05
0.016647
-5.20731e-05
0.016616
-8.92884e-05
0.0165805
-0.000125532
0.0165407
-0.000160563
0.0164967
-0.000194135
0.0164485
-0.000226003
0.0163964
-0.000255923
-0.000283658
0.0162882
0.000860153
-0.0162441
0.0163273
0.000822115
0.0163627
0.000782726
0.0163956
0.000744285
0.0164264
0.000707375
0.0164554
0.00067159
0.0164824
0.000636364
0.0165075
0.000601357
0.0165308
0.000566467
0.0165523
0.000531692
0.016572
0.000497018
0.0165899
0.000462388
0.0166059
0.000427727
0.0166199
0.000392969
0.0166318
0.000358067
0.0166414
0.000322991
0.0166486
0.000287732
0.0166532
0.000252301
0.016655
0.000216741
0.0166537
0.000181124
0.0166491
0.000145515
0.0166412
0.000109971
0.0166299
7.45503e-05
0.016615
3.93671e-05
0.0165964
4.47191e-06
0.0165738
-2.95052e-05
0.0165474
-6.28494e-05
0.016517
-9.52257e-05
0.0164829
-0.000126443
0.0164451
-0.000156315
0.0164037
-0.000184644
0.0163591
-0.000211237
-0.000235905
0.0161441
0.000815069
-0.016099
0.0161863
0.000779951
0.016225
0.000744046
0.0162606
0.00070868
0.0162936
0.000674336
0.0163244
0.000640808
0.016353
0.000607712
0.0163796
0.000574783
0.0164042
0.000541921
0.0164267
0.000509125
0.0164473
0.000476401
0.016466
0.000443731
0.0164827
0.000411075
0.0164972
0.000378394
0.0165096
0.000345662
0.0165198
0.000312868
0.0165275
0.000280023
0.0165326
0.000247152
0.0165351
0.000214292
0.0165347
0.000181481
0.0165315
0.000148767
0.0165252
0.000116213
0.0165159
8.39133e-05
0.0165032
5.1993e-05
0.0164871
2.05664e-05
0.0164678
-1.02002e-05
0.0164451
-4.01237e-05
0.016419
-6.91625e-05
0.0163897
-9.71286e-05
0.0163573
-0.000123858
0.0163218
-0.000149194
0.0162836
-0.000172983
-0.000195077
0.0160133
0.000768037
-0.0159663
0.0160567
0.000736616
0.0160965
0.000704192
0.0161333
0.000671921
0.0161673
0.000640274
0.016199
0.000609157
0.0162284
0.000578317
0.0162556
0.000547564
0.0162807
0.000516832
0.0163037
0.000486125
0.0163246
0.000455462
0.0163435
0.000424846
0.0163603
0.000394266
0.016375
0.000363705
0.0163875
0.000333156
0.0163978
0.000302622
0.0164057
0.000272118
0.0164112
0.00024167
0.0164141
0.000211309
0.0164145
0.000181076
0.0164123
0.000151029
0.0164073
0.000121241
0.0163994
9.17988e-05
0.0163886
6.27973e-05
0.0163748
3.43187e-05
0.0163582
6.41432e-06
0.0163387
-2.06086e-05
0.0163163
-4.67694e-05
0.0162911
-7.1943e-05
0.0162632
-9.59919e-05
0.0162328
-0.000118788
0.0162001
-0.000140208
-0.000160137
0.0158953
0.000721295
-0.0158485
0.0159384
0.000693427
0.0159784
0.000664226
0.0160155
0.000634871
0.0160499
0.000605863
0.0160819
0.000577178
0.0161115
0.000548636
0.016139
0.000520104
0.0161643
0.000491541
0.0161874
0.000462966
0.0162085
0.000434406
0.0162275
0.000405881
0.0162443
0.000377396
0.0162591
0.000348952
0.0162717
0.000320553
0.0162821
0.000292212
0.0162903
0.00026395
0.0162961
0.000235796
0.0162997
0.000207785
0.0163008
0.000179965
0.0162994
0.000152392
0.0162955
0.000125129
0.0162891
9.82457e-05
0.0162801
7.18147e-05
0.0162685
4.59165e-05
0.0162542
2.06335e-05
0.0162376
-3.96391e-06
0.0162184
-2.75955e-05
0.0161969
-5.03675e-05
0.016173
-7.21179e-05
0.0161469
-9.27408e-05
0.0161189
-0.000112141
-0.000130229
0.0157875
0.000676021
-0.0157422
0.0158299
0.00065096
0.0158695
0.000624628
0.0159064
0.000597999
0.0159407
0.000571528
0.0159727
0.000545223
0.0160024
0.000518953
0.0160299
0.000492624
0.0160552
0.000466218
0.0160784
0.000439764
0.0160995
0.000413298
0.0161185
0.000386851
0.0161355
0.000360437
0.0161504
0.00033407
0.0161631
0.000307765
0.0161738
0.000281541
0.0161823
0.000255425
0.0161887
0.000229449
0.0161928
0.000203654
0.0161947
0.000178083
0.0161943
0.000152786
0.0161916
0.000127818
0.0161866
0.000103239
0.0161793
7.91142e-05
0.0161697
5.55159e-05
0.0161578
3.25169e-05
0.0161437
1.01863e-05
0.0161274
-1.13505e-05
0.0161091
-3.20012e-05
0.0160887
-5.1751e-05
0.0160665
-7.04985e-05
0.0160425
-8.81615e-05
-0.000104667
0.0156882
0.000632045
-0.0156442
0.0157297
0.00060948
0.0157686
0.000585749
0.0158049
0.000561647
0.0158389
0.00053757
0.0158706
0.000513541
0.0159001
0.000489465
0.0159274
0.000465276
0.0159527
0.000440971
0.0159758
0.000416588
0.015997
0.00039217
0.0160161
0.00036775
0.0160331
0.000343355
0.0160482
0.000319004
0.0160612
0.00029472
0.0160723
0.000270528
0.0160812
0.000246458
0.0160881
0.000222545
0.016093
0.000198827
0.0160957
0.000175345
0.0160963
0.000152146
0.0160949
0.000129279
0.0160913
0.000106798
0.0160857
8.47615e-05
0.016078
6.32313e-05
0.0160682
4.22718e-05
0.0160564
2.19449e-05
0.0160428
2.28525e-06
0.0160273
-1.6527e-05
0.0160101
-3.45151e-05
0.0159912
-5.16154e-05
0.0159708
-6.77593e-05
-8.28851e-05
0.0155964
0.000589418
-0.0155538
0.0156367
0.000569197
0.0156746
0.000547839
0.0157102
0.000526053
0.0157436
0.000504199
0.0157748
0.000482311
0.0158039
0.00046032
0.015831
0.000438176
0.0158561
0.000415889
0.0158792
0.0003935
0.0159003
0.000371055
0.0159195
0.000348592
0.0159367
0.000326141
0.015952
0.000303729
0.0159653
0.000281381
0.0159767
0.000259126
0.0159862
0.000236996
0.0159937
0.000215026
0.0159993
0.000193253
0.0160029
0.000171716
0.0160046
0.000150458
0.0160043
0.000129525
0.0160022
0.000108965
0.0159981
8.8828e-05
0.0159922
6.91676e-05
0.0159844
5.00371e-05
0.0159748
3.14916e-05
0.0159636
1.35819e-05
0.0159507
-3.66207e-06
0.0159362
-2.00705e-05
0.0159203
-3.57153e-05
0.0159031
-5.05109e-05
-6.44116e-05
0.0155112
0.000548375
-0.0154702
0.0155502
0.000530243
0.015587
0.000511026
0.0156217
0.000491352
0.0156543
0.000471549
0.015685
0.00045166
0.0157137
0.000431628
0.0157404
0.000411421
0.0157653
0.00039105
0.0157882
0.00037056
0.0158093
0.000349998
0.0158284
0.000329404
0.0158458
0.00030881
0.0158613
0.000288246
0.0158749
0.000267739
0.0158867
0.00024732
0.0158967
0.000227022
0.0159048
0.000206879
0.0159112
0.000186927
0.0159157
0.000167203
0.0159184
0.000147747
0.0159193
0.0001286
0.0159185
0.000109804
0.0159159
9.14038e-05
0.0159116
7.3445e-05
0.0159057
5.59731e-05
0.0158981
3.90345e-05
0.015889
2.26737e-05
0.0158784
6.9334e-06
0.0158665
-8.12934e-06
0.0158532
-2.24507e-05
0.0158388
-3.604e-05
-4.88427e-05
0.0154321
0.000508947
-0.0153927
0.0154697
0.000492656
0.0155054
0.000475367
0.0155391
0.00045762
0.015571
0.000439708
0.0156009
0.000421673
0.0156291
0.000403473
0.0156554
0.000385082
0.01568
0.000366518
0.0157027
0.000347824
0.0157237
0.000329044
0.0157428
0.000310222
0.0157603
0.000291388
0.0157759
0.000272575
0.0157899
0.00025381
0.0158021
0.000235126
0.0158125
0.000216554
0.0158213
0.000198126
0.0158283
0.000179879
0.0158337
0.000161846
0.0158374
0.000144063
0.0158394
0.000126569
0.0158398
0.0001094
0.0158386
9.25964e-05
0.0158359
7.61965e-05
0.0158316
6.02406e-05
0.0158259
4.47676e-05
0.0158187
2.98175e-05
0.0158102
1.54256e-05
0.0158005
1.61535e-06
0.0157896
-1.15326e-05
0.0157775
-2.40137e-05
-3.58139e-05
0.0153589
0.000471054
-0.015321
0.0153951
0.000456424
0.0154296
0.000440881
0.0154623
0.000424893
0.0154933
0.000408719
0.0155226
0.0003924
0.0155501
0.000375903
0.015576
0.000359211
0.0156002
0.00034234
0.0156227
0.000325333
0.0156435
0.000308233
0.0156626
0.000291081
0.0156801
0.000273909
0.0156959
0.000256748
0.0157101
0.000239626
0.0157227
0.000222575
0.0157336
0.000205624
0.0157429
0.000188807
0.0157506
0.000172154
0.0157568
0.000155699
0.0157614
0.000139475
0.0157644
0.000123515
0.015766
0.000107853
0.015766
9.25235e-05
0.0157647
7.75605e-05
0.0157619
6.29983e-05
0.0157578
4.88708e-05
0.0157524
3.52106e-05
0.0157458
2.20501e-05
0.015738
9.41744e-06
0.0157292
-2.68089e-06
0.0157193
-1.41409e-05
-2.50163e-05
0.0152911
0.000434624
-0.0152546
0.015326
0.000421506
0.0153593
0.000407552
0.015391
0.00039317
0.0154212
0.000378592
0.0154497
0.000363859
0.0154767
0.000348944
0.015502
0.000333833
0.0155258
0.000318545
0.015548
0.000303119
0.0155687
0.000287596
0.0155877
0.000272014
0.0156052
0.000256405
0.0156212
0.000240798
0.0156356
0.000225221
0.0156485
0.000209705
0.0156598
0.000194278
0.0156697
0.00017897
0.015678
0.000163811
0.0156849
0.000148831
0.0156903
0.00013406
0.0156943
0.000119529
0.0156969
0.000105267
0.0156981
9.13053e-05
0.015698
7.76732e-05
0.0156966
6.44006e-05
0.0156939
5.15161e-05
0.0156901
3.90477e-05
0.0156851
2.70218e-05
0.0156791
1.54629e-05
0.015672
4.39297e-06
0.015664
-6.16152e-06
-1.61672e-05
0.0152285
0.00039959
-0.0151934
0.0152621
0.000387843
0.0152944
0.000375334
0.0153251
0.000362423
0.0153544
0.000349314
0.0153822
0.000336046
0.0154085
0.000322598
0.0154334
0.000308959
0.0154568
0.000295148
0.0154787
0.0002812
0.0154992
0.000267154
0.0155181
0.000253045
0.0155356
0.000238903
0.0155517
0.000224757
0.0155663
0.000210633
0.0155794
0.000196558
0.0155911
0.000182561
0.0156014
0.000168669
0.0156103
0.00015491
0.0156179
0.000141311
0.015624
0.000127899
0.0156288
0.000114702
0.0156324
0.000101747
0.0156346
8.90594e-05
0.0156356
7.66666e-05
0.0156354
6.45937e-05
0.0156341
5.28657e-05
0.0156316
4.15065e-05
0.0156281
3.05385e-05
0.0156236
1.99835e-05
0.0156181
9.85956e-06
0.0156118
1.72331e-07
-9.02285e-06
0.0151709
0.000365856
-0.0151371
0.0152034
0.000355356
0.0152345
0.000344169
0.0152643
0.000332606
0.0152928
0.000320852
0.0153199
0.00030894
0.0153457
0.000296854
0.01537
0.000284585
0.015393
0.000272151
0.0154146
0.000259585
0.0154349
0.000246922
0.0154537
0.000234194
0.0154712
0.00022143
0.0154873
0.000208655
0.015502
0.000195895
0.0155154
0.000183175
0.0155275
0.000170522
0.0155382
0.00015796
0.0155476
0.000145514
0.0155557
0.00013321
0.0155625
0.000121073
0.0155681
0.000109126
0.0155724
9.7393e-05
0.0155756
8.58986e-05
0.0155776
7.46652e-05
0.0155785
6.3715e-05
0.0155783
5.30695e-05
0.015577
4.2749e-05
0.0155748
3.27728e-05
0.0155716
2.31587e-05
0.0155675
1.39231e-05
0.0155626
5.07906e-06
-3.36618e-06
0.0151181
0.000333318
-0.0150855
0.0151495
0.00032396
0.0151797
0.000313986
0.0152086
0.000303666
0.0152363
0.000293162
0.0152627
0.000282508
0.0152879
0.000271687
0.0153118
0.000260696
0.0153344
0.000249548
0.0153557
0.000238274
0.0153757
0.000226906
0.0153944
0.000215474
0.0154119
0.000204003
0.015428
0.000192517
0.0154428
0.00018104
0.0154564
0.000169594
0.0154687
0.000158204
0.0154798
0.000146893
0.0154896
0.000135683
0.0154983
0.000124597
0.0155057
0.000113657
0.0155119
0.000102885
0.015517
9.23021e-05
0.015521
8.19289e-05
0.0155239
7.17855e-05
0.0155257
6.18912e-05
0.0155265
5.22646e-05
0.0155263
4.29231e-05
0.0155252
3.38831e-05
0.0155232
2.51597e-05
0.0155204
1.67664e-05
0.0155167
8.7147e-06
1.01303e-06
0.0150699
0.000301872
-0.0150385
0.0151003
0.000293567
0.0151296