/*--------------------------------*- C++ -*----------------------------------*\
  =========                 |
  \\      /  F ield         | OpenFOAM: The Open Source CFD Toolbox
   \\    /   O peration     | Website:  https://openfoam.org
    \\  /    A nd           | Version:  7
     \\/     M anipulation  |
\*---------------------------------------------------------------------------*/
FoamFile
{
    version     2.0;
    format      ascii;
    class       volVectorField;
    location    "95";
    object      U;
}
// * * * * * * * * * * * * * * * * * * * * * * * * * * * * * * * * * * * * * //

dimensions      [0 1 -1 0 0 0 0];

internalField   nonuniform List<vector> 
3500
(
(-0.0611796 0.00309716 6.21237e-20)
(-0.0905155 0.00326204 1.08202e-20)
(-0.116846 0.00326666 2.10902e-20)
(-0.139986 0.00349257 -1.21979e-20)
(-0.159663 0.00420117 -2.25592e-20)
(-0.174937 0.00529571 2.18641e-20)
(-0.188537 0.00872805 2.13898e-20)
(-0.193572 0.0108852 1.6746e-20)
(-0.00828633 0.011305 -7.86164e-20)
(-0.0302767 0.0202745 5.20407e-20)
(-0.0604988 0.0226511 -7.09086e-20)
(-0.0877607 0.0222729 3.71967e-21)
(-0.111436 0.0207902 -5.04284e-20)
(-0.131352 0.0192046 6.15991e-21)
(-0.147571 0.0179412 3.23049e-20)
(-0.157209 0.0154673 -1.41569e-19)
(-0.167596 0.0187562 3.47594e-20)
(-0.164038 0.0133412 1.11412e-22)
(-0.0101753 0.0203343 1.46094e-19)
(-0.0319814 0.036344 -1.30621e-20)
(-0.0592672 0.0404703 9.83189e-20)
(-0.0823373 0.0395952 -9.22932e-21)
(-0.100673 0.0366844 -1.07163e-19)
(-0.113919 0.033291 7.89918e-20)
(-0.123699 0.0305718 -3.39322e-20)
(-0.120874 0.023676 3.42308e-20)
(-0.126231 0.0288164 -1.02527e-19)
(-0.104337 0.013317 1.44659e-19)
(-0.0128752 0.0276704 1.70514e-20)
(-0.0345408 0.0497126 -2.32292e-19)
(-0.0576512 0.055417 -1.3811e-19)
(-0.0745767 0.0540777 7.26007e-20)
(-0.0850535 0.0498492 8.62035e-20)
(-0.0876941 0.044692 -1.43105e-19)
(-0.0885672 0.0408659 6.10958e-20)
(-0.0643705 0.0296777 4.05638e-20)
(-0.0630937 0.0376165 1.61097e-19)
(-0.00863945 0.0149022 -2.07234e-19)
(-0.0161654 0.0329778 -7.33865e-20)
(-0.0378129 0.0596195 1.14302e-19)
(-0.0557463 0.0665037 3.34242e-19)
(-0.0646474 0.0646188 -1.66507e-19)
(-0.0647981 0.0591048 1.5439e-19)
(-0.0524256 0.0525786 2.58779e-19)
(-0.0407849 0.0455677 -7.48048e-21)
(0.013572 0.0352825 7.46414e-21)
(0.0240448 0.0420402 -2.37685e-19)
(0.133527 0.0232075 1.11144e-19)
(-0.0198499 0.0362178 -1.73693e-19)
(-0.0415553 0.0656364 1.02883e-19)
(-0.0533791 0.0729898 -4.66091e-19)
(-0.0521846 0.0703028 2.2665e-19)
(-0.0387892 0.063273 3.14811e-20)
(-0.00730663 0.0565014 -2.92183e-19)
(0.0252288 0.0439481 -8.54986e-20)
(0.122224 0.0414576 8.47543e-20)
(0.137477 0.0366688 1.60046e-19)
(0.339599 0.0351433 -8.86146e-20)
(-0.0237894 0.037603 -1.90013e-20)
(-0.0453269 0.0676712 -3.237e-19)
(-0.0497645 0.0744951 3.19671e-19)
(-0.0357134 0.0705946 -2.29457e-19)
(-0.00344416 0.0621499 5.68881e-20)
(0.0539649 0.0563987 1.89429e-19)
(0.118295 0.0383071 -3.47016e-19)
(0.267885 0.0484986 -1.44022e-19)
(0.296739 0.0299293 1.21794e-19)
(0.598822 0.0476101 7.03903e-20)
(-0.0278923 0.037491 1.90461e-19)
(-0.0483162 0.0659016 5.58504e-19)
(-0.0430423 0.0711229 -5.38961e-19)
(-0.0114064 0.0656826 1.3166e-19)
(0.0479036 0.0565655 3.28769e-19)
(0.141826 0.0526663 -1.67255e-19)
(0.256473 0.0365449 -5.27296e-20)
(0.448152 0.0544263 -1.94498e-19)
(0.527803 0.0393155 2.31741e-19)
(0.861638 0.0693594 -1.61518e-19)
(-0.0320491 0.0362377 -3.49319e-19)
(-0.0492003 0.0607927 9.66186e-20)
(-0.0297635 0.0634502 2.01534e-19)
(0.0275243 0.0567257 -1.00291e-19)
(0.126387 0.0491386 -3.37872e-19)
(0.269696 0.0486316 3.99022e-19)
(0.447026 0.0484075 2.51858e-19)
(0.655792 0.0633626 2.25605e-19)
(0.807365 0.0698073 -1.83216e-19)
(1.07212 0.0975726 1.38097e-19)
(-0.0359075 0.0340499 -8.68102e-20)
(-0.0459787 0.0529002 -2.82492e-19)
(-0.00472287 0.0525766 -1.67684e-19)
(0.0907888 0.0464294 1.96659e-19)
(0.244305 0.0452361 3.77813e-20)
(0.446004 0.0534463 -2.34803e-19)
(0.669441 0.0725399 2.7274e-19)
(0.876019 0.0866193 -3.81522e-19)
(1.0481 0.111805 -2.14054e-19)
(1.19293 0.118518 7.44913e-20)
(-0.0387745 0.0309791 2.12013e-19)
(-0.0356641 0.0427488 2.97772e-19)
(0.03901 0.0403692 1.23676e-19)
(0.189121 0.0394296 1.72255e-19)
(0.40722 0.0514896 -9.98998e-20)
(0.656307 0.0751606 -2.54245e-19)
(0.885623 0.104483 1.00827e-19)
(1.06514 0.122106 1.23192e-19)
(1.18534 0.14515 4.08952e-19)
(1.23023 0.122679 -2.40367e-19)
(-0.0396706 0.0269991 3.16387e-19)
(-0.0142983 0.0308959 -3.85941e-20)
(0.109465 0.0298762 2.85219e-19)
(0.328954 0.0421936 -1.2674e-19)
(0.603148 0.0728515 3.86027e-19)
(0.862203 0.109749 1.52253e-19)
(1.05746 0.139544 1.87913e-19)
(1.18054 0.154543 -3.06977e-19)
(1.23328 0.158508 -1.25097e-19)
(1.25853 0.144695 1.19869e-19)
(-0.0372966 0.0219853 2.28034e-20)
(0.0229328 0.0182593 -2.78831e-19)
(0.213784 0.026159 -2.64563e-19)
(0.503746 0.0601761 -6.66766e-20)
(0.800163 0.107413 -1.05331e-19)
(1.02681 0.147233 1.1416e-19)
(1.16485 0.169931 -4.71739e-19)
(1.22971 0.173939 3.14353e-19)
(1.25335 0.172369 -3.31638e-21)
(1.25766 0.154545 -3.69115e-19)
(-0.0299546 0.0158549 -4.51454e-19)
(0.08144 0.00702059 -9.21017e-20)
(0.353279 0.0354695 -9.74617e-21)
(0.689937 0.0929222 2.8488e-20)
(0.965411 0.146798 1.48632e-19)
(1.13627 0.180194 -4.62355e-19)
(1.21903 0.191593 4.51003e-19)
(1.24963 0.189694 -9.92031e-20)
(1.25274 0.180625 5.78189e-20)
(1.247 0.163615 9.49292e-20)
(-0.0155479 0.00880587 1.20466e-20)
(0.165885 0.00185084 3.70142e-19)
(0.516843 0.0610991 9.391e-20)
(0.858896 0.133934 -5.03522e-20)
(1.08521 0.184021 -4.20829e-20)
(1.19975 0.206565 2.69252e-19)
(1.2433 0.209165 -1.17863e-21)
(1.25096 0.201396 1.95506e-19)
(1.2451 0.188816 -6.08956e-20)
(1.23876 0.173382 -2.87362e-21)
(0.00869289 0.00163956 7.37721e-20)
(0.277005 0.00946109 -1.34374e-19)
(0.682442 0.100192 1.05553e-19)
(0.994137 0.176721 1.39174e-19)
(1.16368 0.216951 -9.12987e-20)
(1.23247 0.228672 -1.52658e-20)
(1.24882 0.223669 -2.62309e-19)
(1.24472 0.212242 -1.71171e-19)
(1.23535 0.196839 2.08855e-19)
(1.22533 0.18186 -1.30896e-19)
(0.0456283 -0.00346394 9.54908e-20)
(0.408122 0.0346303 1.7026e-19)
(0.830255 0.146957 1.19432e-19)
(1.09321 0.218267 -1.79988e-19)
(1.21039 0.246266 2.12061e-19)
(1.2448 0.247834 -1.12073e-19)
(1.24475 0.237148 -2.79439e-20)
(1.23432 0.222437 -9.99988e-21)
(1.22274 0.204972 -5.91408e-20)
(1.21328 0.190915 1.88607e-20)
(0.0966219 -0.00298427 2.42523e-19)
(0.545828 0.0764316 -1.3457e-19)
(0.951124 0.197091 8.41679e-20)
(1.16026 0.257666 9.81007e-20)
(1.23386 0.272743 -6.98134e-20)
(1.24461 0.265532 1.05536e-19)
(1.23478 0.25005 3.82844e-20)
(1.22137 0.232576 5.07304e-20)
(1.20973 0.21357 3.217e-20)
(1.19906 0.199199 5.12866e-20)
(0.160466 0.00663511 -8.93828e-20)
(0.675801 0.130153 -1.30833e-19)
(1.04358 0.248258 -1.02303e-19)
(1.20105 0.294643 -9.6797e-20)
(1.2409 0.297217 -4.24215e-20)
(1.23617 0.282394 4.64873e-20)
(1.22123 0.262838 -2.28413e-20)
(1.20675 0.242685 -2.63825e-22)
(1.19482 0.2221 -2.08995e-20)
(1.18452 0.207052 3.74654e-21)
(0.233286 0.0274308 2.39252e-20)
(0.787915 0.190949 -5.20599e-21)
(1.10926 0.299075 2.30759e-20)
(1.22107 0.329341 1.80269e-20)
(1.23614 0.320213 1.3461e-20)
(1.22214 0.298811 -3.59651e-20)
(1.20484 0.275439 1.65467e-20)
(1.19021 0.252588 -1.60838e-20)
(1.17898 0.230444 -5.11292e-21)
(1.16893 0.21402 -8.33082e-21)
(0.309497 0.0593619 1.24333e-21)
(0.877557 0.255128 -7.22453e-22)
(1.15081 0.34852 -4.98946e-21)
(1.22475 0.361949 5.99572e-20)
(1.22272 0.342037 -1.6198e-20)
(1.20376 0.314723 -1.50774e-20)
(1.18593 0.287672 1.94587e-21)
(1.17196 0.262049 -1.57071e-21)
(1.16143 0.238065 -5.86015e-21)
(1.15228 0.220031 -1.2059e-20)
(0.383034 0.100808 -1.02939e-19)
(0.943784 0.32011 1.94462e-20)
(1.17126 0.395763 -1.65519e-19)
(1.21542 0.392421 -5.78097e-20)
(1.20252 0.362655 -1.7598e-20)
(1.18168 0.329893 -2.19437e-21)
(1.16457 0.299184 -1.14148e-20)
(1.1518 0.270728 -5.99496e-21)
(1.14252 0.24484 5.79746e-21)
(1.13406 0.224973 8.27563e-21)
(0.448351 0.149453 1.77612e-19)
(0.987019 0.383823 -9.03995e-20)
(1.17343 0.439899 1.25652e-19)
(1.19545 0.420501 4.97326e-20)
(1.1767 0.381792 -1.71756e-20)
(1.1562 0.343877 5.67231e-20)
(1.14079 0.309531 -1.44265e-20)
(1.12992 0.278329 1.5953e-20)
(1.12196 0.250719 3.26351e-21)
(1.11415 0.228761 4.62597e-21)
(0.501169 0.202708 -1.08797e-19)
(1.00856 0.444483 4.11268e-19)
(1.15987 0.480088 -7.55e-20)
(1.16656 0.445748 -4.17124e-20)
(1.14601 0.398927 8.70154e-20)
(1.12764 0.356144 -3.59589e-20)
(1.11478 0.318235 -1.22422e-20)
(1.10628 0.284503 -7.77636e-21)
(1.09977 0.255623 2.45916e-21)
(1.09334 0.231366 -1.09979e-20)
(0.538792 0.257802 -1.97213e-19)
(1.01013 0.500442 -2.19405e-19)
(1.13264 0.515413 1.33499e-19)
(1.13017 0.467513 3.67907e-20)
(1.11115 0.413385 -4.23906e-20)
(1.09635 0.366144 -4.01197e-21)
(1.08676 0.324926 1.89819e-20)
(1.08082 0.289018 7.63044e-21)
(1.07596 0.258927 -2.27959e-20)
(1.07191 0.232622 -2.17857e-21)
(0.560078 0.311848 6.78406e-20)
(0.993636 0.55014 2.81359e-19)
(1.09352 0.544845 -5.6788e-20)
(1.08766 0.484976 4.33271e-21)
(1.07279 0.424451 -3.03153e-21)
(1.06252 0.373264 -4.08656e-22)
(1.05677 0.329302 1.43913e-20)
(1.05366 0.291544 -1.31261e-20)
(1.05108 0.260352 2.11379e-20)
(1.04989 0.232434 -2.03086e-20)
(0.565226 0.362065 -5.01422e-19)
(0.960851 0.591949 2.40594e-20)
(1.04458 0.567387 -1.03752e-19)
(1.04015 0.497106 1.08e-20)
(1.03126 0.431479 -1.41966e-21)
(1.0264 0.377 6.18497e-20)
(1.02511 0.33087 -4.965e-20)
(1.02533 0.291755 2.8658e-20)
(1.0257 0.259611 -2.72222e-20)
(1.028 0.230731 -9.1401e-20)
(0.555307 0.406167 2.54546e-19)
(0.913332 0.62379 -2.36345e-19)
(0.988128 0.582174 -1.64273e-20)
(0.988617 0.50311 -1.11569e-21)
(0.987164 0.433699 9.42554e-20)
(0.988543 0.37681 -1.00949e-20)
(0.992193 0.329218 7.36166e-20)
(0.996381 0.289252 8.60516e-21)
(1.00069 0.256525 6.03468e-21)
(1.00709 0.227606 1.27693e-19)
(0.531441 0.442459 1.39779e-19)
(0.85357 0.644087 -1.89517e-20)
(0.926181 0.58796 -8.71587e-21)
(0.934132 0.502529 7.31151e-20)
(0.941244 0.430571 -3.18281e-20)
(0.94942 0.372203 -1.11937e-19)
(0.958504 0.323817 -7.20033e-20)
(0.967432 0.283446 7.06829e-21)
(0.976736 0.250574 9.8956e-20)
(0.987517 0.223414 -8.09611e-20)
(0.494814 0.468383 -1.44799e-20)
(0.785602 0.652501 -2.68168e-20)
(0.86061 0.583832 -1.01551e-19)
(0.877846 0.494809 4.24561e-21)
(0.894287 0.421664 1.5229e-19)
(0.909679 0.362831 -4.85629e-20)
(0.924598 0.314331 1.82066e-19)
(0.938885 0.273767 -2.51577e-19)
(0.953752 0.240493 -1.69291e-19)
(0.968136 0.216975 -3.664e-20)
(0.447764 0.480689 3.9964e-20)
(0.711969 0.647494 5.47338e-20)
(0.792953 0.569687 3.55993e-20)
(0.820953 0.479506 -5.40582e-20)
(0.847177 0.406697 -2.29406e-19)
(0.870049 0.348511 2.16237e-19)
(0.891121 0.300778 8.39281e-20)
(0.910967 0.260618 1.08837e-19)
(0.931069 0.225826 3.12288e-19)
(0.94631 0.199669 -7.59045e-20)
(0.394453 0.47902 1.32614e-19)
(0.635669 0.628638 -2.3558e-20)
(0.725094 0.545328 -5.79969e-20)
(0.764712 0.456366 1.13274e-19)
(0.800879 0.385478 2.02476e-19)
(0.83137 0.329099 -4.80793e-19)
(0.858785 0.283144 -7.48543e-20)
(0.883903 0.244982 -1.95645e-19)
(0.907103 0.212751 3.95801e-20)
(0.921872 0.187923 -1.42158e-19)
(0.33804 0.462992 -2.68687e-19)
(0.559362 0.595592 -1.20859e-19)
(0.658826 0.510818 4.03157e-19)
(0.710414 0.425391 -2.31291e-19)
(0.756392 0.358014 -3.34022e-19)
(0.794438 0.304549 3.13535e-19)
(0.828152 0.260943 -2.87469e-19)
(0.858384 0.224496 1.43043e-19)
(0.884921 0.193622 -1.78116e-19)
(0.901834 0.170079 2.81924e-19)
(0.281657 0.433034 -1.0887e-19)
(0.485843 0.548733 5.98228e-19)
(0.595957 0.466428 -6.23093e-19)
(0.65935 0.386799 2.61224e-20)
(0.714725 0.324553 2.03535e-19)
(0.759955 0.275362 -1.25032e-20)
(0.799384 0.235493 4.39549e-19)
(0.833771 0.202389 -3.83479e-19)
(0.863042 0.174332 2.79654e-19)
(0.883063 0.152302 -1.89188e-19)
(0.228122 0.390166 -1.78042e-19)
(0.417627 0.488794 9.73112e-20)
(0.538213 0.41267 2.68178e-19)
(0.612785 0.340988 3.08525e-19)
(0.67692 0.285309 -7.0862e-20)
(0.728876 0.241359 2.92928e-19)
(0.773624 0.205751 2.4516e-20)
(0.811831 0.176236 3.17098e-20)
(0.843792 0.151413 -1.125e-19)
(0.866866 0.132028 -6.08538e-21)
(0.179841 0.335957 5.37158e-19)
(0.35697 0.416975 -3.72892e-19)
(0.487256 0.350331 -4.98364e-19)
(0.571883 0.288667 2.79545e-20)
(0.643782 0.241026 -1.46641e-19)
(0.701612 0.203534 1.22548e-19)
(0.750891 0.173241 -4.48474e-19)
(0.792353 0.148135 1.32354e-19)
(0.826902 0.126924 3.76879e-19)
(0.853079 0.110187 -1.82315e-19)
(0.138692 0.272081 7.27874e-20)
(0.305897 0.335033 4.63459e-19)
(0.444669 0.280482 3.34888e-19)
(0.537789 0.230626 -3.13301e-19)
(0.61626 0.192201 1.95641e-19)
(0.679041 0.162003 -8.86472e-20)
(0.732077 0.137653 -5.77656e-20)
(0.776209 0.117526 -2.74653e-20)
(0.81299 0.100522 -1.16517e-19)
(0.841944 0.0869792 2.15213e-19)
(0.106235 0.200176 -3.59416e-19)
(0.266071 0.245005 -4.19082e-19)
(0.41166 0.204579 -6.77886e-21)
(0.511384 0.167979 2.98502e-19)
(0.594969 0.139815 -5.47194e-20)
(0.661583 0.117708 -5.92655e-20)
(0.7175 0.0998999 8.61271e-20)
(0.763688 0.0851822 -4.65147e-20)
(0.802273 0.072718 -3.71757e-20)
(0.833534 0.06271 3.86366e-20)
(0.0838164 0.122281 5.22556e-20)
(0.238802 0.149058 -6.87257e-20)
(0.389162 0.124234 2.96515e-19)
(0.493403 0.101908 -7.2759e-20)
(0.580487 0.0847427 1.37317e-19)
(0.649717 0.0712835 -3.68917e-20)
(0.707584 0.0604546 -5.75734e-20)
(0.755163 0.0515109 9.22694e-20)
(0.795004 0.0439186 1.28301e-20)
(0.827927 0.0377776 -3.32636e-20)
(0.484327 0.0337516 -6.88946e-20)
(0.573183 0.0280457 3.16103e-20)
(0.643736 0.0235795 -1.6751e-20)
(0.702584 0.0199918 1.99832e-20)
(0.750862 0.0170322 -2.62646e-20)
(0.791346 0.0145177 -1.60111e-20)
(0.825137 0.0124767 5.81192e-24)
(-0.197138 0.0161553 -4.90888e-20)
(-0.20067 0.0190056 3.51263e-20)
(-0.203673 0.0218807 4.8188e-22)
(-0.206262 0.0248473 -6.07864e-21)
(-0.208503 0.0278355 -1.21455e-20)
(-0.210428 0.0307747 -1.39745e-20)
(-0.212071 0.033594 -2.39276e-20)
(-0.213458 0.0362204 4.25382e-20)
(-0.214613 0.0385799 -2.4151e-20)
(-0.215556 0.040599 4.95811e-20)
(-0.216302 0.0422061 -3.12317e-20)
(-0.216866 0.0433328 -4.51726e-21)
(-0.217258 0.0439151 -1.10849e-20)
(-0.217488 0.0438945 2.87601e-20)
(-0.217564 0.0432194 -1.89713e-20)
(-0.217494 0.0418456 1.94149e-20)
(-0.217282 0.0397383 -1.35004e-20)
(-0.216934 0.0368719 -1.14237e-20)
(-0.216453 0.0332315 7.35854e-21)
(-0.215841 0.0288133 -4.92009e-21)
(-0.215098 0.0236251 1.83525e-20)
(-0.214222 0.0176864 -8.36273e-21)
(-0.213205 0.0110295 -1.24301e-20)
(-0.212032 0.00369553 7.7131e-21)
(-0.210741 -0.00426085 -1.04875e-20)
(-0.209366 -0.0127743 1.23438e-20)
(-0.207894 -0.021749 3.41891e-21)
(-0.206323 -0.031088 -9.86359e-21)
(-0.204654 -0.0406868 1.76738e-20)
(-0.164035 0.0209403 5.00036e-21)
(-0.166971 0.0232981 4.14275e-20)
(-0.16918 0.0254993 -6.50551e-20)
(-0.170942 0.0278739 9.97281e-20)
(-0.172398 0.0303404 -8.21825e-20)
(-0.173557 0.0328209 -2.76738e-21)
(-0.174438 0.0352386 1.07768e-19)
(-0.175065 0.0375131 -3.50762e-20)
(-0.175456 0.0395623 1.3201e-20)
(-0.175628 0.0413054 -4.2736e-20)
(-0.175593 0.0426647 -5.03512e-20)
(-0.175363 0.043567 2.71229e-20)
(-0.174948 0.0439442 -3.55235e-20)
(-0.174359 0.0437344 7.11481e-20)
(-0.173604 0.0428828 -2.24994e-20)
(-0.172693 0.0413432 2.36225e-20)
(-0.171634 0.0390787 -1.21802e-20)
(-0.170435 0.0360624 -2.81438e-20)
(-0.169107 0.0322783 3.17221e-20)
(-0.167657 0.0277212 -1.04724e-20)
(-0.166096 0.0223974 -4.66886e-20)
(-0.164429 0.0163261 4.35118e-20)
(-0.162664 0.00954045 -2.84951e-20)
(-0.1608 0.00208978 -6.64332e-21)
(-0.158879 -0.00601939 1.09598e-20)
(-0.156924 -0.0146727 3.18789e-20)
(-0.154934 -0.0237812 -8.75295e-21)
(-0.152931 -0.0332497 5.86076e-20)
(-0.150935 -0.0429739 -8.45248e-22)
(-0.0990762 0.0237016 -1.2833e-19)
(-0.101404 0.0253504 5.14788e-20)
(-0.102453 0.0271327 -1.36209e-19)
(-0.103043 0.0290392 2.4848e-19)
(-0.103442 0.0310572 -1.67729e-19)
(-0.103602 0.0331394 2.0437e-19)
(-0.103506 0.0352115 -2.04188e-19)
(-0.103163 0.0371909 9.24342e-20)
(-0.102587 0.0389836 -2.08289e-20)
(-0.101785 0.0404989 1.13566e-19)
(-0.100766 0.0416548 -5.27683e-20)
(-0.0995355 0.0423754 -6.76044e-20)
(-0.0981029 0.0425897 -1.31545e-19)
(-0.0964768 0.0422333 1.36037e-19)
(-0.0946662 0.0412493 -1.73631e-21)
(-0.0926815 0.0395894 -1.24701e-19)
(-0.0905338 0.037215 2.83803e-20)
(-0.0882364 0.0340986 1.10294e-19)
(-0.0858047 0.0302241 -3.17398e-20)
(-0.0832564 0.0255885 5.85257e-21)
(-0.0806086 0.0202007 6.71884e-20)
(-0.0778738 0.0140804 -6.52837e-20)
(-0.0750599 0.00725979 1.0579e-19)
(-0.0722581 -0.000225303 -1.6215e-20)
(-0.0694447 -0.00833471 -1.39506e-19)
(-0.0665904 -0.0169642 1.40749e-19)
(-0.0637774 -0.0260391 -5.12995e-20)
(-0.0610367 -0.0354637 4.97377e-20)
(-0.0583988 -0.0451329 -1.45591e-19)
(0.000449469 0.0220615 6.3003e-21)
(-0.00253425 0.0241278 -1.52057e-19)
(-0.0022957 0.0261549 1.35508e-19)
(-0.00208622 0.0279038 9.76095e-20)
(-0.00169969 0.0296893 -6.59136e-20)
(-0.0010909 0.0314986 -1.30643e-19)
(-0.000220459 0.0332869 5.15268e-21)
(0.000909284 0.0349936 9.54831e-20)
(0.00228455 0.0365334 -7.8965e-20)
(0.00391257 0.0378209 1.33529e-19)
(0.00580054 0.0387787 -1.71593e-19)
(0.00794508 0.0393326 1.64803e-19)
(0.0103374 0.0394104 -3.73375e-20)
(0.0129671 0.0389447 2.61796e-20)
(0.015822 0.0378757 4.75148e-20)
(0.0188885 0.0361524 -4.00592e-20)
(0.0221514 0.0337333 -1.69798e-19)
(0.0255944 0.030588 7.02276e-20)
(0.029199 0.0266994 1.35823e-19)
(0.0329423 0.0220641 -4.14643e-20)
(0.0367935 0.0166931 -6.12024e-20)
(0.0407201 0.0106104 -2.18702e-20)
(0.0446915 0.00384939 -7.92878e-21)
(0.0486465 -0.0035736 -6.02837e-20)
(0.0525838 -0.0115515 1.6359e-19)
(0.0564873 -0.0200343 -1.77247e-21)
(0.0602989 -0.0289412 -5.2585e-20)
(0.0639721 -0.0381761 2.74903e-20)
(0.0674616 -0.0476337 -4.75515e-20)
(0.0707223 -0.0572008 -8.53158e-20)
(0.143461 0.0222837 5.80343e-20)
(0.141071 0.0228406 7.90222e-21)
(0.138534 0.0238849 -2.94053e-19)
(0.137278 0.0254017 1.2713e-19)
(0.136743 0.0270207 -1.07811e-19)
(0.136693 0.0285923 2.58344e-20)
(0.137118 0.0301124 -4.64154e-20)
(0.137988 0.0315405 1.06429e-19)
(0.139264 0.0327917 -3.37008e-21)
(0.140937 0.0337902 3.40909e-19)
(0.143005 0.0344786 -5.5142e-20)
(0.145455 0.0347984 -1.47202e-19)
(0.148267 0.0346829 -2.31045e-20)
(0.151421 0.0340652 -6.57467e-21)
(0.154897 0.0328851 -5.93808e-20)
(0.15867 0.0310895 -5.56295e-20)
(0.162716 0.0286336 3.00444e-21)
(0.167006 0.0254823 7.16078e-20)
(0.171514 0.0216137 9.84207e-20)
(0.17621 0.0170211 -1.12338e-19)
(0.181062 0.0117153 1.19681e-19)
(0.186027 0.00572394 -1.6034e-19)
(0.19102 -0.000925165 5.35755e-20)
(0.196005 -0.00818516 -2.01956e-20)
(0.200981 -0.015973 -1.42291e-19)
(0.205885 -0.0242311 1.23466e-19)
(0.210658 -0.0328786 3.28899e-20)
(0.215244 -0.0418212 -8.35155e-20)
(0.219588 -0.0509547 1.11808e-19)
(0.22363 -0.0601663 5.3598e-20)
(0.33699 0.0311938 -1.27945e-20)
(0.333074 0.0287642 -7.27961e-20)
(0.327792 0.0275681 6.98156e-20)
(0.322837 0.0273477 1.67966e-19)
(0.318703 0.027504 4.23054e-20)
(0.315554 0.0278755 -1.66661e-19)
(0.313355 0.0284713 2.90992e-20)
(0.311951 0.0291726 2.17505e-19)
(0.311256 0.0297965 -5.93722e-19)
(0.311263 0.0302277 2.10397e-19)
(0.311963 0.0304101 -1.83033e-19)
(0.313313 0.0302876 3.33105e-19)
(0.315261 0.0297911 1.00653e-19)
(0.317764 0.0288534 -2.85436e-19)
(0.320782 0.0274166 4.11652e-19)
(0.324273 0.0254287 -8.61514e-20)
(0.328192 0.0228427 -2.74608e-19)
(0.332493 0.0196186 -2.58295e-19)
(0.337129 0.0157282 3.34995e-19)
(0.342057 0.0111595 1.91996e-19)
(0.347228 0.00592329 -2.60969e-19)
(0.352585 3.60668e-05 2.66673e-19)
(0.358057 -0.00645948 -4.09143e-19)
(0.36358 -0.0135094 9.9076e-20)
(0.369099 -0.0210658 -4.24866e-20)
(0.374551 -0.0290586 1.6994e-19)
(0.379868 -0.0374026 5.68972e-20)
(0.384982 -0.0460041 -2.91802e-19)
(0.389823 -0.0547594 -4.52218e-20)
(0.394325 -0.063555 1.75799e-19)
(0.578557 0.0438059 -1.10406e-19)
(0.568722 0.0411347 1.31592e-20)
(0.55952 0.0392095 1.94988e-19)
(0.550107 0.0374931 -2.18329e-19)
(0.541214 0.035683 1.12187e-19)
(0.533595 0.0341271 1.04103e-19)
(0.527291 0.0330413 9.15257e-20)
(0.522011 0.032241 -2.75827e-19)
(0.517647 0.0314892 -1.64504e-19)
(0.514258 0.0306889 -3.34321e-20)
(0.511869 0.029796 5.0146e-19)
(0.510429 0.0287357 1.05782e-20)
(0.509867 0.0274181 -4.79619e-19)
(0.510129 0.0257686 1.68382e-19)
(0.511163 0.0237284 -1.45842e-20)
(0.512911 0.021243 1.06357e-19)
(0.515311 0.0182604 6.12473e-20)
(0.518298 0.0147323 -1.01848e-19)
(0.52181 0.0106159 2.53528e-19)
(0.52579 0.00588169 1.40508e-20)
(0.530151 0.000512436 -5.00412e-19)
(0.534832 -0.00540338 2.45059e-19)
(0.539737 -0.0118313 1.24052e-19)
(0.544769 -0.0187512 -1.67618e-20)
(0.549867 -0.0261123 -5.69039e-20)
(0.554959 -0.0338446 7.43984e-20)
(0.559963 -0.0418664 1.35862e-19)
(0.564791 -0.05009 -5.0558e-19)
(0.569364 -0.0584173 4.26567e-19)
(0.573604 -0.0667382 -2.65963e-19)
(0.577434 -0.0749359 -7.58241e-20)
(0.832746 0.0623677 1.12704e-19)
(0.818111 0.058904 -2.79467e-19)
(0.805382 0.0566901 3.12223e-22)
(0.79227 0.0538399 2.64699e-19)
(0.779581 0.0503778 -7.47863e-20)
(0.768369 0.0472273 -1.82302e-19)
(0.758569 0.0446042 3.18216e-20)
(0.74972 0.0421847 6.81356e-20)
(0.741757 0.03979 -8.42825e-20)
(0.734827 0.0374421 1.33651e-19)
(0.728989 0.0351342 7.4056e-20)
(0.724205 0.0327775 6.45948e-20)
(0.720426 0.0302781 -1.69769e-19)
(0.717624 0.0275692 6.15281e-20)
(0.715758 0.024593 6.07982e-21)
(0.714771 0.0212912 -2.25454e-19)
(0.714594 0.0176094 3.04949e-19)
(0.715153 0.013507 -2.42328e-19)
(0.716373 0.00895982 1.44267e-19)
(0.718182 0.00394174 -1.65129e-19)
(0.720603 -0.00152679 1.07285e-19)
(0.723541 -0.00749159 -8.74546e-20)
(0.726822 -0.0139551 -1.76638e-20)
(0.730333 -0.0208432 -1.78957e-19)
(0.733993 -0.0281124 3.5674e-20)
(0.737722 -0.0356931 2.47963e-19)
(0.741423 -0.0435015 1.0111e-19)
(0.744995 -0.0514579 -2.44117e-19)
(0.748347 -0.0594712 1.55072e-19)
(0.751396 -0.0674354 -1.17828e-19)
(0.754059 -0.0752391 1.46127e-19)
(0.756258 -0.0827698 -1.32563e-19)
(1.04546 0.0864242 5.26581e-21)
(1.03167 0.0822715 1.58358e-19)
(1.01891 0.0791381 1.3829e-19)
(1.00506 0.0744361 -3.92641e-19)
(0.991633 0.069257 1.36303e-19)
(0.979717 0.0647573 1.54392e-19)
(0.968972 0.0607437 3.4859e-20)
(0.958899 0.0567722 1.06094e-19)
(0.949532 0.0528113 -2.45288e-19)
(0.941048 0.0489575 -1.39372e-19)
(0.933481 0.0451822 2.82587e-19)
(0.9268 0.0413984 -1.09692e-19)
(0.921 0.0375481 -2.73936e-19)
(0.916081 0.0335899 3.62001e-19)
(0.912028 0.0294745 -2.10205e-19)
(0.908807 0.0251514 9.04824e-20)
(0.906387 0.0205752 2.21752e-19)
(0.904734 0.01571 -2.46359e-19)
(0.903782 0.0105237 -3.08293e-19)
(0.903488 0.00497863 1.1885e-20)
(0.903718 -0.000970083 3.42766e-19)
(0.904334 -0.00736306 2.70739e-19)
(0.905377 -0.014073 -2.69845e-19)
(0.906728 -0.0210551 -2.77073e-19)
(0.908254 -0.0283204 1.58151e-19)
(0.909884 -0.0357813 1.817e-19)
(0.911519 -0.0433613 8.64552e-20)
(0.913048 -0.0510038 -1.67827e-19)
(0.91438 -0.0586308 1.8991e-19)
(0.915435 -0.0661461 -3.74309e-19)
(0.916133 -0.0734512 9.32061e-20)
(0.916397 -0.080447 -1.24147e-19)
(1.1783 0.106877 -2.68047e-19)
(1.1709 0.10386 3.89001e-19)
(1.1624 0.0999416 -4.93683e-20)
(1.15232 0.0941572 -2.08146e-19)
(1.14266 0.0885306 3.08833e-19)
(1.13407 0.0836445 -4.01068e-19)
(1.12603 0.0789714 -1.27814e-19)
(1.11823 0.0742339 -1.12114e-19)
(1.11075 0.0695155 3.2153e-19)
(1.10374 0.0648631 -2.0133e-19)
(1.09722 0.0602261 2.72542e-19)
(1.09121 0.0555581 1.24579e-19)
(1.08573 0.0508356 -1.70752e-19)
(1.08081 0.0460301 -3.18526e-19)
(1.07644 0.0411031 3.75129e-19)
(1.07262 0.0360144 8.31071e-20)
(1.06933 0.0307266 -8.15163e-20)
(1.06653 0.0252067 -1.6386e-19)
(1.06418 0.0194182 3.25016e-19)
(1.06227 0.0133613 -3.8826e-19)
(1.06074 0.00701962 4.16442e-19)
(1.0596 0.000456087 -1.03357e-19)
(1.05877 -0.00630933 -3.00612e-19)
(1.05812 -0.0134336 -8.16711e-20)
(1.05754 -0.0208694 4.50505e-19)
(1.05702 -0.0284595 3.29685e-20)
(1.05643 -0.0361402 -2.16657e-19)
(1.05567 -0.0438645 3.47215e-20)
(1.05468 -0.0515535 -2.66017e-19)
(1.05339 -0.0591158 -2.9153e-21)
(1.05175 -0.0664607 2.37629e-19)
(1.0497 -0.0734979 4.19319e-20)
(1.04719 -0.0801355 -1.8092e-19)
(1.25926 0.128945 0)
(1.25857 0.122244 0)
(1.25355 0.116196 0)
(1.24705 0.110267 0)
(1.241 0.104391 0)
(1.23576 0.0984952 0)
(1.23097 0.0926298 0)
(1.22634 0.0868983 0)
(1.22183 0.0813206 0)
(1.21748 0.075843 0)
(1.21331 0.0704092 0)
(1.20936 0.0649836 0)
(1.20564 0.0595431 0)
(1.20216 0.0540611 0)
(1.19893 0.0485146 0)
(1.19595 0.0428788 0)
(1.19321 0.0371348 0)
(1.1907 0.0312746 0)
(1.18842 0.02528 0)
(1.18633 0.0191693 0)
(1.18432 0.0129125 0)
(1.18238 0.00652434 0)
(1.18022 -1.13421e-05 0)
(1.17786 -0.00667746 0)
(1.17555 -0.0133956 0)
(1.17327 -0.0201429 0)
(1.17084 -0.0268957 0)
(1.16815 -0.0336044 0)
(1.16518 -0.0402063 0)
(1.1619 -0.0466367 2.08424e-27)
(1.15827 -0.0528307 -2.08428e-27)
(1.15427 -0.0587222 0)
(1.14989 -0.0642454 0)
(1.26323 0.131852 0)
(1.26949 0.124578 0)
(1.27088 0.118159 0)
(1.26966 0.112275 0)
(1.26814 0.106564 0)
(1.26716 0.100873 0)
(1.26659 0.0952253 0)
(1.2661 0.0896798 0)
(1.26549 0.0842391 0)
(1.26473 0.0788591 0)
(1.26386 0.0734925 0)
(1.26292 0.0681048 0)
(1.26196 0.0626727 0)
(1.26097 0.057176 0)
(1.25996 0.0515971 0)
(1.2589 0.0459158 0)
(1.25778 0.0401133 0)
(1.2566 0.0341681 0)
(1.25531 0.0280635 0)
(1.25389 0.0217827 0)
(1.2523 0.0153321 0)
(1.25052 0.00874942 0)
(1.24859 0.00207319 0)
(1.2466 -0.00455594 0)
(1.24439 -0.0111428 0)
(1.24183 -0.0177222 0)
(1.23892 -0.0242695 0)
(1.23568 -0.0307275 0)
(1.2321 -0.0370358 0)
(1.22816 -0.0431368 6.11915e-27)
(1.22387 -0.0489734 -6.11915e-27)
(1.21921 -0.0544877 0)
(1.21419 -0.0596216 0)
(1.25582 0.128651 0)
(1.26364 0.122059 0)
(1.26704 0.11577 0)
(1.26778 0.109913 0)
(1.26801 0.104355 0)
(1.2687 0.0989493 0)
(1.26984 0.0936223 0)
(1.27112 0.0883567 0)
(1.27227 0.083143 0)
(1.27322 0.0779607 0)
(1.274 0.072782 0)
(1.27465 0.0675806 0)
(1.2752 0.0623355 0)
(1.27564 0.0570301 0)
(1.27595 0.0516502 0)
(1.27613 0.0461845 0)
(1.27614 0.040624 0)
(1.27597 0.0349645 0)
(1.27561 0.0292122 0)
(1.27504 0.0233754 0)
(1.27426 0.017487 0)
(1.27327 0.0115614 0)
(1.27204 0.00563568 0)
(1.27048 -0.00032576 0)
(1.26854 -0.00632261 0)
(1.26625 -0.0122957 0)
(1.26363 -0.0181904 0)
(1.26067 -0.0239593 0)
(1.25736 -0.0295582 0)
(1.25368 -0.0349426 1.83871e-27)
(1.24965 -0.0400662 -1.83871e-27)
(1.24528 -0.0448825 0)
(1.24059 -0.0493462 0)
(1.24551 0.124205 0)
(1.25336 0.118194 0)
(1.25749 0.112218 0)
(1.25918 0.106541 0)
(1.26025 0.101159 0)
(1.26161 0.0959619 0)
(1.26335 0.0908537 0)
(1.26521 0.0857884 0)
(1.26696 0.0807519 0)
(1.26851 0.0757367 0)
(1.26988 0.0707305 0)
(1.2711 0.0657168 0)
(1.2722 0.0606789 0)
(1.27317 0.0556036 0)
(1.274 0.0504808 0)
(1.27467 0.0453046 0)
(1.27516 0.040072 0)
(1.27546 0.0347849 0)
(1.27555 0.0294473 0)
(1.27543 0.0240674 0)
(1.27507 0.0186506 0)
(1.27443 0.0131946 0)
(1.2735 0.00770675 0)
(1.27225 0.00220094 0)
(1.27071 -0.00326738 0)
(1.26884 -0.00865517 0)
(1.26665 -0.0139359 0)
(1.26412 -0.0190828 0)
(1.26126 -0.0240635 0)
(1.25807 -0.0288416 0)
(1.25455 -0.0333797 0)
(1.25073 -0.0376411 0)
(1.24662 -0.0415905 0)
(1.23436 0.118644 0)
(1.24196 0.113181 0)
(1.2464 0.107659 0)
(1.24866 0.102319 0)
(1.25024 0.0972038 0)
(1.25198 0.0922484 0)
(1.25398 0.0873746 0)
(1.25606 0.0825362 0)
(1.25802 0.077718 0)
(1.25978 0.072917 0)
(1.26136 0.0681286 0)
(1.26277 0.0633436 0)
(1.26404 0.0585505 0)
(1.26518 0.0537395 0)
(1.26617 0.0489034 0)
(1.26699 0.0440384 0)
(1.26764 0.0391429 0)
(1.26809 0.0342173 0)
(1.26834 0.0292632 0)
(1.26836 0.0242836 0)
(1.26815 0.019283 0)
(1.26767 0.0142739 0)
(1.26694 0.0092755 0)
(1.26594 0.00431728 0)
(1.26466 -0.000580769 0)
(1.2631 -0.00540204 0)
(1.26124 -0.0101211 0)
(1.25908 -0.0147098 0)
(1.25663 -0.0191391 0)
(1.25389 -0.0233792 0)
(1.25087 -0.0274008 0)
(1.24759 -0.0311747 0)
(1.24407 -0.034673 0)
(1.22378 0.112433 0)
(1.23103 0.107534 0)
(1.23555 0.10251 0)
(1.23811 0.0975783 0)
(1.24001 0.0928003 0)
(1.24197 0.0881419 0)
(1.24412 0.0835475 0)
(1.24629 0.0789803 0)
(1.24833 0.0744268 0)
(1.25018 0.0698854 0)
(1.25183 0.0653552 0)
(1.25331 0.0608316 0)
(1.25464 0.0563079 0)
(1.25582 0.0517777 0)
(1.25685 0.0472361 0)
(1.25771 0.0426807 0)
(1.2584 0.0381109 0)
(1.25889 0.033528 0)
(1.25918 0.0289353 0)
(1.25926 0.0243389 0)
(1.25913 0.0197492 0)
(1.25877 0.0151798 0)
(1.25817 0.0106467 0)
(1.25734 0.00616406 0)
(1.25625 0.00174548 0)
(1.25491 -0.00259317 0)
(1.2533 -0.00683011 0)
(1.25145 -0.0109401 0)
(1.24934 -0.0148986 0)
(1.24699 -0.0186821 0)
(1.2444 -0.0222678 0)
(1.24159 -0.0256329 0)
(1.23858 -0.0287552 0)
(1.21428 0.106131 0)
(1.22106 0.101741 0)
(1.2255 0.0971867 0)
(1.22822 0.0926666 0)
(1.23032 0.0882471 0)
(1.23242 0.0839105 5.09276e-28)
(1.23463 0.0796177 -5.09276e-28)
(1.23684 0.0753411 0)
(1.23892 0.0710711 0)
(1.24079 0.0668073 0)
(1.24247 0.062551 0)
(1.24397 0.0583012 0)
(1.24532 0.0540548 0)
(1.24651 0.0498084 0)
(1.24755 0.0455596 0)
(1.24842 0.0413081 0)
(1.24911 0.0370551 0)
(1.24963 0.032804 0)
(1.24995 0.0285599 0)
(1.25008 0.0243302 0)
(1.25001 0.0201234 0)
(1.24973 0.0159496 0)
(1.24924 0.0118184 0)
(1.24853 0.00774217 0)
(1.2476 0.00373372 0)
(1.24645 -0.00018849 0)
(1.24507 -0.00400681 0)
(1.24347 -0.00770283 0)
(1.24166 -0.0112579 0)
(1.23964 -0.014653 0)
(1.23742 -0.0178696 0)
(1.23501 -0.02089 0)
(1.23243 -0.0236967 0)
(1.20572 0.0998736 0)
(1.21201 0.0959301 0)
(1.2163 0.0918117 0)
(1.2191 0.0876903 0)
(1.22132 0.0836296 0)
(1.2235 0.0796216 -8.09989e-28)
(1.22575 0.0756383 8.09989e-28)
(1.22797 0.0716601 0)
(1.23005 0.0676808 0)
(1.23193 0.0637021 0)
(1.23362 0.059727 0)
(1.23513 0.055757 0)
(1.23648 0.0517917 0)
(1.23768 0.0478303 0)
(1.23873 0.0438729 0)
(1.2396 0.0399207 0)
(1.24031 0.0359766 0)
(1.24085 0.0320445 0)
(1.24121 0.0281297 0)
(1.24139 0.0242383 0)
(1.24138 0.0203775 0)
(1.24118 0.0165555 0)
(1.24079 0.0127818 0)
(1.2402 0.00906802 0)
(1.23941 0.00542724 0)
(1.23843 0.00187365 0)
(1.23726 -0.00157889 0)
(1.23589 -0.00491684 0)
(1.23434 -0.0081252 0)
(1.23261 -0.0111887 4.40147e-27)
(1.23071 -0.0140921 -4.40147e-27)
(1.22864 -0.0168209 0)
(1.22643 -0.0193615 0)
(1.19791 0.0936996 0)
(1.20374 0.0901622 0)
(1.20787 0.0864489 0)