/*--------------------------------*- C++ -*----------------------------------*\
  =========                 |
  \\      /  F ield         | OpenFOAM: The Open Source CFD Toolbox
   \\    /   O peration     | Website:  https://openfoam.org
    \\  /    A nd           | Version:  7
     \\/     M anipulation  |
\*---------------------------------------------------------------------------*/
FoamFile
{
    version     2.0;
    format      ascii;
    class       volVectorField;
    location    "25";
    object      U;
}
// * * * * * * * * * * * * * * * * * * * * * * * * * * * * * * * * * * * * * //

dimensions      [0 1 -1 0 0 0 0];

internalField   nonuniform List<vector> 
1360
(
(0.508441 -0.00438389 -1.68846e-21)
(0.512815 -0.00431098 -3.3695e-22)
(0.517121 -0.00423948 1.5574e-21)
(0.521359 -0.00416937 4.8964e-22)
(0.525532 -0.00410063 -1.31005e-21)
(0.529639 -0.00403325 -2.02757e-21)
(0.533684 -0.00396721 2.73083e-21)
(0.537665 -0.00390249 -2.36866e-22)
(0.541586 -0.00383908 -1.46521e-21)
(0.545447 -0.00377695 7.22087e-22)
(0.549249 -0.00371609 -1.01982e-21)
(0.552994 -0.00365648 1.82026e-21)
(0.556682 -0.0035981 2.25214e-22)
(0.560315 -0.00354092 -1.48724e-21)
(0.563894 -0.00348493 -3.84722e-22)
(0.56742 -0.00343011 5.28677e-22)
(0.570894 -0.00337643 3.88344e-22)
(0.574316 -0.00332387 -5.23952e-22)
(0.577689 -0.00327242 2.19292e-22)
(0.581013 -0.00322205 2.07261e-22)
(0.58429 -0.00317274 -4.46003e-22)
(0.587519 -0.00312447 4.62267e-22)
(0.590702 -0.00307722 -2.66327e-22)
(0.593841 -0.00303097 1.92874e-22)
(0.596935 -0.00298568 1.59803e-22)
(0.599986 -0.00294136 -2.74471e-22)
(0.602995 -0.00289796 -2.96966e-22)
(0.605963 -0.00285547 2.06369e-22)
(0.608889 -0.00281386 1.53788e-22)
(0.611777 -0.0027731 -2.04365e-22)
(0.614625 -0.00273318 -7.26523e-23)
(0.617435 -0.00269407 1.51834e-22)
(0.620208 -0.00265573 -6.19311e-23)
(0.622944 -0.00261813 2.99584e-22)
(0.625644 -0.00258125 -2.6982e-22)
(0.628309 -0.00254504 3.61974e-23)
(0.630938 -0.00250945 7.6296e-23)
(0.633534 -0.00247445 2.02002e-23)
(0.636096 -0.00243998 -2.99053e-23)
(0.638625 -0.00240598 -3.92919e-23)
(0.641121 -0.00237236 5.27377e-23)
(0.643585 -0.00233905 -3.81028e-23)
(0.646016 -0.00230594 2.19568e-23)
(0.648415 -0.00227291 2.02631e-24)
(0.650782 -0.0022398 -6.05835e-24)
(0.653117 -0.00220644 6.77384e-25)
(0.65542 -0.00217265 -1.4243e-25)
(0.65768 -0.00213831 1.70507e-24)
(0.659883 -0.00210307 1.54161e-24)
(0.662239 -0.00206717 1.50652e-25)
(0.665163 -0.00203946 1.56897e-24)
(0.524641 -0.0129254 -6.29329e-21)
(0.528777 -0.0127111 -4.60762e-21)
(0.532849 -0.012501 9.49664e-21)
(0.536859 -0.0122949 -3.39176e-21)
(0.540806 -0.0120929 3.75968e-21)
(0.544693 -0.0118949 -1.05377e-20)
(0.54852 -0.0117008 1.29681e-20)
(0.552289 -0.0115106 2.24621e-22)
(0.556001 -0.0113243 -3.76131e-21)
(0.559657 -0.0111417 -1.95707e-21)
(0.563258 -0.0109628 6.18998e-23)
(0.566804 -0.0107876 -1.0055e-21)
(0.570298 -0.010616 2.62211e-21)
(0.573741 -0.010448 -1.41718e-21)
(0.577132 -0.0102834 7.63747e-22)
(0.580474 -0.0101223 -4.69887e-22)
(0.583767 -0.00996453 2.00884e-22)
(0.587012 -0.00981007 -2.08515e-22)
(0.590211 -0.00965885 -1.76351e-21)
(0.593363 -0.00951081 1.36688e-22)
(0.596471 -0.0093659 1.09795e-21)
(0.599535 -0.00922403 -1.87563e-21)
(0.602556 -0.00908517 1.80592e-21)
(0.605535 -0.00894923 -1.12273e-21)
(0.608472 -0.00881615 6.94842e-22)
(0.611369 -0.00868588 4.24776e-22)
(0.614227 -0.00855835 4.53132e-22)
(0.617046 -0.00843348 -3.18074e-22)
(0.619826 -0.00831121 -1.58266e-21)
(0.62257 -0.00819146 1.52578e-21)
(0.625277 -0.00807417 -6.72021e-22)
(0.627949 -0.00795925 -1.00408e-22)
(0.630585 -0.00784661 8.86257e-23)
(0.633187 -0.00773617 1.52248e-22)
(0.635755 -0.00762783 -1.75982e-22)
(0.638291 -0.00752148 -9.03142e-23)
(0.640793 -0.00741699 5.16036e-22)
(0.643264 -0.00731423 -1.8769e-22)
(0.645704 -0.00721305 -1.52257e-23)
(0.648112 -0.00711327 -1.74863e-22)
(0.65049 -0.00701466 1.42538e-22)
(0.652838 -0.00691699 3.29359e-23)
(0.655155 -0.00681996 -1.5009e-23)
(0.657443 -0.00672321 -7.05944e-24)
(0.659701 -0.00662633 1.25643e-23)
(0.66193 -0.0065288 -1.59355e-24)
(0.664129 -0.00643016 -2.07607e-24)
(0.666288 -0.00633 2.63098e-24)
(0.668395 -0.00622737 -4.88792e-24)
(0.670647 -0.00612287 1.7963e-24)
(0.67345 -0.00604194 -8.93933e-24)
(0.559501 -0.0204676 9.58457e-21)
(0.56313 -0.0201315 -8.05286e-21)
(0.566705 -0.0198019 -4.10039e-21)
(0.570226 -0.0194787 2.87289e-21)
(0.573694 -0.019162 -2.1802e-21)
(0.57711 -0.0188515 -2.75119e-21)
(0.580475 -0.0185472 3.54423e-21)
(0.583791 -0.0182491 -5.74812e-21)
(0.587057 -0.017957 3.09208e-22)
(0.590276 -0.0176708 4.8365e-21)
(0.593447 -0.0173906 -8.2783e-22)
(0.596573 -0.017116 -5.32449e-22)
(0.599653 -0.0168472 -5.98307e-21)
(0.602689 -0.0165839 4.01126e-21)
(0.605681 -0.0163261 1.14799e-21)
(0.608631 -0.0160737 2.84764e-22)
(0.61154 -0.0158266 -2.25411e-21)
(0.614408 -0.0155846 2.02276e-21)
(0.617235 -0.0153478 -4.74159e-22)
(0.620024 -0.0151159 2.27307e-21)
(0.622774 -0.014889 -7.08609e-22)
(0.625487 -0.0146668 -2.05561e-21)
(0.628162 -0.0144493 1.58673e-21)
(0.630802 -0.0142364 -7.58322e-22)
(0.633407 -0.0140281 -2.22336e-21)
(0.635977 -0.0138241 1.12301e-21)
(0.638513 -0.0136243 -2.50534e-22)
(0.641017 -0.0134288 7.74891e-22)
(0.643487 -0.0132373 -1.52042e-21)
(0.645926 -0.0130497 1.77721e-21)
(0.648334 -0.012866 -3.97006e-22)
(0.650712 -0.0126859 -3.6932e-22)
(0.653059 -0.0125094 5.465e-22)
(0.655377 -0.0123363 -1.08195e-21)
(0.657667 -0.0121663 1.16745e-21)
(0.659928 -0.0119995 -7.77186e-22)
(0.662162 -0.0118354 1.25784e-22)
(0.664368 -0.011674 4.22346e-23)
(0.666548 -0.0115148 -1.55189e-22)
(0.668701 -0.0113577 7.71403e-23)
(0.670828 -0.0112021 -6.47784e-23)
(0.67293 -0.0110478 1.10863e-22)
(0.675006 -0.0108941 4.82763e-23)
(0.677056 -0.0107404 -6.94435e-23)
(0.679082 -0.0105861 1.29992e-23)
(0.681083 -0.0104303 1.9219e-24)
(0.683051 -0.0102725 -8.07611e-25)
(0.684973 -0.0101113 -3.82754e-24)
(0.687028 -0.00994738 -7.71207e-24)
(0.689599 -0.00981952 1.60446e-23)
(0.602729 -0.0272215 -1.1683e-20)
(0.605751 -0.026779 1.36631e-21)
(0.60873 -0.0263449 -1.31566e-21)
(0.611666 -0.0259194 5.96483e-21)
(0.614559 -0.0255021 -5.58069e-22)
(0.617411 -0.0250932 1.79655e-20)
(0.620223 -0.0246924 -1.91744e-20)
(0.622994 -0.0242997 -5.47292e-21)
(0.625727 -0.0239149 1.32882e-20)
(0.628421 -0.0235379 -7.00145e-21)
(0.631077 -0.0231687 6.2869e-21)
(0.633697 -0.022807 3.59759e-21)
(0.636281 -0.0224528 -6.71901e-21)
(0.638829 -0.0221059 -2.82989e-21)
(0.641342 -0.0217662 2.8181e-21)
(0.643822 -0.0214337 7.47541e-21)
(0.646268 -0.0211081 -4.64644e-21)
(0.648681 -0.0207893 -7.93596e-22)
(0.651062 -0.0204772 1.0173e-21)
(0.653413 -0.0201718 -1.30201e-21)
(0.655732 -0.0198728 4.57314e-22)
(0.658021 -0.0195801 -4.14423e-22)
(0.660281 -0.0192936 2.75546e-22)
(0.662512 -0.0190132 -1.77464e-22)
(0.664715 -0.0187387 1.87536e-21)
(0.66689 -0.01847 -1.69831e-21)
(0.669038 -0.018207 1.06668e-21)
(0.67116 -0.0179495 -7.30944e-22)
(0.673256 -0.0176974 -1.11261e-22)
(0.675326 -0.0174505 1.84129e-22)
(0.677372 -0.0172087 9.75939e-22)
(0.679393 -0.0169718 -4.69942e-22)
(0.681391 -0.0167396 -6.92803e-22)
(0.683365 -0.016512 -5.52328e-22)
(0.685316 -0.0162886 3.93208e-23)
(0.687245 -0.0160694 6.90985e-24)
(0.689152 -0.015854 1.76978e-22)
(0.691038 -0.0156421 3.61773e-22)
(0.692903 -0.0154335 1.46353e-22)
(0.694747 -0.0152277 1.19662e-22)
(0.69657 -0.0150242 -2.5095e-22)
(0.698374 -0.0148227 3.0707e-23)
(0.700158 -0.0146224 -3.35073e-23)
(0.701923 -0.0144226 -4.74481e-23)
(0.703669 -0.0142225 2.07775e-23)
(0.705396 -0.0140213 -5.64142e-24)
(0.707099 -0.0138182 1.73871e-24)
(0.708766 -0.0136117 4.82214e-24)
(0.710547 -0.0134022 -5.42766e-24)
(0.712797 -0.0132372 8.34378e-24)
(0.655411 -0.0327116 1.65681e-21)
(0.657721 -0.0321866 -5.75408e-21)
(0.659999 -0.0316717 1.10225e-20)
(0.662248 -0.0311668 -1.9395e-20)
(0.664467 -0.0306717 1.7163e-20)
(0.666657 -0.0301864 -6.96083e-21)
(0.668818 -0.0297107 -9.3029e-21)
(0.670951 -0.0292445 1.24623e-20)
(0.673057 -0.0287878 -5.5969e-21)
(0.675135 -0.0283402 -8.58252e-22)
(0.677187 -0.0279019 -4.10454e-21)
(0.679213 -0.0274725 1.29571e-20)
(0.681213 -0.0270519 -2.98271e-21)
(0.683188 -0.0266401 -3.92852e-21)
(0.685139 -0.0262368 2.3678e-21)
(0.687065 -0.0258419 -5.53738e-21)
(0.688968 -0.0254553 2.72459e-22)
(0.690848 -0.0250768 4.82692e-21)
(0.692704 -0.0247064 3.52034e-21)
(0.694539 -0.0243437 -3.0896e-21)
(0.696352 -0.0239887 -2.2775e-21)
(0.698143 -0.0236413 1.80664e-21)
(0.699914 -0.0233013 -2.24153e-21)
(0.701664 -0.0229685 3.92229e-21)
(0.703394 -0.0226428 -5.20903e-22)
(0.705105 -0.022324 -2.48552e-21)
(0.706797 -0.022012 3.80229e-21)
(0.708469 -0.0217066 -2.47849e-21)
(0.710124 -0.0214077 -1.03179e-21)
(0.71176 -0.021115 2.81876e-21)
(0.71338 -0.0208285 -9.48893e-22)
(0.714982 -0.0205478 -1.76778e-21)
(0.716567 -0.0202729 1.62562e-21)
(0.718136 -0.0200035 -1.47953e-21)
(0.719689 -0.0197393 1.46955e-21)
(0.721226 -0.0194801 -2.95979e-22)
(0.722749 -0.0192257 5.87233e-22)
(0.724256 -0.0189757 -3.87538e-22)
(0.725749 -0.0187297 -3.65834e-22)
(0.727228 -0.0184875 5.15495e-22)
(0.728693 -0.0182484 -1.32896e-22)
(0.730146 -0.018012 -1.97924e-22)
(0.731585 -0.0177778 2.51603e-22)
(0.733011 -0.0175448 -4.62743e-23)
(0.734426 -0.0173124 -2.79444e-23)
(0.735831 -0.0170798 4.95672e-24)
(0.737219 -0.0168462 7.56253e-24)
(0.738583 -0.0166102 -1.46725e-23)
(0.74004 -0.0163717 2.89338e-24)
(0.741903 -0.0161818 -8.07255e-24)
(0.714051 -0.0367846 2.44894e-20)
(0.715607 -0.0362036 6.94522e-21)
(0.717145 -0.0356337 -1.58943e-20)
(0.718668 -0.0350746 1.22983e-20)
(0.720173 -0.0345264 7.47163e-21)
(0.721663 -0.0339889 -2.13602e-20)
(0.723137 -0.033462 -1.47555e-21)
(0.724595 -0.0329456 -3.72069e-21)
(0.726037 -0.0324395 2.41499e-20)
(0.727464 -0.0319436 -1.05501e-20)
(0.728877 -0.0314578 2.47682e-21)
(0.730274 -0.0309819 -1.7858e-21)
(0.731657 -0.0305158 -7.20627e-21)
(0.733026 -0.0300593 8.428e-21)
(0.734381 -0.0296123 -2.31248e-21)
(0.735722 -0.0291746 1.60193e-21)
(0.73705 -0.0287461 4.49613e-21)
(0.738365 -0.0283267 -3.58824e-22)
(0.739666 -0.0279161 -9.05869e-21)
(0.740955 -0.0275142 3.87575e-22)
(0.742232 -0.0271209 4.20728e-21)
(0.743496 -0.026736 4.84315e-21)
(0.744748 -0.0263593 -1.60763e-21)
(0.745989 -0.0259907 -8.85286e-21)
(0.747219 -0.02563 -3.53452e-23)
(0.748437 -0.0252771 6.00048e-21)
(0.749644 -0.0249318 1.57822e-21)
(0.750841 -0.0245938 -3.40121e-21)
(0.752028 -0.0242632 1.40147e-21)
(0.753204 -0.0239396 2.3497e-22)
(0.754371 -0.0236229 1.89807e-21)
(0.755528 -0.0233128 -4.96427e-22)
(0.756676 -0.0230093 -1.7319e-21)
(0.757815 -0.022712 5.15892e-22)
(0.758945 -0.0224207 -2.65867e-22)
(0.760067 -0.0221352 -4.84495e-22)
(0.761181 -0.0218553 8.21305e-22)
(0.762287 -0.0215805 -2.93113e-22)
(0.763385 -0.0213106 2.27297e-22)
(0.764476 -0.0210451 1.63669e-22)
(0.765561 -0.0207838 3.66987e-22)
(0.766639 -0.020526 -4.30036e-22)
(0.767711 -0.0202713 9.71344e-23)
(0.768778 -0.0200191 9.01448e-23)
(0.76984 -0.0197686 -4.14452e-23)
(0.770898 -0.0195192 6.4511e-24)
(0.77195 -0.0192705 -1.30162e-23)
(0.772988 -0.0190212 -6.94268e-25)
(0.774099 -0.018771 8.24791e-25)
(0.775542 -0.0185693 -1.91155e-25)
(0.775905 -0.0388159 1.04962e-20)
(0.776725 -0.0382158 9.33577e-22)
(0.777541 -0.0376269 -2.08588e-20)
(0.778354 -0.0370493 1.25816e-20)
(0.779163 -0.0364828 -4.49037e-21)
(0.779968 -0.0359273 -2.62266e-20)
(0.78077 -0.0353828 1.47125e-20)
(0.781568 -0.0348491 1.78993e-20)
(0.782362 -0.034326 -1.81278e-20)
(0.783153 -0.0338135 1.7556e-20)
(0.78394 -0.0333115 -7.53964e-21)
(0.784723 -0.0328197 -1.27567e-20)
(0.785502 -0.0323381 1.45439e-22)
(0.786278 -0.0318665 1.01074e-20)
(0.78705 -0.0314048 -1.07439e-20)
(0.787818 -0.0309527 4.02194e-21)
(0.788583 -0.0305102 4.96881e-21)
(0.789344 -0.0300772 5.00613e-22)
(0.790102 -0.0296533 4.01283e-21)
(0.790857 -0.0292386 -3.12527e-21)
(0.791608 -0.0288328 -7.68503e-22)
(0.792356 -0.0284358 -2.16921e-21)
(0.793101 -0.0280473 5.71248e-22)
(0.793843 -0.0276674 -5.50784e-21)
(0.794582 -0.0272958 4.9301e-21)
(0.795318 -0.0269322 3.49573e-21)
(0.796051 -0.0265767 -8.42456e-21)
(0.796782 -0.0262289 4.17619e-21)
(0.79751 -0.0258888 4.78951e-22)
(0.798236 -0.0255561 -1.37063e-22)
(0.79896 -0.0252306 -1.87417e-22)
(0.799682 -0.0249122 4.66242e-22)
(0.800402 -0.0246007 3.15957e-23)
(0.80112 -0.0242957 5.85635e-22)
(0.801837 -0.0239972 -1.57705e-21)
(0.802552 -0.0237048 8.6328e-22)
(0.803266 -0.0234183 1.23463e-21)
(0.80398 -0.0231373 -5.74895e-22)
(0.804693 -0.0228616 -2.46545e-22)
(0.805405 -0.0225909 3.71648e-22)
(0.806118 -0.0223246 -2.97622e-22)
(0.806832 -0.0220625 7.29034e-23)
(0.807546 -0.021804 1.14866e-22)
(0.808263 -0.0215487 -2.31478e-22)
(0.808982 -0.0212961 2.44796e-23)
(0.809703 -0.0210462 1.79609e-23)
(0.81042 -0.0207982 -1.70106e-24)
(0.811191 -0.0205515 -1.84924e-24)
(0.812213 -0.0203503 4.22807e-24)
(0.835391 -0.0402031 2.45329e-20)
(0.835563 -0.0395896 -4.24087e-20)
(0.835743 -0.0389876 2.71742e-20)
(0.835931 -0.0383969 -2.97946e-20)
(0.836128 -0.0378175 4.45375e-20)
(0.836331 -0.0372494 -1.18408e-20)
(0.836542 -0.0366924 -3.18002e-20)
(0.83676 -0.0361465 4.11151e-20)
(0.836984 -0.0356115 -9.65067e-21)
(0.837215 -0.0350873 7.74518e-21)
(0.837451 -0.0345739 1.01804e-21)
(0.837694 -0.034071 -1.21132e-20)
(0.837942 -0.0335786 -3.95187e-21)
(0.838196 -0.0330965 7.24007e-21)
(0.838456 -0.0326246 5.15639e-21)
(0.83872 -0.0321628 -1.08858e-20)
(0.83899 -0.0317108 4.90194e-21)
(0.839265 -0.0312686 -3.57686e-21)
(0.839545 -0.030836 2.37991e-21)
(0.839829 -0.0304129 -1.86983e-21)
(0.840119 -0.029999 1.83111e-21)
(0.840412 -0.0295943 1.57123e-21)
(0.840711 -0.0291986 4.54776e-21)
(0.841014 -0.0288118 -6.95717e-21)
(0.841321 -0.0284336 2.8065e-21)
(0.841633 -0.0280639 -1.43424e-21)
(0.841949 -0.0277027 -6.13802e-22)
(0.842269 -0.0273496 5.26339e-21)
(0.842594 -0.0270045 -5.06728e-21)
(0.842924 -0.0266673 3.37092e-22)
(0.843257 -0.0263378 -1.29614e-21)
(0.843596 -0.0260159 -1.52192e-22)
(0.843938 -0.0257012 1.93925e-21)
(0.844286 -0.0253937 5.95454e-22)
(0.844638 -0.0250931 -1.20329e-21)
(0.844994 -0.0247992 -6.53111e-22)
(0.845356 -0.0245118 5.2684e-22)
(0.845723 -0.0242306 -2.09547e-22)
(0.846095 -0.0239555 -1.21735e-22)
(0.846473 -0.0236861 1.66143e-23)
(0.846857 -0.0234221 -6.67241e-23)
(0.847247 -0.0231633 1.34436e-22)
(0.847644 -0.0229093 1.40991e-22)
(0.848048 -0.0226599 -2.28725e-22)
(0.848461 -0.0224149 7.0638e-23)
(0.848881 -0.0221743 3.15386e-24)
(0.849306 -0.0219378 -2.62867e-23)
(0.849768 -0.0217047 2.78064e-25)
(0.850396 -0.0215119 -1.89488e-26)
(0.894775 -0.0393841 0)
(0.89442 -0.0388086 0)
(0.894082 -0.0382434 0)
(0.893758 -0.0376884 4.6427e-28)
(0.89345 -0.0371436 -2.14659e-28)
(0.893156 -0.0366091 2.06519e-28)
(0.892876 -0.0360847 -4.13419e-28)
(0.892609 -0.0355705 0)
(0.892356 -0.0350664 0)
(0.892115 -0.0345722 0)
(0.891887 -0.0340881 -4.07171e-12)
(0.891672 -0.0336137 -3.90517e-12)
(0.891468 -0.0331492 0)
(0.891275 -0.0326943 0)
(0.891094 -0.032249 0)
(0.890924 -0.0318132 0)
(0.890765 -0.0313867 0)
(0.890617 -0.0309694 0)
(0.890479 -0.0305613 0)
(0.890351 -0.0301622 0)
(0.890233 -0.0297719 2.23229e-28)
(0.890125 -0.0293904 -1.01861e-28)
(0.890026 -0.0290176 0)
(0.889938 -0.0286532 0)
(0.889858 -0.0282972 0)
(0.889788 -0.0279494 0)
(0.889727 -0.0276098 0)
(0.889676 -0.0272781 1.50214e-28)
(0.889633 -0.0269542 -6.76091e-29)
(0.8896 -0.0266381 1.31483e-28)
(0.889576 -0.0263294 -5.88222e-29)
(0.88956 -0.0260282 0)
(0.889554 -0.0257342 0)
(0.889557 -0.0254473 0)
(0.889569 -0.0251674 0)
(0.88959 -0.0248942 0)
(0.88962 -0.0246276 0)
(0.88966 -0.0243675 6.50959e-29)
(0.88971 -0.0241136 -2.77386e-29)
(0.88977 -0.0238658 0)
(0.889841 -0.0236239 0)
(0.889922 -0.0233877 3.69947e-29)
(0.890014 -0.0231571 -1.46708e-29)
(0.890119 -0.0229321 0)
(0.890235 -0.0227127 1.83744e-29)
(0.890363 -0.0224986 -6.09528e-30)
(0.890513 -0.0222889 7.2512e-30)
(0.890733 -0.0221132 -1.04633e-30)
(0.954098 -0.0381119 0)
(0.953266 -0.0375755 0)
(0.952455 -0.0370483 0)
(0.951665 -0.0365301 -4.64898e-28)
(0.950896 -0.0360212 2.14948e-28)
(0.950147 -0.0355215 -7.33985e-28)
(0.949417 -0.035031 9.41162e-28)
(0.948706 -0.0345498 0)
(0.948014 -0.0340779 0)
(0.947339 -0.0336151 0)
(0.946682 -0.0331616 4.07708e-12)
(0.946042 -0.0327172 3.9103e-12)
(0.945418 -0.0322818 0)
(0.944811 -0.0318555 0)
(0.94422 -0.0314382 0)
(0.943644 -0.0310297 0)
(0.943083 -0.0306301 0)
(0.942537 -0.0302391 -3.36209e-28)
(0.942006 -0.0298568 3.36209e-28)
(0.941489 -0.0294831 0)
(0.940986 -0.0291178 -2.23508e-28)
(0.940497 -0.0287608 1.01987e-28)
(0.940021 -0.0284121 0)
(0.939559 -0.0280716 0)
(0.939111 -0.0277391 0)
(0.938675 -0.0274146 0)
(0.938252 -0.0270979 0)
(0.937842 -0.026789 -1.50393e-28)
(0.937445 -0.0264877 6.76889e-29)
(0.93706 -0.026194 -1.31637e-28)
(0.936688 -0.0259077 5.88905e-29)
(0.936328 -0.0256288 0)
(0.935981 -0.0253571 0)
(0.935646 -0.0250925 0)
(0.935323 -0.024835 0)
(0.935013 -0.0245844 0)
(0.934715 -0.0243406 0)
(0.93443 -0.0241036 -6.51666e-29)
(0.934158 -0.0238733 2.77685e-29)
(0.933899 -0.0236496 0)
(0.933654 -0.0234325 0)
(0.933422 -0.0232219 -3.70331e-29)
(0.933204 -0.0230177 1.46858e-29)
(0.933001 -0.0228201 0)
(0.932813 -0.0226292 -1.83928e-29)
(0.932641 -0.0224448 6.10131e-30)
(0.932481 -0.0222661 -7.25828e-30)
(0.93229 -0.0221153 1.04492e-30)
(1.00707 -0.0360412 0)
(1.00589 -0.0355532 0)
(1.00473 -0.0350727 -1.35938e-29)
(1.0036 -0.0346001 0)
(1.00249 -0.0341353 1.26296e-29)
(1.0014 -0.0336785 -5.91319e-28)
(1.00034 -0.0332298 5.79152e-28)
(0.9993 -0.0327893 1.1276e-29)
(0.998281 -0.0323569 0)
(0.997282 -0.0319328 0)
(0.996304 -0.0315169 5.02602e-29)
(0.995345 -0.0311092 0)
(0.994406 -0.0307098 -1.45307e-28)
(0.993486 -0.0303186 -1.03798e-28)
(0.992585 -0.0299356 0)
(0.991702 -0.0295607 -4.07964e-29)
(0.990836 -0.029194 0)
(0.989988 -0.0288353 0)
(0.989157 -0.0284847 0)
(0.988343 -0.028142 -6.78365e-30)
(0.987546 -0.0278073 0)
(0.986764 -0.0274804 0)
(0.985999 -0.0271613 0)
(0.985249 -0.0268499 0)
(0.984515 -0.0265461 5.26228e-30)
(0.983796 -0.02625 0)
(0.983092 -0.0259613 0)
(0.982403 -0.0256802 2.22136e-29)
(0.981729 -0.0254064 1.82962e-12)
(0.981069 -0.02514 1.71597e-12)
(0.980424 -0.0248808 0)
(0.979793 -0.0246288 3.40707e-30)
(0.979177 -0.024384 0)
(0.978575 -0.0241464 0)
(0.977987 -0.0239158 0)
(0.977414 -0.0236922 -2.47634e-30)
(0.976855 -0.0234757 0)
(0.97631 -0.0232662 8.98137e-13)
(0.97578 -0.0230637 8.07107e-13)
(0.975265 -0.0228683 0)
(0.974764 -0.0226799 1.44039e-30)
(0.974279 -0.0224987 0)
(0.97381 -0.0223248 0)
(0.973356 -0.0221583 -8.8969e-31)
(0.972919 -0.0219994 0)
(0.972502 -0.0218484 0)
(0.972088 -0.0217049 0)
(0.971553 -0.0215837 0)
(1.0525 -0.0334017 0)
(1.0511 -0.0329663 0)
(1.04972 -0.0325371 1.35938e-29)
(1.04837 -0.0321142 0)
(1.04704 -0.0316979 -1.26296e-29)
(1.04574 -0.0312883 1.21664e-29)
(1.04446 -0.0308855 0)
(1.04321 -0.0304897 -1.1276e-29)
(1.04197 -0.030101 0)
(1.04076 -0.0297195 0)
(1.03957 -0.0293452 -5.02602e-29)
(1.0384 -0.0289781 0)
(1.03725 -0.0286184 1.45307e-28)
(1.03612 -0.028266 1.03798e-28)
(1.03501 -0.027921 0)
(1.03392 -0.0275834 4.07964e-29)
(1.03285 -0.0272531 0)
(1.0318 -0.0269302 0)
(1.03076 -0.0266146 0)
(1.02975 -0.0263064 6.78365e-30)
(1.02875 -0.0260055 0)
(1.02776 -0.0257119 0)
(1.0268 -0.0254255 0)
(1.02585 -0.0251464 0)
(1.02491 -0.0248744 -5.26228e-30)
(1.024 -0.0246096 0)
(1.0231 -0.024352 0)
(1.02221 -0.0241015 -2.22136e-29)
(1.02134 -0.023858 -1.82962e-12)
(1.02048 -0.0236216 -1.71597e-12)
(1.01964 -0.0233923 0)
(1.01882 -0.0231699 -3.40707e-30)
(1.01801 -0.0229547 0)
(1.01721 -0.0227464 0)
(1.01644 -0.0225452 0)
(1.01567 -0.0223511 2.47634e-30)
(1.01492 -0.022164 0)
(1.01418 -0.0219842 -8.98137e-13)
(1.01346 -0.0218116 -8.07107e-13)
(1.01276 -0.0216464 0)
(1.01207 -0.0214886 -1.44039e-30)
(1.0114 -0.0213385 0)
(1.01074 -0.0211963 0)
(1.01009 -0.0210622 8.8969e-31)
(1.00947 -0.0209366 0)
(1.00886 -0.0208198 0)
(1.00826 -0.0207121 0)
(1.00745 -0.0206221 0)
(1.08993 -0.0304512 0)
(1.08842 -0.0300681 0)
(1.08694 -0.0296897 0)
(1.08548 -0.0293163 0)
(1.08404 -0.0289483 0)
(1.08263 -0.0285857 0)
(1.08125 -0.0282289 0)
(1.07988 -0.0278779 0)
(1.07854 -0.0275329 0)
(1.07722 -0.0271941 0)
(1.07591 -0.0268615 0)
(1.07463 -0.0265353 0)
(1.07337 -0.0262155 0)
(1.07213 -0.0259021 0)
(1.07091 -0.0255954 0)
(1.0697 -0.0252952 0)
(1.06851 -0.0250017 0)
(1.06735 -0.0247148 3.83218e-28)
(1.0662 -0.0244346 -3.83218e-28)
(1.06506 -0.0241611 0)
(1.06394 -0.0238943 0)
(1.06285 -0.0236342 0)
(1.06176 -0.0233809 0)
(1.06069 -0.0231342 0)
(1.05964 -0.0228943 0)
(1.05861 -0.0226612 0)
(1.05759 -0.0224347 0)
(1.05658 -0.022215 0)
(1.05559 -0.0220021 0)
(1.05462 -0.0217959 0)
(1.05366 -0.0215965 0)
(1.05271 -0.0214039 0)
(1.05178 -0.0212182 0)
(1.05086 -0.0210394 0)
(1.04996 -0.0208675 0)
(1.04907 -0.0207027 0)
(1.0482 -0.020545 0)
(1.04734 -0.0203946 0)
(1.0465 -0.0202515 0)
(1.04567 -0.020116 0)
(1.04485 -0.0199883 0)
(1.04405 -0.0198685 0)
(1.04326 -0.0197571 0)
(1.04249 -0.0196542 0)
(1.04174 -0.0195604 0)
(1.041 -0.0194761 0)
(1.04026 -0.0194019 0)
(1.03927 -0.0193422 0)
(1.11951 -0.0274031 0)
(1.118 -0.0270683 0)
(1.1165 -0.026737 0)
(1.11503 -0.0264097 0)
(1.11358 -0.0260866 0)
(1.11215 -0.0257679 -6.04856e-28)
(1.11074 -0.025454 6.04856e-28)
(1.10935 -0.0251449 0)
(1.10799 -0.0248409 0)
(1.10664 -0.0245421 0)
(1.10531 -0.0242487 0)
(1.104 -0.0239608 0)
(1.1027 -0.0236786 0)
(1.10143 -0.023402 0)
(1.10017 -0.0231313 0)
(1.09893 -0.0228664 0)
(1.09771 -0.0226075 0)
(1.0965 -0.0223547 3.76364e-28)
(1.09531 -0.0221078 -3.76364e-28)
(1.09414 -0.0218671 0)
(1.09298 -0.0216325 0)
(1.09183 -0.0214042 0)
(1.0907 -0.021182 0)
(1.08959 -0.0209661 0)
(1.08849 -0.0207564 0)
(1.0874 -0.0205531 0)
(1.08633 -0.0203561 0)
(1.08528 -0.0201655 0)
(1.08424 -0.0199813 0)
(1.08321 -0.0198036 0)
(1.08219 -0.0196324 0)
(1.08119 -0.0194678 0)
(1.0802 -0.0193099 0)
(1.07923 -0.0191586 0)
(1.07826 -0.0190143 0)
(1.07731 -0.0188768 0)
(1.07638 -0.0187465 0)
(1.07546 -0.0186233 0)
(1.07455 -0.0185077 0)
(1.07365 -0.0183996 0)
(1.07276 -0.0182994 0)
(1.07189 -0.0182074 0)
(1.07104 -0.018124 0)
(1.07019 -0.0180493 0)
(1.06936 -0.0179841 0)
(1.06855 -0.0179287 0)
(1.06773 -0.017884 0)
(1.06662 -0.0178513 0)
(1.14192 -0.0244201 0)
(1.14046 -0.0241277 0)
(1.13902 -0.0238381 0)
(1.1376 -0.0235514 0)
(1.1362 -0.023268 2.89652e-28)
(1.13482 -0.0229883 2.63319e-28)
(1.13345 -0.0227124 -1.70313e-28)
(1.13211 -0.0224405 -2.60602e-28)
(1.13078 -0.022173 0)
(1.12947 -0.0219099 0)
(1.12817 -0.0216515 0)
(1.12689 -0.0213979 0)
(1.12563 -0.0211493 0)
(1.12439 -0.0209056 0)
(1.12315 -0.0206672 0)
(1.12194 -0.020434 0)
(1.12074 -0.0202062 0)
(1.11955 -0.0199838 0)
(1.11838 -0.019767 0)
(1.11722 -0.0195557 0)
(1.11607 -0.0193501 0)
(1.11494 -0.0191502 0)
(1.11383 -0.018956 3.06283e-12)
(1.11272 -0.0187676 2.91767e-12)
(1.11163 -0.0185852 2.77547e-12)
(1.11055 -0.0184086 2.63615e-12)
(1.10948 -0.018238 -1.15145e-28)
(1.10843 -0.0180735 0)
(1.10739 -0.0179151 0)
(1.10636 -0.0177628 0)
(1.10534 -0.0176168 0)
(1.10433 -0.0174771 0)
(1.10334 -0.0173439 0)
(1.10236 -0.0172172 0)
(1.10138 -0.0170972 0)
(1.10042 -0.016984 0)
(1.09948 -0.0168777 0)
(1.09854 -0.0167787 0)
(1.09761 -0.0166869 0)
(1.0967 -0.0166028 0)
(1.09579 -0.0165266 3.9097e-29)
(1.0949 -0.0164586 0)
(1.09402 -0.016399 0)
(1.09315 -0.0163485 -2.53546e-29)
(1.09229 -0.0163073 2.89111e-29)
(1.09144 -0.016276 -1.66144e-29)
(1.09059 -0.0162557 0)
(1.08942 -0.0162456 0)
(1.1581 -0.0216092 0)
(1.15675 -0.021353 0)
(1.1554 -0.0210987 0)
(1.15408 -0.0208467 0)
(1.15277 -0.0205974 -2.89652e-28)
(1.15148 -0.020351 2.79747e-28)
(1.1502 -0.0201078 -3.72753e-28)
(1.14893 -0.0198681 2.60602e-28)
(1.14769 -0.0196319 0)
(1.14645 -0.0193997 0)
(1.14523 -0.0191715 0)
(1.14403 -0.0189475 0)
(1.14284 -0.0187279 0)
(1.14166 -0.0185128 0)
(1.14049 -0.0183023 0)
(1.13934 -0.0180966 0)
(1.1382 -0.0178957 0)
(1.13708 -0.0176997 3.77256e-28)
(1.13596 -0.0175088 -3.77256e-28)
(1.13486 -0.0173231 0)
(1.13377 -0.0171425 0)
(1.13269 -0.0169672 0)
(1.13162 -0.0167973 -3.06283e-12)
(1.13057 -0.0166328 -2.91767e-12)
(1.12952 -0.0164738 -2.77547e-12)
(1.12849 -0.0163203 -2.63615e-12)
(1.12747 -0.0161725 1.15145e-28)
(1.12645 -0.0160304 0)
(1.12545 -0.0158941 0)
(1.12446 -0.0157637 0)
(1.12348 -0.0156392 0)
(1.1225 -0.0155209 0)
(1.12154 -0.0154087 0)
(1.12059 -0.0153029 0)
(1.11965 -0.0152035 0)
(1.11871 -0.0151108 0)
(1.11779 -0.0150248 0)
(1.11687 -0.0149458 0)
(1.11597 -0.0148741 0)
(1.11507 -0.0148098 0)
(1.11418 -0.0147533 -3.9097e-29)
(1.1133 -0.0147048 0)
(1.11243 -0.0146647 0)
(1.11157 -0.0146334 2.53546e-29)
(1.11072 -0.0146113 -2.89111e-29)
(1.10988 -0.014599 1.66144e-29)
(1.10903 -0.0145974 0)
(1.10786 -0.0146048 0)
(1.16919 -0.0190257 0)
(1.16795 -0.0187998 7.29129e-12)
(1.16672 -0.0185754 1.41168e-11)
(1.16551 -0.0183527 6.83032e-12)
(1.16431 -0.0181322 0)
(1.16312 -0.0179141 -2.65182e-28)
(1.16195 -0.0176986 0)
(1.16079 -0.017486 0)
(1.15964 -0.0172766 -5.75883e-12)
(1.15851 -0.0170706 -5.5576e-12)
(1.15739 -0.0168681 0)
(1.15628 -0.0166693 -5.16745e-12)
(1.15518 -0.0164745 -4.97832e-12)
(1.15409 -0.0162836 0)
(1.15301 -0.0160969 -4.6115e-12)
(1.15195 -0.0159146 -4.43361e-12)
(1.15089 -0.0157366 0)
(1.14985 -0.0155632 -3.53282e-28)
(1.14882 -0.0153943 0)
(1.14779 -0.0152302 1.55946e-28)
(1.14678 -0.0150709 -3.10713e-28)
(1.14578 -0.0149165 1.42712e-28)
(1.14479 -0.0147671 3.28312e-12)
(1.1438 -0.0146227 3.13126e-12)
(1.14283 -0.0144835 -1.23797e-28)
(1.14186 -0.0143495 2.83611e-12)
(1.14091 -0.0142208 2.69265e-12)
(1.13996 -0.0140975 2.20506e-28)
(1.13902 -0.0139797 2.4136e-12)
(1.13809 -0.0138675 2.27786e-12)
(1.13717 -0.013761 -8.90221e-29)
(1.13625 -0.0136603 2.01358e-12)
(1.13535 -0.0135655 8.14376e-29)
(1.13445 -0.0134768 -1.75843e-12)
(1.13356 -0.0133943 1.63411e-12)
(1.13268 -0.0133181 1.51185e-12)
(1.1318 -0.0132485 0)
(1.13093 -0.0131857 -1.27327e-12)
(1.13007 -0.0131298 -2.31362e-12)
(1.12922 -0.0130812 -1.04213e-12)
(1.12837 -0.01304 -9.2915e-13)
(1.12753 -0.0130066 -8.17799e-13)
(1.1267 -0.0129814 -2.93893e-29)
(1.12587 -0.0129646 0)
(1.12505 -0.0129566 4.25635e-29)
(1.12424 -0.012958 -1.60468e-29)
(1.12342 -0.0129697 0)
(1.12228 -0.0129893 8.1104e-30)
(1.17629 -0.0166838 0)
(1.17516 -0.0164837 -7.29129e-12)
(1.17405 -0.0162846 -1.41168e-11)
(1.17295 -0.0160869 -6.83032e-12)
(1.17187 -0.0158909 0)
(1.17079 -0.0156969 2.65182e-28)
(1.16973 -0.0155052 0)
(1.16867 -0.0153159 0)
(1.16763 -0.0151294 5.75883e-12)
(1.1666 -0.0149458 5.5576e-12)
(1.16558 -0.0147653 0)
(1.16457 -0.0145881 5.16745e-12)
(1.16357 -0.0144144 4.97832e-12)
(1.16258 -0.0142444 0)
(1.1616 -0.014078 4.6115e-12)
(1.16063 -0.0139156 4.43361e-12)
(1.15967 -0.0137572 0)
(1.15871 -0.0136029 7.28266e-28)
(1.15777 -0.0134529 -3.74984e-28)
(1.15683 -0.0133072 -1.55946e-28)
(1.15591 -0.0131659 3.10713e-28)
(1.15499 -0.0130292 -1.42712e-28)
(1.15408 -0.0128971 -3.28312e-12)
(1.15318 -0.0127696 -3.13126e-12)
(1.15229 -0.012647 1.23797e-28)
(1.1514 -0.0125293 -2.83611e-12)
(1.15052 -0.0124165 -2.69265e-12)
(1.14965 -0.0123088 -2.20506e-28)
(1.14879 -0.0122063 -2.4136e-12)
(1.14793 -0.012109 -2.27786e-12)
(1.14708 -0.0120172 8.90221e-29)
(1.14624 -0.0119308 -2.01358e-12)
(1.1454 -0.01185 -8.14376e-29)
(1.14457 -0.011775 1.75843e-12)
(1.14375 -0.0117059 -1.63411e-12)
(1.14293 -0.0116429 -1.51185e-12)
(1.14212 -0.0115861 0)
(1.14131 -0.0115357 1.27327e-12)
(1.14051 -0.011492 2.31362e-12)
(1.13971 -0.0114551 1.04213e-12)
(1.13892 -0.0114254 9.2915e-13)
(1.13814 -0.011403 8.17799e-13)
(1.13736 -0.0113884 2.93893e-29)
(1.13658 -0.0113817 0)
(1.13581 -0.0113834 -4.25635e-29)
(1.13504 -0.0113938 1.60468e-29)
(1.13427 -0.0114138 0)
(1.13318 -0.0114409 -8.1055e-30)
(1.18042 -0.0145692 3.23802e-28)
(1.1794 -0.0143916 -6.5342e-28)
(1.17839 -0.0142148 3.04179e-28)
(1.1774 -0.014039 0)
(1.17642 -0.0138645 0)
(1.17544 -0.0136917 0)
(1.17448 -0.0135208 0)
(1.17352 -0.013352 0)
(1.17258 -0.0131856 -5.19585e-28)
(1.17165 -0.0130217 0)
(1.17072 -0.0128606 4.84531e-28)
(1.16981 -0.0127024 -2.24584e-28)
(1.1689 -0.0125473 0)
(1.168 -0.0123954 0)
(1.16711 -0.0122469 0)
(1.16623 -0.012102 4.0254e-28)
(1.16536 -0.0119606 -1.85937e-28)
(1.1645 -0.011823 4.11552e-28)
(1.16364 -0.0116893 -2.40082e-28)
(1.16279 -0.0115595 -1.64435e-28)
(1.16195 -0.0114338 3.27917e-28)
(1.16112 -0.0113123 0)
(1.16029 -0.011195 0)
(1.15947 -0.0110821 0)
(1.15866 -0.0109736 0)
(1.15786 -0.0108696 0)
(1.15706 -0.0107702 0)
(1.15627 -0.0106756 -2.34167e-28)
(1.15548 -0.0105858 1.06491e-28)
(1.1547 -0.0105009 -2.09388e-28)
(1.15392 -0.010421 0)
(1.15315 -0.0103463 0)
(1.15239 -0.0102768 0)
(1.15163 -0.0102127 7.78942e-29)
(1.15088 -0.0101542 0)
(1.15013 -0.0101014 -6.70486e-29)
(1.14938 -0.0100544 6.17388e-29)
(1.14864 -0.0100134 0)
(1.1479 -0.00997869 0)
(1.14717 -0.00995038 0)
(1.14644 -0.00992872 0)
(1.14571 -0.00991395 0)
(1.14499 -0.00990631 0)
(1.14427 -0.0099061 0)
(1.14355 -0.00991359 0)
(1.14284 -0.00992911 -1.66019e-29)
(1.14212 -0.00995335 2.4832e-29)
(1.14111 -0.00998395 -7.62758e-30)
(1.18245 -0.0126515 -3.23802e-28)
(1.18152 -0.0124944 6.5342e-28)
(1.1806 -0.0123378 -3.04179e-28)
(1.1797 -0.012182 0)
(1.1788 -0.0120272 0)
(1.17791 -0.0118738 0)
(1.17704 -0.0117219 0)
(1.17617 -0.0115718 0)
(1.17531 -0.0114238 5.19585e-28)
(1.17446 -0.0112779 0)
(1.17362 -0.0111345 -4.84531e-28)
(1.17279 -0.0109936 2.24584e-28)
(1.17196 -0.0108555 0)
(1.17115 -0.0107202 0)
(1.17034 -0.0105879 0)
(1.16954 -0.0104588 -4.0254e-28)
(1.16875 -0.0103329 1.85937e-28)
(1.16796 -0.0102104 3.93653e-28)
(1.16719 -0.0100913 -5.65122e-28)
(1.16642 -0.0099759 1.64435e-28)
(1.16565 -0.00986414 -3.27917e-28)
(1.1649 -0.00975615 0)
(1.16415 -0.00965204 0)
(1.1634 -0.00955189 0)
(1.16267 -0.00945579 0)
(1.16194 -0.00936383 0)
(1.16121 -0.00927611 0)
(1.16049 -0.00919273 2.34167e-28)
(1.15977 -0.00911377 -1.06491e-28)
(1.15906 -0.00903933 2.09388e-28)
(1.15836 -0.00896953 0)
(1.15766 -0.00890448 0)
(1.15696 -0.00884428 0)
(1.15627 -0.00878906 -7.78942e-29)
(1.15559 -0.00873895 0)
(1.1549 -0.00869409 6.70486e-29)
(1.15422 -0.00865464 -6.17388e-29)
(1.15354 -0.00862073 0)
(1.15287 -0.00859256 0)
(1.1522 -0.00857028 0)
(1.15153 -0.0085541 0)
(1.15086 -0.00854422 0)
(1.1502 -0.00854085 0)