/*--------------------------------*- C++ -*----------------------------------*\
  =========                 |
  \\      /  F ield         | OpenFOAM: The Open Source CFD Toolbox
   \\    /   O peration     | Website:  https://openfoam.org
    \\  /    A nd           | Version:  7
     \\/     M anipulation  |
\*---------------------------------------------------------------------------*/
FoamFile
{
    version     2.0;
    format      ascii;
    class       volScalarField;
    location    "20.001";
    object      p;
}
// * * * * * * * * * * * * * * * * * * * * * * * * * * * * * * * * * * * * * //

dimensions      [0 2 -2 0 0 0 0];

internalField   nonuniform List<scalar> 
3700
(
-0.305562
-0.304819
-0.30405
-0.303293
-0.302556
-0.301845
-0.301156
-0.300472
-0.299767
-0.298999
-0.298112
-0.297039
-0.295696
-0.293989
-0.291815
-0.289058
-0.285608
-0.281383
-0.276286
-0.270227
-0.263141
-0.254986
-0.245748
-0.235444
-0.224125
-0.211871
-0.198793
-0.185027
-0.170736
-0.156104
-0.14132
-0.126573
-0.112069
-0.0979792
-0.0844628
-0.0716497
-0.0596587
-0.0485718
-0.0384436
-0.0293006
-0.021144
-0.0139533
-0.00769027
-0.0023031
0.00226991
0.00609656
0.0092476
0.0117941
0.0138054
0.0153477
0.0164827
0.0172672
0.0177527
0.0179851
0.0180052
0.0178487
0.0175466
0.0171252
0.0166074
0.0160116
0.0153544
0.0146474
0.013903
0.013126
0.0123281
0.0115049
0.0106733
0.00981295
0.00895853
0.00805523
0.00718584
0.00621487
0.00534583
0.0042496
0.0034258
0.00206712
0.00135549
-0.305624
-0.304871
-0.304095
-0.303332
-0.302593
-0.301882
-0.301197
-0.300521
-0.299827
-0.299074
-0.298207
-0.297157
-0.295842
-0.294167
-0.292026
-0.289302
-0.285871
-0.281709
-0.276655
-0.270635
-0.263585
-0.255464
-0.246257
-0.235978
-0.224682
-0.212444
-0.199376
-0.185615
-0.171322
-0.156684
-0.14189
-0.127124
-0.112601
-0.0984939
-0.0849497
-0.07211
-0.060093
-0.0489801
-0.0388264
-0.0296586
-0.0214783
-0.0142652
-0.00798104
-0.00257407
0.00201747
0.00586143
0.00902862
0.0115902
0.0136157
0.0151711
0.0163184
0.0171144
0.0176106
0.0178531
0.0178827
0.0177349
0.017441
0.0170272
0.0165166
0.0159275
0.0152765
0.0145754
0.0138365
0.0130646
0.0122715
0.0114529
0.0106256
0.00976936
0.00891874
0.00801941
0.00715325
0.00618647
0.00531964
0.0042288
0.00340446
0.00205528
0.00133566
-0.305739
-0.304968
-0.304177
-0.303405
-0.302659
-0.301949
-0.30127
-0.300607
-0.299934
-0.299209
-0.29838
-0.297375
-0.296112
-0.294496
-0.292419
-0.289766
-0.286452
-0.282334
-0.277349
-0.271402
-0.264423
-0.256367
-0.247219
-0.236991
-0.225737
-0.213532
-0.200487
-0.186739
-0.172445
-0.157798
-0.142988
-0.128191
-0.11364
-0.0994774
-0.0858956
-0.0730103
-0.0609448
-0.0497835
-0.0395821
-0.0303678
-0.0221426
-0.0148868
-0.00856217
-0.00311695
0.00151061
0.00538845
0.00858748
0.011179
0.0132325
0.0148143
0.0159863
0.0168055
0.0173234
0.0175862
0.0176348
0.0175048
0.0172275
0.0168293
0.0163332
0.0157576
0.0151194
0.01443
0.0137023
0.0129409
0.0121575
0.0113482
0.0105296
0.00968182
0.00883888
0.00794759
0.00708799
0.00612965
0.00526738
0.00418729
0.00336222
0.00203173
0.00129732
-0.30589
-0.305094
-0.304284
-0.303497
-0.302743
-0.302032
-0.30136
-0.300714
-0.300068
-0.299381
-0.2986
-0.297655
-0.296463
-0.294927
-0.292936
-0.290373
-0.28716
-0.28316
-0.278283
-0.27244
-0.26556
-0.257598
-0.248537
-0.238382
-0.227193
-0.215039
-0.20203
-0.188308
-0.174019
-0.159369
-0.144548
-0.129684
-0.115099
-0.100902
-0.0872586
-0.0743124
-0.0621838
-0.0509585
-0.040693
-0.0314156
-0.0231292
-0.0158141
-0.00943264
-0.00393313
0.000746153
0.00467314
0.0079188
0.0105545
0.0126498
0.014271
0.0154803
0.0163345
0.0168854
0.0171792
0.0172569
0.0171542
0.0169023
0.016528
0.0160541
0.0154994
0.0148806
0.0142094
0.0134987
0.0127533
0.011985
0.0111899
0.0103845
0.00954971
0.00871852
0.00783948
0.00698996
0.00604439
0.00518929
0.00412528
0.00329991
0.00199671
0.00124301
-0.306058
-0.305233
-0.3044
-0.303595
-0.30283
-0.302115
-0.30145
-0.30082
-0.300203
-0.299558
-0.298832
-0.297955
-0.296845
-0.295403
-0.293513
-0.291059
-0.287977
-0.284104
-0.279354
-0.273638
-0.266882
-0.259037
-0.250089
-0.24003
-0.228929
-0.216845
-0.203894
-0.190208
-0.175908
-0.161269
-0.146428
-0.131572
-0.116936
-0.102681
-0.0889785
-0.0759688
-0.0637715
-0.0524746
-0.0421362
-0.0327859
-0.024427
-0.0170409
-0.01059
-0.00502318
-0.000278768
0.00371097
0.00701691
0.0097103
0.0118607
0.0135345
0.0147936
0.015695
0.0162905
0.0166264
0.0167436
0.0166781
0.0164611
0.0161192
0.0156758
0.0151496
0.0145574
0.0139112
0.0132238
0.0125003
0.0117525
0.0109769
0.0101896
0.0093724
0.00855727
0.00769487
0.00685916
0.00593083
0.00508583
0.00404315
0.00321877
0.00195068
0.00117607
-0.305363
-0.304508
-0.303682
-0.302903
-0.302182
-0.30152
-0.300905
-0.300314
-0.299709
-0.299038
-0.29823
-0.297205
-0.295856
-0.294065
-0.291781
-0.288805
-0.285068
-0.280461
-0.274889
-0.268276
-0.260572
-0.251761
-0.241774
-0.230792
-0.2188
-0.205919
-0.192287
-0.178054
-0.163425
-0.148581
-0.133716
-0.119048
-0.104751
-0.0909968
-0.0779283
-0.0656654
-0.054298
-0.0438855
-0.0344588
-0.0260224
-0.0185581
-0.0120293
-0.00638514
-0.00156461
0.00249967
0.00587824
0.00864204
0.0108604
0.0125994
0.0139209
0.0148818
0.0155338
0.015923
0.0160907
0.0160726
0.0159
0.0155999
0.0151955
0.0147058
0.0141478
0.0135336
0.0128761
0.0121806
0.0114591
0.0107083
0.00994431
0.00914958
0.00835501
0.00751381
0.00669587
0.00578934
0.00495773
0.00394151
0.0031204
0.00189428
0.00110025
-0.305467
-0.304589
-0.303743
-0.302949
-0.302219
-0.301555
-0.300949
-0.300379
-0.299809
-0.299187
-0.298443
-0.297495
-0.296234
-0.29459
-0.29239
-0.289551
-0.285957
-0.281497
-0.276075
-0.269612
-0.262053
-0.253375
-0.243567
-0.232696
-0.220813
-0.208027
-0.194469
-0.1803
-0.165712
-0.150892
-0.136039
-0.121362
-0.107043
-0.0932531
-0.0801395
-0.0678224
-0.056393
-0.0459121
-0.0364119
-0.0278977
-0.0203527
-0.013741
-0.00801261
-0.00310735
0.00104143
0.00450358
0.00734944
0.0096478
0.0114643
0.0128605
0.013893
0.0146131
0.0150672
0.0152961
0.0153358
0.0152177
0.0149686
0.014612
0.014167
0.0136508
0.0130758
0.0124549
0.0117939
0.0111045
0.0103843
0.00964869
0.00888149
0.00811211
0.00729679
0.00650076
0.00562061
0.00480606
0.00382122
0.00300664
0.00182835
0.00101929
-0.305524
-0.304626
-0.303762
-0.302953
-0.302212
-0.301543
-0.300939
-0.300382
-0.299836
-0.299252
-0.298559
-0.297672
-0.296516
-0.294953
-0.292869
-0.290159
-0.286703
-0.28239
-0.277122
-0.270818
-0.263418
-0.254894
-0.245239
-0.234509
-0.22276
-0.210093
-0.196641
-0.182562
-0.168045
-0.153279
-0.138465
-0.123807
-0.109491
-0.0956905
-0.0825529
-0.0701996
-0.058723
-0.048185
-0.0386189
-0.0300314
-0.0224067
-0.0157103
-0.0098934
-0.00489698
-0.00065555
0.00289967
0.00583806
0.00822755
0.0101331
0.0116156
0.0127311
0.0135309
0.0140608
0.0143617
0.0144694
0.0144154
0.0142265
0.0139263
0.0135342
0.0130676
0.0125389
0.0119614
0.011341
0.0106898
0.0100056
0.00930376
0.00856914
0.00782965
0.00704489
0.00627501
0.00542579
0.00463224
0.00368342
0.00287955
0.00175392
0.000936553
-0.30551
-0.304598
-0.303722
-0.302899
-0.302145
-0.301467
-0.300859
-0.300306
-0.299775
-0.299214
-0.298547
-0.297745
-0.296647
-0.295156
-0.293173
-0.290576
-0.287248
-0.283075
-0.277957
-0.271811
-0.264574
-0.256214
-0.246727
-0.236156
-0.224561
-0.212038
-0.198718
-0.18476
-0.170346
-0.155667
-0.140924
-0.126319
-0.112039
-0.0982568
-0.0851215
-0.0727552
-0.0612506
-0.050671
-0.0410504
-0.0323972
-0.0246969
-0.0179165
-0.012009
-0.00691698
-0.00257647
0.00107979
0.00411981
0.00661034
0.00861529
0.0101947
0.0114041
0.0122941
0.0129102
0.013293
0.0134784
0.0134977
0.0133778
0.0131424
0.012811
0.0124012
0.0119257
0.0113981
0.0108246
0.0102173
0.00957464
0.00891156
0.00821446
0.00750946
0.00675983
0.00602034
0.00520643
0.00443804
0.00352952
0.00274123
0.00167214
0.000854751
-0.305392
-0.304479
-0.303596
-0.302765
-0.302
-0.301309
-0.300692
-0.300134
-0.299602
-0.299054
-0.298453
-0.297646
-0.296585
-0.295165
-0.293264
-0.290765
-0.28755
-0.283506
-0.27853
-0.272537
-0.265465
-0.257276
-0.247966
-0.23757
-0.226148
-0.213794
-0.200635
-0.186828
-0.172552
-0.157997
-0.143361
-0.128845
-0.114635
-0.100904
-0.0878014
-0.0754482
-0.0639381
-0.0533348
-0.0436739
-0.0349648
-0.027195
-0.0203335
-0.0143352
-0.00914475
-0.00470039
-0.000936715
0.00221255
0.00481261
0.00692604
0.00861182
0.00992455
0.0109142
0.0116258
0.0120997
0.0123715
0.0124725
0.0124296
0.0122665
0.012003
0.0116569
0.0112412
0.0107695
0.0102486
0.00969051
0.00909455
0.00847512
0.00782022
0.00715411
0.00644397
0.00573901
0.00496453
0.00422551
0.00336117
0.00259376
0.00158422
0.000775847
-0.305127
-0.304228
-0.30335
-0.302517
-0.301745
-0.301042
-0.30041
-0.299837
-0.299318
-0.298783
-0.298141
-0.297356
-0.296332
-0.294957
-0.293118
-0.290698
-0.287579
-0.283649
-0.278805
-0.272959
-0.266049
-0.258034
-0.248908
-0.238701
-0.227471
-0.21531
-0.202341
-0.188717
-0.174613
-0.160218
-0.145728
-0.131338
-0.117236
-0.103591
-0.0905521
-0.0782398
-0.0667479
-0.0561406
-0.0464545
-0.0377009
-0.0298692
-0.0229307
-0.0168428
-0.0115529
-0.00700146
-0.00312557
0.000138957
0.00285543
0.00508485
0.00688485
0.008309
0.00940641
0.0102215
0.0107943
0.0111601
0.0113501
0.0113913
0.0113074
0.0111183
0.0108419
0.0104916
0.0100813
0.00961817
0.00911425
0.00856968
0.00799834
0.00738994
0.00676682
0.00610018
0.00543367
0.00470241
0.00399692
0.00318018
0.00243908
0.00149137
0.000701059
-0.303794
-0.302935
-0.302112
-0.301339
-0.300627
-0.299982
-0.299416
-0.298868
-0.298291
-0.297652
-0.296871
-0.295857
-0.294507
-0.29271
-0.29035
-0.28731
-0.283479
-0.278754
-0.273048
-0.266296
-0.258457
-0.249521
-0.239515
-0.228494
-0.216549
-0.203798
-0.190389
-0.176493
-0.162296
-0.147988
-0.133764
-0.119805
-0.106281
-0.0933369
-0.0810935
-0.0696436
-0.0590521
-0.0493567
-0.0405704
-0.0326851
-0.0256748
-0.0194999
-0.0141106
-0.00945044
-0.00545916
-0.00207506
0.000763025
0.00311423
0.00503467
0.00657666
0.00778838
0.00871359
0.00939173
0.00985783
0.010143
0.0102742
0.0102751
0.0101658
0.00996433
0.00968451
0.00934034
0.00893951
0.00849407
0.00800503
0.00748573
0.00692768
0.00635125
0.00573172
0.0051073
0.00442262
0.00375463
0.00298843
0.00227896
0.00139473
0.000630959
-0.303105
-0.302289
-0.301491
-0.300729
-0.300016
-0.299353
-0.298768
-0.29819
-0.297604
-0.296949
-0.296151
-0.295131
-0.29379
-0.292016
-0.289698
-0.286721
-0.282975
-0.278359
-0.272784
-0.266187
-0.258524
-0.249785
-0.239992
-0.229198
-0.217489
-0.204981
-0.191819
-0.178166
-0.164202
-0.150115
-0.136092
-0.122313
-0.108942
-0.0961236
-0.0839757
-0.0725908
-0.0620342
-0.0523448
-0.0435378
-0.0356075
-0.0285313
-0.0222728
-0.0167857
-0.0120166
-0.00790834
-0.00440202
-0.00143889
0.00103813
0.00308346
0.00474804
0.00607899
0.00711926
0.00790774
0.0084791
0.00886425
0.0090901
0.00918053
0.00915547
0.0090333
0.00882807
0.00855398
0.00821928
0.00783597
0.00740602
0.00694217
0.00643779
0.00591132
0.00534203
0.00476298
0.00412782
0.003501
0.00278781
0.00211494
0.00129533
0.000565633
-0.302079
-0.301336
-0.300585
-0.299853
-0.299153
-0.298482
-0.29785
-0.297268
-0.296667
-0.295986
-0.295164
-0.294127
-0.292779
-0.291015
-0.288725
-0.285797
-0.282124
-0.277606
-0.272158
-0.265712
-0.258229
-0.249693
-0.240125
-0.229574
-0.218123
-0.205884
-0.192996
-0.179618
-0.165923
-0.152092
-0.138304
-0.124737
-0.111551
-0.0988851
-0.0868572
-0.0755583
-0.0650542
-0.0553853
-0.0465689
-0.0386025
-0.0314668
-0.025129
-0.0195465
-0.0146696
-0.0104443
-0.0068148
-0.00372488
-0.0011197
0.00105329
0.00284356
0.00429706
0.00545588
0.00635826
0.00703847
0.00752721
0.00785129
0.00803464
0.00809737
0.00805787
0.00793052
0.00772971
0.00746424
0.00714608
0.00677814
0.00637261
0.00592471
0.00545098
0.00493461
0.00440381
0.00382064
0.0032383
0.00258016
0.00194833
0.00119408
0.000504832
-0.300634
-0.300001
-0.299325
-0.298644
-0.297975
-0.29731
-0.296655
-0.296058
-0.295438
-0.29473
-0.293879
-0.292817
-0.291455
-0.28969
-0.287417
-0.284529
-0.280921
-0.276496
-0.271169
-0.264877
-0.257575
-0.249251
-0.239921
-0.22963
-0.218458
-0.206512
-0.193925
-0.180851
-0.167455
-0.153911
-0.140391
-0.127065
-0.114089
-0.101601
-0.0897146
-0.0785203
-0.0680843
-0.0584487
-0.0496335
-0.0416392
-0.0344504
-0.0280381
-0.0223636
-0.0173811
-0.0130401
-0.00928781
-0.00607084
-0.00333671
-0.00103482
0.000882732
0.00246064
0.00374007
0.00475859
0.00555
0.00614473
0.00656949
0.00684821
0.00700118
0.00704686
0.0069999
0.00687481
0.00668098
0.00643034
0.00612676
0.00578188
0.00539272
0.00497408
0.00451281
0.00403274
0.00350359
0.00296862
0.00236715
0.00178021
0.00109176
0.000448127
-0.29822
-0.297653
-0.297052
-0.296432
-0.295778
-0.295046
-0.294481
-0.293872
-0.293151
-0.292274
-0.291187
-0.289808
-0.288037
-0.285776
-0.282922
-0.279375
-0.27504
-0.269835
-0.263697
-0.256584
-0.248481
-0.239401
-0.229388
-0.218515
-0.206884
-0.194622
-0.181876
-0.168805
-0.155574
-0.142347
-0.129286
-0.116544
-0.104253
-0.0925256
-0.0814509
-0.0710962
-0.061505
-0.0527003
-0.0446861
-0.0374506
-0.0309692
-0.0252071
-0.0201224
-0.0156683
-0.0117951
-0.00845248
-0.00559024
-0.00315984
-0.00111502
0.00058764
0.00198829
0.0031238
0.00402746
0.00472939
0.00525618
0.0056317
0.00587639
0.00600884
0.00604395
0.00599629
0.00587583
0.00569445
0.005457
0.00517454
0.0048459
0.0044842
0.00407978
0.00365248
0.00317898
0.00269383
0.00215029
0.00161143
0.000988959
0.000395
-0.295946
-0.295526
-0.295037
-0.294504
-0.293945
-0.293333
-0.2926
-0.291975
-0.291245
-0.290345
-0.289235
-0.287839
-0.286062
-0.283812
-0.280991
-0.277504
-0.27326
-0.268179
-0.2622
-0.255283
-0.247409
-0.238591
-0.228869
-0.218311
-0.207013
-0.195096
-0.182697
-0.16997
-0.157071
-0.144156
-0.131379
-0.118887
-0.106809
-0.0952548
-0.0843128
-0.0740511
-0.0645153
-0.0557309
-0.0477055
-0.0404314
-0.033888
-0.0280447
-0.0228635
-0.0183011
-0.0143112
-0.0108464
-0.00785885
-0.00530219
-0.00313183
-0.0013057
0.000215334
0.00146734
0.00248309
0.00329233
0.00392149
0.00439435
0.00473145
0.00495145
0.0050696
0.00510046
0.00505454
0.00494362
0.00477352
0.0045548
0.00428797
0.00398468
0.00363841
0.00326554
0.00284891
0.00241559
0.00193089
0.00144273
0.000886184
0.000344927
-0.293207
-0.292964
-0.292609
-0.292169
-0.291653
-0.291008
-0.290268
-0.289694
-0.288987
-0.288092
-0.28698
-0.285579
-0.283804
-0.281569
-0.278785
-0.275361
-0.271211
-0.266259
-0.260445
-0.253729
-0.246094
-0.237549
-0.22813
-0.217901
-0.206951
-0.195393
-0.183358
-0.170989
-0.158438
-0.14585
-0.133373
-0.121146
-0.109294
-0.0979245
-0.087126
-0.076967
-0.0674953
-0.0587392
-0.0507099
-0.0434036
-0.0368038
-0.0308841
-0.0256104
-0.0209431
-0.0168395
-0.0132546
-0.0101436
-0.007462
-0.00516699
-0.00321792
-0.00157674
-0.00020821
0.000919876
0.00183685
0.00256895
0.00313984
0.00357013
0.00387851
0.00408056
0.00419093
0.0042206
0.00418127
0.00407962
0.00392579
0.00372186
0.00347817
0.00319113
0.00287405
0.00251525
0.00213539
0.00171018
0.00127475
0.000783935
0.000297503
-0.290097
-0.290082
-0.289905
-0.289608
-0.289219
-0.288732
-0.28808
-0.287299
-0.286544
-0.285638
-0.284519
-0.283116
-0.281347
-0.279136
-0.276399
-0.273051
-0.26901
-0.264204
-0.258575
-0.252083
-0.244711
-0.236464
-0.227375
-0.217501
-0.206925
-0.19575
-0.184099
-0.172107
-0.159915
-0.147665
-0.135494
-0.123536
-0.111912
-0.100726
-0.0900675
-0.0800055
-0.0705909
-0.0618552
-0.0538137
-0.0464668
-0.0398025
-0.0337986
-0.0284251
-0.0236463
-0.0194225
-0.0157121
-0.0124725
-0.00966143
-0.00723777
-0.00516221
-0.00339774
-0.0019099
-0.000667009
0.000359906
0.00119692
0.00186761
0.0023927
0.00279094
0.00307822
0.00326928
0.00337568
0.00340909
0.00337705
0.00328926
0.0031493
0.00296638
0.00273952
0.00247944
0.00217929
0.00185424
0.00148904
0.00110796
0.000682668
0.000252552
-0.286259
-0.286298
-0.286178
-0.285919
-0.285513
-0.284914
-0.284174
-0.283473
-0.282604
-0.281527
-0.280163
-0.278431
-0.276264
-0.273591
-0.270333
-0.266412
-0.261762
-0.256325
-0.250065
-0.242961
-0.235017
-0.22626
-0.216743
-0.206539
-0.195746
-0.184476
-0.172856
-0.161019
-0.149101
-0.137234
-0.125549
-0.114162
-0.103173
-0.0926697
-0.0827229
-0.0733852
-0.0646911
-0.0566594
-0.0492943
-0.0425876
-0.0365213
-0.0310689
-0.0261984
-0.0218732
-0.0180544
-0.014702
-0.0117758
-0.00923641
-0.00704588
-0.00516834
-0.00357017
-0.00222031
-0.00109024
-0.000154142
0.000611393
0.00122712
0.00171174
0.00208139
0.00235081
0.00253208
0.00263673
0.00267319
0.00265073
0.00257434
0.00245206
0.00228545
0.00208271
0.00184151
0.00157204
0.00126716
0.000941595
0.000581806
0.00020963
-0.281222
-0.281506
-0.281597
-0.281545
-0.281369
-0.281026
-0.280404
-0.279459
-0.278435
-0.277288
-0.275871
-0.274084
-0.271862
-0.269142
-0.265852
-0.261923
-0.257294
-0.251916
-0.245755
-0.238799
-0.231053
-0.222547
-0.213331
-0.203476
-0.193075
-0.182234
-0.171069
-0.159705
-0.148267
-0.136879
-0.125658
-0.114712
-0.104135
-0.0940068
-0.0843943
-0.0753462
-0.0668957
-0.0590616
-0.0518493
-0.0452534
-0.0392587
-0.033843
-0.0289778
-0.024631
-0.0207676
-0.0173516
-0.0143464
-0.0117161
-0.00942558
-0.00744163
-0.00573281
-0.00426989
-0.00302588
-0.00197613
-0.00109827
-0.000372145
0.000220301
0.000695087
0.00106645
0.00134675
0.00154701
0.00167655
0.00174379
0.00175547
0.00171803
0.00163614
0.0015149
0.00135739
0.00116796
0.000948844
0.00070419
0.000436714
0.00015007
-0.27224
-0.272802
-0.273085
-0.273147
-0.27299
-0.2726
-0.272042
-0.27145
-0.270633
-0.269477
-0.267975
-0.266095
-0.263782
-0.260975
-0.257618
-0.253657
-0.249045
-0.243745
-0.237735
-0.23101
-0.22358
-0.215476
-0.206746
-0.197456
-0.187687
-0.177534
-0.167098
-0.156487
-0.145813
-0.13518
-0.124691
-0.114441
-0.104514
-0.0949794
-0.0858973
-0.0773125
-0.0692568
-0.0617496
-0.0547989
-0.0484029
-0.0425516
-0.0372278
-0.0324091
-0.0280693
-0.0241793
-0.020708
-0.017624
-0.0148957
-0.0124923
-0.0103842
-0.008543
-0.00694216
-0.00555699
-0.00436462
-0.00334422
-0.00247672
-0.00174505
-0.00113371
-0.00062908
-0.000218783
0.0001078
0.000360495
0.000547268
0.000676014
0.000752359
0.000783071
0.000771537
0.000724522
0.000642933
0.000535382
0.000399386
0.00024881
7.59557e-05
-0.263384
-0.26423
-0.264737
-0.264991
-0.265039
-0.2649
-0.264557
-0.263929
-0.262993
-0.261759
-0.260192
-0.258245
-0.25587
-0.253017
-0.24964
-0.245698
-0.241156
-0.235986
-0.230174
-0.22372
-0.216636
-0.208952
-0.200713
-0.191977
-0.182816
-0.173313
-0.163556
-0.153641
-0.143662
-0.133714
-0.123887
-0.114263
-0.104918
-0.0959152
-0.0873088
-0.0791406
-0.0714416
-0.0642318
-0.0575214
-0.0513118
-0.0455967
-0.0403636
-0.035595
-0.0312693
-0.0273622
-0.0238473
-0.0206976
-0.0178855
-0.0153839
-0.0131662
-0.011207
-0.00948213
-0.00796896
-0.00664633
-0.00549482
-0.00449646
-0.0036351
-0.00289582
-0.00226555
-0.00173203
-0.00128503
-0.000914389
-0.000612514
-0.000370665
-0.000183804
-4.36041e-05
5.21504e-05
0.000112923
0.000137226
0.000138311
0.000108992
7.14143e-05
9.51922e-06
-0.254772
-0.255867
-0.256583
-0.257017
-0.257214
-0.257167
-0.256839
-0.256223
-0.255319
-0.254093
-0.252514
-0.250548
-0.248157
-0.245304
-0.241953
-0.238072
-0.233634
-0.228622
-0.223026
-0.216848
-0.210105
-0.202825
-0.195048
-0.186828
-0.178228
-0.16932
-0.160184
-0.150903
-0.14156
-0.132237
-0.123015
-0.113967
-0.10516
-0.0966511
-0.0884895
-0.0807145
-0.0733556
-0.066433
-0.0599584
-0.0539354
-0.0483611
-0.0432267
-0.0385185
-0.0342194
-0.0303091
-0.0267656
-0.0235655
-0.0206851
-0.0181005
-0.0157881
-0.0137252
-0.0118897
-0.0102612
-0.00881999
-0.00754816
-0.0064288
-0.00544672
-0.0045876
-0.00383898
-0.00318879
-0.0026272
-0.00214386
-0.00173153
-0.00138081
-0.00108715
-0.000840984
-0.000641043
-0.000475684
-0.000348356
-0.00024204
-0.00016786
-9.69738e-05
-5.28951e-05
-0.246429
-0.247744
-0.248652
-0.24924
-0.249552
-0.249586
-0.249328
-0.248772
-0.247904
-0.246697
-0.245124
-0.243162
-0.240783
-0.237958
-0.23466
-0.230864
-0.226551
-0.221708
-0.216331
-0.210428
-0.204013
-0.197114
-0.18977
-0.182027
-0.173944
-0.165584
-0.157016
-0.148314
-0.139551
-0.1308
-0.122131
-0.11361
-0.105297
-0.0972428
-0.0894935
-0.082085
-0.0750457
-0.0683955
-0.0621472
-0.0563064
-0.0508726
-0.0458401
-0.0411989
-0.0369351
-0.0330325
-0.0294723
-0.026235
-0.0232997
-0.0206456
-0.0182518
-0.0160981
-0.0141645
-0.0124324
-0.0108838
-0.00950198
-0.0082712
-0.0071772
-0.00620629
-0.00534664
-0.00458643
-0.00391627
-0.0033257
-0.00280782
-0.00235273
-0.00195634
-0.00160806
-0.00130745
-0.00104105
-0.00081406
-0.000606244
-0.000432284
-0.000257563
-0.000112168
-0.238416
-0.239926
-0.241008
-0.24174
-0.242167
-0.242297
-0.242121
-0.241627
-0.240801
-0.239623
-0.238077
-0.236142
-0.2338
-0.231027
-0.227803
-0.224109
-0.219932
-0.215266
-0.21011
-0.204472
-0.198371
-0.191831
-0.184889
-0.177588
-0.169978
-0.162116
-0.154065
-0.145888
-0.137651
-0.129418
-0.121252
-0.113211
-0.105348
-0.0977115
-0.0903419
-0.0832732
-0.0765323
-0.070139
-0.0641065
-0.058442
-0.0531469
-0.0482183
-0.0436487
-0.0394275
-0.0355415
-0.0319751
-0.0287117
-0.0257333
-0.0230218
-0.0205588
-0.0183262
-0.016306
-0.0144814
-0.0128358
-0.0113539
-0.010021
-0.00882363
-0.00774886
-0.00678546
-0.00592195
-0.00514934
-0.00445716
-0.00383886
-0.00328417
-0.00278943
-0.00234319
-0.00194583
-0.00158229
-0.00125941
-0.000954114
-0.000684412
-0.000410419
-0.000168273
-0.230773
-0.232452
-0.233692
-0.234561
-0.235102
-0.235328
-0.235232
-0.234802
-0.234026
-0.232894
-0.231391
-0.229504
-0.227217
-0.224514
-0.221379
-0.2178
-0.213769
-0.209282
-0.204343
-0.198963
-0.193158
-0.186954
-0.180384
-0.173487
-0.16631
-0.158902
-0.151319
-0.143618
-0.135857
-0.128094
-0.120383
-0.112778
-0.105327
-0.0980726
-0.0910527
-0.0842987
-0.0778361
-0.0716844
-0.0658571
-0.0603623
-0.0552032
-0.0503788
-0.045884
-0.0417108
-0.0378486
-0.0342845
-0.0310046
-0.0279934
-0.0252351
-0.0227136
-0.0204128
-0.0183166
-0.0164096
-0.0146768
-0.0131041
-0.0116777
-0.0103852
-0.00921417
-0.00815414
-0.00719388
-0.00632491
-0.00553676
-0.00482328
-0.00417387
-0.00358535
-0.00304551
-0.00255556
-0.00209899
-0.00168425
-0.00128567
-0.000924409
-0.000555711
-0.000221433
-0.223514
-0.225339
-0.226721
-0.227717
-0.228368
-0.228686
-0.228669
-0.228307
-0.227592
-0.226516
-0.225071
-0.223246
-0.221028
-0.218408
-0.215373
-0.211917
-0.208036
-0.203729
-0.199002
-0.193867
-0.188342
-0.182451
-0.176225
-0.169699
-0.162916
-0.155921
-0.148763
-0.141494
-0.134164
-0.126827
-0.11953
-0.112322
-0.105247
-0.0983423
-0.091644
-0.0851812
-0.0789778
-0.0730527
-0.0674196
-0.0620874
-0.0570605
-0.0523394
-0.0479211
-0.0437998
-0.0399669
-0.0364121
-0.0331236
-0.0300884
-0.0272926
-0.0247221
-0.0223626
-0.0201998
-0.0182198
-0.0164087
-0.0147538
-0.0132421
-0.0118621
-0.0106022
-0.00945234
-0.00840175
-0.00744238
-0.00656386
-0.00576042
-0.00502123
-0.0043436
-0.00371465
-0.0031364
-0.00259107
-0.00208864
-0.00160106
-0.00115251
-0.000693673
-0.00027184
-0.216644
-0.218595
-0.220102
-0.221214
-0.221968
-0.222376
-0.222437
-0.222147
-0.2215
-0.22049
-0.219111
-0.217357
-0.215219
-0.21269
-0.209763
-0.206435
-0.202705
-0.198575
-0.194053
-0.189153
-0.183891
-0.178291
-0.172382
-0.166197
-0.159774
-0.153155
-0.146384
-0.139506
-0.132568
-0.125617
-0.118697
-0.111851
-0.105118
-0.0985343
-0.092132
-0.0859382
-0.0799757
-0.0742628
-0.068813
-0.0636357
-0.0587364
-0.0541168
-0.0497755
-0.0457085
-0.0419092
-0.0383694
-0.035079
-0.0320271
-0.0292017
-0.0265905
-0.0241809
-0.02196
-0.0199153
-0.0180342
-0.0163049
-0.0147156
-0.0132555
-0.0119135
-0.0106804
-0.00954562
-0.00850168
-0.00753829
-0.00665009
-0.00582606
-0.00506401
-0.0043505
-0.00368834
-0.00305857
-0.00247271
-0.00190047
-0.00136893
-0.00082449
-0.000319599
-0.210162
-0.212221
-0.213838
-0.215055
-0.215904
-0.216398
-0.216539
-0.216323
-0.215747
-0.214808
-0.213502
-0.211825
-0.209773
-0.207341
-0.204527
-0.201329
-0.197749
-0.193792
-0.189468
-0.184789
-0.179774
-0.174446
-0.16883
-0.162958
-0.156865
-0.150588
-0.144168
-0.137647
-0.131065
-0.124465
-0.117887
-0.11137
-0.10495
-0.0986607
-0.0925305
-0.0865852
-0.0808464
-0.0753316
-0.0700543
-0.0650241
-0.0602472
-0.0557264
-0.0514618
-0.0474505
-0.043688
-0.0401673
-0.0368805
-0.0338181
-0.03097
-0.0283254
-0.0258731
-0.0236017
-0.0214998
-0.0195562
-0.0177599
-0.0161
-0.0145666
-0.0131491
-0.0118389
-0.0106259
-0.00950308
-0.00846019
-0.00749234
-0.00658839
-0.00574662
-0.00495311
-0.00421145
-0.00350164
-0.00283663
-0.00218408
-0.00157386
-0.000948307
-0.000364775
-0.204064
-0.206215
-0.207929
-0.209241
-0.210178
-0.210754
-0.210972
-0.21083
-0.210327
-0.209461
-0.208232
-0.206637
-0.204675
-0.202344
-0.199644
-0.196576
-0.193144
-0.189355
-0.185219
-0.180751
-0.175967
-0.17089
-0.165545
-0.15996
-0.154169
-0.148205
-0.142106
-0.135908
-0.129649
-0.123369
-0.117102
-0.110886
-0.104753
-0.0987321
-0.0928519
-0.087136
-0.0816045
-0.0762744
-0.0711589
-0.0662679
-0.0616079
-0.0571828
-0.0529934
-0.0490385
-0.0453146
-0.0418165
-0.0385376
-0.03547
-0.0326049
-0.0299331
-0.0274447
-0.0251295
-0.0229774
-0.020978
-0.0191214
-0.0173975
-0.0157971
-0.0143103
-0.012929
-0.0116435
-0.0104471
-0.00932997
-0.0082875
-0.00730845
-0.00639163
-0.00552266
-0.00470593
-0.00392045
-0.0031806
-0.00245211
-0.00176746
-0.00106525
-0.000407425
-0.198344
-0.200574
-0.202372
-0.203768
-0.204787
-0.20544
-0.205732
-0.205663
-0.205233
-0.204443
-0.203292
-0.201782
-0.199912
-0.197683
-0.195097
-0.192157
-0.188869
-0.185241
-0.181285
-0.177014
-0.172446
-0.167602
-0.162507
-0.157187
-0.151672
-0.145994
-0.140186
-0.134282
-0.128318
-0.122328
-0.116346
-0.110404
-0.104532
-0.0987577
-0.0931072
-0.0876027
-0.0822632
-0.077105
-0.0721409
-0.067381
-0.0628322
-0.0584989
-0.054383
-0.0504842
-0.0468002
-0.043327
-0.0400593
-0.0369907
-0.0341136
-0.03142
-0.0289012
-0.0265482
-0.0243519
-0.0223029
-0.0203922
-0.0186103
-0.0169489
-0.0153985
-0.0139517
-0.0125991
-0.0113346
-0.0101482
-0.00903601
-0.00798662
-0.00699936
-0.00605944
-0.00517204
-0.00431526
-0.00350484
-0.00270473
-0.00194992
-0.00117543
-0.000447593
-0.192997
-0.195293
-0.197164
-0.198635
-0.199727
-0.200453
-0.200816
-0.200818
-0.20046
-0.199744
-0.198673
-0.197247
-0.195469
-0.193341
-0.190868
-0.188053
-0.184904
-0.18143
-0.177643
-0.173558
-0.169192
-0.164564
-0.1597
-0.154622
-0.14936
-0.143942
-0.1384
-0.132765
-0.127069
-0.121344
-0.11562
-0.109927
-0.104294
-0.0987457
-0.0933061
-0.0879962
-0.0828342
-0.0778355
-0.0730127
-0.0683759
-0.0639323
-0.0596868
-0.0556419
-0.0517983
-0.0481546
-0.044708
-0.0414542
-0.038388
-0.035503
-0.0327921
-0.030248
-0.0278625
-0.0256275
-0.0235344
-0.0215752
-0.0197409
-0.018024
-0.0164155
-0.0149085
-0.013494
-0.0121663
-0.0109156
-0.00973848
-0.0086234
-0.00757022
-0.00656382
-0.00561009
-0.00468635
-0.0038096
-0.00294217
-0.00212138
-0.00127895
-0.00048532
-0.188015
-0.190366
-0.1923
-0.193836
-0.194995
-0.195788
-0.196218
-0.196287
-0.196
-0.195358
-0.194364
-0.193022
-0.191335
-0.189307
-0.186942
-0.184248
-0.181232
-0.177904
-0.174277
-0.170366
-0.166187
-0.16176
-0.157107
-0.152252
-0.147222
-0.142042
-0.136742
-0.131351
-0.125899
-0.120414
-0.114926
-0.109461
-0.104045
-0.0987035
-0.0934572
-0.0883262
-0.0833278
-0.0784768
-0.0737856
-0.069264
-0.0649195
-0.0607573
-0.0567806
-0.0529907
-0.0493872
-0.0459681
-0.0427302
-0.039669
-0.0367794
-0.0340553
-0.0314902
-0.0290768
-0.026808
-0.0246759
-0.0226732
-0.0207918
-0.0190245
-0.017363
-0.0158008
-0.0143293
-0.0129433
-0.0116331
-0.0103956
-0.00921937
-0.00810471
-0.0070362
-0.00602045
-0.00503402
-0.00409515
-0.00316463
-0.00228201
-0.00137592
-0.000520647
-0.183389
-0.185786
-0.187772
-0.189367
-0.190586
-0.19144
-0.191932
-0.192067
-0.191847
-0.191276
-0.190358
-0.189098
-0.187499
-0.185567
-0.183307
-0.180728
-0.177839
-0.174649
-0.171172
-0.167422
-0.163417
-0.159175
-0.154717
-0.150066
-0.145247
-0.140284
-0.135205
-0.130037
-0.124806
-0.11954
-0.114265
-0.109008
-0.103791
-0.0986374
-0.093568
-0.0886011
-0.0837533
-0.0790388
-0.0744696
-0.0700554
-0.0658038
-0.0617203
-0.0578087
-0.0540707
-0.0505067
-0.0471155
-0.0438946
-0.0408407
-0.0379493
-0.0352152
-0.0326327
-0.0301956
-0.0278973
-0.0257308
-0.0236893
-0.0217655
-0.0199526
-0.0182428
-0.0166302
-0.0151064
-0.0136666
-0.0123015
-0.0110081
-0.00977517
-0.00860338
-0.00747706
-0.00640351
-0.00535862
-0.00436177
-0.00337236
-0.00243199
-0.00146646
-0.000553613
-0.179111
-0.181545
-0.183576
-0.185221
-0.186494
-0.187403
-0.187954
-0.188149
-0.187993
-0.187491
-0.186646
-0.185464
-0.18395
-0.18211
-0.179951
-0.177481
-0.174711
-0.171651
-0.168314
-0.164714
-0.16087
-0.156798
-0.152519
-0.148054
-0.143428
-0.138662
-0.133784
-0.128817
-0.123788
-0.11872
-0.11364
-0.108571
-0.103535
-0.0985531
-0.0936452
-0.0888286
-0.084119
-0.0795302
-0.0750737
-0.0707592
-0.0665944
-0.0625849
-0.0587349
-0.0550466
-0.051521
-0.0481575
-0.0449545
-0.0419093
-0.0390183
-0.0362769
-0.0336804
-0.0312231
-0.0288992
-0.0267023
-0.0246264
-0.0226644
-0.0208103
-0.0190568
-0.0173982
-0.0158266
-0.0143375
-0.0129218
-0.0115769
-0.0102915
-0.00906682
-0.0078869
-0.0067597
-0.0056605
-0.00460975
-0.00356556
-0.00257148
-0.00155065
-0.00058426
-0.175171
-0.177634
-0.179703
-0.181391
-0.182712
-0.183672
-0.184276
-0.184528
-0.184433
-0.183995
-0.183219
-0.182112
-0.180678
-0.178926
-0.176862
-0.174496
-0.171837
-0.168897
-0.16569
-0.16223
-0.158533
-0.154617
-0.150502
-0.146207
-0.141756
-0.13717
-0.132474
-0.12769
-0.122843
-0.117956
-0.113052
-0.108153
-0.103281
-0.0984556
-0.0936948
-0.0890153
-0.0844323
-0.0799588
-0.0756061
-0.0713838
-0.0672995
-0.0633591
-0.059567
-0.0559259
-0.0524372
-0.049101
-0.0459163
-0.0428808
-0.0399919
-0.0372456
-0.0346377
-0.0321633
-0.0298172
-0.0275936
-0.025487
-0.023491
-0.0215999
-0.0198068
-0.0181064
-0.0164913
-0.0149571
-0.0134949
-0.0121027
-0.0107691
-0.00949565
-0.00826626
-0.00708947
-0.00594003
-0.00483939
-0.0037445
-0.00270066
-0.00162862
-0.000612629
-0.171559
-0.174045
-0.176145
-0.177872
-0.179234
-0.180239
-0.180893
-0.181198
-0.181159
-0.180781
-0.180071
-0.179034
-0.177676
-0.176006
-0.174031
-0.171761
-0.169207
-0.166379
-0.163291
-0.159959
-0.156397
-0.152624
-0.148658
-0.144518
-0.140226
-0.135803
-0.131271
-0.126652
-0.12197
-0.117245
-0.112501
-0.107757
-0.103033
-0.0983493
-0.093722
-0.0891673
-0.0846995
-0.0803314
-0.076074