/*--------------------------------*- C++ -*----------------------------------*\
  =========                 |
  \\      /  F ield         | OpenFOAM: The Open Source CFD Toolbox
   \\    /   O peration     | Website:  https://openfoam.org
    \\  /    A nd           | Version:  7
     \\/     M anipulation  |
\*---------------------------------------------------------------------------*/
FoamFile
{
    version     2.0;
    format      ascii;
    class       volVectorField;
    location    "20.001";
    object      U;
}
// * * * * * * * * * * * * * * * * * * * * * * * * * * * * * * * * * * * * * //

dimensions      [0 1 -1 0 0 0 0];

internalField   nonuniform List<vector> 
3700
(
(-0.223987 0.00210629 2.56597e-22)
(-0.23134 0.00204088 -3.30996e-21)
(-0.238604 0.00199865 3.61234e-21)
(-0.245724 0.00197349 -4.51099e-21)
(-0.252793 0.00195865 2.3977e-21)
(-0.259819 0.00194651 -9.06803e-22)
(-0.266806 0.00193008 3.90764e-21)
(-0.273725 0.00190232 -2.19854e-21)
(-0.280523 0.00185645 2.04221e-21)
(-0.287126 0.00178585 -9.37742e-22)
(-0.293431 0.00168419 -1.58758e-21)
(-0.299315 0.00154578 -8.51824e-22)
(-0.304634 0.00136602 8.33621e-22)
(-0.309227 0.0011414 -7.18862e-22)
(-0.312919 0.000870121 1.02291e-21)
(-0.315525 0.000552629 -3.68541e-22)
(-0.316856 0.000187847 -1.30256e-21)
(-0.316772 -0.000220283 2.80795e-21)
(-0.315123 -0.000680007 -3.29916e-21)
(-0.311735 -0.001181 -5.92546e-22)
(-0.306466 -0.00171586 2.97967e-21)
(-0.299197 -0.00227791 -4.57003e-22)
(-0.289833 -0.00285963 -4.72825e-22)
(-0.278311 -0.0034531 5.23167e-22)
(-0.264597 -0.00404857 -2.16636e-21)
(-0.24869 -0.00463889 1.60496e-21)
(-0.23062 -0.00521381 8.20496e-23)
(-0.210446 -0.00576494 -4.55497e-22)
(-0.188273 -0.00628133 -1.71427e-21)
(-0.164236 -0.00675551 1.40455e-21)
(-0.13849 -0.00718091 6.53228e-22)
(-0.11122 -0.007552 -1.18375e-21)
(-0.0826452 -0.00785805 -1.76612e-23)
(-0.052973 -0.0081145 -2.94321e-22)
(-0.0224383 -0.00829625 7.65882e-22)
(0.00871477 -0.00841026 -4.68326e-22)
(0.0402546 -0.0084678 1.01718e-22)
(0.0719511 -0.008466 -1.75922e-22)
(0.103599 -0.00840957 -2.58749e-23)
(0.135001 -0.00830411 7.0124e-23)
(0.165985 -0.00815572 -2.94048e-23)
(0.196398 -0.0079708 4.23985e-24)
(0.226111 -0.00775581 -1.31877e-23)
(0.255019 -0.00751703 -2.36328e-24)
(0.28304 -0.00726037 -7.68649e-24)
(0.310112 -0.00699123 5.50857e-24)
(0.336193 -0.00671443 -5.0505e-24)
(0.361256 -0.00643415 6.81408e-23)
(0.385293 -0.00615397 -7.84309e-23)
(0.408304 -0.00587684 2.78291e-23)
(0.430301 -0.00560515 6.15067e-23)
(0.451305 -0.00534078 -4.08847e-23)
(0.471344 -0.00508515 4.35759e-23)
(0.490448 -0.00483934 6.26757e-24)
(0.508654 -0.00460403 3.70464e-23)
(0.525999 -0.00437965 -1.14729e-23)
(0.542524 -0.00416635 -9.70832e-24)
(0.558267 -0.00396421 2.31746e-23)
(0.573272 -0.00377303 -4.87145e-24)
(0.587572 -0.00359274 -1.03474e-24)
(0.601217 -0.00342281 6.84873e-24)
(0.614229 -0.00326329 1.63074e-23)
(0.626673 -0.00311319 -8.47011e-24)
(0.638539 -0.00297306 -1.64041e-23)
(0.649934 -0.00284104 1.15247e-24)
(0.660775 -0.00271897 2.9484e-23)
(0.671277 -0.00260303 5.52698e-24)
(0.681182 -0.00249811 -3.15117e-24)
(0.690973 -0.00239586 2.44502e-24)
(0.699965 -0.00230804 -3.95695e-24)
(0.709299 -0.0022163 -5.2555e-24)
(0.717265 -0.00214712 6.55679e-24)
(0.726584 -0.00206115 5.03018e-24)
(0.733102 -0.00201436 7.88677e-25)
(0.743303 -0.00192755 9.34752e-25)
(0.747269 -0.00190748 6.84465e-25)
(0.760402 -0.00181635 1.11966e-24)
(-0.213293 0.00616652 -1.89354e-21)
(-0.220127 0.00596585 5.98746e-21)
(-0.22686 0.00583537 -5.4533e-21)
(-0.233438 0.00575571 -3.65189e-21)
(-0.239949 0.00570712 -2.20915e-21)
(-0.246403 0.00566697 3.54303e-21)
(-0.252803 0.00561443 -5.04513e-21)
(-0.259121 0.00552855 1.45068e-20)
(-0.265307 0.00538913 -6.4844e-21)
(-0.271288 0.00517639 -1.13645e-21)
(-0.276966 0.00487139 2.36883e-21)
(-0.28222 0.00445716 -3.54515e-21)
(-0.286909 0.00391996 4.22676e-21)
(-0.290876 0.00324949 -2.85288e-21)
(-0.293951 0.0024411 -4.60902e-21)
(-0.295952 0.00149985 -1.76656e-21)
(-0.296695 0.000438361 6.44801e-21)
(-0.296052 -0.000810697 -1.57839e-21)
(-0.293871 -0.00218553 1.0002e-20)
(-0.289979 -0.00367813 -1.05285e-20)
(-0.284242 -0.00527106 -1.25996e-21)
(-0.276544 -0.00694468 5.55489e-21)
(-0.266797 -0.00867631 -5.28205e-22)
(-0.254941 -0.0104427 1.85334e-21)
(-0.240948 -0.0122134 -4.83573e-21)
(-0.224818 -0.0139687 6.12541e-21)
(-0.206586 -0.0156773 -3.82692e-21)
(-0.186308 -0.0173138 2.10091e-21)
(-0.164092 -0.0188461 -5.47609e-22)
(-0.140078 -0.0202515 2.19888e-21)
(-0.114419 -0.0215114 -2.00039e-23)
(-0.087293 -0.0226121 -1.10066e-21)
(-0.0589297 -0.0235124 -1.16497e-21)
(-0.0295233 -0.0242742 2.81644e-21)
(0.000698876 -0.0247936 -1.39137e-21)
(0.0314814 -0.0251294 8.19497e-23)
(0.0626021 -0.0252905 3.06376e-22)
(0.0938403 -0.0252751 -6.96664e-22)
(0.124993 -0.0250974 6.62423e-22)
(0.155869 -0.024774 -2.52389e-22)
(0.186301 -0.0243232 3.26457e-24)
(0.216142 -0.0237643 1.56072e-22)
(0.245269 -0.0231164 1.90558e-23)
(0.273581 -0.0223985 -4.35588e-23)
(0.301001 -0.0216281 -1.34451e-23)
(0.327472 -0.0208212 1.04866e-22)
(0.352955 -0.0199923 -2.84825e-22)
(0.377427 -0.0191538 1.51559e-22)
(0.400882 -0.0183162 1.52853e-22)
(0.423322 -0.0174882 -2.02716e-22)
(0.444763 -0.016677 6.5853e-23)
(0.465225 -0.0158881 -4.2477e-23)
(0.484738 -0.0151257 1.00858e-24)
(0.503333 -0.0143929 2.43069e-23)
(0.521048 -0.0136916 -2.49361e-22)
(0.53792 -0.0130232 8.66923e-23)
(0.553989 -0.012388 -9.16356e-23)
(0.569293 -0.0117862 4.0793e-23)
(0.583877 -0.0112172 1.52899e-22)
(0.597773 -0.0106808 7.80321e-23)
(0.611032 -0.0101754 -1.5011e-22)
(0.623673 -0.00970098 4.24932e-23)
(0.635762 -0.00925471 1.23877e-23)
(0.647287 -0.00883819 -7.57586e-23)
(0.658357 -0.00844583 -3.21965e-24)
(0.668886 -0.00808319 -9.12732e-24)
(0.679091 -0.00773874 -1.63099e-23)
(0.68871 -0.00742718 2.74427e-23)
(0.698227 -0.00712355 -4.78813e-23)
(0.70696 -0.00686291 -2.44832e-23)
(0.716039 -0.00659065 5.3928e-23)
(0.723773 -0.00638536 -1.0683e-23)
(0.732848 -0.0061306 -3.11818e-23)
(0.739173 -0.00599156 4.18024e-24)
(0.749117 -0.00573503 -9.71529e-25)
(0.75296 -0.0056748 -1.50968e-24)
(0.765764 -0.00540664 -2.1419e-24)
(-0.192255 0.00978581 1.05917e-20)
(-0.198112 0.00943702 -2.06898e-20)
(-0.203844 0.0092064 1.53544e-20)
(-0.209398 0.00905942 -1.13792e-21)
(-0.214855 0.0089645 -1.13801e-20)
(-0.220226 0.00888489 1.40509e-20)
(-0.225515 0.00878641 4.69024e-22)
(-0.230696 0.0086347 5.91784e-21)
(-0.235723 0.00839655 -5.35768e-21)
(-0.240527 0.00803942 -3.04061e-21)
(-0.245017 0.00753195 1.59829e-20)
(-0.249078 0.00684594 -2.15862e-20)
(-0.252577 0.00595856 1.48844e-20)
(-0.255364 0.00485239 3.1776e-21)
(-0.257273 0.00352001 -2.29967e-20)
(-0.258126 0.00196881 1.43873e-20)
(-0.257793 0.000211168 -1.33049e-21)
(-0.256123 -0.00184093 -3.09008e-21)
(-0.252939 -0.00409901 -7.33181e-22)
(-0.248114 -0.00654943 -8.82277e-21)
(-0.241515 -0.00916463 4.16186e-21)
(-0.233038 -0.0119119 -2.70645e-21)
(-0.222598 -0.0147526 7.67836e-21)
(-0.210142 -0.0176497 -3.06743e-21)
(-0.195652 -0.0205496 6.17753e-21)
(-0.179136 -0.0234235 -5.46586e-21)
(-0.160631 -0.0262194 4.94625e-21)
(-0.140194 -0.0288948 -7.00258e-21)
(-0.117932 -0.0313988 -3.54599e-21)
(-0.0939908 -0.0336874 4.47994e-21)
(-0.0685289 -0.0357373 1.5349e-21)
(-0.0417023 -0.0375387 -2.69163e-21)
(-0.0137661 -0.0390074 -8.76121e-22)
(0.0151163 -0.0401708 3.32553e-21)
(0.0447311 -0.0410142 -2.30171e-21)
(0.0747898 -0.0415492 4.53113e-22)
(0.105106 -0.0417836 -2.10796e-21)
(0.135466 -0.0417284 1.60975e-21)
(0.165674 -0.0414071 -9.43545e-22)
(0.195549 -0.0408473 5.73274e-22)
(0.224934 -0.0400795 -2.87182e-22)
(0.253693 -0.0391356 -4.65173e-23)
(0.281711 -0.0380477 -2.04546e-23)
(0.308898 -0.0368467 6.44469e-24)
(0.335186 -0.0355616 -9.70914e-24)
(0.360524 -0.034219 -5.73969e-23)
(0.384881 -0.0328422 9.31346e-23)
(0.40824 -0.0314518 -1.08948e-22)
(0.430599 -0.0300649 1.38058e-23)
(0.451967 -0.0286957 -8.04971e-23)
(0.47236 -0.0273557 -3.15124e-23)
(0.491803 -0.0260538 -1.38739e-23)
(0.510327 -0.0247967 5.50913e-22)
(0.527965 -0.0235894 -1.48198e-22)
(0.544755 -0.0224349 1.13178e-22)
(0.560734 -0.0213354 -2.07855e-22)
(0.575945 -0.0202911 2.14542e-22)
(0.590423 -0.0193025 -8.27332e-24)
(0.604213 -0.0183682 2.0178e-22)
(0.617348 -0.017488 -3.13531e-22)
(0.629876 -0.0166589 5.83894e-23)
(0.641816 -0.0158813 1.42768e-23)
(0.653233 -0.01515 1.41624e-23)
(0.664115 -0.0144679 -3.43072e-23)
(0.674568 -0.0138255 -2.70732e-23)
(0.684508 -0.0132322 -7.53771e-23)
(0.694146 -0.0126688 4.19635e-23)
(0.703226 -0.0121596 4.85874e-23)
(0.712221 -0.0116634 -6.39373e-23)
(0.720462 -0.0112379 1.28124e-23)
(0.729056 -0.0107936 -5.23824e-23)
(0.736351 -0.0104586 1.3914e-23)
(0.744958 -0.0100441 -5.90291e-24)
(0.750916 -0.00981666 -5.67817e-24)
(0.760368 -0.00940177 1.17584e-23)
(0.763979 -0.00930134 -1.16068e-23)
(0.776152 -0.00887121 6.38143e-25)
(-0.161474 0.0127291 1.20777e-20)
(-0.166008 0.012214 -1.85685e-20)
(-0.17038 0.0118643 2.0937e-20)
(-0.174543 0.0116295 -2.54608e-21)
(-0.178565 0.011468 6.76472e-21)
(-0.182461 0.0113303 6.98684e-21)
(-0.186231 0.0111699 -1.37623e-20)
(-0.189857 0.01094 6.63278e-21)
(-0.193297 0.0105952 -1.38112e-20)
(-0.19649 0.0100907 -8.3963e-22)
(-0.199354 0.00938309 3.14092e-20)
(-0.201784 0.00843324 -2.7155e-20)
(-0.203659 0.00720973 -3.69837e-21)
(-0.20484 0.00568836 1.79024e-20)
(-0.20517 0.00386138 -1.20704e-21)
(-0.204485 0.00173276 -4.78075e-21)
(-0.202688 -0.000731503 2.74923e-21)
(-0.199624 -0.003524 3.5252e-21)
(-0.195121 -0.00661405 2.89739e-21)
(-0.189065 -0.00996784 -1.00444e-21)
(-0.18134 -0.013547 -1.16428e-20)
(-0.171854 -0.0173063 6.68289e-21)
(-0.160533 -0.0211907 7.61971e-21)
(-0.147323 -0.0251559 6.26579e-21)
(-0.132222 -0.0291117 -1.88332e-20)
(-0.115249 -0.0330313 1.44719e-20)
(-0.0964454 -0.0368431 -6.80362e-21)
(-0.0758722 -0.0404913 3.89919e-21)
(-0.0536174 -0.0439095 -6.86028e-21)
(-0.0298445 -0.047013 7.99271e-21)
(-0.00473155 -0.0497837 -1.92057e-21)
(0.0216096 -0.0521731 1.30218e-21)
(0.048945 -0.0541648 2.27843e-21)
(0.0770489 -0.0556777 1.67627e-21)
(0.105742 -0.0568025 -1.27707e-21)
(0.134776 -0.0574872 4.78762e-23)
(0.163955 -0.0577512 5.59988e-22)
(0.193078 -0.0576184 -1.68254e-21)
(0.221963 -0.0571215 1.39167e-23)
(0.250445 -0.0562992 1.07555e-21)
(0.278379 -0.055194 -3.4086e-22)
(0.305642 -0.0538504 6.33345e-22)
(0.332133 -0.0523128 7.11778e-23)
(0.357776 -0.0506241 -1.25926e-22)
(0.382511 -0.0488243 2.21943e-23)
(0.4063 -0.0469497 1.59559e-23)
(0.429119 -0.0450326 -1.59501e-22)
(0.45096 -0.0431006 5.73569e-23)
(0.471827 -0.0411772 4.52341e-23)
(0.491734 -0.0392817 4.77368e-23)
(0.510701 -0.0374294 -7.83913e-23)
(0.528758 -0.0356322 -3.50943e-22)
(0.545937 -0.033899 5.23769e-22)
(0.562273 -0.0322364 -2.99856e-22)
(0.577804 -0.0306482 -1.51343e-22)
(0.59257 -0.0291371 -1.01612e-22)
(0.606611 -0.0277033 1.21653e-22)
(0.619964 -0.0263472 -4.37844e-22)
(0.632673 -0.0250666 1.96338e-22)
(0.644768 -0.0238611 2.72141e-22)
(0.656299 -0.0227265 -2.19147e-23)
(0.667281 -0.0216631 -3.55567e-22)
(0.67778 -0.0206638 -1.16121e-22)
(0.687781 -0.0197324 1.91243e-22)
(0.69739 -0.0188557 -1.45443e-23)
(0.70652 -0.0180467 2.05499e-23)
(0.715381 -0.0172788 2.04939e-24)
(0.723718 -0.0165856 -6.40566e-23)
(0.731995 -0.0159103 1.24448e-22)
(0.739559 -0.0153319 -8.85895e-23)
(0.747481 -0.0147287 2.22057e-23)
(0.754171 -0.0142736 2.09337e-23)
(0.762129 -0.0137133 1.25092e-23)
(0.767583 -0.0134032 2.28436e-23)
(0.776348 -0.0128473 -1.53775e-23)
(0.77964 -0.0127068 6.75951e-24)
(0.790933 -0.0121373 -3.0741e-24)
(-0.121609 0.0148406 1.95966e-21)
(-0.124625 0.0141406 -1.63992e-20)
(-0.127431 0.0136473 2.97847e-20)
(-0.129992 0.0132981 -3.0645e-20)
(-0.132358 0.0130426 3.07217e-20)
(-0.134543 0.0128216 -1.18708e-20)
(-0.13655 0.0125774 -3.82994e-21)
(-0.138362 0.0122523 -3.58493e-20)
(-0.139946 0.0117899 5.56819e-20)
(-0.141253 0.0111343 -5.46116e-20)
(-0.142211 0.0102306 4.05067e-20)
(-0.14273 0.00902872 -8.0422e-21)
(-0.142704 0.00748859 1.30524e-22)
(-0.142007 0.00557678 -6.3574e-21)
(-0.140496 0.00329125 -1.842e-21)
(-0.138044 0.000649935 1.41062e-20)
(-0.134567 -0.0024765 -6.88536e-21)
(-0.129897 -0.00597376 -4.214e-21)
(-0.123892 -0.00983285 -6.47873e-21)
(-0.11645 -0.0140179 -1.01094e-20)
(-0.107474 -0.0184825 1.66028e-20)
(-0.0968827 -0.0231714 -1.95016e-20)
(-0.0846235 -0.0280173 1.25631e-20)
(-0.070626 -0.0329839 3.48483e-21)
(-0.0549046 -0.0379044 -1.18403e-20)
(-0.0375 -0.0427816 1.04399e-20)
(-0.0184582 -0.0475278 -7.48704e-21)
(0.00214774 -0.0520406 6.09742e-21)
(0.0242755 -0.0562417 -5.23673e-21)
(0.047749 -0.060089 -6.60788e-21)
(0.0723684 -0.0635043 -6.90359e-21)
(0.0980189 -0.0664045 1.1345e-20)
(0.124496 -0.0688296 6.28567e-22)
(0.15159 -0.0706853 5.65965e-22)
(0.179112 -0.0720061 -5.39431e-21)
(0.206845 -0.0727783 1.7838e-22)
(0.234598 -0.0730222 2.3165e-21)
(0.262188 -0.0727692 -3.41658e-21)
(0.289447 -0.0720612 1.64299e-21)
(0.316226 -0.070948 -9.99778e-22)
(0.342397 -0.069484 -5.55527e-22)
(0.367854 -0.067726 -2.06203e-22)
(0.392512 -0.0657304 7.23272e-22)
(0.416306 -0.0635513 -1.45848e-22)
(0.439191 -0.0612394 8.27684e-24)
(0.461138 -0.05884 -3.09667e-23)
(0.482136 -0.0563936 2.01534e-24)
(0.502184 -0.0539347 2.82978e-22)
(0.521291 -0.0514922 -5.0465e-22)
(0.539479 -0.0490899 6.44622e-22)
(0.556772 -0.0467465 1.38504e-22)
(0.573202 -0.0444767 -5.23488e-22)
(0.588804 -0.0422909 7.42883e-22)
(0.603614 -0.0401969 -4.05882e-22)
(0.617672 -0.0381992 -3.62938e-22)
(0.631017 -0.0363007 6.96761e-22)
(0.643689 -0.0345016 -1.3536e-22)
(0.655724 -0.0328016 2.24136e-22)
(0.667166 -0.0311981 1.75358e-22)
(0.678043 -0.0296901 -2.41458e-22)
(0.688403 -0.028272 1.76346e-22)
(0.698262 -0.0269444 1.42992e-22)
(0.707681 -0.0256975 -1.44524e-22)
(0.716646 -0.0245368 -8.7677e-23)
(0.72526 -0.0234449 1.16094e-22)
(0.733435 -0.0224388 1.57058e-22)
(0.741378 -0.021484 6.01705e-23)
(0.748837 -0.0206235 -4.70132e-23)
(0.756263 -0.0197857 -5.12771e-23)
(0.763025 -0.0190689 8.75408e-23)
(0.770147 -0.0183229 2.68537e-23)
(0.776121 -0.0177594 -4.6945e-23)
(0.7833 -0.0170706 3.55256e-23)
(0.788157 -0.0166848 9.9657e-24)
(0.796094 -0.0160092 2.19248e-23)
(0.799011 -0.015829 3.83044e-24)
(0.809241 -0.0151471 6.11734e-24)
(-0.0746318 0.0151626 3.48597e-20)
(-0.0758473 0.0144986 -4.21959e-20)
(-0.0767764 0.0140034 5.43419e-21)
(-0.0774486 0.0136209 1.9092e-20)
(-0.0778742 0.0132846 -1.94443e-20)
(-0.0780553 0.0129285 -3.106e-20)
(-0.0779801 0.0124858 2.15027e-20)
(-0.077624 0.011891 2.79364e-20)
(-0.0769491 0.0110785 -6.32683e-21)
(-0.0759 0.00998285 2.83341e-20)
(-0.0744017 0.0085427 -3.9764e-20)
(-0.0723684 0.00671059 -1.47513e-20)
(-0.0696904 0.00445289 3.89487e-20)
(-0.0662267 0.00178854 -1.04535e-20)
(-0.0619398 -0.00140856 1.03557e-20)
(-0.0567149 -0.00510713 -4.25058e-20)
(-0.0503686 -0.00923207 4.32221e-20)
(-0.0428161 -0.0137825 -3.18187e-20)
(-0.0339654 -0.0187166 3.35883e-21)
(-0.0237324 -0.0239805 3.25353e-20)
(-0.012054 -0.0295125 -1.63043e-20)
(0.001087 -0.0352265 2.58021e-21)
(0.0158012 -0.0410183 2.71359e-21)
(0.0320733 -0.0468212 -2.04323e-20)
(0.0498045 -0.0525587 5.55728e-21)
(0.0689775 -0.058137 3.72979e-21)
(0.0895031 -0.0634151 2.87957e-21)
(0.111323 -0.0683035 5.67387e-21)
(0.134288 -0.0727953 -8.43977e-22)
(0.158218 -0.0767647 4.91637e-21)
(0.182977 -0.0801399 -2.2845e-21)
(0.208377 -0.0829086 2.40907e-21)
(0.234226 -0.0850161 -6.16541e-21)
(0.26034 -0.0864703 6.5053e-21)
(0.286524 -0.0872726 -3.99305e-21)
(0.312601 -0.0874468 4.33927e-21)
(0.338406 -0.0870318 8.98219e-22)
(0.36379 -0.0860792 2.5915e-21)
(0.388623 -0.0846497 -2.96249e-21)
(0.412795 -0.0828092 1.44276e-22)
(0.436218 -0.0806264 6.36495e-22)
(0.458822 -0.0781691 6.2556e-22)
(0.480559 -0.0755023 3.4673e-22)
(0.501396 -0.0726859 -2.76067e-22)
(0.521318 -0.0697744 1.43837e-22)
(0.54032 -0.0668152 -2.64533e-22)
(0.55841 -0.0638489 -3.95178e-22)
(0.575607 -0.0609096 3.79859e-22)
(0.591933 -0.0580247 1.63725e-23)
(0.607419 -0.0552161 7.5242e-24)
(0.622097 -0.0525002 -5.03429e-22)
(0.636005 -0.0498891 -8.78618e-23)
(0.64918 -0.0473913 3.46996e-22)
(0.661661 -0.0450117 -2.03721e-22)
(0.673486 -0.0427531 -1.28216e-22)
(0.684696 -0.0406154 6.67297e-23)
(0.695325 -0.038598 -6.06941e-22)
(0.705414 -0.0366972 -2.21351e-22)
(0.714991 -0.0349117 3.08155e-22)
(0.724103 -0.0332343 2.2326e-22)
(0.732761 -0.0316657 -4.15551e-22)
(0.741027 -0.030194 2.77556e-23)
(0.748884 -0.0288256 2.31373e-23)
(0.756432 -0.0275393 -2.54276e-22)
(0.763585 -0.0263557 -4.75468e-23)
(0.770541 -0.0252334 -2.34682e-23)
(0.777059 -0.0242235 -1.50647e-22)
(0.783566 -0.0232412 -1.42916e-23)
(0.789466 -0.0224017 -1.69565e-22)
(0.795722 -0.0215305 -7.57475e-24)
(0.800924 -0.020871 -2.47447e-23)
(0.807253 -0.0200726 8.77545e-24)
(0.81147 -0.0196185 -8.90787e-23)
(0.818496 -0.0188461 -1.77416e-23)
(0.821014 -0.0186272 -8.97314e-24)
(0.830075 -0.017861 -8.5677e-24)
(-0.0163346 0.0153359 -2.98387e-20)
(-0.0161283 0.0144733 3.75507e-20)
(-0.015588 0.013798 -2.52761e-20)
(-0.0147224 0.0132508 -6.30293e-21)
(-0.0135348 0.0127612 1.95975e-20)
(-0.0120239 0.0122578 2.6894e-20)
(-0.0101808 0.0116678 -2.96222e-20)
(-0.00798883 0.0109194 -2.92294e-20)
(-0.0054236 0.00993928 5.86844e-20)
(-0.00244617 0.00865037 -5.50297e-20)
(0.00100084 0.0069841 4.63667e-21)
(0.00498635 0.00488777 4.93132e-20)
(0.00961159 0.00234247 -2.20403e-21)
(0.0149207 -0.000724257 -3.49144e-20)
(0.0209747 -0.00440945 -8.30424e-21)
(0.0279334 -0.0085777 4.81554e-21)
(0.0358854 -0.0132494 1.95445e-20)
(0.0449119 -0.0184027 -4.50325e-20)
(0.0550901 -0.0239904 4.29216e-20)
(0.0664869 -0.0299515 -3.11726e-20)
(0.0791547 -0.0362182 -7.89405e-21)
(0.0931088 -0.0426865 2.447e-20)
(0.108405 -0.0491953 2.58674e-23)
(0.125046 -0.0557705 3.0245e-20)
(0.142958 -0.0622514 -2.33561e-20)
(0.162096 -0.0685387 -1.50323e-20)
(0.182367 -0.074493 3.19671e-20)
(0.203704 -0.0800126 -1.8511e-20)
(0.22597 -0.0850375 -3.64811e-21)
(0.249001 -0.0894613 -1.24217e-20)
(0.272655 -0.0932101 2.15459e-21)
(0.296759 -0.0962467 -4.38336e-22)
(0.321135 -0.0985289 -2.12764e-21)
(0.345612 -0.100055 4.088e-21)
(0.370017 -0.100832 3.95224e-22)
(0.394192 -0.10089 -6.34012e-22)
(0.417991 -0.100276 2.18213e-21)
(0.441287 -0.0990516 -2.99174e-21)
(0.463971 -0.0972869 2.37338e-21)
(0.485954 -0.0950596 -2.96526e-21)
(0.507167 -0.0924493 1.45818e-21)
(0.527558 -0.0895346 -9.80393e-22)
(0.547094 -0.0863903 4.56237e-22)
(0.565756 -0.0830854 9.16238e-23)
(0.58354 -0.0796816 -2.63634e-23)
(0.60045 -0.0762331 -2.13564e-22)
(0.616503 -0.0727858 4.50999e-22)
(0.631719 -0.0693779 4.07599e-22)
(0.646128 -0.0660401 -1.05756e-21)
(0.65976 -0.0627966 -8.49669e-24)
(0.672651 -0.0596656 -7.5358e-23)
(0.684838 -0.0566602 8.09324e-22)
(0.696356 -0.0537892 5.62562e-23)
(0.707245 -0.0510577 5.86238e-22)
(0.71754 -0.0484685 -5.94846e-22)
(0.727281 -0.0460209 -4.03302e-23)
(0.736499 -0.0437139 6.80589e-22)
(0.745234 -0.0415426 -6.72866e-22)
(0.753511 -0.0395054 6.19364e-22)
(0.761374 -0.0375937 -8.86231e-23)
(0.768833 -0.035808 -5.27537e-24)
(0.775947 -0.0341342 3.5248e-22)
(0.782696 -0.03258 -5.3129e-22)
(0.789178 -0.0311204 -2.98539e-24)
(0.795309 -0.0297792 8.15238e-23)
(0.801276 -0.0285087 1.58817e-22)
(0.80685 -0.027367 4.04945e-23)
(0.812434 -0.0262585 7.48165e-24)
(0.817469 -0.0253116 1.0595e-23)
(0.822848 -0.0243331 9.66523e-24)
(0.827276 -0.0235895 8.26684e-23)
(0.83274 -0.0227006 9.91605e-24)
(0.836316 -0.0221854 7.65644e-24)
(0.842406 -0.0213385 -1.07434e-24)
(0.844528 -0.0210824 1.74973e-23)
(0.852385 -0.0202579 4.33498e-24)
(0.0504595 0.0148173 4.22579e-20)
(0.0517212 0.0137347 -4.49876e-20)
(0.0533785 0.0128442 3.95711e-20)
(0.0554366 0.0120912 -4.7657e-20)
(0.0579028 0.0114046 2.73943e-20)
(0.0607844 0.0107116 4.12787e-20)
(0.0640899 0.0099365 -6.00445e-20)
(0.0678297 0.0090049 7.16818e-20)
(0.0720138 0.00783817 -5.38376e-20)
(0.076666 0.00634843 -2.39994e-20)
(0.0818277 0.00446562 6.26762e-21)
(0.0875557 0.00214954 4.92757e-20)
(0.093886 -0.000699366 -4.96358e-20)
(0.100852 -0.0041729 4.81723e-20)
(0.108536 -0.00819835 -2.50652e-21)
(0.117041 -0.0127804 7.26179e-21)
(0.126429 -0.0179189 -1.93826e-20)
(0.136766 -0.0235832 1.45636e-20)
(0.14811 -0.0297234 -1.89781e-21)
(0.16051 -0.0362715 -1.30978e-20)
(0.174003 -0.0431518 2.80228e-20)
(0.188596 -0.0502558 -2.76174e-20)
(0.204318 -0.0574449 2.79555e-20)
(0.221167 -0.0646611 -3.63509e-21)
(0.239078 -0.0717685 -2.38251e-20)
(0.257994 -0.0786514 -1.3026e-20)
(0.277821 -0.0851663 1.62151e-20)
(0.298481 -0.0911986 -1.42605e-20)
(0.319848 -0.0966604 -1.48824e-20)
(0.341768 -0.101447 3.40058e-20)
(0.3641 -0.105478 -1.4184e-20)
(0.386687 -0.108705 -6.63422e-21)
(0.409367 -0.11109 -4.05182e-21)
(0.431986 -0.112627 2.05764e-20)
(0.454392 -0.113328 -1.10522e-20)
(0.47645 -0.11323 -6.18215e-22)
(0.498039 -0.112387 4.09325e-21)
(0.519054 -0.11087 2.11409e-21)
(0.539412 -0.10876 -3.40951e-21)
(0.559045 -0.106145 6.45037e-22)
(0.577906 -0.103114 -1.38991e-21)
(0.595961 -0.0997567 1.56687e-21)
(0.613194 -0.0961553 -6.36553e-22)
(0.629598 -0.092387 3.37814e-23)
(0.645179 -0.0885202 -4.52253e-23)
(0.659952 -0.0846145 2.8106e-22)
(0.673937 -0.0807202 -4.33147e-22)
(0.68716 -0.0768789 7.89789e-22)
(0.69965 -0.0731241 -1.02899e-21)
(0.711442 -0.0694816 6.45661e-22)
(0.722568 -0.065971 4.77836e-22)
(0.733063 -0.0626059 2.78795e-22)
(0.742964 -0.0593957 -3.81311e-22)
(0.752305 -0.056345 2.45089e-22)
(0.76112 -0.0534566 -2.56506e-22)
(0.769444 -0.0507291 -6.65454e-22)
(0.777307 -0.0481612 3.03305e-22)
(0.784744 -0.0457468 5.87682e-23)
(0.791778 -0.0434842 1.72529e-22)
(0.798449 -0.0413628 4.41692e-22)
(0.804766 -0.0393837 -5.48326e-22)
(0.810783 -0.0375303 3.40141e-22)
(0.816481 -0.0358114 6.22775e-22)
(0.82195 -0.0341987 -1.80951e-22)
(0.827109 -0.0327189 -6.46489e-23)
(0.832135 -0.0313187 1.65896e-22)
(0.836813 -0.0300621 -2.72477e-23)
(0.841516 -0.0288445 3.46199e-23)
(0.84573 -0.0278044 1.77525e-22)
(0.850268 -0.0267354 -8.53421e-23)
(0.853963 -0.0259188 1.2029e-22)
(0.858589 -0.0249571 4.16995e-23)
(0.86156 -0.0243876 6.81885e-24)
(0.866738 -0.0234863 2.58395e-23)
(0.868489 -0.0231953 -2.26265e-24)
(0.875174 -0.0223347 6.17933e-24)
(0.12643 0.0138693 -1.07529e-19)
(0.128188 0.0125454 -2.0297e-20)
(0.130429 0.0114026 7.09584e-20)
(0.133163 0.0103986 -1.77682e-20)
(0.136406 0.00946658 4.37936e-20)
(0.140171 0.00853512 -3.51873e-20)
(0.144469 0.0075287 1.96565e-21)
(0.149307 0.00637429 2.68835e-20)
(0.154679 0.00499168 -7.86607e-21)
(0.160598 0.00329141 -3.25381e-20)
(0.167101 0.00122375 3.60713e-20)
(0.174186 -0.00136565 1.48878e-21)
(0.181863 -0.00453437 -1.06903e-20)
(0.190191 -0.00829225 9.47421e-22)
(0.199215 -0.0126299 4.51382e-20)
(0.208988 -0.0175689 -2.54764e-20)
(0.219555 -0.0231001 -3.49612e-20)
(0.23096 -0.0291921 -1.58499e-22)
(0.243239 -0.0357932 4.60129e-20)
(0.25642 -0.0428304 -2.94746e-20)
(0.270526 -0.050221 2.60797e-20)
(0.285551 -0.057852 -3.73795e-20)
(0.301501 -0.0655893 1.37699e-21)
(0.31836 -0.0733378 4.58804e-20)
(0.336069 -0.0809615 -2.79646e-20)
(0.354559 -0.0883305 -2.51978e-21)
(0.373737 -0.0952965 3.79019e-21)
(0.393513 -0.101732 1.25637e-20)
(0.413767 -0.107532 -2.94765e-20)
(0.434358 -0.112587 1.09177e-21)
(0.455149 -0.116813 1.15902e-22)
(0.475996 -0.120154 1.56962e-20)
(0.496758 -0.122573 1.23697e-20)
(0.517298 -0.124063 -6.32545e-21)
(0.537493 -0.124642 5.00684e-21)
(0.55723 -0.124354 -1.07563e-20)
(0.576417 -0.12326 2.94245e-21)
(0.594977 -0.121439 -5.56675e-21)
(0.612852 -0.118984 5.65387e-21)
(0.629999 -0.115991 -4.74024e-22)
(0.646391 -0.112558 -2.15813e-21)
(0.662017 -0.108783 6.57662e-22)
(0.676874 -0.104756 -1.37666e-22)
(0.690969 -0.10056 3.4472e-22)
(0.704318 -0.0962691 -9.69712e-23)
(0.716941 -0.0919473 8.35982e-23)
(0.728863 -0.0876483 -3.27321e-22)
(0.740114 -0.0834164 1.26285e-23)
(0.750722 -0.079287 -4.20384e-23)
(0.760719 -0.0752871 4.20559e-22)
(0.770138 -0.0714372 3.0766e-22)
(0.779009 -0.0677512 -5.5485e-22)
(0.787366 -0.0642387 -4.39751e-22)
(0.795239 -0.0609041 4.36786e-22)
(0.802657 -0.0577498 -2.94493e-22)
(0.809652 -0.0547737 8.03678e-23)
(0.816249 -0.0519745 1.00202e-21)
(0.822481 -0.0493449 -7.06169e-22)
(0.828364 -0.0468829 -4.00742e-22)
(0.833936 -0.0445765 1.12376e-22)
(0.839202 -0.0424269 -1.62421e-22)
(0.844212 -0.0404155 -4.15864e-22)
(0.848946 -0.0385522 1.94105e-22)
(0.853488 -0.0368057 3.62371e-22)
(0.85776 -0.0352049 -3.43309e-22)
(0.861926 -0.0336923 -6.31615e-24)
(0.865788 -0.0323359 -2.28783e-22)
(0.869684 -0.0310252 1.20177e-22)
(0.873152 -0.0299046 -1.29233e-22)
(0.876916 -0.0287604 -1.19059e-22)
(0.879946 -0.0278806 3.31057e-23)
(0.883797 -0.0268616 -2.49981e-23)
(0.886223 -0.0262442 -5.05552e-23)
(0.890549 -0.0253053 -7.39941e-25)
(0.891969 -0.0249821 -2.97942e-23)
(0.897559 -0.0241027 3.13608e-24)
(0.212521 0.0128586 -4.94607e-21)
(0.214049 0.0112545 -1.04453e-19)
(0.216182 0.00981439 7.71041e-20)
(0.218933 0.00850844 4.86299e-20)
(0.222316 0.00727659 -5.37907e-20)
(0.226348 0.00605145 -2.24738e-20)
(0.231041 0.0047589 -5.68355e-20)
(0.236401 0.00333258 1.13882e-19)
(0.242409 0.00170855 -2.17037e-20)
(0.249079 -0.000213024 -3.52559e-20)
(0.256377 -0.0025723 1.47576e-20)
(0.264308 -0.00546371 -6.13245e-23)
(0.272912 -0.00888809 -1.82373e-20)
(0.282188 -0.0128924 1.96882e-20)
(0.292148 -0.0175101 7.37891e-22)
(0.302818 -0.0227534 -1.94589e-20)
(0.31422 -0.0286127 3.10715e-20)
(0.326371 -0.0350569 -2.5202e-20)
(0.339285 -0.0420334 -2.64747e-20)
(0.352967 -0.049467 4.58671e-20)
(0.36742 -0.0572691 -1.30322e-20)
(0.382622 -0.0653234 2.95241e-20)
(0.398558 -0.0734954 -4.95707e-20)
(0.415194 -0.0816675 3.23194e-20)
(0.432468 -0.0896973 1.41221e-20)
(0.450301 -0.0974431 -2.69148e-20)
(0.468599 -0.104752 1.21491e-20)
(0.487261 -0.111485 -4.23087e-21)
(0.506172 -0.117524 -2.42666e-20)
(0.5252 -0.122755 2.59993e-21)
(0.544217 -0.12709 1.68969e-20)
(0.563095 -0.130469 -3.4793e-21)
(0.581713 -0.132856 -1.03609e-22)
(0.59996 -0.134248 -3.30472e-21)
(0.617738 -0.134667 1.96199e-20)
(0.634965 -0.134162 -1.08471e-20)
(0.651578 -0.132804 8.48229e-22)
(0.667531 -0.130681 6.01341e-21)
(0.682792 -0.127891 -3.39757e-21)
(0.697345 -0.12454 2.80607e-21)
(0.711186 -0.120735 -3.58577e-21)
(0.724321 -0.116579 8.70767e-22)
(0.736764 -0.112168 -9.79156e-22)
(0.748532 -0.107591 8.1741e-22)
(0.75965 -0.102925 3.58786e-23)
(0.770142 -0.0982368 -1.40709e-22)
(0.780038 -0.0935833 1.61962e-22)
(0.789365 -0.0890103 -3.41322e-24)
(0.798151 -0.0845545 2.89271e-22)
(0.806426 -0.0802438 -1.45133e-22)
(0.814218 -0.0760991 -6.26832e-22)
(0.821553 -0.0721346 6.25972e-22)
(0.82846 -0.0683597 -6.81629e-22)
(0.834963 -0.0647786 5.39724e-22)
(0.841087 -0.0613933 2.11794e-22)
(0.846858 -0.0582013 -5.32214e-22)
(0.852296 -0.0552011 -9.31312e-22)
(0.857429 -0.0523843 -2.54092e-22)
(0.862269 -0.0497489 1.08015e-21)
(0.866849 -0.0472816 -2.0105e-22)
(0.871171 -0.0449839 -2.72972e-23)
(0.875281 -0.0428354 1.77963e-22)
(0.879155 -0.0408469 3.02183e-23)
(0.882872 -0.0389846 -6.49484e-22)
(0.886358 -0.0372793 4.18297e-23)
(0.889762 -0.0356701 2.73827e-22)
(0.892903 -0.0342278 -2.83109e-22)
(0.896084 -0.0328382 2.13895e-22)
(0.898895 -0.0316484 1.85838e-22)
(0.901972 -0.0304424 -3.71242e-23)
(0.904419 -0.029508 -8.27758e-23)
(0.907577 -0.0284448 -1.66515e-23)
(0.909528 -0.0277854 -2.73543e-23)
(0.91309 -0.026822 6.47029e-24)
(0.914225 -0.02647 2.47757e-24)
(0.918829 -0.025584 -9.47781e-24)
(0.309526 0.0122411 3.56668e-20)
(0.309964 0.0102822 -1.57236e-20)
(0.311188 0.00848019 6.9735e-20)
(0.3132 0.00680829 -1.21167e-21)
(0.316004 0.00521326 -8.31185e-20)
(0.319606 0.00363239 -5.80127e-20)
(0.32402 0.00199314 4.93548e-20)
(0.329257 0.000256338 -4.61862e-21)
(0.335276 -0.00168188 3.79434e-20)
(0.342035 -0.0039439 -7.84744e-20)
(0.34953 -0.00663873 2.99339e-20)
(0.357784 -0.00977758 4.72219e-21)
(0.366773 -0.0134478 1.90523e-20)
(0.37648 -0.0177092 4.2072e-20)
(0.386893 -0.0225901 -2.47604e-20)
(0.39801 -0.0281036 -9.12634e-21)
(0.409825 -0.034243 -8.66388e-21)
(0.422329 -0.0409783 5.45295e-20)
(0.43551 -0.0482578 3.31337e-21)
(0.449348 -0.0560055 -9.25883e-21)
(0.463822 -0.0641287 -2.66131e-20)
(0.478892 -0.0725094 3.20318e-20)
(0.494519 -0.0810116 -5.24869e-20)
(0.510651 -0.0895024 3.72325e-20)
(0.527214 -0.0978322 -3.24256e-20)
(0.544122 -0.105849 2.9363e-20)
(0.561272 -0.113395 -2.21332e-20)
(0.57856 -0.120323 2.48789e-20)
(0.595871 -0.126504 -3.08724e-20)
(0.613084 -0.131821 1.33884e-20)
(0.630082 -0.136185 -1.83771e-20)
(0.646756 -0.139532 2.28316e-20)
(0.663007 -0.141831 -1.79913e-20)
(0.678753 -0.143081 7.77902e-21)
(0.693926 -0.14331 3.66998e-21)
(0.708478 -0.142574 1.43026e-21)
(0.722375 -0.14095 -8.70831e-21)
(0.735604 -0.138535 1.04607e-21)
(0.748161 -0.135434 7.04323e-21)
(0.760055 -0.131759 -7.3639e-21)
(0.771305 -0.127623 2.88505e-21)
(0.781932 -0.123134 -2.53014e-21)
(0.791963 -0.118392 2.71131e-21)
(0.801427 -0.113488 -2.11626e-21)
(0.810353 -0.108503 8.62049e-22)
(0.818769 -0.103506 2.59951e-22)
(0.826704 -0.0985542 4.50621e-23)
(0.834184 -0.093695 -3.48554e-22)
(0.841234 -0.0889657 2.66377e-22)
(0.847879 -0.0843945 1.94136e-22)
(0.854141 -0.0800026 4.19613e-22)
(0.860043 -0.0758042 -5.81191e-22)
(0.865605 -0.0718086 4.23084e-22)
(0.870847 -0.0680197 2.52522e-22)
(0.875787 -0.0644395 -1.41128e-22)
(0.880445 -0.0610647 -4.27684e-22)
(0.884837 -0.0578937 -3.21798e-22)
(0.888982 -0.0549179 7.63975e-22)
(0.892892 -0.0521348 4.13371e-22)
(0.896591 -0.0495304 -9.08703e-22)
(0.90008 -0.0471063 1.35553e-22)
(0.903396 -0.0448407 1.55868e-22)
(0.906519 -0.0427451 -2.83836e-22)
(0.909515 -0.040784 4.56473e-23)
(0.912319 -0.0389893 2.48261e-22)
(0.91506 -0.0372981 -1.40729e-22)
(0.91758 -0.0357825 -1.41816e-22)
(0.920142 -0.0343267 2.07441e-22)
(0.92239 -0.0330778 9.12342e-23)
(0.924872 -0.0318213 -1.23619e-22)
(0.926823 -0.0308401 -1.53958e-24)
(0.929378 -0.0297433 5.67925e-23)
(0.930928 -0.0290473 -2.02992e-23)
(0.93382 -0.028069 -3.09059e-24)
(0.934717 -0.027692 1.90927e-23)
(0.93846 -0.026807 -2.60893e-24)
(0.415918 0.0100895 -3.21364e-20)
(0.415404 0.00782901 -3.98092e-21)
(0.415903 0.00570606 -2.69363e-20)
(0.417392 0.00367079 1.12529e-19)
(0.419858 0.00166332 -9.10878e-20)
(0.423318 -0.000388419 -5.01959e-20)
(0.427758 -0.00252596 1.04308e-20)