/*--------------------------------*- C++ -*----------------------------------*\
  =========                 |
  \\      /  F ield         | OpenFOAM: The Open Source CFD Toolbox
   \\    /   O peration     | Website:  https://openfoam.org
    \\  /    A nd           | Version:  7
     \\/     M anipulation  |
\*---------------------------------------------------------------------------*/
FoamFile
{
    version     2.0;
    format      ascii;
    class       volScalarField;
    location    "105";
    object      p;
}
// * * * * * * * * * * * * * * * * * * * * * * * * * * * * * * * * * * * * * //

dimensions      [0 2 -2 0 0 0 0];

internalField   nonuniform List<scalar> 
14800
(
-0.373283
-0.376853
-0.378242
-0.38051
-0.383452
-0.387051
-0.391132
-0.395402
-0.399402
-0.402514
-0.403938
-0.40275
-0.398153
-0.389926
-0.3776
-0.381037
-0.384391
-0.386077
-0.388952
-0.392853
-0.39778
-0.403575
-0.409946
-0.416387
-0.42213
-0.426124
-0.42701
-0.423378
-0.41459
-0.398722
-0.388968
-0.392012
-0.393964
-0.397411
-0.402237
-0.408451
-0.415914
-0.42433
-0.433153
-0.441463
-0.447945
-0.450803
-0.447922
-0.438439
-0.418579
-0.396961
-0.399603
-0.401774
-0.405734
-0.411412
-0.418829
-0.427854
-0.438184
-0.449221
-0.45991
-0.468647
-0.473222
-0.470685
-0.46037
-0.436055
-0.404895
-0.407047
-0.409376
-0.413761
-0.420186
-0.428673
-0.439095
-0.451132
-0.464124
-0.476881
-0.487488
-0.493395
-0.490604
-0.479461
-0.44992
-0.412646
-0.414233
-0.416642
-0.42134
-0.428372
-0.437755
-0.449355
-0.46282
-0.477424
-0.491859
-0.503817
-0.510608
-0.506822
-0.494763
-0.4595
-0.420099
-0.421061
-0.423458
-0.428337
-0.435805
-0.44587
-0.458386
-0.47295
-0.488751
-0.504353
-0.517176
-0.524283
-0.51939
-0.505345
-0.464491
-0.42715
-0.427442
-0.429734
-0.434637
-0.442348
-0.452855
-0.466
-0.481307
-0.497888
-0.514169
-0.527168
-0.534055
-0.527472
-0.511134
-0.465466
-0.433718
-0.433321
-0.435397
-0.440164
-0.447909
-0.458612
-0.472062
-0.487752
-0.504675
-0.521111
-0.533755
-0.539829
-0.531041
-0.512211
-0.462565
-0.439743
-0.438661
-0.440409
-0.444872
-0.452436
-0.463074
-0.476533
-0.492251
-0.509097
-0.525215
-0.536986
-0.541691
-0.530337
-0.508781
-0.45621
-0.445194
-0.443451
-0.444767
-0.448761
-0.455931
-0.466257
-0.479446
-0.494869
-0.51126
-0.526627
-0.537056
-0.539848
-0.525731
-0.501234
-0.446896
-0.450069
-0.447711
-0.448497
-0.451867
-0.458447
-0.468237
-0.480907
-0.495753
-0.511367
-0.525583
-0.534241
-0.534611
-0.517652
-0.490169
-0.435153
-0.4544
-0.451482
-0.451657
-0.454267
-0.460085
-0.469145
-0.481089
-0.495118
-0.509678
-0.52237
-0.528853
-0.526355
-0.50656
-0.476341
-0.421575
-0.458246
-0.454834
-0.45433
-0.45607
-0.460986
-0.469163
-0.480213
-0.493233
-0.506481
-0.517286
-0.521211
-0.515495
-0.492971
-0.460569
-0.406814
-0.461694
-0.457851
-0.456623
-0.457414
-0.461327
-0.468506
-0.478536
-0.490377
-0.502058
-0.510604
-0.511622
-0.502466
-0.477479
-0.443645
-0.391523
-0.464857
-0.460639
-0.458658
-0.458457
-0.461305
-0.467414
-0.476326
-0.486816
-0.49665
-0.502552
-0.500381
-0.487722
-0.460726
-0.426247
-0.376233
-0.467872
-0.463314
-0.460573
-0.459368
-0.461133
-0.46613
-0.473831
-0.482775
-0.490443
-0.493332
-0.487794
-0.471737
-0.443321
-0.4088
-0.361205
-0.470887
-0.466001
-0.462512
-0.460323
-0.461013
-0.464876
-0.471255
-0.478414
-0.483571
-0.483148
-0.4742
-0.45503
-0.425775
-0.391343
-0.346357
-0.47406
-0.46883
-0.464619
-0.461489
-0.461136
-0.463831
-0.468737
-0.473828
-0.47613
-0.472225
-0.459984
-0.438181
-0.408514
-0.373696
-0.331558
-0.477551
-0.471926
-0.467031
-0.463015
-0.461647
-0.463112
-0.466346
-0.469054
-0.468208
-0.460809
-0.445547
-0.421767
-0.391953
-0.356249
-0.317232
-0.481504
-0.475409
-0.469867
-0.465021
-0.462644
-0.462769
-0.464084
-0.464094
-0.459903
-0.449147
-0.43126
-0.406179
-0.376454
-0.340828
-0.304357
-0.48605
-0.47938
-0.473225
-0.467584
-0.464163
-0.462789
-0.461908
-0.458935
-0.451326
-0.437471
-0.417418
-0.39155
-0.362077
-0.328129
-0.294453
-0.491291
-0.48392
-0.477173
-0.470739
-0.466185
-0.463112
-0.459741
-0.453567
-0.442595
-0.425977
-0.404206
-0.377906
-0.349019
-0.316807
-0.285365
-0.4973
-0.489086
-0.481749
-0.474478
-0.468657
-0.463647
-0.457494
-0.447989
-0.433823
-0.414807
-0.391703
-0.365241
-0.337023
-0.30648
-0.277266
-0.504124
-0.494916
-0.486966
-0.478759
-0.4715
-0.464278
-0.455078
-0.442217
-0.425099
-0.40404
-0.379917
-0.35345
-0.325932
-0.296881
-0.269407
-0.511779
-0.501427
-0.49281
-0.483528
-0.474622
-0.464872
-0.452418
-0.436272
-0.416482
-0.393701
-0.368796
-0.342417
-0.315553
-0.287781
-0.261785
-0.520262
-0.508626
-0.499251
-0.488726
-0.477909
-0.465296
-0.449459
-0.430173
-0.408002
-0.38377
-0.358259
-0.332006
-0.305728
-0.279061
-0.254252
-0.52955
-0.516503
-0.506247
-0.494287
-0.481221
-0.465426
-0.446162
-0.42393
-0.399653
-0.374197
-0.348205
-0.322088
-0.296321
-0.270599
-0.246783
-0.5396
-0.52503
-0.513745
-0.500126
-0.484399
-0.465154
-0.442497
-0.417539
-0.391408
-0.364909
-0.338525
-0.312536
-0.287212
-0.262312
-0.239322
-0.550354
-0.534158
-0.521687
-0.506118
-0.487281
-0.46439
-0.438434
-0.410981
-0.383217
-0.355823
-0.329112
-0.303237
-0.2783
-0.254117
-0.23183
-0.561729
-0.543809
-0.529995
-0.51209
-0.489707
-0.463055
-0.433944
-0.404221
-0.375019
-0.346848
-0.31986
-0.294087
-0.269492
-0.245949
-0.224264
-0.573613
-0.553879
-0.538556
-0.517835
-0.491525
-0.461079
-0.428987
-0.397211
-0.36674
-0.337894
-0.310671
-0.284991
-0.260711
-0.237744
-0.216584
-0.585859
-0.564232
-0.547206
-0.523124
-0.492591
-0.458392
-0.423517
-0.389892
-0.358304
-0.328871
-0.301453
-0.275866
-0.251885
-0.229447
-0.208754
-0.598275
-0.574705
-0.555714
-0.527725
-0.49277
-0.454925
-0.417478
-0.3822
-0.34963
-0.319693
-0.29212
-0.266636
-0.242949
-0.221006
-0.20074
-0.610625
-0.585106
-0.563796
-0.531407
-0.491934
-0.450606
-0.410809
-0.374061
-0.340638
-0.310279
-0.282596
-0.257232
-0.233848
-0.212376
-0.192511
-0.622632
-0.595205
-0.571123
-0.533946
-0.489963
-0.445359
-0.403441
-0.365404
-0.331252
-0.300551
-0.272811
-0.247595
-0.224529
-0.203513
-0.184037
-0.633986
-0.604737
-0.577355
-0.53513
-0.486742
-0.439108
-0.395303
-0.356153
-0.321397
-0.290441
-0.262701
-0.237672
-0.214948
-0.194381
-0.175297
-0.644348
-0.613394
-0.582154
-0.534757
-0.482163
-0.431776
-0.386323
-0.346238
-0.311004
-0.279885
-0.25221
-0.227416
-0.205068
-0.184954
-0.166287
-0.653369
-0.620835
-0.58521
-0.532644
-0.476123
-0.423288
-0.376431
-0.33559
-0.300009
-0.268825
-0.24129
-0.216785
-0.194852
-0.175218
-0.157023
-0.660696
-0.626691
-0.586244
-0.528632
-0.468528
-0.413572
-0.36556
-0.324146
-0.288357
-0.257213
-0.229897
-0.205741
-0.184266
-0.165155
-0.147516
-0.665984
-0.630585
-0.585018
-0.522584
-0.459295
-0.40256
-0.35365
-0.311852
-0.275998
-0.245006
-0.217996
-0.194252
-0.173282
-0.154737
-0.137714
-0.668904
-0.632151
-0.58133
-0.514393
-0.44835
-0.390192
-0.340647
-0.298661
-0.262893
-0.232171
-0.205555
-0.182293
-0.161882
-0.143934
-0.127485
-0.66915
-0.631057
-0.575003
-0.503972
-0.435636
-0.376422
-0.326508
-0.284534
-0.249006
-0.218678
-0.192549
-0.169845
-0.150069
-0.132754
-0.116692
-0.666447
-0.62702
-0.565885
-0.491258
-0.421108
-0.36121
-0.311199
-0.269437
-0.234309
-0.204502
-0.178961
-0.156893
-0.137852
-0.12121
-0.105389
-0.660557
-0.619803
-0.553863
-0.476206
-0.404738
-0.344531
-0.294694
-0.253344
-0.218781
-0.189628
-0.1648
-0.143446
-0.125234
-0.10917
-0.0939609
-0.651279
-0.609224
-0.538866
-0.458796
-0.386513
-0.326362
-0.276962
-0.236245
-0.202433
-0.174065
-0.150092
-0.129569
-0.112154
-0.0966941
-0.0823232
-0.638454
-0.595155
-0.520858
-0.439028
-0.366429
-0.306681
-0.257985
-0.218174
-0.185307
-0.157875
-0.134793
-0.115214
-0.0986399
-0.0838569
-0.0704121
-0.621965
-0.577522
-0.499839
-0.416918
-0.344484
-0.2855
-0.237808
-0.199212
-0.167385
-0.141012
-0.118945
-0.100387
-0.0847186
-0.0706907
-0.0582164
-0.601742
-0.556306
-0.475846
-0.392497
-0.320682
-0.262908
-0.216611
-0.179235
-0.148676
-0.123501
-0.102572
-0.0851111
-0.0704176
-0.057213
-0.0457526
-0.577762
-0.531537
-0.448955
-0.365835
-0.29509
-0.239055
-0.194252
-0.158338
-0.129214
-0.105378
-0.0857018
-0.06942
-0.0557662
-0.0434441
-0.0330459
-0.550044
-0.503288
-0.419292
-0.337042
-0.267959
-0.21377
-0.170802
-0.136577
-0.109047
-0.0866842
-0.0683712
-0.0533501
-0.0407982
-0.0294141
-0.0201293
-0.51866
-0.471702
-0.38699
-0.306199
-0.239251
-0.187209
-0.146331
-0.114011
-0.0882303
-0.0674679
-0.0506227
-0.0369419
-0.0255521
-0.0151639
-0.0070482
-0.483742
-0.437041
-0.352049
-0.273399
-0.20905
-0.15948
-0.120926
-0.090706
-0.066825
-0.0477838
-0.0325053
-0.0202404
-0.0100708
-0.000741964
0.00614434
-0.445479
-0.399673
-0.314266
-0.238861
-0.177498
-0.130696
-0.0946826
-0.0667407
-0.0448996
-0.0276931
-0.0140742
-0.00329468
0.00560113
0.0138046
0.0194097
-0.404067
-0.359716
-0.274143
-0.202598
-0.144736
-0.10098
-0.0677032
-0.042201
-0.0225295
-0.0072636
0.00460878
0.0138417
0.0214205
0.0284386
0.0327278
-0.359674
-0.316168
-0.233138
-0.164981
-0.110913
-0.070459
-0.0401002
-0.0171816
0.000203708
0.0134314
0.0234775
0.0311136
0.0373436
0.0431084
0.0460053
-0.312589
-0.270168
-0.190722
-0.126253
-0.0761975
-0.0392696
-0.0119919
0.00821647
0.0232125
0.0343151
0.0424679
0.0484728
0.0533129
0.0576663
0.0589178
-0.263045
-0.222264
-0.146956
-0.0866186
-0.0407759
-0.00755742
0.0164966
0.0338857
0.0464043
0.0553101
0.0615256
0.0658856
0.0692481
0.0718243
0.0709786
-0.211409
-0.172875
-0.102063
-0.046272
-0.00483549
0.0245224
0.0452337
0.0597127
0.069682
0.0763388
0.0806011
0.0833177
0.0850605
0.085375
0.0821249
-0.158122
-0.122302
-0.0563262
-0.00542693
0.031432
0.0568075
0.074082
0.0855795
0.0929445
0.0973206
0.0996304
0.100687
0.100652
0.0985446
0.0935868
-0.103591
-0.0708755
-0.0100494
0.0356868
0.0678296
0.08913
0.102899
0.111364
0.116089
0.11817
0.118523
0.117848
0.115881
0.111594
0.108404
-0.0482326
-0.01895
0.0364575
0.0768281
0.104155
0.121318
0.131538
0.136942
0.139012
0.138798
0.137177
0.134676
0.130793
0.125102
0.122775
0.00752549
0.0331098
0.0828828
0.117749
0.140202
0.153197
0.159852
0.162187
0.161607
0.159109
0.155504
0.151163
0.145553
0.13882
0.1362
0.0632518
0.0849334
0.128915
0.158199
0.175762
0.184591
0.18769
0.186972
0.183763
0.179001
0.173415
0.167262
0.160088
0.152412
0.14899
0.118518
0.136146
0.174246
0.197927
0.210626
0.215323
0.214903
0.211171
0.205372
0.198378
0.190837
0.18293
0.174297
0.16564
0.161181
0.172903
0.18637
0.218571
0.236684
0.244586
0.245219
0.241343
0.234657
0.226323
0.217146
0.207695
0.198102
0.188084
0.178417
0.172825
0.225991
0.235236
0.261588
0.274226
0.27744
0.274107
0.266865
0.257305
0.246511
0.235213
0.223912
0.212702
0.201359
0.190669
0.183909
0.277371
0.28239
0.303008
0.310316
0.308987
0.30182
0.291328
0.278996
0.26583
0.252491
0.239413
0.226661
0.21405
0.202348
0.19441
0.326647
0.327491
0.342553
0.344724
0.339038
0.328196
0.314593
0.299613
0.284181
0.268894
0.254123
0.239909
0.226094
0.213404
0.204299
0.373439
0.370217
0.379954
0.377232
0.367408
0.353082
0.336531
0.319043
0.301469
0.284339
0.267971
0.252381
0.237433
0.223793
0.213547
0.417388
0.410263
0.414963
0.407634
0.393926
0.376331
0.357018
0.337183
0.317604
0.298751
0.280891
0.264018
0.248015
0.233472
0.222124
0.458159
0.447346
0.447346
0.435736
0.418429
0.397808
0.375939
0.353933
0.332501
0.312057
0.292818
0.274765
0.257791
0.242403
0.230004
0.495441
0.481204
0.476888
0.461362
0.440768
0.417387
0.393188
0.369203
0.346083
0.324189
0.303697
0.284572
0.266717
0.250549
0.237164
0.528955
0.511602
0.503395
0.484351
0.46081
0.434954
0.408668
0.382911
0.358281
0.335089
0.313474
0.293392
0.274752
0.257877
0.243585
0.55845
0.538331
0.526695
0.504559
0.478433
0.450408
0.422293
0.394984
0.36903
0.344701
0.322104
0.301185
0.28186
0.264358
0.249249
0.583709
0.561208
0.546637
0.521863
0.493534
0.463662
0.433989
0.405358
0.378278
0.352981
0.329546
0.307916
0.288009
0.269968
0.254144
0.60455
0.58008
0.563095
0.536159
0.506025
0.47464
0.443692
0.413981
0.385978
0.359888
0.335767
0.313555
0.293172
0.274684
0.25826
0.620826
0.594826
0.575969
0.547361
0.515835
0.483284
0.451353
0.420808
0.392094
0.365392
0.34074
0.318078
0.297328
0.27849
0.261588
0.632425
0.605352
0.585182
0.555407
0.522911
0.489548
0.456933
0.425808
0.396598
0.369467
0.344445
0.321467
0.300458
0.281373
0.264126
0.639277
0.611599
0.590686
0.560256
0.527219
0.493404
0.460408
0.428959
0.399471
0.3721
0.346867
0.323709
0.302553
0.283324
0.265871
0.641346
0.613539
0.592456
0.561889
0.528742
0.494837
0.461766
0.430251
0.400705
0.373281
0.348
0.324798
0.303606
0.284341
0.266821
0.638636
0.611175
0.590495
0.560308
0.527482
0.493849
0.461007
0.429685
0.400301
0.373013
0.347844
0.324734
0.303617
0.28442
0.266978
0.63119
0.604543
0.584834
0.555537
0.523459
0.490457
0.458147
0.427273
0.398268
0.371302
0.346407
0.323524
0.302591
0.283568
0.266342
0.619089
0.59371
0.575528
0.547622
0.516713
0.484694
0.453212
0.423038
0.394627
0.368166
0.343702
0.321181
0.30054
0.281792
0.264918
0.60245
0.578776
0.562658
0.536632
0.5073
0.476607
0.446242
0.417015
0.389406
0.36363
0.339752
0.317721
0.29748
0.279106
0.262712
0.581427
0.559871
0.546331
0.522654
0.495293
0.466259
0.437292
0.409247
0.382643
0.357725
0.334583
0.313171
0.293433
0.275525
0.25973
0.55621
0.537154
0.526678
0.505798
0.480785
0.453726
0.426425
0.399791
0.374386
0.350492
0.328229
0.307559
0.288426
0.271071
0.255983
0.527024
0.510813
0.503855
0.486191
0.463883
0.439099
0.413717
0.38871
0.364688
0.341979
0.320732
0.300922
0.282489
0.265769
0.251484
0.494124
0.481065
0.478039
0.463981
0.44471
0.422482
0.399258
0.37608
0.353615
0.332237
0.312137
0.293299
0.275661
0.259647
0.246248
0.457795
0.44815
0.449428
0.439332
0.423403
0.40399
0.383143
0.361984
0.341237
0.32133
0.302497
0.284737
0.26798
0.252738
0.240293
0.418354
0.412335
0.418242
0.412424
0.400114
0.383751
0.365482
0.346512
0.327631
0.309323
0.291868
0.275285
0.25949
0.245078
0.233643
0.376139
0.373907
0.384717
0.383453
0.375006
0.361901
0.34639
0.329764
0.312882
0.296288
0.280314
0.264999
0.250241
0.236705
0.226323
0.331512
0.333175
0.349105
0.352627
0.348254
0.338589
0.325992
0.311846
0.29708
0.282303
0.267901
0.253936
0.240285
0.227662
0.21836
0.284855
0.290465
0.311676
0.320167
0.320041
0.313969
0.304419
0.292868
0.280321
0.26745
0.254701
0.242162
0.229677
0.217992
0.209784
0.236565
0.246117
0.27271
0.286302
0.29056
0.288203
0.281807
0.272948
0.262705
0.251813
0.240786
0.229744
0.21848
0.207744
0.200625
0.187054
0.200487
0.232497
0.251271
0.26001
0.261458
0.258299
0.252207
0.244334
0.235481
0.226233
0.216752
0.206763
0.196966
0.190909
0.13674
0.153938
0.191338
0.215317
0.228594
0.233906
0.234039
0.230767
0.225315
0.218545
0.211116
0.203259
0.194614
0.185731
0.180652
0.0860454
0.106845
0.149538
0.178688
0.196518
0.205719
0.209174
0.208754
0.205756
0.201098
0.195512
0.189331
0.182121
0.174119
0.169818
0.0353871
0.0595863
0.107404
0.141634
0.163991
0.177074
0.183854
0.186294
0.185766
0.183235
0.179495
0.175015
0.169384
0.162343
0.158395
-0.0148146
0.0125347
0.0652439
0.104402
0.131219
0.148146
0.158225
0.163513
0.165453
0.165054
0.163149
0.160359
0.156468
0.150702
0.146152
-0.0641438
-0.0339472
0.0233636
0.0672355
0.0984059
0.119106
0.132435
0.140536
0.144922
0.146649
0.146561
0.14538
0.143258
0.139447
0.133522
-0.112199
-0.0795073
-0.0179385
0.0303718
0.0657519
0.0901241
0.106627
0.117484
0.124277
0.128109
0.129826
0.13019
0.129709
0.128049
0.123559
-0.158589
-0.123817
-0.0583774
-0.00596453
0.0334519
0.0613665
0.080943
0.0944783
0.103618
0.109518
0.11303
0.114911
0.115921
0.116275
0.113774
-0.202856
-0.166576
-0.097702
-0.0415618
0.00169558
0.0329919
0.0555167
0.0716343
0.0830429
0.0909528
0.0962341
0.0996176
0.101975
0.10392
0.103229
-0.244749
-0.207277
-0.135743
-0.0762144
-0.0293316
0.00515212
0.0304778
0.0490632
0.0626481
0.0724918
0.0794918
0.0843524
0.0879649
0.0911752
0.0919438
-0.284007
-0.245344
-0.172497
-0.109696
-0.0594521
-0.0220103
0.00594873
0.0268701
0.042524
0.0542111
0.0628591
0.0691565
0.0739787
0.0783067
0.0803086
-0.320388
-0.280597
-0.207632
-0.141733
-0.0885045
-0.0483619
-0.0179547
0.00515387
0.0227563
0.0361861
0.0463996
0.0540797
0.0600746
0.0654512
0.0686069
-0.353695
-0.313232
-0.240471
-0.172116
-0.116347
-0.0737766
-0.0411246
-0.0159937
0.00342491
0.0184887
0.0301781
0.0391755
0.0462953
0.0526587
0.0569298
-0.383744
-0.343062
-0.270763
-0.200753
-0.142848
-0.0981365
-0.0634623
-0.0364882
-0.0153964
0.00118499
0.0142547
0.0244961
0.0326825
0.0399661
0.0453013
-0.410386
-0.369828
-0.298528
-0.227491
-0.167892
-0.121334
-0.0848796
-0.0562537
-0.0336409
-0.015665
-0.00131581
0.0100905
0.0192801
0.0274179
0.0337595
-0.433528
-0.393357
-0.323694
-0.252225
-0.191414
-0.143267
-0.1053
-0.0752218
-0.0512497
-0.0320075
-0.0164844
-0.00399616
0.00613079
0.0150603
0.0223534
-0.453131
-0.413552
-0.34615
-0.274861
-0.213305
-0.163915
-0.124657
-0.0933329
-0.0681703
-0.0477948
-0.0312073
-0.0177226
-0.00672634
0.00293157
0.011125
-0.469204
-0.430373
-0.365807
-0.295322
-0.233468
-0.183238
-0.142939
-0.110535
-0.0843568
-0.0629847
-0.0454461
-0.0310523
-0.0192549
-0.00894011
0.00010492
-0.481803
-0.44383
-0.382616
-0.313556
-0.25186
-0.20115
-0.16011
-0.126855
-0.0997559
-0.0775424
-0.0591682
-0.0439559
-0.0314191
-0.0205353
-0.0106863
-0.491029
-0.453985
-0.39657
-0.329539
-0.268466
-0.217618
-0.176107
-0.142225
-0.114408
-0.0914471
-0.0723461
-0.0564131
-0.0431841
-0.031828
-0.0212485
-0.497029
-0.460956
-0.4077
-0.343266
-0.283282
-0.23264
-0.190913
-0.156609
-0.12826
-0.104699
-0.0849898
-0.0684118
-0.0545282
-0.0427575
-0.031623
-0.499989
-0.464917
-0.416073
-0.354754
-0.296316
-0.246226
-0.204538
-0.170007
-0.141289
-0.11727
-0.0970602
-0.0799471
-0.065492
-0.0532031
-0.0418982
-0.500138
-0.466092
-0.421799
-0.364043
-0.30759
-0.258395
-0.216998
-0.182433
-0.153496
-0.129147
-0.108541
-0.090991
-0.0760489
-0.0632984
-0.0518368
-0.497737
-0.464755
-0.425026
-0.371197
-0.317144
-0.269178
-0.228316
-0.193903
-0.164895
-0.140336
-0.119432
-0.101533
-0.0861876
-0.0730352
-0.061254
-0.493081
-0.46123
-0.425926
-0.376301
-0.325034
-0.278614
-0.238524
-0.20444
-0.175502
-0.150847
-0.129742
-0.111572
-0.0958959
-0.082382
-0.0702103
-0.486487
-0.45587
-0.424703
-0.379471
-0.331332
-0.286755
-0.24766
-0.214074
-0.185339
-0.160698
-0.139482
-0.121117
-0.105171
-0.0913485
-0.0788268
-0.478289
-0.449039
-0.4216
-0.380846
-0.336122
-0.293663
-0.255774
-0.222843
-0.194434
-0.169908
-0.148665
-0.130177
-0.114026
-0.0999591
-0.0871838
-0.468827
-0.441091
-0.416901
-0.380598
-0.339505
-0.299406
-0.262919
-0.230789
-0.202818
-0.1785
-0.15731
-0.138769
-0.122475
-0.108227
-0.0952981
-0.458441
-0.432356
-0.410921
-0.37892
-0.341588
-0.304056
-0.269151
-0.237959
-0.210529
-0.186502
-0.165438
-0.14691
-0.130534
-0.116153
-0.103147
-0.447455
-0.423129
-0.403994
-0.376023
-0.342494
-0.307692
-0.27453
-0.2444
-0.217605
-0.193945
-0.173071
-0.154617
-0.138217
-0.12374
-0.110709
-0.436172
-0.413669
-0.39646
-0.372136
-0.342352
-0.310395
-0.279115
-0.25016
-0.224085
-0.20086
-0.180234
-0.161908
-0.145536
-0.130995
-0.117983
-0.424856
-0.404197
-0.388634
-0.367496
-0.341301
-0.312245
-0.282964
-0.255286
-0.230008
-0.207278
-0.186953
-0.168801
-0.15251
-0.137937
-0.124979
-0.413731
-0.3949
-0.380793
-0.362347
-0.33949
-0.313326
-0.286129
-0.259819
-0.235408
-0.213228
-0.19325
-0.175316
-0.159154
-0.144582
-0.131711
-0.402973
-0.385933
-0.373148
-0.356929
-0.337075
-0.313721
-0.288657
-0.263792
-0.240315
-0.218737
-0.199151
-0.181472
-0.165487
-0.150952
-0.138196
-0.392714
-0.377418
-0.365852
-0.351468
-0.334217
-0.313516
-0.290591
-0.267232
-0.244751
-0.223824
-0.204673
-0.187287
-0.171525
-0.157063
-0.144449
-0.383041
-0.369445
-0.358998
-0.346156
-0.331078
-0.312798
-0.291967
-0.270155
-0.248726
-0.228502
-0.209831
-0.192775
-0.177282
-0.162935
-0.150486
-0.374005
-0.362067
-0.352643
-0.341132
-0.327813
-0.311658
-0.29282
-0.272567
-0.25224
-0.232771
-0.214631
-0.197946
-0.182772
-0.168586
-0.156328
-0.365627
-0.355302
-0.346811
-0.336472
-0.324559
-0.310191
-0.293183
-0.274464
-0.255279
-0.236619
-0.219069
-0.202805
-0.188005
-0.174033
-0.161996
-0.357905
-0.349138
-0.341507
-0.332201
-0.321419
-0.308492
-0.293096
-0.27584
-0.257817
-0.240019
-0.223126
-0.207347
-0.192986
-0.179299
-0.167512
-0.350823
-0.343544
-0.33671
-0.328306
-0.318451
-0.306648
-0.292603
-0.276691
-0.25982
-0.24293
-0.226769
-0.211552
-0.197716
-0.184397
-0.172917
-0.344356
-0.338481
-0.332386
-0.324759
-0.315668
-0.304731
-0.291762
-0.277022
-0.261252
-0.245296
-0.229945
-0.215386
-0.202182
-0.189359
-0.178237
-0.338486
-0.333909
-0.328492
-0.32153
-0.313059
-0.302785
-0.290635
-0.276859
-0.262089
-0.247061
-0.232585
-0.218794
-0.206361
-0.194185
-0.183587
-0.333194
-0.3298
-0.32499
-0.318591
-0.310609
-0.300839
-0.289289
-0.276254
-0.262334
-0.248177
-0.234616
-0.221692
-0.210209
-0.198907
-0.189028
-0.328459
-0.326154
-0.321859
-0.315929
-0.30832
-0.298917
-0.28779
-0.275285
-0.262024
-0.248629
-0.235961
-0.223991
-0.213627
-0.203486
-0.194905
-0.324324
-0.322951
-0.319093
-0.31355
-0.306217
-0.297065
-0.286217
-0.274057
-0.261248
-0.248451
-0.236581
-0.225579
-0.216528
-0.207797
-0.201224
-0.320789
-0.320203
-0.316726
-0.311488
-0.304355
-0.29536
-0.284671
-0.272702
-0.260143
-0.24775
-0.236486
-0.226417
-0.218619
-0.211883
-0.207506
-0.317871
-0.317943
-0.314784
-0.309795
-0.30281
-0.293907
-0.283289
-0.271387
-0.258899
-0.246709
-0.235765
-0.226555
-0.219774
-0.215316
-0.212235
-0.315587
-0.3162
-0.313308
-0.308536
-0.301675
-0.292834
-0.282234
-0.270311
-0.257754
-0.245578
-0.234622
-0.226127
-0.219905
-0.217425
-0.215621
-0.313949
-0.314995
-0.312338
-0.307769
-0.30104
-0.292267
-0.281675
-0.269692
-0.256978
-0.244661
-0.233378
-0.225405
-0.219105
-0.218426
-0.217943
-0.312958
-0.314346
-0.311905
-0.307544
-0.300979
-0.292314
-0.281765
-0.269736
-0.256842
-0.244289
-0.232446
-0.22481
-0.217685
-0.21897
-0.219303
-0.312603
-0.314261
-0.312026
-0.307891
-0.301535
-0.293052
-0.282615
-0.270607
-0.25758
-0.24477
-0.232279
-0.224797
-0.216204
-0.219679
-0.21972
-0.312868
-0.314743
-0.312708
-0.308822
-0.302732
-0.294516
-0.284284
-0.272407
-0.259354
-0.246335
-0.233279
-0.225703
-0.215483
-0.220875
-0.219456
-0.313728
-0.315787
-0.31395
-0.310337
-0.304567
-0.296691
-0.286803
-0.275172
-0.262238
-0.249114
-0.235714
-0.227739
-0.216357
-0.222597
-0.219343
-0.31516
-0.317385
-0.315744
-0.312426
-0.30703
-0.29958
-0.290137
-0.278892
-0.26623
-0.253149
-0.239668
-0.231061
-0.219266
-0.224966
-0.220542
-0.317143
-0.31953
-0.318085
-0.315081
-0.310106
-0.303158
-0.294256
-0.283533
-0.27129
-0.258415
-0.245093
-0.235799
-0.224194
-0.228382
-0.223788
-0.319661
-0.322215
-0.320968
-0.318296
-0.313785
-0.307409
-0.299142
-0.289052
-0.277394
-0.264886
-0.251901
-0.242036
-0.23091
-0.233315
-0.229118
-0.322704
-0.325437
-0.324392
-0.322072
-0.318065
-0.312329
-0.30479
-0.295455
-0.284518
-0.27256
-0.260048
-0.249828
-0.239236
-0.239976
-0.236237
-0.326272
-0.329192
-0.328357
-0.326413
-0.322955
-0.317926
-0.311214
-0.302762
-0.292693
-0.281448
-0.26959
-0.259257
-0.249103
-0.248435
-0.244988
-0.330365
-0.333477
-0.332864
-0.331325
-0.328465
-0.324219
-0.318438
-0.31101
-0.301979
-0.291654
-0.280607
-0.270422
-0.260504
-0.258855
-0.255387
-0.334989
-0.338289
-0.337914
-0.336813
-0.334608
-0.331226
-0.326491
-0.320242
-0.312441
-0.303269
-0.293204
-0.283311
-0.273665
-0.271562
-0.267478
-0.340145
-0.343615
-0.343498
-0.342873
-0.341384
-0.338957
-0.335395
-0.330493
-0.324135
-0.316374
-0.307534
-0.298355
-0.289669
-0.285468
-0.281448
-0.345828
-0.349438
-0.349597
-0.349489
-0.34878
-0.347402
-0.345145
-0.341768
-0.337079
-0.331001
-0.323668
-0.315547
-0.307574
-0.301967
-0.297614
-0.352023
-0.355726
-0.35618
-0.356628
-0.356763
-0.356526
-0.355703
-0.354028
-0.351235
-0.347115
-0.341588
-0.334838
-0.327541
-0.320963
-0.315707
-0.358699
-0.362435
-0.363197
-0.364234
-0.365269
-0.366255
-0.366986
-0.367174
-0.366491
-0.364586
-0.361155
-0.356055
-0.349535
-0.342294
-0.335396
-0.365808
-0.369503
-0.37058
-0.372229
-0.374206
-0.37648
-0.378858
-0.381042
-0.382645
-0.383174
-0.382086
-0.378865
-0.373263
-0.365519
-0.356225
-0.36391
-0.350157
-0.342189
-0.341156
-0.34714
-0.357134
-0.368037
-0.373257
-0.369207
-0.353868
-0.327202
-0.292304
-0.253955
-0.217222
-0.185883
-0.161876
-0.1456
-0.136516
-0.133797
-0.136964
-0.146111
-0.161196
-0.180916
-0.202165
-0.220603
-0.232014
-0.233548
-0.224771
-0.207444
-0.184901
-0.160819
-0.138152
-0.118668
-0.103043
-0.0912579
-0.08298
-0.0778202
-0.0754288
-0.0755422
-0.0780711
-0.0831693
-0.0911168
-0.101947
-0.115014
-0.128825
-0.141305
-0.150353
-0.154388
-0.152755
-0.14595
-0.135261
-0.122387
-0.108948
-0.0961778
-0.0848295
-0.0752481
-0.067514
-0.06158
-0.057352
-0.0547297
-0.0536487
-0.0541352
-0.056319
-0.060345
-0.0661763
-0.0734255
-0.081286
-0.0887111
-0.0945569
-0.0979415
-0.098171
-0.0951601
-0.0890002
-0.0803475
-0.0695582
-0.0577013
-0.0448854
-0.0320608
-0.019006
-0.00604779
-0.379347
-0.35689
-0.339178
-0.328165
-0.325178
-0.328325
-0.334043
-0.337848
-0.333857
-0.320526
-0.297499
-0.267395
-0.234234
-0.202538
-0.175736
-0.155655
-0.142735
-0.136533
-0.136388
-0.142069
-0.153857
-0.171658
-0.193877
-0.217026
-0.236497
-0.247987
-0.248714
-0.23839
-0.219031
-0.194258
-0.168013
-0.143413
-0.122266
-0.105224
-0.0922111
-0.0828314
-0.0766397
-0.0732437
-0.0723422
-0.0737941
-0.0776897
-0.0842696
-0.0935953
-0.105127
-0.117532
-0.128907
-0.137299
-0.141233
-0.14007
-0.134244
-0.124883
-0.113515
-0.101606
-0.0902832
-0.0802441
-0.0718225
-0.0651154
-0.0601047
-0.0567264
-0.0549101
-0.0546248
-0.0559366
-0.0590138
-0.0640258
-0.0709314
-0.0793093
-0.0882897
-0.096747
-0.10344
-0.107397
-0.107836
-0.104639
-0.0979503
-0.0884361
-0.076527
-0.0634117
-0.0492699
-0.0351403
-0.0208106
-0.00664479
-0.393818
-0.362765
-0.335351
-0.314167
-0.301768
-0.297326
-0.297791
-0.298678
-0.295088
-0.284025
-0.264916
-0.2399
-0.212153
-0.185711
-0.163632
-0.147622
-0.138141
-0.13484
-0.137262
-0.145446
-0.159836
-0.180264
-0.204832
-0.229708
-0.250081
-0.261618
-0.261638
-0.249956
-0.22879
-0.202032
-0.173871
-0.14756
-0.12494
-0.106632
-0.092507
-0.0821151
-0.0749616
-0.0706165
-0.0687457
-0.0691633
-0.0718984
-0.0771488
-0.0849991
-0.0950158
-0.10603
-0.116316
-0.124066
-0.127904
-0.127205
-0.122335
-0.11426
-0.104355
-0.093938
-0.0840312
-0.0752801
-0.0680061
-0.0623215
-0.0582343
-0.0557086
-0.0547029
-0.0552199
-0.0573654
-0.0613463
-0.0673568
-0.0753526
-0.0848823
-0.0950155
-0.104549
-0.112139
-0.116719
-0.117411
-0.114047
-0.106864
-0.0964981
-0.0834615
-0.0690773
-0.0535994
-0.038167
-0.0225727
-0.0072281
-0.406233
-0.367091
-0.330439
-0.299385
-0.277608
-0.265208
-0.259966
-0.257779
-0.2537
-0.245252
-0.230045
-0.210205
-0.187926
-0.166815
-0.149528
-0.137637
-0.1316
-0.131165
-0.136102
-0.146749
-0.16368
-0.186618
-0.213369
-0.239807
-0.260981
-0.272579
-0.27206
-0.25926
-0.236569
-0.208126
-0.178339
-0.150578
-0.126702
-0.1073
-0.0921953
-0.0808935
-0.0728592
-0.067631
-0.0648471
-0.0642833
-0.065914
-0.0698913
-0.0763157
-0.0848569
-0.0945111
-0.103729
-0.110847
-0.114583
-0.114339
-0.110368
-0.103514
-0.0950058
-0.0860214
-0.0774817
-0.069981
-0.0638286
-0.0591496
-0.0559752
-0.0542949
-0.0540945
-0.0554101
-0.0583869
-0.0632695
-0.0702769
-0.0793643
-0.0900544
-0.10136
-0.112002
-0.120536
-0.12579
-0.126778
-0.123264
-0.115647
-0.104452
-0.0902934
-0.0746441
-0.0578337
-0.0411135
-0.0242767
-0.00779362
-0.415715
-0.369181
-0.324241
-0.284072
-0.253466
-0.233059
-0.221809
-0.216228
-0.211139
-0.205902
-0.19357
-0.178741
-0.161817
-0.145978
-0.133433
-0.125606
-0.122939
-0.125284
-0.132679
-0.145738
-0.165141
-0.19046
-0.219222
-0.247064
-0.268952
-0.280638
-0.279806
-0.266169
-0.242275
-0.212487
-0.181399
-0.152475
-0.127582
-0.107274
-0.0913336
-0.079233
-0.0704071
-0.0643698
-0.0607379
-0.059255
-0.0598479
-0.0626228
-0.0676881
-0.0748087
-0.0831438
-0.0913201
-0.0978161
-0.101439
-0.101645
-0.0984624
-0.0927513
-0.0855612
-0.0779333
-0.0706955
-0.0643935
-0.059324
-0.0556221
-0.0533391
-0.0524869
-0.0530768
-0.0551771
-0.0589715
-0.0647406
-0.0727286
-0.0828929
-0.0947358
-0.107218
-0.118991
-0.128504
-0.134482
-0.13582
-0.132157
-0.124202
-0.11221
-0.0969488
-0.0800536
-0.0619298
-0.0439507
-0.0259059
-0.00833698
-0.42172
-0.368546
-0.316731
-0.268573
-0.230243
-0.202026
-0.184692
-0.175219
-0.169066
-0.164203
-0.156117
-0.146011
-0.134192
-0.123411
-0.115422
-0.111492
-0.112043
-0.11706
-0.126865
-0.142307
-0.16411
-0.191674
-0.222263
-0.251352
-0.273888
-0.285662
-0.284778
-0.270613
-0.245867
-0.215099
-0.18306
-0.153281
-0.127625
-0.106609
-0.0899848
-0.0772022
-0.0676786
-0.0609121
-0.0565034
-0.054172
-0.0538013
-0.0554552
-0.0592413
-0.0650091
-0.0720751
-0.0792397
-0.0851212
-0.0886039
-0.0891402
-0.0867189
-0.0820759
-0.0761123
-0.0697501
-0.0637353
-0.0585676
-0.0545304
-0.0517665
-0.0503435
-0.0502924
-0.0516478
-0.0545088
-0.0590954
-0.0657227
-0.0746597
-0.0858693
-0.0988394
-0.112486
-0.125394
-0.135914
-0.142668
-0.144422
-0.140578
-0.132437
-0.11968
-0.103348
-0.0852438
-0.0658428
-0.0466487
-0.0274434
-0.00885355
-0.42338
-0.365693
-0.307811
-0.253081
-0.208769
-0.173199
-0.150084
-0.136001
-0.128257
-0.123131
-0.118703
-0.112509
-0.105429
-0.0993445
-0.0956043
-0.095327
-0.0988905
-0.106476
-0.118663
-0.136469
-0.160602
-0.190262
-0.222489
-0.252676
-0.275814
-0.287553
-0.286991
-0.2726
-0.247353
-0.215983
-0.183356
-0.153046
-0.126889
-0.105369
-0.0882152
-0.0748698
-0.0647447
-0.0573312
-0.0522214
-0.0491162
-0.0478633
-0.0484844
-0.0510812
-0.0555741
-0.0614278
-0.0676133
-0.0728851
-0.0761968
-0.0769931
-0.0752589
-0.0715871
-0.0667433
-0.0615454
-0.0566637
-0.0525551
-0.0494896
-0.0476148
-0.0470109
-0.0477248
-0.0498123
-0.0534002
-0.0587425
-0.0661861
-0.076025
-0.0882309
-0.102284
-0.117064
-0.131096
-0.142636
-0.150217
-0.152505
-0.14847
-0.140276
-0.126763
-0.109408
-0.0901498
-0.0695261
-0.0491768
-0.0288723
-0.00933855
-0.421232
-0.360436
-0.298451
-0.239428
-0.188683
-0.147113
-0.119243
-0.0998982
-0.0899537
-0.0842118
-0.0825403
-0.0787684
-0.0759084
-0.074013
-0.0741382
-0.0772086
-0.0835861
-0.0936605
-0.108217
-0.128374
-0.154752