/*--------------------------------*- C++ -*----------------------------------*\
  =========                 |
  \\      /  F ield         | OpenFOAM: The Open Source CFD Toolbox
   \\    /   O peration     | Website:  https://openfoam.org
    \\  /    A nd           | Version:  7
     \\/     M anipulation  |
\*---------------------------------------------------------------------------*/
FoamFile
{
    version     2.0;
    format      ascii;
    class       volVectorField;
    location    "105";
    object      U;
}
// * * * * * * * * * * * * * * * * * * * * * * * * * * * * * * * * * * * * * //

dimensions      [0 1 -1 0 0 0 0];

internalField   nonuniform List<vector> 
14800
(
(-0.00460708 0.0610298 -2.38049e-20)
(-0.0199072 0.106466 3.0798e-21)
(-0.0443485 0.113185 1.35322e-20)
(-0.0702347 0.102249 -7.19659e-21)
(-0.0967359 0.0848454 -2.35143e-20)
(-0.122782 0.0645811 2.23739e-20)
(-0.147866 0.0409263 9.78787e-22)
(-0.171609 0.0119847 2.72337e-21)
(-0.19354 -0.0241441 -1.29267e-20)
(-0.213039 -0.0687669 -1.64297e-21)
(-0.229234 -0.122569 9.68465e-21)
(-0.24102 -0.185094 8.2234e-21)
(-0.247293 -0.254329 3.06303e-20)
(-0.247744 -0.326018 -3.32783e-20)
(-0.239597 -0.395865 1.34663e-20)
(-0.00670492 0.0651732 5.07514e-20)
(-0.0226767 0.115385 -3.14574e-20)
(-0.0459651 0.12473 -1.10385e-20)
(-0.07022 0.115105 2.25711e-21)
(-0.0948885 0.0982396 2.18927e-20)
(-0.118975 0.078098 4.57518e-20)
(-0.141947 0.0543154 -3.91539e-20)
(-0.163406 0.0250235 7.503e-21)
(-0.182862 -0.0117088 3.39502e-20)
(-0.19972 -0.0574336 3.81042e-20)
(-0.213201 -0.112885 -4.69892e-20)
(-0.222357 -0.177713 5.23555e-20)
(-0.226232 -0.249964 -7.30167e-20)
(-0.225666 -0.324839 6.87673e-20)
(-0.216022 -0.398457 1.48699e-20)
(-0.00895942 0.0686332 8.39894e-20)
(-0.0255544 0.123337 1.47776e-19)
(-0.047267 0.135407 8.08104e-21)
(-0.0692811 0.127233 -4.13327e-20)
(-0.0913285 0.111014 -2.05152e-20)
(-0.112484 0.0910824 -7.15687e-20)
(-0.132164 0.0672779 5.13856e-20)
(-0.149894 0.0377912 6.71447e-20)
(-0.165175 0.000644651 -7.65058e-20)
(-0.177366 -0.045861 -2.98012e-20)
(-0.185694 -0.102548 1.04962e-19)
(-0.189463 -0.169099 -3.46183e-20)
(-0.187644 -0.243693 3.23678e-20)
(-0.182984 -0.320666 3.95019e-20)
(-0.167191 -0.39711 5.93269e-20)
(-0.0113016 0.0712768 -6.95461e-20)
(-0.0284636 0.130073 -2.47441e-19)
(-0.0482091 0.144924 1.22073e-19)
(-0.0674038 0.138325 -1.28072e-20)
(-0.0860728 0.122844 4.57125e-20)
(-0.103365 0.103183 -1.39478e-19)
(-0.118623 0.0794234 5.33051e-21)
(-0.131266 0.049839 3.59388e-21)
(-0.140716 0.012405 5.36675e-20)
(-0.146284 -0.0345875 -6.61479e-20)
(-0.147165 -0.0921429 -1.80368e-19)
(-0.142974 -0.159844 -6.64538e-20)
(-0.132169 -0.23611 -8.75743e-21)
(-0.120842 -0.314089 2.09739e-20)
(-0.0941077 -0.392387 -6.3617e-20)
(-0.0136549 0.0729996 -1.60163e-19)
(-0.0313263 0.135374 1.17255e-19)
(-0.0487662 0.153008 9.04947e-21)
(-0.0646169 0.148083 1.21809e-20)
(-0.079207 0.133414 -1.0302e-19)
(-0.0917704 0.114062 7.61356e-20)
(-0.101561 0.0903753 -2.86452e-20)
(-0.107873 0.0607496 4.93486e-20)
(-0.110002 0.0231561 -2.74601e-20)
(-0.107207 -0.0241469 1.71845e-19)
(-0.0985728 -0.0822753 1.33332e-19)
(-0.0842375 -0.150589 9.06467e-20)
(-0.0613279 -0.227835 -1.42088e-19)
(-0.0415539 -0.306212 4.33175e-20)
(0.000585306 -0.38441 -3.22408e-20)
(-0.0159396 0.0737337 -2.64274e-22)
(-0.0340656 0.139061 2.09276e-19)
(-0.0489319 0.159413 -1.55244e-19)
(-0.0609876 0.156229 1.30692e-19)
(-0.0708772 0.142428 1.16103e-19)
(-0.0779379 0.123398 -6.84281e-20)
(-0.0813364 0.0997781 4.75286e-20)
(-0.0802253 0.0701243 -1.95987e-19)
(-0.0737571 0.0324334 5.73529e-20)
(-0.0611468 -0.0150591 -1.32428e-19)
(-0.0412446 -0.0734939 7.22447e-20)
(-0.0150737 -0.142077 -1.68198e-19)
(0.0224916 -0.219268 -4.22018e-20)
(0.0521987 -0.298901 -7.41871e-20)
(0.112871 -0.372722 9.06855e-20)
(-0.0180784 0.0734536 -1.90392e-20)
(-0.0366085 0.141003 -2.16103e-19)
(-0.0487159 0.163932 1.9756e-20)
(-0.0566145 0.162511 2.47187e-21)
(-0.0612765 0.149611 3.43615e-20)
(-0.0621704 0.130897 2.98848e-19)
(-0.0583859 0.107312 -2.40231e-20)
(-0.04894 0.0776069 1.64058e-19)
(-0.0328312 0.0398351 1.94625e-20)
(-0.00923786 -0.00776479 1.17992e-20)
(0.0233022 -0.0662624 -5.2312e-20)
(0.0626969 -0.135124 1.29445e-19)
(0.116336 -0.211028 3.1563e-19)
(0.157385 -0.292206 -3.46474e-19)
(0.238978 -0.359169 -1.12943e-19)
(-0.0200027 0.0721793 1.25755e-19)
(-0.0388897 0.141136 2.1674e-19)
(-0.0481394 0.166403 -5.84663e-20)
(-0.0516173 0.166713 -1.02767e-19)
(-0.0506276 0.15472 -1.02763e-19)
(-0.0448054 0.136301 1.5462e-20)
(-0.033185 0.112704 9.87735e-20)
(-0.0146516 0.0828762 -3.2158e-19)
(0.0119441 0.0449938 -6.84593e-21)
(0.047459 -0.00268315 -1.0298e-19)
(0.0936338 -0.0610566 -2.53968e-19)
(0.147219 -0.130162 2.60271e-19)
(0.218558 -0.20374 -3.53386e-19)
(0.270302 -0.285526 1.74515e-19)
(0.374486 -0.34544 1.13197e-19)
(-0.0216567 0.0699766 -6.81774e-20)
(-0.0408559 0.139457 8.2008e-20)
(-0.0472316 0.166714 -1.47293e-19)
(-0.0461219 0.168655 1.26318e-19)
(-0.0391567 0.157542 1.74274e-19)
(-0.0261722 0.139378 2.11828e-19)
(-0.00618839 0.115699 -8.708e-20)
(0.0220427 0.0856647 -7.10646e-20)
(0.0598377 0.0476096 3.31829e-19)
(0.108077 -0.000159141 2.45794e-19)
(0.168893 -0.0582311 2.3376e-19)
(0.237291 -0.127384 -3.46019e-19)
(0.32729 -0.197677 9.68059e-20)
(0.38926 -0.27942 9.17592e-20)
(0.514174 -0.331139 -4.05069e-21)
(-0.0230036 0.0669524 -3.04925e-19)
(-0.0424663 0.136026 -3.938e-19)
(-0.0460238 0.164821 1.46933e-19)
(-0.0402453 0.16821 2.03094e-19)
(-0.0270729 0.157902 -4.2221e-19)
(-0.00656519 0.13993 -1.74325e-20)
(0.0222494 0.116082 -1.7453e-19)
(0.0607361 0.0857676 4.28227e-19)
(0.110418 0.0474816 -1.93709e-19)
(0.172194 -0.000389047 -2.23231e-20)
(0.248642 -0.05784 1.59348e-19)
(0.332648 -0.126892 3.96566e-19)
(0.440903 -0.192856 1.74444e-19)
(0.513106 -0.273264 -1.30518e-19)
(0.653397 -0.31588 -2.47288e-20)
(-0.0240295 0.0632484 2.11892e-19)
(-0.043694 0.130971 2.83304e-19)
(-0.0445399 0.160743 -1.96137e-19)
(-0.0340762 0.165306 -6.72328e-19)
(-0.0145268 0.155677 -7.57277e-20)
(0.013822 0.13782 3.72787e-21)
(0.0519299 0.113729 2.35583e-19)
(0.101294 0.083058 -5.41556e-19)
(0.16368 0.0445168 -2.61093e-20)
(0.240016 -0.00343665 -3.01128e-19)
(0.333065 -0.0598497 -4.04248e-19)
(0.433639 -0.128185 -2.62101e-19)
(0.558056 -0.189043 2.39436e-20)
(0.64012 -0.26607 -7.6387e-20)
(0.787397 -0.298907 -2.25513e-19)
(-0.0247449 0.0590322 1.17974e-19)
(-0.0445266 0.124473 2.06117e-19)
(-0.0427847 0.154567 -9.55756e-20)
(-0.0276482 0.159935 -8.75967e-20)
(-0.00156842 0.150805 5.58197e-19)
(0.0349662 0.132968 -5.84975e-19)
(0.0829283 0.108573 3.17992e-20)
(0.143995 0.0775105 1.41906e-19)
(0.220192 0.0387619 1.07533e-19)
(0.312447 -0.00910462 7.71793e-20)
(0.422934 -0.063995 1.37227e-19)
(0.540606 -0.130265 -1.01795e-19)
(0.677293 -0.185453 3.03089e-19)
(0.767239 -0.25676 2.27452e-19)
(0.91119 -0.279593 1.33422e-19)
(-0.0251839 0.0544855 5.14196e-20)
(-0.044962 0.116764 -4.17636e-19)
(-0.0407298 0.146449 6.10474e-19)
(-0.0209088 0.152167 7.62785e-19)
(0.0119068 0.143297 -2.5901e-19)
(0.0570943 0.125373 9.48937e-20)
(0.115705 0.100644 -2.49856e-19)
(0.189662 0.0692395 -4.23487e-20)
(0.281191 0.030466 -5.01364e-19)
(0.390983 -0.0168268 1.10837e-19)
(0.519275 -0.0695579 4.33725e-19)
(0.653043 -0.131843 -5.71769e-20)
(0.796331 -0.180846 1.32735e-19)
(0.889798 -0.244371 -5.77541e-20)
(1.02014 -0.257789 5.022e-21)
(-0.0254 0.0497919 -2.50887e-19)
(-0.0450009 0.108108 -2.81214e-19)
(-0.0382963 0.136607 -6.69881e-19)
(-0.0136835 0.142153 -4.82669e-19)
(0.0262194 0.133261 -3.85271e-19)
(0.0807743 0.115146 4.45961e-19)
(0.151216 0.0901192 8.93461e-20)
(0.239744 0.0585639 2.01374e-19)
(0.348517 0.0201758 1.14341e-19)
(0.477286 -0.0256234 -3.17356e-19)
(0.622569 -0.0752748 -1.71866e-19)
(0.768833 -0.131525 4.43909e-20)
(0.911505 -0.173972 -5.75573e-19)
(1.00215 -0.22841 1.28886e-19)
(1.1108 -0.233966 -2.80365e-19)
(-0.0254596 0.0451235 1.28914e-19)
(-0.0446347 0.0987822 9.79603e-19)
(-0.0353326 0.125317 4.96557e-19)
(-0.00563648 0.130132 2.32945e-19)
(0.0419692 0.12092 5.99711e-19)
(0.106999 0.102546 -5.33528e-19)
(0.190972 0.0773774 -2.25446e-19)
(0.29626 0.0460894 -2.22875e-19)
(0.424262 0.00882802 1.10167e-18)
(0.572393 -0.0341462 3.63247e-19)
(0.731709 -0.0795354 -2.83349e-19)
(0.883933 -0.128088 1.49661e-19)
(1.01798 -0.164078 -1.89532e-19)
(1.09907 -0.209084 1.85912e-19)
(1.18166 -0.209122 7.32833e-20)
(-0.0254319 0.0406291 -1.23325e-20)
(-0.0438294 0.0890638 -5.22813e-19)
(-0.0315914 0.112902 -4.75971e-19)
(0.00376609 0.116438 -1.66138e-19)
(0.0600853 0.106635 -2.9551e-19)
(0.137223 0.0880281 3.0878e-19)
(0.237002 0.0630569 1.5375e-19)
(0.361497 0.0327717 -2.36237e-19)
(0.510043 -0.00223937 -1.37738e-21)
(0.675733 -0.0408607 -1.89845e-19)
(0.843312 -0.0808276 4.30045e-20)
(0.992854 -0.120843 5.67142e-20)
(1.11087 -0.151166 4.98785e-20)
(1.17729 -0.187222 1.09292e-19)
(1.23338 -0.184463 -2.7911e-19)
(-0.0253766 0.0364231 -2.57665e-19)
(-0.0425072 0.0792087 2.11052e-19)
(-0.0267087 0.0997141 1.98942e-19)
(0.0152795 0.101491 2.52649e-20)
(0.0818414 0.0909128 2.02903e-19)
(0.173315 0.0722599 -2.80724e-19)
(0.291599 0.0480934 2.96249e-19)
(0.437403 0.0198976 5.21735e-20)
(0.606023 -0.0114533 -3.51581e-19)
(0.784417 -0.0443906 9.59478e-21)
(0.952048 -0.0781977 -3.45397e-19)
(1.08998 -0.109873 3.07839e-19)
(1.18674 -0.135901 4.05912e-20)
(1.23614 -0.163871 5.91389e-20)
(1.26826 -0.161049 2.69539e-19)
(-0.0253304 0.0325778 7.21225e-19)
(-0.0405296 0.0694361 -2.82718e-19)
(-0.020192 0.0861189 -1.50042e-19)
(0.0298775 0.0857863 -1.8556e-19)
(0.108799 0.074412 -5.0925e-19)
(0.217374 0.0561294 -1.70615e-19)
(0.356847 0.0336996 3.4379e-19)
(0.524728 0.00894235 -2.28913e-19)
(0.710101 -0.0173623 -9.13803e-19)
(0.893405 -0.0439085 3.35746e-19)
(1.052 -0.0714954 7.54652e-20)
(1.17114 -0.0959665 -2.05458e-19)
(1.24451 -0.119196 1.08639e-19)
(1.27718 -0.139809 -9.66002e-20)
(1.28928 -0.139659 1.11537e-19)
(-0.0252948 0.029119 -1.17022e-19)
(-0.0376843 0.0599162 3.71458e-19)
(-0.0114235 0.0724752 4.15779e-19)
(0.0487135 0.0698741 3.21095e-19)
(0.142679 0.0579095 4.99468e-19)
(0.271372 0.0407113 4.51115e-19)
(0.433935 0.0212451 -5.16206e-19)
(0.622246 0.00128628 7.28953e-19)
(0.817854 -0.019048 5.81765e-19)
(0.996694 -0.039341 -5.35739e-19)
(1.13839 -0.0613004 4.04294e-19)
(1.23465 -0.0802967 -1.02799e-19)
(1.2855 -0.101735 -1.80717e-19)
(1.30316 -0.115427 -2.26527e-19)
(1.29937 -0.121012 -1.00526e-19)
(-0.0252272 0.0260267 -3.2214e-19)
(-0.0336812 0.0507623 6.37379e-19)
(0.00031623 0.0591143 -3.4588e-20)
(0.0730314 0.0543269 6.64106e-20)
(0.185142 0.0422617 -9.09808e-20)
(0.336695 0.0271799 -7.68106e-21)
(0.522481 0.0120331 4.37016e-19)
(0.726486 -0.00212813 -3.394e-19)
(0.923477 -0.0163575 3.41198e-19)
(1.08898 -0.0312626 4.28671e-19)
(1.20862 -0.0486239 -2.72578e-19)
(1.28124 -0.0639963 2.0297e-19)
(1.3126 -0.083741 -7.53207e-20)
(1.31735 -0.0913789 1.70618e-19)
(1.30121 -0.106547 7.15957e-20)
(-0.0250366 0.0232405 -4.50968e-19)
(-0.0281585 0.0420296 4.86622e-20)
(0.0158065 0.046326 1.70055e-19)
(0.104048 0.0397102 -2.75871e-19)
(0.237501 0.0283568 -3.17789e-19)
(0.41364 0.0166692 1.95926e-19)
(0.620163 0.00702283 -3.72629e-19)
(0.832312 -0.00102679 2.94982e-19)
(1.02134 -0.0098175 -1.24829e-19)
(1.16689 -0.0205859 -4.56814e-19)
(1.26249 -0.03456 -2.53185e-19)
(1.31328 -0.0477982 3.61327e-19)
(1.32909 -0.0652958 -1.46896e-19)
(1.32349 -0.0697323 -8.07515e-20)
(1.2975 -0.0982965 -1.28222e-19)
(-0.0245866 0.0206707 8.85179e-19)
(-0.0206985 0.0337227 -1.0866e-18)
(0.03583 0.0343502 -2.48651e-19)
(0.142817 0.0265601 -1.47599e-19)
(0.300436 0.0170514 9.22076e-20)
(0.501056 0.0100934 -3.71475e-19)
(0.722933 0.00661391 2.17354e-19)
(0.934181 0.00421575 1.0615e-19)
(1.1073 -0.000323645 -7.18424e-19)
(1.22931 -0.00825894 5.84933e-19)
(1.30151 -0.0200005 1.49636e-19)
(1.33373 -0.031971 -3.87732e-19)
(1.33766 -0.0471575 2.16908e-19)
(1.3245 -0.0530444 1.32082e-19)
(1.30083 -0.0715067 3.11192e-20)
(-0.0237031 0.0182121 -5.9576e-19)
(-0.0108502 0.025811 9.87224e-19)
(0.0611161 0.0233846 9.6452e-20)
(0.190087 0.0153806 -3.56225e-19)
(0.37374 0.00909937 4.42736e-19)
(0.596294 0.00797745 -2.70289e-19)
(0.825854 0.010614 2.92344e-20)
(1.02744 0.0128176 -3.49982e-19)
(1.17927 0.0111793 6.27114e-19)
(1.27693 0.00492355 -2.76661e-19)
(1.32812 -0.00549471 7.49817e-20)
(1.34542 -0.0166274 -1.08592e-19)
(1.34056 -0.0306297 -7.43762e-21)
(1.32395 -0.0355453 1.5921e-20)
(1.29938 -0.0541911 2.97152e-20)
(-0.0221852 0.0157599 1.27437e-19)
(0.00184579 0.0182528 -5.83715e-19)
(0.0922894 0.0136066 -5.11716e-19)
(0.246187 0.0066506 1.36774e-19)
(0.456176 0.00506818 -3.58243e-19)
(0.695581 0.0103725 -3.32453e-19)
(0.924188 0.0184016 1.06222e-19)
(1.10908 0.0238827 4.94571e-19)
(1.237 0.0238895 1.5914e-19)
(1.31157 0.0184001 -3.09585e-19)
(1.34496 0.00868373 -8.02743e-20)
(1.35077 -0.00208087 4.3744e-20)
(1.34013 -0.0148363 2.24039e-19)
(1.3211 -0.0205079 -4.79115e-20)
(1.29748 -0.0370212 -5.77144e-20)
(-0.0198176 0.0132258 -6.99439e-20)
(0.0178347 0.0110233 7.64766e-19)
(0.129828 0.00520802 3.60692e-19)
(0.310925 0.000828639 1.28298e-19)
(0.545517 0.0052543 2.5315e-19)
(0.794725 0.0169127 4.93242e-19)
(1.01425 0.0291724 2.30622e-19)
(1.17781 0.0366023 -5.08315e-19)
(1.28151 0.0372126 -3.19267e-19)
(1.33547 0.0318317 5.34354e-19)
(1.35444 0.0223688 -5.2034e-20)
(1.35185 0.011818 -3.38298e-20)
(1.33736 -0.000228775 -2.85569e-19)
(1.3174 -0.00613114 -3.55663e-20)
(1.29486 -0.0215061 2.36452e-19)
(-0.0163821 0.0105517 -1.19748e-19)
(0.0375295 0.00414364 -9.64004e-19)
(0.174027 -0.00156624 -7.29059e-20)
(0.383518 -0.00166948 -2.05654e-19)
(0.638805 0.00964216 -5.59051e-19)
(0.889877 0.026978 1.86473e-19)
(1.09378 0.0421382 -4.58147e-19)
(1.23371 0.0503376 2.07137e-19)
(1.31449 0.0507539 -1.77044e-20)
(1.35088 0.0450337 -2.99308e-19)
(1.35862 0.035562 1.91274e-19)
(1.35006 0.0250429 -9.32665e-20)
(1.33329 0.013621 1.18659e-19)
(1.31303 0.00718346 1.87847e-19)
(1.29148 -0.00725979 -3.68636e-20)
(-0.0116671 0.00771855 8.11816e-23)
(0.0612957 -0.00229495 1.60396e-19)
(0.22495 -0.00639076 1.53331e-19)
(0.462571 -0.000527056 -1.43305e-20)
(0.732786 0.0179417 7.99964e-20)
(0.978054 0.0398716 -5.9036e-19)
(1.16181 0.0566284 1.41215e-19)
(1.27773 0.0646266 -8.81354e-20)
(1.33788 0.0642772 6.78959e-20)
(1.35983 0.0579436 1.69113e-19)
(1.35909 0.0482908 -2.01368e-19)
(1.34646 0.0377393 4.93426e-20)
(1.3284 0.0267251 4.41232e-20)
(1.30827 0.019781 -4.91771e-20)
(1.28783 0.00626668 3.4487e-20)
(-0.00547518 0.00475056 2.76064e-19)
(0.0894338 -0.00811306 4.89446e-19)
(0.282379 -0.00886116 7.47098e-20)
(0.546164 0.00441009 -1.81094e-19)
(0.824388 0.0296888 5.33427e-19)
(1.05733 0.0549389 3.55698e-19)
(1.21838 0.0721184 -1.2684e-19)
(1.31129 0.0791596 6.03828e-21)
(1.35355 0.0776647 -1.19193e-19)
(1.36398 0.0705638 3.31122e-20)
(1.35702 0.0606343 2.57815e-20)
(1.34172 0.049981 -1.1171e-19)
(1.32305 0.0392513 -2.23551e-19)
(1.30328 0.0317678 1.36284e-19)
(1.28375 0.0189411 -1.98351e-19)
(0.00237272 0.00171405 -3.00287e-19)
(0.122158 -0.0130356 -1.59346e-19)
(0.345756 -0.00853575 -4.2641e-19)
(0.632035 0.0131057 6.78453e-19)
(0.911076 0.0443555 -5.91523e-19)
(1.12674 0.0716208 2.39387e-19)
(1.26419 0.0882203 1.49649e-19)
(1.33597 0.0937472 1.64783e-19)
(1.36319 0.0908778 1.01231e-19)
(1.36467 0.0829376 -1.89611e-20)
(1.35326 0.0726663 -9.59772e-20)
(1.33628 0.0618641 -2.22875e-19)
(1.3174 0.0512817 1.13834e-19)
(1.29808 0.0432293 1.03309e-19)
(1.27943 0.0310458 2.11664e-19)
(0.0120334 -0.00128561 -2.65925e-19)
(0.159566 -0.0166956 1.30684e-19)
(0.41416 -0.00500819 1.36424e-19)
(0.717846 0.0253583 -2.95195e-19)
(0.991011 0.0614264 1.15555e-19)
(1.18608 0.0894654 -1.03327e-19)
(1.3003 0.104663 -1.54527e-19)
(1.3533 0.108289 -1.74185e-19)
(1.36819 0.103927 6.41267e-20)
(1.36287 0.0951207 1.95362e-19)
(1.34836 0.0844595 2.77858e-19)
(1.33037 0.0734544 1.05088e-19)
(1.31153 0.0628935 -6.61535e-20)
(1.29272 0.0542611 -6.92009e-20)
(1.27481 0.0425768 -5.55034e-20)
(0.0236379 -0.00410834 2.56354e-19)
(0.201607 -0.0186527 -1.29372e-19)
(0.486333 0.00201829 7.48412e-20)
(0.801427 0.0408584 4.26222e-19)
(1.06305 0.0804377 4.0674e-19)
(1.2357 0.108121 -3.78593e-19)
(1.32794 0.121266 1.84502e-19)
(1.36468 0.122747 2.12866e-19)
(1.36968 0.116848 -3.60361e-19)
(1.3593 0.107169 7.36344e-20)
(1.34269 0.0960705 -1.60053e-19)
(1.32415 0.0848048 2.55477e-20)
(1.30547 0.074144 -7.79613e-20)
(1.28716 0.0649101 1.35048e-19)
(1.26991 0.053639 -1.43566e-19)
(0.0372872 -0.00658328 -2.29857e-19)
(0.24804 -0.0184268 1.58442e-19)
(0.560771 0.0126867 2.14251e-19)
(0.880962 0.0592467 -5.60422e-20)
(1.12663 0.100989 -5.11465e-19)
(1.27626 0.12732 -1.80527e-19)
(1.34832 0.137923 -2.82528e-19)
(1.3713 0.137119 1.20133e-19)
(1.36852 0.129684 -1.6848e-20)
(1.35446 0.11913 -1.89629e-19)
(1.33645 0.107542 -1.72592e-19)
(1.31765 0.0959507 3.20631e-20)
(1.29922 0.0850732 6.21551e-20)
(1.2814 0.0752285 -1.26075e-19)
(1.26471 0.0642639 6.08609e-20)
(0.0530464 -0.00851198 9.83245e-20)
(0.298418 -0.0155449 1.90881e-21)
(0.635851 0.0269841 -6.42251e-19)
(0.955066 0.0801547 -4.59763e-20)
(1.18166 0.122741 3.63427e-19)
(1.30859 0.146869 3.67545e-19)
(1.36259 0.154576 2.52168e-19)
(1.37415 0.151427 -4.66537e-20)
(1.36536 0.142476 7.69567e-20)
(1.34865 0.131036 -2.40451e-21)
(1.32976 0.118901 1.38009e-19)
(1.31089 0.106914 5.35351e-20)
(1.29274 0.0957112 1.12765e-19)
(1.2754 0.0852464 -8.43104e-20)
(1.25921 0.0744932 -6.19552e-20)
(0.0709347 -0.00967273 -1.67875e-20)
(0.352088 -0.00959132 1.79158e-19)
(0.709973 0.0447694 3.36251e-19)
(1.02279 0.103227 1.13268e-19)
(1.22834 0.145411 -3.24248e-19)
(1.3336 0.166627 -4.06077e-19)
(1.37175 0.171198 1.66564e-19)
(1.374 0.165697 -1.01236e-19)
(1.36065 0.155255 2.86355e-19)
(1.3421 0.142907 7.69994e-21)
(1.32267 0.13016 -7.15474e-20)
(1.30385 0.117705 -2.71213e-20)
(1.28601 0.106077 1.29304e-19)
(1.26914 0.0949894 1.11493e-19)
(1.2534 0.0843496 1.16943e-19)
(0.0909151 -0.00982742 2.53618e-19)
(0.408211 -0.000251115 -2.76605e-19)
(0.781679 0.0658107 1.74392e-19)
(1.08354 0.128129 2.46057e-19)
(1.2671 0.168764 2.13593e-19)
(1.35216 0.186494 8.68173e-20)
(1.37667 0.187784 4.59672e-20)
(1.37146 0.179953 -1.81782e-20)
(1.35471 0.168038 -1.31506e-19)
(1.3349 0.154749 4.98141e-20)
(1.31519 0.141322 1.19051e-19)
(1.29652 0.128324 4.79462e-20)
(1.27901 0.116183 -4.56871e-20)
(1.2626 0.104472 -4.74744e-20)
(1.24725 0.0938493 -5.62335e-20)
(0.112885 -0.00873234 -1.36913e-19)
(0.465812 0.0126651 9.91581e-20)
(0.84972 0.0898184 -1.22984e-20)
(1.13706 0.15455 -2.58112e-19)
(1.29847 0.192603 -6.84126e-20)
(1.36511 0.2064 1.52068e-19)
(1.37806 0.204334 -1.36642e-19)
(1.36697 0.194208 9.33299e-21)
(1.34775 0.180828 -8.49456e-21)
(1.32712 0.166553 -4.54109e-20)
(1.30731 0.152378 -7.52938e-20)
(1.28884 0.138765 -1.07281e-19)
(1.27169 0.126034 -4.16954e-20)
(1.25573 0.113701 7.0491e-20)
(1.24076 0.103 1.65591e-20)
(0.136666 -0.00615237 -1.73635e-19)
(0.523843 0.0292153 -2.24777e-20)
(0.913102 0.116469 -1.13316e-19)
(1.18329 0.182195 1.05857e-19)
(1.32305 0.216761 -1.24972e-19)
(1.37317 0.226291 -5.48817e-20)
(1.3765 0.220845 1.4328e-20)
(1.36085 0.208464 -2.17187e-20)
(1.33988 0.193614 4.4191e-20)
(1.31877 0.178302 5.49968e-22)
(1.299 0.163311 3.12257e-20)
(1.2808 0.149015 5.37351e-20)
(1.26402 0.135629 6.21281e-20)
(1.24853 0.122679 -2.71956e-20)
(1.23392 0.111803 -2.02706e-20)
(0.16201 -0.00187674 1.0322e-19)
(0.581236 0.0493345 1.10755e-19)
(0.971073 0.14542 3.85261e-20)
(1.22235 0.210789 -6.17956e-20)
(1.34143 0.241095 1.38306e-20)
(1.37699 0.246121 9.53869e-20)
(1.37242 0.237309 -6.6031e-20)
(1.35334 0.222709 -5.82555e-20)
(1.33119 0.206373 -1.84915e-20)
(1.30985 0.189969 1.2203e-20)
(1.29023 0.174096 -6.71955e-20)
(1.27236 0.159055 1.47595e-20)
(1.256 0.144963 3.84728e-20)
(1.24097 0.131399 -1.47155e-20)
(1.22674 0.120253 -1.22174e-20)
(0.188595 0.00426622 -6.78825e-20)
(0.636964 0.0728516 -4.71125e-20)
(1.02311 0.176323 -9.16932e-20)
(1.25446 0.240069 -1.48077e-20)
(1.35418 0.265474 -9.65656e-21)
(1.3771 0.265846 -1.03651e-19)
(1.36619 0.253705 3.31396e-20)
(1.34459 0.236916 2.02059e-20)
(1.3217 0.219068 -3.42186e-20)
(1.30034 0.201517 -2.09046e-20)
(1.28098 0.184702 -9.72829e-22)
(1.26348 0.168861 -2.02297e-20)
(1.24758 0.154023 -3.13544e-20)
(1.23304 0.139843 -2.79295e-20)
(1.21922 0.128338 1.97291e-20)
(0.216041 0.0123981 -3.09265e-20)
(0.69008 0.0995069 1.141e-20)
(1.06889 0.208824 1.55207e-20)
(1.27994 0.269786 1.6085e-20)
(1.36182 0.289775 2.76251e-20)
(1.37395 0.285417 1.96798e-20)
(1.35805 0.27 -5.56859e-21)
(1.33468 0.251043 1.96186e-20)
(1.31143 0.231655 -1.00881e-21)
(1.29022 0.212903 -8.32831e-23)
(1.27121 0.195095 8.24322e-21)
(1.25415 0.178406 -3.84514e-21)
(1.23875 0.162787 2.66857e-21)
(1.22474 0.147979 1.09668e-20)
(1.21141 0.136042 -8.90937e-21)
(0.243921 0.0225842 -1.93924e-20)
(0.739746 0.12897 -5.08995e-21)
(1.10823 0.24257 2.26366e-20)
(1.29912 0.299701 9.93251e-21)
(1.36485 0.313881 2.78963e-20)
(1.36791 0.304776 1.90162e-20)
(1.34819 0.286147 -6.66358e-22)
(1.32369 0.265037 2.31135e-20)
(1.30038 0.244078 -1.1613e-20)
(1.27947 0.224081 1.25029e-21)
(1.2609 0.205234 7.73168e-21)
(1.24434 0.18766 -3.59202e-21)
(1.22948 0.17123 3.43608e-21)
(1.21606 0.155766 1.24434e-20)
(1.20327 0.143347 -4.59929e-21)
(0.271776 0.034833 -2.75794e-20)
(0.785254 0.160853 -7.98617e-20)
(1.1411 0.277205 -8.98165e-20)
(1.31236 0.329587 -3.36159e-21)
(1.36367 0.337676 -1.3416e-20)
(1.35928 0.323857 -9.39449e-20)
(1.33676 0.302084 4.70048e-20)
(1.31165 0.278836 5.2842e-21)
(1.28853 0.256278 -3.06268e-20)
(1.26807 0.234995 -2.73121e-20)
(1.25002 0.215079 4.09029e-21)
(1.23403 0.196591 -1.60535e-20)
(1.21977 0.179325 -1.73711e-20)
(1.20697 0.163174 -2.39572e-20)
(1.19472 0.150243 1.46109e-20)
(0.29913 0.0490983 1.04614e-19)
(0.826036 0.194731 7.72123e-20)
(1.16755 0.312376 3.26703e-20)
(1.32005 0.35923 -4.61391e-20)
(1.35868 0.361042 2.1566e-20)
(1.34829 0.342582 4.969e-20)
(1.32386 0.317738 -3.95613e-20)
(1.29858 0.292365 -7.75183e-20)
(1.27587 0.268186 -7.01607e-21)
(1.25598 0.245593 4.5239e-20)
(1.23856 0.224583 -5.44539e-20)
(1.22321 0.205163 2.29384e-20)
(1.20962 0.187046 1.05679e-20)
(1.19747 0.170211 1.14961e-21)
(1.18564 0.156734 6.87648e-22)
(0.325512 0.065281 -1.25737e-19)
(0.861672 0.230153 -8.01038e-20)
(1.18768 0.347731 -1.25526e-19)
(1.32253 0.388419 1.1131e-19)
(1.35021 0.383856 -1.18494e-19)
(1.33515 0.360863 -2.876e-20)
(1.30955 0.333026 -2.50366e-21)
(1.28448 0.305545 1.29236e-21)
(1.26239 0.279732 5.84912e-20)
(1.24321 0.255813 -6.44169e-20)
(1.2265 0.233699 5.13565e-20)
(1.21186 0.213331 2.13621e-20)
(1.19903 0.194361 5.29696e-20)
(1.1876 0.176926 -2.73654e-21)
(1.17603 0.162824 -1.56934e-20)
(0.350468 0.0832312 1.87938e-20)
(0.891873 0.266663 2.33258e-20)
(1.20167 0.382929 -4.26619e-20)
(1.32016 0.416947 -1.68597e-19)
(1.33854 0.405993 -4.23352e-20)
(1.32 0.3786 1.13102e-19)
(1.29391 0.347856 -8.89917e-20)
(1.26937 0.31829 -4.4425e-20)
(1.24808 0.29084 1.36272e-20)
(1.22974 0.265594 -1.52933e-20)
(1.21385 0.242378 -8.04662e-20)
(1.2 0.221045 -4.00276e-20)
(1.18803 0.201223 -2.93593e-21)
(1.17726 0.183324 1.10735e-20)
(1.16616 0.16852 8.69828e-21)
(0.373572 0.102753 2.40192e-19)
(0.916457 0.303805 -3.02942e-19)
(1.20974 0.417632 2.05528e-19)
(1.31328 0.44461 1.05318e-19)
(1.32394 0.427322 3.04492e-19)
(1.30299 0.395687 9.11825e-21)
(1.27696 0.362129 7.73826e-20)
(1.25325 0.330513 2.1801e-20)
(1.23295 0.301435 -1.41568e-19)
(1.21558 0.274864 5.05991e-20)
(1.20064 0.250569 3.77416e-20)
(1.18767 0.228268 5.66709e-20)
(1.17658 0.207633 -5.45315e-20)
(1.16646 0.189294 -1.45241e-20)
(1.15608 0.173785 -1.93492e-21)
(0.394445 0.123611 -3.20394e-20)
(0.935341 0.341126 3.52832e-19)
(1.21214 0.451515 2.67753e-19)
(1.3022 0.471207 4.63116e-20)
(1.30663 0.44771 -2.86698e-19)
(1.2842 0.41201 -1.75672e-19)
(1.25873 0.375737 5.73968e-20)
(1.23615 0.342116 -3.53444e-20)
(1.21704 0.311439 7.83374e-20)
(1.20077 0.283561 1.85026e-20)
(1.18685 0.258197 1.71799e-20)
(1.17487 0.234978 -3.10589e-20)
(1.16466 0.213571 1.46963e-20)
(1.15527 0.194796 5.7248e-20)
(1.14572 0.178573 5.76258e-20)
(0.412757 0.145535 2.68706e-19)
(0.948527 0.378187 -2.9014e-19)
(1.20914 0.484262 -4.45967e-19)
(1.28723 0.496541 3.4622e-20)
(1.2868 0.467022 2.34e-19)
(1.26373 0.427454 2.2592e-19)
(1.23927 0.388557 1.17003e-19)
(1.21815 0.352996 7.0517e-21)
(1.20035 0.320765 2.04389e-20)
(1.1853 0.291634 5.12646e-21)
(1.17248 0.265226 5.47689e-20)
(1.16157 0.241115 1.17052e-20)
(1.15233 0.218996 3.8164e-21)
(1.14372 0.199793 -1.60559e-20)
(1.13508 0.182865 -2.0046e-20)
(0.428234 0.168229 -3.467e-19)
(0.956087 0.414558 2.67228e-19)
(1.20103 0.515572 2.33582e-19)
(1.26865 0.52042 -1.60244e-19)
(1.26462 0.485112 -3.3621e-19)
(1.24171 0.441898 -6.82326e-20)
(1.21874 0.400481 -1.64232e-19)
(1.19923 0.363049 6.44077e-20)
(1.18289 0.329356 -1.20411e-20)
(1.16919 0.299007 -5.4415e-20)
(1.15759 0.271601 -2.2523e-20)
(1.14782 0.246645 -3.88095e-21)
(1.13959 0.223869 -1.9913e-20)
(1.13183 0.204254 -9.25492e-21)
(1.12417 0.18664 -4.07484e-21)
(0.440667 0.191376 4.94988e-19)
(0.958156 0.449831 -3.1829e-19)
(1.18814 0.545161 1.71436e-19)
(1.24675 0.542664 1.63708e-19)
(1.24027 0.501824 2.85961e-19)
(1.21831 0.455194 -1.82408e-19)
(1.19714 0.411415 6.9031e-20)
(1.17938 0.372203 7.18474e-20)
(1.1647 0.337106 -6.28925e-20)
(1.15247 0.305617 -1.71139e-20)
(1.1422 0.27727 -9.29222e-22)
(1.13364 0.251526 -1.18568e-20)
(1.12648 0.22815 -3.29598e-20)
(1.11962 0.208147 1.89274e-20)
(1.11301 0.189886 -2.78464e-20)
(0.449905 0.214649 -2.73752e-19)
(0.954924 0.483611 1.7071e-20)
(1.17079 0.572762 1.13979e-19)
(1.2218 0.563104 -2.46638e-19)
(1.21402 0.517022 1.01747e-19)
(1.19357 0.467202 1.62561e-20)
(1.17446 0.421252 -8.80551e-20)
(1.1587 0.380363 -3.64258e-20)
(1.14581 0.34395 1.32236e-20)
(1.13518 0.311398 5.08814e-20)
(1.12634 0.282181 5.16589e-20)
(1.11906 0.255718 2.86934e-20)
(1.11303 0.231805 2.01698e-21)
(1.10712 0.211444 -2.68535e-20)
(1.10163 0.192591 3.44308e-21)
(0.455857 0.237715 5.25603e-20)
(0.946636 0.515525 -2.87577e-19)
(1.14933 0.598121 -3.75797e-19)
(1.19407 0.58154 2.95585e-19)
(1.18601 0.530591 -1.71235e-19)
(1.16752 0.477803 9.27481e-20)
(1.1508 0.429866 6.66877e-20)
(1.13723 0.387437 3.76142e-20)
(1.12629 0.34981 3.74527e-20)
(1.11737 0.316289 2.06694e-21)
(1.11005 0.286286 -2.97103e-20)
(1.10414 0.259183 -3.08614e-20)
(1.09927 0.234801 1.36925e-21)
(1.09435 0.214118 5.94851e-21)
(1.09006 0.19475 7.49274e-21)
(0.458506 0.260244 2.10721e-19)
(0.933626 0.545247 5.43533e-19)
(1.12403 0.620979 -9.86377e-20)
(1.16381 0.597799 -1.85855e-19)
(1.15637 0.542371 3.15684e-19)
(1.14033 0.486898 1.03655e-19)
(1.12626 0.437158 8.51394e-21)
(1.11506 0.393339 -3.14801e-20)
(1.1062 0.354618 7.74907e-21)
(1.0991 0.320232 -3.62655e-20)
(1.09339 0.289535 1.18001e-20)
(1.0889 0.261883 2.50988e-21)
(1.08524 0.237107 -7.46576e-21)
(1.08137 0.216138 -1.54059e-21)
(1.07834 0.196352 4.09865e-21)
(0.457923 0.281904 -9.32154e-20)
(0.916315 0.572555 2.14035e-19)
(1.09501 0.641021 1.85006e-19)
(1.1313 0.611709 -8.46816e-20)
(1.12529 0.552231 -4.43065e-20)
(1.11212 0.494372 -9.24709e-20)
(1.10091 0.44303 1.59711e-20)
(1.09225 0.397988 -3.31873e-20)
(1.08559 0.358309 -5.13894e-21)
(1.08042 0.323174 1.53256e-20)
(1.07641 0.291885 -6.5348e-21)
(1.07341 0.263782 8.63955e-22)
(1.07099 0.238689 -3.28749e-21)
(1.06822 0.217472 1.3785e-20)
(1.06649 0.197381 -1.12894e-20)
(0.454254 0.302325 -1.89413e-19)
(0.895034 0.597312 -7.08226e-19)
(1.06256 0.658072 2.47857e-20)
(1.09686 0.623007 -1.11835e-19)
(1.09296 0.560058 -2.25481e-19)
(1.08301 0.500126 7.03114e-20)
(1.07488 0.447397 -7.05027e-20)
(1.0689 0.401309 1.64874e-20)
(1.06456 0.360822 1.21091e-20)
(1.06141 0.325065 -8.3405e-21)
(1.05918 0.293297 4.90525e-22)
(1.05771 0.264849 -4.69151e-21)
(1.05657 0.23952 -4.16216e-21)
(1.05492 0.218083 -4.46349e-21)
(1.05454 0.197826 6.63371e-21)
(0.447649 0.321108 1.59911e-20)
(0.869694 0.619021 3.77632e-19)
(1.02751 0.672328 1.7254e-19)
(1.0608 0.631535 1.03249e-19)
(1.05957 0.565713 7.61071e-20)
(1.05313 0.504065 4.87739e-20)
(1.04826 0.45018 2.74842e-20)
(1.04508 0.403237 -1.30676e-20)
(1.04316 0.362103 1.08364e-20)
(1.04213 0.325858 -2.03285e-20)
(1.04175 0.293733 -3.32926e-21)
(1.04186 0.265058 3.69362e-21)
(1.04202 0.239575 3.50333e-20)
(1.04154 0.217938 1.23699e-20)
(1.04255 0.197683 -3.84991e-20)
(0.438139 0.338082 1.15924e-19)
(0.84043 0.637098 -4.12235e-19)
(0.990303 0.683515 -4.14454e-20)
(1.02337 0.637376 -8.58515e-20)
(1.02531 0.569112 -2.01671e-20)
(1.02264 0.506102 -2.03144e-20)
(1.02117 0.45131 -1.29633e-20)
(1.02091 0.403712 -5.02873e-21)
(1.0215 0.3621 -4.31865e-22)
(1.02265 0.325512 1.63629e-20)
(1.02419 0.29316 -2.37617e-20)
(1.02593 0.264385 3.38789e-20)
(1.0274 0.238843 -3.08714e-20)
(1.0282 0.217024 1.23824e-20)
(1.03077 0.196946 3.65342e-20)
(0.425869 0.353057 -3.2653e-19)
(0.808045 0.651537 4.97072e-19)
(0.951139 0.691339 -2.52754e-21)
(0.984822 0.640444 -4.89147e-20)
(0.990366 0.570181 3.78316e-20)
(0.991681 0.506161 -6.44173e-21)
(0.993729 0.450724 1.20803e-20)
(0.996483 0.402685 3.1999e-20)
(0.999666 0.360773 -7.9838e-20)
(1.00307 0.323991 2.79733e-20)
(1.00657 0.291544 5.41241e-21)
(1.00994 0.262791 -5.10004e-20)
(1.0128 0.237288 4.52167e-20)
(1.01516 0.215336 -1.4502e-20)
(1.01964 0.195657 1.93313e-20)
(0.411009 0.36576 4.1449e-19)
(0.773041 0.662191 -3.6964e-19)
(0.910343 0.695647 -8.16213e-20)
(0.945404 0.640663 3.61689e-20)
(0.954934 0.568859 -1.94332e-20)
(0.960399 0.504182 2.64336e-20)
(0.966071 0.448374 -4.07631e-20)
(0.97191 0.400115 4.37664e-20)
(0.977744 0.358089 5.3675e-20)
(0.983448 0.321268 -9.22101e-20)
(0.988926 0.288856 2.5487e-20)
(0.993934 0.260224 -1.18093e-20)
(0.998319 0.234808 -3.34899e-21)
(1.00272 0.212755 -5.39671e-20)
(1.00934 0.193997 -2.89838e-20)
(0.393842 0.375957 -1.41043e-19)
(0.735863 0.668915 8.35394e-20)
(0.86826 0.696349 1.22141e-20)
(0.905376 0.637957 2.7622e-20)
(0.919211 0.565095 2.75825e-20)
(0.928957 0.500118 -3.5159e-20)
(0.938327 0.444219 6.63824e-20)
(0.947305 0.395971 -5.77959e-20)
(0.955834 0.354023 7.81251e-20)
(0.963868 0.317327 8.33138e-20)
(0.971323 0.285086 -1.80606e-20)
(0.977978 0.256662 1.41007e-20)