/*--------------------------------*- C++ -*----------------------------------*\
  =========                 |
  \\      /  F ield         | OpenFOAM: The Open Source CFD Toolbox
   \\    /   O peration     | Website:  https://openfoam.org
    \\  /    A nd           | Version:  7
     \\/     M anipulation  |
\*---------------------------------------------------------------------------*/
FoamFile
{
    version     2.0;
    format      ascii;
    class       volVectorField;
    location    "54.999";
    object      U;
}
// * * * * * * * * * * * * * * * * * * * * * * * * * * * * * * * * * * * * * //

dimensions      [0 1 -1 0 0 0 0];

internalField   nonuniform List<vector> 
14800
(
(-0.00271318 0.00173882 -1.54447e-20)
(-0.0137854 0.00356975 2.03053e-21)
(-0.0318995 0.00443956 8.77528e-21)
(-0.0508585 0.00475738 -4.65019e-21)
(-0.0697355 0.00475307 -1.5167e-20)
(-0.0875974 0.00458013 1.43115e-20)
(-0.104101 0.00432483 5.93304e-22)
(-0.119141 0.00402936 1.68061e-21)
(-0.1327 0.00370914 -7.93212e-21)
(-0.144776 0.00336651 -1.03212e-21)
(-0.155358 0.00300342 5.93669e-21)
(-0.164448 0.0026307 5.06402e-21)
(-0.172104 0.00228065 1.895e-20)
(-0.178504 0.00202813 -2.10596e-20)
(-0.18396 0.00188799 8.59087e-21)
(-0.00293133 0.0051397 3.24266e-20)
(-0.0141108 0.0105554 -2.00824e-20)
(-0.0320876 0.0131271 -7.14309e-21)
(-0.0507988 0.0140626 1.53404e-21)
(-0.069348 0.0140411 1.41746e-20)
(-0.0868234 0.0135168 2.81158e-20)
(-0.102889 0.0127458 -2.41257e-20)
(-0.117441 0.0118543 4.30831e-21)
(-0.130461 0.010889 2.09618e-20)
(-0.141941 0.00985745 2.23555e-20)
(-0.151866 0.00876496 -2.79396e-20)
(-0.160219 0.00764201 3.03121e-20)
(-0.167018 0.00657912 -4.39522e-20)
(-0.172448 0.0058279 4.18522e-20)
(-0.176514 0.00536194 8.47072e-21)
(-0.00335949 0.00842852 5.19558e-20)
(-0.0147522 0.0173425 9.29781e-20)
(-0.0324605 0.021592 5.04475e-21)
(-0.0506814 0.0231443 -2.55471e-20)
(-0.0685795 0.0231138 -1.25754e-20)
(-0.0852846 0.0222487 -4.46602e-20)
(-0.100475 0.020973 3.14805e-20)
(-0.11405 0.0194975 3.9263e-20)
(-0.125987 0.017901 -4.44657e-20)
(-0.136271 0.0161944 -1.7626e-20)
(-0.144871 0.0143815 5.85615e-20)
(-0.151748 0.0125025 -2.03404e-20)
(-0.156823 0.0106748 1.90277e-20)
(-0.16037 0.00941502 2.19408e-20)
(-0.161598 0.00840294 3.45095e-20)
(-0.00398298 0.0115364 -4.41103e-20)
(-0.0156927 0.0238061 -1.53813e-19)
(-0.0330108 0.0296914 7.50627e-20)
(-0.0505086 0.0318566 -7.20917e-21)
(-0.0674392 0.0318285 2.81682e-20)
(-0.0829937 0.0306383 -8.32876e-20)
(-0.0968716 0.0288751 2.87083e-21)
(-0.108975 0.0268345 1.10436e-21)
(-0.119274 0.0246288 3.08753e-20)
(-0.127743 0.0222714 -3.5907e-20)
(-0.134333 0.0197573 -9.84712e-20)
(-0.138986 0.0171255 -3.50066e-20)
(-0.141421 0.0144463 -4.75509e-21)
(-0.142293 0.0126909 9.56345e-21)
(-0.139118 0.0107331 -3.89831e-20)
(-0.00478115 0.0144028 -9.78418e-20)
(-0.016908 0.0298321 7.25066e-20)
(-0.0337278 0.0372902 4.39969e-21)
(-0.0502825 0.0400578 7.86032e-21)
(-0.0659387 0.0400439 -6.12864e-20)
(-0.0799667 0.0385472 4.60288e-20)
(-0.0920931 0.036317 -1.67831e-20)
(-0.102221 0.0337349 2.641e-20)
(-0.110312 0.0309493 -1.51393e-20)
(-0.11632 0.0279758 9.17358e-20)
(-0.120168 0.0247944 7.09827e-20)
(-0.121835 0.0214413 4.71025e-20)
(-0.120598 0.01779 -7.34398e-20)
(-0.118167 0.0156167 1.98303e-20)
(-0.108841 0.0121295 -2.01095e-20)
(-0.00572891 0.0169777 1.68034e-22)
(-0.0183678 0.0353205 1.26033e-19)
(-0.0345972 0.0442643 -9.40715e-20)
(-0.050004 0.0476128 7.82352e-20)
(-0.0640898 0.0476209 6.81706e-20)
(-0.0762198 0.0458356 -3.86637e-20)
(-0.0861526 0.0431601 2.67632e-20)
(-0.0937892 0.040062 -1.07601e-19)
(-0.0990745 0.0367297 3.1225e-20)
(-0.101935 0.0331841 -7.00431e-20)
(-0.102237 0.0293844 3.63325e-20)
(-0.100128 0.0253951 -8.44163e-20)
(-0.0939509 0.0206373 -1.99651e-20)
(-0.0877564 0.0182001 -4.06859e-20)
(-0.0703269 0.0126044 4.83469e-20)
(-0.00679862 0.019224 -1.10996e-20)
(-0.0200372 0.0401883 -1.29431e-19)
(-0.0356004 0.0505029 1.19048e-20)
(-0.04967 0.0543948 1.64475e-21)
(-0.0619 0.0544245 1.93473e-20)
(-0.0717634 0.0523645 1.70904e-19)
(-0.0790531 0.0492631 -1.3505e-20)
(-0.0836624 0.0456731 8.80154e-20)
(-0.0855086 0.0418274 1.09313e-20)
(-0.0844808 0.0377586 6.13222e-21)
(-0.0803079 0.0333994 -2.70354e-20)
(-0.0736053 0.0289241 6.41111e-20)
(-0.0608923 0.0230448 1.56488e-19)
(-0.0503992 0.020356 -1.74602e-19)
(-0.0229024 0.0127559 -6.16311e-20)
(-0.00796204 0.0211185 7.3368e-20)
(-0.0218784 0.0443721 1.27799e-19)
(-0.0367139 0.0559113 -3.44588e-20)
(-0.0492705 0.0602881 -5.95894e-20)
(-0.0593667 0.0603259 -5.92098e-20)
(-0.0665925 0.0579975 7.83808e-21)
(-0.0707751 0.0544843 5.44628e-20)
(-0.0717904 0.0504228 -1.71068e-19)
(-0.0695105 0.0460936 -2.78154e-21)
(-0.0637847 0.0415534 -5.09907e-20)
(-0.0540404 0.0367157 -1.2363e-19)
(-0.0417982 0.0318732 1.25518e-19)
(-0.0207727 0.0253105 -1.70824e-19)
(-0.00480155 0.0217767 8.98787e-20)
(0.0348817 0.0130268 6.37284e-20)
(-0.00919239 0.0226525 -4.00635e-20)
(-0.0238518 0.0478289 4.75662e-20)
(-0.0379076 0.0604128 -8.55081e-20)
(-0.0487833 0.0651908 7.27408e-20)
(-0.0564686 0.0652063 9.86292e-20)
(-0.0606743 0.0626048 1.17201e-19)
(-0.0612578 0.0586877 -4.72742e-20)
(-0.058063 0.0541704 -3.66779e-20)
(-0.0508889 0.0493849 1.68634e-19)
(-0.0395547 0.0444279 1.21051e-19)
(-0.0230057 0.0392891 1.12927e-19)
(-0.00387331 0.0339526 -1.65946e-19)
(0.0273442 0.0272901 4.76039e-20)
(0.0498215 0.0229887 4.66482e-20)
(0.106221 0.0135048 -1.27382e-21)
(-0.0104661 0.0238309 -1.75831e-19)
(-0.0259169 0.0505365 -2.29263e-19)
(-0.0391423 0.0639508 8.58396e-20)
(-0.0481674 0.0690176 1.16147e-19)
(-0.0531537 0.0689605 -2.39641e-19)
(-0.0539297 0.0660693 -1.06089e-20)
(-0.0503719 0.06175 -9.41334e-20)
(-0.0422721 0.0567917 2.23788e-19)
(-0.0293143 0.0515834 -9.90954e-20)
(-0.0112587 0.0462501 -1.1993e-20)
(0.0134424 0.0409412 7.62297e-20)
(0.0408785 0.0351197 1.89664e-19)
(0.0854375 0.0287614 8.30396e-20)
(0.114176 0.0243781 -6.67318e-20)
(0.193796 0.0148823 -1.29594e-20)
(-0.011764 0.024671 1.22105e-19)
(-0.028032 0.0524926 1.64234e-19)
(-0.0403658 0.0664892 -1.128e-19)
(-0.0473546 0.0717034 -3.84503e-19)
(-0.0493246 0.0715026 -4.22919e-20)
(-0.0462098 0.0682942 1.72467e-21)
(-0.0378849 0.0635725 1.26886e-19)
(-0.0240592 0.0581942 -2.81806e-19)
(-0.00426403 0.0526049 -1.26964e-20)
(0.0218212 0.0469472 -1.47672e-19)
(0.0564789 0.0416072 -1.94341e-19)
(0.0935762 0.0354343 -1.25122e-19)
(0.155266 0.030129 1.17346e-20)
(0.189731 0.0252489 -4.13959e-20)
(0.299524 0.018184 -1.26374e-19)
(-0.0130723 0.0252004 6.75187e-20)
(-0.0301537 0.0537129 1.18744e-19)
(-0.0415083 0.0680137 -5.4678e-20)
(-0.0462386 0.0732062 -4.96172e-20)
(-0.0448198 0.0727724 3.13461e-19)
(-0.0372669 0.0692127 -3.23337e-19)
(-0.0234194 0.0640947 1.67671e-20)
(-0.00286349 0.0583381 7.40735e-20)
(0.025079 0.0524499 5.47015e-20)
(0.060778 0.0465859 3.77793e-20)
(0.107518 0.0415669 6.57817e-20)
(0.156039 0.0348432 -4.93324e-20)
(0.238366 0.0321507 1.49875e-19)
(0.278432 0.0254884 1.20755e-19)
(0.423607 0.0237745 7.91854e-20)
(-0.0143822 0.0254535 2.91106e-20)
(-0.0322342 0.0542279 -2.40684e-19)
(-0.0424753 0.068531 3.50802e-19)
(-0.0446624 0.0735106 4.3463e-19)
(-0.0393927 0.0727424 -1.46084e-19)
(-0.0267225 0.0687996 5.18498e-20)
(-0.00640676 0.0633135 -1.35289e-19)
(0.0221419 0.0572666 -2.30577e-20)
(0.0598648 0.0512447 -2.54914e-19)
(0.107146 0.0453688 5.45816e-20)
(0.168261 0.041258 2.12396e-19)
(0.23062 0.0338203 -2.81371e-20)
(0.335443 0.0354422 6.98529e-20)
(0.382568 0.0261736 -2.89004e-20)
(0.563047 0.0316537 7.91195e-21)
(-0.0156887 0.0254685 -1.43078e-19)
(-0.0342176 0.054079 -1.61554e-19)
(-0.0431404 0.0680683 -3.84879e-19)
(-0.0424043 0.0726313 -2.75367e-19)
(-0.0326887 0.0714259 -2.17186e-19)
(-0.0140335 0.0670858 2.45986e-19)
(0.0139556 0.0613036 4.86381e-20)
(0.0520924 0.0551323 1.06252e-19)
(0.101597 0.049266 5.64907e-20)
(0.162826 0.0437282 -1.59011e-19)
(0.240481 0.0412155 -8.26585e-20)
(0.319738 0.0335948 2.31165e-20)
(0.445625 0.0402077 -2.96044e-19)
(0.503484 0.0293112 6.70984e-20)
(0.710665 0.0419488 -1.70935e-19)
(-0.0169889 0.0252829 7.34134e-20)
(-0.0360342 0.0533126 5.63359e-19)
(-0.0433374 0.0666736 2.85275e-19)
(-0.0391643 0.0706159 1.33093e-19)
(-0.0242241 0.068885 3.3838e-19)
(0.00153525 0.0641727 -2.95402e-19)
(0.0387298 0.0582398 -1.22554e-19)
(0.0884331 0.0522275 -1.18113e-19)
(0.152059 0.046971 5.65379e-19)
(0.229839 0.0423861 1.82752e-19)
(0.325627 0.0420229 -1.41313e-19)
(0.424632 0.0359039 7.62478e-20)
(0.566236 0.0464808 -1.01032e-19)
(0.639155 0.0366624 1.06284e-19)
(0.855797 0.054724 4.9401e-20)
(-0.0182793 0.0249302 -6.9834e-21)
(-0.0375937 0.0519765 -3.00953e-19)
(-0.0428513 0.0644143 -2.73899e-19)
(-0.0345515 0.0675457 -9.50703e-20)
(-0.0133697 0.0652384 -1.66832e-19)
(0.0209252 0.0602472 1.71842e-19)
(0.0692307 0.05442 8.34054e-20)
(0.132847 0.0490116 -1.25885e-19)
(0.213116 0.0450075 2.16159e-21)
(0.309817 0.042322 -9.62489e-20)
(0.424281 0.0444053 2.18051e-20)
(0.543712 0.0421455 2.97591e-20)
(0.692948 0.0545915 2.56775e-20)
(0.782201 0.048666 6.58435e-20)
(0.986898 0.069236 -1.78342e-19)
(-0.019554 0.0244377 -1.47646e-19)
(-0.0387865 0.0501264 1.21368e-19)
(-0.041403 0.0613651 1.1439e-19)
(-0.0280752 0.0635366 1.43068e-20)
(0.000655569 0.0606685 1.15745e-19)
(0.0452745 0.0555945 -1.55527e-19)
(0.106967 0.0502815 1.61303e-19)
(0.187077 0.0461234 2.56071e-20)
(0.286335 0.0441997 -1.82152e-19)
(0.403293 0.0445789 5.20805e-21)
(0.535362 0.0493393 -1.81648e-19)
(0.67171 0.0526195 1.6484e-19)
(0.81981 0.0649824 2.22703e-20)
(0.920633 0.064284 3.77631e-20)
(1.09479 0.0837646 1.79458e-19)
(-0.0207963 0.0238246 4.14554e-19)
(-0.0394755 0.0478077 -1.63709e-19)
(-0.038655 0.0576103 -8.67919e-20)
(-0.0191386 0.0587444 -1.07009e-19)
(0.0187755 0.0554262 -2.89465e-19)
(0.0758729 0.0506068 -9.54844e-20)
(0.153509 0.0464068 1.88351e-19)
(0.252626 0.044362 -1.25894e-19)
(0.37244 0.0454912 -4.85446e-19)
(0.509002 0.0499841 1.77672e-19)
(0.65525 0.057754 4.02897e-20)
(0.800495 0.0665499 -1.09242e-19)
(0.939459 0.0775177 6.31604e-20)
(1.04186 0.0815956 -6.04215e-20)
(1.17497 0.0964071 7.41137e-20)
(-0.021974 0.0230924 -6.6503e-20)
(-0.0394832 0.0450532 2.14634e-19)
(-0.0342101 0.0532562 2.40667e-19)
(-0.00705102 0.0533628 1.85236e-19)
(0.0420257 0.0498331 2.85475e-19)
(0.114071 0.045784 2.52697e-19)
(0.21027 0.0435096 -2.85524e-19)
(0.330327 0.0446178 3.95911e-19)
(0.470674 0.0497924 3.10702e-19)
(0.623472 0.0589473 -2.88288e-19)
(0.777582 0.0698865 2.19672e-19)
(0.921164 0.0825363 -5.78208e-20)
(1.04446 0.0912975 -1.05877e-19)
(1.13736 0.098656 -1.46118e-19)
(1.22792 0.105751 -7.52298e-20)
(-0.0230307 0.0222281 -1.85742e-19)
(-0.0385964 0.0418975 3.70171e-19)
(-0.0276092 0.0484176 -1.99208e-20)
(0.00895571 0.0476213 3.84806e-20)
(0.0714987 0.0442813 -5.19275e-20)
(0.16114 0.0417264 -3.89675e-21)
(0.278206 0.0423927 2.43392e-19)
(0.419862 0.0477427 -1.85061e-19)
(0.578317 0.0577175 1.87092e-19)
(0.741131 0.0713476 2.32642e-19)
(0.894454 0.0849521 -1.49795e-19)
(1.02633 0.0989639 1.18705e-19)
(1.12959 0.10522 -4.54354e-20)
(1.20474 0.113871 1.10498e-19)
(1.25788 0.110937 5.20767e-20)
(-0.0238961 0.0212231 -2.61967e-19)
(-0.036553 0.0383665 2.90468e-20)
(-0.0183387 0.0432167 9.90401e-20)
(0.0296999 0.0417869 -1.59404e-19)
(0.108263 0.0392307 -1.82301e-19)
(0.218075 0.0391133 1.11844e-19)
(0.357445 0.0438645 -2.07831e-19)
(0.519344 0.054367 1.63773e-19)
(0.69069 0.0693242 -6.71239e-20)
(0.855172 0.0864727 -2.55047e-19)
(0.99861 0.101442 -1.46327e-19)
(1.11174 0.114468 2.14426e-19)
(1.1932 0.11846 -9.06092e-20)
(1.24697 0.125608 -5.63866e-20)
(1.27154 0.111932 -9.67996e-20)
(-0.0244913 0.0200627 5.15854e-19)
(-0.0330509 0.0344761 -6.34191e-19)
(-0.00583924 0.0377934 -1.44908e-19)
(0.0560099 0.0361672 -8.52943e-20)
(0.153258 0.0352045 5.30114e-20)
(0.285357 0.0386616 -2.10752e-19)
(0.446941 0.0486059 1.22363e-19)
(0.625191 0.0646992 6.06756e-20)
(0.80185 0.0840234 -4.03249e-19)
(0.959092 0.103131 3.29312e-19)
(1.08537 0.117764 8.60127e-20)
(1.17659 0.128321 -2.31158e-19)
(1.23674 0.130174 1.34878e-19)
(1.26992 0.1327 8.68879e-20)
(1.28775 0.121278 1.88608e-20)
(-0.0247115 0.0187201 -3.47852e-19)
(-0.0277608 0.030253 5.77724e-19)
(0.0104726 0.0323109 5.61977e-20)
(0.0886729 0.0311152 -2.07005e-19)
(0.207151 0.0327796 2.55275e-19)
(0.362691 0.0410514 -1.54362e-19)
(0.544269 0.0570019 1.64903e-20)
(0.73251 0.0784021 -1.97377e-19)
(0.905838 0.100733 3.54463e-19)
(1.04824 0.119995 -1.5793e-19)
(1.15329 0.132804 4.30636e-20)
(1.22268 0.140308 -6.71617e-20)
(1.26362 0.139408 -6.54703e-21)
(1.28369 0.13958 9.77489e-21)
(1.29249 0.12725 2.12047e-20)
(-0.02443 0.0171698 7.48508e-20)
(-0.0203264 0.0257406 -3.42495e-19)
(0.0311828 0.026964 -2.99623e-19)
(0.12837 0.0270354 7.94093e-20)
(0.270186 0.0325622 -2.07174e-19)
(0.448784 0.0468116 -1.90965e-19)
(0.645744 0.0689984 6.03758e-20)
(0.835998 0.0946455 2.82055e-19)
(0.997981 0.118207 9.33301e-20)
(1.12056 0.136 -1.82249e-19)
(1.2035 0.146073 -4.97559e-20)
(1.25318 0.150277 2.60981e-20)
(1.27926 0.147174 1.44347e-19)
(1.28923 0.145016 -3.19514e-20)
(1.29201 0.132455 -3.86267e-20)
(-0.0235038 0.0153962 -4.10807e-20)
(-0.0103703 0.0210064 4.50369e-19)
(0.0568554 0.0219892 2.11066e-19)
(0.175599 0.0243883 7.46351e-20)
(0.341998 0.0351349 1.46885e-19)
(0.541265 0.0561849 2.8374e-19)
(0.746941 0.0840756 1.32521e-19)
(0.931019 0.112343 -2.92458e-19)
(1.07564 0.135367 -1.83946e-19)
(1.17634 0.150541 3.14815e-19)
(1.23857 0.157469 -3.10185e-20)
(1.27198 0.15863 -2.0916e-20)
(1.28678 0.153641 -1.83951e-19)
(1.29009 0.149803 -2.35723e-20)
(1.28975 0.137143 1.70624e-19)
(-0.0217766 0.0133971 -7.10895e-20)
(0.00249383 0.0161523 -5.69527e-19)
(0.0879993 0.0176772 -4.28118e-20)
(0.230573 0.0236847 -1.20249e-19)
(0.421474 0.0409666 -3.25136e-19)
(0.636875 0.0690325 1.085e-19)
(0.843504 0.10138 -2.65324e-19)
(1.0144 0.130444 1.20071e-19)
(1.13822 0.151499 -1.03932e-20)
(1.21737 0.163414 -1.79109e-19)
(1.26165 0.167208 1.15997e-19)
(1.28229 0.165706 -5.9591e-20)
(1.28911 0.159298 7.54979e-20)
(1.28819 0.154124 1.27122e-19)
(1.28537 0.14138 -2.46524e-20)
(-0.0190826 0.0111888 -4.94293e-22)
(0.018648 0.0113243 9.41491e-20)
(0.125026 0.0143821 9.08186e-20)
(0.293106 0.0254562 -8.61927e-21)
(0.506706 0.0503012 4.57019e-20)
(0.731931 0.0848495 -3.43355e-19)
(0.931905 0.119956 8.11212e-20)
(1.08464 0.148145 -5.21223e-20)
(1.18661 0.166255 4.07356e-20)
(1.24612 0.174702 1.01559e-19)
(1.27568 0.175605 -1.22981e-19)
(1.28679 0.171897 3.09832e-20)
(1.28816 0.164431 2.72111e-20)
(1.2845 0.158164 -3.43224e-20)
(1.28052 0.145511 2.31523e-20)
(-0.0152499 0.00880826 1.65137e-19)
(0.038453 0.00671986 2.91404e-19)
(0.168196 0.0125252 4.46677e-20)
(0.362512 0.0301905 -1.07593e-19)
(0.595128 0.0630791 3.12191e-19)
(0.822933 0.102899 2.08447e-19)
(1.00986 0.138957 -7.53468e-20)
(1.14171 0.164944 2.84704e-21)
(1.22258 0.179568 -7.12093e-20)
(1.26515 0.184634 2.01238e-20)
(1.28316 0.183002 1.63505e-20)
(1.2874 0.177513 -7.05912e-20)
(1.28514 0.169265 -1.45962e-19)
(1.27988 0.162084 9.15242e-20)
(1.27504 0.149561 -1.37942e-19)
(-0.0101067 0.00631626 -1.80605e-19)
(0.0622283 0.00259295 -9.46128e-20)
(0.217553 0.0125839 -2.5351e-19)
(0.437544 0.0382411 4.00002e-19)
(0.683839 0.0789453 -3.48568e-19)
(0.907071 0.122393 1.4237e-19)
(1.07637 0.157753 8.83689e-20)
(1.18653 0.180611 9.77718e-20)
(1.24819 0.191552 6.096e-20)
(1.27678 0.193495 -1.20414e-20)
(1.28604 0.189708 -5.96051e-20)
(1.28547 0.182795 -1.40543e-19)
(1.28087 0.173951 7.35809e-20)
(1.27462 0.165956 6.93112e-20)
(1.26932 0.153611 1.47854e-19)
(-0.00348605 0.00379756 -1.61868e-19)
(0.0902268 -0.000744517 7.87534e-20)
(0.272853 0.0150592 8.0695e-20)
(0.516445 0.0497461 -1.75597e-19)
(0.77002 0.0973472 6.78293e-20)
(0.982472 0.142638 -6.00127e-20)
(1.13142 0.175946 -9.2355e-20)
(1.22057 0.195108 -1.04673e-19)
(1.26549 0.202409 3.90142e-20)
(1.28293 0.201566 1.18948e-19)
(1.28574 0.195973 1.71478e-19)
(1.2819 0.187915 6.59224e-20)
(1.27579 0.17858 -4.3721e-20)
(1.26899 0.169837 -4.68274e-20)
(1.26335 0.157682 -3.93745e-20)
(0.00476892 0.00136017 1.56254e-19)
(0.122606 -0.00292531 -7.79243e-20)
(0.333508 0.0204187 4.47862e-20)
(0.59711 0.0645999 2.54274e-19)
(0.851289 0.117667 2.43399e-19)
(1.04819 0.1631 -2.26069e-19)
(1.17572 0.193332 1.10564e-19)
(1.24546 0.208521 1.28169e-19)
(1.27632 0.212374 -2.18128e-19)
(1.28511 0.209099 4.48952e-20)
(1.28327 0.20199 -9.89654e-20)
(1.27725 0.192987 1.58367e-20)
(1.27018 0.183206 -4.95127e-20)
(1.26304 0.173754 8.91162e-20)
(1.25719 0.16178 -9.64608e-20)
(0.0147962 -0.000863273 -1.41925e-19)
(0.159393 -0.00353489 9.6123e-20)
(0.39857 0.0290258 1.29917e-19)
(0.677341 0.0824958 -3.3629e-20)
(0.925894 0.139326 -3.07237e-19)
(1.10403 0.183411 -1.09378e-19)
(1.21036 0.209848 -1.70871e-19)
(1.26282 0.221002 7.29414e-20)
(1.28218 0.221679 -1.02126e-20)
(1.28442 0.216294 -1.15571e-19)
(1.27932 0.207894 -1.06288e-19)
(1.27184 0.19808 1.98712e-20)
(1.26417 0.187855 4.02322e-20)
(1.25684 0.177719 -8.19024e-20)
(1.25082 0.165905 4.15032e-20)
(0.0267067 -0.00271734 6.06147e-20)
(0.200453 -0.00213186 1.45145e-21)
(0.466771 0.0410817 -3.90816e-19)
(0.755089 0.10301 -2.81214e-20)
(0.992743 0.161844 2.20303e-19)
(1.15033 0.203342 2.22904e-19)
(1.23657 0.225525 1.52527e-19)
(1.27412 0.232728 -2.80664e-20)
(1.2843 0.230526 4.66672e-20)
(1.28168 0.223307 -1.49361e-21)
(1.2743 0.213777 8.43619e-20)
(1.26588 0.203229 3.30386e-20)
(1.25782 0.192534 7.14856e-20)
(1.25039 0.181734 -5.33955e-20)
(1.24422 0.170045 -3.99573e-20)
(0.0405791 -0.004025 -1.07842e-20)
(0.24546 0.00172229 1.11089e-19)
(0.536625 0.0566032 2.05434e-19)
(0.828639 0.125684 6.91065e-20)
(1.05132 0.184844 -1.98053e-19)
(1.18778 0.222773 -2.47759e-19)
(1.2556 0.240449 1.0149e-19)
(1.28059 0.243876 -6.13782e-20)
(1.28359 0.239082 1.73536e-19)
(1.27743 0.230247 4.75772e-21)
(1.2685 0.219691 -4.38374e-20)
(1.25945 0.208446 -1.65723e-20)
(1.25115 0.197241 8.05517e-20)
(1.24368 0.185796 7.09935e-20)
(1.23739 0.174184 7.60808e-20)
(0.0564491 -0.0045888 1.60146e-19)
(0.293882 0.00842332 -1.71706e-19)
(0.606561 0.0754435 1.08199e-19)
(0.896694 0.15008 1.52134e-19)
(1.10155 0.208047 1.31491e-19)
(1.21723 0.241656 5.29485e-20)
(1.26862 0.25473 2.82428e-20)
(1.28324 0.254604 -1.09692e-20)
(1.28074 0.247475 -7.96213e-20)
(1.27204 0.237183 2.9909e-20)
(1.26206 0.225662 7.14779e-20)
(1.25262 0.213728 2.91351e-20)
(1.24417 0.201966 -2.77956e-20)
(1.2367 0.189895 -2.94722e-20)
(1.23031 0.178303 -3.5769e-20)
(0.0742995 -0.0041955 -8.60311e-20)
(0.345001 0.018283 6.22934e-20)
(0.675057 0.0973365 -6.63195e-21)
(0.958376 0.17581 -1.60137e-19)
(1.14368 0.23125 -4.18536e-20)
(1.23957 0.259993 9.37949e-20)
(1.27663 0.268487 -8.34283e-20)
(1.28287 0.265046 5.61625e-21)
(1.27622 0.255793 -5.14374e-21)
(1.26574 0.244152 -2.74804e-20)
(1.25506 0.231695 -4.5405e-20)
(1.24538 0.21906 -6.41681e-20)
(1.23687 0.206693 -2.44332e-20)
(1.22944 0.194016 4.25373e-20)
(1.22296 0.182381 1.01752e-20)
(0.0940505 -0.00262416 -1.11082e-19)
(0.397939 0.0314977 -1.41404e-20)
(0.740745 0.121945 -7.07216e-20)
(1.01317 0.202534 6.63369e-20)
(1.17815 0.254309 -7.78469e-20)
(1.25571 0.277813 -3.38775e-20)
(1.28051 0.281826 8.74153e-21)
(1.28008 0.2753 -1.32641e-20)
(1.27038 0.264091 2.6387e-20)
(1.25866 0.251169 2.45365e-22)
(1.24755 0.237779 1.80771e-20)
(1.23775 0.224418 3.18355e-20)
(1.22923 0.211405 3.71286e-20)
(1.22188 0.198142 -1.66614e-20)
(1.21532 0.186391 -1.22607e-20)
(0.115552 0.000341764 6.70256e-20)
(0.451712 0.0481336 7.07125e-20)
(0.802481 0.148899 2.47446e-20)
(1.06086 0.229958 -3.89724e-20)
(1.2055 0.277119 8.60088e-21)
(1.26643 0.295154 5.91054e-20)
(1.28095 0.294837 -4.04732e-20)
(1.27533 0.285434 -3.52255e-20)
(1.26342 0.272394 -1.1426e-20)
(1.25089 0.258225 7.02154e-21)
(1.23954 0.243891 -3.92655e-20)
(1.2297 0.229775 8.34864e-21)
(1.22124 0.21608 2.19642e-20)
(1.21399 0.20225 -8.83889e-21)
(1.2074 0.190308 -6.88178e-21)
(0.138583 0.00489982 -4.40251e-20)
(0.505293 0.0681298 -3.00812e-20)
(0.859366 0.17782 -5.85944e-20)
(1.10145 0.257825 -9.46204e-21)
(1.22634 0.299603 -6.13936e-21)
(1.27249 0.312058 -6.43381e-20)
(1.27852 0.307586 2.03035e-20)
(1.26894 0.295487 1.2305e-20)
(1.25549 0.280703 -2.02553e-20)
(1.24246 0.265298 -1.22111e-20)
(1.23101 0.249999 -4.57764e-22)
(1.22123 0.235097 -1.16047e-20)
(1.21289 0.220696 -1.76783e-20)
(1.20578 0.206312 -1.5544e-20)
(1.1992 0.194103 1.09949e-20)
(0.162849 0.0112135 -2.03053e-20)
(0.557663 0.0913134 7.40415e-21)
(0.910743 0.208332 9.96782e-21)
(1.13508 0.285904 1.02651e-20)
(1.24125 0.321698 1.74028e-20)
(1.27448 0.328552 1.21849e-20)
(1.27365 0.320113 -3.39809e-21)
(1.26114 0.30547 1.17273e-20)
(1.24666 0.288997 -6.09706e-22)
(1.23339 0.272353 -7.26247e-23)
(1.22197 0.256065 4.63071e-21)
(1.21231 0.240349 -2.15077e-21)
(1.20416 0.22522 1.46254e-21)
(1.19725 0.210288 5.99211e-21)
(1.19076 0.197741 -4.79655e-21)
(0.187996 0.0193994 -1.29799e-20)
(0.607865 0.11742 -3.33254e-21)
(0.956173 0.240072 1.47944e-20)
(1.16202 0.313983 6.43833e-21)
(1.2508 0.343345 1.77e-20)
(1.27295 0.344653 1.17798e-20)
(1.26668 0.332433 -3.80047e-22)
(1.25207 0.315369 1.34621e-20)
(1.237 0.297244 -6.60023e-21)
(1.22368 0.279348 7.25154e-22)
(1.2124 0.262046 4.13862e-21)
(1.20295 0.24549 -1.83917e-21)
(1.19504 0.229617 1.74651e-21)
(1.1884 0.214126 6.12325e-21)
(1.1821 0.201188 -2.17848e-21)
(0.213623 0.0295189 -1.87932e-20)
(0.655036 0.146113 -5.28408e-20)
(0.995399 0.272685 -5.89669e-20)
(1.1826 0.341865 -2.1624e-21)
(1.25553 0.364486 -8.57464e-21)
(1.26832 0.360359 -5.78486e-20)
(1.25787 0.344538 2.78891e-20)
(1.24185 0.32515 2.68308e-21)
(1.22651 0.305393 -1.68983e-20)
(1.21332 0.286233 -1.45642e-20)
(1.20228 0.267898 1.99988e-21)
(1.19311 0.25048 -7.79699e-21)
(1.18551 0.233844 -8.25116e-21)
(1.17921 0.217774 -1.13391e-20)
(1.17318 0.204418 6.60332e-21)
(0.23929 0.0415749 7.0454e-20)
(0.698436 0.177002 5.11689e-20)
(1.02832 0.305831 2.14462e-20)
(1.19717 0.369363 -2.98154e-20)
(1.25588 0.385056 1.36272e-20)
(1.26095 0.375648 3.07356e-20)
(1.24739 0.356396 -2.31773e-20)
(1.23054 0.334765 -4.37078e-20)
(1.21522 0.31339 -2.77703e-21)
(1.2023 0.292952 2.39135e-20)
(1.1916 0.273572 -2.67538e-20)
(1.18279 0.25528 1.1194e-20)
(1.17558 0.237863 5.0786e-21)
(1.16965 0.22119 1.15842e-21)
(1.16391 0.207411 -1.00682e-22)
(0.264543 0.055513 -8.5667e-20)
(0.737452 0.209658 -5.36089e-20)
(1.05494 0.339174 -8.32378e-20)
(1.20611 0.396301 7.2264e-20)
(1.2523 0.404985 -7.4219e-20)
(1.25113 0.39048 -1.70192e-20)
(1.23539 0.367957 -1.26471e-21)
(1.21819 0.34415 1.31255e-21)
(1.20313 0.321168 3.10576e-20)
(1.19062 0.299449 -3.18278e-20)
(1.18036 0.279018 2.52876e-20)
(1.17199 0.259846 9.17965e-21)
(1.16524 0.241645 2.09617e-20)
(1.15973 0.224372 1.26998e-25)
(1.15416 0.210149 -5.47405e-21)
(0.288924 0.0712259 1.21098e-20)
(0.771615 0.24363 1.55171e-20)
(1.07536 0.372386 -2.82204e-20)
(1.20982 0.422509 -1.08959e-19)
(1.24514 0.424191 -2.63715e-20)
(1.23909 0.404798 6.70221e-20)
(1.22198 0.379155 -5.0298e-20)
(1.20482 0.353233 -2.31081e-20)
(1.19023 0.328658 7.01066e-21)
(1.17827 0.305661 -6.13325e-21)
(1.16856 0.284183 -3.34696e-20)
(1.16071 0.26413 -1.56727e-20)
(1.1545 0.245159 -3.00952e-21)
(1.14946 0.227373 4.29271e-21)
(1.14389 0.212615 2.9973e-21)
(0.311992 0.0885575 1.6443e-19)
(0.800597 0.278456 -2.04154e-19)
(1.08974 0.405148 1.36588e-19)
(1.20864 0.447818 6.87161e-20)
(1.23473 0.442584 1.8861e-19)
(1.22502 0.418529 4.01863e-21)
(1.20722 0.389911 4.38225e-20)
(1.19046 0.361933 1.16533e-20)
(1.17654 0.335786 -6.64508e-20)
(1.16527 0.311525 2.31694e-20)
(1.1562 0.289013 1.74268e-20)
(1.14896 0.268082 1.97282e-20)
(1.14338 0.24836 -1.6399e-20)
(1.13881 0.230218 -2.27193e-21)
(1.13344 0.214829 6.60798e-22)
(0.333331 0.107307 -2.19187e-20)
(0.82419 0.313679 2.37807e-19)
(1.0983 0.437149 1.76362e-19)
(1.20295 0.472061 2.84272e-20)
(1.22137 0.460065 -1.75119e-19)
(1.20909 0.431586 -1.01006e-19)
(1.19119 0.400137 2.95842e-20)
(1.17513 0.370163 -1.5873e-20)
(1.16206 0.342473 3.63316e-20)
(1.15161 0.316971 7.58201e-21)
(1.14331 0.293453 7.44343e-21)
(1.13677 0.271659 -9.83598e-21)
(1.13188 0.251221 3.2616e-21)
(1.12777 0.232748 7.79741e-21)
(1.12292 0.216766 8.74329e-22)
(0.352568 0.127233 1.84093e-19)
(0.842293 0.348852 -1.96105e-19)
(1.10128 0.46809 -2.94381e-19)
(1.19308 0.495069 2.05861e-20)
(1.2053 0.476527 1.38317e-19)
(1.1914 0.443875 1.24634e-19)
(1.17392 0.409734 5.65789e-20)
(1.15887 0.377831 5.82982e-21)
(1.14683 0.348641 5.63923e-21)
(1.13734 0.321934 -2.18044e-22)
(1.12989 0.297438 1.34089e-20)
(1.12416 0.274818 5.10525e-22)
(1.12 0.253727 -3.5844e-21)
(1.11639 0.234931 -2.98674e-21)
(1.11221 0.21835 -2.68232e-21)
(0.369381 0.148065 -2.37649e-19)
(0.854894 0.383539 1.80482e-19)
(1.09896 0.497679 1.53606e-19)
(1.17935 0.516673 -9.93786e-20)
(1.18675 0.491854 -1.92869e-19)
(1.17208 0.455288 -3.73293e-20)
(1.1555 0.418595 -7.94105e-20)
(1.14173 0.384844 3.04066e-20)
(1.13089 0.354208 -5.67134e-21)
(1.12247 0.326352 -1.19942e-20)
(1.11597 0.30092 -4.76628e-21)
(1.11113 0.277513 -3.85855e-21)
(1.10774 0.255825 -5.5036e-21)
(1.10473 0.236714 3.14007e-21)
(1.10132 0.219557 -4.25264e-21)
(0.383502 0.169506 3.37372e-19)
(0.86206 0.417323 -2.1407e-19)
(1.09166 0.525642 1.09971e-19)
(1.16208 0.53671 9.854e-20)
(1.16589 0.505925 1.63001e-19)
(1.15124 0.465702 -8.92932e-20)
(1.13605 0.426618 2.89551e-20)
(1.12374 0.391106 2.50782e-20)
(1.11424 0.359111 -1.49551e-20)
(1.10701 0.330155 1.79665e-21)
(1.10158 0.303839 3.78974e-21)
(1.0977 0.279702 -3.1133e-21)
(1.09515 0.257474 5.37154e-21)
(1.09281 0.238067 -1.07404e-20)
(1.09023 0.220358 2.75782e-20)
(0.394725 0.191242 -1.87032e-19)
(0.863925 0.449805 1.20571e-20)
(1.07968 0.551719 7.14824e-20)
(1.14155 0.555026 -1.45894e-19)
(1.14292 0.518605 5.27267e-20)
(1.1291 0.475007 1.42276e-20)
(1.11558 0.433684 -3.47731e-20)
(1.10491 0.396546 -1.25642e-20)
(1.09691 0.363258 7.86288e-21)
(1.09101 0.33328 8.67843e-22)
(1.08675 0.306144 -1.01907e-20)
(1.08391 0.281339 -2.39025e-20)
(1.08224 0.258633 -7.17214e-21)
(1.08065 0.238951 3.21594e-20)
(1.07899 0.220746 9.40636e-21)
(0.402905 0.212949 3.49279e-20)
(0.860681 0.480606 -1.88011e-19)
(1.06338 0.575668 -2.34214e-19)
(1.11806 0.571475 1.67236e-19)
(1.11812 0.529767 -8.23294e-20)
(1.10571 0.48307 4.39615e-20)
(1.0941 0.43971 1.65763e-20)
(1.08531 0.40105 2.10617e-21)
(1.07897 0.366576 2.7637e-21)
(1.07451 0.335662 -6.93871e-21)
(1.07152 0.307781 1.0527e-20)
(1.06979 0.282385 1.93378e-20)
(1.06907 0.259265 -1.00439e-20)
(1.06827 0.239336 -8.41994e-21)
(1.06761 0.220706 -4.92726e-20)
(0.407958 0.234298 1.39161e-19)
(0.852578 0.509372 3.49197e-19)
(1.0431 0.597257 -5.62931e-20)
(1.0919 0.585875 -1.04166e-19)
(1.09166 0.539316 1.40963e-19)
(1.08109 0.489772 3.52643e-20)
(1.07173 0.444577 -5.38005e-21)
(1.065 0.40454 -7.43977e-21)
(1.06046 0.368991 -9.75423e-22)
(1.05757 0.337239 2.51927e-20)
(1.05593 0.308701 -1.63295e-20)
(1.0554 0.282796 -5.57875e-21)
(1.05566 0.259332 3.88798e-20)
(1.05572 0.239189 1.37745e-20)
(1.05614 0.220223 4.40688e-20)
(0.409872 0.254968 -6.21311e-20)
(0.83995 0.535797 1.27823e-19)
(1.01913 0.616245 1.06655e-19)
(1.06333 0.598076 -5.01965e-20)
(1.06368 0.547102 -2.95947e-20)
(1.05542 0.495025 -1.60957e-20)
(1.04856 0.448193 -1.69589e-20)
(1.04406 0.40693 5.20516e-21)
(1.04146 0.370435 1.29344e-20)
(1.04023 0.337955 -3.46311e-20)
(1.04005 0.308855 4.08199e-20)
(1.04077 0.282534 -2.29437e-20)
(1.04206 0.258799 -5.72279e-20)
(1.04302 0.238471 7.5418e-20)
(1.04459 0.219274 -5.44183e-20)
(0.408717 0.274633 -1.19757e-19)
(0.8232 0.559673 -4.27182e-19)
(0.991643 0.632357 1.33512e-20)
(1.03264 0.607919 -5.12879e-20)
(1.03436 0.553007 -6.04577e-20)
(1.02883 0.49872 1.64513e-20)
(1.02469 0.450464 2.42008e-20)
(1.02258 0.408144 -2.36606e-20)
(1.02202 0.370845 -2.65951e-20)
(1.02257 0.337756 4.8495e-20)
(1.02393 0.3082 -2.29503e-20)
(1.02596 0.281563 -1.26993e-20)
(1.02831 0.257632 -5.0436e-21)
(1.03021 0.237142 -2.11762e-20)
(1.03299 0.21784 1.88408e-20)
(0.404635 0.292942 1.11689e-20)
(0.802636 0.580834 2.20647e-19)
(0.960977 0.645454 8.20571e-20)
(1.00015 0.615185 3.3562e-20)
(1.0039 0.556928 9.59516e-21)
(1.00144 0.500764 -2.69561e-20)
(1.00021 0.451309 -2.77244e-20)
(1.00063 0.408114 5.8204e-20)
(1.00224 0.370161 1.06037e-19)
(1.00465 0.336592 -1.09633e-19)
(1.00763 0.306695 -1.45621e-20)
(1.01103 0.279853 1.17845e-20)
(1.01446 0.255804 9.14314e-20)
(1.01733 0.235166 2.88255e-20)
(1.02138 0.21591 -8.30702e-20)
(0.39777 0.309539 6.58292e-20)
(0.778259 0.598816 -2.07942e-19)
(0.927872 0.655683 -2.34461e-20)
(0.966189 0.619754 -2.2472e-20)
(0.9725 0.558747 2.15829e-20)
(0.973393 0.501069 -1.54003e-20)
(0.975254 0.450652 1.04522e-20)
(0.978308 0.406775 -7.9055e-20)
(0.982176 0.368331 -5.75509e-20)
(0.986544 0.334418 7.83041e-20)
(0.991219 0.304304 -5.70671e-20)
(0.996017 0.277376 7.85705e-20)
(1.00056 0.253297 -7.44281e-20)
(1.0045 0.232523 2.17707e-20)
(1.01 0.213468 8.08677e-20)
(0.388186 0.324247 -1.56719e-19)
(0.750296 0.613136 2.22181e-19)
(0.892748 0.662805 -4.78613e-21)
(0.930987 0.62168 1.61285e-20)
(0.940348 0.558388 -4.48092e-20)
(0.944838 0.499555 1.71166e-20)
(0.949922 0.44843 7.30167e-20)
(0.955718 0.404074 9.76265e-20)
(0.961931 0.365308 -2.01422e-19)
(0.968324 0.331194 5.88839e-20)
(0.974747 0.300988 1.63127e-20)
(0.98098 0.274094 -1.08136e-19)
(0.986698 0.250079 8.60259e-20)
(0.991984 0.229209 -2.95207e-20)
(0.999225 0.210529 3.76509e-20)
(0.376031 0.336864 1.79422e-19)
(0.719499 0.623809 -1.23786e-19)
(0.855851 0.666577 1.12825e-20)
(0.894805 0.620888 -4.22686e-22)
(0.907638 0.555784 -3.85207e-21)
(0.91592 0.496157 7.24185e-20)
(0.92434 0.444587 -9.86869e-20)
(0.932963 0.399965 8.46357e-20)
(0.941589 0.361055 1.22383e-19)
(0.950063 0.326887 -1.71835e-19)
(0.958267 0.296714 5.32963e-20)
(0.965955 0.269949 -2.76808e-20)
(0.972997 0.246052 -6.71295e-21)
(0.980043 0.22513 -9.0637e-20)
(0.989126 0.207297 -4.77271e-20)
(0.361504 0.347117 -4.71631e-20)
(0.686335 0.630679 4.45071e-20)
(0.817508 0.666884 3.13269e-20)
(0.857903 0.617316 1.34737e-20)
(0.874565 0.550884 1.12219e-19)
(0.886793 0.49082 -1.05883e-19)
(0.898637 0.439079 1.40102e-19)
(0.910152 0.394412 -1.11585e-19)
(0.921243 0.355542 1.29724e-19)
(0.931836 0.321477 1.46979e-19)