/*--------------------------------*- C++ -*----------------------------------*\
  =========                 |
  \\      /  F ield         | OpenFOAM: The Open Source CFD Toolbox
   \\    /   O peration     | Website:  https://openfoam.org
    \\  /    A nd           | Version:  7
     \\/     M anipulation  |
\*---------------------------------------------------------------------------*/
FoamFile
{
    version     2.0;
    format      ascii;
    class       volScalarField;
    location    "25";
    object      p;
}
// * * * * * * * * * * * * * * * * * * * * * * * * * * * * * * * * * * * * * //

dimensions      [0 2 -2 0 0 0 0];

internalField   nonuniform List<scalar> 
3500
(
-0.273115
-0.274831
-0.276622
-0.278318
-0.279653
-0.280351
-0.28087
-0.279056
-0.26906
-0.272493
-0.273902
-0.275565
-0.277319
-0.279014
-0.280419
-0.280822
-0.281988
-0.27912
-0.271104
-0.274125
-0.27536
-0.276899
-0.278555
-0.28019
-0.281891
-0.281267
-0.284344
-0.27888
-0.273909
-0.276347
-0.277288
-0.278594
-0.280063
-0.2814
-0.283955
-0.280932
-0.287933
-0.277535
-0.277238
-0.278957
-0.279446
-0.280358
-0.281561
-0.282187
-0.286235
-0.279536
-0.290892
-0.276043
-0.280889
-0.281777
-0.281624
-0.281921
-0.282734
-0.282572
-0.28709
-0.278072
-0.292718
-0.274763
-0.284748
-0.284707
-0.283705
-0.283171
-0.283228
-0.282594
-0.286744
-0.276505
-0.2905
-0.275327
-0.288838
-0.28774
-0.285698
-0.284125
-0.283225
-0.282138
-0.28452
-0.276225
-0.283664
-0.274431
-0.293364
-0.290975
-0.287775
-0.284985
-0.282955
-0.281254
-0.280731
-0.275389
-0.274512
-0.268181
-0.298655
-0.294694
-0.290199
-0.286038
-0.282728
-0.279788
-0.276325
-0.271147
-0.263885
-0.256821
-0.305075
-0.299279
-0.29332
-0.287601
-0.282653
-0.277655
-0.271282
-0.263704
-0.252195
-0.241953
-0.31308
-0.305112
-0.297415
-0.289806
-0.28263
-0.27474
-0.265103
-0.254121
-0.240767
-0.228407
-0.323142
-0.312521
-0.302618
-0.292728
-0.28246
-0.270844
-0.257698
-0.243845
-0.228832
-0.215366
-0.335664
-0.321638
-0.309115
-0.296286
-0.281784
-0.265822
-0.249301
-0.232844
-0.216716
-0.202905
-0.35091
-0.332188
-0.317149
-0.30003
-0.280103
-0.259567
-0.239819
-0.221319
-0.204415
-0.189983
-0.36885
-0.343834
-0.326202
-0.303022
-0.276905
-0.251866
-0.229278
-0.209109
-0.19153
-0.17659
-0.388252
-0.356643
-0.334523
-0.304005
-0.27167
-0.242534
-0.217483
-0.195999
-0.177918
-0.162374
-0.407075
-0.370415
-0.340239
-0.30185
-0.263917
-0.231276
-0.204216
-0.181752
-0.163271
-0.147348
-0.423142
-0.383431
-0.342261
-0.29588
-0.253187
-0.217774
-0.189192
-0.166084
-0.147465
-0.131515
-0.434798
-0.392777
-0.3397
-0.2857
-0.239104
-0.201684
-0.172122
-0.148755
-0.130301
-0.114832
-0.440931
-0.395806
-0.33138
-0.270917
-0.221352
-0.182706
-0.152757
-0.129573
-0.111617
-0.0968991
-0.440563
-0.390617
-0.316434
-0.251105
-0.199664
-0.160606
-0.13094
-0.108491
-0.0913251
-0.0771614
-0.432517
-0.376167
-0.294353
-0.225903
-0.173831
-0.135283
-0.106645
-0.0855535
-0.0694454
-0.0556429
-0.415394
-0.351951
-0.264816
-0.195105
-0.143826
-0.106857
-0.0800079
-0.0607882
-0.0457547
-0.0334009
-0.387838
-0.317846
-0.227588
-0.158845
-0.109926
-0.0756421
-0.0512485
-0.0340391
-0.0205133
-0.0104283
-0.348918
-0.273982
-0.182762
-0.117672
-0.0724894
-0.0416433
-0.0204279
-0.0056288
0.00577334
0.0130691
-0.298415
-0.220399
-0.131379
-0.071814
-0.0316926
-0.00525549
0.0121492
0.0239184
0.0324289
0.0363534
-0.236761
-0.156988
-0.074832
-0.0219691
0.0119184
0.0330772
0.0460706
0.0540151
0.0585853
0.0584233
-0.164496
-0.0859721
-0.0138306
0.0308664
0.0576304
0.0728391
0.0808819
0.0841987
0.0837456
0.0790227
-0.0821583
-0.0109546
0.0504943
0.0856841
0.104607
0.113372
0.116014
0.114193
0.108493
0.0999245
0.00677335
0.066781
0.116575
0.141376
0.151922
0.153868
0.150731
0.143593
0.133359
0.125787
0.0991594
0.145602
0.182738
0.196696
0.198578
0.193478
0.184336
0.172042
0.158457
0.150473
0.191636
0.2234
0.24728
0.250319
0.24352
0.23139
0.216407
0.199485
0.18298
0.172559
0.280851
0.297939
0.308509
0.300908
0.285672
0.266732
0.246238
0.225179
0.205888
0.192385
0.363566
0.367006
0.364784
0.347165
0.324039
0.298782
0.273279
0.248477
0.226358
0.209637
0.436949
0.428447
0.414518
0.387846
0.35764
0.326772
0.296904
0.268843
0.244057
0.224242
0.498855
0.480086
0.456224
0.421844
0.385634
0.350037
0.316524
0.285727
0.258595
0.236024
0.547262
0.520247
0.488634
0.448209
0.407298
0.36802
0.33169
0.298759
0.269726
0.24488
0.580504
0.547708
0.510783
0.466205
0.422064
0.380264
0.342014
0.307621
0.277254
0.250772
0.47533
0.429545
0.386465
0.34724
0.312106
0.281049
0.253707
-0.278383
-0.277706
-0.276937
-0.276091
-0.275172
-0.274192
-0.273156
-0.272072
-0.270943
-0.269775
-0.26857
-0.267331
-0.266057
-0.264751
-0.263411
-0.262038
-0.260631
-0.259187
-0.257705
-0.256182
-0.254615
-0.253
-0.251333
-0.249608
-0.247819
-0.245958
-0.244015
-0.241987
-0.239868
-0.278847
-0.278136
-0.277324
-0.276449
-0.275507
-0.274505
-0.273453
-0.272356
-0.271218
-0.270042
-0.268832
-0.267589
-0.266313
-0.265006
-0.263667
-0.262296
-0.260892
-0.259454
-0.25798
-0.25647
-0.254917
-0.253317
-0.251664
-0.249951
-0.248172
-0.24633
-0.24442
-0.242428
-0.240343
-0.279705
-0.278832
-0.277929
-0.277018
-0.276048
-0.275022
-0.273949
-0.272836
-0.271685
-0.270501
-0.269286
-0.26804
-0.266766
-0.265462
-0.264129
-0.262766
-0.261373
-0.259946
-0.258482
-0.256977
-0.255428
-0.253831
-0.252212
-0.250544
-0.248818
-0.24702
-0.245144
-0.243187
-0.241143
-0.281516
-0.279577
-0.278554
-0.2776
-0.276592
-0.275549
-0.274469
-0.273353
-0.272202
-0.271017
-0.2698
-0.268553
-0.267277
-0.265972
-0.264637
-0.263272
-0.261872
-0.260434
-0.259001
-0.257539
-0.256042
-0.254503
-0.252889
-0.251229
-0.249518
-0.247749
-0.245914
-0.244005
-0.242012
-0.239925
-0.280383
-0.280204
-0.279067
-0.277976
-0.276956
-0.275914
-0.274837
-0.273731
-0.272594
-0.271425
-0.270227
-0.269
-0.267745
-0.266462
-0.26515
-0.263811
-0.262459
-0.26107
-0.259614
-0.258126
-0.256609
-0.25506
-0.253472
-0.251839
-0.250156
-0.248416
-0.246611
-0.244734
-0.242777
-0.240732
-0.277367
-0.278385
-0.278232
-0.277584
-0.276722
-0.275767
-0.274774
-0.273735
-0.272637
-0.271488
-0.270304
-0.269088
-0.267839
-0.266557
-0.265241
-0.263899
-0.262527
-0.261134
-0.259717
-0.258271
-0.25679
-0.255271
-0.253708
-0.252099
-0.250439
-0.248723
-0.246946
-0.245098
-0.243173
-0.241162
-0.273815
-0.274602
-0.275491
-0.275597
-0.275043
-0.274311
-0.273589
-0.272794
-0.27186
-0.270827
-0.269745
-0.268625
-0.267461
-0.266248
-0.264978
-0.263639
-0.262262
-0.260911
-0.259536
-0.258113
-0.256642
-0.255126
-0.253565
-0.251958
-0.250301
-0.248592
-0.246823
-0.244987
-0.243076
-0.241081
-0.238995
-0.270513
-0.270213
-0.271656
-0.27207
-0.271508
-0.270966
-0.270627
-0.270163
-0.269446
-0.268573
-0.26763
-0.266625
-0.265552
-0.264414
-0.263216
-0.261951
-0.260606
-0.259205
-0.257873
-0.25657
-0.255221
-0.253801
-0.25231
-0.250754
-0.24914
-0.247469
-0.245737
-0.243936
-0.242058
-0.240096
-0.238044
-0.235893
-0.264555
-0.264674
-0.266682
-0.266754
-0.265938
-0.265702
-0.265853
-0.265799
-0.265444
-0.26493
-0.264324
-0.263612
-0.262791
-0.261876
-0.260877
-0.259792
-0.25861
-0.257298
-0.255827
-0.25434
-0.253021
-0.251687
-0.250276
-0.24878
-0.247209
-0.245576
-0.24388
-0.242108
-0.240255
-0.238317
-0.23629
-0.234168
-0.256287
-0.258463
-0.260115
-0.259153
-0.25811
-0.258072
-0.258369
-0.258468
-0.258371
-0.258171
-0.257873
-0.257461
-0.256939
-0.256316
-0.255596
-0.254781
-0.253875
-0.252885
-0.251798
-0.25055
-0.249077
-0.247713
-0.246423
-0.245062
-0.243624
-0.242131
-0.240572
-0.238927
-0.237189
-0.235359
-0.233435
-0.231413
-0.229287
-0.243397
-0.250596
-0.251654
-0.250265
-0.249198
-0.249036
-0.249355
-0.249721
-0.249961
-0.25005
-0.250009
-0.249859
-0.24961
-0.249263
-0.248815
-0.248266
-0.247619
-0.246873
-0.24603
-0.245084
-0.244017
-0.242777
-0.241389
-0.239917
-0.238463
-0.237008
-0.235502
-0.233912
-0.232229
-0.230454
-0.228584
-0.226614
-0.224539
-0.224192
-0.233693
-0.236816
-0.236275
-0.235283
-0.235111
-0.235661
-0.236432
-0.237074
-0.237486
-0.237701
-0.237778
-0.237745
-0.237607
-0.237354
-0.23698
-0.23648
-0.235854
-0.235101
-0.234224
-0.233239
-0.23219
-0.231145
-0.230142
-0.229061
-0.227831
-0.226464
-0.224989
-0.223417
-0.221748
-0.219977
-0.218098
-0.21611
-0.20698
-0.217171
-0.221418
-0.221847
-0.22143
-0.221612
-0.222479
-0.22359
-0.224571
-0.22529
-0.225779
-0.226105
-0.226312
-0.22641
-0.226393
-0.226254
-0.225994
-0.225621
-0.225145
-0.224581
-0.223938
-0.223215
-0.22239
-0.221422
-0.220299
-0.219078
-0.217783
-0.216406
-0.214935
-0.213364
-0.211688
-0.209905
-0.208014
-0.192314
-0.201978
-0.206699
-0.207971
-0.208255
-0.208891
-0.210058
-0.211421
-0.212655
-0.21363
-0.214364
-0.21492
-0.215345
-0.215652
-0.21584
-0.215904
-0.215844
-0.215665
-0.215371
-0.214963
-0.214437
-0.213789
-0.213024
-0.212158
-0.211214
-0.210182
-0.209045
-0.2078
-0.206449
-0.204993
-0.203431
-0.201763
-0.199986
-0.178963
-0.188061
-0.193015
-0.194919
-0.195814
-0.196879
-0.198321
-0.199896
-0.201338
-0.202532
-0.203487
-0.204255
-0.204879
-0.205376
-0.205745
-0.205985
-0.206094
-0.206074
-0.205929
-0.205661
-0.205274
-0.204773
-0.204166
-0.203464
-0.202663
-0.201755
-0.200736
-0.199606
-0.198368
-0.197024
-0.195574
-0.194019
-0.192357
-0.166983
-0.175556
-0.180567
-0.18289
-0.184251
-0.185669
-0.187351
-0.18911
-0.190728
-0.192107
-0.193253
-0.194208
-0.195009
-0.195674
-0.196204
-0.196598
-0.196858
-0.196984
-0.196983
-0.196858
-0.196616
-0.196259
-0.195793
-0.195218
-0.194532
-0.193735
-0.192827
-0.191809
-0.190685
-0.189456
-0.188121
-0.18668
-0.185135
-0.156471
-0.164417
-0.169343
-0.171932
-0.173633
-0.175325
-0.177199
-0.179105
-0.180863
-0.182392
-0.183693
-0.184804
-0.185756
-0.186565
-0.187236
-0.187767
-0.188161
-0.188421
-0.188552
-0.188558
-0.188444
-0.188212
-0.187864
-0.187402
-0.186826
-0.186139
-0.185343
-0.18444
-0.183429
-0.182313
-0.181091
-0.179765
-0.178335
-0.147154
-0.15447
-0.159246
-0.161996
-0.163939
-0.165833
-0.167848
-0.169863
-0.171727
-0.17337
-0.174795
-0.176033
-0.17711
-0.178042
-0.178833
-0.179483
-0.179996
-0.180374
-0.180622
-0.180744
-0.180743
-0.180621
-0.180382
-0.180028
-0.179561
-0.178982
-0.178296
-0.177501
-0.176599
-0.175592
-0.17448
-0.173265
-0.171948
-0.138843
-0.145592
-0.150184
-0.153019
-0.155125
-0.157157
-0.159268
-0.161357
-0.163296
-0.165024
-0.166544
-0.167881
-0.169061
-0.170095
-0.170987
-0.171739
-0.172354
-0.172835
-0.173185
-0.173409
-0.173509
-0.17349
-0.173352
-0.173099
-0.172734
-0.172257
-0.171673
-0.170981
-0.170182
-0.169279
-0.168273
-0.167165
-0.165957
-0.131457
-0.137678
-0.142063
-0.144924
-0.147134
-0.149255
-0.151425
-0.153557
-0.155543
-0.15733
-0.158919
-0.160334
-0.161593
-0.162709
-0.163685
-0.164522
-0.165224
-0.165793
-0.166232
-0.166546
-0.166738
-0.16681
-0.166766
-0.166607
-0.166336
-0.165955
-0.165464
-0.164867
-0.164166
-0.163362
-0.162456
-0.16145
-0.160346
-0.124891
-0.130615
-0.134782
-0.137631
-0.1399
-0.142074
-0.144272
-0.146424
-0.148434
-0.150258
-0.151895
-0.153366
-0.154686
-0.155867
-0.15691
-0.157817
-0.158592
-0.159235
-0.159752
-0.160145
-0.160417
-0.160572
-0.160611
-0.160536
-0.160351
-0.160056
-0.159654
-0.159148
-0.158538
-0.157827
-0.157016
-0.156107
-0.155102
-0.119033
-0.124301
-0.128251
-0.131063
-0.133361
-0.135559
-0.137764
-0.139915
-0.141932
-0.143774
-0.145442
-0.146951
-0.148317
-0.149546
-0.150642
-0.151606
-0.152441
-0.153148
-0.15373
-0.154192
-0.154535
-0.154762
-0.154875
-0.154877
-0.154769
-0.154555
-0.154235
-0.153811
-0.153287
-0.152663
-0.151941
-0.151123
-0.15021
-0.113798
-0.118655
-0.122395
-0.125153
-0.127455
-0.129658
-0.131852
-0.133989
-0.135998
-0.137845
-0.139529
-0.141063
-0.14246
-0.143725
-0.144861
-0.14587
-0.146754
-0.147513
-0.148151
-0.148672
-0.149076
-0.149367
-0.149547
-0.149617
-0.14958
-0.149438
-0.149192
-0.148846
-0.1484
-0.147856
-0.147217
-0.146484
-0.145658
-0.109122
-0.113605
-0.117144
-0.119838
-0.122128
-0.12432
-0.126493
-0.128605
-0.130596
-0.132436
-0.134125
-0.135672
-0.137088
-0.138379
-0.139545
-0.140589
-0.141511
-0.142314
-0.142999
-0.143569
-0.144027
-0.144373
-0.144611
-0.144743
-0.144769
-0.144693
-0.144515
-0.144239
-0.143865
-0.143396
-0.142833
-0.142178
-0.141433
-0.104944
-0.109089
-0.112437
-0.115061
-0.117329
-0.119499
-0.121642
-0.123722
-0.125688
-0.127514
-0.129198
-0.13075
-0.132177
-0.133484
-0.134672
-0.135741
-0.136694
-0.137532
-0.138255
-0.138868
-0.139371
-0.139766
-0.140056
-0.140241
-0.140324
-0.140307
-0.140191
-0.139977
-0.139669
-0.139268
-0.138776
-0.138193
-0.137523
-0.10121
-0.10505
-0.108221
-0.110772
-0.11301
-0.115153
-0.11726
-0.119304
-0.12124
-0.123046
-0.12472
-0.126269
-0.1277
-0.129015
-0.130218
-0.131306
-0.132283
-0.133148
-0.133904
-0.134551
-0.135093
-0.13553
-0.135865
-0.136098
-0.136231
-0.136266
-0.136205
-0.13605
-0.135802
-0.135462
-0.135034
-0.134517
-0.133915
-0.0978751
-0.101441
-0.104449
-0.106928
-0.109131
-0.111242
-0.113312
-0.115316
-0.117219
-0.119002
-0.120661
-0.122202
-0.123631
-0.124951
-0.126162
-0.127264
-0.128258
-0.129145
-0.129926
-0.130603
-0.131178
-0.131651
-0.132024
-0.132299
-0.132477
-0.132559
-0.132548
-0.132444
-0.132249
-0.131966
-0.131596
-0.13114
-0.1306
-0.0949027
-0.0982238
-0.101081
-0.10349
-0.105657
-0.107734
-0.109764
-0.111729
-0.113598
-0.115354
-0.116995
-0.118525
-0.119949
-0.121268
-0.122483
-0.123593
-0.1246
-0.125504
-0.126307
-0.127008
-0.12761
-0.128114
-0.128521
-0.128832
-0.129049
-0.129173
-0.129205
-0.129148
-0.129002
-0.128769
-0.128451
-0.12805
-0.127566
-0.0922597
-0.095362
-0.098082
-0.100424
-0.102554
-0.104596
-0.106588
-0.108514
-0.110348
-0.112077
-0.113699
-0.115216
-0.116631
-0.117946
-0.119162
-0.120277
-0.121293
-0.12221
-0.123029
-0.12375
-0.124375
-0.124905
-0.125341
-0.125684
-0.125935
-0.126095
-0.126166
-0.12615
-0.126047
-0.12586
-0.125589
-0.125237
-0.124804
-0.0899179
-0.0928259
-0.0954218
-0.097701
-0.0997946
-0.101803
-0.103758
-0.105646
-0.107447
-0.109149
-0.11075
-0.112252
-0.113657
-0.114966
-0.11618
-0.117298
-0.11832
-0.119246
-0.120078
-0.120815
-0.12146
-0.122011
-0.122472
-0.122842
-0.123123
-0.123315
-0.123421
-0.12344
-0.123376
-0.123229
-0.123
-0.122692
-0.122305
-0.0878535
-0.0905899
-0.0930745
-0.0952958
-0.0973548
-0.0993313
-0.10125
-0.103102
-0.104872
-0.106548
-0.108128
-0.109615
-0.111009
-0.112311
-0.113521
-0.114639
-0.115665
-0.116598
-0.11744
-0.11819
-0.11885
-0.119421
-0.119902
-0.120296
-0.120602
-0.120822
-0.120958
-0.12101
-0.120979
-0.120867
-0.120676
-0.120406
-0.12006
-0.119638
-0.086046
-0.0886319
-0.0910176
-0.0931864
-0.0952131
-0.0971594
-0.0990455
-0.100865
-0.102604
-0.104256
-0.105817
-0.107288
-0.108671
-0.109965
-0.111171
-0.112287
-0.113314
-0.114253
-0.115102
-0.115863
-0.116536
-0.117122
-0.117621
-0.118034
-0.118362
-0.118607
-0.118768
-0.118848
-0.118846
-0.118766
-0.118607
-0.118372
-0.118061
-0.117676
-0.0844779
-0.0869332
-0.0892321
-0.0913539
-0.0933511
-0.0952699
-0.0971262
-0.0989154
-0.100628
-0.102256
-0.103799
-0.105256
-0.106628
-0.107914
-0.109114
-0.110228
-0.111256
-0.112198
-0.113053
-0.113822
-0.114505
-0.115104
-0.115618
-0.116048
-0.116395
-0.11666
-0.116843
-0.116947
-0.116971
-0.116917
-0.116787
-0.116581
-0.116302
-0.11595
-0.0831346
-0.085478
-0.0877018
-0.0897822
-0.0917532
-0.0936474
-0.0954772
-0.0972399
-0.098928
-0.100536
-0.102062
-0.103506
-0.104867
-0.106145
-0.10734
-0.108452
-0.109479
-0.110423
-0.111282
-0.112058
-0.11275
-0.113358
-0.113885
-0.114329
-0.114691
-0.114974
-0.115176
-0.1153
-0.115346
-0.115315
-0.115209
-0.115029
-0.114776
-0.114452
-0.0820036
-0.0842528
-0.0864129
-0.0884579
-0.0904061
-0.092279
-0.094086
-0.0958256
-0.0974927
-0.099083
-0.100594
-0.102026
-0.103377
-0.104649
-0.105839
-0.106947
-0.107974
-0.108918
-0.109781
-0.110561
-0.11126
-0.111877
-0.112413
-0.112869
-0.113245
-0.113541
-0.113759
-0.1139
-0.113964
-0.113953
-0.113868
-0.113709
-0.113479
-0.113178
-0.0810745
-0.0832464
-0.0853539
-0.0873696
-0.0892988
-0.0911539
-0.0929418
-0.0946622
-0.0963116
-0.0978868
-0.0993856
-0.100807
-0.10215
-0.103415
-0.1046
-0.105706
-0.106732
-0.107677
-0.108541
-0.109326
-0.11003
-0.110653
-0.111198
-0.111662
-0.112049
-0.112357
-0.112588
-0.112742
-0.112821
-0.112826
-0.112757
-0.112616
-0.112404
-0.112123
-0.0803393
-0.08245
-0.0845158
-0.086508
-0.088422
-0.090263
-0.0920357
-0.0937407
-0.095376
-0.096939
-0.0984277
-0.0998408
-0.101177
-0.102437
-0.103618
-0.104721
-0.105746
-0.106691
-0.107558
-0.108345
-0.109052
-0.109681
-0.110232
-0.110704
-0.111098
-0.111415
-0.111656
-0.111822
-0.111912
-0.111929
-0.111874
-0.111747
-0.11155
-0.111283
-0.0797923
-0.0818581
-0.0838931
-0.085868
-0.0877705
-0.0896008
-0.0913619
-0.0930552
-0.0946798
-0.0962337
-0.0977147
-0.0991213
-0.100453
-0.101708
-0.102886
-0.103988
-0.105011
-0.105957
-0.106824
-0.107613
-0.108323
-0.108956
-0.109511
-0.109988
-0.110389
-0.110713
-0.110961
-0.111134
-0.111234
-0.11126
-0.111214
-0.111098
-0.110911
-0.110656
-0.0794246
-0.0814627
-0.0834792
-0.0854437
-0.0873395
-0.0891629
-0.0909163
-0.0926019
-0.0942193
-0.0957669
-0.0972427
-0.098645
-0.0999727
-0.101225
-0.102401
-0.103501
-0.104524
-0.105469
-0.106337
-0.107127
-0.10784
-0.108475
-0.109032
-0.109513
-0.109917
-0.110246
-0.110499
-0.110678
-0.110783
-0.110815
-0.110776
-0.110666
-0.110487
-0.11024
-0.0792257
-0.081251
-0.0832608
-0.0852232
-0.0871178
-0.0889394
-0.0906902
-0.0923726
-0.0939871
-0.0955321
-0.0970056
-0.0984061
-0.0997323
-0.100983
-0.102159
-0.103258
-0.104281
-0.105226
-0.106094
-0.106885
-0.107598
-0.108234
-0.108794
-0.109276
-0.109682
-0.110013
-0.110269
-0.11045
-0.110558
-0.110593
-0.110557
-0.110451
-0.110275
-0.110032
-0.230318
-0.211054
-0.193149
-0.179812
-0.167706
-0.156551
-0.146935
-0.13852
-0.130972
-0.124253
-0.118303
-0.112998
-0.108252
-0.10401
-0.100219
-0.0968301
-0.0938016
-0.0911
-0.0886961
-0.0865648
-0.0846845
-0.0830367
-0.0816059
-0.0803789
-0.0793444
-0.0784932
-0.0778177
-0.0773126
-0.076968
-0.076776
-0.216946
-0.199191
-0.181386
-0.1688
-0.158026
-0.14765
-0.138584
-0.130836
-0.123923
-0.117721
-0.112229
-0.107351
-0.102987
-0.0990793
-0.0955862
-0.0924623
-0.0896687
-0.0871742
-0.0849525
-0.0829806
-0.0812387
-0.0797101
-0.0783806
-0.0772381
-0.0762725
-0.0754752
-0.0748392
-0.0743594
-0.0740258
-0.0738341
-0.204849
-0.188819
-0.171438
-0.158754
-0.14874
-0.139238
-0.130696
-0.123454
-0.117107
-0.111399
-0.106317
-0.101814
-0.0977945
-0.0941934
-0.0909708
-0.0880884
-0.0855101
-0.0832063
-0.0811527
-0.0793285
-0.0777155
-0.0762985
-0.0750644
-0.0740022
-0.0731025
-0.0723576
-0.0717612
-0.0713082
-0.0709891
-0.0708048
-0.19198
-0.176883
-0.160785
-0.148651
-0.139328
-0.1308
-0.122954
-0.116196
-0.11035
-0.105125
-0.10045
-0.0962988
-0.0926015
-0.0892909
-0.0863254
-0.0836712
-0.0812965
-0.0791737
-0.0772801
-0.0755968
-0.0741073
-0.0727977
-0.0716559
-0.0706719
-0.0698373
-0.069145
-0.0685892
-0.0681653
-0.0678645
-0.0676922
-0.178688
-0.164962
-0.150492
-0.139006
-0.130062
-0.122245
-0.11511
-0.108867
-0.103481
-0.0987203
-0.09446
-0.0906642
-0.0872839
-0.0842614
-0.0815531
-0.0791273
-0.0769564
-0.0750153
-0.073283
-0.0717423
-0.0703783
-0.0691781
-0.0681311
-0.0672282
-0.0664616
-0.065825
-0.0653134
-0.0649225
-0.0646445
-0.0644885
-0.164969
-0.152281
-0.139303
-0.128808
-0.120509
-0.113445
-0.107089
-0.101453
-0.0965466
-0.0922323
-0.0883846
-0.0849477
-0.0818821
-0.0791427
-0.0766884
-0.0744886
-0.0725192
-0.070758
-0.0691859
-0.0677872
-0.0665484
-0.0654581
-0.0645066
-0.0636858
-0.0629888
-0.06241
-0.061945
-0.0615897
-0.0613379
-0.0612015
-0.1506
-0.13933
-0.128045
-0.118681
-0.111055
-0.10462
-0.0989371
-0.093898
-0.0894824
-0.0856057
-0.0821634
-0.0790882
-0.076341
-0.0738865
-0.0716887
-0.0697183
-0.0679539
-0.066376
-0.0649675
-0.0637142
-0.0626041
-0.0616271
-0.0607745
-0.0600391
-0.059415
-0.0588971
-0.0584819
-0.0581655
-0.0579433
-0.0578292
-0.135828
-0.126006
-0.116265
-0.108069
-0.10127
-0.095566
-0.0905896
-0.086187
-0.0823011
-0.0788753
-0.0758357
-0.0731194
-0.0706897
-0.0685205
-0.0665804
-0.0648414
-0.0632841
-0.0618915
-0.0606485
-0.0595426
-0.0585631
-0.0577012
-0.0569495
-0.0563016
-0.0557524
-0.0552977
-0.0549344
-0.0546592
-0.0544689
-0.054378
-0.120582
-0.112264
-0.10417
-0.0972672
-0.0913829
-0.0864173
-0.082103
-0.0783044
-0.0749467
-0.0719794
-0.069346
-0.0669911
-0.0648832
-0.0630064
-0.0613324
-0.0598331
-0.0584905
-0.0572897
-0.0562181
-0.0552646
-0.0544205
-0.053678
-0.0530309
-0.052474
-0.0520029
-0.0516142
-0.0513053
-0.0510738
-0.0509175
-0.0508492
-0.104908
-0.0980079
-0.0914806
-0.0859065
-0.0810391
-0.0769067
-0.0733123
-0.0701535
-0.0673571
-0.0648787
-0.062675
-0.060701
-0.0589326
-0.0573626
-0.0559659
-0.0547153
-0.0535949
-0.0525922
-0.051697
-0.0509005
-0.0501953
-0.0495754
-0.0490358
-0.0485722
-0.0481813
-0.0478604
-0.0476075
-0.0474211
-0.0472996
-0.047253
-0.0883632
-0.0832209
-0.0781522
-0.074044
-0.0702641
-0.0670355
-0.0641878
-0.0616869
-0.0594753
-0.0575173
-0.0557768
-0.0542221
-0.052836
-0.0515941
-0.0504888
-0.0494975
-0.0486078
-0.0478104
-0.0470975
-0.0464627
-0.0459006
-0.0454066
-0.0449772
-0.0446092
-0.0443003
-0.0440486
-0.0438531
-0.0437124
-0.0436243
-0.0436033
-0.0705475
-0.0679496
-0.0641432
-0.0616162
-0.0589073
-0.0566732
-0.0546524
-0.0528889
-0.0513281
-0.0499449
-0.0487096
-0.0476161
-0.046662
-0.0457597
-0.0449546
-0.0442281
-0.0435732
-0.042984
-0.0424556
-0.041984
-0.0415659
-0.0411986
-0.0408797
-0.0406076
-0.0403808
-0.0401983
-0.0400598
-0.0399641
-0.039908
-0.0399163
-0.0515771
-0.0519927
-0.0495246
-0.0485851
-0.0470704
-0.045915
-0.0448317
-0.043887
-0.0430412
-0.0422786
-0.0415837
-0.04096
-0.0404024
-0.0398635
-0.0393677
-0.038913
-0.0384973
-0.0381191
-0.0377771
-0.0374701
-0.0371972
-0.0369573
-0.0367497
-0.0365739
-0.0364293
-0.0363158
-0.0362338
-0.0361816
-0.0361598
-0.0361906
-0.0316611
-0.0347042
-0.0340928
-0.0347663
-0.0347534
-0.0348624
-0.0348742
-0.0348437
-0.0347648
-0.0346453
-0.034496
-0.0343331
-0.0341615
-0.0339731
-0.0337811
-0.0335929
-0.0334124
-0.0332425
-0.0330851
-0.0329417
-0.0328132
-0.0327004
-0.0326038
-0.0325239
-0.032461
-0.0324158
-0.0323888
-0.0323789
-0.0323903
-0.0324376
-0.0109205
-0.0164506
-0.0181508
-0.0207288
-0.0224533
-0.0239282
-0.0250532
-0.0259154
-0.0265661
-0.0270532
-0.0274175
-0.0276924
-0.0278979
-0.0280475
-0.0281556
-0.0282343
-0.0282917
-0.0283341
-0.0283658
-0.0283904
-0.0284106
-0.0284283
-0.0284454
-0.0284634
-0.0284834
-0.0285069
-0.0285346
-0.0285663
-0.0286082
-0.0286667
0.0101189
0.00194772
-0.00238353
-0.0068889
-0.0102334
-0.0129291
-0.0150407
-0.0167137
-0.0180523
-0.0191357
-0.0200246
-0.0207631
-0.0213816
-0.0219033
-0.0223458
-0.022724
-0.0230489
-0.0233293
-0.0235722
-0.0237831
-0.0239668
-0.0241271
-0.0242674
-0.0243903
-0.0244985
-0.0245939
-0.0246777
-0.0247514
-0.0248213
-0.0248857
0.0306569
0.0200605
0.01349
0.00758943
0.00303024
-0.000692403
-0.00374893
-0.00629445
-0.00843732
-0.0102568
-0.0118132
-0.0131522
-0.0143081
-0.015309
-0.0161771
-0.0169311
-0.0175867
-0.0181569
-0.0186528
-0.0190837
-0.0194577
-0.0197816
-0.0200612
-0.0203015
-0.0205067
-0.0206801
-0.0208241
-0.0209414
-0.0210371
-0.0211034
0.0507441
0.0393433
0.0315474
0.0246625
0.0188777
0.01388
0.0095504
0.00579675
0.00254177
-0.000281302
-0.00273097
-0.00485729
-0.00670314
-0.00830563
-0.00969666
-0.0109039
-0.0119513
-0.0128595
-0.0136462
-0.0143268
-0.0149142
-0.0154196
-0.0158522
-0.0162199
-0.0165292
-0.0167854
-0.0169923
-0.0171539
-0.0172734
-0.0173399
0.0716397
0.0613059
0.0522216
0.0437234
0.036074
0.0292825
0.0233122
0.0181013
0.013572
0.00964423
0.00624199
0.00329669
0.00074763
-0.00145839
-0.00336756
-0.00501981
-0.00644951
-0.00768611
-0.00875474
-0.00967676
-0.0104702
-0.0111504
-0.01173
-0.0122196
-0.0126279
-0.0129619
-0.0132271
-0.0134284
-0.0135674
-0.013635
0.0908793
0.0798059
0.0683305
0.0577444
0.0483921
0.0402446
0.0331773
0.0270586
0.0217654
0.0171872
0.0132263
0.00979764
0.0068277
0.00425341
0.00202082
8.38629e-05
-0.00159666
-0.00305407
-0.00431663
-0.00540823
-0.00634905
-0.007156
-0.00784325
-0.00842254
-0.00890347
-0.00929383
-0.00959993
-0.00982663
-0.00997565
-0.0100438
0.105705
0.0898208
0.0767118
0.0653036
0.0554657
0.0470073
0.0397118
0.0333976
0.0279201
0.0231612
0.019021
0.0154148
0.0122703
0.00952564
0.00712844
0.00503404
0.00320445
0.00160736
0.000215304
-0.000995019
-0.00204334
-0.00294629
-0.00371785
-0.00436968
-0.00491139
-0.00535084
-0.00569425
-0.00594606
-0.00610886
-0.00618585
0.117332
0.0991784
0.085357
0.0736908
0.0636035
0.0548673
0.0472951
0.0407133
0.0349749
0.0299604
0.0255711
0.0217236
0.0183473
0.015382
0.0127761
0.0104858
0.00847378
0.00670792
0.00516095
0.0038096
0.00263406
0.00161751
0.000745754
6.89527e-06
-0.000608968
-0.00110993
-0.00150237
-0.00179101
-0.00197965
-0.00207223
0.122838
0.106311
0.09253
0.0808342
0.0707141
0.0618916
0.054183
0.0474336
0.0415095
0.0362988
0.0317084
0.0276596
0.0240856
0.0209288
0.0181398
0.0156763
0.0135017
0.0115848
0.00989857
0.00842001
0.00712934
0.00600972
0.00504683
0.00422862
0.00354503
0.00298781
0.00255039
0.0022276
0.00201522
0.00190985
0.125416
0.110521
0.0975066
0.0862461
0.0764005
0.0677193
0.060048
0.0532658
0.0472646
0.0419483
0.0372339
0.0330503
0.029336
0.0260378
0.0231094
0.0205108
0.0182072
0.0161685
0.0143686
0.0127852
0.0113987
0.0101927
0.00915299
0.00826753
0.00752629
0.00692101
0.00644499
0.00609291
0.00586061
0.00574524
0.125593
0.112733
0.100907
0.0903103
0.0808831
0.0724801
0.0649793
0.0582833
0.0523065
0.0469706
0.0422058
0.0379504
0.03415
0.030757
0.0277295
0.0250305
0.0226277
0.020493
0.0186017
0.0169324
0.0154665
0.014188
0.0130832
0.0121402
0.0113494
0.0107026
0.010193
0.00981554
0.00956607
0.00944195
0.124808
0.113456
0.102802
0.0930429
0.0841984
0.0762043
0.0689858
0.0624753
0.0566107
0.0513327
0.0465858
0.0423189
0.0384859
0.0350453
0.03196
0.0291972
0.0267274
0.0245248
0.0225666
0.0208329
0.0193061
0.017971
0.0168147
0.0158259
0.0149951
0.0143145
0.0137776
0.0133794
0.013116
0.0129849
0.123062
0.113192
0.103706
0.0948234
0.0866191
0.0790966
0.0722274
0.0659713
0.0602852
0.0551264
0.0504527
0.0462239
0.0424022
0.0389531
0.0358448
0.0330485
0.0305384
0.0282914
0.0262868
0.0245064
0.022934
0.0215557
0.0203592
0.019334
0.0184712
0.0177632
0.017204
0.0167888
0.0165139
0.0163771
0.12098
0.112293
0.103822
0.0957813
0.0882463
0.0812431
0.074773
0.0688207
0.0633624
0.0583703
0.0538149
0.0496661
0.0458946
0.0424722
0.0393728
0.0365719
0.0340473
0.0317789
0.0297482
0.0279391
0.026337
0.0249292
0.0237043
0.0226527
0.0217662
0.0210378
0.0204618
0.0200336
0.01975
0.0196088
0.118539
0.110943
0.103421
0.0961763
0.0892913
0.0828117
0.0767596
0.0711384
0.0659394
0.0611475
0.0567435
0.0527066
0.049015
0.0456472
0.042582
0.0397997
0.0372815
0.0350103
0.0329704
0.0311474
0.0295285
0.0281024
0.0268589
0.0257894
0.0248862
0.024143
0.0235546
0.0231169
0.0228267
0.0226822
0.11605
0.109354
0.102648
0.0961208
0.0898515
0.0838873
0.0782595
0.0729836
0.0680631
0.0634934
0.0592646
0.0553639
0.0517763
0.048486
0.045477
0.0427335
0.0402406
0.0379839
0.0359501
0.0341272
0.032504
0.0310706
0.0298181
0.0287387
0.0278258
0.0270735
0.0264773
0.0260334
0.0257389
0.0255922
0.113493
0.1076
0.101634
0.0957647
0.0900667
0.0845914
0.0793767
0.0744463
0.0698117
0.0654763
0.0614377
0.0576895
0.0542228
0.051027
0.0480905
0.0454015
0.0429484
0.0407197
0.0387045
0.0368929
0.0352754
0.0338436
0.0325899
0.0315075
0.0305904
0.0298338
0.0292335
0.0287861
0.0284892
0.0283411
0.11102
0.105802
0.100473
0.0951851
0.0900082
0.0849909
0.0801722
0.0755796
0.0712303
0.0671338
0.0632935
0.0597084
0.0563745
0.0532858
0.0504348
0.047813
0.0454119
0.0432227
0.041237
0.0394466
0.0378439
0.0364219
0.0351741
0.0340948
0.0331791
0.0324225
0.0318216
0.0313734
0.0310758
0.0309273
0.108615
0.103991
0.0992292
0.0944653
0.089762
0.0851669
0.0807197
0.0764501
0.072379
0.0685196
0.0648796
0.0614626
0.0582684
0.0552948
0.0525378
0.0499922
0.047652
0.045511
0.0435629
0.0418014
0.0402205
0.0388146
0.0375785
0.0365074
0.0355971
0.0348442
0.0342455
0.0337986
0.0335017
0.0333535
0.106352
0.102232
0.0979591
0.0936548
0.0893762
0.0851669
0.081065
0.0771004
0.0732957
0.0696671
0.0662253
0.0629771
0.0599258
0.057072
0.0544148
0.0519516
0.049679
0.0475929
0.045689
0.0439627
0.0424096
0.0410253
0.0398057
0.0387471
0.0378462
0.0371
0.0365061
0.0360624
0.0357675
0.0356203
0.104216
0.100535
0.0966943
0.0927994
0.088902
0.0850428
0.0812579
0.0775774
0.0740245
0.0706169
0.0673675
0.0642854
0.0613765
0.058644
0.0560892
0.0537121
0.0515111
0.0494844
0.0476291
0.0459425
0.0444213
0.0430626
0.0418633
0.0408205
0.0399318
0.0391948
0.0386076
0.0381686
0.0378766
0.0377308
0.10224
0.0989339
0.095466
0.0919293
0.0883704
0.0848264
0.0813309
0.0779127
0.074595
0.0713963
0.068331
0.0654097
0.0626404
0.0600281
0.0575763
0.0552867
0.0531597
0.0511951
0.0493916
0.0477478
0.0462618
0.0449317
0.0437555
0.0427313
0.041857
0.0411312
0.0405524
0.0401193
0.0398311
0.0396872
0.100411
0.09743
0.0942893
0.0910692
0.0878115
0.0845503
0.081317
0.0781388
0.0750386
0.0720352
0.0691437
0.0663759
0.063741
0.0612459
0.0588954
0.0566928
0.0546402
0.0527386
0.0509884
0.0493891
0.0479403
0.0466408
0.0454896
0.0444855
0.0436274
0.0429142
0.0423448
0.0419186
0.0416348
0.041493
0.0987417
0.0960389
0.0931806
0.0902364
0.0872445
0.0842354
0.081238
0.0782779
0.0753772
0.0725546
0.0698254
0.0672022
0.0646953
0.0623126
0.0600602
0.0579427
0.0559635
0.0541248
0.0524281
0.0508741
0.0494633
0.0481955
0.0470705
0.0460878
0.0452469
0.0445472
0.0439882
0.0435693
0.0432903
0.0431509
0.0972198
0.0947579
0.092146
0.0894441
0.0866867
0.0839017
0.0811154
0.0783521
0.0756329
0.0729759
0.0703967
0.0679083
0.0655215
0.0632451
0.0610863
0.0590506
0.0571424
0.055365
0.0537209
0.0522118
0.0508389
0.0496031
0.0485046
0.0475438
0.0467205
0.0460349
0.0454866
0.0450756
0.0448016
0.0446647
0.095847
0.0935926
0.0911934
0.0887018
0.0861497
0.0835623
0.0809639
0.0783769
0.0758213
0.0733148
0.0708728
0.0685086
0.0662332
0.0640561
0.0619853
0.060027
0.0581865
0.056468
0.0548748
0.0534093
0.0520737
0.0508692
0.0497971
0.048858
0.0480526
0.047381
0.0468436
0.0464405
0.0461717
0.0460374
0.0946138
0.0925386
0.0903243
0.088016
0.0856433