/*--------------------------------*- C++ -*----------------------------------*\
  =========                 |
  \\      /  F ield         | OpenFOAM: The Open Source CFD Toolbox
   \\    /   O peration     | Website:  https://openfoam.org
    \\  /    A nd           | Version:  7
     \\/     M anipulation  |
\*---------------------------------------------------------------------------*/
FoamFile
{
    version     2.0;
    format      ascii;
    class       surfaceScalarField;
    location    "25";
    object      phi;
}
// * * * * * * * * * * * * * * * * * * * * * * * * * * * * * * * * * * * * * //

dimensions      [0 3 -1 0 0 0 0];

internalField   nonuniform List<scalar> 
6856
(
-0.000429569
0.000200466
-0.000661568
0.000231999
-0.000917801
0.000256233
-0.00119521
0.000277407
-0.00148909
0.000293884
-0.00178377
0.000294675
-0.00210765
0.000323885
0.00026334
-0.00237099
-7.0431e-05
0.000146374
-0.00021316
0.00029589
-0.000398784
0.00038609
-0.000610595
0.00044381
-0.000839368
0.000485006
-0.0010797
0.000517739
-0.00132902
0.000543209
-0.00155129
0.000516939
-0.0018101
0.000582693
0.000399477
-0.00194623
-6.03938e-05
0.000206768
-0.000183623
0.000419119
-0.000341008
0.000543475
-0.000513961
0.000616763
-0.000689654
0.000660699
-0.000855623
0.000683708
-0.00101578
0.000703362
-0.00109598
0.000597146
-0.00121593
0.000702637
0.000303331
-0.00111978
-4.76202e-05
0.000254388
-0.000144792
0.000516291
-0.000263252
0.000661935
-0.000381367
0.000734878
-0.000481932
0.000761264
-0.000539507
0.000741283
-0.000556839
0.000720694
-0.000439518
0.000479825
-0.000292615
0.000555734
-8.38769e-05
9.45927e-05
-3.43381e-05
0.000288726
-0.00010206
0.000584013
-0.000174327
0.000734201
-0.00022468
0.000785231
-0.000228925
0.000765509
-0.000156438
0.000668796
4.95416e-05
0.000514714
0.000410018
0.000119349
0.000923832
4.19191e-05
-0.000985138
0.00182509
-2.26987e-05
0.000311425
-6.05837e-05
0.000621898
-8.23576e-05
0.000755975
-5.48576e-05
0.000757731
6.23974e-05
0.000648254
0.000302279
0.000428915
0.000760234
5.67588e-05
0.00148126
-0.000601678
0.00246668
-0.0009435
-0.00254933
0.00403087
-1.41884e-05
0.000325613
-2.34824e-05
0.000631192
9.0565e-06
0.000723436
0.000128506
0.000638282
0.000391806
0.000384955
0.000862474
-4.17534e-05
0.0016599
-0.000740666
0.00279355
-0.00173532
0.00435208
-0.00250204
-0.00471634
0.00651909
-9.32307e-06
0.000334936
9.56244e-06
0.000612307
0.000104037
0.000628962
0.000339388
0.000402931
0.00080115
-7.68069e-05
0.00158537
-0.000825977
0.00278247
-0.00193776
0.00438832
-0.00334118
0.00648921
-0.00460292
-0.00709792
0.00887078
-6.26917e-06
0.000341206
4.3194e-05
0.000562844
0.000217706
0.00045445
0.000611877
8.75946e-06
0.00134215
-0.000807077
0.00251771
-0.00200154
0.00411576
-0.00353581
0.00609531
-0.00532073
0.00846405
-0.00697166
-0.00921149
0.0105776
-1.88891e-06
0.000343095
8.84614e-05
0.000472493
0.000374876
0.000168035
0.000991161
-0.000607526
0.00205679
-0.0018727
0.00360496
-0.00354971
0.00548831
-0.00541915
0.00753741
-0.00736984
0.00963558
-0.00906982
-0.0108456
0.0112697
6.29248e-06
0.000336802
0.000157814
0.000320972
0.000603812
-0.000277963
0.00150351
-0.00150723
0.00290652
-0.00327571
0.00467397
-0.00531717
0.00656827
-0.00731345
0.00835038
-0.00915195
0.0098694
-0.0105888
-0.0119687
0.0109925
2.19766e-05
0.000314825
0.000263832
7.91162e-05
0.000923212
-0.000937343
0.00212173
-0.00270575
0.0037375
-0.00489147
0.00547774
-0.00705741
0.00709824
-0.00893394
0.00842343
-0.0104771
0.00953627
-0.0117017
-0.0129269
0.0104945
4.83438e-05
0.000266482
0.000416181
-0.000288721
0.00132388
-0.00184504
0.00274294
-0.00412481
0.00435717
-0.00650569
0.00585318
-0.00855343
0.00708655
-0.0101673
0.00806421
-0.0114548
0.00891007
-0.0125475
-0.0136543
0.00963747
8.76729e-05
0.000178809
0.000617432
-0.000818479
0.00175223
-0.00297984
0.00322973
-0.00560231
0.00465553
-0.0079315
0.00582616
-0.00972405
0.00673938
-0.0110805
0.00747457
-0.01219
0.00813497
-0.0132079
-0.0142939
0.00877454
0.000142753
3.60558e-05
0.000853622
-0.00152935
0.00212293
-0.00424915
0.00349493
-0.0069743
0.00465042
-0.009087
0.00552901
-0.0106026
0.00620305
-0.0117546
0.0067683
-0.0127553
0.00731311
-0.0137527
-0.0148233
0.00784255
0.000215924
-0.000179868
0.00109062
-0.00240405
0.00236443
-0.00552296
0.00353539
-0.00814527
0.00442396
-0.00997557
0.00506736
-0.011246
0.00556698
-0.0122542
0.00601001
-0.0131983
0.00644583
-0.0141886
-0.0152583
0.00688085
0.000304383
-0.000484251
0.00128748
-0.00338715
0.00245497
-0.00669045
0.00339578
-0.00908608
0.00405178
-0.0106316
0.00451319
-0.0117075
0.00488114
-0.0126221
0.00521999
-0.0135371
0.00556058
-0.0145292
-0.0156004
0.00590265
0.000396045
-0.000880295
0.00141122
-0.00440233
0.00241018
-0.00768941
0.00312747
-0.00980336
0.00359092
-0.011095
0.00390982
-0.0120264
0.00417001
-0.0128823
0.00441585
-0.013783
0.00466077
-0.0147741
-0.0158433
0.00490369
0.000475563
-0.00135586
0.00144524
-0.005372
0.00225727
-0.00850144
0.0027742
-0.0103203
0.00307988
-0.0114007
0.0032827
-0.0122292
0.00344828
-0.0130479
0.00360349
-0.0139382
0.00375408
-0.0149247
-0.0159895
0.00390023
0.000530736
-0.00188659
0.00139512
-0.00623639
0.00202441
-0.00913073
0.00236908
-0.010665
0.0025442
-0.0115758
0.00264706
-0.012332
0.00272362
-0.0131245
0.00278933
-0.0140039
0.00284654
-0.0149819
-0.0160393
0.0028964
0.000554232
-0.00244083
0.00128377
-0.00696592
0.00173801
-0.00958498
0.00193541
-0.0108624
0.00199974
-0.0116401
0.00201211
-0.0123444
0.00200233
-0.0131147
0.00197787
-0.0139794
0.00193939
-0.0149434
-0.0159947
0.00189476
0.000543558
-0.00298438
0.00112599
-0.00754835
0.00141893
-0.00987792
0.00148896
-0.0109324
0.00145651
-0.0116077
0.00138399
-0.0122719
0.0012893
-0.01302
0.00117491
-0.013865
0.00103775
-0.0148062
-0.0158471
0.000890166
0.000501623
-0.00348601
0.000935724
-0.00798245
0.00108288
-0.0100251
0.0010416
-0.0108911
0.000921248
-0.0114873
0.000766698
-0.0121173
0.00058788
-0.0128412
0.00038434
-0.0136615
0.000160093
-0.014582
-0.0155733
-0.000113748
0.000435377
-0.00392138
0.000725325
-0.0082724
0.000741984
-0.0100417
0.000601223
-0.0107504
0.000397846
-0.011284
0.00016176
-0.0118813
-0.000100257
-0.0125792
-0.000384979
-0.0133768
-0.000705648
-0.0142613
-0.0152201
-0.00105877
0.000352873
-0.00427426
0.000505008
-0.00842453
0.000404392
-0.00994111
0.000170936
-0.0105169
-0.000110375
-0.0110026
-0.000417879
-0.0115738
-0.000756222
-0.0122408
-0.00112942
-0.0130036
-0.00154068
-0.0138501
-0.01478
-0.00198084
0.000261178
-0.00453544
0.000283899
-0.00844725
7.26379e-05
-0.00972985
-0.000238344
-0.0102059
-0.000589805
-0.0106512
-0.000974434
-0.0111891
-0.00139154
-0.0118237
-0.00184762
-0.0125475
-0.00234122
-0.0133565
-0.0142529
-0.00286832
0.000165798
-0.00470123
7.25728e-05
-0.00835403
-0.000238079
-0.0094192
-0.000626303
-0.00981769
-0.00105038
-0.0102271
-0.00150743
-0.0107321
-0.00199993
-0.0113312
-0.00253349
-0.0120139
-0.00310694
-0.012783
-0.0136428
-0.00371701
7.22434e-05
-0.00477348
-0.000142663
-0.00813912
-0.000533825
-0.00902804
-0.000994833
-0.00935668
-0.00148796
-0.00973398
-0.00201453
-0.0102055
-0.00257856
-0.0107672
-0.00318439
-0.0114081
-0.00383359
-0.0121338
-0.012957
-0.00451938
-1.44948e-05
-0.00475898
-0.00034457
-0.00780905
-0.000814216
-0.00855839
-0.00134121
-0.00882969
-0.00190005
-0.00917513
-0.00249386
-0.00961171
-0.00312692
-0.0101341
-0.00380073
-0.0107343
-0.00451046
-0.0114241
-0.0122032
-0.00526424
-0.000120274
-0.00463871
-0.000531471
-0.00739785
-0.00107485
-0.00801502
-0.00166381
-0.00824072
-0.0022847
-0.00855425
-0.00294262
-0.00895379
-0.00364236
-0.00943436
-0.00438671
-0.00998995
-0.00517953
-0.0106313
-0.0114294
-0.00595336
-0.00021045
-0.00442826
-0.000704179
-0.00690412
-0.00131363
-0.00740557
-0.00196092
-0.00759343
-0.00263987
-0.0078753
-0.00335722
-0.00823644
-0.00411817
-0.0086734
-0.0049255
-0.00918262
-0.00578016
-0.0097766
-0.0104291
-0.00678043
-0.000291289
-0.00413697
-0.000861433
-0.00633398
-0.00153029
-0.00673671
-0.00223139
-0.00689233
-0.00296416
-0.00714253
-0.00373557
-0.00746503
-0.00454926
-0.00785972
-0.00540914
-0.00832274
-0.00633488
-0.00885087
-0.00940094
-0.00736307
-0.000363274
-0.00377369
-0.00100206
-0.0056952
-0.00172403
-0.00601473
-0.00247401
-0.00614236
-0.00325588
-0.00636066
-0.00407757
-0.00664334
-0.00494557
-0.00699171
-0.0058689
-0.00739941
-0.0068623
-0.00785747
-0.008344
-0.00791923
-0.000426106
-0.00334759
-0.00112534
-0.00499596
-0.00189427
-0.0052458
-0.00268777
-0.00534886
-0.00351279
-0.00553564
-0.00437721
-0.00577891
-0.00528896
-0.00607997
-0.00625903
-0.00642934
-0.00729906
-0.00681744
-0.00723902
-0.00840404
-0.000478807
-0.00286878
-0.00123058
-0.00424419
-0.00204059
-0.0044358
-0.0028724
-0.00451705
-0.00373589
-0.00467215
-0.00463963
-0.00487518
-0.00559249
-0.0051271
-0.00660406
-0.00541776
-0.00768161
-0.00573989
-0.00609517
-0.00882547
-0.000519853
-0.00234893
-0.00131745
-0.00344659
-0.00216261
-0.00359063
-0.00302662
-0.00365304
-0.00392189
-0.00377688
-0.0048576
-0.00393947
-0.00584338
-0.00414132
-0.00688818
-0.00437296
-0.00799849
-0.00462958
-0.00491603
-0.00917762
-0.000555125
-0.0017938
-0.00138725
-0.00261446
-0.0022606
-0.00271728
-0.00315084
-0.00276281
-0.00407218
-0.00285554
-0.00503413
-0.00297752
-0.00604646
-0.003129
-0.00711727
-0.00330215
-0.00825299
-0.00349386
-0.00370956
-0.00945945
-0.000582517
-0.00121129
-0.00143995
-0.00175703
-0.00233419
-0.00182304
-0.00324413
-0.00185286
-0.00418504
-0.00191463
-0.00516662
-0.00199594
-0.00619873
-0.00209689
-0.00728894
-0.00221193
-0.0084435
-0.00233931
-0.00248323
-0.00966983
-0.000601
-0.00147529
-0.00238337
-0.0033065
-0.000929729
-0.00426053
-0.000960597
-0.00525523
-0.00100125
-0.00630043
-0.00105169
-0.00740327
-0.00110909
-0.00856998
-0.00117259
-0.00124446
-0.00980876
-0.00333772
-0.00429832
-0.00529956
-0.00635125
-0.00746034
-0.00863294
-0.0098774
-0.00241897
4.79729e-05
-0.00246409
4.51247e-05
-0.00250506
4.09705e-05
-0.00254246
3.73956e-05
-0.00257679
3.43341e-05
-0.00260853
3.17316e-05
-0.00263806
2.95256e-05
-0.0026657
2.7643e-05
-0.00269172
2.6016e-05
-0.00271631
2.45871e-05
-0.00273962
2.33087e-05
-0.00276176
2.21404e-05
-0.00278281
2.10478e-05
-0.00280282
2.00015e-05
-0.0028218
1.89779e-05
-0.00283976
1.79574e-05
-0.00285668
1.69219e-05
-0.00287254
1.58531e-05
-0.00288727
1.47361e-05
-0.00290082
1.35459e-05
-0.00291308
1.22596e-05
-0.00292395
1.08707e-05
-0.00293334
9.38881e-06
-0.00294112
7.77522e-06
-0.00294712
5.99999e-06
-0.00295117
4.04813e-06
-0.00295303
1.8624e-06
-0.00295245
-5.77568e-07
-2.90772e-06
-0.00198404
8.57838e-05
-0.00202068
8.17617e-05
-0.00205387
7.4158e-05
-0.00208396
6.74902e-05
-0.00211125
6.16178e-05
-0.00213606
5.65439e-05
-0.00215872
5.21856e-05
-0.00217949
4.84124e-05
-0.00219857
4.5097e-05
-0.00221612
4.21336e-05
-0.00223225
3.94384e-05
-0.00224705
3.69413e-05
-0.00226058
3.45804e-05
-0.00227288
3.23022e-05
-0.00228397
3.00637e-05
-0.00229384
2.78311e-05
-0.00230249
2.55736e-05
-0.0023099
2.32626e-05
-0.00231607
2.09069e-05
-0.00232097
1.8442e-05
-0.00232451
1.58043e-05
-0.0023266
1.29613e-05
-0.00232712
9.90829e-06
-0.00232591
6.56022e-06
-0.00232272
2.81143e-06
-0.00231742
-1.24983e-06
-0.00231041
-5.14891e-06
-0.00230142
-9.57222e-06
-1.44387e-05
-0.00114478
0.000110781
-0.00116583
0.000102816
-0.00118647
9.47974e-05
-0.00120552
8.65339e-05
-0.00122248
7.85838e-05
-0.00123737
7.14305e-05
-0.00125026
6.50736e-05
-0.00126125
5.94095e-05
-0.00127045
5.4293e-05
-0.00127791
4.95933e-05
-0.00128369
4.52174e-05
-0.00128783
4.10869e-05
-0.00129038
3.71249e-05
-0.00129134
3.32617e-05
-0.00129072
2.94445e-05
-0.00128854
2.5651e-05
-0.00128484
2.18791e-05
-0.00127964
1.80547e-05
-0.0012729
1.41699e-05
-0.00126454
1.00867e-05
-0.00125445
5.70879e-06
-0.00124221
7.22046e-07
-0.00122858
-3.72059e-06
-0.00121345
-8.57235e-06
-0.00119674
-1.38954e-05
-0.00117832
-1.96727e-05
-0.00115755
-2.59123e-05
-0.00113449
-3.26376e-05
-3.98748e-05
8.83882e-05
0.000116986
7.51254e-05
0.000116079
6.34801e-05
0.000106443
5.30125e-05
9.70015e-05
4.33847e-05
8.82116e-05
3.51138e-05
7.97013e-05
2.85458e-05
7.16416e-05
2.38146e-05
6.41407e-05
2.10317e-05
5.70758e-05
2.02986e-05
5.03265e-05
2.16657e-05
4.38502e-05
2.51436e-05
3.7609e-05
3.07369e-05
3.15316e-05
3.84645e-05
2.55342e-05
4.8355e-05
1.95539e-05
6.04124e-05
1.35936e-05
7.47048e-05
7.58665e-06
9.16617e-05
1.09778e-06
0.000110247
-4.41513e-06
0.000130476
-1.01422e-05
0.000152397
-1.62129e-05
0.000175729
-2.26099e-05
0.000201315
-2.93058e-05
0.000229105
-3.63625e-05
0.000259048
-4.38384e-05
0.000291146
-5.17709e-05
0.000325422
-6.01885e-05
0.000361928
-6.91439e-05
0.000400735
-7.86818e-05
-8.88384e-05
0.00177588
0.000166203
0.00174315
0.000148803
0.00171598
0.000133612
0.00169291
0.000120077
0.00167375
0.000107368
0.00165834
9.51139e-05
0.00164612
8.38577e-05
0.00163671
7.35516e-05
0.00163008
6.37124e-05
0.00162632
5.40859e-05
0.00162548
4.46841e-05
0.00162757
3.55199e-05
0.00163259
2.65141e-05
0.00164058
1.75404e-05
0.0016517
8.43874e-06
0.00166634
-1.04861e-06
0.00168295
-9.02402e-06
0.00170148
-1.74329e-05
0.00172296
-2.5897e-05
0.00174726
-3.44374e-05
0.00177418
-4.31393e-05
0.00180365
-5.20767e-05
0.00183563
-6.12823e-05
0.00187008
-7.08186e-05
0.00190699
-8.07473e-05
0.00194634
-9.11178e-05
0.00198812
-0.000101972
0.00203234
-0.000113359
0.00207898
-0.000125325
-0.000137911
0.00393983
0.000257247
0.00386457
0.000224067
0.00379581
0.000202371
0.00373239
0.000183488
0.00367733
0.000162434
0.00363084
0.000141607
0.00359146
0.00012323
0.00355805
0.000106965
0.00353014
9.16257e-05
0.00350745
7.67713e-05
0.00348966
6.2471e-05
0.00347648
4.87e-05
0.00346773
3.52676e-05
0.00346333
2.19369e-05
0.00346343
8.34406e-06
0.00346718
-4.79919e-06
0.00347473
-1.65789e-05
0.00348599
-2.86851e-05
0.00350087
-4.07759e-05
0.00351924
-5.28157e-05
0.00354097
-6.48614e-05
0.0035659
-7.70129e-05
0.00359398
-8.93632e-05
0.00362516
-0.000101991
0.00365936
-0.000114954
0.00369653
-0.00012829
0.0037366
-0.000142036
0.00377948
-0.000156242
0.00382512
-0.00017096
-0.000186234
0.00638579
0.000390551
0.00626495
0.000344902
0.00615087
0.000316453
0.00604078
0.000293581
0.00594051
0.0002627
0.00585083
0.000231291
0.00577028
0.000203782
0.00569813
0.000179113
0.00563429
0.000155468
0.0055784
0.000132659
0.00552987
0.000110998
0.00548816
9.04083e-05
0.00545282
7.06082e-05
0.00542338
5.13834e-05
0.00539918
3.2537e-05
0.00538065
1.37295e-05
0.00536877
-4.69077e-06
0.00536113
-2.10522e-05
0.00535806
-3.77055e-05
0.00535964
-5.43892e-05
0.00536571
-7.09332e-05
0.00537606
-8.73651e-05
0.00539049
-0.000103792
0.00540883
-0.000120328
0.00543093
-0.000137054
0.00545664
-0.000154001
0.0054858
-0.000171199
0.00551827
-0.000188711
0.00555391
-0.000206603
0.0055926
-0.000224924
-0.000243702
0.00871215
0.000549185
0.00856179
0.00049526
0.00841092
0.000467323
0.00826665
0.000437858
0.00813349
0.000395856
0.00800996
0.000354817
0.00789476
0.000318982
0.00778826
0.00028562
0.00769084
0.000252884
0.00760225
0.00022125
0.00752207
0.00019118
0.00744996
0.00016251
0.00738559
0.000134981
0.00732852
0.000108458
0.00727825
8.28025e-05
0.00723414
5.78418e-05
0.00719622
3.32311e-05
0.00716697
8.19352e-06
0.00714319
-1.39245e-05
0.00712384
-3.50418e-05
0.00710921
-5.62995e-05
0.00709941
-7.75647e-05
0.00709434
-9.87195e-05
0.00709384
-0.000119828
0.00709774
-0.000140959
0.00710583
-0.000162091
0.00711787
-0.000183234
0.00713363
-0.000204478
0.00715294
-0.000225909
0.00717559
-0.000247576
0.0072014
-0.000269508
-0.000291735
0.0104233
0.000703522
0.0102706
0.000647983
0.0101135
0.000624345
0.00996574
0.000585651
0.00982653
0.000535067
0.00969411
0.00048724
0.0095686
0.000444495
0.00945045
0.000403763
0.00933975
0.00036359
0.00923643
0.00032457
0.00914056
0.000287046
0.00905217
0.000250899
0.00897113
0.000216021
0.00889721
0.000182379
0.00883011
0.000149899
0.00876948
0.000118475
0.0087147
8.80066e-05
0.0086645
5.83938e-05
0.00862141
2.91661e-05
0.00858758
-1.20694e-06
0.00855707
-2.57916e-05
0.00853104
-5.15289e-05
0.00850933
-7.70094e-05
0.00849201
-0.000102517
0.00847909
-0.00012803
0.00847033
-0.000153334
0.0084655
-0.000178407
0.00846439
-0.000203364
0.00846677
-0.000228295
0.00847244
-0.000253241
0.00848116
-0.000278231
-0.0003033
0.0111696
0.000803565
0.011047
0.000770586
0.0109345
0.000736845
0.0108269
0.000693296
0.0107202
0.000641777
0.0106161
0.000591274
0.0105159
0.000544717
0.0104193
0.000500326
0.0103263
0.000456631
0.010237
0.000413828
0.0101519
0.000372173
0.0100712
0.00033165
0.00999493
0.000292248
0.00992334
0.000253977
0.00985641
0.000216828
0.00979416
0.000180719
0.00973656
0.000145608
0.00968358
0.000111371
0.00963463
7.81226e-05
0.00958794
4.54782e-05
0.00954968
1.24706e-05
0.00951557
-1.74155e-05
0.00948446
-4.59025e-05
0.0094569
-7.49615e-05
0.00943279
-0.000103913
0.00941196
-0.000132506
0.00939433
-0.00016078
0.0093798
-0.000188831
0.00936821
-0.000216711
0.00935942
-0.000244443
0.00935324
-0.00027205
0.0093495
-0.000299562
-0.000327006
0.0166242
0.000905691
-0.0167263
0.0165477
0.000847047
0.0164836
0.000800991
0.0164228
0.000754061
0.0163594
0.000705188
0.0162939
0.000656754
0.0162292
0.000609412
0.0161662
0.000563365
0.0161042
0.000518648
0.0160429
0.000475095
0.0159826
0.00043252
0.0159234
0.000390859
0.0158655
0.000350142
0.0158091
0.000310378
0.0157543
0.000271561
0.0157014
0.00023364
0.0156504
0.000196607
0.0156014
0.000160387
0.0155545
0.000125025
0.0155095
9.0456e-05
0.0154649
5.71059e-05
0.0154222
2.53163e-05
0.0153818
-5.49628e-06
0.0153457
-3.89311e-05
0.0153123
-7.04507e-05
0.0152811
-0.000101339
0.0152522
-0.00013189
0.0152255
-0.000162114
0.0152008
-0.000192
0.0151779
-0.000221577
0.0151567
-0.000250888
0.0151372
-0.000279966
-0.000308832
0.0167144
0.000915722
-0.0167244
0.0167027
0.000858766
0.0166977
0.000806003
0.0166935
0.000758224
0.016686
0.000712727
0.0166748
0.000667883
0.0166609
0.000623363
0.0166447
0.000579575
0.0166265
0.000536838
0.0166065
0.000495125
0.0165847
0.000454277
0.0165614
0.00041419
0.0165367
0.000374842
0.0165108
0.00033624
0.016484
0.000298391
0.0164563
0.00026129
0.016428
0.00022494
0.016399
0.000189332
0.0163696
0.000154452
0.0163398
0.000120243
0.0163104
8.65803e-05
0.0162824
5.32929e-05
0.0162567
2.01449e-05
0.0162299
-1.21164e-05
0.0162028
-4.32866e-05
0.016176
-7.45995e-05
0.0161496
-0.000105516
0.0161235
-0.000135993
0.0160977
-0.000166129
0.016072
-0.000195968
0.0160467
-0.000225516
0.0160215
-0.000254777
-0.000283756
0.016606
0.000895223
-0.0165855
0.0166242
0.000840621
0.0166404
0.000789771
0.0166554
0.000743266
0.0166685
0.000699605
0.0166792
0.000657207
0.0166872
0.000615356
0.0166927
0.000574093
0.0166959
0.000533617
0.016697
0.000494003
0.0166961
0.00045519
0.0166932
0.00041709
0.0166884
0.000379645
0.0166818
0.000342836
0.0166735
0.000306657
0.0166637
0.000271101
0.0166525
0.00023615
0.0166401
0.000201764
0.0166267
0.000167881
0.0166124
0.000134446
0.0165975
0.000101505
0.0165816
6.91807e-05
0.0165641
3.7638e-05
0.016545
6.99344e-06
0.0165261
-2.43576e-05
0.0165066
-5.50562e-05
0.0164863
-8.52442e-05
0.0164654
-0.000115093
0.0164439
-0.000144614
0.0164217
-0.000173804
0.0163989
-0.000202667
0.0163753
-0.000231212
-0.000259444
0.0164559
0.000856116
-0.0164168
0.0164864
0.000810185
0.0165121
0.000764045
0.0165354
0.000720024
0.0165566
0.000678314
0.0165757
0.000638114
0.0165924
0.000598727
0.0166066
0.000559906
0.0166185
0.000521689
0.0166283
0.000484156
0.0166362
0.00044732
0.0166421
0.00041114
0.0166462
0.000375563
0.0166485
0.000340554
0.0166491
0.000306092
0.016648
0.000272161
0.0166454
0.00023874
0.0166414
0.00020581
0.0166359
0.000173359
0.016629
0.000141398
0.0166205
0.000109955
0.0166106
7.90472e-05
0.0165996
4.86719e-05
0.0165881
1.85038e-05
0.0165751
-1.13934e-05
0.0165609
-4.08769e-05
0.0165457
-7.00101e-05
0.0165294
-9.87547e-05
0.0165119
-0.00012715
0.0164933
-0.000155213
0.0164736
-0.000182949
0.0164527
-0.000210357
-0.000237437
0.0162969
0.000814721
-0.0162555
0.0163329
0.000774244
0.0163645
0.000732378
0.016393
0.000691555
0.0164189
0.000652458
0.0164423
0.000614722
0.0164632
0.00057781
0.0164817
0.000541419
0.0164978
0.0005055
0.0165119
0.000470109
0.0165239
0.000435289
0.016534
0.000401036
0.0165423
0.000367319
0.0165487
0.000334105
0.0165534
0.000301373
0.0165565
0.000269109
0.0165579
0.000237303
0.0165578
0.000205953
0.0165561
0.000175056
0.0165529
0.000144611
0.0165482
0.000114604
0.0165423
8.50017e-05
0.0165352
5.57636e-05
0.0165268
2.68661e-05
0.0165171
-1.65626e-06
0.016506
-2.98283e-05
0.0164937
-5.76524e-05
0.01648
-8.51241e-05
0.0164651
-0.000112251
0.016449
-0.000139045
0.0164315
-0.000165509
0.0164128
-0.00019164
-0.000217433
0.0161456
0.000772202
-0.0161031
0.0161848
0.00073509
0.01622
0.000697187
0.0162516
0.000659921
0.0162802
0.000623845
0.0163061
0.000588789
0.0163295
0.000554393
0.0163505
0.000520422
0.0163692
0.000486815
0.0163857
0.000453612
0.0164002
0.000420858
0.0164126
0.000388571
0.0164232
0.000356739
0.016432
0.000325342
0.016439
0.000294365
0.0164443
0.0002638
0.0164479
0.000233643
0.01645
0.000203892
0.0164505
0.00017454
0.0164496
0.000145577
0.0164472
0.000116988
0.0164434
8.87584e-05
0.0164383
6.08833e-05
0.0164318
3.33716e-05
0.0164239
6.2267e-06
0.0164147
-2.06018e-05
0.0164041
-4.70864e-05
0.0163922
-7.32406e-05
0.016379
-9.9063e-05
0.0163645
-0.000124553
0.0163487
-0.000149709
0.0163316
-0.000174529
-0.000199008
0.016009
0.000727645
-0.0159645
0.0160495
0.000694584
0.0160862
0.00066052
0.0161194
0.000626701
0.0161496
0.000593654
0.0161771
0.000561311
0.0162021
0.000529435
0.0162246
0.000497863
0.0162449
0.000466553
0.0162629
0.00043554
0.0162789
0.000404869
0.0162929
0.000374566
0.016305
0.000344633
0.0163153
0.000315065
0.0163238
0.000285853
0.0163306
0.000256994
0.0163358
0.000228487
0.0163394
0.000200331
0.0163414
0.000172522
0.0163419
0.000145056
0.016341
0.000117928
0.0163386
9.1137e-05
0.0163348
6.46843e-05
0.0163296
3.8568e-05
0.016323
1.27786e-05
0.0163151
-1.26919e-05
0.0163059
-3.78418e-05
0.0162953
-6.26713e-05
0.0162834
-8.7177e-05
0.0162702
-0.000111356
0.0162557
-0.000135205
0.0162399
-0.000158719
-0.000181893
0.0158862
0.000683279
-0.0158418
0.0159268
0.000654016
0.0159638
0.000623437
0.0159977
0.00059279
0.0160288
0.000562619
0.0160572
0.000532917
0.0160831
0.000503516
0.0161067
0.000474298
0.016128
0.000445245
0.0161471
0.000416391
0.0161642
0.000387785
0.0161793
0.000359455
0.0161925
0.000331415
0.0162039
0.000303668
0.0162136
0.000276214
0.0162215
0.000249055
0.0162278
0.000222194
0.0162325
0.000195633
0.0162356
0.000169376
0.0162373
0.000143422
0.0162374
0.000117775
0.0162361
9.24348e-05
0.0162334
6.74017e-05
0.0162293
4.26732e-05
0.0162238
1.82459e-05
0.016217
-5.87857e-06
0.0162089
-2.96876e-05
0.0161994
-5.31932e-05
0.0161886
-7.63872e-05
0.0161765
-9.92646e-05
0.0161631
-0.000121821
0.0161485
-0.000144049
-0.000165943
0.0157743
0.000640223
-0.0157313
0.0158144
0.000613959
0.0158514
0.000586444
0.0158855
0.00055871
0.0159169
0.000531242
0.0159457
0.000504061
0.0159722
0.000477042
0.0159964
0.000450102
0.0160184
0.000423236
0.0160383
0.000396486
0.0160562
0.000369898
0.0160721
0.000343509
0.0160862
0.000317335
0.0160985
0.000291388
0.016109
0.000265674
0.0161179
0.0002402
0.0161251
0.000214975
0.0161307
0.000190004
0.0161348
0.000165295
0.0161374
0.000140853
0.0161385
0.000116682
0.0161381
9.27841e-05
0.0161364
6.91629e-05
0.0161332
4.58203e-05
0.0161287
2.27587e-05
0.0161229
-3.62129e-08
0.0161157
-2.25033e-05
0.0161072
-4.46972e-05
0.0160974
-6.65934e-05
0.0160863
-8.81863e-05
0.016074
-0.00010947
0.0160603
-0.000130436
-0.000151079
0.0156717
0.000598316
-0.0156297
0.0157109
0.000574699
0.0157474
0.000549933
0.0157813
0.00052486
0.0158126
0.000499901
0.0158416
0.000475087
0.0158683
0.000450327
0.0158928
0.000425559
0.0159153
0.000400791
0.0159357
0.000376068
0.0159542
0.000351437
0.0159707
0.000326935
0.0159855
0.000302584
0.0159985
0.000278401
0.0160098
0.000254398
0.0160194
0.000230585
0.0160274
0.000206975
0.0160338
0.000183577
0.0160387
0.000160402
0.0160421
0.000137456
0.016044
0.000114746
0.0160445
9.22793e-05
0.0160436
7.00602e-05
0.0160414
4.80945e-05
0.0160377
2.63869e-05
0.0160328
4.93332e-06
0.0160265
-1.62285e-05
0.0160189
-3.71251e-05
0.0160101
-5.77412e-05
0.0159999
-7.80691e-05
0.0159886
-9.81019e-05
0.015976
-0.000117832
-0.000137252
0.0155768
0.000557637
-0.0155362
0.0156151
0.000536477
0.0156508
0.000514191
0.0156841
0.00049153
0.0157152
0.000468873
0.015744
0.000446258
0.0157707
0.000423617
0.0157954
0.000400903
0.015818
0.00037813
0.0158387
0.000355344
0.0158576
0.000332592
0.0158746
0.000309912
0.0158899
0.000287329
0.0159034
0.000264863
0.0159153
0.000242529
0.0159255
0.000220342
0.0159342
0.000198316
0.0159413
0.000176463
0.0159469
0.000154796
0.015951
0.000133324
0.0159537
0.000112058
0.015955
9.1004e-05
0.0159549
7.01712e-05
0.0159534
4.95665e-05
0.0159506
2.91965e-05
0.0159465
9.06411e-06
0.015941
-1.08087e-05
0.0159343
-3.04261e-05
0.0159264
-4.97822e-05
0.0159172
-6.88681e-05
0.0159068
-8.76752e-05
0.0158951
-0.000106195
-0.00012442
0.015489
0.000518435
-0.0154498
0.015526
0.00049945
0.0155609
0.000479386
0.0155935
0.000458906
0.015624
0.000438355
0.0156525
0.000417774
0.015679
0.000397108
0.0157036
0.000376324
0.0157263
0.000355436
0.0157471
0.00033449
0.0157662
0.000313532
0.0157835
0.000292599
0.0157991
0.00027172
0.015813
0.000250913
0.0158254
0.000230198
0.0158361
0.000209592
0.0158453
0.00018911
0.015853
0.000168767
0.0158592
0.000148577
0.015864
0.000128551
0.0158674
0.000108701
0.0158693
8.90367e-05
0.01587
6.95674e-05
0.0158692
5.03019e-05
0.0158672
3.12484e-05
0.0158638
1.24131e-05
0.0158592
-6.19072e-06
0.0158533
-2.4552e-05
0.0158462
-4.26717e-05
0.0158379
-6.05392e-05
0.0158284
-7.81457e-05
0.0158176
-9.54824e-05
-0.000112541
0.0154076
0.000480759
-0.0153699
0.0154434
0.000463683
0.0154772
0.00044561
0.015509
0.000427109
0.0155388
0.000408485
0.0155668
0.000389782
0.015593
0.000370953
0.0156173
0.000351973
0.0156399
0.000332859
0.0156607
0.000313652
0.0156799
0.000294399
0.0156973
0.000275134
0.0157132
0.000255886
0.0157274
0.000236676
0.0157401
0.000217524
0.0157512
0.000198448
0.0157609
0.000179464
0.015769
0.000160589
0.0157758
0.000141838
0.0157811
0.000123224
0.0157851
0.00010476
0.0157876
8.64551e-05
0.0157889
6.83215e-05
0.0157888
5.03687e-05
0.0157875
3.26057e-05
0.0157848
1.50398e-05
0.015781
-2.32087e-06
0.0157759
-1.94469e-05
0.0157695
-3.63557e-05
0.015762
-5.30315e-05
0.0157533
-6.94644e-05
0.0157435
-8.56454e-05
-0.000101566
0.0153322
0.000444549
-0.015296
0.0153667
0.000429189
0.0153994
0.000412913
0.0154303
0.000396211
0.0154594
0.000379354
0.0154868
0.000362381
0.0155125
0.000345258
0.0155365
0.000327963
0.0155589
0.000310512
0.0155796
0.000292947
0.0155987
0.000275307
0.0156162
0.000257629
0.0156321
0.00023994
0.0156465
0.00022226
0.0156595
0.00020461
0.0156709
0.000187009
0.0156809
0.000169474
0.0156895
0.000152022
0.0156966
0.000134669
0.0157024
0.000117427
0.0157069
0.000100312
0.01571
8.33336e-05
0.0157118
6.65042e-05
0.0157123
4.98343e-05
0.0157116
3.33344e-05
0.0157096
1.70128e-05
0.0157065
8.54262e-07
0.0157021
-1.50529e-05
0.0156965
-3.07799e-05
0.0156898
-4.62907e-05
0.0156819
-6.15772e-05
0.0156729
-7.66304e-05
-9.14415e-05
0.0152625
0.000409754
-0.0152277
0.0152957
0.000395954
0.0153273
0.000381306
0.0153573
0.000366244
0.0153856
0.000351007
0.0154124
0.000335634
0.0154375
0.000320094
0.0154611
0.000304371
0.0154832
0.00028848
0.0155036
0.000272459
0.0155226
0.000256346
0.0155401
0.000240174
0.015556
0.000223969
0.0155705
0.000207752
0.0155836
0.000191543
0.0155953
0.000175361
0.0156055
0.000159222
0.0156144
0.000143145
0.0156219
0.000127145
0.0156281
0.000111236
0.015633
9.54308e-05
0.0156366
7.97427e-05
0.0156389
6.41831e-05
0.01564
4.87629e-05
0.0156398
3.34926e-05
0.0156384
1.83811e-05
0.0156359
3.42808e-06
0.0156321
-1.13182e-05
0.0156272
-2.58881e-05
0.0156212
-4.02621e-05
0.0156141
-5.44296e-05
0.0156058
-6.83821e-05
-8.21116e-05
0.0151981
0.000376322
-0.0151647
0.0152301
0.000363934
0.0152606
0.00035077
0.0152897
0.000337208
0.0153172
0.000323462
0.0153433
0.000309568
0.0153679
0.0002955
0.015391
0.000281245
0.0154127
0.000266817
0.0154329
0.000252251
0.0154516
0.00023758
0.015469
0.000222837
0.0154849
0.000208045
0.0154994
0.000193224
0.0155126
0.000178395
0.0155244
0.000163574
0.0155348
0.00014878
0.0155439
0.000134029
0.0155517
0.000119336
0.0155583
0.000104716
0.0155635
9.01823e-05
0.0155675
7.57468e-05
0.0155703
6.14215e-05
0.0155718
4.72176e-05
0.0155722
3.31454e-05
0.0155713
1.92146e-05
0.0155693
5.42987e-06
0.0155662
-8.17953e-06
0.0155619
-2.16208e-05
0.0155565
-3.48853e-05
0.0155501
-4.79623e-05
0.0155425
-6.08425e-05
-7.35177e-05
0.0151388
0.000344172
-0.0151067
0.0151697
0.00033307
0.0151992
0.000321262
0.0152273
0.00030908
0.0152541
0.000296711
0.0152795
0.00028419
0.0153035
0.000271493
0.0153261
0.000258611
0.0153474
0.000245557
0.0153672
0.000232361
0.0153858
0.000219054
0.0154029
0.000205666
0.0154188
0.000192218
0.0154333
0.00017873
0.0154464
0.00016522
0.0154583
0.000151706
0.0154689
0.000138205
0.0154782
0.000124731
0.0154862
0.000111301
0.015493
9.79277e-05
0.0154986
8.46246e-05
0.0155029
7.1404e-05
0.015506
5.82773e-05
0.015508
4.52556e-05
0.0155088
3.23493e-05
0.0155084
1.9568e-05
0.015507
6.91839e-06
0.0155044
-5.57986e-06
0.0155007
-1.79224e-05
0.0154959
-3.01055e-05
0.01549
-4.21187e-05
0.0154831
-5.39533e-05
-6.56011e-05
0.0150845
0.000313213
-0.0150535
0.0151142
0.000303291
0.0151428
0.000292731
0.01517
0.000281822
0.015196
0.00027073
0.0152207
0.000259486
0.0152441
0.000248072
0.0152663
0.000236477
0.0152871
0.000224715
0.0153067
0.000212811
0.0153249
0.000200796
0.0153419
0.000188694
0.0153576
0.000176526
0.015372
0.00016431
0.0153852
0.000152064
0.0153971
0.000139803
0.0154077
0.000127543
0.0154172
0.000115301
0.0154254
0.000103088
0.0154324
9.09204e-05
0.0154382
7.88089e-05
0.0154428
6.67659e-05
0.0154463
5.48025e-05
0.0154486
4.29294e-05
0.0154498
3.11567e-05
0.0154499
1.94938e-05
0.0154489
7.9481e-06
0.0154468
-3.4666e-06
0.0154436
-1.47378e-05
0.0154393
-2.58669e-05
0.0154341
-3.68431e-05
0.0154278
-4.7658e-05
-5.83039e-05
0.0150348
0.00028335
-0.015005
0.0150636