/*--------------------------------*- C++ -*----------------------------------*\
  =========                 |
  \\      /  F ield         | OpenFOAM: The Open Source CFD Toolbox
   \\    /   O peration     | Website:  https://openfoam.org
    \\  /    A nd           | Version:  7
     \\/     M anipulation  |
\*---------------------------------------------------------------------------*/
FoamFile
{
    version     2.0;
    format      ascii;
    class       volScalarField;
    location    "50.001";
    object      p;
}
// * * * * * * * * * * * * * * * * * * * * * * * * * * * * * * * * * * * * * //

dimensions      [0 2 -2 0 0 0 0];

internalField   nonuniform List<scalar> 
11400
(
-0.234275
-0.233617
-0.232885
-0.232085
-0.231221
-0.230293
-0.229304
-0.228255
-0.227149
-0.225986
-0.224767
-0.223493
-0.222163
-0.220779
-0.21934
-0.217845
-0.216296
-0.214692
-0.213033
-0.21132
-0.209552
-0.207728
-0.205858
-0.203935
-0.201959
-0.199928
-0.197844
-0.195706
-0.193513
-0.191266
-0.188966
-0.186611
-0.184202
-0.18174
-0.179225
-0.176657
-0.174037
-0.171367
-0.168646
-0.165876
-0.163058
-0.160194
-0.157285
-0.154333
-0.15134
-0.148309
-0.145241
-0.142139
-0.139005
-0.135843
-0.132656
-0.129447
-0.12622
-0.122976
-0.119722
-0.116459
-0.113191
-0.109923
-0.106659
-0.103401
-0.100155
-0.0969237
-0.093711
-0.0905208
-0.0873568
-0.0842226
-0.0811216
-0.0780573
-0.0750329
-0.0720515
-0.0691159
-0.066229
-0.0633933
-0.0606106
-0.0578842
-0.0552155
-0.0526062
-0.0500581
-0.0475724
-0.0451505
-0.0427933
-0.0405015
-0.038276
-0.0361171
-0.0340252
-0.0320003
-0.0300426
-0.0281519
-0.0263278
-0.0245701
-0.0228783
-0.0212518
-0.0196899
-0.018192
-0.0167571
-0.0153845
-0.0140732
-0.0128225
-0.0116312
-0.0104986
-0.00942356
-0.00840524
-0.00744268
-0.00653503
-0.00568142
-0.00488106
-0.00413325
-0.00343734
-0.00279278
-0.00219916
-0.00165617
-0.00116387
-0.000721818
-0.000332381
1.02868e-05
0.000282008
0.000559939
0.000564033
0.00124024
-0.234363
-0.2337
-0.232966
-0.232164
-0.231297
-0.230368
-0.229379
-0.228331
-0.227226
-0.226064
-0.224847
-0.223575
-0.222248
-0.220866
-0.21943
-0.217938
-0.216392
-0.214791
-0.213134
-0.211423
-0.209658
-0.207847
-0.205978
-0.204056
-0.202081
-0.200051
-0.197968
-0.195831
-0.193639
-0.191392
-0.189091
-0.186735
-0.184325
-0.181861
-0.179343
-0.176772
-0.174149
-0.171474
-0.168749
-0.165974
-0.163151
-0.160282
-0.157368
-0.15441
-0.151412
-0.148374
-0.1453
-0.142193
-0.139054
-0.135887
-0.132696
-0.129482
-0.126251
-0.123004
-0.119747
-0.116481
-0.113213
-0.109944
-0.106679
-0.103422
-0.100177
-0.0969471
-0.0937367
-0.0905493
-0.0873886
-0.0842581
-0.0811613
-0.0781015
-0.0750818
-0.0721054
-0.0691749
-0.0662933
-0.0634634
-0.0606843
-0.0579636
-0.0552998
-0.0526952
-0.0501515
-0.0476699
-0.0452516
-0.0428976
-0.0406087
-0.0383855
-0.0362284
-0.0341378
-0.0321138
-0.0301564
-0.0282655
-0.0264408
-0.024682
-0.0229885
-0.0213599
-0.0197955
-0.0182946
-0.0168565
-0.0154803
-0.0141651
-0.0129102
-0.0117145
-0.0105772
-0.00949743
-0.00847422
-0.00750671
-0.00659405
-0.00573544
-0.00493014
-0.00417746
-0.00347679
-0.00282764
-0.00222965
-0.0016825
-0.00118639
-0.000740782
-0.000348417
-2.75467e-06
0.000270183
0.000551119
0.000554979
0.00121592
-0.234538
-0.233864
-0.233125
-0.232319
-0.231449
-0.230518
-0.229528
-0.228479
-0.227375
-0.226214
-0.224999
-0.223729
-0.222405
-0.221027
-0.219595
-0.218107
-0.216565
-0.214967
-0.213316
-0.211608
-0.209846
-0.208037
-0.206173
-0.204255
-0.202284
-0.200257
-0.198176
-0.196041
-0.19385
-0.191605
-0.189304
-0.186949
-0.184538
-0.182073
-0.179554
-0.176981
-0.174355
-0.171677
-0.168948
-0.166169
-0.163342
-0.160468
-0.157548
-0.154585
-0.151581
-0.148538
-0.145459
-0.142346
-0.139202
-0.13603
-0.132833
-0.129615
-0.126379
-0.123129
-0.119868
-0.116599
-0.113328
-0.110058
-0.106791
-0.103534
-0.100288
-0.0970584
-0.0938487
-0.0906625
-0.0875036
-0.084375
-0.0812808
-0.0782237
-0.0752071
-0.0722339
-0.0693063
-0.0664282
-0.0636011
-0.060827
-0.0581089
-0.0554481
-0.0528464
-0.0503053
-0.047826
-0.0454097
-0.0430574
-0.0407697
-0.0385473
-0.0363906
-0.0343
-0.0322754
-0.030317
-0.0284246
-0.026598
-0.0248368
-0.0231405
-0.0215087
-0.0199407
-0.0184359
-0.0169935
-0.0156127
-0.0142927
-0.0130327
-0.0118318
-0.0106892
-0.00960384
-0.00857501
-0.00760184
-0.0066835
-0.00581923
-0.00500832
-0.00425012
-0.00354405
-0.00288965
-0.0022866
-0.00173458
-0.00123391
-0.000783815
-0.000387701
-3.7481e-05
0.000237362
0.000524643
0.00053003
0.00116757
-0.234781
-0.234092
-0.233349
-0.232536
-0.231663
-0.230729
-0.229737
-0.228689
-0.227585
-0.226426
-0.225213
-0.223946
-0.222626
-0.221252
-0.219823
-0.21834
-0.216802
-0.215208
-0.213557
-0.211849
-0.210104
-0.208299
-0.20644
-0.204526
-0.202558
-0.200536
-0.198458
-0.196326
-0.194138
-0.191895
-0.189595
-0.187241
-0.184831
-0.182366
-0.179846
-0.177271
-0.174644
-0.171964
-0.169232
-0.16645
-0.163619
-0.160741
-0.157817
-0.154849
-0.15184
-0.148792
-0.145707
-0.142589
-0.13944
-0.136262
-0.133061
-0.129838
-0.126597
-0.123343
-0.120078
-0.116806
-0.113531
-0.110258
-0.10699
-0.103731
-0.100483
-0.0972529
-0.0940428
-0.0908567
-0.0876985
-0.0845691
-0.0814764
-0.0784207
-0.0754054
-0.0724337
-0.0695082
-0.0666316
-0.0638062
-0.061034
-0.0583173
-0.055658
-0.0530575
-0.0505173
-0.0480388
-0.0456229
-0.0432706
-0.0409826
-0.0387595
-0.0366017
-0.0345095
-0.0324831
-0.0305223
-0.0286272
-0.0267974
-0.0250326
-0.0233325
-0.0216964
-0.0201239
-0.0186141
-0.0171666
-0.0157804
-0.0144547
-0.0131889
-0.011982
-0.0108332
-0.00974171
-0.00870662
-0.00772715
-0.00680252
-0.00593199
-0.00511488
-0.00435055
-0.00363848
-0.00297819
-0.00236944
-0.00181182
-0.00130586
-0.000850331
-0.000449622
-9.32707e-05
0.000184363
0.00048079
0.000490089
0.00109846
-0.235067
-0.23436
-0.233615
-0.232797
-0.23192
-0.230984
-0.229991
-0.228943
-0.22784
-0.226683
-0.225473
-0.224211
-0.222895
-0.221526
-0.220102
-0.218624
-0.217091
-0.2155
-0.213855
-0.212168
-0.210421
-0.208619
-0.206765
-0.204856
-0.202893
-0.200875
-0.198802
-0.196673
-0.194489
-0.192249
-0.189952
-0.1876
-0.185191
-0.182727
-0.180207
-0.177632
-0.175004
-0.172323
-0.169589
-0.166804
-0.163971
-0.161089
-0.158161
-0.15519
-0.152176
-0.149123
-0.146034
-0.142911
-0.139756
-0.136574
-0.133368
-0.13014
-0.126895
-0.123636
-0.120367
-0.117091
-0.113814
-0.110541
-0.107262
-0.104003
-0.100755
-0.0975226
-0.0943111
-0.0911238
-0.0879645
-0.0848361
-0.0817426
-0.0786867
-0.0756715
-0.0727
-0.0697749
-0.0668985
-0.0640733
-0.0613014
-0.0585849
-0.0559255
-0.0533247
-0.0507841
-0.0483047
-0.0458878
-0.0435341
-0.0412444
-0.0390193
-0.0368591
-0.0347642
-0.0327346
-0.0307703
-0.0288713
-0.0270373
-0.025268
-0.0235629
-0.0219216
-0.0203436
-0.0188281
-0.0173745
-0.0159821
-0.0146502
-0.0133778
-0.0121642
-0.0110087
-0.00991035
-0.0088684
-0.00788204
-0.00695054
-0.00607317
-0.00524928
-0.00447824
-0.00375956
-0.00309274
-0.00247759
-0.00191361
-0.00140154
-0.000939539
-0.000533281
-0.000169168
0.00011247
0.000420244
0.000436726
0.00101289
-0.23536
-0.23464
-0.233899
-0.233076
-0.232196
-0.23126
-0.230269
-0.229222
-0.228122
-0.226969
-0.225764
-0.224506
-0.223196
-0.221833
-0.220417
-0.218946
-0.21742
-0.215836
-0.214195
-0.212513
-0.210772
-0.208979
-0.207131
-0.205229
-0.203272
-0.20126
-0.199192
-0.197068
-0.194888
-0.192652
-0.190359
-0.188009
-0.185603
-0.18314
-0.180622
-0.178048
-0.17542
-0.172738
-0.170003
-0.167217
-0.164381
-0.161497
-0.158567
-0.155592
-0.152575
-0.149518
-0.146425
-0.143298
-0.140139
-0.136949
-0.13374
-0.130508
-0.127259
-0.123996
-0.120723
-0.117444
-0.114162
-0.110883
-0.107608
-0.104344
-0.101093
-0.0978582
-0.0946448
-0.0914559
-0.0882951
-0.0851656
-0.0820709
-0.0790141
-0.0759982
-0.0730259
-0.0701
-0.0672229
-0.0643969
-0.0616242
-0.0589066
-0.0562459
-0.0536437
-0.0511014
-0.0486202
-0.046201
-0.0438449
-0.0415524
-0.0393241
-0.0371604
-0.0350616
-0.0330278
-0.0310591
-0.0291552
-0.0273161
-0.0255413
-0.0238305
-0.0221832
-0.0205989
-0.019077
-0.0176167
-0.0162174
-0.0148784
-0.0135989
-0.0123781
-0.0112152
-0.0101094
-0.00906005
-0.00806624
-0.0071273
-0.00624251
-0.00541123
-0.00463284
-0.00390688
-0.00323281
-0.00261051
-0.00203926
-0.00152017
-0.0010505
-0.000637549
-0.000263973
2.33171e-05
0.000344079
0.000372006
0.000915615
-0.235595
-0.234898
-0.234171
-0.233346
-0.232467
-0.231533
-0.230545
-0.229503
-0.228408
-0.227261
-0.226062
-0.224811
-0.223509
-0.222154
-0.220745
-0.219281
-0.217755
-0.216163
-0.214562
-0.212883
-0.21115
-0.209364
-0.207523
-0.205628
-0.203678
-0.201672
-0.199611
-0.197493
-0.195319
-0.193087
-0.190799
-0.188453
-0.186051
-0.183593
-0.181074
-0.178497
-0.175872
-0.173191
-0.170457
-0.167671
-0.164834
-0.161948
-0.159016
-0.156038
-0.153019
-0.149959
-0.146863
-0.143732
-0.140569
-0.137379
-0.134165
-0.130929
-0.127676
-0.124409
-0.121133
-0.11785
-0.114566
-0.111283
-0.108006
-0.104739
-0.101485
-0.0982488
-0.0950334
-0.0918427
-0.0886802
-0.0855493
-0.0824532
-0.079395
-0.0763778
-0.0734042
-0.070477
-0.0675985
-0.064771
-0.0619966
-0.0592772
-0.0566145
-0.0540101
-0.0514653
-0.0489813
-0.0465591
-0.0441996
-0.0419035
-0.0396712
-0.0375033
-0.0353998
-0.0333611
-0.0313871
-0.0294777
-0.0276327
-0.0258517
-0.0241345
-0.0224806
-0.0208894
-0.0193603
-0.0178928
-0.016486
-0.0151394
-0.0138522
-0.0126235
-0.0114527
-0.010339
-0.00928163
-0.00827979
-0.00733279
-0.00643994
-0.00560061
-0.00481418
-0.00408018
-0.00339801
-0.00276765
-0.0021881
-0.00166088
-0.00118216
-0.000761136
-0.000376325
-8.12441e-05
0.000253712
0.000298221
0.000811267
-0.23512
-0.234392
-0.233579
-0.232703
-0.231774
-0.230794
-0.22976
-0.228674
-0.227536
-0.226346
-0.225105
-0.223812
-0.222467
-0.221069
-0.219617
-0.218109
-0.216566
-0.214932
-0.213255
-0.21153
-0.209752
-0.20792
-0.206033
-0.204091
-0.202093
-0.200039
-0.197928
-0.19576
-0.193534
-0.191251
-0.18891
-0.186511
-0.184056
-0.181543
-0.178973
-0.176348
-0.173668
-0.170934
-0.168148
-0.165311
-0.162425
-0.159492
-0.156513
-0.153492
-0.150431
-0.147332
-0.144199
-0.141034
-0.137841
-0.134624
-0.131386
-0.12813
-0.124861
-0.121582
-0.118297
-0.11501
-0.111725
-0.108446
-0.105177
-0.101921
-0.0986833
-0.0954664
-0.0922743
-0.0891104
-0.0859781
-0.0828807
-0.0798212
-0.0768026
-0.0738277
-0.0708989
-0.0680188
-0.0651895
-0.0624132
-0.0596916
-0.0570266
-0.0544195
-0.0518718
-0.0493846
-0.0469589
-0.0445956
-0.0422952
-0.0400585
-0.0378857
-0.0357772
-0.033733
-0.0317532
-0.0298376
-0.0279862
-0.0261986
-0.0244745
-0.0228134
-0.0212148
-0.0196781
-0.0182028
-0.0167881
-0.0154333
-0.0141379
-0.0129009
-0.0117216
-0.0105994
-0.00953336
-0.00852286
-0.00756716
-0.00666555
-0.00581742
-0.00502211
-0.00427918
-0.00358793
-0.00294844
-0.00235937
-0.00182273
-0.00133341
-0.000902635
-0.000504767
-0.000199271
0.000150819
0.000217588
0.000703935
-0.23529
-0.234531
-0.233741
-0.232876
-0.231955
-0.230985
-0.229965
-0.228891
-0.227766
-0.226588
-0.22536
-0.224079
-0.222747
-0.221359
-0.219913
-0.218403
-0.216864
-0.21526
-0.213603
-0.21189
-0.210123
-0.208301
-0.206424
-0.204491
-0.202502
-0.200457
-0.198353
-0.196193
-0.193974
-0.191698
-0.189363
-0.18697
-0.184519
-0.18201
-0.179444
-0.176822
-0.174145
-0.171414
-0.16863
-0.165794
-0.162909
-0.159976
-0.156998
-0.153976
-0.150915
-0.147815
-0.144681
-0.141515
-0.138322
-0.135103
-0.131864
-0.128607
-0.125336
-0.122056
-0.11877
-0.115482
-0.112196
-0.108916
-0.105646
-0.10239
-0.0991511
-0.0959335
-0.0927407
-0.0895762
-0.0864432
-0.083345
-0.0802848
-0.0772653
-0.0742893
-0.0713593
-0.0684778
-0.065647
-0.0628688
-0.0601452
-0.0574777
-0.054868
-0.0523173
-0.0498268
-0.0473974
-0.0450301
-0.0427254
-0.0404839
-0.0383061
-0.0361921
-0.0341422
-0.0321563
-0.0302343
-0.0283762
-0.0265816
-0.0248502
-0.0231816
-0.0215752
-0.0200305
-0.0185469
-0.0171238
-0.0157605
-0.0144563
-0.0132104
-0.0120221
-0.0108908
-0.00981553
-0.00879569
-0.00783054
-0.00691938
-0.00606158
-0.00525644
-0.00450356
-0.00380209
-0.00315224
-0.00255224
-0.00200466
-0.00150304
-0.00106056
-0.000647792
-0.000328837
3.7236e-05
0.000132042
0.000596891
-0.235374
-0.234553
-0.233798
-0.232952
-0.232042
-0.231088
-0.230085
-0.22903
-0.227922
-0.226762
-0.22555
-0.224285
-0.222969
-0.221598
-0.220173
-0.218701
-0.217152
-0.215555
-0.213908
-0.212208
-0.210453
-0.208643
-0.206777
-0.204855
-0.202877
-0.200841
-0.198747
-0.196595
-0.194385
-0.192116
-0.189789
-0.187403
-0.184958
-0.182455
-0.179894
-0.177277
-0.174604
-0.171877
-0.169096
-0.166263
-0.163381
-0.16045
-0.157474
-0.154454
-0.151394
-0.148296
-0.145163
-0.141998
-0.138805
-0.135587
-0.132348
-0.129092
-0.125822
-0.122542
-0.119257
-0.11597
-0.112684
-0.109405
-0.106136
-0.10288
-0.099642
-0.0964251
-0.0932328
-0.0900688
-0.0869362
-0.0838384
-0.0807783
-0.0777587
-0.0747825
-0.0718521
-0.0689699
-0.066138
-0.0633585
-0.0606333
-0.0579639
-0.0553518
-0.0527984
-0.0503048
-0.0478719
-0.0455007
-0.0431918
-0.0409456
-0.0387627
-0.0366433
-0.0345876
-0.0325955
-0.0306671
-0.0288021
-0.0270003
-0.0252614
-0.0235849
-0.0219704
-0.0204174
-0.0189253
-0.0174934
-0.016121
-0.0148076
-0.0135523
-0.0123545
-0.0112134
-0.0101282
-0.00909826
-0.00812286
-0.00720124
-0.0063328
-0.00551678
-0.00475278
-0.00403981
-0.0033782
-0.00276571
-0.0022055
-0.00168973
-0.00123336
-0.000803851
-0.000468104
-8.51438e-05
4.3144e-05
0.000492524
-0.235355
-0.234425
-0.23371
-0.232893
-0.231999
-0.231065
-0.230086
-0.229055
-0.22797
-0.226832
-0.225641
-0.224398
-0.2231
-0.221746
-0.220332
-0.218862
-0.217339
-0.215766
-0.214138
-0.212454
-0.210715
-0.208919
-0.207067
-0.205158
-0.203191
-0.201167
-0.199085
-0.196944
-0.194744
-0.192485
-0.190166
-0.187788
-0.185352
-0.182856
-0.180303
-0.177692
-0.175026
-0.172304
-0.169528
-0.166701
-0.163823
-0.160896
-0.157924
-0.154908
-0.151852
-0.148757
-0.145627
-0.142465
-0.139276
-0.136061
-0.132825
-0.129572
-0.126305
-0.123028
-0.119745
-0.116461
-0.113178
-0.109902
-0.106635
-0.103382
-0.100146
-0.0969319
-0.093742
-0.0905801
-0.0874495
-0.0843535
-0.0812949
-0.0782766
-0.0753013
-0.0723716
-0.0694897
-0.0666578
-0.0638779
-0.0611518
-0.0584812
-0.0558674
-0.0533119
-0.0508157
-0.0483799
-0.0460052
-0.0436923
-0.0414418
-0.0392541
-0.0371295
-0.035068
-0.0330699
-0.0311349
-0.029263
-0.027454
-0.0257075
-0.024023
-0.0224003
-0.0208387
-0.0193376
-0.0178966
-0.0165148
-0.0151916
-0.0139264
-0.0127184
-0.0115669
-0.0104711
-0.00943023
-0.00844367
-0.00751063
-0.00663048
-0.0058024
-0.005026
-0.00430012
-0.00362522
-0.00299859
-0.00242388
-0.00189208
-0.00141943
-0.00097136
-0.000615361
-0.000214448
-4.78969e-05
0.000392417
-0.23411
-0.233431
-0.232653
-0.231781
-0.230873
-0.229924
-0.228924
-0.227869
-0.226761
-0.225598
-0.224381
-0.223108
-0.221778
-0.220386
-0.218921
-0.217419
-0.215869
-0.214263
-0.2126
-0.210879
-0.209102
-0.207266
-0.205373
-0.203421
-0.201411
-0.199342
-0.197214
-0.195026
-0.192779
-0.190472
-0.188105
-0.185678
-0.183193
-0.180649
-0.178047
-0.175389
-0.172675
-0.169907
-0.167087
-0.164216
-0.161297
-0.158331
-0.155322
-0.152272
-0.149183
-0.146059
-0.142904
-0.13972
-0.136511
-0.133281
-0.130033
-0.126772
-0.123501
-0.120224
-0.116944
-0.113667
-0.110396
-0.107135
-0.103887
-0.100656
-0.097446
-0.0942605
-0.0911028
-0.0879761
-0.0848837
-0.0818283
-0.078813
-0.0758403
-0.0729127
-0.0700324
-0.0672018
-0.0644227
-0.0616968
-0.059026
-0.0564115
-0.0538547
-0.0513567
-0.0489186
-0.046541
-0.0442248
-0.0419704
-0.0397783
-0.0376488
-0.0355819
-0.0335779
-0.0316366
-0.0297579
-0.0279417
-0.0261875
-0.024495
-0.0228638
-0.0212934
-0.0197832
-0.0183326
-0.016941
-0.0156077
-0.014332
-0.0131132
-0.0119505
-0.0108433
-0.00979068
-0.00879203
-0.00784652
-0.00695352
-0.00611213
-0.00532198
-0.00458171
-0.0038919
-0.0032494
-0.00265824
-0.00210849
-0.00161711
-0.00114869
-0.000769034
-0.000348889
-0.000140147
0.000297518
-0.233554
-0.232904
-0.232169
-0.23133
-0.230457
-0.229548
-0.228588
-0.227572
-0.226501
-0.225375
-0.224192
-0.222952
-0.221652
-0.220285
-0.218837
-0.217351
-0.215829
-0.214251
-0.212613
-0.210916
-0.209161
-0.207346
-0.205471
-0.203538
-0.201545
-0.199493
-0.197381
-0.195208
-0.192975
-0.190682
-0.188329
-0.185915
-0.183442
-0.180911
-0.178321
-0.175674
-0.172971
-0.170214
-0.167405
-0.164544
-0.161635
-0.158679
-0.15568
-0.152639
-0.14956
-0.146446
-0.143299
-0.140125
-0.136925
-0.133704
-0.130465
-0.127213
-0.12395
-0.120682
-0.117411
-0.114143
-0.11088
-0.107626
-0.104386
-0.101163
-0.0979599
-0.0947813
-0.0916302
-0.0885097
-0.085423
-0.082373
-0.0793625
-0.0763942
-0.0734704
-0.0705936
-0.0677657
-0.0649887
-0.0622645
-0.0595946
-0.0569806
-0.0544236
-0.0519248
-0.0494852
-0.0471056
-0.0447867
-0.042529
-0.0403331
-0.0381991
-0.0361272
-0.0341176
-0.0321703
-0.030285
-0.0284616
-0.0266998
-0.0249992
-0.0233595
-0.0217801
-0.0202605
-0.0188001
-0.0173982
-0.0160543
-0.0147675
-0.0135373
-0.0123628
-0.0112433
-0.0101781
-0.00916639
-0.00820734
-0.00730031
-0.00644433
-0.00563902
-0.00488285
-0.00417648
-0.00351639
-0.0029068
-0.00233725
-0.00182466
-0.00133418
-0.00092767
-0.000486801
-0.000232853
0.000208322
-0.232053
-0.231365
-0.230576
-0.229755
-0.228897
-0.227988
-0.227023
-0.226002
-0.224922
-0.223784
-0.222586
-0.221327
-0.220001
-0.218591
-0.217058
-0.215583
-0.214053
-0.212454
-0.21079
-0.209063
-0.207274
-0.205424
-0.203513
-0.201542
-0.19951
-0.197418
-0.195264
-0.19305
-0.190774
-0.188438
-0.186042
-0.183585
-0.181069
-0.178494
-0.175863
-0.173175
-0.170432
-0.167637
-0.16479
-0.161895
-0.158953
-0.155967
-0.15294
-0.149874
-0.146773
-0.14364
-0.140478
-0.137292
-0.134083
-0.130857
-0.127617
-0.124367
-0.121111
-0.117853
-0.114596
-0.111344
-0.108102
-0.104873
-0.10166
-0.0984673
-0.0952984
-0.0921565
-0.0890447
-0.0859662
-0.0829239
-0.0799204
-0.0769585
-0.0740405
-0.0711688
-0.0683454
-0.0655722
-0.0628511
-0.0601836
-0.0575712
-0.0550152
-0.0525166
-0.0500766
-0.0476958
-0.045375
-0.0431149
-0.0409157
-0.0387778
-0.0367014
-0.0346867
-0.0327335
-0.0308418
-0.0290115
-0.0272421
-0.0255335
-0.0238852
-0.0222966
-0.0207674
-0.0192968
-0.0178843
-0.0165293
-0.015231
-0.0139887
-0.0128017
-0.0116692
-0.0105904
-0.00956461
-0.00859094
-0.00766871
-0.00679686
-0.00597501
-0.00520147
-0.00447688
-0.00379754
-0.00316758
-0.00257647
-0.00204033
-0.00152613
-0.00108992
-0.000626674
-0.000325381
0.000125034
-0.230775
-0.230153
-0.229442
-0.228695
-0.227906
-0.227064
-0.226165
-0.225206
-0.224186
-0.223105
-0.22196
-0.220752
-0.219478
-0.218132
-0.216699
-0.215123
-0.213627
-0.212085
-0.210467
-0.208778
-0.207022
-0.205201
-0.203318
-0.201374
-0.199368
-0.197301
-0.195171
-0.19298
-0.190727
-0.188412
-0.186037
-0.183601
-0.181105
-0.178551
-0.175938
-0.17327
-0.170546
-0.16777
-0.164942
-0.162065
-0.159141
-0.156173
-0.153164
-0.150116
-0.147032
-0.143917
-0.140772
-0.137603
-0.134411
-0.131202
-0.127979
-0.124745
-0.121505
-0.118263
-0.115021
-0.111785
-0.108557
-0.105342
-0.102143
-0.0989634
-0.0958071
-0.0926772
-0.0895768
-0.086509
-0.0834767
-0.0804826
-0.0775292
-0.0746191
-0.0717544
-0.0689372
-0.0661695
-0.0634531
-0.0607894
-0.05818
-0.0556262
-0.053129
-0.0506895
-0.0483085
-0.0459867
-0.0437247
-0.041523
-0.0393818
-0.0373014
-0.0352819
-0.0333233
-0.0314255
-0.0295883
-0.0278116
-0.0260949
-0.0244378
-0.02284
-0.0213009
-0.0198199
-0.0183965
-0.0170299
-0.0157194
-0.0144645
-0.0132642
-0.0121179
-0.0110248
-0.009984
-0.00899468
-0.00805611
-0.00716717
-0.00632742
-0.00553511
-0.00479076
-0.0040906
-0.00343845
-0.00282416
-0.00226231
-0.00172285
-0.00125453
-0.000767155
-0.000417166
4.7678e-05
-0.228946
-0.228439
-0.227852
-0.227208
-0.22651
-0.225757
-0.224943
-0.224065
-0.223121
-0.222111
-0.221034
-0.21989
-0.218674
-0.217382
-0.216003
-0.214528
-0.212944
-0.211446
-0.209896
-0.208266
-0.206557
-0.204775
-0.202928
-0.201018
-0.199045
-0.197008
-0.194909
-0.192746
-0.190521
-0.188234
-0.185886
-0.183476
-0.181006
-0.178476
-0.175889
-0.173244
-0.170545
-0.167792
-0.164988
-0.162134
-0.159233
-0.156289
-0.153302
-0.150277
-0.147216
-0.144122
-0.141
-0.137852
-0.134682
-0.131494
-0.128292
-0.125079
-0.121859
-0.118636
-0.115414
-0.112196
-0.108987
-0.105789
-0.102607
-0.0994439
-0.0963032
-0.0931881
-0.0901018
-0.0870473
-0.0840274
-0.0810449
-0.0781023
-0.075202
-0.0723463
-0.0695371
-0.0667766
-0.0640663
-0.0614079
-0.0588028
-0.0562524
-0.0537577
-0.0513198
-0.0489395
-0.0466176
-0.0443546
-0.0421509
-0.040007
-0.0379231
-0.0358992
-0.0339355
-0.0320318
-0.0301881
-0.028404
-0.0266793
-0.0250136
-0.0234064
-0.0218572
-0.0203656
-0.0189308
-0.0175523
-0.0162293
-0.0149611
-0.013747
-0.0125862
-0.0114779
-0.0104212
-0.00941527
-0.00845932
-0.00755218
-0.00669333
-0.00588096
-0.00511544
-0.00439306
-0.0037171
-0.00307818
-0.00248877
-0.00192265
-0.00142025
-0.000907023
-0.000507667
-2.38197e-05
-0.226149
-0.225738
-0.225233
-0.224655
-0.224014
-0.223307
-0.222529
-0.22168
-0.220759
-0.219767
-0.218703
-0.217565
-0.216351
-0.215057
-0.21367
-0.212178
-0.210583
-0.209077
-0.207518
-0.205869
-0.204134
-0.202328
-0.200459
-0.198525
-0.196526
-0.194462
-0.192335
-0.190145
-0.187891
-0.185575
-0.183197
-0.180759
-0.17826
-0.175703
-0.173089
-0.170419
-0.167696
-0.164921
-0.162096
-0.159224
-0.156307
-0.153348
-0.150351
-0.147317
-0.144251
-0.141155
-0.138034
-0.13489
-0.131728
-0.128551
-0.125363
-0.122167
-0.118967
-0.115768
-0.112573
-0.109385
-0.106209
-0.103047
-0.0999032
-0.096781
-0.0936836
-0.0906141
-0.0875754
-0.0845704
-0.0816018
-0.0786721
-0.0757837
-0.0729388
-0.0701395
-0.0673877
-0.0646851
-0.0620335
-0.0594341
-0.0568884
-0.0543974
-0.0519621
-0.0495835
-0.0472623
-0.044999
-0.0427942
-0.0406483
-0.0385614
-0.0365337
-0.0345653
-0.0326561
-0.030806
-0.0290148
-0.0272822
-0.0256078
-0.0239912
-0.022432
-0.0209295
-0.0194831
-0.0180923
-0.0167564
-0.0154745
-0.0142461
-0.0130701
-0.011946
-0.0108727
-0.00984929
-0.00887504
-0.00794871
-0.00706968
-0.00623615
-0.00544822
-0.00470242
-0.00400124
-0.00333646
-0.00271793
-0.00212391
-0.00158598
-0.00104524
-0.000596374
-8.95646e-05
-0.223292
-0.223105
-0.222774
-0.222346
-0.221841
-0.221258
-0.220596
-0.219855
-0.219036
-0.218139
-0.217164
-0.21611
-0.214975
-0.213756
-0.212445
-0.211037
-0.209518
-0.207931
-0.206437
-0.20488
-0.203222
-0.20148
-0.199668
-0.197787
-0.195836
-0.193819
-0.191736
-0.189588
-0.187376
-0.1851
-0.182762
-0.180362
-0.177901
-0.175381
-0.172803
-0.170169
-0.167481
-0.164741
-0.161951
-0.159113
-0.15623
-0.153305
-0.15034
-0.14734
-0.144306
-0.141242
-0.138152
-0.13504
-0.131908
-0.12876
-0.125601
-0.122434
-0.119262
-0.11609
-0.112921
-0.109758
-0.106606
-0.103468
-0.100347
-0.0972459
-0.0941689
-0.0911188
-0.0880984
-0.0851106
-0.0821581
-0.0792433
-0.0763686
-0.0735364
-0.0707485
-0.068007
-0.0653137
-0.06267
-0.0600775
-0.0575375
-0.0550511
-0.0526194
-0.0502433
-0.0479235
-0.0456606
-0.0434551
-0.0413075
-0.0392179
-0.0371867
-0.0352138
-0.0332992
-0.0314428
-0.0296445
-0.0279039
-0.0262207
-0.0245945
-0.0230248
-0.0215111
-0.0200528
-0.0186493
-0.0172998
-0.0160037
-0.0147602
-0.0135685
-0.0124276
-0.0113369
-0.0102952
-0.00930166
-0.00835516
-0.00745487
-0.00659909
-0.00578755
-0.0050172
-0.00428952
-0.00359774
-0.00294878
-0.00232574
-0.00175117
-0.00118137
-0.000683167
-0.000149858
-0.219972
-0.21987
-0.21964
-0.219308
-0.21888
-0.218358
-0.217749
-0.217053
-0.216272
-0.215407
-0.214459
-0.213427
-0.212311
-0.211107
-0.209812
-0.20841
-0.20687
-0.205283
-0.203757
-0.20216
-0.20048
-0.198726
-0.196899
-0.195
-0.193032
-0.190998
-0.188899
-0.186734
-0.184504
-0.182211
-0.179856
-0.17744
-0.174963
-0.172429
-0.169837
-0.167191
-0.164492
-0.161743
-0.158945
-0.156102
-0.153217
-0.150291
-0.147328
-0.144332
-0.141305
-0.138251
-0.135174
-0.132077
-0.128963
-0.125837
-0.122702
-0.119561
-0.116419
-0.113279
-0.110144
-0.107019
-0.103906
-0.100809
-0.0977319
-0.094677
-0.0916476
-0.0886467
-0.0856771
-0.0827415
-0.0798424
-0.0769821
-0.0741629
-0.0713868
-0.0686558
-0.0659717
-0.063336
-0.0607503
-0.0582159
-0.0557339
-0.0533054
-0.0509314
-0.0486125
-0.0463495
-0.0441429
-0.041993
-0.0399003
-0.0378648
-0.0358868
-0.0339661
-0.0321028
-0.0302966
-0.0285472
-0.0268545
-0.0252179
-0.023637
-0.0221113
-0.0206402
-0.0192231
-0.0178593
-0.0165481
-0.0152886
-0.0140801
-0.0129217
-0.0118125
-0.0107514
-0.00973767
-0.00876996
-0.00784734
-0.00696827
-0.00613203
-0.00533608
-0.00458077
-0.003861
-0.00318055
-0.00252751
-0.00191559
-0.00131544
-0.000768444
-0.000205519
-0.215797
-0.215932
-0.215927
-0.215799
-0.215559
-0.215213
-0.214767
-0.214224
-0.213588
-0.212861
-0.212045
-0.211139
-0.210144
-0.209058
-0.207878
-0.206598
-0.205204
-0.203662
-0.202133
-0.200606
-0.199025
-0.197372
-0.195633
-0.193813
-0.191918
-0.189953
-0.187919
-0.185816
-0.183647
-0.181412
-0.179112
-0.17675
-0.174326
-0.171843
-0.169302
-0.166705
-0.164055
-0.161353
-0.158601
-0.155804
-0.152962
-0.15008
-0.14716
-0.144206
-0.14122
-0.138207
-0.135168
-0.132109
-0.129033
-0.125943
-0.122843
-0.119736
-0.116627
-0.113519
-0.110415
-0.107319
-0.104235
-0.101165
-0.0981139
-0.0950836
-0.0920776
-0.0890988
-0.0861501
-0.083234
-0.0803531
-0.0775098
-0.0747063
-0.0719446
-0.0692268
-0.0665546
-0.0639295
-0.0613533
-0.058827
-0.0563521
-0.0539295
-0.0515601
-0.0492448
-0.0469843
-0.044779
-0.0426295
-0.0405361
-0.0384989
-0.0365181
-0.0345938
-0.0327258
-0.030914
-0.0291581
-0.0274579
-0.025813
-0.0242229
-0.0226872
-0.0212051
-0.0197762
-0.0183997
-0.0170748
-0.0158009
-0.014577
-0.0134023
-0.0122758
-0.0111965
-0.0101634
-0.00917538
-0.00823121
-0.00732954
-0.00646917
-0.00564816
-0.00486566
-0.00411832
-0.00340675
-0.00272401
-0.00207536
-0.00144477
-0.000850844
-0.000256908
-0.212601
-0.212746
-0.212758
-0.212651
-0.212429
-0.212098
-0.211665
-0.211132
-0.210504
-0.209781
-0.208966
-0.20806
-0.207065
-0.205982
-0.204816
-0.203572
-0.20224
-0.200728
-0.199088
-0.19749
-0.195863
-0.194159
-0.192377
-0.190522
-0.188598
-0.186604
-0.184542
-0.182413
-0.180217
-0.177958
-0.175635
-0.173251
-0.170807
-0.168306
-0.165748
-0.163137
-0.160474
-0.157762
-0.155004
-0.152203
-0.14936
-0.14648
-0.143566
-0.14062
-0.137647
-0.134649
-0.13163
-0.128594
-0.125543
-0.122483
-0.119416
-0.116346
-0.113276
-0.110211
-0.107153
-0.104105
-0.101072
-0.0980563
-0.0950609
-0.0920889
-0.0891431
-0.0862265
-0.0833414
-0.0804905
-0.077676
-0.0749002
-0.072165
-0.0694725
-0.0668242
-0.064222
-0.0616671
-0.059161
-0.0567049
-0.0542997
-0.0519465
-0.049646
-0.047399
-0.0452059
-0.0430672
-0.0409832
-0.0389543
-0.0369804
-0.0350617
-0.033198
-0.0313893
-0.0296354
-0.0279358
-0.0262903
-0.0246984
-0.0231597
-0.0216734
-0.0202391
-0.018856
-0.0175234
-0.0162406
-0.0150065
-0.0138205
-0.0126814
-0.0115884
-0.0105401
-0.00953573
-0.00857374
-0.00765301
-0.00677185
-0.00592899
-0.00512236
-0.0043504
-0.00361066
-0.00290094
-0.00221871
-0.00156011
-0.00092358
-0.000301422
-0.208305
-0.208592
-0.208745
-0.208772
-0.208678
-0.208468
-0.208146
-0.207718
-0.207186
-0.206554
-0.205823
-0.204994
-0.204067
-0.203042
-0.201915
-0.200679
-0.199315
-0.197864
-0.196477
-0.195016
-0.193464
-0.19183
-0.190117
-0.18833
-0.186469
-0.184537
-0.182534
-0.180463
-0.178325
-0.176121
-0.173853
-0.171524
-0.169134
-0.166686
-0.164183
-0.161625
-0.159016
-0.156358
-0.153653
-0.150905
-0.148117
-0.145291
-0.142431
-0.139539
-0.13662
-0.133676
-0.130711
-0.127728
-0.124732
-0.121724
-0.11871
-0.115692
-0.112675
-0.10966
-0.106652
-0.103655
-0.10067
-0.0977022
-0.0947535
-0.0918271
-0.0889257
-0.0860522
-0.083209
-0.0803986
-0.0776232
-0.0748849
-0.0721859
-0.0695279
-0.0669127
-0.0643419
-0.0618169
-0.0593391
-0.0569096
-0.0545295
-0.0521997
-0.0499209
-0.047694
-0.0455195
-0.0433977
-0.0413291
-0.0393139
-0.0373522
-0.0354442
-0.0335897
-0.0317887
-0.0300408
-0.028346
-0.0267038
-0.0251137
-0.0235754
-0.0220882
-0.0206515
-0.0192647
-0.0179271
-0.0166378
-0.015396
-0.0142008
-0.0130513
-0.0119464
-0.0108849
-0.00986595
-0.00888785
-0.00794974
-0.00704945
-0.00618637
-0.00535728
-0.00456236
-0.0037963
-0.00306137
-0.00234787
-0.00166319
-0.000987538
-0.000340113
-0.203747
-0.204171
-0.204461
-0.204623
-0.204658
-0.204569
-0.204362
-0.204044
-0.203617
-0.203084
-0.202447
-0.201708
-0.200868
-0.199926
-0.198881
-0.197733
-0.196491
-0.195196
-0.193857
-0.192434
-0.190929
-0.189348
-0.187694
-0.185965
-0.184163
-0.182289
-0.180344
-0.178331
-0.17625
-0.174103
-0.171892
-0.169619
-0.167286
-0.164894
-0.162447
-0.159945
-0.157393
-0.154792
-0.152144
-0.149454
-0.146722
-0.143954
-0.141151
-0.138317
-0.135455
-0.132569
-0.129661
-0.126736
-0.123796
-0.120846
-0.117888
-0.114925
-0.111963
-0.109003
-0.106048
-0.103103
-0.100171
-0.0972533
-0.0943543
-0.0914763
-0.0886223
-0.0857947
-0.0829961
-0.0802288
-0.0774951
-0.0747972
-0.0721368
-0.0695159
-0.0669363
-0.0643994
-0.0619066
-0.0594594
-0.0570588
-0.0547059
-0.0524017
-0.0501469
-0.0479422
-0.0457882
-0.0436854
-0.041634
-0.0396345
-0.0376869
-0.0357913
-0.0339477
-0.0321559
-0.0304159
-0.0287273
-0.0270898
-0.025503
-0.0239665
-0.0224796
-0.0210419
-0.0196525
-0.0183109
-0.0170163
-0.0157677
-0.0145644
-0.0134053
-0.0122894
-0.0112156
-0.0101828
-0.00918931
-0.00823452
-0.0073158
-0.00643318
-0.00558235
-0.00476515
-0.00397362
-0.00321416
-0.00247058
-0.00176045
-0.00104784
-0.000375528
-0.199196
-0.19975
-0.200168
-0.200456
-0.200611
-0.200637
-0.200541
-0.200328
-0.200002
-0.199567
-0.199024
-0.198376
-0.197624
-0.196769
-0.195814
-0.194762
-0.193625
-0.192413
-0.191126
-0.189762
-0.18832
-0.186803
-0.185212
-0.183545
-0.181805
-0.179991
-0.178107
-0.176153
-0.174132
-0.172044
-0.169892
-0.167677
-0.165403
-0.16307
-0.160681
-0.158238
-0.155744
-0.153202
-0.150613
-0.147981
-0.145309
-0.1426
-0.139856
-0.137081
-0.134278
-0.13145
-0.128601
-0.125734
-0.122852
-0.119959
-0.117057
-0.114152
-0.111244
-0.108339
-0.105439
-0.102547
-0.0996662
-0.0967998
-0.0939506
-0.0911212
-0.0883145
-0.0855329
-0.0827789
-0.0800549
-0.0773629
-0.074705
-0.0720833
-0.0694995
-0.0669552
-0.0644521
-0.0619915
-0.0595747
-0.0572029
-0.0548772
-0.0525984
-0.0503674
-0.0481848
-0.0460512
-0.0439672
-0.041933
-0.039949
-0.0380153
-0.036132
-0.0342992
-0.0325167
-0.0307843
-0.0291019
-0.027469
-0.0258854
-0.0243506
-0.022864
-0.0214251
-0.0200332
-0.0186876
-0.0173875
-0.0161321