/*--------------------------------*- C++ -*----------------------------------*\
  =========                 |
  \\      /  F ield         | OpenFOAM: The Open Source CFD Toolbox
   \\    /   O peration     | Website:  https://openfoam.org
    \\  /    A nd           | Version:  7
     \\/     M anipulation  |
\*---------------------------------------------------------------------------*/
FoamFile
{
    version     2.0;
    format      ascii;
    class       volScalarField;
    location    "35";
    object      p;
}
// * * * * * * * * * * * * * * * * * * * * * * * * * * * * * * * * * * * * * //

dimensions      [0 2 -2 0 0 0 0];

internalField   nonuniform List<scalar> 
49200
(
-0.208503
-0.21038
-0.211248
-0.211993
-0.212619
-0.213172
-0.213688
-0.214185
-0.214667
-0.215134
-0.215581
-0.216
-0.216382
-0.216719
-0.217002
-0.217224
-0.217377
-0.217455
-0.217456
-0.21738
-0.21723
-0.217018
-0.216756
-0.216457
-0.216164
-0.208608
-0.210471
-0.211333
-0.212073
-0.212695
-0.213244
-0.213757
-0.214251
-0.214731
-0.215197
-0.215642
-0.216059
-0.21644
-0.216776
-0.217059
-0.217279
-0.217431
-0.217508
-0.217506
-0.217426
-0.217271
-0.217052
-0.216782
-0.21647
-0.216168
-0.208818
-0.210653
-0.211503
-0.212233
-0.212847
-0.213388
-0.213896
-0.214385
-0.21486
-0.215322
-0.215764
-0.216178
-0.216557
-0.216892
-0.217172
-0.217391
-0.217541
-0.217614
-0.217607
-0.217519
-0.217353
-0.21712
-0.216834
-0.216496
-0.216174
-0.20913
-0.210925
-0.211757
-0.212471
-0.213072
-0.213604
-0.214102
-0.214583
-0.215052
-0.215508
-0.215945
-0.216355
-0.216731
-0.217062
-0.217341
-0.217557
-0.217703
-0.217771
-0.217757
-0.217657
-0.217475
-0.21722
-0.216909
-0.216533
-0.216177
-0.209541
-0.211283
-0.212091
-0.212786
-0.21337
-0.213887
-0.214372
-0.214843
-0.215303
-0.21575
-0.216181
-0.216586
-0.216957
-0.217284
-0.217559
-0.217772
-0.217913
-0.217975
-0.217951
-0.217837
-0.217632
-0.21735
-0.217005
-0.216575
-0.216169
-0.210047
-0.211723
-0.212503
-0.213172
-0.213735
-0.214233
-0.214704
-0.21516
-0.215608
-0.216045
-0.216467
-0.216864
-0.217229
-0.217551
-0.217822
-0.21803
-0.218166
-0.21822
-0.218184
-0.218053
-0.217822
-0.217504
-0.217118
-0.216621
-0.216142
-0.210641
-0.212242
-0.212987
-0.213626
-0.214163
-0.21464
-0.21509
-0.21553
-0.215962
-0.216387
-0.216797
-0.217185
-0.217542
-0.217857
-0.218122
-0.218324
-0.218454
-0.218499
-0.218451
-0.218299
-0.218038
-0.217679
-0.217242
-0.216666
-0.216084
-0.211317
-0.212834
-0.21354
-0.214143
-0.21465
-0.215101
-0.215528
-0.215946
-0.21636
-0.216768
-0.217164
-0.21754
-0.217887
-0.218194
-0.218451
-0.218646
-0.218768
-0.218805
-0.218742
-0.218569
-0.218275
-0.217868
-0.217374
-0.216707
-0.215981
-0.212069
-0.213493
-0.214155
-0.214719
-0.215191
-0.21561
-0.216009
-0.216402
-0.216794
-0.217182
-0.217561
-0.217922
-0.218256
-0.218552
-0.2188
-0.218987
-0.2191
-0.219126
-0.219049
-0.218854
-0.218525
-0.218066
-0.217507
-0.216746
-0.215809
-0.212888
-0.214213
-0.214827
-0.215347
-0.215779
-0.216162
-0.216529
-0.216892
-0.217257
-0.217621
-0.217979
-0.218322
-0.21864
-0.218922
-0.219159
-0.219335
-0.219439
-0.219453
-0.219361
-0.219143
-0.21878
-0.218264
-0.217636
-0.216787
-0.215513
-0.213768
-0.21499
-0.215551
-0.216022
-0.216409
-0.216751
-0.217079
-0.217408
-0.217741
-0.218077
-0.218409
-0.21873
-0.219028
-0.219295
-0.219516
-0.219681
-0.219772
-0.219774
-0.219666
-0.219426
-0.219029
-0.218456
-0.217756
-0.216843
-0.215046
-0.214701
-0.215816
-0.216321
-0.216738
-0.217075
-0.217371
-0.217655
-0.217943
-0.218239
-0.218541
-0.218843
-0.219137
-0.219412
-0.219658
-0.219862
-0.220011
-0.220088
-0.220075
-0.219951
-0.219689
-0.219259
-0.218632
-0.217844
-0.21682
-0.214772
-0.21568
-0.216687
-0.217133
-0.217491
-0.217773
-0.218015
-0.218249
-0.21849
-0.218743
-0.219005
-0.219272
-0.219534
-0.219781
-0.220002
-0.220185
-0.220314
-0.220374
-0.220345
-0.220202
-0.219917
-0.219455
-0.218779
-0.217901
-0.216774
-0.214347
-0.216699
-0.217597
-0.217981
-0.218276
-0.218495
-0.218678
-0.218856
-0.219043
-0.219245
-0.219462
-0.219687
-0.219912
-0.220126
-0.220317
-0.220473
-0.220579
-0.220618
-0.220568
-0.220405
-0.220096
-0.219601
-0.21888
-0.217906
-0.216735
-0.213758
-0.217752
-0.218543
-0.218861
-0.219087
-0.219239
-0.219356
-0.219469
-0.219595
-0.219741
-0.219905
-0.220081
-0.220262
-0.220437
-0.220594
-0.220719
-0.220797
-0.220809
-0.220735
-0.220546
-0.22021
-0.21968
-0.218918
-0.21783
-0.21669
-0.213024
-0.218835
-0.21952
-0.219769
-0.219923
-0.220001
-0.220044
-0.220085
-0.220142
-0.220223
-0.220326
-0.220448
-0.220579
-0.220709
-0.220825
-0.220912
-0.220956
-0.220938
-0.220833
-0.220613
-0.220245
-0.219674
-0.218879
-0.217646
-0.216626
-0.212148
-0.219943
-0.220526
-0.220705
-0.22078
-0.220777
-0.220738
-0.220699
-0.220679
-0.220687
-0.220723
-0.220782
-0.220856
-0.220934
-0.221003
-0.221048
-0.221052
-0.220996
-0.220854
-0.220598
-0.22019
-0.219567
-0.218747
-0.217325
-0.21652
-0.211137
-0.221076
-0.221561
-0.221665
-0.221656
-0.221565
-0.221437
-0.221309
-0.221203
-0.221129
-0.22109
-0.221079
-0.22109
-0.221109
-0.221125
-0.221121
-0.221079
-0.220979
-0.220794
-0.220491
-0.220038
-0.219346
-0.218512
-0.216845
-0.216344
-0.210012
-0.222233
-0.222623
-0.22265
-0.222552
-0.222365
-0.222138
-0.221913
-0.221712
-0.221549
-0.221426
-0.221338
-0.221278
-0.221232
-0.221188
-0.221129
-0.221035
-0.220884
-0.220648
-0.220291
-0.219784
-0.219002
-0.218163
-0.216193
-0.216056
-0.208805
-0.223415
-0.223715
-0.22366
-0.223467
-0.223176
-0.222843
-0.222511
-0.222207
-0.221945
-0.22173
-0.221558
-0.22142
-0.221303
-0.221193
-0.221073
-0.22092
-0.220711
-0.220416
-0.219993
-0.219423
-0.218531
-0.217689
-0.215374
-0.215601
-0.20756
-0.224625
-0.224838
-0.224698
-0.224403
-0.224001
-0.223552
-0.223104
-0.222688
-0.22232
-0.222005
-0.221741
-0.221518
-0.221324
-0.221143
-0.220955
-0.220737
-0.220462
-0.220099
-0.219598
-0.218953
-0.217929
-0.217075
-0.214401
-0.214921
-0.206316
-0.225868
-0.225997
-0.225768
-0.225363
-0.224842
-0.224268
-0.223696
-0.223158
-0.222676
-0.222254
-0.221891
-0.221578
-0.221301
-0.221042
-0.22078
-0.22049
-0.22014
-0.219697
-0.219105
-0.218369
-0.217195
-0.216296
-0.213293
-0.213957
-0.205089
-0.227151
-0.227197
-0.226874
-0.226353
-0.225703
-0.224996
-0.22429
-0.223623
-0.223018
-0.222483
-0.222015
-0.221605
-0.221239
-0.220897
-0.220554
-0.220183
-0.219748
-0.219212
-0.218511
-0.217662
-0.216324
-0.215325
-0.212064
-0.212668
-0.20386
-0.228483
-0.228446
-0.228022
-0.227376
-0.226589
-0.22574
-0.224892
-0.224088
-0.223354
-0.222698
-0.22212
-0.221608
-0.221148
-0.220716
-0.220285
-0.219822
-0.219288
-0.218642
-0.217812
-0.21682
-0.215308
-0.214135
-0.210709
-0.211039
-0.202578
-0.229874
-0.229751
-0.229219
-0.228441
-0.227508
-0.226508
-0.22551
-0.224562
-0.223692
-0.22291
-0.222216
-0.221597
-0.221036
-0.220507
-0.219978
-0.219411
-0.218761
-0.217981
-0.216998
-0.215825
-0.21413
-0.212706
-0.209203
-0.209081
-0.201174
-0.231337
-0.231121
-0.230475
-0.229556
-0.228468
-0.227308
-0.226153
-0.225054
-0.224042
-0.223129
-0.222314
-0.221583
-0.220914
-0.220278
-0.219638
-0.21895
-0.218163
-0.217222
-0.216055
-0.214662
-0.212769
-0.211022
-0.20751
-0.206818
-0.19958
-0.232884
-0.232569
-0.231799
-0.230729
-0.229476
-0.228149
-0.22683
-0.225574
-0.224416
-0.223367
-0.222425
-0.221575
-0.220791
-0.220038
-0.219271
-0.218439
-0.217486
-0.216352
-0.214966
-0.213311
-0.211196
-0.209075
-0.205587
-0.204268
-0.197726
-0.234531
-0.234105
-0.233202
-0.23197
-0.230545
-0.229043
-0.227553
-0.226135
-0.224825
-0.223635
-0.222562
-0.221586
-0.220676
-0.219789
-0.218874
-0.217873
-0.216721
-0.215355
-0.213712
-0.211757
-0.20939
-0.206862
-0.203399
-0.201405
-0.195531
-0.236294
-0.235742
-0.234694
-0.233291
-0.231684
-0.229999
-0.228332
-0.226748
-0.225282
-0.223947
-0.222736
-0.221624
-0.220574
-0.219534
-0.218446
-0.217241
-0.215854
-0.214215
-0.212275
-0.209989
-0.207337
-0.204395
-0.200922
-0.19816
-0.192982
-0.238189
-0.237492
-0.236289
-0.234702
-0.232904
-0.231031
-0.229182
-0.227426
-0.2258
-0.224314
-0.222957
-0.221698
-0.220489
-0.219272
-0.217978
-0.216533
-0.214867
-0.212917
-0.210643
-0.208005
-0.205036
-0.201708
-0.198157
-0.194548
-0.190302
-0.240232
-0.239371
-0.237998
-0.236217
-0.234219
-0.232149
-0.230114
-0.228182
-0.226391
-0.224748
-0.223234
-0.221811
-0.220421
-0.218996
-0.217459
-0.215732
-0.213747
-0.211448
-0.20881
-0.205807
-0.202502
-0.198839
-0.195119
-0.190909
-0.18761
-0.24244
-0.241391
-0.239834
-0.237848
-0.235641
-0.233368
-0.231141
-0.229029
-0.227068
-0.225258
-0.223573
-0.221965
-0.220366
-0.218697
-0.216875
-0.214824
-0.21248
-0.209801
-0.20678
-0.203407
-0.199765
-0.195808
-0.191823
-0.187422
-0.183736
-0.244831
-0.243567
-0.241811
-0.239606
-0.237181
-0.2347
-0.232275
-0.229978
-0.227839
-0.225851
-0.223978
-0.222159
-0.220316
-0.218362
-0.216212
-0.213794
-0.211057
-0.207975
-0.204561
-0.200825
-0.196859
-0.192628
-0.188406
-0.183806
-0.179779
-0.24742
-0.245912
-0.243942
-0.241506
-0.238853
-0.236157
-0.23353
-0.231042
-0.228714
-0.226533
-0.224448
-0.222386
-0.220259
-0.217976
-0.215454
-0.21263
-0.209473
-0.205975
-0.202169
-0.198083
-0.193815
-0.189339
-0.184902
-0.180145
-0.175903
-0.250223
-0.248439
-0.246238
-0.243558
-0.24067
-0.237751
-0.234917
-0.232229
-0.229701
-0.227305
-0.224979
-0.222637
-0.220182
-0.217523
-0.214586
-0.211325
-0.207728
-0.203811
-0.199623
-0.195208
-0.190663
-0.185968
-0.181347
-0.176465
-0.172071
-0.253255
-0.251161
-0.248714
-0.245777
-0.242644
-0.239496
-0.236446
-0.233548
-0.230803
-0.228167
-0.225565
-0.222898
-0.220068
-0.216987
-0.213596
-0.209873
-0.205827
-0.201496
-0.196944
-0.192223
-0.187426
-0.182539
-0.17776
-0.172775
-0.168289
-0.256529
-0.254091
-0.25138
-0.248174
-0.244786
-0.241403
-0.238128
-0.235006
-0.232021
-0.229114
-0.226193
-0.223154
-0.219898
-0.216351
-0.212476
-0.208274
-0.203779
-0.199047
-0.194151
-0.189148
-0.184125
-0.179067
-0.174152
-0.169081
-0.164525
-0.260058
-0.257239
-0.254249
-0.250761
-0.24711
-0.243483
-0.239972
-0.236607
-0.233354
-0.230137
-0.22685
-0.223385
-0.219654
-0.215603
-0.211219
-0.20653
-0.201593
-0.196478
-0.191261
-0.186
-0.180772
-0.175561
-0.170525
-0.16538
-0.160767
-0.263852
-0.260617
-0.257332
-0.25355
-0.249627
-0.245745
-0.241983
-0.238352
-0.234797
-0.231222
-0.227515
-0.223572
-0.219319
-0.21473
-0.209822
-0.204647
-0.199281
-0.193802
-0.188287
-0.18279
-0.177375
-0.172026
-0.166879
-0.161667
-0.157001
-0.267922
-0.264235
-0.260639
-0.256552
-0.252346
-0.248198
-0.244166
-0.240238
-0.236338
-0.232353
-0.228169
-0.223692
-0.218876
-0.213724
-0.208284
-0.202631
-0.196853
-0.191032
-0.185239
-0.179524
-0.173937
-0.168461
-0.163211
-0.157937
-0.153217
-0.272274
-0.2681
-0.26418
-0.259777
-0.255279
-0.250849
-0.246522
-0.24226
-0.237963
-0.233509
-0.228787
-0.223726
-0.21831
-0.212579
-0.206606
-0.200488
-0.194317
-0.188174
-0.182124
-0.176206
-0.170459
-0.164864
-0.159515
-0.154184
-0.149408
-0.276914
-0.27222
-0.267963
-0.263234
-0.258431
-0.2537
-0.249048
-0.244405
-0.239653
-0.234665
-0.229345
-0.223652
-0.217609
-0.211288
-0.204791
-0.198222
-0.191678
-0.185234
-0.178943
-0.172835
-0.166938
-0.161231
-0.155787
-0.1504
-0.145567
-0.281846
-0.276599
-0.271994
-0.266929
-0.261807
-0.256752
-0.251734
-0.246656
-0.241384
-0.235794
-0.229817
-0.223451
-0.21676
-0.20985
-0.202838
-0.195838
-0.188941
-0.182213
-0.175695
-0.169409
-0.163368
-0.157554
-0.152019
-0.146579
-0.141688
-0.287068
-0.28124
-0.276279
-0.270868
-0.26541
-0.26
-0.254569
-0.248992
-0.243126
-0.236866
-0.230177
-0.223106
-0.215756
-0.20826
-0.20075
-0.193338
-0.186106
-0.179109
-0.172377
-0.165921
-0.159745
-0.153827
-0.148205
-0.142715
-0.137765
-0.292579
-0.286143
-0.280818
-0.27505
-0.269236
-0.263433
-0.257532
-0.251383
-0.244848
-0.23785
-0.230402
-0.2226
-0.214587
-0.206516
-0.198525
-0.19072
-0.183171
-0.17592
-0.168985
-0.162367
-0.156061
-0.150044
-0.144338
-0.138802
-0.133792
-0.29837
-0.291305
-0.285611
-0.279474
-0.273278
-0.267035
-0.260597
-0.253798
-0.246514
-0.238714
-0.230467
-0.22192
-0.213246
-0.204615
-0.196162
-0.187982
-0.180132
-0.17264
-0.165511
-0.158738
-0.152308
-0.146197
-0.14041
-0.134831
-0.129764
-0.304432
-0.296719
-0.290651
-0.284132
-0.277521
-0.270784
-0.263732
-0.256197
-0.248088
-0.239428
-0.230352
-0.22105
-0.211726
-0.202552
-0.193656
-0.185119
-0.176983
-0.16926
-0.161947
-0.155026
-0.148478
-0.142278
-0.136416
-0.130798
-0.125674
-0.310747
-0.302372
-0.295928
-0.28901
-0.281944
-0.274647
-0.266898
-0.258539
-0.249529
-0.239962
-0.230033
-0.219979
-0.210017
-0.20032
-0.191001
-0.182124
-0.173715
-0.165774
-0.158284
-0.151224
-0.144564
-0.138279
-0.132348
-0.126696
-0.121519
-0.317295
-0.30825
-0.301426
-0.294089
-0.286521
-0.278589
-0.270051
-0.260779
-0.2508
-0.240285
-0.229494
-0.218694
-0.208113
-0.197912
-0.18819
-0.178989
-0.170321
-0.162172
-0.154515
-0.147321
-0.140557
-0.134193
-0.128199
-0.122518
-0.117291
-0.324048
-0.31433
-0.307123
-0.29934
-0.291214
-0.282564
-0.273141
-0.26287
-0.251861
-0.240371
-0.228713
-0.217182
-0.206002
-0.19532
-0.185213
-0.175705
-0.166791
-0.158443
-0.150629
-0.14331
-0.136449
-0.130013
-0.123962
-0.118258
-0.112986
-0.330971
-0.320583
-0.312991
-0.304731
-0.29598
-0.28652
-0.276114
-0.264763
-0.252676
-0.240192
-0.227674
-0.21543
-0.203675
-0.192534
-0.18206
-0.172261
-0.163113
-0.154579
-0.146617
-0.139182
-0.132232
-0.125731
-0.119632
-0.11391
-0.108599
-0.338026
-0.326975
-0.318993
-0.310218
-0.300769
-0.2904
-0.278915
-0.266411
-0.253207
-0.239723
-0.226359
-0.213425
-0.201119
-0.189541
-0.178721
-0.168646
-0.159278
-0.150569
-0.142469
-0.134928
-0.127898
-0.12134
-0.115202
-0.109469
-0.104126
-0.345165
-0.333466
-0.325085
-0.315751
-0.305521
-0.294141
-0.281483
-0.267765
-0.25342
-0.238939
-0.224749
-0.211152
-0.198321
-0.186329
-0.175182
-0.164848
-0.155274
-0.146403
-0.138176
-0.130539
-0.12344
-0.116833
-0.110666
-0.104929
-0.0995602
-0.352334
-0.340007
-0.331217
-0.321271
-0.31017
-0.297677
-0.283762
-0.26878
-0.25328
-0.237816
-0.222827
-0.208596
-0.195268
-0.182886
-0.171432
-0.160855
-0.15109
-0.142069
-0.133729
-0.126007
-0.118849
-0.112204
-0.106018
-0.100284
-0.0948988
-0.359473
-0.346542
-0.337329
-0.326713
-0.314646
-0.300939
-0.285691
-0.269411
-0.252757
-0.236332
-0.220574
-0.205742
-0.191946
-0.179198
-0.167458
-0.156655
-0.146715
-0.13756
-0.129119
-0.121325
-0.114119
-0.107447
-0.101252
-0.0955295
-0.0901375
-0.366513
-0.353009
-0.343355
-0.332003
-0.318872
-0.303856
-0.287214
-0.269614
-0.251819
-0.234463
-0.217974
-0.202574
-0.188339
-0.175251
-0.163246
-0.152237
-0.142139
-0.132864
-0.124337
-0.116484
-0.109244
-0.102556
-0.0963642
-0.0906608
-0.0852726
-0.373382
-0.359339
-0.349222
-0.337062
-0.32277
-0.306359
-0.288274
-0.26935
-0.250437
-0.232189
-0.215007
-0.199076
-0.184433
-0.171032
-0.158783
-0.147589
-0.13735
-0.127974
-0.119375
-0.111478
-0.104216
-0.0975242
-0.0913485
-0.0856737
-0.0803009
-0.379999
-0.365456
-0.35485
-0.341807
-0.326258
-0.308377
-0.288819
-0.268579
-0.248583
-0.229486
-0.211655
-0.195231
-0.180214
-0.166525
-0.154059
-0.1427
-0.13234
-0.122879
-0.114225
-0.1063
-0.0990298
-0.092348
-0.0862008
-0.0805641
-0.0752197
-0.386281
-0.371281
-0.360154
-0.346149
-0.329254
-0.309843
-0.288797
-0.267267
-0.246232
-0.226335
-0.207901
-0.191024
-0.175665
-0.161719
-0.14906
-0.137559
-0.127099
-0.117572
-0.108881
-0.100943
-0.09368
-0.0870221
-0.0809169
-0.0753286
-0.0700268
-0.39214
-0.376726
-0.365043
-0.35
-0.331677
-0.310692
-0.288162
-0.265378
-0.243356
-0.222714
-0.203726
-0.186438
-0.170773
-0.1566
-0.143775
-0.132157
-0.121619
-0.112045
-0.103336
-0.0954013
-0.0881615
-0.0815422
-0.0754928
-0.0699636
-0.0647196
-0.397482
-0.381702
-0.369426
-0.353267
-0.333449
-0.310863
-0.286869
-0.262881
-0.239934
-0.218605
-0.199113
-0.181457
-0.165524
-0.151156
-0.138193
-0.126484
-0.11589
-0.106292
-0.0975837
-0.0896707
-0.0824699
-0.0759046
-0.0699251
-0.0644663
-0.0592962
-0.402214
-0.386116
-0.373207
-0.355862
-0.334493
-0.3103
-0.284878
-0.259748
-0.235942
-0.213988
-0.194047
-0.176069
-0.159905
-0.145376
-0.132306
-0.120531
-0.109907
-0.100307
-0.091619
-0.0837462
-0.0766014
-0.0701058
-0.0642106
-0.0588342
-0.0537559
-0.406241
-0.389874
-0.376291
-0.357695
-0.334737
-0.308948
-0.282152
-0.255951
-0.23136
-0.208847
-0.188512
-0.170258
-0.153904
-0.13925
-0.126104
-0.114292
-0.103663
-0.0940834
-0.0854374
-0.0776238
-0.0705525
-0.0641428
-0.0583468
-0.0530671
-0.0481006
-0.409467
-0.392881
-0.378584
-0.358681
-0.334115
-0.306761
-0.278658
-0.251467
-0.226168
-0.203164
-0.182494
-0.164013
-0.147512
-0.132769
-0.119579
-0.10776
-0.0971526
-0.0876179
-0.0790354
-0.0713006
-0.0643201
-0.0580121
-0.0523307
-0.0471655
-0.0423332
-0.411799
-0.395042
-0.379993
-0.358742
-0.332566
-0.303696
-0.274366
-0.246274
-0.220351
-0.196927
-0.17598
-0.157323
-0.140718
-0.125925
-0.112726
-0.10093
-0.0903721
-0.0809069
-0.0724103
-0.0647741
-0.0579015
-0.0517101
-0.0461581
-0.0411253
-0.0364445
-0.413145
-0.396267
-0.38043
-0.357801
-0.330034
-0.299715
-0.269251
-0.240354
-0.213892
-0.190121
-0.168959
-0.150179
-0.133515
-0.118711
-0.105539
-0.0937988
-0.0833182
-0.0739484
-0.0655606
-0.0580434
-0.0512959
-0.0452355
-0.0398249
-0.0349291
-0.0303887
-0.413417
-0.396466
-0.379811
-0.355792
-0.326471
-0.294786
-0.263291
-0.23369
-0.206779
-0.182736
-0.161423
-0.142573
-0.125897
-0.111123
-0.0980144
-0.0863625
-0.0759892
-0.0667411
-0.0584859
-0.0511084
-0.0445044
-0.0385919
-0.0333344
-0.0285563
-0.0240797
-0.412532
-0.395556
-0.378061
-0.352653
-0.321836
-0.288883
-0.25647
-0.226271
-0.199002
-0.174764
-0.153363
-0.134498
-0.117858
-0.103158
-0.0901501
-0.0786202
-0.0683844
-0.0592852
-0.0511868
-0.0439706
-0.0375295
-0.0317847
-0.026696
-0.0220209
-0.0175188
-0.410414
-0.393459
-0.375108
-0.348331
-0.316094
-0.281985
-0.248773
-0.218087
-0.190553
-0.166198
-0.144775
-0.125952
-0.109397
-0.0948137
-0.0819452
-0.0705719
-0.0605045
-0.0515817
-0.0436647
-0.0366324
-0.0303746
-0.0248162
-0.0199088
-0.0153528
-0.0110993
-0.406992
-0.390103
-0.370892
-0.342783
-0.309218
-0.274076
-0.240193
-0.209131
-0.181427
-0.157035
-0.135657
-0.116933
-0.100513
-0.0860897
-0.0734003
-0.0622188
-0.0523512
-0.043633
-0.0359224
-0.0290973
-0.0230438
-0.0176916
-0.0129743
-0.00857658
-0.00460774
-0.402204
-0.385426
-0.365358
-0.335973
-0.301188
-0.265147
-0.230722
-0.1994
-0.171623
-0.147272
-0.126007
-0.10744
-0.0912065
-0.0769882
-0.0645176
-0.0535638
-0.0439278
-0.0354431
-0.0279647
-0.021368
-0.0155402
-0.0104121
-0.00590405
-0.00169131
0.00200345
-0.395997
-0.379373
-0.358465
-0.327874
-0.291991
-0.255193
-0.220362
-0.188896
-0.161141
-0.136912
-0.115827
-0.0974755
-0.0814785
-0.0675146
-0.0553021
-0.0446117
-0.0352392
-0.0270158
-0.0197954
-0.0134502
-0.00786857
-0.00298268
0.00129753
0.00531053
0.00873751
-0.388325
-0.371899
-0.350178
-0.318468
-0.281623
-0.244216
-0.209116
-0.177621
-0.149986
-0.125958
-0.105122
-0.0870439
-0.0713324
-0.0576762
-0.0457601
-0.0353673
-0.0262906
-0.0183574
-0.0114203
-0.00534973
-3.445e-05
0.0045907
0.00862664
0.0124293
0.0155839
-0.379155
-0.362968
-0.340474
-0.307747
-0.270085
-0.232222
-0.196991
-0.165585
-0.138163
-0.114418
-0.0938981
-0.0761545
-0.0607879
-0.0474685
-0.0358962
-0.0258381
-0.0170891
-0.00947475
-0.00284651
0.00292677
0.00795537
0.0123016
0.0160786
0.019661
0.0225336
-0.368462
-0.352557
-0.32934
-0.295711
-0.257385
-0.219223
-0.183999
-0.152796
-0.125684
-0.102301
-0.0821673
-0.0648162
-0.0498439
-0.0369097
-0.0257195
-0.0160325
-0.00764307
-0.000376066
0.00591805
0.0113714
0.0160931
0.0201425
0.0236469
0.0269984
0.0295781
-0.35623
-0.34065
-0.316773
-0.282368
-0.243539
-0.205236
-0.170157
-0.13927
-0.112561
-0.089625
-0.0699401
-0.05304
-0.0385121
-0.02601
-0.0152408
-0.00596041
0.00203781
0.00892932
0.0148642
0.0199754
0.02437
0.0281052
0.0313235
0.0344328
0.0367086
-0.342457
-0.327244
-0.30278
-0.267736
-0.228569
-0.190283
-0.155486
-0.125025
-0.0988196
-0.0763964
-0.0572308
-0.0408395
-0.0268062
-0.0147814
-0.00447226
0.00436674
0.0119427
0.0184309
0.0239819
0.0287286
0.0327763
0.03618
0.0390986
0.0419539
0.0439147
-0.32715
-0.312346
-0.287377
-0.251838
-0.212502
-0.174393
-0.14001
-0.11009
-0.0844681
-0.0626387
-0.044057
-0.0282311
-0.0147416
-0.00323804
0.0065727
0.0149362
0.0220594
0.0281173
0.0332599
0.0376203
0.0413013
0.0443563
0.0469614
0.0495496
0.0511845
-0.310324
-0.295974
-0.270591
-0.23471
-0.195375
-0.157597
-0.123758
-0.0944838
-0.0695348
-0.0483731
-0.0304384
-0.0152329
-0.00233562
0.00860422
0.0178791
0.0257339
0.0323748
0.0379757
0.0426862
0.0466387
0.0499332
0.0526226
0.0548999
0.0572068
0.0585057
-0.292009
-0.278155
-0.252457
-0.216391
-0.177228
-0.139928
-0.106763
-0.0782369
-0.054046
-0.0336236
-0.0163973
-0.00186562
0.0103927
0.0207277
0.0294305
0.0367446
0.0428744
0.0479927
0.0522479
0.0557713
0.0586597
0.060966
0.0629007
0.0649108
0.0658651
-0.272241
-0.258926
-0.233019
-0.196934
-0.158106
-0.121428
-0.0890596
-0.0613818
-0.0380311
-0.018417
-0.00195836
0.0118481
0.0234226
0.0331132
0.0412091
0.0479516
0.0535429
0.0581539
0.0619314
0.0650048
0.0674675
0.0693735
0.0709497
0.072645
0.073244
-0.251067
-0.238335
-0.212333
-0.176391
-0.138042
-0.102151
-0.0706904
-0.0439546
-0.0215225
-0.00278266
0.0128516
0.0258836
0.0367312
0.0457399
0.0531957
0.0593373
0.0643641
0.0684442
0.0717224
0.0743256
0.0763434
0.0778315
0.0790314
0.0803882
0.0806111
-0.228539
-0.216442
-0.190475
-0.15479
-0.117112
-0.082138
-0.0516986
-0.0259944
-0.0045552
0.0132475
0.0280035
0.0402143
0.0502943
0.0585853
0.0653699
0.0708829
0.0753205
0.0788477
0.0816065
0.0837202
0.0852741
0.0863267
0.08713
0.0881152
0.0879317
-0.204722
-0.193317
-0.167513
-0.132189
-0.0953717
-0.0614445
-0.0321315
-0.00754336
0.0128329
0.0296393
0.0434662
0.0548116
0.0640858
0.0716258
0.0777098
0.0825686
0.0863942
0.089348
0.0915687
0.0931748
0.094247
0.0948464
0.0952308
0.0958076
0.0951994
-0.179692
-0.169044
-0.143402
-0.108753
-0.0728862
-0.040127
-0.0120395
0.0113536
0.0306016
0.0463562
0.0592064
0.0696456
0.0780782
0.0848362
0.0901927
0.0943735
0.0975663
0.0999282
0.101594
0.102676
0.103249
0.103379
0.103326
0.103466
0.102433
-0.153525
-0.143722
-0.118273
-0.0844909
-0.0497244
-0.0182468
0.00852433
0.0306491
0.0487082
0.0633597
0.0751893
0.0846842
0.0922425
0.0981901
0.102794
0.106276
0.108817
0.110571
0.111666
0.112208
0.112266
0.111915
0.111417
0.11109
0.109569
-0.126282
-0.11732
-0.0923705
-0.0594885
-0.0259568
0.00413293
0.0295041
0.0502932
0.0671079
0.0806092
0.091378
0.0998941
0.106548
0.11166
0.11549
0.118253
0.120126
0.121258
0.12177
0.121759
0.121288
0.120452
0.119499
0.118612
0.116364
-0.0980616
-0.0900689
-0.0656902
-0.0338307
-0.00165717
0.0269466
0.0508417
0.0702342
0.0857539
0.0980627
0.107734
0.11524
0.120964
0.125217
0.128253
0.130281
0.131472
0.13197
0.13189
0.131315
0.130313
0.128999
0.127555
0.125888
0.122631
-0.0690869
-0.0619505
-0.0383076
-0.00760497
0.0230979
0.0501265
0.0724767
0.090418
0.104598
0.115676
0.124219
0.130687
0.135457
0.138831
0.141056
0.142335
0.142834
0.142689
0.142009
0.140868
0.139346
0.137575
0.135585
0.132903
0.128677
-0.0393772
-0.0331103
-0.0103201
0.0191001
0.0482289
0.0736026
0.0943471
0.110789
0.12359
0.133404
0.14079
0.146198
0.149993
0.152471
0.153872
0.15439
0.154186
0.153393
0.152108
0.150406
0.148385
0.146182
0.143624
0.139984
0.135334
-0.00901952
-0.00367799
0.0181696
0.046193
0.0736547
0.097303
0.116389
0.13129
0.142678
0.151201
0.157406
0.161733
0.164537
0.166106
0.16667
0.166419
0.165506
0.164058
0.162166
0.159908
0.157402
0.154763
0.151626
0.147281
0.14431
0.0218646
0.0262355
0.0470562
0.0735799
0.099292
0.121154
0.138537
0.151863
0.16181
0.169019
0.174024
0.177254
0.179055
0.179703
0.179423
0.178395
0.176768
0.174661
0.172162
0.169351
0.166353
0.163231
0.159552
0.155006
0.152863
0.0531542
0.0565186
0.0762321
0.101165
0.125056
0.145082
0.160724
0.172447
0.180932
0.186809
0.1906
0.192722
0.193509
0.19323
0.192099
0.190291
0.187947
0.185179
0.182074
0.178713
0.175215
0.1716
0.167461
0.162786
0.160679
0.0847289
0.0870572
0.105589
0.128852
0.150863
0.169011
0.182885
0.192984
0.19999
0.204523
0.207089
0.208096
0.207864
0.206653
0.204668
0.202077
0.199015
0.195587
0.191877
0.187966
0.183962
0.179861
0.175313
0.170464
0.168102
0.116467
0.117735
0.135017
0.156543
0.176624
0.192864
0.20495
0.213412
0.21893
0.222111
0.223448
0.223335
0.222082
0.219938
0.2171
0.213727
0.209947
0.205861
0.201548
0.197087
0.192575
0.187996
0.183051
0.177951
0.175226
0.148245
0.148434
0.164408
0.18414
0.202256
0.216565
0.226852
0.23367
0.237696
0.239524
0.239632
0.238399
0.236127
0.233052
0.229363
0.225211
0.220717
0.215977
0.211065
0.206055
0.201036
0.195987
0.190644
0.185244
0.182113
0.17994
0.179036
0.193651
0.211546
0.227671
0.240039
0.248522
0.253698
0.256234
0.256712
0.255594
0.253248
0.249961
0.24596
0.241426
0.236501
0.231299
0.22591
0.220403
0.214849
0.209327
0.203813
0.198066
0.19234
0.188786
0.211428
0.209423
0.222638
0.238665
0.252784
0.263209
0.269894
0.273434
0.274489
0.273625
0.271292
0.26784
0.263548
0.25863
0.253259
0.247569
0.241667
0.235636
0.229542
0.223449
0.217429
0.211454
0.205302
0.199237
0.195253
0.242588
0.239478
0.251262
0.2654
0.277511
0.286001
0.290899
0.292818
0.292407
0.290216
0.286679
0.282136
0.27685
0.271028
0.264831
0.258387
0.251795
0.245133
0.238459
0.231834
0.225323
0.218894
0.21234
0.205932
0.201515
0.273296
0.269085
0.279416
0.291658
0.301767
0.308339
0.311472
0.31179
0.309933
0.306434
0.301713
0.296096
0.289833
0.283121
0.276113
0.268928
0.261659
0.254376
0.247133
0.239987
0.232994
0.226117
0.219167
0.212417
0.207567
0.303434
0.298128
0.306995
0.317344
0.325471
0.330151
0.331548
0.330293
0.327016
0.322234
0.316351
0.30968
0.30246
0.294877
0.287075
0.279165
0.271233
0.263343
0.255545
0.247888
0.240422
0.233109
0.225771
0.218683
0.213402
0.332883
0.326496
0.333898
0.342369
0.348542
0.351365
0.351061
0.348268
0.343603
0.337567
0.33055
0.32285
0.314696
0.306264
0.297688
0.289072
0.280494
0.272014
0.263674
0.255519
0.247593
0.239854
0.23214
0.22472
0.219012
0.361529
0.354078
0.360025
0.366644
0.370903
0.371912
0.369951
0.36566
0.359644
0.352389
0.344269
0.335569
0.326509
0.317252
0.307925
0.298623
0.289419
0.280365
0.2715
0.262863
0.25449
0.246338
0.238261
0.230517
0.224388
0.38926
0.38077
0.385278
0.390084
0.392477
0.391725
0.388156
0.382414
0.37509
0.366654
0.357467
0.347801
0.337864
0.32781
0.317757
0.307793
0.297984
0.288377
0.279005
0.269902
0.261098
0.252548
0.244121
0.236064
0.229522
0.415967
0.406467
0.409566
0.412605
0.413191
0.410737
0.405618
0.398477
0.389893
0.380321
0.370107
0.359511
0.34873
0.337909
0.327158
0.316558
0.306168
0.296029
0.28617
0.27662
0.267402
0.258471
0.249709
0.241349
0.234405
0.441547
0.431071
0.432799
0.434129
0.432974
0.428887
0.42228
0.4138
0.404009
0.393348
0.38215
0.370664
0.359076
0.347522
0.336104
0.324896
0.31395
0.303303
0.292979
0.283001
0.273387
0.264093
0.255013
0.246361
0.239027
0.465901
0.454487
0.454891
0.45458
0.45176
0.446114
0.43809
0.428333
0.417392
0.405695
0.393562
0.381229
0.368873
0.356622
0.34457
0.332784
0.32131
0.310181
0.299414
0.28903
0.279041
0.269401
0.260021
0.251091
0.243381
0.488932
0.476626
0.47576
0.473886
0.469485
0.462361
0.452996
0.44203
0.430003
0.417326
0.404308
0.391175
0.378093
0.365184
0.352532
0.3402
0.328229
0.316644
0.30546
0.294693
0.284348
0.274385
0.264721
0.255528
0.247459
0.510553
0.497403
0.495332
0.491979
0.486089
0.477575
0.466949
0.454849
0.441801
0.428205
0.414357
0.400473
0.386711
0.373183
0.35997
0.347127
0.334688
0.322676
0.311102
0.299975
0.289298
0.279031
0.269104
0.259662
0.251252
0.530679
0.516739
0.513534
0.508796
0.501514
0.491705
0.479905
0.466749
0.452751
0.438298
0.423678
0.409095
0.3947
0.380598
0.366863
0.353544
0.340671
0.328262
0.316325
0.304864
0.293879
0.283331
0.273159
0.263485
0.254755
0.549232
0.534559
0.530299
0.524277
0.51571
0.504704
0.491821
0.477691
0.462817
0.447576
0.432243
0.417017
0.402039
0.387408
0.373192
0.359434
0.346162
0.333388
0.321116
0.309349
0.298079
0.287272
0.276876
0.266988
0.25796
0.56614
0.550795
0.545566
0.538369
0.528626
0.51653
0.502659
0.487641
0.471968
0.456009
0.440027
0.424215
0.408706
0.393593
0.378939
0.364782
0.351146
0.338039
0.325464
0.313417
0.301889
0.290847
0.280247
0.270163
0.260862
0.581338
0.565387
0.55928
0.551022
0.540221
0.527142
0.512383
0.496567
0.480177
0.463571
0.447007
0.430667
0.414681
0.399136
0.384088
0.369573
0.35561
0.342205
0.329357
0.317059
0.305299
0.294047
0.283265
0.273004
0.263456
0.594766
0.578278
0.571391
0.562191
0.550453
0.536507
0.520963
0.504441
0.487417
0.47024
0.453161
0.436356
0.419948
0.404021
0.388626
0.373795
0.359543
0.345875
0.332785
0.320266
0.308301
0.296864
0.285921
0.275504
0.265735
0.606375
0.58942
0.581854
0.571839
0.55929
0.544592
0.528369
0.511237
0.493665
0.475995
0.45847
0.441264
0.424492
0.408234
0.392539
0.377434
0.362934
0.349038
0.33574
0.323029
0.310888
0.299291
0.28821
0.277657
0.267697
0.616117
0.598769
0.590632
0.57993
0.566699
0.551371
0.534578
0.516934
0.498902
0.480818
0.46292
0.445376
0.428298
0.411763
0.395816
0.380483
0.365774
0.351687
0.338215
0.325343
0.313054
0.301322
0.290125
0.279459
0.269338
0.623957
0.606292
0.597693
0.586437
0.572657
0.556821
0.539569
0.521514
0.503111
0.484694
0.466496
0.44868
0.431357
0.414599
0.398449
0.382932
0.368054
0.353814
0.340202
0.327201
0.314793
0.302954
0.291663
0.280905
0.270654
0.629863
0.611959
0.603011
0.591338
0.577144
0.560925
0.543327
0.524961
0.50628
0.487612
0.469187
0.451167
0.433659
0.416733
0.400431
0.384774
0.36977
0.355415
0.341696
0.328599
0.316101
0.30418
0.29282
0.281993
0.271643
0.633812
0.615749
0.606567
0.594614
0.580143
0.563668
0.545839
0.527266
0.508398
0.489562
0.470986
0.452829
0.435197
0.418159
0.401755
0.386005
0.370917
0.356484
0.342695
0.329532
0.316974
0.305
0.293593
0.282719
0.272303
0.635791
0.617647
0.608348
0.596255
0.581645
0.565041
0.547097
0.528419
0.509458
0.490538
0.471886
0.453661
0.435967
0.418872
0.402417
0.386622
0.371491
0.357019
0.343195
0.33
0.317411
0.30541
0.293979
0.283083
0.272634
0.635791
0.617647
0.608348
0.596254
0.581644
0.565041
0.547097
0.528419
0.509458
0.490538
0.471886
0.45366
0.435966
0.418872
0.402417
0.386621
0.37149
0.357019
0.343194
0.329999