/*--------------------------------*- C++ -*----------------------------------*\
  =========                 |
  \\      /  F ield         | OpenFOAM: The Open Source CFD Toolbox
   \\    /   O peration     | Website:  https://openfoam.org
    \\  /    A nd           | Version:  7
     \\/     M anipulation  |
\*---------------------------------------------------------------------------*/
FoamFile
{
    version     2.0;
    format      ascii;
    class       volScalarField;
    location    "114.999";
    object      p;
}
// * * * * * * * * * * * * * * * * * * * * * * * * * * * * * * * * * * * * * //

dimensions      [0 2 -2 0 0 0 0];

internalField   nonuniform List<scalar> 
3700
(
0.643347
0.61537
0.594105
0.563277
0.529865
0.495712
0.462426
0.430736
0.401057
0.37354
0.348202
0.324978
0.303791
0.284561
0.267107
0.639652
0.61214
0.591439
0.561122
0.528135
0.494334
0.461341
0.429893
0.400414
0.373064
0.347863
0.324748
0.303646
0.284493
0.26713
0.631181
0.604605
0.58504
0.555752
0.52362
0.490535
0.458139
0.427191
0.398133
0.371137
0.346235
0.323366
0.302462
0.283492
0.266365
0.618015
0.592836
0.574968
0.547214
0.516362
0.484347
0.452848
0.422656
0.394234
0.367777
0.343334
0.320846
0.300248
0.281567
0.264811
0.600275
0.576932
0.561306
0.535578
0.506419
0.47582
0.445511
0.41632
0.388746
0.36301
0.339181
0.317207
0.297024
0.27873
0.262474
0.57812
0.557027
0.544161
0.520934
0.493865
0.465018
0.43618
0.408232
0.381709
0.356869
0.333806
0.312473
0.29281
0.274997
0.25936
0.551741
0.533282
0.523668
0.503392
0.478794
0.452018
0.424923
0.398446
0.373171
0.349394
0.327242
0.306676
0.287635
0.27039
0.25548
0.521364
0.505888
0.499983
0.483083
0.461314
0.436913
0.411816
0.38703
0.363188
0.340635
0.319532
0.299851
0.281531
0.264935
0.250847
0.48725
0.475062
0.473286
0.460154
0.441551
0.419808
0.396949
0.374057
0.351824
0.330645
0.310722
0.292041
0.274535
0.25866
0.245477
0.449686
0.441048
0.443777
0.434773
0.419643
0.400819
0.380421
0.359613
0.339151
0.319486
0.300866
0.283291
0.266687
0.251599
0.239388
0.40899
0.404114
0.411677
0.40712
0.395743
0.380075
0.36234
0.34379
0.325249
0.307227
0.290021
0.273652
0.258032
0.243788
0.232604
0.365506
0.364551
0.377224
0.377393
0.370016
0.357715
0.342825
0.326688
0.310202
0.293939
0.278251
0.26318
0.24862
0.235265
0.225149
0.319598
0.322669
0.340674
0.345803
0.342638
0.333888
0.322
0.308413
0.294101
0.279702
0.265624
0.251934
0.238503
0.226075
0.217053
0.271652
0.278797
0.302298
0.312571
0.313795
0.30875
0.299998
0.289079
0.277044
0.264597
0.252211
0.23998
0.227738
0.216261
0.208345
0.22207
0.233279
0.262378
0.27793
0.28368
0.282463
0.276957
0.268803
0.25913
0.248711
0.238086
0.227385
0.21639
0.205874
0.199056
0.171267
0.186474
0.221209
0.242119
0.252494
0.255197
0.253019
0.247707
0.240465
0.232133
0.223327
0.214221
0.204528
0.194963
0.189211
0.119665
0.13875
0.179092
0.205385
0.220443
0.227124
0.228332
0.225915
0.221154
0.214954
0.208008
0.200562
0.19224
0.183605
0.178832
0.0676888
0.0904885
0.136336
0.167978
0.187734
0.19842
0.203043
0.203553
0.201307
0.197268
0.192207
0.186473
0.17962
0.171883
0.167886
0.0157641
0.0420698
0.0932515
0.13015
0.154578
0.169262
0.177302
0.180749
0.181034
0.179172
0.175996
0.172001
0.166764
0.160018
0.15637
-0.0356807
-0.00613153
0.0501498
0.09215
0.121182
0.139825
0.151259
0.157629
0.160444
0.160763
0.159462
0.157193
0.153739
0.148309
0.14406
-0.0862216
-0.0537484
0.00734022
0.0542259
0.0877536
0.110284
0.12506
0.134319
0.139642
0.142137
0.142692
0.142066
0.140424
0.13701
0.131388
-0.135448
-0.100424
-0.0348733
0.0166164
0.0544942
0.0808112
0.0988531
0.110941
0.118732
0.123383
0.125781
0.126731
0.126766
0.12555
0.121385
-0.18296
-0.145825
-0.0762003
-0.0204509
0.0216011
0.0515727
0.072778
0.087618
0.0978155
0.104583
0.108815
0.111311
0.112864
0.1137
0.111561
-0.228292
-0.189643
-0.116383
-0.0567626
-0.0107338
0.0227301
0.0469717
0.0644656
0.076991
0.0858168
0.0918572
0.0958837
0.0988092
0.101267
0.100967
-0.271177
-0.231363
-0.155245
-0.0921123
-0.0423222
-0.00556297
0.0215647
0.0415959
0.0563547
0.0671615
0.0749591
0.0804921
0.0846973
0.0884469
0.0896283
-0.311351
-0.270408
-0.192778
-0.126274
-0.0729826
-0.0331618
-0.00331903
0.0191152
0.0359978
0.0486934
0.0581767
0.0651759
0.0706146
0.0755051
0.0779391
-0.348563
-0.306482
-0.228742
-0.158967
-0.102549
-0.0599311
-0.0275624
-0.00287681
0.0160066
0.0304882
0.0415731
0.049984
0.0566189
0.0625804
0.0661886
-0.382611
-0.339862
-0.262374
-0.189953
-0.130877
-0.0857429
-0.051056
-0.0242873
-0.00353838
0.0126177
0.0252128
0.0349693
0.042752
0.0497226
0.0544688
-0.413304
-0.37038
-0.293353
-0.219156
-0.157834
-0.110477
-0.0736996
-0.045031
-0.0225629
-0.00485184
0.00915557
0.0201835
0.0290553
0.0369675
0.0428023
-0.440482
-0.397756
-0.321725
-0.246409
-0.183298
-0.134023
-0.0954038
-0.0650313
-0.0409994
-0.0218613
-0.00654485
0.00567484
0.015572
0.0243589
0.031224
-0.46404
-0.421793
-0.347428
-0.271604
-0.207193
-0.156276
-0.116091
-0.0842199
-0.0587872
-0.0383582
-0.0218404
-0.00851267
0.0023435
0.0119421
0.0197812
-0.48393
-0.442382
-0.370345
-0.294648
-0.229438
-0.177193
-0.135692
-0.102537
-0.075871
-0.0542988
-0.036688
-0.0223391
-0.0105928
-0.000245383
0.00851488
-0.500154
-0.45947
-0.390375
-0.315455
-0.24991
-0.196774
-0.154172
-0.119935
-0.0922033
-0.0696453
-0.051049
-0.0357698
-0.0232034
-0.0121768
-0.00254534
-0.512761
-0.473054
-0.407459
-0.333967
-0.268557
-0.214913
-0.171533
-0.136409
-0.107747
-0.0843627
-0.0648893
-0.0487776
-0.0354554
-0.0238361
-0.0133789
-0.521847
-0.483185
-0.421582
-0.350156
-0.285362
-0.231566
-0.187704
-0.151939
-0.122583
-0.0983653
-0.078185
-0.0613444
-0.0473166
-0.0352065
-0.0239816
-0.527552
-0.489968
-0.432763
-0.364013
-0.300321
-0.246731
-0.202658
-0.166471
-0.136588
-0.111742
-0.0909522
-0.0734561
-0.0587684
-0.0462451
-0.0343854
-0.530063
-0.493567
-0.441062
-0.375548
-0.31344
-0.260417
-0.216397
-0.179996
-0.149749
-0.124453
-0.103164
-0.0851287
-0.0698713
-0.0568284
-0.0446734
-0.529605
-0.494202
-0.44658
-0.384797
-0.324739
-0.272644
-0.228942
-0.192528
-0.162083
-0.136476
-0.1148
-0.0963268
-0.0805732
-0.0670611
-0.0547822
-0.526442
-0.492144
-0.44946
-0.391817
-0.334254
-0.283439
-0.240315
-0.20409
-0.173605
-0.147815
-0.125861
-0.107041
-0.0908748
-0.0769601
-0.0644059
-0.520871
-0.487716
-0.449871
-0.396688
-0.342035
-0.292842
-0.250548
-0.214704
-0.184335
-0.158487
-0.136357
-0.11728
-0.100778
-0.0864964
-0.0735566
-0.513217
-0.481287
-0.448013
-0.399514
-0.348151
-0.300901
-0.25968
-0.224403
-0.194296
-0.168511
-0.146307
-0.127056
-0.11029
-0.0956853
-0.0823739
-0.503825
-0.473241
-0.44412
-0.400431
-0.352682
-0.307675
-0.267758
-0.233222
-0.203518
-0.177912
-0.15573
-0.136388
-0.119426
-0.104566
-0.0909711
-0.493051
-0.463957
-0.438472
-0.3996
-0.355722
-0.31323
-0.274835
-0.241207
-0.212036
-0.186719
-0.164653
-0.145298
-0.128213
-0.113166
-0.0993879
-0.48125
-0.453797
-0.431386
-0.397211
-0.357377
-0.317636
-0.280966
-0.248402
-0.21989
-0.194965
-0.173103
-0.153815
-0.136674
-0.121496
-0.107614
-0.468771
-0.443085
-0.423209
-0.393476
-0.357759
-0.320964
-0.286207
-0.254858
-0.227122
-0.202688
-0.181115
-0.161968
-0.144836
-0.129566
-0.115638
-0.455939
-0.432106
-0.4143
-0.388621
-0.356993
-0.323289
-0.290613
-0.260622
-0.233775
-0.209925
-0.188721
-0.169787
-0.152728
-0.137402
-0.123471
-0.443044
-0.421103
-0.40501
-0.382889
-0.355209
-0.324683
-0.294238
-0.265739
-0.239891
-0.216716
-0.19596
-0.177307
-0.160384
-0.145037
-0.131139
-0.430337
-0.410282
-0.395654
-0.376526
-0.352546
-0.325218
-0.297124
-0.270246
-0.245507
-0.2231
-0.202871
-0.184564
-0.167842
-0.152509
-0.138678
-0.418016
-0.399813
-0.386487
-0.369787
-0.349152
-0.324963
-0.299308
-0.274174
-0.250658
-0.229114
-0.209492
-0.191599
-0.175143
-0.159864
-0.146126
-0.406232
-0.389835
-0.377691
-0.362915
-0.345182
-0.323987
-0.300817
-0.277542
-0.255365
-0.234788
-0.215864
-0.198455
-0.182334
-0.167147
-0.153526
-0.395079
-0.380453
-0.369382
-0.356134
-0.340797
-0.32236
-0.30167
-0.280353
-0.259641
-0.240149
-0.222023
-0.205178
-0.189463
-0.174412
-0.160927
-0.384634
-0.371733
-0.361626
-0.349617
-0.336159
-0.320158
-0.301878
-0.282599
-0.263484
-0.245209
-0.228001
-0.211813
-0.196585
-0.18172
-0.168388
-0.374921
-0.363706
-0.35445
-0.343471
-0.331421
-0.317463
-0.301452
-0.284257
-0.266875
-0.24997
-0.233826
-0.218407
-0.203761
-0.189138
-0.175977
-0.365954
-0.35637
-0.347863
-0.337741
-0.326715
-0.314372
-0.300411
-0.285298
-0.269777
-0.254416
-0.239512
-0.225005
-0.211059
-0.196753
-0.183771
-0.357736
-0.349705
-0.341854
-0.332425
-0.322138
-0.31099
-0.298788
-0.285693
-0.27214
-0.258511
-0.245059
-0.231647
-0.218553
-0.204654
-0.191878
-0.350272
-0.343685
-0.336405
-0.32751
-0.317744
-0.307426
-0.296646
-0.285426
-0.273907
-0.2622
-0.250449
-0.238363
-0.226323
-0.212975
-0.200404
-0.343573
-0.338294
-0.331499
-0.322989
-0.313565
-0.30379
-0.29408
-0.284515
-0.275027
-0.265411
-0.255635
-0.245164
-0.23445
-0.221837
-0.209599
-0.337652
-0.333544
-0.327134
-0.31888
-0.309638
-0.300183
-0.291221
-0.28303
-0.275478
-0.268066
-0.260547
-0.252023
-0.243013
-0.231451
-0.219641
-0.33256
-0.329447
-0.323329
-0.315228
-0.306034
-0.296722
-0.288235
-0.281102
-0.27529
-0.270104
-0.265085
-0.258891
-0.252018
-0.241965
-0.2313
-0.328354
-0.326026
-0.320125
-0.312111
-0.302866
-0.293556
-0.285318
-0.27893
-0.274568
-0.27151
-0.269143
-0.265627
-0.261496
-0.253541
-0.244607
-0.325053
-0.323295
-0.317604
-0.30962
-0.30028
-0.290874
-0.282706
-0.276774
-0.273511
-0.272351
-0.272621
-0.272126
-0.271033
-0.266722
-0.26046
-0.322667
-0.321302
-0.315798
-0.307848
-0.298423
-0.288889
-0.280669
-0.274946
-0.272408
-0.27281
-0.275469
-0.278278
-0.280423
-0.280792
-0.276185
-0.321184
-0.320051
-0.314731
-0.30686
-0.297418
-0.287794
-0.279476
-0.273784
-0.271624
-0.273177
-0.277775
-0.283919
-0.289323
-0.294148
-0.291754
-0.320556
-0.31952
-0.314394
-0.306682
-0.297333
-0.287722
-0.279348
-0.273606
-0.27156
-0.273832
-0.27981
-0.288957
-0.297515
-0.306507
-0.307437
-0.320705
-0.319663
-0.314746
-0.307291
-0.298171
-0.288723
-0.28041
-0.274641
-0.27257
-0.275192
-0.282005
-0.293542
-0.304976
-0.318109
-0.323245
-0.32153
-0.320424
-0.315723
-0.308622
-0.299872
-0.29076
-0.282671
-0.276987
-0.274881
-0.27763
-0.284845
-0.298093
-0.311835
-0.329162
-0.338812
-0.32292
-0.32174
-0.317245
-0.310591
-0.302342
-0.293729
-0.286041
-0.280598
-0.278552
-0.281371
-0.288729
-0.303146
-0.318408
-0.339854
-0.353519
-0.324761
-0.323456
-0.319325
-0.313116
-0.305469
-0.297491
-0.290361
-0.285318
-0.283481
-0.286435
-0.293865
-0.309115
-0.325214
-0.350427
-0.367097
-0.32696
-0.325601
-0.321816
-0.316115
-0.309144
-0.301898
-0.295443
-0.290931
-0.289453
-0.292657
-0.300252
-0.31614
-0.332796
-0.361043
-0.380077
-0.329442
-0.32812
-0.324678
-0.319523
-0.313273
-0.306815
-0.301106
-0.29721
-0.296207
-0.299757
-0.307692
-0.324156
-0.341426
-0.371685
-0.392621
-0.332145
-0.330975
-0.327883
-0.323294
-0.317782
-0.312132
-0.307195
-0.303952
-0.303491
-0.307436
-0.315863
-0.332761
-0.351026
-0.382398
-0.405439
-0.335033
-0.334152
-0.331412
-0.3274
-0.322624
-0.317773
-0.313598
-0.311008
-0.311098
-0.315431
-0.324424
-0.341624
-0.36108
-0.393111
-0.418484
-0.338123
-0.337624
-0.335261
-0.33183
-0.327779
-0.323697
-0.320257
-0.318291
-0.31889
-0.323554
-0.333058
-0.350371
-0.371044
-0.403425
-0.431037
-0.341414
-0.34141
-0.33944
-0.336596
-0.333258
-0.329906
-0.327169
-0.325781
-0.32681
-0.331697
-0.34152
-0.358673
-0.380312
-0.412653
-0.442025
-0.344942
-0.345534
-0.343974
-0.341719
-0.339071
-0.33646
-0.334384
-0.333522
-0.334878
-0.339835
-0.349661
-0.366293
-0.388335
-0.420026
-0.450502
-0.348761
-0.350026
-0.348897
-0.347245
-0.345294
-0.34341
-0.341983
-0.341603
-0.343195
-0.348023
-0.357448
-0.373106
-0.394705
-0.424906
-0.45555
-0.352941
-0.354925
-0.35425
-0.353226
-0.351993
-0.350849
-0.350081
-0.350165
-0.351894
-0.356388
-0.364981
-0.379114
-0.399206
-0.426961
-0.45648
-0.357557
-0.360274
-0.360078
-0.359715
-0.359237
-0.358875
-0.358803
-0.359358
-0.361156
-0.365126
-0.372467
-0.384462
-0.401893
-0.426194
-0.45295
-0.362683
-0.366114
-0.366425
-0.366762
-0.367093
-0.367573
-0.368262
-0.369329
-0.371171
-0.374466
-0.380183
-0.389443
-0.403293
-0.422632
-0.444962
-0.368389
-0.372479
-0.373321
-0.374404
-0.375605
-0.377006
-0.378543
-0.380195
-0.382101
-0.384629
-0.388429
-0.394408
-0.403661
-0.416907
-0.432993
0.24473
0.222833
0.204473
0.190592
0.178524
0.169326
0.161232
0.154984
0.149422
0.145132
0.141288
0.138351
0.135712
0.133718
0.13196
0.130677
0.129594
0.128876
0.128343
0.12815
0.244865
0.223077
0.204717
0.190823
0.17877
0.169564
0.161457
0.155205
0.149634
0.145332
0.141469
0.138528
0.135882
0.133881
0.132116
0.130828
0.12974
0.129019
0.128484
0.12829
0.24445
0.222932
0.204681
0.19087
0.178863
0.16969
0.161593
0.155356
0.149785
0.145484
0.141612
0.138663
0.136016
0.134012
0.132242
0.130951
0.12986
0.129137
0.128601
0.128406
0.243464
0.222395
0.204352
0.190711
0.178793
0.169696
0.161631
0.155429
0.149871
0.145584
0.141786
0.138767
0.136114
0.13411
0.132339
0.131047
0.129954
0.129231
0.128694
0.128499
0.241907
0.221469
0.203732
0.190348
0.178561
0.169581
0.16157
0.155424
0.14989
0.145628
0.141808
0.138829
0.136176
0.134176
0.132405
0.131114
0.130023
0.1293
0.128764
0.128568
0.239779
0.220156
0.202824
0.189782
0.178167
0.169347
0.161411
0.155341
0.149844
0.14562
0.141801
0.138847
0.136203
0.13421
0.132443
0.131155
0.130066
0.129344
0.128809
0.128614
0.23708
0.21846
0.20163
0.189015
0.177616
0.168994
0.161157
0.155183
0.149732
0.145562
0.141772
0.138822
0.136195
0.134212
0.132452
0.131168
0.130083
0.129364
0.128832
0.128636
0.233813
0.216386
0.200154
0.18805
0.176908
0.168525
0.160808
0.154948
0.149557
0.145441
0.141632
0.138759
0.136153
0.134183
0.132432
0.131155
0.130076
0.12936
0.128831
0.128636
0.229981
0.213937
0.198398
0.186889
0.176049
0.167941
0.160366
0.154639
0.149319
0.145268
0.141483
0.138662
0.136079
0.134124
0.132384
0.131115
0.130043
0.129333
0.128808
0.128613
0.225589
0.211119
0.196368
0.185536
0.175041
0.167244
0.159835
0.154257
0.149021
0.145042
0.141316
0.138525
0.135973
0.134034
0.132308
0.131049
0.129987
0.129283
0.128763
0.128568
0.220646
0.207938
0.194067
0.183993
0.173888
0.166435
0.159217
0.153803
0.148667
0.144773
0.141133
0.13835
0.135837
0.133916
0.132206
0.130958
0.129907
0.12921
0.128695
0.128501
0.21516
0.204398
0.191501
0.182263
0.172595
0.165518
0.158515
0.153279
0.148256
0.144455
0.140894
0.138135
0.135672
0.13377
0.132077
0.130843
0.129805
0.129115
0.128607
0.128414
0.209141
0.200506
0.188678
0.180347
0.171167
0.164493
0.157732
0.152687
0.147792
0.144087
0.1406
0.137816
0.135487
0.133595
0.131923
0.130704
0.12968
0.128998
0.128497
0.128305
0.202601
0.196264
0.185605
0.178248
0.169608
0.163364
0.156871
0.152029
0.147275
0.143673
0.140265
0.137746
0.135234
0.133401
0.131745
0.130542
0.129534
0.128862
0.128368
0.128178
0.195554
0.191675
0.182292
0.175968
0.167924
0.162132
0.155933
0.151307
0.146708
0.143215
0.139885
0.137366
0.134987
0.133192
0.131542
0.130358
0.129368
0.128705
0.12822
0.128031
0.188014
0.186739
0.178748
0.173509
0.166119
0.160802
0.154924
0.150525
0.146091
0.142715
0.139475
0.137003
0.13466
0.132909
0.131314
0.130155
0.129182
0.128529
0.128053
0.127866
0.179989
0.181448
0.174983
0.170872
0.164197
0.159376
0.153842
0.149682
0.145426
0.142173
0.139029
0.136618
0.134341
0.132625
0.131072
0.129932
0.128977
0.128336
0.127868
0.127684
0.171519
0.175806
0.171011
0.168059
0.162159
0.157853
0.152689
0.148779
0.144713
0.14159
0.138549
0.136205
0.133991
0.132295
0.130834
0.129683
0.128754
0.128126
0.127666
0.127485
0.162546
0.169832
0.166862
0.165134
0.160048
0.156286
0.151504
0.147855
0.143981
0.140993
0.138055
0.135782
0.133633
0.131984
0.130539
0.129462
0.128527
0.127899
0.127448
0.127271
0.152679
0.163058
0.16229
0.161898
0.157747
0.154586
0.150211
0.14685
0.143177
0.140336
0.137507
0.135315
0.133235
0.131638
0.130222
0.129167
0.128268
0.127658
0.127216
0.127042
0.138401
0.15179
0.154808
0.155581
0.153182
0.150782
0.147377
0.144489
0.141369
0.138817
0.136315
0.134302
0.132426
0.130946
0.129646
0.128656
0.127831
0.12726
0.126856
0.126695
0.127986
0.139476
0.145462
0.147636
0.1471
0.145767
0.143461
0.141277
0.138822
0.13672
0.134626
0.132897
0.131277
0.129978
0.128831
0.127949
0.127212
0.126698
0.126339
0.126197
0.118493
0.129582
0.136901
0.140184
0.141161
0.140802
0.139509
0.137999
0.136192
0.134536
0.132853
0.131415
0.130057
0.128945
0.127957
0.127188
0.126547
0.126094
0.125779
0.125654
0.109738
0.121034
0.12912
0.133297
0.135474
0.135981
0.135609
0.134725
0.133539
0.132309
0.131035
0.12988
0.128787
0.12786
0.127038
0.126383
0.12584
0.12545
0.125182
0.125073
0.101949
0.113457
0.122057
0.126988
0.130096
0.131371
0.131802
0.131503
0.130895
0.130075
0.129192
0.128316
0.127482
0.12674
0.126083
0.125543
0.125098
0.124772
0.124552
0.124458
0.0951603
0.106728
0.115658
0.121214
0.125045
0.126998
0.128116
0.128363
0.128279
0.127853
0.12734
0.126737
0.126154
0.125595
0.125101
0.124675
0.124329
0.124067
0.123894
0.123815
0.0892879
0.100777
0.109889
0.115931
0.120329
0.122871
0.124575
0.125324
0.125712
0.125662
0.125494
0.125156
0.124814
0.124434
0.124098
0.123788
0.123538
0.123341
0.123214
0.123151
0.0841931
0.095524
0.104707
0.111107
0.115947
0.118994
0.121196
0.1224
0.123211
0.123515
0.123667
0.123586
0.123471
0.123268
0.123085
0.122887
0.122731
0.122599
0.122517
0.12247
0.0797624
0.0908855
0.100063
0.106713
0.111894
0.115366
0.117991
0.119604
0.120792
0.121426
0.121872
0.122037
0.122135
0.122105
0.122067
0.121982
0.121916
0.121847
0.121808
0.121778
0.0759098
0.0867885
0.0959038
0.10272
0.108161
0.111984
0.114967
0.116943
0.118465
0.119405
0.120121
0.120518
0.120817
0.120952
0.121053
0.121076
0.121098
0.121091
0.121093
0.12108
0.0725643
0.0831717
0.0921821
0.0990975
0.104731
0.108842
0.112127
0.114423
0.116241
0.11746
0.118422
0.119037
0.119524
0.119816
0.120049
0.120177
0.120282
0.120335
0.120378
0.120381
0.0696632
0.079982
0.0888548
0.0958177
0.10159
0.105935
0.109471
0.112046
0.114126
0.115598
0.116785
0.117602
0.118263
0.118705
0.119062
0.119291
0.119475
0.119586
0.119666
0.119687
0.0671506
0.0771718
0.0858834
0.0928538
0.0987211
0.103252
0.106998
0.109814
0.112124
0.113824
0.115215
0.11622
0.117042
0.117624
0.118097
0.118423
0.118681
0.118847
0.118963
0.119001
0.0649769
0.0746985
0.0832331
0.0901806
0.0961069
0.100784
0.104704
0.107728
0.110239
0.112143
0.113718
0.114896
0.115866
0.11658
0.117161
0.117577
0.117906
0.118124
0.118274
0.118328
0.0630988
0.0725242
0.0808728
0.0877748
0.0937315
0.0985226
0.102585
0.105786
0.108473
0.110559
0.112299
0.113634
0.11474
0.115576
0.116258
0.116759
0.117154
0.117422
0.117603
0.117673
0.0614784
0.0706151
0.0787744
0.0856147
0.0915793
0.0964568
0.100634
0.103987
0.106826
0.109073
0.110961
0.112439
0.113669
0.114617
0.115393
0.115973
0.11643
0.116743
0.116954
0.11704
0.0600827
0.0689418
0.0769127
0.0836804
0.0896356
0.0945771
0.0988467
0.102328
0.105298
0.107688
0.109707
0.111314
0.112657
0.113708
0.11457
0.115223
0.115736
0.116093
0.116331
0.116431
0.0588828
0.0674781
0.0752653
0.0819536
0.0878866
0.0928739
0.0972165
0.100805
0.103888
0.106403
0.10854
0.110262
0.111707
0.112852
0.113792
0.114513
0.115078
0.115475
0.115738
0.115852
0.0578537
0.0662013
0.0738122
0.0804179
0.0863197
0.091338
0.0957375
0.0994166
0.102596
0.10522
0.107459
0.109285
0.110821
0.112051
0.113063
0.113846
0.114459
0.114892
0.115179
0.115304
0.0569738
0.0650914
0.0725358
0.0790585
0.0849231
0.089961
0.0944042
0.0981584
0.101419
0.104138
0.106468
0.108385
0.110003
0.111309
0.112386
0.113224
0.11388
0.114347
0.114655
0.114792
0.0562245
0.064131
0.0714204
0.0778621
0.0836863
0.0887348
0.0932108
0.0970271
0.100357
0.103157
0.105566
0.107564
0.109254
0.110629
0.111762
0.112651
0.113346
0.113843
0.11417
0.114317
0.0555899
0.0633052
0.0704524
0.076817
0.0825997
0.0876522
0.0921524
0.0960195
0.0994076
0.102278
0.104755
0.106822
0.108577
0.110011
0.111196
0.112129
0.112859
0.113383
0.113727
0.113883
0.0550564
0.062601
0.06962
0.0759128
0.0816547
0.0867065
0.091224
0.0951324
0.0985687
0.101498
0.104033
0.106162
0.107971
0.109458
0.110687
0.11166
0.112421
0.112968
0.113328
0.113492
0.0546127
0.0620074
0.0689129
0.0751406
0.0808439
0.0858919
0.0904215
0.094363
0.0978389
0.100818
0.103403
0.105583
0.107439
0.108971
0.110239
0.111245
0.112033
0.112601
0.112974
0.113145
0.0542492
0.0615151
0.0683223
0.0744926
0.0801608
0.0852032
0.0897408
0.0937086
0.0972165
0.100236
0.102862
0.105085
0.106982
0.108552
0.109853
0.110888
0.111698
0.112283
0.112667
0.112845
0.0539581
0.0611165
0.067841
0.0739625
0.0795999
0.084636
0.0891787
0.093167
0.0967002
0.0997531
0.102412
0.104671
0.106599
0.108201
0.109529
0.110587
0.111417
0.112016
0.11241
0.112592
0.0537332
0.0608054
0.0674632
0.0735447
0.0791565
0.0841867
0.0887324
0.0927361
0.0962887
0.0993672
0.102052
0.104338
0.106293
0.107919
0.109268
0.110346
0.11119
0.111801
0.112202
0.112389
0.0535697
0.060577
0.0671839
0.0732352
0.0788272
0.0838523
0.0883997
0.0924143
0.095981
0.0990783
0.101782
0.104089
0.106063
0.107707
0.109072
0.110164
0.111019
0.111639
0.112046
0.112235
0.0534639
0.0604275
0.0669998
0.0730307
0.078609
0.0836306
0.0881787
0.0922005
0.0957762
0.098886
0.101602
0.103923
0.105909
0.107566
0.108942
0.110043
0.110905
0.111531
0.111941
0.112133
0.0534128
0.0603545
0.0669078
0.0729294
0.0784999
0.0835205
0.0880682
0.092094
0.0956737
0.0987901
0.101512
0.10384
0.105832
0.107495
0.108876
0.109982
0.110848
0.111477
0.111888
0.112081
0.124469
0.116484
0.108043
0.0999862
0.0927171
0.0863021
0.0806946
0.0758208
0.0716074
0.0679815
0.0648725
0.0622145
0.0599478
0.0580194
0.0563829
0.0549972
0.0538269
0.0528408
0.0520124
0.0513185
0.0507395
0.0502588
0.0498622
0.0495379
0.0492763
0.0490694
0.0489111
0.0487962
0.0487219
0.0486902
0.114831
0.106457
0.0985656
0.0913029
0.0848637
0.0792092
0.0742665
0.0699746
0.0662757
0.0631056
0.0603992
0.0580956
0.05614
0.0544842
0.0530859
0.0519082
0.0509189
0.0500903
0.0493981
0.0488219
0.0483439
0.047949
0.0476246
0.0473601
0.0471466
0.0469769
0.0468455
0.0467475
0.0466807
0.0466507
0.103726
0.0941932
0.0865644
0.0800293
0.0745393
0.0698744
0.065887
0.0624796
0.0595786
0.0571159
0.0550293
0.0532636
0.0517718
0.0505135
0.0494542
0.0485644
0.0478187
0.0471956
0.0466763
0.046245
0.0458879
0.0455934
0.0453515
0.0451538
0.0449933
0.0448643
0.0447622
0.0446832
0.0446248
0.0445948
0.0937123
0.0843088
0.0771798
0.0711368
0.0662303
0.0621859
0.058833
0.0560444
0.0537234
0.0517901
0.0501788
0.0488352
0.047715
0.0467815
0.0460043
0.0453583
0.0448223
0.0443786
0.0440123
0.0437107
0.0434631
0.0432603
0.0430944
0.0429588
0.0428479
0.0427572
0.0426832
0.0426225
0.0425719
0.0425394
0.0835948
0.07534
0.069377
0.064077
0.059756
0.056189
0.053263
0.0508681
0.048911
0.0473122
0.0460065
0.0449409
0.0440726
0.0433662
0.0427929
0.0423288
0.0419544
0.0416533
0.0414123
0.0412199
0.0410667
0.0409448
0.0408474
0.0407688
0.0407043
0.04065
0.0406029
0.0405605
0.0405181
0.0404829
0.0729411
0.0658257
0.0611835
0.0568724
0.0533623
0.0504157
0.0479879
0.0460046
0.0443973
0.043102
0.0420639
0.0412369
0.0405825
0.040069
0.0396697
0.0393627
0.0391296
0.0389554
0.0388274
0.0387352
0.03867
0.0386247
0.038593
0.0385699
0.0385512
0.0385333
0.0385137
0.0384902
0.0384577
0.038421
0.0622006
0.0560295
0.0524242
0.04901
0.0463545
0.044132
0.0423167
0.0408453
0.0396677
0.0387369
0.0380113
0.037455
0.0370372
0.0367317
0.0365163
0.0363725
0.0362845
0.0362392
0.0362255
0.0362343
0.0362579
0.0362897
0.0363245
0.0363578
0.0363858
0.0364054
0.0364145
0.0364113
0.0363903
0.0363538
0.0516197
0.0464439
0.0437035
0.0410281
0.0391117
0.0375631
0.0363602
0.035427
0.0347167
0.0341895
0.0338128
0.0335586
0.0334033
0.0333266
0.0333113
0.0333429
0.033409
0.0334991
0.0336045
0.0337177
0.0338323
0.0339432
0.0340459
0.0341367
0.0342126
0.0342708
0.0343096
0.0343277
0.0343198
0.0342851
0.0411658
0.0371
0.035261
0.0333111
0.0320637
0.0311101
0.0304554
0.0300169
0.0297487
0.0296133
0.0295816
0.0296306
0.0297412
0.0298977
0.030087
0.030298
0.0305216
0.0307499
0.0309764
0.0311954
0.0314023
0.0315931
0.0317644
0.0319134
0.0320377
0.0321352
0.0322044
0.0322448
0.0322511
0.0322198
0.030804
0.0278758
0.0269834
0.0258209
0.025258
0.0248818
0.0247383
0.0247531
0.02489
0.0251161
0.0254067
0.0257421
0.0261067
0.0264881
0.0268763
0.027263
0.0276416
0.0280064
0.0283528
0.028677
0.0289757
0.0292462
0.029486
0.0296933
0.0298663
0.0300036
0.0301038
0.0301671
0.0301887
0.0301622
0.0205633
0.018743
0.0187738
0.0184227
0.0185666
0.0187843
0.0191537
0.0196118
0.0201377
0.0207078
0.0213037
0.0219107
0.022517
0.0231134
0.0236928
0.0242493
0.0247784
0.0252765
0.0257406
0.0261684
0.0265578
0.0269072
0.0272152
0.0274807
0.0277026
0.0278798
0.0280116
0.0280984
0.0281363
0.0281161
0.0104796
0.00973623
0.010648
0.0110886
0.0119268
0.0127406
0.0136275
0.0145316
0.0154457
0.0163559
0.0172517
0.0181239
0.0189656
0.0197713
0.0205367
0.0212588
0.0219351
0.0225637
0.0231435
0.0236733
0.0241523
0.02458
0.0249558
0.0252793
0.02555
0.0257676
0.0259314
0.0260423
0.0260973
0.026085
0.000567532
0.000876746
0.00264947
0.00385648
0.00536036
0.00675296
0.00814708
0.00949206
0.010792
0.0120411
0.0132351
0.0143705
0.0154452
0.0164575
0.0174065
0.0182917
0.0191131
0.0198706
0.0205645
0.0211951
0.021763
0.0222683
0.0227115
0.0230929
0.0234126
0.0236707
0.0238669
0.0240025
0.0240754
0.0240721
-0.00916986
-0.00783589
-0.00520189
-0.00324572
-0.00109809
0.000852953
0.00273612
0.00450735
0.00618444
0.00776705
0.00925553
0.0106513
0.0119565
0.0131733
0.014304
0.0153507
0.0163155
0.0172004
0.0180074
0.018738
0.0193939
0.0199764
0.0204867
0.0209258
0.0212945
0.0215931
0.0218221
0.0219828
0.0220741
0.0220811
-0.0187291
-0.0164035
-0.0128988
-0.0102141
-0.00743568
-0.00494144
-0.00258483
-0.000405133
0.00163803
0.00354617
0.00532282
0.00697408
0.00850602
0.00992431
0.0112341
0.0124402
0.0135469
0.0145579
0.0154766
0.0163062
0.0170494
0.0177085
0.0182855
0.0187821
0.0191996
0.0195389
0.0198007
0.019987
0.0200973
0.0201155
-0.0281113
-0.0248052
-0.0204319
-0.0170475
-0.0136513
-0.0106281
-0.00780602
-0.00524068
-0.00283837
-0.000612376
0.00144551
0.00334651
0.00510054
0.00671655
0.00820255
0.00956564
0.0108121
0.0119475
0.0129768
0.0139043
0.0147339
0.0154688
0.0161121
0.0166659
0.0171322
0.017512
0.0178068
0.0180187
0.0181486
0.0181785
-0.0373304
-0.032982
-0.0277977
-0.0237375
-0.0197457
-0.0162108
-0.0129239
-0.0100016
-0.00724009
-0.00470341
-0.00237097
-0.000225912
0.00174544
0.00355526
0.00521422
0.00673166
0.00811582
0.0093739
0.0105123
0.0115365
0.0124515
0.0132616
0.0139706
0.0145816
0.0150963
0.0155163
0.015844
0.0160815
0.0162315
0.0162737
-0.0465027
-0.0407911
-0.035028
-0.030264
-0.0257263
-0.0216946
-0.01794
-0.0146887
-0.0115601
-0.00872357
-0.00612307
-0.00373947
-0.00155539
0.00044446
0.00227326
0.0039425
0.00546222
0.00684123
0.00808724
0.00920703
0.0102065
0.0110908
0.0118646
0.0125326
0.0130962
0.0135558
0.0139161
0.014179
0.0143496
0.0144046
-0.0553294
-0.0485387
-0.0421931
-0.0367158
-0.0316517
-0.0271195
-0.0229684
-0.0192267
-0.0157899
-0.0126656
-0.00980626
-0.00719062
-0.00479864
-0.00261252
-0.000616887
0.00120169
0.00285496
0.00435322
0.00570551
0.0069197
0.00800265
0.00896011
0.00979694
0.0105214
0.0111383
0.0116343
0.0120267
0.0123149
0.0125055
0.0125749
-0.0637901
-0.0561955
-0.0492304
-0.0430782
-0.0374806
-0.0324578
-0.0278857
-0.0237385
-0.0199781
-0.0165606
-0.0134408
-0.0105929
-0.00799336
-0.00562156
-0.00345979
-0.00149261
0.000293489
0.00191032
0.00336822
0.00467617
0.00584205
0.00687266
0.00777417
0.00855416
0.00921672
0.00975568
0.0101806
0.0104946
0.0107016
0.0107897
-0.0719903
-0.0637088
-0.0560931
-0.0493077
-0.0431802
-0.0376863
-0.0327012
-0.0281947
-0.0241105
-0.0203992
-0.0170191
-0.0139398
-0.0111338
-0.00857737
-0.00625057
-0.00413584
-0.00221792
-0.000483472
0.00107915
0.00248016
0.00372851
0.00483201
0.00579768
0.00663231
0.0073396
0.0079191
0.00837698
0.00871674
0.00894178
0.00904456
-0.0800286
-0.0710752
-0.0627778
-0.0553866
-0.0487478
-0.0428028
-0.0374229
-0.0325665
-0.0281633
-0.024164
-0.0205283
-0.0172208
-0.0142108
-0.0114721
-0.00898221
-0.00672165
-0.0046734
-0.00282263
-0.00115633
0.000336864
0.00166686
0.00284225
0.0038706
0.00475849
0.00551017
0.00612922
0.00661968
0.00698502
0.00722907
0.00734386
-0.0879489
-0.0782923
-0.0693118
-0.0613357
-0.0542045
-0.0478204
-0.0420543
-0.0368484
-0.0321308
-0.0278505
-0.0239639
-0.0204318
-0.0172207
-0.014302
-0.011651
-0.00924631
-0.00706921
-0.00510338
-0.00333456
-0.00175035
-0.000339958
0.000905998
0.00199578
0.00293639
0.00373314
0.00439071
0.0049129
0.00530324
0.00556597
0.00569279
-0.0957443
-0.0853771
-0.0757257
-0.0671818
-0.0595694
-0.052752
-0.0466009
-0.0410471
-0.0360192
-0.031462
-0.0273276
-0.0235733
-0.0201631
-0.0170662
-0.0142556
-0.0117081
-0.00940339
-0.00732365
-0.00545346
-0.00377937
-0.0022896
-0.000973856
0.000176812
0.00116991
0.00201145
0.00270667
0.00325976
0.00367436
0.00395514
0.00409433
-0.103408
-0.0923502
-0.0820411
-0.072941
-0.0648519
-0.0576047
-0.05107
-0.0451711
-0.0398352
-0.0350027
-0.0306217
-0.0266466
-0.0230386
-0.0197644
-0.0167953
-0.014106
-0.0116745
-0.00948181
-0.00751114
-0.00574793
-0.00417938
-0.00279441
-0.00158346
-0.000538498
0.000347196
0.00107938
0.00166262
0.00210078
0.00239894
0.00255031
-0.110951
-0.0992311
-0.0882708
-0.0786195
-0.0700569
-0.062384
-0.055468
-0.0492255
-0.0435818
-0.0384744
-0.0338475
-0.0296522
-0.0258468
-0.022396
-0.019269
-0.0164385
-0.013881
-0.011576
-0.00950542
-0.00765365
-0.00600695
-0.00455347
-0.003283
-0.00218684
-0.00125763
-0.000489135
0.00012359
0.000584602
0.000899421
0.00106239
-0.118397
-0.10604
-0.0944251
-0.0842225
-0.0751902
-0.0670965
-0.0598004
-0.0532131
-0.0472606
-0.0418783
-0.0370057
-0.0325899
-0.0285872
-0.0249601
-0.0216754
-0.0187042
-0.0160211
-0.0136042
-0.0114343
-0.00949463
-0.00777048
-0.00624922
-0.0049199
-0.00377315
-0.00280105
-0.00199691
-0.00135538
-0.0008722
-0.00054148
-0.000367669
-0.125776
-0.112799
-0.100515
-0.0897569
-0.0802597
-0.0717495
-0.0640714
-0.0571359
-0.050873
-0.0452156
-0.0400968
-0.0354598
-0.0312594
-0.0274559