/*--------------------------------*- C++ -*----------------------------------*\
  =========                 |
  \\      /  F ield         | OpenFOAM: The Open Source CFD Toolbox
   \\    /   O peration     | Website:  https://openfoam.org
    \\  /    A nd           | Version:  7
     \\/     M anipulation  |
\*---------------------------------------------------------------------------*/
FoamFile
{
    version     2.0;
    format      ascii;
    class       surfaceScalarField;
    location    "114.999";
    object      phi;
}
// * * * * * * * * * * * * * * * * * * * * * * * * * * * * * * * * * * * * * //

dimensions      [0 3 -1 0 0 0 0];

internalField   nonuniform List<scalar> 
7248
(
-0.000165214
0.000152024
-0.000449703
0.000273606
-0.000765226
0.000310508
-0.00108476
0.000318519
-0.00140578
0.00032343
-0.00173016
0.000330519
-0.00205975
0.000339743
-0.00239614
0.000350808
-0.00274078
0.00036353
-0.003095
0.000377754
-0.00346005
0.000393372
-0.00383712
0.000410277
-0.00422726
0.0004283
-0.00463132
0.000447279
0.000467453
-0.00505055
-0.000164399
0.000316424
-0.000447948
0.000557154
-0.000762692
0.000625252
-0.00108155
0.00063738
-0.00140193
0.000643805
-0.00172568
0.000654274
-0.00205465
0.000668714
-0.00239043
0.000686588
-0.00273447
0.000707566
-0.00308808
0.000731367
-0.00345252
0.00075781
-0.00382897
0.000786728
-0.00421849
0.000817816
-0.00462193
0.000850725
0.000885993
-0.00504047
-0.00016291
0.000479333
-0.000444744
0.000838989
-0.000758069
0.000938576
-0.0010757
0.000955008
-0.00139489
0.000963002
-0.00171749
0.000976874
-0.00204532
0.000996545
-0.00237997
0.00102124
-0.00272288
0.00105047
-0.00307535
0.00108384
-0.00343864
0.0011211
-0.00381393
0.00116202
-0.00420227
0.00120616
-0.00460454
0.00125299
0.00130333
-0.00502188
-0.000160746
0.000640079
-0.000440092
0.00111834
-0.000751356
0.00124984
-0.00106719
0.00127084
-0.00138468
0.00128049
-0.0017056
0.00129779
-0.00203177
0.00132271
-0.00236476
0.00135423
-0.00270601
0.00139172
-0.00305682
0.00143465
-0.00341842
0.00148271
-0.00379201
0.0015356
-0.00417863
0.00159278
-0.00457917
0.00165353
0.00171888
-0.00499472
-0.000157912
0.000797991
-0.000433994
0.00139442
-0.000742555
0.0015584
-0.00105604
0.00158433
-0.00137129
0.00159573
-0.00169
0.00161651
-0.00201399
0.0016467
-0.00234481
0.00168505
-0.00268387
0.00173079
-0.00303249
0.00178327
-0.00339188
0.0018421
-0.00376322
0.00190694
-0.00414757
0.00197713
-0.00454582
0.00205178
0.00213206
-0.004959
-0.00015441
0.000952401
-0.000426451
0.00166646
-0.000731665
0.00186362
-0.00104225
0.00189492
-0.00135473
0.00190821
-0.00167072
0.0019325
-0.001992
0.00196798
-0.00232013
0.00201317
-0.0026565
0.00206716
-0.0030024
0.00212917
-0.00335904
0.00219874
-0.00372759
0.00227548
-0.00410912
0.00235867
-0.00450453
0.00244719
0.00254229
-0.00491476
-0.000150245
0.00110265
-0.000417467
0.00193368
-0.00071869
0.00216484
-0.00102582
0.00220206
-0.001335
0.00221739
-0.00164775
0.00224525
-0.00196582
0.00228605
-0.00229074
0.00233809
-0.0026239
0.00240031
-0.00296656
0.00247184
-0.00331993
0.0025521
-0.00368515
0.0026407
-0.00406331
0.00273683
-0.00445532
0.0028392
0.00294899
-0.00486201
-0.000145423
0.00124807
-0.000407046
0.0021953
-0.000703631
0.00246142
-0.00100676
0.00250518
-0.00131212
0.00252275
-0.00162112
0.00255424
-0.00193546
0.0026004
-0.00225667
0.0026593
-0.0025861
0.00272974
-0.00292501
0.00281074
-0.00327457
0.00290167
-0.00363593
0.00300206
-0.00401018
0.00311109
-0.00439822
0.00322724
0.00335157
-0.00480081
-0.000139951
0.00138802
-0.000395194
0.00245055
-0.000686491
0.00275272
-0.000985065
0.00280376
-0.0012861
0.00282378
-0.00159083
0.00285898
-0.00190096
0.00291052
-0.00221795
0.00297629
-0.00254314
0.00305494
-0.00287778
0.00314538
-0.00322301
0.0032469
-0.00357998
0.00335903
-0.00394977
0.00348088
-0.0043333
0.00361077
0.00374946
-0.0047312
-0.000133838
0.00152186
-0.000381916
0.00269862
-0.000667274
0.00303808
-0.000960748
0.00309723
-0.00125694
0.00311998
-0.00155692
0.00315895
-0.00186232
0.00321592
-0.0021746
0.00328856
-0.00249506
0.0033754
-0.00282491
0.00347523
-0.0031653
0.00358729
-0.00351734
0.00371107
-0.00388215
0.00384569
-0.00426062
0.00398924
0.00414211
-0.00465326
-0.000127093
0.00164895
-0.000367222
0.00293875
-0.000645985
0.00331684
-0.000933816
0.00338506
-0.00122467
0.00341084
-0.0015194
0.00345368
-0.00181959
0.00351612
-0.00212666
0.00359563
-0.00244189
0.00369063
-0.00276646
0.00379981
-0.00310149
0.00392232
-0.00344808
0.00405766
-0.00380737
0.00420497
-0.00418024
0.00436212
0.00452896
-0.00456709
-0.00011973
0.00176868
-0.000351121
0.00317014
-0.000622628
0.00358835
-0.000904277
0.00366671
-0.0011893
0.00369586
-0.0014783
0.00374268
-0.0017728
0.00381062
-0.00207418
0.00389701
-0.00238369
0.00400014
-0.00270248
0.0041186
-0.00303164
0.00425147
-0.00337226
0.00439828
-0.00372549
0.0045582
-0.00409225
0.00472888
0.0049095
-0.00447279
-0.000111762
0.00188044
-0.000333625
0.00339201
-0.000597212
0.00385194
-0.00087214
0.00394164
-0.00115085
0.00397457
-0.00143364
0.00402547
-0.00172198
0.00409895
-0.0020172
0.00419222
-0.00232051
0.00430345
-0.00263304
0.00443113
-0.00295582
0.00457426
-0.00328994
0.0047324
-0.0036366
0.00490486
-0.00399675
0.00508902
0.00528321
-0.00437045
-0.000103206
0.00198365
-0.000314748
0.00360355
-0.000569744
0.00410693
-0.000837415
0.00420931
-0.00110933
0.00424649
-0.00138546
0.0043016
-0.00166718
0.00438067
-0.00195577
0.00448082
-0.00225241
0.0046001
-0.00255819
0.00473691
-0.0028741
0.00489017
-0.0032012
0.00505949
-0.00354075
0.00524442
-0.00389381
0.00544207
0.00564963
-0.00426023
-9.40831e-05
0.00207773
-0.000294507
0.00380397
-0.000540232
0.00435266
-0.000800115
0.00446919
-0.00106477
0.00451115
-0.00133379
0.00457061
-0.00160843
0.00465531
-0.00188995
0.00476233
-0.00217946
0.00488961
-0.00247803
0.00503547
-0.00278658
0.00519871
-0.00310609
0.00537901
-0.00343798
0.0055763
-0.00378349
0.00578759
0.00600838
-0.00414224
-8.44203e-05
0.00216215
-0.000272921
0.00399247
-0.000508689
0.00458842
-0.00076025
0.00472076
-0.0010172
0.0047681
-0.00127866
0.00483207
-0.0015458
0.00492245
-0.0018198
0.00503633
-0.00210174
0.00517155
-0.00239264
0.00532637
-0.00269338
0.00549945
-0.0030048
0.00569044
-0.0033284
0.0058999
-0.00366596
0.00612514
0.00635916
-0.00401674
-7.42528e-05
0.0022364
-0.000250014
0.00416824
-0.000475126
0.00481354
-0.000717836
0.00496347
-0.000966627
0.00501689
-0.00122012
0.00508556
-0.00147933
0.00518166
-0.00174538
0.00530238
-0.00201931
0.00544548
-0.00230209
0.00560915
-0.00259455
0.00579191
-0.00289731
0.0059932
-0.00321175
0.00621435
-0.00354077
0.00645415
0.00670217
-0.00388378
-6.3594e-05
0.0023
-0.000225808
0.00433045
-0.00043956
0.00502729
-0.000672888
0.00519679
-0.000913089
0.00525709
-0.0011582
0.00533067
-0.00140908
0.00543254
-0.00166678
0.00556008
-0.00193227
0.00571097
-0.00220651
0.00588339
-0.00249035
0.00607575
-0.00278421
0.00628706
-0.0030889
0.00651904
-0.00340855
0.0067738
0.00703815
-0.00374453
-5.24377e-05
0.00235244
-0.000200332
0.00447834
-0.000402007
0.00522897
-0.000625422
0.00542021
-0.000856612
0.00548828
-0.00109295
0.005567
-0.0013351
0.0056747
-0.00158407
0.00580905
-0.00184073
0.00596763
-0.00210597
0.00614864
-0.00238067
0.00635045
-0.00266508
0.00657147
-0.0029586
0.00681256
-0.00326525
0.00708045
0.00737042
-0.00359752
-4.08263e-05
0.00239326
-0.000173624
0.00461114
-0.00036249
0.00541783
-0.000575461
0.00563318
-0.000797228
0.00571005
-0.00102441
0.00579419
-0.00125748
0.00590777
-0.00149733
0.0060489
-0.00174478
0.00621509
-0.00200064
0.0064045
-0.00226583
0.00661564
-0.00254106
0.0068467
-0.00282535
0.00709684
-0.0031166
0.00737171
0.00770489
-0.00345107
-2.87937e-05
0.00242206
-0.000145724
0.00472807
-0.000321032
0.00559314
-0.000523029
0.00583518
-0.000734972
0.00592199
-0.000952645
0.00601186
-0.00117626
0.00613138
-0.00140664
0.00627928
-0.00164455
0.00645299
-0.00189068
0.00665064
-0.00214587
0.00687083
-0.00241096
0.00711179
-0.0026863
0.00737218
-0.00297303
0.00765845
0.00798139
-0.00324954
-1.63492e-05
0.0024384
-0.000116666
0.00482839
-0.000277663
0.00575414
-0.00046816
0.00602567
-0.000669881
0.00612371
-0.000877698
0.00621968
-0.00109153
0.00634522
-0.0013121
0.00649985
-0.00154012
0.00668101
-0.0017762
0.00688672
-0.00202101
0.00711564
-0.00227539
0.00736617
-0.0025398
0.00763659
-0.00281259
0.00793123
0.00826364
-0.00309483
-3.29901e-06
0.0024417
-8.64593e-05
0.00491155
-0.000232419
0.0059001
-0.000410901
0.00620415
-0.000601996
0.00631481
-0.000799624
0.00641731
-0.00100335
0.00654894
-0.0012138
0.0067103
-0.0014316
0.00689881
-0.00165733
0.00711244
-0.00189154
0.00734985
-0.00213503
0.00760966
-0.00238884
0.0078904
-0.00265324
0.00819562
0.00853438
-0.00292398
9.23049e-06
0.00243247
-5.50115e-05
0.00497579
-0.000185378
0.00603046
-0.000351314
0.00637009
-0.00053136
0.00649485
-0.000718482
0.00660443
-0.000911809
0.00674227
-0.00111183
0.00691032
-0.00131912
0.00710611
-0.00153422
0.00732754
-0.00175764
0.00757327
-0.00199018
0.0078422
-0.00223302
0.00813324
-0.00248627
0.00844888
0.00879455
-0.00274644
2.19052e-05
0.00241057
-2.16875e-05
0.00501938
-0.000136739
0.00614551
-0.000289465
0.00652282
-0.000458019
0.00666341
-0.000634334
0.00678074
-0.000816976
0.00692491
-0.00100629
0.00709963
-0.00120279
0.00730261
-0.00140699
0.00753174
-0.00161939
0.00778567
-0.00184074
0.00806355
-0.00207214
0.00836464
-0.00231338
0.00869011
0.00904271
-0.00256154
3.44766e-05
0.00237609
1.16568e-05
0.0050422
-8.69425e-05
0.00624411
-0.000225396
0.00666127
-0.000382032
0.00682004
-0.000547247
0.00694596
-0.000718934
0.0070966
-0.000897268
0.00727796
-0.00108272
0.00748807
-0.00127576
0.00772477
-0.00147685
0.00798676
-0.0016867
0.0082734
-0.00190628
0.00858422
-0.0021354
0.00891923
0.00927874
-0.00237143
4.66886e-05
0.0023294
4.23644e-05
0.00504653
-3.59013e-05
0.00632238
-0.000159181
0.00678455
-0.000303488
0.00696435
-0.000457292
0.00709976
-0.000617762
0.00725707
-0.000784874
0.00744507
-0.000959021
0.00766222
-0.00114062
0.00790638
-0.00133013
0.00817626
-0.00152816
0.00847144
-0.00173556
0.00879162
-0.0019522
0.00913587
0.00950263
-0.00217608
5.87322e-05
0.00227067
7.48673e-05
0.00503039
1.7074e-05
0.00638017
-9.09615e-05
0.00689258
-0.00022246
0.00709585
-0.000364535
0.00724184
-0.000513544
0.00740608
-0.000669201
0.00760073
-0.000831804
0.00782482
-0.00100172
0.0080763
-0.00117937
0.00835391
-0.00136528
0.00865735
-0.00156015
0.00898649
-0.00176385
0.00933957
0.00971379
-0.00197501
7.05057e-05
0.00220017
0.000107892
0.00499301
7.04756e-05
0.00641759
-2.09071e-05
0.00698397
-0.000139027
0.00721397
-0.00026905
0.00737186
-0.000406368
0.0075434
-0.000550355
0.00774472
-0.000701191
0.00797565
-0.000859196
0.0082343
-0.00102472
0.00851944
-0.00119823
0.00883086
-0.00138026
0.00916852
-0.00157068
0.00952999
0.00991158
-0.00176848
8.17922e-05
0.00211837
0.000140998
0.0049338
0.000125176
0.00643341
5.10021e-05
0.00705814
-5.34065e-05
0.00731838
-0.000170924
0.00748938
-0.000296332
0.0076688
-0.000428446
0.00787683
-0.000567307
0.00811452
-0.000713181
0.00838018
-0.000866352
0.00867261
-0.00102718
0.00899168
-0.00119609
0.00933743
-0.00137297
0.00970686
0.0100956
-0.00155701
9.23938e-05
0.00202598
0.000173873
0.00485232
0.000180618
0.00642667
0.000124641
0.00711412
3.45833e-05
0.00740843
-7.03154e-05
0.00759428
-0.000183548
0.00778204
-0.000303593
0.00799688
-0.000430281
0.0082412
-0.000563833
0.00851373
-0.000704421
0.00881319
-0.000852315
0.00913958
-0.00100787
0.00949299
-0.00117099
0.00986997
0.0102656
-0.00134099
0.000102129
0.00192385
0.000206173
0.00474827
0.000236473
0.00639637
0.000199789
0.0071508
0.000125133
0.00748309
3.27347e-05
0.00768667
-6.82048e-05
0.00788298
-0.00017594
0.00810461
-0.000290241
0.00835551
-0.000411318
0.0086348
-0.000539117
0.00894099
-0.000673851
0.00927431
-0.00081583
0.00963497
-0.000965015
0.0100192
0.0104214
-0.00112075
0.000110816
0.00181303
0.00023752
0.00462157
0.000292391
0.0063415
0.000276117
0.00716708
0.000217446
0.00754176
0.000138727
0.00776539
4.98483e-05
0.00797186
-4.57606e-05
0.00820022
-0.00014736
0.00845711
-0.000255821
0.00874326
-0.000370622
0.00905579
-0.000492016
0.00939571
-0.0006202
0.00976315
-0.000755358
0.0101543
0.0105626
-0.000896567
0.000118276
0.00169476
0.000267505
0.00447234
0.000347952
0.00626105
0.000353319
0.00716171
0.000311509
0.00758357
0.000246663
0.00783024
0.000170698
0.00804782
8.73999e-05
0.00828352
-2.57213e-06
0.00854708
-9.75609e-05
0.00883825
-0.000199162
0.0091574
-0.000307078
0.00950362
-0.000421192
0.00987727
-0.000542293
0.0102754
0.0106891
-0.000668813
0.000124341
0.00157042
0.000295692
0.00430099
0.000402667
0.00615407
0.00043102
0.00713335
0.000407088
0.0076075
0.000356657
0.00788067
0.000293657
0.00811082
0.000223121
0.00835406
0.000146464
0.00862373
6.35535e-05
0.00892116
-2.51227e-05
0.00924607
-0.00011938
0.00959788
-0.000219148
0.00997704
-0.000325966
0.0103822
0.010801
-0.000437902
0.000128865
0.00144155
0.000321617
0.00410824
0.000455973
0.00601972
0.000508759
0.00708057
0.000503879
0.00761238
0.000468537
0.00791601
0.000418785
0.00816057
0.000361015
0.00841183
0.000297079
0.00868767
0.000227394
0.00899085
0.000152068
0.0093214
7.10997e-05
0.00967885
-1.52711e-05
0.0100634
-0.000105895
0.0104729
0.0108997
-0.000204575
0.000131733
0.00130982
0.000344784
0.00389519
0.000507224
0.00585728
0.000585975
0.00700182
0.000601506
0.00759685
0.000582062
0.00793546
0.000545923
0.00819671
0.000501033
0.00845672
0.000449947
0.00873876
0.000393359
0.00904744
0.000331475
0.00938328
0.0002645
0.00974582
0.000192756
0.0101352
0.000115803
0.0105498
0.0109852
3.03013e-05
0.00013287
0.00117695
0.000364686
0.00366337
0.000555685
0.00566628
0.000661999
0.0068955
0.000699495
0.00755936
0.000696941
0.00793801
0.000674877
0.00821877
0.000643047
0.00848855
0.0006049
0.0087769
0.000561439
0.0090909
0.000513027
0.00943169
0.000459876
0.00979897
0.000402247
0.0101928
0.000339889
0.0106122
0.0110513
0.0002738
0.000132253
0.0010447
0.000380726
0.0034149
0.000600525
0.00544648
0.000736038
0.00675999
0.000797257
0.00749814
0.000812804
0.00792246
0.000805419
0.00822616
0.000786885
0.00850708
0.000761756
0.00880203
0.000731465
0.00912119
0.000696535
0.00946662
0.000657223
0.00983829
0.00061388
0.0102361
0.000566735
0.0106593
0.0111019
0.000516093
0.000129917
0.000914781
0.000392363
0.00315245
0.000640841
0.005198
0.000807154
0.00659368
0.000894065
0.00741123
0.000929183
0.00788735
0.000937264
0.00821808
0.000932346
0.008512
0.000920333
0.00881404
0.000903244
0.00913828
0.0008818
0.00948807
0.000856352
0.00986373
0.000827317
0.0102652
0.000794905
0.0106917
0.0111377
0.000759181
0.00012596
0.00078882
0.000399176
0.00287924
0.000675668
0.00492151
0.000874259
0.00639509
0.000989026
0.00729646
0.00104548
0.00783089
0.00107005
0.00819351
0.00107919
0.00850286
0.00108044
0.0088128
0.00107658
0.00914213
0.00106862
0.00949604
0.001057
0.00987535
0.00104216
0.01028
0.00102421
0.0107097
0.0111588
0.00100311
0.000120535
0.000668285
0.000400832
0.00259894
0.000703989
0.00461835
0.000936099
0.00616298
0.00108105
0.00715151
0.00116094
0.00775099
0.00120333
0.00815112
0.00122715
0.00847904
0.00124188
0.00879807
0.00125129
0.00913272
0.00125678
0.00949055
0.00125891
0.00987322
0.00125817
0.0102807
0.00125463
0.0107132
0.0111653
0.00124805
0.000113837
0.000554448
0.000397134
0.00231564
0.000724766
0.00429072
0.000991256
0.00589649
0.00116882
0.00697395
0.0012746
0.00764521
0.00133649
0.00808924
0.00137585
0.00843967
0.0014044
0.00876952
0.00142717
0.00910994
0.00144609
0.00947163
0.00146191
0.0098574
0.00147517
0.0102675
0.00148606
0.0107023
0.0111573
0.00149405
0.000106102
0.000448346
0.000388069
0.00203368
0.00073699
0.0039418
0.00103816
0.00559532
0.00125077
0.00676134
0.00138525
0.00751072
0.00146875
0.00800574
0.00152485
0.00838357
0.00156773
0.00872665
0.00160401
0.00907366
0.00163636
0.00943928
0.0016658
0.00982796
0.00169298
0.0102403
0.00171823
0.0106771
0.0111349
0.00174067
9.75921e-05
0.000350753
0.00037384
0.00175743
0.000739758
0.00357588
0.00107511
0.00525996
0.00132507
0.00651139
0.00149139
0.0073444
0.00159911
0.00789802
0.00167355
0.00830913
0.00173151
0.00866868
0.00178158
0.00902359
0.00182741
0.00939345
0.00187042
0.00978495
0.00191138
0.0101993
0.00195088
0.0106376
0.0110982
0.00198758
8.85803e-05
0.000262173
0.000354885
0.00149112
0.000732375
0.00319839
0.00110036
0.00489198
0.00138959
0.00622216
0.00159113
0.00714286
0.00172622
0.00776293
0.00182113
0.00821422
0.0018953
0.00859451
0.0019596
0.00895929
0.00201902
0.00933403
0.00207556
0.00972841
0.00213019
0.0101447
0.00218377
0.010584
0.0110475
0.00223451
7.93331e-05
0.00018284
0.000331859
0.0012386
0.000714481
0.00281577
0.00111218
0.00449428
0.00144196
0.00589237
0.00168223
0.00690259
0.00184839
0.00759677
0.00196652
0.0080961
0.00205848
0.00850255
0.00213774
0.00888004
0.00221097
0.0092608
0.00228106
0.00965832
0.00234921
0.0100766
0.00241671
0.0105165
0.010983
0.00248122
7.00892e-05
0.000112751
0.000305604
0.00100308
0.000686176
0.0024352
0.00110899
0.00407146
0.00147959
0.00552177
0.00176199
0.00662019
0.00196343
0.00739532
0.00210826
0.00795127
0.00222022
0.00839059
0.00231554
0.00878473
0.00240302
0.00917331
0.00248673
0.00957462
0.00256829
0.00999499
0.00264952
0.0104353
0.010905
0.00272749
6.10437e-05
5.1707e-05
0.000277075
0.000787053
0.00064813
0.00206414
0.00108961
0.00362998
0.0014998
0.00511159
0.00182726
0.00629273
0.0020686
0.00715398
0.00224439
0.00777549
0.00237933
0.00825565
0.00249238
0.00867168
0.00259484
0.00907084
0.00269238
0.00947708
0.00278727
0.0099001
0.00288205
0.0103405
0.0108139
0.00297314
5.23405e-05
-6.33486e-07
0.00024725
0.000592144
0.000601601
0.00170979
0.0010534
0.00317818
0.00149996
0.00466504
0.0018745
0.00591818
0.00216053
0.00686795
0.00237234
0.00756367
0.00253417
0.00809382
0.00266735
0.00853851
0.00278597
0.00895222
0.0028978
0.00936525
0.00300602
0.00979188
0.00311419
0.0102323
0.0107101
0.00321801
4.40707e-05
-4.47042e-05
0.000217027
0.000419188
0.000548349
0.00137847
0.0010006
0.00272593
0.00147781
0.00418782
0.00189991
0.00549608
0.00223515
0.00653271
0.00248877
0.00731006
0.00268246
0.00790013
0.00283913
0.00838183
0.00297576
0.00881559
0.00310268
0.00923833
0.00322439
0.00967016
0.00334582
0.0101109
0.0105939
0.00346199
3.62615e-05
-8.09657e-05
0.000187135
0.000268314
0.00049044
0.00107517
0.000932438
0.00228394
0.0014318
0.00368846
0.00189963
0.00502824
0.00228779
0.00614455
0.00258942
0.00700843
0.00282107
0.00766848
0.00300581
0.00819709
0.00316321
0.00865819
0.00330658
0.00909496
0.0034422
0.00953455
0.0035769
0.00997621
0.0104659
0.00370495
2.89043e-05
-0.00010987
0.000158088
0.00013913
0.000429993
0.000803261
0.000851271
0.00186266
0.00136152
0.00317822
0.00187014
0.00451962
0.00231324
0.00570145
0.00266906
0.0066526
0.00294581
0.00739173
0.00316461
0.00797829
0.00334676
0.00847604
0.0035088
0.00893292
0.00365918
0.00938417
0.00380721
0.00982818
0.0103261
0.00394692
2.19596e-05
-0.00013183
0.000130208
3.08824e-05
0.000368943
0.000564525
0.000760338
0.00147126
0.0012681
0.00267046
0.0018088
0.00397892
0.00230612
0.00520413
0.00272148
0.00623724
0.00305122
0.00706199
0.00331158
0.00771794
0.00352407
0.00826355
0.00370816
0.00874883
0.00387486
0.00921747
0.00403683
0.0096662
0.0101754
0.00418754
1.5386e-05
-0.000147216
0.000103693
-5.74243e-05
0.000308909
0.000359309
0.000663427
0.00111674
0.00115453
0.00217936
0.00171461
0.00341884
0.00226147
0.00465726
0.00273971
0.00575901
0.00313041
0.00667129
0.0034413
0.00740705
0.00369155
0.00801329
0.0039028
0.00853758
0.0040884
0.00903187
0.0042651
0.0094895
0.0100131
0.00442744
9.17705e-06
-0.000156393
7.87278e-05
-0.000126975
0.000251201
0.000186836
0.000564449
0.000803496
0.00102559
0.00171821
0.00158891
0.00285552
0.0021756
0.00407057
0.0027165
0.00521811
0.00317508
0.00621271
0.00354648
0.00703565
0.00384405
0.00771573
0.00408953
0.0082921
0.00429853
0.00882287
0.00449205
0.00929598
0.00984066
0.00466449
3.40709e-06
-0.0001598
5.55782e-05
-0.000179146
0.000196969
4.54453e-05
0.000467127
0.000533338
0.000887463
0.00129788
0.00143605
0.00230694
0.0020473
0.00345932
0.00264527
0.00462014
0.00317588
0.0056821
0.00361785
0.00659368
0.00397406
0.00735952
0.0042639
0.00800226
0.0045022
0.00858457
0.00471622
0.00908195
0.00965512
0.00490177
-1.94567e-06
-0.000157854
3.4649e-05
-0.000215741
0.000147371
-6.72771e-05
0.000374902
0.000305807
0.000747134
0.000925647
0.0012635
0.00179057
0.00187919
0.00284362
0.00252168
0.00397765
0.0031233
0.00508047
0.00364413
0.00607286
0.00407171
0.00693193
0.0044181
0.00765587
0.00469671
0.00830596
0.00493577
0.0088429
0.00946134
0.00512954
-6.58131e-06
-0.000151273
1.65251e-05
-0.000238847
0.000103678
-0.00015443
0.000290974
0.000118511
0.000611748
0.000604873
0.00108142
0.0013209
0.00167881
0.00224623
0.00234564
0.00331082
0.00300945
0.00441667
0.00361293
0.00546938
0.00412386
0.006421
0.00454273
0.007237
0.00487203
0.00797666
0.00515208
0.00856284
0.00925393
0.00535949
-1.01278e-05
-0.000141145
1.95473e-06
-0.00025093
6.71995e-05
-0.000219675
0.000218299
-3.25886e-05
0.000488092
0.00033508
0.000901543
0.000907451
0.00145885
0.00168892
0.00212367
0.00264601
0.00283086
0.00370948
0.00351247
0.00478777
0.00411539
0.00581808
0.00462209
0.0067303
0.00502465
0.0075741
0.00534489
0.0082426
0.00901772
0.0055811
-1.25762e-05
-0.000128569
-8.90366e-06
-0.000254602
3.90435e-05
-0.000267622
0.000159394
-0.000152939
0.000382082
0.000112393
0.000735734
0.000553799
0.00123598
0.00118867
0.00187027
0.00201172
0.00259224
0.00298751
0.00333517
0.00404484
0.00403084
0.00512242
0.00463744
0.0061237
0.00513323
0.00707831
0.00551182
0.007864
0.00865941
0.00587013
-1.37549e-05
-0.000114814
-1.54639e-05
-0.000252893
1.98927e-05
-0.000302979
0.000115913
-0.000248959
0.000298126
-6.98209e-05
0.000594283
0.000257642
0.00102824
0.000754714
0.00160716
0.0014328
0.00230953
0.00228514
0.00308315
0.00327123
0.0038583
0.00434727
0.00456961
0.00541239
0.00518096
0.00646696
0.00566261
0.00738236
0.00825459
0.00606743
-1.36544e-05
-0.000101159
-1.78251e-05
-0.000248723
9.65972e-06
-0.000330464
8.81724e-05
-0.000327472
0.000238354
-0.000220002
0.000484235
1.17609e-05
0.000851481
0.000387467
0.00135945
0.000924829
0.00200973
0.00163485
0.00277359
0.00250736
0.00359693
0.00352392
0.00440227
0.00460705
0.00513664
0.00573259
0.00574075
0.00677825
0.00777671
0.00621863
-1.24149e-05
-8.87446e-05
-1.64923e-05
-0.000244645
7.3414e-06
-0.000354297
7.48308e-05
-0.000394961
0.000201985
-0.000347157
0.000407958
-0.000194212
0.000715855
7.95705e-05
0.00114938
0.000491308
0.00172551
0.00105872
0.00243954
0.00179334
0.00326478
0.00269868
0.00413141
0.00374043
0.00497645
0.00488755
0.00572208
0.00603261
0.0071991
0.00629969
-1.03041e-05
-7.84405e-05
-1.23349e-05
-0.000242614
1.11305e-05
-0.000377763
7.29441e-05
-0.000456775
0.000185245
-0.000459458
0.000362514
-0.000371481
0.000623352
-0.000181268
0.000990061
0.0001246
0.00148555
0.000563226
0.0021222
0.00115669
0.00290083
0.00192006
0.00377753
0.00286373
0.00469428
0.0039708
0.00558015
0.00514674
0.00649869
0.00628056
-7.67525e-06
-7.07653e-05
-6.4666e-06
-0.000243823
1.87e-05
-0.000402929
7.84192e-05
-0.000516494
0.000181999
-0.000563038
0.000340296
-0.000529778
0.000567499
-0.000408471
0.000881848
-0.000189749
0.00130495
0.000140122
0.00185663
0.000605013
0.00255455
0.00122213
0.00338764
0.00203064
0.00431447
0.00304397
0.00530335
0.00415786
0.00566736
0.00613468
-4.91541e-06
-6.58499e-05
-1.71061e-08
-0.000248721
2.74928e-05
-0.000430439
8.67105e-05
-0.000575712
0.000184998
-0.000661325
0.000330925
-0.000675705
0.000535561
-0.000613106
0.000813098
-0.000467286
0.0011807
-0.00022748
0.00165807
0.000127641
0.00226593
0.00061427
0.00301941
0.00127717
0.00389377
0.00216961
0.0049129
0.00313873
0.00472568
0.00585458
-2.41493e-06
-6.34349e-05
5.49013e-06
-0.000256626
3.50724e-05
-0.000460021
9.35419e-05
-0.000634181
0.000187259
-0.000755042
0.00032372
-0.000812167
0.000512459
-0.000801845
0.000765104
-0.000719931
0.0010947
-0.000557073
0.00151755
-0.000295208
0.00204836
8.34546e-05
0.00271435
0.000611184
0.00350022
0.00138374
0.00446714
0.00217181
0.00372781
0.00546501
-4.87482e-07
-6.29475e-05
9.50629e-06
-0.00026662
3.94819e-05
-0.000489997
9.54558e-05
-0.000690155
0.000183147
-0.000842734
0.000309811
-0.00093883
0.000484715
-0.00097675
0.000718596
-0.000953812
0.00102236
-0.000860834
0.001409
-0.000681853
0.00188583
-0.000393376
0.00247896
1.8057e-05
0.00317787
0.000684832
0.00403898
0.0013107
0.00274029
0.00502649
7.32307e-07
-6.36798e-05
1.11685e-05
-0.000277056
3.93063e-05
-0.000518135
9.00923e-05
-0.000740941
0.000168916
-0.000921557
0.000283272
-0.00105319
0.000442905
-0.00113638
0.000658813
-0.00116972
0.00094167
-0.00114369
0.0013026
-0.00104278
0.00174531
-0.000836085
0.00228726
-0.000523889
0.00292461
4.74838e-05
0.00367431
0.000560996
0.00181411
0.00460049
9.72673e-07
-6.46524e-05
1.00264e-05
-0.00028611
3.37498e-05
-0.000541858
7.62377e-05
-0.000783429
0.00014276
-0.00098808
0.000241271
-0.0011517
0.000382251
-0.00127736
0.000577468
-0.00136494
0.000838418
-0.00140464
0.00117561
-0.00137998
0.00159367
-0.00125414
0.00210059
-0.00103082
0.00270155
-0.000553474
0.00336921
-0.000106665
0.000970742
0.00421258
1.85235e-07
-6.48377e-05
5.92091e-06
-0.000291846
2.26077e-05
-0.000558545
5.37219e-05
-0.000814543
0.000104564
-0.00103892
0.000183578
-0.00123071
0.00030192
-0.0013957
0.000472131
-0.00153515
0.00070673
-0.00163924
0.00101644
-0.00168969
0.00140919
-0.00164689
0.00188646
-0.00150809
0.00246209
-0.0011291
0.00308275
-0.00072733
0.000197765
0.00385573
-1.559e-06
-6.32787e-05
-9.16021e-07
-0.000292489
6.20315e-06
-0.000565664
2.32399e-05
-0.00083158
5.55136e-05
-0.0010712
0.000111866
-0.00128706
0.000203844
-0.00148768
0.000344489
-0.00167579
0.000547036
-0.00184179
0.000822904
-0.00196556
0.00118336
-0.00200734
0.00162746
-0.00195219
0.00217442
-0.00167607
0.00276826
-0.00132116
-0.000523391
0.00348941
-4.19332e-06
-5.90854e-05
-1.05322e-05
-0.00028615
-1.47649e-05
-0.000561432
-1.38222e-05
-0.000832522
-2.1604e-06
-0.00108286
2.90525e-05
-0.00131828
9.16524e-05
-0.00155028
0.000198702
-0.00178284
0.000363646
-0.00200673
0.000598808
-0.00220072
0.00091758
-0.00232612
0.00132018
-0.00235478
0.00182794
-0.00218383
0.00239501
-0.00188823
-0.00120124
0.00307285
-7.58194e-06
-5.15034e-05
-2.20966e-05
-0.000271635
-3.92358e-05
-0.000544292
-5.57981e-05
-0.00081596
-6.61374e-05
-0.00107252
-6.12843e-05
-0.00132313
-2.98935e-05
-0.00158167
4.03419e-05
-0.00185308
0.00016302
-0.00212941
0.000351265
-0.00238896
0.000619314
-0.00259416
0.000970834
-0.0027063
0.00142696
-0.00263995
0.00195425
-0.00241553
-0.00183379
0.0025868
-1.15122e-05
-3.99912e-05
-3.50537e-05
-0.000248094
-6.58662e-05
-0.00051348
-0.000100427
-0.000781399
-0.00013305
-0.0010399
-0.00015519
-0.00130099
-0.000156307
-0.00158056
-0.000124462
-0.00188492
-4.68824e-05
-0.00220699
8.93968e-05
-0.00252524
0.000299611
-0.00280438
0.000591405
-0.0029981
0.000984417
-0.00303297
0.00145668
-0.00288779
-0.00241287
0.00203576
-1.57377e-05
-2.42535e-05
-4.86628e-05
-0.000215169
-9.3246e-05
-0.000468897
-0.000145523
-0.000729123
-0.000199884
-0.000985534
-0.000248448
-0.00125243
-0.000281722
-0.00154728
-0.000288998
-0.00187765
-0.0002584
-0.00223759
-0.000176504
-0.00260714
-2.90016e-05
-0.00295188
0.00019705
-0.00322415
0.000518239
-0.00335416
0.00092432
-0.00329387
-0.00292975
0.00144121
-1.99851e-05
-4.26839e-06
-6.2129e-05
-0.000173025
-0.000119907
-0.000411118
-0.00018885
-0.00066018
-0.000263548
-0.000910836
-0.000336998
-0.00117898
-0.000401004
-0.00148328
-0.000446246
-0.00183241
-0.000461883
-0.00222195
-0.000435004
-0.00263402
-0.000350739
-0.00303614
-0.000195305
-0.00337958
4.76941e-05
-0.00359715
0.000382639
-0.00362882
-0.0033757
0.000828583
-2.39706e-05
1.97022e-05
-7.46547e-05
-0.000122341
-0.000144421
-0.000341352
-0.000228277
-0.000576324
-0.00032111
-0.000818004
-0.000416932
-0.00108315
-0.000508974
-0.00139123
-0.000589407
-0.00175197
-0.000648638
-0.00216272
-0.000674602
-0.00260805
-0.000652789
-0.00305796
-0.000567546
-0.00346483
-0.000400949
-0.00376375
-0.000144301
-0.00388547
-0.0037391
0.000219102
-2.74189e-05
-8.54877e-05
-0.000165473
-0.000261869
-0.000369907
-0.000484656
-0.000600775
-0.000711939
-0.000809944
-0.000883929
-0.000920195
-0.000902487
-0.00081244
-0.000637623
-0.00036033
-0.00520468
0.000249446
-0.0053026
0.000195516
-0.0053839
0.00017728
-0.00543268
0.000143394
-0.00547345
0.000127442
-0.00549426
0.000101483
-0.005511
8.60272e-05
-0.00551487
6.35549e-05
-0.00551649
4.86372e-05
-0.0055096
2.87112e-05
-0.00550133
1.51939e-05
-0.00548715
-2.16503e-06
-0.0054719
-1.32033e-05
-0.00545255
-2.59808e-05
-0.00543235
-3.26938e-05
-0.00540921
-3.97601e-05
-0.00538526
-4.13564e-05
-0.0053591
-4.22466e-05
-0.0053321
-3.85422e-05
-3.35738e-05
-0.00519503
0.000404007
-0.00529324
0.000293723
-0.00537505
0.000259086
-0.00542434
0.000192685
-0.00546566
0.000168769
-0.00548703
0.000122845
-0.00550434
0.000103337
-0.00550878
6.79959e-05
-0.00551098
5.08355e-05
-0.00550466
2.23946e-05
-0.00549701
7.5501e-06
-0.00548331
-1.58672e-05
-0.00546859
-2.79234e-05
-0.00544975
-4.48237e-05
-0.00543003
-5.2409e-05
-0.00540737
-6.24207e-05
-0.00538389
-6.48439e-05
-0.00535819
-6.79448e-05
-0.00533164
-6.50875e-05
-6.19157e-05
-0.00517708
0.00055921
-0.00527589
0.00039253
-0.00535859
0.000341785
-0.00540873
0.000242831
-0.00545107
0.000211109
-0.0054734
0.000145169
-0.00549175
0.000121694
-0.0054972
7.34445e-05
-0.00550044
5.40758e-05
-0.00549514
1.70969e-05
-0.00548856
9.64097e-07
-0.00547582
-2.86023e-05
-0.00546209
-4.16603e-05
-0.00544421
-6.26977e-05
-0.00542544
-7.11786e-05
-0.00540372
-8.41418e-05
-0.00538115
-8.74138e-05
-0.00535637
-9.27238e-05
-0.00533073
-9.07286e-05
-8.93466e-05
-0.00515087
0.000715363
-0.00525058
0.000492237
-0.00533455
0.000425751
-0.00538591
0.000294193
-0.0054297
0.000254905
-0.00545341
0.000168872
-0.00547327
0.000141559
-0.00548017
8.03445e-05
-0.00548491
5.88157e-05
-0.0054811
1.32797e-05
-0.00547596
-4.17448e-06
-0.0054647
-3.98563e-05
-0.00545239
-5.39686e-05
-0.00543595
-7.91423e-05
-0.00541858
-8.85496e-05
-0.00539826
-0.000104465
-0.00537706