/*--------------------------------*- C++ -*----------------------------------*\
  =========                 |
  \\      /  F ield         | OpenFOAM: The Open Source CFD Toolbox
   \\    /   O peration     | Website:  https://openfoam.org
    \\  /    A nd           | Version:  7
     \\/     M anipulation  |
\*---------------------------------------------------------------------------*/
FoamFile
{
    version     2.0;
    format      ascii;
    class       volVectorField;
    location    "114.999";
    object      U;
}
// * * * * * * * * * * * * * * * * * * * * * * * * * * * * * * * * * * * * * //

dimensions      [0 1 -1 0 0 0 0];

internalField   nonuniform List<vector> 
3700
(
(0.0330332 -0.0144408 4.0481e-20)
(0.131775 -0.024572 -5.05946e-21)
(0.255721 -0.0250246 -2.08358e-20)
(0.355146 -0.0227404 1.0644e-20)
(0.440355 -0.0203727 3.23197e-20)
(0.512214 -0.0184748 -2.80294e-20)
(0.573787 -0.0169545 -1.00948e-21)
(0.626689 -0.0157279 -3.01938e-21)
(0.672481 -0.0147296 1.25503e-20)
(0.71228 -0.01391 1.76655e-21)
(0.747051 -0.0132293 -7.94658e-21)
(0.777547 -0.012654 -6.31147e-21)
(0.804363 -0.0121534 -2.25455e-20)
(0.827946 -0.0117059 2.3643e-20)
(0.848771 -0.0113048 -9.30246e-21)
(0.0354755 -0.0488826 -8.47728e-20)
(0.135465 -0.0780112 4.86774e-20)
(0.259238 -0.0768812 1.67022e-20)
(0.358187 -0.0684715 -3.54252e-21)
(0.442939 -0.0601525 -2.99394e-20)
(0.514426 -0.0532567 -5.47499e-20)
(0.575695 -0.0475149 4.41886e-20)
(0.628349 -0.0426973 -7.16918e-21)
(0.673936 -0.0386205 -3.29208e-20)
(0.713565 -0.0351445 -3.21378e-20)
(0.748193 -0.0321583 3.80653e-20)
(0.778573 -0.029571 -3.88862e-20)
(0.805296 -0.0272958 5.23225e-20)
(0.828792 -0.0252611 -4.72623e-20)
(0.849504 -0.0234722 -9.21026e-21)
(0.0404695 -0.0828683 -1.31102e-19)
(0.142999 -0.130887 -2.25374e-19)
(0.266443 -0.128264 -1.21835e-20)
(0.364446 -0.113818 5.55017e-20)
(0.448286 -0.099612 2.61395e-20)
(0.519025 -0.0877684 8.75134e-20)
(0.579678 -0.0778462 -5.76708e-20)
(0.631822 -0.0694717 -6.51155e-20)
(0.676985 -0.0623444 7.05204e-20)
(0.716257 -0.0562355 2.6349e-20)
(0.750583 -0.0509632 -7.87008e-20)
(0.780712 -0.0463792 2.61281e-20)
(0.807234 -0.0423401 -2.22438e-20)
(0.830543 -0.0387266 -2.34554e-20)
(0.851008 -0.0355566 -3.55965e-20)
(0.0479541 -0.116114 1.14581e-19)
(0.154307 -0.182844 3.64923e-19)
(0.277277 -0.17887 -1.71133e-19)
(0.373879 -0.15853 1.3536e-20)
(0.45636 -0.138542 -5.86117e-20)
(0.525981 -0.121832 1.59599e-19)
(0.58571 -0.107797 -4.55917e-21)
(0.637086 -0.0959205 -7.47555e-22)
(0.681607 -0.0857888 -4.8051e-20)
(0.720338 -0.0770856 5.13297e-20)
(0.754204 -0.0695597 1.32573e-19)
(0.78395 -0.0630059 4.47058e-20)
(0.810167 -0.0572244 6.39054e-21)
(0.833192 -0.0520528 -1.0308e-20)
(0.853278 -0.0475293 4.0921e-20)
(0.0578398 -0.148342 2.37749e-19)
(0.169286 -0.233534 -1.72714e-19)
(0.29166 -0.228401 -4.50724e-21)
(0.386419 -0.202365 -1.79121e-20)
(0.467107 -0.176739 1.22333e-19)
(0.535248 -0.155274 -8.93105e-20)
(0.593751 -0.137217 3.07677e-20)
(0.644108 -0.121916 -4.06004e-20)
(0.687775 -0.108843 2.37297e-20)
(0.725785 -0.0975992 -1.30172e-19)
(0.759037 -0.087865 -9.39929e-20)
(0.78827 -0.079379 -5.76684e-20)
(0.814076 -0.0718861 8.41508e-20)
(0.836725 -0.0651859 -2.20464e-20)
(0.856306 -0.059347 1.96611e-20)
(0.0700096 -0.179285 -2.771e-21)
(0.1878 -0.282617 -2.76619e-19)
(0.309482 -0.276567 2.07339e-19)
(0.401979 -0.245082 -1.6189e-19)
(0.480454 -0.214001 -1.30801e-19)
(0.546765 -0.187923 6.84395e-20)
(0.60375 -0.165962 -4.58381e-20)
(0.652844 -0.147332 1.70197e-19)
(0.695451 -0.1314 -4.81577e-20)
(0.732565 -0.117683 9.96378e-20)
(0.765053 -0.105798 -4.65405e-20)
(0.793646 -0.0954276 1.02317e-19)
(0.818939 -0.0862622 2.08551e-20)
(0.841123 -0.0780701 4.40432e-20)
(0.860085 -0.0709623 -5.0592e-20)
(0.0843192 -0.208687 2.08801e-20)
(0.209685 -0.329765 2.76734e-19)
(0.330608 -0.323086 -2.64322e-20)
(0.420454 -0.286454 -5.03879e-21)
(0.496314 -0.250137 -3.27207e-20)
(0.560457 -0.219616 -3.0625e-19)
(0.615644 -0.193892 2.23766e-20)
(0.66324 -0.17205 -1.3479e-19)
(0.704589 -0.153355 -1.7972e-20)
(0.740638 -0.137247 -8.2603e-21)
(0.772218 -0.12328 3.58563e-20)
(0.800047 -0.111083 -7.82716e-20)
(0.824726 -0.100292 -1.74849e-19)
(0.846363 -0.090651 1.85323e-19)
(0.864603 -0.0823279 6.31831e-20)
(0.100599 -0.236304 -1.48447e-19)
(0.234742 -0.374666 -2.55396e-19)
(0.354879 -0.367691 6.75633e-20)
(0.441716 -0.326258 1.10553e-19)
(0.514583 -0.284962 1.0947e-19)
(0.576238 -0.250197 -7.8728e-21)
(0.629359 -0.220872 -8.85669e-20)
(0.675233 -0.195954 2.57979e-19)
(0.715134 -0.174609 1.2574e-21)
(0.749959 -0.156204 6.59806e-20)
(0.780491 -0.140237 1.51249e-19)
(0.807438 -0.126281 -1.45223e-19)
(0.831406 -0.113919 1.88811e-19)
(0.852417 -0.102876 -9.31247e-20)
(0.869846 -0.093397 -6.18669e-20)
(0.118654 -0.261912 8.7122e-20)
(0.262745 -0.417022 -7.70833e-20)
(0.382114 -0.410124 1.48826e-19)
(0.46562 -0.364288 -1.28968e-19)
(0.535141 -0.318303 -1.61462e-19)
(0.594006 -0.279517 -1.83168e-19)
(0.644809 -0.246776 7.442e-20)
(0.688749 -0.218934 4.82545e-20)
(0.727025 -0.195066 -2.28274e-19)
(0.760473 -0.174473 -1.52836e-19)
(0.789828 -0.156595 -1.3565e-19)
(0.815778 -0.140958 1.8806e-19)
(0.838941 -0.127089 -5.42669e-20)
(0.859256 -0.114696 -4.55235e-20)
(0.875795 -0.104124 3.0532e-21)
(0.138268 -0.285302 3.0136e-19)
(0.293441 -0.456558 3.95431e-19)
(0.412106 -0.450145 -1.62551e-19)
(0.492006 -0.400345 -1.86608e-19)
(0.557855 -0.349994 3.99622e-19)
(0.613649 -0.307436 3.0462e-20)
(0.661899 -0.271483 1.37667e-19)
(0.703709 -0.240887 -3.13017e-19)
(0.740192 -0.214638 1.34307e-19)
(0.772121 -0.191975 2.12082e-20)
(0.800175 -0.172289 -8.47837e-20)
(0.825021 -0.155056 -2.05512e-19)
(0.84729 -0.139749 -9.05307e-20)
(0.866844 -0.126064 6.36286e-20)
(0.882432 -0.114463 1.34469e-20)
(0.159202 -0.30629 -2.0935e-19)
(0.326549 -0.493017 -2.66335e-19)
(0.444628 -0.48753 1.66284e-19)
(0.520694 -0.43425 6.02919e-19)
(0.58258 -0.379886 5.55964e-20)
(0.635045 -0.333826 1.27261e-20)
(0.680526 -0.294885 -1.81207e-19)
(0.720023 -0.261718 3.72414e-19)
(0.754559 -0.233243 1.29617e-20)
(0.784837 -0.208638 1.76549e-19)
(0.811475 -0.187253 2.18705e-19)
(0.835116 -0.168521 1.36655e-19)
(0.856407 -0.151854 -1.1936e-20)
(0.875144 -0.136936 3.635e-20)
(0.889733 -0.124373 1.19452e-19)
(0.181197 -0.324711 -9.4018e-20)
(0.361763 -0.526165 -1.54082e-19)
(0.479434 -0.522074 5.44873e-20)
(0.551489 -0.465834 4.18175e-20)
(0.609157 -0.407839 -4.48821e-19)
(0.658059 -0.35857 4.54566e-19)
(0.700576 -0.316878 -1.67638e-20)
(0.737594 -0.28134 -1.03549e-19)
(0.770043 -0.250803 -6.73969e-20)
(0.79855 -0.224396 -4.55848e-20)
(0.823669 -0.201431 -7.28962e-20)
(0.84601 -0.181301 5.00321e-20)
(0.866243 -0.163359 -1.45036e-19)
(0.884116 -0.147273 -1.10991e-19)
(0.897671 -0.133811 -7.16769e-20)
(0.203978 -0.340429 -2.19755e-20)
(0.398755 -0.555796 2.97734e-19)
(0.516256 -0.55359 -4.67843e-19)
(0.584184 -0.494949 -5.88091e-19)
(0.637416 -0.433731 2.02486e-19)
(0.682551 -0.381562 -7.61002e-20)
(0.721928 -0.337374 1.70823e-19)
(0.756321 -0.299673 2.30239e-20)
(0.786556 -0.26725 2.83605e-19)
(0.813185 -0.239188 -5.93702e-20)
(0.836688 -0.214769 -2.14381e-19)
(0.857643 -0.193352 2.77652e-20)
(0.876746 -0.174229 -6.10731e-20)
(0.893715 -0.157041 2.56797e-20)
(0.906218 -0.142743 -4.71484e-21)
(0.227256 -0.35333 1.52087e-19)
(0.437176 -0.581729 1.35223e-19)
(0.55481 -0.581915 4.3081e-19)
(0.618557 -0.521462 3.32843e-19)
(0.667179 -0.457452 2.51336e-19)
(0.708369 -0.40271 -2.88162e-19)
(0.744456 -0.356291 -6.01615e-20)
(0.776094 -0.316649 -1.22387e-19)
(0.804006 -0.282523 -7.73685e-20)
(0.828661 -0.25296 1.62013e-19)
(0.850466 -0.227217 8.91741e-20)
(0.869953 -0.204627 -2.02286e-20)
(0.887858 -0.184426 2.6808e-19)
(0.903895 -0.166208 -6.08983e-20)
(0.915344 -0.151134 1.46463e-19)
(0.25073 -0.363333 -6.45051e-20)
(0.476658 -0.603811 -5.01064e-19)
(0.594797 -0.606908 -3.08887e-19)
(0.654376 -0.545261 -1.46241e-19)
(0.698258 -0.47891 -3.74713e-19)
(0.735357 -0.421935 3.23193e-19)
(0.768026 -0.373561 1.27996e-19)
(0.796802 -0.332207 1.20015e-19)
(0.822296 -0.29657 -5.66301e-19)
(0.844897 -0.265666 -1.76578e-19)
(0.864929 -0.238736 1.33923e-19)
(0.882874 -0.215098 -6.87375e-20)
(0.899516 -0.193932 8.55584e-20)
(0.914605 -0.174765 -8.77139e-20)
(0.925018 -0.158964 -4.02961e-20)
(0.274088 -0.370383 1.14995e-20)
(0.516813 -0.621919 2.1984e-19)
(0.635902 -0.628449 2.13013e-19)
(0.691398 -0.566253 8.3755e-20)
(0.730459 -0.49803 1.67997e-19)
(0.763354 -0.439172 -1.75381e-19)
(0.792503 -0.389128 -8.90301e-20)
(0.818327 -0.346297 1.08339e-19)
(0.841326 -0.309345 1.77828e-20)
(0.861808 -0.277264 9.10553e-20)
(0.880007 -0.249281 -1.98696e-20)
(0.896339 -0.224711 -2.49749e-20)
(0.91165 -0.202685 -2.30903e-20)
(0.925788 -0.182655 -5.06015e-20)
(0.935214 -0.166194 1.37755e-19)
(0.297016 -0.37446 6.7425e-20)
(0.557243 -0.63596 -8.57644e-20)
(0.677796 -0.646445 -1.0067e-19)
(0.729372 -0.584364 -2.27314e-20)
(0.763583 -0.514753 -8.97884e-20)
(0.792193 -0.454371 1.3419e-19)
(0.817746 -0.402948 -1.47022e-19)
(0.84055 -0.35888 -3.47239e-20)
(0.860993 -0.320813 1.70226e-19)
(0.879304 -0.287724 -3.93723e-21)
(0.895624 -0.258836 1.46851e-19)
(0.910278 -0.233471 -1.29973e-19)
(0.924176 -0.21074 -1.82118e-20)
(0.937373 -0.189994 -2.60484e-20)
(0.945916 -0.172922 -1.38858e-19)
(0.319198 -0.37557 -7.90148e-20)
(0.597536 -0.645873 1.02769e-20)
(0.720139 -0.66083 2.95634e-20)
(0.76804 -0.599542 5.19476e-20)
(0.797426 -0.529037 2.09917e-19)
(0.821706 -0.467498 5.86198e-20)
(0.843613 -0.414988 -1.48585e-19)
(0.86335 -0.369926 8.43834e-20)
(0.881193 -0.330947 3.75545e-19)
(0.897297 -0.297017 -1.35521e-19)
(0.911714 -0.267353 -3.40397e-20)
(0.924643 -0.241285 8.59504e-20)
(0.937021 -0.2179 -4.52078e-20)
(0.949263 -0.196463 4.46614e-20)
(0.957148 -0.178881 -5.46748e-20)
(0.340314 -0.37375 5.16793e-20)
(0.637271 -0.651632 -6.89735e-20)
(0.762581 -0.671563 -8.00268e-20)
(0.807139 -0.611757 -9.29294e-20)
(0.831782 -0.54086 -1.63635e-19)
(0.851723 -0.478531 -1.77186e-19)
(0.86996 -0.425229 1.90608e-19)
(0.886607 -0.379416 -2.82503e-19)
(0.901823 -0.339729 -2.29622e-19)
(0.915693 -0.30513 2.00762e-19)
(0.928196 -0.274841 -1.53714e-19)
(0.939372 -0.248223 4.05166e-20)
(0.950074 -0.224419 7.43498e-20)
(0.961224 -0.202722 9.77816e-20)
(0.968907 -0.185145 4.96138e-20)
(0.360043 -0.369066 -2.56439e-21)
(0.676026 -0.653248 1.28682e-20)
(0.804767 -0.67863 1.14634e-20)
(0.846402 -0.620999 3.06073e-21)
(0.866447 -0.550217 3.74698e-20)
(0.882074 -0.487466 4.41981e-21)
(0.896643 -0.433665 -1.41388e-19)
(0.910197 -0.387344 1.19001e-19)
(0.922778 -0.34715 -1.0947e-19)
(0.9344 -0.312051 -1.54843e-19)
(0.944996 -0.281264 9.95381e-20)
(0.954455 -0.254154 -7.69475e-20)
(0.963384 -0.229841 2.93773e-20)
(0.973129 -0.207523 -7.27924e-20)
(0.981437 -0.189378 -3.50547e-20)
(0.378066 -0.361622 -9.6017e-20)
(0.713373 -0.650769 4.98966e-20)
(0.846336 -0.682041 1.309e-20)
(0.885561 -0.627281 5.18429e-20)
(0.901212 -0.557117 6.20472e-20)
(0.91259 -0.494313 -3.19786e-20)
(0.923522 -0.440303 1.01608e-19)
(0.934002 -0.393711 -8.02009e-20)
(0.943959 -0.353211 4.58339e-20)
(0.953331 -0.317778 1.39358e-19)
(0.962028 -0.286631 8.17446e-20)
(0.969846 -0.259144 -1.22015e-19)
(0.977012 -0.234589 5.46022e-20)
(0.984629 -0.212878 3.23164e-20)
(0.993405 -0.196024 5.63966e-20)
(0.394069 -0.351552 2.54257e-19)
(0.748886 -0.644277 -2.30067e-19)
(0.886924 -0.681837 -1.5907e-20)
(0.924347 -0.630637 2.27634e-20)
(0.935876 -0.561591 -2.13832e-20)
(0.943107 -0.499095 7.87824e-20)
(0.950456 -0.445161 -4.8375e-20)
(0.957903 -0.398533 -1.48936e-20)
(0.965265 -0.35792 1.80703e-19)
(0.972402 -0.32232 -1.67368e-19)
(0.9792 -0.290954 -5.13306e-20)
(0.985429 -0.263202 1.30525e-19)
(0.990983 -0.238502 -7.32814e-20)
(0.996493 -0.217002 -5.04983e-20)
(1.00401 -0.198672 -1.25124e-20)
(0.407717 -0.33901 -2.00813e-19)
(0.782135 -0.633891 2.92143e-19)
(0.92617 -0.678084 8.08191e-21)
(0.962496 -0.631122 -1.1998e-20)
(0.970238 -0.563678 -1.96015e-20)
(0.973462 -0.501849 2.757e-20)
(0.977309 -0.44827 -6.32521e-21)
(0.981784 -0.401833 6.35871e-20)
(0.9866 -0.361297 -1.47708e-19)
(0.991533 -0.32569 6.93464e-20)
(0.996441 -0.294236 -2.41583e-20)
(1.00111 -0.266307 3.73757e-20)
(1.00524 -0.241459 5.70115e-21)
(1.00894 -0.219984 -2.90871e-21)
(1.01462 -0.200755 -1.25309e-20)
(0.418775 -0.324264 5.76073e-20)
(0.812661 -0.619767 -2.23811e-19)
(0.963737 -0.670883 -1.4124e-19)
(0.999747 -0.628806 7.3175e-21)
(1.0041 -0.563435 -7.25891e-21)
(1.0035 -0.502628 4.61949e-21)
(1.00395 -0.449673 -1.22982e-20)
(1.00553 -0.403645 -6.9779e-20)
(1.00787 -0.363369 -1.50055e-20)
(1.01065 -0.327906 5.65165e-20)
(1.0137 -0.296493 1.97625e-20)
(1.01682 -0.26849 -7.28566e-21)
(1.01967 -0.243555 -6.29672e-20)
(1.02195 -0.222153 1.76905e-20)
(1.02584 -0.202492 1.62489e-20)
(0.427081 -0.307551 -3.25966e-20)
(0.839873 -0.601993 3.58658e-19)
(0.99931 -0.660419 9.02326e-20)
(1.03584 -0.623763 1.49035e-20)
(1.03727 -0.560924 3.00438e-20)
(1.03306 -0.501496 -6.84966e-22)
(1.03025 -0.449425 -1.04674e-20)
(1.02904 -0.404014 5.08115e-20)
(1.02898 -0.364171 5.22192e-20)
(1.02968 -0.328999 -9.54876e-20)
(1.03091 -0.297757 8.80007e-21)
(1.03253 -0.269799 7.54985e-21)
(1.03415 -0.244873 7.62203e-20)
(1.03524 -0.223586 1.07387e-20)
(1.0376 -0.203681 -8.19882e-20)
(0.432504 -0.289062 -7.52909e-20)
(0.86325 -0.580791 -5.22269e-19)
(1.03257 -0.646933 -2.70417e-20)
(1.07053 -0.616032 -5.54105e-20)
(1.06955 -0.556226 -9.35023e-20)
(1.06201 -0.498532 2.17402e-20)
(1.05609 -0.447588 -9.073e-21)
(1.05221 -0.402993 -1.4503e-20)
(1.04984 -0.363749 4.17486e-21)
(1.04854 -0.329008 3.90015e-20)
(1.04803 -0.298062 -2.58837e-20)
(1.04817 -0.270272 1.83254e-20)
(1.04859 -0.245442 -2.64905e-20)
(1.04858 -0.224287 -4.74447e-20)
(1.04957 -0.204296 1.01363e-20)
(0.434945 -0.269056 -1.01755e-20)
(0.882658 -0.556647 7.2197e-20)
(1.063 -0.630544 8.47349e-20)
(1.10352 -0.605635 -1.11834e-20)
(1.10075 -0.54944 -7.20316e-21)
(1.0902 -0.493824 -6.99997e-20)
(1.08137 -0.444236 1.56285e-21)
(1.07493 -0.400644 1.99661e-22)
(1.07037 -0.362154 9.05837e-22)
(1.06716 -0.327977 -1.71157e-20)
(1.06499 -0.297445 2.43751e-20)
(1.06369 -0.269933 -7.81975e-21)
(1.06294 -0.245278 -3.93751e-21)
(1.06184 -0.224271 1.43706e-20)
(1.06153 -0.204352 -7.6668e-21)
(0.434263 -0.2479 1.96181e-19)
(0.897963 -0.529914 3.24915e-19)
(1.09002 -0.611236 5.11793e-20)
(1.13451 -0.592741 -1.00647e-19)
(1.13069 -0.540697 1.33556e-19)
(1.1175 -0.48747 6.46193e-20)
(1.10596 -0.439452 -2.26124e-20)
(1.09713 -0.397035 -4.63302e-21)
(1.09049 -0.359445 3.20445e-21)
(1.08548 -0.325954 -1.68252e-21)
(1.08172 -0.295943 -5.25632e-21)
(1.07905 -0.268811 1.31596e-20)
(1.07713 -0.244403 3.4914e-20)
(1.075 -0.223571 -2.55456e-20)
(1.07342 -0.203855 4.25757e-20)
(0.43035 -0.225946 -2.2632e-19)
(0.908818 -0.500786 -1.02148e-19)
(1.11333 -0.58921 -2.47095e-19)
(1.16321 -0.57757 2.77074e-19)
(1.15917 -0.530115 -1.9937e-19)
(1.14378 -0.479572 6.84948e-20)
(1.12977 -0.433327 1.98183e-20)
(1.11872 -0.392244 1.45876e-20)
(1.11013 -0.355686 1.1403e-20)
(1.10342 -0.322991 -1.8216e-21)
(1.09816 -0.2936 1.22126e-21)
(1.09418 -0.26694 1.00623e-20)
(1.09115 -0.24285 -1.33866e-20)
(1.08802 -0.222224 -1.3657e-20)
(1.08523 -0.20282 -3.79897e-20)
(0.42317 -0.203524 -2.16981e-19)
(0.914851 -0.469527 9.81065e-20)
(1.13272 -0.564745 7.12513e-20)
(1.18934 -0.560292 -1.52406e-19)
(1.18603 -0.517826 3.12639e-20)
(1.16892 -0.470242 -1.32891e-20)
(1.15272 -0.425959 -3.45957e-20)
(1.13962 -0.386354 -2.98316e-20)
(1.12923 -0.350944 1.67622e-20)
(1.12093 -0.319146 1.41508e-20)
(1.11427 -0.290461 5.94305e-21)
(1.10904 -0.264356 -7.6894e-21)
(1.10494 -0.240652 5.60049e-21)
(1.10087 -0.220265 8.83605e-21)
(1.09695 -0.201262 1.22464e-20)
(0.412766 -0.180971 2.10788e-19)
(0.915758 -0.436474 -9.79191e-20)
(1.14788 -0.538091 4.99134e-20)
(1.21262 -0.541081 2.23869e-19)
(1.2111 -0.503968 1.75328e-19)
(1.1928 -0.459594 -1.22855e-19)
(1.17472 -0.417457 4.64798e-20)
(1.15977 -0.379452 4.17789e-20)
(1.14772 -0.345293 -5.29189e-20)
(1.13797 -0.31448 1.57039e-20)
(1.13 -0.286577 -6.01029e-21)
(1.12359 -0.261101 -9.84079e-22)
(1.11846 -0.237842 -3.03139e-21)
(1.1135 -0.217723 -7.6557e-21)
(1.10854 -0.199193 1.15818e-20)
(0.399248 -0.15862 -1.95801e-19)
(0.911307 -0.402006 1.24537e-19)
(1.15848 -0.509501 1.51742e-19)
(1.23278 -0.520112 -3.30604e-20)
(1.2342 -0.48867 -2.40348e-19)
(1.21536 -0.447759 -7.94046e-20)
(1.19569 -0.407931 -9.64405e-20)
(1.1791 -0.37163 3.5684e-20)
(1.16556 -0.33881 -9.33156e-21)
(1.15447 -0.309057 -2.90709e-20)
(1.1453 -0.281997 -2.04666e-20)
(1.13779 -0.257214 1.15181e-21)
(1.13169 -0.234458 -3.90138e-21)
(1.1259 -0.214629 1.32002e-22)
(1.11997 -0.196623 -5.77439e-21)
(0.382793 -0.136797 8.44389e-20)
(0.901321 -0.366517 7.3565e-22)
(1.16418 -0.479243 -4.60348e-19)
(1.24953 -0.497558 -2.55665e-20)
(1.25511 -0.472074 1.88939e-19)
(1.2365 -0.434864 1.61381e-19)
(1.2156 -0.397485 8.74351e-20)
(1.19758 -0.362987 -3.98296e-21)
(1.18269 -0.331573 1.81205e-20)
(1.17042 -0.302945 -1.1891e-21)
(1.16014 -0.276778 2.45755e-20)
(1.15161 -0.252741 6.8452e-21)
(1.14459 -0.230536 5.89312e-21)
(1.13804 -0.211014 -8.13553e-21)
(1.13121 -0.193566 -5.05216e-21)
(0.363638 -0.115814 -1.44244e-20)
(0.885683 -0.330423 1.509e-19)
(1.16465 -0.447599 2.49164e-19)
(1.26258 -0.473599 7.27727e-20)
(1.27365 -0.454322 -1.77098e-19)
(1.25608 -0.421038 -1.89481e-19)
(1.23442 -0.386234 7.08147e-20)
(1.2152 -0.353605 -2.89532e-20)
(1.19911 -0.323675 9.19304e-20)
(1.18575 -0.296211 -6.01156e-22)
(1.17449 -0.270963 -1.2897e-20)
(1.16503 -0.247725 -5.58652e-21)
(1.15715 -0.22612 1.7735e-20)
(1.14991 -0.206915 9.49804e-21)
(1.14226 -0.190034 5.39813e-21)
(0.342081 -0.0959602 2.16018e-19)
(0.864342 -0.294157 -2.28876e-19)
(1.15961 -0.414868 1.30808e-19)
(1.27161 -0.448419 1.62143e-19)
(1.28962 -0.435547 1.22422e-19)
(1.27399 -0.406403 4.07232e-20)
(1.25205 -0.374292 2.62339e-20)
(1.23191 -0.343599 -1.84121e-21)
(1.21483 -0.315176 -4.21197e-20)
(1.20046 -0.288902 1.7651e-20)
(1.18833 -0.264637 3.74586e-20)
(1.17803 -0.242216 1.07545e-20)
(1.16933 -0.221246 -9.98342e-21)
(1.16149 -0.202367 -7.544e-21)
(1.1531 -0.186051 -6.30357e-21)
(0.318479 -0.0774958 -1.1674e-19)
(0.837329 -0.258163 8.3148e-20)
(1.14876 -0.38136 -6.69114e-21)
(1.27632 -0.422205 -1.73598e-19)
(1.3028 -0.41588 -3.66613e-20)
(1.29013 -0.391074 8.49223e-20)
(1.26843 -0.361769 -6.40998e-20)
(1.24766 -0.333059 7.78011e-21)
(1.22977 -0.306158 -4.20328e-21)
(1.21457 -0.281108 -1.3635e-20)
(1.20166 -0.257842 -2.18314e-20)
(1.1906 -0.236244 -3.24637e-20)
(1.18115 -0.215976 -1.43415e-20)
(1.17273 -0.197418 1.74064e-20)
(1.16378 -0.181643 3.35479e-21)
(0.293234 -0.0606451 -1.45356e-19)
(0.804768 -0.222899 -1.80669e-20)
(1.13187 -0.347394 -8.64487e-20)
(1.27634 -0.395147 7.37432e-20)
(1.31295 -0.395442 -7.95239e-20)
(1.30436 -0.375158 -3.11864e-20)
(1.28354 -0.348764 8.30407e-21)
(1.26244 -0.322077 -8.81723e-21)
(1.24392 -0.296712 2.24713e-20)
(1.22805 -0.272899 9.32804e-22)
(1.21447 -0.250636 1.37134e-20)
(1.20275 -0.229871 1.76541e-20)
(1.19262 -0.21031 1.73399e-20)
(1.18358 -0.192108 -5.62587e-21)
(1.17433 -0.176852 -4.6745e-21)
(0.266791 -0.0455896 8.45205e-20)
(0.766887 -0.188825 8.8881e-20)
(1.10873 -0.3133 2.91637e-20)
(1.27133 -0.367434 -4.44592e-20)
(1.31977 -0.374352 8.61734e-21)
(1.31655 -0.358752 6.14265e-20)
(1.29731 -0.335374 -4.01917e-20)
(1.27625 -0.310743 -3.28607e-20)
(1.25729 -0.286922 -7.54589e-21)
(1.24089 -0.264342 6.23001e-21)
(1.22674 -0.243078 -2.89762e-20)
(1.21445 -0.223138 7.27759e-21)
(1.20371 -0.204281 1.59051e-20)
(1.19412 -0.186545 -3.94228e-21)
(1.18463 -0.171756 -4.65001e-21)
(0.239619 -0.0324626 -5.54125e-20)
(0.724046 -0.156403 -3.7669e-20)
(1.07917 -0.279415 -7.04732e-20)
(1.26092 -0.339257 -1.10179e-20)
(1.32294 -0.352719 -7.34765e-21)
(1.32651 -0.341942 -6.8367e-20)
(1.30967 -0.321686 2.04724e-20)
(1.28906 -0.299143 1.09455e-20)
(1.26989 -0.276861 -1.82816e-20)
(1.25308 -0.255502 -1.07068e-20)
(1.23848 -0.235224 -1.22998e-21)
(1.2257 -0.216095 -8.97713e-21)
(1.21444 -0.197939 -1.38236e-20)
(1.20435 -0.180715 -1.20538e-20)
(1.1945 -0.166317 7.96947e-21)
(0.212198 -0.0213468 -2.45807e-20)
(0.676751 -0.126082 8.89357e-21)
(1.0431 -0.24608 1.18825e-20)
(1.2447 -0.310811 1.19298e-20)
(1.3221 -0.330647 1.97031e-20)
(1.334 -0.324802 1.34966e-20)
(1.32053 -0.307774 -3.76153e-21)
(1.30086 -0.287354 1.24171e-20)
(1.28171 -0.266603 -4.35643e-22)
(1.26465 -0.246442 -1.27815e-22)
(1.24968 -0.22713 4.54161e-21)
(1.23651 -0.208789 -2.07239e-21)
(1.22481 -0.191319 1.29887e-21)
(1.21426 -0.174591 5.19967e-21)
(1.20399 -0.160533 -4.08013e-21)
(0.185002 -0.0122707 -1.47349e-20)
(0.625655 -0.0982797 -3.92672e-21)
(1.0005 -0.213639 1.73116e-20)
(1.2223 -0.282296 7.69332e-21)
(1.3168 -0.308231 2.15528e-20)
(1.33874 -0.30739 1.46194e-20)
(1.32975 -0.2937 -5.5337e-22)
(1.3116 -0.275446 1.7225e-20)
(1.29277 -0.256216 -8.38556e-21)
(1.2756 -0.237224 9.18901e-22)
(1.26039 -0.218848 5.53342e-21)
(1.24689 -0.201267 -2.48467e-21)
(1.23482 -0.184453 2.34631e-21)
(1.22385 -0.168188 8.26592e-21)
(1.21321 -0.154426 -3.12785e-21)
(0.158482 -0.00520474 -1.99732e-20)
(0.571551 -0.0733693 -5.94572e-20)
(0.951481 -0.182439 -6.86261e-20)
(1.19334 -0.253923 -2.5066e-21)
(1.30658 -0.285565 -9.99994e-21)
(1.34038 -0.28975 -7.51569e-20)
(1.33717 -0.27951 3.77906e-20)
(1.32124 -0.263476 5.75363e-21)
(1.30306 -0.24576 -2.5279e-20)
(1.28596 -0.227906 -2.18114e-20)
(1.2706 -0.21043 3.86313e-21)
(1.25687 -0.193571 -1.31774e-20)
(1.24449 -0.177379 -1.3705e-20)
(1.23318 -0.161547 -1.75671e-20)
(1.22223 -0.14802 1.06137e-20)
(0.133047 -5.99289e-05 7.74547e-20)
(0.515358 -0.0516632 5.68325e-20)
(0.896289 -0.152831 2.46488e-20)
(1.15746 -0.225914 -3.71611e-20)
(1.29089 -0.262739 1.81003e-20)
(1.33849 -0.271911 3.96588e-20)
(1.34253 -0.26523 -3.27875e-20)
(1.32969 -0.251487 -6.58166e-20)
(1.31257 -0.235291 -9.32462e-21)
(1.29574 -0.218542 3.79179e-20)
(1.28035 -0.201924 -4.84366e-20)
(1.26647 -0.185746 1.84357e-20)
(1.25385 -0.170139 8.02185e-21)
(1.24225 -0.154722 -9.78958e-22)
(1.23109 -0.141341 1.54345e-21)
(0.109053 0.00330819 -9.02483e-20)
(0.458095 -0.0333961 -5.81411e-20)
(0.835372 -0.125168 -9.61038e-20)
(1.11438 -0.198499 8.97922e-20)
(1.26916 -0.239844 -1.01705e-19)
(1.33253 -0.25389 -2.68708e-20)
(1.34551 -0.250871 -3.00835e-21)
(1.33678 -0.239509 -1.60251e-21)
(1.32126 -0.224852 5.30422e-20)
(1.30495 -0.209181 -6.25198e-20)
(1.28966 -0.19338 4.66211e-20)
(1.27571 -0.177834 2.2567e-20)
(1.26292 -0.162771 5.61745e-20)
(1.25109 -0.147758 -6.10722e-21)
(1.23978 -0.134419 -1.65037e-20)
(0.0867863 0.00509012 1.51179e-20)
(0.400843 -0.0187049 1.62714e-20)
(0.769398 -0.0998057 -3.44518e-20)
(1.06393 -0.171924 -1.40852e-19)
(1.24074 -0.216979 -4.01301e-20)
(1.32188 -0.235696 1.06698e-19)
(1.34567 -0.236424 -8.98853e-20)
(1.34233 -0.227553 -4.87321e-20)
(1.32907 -0.214476 1.4317e-20)
(1.31358 -0.199866 -2.07991e-20)
(1.29855 -0.18484 -9.39443e-20)
(1.28462 -0.169876 -4.51354e-20)
(1.27173 -0.155306 2.95292e-21)
(1.25971 -0.140689 1.08994e-20)
(1.24828 -0.127281 9.57978e-21)
(0.0664593 0.00550821 1.68793e-19)
(0.344695 -0.00760846 -2.15416e-19)
(0.699295 -0.0770951 1.57139e-19)
(1.00604 -0.146452 8.58787e-20)
(1.20502 -0.194256 2.79866e-19)
(1.30578 -0.217333 1.50452e-20)
(1.34247 -0.221861 7.55114e-20)
(1.346 -0.21561 1.98503e-20)
(1.33586 -0.204182 -1.69296e-19)
(1.32162 -0.190633 5.77667e-20)
(1.30704 -0.176346 3.92754e-20)
(1.29323 -0.161912 7.44958e-20)
(1.28031 -0.147772 -7.356e-20)
(1.26813 -0.133544 -2.35416e-20)
(1.25662 -0.119953 -5.40515e-21)
(0.0482053 0.00480011 -2.25106e-20)
(0.290691 8.28559e-06 2.52352e-19)
(0.626259 -0.0573682 2.14796e-19)
(0.940916 -0.122367 4.49683e-20)
(1.16138 -0.171808 -2.76653e-19)
(1.2834 -0.198812 -1.86037e-19)
(1.33518 -0.207144 6.74335e-20)
(1.34737 -0.203651 -5.05705e-20)
(1.34144 -0.193973 9.51179e-20)
(1.329 -0.181507 2.60977e-20)
(1.31513 -0.167932 1.92352e-20)
(1.30157 -0.153978 -4.46101e-20)
(1.28869 -0.140195 2.42917e-20)
(1.2764 -0.126349 1.01197e-19)
(1.26484 -0.112458 1.12668e-19)
(0.0320848 0.0032034 1.86987e-19)
(0.239755 0.00439949 -2.07839e-19)
(0.551734 -0.0409149 -3.54712e-19)
(0.869011 -0.0999806 3.63024e-20)
(1.10931 -0.149801 2.44144e-19)
(1.2538 -0.180155 2.59916e-19)
(1.32295 -0.192224 1.57533e-19)
(1.34586 -0.19163 -2.60844e-21)
(1.34551 -0.183833 3.75931e-20)
(1.33562 -0.172503 1.35131e-20)
(1.3228 -0.159629 9.53067e-20)
(1.30965 -0.14611 2.56073e-20)
(1.2969 -0.132603 1.96203e-20)
(1.28455 -0.119125 -2.53618e-20)
(1.27297 -0.104817 -3.28788e-20)
(0.0180942 0.000943975 -2.41497e-19)
(0.192637 0.00594538 1.91621e-19)
(0.477347 -0.0279438 1.88124e-19)
(0.791171 -0.0796343 -1.52943e-19)
(1.04847 -0.128445 -3.75721e-19)
(1.21601 -0.161413 -7.87563e-20)
(1.30473 -0.177055 -2.203e-19)
(1.34068 -0.179483 8.49665e-20)
(1.3476 -0.173729 -1.30983e-20)
(1.34126 -0.163622 -1.0711e-19)
(1.33 -0.151458 -4.30996e-20)
(1.31748 -0.138343 1.36777e-21)
(1.30498 -0.125021 -2.87036e-20)
(1.29263 -0.111898 -2.85085e-20)
(1.28105 -0.0970442 3.40096e-21)
(0.00617806 -0.00177011 3.51497e-19)
(0.149875 0.00512072 -2.32518e-19)
(0.40479 -0.0185298 1.49049e-19)
(0.708682 -0.0616926 1.67985e-19)
(0.978815 -0.108002 3.24925e-19)
(1.16907 -0.142676 -2.55201e-19)
(1.27932 -0.161604 1.10513e-19)
(1.33083 -0.167136 1.27504e-19)
(1.34709 -0.163607 -1.29723e-19)
(1.3456 -0.154851 -5.40699e-20)
(1.33661 -0.143432 -1.53935e-20)
(1.32506 -0.130705 -2.02772e-20)
(1.31296 -0.117475 -9.15451e-20)
(1.30067 -0.104684 7.20608e-20)
(1.28914 -0.089163 -1.29449e-19)
(-0.00375126 -0.00474658 -1.93334e-19)
(0.111785 0.00245331 9.69446e-21)
(0.335666 -0.0125586 1.0456e-19)
(0.623286 -0.0465161 -2.62024e-19)
(0.900713 -0.0887967 1.34955e-19)
(1.11216 -0.124094 -7.02035e-22)
(1.2454 -0.145868 -1.4924e-19)
(1.31506 -0.154515 -6.55441e-20)
(1.3431 -0.153398 9.65155e-21)
(1.34817 -0.146159 1.36119e-19)
(1.34242 -0.135556 1.6686e-19)
(1.33233 -0.123222 1.44184e-19)
(1.32085 -0.109988 2.35839e-20)
(1.30872 -0.0975053 -1.51384e-19)
(1.29728 -0.0811701 -1.9257e-20)
(-0.0118126 -0.00780748 4.01612e-20)
(0.0784761 -0.0015135 -2.30327e-19)
(0.271334 -0.00969637 -3.51687e-19)
(0.537112 -0.0344074 3.40593e-19)
(0.81511 -0.0712185 -2.49785e-19)
(1.04472 -0.105892 1.3544e-19)
(1.20159 -0.129893 1.47588e-19)
(1.29191 -0.141562 1.05604e-19)
(1.33447 -0.143023 9.79569e-20)
(1.34824 -0.137499 2.76752e-20)
(1.34708 -0.127817 -1.12514e-19)
(1.33917 -0.115915 -1.36547e-19)
(1.32864 -0.102582 3.30771e-20)
(1.31682 -0.0903752 3.75583e-20)
(1.30555 -0.0731003 1.50259e-19)
(-0.0181434 -0.0107906 1.65167e-19)
(0.0498836 -0.00625884 4.56837e-19)
(0.212783 -0.00941 -1.10698e-19)
(0.452481 -0.0255297 -2.18411e-19)
(0.723627 -0.0557078 4.97867e-19)
(0.966658 -0.0883911 2.01311e-19)
(1.14657 -0.1138 4.50916e-20)
(1.25966 -0.128252 -6.951e-20)
(1.31971 -0.132405 2.48121e-20)
(1.34479 -0.12881 -1.84237e-19)
(1.35003 -0.120194 8.51634e-20)
(1.34533 -0.108791 2.32034e-20)
(1.33628 -0.0952835 -1.35628e-19)
(1.32499 -0.0833108 -4.29178e-20)
(1.31399 -0.0649026 -1.11042e-19)
(-0.0228819 -0.0135412 -7.10988e-20)
(0.0258188 -0.0113041 2.13041e-19)
(0.160595 -0.0110426 2.04996e-19)
(0.37164 -0.0198235 -8.9546e-20)
(0.628573 -0.0427127 -3.61355e-20)
(0.878598 -0.0720189 -2.33042e-19)
(1.07934 -0.0978123 1.0743e-19)
(1.2165 -0.114623 -1.19079e-19)
(1.29699 -0.121483 -5.88765e-20)
(1.33644 -0.120026 1.5852e-19)
(1.35041 -0.112647 -1.48885e-19)
(1.35042 -0.101866 7.39157e-20)
(1.34363 -0.0880861 1.62587e-19)
(1.33321 -0.0763349 -1.87801e-19)
(1.32269 -0.0566528 1.25632e-19)
(-0.0261679 -0.015918 -1.66256e-19)
(0.00601038 -0.0162325 -6.90691e-19)
(0.114975 -0.0139186 3.05365e-20)
(0.296481 -0.0169756 -1.70719e-19)
(0.532802 -0.0326097 -4.94417e-19)
(0.782066 -0.057306 1.62723e-19)
(0.999425 -0.0822841 -3.01406e-19)
(1.16066 -0.100808 1.31516e-19)
(1.26419 -0.110245 1.25449e-19)
(1.32136 -0.111087 -1.85799e-19)
(1.347 -0.105137 7.45828e-20)
(1.35373 -0.095108 2.69466e-20)
(1.35042 -0.0810573 4.34232e-21)
(1.34145 -0.0694026 5.12063e-20)
(1.33163 -0.0482096 -3.74912e-20)
(-0.0281411 -0.0178016 1.05317e-20)
(-0.00985685 -0.0207083 3.92795e-19)
(0.0758548 -0.0174432 2.4912e-19)
(0.228367 -0.0164808 2.04674e-19)
(0.439387 -0.0256091 2.03851e-19)
(0.679613 -0.0448525 2.44089e-19)
(0.907253 -0.0677247 1.80336e-19)
(1.09069 -0.0870748 -2.38952e-19)
(1.21899 -0.0987535 -3.27126e-19)
(1.29729 -0.101967 3.07904e-19)
(1.33806 -0.0976078 3.88183e-20)
(1.35424 -0.0885596 -2.7691e-20)
(1.35613 -0.0740845 -1.94981e-19)
(1.34952 -0.0626941 -5.61489e-20)
(1.3409 -0.0396217 1.53098e-19)
(-0.0289405 -0.0191045 1.26388e-19)
(-0.0221158 -0.0244977 -5.45008e-19)
(0.0429913 -0.0211731 -4.83138e-20)
(0.16812 -0.0177841 -1.88729e-19)
(0.351224 -0.0217003 -1.36266e-19)
(0.574724 -0.0352538 -1.09462e-20)
(0.804513 -0.0548071 -7.61329e-20)
(1.0059 -0.0738682 2.54379e-19)
(1.15915 -0.0871996 1.93937e-19)
(1.26154 -0.0926957 -2.14558e-19)
(1.32131 -0.0900603 1.21014e-19)
(1.35033 -0.0821295 -1.63286e-19)
(1.35992 -0.0674332 1.53668e-19)
(1.35706 -0.0557653 -3.66256e-20)
(1.35036 -0.0309289 -1.49215e-19)
(-0.0286991 -0.0197738 -4.51398e-19)
(-0.0311143 -0.0274912 7.52911e-19)
(0.0160573 -0.0248534 8.50238e-21)
(0.116131 -0.0204346 -2.06085e-19)
(0.270705 -0.0206946 2.69762e-19)
(0.471462 -0.0290028 -7.83196e-20)
(0.694379 -0.0443412 -2.11456e-19)
(0.906859 -0.0618551 -2.3441e-19)
(1.0829 -0.075953 4.42335e-19)
(1.21123 -0.0834248 -1.16095e-19)
(1.29385 -0.0824879 -3.82876e-20)
(1.33982 -0.0759875 2.1292e-19)
(1.36037 -0.0606669 -1.57374e-19)
(1.36351 -0.0497581 5.36619e-20)
(1.35989 -0.0209646 -6.60309e-20)
(-0.0275689 -0.0197999 6.368e-19)
(-0.0372146 -0.0297017 -6.99806e-19)
(-0.00530592 -0.0284219 -2.88323e-19)
(0.0724944 -0.0241819 1.1307e-19)
(0.199584 -0.0223518 -4.7313e-20)
(0.373935 -0.02642 -1.63334e-19)
(0.581441 -0.037193 2.08872e-19)
(0.795996 -0.0519436 -1.52472e-19)
(0.989676 -0.0656375 -2.52975e-19)
(1.14367 -0.074469 3.07739e-19)
(1.2523 -0.0750599 -1.05086e-19)
(1.31963 -0.0700098 5.7512e-20)
(1.35549 -0.054644 1.24923e-20)
(1.36749 -0.0425665 1.50158e-19)
(1.3694 -0.0130347 7.74921e-20)
(-0.0257398 -0.0192456 -2.62585e-19)
(-0.0407801 -0.0312516 1.02669e-19)
(-0.0214791 -0.0319748 -6.85999e-20)