/*--------------------------------*- C++ -*----------------------------------*\
  =========                 |
  \\      /  F ield         | OpenFOAM: The Open Source CFD Toolbox
   \\    /   O peration     | Website:  https://openfoam.org
    \\  /    A nd           | Version:  7
     \\/     M anipulation  |
\*---------------------------------------------------------------------------*/
FoamFile
{
    version     2.0;
    format      ascii;
    class       surfaceScalarField;
    location    "95.001";
    object      phi;
}
// * * * * * * * * * * * * * * * * * * * * * * * * * * * * * * * * * * * * * //

dimensions      [0 3 -1 0 0 0 0];

internalField   nonuniform List<scalar> 
7273
(
-0.00117625
-0.00145665
-0.00115642
-0.00210838
-0.00112308
-0.00276665
-0.00107802
-0.00339237
-0.00102162
-0.0039501
-0.00095137
-0.00440693
-0.000861137
-0.00473277
-0.000742556
-0.00489642
-0.000586785
-0.0048681
-0.000387472
-0.00462263
-0.000145229
-0.00414802
0.000135861
-0.00345209
0.000442627
-0.0025592
0.000760388
-0.00151508
0.00107994
-0.000379175
0.00139329
0.000787278
0.0016968
0.0019206
0.00198199
0.00296488
0.00223872
0.0038679
0.00245589
0.00459616
0.00262388
0.00514031
0.00273555
0.00551618
0.00278491
0.00576145
0.00276662
0.00592974
0.00268075
0.00607624
0.0025423
0.00622911
0.00238659
0.00635882
0.00226169
0.00637338
0.00220844
0.00615734
0.00224199
0.0056351
0.00235107
0.00480725
0.00251349
0.00373248
0.00270995
0.00248717
0.00292742
0.00114434
0.00315572
-0.000222064
0.00338564
-0.00153774
0.00360655
-0.00272484
0.003807
-0.00371873
0.00397707
-0.00448382
0.00411056
-0.00501924
0.00420561
-0.00535237
0.00426363
-0.00552637
0.00428792
-0.00558836
0.00428334
-0.00557929
0.00425505
-0.00552694
0.0042049
-0.00545016
0.00412847
-0.00537454
0.00401841
-0.00533938
0.00387374
-0.00537563
0.00370724
-0.00546709
0.00354335
-0.00553308
0.00340764
-0.00545619
0.00331638
-0.00513811
0.00327402
-0.00454104
0.00327755
-0.00368923
0.00332129
-0.00264511
0.00339866
-0.00148655
0.0035021
-0.000294951
0.00362211
0.000852559
0.00374885
0.00189051
0.00387236
0.0027725
0.0039841
0.00347501
0.00407789
0.00399694
0.00414995
0.00435454
0.00419825
0.0045758
0.00422275
0.00469364
0.00422526
0.0047356
0.00420893
0.00472254
0.00417463
0.00466637
0.0041201
0.00460212
0.00404036
0.00454018
0.00393521
0.00455047
0.00381034
0.00451016
0.00367929
0.00456165
0.00355838
0.00420968
0.00345252
0.00415292
0.00298485
-0.00102049
-0.00145449
-0.00101303
-0.00211583
-0.00099845
-0.00278123
-0.000979499
-0.00341132
-0.000957398
-0.00397221
-0.000929919
-0.00443441
-0.000890253
-0.00477243
-0.000828128
-0.00495854
-0.00073047
-0.00496576
-0.000585797
-0.0047673
-0.000388309
-0.00434551
-0.00014169
-0.00369871
0.000149332
-0.00285022
0.00046865
-0.00183439
0.000797952
-0.000708477
0.00112724
0.000457992
0.00144992
0.00159791
0.00175557
0.00265923
0.00203364
0.00358983
0.00227242
0.00435739
0.00246117
0.00495156
0.00259103
0.00538633
0.00265476
0.00569772
0.00264854
0.00593595
0.00257806
0.00614671
0.0024659
0.00634127
0.00235182
0.0064729
0.00228065
0.00644455
0.00228273
0.00615526
0.00236206
0.00555578
0.00250234
0.00466696
0.00268243
0.00355239
0.00288583
0.00228377
0.00310199
0.000928179
0.00332256
-0.000442629
0.00354006
-0.00175525
0.00374513
-0.00292991
0.00392744
-0.00390104
0.00407814
-0.00463452
0.0041922
-0.0051333
0.00426891
-0.00542908
0.00431055
-0.00556801
0.00432076
-0.00559856
0.00430405
-0.00556258
0.00426546
-0.00548836
0.00420768
-0.00539238
0.00412723
-0.00529409
0.00401597
-0.00522812
0.00386985
-0.00522952
0.00369819
-0.00529543
0.0035242
-0.00535909
0.00337539
-0.00530737
0.00327142
-0.00503415
0.00321918
-0.0044888
0.00321623
-0.00368627
0.00325638
-0.00268526
0.00333241
-0.00156258
0.00343624
-0.000398778
0.00355816
0.000730639
0.00368801
0.00176066
0.00381564
0.00264488
0.00393231
0.00335833
0.00403152
0.00389773
0.00410904
0.00427702
0.00416256
0.00452229
0.00419199
0.00466421
0.00419923
0.00472836
0.0041871
0.00473467
0.0041558
0.00469768
0.00410246
0.00465545
0.0040226
0.00462004
0.00391686
0.00465621
0.00379228
0.00463474
0.00366189
0.00469204
0.0035419
0.00432966
0.00343564
0.00425918
0.00305214
-0.000764472
-0.00144905
-0.000765659
-0.00211465
-0.000766268
-0.00278062
-0.00077024
-0.00340735
-0.000779835
-0.00396261
-0.000793664
-0.00442058
-0.000805233
-0.00476086
-0.00080306
-0.00496071
-0.000770495
-0.00499832
-0.00069103
-0.00484677
-0.000552481
-0.00448406
-0.000351613
-0.00389958
-9.67699e-05
-0.00310506
0.000209601
-0.00214077
0.00054044
-0.00103932
0.000879194
0.000119238
0.00121712
0.00125999
0.00154037
0.00233598
0.00183735
0.00329285
0.00209527
0.00409947
0.00230233
0.0047445
0.00244849
0.00524016
0.00252666
0.00561955
0.00253612
0.0059265
0.00248861
0.00619422
0.00241234
0.00641754
0.0023478
0.00653743
0.00233327
0.00645908
0.0023882
0.00610033
0.00250809
0.00543589
0.00267447
0.00450058
0.00286814
0.00335872
0.00307515
0.00207676
0.00328715
0.000716177
0.0034975
-0.000652975
0.00370051
-0.00195826
0.00388799
-0.00311739
0.00405068
-0.00406372
0.00418086
-0.00476471
0.00427472
-0.00522716
0.00433264
-0.005487
0.00435778
-0.00559316
0.00435413
-0.00559491
0.00432584
-0.00553429
0.00427753
-0.00544006
0.00421243
-0.00532727
0.00412822
-0.00520988
0.00401663
-0.00511653
0.00387096
-0.00508384
0.00369661
-0.00512109
0.00351462
-0.0051771
0.00335365
-0.00514641
0.00323687
-0.00491737
0.00317416
-0.00442609
0.00316413
-0.00367624
0.00320019
-0.00272131
0.00327436
-0.00163675
0.00337803
-0.000502453
0.00350122
0.000607454
0.00363352
0.00162836
0.00376464
0.00251376
0.00388566
0.00323732
0.00398973
0.00379366
0.00407226
0.00419449
0.00413069
0.00446386
0.00416494
0.00462995
0.0041769
0.0047164
0.00416895
0.00474262
0.00414061
0.00472602
0.00408858
0.00470748
0.00400897
0.00469965
0.00390324
0.00476194
0.0037796
0.00475838
0.00365023
0.0048214
0.00353128
0.00444862
0.00342434
0.00436612
0.00312259
-0.000415933
-0.00144432
-0.000421984
-0.0021086
-0.000433753
-0.00276885
-0.000456436
-0.00338467
-0.00049333
-0.00392572
-0.000544334
-0.00436958
-0.000604555
-0.00470064
-0.000662018
-0.00490325
-0.000697693
-0.00496265
-0.000690548
-0.00485391
-0.000622605
-0.004552
-0.00048344
-0.00403875
-0.000273939
-0.00331456
-1.1036e-05
-0.00240367
0.000315116
-0.00136547
0.000653682
-0.000219328
0.00100045
0.000913218
0.00133678
0.00199966
0.00164923
0.0029804
0.00192349
0.00382521
0.00214677
0.00452122
0.00230866
0.00507827
0.00240341
0.0055248
0.00243414
0.00589576
0.00241777
0.00621059
0.00238569
0.00644962
0.00237573
0.0065474
0.00241771
0.0064171
0.00252121
0.00599683
0.00267611
0.00528099
0.00286384
0.00431285
0.00306742
0.00315514
0.00327496
0.00186922
0.00348009
0.000511042
0.00367822
-0.000851108
0.00386509
-0.00214512
0.00403359
-0.00328589
0.00417546
-0.0042056
0.00428422
-0.00487347
0.0043573
-0.00530024
0.00439619
-0.00552589
0.00440486
-0.00560183
0.00438765
-0.0055777
0.00434839
-0.00549502
0.00429105
-0.00538272
0.00421904
-0.00525526
0.00413127
-0.00512212
0.00401999
-0.00500525
0.00387642
-0.00494027
0.0037019
-0.00494657
0.00351428
-0.00498948
0.00334246
-0.00497459
0.00321288
-0.00478778
0.00313902
-0.00435224
0.00312115
-0.00365836
0.00315249
-0.00275265
0.00322424
-0.00170851
0.00332719
-0.000605404
0.00345104
0.000483607
0.00358518
0.00149421
0.0037192
0.00237973
0.003844
0.00311252
0.00395243
0.00368523
0.00403956
0.00410737
0.00410263
0.00440079
0.00414162
0.00459097
0.0041583
0.00469973
0.00415453
0.00474639
0.00412915
0.00475139
0.00407859
0.00475805
0.0039997
0.00477854
0.00389461
0.00486702
0.00377255
0.00488045
0.00364458
0.00494937
0.00352681
0.00456638
0.00341902
0.00447391
0.00319654
1.79159e-05
1.12896e-05
-0.00210197
-1.041e-05
-0.00274716
-4.98598e-05
-0.00334522
-0.000110408
-0.00386517
-0.000192758
-0.00428723
-0.000295488
-0.00459791
-0.000407506
-0.00479123
-0.000509581
-0.00486057
-0.000576876
-0.00478662
-0.000587111
-0.00454177
-0.000521772
-0.00410409
-0.00037541
-0.00346092
-0.000154186
-0.00262489
0.000132126
-0.00165178
0.000457598
-0.0005448
0.000803882
0.000566934
0.00114678
0.00165676
0.00147009
0.00265709
0.0017576
0.00353769
0.00199564
0.00428318
0.00217411
0.0048998
0.00228933
0.00540958
0.00234809
0.005837
0.00237075
0.00618793
0.00238884
0.00643152
0.00243531
0.00650093
0.00253103
0.00632138
0.00267767
0.00585019
0.00286207
0.00509659
0.00306668
0.00410824
0.00327657
0.00294525
0.00348204
0.00166375
0.00367785
0.000315223
0.00386227
-0.00103552
0.00403177
-0.00231462
0.00418026
-0.00343439
0.00430044
-0.00432578
0.0043871
-0.00496013
0.00443905
-0.00535219
0.00445888
-0.00554573
0.00445128
-0.00559423
0.00442091
-0.00554733
0.00437132
-0.00544542
0.00430572
-0.00531713
0.00422734
-0.00517688
0.00413621
-0.00503098
0.00402562
-0.00489467
0.00388549
-0.00480015
0.00371322
-0.00477429
0.00352261
-0.00479887
0.00334163
-0.00479361
0.00319951
-0.00464566
0.00311378
-0.00426651
0.00308713
-0.00363171
0.00311296
-0.00277848
0.00318168
-0.00177723
0.00328337
-0.000707093
0.00340729
0.000359678
0.00354271
0.0013588
0.00367909
0.00224335
0.00380715
0.00298446
0.00391946
0.00357292
0.0040108
0.00401602
0.00407833
0.00433326
0.00412201
0.00454728
0.00414342
0.00467832
0.00414381
0.004746
0.00412145
0.00477376
0.0040726
0.00480689
0.00399494
0.0048562
0.00389117
0.00497079
0.00377134
0.00500029
0.00364514
0.00507556
0.00352878
0.00468274
0.00342004
0.00458266
0.0032742
0.000485754
-0.00209619
0.00046372
-0.00272512
0.000419261
-0.00330076
0.000347135
-0.00379304
0.000241654
-0.00418175
0.00010335
-0.00445961
-5.39613e-05
-0.00463392
-0.000212798
-0.00470174
-0.0003498
-0.00464961
-0.000440089
-0.00445148
-0.000455734
-0.00408844
-0.000386072
-0.00353059
-0.000227269
-0.0027837
-1.27192e-06
-0.00187778
0.000303499
-0.000849571
0.000635958
0.000234475
0.00097638
0.00131634
0.00130433
0.00232914
0.00160154
0.00324048
0.00185334
0.00403138
0.00205018
0.00470296
0.00219045
0.00526931
0.00228373
0.00574372
0.00235162
0.00612004
0.00242321
0.00635993
0.00252492
0.00639923
0.0026696
0.0061767
0.00285331
0.00566648
0.00306178
0.00488812
0.00327898
0.00389105
0.00349196
0.00273226
0.00369251
0.00146321
0.00387775
0.000129985
0.00404715
-0.00120493
0.00419852
-0.00246599
0.00432633
-0.0035622
0.00442421
-0.00442366
0.00448834
-0.00502425
0.00451902
-0.00538287
0.00451997
-0.00554667
0.00449648
-0.00557074
0.00445345
-0.0055043
0.00439418
-0.00538616
0.00432115
-0.0052441
0.00423707
-0.00509279
0.00414279
-0.00493671
0.00403307
-0.00478494
0.00389737
-0.00466445
0.00372954
-0.00460646
0.00353875
-0.00460808
0.00335076
-0.00460562
0.00319671
-0.00449162
0.00309845
-0.00416824
0.00306189
-0.00359516
0.00308127
-0.00279786
0.00314633
-0.00184229
0.00324604
-0.000806803
0.00336959
0.000236127
0.00350576
0.00122263
0.00364398
0.00210513
0.00377481
0.00285363
0.00389056
0.00345716
0.00398582
0.00392077
0.00405766
0.00426141
0.00410602
0.00449892
0.00413218
0.00465216
0.00413674
0.00474143
0.00411748
0.00479302
0.00407066
0.00485371
0.00399482
0.00493204
0.00389305
0.00507256
0.00377612
0.00511722
0.00365211
0.00519957
0.00353744
0.00479741
0.00342777
0.00469233
0.00335568
0.00101327
-0.00209295
0.000989694
-0.00270154
0.00094119
-0.00325225
0.000860448
-0.0037123
0.000742092
-0.00406339
0.000585971
-0.00430349
0.00039535
-0.0044433
0.000182991
-0.00448938
-2.34972e-05
-0.00444313
-0.000184078
-0.0042909
-0.000280466
-0.00399205
-0.000294801
-0.00351625
-0.000211521
-0.00286698
-4.26241e-05
-0.00204667
0.000207579
-0.00109977
0.000510992
-6.89388e-05
0.000836952
0.000990379
0.00116142
0.00200467
0.00146379
0.00293812
0.00172806
0.00376711
0.00194493
0.00448609
0.00211419
0.00510005
0.0022467
0.00561121
0.0023632
0.00600354
0.00248846
0.00623467
0.00264179
0.0062459
0.0028293
0.00598919
0.00304374
0.00545203
0.00327101
0.00466085
0.00349673
0.00366533
0.00370962
0.00251937
0.00390349
0.00126934
0.00407645
-4.29821e-05
0.00423045
-0.00135893
0.00436332
-0.00259885
0.00447009
-0.00366897
0.00454532
-0.00449889
0.00458671
-0.00506565
0.00459619
-0.00539235
0.00457863
-0.00552911
0.00453983
-0.00553194
0.00448476
-0.00544923
0.00441654
-0.00531794
0.00433691
-0.00516447
0.00424788
-0.00500376
0.00415077
-0.0048396
0.00404193
-0.00467611
0.00391126
-0.00453377
0.00374974
-0.00444494
0.00356161
-0.00441995
0.00336915
-0.00441316
0.00320429
-0.00432676
0.00309301
-0.00405696
0.00304533
-0.00354749
0.0030571
-0.00280962
0.00311758
-0.00190277
0.00321486
-0.00090408
0.00333746
0.000113521
0.00347389
0.0010862
0.00361349
0.00196554
0.00374665
0.00272047
0.00386547
0.00333834
0.00396439
0.00382185
0.00404046
0.00418535
0.00409351
0.00444587
0.00412444
0.00462124
0.0041332
0.00473267
0.00411718
0.00480904
0.00407276
0.00489813
0.00399936
0.00500544
0.00390031
0.00517161
0.00378696
0.00523057
0.00366559
0.00532094
0.00355299
0.00491001
0.00344255
0.00480277
0.00344094
0.00157188
-0.0020916
0.00154612
-0.00267579
0.00149075
-0.00319689
0.00140166
-0.00362321
0.00127545
-0.00393718
0.00110976
-0.00413779
0.000904223
-0.00423776
0.000667077
-0.00425223
0.000417342
-0.00419339
0.000180106
-0.00405366
-6.96576e-06
-0.00380498
-9.95114e-05
-0.00342371
-9.84979e-05
-0.00286799
-6.59311e-06
-0.00213858
0.000188338
-0.00129471
0.000445366
-0.000325966
0.000744124
0.000691621
0.00105538
0.00169342
0.00135687
0.00263662
0.00163101
0.00349297
0.00186812
0.00424898
0.00206831
0.00489986
0.00224191
0.00543762
0.00240695
0.0058385
0.00258285
0.00605877
0.00278217
0.00604658
0.00300575
0.00576561
0.00324459
0.0052132
0.00348557
0.00441988
0.00371593
0.00343497
0.00392601
0.00230928
0.00411124
0.00108412
0.0042717
-0.000203442
0.00440996
-0.00149719
0.00452428
-0.00271318
0.00460986
-0.00375456
0.00466228
-0.0045513
0.00468092
-0.00508429
0.00466953
-0.00538095
0.00463408
-0.00549367
0.00458072
-0.00547858
0.00451437
-0.00538288
0.00443792
-0.00524148
0.00435253
-0.00507908
0.00425936
-0.00491059
0.00415984
-0.00474007
0.00405183
-0.00456811
0.0039264
-0.00440834
0.00377264
-0.00429119
0.00358989
-0.0042372
0.00339588
-0.00421915
0.00322186
-0.00415273
0.00309743
-0.00393253
0.00303739
-0.00348745
0.00304018
-0.00281242
0.0030951
-0.00195769
0.00318915
-0.000998122
0.00331038
-7.7166e-06
0.00344661
0.000949975
0.00358716
0.00182499
0.00372226
0.00258538
0.00384384
0.00321676
0.00394625
0.00371944
0.00402651
0.00410509
0.00408429
0.00438809
0.00412002
0.0045855
0.00413304
0.00471965
0.00412045
0.00482163
0.00407886
0.00493973
0.00400855
0.00507574
0.00391294
0.00526722
0.00380388
0.00533963
0.00368566
0.00543916
0.00357559
0.00502007
0.0034647
0.00491366
0.00352978
0.00214404
-0.00208689
0.00211029
-0.00264204
0.00204549
-0.00313208
0.00194786
-0.00352559
0.00181555
-0.00380487
0.00164624
-0.00396848
0.00143757
-0.00402909
0.00119184
-0.00400651
0.000919561
-0.00392111
0.000643123
-0.00377723
0.00039839
-0.00356025
0.000214969
-0.00324029
0.000127023
-0.00278004
0.000146502
-0.00215806
0.000260437
-0.00140864
0.000458138
-0.000523667
0.000715107
0.000434652
0.00100217
0.00140636
0.001295
0.0023438
0.00157437
0.00321359
0.00182962
0.00399373
0.0020597
0.00466977
0.00227278
0.00522454
0.00248287
0.00562841
0.00270361
0.00583803
0.0029417
0.00580848
0.00319426
0.00551305
0.00345152
0.00495594
0.00370147
0.00416993
0.00393293
0.0032035
0.0041378
0.00210442
0.00431322
0.000908698
0.00446095
-0.00035117
0.0045837
-0.00161994
0.00467962
-0.00280909
0.00474396
-0.0038189
0.00477351
-0.00458085
0.00476969
-0.00508047
0.00473801
-0.00534927
0.0046855
-0.00544116
0.00461852
-0.0054116
0.00454176
-0.00530612
0.00445786
-0.00515758
0.00436752
-0.00498874
0.00427107
-0.00481415
0.00416965
-0.00463865
0.00406242
-0.00446088
0.00394213
-0.00428805
0.00379708
-0.00414613
0.00362215
-0.00406227
0.00342971
-0.00402671
0.00324878
-0.0039718
0.0031116
-0.00379534
0.00303806
-0.00341391
0.00303029
-0.00280465
0.00307836
-0.00200576
0.00316857
-0.00108832
0.00328774
-0.000126894
0.00342339
0.00081433
0.00356451
0.00168387
0.00370121
0.00244868
0.0038253
0.00309266
0.0039311
0.00361364
0.00401555
0.00402065
0.00407811
0.00432553
0.00411869
0.00454492
0.00413604
0.0047023
0.00412713
0.00483055
0.00408882
0.00497804
0.0040223
0.00514226
0.00393085
0.00535867
0.00382681
0.00544367
0.0037123
0.00555367
0.00360533
0.00512704
0.00349445
0.00502455
0.00362187
0.00271029
-0.00207341
0.00266519
-0.00259694
0.0025882
-0.00305509
0.00247983
-0.00341723
0.00234052
-0.00366556
0.00216957
-0.00379753
0.00196459
-0.0038241
0.00172375
-0.00376568
0.00144962
-0.00364697
0.00115617
-0.00348377
0.000871191
-0.00327527
0.000628239
-0.00299733
0.000463053
-0.00261486
0.000397634
-0.00209264
0.000431103
-0.00144211
0.000559833
-0.000652397
0.000763808
0.000230677
0.00101579
0.00115437
0.00129097
0.00206862
0.001569
0.00293556
0.0018375
0.00372523
0.00209316
0.00441412
0.00234073
0.00497697
0.00258942
0.00537972
0.00284721
0.00558024
0.00311591
0.00553978
0.00339007
0.00523888
0.00365983
0.00468618
0.00391432
0.00391545
0.00414375
0.00297407
0.00434156
0.0019066
0.00450657
0.00074368
0.00464187
-0.000486466
0.00474964
-0.00172771
0.00482739
-0.00288685
0.00487056
-0.00386207
0.00487749
-0.00458777
0.00485176
-0.00505475
0.00480067
-0.00529818
0.00473214
-0.00537263
0.00465262
-0.00533208
0.00456646
-0.00521995
0.00447593
-0.00506705
0.00438141
-0.00489421
0.00428252
-0.00471526
0.00417983
-0.00453596
0.00407339
-0.00435444
0.00395792
-0.00417257
0.00382198
-0.00401019
0.00365688
-0.00389718
0.00346919
-0.00383901
0.00328417
-0.00378678
0.00313527
-0.00364645
0.0030474
-0.00332603
0.0030274
-0.00278466
0.00306721
-0.00204557
0.00315251
-0.00117362
0.00326898
-0.00024336
0.00340365
0.000679654
0.00354501
0.00154251
0.00368304
0.00231065
0.00380948
0.00296622
0.00391862
0.0035045
0.0040073
0.00393196
0.0040747
0.00425812
0.00412018
0.00449944
0.00414196
0.00468051
0.00413699
0.00483552
0.00410246
0.00501257
0.00404043
0.00520429
0.00395389
0.00544521
0.00385562
0.00554194
0.00374545
0.00566383
0.00364225
0.00523024
0.003532
0.0051348
0.00371669
0.00325744
0.00319629
-0.00253578
0.00310343
-0.00296223
0.00298142
-0.00329522
0.002833
-0.00351713
0.00265969
-0.00362422
0.00246054
-0.00362496
0.0022324
-0.00353754
0.00197228
-0.00338685
0.00168443
-0.00319592
0.00138565
-0.00297649
0.00110549
-0.00271718
0.000879999
-0.00238937
0.000740138
-0.00195278
0.000696435
-0.00139841
0.000752966
-0.000708928
0.00089696
8.66829e-05
0.00110473
0.000946604
0.00135339
0.00181995
0.00162207
0.00266689
0.00189656
0.00345074
0.00217064
0.00414003
0.00244501
0.0047026
0.00272376
0.00510097
0.00300964
0.00529436
0.00330049
0.00524894
0.00358908
0.00495029
0.00386573
0.00440954
0.00412057
0.00366061
0.00434511
0.00274952
0.00453443
0.00171728
0.00468888
0.000589238
0.00481232
-0.000609906
0.0049058
-0.00182119
0.00496578
-0.00294684
0.00498802
-0.00388431
0.00497277
-0.00457252
0.00492597
-0.00500794
0.00485659
-0.0052288
0.0047733
-0.00528935
0.00468247
-0.00524125
0.00458799
-0.00512546
0.00449171
-0.00497078
0.00439376
-0.00479626
0.00429321
-0.00461472
0.00418995
-0.0044327
0.00408442
-0.00424891
0.00397332
-0.00406147
0.00384642
-0.00388329
0.0036926
-0.00374336
0.00351267
-0.00365907
0.00332681
-0.00360093
0.00316801
-0.00348764
0.00306548
-0.00322351
0.00303162
-0.00275079
0.00306137
-0.00207532
0.00314053
-0.00125279
0.00325365
-0.000356472
0.00338686
0.000546438
0.00352815
0.00140123
0.0036673
0.0021715
0.00379597
0.00283755
0.00390845
0.00339203
0.00400143
0.00383898
0.00407373
0.00418582
0.00412416
0.00444901
0.0041505
0.00465417
0.00414978
0.00483624
0.00411954
0.00504281
0.00406271
0.00526112
0.0039818
0.00552612
0.00389008
0.00563366
0.00378496
0.00576895
0.00368629
0.00532892
0.00357747
0.00524361
0.00381356
0.00368878
-0.00245382
0.00357664
-0.00285009
0.00343856
-0.00315713
0.00327913
-0.00335771
0.00310191
-0.003447
0.00290793
-0.00343098
0.0026948
-0.0033244
0.00245732
-0.00314937
0.00219238
-0.00293098
0.00190525
-0.00268937
0.00161542
-0.00242734
0.0013542
-0.00212814
0.00115689
-0.00175548
0.00104501
-0.00128652
0.00103149
-0.000695409
0.00111289
5.28229e-06
0.00127027
0.000789228
0.00148472
0.0016055
0.00173568
0.00241593
0.00200751
0.00317891
0.00229106
0.00385648
0.00258282
0.00441085
0.00288198
0.00480181
0.00318662
0.00498971
0.00349135
0.00494421
0.00378766
0.00465398
0.00406604
0.00413116
0.0043175
0.00340915
0.00453482
0.0025322
0.00471469
0.00153741
0.00485873
0.000445206
0.00497106
-0.000722245
0.00505084
-0.00190097
0.00509331
-0.0029893
0.00509486
-0.00388585
0.00505804
-0.00453571
0.00499124
-0.00494115
0.00490497
-0.00514253
0.00480836
-0.00519274
0.00470757
-0.00514045
0.00460592
-0.00502381
0.00450482
-0.00486968
0.00440415
-0.0046956
0.00430267
-0.00451324
0.00419955
-0.00432957
0.0040952
-0.00414456
0.00398801
-0.00395428
0.00386968
-0.00376497
0.00372795
-0.00360162
0.00355842
-0.00348954
0.00337524
-0.00341776
0.00320907
-0.00332148
0.00309229
-0.00310673
0.00304315
-0.00270166
0.00306091
-0.00209307
0.00313241
-0.00132429
0.00324122
-0.000465276
0.00337249
0.000415159
0.00351342
0.0012603
0.00365352
0.0020314
0.00378438
0.00270669
0.00390023
0.00327618
0.00399758
0.00374163
0.00407484
0.00410856
0.00413027
0.00439358
0.00416131
0.00462313
0.00416517
0.00483238
0.00413976
0.00506822
0.00408883
0.00531205
0.00401427
0.00560068
0.0039299
0.00571803
0.0038306
0.00586826
0.00373731
0.0054222
0.00363088
0.00535005
0.00391162
0.00412771
-0.00234764
0.0039943
-0.00271668
0.00383903
-0.00300187
0.00366785
-0.00318653
0.00348581
-0.00326496
0.00329563
-0.0032408
0.00309655
-0.00312532
0.00288381
-0.00293663
0.00265084
-0.00269801
0.0023942
-0.00243273
0.00212122
-0.00215436
0.00185309
-0.00186001
0.00162254
-0.00152493
0.00145835
-0.00112233
0.00138273
-0.000619791
0.0014025
-1.44852e-05
0.00150664
0.000685092
0.00168109
0.00143104
0.00190668
0.00219035
0.00216704
0.00291855
0.00245048
0.00357304
0.00274967
0.00411166
0.00305939
0.00449209
0.00337373
0.00467536
0.00368464
0.00463331
0.00398256
0.00435605
0.0042581
0.00385562
0.00450299
0.00316427
0.00471119
0.00232399
0.00488118
0.00136742
0.00501533
0.000311061
0.00511728
-0.000824197
0.00518368
-0.00196737
0.0052086
-0.00301422
0.00518965
-0.00386691
0.00513207
-0.00447812
0.00504664
-0.00485572
0.00494512
-0.00504101
0.0048368
-0.00508442
0.00472746
-0.00503111
0.00461985
-0.0049162
0.00451487
-0.00476471
0.00441221
-0.00459293
0.00431044
-0.00441147
0.00420815
-0.00422728
0.00410538
-0.0040418
0.00400174
-0.00385064
0.00389123
-0.00365446
0.00376174
-0.00347213
0.0036047
-0.0033325
0.00342774
-0.0032408
0.00325743
-0.00315117
0.00312764
-0.00297693
0.00306226
-0.00263628
0.003066
-0.00209681
0.00312804
-0.00138633
0.0032314
-0.000568636
0.0033601
0.000286458
0.00350035
0.00112005
0.00364128
0.00189046
0.00377431
0.00257366
0.00389359
0.0031569
0.00399537
0.00363985
0.00407764
0.00402629
0.00413813
0.00433309
0.00417402
0.00458724
0.0041828
0.0048236
0.00416273
0.00508829
0.0041184
0.00535639
0.00405092
0.00566816
0.00397472
0.00579423
0.00388206
0.00596092
0.00379509
0.00550917
0.00369214
0.005453
0.00400984
0.00449919
-0.00221651
0.00434482
-0.00256231
0.00417324
-0.00283028
0.00399118
-0.00300448
0.0038046
-0.00307838
0.00361742
-0.00305362
0.00343048
-0.00293837
0.00324062
-0.00274677
0.00304118
-0.00249857
0.00282439
-0.00221594
0.00258772
-0.00191769
0.00233998
-0.00161227
0.00210472
-0.00128966
0.00191118
-0.000928793
0.00178872
-0.000497331
0.00175089
2.33427e-05
0.001803
0.000632981
0.00193383
0.00130021
0.00212772
0.00199646
0.00236854
0.00267773
0.00264276
0.00329882
0.00293984
0.00381458
0.00325084
0.00418109
0.00356655
0.00435965
0.00387672
0.00432314
0.0041709
0.00406188
0.00443968
0.00358683
0.00467537
0.00292857
0.00487319
0.00212618
0.00503314
0.00120747
0.00515854
0.000185667
0.00525045
-0.000916105
0.00530331
-0.00202023
0.00531035
-0.00302127
0.0052711
-0.00382766
0.00519377
-0.00440079
0.00509137
-0.00475332
0.00497647
-0.00492611
0.0048582
-0.00496615
0.0047418
-0.0049147
0.00462944
-0.00480385
0.00452155
-0.00465682
0.0044176
-0.00448898
0.00431612
-0.00430999
0.0042153
-0.00412646
0.0041146
-0.0039411
0.00401431
-0.00375035
0.00391073
-0.00355088
0.00379307
-0.00335447
0.00364991
-0.00318934
0.00348246
-0.00307335
0.00331172
-0.00298043
0.00317107
-0.00283628
0.00308922
-0.00255443
0.0030771
-0.0020847
0.00312754
-0.00143677
0.00322403
-0.000665128
0.00334932
0.000161172
0.00348853
0.000980836
0.00363018
0.00174882
0.00376538
0.00243846
0.00388815
0.00303413
0.00399441
0.00353359
0.00408171
0.003939
0.0041473
0.0042675
0.0041882
0.00454634
0.00420226
0.00480955
0.00418804
0.0051025
0.00415098
0.00539345
0.00409128
0.00572786
0.00402408
0.00586143
0.00393895
0.00604606
0.0038593
0.00558882
0.00376107
0.00555122
0.00410703
0.00479243
0.00462012
-0.00238999
0.00443522
-0.00264538
0.00424479
-0.00281405
0.00405521
-0.0028888
0.00387116
-0.00286957
0.0036947
-0.00276191
0.00352447
-0.00257654
0.00335543
-0.00232953
0.00317934
-0.00203985
0.00298829
-0.00172664
0.00278067
-0.00140466
0.00256771
-0.00107669
0.00237189
-0.000732978
0.00222312
-0.000348554
0.00214193
0.000104532
0.00214565
0.000629257
0.0022316
0.00121427
0.00238908
0.00183898
0.00260354
0.00246327
0.00286048
0.00304188
0.00314695
0.00352811
0.00345102
0.00387702
0.00376081
0.00404986
0.00406429
0.00401967
0.00435019
0.00377597
0.00460904
0.00332799
0.00483362
0.00270399
0.00502043
0.00193936
0.00517097
0.00105693
0.00528816
6.84785e-05
0.00537014
-0.000998082
0.00540871
-0.0020588
0.00539726
-0.00300982
0.00533802
-0.00376842
0.00524229
-0.00430506
0.00512489
-0.00463592
0.00499869
-0.00479991
0.00487232
-0.00483978
0.00475036
-0.00479274
0.00463447
-0.00468795
0.00452461
-0.00454696
0.00442006
-0.00438443
0.0043194
-0.00420933
0.00422059
-0.00402765
0.00412249
-0.00384299
0.00402551
-0.00365337
0.003928
-0.00345337
0.0038213
-0.00324777
0.00369265
-0.00306069
0.00353752
-0.00291822
0.0033703
-0.00281321
0.00322181
-0.00268779
0.00312415
-0.00245677
0.00309471
-0.00205526
0.00313136
-0.00147341
0.00321907
-0.000752845
0.0033399
4.03491e-05
0.0034776
0.000843137
0.0036198
0.00160661
0.00375719
0.00230107
0.00388349
0.00290783
0.00399426
0.00342281
0.00408659
0.00384667
0.00415733
0.00419675
0.0042034
0.00450027
0.00422308
0.00478987
0.00421522
0.00511036
0.00418608
0.00542259
0.00413485
0.00577908
0.00407748
0.0059188
0.00400082
0.00612272
0.00392954
0.0056601
0.00383739
0.00564337
0.00420183
0.00481702
-0.00220506
0.00462347
-0.00245184
0.00442839
-0.00261896
0.0042383
-0.00269871
0.00405829
-0.00268956
0.00389127
-0.0025949
0.0037374
-0.00242267
0.00359388
-0.00218601
0.00345397
-0.00189994
0.00330849
-0.00158116
0.00315011
-0.00124628
0.00297899
-0.000905575
0.00280653
-0.000560519
0.00265716
-0.000199185
0.00255217
0.000209529
0.00251791
0.000663514
0.00256178
0.0011704
0.00268053
0.00172022
0.00286333
0.00228048
0.00309622
0.00280898
0.00336481
0.00325953
0.00365495
0.00358687
0.00395268
0.00375213
0.00424452
0.00372782
0.00451854
0.00350195
0.00476506
0.00308147
0.00497741
0.00249165
0.00515332
0.00176344
0.00529468
0.000915573
0.00540518
-4.2026e-05
0.00547592
-0.00106882
0.00549876
-0.00208164
0.00546801
-0.00297906
0.00538934
-0.00368975
0.00527698
-0.0041927
0.00514687
-0.00450581
0.00501162
-0.00466466
0.00487906
-0.00470722
0.00475304
-0.00466672
0.00463475
-0.00456966
0.00452384
-0.00443606
0.00441938
-0.00427997
0.00431999
-0.00410994
0.00422365
-0.00393131
0.00412866
-0.003748
0.00403515
-0.00355986
0.00394296
-0.00336118
0.00384604
-0.00315085
0.00373181
-0.00294646
0.00359114
-0.00277755
0.00343131
-0.00265338
0.0032787
-0.00253518
0.0031669
-0.00234497
0.00311936
-0.00200772
0.00314003
-0.00149408
0.00321686
-0.000829676
0.00333176
-7.4552e-05
0.00346725
0.000707652
0.00360978
0.00146408
0.00374931
0.00216154
0.00387916
0.00277798
0.00399444
0.00330753
0.00409179
0.00374932
0.00416772
0.00412082
0.00421913
0.00444886
0.00424476
0.00476424
0.00424374
0.00511139
0.00422314
0.00544319
0.00418106
0.00582116
0.00413433
0.00596553
0.00406711
0.00618994
0.00400529
0.00572193
0.00392067
0.00572799
0.00429277
0.004938
-0.00201411
0.00474129
-0.00225513
0.00454583
-0.00242351
0.00435823
-0.00251111
0.00418381
-0.00251515
0.00402617
-0.00243726
0.00388702
-0.00228352
0.00376542
-0.0020644
0.00365595
-0.00179048
0.00355024
-0.00147544
0.00343909
-0.00113513
0.00331659
-0.000783069
0.00318448
-0.000428414
0.00305928
-7.39794e-05
0.00295449
0.000314314
0.00289954
0.000718462
0.00291013
0.00115981
0.00299187
0.00163848
0.00314013
0.00213222
0.00334375
0.00260536
0.00358841
0.00301487
0.00385875
0.00331653
0.00413933
0.00347155
0.00441557
0.00345158
0.00467494
0.00324259
0.00490762
0.00284879
0.00510744
0.00229183
0.00527329
0.00159759
0.00540715
0.000781713
0.00550859
-0.000143459
0.00556685
-0.00112708
0.00557186
-0.00208665
0.00552102
-0.00292823
0.00542393
-0.00359267
0.00529714
-0.0040659
0.00515686
-0.00436552
0.00501486
-0.00452266
0.00487796
-0.00457033
0.00474933
-0.00453809
0.00462977
-0.0044501
0.00451871
-0.004325
0.00441503
-0.00417629
0.0043174
-0.00401231
0.00422392
-0.00383783
0.00413253
-0.00365662
0.00404281
-0.00347014
0.00395544
-0.0032738
0.00386702
-0.00306243
0.00376649
-0.00284594
0.00364164
-0.0026527
0.00349278
-0.00250452
0.00334025
-0.00238265
0.00321696
-0.00222169
0.0031514
-0.00194215
0.00315427
-0.00149695
0.00321791
-0.000893317
0.00332504
-0.000181676
0.0034573
0.000575392
0.00359974
0.00132164
0.00374131
0.00201997
0.00387468
0.0026446
0.00399445
0.00318777
0.00409679
0.00364698
0.00417794
0.00403968
0.00423486
0.00439194
0.00426678
0.00473232
0.00427306
0.0051051
0.00426159
0.00545467
0.00422933
0.00585342
0.00419402
0.00600084
0.00413726
0.0062467
0.00408598
0.00577321
0.0040104
0.00580356
0.00437823
0.00498891
-0.00182334
0.00479413
-0.00206036
0.00460231
-0.00223169
0.0044201
-0.00232889
0.00425301
-0.00234805
0.00410521
-0.00228946
0.00397981
-0.00215813
0.00387681
-0.0019614
0.0037925
-0.00170617
0.00372024
-0.00140318
0.00365162
-0.0010665
0.00357841
-0.000709865
0.00349479
-0.000344793
0.00340353
1.72847e-05
0.00332143
0.000396409
0.0032669
0.000772994
0.00325991
0.0011668
0.00331235
0.00158605
0.00342723