/*--------------------------------*- C++ -*----------------------------------*\
  =========                 |
  \\      /  F ield         | OpenFOAM: The Open Source CFD Toolbox
   \\    /   O peration     | Website:  https://openfoam.org
    \\  /    A nd           | Version:  7
     \\/     M anipulation  |
\*---------------------------------------------------------------------------*/
FoamFile
{
    version     2.0;
    format      ascii;
    class       volScalarField;
    location    "54.999";
    object      p;
}
// * * * * * * * * * * * * * * * * * * * * * * * * * * * * * * * * * * * * * //

dimensions      [0 2 -2 0 0 0 0];

internalField   nonuniform List<scalar> 
11400
(
-0.0750035
-0.074089
-0.0732156
-0.0723821
-0.0715877
-0.0708314
-0.0701126
-0.0694302
-0.0687838
-0.0681724
-0.0675955
-0.0670525
-0.0665426
-0.0660656
-0.0656207
-0.0652075
-0.0648256
-0.0644746
-0.0641541
-0.0638637
-0.0636033
-0.0633724
-0.0631709
-0.0629986
-0.0628552
-0.0627407
-0.0626548
-0.0625977
-0.0625691
-0.211097
-0.206813
-0.202266
-0.197728
-0.193235
-0.188796
-0.184428
-0.180146
-0.175955
-0.17186
-0.167863
-0.163965
-0.160168
-0.156472
-0.152877
-0.149382
-0.145988
-0.142693
-0.139495
-0.136394
-0.133387
-0.130474
-0.127651
-0.124917
-0.122271
-0.119711
-0.117234
-0.114839
-0.112523
-0.110285
-0.108122
-0.106033
-0.104017
-0.10207
-0.100191
-0.0983777
-0.0966292
-0.0949433
-0.0933184
-0.0917526
-0.0902445
-0.0887924
-0.0873949
-0.0860504
-0.0847575
-0.0835149
-0.0823213
-0.0811753
-0.0800759
-0.0790217
-0.0780117
-0.0770448
-0.07612
-0.0752363
-0.0743927
-0.0735885
-0.0728227
-0.0720945
-0.0714031
-0.0707479
-0.0701282
-0.0695432
-0.0689925
-0.0684754
-0.0679913
-0.0675399
-0.0671206
-0.066733
-0.0663766
-0.0660513
-0.0657565
-0.065492
-0.0652576
-0.0650529
-0.0648779
-0.0647323
-0.064616
-0.0645289
-0.0644708
-0.0644418
-0.211225
-0.207086
-0.202679
-0.198272
-0.1939
-0.189574
-0.185315
-0.181135
-0.177041
-0.173038
-0.169127
-0.165311
-0.16159
-0.157964
-0.154435
-0.151001
-0.147662
-0.144418
-0.141267
-0.138207
-0.135238
-0.132358
-0.129566
-0.126859
-0.124236
-0.121695
-0.119235
-0.116854
-0.11455
-0.112322
-0.110167
-0.108084
-0.106071
-0.104126
-0.102247
-0.100434
-0.0986839
-0.0969952
-0.0953665
-0.0937962
-0.0922827
-0.0908247
-0.0894206
-0.0880692
-0.0867689
-0.0855186
-0.084317
-0.0831629
-0.0820551
-0.0809925
-0.0799741
-0.0789987
-0.0780655
-0.0771734
-0.0763216
-0.0755092
-0.0747354
-0.0739994
-0.0733005
-0.072638
-0.0720111
-0.0714193
-0.070862
-0.0703387
-0.0698487
-0.0693916
-0.0689671
-0.0685745
-0.0682136
-0.067884
-0.0675854
-0.0673174
-0.0670799
-0.0668725
-0.0666952
-0.0665476
-0.0664298
-0.0663415
-0.0662826
-0.0662533
-0.211223
-0.207225
-0.202957
-0.19868
-0.194426
-0.190211
-0.186054
-0.181972
-0.177972
-0.174057
-0.17023
-0.166493
-0.162846
-0.15929
-0.155825
-0.152452
-0.149169
-0.145976
-0.142872
-0.139856
-0.136926
-0.134081
-0.131321
-0.128642
-0.126045
-0.123527
-0.121087
-0.118723
-0.116434
-0.114218
-0.112074
-0.109999
-0.107993
-0.106053
-0.104178
-0.102367
-0.100618
-0.0989295
-0.0972998
-0.0957276
-0.0942114
-0.09275
-0.0913419
-0.0899858
-0.0886805
-0.0874248
-0.0862174
-0.0850572
-0.0839431
-0.082874
-0.081849
-0.0808669
-0.079927
-0.0790282
-0.0781697
-0.0773507
-0.0765703
-0.0758279
-0.0751227
-0.074454
-0.0738212
-0.0732236
-0.0726608
-0.0721321
-0.0716371
-0.0711753
-0.0707462
-0.0703494
-0.0699846
-0.0696513
-0.0693494
-0.0690784
-0.0688382
-0.0686285
-0.0684492
-0.0682999
-0.0681807
-0.0680914
-0.0680319
-0.0680022
-0.211101
-0.20724
-0.203108
-0.198958
-0.19482
-0.190712
-0.186657
-0.18267
-0.178759
-0.17493
-0.171184
-0.167523
-0.163949
-0.160461
-0.15706
-0.153746
-0.150519
-0.147378
-0.144321
-0.141349
-0.138459
-0.135652
-0.132925
-0.130277
-0.127707
-0.125214
-0.122796
-0.120452
-0.11818
-0.115979
-0.113847
-0.111784
-0.109787
-0.107855
-0.105987
-0.10418
-0.102435
-0.100749
-0.0991205
-0.0975488
-0.0960323
-0.0945698
-0.0931599
-0.0918015
-0.0904933
-0.0892341
-0.088023
-0.0868586
-0.0857401
-0.0846664
-0.0836365
-0.0826495
-0.0817044
-0.0808004
-0.0799367
-0.0791124
-0.0783268
-0.0775793
-0.076869
-0.0761953
-0.0755576
-0.0749554
-0.074388
-0.073855
-0.0733558
-0.0728899
-0.0724571
-0.0720567
-0.0716886
-0.0713523
-0.0710476
-0.0707741
-0.0705316
-0.0703199
-0.0701388
-0.0699881
-0.0698678
-0.0697776
-0.0697175
-0.0696875
-0.210865
-0.207134
-0.203133
-0.199105
-0.19508
-0.191077
-0.187119
-0.183225
-0.179402
-0.175656
-0.171989
-0.168403
-0.1649
-0.161479
-0.158142
-0.154887
-0.151715
-0.148626
-0.145617
-0.14269
-0.139842
-0.137072
-0.134381
-0.131765
-0.129224
-0.126758
-0.124364
-0.122042
-0.119789
-0.117606
-0.115489
-0.11344
-0.111454
-0.109533
-0.107673
-0.105874
-0.104135
-0.102453
-0.100829
-0.09926
-0.0977455
-0.0962841
-0.0948746
-0.0935159
-0.0922069
-0.0909464
-0.0897334
-0.0885668
-0.0874457
-0.0863691
-0.085336
-0.0843456
-0.083397
-0.0824893
-0.0816218
-0.0807937
-0.0800043
-0.0792528
-0.0785386
-0.0778611
-0.0772197
-0.0766137
-0.0760428
-0.0755062
-0.0750037
-0.0745346
-0.0740987
-0.0736955
-0.0733247
-0.0729859
-0.0726789
-0.0724033
-0.072159
-0.0719457
-0.0717632
-0.0716113
-0.07149
-0.0713991
-0.0713385
-0.0713083
-0.210523
-0.206914
-0.203036
-0.199125
-0.195209
-0.191307
-0.187444
-0.18364
-0.179903
-0.176238
-0.172648
-0.169136
-0.165703
-0.162348
-0.159073
-0.155878
-0.152762
-0.149724
-0.146765
-0.143883
-0.141077
-0.138347
-0.135692
-0.13311
-0.1306
-0.128162
-0.125794
-0.123496
-0.121265
-0.119101
-0.117002
-0.114968
-0.112997
-0.111088
-0.109239
-0.10745
-0.105719
-0.104044
-0.102426
-0.100862
-0.0993518
-0.0978936
-0.0964866
-0.0951296
-0.0938217
-0.0925617
-0.0913488
-0.0901818
-0.0890598
-0.087982
-0.0869474
-0.0859552
-0.0850045
-0.0840947
-0.0832248
-0.0823941
-0.0816021
-0.0808479
-0.080131
-0.0794508
-0.0788066
-0.078198
-0.0776243
-0.0770852
-0.0765801
-0.0761086
-0.0756704
-0.075265
-0.0748921
-0.0745514
-0.0742426
-0.0739654
-0.0737196
-0.0735049
-0.0733213
-0.0731685
-0.0730465
-0.072955
-0.072894
-0.0728636
-0.21008
-0.206584
-0.202823
-0.199024
-0.195212
-0.191408
-0.187638
-0.183921
-0.180267
-0.176682
-0.173168
-0.169728
-0.166364
-0.163075
-0.159862
-0.156725
-0.153664
-0.150679
-0.147769
-0.144933
-0.142171
-0.139481
-0.136863
-0.134316
-0.13184
-0.129432
-0.127091
-0.124818
-0.122611
-0.120468
-0.118389
-0.116373
-0.114418
-0.112523
-0.110687
-0.10891
-0.107189
-0.105524
-0.103914
-0.102357
-0.100852
-0.0993995
-0.0979968
-0.0966435
-0.0953386
-0.0940809
-0.0928697
-0.091704
-0.0905828
-0.0895054
-0.0884708
-0.0874783
-0.086527
-0.0856163
-0.0847454
-0.0839135
-0.0831201
-0.0823644
-0.0816459
-0.080964
-0.0803181
-0.0797076
-0.0791322
-0.0785913
-0.0780845
-0.0776113
-0.0771715
-0.0767645
-0.0763901
-0.076048
-0.0757379
-0.0754595
-0.0752126
-0.074997
-0.0748126
-0.0746591
-0.0745364
-0.0744445
-0.0743833
-0.0743527
-0.20954
-0.20615
-0.202501
-0.198809
-0.195097
-0.191388
-0.187707
-0.184076
-0.180503
-0.176995
-0.173555
-0.170186
-0.166889
-0.163665
-0.160514
-0.157435
-0.15443
-0.151497
-0.148636
-0.145847
-0.143129
-0.14048
-0.137901
-0.13539
-0.132947
-0.13057
-0.128259
-0.126013
-0.123831
-0.121712
-0.119654
-0.117657
-0.11572
-0.113841
-0.112021
-0.110257
-0.108548
-0.106894
-0.105294
-0.103746
-0.102249
-0.100803
-0.0994068
-0.0980588
-0.0967585
-0.0955049
-0.094297
-0.0931341
-0.0920153
-0.0909398
-0.0899067
-0.0889152
-0.0879647
-0.0870545
-0.0861837
-0.0853518
-0.0845582
-0.0838021
-0.083083
-0.0824004
-0.0817537
-0.0811424
-0.0805661
-0.0800243
-0.0795165
-0.0790423
-0.0786015
-0.0781935
-0.0778182
-0.0774752
-0.0771643
-0.0768851
-0.0766375
-0.0764213
-0.0762363
-0.0760823
-0.0759593
-0.0758671
-0.0758057
-0.075775
-0.208907
-0.205616
-0.202073
-0.198483
-0.194869
-0.191251
-0.187657
-0.184108
-0.180615
-0.177182
-0.173815
-0.170516
-0.167286
-0.164125
-0.161034
-0.158014
-0.155063
-0.152183
-0.149372
-0.14663
-0.143956
-0.141349
-0.138809
-0.136336
-0.133927
-0.131583
-0.129303
-0.127085
-0.124929
-0.122834
-0.120799
-0.118824
-0.116906
-0.115046
-0.113242
-0.111493
-0.109798
-0.108157
-0.106568
-0.105031
-0.103544
-0.102106
-0.100718
-0.0993767
-0.0980826
-0.0968345
-0.0956316
-0.094473
-0.093358
-0.0922857
-0.0912554
-0.0902664
-0.089318
-0.0884094
-0.08754
-0.0867092
-0.0859164
-0.085161
-0.0844424
-0.08376
-0.0831135
-0.0825022
-0.0819258
-0.0813837
-0.0808757
-0.0804012
-0.07996
-0.0795517
-0.079176
-0.0788326
-0.0785213
-0.0782417
-0.0779938
-0.0777772
-0.0775919
-0.0774377
-0.0773145
-0.0772222
-0.0771607
-0.0771299
-0.208183
-0.204985
-0.201542
-0.198051
-0.19453
-0.191001
-0.187492
-0.184024
-0.180607
-0.177249
-0.173953
-0.170722
-0.167557
-0.16446
-0.161429
-0.158466
-0.155571
-0.152742
-0.149981
-0.147286
-0.144656
-0.142092
-0.139593
-0.137157
-0.134784
-0.132474
-0.130225
-0.128037
-0.125908
-0.123839
-0.121829
-0.119876
-0.117979
-0.116138
-0.114352
-0.11262
-0.110941
-0.109314
-0.107739
-0.106213
-0.104737
-0.10331
-0.101931
-0.100598
-0.099312
-0.0980709
-0.0968743
-0.0957215
-0.0946115
-0.0935439
-0.0925177
-0.0915323
-0.0905871
-0.0896814
-0.0888145
-0.0879859
-0.087195
-0.0864412
-0.085724
-0.0850429
-0.0843973
-0.0837869
-0.0832111
-0.0826696
-0.082162
-0.0816879
-0.0812469
-0.0808388
-0.0804632
-0.0801199
-0.0798086
-0.0795291
-0.0792811
-0.0790646
-0.0788792
-0.078725
-0.0786017
-0.0785094
-0.0784478
-0.0784171
-0.207372
-0.204259
-0.200912
-0.197515
-0.194085
-0.190642
-0.187215
-0.183826
-0.180485
-0.177199
-0.173973
-0.17081
-0.167709
-0.164673
-0.161702
-0.158796
-0.155955
-0.153179
-0.150468
-0.14782
-0.145236
-0.142714
-0.140255
-0.137858
-0.135522
-0.133246
-0.131029
-0.128872
-0.126772
-0.124731
-0.122745
-0.120816
-0.118942
-0.117122
-0.115355
-0.113641
-0.111979
-0.110368
-0.108807
-0.107295
-0.105832
-0.104417
-0.103048
-0.101725
-0.100448
-0.0992152
-0.0980262
-0.0968803
-0.0957768
-0.094715
-0.0936941
-0.0927136
-0.0917727
-0.0908709
-0.0900076
-0.0891823
-0.0883942
-0.087643
-0.0869281
-0.086249
-0.0856053
-0.0849964
-0.0844221
-0.0838819
-0.0833754
-0.0829022
-0.0824621
-0.0820547
-0.0816797
-0.0813369
-0.081026
-0.0807469
-0.0804993
-0.080283
-0.0800978
-0.0799438
-0.0798207
-0.0797284
-0.0796669
-0.0796362
-0.206475
-0.20344
-0.200184
-0.196878
-0.193535
-0.190176
-0.18683
-0.183518
-0.180251
-0.177037
-0.17388
-0.170782
-0.167745
-0.164771
-0.161859
-0.159009
-0.156223
-0.153498
-0.150836
-0.148236
-0.145697
-0.143219
-0.140801
-0.138443
-0.136143
-0.133903
-0.13172
-0.129594
-0.127524
-0.125511
-0.123552
-0.121648
-0.119797
-0.117999
-0.116253
-0.114559
-0.112915
-0.111321
-0.109776
-0.108279
-0.106829
-0.105427
-0.10407
-0.102759
-0.101492
-0.100268
-0.0990884
-0.0979507
-0.0968547
-0.0957999
-0.0947854
-0.0938108
-0.0928754
-0.0919786
-0.0911199
-0.0902987
-0.0895144
-0.0887667
-0.0880549
-0.0873787
-0.0867376
-0.0861311
-0.0855589
-0.0850206
-0.0845158
-0.0840442
-0.0836054
-0.0831992
-0.0828253
-0.0824835
-0.0821735
-0.0818951
-0.0816481
-0.0814323
-0.0812476
-0.0810939
-0.0809711
-0.0808791
-0.0808177
-0.0807871
-0.205493
-0.202528
-0.199359
-0.196142
-0.192884
-0.189607
-0.18634
-0.183104
-0.17991
-0.176766
-0.173676
-0.170644
-0.16767
-0.164756
-0.161902
-0.159109
-0.156376
-0.153704
-0.151091
-0.148538
-0.146045
-0.14361
-0.141234
-0.138915
-0.136653
-0.134448
-0.132299
-0.130206
-0.128167
-0.126182
-0.124251
-0.122373
-0.120547
-0.118772
-0.117048
-0.115375
-0.11375
-0.112174
-0.110646
-0.109165
-0.107731
-0.106342
-0.104999
-0.1037
-0.102444
-0.101232
-0.100062
-0.0989336
-0.0978463
-0.0967995
-0.0957925
-0.0948249
-0.0938959
-0.093005
-0.0921518
-0.0913357
-0.0905561
-0.0898127
-0.0891049
-0.0884323
-0.0877945
-0.0871911
-0.0866217
-0.0860859
-0.0855834
-0.0851139
-0.084677
-0.0842726
-0.0839002
-0.0835598
-0.083251
-0.0829736
-0.0827275
-0.0825126
-0.0823286
-0.0821754
-0.082053
-0.0819613
-0.0819002
-0.0818696
-0.204428
-0.201523
-0.198438
-0.195307
-0.192133
-0.188938
-0.185749
-0.182587
-0.179464
-0.176389
-0.173366
-0.170398
-0.167487
-0.164633
-0.161837
-0.159099
-0.15642
-0.153799
-0.151236
-0.14873
-0.146282
-0.143891
-0.141557
-0.139278
-0.137054
-0.134886
-0.132772
-0.130711
-0.128704
-0.126749
-0.124847
-0.122995
-0.121195
-0.119444
-0.117743
-0.116091
-0.114487
-0.11293
-0.111421
-0.109957
-0.108539
-0.107165
-0.105836
-0.104551
-0.103308
-0.102107
-0.100948
-0.0998301
-0.0987526
-0.0977148
-0.0967163
-0.0957566
-0.0948349
-0.0939509
-0.0931041
-0.0922939
-0.0915198
-0.0907815
-0.0900784
-0.0894102
-0.0887764
-0.0881768
-0.0876108
-0.0870781
-0.0865785
-0.0861116
-0.0856772
-0.0852749
-0.0849045
-0.0845658
-0.0842585
-0.0839826
-0.0837377
-0.0835238
-0.0833407
-0.0831882
-0.0830664
-0.0829751
-0.0829143
-0.0828839
-0.203283
-0.200422
-0.197418
-0.194376
-0.191286
-0.188171
-0.185059
-0.18197
-0.178919
-0.175912
-0.172954
-0.17005
-0.167199
-0.164404
-0.161666
-0.158983
-0.156357
-0.153787
-0.151274
-0.148816
-0.146414
-0.144066
-0.141774
-0.139535
-0.13735
-0.135219
-0.13314
-0.131113
-0.129138
-0.127214
-0.12534
-0.123517
-0.121742
-0.120017
-0.11834
-0.11671
-0.115128
-0.113592
-0.112101
-0.110655
-0.109254
-0.107897
-0.106583
-0.105312
-0.104083
-0.102895
-0.101748
-0.100642
-0.0995747
-0.098547
-0.0975578
-0.0966069
-0.0956935
-0.0948172
-0.0939775
-0.093174
-0.0924063
-0.0916738
-0.0909761
-0.090313
-0.0896839
-0.0890885
-0.0885266
-0.0879976
-0.0875014
-0.0870377
-0.086606
-0.0862064
-0.0858383
-0.0855017
-0.0851964
-0.0849221
-0.0846787
-0.0844661
-0.0842841
-0.0841326
-0.0840115
-0.0839207
-0.0838602
-0.08383
-0.202061
-0.199219
-0.196301
-0.193352
-0.190347
-0.18731
-0.184273
-0.181258
-0.178276
-0.175336
-0.172443
-0.169601
-0.166811
-0.164075
-0.161393
-0.158765
-0.156192
-0.153673
-0.151209
-0.148798
-0.146442
-0.144138
-0.141888
-0.13969
-0.137544
-0.135449
-0.133406
-0.131414
-0.129471
-0.127579
-0.125735
-0.12394
-0.122193
-0.120494
-0.118841
-0.117235
-0.115675
-0.11416
-0.112689
-0.111263
-0.10988
-0.10854
-0.107242
-0.105986
-0.104772
-0.103598
-0.102464
-0.101369
-0.100314
-0.099297
-0.0983181
-0.0973768
-0.0964724
-0.0956046
-0.0947729
-0.0939769
-0.0932161
-0.0924902
-0.0917986
-0.0911412
-0.0905174
-0.089927
-0.0893696
-0.0888449
-0.0883526
-0.0878924
-0.0874641
-0.0870674
-0.0867021
-0.086368
-0.0860649
-0.0857926
-0.0855509
-0.0853398
-0.0851591
-0.0850086
-0.0848883
-0.0847982
-0.0847381
-0.0847081
-0.20075
-0.197903
-0.195093
-0.192244
-0.189321
-0.18636
-0.183397
-0.180453
-0.17754
-0.174666
-0.171837
-0.169057
-0.166327
-0.163648
-0.161022
-0.158448
-0.155927
-0.153459
-0.151044
-0.148681
-0.14637
-0.14411
-0.141902
-0.139745
-0.137638
-0.135581
-0.133574
-0.131617
-0.129707
-0.127847
-0.126033
-0.124268
-0.122549
-0.120876
-0.119249
-0.117667
-0.11613
-0.114637
-0.113187
-0.111781
-0.110417
-0.109095
-0.107814
-0.106575
-0.105375
-0.104216
-0.103096
-0.102014
-0.100971
-0.0999661
-0.0989983
-0.0980673
-0.0971728
-0.0963142
-0.0954912
-0.0947034
-0.0939502
-0.0932315
-0.0925467
-0.0918955
-0.0912776
-0.0906927
-0.0901404
-0.0896204
-0.0891325
-0.0886763
-0.0882517
-0.0878585
-0.0874963
-0.087165
-0.0868644
-0.0865943
-0.0863546
-0.0861452
-0.0859659
-0.0858167
-0.0856974
-0.0856079
-0.0855483
-0.0855186
-0.199301
-0.196496
-0.193826
-0.191063
-0.188212
-0.185325
-0.182435
-0.17956
-0.176714
-0.173905
-0.171139
-0.168419
-0.165748
-0.163126
-0.160555
-0.158036
-0.155567
-0.153149
-0.150782
-0.148466
-0.146201
-0.143985
-0.14182
-0.139703
-0.137636
-0.135617
-0.133647
-0.131724
-0.129849
-0.12802
-0.126238
-0.124502
-0.122812
-0.121166
-0.119565
-0.118008
-0.116495
-0.115025
-0.113597
-0.112211
-0.110867
-0.109564
-0.108301
-0.107079
-0.105896
-0.104751
-0.103646
-0.102578
-0.101548
-0.100556
-0.0995995
-0.0986797
-0.0977956
-0.096947
-0.0961334
-0.0953543
-0.0946095
-0.0938985
-0.0932211
-0.0925767
-0.0919653
-0.0913863
-0.0908396
-0.0903248
-0.0898417
-0.08939
-0.0889695
-0.08858
-0.0882213
-0.0878931
-0.0875953
-0.0873277
-0.0870902
-0.0868827
-0.0867051
-0.0865571
-0.0864389
-0.0863503
-0.0862913
-0.0862618
-0.197719
-0.195108
-0.192519
-0.189812
-0.187027
-0.18421
-0.18139
-0.178583
-0.175802
-0.173056
-0.170351
-0.167691
-0.165078
-0.162513
-0.159997
-0.15753
-0.155113
-0.152745
-0.150427
-0.148158
-0.145938
-0.143767
-0.141643
-0.139568
-0.137541
-0.13556
-0.133626
-0.131739
-0.129898
-0.128102
-0.126352
-0.124646
-0.122985
-0.121367
-0.119793
-0.118262
-0.116773
-0.115326
-0.113921
-0.112556
-0.111233
-0.109949
-0.108705
-0.1075
-0.106334
-0.105206
-0.104115
-0.103062
-0.102046
-0.101067
-0.100123
-0.099215
-0.0983421
-0.097504
-0.0967004
-0.0959307
-0.0951948
-0.0944922
-0.0938226
-0.0931857
-0.0925811
-0.0920087
-0.091468
-0.0909588
-0.090481
-0.0900341
-0.0896181
-0.0892327
-0.0888777
-0.0885529
-0.0882581
-0.0879933
-0.0877583
-0.0875528
-0.087377
-0.0872306
-0.0871135
-0.0870258
-0.0869673
-0.0869381
-0.196158
-0.193694
-0.191136
-0.188487
-0.185768
-0.183021
-0.180267
-0.177525
-0.174807
-0.172122
-0.169478
-0.166876
-0.16432
-0.16181
-0.159349
-0.156935
-0.154569
-0.152251
-0.149981
-0.147759
-0.145584
-0.143457
-0.141376
-0.139342
-0.137354
-0.135412
-0.133516
-0.131664
-0.129857
-0.128095
-0.126377
-0.124702
-0.12307
-0.121481
-0.119934
-0.118429
-0.116965
-0.115542
-0.11416
-0.112818
-0.111515
-0.110252
-0.109027
-0.10784
-0.106692
-0.10558
-0.104506
-0.103468
-0.102467
-0.101501
-0.10057
-0.0996745
-0.0988134
-0.0979864
-0.0971933
-0.0964337
-0.0957072
-0.0950135
-0.0943523
-0.0937232
-0.0931261
-0.0925605
-0.0920263
-0.0915232
-0.091051
-0.0906094
-0.0901981
-0.0898171
-0.0894662
-0.089145
-0.0888536
-0.0885917
-0.0883593
-0.0881562
-0.0879822
-0.0878374
-0.0877217
-0.0876349
-0.087577
-0.0875482
-0.194577
-0.192196
-0.189682
-0.187091
-0.18444
-0.181758
-0.179066
-0.176387
-0.17373
-0.171106
-0.16852
-0.165976
-0.163476
-0.161022
-0.158613
-0.156252
-0.153936
-0.151668
-0.149446
-0.147271
-0.145141
-0.143058
-0.14102
-0.139027
-0.137079
-0.135176
-0.133317
-0.131502
-0.12973
-0.128001
-0.126315
-0.124671
-0.123069
-0.121509
-0.11999
-0.118512
-0.117074
-0.115675
-0.114317
-0.112997
-0.111716
-0.110474
-0.109269
-0.108101
-0.106971
-0.105877
-0.104819
-0.103797
-0.102811
-0.101859
-0.100942
-0.100059
-0.0992106
-0.0983954
-0.0976134
-0.0968643
-0.0961477
-0.0954634
-0.094811
-0.0941903
-0.093601
-0.0930428
-0.0925155
-0.0920188
-0.0915525
-0.0911165
-0.0907104
-0.0903341
-0.0899874
-0.0896702
-0.0893824
-0.0891237
-0.088894
-0.0886933
-0.0885215
-0.0883784
-0.088264
-0.0881782
-0.0881211
-0.0880925
-0.19293
-0.190617
-0.188153
-0.185623
-0.183036
-0.180417
-0.177789
-0.17517
-0.172574
-0.170008
-0.167481
-0.164994
-0.162549
-0.160149
-0.157794
-0.155484
-0.153219
-0.151
-0.148826
-0.146697
-0.144613
-0.142573
-0.140578
-0.138627
-0.136719
-0.134854
-0.133033
-0.131254
-0.129517
-0.127822
-0.126169
-0.124557
-0.122986
-0.121455
-0.119964
-0.118513
-0.117101
-0.115728
-0.114393
-0.113097
-0.111838
-0.110617
-0.109433
-0.108285
-0.107173
-0.106097
-0.105056
-0.104051
-0.10308
-0.102143
-0.10124
-0.100371
-0.0995352
-0.0987321
-0.0979617
-0.0972236
-0.0965174
-0.0958429
-0.0951999
-0.0945879
-0.0940069
-0.0934564
-0.0929364
-0.0924465
-0.0919865
-0.0915563
-0.0911556
-0.0907844
-0.0904423
-0.0901292
-0.0898451
-0.0895898
-0.0893631
-0.089165
-0.0889953
-0.0888541
-0.0887412
-0.0886565
-0.0886001
-0.0885719
-0.191207
-0.188961
-0.186552
-0.184081
-0.181556
-0.178999
-0.176432
-0.173875
-0.171338
-0.168832
-0.166361
-0.16393
-0.161541
-0.159194
-0.156891
-0.154633
-0.152418
-0.150248
-0.148122
-0.146039
-0.144001
-0.142005
-0.140052
-0.138143
-0.136275
-0.13445
-0.132666
-0.130923
-0.129222
-0.127561
-0.125941
-0.124361
-0.122821
-0.12132
-0.119857
-0.118434
-0.117049
-0.115701
-0.114391
-0.113119
-0.111883
-0.110683
-0.10952
-0.108392
-0.1073
-0.106242
-0.105219
-0.10423
-0.103275
-0.102354
-0.101466
-0.100611
-0.0997883
-0.0989979
-0.0982395
-0.0975128
-0.0968175
-0.0961533
-0.0955199
-0.0949171
-0.0943447
-0.0938024
-0.0932899
-0.0928071
-0.0923538
-0.0919298
-0.0915348
-0.0911688
-0.0908315
-0.0905229
-0.0902427
-0.0899909
-0.0897674
-0.089572
-0.0894047
-0.0892654
-0.089154
-0.0890705
-0.0890149
-0.0889871
-0.189414
-0.187232
-0.184878
-0.182466
-0.180002
-0.177506
-0.175
-0.172502
-0.170024
-0.167576
-0.165162
-0.162787
-0.160452
-0.158159
-0.155909
-0.153701
-0.151537
-0.149415
-0.147337
-0.145301
-0.143307
-0.141355
-0.139446
-0.137577
-0.13575
-0.133964
-0.132218
-0.130512
-0.128847
-0.127221
-0.125634
-0.124086
-0.122577
-0.121106
-0.119673
-0.118277
-0.116919
-0.115598
-0.114313
-0.113064
-0.111852
-0.110675
-0.109532
-0.108425
-0.107352
-0.106314
-0.105309
-0.104337
-0.103399
-0.102494
-0.101621
-0.10078
-0.0999713
-0.099194
-0.0984481
-0.0977333
-0.0970492
-0.0963956
-0.0957723
-0.0951791
-0.0946156
-0.0940817
-0.0935772
-0.0931018
-0.0926554
-0.0922378
-0.0918488
-0.0914883
-0.091156
-0.090852
-0.090576
-0.0903279
-0.0901077
-0.0899151
-0.0897503
-0.089613
-0.0895032
-0.089421
-0.0893661
-0.0893387
-0.187552
-0.185431
-0.183132
-0.180778
-0.178374
-0.175938
-0.173492
-0.171053
-0.168634
-0.166244
-0.163886
-0.161566
-0.159286
-0.157046
-0.154848
-0.152692
-0.150577
-0.148504
-0.146473
-0.144483
-0.142535
-0.140627
-0.13876
-0.136933
-0.135147
-0.1334
-0.131692
-0.130023
-0.128394
-0.126802
-0.125249
-0.123734
-0.122256
-0.120816
-0.119412
-0.118045
-0.116714
-0.115419
-0.11416
-0.112936
-0.111747
-0.110592
-0.109472
-0.108386
-0.107333
-0.106314
-0.105328
-0.104374
-0.103453
-0.102563
-0.101706
-0.10088
-0.100086
-0.0993218
-0.0985888
-0.0978862
-0.0972137
-0.0965711
-0.0959583
-0.0953749
-0.0948207
-0.0942956
-0.0937992
-0.0933316
-0.0928924
-0.0924814
-0.0920986
-0.0917438
-0.0914168
-0.0911176
-0.0908459
-0.0906017
-0.0903849
-0.0901953
-0.090033
-0.0898979
-0.0897898
-0.0897088
-0.0896548
-0.0896278
-0.185622
-0.183558
-0.181314
-0.179017
-0.176673
-0.174296
-0.17191
-0.16953
-0.16717
-0.164836
-0.162535
-0.16027
-0.158044
-0.155857
-0.153711
-0.151605
-0.14954
-0.147516
-0.145532
-0.143589
-0.141685
-0.139822
-0.137998
-0.136213
-0.134467
-0.132759
-0.13109
-0.129458
-0.127865
-0.126308
-0.124789
-0.123307
-0.121861
-0.120451
-0.119077
-0.117739
-0.116436
-0.115168
-0.113934
-0.112735
-0.11157
-0.110439
-0.109341
-0.108276
-0.107244
-0.106244
-0.105277
-0.104341
-0.103437
-0.102565
-0.101723
-0.100913
-0.100133
-0.0993827
-0.0986628
-0.0979728
-0.0973123
-0.0966811
-0.0960789
-0.0955057
-0.0949611
-0.094445
-0.0939572
-0.0934975
-0.0930657
-0.0926617
-0.0922853
-0.0919364
-0.0916149
-0.0913206
-0.0910534
-0.0908132
-0.0905999
-0.0904135
-0.0902538
-0.0901209
-0.0900146
-0.0899349
-0.0898818
-0.0898552
-0.183623
-0.181615
-0.179425
-0.177185
-0.174899
-0.172582
-0.170255
-0.167934
-0.165631
-0.163355
-0.16111
-0.1589
-0.156727
-0.154594
-0.152499
-0.150444
-0.148429
-0.146453
-0.144517
-0.14262
-0.140762
-0.138942
-0.137161
-0.135418
-0.133712
-0.132044
-0.130414
-0.12882
-0.127262
-0.125741
-0.124256
-0.122807
-0.121393
-0.120014
-0.11867
-0.117361
-0.116086
-0.114845
-0.113638
-0.112464
-0.111323
-0.110215
-0.10914
-0.108096
-0.107085
-0.106106
-0.105158
-0.104241
-0.103355
-0.102499
-0.101674
-0.100879
-0.100114
-0.0993779
-0.0986716
-0.0979945
-0.0973462
-0.0967267
-0.0961356
-0.0955728
-0.0950381
-0.0945313
-0.0940522
-0.0936007
-0.0931766
-0.0927797
-0.0924099
-0.0920672
-0.0917512
-0.091462
-0.0911995
-0.0909634
-0.0907538
-0.0905706
-0.0904137
-0.090283
-0.0901785
-0.0901002
-0.090048
-0.0900219
-0.181556
-0.179603
-0.177466
-0.175283
-0.173055
-0.170796
-0.168528
-0.166266
-0.164021
-0.161801
-0.159612
-0.157457
-0.155339
-0.153258
-0.151215
-0.149211
-0.147245
-0.145318
-0.143429
-0.141579
-0.139766
-0.13799
-0.136252
-0.134551
-0.132886
-0.131258
-0.129666
-0.128109
-0.126588
-0.125103
-0.123652
-0.122236
-0.120854
-0.119507
-0.118193
-0.116913
-0.115667
-0.114453
-0.113272
-0.112124
-0.111008
-0.109924
-0.108871
-0.10785
-0.10686
-0.105901
-0.104972
-0.104074
-0.103206
-0.102368
-0.101559
-0.10078
-0.10003
-0.0993091
-0.0986166
-0.0979526
-0.0973169
-0.0967093
-0.0961295
-0.0955774
-0.0950528
-0.0945556
-0.0940855
-0.0936424
-0.0932261
-0.0928366
-0.0924736
-0.0921371
-0.091827
-0.091543
-0.0912852
-0.0910535
-0.0908477
-0.0906677
-0.0905136
-0.0903853
-0.0902827
-0.0902058
-0.0901545
-0.0901289
-0.179421
-0.177521
-0.175438
-0.17331
-0.17114
-0.16894
-0.166731
-0.164527
-0.16234
-0.160177
-0.158044
-0.155944
-0.153879
-0.151851
-0.14986
-0.147907
-0.145991
-0.144112
-0.142271
-0.140467
-0.138699
-0.136968
-0.135273
-0.133614
-0.13199
-0.130402
-0.128848
-0.127329
-0.125845
-0.124395
-0.122979
-0.121596
-0.120247
-0.118931
-0.117648
-0.116398
-0.11518
-0.113994
-0.11284
-0.111717
-0.110626
-0.109566
-0.108537
-0.107538
-0.106569
-0.105631
-0.104722
-0.103843
-0.102994
-0.102173
-0.101381
-0.100618
-0.0998839
-0.0991775
-0.0984992
-0.0978486
-0.0972257
-0.0966303
-0.096062
-0.0955209
-0.0950066
-0.0945191
-0.0940582
-0.0936237
-0.0932155
-0.0928335
-0.0924775
-0.0921475
-0.0918432
-0.0915647
-0.0913118
-0.0910844
-0.0908825
-0.0907059
-0.0905547
-0.0904288
-0.0903281
-0.0902526
-0.0902023
-0.0901772
-0.177219
-0.175371
-0.173341
-0.171269
-0.169157
-0.167015
-0.164864
-0.162719
-0.160589
-0.158484
-0.156407
-0.154362
-0.152351
-0.150376
-0.148437
-0.146535
-0.144668
-0.142838
-0.141045
-0.139287
-0.137565
-0.135878
-0.134226
-0.132609
-0.131026
-0.129478
-0.127963
-0.126482
-0.125035
-0.123621
-0.122239
-0.12089
-0.119574
-0.11829
-0.117037
-0.115817
-0.114628
-0.11347
-0.112342
-0.111246
-0.11018
-0.109144
-0.108138
-0.107162
-0.106215
-0.105298
-0.104409
-0.10355
-0.102719
-0.101916
-0.101142
-0.100395
-0.0996761
-0.0989847
-0.0983207
-0.0976839
-0.097074
-0.0964909
-0.0959345
-0.0954045
-0.0949008
-0.0944232
-0.0939717
-0.093546
-0.093146
-0.0927717
-0.0924228
-0.0920993
-0.0918011
-0.0915281
-0.0912802
-0.0910573
-0.0908594
-0.0906863
-0.0905381
-0.0904146
-0.0903159
-0.0902419
-0.0901926
-0.0901679
-0.174949
-0.173153
-0.171176
-0.16916
-0.167105
-0.165023
-0.16293
-0.160843
-0.158772
-0.156723
-0.154702
-0.152713
-0.150756
-0.148834
-0.146947
-0.145096
-0.143279
-0.141498
-0.139752
-0.138041
-0.136364
-0.134722
-0.133113
-0.131538
-0.129997
-0.128488
-0.127013
-0.12557
-0.12416
-0.122781
-0.121435
-0.12012
-0.118836
-0.117584
-0.116363
-0.115172
-0.114012
-0.112882
-0.111782
-0.110712
-0.109671
-0.10866
-0.107677
-0.106724
-0.105799
-0.104903
-0.104035
-0.103195
-0.102383
-0.101598
-0.100841
-0.100111
-0.0994083
-0.0987322
-0.0980828
-0.0974598
-0.0968632
-0.0962927
-0.0957482
-0.0952296
-0.0947366
-0.0942692
-0.0938272
-0.0934104
-0.0930189
-0.0926523
-0.0923107
-0.091994
-0.0917019
-0.0914346
-0.0911918
-0.0909734
-0.0907796
-0.09061
-0.0904648
-0.0903439
-0.0902472
-0.0901747
-0.0901264
-0.0901022
-0.172614
-0.170869
-0.168946
-0.166985
-0.164988
-0.162964
-0.16093
-0.158902
-0.156889
-0.154897
-0.152933
-0.150998
-0.149096
-0.147228
-0.145393
-0.143592
-0.141826
-0.140094
-0.138395
-0.136731
-0.1351
-0.133502
-0.131937
-0.130404
-0.128904
-0.127436
-0.126
-0.124595
-0.123221
-0.121879
-0.120568
-0.119287
-0.118036
-0.116816
-0.115626
-0.114465
-0.113334
-0.112233
-0.11116
-0.110116
-0.109101
-0.108115
-0.107156
-0.106226
-0.105323
-0.104449
-0.103601
-0.102781
-0.101988
-0.101222
-0.100482
-0.0997689
-0.0990821
-0.0984215
-0.0977868
-0.0971779
-0.0965947
-0.096037
-0.0955047
-0.0949975
-0.0945155
-0.0940583
-0.093626
-0.0932184
-0.0928353
-0.0924767
-0.0921425
-0.0918326
-0.0915469
-0.0912852
-0.0910476
-0.090834
-0.0906442
-0.0904783
-0.0903362
-0.0902178
-0.0901231
-0.0900522
-0.0900049
-0.0899812
-0.170214
-0.16852
-0.16665
-0.164745
-0.162805
-0.16084
-0.158866
-0.156897
-0.154942
-0.153008
-0.1511
-0.149221
-0.147374
-0.145558
-0.143776
-0.142026
-0.14031
-0.138627
-0.136977
-0.135359
-0.133774
-0.13222
-0.130699
-0.129209
-0.12775
-0.126322
-0.124925
-0.123559
-0.122222
-0.120916
-0.11964
-0.118393
-0.117176
-0.115988
-0.114829
-0.113699
-0.112597
-0.111524
-0.110479
-0.109462
-0.108472
-0.107511
-0.106576
-0.105669
-0.104789
-0.103936
-0.103109
-0.102309
-0.101535
-0.100787
-0.100066
-0.0993695
-0.0986991
-0.098054
-0.0974343
-0.0968397
-0.0962701
-0.0957253
-0.0952052
-0.0947098
-0.0942387
-0.093792
-0.0933695
-0.0929711
-0.0925967
-0.0922462
-0.0919195
-0.0916165
-0.0913371
-0.0910813
-0.090849
-0.0906401
-0.0904545
-0.0902923
-0.0901533
-0.0900375
-0.0899449
-0.0898755
-0.0898292
-0.0898061
-0.167749
-0.166107
-0.16429
-0.162441
-0.16056
-0.158654
-0.156739
-0.154829
-0.152933
-0.151056
-0.149206
-0.147383
-0.14559
-0.143828
-0.142098
-0.1404
-0.138735
-0.137101
-0.135498
-0.133928
-0.132388
-0.130879
-0.129402
-0.127954
-0.126537
-0.12515
-0.123792
-0.122464
-0.121165
-0.119895
-0.118654
-0.117442
-0.116258
-0.115102
-0.113974
-0.112875
-0.111802
-0.110758
-0.10974
-0.10875
-0.107787
-0.10685
-0.10594
-0.105056
-0.104198
-0.103367
-0.102561
-0.101781
-0.101027
-0.100298
-0.0995936
-0.0989147
-0.0982607
-0.0976314
-0.0970268
-0.0964466
-0.0958907
-0.095359
-0.0948514
-0.0943677
-0.0939078
-0.0934717
-0.0930591
-0.0926701
-0.0923044
-0.0919621
-0.091643
-0.091347
-0.0910741
-0.0908241
-0.0905972
-0.090393
-0.0902117
-0.0900532
-0.0899174
-0.0898043
-0.0897138
-0.089646
-0.0896008
-0.0895782
-0.165222
-0.163631
-0.161868
-0.160076
-0.158253
-0.156407
-0.154552
-0.152701
-0.150864
-0.149046
-0.147252
-0.145485
-0.143748
-0.14204
-0.140363
-0.138716
-0.137101
-0.135516
-0.133962
-0.132439
-0.130945
-0.129481
-0.128047
-0.126643
-0.125267
-0.12392
-0.122602
-0.121312
-0.120051
-0.118817
-0.117612
-0.116434
-0.115283
-0.11416
-0.113064
-0.111994
-0.110952
-0.109936
-0.108946
-0.107983
-0.107045
-0.106134
-0.105248
-0.104388
-0.103553
-0.102743
-0.101959
-0.101199
-0.100464
-0.0997535
-0.0990676
-0.098406
-0.0977686
-0.0971553
-0.0965658
-0.0960001
-0.0954581
-0.0949396
-0.0944445
-0.0939727
-0.0935241
-0.0930986
-0.0926961
-0.0923165
-0.0919597
-0.0916256
-0.0913142
-0.0910253
-0.0907589
-0.090515
-0.0902934
-0.0900941
-0.0899171
-0.0897624
-0.0896298
-0.0895193
-0.089431
-0.0893648
-0.0893206
-0.0892986
-0.162634
-0.161094
-0.159386
-0.157651
-0.155887
-0.1541
-0.152306
-0.150515
-0.148737
-0.146977
-0.145241
-0.143531
-0.141849
-0.140195
-0.138571
-0.136977