/*--------------------------------*- C++ -*----------------------------------*\
  =========                 |
  \\      /  F ield         | OpenFOAM: The Open Source CFD Toolbox
   \\    /   O peration     | Website:  https://openfoam.org
    \\  /    A nd           | Version:  7
     \\/     M anipulation  |
\*---------------------------------------------------------------------------*/
FoamFile
{
    version     2.0;
    format      ascii;
    class       surfaceScalarField;
    location    "54.999";
    object      phi;
}
// * * * * * * * * * * * * * * * * * * * * * * * * * * * * * * * * * * * * * //

dimensions      [0 3 -1 0 0 0 0];

internalField   nonuniform List<scalar> 
22580
(
0.000239169
0.00569936
0.000230079
0.00569318
0.000221046
0.00568724
0.000212068
0.00568153
0.000203143
0.00567605
0.00019427
0.0056708
0.000185448
0.00566577
0.000176674
0.00566098
0.000167947
0.00565641
0.000159265
0.00565207
0.000150626
0.00564795
0.000142028
0.00564405
0.000133469
0.00564038
0.000124947
0.00563693
0.000116459
0.0056337
0.000108004
0.00563068
9.95792e-05
0.00562789
9.11823e-05
0.00562531
8.28111e-05
0.00562295
7.44634e-05
0.0056208
6.61368e-05
0.00561888
5.78289e-05
0.00561716
4.95373e-05
0.00561566
4.12594e-05
0.00561438
3.29928e-05
0.00561331
2.47352e-05
0.00561246
1.6485e-05
0.00561182
8.24068e-06
0.0056114
0.0056112
0.000584518
0.00592656
-0.000551713
0.000608051
0.00608016
0.00062259
0.00617489
0.000629729
0.0062257
0.00063161
0.00624742
0.0006301
0.0062516
0.000626491
0.00624587
0.000621575
0.00623478
0.000615808
0.00622089
0.000609442
0.00620553
0.000602613
0.00618937
0.000595393
0.00617275
0.000587827
0.00615585
0.000579948
0.00613884
0.000571792
0.00612185
0.000563393
0.00610501
0.000554789
0.00608847
0.000546013
0.0060723
0.000537095
0.00605655
0.000528057
0.00604125
0.000518918
0.00602638
0.000509691
0.00601191
0.000500387
0.00599782
0.000491018
0.00598406
0.000481591
0.00597062
0.000472118
0.00595748
0.000462606
0.00594462
0.000453066
0.00593203
0.000443506
0.00591972
0.000433935
0.00590768
0.00042436
0.00589591
0.00041479
0.0058844
0.000405229
0.00587315
0.000395686
0.00586217
0.000386164
0.00585145
0.000376668
0.00584099
0.000367204
0.0058308
0.000357774
0.00582086
0.000348383
0.00581118
0.000339032
0.00580176
0.000329724
0.00579259
0.000320462
0.00578368
0.000311247
0.00577502
0.000302081
0.0057666
0.000292963
0.00575844
0.000283896
0.00575052
0.00027488
0.00574285
0.000265914
0.00573542
0.000257
0.00572824
0.000248136
0.0057213
0.000239323
0.00571459
0.00023056
0.00570813
0.000221846
0.0057019
0.00021318
0.0056959
0.000204562
0.00569015
0.000195991
0.00568462
0.000187465
0.00567932
0.000178982
0.00567426
0.000170542
0.00566942
0.000162143
0.00566481
0.000153784
0.00566043
0.000145462
0.00565627
0.000137176
0.00565234
0.000128925
0.00564863
0.000120707
0.00564515
0.000112519
0.00564188
0.00010436
0.00563884
9.62278e-05
0.00563602
8.81206e-05
0.00563342
8.00364e-05
0.00563103
7.19732e-05
0.00562887
6.39287e-05
0.00562692
5.5901e-05
0.00562519
4.78879e-05
0.00562368
3.9887e-05
0.00562238
3.18963e-05
0.0056213
2.39138e-05
0.00562044
1.59379e-05
0.0056198
7.96735e-06
0.00561938
0.00561917
0.000540338
0.00589375
-0.000507524
0.000564516
0.00605598
0.000580231
0.00615917
0.000588759
0.00621717
0.000591971
0.00624421
0.000591628
0.00625194
0.000589036
0.00624846
0.000585037
0.00623878
0.00058013
0.0062258
0.000574595
0.00621106
0.000568585
0.00619538
0.000562182
0.00617915
0.000555435
0.0061626
0.000548376
0.0061459
0.000541038
0.00612918
0.000533454
0.0061126
0.000525659
0.00609626
0.000517683
0.00608027
0.000509554
0.00606468
0.000501295
0.00604951
0.000492924
0.00603475
0.000484452
0.00602038
0.000475892
0.00600638
0.000467254
0.0059927
0.000458545
0.00597933
0.000449776
0.00596624
0.000440955
0.00595344
0.000432091
0.0059409
0.000423194
0.00592862
0.00041427
0.0059166
0.000405328
0.00590485
0.000396376
0.00589335
0.00038742
0.00588211
0.000378466
0.00587112
0.000369519
0.0058604
0.000360586
0.00584993
0.000351669
0.00583972
0.000342775
0.00582976
0.000333905
0.00582005
0.000325063
0.0058106
0.000316253
0.0058014
0.000307475
0.00579246
0.000298734
0.00578376
0.000290029
0.00577531
0.000281363
0.00576711
0.000272736
0.00575915
0.00026415
0.00575144
0.000255606
0.00574397
0.000247103
0.00573674
0.000238642
0.00572976
0.000230222
0.00572301
0.000221844
0.00571651
0.000213508
0.00571024
0.000205212
0.0057042
0.000196957
0.0056984
0.000188741
0.00569283
0.000180564
0.0056875
0.000172424
0.0056824
0.000164321
0.00567752
0.000156254
0.00567288
0.00014822
0.00566846
0.00014022
0.00566427
0.00013225
0.00566031
0.000124311
0.00565657
0.0001164
0.00565306
0.000108516
0.00564977
0.000100658
0.0056467
9.28227e-05
0.00564385
8.50097e-05
0.00564123
7.72168e-05
0.00563883
6.94424e-05
0.00563664
6.16846e-05
0.00563468
5.39416e-05
0.00563293
4.62114e-05
0.00563141
3.8492e-05
0.0056301
3.07817e-05
0.00562901
2.30788e-05
0.00562814
1.53819e-05
0.0056275
7.68955e-06
0.00562707
0.00562686
0.000497685
0.00586115
-0.000465084
0.000522299
0.00603136
0.000538975
0.0061425
0.000548728
0.00620742
0.000553176
0.00623977
0.000553953
0.00625116
0.000552352
0.00625006
0.000549244
0.00624189
0.000545166
0.00622988
0.000540428
0.0062158
0.000535199
0.00620061
0.000529574
0.00618477
0.000523603
0.00616857
0.000517322
0.00615218
0.000510761
0.00613574
0.000503952
0.00611941
0.000496926
0.00610329
0.000489713
0.00608749
0.000482339
0.00607206
0.000474825
0.00605702
0.000467188
0.00604239
0.000459441
0.00602813
0.000451595
0.00601422
0.00044366
0.00600063
0.000435643
0.00598734
0.000427554
0.00597433
0.000419402
0.00596159
0.000411194
0.00594911
0.000402939
0.00593688
0.000394645
0.0059249
0.00038632
0.00591317
0.000377972
0.0059017
0.000369606
0.00589047
0.000361229
0.0058795
0.000352848
0.00586878
0.000344466
0.00585831
0.000336089
0.00584809
0.000327721
0.00583812
0.000319367
0.00582841
0.000311028
0.00581894
0.000302709
0.00580972
0.000294413
0.00580075
0.00028614
0.00579203
0.000277895
0.00578355
0.000269677
0.00577532
0.00026149
0.00576734
0.000253333
0.00575959
0.000245208
0.00575209
0.000237116
0.00574484
0.000229057
0.00573782
0.000221032
0.00573104
0.00021304
0.0057245
0.000205082
0.00571819
0.000197158
0.00571212
0.000189267
0.00570629
0.000181409
0.00570069
0.000173583
0.00569533
0.000165788
0.00569019
0.000158025
0.00568529
0.000150291
0.00568061
0.000142586
0.00567617
0.00013491
0.00567195
0.00012726
0.00566796
0.000119636
0.0056642
0.000112036
0.00566066
0.00010446
0.00565734
9.69051e-05
0.00565425
8.93708e-05
0.00565139
8.18556e-05
0.00564875
7.43578e-05
0.00564632
6.68761e-05
0.00564412
5.94088e-05
0.00564215
5.19543e-05
0.00564039
4.4511e-05
0.00563885
3.70772e-05
0.00563753
2.96513e-05
0.00563644
2.22319e-05
0.00563556
1.48178e-05
0.00563491
7.40772e-06
0.00563448
0.00563426
0.000456544
0.00582895
-0.000424353
0.000481403
0.0060065
0.000498842
0.00612506
0.000509654
0.00619661
0.000515228
0.00623419
0.000517065
0.00624933
0.000516416
0.00625071
0.000514169
0.00624414
0.000510892
0.00623315
0.000506919
0.00621977
0.000502438
0.00620509
0.000497554
0.00618966
0.000492322
0.0061738
0.000486781
0.00615772
0.000480961
0.00614156
0.000474891
0.00612548
0.000468599
0.00610958
0.000462114
0.00609397
0.000455461
0.00607871
0.00044866
0.00606382
0.000441727
0.00604932
0.000434677
0.00603518
0.000427518
0.00602138
0.00042026
0.00600789
0.000412911
0.00599469
0.000405479
0.00598177
0.000397973
0.0059691
0.0003904
0.00595668
0.00038277
0.00594451
0.000375088
0.00593258
0.000367364
0.0059209
0.000359604
0.00590946
0.000351816
0.00589826
0.000344004
0.00588731
0.000336176
0.00587661
0.000328336
0.00586615
0.000320489
0.00585594
0.00031264
0.00584597
0.000304793
0.00583625
0.000296952
0.00582678
0.000289119
0.00581755
0.000281297
0.00580857
0.00027349
0.00579984
0.0002657
0.00579134
0.000257928
0.00578309
0.000250176
0.00577509
0.000242447
0.00576732
0.00023474
0.0057598
0.000227058
0.00575252
0.000219401
0.00574547
0.000211769
0.00573867
0.000204164
0.0057321
0.000196585
0.00572577
0.000189033
0.00571968
0.000181507
0.00571382
0.000174007
0.00570819
0.000166534
0.0057028
0.000159086
0.00569764
0.000151664
0.00569271
0.000144267
0.00568801
0.000136893
0.00568354
0.000129543
0.0056793
0.000122215
0.00567529
0.000114909
0.0056715
0.000107623
0.00566794
0.000100357
0.00566461
9.3109e-05
0.0056615
8.58785e-05
0.00565862
7.86641e-05
0.00565596
7.14647e-05
0.00565352
6.42789e-05
0.00565131
5.71054e-05
0.00564932
4.99429e-05
0.00564755
4.27899e-05
0.005646
3.56451e-05
0.00564468
2.85071e-05
0.00564357
2.13746e-05
0.00564269
1.42467e-05
0.00564204
7.12238e-06
0.0056416
0.00564139
0.000416864
0.00579734
-0.000385246
0.000441797
0.00598157
0.000459822
0.00610703
0.000471538
0.00618489
0.00047813
0.0062276
0.000480957
0.0062465
0.000481218
0.00625045
0.0004798
0.00624555
0.000477294
0.00623566
0.000474055
0.00622301
0.00047029
0.00620885
0.000466114
0.00619384
0.000461588
0.00617833
0.000456753
0.00616255
0.000451639
0.00614668
0.000446274
0.00613084
0.000440684
0.00611517
0.000434896
0.00609976
0.000428933
0.00608467
0.000422816
0.00606994
0.00041656
0.00605558
0.000410178
0.00604156
0.00040368
0.00602788
0.000397075
0.0060145
0.00039037
0.0060014
0.000383573
0.00598856
0.000376693
0.00597598
0.000369736
0.00596363
0.000362711
0.00595153
0.000355626
0.00593966
0.000348486
0.00592803
0.000341301
0.00591664
0.000334076
0.00590549
0.000326817
0.00589457
0.00031953
0.00588389
0.000312222
0.00587346
0.000304896
0.00586326
0.000297557
0.00585331
0.000290209
0.0058436
0.000282857
0.00583413
0.000275504
0.00582491
0.000268152
0.00581592
0.000260805
0.00580718
0.000253466
0.00579868
0.000246136
0.00579042
0.000238817
0.00578241
0.000231512
0.00577463
0.000224222
0.00576709
0.000216948
0.00575979
0.000209691
0.00575273
0.000202452
0.00574591
0.000195232
0.00573932
0.000188031
0.00573297
0.000180851
0.00572686
0.00017369
0.00572098
0.00016655
0.00571533
0.000159431
0.00570992
0.000152331
0.00570474
0.000145251
0.00569979
0.000138191
0.00569507
0.00013115
0.00569058
0.000124128
0.00568632
0.000117124
0.00568229
0.000110138
0.00567849
0.000103168
0.00567491
9.62147e-05
0.00567156
8.92762e-05
0.00566844
8.2352e-05
0.00566554
7.54412e-05
0.00566287
6.85427e-05
0.00566042
6.16556e-05
0.0056582
5.47787e-05
0.0056562
4.7911e-05
0.00565442
4.10512e-05
0.00565286
3.41982e-05
0.00565153
2.73509e-05
0.00565042
2.05084e-05
0.00564954
1.36697e-05
0.00564888
6.83402e-06
0.00564844
0.00564822
0.000378576
0.00576643
-0.000347672
0.000403431
0.00595672
0.000421888
0.00608858
0.000434369
0.00617241
0.000441872
0.0062201
0.000445621
0.00624275
0.000446746
0.00624932
0.000446125
0.00624617
0.00044436
0.00623743
0.000441827
0.00622555
0.000438748
0.00621193
0.000435249
0.00619733
0.000431398
0.00618218
0.000427238
0.00616671
0.000422799
0.00615112
0.000418107
0.00613553
0.000413188
0.00612009
0.000408068
0.00610488
0.000402768
0.00608997
0.000397307
0.0060754
0.000391701
0.00606118
0.000385963
0.0060473
0.000380101
0.00603374
0.000374125
0.00602047
0.000368042
0.00600748
0.00036186
0.00599474
0.000355585
0.00598225
0.000349226
0.00596999
0.000342789
0.00595797
0.000336281
0.00594617
0.000329712
0.0059346
0.000323086
0.00592327
0.00031641
0.00591216
0.000309692
0.00590129
0.000302935
0.00589065
0.000296147
0.00588025
0.000289332
0.00587008
0.000282494
0.00586015
0.000275638
0.00585046
0.000268768
0.005841
0.000261887
0.00583179
0.000254999
0.00582281
0.000248107
0.00581408
0.000241213
0.00580558
0.000234321
0.00579732
0.000227431
0.0057893
0.000220547
0.00578151
0.00021367
0.00577397
0.000206802
0.00576666
0.000199943
0.00575959
0.000193095
0.00575276
0.00018626
0.00574616
0.000179437
0.0057398
0.000172627
0.00573367
0.000165832
0.00572777
0.000159051
0.00572211
0.000152285
0.00571668
0.000145534
0.00571149
0.000138797
0.00570652
0.000132076
0.00570179
0.000125369
0.00569729
0.000118676
0.00569301
0.000111997
0.00568897
0.000105332
0.00568515
9.86803e-05
0.00568156
9.2041e-05
0.0056782
8.54136e-05
0.00567507
7.87977e-05
0.00567216
7.21924e-05
0.00566948
6.5597e-05
0.00566702
5.90107e-05
0.00566478
5.24327e-05
0.00566277
4.5862e-05
0.00566099
3.92978e-05
0.00565943
3.27391e-05
0.00565809
2.6185e-05
0.00565697
1.96348e-05
0.00565609
1.30878e-05
0.00565542
6.54318e-06
0.00565498
0.00565476
0.000341613
0.00573635
-0.000311536
0.00036626
0.00593207
0.000385008
0.00606983
0.000398126
0.00615929
0.000406441
0.00621178
0.000411042
0.00623815
0.000412986
0.00624738
0.000413129
0.00624603
0.000412078
0.00623848
0.000410224
0.0062274
0.000407805
0.00621435
0.000404955
0.00620019
0.00040175
0.00618538
0.000398235
0.00617023
0.000394441
0.00615491
0.000390395
0.00613958
0.00038612
0.00612436
0.000381639
0.00610936
0.000376975
0.00609464
0.000372145
0.00608023
0.000367165
0.00606616
0.000362046
0.00605242
0.000356798
0.00603899
0.000351429
0.00602584
0.000345947
0.00601296
0.000340358
0.00600033
0.00033467
0.00598794
0.000328889
0.00597578
0.000323023
0.00596383
0.000317078
0.00595212
0.000311062
0.00594062
0.000304981
0.00592935
0.000298842
0.0059183
0.000292651
0.00590748
0.000286413
0.00589689
0.000280134
0.00588653
0.000273819
0.00587639
0.000267473
0.0058665
0.0002611
0.00585683
0.000254704
0.0058474
0.000248289
0.0058382
0.000241858
0.00582924
0.000235415
0.00582052
0.000228962
0.00581203
0.000222502
0.00580378
0.000216037
0.00579576
0.00020957
0.00578798
0.000203103
0.00578044
0.000196637
0.00577313
0.000190174
0.00576605
0.000183715
0.00575921
0.000177262
0.00575261
0.000170815
0.00574624
0.000164376
0.00574011
0.000157945
0.0057342
0.000151523
0.00572853
0.00014511
0.0057231
0.000138707
0.00571789
0.000132314
0.00571292
0.000125931
0.00570817
0.000119558
0.00570366
0.000113195
0.00569938
0.000106842
0.00569532
0.0001005
0.0056915
9.41665e-05
0.0056879
8.78427e-05
0.00568453
8.15278e-05
0.00568138
7.52215e-05
0.00567847
6.89233e-05
0.00567577
6.26326e-05
0.00567331
5.63488e-05
0.00567107
5.00714e-05
0.00566905
4.37996e-05
0.00566726
3.75328e-05
0.00566569
3.12702e-05
0.00566435
2.50112e-05
0.00566323
1.87552e-05
0.00566234
1.25018e-05
0.00566168
6.25035e-06
0.00566123
0.00566101
0.000305911
0.0057072
-0.000276753
0.000330235
0.00590775
0.000349153
0.00605091
0.000362791
0.00614566
0.000371823
0.00620275
0.000377207
0.00623277
0.000379925
0.00624466
0.000380799
0.00624516
0.000380435
0.00623884
0.000379236
0.0062286
0.000377451
0.00621613
0.000375225
0.00620241
0.000372639
0.00618797
0.000369743
0.00617313
0.000366568
0.00615809
0.00036314
0.00614301
0.000359483
0.00612802
0.000355617
0.00611323
0.000351564
0.00609869
0.000347341
0.00608446
0.000342963
0.00607054
0.000338441
0.00605694
0.000333785
0.00604364
0.000329002
0.00603062
0.0003241
0.00601786
0.000319086
0.00600535
0.000313965
0.00599306
0.000308745
0.00598099
0.000303433
0.00596915
0.000298034
0.00595751
0.000292557
0.0059461
0.000287007
0.0059349
0.000281391
0.00592392
0.000275715
0.00591316
0.000269984
0.00590262
0.000264204
0.00589231
0.000258379
0.00588222
0.000252515
0.00587236
0.000246616
0.00586273
0.000240686
0.00585333
0.000234729
0.00584416
0.000228748
0.00583522
0.000222747
0.00582652
0.000216729
0.00581805
0.000210696
0.00580981
0.000204652
0.00580181
0.000198598
0.00579403
0.000192536
0.0057865
0.00018647
0.00577919
0.000180399
0.00577212
0.000174327
0.00576529
0.000168254
0.00575868
0.000162181
0.00575231
0.00015611
0.00574618
0.000150042
0.00574027
0.000143977
0.0057346
0.000137917
0.00572916
0.000131861
0.00572395
0.00012581
0.00571897
0.000119766
0.00571422
0.000113727
0.0057097
0.000107694
0.00570541
0.000101668
0.00570135
9.5648e-05
0.00569752
8.96342e-05
0.00569391
8.36267e-05
0.00569053
7.76251e-05
0.00568738
7.16294e-05
0.00568446
6.56393e-05
0.00568176
5.96543e-05
0.00567929
5.36743e-05
0.00567705
4.76987e-05
0.00567503
4.17271e-05
0.00567323
3.5759e-05
0.00567166
2.97939e-05
0.00567032
2.38315e-05
0.0056692
1.78712e-05
0.0056683
1.19129e-05
0.00566763
5.956e-06
0.00566719
0.00566697
0.000271406
0.00567903
-0.000243238
0.000295312
0.00588384
0.000314292
0.00603193
0.000328345
0.0061316
0.000338003
0.00619309
0.000344105
0.00622666
0.00034755
0.00624122
0.000349122
0.00624359
0.00034942
0.00623854
0.000348853
0.00622917
0.000347679
0.00621731
0.000346052
0.00620404
0.000344062
0.00618996
0.00034176
0.00617543
0.000339179
0.00616067
0.000336345
0.00614584
0.000333281
0.00613109
0.000330006
0.0061165
0.000326541
0.00610215
0.000322903
0.00608809
0.000319105
0.00607434
0.000315159
0.00606089
0.000311074
0.00604773
0.000306857
0.00603484
0.000302516
0.00602221
0.000298057
0.00600981
0.000293487
0.00599763
0.000288811
0.00598567
0.000284036
0.00597392
0.000279169
0.00596238
0.000274216
0.00595105
0.000269183
0.00593993
0.000264077
0.00592902
0.000258903
0.00591833
0.000253667
0.00590786
0.000248374
0.0058976
0.00024303
0.00588756
0.000237638
0.00587775
0.000232204
0.00586816
0.000226732
0.0058588
0.000221225
0.00584967
0.000215687
0.00584076
0.000210122
0.00583208
0.000204532
0.00582364
0.000198921
0.00581542
0.000193291
0.00580743
0.000187645
0.00579968
0.000181986
0.00579216
0.000176314
0.00578487
0.000170633
0.00577781
0.000164943
0.00577098
0.000159247
0.00576438
0.000153546
0.00575802
0.000147841
0.00575188
0.000142134
0.00574598
0.000136425
0.00574031
0.000130716
0.00573487
0.000125006
0.00572966
0.000119298
0.00572468
0.000113591
0.00571993
0.000107885
0.0057154
0.000102183
0.00571111
9.64823e-05
0.00570705
9.07849e-05
0.00570321
8.50906e-05
0.00569961
7.93995e-05
0.00569623
7.37116e-05
0.00569307
6.80269e-05
0.00569015
6.23453e-05
0.00568745
5.66668e-05
0.00568497
5.09912e-05
0.00568272
4.53182e-05
0.0056807
3.96477e-05
0.0056789
3.39792e-05
0.00567733
2.83126e-05
0.00567598
2.26476e-05
0.00567486
1.69841e-05
0.00567397
1.13218e-05
0.0056733
5.66059e-06
0.00567285
0.00567263
0.000238037
0.0056519
-0.000210912
0.000261445
0.00586043
0.000280392
0.00601298
0.000294765
0.00611723
0.000304968
0.00618289
0.000311724
0.00621991
0.00031585
0.00623709
0.000318088
0.00624135
0.000319022
0.00623761
0.000319064
0.00622912
0.00031848
0.00621789
0.000317431
0.00620509
0.000316014
0.00619138
0.000314283
0.00617716
0.000312274
0.00616268
0.000310011
0.00614811
0.000307517
0.00613358
0.000304811
0.0061192
0.000301913
0.00610505
0.000298838
0.00609117
0.000295599
0.00607758
0.000292209
0.00606428
0.000288675
0.00605126
0.000285006
0.00603851
0.000281208
0.006026
0.000277287
0.00601373
0.000273249
0.00600167
0.000269101
0.00598982
0.000264848
0.00597817
0.000260497
0.00596673
0.000256053
0.00595549
0.000251524
0.00594446
0.000246915
0.00593363
0.000242231
0.00592301
0.000237479
0.00591261
0.000232663
0.00590241
0.000227788
0.00589244
0.000222859
0.00588268
0.000217881
0.00587314
0.000212858
0.00586383
0.000207793
0.00585473
0.00020269
0.00584586
0.000197554
0.00583722
0.000192386
0.0058288
0.000187191
0.00582062
0.000181971
0.00581266
0.000176728
0.00580492
0.000171465
0.00579742
0.000166184
0.00579015
0.000160888
0.0057831
0.000155578
0.00577629
0.000150256
0.0057697
0.000144924
0.00576335
0.000139582
0.00575722
0.000134233
0.00575133
0.000128878
0.00574566
0.000123518
0.00574023
0.000118153
0.00573502
0.000112785
0.00573005
0.000107414
0.0057253
0.000102042
0.00572078
9.66676e-05
0.00571649
9.12928e-05
0.00571242
8.59176e-05
0.00570859
8.05424e-05
0.00570498
7.51675e-05
0.0057016
6.9793e-05
0.00569845
6.44193e-05
0.00569552
5.90465e-05
0.00569282
5.36746e-05
0.00569034
4.83036e-05
0.00568809
4.29336e-05
0.00568607
3.75644e-05
0.00568427
3.21961e-05
0.0056827
2.68284e-05
0.00568135
2.14613e-05
0.00568023
1.60951e-05
0.00567933
1.07295e-05
0.00567866
5.36457e-06
0.00567822
0.00567799
0.000205745
0.00562585
-0.000179698
0.000228589
0.00583759
0.000247422
0.00599415
0.000262031
0.00610262
0.000272704
0.00617221
0.000280053
0.00621256
0.000284815
0.00623233
0.000287687
0.00623848
0.000289232
0.00623606
0.000289861
0.00622849
0.000289846
0.00621791
0.000289356
0.00620558
0.000288491
0.00619224
0.00028731
0.00617834
0.000285851
0.00616414
0.000284138
0.00614982
0.000282193
0.00613553
0.000280036
0.00612136
0.000277683
0.0061074
0.000275151
0.0060937
0.000272453
0.00608028
0.000269599
0.00606713
0.000266599
0.00605426
0.000263459
0.00604165
0.000260186
0.00602928
0.000256786
0.00601713
0.000253265
0.00600519
0.000249628
0.00599346
0.000245882
0.00598192
0.000242032
0.00597058
0.000238085
0.00595944
0.000234046
0.0059485
0.000229921
0.00593776
0.000225715
0.00592722
0.000221435
0.00591689
0.000217084
0.00590677
0.000212669
0.00589685
0.000208193
0.00588716
0.000203662
0.00587767
0.000199079
0.00586841
0.000194448
0.00585936
0.000189774
0.00585054
0.000185059
0.00584194
0.000180307
0.00583356
0.000175521
0.0058254
0.000170704
0.00581747
0.000165859
0.00580977
0.000160988
0.00580229
0.000156093
0.00579504
0.000151178
0.00578802
0.000146243
0.00578122
0.000141291
0.00577465
0.000136324
0.00576832
0.000131344
0.0057622
0.00012635
0.00575632
0.000121346
0.00575067
0.000116333
0.00574524
0.000111311
0.00574004
0.000106281
0.00573507
0.000101245
0.00573033
9.62038e-05
0.00572582
9.11574e-05
0.00572153
8.61069e-05
0.00571747
8.10529e-05
0.00571364
7.59959e-05
0.00571004
7.09365e-05
0.00570666
6.5875e-05
0.00570351
6.08119e-05
0.00570058
5.57474e-05
0.00569788
5.06818e-05
0.00569541
4.56153e-05
0.00569316
4.05481e-05
0.00569114
3.54804e-05
0.00568934
3.04121e-05
0.00568777
2.53435e-05
0.00568642
2.02747e-05
0.0056853
1.52057e-05
0.0056844
1.01369e-05
0.00568373
5.06837e-06
0.00568329
0.00568306
0.000174468
0.00560091
-0.000149521
0.000196698
0.00581536
0.000215352
0.0059755
0.000230124
0.00608785
0.000241197
0.00616114
0.000249082
0.00620467
0.000254437
0.00622697
0.00025791
0.006235
0.000260042
0.00623393
0.000261237
0.0062273
0.000261772
0.00621737
0.000261821
0.00620553
0.000261489
0.00619257
0.000260839
0.00617899
0.000259909
0.00616507
0.000258726
0.006151
0.00025731
0.00613694
0.000255682
0.00612299
0.000253856
0.00610923
0.000251849
0.00609571
0.000249672
0.00608245
0.000247337
0.00606947
0.000244852
0.00605675
0.000242225
0.00604428
0.00023946
0.00603204
0.000236565
0.00602002
0.000233545
0.00600821
0.000230405
0.0059966
0.000227151
0.00598518
0.000223789
0.00597395
0.000220324
0.00596291
0.000216762
0.00595206
0.000213108
0.00594141
0.000209369
0.00593096
0.000205549
0.00592071
0.000201654
0.00591066
0.000197688
0.00590082
0.000193656
0.00589119
0.000189562
0.00588177
0.00018541
0.00587256
0.000181205
0.00586357
0.000176951
0.00585479
0.00017265
0.00584624
0.000168307
0.0058379
0.000163924
0.00582979
0.000159504
0.00582189
0.000155051
0.00581422
0.000150566
0.00580678
0.000146053
0.00579955
0.000141514
0.00579256
0.000136951
0.00578578
0.000132365
0.00577924
0.00012776
0.00577292
0.000123136
0.00576683
0.000118495
0.00576096
0.00011384
0.00575532
0.00010917
0.00574991
0.000104488
0.00574473
9.97951e-05
0.00573977
9.50919e-05
0.00573504
9.03796e-05
0.00573053
8.56592e-05
0.00572625
8.09315e-05
0.0057222
7.61973e-05
0.00571838
7.14574e-05
0.00571478
6.67124e-05
0.0057114
6.19629e-05
0.00570826
5.72093e-05
0.00570534
5.24525e-05
0.00570264
4.76926e-05
0.00570017
4.293e-05
0.00569792
3.81652e-05
0.0056959
3.33983e-05
0.00569411
2.86298e-05
0.00569253
2.38598e-05
0.00569119
1.90888e-05
0.00569007
1.4317e-05
0.00568917
9.54476e-06
0.0056885
4.77238e-06
0.00568806
0.00568784
0.000144158
0.00557707
-0.000120318
0.000165736
0.00579378
0.000184153
0.00595708
0.000199025
0.00607298
0.000210436
0.00614973
0.000218803
0.00619631
0.000224709
0.00622107
0.00022875
0.00623096
0.000231444
0.00623124
0.000233185
0.00622556
0.000234251
0.00621631
0.000234821
0.00620496
0.000235003
0.00619239
0.000234865
0.00617913
0.000234447
0.00616548
0.000233775
0.00615167
0.000232871
0.00613785
0.000231752
0.00612411
0.000230435
0.00611055
0.000228935
0.00609721
0.000227262
0.00608412
0.000225429
0.0060713
0.000223443
0.00605873
0.000221311
0.00604641
0.00021904
0.00603431
0.000216634
0.00602243
0.0002141
0.00601074
0.000211442
0.00599925
0.000208666
0.00598795
0.000205777
0.00597683
0.000202781
0.0059659
0.000199684
0.00595516
0.00019649
0.00594461
0.000193206
0.00593424
0.000189835
0.00592408
0.000186384
0.00591411
0.000182857
0.00590435
0.000179259
0.00589479
0.000175593
0.00588543
0.000171864
0.00587629
0.000168077
0.00586736
0.000164235
0.00585864
0.000160341
0.00585013
0.000156399
0.00584184
0.000152412
0.00583377
0.000148383
0.00582592
0.000144316
0.00581829
0.000140213
0.00581088
0.000136076
0.00580369
0.000131908
0.00579672
0.000127711
0.00578998
0.000123487
0.00578346
0.00011924
0.00577717
0.000114969
0.0057711
0.000110677
0.00576525
0.000106367
0.00575963
0.000102038
0.00575424
9.7694e-05
0.00574907
9.33346e-05
0.00574413
8.89617e-05
0.00573941
8.45765e-05
0.00573492
8.018e-05
0.00573065
7.57732e-05
0.00572661
7.13571e-05
0.00572279
6.69327e-05
0.0057192
6.25006e-05
0.00571584
5.80617e-05
0.0057127
5.36167e-05
0.00570978
4.91662e-05
0.00570709
4.47109e-05
0.00570462
4.02513e-05
0.00570238
3.57878e-05
0.00570036
3.13211e-05
0.00569857
2.68515e-05
0.005697
2.23794e-05
0.00569566
1.79055e-05
0.00569454
1.34301e-05
0.00569365
8.95383e-06
0.00569298
4.47701e-06
0.00569253
0.00569231
0.000114747
0.00555434
-9.2016e-05
0.000135658
0.00577287
0.000153805
0.00593893
0.000168724
0.00605806
0.000180415
0.00613804
0.000189212
0.00618751
0.000195625
0.00621465
0.000200203
0.00622638
0.000203433
0.00622801
0.0002057
0.00622329
0.000207279
0.00621473
0.000208352
0.00620389
0.000209032
0.00619171
0.000209388
0.00617877
0.000209463
0.00616541
0.000209285
0.00615185
0.000208874
0.00613826
0.000208248
0.00612474
0.000207423
0.00611137
0.000206412
0.00609822
0.000205228
0.00608531
0.000203881
0.00607265
0.000202378
0.00606024
0.000200726
0.00604806
0.000198933
0.00603611
0.000197001
0.00602436
0.000194938
0.00601281
0.000192748
0.00600144
0.000190437
0.00599026
0.000188008
0.00597926
0.000185469
0.00596844
0.000182824
0.0059578
0.000180078
0.00594735
0.000177236
0.00593709
0.000174305
0.00592701
0.000171287
0.00591713
0.000168189
0.00590745
0.000165015
0.00589796
0.000161768
0.00588868
0.000158454
0.0058796
0.000155075
0.00587073
0.000151637
0.00586207
0.000148142
0.00585363
0.000144595
0.00584539
0.000140997
0.00583737
0.000137353
0.00582956
0.000133666
0.00582198
0.000129938
0.00581461
0.000126171
0.00580746
0.000122369
0.00580053
0.000118534
0.00579382
0.000114668
0.00578733
0.000110774
0.00578106
0.000106852
0.00577502
0.000102906
0.0057692
9.89369e-05
0.0057636
9.49463e-05
0.00575823
9.09361e-05
0.00575308
8.69076e-05
0.00574816
8.28621e-05
0.00574345
7.88015e-05
0.00573898
7.47264e-05
0.00573472
7.06383e-05
0.0057307
6.65382e-05
0.00572689
6.24272e-05
0.00572331
5.83063e-05
0.00571996
5.41763e-05
0.00571683
5.00382e-05
0.00571392
4.58925e-05
0.00571124
4.17404e-05
0.00570878
3.75823e-05
0.00570654
3.34191e-05
0.00570453
2.92512e-05
0.00570274
2.50793e-05
0.00570118
2.09041e-05
0.00569984
1.67262e-05
0.00569872
1.25463e-05
0.00569783
8.36488e-06
0.00569716
4.18263e-06
0.00569672
0.0056965
8.62119e-05
0.00553271
-6.45914e-05
0.000106451
0.00575263
0.000124298
0.00592109
0.000139212
0.00604314
0.000151125
0.00612613
0.000160301
0.00617833
0.000167182
0.00620777
0.000172264
0.0062213
0.000176005
0.00622427
0.000178777
0.00622052
0.00018085
0.00621265
0.000182409
0.00620233
0.00018357
0.00619055
0.000184404
0.00617794
0.000184956
0.00616486
0.000185255
0.00615155
0.000185321
0.00613819
0.000185172
0.00612488
0.000184822
0.00611172
0.000184286
0.00609876
0.000183574
0.00608602
0.000182696
0.00607353
0.000181661
0.00606127
0.000180475
0.00604925
0.000179145
0.00603744
0.000177674
0.00602583
0.000176068
0.00601441
0.000174333
0.00600318
0.000172472
0.00599212
0.000170492
0.00598124
0.000168396
0.00597054
0.000166191
0.00596001
0.000163882
0.00594966
0.000161472
0.00593949
0.000158968
0.00592951
0.000156374
0.00591972
0.000153695
0.00591012
0.000150935
0.00590072
0.000148098
0.00589152
0.000145189
0.00588251
0.000142212
0.00587371
0.00013917
0.00586512
0.000136066
0.00585673
0.000132906
0.00584855
0.000129691
0.00584058
0.000126425
0.00583283
0.000123111
0.00582529
0.000119752
0.00581797
0.00011635
0.00581086
0.000112909
0.00580397
0.000109431
0.0057973
0.000105917
0.00579084
0.000102371
0.00578461
9.87947e-05
0.0057786
9.51896e-05
0.0057728
9.15579e-05
0.00576723
8.79015e-05
0.00576189
8.4222e-05
0.00575676
8.05211e-05
0.00575186
7.68004e-05
0.00574718
7.30611e-05
0.00574272
6.93048e-05
0.00573848
6.55328e-05
0.00573447
6.17462e-05
0.00573068
5.79464e-05
0.00572711
5.41344e-05
0.00572377
5.03112e-05
0.00572065
4.64779e-05
0.00571775
4.26354e-05
0.00571508
3.87846e-05
0.00571263
3.49264e-05
0.0057104
3.10617e-05
0.00570839
2.71911e-05
0.00570661
2.33155e-05
0.00570505
1.94357e-05
0.00570372
1.55524e-05
0.0057026
1.16665e-05
0.00570171
7.77862e-06
0.00570105
3.88958e-06
0.00570061
0.00570038
5.84741e-05
0.00551214
-3.78993e-05
7.81309e-05
0.00573297
9.56549e-05
0.00590356
0.000110494
0.00602831
0.000122569
0.00611405
0.000132073
0.00616883
0.000139379
0.00620047
0.00014493
0.00621575
0.000149156
0.00622004
0.000152411
0.00621726
0.000154961
0.0062101
0.000156989
0.0062003
0.000158615
0.00618893
0.000159911
0.00617664
0.000160924
0.00616384
0.000161684
0.00615079
0.000162211
0.00613766
0.000162523
0.00612457
0.000162634
0.00611161
0.000162556
0.00609883
0.000162302
0.00608627
0.00016188
0.00607395
0.000161299
0.00606185
0.000160564
0.00604998
0.000159683
0.00603832
0.000158659
0.00602685
0.000157497
0.00601557
0.000156203
0.00600447
0.000154781
0.00599355
0.000153236
0.00598279
0.000151572
0.0059722
0.000149796
0.00596179
0.000147911
0.00595155
0.000145923
0.00594148
0.000143836
0.0059316
0.000141655
0.0059219
0.000139385
0.00591239
0.00013703
0.00590308
0.000134594
0.00589395
0.000132081
0.00588502
0.000129496
0.0058763
0.000126842
0.00586777
0.000124123
0.00585945
0.000121341
0.00585133
0.000118502
0.00584342
0.000115607
0.00583572
0.00011266
0.00582824
0.000109664
0.00582096
0.000106622
0.0058139
0.000103536
0.00580705
0.000100408
0.00580042
9.72426e-05
0.00579401
9.40404e-05
0.00578781
9.08042e-05
0.00578183
8.75359e-05
0.00577607
8.42377e-05
0.00577053
8.09115e-05