/*--------------------------------*- C++ -*----------------------------------*\
  =========                 |
  \\      /  F ield         | OpenFOAM: The Open Source CFD Toolbox
   \\    /   O peration     | Website:  https://openfoam.org
    \\  /    A nd           | Version:  7
     \\/     M anipulation  |
\*---------------------------------------------------------------------------*/
FoamFile
{
    version     2.0;
    format      ascii;
    class       volVectorField;
    location    "54.999";
    object      U;
}
// * * * * * * * * * * * * * * * * * * * * * * * * * * * * * * * * * * * * * //

dimensions      [0 1 -1 0 0 0 0];

internalField   nonuniform List<vector> 
11400
(
(1.15652 -0.0327171 0)
(1.15527 -0.0314931 0)
(1.15406 -0.0302768 0)
(1.15291 -0.0290679 -1.39141e-11)
(1.1518 -0.0278664 -1.37603e-11)
(1.15074 -0.0266719 0)
(1.14972 -0.0254843 0)
(1.14876 -0.0243034 -6.9256e-29)
(1.14783 -0.0231288 9.71241e-28)
(1.14696 -0.0219604 -1.11547e-27)
(1.14612 -0.020798 0)
(1.14534 -0.0196411 0)
(1.14459 -0.0184896 0)
(1.1439 -0.0173432 -1.26918e-11)
(1.14324 -0.0162016 -1.26058e-11)
(1.14263 -0.0150645 0)
(1.14207 -0.0139316 0)
(1.14155 -0.0128027 0)
(1.14107 -0.0116773 0)
(1.14064 -0.0105552 1.22661e-11)
(1.14025 -0.00943617 1.22157e-11)
(1.1399 -0.00831977 0)
(1.1396 -0.00720573 0)
(1.13934 -0.00609369 -1.20988e-11)
(1.13912 -0.00498334 -1.20711e-11)
(1.13895 -0.00387433 0)
(1.13882 -0.00276641 -6.24544e-29)
(1.13874 -0.00165941 6.23971e-29)
(1.1387 -0.00055308 0)
(1.20691 -0.0767734 0)
(1.2372 -0.0805746 0)
(1.25556 -0.0829169 0)
(1.26514 -0.0842676 0)
(1.26901 -0.0848086 0)
(1.2695 -0.0847801 0)
(1.26812 -0.0843992 0)
(1.26573 -0.0838052 0)
(1.26282 -0.0830763 0)
(1.25963 -0.0822556 0)
(1.2563 -0.0813665 0)
(1.25289 -0.0804216 0)
(1.24942 -0.0794278 0)
(1.24593 -0.0783898 0)
(1.24245 -0.0773122 0)
(1.23901 -0.0761996 0)
(1.23563 -0.075057 0)
(1.23232 -0.0738893 0)
(1.22911 -0.0727008 0)
(1.22599 -0.0714949 0)
(1.22296 -0.0702743 0)
(1.22001 -0.0690411 0)
(1.21714 -0.067797 0)
(1.21434 -0.0665433 0)
(1.2116 -0.0652814 0)
(1.20893 -0.0640126 0)
(1.20631 -0.062738 0)
(1.20375 -0.0614589 0)
(1.20125 -0.0601767 0)
(1.1988 -0.0588923 0)
(1.1964 -0.057607 0)
(1.19407 -0.0563218 0)
(1.19178 -0.0550376 0)
(1.18955 -0.0537551 0)
(1.18738 -0.0524753 0)
(1.18526 -0.0511987 0)
(1.18319 -0.0499261 0)
(1.18117 -0.0486578 0)
(1.17921 -0.0473945 0)
(1.1773 -0.0461364 0)
(1.17544 -0.0448841 0)
(1.17363 -0.0436377 0)
(1.17188 -0.0423975 0)
(1.17017 -0.0411637 0)
(1.16852 -0.0399365 0)
(1.16692 -0.0387159 0)
(1.16536 -0.0375022 0)
(1.16386 -0.0362953 0)
(1.16241 -0.0350952 0)
(1.161 -0.033902 0)
(1.15964 -0.0327156 0)
(1.15834 -0.0315359 0)
(1.15708 -0.030363 0)
(1.15586 -0.0291965 0)
(1.1547 -0.0280365 0)
(1.15358 -0.0268828 0)
(1.15251 -0.0257353 0)
(1.15148 -0.0245937 0)
(1.1505 -0.023458 0)
(1.14957 -0.0223278 2.91636e-28)
(1.14869 -0.0212031 -2.91636e-28)
(1.14785 -0.0200836 0)
(1.14705 -0.018969 0)
(1.1463 -0.0178591 0)
(1.1456 -0.0167538 0)
(1.14494 -0.0156527 0)
(1.14432 -0.0145556 0)
(1.14375 -0.0134622 0)
(1.14322 -0.0123723 0)
(1.14274 -0.0112857 0)
(1.1423 -0.0102019 0)
(1.14191 -0.00912089 0)
(1.14156 -0.00804223 0)
(1.14125 -0.00696567 0)
(1.14099 -0.00589091 0)
(1.14077 -0.00481766 0)
(1.1406 -0.00374562 0)
(1.14047 -0.00267457 0)
(1.14039 -0.00160436 0)
(1.14034 -0.000534732 0)
(1.20023 -0.0708343 0)
(1.23233 -0.0746627 0)
(1.25246 -0.0771365 0)
(1.26352 -0.0786744 0)
(1.26847 -0.0794044 0)
(1.26967 -0.0795437 0)
(1.26873 -0.0793074 0)
(1.26662 -0.0788415 0)
(1.26389 -0.0782306 0)
(1.26083 -0.0775226 0)
(1.25759 -0.0767439 0)
(1.25426 -0.0759086 0)
(1.25086 -0.0750245 0)
(1.24744 -0.0740966 0)
(1.24401 -0.073129 0)
(1.24062 -0.0721262 0)
(1.23728 -0.0710927 0)
(1.23402 -0.0700331 0)
(1.23083 -0.0689512 0)
(1.22774 -0.0678506 2.22714e-27)
(1.22473 -0.0667339 -2.22714e-27)
(1.2218 -0.0656029 0)
(1.21895 -0.0644594 0)
(1.21616 -0.0633048 0)
(1.21344 -0.0621401 0)
(1.21077 -0.0609667 0)
(1.20816 -0.0597858 0)
(1.20561 -0.0585985 0)
(1.20312 -0.0574061 0)
(1.20067 -0.0562096 0)
(1.19828 -0.0550103 0)
(1.19594 -0.053809 0)
(1.19366 -0.0526068 0)
(1.19143 -0.0514045 0)
(1.18925 -0.0502029 0)
(1.18712 -0.0490027 0)
(1.18505 -0.0478045 0)
(1.18303 -0.0466089 0)
(1.18106 -0.0454165 0)
(1.17914 -0.0442276 0)
(1.17728 -0.0430428 0)
(1.17546 -0.0418622 0)
(1.1737 -0.0406863 0)
(1.17199 -0.0395153 -2.07298e-28)
(1.17033 -0.0383494 2.07298e-28)
(1.16871 -0.0371887 0)
(1.16715 -0.0360334 0)
(1.16564 -0.0348836 0)
(1.16417 -0.0337394 0)
(1.16276 -0.0326008 0)
(1.16139 -0.0314678 0)
(1.16008 -0.0303404 0)
(1.15881 -0.0292186 0)
(1.15758 -0.0281023 0)
(1.15641 -0.0269915 0)
(1.15528 -0.025886 0)
(1.1542 -0.0247858 0)
(1.15317 -0.0236906 0)
(1.15218 -0.0226005 0)
(1.15124 -0.0215152 -2.13416e-11)
(1.15035 -0.0204346 2.13416e-11)
(1.1495 -0.0193584 0)
(1.1487 -0.0182866 0)
(1.14794 -0.0172189 0)
(1.14723 -0.0161552 0)
(1.14657 -0.0150951 0)
(1.14595 -0.0140386 0)
(1.14537 -0.0129853 0)
(1.14484 -0.0119351 0)
(1.14435 -0.0108877 0)
(1.14391 -0.00984291 0)
(1.14352 -0.00880047 0)
(1.14316 -0.00776015 0)
(1.14285 -0.00672168 0)
(1.14259 -0.00568481 0)
(1.14237 -0.00464926 0)
(1.14219 -0.0036148 0)
(1.14206 -0.00258123 0)
(1.14198 -0.00154841 0)
(1.14193 -0.000516089 0)
(1.19358 -0.0651098 0)
(1.22736 -0.0689406 0)
(1.24915 -0.0715176 0)
(1.26165 -0.0732157 0)
(1.26768 -0.0741178 0)
(1.26962 -0.0744165 0)
(1.26915 -0.0743208 0)
(1.26733 -0.0739796 0)
(1.26479 -0.073483 0)
(1.26186 -0.0728833 0)
(1.25873 -0.0722101 0)
(1.25547 -0.0714792 0)
(1.25214 -0.0706993 0)
(1.24878 -0.0698757 0)
(1.24542 -0.0690126 0)
(1.24208 -0.0681141 0)
(1.23878 -0.0671844 0)
(1.23555 -0.0662276 0)
(1.2324 -0.0652477 0)
(1.22933 -0.0642477 0)
(1.22635 -0.0632302 0)
(1.22344 -0.0621972 0)
(1.22061 -0.0611503 0)
(1.21784 -0.0600908 0)
(1.21513 -0.0590198 0)
(1.21248 -0.0579386 0)
(1.20988 -0.0568481 0)
(1.20734 -0.0557497 0)
(1.20485 -0.0546445 0)
(1.20242 -0.0535335 0)
(1.20003 -0.0524178 0)
(1.1977 -0.0512985 0)
(1.19542 -0.0501764 0)
(1.19319 -0.0490525 0)
(1.19101 -0.0479275 0)
(1.18888 -0.0468022 0)
(1.18681 -0.0456773 0)
(1.18478 -0.0445533 0)
(1.18281 -0.0434308 0)
(1.18089 -0.0423102 0)
(1.17902 -0.0411921 0)
(1.1772 -0.0400768 0)
(1.17543 -0.0389647 0)
(1.17371 -0.037856 3.91676e-28)
(1.17204 -0.036751 -3.91676e-28)
(1.17042 -0.0356498 0)
(1.16885 -0.0345528 0)
(1.16733 -0.03346 0)
(1.16586 -0.0323715 0)
(1.16444 -0.0312875 0)
(1.16306 -0.030208 0)
(1.16174 -0.0291329 0)
(1.16046 -0.0280624 0)
(1.15923 -0.0269965 0)
(1.15805 -0.025935 0)
(1.15691 -0.0248779 0)
(1.15583 -0.0238253 0)
(1.15479 -0.0227769 0)
(1.1538 -0.0217327 0)
(1.15285 -0.0206926 -2.18766e-11)
(1.15195 -0.0196564 2.18766e-11)
(1.15109 -0.0186241 0)
(1.15029 -0.0175955 0)
(1.14952 -0.0165704 0)
(1.14881 -0.0155486 0)
(1.14814 -0.0145301 0)
(1.14751 -0.0135145 0)
(1.14693 -0.0125018 0)
(1.1464 -0.0114918 0)
(1.14591 -0.0104842 0)
(1.14546 -0.00947884 0)
(1.14506 -0.00847555 0)
(1.14471 -0.00747408 0)
(1.14439 -0.00647423 0)
(1.14413 -0.00547576 0)
(1.14391 -0.00447846 0)
(1.14373 -0.00348211 0)
(1.1436 -0.00248655 0)
(1.14351 -0.00149165 0)
(1.14347 -0.000497179 0)
(1.18699 -0.0595988 0)
(1.22233 -0.0634084 0)
(1.24568 -0.0660624 0)
(1.25955 -0.0678947 0)
(1.26666 -0.0689503 0)
(1.26935 -0.0693979 0)
(1.26937 -0.0694369 0)
(1.26787 -0.0692162 0)
(1.26553 -0.0688301 0)
(1.26274 -0.0683347 0)
(1.25971 -0.0677625 0)
(1.25654 -0.0671312 0)
(1.25328 -0.0664506 0)
(1.24998 -0.0657264 0)
(1.24667 -0.0649627 0)
(1.24338 -0.0641635 0)
(1.24013 -0.0633327 0)
(1.23694 -0.0624742 0)
(1.23382 -0.0615915 0)
(1.23079 -0.0606878 -3.56729e-27)
(1.22783 -0.0597655 3.56729e-27)
(1.22494 -0.0588266 0)
(1.22213 -0.0578725 0)
(1.21938 -0.0569046 0)
(1.21669 -0.0559239 0)
(1.21405 -0.0549315 0)
(1.21147 -0.0539286 0)
(1.20894 -0.0529163 0)
(1.20647 -0.0518956 0)
(1.20404 -0.0508676 0)
(1.20166 -0.0498333 0)
(1.19933 -0.0487938 0)
(1.19706 -0.04775 0)
(1.19483 -0.0467028 0)
(1.19265 -0.0456529 0)
(1.19053 -0.0446011 2.63415e-27)
(1.18845 -0.043548 -2.63415e-27)
(1.18643 -0.0424944 0)
(1.18445 -0.0414408 0)
(1.18253 -0.0403877 0)
(1.18066 -0.0393355 0)
(1.17883 -0.0382847 0)
(1.17706 -0.0372357 0)
(1.17534 -0.0361888 0)
(1.17366 -0.0351442 0)
(1.17204 -0.0341022 0)
(1.17046 -0.0330631 0)
(1.16894 -0.0320271 0)
(1.16746 -0.0309942 0)
(1.16603 -0.0299646 0)
(1.16465 -0.0289384 0)
(1.16332 -0.0279158 2.09536e-27)
(1.16204 -0.0268966 -2.09536e-27)
(1.1608 -0.025881 0)
(1.15961 -0.024869 0)
(1.15847 -0.0238605 0)
(1.15738 -0.0228556 0)
(1.15634 -0.0218541 0)
(1.15534 -0.0208561 0)
(1.15439 -0.0198615 0)
(1.15348 -0.0188701 0)
(1.15262 -0.0178819 0)
(1.15181 -0.0168968 0)
(1.15104 -0.0159146 0)
(1.15032 -0.0149352 0)
(1.14965 -0.0139586 0)
(1.14902 -0.0129845 0)
(1.14843 -0.0120127 0)
(1.14789 -0.0110433 0)
(1.1474 -0.0100759 0)
(1.14695 -0.00911042 0)
(1.14655 -0.0081467 0)
(1.14619 -0.00718454 0)
(1.14588 -0.00622376 0)
(1.14561 -0.00526417 0)
(1.14538 -0.00430557 0)
(1.14521 -0.00334779 0)
(1.14507 -0.0023907 0)
(1.14499 -0.00143419 0)
(1.14494 -0.000478034 0)
(1.1805 -0.0542944 0)
(1.21727 -0.0580609 0)
(1.24207 -0.0607682 0)
(1.25726 -0.0627112 0)
(1.26542 -0.0639023 0)
(1.26887 -0.0644873 0)
(1.26941 -0.0646543 0)
(1.26824 -0.0645496 0)
(1.26612 -0.0642699 0)
(1.26348 -0.0638748 0)
(1.26055 -0.0633994 0)
(1.25746 -0.0628634 0)
(1.25427 -0.0622776 0)
(1.25104 -0.0616481 0)
(1.24778 -0.0609793 0)
(1.24454 -0.0602749 0)
(1.24134 -0.0595385 0)
(1.23819 -0.0587739 0)
(1.2351 -0.0579844 0)
(1.2321 -0.057173 0)
(1.22916 -0.056342 0)
(1.22631 -0.0554934 0)
(1.22351 -0.0546286 0)
(1.22079 -0.0537488 0)
(1.21811 -0.0528552 0)
(1.2155 -0.0519487 0)
(1.21293 -0.0510304 0)
(1.21042 -0.0501014 0)
(1.20795 -0.0491627 0)
(1.20554 -0.0482154 0)
(1.20317 -0.0472604 0)
(1.20085 -0.0462987 0)
(1.19858 -0.0453312 0)
(1.19636 -0.0443589 0)
(1.19419 -0.0433824 0)
(1.19207 -0.0424026 -1.28621e-27)
(1.18999 -0.0414202 1.28621e-27)
(1.18797 -0.0404358 0)
(1.186 -0.0394499 0)
(1.18407 -0.0384632 0)
(1.1822 -0.0374761 0)
(1.18037 -0.036489 0)
(1.1786 -0.0355024 0)
(1.17687 -0.0345166 0)
(1.1752 -0.0335319 0)
(1.17357 -0.0325487 0)
(1.17199 -0.0315671 0)
(1.17046 -0.0305874 0)
(1.16898 -0.0296098 0)
(1.16755 -0.0286345 0)
(1.16616 -0.0276616 0)
(1.16483 -0.0266911 -1.02735e-27)
(1.16354 -0.0257232 1.02735e-27)
(1.1623 -0.024758 0)
(1.16111 -0.0237954 0)
(1.15996 -0.0228356 0)
(1.15886 -0.0218785 0)
(1.15781 -0.0209242 0)
(1.15681 -0.0199725 0)
(1.15585 -0.0190235 9.498e-28)
(1.15494 -0.0180771 -9.498e-28)
(1.15408 -0.0171332 0)
(1.15326 -0.0161918 0)
(1.15249 -0.0152528 0)
(1.15177 -0.0143162 0)
(1.15109 -0.0133817 0)
(1.15046 -0.0124493 0)
(1.14987 -0.0115189 0)
(1.14933 -0.0105903 0)
(1.14883 -0.00966353 0)
(1.14838 -0.0087383 0)
(1.14798 -0.00781452 0)
(1.14761 -0.00689205 0)
(1.1473 -0.00597073 0)
(1.14703 -0.00505039 0)
(1.14681 -0.00413089 0)
(1.14663 -0.00321208 0)
(1.14649 -0.00229385 0)
(1.1464 -0.00137612 0)
(1.14636 -0.000458686 0)
(1.17415 -0.0491867 0)
(1.21221 -0.0528905 0)
(1.23836 -0.0556302 0)
(1.2548 -0.057663 0)
(1.26398 -0.0589726 0)
(1.2682 -0.0596838 0)
(1.26927 -0.0599715 0)
(1.26845 -0.059978 0)
(1.26655 -0.0598008 0)
(1.26406 -0.0595021 0)
(1.26124 -0.0591197 0)
(1.25823 -0.0586749 0)
(1.25512 -0.0581797 0)
(1.25195 -0.0576407 0)
(1.24875 -0.0570625 0)
(1.24556 -0.0564486 0)
(1.2424 -0.0558027 0)
(1.23929 -0.055128 0)
(1.23625 -0.0544278 0)
(1.23327 -0.0537049 0)
(1.23037 -0.0529617 0)
(1.22754 -0.0521999 0)
(1.22477 -0.051421 0)
(1.22206 -0.0506262 0)
(1.21941 -0.0498165 0)
(1.21682 -0.048993 0)
(1.21427 -0.0481567 0)
(1.21177 -0.0473084 0)
(1.20932 -0.0464492 0)
(1.20692 -0.0455802 0)
(1.20456 -0.0447022 0)
(1.20225 -0.0438163 0)
(1.19999 -0.0429233 0)
(1.19778 -0.0420241 0)
(1.19561 -0.0411195 0)
(1.1935 -0.0402102 1.30556e-27)
(1.19143 -0.039297 -1.30556e-27)
(1.18941 -0.0383805 0)
(1.18744 -0.0374612 0)
(1.18552 -0.0365398 0)
(1.18364 -0.0356168 0)
(1.18182 -0.0346926 0)
(1.18004 -0.0337676 0)
(1.17832 -0.0328422 -1.28418e-27)
(1.17664 -0.0319168 1.28418e-27)
(1.17501 -0.0309918 0)
(1.17343 -0.0300672 0)
(1.1719 -0.0291436 0)
(1.17042 -0.0282209 0)
(1.16898 -0.0272995 0)
(1.16759 -0.0263796 0)
(1.16625 -0.0254611 0)
(1.16496 -0.0245444 0)
(1.16372 -0.0236294 0)
(1.16252 -0.0227163 0)
(1.16137 -0.0218051 0)
(1.16027 -0.0208958 0)
(1.15922 -0.0199885 0)
(1.15821 -0.0190833 0)
(1.15725 -0.01818 -9.69255e-28)
(1.15634 -0.0172787 9.69255e-28)
(1.15547 -0.0163793 0)
(1.15465 -0.0154819 0)
(1.15388 -0.0145863 0)
(1.15315 -0.0136925 0)
(1.15247 -0.0128004 0)
(1.15183 -0.01191 0)
(1.15124 -0.0110212 0)
(1.1507 -0.0101338 0)
(1.1502 -0.00924784 0)
(1.14975 -0.00836314 0)
(1.14934 -0.00747961 0)
(1.14898 -0.00659713 0)
(1.14866 -0.00571557 0)
(1.14839 -0.00483481 0)
(1.14817 -0.00395473 0)
(1.14799 -0.00307521 0)
(1.14785 -0.00219618 0)
(1.14776 -0.00131756 0)
(1.14772 -0.00043917 0)
(1.16795 -0.0442657 0)
(1.20717 -0.0478894 0)
(1.23458 -0.0506431 0)
(1.25219 -0.0527469 0)
(1.26237 -0.0541593 0)
(1.26735 -0.0549855 0)
(1.26896 -0.0553868 0)
(1.2685 -0.0554996 0)
(1.26684 -0.0554209 0)
(1.26451 -0.0552152 0)
(1.2618 -0.0549221 0)
(1.25888 -0.0545649 0)
(1.25583 -0.0541565 0)
(1.25273 -0.0537041 0)
(1.24959 -0.0532126 0)
(1.24645 -0.0526854 0)
(1.24333 -0.0521259 0)
(1.24027 -0.0515375 0)
(1.23726 -0.050923 0)
(1.23431 -0.0502852 3.6603e-27)
(1.23144 -0.0496262 -3.6603e-27)
(1.22864 -0.048948 0)
(1.2259 -0.0482519 0)
(1.22321 -0.047539 0)
(1.22059 -0.0468105 0)
(1.21801 -0.0460671 0)
(1.21548 -0.04531 0)
(1.213 -0.0445399 0)
(1.21057 -0.0437579 0)
(1.20818 -0.0429649 0)
(1.20584 -0.0421619 0)
(1.20354 -0.0413497 0)
(1.20129 -0.0405293 0)
(1.19909 -0.0397015 0)
(1.19693 -0.0388671 0)
(1.19482 -0.0380269 -2.75506e-27)
(1.19276 -0.0371814 2.75506e-27)
(1.19075 -0.0363315 0)
(1.18878 -0.0354777 0)
(1.18686 -0.0346205 0)
(1.18499 -0.0337605 0)
(1.18317 -0.0328982 0)
(1.1814 -0.032034 0)
(1.17967 -0.0311683 1.8009e-27)
(1.178 -0.0303015 -1.8009e-27)
(1.17637 -0.029434 0)
(1.17479 -0.028566 0)
(1.17325 -0.0276978 0)
(1.17177 -0.0268297 0)
(1.17033 -0.0259619 0)
(1.16894 -0.0250945 0)
(1.1676 -0.0242279 -2.56729e-11)
(1.16631 -0.023362 2.56729e-11)
(1.16506 -0.0224971 0)
(1.16387 -0.0216333 0)
(1.16272 -0.0207706 0)
(1.16161 -0.0199091 0)
(1.16056 -0.0190489 0)
(1.15955 -0.01819 0)
(1.15858 -0.0173325 0)
(1.15767 -0.0164764 0)
(1.1568 -0.0156216 0)
(1.15598 -0.0147681 0)
(1.1552 -0.0139161 0)
(1.15447 -0.0130653 0)
(1.15379 -0.0122158 0)
(1.15315 -0.0113675 0)
(1.15256 -0.0105204 0)
(1.15201 -0.00967446 0)
(1.15151 -0.00882954 0)
(1.15106 -0.00798558 0)
(1.15065 -0.00714252 0)
(1.15028 -0.00630027 0)
(1.14997 -0.00545873 0)
(1.14969 -0.0046178 0)
(1.14947 -0.00377739 0)
(1.14929 -0.00293742 0)
(1.14915 -0.00209784 0)
(1.14906 -0.00125859 0)
(1.14902 -0.000419521 0)
(1.16193 -0.0395218 0)
(1.2022 -0.0430502 0)
(1.23074 -0.0458017 0)
(1.24947 -0.0479599 0)
(1.2606 -0.0494605 0)
(1.26633 -0.0503908 0)
(1.26848 -0.0508983 0)
(1.26839 -0.0511124 0)
(1.26698 -0.0511287 0)
(1.26481 -0.0510125 0)
(1.26222 -0.0508055 0)
(1.25939 -0.0505324 0)
(1.25642 -0.0502072 0)
(1.25337 -0.0498379 0)
(1.25029 -0.0494294 0)
(1.2472 -0.0489853 0)
(1.24414 -0.0485089 0)
(1.24111 -0.0480032 0)
(1.23814 -0.047471 0)
(1.23523 -0.0469149 -1.76984e-27)
(1.23239 -0.0463372 1.76984e-27)
(1.22961 -0.0457394 0)
(1.2269 -0.0451231 0)
(1.22424 -0.0444893 0)
(1.22164 -0.0438391 0)
(1.21909 -0.0431733 0)
(1.21658 -0.0424928 0)
(1.21412 -0.0417985 0)
(1.2117 -0.0410913 0)
(1.20933 -0.0403722 0)
(1.207 -0.039642 0)
(1.20472 -0.0389017 0)
(1.20248 -0.038152 0)
(1.20029 -0.0373939 0)
(1.19815 -0.036628 0)
(1.19605 -0.0358553 0)
(1.19399 -0.0350762 0)
(1.19199 -0.0342915 0)
(1.19003 -0.0335019 0)
(1.18811 -0.0327078 0)
(1.18625 -0.0319098 0)
(1.18443 -0.0311084 0)
(1.18266 -0.0303041 0)
(1.18094 -0.0294973 0)
(1.17926 -0.0286884 0)
(1.17764 -0.0278777 0)
(1.17606 -0.0270656 0)
(1.17453 -0.0262524 0)
(1.17304 -0.0254383 0)
(1.1716 -0.0246236 0)
(1.17022 -0.0238085 0)
(1.16887 -0.0229933 -2.6097e-11)
(1.16758 -0.0221781 2.6097e-11)
(1.16633 -0.021363 0)
(1.16514 -0.0205482 0)
(1.16398 -0.0197338 0)
(1.16288 -0.01892 0)
(1.16182 -0.0181068 0)
(1.16081 -0.0172942 0)
(1.15985 -0.0164824 0)
(1.15893 -0.0156714 0)
(1.15806 -0.0148612 0)
(1.15723 -0.0140518 0)
(1.15645 -0.0132433 0)
(1.15572 -0.0124356 0)
(1.15504 -0.0116287 0)
(1.1544 -0.0108227 0)
(1.15381 -0.0100175 0)
(1.15326 -0.00921303 0)
(1.15276 -0.00840929 0)
(1.1523 -0.00760624 0)
(1.15189 -0.00680382 0)
(1.15153 -0.00600196 0)
(1.15121 -0.00520061 0)
(1.15094 -0.0043997 0)
(1.15071 -0.00359915 0)
(1.15053 -0.00279893 0)
(1.15039 -0.00199899 0)
(1.1503 -0.00119931 0)
(1.15026 -0.000399769 0)
(1.1561 -0.0349456 0)
(1.19729 -0.0383657 0)
(1.22689 -0.0411009 0)
(1.24665 -0.0432987 0)
(1.2587 -0.0448741 0)
(1.26516 -0.045898 0)
(1.26785 -0.0465044 0)
(1.26814 -0.0468148 0)
(1.26699 -0.0469222 0)
(1.26499 -0.0468924 0)
(1.26252 -0.0467684 0)
(1.25978 -0.0465763 0)
(1.25688 -0.0463312 0)
(1.2539 -0.0460417 0)
(1.25088 -0.0457129 0)
(1.24784 -0.0453486 0)
(1.24482 -0.0449519 0)
(1.24184 -0.0445257 0)
(1.2389 -0.0440727 0)
(1.23603 -0.0435953 0)
(1.23322 -0.0430958 0)
(1.23047 -0.0425756 0)
(1.22779 -0.0420363 0)
(1.22516 -0.0414788 0)
(1.22258 -0.0409043 0)
(1.22005 -0.0403134 0)
(1.21756 -0.0397071 0)
(1.21512 -0.0390863 0)
(1.21273 -0.0384517 0)
(1.21037 -0.0378043 0)
(1.20806 -0.037145 0)
(1.2058 -0.0364745 0)
(1.20357 -0.0357938 0)
(1.20139 -0.0351036 0)
(1.19926 -0.0344047 0)
(1.19717 -0.0336979 0)
(1.19513 -0.0329838 0)
(1.19313 -0.032263 0)
(1.19118 -0.0315363 0)
(1.18927 -0.0308041 0)
(1.18741 -0.0300671 0)
(1.1856 -0.0293257 0)
(1.18384 -0.0285803 0)
(1.18212 -0.0278315 0)
(1.18045 -0.0270797 0)
(1.17882 -0.0263251 0)
(1.17724 -0.0255682 0)
(1.17572 -0.0248093 0)
(1.17423 -0.0240487 0)
(1.1728 -0.0232867 0)
(1.17141 -0.0225234 0)
(1.17007 -0.0217592 -2.6496e-11)
(1.16878 -0.0209942 2.6496e-11)
(1.16753 -0.0202287 0)
(1.16633 -0.0194627 0)
(1.16518 -0.0186964 0)
(1.16407 -0.01793 0)
(1.16302 -0.0171635 0)
(1.162 -0.0163972 0)
(1.16104 -0.015631 2.12748e-27)
(1.16012 -0.014865 -2.12748e-27)
(1.15925 -0.0140993 0)
(1.15842 -0.0133339 0)
(1.15764 -0.0125689 0)
(1.15691 -0.0118043 0)
(1.15623 -0.0110402 0)
(1.15559 -0.0102764 0)
(1.15499 -0.00951311 0)
(1.15444 -0.00875023 0)
(1.15394 -0.00798777 0)
(1.15348 -0.00722571 0)
(1.15307 -0.00646402 0)
(1.15271 -0.00570267 0)
(1.15239 -0.00494163 0)
(1.15212 -0.00418085 0)
(1.15189 -0.0034203 0)
(1.15171 -0.00265995 0)
(1.15157 -0.00189979 0)
(1.15148 -0.00113983 0)
(1.15144 -0.000379946 0)
(1.15049 -0.0305277 0)
(1.19249 -0.0338283 0)
(1.22304 -0.0365356 0)
(1.24376 -0.0387599 0)
(1.25668 -0.0403979 0)
(1.26386 -0.0415055 0)
(1.26708 -0.0422037 0)
(1.26775 -0.0426053 0)
(1.26686 -0.0428001 0)
(1.26504 -0.0428536 0)
(1.2627 -0.0428097 0)
(1.26005 -0.0426958 0)
(1.25723 -0.0425278 0)
(1.25431 -0.0423149 0)
(1.25134 -0.0420628 0)
(1.24836 -0.0417752 0)
(1.24538 -0.0414551 0)
(1.24244 -0.0411054 0)
(1.23955 -0.0407287 0)
(1.23671 -0.0403272 0)
(1.23393 -0.039903 0)
(1.23122 -0.0394577 0)
(1.22856 -0.0389927 0)
(1.22595 -0.038509 0)
(1.2234 -0.0380076 0)
(1.2209 -0.0374893 0)
(1.21843 -0.0369549 0)
(1.21602 -0.0364052 0)
(1.21364 -0.0358411 0)
(1.21131 -0.0352634 0)
(1.20902 -0.0346729 0)
(1.20677 -0.0340705 0)
(1.20456 -0.0334569 0)
(1.20239 -0.032833 0)
(1.20027 -0.0321995 0)
(1.1982 -0.0315571 0)
(1.19616 -0.0309065 0)
(1.19418 -0.0302483 0)
(1.19223 -0.0295832 0)
(1.19034 -0.0289118 0)
(1.18849 -0.0282346 0)
(1.18668 -0.0275521 0)
(1.18492 -0.0268647 0)
(1.18321 -0.026173 0)
(1.18154 -0.0254774 0)
(1.17992 -0.0247782 0)
(1.17835 -0.0240758 0)
(1.17682 -0.0233706 0)
(1.17534 -0.0226629 0)
(1.17391 -0.0219529 0)
(1.17253 -0.021241 0)
(1.17119 -0.0205273 -2.687e-11)
(1.1699 -0.0198122 2.687e-11)
(1.16865 -0.0190957 0)
(1.16745 -0.0183782 0)
(1.1663 -0.0176597 0)
(1.1652 -0.0169405 0)
(1.16414 -0.0162206 0)
(1.16313 -0.0155002 0)
(1.16216 -0.0147794 -1.03774e-27)
(1.16125 -0.0140583 1.03774e-27)
(1.16037 -0.013337 0)
(1.15955 -0.0126156 0)
(1.15877 -0.011894 0)
(1.15804 -0.0111725 0)
(1.15735 -0.0104509 0)
(1.15671 -0.00972944 0)
(1.15611 -0.00900805 0)
(1.15557 -0.00828676 0)
(1.15506 -0.00756559 0)
(1.15461 -0.00684454 0)
(1.1542 -0.00612363 0)
(1.15383 -0.00540284 0)
(1.15351 -0.00468216 0)
(1.15324 -0.00396158 0)
(1.15301 -0.0032411 9.63555e-28)
(1.15283 -0.0025207 -9.63555e-28)
(1.15269 -0.0018004 0)
(1.1526 -0.00108022 0)
(1.15256 -0.000360082 0)
(1.14509 -0.0262596 0)
(1.18779 -0.0294312 0)
(1.2192 -0.0321008 0)
(1.24081 -0.0343402 0)
(1.25456 -0.0360296 0)
(1.26242 -0.0372118 0)
(1.26618 -0.0379946 0)
(1.26723 -0.0384825 0)
(1.26661 -0.038761 0)
(1.26498 -0.0388948 0)
(1.26276 -0.0389283 0)
(1.26021 -0.0388898 0)
(1.25746 -0.0387962 0)
(1.2546 -0.0386572 0)
(1.25169 -0.0384789 0)
(1.24876 -0.0382651 0)
(1.24583 -0.0380189 0)
(1.24293 -0.0377429 0)
(1.24008 -0.0374396 0)
(1.23728 -0.0371112 1.79483e-27)
(1.23453 -0.0367597 -1.79483e-27)
(1.23185 -0.0363868 0)
(1.22922 -0.0359935 0)
(1.22665 -0.0355812 0)
(1.22412 -0.0351506 0)
(1.22164 -0.0347025 0)
(1.2192 -0.0342378 0)
(1.21681 -0.0337571 0)
(1.21445 -0.0332614 0)
(1.21214 -0.0327514 0)
(1.20987 -0.0322278 0)
(1.20763 -0.0316916 0)
(1.20544 -0.0311434 0)
(1.2033 -0.0305841 0)
(1.20119 -0.0300143 0)
(1.19913 -0.0294348 1.38182e-27)
(1.19711 -0.0288463 -1.38182e-27)
(1.19513 -0.0282494 0)
(1.1932 -0.0276448 0)
(1.19131 -0.0270329 0)
(1.18947 -0.0264143 0)
(1.18767 -0.0257897 0)
(1.18592 -0.0251593 0)
(1.18422 -0.0245238 -1.37404e-27)
(1.18256 -0.0238835 1.37404e-27)
(1.18094 -0.0232389 0)
(1.17937 -0.0225903 0)
(1.17785 -0.0219381 0)
(1.17638 -0.0212826 0)
(1.17495 -0.0206241 0)
(1.17357 -0.0199629 0)
(1.17223 -0.0192993 0)
(1.17094 -0.0186335 0)
(1.1697 -0.0179658 0)
(1.1685 -0.0172963 0)
(1.16735 -0.0166253 0)
(1.16625 -0.0159529 0)
(1.16519 -0.0152792 0)
(1.16418 -0.0146046 0)
(1.16322 -0.013929 0)
(1.1623 -0.0132526 0)
(1.16143 -0.0125755 0)
(1.16061 -0.0118978 0)
(1.15983 -0.0112195 0)
(1.1591 -0.0105409 0)
(1.15841 -0.00986189 0)
(1.15777 -0.00918258 0)
(1.15717 -0.00850303 0)
(1.15663 -0.00782327 0)
(1.15612 -0.00714335 0)
(1.15567 -0.0064633 0)
(1.15526 -0.00578314 0)
(1.15489 -0.0051029 0)
(1.15457 -0.00442259 0)
(1.1543 -0.00374221 0)
(1.15407 -0.0030618 -9.78485e-28)
(1.15389 -0.00238136 9.78485e-28)
(1.15375 -0.00170094 0)
(1.15366 -0.00102057 0)
(1.15362 -0.000340205 0)
(1.13991 -0.0221323 0)
(1.18321 -0.0251666 0)
(1.21539 -0.0277912 0)
(1.23783 -0.0300362 0)
(1.25235 -0.0317673 0)
(1.26087 -0.0330153 0)
(1.26515 -0.0338762 0)
(1.26659 -0.0344454 0)
(1.26623 -0.034804 0)
(1.26479 -0.0350151 0)
(1.26271 -0.0351233 0)
(1.26025 -0.0351577 0)
(1.25758 -0.0351358 0)
(1.25479 -0.0350682 0)
(1.25193 -0.034961 0)
(1.24905 -0.0348183 0)
(1.24617 -0.0346432 0)
(1.24332 -0.0344382 0)
(1.2405 -0.0342058 0)
(1.23774 -0.033948 -3.74737e-27)
(1.23503 -0.0336668 3.74737e-27)
(1.23238 -0.0333637 0)
(1.22978 -0.0330399 0)
(1.22723 -0.0326965 0)
(1.22473 -0.0323344 0)
(1.22228 -0.0319544 0)
(1.21986 -0.0315572 0)
(1.21749 -0.0311435 0)
(1.21516 -0.0307141 0)
(1.21287 -0.0302699 0)
(1.21062 -0.0298114 0)
(1.20841 -0.0293395 0)
(1.20623 -0.0288551 0)
(1.2041 -0.0283587 0)
(1.20201 -0.0278512 0)
(1.19996 -0.0273332 -2.90008e-27)
(1.19796 -0.0268054 2.90008e-27)
(1.19599 -0.0262684 0)
(1.19407 -0.0257228 0)
(1.1922 -0.0251693 0)
(1.19037 -0.0246083 0)
(1.18858 -0.0240404 0)
(1.18684 -0.023466 0)
(1.18514 -0.0228857 0)
(1.18349 -0.0222999 0)
(1.18188 -0.021709 0)
(1.18032 -0.0211134 0)
(1.1788 -0.0205134 0)
(1.17733 -0.0199094 0)
(1.17591 -0.0193018 0)
(1.17453 -0.0186908 0)
(1.1732 -0.0180766 0)
(1.17191 -0.0174597 0)
(1.17067 -0.0168402 0)
(1.16948 -0.0162183 0)
(1.16833 -0.0155943 0)
(1.16723 -0.0149684 0)
(1.16618 -0.0143407 0)
(1.16517 -0.0137114 0)
(1.16421 -0.0130807 0)
(1.16329 -0.0124488 0)
(1.16242 -0.0118156 0)
(1.1616 -0.0111815 0)
(1.16082 -0.0105464 0)
(1.16009 -0.00991047 0)
(1.1594 -0.00927384 0)
(1.15876 -0.00863657 0)
(1.15817 -0.00799874 2.11666e-27)
(1.15762 -0.0073604 -2.11666e-27)
(1.15712 -0.00672164 0)
(1.15666 -0.00608249 0)
(1.15625 -0.00544302 0)
(1.15589 -0.00480326 0)
(1.15557 -0.00416326 0)
(1.1553 -0.00352304 0)
(1.15507 -0.00288265 0)
(1.15489 -0.00224214 0)
(1.15475 -0.00160156 0)
(1.15466 -0.000960972 0)
(1.15461 -0.000320342 0)
(1.13495 -0.0181394 0)
(1.17876 -0.0210283 0)
(1.21162 -0.0236024 0)
(1.23481 -0.025845 0)
(1.25006 -0.0276089 0)
(1.25922 -0.028915 0)
(1.264 -0.0298474 0)
(1.26582 -0.030493 0)
(1.26574 -0.030928 0)
(1.26449 -0.0312135 0)
(1.26254 -0.0313938 0)
(1.26019 -0.0314986 0)
(1.25759 -0.0315461 0)
(1.25487 -0.0315473 0)
(1.25207 -0.0315087 0)
(1.24924 -0.0314347 0)
(1.24641 -0.0313282 0)
(1.2436 -0.0311918 0)
(1.24082 -0.0310278 0)
(1.23809 -0.0308382 0)
(1.23542 -0.0306248 0)
(1.2328 -0.0303892 0)
(1.23023 -0.0301326 0)
(1.22771 -0.029856 0)
(1.22524 -0.0295603 0)
(1.22281 -0.0292462 0)
(1.22043 -0.0289144 0)
(1.21808 -0.0285657 0)
(1.21577 -0.0282008 0)
(1.21351 -0.0278204 0)
(1.21127 -0.0274252 0)
(1.20908 -0.0270161 0)
(1.20693 -0.0265936 0)
(1.20481 -0.0261586 0)
(1.20274 -0.0257118 0)
(1.20071 -0.0252538 1.40328e-27)
(1.19872 -0.0247853 -1.40328e-27)
(1.19677 -0.0243068 0)
(1.19486 -0.0238191 0)
(1.193 -0.0233227 0)
(1.19118 -0.0228181 0)
(1.1894 -0.0223059 0)
(1.18767 -0.0217865 0)
(1.18598 -0.0212605 0)
(1.18434 -0.0207282 0)
(1.18274 -0.0201901 0)
(1.18118 -0.0196467 0)
(1.17967 -0.0190982 0)
(1.17821 -0.018545 0)
(1.17679 -0.0179875 0)
(1.17542 -0.017426 0)
(1.17409 -0.0168608 0)
(1.17281 -0.0162921 0)
(1.17158 -0.0157203 0)
(1.17039 -0.0151456 0)
(1.16924 -0.0145682 0)
(1.16815 -0.0139883 0)
(1.1671 -0.0134062 0)
(1.16609 -0.0128219 0)
(1.16513 -0.0122358 0)
(1.16422 -0.0116479 0)
(1.16335 -0.0110585 0)
(1.16253 -0.0104676 0)
(1.16175 -0.00987539 0)
(1.16102 -0.009282 0)
(1.16034 -0.00868754 0)
(1.1597 -0.00809212 0)
(1.15911 -0.00749582 0)
(1.15856 -0.00689876 0)
(1.15806 -0.006301 0)
(1.1576 -0.00570263 0)
(1.15719 -0.00510371 0)
(1.15683 -0.00450432 0)
(1.15651 -0.00390451 0)
(1.15623 -0.00330435 0)
(1.15601 -0.0027039 0)
(1.15583 -0.00210322 0)
(1.15569 -0.00150239 0)
(1.1556 -0.000901494 0)
(1.15555 -0.000300521 0)
(1.13023 -0.0142719 0)
(1.17444 -0.0170077 0)
(1.2079 -0.0195298 0)
(1.23179 -0.0217646 0)
(1.24771 -0.0235537 0)
(1.25747 -0.0249101 0)
(1.26275 -0.0259077 0)
(1.26494 -0.0266247 0)
(1.26514 -0.0271323 0)
(1.26408 -0.0274892 0)
(1.26227 -0.0277392 0)
(1.26002 -0.0279119 -4.30771e-27)
(1.25751 -0.0280264 4.30771e-27)
(1.25485 -0.0280941 0)
(1.2521 -0.0281219 0)
(1.24932 -0.0281141 0)
(1.24654 -0.0280738 0)
(1.24377 -0.0280036 0)
(1.24104 -0.0279057 0)
(1.23835 -0.0277821 3.76114e-27)
(1.23571 -0.0276344 -3.76114e-27)
(1.23312 -0.0274641 0)
(1.23058 -0.0272725 0)
(1.2281 -0.0270606 0)
(1.22565 -0.0268292 0)
(1.22325 -0.026579 0)
(1.22089 -0.0263107 0)
(1.21857 -0.0260251 0)
(1.21629 -0.0257227 0)
(1.21404 -0.0254044 0)
(1.21184 -0.0250708 0)
(1.20966 -0.0247226 0)
(1.20753 -0.0243606 0)
(1.20544 -0.0239854 0)
(1.20338 -0.0235977 0)
(1.20136 -0.0231983 0)
(1.19939 -0.0227877 0)
(1.19746 -0.0223665 0)
(1.19556 -0.0219354 0)
(1.19371 -0.0214949 0)
(1.19191 -0.0210456 0)
(1.19014 -0.0205879 0)
(1.18842 -0.0201225 0)
(1.18674 -0.0196497 0)
(1.18511 -0.01917 0)
(1.18352 -0.0186839 0)
(1.18197 -0.0181917 0)
(1.18047 -0.0176939 0)
(1.17901 -0.0171908 0)
(1.1776 -0.0166827 0)
(1.17624 -0.01617 0)
(1.17491 -0.0156531 0)
(1.17364 -0.0151321 0)
(1.17241 -0.0146075 0)
(1.17122 -0.0140794 0)
(1.17009 -0.013548 0)
(1.16899 -0.0130137 0)
(1.16794 -0.0124767 0)
(1.16694 -0.0119371 0)
(1.16599 -0.0113951 2.27171e-27)
(1.16507 -0.010851 -2.27171e-27)
(1.16421 -0.0103049 0)
(1.16339 -0.009757 0)
(1.16262 -0.0092074 0)
(1.16189 -0.00865625 0)
(1.1612 -0.00810371 0)
(1.16057 -0.00754989 0)
(1.15998 -0.00699492 -2.16963e-27)
(1.15943 -0.0064389 2.16963e-27)
(1.15893 -0.00588195 0)
(1.15848 -0.00532417 0)
(1.15807 -0.00476563 0)
(1.1577 -0.00420644 0)
(1.15738 -0.00364668 0)
(1.15711 -0.00308642 0)
(1.15689 -0.00252575 0)
(1.1567 -0.00196477 0)
(1.15657 -0.00140355 0)
(1.15648 -0.000842215 0)
(1.15643 -0.000280765 0)
(1.12572 -0.010531 0)
(1.17026 -0.0130993 0)
(1.20425 -0.0155701 0)
(1.22875 -0.0177933 0)
(1.24531 -0.0196007 0)
(1.25565 -0.021 0)
(1.2614 -0.0220564 0)
(1.26396 -0.0228399 0)
(1.26443 -0.0234163 0)
(1.26357 -0.0238416 0)
(1.2619 -0.0241586 0)
(1.25975 -0.0243971 2.0655e-27)
(1.25732 -0.0245764 -2.0655e-27)
(1.25472 -0.0247083 0)
(1.25204 -0.0248001 0)
(1.24931 -0.0248563 0)
(1.24657 -0.0248801 0)
(1.24385 -0.0248739 0)
(1.24116 -0.0248399 0)
(1.2385 -0.02478 0)
(1.2359 -0.0246959 0)
(1.23335 -0.0245889 0)
(1.23084 -0.0244603 0)
(1.22838 -0.024311 0)
(1.22597 -0.0241419 0)
(1.2236 -0.0239537 0)
(1.22127 -0.0237471 0)
(1.21897 -0.0235226 1.59392e-27)
(1.21671 -0.0232811 -1.59392e-27)
(1.21449 -0.0230231 0)
(1.21231 -0.0227493 0)
(1.21016 -0.0224605 0)
(1.20804 -0.0221573 0)
(1.20597 -0.0218404 0)
(1.20393 -0.0215105 0)
(1.20193 -0.0211681 0)
(1.19998 -0.020814 0)
(1.19806 -0.0204488 0)
(1.19618 -0.020073 0)
(1.19434 -0.0196872 0)
(1.19255 -0.019292 0)
(1.1908 -0.0188879 0)
(1.18909 -0.0184753 0)
(1.18742 -0.0180547 0)
(1.1858 -0.0176267 0)
(1.18422 -0.0171916 0)
(1.18268 -0.0167499 0)
(1.18119 -0.0163019 0)
(1.17974 -0.0158481 0)
(1.17834 -0.0153887 0)
(1.17698 -0.0149242 0)
(1.17566 -0.0144548 -2.83721e-11)
(1.17439 -0.013981 2.83721e-11)
(1.17317 -0.0135028 0)
(1.17199 -0.0130207 0)
(1.17086 -0.012535 0)
(1.16977 -0.0120458 0)
(1.16872 -0.0115533 0)
(1.16773 -0.0110579 0)
(1.16677 -0.0105597 -1.1024e-27)
(1.16587 -0.010059 1.1024e-27)
(1.165 -0.00955585 0)
(1.16419 -0.00905052 0)
(1.16342 -0.00854317 0)
(1.16269 -0.00803395 0)
(1.16201 -0.00752302 0)
(1.16138 -0.00701052 0)
(1.16079 -0.0064966 0)
(1.16024 -0.00598139 0)
(1.15974 -0.005465 0)
(1.15929 -0.00494757 0)
(1.15888 -0.00442919 0)
(1.15852 -0.00390999 0)
(1.1582 -0.00339006 0)
(1.15793 -0.00286951 0)
(1.1577 -0.00234843 0)
(1.15752 -0.00182695 0)
(1.15739 -0.00130516 0)
(1.1573 -0.000783205 0)
(1.15725 -0.000261099 0)
(1.12143 -0.00690337 0)
(1.16622 -0.00929121 0)
(1.20066 -0.011725 0)