/*--------------------------------*- C++ -*----------------------------------*\
  =========                 |
  \\      /  F ield         | OpenFOAM: The Open Source CFD Toolbox
   \\    /   O peration     | Website:  https://openfoam.org
    \\  /    A nd           | Version:  7
     \\/     M anipulation  |
\*---------------------------------------------------------------------------*/
FoamFile
{
    version     2.0;
    format      ascii;
    class       volScalarField;
    location    "20.001";
    object      p;
}
// * * * * * * * * * * * * * * * * * * * * * * * * * * * * * * * * * * * * * //

dimensions      [0 2 -2 0 0 0 0];

internalField   nonuniform List<scalar> 
11400
(
-0.27932
-0.279971
-0.280583
-0.281138
-0.281617
-0.282003
-0.282281
-0.282437
-0.282467
-0.282378
-0.282181
-0.281907
-0.281668
-0.272628
-0.27488
-0.275878
-0.2767
-0.27744
-0.278132
-0.278811
-0.279478
-0.280125
-0.280733
-0.281286
-0.281763
-0.282147
-0.282421
-0.282571
-0.28259
-0.282483
-0.28226
-0.281937
-0.281655
-0.273133
-0.275309
-0.276276
-0.277072
-0.277791
-0.278466
-0.279131
-0.279787
-0.280424
-0.281026
-0.281573
-0.282046
-0.282425
-0.282691
-0.282829
-0.282826
-0.282686
-0.282412
-0.281994
-0.281614
-0.273872
-0.275939
-0.276858
-0.277617
-0.278303
-0.278952
-0.279594
-0.280233
-0.280855
-0.281445
-0.281982
-0.282447
-0.282818
-0.283074
-0.283195
-0.283161
-0.282971
-0.282627
-0.282079
-0.281512
-0.274827
-0.276754
-0.27761
-0.278318
-0.27896
-0.279571
-0.280182
-0.280794
-0.281394
-0.281965
-0.282488
-0.282941
-0.2833
-0.283542
-0.283641
-0.283571
-0.283318
-0.282889
-0.282198
-0.281291
-0.275973
-0.277736
-0.278515
-0.279157
-0.279741
-0.280303
-0.280871
-0.281445
-0.282014
-0.282559
-0.28306
-0.283494
-0.283837
-0.284061
-0.284136
-0.284025
-0.283699
-0.283174
-0.282378
-0.28084
-0.277284
-0.278863
-0.279552
-0.280114
-0.280625
-0.281123
-0.281633
-0.282157
-0.282683
-0.283192
-0.283662
-0.28407
-0.28439
-0.284591
-0.284638
-0.284487
-0.284084
-0.283432
-0.282663
-0.280039
-0.278732
-0.280114
-0.280699
-0.281166
-0.281588
-0.282004
-0.282441
-0.2829
-0.283368
-0.283827
-0.284255
-0.284627
-0.284914
-0.285085
-0.2851
-0.28491
-0.284438
-0.283587
-0.282971
-0.27931
-0.280291
-0.281468
-0.281937
-0.282292
-0.282607
-0.282923
-0.283267
-0.283642
-0.284036
-0.28443
-0.284801
-0.285123
-0.285368
-0.285499
-0.285474
-0.285238
-0.284717
-0.283731
-0.283016
-0.278584
-0.281936
-0.282908
-0.283249
-0.283475
-0.283661
-0.283854
-0.284085
-0.284356
-0.284657
-0.284968
-0.285265
-0.285523
-0.28571
-0.285788
-0.285711
-0.285415
-0.284863
-0.283654
-0.283118
-0.277523
-0.28365
-0.284419
-0.284619
-0.284697
-0.284733
-0.28478
-0.284873
-0.285018
-0.285204
-0.285412
-0.285619
-0.285794
-0.285907
-0.285916
-0.285773
-0.28539
-0.284837
-0.283259
-0.283197
-0.276164
-0.28542
-0.285992
-0.28604
-0.285949
-0.285811
-0.285687
-0.285617
-0.285611
-0.28566
-0.285746
-0.285841
-0.285917
-0.285937
-0.285859
-0.285633
-0.285121
-0.284608
-0.282505
-0.283112
-0.274617
-0.287243
-0.287626
-0.287506
-0.287227
-0.286888
-0.286566
-0.286308
-0.286127
-0.286017
-0.285959
-0.285926
-0.285884
-0.285793
-0.285605
-0.285282
-0.284588
-0.284137
-0.281407
-0.282672
-0.273061
-0.289124
-0.289324
-0.289023
-0.28853
-0.287966
-0.28742
-0.286947
-0.286567
-0.286277
-0.286057
-0.285876
-0.285699
-0.285479
-0.285157
-0.284714
-0.283793
-0.28336
-0.280045
-0.281645
-0.271638
-0.291078
-0.291099
-0.2906
-0.289867
-0.289054
-0.288257
-0.287545
-0.286945
-0.286455
-0.286054
-0.285709
-0.285378
-0.285008
-0.284523
-0.283921
-0.282749
-0.282182
-0.278496
-0.27985
-0.270283
-0.293131
-0.292971
-0.292248
-0.29126
-0.290168
-0.289096
-0.288123
-0.287282
-0.286575
-0.285977
-0.285451
-0.284945
-0.284394
-0.283708
-0.28288
-0.281446
-0.280516
-0.276734
-0.277262
-0.268715
-0.295319
-0.294963
-0.294
-0.292728
-0.291333
-0.289963
-0.28871
-0.287612
-0.286671
-0.285861
-0.285132
-0.284421
-0.283647
-0.282705
-0.281554
-0.279829
-0.27831
-0.274601
-0.273979
-0.266603
-0.297683
-0.297109
-0.295885
-0.294299
-0.292579
-0.290893
-0.289343
-0.287973
-0.286785
-0.285741
-0.284782
-0.283822
-0.282761
-0.281483
-0.279897
-0.277791
-0.275531
-0.271874
-0.270051
-0.263695
-0.300278
-0.299451
-0.297936
-0.296012
-0.293945
-0.291925
-0.290065
-0.28841
-0.286956
-0.285652
-0.284419
-0.283147
-0.281712
-0.279989
-0.277854
-0.275232
-0.272158
-0.268374
-0.26533
-0.259859
-0.303164
-0.302026
-0.300194
-0.297905
-0.295471
-0.293104
-0.290921
-0.288966
-0.287221
-0.285617
-0.284047
-0.282375
-0.280457
-0.278165
-0.275377
-0.272103
-0.268226
-0.26407
-0.259666
-0.255005
-0.306388
-0.304892
-0.302702
-0.300022
-0.297204
-0.294474
-0.291954
-0.289678
-0.287607
-0.285644
-0.28365
-0.281469
-0.278943
-0.275963
-0.272436
-0.268422
-0.263825
-0.259111
-0.253595
-0.248996
-0.310012
-0.30809
-0.305504
-0.302407
-0.299185
-0.296081
-0.293206
-0.290577
-0.288125
-0.28572
-0.283194
-0.280377
-0.277123
-0.273356
-0.269037
-0.264267
-0.259024
-0.253642
-0.247765
-0.242513
-0.314097
-0.311668
-0.308646
-0.305105
-0.301461
-0.297964
-0.294708
-0.291679
-0.28877
-0.285817
-0.28263
-0.279047
-0.274959
-0.270344
-0.265223
-0.259738
-0.253895
-0.248022
-0.241803
-0.236133
-0.318695
-0.315669
-0.312172
-0.30816
-0.304075
-0.300161
-0.296483
-0.292985
-0.289518
-0.285887
-0.281903
-0.277437
-0.27244
-0.266953
-0.261059
-0.254918
-0.248567
-0.242289
-0.235812
-0.230003
-0.323856
-0.320139
-0.316125
-0.311616
-0.307065
-0.3027
-0.298541
-0.29448
-0.290326
-0.285872
-0.280958
-0.275514
-0.269568
-0.263224
-0.256607
-0.249884
-0.243099
-0.236493
-0.229826
-0.223877
-0.32962
-0.325115
-0.320547
-0.315514
-0.310465
-0.3056
-0.300876
-0.296128
-0.291136
-0.285708
-0.279745
-0.273262
-0.266363
-0.2592
-0.251923
-0.244685
-0.237527
-0.230645
-0.223804
-0.217744
-0.336021
-0.330633
-0.325477
-0.319889
-0.314303
-0.308865
-0.303461
-0.297872
-0.291874
-0.285328
-0.278227
-0.270676
-0.262846
-0.254918
-0.247044
-0.239348
-0.231862
-0.224731
-0.217737
-0.211552
-0.343083
-0.336723
-0.330947
-0.324774
-0.318591
-0.312481
-0.306248
-0.299638
-0.292461
-0.284672
-0.276374
-0.267758
-0.25904
-0.250404
-0.241987
-0.233879
-0.226095
-0.218735
-0.211595
-0.205279
-0.350818
-0.343405
-0.336982
-0.330184
-0.323327
-0.316411
-0.309164
-0.301332
-0.292812
-0.283685
-0.274165
-0.264511
-0.254956
-0.245669
-0.236755
-0.228269
-0.22021
-0.212632
-0.205354
-0.198904
-0.359223
-0.350689
-0.343597
-0.336122
-0.328481
-0.320585
-0.312109
-0.302852
-0.292846
-0.282319
-0.271583
-0.260935
-0.250597
-0.240709
-0.231336
-0.2225
-0.214182
-0.206399
-0.198991
-0.192407
-0.368279
-0.358568
-0.350783
-0.342562
-0.333994
-0.324905
-0.314963
-0.304085
-0.292486
-0.280534
-0.268613
-0.257022
-0.245955
-0.235508
-0.22571
-0.216548
-0.207987
-0.200009
-0.192484
-0.18577
-0.377935
-0.367016
-0.358512
-0.34945
-0.339772
-0.329241
-0.317588
-0.304924
-0.291662
-0.278294
-0.265233
-0.252756
-0.241011
-0.230045
-0.219849
-0.210383
-0.201595
-0.193438
-0.185808
-0.178973
-0.388124
-0.37598
-0.366723
-0.356696
-0.345682
-0.333433
-0.319839
-0.305263
-0.290312
-0.27556
-0.261417
-0.248112
-0.235736
-0.224288
-0.213723
-0.203976
-0.194979
-0.186663
-0.178944
-0.171997
-0.398741
-0.385377
-0.375318
-0.364168
-0.351553
-0.337304
-0.321571
-0.305004
-0.288374
-0.272294
-0.257134
-0.243058
-0.230097
-0.218204
-0.2073
-0.197298
-0.188113
-0.179659
-0.171869
-0.164825
-0.409649
-0.39509
-0.384163
-0.371692
-0.357183
-0.340665
-0.322644
-0.304054
-0.285789
-0.268452
-0.252344
-0.237557
-0.224057
-0.211757
-0.200546
-0.190317
-0.180969
-0.172404
-0.164563
-0.157441
-0.420675
-0.404963
-0.39308
-0.379054
-0.362345
-0.343326
-0.322923
-0.302328
-0.282499
-0.263986
-0.247004
-0.231565
-0.217577
-0.204911
-0.193429
-0.183006
-0.173525
-0.164877
-0.157008
-0.149829
-0.431608
-0.414804
-0.40185
-0.386005
-0.366802
-0.345102
-0.322283
-0.299743
-0.278443
-0.258846
-0.241068
-0.225041
-0.210617
-0.19763
-0.185918
-0.175337
-0.165755
-0.157059
-0.149184
-0.141976
-0.442206
-0.42438
-0.410218
-0.392271
-0.370311
-0.345818
-0.320608
-0.296219
-0.273559
-0.252978
-0.234487
-0.217939
-0.203137
-0.18988
-0.177984
-0.167286
-0.157641
-0.148931
-0.141076
-0.133868
-0.452192
-0.433429
-0.417894
-0.397561
-0.372638
-0.34531
-0.317791
-0.29168
-0.267786
-0.246329
-0.227212
-0.210217
-0.1951
-0.181629
-0.169599
-0.15883
-0.149165
-0.140479
-0.13267
-0.1255
-0.461264
-0.441655
-0.424564
-0.401584
-0.373561
-0.343431
-0.313732
-0.286053
-0.261064
-0.238845
-0.219197
-0.201835
-0.186472
-0.172848
-0.160739
-0.14995
-0.140311
-0.131692
-0.123964
-0.116879
-0.469104
-0.448744
-0.429904
-0.404056
-0.372877
-0.340048
-0.308342
-0.279269
-0.253336
-0.230477
-0.210399
-0.192756
-0.177222
-0.163512
-0.151384
-0.140628
-0.131065
-0.12256
-0.114958
-0.108022
-0.47538
-0.454366
-0.433587
-0.404713
-0.370407
-0.335045
-0.301539
-0.271265
-0.244546
-0.221179
-0.20078
-0.182948
-0.167324
-0.1536
-0.141516
-0.130849
-0.121412
-0.113067
-0.105647
-0.0989326
-0.479762
-0.458188
-0.435299
-0.403313
-0.365993
-0.32832
-0.293253
-0.261985
-0.23465
-0.210911
-0.190305
-0.172384
-0.156757
-0.143095
-0.131122
-0.120602
-0.11134
-0.103197
-0.0960014
-0.0895568
-0.481929
-0.459887
-0.434749
-0.39965
-0.359506
-0.319792
-0.283424
-0.251381
-0.223606
-0.199641
-0.178951
-0.161045
-0.145507
-0.131986
-0.120193
-0.10988
-0.100847
-0.0929522
-0.0859885
-0.0797556
-0.481575
-0.459152
-0.43168
-0.39355
-0.350843
-0.309397
-0.272007
-0.239416
-0.211386
-0.187345
-0.166698
-0.148918
-0.133563
-0.120268
-0.108726
-0.0986826
-0.0899374
-0.0823521
-0.0756195
-0.0694638
-0.478425
-0.455704
-0.425872
-0.384877
-0.339927
-0.297089
-0.258968
-0.226066
-0.197967
-0.174007
-0.153536
-0.135994
-0.120922
-0.107938
-0.0967287
-0.0870173
-0.078614
-0.0714063
-0.0649201
-0.0590139
-0.472236
-0.4493
-0.417154
-0.373536
-0.326712
-0.282841
-0.244291
-0.211315
-0.183339
-0.15962
-0.13946
-0.122277
-0.107591
-0.095004
-0.084216
-0.0749074
-0.0669229
-0.0600783
-0.0538934
-0.0484382
-0.462808
-0.439741
-0.405402
-0.35947
-0.311177
-0.266649
-0.227971
-0.19516
-0.167502
-0.144187
-0.124485
-0.107781
-0.0935957
-0.0815005
-0.0711845
-0.0623586
-0.0548475
-0.0484145
-0.0425898
-0.0376605
-0.449989
-0.426887
-0.390532
-0.342661
-0.29333
-0.248522
-0.210016
-0.177608
-0.150479
-0.127735
-0.108644
-0.0925352
-0.0789368
-0.067426
-0.0576668
-0.0493891
-0.0424062
-0.0364404
-0.0310272
-0.0266624
-0.433675
-0.410648
-0.372509
-0.323123
-0.273203
-0.228492
-0.190451
-0.158689
-0.132323
-0.110309
-0.0919379
-0.0765524
-0.0636488
-0.0528088
-0.0436883
-0.0360247
-0.0296258
-0.0241789
-0.0192212
-0.0154563
-0.413819
-0.390988
-0.351345
-0.300909
-0.250857
-0.206613
-0.169338
-0.138507
-0.113025
-0.0919196
-0.0744161
-0.0598699
-0.0477656
-0.0376839
-0.02928
-0.0222963
-0.016537
-0.0116552
-0.00719386
-0.00406696
-0.390426
-0.367927
-0.327106
-0.276113
-0.22637
-0.182961
-0.146773
-0.117049
-0.0926626
-0.0726208
-0.0561252
-0.0425336
-0.031329
-0.0220914
-0.014479
-0.00824019
-0.00317451
0.00109808
0.00502251
0.00747424
-0.363551
-0.341543
-0.299928
-0.248874
-0.199815
-0.157628
-0.122793
-0.0944063
-0.0713034
-0.0524772
-0.0371219
-0.0245966
-0.0143875
-0.00607668
0.000672258
0.00610349
0.0104235
0.0140427
0.017387
0.0191279
-0.333304
-0.311969
-0.270004
-0.2193
-0.171295
-0.130707
-0.0975035
-0.0706707
-0.0490276
-0.0315627
-0.0174719
-0.00611927
0.00300376
0.0103095
0.0161265
0.0206908
0.0242164
0.0271394
0.029857
0.0308507
-0.29985
-0.279409
-0.237432
-0.187345
-0.141117
-0.102362
-0.0710237
-0.0459458
-0.0259265
-0.00995991
0.00275018
0.0128311
0.0207832
0.0270105
0.0318307
0.0354729
0.0381619
0.0403523
0.0423986
0.0426138
-0.263404
-0.244153
-0.202025
-0.15355
-0.109353
-0.0727399
-0.0434876
-0.0203466
-0.00210232
0.0122397
0.0234623
0.0321807
0.0388839
0.0439639
0.0477252
0.0503931
0.0522109
0.0536415
0.0549745
0.0543951
-0.224173
-0.206439
-0.164176
-0.118029
-0.0762089
-0.042006
-0.0150406
0.00600017
0.0223331
0.0349365
0.0445756
0.0518499
0.0572343
0.0611038
0.0637468
0.0653913
0.066306
0.0669372
0.0674697
0.0660341
-0.182382
-0.165922
-0.12499
-0.0810338
-0.0418897
-0.0103378
0.0141619
0.0329577
0.047259
0.0580232
0.0659947
0.0717546
0.0757594
0.0783633
0.0798378
0.080421
0.0803996
0.0801276
0.0795933
0.0770365
-0.138427
-0.123425
-0.084324
-0.0428317
-0.00661577
0.0220782
0.043955
0.0603805
0.0725466
0.0813859
0.0876187
0.0918051
0.0943803
0.0956756
0.0959505
0.0954609
0.0944772
0.0931201
0.0910445
0.086978
-0.0927387
-0.0792222
-0.0423645
-0.00368374
0.0293795
0.0550438
0.0741652
0.0881153
0.0980604
0.104904
0.109341
0.111907
0.113013
0.112971
0.112036
0.110485
0.108522
0.105922
0.102085
0.0968975
-0.0455873
-0.0337412
0.000587418
0.0361422
0.0658556
0.0883512
0.104611
0.116002
0.123659
0.128454
0.131051
0.131961
0.131571
0.130172
0.128025
0.125412
0.122428
0.118546
0.113337
0.110011
0.00263556
0.0126255
0.0441913
0.0763639
0.102566
0.121786
0.135106
0.143877
0.149198
0.151905
0.152633
0.151865
0.149962
0.147202
0.14384
0.140131
0.136052
0.131026
0.125196
0.12265
0.0515153
0.0594954
0.0880957
0.116689
0.139259
0.15513
0.165457
0.17157
0.174527
0.175126
0.173971
0.171515
0.168096
0.163976
0.159402
0.154584
0.149429
0.143447
0.137151
0.134384
0.100633
0.106481
0.131948
0.156818
0.175679
0.188161
0.195472
0.198912
0.199496
0.197984
0.194946
0.190805
0.185877
0.180407
0.174622
0.168694
0.162506
0.155679
0.148879
0.145529
0.149566
0.153191
0.175397
0.196455
0.211571
0.220656
0.224955
0.22573
0.223954
0.220345
0.215438
0.209629
0.20321
0.196406
0.189425
0.182404
0.175225
0.167589
0.1602
0.156115
0.197894
0.199235
0.218096
0.235303
0.246679
0.252394
0.253712
0.251856
0.24775
0.242075
0.23533
0.227883
0.22
0.211889
0.203733
0.195647
0.187515
0.17909
0.17107
0.166189
0.2452
0.244228
0.259705
0.27307
0.280755
0.283158
0.281553
0.27712
0.270737
0.263044
0.254506
0.245461
0.236154
0.22677
0.217472
0.208354
0.199301
0.190107
0.181441
0.175739
0.291075
0.287792
0.299895
0.309475
0.313552
0.312734
0.308292
0.301359
0.292769
0.283123
0.272851
0.262264
0.251581
0.24097
0.23057
0.220459
0.210523
0.200585
0.191277
0.184746
0.335125
0.329563
0.338347
0.344242
0.344836
0.340917
0.333747
0.324414
0.313708
0.302188
0.290255
0.278192
0.266194
0.254409
0.242957
0.231897
0.221119
0.210472
0.200537
0.193184
0.376969
0.369192
0.374757
0.377113
0.374381
0.36751
0.357746
0.346134
0.333417
0.320122
0.306615
0.293152
0.27991
0.267014
0.254566
0.242609
0.231037
0.219721
0.209185
0.201024
0.416249
0.406348
0.408838
0.407839
0.401973
0.392325
0.380126
0.366374
0.351772
0.336811
0.321828
0.307056
0.292648
0.278713
0.265334
0.252538
0.240226
0.228288
0.21718
0.208241
0.452626
0.440723
0.440321
0.43619
0.427411
0.41519
0.400734
0.384999
0.368652
0.35215
0.335804
0.319821
0.304337
0.289442
0.275203
0.261632
0.248639
0.236129
0.224488
0.214809
0.485788
0.472031
0.46896
0.461954
0.450512
0.435941
0.419426
0.401885
0.383949
0.366043
0.348455
0.33137
0.314907
0.29914
0.284117
0.269843
0.256233
0.243207
0.231075
0.220703
0.515453
0.500015
0.494529
0.484936
0.471107
0.454433
0.436076
0.416919
0.397561
0.378401
0.359703
0.341634
0.324297
0.30775
0.292028
0.277127
0.262968
0.249483
0.236909
0.225903
0.541365
0.524442
0.516828
0.504965
0.489047
0.470535
0.450568
0.429999
0.409399
0.389144
0.369478
0.350551
0.332451
0.315225
0.298893
0.283444
0.268809
0.254926
0.241963
0.230392
0.563305
0.545112
0.535683
0.521891
0.504201
0.484131
0.462801
0.441038
0.419387
0.398205
0.37772
0.358067
0.339322
0.321521
0.304674
0.288762
0.273725
0.259508
0.246212
0.234154
0.581085
0.561855
0.550947
0.535586
0.516459
0.495126
0.472691
0.449959
0.427457
0.405525
0.384376
0.364135
0.344868
0.326601
0.309337
0.293051
0.277691
0.263203
0.249637
0.237178
0.594554
0.574533
0.5625
0.545948
0.525732
0.503441
0.48017
0.456704
0.433557
0.411056
0.389405
0.368719
0.349056
0.330438
0.312858
0.296289
0.280683
0.265992
0.25222
0.239454
0.603597
0.583044
0.570252
0.552899
0.531951
0.509018
0.485184
0.461226
0.437646
0.414764
0.392775
0.37179
0.351863
0.333008
0.315216
0.298457
0.282688
0.26786
0.253949
0.240974
0.439697
0.416623
0.394466
0.373331
0.35327
0.334297
0.316398
0.299544
0.283693
0.268797
0.254815
0.241736
-0.281564
-0.28166
-0.281846
-0.282111
-0.282455
-0.282932
-0.283644
-0.283879
-0.282443
-0.283978
-0.282763
-0.283988
-0.283052
-0.283738
-0.283253
-0.283056
-0.283207
-0.28146
-0.281813
-0.282661
-0.280873
-0.279982
-0.281352
-0.27978
-0.278947
-0.277532
-0.279106
-0.27799
-0.27739
-0.274406
-0.275867
-0.275382
-0.275167
-0.270549
-0.27175
-0.271974
-0.27218
-0.272285
-0.265963
-0.267063
-0.267912
-0.268443
-0.268799
-0.260988
-0.262185
-0.263323
-0.264025
-0.264677
-0.265298
-0.256129
-0.257407
-0.258221
-0.258837
-0.259673
-0.260505
-0.250615
-0.253334
-0.253966
-0.254595
-0.255567
-0.256551
-0.257364
-0.2446
-0.248249
-0.248893
-0.24944
-0.250492
-0.251644
-0.252622
-0.238585
-0.242798
-0.243524
-0.244048
-0.245188
-0.246499
-0.24763
-0.232691
-0.237198
-0.238096
-0.238693
-0.239932
-0.24138
-0.242645
-0.226814
-0.231563
-0.232692
-0.233421
-0.23476
-0.236322
-0.237705
-0.221029
-0.225978
-0.227345
-0.228228
-0.22967
-0.231331
-0.232819
-0.215415
-0.220491
-0.222077
-0.223123
-0.22467
-0.226423
-0.228005
-0.20997
-0.215122
-0.216907
-0.218117
-0.21977
-0.221609
-0.223278
-0.20469
-0.209889
-0.211851
-0.213218
-0.214976
-0.216896
-0.218645
-0.199584
-0.204804
-0.206921
-0.208434
-0.210292
-0.212289
-0.21411
-0.194651
-0.199871
-0.202121
-0.20377
-0.205722
-0.207789
-0.209677
-0.189886
-0.19509
-0.197459
-0.19923
-0.201268
-0.203399
-0.205347
-0.185288
-0.190464
-0.192935
-0.194817
-0.196933
-0.199122
-0.201124
-0.180857
-0.185992
-0.188551
-0.190532
-0.192717
-0.194958
-0.197009
-0.176589
-0.181673
-0.184308
-0.186376
-0.188623
-0.190907
-0.193002
-0.172482
-0.177506
-0.180204
-0.182349
-0.184648
-0.186971
-0.189103
-0.16853
-0.173488
-0.176237
-0.17845
-0.180793
-0.183149
-0.185312
-0.164731
-0.169616
-0.172406
-0.174676
-0.177057
-0.179438
-0.181628
-0.161077
-0.165886
-0.168708
-0.171025
-0.173437
-0.17584
-0.178051
-0.157565
-0.162293
-0.165138
-0.167495
-0.169932
-0.17235
-0.174579
-0.154189
-0.158834
-0.161694
-0.164084
-0.16654
-0.168969
-0.171211
-0.150943
-0.155504
-0.158372
-0.160788
-0.163257
-0.165693
-0.167944
-0.147822
-0.152298
-0.155169
-0.157604
-0.160082
-0.162521
-0.164778
-0.144823
-0.149213
-0.152081
-0.15453
-0.157012
-0.159451
-0.16171
-0.141939
-0.146243
-0.149104
-0.151562
-0.154045
-0.15648
-0.158738
-0.139168
-0.143385
-0.146235
-0.148698
-0.151178
-0.153606
-0.155861
-0.136504
-0.140635
-0.14347
-0.145935
-0.148409
-0.150827
-0.153076
-0.133943
-0.137989
-0.140807
-0.143269
-0.145734
-0.148141
-0.150382
-0.131481
-0.135443
-0.138241
-0.140697
-0.143152
-0.145545
-0.147776
-0.129115
-0.132993
-0.13577
-0.138218
-0.140659
-0.143037
-0.145256
-0.126841
-0.130637
-0.13339
-0.135828
-0.138253
-0.140615
-0.14282
-0.124656
-0.128371
-0.131098
-0.133523
-0.135932
-0.138276
-0.140467
-0.122555
-0.12619
-0.128891
-0.131303
-0.133694
-0.136018
-0.138193
-0.120536
-0.124094
-0.126767
-0.129163
-0.131535
-0.133838
-0.135997
-0.118595
-0.122077
-0.124723
-0.127102
-0.129453
-0.131736
-0.133877
-0.116731
-0.120139
-0.122755
-0.125116
-0.127447
-0.129708
-0.13183
-0.114939
-0.118274
-0.120861
-0.123204
-0.125513
-0.127752
-0.129856
-0.113217
-0.116482
-0.11904
-0.121363
-0.12365
-0.125867
-0.127952
-0.111563
-0.11476
-0.117288
-0.119591
-0.121856
-0.12405
-0.126115
-0.109975
-0.113105
-0.115603
-0.117886
-0.120129
-0.1223
-0.124345
-0.108449
-0.111515
-0.113984
-0.116246
-0.118466
-0.120614
-0.12264
-0.106984
-0.109987
-0.112427
-0.114668
-0.116866
-0.118991
-0.120997
-0.105578
-0.10852
-0.110931
-0.113152
-0.115326
-0.117429
-0.119415
-0.104229
-0.107112
-0.109494
-0.111694
-0.113847
-0.115927
-0.117893
-0.102934
-0.10576
-0.108115
-0.110294
-0.112424
-0.114482
-0.116429
-0.101692
-0.104464
-0.106791
-0.10895
-0.111058
-0.113094
-0.115022
-0.100502
-0.103221
-0.105521
-0.107659
-0.109746
-0.111761
-0.113669
-0.0993616
-0.102029
-0.104303
-0.106422
-0.108487
-0.110481
-0.11237
-0.0982693
-0.100888
-0.103136
-0.105235
-0.107279
-0.109252
-0.111123
-0.0972238
-0.0997949
-0.102018
-0.104098
-0.106122
-0.108075
-0.109928
-0.0962238
-0.0987493
-0.100948
-0.103009
-0.105014
-0.106947
-0.108782
-0.0952678
-0.0977497
-0.0999249
-0.101968
-0.103953
-0.105867
-0.107685
-0.0943547
-0.0967947
-0.0989472
-0.100972
-0.102938
-0.104834
-0.106635
-0.0934834
-0.0958832
-0.0980136
-0.100021
-0.101969
-0.103847
-0.105632
-0.0926527
-0.0950141
-0.0971233
-0.099114
-0.101045
-0.102905
-0.104674
-0.0918616
-0.0941863
-0.096275
-0.0982496
-0.100163
-0.102006
-0.103761
-0.091109
-0.0933987
-0.0954678
-0.0974267
-0.0993241
-0.101151
-0.102891
-0.0903942
-0.0926505
-0.0947008
-0.0966447
-0.0985263
-0.100338
-0.102064
-0.0897162
-0.0919408
-0.0939731
-0.0959025
-0.0977691
-0.0995655
-0.101278
-0.0890742
-0.0912687
-0.0932837
-0.0951993
-0.0970515
-0.0988337
-0.100533
-0.0884674
-0.0906333
-0.092632
-0.0945344
-0.0963729
-0.0981415
-0.0998286
-0.087895
-0.0900341
-0.0920172
-0.0939071
-0.0957325
-0.0974882
-0.0991635
-0.0873565
-0.0894702
-0.0914387
-0.0933166
-0.0951296
-0.096873
-0.0985372
-0.0868512
-0.088941
-0.0908956
-0.0927622
-0.0945636
-0.0962954
-0.0979491
-0.0863785
-0.088446
-0.0903875
-0.0922435
-0.0940338
-0.0957547
-0.0973985
-0.0859378
-0.0879844
-0.0899137
-0.0917598
-0.0935397
-0.0952504
-0.0968849
-0.0855287
-0.0875559
-0.0894738
-0.0913106
-0.0930809
-0.094782
-0.0964078
-0.0851506
-0.0871599
-0.0890672
-0.0908954
-0.0926567
-0.094349
-0.0959668
-0.0848031
-0.0867959
-0.0886936
-0.0905137
-0.0922669
-0.093951
-0.0955613
-0.0844859
-0.0864637
-0.0883524
-0.0901653
-0.0919108
-0.0935875
-0.0951909
-0.0841984
-0.0861626
-0.0880433
-0.0898496
-0.0915883
-0.0932582
-0.0948554
-0.0839406
-0.0858925
-0.087766
-0.0895663
-0.0912989
-0.0929627
-0.0945544
-0.0837119
-0.0856531
-0.0875202
-0.0893153
-0.0910424
-0.0927007
-0.0942875
-0.0835122
-0.085444
-0.0873055
-0.0890961
-0.0908185
-0.0924721
-0.0940545
-0.0833411
-0.0852651
-0.0871219
-0.0889086
-0.0906269
-0.0922765
-0.0938552
-0.0831986
-0.085116
-0.0869691
-0.0887526
-0.0904675
-0.0921138
-0.0936895
-0.0830846
-0.0849969
-0.0868469
-0.0886279
-0.0903402
-0.0919838
-0.093557
-0.0829988
-0.0849074
-0.0867554
-0.0885346
-0.0902448
-0.0918864
-0.0934578
-0.0829406
-0.0848474
-0.0866943
-0.0884723
-0.0901813
-0.0918215
-0.0933917
-0.0829101
-0.0848168
-0.0866635
-0.0884411
-0.0901495
-0.0917891
-0.0933586
-0.244536
-0.238366
-0.231335
-0.225225
-0.219389
-0.213603
-0.208054
-0.202743
-0.197599
-0.192627
-0.187841
-0.183232
-0.178794
-0.174526
-0.170427
-0.166489
-0.162706
-0.159072
-0.15558
-0.152225
-0.149002
-0.145904
-0.142928
-0.140068
-0.137321
-0.134681
-0.132144
-0.129707
-0.127366
-0.125116
-0.122954
-0.120877
-0.118881
-0.116963
-0.11512
-0.113349
-0.111648
-0.110014
-0.108445
-0.106937
-0.10549
-0.1041
-0.102766
-0.101486
-0.100258
-0.0990804
-0.0979516
-0.09687
-0.0958342
-0.0948427
-0.0938944
-0.0929878
-0.0921219
-0.0912956
-0.0905078
-0.0897575
-0.0890437
-0.0883657
-0.0877225
-0.0871134
-0.0865377
-0.0859946
-0.0854836
-0.0850039
-0.0845552
-0.0841367
-0.083748
-0.0833888
-0.0830585
-0.0827568
-0.0824833
-0.0822377
-0.0820198
-0.0818292
-0.0816657
-0.0815292
-0.0814194
-0.0813363
-0.0812786
-0.0812471
-0.237761
-0.231629
-0.224549
-0.218663
-0.213225
-0.207677
-0.202255
-0.197092
-0.192104
-0.187268
-0.182617
-0.17815
-0.173855
-0.169725
-0.165761
-0.161954
-0.158298
-0.154787
-0.151416
-0.148178
-0.145069
-0.142084
-0.139217
-0.136463
-0.133819
-0.131279
-0.128839
-0.126495
-0.124243
-0.12208
-0.120002
-0.118005
-0.116086
-0.114243
-0.112472
-0.11077
-0.109135
-0.107564
-0.106056
-0.104607
-0.103215
-0.101879
-0.100597
-0.0993662
-0.0981855
-0.0970531
-0.0959674
-0.0949271
-0.0939306
-0.0929767
-0.0920641
-0.0911917
-0.0903582
-0.0895627
-0.088804
-0.0880814
-0.0873938
-0.0867405
-0.0861206
-0.0855334
-0.0849782
-0.0844544
-0.0839612
-0.0834981
-0.0830647
-0.0826603
-0.0822845
-0.0819369
-0.0816171
-0.0813247
-0.0810593
-0.0808207
-0.0806086
-0.0804226
-0.0802626
-0.0801284
-0.0800199
-0.0799367
-0.0798774
-0.0798442
-0.231897
-0.226119
-0.219009
-0.212967
-0.207581
-0.202125
-0.196722
-0.191606
-0.186729
-0.182015
-0.177477
-0.173131
-0.168962
-0.164959
-0.161117
-0.157434
-0.1539
-0.150509
-0.147256
-0.144134
-0.141138
-0.138262
-0.135501
-0.132851
-0.130306
-0.127863
-0.125517
-0.123264
-0.1211
-0.119021
-0.117024
-0.115106
-0.113264
-0.111493
-0.109793
-0.108159
-0.106589
-0.105081
-0.103633
-0.102242
-0.100906
-0.0996231
-0.0983919
-0.0972102
-0.0960765
-0.0949891
-0.0939465
-0.0929474
-0.0919903
-0.091074
-0.0901973
-0.089359
-0.088558
-0.0877934
-0.0870642
-0.0863694
-0.0857082
-0.0850798
-0.0844835
-0.0839184
-0.083384
-0.0828796
-0.0824046
-0.0819584
-0.0815405
-0.0811506
-0.0807879
-0.0804523
-0.0801433
-0.0798604
-0.0796035
-0.0793722
-0.0791662
-0.0789853
-0.0788292
-0.0786977
-0.0785908
-0.078508
-0.0784479
-0.0784139
-0.225796
-0.220045
-0.212935
-0.206845
-0.201568
-0.196334
-0.191097
-0.186098
-0.181358
-0.176793
-0.172388
-0.168168
-0.164129
-0.160255
-0.156539
-0.152978
-0.149564
-0.146291
-0.143152
-0.140142
-0.137254
-0.134485
-0.131827
-0.129277
-0.12683
-0.124481
-0.122226
-0.120061
-0.117982
-0.115985
-0.114068
-0.112226
-0.110457
-0.108758
-0.107125
-0.105557
-0.10405
-0.102603
-0.101213
-0.0998782
-0.098596
-0.097365
-0.0961832
-0.095049
-0.0939607
-0.0929168
-0.0919158
-0.0909565
-0.0900374
-0.0891575
-0.0883154
-0.0875101
-0.0867406
-0.0860059
-0.0853051
-0.0846373
-0.0840016
-0.0833974
-0.0828238
-0.0822802
-0.0817659
-0.0812804
-0.080823
-0.0803933
-0.0799906
-0.0796146
-0.0792649
-0.078941
-0.0786425
-0.0783691
-0.0781205
-0.0778965
-0.0776966
-0.0775208
-0.0773687
-0.0772402
-0.0771351
-0.0770531
-0.0769927
-0.0769583
-0.219648
-0.214064
-0.207145
-0.201087
-0.195835
-0.190717
-0.185596
-0.18067
-0.176015
-0.171567
-0.167289
-0.163189
-0.159271
-0.155522
-0.151931
-0.14849
-0.145196
-0.14204
-0.139016
-0.136118
-0.13334
-0.130676
-0.128122
-0.125672
-0.123322
-0.121067
-0.118903
-0.116825
-0.114831
-0.112917
-0.111078
-0.109313
-0.107617
-0.105988
-0.104424
-0.102921
-0.101477
-0.100091
-0.0987586
-0.0974794
-0.096251
-0.0950715
-0.0939392
-0.0928524
-0.0918095
-0.0908092
-0.0898499
-0.0889305
-0.0880496
-0.087206
-0.0863987
-0.0856266
-0.0848887
-0.0841841
-0.0835119
-0.0828712
-0.0822613
-0.0816814
-0.0811308
-0.0806089
-0.080115
-0.0796486
-0.0792091
-0.078796
-0.0784088
-0.0780472
-0.0777106
-0.0773986
-0.077111
-0.0768474
-0.0766075
-0.076391
-0.0761977
-0.0760273
-0.0758796
-0.0757544
-0.0756517
-0.0755709
-0.0755108
-0.0754764
-0.213405
-0.207899
-0.201133
-0.195116
-0.189884
-0.18488
-0.179923
-0.175138
-0.170608
-0.166298
-0.162164
-0.158199
-0.154411
-0.15079
-0.147326
-0.144009
-0.140835
-0.137796
-0.134887
-0.1321
-0.129431
-0.126872
-0.12442
-0.122069
-0.119815
-0.117652
-0.115577
-0.113587
-0.111676
-0.109842
-0.108081
-0.106391
-0.104767
-0.103208
-0.10171
-0.100272
-0.0988902
-0.0975631
-0.0962884
-0.0950642
-0.0938886
-0.0927598
-0.0916761
-0.090636
-0.0896378
-0.0886804
-0.0877621
-0.086882
-0.0860386
-0.085231
-0.0844579
-0.0837185
-0.0830118
-0.0823369
-0.0816929
-0.081079
-0.0804945
-0.0799387
-0.0794109
-0.0789104
-0.0784368
-0.0779893
-0.0775676
-0.0771711
-0.0767993
-0.0764519
-0.0761285
-0.0758286
-0.0755519
-0.0752982
-0.075067
-0.0748583
-0.0746717
-0.0745069
-0.0743639
-0.0742423
-0.0741423
-0.0740631
-0.0740038
-0.0739696
-0.207062
-0.20164
-0.195088
-0.189192
-0.184018
-0.179113
-0.174297
-0.169644
-0.165226
-0.161033
-0.157027
-0.153192
-0.14953
-0.146035
-0.142695
-0.139502
-0.136448
-0.133527
-0.130733
-0.128058
-0.125497
-0.123044
-0.120694
-0.118442
-0.116283
-0.114213
-0.112228
-0.110323
-0.108496
-0.106742
-0.105059
-0.103443
-0.101891
-0.100401
-0.0989698
-0.0975954
-0.0962754
-0.0950076
-0.0937899
-0.0926204
-0.0914974
-0.0904191
-0.0893839
-0.0883902
-0.0874367
-0.0865219
-0.0856446
-0.0848036
-0.0839977
-0.0832259
-0.0824871
-0.0817804
-0.0811048
-0.0804596
-0.0798438
-0.0792568
-0.0786978
-0.0781661
-0.0776611
-0.0771823
-0.0767289
-0.0763006
-0.0758968
-0.075517
-0.0751608
-0.0748279
-0.0745177
-0.0742301
-0.0739646
-0.0737209
-0.0734989
-0.0732981
-0.0731185
-0.0729597
-0.0728217
-0.0727041
-0.0726071
-0.07253
-0.0724718
-0.0724382
-0.200625
-0.195272
-0.188922
-0.183154
-0.178044
-0.173229
-0.168553
-0.164051
-0.159772
-0.155713
-0.151846
-0.148153
-0.144626
-0.141261
-0.13805
-0.134982
-0.13205
-0.129248
-0.126569
-0.124006
-0.121553
-0.119205
-0.116957
-0.114803
-0.11274
-0.110761
-0.108865
-0.107046
-0.105301
-0.103627
-0.10202
-0.100478
-0.0989976
-0.0975761
-0.096211
-0.0949001
-0.0936411
-0.092432
-0.0912707
-0.0901554
-0.0890845
-0.0880561
-0.0870689
-0.0861213
-0.0852119
-0.0843394
-0.0835027
-0.0827005
-0.0819318
-0.0811955
-0.0804907
-0.0798164
-0.0791718
-0.078556
-0.0779683
-0.077408
-0.0768743
-0.0763667
-0.0758845
-0.0754271
-0.0749941
-0.0745848
-0.0741989
-0.0738359
-0.0734954
-0.0731769
-0.0728802
-0.0726049
-0.0723507
-0.0721174
-0.0719045
-0.071712
-0.0715396
-0.0713871
-0.0712543
-0.0711411
-0.0710474
-0.0709727
-0.070916
-0.0708832
-0.194084
-0.188797
-0.182659
-0.177052
-0.172042
-0.167335
-0.162799
-0.158447
-0.154309
-0.150383
-0.14665
-0.143092
-0.139699
-0.136465
-0.133381
-0.130439
-0.127629
-0.124946
-0.122382
-0.119931
-0.117588
-0.115345
-0.113199
-0.111143
-0.109175
-0.107288
-0.10548
-0.103747
-0.102084
-0.10049
-0.0989593
-0.0974908
-0.0960811
-0.0947278
-0.0934284
-0.0921806
-0.0909823
-0.0898316
-0.0887265
-0.0876652
-0.086646
-0.0856674
-0.084728
-0.0838262
-0.0829608
-0.0821305
-0.0813342
-0.0805707
-0.079839
-0.0791382
-0.0784672
-0.0778253
-0.0772115
-0.0766252
-0.0760656
-0.0755319
-0.0750236
-0.07454
-0.0740806
-0.0736448
-0.0732321
-0.072842
-0.0724741
-0.072128
-0.0718032
-0.0714994
-0.0712163
-0.0709536
-0.0707109
-0.070488
-0.0702846
-0.0701006
-0.0699357
-0.0697897
-0.0696624
-0.0695538
-0.0694638
-0.0693918
-0.0693371
-0.0693055
-0.18743
-0.182213
-0.176285
-0.170848
-0.165954
-0.161362
-0.156967
-0.152767
-0.148779
-0.144998
-0.141407