/*--------------------------------*- C++ -*----------------------------------*\
  =========                 |
  \\      /  F ield         | OpenFOAM: The Open Source CFD Toolbox
   \\    /   O peration     | Website:  https://openfoam.org
    \\  /    A nd           | Version:  7
     \\/     M anipulation  |
\*---------------------------------------------------------------------------*/
FoamFile
{
    version     2.0;
    format      ascii;
    class       volScalarField;
    location    "45";
    object      p;
}
// * * * * * * * * * * * * * * * * * * * * * * * * * * * * * * * * * * * * * //

dimensions      [0 2 -2 0 0 0 0];

internalField   nonuniform List<scalar> 
3500
(
-0.184083
-0.177731
-0.171674
-0.165511
-0.159595
-0.15392
-0.14852
-0.143397
-0.138546
-0.133962
-0.129642
-0.125581
-0.121773
-0.118215
-0.114902
-0.111827
-0.108986
-0.106373
-0.103984
-0.101813
-0.0998553
-0.0981071
-0.0965641
-0.0952225
-0.0940789
-0.0931303
-0.0923745
-0.0918094
-0.0914335
-0.0912458
-0.181793
-0.175623
-0.169735
-0.163748
-0.157996
-0.152477
-0.147224
-0.142239
-0.137516
-0.133052
-0.128842
-0.124883
-0.121169
-0.117697
-0.114462
-0.111458
-0.108681
-0.106126
-0.103789
-0.101664
-0.099748
-0.0980358
-0.096524
-0.0952092
-0.0940881
-0.093158
-0.0924168
-0.0918624
-0.0914937
-0.0913096
-0.179442
-0.173449
-0.167731
-0.161919
-0.15633
-0.150967
-0.14586
-0.141012
-0.136417
-0.132072
-0.127973
-0.124116
-0.120497
-0.117111
-0.113954
-0.111022
-0.108311
-0.105815
-0.10353
-0.101452
-0.0995778
-0.0979023
-0.0964223
-0.0951348
-0.0940366
-0.0931255
-0.0923992
-0.0918559
-0.0914945
-0.091314
-0.17703
-0.171212
-0.165664
-0.160026
-0.154599
-0.149391
-0.144431
-0.13972
-0.135253
-0.131027
-0.127038
-0.123284
-0.119759
-0.116459
-0.113382
-0.110523
-0.107877
-0.10544
-0.103209
-0.101179
-0.0993462
-0.0977079
-0.0962604
-0.0950006
-0.0939259
-0.093034
-0.092323
-0.0917911
-0.0914371
-0.0912604
-0.174558
-0.168914
-0.163536
-0.158071
-0.152806
-0.147753
-0.142938
-0.138363
-0.134024
-0.129917
-0.126039
-0.122387
-0.118957
-0.115745
-0.112747
-0.10996
-0.10738
-0.105004
-0.102826
-0.100844
-0.0990548
-0.0974542
-0.0960396
-0.0948081
-0.0937573
-0.092885
-0.0921894
-0.0916691
-0.0913228
-0.0911498
-0.17203
-0.166558
-0.161349
-0.156056
-0.150953
-0.146054
-0.141384
-0.136946
-0.132734
-0.128746
-0.124979
-0.121429
-0.118094
-0.114969
-0.112051
-0.109338
-0.106824
-0.104508
-0.102384
-0.100451
-0.0987051
-0.0971428
-0.0957615
-0.0945586
-0.093532
-0.0926797
-0.0919999
-0.0914912
-0.0911527
-0.0909836
-0.169447
-0.164146
-0.159106
-0.153984
-0.149042
-0.144297
-0.139772
-0.13547
-0.131385
-0.127516
-0.12386
-0.120412
-0.117172
-0.114134
-0.111297
-0.108656
-0.10621
-0.103954
-0.101886
-0.100001
-0.0982989
-0.0967751
-0.0954275
-0.0942537
-0.0932516
-0.0924194
-0.0917556
-0.0912588
-0.0909282
-0.090763
-0.166811
-0.16168
-0.156809
-0.151857
-0.147076
-0.142484
-0.138105
-0.133937
-0.12998
-0.126229
-0.122683
-0.119339
-0.116193
-0.113242
-0.110486
-0.107919
-0.105539
-0.103344
-0.101331
-0.0994963
-0.0978378
-0.0963529
-0.0950392
-0.0938947
-0.0929174
-0.0921056
-0.091458
-0.0909732
-0.0906506
-0.0904894
-0.164123
-0.159162
-0.15446
-0.149677
-0.145057
-0.140619
-0.136383
-0.132351
-0.12852
-0.124888
-0.121452
-0.11821
-0.115159
-0.112296
-0.10962
-0.107127
-0.104815
-0.102681
-0.100723
-0.0989376
-0.0973233
-0.0958776
-0.0945982
-0.0934832
-0.0925309
-0.0917397
-0.0911083
-0.0906357
-0.0903211
-0.0901639
-0.161387
-0.156595
-0.152062
-0.147448
-0.142989
-0.138703
-0.134611
-0.130714
-0.127009
-0.123495
-0.120169
-0.117029
-0.114073
-0.111298
-0.108701
-0.106282
-0.104038
-0.101965
-0.100062
-0.098327
-0.0967572
-0.0953508
-0.0941059
-0.0930206
-0.0920934
-0.091323
-0.090708
-0.0902477
-0.0899412
-0.0897881
-0.158604
-0.153981
-0.149616
-0.145171
-0.140872
-0.136739
-0.13279
-0.129028
-0.125449
-0.122053
-0.118836
-0.115798
-0.112936
-0.110248
-0.107733
-0.105387
-0.10321
-0.101199
-0.0993514
-0.0976662
-0.0961411
-0.0947742
-0.0935638
-0.0925084
-0.0916065
-0.0908569
-0.0902586
-0.0898106
-0.0895123
-0.0893632
-0.155778
-0.151322
-0.147127
-0.14285
-0.138711
-0.134729
-0.130924
-0.127295
-0.123842
-0.120563
-0.117456
-0.114519
-0.111752
-0.109151
-0.106716
-0.104444
-0.102334
-0.100384
-0.0985922
-0.096957
-0.0954766
-0.0941493
-0.0929736
-0.0919482
-0.0910717
-0.0903431
-0.0897613
-0.0893257
-0.0890356
-0.0888907
-0.152909
-0.148623
-0.144596
-0.140486
-0.136507
-0.132677
-0.129013
-0.125518
-0.12219
-0.119028
-0.11603
-0.113195
-0.110521
-0.108007
-0.105652
-0.103454
-0.101411
-0.0995224
-0.0977862
-0.0962011
-0.0947654
-0.0934777
-0.0923368
-0.0913414
-0.0904904
-0.0897828
-0.0892177
-0.0887945
-0.0885127
-0.0883718
-0.150002
-0.145884
-0.142026
-0.138083
-0.134263
-0.130584
-0.127062
-0.1237
-0.120497
-0.117451
-0.114561
-0.111827
-0.109247
-0.106819
-0.104544
-0.102419
-0.100443
-0.098616
-0.0969353
-0.0954001
-0.0940091
-0.0927611
-0.091655
-0.0906896
-0.0898641
-0.0891775
-0.0886291
-0.0882184
-0.0879448
-0.0878081
-0.14706
-0.14311
-0.13942
-0.135644
-0.131982
-0.128453
-0.125073
-0.121843
-0.118764
-0.115834
-0.113052
-0.110418
-0.107931
-0.10559
-0.103394
-0.101342
-0.099433
-0.0976665
-0.0960411
-0.0945558
-0.0932094
-0.0920011
-0.0909297
-0.0899943
-0.0891943
-0.0885288
-0.0879971
-0.0875988
-0.0873335
-0.087201
-0.144084
-0.140303
-0.13678
-0.13317
-0.129667
-0.126288
-0.123048
-0.11995
-0.116993
-0.114178
-0.111504
-0.10897
-0.106575
-0.10432
-0.102203
-0.100224
-0.0983816
-0.0966758
-0.0951055
-0.0936699
-0.0923681
-0.0911992
-0.0901624
-0.0892571
-0.0884825
-0.087838
-0.087323
-0.0869372
-0.0866802
-0.0865517
-0.141079
-0.137467
-0.134111
-0.130666
-0.12732
-0.12409
-0.12099
-0.118022
-0.115188
-0.112488
-0.10992
-0.107485
-0.105182
-0.103012
-0.100974
-0.0990668
-0.097291
-0.0956456
-0.0941302
-0.0927441
-0.0914866
-0.090357
-0.0893548
-0.0884794
-0.0877302
-0.0871066
-0.0866083
-0.0862349
-0.0859861
-0.0858618
-0.138047
-0.134603
-0.131414
-0.128133
-0.124944
-0.121862
-0.118901
-0.116063
-0.113351
-0.110764
-0.108302
-0.105965
-0.103754
-0.101668
-0.0997081
-0.097873
-0.096163
-0.0945778
-0.0931169
-0.09178
-0.0905666
-0.0894762
-0.0885085
-0.0876628
-0.0869388
-0.0863362
-0.0858545
-0.0854935
-0.0852529
-0.0851327
-0.134992
-0.131717
-0.128693
-0.125576
-0.122543
-0.119607
-0.116783
-0.114075
-0.111484
-0.109009
-0.106652
-0.104413
-0.102293
-0.100291
-0.0984081
-0.0966443
-0.0949996
-0.093474
-0.0920673
-0.0907793
-0.0896098
-0.0885584
-0.0876248
-0.0868088
-0.08611
-0.0855281
-0.0850629
-0.0847142
-0.0844819
-0.0843657
-0.131918
-0.12881
-0.125951
-0.122996
-0.120118
-0.117328
-0.114641
-0.112061
-0.109589
-0.107226
-0.104973
-0.102831
-0.1008
-0.0988816
-0.0970755
-0.0953824
-0.0938025
-0.0923361
-0.0909832
-0.0897438
-0.0886177
-0.087605
-0.0867054
-0.0859188
-0.085245
-0.0846838
-0.0842351
-0.0838986
-0.0836744
-0.0835623
-0.128827
-0.125886
-0.123191
-0.120398
-0.117672
-0.115027
-0.112476
-0.110022
-0.107669
-0.105417
-0.103267
-0.10122
-0.0992786
-0.0974423
-0.0957123
-0.0940892
-0.0925736
-0.0911658
-0.0898662
-0.0886749
-0.0875921
-0.0866177
-0.0857519
-0.0849945
-0.0843455
-0.0838048
-0.0833724
-0.0830481
-0.082832
-0.0827239
-0.125723
-0.122949
-0.120416
-0.117783
-0.115209
-0.112707
-0.11029
-0.107962
-0.105726
-0.103583
-0.101535
-0.0995837
-0.0977299
-0.0959751
-0.0943204
-0.0927666
-0.0913145
-0.0899649
-0.088718
-0.0875744
-0.0865344
-0.085598
-0.0847656
-0.0840372
-0.0834128
-0.0828924
-0.0824762
-0.082164
-0.0819559
-0.0818519
-0.122611
-0.120002
-0.11763
-0.115155
-0.112732
-0.110371
-0.108087
-0.105883
-0.103763
-0.101728
-0.0997807
-0.0979229
-0.0961561
-0.0944819
-0.0929016
-0.0914163
-0.0900272
-0.0887349
-0.0875403
-0.0864439
-0.0854462
-0.0845475
-0.0837482
-0.0830484
-0.0824484
-0.0819482
-0.081548
-0.0812478
-0.0810476
-0.0809476
-0.119493
-0.117048
-0.114836
-0.112517
-0.110242
-0.108022
-0.105868
-0.103787
-0.101781
-0.0998532
-0.0980055
-0.0962402
-0.0945593
-0.0929646
-0.0914578
-0.0900402
-0.0887132
-0.0874777
-0.0863347
-0.0852849
-0.0843291
-0.0834676
-0.082701
-0.0820297
-0.0814537
-0.0809735
-0.0805892
-0.0803008
-0.0801085
-0.0800124
-0.116373
-0.114091
-0.112036
-0.109871
-0.107744
-0.105661
-0.103637
-0.101677
-0.0997838
-0.0979612
-0.0962116
-0.0945376
-0.0929414
-0.0914252
-0.0899909
-0.0886401
-0.0873743
-0.0861948
-0.0851028
-0.0840991
-0.0831846
-0.0823599
-0.0816257
-0.0809823
-0.0804303
-0.0799698
-0.0796011
-0.0793245
-0.0791399
-0.0790477
-0.113255
-0.111134
-0.109235
-0.107222
-0.105239
-0.103293
-0.101396
-0.0995548
-0.097773
-0.0960541
-0.0944012
-0.092817
-0.0913043
-0.0898654
-0.0885025
-0.0872176
-0.0860122
-0.084888
-0.0838462
-0.0828879
-0.0820142
-0.0812258
-0.0805235
-0.0799078
-0.0793793
-0.0789383
-0.0785851
-0.07832
-0.0781432
-0.0780548
-0.110142
-0.108181
-0.106434
-0.104571
-0.102731
-0.100919
-0.0991474
-0.0974233
-0.0957509
-0.0941341
-0.0925762
-0.0910805
-0.08965
-0.0882872
-0.0869946
-0.0857745
-0.0846286
-0.0835588
-0.0825665
-0.081653
-0.0808195
-0.0800669
-0.079396
-0.0788076
-0.0783023
-0.0778805
-0.0775426
-0.0772889
-0.0771197
-0.077035
-0.107038
-0.105234
-0.103638
-0.101923
-0.100222
-0.0985417
-0.0968935
-0.0952845
-0.0937197
-0.0922032
-0.0907388
-0.08933
-0.0879802
-0.0866922
-0.0854688
-0.0843124
-0.0832251
-0.0822088
-0.0812652
-0.0803957
-0.0796018
-0.0788844
-0.0782445
-0.077683
-0.0772005
-0.0767977
-0.0764748
-0.0762324
-0.0760706
-0.0759897
-0.103947
-0.102298
-0.100849
-0.0992786
-0.0977156
-0.0961641
-0.0946368
-0.0931409
-0.0916816
-0.0902635
-0.0888908
-0.0875674
-0.0862969
-0.0850824
-0.0839269
-0.082833
-0.0818032
-0.0808395
-0.0799438
-0.0791177
-0.0783626
-0.0776799
-0.0770705
-0.0765354
-0.0760754
-0.0756912
-0.0753831
-0.0751518
-0.0749974
-0.0749201
-0.100872
-0.0993751
-0.098071
-0.096642
-0.0952135
-0.0937885
-0.0923797
-0.0909945
-0.0896386
-0.088317
-0.0870343
-0.0857945
-0.0846017
-0.0834593
-0.0823704
-0.081338
-0.0803646
-0.0794525
-0.0786038
-0.0778202
-0.0771034
-0.0764547
-0.0758752
-0.0753661
-0.0749283
-0.0745623
-0.0742688
-0.0740484
-0.0739012
-0.0738275
-0.097816
-0.0964686
-0.0953059
-0.0940155
-0.0927186
-0.0914173
-0.0901244
-0.0888476
-0.0875929
-0.0863658
-0.085171
-0.0840132
-0.0828965
-0.0818247
-0.0808011
-0.0798289
-0.0789108
-0.0780493
-0.0772467
-0.0765048
-0.0758255
-0.0752101
-0.0746601
-0.0741765
-0.0737603
-0.0734123
-0.0731332
-0.0729234
-0.0727833
-0.0727132
-0.0947829
-0.0935817
-0.092557
-0.0914019
-0.0902335
-0.089053
-0.0878733
-0.0867022
-0.0855465
-0.0844116
-0.083303
-0.0822253
-0.081183
-0.0801802
-0.0792205
-0.0783072
-0.0774432
-0.0766313
-0.0758738
-0.0751728
-0.0745302
-0.0739476
-0.0734263
-0.0729678
-0.0725728
-0.0722425
-0.0719773
-0.071778
-0.0716449
-0.0715783
-0.0917758
-0.0907173
-0.0898269
-0.0888037
-0.0877605
-0.0866977
-0.0856284
-0.0845606
-0.0835013
-0.0824565
-0.0814318
-0.0804324
-0.0794629
-0.0785275
-0.0776302
-0.0767744
-0.0759634
-0.0752
-0.0744866
-0.0738256
-0.0732189
-0.0726683
-0.0721753
-0.0717412
-0.0713671
-0.071054
-0.0708026
-0.0706136
-0.0704873
-0.0704241
-0.0887976
-0.0878782
-0.0871185
-0.0862234
-0.085302
-0.0843538
-0.0833918
-0.0824246
-0.0814592
-0.0805022
-0.0795594
-0.0786363
-0.0777376
-0.076868
-0.0760316
-0.0752321
-0.0744728
-0.0737567
-0.0730864
-0.0724645
-0.0718929
-0.0713736
-0.0709082
-0.070498
-0.0701443
-0.0698481
-0.0696102
-0.0694311
-0.0693115
-0.0692517
-0.0858514
-0.0850673
-0.0844341
-0.0836635
-0.0828603
-0.0820233
-0.0811657
-0.0802961
-0.0794222
-0.0785505
-0.0776874
-0.0768385
-0.0760089
-0.0752034
-0.0744264
-0.0736816
-0.0729727
-0.0723027
-0.0716746
-0.0710908
-0.0705535
-0.0700647
-0.0696262
-0.0692395
-0.0689057
-0.0686259
-0.0684011
-0.0682319
-0.0681188
-0.0680622
-0.0829399
-0.0822871
-0.0817764
-0.0811263
-0.0804375
-0.0797083
-0.0789519
-0.0781771
-0.0773919
-0.0766032
-0.0758174
-0.0750406
-0.0742782
-0.0735351
-0.0728158
-0.0721243
-0.0714645
-0.0708395
-0.0702523
-0.0697056
-0.0692018
-0.0687429
-0.0683306
-0.0679666
-0.0676523
-0.0673886
-0.0671766
-0.067017
-0.0669103
-0.0668569
-0.0800658
-0.0795401
-0.0791476
-0.0786139
-0.0780357
-0.0774108
-0.0767523
-0.0760694
-0.07537
-0.0746617
-0.073951
-0.0732442
-0.072547
-0.0718644
-0.0712012
-0.0705616
-0.0699494
-0.0693682
-0.0688209
-0.0683104
-0.0678391
-0.0674091
-0.0670225
-0.0666807
-0.0663853
-0.0661373
-0.0659378
-0.0657875
-0.065687
-0.0656367
-0.0772317
-0.0768286
-0.07655
-0.0761285
-0.075657
-0.0751327
-0.0745688
-0.0739745
-0.0733583
-0.0727277
-0.0720897
-0.0714508
-0.0708167
-0.0701928
-0.069584
-0.0689947
-0.0684288
-0.06789
-0.0673815
-0.0669061
-0.0664665
-0.0660647
-0.0657029
-0.0653828
-0.0651058
-0.0648731
-0.0646857
-0.0645445
-0.0644501
-0.0644028
-0.0744398
-0.0741549
-0.0739855
-0.073672
-0.0733031
-0.0728757
-0.0724029
-0.0718942
-0.0713582
-0.0708027
-0.070235
-0.0696616
-0.0690886
-0.0685215
-0.0679654
-0.0674248
-0.0669039
-0.0664063
-0.0659353
-0.065494
-0.0650851
-0.0647107
-0.0643731
-0.064074
-0.0638148
-0.0635969
-0.0634214
-0.0632891
-0.0632005
-0.0631561
-0.0716923
-0.0715209
-0.0714562
-0.0712462
-0.0709758
-0.0706415
-0.0702564
-0.06983
-0.0693713
-0.0688882
-0.0683882
-0.0678781
-0.0673641
-0.0668519
-0.0663468
-0.0658533
-0.0653757
-0.064918
-0.0644834
-0.0640752
-0.063696
-0.0633482
-0.063034
-0.0627552
-0.0625134
-0.06231
-0.0621459
-0.0620221
-0.0619392
-0.0618977
-0.0689914
-0.0689286
-0.0689639
-0.0688529
-0.0686768
-0.0684317
-0.0681306
-0.0677834
-0.0673989
-0.0669854
-0.0665506
-0.0661014
-0.0656443
-0.0651851
-0.0647291
-0.0642811
-0.0638456
-0.0634263
-0.063027
-0.0626507
-0.0623002
-0.0619782
-0.0616866
-0.0614276
-0.0612026
-0.0610131
-0.0608601
-0.0607447
-0.0606673
-0.0606286
-0.0663388
-0.0663798
-0.0665102
-0.0664937
-0.0664076
-0.0662478
-0.0660272
-0.0657557
-0.0654423
-0.0650957
-0.0647235
-0.064333
-0.0639306
-0.0635223
-0.0631136
-0.0627095
-0.0623144
-0.0619323
-0.0615669
-0.0612215
-0.0608988
-0.0606016
-0.060332
-0.060092
-0.0598833
-0.0597073
-0.0595651
-0.0594577
-0.0593857
-0.0593496
-0.0637363
-0.0638759
-0.0640967
-0.06417
-0.0641696
-0.0640911
-0.0639473
-0.0637482
-0.0635029
-0.0632203
-0.0629081
-0.0625737
-0.0622239
-0.0618646
-0.0615014
-0.0611394
-0.0607832
-0.0604369
-0.0601043
-0.0597886
-0.0594927
-0.0592195
-0.0589711
-0.0587495
-0.0585565
-0.0583935
-0.0582617
-0.058162
-0.0580952
-0.0580617
-0.0611853
-0.0614185
-0.0617248
-0.0618833
-0.0619642
-0.061963
-0.0618923
-0.0617621
-0.0615818
-0.0613603
-0.0611055
-0.0608249
-0.0605253
-0.0602129
-0.0598934
-0.0595719
-0.0592531
-0.0589412
-0.05864
-0.0583529
-0.0580829
-0.0578327
-0.0576047
-0.0574008
-0.057223
-0.0570725
-0.0569508
-0.0568586
-0.0567968
-0.0567657
-0.0586872
-0.0590089
-0.0593957
-0.0596347
-0.0597926
-0.0598645
-0.0598632
-0.0597985
-0.0596801
-0.0595167
-0.0593167
-0.0590874
-0.0588358
-0.0585683
-0.0582906
-0.0580079
-0.0577249
-0.057446
-0.057175
-0.0569154
-0.0566702
-0.0564422
-0.0562337
-0.056047
-0.0558837
-0.0557453
-0.0556332
-0.0555483
-0.0554912
-0.0554626
-0.0562431
-0.0566481
-0.0571105
-0.0574253
-0.0576557
-0.0577968
-0.0578611
-0.0578586
-0.0577987
-0.0576907
-0.0575426
-0.0573622
-0.0571565
-0.0569318
-0.0566939
-0.0564483
-0.0561996
-0.0559522
-0.0557102
-0.0554768
-0.0552554
-0.0550487
-0.0548591
-0.0546887
-0.0545394
-0.0544127
-0.0543098
-0.0542318
-0.0541794
-0.0541531
-0.053854
-0.0543371
-0.0548702
-0.0552561
-0.0555547
-0.0557609
-0.055887
-0.0559431
-0.0559387
-0.055883
-0.0557843
-0.0556503
-0.055488
-0.0553041
-0.0551042
-0.0548939
-0.0546779
-0.0544607
-0.0542462
-0.0540381
-0.0538394
-0.0536531
-0.0534815
-0.0533268
-0.0531909
-0.0530754
-0.0529814
-0.05291
-0.0528621
-0.0528379
-0.0515207
-0.0520768
-0.0526757
-0.053128
-0.0534903
-0.0537575
-0.0539417
-0.0540529
-0.0541008
-0.0540945
-0.0540424
-0.0539523
-0.0538314
-0.053686
-0.0535222
-0.0533455
-0.0531606
-0.0529722
-0.0527841
-0.0525999
-0.052423
-0.0522561
-0.0521017
-0.0519621
-0.051839
-0.0517341
-0.0516486
-0.0515837
-0.0515399
-0.0515179
-0.049244
-0.0498679
-0.0505277
-0.0510417
-0.0514633
-0.0517874
-0.0520259
-0.0521888
-0.0522858
-0.052326
-0.0523178
-0.0522692
-0.0521872
-0.0520784
-0.0519488
-0.0518039
-0.0516486
-0.0514874
-0.0513243
-0.0511631
-0.0510068
-0.0508584
-0.0507205
-0.0505952
-0.0504844
-0.0503896
-0.0503123
-0.0502534
-0.0502137
-0.0501938
-0.0470244
-0.0477109
-0.0484268
-0.0489978
-0.0494744
-0.0498513
-0.0501404
-0.0503516
-0.0504944
-0.0505781
-0.0506112
-0.0506015
-0.0505562
-0.0504818
-0.0503845
-0.0502697
-0.0501423
-0.050007
-0.0498677
-0.0497281
-0.0495915
-0.0494608
-0.0493385
-0.0492268
-0.0491277
-0.0490426
-0.0489731
-0.04892
-0.0488842
-0.0488661
-0.0448621
-0.0456062
-0.0463733
-0.0469968
-0.0475239
-0.0479497
-0.0482857
-0.0485416
-0.0487272
-0.0488515
-0.0489231
-0.0489499
-0.048939
-0.048897
-0.04883
-0.0487436
-0.0486426
-0.0485317
-0.0484149
-0.0482958
-0.0481779
-0.0480639
-0.0479564
-0.0478576
-0.0477696
-0.0476937
-0.0476315
-0.047584
-0.0475518
-0.0475356
-0.0427575
-0.043554
-0.0443677
-0.045039
-0.0456125
-0.0460831
-0.0464623
-0.0467596
-0.0469846
-0.0471467
-0.0472541
-0.0473149
-0.0473361
-0.0473245
-0.047286
-0.0472261
-0.04715
-0.047062
-0.0469664
-0.0468668
-0.0467664
-0.0466682
-0.0465747
-0.0464882
-0.0464106
-0.0463436
-0.0462884
-0.046246
-0.0462174
-0.0462029
-0.0407107
-0.0415547
-0.0424102
-0.0431248
-0.0437404
-0.0442519
-0.0446705
-0.0450058
-0.0452673
-0.0454641
-0.0456048
-0.0456971
-0.0457482
-0.0457648
-0.0457528
-0.0457179
-0.045665
-0.0455986
-0.0455229
-0.0454414
-0.0453576
-0.0452743
-0.0451941
-0.0451192
-0.0450515
-0.0449927
-0.0449441
-0.0449067
-0.0448814
-0.0448686
-0.0387215
-0.0396081
-0.0405009
-0.0412544
-0.0419078
-0.0424563
-0.0429108
-0.0432806
-0.0435754
-0.0438042
-0.0439754
-0.0440968
-0.0441756
-0.0442183
-0.0442311
-0.0442193
-0.0441881
-0.0441418
-0.0440847
-0.0440204
-0.0439521
-0.0438828
-0.043815
-0.043751
-0.0436927
-0.0436417
-0.0435993
-0.0435666
-0.0435444
-0.0435331
-0.03679
-0.0377143
-0.0386397
-0.0394277
-0.0401149
-0.0406965
-0.0411832
-0.0415844
-0.0419094
-0.0421672
-0.0423663
-0.0425144
-0.0426186
-0.0426855
-0.0427211
-0.0427309
-0.0427197
-0.0426923
-0.0426525
-0.0426041
-0.0425503
-0.0424941
-0.042438
-0.0423842
-0.0423347
-0.042291
-0.0422545
-0.0422262
-0.0422069
-0.0421971
-0.0349157
-0.035873
-0.0368267
-0.0376449
-0.0383617
-0.0389726
-0.039488
-0.0399172
-0.0402694
-0.0405535
-0.0407779
-0.0409503
-0.0410778
-0.0411668
-0.0412233
-0.0412529
-0.0412604
-0.0412502
-0.0412266
-0.041193
-0.0411528
-0.0411088
-0.0410635
-0.0410193
-0.040978
-0.0409411
-0.0409101
-0.0408859
-0.0408694
-0.040861
-0.0330983
-0.034084
-0.0350616
-0.0359057
-0.0366482
-0.0372846
-0.0378253
-0.0382792
-0.0386555
-0.0389632
-0.0392103
-0.0394047
-0.0395532
-0.0396623
-0.0397381
-0.0397857
-0.0398103
-0.0398161
-0.0398073
-0.0397875
-0.0397598
-0.0397271
-0.039692
-0.0396567
-0.039623
-0.0395925
-0.0395666
-0.0395463
-0.0395323
-0.0395252
-0.0313374
-0.0323469
-0.0333441
-0.0342099
-0.0349741
-0.0356325
-0.036195
-0.0366704
-0.037068
-0.0373964
-0.0376637
-0.0378777
-0.0380451
-0.0381724
-0.0382655
-0.0383297
-0.0383698
-0.0383903
-0.0383951
-0.0383879
-0.0383717
-0.0383495
-0.0383238
-0.0382967
-0.0382701
-0.0382456
-0.0382244
-0.0382077
-0.0381961
-0.0381902
-0.0296324
-0.0306612
-0.0316739
-0.0325574
-0.0333395
-0.034016
-0.0345969
-0.0350908
-0.0355067
-0.0358531
-0.0361382
-0.0363695
-0.0365537
-0.0366973
-0.0368059
-0.0368849
-0.0369392
-0.036973
-0.0369902
-0.0369945
-0.036989
-0.0369764
-0.0369593
-0.0369398
-0.0369197
-0.0369007
-0.036884
-0.0368705
-0.0368611
-0.0368563
-0.0279827
-0.0290264
-0.0300505
-0.0309476
-0.0317438
-0.0324351
-0.0330311
-0.0335403
-0.0339716
-0.0343335
-0.0346338
-0.0348801
-0.0350791
-0.035237
-0.0353594
-0.0354518
-0.0355186
-0.0355644
-0.0355929
-0.0356077
-0.0356118
-0.035608
-0.0355988
-0.0355862
-0.0355722
-0.0355582
-0.0355455
-0.0355351
-0.0355278
-0.035524
-0.0263874
-0.0274419
-0.0284734
-0.0293803
-0.0301868
-0.0308893
-0.0314972
-0.0320187
-0.0324626
-0.0328373
-0.0331505
-0.0334097
-0.0336213
-0.0337916
-0.0339262
-0.0340302
-0.0341084
-0.0341648
-0.0342034
-0.0342276
-0.0342404
-0.0342446
-0.0342425
-0.0342363
-0.0342278
-0.0342184
-0.0342094
-0.0342019
-0.0341964
-0.0341936
-0.024846
-0.025907
-0.0269419
-0.0278548
-0.0286681
-0.0293784
-0.0299949
-0.0305257
-0.0309795
-0.0313644
-0.0316882
-0.031958
-0.0321803
-0.0323613
-0.0325063
-0.0326205
-0.0327085
-0.0327743
-0.0328219
-0.0328544
-0.0328751
-0.0328864
-0.0328908
-0.0328904
-0.0328868
-0.0328816
-0.032876
-0.032871
-0.0328672
-0.0328652
-0.0233574
-0.0244209
-0.0254554
-0.0263705
-0.027187
-0.0279019
-0.0285239
-0.0290612
-0.0295221
-0.0299148
-0.0302468
-0.0305251
-0.0307561
-0.0309459
-0.0310997
-0.0312226
-0.031319
-0.0313931
-0.0314485
-0.0314884
-0.031516
-0.0315337
-0.0315439
-0.0315486
-0.0315495
-0.0315481
-0.0315455
-0.0315428
-0.0315406
-0.0315394
-0.0219207
-0.0229828
-0.0240133
-0.0249269
-0.0257431
-0.0264592
-0.0270837
-0.0276246
-0.0280901
-0.0284881
-0.028826
-0.0291107
-0.0293486
-0.0295454
-0.0297064
-0.0298365
-0.0299401
-0.0300212
-0.0300833
-0.0301297
-0.0301633
-0.0301866
-0.0302019
-0.0302111
-0.030216
-0.030218
-0.0302182
-0.0302175
-0.0302167
-0.0302162
-0.0205351
-0.0215918
-0.0226146
-0.0235232
-0.0243358
-0.0250499
-0.0256739
-0.0262156
-0.026683
-0.0270839
-0.0274256
-0.0277148
-0.0279576
-0.0281597
-0.0283264
-0.0284623
-0.0285717
-0.0286586
-0.0287264
-0.0287783
-0.0288171
-0.0288452
-0.028865
-0.0288782
-0.0288867
-0.0288916
-0.0288942
-0.0288954
-0.0288958
-0.0288959
-0.0191994
-0.0202469
-0.0212585
-0.0221586
-0.0229643
-0.0236733
-0.0242939
-0.0248337
-0.0253005
-0.025702
-0.0260453
-0.0263369
-0.0265829
-0.0267887
-0.0269595
-0.0270998
-0.0272139
-0.0273054
-0.0273778
-0.0274343
-0.0274774
-0.0275097
-0.0275333
-0.02755
-0.0275615
-0.027569
-0.0275738
-0.0275765
-0.027578
-0.0275787
-0.0179126
-0.0189473
-0.0199441
-0.0208323
-0.0216278
-0.0223287
-0.0229431
-0.0234783
-0.0239422
-0.024342
-0.0246848
-0.024977
-0.0252243
-0.0254322
-0.0256056
-0.025749
-0.0258664
-0.0259615
-0.0260376
-0.0260977
-0.0261445
-0.0261802
-0.026207
-0.0262266
-0.0262407
-0.0262505
-0.026257
-0.0262612
-0.0262636
-0.0262648
-0.0166736
-0.0176918
-0.0186705
-0.0195434
-0.0203256
-0.0210154
-0.0216208
-0.0221489
-0.0226073
-0.0230033
-0.0233436
-0.0236344
-0.0238814
-0.0240899
-0.0242645
-0.0244096
-0.0245292
-0.0246269
-0.0247057
-0.0247686
-0.0248182
-0.0248566
-0.0248861
-0.0249081
-0.0249244
-0.024936
-0.0249441
-0.0249495
-0.0249527
-0.0249542
-0.0154812
-0.0164793
-0.0174365
-0.0182909
-0.0190567
-0.0197326
-0.0203263
-0.0208448
-0.0212955
-0.0216855
-0.0220214
-0.022309
-0.0225541
-0.0227615
-0.022936
-0.0230816
-0.0232023
-0.0233014
-0.023382
-0.0234469
-0.0234985
-0.0235391
-0.0235706
-0.0235946
-0.0236126
-0.0236258
-0.0236352
-0.0236415
-0.0236454
-0.0236473
-0.0143342
-0.0153088
-0.0162412
-0.0170739
-0.0178203
-0.0184794
-0.0190587
-0.0195652
-0.020006
-0.020388
-0.0207175
-0.0210003
-0.0212417
-0.0214467
-0.0216197
-0.0217647
-0.0218853
-0.0219849
-0.0220664
-0.0221325
-0.0221855
-0.0222276
-0.0222606
-0.0222861
-0.0223054
-0.0223198
-0.0223302
-0.0223373
-0.0223418
-0.0223439
-0.0132314
-0.014179
-0.0150834
-0.0158913
-0.0166153
-0.0172549
-0.0178173
-0.0183095
-0.0187382
-0.0191101
-0.0194314
-0.0197077
-0.0199441
-0.0201453
-0.0203155
-0.0204587
-0.0205782
-0.0206774
-0.0207589
-0.0208254
-0.0208792
-0.0209221
-0.0209561
-0.0209826
-0.0210029
-0.0210182
-0.0210294
-0.0210371
-0.021042
-0.0210443
-0.0121714
-0.0130886
-0.0139619
-0.0147418
-0.0154407
-0.016058
-0.0166012
-0.0170766
-0.0174912
-0.0178512
-0.0181626
-0.0184308
-0.0186606
-0.0188567
-0.0190229
-0.0191632
-0.0192807
-0.0193785
-0.0194592
-0.0195255
-0.0195793
-0.0196225
-0.019657
-0.0196841
-0.019705
-0.0197209
-0.0197326
-0.0197408
-0.019746
-0.0197485
-0.011153
-0.0120365
-0.0128755
-0.0136245
-0.0142954
-0.014888
-0.0154094
-0.0158661
-0.0162644
-0.0166107
-0.0169105
-0.017169
-0.0173909
-0.0175806
-0.0177417
-0.017878
-0.0179925
-0.0180881
-0.0181674
-0.0182326
-0.0182858
-0.0183289
-0.0183634
-0.0183907
-0.0184119
-0.0184281
-0.0184401
-0.0184486
-0.0184539
-0.0184565
-0.0101748
-0.0110211
-0.0118227
-0.0125379
-0.013178
-0.0137433
-0.0142408
-0.0146765
-0.0150568
-0.0153876
-0.0156742
-0.0159216
-0.0161343
-0.0163163
-0.0164713
-0.0166026
-0.0167132
-0.0168058
-0.0168828
-0.0169464
-0.0169986
-0.0170409
-0.017075
-0.017102
-0.0171232
-0.0171395
-0.0171516
-0.0171602
-0.0171656
-0.0171683
-0.00923526
-0.0100411
-0.0108025
-0.011481
-0.0120877
-0.0126233
-0.0130946
-0.0135074
-0.0138678
-0.0141814
-0.0144533
-0.0146883
-0.0148905
-0.0150637
-0.0152115
-0.0153369
-0.0154428
-0.0155317
-0.0156058
-0.0156672
-0.0157177
-0.0157588
-0.015792
-0.0158186
-0.0158394
-0.0158555
-0.0158675
-0.015876
-0.0158815
-0.0158841
-0.00833292
-0.009095
-0.00981286
-0.0104518
-0.0110226
-0.0115262
-0.0119691
-0.0123571
-0.0126958
-0.0129907
-0.0132465
-0.0134678
-0.0136583
-0.0138218
-0.0139614
-0.0140801
-0.0141805
-0.0142649
-0.0143354
-0.014394
-0.0144423
-0.0144819
-0.0145139
-0.0145395
-0.0145598
-0.0145754
-0.0145871
-0.0145955
-0.0146008
-0.0146035
-0.00746629
-0.0081814
-0.00885299
-0.00944972
-0.00998216
-0.0104515
-0.0108641
-0.0112254
-0.0115409
-0.0118156
-0.012054
-0.0122603
-0.0124381
-0.0125908
-0.0127214
-0.0128325
-0.0129267
-0.013006
-0.0130724
-0.0131277
-0.0131734
-0.0132109
-0.0132413
-0.0132658
-0.0132851
-0.0133002
-0.0133114
-0.0133195
-0.0133247
-0.0133272
-0.00663349
-0.00729812
-0.00792033
-0.00847206
-0.00896367
-0.00939659
-0.00977691
-0.0101098
-0.0104005
-0.0106536
-0.0108734
-0.0110636
-0.0112277
-0.0113688
-0.0114895
-0.0115924
-0.0116796
-0.0117532
-0.011815
-0.0118665
-0.0119091
-0.0119442
-0.0119727
-0.0119957
-0.012014
-0.0120282
-0.0120389
-0.0120465
-0.0120514
-0.0120538
-0.00583303
-0.00644429
-0.00701455
-0.00751887
-0.00796747
-0.00836201
-0.00870832
-0.00901131
-0.0092758
-0.00950611
-0.00970612
-0.00987931
-0.0100288
-0.0101573
-0.0102675
-0.0103614
-0.0104412
-0.0105085
-0.0105652
-0.0106124
-0.0106517
-0.010684
-0.0107103
-0.0107316
-0.0107485
-0.0107617
-0.0107716
-0.0107788
-0.0107833
-0.0107856
-0.0050626
-0.00561663
-0.00613171
-0.00658586
-0.00698911
-0.00734324
-0.00765379
-0.00792532
-0.00816227
-0.00836859
-0.00854778
-0.00870298
-0.00883699
-0.00895231
-0.00905116
-0.00913555
-0.00920728
-0.00926794
-0.00931898
-0.00936166
-0.00939712
-0.00942637
-0.00945027
-0.00946959
-0.00948499
-0.009497
-0.00950608
-0.00951259
-0.00951679
-0.00951888
-0.00432076
-0.0048153
-0.00527316
-0.00567519
-0.0060313
-0.00634341
-0.00661678
-0.00685561
-0.00706393
-0.00724529
-0.0074028
-0.00753926
-0.00765712
-0.00775858
-0.0078456
-0.00791994
-0.00798317
-0.0080367
-0.00808178
-0.00811951
-0.00815091
-0.00817683
-0.00819805
-0.00821522
-0.00822892
-0.00823963
-0.00824773
-0.00825354
-0.0082573
-0.0082591
-0.00360441
-0.00403476
-0.00443175
-0.00477878
-0.00508543
-0.00535362
-0.00558821
-0.005793
-0.00597153
-0.00612692
-0.00626187
-0.0063788
-0.00647981
-0.0065668
-0.00664145
-0.00670526
-0.00675956
-0.00680557
-0.00684434
-0.00687683
-0.00690389
-0.00692626
-0.00694458
-0.00695944
-0.0069713
-0.00698058
-0.00698761
-0.00699265
-0.00699593
-0.00699762
-0.00291244
-0.00327788
-0.00361316
-0.00390406
-0.00416007
-0.00438325
-0.00457812
-0.00474804
-0.00489608
-0.00502489
-0.00513676
-0.00523368
-0.00531742
-0.00538955
-0.00545147
-0.00550441
-0.00554949
-0.00558769
-0.00561991
-0.00564693
-0.00566944
-0.00568807
-0.00570334
-0.00571573
-0.00572563
-0.00573338
-0.00573925
-0.00574347
-0.0057462
-0.00574746
-0.00224022
-0.00253389
-0.00280265
-0.0030339
-0.00323669
-0.00341292
-0.00356652
-0.0037003
-0.00381679
-0.00391812
-0.0040061
-0.00408233
-0.0041482
-0.00420495
-0.00425367
-0.00429534
-0.00433084
-0.00436094
-0.00438633
-0.00440764
-0.0044254
-0.00444011
-0.00445218
-0.00446197
-0.0044698
-0.00447594
-0.00448059
-0.00448393
-0.0044861
-0.00448738
-0.00158758
-0.00181237
-0.00201622
-0.00218805
-0.00233752
-0.00246653
-0.00257862
-0.00267608
-0.00276088
-0.00283462
-0.00289863
-0.00295409
-0.00300201
-0.0030433
-0.00307874
-0.00310905
-0.00313487
-0.00315677
-0.00317524
-0.00319074
-0.00320367
-0.00321437
-0.00322315
-0.00323028
-0.00323598
-0.00324045
-0.00324384
-0.00324625
-0.00324778
-0.0032483
-0.00094654
-0.00108951
-0.00121971
-0.00132627
-0.00141873
-0.00149788
-0.00156648
-0.00162602
-0.00167778
-0.00172278
-0.00176183
-0.00179567
-0.0018249
-0.00185008
-0.0018717
-0.00189018
-0.00190593
-0.00191928
-0.00193054
-0.00193999
-0.00194787
-0.0019544
-0.00195975
-0.0019641
-0.00196757
-0.0019703
-0.00197236
-0.00197383
-0.00197475
-0.00197557
-0.000319361
-0.00038968
-0.000449929
-0.000493419
-0.00053009
-0.000560112
-0.000585827
-0.000607996
-0.000627259
-0.000644011
-0.000658557
-0.000671155
-0.000682031
-0.000691388
-0.000699407
-0.000706253
-0.000712072
-0.000716996
-0.000721141
-0.00072461
-0.000727496
-0.000729879
-0.00073183
-0.000733409
-0.000734668
-0.000735652
-0.000736399
-0.00073693
-0.000737145
-0.000736412
-0.187284
-0.18489
-0.182434
-0.179918
-0.177345
-0.174715
-0.17203
-0.169293
-0.166505
-0.163668
-0.160785
-0.157857
-0.154888
-0.151881
-0.148837
-0.14576
-0.142654
-0.139521
-0.136365
-0.133189
-0.129997
-0.126793
-0.12358
-0.120363
-0.117144
-0.113927
-0.110718
-0.107518
-0.104332
-0.101164
-0.0980176
-0.0948954
-0.0918013
-0.0887385
-0.0857101
-0.0827191
-0.0797681
-0.0768599
-0.073997
-0.0711816
-0.0684159
-0.0657019
-0.0630412
-0.0604355
-0.0578862
-0.0553944
-0.0529611
-0.0505873
-0.0482735
-0.0460203
-0.0438281
-0.0416971
-0.0396272
-0.0376185
-0.0356708
-0.0337837
-0.0319567
-0.0301895
-0.0284813
-0.0268315
-0.0252392
-0.0237037
-0.0222239
-0.020799
-0.0194278
-0.0181094
-0.0168426
-0.0156263
-0.0144593
-0.0133403
-0.0122681
-0.0112415
-0.010259
-0.00931942
-0.00842123
-0.00756305
-0.00674322
-0.00596036
-0.00521233
-0.00449804
-0.00381423
-0.00316093
-0.00253213
-0.00193149
-0.00134617
-0.000790848
-0.000236813
-0.190838
-0.188376
-0.185858
-0.183283
-0.180653
-0.17797
-0.175233
-0.172446
-0.169608