/*--------------------------------*- C++ -*----------------------------------*\
  =========                 |
  \\      /  F ield         | OpenFOAM: The Open Source CFD Toolbox
   \\    /   O peration     | Website:  https://openfoam.org
    \\  /    A nd           | Version:  7
     \\/     M anipulation  |
\*---------------------------------------------------------------------------*/
FoamFile
{
    version     2.0;
    format      ascii;
    class       volVectorField;
    location    "45";
    object      U;
}
// * * * * * * * * * * * * * * * * * * * * * * * * * * * * * * * * * * * * * //

dimensions      [0 1 -1 0 0 0 0];

internalField   nonuniform List<vector> 
3500
(
(1.12257 0.0279283 0)
(1.20045 0.0257205 0)
(1.23529 0.0208788 0)
(1.24623 0.0179166 0)
(1.24629 0.0151831 0)
(1.24219 0.01292 0)
(1.23679 0.0109367 0)
(1.23117 0.00917513 0)
(1.22566 0.00761118 0)
(1.22033 0.00622674 0)
(1.21518 0.00500762 0)
(1.2102 0.00394204 0)
(1.20539 0.00301915 0)
(1.20077 0.00222792 0)
(1.19635 0.00155738 0)
(1.19216 0.000997154 0)
(1.18819 0.000537088 0)
(1.18447 0.000167339 0)
(1.18101 -0.000120837 0)
(1.17782 -0.000336007 0)
(1.17489 -0.000486588 0)
(1.17225 -0.000580107 0)
(1.16989 -0.000623761 0)
(1.16782 -0.000624337 0)
(1.16604 -0.00058832 0)
(1.16455 -0.000521869 0)
(1.16336 -0.000430899 0)
(1.16247 -0.000321186 0)
(1.16187 -0.000197798 0)
(1.16157 -6.70678e-05 0)
(1.12031 0.0305958 0)
(1.19804 0.0284892 0)
(1.23321 0.0236694 0)
(1.24451 0.0206164 0)
(1.24485 0.0177875 0)
(1.24095 0.0154163 0)
(1.2357 0.0133208 0)
(1.23019 0.0114474 0)
(1.22479 0.00977219 0)
(1.21956 0.00827678 0)
(1.2145 0.0069471 0)
(1.2096 0.00577159 0)
(1.20487 0.00473958 0)
(1.20032 0.00384018 0)
(1.19597 0.00306258 0)
(1.19184 0.00239653 0)
(1.18793 0.00183197 0)
(1.18426 0.00135911 0)
(1.18084 0.000969229 0)
(1.17768 0.000653752 0)
(1.1748 0.000404224 0)
(1.17218 0.000213067 0)
(1.16985 7.29563e-05 0)
(1.1678 -2.29307e-05 0)
(1.16604 -8.11796e-05 0)
(1.16457 -0.000108163 0)
(1.16339 -0.000109901 0)
(1.16251 -9.2309e-05 0)
(1.16192 -6.06668e-05 0)
(1.16162 -2.13518e-05 0)
(1.11816 0.0331842 0)
(1.19566 0.0311752 0)
(1.23111 0.026377 0)
(1.24276 0.0232386 0)
(1.24336 0.0203184 0)
(1.23964 0.0178428 0)
(1.23454 0.0156393 0)
(1.22916 0.0136582 0)
(1.22386 0.0118757 0)
(1.21872 0.0102732 0)
(1.21376 0.00883679 0)
(1.20894 0.00755511 0)
(1.20429 0.0064176 0)
(1.19982 0.00541353 0)
(1.19553 0.00453223 0)
(1.19146 0.00376354 0)
(1.1876 0.00309752 0)
(1.18398 0.00252447 0)
(1.18061 0.00203562 0)
(1.1775 0.00162238 0)
(1.17464 0.00127636 0)
(1.17206 0.00098989 0)
(1.16976 0.000755566 0)
(1.16773 0.000566474 0)
(1.16599 0.000415933 0)
(1.16454 0.000297447 0)
(1.16337 0.000204871 0)
(1.1625 0.000132157 0)
(1.16191 7.38358e-05 0)
(1.16162 2.34856e-05 0)
(1.11611 0.0356947 0)
(1.19331 0.033779 0)
(1.22899 0.0290017 0)
(1.24095 0.0257832 0)
(1.2418 0.0227758 0)
(1.23828 0.0201996 0)
(1.23332 0.0178923 0)
(1.22806 0.0158074 0)
(1.22287 0.0139216 0)
(1.21783 0.0122159 0)
(1.21295 0.0106765 0)
(1.20823 0.00929238 0)
(1.20366 0.00805294 0)
(1.19925 0.00694765 0)
(1.19504 0.00596596 0)
(1.19102 0.00509782 0)
(1.18722 0.00433336 0)
(1.18365 0.00366301 0)
(1.18033 0.00307793 0)
(1.17725 0.00256953 0)
(1.17444 0.00212948 0)
(1.17189 0.00175004 0)
(1.16961 0.00142375 0)
(1.16761 0.00114359 0)
(1.16589 0.000902789 0)
(1.16445 0.000694768 0)
(1.1633 0.00051326 0)
(1.16243 0.000352099 0)
(1.16186 0.000205641 0)
(1.16157 6.74212e-05 0)
(1.11415 0.038128 0)
(1.19098 0.0363011 0)
(1.22685 0.0315441 0)
(1.2391 0.0282506 0)
(1.2402 0.0251597 0)
(1.23686 0.0224869 0)
(1.23204 0.0200797 0)
(1.22691 0.0178952 0)
(1.22182 0.0159099 0)
(1.21688 0.0141047 0)
(1.2121 0.0124662 0)
(1.20746 0.0109832 0)
(1.20296 0.00964539 0)
(1.19863 0.00844229 0)
(1.19448 0.00736351 0)
(1.19053 0.00639906 0)
(1.18679 0.00553919 0)
(1.18327 0.00477439 0)
(1.17999 0.00409582 0)
(1.17696 0.00349488 0)
(1.17418 0.00296327 0)
(1.17166 0.00249323 0)
(1.16941 0.00207724 0)
(1.16744 0.00170817 0)
(1.16574 0.00137918 0)
(1.16432 0.00108363 0)
(1.16318 0.00081513 0)
(1.16232 0.000567417 0)
(1.16175 0.000334687 0)
(1.16147 0.000110436 0)
(1.11227 0.0404849 0)
(1.18869 0.0387418 0)
(1.22469 0.0340044 0)
(1.23721 0.0306407 0)
(1.23854 0.0274702 0)
(1.23538 0.0247047 0)
(1.23071 0.0222017 0)
(1.22569 0.0199214 0)
(1.22072 0.0178404 0)
(1.21588 0.0159396 0)
(1.21118 0.0142056 0)
(1.20663 0.0126274 0)
(1.20222 0.0111947 0)
(1.19796 0.00989723 0)
(1.19388 0.00872461 0)
(1.18999 0.007667 0)
(1.1863 0.00671472 0)
(1.18284 0.00585833 0)
(1.1796 0.00508899 0)
(1.17661 0.00439814 0)
(1.17387 0.00377747 0)
(1.17139 0.0032192 0)
(1.16917 0.00271577 0)
(1.16722 0.00225998 0)
(1.16554 0.00184492 0)
(1.16413 0.00146387 0)
(1.16301 0.00111035 0)
(1.16216 0.000778021 0)
(1.1616 0.00046092 0)
(1.16132 0.000152512 0)
(1.11047 0.0427659 0)
(1.18642 0.0411016 0)
(1.22252 0.0363829 0)
(1.23528 0.0329538 0)
(1.23684 0.0297074 0)
(1.23385 0.026853 0)
(1.22933 0.0242582 0)
(1.22443 0.0218862 0)
(1.21956 0.0197133 0)
(1.21482 0.0177206 0)
(1.21022 0.0158947 0)
(1.20575 0.0142249 0)
(1.20141 0.0127009 0)
(1.19723 0.0113123 0)
(1.19322 0.0100491 0)
(1.18939 0.00890141 0)
(1.18576 0.0078597 0)
(1.18235 0.00691457 0)
(1.17916 0.00605721 0)
(1.17621 0.00527906 0)
(1.17351 0.00457184 0)
(1.17106 0.00392773 0)
(1.16887 0.00333914 0)
(1.16694 0.00279884 0)
(1.16529 0.00229983 0)
(1.1639 0.00183534 0)
(1.16279 0.00139882 0)
(1.16195 0.000983829 0)
(1.1614 0.00058429 0)
(1.16112 0.000193633 0)
(1.10874 0.0449713 0)
(1.18418 0.0433806 0)
(1.22034 0.0386799 0)
(1.23331 0.0351898 0)
(1.23509 0.0318712 0)
(1.23228 0.0289319 0)
(1.22789 0.0262494 0)
(1.22312 0.0237894 0)
(1.21836 0.0215284 0)
(1.21371 0.0194475 0)
(1.2092 0.0175335 0)
(1.20482 0.0157756 0)
(1.20056 0.0141636 0)
(1.19646 0.0126873 0)
(1.19251 0.0113367 0)
(1.18874 0.0101021 0)
(1.18517 0.00897394 0)
(1.18181 0.00794293 0)
(1.17867 0.00700027 0)
(1.17577 0.00613743 0)
(1.1731 0.00534615 0)
(1.17069 0.0046186 0)
(1.16853 0.00394718 0)
(1.16663 0.00332458 0)
(1.16499 0.00274377 0)
(1.16362 0.00219793 0)
(1.16252 0.00168044 0)
(1.1617 0.00118477 0)
(1.16115 0.000704754 0)
(1.16087 0.000233786 0)
(1.10708 0.0471015 0)
(1.18196 0.045579 0)
(1.21814 0.0408957 0)
(1.23131 0.0373489 0)
(1.23329 0.0339617 0)
(1.23065 0.0309414 0)
(1.22641 0.0281752 0)
(1.22175 0.0256312 0)
(1.2171 0.0232859 0)
(1.21256 0.0211205 0)
(1.20813 0.019122 0)
(1.20384 0.0172795 0)
(1.19966 0.0155829 0)
(1.19563 0.0140222 0)
(1.19175 0.0125875 0)
(1.18805 0.011269 0)
(1.18454 0.0100573 0)
(1.18123 0.00894322 0)
(1.17814 0.00791798 0)
(1.17528 0.00697307 0)
(1.17265 0.00610025 0)
(1.17027 0.00529167 0)
(1.16814 0.00453971 0)
(1.16626 0.00383705 0)
(1.16465 0.00317662 0)
(1.1633 0.00255153 0)
(1.16221 0.00195511 0)
(1.1614 0.00138078 0)
(1.16086 0.000822273 0)
(1.16059 0.000272957 0)
(1.10548 0.0491567 0)
(1.17977 0.0476969 0)
(1.21593 0.0430303 0)
(1.22928 0.039431 0)
(1.23145 0.035979 0)
(1.22898 0.0328817 0)
(1.22488 0.0300358 0)
(1.22034 0.0274116 0)
(1.2158 0.0249857 0)
(1.21135 0.0227395 0)
(1.20702 0.02066 0)
(1.20281 0.0187365 0)
(1.19871 0.0169588 0)
(1.19476 0.015317 0)
(1.19095 0.0138012 0)
(1.18731 0.0124018 0)
(1.18385 0.0111096 0)
(1.1806 0.00991531 0)
(1.17756 0.00881021 0)
(1.17474 0.00778584 0)
(1.17215 0.00683398 0)
(1.1698 0.00594678 0)
(1.1677 0.00511662 0)
(1.16585 0.00433615 0)
(1.16426 0.00359826 0)
(1.16293 0.00289605 0)
(1.16186 0.00222277 0)
(1.16106 0.00157181 0)
(1.16052 0.000936815 0)
(1.16025 0.000311136 0)
(1.10395 0.0511368 0)
(1.1776 0.0497344 0)
(1.21371 0.0450839 0)
(1.22722 0.0414362 0)
(1.22958 0.037923 0)
(1.22727 0.0347527 0)
(1.2233 0.0318311 0)
(1.21889 0.0291306 0)
(1.21445 0.0266279 0)
(1.2101 0.0243046 0)
(1.20586 0.0221477 0)
(1.20174 0.0201466 0)
(1.19772 0.0182911 0)
(1.19384 0.0165715 0)
(1.1901 0.0149778 0)
(1.18652 0.0135007 0)
(1.18313 0.0121308 0)
(1.17992 0.0108591 0)
(1.17693 0.00967686 0)
(1.17415 0.00857562 0)
(1.17161 0.00754723 0)
(1.16929 0.00658382 0)
(1.16722 0.00567779 0)
(1.1654 0.00482177 0)
(1.16383 0.00400862 0)
(1.16252 0.0032314 0)
(1.16146 0.00248335 0)
(1.16067 0.00175781 0)
(1.16014 0.00104835 0)
(1.15988 0.000348315 0)
(1.10246 0.053042 0)
(1.17545 0.0516914 0)
(1.21147 0.0470568 0)
(1.22512 0.0433646 0)
(1.22766 0.0397938 0)
(1.22552 0.0365546 0)
(1.22169 0.0335614 0)
(1.21739 0.0307885 0)
(1.21306 0.0282127 0)
(1.20881 0.0258159 0)
(1.20466 0.0235852 0)
(1.20062 0.0215099 0)
(1.19669 0.0195801 0)
(1.19288 0.0177857 0)
(1.18921 0.0161174 0)
(1.18569 0.0145655 0)
(1.18236 0.0131209 0)
(1.17921 0.0117746 0)
(1.17626 0.0105178 0)
(1.17353 0.00934234 0)
(1.17102 0.00823992 0)
(1.16874 0.00720272 0)
(1.1667 0.00622315 0)
(1.16491 0.00529383 0)
(1.16336 0.00440761 0)
(1.16206 0.00355754 0)
(1.16102 0.00273682 0)
(1.16024 0.00193876 0)
(1.15972 0.00115687 0)
(1.15946 0.000384485 0)
(1.10103 0.054872 0)
(1.17332 0.053568 0)
(1.20923 0.048949 0)
(1.223 0.0452162 0)
(1.22571 0.0415916 0)
(1.22373 0.0382875 0)
(1.22003 0.0352267 0)
(1.21585 0.0323852 0)
(1.21163 0.0297401 0)
(1.20748 0.0272735 0)
(1.20342 0.0249725 0)
(1.19946 0.0228266 0)
(1.19561 0.0208256 0)
(1.19187 0.0189599 0)
(1.18827 0.0172198 0)
(1.18482 0.0155962 0)
(1.18154 0.0140798 0)
(1.17845 0.0126616 0)
(1.17555 0.0113331 0)
(1.17286 0.0100859 0)
(1.17039 0.00891198 0)
(1.16815 0.00780341 0)
(1.16614 0.00675263 0)
(1.16437 0.00575228 0)
(1.16285 0.0047952 0)
(1.16157 0.00387442 0)
(1.16054 0.00298312 0)
(1.15977 0.00211461 0)
(1.15926 0.00126234 0)
(1.159 0.000419642 0)
(1.09964 0.0566269 0)
(1.17122 0.0553642 0)
(1.20699 0.0507608 0)
(1.22086 0.0469911 0)
(1.22373 0.0433164 0)
(1.2219 0.0399516 0)
(1.21834 0.0368272 0)
(1.21428 0.033921 0)
(1.21016 0.0312103 0)
(1.2061 0.0286775 0)
(1.20214 0.0263098 0)
(1.19827 0.0240966 0)
(1.19449 0.0220278 0)
(1.19083 0.0200939 0)
(1.1873 0.0182853 0)
(1.18391 0.0165929 0)
(1.18069 0.0150075 0)
(1.17765 0.0135203 0)
(1.1748 0.0121227 0)
(1.17216 0.0108064 0)
(1.16972 0.0095634 0)
(1.16752 0.00838585 0)
(1.16554 0.00726619 0)
(1.1638 0.00619707 0)
(1.16229 0.00517133 0)
(1.16104 0.004182 0)
(1.16003 0.00322224 0)
(1.15927 0.00228535 0)
(1.15876 0.00136475 0)
(1.15851 0.000453782 0)
(1.09829 0.0583064 0)
(1.16913 0.05708 0)
(1.20473 0.0524923 0)
(1.21869 0.0486895 0)
(1.22172 0.0449684 0)
(1.22004 0.041547 0)
(1.21661 0.0383631 0)
(1.21267 0.0353961 0)
(1.20865 0.0326236 0)
(1.2047 0.0300282 0)
(1.20082 0.0275973 0)
(1.19703 0.0253201 0)
(1.19334 0.0231868 0)
(1.18975 0.0211879 0)
(1.18629 0.0193139 0)
(1.18296 0.0175556 0)
(1.1798 0.0159041 0)
(1.17681 0.0143506 0)
(1.17401 0.0128865 0)
(1.17141 0.0115037 0)
(1.16902 0.0101942 0)
(1.16685 0.00895003 0)
(1.1649 0.00776382 0)
(1.16318 0.00662819 0)
(1.1617 0.005536 0)
(1.16046 0.00448026 0)
(1.15947 0.00345416 0)
(1.15872 0.00245097 0)
(1.15822 0.0014641 0)
(1.15797 0.000486901 0)
(1.09698 0.0599104 0)
(1.16705 0.0587153 0)
(1.20247 0.0541437 0)
(1.21651 0.0503115 0)
(1.21968 0.0465479 0)
(1.21814 0.043074 0)
(1.21485 0.0398347 0)
(1.21102 0.0368107 0)
(1.20711 0.0339801 0)
(1.20325 0.0313257 0)
(1.19947 0.0288351 0)
(1.19577 0.0264974 0)
(1.19215 0.0243029 0)
(1.18863 0.0222421 0)
(1.18524 0.0203056 0)
(1.18198 0.0184845 0)
(1.17887 0.0167697 0)
(1.17594 0.0151526 0)
(1.17318 0.0136247 0)
(1.17063 0.012178 0)
(1.16828 0.0108043 0)
(1.16614 0.00949597 0)
(1.16422 0.00824553 0)
(1.16253 0.00704564 0)
(1.16107 0.00588919 0)
(1.15985 0.0047692 0)
(1.15887 0.00367887 0)
(1.15814 0.00261146 0)
(1.15765 0.00156039 0)
(1.1574 0.000518999 0)
(1.0957 0.0614387 0)
(1.165 0.0602703 0)
(1.20021 0.0557154 0)
(1.2143 0.0518573 0)
(1.21761 0.048055 0)
(1.21622 0.0445328 0)
(1.21306 0.0412421 0)
(1.20935 0.038165 0)
(1.20554 0.0352801 0)
(1.20178 0.0325704 0)
(1.19808 0.0300235 0)
(1.19446 0.0276287 0)
(1.19092 0.0253761 0)
(1.18748 0.0232566 0)
(1.18415 0.0212607 0)
(1.18096 0.0193796 0)
(1.17791 0.0176043 0)
(1.17503 0.0159264 0)
(1.17232 0.0143374 0)
(1.16981 0.0128291 0)
(1.1675 0.0113938 0)
(1.16539 0.0100237 0)
(1.16351 0.00871133 0)
(1.16185 0.00744944 0)
(1.16041 0.00623092 0)
(1.15921 0.00504883 0)
(1.15824 0.00389637 0)
(1.15752 0.00276683 0)
(1.15703 0.00165361 0)
(1.15679 0.000550077 0)
(1.09445 0.0628912 0)
(1.16296 0.061745 0)
(1.19794 0.0572075 0)
(1.21208 0.0533273 0)
(1.21553 0.0494902 0)
(1.21427 0.0459238 0)
(1.21123 0.0425858 0)
(1.20764 0.0394595 0)
(1.20394 0.036524 0)
(1.20027 0.0337625 0)
(1.19667 0.0311628 0)
(1.19313 0.0287141 0)
(1.18967 0.0264068 0)
(1.1863 0.0242316 0)
(1.18304 0.0221794 0)
(1.1799 0.0202411 0)
(1.17691 0.0184082 0)
(1.17408 0.0166721 0)
(1.17143 0.0150245 0)
(1.16896 0.0134574 0)
(1.16668 0.0119628 0)
(1.16462 0.0105333 0)
(1.16276 0.00916126 0)
(1.16112 0.00783961 0)
(1.15971 0.00656121 0)
(1.15853 0.00531916 0)
(1.15758 0.00410668 0)
(1.15687 0.00291708 0)
(1.15639 0.00174376 0)
(1.15615 0.000580134 0)
(1.09323 0.0642677 0)
(1.16093 0.0631397 0)
(1.19568 0.0586206 0)
(1.20985 0.0547218 0)
(1.21341 0.0508537 0)
(1.2123 0.0472473 0)
(1.20939 0.0438661 0)
(1.20591 0.0406945 0)
(1.20231 0.037712 0)
(1.19874 0.0349024 0)
(1.19522 0.0322533 0)
(1.19176 0.0297542 0)
(1.18838 0.0273953 0)
(1.18508 0.0251675 0)
(1.18189 0.0230618 0)
(1.17882 0.0210693 0)
(1.17589 0.0191815 0)
(1.17311 0.0173899 0)
(1.1705 0.0156863 0)
(1.16807 0.0140627 0)
(1.16584 0.0125114 0)
(1.1638 0.0110247 0)
(1.16198 0.0095954 0)
(1.16037 0.0082162 0)
(1.15898 0.0068801 0)
(1.15782 0.00558023 0)
(1.15688 0.00430983 0)
(1.15618 0.00306223 0)
(1.15571 0.00183087 0)
(1.15547 0.000609175 0)
(1.09204 0.0655684 0)
(1.15892 0.0644545 0)
(1.19341 0.0599549 0)
(1.2076 0.0560411 0)
(1.21129 0.052146 0)
(1.2103 0.0485039 0)
(1.20752 0.0450834 0)
(1.20415 0.0418704 0)
(1.20065 0.0388447 0)
(1.19717 0.0359905 0)
(1.19374 0.0332955 0)
(1.19037 0.0307491 0)
(1.18707 0.0283418 0)
(1.18384 0.0260644 0)
(1.18071 0.0239082 0)
(1.1777 0.0218644 0)
(1.17483 0.0199244 0)
(1.1721 0.01808 0)
(1.16954 0.0163229 0)
(1.16716 0.0146454 0)
(1.16496 0.0130396 0)
(1.16296 0.0114982 0)
(1.16117 0.0100138 0)
(1.15958 0.00857928 0)
(1.15822 0.00718765 0)
(1.15707 0.00583207 0)
(1.15615 0.00450583 0)
(1.15546 0.0032023 0)
(1.155 0.00191493 0)
(1.15477 0.000637204 0)
(1.09086 0.0667932 0)
(1.15693 0.0656897 0)
(1.19114 0.0612111 0)
(1.20534 0.0572859 0)
(1.20914 0.0533676 0)
(1.20829 0.0496939 0)
(1.20562 0.0462383 0)
(1.20237 0.0429876 0)
(1.19897 0.0399225 0)
(1.19559 0.0370272 0)
(1.19225 0.0342896 0)
(1.18895 0.0316992 0)
(1.18572 0.0292466 0)
(1.18257 0.0269228 0)
(1.17951 0.024719 0)
(1.17656 0.0226266 0)
(1.17374 0.0206372 0)
(1.17106 0.0187425 0)
(1.16855 0.0169345 0)
(1.16621 0.0152054 0)
(1.16405 0.0135477 0)
(1.16209 0.0119538 0)
(1.16032 0.0104166 0)
(1.15877 0.00892894 0)
(1.15742 0.00748391 0)
(1.1563 0.00607473 0)
(1.15539 0.00469473 0)
(1.15471 0.00333732 0)
(1.15425 0.00199598 0)
(1.15403 0.000664225 0)
(1.08971 0.0679421 0)
(1.15495 0.0668459 0)
(1.18888 0.0623897 0)
(1.20308 0.0584566 0)
(1.20698 0.054519 0)
(1.20625 0.050818 0)
(1.20371 0.0473313 0)
(1.20056 0.0440468 0)
(1.19727 0.0409459 0)
(1.19398 0.038013 0)
(1.19072 0.0352362 0)
(1.18751 0.0326051 0)
(1.18436 0.0301103 0)
(1.18127 0.0277429 0)
(1.17828 0.0254944 0)
(1.17539 0.0233562 0)
(1.17262 0.02132 0)
(1.17 0.0193777 0)
(1.16753 0.0175213 0)
(1.16524 0.0157431 0)
(1.16312 0.0140357 0)
(1.16118 0.0123917 0)
(1.15945 0.0108039 0)
(1.15792 0.00926526 0)
(1.1566 0.00776897 0)
(1.15549 0.00630828 0)
(1.1546 0.00487657 0)
(1.15393 0.00346731 0)
(1.15348 0.00207401 0)
(1.15326 0.000690245 0)
(1.08858 0.0690155 0)
(1.15298 0.0679234 0)
(1.18661 0.0634914 0)
(1.2008 0.0595539 0)
(1.20481 0.0556011 0)
(1.20421 0.0518768 0)
(1.20178 0.0483629 0)
(1.19874 0.0450485 0)
(1.19555 0.0419154 0)
(1.19235 0.0389484 0)
(1.18918 0.0361357 0)
(1.18605 0.033467 0)
(1.18297 0.0309331 0)
(1.17995 0.0285252 0)
(1.17702 0.0262348 0)
(1.17419 0.0240536 0)
(1.17148 0.0219732 0)
(1.16891 0.0199858 0)
(1.16649 0.0180835 0)
(1.16423 0.0162587 0)
(1.16215 0.0145039 0)
(1.16025 0.012812 0)
(1.15855 0.0111758 0)
(1.15704 0.00958835 0)
(1.15575 0.00804291 0)
(1.15466 0.00653279 0)
(1.15378 0.00505142 0)
(1.15312 0.00359232 0)
(1.15268 0.00214906 0)
(1.15246 0.000715273 0)
(1.08746 0.0700136 0)
(1.15103 0.068923 0)
(1.18436 0.064517 0)
(1.19853 0.0605786 0)
(1.20263 0.0566144 0)
(1.20214 0.052871 0)
(1.19984 0.049334 0)
(1.19691 0.0459934 0)
(1.19381 0.0428317 0)
(1.1907 0.0398341 0)
(1.18761 0.0369888 0)
(1.18456 0.0342857 0)
(1.18155 0.0317157 0)
(1.17861 0.0292701 0)
(1.17574 0.0269406 0)
(1.17297 0.024719 0)
(1.17031 0.0225971 0)
(1.16779 0.0205671 0)
(1.16542 0.0186214 0)
(1.1632 0.0167522 0)
(1.16116 0.0149525 0)
(1.1593 0.0132149 0)
(1.15762 0.0115324 0)
(1.15614 0.00989834 0)
(1.15486 0.00830584 0)
(1.15379 0.00674833 0)
(1.15293 0.00521932 0)
(1.15228 0.00371239 0)
(1.15185 0.00222116 0)
(1.15163 0.000739316 0)
(1.08636 0.0709369 0)
(1.1491 0.0698452 0)
(1.18211 0.0654673 0)
(1.19625 0.0615315 0)
(1.20044 0.0575598 0)
(1.20007 0.0538014 0)
(1.19788 0.0502452 0)
(1.19505 0.0468822 0)
(1.19206 0.0436954 0)
(1.18903 0.0406705 0)
(1.18603 0.0377959 0)
(1.18305 0.0350615 0)
(1.18012 0.0324584 0)
(1.17724 0.029978 0)
(1.17444 0.0276123 0)
(1.17173 0.0253529 0)
(1.16913 0.0231921 0)
(1.16665 0.0211221 0)
(1.16432 0.0191352 0)
(1.16215 0.0172241 0)
(1.16014 0.0153815 0)
(1.15831 0.0136005 0)
(1.15667 0.011874 0)
(1.15521 0.0101954 0)
(1.15396 0.00855787 0)
(1.1529 0.00695501 0)
(1.15206 0.00538036 0)
(1.15142 0.00382758 0)
(1.15099 0.00229033 0)
(1.15078 0.000762384 0)
(1.08528 0.0717858 0)
(1.14718 0.0706911 0)
(1.17987 0.0663433 0)
(1.19398 0.0624135 0)
(1.19824 0.0584382 0)
(1.19799 0.0546688 0)
(1.19591 0.0510973 0)
(1.19319 0.0477155 0)
(1.19029 0.0445073 0)
(1.18735 0.0414585 0)
(1.18443 0.0385577 0)
(1.18153 0.035795 0)
(1.17867 0.0331618 0)
(1.17586 0.0306495 0)
(1.17311 0.0282501 0)
(1.17046 0.0259557 0)
(1.16791 0.0237585 0)
(1.16549 0.0216508 0)
(1.16321 0.0196253 0)
(1.16107 0.0176745 0)
(1.1591 0.0157914 0)
(1.15731 0.0139691 0)
(1.15569 0.0122007 0)
(1.15426 0.0104796 0)
(1.15303 0.00879913 0)
(1.15199 0.00715292 0)
(1.15116 0.00553461 0)
(1.15053 0.00393792 0)
(1.15011 0.0023566 0)
(1.1499 0.000784488 0)
(1.0842 0.0725611 0)
(1.14527 0.0714615 0)
(1.17763 0.0671461 0)
(1.1917 0.0632256 0)
(1.19605 0.0592506 0)
(1.1959 0.0554742 0)
(1.19393 0.0518912 0)
(1.19131 0.0484943 0)
(1.18851 0.0452681 0)
(1.18566 0.0421987 0)
(1.18282 0.0392749 0)
(1.17999 0.036487 0)
(1.1772 0.0338265 0)
(1.17445 0.031285 0)
(1.17177 0.0288548 0)
(1.16918 0.0265279 0)
(1.16668 0.0242968 0)
(1.16431 0.0221539 0)
(1.16207 0.0200919 0)
(1.15998 0.0181037 0)
(1.15804 0.0161824 0)
(1.15628 0.0143209 0)
(1.15469 0.0125127 0)
(1.15328 0.0107511 0)
(1.15207 0.00902974 0)
(1.15105 0.00734217 0)
(1.15023 0.00568215 0)
(1.14962 0.00404349 0)
(1.1492 0.00242002 0)
(1.149 0.00080564 0)
(1.08314 0.0732636 0)
(1.14338 0.0721576 0)
(1.17541 0.0678768 0)
(1.18943 0.063969 0)
(1.19385 0.0599981 0)
(1.19381 0.0562186 0)
(1.19195 0.0526278 0)
(1.18943 0.0492195 0)
(1.18671 0.0459786 0)
(1.18395 0.0428919 0)
(1.18119 0.0399482 0)
(1.17844 0.0371381 0)
(1.17572 0.0344531 0)
(1.17304 0.0318852 0)
(1.17042 0.0294267 0)
(1.16787 0.0270698 0)
(1.16543 0.0248072 0)
(1.16311 0.0226315 0)
(1.16091 0.0205355 0)
(1.15886 0.0185122 0)
(1.15696 0.0165546 0)
(1.15522 0.0146562 0)
(1.15366 0.0128102 0)
(1.15229 0.0110102 0)
(1.15109 0.00924986 0)
(1.15009 0.00752287 0)
(1.14928 0.00582307 0)
(1.14868 0.00414435 0)
(1.14827 0.00248061 0)
(1.14807 0.000825852 0)
(1.0821 0.0738941 0)
(1.14151 0.0727805 0)
(1.1732 0.0685368 0)
(1.18717 0.064645 0)
(1.19165 0.0606817 0)
(1.19172 0.0569031 0)
(1.18996 0.0533083 0)
(1.18754 0.0498919 0)
(1.18492 0.0466398 0)
(1.18224 0.0435388 0)
(1.17955 0.0405783 0)
(1.17688 0.0377488 0)
(1.17422 0.0350422 0)
(1.1716 0.0324506 0)
(1.16904 0.0299664 0)
(1.16656 0.0275821 0)
(1.16417 0.0252904 0)
(1.16189 0.0230842 0)
(1.15973 0.0209564 0)
(1.15772 0.0189 0)
(1.15585 0.0169085 0)
(1.15415 0.0149751 0)
(1.15262 0.0130934 0)
(1.15126 0.011257 0)
(1.15009 0.00945964 0)
(1.14911 0.00769516 0)
(1.14832 0.00595748 0)
(1.14772 0.00424057 0)
(1.14732 0.00253843 0)
(1.14712 0.000845138 0)
(1.08106 0.0744537 0)
(1.13966 0.0733315 0)
(1.17101 0.0691273 0)
(1.18492 0.0652547 0)
(1.18946 0.0613029 0)
(1.18963 0.0575288 0)
(1.18797 0.0539335 0)
(1.18565 0.0505127 0)
(1.18311 0.0472525 0)
(1.18051 0.0441405 0)
(1.1779 0.0411661 0)
(1.1753 0.0383201 0)
(1.17271 0.0355946 0)
(1.17016 0.0329819 0)
(1.16765 0.0304745 0)
(1.16522 0.0280652 0)
(1.16288 0.0257468 0)
(1.16065 0.0235123 0)
(1.15854 0.0213549 0)
(1.15656 0.0192677 0)
(1.15473 0.0172443 0)
(1.15306 0.015278 0)
(1.15156 0.0133625 0)
(1.15022 0.0114917 0)
(1.14907 0.00965924 0)
(1.1481 0.00785916 0)
(1.14733 0.00608546 0)
(1.14674 0.00433221 0)
(1.14635 0.0025935 0)
(1.14615 0.000863513 0)
(1.08004 0.0749436 0)
(1.13782 0.0738122 0)
(1.16883 0.0696499 0)
(1.18267 0.0657996 0)
(1.18727 0.0618628 0)
(1.18753 0.058097 0)
(1.18598 0.0545048 0)
(1.18375 0.0510828 0)
(1.1813 0.0478178 0)
(1.17878 0.0446978 0)
(1.17625 0.0417124 0)
(1.17371 0.0388527 0)
(1.17119 0.0361109 0)
(1.1687 0.0334796 0)
(1.16625 0.0309516 0)
(1.16387 0.0285196 0)
(1.16158 0.0261768 0)
(1.15939 0.0239164 0)
(1.15732 0.0217315 0)
(1.15539 0.0196156 0)
(1.15359 0.0175623 0)
(1.15195 0.0155651 0)
(1.15047 0.0136179 0)
(1.14916 0.0117145 0)
(1.14803 0.00984884 0)
(1.14708 0.00801502 0)
(1.14631 0.00620713 0)
(1.14574 0.00441936 0)
(1.14535 0.00264589 0)
(1.14516 0.000880991 0)
(1.07903 0.0753651 0)
(1.136 0.0742241 0)
(1.16666 0.0701062 0)
(1.18044 0.0662812 0)
(1.1851 0.0623629 0)
(1.18545 0.0586089 0)
(1.18399 0.0550232 0)
(1.18185 0.0516033 0)
(1.17949 0.0483367 0)
(1.17705 0.0452116 0)
(1.17459 0.0422181 0)
(1.17212 0.0393474 0)
(1.16966 0.036592 0)
(1.16723 0.0339446 0)
(1.16484 0.0313983 0)
(1.16251 0.028946 0)
(1.16027 0.0265811 0)
(1.15813 0.0242968 0)
(1.1561 0.0220866 0)
(1.15419 0.0199441 0)
(1.15243 0.0178629 0)
(1.15082 0.0158368 0)
(1.14937 0.0138597 0)
(1.14809 0.0119256 0)
(1.14697 0.0100286 0)
(1.14604 0.00816288 0)
(1.14529 0.0063226 0)
(1.14472 0.00450209 0)
(1.14434 0.00269563 0)
(1.14415 0.000897588 0)
(1.07803 0.0757198 0)
(1.1342 0.0745689 0)
(1.16452 0.0704977 0)
(1.17822 0.066701 0)
(1.18293 0.0628047 0)
(1.18337 0.0590659 0)
(1.18201 0.0554901 0)
(1.17996 0.0520755 0)
(1.17767 0.0488102 0)
(1.17531 0.045683 0)
(1.17292 0.042684 0)
(1.17052 0.039805 0)
(1.16813 0.0370385 0)
(1.16575 0.0343775 0)
(1.16342 0.0318152 0)
(1.16114 0.0293449 0)
(1.15894 0.0269601 0)
(1.15684 0.0246541 0)
(1.15485 0.0224207 0)
(1.15299 0.0202535 0)
(1.15126 0.0181464 0)
(1.14968 0.0160933 0)
(1.14825 0.0140882 0)
(1.14699 0.0121253 0)
(1.1459 0.0101988 0)
(1.14498 0.00830289 0)
(1.14424 0.006432 0)
(1.14368 0.00458049 0)
(1.14331 0.00274277 0)
(1.14312 0.000913322 0)
(1.07704 0.076009 0)
(1.13242 0.0748484 0)
(1.16239 0.0708263 0)
(1.17602 0.0670608 0)
(1.18077 0.0631897 0)
(1.1813 0.0594695 0)
(1.18002 0.0559068 0)
(1.17806 0.0525005 0)
(1.17586 0.0492396 0)
(1.17357 0.046113 0)
(1.17125 0.0431113 0)
(1.16892 0.0402265 0)
(1.16658 0.0374513 0)
(1.16427 0.0347791 0)
(1.16198 0.0322032 0)
(1.15976 0.0297171 0)
(1.15761 0.0273144 0)
(1.15555 0.0249888 0)
(1.1536 0.0227341 0)
(1.15177 0.0205443 0)
(1.15007 0.0184132 0)
(1.14852 0.0163349 0)
(1.14712 0.0143037 0)
(1.14588 0.0123138 0)
(1.1448 0.0103595 0)
(1.1439 0.00843523 0)
(1.14317 0.00653544 0)
(1.14262 0.00465465 0)
(1.14226 0.00278738 0)
(1.14207 0.00092821 0)
(1.07607 0.0762347 0)
(1.13067 0.0750644 0)
(1.16029 0.0710938 0)
(1.17384 0.0673622 0)
(1.17863 0.0635195 0)
(1.17923 0.0598212 0)
(1.17805 0.0562746 0)
(1.17617 0.0528797 0)
(1.17405 0.0496259 0)
(1.17184 0.0465026 0)
(1.16958 0.0435008 0)
(1.16731 0.0406127 0)
(1.16504 0.0378313 0)
(1.16277 0.0351501 0)
(1.16054 0.0325628 0)
(1.15837 0.030063 0)
(1.15626 0.0276446 0)
(1.15424 0.0253014 0)
(1.15233 0.0230275 0)
(1.15054 0.0208168 0)
(1.14887 0.0186636 0)
(1.14735 0.0165621 0)
(1.14597 0.0145065 0)
(1.14475 0.0124913 0)
(1.1437 0.010511 0)
(1.14281 0.00856005 0)
(1.14209 0.00663306 0)
(1.14155 0.00472466 0)
(1.14119 0.0028295 0)
(1.14101 0.00094227 0)
(1.0751 0.0763985 0)
(1.12893 0.075219 0)
(1.15821 0.0713021 0)
(1.17167 0.0676071 0)
(1.1765 0.0637959 0)
(1.17718 0.0601224 0)
(1.17609 0.056595 0)
(1.17429 0.0532143 0)
(1.17224 0.0499704 0)
(1.1701 0.0468531 0)
(1.16791 0.0438537 0)
(1.1657 0.0409646 0)
(1.16348 0.0381793 0)
(1.16128 0.0354914 0)
(1.1591 0.0328948 0)
(1.15697 0.0303834 0)
(1.15491 0.0279513 0)
(1.15293 0.0255925 0)
(1.15105 0.0233012 0)
(1.14929 0.0210717 0)
(1.14766 0.0188981 0)
(1.14616 0.0167751 0)
(1.14481 0.0146969 0)
(1.14361 0.0126582 0)
(1.14257 0.0106535 0)
(1.1417 0.00867752 0)
(1.141 0.00672498 0)
(1.14047 0.00479062 0)
(1.14011 0.00286919 0)
(1.13993 0.00095552 0)
(1.07415 0.0765023 0)
(1.12722 0.0753142 0)
(1.15615 0.0714533 0)
(1.16953 0.0677973 0)
(1.17439 0.0640205 0)
(1.17515 0.0603748 0)
(1.17413 0.0568695 0)
(1.17242 0.0535057 0)
(1.17044 0.0502743 0)
(1.16836 0.0471655 0)
(1.16624 0.0441709 0)
(1.16409 0.0412832 0)
(1.16193 0.0384962 0)
(1.15978 0.0358037 0)
(1.15765 0.0331999 0)
(1.15556 0.030679 0)
(1.15354 0.0282351 0)
(1.15161 0.0258626 0)
(1.14977 0.0235558 0)
(1.14804 0.0213092 0)
(1.14643 0.0191171 0)
(1.14496 0.0169742 0)
(1.14364 0.0148752 0)
(1.14246 0.0128146 0)
(1.14144 0.0107872 0)
(1.14058 0.00878784 0)
(1.13989 0.00681135 0)
(1.13937 0.00485262 0)
(1.13902 0.00290651 0)
(1.13884 0.000967981 0)
(1.07321 0.0765482 0)
(1.12553 0.0753522 0)
(1.15412 0.0715493 0)
(1.16741 0.0679349 0)
(1.1723 0.0641951 0)
(1.17313 0.0605801 0)
(1.17219 0.0570996 0)
(1.17055 0.0537554 0)
(1.16864 0.050539 0)
(1.16664 0.0474411 0)
(1.16457 0.0444535 0)
(1.16248 0.0415695 0)
(1.16038 0.0387829 0)
(1.15827 0.036088 0)
(1.15619 0.033479 0)
(1.15415 0.0309504 0)
(1.15217 0.0284967 0)
(1.15028 0.0261123 0)
(1.14847 0.0237918 0)
(1.14678 0.0215298 0)
(1.1452 0.019321 0)
(1.14376 0.01716 0)
(1.14245 0.0150417 0)
(1.14129 0.0129608 0)
(1.14029 0.0109123 0)
(1.13944 0.00889117 0)
(1.13876 0.00689231 0)
(1.13825 0.00491076 0)
(1.13791 0.00294152 0)
(1.13774 0.000979672 0)
(1.07229 0.0765382 0)
(1.12387 0.0753352 0)
(1.15211 0.0715924 0)
(1.16531 0.0680217 0)
(1.17022 0.0643217 0)
(1.17112 0.06074 0)
(1.17026 0.0572868 0)
(1.16869 0.0539647 0)
(1.16686 0.0507657 0)
(1.16491 0.047681 0)
(1.16291 0.0447028 0)
(1.16087 0.0418245 0)
(1.15882 0.0390404 0)
(1.15677 0.036345 0)
(1.15473 0.0337328 0)
(1.15274 0.0311985 0)
(1.1508 0.0287367 0)
(1.14894 0.0263423 0)
(1.14717 0.0240098 0)
(1.1455 0.0217342 0)
(1.14396 0.0195101 0)
(1.14254 0.0173327 0)
(1.14125 0.0151967 0)
(1.14012 0.0130972 0)
(1.13913 0.0110291 0)
(1.1383 0.00898772 0)
(1.13763 0.006968 0)
(1.13712 0.00496514 0)
(1.13679 0.00297428 0)
(1.13662 0.000990614 0)
(1.07138 0.0764746 0)
(1.12223 0.0752656 0)
(1.15013 0.0715847 0)
(1.16324 0.0680598 0)
(1.16817 0.0644021 0)
(1.16913 0.0608562 0)
(1.16834 0.0574328 0)
(1.16685 0.0541352 0)
(1.16508 0.0509559 0)
(1.1632 0.0478865 0)
(1.16125 0.0449198 0)
(1.15927 0.0420493 0)
(1.15727 0.0392697 0)
(1.15526 0.0365757 0)
(1.15327 0.0339621 0)
(1.15132 0.0314239 0)
(1.14942 0.0289559 0)
(1.14759 0.026553 0)
(1.14586 0.0242103 0)
(1.14422 0.0219226 0)
(1.1427 0.019685 0)
(1.14131 0.0174927 0)
(1.14005 0.0153406 0)
(1.13893 0.0132239 0)
(1.13796 0.0111379 0)
(1.13714 0.00907766 0)
(1.13648 0.00703858 0)
(1.13599 0.00501588 0)
(1.13565 0.00300485 0)
(1.13549 0.00100083 0)
(1.07048 0.0763595 0)
(1.12061 0.0751456 0)
(1.14818 0.0715284 0)
(1.16119 0.0680513 0)
(1.16615 0.0644382 0)
(1.16716 0.0609305 0)
(1.16645 0.0575392 0)
(1.16502 0.0542683 0)
(1.16331 0.0511109 0)
(1.16149 0.048059 0)
(1.1596 0.0451057 0)
(1.15767 0.042245 0)
(1.15571 0.0394718 0)
(1.15375 0.036781 0)
(1.15181 0.0341678 0)
(1.1499 0.0316274 0)
(1.14803 0.0291548 0)
(1.14624 0.0267452 0)
(1.14454 0.0243938 0)
(1.14294 0.0220957 0)
(1.14144 0.0198461 0)
(1.14007 0.0176404 0)
(1.13883 0.0154737 0)
(1.13773 0.0133413 0)
(1.13678 0.0112387 0)
(1.13597 0.00916121 0)
(1.13532 0.00710418 0)
(1.13484 0.00506308 0)
(1.13451 0.0030333 0)
(1.13434 0.00101033 0)
(1.0696 0.0761953 0)
(1.11903 0.0749778 0)
(1.14626 0.0714258 0)
(1.15918 0.0679985 0)
(1.16414 0.064432 0)
(1.16522 0.0609647 0)
(1.16456 0.0576077 0)
(1.1632 0.0543656 0)
(1.16156 0.0512321 0)
(1.15979 0.0481997 0)
(1.15795 0.0452617 0)
(1.15607 0.0424126 0)
(1.15417 0.0396476 0)
(1.15225 0.0369618 0)
(1.15035 0.0343507 0)
(1.14847 0.0318097 0)
(1.14665 0.0293342 0)
(1.14489 0.0269194 0)
(1.14322 0.0245609 0)
(1.14164 0.0222539 0)
(1.14017 0.0199938 0)
(1.13883 0.0177762 0)
(1.13761 0.0155963 0)
(1.13653 0.0134498 0)
(1.13559 0.011332 0)
(1.1348 0.00923855 0)
(1.13416 0.00716498 0)
(1.13368 0.00510685 0)
(1.13335 0.0030597 0)
(1.13319 0.00101916 0)
(1.06874 0.0759843 0)
(1.11747 0.0747646 0)
(1.14437 0.0712792 0)
(1.15719 0.0679033 0)
(1.16216 0.0643856 0)
(1.16329 0.0609606 0)
(1.1627 0.0576399 0)
(1.1614 0.0544286 0)
(1.15981 0.051321 0)
(1.1581 0.0483098 0)
(1.15631 0.045389 0)
(1.15448 0.0425534 0)
(1.15262 0.0397982 0)
(1.15075 0.037119 0)
(1.14888 0.0345117 0)
(1.14705 0.0319717 0)
(1.14526 0.0294948 0)
(1.14354 0.0270764 0)
(1.14189 0.0247122 0)
(1.14034 0.0223978 0)
(1.1389 0.0201287 0)
(1.13758 0.0179005 0)
(1.13638 0.0157089 0)
(1.13531 0.0135495 0)
(1.13439 0.0114179 0)
(1.13361 0.0093099 0)
(1.13298 0.00722112 0)
(1.13251 0.00514729 0)
(1.13219 0.00308411 0)
(1.13203 0.00102732 0)
(1.06789 0.0757291 0)
(1.11594 0.0745084 0)
(1.14252 0.071091 0)
(1.15523 0.067768 0)
(1.16021 0.0643009 0)
(1.16139 0.0609202 0)
(1.16086 0.0576377 0)
(1.15962 0.054459 0)
(1.15808 0.051379 0)
(1.15642 0.0483909 0)
(1.15469 0.0454889 0)
(1.1529 0.0426683 0)
(1.15108 0.0399246 0)
(1.14925 0.0372537 0)
(1.14743 0.0346516 0)
(1.14563 0.0321142 0)
(1.14387 0.0296373 0)
(1.14218 0.0272167 0)
(1.14056 0.0248483 0)
(1.13904 0.0225278 0)
(1.13762 0.020251 0)
(1.13632 0.0180137 0)
(1.13514 0.0158117 0)
(1.13409 0.0136408 0)
(1.13318 0.0114967 0)
(1.13241 0.00937546 0)
(1.1318 0.00727277 0)
(1.13133 0.00518454 0)
(1.13102 0.0031066 0)
(1.13086 0.00103484 0)
(1.06706 0.075432 0)