/*--------------------------------*- C++ -*----------------------------------*\
  =========                 |
  \\      /  F ield         | OpenFOAM: The Open Source CFD Toolbox
   \\    /   O peration     | Website:  https://openfoam.org
    \\  /    A nd           | Version:  7
     \\/     M anipulation  |
\*---------------------------------------------------------------------------*/
FoamFile
{
    version     2.0;
    format      ascii;
    class       surfaceScalarField;
    location    "25";
    object      phi;
}
// * * * * * * * * * * * * * * * * * * * * * * * * * * * * * * * * * * * * * //

dimensions      [0 3 -1 0 0 0 0];

internalField   nonuniform List<scalar> 
26215
(
-3.83264e-06
3.83269e-06
-4.97857e-11
-1.4215e-05
1.03825e-05
-7.77159e-11
-3.04536e-05
1.62386e-05
-4.65053e-11
-5.1862e-05
2.14084e-05
3.50323e-11
-7.77731e-05
2.59109e-05
1.57368e-10
-0.000107564
2.97907e-05
3.12945e-10
-0.000140686
3.31216e-05
4.93272e-10
-0.000176697
3.60098e-05
6.95072e-10
-0.000215295
3.85969e-05
9.12919e-10
-0.000256359
4.10633e-05
1.14471e-09
-0.000299989
4.36288e-05
1.40037e-09
-0.000346536
4.65449e-05
1.68831e-09
-0.000396614
5.00761e-05
2.02116e-09
-0.000451104
5.44878e-05
2.41532e-09
6.00414e-05
2.88886e-09
-0.000511148
-3.75926e-06
7.59195e-06
-1.39489e-05
2.05721e-05
-2.98838e-05
3.21735e-05
-5.08782e-05
4.24029e-05
-7.6258e-05
5.12907e-05
-0.000105386
5.89184e-05
-0.000137689
6.54252e-05
-0.000172693
7.10134e-05
-0.000210052
7.59564e-05
-0.000249596
8.06071e-05
-0.000291369
8.54015e-05
-0.000335672
9.08481e-05
-0.000383089
9.74933e-05
-0.0004345
0.000105899
0.000116631
-0.00049109
-3.61889e-06
1.12108e-05
-1.34371e-05
3.03903e-05
-2.87845e-05
4.75209e-05
-4.89747e-05
6.25931e-05
-7.33196e-05
7.56356e-05
-0.000101153
8.67518e-05
-0.000131857
9.6129e-05
-0.00016489
0.000104046
-0.000199822
0.000110889
-0.000236377
0.000117162
-0.000274485
0.00012351
-0.000314342
0.000130705
-0.000356461
0.000139612
-0.000401716
0.000151154
0.000166315
-0.000451401
-3.42323e-06
1.46341e-05
-1.27176e-05
3.96847e-05
-2.72293e-05
6.20325e-05
-4.62683e-05
8.16322e-05
-6.9125e-05
9.84923e-05
-9.50912e-05
0.000112718
-0.000123482
0.00012452
-0.000153661
0.000134225
-0.000185068
0.000142296
-0.000217266
0.00014936
-0.00025
0.000156244
-0.000283288
0.000163993
-0.000317513
0.000173837
-0.000353525
0.000187167
0.000205607
-0.000392817
-3.18751e-06
1.78216e-05
-1.18392e-05
4.83364e-05
-2.53126e-05
7.55059e-05
-4.2908e-05
9.92276e-05
-6.38855e-05
0.00011947
-8.74833e-05
0.000136316
-0.000112932
0.000149969
-0.000139473
0.000160766
-0.000166377
0.000169199
-0.000192984
0.000175967
-0.000218776
0.000182035
-0.000243488
0.000188705
-0.000267277
0.000197626
-0.000290907
0.000210796
0.000230854
-0.000316154
-2.92789e-06
2.07495e-05
-1.0853e-05
5.62615e-05
-2.31321e-05
8.77849e-05
-3.90447e-05
0.00011514
-5.78112e-05
0.000138236
-7.86053e-05
0.00015711
-0.00010056
0.000171924
-0.000122773
0.000182978
-0.00014431
0.000190737
-0.000164235
0.000195892
-0.000181668
0.000199469
-0.000195938
0.000202975
-0.000206832
0.00020852
-0.000214892
0.000218856
0.000238
-0.000222038
-2.65883e-06
2.34083e-05
-9.8036e-06
6.34063e-05
-2.07692e-05
9.87505e-05
-3.47984e-05
0.000129169
-5.10583e-05
0.000154496
-6.86472e-05
0.000174699
-8.65899e-05
0.000189867
-0.000103825
0.000200213
-0.00011919
0.000206102
-0.000131422
0.000208123
-0.000139196
0.000207243
-0.000141276
0.000205056
-0.000136883
0.000204127
-0.000126349
0.000208322
0.000222492
-0.000110841
-2.39069e-06
2.5799e-05
-8.72017e-06
6.97358e-05
-1.82715e-05
0.000108302
-3.02258e-05
0.000141124
-4.36771e-05
0.000167948
-5.76319e-05
0.000188654
-7.09932e-05
0.000203228
-8.25294e-05
0.000211749
-9.08322e-05
0.000214405
-9.42769e-05
0.000211568
-9.10201e-05
0.000203986
-7.91011e-05
0.000193137
-5.67589e-05
0.000181785
-2.3482e-05
0.000175045
0.000183748
1.52622e-05
-2.12821e-06
2.79272e-05
-7.61138e-06
7.52189e-05
-1.56399e-05
0.00011633
-2.52972e-05
0.000150781
-3.55716e-05
0.000178222
-4.53487e-05
0.000198431
-5.33842e-05
0.000211264
-5.82548e-05
0.00021662
-5.82874e-05
0.000214438
-5.14726e-05
0.000204753
-3.53856e-05
0.000187899
-7.19718e-06
0.000164949
3.60351e-05
0.000138552
9.62333e-05
0.000114847
0.000108174
0.000171808
-1.87026e-06
2.97975e-05
-6.46351e-06
7.98122e-05
-1.28245e-05
0.000122692
-1.98877e-05
0.000157844
-2.64839e-05
0.000184818
-3.13253e-05
0.000203272
-3.29673e-05
0.000212905
-2.9745e-05
0.000213398
-1.96813e-05
0.000204374
-3.59177e-07
0.000185431
3.12333e-05
0.000156307
7.88246e-05
0.000117357
0.000146735
7.06417e-05
0.000239083
2.24995e-05
-8.30357e-06
0.00035556
-1.61059e-06
3.1408e-05
-5.24244e-06
8.3444e-05
-9.72831e-06
0.000127177
-1.3784e-05
0.0001619
-1.60062e-05
0.00018704
-1.48472e-05
0.000202113
-8.56526e-06
0.000206624
4.84856e-06
0.000199984
2.77727e-05
0.00018145
6.30951e-05
0.000150109
0.000114409
0.000104993
0.00018625
4.5516e-05
0.000284232
-2.73396e-05
0.000414636
-0.000107905
-0.000173783
0.000580116
-1.33871e-06
3.27468e-05
-3.89658e-06
8.60019e-05
-6.21419e-06
0.000129495
-6.69992e-06
0.000162385
-3.61256e-06
0.000183953
4.98012e-06
0.00019352
2.12668e-05
0.000190337
4.77734e-05
0.000173477
8.74604e-05
0.000141763
0.000143841
9.37279e-05
0.000221142
2.76921e-05
0.000324553
-5.78951e-05
0.000460548
-0.000163335
0.000636827
-0.000284183
-0.000395652
0.000858695
-1.03983e-06
3.37866e-05
-2.35707e-06
8.73191e-05
-2.10649e-06
0.000129244
1.7138e-06
0.000158565
1.13105e-05
0.000174356
2.91612e-05
0.00017567
5.80952e-05
0.000161403
0.000101386
0.000130186
0.000162835
8.03143e-05
0.000246822
9.74064e-06
0.00035834
-8.38255e-05
0.000503063
-0.000202618
0.000687672
-0.000347943
0.000919992
-0.000516504
-0.000678938
0.00120328
-6.92887e-07
3.44795e-05
-5.30825e-07
8.71571e-05
2.81259e-06
0.000125901
1.18722e-05
0.000149506
2.94642e-05
0.000156764
5.87834e-05
0.00014635
0.000103514
0.000116672
0.000167929
6.57712e-05
0.000256942
-8.69791e-06
0.000376072
-0.00010939
0.000531267
-0.000239021
0.000728569
-0.00039992
0.000973843
-0.000593217
0.00127289
-0.000815552
-0.00102247
0.00161642
-2.68247e-07
3.47477e-05
1.70042e-06
8.51884e-05
8.82516e-06
0.000118776
2.42887e-05
0.000134042
5.16599e-05
0.000129393
9.50234e-05
0.000102987
0.000159106
5.25892e-05
0.000249365
-2.44878e-05
0.000371994
-0.000131327
0.000533787
-0.000271183
0.000741805
-0.000447039
0.00100278
-0.000660896
0.00132179
-0.000912226
0.00169835
-0.00119211
-0.00140252
0.0020784
2.792e-07
3.44685e-05
4.5044e-06
8.09632e-05
1.62879e-05
0.000106993
3.95778e-05
0.000110752
7.88266e-05
9.01445e-05
0.000139137
4.26769e-05
0.000226369
-3.46432e-05
0.000347166
-0.000145285
0.000508826
-0.000292987
0.000718988
-0.000481345
0.000985124
-0.000713174
0.00131394
-0.000989715
0.00171126
-0.00130955
0.00218667
-0.00166753
-0.00201689
0.00280104
1.00244e-06
3.34661e-05
8.07651e-06
7.38891e-05
2.56151e-05
8.94542e-05
5.84331e-05
7.7934e-05
0.000111961
3.66168e-05
0.000192367
-3.77292e-05
0.000306579
-0.000148855
0.000462129
-0.000300835
0.000666749
-0.000497607
0.000927676
-0.000742272
0.0012507
-0.0010362
0.00163919
-0.0013782
0.00209376
-0.00176412
0.00261176
-0.00218553
-0.00262136
0.00321623
1.96443e-06
3.15016e-05
1.26292e-05
6.32243e-05
3.72374e-05
6.4846e-05
8.15382e-05
3.36333e-05
0.00015197
-3.38147e-05
0.00025569
-0.00014145
0.000400407
-0.000293571
0.000593905
-0.000494333
0.000843226
-0.000746928
0.00115349
-0.00105253
0.00152655
-0.00140926
0.00195982
-0.00181147
0.00244566
-0.00224995
0.00297145
-0.00271131
-0.0031843
0.00353439
3.22443e-06
2.82772e-05
1.83577e-05
4.8091e-05
5.15254e-05
3.16783e-05
0.000109422
-2.42628e-05
0.000199415
-0.000123808
0.00032939
-0.000271425
0.000507252
-0.000471434
0.000740024
-0.000727105
0.00103252
-0.00103942
0.00138582
-0.00140583
0.00179587
-0.00181932
0.00225285
-0.00226845
0.00274139
-0.00273849
0.0032424
-0.00321232
-0.00368402
0.00374212
4.8306e-06
2.34466e-05
2.54054e-05
2.75163e-05
6.871e-05
-1.16264e-05
0.000142302
-9.78551e-05
0.000254246
-0.000235752
0.000412638
-0.000429816
0.000624666
-0.000683462
0.000895202
-0.00099764
0.00122511
-0.00136933
0.00160971
-0.00179044
0.00203812
-0.00224772
0.00249382
-0.00272416
0.00295666
-0.00320133
0.00340657
-0.00366223
-0.00410332
0.00382587
6.81322e-06
1.66334e-05
3.38371e-05
4.924e-07
8.88179e-05
-6.66072e-05
0.000179968
-0.000189006
0.000315606
-0.00037139
0.000503239
-0.000617449
0.000748107
-0.00092833
0.00105136
-0.00130089
0.00140838
-0.00172635
0.00180796
-0.00219001
0.00223302
-0.00267278
0.00266305
-0.00315419
0.00307768
-0.00361597
0.00346081
-0.00404536
-0.0044425
0.00379999
9.18173e-06
7.45166e-06
4.36221e-05
-3.39479e-05
0.000111632
-0.000134617
0.000221706
-0.00029908
0.000381742
-0.000531426
0.000597592
-0.0008333
0.000871144
-0.00120188
0.00119842
-0.00162817
0.00156856
-0.00209649
0.00196445
-0.0025859
0.00236531
-0.00307365
0.00275067
-0.00353955
0.00310429
-0.00396959
0.00341721
-0.00435828
-0.00471053
0.00368524
1.19214e-05
-4.46976e-06
5.46276e-05
-7.66541e-05
0.000136671
-0.00021666
0.000266278
-0.000428687
0.000450031
-0.000715178
0.000690896
-0.00107416
0.000986101
-0.00149709
0.00132576
-0.00196783
0.00169322
-0.00246395
0.00206763
-0.00296031
0.00242812
-0.00343413
0.00275807
-0.0038695
0.00304808
-0.0042596
0.00329673
-0.00460693
-0.00492088
0.00350708
1.49934e-05
-1.94632e-05
6.66101e-05
-0.000128271
0.000163188
-0.000313238
0.000311957
-0.000577456
0.000517134
-0.000920355
0.0007776
-0.00133463
0.00108507
-0.00180456
0.00142396
-0.00230672
0.00177361
-0.0028136
0.00211258
-0.00329928
0.00242331
-0.00374487
0.00269543
-0.00414162
0.00292664
-0.00449081
0.00312134
-0.00480163
-0.00508642
0.00328689
1.83328e-05
-3.7796e-05
7.92172e-05
-0.000189155
0.000190188
-0.000424209
0.000356615
-0.000743883
0.000579278
-0.00114302
0.00085207
-0.00160742
0.00116112
-0.00211361
0.00148644
-0.00263204
0.00180605
-0.00313321
0.00210102
-0.00359425
0.00235933
-0.00400319
0.00257725
-0.00435954
0.00275813
-0.00467169
0.00290974
-0.00495323
-0.00521755
0.00304087
2.18452e-05
-5.96413e-05
9.1993e-05
-0.000259303
0.000216477
-0.000548693
0.000397887
-0.000925293
0.000632658
-0.00137779
0.000909339
-0.0018841
0.00120929
-0.00241356
0.00151029
-0.00293304
0.00179181
-0.00341473
0.00203962
-0.00384206
0.00224786
-0.00421143
0.00241834
-0.00453002
0.00255798
-0.00481132
0.00267567
-0.00507093
-0.00532171
0.00277984
2.54097e-05
-8.5051e-05
0.000104399
-0.000338292
0.000240743
-0.000685037
0.000433396
-0.00111795
0.000673891
-0.00161828
0.000945774
-0.00215599
0.00122723
-0.00269502
0.00149624
-0.00320205
0.00173591
-0.0036544
0.00193758
-0.00404373
0.0021009
-0.00437474
0.00223149
-0.00466061
0.00233784
-0.00491768
0.00242852
-0.0051616
-0.00540381
0.00251062
2.88835e-05
-0.000113935
0.000115848
-0.000425257
0.000261667
-0.000830855
0.000461003
-0.00131728
0.000700418
-0.0018577
0.000959475
-0.00241504
0.00121519
-0.00295073
0.00144786
-0.00343472
0.0016454
-0.00385194
0.00180453
-0.00420285
0.00192903
-0.00449924
0.00202661
-0.00475819
0.00210589
-0.00499696
0.00217427
-0.00522998
-0.00546685
0.00223731
3.21109e-05
-0.000146045
0.000125752
-0.000518898
0.00027805
-0.000983153
0.000479034
-0.00151827
0.00071077
-0.00208943
0.000950326
-0.0026546
0.00117551
-0.00317592
0.00137038
-0.00362959
0.0015279
-0.00400945
0.0016492
-0.00432416
0.00174074
-0.00459078
0.00181092
-0.00482837
0.00186757
-0.00505361
0.00191665
-0.00527907
-0.00551251
0.00196231
3.49343e-05
-0.00018098
0.00013357
-0.000617534
0.000288928
-0.00113851
0.000486445
-0.00171578
0.000704629
-0.00230762
0.000919722
-0.00286969
0.00111191
-0.0033681
0.00126966
-0.00378734
0.00139051
-0.00413031
0.00147885
-0.0044125
0.00154245
-0.00465438
0.00158942
-0.00487534
0.00162641
-0.0050906
0.00165797
-0.00531063
-0.00554164
0.0016871
3.72072e-05
-0.000218187
0.000138856
-0.000719183
0.000293653
-0.00129331
0.000482872
-0.001905
0.000682707
-0.00250745
0.00087013
-0.00305712
0.00102872
-0.0035267
0.00115139
-0.00391
0.00123938
-0.0042183
0.00129914
-0.00447226
0.00133877
-0.004694
0.00136551
-0.00490208
0.00138471
-0.00510979
0.0013997
-0.00532562
-0.00555456
0.00141261
3.88047e-05
-0.000256992
0.00014129
-0.000821668
0.00029193
-0.00144395
0.000468593
-0.00208167
0.0006465
-0.00268536
0.000804602
-0.00321522
0.000930349
-0.00365244
0.00102063
-0.00400029
0.00107947
-0.00427714
0.00111434
-0.00450713
0.00113297
-0.00471263
0.0011415
-0.00491061
0.00114401
-0.0051123
0.00114287
-0.00532448
-0.00555124
0.00113955
3.96326e-05
-0.000296624
0.000140704
-0.00092274
0.000283811
-0.00158706
0.000444404
-0.00224226
0.000597999
-0.00283895
0.000726371
-0.00334359
0.000820857
-0.00374693
0.000881673
-0.00406111
0.00091466
-0.00431013
0.000927565
-0.00452003
0.000927338
-0.0047124
0.000918955
-0.00490223
0.00090542
-0.00509877
0.000888337
-0.0053074
-0.00553152
0.000868609
3.96319e-05
-0.000336256
0.000137072
-0.00102018
0.000269646
-0.00171963
0.000411469
-0.00238408
0.000539417
-0.0029669
0.000638548
-0.00344272
0.000703798
-0.00381218
0.000737954
-0.00409526
0.000747892
-0.00432007
0.000741089
-0.00451323
0.000723515
-0.00469483
0.000699041
-0.00487776
0.000669795
-0.00506952
0.000636829
-0.00527443
-0.00549538
0.000600689
3.87803e-05
-0.000375036
0.000130503
-0.0011119
0.000250011
-0.00183914
0.000371156
-0.00250523
0.000472975
-0.00306872
0.000543947
-0.00351369
0.000582133
-0.00385037
0.000592175
-0.0041053
0.000581367
-0.00430926
0.000556579
-0.00448844
0.000522756
-0.00466101
0.000482773
-0.00483777
0.000437987
-0.00502474
0.000388952
-0.0052254
-0.00544324
0.000336813
3.70894e-05
-0.000412126
0.000121215
-0.00119603
0.000225632
-0.00194355
0.0003249
-0.00260449
0.000400754
-0.00314458
0.000444988
-0.00355793
0.000458244
-0.00386362
0.000446387
-0.00409345
0.000416678
-0.00427955
0.000375221
-0.00444698
0.000326017
-0.0046118
0.000271142
-0.0047829
0.00021128
-0.00496488
0.000146116
-0.00516023
-0.00537098
7.38625e-05
3.46009e-05
-0.000446727
0.000109503
-0.00127093
0.00019731
-0.00203136
0.000274105
-0.00268129
0.000324617
-0.00319509
0.000343689
-0.003577
0.000333995
-0.00385393
0.000302102
-0.00406155
0.000254937
-0.00423238
0.000197791
-0.00438984
0.000133829
-0.00454784
6.45553e-05
-0.00471362
-9.53502e-06
-0.00489079
-8.87672e-05
-0.005081
-0.00528602
-0.00017373
3.13801e-05
-0.000478107
9.57143e-05
-0.00133527
0.000165863
-0.00210151
0.000220075
-0.0027355
0.000246172
-0.00322118
0.000241685
-0.00357251
0.000210819
-0.00382306
0.000160433
-0.00401117
9.69132e-05
-0.00416886
2.47363e-05
-0.00431766
-5.35615e-05
-0.00446954
-0.000136958
-0.00463023
-0.000225374
-0.00480237
-0.000318759
-0.00498761
-0.00518898
-0.000415802
2.75117e-05
-0.000505619
8.02233e-05
-0.00138798
0.000132088
-0.00215338
0.000163984
-0.0027674
0.000166765
-0.00322397
0.000140277
-0.00354602
8.98163e-05
-0.0037726
2.21965e-05
-0.00394355
-5.68051e-05
-0.00408986
-0.000143432
-0.00423103
-0.000235793
-0.00437718
-0.000333199
-0.00453282
-0.000435623
-0.00469995
-0.000542929
-0.00488031
-0.00507744
-0.000654465
2.30994e-05
-0.000528718
6.34208e-05
-0.0014283
9.67439e-05
-0.0021867
0.000106865
-0.00277752
8.74881e-05
-0.00320459
4.05629e-05
-0.0034991
-2.81407e-05
-0.0037039
-0.000111962
-0.00385973
-0.000205798
-0.00399603
-0.000306579
-0.00413025
-0.000412848
-0.00427092
-0.000524148
-0.00442152
-0.000640513
-0.00458358
-0.000761874
-0.00475895
-0.00495155
-0.000887767
1.82718e-05
-0.00054699
4.57126e-05
-0.00145574
6.05398e-05
-0.00220153
4.96254e-05
-0.0027666
9.74224e-06
-0.00316471
-5.65971e-05
-0.00343276
-0.000142427
-0.00361807
-0.000241603
-0.00376055
-0.000349749
-0.00388788
-0.000464406
-0.00401559
-0.00058448
-0.00415084
-0.000709681
-0.00429632
-0.000840113
-0.00445315
-0.000975689
-0.00462337
-0.00481137
-0.00111587
1.31562e-05
-0.000560146
2.74589e-05
-0.00147004
2.42234e-05
-0.00219829
-6.36524e-06
-0.00273601
-6.66831e-05
-0.00310439
-0.000150808
-0.00334863
-0.000252578
-0.0035163
-0.000366337
-0.00364679
-0.00048834
-0.00376588
-0.000616654
-0.00388728
-0.000750492
-0.004017
-0.000889704
-0.00415711
-0.00103449
-0.00430836
-0.00118476
-0.0044731
-0.00465629
-0.00133983
7.81987e-06
-0.000567966
8.92766e-06
-0.00147115
-1.19815e-05
-0.00217738
-6.25372e-05
-0.00268546
-0.000140665
-0.00302626
-0.00024135
-0.00324795
-0.000358091
-0.00339956
-0.000485749
-0.00351913
-0.000621222
-0.0036304
-0.000763059
-0.00374544
-0.000910749
-0.00386931
-0.00106423
-0.00400363
-0.00122366
-0.00414893
-0.00138905
-0.00430772
-0.00448439
-0.00156095
1.93356e-06
-0.000569899
-9.8392e-06
-0.00145938
-4.81392e-05
-0.00213908
-0.000116314
-0.00261728
-0.000211536
-0.00293104
-0.000327658
-0.00313183
-0.000458433
-0.00326878
-0.000599316
-0.00337825
-0.000747836
-0.00348188
-0.000903066
-0.00359021
-0.00106488
-0.0037075
-0.00123336
-0.00383515
-0.00140833
-0.00397396
-0.00158897
-0.00412707
-0.00429181
-0.00178155
-3.67522e-06
-0.000566224
-2.83846e-05
-0.00143467
-8.28062e-05
-0.00208466
-0.000167815
-0.00253227
-0.00027886
-0.00281999
-0.000409287
-0.0030014
-0.000553113
-0.00312496
-0.000706378
-0.00322499
-0.000867209
-0.00332105
-0.00103523
-0.00342219
-0.00121093
-0.00353181
-0.00139506
-0.00365101
-0.00158875
-0.00378028
-0.00179476
-0.00392105
-0.0040974
-0.00198918
-9.12791e-06
-0.000557096
-4.62299e-05
-0.00139757
-0.000116009
-0.00201488
-0.0002167
-0.00243158
-0.000342334
-0.00269436
-0.000485921
-0.00285781
-0.000641773
-0.0029691
-0.000806425
-0.00306034
-0.000978428
-0.00314905
-0.00115774
-0.00324288
-0.00134525
-0.0033443
-0.00154241
-0.00345385
-0.00175029
-0.0035724
-0.0019701
-0.00370124
-0.00382776
-0.00223974
-1.45685e-05
-0.000542528
-6.3374e-05
-0.00134876
-0.000147529
-0.00193072
-0.000262719
-0.00231639
-0.000401748
-0.00255533
-0.000557407
-0.00270215
-0.000724322
-0.00280219
-0.00089945
-0.00288521
-0.00108162
-0.00296688
-0.00127077
-0.00305373
-0.00146727
-0.00314779
-0.00167141
-0.00324971
-0.00188392
-0.00335989
-0.00210891
-0.00347625
-0.00358915
-0.00234753
-1.98155e-05
-0.000522712
-7.96759e-05
-0.0012889
-0.000177182
-0.00183322
-0.000305694
-0.00218788
-0.000456965
-0.00240406
-0.000623662
-0.00253546
-0.000800741
-0.00262511
-0.000985562
-0.00270039
-0.00117725
-0.00277519
-0.00137591
-0.00285507
-0.00158198
-0.00294172
-0.00179605
-0.00303564
-0.00201918
-0.00313677
-0.00225229
-0.00324313
-0.00335149
-0.00248995
-2.48091e-05
-0.000497903
-9.50096e-05
-0.0012187
-0.000204827
-0.0017234
-0.000345507
-0.0020472
-0.000507911
-0.00224166
-0.00068465
-0.00235872
-0.00087099
-0.00243877
-0.00106462
-0.00250676
-0.00126485
-0.00257496
-0.00147179
-0.00264812
-0.00168586
-0.00272766
-0.00190756
-0.00281394
-0.00213755
-0.00290678
-0.00237573
-0.00300495
-0.00310745
-0.00261977
-2.95052e-05
-0.000468398
-0.00010928
-0.00113892
-0.000230361
-0.00160232
-0.000382088
-0.00189548
-0.000554573
-0.00206917
-0.000740432
-0.00217286
-0.000935237
-0.00224396
-0.00113699
-0.00230501
-0.00134517
-0.00236678
-0.00155999
-0.00243331
-0.00178187
-0.00250578
-0.00201131
-0.0025845
-0.0022487
-0.00266939
-0.00249392
-0.00275973
-0.00285566
-0.00274571
-3.38675e-05
-0.000434531
-0.000122414
-0.00105038
-0.000253711
-0.00147102
-0.00041539
-0.0017338
-0.00059694
-0.00188762
-0.000791018
-0.00197878
-0.000993484
-0.0020415
-0.0012026
-0.00209589
-0.00141802
-0.00215136
-0.00164001
-0.00221132
-0.00186901
-0.00227678
-0.0021055
-0.00234801
-0.00234988
-0.00242501
-0.00260226
-0.00250735
-0.00259571
-0.00286221
-3.78661e-05
-0.000396665
-0.000134356
-0.000953887
-0.000274825
-0.00133055
-0.000445392
-0.00156323
-0.000635032
-0.00169798
-0.000836469
-0.00177735
-0.00104583
-0.00183213
-0.00126162
-0.0018801
-0.00148364
-0.00192934
-0.00171219
-0.00198276
-0.00194779
-0.00204118
-0.00219092
-0.00210488
-0.00244204
-0.00217388
-0.00270146
-0.00224793
-0.00232804
-0.00296913
-4.1476e-05
-0.000355189
-0.000145062
-0.000850301
-0.000293664
-0.00118195
-0.000472081
-0.00138481
-0.000668862
-0.0015012
-0.000876817
-0.00156939
-0.00109232
-0.00161663
-0.00131408
-0.00165834
-0.00154201
-0.00170141
-0.0017765
-0.00174827
-0.00201807
-0.00179961
-0.00226727
-0.00185568
-0.00252464
-0.00191652
-0.0027906
-0.00198197
-0.00205323
-0.00306541
-4.46764e-05
-0.000310512
-0.000154498
-0.00074048
-0.000310201
-0.00102625
-0.000495448
-0.00119957
-0.000698444
-0.0012982
-0.00091209
-0.00135575
-0.00113298
-0.00139574
-0.00136
-0.00143132
-0.00159316
-0.00146825
-0.00183291
-0.00150852
-0.00207982
-0.00155271
-0.00233447
-0.00160103
-0.00259747
-0.00165352
-0.00286933
-0.0017101
-0.00177202
-0.00315054
-4.74502e-05
-0.000263062
-0.000162634
-0.000625296
-0.000324414
-0.000864469
-0.000515489
-0.00100849
-0.00072379
-0.0010899
-0.000942308
-0.00113723
-0.00116782
-0.00117023
-0.00139938
-0.00119977
-0.00163707
-0.00123056
-0.0018814
-0.0012642
-0.00213295
-0.00130116
-0.00239236
-0.00134162
-0.00266028
-0.0013856
-0.00293729
-0.00143309
-0.00148526
-0.00322405
-4.97829e-05
-0.000213279
-0.000169447
-0.000505632
-0.000336284
-0.000697633
-0.000532198
-0.000812577
-0.000744907
-0.00087719
-0.000967483
-0.000914652
-0.00119687
-0.000940842
-0.00143223
-0.000964408
-0.00167373
-0.000989056
-0.0019219
-0.00101603
-0.00217736
-0.00104569
-0.0024408
-0.00107818
-0.00271287
-0.00111353
-0.00299423
-0.00115172
-0.00119384
-0.00328566
-5.16628e-05
-0.000161616
-0.00017492
-0.000382374
-0.000345797
-0.000526756
-0.000545572
-0.000612802
-0.000761798
-0.000660964
-0.00098762
-0.000688829
-0.00122011
-0.000708354
-0.00145852
-0.000725994
-0.00170309
-0.000744491
-0.00195436
-0.000764755
-0.00221299
-0.000787057
-0.00247967
-0.000811502
-0.0027551
-0.000838103
-0.00303996
-0.000866867
-0.000898663
-0.00333513
-5.30808e-05
-0.000108536
-0.000179037
-0.000256418
-0.000352942
-0.000352852
-0.000555606
-0.000410137
-0.000774466
-0.000442104
-0.00100272
-0.000460572
-0.00123754
-0.000473534
-0.00147826
-0.000485278
-0.00172513
-0.000497616
-0.00197875
-0.000511143
-0.00223977
-0.000526037
-0.0025089
-0.00054237
-0.00278686
-0.000560146
-0.00307435
-0.000579377
-0.000600673
-0.00337234
-5.40299e-05
-5.45056e-05
-0.000181788
-0.00012866
-0.00035771
-0.00017693
-0.000562298
-0.000205549
-0.000782912
-0.00022149
-0.00101279
-0.000230692
-0.00124917
-0.000237157
-0.00149142
-0.000243024
-0.00173984
-0.000249195
-0.00199502
-0.000255964
-0.00225764
-0.000263419
-0.00252841
-0.000271596
-0.00280806
-0.000280496
-0.00309731
-0.000290128
-0.000300806
-0.00339718
-5.45056e-05
-8.54734e-12
-0.000183165
-1.44718e-11
-0.000360095
-9.6778e-12
-0.000565644
1.42319e-12
-0.000787135
1.49525e-11
-0.00101783
2.85158e-11
-0.00125498
4.10236e-11
-0.00149801
5.23234e-11
-0.0017472
6.21676e-11
-0.00200317
7.08989e-11
-0.00226659
7.89964e-11
-0.00253818
8.6249e-11
-0.00281868
9.28458e-11
-0.00310881
9.9267e-11
1.0579e-10
-0.00340961
-5.45056e-05
5.45056e-05
-0.000183165
0.00012866
-0.000360095
0.00017693
-0.000565644
0.000205549
-0.000787135
0.00022149
-0.00101783
0.000230692
-0.00125498
0.000237157
-0.00149801
0.000243025
-0.0017472
0.000249195
-0.00200317
0.000255964
-0.00226659
0.000263419
-0.00253818
0.000271596
-0.00281868
0.000280497
-0.00310881
0.000290128
0.000300806
-0.00340961
-5.40299e-05
0.000108535
-0.000181788
0.000256418
-0.00035771
0.000352852
-0.000562298
0.000410137
-0.000782912
0.000442104
-0.00101279
0.000460572
-0.00124917
0.000473534
-0.00149142
0.000485279
-0.00173984
0.000497616
-0.00199502
0.000511143
-0.00225764
0.000526037
-0.00252841
0.00054237
-0.00280806
0.000560146
-0.00309731
0.000579377
0.000600673
-0.00339718
-5.30808e-05
0.000161616
-0.000179037
0.000382374
-0.000352942
0.000526756
-0.000555606
0.000612802
-0.000774466
0.000660964
-0.00100272
0.000688829
-0.00123754
0.000708354
-0.00147826
0.000725994
-0.00172513
0.000744491
-0.00197875
0.000764755
-0.00223977
0.000787057
-0.0025089
0.000811503
-0.00278686
0.000838103
-0.00307435
0.000866867
0.000898663
-0.00337234
-5.16628e-05
0.000213279
-0.00017492
0.000505632
-0.000345797
0.000697633
-0.000545572
0.000812577
-0.000761798
0.00087719
-0.00098762
0.000914652
-0.00122011
0.000940842
-0.00145852
0.000964408
-0.00170309
0.000989056
-0.00195436
0.00101603
-0.00221299
0.00104569
-0.00247967
0.00107818
-0.0027551
0.00111353
-0.00303996
0.00115173
0.00119384
-0.00333513
-4.97829e-05
0.000263062
-0.000169447
0.000625296
-0.000336284
0.000864469
-0.000532198
0.00100849
-0.000744907
0.0010899
-0.000967483
0.00113723
-0.00119687
0.00117023
-0.00143223
0.00119977
-0.00167373
0.00123056
-0.0019219
0.0012642
-0.00217736
0.00130116
-0.0024408
0.00134162
-0.00271287
0.0013856
-0.00299423
0.00143309
0.00148526
-0.00328566
-4.74502e-05
0.000310512
-0.000162634
0.00074048
-0.000324414
0.00102625
-0.000515489
0.00119957
-0.00072379
0.0012982
-0.000942308
0.00135575
-0.00116782
0.00139574
-0.00139938
0.00143132
-0.00163707
0.00146825
-0.0018814
0.00150852
-0.00213295
0.00155271
-0.00239236
0.00160103
-0.00266028
0.00165352
-0.00293729
0.0017101
0.00177202
-0.00322405
-4.46764e-05
0.000355189
-0.000154498
0.000850301
-0.000310201
0.00118195
-0.000495448
0.00138481
-0.000698444
0.0015012
-0.00091209
0.00156939
-0.00113298
0.00161663
-0.00136
0.00165834
-0.00159316
0.00170142
-0.00183291
0.00174827
-0.00207982
0.00179961
-0.00233447
0.00185568
-0.00259747
0.00191652
-0.00286933
0.00198197
0.00205323
-0.00315054
-4.1476e-05
0.000396664
-0.000145062
0.000953887
-0.000293664
0.00133055
-0.000472081
0.00156323
-0.000668862
0.00169798
-0.000876817
0.00177735
-0.00109232
0.00183213
-0.00131408
0.0018801
-0.00154201
0.00192935
-0.0017765
0.00198276
-0.00201807
0.00204118
-0.00226727
0.00210488
-0.00252463
0.00217388
-0.0027906
0.00224793
0.00232804
-0.00306541
-3.78661e-05
0.000434531
-0.000134356
0.00105038
-0.000274825
0.00147102
-0.000445392
0.0017338
-0.000635032
0.00188762
-0.000836469
0.00197878
-0.00104583
0.0020415
-0.00126162
0.00209589
-0.00148364
0.00215136
-0.00171219
0.00221132
-0.00194779
0.00227678
-0.00219092
0.00234801
-0.00244204
0.00242501
-0.00270146
0.00250735
0.00259571
-0.00296913
-3.38675e-05
0.000468398
-0.000122414
0.00113892
-0.000253711
0.00160232
-0.00041539
0.00189548
-0.00059694
0.00206917
-0.000791017
0.00217286
-0.000993484
0.00224396
-0.0012026
0.00230501
-0.00141802
0.00236678
-0.00164001
0.00243331
-0.00186901
0.00250578
-0.0021055
0.0025845
-0.00234988
0.00266939
-0.00260226
0.00275973
0.00285566
-0.00286221
-2.95052e-05
0.000497903
-0.00010928
0.0012187
-0.000230361
0.0017234
-0.000382088
0.0020472
-0.000554573
0.00224166
-0.000740432
0.00235872
-0.000935237
0.00243877
-0.00113699
0.00250676
-0.00134517
0.00257496
-0.00155999
0.00264812
-0.00178187
0.00272766
-0.00201131
0.00281394
-0.0022487
0.00290678
-0.00249392
0.00300495
0.00310745
-0.00274571
-2.48091e-05
0.000522712
-9.50096e-05
0.0012889
-0.000204827
0.00183322
-0.000345507
0.00218788
-0.000507911
0.00240406
-0.00068465
0.00253546
-0.00087099
0.00262511
-0.00106462
0.00270039
-0.00126485
0.00277519
-0.00147179
0.00285507
-0.00168586
0.00294172
-0.00190756
0.00303564
-0.00213755
0.00313677
-0.00237573
0.00324313
0.00335149
-0.00261977
-1.98155e-05
0.000542528
-7.96759e-05
0.00134876
-0.000177182
0.00193072
-0.000305694
0.00231639
-0.000456965
0.00255533
-0.000623662
0.00270215
-0.000800741
0.00280219
-0.000985562
0.00288521
-0.00117725
0.00296688
-0.00137591
0.00305373
-0.00158198
0.00314779
-0.00179605
0.00324971
-0.00201918
0.00335989
-0.00225229
0.00347625
0.00358915
-0.00248995
-1.45685e-05
0.000557096
-6.3374e-05
0.00139757
-0.000147529
0.00201488
-0.000262719
0.00243158
-0.000401748
0.00269436
-0.000557407
0.00285781
-0.000724322
0.0029691
-0.00089945
0.00306034
-0.00108162
0.00314905
-0.00127077
0.00324288
-0.00146727
0.0033443
-0.00167141
0.00345385
-0.00188392
0.0035724
-0.00210891
0.00370124
0.00382776
-0.00234753
-9.12791e-06
0.000566224
-4.62299e-05
0.00143467
-0.000116009
0.00208466
-0.0002167
0.00253227
-0.000342334
0.00281999
-0.000485921
0.0030014
-0.000641773
0.00312496
-0.000806424
0.00322499
-0.000978428
0.00332105
-0.00115774
0.00342219
-0.00134525
0.00353181
-0.00154241
0.00365101
-0.00175029
0.00378028
-0.0019701
0.00392105
0.0040974
-0.00223974
-3.67522e-06
0.000569899
-2.83846e-05
0.00145938
-8.28062e-05
0.00213908
-0.000167815
0.00261728
-0.00027886
0.00293104
-0.000409287
0.00313183
-0.000553113
0.00326878
-0.000706378
0.00337825
-0.000867209
0.00348188
-0.00103523
0.00359021
-0.00121093
0.0037075
-0.00139506
0.00383515
-0.00158875
0.00397396
-0.00179476
0.00412707
0.00429181
-0.00198918
1.93356e-06
0.000567966
-9.8392e-06
0.00147115
-4.81392e-05
0.00217738
-0.000116314
0.00268546
-0.000211536
0.00302626
-0.000327658
0.00324795
-0.000458433
0.00339956
-0.000599316
0.00351913
-0.000747836
0.0036304
-0.000903066
0.00374544
-0.00106488
0.00386931
-0.00123336
0.00400363
-0.00140833
0.00414893
-0.00158897
0.00430772
0.00448439
-0.00178155
7.81987e-06
0.000560146
8.92766e-06
0.00147004
-1.19815e-05
0.00219829
-6.25372e-05
0.00273601
-0.000140665
0.00310439
-0.00024135
0.00334863
-0.000358091
0.0035163
-0.000485749
0.00364679
-0.000621222
0.00376588
-0.000763058
0.00388728
-0.000910748
0.004017
-0.00106423
0.00415711
-0.00122366
0.00430836
-0.00138905
0.0044731
0.00465629
-0.00156095
1.31562e-05
0.00054699
2.74589e-05
0.00145574
2.42234e-05
0.00220153
-6.36524e-06
0.0027666
-6.66831e-05
0.00316471
-0.000150808
0.00343276
-0.000252578
0.00361807
-0.000366337
0.00376055
-0.00048834
0.00388788
-0.000616653
0.00401559
-0.000750491
0.00415084
-0.000889704
0.00429632
-0.00103449
0.00445315
-0.00118476
0.00462337
0.00481137
-0.00133983
1.82718e-05
0.000528718
4.57126e-05
0.0014283
6.05398e-05
0.0021867
4.96254e-05
0.00277752
9.74226e-06
0.00320459
-5.65971e-05
0.0034991
-0.000142427
0.0037039
-0.000241602
0.00385973
-0.000349749
0.00399603
-0.000464405
0.00413025
-0.00058448
0.00427092
-0.000709681
0.00442152
-0.000840112
0.00458358
-0.000975689
0.00475895
0.00495155
-0.00111587
2.30994e-05
0.000505618
6.34208e-05
0.00138798
9.67439e-05
0.00215337
0.000106865
0.0027674
8.74881e-05
0.00322397
4.0563e-05
0.00354602
-2.81407e-05
0.0037726
-0.000111962
0.00394355
-0.000205797
0.00408986
-0.000306579
0.00423103
-0.000412848
0.00437718
-0.000524148
0.00453282
-0.000640513
0.00469995
-0.000761874
0.00488031