/*--------------------------------*- C++ -*----------------------------------*\
  =========                 |
  \\      /  F ield         | OpenFOAM: The Open Source CFD Toolbox
   \\    /   O peration     | Website:  https://openfoam.org
    \\  /    A nd           | Version:  7
     \\/     M anipulation  |
\*---------------------------------------------------------------------------*/
FoamFile
{
    version     2.0;
    format      ascii;
    class       volScalarField;
    location    "60";
    object      p;
}
// * * * * * * * * * * * * * * * * * * * * * * * * * * * * * * * * * * * * * //

dimensions      [0 2 -2 0 0 0 0];

internalField   nonuniform List<scalar> 
14800
(
-0.243901
-0.246861
-0.247828
-0.248873
-0.249834
-0.250776
-0.251682
-0.252508
-0.253205
-0.253722
-0.254014
-0.254042
-0.253785
-0.25324
-0.252464
-0.244165
-0.247079
-0.248031
-0.249062
-0.250013
-0.250948
-0.25185
-0.252673
-0.253369
-0.253887
-0.254178
-0.2542
-0.253926
-0.253358
-0.252474
-0.244682
-0.247504
-0.248426
-0.24943
-0.25036
-0.251279
-0.25217
-0.252987
-0.25368
-0.254196
-0.254484
-0.254496
-0.254185
-0.253589
-0.25246
-0.245438
-0.248127
-0.249003
-0.249963
-0.25086
-0.251755
-0.252627
-0.253431
-0.254117
-0.254629
-0.254912
-0.254913
-0.254535
-0.253945
-0.252374
-0.246415
-0.248932
-0.249746
-0.250646
-0.251495
-0.252352
-0.253197
-0.253981
-0.254654
-0.255158
-0.255432
-0.255428
-0.254932
-0.254451
-0.252141
-0.247588
-0.249901
-0.250636
-0.251457
-0.252242
-0.253047
-0.25385
-0.254604
-0.255257
-0.255746
-0.256002
-0.256016
-0.255301
-0.255149
-0.251653
-0.248931
-0.251013
-0.251651
-0.252372
-0.253073
-0.253807
-0.254553
-0.255262
-0.255883
-0.256349
-0.256568
-0.256657
-0.255528
-0.256087
-0.250815
-0.250416
-0.252247
-0.252768
-0.253367
-0.25396
-0.254602
-0.255271
-0.255917
-0.25649
-0.256923
-0.257059
-0.257337
-0.255515
-0.257183
-0.249976
-0.252019
-0.253583
-0.253966
-0.254416
-0.254874
-0.255398
-0.255966
-0.256529
-0.257033
-0.257423
-0.257396
-0.25798
-0.255515
-0.257871
-0.249182
-0.253714
-0.255004
-0.255225
-0.255498
-0.255791
-0.256167
-0.256608
-0.257061
-0.257468
-0.257808
-0.257664
-0.258352
-0.255283
-0.25859
-0.248076
-0.255485
-0.256494
-0.25653
-0.256594
-0.256688
-0.256884
-0.257167
-0.257484
-0.257772
-0.258024
-0.257706
-0.258604
-0.254654
-0.259241
-0.246728
-0.257317
-0.258046
-0.257868
-0.25769
-0.25755
-0.257532
-0.257625
-0.257777
-0.257915
-0.258064
-0.257498
-0.25867
-0.253688
-0.259563
-0.245379
-0.259209
-0.259655
-0.259236
-0.25878
-0.258369
-0.258101
-0.257972
-0.257931
-0.25789
-0.257917
-0.257064
-0.258431
-0.252546
-0.259195
-0.244323
-0.261165
-0.261325
-0.260634
-0.259864
-0.259144
-0.258592
-0.258212
-0.257952
-0.257704
-0.257572
-0.256444
-0.257759
-0.251413
-0.257776
-0.243605
-0.263199
-0.263069
-0.262069
-0.26095
-0.259887
-0.259018
-0.258358
-0.257853
-0.257376
-0.257028
-0.255669
-0.256555
-0.250356
-0.255189
-0.242813
-0.265339
-0.264901
-0.263561
-0.262058
-0.260617
-0.259403
-0.258437
-0.257662
-0.25693
-0.256289
-0.254728
-0.254801
-0.249198
-0.25167
-0.241321
-0.267616
-0.266837
-0.265141
-0.263211
-0.261363
-0.25978
-0.258485
-0.257409
-0.256386
-0.255361
-0.253553
-0.252546
-0.247584
-0.247572
-0.23875
-0.270077
-0.268921
-0.266832
-0.264444
-0.262164
-0.260188
-0.25854
-0.257126
-0.255749
-0.25424
-0.252046
-0.249831
-0.2452
-0.242987
-0.235094
-0.272779
-0.271185
-0.268669
-0.265795
-0.263062
-0.260673
-0.258642
-0.256834
-0.255014
-0.252895
-0.250117
-0.246664
-0.241912
-0.237689
-0.23049
-0.275779
-0.273668
-0.270697
-0.267311
-0.264103
-0.261279
-0.258821
-0.256543
-0.254157
-0.251283
-0.247707
-0.243057
-0.237765
-0.231563
-0.22505
-0.279117
-0.27643
-0.27296
-0.269037
-0.265335
-0.262041
-0.259095
-0.256242
-0.253141
-0.249358
-0.244802
-0.239033
-0.232912
-0.225239
-0.21873
-0.282861
-0.279511
-0.275505
-0.27102
-0.266797
-0.262988
-0.259465
-0.255906
-0.251921
-0.247086
-0.241426
-0.234604
-0.227509
-0.219189
-0.211793
-0.287073
-0.282954
-0.278378
-0.273305
-0.268525
-0.264131
-0.259921
-0.255497
-0.250452
-0.244446
-0.237628
-0.229804
-0.221889
-0.212992
-0.20504
-0.291808
-0.286804
-0.281628
-0.275933
-0.270543
-0.265472
-0.260433
-0.254965
-0.248695
-0.241437
-0.233457
-0.22473
-0.216084
-0.206771
-0.198591
-0.297115
-0.291106
-0.285299
-0.278937
-0.272861
-0.267
-0.26096
-0.254252
-0.246617
-0.238069
-0.228975
-0.219429
-0.210171
-0.20053
-0.192167
-0.303034
-0.295901
-0.289432
-0.282343
-0.275485
-0.268687
-0.261438
-0.253298
-0.244199
-0.234364
-0.224224
-0.21395
-0.20416
-0.194236
-0.185764
-0.309601
-0.301228
-0.294061
-0.286164
-0.278406
-0.270482
-0.261788
-0.252046
-0.241433
-0.230346
-0.219238
-0.208312
-0.198046
-0.187885
-0.179273
-0.316837
-0.307119
-0.299211
-0.290403
-0.2816
-0.272307
-0.261924
-0.250452
-0.238316
-0.226033
-0.214034
-0.202518
-0.191816
-0.181437
-0.172681
-0.324753
-0.313597
-0.304889
-0.295056
-0.28501
-0.274055
-0.261761
-0.248479
-0.234845
-0.221432
-0.208614
-0.196556
-0.185448
-0.174873
-0.165949
-0.333346
-0.320672
-0.311087
-0.300096
-0.288539
-0.275607
-0.261223
-0.246097
-0.231015
-0.216541
-0.202968
-0.190405
-0.178917
-0.168161
-0.159058
-0.342592
-0.32833
-0.317777
-0.305462
-0.292051
-0.276841
-0.260241
-0.24328
-0.226815
-0.211348
-0.197075
-0.184041
-0.172195
-0.161276
-0.151985
-0.35244
-0.336532
-0.324911
-0.311047
-0.295386
-0.277639
-0.258755
-0.239999
-0.222225
-0.20583
-0.190909
-0.177433
-0.165258
-0.154193
-0.144711
-0.362814
-0.345205
-0.332411
-0.316685
-0.298374
-0.27789
-0.256706
-0.236222
-0.217216
-0.199959
-0.184439
-0.170551
-0.158078
-0.146887
-0.137216
-0.373601
-0.354242
-0.34016
-0.322171
-0.30084
-0.277492
-0.254038
-0.231909
-0.211755
-0.193701
-0.17763
-0.163364
-0.150629
-0.139334
-0.129484
-0.384646
-0.363507
-0.347982
-0.327269
-0.302616
-0.276348
-0.250694
-0.22702
-0.205803
-0.187018
-0.170449
-0.155843
-0.142888
-0.131511
-0.121499
-0.395751
-0.372833
-0.355644
-0.331735
-0.303542
-0.274365
-0.246616
-0.221507
-0.199318
-0.179873
-0.162859
-0.147959
-0.134829
-0.123396
-0.113246
-0.406677
-0.382018
-0.362858
-0.335328
-0.303467
-0.271456
-0.241743
-0.215321
-0.192256
-0.172226
-0.15483
-0.139687
-0.126432
-0.114968
-0.104712
-0.417143
-0.390829
-0.369303
-0.337813
-0.302253
-0.267537
-0.236015
-0.208412
-0.184573
-0.164039
-0.14633
-0.131005
-0.117679
-0.106214
-0.0958993
-0.426842
-0.398994
-0.374644
-0.338966
-0.299773
-0.262527
-0.229371
-0.200728
-0.176226
-0.155279
-0.137331
-0.12189
-0.108554
-0.0971313
-0.0868256
-0.435447
-0.406205
-0.378559
-0.338584
-0.295909
-0.25635
-0.221754
-0.192222
-0.167175
-0.145912
-0.127807
-0.112323
-0.0990409
-0.0877211
-0.0775213
-0.442621
-0.412128
-0.380746
-0.336483
-0.290557
-0.248938
-0.213109
-0.182849
-0.157385
-0.135911
-0.117738
-0.102284
-0.0891234
-0.0779798
-0.0679921
-0.448031
-0.416411
-0.380943
-0.332506
-0.283626
-0.240228
-0.203387
-0.17257
-0.146826
-0.125253
-0.107104
-0.0917579
-0.0787851
-0.0678858
-0.0581839
-0.451356
-0.418699
-0.378922
-0.326525
-0.27504
-0.230167
-0.192548
-0.161354
-0.135474
-0.113921
-0.0958928
-0.0807359
-0.0680193
-0.0574074
-0.0479705
-0.452293
-0.418657
-0.374498
-0.31844
-0.264737
-0.21871
-0.180557
-0.149176
-0.123311
-0.101902
-0.0840957
-0.0692156
-0.0568361
-0.0465393
-0.0371904
-0.450568
-0.415988
-0.367512
-0.308177
-0.252672
-0.205829
-0.167393
-0.136016
-0.110324
-0.0891875
-0.0717107
-0.0571992
-0.0452517
-0.0353141
-0.0258717
-0.445939
-0.410447
-0.357834
-0.295686
-0.238819
-0.191503
-0.153037
-0.121862
-0.0965057
-0.0757787
-0.0587511
-0.0447036
-0.0332762
-0.0236892
-0.0145344
-0.438201
-0.401836
-0.345377
-0.280943
-0.223169
-0.175721
-0.137475
-0.106711
-0.0818676
-0.0616939
-0.0452435
-0.0317749
-0.0209104
-0.0116599
-0.00309405
-0.427191
-0.390011
-0.330094
-0.263945
-0.205722
-0.158473
-0.120711
-0.0905964
-0.066445
-0.0469775
-0.0311892
-0.0184037
-0.00815108
0.000677727
0.00853709
-0.412788
-0.374884
-0.311973
-0.244706
-0.186478
-0.139759
-0.1028
-0.0735837
-0.0502649
-0.0316129
-0.0166155
-0.00460536
0.00497263
0.0132816
0.0203806
-0.394918
-0.356421
-0.291043
-0.223259
-0.165443
-0.119651
-0.0838746
-0.0556378
-0.0333318
-0.0156386
-0.00155292
0.00959228
0.0184242
0.0261289
0.0324211
-0.373552
-0.334639
-0.267375
-0.199671
-0.142688
-0.0983722
-0.0637963
-0.03681
-0.0156874
0.000904642
0.0139624
0.0241533
0.0321658
0.0391941
0.0446277
-0.348709
-0.309605
-0.241081
-0.174053
-0.118467
-0.075721
-0.0426868
-0.0171574
0.0026162
0.0179706
0.0298885
0.0390369
0.0461583
0.0524408
0.0569558
-0.320456
-0.281449
-0.212283
-0.146496
-0.0927482
-0.0518595
-0.0206232
0.00325253
0.0215204
0.0355073
0.0461779
0.0541988
0.0603602
0.0658251
0.069354
-0.28892
-0.250407
-0.181008
-0.117108
-0.0656221
-0.0268984
0.00230756
0.0243457
0.0409596
0.0534563
0.0627775
0.0695914
0.0747295
0.0793036
0.0817838
-0.254282
-0.216782
-0.147181
-0.086077
-0.0372292
-0.000954162
0.0260102
0.0460398
0.0608615
0.0717529
0.0796283
0.0851639
0.0892262
0.0928411
0.0942221
-0.216739
-0.180627
-0.111307
-0.0534699
-0.00771207
0.025849
0.0503796
0.0682452
0.0811479
0.0903268
0.0966669
0.100864
0.103809
0.106388
0.106575
-0.176493
-0.141444
-0.0743397
-0.0196026
0.0227761
0.0533799
0.0753023
0.0908651
0.101735
0.109104
0.113832
0.116644
0.118421
0.119802
0.118543
-0.133812
-0.100053
-0.0360703
0.0152817
0.0540621
0.0814997
0.100658
0.113796
0.122533
0.12801
0.131069
0.132468
0.13298
0.132813
0.129711
-0.0889091
-0.0569898
0.00339951
0.0509772
0.085961
0.11006
0.12632
0.136929
0.143449
0.14697
0.148329
0.1483
0.147398
0.14523
0.140069
-0.0422169
-0.0125788
0.0438379
0.0872796
0.118285
0.138904
0.152155
0.16015
0.164386
0.165906
0.165552
0.164065
0.161595
0.157293
0.150668
0.00587144
0.0328637
0.0849647
0.12397
0.15084
0.167868
0.178024
0.18334
0.185243
0.184735
0.182652
0.179636
0.175461
0.169239
0.164172
0.0549613
0.0789963
0.126483
0.160816
0.183431
0.196785
0.203786
0.206378
0.205919
0.20337
0.199534
0.194899
0.18903
0.181581
0.177282
0.104645
0.125463
0.16809
0.197577
0.215853
0.225483
0.229295
0.229141
0.22631
0.22172
0.216113
0.20984
0.202438
0.194084
0.189528
0.154507
0.171898
0.209479
0.234008
0.247904
0.25379
0.254403
0.251503
0.246309
0.239685
0.232303
0.22441
0.215617
0.206437
0.20117
0.204136
0.217926
0.250343
0.269861
0.279376
0.281531
0.278965
0.273342
0.265809
0.257173
0.248032
0.238565
0.22847
0.218422
0.212224
0.253114
0.263176
0.29038
0.304891
0.310066
0.308535
0.302834
0.294531
0.284701
0.27409
0.263225
0.252241
0.240907
0.229961
0.222741
0.301027
0.307287
0.329291
0.338854
0.33977
0.334631
0.325866
0.314948
0.302881
0.290346
0.277807
0.265366
0.252842
0.240982
0.232706
0.347466
0.349905
0.366787
0.371513
0.368291
0.359652
0.34792
0.334475
0.320247
0.305855
0.291704
0.27787
0.264207
0.251439
0.242096
0.392038
0.390691
0.402587
0.402641
0.395438
0.383439
0.368861
0.352994
0.336698
0.320531
0.304843
0.289685
0.274939
0.261284
0.250883
0.434362
0.42932
0.436425
0.432017
0.421028
0.405836
0.388559
0.370395
0.352141
0.334294
0.317154
0.30075
0.284984
0.270474
0.259036
0.474079
0.465487
0.468048
0.459434
0.444887
0.426699
0.406889
0.386575
0.366487
0.347068
0.32857
0.311005
0.29429
0.278968
0.266529
0.510851
0.498903
0.497222
0.484698
0.466853
0.44589
0.423736
0.401433
0.379651
0.35878
0.33903
0.320397
0.302809
0.286728
0.273337
0.544365
0.529304
0.523728
0.50763
0.486777
0.463283
0.438994
0.414881
0.391557
0.369366
0.348478
0.328877
0.310499
0.293717
0.279436
0.574339
0.556451
0.547369
0.528067
0.504521
0.478764
0.452566
0.426835
0.402134
0.378764
0.356861
0.336398
0.317319
0.299905
0.284808
0.600517
0.580129
0.56797
0.545863
0.519963
0.49223
0.464365
0.437222
0.41132
0.386921
0.364133
0.342922
0.323233
0.305262
0.289438
0.622679
0.600151
0.585377
0.560891
0.532998
0.503591
0.474316
0.445978
0.41906
0.393792
0.370256
0.348414
0.328211
0.309764
0.293312
0.640637
0.616362
0.59946
0.573044
0.543536
0.512772
0.482355
0.453049
0.425309
0.399337
0.375195
0.352843
0.332226
0.313391
0.296422
0.654239
0.628632
0.610116
0.582236
0.551504
0.519713
0.48843
0.458391
0.430028
0.403523
0.378924
0.356187
0.335257
0.316126
0.298759
0.663373
0.636867
0.617264
0.588401
0.556846
0.524366
0.492502
0.461971
0.433191
0.406328
0.381421
0.358426
0.337287
0.317957
0.30032
0.667959
0.641001
0.620852
0.591495
0.559527
0.5267
0.494545
0.463767
0.434777
0.407735
0.382674
0.359549
0.338305
0.318874
0.301101
0.66796
0.641002
0.620852
0.591496
0.559528
0.526701
0.494545
0.463768
0.434778
0.407735
0.382674
0.359549
0.338305
0.318875
0.301102
0.663376
0.63687
0.617266
0.588404
0.556849
0.524368
0.492504
0.461974
0.433193
0.40633
0.381423
0.358428
0.337288
0.317958
0.300321
0.654245
0.628637
0.61012
0.582241
0.551508
0.519716
0.488433
0.458395
0.430032
0.403527
0.378927
0.356189
0.33526
0.316129
0.298761
0.640644
0.616369
0.599467
0.57305
0.543542
0.512778
0.48236
0.453054
0.425314
0.399341
0.375199
0.352847
0.33223
0.313395
0.296425
0.622688
0.600161
0.585385
0.560899
0.533005
0.503598
0.474323
0.445984
0.419067
0.393798
0.370261
0.348419
0.328216
0.309769
0.293316
0.600529
0.58014
0.56798
0.545872
0.519972
0.492238
0.464374
0.43723
0.411328
0.386929
0.36414
0.342929
0.323239
0.305268
0.289443
0.574353
0.556464
0.547382
0.528078
0.504531
0.478774
0.452576
0.426844
0.402143
0.378772
0.356868
0.336406
0.317326
0.299911
0.284814
0.544382
0.52932
0.523742
0.507644
0.486789
0.463295
0.439006
0.414891
0.391567
0.369375
0.348487
0.328885
0.310507
0.293725
0.279443
0.51087
0.49892
0.497238
0.484714
0.466868
0.445904
0.423749
0.401445
0.379663
0.358791
0.339041
0.320407
0.302818
0.286736
0.273345
0.4741
0.465507
0.468067
0.459451
0.444903
0.426714
0.406903
0.386588
0.3665
0.34708
0.328582
0.311016
0.2943
0.278978
0.266538
0.434386
0.429343
0.436445
0.432036
0.421046
0.405853
0.388575
0.370411
0.352156
0.334308
0.317167
0.300762
0.284995
0.270485
0.259046
0.392064
0.390716
0.40261
0.402662
0.395458
0.383458
0.368879
0.353011
0.336714
0.320546
0.304857
0.289699
0.274952
0.261296
0.250893
0.347495
0.349932
0.366812
0.371537
0.368313
0.359673
0.34794
0.334493
0.320264
0.305871
0.29172
0.277884
0.26422
0.251452
0.242108
0.301059
0.307317
0.329319
0.338879
0.339794
0.334653
0.325887
0.314968
0.3029
0.290364
0.277824
0.265381
0.252857
0.240996
0.232719
0.253149
0.263209
0.29041
0.304918
0.310092
0.30856
0.302857
0.294552
0.284722
0.274109
0.263243
0.252258
0.240923
0.229976
0.222755
0.204174
0.217962
0.250376
0.269891
0.279404
0.281558
0.27899
0.273365
0.265831
0.257194
0.248051
0.238583
0.228487
0.218438
0.212239
0.154548
0.171937
0.209514
0.23404
0.247934
0.253818
0.25443
0.251528
0.246333
0.239707
0.232324
0.224429
0.215635
0.206453
0.201185
0.104689
0.125505
0.168128
0.197612
0.215886
0.225513
0.229323
0.229167
0.226335
0.221743
0.216135
0.20986
0.202457
0.194102
0.189545
0.0550087
0.079041
0.126524
0.160853
0.183465
0.196817
0.203816
0.206406
0.205946
0.203395
0.199557
0.194921
0.18905
0.1816
0.1773
0.00592222
0.0329116
0.0850083
0.12401
0.150877
0.167902
0.178056
0.18337
0.185271
0.184761
0.182677
0.179659
0.175482
0.169259
0.164191
-0.0421626
-0.0125276
0.0438844
0.0873222
0.118324
0.13894
0.152189
0.160182
0.164415
0.165933
0.165578
0.16409
0.161617
0.157313
0.150688
-0.0888513
-0.0569353
0.00344915
0.0510225
0.0860027
0.110099
0.126356
0.136963
0.143481
0.146999
0.148357
0.148326
0.147422
0.145252
0.14009
-0.133751
-0.0999954
-0.0360175
0.0153298
0.0541063
0.0815406
0.100696
0.113832
0.122566
0.128041
0.131097
0.132495
0.133005
0.132835
0.129732
-0.176428
-0.141382
-0.0742836
-0.0195517
0.0228229
0.0534231
0.0753424
0.0909024
0.101769
0.109136
0.113862
0.116672
0.118447
0.119826
0.118565
-0.21667
-0.180562
-0.111247
-0.0534162
-0.00766278
0.0258946
0.0504218
0.0682844
0.0811843
0.0903606
0.0966983
0.100893
0.103836
0.106412
0.106598
-0.254209
-0.216713
-0.147119
-0.0860204
-0.0371773
-0.000906286
0.0260545
0.0460809
0.0608996
0.0717883
0.079661
0.0851942
0.0892541
0.0928666
0.0942456
-0.288843
-0.250334
-0.180943
-0.117049
-0.0655676
-0.0268481
0.00235397
0.0243887
0.0409994
0.0534932
0.0628116
0.0696229
0.0747585
0.07933
0.081808
-0.320375
-0.281372
-0.212214
-0.146434
-0.0926911
-0.0518067
-0.0205746
0.00329739
0.0215619
0.0355457
0.0462134
0.0542315
0.0603902
0.0658524
0.0693789
-0.348625
-0.309524
-0.241008
-0.173987
-0.118407
-0.0756655
-0.0426362
-0.0171106
0.00265948
0.0180106
0.0299253
0.0390707
0.0461893
0.052469
0.0569814
-0.373465
-0.334555
-0.267298
-0.199602
-0.142626
-0.0983139
-0.0637436
-0.0367612
-0.0156424
0.000946146
0.0140006
0.0241883
0.0321978
0.0392231
0.044654
-0.394827
-0.356333
-0.290964
-0.223187
-0.165378
-0.11959
-0.08382
-0.055587
-0.0332849
-0.0155956
-0.00151338
0.00962848
0.0184572
0.0261588
0.032448
-0.412693
-0.374792
-0.31189
-0.24463
-0.18641
-0.139696
-0.102743
-0.0735307
-0.0502164
-0.0315683
-0.0165746
-0.004568
0.00500657
0.0133122
0.0204081
-0.427092
-0.389916
-0.330007
-0.263866
-0.205651
-0.158408
-0.120651
-0.0905415
-0.0663946
-0.0469313
-0.031147
-0.0183652
-0.00811617
0.000709089
0.00856516
-0.438099
-0.401738
-0.345287
-0.280862
-0.223095
-0.175654
-0.137413
-0.106654
-0.0818155
-0.0616461
-0.0451998
-0.0317353
-0.0208745
-0.0116278
-0.0030654
-0.445834
-0.410345
-0.35774
-0.295601
-0.238742
-0.191433
-0.152973
-0.121803
-0.0964518
-0.0757293
-0.0587061
-0.0446628
-0.0332394
-0.0236565
-0.0145052
-0.450461
-0.415883
-0.367415
-0.308089
-0.252592
-0.205756
-0.167327
-0.135955
-0.110268
-0.0891364
-0.0716643
-0.0571573
-0.0452141
-0.0352807
-0.0258421
-0.452183
-0.418549
-0.374398
-0.318349
-0.264654
-0.218635
-0.180489
-0.149112
-0.123253
-0.101849
-0.0840479
-0.0691725
-0.0567976
-0.0465053
-0.0371608
-0.451243
-0.418589
-0.37882
-0.326432
-0.274955
-0.230089
-0.192476
-0.161289
-0.135414
-0.113866
-0.0958435
-0.0806917
-0.0679799
-0.0573728
-0.0479406
-0.447917
-0.416298
-0.380837
-0.33241
-0.283538
-0.240148
-0.203314
-0.172503
-0.146765
-0.125197
-0.107053
-0.0917124
-0.0787447
-0.0678505
-0.0581535
-0.442504
-0.412014
-0.380638
-0.336384
-0.290466
-0.248855
-0.213033
-0.182779
-0.157322
-0.135853
-0.117685
-0.102237
-0.0890821
-0.0779439
-0.0679614
-0.435329
-0.406089
-0.378448
-0.338482
-0.295815
-0.256265
-0.221676
-0.19215
-0.167109
-0.145852
-0.127754
-0.112274
-0.0989986
-0.0876845
-0.0774903
-0.426723
-0.398877
-0.374532
-0.338862
-0.299677
-0.262439
-0.22929
-0.200653
-0.176158
-0.155217
-0.137275
-0.12184
-0.108511
-0.0970942
-0.0867944
-0.417023
-0.390711
-0.369189
-0.337706
-0.302155
-0.267446
-0.235931
-0.208335
-0.184503
-0.163976
-0.146273
-0.130954
-0.117635
-0.106177
-0.095868
-0.406556
-0.3819
-0.362743
-0.33522
-0.303366
-0.271363
-0.241657
-0.215242
-0.192183
-0.17216
-0.154771
-0.139635
-0.126387
-0.11493
-0.104681
-0.39563
-0.372714
-0.355528
-0.331625
-0.303439
-0.274269
-0.246527
-0.221425
-0.199243
-0.179804
-0.162798
-0.147905
-0.134782
-0.123357
-0.113214
-0.384525
-0.363388
-0.347866
-0.327157
-0.302511
-0.276249
-0.250602
-0.226935
-0.205725
-0.186947
-0.170385
-0.155787
-0.14284
-0.131471
-0.121467
-0.37348
-0.354123
-0.340043
-0.322058
-0.300733
-0.277391
-0.253943
-0.231822
-0.211674
-0.193627
-0.177564
-0.163306
-0.15058
-0.139293
-0.129452
-0.362694
-0.345086
-0.332294
-0.316572
-0.298265
-0.277787
-0.256608
-0.23613
-0.217132
-0.199883
-0.18437
-0.17049
-0.158026
-0.146845
-0.137183
-0.35232
-0.336414
-0.324794
-0.310933
-0.295276
-0.277533
-0.258654
-0.239905
-0.222137
-0.20575
-0.190837
-0.17737
-0.165205
-0.15415
-0.144678
-0.342472
-0.328213
-0.317661
-0.305348
-0.291939
-0.276733
-0.260138
-0.243182
-0.226723
-0.211264
-0.196999
-0.183975
-0.17214
-0.161232
-0.151953
-0.333227
-0.320555
-0.310971
-0.299981
-0.288426
-0.275497
-0.261116
-0.245995
-0.230919
-0.216452
-0.202888
-0.190336
-0.178858
-0.168115
-0.159025
-0.324635
-0.313481
-0.304774
-0.294942
-0.284897
-0.273942
-0.261651
-0.248372
-0.234744
-0.221338
-0.20853
-0.196482
-0.185387
-0.174825
-0.165915
-0.316719
-0.307003
-0.299096
-0.290289
-0.281486
-0.272192
-0.26181
-0.250341
-0.238209
-0.225933
-0.213944
-0.20244
-0.191752
-0.181387
-0.172646
-0.309484
-0.301113
-0.293947
-0.28605
-0.278291
-0.270366
-0.261671
-0.25193
-0.241321
-0.23024
-0.219142
-0.208229
-0.197977
-0.187832
-0.179238
-0.302918
-0.295787
-0.289318
-0.282229
-0.275369
-0.268569
-0.261317
-0.253176
-0.244081
-0.234251
-0.224121
-0.21386
-0.204086
-0.19418
-0.185728
-0.296998
-0.290992
-0.285185
-0.278824
-0.272745
-0.26688
-0.260836
-0.254126
-0.246491
-0.237948
-0.228863
-0.219331
-0.210091
-0.200471
-0.19213
-0.291692
-0.286691
-0.281515
-0.275819
-0.270426
-0.265351
-0.260306
-0.254833
-0.248562
-0.241307
-0.233336
-0.224623
-0.215996
-0.206707
-0.198552
-0.286957
-0.282841
-0.278266
-0.273191
-0.268408
-0.264008
-0.25979
-0.25536
-0.250312
-0.244307
-0.237497
-0.229688
-0.221792
-0.212922
-0.205
-0.282745
-0.279399
-0.275392
-0.270905
-0.266679
-0.262862
-0.259332
-0.255764
-0.251773
-0.246937
-0.241284
-0.234476
-0.227402
-0.219112
-0.21175
-0.279002
-0.276318
-0.272847
-0.268922
-0.265215
-0.261914
-0.258958
-0.256096
-0.252986
-0.2492
-0.244648
-0.238891
-0.232792
-0.225152
-0.218683
-0.275664
-0.273557
-0.270585
-0.267196
-0.263983
-0.26115
-0.258681
-0.256392
-0.253995
-0.251116
-0.247541
-0.242902
-0.237632
-0.231461
-0.224993
-0.272665
-0.271074
-0.268558
-0.265681
-0.262941
-0.260543
-0.2585
-0.256679
-0.254847
-0.252719
-0.249939
-0.246496
-0.241763
-0.23757
-0.230419
-0.269965
-0.268812
-0.266721
-0.264329
-0.262043
-0.260057
-0.258396
-0.256968
-0.255578
-0.254057
-0.251858
-0.24965
-0.245035
-0.242851
-0.235007
-0.267505
-0.26673
-0.265032
-0.263098
-0.261242
-0.259648
-0.25834
-0.257249
-0.25621
-0.255173
-0.253357
-0.252352
-0.247404
-0.247421
-0.238647
-0.265231
-0.264797
-0.263453
-0.261946
-0.260497
-0.259272
-0.258292
-0.257501
-0.256753
-0.256097
-0.254525
-0.254599
-0.249004
-0.251505
-0.2412
-0.263095
-0.262967
-0.261965
-0.260841
-0.259769
-0.258889
-0.258214
-0.257693
-0.257198
-0.256834
-0.255463
-0.256347
-0.250151
-0.255011
-0.242676
-0.261064
-0.261227
-0.260533
-0.259757
-0.259029
-0.258465
-0.25807
-0.257794
-0.257528
-0.25738
-0.256237
-0.257547
-0.251202
-0.257589
-0.243456
-0.259114
-0.259561
-0.259139
-0.258678
-0.258258
-0.257978
-0.257835
-0.257778
-0.257719
-0.257728
-0.25686
-0.258219
-0.252334
-0.259001
-0.244169
-0.257227
-0.257957
-0.257777
-0.257593
-0.257444
-0.257414
-0.257493
-0.257629
-0.25775
-0.257881
-0.2573
-0.258462
-0.25348
-0.259367
-0.245225
-0.255401
-0.256411
-0.256444
-0.256502
-0.256589
-0.256774
-0.257042
-0.257344
-0.257615
-0.257849
-0.257516
-0.258404
-0.254453
-0.259049
-0.246577
-0.253637
-0.254927
-0.255145
-0.255413
-0.255698
-0.256064
-0.256491
-0.25693
-0.257321
-0.257645
-0.257486
-0.258163
-0.255094
-0.258408
-0.247933
-0.251948
-0.253513
-0.253893
-0.254338
-0.254789
-0.255303
-0.25586
-0.256408
-0.256897
-0.257273
-0.257231
-0.257806
-0.255341
-0.257702
-0.24905
-0.250354
-0.252184
-0.252702
-0.253297
-0.253883
-0.254516
-0.255174
-0.255808
-0.256368
-0.256788
-0.25691
-0.257181
-0.255355
-0.257033
-0.249857
-0.248876
-0.250957
-0.251593
-0.25231
-0.253005
-0.253732
-0.254468
-0.255166
-0.255775
-0.256229
-0.256438
-0.256519
-0.255389
-0.255957
-0.250706
-0.247541
-0.249853
-0.250586
-0.251404
-0.252184
-0.252982
-0.253777
-0.254521
-0.255164
-0.255643
-0.25589
-0.255898
-0.255183
-0.255039
-0.251562
-0.246376
-0.248893
-0.249706
-0.250602
-0.251447
-0.252299
-0.253136
-0.253913
-0.254578
-0.255073
-0.25534
-0.255331
-0.254834
-0.254361
-0.252068
-0.245408
-0.248096
-0.248971
-0.249929
-0.250823
-0.251713
-0.25258
-0.253378
-0.254057
-0.254563
-0.25484
-0.254837
-0.25446
-0.253876
-0.252319
-0.24466
-0.247482
-0.248403
-0.249405
-0.250333
-0.251249
-0.252136
-0.252949
-0.253637
-0.254148
-0.254432
-0.254442
-0.254131
-0.25354
-0.252422
-0.244152
-0.247065
-0.248017
-0.249047
-0.249997
-0.25093
-0.25183
-0.25265
-0.253343
-0.253858
-0.254147
-0.254168
-0.253894
-0.253329
-0.252451
-0.243896
-0.246856
-0.247823
-0.248868
-0.249828
-0.25077
-0.251675
-0.2525
-0.253196
-0.253713
-0.254004
-0.254032
-0.253775
-0.253231
-0.252457
-0.251983
-0.250732
-0.249506
-0.24797
-0.246272
-0.244373
-0.242297
-0.240044
-0.237619
-0.235026
-0.232267
-0.229351
-0.226286
-0.22307
-0.219708
-0.216203
-0.212556
-0.208772
-0.204854
-0.200806
-0.196631
-0.192335
-0.187921
-0.183376
-0.178771
-0.17406
-0.169257
-0.164374
-0.159419
-0.154403
-0.149338
-0.144233
-0.139101
-0.133954
-0.128803
-0.123661
-0.118542
-0.113457
-0.108418
-0.103438
-0.0985269
-0.0936972
-0.0889587
-0.0843211
-0.0797926
-0.0753811
-0.0710925
-0.0669322
-0.0629047
-0.0590135
-0.0552613
-0.0516496
-0.0481792
-0.0448483
-0.0416628
-0.038615
-0.035705
-0.0329305
-0.0302888
-0.027777
-0.0253911
-0.0231236
-0.0209873
-0.0189623
-0.0170484
-0.0152425
-0.013541
-0.0119402
-0.0104369
-0.0090271
-0.00770905
-0.00647624
-0.00533433
-0.00426554
-0.00329952
-0.00236613
-0.00161728
-0.000714951
-0.000413953
0.000951228
-0.252155
-0.250835
-0.249607
-0.248055
-0.246344
-0.244432
-0.242344
-0.240079
-0.237643
-0.235041
-0.232276
-0.22935
-0.226281
-0.223065
-0.219708
-0.216212
-0.212578
-0.208812
-0.204915
-0.200893
-0.196749
-0.192487
-0.188115
-0.183656
-0.179045
-0.174348
-0.169564
-0.164699
-0.159758
-0.154753
-0.149693
-0.144589
-0.139451
-0.134291
-0.129123
-0.123956
-0.118807
-0.113688
-0.108611
-0.10359
-0.0986371
-0.093764
-0.088982
-0.0843019
-0.0797328
-0.0752835
-0.0709609
-0.0667713
-0.0627195
-0.0588094
-0.055044
-0.0514248
-0.0479526
-0.0446267
-0.0414488
-0.0384147
-0.0355226
-0.0327697
-0.030153
-0.0276687
-0.0253135
-0.0230873
-0.0209689
-0.0189707
-0.0170846
-0.0153054
-0.0136289
-0.0120506
-0.010567
-0.00917366
-0.00786852
-0.00664583
-0.0055081
-0.00443933
-0.00346926
-0.00252574
-0.00176191
-0.000835821
-0.000500166
0.000893865
-0.252489
-0.251031
-0.249807
-0.248235
-0.246508
-0.244582
-0.24248
-0.240202
-0.237756
-0.235142
-0.232368
-0.229448
-0.226379
-0.223171
-0.219822
-0.216337
-0.212719
-0.20897
-0.205095
-0.201096
-0.196977
-0.19274
-0.188392
-0.18394
-0.179374
-0.174711
-0.169955
-0.165112
-0.160189
-0.155196
-0.150142
-0.145037
-0.139891
-0.134718
-0.129529
-0.124336
-0.119157
-0.114001
-0.108885
-0.103822
-0.098824
-0.093906
-0.0890793
-0.0843555
-0.079745
-0.0752571
-0.0708997
-0.0666797
-0.0626024
-0.0586721
-0.0548919
-0.0512636
-0.0477878
-0.044464
-0.0412923
-0.0382694
-0.0353926
-0.0326587
-0.0300637
-0.0276035
-0.0252737
-0.0230706
-0.0209835
-0.019013
-0.0171531
-0.0153985
-0.0137445
-0.0121863
-0.01072
-0.00934059
-0.00804614
-0.00683029
-0.00569632
-0.004626
-0.00365076
-0.00269521
-0.00191545
-0.000965224
-0.000589905
0.000816778
-0.252966
-0.251292
-0.250086
-0.248493
-0.24675
-0.244811
-0.242696
-0.240409
-0.237954
-0.235335
-0.232557
-0.229632
-0.226559
-0.223351
-0.22001
-0.216537
-0.212935
-0.209205
-0.205353
-0.20138
-0.197289
-0.193083
-0.188766
-0.184341
-0.179805
-0.175168
-0.170434
-0.165612
-0.160702
-0.15572
-0.150669
-0.145562
-0.140408
-0.135219
-0.130011
-0.124789
-0.119579
-0.114387
-0.109231
-0.104126
-0.0990818
-0.0941196
-0.0892484
-0.0844812
-0.0798292
-0.0753027
-0.0709104
-0.0666597
-0.0625564
-0.0586053
-0.0548095
-0.0511708
-0.04769
-0.0443666
-0.0411994
-0.0381856
-0.0353218
-0.0326043
-0.0300285
-0.0275896
-0.0252824
-0.0231019
-0.02104
-0.0190933
-0.0172562
-0.015523
-0.0138885
-0.0123475
-0.0108956
-0.00952754
-0.00824136
-0.0070297
-0.00589687
-0.00482258
-0.00384048
-0.00287085
-0.00207399
-0.00109944
-0.000680457
0.000723928
-0.253574
-0.251584
-0.250415
-0.248803
-0.247046
-0.245096
-0.242972
-0.240677
-0.238213
-0.235581
-0.2328
-0.229878
-0.226816
-0.223618
-0.220286
-0.216825
-0.213238
-0.209527
-0.205696
-0.201747
-0.197683
-0.193504
-0.189214
-0.184816
-0.180307
-0.175695
-0.170983
-0.166178
-0.161282
-0.156308
-0.15126
-0.146149
-0.140985
-0.135782
-0.130558
-0.125294
-0.120058
-0.114832
-0.109637
-0.10449
-0.0994046
-0.094398
-0.0894833
-0.0846738
-0.0799818
-0.0754181
-0.070992
-0.0667115
-0.0625829
-0.0586112
-0.0547997
-0.0511504
-0.0476637
-0.0443391
-0.041175
-0.0381683
-0.0353152
-0.0326115
-0.0300519
-0.0276311
-0.0253432
-0.0231823
-0.0211411
-0.0192144
-0.0173962
-0.0156806
-0.0140618
-0.0125342
-0.0110933
-0.00973335
-0.00845231
-0.00724178
-0.00610732
-0.00502641
-0.00403542
-0.00304971
-0.00223423
-0.00123562
-0.000769733
0.000619688
-0.254344
-0.251858
-0.250759
-0.249135
-0.247367
-0.245412
-0.243284
-0.240986
-0.238524
-0.235904
-0.233131
-0.230197
-0.227132
-0.223938
-0.220617
-0.217169
-0.213599
-0.209909
-0.206101
-0.202176
-0.198137
-0.193985
-0.189721
-0.185348
-0.180865
-0.176277
-0.171585
-0.166804
-0.1619
-0.156939
-0.151893
-0.146778
-0.141605
-0.136385
-0.131134
-0.125859
-0.120587
-0.115326
-0.110094
-0.104907
-0.099781
-0.0947333
-0.0897779
-0.084929
-0.0801995
-0.0756009
-0.0711433
-0.0668349
-0.0626825
-0.0586913
-0.0548648
-0.0512048
-0.0477119
-0.0443852
-0.0412227
-0.0382212
-0.0353764
-0.0326836
-0.030137
-0.0277308
-0.0254585
-0.0233135
-0.0212886
-0.0193777
-0.0175743
-0.0158719
-0.0142647
-0.0127465
-0.0113127
-0.00995697
-0.0086775
-0.00746489
-0.00632585
-0.00523556
-0.00423337
-0.00322965
-0.00239373
-0.0013719
-0.00085633
0.000508431
-0.255255
-0.252011
-0.251088
-0.249453
-0.247682
-0.245729
-0.243602
-0.241306
-0.238837
-0.236179
-0.233436
-0.230527
-0.227479
-0.224298
-0.22099
-0.217558
-0.21401
-0.210328
-0.206544
-0.202643
-0.19863
-0.194503
-0.190265
-0.185916
-0.181456
-0.176888
-0.172213
-0.167439
-0.162564
-0.157603
-0.152556
-0.147436
-0.142253
-0.137018
-0.131747
-0.126449
-0.121148
-0.115856
-0.110589
-0.105367
-0.100204
-0.0951189
-0.0901267
-0.0852422
-0.0804789
-0.075849
-0.0713628
-0.0670292
-0.0628552
-0.0588462
-0.0550057
-0.0513356
-0.0478363
-0.0445068
-0.0413447
-0.0383466
-0.0355077
-0.0328229
-0.0302861
-0.0278908
-0.0256301
-0.023497
-0.021484
-0.0195843
-0.017791
-0.0160974
-0.0144973
-0.0129842
-0.0115532
-0.0101978
-0.00891618
-0.00769806
-0.0065513
-0.0054488
-0.00443288
-0.00340947
-0.00255094
-0.00150727
-0.000939513
0.000394176
-0.255742
-0.2524
-0.251284
-0.249724
-0.247958
-0.246013
-0.243897
-0.241613
-0.239164
-0.236587
-0.233791
-0.230877
-0.227837
-0.224668