/*--------------------------------*- C++ -*----------------------------------*\
  =========                 |
  \\      /  F ield         | OpenFOAM: The Open Source CFD Toolbox
   \\    /   O peration     | Website:  https://openfoam.org
    \\  /    A nd           | Version:  7
     \\/     M anipulation  |
\*---------------------------------------------------------------------------*/
FoamFile
{
    version     2.0;
    format      ascii;
    class       volVectorField;
    location    "60";
    object      U;
}
// * * * * * * * * * * * * * * * * * * * * * * * * * * * * * * * * * * * * * //

dimensions      [0 1 -1 0 0 0 0];

internalField   nonuniform List<vector> 
14800
(
(-0.00271336 0.0017456 -1.54258e-20)
(-0.0137856 0.00356534 2.02805e-21)
(-0.0318996 0.00441337 8.76474e-21)
(-0.0508587 0.0047069 -4.64463e-21)
(-0.0697358 0.00467825 -1.51489e-20)
(-0.087598 0.00448027 1.42945e-20)
(-0.104101 0.00419744 5.92625e-22)
(-0.119143 0.00387031 1.67866e-21)
(-0.132703 0.0035133 -7.92292e-21)
(-0.144779 0.00312845 -1.03091e-21)
(-0.155362 0.00271797 5.92977e-21)
(-0.164453 0.00229364 5.05809e-21)
(-0.172111 0.00188951 1.89277e-20)
(-0.178513 0.00158253 -2.10345e-20)
(-0.183971 0.00139084 8.58045e-21)
(-0.00293206 0.0051467 3.23872e-20)
(-0.0141122 0.0105515 -2.00585e-20)
(-0.0320901 0.0131015 -7.13454e-21)
(-0.0508023 0.0140128 1.53214e-21)
(-0.069353 0.0139671 1.41577e-20)
(-0.0868304 0.0134179 2.80835e-20)
(-0.102898 0.0126195 -2.40978e-20)
(-0.117454 0.0116966 4.30356e-21)
(-0.130477 0.0106948 2.09374e-20)
(-0.141961 0.00962134 2.23301e-20)
(-0.151891 0.00848175 -2.79075e-20)
(-0.160249 0.00730737 3.02775e-20)
(-0.167056 0.00619059 -4.39007e-20)
(-0.172493 0.00538493 4.18026e-20)
(-0.176565 0.00486761 8.4603e-21)
(-0.0033608 0.00843605 5.18944e-20)
(-0.0147548 0.0173396 9.28685e-20)
(-0.032465 0.0215678 5.03886e-21)
(-0.0506882 0.0230962 -2.55177e-20)
(-0.0685891 0.0230416 -1.2561e-20)
(-0.0852977 0.0221519 -4.46082e-20)
(-0.100492 0.0208493 3.14443e-20)
(-0.114073 0.0193429 3.9219e-20)
(-0.126015 0.0177105 -4.44159e-20)
(-0.136307 0.0159626 -1.7606e-20)
(-0.144916 0.0141033 5.84963e-20)
(-0.151803 0.0121733 -2.03171e-20)
(-0.156889 0.0102922 1.90054e-20)
(-0.160449 0.008978 2.19145e-20)
(-0.16169 0.00791491 3.44659e-20)
(-0.00398489 0.0115448 -4.40571e-20)
(-0.0156966 0.023805 -1.53634e-19)
(-0.0330173 0.0296694 7.49765e-20)
(-0.0505183 0.031811 -7.20161e-21)
(-0.0674529 0.0317593 2.81358e-20)
(-0.0830123 0.0305449 -8.31942e-20)
(-0.096896 0.0287553 2.86787e-21)
(-0.109006 0.0266846 1.10404e-21)
(-0.119314 0.0244441 3.0841e-20)
(-0.127793 0.0220464 -3.58684e-20)
(-0.134395 0.0194868 -9.83633e-20)
(-0.139063 0.0168048 -3.49687e-20)
(-0.141513 0.0140731 -4.74992e-21)
(-0.142402 0.0122633 9.55305e-21)
(-0.139246 0.0102552 -3.89344e-20)
(-0.00478371 0.0144121 -9.77277e-20)
(-0.016913 0.0298332 7.24223e-20)
(-0.0337362 0.0372712 4.39614e-21)
(-0.0502947 0.0400157 7.85078e-21)
(-0.0659558 0.0399785 -6.12183e-20)
(-0.0799899 0.0384582 4.59764e-20)
(-0.0921236 0.0362026 -1.67646e-20)
(-0.10226 0.0335914 2.63828e-20)
(-0.110362 0.0307723 -1.51231e-20)
(-0.116382 0.0277599 9.16386e-20)
(-0.120246 0.0245345 7.09059e-20)
(-0.121929 0.0211322 4.70516e-20)
(-0.120712 0.01743 -7.33585e-20)
(-0.118302 0.0152022 1.981e-20)
(-0.109 0.0116661 -2.00822e-20)
(-0.00573218 0.0169882 1.67408e-22)
(-0.0183739 0.0353241 1.25891e-19)
(-0.0346071 0.0442489 -9.39652e-20)
(-0.0500181 0.0475749 7.81481e-20)
(-0.0641095 0.0475604 6.8096e-20)
(-0.0762464 0.0457523 -3.86233e-20)
(-0.0861875 0.0430523 2.67349e-20)
(-0.0938341 0.0399265 -1.07488e-19)
(-0.0991312 0.0365622 3.1192e-20)
(-0.102006 0.0329795 -6.99698e-20)
(-0.102325 0.0291378 3.62954e-20)
(-0.100234 0.0251006 -8.43278e-20)
(-0.0940798 0.0202944 -1.99445e-20)
(-0.0879079 0.0178033 -4.06367e-20)
(-0.0705057 0.0121593 4.82888e-20)
(-0.00680261 0.0192357 -1.10877e-20)
(-0.0200444 0.0401948 -1.29287e-19)
(-0.0356114 0.0504915 1.18914e-20)
(-0.0496855 0.0543617 1.64261e-21)
(-0.0619213 0.0543696 1.93278e-20)
(-0.071792 0.0522877 1.70722e-19)
(-0.0790905 0.049163 -1.34909e-20)
(-0.0837104 0.0455469 8.79262e-20)
(-0.085569 0.041671 1.09195e-20)
(-0.0845556 0.0375674 6.12553e-21)
(-0.0804009 0.0331689 -2.70065e-20)
(-0.0737155 0.0286469 6.40455e-20)
(-0.0610263 0.0227225 1.56322e-19)
(-0.050558 0.0199827 -1.74411e-19)
(-0.0230851 0.01233 -6.15551e-20)
(-0.00796676 0.0211314 7.32875e-20)
(-0.0218865 0.0443814 1.2766e-19)
(-0.0367256 0.0559041 -3.44215e-20)
(-0.0492865 0.0602604 -5.95263e-20)
(-0.0593885 0.0602773 -5.91465e-20)
(-0.0666215 0.057928 7.83194e-21)
(-0.0708129 0.054393 5.44071e-20)
(-0.0718384 0.050307 -1.70896e-19)
(-0.0695706 0.0459498 -2.78023e-21)
(-0.0638579 0.0413772 -5.09419e-20)
(-0.0541316 0.0365032 -1.2351e-19)
(-0.0419041 0.031616 1.25394e-19)
(-0.0208979 0.0250088 -1.70651e-19)
(-0.00495613 0.0214299 8.97752e-20)
(0.0347137 0.01263 6.36453e-20)
(-0.00919782 0.0226663 -4.00187e-20)
(-0.0238607 0.047841 4.75169e-20)
(-0.0379196 0.0604101 -8.54188e-20)
(-0.048799 0.0651688 7.26649e-20)
(-0.0564896 0.0651645 9.85292e-20)
(-0.0607019 0.0625434 1.17085e-19)
(-0.0612934 0.0586058 -4.72267e-20)
(-0.0581078 0.054066 -3.66443e-20)
(-0.0509442 0.0492547 1.68474e-19)
(-0.0396204 0.0442678 1.20937e-19)
(-0.0230868 0.0390939 1.1282e-19)
(-0.00396801 0.0337187 -1.65787e-19)
(0.0272394 0.027014 4.75533e-20)
(0.0496916 0.0226695 4.65997e-20)
(0.106082 0.0131472 -1.27126e-21)
(-0.0104721 0.0238455 -1.75645e-19)
(-0.0259263 0.0505512 -2.29022e-19)
(-0.0391541 0.0639524 8.57481e-20)
(-0.048182 0.0690015 1.16029e-19)
(-0.0531725 0.0689259 -2.39396e-19)
(-0.0539541 0.0660164 -1.0595e-20)
(-0.0504028 0.0616782 -9.40423e-20)
(-0.0423102 0.0566993 2.23575e-19)
(-0.0293605 0.0514673 -9.90018e-20)
(-0.011312 0.0461068 -1.19793e-20)
(0.0133802 0.0407645 7.61617e-20)
(0.0408075 0.0349104 1.8949e-19)
(0.0853611 0.0285162 8.29577e-20)
(0.114084 0.0240878 -6.66646e-20)
(0.193703 0.0145661 -1.29447e-20)
(-0.0117706 0.0246861 1.21976e-19)
(-0.0280418 0.0525096 1.64064e-19)
(-0.0403769 0.066495 -1.12686e-19)
(-0.0473672 0.0716931 -3.84114e-19)
(-0.04934 0.0714753 -4.22514e-20)
(-0.046229 0.06825 1.7261e-21)
(-0.0379085 0.063511 1.26764e-19)
(-0.0240874 0.0581139 -2.81545e-19)
(-0.00429654 0.0525031 -1.26859e-20)
(0.0217858 0.0468212 -1.4754e-19)
(0.0564407 0.0414517 -1.94167e-19)
(0.0935376 0.0352478 -1.25007e-19)
(0.155226 0.0299135 1.17226e-20)
(0.189687 0.0249887 -4.13542e-20)
(0.299485 0.0179095 -1.26218e-19)
(-0.0130793 0.0252156 6.74499e-20)
(-0.0301634 0.0537316 1.18625e-19)
(-0.041518 0.0680233 -5.46256e-20)
(-0.0462483 0.0732014 -4.95716e-20)
(-0.0448305 0.0727522 3.13155e-19)
(-0.0372793 0.0691771 -3.23025e-19)
(-0.0234336 0.0640435 1.67526e-20)
(-0.00287886 0.0582699 7.40036e-20)
(0.0250637 0.0523624 5.46524e-20)
(0.0607651 0.0464767 3.77454e-20)
(0.107508 0.0414318 6.57236e-20)
(0.156037 0.034679 -4.92877e-20)
(0.238367 0.0319632 1.49734e-19)
(0.278438 0.0252576 1.2063e-19)
(0.423617 0.0235393 7.90836e-20)
(-0.0143893 0.0254684 2.90827e-20)
(-0.0322435 0.0542477 -2.40444e-19)
(-0.0424832 0.0685438 3.50453e-19)
(-0.0446685 0.0735109 4.34203e-19)
(-0.0393977 0.072729 -1.45942e-19)
(-0.0267267 0.0687724 5.17998e-20)
(-0.00640965 0.0632722 -1.35164e-19)
(0.0221416 0.05721 -2.30376e-20)
(0.0598691 0.0511708 -2.54692e-19)
(0.107158 0.0452753 5.45346e-20)
(0.168281 0.0411414 2.12214e-19)
(0.230656 0.0336771 -2.81113e-20)
(0.335481 0.0352796 6.97872e-20)
(0.382619 0.0259707 -2.88769e-20)
(0.563089 0.0314522 7.89605e-21)
(-0.0156958 0.0254828 -1.42937e-19)
(-0.0342262 0.0540992 -1.61398e-19)
(-0.0431461 0.0680835 -3.84504e-19)
(-0.0424063 0.0726361 -2.751e-19)
(-0.0326872 0.0714187 -2.1698e-19)
(-0.0140284 0.0670663 2.45758e-19)
(0.0139652 0.0612714 4.85931e-20)
(0.0521084 0.0550864 1.06158e-19)
(0.101621 0.0492044 5.64398e-20)
(0.162863 0.0436489 -1.58876e-19)
(0.24053 0.041115 -8.25877e-20)
(0.319807 0.0334706 2.3093e-20)
(0.445691 0.0400658 -2.95764e-19)
(0.503568 0.0291341 6.70328e-20)
(0.710718 0.0417747 -1.70722e-19)
(-0.0169957 0.0252962 7.33421e-20)
(-0.0360417 0.0533324 5.62814e-19)
(-0.0433406 0.0666903 2.84998e-19)
(-0.0391619 0.0706241 1.32965e-19)
(-0.0242158 0.068883 3.38061e-19)
(0.00154983 0.0641599 -2.9513e-19)
(0.038752 0.0582156 -1.22443e-19)
(0.0884651 0.0521908 -1.1801e-19)
(0.152103 0.0469199 5.64894e-19)
(0.229898 0.0423188 1.82597e-19)
(0.3257 0.0419359 -1.41192e-19)
(0.424724 0.0357959 7.61797e-20)
(0.566318 0.0463554 -1.00935e-19)
(0.639253 0.0365073 1.06172e-19)
(0.85584 0.0545717 4.93336e-20)
(-0.0182856 0.0249421 -6.97621e-21)
(-0.0375998 0.0519955 -3.00665e-19)
(-0.0428516 0.0644318 -2.73639e-19)
(-0.0345445 0.0675564 -9.49809e-20)
(-0.0133546 0.0652405 -1.66676e-19)
(0.0209491 0.0602399 1.71684e-19)
(0.0692649 0.0544024 8.33303e-20)
(0.132893 0.0489825 -1.25776e-19)
(0.213177 0.0449649 2.1594e-21)
(0.309895 0.0422642 -9.61673e-20)
(0.42437 0.044329 2.17865e-20)
(0.543815 0.0420502 2.97322e-20)
(0.693034 0.0544791 2.56532e-20)
(0.782291 0.0485287 6.57704e-20)
(0.986919 0.0691 -1.78117e-19)
(-0.0195595 0.0244481 -1.47508e-19)
(-0.0387909 0.0501438 1.21252e-19)
(-0.0414003 0.0613822 1.14281e-19)
(-0.0280637 0.0635487 1.42928e-20)
(0.000677004 0.0606735 1.15638e-19)
(0.0453069 0.0555912 -1.55387e-19)
(0.107011 0.0502688 1.6116e-19)
(0.187136 0.0460999 2.55858e-20)
(0.286409 0.0441635 -1.81997e-19)
(0.403382 0.0445281 5.2032e-21)
(0.535459 0.0492713 -1.81487e-19)
(0.671811 0.0525334 1.6469e-19)
(0.819888 0.0648805 2.22481e-20)
(0.9207 0.0641608 3.77181e-20)
(1.09479 0.0836422 1.79222e-19)
(-0.0208009 0.0238332 4.14174e-19)
(-0.0394781 0.0478229 -1.63559e-19)
(-0.0386494 0.0576264 -8.67117e-20)
(-0.0191229 0.0587568 -1.0691e-19)
(0.0188025 0.0554327 -2.89199e-19)
(0.0759124 0.0506059 -9.53987e-20)
(0.153562 0.0463973 1.88184e-19)
(0.252693 0.0443423 -1.25782e-19)
(0.372522 0.0454593 -4.85025e-19)
(0.509095 0.049938 1.77517e-19)
(0.655346 0.0576919 4.02525e-20)
(0.800585 0.0664704 -1.09144e-19)
(0.939522 0.0774243 6.3094e-20)
(1.0419 0.0814839 -6.0351e-20)
(1.17495 0.0962978 7.4018e-20)
(-0.0219776 0.0230992 -6.64392e-20)
(-0.0394839 0.0450658 2.14435e-19)
(-0.0342018 0.0532705 2.40446e-19)
(-0.00703179 0.0533744 1.85065e-19)
(0.0420573 0.0498398 2.85213e-19)
(0.114116 0.0457841 2.52469e-19)
(0.21033 0.0435017 -2.85269e-19)
(0.3304 0.0446001 3.95562e-19)
(0.470759 0.0497629 3.10432e-19)
(0.623563 0.0589041 -2.8803e-19)
(0.77767 0.0698283 2.19471e-19)
(0.921236 0.082462 -5.77642e-20)
(1.0445 0.091211 -1.05765e-19)
(1.13737 0.098555 -1.4594e-19)
(1.22788 0.105655 -7.51182e-20)
(-0.023033 0.0222328 -1.85575e-19)
(-0.0385953 0.0419075 3.69836e-19)
(-0.0275985 0.0484294 -1.99018e-20)
(0.00897797 0.0476312 3.84462e-20)
(0.0715339 0.0442871 -5.18797e-20)
(0.161189 0.0417262 -3.89347e-21)
(0.278269 0.042385 2.43173e-19)
(0.419937 0.0477257 -1.84897e-19)
(0.5784 0.0576891 1.86923e-19)
(0.741215 0.071306 2.32432e-19)
(0.894527 0.0848966 -1.49656e-19)
(1.02639 0.0988941 1.18581e-19)
(1.12961 0.10514 -4.53852e-20)
(1.20473 0.113781 1.10362e-19)
(1.25783 0.110852 5.20011e-20)
(-0.023897 0.0212262 -2.61737e-19)
(-0.03655 0.0383739 2.90237e-20)
(-0.0183257 0.0432258 9.89515e-20)
(0.0297246 0.0417945 -1.59258e-19)
(0.108301 0.0392346 -1.82135e-19)
(0.218126 0.0391119 1.11742e-19)
(0.357509 0.043856 -2.07644e-19)
(0.519418 0.0543496 1.63625e-19)
(0.690767 0.0692959 -6.70651e-20)
(0.855245 0.0864319 -2.54808e-19)
(0.998668 0.101388 -1.46178e-19)
(1.11178 0.114403 2.14196e-19)
(1.19321 0.118386 -9.05048e-20)
(1.24695 0.12553 -5.63068e-20)
(1.27149 0.111854 -9.66502e-20)
(-0.0244911 0.0200644 5.15406e-19)
(-0.0330459 0.0344807 -6.3363e-19)
(-0.00582428 0.0377994 -1.44778e-19)
(0.0560367 0.036172 -8.52165e-20)
(0.153297 0.0352061 5.2963e-20)
(0.28541 0.0386584 -2.1056e-19)
(0.447005 0.0485961 1.22253e-19)
(0.625261 0.0646809 6.06187e-20)
(0.801918 0.0839947 -4.02873e-19)
(0.959151 0.103091 3.28999e-19)
(1.08542 0.117712 8.59263e-20)
(1.17661 0.12826 -2.30908e-19)
(1.23674 0.130106 1.34719e-19)
(1.2699 0.132631 8.67753e-20)
(1.28771 0.121212 1.88412e-20)
(-0.0247102 0.0187206 -3.47553e-19)
(-0.0277539 0.0302551 5.77219e-19)
(0.0104894 0.0323139 5.61474e-20)
(0.0887014 0.0311171 -2.06819e-19)
(0.207192 0.0327787 2.55044e-19)
(0.362745 0.0410462 -1.54221e-19)
(0.544331 0.0569905 1.6475e-20)
(0.732574 0.0783825 -1.97196e-19)
(0.905897 0.100704 3.54128e-19)
(1.04828 0.119955 -1.57776e-19)
(1.15332 0.132754 4.30208e-20)
(1.22269 0.140251 -6.70833e-20)
(1.26362 0.139348 -6.53502e-21)
(1.28366 0.139519 9.76206e-21)
(1.29244 0.127193 2.11746e-20)
(-0.0244278 0.0171694 7.47877e-20)
(-0.0203177 0.0257405 -3.422e-19)
(0.0312015 0.0269643 -2.99362e-19)
(0.128401 0.0270346 7.9338e-20)
(0.270228 0.0325589 -2.06988e-19)
(0.448837 0.0468044 -1.90791e-19)
(0.645802 0.0689854 6.03211e-20)
(0.836055 0.0946247 2.8179e-19)
(0.998029 0.118177 9.3236e-20)
(1.1206 0.135961 -1.82059e-19)
(1.20352 0.146026 -4.96964e-20)
(1.25318 0.150225 2.60692e-20)
(1.27924 0.147119 1.44158e-19)
(1.2892 0.144962 -3.19089e-20)
(1.29197 0.132405 -3.85681e-20)
(-0.0235007 0.0153949 -4.10461e-20)
(-0.01036 0.0210045 4.49987e-19)
(0.0568759 0.0219873 2.10881e-19)
(0.175631 0.0243852 7.45686e-20)
(0.342041 0.0351296 1.46753e-19)
(0.541316 0.0561759 2.83482e-19)
(0.746995 0.084061 1.32398e-19)
(0.931068 0.112321 -2.92179e-19)
(1.07568 0.135337 -1.83767e-19)
(1.17637 0.150503 3.14485e-19)
(1.23858 0.157424 -3.09847e-20)
(1.27197 0.158582 -2.08907e-20)
(1.28676 0.153592 -1.83708e-19)
(1.29006 0.149755 -2.35396e-20)
(1.28971 0.137099 1.70352e-19)
(-0.0217728 0.0133954 -7.10323e-20)
(0.00250571 0.016149 -5.69053e-19)
(0.0880217 0.0176733 -4.27751e-20)
(0.230606 0.0236798 -1.20144e-19)
(0.421518 0.0409597 -3.24847e-19)
(0.636924 0.069022 1.08401e-19)
(0.843552 0.101364 -2.65077e-19)
(1.01444 0.130421 1.19955e-19)
(1.13825 0.151469 -1.03823e-20)
(1.21738 0.163377 -1.78911e-19)
(1.26166 0.167167 1.15863e-19)
(1.28228 0.165662 -5.95111e-20)
(1.2891 0.159254 7.53995e-20)
(1.28817 0.154082 1.26929e-19)
(1.28533 0.141341 -2.46158e-20)
(-0.019078 0.0111866 -4.95852e-22)
(0.0186615 0.01132 9.40681e-20)
(0.12505 0.014377 9.0744e-20)
(0.293141 0.02545 -8.61257e-21)
(0.50675 0.0502931 4.56597e-20)
(0.731977 0.0848377 -3.43043e-19)
(0.931947 0.119939 8.10477e-20)
(1.08468 0.148121 -5.2069e-20)
(1.18663 0.166225 4.06914e-20)
(1.24613 0.174667 1.01445e-19)
(1.27568 0.175566 -1.22835e-19)
(1.28678 0.171857 3.09427e-20)
(1.28814 0.164392 2.71755e-20)
(1.28447 0.158126 -3.42668e-20)
(1.28049 0.145477 2.31146e-20)
(-0.0152447 0.00880589 1.65009e-19)
(0.0384681 0.0067149 2.91171e-19)
(0.168222 0.0125192 4.46326e-20)
(0.362549 0.0301835 -1.07505e-19)
(0.595171 0.0630701 3.11916e-19)
(0.822975 0.102886 2.08258e-19)
(1.0099 0.138939 -7.52741e-20)
(1.14174 0.16492 2.84654e-21)
(1.22259 0.179539 -7.11323e-20)
(1.26516 0.184601 2.01006e-20)
(1.28316 0.182967 1.6328e-20)
(1.28739 0.177477 -7.04951e-20)
(1.28512 0.169229 -1.45743e-19)
(1.27986 0.162051 9.13789e-20)
(1.27501 0.149531 -1.37706e-19)
(-0.0101008 0.0063138 -1.80467e-19)
(0.0622449 0.00258768 -9.45359e-20)
(0.217581 0.0125775 -2.53305e-19)
(0.437582 0.0382337 3.99664e-19)
(0.683881 0.0789356 -3.48266e-19)
(0.907109 0.122379 1.42241e-19)
(1.0764 0.157734 8.82841e-20)
(1.18656 0.180587 9.76736e-20)
(1.2482 0.191524 6.08927e-20)
(1.27679 0.193464 -1.20231e-20)
(1.28604 0.189675 -5.95245e-20)
(1.28547 0.182762 -1.40341e-19)
(1.28086 0.173919 7.3471e-20)
(1.2746 0.165926 6.91929e-20)
(1.2693 0.153584 1.47586e-19)
(-0.00347957 0.00379509 -1.6175e-19)
(0.090245 -0.000749851 7.86935e-20)
(0.272882 0.0150528 8.06284e-20)
(0.516483 0.0497385 -1.75454e-19)
(0.77006 0.0973368 6.77692e-20)
(0.982506 0.142623 -5.9958e-20)
(1.13145 0.175927 -9.2265e-20)
(1.22058 0.195085 -1.04563e-19)
(1.2655 0.202382 3.89686e-20)
(1.28294 0.201537 1.18803e-19)
(1.28574 0.195943 1.7125e-19)
(1.2819 0.187885 6.58331e-20)
(1.27578 0.178551 -4.36453e-20)
(1.26897 0.169811 -4.67425e-20)
(1.26333 0.157659 -3.93046e-20)
(0.00477603 0.00135776 1.56141e-19)
(0.122625 -0.0029305 -7.78647e-20)
(0.333539 0.0204125 4.47513e-20)
(0.597148 0.0645922 2.54067e-19)
(0.851325 0.117656 2.43191e-19)
(1.04822 0.163085 -2.25864e-19)
(1.17575 0.193313 1.10456e-19)
(1.24547 0.208498 1.28033e-19)
(1.27632 0.212349 -2.17876e-19)
(1.28511 0.209071 4.48367e-20)
(1.28327 0.201962 -9.88308e-20)
(1.27724 0.19296 1.58176e-20)
(1.27017 0.18318 -4.9428e-20)
(1.26302 0.17373 8.8955e-20)
(1.25717 0.161759 -9.62772e-20)
(0.014804 -0.000865585 -1.41827e-19)
(0.159414 -0.00353975 9.60516e-20)
(0.398602 0.02902 1.29819e-19)
(0.677378 0.082488 -3.36026e-20)
(0.925927 0.139315 -3.06978e-19)
(1.10405 0.183395 -1.09279e-19)
(1.21038 0.209829 -1.70703e-19)
(1.26284 0.22098 7.28589e-20)
(1.28219 0.221655 -1.02006e-20)
(1.28443 0.216269 -1.15423e-19)
(1.27932 0.207868 -1.06134e-19)
(1.27183 0.198055 1.98452e-20)
(1.26416 0.187831 4.01689e-20)
(1.25682 0.177697 -8.17505e-20)
(1.2508 0.165886 4.14235e-20)
(0.0267151 -0.0027195 6.05729e-20)
(0.200476 -0.00213627 1.45109e-21)
(0.466804 0.0410763 -3.90525e-19)
(0.755124 0.103002 -2.80984e-20)
(0.992774 0.161833 2.20119e-19)
(1.15035 0.203327 2.22703e-19)
(1.23658 0.225506 1.52379e-19)
(1.27413 0.232706 -2.80361e-20)
(1.2843 0.230503 4.66142e-20)
(1.28168 0.223284 -1.48811e-21)
(1.2743 0.213753 8.42398e-20)
(1.26587 0.203206 3.29882e-20)
(1.25781 0.192512 7.13621e-20)
(1.25037 0.181714 -5.3288e-20)
(1.24421 0.170027 -3.98653e-20)
(0.0405881 -0.00402696 -1.07777e-20)
(0.245483 0.00171845 1.11013e-19)
(0.536658 0.0565983 2.05284e-19)
(0.828672 0.125676 6.90531e-20)
(1.05135 0.184833 -1.97887e-19)
(1.1878 0.222758 -2.47529e-19)
(1.25562 0.24043 1.01389e-19)
(1.2806 0.243855 -6.1309e-20)
(1.2836 0.239061 1.73316e-19)
(1.27743 0.230225 4.74892e-21)
(1.2685 0.219669 -4.37718e-20)
(1.25945 0.208425 -1.65413e-20)
(1.25114 0.197221 8.03989e-20)
(1.24367 0.185778 7.08455e-20)
(1.23738 0.174168 7.59124e-20)
(0.0564588 -0.00459053 1.60043e-19)
(0.293907 0.00842012 -1.71588e-19)
(0.606594 0.075439 1.08122e-19)
(0.896725 0.150073 1.52016e-19)
(1.10158 0.208036 1.3138e-19)
(1.21725 0.241641 5.29006e-20)
(1.26863 0.254713 2.82129e-20)
(1.28325 0.254585 -1.09553e-20)
(1.28074 0.247455 -7.95189e-20)
(1.27204 0.237162 2.98648e-20)
(1.26206 0.225642 7.13587e-20)
(1.25261 0.213709 2.90822e-20)
(1.24416 0.201947 -2.77409e-20)
(1.23669 0.189878 -2.9412e-20)
(1.2303 0.178289 -3.56855e-20)
(0.0743098 -0.00419694 -8.59751e-20)
(0.345026 0.0182805 6.22525e-20)
(0.675088 0.0973324 -6.62548e-21)
(0.958405 0.175802 -1.60015e-19)
(1.1437 0.231239 -4.18174e-20)
(1.23959 0.259978 9.37081e-20)
(1.27664 0.26847 -8.33392e-20)
(1.28287 0.265028 5.60825e-21)
(1.27623 0.255774 -5.13752e-21)
(1.26574 0.244134 -2.74409e-20)
(1.25506 0.231677 -4.53324e-20)
(1.24538 0.219042 -6.40478e-20)
(1.23686 0.206676 -2.43756e-20)
(1.22943 0.194001 4.2437e-20)
(1.22295 0.182368 1.01466e-20)
(0.0940613 -0.00262529 -1.11014e-19)
(0.397964 0.0314959 -1.4131e-20)
(0.740775 0.121941 -7.06724e-20)
(1.0132 0.202526 6.62865e-20)
(1.17817 0.254297 -7.7781e-20)
(1.25572 0.277798 -3.38452e-20)
(1.28052 0.28181 8.73142e-21)
(1.28009 0.275283 -1.32492e-20)
(1.27038 0.264074 2.63499e-20)
(1.25866 0.251152 2.43673e-22)
(1.24755 0.237762 1.80406e-20)
(1.23774 0.224402 3.17716e-20)
(1.22922 0.211389 3.70477e-20)
(1.22187 0.198128 -1.66231e-20)
(1.21531 0.186379 -1.22266e-20)
(0.115564 0.000340993 6.69858e-20)
(0.451737 0.0481325 7.06674e-20)
(0.802509 0.148896 2.47276e-20)
(1.06089 0.229951 -3.89435e-20)
(1.20552 0.277108 8.5935e-21)
(1.26645 0.295141 5.90464e-20)
(1.28096 0.294822 -4.04288e-20)
(1.27534 0.285418 -3.51819e-20)
(1.26342 0.272378 -1.14138e-20)
(1.25089 0.258209 7.00834e-21)
(1.23954 0.243875 -3.91926e-20)
(1.22969 0.22976 8.33015e-21)
(1.22123 0.216066 2.19103e-20)
(1.21399 0.202237 -8.81805e-21)
(1.20739 0.190297 -6.85866e-21)
(0.138594 0.00489944 -4.39988e-20)
(0.505317 0.0681293 -3.0062e-20)
(0.859393 0.177817 -5.85549e-20)
(1.10147 0.257818 -9.45485e-21)
(1.22635 0.299593 -6.13398e-21)
(1.2725 0.312045 -6.42744e-20)
(1.27852 0.307571 2.0281e-20)
(1.26895 0.295473 1.22904e-20)
(1.25549 0.280688 -2.02249e-20)
(1.24246 0.265283 -1.21905e-20)
(1.23101 0.249984 -4.56396e-22)
(1.22122 0.235083 -1.15795e-20)
(1.21288 0.220683 -1.76331e-20)
(1.20578 0.2063 -1.54978e-20)
(1.19919 0.194093 1.09593e-20)
(0.162861 0.0112135 -2.02935e-20)
(0.557687 0.0913135 7.39952e-21)
(0.910769 0.208329 9.96101e-21)
(1.1351 0.285898 1.02571e-20)
(1.24127 0.321688 1.73874e-20)
(1.27449 0.32854 1.21723e-20)
(1.27366 0.3201 -3.39414e-21)
(1.26114 0.305456 1.17115e-20)
(1.24667 0.288984 -6.08896e-22)
(1.23339 0.272339 -7.28335e-23)
(1.22197 0.256051 4.62074e-21)
(1.21231 0.240336 -2.1459e-21)
(1.20415 0.225208 1.45837e-21)
(1.19725 0.210277 5.97375e-21)
(1.19075 0.197731 -4.77917e-21)
(0.188009 0.0193998 -1.29726e-20)
(0.607888 0.11742 -3.33045e-21)
(0.956197 0.240069 1.47846e-20)
(1.16204 0.313977 6.4335e-21)
(1.25082 0.343335 1.76841e-20)
(1.27296 0.344642 1.17672e-20)
(1.26669 0.332421 -3.79408e-22)
(1.25208 0.315356 1.34414e-20)
(1.237 0.297231 -6.58856e-21)
(1.22368 0.279335 7.24052e-22)
(1.2124 0.262034 4.12871e-21)
(1.20294 0.245478 -1.83355e-21)
(1.19503 0.229606 1.74094e-21)
(1.18839 0.214116 6.0995e-21)
(1.18209 0.201179 -2.16872e-21)
(0.213635 0.0295198 -1.87829e-20)
(0.655059 0.146114 -5.28087e-20)
(0.995422 0.272683 -5.89269e-20)
(1.18261 0.341859 -2.16082e-21)
(1.25554 0.364477 -8.56751e-21)
(1.26833 0.360349 -5.77842e-20)
(1.25788 0.344527 2.78508e-20)
(1.24186 0.325138 2.67631e-21)
(1.22652 0.305382 -1.68655e-20)
(1.21332 0.286221 -1.45308e-20)
(1.20228 0.267887 1.99393e-21)
(1.19311 0.25047 -7.77089e-21)
(1.18551 0.233834 -8.21997e-21)
(1.1792 0.217764 -1.12919e-20)
(1.17317 0.204409 6.5694e-21)
(0.239302 0.0415762 7.04141e-20)
(0.698457 0.177003 5.11378e-20)
(1.02834 0.305829 2.14326e-20)
(1.19718 0.369358 -2.97905e-20)
(1.25589 0.385048 1.36139e-20)
(1.26096 0.375638 3.07023e-20)
(1.2474 0.356386 -2.31436e-20)
(1.23055 0.334754 -4.36316e-20)
(1.21522 0.313379 -2.76391e-21)
(1.2023 0.292942 2.38578e-20)
(1.1916 0.273561 -2.66731e-20)
(1.18279 0.25527 1.11566e-20)
(1.17558 0.237854 5.05971e-21)
(1.16965 0.221181 1.15904e-21)
(1.16391 0.207404 -1.04874e-22)
(0.264555 0.0555146 -8.56188e-20)
(0.737472 0.20966 -5.35763e-20)
(1.05496 0.339172 -8.31786e-20)
(1.20613 0.396296 7.22049e-20)
(1.25231 0.404977 -7.41424e-20)
(1.25114 0.390471 -1.69958e-20)
(1.2354 0.367948 -1.26161e-21)
(1.21819 0.344141 1.31379e-21)
(1.20313 0.321158 3.09892e-20)
(1.19062 0.299439 -3.17385e-20)
(1.18036 0.279008 2.52128e-20)
(1.17199 0.259837 9.14111e-21)
(1.16523 0.241637 2.08493e-20)
(1.15973 0.224364 1.07362e-23)
(1.15416 0.210142 -5.43154e-21)
(0.288936 0.0712279 1.21029e-20)
(0.771634 0.243632 1.55069e-20)
(1.07538 0.372385 -2.81962e-20)
(1.20983 0.422504 -1.08864e-19)
(1.24515 0.424184 -2.63425e-20)
(1.2391 0.40479 6.69307e-20)
(1.22198 0.379147 -5.0215e-20)
(1.20483 0.353224 -2.3057e-20)
(1.19023 0.328649 6.99429e-21)
(1.17828 0.305652 -6.10672e-21)
(1.16856 0.284174 -3.33254e-20)
(1.16071 0.264122 -1.55908e-20)
(1.1545 0.245151 -3.01095e-21)
(1.14945 0.227366 4.26634e-21)
(1.14388 0.212609 2.97443e-21)
(0.312003 0.0885599 1.64335e-19)
(0.800614 0.278458 -2.04023e-19)
(1.08976 0.405147 1.3649e-19)
(1.20866 0.447814 6.86596e-20)
(1.23474 0.442578 1.884e-19)
(1.22503 0.418521 4.00536e-21)
(1.20723 0.389903 4.375e-20)
(1.19047 0.361925 1.16283e-20)
(1.17654 0.335777 -6.6253e-20)
(1.16527 0.311516 2.30931e-20)
(1.1562 0.289004 1.73675e-20)
(1.14896 0.268074 1.96053e-20)
(1.14338 0.248353 -1.62603e-20)
(1.1388 0.230211 -2.22118e-21)
(1.13343 0.214822 6.72538e-22)
(0.333341 0.107309 -2.19062e-20)
(0.824207 0.313682 2.37651e-19)
(1.09831 0.437149 1.76218e-19)
(1.20296 0.472057 2.83937e-20)
(1.22138 0.46006 -1.7491e-19)
(1.20909 0.43158 -1.00852e-19)
(1.19119 0.400129 2.95187e-20)
(1.17514 0.370155 -1.58237e-20)
(1.16206 0.342465 3.62205e-20)
(1.15161 0.316963 7.55197e-21)
(1.14331 0.293445 7.41378e-21)
(1.13677 0.271652 -9.76544e-21)
(1.13188 0.251214 3.22114e-21)
(1.12776 0.232742 7.60302e-21)
(1.12291 0.21676 6.30529e-22)
(0.352578 0.127236 1.83977e-19)
(0.842309 0.348855 -1.95971e-19)
(1.10129 0.468089 -2.94143e-19)
(1.19309 0.495065 2.05581e-20)
(1.20531 0.476522 1.38127e-19)
(1.19141 0.443869 1.24414e-19)
(1.17393 0.409727 5.64328e-20)
(1.15887 0.377824 5.82859e-21)
(1.14684 0.348634 5.5949e-21)
(1.13734 0.321927 -2.36761e-22)
(1.12989 0.297431 1.32734e-20)
(1.12416 0.274812 4.69269e-22)
(1.12 0.253721 -3.61356e-21)
(1.11639 0.234925 -2.93427e-21)
(1.11221 0.218345 -2.60874e-21)
(0.369391 0.148068 -2.37497e-19)
(0.854909 0.383542 1.80356e-19)
(1.09898 0.497679 1.53477e-19)
(1.17936 0.51667 -9.92662e-20)
(1.18676 0.49185 -1.92573e-19)
(1.17209 0.455282 -3.72614e-20)
(1.1555 0.418589 -7.92054e-20)
(1.14173 0.384838 3.03216e-20)
(1.13089 0.354202 -5.65353e-21)
(1.12247 0.326345 -1.18622e-20)
(1.11597 0.300913 -4.70926e-21)
(1.11113 0.277507 -3.86188e-21)
(1.10774 0.255819 -5.45098e-21)
(1.10473 0.236709 3.19139e-21)
(1.10131 0.219551 -4.25442e-21)
(0.383511 0.169509 3.3714e-19)
(0.862074 0.417326 -2.13912e-19)
(1.09167 0.525642 1.09863e-19)
(1.16209 0.536708 9.84132e-20)
(1.1659 0.505921 1.62746e-19)
(1.15125 0.465697 -8.90759e-20)
(1.13606 0.426612 2.88536e-20)
(1.12375 0.3911 2.49514e-20)
(1.11424 0.359105 -1.48146e-20)
(1.10701 0.330149 1.85782e-21)
(1.10158 0.303833 3.80665e-21)
(1.0977 0.279696 -3.08497e-21)
(1.09514 0.257469 5.51806e-21)
(1.09281 0.238061 -1.08617e-20)
(1.09023 0.220354 2.78256e-20)
(0.394734 0.191246 -1.86905e-19)
(0.863938 0.449808 1.20515e-20)
(1.07969 0.551719 7.14037e-20)
(1.14156 0.555024 -1.45693e-19)
(1.14293 0.518602 5.26174e-20)
(1.12911 0.475002 1.42296e-20)
(1.11559 0.433679 -3.46363e-20)
(1.10491 0.39654 -1.24996e-20)
(1.09691 0.363252 7.84934e-21)
(1.09101 0.333275 7.06664e-22)
(1.08675 0.306139 -1.04041e-20)
(1.08391 0.281334 -2.41002e-20)
(1.08224 0.258628 -7.21319e-21)
(1.08065 0.238946 3.24037e-20)
(1.07899 0.220742 9.43346e-21)
(0.402913 0.212952 3.48993e-20)
(0.860692 0.48061 -1.87842e-19)
(1.06339 0.575669 -2.33951e-19)
(1.11807 0.571473 1.66969e-19)
(1.11813 0.529764 -8.21232e-20)
(1.10571 0.483066 4.38455e-20)
(1.0941 0.439705 1.64389e-20)
(1.08531 0.401045 2.00104e-21)
(1.07897 0.366571 2.65716e-21)
(1.07451 0.335657 -6.97217e-21)
(1.07152 0.307776 1.06661e-20)
(1.06979 0.282379 1.95233e-20)
(1.06907 0.25926 -1.00909e-20)
(1.06827 0.239332 -8.47916e-21)
(1.06761 0.220702 -4.95272e-20)
(0.407966 0.234302 1.39042e-19)
(0.852588 0.509375 3.48856e-19)
(1.04311 0.597257 -5.62051e-20)
(1.09191 0.585874 -1.03994e-19)
(1.09167 0.539314 1.40548e-19)
(1.08109 0.489768 3.50888e-20)
(1.07173 0.444573 -5.42295e-21)
(1.065 0.404535 -7.37215e-21)
(1.06046 0.368986 -1.00393e-21)
(1.05757 0.337235 2.54019e-20)
(1.05594 0.308696 -1.64296e-20)
(1.0554 0.282791 -5.61036e-21)
(1.05566 0.259328 3.90662e-20)
(1.05572 0.239185 1.38402e-20)
(1.05614 0.220219 4.42537e-20)
(0.409879 0.254971 -6.20803e-20)
(0.839959 0.535801 1.27655e-19)
(1.01914 0.616245 1.06494e-19)
(1.06333 0.598075 -5.0127e-20)
(1.06368 0.5471 -2.95679e-20)
(1.05543 0.495022 -1.58887e-20)
(1.04856 0.44819 -1.70628e-20)
(1.04407 0.406926 5.32067e-21)
(1.04146 0.370431 1.29962e-20)
(1.04024 0.337951 -3.48061e-20)
(1.04005 0.308851 4.09972e-20)
(1.04077 0.282529 -2.30373e-20)
(1.04206 0.258795 -5.74545e-20)
(1.04302 0.238467 7.5688e-20)
(1.04459 0.21927 -5.4619e-20)
(0.408724 0.274636 -1.19631e-19)
(0.823209 0.559677 -4.26642e-19)
(0.99165 0.632358 1.33266e-20)
(1.03265 0.607918 -5.11468e-20)
(1.03436 0.553005 -6.00302e-20)
(1.02883 0.498717 1.6308e-20)
(1.02469 0.450461 2.44852e-20)
(1.02258 0.408141 -2.37897e-20)
(1.02203 0.370841 -2.67268e-20)
(1.02257 0.337752 4.86967e-20)
(1.02393 0.308196 -2.30404e-20)
(1.02596 0.281559 -1.27348e-20)
(1.02831 0.257628 -5.05087e-21)
(1.03021 0.237139 -2.12499e-20)
(1.03299 0.217836 1.89001e-20)
(0.404641 0.292946 1.11616e-20)
(0.802644 0.580837 2.20335e-19)
(0.960983 0.645456 8.18519e-20)
(1.00016 0.615185 3.33882e-20)
(1.0039 0.556927 9.41636e-21)
(1.00144 0.500761 -2.71799e-20)
(1.00022 0.451306 -2.78952e-20)
(1.00063 0.40811 5.84405e-20)
(1.00224 0.370157 1.06376e-19)
(1.00465 0.336588 -1.09966e-19)
(1.00763 0.306691 -1.4605e-20)
(1.01103 0.279849 1.1818e-20)
(1.01446 0.2558 9.16776e-20)
(1.01733 0.235163 2.89017e-20)
(1.02138 0.215907 -8.32842e-20)
(0.397775 0.309543 6.5728e-20)
(0.778266 0.598819 -2.07494e-19)
(0.927878 0.655684 -2.34078e-20)
(0.966195 0.619753 -2.231e-20)
(0.972504 0.558745 2.1707e-20)
(0.973397 0.501067 -1.53936e-20)
(0.975258 0.45065 1.05231e-20)
(0.97831 0.406772 -7.93084e-20)
(0.982179 0.368328 -5.7752e-20)
(0.986546 0.334415 7.85356e-20)
(0.99122 0.3043 -5.72049e-20)
(0.996018 0.277373 7.8758e-20)
(1.00056 0.253294 -7.46192e-20)
(1.0045 0.23252 2.18161e-20)
(1.01 0.213465 8.10827e-20)
(0.388191 0.32425 -1.56346e-19)
(0.750303 0.61314 2.21553e-19)
(0.892754 0.662806 -4.79398e-21)
(0.930992 0.621679 1.63105e-20)
(0.940352 0.558386 -4.50539e-20)
(0.944842 0.499554 1.71895e-20)
(0.949925 0.448428 7.32231e-20)
(0.955721 0.404071 9.78645e-20)
(0.961933 0.365305 -2.01878e-19)
(0.968325 0.331191 5.90085e-20)
(0.974748 0.300984 1.63585e-20)
(0.980981 0.27409 -1.08381e-19)
(0.986698 0.250076 8.62091e-20)
(0.991984 0.229206 -2.95919e-20)
(0.999224 0.210526 3.77402e-20)
(0.376036 0.336867 1.78891e-19)
(0.719505 0.623812 -1.23193e-19)
(0.855856 0.666578 1.15334e-20)
(0.89481 0.620888 -5.21927e-22)
(0.907642 0.555783 -3.8109e-21)
(0.915923 0.496155 7.25756e-20)
(0.924343 0.444585 -9.88949e-20)
(0.932966 0.399962 8.47913e-20)
(0.94159 0.361052 1.22645e-19)
(0.950065 0.326884 -1.72163e-19)
(0.958268 0.296711 5.34128e-20)
(0.965955 0.269946 -2.77481e-20)
(0.972997 0.246049 -6.72985e-21)
(0.980043 0.225127 -9.08163e-20)
(0.989126 0.207294 -4.78235e-20)
(0.361508 0.34712 -4.69409e-20)
(0.68634 0.630683 4.44222e-20)
(0.817513 0.666886 3.13895e-20)
(0.857907 0.617316 1.34403e-20)
(0.874569 0.550883 1.12494e-19)
(0.886796 0.490818 -1.06124e-19)
(0.89864 0.439077 1.40369e-19)
(0.910155 0.39441 -1.11791e-19)
(0.921245 0.355539 1.29936e-19)
(0.931837 0.321475 1.47244e-19)
(0.94183 0.291462 -2.57883e-20)