/*--------------------------------*- C++ -*----------------------------------*\
  =========                 |
  \\      /  F ield         | OpenFOAM: The Open Source CFD Toolbox
   \\    /   O peration     | Website:  https://openfoam.org
    \\  /    A nd           | Version:  7
     \\/     M anipulation  |
\*---------------------------------------------------------------------------*/
FoamFile
{
    version     2.0;
    format      ascii;
    class       volScalarField;
    location    "25";
    object      p;
}
// * * * * * * * * * * * * * * * * * * * * * * * * * * * * * * * * * * * * * //

dimensions      [0 2 -2 0 0 0 0];

internalField   nonuniform List<scalar> 
3500
(
-0.237649
-0.23532
-0.23287
-0.230292
-0.227574
-0.224708
-0.221686
-0.218498
-0.215138
-0.211599
-0.207875
-0.203961
-0.199854
-0.195554
-0.191058
-0.18637
-0.181492
-0.176431
-0.171192
-0.165785
-0.160224
-0.154523
-0.148694
-0.142755
-0.136722
-0.130614
-0.124451
-0.118253
-0.112043
-0.105843
-0.0996757
-0.0935557
-0.0875046
-0.0815449
-0.0756963
-0.0699744
-0.0643981
-0.05898
-0.0537339
-0.0486724
-0.0438054
-0.0391413
-0.0346867
-0.0304467
-0.0264246
-0.0226223
-0.0190401
-0.0156772
-0.0125313
-0.00959924
-0.00687677
-0.00435879
-0.0020395
8.75004e-05
0.00202911
0.00379258
0.00538543
0.00681536
0.00809014
0.00921755
0.0102053
0.011061
0.0117921
0.0124057
0.0129087
0.0133079
0.0136094
0.0138193
0.0139432
0.0139864
0.0139537
0.0138497
0.0136785
0.0134439
0.0131491
0.0127972
0.0123908
0.0119321
0.0114228
0.0108644
0.0102581
0.00960405
0.00890347
0.00815377
0.0073595
0.00650788
0.0056223
0.00464403
0.00368654
0.00246204
0.00145251
-0.238156
-0.235859
-0.233444
-0.2309
-0.228218
-0.225389
-0.222404
-0.219255
-0.215933
-0.212432
-0.208745
-0.204868
-0.200797
-0.19653
-0.192067
-0.187409
-0.182559
-0.177523
-0.17231
-0.166923
-0.16138
-0.155692
-0.149873
-0.14394
-0.13791
-0.131802
-0.125636
-0.119432
-0.113215
-0.107007
-0.100811
-0.0946784
-0.0886106
-0.0826303
-0.0767594
-0.0710159
-0.065415
-0.0599719
-0.0547006
-0.0496132
-0.04472
-0.0400295
-0.0355486
-0.0312824
-0.0272345
-0.0234066
-0.0197993
-0.0164118
-0.0132419
-0.0102863
-0.00754096
-0.00500068
-0.0026597
-0.000511601
0.0014505
0.00323387
0.00484605
0.00629475
0.00758776
0.00873288
0.00973784
0.0106103
0.0113576
0.0119869
0.0125054
0.0129195
0.0132356
0.0134597
0.0135975
0.0136542
0.0136347
0.0135436
0.0133849
0.0131626
0.0128799
0.0125399
0.0121452
0.011698
0.0112003
0.0106533
0.0100584
0.00941571
0.00872676
0.00798864
0.00720655
0.00636691
0.00549435
0.00452931
0.00358388
0.00238188
0.00137228
-0.239003
-0.236757
-0.234396
-0.231908
-0.229286
-0.226519
-0.223597
-0.220513
-0.217256
-0.213821
-0.210199
-0.206387
-0.20238
-0.198175
-0.193772
-0.189172
-0.184377
-0.179396
-0.174246
-0.168823
-0.163336
-0.157683
-0.151891
-0.145979
-0.139965
-0.133867
-0.127706
-0.121501
-0.115276
-0.109052
-0.102854
-0.0966993
-0.0906081
-0.0846023
-0.0787023
-0.0729263
-0.0672912
-0.0618126
-0.0565043
-0.0513786
-0.046446
-0.0417153
-0.0371937
-0.0328864
-0.0287971
-0.024928
-0.0212795
-0.017851
-0.0146404
-0.0116446
-0.00885942
-0.00627985
-0.00390013
-0.00171388
0.000285758
0.00210603
0.00375447
0.00523876
0.0065667
0.00774608
0.00878463
0.00968997
0.0104695
0.0111305
0.0116799
0.0121243
0.0124701
0.0127232
0.0128895
0.0129741
0.012982
0.0129177
0.0127853
0.0125887
0.0123314
0.0120164
0.0116463
0.0112235
0.01075
0.0102271
0.00965637
0.00903781
0.00837342
0.00765988
0.00690342
0.00608943
0.00524397
0.00430774
0.00338776
0.00223278
0.00123292
-0.237737
-0.235436
-0.233014
-0.230459
-0.227762
-0.224913
-0.221903
-0.218723
-0.215364
-0.211821
-0.208087
-0.204158
-0.200029
-0.195701
-0.191172
-0.186446
-0.181525
-0.176418
-0.171127
-0.165675
-0.160067
-0.154319
-0.148445
-0.142465
-0.136395
-0.130257
-0.124071
-0.117859
-0.111641
-0.105442
-0.0992824
-0.0931843
-0.0871677
-0.0812524
-0.075457
-0.069799
-0.0642941
-0.0589565
-0.0537988
-0.0488317
-0.0440643
-0.0395039
-0.035156
-0.0310245
-0.0271117
-0.0234183
-0.0199438
-0.0166863
-0.0136427
-0.0108092
-0.00818075
-0.00575177
-0.00351599
-0.00146667
0.000403352
0.00210149
0.00363534
0.00501261
0.00624102
0.00732823
0.00828178
0.00910905
0.0098172
0.0104131
0.0109035
0.0112946
0.0115924
0.0118026
0.0119305
0.011981
0.0119587
0.0118677
0.0117118
0.0114946
0.0112192
0.0108883
0.0105044
0.0100695
0.00958504
0.0090529
0.00847298
0.00784781
0.00717378
0.00645806
0.00568565
0.00488292
0.00399392
0.00311533
0.00203286
0.00106421
-0.238589
-0.236338
-0.23397
-0.231473
-0.228839
-0.226057
-0.223117
-0.220011
-0.216729
-0.213265
-0.209612
-0.205765
-0.201721
-0.197477
-0.193033
-0.188391
-0.183554
-0.178526
-0.173317
-0.167939
-0.162405
-0.156727
-0.150921
-0.145004
-0.138993
-0.13291
-0.126773
-0.120606
-0.114429
-0.108264
-0.102134
-0.0960602
-0.0900627
-0.0841613
-0.0783749
-0.0727208
-0.0672149
-0.0618716
-0.0567034
-0.0517214
-0.0469347
-0.0423508
-0.0379754
-0.0338125
-0.0298646
-0.0261328
-0.0226167
-0.0193146
-0.0162237
-0.0133403
-0.0106598
-0.00817678
-0.00588518
-0.00377851
-0.00184985
-9.20223e-05
0.00150238
0.00294084
0.0042309
0.00538002
0.00639559
0.00728483
0.00805478
0.00871221
0.00926366
0.00971536
0.0100732
0.0103428
0.0105295
0.010638
0.0106731
0.0106389
0.0105391
0.0103775
0.0101569
0.00988051
0.00955059
0.00916952
0.00873879
0.00826051
0.00773466
0.00716426
0.00654572
0.00588672
0.00517307
0.00442963
0.00360742
0.00278841
0.00180148
0.000891328
-0.239057
-0.236847
-0.234523
-0.232075
-0.229494
-0.226768
-0.22389
-0.220849
-0.217638
-0.214248
-0.210673
-0.206909
-0.20295
-0.198795
-0.194444
-0.189896
-0.185156
-0.180229
-0.175123
-0.169847
-0.164413
-0.158834
-0.153126
-0.147305
-0.141389
-0.135397
-0.129349
-0.123266
-0.11717
-0.111081
-0.105021
-0.0990123
-0.0930739
-0.0872256
-0.0814859
-0.075872
-0.0703995
-0.0650828
-0.0599344
-0.0549652
-0.0501845
-0.0455998
-0.0412169
-0.0370402
-0.0330722
-0.0293143
-0.0257665
-0.0224272
-0.0192943
-0.0163642
-0.0136327
-0.0110947
-0.00874471
-0.00657652
-0.00458361
-0.00275915
-0.0010961
0.000412686
0.00177443
0.0029963
0.0040854
0.00504871
0.00589303
0.00662494
0.00725079
0.00777664
0.0082083
0.00855125
0.00881067
0.00899141
0.009098
0.00913465
0.00910522
0.00901326
0.00886193
0.00865422
0.00839264
0.00807973
0.00771712
0.0073072
0.00685015
0.0063493
0.00580157
0.00521449
0.00457594
0.00390772
0.00317025
0.00242896
0.00155521
0.000729092
-0.236809
-0.234514
-0.232099
-0.229556
-0.226874
-0.224046
-0.221061
-0.217911
-0.21459
-0.21109
-0.207406
-0.203535
-0.199474
-0.195222
-0.190781
-0.186152
-0.181342
-0.176356
-0.171205
-0.165899
-0.160451
-0.154876
-0.149188
-0.143405
-0.137546
-0.131628
-0.125673
-0.119701
-0.113731
-0.107786
-0.101886
-0.0960492
-0.0902955
-0.0846425
-0.0791069
-0.0737042
-0.0684481
-0.0633512
-0.0584241
-0.0536761
-0.0491147
-0.0447459
-0.0405742
-0.0366025
-0.0328325
-0.0292643
-0.0258972
-0.0227292
-0.0197573
-0.0169779
-0.0143864
-0.0119777
-0.00974632
-0.0076861
-0.00579076
-0.00405375
-0.00246837
-0.00102785
0.000274595
0.00144569
0.00249208
0.00342024
0.00423648
0.00494692
0.00555741
0.00607357
0.00650073
0.00684397
0.00710806
0.00729746
0.00741636
0.00746862
0.00745785
0.00738728
0.00725996
0.0070785
0.00684558
0.00656306
0.00623354
0.00585758
0.00543862
0.00497449
0.0044721
0.00392215
0.00334259
0.00270384
0.00205552
0.00130607
0.00058313
-0.233636
-0.231264
-0.228766
-0.226135
-0.223362
-0.220439
-0.217358
-0.214112
-0.210696
-0.207103
-0.203331
-0.199378
-0.195241
-0.190923
-0.186426
-0.181754
-0.176915
-0.171915
-0.166766
-0.161479
-0.156068
-0.150548
-0.144935
-0.139246
-0.133499
-0.127712
-0.121905
-0.116095
-0.110304
-0.104551
-0.0988546
-0.0932322
-0.0877011
-0.0822775
-0.0769761
-0.0718107
-0.0667932
-0.0619343
-0.0572429
-0.0527267
-0.0483918
-0.0442429
-0.0402833
-0.0365149
-0.0329386
-0.0295539
-0.0263594
-0.0233529
-0.0205312
-0.0178905
-0.0154262
-0.0131334
-0.0110067
-0.0090403
-0.0072283
-0.00556451
-0.00404265
-0.00265642
-0.00139954
-0.000265762
0.000751033
0.00165683
0.00245745
0.00315851
0.0037654
0.00428329
0.00471711
0.00507151
0.0053509
0.00555941
0.00570092
0.00577904
0.0057971
0.00575823
0.00566513
0.00552059
0.00532669
0.00508618
0.00480012
0.0044719
0.0041005
0.00369195
0.00324002
0.00275872
0.00222773
0.00168287
0.00106267
0.000454145
-0.231943
-0.229606
-0.22715
-0.224567
-0.221849
-0.218988
-0.215978
-0.212812
-0.209485
-0.205992
-0.202329
-0.198494
-0.194488
-0.19031
-0.185962
-0.18145
-0.176779
-0.171956
-0.166991
-0.161895
-0.15668
-0.15136
-0.145949
-0.140465
-0.134923
-0.12934
-0.123734
-0.118122
-0.112523
-0.106954
-0.101433
-0.0959762
-0.0905997
-0.0853188
-0.0801479
-0.0751003
-0.0701875
-0.06542
-0.0608068
-0.0563554
-0.0520722
-0.0479621
-0.0440289
-0.0402749
-0.0367014
-0.0333088
-0.0300961
-0.0270619
-0.0242036
-0.0215182
-0.0190018
-0.0166502
-0.0144587
-0.0124222
-0.0105353
-0.00879257
-0.00718826
-0.0057166
-0.00437178
-0.00314804
-0.00203964
-0.00104097
-0.000146544
0.000648985
0.00135077
0.00196377
0.00249275
0.00294223
0.00331654
0.00361975
0.00385572
0.00402807
0.00414019
0.0041953
0.00419627
0.00414597
0.00404673
0.00390135
0.00371139
0.00348013
0.00320768
0.00289915
0.00255124
0.00217435
0.00175614
0.00132102
0.000830866
0.000341608
-0.227049
-0.224694
-0.222215
-0.219607
-0.216862
-0.213975
-0.21094
-0.207753
-0.20441
-0.200907
-0.197242
-0.193415
-0.189426
-0.185278
-0.180973
-0.176517
-0.171917
-0.16718
-0.162316
-0.157336
-0.152253
-0.147078
-0.141828
-0.136517
-0.13116
-0.125774
-0.120376
-0.114982
-0.109609
-0.104274
-0.0989909
-0.0937749
-0.0886401
-0.0836007
-0.0786695
-0.0738581
-0.0691769
-0.0646351
-0.0602406
-0.0560001
-0.0519191
-0.0480018
-0.0442515
-0.04067
-0.0372584
-0.0340167
-0.0309441
-0.028039
-0.0252989
-0.0227209
-0.0203014
-0.0180366
-0.0159219
-0.0139527
-0.012124
-0.0104307
-0.0088675
-0.00742912
-0.00611017
-0.0049053
-0.00380921
-0.00281672
-0.00192272
-0.00112227
-0.000410561
0.000217025
0.000764931
0.0012374
0.00163851
0.00197209
0.00224182
0.00245115
0.00260338
0.00270153
0.00274861
0.00274724
0.00270031
0.00260993
0.0024792
0.00230935
0.00210451
0.001864
0.00159503
0.00129201
0.000969945
0.000609212
0.000241365
-0.222353
-0.220051
-0.217626
-0.215075
-0.212392
-0.209573
-0.206611
-0.203505
-0.200251
-0.196847
-0.193292
-0.189586
-0.185729
-0.181725
-0.177577
-0.173291
-0.168872
-0.164329
-0.15967
-0.154906
-0.150049
-0.14511
-0.140102
-0.13504
-0.129939
-0.124812
-0.119674
-0.114541
-0.109428
-0.104349
-0.0993175
-0.0943479
-0.0894531
-0.0846455
-0.0799366
-0.0753368
-0.0708555
-0.0665012
-0.0622811
-0.0582013
-0.054267
-0.0504823
-0.0468501
-0.0433726
-0.0400509
-0.0368853
-0.0338754
-0.0310199
-0.0283169
-0.0257642
-0.0233587
-0.0210971
-0.0189757
-0.0169903
-0.0151369
-0.0134108
-0.0118074
-0.010322
-0.00894999
-0.00768643
-0.00652663
-0.00546587
-0.00449953
-0.00362308
-0.00283211
-0.00212234
-0.00148962
-0.000929978
-0.000439567
-1.47111e-05
0.000348115
0.000652278
0.000901006
0.00109736
0.00124431
0.00134466
0.00140122
0.00141653
0.0013934
0.00133408
0.00124169
0.00111803
0.000967177
0.000789737
0.000592155
0.000371297
0.000137916
-0.214009
-0.211791
-0.209453
-0.206991
-0.204401
-0.201681
-0.198829
-0.195841
-0.192717
-0.189455
-0.186057
-0.182522
-0.178854
-0.175055
-0.171129
-0.167082
-0.16292
-0.15865
-0.154281
-0.149822
-0.145283
-0.140675
-0.136009
-0.131299
-0.126555
-0.121791
-0.11702
-0.112255
-0.107507
-0.102791
-0.0981173
-0.0934986
-0.0889457
-0.0844692
-0.0800789
-0.0757839
-0.0715923
-0.0675115
-0.063548
-0.0597073
-0.0559941
-0.0524122
-0.0489645
-0.0456532
-0.0424797
-0.0394446
-0.0365479
-0.0337889
-0.0311664
-0.0286786
-0.0263234
-0.0240983
-0.0220001
-0.0200258
-0.0181718
-0.0164345
-0.0148099
-0.0132943
-0.0118835
-0.0105735
-0.00936024
-0.00823954
-0.00720742
-0.00625989
-0.00539302
-0.00460298
-0.00388603
-0.00323853
-0.00265694
-0.00213785
-0.00167795
-0.00127403
-0.000923032
-0.00062193
-0.000367852
-0.000157918
1.05672e-05
0.000140457
0.000234272
0.000295037
0.000325025
0.000327836
0.000305166
0.000262086
0.000198777
0.000124205
3.52461e-05
-0.206012
-0.203896
-0.201665
-0.199315
-0.196845
-0.194252
-0.191536
-0.188695
-0.185729
-0.182638
-0.179423
-0.176085
-0.172628
-0.169054
-0.165368
-0.161574
-0.157678
-0.153687
-0.149609
-0.145452
-0.141225
-0.136936
-0.132597
-0.128217
-0.123808
-0.119381
-0.114945
-0.110514
-0.106097
-0.101706
-0.0973507
-0.093042
-0.0887893
-0.084602
-0.0804886
-0.0764573
-0.0725154
-0.0686696
-0.0649257
-0.0612891
-0.057764
-0.0543542
-0.0510626
-0.0478916
-0.0448427
-0.0419169
-0.0391146
-0.0364356
-0.0338792
-0.0314443
-0.0291293
-0.0269322
-0.0248508
-0.0228825
-0.0210245
-0.0192738
-0.0176271
-0.0160813
-0.0146328
-0.0132781
-0.0120138
-0.0108362
-0.00974191
-0.00872725
-0.00778876
-0.00692298
-0.00612651
-0.00539602
-0.00472823
-0.00411997
-0.00356812
-0.00306964
-0.00262158
-0.002221
-0.00186511
-0.00155102
-0.00127612
-0.00103737
-0.000832499
-0.000657956
-0.000512138
-0.000390195
-0.0002922
-0.000209956
-0.000147758
-8.85975e-05
-4.6593e-05
-0.198099
-0.196101
-0.193991
-0.191767
-0.189428
-0.186974
-0.184403
-0.181716
-0.178913
-0.175995
-0.172964
-0.169822
-0.16657
-0.163214
-0.159756
-0.156202
-0.152557
-0.148827
-0.14502
-0.141142
-0.137201
-0.133206
-0.129165
-0.125089
-0.120985
-0.116865
-0.112736
-0.108611
-0.104496
-0.100404
-0.0963415
-0.0923187
-0.088344
-0.0844253
-0.0805706
-0.0767867
-0.0730805
-0.0694577
-0.0659238
-0.0624836
-0.0591411
-0.0558999
-0.0527628
-0.0497322
-0.0468097
-0.0439964
-0.0412932
-0.0387001
-0.0362168
-0.0338426
-0.0315764
-0.0294169
-0.0273622
-0.0254103
-0.023559
-0.0218059
-0.0201483
-0.0185835
-0.0171085
-0.0157204
-0.0144161
-0.0131926
-0.0120468
-0.0109755
-0.00997569
-0.00904417
-0.00817791
-0.00737387
-0.00662908
-0.00594055
-0.00530542
-0.00472079
-0.00418388
-0.00369186
-0.00324207
-0.00283163
-0.00245811
-0.00211834
-0.00181031
-0.00153013
-0.00127681
-0.0010446
-0.000835056
-0.000637715
-0.000460608
-0.000280723
-0.00012041
-0.190587
-0.188708
-0.186721
-0.184625
-0.182419
-0.180104
-0.177679
-0.175146
-0.172505
-0.169759
-0.166907
-0.163954
-0.160902
-0.157754
-0.154514
-0.151187
-0.147779
-0.144294
-0.140739
-0.137121
-0.133446
-0.129723
-0.125958
-0.12216
-0.118338
-0.114499
-0.110652
-0.106805
-0.102968
-0.0991475
-0.0953526
-0.0915908
-0.0878696
-0.0841964
-0.0805777
-0.0770202
-0.0735295
-0.0701111
-0.0667699
-0.0635103
-0.0603361
-0.0572506
-0.0542567
-0.0513566
-0.0485522
-0.0458447
-0.043235
-0.0407236
-0.0383105
-0.0359953
-0.0337775
-0.0316559
-0.0296292
-0.0276961
-0.0258546
-0.0241028
-0.0224385
-0.0208595
-0.0193634
-0.0179475
-0.0166094
-0.0153463
-0.0141555
-0.0130343
-0.0119799
-0.0109895
-0.0100605
-0.00918989
-0.0083751
-0.00761335
-0.00690196
-0.00623821
-0.00561951
-0.00504312
-0.00450655
-0.00400697
-0.00354211
-0.00310877
-0.00270522
-0.00232733
-0.00197467
-0.00164082
-0.00132865
-0.00102591
-0.000743722
-0.000454069
-0.000185931
-0.183483
-0.181726
-0.179864
-0.177897
-0.175825
-0.173649
-0.17137
-0.168989
-0.166507
-0.163926
-0.161248
-0.158476
-0.155614
-0.152663
-0.149628
-0.146514
-0.143326
-0.140068
-0.136746
-0.133366
-0.129935
-0.126458
-0.122944
-0.1194
-0.115831
-0.112247
-0.108654
-0.105059
-0.101471
-0.0978968
-0.094343
-0.0908167
-0.0873247
-0.0838734
-0.0804688
-0.0771166
-0.0738221
-0.0705903
-0.0674256
-0.064332
-0.0613132
-0.0583722
-0.0555118
-0.0527342
-0.0500413
-0.0474344
-0.0449147
-0.0424826
-0.0401386
-0.0378825
-0.035714
-0.0336324
-0.0316368
-0.029726
-0.0278986
-0.0261532
-0.0244878
-0.0229006
-0.0213896
-0.0199527
-0.0185875
-0.0172919
-0.0160634
-0.0148996
-0.0137982
-0.0127565
-0.0117721
-0.0108425
-0.00996526
-0.00913778
-0.00835762
-0.00762223
-0.0069292
-0.00627593
-0.00566009
-0.00507893
-0.00453038
-0.00401125
-0.00352006
-0.00305257
-0.00260886
-0.002182
-0.00177602
-0.00137718
-0.000999254
-0.000610022
-0.000244309
-0.176802
-0.175166
-0.173427
-0.171588
-0.169648
-0.167608
-0.165471
-0.163237
-0.160908
-0.158486
-0.155974
-0.153374
-0.15069
-0.147925
-0.145082
-0.142165
-0.13918
-0.136131
-0.133023
-0.129862
-0.126653
-0.123402
-0.120116
-0.116801
-0.113463
-0.110109
-0.106746
-0.10338
-0.100018
-0.0966656
-0.0933302
-0.0900174
-0.0867334
-0.0834837
-0.0802739
-0.077109
-0.0739939
-0.070933
-0.0679303
-0.0649897
-0.0621145
-0.0593076
-0.0565716
-0.0539087
-0.0513207
-0.0488091
-0.046375
-0.0440192
-0.0417421
-0.0395439
-0.0374245
-0.0353835
-0.0334203
-0.031534
-0.0297235
-0.0279876
-0.026325
-0.0247339
-0.0232128
-0.0217598
-0.020373
-0.0190505
-0.0177902
-0.0165899
-0.0154475
-0.0143608
-0.0133275
-0.0123455
-0.0114123
-0.0105257
-0.00968352
-0.00888327
-0.00812274
-0.00739949
-0.00671136
-0.00605572
-0.00543066
-0.00483307
-0.00426172
-0.0037123
-0.00318536
-0.00267358
-0.00218203
-0.00169569
-0.00123072
-0.000751203
-0.000297113
-0.17053
-0.169011
-0.167394
-0.165678
-0.163866
-0.161959
-0.159958
-0.157866
-0.155683
-0.153413
-0.151058
-0.148621
-0.146104
-0.143512
-0.140848
-0.138115
-0.135318
-0.132461
-0.12955
-0.126589
-0.123583
-0.120539
-0.11746
-0.114354
-0.111226
-0.108081
-0.104926
-0.101767
-0.0986095
-0.0954591
-0.0923216
-0.0892026
-0.0861073
-0.0830409
-0.0800083
-0.0770141
-0.0740626
-0.071158
-0.068304
-0.065504
-0.0627612
-0.0600783
-0.0574577
-0.0549016
-0.0524119
-0.0499899
-0.0476369
-0.0453537
-0.043141
-0.0409991
-0.038928
-0.0369276
-0.0349975
-0.033137
-0.0313455
-0.0296218
-0.027965
-0.0263736
-0.0248464
-0.0233817
-0.0219781
-0.0206336
-0.0193467
-0.0181153
-0.0169377
-0.0158118
-0.0147356
-0.0137071
-0.0127242
-0.0117849
-0.0108869
-0.0100283
-0.00920678
-0.00842016
-0.00766645
-0.00694312
-0.00624848
-0.00557945
-0.00493511
-0.00431107
-0.00370836
-0.0031193
-0.00254994
-0.00198412
-0.00144015
-0.000878821
-0.000344709
-0.16465
-0.163245
-0.161744
-0.160148
-0.15846
-0.156679
-0.154809
-0.152852
-0.150808
-0.148682
-0.146475
-0.144191
-0.141832
-0.139401
-0.136903
-0.13434
-0.131717
-0.129038
-0.126308
-0.12353
-0.120711
-0.117854
-0.114965
-0.112049
-0.109111
-0.106157
-0.103191
-0.10022
-0.0972481
-0.0942808
-0.091323
-0.0883799
-0.0854562
-0.0825565
-0.0796853
-0.0768467
-0.0740448
-0.0712833
-0.0685656
-0.0658948
-0.063274
-0.0607057
-0.0581922
-0.0557356
-0.0533376
-0.0509998
-0.0487234
-0.0465093
-0.0443581
-0.0422704
-0.0402464
-0.0382861
-0.0363893
-0.0345555
-0.0327843
-0.0310748
-0.0294262
-0.0278374
-0.0263074
-0.0248347
-0.0234181
-0.0220561
-0.0207471
-0.0194894
-0.0182815
-0.0171215
-0.0160077
-0.0149383
-0.0139113
-0.0129249
-0.0119771
-0.0110659
-0.0101895
-0.00934566
-0.00853262
-0.00774797
-0.00699021
-0.00625635
-0.00554572
-0.0048539
-0.00418237
-0.00352315
-0.00288316
-0.00224526
-0.00162969
-0.00099428
-0.000387752
-0.159146
-0.15785
-0.15646
-0.154979
-0.153408
-0.151749
-0.150003
-0.148174
-0.146262
-0.144271
-0.142204
-0.140063
-0.13785
-0.13557
-0.133226
-0.130821
-0.128359
-0.125844
-0.12328
-0.120671
-0.118022
-0.115337
-0.11262
-0.109878
-0.107114
-0.104332
-0.101539
-0.0987384
-0.0959352
-0.0931341
-0.0903398
-0.0875566
-0.084789
-0.0820412
-0.0793171
-0.0766206
-0.0739554
-0.0713248
-0.068732
-0.0661801
-0.0636717
-0.0612092
-0.0587949
-0.0564307
-0.0541184
-0.0518595
-0.049655
-0.0475061
-0.0454136
-0.0433779
-0.0413994
-0.0394782
-0.0376144
-0.0358076
-0.0340575
-0.0323636
-0.0307251
-0.0291412
-0.0276109
-0.0261333
-0.0247071
-0.023331
-0.0220039
-0.0207241
-0.0194903
-0.0183009
-0.0171542
-0.0160488
-0.0149827
-0.0139545
-0.0129622
-0.012004
-0.0110783
-0.010183
-0.00931642
-0.00847639
-0.00766156
-0.00686902
-0.00609836
-0.00534515
-0.00461126
-0.00388849
-0.00318454
-0.00248138
-0.00180101
-0.0010986
-0.000426598
-0.154002
-0.15281
-0.151527
-0.150154
-0.148695
-0.14715
-0.145522
-0.143813
-0.142025
-0.140162
-0.138225
-0.136217
-0.134142
-0.132002
-0.1298
-0.127541
-0.125227
-0.122863
-0.120451
-0.117997
-0.115504
-0.112976
-0.110418
-0.107834
-0.105227
-0.102604
-0.0999673
-0.097322
-0.0946723
-0.0920226
-0.0893768
-0.0867393
-0.0841138
-0.0815043
-0.0789144
-0.0763477
-0.0738074
-0.0712967
-0.0688185
-0.0663757
-0.0639708
-0.061606
-0.0592834
-0.057005
-0.0547724
-0.052587
-0.0504501
-0.0483627
-0.0463256
-0.0443394
-0.0424047
-0.0405215
-0.03869
-0.0369101
-0.0351816
-0.033504
-0.0318769
-0.0302996
-0.0287713
-0.0272911
-0.0258581
-0.0244712
-0.0231292
-0.021831
-0.0205751
-0.0193603
-0.0181851
-0.0170481
-0.0159477
-0.0148823
-0.0138504
-0.0128503
-0.0118804
-0.0109388
-0.0100242
-0.0091343
-0.00826801
-0.00742252
-0.00659764
-0.00578895
-0.00499871
-0.00421849
-0.00345672
-0.0026946
-0.00195566
-0.00119275
-0.00046163
-0.149206
-0.148111
-0.146928
-0.145658
-0.144303
-0.142866
-0.141348
-0.139753
-0.138081
-0.136337
-0.134521
-0.132638
-0.13069
-0.12868
-0.126611
-0.124486
-0.122309
-0.120083
-0.117812
-0.115499
-0.113149
-0.110765
-0.108351
-0.105911
-0.103449
-0.100969
-0.0984751
-0.0959712
-0.0934613
-0.0909492
-0.0884388
-0.0859338
-0.0834378
-0.0809544
-0.0784869
-0.0760386
-0.0736125
-0.0712115
-0.0688384
-0.0664958
-0.064186
-0.0619112
-0.0596734
-0.0574743
-0.0553157
-0.0531989
-0.0511252
-0.0490955
-0.0471107
-0.0451715
-0.0432784
-0.0414317
-0.0396317
-0.0378782
-0.0361713
-0.0345106
-0.0328958
-0.0313264
-0.0298017
-0.028321
-0.0268836
-0.0254884
-0.0241346
-0.022821
-0.0215465
-0.0203099
-0.01911
-0.0179453
-0.0168146
-0.0157165
-0.0146494
-0.013612
-0.0126026
-0.0116197
-0.010662
-0.00972727
-0.0088147
-0.00792154
-0.00704782
-0.00618914
-0.00534808
-0.00451605
-0.00370211
-0.00288681
-0.00209505
-0.00127759
-0.000493163
-0.144743
-0.14374
-0.14265
-0.141476
-0.140219
-0.138883
-0.137468
-0.135978
-0.134415
-0.132781
-0.131079
-0.129311
-0.127481
-0.125591
-0.123644
-0.121643
-0.119592
-0.117493
-0.115351
-0.113168
-0.110949
-0.108696
-0.106414
-0.104105
-0.101775
-0.0994257
-0.0970617
-0.0946865
-0.0923038
-0.089917
-0.0875298
-0.0851455
-0.0827675
-0.080399
-0.0780431
-0.0757028
-0.073381
-0.0710804
-0.0688035
-0.0665528
-0.0643304
-0.0621384
-0.0599787
-0.0578531
-0.0557631
-0.05371
-0.0516951
-0.0497194
-0.0477837
-0.0458889
-0.0440354
-0.0422236
-0.0404538
-0.0387261
-0.0370405
-0.0353969
-0.033795
-0.0322344
-0.0307146
-0.029235
-0.027795
-0.0263939
-0.0250306
-0.0237044
-0.0224142
-0.021159
-0.0199376
-0.018749
-0.0175917
-0.0164647
-0.0153666
-0.0142959
-0.0132515
-0.0122317
-0.0112353
-0.0102605
-0.00930647
-0.00837051
-0.00745289
-0.00654925
-0.00566247
-0.00478382
-0.00392293
-0.00305975
-0.00222045
-0.00135389
-0.000521494
-0.140601
-0.139682
-0.138679
-0.137594
-0.13643
-0.135187
-0.133868
-0.132477
-0.131014
-0.129482
-0.127885
-0.126224
-0.124503
-0.122723
-0.120888
-0.119002
-0.117066
-0.115084
-0.11306
-0.110996
-0.108896
-0.106763
-0.104601
-0.102413
-0.100202
-0.0979723
-0.0957266
-0.0934686
-0.0912015
-0.0889288
-0.0866536
-0.0843791
-0.0821085
-0.0798446
-0.0775905
-0.0753488
-0.0731222
-0.0709133
-0.0687244
-0.0665578
-0.0644156
-0.0622998
-0.060212
-0.0581541
-0.0561275
-0.0541334
-0.0521732
-0.0502478
-0.0483582
-0.046505
-0.0446888
-0.0429101
-0.0411693
-0.0394665
-0.0378018
-0.0361752
-0.0345864
-0.0330352
-0.0315213
-0.0300441
-0.0286031
-0.0271977
-0.0258272
-0.0244907
-0.0231874
-0.0219164
-0.0206766
-0.019467
-0.0182867
-0.0171342
-0.0160087
-0.0149087
-0.0138331
-0.0127804
-0.0117497
-0.010739
-0.00974781
-0.00877352
-0.00781656
-0.00687259
-0.00594479
-0.00502427
-0.00412122
-0.00321504
-0.00233302
-0.00142238
-0.000546893
-0.136767
-0.135927
-0.135004
-0.134002
-0.132922
-0.131766
-0.130537
-0.129236
-0.127866
-0.126429
-0.124928
-0.123366
-0.121744
-0.120067
-0.118335
-0.116553
-0.114723
-0.112849
-0.110932
-0.108977
-0.106986
-0.104963
-0.10291
-0.100831
-0.0987292
-0.0966076
-0.0944695
-0.0923179
-0.0901561
-0.087987
-0.0858137
-0.0836391
-0.0814661
-0.0792975
-0.0771359
-0.074984
-0.0728443
-0.070719
-0.0686105
-0.0665209
-0.0644521
-0.062406
-0.0603844
-0.0583887
-0.0564205
-0.0544811
-0.0525715
-0.0506929
-0.0488461
-0.0470318
-0.0452508
-0.0435034
-0.0417901
-0.0401112
-0.0384666
-0.0368566
-0.035281
-0.0337396
-0.0322322
-0.0307584
-0.0293177
-0.0279096
-0.0265335
-0.0251888
-0.0238746
-0.0225902
-0.0213346
-0.020107
-0.0189065
-0.0177318
-0.0165821
-0.0154562
-0.014353
-0.0132712
-0.0122098
-0.0111672
-0.0101429
-0.0091344
-0.00814227
-0.00716222
-0.00619769
-0.00523968
-0.00429886
-0.00335416
-0.00243385
-0.00148371
-0.000569612
-0.133229
-0.132462
-0.131614
-0.130688
-0.129686
-0.12861
-0.127462
-0.126245
-0.12496
-0.123611
-0.122199
-0.120727
-0.119197
-0.117613
-0.115976
-0.114289
-0.112556
-0.110779
-0.108961
-0.107105
-0.105213
-0.103289
-0.101336
-0.0993567
-0.0973539
-0.0953308
-0.0932903
-0.0912354
-0.089169
-0.087094
-0.0850132
-0.0829292
-0.0808449
-0.0787628
-0.0766854
-0.0746152
-0.0725544
-0.0705054
-0.0684701
-0.0664507
-0.064449
-0.0624668
-0.0605057
-0.0585672
-0.0566527
-0.0547635
-0.0529007
-0.0510654
-0.0492583
-0.0474804
-0.0457321
-0.0440142
-0.0423269
-0.0406706
-0.0390454
-0.0374515
-0.0358889
-0.0343575
-0.032857
-0.0313873
-0.0299478
-0.0285383
-0.0271582
-0.0258068
-0.0244837
-0.023188
-0.021919
-0.0206758
-0.0194577
-0.0182637
-0.0170928
-0.0159441
-0.0148165
-0.0137089
-0.0126204
-0.0115495
-0.0104957
-0.00945669
-0.00843321
-0.00742097
-0.00642364
-0.00543217
-0.00445759
-0.00347847
-0.00252394
-0.0015385
-0.000589881
-0.129978
-0.129276
-0.128496
-0.12764
-0.12671
-0.125707
-0.124634
-0.123494
-0.122288
-0.121018
-0.119687
-0.118298
-0.116852
-0.115353
-0.113802
-0.112203
-0.110558
-0.10887
-0.107141
-0.105375
-0.103574
-0.10174
-0.0998772
-0.0979879
-0.0960749
-0.094141
-0.092189
-0.0902217
-0.0882418
-0.0862519
-0.0842548
-0.082253
-0.0802491
-0.0782454
-0.0762443
-0.0742482
-0.0722591
-0.0702793
-0.0683107
-0.0663552
-0.0644147
-0.0624907
-0.0605848
-0.0586986
-0.0568334
-0.0549903
-0.0531705
-0.0513751
-0.0496048
-0.0478604
-0.0461427
-0.0444522
-0.0427893
-0.0411543
-0.0395476
-0.0379692
-0.0364193
-0.0348977
-0.0334044
-0.0319392
-0.0305018
-0.0290918
-0.0277088
-0.0263524
-0.0250219
-0.0237168
-0.0224363
-0.0211798
-0.0199466
-0.0187357
-0.0175463
-0.0163775
-0.0152285
-0.0140981
-0.0129857
-0.0118896
-0.0108097
-0.00974365
-0.0086923
-0.00765145
-0.00662493
-0.00560365
-0.004599
-0.00358921
-0.00260418
-0.00158729
-0.000607912
-0.127003
-0.126361
-0.125643
-0.12485
-0.123985
-0.123049
-0.122045
-0.120974
-0.119839
-0.118642
-0.117385
-0.116071
-0.114702
-0.11328
-0.111808
-0.110288
-0.108723
-0.107116
-0.105468
-0.103783
-0.102063
-0.100312
-0.0985306
-0.0967228
-0.0948909
-0.0930376
-0.0911656
-0.0892774
-0.0873756
-0.0854627
-0.0835412
-0.0816137
-0.0796823
-0.0777495
-0.0758174
-0.0738883
-0.0719642
-0.0700471
-0.0681389
-0.0662414
-0.0643563
-0.0624853
-0.0606297
-0.0587912
-0.0569708
-0.0551699
-0.0533895
-0.0516306
-0.0498941
-0.0481808
-0.0464913
-0.0448262
-0.043186
-0.0415711
-0.0399817
-0.0384181
-0.0368803
-0.0353684
-0.0338824
-0.032422
-0.0309871
-0.0295775
-0.0281926
-0.0268323
-0.0254959
-0.0241829
-0.0228928
-0.0216249
-0.0203786
-0.019153
-0.0179476
-0.0167613
-0.0155935
-0.0144431
-0.0133095
-0.0121913
-0.0110883
-0.00999828
-0.00892226
-0.00785604
-0.00680364
-0.00575591
-0.00472456
-0.00368755
-0.00267542
-0.0016306
-0.000623898
-0.124293
-0.123706
-0.123044
-0.122309
-0.121503
-0.120627
-0.119685
-0.118678
-0.117607
-0.116476
-0.115286
-0.11404
-0.11274
-0.111388
-0.109987
-0.108539
-0.107046
-0.105511
-0.103937
-0.102326
-0.10068
-0.0990017
-0.0972942
-0.0955598
-0.093801
-0.0920203
-0.0902202
-0.0884032
-0.0865717
-0.084728
-0.0828747
-0.0810139
-0.0791479
-0.0772789
-0.075409
-0.0735403
-0.0716747
-0.0698142
-0.0679605
-0.0661153
-0.0642804
-0.0624573
-0.0606473
-0.058852
-0.0570724
-0.0553099
-0.0535653
-0.0518399
-0.0501343
-0.0484493
-0.0467858
-0.0451442
-0.043525
-0.0419286
-0.0403555
-0.0388057
-0.0372795
-0.035777
-0.0342981
-0.0328427
-0.0314107
-0.0300019
-0.0286161
-0.0272528
-0.0259116
-0.0245922
-0.023294
-0.0220164
-0.0207588
-0.0195207
-0.0183012
-0.0170997
-0.0159155
-0.0147476
-0.0135954
-0.0124577
-0.0113344
-0.0102233
-0.00912554
-0.00803693
-0.00696166
-0.00589056
-0.00483561
-0.00377451
-0.00273842
-0.0016689
-0.000638016
-0.121841
-0.121303
-0.120691
-0.120007
-0.119254
-0.118434
-0.117547
-0.116597
-0.115585
-0.114513
-0.113384
-0.112199
-0.110961
-0.109672
-0.108335
-0.106951
-0.105523
-0.104054
-0.102545
-0.101
-0.0994197
-0.0978078
-0.0961663
-0.0944977
-0.0928044
-0.0910887
-0.089353
-0.0875997
-0.0858311
-0.0840495
-0.0822571
-0.0804562
-0.0786487
-0.0768369
-0.0750227
-0.0732082
-0.0713951
-0.0695854
-0.0677806
-0.0659826
-0.0641928
-0.0624128
-0.0606439
-0.0588875
-0.0571448
-0.0554169
-0.0537048
-0.0520096
-0.0503321
-0.0486731
-0.0470331
-0.045413
-0.0438131
-0.0422339
-0.0406758
-0.039139
-0.0376237
-0.03613
-0.0346579
-0.0332076
-0.0317787
-0.0303713
-0.028985
-0.0276195
-0.0262747
-0.0249499
-0.0236449
-0.0223591
-0.021092
-0.019843
-0.0186114
-0.0173967
-0.0161982
-0.015015
-0.0138467
-0.012692
-0.0115509
-0.0104213
-0.00930439
-0.0081961
-0.00710074
-0.00600907
-0.00493335
-0.00385106
-0.00279386
-0.0017026
-0.000650425
-0.119143
-0.118576
-0.117939
-0.117233
-0.116461
-0.115625
-0.114725
-0.113765
-0.112747
-0.111671
-0.110541
-0.109359
-0.108127
-0.106846
-0.10552
-0.10415
-0.102739
-0.101289
-0.0998019
-0.0982809
-0.0967279
-0.0951453
-0.0935353
-0.0919002
-0.0902424
-0.0885641
-0.0868675
-0.085155
-0.0834286
-0.0816904
-0.0799427
-0.0781874
-0.0764265
-0.074662
-0.0728957
-0.0711295
-0.069365
-0.0676039
-0.0658479
-0.0640985
-0.062357
-0.0606249
-0.0589034
-0.0571937
-0.0554969
-0.053814
-0.0521461
-0.0504939
-0.0488582
-0.0472397
-0.045639
-0.0440567
-0.0424931
-0.0409488
-0.0394239
-0.0379186
-0.0364333
-0.0349678
-0.0335223
-0.0320966
-0.0306908
-0.0293045
-0.0279376
-0.0265898
-0.0252608
-0.0239501
-0.0226574
-0.0213822
-0.0201239
-0.018882
-0.0176559
-0.0164451
-0.0152486
-0.0140663
-0.0128967
-0.0117401
-0.0105944
-0.00946081
-0.00833534
-0.00722241
-0.00611277
-0.00501888
-0.00391805
-0.00284237
-0.00173208
-0.000661269
-0.11722
-0.116692
-0.116096
-0.115433
-0.114704
-0.113912
-0.113057
-0.112143
-0.111172
-0.110144
-0.109063
-0.10793
-0.106747
-0.105517
-0.104241
-0.102923