/*--------------------------------*- C++ -*----------------------------------*\
  =========                 |
  \\      /  F ield         | OpenFOAM: The Open Source CFD Toolbox
   \\    /   O peration     | Website:  https://openfoam.org
    \\  /    A nd           | Version:  7
     \\/     M anipulation  |
\*---------------------------------------------------------------------------*/
FoamFile
{
    version     2.0;
    format      ascii;
    class       surfaceScalarField;
    location    "25";
    object      phi;
}
// * * * * * * * * * * * * * * * * * * * * * * * * * * * * * * * * * * * * * //

dimensions      [0 3 -1 0 0 0 0];

internalField   nonuniform List<scalar> 
6868
(
-0.00294398
-5.55528e-06
-0.00293552
-8.46239e-06
-0.0029239
-1.16158e-05
-0.00290888
-1.50107e-05
-0.00289023
-1.86446e-05
-0.00286772
-2.25147e-05
-0.00284109
-2.66169e-05
-0.00281014
-3.09452e-05
-0.00277465
-3.54917e-05
-0.0027344
-4.0246e-05
-0.00268919
-4.51956e-05
-0.00263886
-5.03255e-05
-0.00258324
-5.56188e-05
-0.00252218
-6.10563e-05
-0.00245555
-6.66168e-05
-0.00238327
-7.22762e-05
-0.00230526
-7.80065e-05
-0.00222148
-8.37777e-05
-0.0021319
-8.95764e-05
-0.0020365
-9.53953e-05
-0.00193544
-0.000101049
-0.0018288
-0.000106641
-0.00171665
-0.000112144
-0.00159913
-0.00011752
-0.00147639
-0.000122741
-0.00134861
-0.000127779
-0.001216
-0.000132606
-0.0010788
-0.000137197
-0.000937285
-0.000141519
-0.000791737
-0.000145549
-0.000642258
-0.000149481
-0.000489414
-0.000152846
-0.000333493
-0.000155924
-0.000174798
-0.000158698
-1.36625e-05
-0.00016114
0.0001495
-0.000163167
0.000314418
-0.000164922
0.000480744
-0.000166332
0.000648135
-0.000167396
0.000816255
-0.000168126
0.000984779
-0.00016853
0.00115339
-0.000168619
0.00132179
-0.000168406
0.00148969
-0.000167905
0.00165682
-0.000167131
0.00182291
-0.000166101
0.00198774
-0.000164832
0.00215108
-0.000163341
0.00231272
-0.000161646
0.00247248
-0.000159766
0.00263019
-0.000157719
0.00278571
-0.000155522
0.0029389
-0.000153192
0.00308964
-0.000150748
0.00323784
-0.000148205
0.00338342
-0.000145578
0.0035263
-0.000142884
0.00366643
-0.000140135
0.00380378
-0.000137346
0.0039383
-0.000134528
0.00407
-0.000131693
0.00419885
-0.000128851
0.00432486
-0.000126013
0.00444805
-0.000123187
0.00456843
-0.000120382
0.00468603
-0.000117605
0.0048009
-0.000114862
0.00491306
-0.00011216
0.00502256
-0.000109503
0.00512946
-0.000106897
0.00523381
-0.000104345
0.00533566
-0.000101852
0.00543508
-9.94211e-05
0.00553214
-9.70552e-05
0.0056269
-9.47572e-05
0.00571943
-9.25295e-05
0.00580981
-9.03744e-05
0.0058981
-8.82939e-05
0.0059844
-8.62902e-05
0.00606876
-8.4365e-05
0.00615129
-8.25207e-05
0.00623205
-8.07588e-05
0.00631113
-7.90817e-05
0.00638863
-7.74934e-05
0.00646462
-7.59898e-05
0.00653922
-7.45943e-05
0.00661248
-7.32576e-05
-2.33398e-09
0.00668459
-7.21082e-05
-2.14567e-09
0.00675546
-7.08742e-05
-1.9576e-09
0.0068256
-7.01314e-05
-1.93124e-09
-6.88271e-05
-1.7575e-09
-0.0022757
-1.97363e-05
-0.0022587
-2.54694e-05
-0.00223867
-3.16428e-05
-0.00221542
-3.826e-05
-0.00218874
-4.53221e-05
-0.00215843
-5.2827e-05
-0.00212428
-6.07681e-05
-0.00208609
-6.91349e-05
-0.00204367
-7.79123e-05
-0.00199683
-8.70804e-05
-0.00194541
-9.6615e-05
-0.00188925
-0.000106487
-0.00182821
-0.000116665
-0.00176215
-0.00012711
-0.00169099
-0.000137781
-0.00161463
-0.000148635
-0.00153302
-0.00015962
-0.00144612
-0.000170678
-0.00135395
-0.000181744
-0.00125633
-0.00019302
-0.00115361
-0.000203768
-0.00104582
-0.000214427
-0.000933054
-0.00022491
-0.000815436
-0.000235138
-0.000693121
-0.000245057
-0.000566288
-0.000254611
-0.000435142
-0.000263752
-0.000299904
-0.000272435
-0.000160792
-0.000280631
-1.80462e-05
-0.000288295
0.000127551
-0.000295078
0.000276174
-0.00030147
0.000427488
-0.000307238
0.000581137
-0.000312347
0.000736785
-0.000316787
0.000894159
-0.000320541
0.00105287
-0.000323634
0.0012126
-0.000326059
0.00137303
-0.000327824
0.00153384
-0.000328943
0.00169475
-0.000329432
0.00185544
-0.000329315
0.00201565
-0.000328617
0.00217512
-0.000327366
0.00233358
-0.000325594
0.00249081
-0.000323331
0.00264659
-0.000320613
0.00280072
-0.000317475
0.00295303
-0.000313952
0.00310334
-0.000310079
0.00325152
-0.000305892
0.00339742
-0.000301427
0.00354095
-0.000296717
0.00368199
-0.000291796
0.00382048
-0.000286694
0.00395635
-0.000281444
0.00408954
-0.000276072
0.00422001
-0.000270608
0.00434774
-0.000265075
0.00447271
-0.000259498
0.00459492
-0.000253899
0.00471436
-0.000248298
0.00483106
-0.000242713
0.00494504
-0.000237162
0.00505631
-0.00023166
0.00516493
-0.000226222
0.00527093
-0.000220859
0.00537435
-0.000215582
0.00547525
-0.000210402
0.00557368
-0.000205327
0.0056697
-0.000200365
0.00576337
-0.000195522
0.00585475
-0.000190806
0.00594392
-0.000186223
0.00603094
-0.000181776
0.00611588
-0.000177471
0.00619882
-0.000173311
0.00627982
-0.000169301
0.00635898
-0.000165444
0.00643636
-0.000161744
0.00651204
-0.000158203
0.00658611
-0.000154828
0.00665865
-0.000151619
0.00672974
-0.00014859
0.00679947
-0.000145721
0.00686796
-0.000143077
0.00693523
-0.000140535
0.0070015
-0.000138379
0.00706668
-0.000136051
0.00713122
-0.000134672
-0.000132296
-0.00108113
-0.00105059
-5.60102e-05
-0.00101728
-6.49492e-05
-0.000981058
-7.44855e-05
-0.000941756
-8.46242e-05
-0.000899219
-9.53644e-05
-0.000853288
-0.000106698
-0.000803811
-0.000118612
-0.000750638
-0.000131086
-0.000693627
-0.000144091
-0.000632647
-0.000157595
-0.000567579
-0.000171556
-0.000498314
-0.000185929
-0.000424763
-0.000200661
-0.000346848
-0.000215695
-0.000264515
-0.000230969
-0.000177717
-0.000246418
-8.64085e-05
-0.000261986
9.41472e-06
-0.000277567
0.000108991
-0.000292596
0.00021299
-0.000307767
0.000321266
-0.000322703
0.000433678
-0.000337322
0.000550087
-0.000351547
0.000670329
-0.000365298
0.000794214
-0.000378497
0.000921536
-0.000391074
0.00105207
-0.000402966
0.00118555
-0.000414115
0.00132171
-0.000424449
0.00146047
-0.000433841
0.00160138
-0.000442381
0.00174416
-0.000450021
0.00188853
-0.000456715
0.00203419
-0.000462447
0.00218086
-0.000467209
0.00232823
-0.000471007
0.00247602
-0.000473848
0.00262394
-0.000475746
0.00277172
-0.000476723
0.0029191
-0.000476808
0.00306582
-0.000476034
0.00321164
-0.000474439
0.00335634
-0.000472066
0.00349971
-0.000468962
0.00364155
-0.000465173
0.00378169
-0.000460751
0.00391996
-0.000455747
0.00405622
-0.000450213
0.00419034
-0.000444201
0.00432221
-0.000437762
0.00445173
-0.000430948
0.00457882
-0.000423808
0.00470341
-0.000416389
0.00482546
-0.000408737
0.00494491
-0.000400896
0.00506174
-0.000392906
0.00517594
-0.000384806
0.0052875
-0.000376631
0.00539642
-0.000368416
0.00550271
-0.000360192
0.0056064
-0.000351986
0.00570751
-0.000343825
0.00580608
-0.000335731
0.00590215
-0.000327727
0.00599575
-0.000319831
0.00608696
-0.000312061
0.00617581
-0.000304431
0.00626236
-0.000296956
0.00634668
-0.000289646
0.00642883
-0.000282512
0.00650887
-0.000275564
0.00658687
-0.000268809
0.0066629
-0.000262254
0.00673703
-0.000255908
0.00680934
-0.000249774
0.00687989
-0.000243859
0.00694875
-0.000238168
0.00701601
-0.000232705
0.00708175
-0.000227476
0.00714602
-0.000222483
0.00720893
-0.000217737
0.00727055
-0.000213231
0.00733095
-0.000208998
0.00739022
-0.000204991
0.00744848
-0.000201331
0.00750574
-0.000197799
0.00756222
-0.000194856
0.00761784
-0.000191668
0.00767297
-0.000189808
-0.000186688
0.000485548
-9.96421e-05
0.000531713
-0.000111115
0.0005805
-0.000123272
0.000631998
-0.000136122
0.000686299
-0.000149666
0.000743497
-0.000163897
0.000803683
-0.000178798
0.000866945
-0.000194347
0.000933365
-0.000210511
0.00100302
-0.000227249
0.00107598
-0.000244512
0.00115229
-0.000262242
0.001232
-0.000280374
0.00131514
-0.000298836
0.00140172
-0.000317547
0.00149173
-0.000336427
0.00158513
-0.000355388
0.00168186
-0.0003743
0.0017822
-0.000392931
0.0018858
-0.000411366
0.00199258
-0.000429484
0.00210242
-0.000447168
0.00221519
-0.000464318
0.00233074
-0.000480838
0.00244887
-0.000496634
0.00256941
-0.000511618
0.00269216
-0.000525707
0.00281687
-0.00053883
0.00294334
-0.000550915
0.00307138
-0.000561887
0.00320073
-0.000571726
0.00333111
-0.000580398
0.00346226
-0.000587874
0.00359395
-0.000594136
0.00372592
-0.00059918
0.00385793
-0.00060301
0.00398972
-0.000605642
0.00412107
-0.000607096
0.00425175
-0.000607406
0.00438155
-0.000606608
0.00451027
-0.000604749
0.00463771
-0.00060188
0.0047637
-0.000598057
0.00488808
-0.00059334
0.0050107
-0.000587791
0.00513142
-0.000581476
0.00525014
-0.000574462
0.00536674
-0.000566814
0.00548114
-0.0005586
0.00559326
-0.000549885
0.00570305
-0.000540733
0.00581044
-0.000531206
0.00591542
-0.000521365
0.00601795
-0.000511266
0.00611802
-0.000500963
0.00621562
-0.000490508
0.00631076
-0.000479949
0.00640346
-0.000469328
0.00649373
-0.000458689
0.00658161
-0.000448068
0.00666712
-0.0004375
0.00675031
-0.000427016
0.00683123
-0.000416645
0.00690991
-0.000406412
0.00698642
-0.00039634
0.00706081
-0.000386449
0.00713314
-0.000376758
0.00720346
-0.000367282
0.00727185
-0.000358034
0.00733837
-0.000349028
0.00740308
-0.000340274
0.00746605
-0.000331779
0.00752735
-0.000323554
0.00758704
-0.000315604
0.00764521
-0.000307937
0.00770191
-0.000300559
0.00775721
-0.000293475
0.0078112
-0.00028669
0.00786393
-0.000280213
0.00791549
-0.000274041
0.00796595
-0.000268196
0.00801538
-0.000262657
0.00806386
-0.000257482
0.00811146
-0.000252584
0.00815828
-0.000248156
0.00820435
-0.000243874
0.00824986
-0.000240362
0.00829476
-0.000236568
0.00833932
-0.00023437
-0.000230792
0.00217956
-0.000151151
0.00223352
-0.000165068
0.00228993
-0.000179683
0.00234881
-0.000195007
0.00241019
-0.000211044
0.00247408
-0.000227788
0.00254051
-0.000245224
0.00260949
-0.000263325
0.00268103
-0.000282059
0.00275516
-0.000301379
0.00283188
-0.000321232
0.00291119
-0.000341552
0.00299309
-0.000362267
0.00307754
-0.000383292
0.00316453
-0.000404537
0.00325401
-0.000425905
0.00334591
-0.000447289
0.00344018
-0.000468572
0.00353686
-0.000489609
0.00363581
-0.000510315
0.00373691
-0.00053058
0.00384002
-0.000550286
0.00394503
-0.000569322
0.00405177
-0.000587579
0.00416009
-0.000604951
0.00426981
-0.00062134
0.00438076
-0.000636654
0.00449274
-0.000650811
0.00460556
-0.00066374
0.00471905
-0.000675375
0.004833
-0.000685671
0.00494719
-0.000694592
0.00506143
-0.000702114
0.00517552
-0.000708224
0.00528926
-0.000712918
0.00540245
-0.000716209
0.00551493
-0.000718118
0.00562651
-0.000718675
0.00573702
-0.00071792
0.00584632
-0.000715904
0.00595425
-0.000712681
0.00606069
-0.000708316
0.00616551
-0.000702876
0.0062686
-0.000696433
0.00636987
-0.000689063
0.00646924
-0.000680843
0.00656663
-0.000671851
0.00666198
-0.000662165
0.00675524
-0.000651865
0.00684638
-0.000641025
0.00693537
-0.000629721
0.00702219
-0.000618024
0.00710683
-0.000606003
0.00718929
-0.000593725
0.00726957
-0.000581249
0.0073477
-0.000568636
0.00742369
-0.000555939
0.00749757
-0.000543207
0.00756937
-0.000530489
0.00763912
-0.000517825
0.00770688
-0.000505254
0.00777268
-0.000492812
0.00783656
-0.000480531
0.00789859
-0.000468437
0.0079588
-0.000456557
0.00801726
-0.000444912
0.00807403
-0.000433523
0.00812915
-0.000422406
0.00818269
-0.000411576
0.00823471
-0.000401047
0.00828527
-0.00039083
0.00833443
-0.000380935
0.00838224
-0.00037137
0.00842878
-0.000362142
0.0084741
-0.000353259
0.00851827
-0.000344725
0.00856134
-0.00033655
0.00860339
-0.000328735
0.00864447
-0.000321293
0.00868464
-0.000314217
0.00872399
-0.000307537
0.00876255
-0.000301219
0.00880041
-0.000295348
0.00883763
-0.000289796
0.00887429
-0.000284819
0.00891042
-0.000280008
0.00894617
-0.000276107
0.00898152
-0.000271922
0.00901665
-0.0002695
-0.000265653
0.00392439
0.00397789
-0.000218574
0.0040339
-0.000235687
0.00409234
-0.00025345
0.00415316
-0.000271869
0.00421631
-0.000290938
0.00428173
-0.000310643
0.00434937
-0.00033096
0.00441916
-0.000351853
0.00449106
-0.000373277
0.004565
-0.000395175
0.00464093
-0.000417479
0.00471878
-0.000440113
0.00479847
-0.000462988
0.00487995
-0.00048601
0.00496311
-0.000509073
0.00504789
-0.000532064
0.00513418
-0.000554865
0.00522192
-0.000577346
0.00531099
-0.000599388
0.00540128
-0.000620869
0.00549266
-0.000641668
0.005585
-0.000661664
0.00567817
-0.000680743
0.00577201
-0.000698794
0.00586638
-0.000715714
0.00596114
-0.000731406
0.00605612
-0.00074579
0.00615117
-0.000758792
0.00624615
-0.000770353
0.0063409
-0.000780424
0.00643528
-0.000788972
0.00652914
-0.000795976
0.00662234
-0.000801428
0.00671476
-0.000805332
0.00680626
-0.000807708
0.00689672
-0.000808583
0.00698604
-0.000807996
0.00707412
-0.000805998
0.00716086
-0.000802646
0.00724619
-0.000798006
0.00733002
-0.00079215
0.0074123
-0.000785156
0.00749297
-0.000777104
0.00757199
-0.00076808
0.00764932
-0.000758168
0.00772492
-0.000747456
0.00779879
-0.000736029
0.00787089
-0.000723973
0.00794124
-0.000711371
0.00800982
-0.000698303
0.00807665
-0.000684848
0.00814172
-0.000671079
0.00820506
-0.000657068
0.00826669
-0.000642879
0.00832663
-0.000628576
0.00838491
-0.000614215
0.00844155
-0.000599851
0.0084966
-0.000585532
0.00855008
-0.000571304
0.00860203
-0.000557206
0.00865249
-0.000543277
0.00870151
-0.000529548
0.00874913
-0.00051605
0.00879538
-0.000502809
0.00884032
-0.000489848
0.00888398
-0.000477188
0.00892642
-0.000464847
0.00896769
-0.00045284
0.00900782
-0.00044118
0.00904687
-0.00042988
0.00908488
-0.00041895
0.00912191
-0.000408399
0.009158
-0.000398234
0.00919321
-0.000388463
0.00922757
-0.000379089
0.00926115
-0.000370124
0.00929398
-0.000361567
0.00932612
-0.000353436
0.00935762
-0.000345717
0.00938854
-0.000338453
0.00941891
-0.000331592
0.00944881
-0.000325244
0.00947826
-0.000319248
0.00950735
-0.000313908
0.0095361
-0.000308756
0.0095646
-0.000304609
0.00959287
-0.00030019
0.009621
-0.000297635
-0.000293635
0.0056786
0.00572564
-0.000282732
0.00577522
-0.000303024
0.00582719
-0.000323846
0.00588145
-0.000345193
0.00593786
-0.000367054
0.0059963
-0.000389404
0.00605666
-0.000412208
0.0061188
-0.000435423
0.00618262
-0.000458992
0.00624799
-0.000482848
0.00631479
-0.000506913
0.0063829
-0.0005311
0.0064522
-0.000555313
0.00652258
-0.000579445
0.0065939
-0.000603387
0.00666605
-0.000627018
0.00673892
-0.000650217
0.0068124
-0.00067286
0.00688635
-0.000694825
0.00696067
-0.00071599
0.00703524
-0.000736235
0.00710995
-0.000755444
0.00718466
-0.000773505
0.00725926
-0.000790315
0.00733363
-0.000805783
0.00740768
-0.000819832
0.00748128
-0.000832395
0.00755435
-0.000843419
0.00762678
-0.000852859
0.0076985
-0.000860688
0.00776941
-0.000866891
0.00783945
-0.000871466
0.00790854
-0.000874426
0.00797663
-0.000875798
0.00804367
-0.000875617
0.0081096
-0.00087393
0.0081744
-0.000870792
0.00823802
-0.000866268
0.00830044
-0.00086043
0.00836165
-0.000853356
0.00842162
-0.00084513
0.00848035
-0.000835836
0.00853784
-0.000825565
0.00859407
-0.000814405
0.00864906
-0.000802447
0.00870282
-0.000789781
0.00875534
-0.000776494
0.00880664
-0.000762672
0.00885674
-0.000748399
0.00890564
-0.000733754
0.00895337
-0.000718812
0.00899995
-0.000703646
0.0090454
-0.000688324
0.00908973
-0.000672907
0.00913297
-0.000657456
0.00917514
-0.000642025
0.00921627
-0.000626663
0.00925639
-0.000611416
0.00929551
-0.000596326
0.00933366
-0.00058143
0.00937087
-0.000566763
0.00940718
-0.000552353
0.0094426
-0.000538228
0.00947716
-0.000524413
0.0095109
-0.000510927
0.00954384
-0.00049779
0.00957602
-0.000485017
0.00960746
-0.000472622
0.0096382
-0.000460619
0.00966827
-0.000449017
0.00969769
-0.000437826
0.00972651
-0.000427054
0.00975476
-0.000416709
0.00978246
-0.000406794
0.00980966
-0.000397323
0.00983639
-0.000388292
0.00986268
-0.000379725
0.00988856
-0.000371602
0.00991408
-0.000363974
0.00993927
-0.000356778
0.00996417
-0.000350143
0.0099888
-0.000343883
0.0100132
-0.000338334
0.0100375
-0.000332989
0.0100616
-0.00032871
0.0100855
-0.00032417
0.0101095
-0.00032155
-0.000317469
0.00726172
-0.000314284
0.00729587
-0.000337174
0.00733244
-0.000360414
0.00737125
-0.000384002
0.00741212
-0.000407928
0.00745489
-0.00043217
0.00749938
-0.000456697
0.00754542
-0.000481468
0.00759286
-0.000506429
0.00764152
-0.000531516
0.00769127
-0.000556657
0.00774193
-0.000581767
0.00779338
-0.000606754
0.00784545
-0.000631519
0.00789802
-0.000655955
0.00795095
-0.00067995
0.00800412
-0.000703389
0.00805742
-0.000726154
0.00811072
-0.000748129
0.00816393
-0.000769198
0.00821694
-0.000789251
0.00826968
-0.000808179
0.00832206
-0.000825882
0.00837401
-0.000842266
0.00842547
-0.000857245
0.00847638
-0.000870746
0.0085267
-0.000882713
0.00857638
-0.000893098
0.00862539
-0.000901864
0.00867369
-0.000908991
0.00872126
-0.000914467
0.0087681
-0.000918299
0.00881418
-0.000920507
0.0088595
-0.000921123
0.00890407
-0.000920187
0.00894789
-0.00091775
0.00899097
-0.000913869
0.00903332
-0.000908614
0.00907495
-0.000902058
0.00911587
-0.00089428
0.0091561
-0.000885364
0.00919567
-0.000875398
0.00923457
-0.000864469
0.00927283
-0.000852667
0.00931047
-0.000840082
0.00934749
-0.000826803
0.00938391
-0.000812918
0.00941975
-0.00079851
0.00945501
-0.000783662
0.00948971
-0.000768453
0.00952386
-0.000752958
0.00955746
-0.000737247
0.00959053
-0.000721389
0.00962306
-0.000705446
0.00965508
-0.000689476
0.00968659
-0.000673534
0.0097176
-0.000657669
0.00974811
-0.000641927
0.00977814
-0.000626351
0.00980768
-0.000610977
0.00983676
-0.00059584
0.00986538
-0.000580971
0.00989355
-0.000566397
0.00992128
-0.000552142
0.00994858
-0.000538229
0.00997547
-0.000524677
0.010002
-0.000511502
0.010028
-0.00049872
0.0100538
-0.000486343
0.0100791
-0.000474382
0.0101042
-0.00046285
0.0101289
-0.000451752
0.0101533
-0.0004411
0.0101774
-0.000430898
0.0102012
-0.000421158
0.0102248
-0.000411877
0.0102481
-0.000403083
0.0102713
-0.00039475
0.0102942
-0.000386938
0.010317
-0.000379575
0.0103397
-0.000372802
0.0103622
-0.000366418
0.0103847
-0.000360778
0.010407
-0.000355351
0.0104294
-0.000351025
0.0104516
-0.00034644
0.0104739
-0.000343804
-0.000339684
0.00850692
0.00852355
-0.000353797
0.00854239
-0.000379261
0.00856327
-0.000404875
0.00858597
-0.000430633
0.00861032
-0.000456519
0.00863613
-0.000482506
0.00866322
-0.000508557
0.00869142
-0.000534627
0.00872056
-0.000560657
0.00875048
-0.000586582
0.00878104
-0.000612325
0.00881209
-0.000637802
0.00884349
-0.000662922
0.00887513
-0.000687588
0.00890688
-0.0007117
0.00893864
-0.000735151
0.00897032
-0.000757837
0.00900184
-0.000779652
0.00903314
-0.000800491
0.00906414
-0.000820254
0.00909481
-0.000838846
0.0091251
-0.000856179
0.00915501
-0.00087217
0.00918451
-0.000886751
0.00921363
-0.000899858
0.00924235
-0.000911435
0.00927069
-0.000921439
0.00929866
-0.000929837
0.00932628
-0.000936612
0.00935357
-0.000941756
0.00938055
-0.000945281
0.00940726
-0.000947211
0.00943371
-0.000947579
0.00945995
-0.000946427
0.00948601
-0.000943803
0.0095119
-0.000939766
0.00953767
-0.000934382
0.00956334
-0.000927724
0.00958892
-0.000919867
0.00961445
-0.000910892
0.00963994
-0.000900884
0.0096654
-0.000889928
0.00969084
-0.00087811
0.00971627
-0.000865517
0.00974171
-0.000852235
0.00976714
-0.000838348
0.00979257
-0.000823939
0.00981799
-0.000809088
0.00984341
-0.00079387
0.00986881
-0.00077836
0.00989419
-0.000762628
0.00991954
-0.000746739
0.00994485
-0.000730756
0.00997011
-0.000714737
0.00999531
-0.000698735
0.0100204
-0.0006828
0.0100455
-0.00066698
0.0100705
-0.000651315
0.0100953
-0.000635844
0.0101201
-0.000620603
0.0101447
-0.000605624
0.0101693
-0.000590933
0.0101937
-0.000576558
0.010218
-0.00056252
0.0102422
-0.000548841
0.0102662
-0.000535538
0.0102901
-0.000522628
0.0103139
-0.000510124
0.0103375
-0.000498039
0.0103611
-0.000486386
0.0103845
-0.000475173
0.0104078
-0.000464411
0.010431
-0.000454105
0.0104541
-0.00044427
0.0104771
-0.000434903
0.0105001
-0.000426032
0.010523
-0.000417631
0.0105458
-0.000409764
0.0105686
-0.000402353
0.0105913
-0.000395547
0.010614
-0.000389135
0.0106367
-0.000383484
0.0106594
-0.000378046
0.0106821
-0.000373729
0.0107049
-0.000369143
0.0107276
-0.00036653
-0.000362401
0.00934863
-0.000354406
0.00935114
-0.000381774
0.00935538
-0.000409116
0.00936118
-0.000436428
0.00936836
-0.000463699
0.00937676
-0.000490907
0.00938623
-0.000518022
0.0093966
-0.000545004
0.00940775
-0.000571805
0.00941953
-0.000598365
0.00943183
-0.00062462
0.00944452
-0.000650495
0.00945751
-0.000675911
0.00947071
-0.000700781
0.00948402
-0.000725017
0.0094974
-0.000748525
0.00951077
-0.000771212
0.00952411
-0.000792985
0.00953737
-0.000813751
0.00955054
-0.000833422
0.0095636
-0.000851913
0.00957657
-0.000869146
0.00958945
-0.000885047
0.00960225
-0.000899553
0.009615
-0.000912611
0.00962774
-0.000924174
0.00964051
-0.000934206
0.00965335
-0.000942683
0.00966633
-0.000949591
0.0096795
-0.000954928
0.00969292
-0.0009587
0.00970663
-0.000960921
0.00972067
-0.00096162
0.00973508
-0.000960832
0.00974988
-0.000958605
0.00976511
-0.000954992
0.00978078
-0.000950054
0.00979691
-0.000943857
0.00981352
-0.000936475
0.00983061
-0.000927983
0.00984819
-0.000918461
0.00986625
-0.000907989
0.00988479
-0.00089665
0.0099038
-0.000884527
0.00992327
-0.000871702
0.00994318
-0.000858258
0.00996351
-0.000844274
0.00998425
-0.000829827
0.0100054
-0.000814993
0.0100269
-0.000799845
0.0100487
-0.00078445
0.0100708
-0.000768875
0.0100932
-0.000753181
0.0101159
-0.000737427
0.0101389
-0.000721667
0.010162
-0.000705951
0.0101854
-0.000690326
0.0102089
-0.000674837
0.0102326
-0.000659521
0.0102564
-0.000644416
0.0102803
-0.000629554
0.0103043
-0.000614966
0.0103285
-0.000600678
0.0103526
-0.000586715
0.0103769
-0.000573098
0.0104012
-0.000559847
0.0104256
-0.000546979
0.01045
-0.000534512
0.0104744
-0.000522456
0.0104988
-0.000510828
0.0105233
-0.000499636
0.0105478
-0.000488894
0.0105723
-0.000478605
0.0105968
-0.000468789
0.0106213
-0.00045944
0.0106459
-0.00045059
0.0106705
-0.000442211
0.0106951
-0.000434369
0.0107197
-0.000426983
0.0107443
-0.000420208
0.010769
-0.000413826
0.0107938
-0.000408211
0.0108185
-0.000402802
0.0108433
-0.000398521
0.0108681
-0.000393955
0.010893
-0.000391375
-0.000387266
0.0151021
-0.000337495
0.0150863
-0.000365962
0.0150714
-0.000394231
0.0150572
-0.000422294
0.0150437
-0.000450135
0.0150305
-0.000477733
0.0150175
-0.000505057
0.0150046
-0.000532068
0.0149915
-0.000558724
0.0149781
-0.000584972
0.0149643
-0.000610755
0.0149498
-0.00063601
0.0149345
-0.000660669
0.0149184
-0.00068466
0.0149013
-0.000707909
0.0148831
-0.000730342
0.0148638
-0.000751882
0.0148433
-0.000772453
0.0148215
-0.000791984
0.0147985
-0.000810403
0.0147742
-0.000827645
0.0147487
-0.000843649
0.014722
-0.000858362
0.0146942
-0.000871734
0.0146653
-0.000883726
0.0146354
-0.000894306
0.0146047
-0.000903451
0.0145732
-0.000911144
0.0145409
-0.000917379
0.0145082
-0.000922159
0.014475
-0.000925499
0.0144415
-0.000927417
0.0144078
-0.00092794
0.0143741
-0.000927106
0.0143404
-0.000924956
0.014307
-0.000921541
0.0142738
-0.000916916
0.0142411
-0.000911142
0.0142089
-0.000904283
0.0141773
-0.000896408
0.0141465
-0.000887587
0.0141164
-0.000877892
0.0140871
-0.000867398
0.0140588
-0.000856179
0.0140314
-0.000844307
0.014005
-0.000831856
0.0139796
-0.000818898
0.0139553
-0.000805502
0.013932
-0.000791736
0.0139098
-0.000777666
0.0138887
-0.000763354
0.0138687
-0.000748859
0.0138498
-0.000734239
0.0138319
-0.000719546
0.0138151
-0.000704831
0.0137993
-0.000690141
0.0137844
-0.000675519
0.0137706
-0.000661007
0.0137577
-0.000646641
0.0137458
-0.000632457
0.0137347
-0.000618485
0.0137245
-0.000604756
0.0137151
-0.000591294
0.0137065
-0.000578125
0.0136987
-0.00056527
0.0136916
-0.000552749
0.0136852
-0.00054058
0.0136795
-0.000528779
0.0136744
-0.00051736
0.0136699
-0.000506338
0.013666
-0.000495723
0.0136626
-0.000485531
0.0136598
-0.000475765
0.0136574
-0.000466445
0.0136555
-0.000457566
0.0136541
-0.00044916
0.0136531
-0.0004412
0.0136525
-0.000433753
0.0136522
-0.000426739
0.0136523
-0.000420306
0.0136528
-0.000414246
0.0136535
-0.000408917
0.0136544
-0.000403777
0.0136556
-0.000399715
0.013657
-0.000395357
0.0136586
-0.000392913
-0.000388967
0.0159714
-0.000312456
0.0159463
-0.000340876
0.0159211
-0.000369008
0.0158956
-0.00039684
0.0158698
-0.000424352
0.0158436
-0.000451521
0.0158169
-0.000478317
0.0157895
-0.000504704
0.0157614
-0.000530641
0.0157325
-0.000556082
0.0157028
-0.000580978
0.015672
-0.000605274
0.0156403
-0.000628913
0.0156074
-0.000651833
0.0155735
-0.000673975
0.0155384
-0.000695275
0.0155022
-0.000715672
0.0154649
-0.000735105
0.0154264
-0.000753515
0.0153869
-0.000770846
0.0153463
-0.000787045
0.0153047
-0.000802066
0.0152622
-0.000815866
0.0152189
-0.000828409
0.0151748
-0.000839664
0.0151301
-0.000849608
0.0150849
-0.000858225
0.0150392
-0.000865506
0.0149933
-0.000871449
0.0149472
-0.000876062
0.0149011
-0.000879356
0.014855
-0.000881354
0.0148091
-0.000882081
0.0147636
-0.00088157
0.0147185
-0.00087986
0.014674
-0.000876996
0.0146301
-0.000873028
0.0145869
-0.00086801
0.0145447
-0.000861997
0.0145033
-0.000855051
0.0144629
-0.000847234
0.0144237
-0.000838609
0.0143855
-0.000829242
0.0143485
-0.000819198
0.0143128
-0.000808541
0.0142782
-0.000797338
0.014245
-0.000785651
0.014213
-0.000773542
0.0141824
-0.000761074
0.014153
-0.000748303
0.0141249
-0.000735287
0.0140982
-0.00072208
0.0140727
-0.000708733
0.0140484
-0.000695296
0.0140254
-0.000681814
0.0140036
-0.000668331
0.013983
-0.000654889
0.0139635
-0.000641524
0.0139451
-0.000628273
0.0139278
-0.000615169
0.0139116
-0.000602241
0.0138963
-0.000589519
0.0138821
-0.000577028
0.0138687
-0.000564792
0.0138563
-0.000552832
0.0138447
-0.000541169
0.013834
-0.00052982
0.013824
-0.000518803
0.0138148
-0.000508132
0.0138062
-0.000497823
0.0137984
-0.000487886
0.0137912
-0.000478338
0.0137846
-0.000469183
0.0137786
-0.000460441
0.0137732
-0.000452109
0.0137682
-0.000444217
0.0137638
-0.000436742
0.0137598
-0.000429746
0.0137562
-0.000423154
0.013753
-0.000417108
0.0137501
-0.000411406
0.0137476
-0.000406393
0.0137454
-0.000401547
0.0137434
-0.000397721
0.0137416
-0.000393589
0.01374
-0.00039128
-0.000387419
0.0163259
-0.000287361
0.0163
-0.000314956
0.0162732
-0.00034222
0.0162455
-0.000369136
0.0162168
-0.000395684
0.0161871
-0.000421841
0.0161564
-0.000447577
0.0161245
-0.000472861
0.0160916
-0.000497654
0.0160574
-0.000521917
0.016022
-0.000545606
0.0159854
-0.000568673
0.0159476
-0.00059107
0.0159085
-0.000612747
0.0158682
-0.000633651
0.0158266
-0.000653732
0.0157839
-0.000672938
0.01574
-0.000691219
0.015695
-0.000708528
0.015649
-0.000724818
0.015602
-0.000740049
0.0155541
-0.000754183
0.0155054
-0.000767185
0.015456
-0.000779027
0.0154061
-0.000789687
0.0153556
-0.000799147
0.0153048
-0.000807395
0.0152537
-0.000814425
0.0152025
-0.00082024
0.0151513
-0.000824846
0.0151002
-0.000828255
0.0150493
-0.000830487
0.0149988
-0.000831566
0.0149487
-0.000831521
0.0148993
-0.000830387
0.0148505
-0.000828203
0.0148025
-0.000825012
0.0147553
-0.000820861
0.0147091
-0.000815799
0.0146639
-0.000809879
0.0146199
-0.000803154
0.0145769
-0.000795681
0.0145352
-0.000787517
0.0144947
-0.000778717
0.0144555
-0.00076934
0.0144176
-0.000759444
0.0143811
-0.000749083
0.0143458
-0.000738313
0.014312
-0.00072719
0.0142794
-0.000715764
0.0142482
-0.000704088
0.0142183
-0.00069221
0.0141898
-0.000680177
0.0141625
-0.000668034
0.0141365
-0.000655823
0.0141118
-0.000643586
0.0140883
-0.000631359
0.0140659
-0.000619179
0.0140447
-0.000607079
0.0140246
-0.000595091
0.0140056
-0.000583244
0.0139877
-0.000571565
0.0139707
-0.00056008
0.0139548
-0.000548812
0.0139397
-0.000537781
0.0139256
-0.00052701
0.0139123
-0.000516515
0.0138998
-0.000506314
0.0138881
-0.000496423
0.0138771
-0.000486856
0.0138668
-0.000477626
0.0138572
-0.000468748
0.0138483
-0.000460229
0.0138399
-0.000452088
0.0138321
-0.000444323
0.0138249
-0.000436964
0.0138181
-0.000429988
0.0138118
-0.000423455
0.013806
-0.000417295
0.0138005
-0.000411642
0.0137954
-0.000406303
0.0137906
-0.000401608
0.0137861
-0.000397053
0.0137819
-0.000393459
0.0137778
-0.000389538
0.0137739
-0.000387357
-0.000383652
0.0164076
-0.000264182
0.0163832
-0.000290584
0.0163576
-0.000316632
0.0163308
-0.000342309
0.0163027
-0.000367594
0.0162733
-0.000392466
0.0162426
-0.000416899
0.0162106
-0.000440861
0.0161773
-0.000464321
0.0161426
-0.000487243
0.0161066
-0.000509589
0.0160693
-0.00053132
0.0160306
-0.000552393
0.0159906
-0.000572767
0.0159493
-0.000592398
0.0159069
-0.000611244
0.0158632
-0.000629262
0.0158184
-0.000646411
0.0157725
-0.000662652
0.0157256
-0.000677947
0.0156778
-0.000692264
0.0156292
-0.000705571
0.0155799
-0.000717841
0.0155299
-0.000729052
0.0154794
-0.000739185
0.0154285
-0.000748227
0.0153773
-0.000756169
0.0153258
-0.000763009
0.0152743
-0.000768746
0.0152229
-0.00077339
0.0151716
-0.00077695
0.0151205
-0.000779444
0.0150699
-0.000780893
0.0150197
-0.000781322
0.01497
-0.000780763
0.0149211
-0.000779247
0.0148729
-0.000776813
0.0148255
-0.000773501
0.0147791
-0.000769354
0.0147336
-0.000764416
0.0146892
-0.000758735
0.0146459
-0.000752359
0.0146037
-0.000745338
0.0145627
-0.000737721
0.0145229
-0.000729559
0.0144844
-0.000720903
0.0144471
-0.000711801
0.0144111
-0.000702304
0.0143764
-0.000692459
0.0143429
-0.000682313
0.0143107
-0.000671913
0.0142798
-0.000661303
0.0142502
-0.000650525
0.0142218
-0.000639621
0.0141946
-0.000628629
0.0141686
-0.000617588
0.0141437
-0.000606531
0.0141201
-0.000595494
0.0140975
-0.000584507
0.014076
-0.0005736
0.0140555
-0.000562802
0.0140361
-0.000552138
0.0140177
-0.000541634
0.0140002
-0.00053131
0.0139836
-0.00052119
0.0139679
-0.000511293
0.013953
-0.000501636
0.0139389
-0.000492238
0.0139256
-0.000483114
0.013913
-0.000474279
0.0139011
-0.000465746
0.0138899
-0.00045753
0.0138793
-0.000449638
0.0138693
-0.00044209
0.0138599
-0.000434883
0.013851
-0.000428048
0.0138426
-0.000421563
0.0138346
-0.000415485
0.013827
-0.000409746
0.0138199
-0.000404477
0.0138131
-0.00039949
0.0138066
-0.000395103
0.0138003
-0.000390827
0.0137943
-0.000387457
0.0137885
-0.000383744
0.0137829
-0.000381691
-0.000378125
0.0163715
-0.00024288
0.0163489
-0.000267971
0.016325
-0.000292695
0.0162997
-0.000317036
0.0162731
-0.000340975
0.0162451
-0.000364491
0.0162158
-0.000387561
0.0161851
-0.000410159