/*--------------------------------*- C++ -*----------------------------------*\
  =========                 |
  \\      /  F ield         | OpenFOAM: The Open Source CFD Toolbox
   \\    /   O peration     | Website:  https://openfoam.org
    \\  /    A nd           | Version:  7
     \\/     M anipulation  |
\*---------------------------------------------------------------------------*/
FoamFile
{
    version     2.0;
    format      ascii;
    class       volVectorField;
    location    "25";
    object      U;
}
// * * * * * * * * * * * * * * * * * * * * * * * * * * * * * * * * * * * * * //

dimensions      [0 1 -1 0 0 0 0];

internalField   nonuniform List<vector> 
3500
(
(-0.256671 -7.12292e-05 2.17766e-20)
(-0.256274 -0.000288869 -2.27347e-20)
(-0.255613 -0.000524348 9.56742e-21)
(-0.254663 -0.000777452 1.18049e-20)
(-0.253405 -0.00104808 -2.12479e-20)
(-0.251815 -0.0013361 2.48523e-20)
(-0.249874 -0.00164125 -2.4351e-20)
(-0.247559 -0.00196317 2.90258e-20)
(-0.244851 -0.00230127 -1.32343e-20)
(-0.24173 -0.00265483 -5.12472e-21)
(-0.238177 -0.00302294 9.24076e-22)
(-0.234174 -0.0034045 7.73919e-21)
(-0.229705 -0.00379823 4.47753e-21)
(-0.224756 -0.00420268 7.43267e-23)
(-0.219313 -0.00461619 -1.18362e-20)
(-0.213366 -0.00503681 -1.32126e-21)
(-0.206906 -0.0054622 -3.71774e-21)
(-0.199926 -0.00588978 7.8758e-21)
(-0.192422 -0.00631766 -6.67705e-22)
(-0.18439 -0.00674585 8.24597e-21)
(-0.175837 -0.00716683 -1.56988e-20)
(-0.166771 -0.00758388 7.88034e-21)
(-0.157198 -0.00799406 5.80102e-22)
(-0.147125 -0.0083948 -1.28467e-20)
(-0.136563 -0.00878395 6.25403e-21)
(-0.125528 -0.00915943 2.79332e-21)
(-0.114034 -0.00951924 1.56003e-21)
(-0.102101 -0.00986137 -3.47391e-21)
(-0.0897516 -0.0101834 2.96698e-22)
(-0.0770104 -0.0104878 1.04234e-20)
(-0.0638875 -0.0107922 -1.48293e-20)
(-0.0504157 -0.0110447 1.00083e-20)
(-0.0366364 -0.0112746 1.20967e-21)
(-0.0225727 -0.0114833 -1.37473e-21)
(-0.00826209 -0.0116682 -9.89888e-22)
(0.00628677 -0.0118225 9.05032e-22)
(0.0210427 -0.0119578 -1.80231e-21)
(0.0359533 -0.0120683 -1.60995e-22)
(0.0509994 -0.0121537 -3.81188e-22)
(0.0661521 -0.0122146 2.09975e-22)
(0.0813818 -0.0122519 9.29659e-22)
(0.0966596 -0.0122664 -1.64363e-21)
(0.111958 -0.0122589 -3.18048e-22)
(0.12725 -0.0122305 1.20728e-21)
(0.142511 -0.0121823 6.91101e-22)
(0.157716 -0.0121156 -8.15056e-22)
(0.172844 -0.0120315 2.77002e-22)
(0.187872 -0.0119314 -6.28517e-22)
(0.202782 -0.0118166 3.99906e-22)
(0.217555 -0.0116884 1.93359e-22)
(0.232176 -0.011548 -1.52909e-22)
(0.246628 -0.0113969 1.48654e-23)
(0.2609 -0.0112363 -1.45168e-23)
(0.274979 -0.0110673 -1.08847e-23)
(0.288856 -0.0108913 -1.19093e-22)
(0.30252 -0.0107092 1.44796e-22)
(0.315966 -0.0105223 -2.56533e-22)
(0.329186 -0.0103314 1.99927e-22)
(0.342176 -0.0101376 -1.34215e-23)
(0.354932 -0.00994179 -1.28142e-22)
(0.367452 -0.00974473 5.82405e-23)
(0.379733 -0.00954722 5.11721e-23)
(0.391775 -0.00934995 -4.2068e-23)
(0.403578 -0.00915356 2.93467e-22)
(0.415143 -0.00895864 -7.06174e-23)
(0.426471 -0.00876572 2.54064e-23)
(0.437565 -0.00857529 -4.03177e-22)
(0.448428 -0.00838778 1.65551e-22)
(0.459063 -0.00820359 4.19789e-22)
(0.469474 -0.00802302 -1.4536e-22)
(0.479664 -0.00784635 -1.16788e-22)
(0.48964 -0.00767383 1.961e-22)
(0.499405 -0.00750569 -1.73568e-22)
(0.508965 -0.00734214 -1.46696e-22)
(0.518326 -0.00718338 2.18016e-22)
(0.527494 -0.00702956 5.99873e-23)
(0.536474 -0.00688086 -1.95842e-22)
(0.545273 -0.00673741 1.66028e-22)
(0.553898 -0.00659937 -9.72296e-23)
(0.562355 -0.00646685 4.97122e-23)
(0.570653 -0.00634004 7.60956e-24)
(0.578793 -0.00621903 -3.64884e-23)
(0.586799 -0.00610404 1.30664e-23)
(0.594638 -0.00599529 5.36909e-23)
(0.602409 -0.00589263 -2.96192e-23)
(0.609922 -0.00579748 9.84009e-24)
(0.61762 -0.00570678 1.86174e-23)
(0.624566 -0.00562903 -4.42297e-24)
(0.632841 -0.00554594 -3.44179e-24)
(0.638035 -0.00549653 1.82201e-24)
(0.649948 -0.00541002 1.07005e-24)
(-0.199634 -0.00104229 -8.53073e-21)
(-0.198369 -0.00168735 6.35574e-20)
(-0.196843 -0.00238178 3.23628e-20)
(-0.195038 -0.00312602 -3.67088e-20)
(-0.192935 -0.00392029 6.02084e-20)
(-0.190515 -0.00476441 -6.71568e-20)
(-0.187761 -0.00565778 6.5635e-20)
(-0.184653 -0.00659926 -4.75595e-20)
(-0.181174 -0.00758721 -3.58447e-20)
(-0.177306 -0.00861947 -7.74235e-21)
(-0.173035 -0.00969332 -2.30741e-21)
(-0.168343 -0.0108056 4.51373e-20)
(-0.163218 -0.0119525 2.01833e-20)
(-0.157648 -0.01313 -4.40464e-20)
(-0.151621 -0.0143335 3.79265e-20)
(-0.145129 -0.0155578 3.77188e-21)
(-0.138164 -0.0167972 -3.35677e-20)
(-0.130723 -0.0180451 3.0777e-21)
(-0.122807 -0.0192994 1.13953e-20)
(-0.114398 -0.0205772 4.60985e-21)
(-0.105512 -0.0217938 -2.29063e-22)
(-0.0961663 -0.0229982 -8.01042e-21)
(-0.0863618 -0.0241834 -2.06489e-20)
(-0.0761075 -0.0253411 1.18045e-20)
(-0.0654159 -0.0264649 -5.52412e-21)
(-0.0543011 -0.0275488 1.44111e-20)
(-0.0427797 -0.0285871 -3.31834e-22)
(-0.03087 -0.0295744 6.67215e-21)
(-0.0186002 -0.030506 -1.91133e-20)
(-0.00603218 -0.0313782 1.09843e-20)
(0.00691031 -0.0321784 4.18601e-21)
(0.0201983 -0.0329079 -1.52876e-20)
(0.0337013 -0.033572 2.47269e-20)
(0.0474365 -0.0341657 -1.15536e-20)
(0.0613834 -0.0346864 -7.52109e-21)
(0.0755146 -0.0351264 1.39079e-20)
(0.0898012 -0.0354987 -2.61246e-21)
(0.104211 -0.0357976 -2.63592e-21)
(0.118718 -0.0360234 -6.27918e-22)
(0.133292 -0.0361779 3.91551e-21)
(0.147908 -0.0362632 2.69199e-21)
(0.162538 -0.0362816 -1.05411e-20)
(0.177157 -0.036236 1.91383e-21)
(0.191742 -0.0361296 7.96127e-22)
(0.206268 -0.0359657 -5.25755e-22)
(0.220714 -0.0357479 4.14567e-21)
(0.23506 -0.0354799 4.27151e-22)
(0.249288 -0.0351656 -9.76419e-22)
(0.263379 -0.0348089 -8.81117e-22)
(0.277319 -0.0344136 1.29629e-21)
(0.291092 -0.0339838 -4.03624e-22)
(0.304687 -0.0335232 6.50911e-22)
(0.318092 -0.0330355 -4.89716e-22)
(0.331297 -0.0325244 5.06936e-23)
(0.344294 -0.0319933 -4.49173e-23)
(0.357076 -0.0314456 1.14305e-22)
(0.369636 -0.0308844 6.3881e-23)
(0.381972 -0.0303127 -2.00751e-22)
(0.394078 -0.0297333 -2.2204e-22)
(0.405953 -0.0291488 -9.32403e-23)
(0.417594 -0.0285614 1.71191e-22)
(0.429003 -0.0279736 -2.71725e-22)
(0.440178 -0.0273873 7.17457e-22)
(0.451122 -0.0268043 1.74319e-22)
(0.461835 -0.0262263 -2.47355e-22)
(0.47232 -0.0256549 2.86427e-22)
(0.48258 -0.0250914 -1.46961e-21)
(0.492619 -0.024537 9.50037e-22)
(0.502441 -0.0239929 -3.28509e-22)
(0.512049 -0.0234601 -9.55792e-22)
(0.521449 -0.0229393 8.79445e-22)
(0.530645 -0.0224312 -2.57086e-23)
(0.539643 -0.0219366 5.68708e-22)
(0.548449 -0.0214558 -5.33299e-22)
(0.557068 -0.0209896 -5.77202e-24)
(0.565506 -0.0205383 6.51427e-22)
(0.573769 -0.0201024 -2.98911e-22)
(0.581864 -0.0196823 -2.7152e-22)
(0.589799 -0.0192784 2.89785e-22)
(0.597576 -0.018891 -3.94409e-22)
(0.60521 -0.0185207 5.47085e-22)
(0.612695 -0.0181679 -2.84626e-22)
(0.620062 -0.0178328 -1.66009e-22)
(0.62727 -0.0175166 1.45149e-22)
(0.634431 -0.017218 -1.50393e-22)
(0.641332 -0.0169426 -3.22057e-23)
(0.648449 -0.0166794 -2.43163e-23)
(0.654804 -0.0164559 -5.27661e-24)
(0.662504 -0.0162161 4.70973e-23)
(0.667206 -0.0160747 -6.30074e-24)
(0.678263 -0.0158316 -5.70016e-24)
(-0.0960113 -0.00415279 5.3977e-21)
(-0.0933375 -0.00519244 -7.92117e-20)
(-0.0904141 -0.00630751 3.70787e-20)
(-0.0872273 -0.00749945 5.98762e-21)
(-0.0837631 -0.00876889 -5.85866e-20)
(-0.0800075 -0.0101157 1.30897e-21)
(-0.0759464 -0.0115389 5.88339e-20)
(-0.0715661 -0.0130366 -5.92591e-20)
(-0.0668534 -0.0146062 2.49897e-20)
(-0.0617957 -0.0162443 -5.58684e-20)
(-0.0563812 -0.0179465 1.08365e-19)
(-0.0505992 -0.0197076 9.64377e-21)
(-0.0444404 -0.0215219 -9.09423e-20)
(-0.0378967 -0.0233826 3.55968e-20)
(-0.0309619 -0.0252825 -5.56617e-20)
(-0.0236312 -0.0272136 3.82364e-20)
(-0.0159026 -0.0291674 -3.42977e-21)
(-0.00778488 -0.0311345 4.76687e-20)
(0.000672777 -0.0331067 -8.71738e-20)
(0.00961793 -0.0350496 3.72466e-20)
(0.0190307 -0.0369608 -2.96406e-20)
(0.0287552 -0.0388526 1.41577e-20)
(0.0388485 -0.0407076 4.69687e-20)
(0.0493062 -0.042515 -2.36474e-20)
(0.060114 -0.0442648 2.58653e-20)
(0.071257 -0.0459475 -2.59423e-20)
(0.0827181 -0.0475545 -1.54649e-20)
(0.0944785 -0.0490783 3.6991e-20)
(0.106517 -0.0505125 -7.03834e-21)
(0.118807 -0.0518467 4.49198e-21)
(0.131334 -0.0530401 6.08551e-21)
(0.144082 -0.0541482 -1.08832e-20)
(0.157012 -0.0551478 -1.2349e-20)
(0.1701 -0.05603 1.47152e-20)
(0.183322 -0.0567934 -1.86017e-20)
(0.196652 -0.0574363 -2.46958e-23)
(0.210065 -0.0579604 1.66739e-20)
(0.223534 -0.0583665 5.67918e-21)
(0.237034 -0.0586562 -5.14154e-21)
(0.250542 -0.0588322 -1.11936e-20)
(0.264033 -0.0588982 1.55789e-20)
(0.277486 -0.058858 -1.24437e-20)
(0.290878 -0.0587167 -2.41566e-21)
(0.30419 -0.0584792 9.97252e-21)
(0.317401 -0.0581514 -2.92585e-21)
(0.330496 -0.0577391 2.1569e-21)
(0.343457 -0.0572484 -2.24553e-21)
(0.356269 -0.0566858 -1.96705e-21)
(0.36892 -0.0560575 -5.46227e-22)
(0.381396 -0.05537 2.05527e-21)
(0.393688 -0.0546295 -1.19935e-21)
(0.405787 -0.0538424 -3.09618e-22)
(0.417683 -0.0530146 9.13942e-22)
(0.429371 -0.052152 -2.28751e-22)
(0.440845 -0.05126 2.61561e-22)
(0.452101 -0.0503442 -1.56354e-22)
(0.463136 -0.0494093 -1.93881e-22)
(0.473948 -0.0484603 -1.7198e-22)
(0.484535 -0.0475015 3.62528e-22)
(0.494898 -0.0465369 -1.63035e-22)
(0.505036 -0.0455704 1.19999e-21)
(0.514952 -0.0446053 -1.88797e-21)
(0.524646 -0.043645 1.73588e-21)
(0.534122 -0.0426922 -3.85258e-23)
(0.543382 -0.0417495 -2.02382e-22)
(0.55243 -0.0408193 -2.28602e-21)
(0.56127 -0.0399037 7.01348e-22)
(0.569907 -0.0390045 1.3549e-22)
(0.578345 -0.0381234 1.79951e-21)
(0.586589 -0.0372619 -5.33209e-22)
(0.594645 -0.0364213 -5.33945e-22)
(0.602517 -0.0356026 3.49052e-23)
(0.610212 -0.0348069 2.35756e-22)
(0.617736 -0.034035 1.38006e-22)
(0.625094 -0.0332875 8.46494e-22)
(0.632292 -0.0325652 -5.31918e-22)
(0.639338 -0.0318688 1.27022e-22)
(0.646236 -0.0311987 -1.02272e-21)
(0.652996 -0.0305556 -6.85569e-23)
(0.659619 -0.0299402 5.75999e-22)
(0.66612 -0.0293528 2.62637e-22)
(0.672492 -0.0287944 -4.68997e-22)
(0.678771 -0.0282649 4.0939e-22)
(0.684903 -0.0277673 1.01634e-22)
(0.691021 -0.0272974 -2.64929e-22)
(0.696879 -0.0268676 1.42592e-22)
(0.702998 -0.026455 -3.22758e-24)
(0.708353 -0.0261102 6.03996e-24)
(0.715044 -0.025739 7.12847e-25)
(0.718936 -0.0255224 3.24676e-23)
(0.728494 -0.0251616 -1.1821e-24)
(0.0440864 -0.0111375 1.81475e-20)
(0.0484394 -0.0126323 -1.79852e-19)
(0.0530418 -0.0142223 4.76682e-21)
(0.0579016 -0.0159083 6.06116e-20)
(0.0630266 -0.0176903 6.43341e-20)
(0.0684248 -0.0195673 5.38536e-21)
(0.0741037 -0.021537 3.35502e-20)
(0.0800703 -0.0235962 -4.83408e-20)
(0.0863314 -0.0257403 8.18386e-21)
(0.0928928 -0.0279637 2.52642e-20)
(0.0997596 -0.0302598 6.2743e-22)
(0.106936 -0.0326209 -7.79583e-20)
(0.114424 -0.0350382 1.17717e-20)
(0.122226 -0.0375022 2.48203e-20)
(0.130341 -0.0400025 3.15606e-21)
(0.138769 -0.0425286 7.60984e-21)
(0.147504 -0.04507 -2.61223e-20)
(0.156538 -0.047606 6.36175e-20)
(0.165876 -0.0500707 -1.00235e-19)
(0.175523 -0.052538 2.47591e-20)
(0.185451 -0.0549678 -5.29139e-20)
(0.195653 -0.0573424 1.40832e-19)
(0.206115 -0.0596487 -8.14265e-20)
(0.216822 -0.0618737 -2.51205e-20)
(0.227759 -0.064005 -3.61242e-20)
(0.238907 -0.0660307 4.74207e-20)
(0.250249 -0.0679403 -3.50489e-21)
(0.261764 -0.0697243 -2.11053e-20)
(0.273432 -0.0713735 1.77362e-20)
(0.285233 -0.0728759 1.64542e-20)
(0.297149 -0.0742309 5.95671e-21)
(0.309157 -0.0754335 -5.20077e-20)
(0.321231 -0.0764801 2.7184e-20)
(0.33335 -0.0773685 8.90637e-21)
(0.345494 -0.0780979 -2.26431e-21)
(0.357639 -0.0786691 -2.37161e-20)
(0.369765 -0.0790839 1.11554e-21)
(0.381852 -0.0793453 1.87584e-20)
(0.393881 -0.0794571 -6.55073e-21)
(0.405832 -0.0794245 1.49569e-20)
(0.417689 -0.0792532 -2.22073e-22)
(0.429436 -0.0789501 -4.52446e-21)
(0.441056 -0.0785223 5.26041e-21)
(0.452536 -0.0779776 -1.17627e-20)
(0.463864 -0.0773242 4.77268e-21)
(0.475028 -0.0765706 1.83958e-21)
(0.486018 -0.0757253 -1.28038e-21)
(0.496826 -0.074797 -4.18556e-21)
(0.507443 -0.0737944 3.4681e-21)
(0.517863 -0.072726 2.26614e-21)
(0.528082 -0.0716 -1.914e-21)
(0.538095 -0.0704246 -6.82273e-22)
(0.547898 -0.0692075 -2.21196e-22)
(0.55749 -0.067956 2.587e-22)
(0.56687 -0.0666772 1.37098e-23)
(0.576037 -0.0653778 -8.01924e-23)
(0.584992 -0.0640638 4.29449e-22)
(0.593736 -0.0627411 -4.02789e-23)
(0.60227 -0.0614149 -3.58825e-22)
(0.610598 -0.0600902 -2.75743e-22)
(0.618721 -0.0587713 1.64277e-22)
(0.626643 -0.0574624 5.27892e-23)
(0.634369 -0.056167 -5.04818e-22)
(0.641902 -0.0548886 -1.1931e-21)
(0.649246 -0.05363 9.77881e-22)
(0.656407 -0.0523939 -6.78917e-22)
(0.66339 -0.0511825 1.41829e-21)
(0.670199 -0.0499979 -1.98294e-21)
(0.676841 -0.048842 1.28471e-21)
(0.68332 -0.0477162 9.2266e-23)
(0.689642 -0.046622 -2.58485e-22)
(0.695814 -0.0455605 -5.38439e-22)
(0.70184 -0.0445329 1.89215e-21)
(0.707728 -0.04354 -7.91297e-22)
(0.713482 -0.0425825 -1.31775e-22)
(0.71911 -0.0416612 8.1514e-22)
(0.724615 -0.0407767 -1.04687e-21)
(0.730008 -0.0399297 -1.39848e-23)
(0.735288 -0.0391211 -2.03097e-22)
(0.740474 -0.0383511 1.86887e-22)
(0.74555 -0.0376215 5.40575e-22)
(0.750562 -0.0369309 -1.88395e-22)
(0.755442 -0.0362852 2.25156e-22)
(0.760343 -0.0356755 -3.7234e-22)
(0.76499 -0.0351232 -5.25656e-23)
(0.769931 -0.0345916 1.00328e-22)
(0.77414 -0.0341543 -1.03032e-23)
(0.779608 -0.033684 -1.79553e-23)
(0.782603 -0.0334113 9.83184e-24)
(0.790358 -0.0329737 -2.61459e-24)
(0.202232 -0.0190122 9.97071e-20)
(0.207582 -0.0208511 -1.05068e-19)
(0.213177 -0.0227928 2.13938e-19)
(0.219019 -0.0248389 -1.8353e-19)
(0.225108 -0.0269895 -9.1852e-23)
(0.231446 -0.0292437 1.35325e-19)
(0.238032 -0.0315989 5.33413e-20)
(0.244867 -0.0340516 -1.04375e-19)
(0.25195 -0.0365967 -2.88588e-20)
(0.259282 -0.0392277 -7.88289e-22)
(0.266859 -0.0419368 -2.16583e-20)
(0.27468 -0.044715 -1.06883e-20)
(0.282742 -0.0475517 9.15258e-20)
(0.291039 -0.0504355 -9.10086e-20)
(0.299568 -0.0533535 2.92084e-21)
(0.30832 -0.0562923 6.03266e-20)
(0.317287 -0.0592379 1.26297e-20)
(0.326461 -0.0621736 2.81434e-20)
(0.335834 -0.0650761 -5.70183e-20)
(0.345402 -0.0679363 -8.28457e-21)
(0.35515 -0.0707382 4.83698e-20)
(0.365063 -0.0734664 1.81098e-20)
(0.375126 -0.0761059 -6.16108e-20)
(0.385325 -0.0786418 1.57186e-20)
(0.395642 -0.0810597 -3.49587e-20)
(0.406062 -0.083346 4.74379e-20)
(0.416566 -0.0854882 -1.10885e-19)
(0.427136 -0.087475 6.45538e-20)
(0.437755 -0.0892962 -1.73132e-20)
(0.448404 -0.0909424 4.14277e-20)
(0.459066 -0.0924079 -2.12758e-20)
(0.469724 -0.0936882 1.66888e-20)
(0.480358 -0.0947798 -6.09184e-20)
(0.490952 -0.0956806 8.26131e-20)
(0.50149 -0.0963903 -3.15424e-20)
(0.511954 -0.0969104 1.83282e-20)
(0.52233 -0.0972436 -1.9944e-20)
(0.532604 -0.0973941 9.27234e-21)
(0.542762 -0.0973672 -9.88831e-21)
(0.552792 -0.0971697 9.26088e-21)
(0.562682 -0.096809 2.45128e-21)
(0.572424 -0.0962937 -1.27842e-20)
(0.582007 -0.0956329 -2.42101e-21)
(0.591425 -0.0948363 5.29118e-21)
(0.600669 -0.0939142 -3.68498e-21)
(0.609734 -0.0928768 -2.29648e-21)
(0.618616 -0.0917349 6.06975e-21)
(0.627311 -0.090499 8.90547e-24)
(0.635816 -0.0891796 -3.58554e-21)
(0.644128 -0.087787 -1.22582e-21)
(0.652247 -0.0863312 3.68237e-21)
(0.660173 -0.084822 -5.90977e-22)
(0.667905 -0.0832685 -9.34143e-22)
(0.675444 -0.0816796 3.3871e-22)
(0.682793 -0.0800637 5.48328e-22)
(0.689953 -0.0784285 -1.40439e-22)
(0.696927 -0.0767814 1.33178e-22)
(0.703717 -0.075129 -9.19734e-22)
(0.710327 -0.0734776 2.83404e-22)
(0.71676 -0.0718328 6.07681e-22)
(0.723021 -0.0701999 2.03532e-22)
(0.729113 -0.0685834 2.075e-21)
(0.735042 -0.0669876 -2.24342e-21)
(0.740811 -0.0654163 5.27897e-22)
(0.746425 -0.0638728 1.12678e-22)
(0.75189 -0.06236 -4.98884e-22)
(0.757209 -0.0608806 -5.44515e-22)
(0.762389 -0.0594368 1.58039e-21)
(0.767434 -0.0580306 -1.22997e-21)
(0.772349 -0.0566636 -7.13978e-22)
(0.777139 -0.0553375 2.5219e-21)
(0.781811 -0.0540535 8.89376e-23)
(0.786368 -0.0528127 -1.66312e-21)
(0.790817 -0.0516162 3.79747e-22)
(0.795163 -0.0504647 1.604e-22)
(0.799411 -0.0493591 -4.87053e-22)
(0.803565 -0.0483 4.98465e-22)
(0.807634 -0.047288 -3.60016e-23)
(0.811616 -0.0463244 -3.38176e-22)
(0.81553 -0.0454086 3.0175e-22)
(0.819358 -0.0445441 2.83593e-22)
(0.823149 -0.043727 -1.26591e-23)
(0.826826 -0.0429673 -6.20423e-22)
(0.83055 -0.0422502 4.29314e-22)
(0.83404 -0.0416066 6.18096e-24)
(0.837828 -0.0409864 -3.88769e-23)
(0.840961 -0.0404826 7.16572e-23)
(0.845202 -0.0399441 5.33899e-23)
(0.847389 -0.0396324 1.43197e-23)
(0.853356 -0.0391475 -4.00083e-24)
(0.374464 -0.0274964 -4.6022e-20)
(0.380031 -0.0296797 -6.18846e-20)
(0.385855 -0.0319617 -5.68513e-20)
(0.391928 -0.0343442 1.71294e-19)
(0.398244 -0.0368279 2.00247e-21)
(0.404797 -0.0394119 1.57507e-20)
(0.41158 -0.042094 -9.65188e-20)
(0.418586 -0.0448704 9.59136e-20)
(0.425808 -0.0477359 -5.73766e-21)
(0.433236 -0.0506838 8.81569e-21)
(0.440862 -0.0537057 -2.08271e-19)
(0.448677 -0.0567919 7.28984e-20)
(0.456671 -0.0599311 1.39301e-19)
(0.464833 -0.0631107 -1.30104e-19)
(0.473153 -0.0663169 -8.8427e-20)
(0.481617 -0.0695347 4.62702e-20)
(0.490213 -0.0727479 3.43045e-20)
(0.498928 -0.0759391 1.52961e-20)
(0.507749 -0.0790892 -3.71526e-20)
(0.516662 -0.0821818 1.45487e-19)
(0.525654 -0.0852006 -1.12053e-19)
(0.534708 -0.088128 4.67194e-20)
(0.54381 -0.0909471 -7.1717e-20)
(0.552943 -0.0936416 3.38967e-20)
(0.56209 -0.0961959 2.69681e-20)
(0.571237 -0.0985954 1.15434e-21)
(0.580367 -0.100827 -1.56681e-20)
(0.589465 -0.102878 -2.10824e-20)
(0.598514 -0.10474 1.46142e-20)
(0.607502 -0.106402 -3.87611e-20)
(0.616415 -0.107859 3.54888e-20)
(0.625239 -0.109105 2.20626e-21)
(0.633962 -0.110138 -6.76452e-21)
(0.642573 -0.110956 5.3947e-21)
(0.651062 -0.11156 -3.4969e-20)
(0.659419 -0.111952 -1.80436e-20)
(0.667636 -0.112137 6.78059e-20)
(0.675705 -0.112119 -6.50475e-20)
(0.683621 -0.111905 7.68536e-20)
(0.691378 -0.111504 -2.46567e-20)
(0.698972 -0.110924 1.46675e-20)
(0.7064 -0.110176 -4.37115e-20)
(0.713659 -0.10927 -1.91681e-22)
(0.720748 -0.108218 8.75652e-21)
(0.727665 -0.107032 4.48366e-21)
(0.734412 -0.105722 2.25747e-22)
(0.740987 -0.104302 1.07939e-20)
(0.747393 -0.102783 -1.0039e-20)
(0.753632 -0.101177 5.33086e-21)
(0.759704 -0.0994955 4.82905e-23)
(0.765612 -0.09775 -8.01423e-22)
(0.77136 -0.0959512 -4.40345e-21)
(0.77695 -0.0941091 2.15544e-21)
(0.782386 -0.0922337 5.88855e-22)
(0.787671 -0.090334 3.08736e-22)
(0.792808 -0.0884186 -1.03213e-21)
(0.797802 -0.0864955 -3.42595e-22)
(0.802656 -0.0845719 3.31993e-22)
(0.807374 -0.0826547 -4.98514e-22)
(0.81196 -0.0807499 4.76961e-22)
(0.816419 -0.0788631 7.07302e-23)
(0.820754 -0.0769994 -7.30549e-22)
(0.824969 -0.0751631 4.10948e-22)
(0.829069 -0.0733585 6.95039e-22)
(0.833057 -0.0715888 -2.0477e-21)
(0.836938 -0.0698574 1.79175e-21)
(0.840715 -0.0681669 -1.50276e-21)
(0.844394 -0.0665198 2.62108e-22)
(0.847977 -0.064918 1.19431e-21)
(0.851469 -0.0633633 -8.56437e-23)
(0.854874 -0.0618574 4.69836e-22)
(0.858196 -0.0604014 -1.06888e-21)
(0.861439 -0.0589966 -1.03068e-21)
(0.864607 -0.057644 1.39321e-22)
(0.867704 -0.0563445 7.8551e-22)
(0.870735 -0.0550988 1.63368e-21)
(0.873702 -0.0539079 -1.849e-21)
(0.876612 -0.0527719 9.46052e-22)
(0.879463 -0.0516927 -3.42159e-22)
(0.882272 -0.0506689 -1.88761e-22)
(0.885018 -0.0497055 -3.86334e-22)
(0.887752 -0.0487963 5.7559e-22)
(0.890394 -0.0479549 -6.76128e-23)
(0.893098 -0.0471615 -1.3408e-22)
(0.895603 -0.0464543 2.61229e-23)
(0.898382 -0.0457737 1.55053e-23)
(0.900617 -0.0452254 -1.21947e-22)
(0.903762 -0.0446434 1.04108e-22)
(0.905298 -0.044307 -1.8914e-23)
(0.909694 -0.0437926 -3.26578e-24)
(0.560353 -0.0377185 -3.1651e-19)
(0.565514 -0.0403318 4.26636e-19)
(0.570935 -0.0430329 -4.21532e-19)
(0.576602 -0.0458226 2.17624e-19)
(0.582503 -0.0487001 -2.60253e-19)
(0.588624 -0.051663 1.07193e-19)
(0.59495 -0.0547078 2.51956e-19)
(0.601467 -0.057829 1.1196e-20)
(0.608159 -0.0610199 -4.2714e-20)
(0.615012 -0.0642719 -3.28424e-19)
(0.622009 -0.0675751 1.03001e-19)
(0.629134 -0.0709178 1.90473e-19)
(0.636371 -0.0742873 -1.62523e-19)
(0.643702 -0.0776692 1.21994e-19)
(0.651111 -0.0810481 -1.19856e-19)
(0.658579 -0.0844074 1.44879e-19)
(0.666091 -0.0877298 -1.16991e-19)
(0.673629 -0.0909971 -6.03738e-20)
(0.681177 -0.0941913 4.61991e-20)
(0.688717 -0.0972945 1.18328e-20)
(0.696234 -0.100289 -6.62322e-22)
(0.703711 -0.103157 -6.44685e-20)
(0.711133 -0.105883 8.33571e-20)
(0.718483 -0.10845 1.28101e-21)
(0.725749 -0.110842 9.87069e-21)
(0.732917 -0.113048 -1.07384e-20)
(0.739974 -0.115055 -1.471e-20)
(0.74691 -0.116854 2.8379e-20)
(0.753714 -0.118437 -3.09699e-20)
(0.76038 -0.119797 -4.66773e-21)
(0.7669 -0.120931 8.35477e-21)
(0.773268 -0.121836 3.0903e-20)
(0.779479 -0.122512 7.85353e-21)
(0.78553 -0.122961 -3.68266e-20)
(0.791419 -0.123187 4.88234e-20)
(0.797144 -0.123193 -1.40813e-20)
(0.802707 -0.122988 5.83763e-21)
(0.808107 -0.122578 -4.2422e-20)
(0.813347 -0.121973 -3.72773e-21)
(0.818428 -0.121184 3.00688e-20)
(0.823355 -0.120222 1.33863e-20)
(0.828131 -0.119097 3.72192e-21)
(0.832759 -0.117823 -1.94086e-20)
(0.837245 -0.116413 -2.32627e-22)
(0.841592 -0.114878 -8.5376e-21)
(0.845806 -0.113233 -6.45815e-21)
(0.849891 -0.111489 2.43341e-21)
(0.853853 -0.109659 2.04933e-20)
(0.857696 -0.107756 -3.83412e-21)
(0.861424 -0.105791 -1.43947e-20)
(0.865044 -0.103775 1.00478e-20)
(0.868558 -0.101719 -2.61503e-21)
(0.871972 -0.0996331 3.07231e-21)
(0.87529 -0.097527 -2.3568e-21)
(0.878515 -0.0954094 5.47322e-22)
(0.881652 -0.0932884 1.36953e-21)
(0.884704 -0.0911717 -1.40012e-21)
(0.887675 -0.0890661 3.75989e-22)
(0.890568 -0.086978 -1.46102e-22)
(0.893386 -0.0849131 2.90314e-22)
(0.896133 -0.0828764 2.14307e-23)
(0.89881 -0.0808725 1.69541e-22)
(0.901422 -0.0789057 -1.65052e-21)
(0.903971 -0.0769793 1.09471e-21)
(0.906459 -0.0750968 1.94131e-21)
(0.908889 -0.0732607 -3.55156e-21)
(0.911264 -0.0714736 2.70386e-21)
(0.913586 -0.0697375 1.43931e-21)
(0.915858 -0.0680542 -3.45499e-21)
(0.918081 -0.0664254 1.14607e-21)
(0.920259 -0.0648522 4.75965e-22)
(0.922393 -0.063336 -1.47593e-21)
(0.924487 -0.0618776 1.53471e-21)
(0.926543 -0.0604782 -4.78325e-22)
(0.928563 -0.0591382 -1.55971e-22)
(0.930548 -0.0578591 1.81782e-22)
(0.932505 -0.0566405 5.51513e-22)
(0.934428 -0.0554851 -4.65733e-22)
(0.936335 -0.0543904 3.80484e-22)
(0.938202 -0.0533628 -6.61654e-22)
(0.940076 -0.0523943 -2.57299e-22)
(0.941884 -0.0515013 -1.98332e-22)
(0.943759 -0.0506601 4.40859e-22)
(0.94548 -0.0499142 -2.67602e-22)
(0.947433 -0.0491973 8.84644e-23)
(0.948966 -0.0486233 -1.27747e-22)
(0.951202 -0.0480165 -1.5268e-23)
(0.952246 -0.047667 2.50793e-23)
(0.955361 -0.0471343 -2.72768e-24)
(0.743811 -0.0461438 -1.48935e-19)
(0.747797 -0.0491929 1.94859e-19)
(0.752027 -0.0523063 -4.9168e-19)
(0.756481 -0.0554836 5.61961e-19)
(0.761141 -0.0587227 -2.26846e-19)
(0.765987 -0.0620203 -1.11978e-19)
(0.770999 -0.0653714 2.06233e-19)
(0.776157 -0.0687696 -2.95559e-19)
(0.781439 -0.0722066 4.89008e-19)
(0.786826 -0.075673 -4.32209e-19)
(0.792296 -0.0791574 9.69881e-20)
(0.79783 -0.0826473 1.13681e-19)
(0.803406 -0.0861289 -1.738e-19)
(0.809004 -0.0895872 -3.7828e-20)
(0.814604 -0.0930062 1.16671e-19)
(0.820187 -0.0963692 -1.83572e-19)
(0.825734 -0.0996588 3.10197e-19)
(0.831228 -0.102858 -1.66802e-19)
(0.836652 -0.105949 3.00354e-20)
(0.84199 -0.108914 6.82369e-20)
(0.847227 -0.111739 -9.45707e-20)
(0.852351 -0.114405 -2.73651e-22)
(0.85735 -0.116899 8.68266e-20)
(0.862212 -0.119206 -4.11053e-20)
(0.866929 -0.121314 -4.09218e-20)
(0.871492 -0.123212 2.55685e-20)
(0.875894 -0.124892 5.00668e-20)
(0.880134 -0.126347 2.36726e-20)
(0.884209 -0.127571 -2.34991e-20)
(0.888117 -0.128562 -7.2013e-20)
(0.891861 -0.129318 1.00975e-19)
(0.895442 -0.129841 -6.36674e-20)
(0.898862 -0.130133 4.62134e-20)
(0.902127 -0.1302 -8.1982e-20)
(0.905242 -0.130046 3.04743e-21)
(0.908213 -0.12968 -5.83693e-21)
(0.911047 -0.129111 8.10048e-20)
(0.913752 -0.128347 -2.8724e-20)
(0.916334 -0.127401 2.65441e-20)
(0.918802 -0.126283 -1.01803e-20)
(0.921164 -0.125006 -4.37629e-20)
(0.923426 -0.123583 2.66312e-20)
(0.925597 -0.122026 2.79847e-21)
(0.927684 -0.120349 -2.23271e-20)
(0.929695 -0.118563 7.11348e-21)
(0.931634 -0.116683 1.55439e-20)
(0.93351 -0.114721 -1.90617e-20)
(0.935327 -0.112689 1.26567e-20)
(0.937091 -0.110598 7.26786e-21)
(0.938807 -0.108459 -1.20256e-20)
(0.940479 -0.106284 4.89921e-21)
(0.942112 -0.104083 2.18796e-21)
(0.943708 -0.101864 7.09033e-23)
(0.945271 -0.0996368 -2.17084e-21)
(0.946803 -0.0974092 3.86817e-22)
(0.948308 -0.0951888 -1.88594e-21)
(0.949788 -0.0929823 9.51863e-22)
(0.951243 -0.0907962 -3.38745e-22)
(0.952676 -0.088636 2.90436e-22)
(0.954089 -0.0865068 -1.79624e-22)
(0.955482 -0.0844133 6.71885e-23)
(0.956857 -0.0823595 -6.93835e-22)
(0.958214 -0.080349 9.3105e-22)
(0.959555 -0.078385 -4.51478e-22)
(0.960881 -0.0764704 -7.71299e-22)
(0.962192 -0.0746076 7.97775e-22)
(0.963489 -0.0727988 -1.16765e-23)
(0.964772 -0.0710457 3.19751e-23)
(0.966043 -0.06935 1.01655e-21)
(0.967303 -0.0677131 -2.19128e-21)
(0.968551 -0.0661363 9.08472e-22)
(0.969789 -0.0646205 -3.56801e-22)
(0.971017 -0.063167 8.29421e-22)
(0.972237 -0.0617761 5.913e-22)
(0.973449 -0.0604496 -6.25736e-22)
(0.974656 -0.0591869 -6.90594e-22)
(0.975853 -0.0579912 1.16362e-21)
(0.977054 -0.0568595 -7.71809e-22)
(0.978237 -0.0557991 8.9389e-22)
(0.97944 -0.0548006 -6.5584e-22)
(0.980604 -0.0538826 -1.20896e-22)
(0.981832 -0.0530184 3.01909e-22)
(0.982952 -0.0522551 -2.7077e-22)
(0.984256 -0.0515221 6.30407e-23)
(0.985259 -0.0509381 -2.69062e-23)
(0.986776 -0.0503213 6.00425e-23)
(0.987457 -0.0499683 2.91159e-23)
(0.989572 -0.049426 -4.11165e-24)
(0.90792 -0.0489172 -1.136e-19)
(0.910029 -0.0522549 -1.16663e-20)
(0.912355 -0.0556302 -1.20958e-20)
(0.914875 -0.059043 -4.07765e-19)
(0.917568 -0.0624918 9.05936e-20)
(0.920413 -0.0659735 3.11841e-20)
(0.923387 -0.0694838 4.57302e-19)
(0.926469 -0.0730166 -6.20855e-20)
(0.929637 -0.0765644 -1.29659e-19)
(0.932869 -0.0801182 1.48545e-19)
(0.936143 -0.0836677 -1.05995e-19)
(0.939438 -0.0872012 -1.05004e-19)
(0.942734 -0.0907059 -8.70076e-20)
(0.94601 -0.0941679 1.63463e-19)
(0.949247 -0.0975725 -3.44742e-19)
(0.952427 -0.100904 3.28493e-19)
(0.955534 -0.104148 7.36085e-21)
(0.958551 -0.107287 -2.26781e-19)
(0.961465 -0.110306 -8.9577e-20)
(0.964262 -0.11319 2.7426e-19)
(0.966933 -0.115923 -4.4992e-20)
(0.969468 -0.118491 -1.30244e-19)
(0.97186 -0.120881 1.54136e-19)
(0.974103 -0.123081 -1.89168e-20)
(0.976194 -0.12508 -1.5215e-20)
(0.97813 -0.126871 3.79581e-20)
(0.97991 -0.128443 -3.38905e-20)
(0.981537 -0.129793 1.26943e-20)
(0.983013 -0.130914 5.74363e-20)
(0.984343 -0.131805 -6.46164e-20)
(0.985535 -0.132465 2.67584e-20)
(0.986593 -0.132895 -1.61326e-20)
(0.987526 -0.133099 5.22713e-20)
(0.988343 -0.133083 -4.17149e-21)
(0.989055 -0.132852 -1.95895e-21)
(0.989671 -0.132414 -7.541e-20)
(0.990201 -0.131778 4.03295e-21)
(0.990655 -0.130953 1.74688e-20)
(0.991043 -0.129951 -2.30731e-20)
(0.991375 -0.128783 2.62215e-20)
(0.99166 -0.12746 -1.07036e-21)
(0.991907 -0.125996 1.2127e-20)
(0.992124 -0.124401 1.19888e-20)
(0.992318 -0.122689 -1.7377e-20)
(0.992498 -0.120873 -1.27521e-20)
(0.992668 -0.118964 -9.6787e-21)
(0.992835 -0.116974 2.7573e-20)
(0.993003 -0.114916 -1.08697e-20)
(0.993178 -0.112801 -7.12898e-23)
(0.993362 -0.110639 -1.58167e-20)
(0.993559 -0.108441 1.47371e-20)
(0.993772 -0.106217 -3.14667e-22)
(0.994001 -0.103975 -9.28236e-21)
(0.99425 -0.101724 1.40884e-20)
(0.994519 -0.099473 -7.63343e-21)
(0.99481 -0.0972285 1.54217e-21)
(0.995121 -0.0949975 -1.17881e-21)
(0.995455 -0.0927863 1.16567e-21)
(0.99581 -0.0906005 8.38842e-22)
(0.996187 -0.0884452 9.55372e-23)
(0.996585 -0.0863252 -5.05373e-22)
(0.997003 -0.0842446 -7.18334e-23)
(0.997441 -0.0822071 1.46393e-22)
(0.997899 -0.080216 -1.18142e-22)
(0.998375 -0.0782744 -3.0072e-22)
(0.998869 -0.0763847 1.80814e-22)
(0.99938 -0.0745493 -7.51492e-22)
(0.999908 -0.0727701 1.78592e-21)
(1.00045 -0.071049 -1.58233e-21)
(1.00101 -0.0693875 1.25107e-21)
(1.00158 -0.0677869 -5.7812e-22)
(1.00217 -0.0662484 -5.02653e-22)
(1.00277 -0.0647734 2.88117e-22)
(1.00338 -0.0633623 -2.87609e-22)
(1.004 -0.0620172 5.41996e-22)
(1.00464 -0.0607372 5.81845e-22)
(1.00529 -0.0595261 -6.01828e-22)
(1.00595 -0.0583805 2.51879e-22)
(1.00662 -0.0573086 -3.11835e-23)
(1.00732 -0.0563 -1.35212e-22)
(1.00799 -0.0553745 1.52783e-23)
(1.00873 -0.054504 -1.1071e-22)
(1.0094 -0.0537374 1.25029e-22)
(1.0102 -0.0530014 -7.14069e-23)
(1.01081 -0.0524176 -5.71976e-23)
(1.01177 -0.0518 -7.31369e-23)
(1.01219 -0.0514493 1.44831e-23)
(1.01354 -0.0509039 7.82074e-24)
(1.04448 -0.0515502 1.55365e-19)
(1.04479 -0.0552478 -4.08042e-19)
(1.04524 -0.0589529 2.72325e-19)
(1.04582 -0.0626653 -1.27412e-19)
(1.04652 -0.0663831 2.35704e-19)
(1.0473 -0.070103 -4.42321e-19)
(1.04815 -0.0738205 4.81648e-19)
(1.04906 -0.0775291 -3.57589e-19)
(1.04999 -0.0812213 2.89029e-19)
(1.05095 -0.084888 -1.79272e-19)
(1.05189 -0.0885187 -1.11617e-19)
(1.05281 -0.0921022 3.24324e-19)
(1.0537 -0.0956257 -3.11974e-19)
(1.05452 -0.099076 -1.8905e-19)
(1.05528 -0.102439 2.92496e-19)
(1.05596 -0.105701 -1.35243e-21)
(1.05654 -0.108847 1.05558e-19)
(1.05702 -0.111863 -7.69313e-20)
(1.05738 -0.114734 9.53787e-20)
(1.05763 -0.117448 -2.05972e-19)
(1.05776 -0.119991 -1.10275e-19)
(1.05776 -0.122352 9.94943e-20)
(1.05764 -0.12452 9.61056e-20)
(1.05739 -0.126485 1.06967e-19)
(1.05701 -0.12824 -8.09998e-20)
(1.05652 -0.129778 -7.88537e-21)
(1.05592 -0.131093 -5.04786e-20)
(1.05521 -0.132182 -5.01892e-20)
(1.0544 -0.133043 9.21082e-20)
(1.0535 -0.133676 -5.31511e-22)
(1.05251 -0.134083 -4.85395e-20)
(1.05146 -0.134267 1.66926e-20)
(1.05034 -0.134234 -3.19183e-20)
(1.04917 -0.133989 1.3375e-20)
(1.04796 -0.13354 3.46041e-20)
(1.04672 -0.132895 -2.1917e-20)
(1.04546 -0.132064 -2.38027e-20)
(1.04419 -0.131057 2.25743e-20)
(1.04292 -0.129885 3.47179e-20)
(1.04166 -0.12856 -5.41722e-20)
(1.04041 -0.127094 2.70728e-20)
(1.03919 -0.125499 -2.17706e-20)
(1.03799 -0.123787 3.69136e-20)
(1.03683 -0.12197 -3.37444e-20)
(1.03571 -0.120061 1.85886e-20)
(1.03463 -0.118071 1.09792e-20)
(1.0336 -0.116012 -1.54033e-21)
(1.03262 -0.113895 1.25211e-21)
(1.03169 -0.111731 2.46683e-21)
(1.03082 -0.10953 -1.15841e-20)