/*--------------------------------*- C++ -*----------------------------------*\
  =========                 |
  \\      /  F ield         | OpenFOAM: The Open Source CFD Toolbox
   \\    /   O peration     | Website:  https://openfoam.org
    \\  /    A nd           | Version:  7
     \\/     M anipulation  |
\*---------------------------------------------------------------------------*/
FoamFile
{
    version     2.0;
    format      ascii;
    class       volVectorField;
    location    "10";
    object      U;
}
// * * * * * * * * * * * * * * * * * * * * * * * * * * * * * * * * * * * * * //

dimensions      [0 1 -1 0 0 0 0];

internalField   nonuniform List<vector> 
1360
(
(-0.00438028 0.00357613 2.5101e-21)
(-0.00964878 0.00448723 -7.1682e-20)
(-0.0154633 0.00470801 -4.06246e-20)
(-0.0209424 0.00444514 2.55524e-20)
(-0.0256462 0.00383905 -4.38854e-21)
(-0.0293031 0.00299087 2.84611e-20)
(-0.0317365 0.00197374 -5.52852e-21)
(-0.0328432 0.00084024 -4.73512e-20)
(-0.0325725 -0.000371255 1.25895e-19)
(-0.0309087 -0.0016314 1.65067e-20)
(-0.0278614 -0.0029154 -2.78829e-20)
(-0.0234617 -0.0041987 -5.65043e-20)
(-0.0177623 -0.00545279 5.80689e-21)
(-0.0108434 -0.00664066 5.47557e-20)
(-0.00282419 -0.00771256 -4.80173e-20)
(0.00612574 -0.00860367 7.22499e-20)
(0.0157902 -0.00923184 -5.58799e-20)
(0.0258889 -0.0094811 -5.97807e-20)
(0.0358438 -0.00919166 7.22835e-20)
(-0.00159231 0.00474073 -1.26451e-19)
(-0.00518886 0.0101479 1.55212e-19)
(-0.00998328 0.012686 2.59301e-20)
(-0.0147919 0.0132442 9.8557e-20)
(-0.0188809 0.0124148 1.07072e-19)
(-0.021895 0.0106028 -2.19918e-19)
(-0.0236225 0.0081007 -6.18643e-20)
(-0.0239317 0.00511993 5.23879e-20)
(-0.0227526 0.0018126 -2.30284e-19)
(-0.0200589 -0.00171053 9.33084e-21)
(-0.0158534 -0.00536523 2.37515e-19)
(-0.0101605 -0.00908082 -3.10798e-20)
(-0.00302222 -0.0127883 -4.64668e-20)
(0.00550017 -0.0164077 -1.20599e-21)
(0.01532 -0.0198347 5.19022e-20)
(0.026309 -0.0229269 1.36053e-19)
(0.0382824 -0.0254938 4.76016e-20)
(0.0510395 -0.0272801 -2.05249e-21)
(0.0644055 -0.0279037 -2.50684e-19)
(0.0775455 -0.0268767 -1.68262e-19)
(-0.00247085 0.0071128 -6.72826e-20)
(-0.00644261 0.0150679 7.53131e-20)
(-0.0101777 0.0186733 -9.11476e-20)
(-0.0129215 0.0192691 -1.9321e-19)
(-0.0142145 0.0177556 1.84218e-19)
(-0.0138601 0.0147573 2.05479e-19)
(-0.0117601 0.0107263 6.94804e-20)
(-0.0078686 0.00598979 -1.02841e-19)
(-0.0021798 0.000783243 -1.07946e-20)
(0.00528421 -0.00472229 1.42167e-19)
(0.0144828 -0.0103977 -1.26698e-19)
(0.0253613 -0.016137 1.0041e-19)
(0.0378521 -0.021839 -4.0907e-20)
(0.0518731 -0.0273881 3.65267e-19)
(0.0673199 -0.0326319 -5.36347e-19)
(0.0840423 -0.0373573 -1.38047e-19)
(0.101819 -0.041266 4.95217e-19)
(0.120459 -0.0439139 -4.47387e-19)
(0.139983 -0.0445579 -4.38301e-21)
(0.159147 -0.0423279 -8.41073e-20)
(-0.00342324 0.0084355 3.98798e-20)
(-0.00746686 0.0175157 3.81393e-19)
(-0.00933728 0.0213394 -4.35248e-19)
(-0.00884357 0.0215181 1.07909e-19)
(-0.00589111 0.019147 -1.36981e-20)
(-0.000498217 0.0150023 4.20443e-20)
(0.00727719 0.00964859 2.58341e-19)
(0.0173605 0.00349465 -2.96544e-19)
(0.0296655 -0.00316509 -8.1033e-21)
(0.0440984 -0.010117 -5.08627e-19)
(0.0605595 -0.0172017 -5.67047e-20)
(0.0789437 -0.0242918 6.69048e-20)
(0.0991382 -0.0312705 2.71408e-19)
(0.12102 -0.038008 -1.52249e-19)
(0.144448 -0.0443332 4.69893e-19)
(0.169228 -0.050001 -6.75816e-19)
(0.195075 -0.0546483 8.14366e-19)
(0.22177 -0.0576537 -5.63834e-19)
(0.249574 -0.0577926 3.54034e-19)
(0.276861 -0.0536575 1.81574e-19)
(-0.00407742 0.00852159 1.30371e-19)
(-0.00736436 0.0170301 5.01804e-20)
(-0.00624517 0.0200573 2.70613e-19)
(-0.00115858 0.019285 -1.57044e-19)
(0.00757432 0.015873 -7.24856e-20)
(0.0196846 0.0106689 6.06648e-19)
(0.0349276 0.00429289 -9.57285e-19)
(0.0530806 -0.00280694 7.7103e-19)
(0.0739396 -0.0103075 3.54271e-19)
(0.0973133 -0.0179747 -7.52976e-19)
(0.123018 -0.0256363 1.93755e-19)
(0.150871 -0.0331581 7.79694e-20)
(0.180686 -0.0404242 8.60725e-19)
(0.212269 -0.0473128 -9.37343e-19)
(0.245409 -0.0536671 -2.78544e-19)
(0.279842 -0.0592597 7.24055e-19)
(0.315183 -0.0637364 -6.03298e-19)
(0.35112 -0.0663768 4.12066e-19)
(0.388138 -0.0654115 3.59609e-19)
(0.424455 -0.0586322 -1.22682e-18)
(-0.00402339 0.00735067 -4.12359e-19)
(-0.00511677 0.0135531 1.30666e-19)
(0.000514631 0.0147654 -1.83922e-19)
(0.0117941 0.0125434 3.97967e-22)
(0.0279695 0.00797895 5.01587e-19)
(0.0485034 0.00190766 -9.77404e-19)
(0.0729436 -0.00505717 8.7639e-19)
(0.100895 -0.0124753 -7.88895e-19)
(0.132007 -0.0200304 8.0939e-19)
(0.165963 -0.0274946 -7.10729e-19)
(0.202459 -0.0347022 3.927e-19)
(0.241199 -0.0415298 -9.57214e-19)
(0.281885 -0.047878 1.19937e-18)
(0.324207 -0.0536521 9.9666e-20)
(0.367842 -0.0587376 -3.05543e-19)
(0.412418 -0.0629726 -5.9636e-19)
(0.457425 -0.0661008 -3.41887e-20)
(0.502399 -0.0674533 6.66891e-19)
(0.547961 -0.0648092 3.31914e-19)
(0.592564 -0.0549224 -7.1632e-19)
(-0.00285073 0.00505205 -1.34024e-19)
(0.000319899 0.00741639 -5.84146e-20)
(0.0124213 0.00597797 -9.15792e-20)
(0.0317681 0.00198863 4.85484e-20)
(0.0571871 -0.00365346 -6.6504e-19)
(0.0878651 -0.0102083 1.27569e-18)
(0.123125 -0.0171334 -1.44849e-20)
(0.162373 -0.0240477 -4.57338e-20)
(0.205082 -0.0306825 -4.59139e-19)
(0.250766 -0.0368485 -8.72117e-20)
(0.29896 -0.0424141 -1.37802e-19)
(0.349207 -0.0472881 -7.80002e-19)
(0.401044 -0.0514065 7.38202e-19)
(0.454 -0.0547173 -6.44762e-19)
(0.507591 -0.0571649 3.86176e-19)
(0.561291 -0.0586776 -3.39134e-19)
(0.614452 -0.0591513 6.21876e-19)
(0.666451 -0.058106 -4.63821e-19)
(0.717947 -0.0531497 1.64989e-19)
(0.768128 -0.0402967 8.4932e-19)
(-0.000170981 0.0018748 1.5752e-19)
(0.00993542 -0.000709691 -1.49589e-20)
(0.0308736 -0.00526191 -2.62348e-19)
(0.0604026 -0.0109973 3.56842e-20)
(0.0969502 -0.0173321 5.64458e-19)
(0.139424 -0.0237034 -1.08839e-18)
(0.186901 -0.0297057 6.34406e-19)
(0.238559 -0.0350739 -3.39022e-20)
(0.293652 -0.0396361 4.65874e-19)
(0.351481 -0.0432855 -5.17915e-19)
(0.411372 -0.0459638 4.24996e-19)
(0.472662 -0.0476476 -1.11579e-18)
(0.534688 -0.0483367 -6.219e-19)
(0.59679 -0.0480428 1.28947e-18)
(0.658306 -0.0467784 -5.174e-19)
(0.718559 -0.0445548 -3.35204e-19)
(0.7768 -0.0413737 4.54234e-19)
(0.832311 -0.0369128 9.91369e-19)
(0.885462 -0.0292187 -5.9342e-19)
(0.936255 -0.0158751 -1.61574e-19)
(0.00436406 -0.00183755 3.20337e-19)
(0.024586 -0.00986866 -3.05643e-19)
(0.0570335 -0.0174569 -2.46453e-19)
(0.0989758 -0.0244454 -7.03462e-19)
(0.148472 -0.0306809 6.15501e-19)
(0.204142 -0.0358605 8.58523e-19)
(0.264795 -0.0397871 -4.34002e-19)
(0.329341 -0.0423776 5.05904e-19)
(0.396772 -0.0436189 -1.77274e-19)
(0.466132 -0.043546 5.49543e-20)
(0.536504 -0.0422313 9.00432e-19)
(0.607 -0.0397743 -1.22382e-18)
(0.676767 -0.0362912 -4.54511e-20)
(0.744998 -0.0319036 2.5074e-19)
(0.810949 -0.0267281 9.1857e-20)
(0.873956 -0.0208626 -9.47871e-20)
(0.933484 -0.0143271 2.69661e-19)
(0.989195 -0.00692116 -1.4984e-19)
(1.04073 0.00134789 -8.43441e-19)
(1.08702 0.00781987 7.65423e-19)
(0.011043 -0.00565791 2.51487e-19)
(0.044904 -0.0188678 8.37439e-20)
(0.0916462 -0.0287572 -2.48207e-19)
(0.148135 -0.0359566 2.91508e-19)
(0.212095 -0.0408605 -6.65789e-19)
(0.281853 -0.0435137 1.41103e-18)
(0.35592 -0.0440066 -9.62593e-19)
(0.432906 -0.0425127 -5.25328e-19)
(0.511506 -0.0392486 1.3907e-18)
(0.590487 -0.0344587 -1.0983e-18)
(0.668679 -0.0284099 1.35192e-18)
(0.744987 -0.0213845 -1.65539e-18)
(0.818406 -0.0136717 5.57385e-19)
(0.888041 -0.0055595 6.57106e-19)
(0.953131 0.00267054 -5.66988e-19)
(1.01307 0.0107531 -1.17421e-20)
(1.06745 0.0184704 -8.82045e-20)
(1.11604 0.0256131 -6.5658e-19)
(1.15846 0.0313093 4.78176e-19)
(1.19386 0.0337437 -1.35824e-19)
(0.0200589 -0.00908403 -3.32176e-19)
(0.0711914 -0.0263312 1.25092e-19)
(0.134862 -0.0370809 -6.50172e-21)
(0.207653 -0.0429078 -4.97523e-19)
(0.287004 -0.0448707 6.69762e-19)
(0.370952 -0.0434537 -9.20932e-19)
(0.457702 -0.0391166 8.35245e-20)
(0.545561 -0.0323641 2.70324e-19)
(0.632943 -0.0237073 -3.74599e-19)
(0.718377 -0.0136514 6.90961e-19)
(0.800521 -0.00269071 1.91544e-19)
(0.878185 0.00869909 8.04554e-20)
(0.95036 0.0200728 -7.91725e-19)
(1.01624 0.0310268 8.05834e-19)
(1.07524 0.0412077 -4.31568e-19)
(1.127 0.0503241 3.20842e-19)
(1.1714 0.0581642 -6.74201e-19)
(1.20847 0.0645434 -3.85572e-19)
(1.23815 0.0689468 4.54471e-19)
(1.25998 0.0710956 1.18683e-19)
(0.0314599 -0.011547 -3.22592e-19)
(0.103296 -0.030767 4.46134e-19)
(0.186068 -0.0402698 9.41759e-20)
(0.276239 -0.0427103 -8.13403e-20)
(0.371052 -0.0399163 2.22162e-19)
(0.468288 -0.0328983 5.48908e-19)
(0.565888 -0.0225606 -2.82301e-19)
(0.66192 -0.00979936 -2.13063e-19)
(0.754615 0.00453918 -5.5968e-19)
(0.842404 0.019674 4.9323e-19)
(0.923955 0.0348953 -2.60141e-19)
(0.998206 0.0495764 1.04789e-20)
(1.06439 0.063187 1.21392e-18)
(1.12205 0.0753042 -8.49115e-19)
(1.17103 0.085619 7.5346e-19)
(1.21145 0.0939404 -7.61597e-20)
(1.2437 0.100198 1.08416e-19)
(1.2683 0.104392 -2.48852e-19)
(1.28572 0.106393 -8.69139e-20)
(1.29632 0.106633 -4.64893e-19)
(0.0450932 -0.0124394 1.85295e-19)
(0.140505 -0.030676 1.20137e-19)
(0.243774 -0.0362898 -7.62016e-20)
(0.351475 -0.0330999 -1.03568e-18)
(0.460787 -0.0237739 3.12871e-19)
(0.569338 -0.00991204 -7.63107e-20)
(0.674922 0.00709274 -4.25433e-20)
(0.775523 0.0259354 -5.46584e-20)
(0.869389 0.0454503 9.08144e-20)
(0.955097 0.0646304 -6.68531e-19)
(1.03159 0.0826354 3.56405e-19)
(1.09822 0.0988014 -5.48601e-19)
(1.15473 0.112648 7.05338e-20)
(1.20123 0.123878 -2.92296e-19)
(1.23819 0.132366 -1.09997e-19)
(1.26633 0.138145 5.60038e-19)
(1.28657 0.141385 -6.05821e-19)
(1.29987 0.142326 9.2591e-20)
(1.30714 0.141164 2.42661e-19)
(1.30908 0.138662 -2.5843e-19)
(0.0605621 -0.011168 2.86228e-19)
(0.181479 -0.0247066 -4.38658e-20)
(0.305604 -0.0234703 -3.67985e-19)
(0.429903 -0.0124385 -5.12859e-20)
(0.551698 0.00487521 6.5023e-19)
(0.668645 0.0262724 -2.70727e-19)
(0.778605 0.0498905 2.57413e-19)
(0.879728 0.0740736 -2.88773e-19)
(0.970569 0.0974338 1.36436e-19)
(1.05015 0.118871 -1.31489e-19)
(1.11798 0.137574 5.84798e-19)
(1.17408 0.153013 -3.60192e-19)
(1.21889 0.164923 -4.05055e-20)
(1.25324 0.173279 -4.82367e-20)
(1.27821 0.178252 7.97308e-20)
(1.29508 0.180167 -1.22779e-19)
(1.30514 0.17945 2.79529e-19)
(1.30967 0.176557 1.0651e-20)
(1.30972 0.171904 -4.23877e-19)
(1.30608 0.166328 -1.33474e-19)
(0.0772103 -0.00722925 -2.22571e-19)
(0.224279 -0.0118413 1.76639e-19)
(0.368409 -0.000756303 6.217e-20)
(0.507286 0.0200141 -7.88203e-20)
(0.638646 0.0462035 -2.14333e-20)
(0.760439 0.0750954 9.14766e-20)
(0.870886 0.104471 -7.2337e-20)
(0.968625 0.132479 3.13744e-19)
(1.05283 0.157696 -2.16846e-19)
(1.12325 0.179138 1.04693e-19)
(1.18021 0.196228 -2.3649e-19)
(1.22452 0.208759 2.29221e-19)
(1.2574 0.216834 9.46116e-20)
(1.28032 0.220799 -2.61141e-19)
(1.29487 0.221168 2.66501e-19)
(1.30267 0.218547 -1.08749e-19)
(1.3052 0.213572 4.7347e-20)
(1.30375 0.20684 4.33809e-20)
(1.29932 0.198884 2.25667e-21)
(1.29258 0.190415 4.50774e-20)
(0.094145 -0.00029371 -1.02571e-19)
(0.26648 0.00841591 1.70682e-19)
(0.428515 0.0320724 -1.05179e-19)
(0.579002 0.0639102 8.47878e-20)
(0.716409 0.099131 -1.09226e-19)
(0.839302 0.134695 -1.63262e-20)
(0.946591 0.168249 4.70413e-20)
(1.03772 0.197995 -1.77996e-20)
(1.11275 0.222734 -1.90933e-20)
(1.17237 0.241841 9.46063e-20)
(1.2178 0.25518 -1.39266e-20)
(1.25065 0.263016 -5.19134e-20)
(1.27281 0.265906 1.05611e-19)
(1.28621 0.264591 -8.00146e-20)
(1.29275 0.259892 1.83178e-20)
(1.29412 0.252625 -2.47956e-20)
(1.29177 0.243539 7.01903e-20)
(1.28686 0.233282 -5.51233e-20)
(1.28018 0.222414 -8.52175e-21)
(1.27219 0.211364 -1.43808e-20)
(0.110301 0.00971608 5.96759e-20)
(0.305371 0.0358897 -1.81939e-19)
(0.482064 0.0742611 1.10404e-19)
(0.640515 0.117746 -1.69867e-20)
(0.78024 0.161375 3.19193e-20)
(0.900743 0.202096 -5.4109e-20)
(1.00193 0.237742 -3.52269e-20)
(1.08428 0.26688 7.27711e-21)
(1.14892 0.288821 8.63936e-20)
(1.19751 0.303521 -1.23293e-19)
(1.23212 0.31144 1.74912e-20)
(1.25504 0.31339 2.6147e-20)
(1.26859 0.310386 -3.8402e-20)
(1.27494 0.303505 1.02899e-19)
(1.27605 0.293786 -3.62913e-20)
(1.27352 0.282148 2.8204e-20)
(1.2686 0.269353 -6.11351e-20)
(1.2622 0.256026 1.51013e-20)
(1.25488 0.242688 2.70242e-20)
(1.24693 0.229381 1.62778e-20)
(0.124535 0.0225712 1.18132e-19)
(0.338221 0.0696558 1.05127e-19)
(0.52541 0.124053 -3.62043e-20)
(0.687842 0.178937 -1.2761e-19)
(0.826342 0.229647 -6.8385e-20)
(0.941603 0.273524 1.60861e-19)
(1.03472 0.308962 6.65279e-20)
(1.10734 0.335222 -1.3369e-19)
(1.16165 0.352372 5.29248e-20)
(1.20018 0.36111 -9.16892e-22)
(1.22569 0.362561 1.83292e-19)
(1.24089 0.358074 -7.11579e-20)
(1.24831 0.349044 -1.69343e-19)
(1.25015 0.336785 1.98416e-19)
(1.24822 0.322436 -8.11088e-20)
(1.24392 0.306914 1.23449e-19)
(1.23823 0.290914 -4.15887e-20)
(1.23181 0.274989 1.12062e-20)
(1.22497 0.25958 -2.28472e-20)
(1.21791 0.244331 -1.7954e-20)
(0.135747 0.037717 -1.21038e-19)
(0.362567 0.108053 -2.4801e-19)
(0.55549 0.178785 3.9347e-19)
(0.717946 0.244014 2.19404e-19)
(0.852192 0.299943 -6.37552e-19)
(0.960234 0.344759 3.75908e-19)
(1.04441 0.377781 8.87383e-20)
(1.10749 0.399249 1.50031e-19)
(1.15255 0.410159 -3.18672e-23)
(1.18284 0.41202 -1.07392e-20)
(1.20152 0.406599 -3.10861e-19)
(1.21148 0.395694 2.1118e-19)
(1.21525 0.38097 7.47702e-20)
(1.21487 0.363852 -3.80965e-20)
(1.21192 0.345473 -1.05299e-19)
(1.20753 0.32667 1.56657e-20)
(1.20243 0.30802 -3.23127e-20)
(1.19703 0.289985 -1.20022e-20)
(1.19144 0.272923 1.17383e-19)
(1.18584 0.256074 8.96706e-21)
(0.142997 0.0542941 -2.79289e-19)
(0.376472 0.148787 -1.24116e-19)
(0.570142 0.23509 -1.26811e-19)
(0.729005 0.308918 3.24725e-19)
(0.856702 0.367902 2.73893e-20)
(0.956503 0.411489 -1.17858e-19)
(1.03188 0.440237 -2.05164e-19)
(1.08651 0.455546 -1.87517e-20)
(1.12416 0.459414 1.46156e-21)
(1.14847 0.45413 2.56083e-19)
(1.16276 0.442007 -2.58977e-19)
(1.16991 0.425166 5.90735e-20)
(1.17226 0.405409 -1.41633e-19)
(1.17159 0.384161 6.04241e-20)
(1.16922 0.36247 8.39681e-21)
(1.16602 0.341039 -1.30853e-19)
(1.16252 0.320315 3.848e-20)
(1.15891 0.300686 1.78092e-21)
(1.15514 0.282413 -1.56905e-20)
(1.15156 0.264256 1.75264e-20)
(0.145617 0.0711997 1.16838e-19)
(0.378743 0.189114 1.45675e-19)
(0.568308 0.289179 -1.80058e-19)
(0.720543 0.369343 2.54841e-19)
(0.84022 0.429145 6.17385e-20)
(0.931649 0.469619 -3.21211e-19)
(0.999164 0.492754 6.99727e-20)
(1.04708 0.501179 6.36385e-20)
(1.07951 0.497852 9.76585e-20)
(1.10024 0.485739 -6.92647e-20)
(1.11252 0.467553 1.0317e-19)
(1.11902 0.445596 4.36985e-20)
(1.12181 0.421687 3.45353e-20)
(1.12239 0.397163 -6.04506e-21)
(1.12181 0.372931 -1.4515e-20)
(1.12075 0.349542 2.21853e-20)
(1.11956 0.327317 8.97849e-21)
(0.143286 0.0871848 3.6578e-19)
(0.369048 0.226074 -2.5559e-19)
(0.550129 0.33716 5.78953e-21)
(0.693427 0.421074 -2.16106e-19)
(0.804404 0.479589 -2.00277e-19)
(0.888054 0.515515 3.03482e-19)
(0.949214 0.532306 -3.65377e-20)
(0.992461 0.533764 -8.41455e-22)
(1.02198 0.523682 1.23458e-21)
(1.04141 0.505534 -4.39437e-20)
(1.05377 0.482279 1.03782e-20)
(1.06142 0.456264 1.65138e-20)
(1.06613 0.429225 -4.36664e-20)
(1.06911 0.40235 9.30973e-20)
(0.136049 0.100949 -1.54266e-20)
(0.347976 0.256755 -1.97891e-20)
(0.516924 0.375347 1.63519e-19)
(0.649736 0.460318 6.93986e-20)
(0.752027 0.515741 5.06326e-20)
(0.829017 0.546189 -7.01368e-20)
(0.88561 0.556509 6.96843e-20)
(0.926296 0.551504 2.25572e-20)
(0.955037 0.535594 -1.88954e-20)
(0.975164 0.512577 -9.60614e-21)
(0.989338 0.485497 2.20032e-19)
(0.124414 0.111217 3.74291e-20)
(0.316999 0.27846 -2.74725e-20)
(0.471033 0.400567 1.3581e-20)
(0.592573 0.483932 -1.12153e-19)
(0.686744 0.534837 1.39329e-20)
(0.758468 0.559432 1.01706e-19)
(0.81232 0.56371 -1.99639e-19)
(0.852392 0.553217 2.25159e-19)
(0.882204 0.53277 1.3946e-19)
(0.109196 0.117002 2.27666e-20)
(0.278275 0.289095 -1.2536e-19)
(0.415664 0.410377 6.39916e-20)
(0.525829 0.489654 1.01602e-19)
(0.61279 0.535034 1.06659e-19)
(0.680717 0.553887 -3.84331e-19)
(0.733505 0.552999 5.4745e-19)
(0.0915073 0.117527 1.7908e-19)
(0.234569 0.287206 9.77929e-21)
(0.354623 0.403252 -4.53492e-19)
(0.453877 0.476226 7.20955e-21)
(0.534737 0.515473 -2.87648e-19)
(0.0726763 0.112375 -4.69571e-19)
(0.188991 0.272124 3.69022e-19)
(0.292037 0.378666 2.39431e-19)
(0.381303 0.443437 5.91916e-20)
(0.054125 0.101518 3.76582e-20)
(0.144766 0.244024 9.86568e-20)
(0.232073 0.337129 1.10319e-19)
(0.312619 0.392129 -3.57008e-19)
(0.0372559 0.085324 -1.65347e-19)
(0.105003 0.203914 5.51487e-19)
(0.17867 0.280143 -6.08063e-19)
(0.0233449 0.0645331 -1.86158e-19)
(0.0724822 0.153568 2.03277e-19)
(0.013443 0.0402071 -2.30257e-19)
(0.0494642 0.0954098 2.24211e-19)
(0.0444201 -0.00839122 5.10274e-20)
(0.0518836 -0.00788318 -1.7313e-19)
(0.0589798 -0.00768074 7.12563e-20)
(0.0660654 -0.00762088 6.07488e-20)
(0.07318 -0.00763101 -1.05189e-20)
(0.0803435 -0.00768915 -4.94826e-20)
(0.0875923 -0.00778148 1.93132e-20)
(0.0949551 -0.00789535 -2.3228e-20)
(0.102447 -0.00802095 -1.50863e-20)
(0.110075 -0.0081514 3.60757e-20)
(0.11784 -0.00828171 -1.75519e-20)
(0.125741 -0.0084082 8.15895e-21)
(0.13377 -0.00852814 9.64402e-21)
(0.141922 -0.00863958 -5.44892e-20)
(0.150187 -0.00874117 7.53546e-21)
(0.158554 -0.00883211 1.57988e-20)
(0.167013 -0.00891198 3.11288e-21)
(0.175554 -0.00898069 -4.10892e-21)
(0.184165 -0.00903841 1.91616e-20)
(0.0870974 -0.0244796 -2.90584e-20)
(0.0937281 -0.0231111 6.82339e-20)
(0.100023 -0.0226082 1.67795e-19)
(0.106627 -0.0224723 -1.1273e-20)
(0.113381 -0.0225214 1.24162e-19)
(0.120211 -0.0227075 -9.16554e-20)
(0.127145 -0.0229927 -2.44781e-20)
(0.134211 -0.0233395 -1.24201e-19)
(0.141418 -0.0237189 9.56748e-20)
(0.148766 -0.0241106 1.09671e-19)
(0.156253 -0.0245 -1.04623e-19)
(0.163872 -0.0248764 -4.29411e-20)
(0.171616 -0.0252317 4.60567e-20)
(0.179475 -0.0255605 -1.48302e-19)
(0.187438 -0.025859 1.54338e-19)
(0.195494 -0.026125 -1.16924e-19)
(0.203632 -0.0263575 1.16967e-19)
(0.211841 -0.0265565 -3.06311e-20)
(0.220112 -0.0267227 -1.2457e-19)
(0.170239 -0.0383491 6.23376e-19)
(0.175259 -0.0365717 -3.31987e-19)
(0.179915 -0.0360988 -2.83616e-19)
(0.185473 -0.0360412 6.49867e-19)
(0.191432 -0.0362055 -3.41885e-19)
(0.197534 -0.0365704 5.53555e-20)
(0.203783 -0.0370857 -8.41331e-20)
(0.210207 -0.0376897 8.55395e-21)
(0.216801 -0.0383363 2.64665e-19)
(0.22355 -0.0389942 -2.06935e-19)
(0.23044 -0.0396409 2.12576e-19)
(0.237459 -0.0402599 -7.73829e-20)
(0.244593 -0.0408391 -4.56057e-20)
(0.251828 -0.0413704 1.79241e-19)
(0.259151 -0.0418488 5.84193e-20)
(0.26655 -0.0422716 -4.69595e-19)
(0.274013 -0.042638 1.3646e-19)
(0.281529 -0.0429488 1.41747e-19)
(0.289089 -0.0432056 -2.61982e-20)
(0.289315 -0.0481768 -7.16391e-19)
(0.292054 -0.0466988 7.13235e-19)
(0.294264 -0.046836 -1.66859e-19)
(0.298147 -0.0471676 -6.06785e-19)
(0.302801 -0.0476266 4.11985e-19)
(0.307705 -0.0483015 -1.71026e-19)
(0.312832 -0.0491436 1.5176e-19)
(0.318203 -0.0500688 -4.294e-20)
(0.323789 -0.05102 -1.21821e-19)
(0.329552 -0.0519621 2.70628e-19)
(0.335459 -0.0528699 -1.27301e-19)
(0.341488 -0.0537246 1.48622e-19)
(0.347617 -0.0545131 -2.16358e-19)
(0.353828 -0.0552274 -4.78857e-20)
(0.360107 -0.0558633 2.19279e-20)
(0.36644 -0.0564194 -1.00784e-19)
(0.372815 -0.0568965 4.89319e-19)
(0.379223 -0.0572969 -1.66043e-19)
(0.385656 -0.057624 -1.96487e-19)
(0.392108 -0.0578821 -7.95525e-20)
(0.43722 -0.051991 7.65076e-19)
(0.437207 -0.0517363 1.84669e-20)
(0.436435 -0.0532758 -6.39196e-19)
(0.438135 -0.0544714 -7.0823e-20)
(0.44101 -0.0555397 1.39462e-18)
(0.444254 -0.056768 -7.6678e-19)
(0.447801 -0.0581139 5.17983e-19)
(0.451667 -0.0594741 -1.6057e-19)
(0.455789 -0.0607966 -3.21291e-19)
(0.460098 -0.0620576 9.45971e-20)
(0.464546 -0.0632391 4.20318e-20)
(0.469101 -0.0643272 -3.1825e-20)
(0.473738 -0.0653134 -2.53594e-19)
(0.478436 -0.0661944 1.29572e-19)
(0.483182 -0.06697 1.19114e-19)
(0.487963 -0.0676423 -2.80538e-19)
(0.492771 -0.0682152 2.83078e-19)
(0.497601 -0.0686935 9.02471e-20)
(0.502446 -0.0690829 6.01399e-21)
(0.507304 -0.0693896 -1.6038e-19)
(0.604041 -0.0480814 -4.08573e-19)
(0.601305 -0.0502104 1.1503e-19)
(0.597721 -0.0540218 7.60859e-19)
(0.597185 -0.0566192 -8.52661e-19)
(0.598044 -0.0586972 6.68997e-19)
(0.599281 -0.0607862 1.30608e-20)
(0.600833 -0.0628358 -3.19747e-19)
(0.602712 -0.0647452 5.32843e-19)
(0.604832 -0.0665015 -1.1352e-19)
(0.607114 -0.068114 -7.16658e-19)
(0.60951 -0.0695842 -2.88577e-19)
(0.611994 -0.0709121 9.85566e-19)
(0.614545 -0.0721006 -4.98251e-20)
(0.617151 -0.0731548 1.29167e-19)
(0.619801 -0.0740809 -8.09557e-19)
(0.622492 -0.0748853 -1.20852e-19)
(0.625218 -0.0755752 5.48799e-19)
(0.627979 -0.0761577 -1.9088e-19)
(0.630773 -0.0766405 4.44691e-19)
(0.633599 -0.0770309 -2.32964e-19)
(0.636456 -0.0773364 1.6198e-20)
(0.777623 -0.0355121 -1.03736e-18)
(0.773601 -0.0417515 1.30482e-18)
(0.768695 -0.0486021 -1.8496e-18)
(0.766542 -0.0530881 7.02612e-19)
(0.765339 -0.0566218 -3.90933e-19)
(0.764204 -0.0598716 5.02912e-19)
(0.763206 -0.0627728 5.75505e-20)
(0.762409 -0.0653001 1.41936e-19)
(0.761767 -0.0675254 -1.18826e-19)
(0.761245 -0.0695073 -2.97981e-19)
(0.760835 -0.0712773 -1.18632e-19)
(0.760532 -0.0728577 3.62928e-19)
(0.760334 -0.0742677 3.65718e-19)
(0.760237 -0.0755228 2.09354e-19)
(0.760239 -0.0766355 -1.00521e-18)
(0.760339 -0.0776163 7.57008e-19)
(0.760536 -0.0784743 -6.48463e-19)
(0.760826 -0.0792181 1.26134e-19)
(0.761209 -0.0798556 1.64141e-19)
(0.761683 -0.0803946 6.52705e-19)
(0.762245 -0.0808422 -4.77353e-19)
(0.762893 -0.0812058 -1.9904e-19)
(0.948701 -0.0185235 1.10502e-18)
(0.947076 -0.0294389 -1.05169e-18)
(0.942763 -0.0379232 -2.9392e-19)
(0.938753 -0.0434986 1.60247e-19)
(0.934344 -0.0480836 -4.48519e-19)
(0.929559 -0.052163 -1.85908e-19)
(0.92476 -0.0557184 9.26353e-19)
(0.920112 -0.058837 4.23713e-19)
(0.915664 -0.0616281 -6.6756e-19)
(0.911449 -0.0641517 9.08636e-19)
(0.907489 -0.0664407 -6.70977e-19)
(0.903789 -0.0685204 -6.76915e-19)
(0.900345 -0.0704106 6.35581e-19)
(0.897149 -0.0721265 -1.781e-19)
(0.89419 -0.0736799 -4.98816e-19)
(0.891457 -0.0750811 1.22592e-18)
(0.888937 -0.076339 -9.11071e-19)
(0.886621 -0.0774623 -2.49628e-19)
(0.884496 -0.0784591 7.96165e-19)
(0.882554 -0.0793372 -7.82673e-20)
(0.880784 -0.0801043 -1.09438e-19)
(0.879178 -0.080768 1.98324e-19)
(0.877728 -0.0813358 -4.89306e-19)
(1.1385 0.00683098 2.88586e-27)
(1.12404 -0.0032808 -5.80023e-27)
(1.11073 -0.0114223 2.76796e-27)
(1.09796 -0.0184512 -5.68284e-27)
(1.08604 -0.0247544 0)
(1.07516 -0.0303885 0)
(1.06525 -0.0354265 0)
(1.05618 -0.0399633 0)
(1.04786 -0.0440715 0)
(1.0402 -0.0478027 -8.1042e-28)
(1.03313 -0.0511985 -4.86983e-27)
(1.02658 -0.0542932 0)
(1.02051 -0.0571158 0)
(1.01486 -0.0596901 0)
(1.0096 -0.0620368 0)
(1.00468 -0.0641737 0)
(1.00009 -0.0661166 0)
(0.995788 -0.0678798 1.94986e-27)
(0.991762 -0.0694762 -3.95008e-27)
(0.987988 -0.0709179 4.44765e-11)
(0.984451 -0.0722158 4.32634e-11)
(0.981135 -0.0733806 1.74653e-27)
(0.978027 -0.0744221 -3.53491e-27)
(0.975115 -0.0753495 0)
(1.22459 0.0298158 -2.89244e-27)
(1.21645 0.0214324 5.80776e-27)
(1.20718 0.0128418 -2.77149e-27)
(1.19746 0.00447438 5.69001e-27)
(1.18781 -0.00333157 0)
(1.17842 -0.0104789 0)
(1.16932 -0.0169894 0)
(1.16054 -0.022909 0)
(1.15213 -0.0282849 0)
(1.14409 -0.0331648 8.11405e-28)
(1.13642 -0.0375963 4.87573e-27)
(1.12912 -0.0416239 0)
(1.12217 -0.0452875 0)
(1.11556 -0.0486223 0)
(1.10927 -0.0516593 0)
(1.10329 -0.0544257 0)
(1.09759 -0.0569453 0)
(1.09217 -0.0592395 -1.95222e-27)
(1.08701 -0.0613271 3.95487e-27)
(1.0821 -0.063225 -4.45306e-11)
(1.07742 -0.0649486 -4.3316e-11)
(1.07296 -0.0665119 -1.74866e-27)
(1.06871 -0.0679277 3.53924e-27)
(1.06466 -0.0692079 0)
(1.26877 0.0431612 0)
(1.2641 0.0350519 0)
(1.25786 0.0270561 1.30354e-28)
(1.25135 0.0193013 6.4466e-28)
(1.24484 0.0119477 0)
(1.23824 0.0050423 0)
(1.23153 -0.00142079 1.07356e-27)
(1.22477 -0.00745356 1.54488e-27)
(1.21803 -0.0130682 1.03932e-27)
(1.21136 -0.0182809 -5.15968e-11)
(1.20479 -0.0231119 -1.01308e-10)
(1.19834 -0.0275831 -4.96914e-11)
(1.19203 -0.0317167 -1.10909e-28)
(1.18588 -0.0355347 -4.77257e-11)
(1.17989 -0.0390584 -4.67308e-11)
(1.17407 -0.0423079 0)
(1.16843 -0.0453023 -1.01846e-28)
(1.16295 -0.0480597 0)
(1.15765 -0.0505968 -4.27424e-11)
(1.15252 -0.0529295 -4.17546e-11)
(1.14756 -0.0550723 0)
(1.14277 -0.0570391 0)
(1.13813 -0.0588428 0)
(1.13366 -0.0604954 0)
(1.28826 0.0520353 0)
(1.286 0.0441588 0)
(1.28186 0.0366003 -1.30354e-28)
(1.27754 0.029353 -6.4466e-28)
(1.27328 0.0224511 0)
(1.26888 0.0159054 0)
(1.26427 0.00971213 -1.07356e-27)
(1.25948 0.00386526 -1.54488e-27)
(1.25457 -0.00164147 -1.03932e-27)
(1.24958 -0.00681632 5.15968e-11)
(1.24454 -0.0116701 1.01308e-10)
(1.23947 -0.0162156 4.96914e-11)
(1.2344 -0.0204661 1.10909e-28)
(1.22934 -0.0244359 4.77257e-11)
(1.22431 -0.028139 4.67308e-11)
(1.21933 -0.0315897 0)
(1.21441 -0.0348022 1.01846e-28)
(1.20955 -0.03779 0)
(1.20477 -0.0405664 4.27424e-11)
(1.20007 -0.0431443 4.17546e-11)
(1.19546 -0.0455359 0)
(1.19093 -0.0477529 0)
(1.1865 -0.0498067 0)
(1.18217 -0.051708 0)
(1.29144 0.056833 4.86938e-11)
(1.29102 0.0493902 4.80267e-11)
(1.28866 0.0423055 0)
(1.28607 0.0355602 0)
(1.28352 0.0291319 0)
(1.2808 0.0230113 4.70818e-11)
(1.27784 0.0171935 4.67494e-11)
(1.27464 0.011673 0)
(1.27128 0.00644256 0)
(1.26777 0.00149444 0)
(1.26413 -0.00317995 0)
(1.26039 -0.00758976 0)
(1.25656 -0.011745 0)
(1.25267 -0.0156559 0)
(1.24873 -0.0193328 0)
(1.24476 -0.0227861 0)
(1.24077 -0.0260262 0)
(1.23677 -0.0290635 0)
(1.23276 -0.0319082 0)
(1.22878 -0.0345704 0)
(1.2248 -0.0370598 0)
(1.22086 -0.0393859 0)
(1.21695 -0.0415579 3.64199e-11)
(1.21307 -0.0435849 3.56623e-11)
(1.28502 0.0580697 -4.86978e-11)
(1.28595 0.0513115 -4.80267e-11)
(1.28504 0.0448635 0)
(1.28385 0.0387219 0)
(1.28262 0.03285 0)
(1.2812 0.0272329 -4.70818e-11)
(1.27951 0.0218682 -4.67494e-11)
(1.27756 0.0167533 0)
(1.27541 0.0118833 0)
(1.27308 0.00725229 0)
(1.27059 0.00285388 0)
(1.26796 -0.00131824 0)
(1.2652 -0.00527119 0)
(1.26234 -0.00901246 0)
(1.25937 -0.0125497 0)
(1.25633 -0.0158908 0)
(1.25323 -0.0190436 0)
(1.25006 -0.0220162 0)
(1.24686 -0.0248165 0)
(1.24361 -0.0274523 0)
(1.24034 -0.0299317 0)
(1.23705 -0.0322622 0)
(1.23375 -0.0344514 -3.64199e-11)
(1.23045 -0.0365066 -3.56623e-11)
(1.27405 0.056821 0)
(1.27584 0.0508532 0)
(1.27599 0.0451153 1.83827e-27)
(1.27582 0.0396229 -2.54306e-27)
(1.27557 0.0343444 1.84739e-27)
(1.2751 0.0292672 0)
(1.27435 0.0243927 -3.22857e-28)
(1.27335 0.0197225 0)
(1.27213 0.015255 0)
(1.27071 0.0109871 0)
(1.26911 0.00691519 0)
(1.26735 0.00303505 0)
(1.26544 -0.000657739 0)
(1.2634 -0.00416822 0)
(1.26125 -0.0075019 0)
(1.25898 -0.0106645 0)
(1.25663 -0.0136621 0)
(1.25419 -0.0165006 0)
(1.25167 -0.0191864 0)
(1.2491 -0.0217257 0)
(1.24646 -0.0241247 0)
(1.24378 -0.0263897 1.59104e-27)
(1.24106 -0.0285268 -2.15959e-27)
(1.23831 -0.0305422 1.53782e-27)
(1.26162 0.054048 0)
(1.26387 0.0488477 0)
(1.26472 0.043806 -1.83827e-27)
(1.26526 0.0389507 2.54306e-27)
(1.26568 0.0342582 -1.84739e-27)
(1.26588 0.0297205 0)
(1.26581 0.0253419 3.22857e-28)
(1.26549 0.0211271 0)
(1.26494 0.0170771 0)
(1.2642 0.0131916 0)
(1.26327 0.00946909 0)
(1.26217 0.00590778 0)
(1.26092 0.0025051 0)
(1.25952 -0.000742018 0)
(1.25799 -0.00383713 0)
(1.25634 -0.00678422 0)
(1.25458 -0.00958758 0)
(1.25272 -0.0122517 0)
(1.25078 -0.0147814 0)
(1.24875 -0.0171815 0)
(1.24665 -0.0194568 0)
(1.24449 -0.0216125 -1.59104e-27)
(1.24226 -0.0236534 2.15959e-27)
(1.23999 -0.0255847 -1.53782e-27)
(1.24936 0.0504033 0)
(1.25182 0.0459013 -3.31573e-11)
(1.25311 0.041505 -3.36509e-11)
(1.25411 0.0372458 3.39954e-11)
(1.25497 0.0331075 7.12391e-28)
(1.25562 0.0290858 -3.4606e-11)
(1.25602 0.0251871 -1.922e-27)
(1.25617 0.0214177 -4.90473e-28)
(1.25611 0.0177808 -1.9339e-27)
(1.25585 0.0142778 -4.91821e-28)
(1.25541 0.0109091 -3.02603e-27)
(1.2548 0.00767468 0)
(1.25403 0.00457351 1.44498e-27)
(1.25312 0.00160411 0)
(1.25206 -0.00123558 3.44313e-11)
(1.25088 -0.00394809 1.47706e-27)
(1.24959 -0.00653631 -3.39104e-11)
(1.24818 -0.00900347 0)
(1.24668 -0.011353 -3.32698e-11)
(1.24509 -0.0135887 -3.29111e-11)
(1.24342 -0.0157142 2.81093e-27)
(1.24166 -0.0177335 0)
(1.23984 -0.0196507 -2.73998e-27)
(1.23796 -0.0214697 0)
(1.23799 0.0462963 0)
(1.2405 0.042415 3.31573e-11)
(1.24207 0.0386022 3.36509e-11)
(1.24336 0.034888 -3.39954e-11)
(1.24451 0.0312616 -7.12391e-28)
(1.24546 0.0277219 3.4606e-11)
(1.24617 0.0242762 1.922e-27)
(1.24665 0.0209315 4.90473e-28)
(1.24693 0.0176924 1.9339e-27)
(1.24702 0.0145613 4.91821e-28)
(1.24694 0.0115402 3.02603e-27)
(1.24668 0.00862998 0)
(1.24627 0.00583097 -1.44498e-27)
(1.24571 0.00314282 0)
(1.24501 0.000564615 -3.44313e-11)
(1.24419 -0.00190503 -1.47706e-27)
(1.24324 -0.00426793 3.39104e-11)
(1.24219 -0.00652624 0)
(1.24103 -0.0086824 3.32698e-11)
(1.23978 -0.0107391 3.29111e-11)
(1.23843 -0.0126992 -2.81093e-27)
(1.23701 -0.0145658 0)
(1.2355 -0.0163421 2.73998e-27)
(1.23393 -0.0180311 0)
(1.22775 0.0419646 0)
(1.23025 0.0386314 0)
(1.23198 0.0353411 1.2021e-27)
(1.23346 0.0321208 0)
(1.2348 0.0289635 0)
(1.23594 0.0258699 0)
(1.23687 0.0228474 0)
(1.23758 0.0199033 0)
(1.2381 0.0170426 -1.71883e-27)
(1.23844 0.0142685 0)
(1.23861 0.0115836 2.71468e-27)
(1.23862 0.00898982 0)
(1.23847 0.00648814 0)
(1.23818 0.00407908 -2.72024e-27)
(1.23775 0.00176258 0)
(1.2372 -0.000461911 2.70621e-27)
(1.23652 -0.00259537 -1.29444e-27)
(1.23573 -0.00463913 0)
(1.23484 -0.00659482 0)
(1.23384 -0.00846436 0)
(1.23276 -0.0102498 2.62157e-27)
(1.23158 -0.0119536 0)
(1.23033 -0.013578 0)
(1.229 -0.0151257 0)
(1.21868 0.0375341 0)
(1.22113 0.0346867 0)
(1.22296 0.0318653 -1.2021e-27)
(1.22456 0.0290932 0)
(1.22603 0.0263658 0)
(1.2273 0.0236847 0)
(1.22838 0.021057 0)
(1.22925 0.0184896 0)
(1.22995 0.0159875 1.71883e-27)
(1.23047 0.0135544 0)
(1.23083 0.0111931 -2.71468e-27)
(1.23104 0.00890599 0)
(1.23109 0.0066946 0)
(1.231 0.00455998 2.72024e-27)
(1.23078 0.00250263 0)
(1.23043 0.000522601 -2.70621e-27)
(1.22996 -0.00138047 1.29444e-27)
(1.22938 -0.00320728 0)
(1.22869 -0.00495885 0)
(1.2279 -0.00663646 0)
(1.22702 -0.0082416 -2.62157e-27)