/*--------------------------------*- C++ -*----------------------------------*\
  =========                 |
  \\      /  F ield         | OpenFOAM: The Open Source CFD Toolbox
   \\    /   O peration     | Website:  https://openfoam.org
    \\  /    A nd           | Version:  7
     \\/     M anipulation  |
\*---------------------------------------------------------------------------*/
FoamFile
{
    version     2.0;
    format      ascii;
    class       volScalarField;
    location    "45";
    object      p;
}
// * * * * * * * * * * * * * * * * * * * * * * * * * * * * * * * * * * * * * //

dimensions      [0 2 -2 0 0 0 0];

internalField   nonuniform List<scalar> 
10880
(
-0.310665
-0.315433
-0.317761
-0.318026
-0.316992
-0.314916
-0.311923
-0.308134
-0.303654
-0.298571
-0.292965
-0.28691
-0.280482
-0.273758
-0.266823
-0.259769
-0.252692
-0.245666
-0.23878
-0.232379
-0.316034
-0.320027
-0.321761
-0.321585
-0.320184
-0.317796
-0.31454
-0.310528
-0.305853
-0.300597
-0.294828
-0.288613
-0.282016
-0.275105
-0.267953
-0.260653
-0.253297
-0.245905
-0.238492
-0.232019
-0.326431
-0.328933
-0.329515
-0.328473
-0.326345
-0.323337
-0.319554
-0.315092
-0.310029
-0.304426
-0.298336
-0.291808
-0.284888
-0.277623
-0.270069
-0.26231
-0.254439
-0.246379
-0.237981
-0.231292
-0.341256
-0.341656
-0.34059
-0.338286
-0.335088
-0.331159
-0.32659
-0.321455
-0.315808
-0.309687
-0.303124
-0.296144
-0.288769
-0.281019
-0.272924
-0.264557
-0.256008
-0.247088
-0.237381
-0.230224
-0.359783
-0.357595
-0.354461
-0.350545
-0.345964
-0.340833
-0.33523
-0.329204
-0.322783
-0.31598
-0.308801
-0.301244
-0.293305
-0.284976
-0.276259
-0.267204
-0.257899
-0.248059
-0.236905
-0.228917
-0.381295
-0.37615
-0.370614
-0.364794
-0.35856
-0.351979
-0.34512
-0.338006
-0.330635
-0.322994
-0.315061
-0.306809
-0.298209
-0.289227
-0.279836
-0.270062
-0.259986
-0.249257
-0.236683
-0.227418
-0.405163
-0.396789
-0.388603
-0.380658
-0.372561
-0.364335
-0.356038
-0.347666
-0.339188
-0.330561
-0.321737
-0.312665
-0.303291
-0.293558
-0.283415
-0.272855
-0.261922
-0.25019
-0.236105
-0.225097
-0.430855
-0.419063
-0.408054
-0.397838
-0.387744
-0.377741
-0.367873
-0.35811
-0.348387
-0.338636
-0.328786
-0.31877
-0.308525
-0.297993
-0.287122
-0.275888
-0.264257
-0.251714
-0.236884
-0.225357
-0.45783
-0.442483
-0.428577
-0.416039
-0.40389
-0.392036
-0.380502
-0.369226
-0.35811
-0.347062
-0.336003
-0.324867
-0.313616
-0.302243
-0.290787
-0.279341
-0.268029
-0.257092
-0.247766
-0.242364
-0.485398
-0.466457
-0.449667
-0.434836
-0.420639
-0.406897
-0.393603
-0.380656
-0.367923
-0.355291
-0.342668
-0.329988
-0.317219
-0.304367
-0.291476
-0.278619
-0.265892
-0.253568
-0.242566
-0.232132
-0.512552
-0.490099
-0.470551
-0.453539
-0.437346
-0.421687
-0.406514
-0.391687
-0.377048
-0.362475
-0.347886
-0.333235
-0.318518
-0.303769
-0.289051
-0.274448
-0.260047
-0.246041
-0.232842
-0.219319
-0.537844
-0.512131
-0.490076
-0.471061
-0.452942
-0.435311
-0.418081
-0.401089
-0.384176
-0.367243
-0.350249
-0.333202
-0.31615
-0.299174
-0.282377
-0.26586
-0.249721
-0.23411
-0.219231
-0.204104
-0.559333
-0.530826
-0.506646
-0.485852
-0.465871
-0.446172
-0.426654
-0.407165
-0.387593
-0.367913
-0.348168
-0.328453
-0.308899
-0.28965
-0.270852
-0.252634
-0.235104
-0.218392
-0.202603
-0.186963
-0.574628
-0.544024
-0.518226
-0.495913
-0.474118
-0.45223
-0.430175
-0.407881
-0.385344
-0.362667
-0.340019
-0.317609
-0.29565
-0.274346
-0.253868
-0.234347
-0.215875
-0.19854
-0.18236
-0.166737
-0.581019
-0.549234
-0.522435
-0.498887
-0.475334
-0.451154
-0.426382
-0.4011
-0.375486
-0.349815
-0.324405
-0.299575
-0.275607
-0.252728
-0.231102
-0.210828
-0.191954
-0.174497
-0.158384
-0.143225
-0.575683
-0.543815
-0.516713
-0.492249
-0.467041
-0.440566
-0.413062
-0.38485
-0.356341
-0.328004
-0.3003
-0.27363
-0.2483
-0.224523
-0.202414
-0.182013
-0.163301
-0.1462
-0.130566
-0.116305
-0.555942
-0.525208
-0.498565
-0.473559
-0.446908
-0.418323
-0.388337
-0.357573
-0.326699
-0.296369
-0.267148
-0.239467
-0.213613
-0.189737
-0.167881
-0.14801
-0.130027
-0.113756
-0.099011
-0.0860999
-0.519555
-0.491218
-0.465833
-0.440748
-0.413041
-0.382791
-0.350898
-0.318316
-0.285953
-0.254603
-0.224878
-0.197186
-0.171745
-0.14862
-0.127761
-0.109056
-0.0923342
-0.0773218
-0.0638068
-0.052557
-0.464994
-0.440291
-0.416986
-0.392401
-0.364243
-0.333072
-0.300183
-0.266841
-0.234147
-0.202968
-0.173899
-0.147274
-0.123215
-0.101683
-0.0825429
-0.0656118
-0.0506533
-0.0373001
-0.0253082
-0.0160241
-0.391681
-0.371756
-0.351356
-0.327984
-0.300212
-0.269144
-0.236454
-0.203657
-0.17197
-0.14226
-0.115049
-0.0905672
-0.0688236
-0.0496839
-0.032939
-0.0183563
-0.00564069
0.00568162
0.0157612
0.0225341
-0.300156
-0.285997
-0.269316
-0.247989
-0.221633
-0.191912
-0.160803
-0.129983
-0.100688
-0.0737443
-0.0495459
-0.028203
-0.0096208
0.00641651
0.0201707
0.0319048
0.04196
0.0508982
0.0587815
0.0628063
-0.192127
-0.184551
-0.172357
-0.153995
-0.130164
-0.10315
-0.0750693
-0.0476534
-0.022102
0.000894865
0.0210597
0.0384009
0.0531036
0.0654423
0.075709
0.0841818
0.0912352
0.0974916
0.102893
0.103952
-0.0703169
-0.0701567
-0.0630527
-0.0485075
-0.0284687
-0.00547215
0.0182315
0.0409488
0.0616015
0.0796469
0.0949381
0.107583
0.117828
0.12598
0.132338
0.137183
0.140888
0.144018
0.146371
0.144443
0.0609176
0.0537327
0.0550924
0.0649327
0.0801513
0.0979474
0.11611
0.133077
0.14793
0.160284
0.170108
0.177583
0.182988
0.186625
0.188779
0.189709
0.189656
0.188834
0.187088
0.18252
0.197181
0.182445
0.177735
0.182215
0.191763
0.203449
0.215222
0.225713
0.234197
0.240437
0.24451
0.246654
0.247167
0.246354
0.244515
0.241927
0.238643
0.234216
0.229033
0.228841
0.333085
0.310959
0.300065
0.298773
0.302098
0.307117
0.312017
0.315665
0.317526
0.3175
0.315741
0.312519
0.308131
0.302868
0.297006
0.290779
0.284203
0.276989
0.269858
0.267152
0.463029
0.433967
0.417031
0.409868
0.406798
0.405008
0.402976
0.399815
0.39517
0.389059
0.381687
0.373338
0.364294
0.354816
0.345136
0.335438
0.32573
0.315847
0.306446
0.300621
0.581486
0.546193
0.523644
0.510859
0.501629
0.493321
0.484717
0.475169
0.464481
0.452758
0.440245
0.427218
0.413938
0.400629
0.38748
0.374629
0.362081
0.34973
0.338061
0.329211
0.683297
0.642707
0.615255
0.597449
0.582704
0.568591
0.554179
0.539031
0.523082
0.506506
0.489565
0.472526
0.45562
0.439037
0.422926
0.407385
0.39242
0.377961
0.364323
0.352857
0.76395
0.719199
0.687811
0.665914
0.646667
0.627836
0.608733
0.589088
0.568937
0.5485
0.528048
0.507835
0.488067
0.468901
0.450453
0.432794
0.415928
0.399812
0.384613
0.37106
0.819832
0.772213
0.738074
0.713285
0.690855
0.6687
0.646304
0.623516
0.600438
0.57732
0.554436
0.532027
0.51028
0.489332
0.469273
0.450153
0.431979
0.414725
0.398446
0.383439
0.84842
0.79934
0.763784
0.737499
0.713421
0.689549
0.665456
0.641052
0.616473
0.591981
0.567853
0.544322
0.521565
0.499708
0.478826
0.458961
0.440121
0.422287
0.405458
0.389704
0.84842
0.79934
0.763784
0.737499
0.713421
0.689549
0.665456
0.641052
0.616473
0.591981
0.567853
0.544322
0.521565
0.499708
0.478826
0.458961
0.440121
0.422287
0.405458
0.389704
0.819832
0.772213
0.738074
0.713285
0.690855
0.6687
0.646304
0.623516
0.600438
0.57732
0.554436
0.532027
0.51028
0.489332
0.469273
0.450153
0.431979
0.414725
0.398446
0.383439
0.76395
0.719199
0.687811
0.665914
0.646667
0.627836
0.608733
0.589088
0.568937
0.5485
0.528048
0.507835
0.488067
0.468901
0.450453
0.432794
0.415928
0.399812
0.384613
0.37106
0.683297
0.642707
0.615255
0.597449
0.582704
0.568591
0.554179
0.539031
0.523082
0.506506
0.489565
0.472526
0.45562
0.439037
0.422926
0.407385
0.39242
0.377961
0.364323
0.352857
0.581486
0.546193
0.523644
0.510859
0.501629
0.493321
0.484717
0.475169
0.464481
0.452758
0.440245
0.427218
0.413938
0.400629
0.38748
0.374629
0.362081
0.34973
0.338061
0.329211
0.463029
0.433967
0.417031
0.409868
0.406798
0.405008
0.402976
0.399815
0.39517
0.389059
0.381687
0.373338
0.364294
0.354816
0.345136
0.335438
0.32573
0.315847
0.306446
0.300621
0.333085
0.310959
0.300065
0.298773
0.302098
0.307117
0.312017
0.315665
0.317526
0.3175
0.315741
0.312519
0.308131
0.302868
0.297006
0.290779
0.284203
0.276989
0.269858
0.267152
0.197181
0.182445
0.177735
0.182215
0.191763
0.203449
0.215222
0.225713
0.234197
0.240437
0.24451
0.246654
0.247167
0.246354
0.244515
0.241927
0.238643
0.234216
0.229033
0.228841
0.0609176
0.0537327
0.0550924
0.0649327
0.0801513
0.0979474
0.11611
0.133077
0.14793
0.160284
0.170108
0.177583
0.182988
0.186625
0.188779
0.189709
0.189656
0.188834
0.187088
0.18252
-0.0703169
-0.0701567
-0.0630527
-0.0485075
-0.0284687
-0.00547215
0.0182315
0.0409488
0.0616015
0.0796469
0.0949381
0.107583
0.117828
0.12598
0.132338
0.137183
0.140888
0.144018
0.146371
0.144443
-0.192127
-0.184551
-0.172357
-0.153995
-0.130164
-0.10315
-0.0750693
-0.0476534
-0.022102
0.000894869
0.0210597
0.0384009
0.0531036
0.0654423
0.075709
0.0841818
0.0912352
0.0974916
0.102893
0.103952
-0.300156
-0.285997
-0.269316
-0.247989
-0.221633
-0.191912
-0.160803
-0.129983
-0.100688
-0.0737443
-0.0495459
-0.028203
-0.00962079
0.00641651
0.0201707
0.0319048
0.04196
0.0508982
0.0587815
0.0628063
-0.391681
-0.371756
-0.351356
-0.327984
-0.300212
-0.269144
-0.236454
-0.203657
-0.17197
-0.14226
-0.115049
-0.0905672
-0.0688236
-0.0496839
-0.032939
-0.0183563
-0.00564069
0.00568162
0.0157612
0.0225341
-0.464994
-0.440291
-0.416986
-0.392401
-0.364243
-0.333072
-0.300183
-0.266841
-0.234147
-0.202968
-0.173899
-0.147274
-0.123215
-0.101683
-0.0825429
-0.0656118
-0.0506533
-0.0373001
-0.0253082
-0.0160241
-0.519555
-0.491218
-0.465833
-0.440748
-0.413041
-0.382791
-0.350898
-0.318316
-0.285953
-0.254603
-0.224878
-0.197186
-0.171745
-0.14862
-0.127761
-0.109056
-0.0923342
-0.0773218
-0.0638068
-0.052557
-0.555942
-0.525208
-0.498565
-0.473559
-0.446908
-0.418323
-0.388337
-0.357573
-0.326699
-0.296369
-0.267148
-0.239467
-0.213613
-0.189737
-0.167881
-0.14801
-0.130027
-0.113756
-0.099011
-0.0860999
-0.575682
-0.543815
-0.516713
-0.492249
-0.467041
-0.440566
-0.413062
-0.38485
-0.356341
-0.328004
-0.3003
-0.27363
-0.2483
-0.224523
-0.202414
-0.182013
-0.163301
-0.1462
-0.130566
-0.116305
-0.581019
-0.549234
-0.522435
-0.498887
-0.475334
-0.451154
-0.426382
-0.4011
-0.375486
-0.349815
-0.324405
-0.299575
-0.275607
-0.252728
-0.231102
-0.210828
-0.191954
-0.174497
-0.158384
-0.143225
-0.574628
-0.544024
-0.518226
-0.495913
-0.474118
-0.45223
-0.430175
-0.407881
-0.385344
-0.362667
-0.340019
-0.317609
-0.29565
-0.274346
-0.253868
-0.234347
-0.215875
-0.19854
-0.18236
-0.166737
-0.559333
-0.530826
-0.506646
-0.485852
-0.465871
-0.446172
-0.426654
-0.407165
-0.387593
-0.367913
-0.348168
-0.328453
-0.308899
-0.28965
-0.270852
-0.252634
-0.235104
-0.218392
-0.202603
-0.186963
-0.537844
-0.512131
-0.490076
-0.471061
-0.452942
-0.435311
-0.418081
-0.401089
-0.384176
-0.367243
-0.350249
-0.333202
-0.31615
-0.299174
-0.282377
-0.26586
-0.249721
-0.23411
-0.219231
-0.204104
-0.512552
-0.490099
-0.470551
-0.453539
-0.437346
-0.421687
-0.406514
-0.391687
-0.377048
-0.362475
-0.347886
-0.333235
-0.318518
-0.303769
-0.289051
-0.274448
-0.260047
-0.246041
-0.232842
-0.219319
-0.485398
-0.466457
-0.449667
-0.434836
-0.420639
-0.406897
-0.393603
-0.380656
-0.367923
-0.355291
-0.342668
-0.329988
-0.317219
-0.304367
-0.291476
-0.278619
-0.265892
-0.253568
-0.242566
-0.232132
-0.45783
-0.442483
-0.428577
-0.416039
-0.40389
-0.392036
-0.380502
-0.369226
-0.358109
-0.347062
-0.336003
-0.324867
-0.313616
-0.302243
-0.290787
-0.279341
-0.268029
-0.257092
-0.247766
-0.242364
-0.430855
-0.419063
-0.408054
-0.397838
-0.387744
-0.377741
-0.367873
-0.35811
-0.348387
-0.338636
-0.328786
-0.31877
-0.308525
-0.297993
-0.287122
-0.275888
-0.264257
-0.251714
-0.236884
-0.225357
-0.405163
-0.396789
-0.388603
-0.380658
-0.372561
-0.364335
-0.356038
-0.347666
-0.339188
-0.330561
-0.321737
-0.312665
-0.303291
-0.293558
-0.283415
-0.272855
-0.261922
-0.25019
-0.236105
-0.225097
-0.381295
-0.37615
-0.370614
-0.364794
-0.35856
-0.351979
-0.34512
-0.338006
-0.330635
-0.322994
-0.315061
-0.306809
-0.298209
-0.289227
-0.279836
-0.270062
-0.259986
-0.249257
-0.236683
-0.227418
-0.359783
-0.357595
-0.354461
-0.350545
-0.345964
-0.340833
-0.33523
-0.329204
-0.322783
-0.31598
-0.308801
-0.301244
-0.293305
-0.284976
-0.276259
-0.267204
-0.257899
-0.248059
-0.236905
-0.228917
-0.341256
-0.341656
-0.34059
-0.338286
-0.335088
-0.331159
-0.32659
-0.321455
-0.315808
-0.309687
-0.303124
-0.296144
-0.288769
-0.281019
-0.272924
-0.264557
-0.256008
-0.247088
-0.237381
-0.230224
-0.326431
-0.328933
-0.329515
-0.328473
-0.326345
-0.323337
-0.319554
-0.315092
-0.310029
-0.304426
-0.298336
-0.291808
-0.284888
-0.277623
-0.270069
-0.26231
-0.254439
-0.246379
-0.237981
-0.231292
-0.316034
-0.320027
-0.321761
-0.321585
-0.320184
-0.317796
-0.31454
-0.310528
-0.305853
-0.300597
-0.294828
-0.288613
-0.282016
-0.275105
-0.267953
-0.260653
-0.253297
-0.245905
-0.238492
-0.232019
-0.310665
-0.315433
-0.317761
-0.318026
-0.316992
-0.314916
-0.311923
-0.308134
-0.303654
-0.298571
-0.292965
-0.28691
-0.280482
-0.273758
-0.266823
-0.259769
-0.252692
-0.245666
-0.23878
-0.232379
-0.227014
-0.220891
-0.214527
-0.20825
-0.202078
-0.195982
-0.189964
-0.184035
-0.178203
-0.172474
-0.166854
-0.161349
-0.155962
-0.150697
-0.145559
-0.140549
-0.135671
-0.130926
-0.126315
-0.121838
-0.117496
-0.113288
-0.109214
-0.105271
-0.101459
-0.0977745
-0.0942165
-0.0907821
-0.0874684
-0.0842728
-0.0811921
-0.0782233
-0.0753631
-0.0726083
-0.0699556
-0.0674018
-0.0649434
-0.0625773
-0.0603001
-0.0581087
-0.0559999
-0.0539706
-0.0520177
-0.0501384
-0.0483296
-0.0465886
-0.0449127
-0.0432992
-0.0417455
-0.0402492
-0.0388078
-0.0374192
-0.036081
-0.0347911
-0.0335474
-0.032348
-0.031191
-0.0300746
-0.028997
-0.0279565
-0.0269516
-0.0259807
-0.0250424
-0.0241352
-0.0232579
-0.022409
-0.0215875
-0.0207922
-0.0200219
-0.0192756
-0.0185523
-0.017851
-0.0171707
-0.0165107
-0.0158701
-0.0152481
-0.014644
-0.0140569
-0.0134863
-0.0129315
-0.0123918
-0.0118667
-0.0113557
-0.0108581
-0.0103735
-0.00990135
-0.00944126
-0.00899278
-0.00855548
-0.00812896
-0.00771286
-0.0073068
-0.00691046
-0.00652349
-0.0061456
-0.00577647
-0.00541582
-0.00506338
-0.00471887
-0.00438204
-0.00405263
-0.00373038
-0.00341506
-0.0031064
-0.00280415
-0.00250805
-0.00221783
-0.00193319
-0.00165381
-0.00137934
-0.0011094
-0.000843555
-0.0005813
-0.000321973
-6.45688e-05
0.000190554
0.000437364
0.000696707
0.00113064
0.00145174
-0.228949
-0.222934
-0.216125
-0.209612
-0.203345
-0.197182
-0.1911
-0.185115
-0.179236
-0.173467
-0.16781
-0.16227
-0.156851
-0.151557
-0.146389
-0.141353
-0.136448
-0.131678
-0.127042
-0.122542
-0.118177
-0.113947
-0.109851
-0.105888
-0.102055
-0.098352
-0.0947752
-0.0913225
-0.0879912
-0.0847784
-0.0816811
-0.0786961
-0.0758203
-0.0730504
-0.070383
-0.0678149
-0.0653428
-0.0629633
-0.0606732
-0.0584693
-0.0563484
-0.0543074
-0.0523432
-0.0504529
-0.0486335
-0.0468823
-0.0451965
-0.0435734
-0.0420105
-0.0405052
-0.0390553
-0.0376583
-0.036312
-0.0350144
-0.0337632
-0.0325566
-0.0313926
-0.0302694
-0.0291853
-0.0281385
-0.0271275
-0.0261507
-0.0252067
-0.024294
-0.0234113
-0.0225574
-0.0217309
-0.0209308
-0.0201558
-0.019405
-0.0186773
-0.0179718
-0.0172875
-0.0166236
-0.0159791
-0.0153534
-0.0147457
-0.0141552
-0.0135812
-0.0130231
-0.0124803
-0.0119521
-0.0114381
-0.0109376
-0.0104502
-0.00997543
-0.00951272
-0.00906169
-0.00862192
-0.00819302
-0.00777459
-0.00736629
-0.00696777
-0.0065787
-0.00619877
-0.00582768
-0.00546514
-0.00511087
-0.00476461
-0.0044261
-0.00409509
-0.00377133
-0.00345457
-0.00314458
-0.00284111
-0.0025439
-0.0022527
-0.00196723
-0.00168721
-0.00141231
-0.00114218
-0.000876437
-0.000614648
-0.000356233
-0.000100311
0.000152744
0.000397172
0.00065199
0.00107019
0.00138368
-0.232619
-0.226906
-0.219224
-0.212231
-0.205773
-0.199472
-0.193259
-0.187162
-0.181191
-0.175342
-0.169614
-0.16401
-0.158532
-0.153182
-0.147963
-0.142878
-0.137927
-0.133111
-0.128433
-0.123891
-0.119486
-0.115217
-0.111083
-0.107082
-0.103214
-0.0994754
-0.0958643
-0.0923782
-0.0890143
-0.0857697
-0.0826414
-0.0796262
-0.076721
-0.0739224
-0.0712272
-0.068632
-0.0661335
-0.0637284
-0.0614134
-0.0591854
-0.057041
-0.0549773
-0.052991
-0.0510794
-0.0492393
-0.0474681
-0.0457628
-0.044121
-0.0425399
-0.0410171
-0.0395501
-0.0381366
-0.0367745
-0.0354614
-0.0341953
-0.0329743
-0.0317964
-0.0306598
-0.0295626
-0.0285033
-0.0274801
-0.0264915
-0.0255361
-0.0246125
-0.0237192
-0.0228549
-0.0220185
-0.0212087
-0.0204245
-0.0196647
-0.0189283
-0.0182143
-0.0175218
-0.01685
-0.0161979
-0.0155648
-0.0149498
-0.0143523
-0.0137716
-0.013207
-0.0126579
-0.0121236
-0.0116036
-0.0110974
-0.0106044
-0.0101241
-0.00965615
-0.00920002
-0.0087553
-0.0083216
-0.00789853
-0.00748572
-0.00708284
-0.00668955
-0.00630554
-0.0059305
-0.00556416
-0.00520622
-0.00485645
-0.00451457
-0.00418034
-0.00385352
-0.00353389
-0.00322121
-0.00291525
-0.00261578
-0.00232258
-0.0020354
-0.001754
-0.00147812
-0.00120748
-0.000941782
-0.000680709
-0.000423839
-0.000170515
7.88525e-05
0.000319012
0.000565707
0.00095501
0.00125424
-0.237586
-0.232481
-0.223567
-0.215863
-0.209132
-0.202633
-0.196224
-0.189959
-0.183853
-0.177892
-0.172068
-0.166379
-0.160825
-0.155407
-0.150125
-0.14498
-0.139973
-0.135105
-0.130374
-0.125783
-0.121329
-0.117012
-0.112832
-0.108785
-0.104872
-0.101089
-0.0974334
-0.093904
-0.0904973
-0.0872107
-0.084041
-0.0809852
-0.07804
-0.0752022
-0.0724686
-0.0698358
-0.0673005
-0.0648595
-0.0625094
-0.0602471
-0.0580694
-0.0559732
-0.0539553
-0.0520129
-0.0501429
-0.0483425
-0.0466091
-0.0449398
-0.0433321
-0.0417835
-0.0402915
-0.0388538
-0.0374681
-0.0361322
-0.0348441
-0.0336017
-0.0324032
-0.0312465
-0.0301299
-0.0290518
-0.0280105
-0.0270044
-0.026032
-0.0250918
-0.0241826
-0.0233029
-0.0224516
-0.0216274
-0.0208291
-0.0200558
-0.0193063
-0.0185796
-0.0178749
-0.0171911
-0.0165275
-0.0158832
-0.0152575
-0.0146495
-0.0140587
-0.0134842
-0.0129255
-0.012382
-0.011853
-0.0113381
-0.0108367
-0.0103483
-0.00987238
-0.00940857
-0.00895641
-0.00851549
-0.00808542
-0.00766584
-0.00725639
-0.00685674
-0.00646658
-0.00608561
-0.00571353
-0.00535007
-0.00499499
-0.00464801
-0.00430892
-0.00397748
-0.00365347
-0.00333668
-0.0030269
-0.00272395
-0.00242761
-0.00213771
-0.00185405
-0.00157645
-0.00130473
-0.0010387
-0.000778185
-0.000522969
-0.000272677
-2.77796e-05
0.000207155
0.000443801
0.000795679
0.00107584
-0.243129
-0.238936
-0.228601
-0.220068
-0.21304
-0.206308
-0.199655
-0.193184
-0.18692
-0.180834
-0.174906
-0.16913
-0.163502
-0.158019
-0.152679
-0.147481
-0.142424
-0.137508
-0.132731
-0.128094
-0.123595
-0.119233
-0.115006
-0.110914
-0.106954
-0.103124
-0.0994223
-0.0958458
-0.0923921
-0.0890583
-0.0858416
-0.0827389
-0.0797472
-0.0768632
-0.0740838
-0.0714058
-0.0688259
-0.0663409
-0.0639476
-0.0616429
-0.0594235
-0.0572864
-0.0552286
-0.0532471
-0.051339
-0.0495014
-0.0477317
-0.046027
-0.0443849
-0.0428028
-0.0412782
-0.0398089
-0.0383924
-0.0370268
-0.0357097
-0.0344392
-0.0332133
-0.0320302
-0.030888
-0.0297851
-0.0287197
-0.0276902
-0.0266952
-0.0257332
-0.0248027
-0.0239025
-0.0230313
-0.0221878
-0.0213709
-0.0205794
-0.0198124
-0.0190688
-0.0183477
-0.017648
-0.016969
-0.0163098
-0.0156695
-0.0150476
-0.0144431
-0.0138555
-0.013284
-0.0127281
-0.0121872
-0.0116606
-0.011148
-0.0106486
-0.0101621
-0.00968805
-0.00922593
-0.00877535
-0.00833592
-0.00790727
-0.00748904
-0.0070809
-0.00668251
-0.00629358
-0.00591383
-0.00554297
-0.00518076
-0.00482695
-0.0044813
-0.00414361
-0.00381367
-0.00349129
-0.00317629
-0.00286851
-0.00256778
-0.00227397
-0.00198696
-0.00170664
-0.00143293
-0.00116576
-0.000905103
-0.000650958
-0.000403238
-0.000162487
6.75058e-05
0.000294286
0.000605984
0.000864832
-0.248047
-0.244912
-0.233303
-0.224099
-0.216866
-0.209907
-0.203002
-0.196333
-0.189926
-0.183732
-0.177721
-0.171883
-0.166209
-0.160691
-0.155322
-0.1501
-0.14502
-0.140082
-0.135282
-0.13062
-0.126094
-0.121703
-0.117445
-0.113318
-0.109322
-0.105454
-0.101711
-0.0980922
-0.0945946
-0.0912156
-0.0879526
-0.0848028
-0.0817634
-0.0788312
-0.0760034
-0.0732768
-0.0706485
-0.0681152
-0.065674
-0.0633218
-0.0610554
-0.058872
-0.0567686
-0.0547421
-0.0527899
-0.0509092
-0.0490971
-0.047351
-0.0456684
-0.0440468
-0.0424836
-0.0409767
-0.0395236
-0.0381223
-0.0367705
-0.0354663
-0.0342077
-0.0329927
-0.0318196
-0.0306866
-0.0295921
-0.0285344
-0.0275119
-0.0265233
-0.025567
-0.0246418
-0.0237463
-0.0228793
-0.0220397
-0.0212261
-0.0204377
-0.0196734
-0.0189321
-0.018213
-0.0175151
-0.0168375
-0.0161796
-0.0155404
-0.0149193
-0.0143155
-0.0137284
-0.0131573
-0.0126016
-0.0120608
-0.0115342
-0.0110214
-0.0105219
-0.0100352
-0.00956083
-0.00909837
-0.00864742
-0.0082076
-0.00777854
-0.00735991
-0.00695137
-0.00655262
-0.00616337
-0.00578336
-0.00541231
-0.00505
-0.0046962
-0.0043507
-0.00401333
-0.00368389
-0.00336225
-0.00304826
-0.00274181
-0.0024428
-0.00215118
-0.00186691
-0.00158999
-0.00132046
-0.00105844
-0.000804083
-0.00055756
-0.00031948
-9.28298e-05
0.000126382
0.000400951
0.00063927
-0.250353
-0.248083
-0.2361
-0.227067
-0.220026
-0.213049
-0.206085
-0.199385
-0.19295
-0.186725
-0.180687
-0.174829
-0.169139
-0.163609
-0.158231
-0.153
-0.147911
-0.142961
-0.138148
-0.13347
-0.128924
-0.12451
-0.120226
-0.11607
-0.112041
-0.108136
-0.104355
-0.100694
-0.0971525
-0.0937275
-0.0904167
-0.0872176
-0.0841276
-0.0811439
-0.0782638
-0.0754844
-0.0728028
-0.0702163
-0.0677217
-0.0653163
-0.0629971
-0.0607613
-0.058606
-0.0565283
-0.0545255
-0.052595
-0.050734
-0.0489399
-0.0472101
-0.0455424
-0.0439341
-0.042383
-0.0408869
-0.0394435
-0.0380507
-0.0367065
-0.035409
-0.0341561
-0.0329462
-0.0317773
-0.0306479
-0.0295563
-0.028501
-0.0274804
-0.0264931
-0.0255378
-0.0246131
-0.0237178
-0.0228506
-0.0220104
-0.0211961
-0.0204067
-0.0196411
-0.0188983
-0.0181775
-0.0174778
-0.0167983
-0.0161383
-0.0154969
-0.0148735
-0.0142674
-0.0136779
-0.0131043
-0.0125461
-0.0120027
-0.0114736
-0.0109583
-0.0104562
-0.00996692
-0.00949002
-0.00902506
-0.00857165
-0.00812943
-0.00769804
-0.00727714
-0.00686643
-0.0064656
-0.00607439
-0.00569253
-0.0053198
-0.00495597
-0.00460084
-0.00425424
-0.00391601
-0.00358601
-0.00326413
-0.0029503
-0.00264444
-0.00234655
-0.00205665
-0.0017748
-0.00150112
-0.00123582
-0.000979162
-0.000731473
-0.000493378
-0.000267073
-5.11129e-05
0.000194551
0.000416477
-0.249129
-0.24522
-0.234549
-0.226719
-0.22003
-0.213253
-0.206593
-0.200204
-0.194039
-0.188055
-0.182242
-0.17659
-0.17109
-0.165732
-0.160509
-0.155417
-0.150451
-0.145609
-0.140889
-0.136289
-0.131808
-0.127445
-0.123199
-0.11907
-0.115057
-0.111159
-0.107375
-0.103703
-0.100143
-0.0966926
-0.0933503
-0.0901144
-0.0869828
-0.0839535
-0.0810243
-0.0781929
-0.0754569
-0.0728138
-0.0702612
-0.0677965
-0.0654171
-0.0631205
-0.0609041
-0.0587653
-0.0567015
-0.0547103
-0.0527891
-0.0509356
-0.0491471
-0.0474215
-0.0457564
-0.0441495
-0.0425986
-0.0411016
-0.0396565
-0.0382611
-0.0369136
-0.0356121
-0.0343548
-0.0331398
-0.0319656
-0.0308304
-0.0297327
-0.028671
-0.0276438
-0.0266498
-0.0256875
-0.0247558
-0.0238533
-0.022979
-0.0221316
-0.02131
-0.0205134
-0.0197405
-0.0189906
-0.0182627
-0.0175559
-0.0168695
-0.0162025
-0.0155544
-0.0149243
-0.0143115
-0.0137155
-0.0131355
-0.0125711
-0.0120216
-0.0114865
-0.0109653
-0.0104575
-0.00996268
-0.00948036
-0.00901014
-0.00855163
-0.00810448
-0.00766832
-0.00724285
-0.00682774
-0.00642272
-0.00602753
-0.00564193
-0.00526568
-0.00489861
-0.00454053
-0.00419129
-0.00385076
-0.00351886
-0.00319551
-0.00288068
-0.00257439
-0.00227669
-0.00198767
-0.0017075
-0.00143641
-0.00117471
-0.000922771
-0.000681126
-0.000451162
-0.000232613
-3.7722e-06
0.000208841
-0.219132
-0.21907
-0.218602
-0.215843
-0.211548
-0.206624
-0.20146
-0.196163
-0.190799
-0.185431
-0.180103
-0.174842
-0.169663
-0.164573
-0.15958
-0.154687
-0.149896
-0.145209
-0.140628
-0.136153
-0.131785
-0.127524
-0.123371
-0.119326
-0.115389
-0.11156
-0.107838
-0.104222
-0.100712
-0.0973059
-0.0940033
-0.0908024
-0.0877016
-0.084699
-0.0817929
-0.0789812
-0.0762617
-0.0736323
-0.0710906
-0.0686344
-0.0662613
-0.0639689
-0.0617548
-0.0596166
-0.0575519
-0.0555584
-0.0536335
-0.0517751
-0.0499808
-0.0482484
-0.0465757
-0.0449604
-0.0434005
-0.0418939
-0.0404386
-0.0390327
-0.0376743
-0.0363615
-0.0350925
-0.0338658
-0.0326795
-0.0315322
-0.0304222
-0.0293482
-0.0283086
-0.0273021
-0.0263274
-0.0253832
-0.0244683
-0.0235816
-0.0227219
-0.0218882
-0.0210793
-0.0202945
-0.0195327
-0.0187929
-0.0180745
-0.0173764
-0.0166981
-0.0160386
-0.0153974
-0.0147736
-0.0141667
-0.0135761
-0.0130011
-0.0124412
-0.0118958
-0.0113645
-0.0108468
-0.0103422
-0.0098502
-0.0093705
-0.00890266
-0.00844633
-0.00800115
-0.00756681
-0.007143
-0.00672945
-0.00632589
-0.0059321
-0.00554785
-0.00517296
-0.00480726
-0.00445061
-0.00410291
-0.00376407
-0.00343405
-0.00311283
-0.00280045
-0.00249697
-0.00220253
-0.0019173
-0.00164152
-0.0013755
-0.00111961
-0.000874305
-0.000640303
-0.000417864
-0.000200926
2.08358e-06
-0.206896
-0.206003
-0.203678
-0.200146
-0.196135
-0.191966
-0.187681
-0.183293
-0.178839
-0.174359
-0.169881
-0.165422
-0.160993
-0.156605
-0.152267
-0.147985
-0.143764
-0.139609
-0.135525
-0.131513
-0.127578
-0.123722
-0.119947
-0.116255
-0.112646
-0.109123
-0.105686
-0.102335
-0.0990715
-0.0958941
-0.0928031
-0.089798
-0.0868779
-0.0840421
-0.0812894
-0.0786186
-0.0760284
-0.0735172
-0.0710835
-0.0687256
-0.0664418
-0.0642303
-0.0620893
-0.0600168
-0.0580111
-0.0560702
-0.0541921
-0.0523751
-0.0506171
-0.0489163
-0.0472709
-0.0456791
-0.0441389
-0.0426487
-0.0412067
-0.0398113
-0.0384607
-0.0371535
-0.0358879
-0.0346625
-0.0334759
-0.0323265
-0.0312131
-0.0301342
-0.0290886
-0.0280751
-0.0270923
-0.0261393
-0.0252148
-0.0243178
-0.0234472
-0.0226021
-0.0217814
-0.0209844
-0.02021
-0.0194575
-0.018726
-0.0180149
-0.0173232
-0.0166503
-0.0159956
-0.0153584
-0.014738
-0.0141338
-0.0135454
-0.0129721
-0.0124134
-0.0118689
-0.0113381
-0.0108204
-0.0103156
-0.00982319
-0.00934278
-0.00887403
-0.0084166
-0.00797018
-0.00753448
-0.00710921
-0.00669413
-0.00628901
-0.00589364
-0.00550783
-0.00513143
-0.00476431
-0.00440635
-0.00405749
-0.00371769
-0.00338692
-0.00306524
-0.00275271
-0.00244945
-0.00215563
-0.00187149
-0.0015973
-0.00133343
-0.0010803
-0.000838243
-0.000608064
-0.000396423
-0.000197706
-0.188166
-0.188792
-0.186394
-0.183346
-0.180408
-0.177432
-0.174267
-0.170919
-0.167443
-0.163865
-0.160227
-0.156546
-0.152838
-0.149117
-0.145398
-0.14169
-0.138004
-0.134347
-0.130727
-0.127149
-0.123619
-0.120141
-0.116719
-0.113356
-0.110055
-0.106818
-0.103648
-0.100546
-0.0975137
-0.0945513
-0.0916598
-0.0888395
-0.0860906
-0.0834129
-0.080806
-0.0782696
-0.0758029
-0.0734051
-0.0710752
-0.0688121
-0.0666148
-0.0644819
-0.0624121
-0.060404
-0.0584562
-0.0565673
-0.0547357
-0.0529599
-0.0512385
-0.0495697
-0.0479522
-0.0463845
-0.0448649
-0.043392
-0.0419643
-0.0405804
-0.0392388
-0.0379382
-0.0366771
-0.0354543
-0.0342684
-0.0331182
-0.0320024
-0.0309198
-0.0298693
-0.0288498
-0.02786
-0.0268991
-0.0259659
-0.0250595
-0.0241789
-0.0233232
-0.0224915
-0.021683
-0.0208968
-0.0201321
-0.0193882
-0.0186644
-0.0179599
-0.0172741
-0.0166063
-0.0159559
-0.0153224
-0.014705
-0.0141033
-0.0135169
-0.012945
-0.0123874
-0.0118435
-0.0113129
-0.0107952
-0.01029
-0.00979686
-0.00931554
-0.00884567
-0.00838693
-0.00793903
-0.0075017
-0.0070747
-0.00665779
-0.00625077
-0.00585346
-0.00546569
-0.00508734
-0.00471828
-0.00435845
-0.00400779
-0.00366629
-0.00333396
-0.00301086
-0.0026971
-0.0023928
-0.00209817
-0.00181345
-0.00153894
-0.00127502
-0.00102177
-0.000779996
-0.000564656
-0.00036402
-0.168735
-0.171076
-0.169406
-0.16711
-0.1651
-0.163084
-0.160837
-0.158363
-0.155723
-0.15297
-0.150109
-0.147158
-0.14414
-0.141073
-0.137969
-0.134841
-0.131701
-0.128557
-0.125419
-0.122294
-0.119189
-0.11611
-0.113062
-0.11005
-0.107077
-0.104148
-0.101266
-0.0984326
-0.0956507
-0.0929219
-0.0902479
-0.0876299
-0.0850688
-0.0825652
-0.0801196
-0.0777323
-0.0754032
-0.0731321
-0.0709187
-0.0687627
-0.0666633
-0.0646199
-0.0626317
-0.0606978
-0.0588172
-0.056989
-0.055212
-0.0534852
-0.0518075
-0.0501775
-0.0485943
-0.0470565
-0.0455629
-0.0441124
-0.0427038
-0.0413358
-0.0400073
-0.0387171
-0.037464
-0.036247
-0.0350648
-0.0339164
-0.0328007
-0.0317166
-0.0306632
-0.0296394
-0.0286443
-0.0276769
-0.0267364
-0.0258217
-0.0249321
-0.0240667
-0.0232246
-0.0224052
-0.0216077
-0.0208313
-0.0200753
-0.0193391
-0.0186219
-0.0179232
-0.0172423
-0.0165787
-0.0159318
-0.015301
-0.0146859
-0.0140858
-0.0135005
-0.0129293
-0.0123719
-0.0118278
-0.0112967
-0.0107781
-0.0102717
-0.00977712
-0.00929409
-0.00882228
-0.00836139
-0.00791117
-0.00747136
-0.00704173
-0.00662207
-0.00621219
-0.00581193
-0.00542115
-0.00503971
-0.00466754
-0.00430455
-0.00395072
-0.00360603
-0.0032705
-0.0029442
-0.00262722
-0.00231969
-0.00202179
-0.00173376
-0.00145586
-0.001188
-0.00093072
-0.000703553
-0.000494452
-0.150346
-0.153662
-0.152889
-0.15145
-0.150287
-0.149109
-0.147681
-0.146003
-0.144137
-0.14212
-0.139969
-0.137704
-0.135339
-0.132889
-0.130373
-0.127803
-0.125191
-0.122547
-0.119882
-0.117203
-0.114519
-0.111837
-0.109163
-0.106503
-0.103862
-0.101244
-0.0986542
-0.0960949
-0.0935695
-0.091081
-0.0886314
-0.0862229
-0.083857
-0.0815353
-0.0792587
-0.0770282
-0.0748445
-0.0727079
-0.0706189
-0.0685773
-0.0665834
-0.0646368
-0.0627372
-0.0608844
-0.0590778
-0.0573167
-0.0556007
-0.0539289
-0.0523006
-0.050715
-0.0491713
-0.0476686
-0.046206
-0.0447825
-0.0433973
-0.0420494
-0.0407379
-0.0394618
-0.0382203
-0.0370122
-0.0358368
-0.0346931
-0.0335803
-0.0324973
-0.0314434
-0.0304176
-0.0294192
-0.0284473
-0.0275011
-0.0265798
-0.0256827
-0.0248089
-0.0239579
-0.0231288
-0.0223209
-0.0215337
-0.0207665
-0.0200186
-0.0192894
-0.0185784
-0.017885
-0.0172086
-0.0165487
-0.0159048
-0.0152764
-0.0146631
-0.0140643
-0.0134797
-0.0129088
-0.0123512
-0.0118065
-0.0112744
-0.0107545
-0.0102465
-0.00974999
-0.00926476
-0.0087905
-0.00832692
-0.00787379
-0.00743086
-0.00699793
-0.00657479
-0.00616126
-0.00575719
-0.00536244
-0.00497688
-0.00460043
-0.00423301