/*--------------------------------*- C++ -*----------------------------------*\
  =========                 |
  \\      /  F ield         | OpenFOAM: The Open Source CFD Toolbox
   \\    /   O peration     | Website:  https://openfoam.org
    \\  /    A nd           | Version:  7
     \\/     M anipulation  |
\*---------------------------------------------------------------------------*/
FoamFile
{
    version     2.0;
    format      ascii;
    class       volScalarField;
    location    "55";
    object      p;
}
// * * * * * * * * * * * * * * * * * * * * * * * * * * * * * * * * * * * * * //

dimensions      [0 2 -2 0 0 0 0];

internalField   nonuniform List<scalar> 
3500
(
-0.230186
-0.233788
0.631525
0.59583
0.556302
0.631526
0.59583
0.556302
0.509711
0.464012
0.420998
0.381819
0.346711
0.315663
0.288317
0.61465
0.581923
0.545089
0.500606
0.456546
0.41481
0.376602
0.342234
0.311874
0.285386
0.58149
0.554526
0.52299
0.48265
0.441812
0.40259
0.366298
0.333387
0.304357
0.279502
0.533207
0.514463
0.490655
0.456344
0.420194
0.384644
0.351161
0.320378
0.293244
0.270657
0.471463
0.462954
0.44905
0.422425
0.392262
0.361427
0.331579
0.303524
0.278729
0.25889
0.398284
0.401674
0.399439
0.381841
0.358737
0.333497
0.308002
0.283196
0.261059
0.244305
0.315813
0.332797
0.343312
0.335699
0.320461
0.301518
0.281017
0.259943
0.240623
0.227075
0.226879
0.258476
0.282251
0.285243
0.278413
0.266258
0.251251
0.234301
0.217757
0.207278
0.134716
0.180922
0.217899
0.231769
0.233588
0.22844
0.219253
0.206916
0.193281
0.185226
0.0426688
0.10237
0.151945
0.176613
0.187063
0.188933
0.185728
0.178528
0.168233
0.160586
-0.0459056
0.0249233
0.0860884
0.121097
0.139889
0.148549
0.1511
0.149196
0.14342
0.134786
-0.12788
-0.0497934
0.0219977
0.0664675
0.0930631
0.108137
0.116064
0.119276
0.118728
0.113928
-0.199757
-0.120517
-0.0387646
0.0138293
0.0475103
0.068503
0.0813553
0.0891721
0.0936252
0.0933678
-0.261064
-0.183592
-0.095072
-0.0358091
0.00406498
0.030303
0.0475423
0.0591603
0.0675313
0.0713425
-0.311256
-0.236855
-0.146196
-0.0814544
-0.036561
-0.00594886
0.0150793
0.0297028
0.0409439
0.0481091
-0.349899
-0.280419
-0.190748
-0.122429
-0.0738233
-0.0398096
-0.0156211
0.001386
0.0147303
0.0246652
-0.377219
-0.314244
-0.227719
-0.158482
-0.107561
-0.0708809
-0.0442579
-0.0252678
-0.0104315
0.00174418
-0.394153
-0.338204
-0.25702
-0.189074
-0.137394
-0.0991594
-0.0707856
-0.0499325
-0.0340364
-0.0204508
-0.402053
-0.352427
-0.278882
-0.214077
-0.163053
-0.124334
-0.0949616
-0.0727695
-0.0558431
-0.0419212
-0.402312
-0.357427
-0.293629
-0.233702
-0.18457
-0.146284
-0.11665
-0.0937458
-0.0760541
-0.0615898
-0.396098
-0.354265
-0.301778
-0.24831
-0.202156
-0.165112
-0.135882
-0.112815
-0.0946418
-0.0794432
-0.384391
-0.344861
-0.304201
-0.258326
-0.216078
-0.181052
-0.152816
-0.130021
-0.111699
-0.0960407
-0.368313
-0.331866
-0.302078
-0.264146
-0.226651
-0.194404
-0.167699
-0.145559
-0.127389
-0.111776
-0.349533
-0.31817
-0.29629
-0.266168
-0.234257
-0.205512
-0.180818
-0.159667
-0.141906
-0.126687
-0.330225
-0.305441
-0.287948
-0.265088
-0.239355
-0.21469
-0.192457
-0.172625
-0.155373
-0.140766
-0.312418
-0.293862
-0.278936
-0.262042
-0.242433
-0.222238
-0.20283
-0.184665
-0.168093
-0.153998
-0.29729
-0.28338
-0.270968
-0.258285
-0.244017
-0.228342
-0.212134
-0.196002
-0.180205
-0.16673
-0.28487
-0.274339
-0.264529
-0.254738
-0.244624
-0.233226
-0.220345
-0.206791
-0.1921
-0.178971
-0.27489
-0.266998
-0.259373
-0.251837
-0.244751
-0.237002
-0.22757
-0.216831
-0.203779
-0.191741
-0.266946
-0.261217
-0.255317
-0.249653
-0.244752
-0.239826
-0.233585
-0.226165
-0.214906
-0.204963
-0.260569
-0.256668
-0.252222
-0.248104
-0.244812
-0.241897
-0.238498
-0.233352
-0.226292
-0.219353
-0.25531
-0.252971
-0.249809
-0.247045
-0.245023
-0.243318
-0.242811
-0.237353
-0.236707
-0.230271
-0.25081
-0.24975
-0.247733
-0.246174
-0.245268
-0.244161
-0.246506
-0.238051
-0.245743
-0.236123
-0.246745
-0.246727
-0.245738
-0.2452
-0.245235
-0.244573
-0.248621
-0.238342
-0.252377
-0.236765
-0.242915
-0.243814
-0.243659
-0.243936
-0.244709
-0.2445
-0.2489
-0.239903
-0.254345
-0.236213
-0.239302
-0.241017
-0.24149
-0.242367
-0.243515
-0.244088
-0.248014
-0.241282
-0.252455
-0.237517
-0.236015
-0.238436
-0.239352
-0.240613
-0.242017
-0.243279
-0.245703
-0.242659
-0.249415
-0.238909
-0.233254
-0.236244
-0.23745
-0.238938
-0.240524
-0.242071
-0.243654
-0.242952
-0.24583
-0.240282
-0.231246
-0.234639
-0.236015
-0.237626
-0.239308
-0.240912
-0.242205
-0.242493
-0.243492
-0.240502
-0.230185
-0.233788
-0.235243
-0.236907
-0.238626
-0.240231
-0.241456
-0.242028
-0.242391
-0.240424
0.267173
0.250569
0.23595
0.223242
0.212006
0.202159
0.19343
0.185729
0.178881
0.172808
0.167392
0.162568
0.158248
0.154375
0.150897
0.147803
0.145048
0.142602
0.140432
0.138514
0.136826
0.135351
0.134073
0.13298
0.13206
0.131303
0.130704
0.130258
0.129964
0.129821
0.265035
0.248898
0.234564
0.222099
0.211047
0.201357
0.19275
0.185152
0.178384
0.172378
0.167014
0.162234
0.157952
0.154118
0.150675
0.147597
0.144855
0.142419
0.140258
0.138349
0.136669
0.135201
0.133928
0.13284
0.131923
0.131171
0.130574
0.130129
0.129834
0.12969
0.260696
0.245518
0.231782
0.219822
0.209143
0.19977
0.191406
0.184011
0.177402
0.171528
0.166268
0.161576
0.15737
0.153606
0.150222
0.147178
0.144465
0.142055
0.139915
0.138024
0.136358
0.134903
0.133641
0.132561
0.131653
0.130907
0.130315
0.129872
0.129576
0.129429
0.254097
0.240406
0.22761
0.21644
0.206329
0.197436
0.189432
0.182338
0.175962
0.170281
0.165174
0.160608
0.156507
0.152839
0.149543
0.146574
0.1439
0.141521
0.139409
0.137543
0.135899
0.134462
0.133216
0.13215
0.131253
0.130516
0.129932
0.129492
0.129194
0.129045
0.245191
0.233528
0.222019
0.211939
0.2026
0.194357
0.186836
0.180144
0.174076
0.16865
0.163744
0.159345
0.155377
0.151823
0.148632
0.145767
0.143161
0.140826
0.138752
0.136917
0.1353
0.133886
0.132659
0.13161
0.130728
0.130004
0.129429
0.128993
0.128693
0.12854
0.233995
0.224922
0.215071
0.206404
0.198045
0.190618
0.183692
0.177493
0.171799
0.166683
0.162019
0.15782
0.154012
0.150588
0.147504
0.144746
0.142263
0.139996
0.13795
0.136155
0.134571
0.133183
0.131981
0.130952
0.130087
0.129378
0.128813
0.128382
0.12808
0.127925
0.220542
0.214593
0.206705
0.199742
0.192554
0.18612
0.179918
0.174322
0.169084
0.164345
0.159975
0.156021
0.152406
0.149142
0.146181
0.143521
0.141131
0.138994
0.137055
0.135283
0.133721
0.132371
0.131195
0.130184
0.129337
0.128644
0.128093
0.127667
0.127364
0.127207
0.204818
0.202562
0.19705
0.192194
0.186426
0.181167
0.175791
0.170871
0.166132
0.161802
0.157747
0.154053
0.150644
0.147551
0.144727
0.142177
0.139869
0.137798
0.135947
0.134303
0.132818
0.131472
0.130286
0.129305
0.12849
0.127816
0.127275
0.126857
0.126554
0.126397
0.187161
0.188989
0.186082
0.183422
0.179192
0.175214
0.170804
0.166678
0.162555
0.158731
0.155074
0.151709
0.148564
0.14569
0.143043
0.14064
0.138451
0.136475
0.134694
0.133103
0.131689
0.130448
0.129368
0.128405
0.127578
0.126899
0.126368
0.125961
0.125663
0.125509
0.166561
0.173353
0.17366
0.174017
0.171793
0.169479
0.166131
0.162883
0.159348
0.156012
0.152698
0.149617
0.146682
0.143981
0.141467
0.139175
0.137074
0.135174
0.133452
0.131909
0.130528
0.129313
0.128256
0.127343
0.126567
0.125927
0.125404
0.124994
0.124701
0.124556
0.140442
0.151992
0.157441
0.159974
0.160114
0.159296
0.15752
0.15541
0.152944
0.150431
0.147852
0.145359
0.142936
0.140656
0.138504
0.136513
0.134671
0.13299
0.131457
0.130075
0.128833
0.127731
0.126764
0.12593
0.125224
0.124643
0.124172
0.123809
0.123559
0.123433
0.124503
0.133798
0.140881
0.145049
0.147225
0.147916
0.147624
0.146698
0.145324
0.143713
0.141938
0.140122
0.138294
0.136518
0.134807
0.133192
0.131676
0.130274
0.128983
0.127808
0.126746
0.125798
0.124958
0.12423
0.123611
0.123098
0.122685
0.122373
0.122165
0.122061
0.111339
0.119927
0.127056
0.131996
0.135363
0.137228
0.138106
0.138198
0.137775
0.136981
0.135949
0.13477
0.133511
0.132226
0.130948
0.129707
0.12852
0.127401
0.126357
0.125396
0.12452
0.12373
0.123028
0.122415
0.121889
0.121451
0.1211
0.120836
0.120662
0.120576
0.0998716
0.108207
0.115311
0.12069
0.124725
0.127432
0.129189
0.130125
0.1305
0.130427
0.130054
0.129459
0.128725
0.127901
0.127034
0.126153
0.125282
0.124441
0.12364
0.12289
0.122198
0.121568
0.121003
0.120505
0.120076
0.119716
0.119427
0.119211
0.119069
0.118999
0.0899685
0.0980611
0.105137
0.110796
0.115254
0.118547
0.120947
0.122556
0.123583
0.124128
0.124328
0.124256
0.123998
0.1236
0.123116
0.122575
0.122007
0.121432
0.120867
0.120323
0.119811
0.119337
0.118907
0.118524
0.118191
0.11791
0.117683
0.117513
0.117401
0.117347
0.0814405
0.0892617
0.0962576
0.102063
0.106803
0.110509
0.113385
0.115516
0.11707
0.118132
0.118824
0.119212
0.119378
0.119368
0.119235
0.11901
0.118727
0.118405
0.118065
0.11772
0.117383
0.117061
0.116762
0.11649
0.116251
0.116048
0.115883
0.115758
0.115676
0.115636
0.0740724
0.0816232
0.0884887
0.0943364
0.099252
0.103245
0.106473
0.109007
0.110982
0.112471
0.113579
0.114365
0.114904
0.115242
0.115427
0.115494
0.115474
0.115389
0.115261
0.115105
0.114935
0.114759
0.114586
0.114424
0.114276
0.114147
0.114041
0.113961
0.113907
0.113881
0.0676834
0.0749729
0.0816769
0.0874973
0.092504
0.0966865
0.100173
0.103014
0.105324
0.107161
0.108617
0.109743
0.110607
0.111252
0.111723
0.112054
0.112275
0.11241
0.11248
0.112502
0.112488
0.112451
0.1124
0.112341
0.112281
0.112224
0.112175
0.112137
0.112111
0.112098
0.0621296
0.0691647
0.075689
0.0814376
0.0864736
0.0907728
0.0944421
0.0975144
0.100087
0.102206
0.10395
0.105364
0.106508
0.107421
0.108146
0.108713
0.109154
0.10949
0.109743
0.109929
0.110063
0.110156
0.110219
0.110258
0.110281
0.110293
0.110299
0.1103
0.110301
0.1103
0.0572935
0.0640797
0.0704137
0.0760621
0.0810835
0.085445
0.0892375
0.0924802
0.0952557
0.0976
0.099581
0.101237
0.102621
0.103766
0.104714
0.105492
0.106129
0.106647
0.107067
0.107404
0.107675
0.10789
0.108059
0.108191
0.108292
0.108369
0.108426
0.108465
0.10849
0.108502
0.0530761
0.0596197
0.0657585
0.0712883
0.0762642
0.0806479
0.0845176
0.0878823
0.0908126
0.0933351
0.095509
0.0973655
0.098952
0.100298
0.10144
0.102404
0.103216
0.103898
0.104469
0.104945
0.10534
0.105667
0.105935
0.106153
0.106328
0.106465
0.10657
0.106645
0.106693
0.106716
0.049393
0.055702
0.0616454
0.0670456
0.0719544
0.076331
0.0802427
0.083691
0.0867365
0.0893982
0.0917274
0.0937495
0.0955063
0.0970231
0.0983333
0.0994593
0.100427
0.101254
0.101961
0.102563
0.103072
0.103501
0.10386
0.104158
0.1044
0.104594
0.104743
0.104851
0.104921
0.104955
0.0461725
0.0522565
0.0580079
0.0632728
0.0681003
0.0724484
0.0763755
0.0798774
0.0830061
0.0857746
0.0882275
0.0903848
0.0922836
0.0939452
0.0953998
0.096667
0.0977705
0.0987274
0.0995558
0.100269
0.100882
0.101404
0.101846
0.102216
0.102521
0.102766
0.102957
0.103096
0.103186
0.10323
0.0433535
0.0492233
0.0547889
0.0599173
0.0646545
0.0689591
0.0728814
0.0764135
0.0795999
0.0824489
0.0849989
0.0872658
0.0892819
0.0910653
0.0926429
0.094032
0.0952542
0.0963248
0.0972607
0.0980748
0.09878
0.0993863
0.0999036
0.10034
0.100701
0.100994
0.101222
0.101389
0.101498
0.10155
0.0408839
0.0465515
0.0519394
0.0569332
0.0615755
0.0658264
0.0697292
0.0732735
0.0764972
0.0794052
0.0820303
0.0843849
0.0864972
0.0883825
0.0900643
0.091558
0.0928829
0.0940529
0.0950836
0.0959867
0.0967743
0.097456
0.0980411
0.0985367
0.0989498
0.0992855
0.0995481
0.0997407
0.0998662
0.099927
0.0387196
0.0441977
0.0494175
0.0542807
0.0588268
0.0630175
0.0668905
0.0704333
0.0736786
0.0766281
0.0793102
0.0817343
0.0839247
0.0858944
0.0876639
0.0892467
0.0906601
0.0919165
0.0930301
0.0940116
0.0948724
0.0956212
0.0962667
0.096816
0.0972754
0.0976499
0.0979436
0.0981594
0.0983001
0.0983683
0.0368231
0.0421248
0.0471871
0.0519255
0.0563764
0.0605036
0.0643396
0.067871
0.0711254
0.0741027
0.076827
0.0793053
0.0815587
0.0835977
0.0854406
0.0870988
0.0885879
0.0899189
0.0911047
0.0921549
0.09308
0.0938882
0.0945876
0.0951847
0.0956856
0.0960949
0.0964164
0.0966531
0.0968075
0.0968824
0.0351625
0.0403011
0.045217
0.0498377
0.0541962
0.058259
0.0620536
0.0655664
0.0688208
0.0718151
0.0745695
0.0770895
0.0793929
0.0814886
0.0833923
0.0851141
0.0866676
0.0880627
0.0893108
0.0904208
0.0914023
0.0922627
0.0930096
0.0936491
0.0941868
0.0946271
0.0949736
0.0952289
0.0953955
0.0954764
0.0337106
0.0386997
0.0434807
0.0479915
0.0522621
0.0562611
0.0600122
0.0635017
0.0667492
0.069752
0.0725272
0.0750785
0.0774213
0.0795628
0.0815167
0.0832916
0.0848996
0.0863493
0.087651
0.0888128
0.0898433
0.0907493
0.0915379
0.0922147
0.0927849
0.0932526
0.0936212
0.093893
0.0940705
0.0941568
0.0324444
0.0372976
0.0419554
0.0463648
0.0505527
0.0544901
0.0581973
0.0616606
0.0648966
0.0679016
0.07069
0.0732644
0.0756378
0.077816
0.0798109
0.0816299
0.0832836
0.0847796
0.0861272
0.0873334
0.0884063
0.0893519
0.0901768
0.0908862
0.091485
0.0919768
0.0923648
0.0926512
0.0928383
0.0929292
0.0313446
0.0360751
0.0406215
0.0449383
0.0490497
0.0529289
0.0565931
0.0600289
0.0632503
0.0662529
0.0690489
0.0716397
0.0740364
0.0762438
0.078272
0.0801274
0.0818192
0.0833542
0.0847406
0.0859848
0.087094
0.0880738
0.0889301
0.0896678
0.0902914
0.0908042
0.0912092
0.0915083
0.0917037
0.0917988
0.0303946
0.0350157
0.0394624
0.0436958
0.0477373
0.0515624
0.0551855
0.0585939
0.061799
0.0647961
0.0675954
0.0701974
0.0726117
0.0748419
0.0768969
0.078782
0.0805054
0.082073
0.0834921
0.0847685
0.0859086
0.0869176
0.0878009
0.0885629
0.0892078
0.0897389
0.0901585
0.0904686
0.0906713
0.0907699
0.0295808
0.0341055
0.038464
0.0426231
0.0466019
0.0503777
0.0539627
0.0573446
0.0605328
0.0635224
0.066322
0.0689314
0.0713586
0.0736065
0.0756828
0.077592
0.0793413
0.0809358
0.0823822
0.0836856
0.0848517
0.0858855
0.0867916
0.0875744
0.0882376
0.0887841
0.0892163
0.0895359
0.0897448
0.0898465
0.0288916
0.0333326
0.0376144
0.0417085
0.0456319
0.0493638
0.0529141
0.0562713
0.059443
0.0624243
0.0652221
0.0678359
0.0702724
0.0725339
0.0746269
0.0765554
0.0783257
0.0799423
0.0814112
0.0827369
0.0839248
0.0849792
0.0859045
0.0867047
0.0873833
0.0879429
0.0883857
0.0887133
0.0889275
0.0890317
0.0283177
0.0326873
0.0369037
0.0409421
0.0448177
0.0485113
0.0520311
0.055366
0.0585224
0.0614951
0.06429
0.0669061
0.0693491
0.0716207
0.0737268
0.0756706
0.0774576
0.0790921
0.0805791
0.0819231
0.0831288
0.0842001
0.0851413
0.0859559
0.0866472
0.0872177
0.0876693
0.0880035
0.0882221
0.0883285
0.0278512
0.0321616
0.0363236
0.0403156
0.0441512
0.0478123
0.0513061
0.0546218
0.0577645
0.0607292
0.0635206
0.0661377
0.0685851
0.0708643
0.0729802
0.0749358
0.076736
0.0783845
0.079886
0.0812446
0.0824645
0.0835494
0.0845034
0.0853296
0.0860312
0.0866105
0.0870692
0.0874087
0.0876309
0.0877391
0.027486
0.0317493
0.0358679
0.0398226
0.0436258
0.0472607
0.0507332
0.054033
0.0571642
0.0601219
0.06291
0.0655272
0.0679775
0.070262
0.0723853
0.0743497
0.0761598
0.0778191
0.0793317
0.0807015
0.0819324
0.0830279
0.0839918
0.084827
0.0855366
0.0861228
0.0865871
0.0869309
0.0871559
0.0872653
0.0272179
0.0314457
0.0355313
0.0394577
0.0432363
0.0468514
0.0503077
0.0535952
0.0567176
0.0596697
0.0624549
0.0650717
0.0675239
0.0698121
0.0719404
0.0739111
0.0757284
0.0773954
0.0789162
0.0802941
0.081533
0.0826363
0.0836074
0.0844493
0.0851648
0.085756
0.0862244
0.0865713
0.0867983
0.0869088
0.0270442
0.0312471
0.0353096
0.0392168
0.0429789
0.0465805
0.0500259
0.0533052
0.0564215
0.0593697
0.0621528
0.0647693
0.0672224
0.0695129
0.0716445
0.0736193
0.0754412
0.0771132
0.0786392
0.0800224
0.0812666
0.082375
0.0833508
0.0841971
0.0849165
0.085511
0.0859821
0.0863309
0.0865593
0.0866705
0.0269617
0.0311496
0.0351997
0.0390971
0.0428508
0.0464458
0.0498855
0.0531608
0.0562739
0.0592201
0.0620022
0.0646184
0.067072
0.0693636
0.0714967
0.0734735
0.0752977
0.0769722
0.0785007
0.0798866
0.0811334
0.0822442
0.0832224
0.0840709
0.0847922
0.0853883
0.0858608
0.0862106
0.0864397
0.0865513
0.125694
0.114565
0.103031
0.0923796
0.0829569
0.0747349
0.0675898
0.0613905
0.0560148
0.051353
0.047308
0.0437953
0.040742
0.0380857
0.0357731
0.0337587
0.0320038
0.0304757
0.0291464
0.0279925
0.0269942
0.0261347
0.0254003
0.0247792
0.0242622
0.0238415
0.023511
0.0232659
0.0231045
0.0230302
0.106501
0.0961016
0.0869515
0.0783807
0.0706564
0.0637866
0.0577349
0.0524398
0.0478242
0.043809
0.0403188
0.0372854
0.0346486
0.032356
0.0303621
0.0286276
0.0271189
0.0258069
0.024667
0.0236784
0.0228233
0.0220868
0.0214564
0.0209218
0.0204745
0.0201078
0.0198161
0.0195947
0.019442
0.0193673
0.0856344
0.0741571
0.0662839
0.0593139
0.0534443
0.0483591
0.0439402
0.0400958
0.036749
0.033834
0.0312929
0.0290757
0.0271396
0.0254485
0.0239709
0.0226798
0.0215518
0.0205669
0.0197077
0.0189594
0.0183092
0.0177464
0.017262
0.0168483
0.016499
0.0162091
0.0159748
0.0157923
0.0156585
0.0155845
0.065577
0.0548954
0.048243
0.0422475
0.0375927
0.0337703
0.0306128
0.0279657
0.0257215
0.023802
0.0221477
0.0207129
0.0194624
0.0183694
0.0174119
0.016572
0.0158345
0.0151868
0.014618
0.0141191
0.0136823
0.013301
0.0129696
0.0126833
0.0124381
0.0122309
0.0120594
0.0119212
0.011811
0.0117367
0.0450745
0.0368012
0.0323838
0.0277755
0.0243242
0.0215178
0.0192946
0.0175102
0.0160613
0.0148694
0.0138758
0.0130361
0.0123179
0.0116991
0.0111627
0.0106956
0.0102866
0.00992706
0.00961017
0.00933048
0.00908349
0.00886548
0.00867331
0.00850434
0.00835623
0.00822706
0.00811573
0.00802109
0.00793668
0.00786389
0.0240757
0.0184209
0.0166224
0.0139274
0.0120858
0.0104907
0.00924602
0.00826506
0.00749742
0.00689556
0.00642093
0.00604184
0.00573293
0.00547975
0.00527303
0.00510203
0.00495766
0.00483389
0.00472625
0.0046314
0.00454679
0.00447041
0.00440063
0.00433613
0.00427569
0.00421812
0.00416283
0.00410999
0.00405346
0.00398633
0.00336483
0.000185543
0.000679205
-0.000127022
-0.000240808
-0.000478523
-0.000617268
-0.000712134
-0.000755883
-0.000756695
-0.000723325
-0.000665835
-0.000598129
-0.000523514
-0.000434366
-0.00034166
-0.000250955
-0.000165039
-8.58515e-05
-1.47123e-05
4.75017e-05
0.000100188
0.000142906
0.000175311
0.000197064
0.000207579
0.000206412
0.000194807
0.000168856
0.000112647
-0.0165307
-0.0170903
-0.014758
-0.0139641
-0.0125871
-0.0115691
-0.0106205
-0.00980806
-0.00909129
-0.00845448
-0.00788302
-0.00736545
-0.00690661
-0.00650035
-0.00610846
-0.00575178
-0.00542864
-0.00513704
-0.00487562
-0.0046431
-0.00443832
-0.00426026
-0.00410804
-0.00398098
-0.00387851
-0.00380047
-0.00374715
-0.00371687
-0.00370965
-0.00374948
-0.0354728
-0.033024
-0.0293809
-0.0270075
-0.0244512
-0.0223637
-0.020487
-0.0188639
-0.0174395
-0.0161882
-0.0150849
-0.0141037
-0.0132425
-0.0124934
-0.0117878
-0.0111629
-0.0106035
-0.0101036
-0.00965831
-0.00926344
-0.00891555
-0.00861179
-0.00834982
-0.00812777
-0.00794412
-0.00779777
-0.00768855
-0.00761513
-0.00757377
-0.0075908
-0.053245
-0.0482751
-0.0433856
-0.039447
-0.0358321
-0.0327623
-0.030069
-0.0277174
-0.0256499
-0.0238308
-0.0222279
-0.0208079
-0.0195433
-0.0184202
-0.0174187
-0.0165323
-0.015742
-0.0150373
-0.0144105
-0.013855
-0.0133653
-0.0129369
-0.0125659
-0.0122493
-0.0119846
-0.01177
-0.0116042
-0.0114859
-0.011413
-0.0114
-0.0697396
-0.0630398
-0.0567099
-0.0513211
-0.0466311
-0.0426698
-0.0392408
-0.0362415
-0.0335985
-0.0312674
-0.0292088
-0.0273817
-0.025748
-0.0242894
-0.023
-0.0218581
-0.0208408
-0.0199341
-0.0191279
-0.0184134
-0.017783
-0.0172306
-0.0167511
-0.0163403
-0.0159947
-0.0157115
-0.0154889
-0.0153252
-0.0152189
-0.0151802
-0.0853588
-0.0772681
-0.0693924
-0.0626907
-0.0569979
-0.0522167
-0.0480798
-0.0444515
-0.0412572
-0.0384464
-0.0359647
-0.0337607
-0.0317921
-0.030035
-0.028476
-0.0270906
-0.0258547
-0.0247533
-0.0237738
-0.0229052
-0.0221383
-0.0214654
-0.0208803
-0.0203775
-0.0199529
-0.0196028
-0.0193247
-0.0191162
-0.018975
-0.0189145
-0.100534
-0.0909677
-0.0814668
-0.0734884
-0.0668968
-0.0613925
-0.0566072
-0.0523871
-0.0486758
-0.0454168
-0.042536
-0.039974
-0.037689
-0.0356508
-0.0338355
-0.0322166
-0.0307707
-0.0294815
-0.0283344
-0.0273165
-0.0264171
-0.0256273
-0.0249395
-0.0243475
-0.0238461
-0.023431
-0.0230991
-0.0228474
-0.0226722
-0.0225888
-0.115214
-0.104228
-0.093205
-0.0840801
-0.0766809
-0.0704633
-0.0649866
-0.0601434
-0.0559147
-0.0522159
-0.0489418
-0.0460278
-0.0434333
-0.0411207
-0.0390567
-0.0372129
-0.0355655
-0.034096
-0.0327878
-0.0316264
-0.0305997
-0.0296976
-0.0289114
-0.0282339
-0.0276591
-0.0271821
-0.0267991
-0.0265067
-0.0262997
-0.0261927
-0.12946
-0.117087
-0.1044
-0.094167
-0.086115
-0.0792868
-0.0731558
-0.0677311
-0.0630261
-0.0589032
-0.055236
-0.0519708
-0.0490684
-0.046481
-0.0441692
-0.0421032
-0.0402575
-0.0386108
-0.0371443
-0.0358421
-0.0346906
-0.0336787
-0.0327965
-0.0320359
-0.0313902
-0.0308537
-0.030422
-0.0300913
-0.029855
-0.0297255
-0.143028
-0.129652
-0.115508
-0.104309
-0.095633
-0.0880736
-0.0811826
-0.0751691
-0.0700008
-0.0654464
-0.0613807
-0.0577693
-0.0545635
-0.0517034
-0.0491468
-0.0468629
-0.0448234
-0.0430036
-0.0413829
-0.0399439
-0.0386717
-0.0375539
-0.0365795
-0.0357396
-0.0350266
-0.0344342
-0.0339573
-0.0335918
-0.0333298
-0.0331806
-0.156131
-0.141428
-0.125699
-0.113876
-0.104841
-0.0965945
-0.0890151
-0.0825071
-0.0768967
-0.0718958
-0.0674312
-0.0634791
-0.0599688
-0.0568327
-0.0540296
-0.051527
-0.0492925
-0.0472989
-0.0455239
-0.0439484
-0.0425562
-0.0413334
-0.0402683
-0.0393509
-0.0385727
-0.0379268
-0.0374075
-0.0370103
-0.0367263
-0.0365606
-0.168782
-0.153194
-0.136229
-0.123877
-0.114175
-0.104982
-0.0967302
-0.0897595
-0.0836697
-0.0782038
-0.0733502
-0.0690619
-0.0652438
-0.0618304
-0.0587826
-0.0560627
-0.0536346
-0.0514689
-0.0495417
-0.0478323
-0.0463229
-0.0449982
-0.0438455
-0.0428539
-0.0420141
-0.0413185
-0.0407608
-0.0403362
-0.040035
-0.0398579
-0.180612
-0.163366
-0.146012
-0.133777
-0.123348
-0.113312
-0.104561
-0.0971085
-0.0904752
-0.0845373
-0.0792934
-0.0746488
-0.0705028
-0.0667993
-0.0634955
-0.0605473
-0.0579158
-0.0555702
-0.0534846
-0.0516361
-0.0500055
-0.0485761
-0.047334
-0.0462673
-0.045366
-0.0446217
-0.0440276
-0.0435786
-0.0432647
-0.043081
-0.193676
-0.174987
-0.157552
-0.144595
-0.132872
-0.122084
-0.112811
-0.104719
-0.0974766
-0.0910462
-0.0853669
-0.080317
-0.0758095
-0.0717899
-0.0682061
-0.0650089
-0.0621572
-0.059618
-0.0573626
-0.055366
-0.0536069
-0.0520673
-0.0507319
-0.0495876
-0.0486236
-0.0478306
-0.0472013
-0.0467304
-0.0464083
-0.0462262
-0.206377
-0.187762
-0.171036
-0.1568
-0.143864
-0.132281
-0.122141
-0.113177
-0.1052
-0.0981302
-0.0918631
-0.0862853
-0.081314
-0.0768841
-0.0729353
-0.0694144
-0.066277
-0.0634858
-0.0610086
-0.0588176
-0.0568892
-0.0552031
-0.0537423
-0.0524922
-0.0514407
-0.0505775
-0.0498948
-0.049387
-0.0490452
-0.0488586
-0.213341
-0.196992
-0.180966
-0.166232
-0.152755
-0.140666
-0.129922
-0.120351
-0.111829
-0.104253
-0.0975094
-0.0914972
-0.0861349
-0.0813516
-0.0770837
-0.0732762
-0.0698825
-0.0668627
-0.0641821
-0.0618111
-0.0597241
-0.0578995
-0.0563187
-0.0549661
-0.0538285
-0.0528947
-0.0521562
-0.0516076
-0.051241
-0.051043
-0.214328
-0.200009
-0.185103
-0.170854
-0.157623
-0.145607
-0.134794
-0.125088
-0.116398
-0.108631
-0.101684
-0.0954699
-0.0899117
-0.0849411
-0.0804962
-0.0765238
-0.0729779
-0.0698186
-0.0670112
-0.0645256
-0.0623361
-0.0604205
-0.05876
-0.0573384
-0.0561424
-0.0551606
-0.0543839
-0.0538073
-0.053424
-0.0532203
-0.212936
-0.199461
-0.185521
-0.172119
-0.159529
-0.147944
-0.13741
-0.127879
-0.119286
-0.111557
-0.10461
-0.0983693
-0.0927673
-0.0877414
-0.0832349
-0.079198
-0.0755873
-0.0723646
-0.0694963
-0.0669535
-0.0647111
-0.0627473
-0.0610435
-0.059584
-0.0583554
-0.0573465
-0.0565483
-0.0559556
-0.055563
-0.0553577
-0.211859
-0.198476
-0.185113
-0.172418
-0.160451
-0.149343
-0.139163
-0.129887
-0.12147
-0.113857
-0.106981
-0.100778
-0.0951907
-0.0901616
-0.0856398
-0.0815797
-0.0779407
-0.0746867
-0.0717861
-0.0692111
-0.0669375
-0.0649444
-0.0632138
-0.0617302
-0.0604806
-0.0594542
-0.058642
-0.0580387
-0.0576398
-0.0574338
-0.211655
-0.198281
-0.185284
-0.173055
-0.16153
-0.150791
-0.140899
-0.131839
-0.123575
-0.116065
-0.109254
-0.103087
-0.0975141
-0.0924835
-0.0879491
-0.0838688
-0.0802046
-0.0769226
-0.0739927
-0.0713884
-0.0690864
-0.0670665
-0.0653111
-0.0638053
-0.0625365
-0.0614939
-0.0606687
-0.0600556
-0.0596504
-0.059443
-0.211903
-0.198777
-0.186112
-0.174201
-0.162968
-0.152487
-0.142803
-0.1339
-0.125749
-0.118311
-0.111543
-0.105396
-0.0998247
-0.0947827
-0.0902279
-0.0861211
-0.0824267
-0.0791125
-0.0761499
-0.0735134
-0.0711806
-0.0691318
-0.0673501
-0.0658207
-0.0645314
-0.0634717
-0.0626328
-0.0620093
-0.0615973
-0.0613876
-0.21218
-0.199474
-0.187168
-0.17553
-0.164529
-0.15425
-0.144732
-0.135956
-0.127896
-0.120518
-0.113783
-0.10765
-0.102076
-0.097021
-0.0924445
-0.0883106
-0.0845857
-0.0812393
-0.0782442
-0.0755757
-0.0732124
-0.0711351
-0.0693272
-0.0677745
-0.0664648
-0.0653881
-0.0645356
-0.0639016
-0.0634827
-0.0632704
-0.212321
-0.200035
-0.188088
-0.176726
-0.165954
-0.155871
-0.146514
-0.137863
-0.129894
-0.12258
-0.115886
-0.109773
-0.104205
-0.0991435
-0.0945525
-0.0903982
-0.0866489
-0.083276
-0.0802533
-0.0775574
-0.0751674
-0.0730649
-0.0712338
-0.0696603
-0.0683324
-0.0672402
-0.0663754
-0.0657321
-0.0653068
-0.065092
-0.212304
-0.200362
-0.188746
-0.177663
-0.167133
-0.157257
-0.148069
-0.139553
-0.131688
-0.12445
-0.117808
-0.111729
-0.106178
-0.101123
-0.096528
-0.0923633
-0.0885988
-0.0852075
-0.0821646
-0.0794477
-0.0770367
-0.0749141
-0.0730642
-0.0714734
-0.0701303
-0.0690253
-0.06815
-0.0674988
-0.0670681
-0.0668511
-0.212148
-0.20049
-0.189171
-0.178359
-0.168074
-0.158412
-0.149401
-0.14103
-0.133279
-0.126128
-0.119551
-0.113517
-0.107996
-0.102957
-0.0983698
-0.0942044
-0.0904336
-0.087032
-0.083976
-0.0812446
-0.0788184
-0.0766806
-0.0748161
-0.0732118
-0.0718566
-0.0707412
-0.0698575
-0.0691998
-0.0687647
-0.0685459
-0.211872
-0.200472
-0.189433
-0.178878
-0.16883
-0.159378
-0.150547
-0.142323
-0.134693
-0.127638
-0.121133
-0.115154
-0.109672
-0.104658
-0.100086
-0.0959281
-0.0921584
-0.0887532
-0.0856905
-0.08295
-0.0805136
-0.0783649
-0.0764896
-0.0748751
-0.0735105
-0.0723869
-0.0714965
-0.0708337
-0.070395
-0.0701748
-0.211486
-0.200339
-0.189571
-0.179262
-0.16944
-0.160192
-0.151536
-0.143461
-0.135954
-0.128998
-0.122572
-0.116653
-0.111216
-0.106235
-0.101685
-0.0975408
-0.0937783
-0.0903753
-0.087311
-0.0845662
-0.0821238
-0.079968
-0.0780852
-0.0764633
-0.0750918
-0.073962
-0.0730664
-0.0723996
-0.0719581
-0.0717367
-0.210989
-0.200094
-0.189595
-0.179526
-0.169923
-0.16087
-0.152385
-0.144457
-0.137073
-0.13022
-0.123877
-0.118023
-0.112636
-0.107694
-0.103171
-0.0990463
-0.0952963
-0.0919004
-0.0888391
-0.0860943
-0.0836497
-0.0814903
-0.079603
-0.0779763
-0.0766
-0.0754658
-0.0745666
-0.0738968
-0.0734531
-0.0732309
-0.210377
-0.19973
-0.189501
-0.179668
-0.170277
-0.161415
-0.153099
-0.145316
-0.138057
-0.131308
-0.125051
-0.119267
-0.113936
-0.109036
-0.104547
-0.100446
-0.0967133
-0.0933292
-0.0902753
-0.0875346
-0.0850914
-0.0829316
-0.0810428
-0.0794137
-0.0780349
-0.0768981
-0.0759965
-0.0753247
-0.0748797
-0.074657
-0.209652
-0.199244
-0.189282
-0.179683
-0.170502
-0.161828
-0.153678
-0.146041
-0.138907
-0.132264
-0.126096
-0.120386
-0.115115
-0.110264
-0.105812
-0.10174
-0.0980299
-0.0946622
-0.0916199
-0.088887
-0.0864488
-0.0842919
-0.0824043
-0.0807754
-0.079396
-0.0782583
-0.0773557
-0.0766831
-0.0762373
-0.0760143
-0.208817
-0.198633
-0.188938
-0.179572
-0.170597
-0.162109
-0.154124
-0.146633
-0.139626
-0.133092
-0.127017
-0.121384
-0.116177
-0.111378
-0.106969
-0.102931
-0.0992472
-0.0959
-0.0928733
-0.090152
-0.0877222
-0.0855712
-0.0836875
-0.0820611
-0.0806831
-0.0795462
-0.0786439
-0.0779714
-0.0775255
-0.0773026
-0.207874
-0.197902
-0.188474
-0.179337
-0.170566
-0.162262
-0.154442
-0.147097
-0.140218
-0.133796
-0.127815
-0.122263
-0.117124
-0.112382
-0.108019
-0.10402
-0.100366
-0.0970438
-0.0940364
-0.0913301
-0.0889119
-0.0867696
-0.0848924
-0.0832707
-0.0818961
-0.0807616
-0.0798609
-0.0791895
-0.0787442
-0.0785216
-0.206829
-0.197051
-0.187894
-0.178986
-0.170416
-0.162293
-0.154636
-0.147438
-0.140689
-0.134379
-0.128496
-0.123028
-0.11796
-0.113278
-0.108966
-0.105008
-0.101389
-0.0980948
-0.0951102
-0.0924222
-0.0900185
-0.0878876
-0.0860193
-0.0844045
-0.0830352
-0.0819044
-0.0810066
-0.0803371
-0.079893
-0.079671
-0.205684
-0.196083
-0.187207
-0.178525
-0.17015
-0.162206
-0.154713
-0.14766
-0.141041
-0.134846
-0.129063
-0.123681
-0.118688
-0.114069
-0.109811
-0.105898
-0.102318
-0.0990544
-0.0960958
-0.0934291
-0.0910427
-0.0889258
-0.0870687
-0.0854628
-0.0841003
-0.0829749
-0.082081
-0.0814143
-0.0809719
-0.0807509
-0.204441
-0.194999
-0.186419
-0.177959
-0.169773
-0.162006
-0.154675
-0.14777
-0.141281
-0.135201
-0.129519
-0.124227
-0.11931
-0.114758
-0.110557
-0.106693
-0.103153
-0.0999242
-0.0969945
-0.0943519
-0.0919854
-0.0898849
-0.0880411
-0.0864458
-0.0850919
-0.0839731
-0.0830843
-0.0824212
-0.0819811
-0.0817613
-0.203107
-0.193797
-0.185541
-0.177291
-0.169287
-0.161697
-0.154529
-0.14777
-0.141411
-0.135447
-0.129869
-0.124667
-0.11983
-0.115347
-0.111205
-0.107393
-0.103897
-0.100706
-0.0978076
-0.0951916
-0.0928474
-0.0907654
-0.088937
-0.0873542
-0.0860103
-0.0848995
-0.0840167
-0.0833579
-0.0829206
-0.0827023
-0.201675
-0.192484
-0.184586
-0.176521
-0.168695
-0.161283
-0.154279
-0.147664
-0.141436
-0.135589
-0.130115
-0.125006
-0.120251
-0.115839
-0.111759
-0.108001
-0.104551
-0.1014
-0.0985363
-0.0959494
-0.0936298
-0.0915684
-0.089757
-0.0881884
-0.086856
-0.0857543
-0.0848785
-0.0842249
-0.0837909
-0.0835741
-0.200102
-0.191086
-0.183563
-0.175646
-0.168001
-0.16077
-0.153928
-0.147457
-0.141359
-0.135629
-0.130261
-0.125246
-0.120574
-0.116236
-0.112221
-0.108519
-0.105118
-0.102009
-0.0991821
-0.0966264
-0.0943334
-0.0922945
-0.0905021
-0.0889492
-0.0876296
-0.0865381
-0.0856702
-0.0850224
-0.0845921
-0.0843773
-0.19838
-0.189654
-0.18247
-0.174667
-0.16721
-0.160164
-0.153479
-0.147151
-0.141182
-0.135571
-0.13031
-0.12539
-0.120804
-0.116541
-0.112592
-0.108948
-0.105599
-0.102535
-0.0997462
-0.0972239
-0.0949594
-0.0929449