/*--------------------------------*- C++ -*----------------------------------*\
  =========                 |
  \\      /  F ield         | OpenFOAM: The Open Source CFD Toolbox
   \\    /   O peration     | Website:  https://openfoam.org
    \\  /    A nd           | Version:  7
     \\/     M anipulation  |
\*---------------------------------------------------------------------------*/
FoamFile
{
    version     2.0;
    format      ascii;
    class       surfaceScalarField;
    location    "55";
    object      phi;
}
// * * * * * * * * * * * * * * * * * * * * * * * * * * * * * * * * * * * * * //

dimensions      [0 3 -1 0 0 0 0];

internalField   nonuniform List<scalar> 
6855
(
-7.48678e-05
-3.28986e-08
-6.48928e-08
-0.000609295
-5.61527e-09
-0.00149092
-7.88697e-09
-7.70289e-09
-0.000609295
0.000609289
-0.00149092
0.000881616
-0.00240494
0.000914017
-0.00333384
0.00092889
-0.00429371
0.000959863
-0.00529434
0.00100063
-0.00634553
0.00105119
-0.00745426
0.00110872
-0.00862661
0.00117235
0.00124435
-0.00987096
-0.0006
0.00120929
-0.00147317
0.00175479
-0.00238029
0.00182114
-0.00330258
0.00185118
-0.00425588
0.00191316
-0.00524995
0.0019947
-0.00629465
0.00209588
-0.00739711
0.00221118
-0.00856357
0.00233881
0.002483
-0.00980223
-0.0005815
0.00179079
-0.00143779
0.00261107
-0.00233105
0.0027144
-0.00324014
0.00276027
-0.00418029
0.00285331
-0.00516123
0.00297563
-0.00619281
0.00312746
-0.00728262
0.00330099
-0.0084369
0.0034931
0.0037092
-0.0096631
-0.000554081
0.00234487
-0.00138503
0.00344202
-0.00225738
0.00358675
-0.00314673
0.00364962
-0.00406729
0.00377387
-0.00502857
0.00393691
-0.00604033
0.00413922
-0.00711071
0.00437137
-0.00824612
0.00462851
0.0049155
-0.00945243
-0.000518764
0.00286364
-0.00131515
0.0042384
-0.00215927
0.00443088
-0.00302236
0.00451271
-0.00391681
0.00466832
-0.0048518
0.0048719
-0.00583698
0.0051244
-0.0068813
0.00541569
-0.00799127
0.00573848
0.00609443
-0.00917019
-0.000477664
0.0033413
-0.00122818
0.00498891
-0.0020371
0.0052398
-0.00286796
0.00534356
-0.00373058
0.00553094
-0.00463355
0.00577488
-0.00558576
0.00607661
-0.00659679
0.00642672
-0.00767393
0.00681562
0.00723803
-0.00881753
-0.000424923
0.00376622
-0.00112282
0.00568681
-0.00189062
0.0060076
-0.0026831
0.00613605
-0.00350721
0.00635505
-0.00437082
0.00663849
-0.00528184
0.00698764
-0.0062513
0.00739617
-0.00729083
0.00785515
0.00834269
-0.00839549
-0.000362051
0.00412827
-0.000999419
0.00632418
-0.00172019
0.00672837
-0.0024691
0.00688496
-0.00324999
0.00713594
-0.00407078
0.00745928
-0.00493798
0.00785484
-0.00586061
0.0083188
-0.00685339
0.00884794
0.00939922
-0.00790993
-0.000290029
0.0044183
-0.00085867
0.00689282
-0.00152624
0.00739594
-0.00222621
0.00758492
-0.00295792
0.00786765
-0.00372836
0.00822972
-0.00454118
0.00866765
-0.0054003
0.00917792
-0.00632535
0.00977299
0.0104268
-0.00735293
-0.000209165
0.00462747
-0.000701284
0.00738494
-0.00130936
0.00800402
-0.00195546
0.00823102
-0.00263327
0.00854546
-0.00334955
0.00894599
-0.00410951
0.00942762
-0.00491593
0.00998434
-0.00576977
0.0106268
0.0114261
-0.00676904
-0.000118971
0.00474644
-0.000528439
0.00779441
-0.00107036
0.00854595
-0.00165805
0.00881871
-0.00227771
0.00916512
-0.00293446
0.00960275
-0.00363309
0.0101262
-0.00437639
0.0107276
-0.00516825
0.0114187
0.0121993
-0.00594146
-1.28662e-05
0.00475931
-0.000341409
0.00812295
-0.00080952
0.00901406
-0.00133514
0.00934433
-0.00189268
0.00972265
-0.0024852
0.0101953
-0.00311703
0.0107581
-0.00378967
0.0114003
-0.00449833
0.0121273
0.0129521
-0.00525114
7.3264e-05
0.00468604
-0.000139365
0.00833558
-0.000528966
0.00940366
-0.000988472
0.00980384
-0.00148019
0.0102144
-0.00200537
0.0107205
-0.00256804
0.0113207
-0.00317255
0.0120048
-0.00382053
0.0127753
0.0136367
-0.00450514
0.00016684
0.0045192
7.55254e-05
0.0084269
-0.000233157
0.00971234
-0.000619681
0.0101904
-0.00104223
0.0106369
-0.00149778
0.011176
-0.00198877
0.0118117
-0.00252086
0.0125369
-0.0030929
0.0133474
0.0142454
-0.00370159
0.000262103
0.0042571
0.000286954
0.00840204
7.79473e-05
0.00992135
-0.000231543
0.0104999
-0.000581301
0.0109867
-0.000964341
0.011559
-0.00137973
0.0122271
-0.00183416
0.0129913
-0.00232618
0.0138394
0.0147709
-0.00285169
0.000353548
0.00390355
0.000507894
0.0082477
0.000409521
0.0100197
0.000178105
0.0107313
-0.000101693
0.0112665
-0.000407391
0.0118647
-0.000743805
0.0125635
-0.00111521
0.0133627
-0.0015246
0.0142488
0.0152093
-0.00196297
0.000435658
0.00346789
0.000727845
0.00795551
0.000746999
0.0100006
0.000608384
0.0108699
0.000407041
0.0114678
0.000172884
0.0120989
-8.75102e-05
0.0128239
-0.000370103
0.0136453
-0.000688461
0.0145671
0.0155605
-0.0010397
0.000501357
0.00296654
0.000937669
0.0075192
0.00108759
0.00985065
0.00104873
0.0109087
0.000930501
0.0115861
0.000778017
0.0122514
0.000601482
0.0130005
0.000400128
0.0138467
0.00017772
0.0147895
0.0158323
-9.40532e-05
0.000542614
0.00242392
0.00112711
0.0069347
0.00142307
0.00955468
0.00149586
0.0108359
0.00146577
0.0116161
0.00139552
0.0123216
0.0013032
0.0130928
0.00119128
0.0139586
0.00105683
0.014924
0.0159768
0.000912281
0.000552568
0.00187135
0.00128378
0.0062035
0.00174125
0.00909721
0.00194181
0.0106354
0.00200885
0.0115491
0.00202372
0.0123068
0.00201651
0.0131
0.00199483
0.0139802
0.00195937
0.0149595
0.0160184
0.00191781
0.000528441
0.00134291
0.00139372
0.00533822
0.00202629
0.00846464
0.00237461
0.0102871
0.00255289
0.0113708
0.00265856
0.0122011
0.00273794
0.0130206
0.00280667
0.0139115
0.00286718
0.0148989
0.0159651
0.00292043
0.000472831
0.000870082
0.00144205
0.004369
0.00225721
0.00764948
0.00277832
0.00976595
0.00308776
0.0110614
0.00329381
0.011995
0.0034625
0.012852
0.00362101
0.013753
0.0037752
0.0147448
0.015815
0.00392532
0.000393157
0.000476925
0.00140589
0.00335627
0.00240753
0.00664783
0.00312942
0.00904406
0.00359735
0.0105935
0.00392011
0.0116723
0.0041838
0.0125883
0.00443324
0.0135036
0.00468217
0.0144958
0.0155677
0.00492951
0.000301705
0.000175221
0.00128045
0.00237753
0.00244911
0.00547917
0.00339454
0.00809863
0.00405584
0.00993216
0.00452196
0.0112062
0.00489404
0.0122162
0.0052369
0.0131607
0.00558181
0.0141509
0.0152205
0.00592894
0.000213783
-3.85622e-05
0.00108275
0.00150857
0.0023549
0.00420702
0.0035297
0.00692382
0.00442427
0.00903759
0.00507354
0.0105569
0.00557823
0.0117115
0.00602588
0.012713
0.00646652
0.0137103
0.0147802
0.00690683
0.000141215
-0.000179777
0.000845973
0.000803809
0.00211003
0.00294296
0.00348353
0.00555032
0.00464508
0.00787605
0.0055308
0.00967116
0.00621139
0.0110309
0.00678225
0.0121422
0.00733243
0.0131601
0.0142445
0.00786811
8.66438e-05
-0.000266421
0.000611002
0.00027945
0.0017377
0.00181627
0.00321222
0.0040758
0.00464224
0.00644603
0.00582088
0.00849252
0.00674242
0.0101094
0.00748511
0.0113995
0.00815189
0.0124933
0.0135984
0.00879804
4.76931e-05
-0.000314114
0.0004114
-8.42564e-05
0.00131024
0.000917431
0.00272118
0.00266485
0.00433443
0.00483279
0.00583699
0.00698996
0.00708058
0.00886578
0.00806811
0.010412
0.0089229
0.0116385
0.0128629
0.00965843
2.16007e-05
-0.000335715
0.000260534
-0.00032319
0.000912244
0.000265722
0.00209971
0.00147738
0.00370749
0.00322501
0.0054479
0.00524955
0.00707684
0.00723684
0.00841526
0.00907355
0.00954004
0.0105138
0.0118919
0.010511
6.08663e-06
-0.000341801
0.000155576
-0.000472679
0.000595818
-0.000174521
0.00148478
0.000588422
0.00287494
0.00183485
0.00463388
0.0034906
0.0065273
0.00534343
0.00832017
0.00728068
0.00985517
0.00897875
0.010751
0.010996
-2.09595e-06
-0.000339706
8.68152e-05
-0.00056159
0.000369144
-0.000456849
0.000976853
-1.9287e-05
0.00202922
0.000782479
0.00356281
0.00195702
0.00543389
0.00347235
0.00748113
0.00523344
0.00959076
0.00686912
0.00910792
0.0112339
-6.50318e-06
-0.000333202
4.17637e-05
-0.000609857
0.000213258
-0.000628343
0.000601264
-0.000407293
0.00132068
6.30648e-05
0.00248017
0.000797528
0.00406042
0.00189209
0.0060243
0.00326956
0.00838341
0.00451002
0.00698788
0.0105035
-9.6247e-06
-0.000323578
8.20262e-06
-0.000627684
0.000100291
-0.000720432
0.000331112
-0.000638115
0.000784661
-0.000390484
0.0015552
2.69897e-05
0.00273475
0.000712534
0.00431825
0.00168606
0.00639471
0.00243356
0.00461587
0.00876672
-1.4547e-05
-0.000309031
-2.48142e-05
-0.000617417
5.85853e-06
-0.000751104
0.00012181
-0.000754066
0.000378927
-0.000647601
0.000839509
-0.000433593
0.00162154
-6.9492e-05
0.00273442
0.000573171
0.00426556
0.00090242
0.00247578
0.00640565
-2.2995e-05
-0.000286036
-6.15573e-05
-0.000578855
-8.46786e-05
-0.000727983
-5.96897e-05
-0.000779055
5.31089e-05
-0.0007604
0.000285271
-0.000665755
0.000731079
-0.0005153
0.00143516
-0.000130911
0.00239593
-5.83468e-05
0.000945925
0.00392578
-3.44346e-05
-0.000251601
-0.000102358
-0.000510932
-0.000175226
-0.000655115
-0.000227051
-0.00072723
-0.000234259
-0.000753191
-0.000166439
-0.000733575
3.18374e-05
-0.000713576
0.000377088
-0.000476162
0.000872272
-0.00055353
7.42147e-05
0.00174398
-4.74041e-05
-0.000204197
-0.000144141
-0.000414195
-0.00026225
-0.000537006
-0.000380463
-0.000609017
-0.000481967
-0.000651687
-0.00054205
-0.000673493
-0.000564225
-0.000691401
-0.000454584
-0.000585803
-0.000320597
-0.000687518
-0.000290776
4.43943e-05
-5.98188e-05
-0.000144378
-0.000181928
-0.000292086
-0.000337938
-0.000380996
-0.000509481
-0.000437474
-0.000683944
-0.000477224
-0.000849257
-0.00050818
-0.0010093
-0.000531359
-0.00109177
-0.000503333
-0.00121488
-0.000564404
-0.000379434
-0.00112622
-6.95416e-05
-7.48365e-05
-0.000210569
-0.000151058
-0.000393941
-0.000197624
-0.000603022
-0.000228393
-0.000828569
-0.000251678
-0.00106514
-0.000271608
-0.00131
-0.0002865
-0.00152782
-0.000285509
-0.00178063
-0.000311602
-0.000248476
-0.00191158
-7.48694e-05
-0.000225993
-0.000423698
-0.000652185
-0.000903966
-0.00117569
-0.0014623
-0.00174793
-0.00205962
-0.00230813
-0.0100947
0.000223734
-0.0102664
0.000171714
-0.010417
0.000150576
-0.0105352
0.000118211
-0.0106365
0.000101246
-0.0107163
7.98703e-05
-0.0107831
6.67673e-05
-0.0108352
5.20952e-05
-0.0108773
4.2071e-05
-0.0109089
3.16534e-05
-0.0109329
2.3948e-05
-0.0109492
1.63105e-05
-0.0109595
1.03279e-05
-0.0109642
4.66474e-06
-0.0109645
3.06484e-07
-0.01096
-4.50326e-06
-0.0109515
-8.47316e-06
-0.0109394
-1.21017e-05
-0.0109242
-1.52652e-05
-0.010906
-1.81917e-05
-0.0108852
-2.08e-05
-0.0108619
-2.32276e-05
-0.0108365
-2.54343e-05
-0.010809
-2.75055e-05
-0.0107796
-2.94244e-05
-0.0107483
-3.12441e-05
-0.0107154
-3.2962e-05
-0.0106808
-3.46226e-05
-0.0106445
-3.62509e-05
-3.78988e-05
-0.0100287
0.000450232
-0.0102024
0.000345347
-0.0103548
0.000303034
-0.0104747
0.000238074
-0.0105778
0.000204321
-0.0106595
0.000161596
-0.0107283
0.000135565
-0.0107825
0.00010628
-0.0108267
8.63459e-05
-0.0108606
6.55517e-05
-0.0108869
5.02045e-05
-0.0109055
3.49553e-05
-0.0109182
2.3027e-05
-0.0109252
1.16787e-05
-0.0109277
2.73484e-06
-0.0109257
-6.48186e-06
-0.0109197
-1.44238e-05
-0.0109101
-2.17344e-05
-0.0108973
-2.80573e-05
-0.0108816
-3.39271e-05
-0.0108632
-3.91404e-05
-0.0108425
-4.40024e-05
-0.0108195
-4.84168e-05
-0.0107944
-5.2565e-05
-0.0107674
-5.64063e-05
-0.0107386
-6.00514e-05
-0.0107081
-6.34923e-05
-0.0106759
-6.68203e-05
-0.0106421
-7.00818e-05
-7.33792e-05
-0.00989465
0.000681782
-0.0100722
0.000522864
-0.0102287
0.000459565
-0.0103523
0.000361653
-0.0104594
0.000311434
-0.0105451
0.00024735
-0.0106182
0.000208658
-0.0106768
0.00016482
-0.0107256
0.000135148
-0.0107641
0.000104024
-0.010795
8.11351e-05
-0.0108183
5.83083e-05
-0.0108358
4.04794e-05
-0.0108475
2.33679e-05
-0.0108544
9.62878e-06
-0.0108575
-3.39828e-06
-0.0108564
-1.54587e-05
-0.0108517
-2.64714e-05
-0.0108438
-3.59374e-05
-0.010833
-4.4757e-05
-0.0108195
-5.25774e-05
-0.0108037
-5.98835e-05
-0.0107856
-6.65128e-05
-0.0107654
-7.27478e-05
-0.0107433
-7.85195e-05
-0.0107193
-8.4001e-05
-0.0106936
-8.91762e-05
-0.0106663
-9.41842e-05
-0.0106373
-9.90881e-05
-0.000104038
-0.0096908
0.000920159
-0.00987411
0.000706174
-0.0100371
0.000622591
-0.0101668
0.000491354
-0.0102805
0.000425142
-0.0103728
0.000339619
-0.0104527
0.000288566
-0.0105181
0.000230183
-0.0105739
0.000190954
-0.0106194
0.000149524
-0.0106575
0.000119195
-0.010688
8.88075e-05
-0.0107126
6.51269e-05
-0.0107315
4.22292e-05
-0.0107455
2.36324e-05
-0.0107553
6.41658e-06
-0.0107618
-8.97149e-06
-0.0107644
-2.37901e-05
-0.0107639
-3.64573e-05
-0.0107604
-4.82563e-05
-0.0107543
-5.86949e-05
-0.0107457
-6.84587e-05
-0.0107349
-7.73155e-05
-0.010722
-8.56509e-05
-0.0107072
-9.33683e-05
-0.0106905
-0.000100704
-0.010672
-0.00010763
-0.0106519
-0.000114336
-0.0106301
-0.000120896
-0.000127502
-0.00941697
0.00116694
-0.009608
0.000897194
-0.00978003
0.000794628
-0.00991836
0.000629686
-0.0100413
0.000548089
-0.0101427
0.000440989
-0.010232
0.000377889
-0.0103067
0.000304927
-0.0103721
0.000256302
-0.0104271
0.000204562
-0.0104748
0.000166872
-0.0105149
0.000128916
-0.0105492
9.94218e-05
-0.0105778
7.07711e-05
-0.0106015
4.74141e-05
-0.0106204
2.5287e-05
-0.0106364
6.99163e-06
-0.0106489
-1.12154e-05
-0.0106581
-2.72563e-05
-0.0106644
-4.2002e-05
-0.010668
-5.51222e-05
-0.0106691
-6.7356e-05
-0.0106679
-7.84531e-05
-0.0106647
-8.89216e-05
-0.0106594
-9.86053e-05
-0.0106523
-0.000107814
-0.0106434
-0.000116516
-0.0106328
-0.000124947
-0.0106205
-0.000133179
-0.000141444
-0.0090741
0.00142352
-0.00927457
0.00109766
-0.00945789
0.000977945
-0.0096073
0.000779103
-0.00974216
0.000682944
-0.00985533
0.000554164
-0.00995676
0.000479315
-0.0100435
0.000391704
-0.010121
0.000333777
-0.0101881
0.000271685
-0.0102479
0.000226659
-0.0103001
0.000181105
-0.0103465
0.000145794
-0.0103871
0.000111379
-0.010423
8.33494e-05
-0.0104544
5.66092e-05
-0.0104813
3.39832e-05
-0.0105055
1.29151e-05
-0.0105273
-5.46175e-06
-0.0105455
-2.3797e-05
-0.010561
-3.95501e-05
-0.0105742
-5.42265e-05
-0.010585
-6.76317e-05
-0.0105936
-8.02767e-05
-0.0106003
-9.19248e-05
-0.0106051
-0.000103042
-0.010608
-0.000113563
-0.0106092
-0.000123749
-0.0106088
-0.000133669
-0.000143595
-0.00866421
0.00169223
-0.00887593
0.00130938
-0.00907314
0.00117516
-0.00923621
0.000942172
-0.00938537
0.000832104
-0.00951285
0.000681649
-0.00962875
0.000595215
-0.00973005
0.000493007
-0.00982207
0.000425792
-0.00990374
0.000353353
-0.00997804
0.000300959
-0.0100447
0.00024778
-0.0101055
0.000206614
-0.0101606
0.000166403
-0.0102109
0.000133684
-0.0102567
0.000102415
-0.0102986
7.59307e-05
-0.0103366
5.09125e-05
-0.0103713
2.91693e-05
-0.0104041
9.07698e-06
-0.0104344
-9.33871e-06
-0.0104616
-2.70259e-05
-0.0104866
-4.26251e-05
-0.0105095
-5.73829e-05
-0.0105303
-7.11255e-05
-0.0105491
-8.42047e-05
-0.0105661
-9.6581e-05
-0.0105813
-0.000108545
-0.0105948
-0.000120183
-0.000131762
-0.00819045
0.00197276
-0.00841494
0.00153387
-0.0086267
0.00138692
-0.00880532
0.0011208
-0.008971
0.000997774
-0.0091156
0.000826258
-0.00924879
0.000728397
-0.00936742
0.000611636
-0.00947666
0.000535035
-0.00957545
0.000452142
-0.00966674
0.000392257
-0.0097503
0.000331335
-0.0098279
0.000284215
-0.00989961
0.000238108
-0.00996655
0.000200629
-0.0100289
0.000164779
-0.0100875
0.000134472
-0.0101423
0.000105788
-0.010194
8.07931e-05
-0.0102422
5.73307e-05
-0.0102879
3.63792e-05
-0.0103316
1.66471e-05
-0.0103737
-5.2242e-07
-0.0104127
-1.83982e-05
-0.0104496
-3.42374e-05
-0.0104846
-4.91363e-05
-0.0105178
-6.33846e-05
-0.0105491
-7.72453e-05
-0.0105787
-9.06366e-05
-0.000103847
-0.00765404
0.00227386
-0.00789514
0.00177497
-0.0081247
0.00161648
-0.00832322
0.00131931
-0.00850711
0.00118167
-0.008671
0.000990147
-0.00882272
0.000880119
-0.00896045
0.000749364
-0.00908851
0.0006631
-0.00920632
0.000569948
-0.0093165
0.000502438
-0.00941897
0.000433802
-0.0095154
0.000380643
-0.00960589
0.000328606
-0.00969155
0.000286291
-0.00977257
0.00024579
-0.00984968
0.000211587
-0.00992313
0.000179234
-0.00999341
0.000151078
-0.0100606
0.000124527
-0.010125
0.000100788
-0.0101869
7.85045e-05
-0.0102458
5.83635e-05
-0.0103033
3.91123e-05
-0.0103588
2.12499e-05
-0.0104123
4.44872e-06
-0.0104637
-1.20449e-05
-0.010513
-2.79208e-05
-0.0105606
-4.30309e-05
-5.78571e-05
-0.00708218
0.00258701
-0.00733226
0.00202504
-0.00757267
0.00185689
-0.00778608
0.00153273
-0.00798898
0.00138456
-0.0081733
0.00117447
-0.00834778
0.0010546
-0.00850755
0.000909136
-0.00865826
0.000813813
-0.00879793
0.000709616
-0.00893003
0.000634536
-0.00905384
0.000557616
-0.00917153
0.000498331
-0.00928293
0.00044
-0.00938939
0.000392754
-0.00949098
0.000347377
-0.00958857
0.000309185
-0.00968233
0.000272987
-0.00977282
0.00024157
-0.00986021
0.000211923
-0.00994494
0.000185516
-0.0100271
0.00016064
-0.0101067
0.000137962
-0.010184
0.000116431
-0.0102593
9.65533e-05
-0.0103324
7.7578e-05
-0.0104038
5.93324e-05
-0.0104732
4.15159e-05
-0.0105407
2.4432e-05
8.04118e-06
-0.0126693
0.00237749
0.0128788
-0.0125758
0.0019316
-0.0125697
0.00185078
-0.0125679
0.00153087
-0.0125998
0.00141644
-0.0126248
0.0011995
-0.0126649
0.00109472
-0.0127
0.00094419
-0.0127408
0.000854678
-0.0127774
0.000746219
-0.0128153
0.000672438
-0.0128496
0.00059186
-0.0128831
0.000531816
-0.0129134
0.000470302
-0.012942
0.000421429
-0.0129679
0.000373268
-0.0129919
0.000333167
-0.0130135
0.000294528
-0.0130331
0.00026118
-0.0130505
0.000229401
-0.0130662
0.000201194
-0.01308
0.000174397
-0.013092
0.000149979
-0.0131023
0.000126745
-0.013111
0.00010522
-0.0131179
8.45203e-05
-0.0131234
6.48023e-05
-0.0131275
4.56102e-05
-0.0131302
2.71419e-05
8.98526e-06
-0.0128883
0.0022139
0.0130519
-0.0128257
0.00186898
-0.0127567
0.00178177
-0.0127399
0.00151414
-0.0127347
0.00141124
-0.0127468
0.00121158
-0.0127649
0.00111282
-0.0127879
0.000967189
-0.0128141
0.0008809
-0.0128409
0.000772981
-0.0128687
0.000700187
-0.0128953
0.000618488
-0.0129215
0.000558044
-0.012946
0.000494821
-0.0129694
0.000444819
-0.012991
0.000394805
-0.013011
0.000353256
-0.0130293
0.000312802
-0.0130461
0.000277916
-0.0130611
0.000244438
-0.0130746
0.000214711
-0.0130865
0.000186328
-0.013097
0.00016048
-0.0131061
0.000135781
-0.0131137
0.000112812
-0.0131198
9.06717e-05
-0.0131246
6.96211e-05
-0.0131282
4.91468e-05
-0.0131304
2.93462e-05
9.73708e-06
-0.0130713
0.00206853
0.0132167
-0.0129988
0.00179648
-0.0129239
0.00170692
-0.0128927
0.00148287
-0.0128661
0.00138467
-0.012863
0.00120846
-0.0128639
0.00111376
-0.0128749
0.000978208
-0.0128882
0.00089413
-0.0129054
0.000790166
-0.0129234
0.000718214
-0.0129425
0.000637584
-0.0129615
0.000577015
-0.0129801
0.000513499
-0.0129981
0.000462779
-0.0130151
0.000411855
-0.0130312
0.000369275
-0.013046
0.000327659
-0.0130597
0.000291605
-0.0130722
0.000256891
-0.0130834
0.000225955
-0.0130934
0.000196339
-0.0131022
0.00016931
-0.0131099
0.000143412
-0.0131163
0.000119256
-0.0131216
9.594e-05
-0.0131257
7.3751e-05
-0.0131287
5.21347e-05
-0.0131305
3.11631e-05
1.03446e-05
-0.0132255
0.0019394
0.0133546
-0.0131413
0.0017123
-0.0130658
0.0016314
-0.0130226
0.00143964
-0.0129856
0.00134763
-0.012969
0.00119192
-0.0129574
0.00110211
-0.012957
0.000977867
-0.0129595
0.000896575
-0.0129675
0.000798207
-0.0129769
0.000727588
-0.0129887
0.000649423
-0.0130009
0.000589226
-0.0130139
0.000526485
-0.0130267
0.000475526
-0.0130393
0.000424482
-0.0130513
0.000381301
-0.0130628
0.000339109
-0.0130734
0.00030226
-0.0130833
0.00026675
-0.0130923
0.00023492
-0.0131003
0.000204414
-0.0131075
0.000176457
-0.0131137
0.000149629
-0.013119
0.00012453
-0.0131233
0.00010028
-0.0131267
7.71549e-05
-0.0131292
5.45883e-05
-0.0131306
3.26423e-05
1.08371e-05
-0.0133512
0.00182067
0.0134699
-0.0132629
0.00162401
-0.0131862
0.00155472
-0.013134
0.00138745
-0.0130904
0.00130399
-0.0130636
0.00116509
-0.0130428
0.00108131
-0.0130326
0.000967689
-0.0130263
0.000890241
-0.013026
0.000797938
-0.0130279
0.000729471
-0.013033
0.000654499
-0.0130391
0.000595331
-0.0130466
0.000534068
-0.0130545
0.000483412
-0.0130629
0.000432849
-0.0130711
0.000389518
-0.0130792
0.000347239
-0.013087
0.000309968
-0.0130943
0.000274055
-0.013101
0.000241649
-0.0131071
0.000210569
-0.0131126
0.000181947
-0.0131175
0.000154453
-0.0131216
0.000128644
-0.013125
0.000103688
-0.0131277
7.98294e-05
-0.0131296
5.65181e-05
-0.0131307
3.38036e-05
1.12249e-05
-0.0134538
0.00170853
0.0135659
-0.0133656
0.00153583
-0.0132881
0.00147718
-0.0132302
0.00132961
-0.0131815
0.00125528
-0.0131471
0.00113064
-0.0131194
0.00105358
-0.0131012
0.000949568
-0.0130877
0.000876732
-0.0130803
0.000790477
-0.0130757
0.000724898
-0.0130747
0.000653485
-0.0130753
0.000595972
-0.0130779
0.000536655
-0.0130813
0.000486827
-0.0130857
0.000437198
-0.0130903
0.000394153
-0.0130953
0.000352188
-0.0131001
0.00031486
-0.013105
0.000278887
-0.0131095
0.000246209
-0.0131138
0.000214846
-0.0131177
0.000185821
-0.0131211
0.000157911
-0.0131241
0.000131621
-0.0131266
0.000106177
-0.0131286
8.17898e-05
-0.01313
5.79384e-05
-0.0131308
3.46587e-05
1.15117e-05
-0.0135382
0.00160149
0.0136453
-0.0134516
0.00144921
-0.0133739
0.0013995
-0.0133129
0.00126859
-0.0132604
0.00120278
-0.0132204
0.00109068
-0.0131873
0.00102042
-0.0131629
0.000925215
-0.0131435
0.000857338
-0.01313
0.000776985
-0.0131199
0.000714781
-0.0131136
0.000647124
-0.0131093
0.00059176
-0.0131074
0.000534717
-0.0131067
0.000486163
-0.0131074
0.000437823
-0.0131087
0.000395454
-0.0131106
0.000354138
-0.0131128
0.000317088
-0.0131153
0.000281355
-0.0131178
0.000248693
-0.0131203
0.000217313
-0.0131226
0.000188134
-0.0131247
0.000160045
-0.0131266
0.000133496
-0.0131282
0.000107773
-0.0131295
8.30591e-05
-0.0131304
5.88666e-05
-0.0131309
3.52187e-05
1.17005e-05
-0.0136079
0.00149914
0.0137103
-0.0135233
0.00136462
-0.0134462
0.00132233
-0.0133835
0.00120594
-0.0133284
0.00114769
-0.0132845
0.00104679
-0.0132471
0.000983018
-0.0132179
0.000896004
-0.0131937
0.000833135
-0.0131752
0.000758516
-0.0131604
0.000699939
-0.0131494
0.00063615
-0.0131409
0.000583273
-0.013135
0.000528744
-0.0131306
0.000481815
-0.0131278
0.000435046
-0.0131261
0.000393683
-0.0131252
0.000353299
-0.013125
0.000316822
-0.0131252
0.000281595
-0.0131257
0.000249212
-0.0131265
0.000218054
-0.0131273
0.000188956
-0.0131281
0.000160907
-0.013129
0.00013431
-0.0131297
0.00010851
-0.0131303
8.36647e-05
-0.0131308
5.93224e-05
-0.013131
3.5496e-05
1.17952e-05
-0.0136653
0.00140129
0.0137631
-0.013583
0.00128233
-0.0135068
0.00124618
-0.0134435
0.00114261
-0.0133868
0.00109097
-0.0133402
0.00100019
-0.0132996
0.000942406
-0.0132666
0.000863029
-0.0132385
0.000805038
-0.0132159
0.00073597
-0.0131971
0.000681109
-0.0131822
0.000621236
-0.01317
0.000571056
-0.0131604
0.000519215
-0.0131528
0.00047417
-0.013147
0.0004292
-0.0131424
0.000389108
-0.013139
0.000349896
-0.0131364
0.000314247
-0.0131346
0.000279756
-0.0131332
0.000247887
-0.0131324
0.00021717
-0.0131318
0.000188369
-0.0131314
0.000160562
-0.0131312
0.000134115
-0.0131311
0.000108427
-0.0131311
8.36375e-05
-0.0131311
5.93278e-05
-0.0131311
3.5504e-05
1.18002e-05
-0.0137122
0.00130776
0.0138057
-0.0136323
0.00120248
-0.0135576
0.00117143
-0.0134942
0.00107923
-0.0134366
0.00103338
-0.0133882
0.000951755
-0.0133452
0.00089944
-0.0133094
0.000827167
-0.0132781
0.000773832
-0.0132523
0.000710105
-0.0132301
0.000658946
-0.0132119
0.000602984
-0.0131964
0.000555618
-0.0131838
0.000506581
-0.0131732
0.000463603
-0.0131646
0.000420608
-0.0131575
0.000381999
-0.0131518
0.000344158
-0.0131471
0.00030955
-0.0131433
0.000275999
-0.0131403
0.00024485
-0.0131379
0.00021477
-0.013136
0.00018646
-0.0131345
0.000159081
-0.0131334
0.000132969
-0.0131325
0.000107571
-0.0131319
8.30122e-05
-0.0131315
5.89072e-05
-0.0131312
3.52569e-05
1.17201e-05
-0.0137503
0.00121836
0.0138397
-0.013673
0.00112513
-0.0135999
0.00109834
-0.0135369
0.00101626
-0.013479
0.000975485
-0.0134294
0.000902139
-0.0133848
0.000854806
-0.0133467
0.000789122
-0.0133131
0.000740185
-0.0132845
0.000681558
-0.0132596
0.000634027
-0.0132385
0.000581924
-0.0132203
0.000537423
-0.013205
0.000491255
-0.0131919
0.000450471
-0.0131809
0.000409583
-0.0131715
0.000372618
-0.0131636
0.000336311
-0.013157
0.000302922
-0.0131515
0.000270485
-0.0131469
0.000240235
-0.0131431
0.000210966
-0.0131399
0.000183323
-0.0131374
0.000156543
-0.0131354
0.000130933
-0.0131338
0.00010599
-0.0131326
8.18257e-05
-0.0131318
5.80867e-05
-0.0131313
3.47704e-05
1.15602e-05
-0.013781
0.00113287
0.0138665
-0.0137062
0.00105028
-0.0136349
0.00102708
-0.0135727
0.000953998
-0.0135149
0.000917696
-0.0134646
0.000851843
-0.0134188
0.000809046
-0.0133792
0.000749456
-0.0133436
0.000704649
-0.0133129
0.000650864
-0.0132858
0.000606852
-0.0132624
0.00055852
-0.0132418
0.000516887
-0.0132242
0.000473614
-0.0132088
0.000435103
-0.0131956
0.000396414
-0.0131842
0.000361219
-0.0131745
0.000326576
-0.0131661
0.000294552
-0.013159
0.000263377
-0.013153
0.00023418
-0.0131479
0.000205875
-0.0131436
0.000179054
-0.0131401
0.000153026
-0.0131372
0.000128072
-0.013135
0.000103735
-0.0131333
8.0117e-05
-0.0131321
5.68934e-05
-0.0131314
3.40606e-05
1.13258e-05
-0.0138055
0.00105105
0.0138873
-0.0137331
0.00097788
-0.0136638
0.00095772
-0.0136024
0.000892672
-0.0135451
0.000860319
-0.0134945
0.00080125
-0.013448
0.000762585
-0.0134072
0.00070862
-0.0133702
0.000667682
-0.0133378
0.000618471
-0.0133088
0.000577848
-0.0132835
0.000533172
-0.013261
0.000494381
-0.0132413
0.000453994
-0.013224
0.000417802
-0.013209
0.000381373
-0.0131958
0.000348039
-0.0131844
0.000315162
-0.0131745
0.000284621
-0.0131659
0.000254829
-0.0131586
0.000226819
-0.0131523
0.000199612
-0.013147
0.000173749
-0.0131426
0.000148611
-0.013139
0.000124452
-0.0131361
0.00010086
-0.0131339
7.79256e-05
-0.0131324
5.53554e-05
-0.0131314
3.3144e-05
1.10225e-05
-0.0138248
0.000972654
0.0139032
-0.0137548
0.000907854
-0.0136873
0.000890284
-0.0136271
0.000832416
-0.0135703
0.00080357
-0.0135197
0.000750645
-0.0134729
0.000715751
-0.0134312
0.000666973
-0.0133932
0.000629655
-0.0133595
0.000584752
-0.013329
0.000547377
-0.0133021
0.000506227
-0.0132779
0.00047023
-0.0132566
0.000432695
-0.0132377
0.000398841
-0.013221
0.000364706
-0.0132062
0.000333299
-0.0131933
0.000302263
-0.013182
0.000273302
-0.0131722
0.000244995
-0.0131637
0.000218282
-0.0131563
0.000192288
-0.0131501
0.000167505
-0.0131449
0.000143377
-0.0131405
0.000120138
-0.0131371
9.74152e-05
-0.0131345
7.52916e-05
-0.0131326
5.35007e-05
-0.0131315
3.20373e-05
1.06558e-05
-0.0138397
0.000897444
0.0139149
-0.0137719
0.000840094
-0.0137064
0.000824743
-0.0136473
0.000773311
-0.0135913
0.000747594
-0.0135409
0.000700242
-0.0134939
0.000668796
-0.0134518
0.000624802
-0.013413
0.000590868
-0.0133782
0.000550014
-0.0133466
0.000515745
-0.0133184
0.00047798
-0.0132928
0.000444714
-0.0132701
0.000409981
-0.0132498
0.000378466
-0.0132317
0.000346636
-0.0132156
0.000317202
-0.0132014
0.000288061
-0.0131888
0.000260754
-0.0131779
0.000234015
-0.0131683
0.000208693
-0.01316
0.00018401
-0.0131529
0.000160413
-0.0131469
0.000137404
-0.013142
0.000115195
-0.013138
9.34533e-05
-0.013135
7.22541e-05
-0.0131328
5.13572e-05
-0.0131316
3.07573e-05
1.02312e-05
-0.013851
0.000825173
0.0139232
-0.0137853
0.000774474
-0.0137216
0.00076104
-0.0136637
0.000715391
-0.0136086
0.000692479
-0.0135585
0.000650193
-0.0135117
0.00062191
-0.0134692
0.000582328
-0.0134299
0.000551561
-0.0133944
0.000514512
-0.0133618
0.000483206
-0.0133325
0.000448684
-0.0133059
0.000418077
-0.013282
0.000386083
-0.0132604
0.000356891
-0.0132412
0.000327364
-0.0132239
0.00029993
-0.0132086
0.000272724
-0.0131949
0.000247129
-0.0131829
0.000222023
-0.0131724
0.000198171
-0.0131633
0.000174882
-0.0131554
0.000152561
-0.0131488
0.000130764
-0.0131433
0.000109684
-0.0131389
8.90238e-05
-0.0131355
6.88515e-05
-0.013133
4.89519e-05
-0.0131316
2.93199e-05
9.75409e-06
-0.0138593
0.000755599
0.0139288
-0.0137957
0.000710861
-0.0137337
0.000699093
-0.013677
0.000658658
-0.0136228
0.000638274
-0.0135732
0.000600604
-0.0135265
0.000575229
-0.0134839
0.000539726
-0.0134443
0.000511926
-0.0134082
0.00047845
-0.013375
0.000449971
-0.0133448
0.00041855
-0.0133173
0.000390525
-0.0132924
0.000361202
-0.0132698
0.000334308
-0.0132495
0.000307068
-0.0132312
0.000281649
-0.0132149
0.000256402
-0.0132003
0.000232564
-0.0131875
0.000209142
-0.0131761
0.000186825
-0.0131662
0.000165
-0.0131577
0.000144032
-0.0131505
0.000123529
-0.0131445
0.000103665
-0.0131396
8.41747e-05
-0.0131359
6.51206e-05
-0.0131332
4.63109e-05
-0.0131317
2.77408e-05
9.22967e-06
-0.0138652
0.00068849
0.0139323
-0.0138034
0.00064911
-0.0137431
0.000638804
-0.0136876
0.000603085
-0.0136343
0.000584992
-0.0135852
0.00055154
-0.0135388
0.000528852
-0.0134962
0.000497125
-0.0134564
0.000472109
-0.01342
0.000441994
-0.0133862
0.000416211
-0.0133554
0.000387756
-0.0133271
0.000362235
-0.0133014
0.000335508
-0.013278
0.000310881
-0.0132568
0.000285905
-0.0132377
0.000262506
-0.0132205
0.000239231
-0.0132051
0.000217182
-0.0131915
0.000195485
-0.0131794
0.000174755
-0.0131689
0.000154453
-0.0131597
0.000134905
-0.013152
0.000115767
-0.0131455
9.71932e-05
-0.0131403
7.89514e-05
-0.0131363
6.10966e-05
-0.0131334
4.34592e-05
-0.0131317
2.60351e-05
8.66291e-06
-0.0138691
0.000623616
0.013934
-0.0138091
0.000589074
-0.0137504
0.000580062
-0.0136959
0.000548627
-0.0136435
0.000532621
-0.013595
0.000503038
-0.013549
0.00048284
-0.0135065
0.00045462
-0.0134666
0.000432225
-0.0134299
0.000405275
-0.0133958
0.000382067
-0.0133645
0.000356448
-0.0133356
0.000333355
-0.0133092
0.000309152
-0.0132851
0.000286753
-0.0132632
0.000264013
-0.0132433
0.00024263
-0.0132254
0.000221333
-0.0132093
0.000201096
-0.013195
0.000181155
-0.0131823
0.000162055
-0.0131712
0.000143324
-0.0131615
0.000125253
-0.0131533
0.000107539
-0.0131464
9.03219e-05
-0.0131409
7.33965e-05
-0.0131366
5.68125e-05
-0.0131336
4.04204e-05
-0.0131317
2.42166e-05
8.0585e-06
-0.0138716
0.000560757
0.0139344
-0.0138131
0.000530606
-0.0137558
0.000522748
-0.0137024
0.000495222
-0.0136509
0.000481131
-0.013603
0.000455109
-0.0135574
0.000437231
-0.013515
0.000412279
-0.0134752
0.000392356
-0.0134383
0.000368395
-0.0134039
0.000347651
-0.0133722
0.000324747
-0.0133428
0.000304007
-0.0133159
0.000282256
-0.0132912
0.000262049
-0.0132687
0.000241511
-0.0132482
0.000222137
-0.0132297
0.000202817
-0.013213
0.000184408
-0.0131981