/*--------------------------------*- C++ -*----------------------------------*\
  =========                 |
  \\      /  F ield         | OpenFOAM: The Open Source CFD Toolbox
   \\    /   O peration     | Website:  https://openfoam.org
    \\  /    A nd           | Version:  7
     \\/     M anipulation  |
\*---------------------------------------------------------------------------*/
FoamFile
{
    version     2.0;
    format      ascii;
    class       volScalarField;
    location    "85";
    object      p;
}
// * * * * * * * * * * * * * * * * * * * * * * * * * * * * * * * * * * * * * //

dimensions      [0 2 -2 0 0 0 0];

internalField   nonuniform List<scalar> 
3500
(
-0.228123
-0.231719
0.633496
0.597804
0.558281
0.633513
0.597818
0.558292
0.511704
0.466008
0.422995
0.383818
0.348711
0.317664
0.290317
0.616655
0.583926
0.547091
0.502609
0.45855
0.416815
0.378608
0.34424
0.31388
0.287392
0.583515
0.556545
0.525005
0.484664
0.443825
0.404603
0.36831
0.335399
0.306369
0.281512
0.535251
0.516499
0.492683
0.458368
0.422215
0.386664
0.353181
0.322397
0.295262
0.272673
0.473529
0.465007
0.451091
0.42446
0.394293
0.363455
0.333606
0.30555
0.280753
0.260911
0.400372
0.403744
0.401494
0.383887
0.360777
0.335533
0.310036
0.285229
0.26309
0.246332
0.317923
0.334883
0.345381
0.337756
0.322511
0.303563
0.283059
0.261982
0.242661
0.229109
0.229011
0.26058
0.284334
0.287312
0.280473
0.268312
0.2533
0.236347
0.219802
0.209318
0.13687
0.183043
0.219996
0.233849
0.235658
0.230502
0.22131
0.208969
0.195332
0.187273
0.0448424
0.104507
0.154055
0.178705
0.189142
0.191003
0.187793
0.180588
0.170291
0.16264
-0.0437135
0.0270764
0.0882119
0.123201
0.141978
0.150629
0.153172
0.151263
0.145484
0.136848
-0.125672
-0.0476255
0.0241337
0.0685813
0.0951619
0.110225
0.118144
0.121351
0.120799
0.115996
-0.197536
-0.118336
-0.0366172
0.0159533
0.0496183
0.0705998
0.0834441
0.0912546
0.0957026
0.095442
-0.258834
-0.181399
-0.0929145
-0.0336757
0.00618185
0.0324083
0.0496394
0.0612509
0.0696162
0.0734234
-0.309021
-0.234652
-0.14403
-0.0793123
-0.0344357
-0.00383524
0.0171849
0.031802
0.0430372
0.050198
-0.347661
-0.27821
-0.188574
-0.120279
-0.0716901
-0.0376879
-0.0135067
0.0034943
0.0168331
0.0267632
-0.374984
-0.312032
-0.225539
-0.156326
-0.105421
-0.068751
-0.0421345
-0.0231497
-0.00831811
0.00385244
-0.391922
-0.335991
-0.254837
-0.186912
-0.135247
-0.0970213
-0.068653
-0.047804
-0.0319113
-0.0183311
-0.39983
-0.350217
-0.276699
-0.211912
-0.1609
-0.122188
-0.0928192
-0.0706293
-0.0537054
-0.0397881
-0.400098
-0.355222
-0.291447
-0.231536
-0.182412
-0.14413
-0.114497
-0.0915927
-0.0739016
-0.0594403
-0.393895
-0.35207
-0.299601
-0.246144
-0.199995
-0.162951
-0.133718
-0.110647
-0.0924716
-0.0772741
-0.382199
-0.342679
-0.302032
-0.256163
-0.213915
-0.178884
-0.150639
-0.127836
-0.109507
-0.0938476
-0.366134
-0.3297
-0.299918
-0.261989
-0.224488
-0.19223
-0.165509
-0.143354
-0.125171
-0.109554
-0.34737
-0.316022
-0.294144
-0.26402
-0.232098
-0.203333
-0.178614
-0.157438
-0.139657
-0.124427
-0.328079
-0.303308
-0.285818
-0.262954
-0.237204
-0.212509
-0.190238
-0.170368
-0.153086
-0.138458
-0.310287
-0.291742
-0.276824
-0.259926
-0.240295
-0.220058
-0.200595
-0.182375
-0.165758
-0.15163
-0.295174
-0.281273
-0.268875
-0.256192
-0.241898
-0.226167
-0.209884
-0.193673
-0.17781
-0.164285
-0.282763
-0.272244
-0.262453
-0.252669
-0.242527
-0.231061
-0.218081
-0.204416
-0.189628
-0.176427
-0.272787
-0.264911
-0.257311
-0.249789
-0.242678
-0.23485
-0.225294
-0.214404
-0.201212
-0.18906
-0.264838
-0.259131
-0.253262
-0.247618
-0.242696
-0.237686
-0.231301
-0.223679
-0.212229
-0.202102
-0.258447
-0.254575
-0.250163
-0.246069
-0.242761
-0.239764
-0.236205
-0.230809
-0.223499
-0.216261
-0.253167
-0.250862
-0.247734
-0.244994
-0.242957
-0.241174
-0.240501
-0.234756
-0.233817
-0.226976
-0.248642
-0.24762
-0.245631
-0.244092
-0.243167
-0.241987
-0.244163
-0.235406
-0.242789
-0.232653
-0.244553
-0.244574
-0.243609
-0.24308
-0.243092
-0.242347
-0.246235
-0.235655
-0.249368
-0.233165
-0.240707
-0.241643
-0.241505
-0.241782
-0.242527
-0.242216
-0.246476
-0.23717
-0.25131
-0.232574
-0.237088
-0.238837
-0.239321
-0.24019
-0.241299
-0.241784
-0.245595
-0.2385
-0.249436
-0.233899
-0.23381
-0.236259
-0.23718
-0.23843
-0.239794
-0.240976
-0.243264
-0.23999
-0.246477
-0.235344
-0.231072
-0.234083
-0.23529
-0.236766
-0.238318
-0.2398
-0.241271
-0.240395
-0.243044
-0.237119
-0.229097
-0.232503
-0.233879
-0.235481
-0.23714
-0.2387
-0.23992
-0.240095
-0.240939
-0.237725
-0.228079
-0.231684
-0.233139
-0.234798
-0.236507
-0.238095
-0.239293
-0.239823
-0.240131
-0.238085
0.269173
0.252568
0.237949
0.22524
0.214004
0.204156
0.195426
0.187725
0.180876
0.174802
0.169386
0.164562
0.160241
0.156367
0.152888
0.149794
0.14704
0.144593
0.142422
0.140504
0.138816
0.137341
0.136063
0.13497
0.134049
0.133293
0.132693
0.132247
0.131954
0.13181
0.267039
0.250902
0.236567
0.224101
0.213048
0.203357
0.194749
0.18715
0.180382
0.174375
0.169011
0.16423
0.159947
0.156112
0.15267
0.149591
0.146848
0.144412
0.142251
0.140341
0.138661
0.137192
0.135919
0.134831
0.133914
0.133161
0.132564
0.132119
0.131825
0.13168
0.262705
0.247526
0.233789
0.221827
0.211147
0.201773
0.193408
0.186012
0.179402
0.173527
0.168267
0.163573
0.159366
0.155602
0.152218
0.149173
0.146459
0.144049
0.141909
0.140017
0.138351
0.136895
0.135633
0.134554
0.133645
0.132899
0.132307
0.131864
0.131568
0.131421
0.256111
0.242418
0.22962
0.218448
0.208336
0.199442
0.191437
0.184342
0.177964
0.172282
0.167174
0.162608
0.158506
0.154838
0.151541
0.14857
0.145895
0.143516
0.141404
0.139537
0.137893
0.136456
0.135209
0.134143
0.133246
0.132509
0.131925
0.131485
0.131186
0.131037
0.247209
0.235544
0.224033
0.213951
0.204611
0.196365
0.188843
0.18215
0.176081
0.170654
0.165746
0.161346
0.157377
0.153823
0.150632
0.147765
0.145158
0.142823
0.140748
0.138912
0.137295
0.135881
0.134654
0.133604
0.132722
0.131998
0.131423
0.130987
0.130686
0.130534
0.236019
0.226943
0.217089
0.20842
0.200058
0.19263
0.185702
0.179501
0.173806
0.168688
0.164023
0.159823
0.156014
0.152589
0.149504
0.146746
0.144262
0.141994
0.139948
0.138152
0.136567
0.135179
0.133976
0.132948
0.132082
0.131372
0.130808
0.130377
0.130074
0.129919
0.222571
0.216618
0.208727
0.201761
0.194571
0.188135
0.181931
0.176332
0.171093
0.166353
0.161981
0.158026
0.15441
0.151144
0.148183
0.145522
0.143131
0.140993
0.139054
0.137281
0.135718
0.134368
0.133192
0.132181
0.131333
0.13064
0.130088
0.129663
0.129359
0.129202
0.206852
0.204592
0.199077
0.194218
0.188447
0.183185
0.177807
0.172884
0.168143
0.163812
0.159755
0.15606
0.15265
0.149556
0.146731
0.14418
0.141871
0.139799
0.137948
0.136303
0.134816
0.13347
0.132284
0.131303
0.130487
0.129813
0.129272
0.128853
0.128551
0.128394
0.1892
0.191024
0.188112
0.185449
0.181215
0.177234
0.172822
0.168694
0.164568
0.160742
0.157084
0.153717
0.150571
0.147695
0.145048
0.142644
0.140454
0.138477
0.136695
0.135104
0.133689
0.132447
0.131366
0.130403
0.129576
0.128896
0.128366
0.127958
0.12766
0.127506
0.168608
0.175393
0.175696
0.176048
0.173822
0.171503
0.168152
0.164902
0.161364
0.158026
0.15471
0.151628
0.148691
0.145989
0.143473
0.14118
0.139078
0.137177
0.135455
0.13391
0.132529
0.131314
0.130256
0.129342
0.128566
0.127926
0.127402
0.126992
0.126699
0.126554
0.142497
0.154038
0.159481
0.162008
0.162144
0.161323
0.159543
0.15743
0.154962
0.152447
0.149866
0.147371
0.144946
0.142664
0.140511
0.13852
0.136676
0.134994
0.133461
0.132077
0.130835
0.129733
0.128765
0.12793
0.127224
0.126642
0.126172
0.125808
0.125558
0.125432
0.126558
0.135846
0.142923
0.147086
0.149257
0.149945
0.149649
0.14872
0.147343
0.14573
0.143953
0.142135
0.140305
0.138528
0.136815
0.135199
0.133682
0.132279
0.130987
0.129812
0.128749
0.1278
0.12696
0.126231
0.125611
0.125098
0.124686
0.124374
0.124164
0.124061
0.113395
0.121976
0.129099
0.134034
0.137396
0.139258
0.140133
0.140222
0.139796
0.138999
0.137965
0.136784
0.135523
0.134237
0.132958
0.131716
0.130527
0.129407
0.128362
0.1274
0.126523
0.125734
0.125031
0.124417
0.123891
0.123452
0.123101
0.122837
0.122662
0.122577
0.101927
0.110256
0.117354
0.122729
0.12676
0.129463
0.131216
0.13215
0.132522
0.132446
0.132071
0.131474
0.130738
0.129913
0.129044
0.128162
0.12729
0.126448
0.125646
0.124896
0.124202
0.123572
0.123006
0.122508
0.122078
0.121719
0.121429
0.121213
0.12107
0.121
0.0920233
0.10011
0.107181
0.112835
0.117288
0.120578
0.122975
0.12458
0.125606
0.126148
0.126346
0.126272
0.126012
0.125613
0.125127
0.124584
0.124015
0.123439
0.122874
0.122329
0.121816
0.121342
0.120911
0.120527
0.120194
0.119913
0.119686
0.119516
0.119404
0.119349
0.0834942
0.0913093
0.0983001
0.104101
0.108837
0.11254
0.115412
0.117541
0.119092
0.120152
0.120842
0.121228
0.121392
0.121381
0.121246
0.121021
0.120736
0.120413
0.120072
0.119727
0.119388
0.119066
0.118766
0.118495
0.118255
0.118051
0.117886
0.117761
0.117679
0.117639
0.0761243
0.0836693
0.09053
0.0963737
0.101286
0.105275
0.108501
0.111032
0.113004
0.114492
0.115597
0.116382
0.116919
0.117255
0.117439
0.117504
0.117483
0.117398
0.117269
0.117113
0.116941
0.116765
0.116592
0.116429
0.11628
0.116151
0.116045
0.115965
0.115911
0.115885
0.0697329
0.077017
0.0837165
0.0895332
0.0945365
0.0987161
0.1022
0.105038
0.107346
0.109181
0.110635
0.11176
0.112622
0.113265
0.113736
0.114065
0.114285
0.114419
0.114488
0.114509
0.114495
0.114457
0.114405
0.114346
0.114286
0.114229
0.11418
0.114141
0.114115
0.114102
0.0641763
0.0712064
0.0777266
0.0834719
0.0885048
0.0928013
0.096468
0.099538
0.102108
0.104225
0.105967
0.10738
0.108523
0.109435
0.110159
0.110725
0.111164
0.111499
0.111751
0.111936
0.11207
0.112163
0.112225
0.112264
0.112287
0.112298
0.112303
0.112305
0.112305
0.112305
0.059337
0.0661186
0.072449
0.0780944
0.0831131
0.0874721
0.0912623
0.0945029
0.0972766
0.0996191
0.101598
0.103253
0.104635
0.10578
0.106727
0.107503
0.10814
0.108657
0.109076
0.109413
0.109682
0.109896
0.110065
0.110197
0.110298
0.110375
0.110431
0.11047
0.110495
0.110507
0.0551159
0.0616555
0.0677912
0.0733184
0.0782919
0.0826734
0.0865411
0.0899039
0.0928325
0.0953535
0.0975259
0.0993811
0.100966
0.102311
0.103452
0.104415
0.105227
0.105907
0.106478
0.106953
0.107348
0.107674
0.107942
0.108159
0.108334
0.108471
0.108575
0.10865
0.108699
0.108722
0.051429
0.0577345
0.0636752
0.0690732
0.07398
0.0783547
0.0822648
0.0857115
0.0887554
0.0914157
0.0937437
0.0957645
0.0975202
0.099036
0.100345
0.10147
0.102437
0.103264
0.10397
0.104571
0.10508
0.105509
0.105867
0.106164
0.106406
0.1066
0.106749
0.106857
0.106927
0.106961
0.0482044
0.0542854
0.0600347
0.0652978
0.0701236
0.0744702
0.0783959
0.0818964
0.0850238
0.0877912
0.0902429
0.0923992
0.094297
0.0959578
0.0974114
0.0986779
0.0997807
0.100737
0.101565
0.102278
0.10289
0.103412
0.103854
0.104223
0.104528
0.104773
0.104963
0.105102
0.105192
0.105236
0.0453811
0.0512486
0.0568125
0.0619396
0.0666755
0.0709789
0.0749001
0.0784311
0.0816164
0.0844644
0.0870134
0.0892794
0.0912947
0.0930774
0.0946542
0.0960427
0.0972642
0.0983342
0.0992697
0.100083
0.100788
0.101394
0.101911
0.102347
0.102708
0.103
0.103228
0.103395
0.103504
0.103556
0.0429072
0.0485732
0.0539599
0.0589527
0.0635941
0.0678441
0.0717461
0.0752895
0.0785124
0.0814196
0.0840439
0.0863978
0.0885094
0.090394
0.0920752
0.0935683
0.0948927
0.0960622
0.0970924
0.0979951
0.0987823
0.0994637
0.100048
0.100544
0.100957
0.101292
0.101555
0.101747
0.101873
0.101933
0.0407387
0.0462157
0.0514348
0.0562975
0.060843
0.0650332
0.0689055
0.0724478
0.0756924
0.0786413
0.0813228
0.0837463
0.0859362
0.0879053
0.0896743
0.0912566
0.0926696
0.0939255
0.0950387
0.0960199
0.0968803
0.0976288
0.0982741
0.0988232
0.0992824
0.0996568
0.0999503
0.100166
0.100307
0.100375
0.038838
0.0441391
0.0492012
0.0539395
0.0583901
0.0625171
0.0663527
0.0698838
0.0731378
0.0761148
0.0788386
0.0813165
0.0835694
0.085608
0.0874505
0.0891084
0.0905971
0.0919277
0.0931131
0.0941631
0.0950879
0.0958958
0.096595
0.0971919
0.0976926
0.0981018
0.0984232
0.0986598
0.0988141
0.098889
0.0371733
0.042312
0.0472281
0.051849
0.0562076
0.0602704
0.064065
0.0675777
0.0708319
0.0738259
0.0765801
0.0790998
0.0814029
0.0834983
0.0854017
0.0871232
0.0886764
0.0900712
0.091319
0.0924288
0.0934101
0.0942703
0.095017
0.0956563
0.0961938
0.096634
0.0969804
0.0972356
0.0974022
0.0974831
0.0357175
0.0407072
0.0454888
0.0500002
0.0542711
0.0582705
0.0620218
0.0655114
0.0687589
0.0717617
0.0745368
0.0770879
0.0794306
0.0815719
0.0835256
0.0853003
0.086908
0.0883575
0.089659
0.0908206
0.0918509
0.0927568
0.0935452
0.0942218
0.094792
0.0952596
0.0956281
0.0958998
0.0960773
0.0961635
0.0344477
0.0393019
0.0439607
0.048371
0.0525596
0.0564976
0.0602052
0.0636688
0.066905
0.0699101
0.0726986
0.075273
0.0776463
0.0798244
0.0818193
0.0836382
0.0852917
0.0867875
0.088135
0.0893411
0.0904138
0.0913593
0.0921841
0.0928934
0.093492
0.0939838
0.0943717
0.094658
0.0948451
0.094936
0.0333445
0.0380764
0.0426242
0.0469422
0.0510545
0.0549345
0.0585993
0.0620357
0.0652574
0.0682603
0.0710565
0.0736474
0.0760442
0.0782516
0.0802798
0.0821351
0.0838269
0.0853618
0.0867481
0.0879923
0.0891014
0.0900811
0.0909373
0.0916749
0.0922984
0.0928112
0.0932161
0.0935151
0.0937106
0.0938056
0.0323914
0.0370143
0.0414627
0.0456975
0.0497402
0.0535663
0.0571903
0.0605993
0.0638049
0.0668025
0.0696021
0.0722044
0.0746188
0.0768492
0.0789042
0.0807894
0.0825128
0.0840803
0.0854994
0.0867758
0.0879158
0.0889247
0.089808
0.0905699
0.0912148
0.0917458
0.0921654
0.0924755
0.0926782
0.0927768
0.0315748
0.0361016
0.0404621
0.0446228
0.048603
0.0523801
0.0559661
0.0593488
0.0625377
0.0655279
0.0683279
0.0709376
0.0733651
0.0756132
0.0776897
0.079599
0.0813483
0.0829429
0.0843893
0.0856927
0.0868588
0.0878925
0.0887986
0.0895814
0.0902445
0.090791
0.0912232
0.0915427
0.0917517
0.0918533
0.0308831
0.0353265
0.0396105
0.0437065
0.0476315
0.0513647
0.0549163
0.0582744
0.061447
0.0644289
0.0672272
0.0698415
0.0722783
0.0745401
0.0766334
0.078562
0.0803324
0.0819492
0.0834181
0.0847438
0.0859317
0.0869861
0.0879115
0.0887116
0.0893902
0.0899498
0.0903926
0.0907201
0.0909344
0.0910386
0.030307
0.0346793
0.038898
0.0429385
0.0468159
0.050511
0.0540321
0.0573681
0.0605254
0.0634989
0.0662945
0.0689111
0.0713545
0.0736265
0.0757329
0.0776768
0.0794641
0.0810986
0.0825858
0.0839299
0.0851356
0.0862069
0.0871482
0.0879627
0.088654
0.0892246
0.0896762
0.0900103
0.090229
0.0903353
0.0298387
0.034152
0.0383166
0.0423108
0.0461482
0.049811
0.0533062
0.0566231
0.0597668
0.0627324
0.0655246
0.0681422
0.0705901
0.0728697
0.0749859
0.0769418
0.0787422
0.0803908
0.0818925
0.0832512
0.0844711
0.0855562
0.0865101
0.0873364
0.088038
0.0886173
0.089076
0.0894156
0.0896378
0.0897459
0.0294721
0.0337384
0.0378596
0.0418167
0.0456219
0.0492586
0.0527326
0.0560336
0.059166
0.0621246
0.0649135
0.0675313
0.0699821
0.0722671
0.0743907
0.0763555
0.0781659
0.0798253
0.0813381
0.082708
0.083939
0.0850346
0.0859985
0.0868338
0.0875434
0.0881296
0.0885939
0.0889377
0.0891627
0.0892721
0.0292028
0.0334339
0.0375221
0.041451
0.0452317
0.0488486
0.0523064
0.0555954
0.0587189
0.0616719
0.064458
0.0670755
0.0695282
0.071817
0.0739457
0.0759167
0.0777343
0.0794015
0.0809224
0.0823005
0.0835395
0.0846429
0.0856141
0.086456
0.0871715
0.0877628
0.0882312
0.0885781
0.0888051
0.0889156
0.0290284
0.0332346
0.0373
0.0412095
0.0449738
0.0485773
0.0520243
0.055305
0.0584224
0.0613717
0.0641557
0.0667729
0.0692266
0.0715176
0.0736496
0.0756248
0.077447
0.0791192
0.0806454
0.0820288
0.0832731
0.0843815
0.0853574
0.0862037
0.0869232
0.0875177
0.0879889
0.0883377
0.0885661
0.0886773
0.0289456
0.0331367
0.0371897
0.0410896
0.0448454
0.0484423
0.0518837
0.0551604
0.0582747
0.061222
0.0640049
0.0666219
0.0690761
0.0713683
0.0735018
0.0754789
0.0773034
0.0789781
0.0805069
0.0818929
0.0831398
0.0842508
0.0852291
0.0860775
0.0867989
0.0873951
0.0878675
0.0882174
0.0884465
0.0885581
0.127757
0.116627
0.105094
0.0944418
0.0850184
0.0767951
0.0696481
0.0634463
0.0580675
0.053402
0.049353
0.0458358
0.0427779
0.0401167
0.0377992
0.0357798
0.0340201
0.0324873
0.0311535
0.0299954
0.0289931
0.0281301
0.0273924
0.0267685
0.0262489
0.0258262
0.025494
0.0252476
0.0250854
0.0250107
0.10857
0.0981702
0.0890202
0.0804488
0.0727235
0.065852
0.059798
0.0545001
0.049881
0.0458617
0.042367
0.0393287
0.0366868
0.0343888
0.0323895
0.0306495
0.0291354
0.0278182
0.0266734
0.0256802
0.0248207
0.0240803
0.0234464
0.0229086
0.0224586
0.0220896
0.021796
0.0215732
0.0214196
0.0213445
0.0877093
0.0762321
0.0683587
0.0613874
0.0555161
0.0504285
0.0460066
0.0421585
0.0388074
0.0358877
0.0333415
0.0311188
0.0291771
0.0274802
0.0259967
0.0246998
0.0235662
0.0225759
0.0217115
0.0209583
0.0203036
0.0197368
0.0192486
0.0188317
0.0184795
0.0181873
0.0179511
0.0177672
0.0176324
0.0175578
0.067658
0.0569769
0.0503244
0.0443273
0.0396702
0.0358445
0.0326828
0.030031
0.0277815
0.0258561
0.0241959
0.0227549
0.0214981
0.0203987
0.0194348
0.0185888
0.0178454
0.0171921
0.016618
0.0161141
0.0156727
0.0152873
0.0149521
0.0146626
0.0144146
0.014205
0.0140316
0.0138918
0.0137806
0.0137058
0.0471632
0.0388898
0.0344721
0.0298618
0.0264075
0.0235967
0.0213685
0.0195781
0.0181229
0.0169242
0.0159236
0.0150771
0.0143518
0.0137259
0.0131826
0.0127089
0.0122936
0.0119282
0.0116058
0.011321
0.0110694
0.0108472
0.0106513
0.010479
0.010328
0.0101965
0.0100832
0.00998712
0.00990172
0.00982837
0.0261734
0.0205176
0.0187179
0.0160201
0.0141743
0.012574
0.0113231
0.0103353
0.00956038
0.00895084
0.00846835
0.00808174
0.00776527
0.00750416
0.00728985
0.00711179
0.00696079
0.00683081
0.00671744
0.00661734
0.00652794
0.00644725
0.00637365
0.00630579
0.00624248
0.0061825
0.00612527
0.00607097
0.00601344
0.00594573
0.00547224
0.00229168
0.00278272
0.00197234
0.00185331
0.00160922
0.00146324
0.00136046
0.00130837
0.00129896
0.00132354
0.00137272
0.00143302
0.00149819
0.00157922
0.00166444
0.00174812
0.00182752
0.00190071
0.00196637
0.00202362
0.00207187
0.00211065
0.00213963
0.00215845
0.00216652
0.00216339
0.0021503
0.00212335
0.00206655
-0.0144129
-0.0149739
-0.0126456
-0.0118571
-0.0104866
-0.0094763
-0.00853629
-0.00773299
-0.00702573
-0.00639856
-0.00583688
-0.00532898
-0.00487613
-0.00448222
-0.00409852
-0.00374973
-0.003434
-0.00314924
-0.00289409
-0.00266728
-0.00246764
-0.00229416
-0.00214599
-0.00202244
-0.00192297
-0.00184741
-0.00179609
-0.00176731
-0.00176109
-0.00180151
-0.0333423
-0.0308954
-0.0272579
-0.0248911
-0.0223432
-0.0202649
-0.0183985
-0.016786
-0.0153726
-0.0141322
-0.0130396
-0.0120702
-0.0112134
-0.0104799
-0.00978189
-0.00916546
-0.00861385
-0.00812116
-0.00768238
-0.00729343
-0.00695085
-0.00665181
-0.00639399
-0.00617553
-0.00599491
-0.00585109
-0.00574387
-0.00567196
-0.0056316
-0.0056492
-0.0510985
-0.046132
-0.0412495
-0.0373194
-0.0337152
-0.0306569
-0.0279756
-0.0256366
-0.0235816
-0.0217748
-0.020184
-0.0187765
-0.0175223
-0.0164102
-0.0154174
-0.0145399
-0.0137579
-0.0130607
-0.0124407
-0.0118914
-0.0114072
-0.0109836
-0.0106168
-0.0103039
-0.0100423
-0.00983013
-0.00966635
-0.00954965
-0.00947766
-0.00946522
-0.0675734
-0.0608787
-0.0545578
-0.0491806
-0.0445038
-0.0405565
-0.0371421
-0.0341574
-0.0315289
-0.029212
-0.0271668
-0.0253534
-0.0237326
-0.0222842
-0.021004
-0.0198716
-0.018863
-0.0179642
-0.0171651
-0.0164568
-0.0158321
-0.0152846
-0.0148094
-0.0144023
-0.0140597
-0.0137791
-0.0135585
-0.0133963
-0.013291
-0.0132527
-0.0831686
-0.0750847
-0.0672214
-0.060535
-0.0548591
-0.0500952
-0.0459756
-0.0423644
-0.0391868
-0.0363919
-0.0339252
-0.0317357
-0.0297809
-0.028035
-0.0264862
-0.0251108
-0.023884
-0.0227907
-0.0218185
-0.0209564
-0.0201952
-0.0195273
-0.0189465
-0.0184475
-0.0180259
-0.0176783
-0.0174022
-0.0171952
-0.017055
-0.0169949
-0.0983127
-0.0887558
-0.0792725
-0.0713148
-0.0647445
-0.059261
-0.0544962
-0.0502961
-0.0466041
-0.0433631
-0.040499
-0.0379526
-0.0356821
-0.0336565
-0.0318525
-0.0302442
-0.0288077
-0.0275269
-0.0263873
-0.025376
-0.0244825
-0.0236977
-0.0230143
-0.022426
-0.0219276
-0.0215151
-0.0211851
-0.0209348
-0.0207605
-0.0206775
-0.112952
-0.101979
-0.0909817
-0.0818851
-0.0745129
-0.0683204
-0.0628681
-0.0580485
-0.0538417
-0.0501632
-0.0469075
-0.0440104
-0.0414315
-0.0391326
-0.037081
-0.0352483
-0.0336108
-0.03215
-0.0308495
-0.0296949
-0.0286741
-0.027777
-0.0269951
-0.0263213
-0.0257496
-0.025275
-0.0248939
-0.0246029
-0.0243968
-0.0242902
-0.127146
-0.114792
-0.102143
-0.0919476
-0.0839279
-0.0771291
-0.0710275
-0.0656309
-0.0609512
-0.0568511
-0.0532045
-0.0499581
-0.0470725
-0.0445
-0.0422014
-0.0401471
-0.0383117
-0.036674
-0.0352154
-0.03392
-0.0327745
-0.0317676
-0.0308897
-0.0301328
-0.0294901
-0.028956
-0.0285262
-0.0281968
-0.0279613
-0.0278321
-0.140647
-0.127298
-0.113211
-0.102062
-0.0934239
-0.0858998
-0.0790448
-0.073064
-0.0679241
-0.0633953
-0.0593527
-0.0557618
-0.0525742
-0.0497301
-0.0471874
-0.0449158
-0.042887
-0.0410765
-0.0394639
-0.0380318
-0.0367656
-0.0356528
-0.0346828
-0.0338465
-0.0331364
-0.0325463
-0.0320712
-0.031707
-0.0314458
-0.0312969
-0.153663
-0.139005
-0.123359
-0.111596
-0.102603
-0.0944004
-0.0868654
-0.0803952
-0.0748171
-0.0698455
-0.0654068
-0.0614773
-0.0579867
-0.0548677
-0.0520794
-0.0495897
-0.0473663
-0.0453823
-0.0436154
-0.0420469
-0.0406607
-0.039443
-0.0383821
-0.0374681
-0.0366928
-0.0360491
-0.0355316
-0.0351356
-0.0348523
-0.034687
-0.166201
-0.150687
-0.133838
-0.121556
-0.111905
-0.102768
-0.0945688
-0.0876404
-0.0815875
-0.0761547
-0.0713299
-0.0670662
-0.0632693
-0.0598743
-0.0568421
-0.0541357
-0.0517191
-0.0495632
-0.0476443
-0.0459419
-0.0444384
-0.0431187
-0.0419702
-0.0409819
-0.0401449
-0.0394514
-0.0388954
-0.038472
-0.0381715
-0.0379946
-0.177891
-0.160772
-0.143561
-0.131399
-0.121036
-0.111072
-0.102382
-0.0949784
-0.0883883
-0.0824883
-0.0772765
-0.072659
-0.0685362
-0.0648524
-0.0615653
-0.0586312
-0.0560116
-0.0536761
-0.0515988
-0.0497574
-0.0481326
-0.0467081
-0.04547
-0.0444065
-0.0435079
-0.0427657
-0.0421731
-0.0417253
-0.041412
-0.0412285
-0.190775
-0.17229
-0.155014
-0.142146
-0.130513
-0.119812
-0.110608
-0.102574
-0.0953819
-0.0889946
-0.0833512
-0.0783316
-0.0738497
-0.0698515
-0.0662857
-0.0631034
-0.0602642
-0.0577354
-0.0554886
-0.053499
-0.0517458
-0.050211
-0.0488795
-0.0477384
-0.0467768
-0.0459858
-0.045358
-0.0448882
-0.0445667
-0.0443849
-0.203292
-0.184918
-0.168359
-0.154249
-0.141431
-0.129949
-0.119893
-0.111
-0.103083
-0.0960639
-0.0898389
-0.0842963
-0.0793542
-0.0749486
-0.07102
-0.0675156
-0.0643918
-0.0616118
-0.0591438
-0.0569603
-0.0550379
-0.0533567
-0.0518999
-0.0506529
-0.0496039
-0.0487427
-0.0480614
-0.0475547
-0.0472135
-0.0470271
-0.210127
-0.194011
-0.178168
-0.163593
-0.150255
-0.138284
-0.127637
-0.118148
-0.109695
-0.102176
-0.09548
-0.089507
-0.084177
-0.0794204
-0.0751742
-0.0713845
-0.0680052
-0.0649972
-0.0623261
-0.0599627
-0.0578819
-0.0560622
-0.0544854
-0.0531358
-0.0520005
-0.0510686
-0.0503315
-0.0497838
-0.0494178
-0.04922
-0.211019
-0.196929
-0.182227
-0.168162
-0.155088
-0.143202
-0.132497
-0.12288
-0.114265
-0.106559
-0.0996628
-0.0934894
-0.0879648
-0.0830215
-0.0785987
-0.0746442
-0.0711127
-0.067965
-0.0651667
-0.0626885
-0.0605047
-0.0585937
-0.0569367
-0.0555179
-0.054324
-0.0533437
-0.0525682
-0.0519924
-0.0516096
-0.0514061
-0.20954
-0.196315
-0.182603
-0.169403
-0.156984
-0.145539
-0.13512
-0.125684
-0.117168
-0.109502
-0.102607
-0.0964074
-0.0908387
-0.0858396
-0.0813545
-0.0773347
-0.0737375
-0.0705254
-0.0676655
-0.0651293
-0.0628919
-0.060932
-0.0592312
-0.0577739
-0.056547
-0.0555393
-0.0547419
-0.0541499
-0.0537576
-0.0535525
-0.208371
-0.195276
-0.18217
-0.169695
-0.15791
-0.146951
-0.136891
-0.127713
-0.119376
-0.111826
-0.105001
-0.0988395
-0.093284
-0.0882805
-0.0837789
-0.0797346
-0.0761078
-0.0728633
-0.06997
-0.0674005
-0.0651311
-0.0631411
-0.0614128
-0.0599308
-0.0586824
-0.0576568
-0.0568451
-0.0562422
-0.0558435
-0.0556376
-0.208079
-0.195034
-0.182322
-0.170331
-0.158999
-0.148417
-0.138651
-0.129691
-0.121508
-0.114061
-0.1073
-0.101173
-0.095631
-0.0906245
-0.0861088
-0.0820427
-0.0783894
-0.0751156
-0.0721918
-0.0695919
-0.0672931
-0.0652754
-0.0635216
-0.0620168
-0.0607486
-0.0597064
-0.0588814
-0.0582684
-0.0578633
-0.0576559
-0.208248
-0.195488
-0.183138
-0.171484
-0.160455
-0.150137
-0.140582
-0.131782
-0.123711
-0.116337
-0.109618
-0.103509
-0.0979665
-0.0929469
-0.088409
-0.0843148
-0.0806297
-0.0773223
-0.0743645
-0.0717313
-0.0694006
-0.0673532
-0.0655723
-0.0640433
-0.062754
-0.0616942
-0.0608552
-0.0602315
-0.0598194
-0.0596096
-0.208461
-0.196159
-0.184194
-0.172829
-0.162042
-0.151931
-0.142546
-0.133873
-0.125892
-0.118576
-0.111889
-0.105792
-0.100245
-0.09521
-0.0906484
-0.0865252
-0.0828078
-0.0794666
-0.0764748
-0.0738084
-0.0714461
-0.0693691
-0.0675612
-0.0660081
-0.064698
-0.0636207
-0.0627676
-0.0621333
-0.061714
-0.0615015
-0.20856
-0.196715
-0.185133
-0.174057
-0.163507
-0.153595
-0.14437
-0.135822
-0.127931
-0.120677
-0.114027
-0.107947
-0.102403
-0.0973593
-0.0927807
-0.0886348
-0.0848911
-0.0815215
-0.0785006
-0.0758052
-0.0734151
-0.0713119
-0.0694799
-0.0679052
-0.0665762
-0.065483
-0.0646172
-0.0639732
-0.0635474
-0.0633323
-0.208529
-0.197066
-0.185834
-0.175045
-0.164739
-0.155035
-0.145979
-0.137562
-0.129772
-0.122589
-0.115988
-0.109938
-0.104409
-0.0993673
-0.0947823
-0.0906233
-0.0868621
-0.0834721
-0.0804291
-0.0777112
-0.0752987
-0.0731742
-0.0713223
-0.0697296
-0.0683848
-0.0672781
-0.0664015
-0.0657493
-0.0653179
-0.0651005
-0.208393
-0.197248
-0.186328
-0.175813
-0.165751
-0.156258
-0.147375
-0.139098
-0.131416
-0.124316
-0.117774
-0.111765
-0.106261
-0.101233
-0.0966515
-0.092489
-0.0887188
-0.0853161
-0.0822582
-0.079524
-0.0770949
-0.074954
-0.0730865
-0.0714794
-0.0701217
-0.0690041
-0.0681186
-0.0674596
-0.0670236
-0.0668043
-0.208177
-0.19732
-0.186684
-0.176424
-0.166594
-0.157306
-0.148595
-0.140458
-0.13289
-0.125879
-0.119404
-0.113444
-0.107974
-0.102967
-0.0983967
-0.0942381
-0.0904662
-0.0870575
-0.0839906
-0.0812457
-0.0788047
-0.0766517
-0.0747723
-0.073154
-0.0717862
-0.0706599
-0.0697673
-0.0691027
-0.0686629
-0.0684421
-0.207893
-0.197314
-0.186947
-0.176923
-0.16731
-0.158215
-0.149669
-0.141671
-0.134217
-0.127297
-0.120894
-0.114988
-0.109557
-0.104578
-0.100026
-0.0958773
-0.0921093
-0.0887001
-0.0856294
-0.0828782
-0.0804296
-0.0782681
-0.0763801
-0.0747535
-0.073378
-0.0722448
-0.0713465
-0.0706777
-0.0702348
-0.0700128
-0.207546
-0.197235
-0.187127
-0.177326
-0.167916
-0.159001
-0.150614
-0.142751
-0.13541
-0.128582
-0.122253
-0.116405
-0.111019
-0.106072
-0.101543
-0.0974098
-0.0936509
-0.090246
-0.0871759
-0.0844227
-0.0819702
-0.0798036
-0.07791
-0.0762776
-0.0748965
-0.0737584
-0.0728559
-0.0721837
-0.0717385
-0.0715156
-0.207136
-0.19708
-0.187219
-0.17763
-0.168411
-0.15967
-0.151433
-0.143702
-0.136472
-0.129738
-0.123485
-0.117699
-0.11236
-0.107451
-0.10295
-0.0988369
-0.0950919
-0.0916958
-0.0886305
-0.0858792
-0.0834264
-0.0812581
-0.0793616
-0.077726
-0.0763415
-0.0752001
-0.0742948
-0.0736204
-0.0731735
-0.0729499
-0.206666
-0.196845
-0.187218
-0.17783
-0.168795
-0.160219
-0.152129
-0.144525
-0.137406
-0.130766
-0.124592
-0.11887
-0.113584
-0.108716
-0.104248
-0.100159
-0.0964327
-0.0930497
-0.0899934
-0.0872478
-0.0847982
-0.0826312
-0.0807347
-0.0790982
-0.0777124
-0.0765695
-0.0756628
-0.0749871
-0.0745393
-0.0743153
-0.206141
-0.196531
-0.187122
-0.177926
-0.169066
-0.160649
-0.152701
-0.145223
-0.138214
-0.131669
-0.125576
-0.119921
-0.114691
-0.109869
-0.105437
-0.101378
-0.097674
-0.0943083
-0.0912649
-0.0885286
-0.0860855
-0.0839229
-0.0820292
-0.0803942
-0.079009
-0.0778663
-0.0769594
-0.0762835
-0.0758354
-0.0756114
-0.205565
-0.196141
-0.186935
-0.177921
-0.169228
-0.160963
-0.153153
-0.145799
-0.1389
-0.13245
-0.126439
-0.120856
-0.115685
-0.110912
-0.106521
-0.102494
-0.0988169
-0.0954724
-0.0924456
-0.0897221
-0.0872888
-0.0851333
-0.0832449
-0.0816137
-0.0802312
-0.0790902
-0.0781845
-0.0775093
-0.0770615
-0.0768378
-0.204941
-0.195673
-0.186659
-0.177818
-0.169284
-0.161165
-0.153488
-0.146256
-0.139467
-0.133113
-0.127187
-0.121675
-0.116567
-0.111847
-0.107499
-0.10351
-0.099863
-0.0965432
-0.0935364
-0.090829
-0.0884083
-0.0862629
-0.0843822
-0.0827569
-0.0813788
-0.0802411
-0.0793378
-0.0786642
-0.0782175
-0.0779942
-0.204271
-0.195126
-0.186296
-0.177622
-0.169238
-0.161259
-0.153712
-0.146599
-0.139918
-0.133662
-0.12782
-0.122384
-0.11734
-0.112676
-0.108376
-0.104427
-0.100814
-0.097522
-0.0945384
-0.09185
-0.0894449
-0.087312
-0.0854413
-0.083824
-0.0824521
-0.0813191
-0.0804194
-0.0797483
-0.0793031
-0.0790807
-0.203554
-0.194494
-0.185849
-0.177335
-0.169092
-0.161245
-0.153825
-0.146831
-0.140258
-0.134098
-0.128344
-0.122984
-0.118008
-0.113402
-0.109153
-0.105247
-0.10167
-0.0984098
-0.0954525
-0.0927861
-0.0903991
-0.0882812
-0.0864228
-0.0848153
-0.0834513
-0.0823245
-0.0814293
-0.0807616
-0.0803185
-0.0800972
-0.202782
-0.193769
-0.185323
-0.176959
-0.168844
-0.161126
-0.153832
-0.146955
-0.140488
-0.134426
-0.128759
-0.123478
-0.118571
-0.114026
-0.109831
-0.105971
-0.102434
-0.0992082
-0.0962799
-0.093638
-0.0912718
-0.0891711
-0.087327
-0.0857312
-0.0843767
-0.0832573
-0.0823679
-0.0817043
-0.0812639
-0.0810439
-0.201939
-0.192945
-0.184724
-0.17649
-0.168494
-0.160903
-0.153734
-0.146972
-0.140611
-0.134646
-0.129069
-0.123868
-0.119033
-0.114552
-0.110412
-0.106602
-0.103108
-0.0999182
-0.0970216
-0.0944069
-0.0920637
-0.0899825
-0.0881546
-0.0865722
-0.0852287
-0.084118
-0.0832353
-0.0825766
-0.0821393
-0.081921
-0.201004
-0.192027
-0.184059
-0.175923
-0.16804
-0.160579
-0.153532
-0.146884
-0.140629
-0.134763
-0.129275
-0.124156
-0.119395
-0.11498
-0.110899
-0.10714
-0.103691
-0.100541
-0.097679
-0.0950937
-0.0927758
-0.0907161
-0.0889063
-0.087339
-0.0860078
-0.084907
-0.084032
-0.083379
-0.0829453
-0.0827288
-0.199939
-0.191036
-0.183326
-0.175248
-0.167484
-0.160155
-0.153229
-0.146692
-0.140543
-0.134776
-0.12938
-0.124345
-0.11966
-0.115313
-0.111293
-0.107588
-0.104187
-0.101079
-0.0982531
-0.0956996
-0.0934091
-0.0913727
-0.0895828
-0.0880322
-0.0867146
-0.0856249