/*--------------------------------*- C++ -*----------------------------------*\
  =========                 |
  \\      /  F ield         | OpenFOAM: The Open Source CFD Toolbox
   \\    /   O peration     | Website:  https://openfoam.org
    \\  /    A nd           | Version:  7
     \\/     M anipulation  |
\*---------------------------------------------------------------------------*/
FoamFile
{
    version     2.0;
    format      ascii;
    class       surfaceScalarField;
    location    "85";
    object      phi;
}
// * * * * * * * * * * * * * * * * * * * * * * * * * * * * * * * * * * * * * //

dimensions      [0 3 -1 0 0 0 0];

internalField   nonuniform List<scalar> 
6855
(
-7.46929e-05
-4.40047e-06
-9.32317e-06
-0.000609262
-7.15388e-07
-0.00149085
-1.03105e-06
-1.02123e-06
-0.000609262
0.000608547
-0.00149085
0.000880556
-0.00240484
0.000912972
-0.00333371
0.000927894
-0.00429356
0.000958908
-0.00529417
0.000999709
-0.00634534
0.00105031
-0.00745405
0.00110788
-0.0086264
0.00117155
0.00124358
-0.00987074
-0.000599968
0.00120851
-0.0014731
0.00175369
-0.00238019
0.00182006
-0.00330245
0.00185016
-0.00425571
0.00191218
-0.00524977
0.00199376
-0.00629444
0.00209498
-0.00739688
0.00221032
-0.00856333
0.002338
0.00248222
-0.00980198
-0.000581468
0.00178998
-0.00143772
0.00260994
-0.00233094
0.00271329
-0.00324
0.00275921
-0.00418012
0.0028523
-0.00516103
0.00297467
-0.00619258
0.00312654
-0.00728237
0.00330011
-0.00843665
0.00349227
0.00370841
-0.00966283
-0.000554048
0.00234403
-0.00138495
0.00344084
-0.00225726
0.0035856
-0.00314658
0.00364853
-0.00406711
0.00377283
-0.00502836
0.00393591
-0.00604009
0.00413827
-0.00711044
0.00437046
-0.00824584
0.00462766
0.0049147
-0.00945213
-0.000518727
0.00286276
-0.00131507
0.00423718
-0.00215915
0.00442969
-0.0030222
0.00451158
-0.00391662
0.00466724
-0.00485158
0.00487087
-0.00583673
0.00512342
-0.00688102
0.00541475
-0.00799096
0.0057376
0.00609361
-0.00916986
-0.000477626
0.00334039
-0.0012281
0.00498765
-0.00203698
0.00523857
-0.00286779
0.00534239
-0.00373037
0.00552982
-0.00463331
0.00577381
-0.00558548
0.00607559
-0.00659648
0.00642575
-0.00767359
0.00681471
0.00723719
-0.00881717
-0.000424889
0.00376527
-0.00112274
0.0056855
-0.00189049
0.00600632
-0.00268293
0.00613483
-0.00350699
0.00635388
-0.00437056
0.00663737
-0.00528154
0.00698658
-0.00625096
0.00739517
-0.00729046
0.00785421
0.00834182
-0.00839509
-0.000362019
0.00412729
-0.000999339
0.00632282
-0.00172006
0.00672704
-0.00246892
0.00688369
-0.00324976
0.00713472
-0.0040705
0.00745811
-0.00493765
0.00785373
-0.00586023
0.00831775
-0.00685298
0.00884695
0.00939832
-0.00790948
-0.00029
0.00441729
-0.000858591
0.00689141
-0.00152611
0.00739456
-0.00222603
0.0075836
-0.00295768
0.00786638
-0.00372807
0.0082285
-0.00454083
0.00866649
-0.0053999
0.00917682
-0.00632491
0.00977196
0.0104259
-0.00735244
-0.00020914
0.00462643
-0.000701207
0.00738348
-0.00130923
0.00800258
-0.00195527
0.00822965
-0.00263303
0.00854413
-0.00334924
0.00894471
-0.00410914
0.00942639
-0.0049155
0.00998318
-0.00576927
0.0106257
0.011425
-0.00676846
-0.000118953
0.00474539
-0.000528368
0.00779289
-0.00107023
0.00854445
-0.00165786
0.00881728
-0.00227746
0.00916373
-0.00293414
0.0096014
-0.00363269
0.0101249
-0.00437592
0.0107264
-0.00516771
0.0114175
0.0121982
-0.00594087
-1.28599e-05
0.00475825
-0.000341346
0.00812138
-0.000809395
0.0090125
-0.00133495
0.00934283
-0.00189242
0.00972119
-0.00248487
0.0101938
-0.00311662
0.0107567
-0.00378917
0.011399
-0.00449775
0.0121261
0.0129509
-0.00525048
7.32611e-05
0.00468499
-0.000139312
0.00833395
-0.000528851
0.00940203
-0.000988288
0.00980227
-0.00147993
0.0102128
-0.00200503
0.0107189
-0.00256761
0.0113193
-0.00317202
0.0120034
-0.0038199
0.012774
0.0136355
-0.00450442
0.000166825
0.00451816
7.5554e-05
0.00842522
-0.000233059
0.00971065
-0.000619509
0.0101887
-0.00104198
0.0106353
-0.00149744
0.0111744
-0.00198833
0.0118102
-0.0025203
0.0125353
-0.00309223
0.0133459
0.014244
-0.00370079
0.000262069
0.00425609
0.000286961
0.00840033
7.80284e-05
0.00991958
-0.000231391
0.0104981
-0.000581063
0.010985
-0.000964005
0.0115573
-0.00137928
0.0122254
-0.00183358
0.0129896
-0.00232546
0.0138378
0.0147694
-0.00285083
0.000353491
0.0039026
0.000507867
0.00824595
0.000409565
0.0100179
0.000178233
0.0107295
-0.000101481
0.0112647
-0.000407072
0.0118629
-0.000743356
0.0125617
-0.00111462
0.0133609
-0.00152385
0.014247
0.0152076
-0.00196206
0.000435572
0.00346703
0.000727774
0.00795375
0.000746999
0.00999866
0.000608468
0.010868
0.000407223
0.0114659
0.000173182
0.012097
-8.70857e-05
0.012822
-0.000369515
0.0136433
-0.00068768
0.0145652
0.0155586
-0.00103872
0.000501237
0.00296579
0.000937544
0.00751744
0.00108753
0.00984867
0.00104876
0.0109068
0.000930629
0.0115841
0.000778265
0.0122493
0.000601885
0.0129984
0.00040071
0.0138445
0.000178486
0.0147874
0.0158302
-9.30683e-05
0.00054246
0.00242333
0.00112692
0.00693299
0.00142294
0.00955265
0.00149582
0.0108339
0.00146583
0.0116141
0.00139571
0.0123195
0.00130355
0.0130905
0.00119183
0.0139562
0.00105762
0.0149216
0.0159744
0.000913359
0.000552385
0.00187095
0.00128351
0.00620186
0.00174102
0.00909514
0.00194167
0.0106332
0.00200882
0.0115469
0.00202382
0.0123045
0.00201677
0.0130976
0.00199532
0.0139777
0.00196013
0.0149568
0.0160157
0.00191889
0.000528244
0.0013427
0.00139338
0.00533672
0.00202595
0.00846257
0.00237435
0.0102848
0.00255273
0.0113685
0.00265854
0.0121987
0.00273809
0.013018
0.00280706
0.0139087
0.00286788
0.014896
0.0159621
0.0029215
0.000472636
0.000870066
0.00144162
0.00436774
0.00225674
0.00764745
0.00277791
0.00976367
0.00308745
0.011059
0.00329362
0.0119925
0.00346249
0.0128492
0.00362126
0.0137499
0.00377579
0.0147414
0.0158115
0.00392636
0.000392984
0.000477082
0.00140539
0.00335534
0.00240692
0.00664591
0.00312883
0.00904176
0.00359684
0.010591
0.00391971
0.0116696
0.00418357
0.0125853
0.00443328
0.0135002
0.00468261
0.0144921
0.0155637
0.00493045
0.000301573
0.000175509
0.00127993
0.00237698
0.00244836
0.00547749
0.00339373
0.00809638
0.00405507
0.00992965
0.00452128
0.0112034
0.00489353
0.0122131
0.00523666
0.0131571
0.00558198
0.0141468
0.0152159
0.00592973
0.000213708
-3.81996e-05
0.00108228
0.00150841
0.00235403
0.00420574
0.00352864
0.00692177
0.00442317
0.00903513
0.00507249
0.0105541
0.00557731
0.0117082
0.00602524
0.0127092
0.00646635
0.0137057
0.0147749
0.00690732
0.000141206
-0.000179406
0.000845628
0.000803988
0.00210914
0.00294223
0.00348223
0.00554867
0.00464358
0.00787378
0.00552925
0.0096684
0.00620994
0.0110276
0.00678106
0.0121381
0.00733171
0.013155
0.0142384
0.00786826
8.67003e-05
-0.000266106
0.000610837
0.000279852
0.00173692
0.00181615
0.00321077
0.00407482
0.0046403
0.00644425
0.00581871
0.00848999
0.00674022
0.010106
0.00748317
0.0113951
0.00815045
0.0124878
0.0135913
0.00879749
4.78067e-05
-0.000313913
0.000411411
-8.37527e-05
0.0013097
0.000917858
0.00271977
0.00266475
0.00433212
0.00483189
0.00583405
0.00698807
0.00707738
0.00886272
0.008065
0.0104075
0.00892039
0.0116324
0.0128546
0.00965713
2.17393e-05
-0.000335652
0.000260634
-0.000322647
0.000911925
0.000266567
0.0020985
0.00147817
0.00370507
0.00322533
0.00544427
0.00524886
0.00707228
0.00723471
0.00841061
0.00906915
0.00953565
0.0105073
0.0118818
0.0105085
6.18511e-06
-0.000341837
0.000155587
-0.000472049
0.000595456
-0.000173301
0.00148365
0.000589979
0.00287256
0.00183642
0.0046299
0.00349152
0.00652142
0.00534319
0.00831335
0.00727722
0.00984797
0.00897271
0.0107386
0.0109912
-2.11456e-06
-0.000339723
8.65102e-05
-0.000560674
0.000368328
-0.000455119
0.000975295
-1.69883e-05
0.00202654
0.000785177
0.00355849
0.00195957
0.005427
0.00347469
0.00747219
0.00523203
0.00957998
0.00686492
0.00909681
0.0112217
-6.71759e-06
-0.000333005
4.09598e-05
-0.000608351
0.000211618
-0.000625777
0.000598638
-0.000404008
0.00131687
6.69399e-05
0.00247479
0.000801654
0.00405248
0.001897
0.00601352
0.00327099
0.00836832
0.00451011
0.0069791
0.010486
-1.00319e-05
-0.000322973
6.88106e-06
-0.000625264
9.76685e-05
-0.000716565
0.00032704
-0.00063338
0.000778995
-0.000385015
0.00154773
3.2924e-05
0.00272467
0.000720049
0.00430495
0.00169072
0.00637644
0.00243862
0.00461147
0.00874406
-1.5157e-05
-0.000307816
-2.66853e-05
-0.000613736
2.3874e-06
-0.000745637
0.000116414
-0.000747407
0.000371359
-0.000639959
0.000829524
-0.000425241
0.00160841
-5.88385e-05
0.00271755
0.000581585
0.00424381
0.000912357
0.00247757
0.00637772
-2.37293e-05
-0.000284087
-6.36878e-05
-0.000573778
-8.8606e-05
-0.000720719
-6.57355e-05
-0.000770277
4.46628e-05
-0.000750358
0.000273292
-0.00065387
0.00071566
-0.000501206
0.00141529
-0.000118046
0.00237103
-4.33779e-05
0.000954394
0.0038942
-3.51992e-05
-0.000248888
-0.000104505
-0.000504471
-0.00017913
-0.000646094
-0.000233078
-0.000716329
-0.000242949
-0.000740487
-0.000177964
-0.000718855
1.7858e-05
-0.000697028
0.000356229
-0.000456417
0.000847623
-0.000534772
8.89232e-05
0.00171309
-4.81017e-05
-0.000200786
-0.000146053
-0.00040652
-0.000265674
-0.000526474
-0.000385708
-0.000596295
-0.000489434
-0.00063676
-0.000552191
-0.000656099
-0.000577888
-0.000671331
-0.000471174
-0.000563132
-0.000341115
-0.00066483
-0.000267698
1.5506e-05
-6.03641e-05
-0.000140422
-0.000183393
-0.000283492
-0.000340521
-0.000369345
-0.000513387
-0.00042343
-0.000689436
-0.000460711
-0.000856648
-0.000488886
-0.00101881
-0.000509167
-0.00110329
-0.000478652
-0.00122873
-0.000539396
-0.000355226
-0.0011412
-6.98722e-05
-7.05499e-05
-0.000211441
-0.000141923
-0.000395454
-0.000185332
-0.000605275
-0.000213608
-0.000831688
-0.000234298
-0.00106925
-0.000251326
-0.00131513
-0.000263287
-0.00153381
-0.000259968
-0.00178743
-0.000285775
-0.000224529
-0.00191813
-7.49504e-05
-0.000226197
-0.000424036
-0.000652664
-0.000904597
-0.00117646
-0.00146318
-0.00174877
-0.00206035
-0.0023082
-0.0100945
0.00022317
-0.0102662
0.00017119
-0.0104168
0.000150088
-0.0105351
0.000117755
-0.0106363
0.000100818
-0.0107162
7.94674e-05
-0.010783
6.63876e-05
-0.0108351
5.17366e-05
-0.0108772
4.1732e-05
-0.0109089
3.13331e-05
-0.0109328
2.36455e-05
-0.0109491
1.60253e-05
-0.0109595
1.0058e-05
-0.0109641
4.41059e-06
-0.0109645
1.11499e-07
-0.01096
-4.75192e-06
-0.0109515
-8.69832e-06
-0.0109394
-1.23068e-05
-0.0109241
-1.54536e-05
-0.010906
-1.83633e-05
-0.0108852
-2.09554e-05
-0.0108619
-2.33665e-05
-0.0108365
-2.55567e-05
-0.010809
-2.76114e-05
-0.0107796
-2.95138e-05
-0.0107483
-3.13169e-05
-0.0107154
-3.30182e-05
-0.0106808
-3.46625e-05
-0.0106445
-3.62746e-05
-3.79064e-05
-0.0100285
0.000449687
-0.0102022
0.000344842
-0.0103546
0.000302565
-0.0104745
0.000237635
-0.0105776
0.000203911
-0.0106593
0.00016121
-0.0107282
0.0001352
-0.0107824
0.000105936
-0.0108266
8.60198e-05
-0.0108606
6.52433e-05
-0.0108868
4.99128e-05
-0.0109055
3.46795e-05
-0.0109182
2.2767e-05
-0.0109252
1.14376e-05
-0.0109276
2.52255e-06
-0.0109257
-6.71455e-06
-0.0109197
-1.46396e-05
-0.0109101
-2.1933e-05
-0.0108973
-2.82411e-05
-0.0108816
-3.40948e-05
-0.0108632
-3.92926e-05
-0.0108425
-4.41386e-05
-0.0108195
-4.8537e-05
-0.0107944
-5.2669e-05
-0.0107674
-5.64941e-05
-0.0107386
-6.01229e-05
-0.0107081
-6.35476e-05
-0.0106759
-6.68595e-05
-0.0106421
-7.0105e-05
-7.33868e-05
-0.0098944
0.000681261
-0.0100719
0.000522382
-0.0102285
0.000459119
-0.0103521
0.000361236
-0.0104592
0.000311043
-0.010545
0.000246982
-0.0106181
0.000208309
-0.0106767
0.000164491
-0.0107255
0.000134836
-0.010764
0.000103728
-0.0107949
8.08545e-05
-0.0108183
5.80427e-05
-0.0108357
4.02293e-05
-0.0108474
2.31372e-05
-0.0108543
9.42147e-06
-0.0108574
-3.63084e-06
-0.0108564
-1.56648e-05
-0.0108517
-2.66638e-05
-0.0108438
-3.61158e-05
-0.010833
-4.49209e-05
-0.0108195
-5.27263e-05
-0.0108036
-6.0017e-05
-0.0107856
-6.66308e-05
-0.0107654
-7.285e-05
-0.0107433
-7.86058e-05
-0.0107193
-8.40714e-05
-0.0106936
-8.92307e-05
-0.0106663
-9.42228e-05
-0.0106373
-9.91109e-05
-0.000104046
-0.00969053
0.000919666
-0.00987387
0.000705717
-0.0100369
0.000622169
-0.0101666
0.00049096
-0.0102804
0.000424772
-0.0103727
0.00033927
-0.0104526
0.000288236
-0.010518
0.00022987
-0.0105738
0.000190657
-0.0106193
0.000149242
-0.0106574
0.000118926
-0.0106879
8.85525e-05
-0.0107125
6.48858e-05
-0.0107314
4.20028e-05
-0.0107454
2.34192e-05
-0.0107553
6.22275e-06
-0.0107617
-9.1796e-06
-0.0107644
-2.39798e-05
-0.0107639
-3.6632e-05
-0.0107604
-4.84162e-05
-0.0107543
-5.88406e-05
-0.0107457
-6.85896e-05
-0.0107349
-7.74313e-05
-0.010722
-8.57512e-05
-0.0107072
-9.34532e-05
-0.0106905
-0.000100773
-0.010672
-0.000107684
-0.0106519
-0.000114374
-0.0106301
-0.000120919
-0.00012751
-0.00941668
0.00116648
-0.00960773
0.000896768
-0.0097798
0.000794234
-0.00991815
0.000629318
-0.0100411
0.000547743
-0.0101425
0.000440663
-0.0102319
0.000377579
-0.0103066
0.000304633
-0.010372
0.00025602
-0.010427
0.000204294
-0.0104747
0.000166616
-0.0105148
0.000128673
-0.0105492
9.9191e-05
-0.0105777
7.05524e-05
-0.0106015
4.7205e-05
-0.0106204
2.50888e-05
-0.0106363
6.81383e-06
-0.0106489
-1.14046e-05
-0.0106581
-2.7427e-05
-0.0106644
-4.21583e-05
-0.010668
-5.5265e-05
-0.0106691
-6.74841e-05
-0.0106679
-7.8567e-05
-0.0106647
-8.902e-05
-0.0106594
-9.86887e-05
-0.0106523
-0.000107882
-0.0106434
-0.000116568
-0.0106328
-0.000124984
-0.0106205
-0.000133201
-0.000141451
-0.00907378
0.00142309
-0.00927428
0.00109727
-0.00945763
0.000977583
-0.00960708
0.000778765
-0.00974196
0.000682624
-0.00985516
0.000553863
-0.00995661
0.000479027
-0.0100434
0.00039143
-0.0101209
0.000333513
-0.010188
0.000271433
-0.0102478
0.000226418
-0.0103
0.000180874
-0.0103464
0.000145574
-0.010387
0.00011117
-0.010423
8.31491e-05
-0.0104543
5.64178e-05
-0.0104813
3.3802e-05
-0.0105055
1.27511e-05
-0.0105272
-5.63591e-06
-0.0105455
-2.39482e-05
-0.010561
-3.96876e-05
-0.0105742
-5.43526e-05
-0.010585
-6.77439e-05
-0.0105936
-8.03731e-05
-0.0106003
-9.20069e-05
-0.0106051
-0.000103109
-0.010608
-0.000113615
-0.0106092
-0.000123786
-0.0106088
-0.000133691
-0.000143602
-0.00866385
0.00169186
-0.00887561
0.00130903
-0.00907286
0.00117483
-0.00923596
0.000941867
-0.00938515
0.000831812
-0.00951266
0.000681375
-0.00962859
0.000594949
-0.00972991
0.000492755
-0.00982194
0.000425547
-0.00990363
0.000353119
-0.00997794
0.000300733
-0.0100446
0.000247564
-0.0101055
0.000206405
-0.0101605
0.000166204
-0.0102108
0.000133492
-0.0102567
0.000102232
-0.0102986
7.57559e-05
-0.0103366
5.07464e-05
-0.0103713
2.90127e-05
-0.0104041
8.93787e-06
-0.0104343
-9.47955e-06
-0.0104616
-2.7149e-05
-0.0104866
-4.27358e-05
-0.0105095
-5.74791e-05
-0.0105303
-7.12057e-05
-0.0105491
-8.42701e-05
-0.0105661
-9.66316e-05
-0.0105813
-0.00010858
-0.0105948
-0.000120204
-0.000131769
-0.00819005
0.00197243
-0.00841459
0.00153357
-0.00862639
0.00138663
-0.00880505
0.00112053
-0.00897076
0.000997516
-0.0091154
0.000826015
-0.0092486
0.000728158
-0.00936726
0.000611409
-0.00947652
0.000534811
-0.00957533
0.000451927
-0.00966664
0.000392047
-0.00975021
0.000331133
-0.00982783
0.000284019
-0.00989954
0.00023792
-0.0099665
0.000200448
-0.0100289
0.000164605
-0.0100874
0.000134305
-0.0101423
0.000105629
-0.0101939
8.06415e-05
-0.0102422
5.71906e-05
-0.0102879
3.62501e-05
-0.0103316
1.65368e-05
-0.0103737
-6.48086e-07
-0.0104127
-1.84882e-05
-0.0104496
-3.43132e-05
-0.0104846
-4.91997e-05
-0.0105178
-6.34342e-05
-0.0105491
-7.72809e-05
-0.0105787
-9.06575e-05
-0.000103854
-0.0076536
0.00227359
-0.00789476
0.00177472
-0.00812436
0.00161624
-0.00832293
0.00131909
-0.00850685
0.00118144
-0.00867077
0.000989939
-0.00882252
0.000879908
-0.00896028
0.000749163
-0.00908837
0.000662899
-0.00920619
0.000569754
-0.00931639
0.000502246
-0.00941888
0.000433616
-0.00951532
0.00038046
-0.00960583
0.00032843
-0.0096915
0.00028612
-0.00977252
0.000245625
-0.00984964
0.000211428
-0.0099231
0.000179082
-0.00999339
0.000150933
-0.0100606
0.00012439
-0.010125
0.000100662
-0.0101869
7.83909e-05
-0.0102458
5.82578e-05
-0.0103033
3.90206e-05
-0.0103588
2.11729e-05
-0.0104123
4.38755e-06
-0.0104637
-1.20951e-05
-0.010513
-2.79559e-05
-0.0105606
-4.30512e-05
-5.78636e-05
-0.00708166
0.00258679
-0.00733182
0.00202488
-0.00757228
0.00185669
-0.00778575
0.00153257
-0.00798868
0.00138438
-0.00817305
0.00117431
-0.00834756
0.00105442
-0.00850737
0.000908967
-0.0086581
0.000813637
-0.0087978
0.000709446
-0.00892991
0.000634363
-0.00905374
0.000557448
-0.00917145
0.000498164
-0.00928286
0.000439837
-0.00938933
0.000392595
-0.00949093
0.000347223
-0.00958853
0.000309035
-0.00968229
0.000272842
-0.00977279
0.000241432
-0.00986019
0.000211792
-0.00994493
0.000185394
-0.0100271
0.000160528
-0.0101067
0.00013786
-0.010184
0.000116343
-0.0102593
9.64778e-05
-0.0103324
7.75171e-05
-0.0104038
5.92842e-05
-0.0104732
4.14818e-05
-0.0105407
2.44121e-05
8.03483e-06
-0.0126683
0.00237739
0.0128777
-0.012575
0.0019316
-0.012569
0.00185067
-0.0125673
0.0015308
-0.0125992
0.00141632
-0.0126243
0.00119941
-0.0126645
0.00109459
-0.0126996
0.000944076
-0.0127405
0.000854545
-0.0127771
0.00074609
-0.0128151
0.000672301
-0.0128494
0.000591724
-0.0128829
0.000531677
-0.0129132
0.000470165
-0.0129419
0.000421292
-0.0129678
0.000373134
-0.0129918
0.000333035
-0.0130134
0.0002944
-0.013033
0.000261057
-0.0130505
0.000229284
-0.0130662
0.000201083
-0.0130799
0.000174294
-0.013092
0.000149887
-0.0131023
0.000126664
-0.013111
0.000105151
-0.0131179
8.4463e-05
-0.0131234
6.47574e-05
-0.0131275
4.55783e-05
-0.0131302
2.71229e-05
8.97913e-06
-0.0128874
0.00221393
0.0130508
-0.0128249
0.00186909
-0.012756
0.00178177
-0.0127393
0.00151417
-0.0127342
0.0014112
-0.0127463
0.00121155
-0.0127645
0.00111275
-0.0127875
0.000967127
-0.0128138
0.000880812
-0.0128406
0.000772895
-0.0128684
0.000700086
-0.0128951
0.000618386
-0.0129213
0.000557934
-0.0129459
0.000494711
-0.0129693
0.000444705
-0.0129908
0.000394692
-0.0130109
0.000353143
-0.0130292
0.000312691
-0.013046
0.000277807
-0.013061
0.000244334
-0.0130746
0.000214612
-0.0130865
0.000186236
-0.013097
0.000160397
-0.0131061
0.000135707
-0.0131137
0.000112748
-0.0131198
9.06188e-05
-0.0131246
6.95795e-05
-0.0131282
4.91171e-05
-0.0131304
2.93285e-05
9.73129e-06
-0.0130704
0.0020687
0.0132156
-0.012998
0.00179667
-0.0129232
0.00170701
-0.0128921
0.00148297
-0.0128656
0.0013847
-0.0128625
0.00120849
-0.0128635
0.00111375
-0.0128746
0.000978196
-0.0128879
0.000894089
-0.0129051
0.00079012
-0.0129231
0.000718149
-0.0129423
0.000637514
-0.0129613
0.000576933
-0.01298
0.000513415
-0.012998
0.000462689
-0.013015
0.000411763
-0.0130311
0.00036918
-0.0130459
0.000327564
-0.0130596
0.000291512
-0.0130721
0.0002568
-0.0130834
0.000225868
-0.0130934
0.000196258
-0.0131022
0.000169235
-0.0131099
0.000143345
-0.0131163
0.000119198
-0.0131216
9.58916e-05
-0.0131257
7.37128e-05
-0.0131287
5.21072e-05
-0.0131305
3.11466e-05
1.03392e-05
-0.0132247
0.00193969
0.0133537
-0.0131406
0.00171259
-0.0130651
0.00163159
-0.013022
0.00143982
-0.012985
0.00134774
-0.0129686
0.00119202
-0.012957
0.00110215
-0.0129567
0.000977904
-0.0129591
0.000896578
-0.0129672
0.0007982
-0.0129766
0.000727559
-0.0129885
0.000649385
-0.0130007
0.000589174
-0.0130138
0.000526426
-0.0130265
0.000475458
-0.0130392
0.00042441
-0.0130512
0.000381224
-0.0130627
0.000339031
-0.0130734
0.000302181
-0.0130832
0.000266672
-0.0130922
0.000234845
-0.0131003
0.000204343
-0.0131074
0.000176391
-0.0131137
0.000149569
-0.013119
0.000124477
-0.0131233
0.000100236
-0.0131267
7.71201e-05
-0.0131292
5.45631e-05
-0.0131306
3.26271e-05
1.08321e-05
-0.0133504
0.00182106
0.013469
-0.0132622
0.00162438
-0.0131856
0.00155499
-0.0131335
0.0013877
-0.0130899
0.00130416
-0.0130631
0.00116524
-0.0130424
0.00108141
-0.0130322
0.00096777
-0.013026
0.000890286
-0.0130257
0.000797967
-0.0130276
0.000729476
-0.0130327
0.000654491
-0.0130389
0.000595306
-0.0130465
0.000534034
-0.0130544
0.000483367
-0.0130628
0.000432798
-0.013071
0.00038946
-0.0130792
0.000347177
-0.0130869
0.000309904
-0.0130942
0.00027399
-0.0131009
0.000241584
-0.0131071
0.000210507
-0.0131126
0.000181889
-0.0131174
0.0001544
-0.0131216
0.000128597
-0.013125
0.000103648
-0.0131276
7.9798e-05
-0.0131296
5.64953e-05
-0.0131307
3.37898e-05
1.12203e-05
-0.013453
0.00170901
0.0135651
-0.0133649
0.00153627
-0.0132875
0.00147752
-0.0132297
0.00132992
-0.013181
0.00125551
-0.0131466
0.00113085
-0.013119
0.00105373
-0.0131009
0.000949691
-0.0130874
0.000876817
-0.01308
0.000790541
-0.0130755
0.000724935
-0.0130745
0.000653505
-0.0130751
0.000595974
-0.0130778
0.000536644
-0.0130812
0.000486803
-0.0130856
0.000437165
-0.0130902
0.000394112
-0.0130952
0.000352142
-0.0131001
0.000314809
-0.0131049
0.000278834
-0.0131095
0.000246156
-0.0131138
0.000214794
-0.0131177
0.000185771
-0.0131211
0.000157865
-0.0131241
0.00013158
-0.0131266
0.000106142
-0.0131286
8.17618e-05
-0.01313
5.79179e-05
-0.0131308
3.46462e-05
1.15075e-05
-0.0135375
0.00160206
0.0136445
-0.013451
0.00144972
-0.0133734
0.00139991
-0.0133124
0.00126895
-0.01326
0.00120307
-0.01322
0.00109092
-0.0131869
0.00102061
-0.0131626
0.000925376
-0.0131432
0.00085746
-0.0131298
0.000777081
-0.0131197
0.000714849
-0.0131134
0.000647171
-0.0131092
0.000591786
-0.0131073
0.000534728
-0.0131066
0.000486159
-0.0131073
0.000437808
-0.0131086
0.00039543
-0.0131105
0.000354107
-0.0131128
0.00031705
-0.0131153
0.000281314
-0.0131178
0.000248651
-0.0131202
0.00021727
-0.0131226
0.000188092
-0.0131247
0.000160006
-0.0131266
0.000133461
-0.0131282
0.000107743
-0.0131295
8.30343e-05
-0.0131304
5.88483e-05
-0.0131309
3.52075e-05
1.16968e-05
-0.0136073
0.00149977
0.0137096
-0.0135228
0.00136519
-0.0134457
0.00132279
-0.013383
0.00120635
-0.013328
0.00114802
-0.0132842
0.00104708
-0.0132468
0.000983252
-0.0132176
0.000896199
-0.0131934
0.00083329
-0.013175
0.000758641
-0.0131602
0.000700034
-0.0131492
0.000636221
-0.0131408
0.000583322
-0.0131348
0.000528775
-0.0131305
0.00048183
-0.0131277
0.000435049
-0.013126
0.000393675
-0.0131252
0.000353282
-0.0131249
0.000316798
-0.0131252
0.000281565
-0.0131257
0.000249179
-0.0131264
0.00021802
-0.0131273
0.000188922
-0.0131281
0.000160874
-0.013129
0.00013428
-0.0131297
0.000108484
-0.0131303
8.3643e-05
-0.0131308
5.93062e-05
-0.013131
3.54861e-05
1.17919e-05
-0.0136647
0.00140197
0.0137625
-0.0135825
0.00128294
-0.0135064
0.00124669
-0.0134431
0.00114305
-0.0133864
0.00109135
-0.0133398
0.00100052
-0.0132993
0.000942675
-0.0132663
0.000863255
-0.0132382
0.000805222
-0.0132157
0.000736121
-0.0131969
0.000681228
-0.013182
0.000621329
-0.0131698
0.000571126
-0.0131603
0.000519265
-0.0131527
0.000474202
-0.0131469
0.000429218
-0.0131423
0.000389114
-0.0131389
0.000349892
-0.0131363
0.000314234
-0.0131345
0.000279737
-0.0131332
0.000247864
-0.0131323
0.000217144
-0.0131317
0.000188342
-0.0131314
0.000160535
-0.0131312
0.00013409
-0.0131311
0.000108405
-0.0131311
8.36189e-05
-0.0131311
5.93138e-05
-0.0131311
3.54952e-05
1.17972e-05
-0.0137117
0.00130848
0.0138052
-0.0136319
0.00120312
-0.0135572
0.00117197
-0.0134938
0.00107971
-0.0134363
0.00103379
-0.0133879
0.000952107
-0.0133449
0.000899737
-0.0133091
0.000827419
-0.0132779
0.000774042
-0.0132521
0.000710278
-0.0132299
0.000659087
-0.0132117
0.000603096
-0.0131963
0.000555706
-0.0131837
0.000506647
-0.0131731
0.000463651
-0.0131645
0.000420641
-0.0131575
0.000382018
-0.0131517
0.000344165
-0.013147
0.000309548
-0.0131433
0.00027599
-0.0131403
0.000244835
-0.0131379
0.000214751
-0.013136
0.00018644
-0.0131345
0.00015906
-0.0131334
0.000132948
-0.0131325
0.000107552
-0.0131319
8.29965e-05
-0.0131315
5.88952e-05
-0.0131312
3.52494e-05
1.17175e-05
-0.0137499
0.00121912
0.0138393
-0.0136726
0.00112579
-0.0135996
0.00109892
-0.0135366
0.00101676
-0.0134787
0.000975919
-0.0134291
0.000902513
-0.0133845
0.000855126
-0.0133465
0.000789394
-0.0133129
0.000740415
-0.0132843
0.00068175
-0.0132594
0.000634186
-0.0132384
0.000582054
-0.0132202
0.000537527
-0.0132049
0.000491337
-0.0131918
0.000450533
-0.0131808
0.000409628
-0.0131714
0.000372649
-0.0131636
0.00033633
-0.013157
0.00030293
-0.0131515
0.000270485
-0.0131468
0.000240229
-0.0131431
0.000210955
-0.0131399
0.000183309
-0.0131374
0.000156527
-0.0131354
0.000130917
-0.0131338
0.000105975
-0.0131326
8.18127e-05
-0.0131318
5.80765e-05
-0.0131313
3.4764e-05
1.1558e-05
-0.0137807
0.00113364
0.0138662
-0.0137059
0.00105096
-0.0136347
0.00102767
-0.0135724
0.000954517
-0.0135147
0.000918148
-0.0134644
0.000852234
-0.0134186
0.000809384
-0.013379
0.000749744
-0.0133435
0.000704896
-0.0133128
0.000651071
-0.0132856
0.000607026
-0.0132622
0.000558663
-0.0132417
0.000517004
-0.0132241
0.000473708
-0.0132087
0.000435176
-0.0131956
0.00039647
-0.0131842
0.00036126
-0.0131745
0.000326604
-0.0131661
0.000294569
-0.013159
0.000263384
-0.0131529
0.000234181
-0.0131479
0.000205871
-0.0131436
0.000179045
-0.0131401
0.000153015
-0.0131372
0.00012806
-0.013135
0.000103724
-0.0131333
8.01064e-05
-0.0131321
5.6885e-05
-0.0131314
3.40551e-05
1.13239e-05
-0.0138053
0.00105183
0.0138871
-0.0137329
0.000978565
-0.0136636
0.000958326
-0.0136022
0.0008932
-0.0135449
0.000860784
-0.0134943
0.000801652
-0.0134478
0.000762935
-0.013407
0.00070892
-0.0133701
0.000667941
-0.0133377
0.000618689
-0.0133087
0.000578033
-0.0132834
0.000533327
-0.0132609
0.000494509
-0.0132413
0.000454098
-0.013224
0.000417885
-0.0132089
0.000381438
-0.0131958
0.000348089
-0.0131844
0.000315197
-0.0131744
0.000284645
-0.0131659
0.000254844
-0.0131585
0.000226825
-0.0131523
0.000199613
-0.013147
0.000173746
-0.0131426
0.000148604
-0.0131389
0.000124444
-0.0131361
0.000100851
-0.0131339
7.79174e-05
-0.0131324
5.53486e-05
-0.0131314
3.31395e-05
1.10209e-05
-0.0138246
0.000973432
0.013903
-0.0137546
0.000908537
-0.0136872
0.000890892
-0.0136269
0.000832947
-0.0135702
0.00080404
-0.0135196
0.000751053
-0.0134727
0.000716108
-0.0134311
0.00066728
-0.0133931
0.000629921
-0.0133594
0.000584978
-0.0133289
0.000547571
-0.013302
0.000506389
-0.0132778
0.000470366
-0.0132565
0.000432807
-0.0132376
0.000398933
-0.0132209
0.000364778
-0.0132062
0.000333356
-0.0131933
0.000302305
-0.013182
0.000273332
-0.0131722
0.000245015
-0.0131636
0.000218294
-0.0131563
0.000192293
-0.0131501
0.000167506
-0.0131448
0.000143375
-0.0131405
0.000120133
-0.0131371
9.7409e-05
-0.0131345
7.52853e-05
-0.0131326
5.34954e-05
-0.0131315
3.20337e-05
1.06545e-05
-0.0138396
0.00089821
0.0139148
-0.0137718
0.000840766
-0.0137063
0.000825346
-0.0136472
0.000773838
-0.0135912
0.000748063
-0.0135408
0.00070065
-0.0134938
0.000669156
-0.0134517
0.000625112
-0.0134129
0.000591138
-0.0133782
0.000550245
-0.0133465
0.000515944
-0.0133183
0.000478148
-0.0132928
0.000444856
-0.0132701
0.000410099
-0.0132497
0.000378563
-0.0132316
0.000346714
-0.0132155
0.000317264
-0.0132013
0.000288109
-0.0131888
0.00026079
-0.0131778
0.00023404
-0.0131682
0.00020871
-0.01316
0.00018402
-0.0131529
0.000160417
-0.0131469
0.000137404
-0.013142
0.000115193
-0.013138
9.34495e-05
-0.013135
7.22497e-05
-0.0131328
5.13532e-05
-0.0131316
3.07544e-05
1.02301e-05
-0.013851
0.000825919
0.0139232
-0.0137853
0.00077513
-0.0137216
0.000761631
-0.0136637
0.000715909
-0.0136085
0.000692942
-0.0135585
0.000650596
-0.0135116
0.000622267
-0.0134691
0.000582637
-0.0134298
0.000551832
-0.0133943
0.000514744
-0.0133618
0.000483407
-0.0133325
0.000448854
-0.0133059
0.000418222
-0.013282
0.000386204
-0.0132604
0.000356992
-0.0132411
0.000327446
-0.0132239
0.000299996
-0.0132085
0.000272776
-0.0131949
0.000247169
-0.0131829
0.000222052
-0.0131724
0.000198192
-0.0131633
0.000174896
-0.0131554
0.000152568
-0.0131488
0.000130767
-0.0131433
0.000109684
-0.0131389
8.9022e-05
-0.0131355
6.88487e-05
-0.013133
4.8949e-05
-0.0131316
2.93177e-05
9.75322e-06
-0.0138593
0.000756319
0.0139289
-0.0137957
0.000711493
-0.0137337
0.000699666
-0.013677
0.00065916
-0.0136228
0.000638725
-0.0135732
0.000600997
-0.0135265
0.000575579
-0.0134839
0.00054003
-0.0134442
0.000512193
-0.0134082
0.00047868
-0.0133749
0.00045017
-0.0133448
0.00041872
-0.0133172
0.000390671
-0.0132924
0.000361324
-0.0132698
0.00033441
-0.0132495
0.000307152
-0.0132312
0.000281718
-0.0132149
0.000256456
-0.0132003
0.000232606
-0.0131875
0.000209174
-0.0131761
0.000186848
-0.0131662
0.000165016
-0.0131577
0.000144042
-0.0131505
0.000123535
-0.0131445
0.000103667
-0.0131396
8.41746e-05
-0.0131359
6.51192e-05
-0.0131332
4.6309e-05
-0.0131317
2.77393e-05
9.22901e-06
-0.0138653
0.000689176
0.0139324
-0.0138035
0.000649713
-0.0137432
0.000639353
-0.0136876
0.000603567
-0.0136343
0.000585426
-0.0135852
0.000551919
-0.0135388
0.00052919
-0.0134962
0.000497419
-0.0134564
0.000472369
-0.01342
0.000442218
-0.0133862
0.000416407
-0.0133554
0.000387923
-0.0133271
0.000362379
-0.0133014
0.00033563
-0.013278
0.000310983
-0.0132568
0.000285989
-0.0132377
0.000262575
-0.0132205
0.000239286
-0.0132051
0.000217226
-0.0131915
0.000195519
-0.0131794
0.00017478
-0.0131689
0.000154471
-0.0131597
0.000134918
-0.013152
0.000115774
-0.0131455
9.71971e-05
-0.0131403
7.89527e-05
-0.0131363
6.10963e-05
-0.0131334
4.34582e-05
-0.0131317
2.6034e-05
8.66241e-06
-0.0138693
0.000624263
0.0139342
-0.0138093
0.000589644
-0.0137505
0.000580582
-0.013696
0.000549084
-0.0136436
0.000533034
-0.0135951
0.000503399
-0.0135491
0.000483163
-0.0135065
0.000454902
-0.0134666
0.000432475
-0.0134299
0.000405491
-0.0133958
0.000382256
-0.0133645
0.00035661
-0.0133356
0.000333495
-0.0133092
0.00030927
-0.0132851
0.000286854
-0.0132632
0.000264096
-0.0132433
0.000242699
-0.0132254
0.000221389
-0.0132093
0.000201141
-0.013195
0.00018119
-0.0131823
0.000162081
-0.0131712
0.000143343
-0.0131615
0.000125266
-0.0131533
0.000107548
-0.0131464
9.0327e-05
-0.0131409
7.33989e-05
-0.0131366
5.68131e-05
-0.0131336
4.042e-05
-0.0131317
2.4216e-05
8.05815e-06
-0.0138718
0.00056136
0.0139347
-0.0138133
0.000531137
-0.013756
0.000523234
-0.0137025
0.00049565
-0.013651
0.000481519
-0.0136031
0.00045545
-0.0135574
0.000437536
-0.0135151
0.000412545
-0.0134752
0.000392593
-0.0134383
0.000368601
-0.0134039
0.000347831
-0.0133722
0.000324902
-0.0133428
0.000304141
-0.0133159
0.00028237
-0.0132912
0.000262146
-0.0132687
0.000241592
-0.0132482
0.000222205
-0.0132297
0.000202871
-0.013213