/*--------------------------------*- C++ -*----------------------------------*\
  =========                 |
  \\      /  F ield         | OpenFOAM: The Open Source CFD Toolbox
   \\    /   O peration     | Website:  https://openfoam.org
    \\  /    A nd           | Version:  7
     \\/     M anipulation  |
\*---------------------------------------------------------------------------*/
FoamFile
{
    version     2.0;
    format      ascii;
    class       volScalarField;
    location    "69.999";
    object      p;
}
// * * * * * * * * * * * * * * * * * * * * * * * * * * * * * * * * * * * * * //

dimensions      [0 2 -2 0 0 0 0];

internalField   nonuniform List<scalar> 
3700
(
-0.222431
-0.21404
-0.205859
-0.197974
-0.190378
-0.18311
-0.176203
-0.169664
-0.163494
-0.157685
-0.152232
-0.147126
-0.142361
-0.137926
-0.133814
-0.130014
-0.126518
-0.123316
-0.120399
-0.117758
-0.115386
-0.113273
-0.111414
-0.109801
-0.108429
-0.107293
-0.106389
-0.105714
-0.105266
-0.105042
-0.22161
-0.213654
-0.205911
-0.198417
-0.19117
-0.184215
-0.177586
-0.171295
-0.165341
-0.159722
-0.154436
-0.149477
-0.144838
-0.140513
-0.136495
-0.132776
-0.129348
-0.126204
-0.123335
-0.120734
-0.118395
-0.11631
-0.114472
-0.112877
-0.111519
-0.110395
-0.109499
-0.10883
-0.108385
-0.108163
-0.220491
-0.212925
-0.205582
-0.198453
-0.191539
-0.184891
-0.178541
-0.172499
-0.166768
-0.161348
-0.156237
-0.151433
-0.14693
-0.142724
-0.138809
-0.13518
-0.13183
-0.128753
-0.125941
-0.123389
-0.12109
-0.11904
-0.117231
-0.115659
-0.114321
-0.113211
-0.112328
-0.111667
-0.111228
-0.111008
-0.219137
-0.211935
-0.204972
-0.198188
-0.191589
-0.185231
-0.179146
-0.173347
-0.167835
-0.162612
-0.157678
-0.153032
-0.148669
-0.144587
-0.140782
-0.137249
-0.133983
-0.130978
-0.12823
-0.125733
-0.123481
-0.12147
-0.119695
-0.118152
-0.116836
-0.115745
-0.114876
-0.114226
-0.113794
-0.113578
-0.217593
-0.210728
-0.204135
-0.197683
-0.191379
-0.185293
-0.179459
-0.17389
-0.168589
-0.163558
-0.158797
-0.154307
-0.150084
-0.146128
-0.142435
-0.139001
-0.135823
-0.132895
-0.130215
-0.127776
-0.125576
-0.123609
-0.121871
-0.120359
-0.11907
-0.118
-0.117147
-0.116509
-0.116085
-0.115873
-0.215891
-0.209316
-0.203094
-0.196961
-0.190935
-0.185103
-0.179507
-0.174157
-0.169057
-0.16421
-0.159618
-0.15528
-0.151197
-0.147366
-0.143785
-0.140452
-0.137363
-0.134516
-0.131906
-0.129529
-0.127383
-0.125463
-0.123766
-0.122288
-0.121027
-0.11998
-0.119146
-0.118521
-0.118106
-0.117898
-0.214052
-0.207709
-0.201872
-0.196036
-0.190263
-0.184673
-0.179302
-0.174161
-0.169254
-0.164584
-0.160155
-0.155967
-0.152019
-0.148312
-0.144844
-0.141613
-0.138615
-0.135849
-0.133312
-0.131
-0.12891
-0.12704
-0.125385
-0.123944
-0.122714
-0.121692
-0.120877
-0.120267
-0.119861
-0.119658
-0.212064
-0.205935
-0.200504
-0.194915
-0.189374
-0.184012
-0.178858
-0.173915
-0.169191
-0.164692
-0.16042
-0.156377
-0.152564
-0.148979
-0.145623
-0.142493
-0.139588
-0.136905
-0.134442
-0.132196
-0.130165
-0.128346
-0.126736
-0.125333
-0.124135
-0.12314
-0.122345
-0.121751
-0.121355
-0.121158
-0.20992
-0.204071
-0.199014
-0.193604
-0.188282
-0.183139
-0.178186
-0.17343
-0.16888
-0.164544
-0.160425
-0.156523
-0.152841
-0.149377
-0.146132
-0.143104
-0.140291
-0.137692
-0.135305
-0.133127
-0.131156
-0.129389
-0.127826
-0.126463
-0.125298
-0.12433
-0.123558
-0.12298
-0.122595
-0.122402
-0.207674
-0.202227
-0.197382
-0.19212
-0.187013
-0.18207
-0.1773
-0.172718
-0.168333
-0.164153
-0.160181
-0.156417
-0.152862
-0.149517
-0.146382
-0.143454
-0.140734
-0.138219
-0.135908
-0.133799
-0.131889
-0.130177
-0.128661
-0.127339
-0.126209
-0.12527
-0.12452
-0.123959
-0.123585
-0.123398
-0.205419
-0.200363
-0.195549
-0.190495
-0.185586
-0.180813
-0.176212
-0.171791
-0.167562
-0.163531
-0.159699
-0.156068
-0.152638
-0.149409
-0.146382
-0.143555
-0.140927
-0.138496
-0.136262
-0.134222
-0.132375
-0.130718
-0.12925
-0.12797
-0.126876
-0.125966
-0.125239
-0.124695
-0.124333
-0.124152
-0.203147
-0.198338
-0.193591
-0.188735
-0.183989
-0.179377
-0.174927
-0.170656
-0.166575
-0.162685
-0.158989
-0.155486
-0.152178
-0.149064
-0.146143
-0.143415
-0.140878
-0.138532
-0.136375
-0.134405
-0.13262
-0.131019
-0.129601
-0.128363
-0.127305
-0.126425
-0.125723
-0.125197
-0.124846
-0.124671
-0.200802
-0.19615
-0.191516
-0.186821
-0.18222
-0.177751
-0.173446
-0.169319
-0.165378
-0.161624
-0.158058
-0.15468
-0.151491
-0.148488
-0.145673
-0.143043
-0.140598
-0.138336
-0.136256
-0.134355
-0.132634
-0.131089
-0.129721
-0.128526
-0.127505
-0.126656
-0.125978
-0.12547
-0.125131
-0.124962
-0.198347
-0.193818
-0.189301
-0.184741
-0.180271
-0.175938
-0.17177
-0.167781
-0.163974
-0.160352
-0.156913
-0.153657
-0.150584
-0.147692
-0.144981
-0.142448
-0.140094
-0.137916
-0.135912
-0.134082
-0.132424
-0.130937
-0.129618
-0.128468
-0.127484
-0.126665
-0.126012
-0.125522
-0.125196
-0.125033
-0.195762
-0.19134
-0.186925
-0.182486
-0.178139
-0.173935
-0.1699
-0.166043
-0.162368
-0.158873
-0.155559
-0.152423
-0.149464
-0.146682
-0.144074
-0.141638
-0.139374
-0.13728
-0.135354
-0.133594
-0.132
-0.13057
-0.129302
-0.128196
-0.127249
-0.126462
-0.125834
-0.125363
-0.125049
-0.124892
-0.193026
-0.188697
-0.184376
-0.180048
-0.17582
-0.171741
-0.167835
-0.164108
-0.160561
-0.157192
-0.154001
-0.150984
-0.148139
-0.145465
-0.14296
-0.140621
-0.138447
-0.136437
-0.134588
-0.1329
-0.13137
-0.129997
-0.12878
-0.127718
-0.12681
-0.126055
-0.125451
-0.124999
-0.124698
-0.124548
-0.190114
-0.185868
-0.181636
-0.177417
-0.173307
-0.169352
-0.165573
-0.161974
-0.158555
-0.155312
-0.152243
-0.149345
-0.146614
-0.144048
-0.141646
-0.139404
-0.137321
-0.135395
-0.133624
-0.132007
-0.130542
-0.129227
-0.128062
-0.127044
-0.126174
-0.125451
-0.124873
-0.12444
-0.124152
-0.124007
-0.186997
-0.182831
-0.17869
-0.174583
-0.170592
-0.166763
-0.163113
-0.159644
-0.156353
-0.153237
-0.150291
-0.147512
-0.144896
-0.142439
-0.14014
-0.137996
-0.136004
-0.134163
-0.13247
-0.130924
-0.129524
-0.128268
-0.127154
-0.126182
-0.125351
-0.12466
-0.124107
-0.123694
-0.123418
-0.12328
-0.183647
-0.179564
-0.175522
-0.171532
-0.167668
-0.16397
-0.160452
-0.157116
-0.153957
-0.15097
-0.148149
-0.145491
-0.142991
-0.140645
-0.13845
-0.136404
-0.134504
-0.132748
-0.131135
-0.129661
-0.128326
-0.127129
-0.126067
-0.125141
-0.124349
-0.12369
-0.123163
-0.122769
-0.122506
-0.122375
-0.180041
-0.176051
-0.172119
-0.168257
-0.164528
-0.160968
-0.157591
-0.154393
-0.15137
-0.148515
-0.145823
-0.143288
-0.140906
-0.138672
-0.136584
-0.134637
-0.13283
-0.131161
-0.129626
-0.128226
-0.126957
-0.125819
-0.12481
-0.123929
-0.123176
-0.12255
-0.12205
-0.121675
-0.121425
-0.1213
-0.176157
-0.172277
-0.168472
-0.164751
-0.161169
-0.157759
-0.154529
-0.151477
-0.148596
-0.145879
-0.143319
-0.140911
-0.138649
-0.13653
-0.134549
-0.132703
-0.13099
-0.129408
-0.127954
-0.126627
-0.125425
-0.124346
-0.123391
-0.122556
-0.121843
-0.121249
-0.120775
-0.12042
-0.120183
-0.120065
-0.171983
-0.168232
-0.164573
-0.161012
-0.157591
-0.154342
-0.151271
-0.148373
-0.145641
-0.143067
-0.140644
-0.138366
-0.136228
-0.134225
-0.132354
-0.130611
-0.128994
-0.1275
-0.126127
-0.124874
-0.123739
-0.122721
-0.121819
-0.121031
-0.120357
-0.119797
-0.119349
-0.119013
-0.11879
-0.118678
-0.167511
-0.163913
-0.160423
-0.157039
-0.153797
-0.150723
-0.147822
-0.145087
-0.142511
-0.140087
-0.137806
-0.135663
-0.133652
-0.131769
-0.130009
-0.128371
-0.12685
-0.125446
-0.124156
-0.122977
-0.12191
-0.120953
-0.120104
-0.119363
-0.118729
-0.118202
-0.11778
-0.117465
-0.117254
-0.117149
-0.162742
-0.159323
-0.156026
-0.15284
-0.149793
-0.146909
-0.144189
-0.141628
-0.139217
-0.136948
-0.134815
-0.132811
-0.13093
-0.129169
-0.127524
-0.125992
-0.124569
-0.123256
-0.122048
-0.120945
-0.119946
-0.11905
-0.118255
-0.117561
-0.116967
-0.116473
-0.116079
-0.115783
-0.115586
-0.115487
-0.157685
-0.154473
-0.151393
-0.148425
-0.145592
-0.142911
-0.140385
-0.138007
-0.135769
-0.133663
-0.131682
-0.12982
-0.128074
-0.126437
-0.124908
-0.123484
-0.122161
-0.120939
-0.119815
-0.118789
-0.117858
-0.117023
-0.116282
-0.115635
-0.115082
-0.114621
-0.114253
-0.113977
-0.113793
-0.113701
-0.152358
-0.14938
-0.14654
-0.143811
-0.141207
-0.138744
-0.136423
-0.134237
-0.132179
-0.130242
-0.128418
-0.126704
-0.125094
-0.123585
-0.122174
-0.120858
-0.119636
-0.118506
-0.117467
-0.116516
-0.115655
-0.114881
-0.114195
-0.113595
-0.113081
-0.112654
-0.112312
-0.112056
-0.111885
-0.1118
-0.146787
-0.144068
-0.141489
-0.139017
-0.136658
-0.134426
-0.13232
-0.130335
-0.128464
-0.1267
-0.125038
-0.123474
-0.122003
-0.120624
-0.119332
-0.118127
-0.117006
-0.115968
-0.115013
-0.11414
-0.113347
-0.112635
-0.112002
-0.111449
-0.110976
-0.110581
-0.110266
-0.11003
-0.109872
-0.109793
-0.141002
-0.138566
-0.136268
-0.134068
-0.131967
-0.129976
-0.128095
-0.126317
-0.124638
-0.123053
-0.121556
-0.120145
-0.118815
-0.117566
-0.116395
-0.1153
-0.114281
-0.113336
-0.112465
-0.111668
-0.110944
-0.110293
-0.109714
-0.109208
-0.108774
-0.108413
-0.108124
-0.107907
-0.107763
-0.10769
-0.135045
-0.13291
-0.130909
-0.128993
-0.12716
-0.125419
-0.123768
-0.122204
-0.120721
-0.119317
-0.117987
-0.11673
-0.115543
-0.114425
-0.113374
-0.11239
-0.111473
-0.11062
-0.109834
-0.109113
-0.108457
-0.107866
-0.107341
-0.106881
-0.106486
-0.106157
-0.105894
-0.105697
-0.105565
-0.105499
-0.128958
-0.12714
-0.125446
-0.123824
-0.122266
-0.12078
-0.119364
-0.118016
-0.116732
-0.11551
-0.114349
-0.113246
-0.112202
-0.111214
-0.110284
-0.10941
-0.108593
-0.107833
-0.107129
-0.106483
-0.105894
-0.105364
-0.104891
-0.104477
-0.104121
-0.103824
-0.103587
-0.103408
-0.103289
-0.10323
-0.12279
-0.121298
-0.119918
-0.118594
-0.117315
-0.116086
-0.114906
-0.113775
-0.11269
-0.111651
-0.110657
-0.109708
-0.108805
-0.107948
-0.107136
-0.106371
-0.105654
-0.104984
-0.104362
-0.10379
-0.103268
-0.102796
-0.102375
-0.102005
-0.101687
-0.101422
-0.101209
-0.10105
-0.100943
-0.10089
-0.116589
-0.115427
-0.114363
-0.113338
-0.112337
-0.111364
-0.11042
-0.109503
-0.108616
-0.107757
-0.106929
-0.106133
-0.105369
-0.104639
-0.103944
-0.103286
-0.102666
-0.102085
-0.101544
-0.101044
-0.100586
-0.100171
-0.0998008
-0.099475
-0.0991944
-0.0989598
-0.0987716
-0.09863
-0.0985355
-0.0984883
-0.110407
-0.109573
-0.108821
-0.10809
-0.107364
-0.106643
-0.10593
-0.105224
-0.10453
-0.103849
-0.103183
-0.102535
-0.101907
-0.101301
-0.100721
-0.100167
-0.0996415
-0.0991465
-0.0986834
-0.0982538
-0.097859
-0.0975002
-0.0971787
-0.0968952
-0.0966507
-0.0964458
-0.0962812
-0.0961574
-0.0960746
-0.0960332
-0.104291
-0.103779
-0.103331
-0.102887
-0.102426
-0.10195
-0.101461
-0.10096
-0.100453
-0.0999432
-0.0994341
-0.0989298
-0.0984336
-0.0979488
-0.0974783
-0.097025
-0.0965913
-0.0961795
-0.0957918
-0.0954301
-0.095096
-0.0947911
-0.0945168
-0.0942742
-0.0940644
-0.0938883
-0.0937466
-0.0936398
-0.0935683
-0.0935325
-0.0982895
-0.0980879
-0.0979313
-0.0977612
-0.0975547
-0.0973125
-0.0970371
-0.0967328
-0.0964048
-0.0960588
-0.0957
-0.0953333
-0.0949631
-0.0945937
-0.0942288
-0.0938719
-0.093526
-0.093194
-0.0928785
-0.0925818
-0.0923059
-0.0920526
-0.0918236
-0.0916202
-0.0914438
-0.0912952
-0.0911753
-0.0910848
-0.0910243
-0.0909939
-0.0924461
-0.0925377
-0.0926559
-0.0927435
-0.0927765
-0.0927547
-0.0926812
-0.0925618
-0.0924032
-0.0922124
-0.0919957
-0.0917593
-0.0915085
-0.0912485
-0.0909837
-0.0907182
-0.0904558
-0.0901996
-0.0899527
-0.0897178
-0.0894972
-0.089293
-0.0891071
-0.088941
-0.0887963
-0.0886739
-0.0885748
-0.0884999
-0.0884497
-0.0884245
-0.0868005
-0.0871643
-0.0875368
-0.0878629
-0.0881175
-0.0882999
-0.0884139
-0.0884664
-0.0884656
-0.0884194
-0.0883355
-0.088221
-0.0880821
-0.0879246
-0.0877538
-0.0875742
-0.0873901
-0.0872053
-0.087023
-0.0868463
-0.0866779
-0.08652
-0.0863748
-0.086244
-0.0861291
-0.0860315
-0.0859522
-0.0858919
-0.0858515
-0.0858311
-0.0813875
-0.0819991
-0.0826022
-0.0831447
-0.0836005
-0.0839687
-0.0842538
-0.0844636
-0.0846074
-0.0846942
-0.0847326
-0.0847305
-0.084695
-0.0846325
-0.0845489
-0.0844491
-0.084338
-0.0842195
-0.0840975
-0.0839752
-0.0838555
-0.0837409
-0.0836337
-0.0835359
-0.0834491
-0.0833747
-0.0833138
-0.0832674
-0.0832361
-0.0832203
-0.0762365
-0.0770684
-0.0778761
-0.0786105
-0.0792452
-0.0797791
-0.0802172
-0.0805683
-0.0808423
-0.0810493
-0.0811985
-0.0812987
-0.0813574
-0.0813817
-0.0813779
-0.0813514
-0.0813073
-0.08125
-0.0811836
-0.0811115
-0.0810368
-0.0809623
-0.0808905
-0.0808233
-0.0807625
-0.0807097
-0.080666
-0.0806323
-0.0806095
-0.080598
-0.071371
-0.0723937
-0.0733781
-0.0742781
-0.0750679
-0.0757459
-0.0763178
-0.0767929
-0.0771819
-0.0774954
-0.0777433
-0.0779348
-0.0780781
-0.0781805
-0.0782487
-0.0782885
-0.0783052
-0.0783036
-0.0782878
-0.0782616
-0.0782282
-0.0781904
-0.078151
-0.0781119
-0.0780751
-0.0780421
-0.0780142
-0.0779924
-0.0779774
-0.0779698
-0.0668084
-0.0679911
-0.0691227
-0.0701612
-0.071081
-0.0718807
-0.0725664
-0.0731476
-0.0736356
-0.0740414
-0.0743753
-0.0746469
-0.0748645
-0.0750359
-0.075168
-0.0752669
-0.0753381
-0.0753864
-0.0754162
-0.0754313
-0.0754351
-0.0754307
-0.0754206
-0.0754071
-0.075392
-0.0753771
-0.0753636
-0.0753526
-0.0753448
-0.0753408
-0.0625602
-0.063871
-0.0651202
-0.0662691
-0.0672936
-0.0681921
-0.0689709
-0.06964
-0.0702107
-0.0706942
-0.0711011
-0.071441
-0.0717227
-0.0719539
-0.0721417
-0.0722923
-0.0724112
-0.0725036
-0.0725737
-0.0726256
-0.0726627
-0.072688
-0.0727042
-0.0727136
-0.0727181
-0.0727195
-0.072719
-0.0727177
-0.0727164
-0.0727156
-0.0586316
-0.0600389
-0.0613756
-0.0626071
-0.0637107
-0.064685
-0.0655365
-0.066275
-0.0669119
-0.0674585
-0.0679253
-0.068322
-0.0686572
-0.0689389
-0.069174
-0.0693689
-0.0695291
-0.0696596
-0.0697649
-0.0698488
-0.0699151
-0.0699665
-0.0700059
-0.0700356
-0.0700575
-0.0700733
-0.0700844
-0.0700918
-0.0700962
-0.0700983
-0.0550222
-0.0564947
-0.0578895
-0.0591762
-0.0603339
-0.0613615
-0.0622652
-0.0630551
-0.0637421
-0.0643373
-0.064851
-0.0652929
-0.0656714
-0.0659943
-0.0662685
-0.0665002
-0.066695
-0.0668578
-0.066993
-0.0671045
-0.0671958
-0.0672699
-0.0673295
-0.0673768
-0.0674139
-0.0674423
-0.0674635
-0.0674785
-0.067488
-0.0674926
-0.051726
-0.0532336
-0.0546581
-0.0559736
-0.0571613
-0.0582202
-0.0591567
-0.0599803
-0.0607016
-0.0613314
-0.0618796
-0.0623553
-0.062767
-0.0631221
-0.0634273
-0.0636887
-0.0639117
-0.064101
-0.064261
-0.0643955
-0.0645079
-0.0646011
-0.0646778
-0.0647402
-0.0647903
-0.0648296
-0.0648595
-0.064881
-0.0648949
-0.0649018
-0.0487317
-0.0502459
-0.0516733
-0.0529927
-0.0541875
-0.0552571
-0.0562077
-0.0570483
-0.057789
-0.0584399
-0.0590105
-0.0595094
-0.0599446
-0.0603232
-0.0606517
-0.0609357
-0.0611806
-0.0613909
-0.0615708
-0.0617239
-0.0618535
-0.0619625
-0.0620534
-0.0621284
-0.0621893
-0.0622378
-0.062275
-0.0623021
-0.0623197
-0.0623284
-0.0460236
-0.0475179
-0.0489233
-0.0502234
-0.0514042
-0.0524653
-0.0534127
-0.0542548
-0.0550009
-0.0556604
-0.056242
-0.0567539
-0.0572034
-0.0575974
-0.0579417
-0.0582419
-0.0585028
-0.0587288
-0.0589238
-0.0590913
-0.0592345
-0.059356
-0.0594583
-0.0595434
-0.0596132
-0.0596691
-0.0597123
-0.0597439
-0.0597646
-0.0597748
-0.0435814
-0.0450318
-0.0463927
-0.0476528
-0.0488004
-0.0498356
-0.050764
-0.0515933
-0.0523319
-0.0529884
-0.0535707
-0.0540862
-0.0545416
-0.0549433
-0.0552966
-0.0556067
-0.055878
-0.0561148
-0.0563205
-0.0564985
-0.0566517
-0.0567827
-0.0568937
-0.0569867
-0.0570633
-0.0571251
-0.0571732
-0.0572084
-0.0572315
-0.0572429
-0.0413815
-0.042767
-0.0440636
-0.0452652
-0.0463627
-0.0473567
-0.0482521
-0.0490559
-0.0497757
-0.0504187
-0.0509922
-0.0515028
-0.0519565
-0.0523588
-0.0527149
-0.0530292
-0.0533059
-0.0535487
-0.0537611
-0.0539459
-0.0541059
-0.0542434
-0.0543607
-0.0544594
-0.0545411
-0.0546073
-0.054659
-0.0546969
-0.0547219
-0.0547343
-0.0393975
-0.0406997
-0.0419152
-0.0430429
-0.0440759
-0.0450154
-0.0458658
-0.0466332
-0.047324
-0.0479445
-0.048501
-0.0489991
-0.0494441
-0.049841
-0.0501941
-0.0505075
-0.0507849
-0.0510297
-0.0512448
-0.0514331
-0.0515969
-0.0517384
-0.0518596
-0.051962
-0.0520472
-0.0521164
-0.0521706
-0.0522105
-0.0522368
-0.0522498
-0.0376006
-0.0388049
-0.0399255
-0.0409666
-0.0419234
-0.0427975
-0.0435929
-0.0443147
-0.0449681
-0.0455584
-0.0460907
-0.0465699
-0.0470003
-0.0473862
-0.0477314
-0.0480394
-0.0483134
-0.0485564
-0.048771
-0.0489597
-0.0491246
-0.0492677
-0.0493907
-0.0494951
-0.0495822
-0.0496531
-0.0497088
-0.0497499
-0.049777
-0.0497905
-0.0359606
-0.0370554
-0.0380708
-0.0390155
-0.0398872
-0.0406875
-0.04142
-0.0420889
-0.0426981
-0.0432519
-0.0437542
-0.044209
-0.0446198
-0.0449902
-0.0453232
-0.0456218
-0.0458889
-0.0461268
-0.046338
-0.0465244
-0.046688
-0.0468306
-0.0469535
-0.0470583
-0.0471459
-0.0472174
-0.0472737
-0.0473153
-0.0473428
-0.0473565
-0.034447
-0.0354244
-0.0363273
-0.0371692
-0.0379493
-0.0386698
-0.0393339
-0.0399443
-0.0405043
-0.0410166
-0.0414844
-0.0419104
-0.0422976
-0.0426486
-0.0429659
-0.043252
-0.0435091
-0.0437392
-0.0439443
-0.0441262
-0.0442865
-0.0444266
-0.0445479
-0.0446515
-0.0447385
-0.0448096
-0.0448657
-0.0449072
-0.0449347
-0.0449484
-0.0330288
-0.033884
-0.0346706
-0.0354059
-0.0360909
-0.0367282
-0.03732
-0.0378686
-0.0383757
-0.0388432
-0.039273
-0.0396671
-0.0400275
-0.0403562
-0.0406551
-0.0409259
-0.0411705
-0.0413905
-0.0415875
-0.0417629
-0.0419181
-0.0420542
-0.0421724
-0.0422737
-0.0423589
-0.0424288
-0.042484
-0.0425249
-0.042552
-0.0425655
-0.031677
-0.0324085
-0.0330779
-0.0337058
-0.0342948
-0.0348474
-0.0353656
-0.0358505
-0.0363028
-0.0367233
-0.037113
-0.0374731
-0.0378046
-0.0381088
-0.0383871
-0.0386407
-0.0388709
-0.039079
-0.0392661
-0.0394334
-0.039582
-0.0397129
-0.0398268
-0.0399248
-0.0400073
-0.0400752
-0.0401289
-0.0401688
-0.0401952
-0.0402083
-0.0303625
-0.0309719
-0.0315261
-0.0320485
-0.0325428
-0.0330116
-0.0334565
-0.0338775
-0.0342745
-0.0346473
-0.034996
-0.0353207
-0.035622
-0.0359004
-0.0361567
-0.0363916
-0.0366061
-0.0368009
-0.0369768
-0.0371349
-0.0372757
-0.0374002
-0.037509
-0.0376027
-0.0376819
-0.0377471
-0.0377988
-0.0378372
-0.0378627
-0.0378754
-0.0290608
-0.0295524
-0.029996
-0.0304171
-0.0308202
-0.0312081
-0.0315816
-0.0319403
-0.0322828
-0.0326083
-0.0329159
-0.033205
-0.0334756
-0.0337276
-0.0339611
-0.0341765
-0.0343742
-0.0345548
-0.0347187
-0.0348665
-0.0349987
-0.035116
-0.0352188
-0.0353076
-0.0353829
-0.035445
-0.0354943
-0.035531
-0.0355553
-0.0355674
-0.0277469
-0.0281275
-0.0284673
-0.0287934
-0.0291107
-0.0294221
-0.029728
-0.0300269
-0.0303171
-0.0305967
-0.0308641
-0.0311183
-0.0313584
-0.0315838
-0.0317943
-0.0319899
-0.0321704
-0.0323362
-0.0324874
-0.0326244
-0.0327475
-0.032857
-0.0329532
-0.0330367
-0.0331075
-0.0331661
-0.0332126
-0.0332473
-0.0332704
-0.0332819
-0.0264034
-0.0266817
-0.0269265
-0.0271655
-0.027404
-0.0276448
-0.0278878
-0.0281309
-0.0283718
-0.0286078
-0.0288369
-0.0290574
-0.0292678
-0.0294673
-0.0296552
-0.0298309
-0.0299942
-0.030145
-0.0302832
-0.030409
-0.0305225
-0.0306239
-0.0307132
-0.0307909
-0.030857
-0.0309117
-0.0309553
-0.0309879
-0.0310095
-0.0310203
-0.0250105
-0.0251969
-0.0253568
-0.0255181
-0.0256861
-0.0258632
-0.0260491
-0.0262413
-0.0264367
-0.0266323
-0.0268254
-0.027014
-0.0271963
-0.0273709
-0.0275367
-0.0276931
-0.0278394
-0.0279753
-0.0281006
-0.0282151
-0.0283189
-0.0284119
-0.0284941
-0.0285658
-0.0286269
-0.0286777
-0.0287181
-0.0287484
-0.0287685
-0.0287786
-0.0235597
-0.0236656
-0.023752
-0.0238459
-0.0239524
-0.0240738
-0.0242093
-0.024356
-0.0245104
-0.0246692
-0.0248293
-0.0249884
-0.0251443
-0.0252953
-0.0254402
-0.025578
-0.0257079
-0.0258293
-0.0259418
-0.0260452
-0.0261392
-0.0262238
-0.0262988
-0.0263644
-0.0264204
-0.0264671
-0.0265043
-0.0265322
-0.0265507
-0.02656
-0.022036
-0.0220739
-0.0220987
-0.022136
-0.0221906
-0.0222645
-0.0223566
-0.0224637
-0.0225821
-0.0227081
-0.0228386
-0.0229708
-0.0231025
-0.0232317
-0.0233571
-0.0234773
-0.0235915
-0.023699
-0.0237991
-0.0238916
-0.0239761
-0.0240523
-0.0241202
-0.0241796
-0.0242306
-0.0242731
-0.024307
-0.0243325
-0.0243494
-0.024358
-0.0204412
-0.0204238
-0.0203993
-0.0203913
-0.0204041
-0.0204391
-0.0204952
-0.0205688
-0.0206563
-0.0207539
-0.0208582
-0.0209665
-0.0210762
-0.0211855
-0.0212928
-0.0213966
-0.0214961
-0.0215903
-0.0216786
-0.0217605
-0.0218357
-0.0219038
-0.0219646
-0.022018
-0.0220639
-0.0221022
-0.0221328
-0.0221558
-0.0221712
-0.0221788
-0.0187633
-0.0187034
-0.0186414
-0.0185989
-0.0185794
-0.0185841
-0.0186113
-0.0186577
-0.0187196
-0.018793
-0.0188749
-0.0189622
-0.0190526
-0.019144
-0.0192348
-0.0193236
-0.0194093
-0.0194911
-0.0195682
-0.0196401
-0.0197063
-0.0197666
-0.0198205
-0.019868
-0.0199089
-0.0199431
-0.0199705
-0.0199912
-0.0200049
-0.0200119
-0.0170156
-0.0169261
-0.016839
-0.0167731
-0.016731
-0.0167135
-0.016719
-0.0167442
-0.0167853
-0.0168389
-0.0169017
-0.016971
-0.0170443
-0.0171198
-0.0171957
-0.0172707
-0.0173438
-0.017414
-0.0174806
-0.0175429
-0.0176006
-0.0176532
-0.0177005
-0.0177422
-0.0177782
-0.0178084
-0.0178326
-0.0178508
-0.017863
-0.0178689
-0.0151855
-0.0150776
-0.0149758
-0.0148959
-0.0148398
-0.0148077
-0.0147981
-0.0148077
-0.014833
-0.0148708
-0.0149181
-0.0149722
-0.015031
-0.0150926
-0.0151553
-0.015218
-0.0152796
-0.0153391
-0.0153958
-0.0154493
-0.0154989
-0.0155443
-0.0155852
-0.0156214
-0.0156527
-0.0156789
-0.0157001
-0.015716
-0.0157266
-0.0157321
-0.0133001
-0.0131866
-0.0130816
-0.0129979
-0.0129361
-0.0128966
-0.0128778
-0.0128767
-0.0128904
-0.0129158
-0.0129504
-0.0129918
-0.0130381
-0.0130874
-0.0131384
-0.0131898
-0.0132407
-0.0132903
-0.0133379
-0.0133828
-0.0134247
-0.0134631
-0.0134979
-0.0135287
-0.0135554
-0.0135778
-0.0135958
-0.0136094
-0.0136185
-0.0136228
-0.0113405
-0.0112295
-0.0111288
-0.0110479
-0.0109869
-0.0109458
-0.0109229
-0.0109158
-0.0109218
-0.0109384
-0.0109634
-0.0109946
-0.0110304
-0.0110694
-0.0111101
-0.0111516
-0.011193
-0.0112336
-0.0112726
-0.0113097
-0.0113444
-0.0113763
-0.0114052
-0.0114309
-0.0114531
-0.0114719
-0.011487
-0.0114984
-0.0115061
-0.0115103
-0.00935284
-0.00925715
-0.00917136
-0.00910187
-0.00904824
-0.00901049
-0.00898755
-0.00897756
-0.00897851
-0.00898844
-0.00900552
-0.00902813
-0.00905483
-0.0090844
-0.00911578
-0.00914807
-0.00918051
-0.00921247
-0.00924341
-0.0092729
-0.00930056
-0.00932611
-0.0093493
-0.00936993
-0.00938786
-0.00940295
-0.00941512
-0.00942431
-0.0094304
-0.00943305
-0.00730175
-0.00722419
-0.00715565
-0.00710036
-0.00705727
-0.00702632
-0.0070067
-0.00699707
-0.00699593
-0.00700184
-0.00701342
-0.00702946
-0.00704884
-0.00707062
-0.00709396
-0.00711817
-0.00714263
-0.00716683
-0.00719035
-0.00721284
-0.00723399
-0.00725356
-0.00727135
-0.00728721
-0.007301
-0.00731263
-0.00732202
-0.00732913
-0.00733401
-0.00733709
-0.00526463
-0.00521779
-0.00517625
-0.00514146
-0.00511271
-0.00509073
-0.0050757
-0.00506715
-0.0050644
-0.00506664
-0.00507302
-0.00508273
-0.005095
-0.00510916
-0.00512461
-0.00514083
-0.00515738
-0.00517387
-0.00518999
-0.00520546
-0.00522007
-0.00523363
-0.00524599
-0.00525703
-0.00526664
-0.00527475
-0.00528128
-0.00528619
-0.00528933
-0.00529014
-0.00316716
-0.00314398
-0.00312359
-0.00310611
-0.00309069
-0.00307836
-0.00306957
-0.00306425
-0.00306217
-0.00306296
-0.00306621
-0.00307146
-0.00307829
-0.0030863
-0.00309514
-0.00310449
-0.00311409
-0.00312369
-0.00313312
-0.00314219
-0.00315078
-0.00315876
-0.00316605
-0.00317257
-0.00317825
-0.00318304
-0.0031869
-0.00318979
-0.00319192
-0.00319401
-0.00113311
-0.00114333
-0.00115167
-0.00115418
-0.00115216
-0.00114823
-0.00114383
-0.0011398
-0.00113662
-0.00113447
-0.00113333
-0.0011331
-0.00113364
-0.0011348
-0.00113642
-0.00113839
-0.00114058
-0.00114291
-0.00114529
-0.00114765
-0.00114995
-0.00115212
-0.00115413
-0.00115595
-0.00115756
-0.00115892
-0.00116002
-0.00116076
-0.00116076
-0.00115925
-0.226952
-0.225796
-0.224371
-0.222728
-0.220904
-0.218921
-0.216785
-0.214536
-0.212227
-0.209993
-0.207733
-0.205415
-0.203014
-0.200507
-0.197879
-0.195105
-0.192158
-0.189006
-0.185618
-0.181968
-0.178031
-0.173793
-0.169243
-0.164381
-0.159215
-0.153763
-0.148049
-0.142108
-0.135981
-0.129714
-0.123358
-0.116965
-0.110589
-0.104282
-0.0980954
-0.0920758
-0.0862655
-0.0807019
-0.0754165
-0.0704345
-0.0657745
-0.0614487
-0.0574627
-0.053816
-0.050502
-0.0475086
-0.0448188
-0.042411
-0.0402599
-0.038337
-0.0366117
-0.0350514
-0.0336237
-0.0322951
-0.0310348
-0.0298113
-0.0285988
-0.0273699
-0.0261066
-0.0247867
-0.0234022
-0.0219357
-0.0203905
-0.0187518
-0.0170357
-0.0152265
-0.0133548
-0.0113988
-0.0094075
-0.00734525
-0.00528983
-0.00317269
-0.00111915
-0.231363
-0.230169
-0.228682
-0.226957
-0.225041
-0.22297
-0.220776
-0.218463
-0.215954
-0.213701
-0.211399
-0.209036
-0.206626
-0.20415
-0.201583
-0.1989
-0.196075
-0.193076
-0.189867
-0.186417
-0.182695
-0.178678
-0.174349
-0.169699
-0.164727
-0.159442
-0.153863
-0.148018
-0.141943
-0.135681
-0.129281
-0.122797
-0.116282
-0.109792
-0.103381
-0.0971028
-0.0910039
-0.085128
-0.079513
-0.0741903
-0.069185
-0.0645153
-0.0601927
-0.0562219
-0.0526015
-0.0493239
-0.0463758
-0.0437389
-0.0413903
-0.0393036
-0.0374489
-0.0357946
-0.0343069
-0.0329523
-0.0316963
-0.0305071
-0.0293523
-0.0282054
-0.0270381
-0.0258322
-0.0245647
-0.0232276
-0.0218027
-0.0202939
-0.0186858
-0.0169947
-0.0152053
-0.0133468
-0.0114007
-0.00941018
-0.00734994
-0.00528206
-0.00316374
-0.00109181
-0.233947
-0.232439
-0.230681
-0.228722
-0.226593
-0.224326
-0.221932
-0.219401
-0.217092
-0.214781
-0.212398
-0.209968
-0.207504
-0.204983
-0.202377
-0.199659
-0.196799
-0.19376
-0.190506
-0.187004
-0.183221
-0.179134
-0.174725
-0.169984
-0.164912
-0.159519
-0.153825
-0.147859
-0.141661
-0.135276
-0.128754
-0.122151
-0.115524
-0.108931
-0.102427
-0.0960662
-0.0898974
-0.0839645
-0.0783057
-0.0729525
-0.0679296
-0.0632547
-0.0589386
-0.0549854
-0.0513926
-0.0481515
-0.0452478
-0.0426621
-0.0403705
-0.0383453
-0.0365557
-0.0349688
-0.03355
-0.0322647
-0.0310776
-0.029956
-0.0288667
-0.0277826
-0.0266748
-0.0255245
-0.0243085
-0.0230183
-0.0216358
-0.0201643
-0.018589
-0.016925
-0.0151591
-0.0133167
-0.0113856
-0.00939813
-0.00734644
-0.00526528
-0.00315493
-0.00105652
-0.236238
-0.234468
-0.232484
-0.230325
-0.228019
-0.225584
-0.223047
-0.220537
-0.218134
-0.215712
-0.213244
-0.210752
-0.208239
-0.205679
-0.20304
-0.200292
-0.197401
-0.194331
-0.191041
-0.187497
-0.183666
-0.179522
-0.175047
-0.170232
-0.165077
-0.159593
-0.153803
-0.147735
-0.141431
-0.134938
-0.12831
-0.121603
-0.114876
-0.108189
-0.1016
-0.0951629
-0.0889279
-0.0829398
-0.0772371
-0.0718513
-0.066807
-0.0621217
-0.0578056
-0.0538622
-0.0502881
-0.047074
-0.0442047
-0.0416598
-0.0394144
-0.03744
-0.0357047
-0.0341752
-0.0328156
-0.0315908
-0.0304645
-0.0294035
-0.0283738
-0.0273475
-0.0262955
-0.0251982
-0.0240322
-0.0227884
-0.0214487
-0.0200158
-0.0184752
-0.0168408
-0.0151014
-0.013278
-0.0113655
-0.0093835
-0.00734401
-0.0052493
-0.00315075
-0.0010176
-0.238087
-0.236085
-0.233897
-0.231548
-0.22905
-0.226472
-0.223825
-0.221348
-0.218873
-0.21637
-0.213845
-0.211311
-0.208762
-0.206172
-0.203507
-0.200735
-0.19782
-0.194723
-0.191404
-0.187824
-0.183952
-0.17976
-0.175231
-0.170354
-0.165131
-0.159572
-0.1537
-0.147548
-0.141156
-0.134573
-0.127855
-0.12106
-0.11425
-0.107484
-0.100822
-0.09432
-0.0880288
-0.0819934
-0.0762528
-0.0708386
-0.0657753
-0.0610801
-0.0567628
-0.0528262
-0.0492666
-0.0460737
-0.0432317
-0.0407195
-0.0385115
-0.0365785
-0.0348881
-0.033406
-0.0320962
-0.0309227
-0.0298488
-0.0288406
-0.0278639
-0.0268899
-0.0258893
-0.0248418
-0.0237238
-0.0225257
-0.0212292
-0.0198362
-0.0183327
-0.016731
-0.0150218
-0.0132217
-0.0113323
-0.00935987
-0.00733734
-0.00523062
-0.00314805
-0.000974356
-0.241466
-0.239489
-0.237301
-0.23495
-0.232459
-0.229843
-0.22709
-0.224532
-0.221967
-0.219389
-0.216812
-0.214238
-0.211667
-0.209085
-0.206467
-0.203778
-0.200983
-0.198046
-0.194925
-0.191578
-0.187969
-0.184062
-0.179832
-0.175259
-0.170333
-0.165056
-0.159439
-0.153504
-0.147286
-0.140825
-0.134173
-0.127386
-0.120523
-0.113647
-0.10682
-0.100101
-0.0935486
-0.087213
-0.0811402
-0.0753693
-0.069932
-0.0648527
-0.0601484
-0.0558285
-0.0518955
-0.0483451
-0.0451666
-0.0423436
-0.0398546
-0.0376736
-0.0357708
-0.0341135
-0.0326673
-0.0313956
-0.0302623
-0.0292303
-0.0282654
-0.0273331
-0.0264043
-0.0254491
-0.024447
-0.0233741
-0.02222
-0.0209666
-0.0196147
-0.0181507
-0.0165851
-0.0149104
-0.0131385
-0.0112778
-0.00932044
-0.00732091
-0.00520567
-0.00314467
-0.000926902
-0.242641
-0.240492
-0.23816
-0.235682
-0.233072
-0.230257
-0.227631
-0.224981
-0.222321
-0.219676
-0.217049
-0.214436
-0.211831
-0.209219
-0.206573
-0.203859
-0.201041
-0.19808
-0.194934
-0.191562
-0.187925
-0.18399
-0.179728
-0.175121
-0.170159
-0.164844
-0.159186
-0.153209
-0.146945
-0.140439
-0.133741
-0.126907
-0.119999
-0.11308
-0.106211
-0.0994552
-0.0928681
-0.0865023
-0.0804038
-0.0746115
-0.0691575
-0.0640659
-0.0593535
-0.0550296
-0.0510963
-0.047549
-0.0443769
-0.0415632
-0.0390862
-0.0369196
-0.0350338
-0.0333959
-0.0319714
-0.030724
-0.0296174
-0.0286146
-0.0276812
-0.0267828
-0.0258898
-0.0249725
-0.0240097
-0.0229776
-0.0218649
-0.0206536
-0.0193433
-0.0179208
-0.0163947
-0.0147589
-0.0130209
-0.0111949
-0.00925952
-0.00728992
-0.00517167
-0.0031392
-0.000875661
-0.243429
-0.241152
-0.238707
-0.236109
-0.233324
-0.230665
-0.227943
-0.225208
-0.222487
-0.21979
-0.217119
-0.214468
-0.211829
-0.209184
-0.206506
-0.203762
-0.200916
-0.197926
-0.194753
-0.191353
-0.18769
-0.183728
-0.179441
-0.174809
-0.169823
-0.164484
-0.158804
-0.152804
-0.146518
-0.13999
-0.13327
-0.126416
-0.119488
-0.112549
-0.105663
-0.0988902
-0.0922881
-0.0859088
-0.0797984
-0.073996
-0.0685333
-0.0634345
-0.0587161
-0.0543874
-0.0504504
-0.0469002
-0.0437261
-0.0409114
-0.0384342
-0.0362686
-0.0343849
-0.0327509
-0.0313323
-0.0300933
-0.0289978
-0.0280093
-0.0270935
-0.0262163
-0.0253479
-0.0244589
-0.0235276
-0.0225304
-0.0214551
-0.0202837
-0.0190147
-0.0176352
-0.0161515
-0.014559
-0.0128609
-0.0110759
-0.00917055
-0.00723867
-0.00512504
-0.00312947
-0.000820535
-0.243904
-0.241538
-0.239017
-0.236355
-0.233585
-0.230827
-0.228057