/*--------------------------------*- C++ -*----------------------------------*\
  =========                 |
  \\      /  F ield         | OpenFOAM: The Open Source CFD Toolbox
   \\    /   O peration     | Website:  https://openfoam.org
    \\  /    A nd           | Version:  7
     \\/     M anipulation  |
\*---------------------------------------------------------------------------*/
FoamFile
{
    version     2.0;
    format      ascii;
    class       surfaceScalarField;
    location    "69.999";
    object      phi;
}
// * * * * * * * * * * * * * * * * * * * * * * * * * * * * * * * * * * * * * //

dimensions      [0 3 -1 0 0 0 0];

internalField   nonuniform List<scalar> 
7273
(
0.000548437
0.0121806
-0.000480636
0.000582225
0.0125744
0.000592887
0.0127072
0.000591222
0.0127202
0.000583207
0.0126857
0.000571401
0.0126338
0.000556899
0.012576
0.000540307
0.0125176
0.000522047
0.0124612
0.00050242
0.0124076
0.000481637
0.0123571
0.000459858
0.0123095
0.000437217
0.0122644
0.000413835
0.0122218
0.000389825
0.0121815
0.000365289
0.0121437
0.000340321
0.0121082
0.000314999
0.0120751
0.000289392
0.0120446
0.000263559
0.0120165
0.000237547
0.0119909
0.000211397
0.0119679
0.00018514
0.0119474
0.000158804
0.0119295
0.000132409
0.0119141
0.000105971
0.0119012
7.95025e-05
0.011891
5.30104e-05
0.0118833
2.6504e-05
0.0118781
0.0118756
0.000467324
0.0121133
-0.000400076
0.000503466
0.0125383
0.000517368
0.0126933
0.000518897
0.0127186
0.000513972
0.0126906
0.000505266
0.0126425
0.00049392
0.0125874
0.000480524
0.012531
0.000465469
0.0124762
0.000449033
0.012424
0.000431413
0.0123747
0.00041276
0.0123281
0.0003932
0.012284
0.000372846
0.0122421
0.000351806
0.0122026
0.000330179
0.0121653
0.000308054
0.0121303
0.00028551
0.0120977
0.000262617
0.0120675
0.000239435
0.0120397
0.000216016
0.0120143
0.000192404
0.0119915
0.000168635
0.0119712
0.000144742
0.0119533
0.000120751
0.0119381
9.66841e-05
0.0119253
7.25597e-05
0.0119151
4.83925e-05
0.0119074
2.41983e-05
0.0119023
0.0118998
0.000390771
0.0120474
-0.000324885
0.000428627
0.0125004
0.000445365
0.0126766
0.000449794
0.0127142
0.00044767
0.0126927
0.000441763
0.0126484
0.000433276
0.0125959
0.000422798
0.0125415
0.000410694
0.0124883
0.000397222
0.0124375
0.000382563
0.0123894
0.000366856
0.0123438
0.000350214
0.0123006
0.000332744
0.0122596
0.000314546
0.0122208
0.000295713
0.0121841
0.000276331
0.0121497
0.000256477
0.0121175
0.000236222
0.0120877
0.000215627
0.0120603
0.000194744
0.0120352
0.000173621
0.0120126
0.000152299
0.0119925
0.000130814
0.0119748
0.000109197
0.0119597
8.74759e-05
0.011947
6.56737e-05
0.0119369
4.38115e-05
0.0119293
2.19111e-05
0.0119242
0.0119217
0.000318581
0.0119836
-0.000254754
0.00035751
0.0124615
0.000376618
0.0126575
0.000383645
0.0127072
0.00038409
0.0126923
0.000380763
0.0126517
0.000374909
0.0126017
0.000367119
0.0125493
0.000357747
0.0124977
0.000347033
0.0124482
0.000335146
0.0124013
0.000322212
0.0123568
0.000308335
0.0123145
0.000293609
0.0122743
0.000278126
0.0122363
0.000261974
0.0122003
0.000245235
0.0121664
0.000227983
0.0121348
0.000210286
0.0121054
0.000192207
0.0120783
0.000173799
0.0120536
0.000155112
0.0120313
0.000136189
0.0120114
0.00011707
0.011994
9.77895e-05
0.011979
7.838e-05
0.0119664
5.88696e-05
0.0119564
3.92842e-05
0.0119489
1.96506e-05
0.0119439
0.0119414
0.000250419
0.0119225
-0.00018928
0.00028993
0.012422
0.000310979
0.0126365
0.000320251
0.0126979
0.000323024
0.0126895
0.000322085
0.0126526
0.000318678
0.0126051
0.000313391
0.0125546
0.000306569
0.0125045
0.000298439
0.0124564
0.000289161
0.0124106
0.000278847
0.0123671
0.000267591
0.0123258
0.000255479
0.0122865
0.000242593
0.0122491
0.000229014
0.0122139
0.000214819
0.0121806
0.00020008
0.0121495
0.000184863
0.0121206
0.000169229
0.012094
0.000153231
0.0120696
0.000136922
0.0120476
0.000120346
0.012028
0.000103546
0.0120108
8.65592e-05
0.0119959
6.94222e-05
0.0119836
5.21667e-05
0.0119737
3.48232e-05
0.0119662
1.7423e-05
0.0119613
0.0119588
0.000186069
0.0118645
-0.000128104
0.000225767
0.0123823
0.000248213
0.012614
0.000259384
0.0126867
0.000264301
0.0126846
0.000265581
0.0126514
0.000264449
0.0126062
0.0002615
0.0125575
0.000257073
0.012509
0.000251382
0.0124621
0.000244572
0.0124174
0.000236745
0.0123749
0.000227985
0.0123345
0.000218368
0.0122961
0.000207969
0.0122595
0.000196863
0.012225
0.00018512
0.0121924
0.000172809
0.0121618
0.000159993
0.0121334
0.000146731
0.0121072
0.000133079
0.0120833
0.000119088
0.0120616
0.000104804
0.0120423
9.02717e-05
0.0120253
7.5532e-05
0.0120107
6.06232e-05
0.0119985
4.5581e-05
0.0119887
3.04394e-05
0.0119814
1.52334e-05
0.0119765
0.011974
0.00012517
0.0118095
-7.0135e-05
0.000164707
0.0123428
0.000187991
0.0125907
0.000200895
0.0126738
0.000207791
0.0126777
0.000211113
0.012648
0.000212095
0.0126053
0.000211342
0.0125583
0.000209179
0.0125111
0.000205801
0.0124654
0.000201338
0.0124218
0.000195882
0.0123804
0.000189506
0.0123409
0.00018228
0.0123033
0.000174269
0.0122676
0.000165541
0.0122337
0.000156163
0.0122017
0.000146198
0.0121718
0.000135707
0.0121439
0.000124748
0.0121182
0.000113375
0.0120947
0.00010164
0.0120733
8.95909e-05
0.0120543
7.7273e-05
0.0120376
6.47294e-05
0.0120232
5.20008e-05
0.0120112
3.91259e-05
0.0120016
2.61417e-05
0.0119943
1.30866e-05
0.0119895
0.0119871
6.78625e-05
0.0117572
-1.562e-05
0.000106312
0.0123043
0.000130016
0.012567
0.000144615
0.0126592
0.00015333
0.012669
0.000158531
0.0126428
0.000161492
0.0126023
0.00016282
0.012557
0.000162812
0.0125111
0.00016164
0.0124666
0.00015942
0.0124241
0.000156233
0.0123835
0.000152145
0.012345
0.000147214
0.0123082
0.0001415
0.0122733
0.000135065
0.0122401
0.000127968
0.0122088
0.000120271
0.0121795
0.000112031
0.0121522
0.000103304
0.0121269
9.41454e-05
0.0121038
8.46047e-05
0.0120829
7.47312e-05
0.0120642
6.45716e-05
0.0120478
5.41705e-05
0.0120336
4.35709e-05
0.0120218
3.28135e-05
0.0120123
2.19385e-05
0.0120052
1.09868e-05
0.0120005
0.0119981
1.46646e-05
0.0117084
3.41219e-05
5.0017e-05
0.012269
7.44529e-05
0.0125426
9.04517e-05
0.0126432
0.000100712
0.0126587
0.000107655
0.0126359
0.000112518
0.0125974
0.000115845
0.0125536
0.000117902
0.0125091
0.000118845
0.0124657
0.000118779
0.0124241
0.000117774
0.0123846
0.000115887
0.0123469
0.000113167
0.012311
0.000109668
0.0122768
0.000105444
0.0122443
0.000100552
0.0122137
9.50477e-05
0.012185
8.89873e-05
0.0121582
8.2425e-05
0.0121335
7.54136e-05
0.0121108
6.80042e-05
0.0120903
6.0246e-05
0.0120719
5.21866e-05
0.0120558
4.38721e-05
0.0120419
3.53471e-05
0.0120303
2.66546e-05
0.012021
1.7837e-05
0.012014
8.9375e-06
0.0120094
0.0120071
-3.9183e-05
0.011665
8.26433e-05
-4.88334e-06
0.0122347
2.11728e-05
0.0125165
3.80127e-05
0.0126264
4.96688e-05
0.0126471
5.83386e-05
0.0126272
6.50587e-05
0.0125907
7.03196e-05
0.0125484
7.43723e-05
0.012505
7.73615e-05
0.0124627
7.93777e-05
0.0124221
8.04813e-05
0.0123834
8.07191e-05
0.0123466
8.01351e-05
0.0123115
7.87753e-05
0.0122781
7.6689e-05
0.0122464
7.3928e-05
0.0122165
7.05454e-05
0.0121884
6.6595e-05
0.0121622
6.21291e-05
0.012138
5.71999e-05
0.0121158
5.18583e-05
0.0120956
4.61537e-05
0.0120777
4.01348e-05
0.0120618
3.38488e-05
0.0120482
2.73417e-05
0.0120368
2.06584e-05
0.0120277
1.38434e-05
0.0120208
6.94206e-06
0.0120163
0.012014
-9.10387e-05
0.0116253
0.000130668
-5.65877e-05
0.0122002
-3.1328e-05
0.0124913
-1.32432e-05
0.0126083
9.91496e-08
0.0126337
1.04839e-05
0.0126168
1.90001e-05
0.0125822
2.61464e-05
0.0125412
3.21499e-05
0.012499
3.71348e-05
0.0124577
4.11781e-05
0.0124181
4.4329e-05
0.0123803
4.6628e-05
0.0123443
4.81129e-05
0.01231
4.88238e-05
0.0122774
4.88059e-05
0.0122465
4.81075e-05
0.0122172
4.67784e-05
0.0121897
4.48699e-05
0.0121641
4.24336e-05
0.0121404
3.95214e-05
0.0121187
3.61837e-05
0.012099
3.24704e-05
0.0120814
2.84308e-05
0.0120659
2.41132e-05
0.0120525
1.9565e-05
0.0120414
1.4833e-05
0.0120324
9.96333e-06
0.0120257
5.00322e-06
0.0120212
0.012019
-0.000141386
0.011589
0.000177748
-0.000108442
0.0121673
-8.27293e-05
0.0124656
-6.33579e-05
0.0125889
-4.84185e-05
0.0126188
-3.62206e-05
0.0126046
-2.58248e-05
0.0125718
-1.67708e-05
0.0125322
-8.83e-06
0.0124911
-1.88154e-06
0.0124507
4.14439e-06
0.012412
9.29451e-06
0.0123751
1.3601e-05
0.01234
1.70957e-05
0.0123066
1.98155e-05
0.0122747
2.18016e-05
0.0122445
2.30999e-05
0.0122159
2.37588e-05
0.0121891
2.38257e-05
0.012164
2.33538e-05
0.0121409
2.23936e-05
0.0121196
2.09955e-05
0.0121004
1.92101e-05
0.0120832
1.70872e-05
0.012068
1.46765e-05
0.012055
1.20265e-05
0.012044
9.18556e-06
0.0120353
6.20159e-06
0.0120287
3.12343e-06
0.0120243
0.0120221
-0.000191076
0.0115558
0.000224255
-0.000159262
0.0121354
-0.000132968
0.0124393
-0.000112326
0.0125683
-9.57265e-05
0.0126022
-8.17253e-05
0.0125906
-6.94577e-05
0.0125595
-5.84916e-05
0.0125212
-4.86155e-05
0.0124812
-3.97181e-05
0.0124418
-3.17353e-05
0.012404
-2.46281e-05
0.012368
-1.83647e-05
0.0123338
-1.29149e-05
0.0123011
-8.24509e-06
0.01227
-4.31674e-06
0.0122405
-1.08684e-06
0.0122127
1.49232e-06
0.0121865
3.47331e-06
0.012162
4.9023e-06
0.0121394
5.82957e-06
0.0121187
6.30676e-06
0.0120999
6.38512e-06
0.0120831
6.11556e-06
0.0120683
5.54862e-06
0.0120555
4.73437e-06
0.0120449
3.72244e-06
0.0120363
2.5625e-06
0.0120299
1.30491e-06
0.0120256
0.0120234
-0.000240243
0.0115255
0.000270579
-0.000209171
0.0121044
-0.000182327
0.0124124
-0.000160311
0.0125463
-0.000141983
0.0125839
-0.000126118
0.0125748
-0.000111941
0.0125454
-9.90448e-05
0.0125083
-8.72309e-05
0.0124694
-7.63966e-05
0.012431
-6.64827e-05
0.0123941
-5.74504e-05
0.012359
-4.92703e-05
0.0123256
-4.19133e-05
0.0122937
-3.53465e-05
0.0122635
-2.95319e-05
0.0122347
-2.44269e-05
0.0122076
-1.99853e-05
0.012182
-1.61603e-05
0.0121582
-1.28996e-05
0.0121362
-1.0152e-05
0.0121159
-7.866e-06
0.0120976
-5.98986e-06
0.0120812
-4.47174e-06
0.0120668
-3.25992e-06
0.0120543
-2.30306e-06
0.0120439
-1.55007e-06
0.0120355
-9.49728e-07
0.0120293
-4.50244e-07
0.0120251
0.012023
-0.000288973
0.0114975
0.000316951
-0.000258447
0.0120738
-0.000230883
0.0123849
-0.000207377
0.0125228
-0.000187226
0.0125637
-0.000169427
0.012557
-0.00015329
0.0125292
-0.000138436
0.0124935
-0.000124677
0.0124556
-0.000111913
0.0124182
-0.000100088
0.0123823
-8.91624e-05
0.0123481
-7.91059e-05
0.0123155
-6.98889e-05
0.0122845
-6.14784e-05
0.0122551
-5.3836e-05
0.0122271
-4.6919e-05
0.0122006
-4.06811e-05
0.0121758
-3.50725e-05
0.0121526
-3.0043e-05
0.0121311
-2.55402e-05
0.0121114
-2.15113e-05
0.0120936
-1.79035e-05
0.0120776
-1.46638e-05
0.0120635
-1.17393e-05
0.0120514
-9.07733e-06
0.0120412
-6.62531e-06
0.0120331
-4.33058e-06
0.012027
-2.13986e-06
0.0120229
0.0120208
-0.000337364
0.0114714
0.000363488
-0.000307136
0.0120436
-0.000278652
0.0123564
-0.000253528
0.0124976
-0.000231452
0.0125416
-0.000211642
0.0125372
-0.000193491
0.0125111
-0.000176648
0.0124766
-0.000160933
0.0124399
-0.000146247
0.0124036
-0.000132531
0.0123686
-0.000119743
0.0123353
-0.000107851
0.0123036
-9.68213e-05
0.0122735
-8.66203e-05
0.0122449
-7.7208e-05
0.0122177
-6.85399e-05
0.012192
-6.05685e-05
0.0121678
-5.32429e-05
0.0121453
-4.65113e-05
0.0121244
-4.03204e-05
0.0121053
-3.46164e-05
0.0120879
-2.9345e-05
0.0120723
-2.44518e-05
0.0120586
-1.98825e-05
0.0120468
-1.5583e-05
0.0120369
-1.14993e-05
0.012029
-7.57737e-06
0.012023
-3.76241e-06
0.0120191
0.0120171
-0.000385443
0.0114466
0.000410216
-0.000355194
0.0120134
-0.000325585
0.0123268
-0.000298707
0.0124708
-0.000274609
0.0125175
-0.000252714
0.0125153
-0.000232498
0.0124909
-0.000213639
0.0124578
-0.00019596
0.0124222
-0.000179361
0.012387
-0.000163776
0.012353
-0.00014916
0.0123207
-0.000135474
0.0122899
-0.000122682
0.0122607
-0.000110746
0.0122329
-9.96235e-05
0.0122065
-8.92671e-05
0.0121816
-7.96273e-05
0.0121582
-7.06519e-05
0.0121363
-6.22867e-05
0.012116
-5.44769e-05
0.0120974
-4.71672e-05
0.0120806
-4.03016e-05
0.0120655
-3.38245e-05
0.0120521
-2.76799e-05
0.0120407
-2.18123e-05
0.0120311
-1.61663e-05
0.0120234
-1.06862e-05
0.0120176
-5.31604e-06
0.0120137
0.0120118
-0.000433117
0.0114227
0.000457055
-0.000402507
0.0119828
-0.000371567
0.0122958
-0.000342803
0.012442
-0.000316593
0.0124913
-0.00029255
0.0124912
-0.000270231
0.0124685
-0.000249338
0.0124369
-0.000229697
0.0124026
-0.0002112
0.0123685
-0.000193775
0.0123356
-0.000177369
0.0123043
-0.000161937
0.0122745
-0.000147437
0.0122462
-0.000133825
0.0122193
-0.000121054
0.0121938
-0.000109075
0.0121696
-9.7835e-05
0.0121469
-8.7279e-05
0.0121258
-7.73506e-05
0.0121061
-6.79931e-05
0.0120881
-5.91491e-05
0.0120717
-5.0761e-05
0.0120571
-4.27713e-05
0.0120442
-3.51228e-05
0.012033
-2.77583e-05
0.0120237
-2.0621e-05
0.0120162
-1.36537e-05
0.0120106
-6.79901e-06
0.0120068
0.012005
-0.000480183
0.011399
0.000503809
-0.000448881
0.0119515
-0.000416415
0.0122634
-0.000385648
0.0124112
-0.000357255
0.0124629
-0.00033102
0.012465
-0.000306576
0.0124441
-0.000283647
0.0124139
-0.000262057
0.012381
-0.00024169
0.0123481
-0.000222464
0.0123164
-0.000204316
0.0122861
-0.000187192
0.0122574
-0.000171042
0.0122301
-0.000155818
0.0122041
-0.000141467
0.0121794
-0.000127935
0.0121561
-0.000115166
0.0121342
-0.000103102
0.0121137
-9.1684e-05
0.0120947
-8.08522e-05
0.0120773
-7.05476e-05
0.0120614
-6.07105e-05
0.0120472
-5.12819e-05
0.0120347
-4.22027e-05
0.0120239
-3.34143e-05
0.0120149
-2.48583e-05
0.0120077
-1.64763e-05
0.0120022
-8.20964e-06
0.0119986
0.0119968
-0.00052634
0.0113752
0.000550161
-0.000494038
0.0119192
-0.00045988
0.0122292
-0.000427023
0.0123784
-0.000396401
0.0124323
-0.000367957
0.0124365
-0.000341392
0.0124175
-0.000316446
0.012389
-0.000292938
0.0123575
-0.000270743
0.0123259
-0.000249767
0.0122954
-0.000229935
0.0122663
-0.000211182
0.0122386
-0.000193451
0.0122123
-0.000176686
0.0121873
-0.000160827
0.0121636
-0.000145817
0.0121411
-0.000131595
0.01212
-0.000118099
0.0121002
-0.000105267
0.0120819
-9.30373e-05
0.012065
-8.13482e-05
0.0120497
-7.01381e-05
0.012036
-5.93459e-05
0.0120239
-4.89112e-05
0.0120135
-3.87736e-05
0.0120048
-2.88735e-05
0.0119978
-1.9151e-05
0.0119925
-9.54635e-06
0.011989
0.0119872
-0.000571206
0.0113507
0.000595686
-0.000537635
0.0118856
-0.000501656
0.0121932
-0.00046666
0.0123434
-0.000433804
0.0123995
-0.000403167
0.0124059
-0.000374512
0.0123889
-0.000347593
0.0123621
-0.000322221
0.0123321
-0.00029826
0.0123019
-0.0002756
0.0122727
-0.000254154
0.0122448
-0.000233847
0.0122183
-0.000214612
0.0121931
-0.000196383
0.0121691
-0.000179097
0.0121463
-0.000162689
0.0121247
-0.000147093
0.0121044
-0.000132245
0.0120853
-0.000118079
0.0120677
-0.000104531
0.0120515
-9.15366e-05
0.0120367
-7.90317e-05
0.0120235
-6.69537e-05
0.0120119
-5.52404e-05
0.0120018
-4.38303e-05
0.0119934
-3.26621e-05
0.0119866
-2.16749e-05
0.0119815
-1.08077e-05
0.0119781
0.0119764
-0.000614329
0.0113252
0.000639872
-0.000579276
0.0118505
-0.000541397
0.0121553
-0.000504262
0.0123062
-0.000469208
0.0123644
-0.000436434
0.0123731
-0.000405756
0.0123582
-0.000376935
0.0123333
-0.000349778
0.012305
-0.000324131
0.0122763
-0.000299871
0.0122485
-0.000276896
0.0122219
-0.000255122
0.0121966
-0.000234469
0.0121724
-0.000214864
0.0121495
-0.000196237
0.0121277
-0.000178517
0.012107
-0.000161633
0.0120875
-0.000145518
0.0120692
-0.000130102
0.0120523
-0.000115318
0.0120367
-0.000101099
0.0120225
-8.73801e-05
0.0120098
-7.4096e-05
0.0119986
-6.11831e-05
0.0119889
-4.85785e-05
0.0119808
-3.62199e-05
0.0119742
-2.40451e-05
0.0119693
-1.19923e-05
0.0119661
0.0119644
-0.000655211
0.0112982
0.000682147
-0.000618531
0.0118139
-0.000578732
0.0121155
-0.000539508
0.012267
-0.000502342
0.0123272
-0.000467531
0.0123383
-0.000434931
0.0123256
-0.000404313
0.0123026
-0.000375474
0.0122761
-0.000348244
0.0122491
-0.000322485
0.0122227
-0.000298084
0.0121975
-0.000274941
0.0121734
-0.000252968
0.0121505
-0.000232083
0.0121286
-0.000212209
0.0121078
-0.000193269
0.012088
-0.000175189
0.0120694
-0.000157896
0.0120519
-0.000141317
0.0120357
-0.000125383
0.0120208
-0.000110024
0.0120072
-9.51733e-05
0.0119949
-8.07647e-05
0.0119842
-6.67327e-05
0.0119749
-5.30134e-05
0.011967
-3.95433e-05
0.0119608
-2.62594e-05
0.011956
-1.3099e-05
0.0119529
0.0119513
-0.000693334
0.0112697
0.000721904
-0.000654952
0.0117755
-0.000613279
0.0120739
-0.000572076
0.0122258
-0.000532933
0.0122881
-0.000496225
0.0123016
-0.000461844
0.0122912
-0.000429566
0.0122704
-0.000399174
0.0122457
-0.000370487
0.0122204
-0.000343351
0.0121956
-0.000317639
0.0121718
-0.00029324
0.012149
-0.000270056
0.0121273
-0.000247997
0.0121065
-0.000226978
0.0120868
-0.000206917
0.012068
-0.000187736
0.0120502
-0.000169358
0.0120336
-0.000151707
0.0120181
-0.000134711
0.0120038
-0.0001183
0.0119907
-0.000102403
0.011979
-8.6953e-05
0.0119687
-7.18841e-05
0.0119598
-5.71311e-05
0.0119523
-4.26296e-05
0.0119463
-2.8316e-05
0.0119417
-1.4127e-05
0.0119387
0.0119372
-0.000728174
0.0112393
0.000758523
-0.000688099
0.0117354
-0.000644663
0.0120304
-0.000601648
0.0121828
-0.000560714
0.0122472
-0.000522295
0.0122632
-0.00048631
0.0122552
-0.000452537
0.0122366
-0.000420751
0.0122139
-0.000390755
0.0121904
-0.000362382
0.0121672
-0.000335491
0.0121449
-0.000309961
0.0121235
-0.000285685
0.012103
-0.000262565
0.0120834
-0.000240511
0.0120647
-0.000219435
0.0120469
-0.000199254
0.01203
-0.000179888
0.0120142
-0.00016126
0.0119994
-0.000143294
0.0119858
-0.000125918
0.0119734
-0.000109062
0.0119622
-9.26557e-05
0.0119523
-7.66333e-05
0.0119438
-6.09285e-05
0.0119366
-4.54767e-05
0.0119308
-3.02135e-05
0.0119265
-1.50756e-05
0.0119236
0.0119221
-0.000759233
0.0112072
0.000791405
-0.000717553
0.0116937
-0.000672533
0.0119854
-0.000627928
0.0121382
-0.000585436
0.0122047
-0.000545533
0.0122233
-0.000508158
0.0122179
-0.000473088
0.0122015
-0.000440089
0.0121809
-0.000408952
0.0121592
-0.000379498
0.0121377
-0.000351575
0.0121169
-0.000325052
0.012097
-0.000299814
0.0120778
-0.000275756
0.0120594
-0.000252782
0.0120417
-0.000230801
0.0120249
-0.000209725
0.012009
-0.000189473
0.0119939
-0.000169965
0.0119799
-0.000151123
0.011967
-0.000132874
0.0119551
-0.000115146
0.0119445
-9.78698e-05
0.011935
-8.0978e-05
0.0119269
-6.44042e-05
0.01192
-4.80834e-05
0.0119145
-3.19514e-05
0.0119103
-1.59445e-05
0.0119076
0.0119062
-0.000786056
0.0111732
0.000819994
-0.000742938
0.0116506
-0.000696576
0.011939
-0.000650655
0.0120923
-0.000606884
0.0121609
-0.000565761
0.0121822
-0.000527239
0.0121793
-0.000491095
0.0121654
-0.000457089
0.0121469
-0.000424999
0.0121271
-0.000394637
0.0121074
-0.000365841
0.0120881
-0.000338473
0.0120696
-0.000312411
0.0120517
-0.000287544
0.0120345
-0.000263772
0.012018
-0.000241001
0.0120021
-0.00021914
0.0119871
-0.000198106
0.0119729
-0.000177816
0.0119596
-0.000158194
0.0119473
-0.000139164
0.0119361
-0.000120654
0.011926
-0.000102595
0.011917
-8.4918e-05
0.0119092
-6.75581e-05
0.0119027
-5.045e-05
0.0118974
-3.35296e-05
0.0118934
-1.67338e-05
0.0118908
0.0118894
-0.000808251
0.0111377
0.000843804
-0.000763938
0.0116063
-0.000716531
0.0118916
-0.000669616
0.0120454
-0.000624881
0.0121162
-0.000582834
0.0121401
-0.000543436
0.0121399
-0.000506466
0.0121284
-0.000471674
0.0121121
-0.000438834
0.0120943
-0.00040775
0.0120763
-0.000378252
0.0120587
-0.000350195
0.0120415
-0.000323454
0.012025
-0.000297914
0.012009
-0.00027347
0.0119935
-0.000250027
0.0119787
-0.000227494
0.0119646
-0.000205783
0.0119512
-0.000184814
0.0119387
-0.000164508
0.011927
-0.00014479
0.0119164
-0.000125587
0.0119068
-0.000106832
0.0118982
-8.84551e-05
0.0118908
-7.03919e-05
0.0118846
-5.25777e-05
0.0118796
-3.49493e-05
0.0118758
-1.74439e-05
0.0118733
0.011872
-0.000825514
0.0111007
0.000862445
-0.000780309
0.0115611
-0.000732205
0.0118435
-0.000684652
0.0119978
-0.000639299
0.0120708
-0.000596649
0.0120975
-0.000556668
0.0121
-0.000519134
0.0120909
-0.000483796
0.0120768
-0.000450422
0.0120609
-0.00041881
0.0120447
-0.000388788
0.0120286
-0.000360207
0.012013
-0.000332937
0.0119977
-0.000306862
0.0119829
-0.000281876
0.0119685
-0.000257883
0.0119547
-0.00023479
0.0119415
-0.000212511
0.0119289
-0.000190964
0.0119171
-0.000170071
0.0119061
-0.000149757
0.0118961
-0.000129952
0.0118869
-0.000110586
0.0118788
-9.15937e-05
0.0118718
-7.29092e-05
0.0118659
-5.44694e-05
0.0118611
-3.62122e-05
0.0118575
-1.80759e-05
0.0118551
0.0118539
-0.000837637
0.0110627
0.000875636
-0.000791896
0.0115153
-0.000743477
0.0117951
-0.000695672
0.01195
-0.000650067
0.0120252
-0.000607153
0.0120546
-0.000566894
0.0120597
-0.000529073
0.0120531
-0.000493436
0.0120412
-0.000459751
0.0120272
-0.000427814
0.0120127
-0.00039745
0.0119983
-0.000368511
0.011984
-0.000340866
0.01197
-0.000314397
0.0119564
-0.000289001
0.0119431
-0.000264579
0.0119303
-0.000241041
0.0119179
-0.0002183
0.0119062
-0.000196277
0.0118951
-0.000174893
0.0118848
-0.000154077
0.0118752
-0.000133757
0.0118666
-0.000113867
0.011859
-9.43407e-05
0.0118523
-7.51155e-05
0.0118467
-5.61293e-05
0.0118421
-3.73212e-05
0.0118387
-1.86311e-05
0.0118364
0.0118353
-0.000844519
0.011024
0.000883221
-0.000798636
0.0114695
-0.00075031
0.0117468
-0.000702654
0.0119023
-0.000657174
0.0119797
-0.000614341
0.0120117
-0.000574119
0.0120195
-0.000536292
0.0120152
-0.000500609
0.0120055
-0.000466838
0.0119935
-0.00043478
0.0119807
-0.00040426
0.0119677
-0.000375131
0.0119549
-0.000347264
0.0119422
-0.000320544
0.0119297
-0.000294867
0.0119175
-0.000270138
0.0119056
-0.000246267
0.0118941
-0.000223171
0.0118831
-0.000200771
0.0118727
-0.000178992
0.011863
-0.000157763
0.011854
-0.000137015
0.0118459
-0.000116684
0.0118386
-9.67055e-05
0.0118323
-7.70186e-05
0.011827
-5.75632e-05
0.0118227
-3.82802e-05
0.0118194
-1.91115e-05
0.0118173
0.0118162
-0.000846172
0.010985
0.000885169
-0.000800564
0.0114238
-0.00075275
0.011699
-0.000705647
0.0118552
-0.000660672
0.0119348
-0.000618267
0.0119693
-0.000578394
0.0119796
-0.00054084
0.0119777
-0.000505361
0.01197
-0.000471731
0.0119598
-0.000439753
0.0119487
-0.00040926
0.0119373
-0.000380108
0.0119257
-0.000352171
0.0119142
-0.000325338
0.0119029
-0.000299508
0.0118916
-0.00027459
0.0118806
-0.000250498
0.01187
-0.00022715
0.0118597
-0.000204471
0.01185
-0.000182389
0.0118409
-0.000160835
0.0118325
-0.000139744
0.0118248
-0.000119053
0.0118179
-9.87006e-05
0.011812
-7.86283e-05
0.0118069
-5.87784e-05
0.0118028
-3.90941e-05
0.0117998
-1.95196e-05
0.0117977
0.0117966
-0.000842717
0.0109462
0.000881579
-0.000797811
0.0113789
-0.000750927
0.0116521
-0.000704775
0.0118091
-0.000660675
0.0118907
-0.000619036
0.0119277
-0.000579815
0.0119404
-0.000542808
0.0119407
-0.000507777
0.011935
-0.000474506
0.0119266
-0.000442806
0.011917
-0.000412517
0.011907
-0.000383502
0.0118967
-0.000355642
0.0118864
-0.00032883
0.011876
-0.000302972
0.0118658
-0.00027798
0.0118556
-0.000253772
0.0118458
-0.000230273
0.0118362
-0.000207409
0.0118271
-0.000185113
0.0118186
-0.000163319
0.0118107
-0.000141965
0.0118034
-0.000120992
0.011797
-0.000100341
0.0117913
-7.99565e-05
0.0117865
-5.97838e-05
0.0117827
-3.97688e-05
0.0117797
-1.98582e-05
0.0117778
0.0117768
-0.000834385
0.0109079
0.000872672
-0.000790602
0.0113352
-0.000745052
0.0116065
-0.000700231
0.0117643
-0.000657358
0.0118478
-0.000616806
0.0118871
-0.000578527
0.0119021
-0.000542324
0.0119045
-0.000507973
0.0119006
-0.000475268
0.0118939
-0.000444034
0.0118858
-0.000414118
0.011877
-0.000385394
0.011868
-0.000357749
0.0118587
-0.000331087
0.0118494
-0.000305318
0.01184
-0.000280361
0.0118307
-0.000256139
0.0118215
-0.000232582
0.0118127
-0.000209623
0.0118042
-0.000187196
0.0117962
-0.000165243
0.0117887
-0.000143703
0.0117819
-0.000122522
0.0117758
-0.000101644
0.0117704
-8.10173e-05
0.0117659
-6.05899e-05
0.0117622
-4.03112e-05
0.0117595
-2.01309e-05
0.0117576
0.0117567
-0.000821507
0.0108706
0.000858789
-0.00077925
0.0112929
-0.000735411
0.0115627
-0.000692275
0.0117211
-0.000650955
0.0118065
-0.000611784
0.011848
-0.000574713
0.011865
-0.000539554
0.0118693
-0.000506098
0.0118672
-0.000474153
0.0118619
-0.000443557
0.0118552
-0.000414171
0.0118477
-0.000385879
0.0118397
-0.000358581
0.0118314
-0.000332187
0.011823
-0.000306616
0.0118144
-0.000281795
0.0118059
-0.000257654
0.0117974
-0.000234129
0.0117891
-0.000211157
0.0117812
-0.00018868
0.0117737
-0.000166641
0.0117667
-0.000144988
0.0117602
-0.000123668
0.0117545
-0.00010263
0.0117494
-8.18266e-05
0.0117451
-6.12086e-05
0.0117416
-4.07291e-05
0.011739
-2.03415e-05
0.0117372
0.0117363
-0.000804504
0.0108347
0.00084037
-0.000764144
0.0112525
-0.00072236
0.0115209
-0.000681226
0.01168
-0.000641749
0.011767
-0.000604225
0.0118104
-0.0005686
0.0118294
-0.0005347
0.0118354
-0.000502331
0.0118348
-0.000471319
0.0118309
-0.000441517
0.0118254
-0.000412803
0.0118189
-0.000385073
0.011812
-0.000358238
0.0118046
-0.00033222
0.011797
-0.000306948
0.0117892
-0.000282356
0.0117813
-0.000258382
0.0117734
-0.000234969
0.0117657
-0.000212061
0.0117583
-0.000189606
0.0117512
-0.000167552
0.0117446
-0.000145852
0.0117385
-0.000124457
0.0117331
-0.000103322
0.0117283
-8.2402e-05
0.0117242
-6.1653e-05
0.0117209
-4.10314e-05
0.0117184
-2.04945e-05
0.0117167
0.0117158
-0.000783873
0.0108007
0.000817947
-0.000745742
0.0112144
-0.000706314
0.0114815
-0.000667456
0.0116411
-0.000630071
0.0117296
-0.00059442
0.0117748
-0.000560448
0.0117954
-0.000527992
0.0118029
-0.000496877
0.0118037
-0.000466948
0.011801
-0.000438077
0.0117965
-0.000410159
0.011791
-0.000383103
0.0117849
-0.000356836
0.0117783
-0.00033129
0.0117714
-0.000306405
0.0117643
-0.000282124
0.011757
-0.000258395
0.0117497
-0.000235167
0.0117425
-0.000212392
0.0117355
-0.000190024
0.0117289
-0.000168018
0.0117226
-0.000146331
0.0117169
-0.00012492
0.0117117
-0.000103744
0.0117071
-8.27631e-05
0.0117032
-6.19374e-05
0.0117
-4.12275e-05
0.0116976
-2.05944e-05
0.011696
0.0116952
-0.000760178
0.0107687
0.000792126
-0.000724559
0.0111788
-0.000687735
0.0114447
-0.000651377
0.0116048
-0.000616289
0.0116945
-0.000582696
0.0117412
-0.000550544
0.0117633
-0.000519684
0.0117721
-0.000489961
0.011774
-0.000461241
0.0117723
-0.000433415
0.0117687
-0.000406396
0.011764
-0.000380111
0.0117586
-0.000354499
0.0117527
-0.000329507
0.0117464
-0.000305084
0.0117398
-0.000281186
0.0117331
-0.000257769
0.0117263
-0.00023479
0.0117195
-0.000212208
0.0117129
-0.000189986
0.0117066
-0.000168083
0.0117007
-0.000146463
0.0116952
-0.000125088
0.0116903
-0.000103922
0.0116859
-8.29304e-05
0.0116822
-6.20772e-05
0.0116792
-4.13274e-05
0.0116769
-2.06464e-05
0.0116754
0.0116746
-0.000734031
0.0107392
0.000763571
-0.000701152
0.0111459
-0.000667125
0.0114106
-0.000633437
0.0115711
-0.000600799
0.0116619
-0.000569405
0.0117098
-0.0005392
0.0117331
-0.000510053
0.0117429
-0.000481828
0.0117457
-0.000454413
0.0117449
-0.000427722
0.011742
-0.000401685
0.011738
-0.000376247
0.0117332
-0.000351362
0.0117278
-0.000326989
0.0117221
-0.000303092
0.011716
-0.000279636
0.0117096
-0.000256586
0.0117032
-0.00023391
0.0116969
-0.000211574
0.0116906
-0.000189546
0.0116846
-0.000167794
0.011679
-0.000146288
0.0116737
-0.000124995
0.011669
-0.000103884
0.0116648
-8.29257e-05
0.0116613
-6.20884e-05
0.0116584
-4.13419e-05
0.0116562
-2.06557e-05
0.0116547
0.0116539
-0.000706079
0.0107123
0.000732983
-0.000676108
0.0111159
-0.000645011
0.0113795
-0.000614107
0.0115402
-0.000584019
0.0116318
-0.000554916
0.0116807
-0.000526743
0.0117049
-0.000499387
0.0117156
-0.000472733
0.0117191
-0.000446693
0.0117188
-0.0004212
0.0117165
-0.000396204
0.011713
-0.000371669
0.0117087
-0.000347564
0.0117037
-0.000323861
0.0116984
-0.000300538
0.0116926
-0.00027757
0.0116867
-0.000254933
0.0116806
-0.000232602
0.0116745
-0.000210553
0.0116686
-0.000188762
0.0116628
-0.000167202
0.0116574
-0.000145848
0.0116524
-0.000124676
0.0116478
-0.000103659
0.0116438
-8.27714e-05
0.0116404
-6.19878e-05
0.0116376
-4.12819e-05
0.0116354
-2.06279e-05
0.011634
0.0116333
-0.000676985
0.0106882
0.000701086
-0.00065003
0.011089
-0.000621936
0.0113515
-0.000593869
0.0115121
-0.000566379
0.0116043
-0.000539609
0.0116539
-0.00051351
0.0116788
-0.000487984
0.0116901
-0.00046294
0.011694
-0.000438312
0.0116942
-0.000414053
0.0116922
-0.000390135
0.0116891
-0.000366538
0.0116851
-0.000343247
0.0116804
-0.00032025
0.0116754
-0.000297534
0.0116699
-0.000275088
0.0116642
-0.000252896
0.0116584
-0.000230944
0.0116526
-0.000209215
0.0116468
-0.000187691
0.0116413
-0.000166355
0.0116361
-0.000145187
0.0116312
-0.000124167
0.0116268
-0.000103275
0.0116229
-8.24905e-05
0.0116196
-6.17921e-05
0.0116169
-4.11586e-05
0.0116148
-2.05684e-05
0.0116134
0.0116127
-0.000647418
0.010667
0.000668609
-0.000623523
0.0110651
-0.000598443
0.0113264
-0.00057321
0.0114869
-0.00054831
0.0115794
-0.000523866
0.0116295
-0.000499838
0.0116548
-0.000476143
0.0116664
-0.000452714
0.0116706
-0.000429504
0.011671
-0.00040649
0.0116692
-0.000383663
0.0116662
-0.000361018
0.0116624
-0.000338558
0.011658
-0.000316283
0.0116531
-0.000294193
0.0116478
-0.000272288
0.0116423
-0.000250563
0.0116367
-0.000229011
0.011631
-0.000207625
0.0116254
-0.000186393
0.0116201
-0.000165304
0.011615
-0.000144346
0.0116102
-0.000123503
0.011606
-0.000102762
0.0116022
-8.21058e-05
0.0115989
-6.15185e-05
0.0115963
-4.09833e-05
0.0115943
-2.04828e-05
0.0115929
0.0115922
-0.000618032
0.0106487
0.000636267
-0.00059718
0.0110442
-0.000575064
0.0113043
-0.000552604
0.0114644
-0.000530233
0.011557
-0.000508062
0.0116073
-0.000486059
0.0116328
-0.000464158
0.0116445
-0.000442313
0.0116488
-0.0004205
0.0116492
-0.000398715
0.0116474
-0.000376966
0.0116445
-0.000355268
0.0116407
-0.000333636
0.0116364
-0.000312084
0.0116315
-0.000290626
0.0116264
-0.00026927
0.011621
-0.00024802
0.0116154
-0.000226881
0.0116099
-0.00020585
0.0116044
-0.000184924
0.0115991
-0.000164099
0.0115941
-0.000143368
0.0115895
-0.000122721
0.0115853
-0.000102148
0.0115816
-8.164e-05
0.0115784
-6.11837e-05
0.0115758
-4.07669e-05
0.0115739
-2.03767e-05
0.0115725
0.0115719
-0.000589459
0.0106335
0.000604749
-0.000571573
0.0110264
-0.000552313
0.011285
-0.000532511
0.0114446
-0.000512559
0.0115371
-0.000492561
0.0115873
-0.000472494
0.0116127
-0.000452314
0.0116243
-0.000431992
0.0116284
-0.000411524
0.0116287
-0.000390926
0.0116268
-0.000370223
0.0116238
-0.000349444
0.0116199
-0.000328621
0.0116155