/*--------------------------------*- C++ -*----------------------------------*\
  =========                 |
  \\      /  F ield         | OpenFOAM: The Open Source CFD Toolbox
   \\    /   O peration     | Website:  https://openfoam.org
    \\  /    A nd           | Version:  7
     \\/     M anipulation  |
\*---------------------------------------------------------------------------*/
FoamFile
{
    version     2.0;
    format      ascii;
    class       volVectorField;
    location    "69.999";
    object      U;
}
// * * * * * * * * * * * * * * * * * * * * * * * * * * * * * * * * * * * * * //

dimensions      [0 1 -1 0 0 0 0];

internalField   nonuniform List<vector> 
3700
(
(1.2467 -0.0481644 0)
(1.28525 -0.0514144 0)
(1.29764 -0.0529202 0)
(1.29831 -0.0531937 0)
(1.29445 -0.0526867 0)
(1.28894 -0.0517457 0)
(1.2829 -0.0505403 0)
(1.27683 -0.0491341 0)
(1.27098 -0.047565 0)
(1.26545 -0.0458635 0)
(1.26023 -0.0440508 0)
(1.25532 -0.0421427 0)
(1.25068 -0.0401519 0)
(1.24629 -0.0380897 0)
(1.24214 -0.0359665 0)
(1.23825 -0.033792 0)
(1.2346 -0.0315751 0)
(1.23121 -0.0293233 0)
(1.22808 -0.0270434 0)
(1.2252 -0.0247408 0)
(1.22258 -0.0224204 0)
(1.22022 -0.0200861 0)
(1.21812 -0.017741 0)
(1.21628 -0.0153878 0)
(1.21471 -0.0130284 0)
(1.21339 -0.0106646 0)
(1.21234 -0.00829789 0)
(1.21156 -0.00592846 0)
(1.21103 -0.00355595 0)
(1.21078 -0.00118859 0)
(1.23978 -0.04083 0)
(1.28167 -0.0441637 0)
(1.2964 -0.046015 0)
(1.29835 -0.0465888 0)
(1.29515 -0.046354 0)
(1.29003 -0.0456877 0)
(1.28427 -0.0447636 0)
(1.2784 -0.0436429 0)
(1.27272 -0.0423608 0)
(1.26732 -0.0409453 0)
(1.26222 -0.0394169 0)
(1.2574 -0.0377903 0)
(1.25285 -0.0360773 0)
(1.24853 -0.0342885 0)
(1.24446 -0.0324337 0)
(1.24062 -0.0305223 0)
(1.23702 -0.0285627 0)
(1.23366 -0.0265624 0)
(1.23056 -0.024528 0)
(1.2277 -0.0224655 0)
(1.2251 -0.0203796 0)
(1.22276 -0.0182746 0)
(1.22067 -0.0161542 0)
(1.21885 -0.0140214 0)
(1.21728 -0.0118787 0)
(1.21597 -0.0097283 0)
(1.21493 -0.00757232 0)
(1.21414 -0.00541164 0)
(1.21362 -0.00324681 0)
(1.21336 -0.00108468 0)
(1.23295 -0.033935 0)
(1.27784 -0.037285 0)
(1.29479 -0.0394392 0)
(1.29801 -0.0402834 0)
(1.29548 -0.040295 0)
(1.29076 -0.0398772 0)
(1.28527 -0.0392076 0)
(1.27962 -0.0383468 0)
(1.2741 -0.0373279 0)
(1.26884 -0.0361774 0)
(1.26386 -0.0349143 0)
(1.25915 -0.0335521 0)
(1.25469 -0.0321017 0)
(1.25046 -0.0305727 0)
(1.24646 -0.0289742 0)
(1.24268 -0.027315 0)
(1.23914 -0.0256031 0)
(1.23583 -0.0238459 0)
(1.23276 -0.0220499 0)
(1.22994 -0.0202209 0)
(1.22736 -0.0183641 0)
(1.22504 -0.0164839 0)
(1.22298 -0.0145842 0)
(1.22116 -0.0126684 0)
(1.21961 -0.0107395 0)
(1.21831 -0.00880016 0)
(1.21727 -0.00685279 0)
(1.21649 -0.00489899 0)
(1.21597 -0.00294001 0)
(1.21572 -0.000981831 0)
(1.22631 -0.0274584 0)
(1.27389 -0.030759 0)
(1.29292 -0.0331684 0)
(1.29738 -0.0342537 0)
(1.29553 -0.034491 0)
(1.2912 -0.0343015 0)
(1.28597 -0.0338653 0)
(1.28052 -0.033243 0)
(1.27517 -0.0324673 0)
(1.27006 -0.0315629 0)
(1.2652 -0.0305477 0)
(1.2606 -0.029434 0)
(1.25624 -0.0282315 0)
(1.2521 -0.0269491 0)
(1.24817 -0.025595 0)
(1.24446 -0.0241774 0)
(1.24097 -0.0227037 0)
(1.23772 -0.0211811 0)
(1.23469 -0.019616 0)
(1.23191 -0.018014 0)
(1.22937 -0.0163804 0)
(1.22707 -0.0147198 0)
(1.22503 -0.0130363 0)
(1.22324 -0.0113336 0)
(1.2217 -0.00961498 0)
(1.22041 -0.00788347 0)
(1.21938 -0.00614189 0)
(1.21861 -0.00439234 0)
(1.21809 -0.00263671 0)
(1.21784 -0.00088034 0)
(1.21991 -0.0213689 0)
(1.26986 -0.0245614 0)
(1.29085 -0.0271899 0)
(1.29653 -0.0284852 0)
(1.29534 -0.0289238 0)
(1.29139 -0.0289429 0)
(1.28642 -0.0287224 0)
(1.28117 -0.0283218 0)
(1.27598 -0.0277726 0)
(1.271 -0.0270985 0)
(1.26627 -0.026316 0)
(1.26178 -0.0254365 0)
(1.25751 -0.0244688 0)
(1.25346 -0.0234209 0)
(1.24961 -0.0223001 0)
(1.24597 -0.0211139 0)
(1.24255 -0.0198693 0)
(1.23934 -0.0185731 0)
(1.23637 -0.0172313 0)
(1.23363 -0.0158496 0)
(1.23112 -0.0144332 0)
(1.22886 -0.0129867 0)
(1.22684 -0.0115145 0)
(1.22507 -0.0100205 0)
(1.22355 -0.00850813 0)
(1.22227 -0.0069808 0)
(1.22126 -0.00544163 0)
(1.22049 -0.00389316 0)
(1.21998 -0.00233779 0)
(1.21973 -0.000780442 0)
(1.21381 -0.0156469 0)
(1.26582 -0.0186765 0)
(1.28862 -0.0214901 0)
(1.29547 -0.0229593 0)
(1.29494 -0.0235751 0)
(1.29137 -0.0237855 0)
(1.28664 -0.0237656 0)
(1.28158 -0.0235722 0)
(1.27655 -0.0232354 0)
(1.2717 -0.0227779 0)
(1.26708 -0.0222152 0)
(1.2627 -0.0215576 0)
(1.25853 -0.0208132 0)
(1.25456 -0.0199888 0)
(1.25079 -0.0190911 0)
(1.24723 -0.018127 0)
(1.24387 -0.0171028 0)
(1.24072 -0.016025 0)
(1.2378 -0.0148992 0)
(1.2351 -0.0137312 0)
(1.23263 -0.0125258 0)
(1.2304 -0.011288 0)
(1.22841 -0.010022 0)
(1.22666 -0.00873185 0)
(1.22516 -0.00742144 0)
(1.22391 -0.00609424 0)
(1.2229 -0.00475366 0)
(1.22215 -0.00340263 0)
(1.22165 -0.00204396 0)
(1.2214 -0.000682333 0)
(1.20803 -0.0102519 0)
(1.26178 -0.0130681 0)
(1.28628 -0.0160629 0)
(1.29424 -0.0176623 0)
(1.29434 -0.0184271 0)
(1.29113 -0.0188146 0)
(1.28665 -0.0189831 0)
(1.28177 -0.0189842 0)
(1.27688 -0.0188476 0)
(1.27216 -0.0185949 0)
(1.26766 -0.0182408 0)
(1.26337 -0.0177946 0)
(1.2593 -0.0172632 0)
(1.25542 -0.0166526 0)
(1.25173 -0.015969 0)
(1.24824 -0.0152183 0)
(1.24494 -0.0144064 0)
(1.24186 -0.0135394 0)
(1.23898 -0.0126227 0)
(1.23633 -0.0116617 0)
(1.23391 -0.0106613 0)
(1.23171 -0.0096264 0)
(1.22975 -0.00856129 0)
(1.22803 -0.00747018 0)
(1.22655 -0.00635703 0)
(1.22532 -0.00522556 0)
(1.22433 -0.00407939 0)
(1.22358 -0.00292176 0)
(1.22309 -0.00175586 0)
(1.22284 -0.000586191 0)
(1.20258 -0.00515446 0)
(1.25782 -0.00772764 0)
(1.28385 -0.0108898 0)
(1.29284 -0.0125585 0)
(1.29355 -0.0134589 0)
(1.2907 -0.0140175 0)
(1.28645 -0.0143641 0)
(1.28174 -0.0145483 0)
(1.27699 -0.014601 0)
(1.27239 -0.0145434 0)
(1.268 -0.0143886 0)
(1.26381 -0.0141445 0)
(1.25983 -0.0138173 0)
(1.25604 -0.013412 0)
(1.25243 -0.012934 0)
(1.24901 -0.0123888 0)
(1.24578 -0.0117817 0)
(1.24276 -0.0111183 0)
(1.23994 -0.0104039 0)
(1.23734 -0.00964353 0)
(1.23495 -0.00884213 0)
(1.2328 -0.00800439 0)
(1.23087 -0.00713476 0)
(1.22918 -0.00623753 0)
(1.22772 -0.00531675 0)
(1.22651 -0.00437633 0)
(1.22553 -0.00342007 0)
(1.2248 -0.00245147 0)
(1.22431 -0.00147403 0)
(1.22407 -0.000492184 0)
(1.19744 -0.000328349 0)
(1.25398 -0.00265536 0)
(1.28138 -0.00594464 0)
(1.29128 -0.00762064 0)
(1.29257 -0.00865633 0)
(1.29007 -0.00938133 0)
(1.28604 -0.00989649 0)
(1.2815 -0.0102545 0)
(1.27689 -0.0104883 0)
(1.2724 -0.0106179 0)
(1.26811 -0.0106544 0)
(1.26402 -0.0106048 0)
(1.26013 -0.0104739 0)
(1.25643 -0.0102662 0)
(1.2529 -0.00998647 0)
(1.24955 -0.00963942 0)
(1.24639 -0.00923008 0)
(1.24343 -0.00876353 0)
(1.24067 -0.00824478 0)
(1.23811 -0.00767878 0)
(1.23578 -0.00707031 0)
(1.23366 -0.00642401 0)
(1.23177 -0.00574437 0)
(1.23011 -0.00503571 0)
(1.22868 -0.00430221 0)
(1.22748 -0.00354792 0)
(1.22652 -0.00277679 0)
(1.2258 -0.00199256 0)
(1.22532 -0.00119899 0)
(1.22509 -0.000400464 0)
(1.1927 0.00435705 0)
(1.25036 0.00213593 0)
(1.27884 -0.00114757 0)
(1.28959 -0.0028042 0)
(1.29144 -0.00400752 0)
(1.28927 -0.00489196 0)
(1.28545 -0.00556645 0)
(1.28106 -0.00609193 0)
(1.27657 -0.00650141 0)
(1.2722 -0.00681253 0)
(1.26801 -0.00703443 0)
(1.26402 -0.0071726 0)
(1.26021 -0.00723133 0)
(1.25659 -0.00721455 0)
(1.25314 -0.00712624 0)
(1.24987 -0.0069707 0)
(1.24678 -0.00675247 0)
(1.24388 -0.00647628 0)
(1.24118 -0.00614693 0)
(1.23868 -0.00576919 0)
(1.23639 -0.0053477 0)
(1.23431 -0.00488708 0)
(1.23246 -0.00439182 0)
(1.23083 -0.00386631 0)
(1.22942 -0.00331483 0)
(1.22825 -0.00274154 0)
(1.22731 -0.00215053 0)
(1.2266 -0.00154575 0)
(1.22613 -0.000931153 0)
(1.22589 -0.000311167 0)
(1.18842 0.00887873 0)
(1.2469 0.00676693 0)
(1.27622 0.00358812 0)
(1.28779 0.00186218 0)
(1.29016 0.000507402 0)
(1.28829 -0.000527201 0)
(1.28467 -0.00136027 0)
(1.28042 -0.00205098 0)
(1.27606 -0.00263341 0)
(1.27179 -0.00312214 0)
(1.2677 -0.00352446 0)
(1.2638 -0.00384517 0)
(1.26008 -0.00408798 0)
(1.25654 -0.00425616 0)
(1.25317 -0.00435324 0)
(1.24998 -0.00438305 0)
(1.24695 -0.00434977 0)
(1.24412 -0.00425784 0)
(1.24147 -0.00411179 0)
(1.23903 -0.00391623 0)
(1.23678 -0.00367583 0)
(1.23475 -0.00339511 0)
(1.23294 -0.0030786 0)
(1.23134 -0.00273072 0)
(1.22996 -0.00235584 0)
(1.22881 -0.00195823 0)
(1.22789 -0.00154213 0)
(1.22719 -0.00111163 0)
(1.22673 -0.000670907 0)
(1.2265 -0.000224412 0)
(1.18455 0.0132892 0)
(1.2435 0.0113093 0)
(1.27359 0.00824531 0)
(1.28588 0.00640087 0)
(1.28872 0.00490954 0)
(1.28714 0.00372641 0)
(1.2837 0.00273602 0)
(1.27959 0.00187745 0)
(1.27534 0.00112227 0)
(1.27118 0.000458253 0)
(1.26718 -0.00012114 0)
(1.26337 -0.000620266 0)
(1.25974 -0.00104239 0)
(1.25629 -0.00139043 0)
(1.253 -0.00166746 0)
(1.24987 -0.00187695 0)
(1.24692 -0.00202279 0)
(1.24415 -0.00210914 0)
(1.24156 -0.00214048 0)
(1.23917 -0.00212131 0)
(1.23698 -0.00205612 0)
(1.23499 -0.00194952 0)
(1.23321 -0.00180604 0)
(1.23165 -0.00163016 0)
(1.2303 -0.00142633 0)
(1.22918 -0.00119893 0)
(1.22827 -0.000952321 0)
(1.22759 -0.000690757 0)
(1.22714 -0.000418583 0)
(1.22692 -0.000140307 0)
(1.18103 0.0176411 -2.65016e-11)
(1.24019 0.0157874 -2.59138e-11)
(1.27094 0.012811 0)
(1.28385 0.010841 -2.46907e-11)
(1.28712 0.00921655 -2.40879e-11)
(1.28581 0.00788069 -6.77454e-28)
(1.28255 0.0067274 2.294e-11)
(1.27857 0.00569855 2.24007e-11)
(1.27443 0.00477035 0)
(1.27037 0.0039323 0)
(1.26646 0.00317809 0)
(1.26275 0.00250373 0)
(1.2592 0.00190623 0)
(1.25583 0.00138286 0)
(1.25262 0.000930889 0)
(1.24957 0.000547078 0)
(1.24669 0.000227618 0)
(1.24398 -3.14609e-05 0)
(1.24146 -0.000234368 0)
(1.23912 -0.00038563 0)
(1.23698 -0.00048984 1.76134e-11)
(1.23504 -0.000551571 3.48239e-11)
(1.2333 -0.00057535 1.72334e-11)
(1.23177 -0.000565741 0)
(1.23045 -0.000527288 -1.69443e-11)
(1.22935 -0.000464482 -1.68335e-11)
(1.22847 -0.00038179 0)
(1.2278 -0.000283622 -1.66787e-11)
(1.22736 -0.000174482 -1.66346e-11)
(1.22714 -5.89489e-05 -4.79289e-28)
(1.1778 0.0219577 2.65022e-11)
(1.23698 0.0202139 2.59138e-11)
(1.26823 0.0172944 0)
(1.28168 0.0151995 2.46907e-11)
(1.28534 0.0134361 2.40879e-11)
(1.28429 0.0119402 6.77454e-28)
(1.2812 0.0106176 -2.294e-11)
(1.27736 0.00941538 -2.24007e-11)
(1.27333 0.00831338 0)
(1.26936 0.00730182 0)
(1.26555 0.00637445 0)
(1.26192 0.00552742 0)
(1.25847 0.00475792 0)
(1.25517 0.00406336 0)
(1.25204 0.00344111 0)
(1.24907 0.00288803 0)
(1.24626 0.0024004 0)
(1.24362 0.00197418 0)
(1.24116 0.00160536 0)
(1.23888 0.00128945 0)
(1.23679 0.00102166 -1.76134e-11)
(1.23489 0.000797471 -3.48239e-11)
(1.2332 0.000612292 -1.72334e-11)
(1.23171 0.00046146 0)
(1.23042 0.00034034 1.69443e-11)
(1.22934 0.000244327 1.68335e-11)
(1.22848 0.000168836 0)
(1.22783 0.000109315 1.66787e-11)
(1.2274 6.11172e-05 1.66346e-11)
(1.22718 1.95733e-05 4.79289e-28)
(1.17484 0.0262503 0)
(1.23384 0.0245977 0)
(1.26546 0.0217077 0)
(1.27935 0.0194835 0)
(1.28337 0.017571 0)
(1.28257 0.0159062 0)
(1.27965 0.0144077 0)
(1.27594 0.0130288 0)
(1.27202 0.0117518 0)
(1.26816 0.0105668 0)
(1.26444 0.00946751 0)
(1.2609 0.00845014 0)
(1.25753 0.00751184 0)
(1.25433 0.00665003 0)
(1.25128 0.00586202 0)
(1.24838 0.00514459 0)
(1.24565 0.00449409 0)
(1.24308 0.00390639 0)
(1.24068 0.00337736 0)
(1.23846 0.00290252 0)
(1.23642 0.00247704 0)
(1.23457 0.00209636 0)
(1.23292 0.00175574 0)
(1.23146 0.00145042 0)
(1.23021 0.00117566 0)
(1.22916 0.000926747 0)
(1.22832 0.000698967 0)
(1.22768 0.000487629 0)
(1.22726 0.00028795 0)
(1.22705 9.51683e-05 0)
(1.17209 0.0305269 0)
(1.23074 0.0289434 0)
(1.26261 0.0260559 0)
(1.27688 0.0236936 0)
(1.28122 0.02162 0)
(1.28065 0.0197771 0)
(1.27791 0.0180964 0)
(1.27432 0.0165376 0)
(1.27052 0.0150839 0)
(1.26675 0.0137253 0)
(1.26314 0.0124554 0)
(1.25969 0.01127 0)
(1.25641 0.0101662 0)
(1.25329 0.00914108 0)
(1.25033 0.00819182 0)
(1.24751 0.00731505 0)
(1.24485 0.00650699 0)
(1.24235 0.00576341 0)
(1.24002 0.00507997 0)
(1.23785 0.0044521 0)
(1.23587 0.00387497 0)
(1.23407 0.00334383 0)
(1.23246 0.00285383 0)
(1.23104 0.00240011 0)
(1.22982 0.0019778 0)
(1.2288 0.00158205 0)
(1.22798 0.00120803 0)
(1.22736 0.000850906 0)
(1.22695 0.000505768 0)
(1.22675 0.000167756 0)
(1.1695 0.0347894 0)
(1.22767 0.03325 0)
(1.25965 0.0303361 0)
(1.27423 0.027824 0)
(1.27887 0.0255776 0)
(1.27852 0.0235481 0)
(1.27595 0.0216798 0)
(1.2725 0.0199379 0)
(1.26881 0.0183061 0)
(1.26516 0.0167739 0)
(1.26164 0.0153347 0)
(1.25829 0.0139839 0)
(1.25511 0.012718 0)
(1.25208 0.0115339 0)
(1.2492 0.0104281 0)
(1.24646 0.00939716 0)
(1.24388 0.00843703 0)
(1.24145 0.00754329 0)
(1.23918 0.0067114 0)
(1.23708 0.0059366 0)
(1.23516 0.00521396 0)
(1.23341 0.00453857 0)
(1.23184 0.00390541 0)
(1.23046 0.00330952 0)
(1.22927 0.00274588 0)
(1.22828 0.00220952 0)
(1.22748 0.00169546 0)
(1.22688 0.00119875 0)
(1.22648 0.000714331 0)
(1.22628 0.000237259 0)
(1.16703 0.0390311 0)
(1.22457 0.0375078 0)
(1.25657 0.034538 0)
(1.27139 0.0318635 0)
(1.2763 0.0294336 0)
(1.27618 0.0272106 0)
(1.27378 0.0251503 0)
(1.27047 0.0232228 0)
(1.26691 0.0214122 0)
(1.26337 0.0197073 0)
(1.25996 0.0181009 0)
(1.25671 0.0165878 0)
(1.25362 0.0151638 0)
(1.25068 0.0138251 0)
(1.24789 0.0125679 0)
(1.24524 0.0113882 0)
(1.24274 0.0102818 0)
(1.24038 0.0092439 0)
(1.23818 0.00826971 0)
(1.23615 0.00735426 0)
(1.23428 0.00649246 0)
(1.23258 0.00567918 0)
(1.23106 0.00490928 0)
(1.22972 0.00417762 0)
(1.22857 0.00347905 0)
(1.2276 0.00280845 0)
(1.22683 0.00216072 0)
(1.22624 0.00153076 0)
(1.22586 0.000913407 0)
(1.22566 0.000303599 0)
(1.16462 0.0432352 0)
(1.22142 0.0416981 0)
(1.25334 0.0386446 0)
(1.26836 0.0357959 0)
(1.27352 0.0331738 0)
(1.27362 0.030752 0)
(1.2714 0.0284969 0)
(1.26824 0.0263831 0)
(1.26481 0.0243941 0)
(1.26138 0.0225185 0)
(1.25809 0.0207479 0)
(1.25494 0.0190763 0)
(1.25196 0.0174987 0)
(1.24912 0.0160106 0)
(1.24642 0.0146076 0)
(1.24386 0.0132852 0)
(1.24143 0.0120386 0)
(1.23916 0.0108628 0)
(1.23703 0.00975281 0)
(1.23506 0.00870325 0)
(1.23325 0.00770885 0)
(1.2316 0.00676429 0)
(1.23013 0.00586424 0)
(1.22883 0.0050034 0)
(1.22771 0.00417645 0)
(1.22678 0.00337815 0)
(1.22602 0.00260327 0)
(1.22546 0.00184657 0)
(1.22508 0.00110277 0)
(1.22489 0.000366702 0)
(1.16222 0.047376 0)
(1.21819 0.0457942 0)
(1.24995 0.0426323 0)
(1.26512 0.0395999 0)
(1.27051 0.0367796 0)
(1.27083 0.0341563 0)
(1.26879 0.031706 0)
(1.2658 0.0294067 0)
(1.2625 0.0272418 0)
(1.25921 0.0251988 0)
(1.25603 0.0232683 0)
(1.253 0.0214432 0)
(1.25012 0.0197175 0)
(1.24739 0.0180859 0)
(1.24478 0.0165433 0)
(1.24231 0.0150845 0)
(1.23998 0.0137044 0)
(1.23778 0.0123976 0)
(1.23572 0.0111585 0)
(1.23382 0.00998164 0)
(1.23207 0.00886149 0)
(1.23048 0.00779248 0)
(1.22905 0.00676909 0)
(1.2278 0.00578583 0)
(1.22672 0.00483726 0)
(1.22581 0.00391798 0)
(1.22508 0.00302262 0)
(1.22453 0.00214583 0)
(1.22417 0.00128221 0)
(1.22399 0.000426499 0)
(1.15977 0.051419 0)
(1.21484 0.0497628 0)
(1.24637 0.0464719 0)
(1.26166 0.0432497 0)
(1.26727 0.0402289 0)
(1.26782 0.0374047 0)
(1.26598 0.0347616 0)
(1.26315 0.0322803 0)
(1.26001 0.0299438 0)
(1.25685 0.0277386 0)
(1.2538 0.0256539 0)
(1.2509 0.0236815 0)
(1.24813 0.0218143 0)
(1.2455 0.0200459 0)
(1.243 0.0183706 0)
(1.24062 0.0167827 0)
(1.23837 0.0152762 0)
(1.23625 0.0138454 0)
(1.23427 0.0124845 0)
(1.23244 0.0111875 0)
(1.23075 0.00994874 0)
(1.22922 0.00876236 0)
(1.22784 0.00762265 0)
(1.22663 0.00652396 0)
(1.22558 0.00546069 0)
(1.22471 0.00442729 0)
(1.224 0.00341828 0)
(1.22348 0.0024282 0)
(1.22312 0.00145153 0)
(1.22295 0.000482923 0)
(1.15723 0.0553233 0)
(1.21134 0.0535652 0)
(1.24261 0.0501302 0)
(1.25798 0.0467165 0)
(1.26381 0.043497 0)
(1.26458 0.0404761 0)
(1.26295 0.0376457 0)
(1.2603 0.0349888 0)
(1.25733 0.0324876 0)
(1.25432 0.0301272 0)
(1.25141 0.0278958 0)
(1.24863 0.0257837 0)
(1.24598 0.0237826 0)
(1.24346 0.0218853 0)
(1.24106 0.0200852 0)
(1.23878 0.0183758 0)
(1.23663 0.0167507 0)
(1.23459 0.0152037 0)
(1.23269 0.0137285 0)
(1.23093 0.012319 0)
(1.2293 0.010969 0)
(1.22783 0.0096726 0)
(1.2265 0.00842384 0)
(1.22533 0.00721689 0)
(1.22433 0.006046 0)
(1.22348 0.00490552 0)
(1.2228 0.00378983 0)
(1.22229 0.00269338 0)
(1.22195 0.00161055 0)
(1.22178 0.000535915 0)
(1.15456 0.0590427 0)
(1.20769 0.0571592 0)
(1.23865 0.0535713 0)
(1.25408 0.0499692 0)
(1.26012 0.0465575 0)
(1.26113 0.0433485 0)
(1.25972 0.0403399 0)
(1.25727 0.0375166 0)
(1.25447 0.0348599 0)
(1.25162 0.0323538 0)
(1.24885 0.0299848 0)
(1.24621 0.0277421 0)
(1.24369 0.0256162 0)
(1.24128 0.0235988 0)
(1.23899 0.0216825 0)
(1.23682 0.0198602 0)
(1.23475 0.0181248 0)
(1.23281 0.0164698 0)
(1.23098 0.0148884 0)
(1.22929 0.0133742 0)
(1.22773 0.0119208 0)
(1.22631 0.010522 0)
(1.22504 0.00917164 0)
(1.22392 0.00786379 0)
(1.22295 0.00659256 0)
(1.22213 0.00535215 0)
(1.22148 0.00413689 0)
(1.22099 0.0029411 0)
(1.22066 0.00175911 0)
(1.2205 0.000585426 0)
(1.15174 0.0625287 0)
(1.20387 0.0605013 0)
(1.23449 0.0567581 0)
(1.24998 0.0529765 0)
(1.25623 0.0493839 0)
(1.25748 0.0459993 0)
(1.2563 0.0428253 0)
(1.25406 0.0398479 0)
(1.25144 0.0370478 0)
(1.24877 0.0344073 0)
(1.24615 0.0319119 0)
(1.24365 0.0295492 0)
(1.24126 0.0273087 0)
(1.23898 0.0251812 0)
(1.2368 0.0231583 0)
(1.23473 0.0212323 0)
(1.23276 0.0193957 0)
(1.2309 0.0176414 0)
(1.22916 0.0159623 0)
(1.22754 0.0143516 0)
(1.22605 0.0128028 0)
(1.22469 0.0113094 0)
(1.22347 0.00986521 0)
(1.22239 0.00846399 0)
(1.22146 0.00709981 0)
(1.22068 0.00576679 0)
(1.22005 0.00445915 0)
(1.21958 0.00317116 0)
(1.21926 0.0018971 0)
(1.21911 0.000631414 0)
(1.14874 0.0657317 0)
(1.19986 0.063548 0)
(1.23015 0.0596545 0)
(1.24568 0.0557074 0)
(1.25214 0.0519501 0)
(1.25364 0.0484067 0)
(1.2527 0.0450837 0)
(1.25068 0.0419677 0)
(1.24827 0.0390386 0)
(1.24577 0.0362775 0)
(1.24332 0.0336685 0)
(1.24096 0.031198 0)
(1.23871 0.0288544 0)
(1.23655 0.0266276 0)
(1.23449 0.0245086 0)
(1.23253 0.022489 0)
(1.23066 0.0205608 0)
(1.22889 0.0187163 0)
(1.22723 0.0169484 0)
(1.22569 0.0152499 0)
(1.22426 0.013614 0)
(1.22296 0.0120341 0)
(1.2218 0.0105039 0)
(1.22076 0.00901697 0)
(1.21987 0.00756736 0)
(1.21912 0.00614911 0)
(1.21852 0.00475639 0)
(1.21807 0.00338341 0)
(1.21777 0.00202442 0)
(1.21761 0.000673852 0)
(1.14556 0.0686039 0)
(1.19569 0.066258 0)
(1.22563 0.0622262 0)
(1.2412 0.0581332 0)
(1.24788 0.054232 0)
(1.24964 0.0505506 0)
(1.24895 0.0470984 0)
(1.24717 0.0438622 0)
(1.24496 0.0408211 0)
(1.24264 0.037955 0)
(1.24036 0.0352469 0)
(1.23816 0.0326821 0)
(1.23605 0.0302482 0)
(1.23402 0.0279342 0)
(1.23208 0.0257303 0)
(1.23023 0.0236277 0)
(1.22846 0.0216179 0)
(1.22678 0.019693 0)
(1.22521 0.0178455 0)
(1.22374 0.016068 0)
(1.22238 0.0143536 0)
(1.22114 0.0126955 0)
(1.22003 0.0110872 0)
(1.21904 0.00952239 0)
(1.21819 0.00799499 0)
(1.21747 0.00649897 0)
(1.2169 0.0050285 0)
(1.21646 0.00357777 0)
(1.21617 0.00214104 0)
(1.21603 0.000712726 0)
(1.14218 0.0711007 0)
(1.19136 0.068594 0)
(1.22096 0.0644426 0)
(1.23658 0.0602283 0)
(1.24347 0.0562084 0)
(1.2455 0.0524135 0)
(1.24507 0.0488548 0)
(1.24353 0.0455193 0)
(1.24153 0.0423853 0)
(1.23941 0.0394319 0)
(1.23731 0.0366408 0)
(1.23526 0.0339966 0)
(1.23329 0.031486 0)
(1.2314 0.0290975 0)
(1.22958 0.0268207 0)
(1.22784 0.0246463 0)
(1.22617 0.0225656 0)
(1.22459 0.0205704 0)
(1.2231 0.0186528 0)
(1.22171 0.0168054 0)
(1.22042 0.0150211 0)
(1.21924 0.0132932 0)
(1.21818 0.011615 0)
(1.21724 0.00998019 0)
(1.21642 0.00838263 0)
(1.21574 0.00681635 0)
(1.21519 0.00527548 0)
(1.21477 0.00375426 0)
(1.2145 0.00224697 0)
(1.21436 0.000748041 0)
(1.13863 0.0731836 0)
(1.1869 0.0705244 0)
(1.21617 0.0662783 0)
(1.23183 0.0619717 0)
(1.23894 0.057862 0)
(1.24125 0.0539811 0)
(1.24109 0.0503414 0)
(1.23979 0.0469298 0)
(1.23802 0.0437239 0)
(1.23609 0.0407021 0)
(1.23417 0.0378454 0)
(1.23228 0.0351377 0)
(1.23046 0.0325651 0)
(1.2287 0.0301155 0)
(1.22701 0.0277784 0)
(1.22537 0.0255439 0)
(1.22381 0.0234032 0)
(1.22232 0.0213478 0)
(1.22091 0.0193699 0)
(1.2196 0.0174619 0)
(1.21838 0.0156167 0)
(1.21726 0.0138274 0)
(1.21625 0.0120874 0)
(1.21536 0.0103905 0)
(1.21458 0.00873049 0)
(1.21393 0.00710141 0)
(1.21341 0.00549748 0)
(1.21301 0.00391299 0)
(1.21275 0.00234227 0)
(1.21261 0.000779818 0)
(1.13493 0.0748214 0)
(1.18232 0.0720249 0)
(1.21129 0.067714 0)
(1.227 0.0633479 0)
(1.23434 0.0591801 0)
(1.23692 0.0552433 0)
(1.23703 0.0515501 0)
(1.23598 0.0480872 0)
(1.23443 0.0448319 0)
(1.23271 0.0417619 0)
(1.23096 0.0388579 0)
(1.22924 0.0361033 0)
(1.22757 0.0334839 0)
(1.22594 0.0309874 0)
(1.22437 0.0286028 0)
(1.22285 0.0263202 0)
(1.22139 0.0241307 0)
(1.21999 0.0220257 0)
(1.21867 0.0199974 0)
(1.21742 0.0180381 0)
(1.21627 0.0161408 0)
(1.21521 0.0142986 0)
(1.21426 0.012505 0)
(1.21341 0.0107538 0)
(1.21267 0.00903896 0)
(1.21205 0.00735451 0)
(1.21155 0.00569479 0)
(1.21118 0.00405416 0)
(1.21092 0.00242707 0)
(1.2108 0.000808101 0)
(1.1311 0.0759921 0)
(1.17767 0.0730793 0)
(1.20635 0.0687377 0)
(1.22213 0.0643474 0)
(1.22969 0.0601555 0)
(1.23254 0.0561945 0)
(1.23293 0.0524767 0)
(1.23213 0.0489886 0)
(1.2308 0.0457071 0)
(1.22928 0.04261 0)
(1.22771 0.0396776 0)
(1.22615 0.0368934 0)
(1.22463 0.0342429 0)
(1.22314 0.0317136 0)
(1.22168 0.0292947 0)
(1.22027 0.0269762 0)
(1.21891 0.0247491 0)
(1.21761 0.0226051 0)
(1.21637 0.0205362 0)
(1.2152 0.018535 0)
(1.21411 0.0165944 0)
(1.21311 0.0147078 0)
(1.21221 0.0128687 0)
(1.2114 0.011071 0)
(1.2107 0.00930873 0)
(1.21012 0.00757622 0)
(1.20964 0.00586784 0)
(1.20928 0.0041781 0)
(1.20904 0.00250156 0)
(1.20892 0.000832955 0)
(1.12717 0.0766833 0)
(1.17298 0.0736806 0)
(1.20141 0.0693453 0)
(1.21724 0.0649678 0)
(1.22503 0.0607869 0)
(1.22816 0.0568343 0)
(1.22882 0.0531215 0)
(1.22826 0.0496346 0)
(1.22716 0.0463508 0)
(1.22583 0.0432478 0)
(1.22444 0.0403064 0)
(1.22304 0.0375098 0)
(1.22166 0.0348439 0)
(1.2203 0.0322962 0)
(1.21897 0.0298562 0)
(1.21766 0.0275139 0)
(1.2164 0.0252605 0)
(1.21519 0.0230879 0)
(1.21402 0.0209882 0)
(1.21293 0.0189542 0)
(1.21191 0.0169791 0)
(1.21096 0.0150563 0)
(1.21011 0.0131796 0)
(1.20935 0.011343 0)
(1.20869 0.00954073 0)
(1.20813 0.0077673 0)
(1.20768 0.00601724 0)
(1.20734 0.00428523 0)
(1.20711 0.002566 0)
(1.20699 0.000854465 0)
(1.1232 0.0768933 0)
(1.1683 0.0738314 0)
(1.19649 0.0695406 0)
(1.2124 0.0652134 0)
(1.2204 0.0610789 0)
(1.2238 0.0571673 0)
(1.22472 0.053489 0)
(1.22441 0.0500298 0)
(1.22352 0.0467673 0)
(1.22239 0.0436798 0)
(1.22117 0.0407483 0)
(1.21992 0.0379565 0)
(1.21868 0.0352907 0)
(1.21745 0.0327389 0)
(1.21623 0.0302907 0)
(1.21503 0.0279365 0)
(1.21386 0.0256679 0)
(1.21273 0.0234768 0)
(1.21165 0.0213559 0)
(1.21063 0.0192982 0)
(1.20967 0.017297 0)
(1.20878 0.015346 0)
(1.20797 0.0134394 0)
(1.20725 0.0115713 0)
(1.20663 0.00973618 0)
(1.2061 0.00792874 0)
(1.20567 0.00614375 0)
(1.20535 0.0043761 0)
(1.20513 0.00262073 0)
(1.20502 0.000872742 0)
(1.11921 0.0766308 0)
(1.16367 0.0735434 0)
(1.19164 0.0693355 0)
(1.20763 0.0650957 0)
(1.21585 0.0610422 0)
(1.2195 0.0572034 0)
(1.22068 0.0535883 0)
(1.22059 0.0501826 0)
(1.21991 0.0469645 0)
(1.21897 0.043913 0)
(1.21791 0.0410099 0)
(1.21682 0.0382397 0)
(1.21571 0.0355892 0)
(1.2146 0.0330469 0)
(1.21349 0.030603 0)
(1.21239 0.0282484 0)
(1.21131 0.0259751 0)
(1.21027 0.0237756 0)
(1.20926 0.0216427 0)
(1.2083 0.0195698 0)
(1.2074 0.0175507 0)
(1.20656 0.0155794 0)
(1.2058 0.0136502 0)
(1.20512 0.0117577 0)
(1.20453 0.00989656 0)
(1.20403 0.00806176 0)
(1.20362 0.00624832 0)
(1.20332 0.00445139 0)
(1.20311 0.00266614 0)
(1.20301 0.000887917 0)
(1.11526 0.0759146 0)
(1.15913 0.0728373 0)
(1.18691 0.0687497 0)
(1.20297 0.0646327 0)
(1.2114 0.0606932 0)
(1.2153 0.0569576 0)
(1.21671 0.0534329 0)
(1.21685 0.0501051 0)
(1.21637 0.0469533 0)
(1.2156 0.0439574 0)
(1.2147 0.0411004 0)
(1.21374 0.0383675 0)
(1.21276 0.0357466 0)
(1.21176 0.0332269 0)
(1.21075 0.0307992 0)
(1.20975 0.0284553 0)
(1.20876 0.0261874 0)
(1.20779 0.0239887 0)
(1.20685 0.0218526 0)
(1.20596 0.0197728 0)
(1.20511 0.0177435 0)
(1.20433 0.0157592 0)
(1.20361 0.0138145 0)
(1.20297 0.0119043 0)
(1.20241 0.0100236 0)
(1.20194 0.00816777 0)
(1.20155 0.00633204 0)
(1.20126 0.00451186 0)
(1.20106 0.00270269 0)
(1.20097 0.000900146 0)
(1.11139 0.0747738 0)
(1.15473 0.0717422 0)
(1.18234 0.0678101 0)
(1.19847 0.0638489 0)
(1.20709 0.0600541 0)
(1.21122 0.0564495 0)
(1.21286 0.0530404 0)
(1.2132 0.0498131 0)
(1.2129 0.0467478 0)
(1.21229 0.0438257 0)
(1.21154 0.0410309 0)
(1.21071 0.0383502 0)
(1.20984 0.0357722 0)
(1.20895 0.0332872 0)
(1.20804 0.0308869 0)
(1.20713 0.0285637 0)
(1.20622 0.0263107 0)
(1.20532 0.0241216 0)
(1.20445 0.0219904 0)
(1.20361 0.0199114 0)
(1.20282 0.0178792 0)
(1.20208 0.0158887 0)
(1.20141 0.013935 0)
(1.2008 0.0120135 0)
(1.20027 0.0101194 0)
(1.19982 0.00824839 0)
(1.19945 0.00639614 0)
(1.19918 0.00455839 0)
(1.19899 0.00273091 0)
(1.1989 0.000909603 0)
(1.10764 0.0732453 0)
(1.1505 0.0702949 0)
(1.17796 0.06655 0)
(1.19416 0.0627746 0)
(1.20296 0.0591518 0)
(1.2073 0.0557031 0)
(1.20914 0.0524322 0)
(1.20967 0.0493256 0)
(1.20953 0.0463648 0)
(1.20907 0.0435328 0)
(1.20845 0.0408152 0)
(1.20774 0.0381998 0)
(1.20698 0.0356767 0)
(1.20619 0.0332374 0)
(1.20537 0.0308745 0)
(1.20453 0.0285814 0)
(1.20369 0.0263519 0)
(1.20286 0.0241803 0)
(1.20205 0.0220615 0)
(1.20127 0.0199903 0)
(1.20052 0.0179618 0)
(1.19983 0.0159716 0)
(1.19919 0.014015 0)
(1.19862 0.0120879 0)
(1.19812 0.010186 0)
(1.19769 0.00830541 0)
(1.19734 0.00644202 0)
(1.19708 0.00459197 0)
(1.1969 0.00275138 0)
(1.19681 0.000916481 0)
(1.10406 0.071374 0)
(1.14648 0.0685383 0)
(1.17381 0.0650086 0)
(1.19007 0.0614447 0)
(1.19903 0.0580176 0)
(1.20356 0.0547463 0)
(1.20558 0.0516328 0)
(1.20628 0.0486644 0)
(1.20629 0.0458239 0)
(1.20596 0.0430962 0)
(1.20545 0.0404683 0)
(1.20485 0.0379299 0)
(1.20418 0.0354724 0)
(1.20347 0.0330885 0)
(1.20273 0.0307719 0)
(1.20197 0.0285169 0)
(1.2012 0.0263185 0)
(1.20043 0.0241717 0)
(1.19967 0.022072 0)
(1.19893 0.0200148 0)
(1.19823 0.0179962 0)
(1.19758 0.0160118 0)
(1.19698 0.0140579 0)
(1.19643 0.0121305 0)
(1.19595 0.010226 0)
(1.19555 0.00834078 0)
(1.19522 0.00647117 0)
(1.19497 0.00461366 0)
(1.1948 0.00276473 0)
(1.19472 0.000920992 0)
(1.10068 0.069211 0)
(1.14271 0.066521 0)
(1.16991 0.0632297 0)
(1.18623 0.0598984 0)
(1.19532 0.0566864 0)
(1.20002 0.0536099 0)
(1.2022 0.0506697 0)
(1.20304 0.0478537 0)
(1.20318 0.0451466 0)
(1.20296 0.0425347 0)
(1.20255 0.0400073 0)
(1.20204 0.0375556 0)
(1.20146 0.0351725 0)
(1.20082 0.0328521 0)
(1.20015 0.0305894 0)
(1.19945 0.0283797 0)
(1.19874 0.026219 0)
(1.19802 0.0241031 0)
(1.19731 0.0220282 0)
(1.19662 0.0199908 0)
(1.19596 0.0179871 0)
(1.19534 0.0160138 0)
(1.19476 0.0140674 0)
(1.19425 0.0121445 0)
(1.19379 0.010242 0)
(1.1934 0.00835662 0)
(1.19309 0.0064852 0)
(1.19285 0.00462459 0)
(1.19269 0.00277166 0)
(1.19261 0.00092336 0)
(1.09753 0.0668123 0)
(1.13921 0.0642953 0)
(1.16628 0.0612605 0)
(1.18265 0.0581783 0)
(1.19186 0.0551959 0)
(1.1967 0.0523274 0)
(1.19902 0.0495724 0)
(1.19998 0.0469198 0)
(1.20022 0.0443558 0)
(1.20009 0.041869 0)
(1.19977 0.0394504 0)
(1.19933 0.037093 0)
(1.19881 0.0347914 0)
(1.19824 0.0325412 0)
(1.19763 0.0303384 0)
(1.19698 0.0281798 0)
(1.19632 0.0260621 0)
(1.19565 0.0239822 0)
(1.19498 0.0219372 0)
(1.19432 0.0199241 0)
(1.1937 0.01794 0)
(1.19311 0.015982 0)
(1.19256 0.0140473 0)
(1.19207 0.0121331 0)
(1.19163 0.0102366 0)
(1.19126 0.00835512 0)
(1.19096 0.0064858 0)
(1.19073 0.00462596 0)
(1.19058 0.00277285 0)
(1.1905 0.000923822 0)
(1.09464 0.0642378 0)
(1.13599 0.0619167 0)
(1.16295 0.0591511 0)
(1.17934 0.0563288 0)
(1.18866 0.0535857 0)
(1.1936 0.0509339 0)
(1.19604 0.0483721 0)
(1.19709 0.0458901 0)
(1.19742 0.0434761 0)
(1.19736 0.0411206 0)
(1.1971 0.0388166 0)
(1.19672 0.036559 0)
(1.19626 0.0343441 0)
(1.19574 0.0321688 0)
(1.19517 0.0300307 0)
(1.19457 0.0279275 0)
(1.19395 0.025857 0)
(1.19331 0.0238173 0)
(1.19268 0.021806 0)
(1.19206 0.0198211 0)
(1.19146 0.0178603 0)
(1.1909 0.0159213 0)
(1.19037 0.0140019 0)
(1.1899 0.0120998 0)
(1.18948 0.0102128 0)
(1.18913 0.00833855 0)
(1.18884 0.00647471 0)
(1.18862 0.00461899 0)
(1.18847 0.00276906 0)
(1.18839 0.000922621 0)
(1.09203 0.0615489 0)
(1.13308 0.0594418 0)
(1.15993 0.0569524 0)
(1.17633 0.0543958 0)
(1.18572 0.0518966 0)
(1.19075 0.0494655 0)
(1.19326 0.0471006 0)
(1.19439 0.0447928 0)
(1.19478 0.0425322 0)
(1.19477 0.0403114 0)
(1.19456 0.0381254 0)
(1.19422 0.0359709 0)
(1.1938 0.0338458 0)
(1.19332 0.0317486 0)
(1.19279 0.0296782 0)
(1.19222 0.0276334 0)
(1.19163 0.0256133 0)
(1.19102 0.0236166 0)
(1.19042 0.021642 0)
(1.18982 0.0196882 0)
(1.18925 0.0177535 0)
(1.18871 0.0158364 0)
(1.1882 0.0139352 0)
(1.18775 0.0120481 0)
(1.18734 0.0101734 0)
(1.187 0.00830923 0)
(1.18672 0.00645371 0)
(1.1865 0.00460496 0)
(1.18636 0.00276102 0)
(1.18629 0.000920006 0)
(1.08972 0.0588081 0)
(1.13048 0.0569277 0)
(1.15721 0.0547161 0)
(1.17361 0.0524252 0)
(1.18304 0.0501695 0)
(1.18814 0.0479585 0)
(1.1907 0.0457901 0)
(1.19188 0.0436564 0)
(1.1923 0.0415495 0)
(1.19233 0.0394639 0)
(1.19215 0.0373966 0)
(1.19184 0.0353462 0)
(1.19144 0.0333121 0)
(1.19098 0.0312943 0)
(1.19048 0.0292931 0)
(1.18993 0.0273084 0)
(1.18936 0.0253403 0)
(1.18878 0.0233885 0)
(1.1882 0.0214526 0)
(1.18762 0.0195318 0)
(1.18707 0.0176253 0)
(1.18654 0.0157322 0)
(1.18605 0.0138513 0)
(1.18561 0.0119815 0)
(1.18522 0.0101213 0)
(1.18488 0.0082695 0)
(1.18461 0.00642459 0)
(1.1844 0.0045851 0)
(1.18426 0.00274948 0)
(1.18419 0.000916224 0)
(1.0877 0.0560765 0)
(1.1282 0.05443 0)
(1.1548 0.0524923 0)
(1.17118 0.050462 0)
(1.18063 0.0484443 0)
(1.18576 0.0464484 0)
(1.18835 0.044472 0)
(1.18955 0.0425087 0)
(1.18999 0.0405525 0)
(1.19003 0.0385998 0)
(1.18986 0.0366495 0)
(1.18956 0.0347019 0)
(1.18918 0.0327581 0)
(1.18873 0.0308194 0)
(1.18824 0.0288873 0)
(1.18771 0.026963 0)
(1.18716 0.0250474 0)
(1.18659 0.0231413 0)
(1.18602 0.0212449 0)
(1.18546 0.0193582 0)
(1.18491 0.0174812 0)
(1.1844 0.0156135 0)
(1.18392 0.0137544 0)
(1.18349 0.0119033 0)
(1.18311 0.0100594 0)
(1.18278 0.00822163 0)
(1.18251 0.0063891 0)
(1.18231 0.00456067 0)
(1.18218 0.0027352 0)
(1.18211 0.000911523 0)
(1.08599 0.0534135 0)