/*--------------------------------*- C++ -*----------------------------------*\
  =========                 |
  \\      /  F ield         | OpenFOAM: The Open Source CFD Toolbox
   \\    /   O peration     | Website:  https://openfoam.org
    \\  /    A nd           | Version:  7
     \\/     M anipulation  |
\*---------------------------------------------------------------------------*/
FoamFile
{
    version     2.0;
    format      ascii;
    class       surfaceScalarField;
    location    "50.001";
    object      phi;
}
// * * * * * * * * * * * * * * * * * * * * * * * * * * * * * * * * * * * * * //

dimensions      [0 3 -1 0 0 0 0];

internalField   nonuniform List<scalar> 
7248
(
-0.000159367
0.000159374
-0.000435713
0.000276355
-0.000743693
0.000307991
-0.00105654
0.000312854
-0.0013715
0.000314968
-0.00169041
0.000318925
-0.00201514
0.000324734
-0.00234728
0.000332148
-0.00268829
0.000341017
-0.00303949
0.000351213
-0.00340215
0.000362659
-0.00377743
0.000375291
-0.0041664
0.000388971
-0.00456991
0.00040351
0.000419217
-0.00498912
-0.000158672
0.000318046
-0.000434215
0.000551898
-0.000741529
0.000615305
-0.00105379
0.000625119
-0.0013682
0.000629372
-0.00168657
0.000637295
-0.00201075
0.000648918
-0.00234235
0.000663749
-0.00268282
0.000681486
-0.00303348
0.000701875
-0.00339559
0.000724763
-0.00377032
0.000750022
-0.00415873
0.00077738
-0.00456168
0.000806458
0.000837859
-0.00498032
-0.000157282
0.000475328
-0.00043122
0.000825835
-0.000737201
0.000921286
-0.00104831
0.000936225
-0.0013616
0.000942668
-0.00167888
0.000954573
-0.00200198
0.000972019
-0.00233251
0.000994271
-0.00267189
0.00102087
-0.00302147
0.00105145
-0.00338247
0.00108577
-0.00375609
0.00112364
-0.00414339
0.00116467
-0.00454522
0.00120829
0.00125535
-0.00496271
-0.0001552
0.000630528
-0.000426729
0.00109736
-0.000730711
0.00122527
-0.00104008
0.00124559
-0.00135172
0.0012543
-0.00166736
0.00127022
-0.00198884
0.0012935
-0.00231774
0.00132318
-0.00265551
0.00135864
-0.00300346
0.0013994
-0.00336282
0.00144513
-0.00373477
0.00149559
-0.00412038
0.00155028
-0.00452053
0.00160844
0.00167112
-0.0049363
-0.000152429
0.000782958
-0.000420745
0.00136568
-0.00072206
0.00152658
-0.00102911
0.00155265
-0.00133854
0.00156373
-0.00165201
0.00158368
-0.00197133
0.00161282
-0.00229808
0.00164993
-0.00263369
0.00169425
-0.00297946
0.00174517
-0.00333663
0.00180229
-0.00370636
0.00186532
-0.00408973
0.00193366
-0.00448763
0.00200635
0.00208456
-0.00490108
-0.000148973
0.000931931
-0.000413272
0.00162998
-0.00071125
0.00182456
-0.00101542
0.00185681
-0.00132208
0.0018704
-0.00163283
0.00189444
-0.00194946
0.00192945
-0.00227353
0.00197399
-0.00260644
0.00202717
-0.0029495
0.00208823
-0.00330393
0.00215671
-0.00367088
0.00223228
-0.00405145
0.00231423
-0.00444653
0.00240143
0.00249509
-0.00485706
-0.000144837
0.00107677
-0.000404313
0.00188945
-0.000698285
0.00211853
-0.000998986
0.00215752
-0.00130235
0.00217376
-0.00160986
0.00220194
-0.00192326
0.00224285
-0.00224411
0.00229484
-0.0025738
0.00235685
-0.00291361
0.00242804
-0.00326474
0.00250785
-0.00362836
0.0025959
-0.00400556
0.00269143
-0.00439725
0.00279312
0.00290211
-0.00480427
-0.000140029
0.0012168
-0.000393874
0.0021433
-0.000683167
0.00240783
-0.000979832
0.00245418
-0.00127936
0.00247329
-0.00158309
0.00250566
-0.00189274
0.00255251
-0.00220984
0.00261194
-0.00253577
0.00268279
-0.0028718
0.00276407
-0.00321911
0.00285516
-0.00357884
0.00295563
-0.00395211
0.0030647
-0.00433984
0.00318084
0.00330501
-0.00474274
-0.000134556
0.00135135
-0.000381962
0.00239071
-0.000665901
0.00269176
-0.000957961
0.00274624
-0.00125312
0.00276845
-0.00155254
0.00280508
-0.00185792
0.00285789
-0.00217076
0.00292478
-0.00249241
0.00300444
-0.00282412
0.00309578
-0.00316706
0.00319809
-0.00352236
0.00331094
-0.00389114
0.00343348
-0.00427432
0.00356402
0.00370322
-0.00467253
-0.000128428
0.00147978
-0.000368586
0.00263086
-0.000646492
0.00296967
-0.00093338
0.00303313
-0.00122364
0.00305871
-0.00151824
0.00309969
-0.00181884
0.00315849
-0.0021269
0.00323284
-0.00244375
0.00332129
-0.00277061
0.00342264
-0.00310864
0.00353612
-0.00345897
0.00366126
-0.0038227
0.00379722
-0.00420078
0.00394209
0.00409615
-0.0045937
-0.000121657
0.00160144
-0.000353755
0.00286296
-0.000624947
0.00324086
-0.000906098
0.00331428
-0.00119094
0.00334355
-0.00148021
0.00338896
-0.00177552
0.00345379
-0.00207828
0.00353561
-0.00238982
0.00363282
-0.00271132
0.00374414
-0.00304391
0.00386872
-0.00338871
0.00400606
-0.00374685
0.00415536
-0.00411926
0.00431451
0.00448322
-0.00450634
-0.000114257
0.00171569
-0.000337482
0.00308619
-0.000601274
0.00350466
-0.000876125
0.00358913
-0.00115503
0.00362246
-0.00143848
0.0036724
-0.00172799
0.0037433
-0.00202497
0.00383258
-0.00233068
0.00393853
-0.0026463
0.00405976
-0.00297292
0.00419534
-0.00331165
0.0043448
-0.00366366
0.00450736
-0.00402987
0.00468071
0.00486388
-0.00441053
-0.000106244
0.00182194
-0.000319781
0.00329972
-0.000575481
0.00376036
-0.000843472
0.00385712
-0.00111595
0.00389494
-0.00139307
0.00394953
-0.0016763
0.00402653
-0.00196699
0.00412327
-0.00226638
0.00423792
-0.00257561
0.00436899
-0.00289574
0.00451546
-0.00322786
0.00467692
-0.00357319
0.00485269
-0.00393267
0.0050402
0.00523761
-0.0043064
-9.76371e-05
0.00191957
-0.000300671
0.00350276
-0.00054758
0.00400726
-0.000808152
0.00411769
-0.0010737
0.00416048
-0.00134402
0.00421985
-0.00162049
0.004303
-0.00190442
0.0044072
-0.002197
0.0045305
-0.00249933
0.00467132
-0.00281245
0.00482858
-0.00313741
0.00500188
-0.0034755
0.00519078
-0.00382777
0.00539247
0.0056039
-0.00419406
-8.84604e-05
0.00200803
-0.000280173
0.00369447
-0.000517583
0.00424467
-0.000770178
0.00437029
-0.00102831
0.00441861
-0.00129137
0.00448291
-0.00156061
0.00457224
-0.00183729
0.00468388
-0.00212258
0.00481579
-0.00241754
0.00496628
-0.00272313
0.00513417
-0.00304036
0.00531911
-0.00337063
0.00552106
-0.00371522
0.00573705
0.00596235
-0.00407367
-7.87415e-05
0.00208678
-0.000258311
0.00387404
-0.000485506
0.00447187
-0.000729568
0.00461435
-0.000979811
0.00466886
-0.00123515
0.00473825
-0.0014967
0.0048338
-0.00176569
0.00495287
-0.00204321
0.00509331
-0.00233032
0.00525339
-0.00262792
0.00543178
-0.00293689
0.00562808
-0.00325872
0.00584289
-0.00359521
0.00607354
0.00631266
-0.00394552
-6.85165e-05
0.00215529
-0.000235115
0.00404064
-0.000451366
0.00468812
-0.000686338
0.00484932
-0.000928228
0.00491075
-0.0011754
0.00498541
-0.00142883
0.00508723
-0.00168967
0.0052137
-0.00195896
0.00536261
-0.00223774
0.00553217
-0.00252685
0.00572089
-0.00282695
0.00592817
-0.00313943
0.00615537
-0.00346724
0.00640135
0.00665508
-0.00380966
-5.78246e-05
0.00221312
-0.000210617
0.00419343
-0.000415186
0.00489269
-0.000640509
0.00507465
-0.00087359
0.00514383
-0.00111217
0.00522399
-0.00135705
0.00533212
-0.00160931
0.00546596
-0.00186995
0.00562324
-0.00213995
0.00580217
-0.00242022
0.00600116
-0.00271122
0.00621917
-0.00301379
0.00645795
-0.00333215
0.00671971
0.00699047
-0.00366754
-4.66577e-05
0.00225978
-0.000184853
0.00433163
-0.00037699
0.00508482
-0.000592105
0.00528976
-0.000815934
0.00536766
-0.00104551
0.00545357
-0.00128143
0.00556804
-0.0015247
0.00570924
-0.00177625
0.00587479
-0.00203699
0.00606291
-0.00230784
0.00627201
-0.00258912
0.00650045
-0.00288019
0.00674902
-0.00318516
0.00702468
0.00732265
-0.00351734
-3.5053e-05
0.00229483
-0.000157869
0.00445444
-0.000336806
0.00526376
-0.000541152
0.00549411
-0.000755295
0.0055818
-0.000975472
0.00567375
-0.00120204
0.00579461
-0.00143593
0.00594312
-0.00167799
0.00611685
-0.00192906
0.00631398
-0.00219012
0.00653307
-0.002462
0.00677233
-0.00274391
0.00703093
-0.00303401
0.00731478
0.00765813
-0.00336949
-2.30471e-05
0.00231788
-0.000129713
0.00456111
-0.000294668
0.00542872
-0.000487686
0.00568713
-0.000691715
0.00578583
-0.000902113
0.00588414
-0.00111896
0.00601145
-0.00134308
0.00616724
-0.00157527
0.00634904
-0.0018163
0.00655501
-0.00206704
0.00678381
-0.00232845
0.00703374
-0.00260095
0.00730342
-0.00288539
0.00759922
0.00793231
-0.00315957
-1.06302e-05
0.00232851
-0.000100427
0.00465091
-0.000250615
0.0055789
-0.000431751
0.00586826
-0.00062524
0.00597932
-0.00082549
0.00608439
-0.00103225
0.00621821
-0.00124624
0.00638124
-0.00146821
0.00657101
-0.00169883
0.00678563
-0.00193883
0.00702381
-0.00218909
0.00728401
-0.0024501
0.00756443
-0.00271991
0.00786902
0.0082122
-0.0029998
2.23858e-06
0.00232627
-7.0008e-05
0.00472315
-0.000204696
0.00571359
-0.000373409
0.00603697
-0.000555918
0.00616183
-0.000745668
0.00627414
-0.000942003
0.00641455
-0.00114553
0.00658476
-0.00135692
0.00678241
-0.0015768
0.00700551
-0.00180578
0.00725279
-0.0020447
0.00752293
-0.00229465
0.00781438
-0.00255592
0.00813029
0.00848046
-0.00282418
1.44758e-05
0.00231179
-3.82525e-05
0.00477588
-0.000157031
0.00583237
-0.000312744
0.00619269
-0.000483802
0.00633289
-0.000662714
0.00645306
-0.000848305
0.00660014
-0.00104103
0.00677749
-0.00124153
0.0069829
-0.00145036
0.00721435
-0.00166812
0.00747054
-0.00189563
0.00775044
-0.00213415
0.0080529
-0.00238389
0.00838003
0.00873794
-0.00264138
2.69794e-05
0.00228481
-3.14348e-06
0.004806
-0.000107906
0.00593713
-0.000249803
0.00633458
-0.000408948
0.00649203
-0.000576702
0.00662081
-0.000751245
0.00677468
-0.000932871
0.00695911
-0.00112215
0.00717218
-0.00131965
0.00741184
-0.00152592
0.0076768
-0.00174177
0.00796629
-0.00196838
0.00827952
-0.00220571
0.00861736
0.00898304
-0.00245081
3.90015e-05
0.00224581
2.62637e-05
0.00481874
-5.8065e-05
0.00602146
-0.000184655
0.00646117
-0.00033145
0.00663883
-0.000487715
0.00677708
-0.000650913
0.00693788
-0.000821148
0.00712935
-0.000998929
0.00734997
-0.00118478
0.0075977
-0.00137925
0.00787127
-0.00158309
0.00817014
-0.0017974
0.00849382
-0.00202217
0.00884213
0.0092156
-0.00225472
5.08375e-05
0.00219497
5.7877e-05
0.0048117
-5.84741e-06
0.00608519
-0.00011746
0.00657279
-0.000251409
0.00677277
-0.000395832
0.0069215
-0.000547404
0.00708945
-0.000705975
0.00728792
-0.000871971
0.00751596
-0.00104588
0.0077716
-0.00122822
0.00805361
-0.00141971
0.00836162
-0.0016213
0.00869542
-0.00183308
0.00905391
0.00943552
-0.002053
6.24655e-05
0.00213251
9.02712e-05
0.0047839
4.65069e-05
0.00612895
-4.84604e-05
0.00666775
-0.000168889
0.0068932
-0.000301141
0.00705375
-0.000440819
0.00722913
-0.000587468
0.00743457
-0.000741409
0.0076699
-0.00090309
0.00793329
-0.001073
0.00822352
-0.00125178
0.0085404
-0.00144026
0.0088839
-0.00163852
0.00925217
0.00964214
-0.00184514
7.3667e-05
0.00205884
0.00012282
0.00473474
0.000100275
0.0061515
2.23904e-05
0.00674564
-8.40462e-05
0.00699964
-0.000203731
0.00717344
-0.000331263
0.00735666
-0.000465748
0.00756906
-0.000607379
0.00781153
-0.000756559
0.00808247
-0.000913735
0.0083807
-0.00107947
0.00870614
-0.00125448
0.00905891
-0.00143881
0.0094365
0.00983475
-0.00163142
8.42347e-05
0.00197461
0.000155193
0.00466379
0.000154837
0.00615185
9.49558e-05
0.00680552
2.13862e-06
0.00709246
-0.000103729
0.0072793
-0.000218868
0.0074718
-0.000340944
0.00769113
-0.000470025
0.00794062
-0.000606446
0.00821889
-0.000750599
0.00852485
-0.000902965
0.00885851
-0.00106416
0.0092201
-0.00123424
0.00960658
0.0100129
-0.00141236
9.39879e-05
0.00188062
0.000187046
0.00457073
0.000209831
0.00612907
0.000169162
0.00684619
9.24234e-05
0.00716919
-2.05339e-06
0.00737378
-0.000103789
0.00757353
-0.000213212
0.00780055
-0.0003295
0.0080569
-0.000452923
0.00834231
-0.000583781
0.00865571
-0.000722456
0.00899718
-0.000869513
0.00936716
-0.00102506
0.00976212
0.0101762
-0.00118834
0.00010275
0.00177787
0.000218001
0.00445548
0.000264911
0.00608216
0.000244504
0.0068666
0.000183831
0.00722987
0.000103939
0.00745367
1.36726e-05
0.0076638
-8.27519e-05
0.00789698
-0.000185985
0.00816014
-0.000296168
0.00845249
-0.000413484
0.00877303
-0.000538176
0.00912187
-0.000670771
0.00949975
-0.000811568
0.00990292
0.0103242
-0.000959637
0.000110345
0.00166752
0.000247648
0.00431817
0.000319644
0.00601016
0.000320683
0.00686556
0.000276979
0.00727357
0.000211215
0.00751944
0.00013459
0.00774043
5.05174e-05
0.00798105
-3.98159e-05
0.00825047
-0.0001364
0.00854908
-0.000239942
0.00887657
-0.000350384
0.00923232
-0.000468172
0.00961754
-0.000594056
0.0100288
0.0104568
-0.000726609
0.000116608
0.00155091
0.000275553
0.00415923
0.000373536
0.00591218
0.000397326
0.00684177
0.000371595
0.0072993
0.000320547
0.00757048
0.000257313
0.00780366
0.000186586
0.00805178
0.000109484
0.00832757
2.60557e-05
0.0086325
-6.34331e-05
0.00896606
-0.000159424
0.00932831
-0.000262063
0.00972018
-0.000372725
0.0101395
0.0105737
-0.000489632
0.000121395
0.00142952
0.000301254
0.00397937
0.000426023
0.00578741
0.000473962
0.00679383
0.000467359
0.00730591
0.000431723
0.00760612
0.000382189
0.00785319
0.000324785
0.00810918
0.000261187
0.00839117
0.000191709
0.00870198
0.000116144
0.00904162
3.43541e-05
0.0094101
-5.32438e-05
0.00980778
-0.000147225
0.0102334
0.0106759
-0.000249478
0.000124591
0.00130493
0.000324269
0.00377969
0.000476462
0.00563522
0.000550021
0.00672027
0.000563876
0.00729205
0.000544471
0.00762553
0.000509043
0.00788862
0.000465124
0.0081531
0.000415098
0.0084412
0.000359499
0.00875758
0.000298339
0.00910278
0.000231611
0.00947683
0.000159287
0.0098801
8.11579e-05
0.0103116
0.0107663
-9.17296e-06
0.000126121
0.00117881
0.000344095
0.00356172
0.000524121
0.00545519
0.000624822
0.00661957
0.000660652
0.00725622
0.000658468
0.00762771
0.000637639
0.00790945
0.000607422
0.00818332
0.000571077
0.00847754
0.000529478
0.00879918
0.00048279
0.00914947
0.000430992
0.00952862
0.000374125
0.00993697
0.000311567
0.0103741
0.0108338
0.000244065
0.000125954
0.00105285
0.000360172
0.0033275
0.000568181
0.00524718
0.00069756
0.00649019
0.000757073
0.00719671
0.000773315
0.00761147
0.000767705
0.00791506
0.000751459
0.00819956
0.00072892
0.00850008
0.000701416
0.00882668
0.000669279
0.00918161
0.000632564
0.00956534
0.000591381
0.00997815
0.000545729
0.0104198
0.010884
0.000495495
0.00012412
0.000928733
0.00037198
0.00307964
0.000607752
0.00501141
0.000767292
0.00633065
0.000852383
0.00711162
0.000888506
0.00757534
0.000898917
0.00790465
0.000896987
0.00820149
0.000888395
0.00850867
0.000875064
0.00884001
0.000857558
0.00919912
0.00083605
0.00958685
0.000810718
0.0100035
0.000781576
0.0104489
0.0109173
0.000748288
0.000120704
0.000808029
0.000379117
0.00282123
0.000641887
0.00474864
0.000832923
0.00613961
0.000945663
0.00699888
0.0010034
0.00751761
0.00103087
0.00787719
0.00104372
0.00818864
0.00104925
0.00850314
0.00105017
0.0088391
0.00104735
0.00920194
0.00104109
0.0095931
0.00103161
0.010013
0.00101879
0.0104618
0.0109337
0.00100241
0.000115843
0.000692186
0.000381271
0.0025558
0.000669597
0.00446031
0.000893201
0.00591601
0.00103579
0.00685629
0.00111719
0.0074362
0.00116304
0.00783134
0.00119132
0.00816036
0.00121122
0.00848324
0.00122646
0.00882386
0.00123835
0.00919005
0.00124735
0.0095841
0.00125372
0.0100066
0.00125724
0.0104582
0.0109334
0.00125751
0.000109722
0.000582465
0.000378264
0.00228725
0.000689882
0.0041487
0.000946722
0.00565917
0.00112143
0.00668158
0.00122887
0.00732876
0.00129476
0.00776545
0.00133935
0.00811577
0.00137398
0.00844861
0.00140367
0.00879417
0.00143029
0.00916342
0.00145454
0.00955986
0.00147674
0.00998439
0.00149674
0.0104382
0.0109164
0.00151376
0.00010256
0.000479905
0.000370097
0.00201972
0.00070179
0.003817
0.000991939
0.00536902
0.00120099
0.00647253
0.00133716
0.00719259
0.0014252
0.00767742
0.0014873
0.00805367
0.00153718
0.00839872
0.00158148
0.00874988
0.00162287
0.00912202
0.00166235
0.00952038
0.00170041
0.00994634
0.001737
0.0104016
0.0108823
0.00177103
9.46052e-05
0.0003853
0.000356974
0.00175735
0.000704491
0.00346949
0.00102721
0.0050463
0.00127263
0.00622711
0.0014405
0.00702471
0.00155322
0.0075647
0.00163444
0.00797245
0.00170037
0.00833279
0.00175956
0.00869069
0.00181579
0.00906579
0.00187051
0.00946566
0.00192439
0.00989246
0.00197764
0.0103484
0.0108312
0.00202878
8.61183e-05
0.000299181
0.000339321
0.00150415
0.000697381
0.00311143
0.00105084
0.00469284
0.00133422
0.00594373
0.00153696
0.00682198
0.00167742
0.00742423
0.00177988
0.00787
0.00186297
0.0082497
0.00193752
0.00861613
0.00200872
0.00899459
0.00207869
0.00939569
0.00214835
0.00982279
0.00221824
0.0102785
0.0107629
0.00228653
7.73534e-05
0.000221828
0.000317773
0.00126373
0.000680204
0.002749
0.00106124
0.0043118
0.00138343
0.00562153
0.00162421
0.00658121
0.00179596
0.00725249
0.00192237
0.00774359
0.00202423
0.00814784
0.00211488
0.00852548
0.00220129
0.00890818
0.00228654
0.00931044
0.00237192
0.00973741
0.0024584
0.010192
0.0106775
0.00254379
6.85438e-05
0.000153284
0.000293141
0.00103913
0.000653163
0.00238897
0.00105699
0.00390798
0.00141776
0.00526077
0.00169951
0.00629945
0.00190651
0.00704549
0.00206028
0.00758982
0.00218312
0.008025
0.002291
0.0084176
0.00239305
0.00880613
0.00249369
0.0092098
0.00259474
0.00963635
0.00269773
0.010089
0.0105751
0.00280016
5.98907e-05
9.33936e-05
0.00026635
0.00083267
0.000617018
0.00203831
0.00103712
0.00348787
0.00143465
0.00486323
0.00175973
0.00597437
0.00200621
0.00679901
0.00219144
0.00740459
0.00233823
0.00787822
0.00246503
0.0082908
0.00258348
0.00868767
0.00269974
0.00909354
0.00281644
0.00951965
0.00293585
0.00996963
0.0104557
0.00305519
5.15598e-05
4.18338e-05
0.00023837
0.00064586
0.000573094
0.00170358
0.00100129
0.00305968
0.00143176
0.00443277
0.00180138
0.00560474
0.00209153
0.00650886
0.00231302
0.0071831
0.00248761
0.00770363
0.00263576
0.00814265
0.00277183
0.00855161
0.00290419
0.00896119
0.0030366
0.00938724
0.00317236
0.00983387
0.0103196
0.00330848
4.36821e-05
-1.8483e-06
0.00021013
0.000479411
0.000523202
0.00139051
0.000950064
0.00263282
0.00140719
0.00397564
0.00182084
0.00519109
0.00215835
0.00617135
0.00242138
0.00692006
0.0026286
0.00749642
0.00280149
0.00796975
0.00295709
0.00839601
0.0031064
0.00881188
0.00325477
0.00923887
0.00340684
0.0096818
0.0101669
0.00355958
3.6359e-05
-3.82073e-05
0.000182452
0.000333319
0.000469472
0.00110349
0.000885055
0.00221723
0.00135994
0.00350076
0.00181459
0.00473644
0.00220196
0.00578398
0.00251198
0.00661005
0.00275759
0.00725081
0.00295978
0.00776756
0.00313777
0.00821802
0.0033055
0.00864414
0.00347036
0.00907401
0.00363884
0.00951332
0.00999767
0.00380805
2.96616e-05
-6.7869e-05
0.000156004
0.000206976
0.000414127
0.000845367
0.00080895
0.00182241
0.0012903
0.00301941
0.00177973
0.00424702
0.00221738
0.00534632
0.00257932
0.00624811
0.00286983
0.00696029
0.00310716
0.00753023
0.00331164
0.00801354
0.00350018
0.00845561
0.00368259
0.0088916
0.00386778
0.00932813
0.00981198
0.00405347
2.36404e-05
-9.15094e-05
0.000131299
9.93171e-05
0.00035925
0.000617417
0.000725287
0.00145637
0.00120026
0.00254444
0.00171456
0.00373272
0.00219974
0.00486114
0.00261711
0.00583074
0.00295928
0.00661812
0.00323883
0.00725069
0.00347544
0.00777693
0.00368842
0.00824263
0.0038903
0.00868972
0.00409296
0.00912548
0.00960975
0.00429519
1.83249e-05
-0.000109834
0.0001087
8.94218e-06
0.000306604
0.000419513
0.000638033
0.00112494
0.00109361
0.00208886
0.00161937
0.00320696
0.00214507
0.00433544
0.00261863
0.00535718
0.00301853
0.00621822
0.00334833
0.00692089
0.00362438
0.00750088
0.00386715
0.00799985
0.00409163
0.00846523
0.00431328
0.00890384
0.0093903
0.00453272
1.37271e-05
-0.000123561
8.84418e-05
-6.57725e-05
0.00025754
0.000250415
0.000551075
0.000831408
0.00097568
0.00166426
0.001497
0.00268563
0.00205129
0.00378115
0.00257748
0.00483099
0.0030391
0.00575661
0.00342731
0.00653267
0.00375169
0.00717651
0.00403163
0.00771992
0.00428374
0.00821312
0.00452695
0.00866062
0.00915254
0.00476472
9.84318e-06
-0.000133405
7.06516e-05
-0.000126581
0.000212986
0.00010808
0.000467762
0.000576632
0.00085266
0.00127936
0.0013531
0.00218519
0.0019194
0.00321485
0.00248889
0.0042615
0.00301214
0.00523336
0.00346561
0.0060792
0.00384816
0.00679395
0.00417484
0.00739324
0.00446176
0.0079262
0.00473151
0.00839088
0.0088943
0.00498975
6.6535e-06
-0.000140058
5.53576e-05
-0.000175285
0.00017348
-1.00424e-05
0.00039063
0.000359482
0.000730649
0.000939339
0.00119559
0.00172025
0.00175432
0.00265612
0.00235133
0.00366449
0.0029299
0.0046548
0.00345188
0.00555722
0.00390193
0.0063439
0.00428674
0.00700843
0.00461866
0.00759427
0.00492134
0.00808821
0.00861013
0.0052055
4.12177e-06
-0.00014418
4.24975e-05
-0.000213661
0.000139221
-0.000106766
0.000321314
0.000177389
0.000614809
0.000645844
0.00103344
0.00130162
0.00156488
0.00212468
0.0021682
0.00306117
0.00278791
0.00403508
0.00337514
0.00497
0.00389908
0.00581996
0.00435356
0.00655395
0.00474324
0.00720459
0.00509095
0.00774049
0.00829784
0.00540324
2.19433e-06
-0.000146374
3.19244e-05
-0.000243391
0.000110122
-0.000184963
0.000260603
2.69078e-05
0.000508847
0.0003976
0.000875133
0.000935338
0.00136265
0.00163716
0.00194855
0.00247526
0.00258751
0.00339612
0.0032276
0.00432991
0.00382497
0.00522259
0.00435894
0.00601998
0.00481937
0.00674416
0.00522557
0.00733429
0.00793476
0.00558866
8.04586e-07
-0.000147179
2.34143e-05
-0.000266
8.58484e-05
-0.000247397
0.000208568
-9.58115e-05
0.000414868
0.000191299
0.000727391
0.000622815
0.00115972
0.00120483
0.00170617
0.00192881
0.00233755
0.00276474
0.00300809
0.00365937
0.00366857
0.00456212
0.00428278
0.00540577
0.00483142
0.00619552
0.00530358
0.00686213
0.00751625
0.00572209
-1.49692e-07
-0.000147029
1.66706e-05
-0.000282821
6.58695e-05
-0.000296596
0.000164704
-0.000194646
0.000333526
2.24773e-05
0.000594485
0.000361856
0.000966516
0.000832797
0.00145689
0.00143844
0.00205389
0.00216774
0.00272498
0.00298828
0.00342636
0.00386074
0.00411038
0.00472174
0.0047483
0.0055576
0.00531995
0.00629048
0.00704204
0.00579415
-8.82552e-07
-0.000146147
1.13466e-05
-0.00029505
4.95124e-05
-0.000334762
0.000128085
-0.000273219
0.000264313
-0.00011375
0.000478238
0.000147931
0.000790222
0.000520813
0.0012153
0.00101336
0.00175622
0.00162682
0.00239642
0.00234808
0.00310637
0.00315079
0.00383687
0.00399124
0.00455236
0.00484211
0.00523762
0.00560522
0.00648342
0.00579624
-1.31488e-06
-0.000144832
7.09177e-06
-0.000303456
3.60246e-05
-0.000363695
9.75172e-05
-0.000334712
0.000205904
-0.000222137
0.00037844
-2.46046e-05
0.000634428
0.000264824
0.000992096
0.000655693
0.00146349
0.00115542
0.00204665
0.00176492
0.00272901
0.00246843
0.00347138
0.00324887
0.00423512
0.00407837
0.00501532
0.00482502
0.00582405
0.00567469
-1.61149e-06
-0.00014322
3.54736e-06
-0.000308615
2.46415e-05
-0.000384789
7.16915e-05
-0.000381762
0.000156498
-0.000306943
0.000293458
-0.000161565
0.000499569
5.8713e-05
0.000793058
0.000362205
0.00119021
0.000758277
0.00169984
0.00125529
0.00232272
0.00184555
0.00303792
0.00253368
0.0038099
0.00330638
0.00464546
0.00398947
0.00506818
0.00540133
-1.9079e-06
-0.000141312
4.29779e-07
-0.000310953
1.46449e-05
-0.000399004
4.93228e-05
-0.00041644
0.000114129
-0.000371749
0.00022087
-0.000268306
0.000383848
-0.000104265
0.000619499
0.000126553
0.000944714
0.000433063
0.00137446
0.000825539
0.00191664
0.00130337
0.00257059
0.00187973
0.00330907
0.0025679
0.00414458
0.00315396
0.00424098
0.00497178
-2.29203e-06
-0.00013902
-2.73051e-06
-0.000310515
5.40121e-06
-0.000407136
2.92629e-05
-0.000440302
7.69188e-05
-0.000419405
0.000158007
-0.000349394
0.000284245
-0.000230503
0.000469572
-5.87731e-05
0.000729501
0.000173134
0.00108078
0.000474262
0.00153399
0.000850162
0.00210387
0.00130985
0.002774
0.00189777
0.00355477
0.00237319
0.00338908
0.00440667
-2.81324e-06
-0.000136207
-5.97587e-06
-0.000307352
-3.56977e-06
-0.000409542
1.05769e-05
-0.000454448
4.3257e-05
-0.000452085
0.000102367
-0.000408504
0.000197391
-0.000325528
0.000339728
-0.000201111
0.000542695
-2.98337e-05
0.000821756
0.000195201
0.00118848
0.000483438
0.00166375
0.000834582
0.00224341
0.00131811
0.00293017
0.00168643
0.0025704
0.00374885
-3.50832e-06
-0.000132699
-9.48223e-06
-0.000301378
-1.26064e-05
-0.000406418
-7.41702e-06
-0.000459638
1.19022e-05
-0.000471404
5.18829e-05
-0.000448484
0.000120182
-0.000393826
0.000225948
-0.000306877
0.000380123
-0.000184009
0.000595527
-2.02023e-05
0.000884127
0.000194838
0.00126449
0.000454215
0.00174545
0.000837156
0.0023187
0.00111318
0.00183725
0.00305184
-4.39289e-06
-0.000128306
-1.3328e-05
-0.000292443
-2.18943e-05
-0.000397851
-2.51408e-05
-0.000456391
-1.7984e-05
-0.000478561
5.04174e-06
-0.00047151
5.01416e-05
-0.000438926
0.00012459
-0.000381325
0.000237113
-0.000296531
0.000397779
-0.000180869
0.000618106
-2.54891e-05
0.000910683
0.000161638
0.00129489
0.000452947
0.00175151
0.000656565
0.00122149
0.00236727
-5.46076e-06
-0.000122845
-1.75174e-05
-0.000280386
-3.14876e-05
-0.000383881
-4.27746e-05
-0.000445104
-4.68557e-05
-0.00047448
-3.90938e-05
-0.000479272
-1.44439e-05
-0.000463576
3.28593e-05
-0.000428629
0.000109638
-0.00037331
0.000223617
-0.000294848
0.000384885
-0.000186757
0.000600776
-5.42528e-05
0.000895494
0.000158229
0.00124353
0.000308524
0.000730963
0.00173406
-6.68668e-06
-0.000116158
-2.19955e-05
-0.000265077
-4.13204e-05
-0.000364556
-6.02979e-05
-0.000426127
-7.48377e-05
-0.00045994
-8.0962e-05
-0.000473148
-7.45468e-05
-0.000469991
-5.10556e-05
-0.00045212
-5.30357e-06
-0.000419062
6.89111e-05
-0.000369063
0.00017921
-0.000297056
0.000330392
-0.000205434
0.000545034
-5.64143e-05
0.000799202
5.43565e-05
0.000356851
0.00117332
-8.02999e-06
-0.000108128
-2.66599e-05
-0.000246448
-5.12345e-05
-0.000339982
-7.75307e-05
-0.00039983
-0.000101796
-0.000435675
-0.000120586
-0.000454358
-0.000130522
-0.000460055
-0.000128035
-0.000454606
-0.000109113
-0.000437984
-6.94616e-05
-0.000408714
-4.11198e-06
-0.000362406
9.53665e-05
-0.000304913
0.000239455
-0.000200503
0.000417317
-0.000123505
8.43174e-05
0.00068985
-9.43871e-06
-9.86897e-05
-3.13749e-05
-0.000224511
-6.10062e-05
-0.00031035
-9.41807e-05
-0.000366656
-0.000127413
-0.000402443
-0.000157696
-0.000424074
-0.000182258
-0.000435494
-0.000198308
-0.000438556
-0.00020284
-0.000433453
-0.000192545
-0.000419009
-0.000162356
-0.000392595
-0.000110815
-0.000356453
-2.63333e-05
-0.000284985
9.49068e-05
-0.000244745
-9.82785e-05
0.000277503
-1.08538e-05
-8.78359e-05
-3.59839e-05
-0.000199381
-7.03725e-05
-0.000275962
-0.000109889
-0.00032714
-0.000151259
-0.000361073
-0.000191838
-0.000383495
-0.000229347
-0.000397985
-0.000261617
-0.000406285
-0.00028639
-0.000408681
-0.000301109
-0.000404289
-0.000302259
-0.000391445
-0.000288518
-0.000370195
-0.000245819
-0.000327684
-0.000185211
-0.000305353
-0.000211504
-7.19859e-05
-1.22134e-05
-7.56224e-05
-4.03223e-05
-0.000171272
-7.90546e-05
-0.000237229
-0.000124266
-0.000281928
-0.000172852
-0.000312487
-0.000222464
-0.000333883
-0.000271221
-0.000349228
-0.000317443
-0.000360063
-0.000359429
-0.000366694
-0.000395233
-0.000368486
-0.000422328
-0.00036435
-0.000438792
-0.00035373
-0.000434924
-0.000331553
-0.000419811
-0.000320466
-0.000272272
-0.000359042
-1.34567e-05
-6.21657e-05
-4.42284e-05
-0.000140501
-8.67787e-05
-0.000194679
-0.000136931
-0.000231776
-0.00019171
-0.000257708
-0.00024901
-0.000276584
-0.000307263
-0.000290975
-0.000365164
-0.000302163
-0.000421429
-0.000310429
-0.000474573
-0.000315342
-0.000522709
-0.000316214
-0.00056384
-0.000312599
-0.000592096
-0.000303297
-0.000612471
-0.000300091
-0.000282225
-0.000602519
-1.45272e-05
-4.76385e-05
-4.75528e-05
-0.000107475
-9.32928e-05
-0.000148939
-0.000147529
-0.00017754
-0.000207387
-0.000197849
-0.000270947
-0.000213024
-0.000336883
-0.000225038
-0.00040417
-0.000234876
-0.000471829
-0.00024277
-0.000538722
-0.000248449
-0.000603425
-0.00025151
-0.000664245
-0.00025178
-0.000717937
-0.000249605
-0.000766936
-0.000251092
-0.000249652
-0.000799509
-1.53762e-05
-3.22623e-05
-5.0167e-05
-7.26844e-05
-9.83803e-05
-0.000100726
-0.000155758
-0.000120162
-0.0002195
-0.000134107
-0.00028782
-0.000144704
-0.000359572
-0.000153286
-0.000433925
-0.000160522
-0.000510119
-0.000166576
-0.000587273
-0.000171295
-0.000664313
-0.000174471
-0.000739981
-0.000176111
-0.000812687
-0.000176899
-0.000883804
-0.000179976
-0.000184526
-0.00094893
-1.59648e-05
-1.62975e-05
-5.19688e-05
-3.66804e-05
-0.000101871
-5.08241e-05
-0.000161382
-6.06515e-05
-0.000227747
-6.77416e-05
-0.000299273
-7.31781e-05
-0.000374926
-7.76334e-05
-0.000454005
-8.14439e-05
-0.000535887
-8.46939e-05
-0.000619867
-8.73147e-05
-0.000705115
-8.92227e-05
-0.000790762
-9.04643e-05
-0.000876171
-9.149e-05
-0.000962482
-9.36647e-05
-9.74923e-05
-0.00104952
-1.62661e-05
-5.28879e-05
-0.000103646
-0.000164235
-0.000231923
-0.000305062
-0.000382673
-0.000464117
-0.000548844
-0.000636233
-0.000725586
-0.000816251
-0.000908031
-0.00100209
-0.00110011
-0.00515154
0.000162429
-0.00525624
0.0001047
-0.00534443
8.81915e-05
-0.005399
5.45769e-05
-0.00544513
4.61254e-05
-0.00547048
2.53578e-05
-0.00549126
2.07794e-05
-0.00549866
7.39759e-06
-0.00550341
4.75205e-06
-0.00549921
-4.19472e-06
-0.00549317
-6.04072e-06
-0.00548085
-1.23234e-05
-0.00546718
-1.36628e-05
-0.00544916
-1.80165e-05
-0.00543003
-1.91373e-05
-0.00540775
-2.22779e-05
-0.00538444
-2.33104e-05
-0.00535874
-2.56985e-05
-0.005332
-2.67311e-05
-2.87026e-05
-0.00514312
0.000325237
-0.00524809
0.000209666
-0.00533673
0.000176828
-0.00539167
0.000109519
-0.00543827
9.27239e-05
-0.00546405
5.11378e-05
-0.0054853
4.20312e-05
-0.00549314
1.52409e-05
-0.00549835
9.95468e-06
-0.00549461
-7.92604e-06
-0.00548904
-1.16147e-05
-0.00547718
-2.41832e-05
-0.00546397
-2.68682e-05
-0.00544642
-3.55696e-05
-0.00542774
-3.78194e-05
-0.00540592
-4.40951e-05
-0.00538307
-4.61667e-05
-0.00535783
-5.09389e-05
-0.00533155
-5.30091e-05
-5.69496e-05
-0.00512628
0.000488804
-0.00523181
0.0003152
-0.00532132
0.000266341
-0.00537701
0.000165206
-0.00542455
0.000140265
-0.00545119
7.77701e-05
-0.00547338
6.42263e-05
-0.00548212
2.39808e-05
-0.00548823
1.60599e-05
-0.00548542
-1.07284e-05
-0.00548078
-1.62555e-05
-0.00546985
-3.51125e-05
-0.00545756
-3.91574e-05
-0.00544094
-5.21932e-05
-0.00542317
-5.55892e-05
-0.00540228
-6.49885e-05
-0.00538033
-6.81131e-05
-0.00535601
-7.52618e-05
-0.00533064
-7.83803e-05
-8.42856e-05
-0.00510098
0.000653491
-0.00520741
0.000421628
-0.00529822
0.00035715
-0.00535505
0.000222037
-0.00540399
0.000189206