/*--------------------------------*- C++ -*----------------------------------*\
  =========                 |
  \\      /  F ield         | OpenFOAM: The Open Source CFD Toolbox
   \\    /   O peration     | Website:  https://openfoam.org
    \\  /    A nd           | Version:  7
     \\/     M anipulation  |
\*---------------------------------------------------------------------------*/
FoamFile
{
    version     2.0;
    format      ascii;
    class       volScalarField;
    location    "40";
    object      p;
}
// * * * * * * * * * * * * * * * * * * * * * * * * * * * * * * * * * * * * * //

dimensions      [0 2 -2 0 0 0 0];

internalField   nonuniform List<scalar> 
49200
(
-0.200664
-0.202527
-0.20339
-0.20413
-0.204752
-0.205299
-0.205811
-0.206301
-0.206778
-0.207238
-0.207678
-0.208089
-0.208464
-0.208793
-0.209069
-0.209284
-0.20943
-0.209503
-0.209498
-0.209418
-0.209265
-0.20905
-0.208786
-0.208486
-0.208191
-0.200774
-0.202623
-0.20348
-0.204215
-0.204833
-0.205377
-0.205885
-0.206374
-0.206849
-0.207308
-0.207746
-0.208157
-0.208531
-0.208861
-0.209137
-0.209351
-0.209498
-0.20957
-0.209564
-0.209481
-0.209324
-0.209103
-0.208832
-0.20852
-0.208216
-0.200988
-0.20281
-0.203654
-0.204379
-0.204989
-0.205526
-0.206029
-0.206513
-0.206984
-0.207439
-0.207875
-0.208284
-0.208657
-0.208986
-0.209261
-0.209475
-0.20962
-0.209689
-0.20968
-0.20959
-0.209423
-0.20919
-0.208904
-0.208567
-0.208244
-0.201303
-0.203085
-0.203912
-0.204622
-0.205219
-0.205746
-0.20624
-0.206716
-0.20718
-0.207631
-0.208063
-0.208468
-0.208838
-0.209165
-0.209439
-0.209651
-0.209793
-0.209859
-0.209843
-0.209743
-0.209561
-0.209307
-0.208998
-0.208624
-0.208268
-0.201716
-0.203445
-0.204249
-0.204939
-0.205519
-0.206032
-0.206514
-0.20698
-0.207436
-0.207879
-0.208304
-0.208705
-0.209071
-0.209395
-0.209666
-0.209875
-0.210014
-0.210075
-0.21005
-0.209936
-0.209733
-0.209453
-0.209112
-0.208686
-0.208282
-0.202222
-0.203887
-0.204662
-0.205327
-0.205887
-0.206382
-0.206848
-0.207301
-0.207745
-0.208178
-0.208596
-0.208989
-0.20935
-0.209669
-0.209937
-0.210142
-0.210277
-0.210331
-0.210296
-0.210165
-0.209938
-0.209623
-0.209242
-0.208751
-0.208276
-0.202816
-0.204407
-0.205148
-0.205783
-0.206317
-0.20679
-0.207238
-0.207674
-0.208103
-0.208524
-0.20893
-0.209315
-0.209669
-0.209982
-0.210244
-0.210445
-0.210574
-0.210621
-0.210573
-0.210424
-0.210168
-0.209813
-0.209383
-0.208815
-0.20824
-0.203491
-0.204998
-0.2057
-0.206301
-0.206805
-0.207253
-0.207677
-0.208092
-0.208504
-0.208909
-0.209302
-0.209675
-0.21002
-0.210325
-0.210581
-0.210776
-0.210898
-0.210936
-0.210876
-0.210706
-0.210418
-0.210017
-0.209531
-0.208874
-0.208158
-0.204241
-0.205657
-0.206315
-0.206877
-0.207347
-0.207763
-0.20816
-0.208551
-0.20894
-0.209326
-0.209702
-0.210062
-0.210394
-0.210689
-0.210937
-0.211124
-0.211239
-0.211267
-0.211193
-0.211003
-0.210681
-0.210229
-0.20968
-0.208931
-0.208007
-0.205058
-0.206376
-0.206987
-0.207505
-0.207935
-0.208316
-0.208681
-0.209042
-0.209405
-0.209768
-0.210124
-0.210466
-0.210783
-0.211066
-0.211303
-0.211481
-0.211587
-0.211604
-0.211516
-0.211304
-0.210948
-0.210441
-0.209824
-0.208987
-0.207723
-0.205935
-0.207151
-0.20771
-0.208179
-0.208565
-0.208906
-0.209233
-0.20956
-0.209892
-0.210226
-0.210558
-0.210878
-0.211177
-0.211444
-0.211668
-0.211834
-0.211929
-0.211935
-0.211832
-0.211599
-0.211209
-0.210646
-0.209958
-0.209049
-0.207236
-0.206865
-0.207975
-0.208479
-0.208895
-0.209231
-0.209525
-0.209809
-0.210096
-0.210392
-0.210693
-0.210996
-0.21129
-0.211566
-0.211814
-0.212021
-0.212173
-0.212254
-0.212247
-0.212128
-0.211874
-0.211451
-0.210835
-0.21006
-0.209052
-0.207014
-0.207841
-0.208844
-0.209289
-0.209646
-0.209928
-0.21017
-0.210404
-0.210645
-0.210898
-0.211161
-0.211428
-0.211692
-0.211941
-0.212165
-0.212351
-0.212485
-0.21255
-0.212527
-0.212391
-0.212114
-0.211661
-0.210994
-0.210131
-0.209016
-0.206624
-0.208856
-0.209751
-0.210134
-0.210429
-0.21065
-0.210833
-0.211011
-0.211199
-0.211403
-0.211621
-0.211848
-0.212075
-0.212292
-0.212487
-0.212648
-0.21276
-0.212804
-0.212762
-0.212606
-0.212306
-0.211821
-0.211108
-0.210149
-0.208984
-0.206059
-0.209905
-0.210694
-0.211012
-0.211239
-0.211393
-0.211511
-0.211626
-0.211753
-0.211901
-0.212067
-0.212247
-0.212431
-0.21261
-0.212771
-0.212902
-0.212986
-0.213006
-0.21294
-0.21276
-0.212433
-0.211914
-0.211162
-0.21009
-0.208948
-0.205345
-0.210984
-0.211668
-0.211918
-0.212073
-0.212153
-0.212198
-0.212242
-0.212302
-0.212385
-0.212493
-0.212618
-0.212754
-0.212888
-0.21301
-0.213104
-0.213156
-0.213146
-0.21305
-0.21284
-0.212482
-0.211922
-0.211136
-0.209924
-0.208892
-0.204488
-0.212088
-0.212671
-0.212851
-0.212928
-0.212928
-0.212892
-0.212857
-0.21284
-0.212852
-0.212893
-0.212957
-0.213037
-0.213121
-0.213196
-0.213249
-0.213262
-0.213215
-0.213084
-0.212838
-0.212442
-0.21183
-0.211019
-0.209622
-0.208797
-0.203494
-0.213217
-0.213702
-0.213808
-0.213802
-0.213715
-0.213591
-0.213467
-0.213366
-0.213298
-0.213264
-0.213259
-0.213276
-0.213303
-0.213326
-0.213331
-0.213299
-0.213209
-0.213035
-0.212745
-0.212304
-0.211625
-0.210798
-0.209162
-0.208634
-0.202381
-0.214369
-0.214761
-0.214789
-0.214695
-0.214513
-0.214292
-0.214072
-0.213877
-0.21372
-0.213603
-0.213523
-0.21347
-0.213433
-0.213397
-0.213348
-0.213264
-0.213125
-0.212901
-0.212557
-0.212063
-0.211298
-0.210465
-0.208531
-0.208362
-0.201184
-0.215546
-0.215848
-0.215796
-0.215608
-0.215323
-0.214996
-0.21467
-0.214373
-0.214119
-0.213912
-0.213747
-0.213617
-0.21351
-0.21341
-0.2133
-0.213159
-0.212962
-0.21268
-0.212272
-0.211716
-0.210843
-0.210007
-0.207731
-0.20793
-0.199947
-0.216751
-0.216966
-0.216831
-0.216541
-0.216146
-0.215704
-0.215264
-0.214856
-0.214496
-0.21419
-0.213935
-0.213722
-0.213538
-0.213367
-0.21319
-0.212985
-0.212723
-0.212374
-0.211889
-0.21126
-0.210257
-0.209411
-0.206777
-0.20728
-0.198709
-0.217989
-0.21812
-0.217896
-0.217498
-0.216984
-0.216419
-0.215855
-0.215327
-0.214854
-0.214442
-0.214089
-0.213786
-0.21352
-0.213273
-0.213023
-0.212746
-0.212411
-0.211984
-0.211409
-0.210691
-0.20954
-0.208653
-0.205689
-0.206353
-0.197491
-0.219267
-0.219315
-0.218997
-0.218484
-0.217842
-0.217145
-0.216449
-0.215793
-0.215198
-0.214673
-0.214216
-0.213818
-0.213463
-0.213133
-0.212804
-0.212447
-0.212028
-0.21151
-0.210829
-0.21
-0.208688
-0.207708
-0.20448
-0.205108
-0.196279
-0.220592
-0.220558
-0.22014
-0.219503
-0.218726
-0.217887
-0.21705
-0.216258
-0.215535
-0.214891
-0.214324
-0.213825
-0.213376
-0.212957
-0.212541
-0.212094
-0.211578
-0.210951
-0.210144
-0.209176
-0.207694
-0.206548
-0.203149
-0.203526
-0.195024
-0.221976
-0.221856
-0.221331
-0.220563
-0.219641
-0.218652
-0.217667
-0.216731
-0.215873
-0.215104
-0.214422
-0.213816
-0.213268
-0.212753
-0.212239
-0.21169
-0.211061
-0.210304
-0.209347
-0.208204
-0.206542
-0.205154
-0.201676
-0.201618
-0.193661
-0.223431
-0.223219
-0.222581
-0.221672
-0.220596
-0.219449
-0.218307
-0.217222
-0.216223
-0.215323
-0.214521
-0.213803
-0.213149
-0.212529
-0.211906
-0.211238
-0.210474
-0.20956
-0.208425
-0.207067
-0.205212
-0.20351
-0.200024
-0.199407
-0.192122
-0.224969
-0.224658
-0.223897
-0.222838
-0.221599
-0.220286
-0.218981
-0.21774
-0.216595
-0.21556
-0.214632
-0.213796
-0.213028
-0.212291
-0.211544
-0.210736
-0.209811
-0.208708
-0.20736
-0.205748
-0.203678
-0.201609
-0.198153
-0.196911
-0.190333
-0.226606
-0.226185
-0.225291
-0.224072
-0.222661
-0.221174
-0.219699
-0.218296
-0.217001
-0.215826
-0.214768
-0.213807
-0.212914
-0.212047
-0.211155
-0.210181
-0.209062
-0.207734
-0.206135
-0.20423
-0.201916
-0.199447
-0.196025
-0.194105
-0.188211
-0.228356
-0.227811
-0.226774
-0.225385
-0.223793
-0.222124
-0.220474
-0.218905
-0.217454
-0.216135
-0.21494
-0.213845
-0.212814
-0.211796
-0.210735
-0.209563
-0.208213
-0.206621
-0.204732
-0.202505
-0.199913
-0.197037
-0.193617
-0.190926
-0.185748
-0.230239
-0.22955
-0.228358
-0.226787
-0.225005
-0.223148
-0.221316
-0.219577
-0.217967
-0.216498
-0.215158
-0.213917
-0.21273
-0.211539
-0.210277
-0.20887
-0.207251
-0.205354
-0.203139
-0.200567
-0.197667
-0.194412
-0.190928
-0.187391
-0.183181
-0.232267
-0.231416
-0.230056
-0.228291
-0.226311
-0.224259
-0.222241
-0.220326
-0.218553
-0.216927
-0.215432
-0.214029
-0.212665
-0.21127
-0.209771
-0.208089
-0.206158
-0.20392
-0.20135
-0.19842
-0.195191
-0.191606
-0.187964
-0.183835
-0.180645
-0.234459
-0.233422
-0.23188
-0.22991
-0.227722
-0.225468
-0.223259
-0.221165
-0.219222
-0.217431
-0.215767
-0.214183
-0.212614
-0.210981
-0.209203
-0.207205
-0.204923
-0.202313
-0.199366
-0.196074
-0.192513
-0.18864
-0.184739
-0.180428
-0.176848
-0.236832
-0.235582
-0.233842
-0.231656
-0.22925
-0.226788
-0.224383
-0.222105
-0.219985
-0.218018
-0.216168
-0.214377
-0.212569
-0.210658
-0.20856
-0.206202
-0.203535
-0.20053
-0.197197
-0.193546
-0.189667
-0.185524
-0.18139
-0.176882
-0.172956
-0.239402
-0.23791
-0.235957
-0.233541
-0.230909
-0.228233
-0.225627
-0.223158
-0.220852
-0.218693
-0.216635
-0.214606
-0.212521
-0.210287
-0.207825
-0.20507
-0.201989
-0.198575
-0.194856
-0.190859
-0.186681
-0.182296
-0.177948
-0.173286
-0.16914
-0.242184
-0.240419
-0.238237
-0.235578
-0.232712
-0.229814
-0.227001
-0.224334
-0.221829
-0.219459
-0.217165
-0.214861
-0.212454
-0.209853
-0.206983
-0.203799
-0.200286
-0.196458
-0.192361
-0.188038
-0.183585
-0.178983
-0.174453
-0.169667
-0.165363
-0.245194
-0.243121
-0.240694
-0.23778
-0.234669
-0.231545
-0.228517
-0.225641
-0.222921
-0.220316
-0.21775
-0.215128
-0.212353
-0.209338
-0.206024
-0.202384
-0.198428
-0.194191
-0.189733
-0.185107
-0.180404
-0.17561
-0.170923
-0.166033
-0.161637
-0.248444
-0.246029
-0.243341
-0.240159
-0.236795
-0.233435
-0.230184
-0.227087
-0.22413
-0.221258
-0.218379
-0.215393
-0.2122
-0.208728
-0.204937
-0.200825
-0.196425
-0.19179
-0.186991
-0.182084
-0.177156
-0.172192
-0.167369
-0.162394
-0.157927
-0.251947
-0.249155
-0.246188
-0.242726
-0.2391
-0.235497
-0.232012
-0.228675
-0.225455
-0.222277
-0.219039
-0.215636
-0.211977
-0.208008
-0.203715
-0.199123
-0.194284
-0.189268
-0.18415
-0.178987
-0.173854
-0.168738
-0.163795
-0.158745
-0.154221
-0.255714
-0.252509
-0.249249
-0.245494
-0.241597
-0.237741
-0.234007
-0.230407
-0.226889
-0.22336
-0.219711
-0.215837
-0.211666
-0.207167
-0.202356
-0.197282
-0.192018
-0.18664
-0.181225
-0.175826
-0.170507
-0.165254
-0.1602
-0.155083
-0.150506
-0.259755
-0.256101
-0.252532
-0.248473
-0.244296
-0.240175
-0.236174
-0.23228
-0.228423
-0.224492
-0.220374
-0.215976
-0.211249
-0.206195
-0.200857
-0.195309
-0.189635
-0.183917
-0.178225
-0.172609
-0.167118
-0.161738
-0.156581
-0.151402
-0.146772
-0.264077
-0.25994
-0.256047
-0.251674
-0.247205
-0.242805
-0.238512
-0.23429
-0.230043
-0.225651
-0.221004
-0.21603
-0.210712
-0.205084
-0.199219
-0.193208
-0.187143
-0.181105
-0.175156
-0.169337
-0.163687
-0.158188
-0.152933
-0.147697
-0.143011
-0.268686
-0.264031
-0.259803
-0.255106
-0.250334
-0.245636
-0.24102
-0.236423
-0.231729
-0.226812
-0.221577
-0.21598
-0.210042
-0.203831
-0.197444
-0.190985
-0.184549
-0.17821
-0.17202
-0.166012
-0.160212
-0.154601
-0.149251
-0.143959
-0.139216
-0.273585
-0.26838
-0.263807
-0.258774
-0.253686
-0.248666
-0.24369
-0.238665
-0.233458
-0.22795
-0.222067
-0.215806
-0.209227
-0.20243
-0.195532
-0.188644
-0.181856
-0.175233
-0.168817
-0.162631
-0.156688
-0.150969
-0.145529
-0.140184
-0.135383
-0.278773
-0.27299
-0.268062
-0.262685
-0.257263
-0.251892
-0.246509
-0.240992
-0.235203
-0.229033
-0.222449
-0.21549
-0.208257
-0.200879
-0.193485
-0.186186
-0.179064
-0.172173
-0.165543
-0.159187
-0.153108
-0.147287
-0.141759
-0.136364
-0.131504
-0.284249
-0.277861
-0.272571
-0.266839
-0.261063
-0.255304
-0.249457
-0.243379
-0.236929
-0.230032
-0.222698
-0.215015
-0.207124
-0.199175
-0.191302
-0.18361
-0.176171
-0.169026
-0.162194
-0.155676
-0.149467
-0.143547
-0.137935
-0.132493
-0.127574
-0.290005
-0.28299
-0.277332
-0.271233
-0.265078
-0.258885
-0.25251
-0.24579
-0.238604
-0.230915
-0.22279
-0.214367
-0.20582
-0.197313
-0.188979
-0.180914
-0.173174
-0.165788
-0.158762
-0.152089
-0.145757
-0.139742
-0.13405
-0.128565
-0.123587
-0.29603
-0.28837
-0.282339
-0.275861
-0.269295
-0.262614
-0.255634
-0.24819
-0.240188
-0.23165
-0.222703
-0.213532
-0.204337
-0.195289
-0.186513
-0.178092
-0.170066
-0.16245
-0.15524
-0.14842
-0.141969
-0.135864
-0.130097
-0.124572
-0.119538
-0.302309
-0.29399
-0.287584
-0.280708
-0.273693
-0.26646
-0.258793
-0.250536
-0.241645
-0.232208
-0.222416
-0.212497
-0.202668
-0.193097
-0.183899
-0.175138
-0.16684
-0.159005
-0.151619
-0.144658
-0.138096
-0.131907
-0.126069
-0.12051
-0.115422
-0.308821
-0.299833
-0.293049
-0.285757
-0.278245
-0.270386
-0.261941
-0.252783
-0.242934
-0.232558
-0.221909
-0.211248
-0.200802
-0.190729
-0.181128
-0.172044
-0.163487
-0.155444
-0.147891
-0.140797
-0.13413
-0.127861
-0.12196
-0.116371
-0.111233
-0.315538
-0.305879
-0.298713
-0.290979
-0.282915
-0.274347
-0.26503
-0.254885
-0.244017
-0.232673
-0.221163
-0.209774
-0.19873
-0.188177
-0.178192
-0.168801
-0.159997
-0.151756
-0.144045
-0.136826
-0.130062
-0.12372
-0.117763
-0.112149
-0.106967
-0.322426
-0.312099
-0.304549
-0.296342
-0.287662
-0.278294
-0.268006
-0.256793
-0.244856
-0.232526
-0.22016
-0.208061
-0.196443
-0.185431
-0.17508
-0.165397
-0.15636
-0.147933
-0.140073
-0.132738
-0.125884
-0.119477
-0.113471
-0.107839
-0.102617
-0.329448
-0.318459
-0.31052
-0.301803
-0.292433
-0.282168
-0.270814
-0.25846
-0.245415
-0.232091
-0.218882
-0.206095
-0.193927
-0.182479
-0.171781
-0.161823
-0.152565
-0.143963
-0.135965
-0.128523
-0.121589
-0.115124
-0.109078
-0.103435
-0.0981792
-0.336555
-0.324919
-0.316583
-0.307313
-0.297171
-0.285908
-0.273394
-0.259837
-0.245658
-0.231342
-0.21731
-0.203862
-0.19117
-0.179308
-0.168284
-0.158065
-0.148602
-0.139836
-0.131712
-0.124173
-0.117169
-0.110656
-0.104579
-0.0989304
-0.0936492
-0.343694
-0.33143
-0.322688
-0.312813
-0.30181
-0.289448
-0.275689
-0.260878
-0.245552
-0.230257
-0.215428
-0.201347
-0.188158
-0.175906
-0.164575
-0.154113
-0.144458
-0.135543
-0.127304
-0.11968
-0.112617
-0.106064
-0.0999675
-0.094321
-0.0890225
-0.350806
-0.337939
-0.328777
-0.318238
-0.306281
-0.292718
-0.277639
-0.261539
-0.245065
-0.228813
-0.213217
-0.198535
-0.184877
-0.17226
-0.160641
-0.149955
-0.140124
-0.131074
-0.122733
-0.115037
-0.107925
-0.101344
-0.0952378
-0.0896015
-0.0842952
-0.357823
-0.344382
-0.334783
-0.323516
-0.310507
-0.295649
-0.279186
-0.261775
-0.244165
-0.226985
-0.210659
-0.195409
-0.181313
-0.168355
-0.156471
-0.145578
-0.135588
-0.126418
-0.11799
-0.110234
-0.103087
-0.0964887
-0.0903849
-0.0847672
-0.0794636
-0.364672
-0.350693
-0.340634
-0.328568
-0.31441
-0.29817
-0.280276
-0.261548
-0.242824
-0.224753
-0.207735
-0.191954
-0.177451
-0.164178
-0.152051
-0.140971
-0.130841
-0.121567
-0.113067
-0.105266
-0.0980957
-0.0914934
-0.0854041
-0.0798139
-0.0745246
-0.371275
-0.356795
-0.34625
-0.33331
-0.317909
-0.300212
-0.280854
-0.260817
-0.241014
-0.222095
-0.204428
-0.188154
-0.173274
-0.159715
-0.147369
-0.136124
-0.125871
-0.116512
-0.107957
-0.100125
-0.0929464
-0.0863528
-0.0802908
-0.0747377
-0.0694756
-0.377547
-0.362608
-0.351548
-0.337657
-0.320922
-0.301707
-0.280871
-0.259548
-0.238707
-0.21899
-0.200719
-0.183991
-0.16877
-0.154952
-0.142412
-0.131025
-0.120671
-0.111245
-0.102652
-0.0948058
-0.087633
-0.0810621
-0.075041
-0.0695351
-0.0643143
-0.3834
-0.368047
-0.356437
-0.341518
-0.323369
-0.30259
-0.280277
-0.257704
-0.23588
-0.215417
-0.196591
-0.179451
-0.163923
-0.149877
-0.137171
-0.125664
-0.115231
-0.105758
-0.0971449
-0.0893019
-0.0821507
-0.0756171
-0.0696505
-0.0642028
-0.0590384
-0.388744
-0.373023
-0.360825
-0.344802
-0.32517
-0.302801
-0.27903
-0.255256
-0.232507
-0.211356
-0.192027
-0.174518
-0.15872
-0.144478
-0.131633
-0.120033
-0.109544
-0.100045
-0.0914309
-0.0836084
-0.076495
-0.070014
-0.0641159
-0.0587376
-0.0536457
-0.393483
-0.377444
-0.364619
-0.347419
-0.326249
-0.302282
-0.277089
-0.252174
-0.228566
-0.20679
-0.18701
-0.169178
-0.153148
-0.138744
-0.125789
-0.114123
-0.103602
-0.0940993
-0.0855045
-0.0777208
-0.070662
-0.0642494
-0.058434
-0.0531371
-0.0481351
-0.397524
-0.381214
-0.367722
-0.349282
-0.326535
-0.300979
-0.274415
-0.248432
-0.224037
-0.201701
-0.181525
-0.163416
-0.147195
-0.132664
-0.119632
-0.107927
-0.0973992
-0.0879156
-0.0793611
-0.0716352
-0.0646485
-0.0583204
-0.0526027
-0.0474015
-0.0425094
-0.40077
-0.38424
-0.37004
-0.350306
-0.32596
-0.298845
-0.270977
-0.244004
-0.218901
-0.196072
-0.175558
-0.157221
-0.140851
-0.126229
-0.113152
-0.101438
-0.0909303
-0.0814898
-0.0729971
-0.0653484
-0.0584512
-0.0522235
-0.0466197
-0.0415335
-0.0367742
-0.403129
-0.386429
-0.371483
-0.35041
-0.324463
-0.295838
-0.266745
-0.23887
-0.21314
-0.189889
-0.169097
-0.150582
-0.134106
-0.119432
-0.106344
-0.0946519
-0.0841911
-0.0748184
-0.0664098
-0.0588581
-0.0520671
-0.0459545
-0.0404802
-0.0355304
-0.0309239
-0.40451
-0.387687
-0.37196
-0.34952
-0.321989
-0.291919
-0.261692
-0.23301
-0.20674
-0.183139
-0.162131
-0.143489
-0.126952
-0.112266
-0.0992022
-0.0875637
-0.0771787
-0.0678994
-0.0595977
-0.052163
-0.0454952
-0.0395115
-0.0341782
-0.0293696
-0.024906
-0.404823
-0.387927
-0.37139
-0.347567
-0.31849
-0.287056
-0.255798
-0.22641
-0.199687
-0.175812
-0.154649
-0.135935
-0.119384
-0.104726
-0.0917235
-0.080171
-0.0698913
-0.0607315
-0.0525603
-0.0452634
-0.0387368
-0.0328983
-0.0277152
-0.0230177
-0.0186033
-0.403988
-0.387065
-0.369694
-0.344491
-0.313923
-0.281223
-0.249045
-0.219056
-0.191972
-0.167899
-0.146646
-0.127914
-0.111396
-0.0968091
-0.0839053
-0.0724726
-0.0623281
-0.053315
-0.0452984
-0.0381606
-0.0317945
-0.0261209
-0.0211036
-0.0164886
-0.0119939
-0.401925
-0.385022
-0.366803
-0.340239
-0.308253
-0.274397
-0.241419
-0.210939
-0.183587
-0.159394
-0.138115
-0.119422
-0.102987
-0.0885135
-0.0757469
-0.0644682
-0.0544898
-0.0456508
-0.0378136
-0.0308572
-0.0246716
-0.0191807
-0.0143454
-0.00984257
-0.00562075
-0.398566
-0.381729
-0.362655
-0.334765
-0.301454
-0.266564
-0.232911
-0.202052
-0.174526
-0.150291
-0.129054
-0.110457
-0.0941542
-0.079839
-0.0672489
-0.0561592
-0.046378
-0.0377416
-0.0301086
-0.0233565
-0.0173734
-0.0120882
-0.00743707
-0.00309527
0.00082221
-0.393848
-0.377121
-0.357196
-0.328035
-0.293505
-0.257714
-0.223515
-0.192392
-0.164788
-0.140591
-0.119463
-0.10102
-0.0848997
-0.0707873
-0.0584133
-0.0475484
-0.037996
-0.0295911
-0.0221878
-0.0156622
-0.00990284
-0.00484017
-0.0003951
0.00375828
0.00739405
-0.387717
-0.371143
-0.350384
-0.32002
-0.284393
-0.247842
-0.213232
-0.181959
-0.154374
-0.130294
-0.109343
-0.0911116
-0.0752258
-0.0613622
-0.0492442
-0.0386405
-0.0293491
-0.0212029
-0.0140553
-0.00777931
-0.00226406
0.00255819
0.00677717
0.0107292
0.0140967
-0.380129
-0.363751
-0.342184
-0.310703
-0.274113
-0.236948
-0.202064
-0.170758
-0.143287
-0.119405
-0.098698
-0.0807377
-0.0651373
-0.0515696
-0.0397482
-0.0294401
-0.0204421
-0.0125833
-0.00571684
0.00028658
0.00553742
0.0101008
0.0140768
0.0178185
0.0209156
-0.371047
-0.354909
-0.332571
-0.300075
-0.262665
-0.22504
-0.190019
-0.158795
-0.131534
-0.10793
-0.0875356
-0.0699055
-0.0546437
-0.0414143
-0.0299309
-0.0199547
-0.0112819
-0.0037395
0.00282055
0.00852875
0.0134949
0.0177812
0.0214996
0.025022
0.0278399
-0.360447
-0.344591
-0.321534
-0.288136
-0.250058
-0.212128
-0.177109
-0.146083
-0.119125
-0.0958787
-0.0758659
-0.0586243
-0.0437518
-0.0309069
-0.0198012
-0.010193
-0.00187711
0.00532058
0.0115489
0.0169394
0.0216007
0.0255921
0.0290394
0.0323324
0.0348601
-0.348315
-0.332782
-0.309067
-0.274893
-0.236308
-0.198231
-0.16335
-0.132634
-0.106075
-0.0832665
-0.0636999
-0.0469053
-0.032473
-0.0200577
-0.00936952
-0.000164694
0.00776279
0.0145876
0.0204592
0.0255097
0.0298461
0.0335252
0.036688
0.0397406
0.0419669
-0.334646
-0.31948
-0.295178
-0.260363
-0.221435
-0.183369
-0.148762
-0.118468
-0.0924024
-0.0701049
-0.0510522
-0.0347622
-0.0208205
-0.00887939
0.00135221
0.0101188
0.0176269
0.0240512
0.0295412
0.0342296
0.0382212
0.0415709
0.0444358
0.0472361
0.0491498
-0.319446
-0.304689
-0.279883
-0.24457
-0.205467
-0.16757
-0.133371
-0.103609
-0.0781231
-0.0564142
-0.0379402
-0.0222111
-0.00880933
0.00261404
0.0123506
0.0206449
0.0277032
0.0336998
0.038784
0.0430884
0.0467155
0.0497186
0.0522718
0.0548068
0.056397
-0.302733
-0.288428
-0.263208
-0.227548
-0.18844
-0.150866
-0.117204
-0.088081
-0.0632621
-0.0422155
-0.0243835
-0.00927028
0.00354333
0.0144066
0.0236107
0.0313996
0.0379785
0.0435208
0.0481755
0.0520744
0.0553172
0.0579566
0.0601839
0.0624395
0.0636959
-0.284533
-0.270723
-0.245187
-0.209338
-0.170394
-0.13329
-0.100294
-0.0719122
-0.0478457
-0.0275329
-0.0104043
0.00403973
0.0162186
0.0264808
0.0351163
0.0423676
0.0484385
0.0535009
0.0577029
0.061175
0.0640139
0.0662724
0.068159
0.0701196
0.0710335
-0.264883
-0.251611
-0.225864
-0.18999
-0.151376
-0.114881
-0.0826759
-0.0551354
-0.0319031
-0.012393
0.0039731
0.0176964
0.0291956
0.0388172
0.0468494
0.0535323
0.0590678
0.0636257
0.0673524
0.070377
0.0727925
0.0746528
0.0761827
0.0778304
0.078391
-0.243828
-0.23114
-0.205295
-0.169556
-0.131413
-0.0956989
-0.064392
-0.0377864
-0.0154665
0.0031749
0.0187218
0.0316753
0.0424518
0.0513953
0.058791
0.0648763
0.0698502
0.07388
0.0771101
0.0796669
0.0816397
0.0830842
0.0842397
0.0855506
0.0857372
-0.221423
-0.209367
-0.183552
-0.148069
-0.110584
-0.0757802
-0.0454855
-0.0199042
0.00142906
0.019139
0.0338128
0.0459497
0.0559629
0.0641927
0.0709206
0.0763807
0.0807684
0.0842481
0.0869614
0.089031
0.0905423
0.0915533
0.0923141
0.0932553
0.0930375
-0.197731
-0.186363
-0.160704
-0.125584
-0.0889465
-0.0551801
-0.0260034
-0.00153086
0.0187459
0.0354653
0.0492151
0.0604915
0.069703
0.0771857
0.0832166
0.0880257
0.0918045
0.0947136
0.0968913
0.0984558
0.0994876
0.100048
0.100391
0.100926
0.100285
-0.172825
-0.16221
-0.136719
-0.102254
-0.0665629
-0.0339554
-0.00599579
0.017289
0.036444
0.0521173
0.0648956
0.0752703
0.0836447
0.0903492
0.0956561
0.0997906
0.10294
0.10526
0.106885
0.107927
0.108462
0.108555
0.108464
0.108563
0.1075
-0.146783
-0.137003
-0.111719
-0.078103
-0.0435021
-0.0121671
0.0144844
0.0365082
0.0544806
0.0690566
0.0808195
0.0902546
0.0977589
0.103657
0.108215
0.111654
0.114154
0.115868
0.116926
0.117431
0.117453
0.117067
0.116532
0.116166
0.114617
-0.119666
-0.110731
-0.0859292
-0.0532101
-0.0198345
0.0101218
0.0353816
0.0560769
0.0728113
0.0862428
0.09695
0.105411
0.112015
0.117081
0.120869
0.123592
0.125427
0.126522
0.127
0.126954
0.12645
0.12558
0.124592
0.123669
0.121394
-0.0915698
-0.0836045
-0.0593632
-0.0276606
0.00436646
0.0328458
0.0566376
0.0759434
0.0913893
0.103634
0.113249
0.120705
0.126383
0.130593
0.133591
0.135582
0.136739
0.137203
0.13709
0.136483
0.135449
0.134104
0.132627
0.130926
0.127644
-0.0627176
-0.0556102
-0.0320955
-0.0015416
0.0290241
0.0559373
0.0781923
0.096054
0.110166
0.121186
0.129677
0.1361
0.140828
0.144164
0.146354
0.147599
0.148066
0.14789
0.14718
0.14601
0.144458
0.142657
0.140636
0.137923
0.133675
-0.0331313
-0.0268913
-0.00422203
0.0250582
0.0540595
0.0793266
0.0999837
0.116353
0.129092
0.138854
0.146193
0.15156
0.155318
0.157761
0.15913
0.159618
0.159385
0.158563
0.157251
0.155521
0.153473
0.151242
0.148655
0.144988
0.14032
-0.00289568
0.00242148
0.0241552
0.0520476
0.0793913
0.102942
0.121948
0.136784
0.148116
0.156592
0.162755
0.167045
0.169817
0.171355
0.17189
0.171612
0.170673
0.169198
0.167281
0.164998
0.162466
0.159801
0.156638
0.152272
0.149277
0.0278683
0.0322174
0.0529312
0.0793331
0.104937
0.12671
0.14402
0.157287
0.167185
0.174352
0.17932
0.182518
0.18429
0.184911
0.184605
0.183553
0.181903
0.179772
0.177251
0.174416
0.171395
0.168249
0.164547
0.159981
0.157812
0.0590399
0.0623852
0.0819986
0.106819
0.130611
0.150556
0.166134
0.177805
0.186246
0.192086
0.195845
0.197939
0.198701
0.198398
0.197245
0.195415
0.19305
0.190262
0.187136
0.183754
0.180235
0.176598
0.172437
0.167743
0.165611
0.090499
0.0928109
0.111249
0.134409
0.156329
0.174405
0.188222
0.198276
0.205244
0.209745
0.212285
0.213267
0.213014
0.211783
0.209779
0.207169
0.204089
0.200643
0.196914
0.192983
0.18896
0.184839
0.180272
0.175405
0.173018
0.122124
0.123378
0.140574
0.162005
0.182006
0.198181
0.210217
0.21864
0.224126
0.22728
0.228595
0.228462
0.227191
0.22503
0.222176
0.218787
0.214992
0.21089
0.206561
0.202082
0.197552
0.192955
0.187993
0.182876
0.180126
0.153792
0.15397
0.169865
0.189511
0.207555
0.221808
0.232051
0.238837
0.242836
0.244642
0.244731
0.243483
0.241197
0.238108
0.234406
0.230241
0.225734
0.22098
0.216053
0.211029
0.205994
0.200928
0.195568
0.190152
0.186998
0.18538
0.184468
0.199011
0.216829
0.23289
0.245209
0.253656
0.258804
0.26132
0.26178
0.260649
0.25829
0.254993
0.250982
0.246437
0.241501
0.236289
0.230888
0.225369
0.219802
0.214265
0.208736
0.202974
0.197232
0.193656
0.216765
0.214754
0.227904
0.243862
0.257926
0.26831
0.274964
0.278483
0.279522
0.278646
0.276302
0.272843
0.268543
0.263618
0.258239
0.252541
0.246631
0.240591
0.234486
0.228381
0.222348
0.21636
0.210195
0.204115
0.20011
0.247824
0.244712
0.256437
0.270515
0.282578
0.291034
0.295909
0.297811
0.297389
0.29519
0.291648
0.2871
0.28181
0.275984
0.269782
0.263332
0.256734
0.250064
0.243382
0.236747
0.230225
0.223784
0.217217
0.210796
0.206359
0.278436
0.274225
0.284504
0.296693
0.306762
0.313307
0.316423
0.316731
0.314867
0.311365
0.306642
0.301023
0.294759
0.288046
0.281036
0.273848
0.266574
0.259285
0.252036
0.244882
0.237879
0.230991
0.22403
0.217268
0.212399
0.308481
0.303178
0.312
0.322304
0.330398
0.335057
0.336442
0.335182
0.331903
0.327122
0.321241
0.314571
0.307353
0.299772
0.291971
0.28406
0.276126
0.268232
0.260429
0.252765
0.245291
0.237968
0.23062
0.223521
0.218222
0.337842
0.33146
0.338823
0.347257
0.353404
0.356213
0.355903
0.353109
0.348446
0.342415
0.335403
0.327708
0.319559
0.311131
0.302558
0.293943
0.285365
0.276883
0.268539
0.26038
0.252447
0.244699
0.236976
0.229546
0.223821
0.366404
0.358961
0.364874
0.371463
0.375703
0.376704
0.374741
0.370455
0.364445
0.357198
0.349087
0.340396
0.331343
0.322092
0.31277
0.303472
0.294269
0.285215
0.276348
0.267708
0.259329
0.25117
0.243084
0.235332
0.229187
0.394054
0.385575
0.390056
0.394837
0.397218
0.396463
0.392898
0.387165
0.379851
0.371427
0.362252
0.352598
0.34267
0.332625
0.322579
0.312621
0.302815
0.293209
0.283837
0.274732
0.265924
0.257368
0.248934
0.240867
0.234312
0.420686
0.411199
0.414276
0.417298
0.417876
0.415426
0.410315
0.403187
0.394617
0.38506
0.374861
0.364279
0.35351
0.3427
0.331959
0.321366
0.310981
0.300845
0.290987
0.281436
0.272215
0.263279
0.254511
0.246142
0.239185
0.446195
0.435734
0.437445
0.438764
0.437608
0.433528
0.426935
0.418471
0.408698
0.398055
0.386875
0.375406
0.363832
0.352291
0.340884
0.329685
0.318746
0.308104
0.297782
0.287804
0.278188
0.26889
0.259805
0.251146
0.2438
0.470482
0.459086
0.459477
0.459161
0.456345
0.450711
0.442705
0.432968
0.422048
0.410373
0.39826
0.385946
0.373607
0.361371
0.349331
0.337555
0.32609
0.314966
0.304204
0.293821
0.28383
0.274188
0.264803
0.255867
0.248146
0.493452
0.481165
0.480292
0.478417
0.474025
0.466918
0.457574
0.446632
0.434629
0.421976
0.40898
0.395869
0.382806
0.369913
0.357276
0.344956
0.332994
0.321416
0.310237
0.299472
0.289128
0.279162
0.269495
0.260296
0.252217
0.515015
0.501887
0.499812
0.496464
0.490587
0.482094
0.471493
0.45942
0.446399
0.432829
0.419006
0.405145
0.391404
0.377895
0.364698
0.351868
0.33944
0.327436
0.315868
0.304744
0.294068
0.2838
0.27387
0.264423
0.256004
0.535089
0.521172
0.517967
0.513238
0.505975
0.49619
0.484418
0.471291
0.457323
0.442899
0.428305
0.413748
0.399376
0.385294
0.371576
0.358271
0.34541
0.333011
0.32108
0.309624
0.29864
0.288092
0.277918
0.268239
0.259501
0.553594
0.538946
0.53469
0.528681
0.520135
0.509158
0.496306
0.482208
0.467366
0.452155
0.436852
0.421652
0.406698
0.392089
0.377891
0.364149
0.35089
0.338126
0.325862
0.3141
0.302833
0.292026
0.281629
0.271736
0.262702
0.570459
0.555141
0.549919
0.542739
0.533021
0.520955
0.507118
0.492135
0.476496
0.460569
0.444619
0.428834
0.413351
0.398261
0.383626
0.369487
0.355864
0.342769
0.330202
0.31816
0.306636
0.295595
0.284994
0.274907
0.265599
0.585619
0.569696
0.563599
0.555361
0.544588
0.531543
0.51682
0.501041
0.484687
0.468115
0.451583
0.435273
0.419314
0.403792
0.388765
0.374268
0.36032
0.346927
0.334088
0.321796
0.31004
0.298789
0.288007
0.277743
0.268189
0.599015
0.582556
0.575681
0.566504
0.554797
0.540886
0.52538
0.508897
0.49191
0.47477
0.457724
0.44095
0.42457
0.408667
0.393294
0.378481
0.364246
0.35059
0.33751
0.324997
0.313037
0.301602
0.290659
0.280239
0.270465
0.610596
0.59367
0.58612
0.576129
0.563613
0.548953
0.53277
0.515678
0.498145
0.480512
0.463023
0.445848
0.429105
0.412872
0.397199
0.382115
0.36763
0.353747
0.34046
0.327756
0.31562
0.304025
0.292944
0.282389
0.272424
0.620315
0.602998
0.594877
0.584203
0.571006
0.555717
0.538966
0.521363
0.503371
0.485325
0.467463
0.449951
0.432904
0.416395
0.400471
0.385158
0.370465
0.356392
0.34293
0.330066
0.317782
0.306053
0.294857
0.284189
0.274063
0.628137
0.610503
0.601923
0.590696
0.576952
0.561156
0.543947
0.525934
0.507572
0.489194
0.471032
0.45325
0.435957
0.419225
0.4031
0.387602
0.372742
0.358516
0.344914
0.331922
0.319519
0.307682
0.296393
0.285633
0.275377
0.63403
0.616158
0.607229
0.595586
0.581429
0.565251
0.547697
0.529374
0.510735
0.492106
0.473719
0.455732
0.438254
0.421356
0.405078
0.389442
0.374455
0.360114
0.346407
0.333317
0.320825
0.308908
0.297548
0.28672
0.276365
0.637972
0.61994
0.610778
0.598856
0.584423
0.56799
0.550205
0.531675
0.512849
0.494053
0.475514
0.457391
0.43979
0.42278
0.4064
0.390671
0.3756
0.361182
0.347404
0.33425
0.321698
0.309727
0.29832
0.287446
0.277026
0.639948
0.621836
0.612557
0.600495
0.585923
0.569362
0.551462
0.532828
0.513909
0.495029
0.476414
0.458223
0.44056
0.423493
0.407062
0.391287
0.376174
0.361717
0.347904
0.334717
0.322135
0.310137
0.298707
0.287809
0.277356
0.63995
0.621838
0.612559
0.600496
0.585924
0.569363
0.551463
0.532829
0.51391
0.49503
0.476415
0.458224
0.440561
0.423494
0.407063
0.391288
0.376175
0.361718
0.347905
0.334718
0.322136
0.310137
0.298708