/*--------------------------------*- C++ -*----------------------------------*\
  =========                 |
  \\      /  F ield         | OpenFOAM: The Open Source CFD Toolbox
   \\    /   O peration     | Website:  https://openfoam.org
    \\  /    A nd           | Version:  7
     \\/     M anipulation  |
\*---------------------------------------------------------------------------*/
FoamFile
{
    version     2.0;
    format      ascii;
    class       surfaceScalarField;
    location    "40";
    object      phi;
}
// * * * * * * * * * * * * * * * * * * * * * * * * * * * * * * * * * * * * * //

dimensions      [0 3 -1 0 0 0 0];

internalField   nonuniform List<scalar> 
97840
(
-3.57777e-06
3.70755e-06
-1.29781e-07
-1.25681e-05
9.30067e-06
-3.10297e-07
-2.58696e-05
1.37372e-05
-4.3571e-07
-4.26007e-05
1.72488e-05
-5.1776e-07
-6.20661e-05
2.00325e-05
-5.67074e-07
-8.37238e-05
2.22504e-05
-5.92673e-07
-0.000107157
2.40346e-05
-6.01702e-07
-0.000132048
2.54906e-05
-5.99327e-07
-0.00015816
2.67006e-05
-5.88783e-07
-0.000185313
2.77249e-05
-5.71584e-07
-0.000213371
2.86053e-05
-5.47828e-07
-0.000242221
2.93673e-05
-5.16539e-07
-0.000271769
3.00235e-05
-4.75988e-07
-0.000301922
3.05772e-05
-4.23944e-07
-0.000332591
3.10265e-05
-3.57863e-07
-0.000363684
3.13684e-05
-2.74998e-07
-0.000395117
3.16051e-05
-1.72476e-07
-0.00042682
3.17499e-05
-4.73315e-08
-0.000458758
3.18347e-05
1.03472e-07
-0.000490958
3.19169e-05
2.83052e-07
-0.000523537
3.20848e-05
4.9464e-07
-0.000556736
3.24568e-05
7.4165e-07
-0.000590921
3.31581e-05
1.0277e-06
-0.000626578
3.42995e-05
1.35695e-06
3.60813e-05
1.73541e-06
-0.000664394
-3.54827e-06
7.25582e-06
-1.24698e-05
1.82222e-05
-2.56727e-05
2.69401e-05
-4.22813e-05
3.38574e-05
-6.16031e-05
3.93542e-05
-8.30969e-05
4.37443e-05
-0.000106345
4.72827e-05
-0.00013103
5.01751e-05
-0.000156911
5.25815e-05
-0.000183807
5.46212e-05
-0.000211579
5.63771e-05
-0.000240112
5.7901e-05
-0.000269309
5.92199e-05
-0.000299074
6.03423e-05
-0.000329313
6.12658e-05
-0.000359931
6.19862e-05
-0.000390834
6.25082e-05
-0.000421942
6.28581e-05
-0.000453206
6.30985e-05
-0.000484632
6.3343e-05
-0.000516315
6.37677e-05
-0.000548471
6.46131e-05
-0.000581453
6.61402e-05
-0.000615739
6.85854e-05
7.23708e-05
-0.000652029
-3.49034e-06
1.07462e-05
-1.22764e-05
2.70082e-05
-2.52851e-05
3.99489e-05
-4.16517e-05
5.02239e-05
-6.06891e-05
5.83916e-05
-8.18577e-05
6.4913e-05
-0.000104739
7.0164e-05
-0.000129012
7.44481e-05
-0.000154433
7.80027e-05
-0.000180817
8.10047e-05
-0.000208017
8.35779e-05
-0.000235917
8.58006e-05
-0.00026441
8.77132e-05
-0.000293397
8.93289e-05
-0.000322774
9.06434e-05
-0.000352437
9.16487e-05
-0.000382276
9.23476e-05
-0.000412191
9.2773e-05
-0.000442103
9.301e-05
-0.000471979
9.32188e-05
-0.000501867
9.3656e-05
-0.000531937
9.46831e-05
-0.000562507
9.67101e-05
-0.000594041
0.00010012
0.00010559
-0.00062726
-3.40512e-06
1.41513e-05
-1.19914e-05
3.55945e-05
-2.47131e-05
5.26706e-05
-4.07212e-05
6.62321e-05
-5.93366e-05
7.7007e-05
-8.00219e-05
8.55982e-05
-0.000102357
9.24987e-05
-0.000126016
9.81074e-05
-0.00015075
0.000102737
-0.000176366
0.000106621
-0.000202712
0.000109924
-0.000229661
0.000112749
-0.000257098
0.000115151
-0.000284915
0.000117145
-0.000312997
0.000118725
-0.000341222
0.000119874
-0.000369463
0.000120588
-0.000397587
0.000120897
-0.000425472
0.000120896
-0.000453031
0.000120778
-0.000480241
0.000120866
-0.000507199
0.000121641
-0.000534165
0.000123676
-0.000561579
0.000127534
0.000134199
-0.000590188
-3.29432e-06
1.74456e-05
-1.162e-05
4.39202e-05
-2.39662e-05
6.50167e-05
-3.95041e-05
8.177e-05
-5.75644e-05
9.50673e-05
-7.76122e-05
0.000105646
-9.92248e-05
0.000114111
-0.000122072
0.000120954
-0.000145895
0.00012656
-0.000170492
0.000131218
-0.0001957
0.000135132
-0.000221381
0.00013843
-0.00024741
0.000141179
-0.000273663
0.000143398
-0.000300011
0.000145074
-0.000326314
0.000146177
-0.000352417
0.000146691
-0.00037815
0.00014663
-0.00040334
0.000146086
-0.000427826
0.000145263
-0.000451494
0.000144534
-0.000474337
0.000144484
-0.000496532
0.000145871
-0.000518473
0.000149475
0.000156659
-0.000540933
-3.16013e-06
2.06057e-05
-1.11689e-05
5.1929e-05
-2.30568e-05
7.69046e-05
-3.80188e-05
9.6732e-05
-5.53968e-05
0.000112445
-7.46588e-05
0.000124908
-9.53789e-05
0.000134831
-0.000117219
0.000142794
-0.000139911
0.000149252
-0.00016324
0.000154547
-0.00018703
0.000158922
-0.000211128
0.000162528
-0.000235393
0.000165444
-0.000259685
0.000167691
-0.000283858
0.000169246
-0.000307746
0.000170066
-0.000331165
0.000170109
-0.000353903
0.000169368
-0.000375727
0.000167909
-0.000396391
0.000165928
-0.000415671
0.000163814
-0.000433426
0.000162239
-0.000449711
0.000162156
-0.000464846
0.00016461
0.000171421
-0.000479609
-3.00523e-06
2.36109e-05
-1.06463e-05
5.95701e-05
-2.19998e-05
8.82581e-05
-3.62874e-05
0.00011102
-5.28634e-05
0.000129021
-7.11983e-05
0.000143243
-9.0862e-05
0.000154495
-0.000111507
0.000163439
-0.000132853
0.000170598
-0.000154669
0.000176364
-0.000176762
0.000181015
-0.000198962
0.000184728
-0.000221107
0.00018759
-0.000243038
0.000189622
-0.000264584
0.000190792
-0.000285555
0.000191037
-0.000305732
0.000190286
-0.000324858
0.000188495
-0.000342635
0.000185687
-0.000358728
0.00018202
-0.000372784
0.00017787
-0.000384501
0.000173955
-0.000393767
0.000171423
-0.000400784
0.000171627
0.000176906
-0.000406269
-2.83268e-06
2.64436e-05
-1.00616e-05
6.6799e-05
-2.08128e-05
9.90093e-05
-3.43361e-05
0.000124543
-4.99988e-05
0.000144684
-6.72734e-05
0.000160518
-8.57241e-05
0.000172946
-0.000104992
0.000182707
-0.000124782
0.000190387
-0.000144845
0.000196427
-0.000164967
0.000201137
-0.000184954
0.000204714
-0.000204622
0.000207258
-0.000223785
0.000208785
-0.000242245
0.000209252
-0.000259781
0.000208573
-0.000276137
0.000206642
-0.000291011
0.000203368
-0.000304039
0.000198715
-0.000314792
0.000192774
-0.000322784
0.000185862
-0.000327522
0.000178693
-0.000328682
0.000172582
-0.000326287
0.000169232
0.000171486
-0.000320867
-2.6459e-06
2.90895e-05
-9.42514e-06
7.35782e-05
-1.95149e-05
0.000109099
-3.21937e-05
0.000137222
-4.68414e-05
0.000159332
-6.29317e-05
0.000176608
-8.00217e-05
0.000190036
-9.77395e-05
0.000200425
-0.000115771
0.000208419
-0.000133845
0.000214501
-0.000151723
0.000219015
-0.000169184
0.000222175
-0.000186014
0.000224087
-0.000201995
0.000224766
-0.000216897
0.000224154
-0.000230461
0.000222137
-0.000242393
0.000218574
-0.000252339
0.000213314
-0.000259873
0.00020625
-0.000264478
0.000197378
-0.000265531
0.000186915
-0.000262338
0.0001755
-0.000254309
0.000164554
-0.000241237
0.00015616
0.000153438
-0.00022319
-2.44856e-06
3.15381e-05
-8.74829e-06
7.9878e-05
-1.81271e-05
0.000118478
-2.98915e-05
0.000148986
-4.3433e-05
0.000172873
-5.8225e-05
0.0001914
-7.38157e-05
0.000205626
-8.98174e-05
0.000216427
-0.000105894
0.000224496
-0.000121751
0.000230357
-0.000137116
0.000234381
-0.000151738
0.000236796
-0.000165365
0.000237715
-0.000177743
0.000237144
-0.000188598
0.000235009
-0.000197631
0.00023117
-0.000204497
0.00022544
-0.000208792
0.000217609
-0.000210028
0.000207485
-0.000207602
0.000194952
-0.00020077
0.000180084
-0.000188638
0.000163368
-0.000170297
0.000146213
-0.000145381
0.000131244
0.000120932
-0.000112874
-2.24452e-06
3.37826e-05
-8.04284e-06
8.56763e-05
-1.66713e-05
0.000127106
-2.74624e-05
0.000159777
-3.98175e-05
0.000185228
-5.32079e-05
0.00020479
-6.71705e-05
0.000219589
-8.12993e-05
0.000230556
-9.52335e-05
0.00023843
-0.000108647
0.00024377
-0.000121234
0.000246968
-0.000132703
0.000248265
-0.000142759
0.000247771
-0.000151101
0.000245485
-0.000157404
0.000241312
-0.000161314
0.00023508
-0.000162431
0.000226557
-0.000160292
0.00021547
-0.000154342
0.000201536
-0.000143902
0.000184512
-0.000128122
0.000164303
-0.00010593
0.000141175
-7.59948e-05
0.000116278
-3.73839e-05
9.26328e-05
7.61532e-05
7.39436e-06
-2.03768e-06
3.58203e-05
-7.32085e-06
9.09594e-05
-1.51699e-05
0.000134955
-2.49401e-05
0.000169548
-3.60399e-05
0.000196328
-4.79361e-05
0.000216686
-6.01518e-05
0.000231805
-7.22592e-05
0.000242663
-8.3869e-05
0.00025004
-9.46195e-05
0.000254521
-0.000104165
0.000256514
-0.000112166
0.000256265
-0.000118275
0.000253881
-0.000122134
0.000249343
-0.000123356
0.000242534
-0.000121519
0.000233244
-0.000116155
0.000221193
-0.000106727
0.000206042
-9.26066e-05
0.000187416
-7.30389e-05
0.000164944
-4.70816e-05
0.000138346
-1.353e-05
0.000107624
2.91959e-05
7.35523e-05
8.24861e-05
3.93427e-05
1.06579e-05
0.000147981
-1.83198e-06
3.76523e-05
-6.5943e-06
9.57218e-05
-1.36452e-05
0.000142006
-2.23581e-05
0.000178261
-3.21448e-05
0.000206115
-4.24648e-05
0.000227006
-5.28242e-05
0.000242164
-6.27697e-05
0.000252609
-7.18792e-05
0.000259149
-7.97504e-05
0.000262392
-8.59897e-05
0.000262753
-9.02018e-05
0.000260477
-9.19788e-05
0.000255658
-9.08906e-05
0.000248255
-8.64752e-05
0.000238119
-7.82285e-05
0.000224997
-6.55926e-05
0.000208557
-4.79409e-05
0.00018839
-2.45569e-05
0.000164032
5.40034e-06
0.000134987
4.29558e-05
0.00010079
8.94055e-05
6.11742e-05
0.000146596
1.63614e-05
0.000215985
-3.0046e-05
-7.47005e-05
0.000301343
-1.63117e-06
3.92834e-05
-5.87475e-06
9.99653e-05
-1.21186e-05
0.00014825
-1.97483e-05
0.00018589
-2.8175e-05
0.000214541
-3.68465e-05
0.000235678
-4.52485e-05
0.000250566
-5.28983e-05
0.000260259
-5.93355e-05
0.000265587
-6.41111e-05
0.000267168
-6.67761e-05
0.000265418
-6.68706e-05
0.000260572
-6.39128e-05
0.0002527
-5.73896e-05
0.000241732
-4.67463e-05
0.000227475
-3.13775e-05
0.000209629
-1.06164e-05
0.000187796
1.62773e-05
0.000161496
5.01331e-05
0.000130176
9.18954e-05
9.32249e-05
0.000142677
5.00091e-05
0.000203813
3.77829e-08
0.000277389
-5.72145e-05
0.000364859
-0.000117516
-0.000181971
0.000472129
-1.43879e-06
4.07222e-05
-5.17296e-06
0.0001037
-1.06099e-05
0.000153687
-1.71405e-05
0.000192421
-2.41694e-05
0.00022157
-3.11287e-05
0.000242637
-3.7479e-05
0.000256917
-4.27031e-05
0.000265483
-4.62969e-05
0.00026918
-4.77572e-05
0.000268628
-4.65709e-05
0.000264232
-4.22027e-05
0.000256204
-3.40843e-05
0.000244582
-2.16043e-05
0.000229252
-4.0978e-06
0.000209969
1.91627e-05
0.000186368
4.89762e-05
0.000157982
8.62221e-05
0.000124251
0.000131871
8.45271e-05
0.000186995
3.81004e-05
0.000252827
-1.58232e-05
0.000330663
-7.7798e-05
0.000422857
-0.000149408
0.000530429
-0.000225088
-0.00031338
0.000661838
-1.25802e-06
4.19803e-05
-4.49847e-06
0.00010694
-9.13675e-06
0.000158325
-1.45604e-05
0.000197844
-2.01617e-05
0.000227172
-2.53513e-05
0.000247827
-2.95595e-05
0.000261125
-3.22289e-05
0.000268152
-3.28043e-05
0.000269756
-3.07205e-05
0.000266544
-2.53898e-05
0.000258901
-1.61894e-05
0.000247003
-2.45032e-06
0.000230842
1.65542e-05
0.000210248
4.16183e-05
0.000184905
7.36126e-05
0.000154374
0.000113491
0.000118104
0.000162298
7.54438e-05
0.00022117
2.5655e-05
0.000291333
-3.2062e-05
0.000374161
-9.8652e-05
0.000470912
-0.000174549
0.00058414
-0.000262636
0.000714031
-0.000354979
-0.000471128
0.00087178
-1.09155e-06
4.30718e-05
-3.85927e-06
0.000109708
-7.71344e-06
0.000162179
-1.20288e-05
0.00020216
-1.61779e-05
0.000231321
-1.95438e-05
0.000251193
-2.15199e-05
0.000263101
-2.15016e-05
0.000268134
-1.88746e-05
0.000267129
-1.30013e-05
0.000260671
-3.20769e-06
0.000249108
1.12301e-05
0.000232566
3.10983e-05
0.000210974
5.72567e-05
0.000184089
9.06483e-05
0.000151513
0.000132308
0.000112715
0.000183365
6.70464e-05
0.000245048
1.37611e-05
0.000318677
-4.79748e-05
0.000405642
-0.000119026
0.000507482
-0.000200492
0.000625388
-0.000292455
0.000762091
-0.000399339
0.000916561
-0.000509449
-0.000657163
0.0011026
-9.41471e-07
4.40133e-05
-3.26135e-06
0.000112028
-6.3504e-06
0.000165268
-9.56011e-06
0.00020537
-1.22348e-05
0.000233996
-1.37226e-05
0.000252681
-1.33724e-05
0.000262751
-1.05238e-05
0.000265285
-4.49326e-06
0.000261098
5.44064e-06
0.000250737
2.00521e-05
0.000234496
4.01821e-05
0.000212435
6.67515e-05
0.000184405
0.000100772
0.000150069
0.000143355
0.00010893
0.000195717
6.03528e-05
0.000259179
3.58452e-06
0.00033516
-6.22206e-05
0.000425169
-0.000137984
0.000530742
-0.000224599
0.000653561
-0.000323311
0.00079474
-0.000433634
0.000957086
-0.000561685
0.00113814
-0.000690501
-0.000872767
0.00135374
-8.09188e-07
4.48225e-05
-2.70836e-06
0.000113927
-5.05332e-06
0.000167613
-7.16079e-06
0.000207477
-8.3376e-06
0.000235172
-7.88792e-06
0.000252231
-5.10721e-06
0.00025997
7.31108e-07
0.000259447
1.03917e-05
0.000251438
2.46938e-05
0.000236435
4.45277e-05
0.000214662
7.08691e-05
0.000186094
0.000104792
0.000150482
0.00014748
0.000107381
0.000200228
5.6182e-05
0.000264447
-3.86625e-06
0.000341654
-7.36223e-05
0.000433452
-0.000154019
0.000541508
-0.00024604
0.000667463
-0.000350553
0.000813044
-0.000468892
0.000979273
-0.000599863
0.0011688
-0.000751212
0.00137777
-0.000899468
-0.00111801
0.00162301
-6.95284e-07
4.55177e-05
-2.20126e-06
0.000115433
-3.8225e-06
0.000169235
-4.82851e-06
0.000208483
-4.47805e-06
0.000234822
-2.02128e-06
0.000249774
3.31077e-06
0.000254638
1.23232e-05
0.000250434
2.58759e-05
0.000237885
4.49023e-05
0.000217409
7.04266e-05
0.000189138
0.000103578
0.000152942
0.000145604
0.000108456
0.000197873
5.51122e-05
0.000261878
-7.82305e-06
0.000339225
-8.12135e-05
0.000431613
-0.00016601
0.000540795
-0.000263201
0.000668532
-0.000373778
0.000816483
-0.000498504
0.000986233
-0.000638642
0.00117868
-0.000792307
0.00139591
-0.000968441
0.00163298
-0.00113654
-0.00139115
0.00190612
-5.99446e-07
4.61172e-05
-1.73801e-06
0.000116571
-2.65215e-06
0.000170149
-2.55089e-06
0.000208382
-6.33024e-07
0.000232904
3.91683e-06
0.000245224
1.19452e-05
0.000246609
2.43502e-05
0.000238029
4.21036e-05
0.000220131
6.62712e-05
0.000193241
9.80307e-05
0.000157379
0.000138685
0.000112288
0.000189668
5.74725e-05
0.000252549
-7.76837e-06
0.000329015
-8.42896e-05
0.000420853
-0.000173051
0.000529903
-0.00027506
0.000657995
-0.000391293
0.000806871
-0.000522654
0.000978074
-0.000669707
0.00117278
-0.000833347
0.00139166
-0.00101118
0.00163571
-0.00121249
0.00189948
-0.00140031
-0.00168817
0.00219651
-5.20403e-07
4.66376e-05
-1.31337e-06
0.000117364
-1.53e-06
0.000170365
-3.04493e-07
0.000207156
3.23658e-06
0.000229363
9.98882e-06
0.000238472
2.08907e-05
0.000235708
3.69504e-05
0.00022197
5.92702e-05
0.000197812
8.90685e-05
0.000163443
0.000127696
0.000118751
0.000176645
6.33391e-05
0.000237551
-3.43367e-06
0.000312179
-8.23964e-05
0.000402396
-0.000174507
0.000510123
-0.000280778
0.000637264
-0.000402201
0.00078561
-0.000539639
0.000956707
-0.00069375
0.00115179
-0.000864787
0.00137131
-0.00105287
0.00161553
-0.00125541
0.00188381
-0.00148077
0.00217094
-0.00168745
-0.0020027
0.00248547
-4.55874e-07
4.70935e-05
-9.18753e-07
0.000117827
-4.36917e-07
0.000169884
1.9445e-06
0.000204775
7.18722e-06
0.00022412
1.6281e-05
0.000229378
3.0274e-05
0.000221715
5.03033e-05
0.00020194
7.76225e-05
0.000170493
0.000113622
0.000127443
0.000159845
7.25285e-05
0.000217985
5.19912e-06
0.000289877
-7.53257e-05
0.000377465
-0.000169985
0.00048275
-0.000279791
0.000607705
-0.000405734
0.000754173
-0.000548669
0.00092373
-0.000709196
0.0011175
-0.000887518
0.00133614
-0.00108342
0.00157911
-0.00129584
0.00184596
-0.00152226
0.00213401
-0.00176881
0.00243908
-0.00199252
-0.00232638
0.00276277
-4.02558e-07
4.7496e-05
-5.42197e-07
0.000117967
6.52795e-07
0.000168689
4.24263e-06
0.000201185
1.12922e-05
0.000217071
2.29035e-05
0.000217767
4.02533e-05
0.000204365
6.46284e-05
0.000177565
9.74545e-05
0.000137666
0.000140314
8.45829e-05
0.000194953
1.78893e-05
0.00026327
-6.31173e-05
0.000347281
-0.000159337
0.000449064
-0.000271768
0.000570668
-0.000401395
0.000713995
-0.00054906
0.000880643
-0.000715317
0.00107174
-0.000900295
0.00128772
-0.0011035
0.00152836
-0.00132406
0.00179193
-0.00155941
0.00207694
-0.00180728
0.00237854
-0.00207041
0.00269426
-0.00230824
-0.00264981
0.00301769
-3.56175e-07
4.78522e-05
-1.67787e-07
0.000117778
1.77173e-06
0.000166749
6.64655e-06
0.00019631
1.56413e-05
0.000208076
2.99891e-05
0.000203419
5.1016e-05
0.000183338
8.01804e-05
0.000148401
0.000119099
9.87474e-05
0.000169562
3.41201e-05
0.000233522
-4.60705e-05
0.000313064
-0.00014266
0.000410346
-0.000256618
0.000527495
-0.000388918
0.000666485
-0.000540385
0.000828957
-0.000711533
0.00101604
-0.000902395
0.00122813
-0.00111239
0.00146471
-0.00134008
0.00172433
-0.00158368
0.00200407
-0.00183915
0.0023011
-0.00210431
0.00260873
-0.00237803
0.00292653
-0.00262604
-0.00296368
0.0032404
-3.11701e-07
4.81639e-05
2.20653e-07
0.000117246
2.95833e-06
0.000164011
9.22316e-06
0.000190045
2.0339e-05
0.00019696
3.76903e-05
0.000186068
6.27744e-05
0.000158254
9.72414e-05
0.000113934
0.000142917
5.3072e-05
0.000201802
-2.47648e-05
0.000276045
-0.000120314
0.000367881
-0.000234496
0.000479527
-0.000368264
0.00061304
-0.000522431
0.000770132
-0.000697477
0.000951958
-0.000893358
0.00115889
-0.00110933
0.00139034
-0.00134384
0.00164457
-0.00159431
0.00191874
-0.00185784
0.00220878
-0.00212919
0.00251042
-0.00240596
0.00281601
-0.00268362
0.00312699
-0.00293702
-0.00325997
0.00342327
-2.6315e-07
4.84271e-05
6.44784e-07
0.000116338
4.25638e-06
0.0001604
1.20479e-05
0.000182254
2.55018e-05
0.000183506
4.61754e-05
0.000165394
7.57581e-05
0.000128671
0.00011611
7.35822e-05
0.000169273
-9.10875e-08
0.000237454
-9.29459e-05
0.000322963
-0.000205823
0.000428113
-0.000339646
0.000555063
-0.000495214
0.000705623
-0.00067299
0.000881017
-0.000872871
0.00108164
-0.00109398
0.00130685
-0.00133454
0.0015548
-0.00159178
0.00182242
-0.00186193
0.00210541
-0.00214084
0.00239885
-0.00242263
0.00269718
-0.00270429
0.00299304
-0.00297948
0.00328901
-0.003233
-0.00353269
0.00356174
-2.03959e-07
4.8631e-05
1.12815e-06
0.000115006
5.71377e-06
0.000155814
1.52026e-05
0.000172765
3.12554e-05
0.000167453
5.56228e-05
0.000141027
9.02055e-05
9.40883e-05
0.000137085
2.67026e-05
0.00019852
-6.15255e-05
0.000276893
-0.000171319
0.000374616
-0.000303546
0.000493968
-0.000458998
0.000636887
-0.000638133
0.000804713
-0.000840816
0.000997921
-0.00106608
0.00121588
-0.00131194
0.00145668
-0.00157534
0.00171708
-0.00185218
0.00199268
-0.00213754
0.00227799
-0.00242615
0.00256755
-0.00271218
0.00285503
-0.00299176
0.0031347
-0.00325916
0.00340902
-0.00350731
-0.00377821
0.00365454
-1.27546e-07
4.87586e-05
1.69446e-06
0.000113184
7.38093e-06
0.000150128
1.87731e-05
0.000161373
3.77295e-05
0.000148497
6.62138e-05
0.000112543
0.000106352
5.39498e-05
0.000160452
-2.73966e-05
0.000230965
-0.000132039
0.000320405
-0.000260759
0.000431183
-0.000414325
0.000565395
-0.000593209
0.000724544
-0.000797281
0.000909247
-0.00102552
0.00111896
-0.00127579
0.00135178
-0.00154477
0.00160441
-0.00182796
0.00187223
-0.00212
0.0021497
-0.00241502
0.00243063
-0.00270708
0.00270944
-0.00299099
0.00297986
-0.00326219
0.00323867
-0.00351796
0.00348659
-0.00375523
-0.00399475
0.00370312
-2.24882e-08
4.8781e-05
2.36869e-06
0.000110793
9.30931e-06
0.000143187
2.28461e-05
0.000147836
4.50538e-05
0.000126289
7.81248e-05
7.94717e-05
0.000124419
7.65579e-06
0.000186456
-8.94343e-05
0.000266848
-0.000212431
0.000368148
-0.000362059
0.000492635
-0.000538812
0.000642023
-0.000742597
0.000817137
-0.000972395
0.0010176
-0.00122599
0.00124162
-0.00149981
0.00148587
-0.00178902
0.00174567
-0.00208776
0.00201525
-0.00238958
0.00228834
-0.00268812
0.00255867
-0.00297741
0.00282101
-0.00325332
0.00307024
-0.00351142
0.00330533
-0.00375305
0.00352372
-0.00397362
-0.00418344
0.00371241
1.10998e-07
4.867e-05
3.17481e-06
0.000107729
1.15497e-05
0.000134812
2.75063e-05
0.000131879
5.33518e-05
0.000100444
9.15183e-05
4.13052e-05
0.000144596
-4.54217e-05
0.000215291
-0.00016013
0.000306304
-0.000303444
0.000420114
-0.000475869
0.000558686
-0.000677384
0.000723121
-0.000907032
0.000913304
-0.00116258
0.00112763
-0.00144031
0.00136288
-0.00173506
0.00161432
-0.00204046
0.00187607
-0.00234951
0.00214163
-0.00265513
0.00240456
-0.00295105
0.00265915
-0.003232
0.00290103
-0.0034952
0.00312707
-0.00373746
0.00333749
-0.00396346
0.00352852
-0.00416465
-0.00436496
0.00371004
2.8385e-07
4.83862e-05
4.13669e-06
0.000103876
1.41504e-05
0.000124798
3.2833e-05
0.000113197
6.27359e-05
7.05407e-05
0.000106534
-2.49305e-06
0.000167031
-0.000105919
0.00024707
-0.000240168
0.00034934
-0.000405714
0.000476091
-0.00060262
0.000628758
-0.000830051
0.000807576
-0.00108585
0.00101124
-0.00136624
0.00123674
-0.00166581
0.0014794
-0.00197772
0.00173327
-0.00229433
0.00199163
-0.00260787
0.0022478
-0.0029113
0.00249581
-0.00319906
0.00273103
-0.00346721
0.00295044
-0.00371461
0.00315299
-0.00394002
0.00333883
-0.0041493
0.00350963
-0.00433545
-0.00452537
0.00367004
5.02696e-07
4.78835e-05
5.27633e-06
9.91025e-05
1.71558e-05
0.000112919
3.88968e-05
9.14559e-05
7.33018e-05
3.61357e-05
0.000123281
-5.24725e-05
0.000191817
-0.000174455
0.000281812
-0.000330162
0.000395813
-0.000519716
0.000535645
-0.000742451
0.000701973
-0.00099638
0.000893914
-0.00127779
0.00110878
-0.00158111
0.00134209
-0.00189911
0.00158785
-0.00222349
0.00183922
-0.00254569
0.0020892
-0.00285785
0.0023315
-0.00315361
0.00256119
-0.00342875
0.00277508
-0.00368111
0.00297177
-0.00391131
0.00315178
-0.00412002
0.00331632
-0.00431384
0.00346852
-0.00448766
-0.00466715
0.0036103
7.72897e-07
4.71106e-05
6.61321e-06
9.32622e-05
2.06047e-05
9.89274e-05
4.57574e-05
6.63032e-05
8.51239e-05
-3.2307e-06
0.000141829
-0.000109178
0.000218978
-0.000251604
0.000319424
-0.000430609
0.000445408
-0.0006457
0.000598103
-0.000895146
0.000777158
-0.00117543
0.000980354
-0.00148099
0.00120352
-0.00180428
0.00144078
-0.00213637
0.00168514
-0.00246785
0.00192934
-0.00278989
0.00216669
-0.00309521
0.00239187
-0.00337879
0.00260134
-0.00363821
0.00279353
-0.0038733
0.00296858
-0.00408636
0.00312825
-0.00427968
0.0032746
-0.0044602
0.0034112
-0.00462425
-0.00479585
0.0035399
1.0994e-06
4.60112e-05
8.16405e-06
8.61975e-05
2.45292e-05
8.25623e-05
5.34607e-05
3.73717e-05
9.82505e-05
-4.80205e-05
0.000162201
-0.000173128
0.000248459
-0.000337862
0.000359693
-0.000541842
0.000497633
-0.000783641
0.000662565
-0.00106008
0.000852886
-0.00136576
0.0010649
-0.001693
0.00129298
-0.00203235
0.0015301
-0.00237349
0.00176871
-0.00270647
0.00200171
-0.00302288
0.00222325
-0.00331675
0.00242937
-0.00358491
0.00261812
-0.00382696
0.0027895
-0.00404467
0.00294491
-0.00424178
0.00308696
-0.00442174
0.00321822
-0.00459145
0.00334233
-0.00474836
-0.00491415
0.00346063
1.48636e-06
4.45248e-05
9.94237e-06
7.77415e-05
2.89537e-05
6.35509e-05
6.20368e-05
4.28864e-06
0.000112701
-9.86844e-05
0.000184368
-0.000244796
0.000280122
-0.000433615
0.000402272
-0.000663992
0.000551819
-0.000933188
0.000727919
-0.00123618
0.000927538
-0.00156537
0.00114547
-0.00191093
0.0013748
-0.00226168
0.00160775
-0.00260644
0.00183676
-0.00293547
0.0020554
-0.00324153
0.00225913
-0.00352048
0.00244552
-0.00377131
0.00261422
-0.00399566
0.00276652
-0.00419697
0.00290476
-0.00438002
0.00303201
-0.00454898
0.00315097
-0.00471041
0.00326505
-0.00486244
-0.00502437
0.00337526
1.93711e-06
4.25877e-05
1.19584e-05
6.77202e-05
3.38944e-05
4.16149e-05
7.14991e-05
-3.3316e-05
0.000128462
-0.000155647
0.000208248
-0.000324582
0.000313737
-0.000539104
0.000446687
-0.000796943
0.000607132
-0.00109363
0.000792889
-0.00142193
0.000999394
-0.00177188
0.00122003
-0.00213157
0.00144691
-0.00248856
0.00167202
-0.00283155
0.00188829
-0.00315174
0.00209046
-0.0034437
0.00227551
-0.00370552
0.00244259
-0.00393839
0.0025927
-0.00414578
0.00272813
-0.0043324
0.00285177
-0.00450366
0.0029668
-0.00466401
0.0030758
-0.00481942
0.0031818
-0.00496844
-0.00512801
0.00328544
2.45417e-06
4.01336e-05
1.42189e-05
5.59555e-05
3.93589e-05
1.64749e-05
8.18425e-05
-7.57996e-05
0.000145486
-0.000219291
0.000233696
-0.000412791
0.000348984
-0.000654392
0.000492339
-0.000940298
0.000662601
-0.00126389
0.000856093
-0.00161543
0.00106674
-0.00198252
0.00128674
-0.00235157
0.0015077
-0.00270952
0.00172186
-0.00304572
0.00192315
-0.00335303
0.00210776
-0.00362831
0.00227425
-0.003872
0.0024232
-0.00408734
0.00255667
-0.00427925
0.00267757
-0.0044533
0.00278901
-0.0046151
0.00289402
-0.00476902
0.00299493
-0.00492032
0.00309427
-0.00506778
-0.00522612
0.00319238
3.03928e-06
3.70943e-05
1.67272e-05
4.22676e-05
4.53456e-05
-1.21435e-05
9.30428e-05
-0.000123497
0.000163691
-0.00028994
0.000260509
-0.000509608
0.000385454
-0.000779338
0.000538519
-0.00109336
0.000717153
-0.00144253
0.00091612
-0.00181439
0.00112797
-0.00219437
0.00134409
-0.00256769
0.00155607
-0.0029215
0.00175692
-0.00324657
0.0019419
-0.00353801
0.00210877
-0.00379518
0.00225757
-0.00402081
0.00239006
-0.00421983
0.00250902
-0.00439821
0.00261763
-0.00456191
0.00271896
-0.00471643
0.00281574
-0.0048658
0.00290994
-0.00501452
0.00300363
-0.00516147
-0.00531936
0.00309687
3.69352e-06
3.34008e-05
1.94833e-05
2.64778e-05
5.18438e-05
-4.4504e-05
0.000105056
-0.000176709
0.000182957
-0.000367841
0.000288425
-0.000615076
0.000422656
-0.000913569
0.000584429
-0.00125513
0.000769665
-0.00162777
0.000971608
-0.00201634
0.0011817
-0.00240447
0.00139099
-0.00277697
0.00159152
-0.00312203
0.00177748
-0.00343253
0.00194565
-0.00370618
0.00209534
-0.00394487
0.00222784
-0.00415331
0.00234576
-0.00433775
0.00245228
-0.00450472
0.00255059
-0.00466023
0.00264353
-0.00480937
0.00273345
-0.00495573
0.00282194
-0.00510301
0.00291066
-0.00525019
-0.00540813
0.00299944
4.41726e-06
2.89835e-05
2.24837e-05
8.41137e-06
5.88334e-05
-8.08537e-05
0.000117818
-0.000235694
0.000203126
-0.000453149
0.000317122
-0.000729072
0.000460026
-0.00105647
0.000629212
-0.00142432
0.000819018
-0.00181757
0.00102133
-0.00221864
0.00122685
-0.00261
0.00142677
-0.00297689
0.00161405
-0.00330932
0.00178431
-0.00360279
0.00193589
-0.00385777
0.00206947
-0.00407844
0.00218733
-0.00427117
0.00229259
-0.00444301
0.00238856
-0.00460069
0.00247825
-0.00474992
0.00256416
-0.00489527
0.00264823
-0.00503979
0.00273169
-0.00518648
0.00281586
-0.00533436
-0.00549269
0.00290042
5.21028e-06
2.37732e-05
2.57215e-05
-1.20998e-05
6.62847e-05
-0.000121417
0.000131244
-0.000300653
0.000224005
-0.00054591
0.000346228
-0.000851295
0.000496945
-0.00120719
0.000671991
-0.00159937
0.000864159
-0.00200974
0.00106424
-0.00241873
0.00126268
-0.00280844
0.00145124
-0.00316544
0.00162415
-0.00348223
0.00177857
-0.00375721
0.00191431
-0.00399351
0.00203318
-0.00419731
0.00213812
-0.00437612
0.00223252
-0.0045374
0.00231957
-0.00468773
0.00240199
-0.00483234
0.00248187
-0.00497516
0.0025608
-0.00511872
0.0026397
-0.00526538
0.00271959
-0.00541425
-0.00557315
0.00280005
6.07168e-06
1.77015e-05
2.91861e-05
-3.52143e-05
7.41575e-05
-0.000166388
0.000145228
-0.000371723
0.000245365
-0.000646048
0.000375324
-0.000981253
0.000532761
-0.00136463
0.000711905
-0.00177851
0.000904155
-0.00220199
0.00109958
-0.00261416
0.00128882
-0.00299767
0.0014646
-0.00334123
0.00162264
-0.00364027
0.00176162
-0.00389618
0.00188263
-0.00411452
0.00198832
-0.004303
0.00208204
-0.00446983
0.00216715
-0.00462252
0.00224662
-0.0047672
0.0023228
-0.00490853
0.00239742
-0.00504977
0.00247169
-0.00519299
0.00254631
-0.00534
0.00262207
-0.00549
-0.00564956
0.00269848
6.99981e-06
1.07017e-05
3.28631e-05
-6.10776e-05
8.24016e-05
-0.000215927
0.000159642
-0.000448964
0.000266945
-0.000753351
0.000403957
-0.00111826
0.000566812
-0.00152748
0.000748154
-0.00195985
0.00093824
-0.00239208
0.00112685
-0.00280276
0.00130522
-0.00317604
0.00146738
-0.00350339
0.00161059
-0.00378348
0.00173492
-0.00402052
0.00184252
-0.00422211
0.00193657
-0.00439705
0.00202059
-0.00455385
0.00209776
-0.00469969
0.00217072
-0.00484017
0.00224145
-0.00497925
0.00231131
-0.00511963
0.00238125
-0.00526293
0.00245176
-0.00541051
0.00252346
-0.0055617
-0.00572194
0.00259584
7.99221e-06
2.70952e-06
3.6734e-05
-8.98193e-05
9.09555e-05
-0.000270148
0.000174339
-0.000532347
0.000288455
-0.000867467
0.000431652
-0.00126146
0.000598454
-0.00169428
0.000780035
-0.00214143
0.000965849
-0.00257789
0.00114581
-0.00298273
0.00131215
-0.00334238
0.00146036
-0.0036516
0.00158919
-0.0039123
0.00169994
-0.00413127
0.00179549
-0.00431767
0.00187937
-0.00448094
0.00195501
-0.00462949
0.00202534
-0.00477002
0.00209262
-0.00490744
0.00215845
-0.00504509
0.00222391
-0.0051851
0.00228971
-0.00532873
0.00235621
-0.00547701
0.00242388
-0.00562937
-0.00579027
0.00249221
9.04546e-06
-6.33594e-06
4.07757e-05
-0.00012155
9.97473e-05
-0.00032912
0.000189152
-0.000621751
0.000309584
-0.000987899
0.000457932
-0.00140981
0.000627092
-0.00186344
0.000806978
-0.00232132
0.000986631
-0.00275754
0.00115652
-0.00315261
0.00131013
-0.00349599
0.00144447
-0.00378595
0.00155968
-0.00402751
0.00165803
-0.00422962
0.00174291
-0.00440254
0.00181792
-0.00455595
0.00188631
-0.00469787
0.00195066
-0.00483437
0.00201285
-0.00496964
0.00207419
-0.00510642
0.00213548
-0.00524639
0.00219726
-0.00539051
0.00225979
-0.00553954
0.00232343
-0.00569301
-0.00585452
0.00238768
1.01551e-05
-1.6491e-05
4.49607e-05
-0.000156355
0.000108694
-0.000392853
0.000203899
-0.000716957
0.000330008
-0.00111401
0.000482332
-0.00156213
0.0006522
-0.00203331
0.000828559
-0.00249768
0.00100044
-0.00292943
0.00115923
-0.00331139
0.00129982
-0.00363659
0.00142074
-0.00390686
0.00152328
-0.00413005
0.00161045
-0.0043168
0.00168591
-0.00447801
0.00175319
-0.00462323
0.00181524
-0.00475991
0.00187426
-0.0048934
0.00193183
-0.0050272
0.00198893
-0.00516352
0.0020462
-0.00530365
0.00210402
-0.00544834
0.00216259
-0.00559811
0.00222218
-0.0057526
-0.00591465
0.00228231
1.13153e-05
-2.78063e-05
4.92565e-05
-0.000194296
0.000117703
-0.0004613
0.000218384
-0.000817638
0.000349399
-0.00124502
0.000504417
-0.00171715
0.000673349
-0.00220224
0.000844515
-0.00266884
0.00100734
-0.00309225
0.00115438
-0.00345843
0.00128203
-0.00376424
0.00139018
-0.00401501
0.0014811
-0.00422097
0.00155829
-0.00439398
0.00162547
-0.00454519
0.00168596
-0.00468372
0.00174238
-0.00481633
0.00179659
-0.00494761
0.00184983
-0.00508044
0.00190287
-0.00521657
0.0019562
-0.00535698
0.00201009
-0.00550223
0.00206469
-0.00565271
0.00212021
-0.00580811
-0.00597064
0.00217619
1.25192e-05
-4.03255e-05
5.3626e-05
-0.000235403
0.000126672
-0.000534346
0.000232402
-0.000923369
0.000367438
-0.00138006
0.000523804
-0.00187352
0.000690215
-0.00236866