/*--------------------------------*- C++ -*----------------------------------*\
  =========                 |
  \\      /  F ield         | OpenFOAM: The Open Source CFD Toolbox
   \\    /   O peration     | Website:  https://openfoam.org
    \\  /    A nd           | Version:  7
     \\/     M anipulation  |
\*---------------------------------------------------------------------------*/
FoamFile
{
    version     2.0;
    format      ascii;
    class       volVectorField;
    location    "40";
    object      U;
}
// * * * * * * * * * * * * * * * * * * * * * * * * * * * * * * * * * * * * * //

dimensions      [0 1 -1 0 0 0 0];

internalField   nonuniform List<vector> 
49200
(
(-0.000808493 0.000683937 2.18476e-21)
(-0.0048846 0.00162586 -1.06342e-20)
(-0.0124654 0.00225754 -1.22286e-21)
(-0.021565 0.00266564 7.89211e-21)
(-0.0315933 0.00290701 -5.76748e-21)
(-0.0420337 0.00302714 1.95502e-20)
(-0.052524 0.00306087 6.30076e-21)
(-0.0628286 0.0030343 -6.76236e-21)
(-0.0727959 0.00296652 2.69457e-21)
(-0.0823332 0.00287093 -2.25118e-20)
(-0.0913875 0.00275651 4.92498e-21)
(-0.099931 0.00262881 -4.47328e-22)
(-0.107951 0.00249103 -6.31717e-21)
(-0.115442 0.00234476 1.49242e-20)
(-0.122405 0.00219078 3.45788e-22)
(-0.128839 0.00202974 -1.36301e-20)
(-0.134749 0.00186281 -5.50332e-21)
(-0.140144 0.0016923 -8.39644e-22)
(-0.145043 0.00152217 -1.03585e-20)
(-0.149478 0.00135847 -4.91337e-21)
(-0.153502 0.0012093 -2.22999e-20)
(-0.157196 0.00108431 1.57364e-20)
(-0.160664 0.00099202 -2.90979e-20)
(-0.164019 0.00093818 1.45826e-20)
(-0.167435 0.000934553 1.45653e-20)
(-0.000869629 0.00195153 -9.43902e-22)
(-0.00500986 0.00464574 -2.1804e-20)
(-0.012602 0.00645753 -1.63904e-20)
(-0.0216823 0.00763407 -3.13623e-20)
(-0.0316687 0.00833561 2.73464e-20)
(-0.042051 0.00869053 -1.81689e-20)
(-0.0524709 0.00879733 3.57521e-21)
(-0.0626957 0.00873019 -5.67498e-21)
(-0.0725755 0.00854384 -3.13071e-20)
(-0.0820185 0.00827723 -4.49328e-21)
(-0.0909725 0.00795687 -5.91043e-21)
(-0.0994099 0.00759975 -7.19394e-21)
(-0.107318 0.00721596 3.95942e-20)
(-0.114692 0.00681104 1.94187e-20)
(-0.121531 0.00638808 -1.86002e-20)
(-0.127835 0.00594969 4.18441e-20)
(-0.133609 0.0054999 2.9707e-21)
(-0.138858 0.00504603 2.29272e-20)
(-0.1436 0.00460031 3.42424e-20)
(-0.147863 0.00418111 -2.54117e-21)
(-0.151697 0.00381324 7.01079e-20)
(-0.15518 0.00352633 2.46558e-20)
(-0.158417 0.00334731 -2.46612e-20)
(-0.161511 0.00329528 -1.55151e-20)
(-0.164642 0.00340782 -1.55447e-20)
(-0.000989784 0.00320013 2.46542e-20)
(-0.00525633 0.00762457 6.42903e-22)
(-0.012871 0.0106049 -6.93883e-20)
(-0.0219133 0.0125443 6.11038e-20)
(-0.0318169 0.0137041 7.3966e-21)
(-0.0420839 0.014294 -4.63548e-20)
(-0.052364 0.0144753 -2.66408e-20)
(-0.0624301 0.0143697 -2.66212e-20)
(-0.0721353 0.0140671 -6.50253e-22)
(-0.0813902 0.0136321 -1.26817e-20)
(-0.0901436 0.0131086 -1.50624e-20)
(-0.0983686 0.0125249 1.93812e-20)
(-0.106053 0.0118982 -8.0325e-20)
(-0.113191 0.0112378 -7.74024e-20)
(-0.119783 0.010549 6.38569e-20)
(-0.125826 0.00983592 -1.06241e-19)
(-0.131324 0.00910503 -2.23699e-20)
(-0.13628 0.00836792 1.06672e-19)
(-0.140705 0.00764427 1.25291e-20)
(-0.144624 0.00696412 -2.43765e-20)
(-0.148078 0.00636884 -3.75446e-20)
(-0.151139 0.00590902 1.76445e-20)
(-0.153911 0.0056326 1.24926e-19)
(-0.156482 0.00557626 -2.13719e-20)
(-0.159039 0.00580728 2.68796e-21)
(-0.00116697 0.00441764 -1.94335e-20)
(-0.00562043 0.0105361 7.86578e-20)
(-0.0132691 0.0146658 1.13336e-19)
(-0.0222552 0.0173585 -5.02129e-20)
(-0.0320361 0.0189731 -7.65822e-21)
(-0.0421315 0.0197982 1.2494e-19)
(-0.0522033 0.0200561 7.84831e-21)
(-0.0620321 0.0199152 1.0408e-20)
(-0.071476 0.0195004 5.89294e-20)
(-0.0804488 0.0189011 -1.1547e-19)
(-0.0889009 0.0181788 -3.38965e-20)
(-0.0968067 0.0173733 1.99885e-20)
(-0.104154 0.0165087 -2.10161e-20)
(-0.110937 0.015598 6.72622e-20)
(-0.117155 0.0146484 -3.03884e-20)
(-0.122805 0.0136652 1.49873e-19)
(-0.127886 0.0126564 3.99258e-20)
(-0.132399 0.0116367 -4.76932e-21)
(-0.136349 0.0106318 6.17032e-20)
(-0.13975 0.00968234 -5.9052e-20)
(-0.142633 0.00884562 -2.14085e-20)
(-0.145064 0.00819451 -2.82034e-20)
(-0.14714 0.00780217 -4.42716e-20)
(-0.148926 0.00773007 5.6769e-20)
(-0.150614 0.00808267 8.4133e-20)
(-0.0013983 0.00559261 4.1229e-20)
(-0.00609695 0.0133551 -6.90873e-20)
(-0.013791 0.0186074 3.1716e-20)
(-0.0227041 0.0220401 4.61005e-20)
(-0.0323236 0.0241044 -1.6581e-19)
(-0.0421925 0.0251644 -3.95561e-20)
(-0.0519884 0.0255015 5.27492e-20)
(-0.0615021 0.0253295 -5.58716e-21)
(-0.0705984 0.0248073 1.07073e-19)
(-0.079195 0.0240493 8.14546e-21)
(-0.0872448 0.0231342 7.32883e-20)
(-0.0947232 0.0221133 7.3345e-20)
(-0.101618 0.0210174 1.46572e-19)
(-0.107925 0.0198636 -7.27369e-20)
(-0.113641 0.0186604 2.21559e-20)
(-0.118761 0.0174138 -2.94068e-20)
(-0.123283 0.0161322 -8.41386e-20)
(-0.127201 0.0148319 -3.3781e-20)
(-0.130512 0.0135428 1.63457e-20)
(-0.133222 0.0123138 -8.13041e-20)
(-0.135346 0.0112174 5.78078e-20)
(-0.136936 0.0103497 1.07953e-19)
(-0.138087 0.00981429 -3.61357e-20)
(-0.138827 0.00970802 -1.27427e-19)
(-0.139344 0.0101849 -3.49363e-20)
(-0.00168005 0.00671445 -7.40515e-20)
(-0.00667915 0.0160581 -1.20406e-20)
(-0.0144303 0.022399 -8.07567e-20)
(-0.0232548 0.0265539 -3.58021e-20)
(-0.032676 0.0290606 1.38922e-19)
(-0.0422651 0.0303545 -9.92255e-21)
(-0.0517189 0.0307736 -1.23511e-19)
(-0.0608406 0.0305753 1.07846e-19)
(-0.0695032 0.0299518 -5.15524e-20)
(-0.0776294 0.0290417 1.88228e-19)
(-0.085175 0.027941 -9.92836e-20)
(-0.0921168 0.0267123 -1.74589e-19)
(-0.0984433 0.0253937 3.43661e-20)
(-0.104149 0.0240056 -1.27082e-20)
(-0.10923 0.0225583 -7.87518e-20)
(-0.113681 0.0210573 -9.01358e-20)
(-0.117495 0.0195106 -6.90705e-20)
(-0.120661 0.017934 6.77931e-20)
(-0.123168 0.0163593 6.234e-22)
(-0.125009 0.014841 3.89502e-20)
(-0.126183 0.0134642 -1.00019e-19)
(-0.126725 0.0123484 4.92243e-20)
(-0.126721 0.0116337 9.64442e-20)
(-0.126156 0.0114657 1.6146e-19)
(-0.125185 0.0120667 -7.97526e-20)
(-0.00200782 0.0077737 2.2241e-19)
(-0.00735898 0.0186238 -6.09246e-20)
(-0.0151791 0.0260115 -7.57188e-20)
(-0.0239009 0.0308666 -3.64357e-20)
(-0.0330889 0.033806 -1.08427e-19)
(-0.0423468 0.0353318 5.6234e-20)
(-0.0513938 0.0358352 9.05865e-20)
(-0.0600476 0.0356156 -9.89755e-20)
(-0.068191 0.0348972 7.26615e-20)
(-0.0757524 0.0338425 -1.46576e-19)
(-0.0826909 0.0325644 -1.67376e-20)
(-0.0889848 0.031137 -6.46908e-20)
(-0.0946232 0.0296054 -1.36997e-19)
(-0.0995999 0.0279938 -1.56943e-19)
(-0.10391 0.0263137 -4.98892e-20)
(-0.107545 0.0245701 9.70955e-20)
(-0.110496 0.0227689 -5.86423e-20)
(-0.112746 0.020924 -1.44771e-19)
(-0.114277 0.0190658 -1.53921e-19)
(-0.115066 0.0172509 1.52614e-19)
(-0.115095 0.0155734 -1.32062e-19)
(-0.114378 0.0141744 -3.22978e-20)
(-0.11299 0.0132351 -2.04493e-19)
(-0.110861 0.0129661 -3.20321e-19)
(-0.108061 0.0136833 1.24897e-19)
(-0.00237664 0.00876212 -2.3442e-20)
(-0.00812729 0.0210328 1.72742e-19)
(-0.0160284 0.0294188 9.40752e-20)
(-0.0246349 0.0349473 6.50956e-20)
(-0.0335571 0.0383068 1.48953e-19)
(-0.0424345 0.0400605 -9.02702e-20)
(-0.0510116 0.0406498 -8.13016e-21)
(-0.0591228 0.0404137 -1.3799e-19)
(-0.0666617 0.0396071 -1.46598e-19)
(-0.0735634 0.0384158 9.34505e-20)
(-0.0797907 0.0369692 1.42099e-19)
(-0.0853233 0.0353529 -1.24051e-19)
(-0.0901505 0.0336192 -7.94331e-20)
(-0.0942653 0.0317963 4.33337e-19)
(-0.097661 0.0298967 1.93796e-20)
(-0.100328 0.0279246 4.9207e-20)
(-0.102252 0.0258833 4.0654e-20)
(-0.103412 0.0237825 5.25505e-20)
(-0.103781 0.0216486 -6.93178e-20)
(-0.103325 0.0195356 2.26767e-20)
(-0.102006 0.0175412 -3.67476e-20)
(-0.0998104 0.0158235 5.32757e-20)
(-0.0968053 0.0146071 9.75112e-20)
(-0.0928599 0.0141828 5.35266e-19)
(-0.0878497 0.0149906 -1.04412e-19)
(-0.00278114 0.00967292 -1.92157e-19)
(-0.0089741 0.0232688 -1.25987e-19)
(-0.0169682 0.0325974 -2.04249e-19)
(-0.0254486 0.0387675 6.74346e-20)
(-0.0340743 0.0425311 -2.50372e-19)
(-0.0425241 0.0445068 1.92864e-20)
(-0.0505699 0.0451822 2.03952e-19)
(-0.0580647 0.0449336 -4.84122e-20)
(-0.0649141 0.0440453 2.0082e-20)
(-0.0710606 0.0427253 -1.71546e-19)
(-0.0764706 0.0411193 -1.04319e-19)
(-0.0811256 0.0393244 2.29204e-19)
(-0.0850145 0.0374003 1.29684e-19)
(-0.0881289 0.0353793 -2.10247e-19)
(-0.09046 0.0332754 5.57148e-20)
(-0.0919954 0.0310917 -1.38667e-19)
(-0.0927169 0.0288281 -3.12491e-20)
(-0.0925988 0.0264893 -1.13661e-19)
(-0.0916064 0.0240945 2.59727e-19)
(-0.0896951 0.0216908 4.02617e-20)
(-0.0868077 0.0193724 -1.01625e-19)
(-0.0829021 0.0173067 2.0794e-19)
(-0.0780345 0.0157572 -1.52677e-19)
(-0.0720276 0.0151057 -3.59401e-19)
(-0.0643591 0.015949 1.9718e-20)
(-0.00321569 0.0105008 7.89555e-20)
(-0.00988883 0.0253181 1.39282e-20)
(-0.0179876 0.035527 1.56168e-19)
(-0.0263325 0.0423019 7.32698e-20)
(-0.0346333 0.0464495 2.6285e-19)
(-0.0426103 0.0486383 -2.23156e-19)
(-0.050065 0.0493981 -6.88267e-20)
(-0.0568705 0.0491399 1.63718e-19)
(-0.0629452 0.0481757 -1.7569e-19)
(-0.0682396 0.0467346 -1.98618e-20)
(-0.0727243 0.0449784 -4.70917e-20)
(-0.0763817 0.0430154 -8.62529e-20)
(-0.0792 0.040913 1.09962e-19)
(-0.0811686 0.0387079 -8.8434e-20)
(-0.0822756 0.0364159 -4.62276e-20)
(-0.0825048 0.0340394 2.35701e-20)
(-0.0818338 0.0315752 6.42437e-20)
(-0.0802318 0.0290218 2.32166e-19)
(-0.0776573 0.0263896 -2.15294e-19)
(-0.0740565 0.0237142 -4.7173e-20)
(-0.069356 0.0210791 2.71272e-19)
(-0.0634833 0.0186497 1.92858e-19)
(-0.0564857 0.0167146 -1.4554e-19)
(-0.0481917 0.0157523 -1.93999e-19)
(-0.0373327 0.016596 1.49644e-19)
(-0.00367464 0.0112422 -6.99259e-20)
(-0.0108606 0.0271702 3.58665e-20)
(-0.0190753 0.0381909 -4.56947e-21)
(-0.0272766 0.0455281 1.16614e-19)
(-0.0352258 0.0500355 -2.84066e-19)
(-0.0426866 0.0524253 4.66171e-19)
(-0.0494915 0.0532653 1.23759e-19)
(-0.0555348 0.0529986 3.55775e-21)
(-0.0607492 0.0519629 3.20619e-19)
(-0.0650931 0.0504077 5.18869e-20)
(-0.0685412 0.0485099 1.03588e-19)
(-0.0710764 0.0463892 -3.19683e-19)
(-0.0726853 0.0441205 -1.11948e-19)
(-0.0733542 0.0417457 3.74279e-19)
(-0.0730665 0.0392827 -5.31215e-20)
(-0.0718012 0.0367341 6.1726e-20)
(-0.0695301 0.0340938 -1.82625e-20)
(-0.0662167 0.0313546 -5.16717e-19)
(-0.0618128 0.028517 1.5849e-19)
(-0.056257 0.0256025 1.20621e-19)
(-0.0494636 0.022677 8.06225e-20)
(-0.0413315 0.0198904 -2.66665e-19)
(-0.0318921 0.0175277 -4.79496e-20)
(-0.0210676 0.0161648 1.92931e-19)
(-0.00655909 0.0172084 -1.61816e-19)
(-0.00415243 0.0118949 9.00197e-20)
(-0.0118784 0.0288176 6.75151e-20)
(-0.0202196 0.0405756 -2.32724e-19)
(-0.0282697 0.0484274 -1.49685e-19)
(-0.0358421 0.0532655 -1.48333e-20)
(-0.0427442 0.0558401 -1.85719e-19)
(-0.0488413 0.0567532 -2.28656e-19)
(-0.0540497 0.0564769 -1.06044e-20)
(-0.0583165 0.0553727 -3.55135e-19)
(-0.0616087 0.0537091 2.86009e-20)
(-0.0639046 0.0516778 1.34267e-19)
(-0.0651872 0.0494092 2.76584e-19)
(-0.0654402 0.0469863 -8.278e-20)
(-0.064645 0.0444562 -2.60783e-19)
(-0.062779 0.04184 -1.37992e-19)
(-0.059814 0.0391409 -1.88423e-19)
(-0.0557146 0.0363515 -2.72539e-19)
(-0.0504366 0.0334597 5.20326e-19)
(-0.0439248 0.030457 -6.25932e-20)
(-0.0361103 0.0273498 -3.30735e-19)
(-0.0268996 0.0241816 6.40256e-20)
(-0.0161721 0.021074 6.54595e-20)
(-0.00392473 0.0182785 1.24299e-20)
(0.00986993 0.0164571 8.285e-21)
(0.028238 0.0176048 1.40433e-19)
(-0.00464377 0.0124586 3.0223e-20)
(-0.0129315 0.0302562 5.09798e-20)
(-0.0214083 0.0426713 1.82352e-19)
(-0.0292999 0.0509842 3.41421e-19)
(-0.0364706 0.0561189 2.23735e-19)
(-0.0427723 0.058858 4.86616e-20)
(-0.0481032 0.0598336 1.08738e-19)
(-0.0524025 0.0595439 3.51806e-20)
(-0.0556321 0.0583724 2.85571e-19)
(-0.0577676 0.056605 -1.43802e-20)
(-0.0587902 0.0544473 8.57067e-20)
(-0.0586819 0.0520402 2.05116e-19)
(-0.0574221 0.0494748 -1.00235e-19)
(-0.0549857 0.0468038 3.56097e-19)
(-0.0513418 0.0440523 2.13684e-19)
(-0.0464524 0.0412255 2.23016e-19)
(-0.0402724 0.0383156 5.41226e-19)
(-0.0327475 0.0353079 -2.30954e-19)
(-0.0238132 0.0321869 -3.00567e-19)
(-0.0133932 0.0289456 1.71802e-20)
(-0.00138778 0.0256041 3.18949e-19)
(0.0123309 0.0222481 -2.34436e-19)
(0.0278107 0.0190688 -1.00845e-19)
(0.0449327 0.0167596 -7.84041e-21)
(0.0679902 0.017705 -1.40471e-19)
(-0.00514382 0.0129344 -1.31381e-19)
(-0.0140097 0.0314845 -2.60796e-19)
(-0.0226292 0.0444721 4.0448e-20)
(-0.0303542 0.0531871 -3.13671e-19)
(-0.0370981 0.0585789 4.01567e-20)
(-0.0427568 0.0614575 9.04552e-21)
(-0.0472617 0.0624812 -4.3836e-19)
(-0.0505753 0.0621716 8.89248e-20)
(-0.0526743 0.0609317 2.0585e-19)
(-0.0535422 0.0590636 -1.81847e-20)
(-0.0531625 0.0567856 -2.1409e-19)
(-0.0515149 0.0542491 -1.09552e-19)
(-0.0485727 0.0515529 1.26058e-19)
(-0.044302 0.048756 2.26843e-20)
(-0.0386609 0.0458878 2.26376e-19)
(-0.031599 0.0429569 -3.26656e-19)
(-0.023058 0.039957 -2.6941e-19)
(-0.0129706 0.036873 -5.68705e-20)
(-0.00126032 0.0336857 5.72997e-20)
(0.0121583 0.0303784 -5.38828e-20)
(0.0273915 0.0269513 -2.28384e-19)
(0.0445583 0.0234553 1.39109e-19)
(0.0637955 0.0199949 -1.83881e-19)
(0.0845577 0.0172329 2.08301e-19)
(0.11327 0.0178765 2.12771e-19)
(-0.00564829 0.0133247 2.77911e-20)
(-0.0151029 0.0325042 4.64841e-19)
(-0.0238699 0.045975 -3.04089e-19)
(-0.0314183 0.0550278 -1.62179e-19)
(-0.0377085 0.060632 -1.99254e-19)
(-0.0426796 0.0636203 -1.75645e-19)
(-0.046296 0.0646739 2.85076e-19)
(-0.0485429 0.0643347 -1.99582e-20)
(-0.0494119 0.0630233 -1.24894e-19)
(-0.0488934 0.0610562 1.67703e-19)
(-0.046972 0.0586637 2.07299e-20)
(-0.0436233 0.0560068 2.02019e-20)
(-0.0388126 0.0531922 -5.43057e-20)
(-0.0324943 0.0502852 -3.36922e-19)
(-0.0246126 0.0473207 -2.8388e-19)
(-0.0151019 0.0443115 2.24481e-19)
(-0.00388696 0.0412548 -2.17516e-19)
(0.00911564 0.0381374 2.65294e-20)
(0.0239974 0.0349401 1.92447e-19)
(0.0408545 0.031642 -8.2089e-20)
(0.0598043 0.0282295 1.37885e-19)
(0.0809262 0.0247255 -6.25862e-20)
(0.104543 0.0211456 -1.04103e-19)
(0.129255 0.0180179 -2.06841e-19)
(0.164688 0.0184097 -4.4914e-19)
(-0.00615354 0.0136335 -2.40725e-19)
(-0.0162023 0.0333195 -1.21305e-19)
(-0.0251178 0.0471809 3.85327e-19)
(-0.0324765 0.0565022 1.42717e-19)
(-0.038283 0.0622686 6.67468e-20)
(-0.0425181 0.0653323 1.06037e-19)
(-0.0451783 0.0663935 1.21587e-19)
(-0.0462713 0.0660122 -3.28242e-19)
(-0.0458022 0.0646241 1.23412e-19)
(-0.0437676 0.0625588 -3.98413e-19)
(-0.0401512 0.0600574 2.33319e-20)
(-0.0349223 0.05729 -2.63731e-19)
(-0.0280355 0.0543709 3.78617e-19)
(-0.019431 0.0513724 9.08474e-20)
(-0.00903597 0.0483353 -4.76348e-20)
(0.00323414 0.0452778 -5.91719e-20)
(0.0174738 0.0422023 2.40737e-19)
(0.0337857 0.0390998 -6.30162e-20)
(0.0522781 0.0359547 3.4288e-19)
(0.0730572 0.0327472 1.22308e-19)
(0.0962594 0.0294581 -1.86176e-19)
(0.121873 0.0260934 -1.658e-19)
(0.150581 0.0226117 4.24059e-19)
(0.179508 0.01926 -1.01013e-19)
(0.222843 0.0195748 5.42296e-19)
(-0.00665667 0.0138654 2.87693e-19)
(-0.0172993 0.033937 5.67051e-20)
(-0.0263597 0.0480934 1.78605e-19)
(-0.0335111 0.0576093 2.44026e-19)
(-0.0387988 0.0634831 -7.45137e-22)
(-0.0422434 0.0665831 -2.42993e-19)
(-0.0438725 0.0676263 -8.71191e-20)
(-0.0437151 0.0671875 1.47665e-19)
(-0.0417885 0.0657162 1.93015e-20)
(-0.0380932 0.0635531 3.15651e-19)
(-0.0326101 0.0609492 2.24181e-19)
(-0.0252996 0.0580832 2.61402e-19)
(-0.0161026 0.0550771 -1.84218e-19)
(-0.00494174 0.0520102 3.52516e-19)
(0.00827575 0.0489301 -1.25517e-19)
(0.023656 0.0458616 1.20327e-19)
(0.0413149 0.0428137 3.00437e-19)
(0.061375 0.039784 -2.75925e-19)
(0.0839616 0.0367632 -1.05626e-19)
(0.109184 0.0337368 -7.34203e-20)
(0.137212 0.0306901 -5.02586e-20)
(0.167849 0.0276149 2.54033e-19)
(0.202408 0.0244945 -2.84292e-19)
(0.235719 0.0210914 3.56104e-19)
(0.28818 0.0216511 7.47699e-20)
(-0.00715549 0.0140263 -2.21448e-20)
(-0.018386 0.0343652 -2.46138e-20)
(-0.0275822 0.048719 -4.61094e-19)
(-0.034502 0.0583518 6.80494e-20)
(-0.0392284 0.0642738 8.57193e-20)
(-0.0418196 0.0673672 1.43924e-19)
(-0.0423327 0.0683633 3.78198e-20)
(-0.0408159 0.06785 -1.79451e-19)
(-0.0372966 0.0662881 4.10366e-19)
(-0.0317771 0.0640283 -3.95868e-19)
(-0.0242322 0.0613306 -5.74921e-19)
(-0.0146105 0.0583817 -8.03809e-21)
(-0.00283568 0.0553115 7.94638e-21)
(0.0111899 0.0522068 5.75215e-20)
(0.0275819 0.0491228 2.57495e-19)
(0.0464694 0.046092 -9.49244e-20)
(0.06799 0.0431314 -4.10117e-19)
(0.0922835 0.040247 3.57092e-19)
(0.119488 0.0374383 1.50512e-19)
(0.1497 0.0346974 -1.62775e-19)
(0.183143 0.0320273 -2.78985e-19)
(0.219289 0.0293781 -2.53876e-19)
(0.260449 0.0269235 -6.57274e-21)
(0.298158 0.0236317 5.97124e-19)
(0.360832 0.0249012 -6.59396e-19)
(-0.00764852 0.0141225 -1.07595e-19)
(-0.0194553 0.0346138 -1.56404e-19)
(-0.0287706 0.0490665 2.4919e-19)
(-0.0354261 0.0587355 -5.14309e-19)
(-0.039539 0.0646429 -8.67406e-20)
(-0.0412025 0.0676837 -1.44388e-19)
(-0.0405008 0.0686015 2.85221e-20)
(-0.037499 0.0679955 -8.93482e-20)
(-0.032232 0.0663361 -9.21752e-19)
(-0.0247002 0.0639829 2.53407e-19)
(-0.0148693 0.0612041 5.33723e-19)
(-0.0026721 0.0581943 7.84875e-20)
(0.0119879 0.0550913 2.03559e-19)
(0.0292318 0.0519902 -9.58361e-20)
(0.0491991 0.0489549 -4.67777e-19)
(0.0720416 0.0460267 -3.47377e-19)
(0.0979152 0.043232 4.22194e-19)
(0.126969 0.0405861 7.61746e-21)
(0.159345 0.0380993 -4.02591e-19)
(0.195095 0.0357674 2.94175e-19)
(0.234519 0.0336328 -3.31236e-19)
(0.276569 0.0315281 -7.45855e-20)
(0.324956 0.030072 -1.08855e-19)
(0.366898 0.0270106 -3.33286e-19)
(0.440467 0.0295405 -2.95222e-19)
(-0.00813493 0.0141606 9.84086e-20)
(-0.0205 0.034694 3.11008e-19)
(-0.029909 0.0491465 -3.50688e-19)
(-0.0362566 0.058769 4.25195e-19)
(-0.0396909 0.0645967 4.19178e-19)
(-0.0403377 0.0675368 1.9035e-19)
(-0.038305 0.0683442 -2.01236e-19)
(-0.0336718 0.0676277 2.62396e-19)
(-0.0264767 0.065866 6.14331e-19)
(-0.0167146 0.0634267 -3.22934e-19)
(-0.0043378 0.0605857 7.73345e-20)
(0.0107404 0.0575458 -3.83408e-19)
(0.0286397 0.0544532 -6.54423e-20)
(0.0495058 0.0514123 -4.89215e-19)
(0.0735017 0.0484963 5.28469e-19)
(0.100797 0.0457569 -5.88482e-20)
(0.131558 0.0432305 -8.9049e-20)
(0.165927 0.0409424 -8.37432e-20)
(0.20403 0.0389148 1.61608e-19)
(0.245831 0.0371373 -2.74046e-19)
(0.291719 0.0357277 2.27794e-19)
(0.339921 0.0342699 5.2346e-20)
(0.395887 0.0341483 -5.75527e-20)
(0.44172 0.031389 -2.23163e-19)
(0.52613 0.0357111 2.59582e-19)
(-0.00861435 0.0141471 2.35733e-20)
(-0.0215129 0.034617 -4.46775e-19)
(-0.0309794 0.0489714 4.67317e-20)
(-0.036962 0.0584639 -3.68883e-19)
(-0.0396371 0.0641454 -1.92478e-19)
(-0.0391594 0.0669363 1.57048e-19)
(-0.0356578 0.0676017 -6.12694e-20)
(-0.029221 0.0667588 -5.98993e-20)
(-0.0198868 0.0648941 -2.28237e-19)
(-0.00764008 0.0623825 2.34934e-19)
(0.00758454 0.0595076 -6.15585e-19)
(0.0258965 0.0564807 3.18411e-19)
(0.0474406 0.0534575 5.28096e-19)
(0.0723863 0.0505523 1.58236e-20)
(0.100915 0.0478491 1.26101e-19)
(0.133205 0.0454105 2.04071e-19)
(0.169413 0.0432833 7.92801e-20)
(0.209651 0.041501 2.00337e-19)
(0.253996 0.0400985 -1.51901e-19)
(0.302268 0.039041 7.45353e-19)
(0.354927 0.0385702 8.36396e-19)
(0.409325 0.0378559 5.63355e-19)
(0.472752 0.0393584 3.3018e-19)
(0.521994 0.0369531 5.36726e-19)
(0.616129 0.0434557 -2.07323e-19)
(-0.0090867 0.0140883 3.19037e-20)
(-0.0224863 0.0343942 2.39474e-19)
(-0.0319613 0.0485542 4.67839e-19)
(-0.0375058 0.0578337 9.30274e-20)
(-0.0393217 0.0633034 3.12797e-19)
(-0.0375895 0.0658976 -4.79784e-19)
(-0.0324545 0.0663916 2.94328e-19)
(-0.0240106 0.0654109 -1.01333e-19)
(-0.0122898 0.0634491 7.89074e-19)
(0.00273803 0.0608883 -5.22125e-19)
(0.0211599 0.0580204 1.39223e-19)
(0.0431102 0.0550657 -2.51999e-19)
(0.068758 0.0521904 -6.97729e-19)
(0.0982917 0.04952 -4.47331e-19)
(0.131899 0.0471499 -1.87369e-19)
(0.169748 0.0451531 6.54325e-20)
(0.211959 0.0435855 7.51344e-20)
(0.258572 0.0424853 -1.0811e-19)
(0.309567 0.0418982 -2.07408e-19)
(0.364557 0.0417394 -6.73777e-19)
(0.424005 0.0424197 -5.35482e-19)
(0.484373 0.0425554 -3.67612e-19)
(0.554488 0.045853 -2.01761e-19)
(0.606545 0.043871 4.69088e-19)
(0.708039 0.0526871 -5.76941e-19)
(-0.00955198 0.0139901 2.07271e-19)
(-0.0234113 0.0340364 8.99993e-20)
(-0.0328308 0.0479086 -1.47977e-19)
(-0.0378449 0.0568941 -1.27005e-19)
(-0.038679 0.0620886 -1.98262e-19)
(-0.0355354 0.0644418 1.88401e-19)
(-0.0285715 0.06474 -5.60236e-21)
(-0.0178806 0.0636169 2.52097e-19)
(-0.00348368 0.0615733 -5.07935e-19)
(0.014669 0.0589991 5.51697e-19)
(0.0366891 0.0561949 7.14409e-20)
(0.0627356 0.0533916 8.09938e-21)
(0.092997 0.0507667 4.274e-19)
(0.127668 0.0484572 2.91062e-19)
(0.166924 0.0465696 9.48983e-20)
(0.210889 0.0451854 1.73662e-19)
(0.259605 0.0443655 -3.88454e-19)
(0.312985 0.0441452 8.76298e-20)
(0.370845 0.0445749 -5.20014e-19)
(0.432535 0.0454951 7.86377e-19)
(0.498378 0.0474944 9.95353e-21)
(0.564141 0.0486038 -1.49248e-20)
(0.639415 0.0536787 -1.65446e-19)
(0.693564 0.0522213 -5.63166e-19)
(0.798858 0.0631625 -3.0756e-19)
(-0.01001 0.0138573 -4.85779e-19)
(-0.0242775 0.0335533 -9.28021e-20)
(-0.0335602 0.0470482 4.51889e-20)
(-0.0379296 0.0556627 1.42491e-19)
(-0.0376327 0.0605225 9.88684e-20)
(-0.0328901 0.062596 -8.26956e-20)
(-0.0238655 0.0626815 -4.81354e-20)
(-0.0106464 0.0614211 4.07042e-19)
(0.00676279 0.0593237 -9.99874e-20)
(0.0284352 0.0567879 -9.077e-20)
(0.0545073 0.0541243 1.68437e-19)
(0.0851583 0.0515752 1.32822e-19)
(0.120584 0.0493299 -1.6829e-19)
(0.160964 0.0475366 -6.07075e-19)
(0.206426 0.0463101 1.06953e-19)
(0.257008 0.0457357 -1.31731e-20)
(0.312611 0.0458715 -6.84865e-20)
(0.372953 0.046738 1.00834e-19)
(0.437603 0.0483758 8.2049e-19)
(0.505608 0.0505377 -1.65594e-19)
(0.57696 0.0539321 -3.40912e-19)
(0.647112 0.0561393 -4.5778e-20)
(0.725304 0.0627487 3.99014e-19)
(0.780637 0.0619251 3.37782e-19)
(0.885339 0.0744782 9.07547e-20)
(-0.0104599 0.0136937 1.89871e-19)
(-0.025072 0.0329533 -2.39113e-19)
(-0.0341168 0.0459865 1.72796e-20)
(-0.0377021 0.054158 1.51192e-19)
(-0.0360952 0.0586304 2.70248e-19)
(-0.0295307 0.0603936 1.30283e-19)
(-0.0181735 0.0602593 -1.49381e-19)
(-0.00209941 0.0588797 4.57898e-20)
(0.0187082 0.0567728 2.93891e-19)
(0.0443472 0.054347 -3.58142e-19)
(0.074975 0.0519244 9.87471e-20)
(0.11078 0.0497589 -3.3474e-19)
(0.151942 0.0480513 4.77491e-19)
(0.198592 0.046958 2.85939e-19)
(0.250764 0.0465969 -1.95571e-19)
(0.308342 0.0470481 -1.98664e-20)
(0.371015 0.0483536 -2.40129e-19)
(0.438225 0.0505026 2.06626e-19)
(0.509207 0.0535008 1.10415e-19)
(0.582688 0.0570221 1.83241e-19)
(0.658142 0.0617624 -6.84571e-19)
(0.731191 0.0651469 5.30672e-19)
(0.80956 0.0728346 -7.7686e-19)
(0.864937 0.072714 3.82903e-19)
(0.964425 0.0861009 2.17881e-19)
(-0.0109001 0.0135019 -2.20232e-19)
(-0.0257793 0.0322432 5.14623e-19)
(-0.0344627 0.044736 -1.13017e-19)
(-0.0370965 0.0523997 -5.58666e-19)
(-0.033967 0.0564407 2.47434e-19)
(-0.0253192 0.0578737 -2.48333e-19)
(-0.0113134 0.057526 -2.0788e-19)
(0.00799106 0.0560615 -2.31226e-19)
(0.0326343 0.0540088 2.67399e-19)
(0.0627361 0.0517879 3.42723e-19)
(0.0984647 0.0497328 -2.90785e-19)
(0.139995 0.048109 2.4419e-19)
(0.18746 0.0471254 2.72514e-20)
(0.240889 0.0469413 -1.15253e-19)
(0.300155 0.0476674 3.46155e-19)
(0.364912 0.0493642 -5.19692e-19)
(0.43455 0.0520385 3.06699e-19)
(0.508159 0.0556286 -2.18996e-19)
(0.584565 0.0600704 -7.70885e-20)
(0.662183 0.0649864 8.31447e-19)
(0.739873 0.0708907 8.63849e-19)
(0.81386 0.0754297 1.67589e-19)
(0.889499 0.0835793 -4.05481e-19)
(0.943578 0.0841558 -2.35327e-19)
(1.03367 0.0974383 1.07414e-19)
(-0.0113278 0.0132832 2.68167e-19)
(-0.0263804 0.0314278 -5.43448e-19)
(-0.0345537 0.0433083 2.01278e-19)
(-0.0360378 0.0504084 4.26559e-19)
(-0.0311369 0.0539851 -3.57881e-19)
(-0.0201023 0.0550815 2.77763e-19)
(-0.00308561 0.054543 -3.4037e-19)
(0.0198741 0.0530473 3.07064e-20)
(0.0488389 0.0511356 -1.76947e-19)
(0.0839418 0.0492406 -2.12283e-19)
(0.125342 0.0477078 5.13686e-20)
(0.173169 0.0468116 -4.39908e-19)
(0.227454 0.0467636 3.08675e-19)
(0.28806 0.0477148 -8.35132e-21)
(0.354617 0.0497538 -6.52628e-20)
(0.426459 0.0529005 -2.47264e-20)
(0.502591 0.0571021 4.21058e-20)
(0.581688 0.0622243 6.07504e-19)
(0.66214 0.0680976 -9.20426e-19)
(0.74208 0.0743247 4.13232e-19)
(0.819822 0.0810977 -9.34532e-19)
(0.892448 0.0866234 -3.30443e-20)
(0.962675 0.0945332 4.03965e-20)
(1.01405 0.095743 2.94611e-19)
(1.09148 0.107935 2.17571e-19)
(-0.0117388 0.0130373 1.27696e-19)
(-0.0268521 0.0305099 1.05166e-19)
(-0.0343395 0.0417139 -5.87229e-19)
(-0.0344421 0.0482055 -5.65887e-20)
(-0.0274819 0.0512983 -1.68729e-19)
(-0.0137135 0.0520679 -6.58067e-20)
(0.00672414 0.0513806 1.00217e-18)
(0.0338117 0.0499302 -3.64932e-19)
(0.0676267 0.048272 -7.20851e-20)
(0.108298 0.0468516 2.32328e-19)
(0.155944 0.046024 -6.2633e-20)
(0.210597 0.046067 1.62116e-19)
(0.272121 0.0471837 -1.13854e-19)
(0.340128 0.049501 -8.48486e-21)
(0.413908 0.0530628 -2.02341e-19)
(0.492389 0.0578232 6.7292e-20)
(0.574123 0.0636419 1.62632e-19)
(0.657342 0.07029 -1.79386e-19)
(0.740033 0.0774707 2.92754e-19)
(0.820125 0.0847851 -3.13108e-19)
(0.895613 0.0920564 1.83496e-19)
(0.964473 0.0982452 2.66613e-19)
(1.0272 0.105222 2.21307e-20)
(1.07456 0.107028 -5.00738e-20)
(1.13721 0.117143 -3.8019e-19)
(-0.0121268 0.0127629 -4.89107e-20)
(-0.0271669 0.0294901 1.64326e-19)
(-0.0337628 0.0399626 4.18241e-19)
(-0.0322168 0.0458129 8.75847e-20)
(-0.0228686 0.0484181 5.68266e-20)
(-0.0059743 0.0488897 -1.07692e-20)
(0.0183404 0.0481177 -4.72148e-19)
(0.0500715 0.0468142 -1.06098e-19)
(0.0892973 0.0455497 1.17811e-19)
(0.136114 0.0447809 -6.91832e-20)
(0.19055 0.0448677 6.09993e-19)
(0.252476 0.0460803 -6.14893e-20)
(0.321499 0.0485972 2.94407e-19)
(0.396884 0.052498 5.07085e-19)
(0.477491 0.057754 -2.80871e-19)
(0.561763 0.0642239 1.10502e-19)
(0.64777 0.071654 2.7142e-19)
(0.73333 0.0797047 -9.20073e-20)
(0.816143 0.0879518 -6.97577e-19)
(0.894063 0.0959978 1.42348e-20)
(0.965098 0.103368 2.64611e-19)
(1.02799 0.109759 -2.42135e-19)
(1.08197 0.115254 2.68111e-19)
(1.12417 0.117734 -2.23142e-19)
(1.17097 0.124655 -2.56479e-19)
(-0.0124834 0.0124566 -2.18546e-19)
(-0.0272925 0.028368 8.5552e-20)
(-0.0327595 0.0380632 -4.36558e-20)
(-0.0292607 0.0432535 -3.49484e-19)
(-0.0171544 0.0453851 2.69481e-19)
(0.00330203 0.0456088 1.02508e-19)
(0.0319927 0.044841 -2.6513e-19)
(0.0689176 0.0438135 3.50755e-19)
(0.11413 0.0431113 -1.74458e-19)
(0.16765 0.0431983 -3.21756e-19)
(0.229354 0.0444295 -9.15207e-19)
(0.29886 0.0470514 3.50528e-19)
(0.375423 0.0511942 -6.34514e-19)
(0.457859 0.0568608 -2.42622e-20)
(0.544513 0.0639179 -7.11771e-20)
(0.633311 0.0720999 9.02617e-20)
(0.721869 0.0810218 -2.14378e-19)
(0.807693 0.0902291 -8.72895e-20)
(0.888376 0.0991965 2.98213e-19)
(0.961892 0.107527 -3.3759e-19)
(1.0266 0.11461 -3.94981e-19)
(1.08184 0.120654 5.67831e-19)
(1.12676 0.124448 -3.74057e-19)
(1.1627 0.127649 -4.10199e-20)
(1.19365 0.129852 -9.1767e-20)
(-0.0127977 0.0121149 -1.27569e-19)
(-0.0271913 0.0271415 -1.53204e-19)
(-0.0312589 0.036024 2.55037e-19)
(-0.0254648 0.0405513 1.80078e-20)
(-0.0101888 0.0422433 -4.81509e-19)
(0.0143074 0.0422929 -6.92779e-19)
(0.0479093 0.0416448 2.20554e-19)
(0.0905998 0.0410507 -2.78053e-19)
(0.14237 0.0411074 2.65615e-19)
(0.203101 0.0422775 -2.53597e-19)
(0.272433 0.0448959 6.00806e-19)
(0.349634 0.0491621 -8.62921e-20)
(0.433499 0.0551272 2.88719e-19)
(0.522301 0.0626827 4.15457e-19)
(0.613829 0.0715591 -4.47993e-19)
(0.705507 0.0813449 -4.70549e-19)
(0.794601 0.0915196 3.15226e-20)
(0.878485 0.10153 1.01632e-19)
(0.954872 0.110795 -1.01783e-19)
(1.02209 0.118938 4.7849e-19)
(1.07909 0.125378 5.81642e-19)
(1.12575 0.130543 -6.54775e-19)
(1.16204 0.132849 9.16525e-20)
(1.19059 0.136137 1.67355e-19)
(1.20694 0.132045 -2.47986e-19)
(-0.0130573 0.0117335 3.65282e-19)
(-0.0268204 0.0258074 2.49979e-19)
(-0.0291835 0.0338535 -3.82434e-19)
(-0.0207136 0.037732 2.53094e-19)
(-0.00181665 0.03904 1.63701e-19)
(0.0272342 0.0390149 7.9819e-19)
(0.0663091 0.03863 5.31101e-19)
(0.115342 0.0386555 -2.69223e-21)
(0.174205 0.039693 -1.98772e-19)
(0.242565 0.0421906 5.54169e-19)
(0.319724 0.04644 -5.89498e-19)
(0.404486 0.052563 2.39309e-19)
(0.495087 0.0604951 1.84599e-19)
(0.589198 0.0699807 -5.73827e-19)
(0.684056 0.0805879 4.37197e-20)
(0.77668 0.0917516 6.64627e-19)
(0.864162 0.102833 7.95196e-20)
(0.943975 0.113216 9.04645e-20)
(1.0142 0.122326 4.21992e-19)
(1.07374 0.129847 -2.80807e-19)
(1.12225 0.135333 -5.24388e-19)
(1.16019 0.139269 4.28419e-19)
(1.18856 0.14044 -1.04546e-18)
(1.20872 0.142133 4.72958e-19)
(1.22165 0.137385 -1.3969e-19)
(-0.0132472 0.0113072 -4.07583e-19)
(-0.0261324 0.0243624 -4.47939e-19)
(-0.0264501 0.0315609 9.4427e-20)
(-0.0148861 0.0348233 1.38441e-19)
(0.00811989 0.0358267 -1.79383e-19)
(0.0422703 0.035853 -7.8218e-19)
(0.0873937 0.0359037 -2.18566e-19)
(0.143328 0.0367622 5.40455e-19)
(0.209756 0.0390233 7.83186e-21)
(0.286029 0.0430999 -2.55275e-19)
(0.370998 0.0492105 4.84301e-19)
(0.462894 0.0573606 -7.34383e-20)
(0.559314 0.0673306 8.27515e-19)
(0.657319 0.0786867 1.65104e-19)
(0.753672 0.0908218 -1.97578e-19)
(0.845157 0.10303 -2.50108e-19)
(0.928928 0.114594 3.76641e-20)
(1.00282 0.12489 1.71708e-19)
(1.0655 0.133415 3.32195e-19)
(1.11658 0.139963 4.27342e-20)
(1.15643 0.144259 -4.45273e-20)
(1.18617 0.146876 -1.64053e-19)
(1.20719 0.146869 5.01651e-19)
(1.22112 0.147221 7.4205e-20)
(1.22971 0.141991 4.28596e-19)
(-0.0133498 0.0108306 -1.59354e-20)
(-0.0250751 0.022804 1.54528e-19)
(-0.0229702 0.0291572 2.2296e-19)
(-0.00785779 0.0318564 -3.43266e-19)
(0.0197777 0.0326591 4.82896e-20)
(0.0595935 0.0328912 1.58907e-19)
(0.111338 0.0335781 -1.11259e-19)
(0.17469 0.0355072 -5.37726e-20)
(0.249051 0.0392486 1.05343e-19)
(0.333345 0.045151 -2.60106e-19)
(0.425849 0.0533211 -4.59136e-19)
(0.524129 0.0636053 -2.36465e-19)
(0.625108 0.0755917 -1.72315e-19)
(0.725294 0.0886482 -5.27078e-19)
(0.821133 0.102 1.82757e-19)
(0.909411 0.114838 -6.55828e-22)
(0.987611 0.126423 -3.40062e-19)
(1.05415 0.136192 5.27391e-20)
(1.10846 0.14377 1.51326e-19)
(1.15089 0.1491 1.69882e-22)
(1.18249 0.152092 4.53407e-20)
(1.20486 0.153395 4.21596e-19)
(1.21968 0.152302 -4.69449e-19)
(1.22861 0.151556 -5.17633e-19)
(1.23358 0.145891 -1.06806e-19)
(-0.0133452 0.0102989 4.81072e-19)