# Probe 0 (2 -0.5 0)
# Probe 1 (2 0.5 0)
# Probe 2 (-0.087156 0.996195 0)
# Probe 3 (-0.087156 -0.996195 0)
# Probe 4 (4 -0.5 0)
# Probe 5 (4 0.5 0)
#       Probe             0             1             2             3             4             5
#        Time
        0.005      -11.8389      -11.8389       20.8613       20.8613      -2.70983      -2.70983
         0.01        1.2193        1.2193      -0.32182     -0.321816      0.431873      0.431872
        0.015     0.0120601     0.0120605     -0.131768     -0.131769    -0.0247148    -0.0247144
         0.02   -0.00798218   -0.00798229     -0.129012     -0.129012    -0.0170659     -0.017066
        0.025    -0.0159198    -0.0159198     -0.132962     -0.132962    -0.0164271    -0.0164271
         0.03    -0.0191761     -0.019176     -0.138099     -0.138099    -0.0158684    -0.0158684
        0.035    -0.0202884    -0.0202884     -0.143829     -0.143829    -0.0151335    -0.0151335
         0.04    -0.0204141    -0.0204141     -0.148505     -0.148505     -0.014414     -0.014414
        0.045    -0.0199797    -0.0199797     -0.153273     -0.153273    -0.0136735    -0.0136735
         0.05    -0.0192791    -0.0192791     -0.157521     -0.157521    -0.0129353    -0.0129353
        0.055    -0.0184216    -0.0184216     -0.161712     -0.161712    -0.0122677    -0.0122677
         0.06    -0.0175056    -0.0175056     -0.165517     -0.165517    -0.0116483    -0.0116483
        0.065    -0.0165634    -0.0165634      -0.16909      -0.16909     -0.011069     -0.011069
         0.07    -0.0156194    -0.0156194     -0.172473     -0.172473    -0.0105258    -0.0105258
        0.075    -0.0146899    -0.0146899     -0.175645     -0.175645    -0.0100145    -0.0100145
         0.08    -0.0137802    -0.0137802     -0.178678     -0.178678    -0.0095259    -0.0095259
        0.085    -0.0128982    -0.0128982     -0.181531     -0.181531   -0.00906243   -0.00906243
         0.09    -0.0120414    -0.0120414     -0.184289     -0.184289    -0.0086213    -0.0086213
        0.095    -0.0112168    -0.0112168     -0.186873     -0.186873   -0.00819657   -0.00819657
          0.1    -0.0104263    -0.0104263     -0.189284     -0.189284   -0.00782318   -0.00782318
        0.105   -0.00966675   -0.00966675     -0.191565     -0.191565   -0.00747308   -0.00747309
         0.11   -0.00893572   -0.00893572     -0.193725     -0.193725   -0.00712842   -0.00712842
        0.115   -0.00824612   -0.00824612     -0.195565     -0.195565   -0.00680507   -0.00680507
         0.12   -0.00754699   -0.00754699     -0.197871     -0.197871     -0.006481     -0.006481
        0.125   -0.00688738   -0.00688738     -0.199888     -0.199888   -0.00617668   -0.00617668
         0.13   -0.00624842   -0.00624842     -0.201822     -0.201822   -0.00588268   -0.00588268
        0.135   -0.00564061   -0.00564061     -0.203557     -0.203557   -0.00561452   -0.00561453
         0.14   -0.00504537   -0.00504537     -0.205343     -0.205343   -0.00534999   -0.00534999
        0.145   -0.00447365   -0.00447365     -0.207001     -0.207001    -0.0050961    -0.0050961
         0.15    -0.0039167    -0.0039167     -0.208648     -0.208648   -0.00485022   -0.00485022
        0.155   -0.00337846   -0.00337847      -0.21022      -0.21022   -0.00460675   -0.00460676
         0.16   -0.00285802   -0.00285802     -0.211757     -0.211757   -0.00441039   -0.00441039
        0.165   -0.00235372   -0.00235372     -0.213245     -0.213245   -0.00420468   -0.00420468
         0.17   -0.00186319   -0.00186319     -0.214706     -0.214706   -0.00399782   -0.00399782
        0.175   -0.00138176   -0.00138176     -0.216211     -0.216211   -0.00379742   -0.00379742
         0.18  -0.000916254  -0.000916254     -0.217689     -0.217689   -0.00360469    -0.0036047
        0.185  -0.000481138  -0.000481137     -0.218837     -0.218837   -0.00342231   -0.00342231
         0.19  -5.58211e-05  -5.58223e-05     -0.219988     -0.219988   -0.00324562   -0.00324562
        0.195   0.000351517   0.000351516     -0.221018     -0.221018   -0.00307604   -0.00307605
          0.2   0.000749474   0.000749473     -0.222129     -0.222129   -0.00291081   -0.00291081
        0.205    0.00113579    0.00113579     -0.223212     -0.223212   -0.00275194   -0.00275194
         0.21    0.00151622    0.00151622      -0.22437      -0.22437   -0.00260483   -0.00260483
        0.215    0.00188602    0.00188602     -0.225509     -0.225509   -0.00245583   -0.00245584
         0.22     0.0022447    0.00224469     -0.226618     -0.226618    -0.0023113    -0.0023113
        0.225    0.00259246    0.00259246       -0.2277       -0.2277   -0.00216854   -0.00216854
         0.23    0.00292942    0.00292942     -0.228758     -0.228758   -0.00203887   -0.00203888
        0.235    0.00325682    0.00325682     -0.229793     -0.229793   -0.00191536   -0.00191536
         0.24    0.00357593    0.00357593     -0.230825     -0.230825   -0.00178901   -0.00178901
        0.245     0.0038885     0.0038885     -0.231877     -0.231877   -0.00166592   -0.00166592
         0.25    0.00418627    0.00418627     -0.232876     -0.232876   -0.00154787   -0.00154787
        0.255    0.00447249    0.00447249     -0.233751     -0.233751   -0.00143393   -0.00143393
         0.26    0.00473997    0.00473997     -0.234404     -0.234404   -0.00132554   -0.00132554
        0.265    0.00500541    0.00500541      -0.23507      -0.23507   -0.00121933   -0.00121933
         0.27    0.00527085    0.00527085     -0.235894     -0.235894     -0.001115     -0.001115
        0.275    0.00552736    0.00552736     -0.236682     -0.236682   -0.00101373   -0.00101373
         0.28    0.00577595    0.00577595     -0.237441     -0.237441  -0.000915664  -0.000915664
        0.285    0.00601795    0.00601795     -0.238183     -0.238183  -0.000819222  -0.000819222
         0.29    0.00625473    0.00625472     -0.238926     -0.238926  -0.000726668  -0.000726666
        0.295    0.00648535    0.00648535     -0.239658     -0.239658  -0.000637075  -0.000637075
          0.3     0.0066913     0.0066913     -0.240005     -0.240005  -0.000551728  -0.000551729
        0.305    0.00691299    0.00691299     -0.240684     -0.240684  -0.000468779   -0.00046878
         0.31    0.00712607    0.00712607     -0.241313     -0.241313  -0.000386029  -0.000386028
        0.315    0.00733473    0.00733473     -0.241921     -0.241921  -0.000304693  -0.000304693
         0.32    0.00753969    0.00753969     -0.242499     -0.242499  -0.000225938  -0.000225938
        0.325     0.0077415     0.0077415     -0.243035     -0.243035  -0.000148586  -0.000148585
         0.33    0.00794334    0.00794333     -0.243448     -0.243448  -7.22945e-05  -7.22947e-05
        0.335    0.00813248    0.00813248     -0.244212     -0.244212   5.83176e-08   5.76321e-08
         0.34    0.00830721    0.00830722     -0.245038     -0.245038   6.85521e-05   6.85499e-05
        0.345    0.00849659    0.00849658       -0.2456       -0.2456   0.000139265   0.000139267
         0.35     0.0086794     0.0086794     -0.246104     -0.246104   0.000207381    0.00020738
        0.355    0.00886297    0.00886297     -0.246619     -0.246619   0.000274354   0.000274353
         0.36    0.00904493    0.00904493      -0.24711      -0.24711   0.000340287   0.000340287
        0.365    0.00921025    0.00921025     -0.247568     -0.247568   0.000401911   0.000401909
         0.37    0.00937661    0.00937661     -0.248018     -0.248018   0.000460932   0.000460932
        0.375    0.00951645    0.00951645      -0.24841      -0.24841   0.000508261    0.00050826
         0.38    0.00967748    0.00967748     -0.248836     -0.248836   0.000557335   0.000557336
        0.385     0.0098275     0.0098275     -0.249232     -0.249232   0.000633529   0.000633528
         0.39      0.009996      0.009996     -0.249661     -0.249661   0.000690096   0.000690096
        0.395     0.0101403     0.0101403     -0.250032     -0.250032   0.000741167   0.000741166
          0.4     0.0102959     0.0102959      -0.25042      -0.25042   0.000796556   0.000796556
        0.405     0.0104456     0.0104456     -0.250797     -0.250797   0.000853031   0.000853029
         0.41     0.0105867     0.0105867     -0.251142     -0.251142   0.000903314   0.000903314
        0.415     0.0107365     0.0107365     -0.251493     -0.251493   0.000954173   0.000954172
         0.42     0.0108903     0.0108903     -0.251837     -0.251837    0.00100486    0.00100486
        0.425     0.0110338     0.0110338     -0.252132     -0.252132    0.00105397    0.00105397
         0.43     0.0111686     0.0111686     -0.252316     -0.252316    0.00110071    0.00110071
        0.435     0.0112888     0.0112888     -0.252791     -0.252791    0.00114371    0.00114371
         0.44     0.0114091     0.0114091     -0.253386     -0.253386    0.00118665    0.00118664
        0.445     0.0115544     0.0115544     -0.253801     -0.253801    0.00123487    0.00123487
         0.45     0.0116943     0.0116943     -0.254261     -0.254261     0.0012808     0.0012808
        0.455     0.0118045     0.0118045     -0.254221     -0.254221    0.00132008    0.00132008
         0.46     0.0119211     0.0119211     -0.254172     -0.254172    0.00135989    0.00135989
        0.465     0.0120452     0.0120452     -0.254378     -0.254378    0.00140073    0.00140073
         0.47     0.0121711     0.0121711     -0.254669     -0.254669    0.00144122    0.00144122
        0.475     0.0122971     0.0122971     -0.254958     -0.254958    0.00147935    0.00147935
         0.48     0.0124569     0.0124569     -0.255321     -0.255321    0.00153145    0.00153145
        0.485     0.0125343     0.0125343     -0.255481     -0.255481     0.0015622     0.0015622
         0.49     0.0126487     0.0126487     -0.255725     -0.255725    0.00159832    0.00159833
        0.495     0.0127626     0.0127626     -0.255966     -0.255966    0.00163849    0.00163849
          0.5     0.0128784     0.0128784     -0.256205     -0.256205     0.0016783    0.00167829
        0.505     0.0129935     0.0129935     -0.256447     -0.256447    0.00171566    0.00171566
         0.51     0.0131085     0.0131085     -0.256705     -0.256705    0.00175206    0.00175206
        0.515     0.0132141     0.0132141     -0.256806     -0.256806    0.00178573    0.00178573
         0.52     0.0133212     0.0133212     -0.256908     -0.256908    0.00181765    0.00181765
        0.525     0.0134387     0.0134387     -0.257112     -0.257112    0.00185388    0.00185388
         0.53     0.0135301     0.0135301     -0.257266     -0.257266    0.00188528    0.00188528
        0.535     0.0136363     0.0136363     -0.257445     -0.257445    0.00191896    0.00191896
         0.54     0.0137433     0.0137433     -0.257604     -0.257604    0.00195252    0.00195252
        0.545     0.0138548     0.0138548     -0.257701     -0.257701    0.00198683    0.00198683
         0.55     0.0139498     0.0139498      -0.25802      -0.25802    0.00201743    0.00201743
        0.555     0.0140516     0.0140516     -0.258351     -0.258351    0.00204926    0.00204926
         0.56     0.0141513     0.0141513     -0.258503     -0.258503     0.0020809     0.0020809
        0.565     0.0142098     0.0142098      -0.25857      -0.25857    0.00210427    0.00210427
         0.57     0.0142849     0.0142849     -0.258666     -0.258666    0.00213298    0.00213298
        0.575     0.0143797     0.0143797     -0.258797     -0.258797    0.00216524    0.00216524
         0.58     0.0144532     0.0144532     -0.258891     -0.258891    0.00217536    0.00217536
        0.585     0.0144961      0.014496     -0.258905     -0.258905    0.00219103    0.00219102
         0.59     0.0145786     0.0145786     -0.259001     -0.259001    0.00221765    0.00221765
        0.595      0.014669      0.014669     -0.259115     -0.259115    0.00224759    0.00224759
          0.6     0.0147569     0.0147569     -0.259223     -0.259223     0.0022748     0.0022748
        0.605     0.0148465     0.0148465     -0.259333     -0.259333    0.00230227    0.00230227
         0.61     0.0149446     0.0149446     -0.259461     -0.259461    0.00233097    0.00233097
        0.615     0.0150032     0.0150032     -0.259508     -0.259508    0.00235122    0.00235121
         0.62      0.015058      0.015058     -0.259548     -0.259548    0.00236746    0.00236746
        0.625      0.015139      0.015139     -0.259643     -0.259643    0.00239091    0.00239091
         0.63     0.0152204     0.0152204     -0.259743     -0.259743    0.00241562    0.00241562
        0.635     0.0153013     0.0153013      -0.25985      -0.25985     0.0024401     0.0024401
         0.64     0.0153818     0.0153818      -0.25997      -0.25997    0.00246439    0.00246439
        0.645      0.015462      0.015462     -0.260115     -0.260115    0.00248847    0.00248847
         0.65     0.0155427     0.0155427     -0.260322     -0.260322    0.00251253    0.00251253
        0.655     0.0156256     0.0156256     -0.260697     -0.260697     0.0025369     0.0025369
         0.66     0.0156993     0.0156993     -0.260106     -0.260105    0.00255921    0.00255921
        0.665     0.0157636     0.0157636     -0.259513     -0.259513    0.00257916    0.00257915
         0.67     0.0158374     0.0158374     -0.259508     -0.259508    0.00260279     0.0026028
        0.675     0.0159164     0.0159164     -0.259591     -0.259591    0.00262902    0.00262902
         0.68     0.0159911     0.0159911      -0.25968      -0.25968    0.00264676    0.00264675
        0.685     0.0160569     0.0160569     -0.259512     -0.259512    0.00266363    0.00266364
         0.69     0.0161233     0.0161233     -0.259522     -0.259522     0.0026851     0.0026851
        0.695     0.0162026     0.0162026     -0.259555     -0.259555    0.00270913    0.00270912
          0.7     0.0162949     0.0162949     -0.259607     -0.259607    0.00273442    0.00273441
        0.705     0.0163406     0.0163406     -0.259569     -0.259569    0.00274984    0.00274984
         0.71     0.0164154     0.0164154     -0.259578     -0.259578    0.00277245    0.00277245
        0.715      0.016491      0.016491     -0.259583     -0.259583    0.00279447    0.00279447
         0.72      0.016569      0.016569     -0.259588     -0.259588    0.00281318    0.00281318
        0.725     0.0166754     0.0166754      -0.25968      -0.25968    0.00283588    0.00283588
         0.73     0.0167247     0.0167247     -0.259635     -0.259635    0.00285158    0.00285158
        0.735     0.0168114     0.0168114     -0.259652     -0.259652     0.0028751     0.0028751
         0.74     0.0169189     0.0169189     -0.259704     -0.259704    0.00290259    0.00290259
        0.745     0.0169824     0.0169824     -0.259674     -0.259674    0.00292101    0.00292101
         0.75     0.0169705     0.0169705     -0.259525     -0.259525    0.00292521    0.00292521
        0.755     0.0170355     0.0170355     -0.259473     -0.259473    0.00294336    0.00294336
         0.76     0.0171102     0.0171102     -0.259458     -0.259458    0.00296397    0.00296397
        0.765     0.0171869     0.0171869     -0.259431     -0.259431    0.00298512    0.00298512
         0.77     0.0172489     0.0172489     -0.259381     -0.259381    0.00300362    0.00300362
        0.775     0.0172362     0.0172362     -0.259187     -0.259187    0.00300771    0.00300771
         0.78     0.0172974     0.0172974     -0.259129     -0.259129    0.00302619    0.00302619
        0.785     0.0173882     0.0173882     -0.259151     -0.259151    0.00304739     0.0030474
         0.79     0.0174275     0.0174275     -0.259011     -0.259011    0.00306184    0.00306184
        0.795     0.0174959     0.0174959      -0.25896      -0.25896    0.00308135    0.00308135
          0.8     0.0175722     0.0175722     -0.258921     -0.258921    0.00310184    0.00310184
        0.805      0.017642      0.017642     -0.258868     -0.258868    0.00312119    0.00312119
         0.81     0.0177042     0.0177042     -0.258797     -0.258797    0.00313972    0.00313972
        0.815     0.0177659     0.0177659      -0.25872      -0.25872     0.0031578    0.00315781
         0.82      0.017841      0.017841     -0.258671     -0.258671    0.00317709    0.00317709
        0.825     0.0179314     0.0179314      -0.25865      -0.25865    0.00319625    0.00319624
         0.83     0.0179732     0.0179732     -0.258529     -0.258529    0.00320763    0.00320763
        0.835     0.0179781     0.0179781     -0.258337     -0.258337    0.00321322    0.00321322
         0.84     0.0180421     0.0180421     -0.258255     -0.258255    0.00323126    0.00323125
        0.845     0.0181091     0.0181091      -0.25818      -0.25818     0.0032493     0.0032493
         0.85      0.018177      0.018177     -0.258106     -0.258106    0.00326779    0.00326779
        0.855     0.0182453     0.0182453     -0.258034     -0.258034    0.00328611    0.00328611
         0.86     0.0183146     0.0183146     -0.257969     -0.257969    0.00330435    0.00330435
        0.865       0.01839       0.01839     -0.257936     -0.257936    0.00332451    0.00332451
         0.87     0.0184458     0.0184458     -0.257706     -0.257706    0.00334094    0.00334094
        0.875     0.0185099     0.0185099     -0.257533     -0.257533    0.00335761    0.00335761
         0.88     0.0185755     0.0185755     -0.257369     -0.257369    0.00337686    0.00337686
        0.885     0.0186459     0.0186459     -0.257297     -0.257297    0.00339506    0.00339506
         0.89     0.0187172     0.0187172     -0.257219     -0.257219      0.003415      0.003415
        0.895     0.0187896     0.0187896     -0.257133     -0.257133    0.00343512    0.00343512
          0.9     0.0188649     0.0188649     -0.257028     -0.257028    0.00345478    0.00345478
        0.905     0.0189305     0.0189305     -0.256994     -0.256994    0.00347274    0.00347274
         0.91     0.0189947     0.0189947     -0.256981     -0.256981    0.00349048    0.00349048
        0.915     0.0190681     0.0190681     -0.256926     -0.256926    0.00351029    0.00351029
         0.92     0.0191503     0.0191503     -0.256856     -0.256856    0.00353146    0.00353146
        0.925     0.0192355     0.0192355     -0.256733     -0.256733    0.00355136    0.00355136
         0.93     0.0193498     0.0193498     -0.256685     -0.256685    0.00357598    0.00357598
        0.935     0.0194595     0.0194595     -0.256585     -0.256585    0.00360218    0.00360218
         0.94     0.0193945     0.0193945     -0.256215     -0.256215     0.0035943    0.00359431
        0.945     0.0194681     0.0194681     -0.256043     -0.256043    0.00361424    0.00361424
         0.95     0.0194979     0.0194979     -0.255662     -0.255662    0.00362434    0.00362434
        0.955     0.0195496     0.0195496     -0.255655     -0.255655    0.00363937    0.00363937
         0.96     0.0196206     0.0196205     -0.256206     -0.256206    0.00365788    0.00365788
        0.965      0.019708      0.019708     -0.256292     -0.256292    0.00368003    0.00368003
         0.97     0.0198392     0.0198392      -0.25631      -0.25631    0.00371116    0.00371116
        0.975     0.0198404     0.0198404     -0.256084     -0.256084    0.00371587    0.00371587
         0.98     0.0198154     0.0198154      -0.25581      -0.25581    0.00371632    0.00371632
        0.985     0.0198864     0.0198864     -0.255706     -0.255706    0.00373607    0.00373607
         0.99     0.0199595     0.0199595     -0.255607     -0.255607    0.00375625    0.00375625
        0.995      0.020026      0.020026     -0.255499     -0.255498    0.00377535    0.00377535
            1     0.0201007     0.0201007     -0.255405     -0.255405    0.00379551    0.00379551
        1.005     0.0201879     0.0201879     -0.255344     -0.255344    0.00381792    0.00381792
         1.01     0.0202539     0.0202539     -0.255248     -0.255248    0.00383647    0.00383647
        1.015     0.0202932     0.0202932     -0.255056     -0.255056    0.00384862    0.00384862
         1.02     0.0203637     0.0203637     -0.254952     -0.254952    0.00386849    0.00386849
        1.025     0.0204358     0.0204358     -0.254852     -0.254852    0.00388757    0.00388757
         1.03     0.0205111     0.0205111     -0.254758     -0.254758    0.00390599    0.00390599
        1.035     0.0206093     0.0206093     -0.254703     -0.254703    0.00392956    0.00392956
         1.04     0.0206433     0.0206433     -0.254539     -0.254539    0.00394109    0.00394109
        1.045      0.020713      0.020713     -0.254434     -0.254434    0.00396041    0.00396041
         1.05     0.0207886     0.0207886      -0.25434      -0.25434    0.00398054    0.00398054
        1.055     0.0208702     0.0208702     -0.254256     -0.254256    0.00400185    0.00400185
         1.06     0.0209695     0.0209695     -0.254203     -0.254203    0.00402676    0.00402675
        1.065     0.0210239     0.0210239     -0.254068     -0.254068    0.00404254    0.00404254
         1.07     0.0209801     0.0209801     -0.253733     -0.253733    0.00404005    0.00404005
        1.075      0.021067      0.021067     -0.253652     -0.253652    0.00406307    0.00406307
         1.08     0.0211731     0.0211731     -0.253594     -0.253594    0.00408872    0.00408872
        1.085     0.0211818     0.0211818     -0.253439     -0.253439     0.0040961     0.0040961
         1.09     0.0212454     0.0212454     -0.253369     -0.253369    0.00411516    0.00411516
        1.095     0.0213174     0.0213174     -0.253263     -0.253263    0.00413633    0.00413633
          1.1     0.0213901     0.0213901     -0.253158     -0.253158    0.00415677    0.00415677
        1.105     0.0214633     0.0214633     -0.253053     -0.253053     0.0041773     0.0041773
         1.11     0.0215372     0.0215372     -0.252951     -0.252951    0.00419772    0.00419772
        1.115     0.0216123     0.0216123      -0.25285      -0.25285    0.00421843    0.00421843
         1.12      0.021689      0.021689     -0.252753     -0.252753     0.0042396     0.0042396
        1.125     0.0217686     0.0217686     -0.252661     -0.252661    0.00426169    0.00426169
         1.13     0.0218542     0.0218542      -0.25258      -0.25258    0.00428417    0.00428417
        1.135     0.0219558     0.0219558     -0.252524     -0.252524    0.00430948    0.00430948
         1.14     0.0221483     0.0221483     -0.252632     -0.252632    0.00435241    0.00435241
        1.145     0.0221568     0.0221568     -0.252411     -0.252411    0.00436059     0.0043606
         1.15     0.0220671     0.0220671     -0.252042     -0.252042    0.00434984    0.00434985
        1.155     0.0221373     0.0221373     -0.251934     -0.251934    0.00437003    0.00437003
         1.16     0.0222101     0.0222101     -0.251831     -0.251831    0.00439064    0.00439064
        1.165     0.0222839     0.0222839     -0.251729     -0.251729    0.00441157    0.00441157
         1.17     0.0223588     0.0223588     -0.251629     -0.251629    0.00443356    0.00443356
        1.175     0.0224349     0.0224349     -0.251532     -0.251532    0.00445523    0.00445523
         1.18     0.0225131     0.0225131     -0.251438     -0.251438    0.00447704    0.00447704
        1.185     0.0225957     0.0225957     -0.251352     -0.251352    0.00449997    0.00449997
         1.19     0.0226889     0.0226889     -0.251284     -0.251284    0.00452552    0.00452552
        1.195     0.0228257     0.0228257     -0.251289     -0.251289    0.00456079    0.00456079
          1.2     0.0228602     0.0228602     -0.251125     -0.251125    0.00457562    0.00457562
        1.205     0.0227821     0.0227821     -0.250768     -0.250768    0.00456839     0.0045684
         1.21     0.0228501     0.0228501     -0.250655     -0.250655    0.00458908    0.00458907
        1.215     0.0229198     0.0229198     -0.250545     -0.250545    0.00461011    0.00461011
         1.22     0.0229891     0.0229891     -0.250434     -0.250434    0.00463119    0.00463119
        1.225     0.0230567     0.0230567     -0.250319     -0.250319    0.00465205    0.00465205
         1.23     0.0231138     0.0231138     -0.250178     -0.250178    0.00467099    0.00467099
        1.235     0.0232059     0.0232059     -0.250117     -0.250117    0.00469696    0.00469696
         1.24     0.0232784     0.0232784     -0.250014     -0.250014    0.00471814    0.00471815
        1.245     0.0233503     0.0233503     -0.249904     -0.249904    0.00474029    0.00474029
         1.25      0.023423      0.023423     -0.249795     -0.249795    0.00476255    0.00476255
        1.255     0.0234988     0.0234988     -0.249687     -0.249687    0.00478549    0.00478549
         1.26     0.0235801     0.0235801     -0.249569     -0.249569    0.00480953    0.00480953
        1.265     0.0236151     0.0236151     -0.249397     -0.249397    0.00482444    0.00482445
         1.27     0.0236367     0.0236367     -0.249171     -0.249171    0.00483733    0.00483733
        1.275     0.0237097     0.0237097      -0.24898      -0.24898     0.0048607     0.0048607
         1.28     0.0237789     0.0237789     -0.248949     -0.248949    0.00488266    0.00488266
        1.285     0.0238393     0.0238393     -0.249135     -0.249135    0.00490259    0.00490259
         1.29     0.0239091     0.0239091     -0.249064     -0.249064    0.00492513    0.00492513
        1.295      0.023982      0.023982      -0.24896      -0.24896    0.00494882    0.00494882
          1.3     0.0240536     0.0240536      -0.24885      -0.24885    0.00497329    0.00497329
        1.305     0.0241253     0.0241253     -0.248741     -0.248741    0.00499784    0.00499784
         1.31     0.0241972     0.0241972     -0.248635     -0.248635    0.00502125    0.00502125
        1.315     0.0242701     0.0242701     -0.248532     -0.248532    0.00504492    0.00504492
         1.32      0.024345      0.024345     -0.248433     -0.248433    0.00506911    0.00506911
        1.325      0.024424      0.024424     -0.248345     -0.248345    0.00509423    0.00509423
         1.33     0.0245151     0.0245151     -0.248278     -0.248278     0.0051221    0.00512209
        1.335     0.0246298     0.0246298     -0.248258     -0.248258    0.00515418    0.00515418
         1.34     0.0245697     0.0245697     -0.247928     -0.247928    0.00515227    0.00515228
        1.345     0.0245551     0.0245551     -0.247688     -0.247688    0.00515986    0.00515986
         1.35     0.0246389     0.0246389     -0.247623     -0.247623    0.00518691     0.0051869
        1.355     0.0247072     0.0247072     -0.247547     -0.247547    0.00521009     0.0052101
         1.36     0.0247746     0.0247746     -0.247434     -0.247434    0.00523402    0.00523402
        1.365     0.0248447     0.0248447      -0.24725      -0.24725    0.00525816    0.00525816
         1.37     0.0249249     0.0249249     -0.247053     -0.247053    0.00528455    0.00528454
        1.375     0.0251059     0.0251059     -0.247119     -0.247119    0.00533041    0.00533041
         1.38     0.0250472     0.0250472     -0.246828     -0.246828    0.00533077    0.00533078
        1.385     0.0250898     0.0250898     -0.246691     -0.246691     0.0053504     0.0053504
         1.39     0.0251504     0.0251504     -0.246582     -0.246582    0.00537327    0.00537327
        1.395     0.0252174     0.0252174     -0.246481     -0.246481    0.00539782    0.00539783
          1.4      0.025285      0.025285     -0.246382     -0.246382    0.00542302    0.00542302
        1.405      0.025353      0.025353     -0.246283     -0.246283    0.00544956    0.00544956
         1.41     0.0254214     0.0254214     -0.246184     -0.246184    0.00547606    0.00547606
        1.415     0.0254911     0.0254911     -0.246087     -0.246087    0.00550191    0.00550191
         1.42     0.0255619     0.0255619     -0.245994     -0.245994    0.00552756    0.00552756
        1.425     0.0256398     0.0256398     -0.245912     -0.245912    0.00555502    0.00555502
         1.43     0.0257249     0.0257249     -0.245841     -0.245841      0.005584      0.005584
        1.435     0.0257481     0.0257481     -0.245675     -0.245675    0.00560113    0.00560113
         1.44     0.0258187     0.0258187     -0.245579     -0.245579     0.0056283    0.00562829
        1.445     0.0259023     0.0259023     -0.245506     -0.245506    0.00565712    0.00565712
         1.45     0.0260248     0.0260248     -0.245492     -0.245492    0.00569393    0.00569393
        1.455     0.0261334     0.0261334     -0.245452     -0.245452    0.00572852    0.00572852
         1.46     0.0260043     0.0260043     -0.245038     -0.245038    0.00571726    0.00571727
        1.465     0.0260559     0.0260559     -0.244955     -0.244955    0.00574101      0.005741
         1.47     0.0261119     0.0261119     -0.244869     -0.244869    0.00576505    0.00576505
        1.475     0.0261733     0.0261733     -0.244764     -0.244764    0.00579081    0.00579081
         1.48     0.0262348     0.0262348     -0.244659     -0.244659    0.00581727    0.00581726
        1.485     0.0262963     0.0262963     -0.244555     -0.244555    0.00584368    0.00584368
         1.49     0.0263606     0.0263606     -0.244463     -0.244463    0.00587049    0.00587048
        1.495     0.0264268     0.0264268     -0.244369     -0.244369    0.00589769    0.00589769
          1.5     0.0265129     0.0265129     -0.244307     -0.244307    0.00592877    0.00592877
        1.505     0.0265469     0.0265469      -0.24416      -0.24416    0.00595055    0.00595055
         1.51     0.0265455     0.0265455      -0.24395      -0.24395    0.00596691    0.00596691
        1.515     0.0265583     0.0265583     -0.243746     -0.243746    0.00598563    0.00598563