/*--------------------------------*- C++ -*----------------------------------*\
  =========                 |
  \\      /  F ield         | OpenFOAM: The Open Source CFD Toolbox
   \\    /   O peration     | Website:  https://openfoam.org
    \\  /    A nd           | Version:  7
     \\/     M anipulation  |
\*---------------------------------------------------------------------------*/
FoamFile
{
    version     2.0;
    format      ascii;
    class       surfaceScalarField;
    location    "60";
    object      phi;
}
// * * * * * * * * * * * * * * * * * * * * * * * * * * * * * * * * * * * * * //

dimensions      [0 3 -1 0 0 0 0];

internalField   nonuniform List<scalar> 
6855
(
-7.48515e-05
1.65746e-08
5.77829e-08
-0.000609276
9.26412e-10
-0.00149088
2.3813e-09
2.87074e-09
-0.000609276
0.000609277
-0.00149088
0.000881606
-0.00240489
0.00091401
-0.00333377
0.000928885
-0.00429362
0.000959859
-0.00529424
0.00100062
-0.00634543
0.00105119
-0.00745414
0.00110872
-0.00862649
0.00117236
0.00124436
-0.00987084
-0.000599981
0.00120926
-0.00147313
0.00175476
-0.00238023
0.00182111
-0.00330251
0.00185116
-0.00425579
0.00191314
-0.00524985
0.00199469
-0.00629454
0.00209587
-0.00739699
0.00221118
-0.00856345
0.00233882
0.00248301
-0.0098021
-0.000581481
0.00179074
-0.00143775
0.00261102
-0.00233099
0.00271436
-0.00324006
0.00276023
-0.0041802
0.00285328
-0.00516112
0.00297561
-0.0061927
0.00312744
-0.0072825
0.00330098
-0.00843678
0.0034931
0.0037092
-0.00966297
-0.000554062
0.0023448
-0.00138499
0.00344195
-0.00225732
0.00358669
-0.00314665
0.00364957
-0.0040672
0.00377383
-0.00502846
0.00393687
-0.00604022
0.00413919
-0.00711059
0.00437135
-0.00824599
0.00462851
0.0049155
-0.00945229
-0.000518743
0.00286354
-0.0013151
0.0042383
-0.00215921
0.0044308
-0.00302228
0.00451264
-0.00391671
0.00466826
-0.00485169
0.00487185
-0.00583686
0.00512436
-0.00688117
0.00541566
-0.00799113
0.00573846
0.00609443
-0.00917005
-0.000477642
0.00334119
-0.00122813
0.00498879
-0.00203703
0.0052397
-0.00286787
0.00534347
-0.00373048
0.00553086
-0.00463344
0.00577481
-0.00558563
0.00607656
-0.00659665
0.00642668
-0.00767378
0.0068156
0.00723802
-0.00881738
-0.000424901
0.00376609
-0.00112277
0.00568666
-0.00189055
0.00600748
-0.00268301
0.00613594
-0.0035071
0.00635495
-0.00437069
0.00663841
-0.00528171
0.00698757
-0.00625115
0.00739612
-0.00729068
0.00785512
0.00834268
-0.00839533
-0.000362027
0.00412811
-0.000999369
0.006324
-0.00172012
0.00672822
-0.002469
0.00688483
-0.00324987
0.00713582
-0.00407065
0.00745918
-0.00493784
0.00785476
-0.00586045
0.00831874
-0.00685323
0.0088479
0.0093992
-0.00790975
-0.000290005
0.00441812
-0.000858617
0.00689262
-0.00152617
0.00739577
-0.00222611
0.00758477
-0.0029578
0.00786752
-0.00372823
0.0082296
-0.00454103
0.00866756
-0.00540013
0.00917785
-0.00632517
0.00977293
0.0104268
-0.00735274
-0.00020914
0.00462726
-0.000701227
0.0073847
-0.00130928
0.00800382
-0.00195536
0.00823085
-0.00263315
0.00854531
-0.0033494
0.00894586
-0.00410935
0.0094275
-0.00491575
0.00998425
-0.00576957
0.0106268
0.011426
-0.00676883
-0.000118945
0.0047462
-0.00052838
0.00779414
-0.00107028
0.00854572
-0.00165794
0.00881851
-0.00227758
0.00916494
-0.00293431
0.00960259
-0.00363291
0.0101261
-0.00437619
0.0107275
-0.00516804
0.0114186
0.0121992
-0.00594123
-1.28333e-05
0.00475904
-0.000341347
0.00812265
-0.000809429
0.0090138
-0.00133503
0.00934411
-0.00189253
0.00972245
-0.00248504
0.0101951
-0.00311685
0.0107579
-0.00378946
0.0114001
-0.0044981
0.0121272
0.012952
-0.0052509
7.32846e-05
0.00468575
-0.0001393
0.00833524
-0.00052887
0.00940337
-0.000988348
0.00980359
-0.00148004
0.0102141
-0.00200519
0.0107202
-0.00256784
0.0113206
-0.00317233
0.0120046
-0.00382028
0.0127752
0.0136366
-0.00450488
0.000166861
0.00451889
7.55844e-05
0.00842651
-0.00023306
0.00971202
-0.000619551
0.0101901
-0.00104207
0.0106367
-0.00149759
0.0111758
-0.00198856
0.0118115
-0.00252062
0.0125367
-0.00309264
0.0133472
0.0142453
-0.0037013
0.000262122
0.00425677
0.000287016
0.00840162
7.80529e-05
0.00992098
-0.000231409
0.0104995
-0.000581134
0.0109864
-0.000964145
0.0115588
-0.00137951
0.0122269
-0.0018339
0.0129911
-0.00232589
0.0138392
0.0147708
-0.00285137
0.000353563
0.00390321
0.000507953
0.00824723
0.000409625
0.0100193
0.000178248
0.0107309
-0.000101522
0.0112662
-0.000407186
0.0118644
-0.000743564
0.0125633
-0.00111494
0.0133625
-0.0015243
0.0142486
0.0152091
-0.00196264
0.000435666
0.00346754
0.000727898
0.007955
0.000747102
0.0100001
0.000608528
0.0108695
0.000407224
0.0114675
0.000173103
0.0120986
-8.72617e-05
0.0128236
-0.000369816
0.013645
-0.000688133
0.0145669
0.0155603
-0.00103933
0.000501354
0.00296619
0.000937712
0.00751864
0.00108768
0.00985013
0.00104888
0.0109083
0.000930687
0.0115857
0.000778242
0.012251
0.000601749
0.0130001
0.000400435
0.0138463
0.000178059
0.0147892
0.015832
-9.36795e-05
0.000542598
0.00242359
0.00112714
0.0069341
0.00142316
0.00955411
0.00149601
0.0108355
0.00146596
0.0116157
0.00139576
0.0123212
0.00130348
0.0130924
0.00119161
0.0139582
0.0010572
0.0149237
0.0159765
0.000912704
0.000552538
0.00187105
0.00128378
0.00620286
0.00174132
0.00909657
0.00194194
0.0106348
0.00200904
0.0115486
0.00202396
0.0123063
0.00201679
0.0130996
0.00199517
0.0139798
0.00195976
0.0149591
0.016018
0.00191826
0.000528398
0.00134265
0.0013937
0.00533756
0.00202634
0.00846394
0.00237473
0.0102864
0.00255307
0.0113703
0.0026588
0.0122006
0.00273823
0.0130202
0.00280702
0.013911
0.00286758
0.0148985
0.0159647
0.0029209
0.000472779
0.000869873
0.00144199
0.00436834
0.00225722
0.0076487
0.00277841
0.00976524
0.00308793
0.0110608
0.00329404
0.0119944
0.00346279
0.0128514
0.00362136
0.0137525
0.00377562
0.0147442
0.0158145
0.00392582
0.000393102
0.000476771
0.00140579
0.00335566
0.00240749
0.006647
0.00312948
0.00904325
0.0035975
0.0105927
0.00392033
0.0116716
0.00418409
0.0125876
0.0044336
0.013503
0.00468261
0.0144952
0.0155671
0.00493002
0.000301653
0.000175118
0.00128032
0.002377
0.00244901
0.00547831
0.00339454
0.00809772
0.00405595
0.00993132
0.00452216
0.0112054
0.00489433
0.0122155
0.00523726
0.01316
0.00558225
0.0141502
0.0152199
0.00592947
0.000213741
-3.86222e-05
0.00108259
0.00150814
0.00235472
0.00420619
0.00352961
0.00692283
0.0044243
0.00903663
0.0050737
0.010556
0.00557849
0.0117107
0.00602623
0.0127123
0.00646696
0.0137095
0.0147795
0.00690737
0.000141184
-0.000179806
0.000845823
0.000803503
0.00210979
0.00294222
0.00348333
0.00554929
0.00464501
0.00787495
0.00553087
0.00967013
0.0062116
0.01103
0.00678258
0.0121413
0.00733286
0.0131592
0.0142437
0.00786866
8.66214e-05
-0.000266427
0.000610873
0.000279252
0.00173741
0.00181568
0.00321189
0.00407481
0.004642
0.00644484
0.00582082
0.00849131
0.00674254
0.0101082
0.00748539
0.0113984
0.0081523
0.0124923
0.0135974
0.00879858
4.76769e-05
-0.000314104
0.0004113
-8.43716e-05
0.00130996
0.000917016
0.00272076
0.00266401
0.00433401
0.0048316
0.00583672
0.00698861
0.00708054
0.00886443
0.00806827
0.0104107
0.00892326
0.0116373
0.0128617
0.00965894
2.1589e-05
-0.000335693
0.000260461
-0.000323243
0.00091202
0.000265457
0.00209928
0.00147676
0.00370691
0.00322396
0.00544736
0.00524816
0.0070765
0.00723529
0.00841521
0.00907199
0.00954025
0.0105123
0.0118905
0.0105115
6.0784e-06
-0.000341772
0.000155523
-0.000472688
0.000595651
-0.000174671
0.00148441
0.000588004
0.00287433
0.00183404
0.00463313
0.00348936
0.00652657
0.00534185
0.0083197
0.00727887
0.00985507
0.00897693
0.0107493
0.0109963
-2.10351e-06
-0.000339668
8.67788e-05
-0.000561571
0.000369028
-0.000456921
0.000976572
-1.95402e-05
0.00202869
0.000781924
0.003562
0.00195604
0.00543288
0.00347096
0.00748013
0.00523162
0.00959008
0.00686698
0.00910591
0.0112334
-6.50764e-06
-0.000333161
4.17401e-05
-0.000609818
0.000213182
-0.000628363
0.000601075
-0.000407433
0.00132028
6.27154e-05
0.00247947
0.000796858
0.00405941
0.00189102
0.00602302
0.00326801
0.00838203
0.00450797
0.00698564
0.0105023
-9.62657e-06
-0.000323534
8.19107e-06
-0.000627636
0.000100249
-0.000720421
0.000330999
-0.000638183
0.000784404
-0.000390689
0.00155469
2.65728e-05
0.00273393
0.000711786
0.00431702
0.00168491
0.00639308
0.00243191
0.00461371
0.00876501
-1.45459e-05
-0.000308988
-2.48138e-05
-0.000617368
5.84695e-06
-0.000751082
0.000121759
-0.000754095
0.000378787
-0.000647717
0.000839204
-0.000433844
0.00162097
-6.99773e-05
0.00273349
0.000572386
0.00426415
0.000901259
0.00247403
0.00640383
-2.29898e-05
-0.000285998
-6.15431e-05
-0.000578815
-8.46604e-05
-0.000727964
-5.96837e-05
-0.000779072
5.30708e-05
-0.000760472
0.000285142
-0.000665915
0.000730765
-0.0005156
0.00143459
-0.00013144
0.00239494
-5.9088e-05
0.000944731
0.00392424
-3.44245e-05
-0.000251574
-0.000102328
-0.000510911
-0.000175177
-0.000655115
-0.000226991
-0.000727258
-0.000234205
-0.000753257
-0.000166419
-0.000733702
3.17642e-05
-0.000713783
0.000376853
-0.000476529
0.000871745
-0.000553979
7.34491e-05
0.00174303
-4.73888e-05
-0.000204185
-0.000144097
-0.000414203
-0.000262172
-0.00053704
-0.000380352
-0.000609078
-0.000481829
-0.00065178
-0.0005419
-0.000673631
-0.000564089
-0.000691595
-0.000454513
-0.000586105
-0.000320645
-0.000687847
-0.000291284
4.40878e-05
-5.97994e-05
-0.000144386
-0.000181872
-0.00029213
-0.000337837
-0.000381076
-0.000509329
-0.000437586
-0.000683736
-0.000477373
-0.000848993
-0.000508374
-0.00100898
-0.000531609
-0.00109142
-0.000503661
-0.00121451
-0.000564759
-0.000379887
-0.00112591
-6.95202e-05
-7.48654e-05
-0.000210508
-0.000151143
-0.000393828
-0.000197755
-0.000602846
-0.000228568
-0.000828317
-0.000251901
-0.0010648
-0.000271891
-0.00130956
-0.000286854
-0.00152727
-0.000285943
-0.00177994
-0.000312088
-0.000249028
-0.0019108
-7.48488e-05
-0.000225934
-0.000423589
-0.000652011
-0.000903713
-0.00117533
-0.00146183
-0.00174731
-0.00205881
-0.00230712
-0.0100946
0.000223752
-0.0102663
0.00017173
-0.0104169
0.000150592
-0.0105351
0.000118227
-0.0106364
0.00010126
-0.0107163
7.9884e-05
-0.010783
6.67803e-05
-0.0108351
5.21074e-05
-0.0108772
4.20824e-05
-0.0109089
3.16641e-05
-0.0109328
2.39579e-05
-0.0109492
1.63198e-05
-0.0109595
1.03365e-05
-0.0109642
4.67263e-06
-0.0109645
3.12715e-07
-0.01096
-4.49593e-06
-0.0109515
-8.4667e-06
-0.0109394
-1.2096e-05
-0.0109241
-1.52601e-05
-0.010906
-1.81872e-05
-0.0108852
-2.0796e-05
-0.0108619
-2.32242e-05
-0.0108365
-2.54313e-05
-0.010809
-2.7503e-05
-0.0107796
-2.94224e-05
-0.0107483
-3.12425e-05
-0.0107154
-3.29607e-05
-0.0106808
-3.46218e-05
-0.0106445
-3.62504e-05
-3.78986e-05
-0.0100286
0.000450258
-0.0102023
0.000345373
-0.0103547
0.000303058
-0.0104746
0.000238097
-0.0105777
0.000204344
-0.0106594
0.000161618
-0.0107282
0.000135585
-0.0107824
0.000106299
-0.0108267
8.63634e-05
-0.0108606
6.5568e-05
-0.0108868
5.02197e-05
-0.0109055
3.49694e-05
-0.0109182
2.30399e-05
-0.0109252
1.16905e-05
-0.0109277
2.74491e-06
-0.0109257
-6.47114e-06
-0.0109197
-1.44142e-05
-0.0109101
-2.17259e-05
-0.0108973
-2.80497e-05
-0.0108816
-3.39204e-05
-0.0108632
-3.91344e-05
-0.0108425
-4.39972e-05
-0.0108195
-4.84123e-05
-0.0107944
-5.25612e-05
-0.0107674
-5.64032e-05
-0.0107386
-6.00489e-05
-0.0107081
-6.34904e-05
-0.0106759
-6.6819e-05
-0.0106421
-7.0081e-05
-7.3379e-05
-0.00989454
0.000681819
-0.0100721
0.000522899
-0.0102286
0.000459599
-0.0103522
0.000361685
-0.0104593
0.000311465
-0.0105451
0.000247379
-0.0106182
0.000208685
-0.0106767
0.000164846
-0.0107255
0.000135172
-0.010764
0.000104046
-0.0107949
8.11556e-05
-0.0108183
5.83273e-05
-0.0108358
4.04969e-05
-0.0108475
2.33837e-05
-0.0108543
9.64248e-06
-0.0108574
-3.38356e-06
-0.0108564
-1.54462e-05
-0.0108517
-2.64601e-05
-0.0108438
-3.59273e-05
-0.010833
-4.47479e-05
-0.0108195
-5.25694e-05
-0.0108037
-5.98765e-05
-0.0107856
-6.65069e-05
-0.0107654
-7.27428e-05
-0.0107433
-7.85153e-05
-0.0107193
-8.39977e-05
-0.0106936
-8.91737e-05
-0.0106663
-9.41824e-05
-0.0106373
-9.9087e-05
-0.000104038
-0.00969068
0.000920207
-0.009874
0.000706219
-0.010037
0.000622635
-0.0101667
0.000491395
-0.0102805
0.000425182
-0.0103727
0.000339656
-0.0104527
0.000288601
-0.010518
0.000230216
-0.0105738
0.000190984
-0.0106193
0.000149552
-0.0106574
0.000119222
-0.0106879
8.88317e-05
-0.0107126
6.51491e-05
-0.0107314
4.22495e-05
-0.0107454
2.36508e-05
-0.0107553
6.43255e-06
-0.0107617
-8.95499e-06
-0.0107644
-2.37756e-05
-0.0107639
-3.64444e-05
-0.0107604
-4.82449e-05
-0.0107543
-5.86849e-05
-0.0107457
-6.845e-05
-0.0107349
-7.7308e-05
-0.010722
-8.56445e-05
-0.0107072
-9.33631e-05
-0.0106905
-0.0001007
-0.010672
-0.000107627
-0.0106519
-0.000114334
-0.0106301
-0.000120895
-0.000127502
-0.00941685
0.001167
-0.00960788
0.00089725
-0.00977993
0.000794682
-0.00991827
0.000629738
-0.0100412
0.000548138
-0.0101426
0.000441035
-0.0102319
0.000377932
-0.0103067
0.000304967
-0.010372
0.000256339
-0.0104271
0.000204597
-0.0104748
0.000166904
-0.0105149
0.000128946
-0.0105492
9.94488e-05
-0.0105777
7.07958e-05
-0.0106015
4.74367e-05
-0.0106204
2.53075e-05
-0.0106364
7.00931e-06
-0.0106489
-1.11973e-05
-0.0106581
-2.72407e-05
-0.0106644
-4.19882e-05
-0.010668
-5.511e-05
-0.0106691
-6.73453e-05
-0.0106679
-7.84439e-05
-0.0106647
-8.89139e-05
-0.0106594
-9.8599e-05
-0.0106523
-0.000107809
-0.0106434
-0.000116512
-0.0106328
-0.000124944
-0.0106205
-0.000133177
-0.000141443
-0.00907397
0.00142359
-0.00927445
0.00109773
-0.00945777
0.000978011
-0.0096072
0.000779165
-0.00974207
0.000683003
-0.00985525
0.000554219
-0.00995669
0.000479367
-0.0100435
0.000391752
-0.010121
0.000333821
-0.0101881
0.000271726
-0.0102479
0.000226697
-0.0103001
0.00018114
-0.0103464
0.000145826
-0.0103871
0.000111409
-0.010423
8.33762e-05
-0.0104543
5.66337e-05
-0.0104813
3.40052e-05
-0.0105055
1.29342e-05
-0.0105273
-5.44227e-06
-0.0105455
-2.37808e-05
-0.010561
-3.95359e-05
-0.0105742
-5.42139e-05
-0.010585
-6.76208e-05
-0.0105936
-8.02676e-05
-0.0106003
-9.19172e-05
-0.0106051
-0.000103036
-0.010608
-0.000113559
-0.0106092
-0.000123746
-0.0106088
-0.000133668
-0.000143594
-0.00866406
0.00169232
-0.0088758
0.00130946
-0.00907302
0.00117524
-0.0092361
0.000942245
-0.00938527
0.000832173
-0.00951277
0.000681715
-0.00962867
0.000595275
-0.00972999
0.000493063
-0.00982201
0.000425844
-0.00990368
0.000353402
-0.00997799
0.000301004
-0.0100447
0.000247821
-0.0101055
0.000206651
-0.0101605
0.000166437
-0.0102109
0.000133715
-0.0102567
0.000102444
-0.0102986
7.59565e-05
-0.0103366
5.09358e-05
-0.0103713
2.91901e-05
-0.0104041
9.09481e-06
-0.0104343
-9.32134e-06
-0.0104616
-2.70113e-05
-0.0104866
-4.26124e-05
-0.0105095
-5.73721e-05
-0.0105303
-7.11168e-05
-0.0105491
-8.41978e-05
-0.0105661
-9.65757e-05
-0.0105813
-0.000108541
-0.0105948
-0.00012018
-0.000131762
-0.00819029
0.00197286
-0.0084148
0.00153397
-0.00862657
0.00138701
-0.00880521
0.00112088
-0.00897089
0.000997855
-0.00911551
0.000826334
-0.0092487
0.000728468
-0.00936734
0.000611701
-0.00947659
0.000535095
-0.00957539
0.000452198
-0.00966669
0.000392308
-0.00975025
0.000331382
-0.00982786
0.000284258
-0.00989957
0.000238148
-0.00996652
0.000200665
-0.0100289
0.000164812
-0.0100874
0.000134502
-0.0101423
0.000105815
-0.0101939
8.08171e-05
-0.0102422
5.73519e-05
-0.0102879
3.63978e-05
-0.0103316
1.66624e-05
-0.0103737
-5.05224e-07
-0.0104127
-1.83866e-05
-0.0104496
-3.42279e-05
-0.0104846
-4.91285e-05
-0.0105178
-6.33786e-05
-0.0105491
-7.7241e-05
-0.0105787
-9.06341e-05
-0.000103846
-0.00765387
0.00227399
-0.00789498
0.00177508
-0.00812456
0.00161659
-0.0083231
0.00131942
-0.008507
0.00118176
-0.0086709
0.000990235
-0.00882263
0.0008802
-0.00896037
0.000749439
-0.00908844
0.000663169
-0.00920626
0.000570012
-0.00931645
0.000502497
-0.00941892
0.000433856
-0.00951535
0.000380692
-0.00960586
0.000328651
-0.00969152
0.000286332
-0.00977254
0.000245827
-0.00984966
0.000211621
-0.00992311
0.000179265
-0.0099934
0.000151105
-0.0100606
0.000124551
-0.010125
0.000100809
-0.0101869
7.8523e-05
-0.0102458
5.83799e-05
-0.0103033
3.91261e-05
-0.0103588
2.12611e-05
-0.0104123
4.45744e-06
-0.0104637
-1.2038e-05
-0.010513
-2.7916e-05
-0.0105606
-4.30281e-05
-5.78561e-05
-0.00708199
0.00258716
-0.00733209
0.00202518
-0.00757252
0.00185701
-0.00778595
0.00153285
-0.00798886
0.00138467
-0.0081732
0.00117457
-0.00834768
0.00105469
-0.00850747
0.000909223
-0.00865819
0.000813892
-0.00879787
0.000709689
-0.00892997
0.000634602
-0.00905379
0.000557678
-0.00917149
0.000498387
-0.00928289
0.000440051
-0.00938936
0.0003928
-0.00949095
0.000347419
-0.00958855
0.000309223
-0.00968231
0.000273021
-0.0097728
0.000241601
-0.0098602
0.00021195
-0.00994493
0.00018554
-0.0100271
0.000160661
-0.0101067
0.00013798
-0.010184
0.000116446
-0.0102593
9.65658e-05
-0.0103324
7.75879e-05
-0.0104038
5.93401e-05
-0.0104732
4.15212e-05
-0.0105407
2.4435e-05
8.04218e-06
-0.0126691
0.00237765
0.0128786
-0.0125757
0.00193176
-0.0125696
0.00185092
-0.0125678
0.001531
-0.0125997
0.00141656
-0.0126247
0.00119962
-0.0126648
0.00109482
-0.0126999
0.000944286
-0.0127408
0.000854764
-0.0127774
0.000746299
-0.0128153
0.000672511
-0.0128495
0.000591927
-0.012883
0.000531877
-0.0129133
0.000470358
-0.012942
0.00042148
-0.0129679
0.000373314
-0.0129919
0.000333208
-0.0130134
0.000294565
-0.013033
0.000261214
-0.0130505
0.000229431
-0.0130662
0.00020122
-0.01308
0.000174419
-0.013092
0.000149999
-0.0131023
0.000126761
-0.013111
0.000105234
-0.0131179
8.45313e-05
-0.0131234
6.48107e-05
-0.0131275
4.5616e-05
-0.0131302
2.71453e-05
8.98639e-06
-0.0128882
0.00221408
0.0130517
-0.0128256
0.00186916
-0.0127566
0.00178193
-0.0127398
0.00151428
-0.0127347
0.00141137
-0.0127467
0.0012117
-0.0127649
0.00111293
-0.0127879
0.000967292
-0.0128141
0.000880993
-0.0128409
0.000773068
-0.0128686
0.000700265
-0.0128952
0.000618561
-0.0129215
0.000558109
-0.012946
0.000494882
-0.0129694
0.000444873
-0.0129909
0.000394854
-0.013011
0.000353301
-0.0130293
0.000312842
-0.013046
0.000277952
-0.0130611
0.00024447
-0.0130746
0.000214739
-0.0130865
0.000186352
-0.013097
0.000160501
-0.0131061
0.000135799
-0.0131137
0.000112827
-0.0131198
9.06836e-05
-0.0131246
6.96302e-05
-0.0131282
4.91532e-05
-0.0131304
2.935e-05
9.73832e-06
-0.0130712
0.00206873
0.0132165
-0.0129987
0.00179667
-0.0129238
0.00170709
-0.0128926
0.00148303
-0.012866
0.00138481
-0.0128629
0.00120859
-0.0128639
0.00111388
-0.0128749
0.000978319
-0.0128881
0.00089423
-0.0129053
0.000790259
-0.0129234
0.000718298
-0.0129425
0.000637662
-0.0129614
0.000577084
-0.0129801
0.000513563
-0.0129981
0.000462837
-0.0130151
0.000411908
-0.0130311
0.000369322
-0.013046
0.000327701
-0.0130597
0.000291643
-0.0130722
0.000256925
-0.0130834
0.000225984
-0.0130934
0.000196365
-0.0131022
0.000169332
-0.0131099
0.000143431
-0.0131163
0.000119271
-0.0131216
9.59526e-05
-0.0131257
7.37606e-05
-0.0131287
5.21415e-05
-0.0131305
3.11672e-05
1.03459e-05
-0.0132254
0.00193961
0.0133545
-0.0131412
0.0017125
-0.0130657
0.00163158
-0.0130225
0.0014398
-0.0129855
0.00134778
-0.012969
0.00119206
-0.0129573
0.00110223
-0.012957
0.000977985
-0.0129594
0.000896681
-0.0129675
0.000798305
-0.0129769
0.000727677
-0.0129887
0.000649505
-0.0130009
0.0005893
-0.0130139
0.000526552
-0.0130266
0.000475587
-0.0130393
0.000424538
-0.0130513
0.00038135
-0.0130628
0.000339154
-0.0130734
0.0003023
-0.0130833
0.000266785
-0.0130922
0.000234952
-0.0131003
0.000204441
-0.0131075
0.00017648
-0.0131137
0.000149649
-0.013119
0.000124546
-0.0131233
0.000100294
-0.0131267
7.71651e-05
-0.0131292
5.45955e-05
-0.0131306
3.26465e-05
1.08385e-05
-0.0133511
0.00182089
0.0134698
-0.0132628
0.00162422
-0.0131862
0.00155491
-0.013134
0.00138763
-0.0130903
0.00130415
-0.0130635
0.00116524
-0.0130427
0.00108144
-0.0130326
0.000967812
-0.0130262
0.000890352
-0.013026
0.000798041
-0.0130279
0.000729564
-0.0130329
0.000654585
-0.013039
0.000595408
-0.0130466
0.000534139
-0.0130545
0.000483476
-0.0130629
0.000432907
-0.0130711
0.00038957
-0.0130792
0.000347286
-0.0130869
0.00031001
-0.0130943
0.000274093
-0.013101
0.000241681
-0.0131071
0.000210598
-0.0131126
0.000181971
-0.0131175
0.000154474
-0.0131216
0.000128661
-0.013125
0.000103702
-0.0131277
7.98401e-05
-0.0131296
5.65257e-05
-0.0131307
3.3808e-05
1.12264e-05
-0.0134537
0.00170876
0.0135658
-0.0133655
0.00153605
-0.013288
0.00147738
-0.0132302
0.0013298
-0.0131815
0.00125545
-0.013147
0.0011308
-0.0131193
0.00105372
-0.0131012
0.000949695
-0.0130877
0.000876847
-0.0130802
0.000790583
-0.0130757
0.000724995
-0.0130747
0.000653573
-0.0130753
0.000596052
-0.0130779
0.000536729
-0.0130813
0.000486893
-0.0130857
0.000437258
-0.0130903
0.000394207
-0.0130952
0.000352237
-0.0131001
0.000314903
-0.013105
0.000278925
-0.0131095
0.000246243
-0.0131138
0.000214876
-0.0131177
0.000185846
-0.0131211
0.000157933
-0.0131241
0.000131639
-0.0131266
0.000106191
-0.0131286
8.18009e-05
-0.01313
5.79462e-05
-0.0131308
3.46633e-05
1.15132e-05
-0.0135382
0.00160174
0.0136452
-0.0134515
0.00144943
-0.0133739
0.0013997
-0.0133129
0.00126878
-0.0132604
0.00120295
-0.0132204
0.00109083
-0.0131872
0.00102056
-0.0131629
0.000925346
-0.0131435
0.000857457
-0.01313
0.000777095
-0.0131199
0.000714881
-0.0131135
0.000647215
-0.0131093
0.000591843
-0.0131074
0.000534792
-0.0131067
0.000486231
-0.0131074
0.000437884
-0.0131087
0.000395509
-0.0131106
0.000354188
-0.0131128
0.000317132
-0.0131153
0.000281394
-0.0131178
0.000248728
-0.0131203
0.000217343
-0.0131226
0.00018816
-0.0131247
0.000160067
-0.0131266
0.000133514
-0.0131282
0.000107788
-0.0131295
8.30705e-05
-0.0131304
5.88746e-05
-0.0131309
3.52235e-05
1.17021e-05
-0.0136079
0.00149939
0.0137102
-0.0135233
0.00136485
-0.0134461
0.00132254
-0.0133835
0.00120613
-0.0133284
0.00114786
-0.0132845
0.00104696
-0.0132471
0.000983164
-0.0132179
0.000896138
-0.0131937
0.000833257
-0.0131752
0.000758627
-0.0131604
0.000700041
-0.0131494
0.000636243
-0.0131409
0.000583357
-0.013135
0.00052882
-0.0131306
0.000481884
-0.0131278
0.000435109
-0.0131261
0.00039374
-0.0131252
0.00035335
-0.013125
0.000316868
-0.0131252
0.000281635
-0.0131257
0.000249247
-0.0131265
0.000218085
-0.0131273
0.000188983
-0.0131281
0.00016093
-0.013129
0.000134329
-0.0131297
0.000108525
-0.0131303
8.36763e-05
-0.0131308
5.93305e-05
-0.013131
3.55009e-05
1.17968e-05
-0.0136652
0.00140154
0.0137631
-0.0135829
0.00128256
-0.0135068
0.00124639
-0.0134435
0.0011428
-0.0133867
0.00109115
-0.0133401
0.00100036
-0.0132995
0.000942555
-0.0132666
0.000863165
-0.0132385
0.000805162
-0.0132159
0.000736083
-0.0131971
0.000681212
-0.0131822
0.00062133
-0.01317
0.000571142
-0.0131604
0.000519292
-0.0131528
0.00047424
-0.0131469
0.000429263
-0.0131424
0.000389166
-0.013139
0.000349948
-0.0131364
0.000314293
-0.0131346
0.000279797
-0.0131332
0.000247923
-0.0131324
0.000217202
-0.0131318
0.000188396
-0.0131314
0.000160585
-0.0131312
0.000134134
-0.0131311
0.000108443
-0.0131311
8.36493e-05
-0.0131311
5.93361e-05
-0.0131311
3.55089e-05
1.18018e-05
-0.0137122
0.00130801
0.0138057
-0.0136323
0.00120271
-0.0135576
0.00117164
-0.0134942
0.00107943
-0.0134366
0.00103356
-0.0133882
0.000951919
-0.0133452
0.000899589
-0.0133093
0.000827304
-0.0132781
0.000773957
-0.0132523
0.000710219
-0.0132301
0.00065905
-0.0132119
0.000603078
-0.0131964
0.000555704
-0.0131838
0.000506659
-0.0131732
0.000463674
-0.0131646
0.000420672
-0.0131575
0.000382057
-0.0131518
0.00034421
-0.0131471
0.000309596
-0.0131433
0.00027604
-0.0131403
0.000244886
-0.0131379
0.000214801
-0.013136
0.000186487
-0.0131345
0.000159105
-0.0131334
0.000132988
-0.0131325
0.000107586
-0.0131319
8.3024e-05
-0.0131315
5.89156e-05
-0.0131312
3.52619e-05
1.17217e-05
-0.0137503
0.00121862
0.0138397
-0.013673
0.00112536
-0.0135999
0.00109855
-0.0135369
0.00101645
-0.013479
0.000975663
-0.0134294
0.000902302
-0.0133848
0.000854955
-0.0133467
0.000789259
-0.0133131
0.000740309
-0.0132845
0.000681671
-0.0132596
0.000634131
-0.0132385
0.000582019
-0.0132203
0.000537509
-0.013205
0.000491333
-0.0131919
0.000450541
-0.0131809
0.000409647
-0.0131715
0.000372676
-0.0131636
0.000336363
-0.013157
0.000302969
-0.0131515
0.000270527
-0.0131469
0.000240272
-0.0131431
0.000210998
-0.0131399
0.00018335
-0.0131374
0.000156566
-0.0131354
0.000130952
-0.0131338
0.000106005
-0.0131326
8.18376e-05
-0.0131318
5.8095e-05
-0.0131313
3.47754e-05
1.15618e-05
-0.0137811
0.00113312
0.0138666
-0.0137062
0.00105051
-0.0136349
0.00102729
-0.0135727
0.000954191
-0.0135149
0.000917873
-0.0134646
0.000852005
-0.0134188
0.000809194
-0.0133792
0.000749591
-0.0133436
0.000704773
-0.0133129
0.000650977
-0.0132858
0.000606955
-0.0132624
0.000558614
-0.0132418
0.000516973
-0.0132242
0.000473692
-0.0132088
0.000435173
-0.0131956
0.000396478
-0.0131842
0.000361276
-0.0131745
0.000326628
-0.0131661
0.000294598
-0.013159
0.000263417
-0.013153
0.000234216
-0.0131479
0.000205907
-0.0131436
0.000179081
-0.0131401
0.000153049
-0.0131372
0.000128091
-0.013135
0.000103751
-0.0131333
8.01288e-05
-0.0131321
5.69017e-05
-0.0131314
3.40655e-05
1.13275e-05
-0.0138056
0.00105129
0.0138874
-0.0137332
0.000978104
-0.0136638
0.000957928
-0.0136025
0.000892861
-0.0135451
0.000860493
-0.0134945
0.000801409
-0.013448
0.000762731
-0.0134072
0.000708753
-0.0133702
0.000667804
-0.0133378
0.000618582
-0.0133088
0.000577949
-0.0132835
0.000533265
-0.013261
0.000494466
-0.0132413
0.000454071
-0.013224
0.000417871
-0.013209
0.000381436
-0.0131958
0.000348096
-0.0131844
0.000315212
-0.0131745
0.000284667
-0.0131659
0.00025487
-0.0131586
0.000226854
-0.0131523
0.000199643
-0.013147
0.000173776
-0.0131426
0.000148633
-0.013139
0.000124471
-0.0131361
0.000100875
-0.0131339
7.79372e-05
-0.0131324
5.53636e-05
-0.0131314
3.31488e-05
1.10241e-05
-0.0138248
0.000972895
0.0139032
-0.0137548
0.000908073
-0.0136874
0.000890486
-0.0136271
0.0008326
-0.0135703
0.000803741
-0.0135197
0.0007508
-0.0134729
0.000715894
-0.0134312
0.000667103
-0.0133932
0.000629774
-0.0133595
0.00058486
-0.013329
0.000547477
-0.0133021
0.000506318
-0.0132779
0.000470313
-0.0132566
0.00043277
-0.0132377
0.000398909
-0.013221
0.000364767
-0.0132063
0.000333355
-0.0131934
0.000302312
-0.013182
0.000273346
-0.0131722
0.000245034
-0.0131637
0.000218316
-0.0131563
0.000192318
-0.0131501
0.000167531
-0.0131449
0.0001434
-0.0131405
0.000120157
-0.0131371
9.743e-05
-0.0131345
7.53029e-05
-0.0131326
5.35088e-05
-0.0131315
3.20421e-05
1.06574e-05
-0.0138397
0.000897677
0.013915
-0.013772
0.000840305
-0.0137064
0.000824939
-0.0136473
0.000773489
-0.0135913
0.000747759
-0.0135409
0.000700393
-0.013494
0.000668935
-0.0134518
0.000624928
-0.013413
0.000590984
-0.0133783
0.00055012
-0.0133466
0.000515842
-0.0133184
0.000478068
-0.0132929
0.000444795
-0.0132701
0.000410054
-0.0132498
0.000378532
-0.0132317
0.000346696
-0.0132156
0.000317256
-0.0132014
0.00028811
-0.0131888
0.000260798
-0.0131779
0.000234053
-0.0131683
0.000208727
-0.01316
0.00018404
-0.0131529
0.000160438
-0.0131469
0.000137425
-0.013142
0.000115213
-0.013138
9.34677e-05
-0.013135
7.22651e-05
-0.0131328
5.1365e-05
-0.0131316
3.07619e-05
1.02327e-05
-0.013851
0.000825397
0.0139233
-0.0137854
0.000774677
-0.0137217
0.000761229
-0.0136638
0.000715563
-0.0136086
0.000692638
-0.0135586
0.000650338
-0.0135117
0.000622044
-0.0134692
0.00058245
-0.0134299
0.000551673
-0.0133944
0.000514614
-0.0133619
0.0004833
-0.0133326
0.000448769
-0.0133059
0.000418154
-0.013282
0.000386154
-0.0132604
0.000356955
-0.0132412
0.000327422
-0.0132239
0.000299982
-0.0132086
0.000272771
-0.0131949
0.000247171
-0.0131829
0.00022206
-0.0131724
0.000198204
-0.0131633
0.000174911
-0.0131554
0.000152585
-0.0131488
0.000130785
-0.0131433
0.000109701
-0.0131389
8.90378e-05
-0.0131355
6.88622e-05
-0.013133
4.89594e-05
-0.0131316
2.93244e-05
9.75557e-06
-0.0138594
0.000755813
0.0139289
-0.0137957
0.000711054
-0.0137338
0.000699274
-0.013677
0.000658822
-0.0136228
0.000638426
-0.0135732
0.000600742
-0.0135265
0.000575357
-0.0134839
0.000539842
-0.0134443
0.000512033
-0.0134082
0.000478547
-0.013375
0.00045006
-0.0133449
0.000418631
-0.0133173
0.000390599
-0.0132924
0.000361269
-0.0132698
0.000334369
-0.0132495
0.000307123
-0.0132312
0.000281699
-0.0132149
0.000256446
-0.0132004
0.000232604
-0.0131875
0.000209177
-0.0131761
0.000186856
-0.0131662
0.000165028
-0.0131577
0.000144056
-0.0131505
0.000123549
-0.0131445
0.000103681
-0.0131396
8.41881e-05
-0.0131359
6.51309e-05
-0.0131332
4.63181e-05
-0.0131317
2.77451e-05
9.23109e-06
-0.0138653
0.000688692
0.0139324
-0.0138035
0.000649292
-0.0137432
0.000638975
-0.0136876
0.00060324
-0.0136343
0.000585136
-0.0135853
0.00055167
-0.0135389
0.000528973
-0.0134963
0.000497235
-0.0134565
0.000472211
-0.01342
0.000442086
-0.0133862
0.000416296
-0.0133554
0.000387833
-0.0133271
0.000362306
-0.0133014
0.000335572
-0.013278
0.000310939
-0.0132569
0.000285957
-0.0132377
0.000262553
-0.0132205
0.000239273
-0.0132051
0.00021722
-0.0131915
0.000195519
-0.0131794
0.000174785
-0.0131689
0.000154479
-0.0131597
0.000134928
-0.013152
0.000115786
-0.0131455
9.7209e-05
-0.0131403
7.8964e-05
-0.0131363
6.11064e-05
-0.0131334
4.34661e-05
-0.0131317
2.60391e-05
8.66425e-06
-0.0138693
0.000623805
0.0139341
-0.0138092
0.000589246
-0.0137505
0.000580223
-0.013696
0.000548772
-0.0136436
0.000532757
-0.0135951
0.00050316
-0.0135491
0.000482954
-0.0135066
0.000454724
-0.0134667
0.00043232
-0.01343
0.000405362
-0.0133958
0.000382147
-0.0133645
0.00035652
-0.0133356
0.000333421
-0.0133092
0.000309212
-0.0132851
0.000286808
-0.0132632
0.000264062
-0.0132433
0.000242675
-0.0132254
0.000221373
-0.0132094
0.000201132
-0.013195
0.000181187
-0.0131823
0.000162083
-0.0131712
0.000143349
-0.0131615
0.000125274
-0.0131533
0.000107557
-0.0131464
9.03368e-05
-0.0131409
7.34085e-05
-0.0131366
5.68217e-05
-0.0131336
4.04268e-05
-0.0131317
2.42205e-05
8.05977e-06
-0.0138717
0.000560933
0.0139346
-0.0138132
0.000530765
-0.0137559
0.000522897
-0.0137025
0.000495356
-0.013651
0.000481257
-0.0136031
0.000455223
-0.0135574
0.000437336
-0.0135151
0.000412375
-0.0134752
0.000392445
-0.0134383
0.000368476
-0.0134039
0.000347725
-0.0133722
0.000324815
-0.0133428
0.000304069
-0.0133159
0.000282312
-0.0132912
0.000262099
-0.0132687
0.000241557
-0.0132482
0.000222179
-0.0132297
0.000202854
-0.013213
0.000184441