/*--------------------------------*- C++ -*----------------------------------*\
  =========                 |
  \\      /  F ield         | OpenFOAM: The Open Source CFD Toolbox
   \\    /   O peration     | Website:  https://openfoam.org
    \\  /    A nd           | Version:  7
     \\/     M anipulation  |
\*---------------------------------------------------------------------------*/
FoamFile
{
    version     2.0;
    format      ascii;
    class       volScalarField;
    location    "100";
    object      p;
}
// * * * * * * * * * * * * * * * * * * * * * * * * * * * * * * * * * * * * * //

dimensions      [0 2 -2 0 0 0 0];

internalField   nonuniform List<scalar> 
3500
(
-0.23717
-0.240689
0.632184
0.5964
0.556758
0.632321
0.596506
0.556838
0.510116
0.464318
0.42124
0.382034
0.346931
0.315916
0.28862
0.615515
0.582652
0.545664
0.50104
0.456877
0.415076
0.376842
0.342482
0.312156
0.28572
0.582356
0.555253
0.52356
0.483079
0.44214
0.402858
0.366544
0.333647
0.304659
0.279861
0.534
0.51513
0.491174
0.456732
0.420491
0.38489
0.351397
0.320638
0.293556
0.271035
0.472111
0.463502
0.449471
0.422735
0.392499
0.36163
0.331785
0.30377
0.279041
0.259283
0.398712
0.402041
0.399716
0.382037
0.358885
0.333633
0.308161
0.283413
0.261361
0.244706
0.315944
0.33292
0.343397
0.335743
0.320491
0.301565
0.281112
0.260116
0.240905
0.227481
0.226633
0.258296
0.282098
0.285099
0.278297
0.266193
0.251263
0.234417
0.218007
0.20768
0.134016
0.180378
0.217461
0.231399
0.233296
0.228241
0.219166
0.206962
0.193487
0.185618
0.041442
0.101401
0.151176
0.175984
0.186567
0.188578
0.185527
0.178495
0.168384
0.160945
-0.047725
0.0234719
0.0849485
0.120175
0.139163
0.148017
0.150769
0.149072
0.143508
0.135078
-0.130342
-0.051768
0.0204517
0.0652208
0.0920814
0.107409
0.115587
0.119051
0.118754
0.114185
-0.202964
-0.123016
-0.0407448
0.0122272
0.0462497
0.0675617
0.0807208
0.0888399
0.0935882
0.0936007
-0.26498
-0.186738
-0.0975088
-0.0377988
0.00250436
0.0291351
0.0467396
0.0587151
0.0674301
0.0715502
-0.315858
-0.240659
-0.149152
-0.0838617
-0.0384413
-0.0073541
0.0140981
0.0291415
0.0407799
0.0482953
-0.355171
-0.284883
-0.194281
-0.125242
-0.0760406
-0.0414604
-0.0167911
0.000708981
0.0145082
0.024843
-0.383127
-0.319368
-0.231825
-0.161736
-0.110104
-0.0727922
-0.0456197
-0.0260559
-0.0107084
0.00193668
-0.400644
-0.343981
-0.261693
-0.192792
-0.140294
-0.101342
-0.0723111
-0.0508325
-0.0343627
-0.0202126
-0.409065
-0.358838
-0.284123
-0.218269
-0.16633
-0.126796
-0.0966655
-0.073769
-0.0561764
-0.0416113
-0.409786
-0.364438
-0.299435
-0.238376
-0.188236
-0.149035
-0.118544
-0.0948372
-0.0763842
-0.0612073
-0.403984
-0.361809
-0.308134
-0.253474
-0.206228
-0.168166
-0.137973
-0.113994
-0.0949604
-0.0789618
-0.392635
-0.352825
-0.311072
-0.263993
-0.220578
-0.184428
-0.15511
-0.131283
-0.111984
-0.0954114
-0.376845
-0.340111
-0.309419
-0.270334
-0.231611
-0.198129
-0.170208
-0.146895
-0.12761
-0.110948
-0.358258
-0.326564
-0.304068
-0.272893
-0.239717
-0.209626
-0.183563
-0.16107
-0.142028
-0.125601
-0.33905
-0.313928
-0.296084
-0.27234
-0.24536
-0.219249
-0.195472
-0.174092
-0.155355
-0.139345
-0.321208
-0.302431
-0.287319
-0.269786
-0.24903
-0.227312
-0.206167
-0.186198
-0.167879
-0.152141
-0.306061
-0.292015
-0.279527
-0.266475
-0.251236
-0.234013
-0.215858
-0.197609
-0.179724
-0.164286
-0.293597
-0.283004
-0.273249
-0.263323
-0.252464
-0.239555
-0.224544
-0.208493
-0.191267
-0.175737
-0.283527
-0.275655
-0.268227
-0.260752
-0.253157
-0.244013
-0.232313
-0.218676
-0.202513
-0.187438
-0.275423
-0.269806
-0.264225
-0.258791
-0.253597
-0.247457
-0.238913
-0.228192
-0.213243
-0.199204
-0.268805
-0.265084
-0.26106
-0.257293
-0.253881
-0.249972
-0.244327
-0.235642
-0.224369
-0.212179
-0.263175
-0.261141
-0.258426
-0.256057
-0.254028
-0.251553
-0.248876
-0.239946
-0.234608
-0.222076
-0.258258
-0.257584
-0.255993
-0.25481
-0.253908
-0.252191
-0.252456
-0.24079
-0.243503
-0.22725
-0.253762
-0.254178
-0.253574
-0.253325
-0.253326
-0.252039
-0.25421
-0.24078
-0.250006
-0.227435
-0.249559
-0.250906
-0.251059
-0.25153
-0.252165
-0.25124
-0.254028
-0.24177
-0.251933
-0.226716
-0.245681
-0.247819
-0.248517
-0.249483
-0.250401
-0.250354
-0.252448
-0.242934
-0.250497
-0.228513
-0.242272
-0.245056
-0.24612
-0.247397
-0.248553
-0.249182
-0.250017
-0.244809
-0.247442
-0.232027
-0.239541
-0.242806
-0.244098
-0.245564
-0.246926
-0.247914
-0.248315
-0.245857
-0.245673
-0.236121
-0.237696
-0.241254
-0.24267
-0.24425
-0.245775
-0.247009
-0.247572
-0.2467
-0.245869
-0.240332
-0.236889
-0.240533
-0.241991
-0.243635
-0.245294
-0.246769
-0.247772
-0.247986
-0.247832
-0.245082
0.267532
0.250985
0.236425
0.223777
0.212601
0.202811
0.194138
0.186491
0.179693
0.173668
0.168297
0.163514
0.15923
0.155393
0.15196
0.148898
0.146171
0.143749
0.141602
0.139706
0.138037
0.13658
0.135317
0.134237
0.133327
0.13258
0.131988
0.131548
0.131258
0.131116
0.265426
0.249347
0.235072
0.222667
0.211673
0.20204
0.193488
0.185943
0.179225
0.173266
0.167948
0.163213
0.158972
0.155167
0.151742
0.148697
0.145988
0.143582
0.141447
0.139559
0.137899
0.136447
0.13519
0.134114
0.133209
0.132465
0.131875
0.131436
0.131145
0.131002
0.261114
0.245993
0.232317
0.220417
0.209796
0.20048
0.19217
0.184828
0.178268
0.17244
0.167224
0.162573
0.158408
0.154682
0.151331
0.148317
0.145629
0.143242
0.141124
0.139254
0.137607
0.136169
0.134922
0.133855
0.132957
0.13222
0.131635
0.131198
0.130906
0.130761
0.25454
0.240909
0.228174
0.217064
0.207012
0.198175
0.190226
0.183184
0.176857
0.171221
0.166158
0.161633
0.157573
0.153944
0.150675
0.147717
0.145075
0.142726
0.140639
0.138794
0.137169
0.135749
0.134517
0.133464
0.132577
0.13185
0.131272
0.130838
0.130543
0.130396
0.245656
0.234056
0.222611
0.212591
0.203312
0.195125
0.187659
0.181018
0.174999
0.169619
0.164755
0.160396
0.156468
0.152953
0.149799
0.14696
0.144362
0.142053
0.140003
0.13819
0.136592
0.135195
0.133983
0.132946
0.132074
0.131359
0.130791
0.13036
0.130064
0.129914
0.23448
0.225474
0.215691
0.207086
0.198787
0.191418
0.184546
0.178398
0.172752
0.167681
0.163059
0.1589
0.155128
0.15174
0.148689
0.145963
0.143506
0.141251
0.139232
0.137456
0.135888
0.134516
0.133327
0.132311
0.131456
0.130755
0.130197
0.129772
0.129473
0.129321
0.221046
0.215169
0.207353
0.200454
0.193329
0.186952
0.180805
0.175259
0.170069
0.165375
0.161047
0.157131
0.153553
0.150322
0.147393
0.144763
0.142402
0.140288
0.138355
0.136595
0.135058
0.133726
0.132565
0.131567
0.13073
0.130046
0.1295
0.12908
0.128781
0.128627
0.205338
0.203158
0.197725
0.192935
0.187232
0.182031
0.176711
0.171841
0.16715
0.162864
0.15885
0.155194
0.151822
0.148762
0.145969
0.143447
0.141165
0.139119
0.137289
0.135662
0.134182
0.132849
0.131687
0.130718
0.12991
0.129242
0.128707
0.128294
0.127996
0.127842
0.187702
0.189613
0.186791
0.184201
0.180037
0.176117
0.171762
0.167686
0.163609
0.159828
0.156212
0.152884
0.149774
0.146931
0.144315
0.141939
0.139774
0.13782
0.136058
0.134487
0.13309
0.131862
0.130785
0.129833
0.129018
0.128347
0.127825
0.127423
0.12713
0.126979
0.167106
0.173995
0.174388
0.174816
0.172663
0.170409
0.167118
0.163922
0.160434
0.157141
0.153867
0.150824
0.147923
0.145254
0.142769
0.140504
0.138427
0.136548
0.134846
0.13332
0.131956
0.130756
0.129708
0.128804
0.128038
0.127406
0.126888
0.126483
0.126195
0.126052
0.141046
0.152715
0.158257
0.160863
0.161066
0.160304
0.158579
0.156516
0.154093
0.15162
0.149078
0.146619
0.144228
0.141976
0.139852
0.137886
0.136066
0.134404
0.132889
0.131523
0.130295
0.129206
0.128249
0.127424
0.126727
0.126153
0.125688
0.125329
0.125082
0.124958
0.125286
0.134676
0.141829
0.146059
0.148288
0.149028
0.14878
0.147894
0.146557
0.144981
0.143238
0.141452
0.13965
0.1379
0.136212
0.134618
0.133122
0.131737
0.130461
0.129301
0.128251
0.127313
0.126483
0.125763
0.125151
0.124644
0.124237
0.123929
0.123723
0.123621
0.1123
0.120969
0.128153
0.13314
0.136549
0.138453
0.139367
0.139492
0.139099
0.138333
0.137327
0.136173
0.134937
0.133673
0.132414
0.131191
0.130019
0.128915
0.127884
0.126935
0.126069
0.125289
0.124595
0.123988
0.123469
0.123036
0.122689
0.122428
0.122256
0.122172
0.101019
0.109418
0.116562
0.121975
0.12604
0.128775
0.130558
0.13152
0.131918
0.131866
0.131514
0.130938
0.130221
0.129414
0.128562
0.127695
0.126838
0.126007
0.125217
0.124477
0.123793
0.12317
0.122612
0.12212
0.121696
0.12134
0.121055
0.120841
0.1207
0.120631
0.0913079
0.0994451
0.106546
0.112225
0.1167
0.120011
0.122428
0.124054
0.125097
0.125657
0.125871
0.125813
0.125567
0.125182
0.124708
0.124177
0.123619
0.123053
0.122495
0.121959
0.121453
0.120985
0.120559
0.120181
0.119851
0.119573
0.119349
0.119182
0.119071
0.119017
0.0829732
0.0908211
0.0978261
0.103638
0.108384
0.112097
0.11498
0.117119
0.118681
0.119752
0.120452
0.120848
0.121021
0.121019
0.120892
0.120674
0.120397
0.120081
0.119746
0.119406
0.119072
0.118754
0.118458
0.11819
0.117954
0.117752
0.117589
0.117465
0.117384
0.117344
0.0757962
0.0833571
0.0902167
0.0960579
0.100968
0.104957
0.108183
0.110717
0.112692
0.114183
0.115292
0.116081
0.116622
0.116962
0.117151
0.11722
0.117203
0.117121
0.116995
0.116841
0.116673
0.116499
0.116328
0.116167
0.11602
0.115893
0.115788
0.115708
0.115655
0.115628
0.0695942
0.0768781
0.0835623
0.0893638
0.0943534
0.0985225
0.101998
0.10483
0.107133
0.108965
0.110416
0.111539
0.112401
0.113043
0.113513
0.113842
0.114063
0.114197
0.114267
0.114288
0.114275
0.114238
0.114186
0.114127
0.114067
0.114011
0.113962
0.113923
0.113897
0.113884
0.064222
0.0712366
0.0777284
0.0834466
0.088455
0.0927311
0.0963804
0.099436
0.101994
0.104101
0.105834
0.10724
0.108377
0.109283
0.110002
0.110565
0.111001
0.111333
0.111583
0.111766
0.111898
0.111989
0.11205
0.112088
0.11211
0.112121
0.112125
0.112127
0.112126
0.112126
0.0595605
0.0663125
0.0726023
0.0782097
0.0831937
0.0875231
0.0912873
0.0945057
0.0972599
0.0995856
0.10155
0.103192
0.104563
0.105698
0.106636
0.107405
0.108035
0.108546
0.10896
0.109292
0.109558
0.109769
0.109935
0.110064
0.110163
0.110238
0.110293
0.110331
0.110355
0.110367
0.05551
0.0620068
0.0680908
0.0735699
0.0784994
0.0828426
0.0866763
0.0900094
0.0929116
0.0954095
0.0975614
0.0993985
0.100968
0.102298
0.103427
0.104378
0.105179
0.105851
0.106414
0.106882
0.107271
0.107592
0.107855
0.108069
0.10824
0.108374
0.108476
0.10855
0.108597
0.10862
0.0519854
0.0582362
0.0641152
0.0694558
0.07431
0.0786384
0.0825068
0.0859168
0.0889279
0.0915591
0.093861
0.0958586
0.0975935
0.0990907
0.100383
0.101494
0.102447
0.103262
0.103958
0.104549
0.10505
0.105471
0.105824
0.106115
0.106353
0.106543
0.106689
0.106795
0.106863
0.106897
0.0489146
0.05493
0.0606084
0.0658059
0.0705712
0.074864
0.078741
0.0821983
0.0852868
0.0880194
0.0904398
0.092568
0.0944404
0.0960785
0.0975117
0.0987598
0.0998462
0.100788
0.101602
0.102304
0.102906
0.103418
0.103852
0.104215
0.104514
0.104754
0.104941
0.105077
0.105166
0.105208
0.0462363
0.0520283
0.0575132
0.0625669
0.0672353
0.071478
0.0753442
0.0788258
0.0819665
0.0847744
0.0872871
0.0895204
0.091506
0.0932621
0.0948149
0.0961816
0.0973837
0.0984363
0.0993561
0.100156
0.100848
0.101443
0.101951
0.102379
0.102733
0.10302
0.103244
0.103407
0.103514
0.103565
0.0438984
0.0494799
0.0547802
0.0596929
0.0642603
0.0684434
0.0722845
0.075773
0.0789459
0.081808
0.0843913
0.0867082
0.0887862
0.0906404
0.0922941
0.0937624
0.0950644
0.0962138
0.097226
0.0981127
0.0988857
0.0995546
0.100128
0.100615
0.10102
0.101349
0.101606
0.101795
0.101918
0.101977
0.0418568
0.0472412
0.0523674
0.0571437
0.0616094
0.0657271
0.0695332
0.0730154
0.0762052
0.0791044
0.0817406
0.084123
0.0862755
0.0882107
0.089949
0.0915035
0.0928914
0.0941248
0.0952178
0.0961809
0.0970252
0.0977596
0.0983927
0.0989312
0.0993815
0.0997485
0.100036
0.100248
0.100386
0.100452
0.0400738
0.0452752
0.0502384
0.054885
0.0592506
0.0633
0.0670645
0.0705308
0.0737255
0.0766485
0.079323
0.081756
0.0839681
0.0859696
0.0877783
0.0894056
0.0908667
0.0921724
0.0933355
0.0943654
0.0952725
0.0960648
0.0967503
0.0973355
0.0978263
0.0982274
0.0985424
0.0987743
0.0989255
0.0989989
0.0385178
0.0435503
0.0483624
0.0528867
0.0571556
0.0611363
0.0648553
0.068299
0.0714898
0.074426
0.0771273
0.0795986
0.0818577
0.0839129
0.0857798
0.0874681
0.0889913
0.0903589
0.0915824
0.0926704
0.0936323
0.0944754
0.0952073
0.0958337
0.0963605
0.0967918
0.0971312
0.0973812
0.0975445
0.0976237
0.0371617
0.0420395
0.0467126
0.051123
0.0553002
0.0592133
0.0628851
0.0663018
0.0694824
0.0724237
0.0751425
0.0776422
0.0799378
0.0820361
0.0839507
0.0856898
0.0872653
0.0886857
0.089961
0.0910991
0.0921086
0.092996
0.0937684
0.0944312
0.0949897
0.0954477
0.0958086
0.0960748
0.0962486
0.0963331
0.0359828
0.04072
0.0452663
0.0495718
0.0536629
0.0575111
0.0611357
0.064523
0.0676889
0.0706294
0.0733586
0.0758786
0.0782022
0.0803348
0.0822882
0.0840693
0.0856886
0.0871534
0.0884729
0.089654
0.0907045
0.0916304
0.092438
0.0931325
0.0937187
0.0942002
0.0945801
0.0948604
0.0950436
0.0951326
0.0349617
0.0395724
0.0440041
0.0482139
0.0522255
0.0560125
0.0595912
0.0629481
0.0660966
0.0690321
0.0717662
0.0743002
0.0766448
0.0788044
0.080789
0.0826045
0.0842602
0.0857624
0.0871193
0.088337
0.0894226
0.0903815
0.0912196
0.0919416
0.0925519
0.0930538
0.0934502
0.0937429
0.0939342
0.0940272
0.0340821
0.0385799
0.0429092
0.0470329
0.0509721
0.0547024
0.0582375
0.0615644
0.0646941
0.0676217
0.0703569
0.0729
0.0752601
0.0774406
0.0794501
0.0812936
0.0829793
0.0845126
0.0859008
0.0871495
0.0882649
0.089252
0.0901162
0.0908618
0.0914928
0.0920124
0.0924229
0.0927264
0.0929247
0.0930212
0.0333305
0.0377289
0.0419677
0.0460149
0.0498891
0.0535679
0.0570626
0.0603608
0.0634716
0.0663896
0.0691231
0.0716715
0.0740427
0.0762392
0.0782684
0.0801345
0.0818446
0.0834036
0.0848179
0.0860925
0.0872329
0.0882439
0.0891302
0.0898959
0.0905446
0.0910792
0.0915019
0.0918145
0.0920189
0.0921184
0.0326955
0.0370077
0.0411677
0.045148
0.0489649
0.0525978
0.056056
0.0593277
0.0624201
0.065328
0.0680579
0.0706091
0.072988
0.0751965
0.0772411
0.0791252
0.0808551
0.082435
0.0838707
0.0851667
0.086328
0.0873589
0.0882637
0.0890462
0.0897097
0.090257
0.0906901
0.0910104
0.0912199
0.0913219
0.0321677
0.0364064
0.0404993
0.0444223
0.0481899
0.0517829
0.0552089
0.0584568
0.0615323
0.0644301
0.0671557
0.0697078
0.0720918
0.0743093
0.0763656
0.0782638
0.0800094
0.0816062
0.0830593
0.0843727
0.085551
0.0865982
0.0875183
0.0883146
0.0889905
0.0895483
0.0899899
0.0903166
0.0905304
0.0906344
0.0317395
0.0359174
0.0399546
0.0438298
0.0475561
0.0511153
0.054514
0.0577413
0.0608019
0.0636904
0.0664114
0.0689632
0.0713506
0.0735745
0.0756396
0.0775488
0.0793066
0.0809166
0.0823834
0.0837107
0.0849027
0.0859629
0.0868953
0.0877028
0.0883886
0.0889549
0.0894034
0.0897353
0.0899525
0.0900582
0.0314048
0.0355343
0.0395269
0.0433639
0.0470568
0.0505887
0.0539652
0.0571755
0.0602236
0.0631042
0.0658208
0.0683718
0.0707612
0.0729896
0.0750613
0.0769785
0.0787456
0.0803657
0.081843
0.083181
0.0843835
0.0854539
0.0863957
0.087212
0.0879055
0.0884784
0.0889323
0.0892683
0.0894882
0.0895952
0.0311595
0.0352525
0.0392114
0.0430192
0.0466869
0.0501982
0.0535576
0.056755
0.0597935
0.0626677
0.0653807
0.0679308
0.0703213
0.0725527
0.0746289
0.0765519
0.0783256
0.079953
0.0814379
0.0827836
0.0839938
0.0850716
0.0860204
0.086843
0.0875422
0.08812
0.0885778
0.0889168
0.0891387
0.0892467
0.0310009
0.0350684
0.0390038
0.0427919
0.0464424
0.0499399
0.0532879
0.0564765
0.0595084
0.0623782
0.0650887
0.0676379
0.070029
0.0722623
0.0743414
0.076268
0.078046
0.0796781
0.081168
0.0825187
0.0837339
0.0848165
0.0857699
0.0865967
0.0872996
0.0878806
0.088341
0.0886819
0.0889052
0.0890138
0.0309259
0.034978
0.0389007
0.0426789
0.0463208
0.0498114
0.0531535
0.0563378
0.0593663
0.062234
0.0649431
0.0674919
0.0698832
0.0721174
0.0741978
0.0761262
0.0779063
0.0795407
0.081033
0.0823863
0.0836039
0.0846889
0.0856445
0.0864735
0.0871782
0.0877608
0.0882225
0.0885644
0.0887883
0.0888973
0.126164
0.115209
0.103868
0.0934217
0.0842086
0.0761969
0.0692601
0.0632649
0.0580873
0.0536159
0.0497527
0.0464123
0.0435217
0.041018
0.0388479
0.036966
0.0353335
0.033918
0.0326917
0.0316314
0.0307174
0.0299333
0.0292654
0.0287022
0.0282346
0.0278549
0.0275571
0.0273365
0.0271915
0.0271253
0.10693
0.0967295
0.0877923
0.0794405
0.0719353
0.0652839
0.0594479
0.0543639
0.0499531
0.0461346
0.0428319
0.0399764
0.0375074
0.0353724
0.0335256
0.0319278
0.0305454
0.0293497
0.0283161
0.0274241
0.0266561
0.0259975
0.025436
0.0249614
0.0245654
0.0242413
0.0239838
0.0237883
0.0236531
0.0235874
0.0860755
0.0748363
0.0672064
0.0604807
0.0548485
0.0499955
0.0458017
0.0421742
0.0390351
0.0363177
0.0339634
0.0319221
0.0301516
0.0286154
0.0272822
0.0261253
0.0251213
0.0242504
0.0234955
0.022842
0.0222775
0.0217914
0.0213749
0.0210205
0.0207221
0.0204747
0.0202746
0.020118
0.0200021
0.0199375
0.066031
0.0556185
0.0492274
0.0435004
0.0391057
0.0355367
0.0326214
0.0302041
0.0281764
0.0264599
0.0249949
0.0237357
0.0226495
0.021709
0.0208932
0.0201843
0.0195673
0.0190301
0.0185622
0.018155
0.017801
0.0174939
0.0172283
0.0169995
0.0168038
0.0166379
0.0164998
0.0163869
0.0162944
0.01623
0.0455441
0.03758
0.0334379
0.0291191
0.02595
0.0234153
0.021449
0.0199054
0.0186809
0.0176975
0.0168965
0.016233
0.0156787
0.0152117
0.0148159
0.0144778
0.0141868
0.0139352
0.0137165
0.013526
0.0133594
0.0132133
0.013085
0.0129718
0.0128716
0.0127826
0.0127038
0.012634
0.0125668
0.0125042
0.0245708
0.0192757
0.0177778
0.0153994
0.0138568
0.0125463
0.011567
0.0108326
0.0102927
0.00990082
0.00962003
0.00941562
0.0092674
0.00916628
0.0090999
0.00905606
0.00902772
0.00900972
0.00899828
0.0089906
0.00898453
0.00897841
0.00897089
0.00896081
0.00894713
0.00892876
0.0089052
0.00887658
0.00883683
0.00877995
0.00392709
0.00113993
0.00197152
0.00150892
0.00170739
0.00176323
0.00189451
0.00204829
0.00223234
0.00243992
0.00266554
0.00289647
0.00311432
0.00334548
0.00357318
0.00379046
0.00399477
0.00418421
0.0043575
0.0045139
0.00465294
0.00477435
0.00487794
0.00496356
0.00503101
0.00507981
0.00510964
0.00512171
0.00511198
0.00506591
-0.0158626
-0.016
-0.0132965
-0.0121369
-0.0104355
-0.00911746
-0.00789641
-0.00683523
-0.00589204
-0.00504986
-0.00429034
-0.00359631
-0.00301209
-0.00243337
-0.00190898
-0.00143195
-0.00099841
-0.000606189
-0.000253204
6.23437e-05
0.000342005
0.000587093
0.000798692
0.000977672
0.00112471
0.00124006
0.00132354
0.00137688
0.00139964
0.00136962
-0.0346794
-0.0317848
-0.0277214
-0.024969
-0.022072
-0.0196799
-0.017529
-0.0156589
-0.0140115
-0.0125591
-0.0112757
-0.0101175
-0.00914737
-0.00821156
-0.00738759
-0.0066461
-0.00598022
-0.00538307
-0.00484907
-0.00437366
-0.00395305
-0.00358414
-0.00326443
-0.00299189
-0.0027649
-0.00258232
-0.00244388
-0.00234813
-0.00229194
-0.00229985
-0.0523068
-0.0468403
-0.0414966
-0.0371601
-0.0331975
-0.0298216
-0.0268562
-0.024262
-0.0219777
-0.0199643
-0.0181883
-0.0165993
-0.0151881
-0.0139249
-0.0128102
-0.0118125
-0.0109193
-0.0101205
-0.00940789
-0.00877437
-0.00821416
-0.00772249
-0.00729544
-0.00692984
-0.00662311
-0.0063733
-0.00617929
-0.00603967
-0.00595234
-0.00593142
-0.0686114
-0.0613543
-0.0545409
-0.0487445
-0.0437075
-0.0394434
-0.0357479
-0.0325138
-0.0296633
-0.0271469
-0.024923
-0.022938
-0.0211499
-0.0195706
-0.0181743
-0.0169265
-0.0158107
-0.0148138
-0.0139249
-0.013135
-0.0124364
-0.0118228
-0.0112889
-0.0108305
-0.0104442
-0.010127
-0.00987726
-0.0096931
-0.0095732
-0.0095272
-0.0839825
-0.0752672
-0.0668858
-0.0597809
-0.0537537
-0.0486816
-0.0442893
-0.0404383
-0.0370485
-0.0340622
-0.0314237
-0.029073
-0.0269637
-0.025091
-0.0234278
-0.0219407
-0.0206111
-0.0194235
-0.0183647
-0.0174234
-0.0165906
-0.0158584
-0.0152206
-0.0146717
-0.0142076
-0.0138247
-0.0135203
-0.0132923
-0.0131384
-0.0130712
-0.0988404
-0.0885869
-0.0785785
-0.0702172
-0.0633085
-0.0575242
-0.0524965
-0.0480709
-0.0441807
-0.0407596
-0.0377336
-0.0350379
-0.0326278
-0.0304787
-0.0285618
-0.0268457
-0.0253105
-0.0239389
-0.0227154
-0.0216274
-0.0206642
-0.0198168
-0.0190778
-0.0184409
-0.0179011
-0.0174542
-0.0170969
-0.0168264
-0.0166393
-0.01655
-0.113122
-0.101384
-0.089875
-0.0804134
-0.0727277
-0.0662468
-0.0605482
-0.0555224
-0.0511323
-0.047285
-0.0438778
-0.0408424
-0.0381341
-0.0357165
-0.0335555
-0.0316196
-0.029887
-0.0283383
-0.0269565
-0.0257271
-0.0246383
-0.02368
-0.0228437
-0.0221224
-0.02151
-0.0210019
-0.0205943
-0.0202837
-0.0200654
-0.0199534
-0.126863
-0.113689
-0.100585
-0.0900822
-0.0817632
-0.0746836
-0.068362
-0.0627872
-0.0579429
-0.0536895
-0.0499057
-0.0465329
-0.0435272
-0.0408427
-0.0384402
-0.0362875
-0.0343604
-0.0326374
-0.0310994
-0.0297309
-0.0285186
-0.0274514
-0.0265199
-0.025716
-0.0250332
-0.024466
-0.0240101
-0.0236617
-0.0234146
-0.0232807
-0.13977
-0.125549
-0.11113
-0.0997704
-0.0908528
-0.0830706
-0.0760387
-0.0699083
-0.0646188
-0.0599522
-0.0557871
-0.0520808
-0.0487817
-0.0458325
-0.0431914
-0.0408257
-0.0387081
-0.0368144
-0.035124
-0.0336198
-0.0322876
-0.031115
-0.0300915
-0.0292085
-0.0284584
-0.0278353
-0.0273343
-0.0269513
-0.0266786
-0.0265255
-0.152034
-0.136519
-0.120742
-0.108836
-0.099551
-0.0911375
-0.08349
-0.0769026
-0.0711974
-0.0661132
-0.0615715
-0.0575396
-0.053948
-0.050732
-0.0478509
-0.045271
-0.0429615
-0.0408958
-0.0390521
-0.0374119
-0.0359597
-0.0346819
-0.0335673
-0.0326061
-0.0317904
-0.0311133
-0.0305695
-0.0301544
-0.0298596
-0.0296904
-0.163544
-0.147297
-0.130636
-0.118273
-0.108344
-0.0990914
-0.0908396
-0.0838149
-0.077661
-0.0721432
-0.0672331
-0.0628791
-0.0589915
-0.055507
-0.0523866
-0.0495931
-0.0470921
-0.0448554
-0.0428597
-0.0410852
-0.0395149
-0.0381341
-0.0369307
-0.0358941
-0.0350155
-0.0342876
-0.0337044
-0.0332612
-0.0329485
-0.0327676
-0.173983
-0.156513
-0.13972
-0.127425
-0.116876
-0.106935
-0.0982484
-0.090787
-0.084144
-0.0781942
-0.0729184
-0.0682271
-0.0640265
-0.0602615
-0.0568909
-0.0538726
-0.0511697
-0.0487531
-0.0465979
-0.0446827
-0.0429891
-0.0415012
-0.0402059
-0.0390919
-0.0381496
-0.0373709
-0.0367494
-0.0362803
-0.0359536
-0.0357655
-0.185241
-0.167168
-0.150396
-0.137418
-0.1258
-0.115226
-0.106066
-0.0980327
-0.0908414
-0.0844361
-0.0787511
-0.0736758
-0.0691286
-0.0650563
-0.0614107
-0.0581453
-0.0552222
-0.0526101
-0.0502822
-0.0482152
-0.046389
-0.0447867
-0.0433939
-0.0421982
-0.0411893
-0.0403584
-0.0396987
-0.039205
-0.038868
-0.0386797
-0.196431
-0.178884
-0.16269
-0.148713
-0.136118
-0.124852
-0.11493
-0.106127
-0.0982715
-0.0912768
-0.0850442
-0.0794706
-0.0744788
-0.0700084
-0.0660043
-0.0624175
-0.0592073
-0.0563396
-0.0537847
-0.0515169
-0.0495144
-0.0477585
-0.0462332
-0.044925
-0.0438224
-0.042916
-0.0421982
-0.0416638
-0.0413043
-0.0411095
-0.202222
-0.186788
-0.171362
-0.157201
-0.144283
-0.132649
-0.122248
-0.112941
-0.104614
-0.0971685
-0.0905026
-0.0845253
-0.0791633
-0.0743528
-0.0700369
-0.0661664
-0.0626994
-0.0596
-0.056837
-0.0543833
-0.0522158
-0.0503147
-0.0486629
-0.047246
-0.0460518
-0.0450699
-0.0442923
-0.043714
-0.0433275
-0.0431201
-0.201746
-0.188281
-0.174224
-0.160856
-0.148405
-0.137003
-0.126662
-0.117318
-0.108895
-0.101311
-0.0944803
-0.0883274
-0.0827871
-0.0778001
-0.0733133
-0.0692801
-0.0656604
-0.0624191
-0.0595254
-0.0569526
-0.0546776
-0.0526805
-0.050944
-0.0494536
-0.0481969
-0.0471633
-0.0463446
-0.0457361
-0.0453313
-0.0451174
-0.198543
-0.186184
-0.173462
-0.161234
-0.14963
-0.138814
-0.12887
-0.119787
-0.111521
-0.104018
-0.0972164
-0.0910563
-0.085484
-0.0804483
-0.0759025
-0.0718049
-0.0681187
-0.0648111
-0.0618531
-0.0592194
-0.0568876
-0.0548386
-0.0530554
-0.0515239
-0.0502318
-0.0491688
-0.0483267
-0.0477007
-0.0472856
-0.0470694
-0.195495
-0.18371
-0.171987
-0.160749
-0.149957
-0.13976
-0.130275
-0.121521
-0.113482
-0.106128
-0.0994185
-0.0933094
-0.0877575
-0.0827206
-0.0781589
-0.0740355
-0.0703173
-0.0669743
-0.0639797
-0.0613095
-0.0589426
-0.0568606
-0.0550473
-0.0534889
-0.0521734
-0.0510909
-0.0502332
-0.0495954
-0.0491733
-0.0489559
-0.193354
-0.182116
-0.171178
-0.160682
-0.150516
-0.140821
-0.13172
-0.123246
-0.115403
-0.108179
-0.101549
-0.0954834
-0.0899478
-0.0849078
-0.0803294
-0.0761806
-0.0724314
-0.0690544
-0.0660247
-0.0633197
-0.0609194
-0.058806
-0.0569641
-0.0553801
-0.0540425
-0.0529415
-0.052069
-0.05142
-0.0509907
-0.0507714
-0.1918
-0.181319
-0.171109
-0.161198
-0.151505
-0.142194
-0.133388
-0.125128
-0.117432
-0.110302
-0.103725
-0.0976808
-0.0921445
-0.0870878
-0.082482
-0.0782987
-0.0745111
-0.0710939
-0.0680239
-0.0652797
-0.0628422
-0.0606945
-0.0588213
-0.0572095
-0.0558479
-0.0547269
-0.0538384
-0.0531774
-0.0527401
-0.052518
-0.190441
-0.180864
-0.171382
-0.161993
-0.152702
-0.143708
-0.135144
-0.127058
-0.119479
-0.112421
-0.105881
-0.0998472
-0.0943018
-0.0892222
-0.0845842
-0.080363
-0.0765342
-0.0730748
-0.0699628
-0.0671782
-0.0647026
-0.0625196
-0.0606145
-0.0589744
-0.0575884
-0.056447
-0.0555423
-0.054869
-0.0544235
-0.054198
-0.189152
-0.180467
-0.171681
-0.162791
-0.153876
-0.145174
-0.136829
-0.128901
-0.121429
-0.114437
-0.107931
-0.101908
-0.0963553
-0.0912555
-0.0865885
-0.0823328
-0.0784664
-0.0749681
-0.0718175
-0.0689955
-0.0664846
-0.0642689
-0.0623341
-0.0606677
-0.0592589
-0.0580985
-0.0571786
-0.0564938
-0.0560406
-0.0558119
-0.187984
-0.180086
-0.171927
-0.1635
-0.154941
-0.146516
-0.138379
-0.1306
-0.123231
-0.116305
-0.109836
-0.103828
-0.0982734
-0.0931597
-0.0884703
-0.0841866
-0.080289
-0.0767579
-0.0735743
-0.0707201
-0.0681785
-0.0659343
-0.0639735
-0.062284
-0.0608552
-0.059678
-0.0587447
-0.0580497
-0.0575897
-0.0573581
-0.187031
-0.179805
-0.172187
-0.164166
-0.155927
-0.147753
-0.139805
-0.132164
-0.124891
-0.118028
-0.111598
-0.105608
-0.100056
-0.0949338
-0.0902279
-0.0859224
-0.0819997
-0.0784416
-0.0752305
-0.0723493
-0.0697818
-0.0675132
-0.0655303
-0.063821
-0.0623749
-0.0611832
-0.0602382
-0.0595345
-0.0590686
-0.0588344
-0.186369
-0.179719
-0.172556
-0.164871
-0.156898
-0.148938
-0.141151
-0.133627
-0.126438
-0.119632
-0.113236
-0.107263
-0.101716
-0.0965879
-0.0918695
-0.0875465
-0.0836031
-0.0800228
-0.0767887
-0.0738846
-0.0712952
-0.069006
-0.0670041
-0.0652778
-0.063817
-0.0626128
-0.0616579
-0.0609465
-0.0604755
-0.0602392
-0.186037
-0.179887
-0.173101
-0.165675
-0.157909
-0.150114
-0.142452
-0.135021
-0.127898
-0.121137
-0.114768
-0.108809
-0.103264
-0.0981316
-0.0934024
-0.0890647
-0.085104
-0.0815048
-0.0782513
-0.075328
-0.0727199
-0.0704132
-0.0683951
-0.0666544
-0.0651808
-0.063966
-0.0630025
-0.0622847
-0.0618092
-0.061571
-0.186061
-0.180346
-0.17385
-0.166606
-0.158983
-0.151303
-0.143728
-0.136361
-0.129284
-0.122553
-0.116202
-0.110251
-0.104707
-0.0995692
-0.0948303
-0.0904798
-0.0865043
-0.0828892
-0.0796193
-0.0766797
-0.074056
-0.0717346
-0.069703
-0.06795
-0.0664658
-0.065242
-0.0642713
-0.063548
-0.0630688
-0.0628289
-0.186478
-0.181115
-0.174815
-0.167671
-0.160129
-0.152513
-0.144985
-0.137652
-0.130599
-0.123884
-0.117542
-0.111593
-0.106046
-0.100902
-0.0961536
-0.0917918
-0.0878039
-0.0841756
-0.0808923
-0.0779394
-0.0753029
-0.0729695
-0.0709269
-0.069164
-0.0676712
-0.06644
-0.0654634
-0.0647357
-0.0642534
-0.0640122
-0.187336
-0.182214
-0.176002
-0.168876
-0.161349
-0.153745
-0.146223
-0.138895
-0.131844
-0.12513
-0.118786
-0.112833
-0.10728
-0.102128
-0.0973715
-0.0930001
-0.0890019
-0.0853631
-0.0820693
-0.0791061
-0.0764598
-0.0741171
-0.072066
-0.0702955
-0.0687961
-0.0675593
-0.0665781
-0.065847
-0.0653623
-0.06512
-0.188665
-0.18366
-0.177419
-0.170222
-0.162642
-0.154997
-0.147442
-0.140088
-0.133019
-0.126289
-0.119934
-0.113971
-0.108409
-0.103248
-0.0984833
-0.0941038
-0.0900976
-0.0864509
-0.0831495
-0.0801791
-0.0775258
-0.0751767
-0.0731197
-0.0713439
-0.0698398
-0.0685991
-0.0676147
-0.0668812
-0.0663949
-0.0661519
-0.19048
-0.185462
-0.179069
-0.171708
-0.164007
-0.156268
-0.148639
-0.14123
-0.134121
-0.127362
-0.120985
-0.115006
-0.109432
-0.104262
-0.0994886
-0.0951025
-0.0910905
-0.0874387
-0.0841326
-0.0811578
-0.0785005
-0.0761477
-0.0740873
-0.0723086
-0.0708018
-0.0695589
-0.0685727
-0.0678379
-0.0673506
-0.0671072
-0.192784
-0.18762
-0.180947
-0.17333
-0.165439
-0.157552
-0.149811
-0.142318
-0.135148
-0.128346
-0.121938
-0.115937
-0.110348
-0.105167
-0.100387
-0.0959957
-0.0919803
-0.088326
-0.0850181
-0.0820419
-0.0793835
-0.0770298
-0.0749686
-0.0731891
-0.0716818
-0.0704383
-0.0694517
-0.0687165
-0.068229
-0.0679856
-0.195569
-0.190119
-0.183036
-0.175076
-0.166928
-0.158843
-0.150949
-0.143346
-0.136097
-0.129238
-0.12279
-0.116762
-0.111155
-0.105964
-0.101177
-0.0967828
-0.0927663
-0.0891124
-0.0858056
-0.0828311
-0.0801745
-0.0778226
-0.0757632
-0.0739853
-0.0724793
-0.071237
-0.0702515
-0.069517
-0.0690299
-0.0687867
-0.198811
-0.19293
-0.185313
-0.176926
-0.168458
-0.160125
-0.152045
-0.144306
-0.13696
-0.130033
-0.123538
-0.117479
-0.111853
-0.10665
-0.101858
-0.0974628
-0.0934479
-0.0897973
-0.0864948
-0.083525
-0.0808733
-0.0785261
-0.076471
-0.074697
-0.0731944
-0.071955
-0.0709717
-0.070239
-0.0697531
-0.0695105
-0.202469
-0.196015
-0.187743
-0.178855
-0.170008
-0.161382
-0.153084
-0.145188
-0.13773
-0.130724
-0.124176
-0.118083
-0.112437
-0.107224
-0.102429
-0.0980347
-0.0940244
-0.0903803
-0.0870853
-0.0841235
-0.0814796
-0.0791399
-0.0770918
-0.0753241
-0.073827
-0.0725922
-0.0716126
-0.0708827
-0.0703986
-0.070157
-0.206489
-0.19932
-0.190284
-0.180829
-0.171551
-0.162593
-0.15405
-0.145978
-0.138396
-0.131304
-0.1247
-0.118571
-0.112905
-0.107683
-0.102887
-0.0984973
-0.0944948
-0.0908606
-0.0875767
-0.0846261
-0.0819934
-0.0796642
-0.0776257
-0.0758667
-0.0743771
-0.0731487
-0.0721742
-0.0714481
-0.0709666
-0.0707263
-0.210805
-0.202778
-0.192885
-0.182812
-0.173056
-0.163731
-0.154922
-0.146663
-0.138947
-0.131765
-0.125101
-0.118937
-0.113252
-0.108024
-0.10323
-0.098849
-0.0948582
-0.0912378
-0.0879685
-0.0850328
-0.0824145
-0.0800989
-0.0780729
-0.0763249
-0.074845
-0.0736246
-0.0726567
-0.0719356
-0.0714572
-0.0712186
-0.215334
-0.206308
-0.195494
-0.184762
-0.174486
-0.164769
-0.155682
-0.147224
-0.13937
-0.132095
-0.125373
-0.119176
-0.113476
-0.108245
-0.103458
-0.0990886
-0.0951137
-0.0915111
-0.0882606
-0.0853435
-0.0827431
-0.0804442
-0.0784334