/*--------------------------------*- C++ -*----------------------------------*\
  =========                 |
  \\      /  F ield         | OpenFOAM: The Open Source CFD Toolbox
   \\    /   O peration     | Website:  https://openfoam.org
    \\  /    A nd           | Version:  7
     \\/     M anipulation  |
\*---------------------------------------------------------------------------*/
FoamFile
{
    version     2.0;
    format      ascii;
    class       volVectorField;
    location    "100";
    object      U;
}
// * * * * * * * * * * * * * * * * * * * * * * * * * * * * * * * * * * * * * //

dimensions      [0 1 -1 0 0 0 0];

internalField   nonuniform List<vector> 
3500
(
(-0.00756016 0.0117549 -5.07772e-22)
(-0.0294692 0.0229225 1.00256e-21)
(0.0726119 0.0424692 -1.40531e-21)
(0.2255 0.0518017 1.84809e-21)
(0.378501 0.0432669 1.37168e-19)
(0.0725454 -0.0405228 1.41026e-21)
(0.225403 -0.0491274 -1.84907e-21)
(0.378406 -0.0407842 -1.3721e-19)
(0.485034 -0.0333509 -2.446e-20)
(0.573958 -0.0276398 -4.14585e-20)
(0.644534 -0.0231708 2.21848e-20)
(0.703382 -0.0195822 3.51748e-20)
(0.751636 -0.0166258 -3.23254e-20)
(0.792083 -0.0141174 -2.83364e-20)
(0.825826 -0.0120844 -1.94517e-20)
(0.083986 -0.122277 1.66476e-19)
(0.239237 -0.148844 -1.18315e-19)
(0.389783 -0.12393 1.68449e-19)
(0.494119 -0.101568 -2.31671e-21)
(0.581268 -0.0843695 9.8187e-20)
(0.650519 -0.0708844 -8.0613e-21)
(0.708382 -0.0600358 -4.96453e-20)
(0.755934 -0.0510797 2.00641e-19)
(0.795736 -0.0434806 -4.70716e-20)
(0.828607 -0.0373372 -1.24468e-21)
(0.106447 -0.200346 -3.57267e-19)
(0.26655 -0.244944 4.15902e-20)
(0.412318 -0.204371 -2.26921e-19)
(0.512132 -0.167698 2.10097e-20)
(0.595776 -0.139472 1.95526e-19)
(0.662404 -0.117316 -1.32134e-19)
(0.718311 -0.0994697 5.2455e-20)
(0.764466 -0.0847249 -4.89331e-20)
(0.803005 -0.0722428 1.299e-19)
(0.83421 -0.0622252 -1.72764e-19)
(0.138976 -0.27243 -5.61193e-21)
(0.306454 -0.335127 5.11619e-19)
(0.445392 -0.280365 2.7883e-19)
(0.538591 -0.230399 -1.35669e-19)
(0.617112 -0.191882 -1.59636e-19)
(0.679897 -0.161612 2.39116e-19)
(0.732914 -0.137205 -9.17125e-20)
(0.777004 -0.117037 -5.73473e-20)
(0.813731 -0.100004 -1.91199e-19)
(0.842621 -0.0864428 2.43898e-19)
(0.180229 -0.336487 1.5681e-19)
(0.357639 -0.417219 -2.26836e-19)
(0.488072 -0.350299 -6.25807e-19)
(0.572762 -0.288486 2.97536e-19)
(0.644696 -0.240725 -2.65104e-19)
(0.702518 -0.203137 -3.74525e-19)
(0.751768 -0.17277 2.8983e-20)
(0.793176 -0.147607 -1.21326e-20)
(0.827661 -0.126356 2.7252e-19)
(0.853763 -0.109595 -1.27074e-19)
(0.228649 -0.390876 2.65305e-19)
(0.418446 -0.489182 -1.51813e-19)
(0.539151 -0.412713 7.72148e-19)
(0.613765 -0.340842 -3.61036e-19)
(0.677917 -0.285014 -3.5271e-20)
(0.729848 -0.240946 4.10893e-19)
(0.77455 -0.205245 1.26492e-19)
(0.812691 -0.175661 -1.0527e-19)
(0.844574 -0.150787 -1.76016e-19)
(0.867561 -0.131372 9.45321e-20)
(0.282361 -0.433923 -4.96552e-21)
(0.48685 -0.549256 4.04381e-19)
(0.597047 -0.466531 -4.43284e-19)
(0.660452 -0.386673 3.04245e-19)
(0.715822 -0.32425 -7.49536e-20)
(0.761006 -0.274921 -2.46055e-19)
(0.800373 -0.234943 4.04336e-19)
(0.83468 -0.201759 1.55816e-19)
(0.863858 -0.173641 -1.35342e-19)
(0.883775 -0.151576 -6.82206e-20)
(0.338961 -0.464052 -1.35135e-19)
(0.560597 -0.596235 -6.36568e-19)
(0.660097 -0.510965 6.18209e-19)
(0.711661 -0.425268 -1.6445e-19)
(0.757606 -0.357687 -3.58953e-19)
(0.795583 -0.304062 1.72608e-19)
(0.829215 -0.260332 3.50887e-20)
(0.859349 -0.223789 1.89329e-19)
(0.885774 -0.192846 -2.18483e-19)
(0.902563 -0.169258 1.45945e-19)
(0.395633 -0.480237 2.33507e-19)
(0.637174 -0.629384 -4.84901e-20)
(0.726575 -0.545496 -2.19062e-19)
(0.766126 -0.456224 8.86681e-20)
(0.802227 -0.385108 3.42096e-19)
(0.832621 -0.328553 -3.78632e-19)
(0.859929 -0.282461 -2.44063e-19)
(0.884928 -0.244199 -1.98364e-19)
(0.908004 -0.2119 1.59927e-19)
(0.922639 -0.187029 -1.19613e-19)
(0.449244 -0.482049 -5.45212e-20)
(0.713788 -0.648325 9.04039e-20)
(0.794673 -0.569853 5.44198e-20)
(0.822552 -0.47932 -1.44399e-19)
(0.848675 -0.406262 -2.36491e-20)
(0.871418 -0.347883 2.10425e-19)
(0.892355 -0.300001 -2.16955e-19)
(0.912062 -0.259728 3.0695e-19)
(0.932029 -0.22485 1.52518e-19)
(0.947127 -0.198617 -5.25693e-20)
(0.496627 -0.469854 -1.95959e-21)
(0.787772 -0.653384 -2.56118e-20)
(0.862596 -0.583968 -8.89858e-20)
(0.879649 -0.494551 -5.98036e-20)
(0.895947 -0.421139 5.89861e-20)
(0.911176 -0.362099 1.54126e-19)
(0.92593 -0.313442 -6.65153e-20)
(0.940051 -0.272765 -8.04016e-20)
(0.954761 -0.239418 -2.95714e-19)
(0.969007 -0.215837 1.67273e-19)
(0.533677 -0.444054 1.90686e-19)
(0.856138 -0.645004 1.78835e-20)
(0.928461 -0.588028 -2.59298e-20)
(0.936155 -0.502172 4.75842e-20)
(0.943076 -0.429928 -1.42959e-19)
(0.951052 -0.371343 -7.45343e-20)
(0.959938 -0.322796 -9.55738e-20)
(0.968669 -0.282315 1.74772e-19)
(0.977783 -0.249377 7.13083e-20)
(0.988402 -0.222157 -6.79523e-20)
(0.557985 -0.407785 1.00189e-19)
(0.91633 -0.624677 -1.47583e-19)
(0.990711 -0.582156 -2.3439e-20)
(0.990873 -0.502621 5.61671e-21)
(0.989179 -0.432908 3.49198e-20)
(0.990315 -0.375794 -8.03647e-21)
(0.993729 -0.328039 1.72092e-19)
(0.997686 -0.287967 -1.42224e-19)
(1.00177 -0.255179 -1.09838e-20)
(1.00798 -0.226203 1.94738e-19)
(0.568323 -0.363648 -3.78947e-19)
(0.964359 -0.592797 -1.0996e-19)
(1.0475 -0.567248 -1.05055e-20)
(1.04266 -0.496468 -5.71494e-22)
(1.03346 -0.430508 7.98763e-21)
(1.02832 -0.375797 7.36898e-20)
(1.02675 -0.329508 -1.10219e-19)
(1.0267 -0.29029 2.57246e-20)
(1.02682 -0.258093 -3.22787e-20)
(1.0289 -0.229165 -5.27697e-20)
(0.563588 -0.313363 9.13755e-21)
(0.997681 -0.550916 2.99817e-19)
(1.09684 -0.544568 3.20808e-20)
(1.09042 -0.484149 -1.7588e-20)
(1.07519 -0.42326 -7.5703e-22)
(1.06458 -0.371843 6.57794e-21)
(1.05851 -0.327726 1.95597e-20)
(1.05509 -0.289869 -2.59308e-20)
(1.05222 -0.25864 3.22284e-21)
(1.05078 -0.230688 -1.91087e-21)
(0.54271 -0.259214 7.49132e-20)
(1.01474 -0.501137 -1.40047e-19)
(1.1364 -0.514971 5.00942e-20)
(1.13319 -0.466451 6.50685e-20)
(1.11374 -0.411941 -4.68996e-20)
(1.09855 -0.364467 -3.57787e-21)
(1.0886 -0.323109 -1.56506e-20)
(1.0823 -0.287105 1.28891e-20)
(1.07712 -0.256996 -1.89189e-20)
(1.07279 -0.230678 1.9752e-20)
(0.50546 -0.203975 1.03022e-19)
(1.01376 -0.445092 1.77566e-19)
(1.16412 -0.479457 1.01385e-19)
(1.1699 -0.444416 -1.1e-19)
(1.14879 -0.397191 1.01284e-19)
(1.12996 -0.35419 -4.38059e-20)
(1.11671 -0.316137 -6.27232e-21)
(1.10781 -0.28231 -5.4972e-21)
(1.10093 -0.253447 9.89856e-22)
(1.09417 -0.229197 -1.17442e-20)
(0.452933 -0.15053 2.65394e-19)
(0.992852 -0.384344 -1.39685e-19)
(1.1782 -0.439069 8.00946e-20)
(1.19912 -0.418874 7.40843e-20)
(1.17969 -0.379734 -3.30248e-20)
(1.15867 -0.341601 5.08692e-20)
(1.14279 -0.307111 1.56696e-20)
(1.13148 -0.275837 1.65314e-20)
(1.12311 -0.248259 9.18664e-21)
(1.11491 -0.22632 4.25693e-21)
(0.387774 -0.101651 -9.71289e-20)
(0.950286 -0.320547 -1.35312e-19)
(1.17662 -0.394743 -8.95806e-20)
(1.21949 -0.390492 -8.22616e-20)
(1.20573 -0.360244 -2.88765e-20)
(1.18428 -0.327251 3.75571e-20)
(1.16663 -0.296406 -1.5176e-20)
(1.15338 -0.267894 2.99787e-21)
(1.14362 -0.242043 -8.26756e-21)
(1.13473 -0.222228 4.86945e-21)
(0.314214 -0.0599251 2.51758e-20)
(0.884753 -0.255485 -5.50022e-21)
(1.15686 -0.347331 2.26671e-20)
(1.22927 -0.359722 1.49292e-20)
(1.22619 -0.339252 1.30247e-20)
(1.2065 -0.311678 -3.02506e-20)
(1.18806 -0.284491 1.34938e-20)
(1.17354 -0.258825 -1.25391e-20)
(1.16247 -0.234895 -3.07231e-21)
(1.15285 -0.216949 -4.08181e-21)
(0.237773 -0.0276714 1.05439e-21)
(0.79579 -0.191227 -8.09504e-22)
(1.11611 -0.297751 -5.35702e-21)
(1.22615 -0.326842 6.86795e-20)
(1.23993 -0.317045 -1.86306e-20)
(1.22504 -0.295326 -2.14293e-20)
(1.20704 -0.271811 3.90645e-21)
(1.19178 -0.248921 -3.90744e-21)
(1.17995 -0.226858 -9.20666e-21)
(1.16936 -0.210562 -2.01123e-20)
(0.164519 -0.00653505 -1.01162e-19)
(0.684263 -0.130324 2.18893e-20)
(1.05133 -0.246861 -1.88671e-19)
(1.20686 -0.291923 -7.14833e-20)
(1.24511 -0.293677 -2.64933e-20)
(1.23927 -0.278446 -7.80397e-21)
(1.2235 -0.258713 -1.99797e-20)
(1.2083 -0.238525 -1.8908e-20)
(1.1957 -0.218041 5.78672e-21)
(1.18478 -0.203155 1.39452e-20)
(0.100082 0.0033829 1.71305e-19)
(0.554571 -0.0764031 -9.65186e-20)
(0.95989 -0.195692 1.47896e-19)
(1.16702 -0.254816 7.58046e-20)
(1.23867 -0.268874 -4.45875e-20)
(1.24801 -0.261106 1.37096e-19)
(1.23716 -0.245383 -2.87002e-20)
(1.2229 -0.227853 5.22664e-20)
(1.21048 -0.20897 3.68149e-21)
(1.19909 -0.194808 5.1186e-20)
(0.0484213 0.00405408 -1.05794e-19)
(0.416606 -0.0342449 4.4078e-19)
(0.840079 -0.145631 -9.68364e-20)
(1.10119 -0.215402 -8.22382e-20)
(1.21607 -0.242145 2.09704e-19)
(1.24867 -0.242943 -9.29972e-20)
(1.2473 -0.231891 -4.80543e-20)
(1.23584 -0.217088 -2.57408e-20)
(1.22334 -0.199744 -9.68139e-20)
(1.21303 -0.185942 3.44132e-20)
(0.0108191 -0.00100881 -1.92097e-19)
(0.2846 -0.00859903 -2.62197e-19)
(0.69315 -0.0989604 2.07446e-19)
(1.00364 -0.173986 5.82299e-20)
(1.17064 -0.21271 -1.49747e-19)
(1.23712 -0.223367 -1.51108e-19)
(1.25171 -0.2178 8.21805e-21)
(1.24627 -0.206174 -9.77339e-20)
(1.23577 -0.190897 1.4691e-19)
(1.22474 -0.176216 -2.14894e-20)
(-0.0139572 -0.00826011 8.58275e-20)
(0.172172 -0.000654213 4.10568e-19)
(0.527785 -0.0598752 -5.1254e-20)
(0.870083 -0.131477 1.45106e-20)
(1.09398 -0.179852 -3.42942e-20)
(1.20568 -0.200966 1.98824e-19)
(1.24684 -0.202678 6.68899e-20)
(1.25266 -0.194552 1.13207e-19)
(1.24537 -0.182016 -1.02243e-19)
(1.23772 -0.166959 6.12287e-20)
(-0.0287708 -0.0154502 -6.35146e-19)
(0.0863556 -0.00580862 1.62156e-19)
(0.363405 -0.0341236 -2.06386e-19)
(0.702516 -0.090764 2.493e-19)
(0.976561 -0.142941 -6.15406e-20)
(1.14423 -0.174502 -3.49615e-19)
(1.22382 -0.184564 1.86095e-19)
(1.25181 -0.181991 -6.81782e-20)
(1.25287 -0.172876 6.2449e-20)
(1.24546 -0.156213 1.8323e-19)
(-0.03649 -0.021806 2.97342e-19)
(0.0266514 -0.0173553 -4.4782e-19)
(0.222307 -0.0247624 -5.54902e-20)
(0.51662 -0.058148 -2.77265e-19)
(0.813786 -0.103947 -3.42201e-19)
(1.03785 -0.141759 1.67836e-19)
(1.17186 -0.16254 -2.07178e-19)
(1.23301 -0.16539 -2.44639e-20)
(1.25368 -0.16348 -1.80058e-20)
(1.25545 -0.146098 -2.32619e-19)
(-0.0392206 -0.027116 2.76686e-19)
(-0.0115604 -0.0304682 -1.06061e-19)
(0.116226 -0.0286572 1.01341e-19)
(0.340687 -0.0401294 -1.50734e-19)
(0.61814 -0.0695526 1.48232e-19)
(0.876715 -0.10457 2.73771e-19)
(1.0684 -0.132151 1.6138e-19)
(1.18622 -0.145321 -8.48809e-21)
(1.23455 -0.148344 -1.7577e-19)
(1.25589 -0.134894 1.37377e-19)
(-0.0386702 -0.0314257 3.22234e-19)
(-0.0337704 -0.042784 1.03435e-19)
(0.0441562 -0.0393975 1.73832e-19)
(0.198775 -0.0372523 5.10342e-20)
(0.421542 -0.0479804 -2.48497e-19)
(0.673019 -0.069945 7.43064e-20)
(0.900987 -0.0970252 -2.79371e-19)
(1.07581 -0.112615 3.83047e-19)
(1.18929 -0.133824 2.26137e-19)
(1.22824 -0.110964 5.9399e-20)
(-0.0361553 -0.0348225 -4.55921e-19)
(-0.0448391 -0.0531856 -1.13687e-19)
(-0.00108867 -0.0516154 -1.32723e-19)
(0.0979583 -0.0439494 7.73433e-20)
(0.256106 -0.0411673 3.14304e-19)
(0.46211 -0.0474787 -2.52782e-19)
(0.687432 -0.0644662 -1.07944e-19)
(0.891606 -0.0766491 -1.34375e-19)
(1.05906 -0.0992981 -4.22933e-19)
(1.19301 -0.10603 1.06841e-19)
(-0.0325613 -0.0372555 -1.85726e-19)
(-0.0487234 -0.0610069 4.08344e-20)
(-0.0276506 -0.0620296 2.02149e-20)
(0.0320234 -0.0534927 -1.2519e-19)
(0.134555 -0.0440736 -2.0027e-19)
(0.282165 -0.0411798 5.27532e-19)
(0.464423 -0.0390723 7.30375e-20)
(0.671891 -0.0516796 2.25706e-19)
(0.826201 -0.0557366 -4.37954e-20)
(1.07746 -0.0833793 1.60988e-19)
(-0.0285316 -0.0385244 3.31467e-19)
(-0.0484085 -0.0656425 7.39917e-20)
(-0.0423948 -0.0687452 -3.5168e-19)
(-0.0095775 -0.0611458 1.96125e-19)
(0.0519861 -0.0499514 3.19551e-19)
(0.148913 -0.0433175 -3.10578e-19)
(0.269295 -0.024804 2.62254e-19)
(0.460525 -0.0403294 -1.42589e-19)
(0.54755 -0.0218797 1.99122e-19)
(0.871812 -0.0524914 -3.07619e-19)
(-0.0244319 -0.038396 6.35344e-20)
(-0.0458423 -0.0665365 -4.78123e-19)
(-0.0503702 -0.0707317 4.6532e-19)
(-0.0362403 -0.0643231 -2.68016e-20)
(-0.00320385 -0.0535148 -1.54951e-19)
(0.0555056 -0.0447565 -5.1332e-21)
(0.123847 -0.0233379 -4.02981e-19)
(0.274065 -0.0316267 3.57995e-19)
(0.308193 -0.00745097 -2.81751e-19)
(0.609126 -0.026116 1.91425e-19)
(-0.0204001 -0.0365299 9.53069e-20)
(-0.0423144 -0.0633326 -4.7856e-20)
(-0.0548608 -0.0675899 -1.64455e-19)
(-0.0544372 -0.0620792 -2.02026e-19)
(-0.041443 -0.052326 4.59798e-20)
(-0.0101906 -0.0422597 -2.24046e-19)
(0.0236464 -0.026073 -7.04176e-21)
(0.121647 -0.02078 -3.30804e-20)
(0.137795 -0.00933098 9.86359e-20)
(0.343944 -0.00799546 5.57875e-21)
(-0.0165692 -0.0326295 -2.7325e-19)
(-0.0386372 -0.0559939 1.9588e-19)
(-0.057662 -0.0594287 2.75929e-19)
(-0.0677853 -0.0544886 -1.19035e-20)
(-0.0690308 -0.0459017 9.09232e-20)
(-0.058118 -0.035777 -8.46659e-20)
(-0.0465456 -0.0246601 3.3942e-19)
(0.00818467 -0.010735 -1.07953e-19)
(0.0156486 -0.0121925 -3.36784e-19)
(0.128498 0.00998723 1.57111e-19)
(-0.0131249 -0.0265865 -1.93186e-20)
(-0.0352849 -0.0447814 -2.2043e-19)
(-0.0595734 -0.046814 -1.74451e-19)
(-0.0778057 -0.0422777 1.69958e-19)
(-0.0896298 -0.0347649 -1.25167e-19)
(-0.093946 -0.0258281 5.69162e-20)
(-0.0956488 -0.0171963 4.22398e-20)
(-0.0729426 -0.00202825 1.96783e-20)
(-0.0745369 -0.00541634 1.00584e-19)
(-0.0192435 0.0224496 -1.8437e-19)
(-0.0102991 -0.0185628 1.50725e-19)
(-0.0325463 -0.0302862 1.90459e-19)
(-0.0608481 -0.0306272 5.95336e-21)
(-0.0850305 -0.0264898 -1.52721e-19)
(-0.104568 -0.0201816 2.49113e-20)
(-0.119195 -0.01283 3.90324e-20)
(-0.130063 -0.00529406 -5.89282e-20)
(-0.128783 0.0060228 3.0978e-20)
(-0.136198 0.00591882 3.04579e-20)
(-0.114774 0.0256444 -3.18112e-20)
(-0.0083275 -0.0090097 -2.14859e-20)
(-0.030604 -0.0134017 2.96872e-20)
(-0.0614896 -0.0119492 -1.32599e-19)
(-0.0894689 -0.0082898 3.44511e-20)
(-0.113919 -0.00334975 -7.58616e-20)
(-0.134693 0.00231142 2.05511e-20)
(-0.151719 0.0083432 3.68994e-20)
(-0.162331 0.0155407 -6.56191e-20)
(-0.174001 0.0170489 -7.97796e-21)
(-0.170809 0.0263491 2.85812e-20)
(-0.00738991 0.00137689 -1.48312e-20)
(-0.0295647 0.00475101 3.16752e-21)
(-0.061429 0.00802502 7.06865e-20)
(-0.0909646 0.0111379 2.80566e-20)
(-0.117495 0.0146072 -1.65126e-20)
(-0.140827 0.0184885 9.37062e-21)
(-0.160671 0.0225163 -1.25092e-20)
(-0.176128 0.026267 1.92235e-20)
(-0.190081 0.0274628 1.26497e-20)
(-0.19508 0.0289945 2.34167e-23)
(0.851095 -0.0108869 4.29841e-20)
(0.87065 -0.0086468 -2.58437e-20)
(0.887244 -0.00774684 9.63793e-21)
(0.901623 -0.00635357 -6.4986e-21)
(0.913953 -0.00563148 1.32728e-20)
(0.924769 -0.00471475 -7.43792e-21)
(0.934123 -0.00415953 4.686e-22)
(0.942393 -0.0035347 8.30399e-21)
(0.949604 -0.00311317 -1.81848e-22)
(0.956013 -0.00267328 3.39616e-22)
(0.961641 -0.00235186 -4.01459e-21)
(0.966664 -0.00203411 4.97503e-21)
(0.971111 -0.00179216 -8.44275e-21)
(0.975102 -0.00156426 3.30416e-21)
(0.978645 -0.00138062 6.09434e-21)
(0.981806 -0.00119994 -8.7258e-21)
(0.984602 -0.00105563 3.2849e-22)
(0.987088 -0.000919447 3.50873e-21)
(0.989281 -0.00080471 -3.47842e-21)
(0.99122 -0.000697807 2.24675e-21)
(0.992919 -0.000604713 -1.37558e-21)
(0.994405 -0.000518527 3.43711e-21)
(0.99569 -0.000441752 -1.30002e-21)
(0.99679 -0.000370537 -2.87638e-21)
(0.997716 -0.00030575 1.35492e-21)
(0.998479 -0.000245015 2.93525e-22)
(0.999084 -0.000188359 3.9906e-22)
(0.999538 -0.000133886 9.73095e-22)
(0.99984 -8.0701e-05 2.40529e-23)
(0.999995 -2.70219e-05 3.55209e-22)
(0.852977 -0.0337044 -1.56365e-20)
(0.872118 -0.0268969 -2.87234e-20)
(0.888388 -0.0241363 4.54688e-20)
(0.902576 -0.0199024 1.31532e-21)
(0.914703 -0.0176977 -2.13312e-20)
(0.925393 -0.0149119 2.05892e-20)
(0.934615 -0.0132158 -5.15703e-20)
(0.942801 -0.0113109 8.94509e-21)
(0.949927 -0.0100178 -1.15682e-20)
(0.956281 -0.00867002 4.71859e-20)
(0.961853 -0.00767871 -2.14456e-20)
(0.966834 -0.00669366 -1.53056e-21)
(0.971236 -0.0059271 1.36289e-21)
(0.975195 -0.00519962 8.68234e-22)
(0.978724 -0.00462332 4.12983e-21)
(0.981877 -0.00408321 3.40838e-21)
(0.984656 -0.00362118 -1.19195e-20)
(0.98713 -0.00318954 8.24936e-22)
(0.989312 -0.0028121 -9.09392e-21)
(0.991243 -0.00246094 7.61977e-21)
(0.992936 -0.00214799 -1.43721e-21)
(0.994417 -0.0018562 -2.91962e-21)
(0.995697 -0.00159123 -2.68962e-21)
(0.996794 -0.00134249 -1.06976e-21)
(0.997717 -0.00111232 3.4273e-21)
(0.998477 -0.000894062 6.14007e-22)
(0.999081 -0.000688115 -3.24867e-21)
(0.999534 -0.000489 1.30756e-22)
(0.999838 -0.000294106 -7.37316e-22)
(0.999994 -9.81222e-05 -8.59839e-22)
(0.856833 -0.0563119 -2.12551e-20)
(0.875136 -0.0449062 8.83186e-20)
(0.890728 -0.0403097 -4.28164e-20)
(0.904514 -0.0332399 9.82442e-20)
(0.916222 -0.0295914 -1.11102e-20)
(0.926656 -0.0249597 -1.00498e-19)
(0.93561 -0.0221561 3.55939e-21)
(0.943629 -0.0189919 3.67996e-20)
(0.950584 -0.0168503 3.21879e-20)
(0.956828 -0.0146099 -4.2156e-20)
(0.962293 -0.0129646 5.06473e-20)
(0.967204 -0.011324 -1.27214e-20)
(0.97153 -0.010043 9.59647e-22)
(0.97542 -0.00881611 8.66859e-21)
(0.978875 -0.0078383 -3.48624e-20)
(0.981993 -0.00693565 6.54053e-21)
(0.984753 -0.00615827 1.79845e-20)
(0.98721 -0.00543331 1.29212e-20)
(0.989375 -0.0047981 -1.84541e-20)
(0.991292 -0.0042054 1.4498e-20)
(0.992972 -0.0036761 2.8393e-21)
(0.994442 -0.00318087 -7.51572e-21)
(0.995713 -0.00273009 1.11153e-20)
(0.996803 -0.00230552 -7.5787e-21)
(0.997719 -0.00191163 2.33981e-21)
(0.998475 -0.00153718 1.9593e-21)
(0.999075 -0.00118322 2.44023e-21)
(0.999527 -0.000840567 1.79514e-22)
(0.999834 -0.000505171 3.51261e-21)
(0.999993 -0.000168353 1.26206e-21)
(0.862732 -0.0785214 -5.18521e-20)
(0.879752 -0.0625367 1.10171e-19)
(0.894274 -0.0561784 -7.71276e-20)
(0.907428 -0.0462918 1.20993e-19)
(0.918488 -0.0412545 -1.17175e-19)
(0.928537 -0.0348027 7.48211e-20)
(0.937087 -0.0309313 -1.96988e-20)
(0.944858 -0.0265305 9.11789e-21)
(0.951558 -0.0235679 -6.71376e-20)
(0.95764 -0.0204516 2.52681e-21)
(0.962941 -0.0181706 -1.42682e-20)
(0.967743 -0.0158899 9.5078e-20)
(0.971958 -0.0141139 -5.83577e-20)
(0.975761 -0.0123993 -1.0275e-21)
(0.979127 -0.0110115 -2.0653e-20)
(0.982193 -0.00971947 6.1484e-21)
(0.984913 -0.00865574 -3.05412e-21)
(0.987336 -0.0076349 -9.61854e-21)
(0.989473 -0.00675262 1.60875e-20)
(0.991368 -0.00592065 -7.14428e-21)
(0.993027 -0.00518047 1.20395e-20)
(0.994482 -0.004485 -5.8519e-21)
(0.995739 -0.00385189 -6.8173e-21)
(0.996818 -0.00325402 9.68918e-21)
(0.997725 -0.00269902 -9.01283e-21)
(0.998472 -0.00217055 8.0352e-22)
(0.999067 -0.00167058 9.18848e-22)
(0.999518 -0.00118621 -8.5488e-21)
(0.999828 -0.000712315 4.51596e-21)
(0.999992 -0.000237137 -1.9825e-21)
(0.870702 -0.100076 1.57023e-19)
(0.885991 -0.0795791 6.00631e-20)
(0.899041 -0.0715923 -1.66087e-19)
(0.911327 -0.0589312 -5.95122e-20)
(0.921504 -0.0525917 3.54309e-20)
(0.931034 -0.0443629 2.18506e-20)
(0.939041 -0.0394826 2.68274e-20)
(0.946486 -0.0338797 2.33372e-20)
(0.952846 -0.0301343 -8.95282e-20)
(0.958715 -0.0261668 1.10024e-20)
(0.963801 -0.0232743 6.36675e-20)
(0.968463 -0.020369 -4.28751e-20)
(0.97254 -0.0181107 -4.18672e-20)
(0.976245 -0.0159168 1.01098e-20)
(0.979498 -0.0141268 1.53561e-20)
(0.982451 -0.0124403 1.08894e-20)
(0.985105 -0.0110572 -1.91549e-20)
(0.987504 -0.00977894 1.26348e-20)
(0.989601 -0.0086558 2.16267e-20)
(0.991471 -0.00759684 -1.24272e-20)
(0.993103 -0.00665134 7.73777e-21)
(0.994538 -0.00576169 -4.4184e-20)
(0.995777 -0.00494954 2.22028e-20)
(0.996842 -0.00418263 -4.02995e-21)
(0.997735 -0.00347002 -8.18368e-21)
(0.998473 -0.00279051 7.93574e-21)
(0.999059 -0.00214714 -6.27808e-21)
(0.999509 -0.00152358 8.09014e-21)
(0.999822 -0.000913947 -7.73309e-21)
(0.999991 -0.000303889 -1.65187e-21)
(0.880782 -0.120808 -1.39674e-19)
(0.893888 -0.0959673 -2.18894e-20)
(0.905035 -0.086592 2.40254e-19)
(0.916196 -0.0712363 -1.77382e-19)
(0.925238 -0.0636978 1.2706e-19)
(0.934115 -0.0537264 2.0994e-20)
(0.941439 -0.0478812 3.36672e-21)
(0.948483 -0.0410959 -3.21709e-20)
(0.954423 -0.0365912 -7.45968e-20)
(0.960034 -0.031788 4.35023e-20)
(0.964854 -0.0283005 2.99962e-20)
(0.969344 -0.0247843 -1.69083e-20)
(0.97325 -0.0220592 3.84679e-20)
(0.976846 -0.0194069 -5.09463e-20)
(0.979992 -0.0172428 4.76943e-20)
(0.98285 -0.0151761 -4.92112e-20)
(0.985367 -0.0134373 3.74842e-20)
(0.98769 -0.0118485 1.3506e-20)
(0.989761 -0.0104927 -2.53257e-20)
(0.991598 -0.00922899 -3.30424e-21)
(0.993201 -0.00807919 2.13627e-21)
(0.994613 -0.00700013 1.43156e-20)
(0.995829 -0.0060168 -1.72855e-20)
(0.996876 -0.00508675 6.42888e-21)
(0.997753 -0.00422043 5.05828e-21)
(0.998478 -0.00339333 1.05969e-20)
(0.999055 -0.00260998 -3.53685e-22)
(0.9995 -0.00185032 -3.58769e-21)
(0.999816 -0.00110836 3.20136e-21)
(0.99999 -0.000367977 3.55064e-21)
(0.892887 -0.140435 3.48346e-20)
(0.903382 -0.111407 -3.83993e-20)
(0.912227 -0.100836 2.14856e-20)
(0.92205 -0.0828493 9.07203e-21)
(0.92972 -0.0742358 1.18623e-19)
(0.937822 -0.0626042 -1.74668e-19)
(0.94432 -0.0558868 1.66686e-19)
(0.950882 -0.0479889 -7.30601e-20)
(0.956316 -0.042786 4.29239e-20)
(0.961617 -0.0371957 -5.1346e-20)
(0.966118 -0.0331517 -4.70524e-21)
(0.970401 -0.0290555 -6.13613e-20)
(0.974102 -0.0258867 -7.00704e-21)
(0.977558 -0.0227959 7.35193e-20)
(0.980575 -0.0202819 -3.83568e-21)
(0.983348 -0.0178786 -3.16622e-20)
(0.985773 -0.0158373 4.23757e-20)
(0.987976 -0.0139106 -2.73912e-20)
(0.989938 -0.0122685 2.03886e-20)
(0.991748 -0.010751 -4.33944e-20)
(0.993329 -0.00943297 2.53199e-20)
(0.994707 -0.00819664 3.86932e-21)
(0.995895 -0.0070548 1.7238e-20)
(0.996923 -0.00595823 -1.59642e-20)
(0.997782 -0.00494427 -1.67743e-20)
(0.998492 -0.00397571 8.83768e-21)
(0.999056 -0.00305636 9.90712e-21)
(0.999496 -0.00216355 -3.72103e-21)
(0.999813 -0.00129347 -4.86336e-21)
(0.99999 -0.000428637 3.93276e-21)
(0.907112 -0.158819 -9.67671e-20)
(0.914696 -0.125823 3.21134e-20)
(0.920736 -0.114625 4.24634e-21)
(0.928929 -0.0942941 1.14268e-19)
(0.934913 -0.0847877 5.46135e-20)
(0.942079 -0.0715914 5.1658e-20)
(0.947604 -0.0640068 -9.62876e-20)
(0.953608 -0.0550044 -1.42458e-19)
(0.958464 -0.0490724 -2.35992e-21)
(0.963412 -0.0426807 1.78429e-19)
(0.967556 -0.0380523 2.69914e-20)
(0.971606 -0.0333608 3.10027e-21)
(0.975076 -0.0297289 -8.87118e-20)
(0.978375 -0.0261861 -6.91072e-20)
(0.98124 -0.0233069 2.19233e-20)
(0.983909 -0.020561 9.6298e-20)
(0.986245 -0.018239 -1.04707e-21)
(0.988387 -0.0160376 -6.61647e-20)
(0.99026 -0.0141105 5.58806e-21)
(0.991946 -0.0123217 6.06008e-20)
(0.993436 -0.0107633 -7.25637e-20)
(0.994799 -0.00930422 7.30572e-21)
(0.995984 -0.00799415 1.21893e-22)
(0.996993 -0.00677357 1.06386e-20)
(0.997823 -0.00563441 7.74814e-21)
(0.998516 -0.00453565 -1.55155e-20)
(0.999068 -0.00348015 7.47101e-21)
(0.9995 -0.00245942 2.91598e-21)
(0.999814 -0.00146657 2.79627e-22)
(0.99999 -0.000484907 -5.39965e-23)
(0.923359 -0.176042 -1.99699e-19)
(0.927342 -0.139204 2.01357e-19)
(0.930369 -0.127212 -6.50401e-20)
(0.93674 -0.104379 -3.29042e-20)
(0.940942 -0.0939614 4.15489e-20)
(0.947057 -0.0792828 -5.80483e-21)
(0.951513 -0.0709851 1.44175e-19)
(0.956855 -0.0610271 -1.66616e-19)
(0.961052 -0.0545238 1.46475e-19)
(0.965572 -0.0474636 -1.70561e-19)
(0.969298 -0.0423753 -2.28744e-20)
(0.973064 -0.0371901 -1.83168e-20)
(0.976261 -0.0331859 1.47649e-20)
(0.979367 -0.029264 6.73562e-20)
(0.982049 -0.0260804 -1.74846e-20)
(0.984584 -0.0230352 6.537e-21)
(0.986796 -0.0204668 3.16831e-20)
(0.98885 -0.0180391 -4.63417e-20)
(0.990647 -0.0159274 7.83137e-21)
(0.992285 -0.013933 -6.74208e-21)
(0.993712 -0.0121389 5.11818e-21)
(0.994984 -0.0104638 1.54283e-21)
(0.996074 -0.00896865 7.75572e-21)
(0.99704 -0.0075751 -9.76172e-21)
(0.997866 -0.00627703 4.92439e-22)
(0.998556 -0.00504103 -1.1941e-20)
(0.999097 -0.00387297 1.15412e-20)
(0.999514 -0.00273291 -3.30084e-21)
(0.999821 -0.00162502 -1.76926e-21)
(0.999992 -0.00053524 -4.99978e-21)
(0.943947 -0.189807 1.18886e-19)
(0.943609 -0.150265 9.41073e-20)
(0.942737 -0.138537 -2.39452e-19)
(0.946635 -0.115195 -8.07613e-21)
(0.948371 -0.104251 -2.84095e-20)
(0.953027 -0.0887852 1.04051e-19)
(0.956097 -0.0796223 -6.10185e-20)
(0.96062 -0.0687697 1.04967e-20)
(0.964007 -0.0614504 2.06674e-20)
(0.968032 -0.0535966 3.96384e-20)
(0.971261 -0.0478267 -7.83098e-20)
(0.974709 -0.0419925 2.08933e-19)
(0.977591 -0.0374391 -9.4941e-20)
(0.980485 -0.0330008 -4.9275e-20)
(0.982959 -0.029379 2.0939e-20)
(0.98535 -0.0259249 5.0411e-21)
(0.987421 -0.0230065 -2.78862e-20)
(0.98937 -0.0202569 1.10392e-20)
(0.991068 -0.0178707 1.65749e-20)
(0.992634 -0.015633 4.2756e-22)
(0.993997 -0.0136415 -4.20698e-20)
(0.995224 -0.0117717 9.34506e-21)
(0.996274 -0.0100663 7.8245e-21)
(0.997196 -0.00844866 2.55647e-20)
(0.997967 -0.00696466 4.73781e-21)
(0.998609 -0.00556582 -1.96125e-20)
(0.999127 -0.00425798 2.07192e-20)
(0.99954 -0.0029859 -6.3244e-21)
(0.999836 -0.00176496 1.23368e-21)
(0.999995 -0.000581026 -5.26251e-21)
(0.967403 -0.19293 0)
(0.963449 -0.14951 0)
(0.957173 -0.142077 0)
(0.958866 -0.115949 0)
(0.958174 -0.10687 0)
(0.961474 -0.0900037 0)
(0.962951 -0.0815971 0)
(0.96649 -0.070103 0)
(0.9688 -0.0630843 0)
(0.972127 -0.0549185 0)
(0.974628 -0.0492616 0)
(0.977581 -0.0432585 0)
(0.979962 -0.038736 0)
(0.982501 -0.034192 0)
(0.984629 -0.0305607 0)
(0.986762 -0.0270275 0)
(0.988589 -0.0240771 0)
(0.990349 -0.0212577 0)
(0.991871 -0.0188228 0)
(0.993296 -0.016516 0)
(0.994531 -0.0144702 0)
(0.995656 -0.0125357 0)
(0.99662 -0.0107745 0)
(0.99747 -0.0090967 0)
(0.998175 -0.00753757 0)
(0.998765 -0.00603979 0)
(0.999237 -0.00461569 0)
(0.999608 -0.00323937 0)
(0.999862 -0.00191859 0)
(0.999996 -0.000634894 0)
(0.984829 -0.174782 0)
(0.979797 -0.145243 0)
(0.973103 -0.137874 0)
(0.971967 -0.115174 0)
(0.969843 -0.106976 0)
(0.971115 -0.090972 0)
(0.971396 -0.0833581 0)
(0.973549 -0.0719962 0)
(0.974912 -0.0654032 0)
(0.977271 -0.0571392 0)
(0.979043 -0.0516297 0)
(0.981306 -0.045458 0)
(0.983138 -0.0409237 0)
(0.985176 -0.0361961 0)
(0.986891 -0.0324748 0)
(0.988658 -0.0287648 0)
(0.990176 -0.0256937 0)
(0.991665 -0.0227121 0)
(0.992956 -0.0201487 0)
(0.994179 -0.0176951 0)
(0.99524 -0.0155229 0)
(0.996216 -0.0134553 0)
(0.997055 -0.0115788 0)
(0.997799 -0.00978894 0)
(0.998418 -0.00812636 0)
(0.99894 -0.00652435 0)
(0.999354 -0.00500092 0)
(0.999673 -0.00352148 0)
(0.999886 -0.00209489 0)
(0.999997 -0.000693262 0)
(0.998514 -0.161523 0)
(0.992694 -0.139277 0)
(0.986351 -0.132177 0)
(0.98355 -0.113592 0)
(0.980634 -0.105718 0)
(0.980233 -0.0914507 0)
(0.979604 -0.0841011 0)
(0.980471 -0.0734098 0)
(0.98104 -0.066971 0)
(0.982443 -0.0589116 0)
(0.983564 -0.0534452 0)
(0.985121 -0.047277 0)
(0.986435 -0.0427072 0)
(0.98795 -0.037899 0)
(0.989262 -0.0340965 0)
(0.990639 -0.0302743 0)
(0.991846 -0.0271007 0)
(0.993045 -0.0239993 0)
(0.994099 -0.0213267 0)
(0.995105 -0.0187552 0)
(0.995987 -0.0164732 0)
(0.996801 -0.0142921 0)
(0.997505 -0.0123094 0)
(0.998133 -0.0104139 0)
(0.998659 -0.00865186 0)
(0.999106 -0.00695339 0)
(0.999458 -0.00533928 0)
(0.999729 -0.00376788 0)
(0.999906 -0.00224658 0)
(0.999998 -0.000744231 0)
(1.00985 -0.151233 0)
(1.0036 -0.132745 0)
(0.997369 -0.126271 0)
(0.993592 -0.110678 0)
(0.990141 -0.103315 0)
(0.988567 -0.0907483 0)
(0.987182 -0.0836843 0)
(0.987003 -0.0738422 0)
(0.986862 -0.0675568 0)
(0.987427 -0.0598862 0)
(0.987947 -0.0544827 0)
(0.988852 -0.0484627 0)
(0.989678 -0.0438925 0)
(0.990693 -0.0391093 0)
(0.991617 -0.0352659 0)
(0.992614 -0.0314076 0)
(0.993517 -0.0281698 0)
(0.994427 -0.0250037 0)
(0.995246 -0.0222555 0)
(0.996035 -0.0196074 0)
(0.996737 -0.0172451 0)
(0.997389 -0.0149828 0)
(0.997959 -0.0129177 0)
(0.998468 -0.0109391 0)
(0.998899 -0.0090945 0)
(0.999266 -0.00731514 0)
(0.999557 -0.00562228 0)
(0.999778 -0.00397214 0)
(0.999923 -0.00237056 0)
(0.999998 -0.000785812 0)
(1.01931 -0.141968 0)
(1.01283 -0.126004 0)
(1.00664 -0.120373 0)
(1.00223 -0.106879 0)
(0.998384 -0.100199 0)
(0.995989 -0.0890596 0)
(0.994003 -0.0824332 0)
(0.993008 -0.073426 0)
(0.992252 -0.0673902 0)
(0.992112 -0.0601703 0)
(0.992087 -0.0548954 0)
(0.992418 -0.0490973 0)
(0.992789 -0.0445778 0)
(0.993348 -0.039885 0)
(0.993902 -0.0360427 0)
(0.994543 -0.032201 0)
(0.995152 -0.0289341 0)
(0.995786 -0.0257447 0)
(0.996374 -0.02295 0)
(0.996952 -0.0202577 0)
(0.997477 -0.0178399 0)
(0.99797 -0.0155229 0)
(0.998407 -0.0133974 0)
(0.9988 -0.0113581 0)
(0.999137 -0.00945009 0)
(0.999423 -0.00760779 0)
(0.999652 -0.00585103 0)
(0.999826 -0.00413678 0)
(0.99994 -0.00246978 0)
(0.999998 -0.000819013 0)
(1.02718 -0.133207 0)
(1.02056 -0.119251 0)
(1.01446 -0.114465 0)
(1.00962 -0.102597 0)
(1.0055 -0.096636 0)
(1.00251 -0.0866776 0)
(1.00006 -0.0805715 0)
(0.998435 -0.0723316 0)
(0.997168 -0.0666272 0)
(0.996444 -0.059867 0)
(0.995941 -0.0547865 0)
(0.995773 -0.0492463 0)
(0.995729 -0.0448294 0)
(0.995879 -0.0402683 0)
(0.996089 -0.0364688 0)
(0.9964 -0.0326821 0)
(0.99673 -0.0294202 0)
(0.997104 -0.02624 0)
(0.997471 -0.0234269 0)
(0.997847 -0.0207174 0)
(0.998199 -0.0182673 0)
(0.998538 -0.0159182 0)
(0.998845 -0.0137522 0)
(0.999125 -0.0116721 0)
(0.999368 -0.00971884 0)
(0.999576 -0.00783097 0)
(0.999744 -0.00602603 0)
(0.999871 -0.00426306 0)
(0.999956 -0.00254573 0)
(0.999999 -0.000844459 0)
(1.03367 -0.124854 0)
(1.02699 -0.112585 0)
(1.02103 -0.108541 0)
(1.01591 -0.098036 0)
(1.01163 -0.0927553 0)
(1.0082 -0.0838111 0)
(1.00541 -0.078239 0)
(1.00329 -0.0707006 0)
(1.00161 -0.0653705 0)
(1.0004 -0.0590638 0)
(0.999487 -0.0542255 0)
(0.998889 -0.0489631 0)
(0.998477 -0.0446924 0)
(0.998262 -0.0402919 0)
(0.998157 -0.036573 0)
(0.998168 -0.032871 0)
(0.998237 -0.0296458 0)
(0.998369 -0.0265024 0)
(0.998526 -0.0236976 0)
(0.998709 -0.020995 0)
(0.998897 -0.018535 0)
(0.999088 -0.0161743 0)
(0.999269 -0.013987 0)
(0.99944 -0.0118844 0)
(0.999592 -0.00990293 0)
(0.999725 -0.00798585 0)
(0.999833 -0.0061483 0)
(0.999916 -0.00435189 0)
(0.999971 -0.00259923 0)
(0.999999 -0.000862453 0)
(1.03901 -0.116881 0)
(1.03233 -0.106063 0)
(1.02653 -0.102637 0)
(1.02126 -0.0933142 0)
(1.01688 -0.0886465 0)
(1.01314 -0.0806024 0)
(1.0101 -0.0755423 0)
(1.00759 -0.0686521 0)
(1.00557 -0.0637079 0)
(1.00397 -0.0578444 0)
(1.00272 -0.0532756 0)
(1.00175 -0.048303 0)
(1.00102 -0.0442103 0)
(1.00048 -0.0399917 0)