/*--------------------------------*- C++ -*----------------------------------*\
  =========                 |
  \\      /  F ield         | OpenFOAM: The Open Source CFD Toolbox
   \\    /   O peration     | Website:  https://openfoam.org
    \\  /    A nd           | Version:  7
     \\/     M anipulation  |
\*---------------------------------------------------------------------------*/
FoamFile
{
    version     2.0;
    format      ascii;
    class       volScalarField;
    location    "40";
    object      p;
}
// * * * * * * * * * * * * * * * * * * * * * * * * * * * * * * * * * * * * * //

dimensions      [0 2 -2 0 0 0 0];

internalField   nonuniform List<scalar> 
3500
(
-0.18817
-0.18172
-0.175569
-0.169323
-0.163331
-0.157585
-0.152121
-0.14694
-0.142035
-0.137402
-0.133037
-0.128935
-0.12509
-0.121498
-0.118153
-0.11505
-0.112183
-0.109547
-0.107137
-0.104948
-0.102973
-0.101211
-0.0996549
-0.0983022
-0.0971492
-0.096193
-0.0954311
-0.0948614
-0.0944825
-0.0942933
-0.185853
-0.179582
-0.173601
-0.167531
-0.161702
-0.156112
-0.150795
-0.145751
-0.140975
-0.136461
-0.132207
-0.128206
-0.124455
-0.120949
-0.117682
-0.114651
-0.111848
-0.10927
-0.106912
-0.104769
-0.102836
-0.101109
-0.0995843
-0.0982584
-0.097128
-0.0961902
-0.0954429
-0.0948841
-0.0945123
-0.0943267
-0.183471
-0.177377
-0.171566
-0.16567
-0.160004
-0.15457
-0.1494
-0.144493
-0.139845
-0.13545
-0.131306
-0.127408
-0.123752
-0.120332
-0.117144
-0.114184
-0.111447
-0.108927
-0.106622
-0.104526
-0.102635
-0.100944
-0.0994515
-0.098153
-0.0970456
-0.0961268
-0.0953944
-0.0948467
-0.0944823
-0.0943003
-0.181026
-0.175107
-0.169466
-0.163744
-0.15824
-0.152962
-0.147937
-0.143168
-0.138647
-0.134372
-0.130339
-0.126543
-0.122981
-0.119648
-0.11654
-0.113652
-0.11098
-0.108521
-0.106269
-0.10422
-0.102371
-0.100718
-0.0992581
-0.0979874
-0.0969035
-0.096004
-0.0952869
-0.0947505
-0.0943936
-0.0942153
-0.17852
-0.172774
-0.167303
-0.161754
-0.156413
-0.151289
-0.146411
-0.141777
-0.137385
-0.133229
-0.129307
-0.125614
-0.122146
-0.1189
-0.115872
-0.113057
-0.110452
-0.108052
-0.105854
-0.103854
-0.102048
-0.100433
-0.0990053
-0.0977629
-0.096703
-0.0958231
-0.0951215
-0.0945967
-0.0942474
-0.094073
-0.175955
-0.170381
-0.16508
-0.159703
-0.154523
-0.149554
-0.144822
-0.140325
-0.13606
-0.132024
-0.128212
-0.124622
-0.121249
-0.118091
-0.115143
-0.112401
-0.109862
-0.107523
-0.105379
-0.103428
-0.101665
-0.100089
-0.0986947
-0.0974811
-0.0964453
-0.0955854
-0.0948997
-0.0943865
-0.0940451
-0.0938745
-0.173333
-0.16793
-0.162799
-0.157593
-0.152575
-0.14776
-0.143173
-0.138813
-0.134676
-0.130758
-0.127058
-0.12357
-0.120293
-0.117222
-0.114354
-0.111686
-0.109214
-0.106936
-0.104847
-0.102945
-0.101226
-0.0996879
-0.0983278
-0.0971432
-0.096132
-0.0952924
-0.0946226
-0.0941214
-0.0937879
-0.0936212
-0.170655
-0.165422
-0.160462
-0.155426
-0.150571
-0.14591
-0.141468
-0.137243
-0.133233
-0.129435
-0.125845
-0.122461
-0.119278
-0.116295
-0.113508
-0.110914
-0.10851
-0.106292
-0.104258
-0.102406
-0.100731
-0.0992321
-0.097906
-0.0967508
-0.0957645
-0.0949453
-0.0942918
-0.0938026
-0.0934771
-0.0933144
-0.167924
-0.162862
-0.158071
-0.153206
-0.148512
-0.144005
-0.139708
-0.135619
-0.131736
-0.128057
-0.124578
-0.121296
-0.118209
-0.115313
-0.112607
-0.110087
-0.10775
-0.105594
-0.103616
-0.101813
-0.100183
-0.0987227
-0.097431
-0.0963055
-0.0953442
-0.0945457
-0.0939085
-0.0934315
-0.0931141
-0.0929555
-0.165142
-0.160249
-0.155629
-0.150934
-0.146401
-0.142048
-0.137895
-0.133942
-0.130187
-0.126626
-0.123257
-0.120078
-0.117086
-0.114278
-0.111653
-0.109206
-0.106937
-0.104843
-0.10292
-0.101167
-0.0995817
-0.0981614
-0.0969043
-0.0958086
-0.0948726
-0.0940948
-0.0934742
-0.0930095
-0.0927002
-0.0925457
-0.162311
-0.157589
-0.153139
-0.148613
-0.144242
-0.140042
-0.136034
-0.132216
-0.128587
-0.125144
-0.121886
-0.118809
-0.115912
-0.113192
-0.110647
-0.108275
-0.106074
-0.104041
-0.102174
-0.100471
-0.0989305
-0.0975498
-0.0963275
-0.0952617
-0.0943511
-0.0935943
-0.0929902
-0.092538
-0.0922368
-0.0920864
-0.159434
-0.154882
-0.150602
-0.146246
-0.142036
-0.13799
-0.134125
-0.130442
-0.126939
-0.123615
-0.120466
-0.117492
-0.114689
-0.112057
-0.109593
-0.107295
-0.105161
-0.10319
-0.101379
-0.0997262
-0.0982304
-0.0968895
-0.095702
-0.0946664
-0.0937813
-0.0930455
-0.0924581
-0.0920183
-0.0917254
-0.0915791
-0.156514
-0.152132
-0.148023
-0.143836
-0.139787
-0.135893
-0.132172
-0.128623
-0.125247
-0.12204
-0.119001
-0.116128
-0.11342
-0.110875
-0.108491
-0.106267
-0.104201
-0.102292
-0.100536
-0.0989341
-0.0974832
-0.0961822
-0.0950296
-0.0940241
-0.0931645
-0.0924499
-0.0918793
-0.0914519
-0.0911673
-0.0910251
-0.153553
-0.149342
-0.145403
-0.141385
-0.137497
-0.133755
-0.130177
-0.126762
-0.123511
-0.120421
-0.117492
-0.114721
-0.112107
-0.109649
-0.107345
-0.105195
-0.103196
-0.101348
-0.0996485
-0.0980965
-0.0966906
-0.0954294
-0.0943117
-0.0933364
-0.0925025
-0.091809
-0.0912551
-0.0908403
-0.090564
-0.090426
-0.150554
-0.146514
-0.142745
-0.138896
-0.135168
-0.131578
-0.128142
-0.124861
-0.121735
-0.118762
-0.115941
-0.113271
-0.110751
-0.10838
-0.106156
-0.104079
-0.102148
-0.100361
-0.098717
-0.0972152
-0.0958541
-0.0946327
-0.09355
-0.0926049
-0.0917965
-0.0911242
-0.0905871
-0.0901848
-0.0899168
-0.0897829
-0.147521
-0.143652
-0.140053
-0.136372
-0.132804
-0.129365
-0.126071
-0.122923
-0.119921
-0.117064
-0.114351
-0.111782
-0.109355
-0.10707
-0.104926
-0.102922
-0.101058
-0.0993321
-0.0977437
-0.0962918
-0.0949755
-0.0937939
-0.092746
-0.091831
-0.0910482
-0.090397
-0.0898767
-0.089487
-0.0892273
-0.0890975
-0.144456
-0.140758
-0.137329
-0.133815
-0.130407
-0.127119
-0.123966
-0.12095
-0.118072
-0.11533
-0.112725
-0.110255
-0.107921
-0.105722
-0.103657
-0.101726
-0.0999285
-0.0982635
-0.0967303
-0.0953282
-0.0940565
-0.0929144
-0.0919012
-0.0910164
-0.0902591
-0.089629
-0.0891255
-0.0887482
-0.0884968
-0.0883712
-0.141364
-0.137837
-0.134578
-0.13123
-0.12798
-0.124842
-0.121829
-0.118945
-0.116189
-0.113562
-0.111064
-0.108693
-0.106451
-0.104337
-0.102351
-0.100493
-0.0987614
-0.0971568
-0.0956785
-0.0943259
-0.0930986
-0.0919959
-0.0910174
-0.0901625
-0.0894307
-0.0888215
-0.0883347
-0.0879699
-0.0877268
-0.0876053
-0.138247
-0.134891
-0.1318
-0.128619
-0.125527
-0.122537
-0.119664
-0.11691
-0.114276
-0.111763
-0.10937
-0.107099
-0.104948
-0.102919
-0.101011
-0.0992239
-0.0975583
-0.0960138
-0.0945901
-0.0932868
-0.0921036
-0.0910401
-0.090096
-0.0892709
-0.0885644
-0.0879761
-0.0875059
-0.0871535
-0.0869186
-0.0868012
-0.135108
-0.131924
-0.129001
-0.125984
-0.123049
-0.120207
-0.117472
-0.114848
-0.112335
-0.109935
-0.107647
-0.105473
-0.103413
-0.101468
-0.099637
-0.0979215
-0.0963213
-0.0948364
-0.0934668
-0.0922124
-0.091073
-0.0900485
-0.0891386
-0.0883431
-0.0876617
-0.0870943
-0.0866406
-0.0863005
-0.0860738
-0.0859605
-0.131953
-0.128939
-0.126183
-0.12333
-0.12055
-0.117855
-0.115258
-0.112761
-0.110368
-0.10808
-0.105896
-0.103819
-0.101849
-0.0999864
-0.0982325
-0.0965875
-0.095052
-0.0936263
-0.0923103
-0.0911044
-0.0900085
-0.0890227
-0.0881467
-0.0873806
-0.0867242
-0.0861774
-0.0857402
-0.0854123
-0.0851938
-0.0850845
-0.128784
-0.12594
-0.12335
-0.120659
-0.118034
-0.115484
-0.113022
-0.110653
-0.108378
-0.1062
-0.10412
-0.102138
-0.100257
-0.0984768
-0.0967988
-0.0952238
-0.0937524
-0.0923851
-0.0911224
-0.0899646
-0.0889118
-0.0879642
-0.0871219
-0.0863849
-0.0857533
-0.085227
-0.084806
-0.0844903
-0.0842799
-0.0841747
-0.125605
-0.12293
-0.120504
-0.117974
-0.115502
-0.113095
-0.110768
-0.108525
-0.106368
-0.104299
-0.10232
-0.100433
-0.0986398
-0.096941
-0.0953381
-0.0938322
-0.0924242
-0.0911148
-0.0899047
-0.0887944
-0.0877843
-0.0868746
-0.0860656
-0.0853575
-0.0847505
-0.0842445
-0.0838397
-0.083536
-0.0833336
-0.0832324
-0.12242
-0.119913
-0.11765
-0.115279
-0.112957
-0.110693
-0.108499
-0.106379
-0.104338
-0.102377
-0.100499
-0.0987061
-0.0969993
-0.0953808
-0.093852
-0.0924144
-0.0910691
-0.0898169
-0.0886589
-0.0875956
-0.0866276
-0.0857554
-0.0849795
-0.0843
-0.0837172
-0.0832313
-0.0828424
-0.0825507
-0.0823562
-0.0822589
-0.119232
-0.116893
-0.11479
-0.112576
-0.110404
-0.10828
-0.106216
-0.10422
-0.102293
-0.100439
-0.0986598
-0.0969586
-0.0953374
-0.0937982
-0.0923426
-0.0909724
-0.0896888
-0.0884932
-0.0873865
-0.0863697
-0.0854434
-0.0846083
-0.0838649
-0.0832136
-0.0826548
-0.0821888
-0.0818158
-0.0815358
-0.0813492
-0.0812558
-0.116046
-0.113872
-0.111927
-0.109869
-0.107844
-0.105858
-0.103924
-0.102048
-0.100233
-0.0984843
-0.0968033
-0.095193
-0.0936562
-0.092195
-0.0908116
-0.0895078
-0.0882852
-0.0871453
-0.0860893
-0.0851182
-0.0842331
-0.0834345
-0.0827233
-0.0820999
-0.0815649
-0.0811185
-0.080761
-0.0804927
-0.0803138
-0.0802243
-0.112866
-0.110854
-0.109066
-0.10716
-0.10528
-0.10343
-0.101623
-0.0998661
-0.0981627
-0.0965169
-0.0949321
-0.0934113
-0.0919575
-0.0905732
-0.0892608
-0.0880224
-0.0868599
-0.0857749
-0.0847688
-0.0838429
-0.0829982
-0.0822357
-0.0815562
-0.0809604
-0.0804487
-0.0800216
-0.0796796
-0.0794228
-0.0792515
-0.0791658
-0.109694
-0.107844
-0.106209
-0.104454
-0.102716
-0.100999
-0.0993177
-0.0976772
-0.0960828
-0.0945385
-0.0930483
-0.0916154
-0.0902432
-0.0889345
-0.087692
-0.0865179
-0.0854145
-0.0843835
-0.0834265
-0.082545
-0.0817403
-0.0810133
-0.0803651
-0.0797963
-0.0793076
-0.0788996
-0.0785728
-0.0783273
-0.0781635
-0.0780816
-0.106535
-0.104844
-0.10336
-0.101751
-0.100153
-0.0985682
-0.0970092
-0.0954833
-0.0939958
-0.0925513
-0.0911538
-0.0898073
-0.0885152
-0.0872808
-0.0861069
-0.084996
-0.0839506
-0.0829727
-0.0820641
-0.0812263
-0.0804608
-0.0797687
-0.0791512
-0.0786091
-0.0781431
-0.0777539
-0.0774419
-0.0772076
-0.0770512
-0.076973
-0.103393
-0.101857
-0.100521
-0.0990569
-0.0975956
-0.096139
-0.0947003
-0.0932866
-0.091904
-0.0905572
-0.0892507
-0.0879889
-0.0867754
-0.0856138
-0.0845072
-0.0834584
-0.08247
-0.0815441
-0.0806829
-0.079888
-0.0791611
-0.0785033
-0.077916
-0.0774001
-0.0769564
-0.0765856
-0.0762883
-0.076065
-0.0759159
-0.0758413
-0.10027
-0.0988871
-0.0976955
-0.0963727
-0.0950453
-0.0937144
-0.0923933
-0.0910895
-0.0898094
-0.0885583
-0.087341
-0.086162
-0.0850255
-0.0839352
-0.0828946
-0.0819066
-0.080974
-0.0800992
-0.0792845
-0.0785317
-0.0778426
-0.0772185
-0.0766608
-0.0761706
-0.0757488
-0.0753961
-0.0751133
-0.0749007
-0.0747588
-0.0746878
-0.0971702
-0.0959373
-0.0948866
-0.0937017
-0.0925049
-0.0912968
-0.0900905
-0.0888941
-0.0877142
-0.0865566
-0.0854263
-0.0843284
-0.0832672
-0.0822467
-0.0812706
-0.0803421
-0.0794642
-0.0786395
-0.0778704
-0.0771588
-0.0765067
-0.0759156
-0.075387
-0.074922
-0.0745216
-0.0741867
-0.073918
-0.073716
-0.0735811
-0.0735136
-0.0940972
-0.0930106
-0.0920971
-0.0910464
-0.089977
-0.0888885
-0.0877942
-0.0867025
-0.0856204
-0.0845539
-0.0835088
-0.08249
-0.0815023
-0.08055
-0.079637
-0.0787666
-0.0779422
-0.0771664
-0.0764418
-0.0757706
-0.0751548
-0.074596
-0.0740958
-0.0736555
-0.0732761
-0.0729586
-0.0727038
-0.0725121
-0.0723841
-0.07232
-0.091054
-0.09011
-0.0893297
-0.0884096
-0.087464
-0.0864918
-0.0855065
-0.0845167
-0.0835298
-0.0825523
-0.08159
-0.0806484
-0.0797324
-0.0788466
-0.0779951
-0.0771816
-0.0764093
-0.0756813
-0.0750003
-0.0743685
-0.0737881
-0.0732609
-0.0727886
-0.0723724
-0.0720136
-0.0717131
-0.0714718
-0.0712903
-0.071169
-0.0711083
-0.0880437
-0.0872382
-0.0865871
-0.0857937
-0.0849682
-0.0841089
-0.0832295
-0.0823388
-0.0814445
-0.0805534
-0.0796717
-0.0788052
-0.0779591
-0.0771381
-0.0763466
-0.0755884
-0.074867
-0.0741856
-0.0735471
-0.0729538
-0.072408
-0.0719116
-0.0714664
-0.0710738
-0.0707351
-0.0704513
-0.0702232
-0.0700516
-0.0699369
-0.0698794
-0.085069
-0.0843979
-0.0838718
-0.083201
-0.0824918
-0.0817419
-0.0809651
-0.0801705
-0.0793661
-0.0785589
-0.0777556
-0.0769621
-0.0761839
-0.0754259
-0.0746928
-0.0739884
-0.0733166
-0.0726807
-0.0720835
-0.0715277
-0.0710156
-0.0705493
-0.0701306
-0.069761
-0.0694419
-0.0691743
-0.0689591
-0.0687972
-0.0686889
-0.0686347
-0.0821327
-0.0815917
-0.0811862
-0.0806338
-0.080037
-0.0793929
-0.0787154
-0.0780138
-0.0772964
-0.0765707
-0.0758433
-0.0751206
-0.0744083
-0.0737116
-0.0730351
-0.0723831
-0.0717595
-0.0711677
-0.0706107
-0.0700914
-0.0696122
-0.0691752
-0.0687823
-0.0684351
-0.0681351
-0.0678833
-0.0676808
-0.0675282
-0.0674262
-0.0673751
-0.0792375
-0.078822
-0.0785325
-0.0780942
-0.0776057
-0.0770637
-0.0764821
-0.0758704
-0.0752372
-0.0745901
-0.0739363
-0.0732823
-0.0726338
-0.0719964
-0.0713749
-0.0707737
-0.0701969
-0.069648
-0.0691301
-0.0686463
-0.068199
-0.0677905
-0.0674227
-0.0670973
-0.0668158
-0.0665794
-0.0663891
-0.0662458
-0.0661498
-0.0661018
-0.0763857
-0.0760911
-0.0759129
-0.0755843
-0.0751999
-0.0747562
-0.074267
-0.073742
-0.0731899
-0.0726189
-0.0720361
-0.0714484
-0.0708617
-0.0702818
-0.0697135
-0.0691615
-0.06863
-0.0681227
-0.0676428
-0.0671934
-0.0667771
-0.0663962
-0.0660527
-0.0657486
-0.0654851
-0.0652637
-0.0650853
-0.0649509
-0.0648609
-0.0648158
-0.0735797
-0.073401
-0.0733293
-0.0731059
-0.0728215
-0.0724721
-0.0720716
-0.07163
-0.0711562
-0.0706584
-0.0701442
-0.0696204
-0.0690934
-0.0685689
-0.0680521
-0.0675478
-0.0670601
-0.066593
-0.0661499
-0.0657338
-0.0653475
-0.0649934
-0.0646736
-0.06439
-0.0641441
-0.0639372
-0.0637704
-0.0636445
-0.0635603
-0.0635181
-0.0708214
-0.0707536
-0.0707836
-0.0706608
-0.0704719
-0.070213
-0.0698977
-0.0695361
-0.0691374
-0.06871
-0.0682617
-0.0677996
-0.0673301
-0.0668591
-0.0663919
-0.0659336
-0.0654883
-0.0650601
-0.0646525
-0.0642686
-0.0639114
-0.0635832
-0.0632863
-0.0630226
-0.0627936
-0.0626008
-0.0624452
-0.0623278
-0.0622491
-0.0622097
-0.0681127
-0.0681508
-0.0682775
-0.0682506
-0.068153
-0.0679803
-0.0677465
-0.0674615
-0.0671348
-0.066775
-0.0663901
-0.0659872
-0.0655729
-0.0651534
-0.0647341
-0.06432
-0.0639156
-0.0635249
-0.0631516
-0.0627989
-0.0624697
-0.0621666
-0.0618919
-0.0616474
-0.0614348
-0.0612556
-0.0611109
-0.0610016
-0.0609283
-0.0608916
-0.0654554
-0.0655941
-0.0658126
-0.0658767
-0.0658659
-0.0657756
-0.0656194
-0.0654076
-0.0651498
-0.0648547
-0.0645304
-0.0641843
-0.0638231
-0.0634531
-0.0630798
-0.0627082
-0.0623431
-0.0619886
-0.0616483
-0.0613256
-0.0610235
-0.0607446
-0.0604912
-0.0602653
-0.0600686
-0.0599025
-0.0597683
-0.0596668
-0.0595987
-0.0595646
-0.0628509
-0.063085
-0.0633902
-0.0635407
-0.0636122
-0.0636
-0.0635177
-0.0633757
-0.0631836
-0.0629502
-0.0626839
-0.0623921
-0.0620818
-0.0617591
-0.0614299
-0.0610992
-0.0607719
-0.060452
-0.0601435
-0.0598497
-0.0595737
-0.0593181
-0.0590852
-0.0588772
-0.0586958
-0.0585424
-0.0584182
-0.0583243
-0.0582613
-0.0582297
-0.0603006
-0.0606248
-0.0610117
-0.0612436
-0.061393
-0.0614548
-0.0614426
-0.0613668
-0.0612371
-0.0610626
-0.0608515
-0.0606116
-0.0603498
-0.0600724
-0.0597854
-0.0594939
-0.0592027
-0.0589162
-0.0586382
-0.0583721
-0.0581211
-0.0578879
-0.0576748
-0.057484
-0.0573173
-0.0571761
-0.0570617
-0.0569751
-0.0569169
-0.0568877
-0.0578056
-0.0582146
-0.058678
-0.0589867
-0.0592093
-0.0593409
-0.0593951
-0.059382
-0.0593115
-0.0591928
-0.0590343
-0.0588438
-0.0586282
-0.0583941
-0.0581473
-0.0578932
-0.0576366
-0.057382
-0.0571331
-0.0568937
-0.0566667
-0.0564549
-0.0562608
-0.0560866
-0.055934
-0.0558045
-0.0556995
-0.0556198
-0.0555663
-0.0555395
-0.0553669
-0.0558553
-0.0563903
-0.0567708
-0.0570622
-0.0572595
-0.0573761
-0.0574222
-0.0574077
-0.0573419
-0.0572332
-0.0570894
-0.0569178
-0.0567248
-0.0565164
-0.056298
-0.0560744
-0.0558502
-0.0556293
-0.0554152
-0.0552112
-0.05502
-0.0548441
-0.0546857
-0.0545466
-0.0544284
-0.0543323
-0.0542594
-0.0542104
-0.0541857
-0.0529854
-0.0535478
-0.0541492
-0.0545968
-0.0549525
-0.0552113
-0.0553865
-0.0554883
-0.0555265
-0.0555105
-0.0554489
-0.0553495
-0.0552195
-0.0550655
-0.0548935
-0.054709
-0.0545169
-0.0543217
-0.0541273
-0.0539375
-0.0537554
-0.0535838
-0.0534253
-0.0532821
-0.053156
-0.0530485
-0.052961
-0.0528945
-0.0528498
-0.0528273
-0.0506616
-0.0512927
-0.0519556
-0.0524654
-0.0528809
-0.0531971
-0.0534271
-0.053581
-0.0536687
-0.0536996
-0.0536823
-0.0536247
-0.0535341
-0.053417
-0.0532795
-0.0531271
-0.0529648
-0.0527971
-0.052628
-0.0524613
-0.0523
-0.0521472
-0.0520053
-0.0518765
-0.0517628
-0.0516656
-0.0515863
-0.051526
-0.0514853
-0.0514648
-0.048396
-0.0490905
-0.04981
-0.0503773
-0.0508481
-0.0512176
-0.0514985
-0.0517009
-0.0518349
-0.0519098
-0.0519341
-0.0519157
-0.0518621
-0.0517798
-0.0516748
-0.0515528
-0.0514188
-0.0512772
-0.0511321
-0.0509872
-0.0508458
-0.0507108
-0.0505847
-0.0504697
-0.0503677
-0.0502803
-0.0502088
-0.0501544
-0.0501176
-0.0500991
-0.046189
-0.0469417
-0.0477127
-0.0483328
-0.0488546
-0.0492732
-0.0496012
-0.0498488
-0.0500258
-0.0501416
-0.0502047
-0.0502232
-0.0502043
-0.0501546
-0.0500803
-0.049987
-0.0498795
-0.0497626
-0.0496402
-0.049516
-0.0493935
-0.0492753
-0.0491641
-0.0490622
-0.0489714
-0.0488933
-0.0488293
-0.0487804
-0.0487473
-0.0487307
-0.0440407
-0.0448464
-0.0456642
-0.0463324
-0.0469007
-0.0473644
-0.0477359
-0.0480251
-0.0482419
-0.0483957
-0.0484949
-0.0485477
-0.0485612
-0.0485421
-0.0484965
-0.04843
-0.0483476
-0.0482539
-0.0481529
-0.0480483
-0.0479435
-0.0478413
-0.0477443
-0.0476547
-0.0475745
-0.0475053
-0.0474483
-0.0474047
-0.0473752
-0.0473603
-0.0419513
-0.0428049
-0.0436646
-0.0443763
-0.0449868
-0.0454915
-0.0459027
-0.0462301
-0.0464836
-0.0466724
-0.0468051
-0.0468897
-0.0469333
-0.0469427
-0.046924
-0.0468826
-0.0468236
-0.0467516
-0.0466707
-0.0465846
-0.0464964
-0.0464093
-0.0463257
-0.0462478
-0.0461776
-0.0461167
-0.0460664
-0.0460278
-0.0460016
-0.0459884
-0.0399206
-0.040817
-0.041714
-0.0424647
-0.0431131
-0.0436549
-0.0441021
-0.0444643
-0.0447513
-0.0449722
-0.0451357
-0.0452496
-0.0453211
-0.0453569
-0.0453631
-0.0453451
-0.045308
-0.0452564
-0.0451942
-0.0451253
-0.0450529
-0.0449799
-0.0449089
-0.044842
-0.0447812
-0.0447282
-0.0446842
-0.0446503
-0.0446273
-0.0446156
-0.0379483
-0.0388827
-0.0398124
-0.0405975
-0.0412797
-0.0418547
-0.0423342
-0.0427278
-0.0430452
-0.0432954
-0.043487
-0.0436278
-0.0437249
-0.0437851
-0.0438143
-0.043818
-0.0438012
-0.0437685
-0.0437239
-0.0436711
-0.0436134
-0.0435536
-0.0434944
-0.0434378
-0.0433859
-0.0433403
-0.0433022
-0.0432728
-0.0432527
-0.0432425
-0.0360343
-0.0370017
-0.0379595
-0.0387748
-0.0394866
-0.0400909
-0.0405992
-0.0410209
-0.0413656
-0.0416422
-0.0418593
-0.0420246
-0.0421451
-0.0422276
-0.042278
-0.0423017
-0.0423037
-0.0422885
-0.0422602
-0.0422224
-0.0421783
-0.0421309
-0.0420826
-0.0420357
-0.0419921
-0.0419534
-0.0419209
-0.0418956
-0.0418783
-0.0418695
-0.034178
-0.0351738
-0.0361553
-0.0369963
-0.0377338
-0.0383636
-0.0388972
-0.0393437
-0.0397126
-0.0400129
-0.0402528
-0.0404402
-0.040582
-0.0406848
-0.0407545
-0.0407965
-0.0408158
-0.0408167
-0.0408034
-0.0407795
-0.0407481
-0.0407121
-0.0406741
-0.0406362
-0.0406003
-0.0405681
-0.0405407
-0.0405193
-0.0405046
-0.0404971
-0.032379
-0.0333984
-0.0343993
-0.035262
-0.036021
-0.0366726
-0.037228
-0.0376961
-0.0380863
-0.0384074
-0.0386677
-0.0388748
-0.0390357
-0.0391568
-0.0392441
-0.0393027
-0.0393377
-0.0393535
-0.039354
-0.0393427
-0.039323
-0.0392977
-0.0392691
-0.0392396
-0.0392109
-0.0391846
-0.0391621
-0.0391443
-0.039132
-0.0391258
-0.0306366
-0.0316751
-0.0326912
-0.0335713
-0.034348
-0.0350178
-0.0355915
-0.0360781
-0.0364866
-0.0368259
-0.0371041
-0.0373286
-0.0375065
-0.037644
-0.0377469
-0.0378206
-0.0378699
-0.0378991
-0.0379121
-0.0379126
-0.0379036
-0.0378879
-0.0378681
-0.0378463
-0.0378242
-0.0378035
-0.0377854
-0.037771
-0.037761
-0.0377558
-0.0289501
-0.0300034
-0.0310304
-0.031924
-0.0327146
-0.033399
-0.0339877
-0.0344896
-0.0349136
-0.0352684
-0.0355619
-0.0358016
-0.0359943
-0.0361463
-0.0362632
-0.0363503
-0.0364124
-0.0364537
-0.0364781
-0.0364892
-0.03649
-0.0364832
-0.0364714
-0.0364566
-0.0364406
-0.036425
-0.0364111
-0.0363997
-0.0363918
-0.0363877
-0.0273188
-0.0283824
-0.0294164
-0.0303195
-0.0311203
-0.0318157
-0.0324162
-0.0329304
-0.033367
-0.0337346
-0.0340411
-0.0342938
-0.0344993
-0.0346638
-0.034793
-0.034892
-0.0349655
-0.0350176
-0.0350523
-0.0350729
-0.0350825
-0.0350838
-0.0350792
-0.0350709
-0.0350605
-0.0350495
-0.0350393
-0.0350309
-0.0350248
-0.0350216
-0.0257417
-0.0268115
-0.0278486
-0.0287573
-0.0295646
-0.0302677
-0.0308768
-0.0314002
-0.0318467
-0.0322247
-0.0325417
-0.0328052
-0.0330215
-0.0331967
-0.0333365
-0.0334458
-0.0335292
-0.0335909
-0.0336347
-0.0336638
-0.0336813
-0.0336899
-0.0336919
-0.0336893
-0.033684
-0.0336773
-0.0336706
-0.0336647
-0.0336603
-0.033658
-0.024218
-0.0252899
-0.0263262
-0.0272368
-0.028047
-0.0287545
-0.029369
-0.0298988
-0.0303524
-0.0307382
-0.0310635
-0.0313356
-0.0315607
-0.0317449
-0.0318936
-0.0320117
-0.0321038
-0.0321738
-0.0322255
-0.0322621
-0.0322867
-0.0323018
-0.0323096
-0.0323123
-0.0323115
-0.0323087
-0.032305
-0.0323014
-0.0322987
-0.0322972
-0.0227468
-0.0238167
-0.0248484
-0.0257572
-0.026567
-0.0272755
-0.0278923
-0.0284256
-0.0288839
-0.0292749
-0.0296063
-0.0298849
-0.030117
-0.0303084
-0.0304644
-0.0305898
-0.0306892
-0.0307663
-0.0308249
-0.030868
-0.0308988
-0.0309195
-0.0309326
-0.0309399
-0.0309432
-0.0309438
-0.0309429
-0.0309414
-0.0309401
-0.0309393
-0.0213269
-0.022391
-0.0234145
-0.0243179
-0.0251237
-0.0258301
-0.0264464
-0.0269804
-0.0274406
-0.0278346
-0.0281698
-0.0284529
-0.0286901
-0.0288869
-0.0290487
-0.0291801
-0.0292854
-0.0293685
-0.0294328
-0.0294816
-0.0295176
-0.0295434
-0.029561
-0.0295724
-0.0295792
-0.0295829
-0.0295844
-0.0295848
-0.0295848
-0.0295846
-0.0199574
-0.0210117
-0.0220234
-0.022918
-0.0237166
-0.0244177
-0.0250305
-0.0255626
-0.0260222
-0.0264169
-0.0267538
-0.0270394
-0.0272798
-0.0274804
-0.0276465
-0.0277824
-0.0278924
-0.0279803
-0.0280494
-0.0281029
-0.0281434
-0.0281734
-0.0281949
-0.0282098
-0.0282198
-0.0282261
-0.0282298
-0.0282319
-0.0282329
-0.0282333
-0.018637
-0.0196779
-0.0206744
-0.0215567
-0.0223449
-0.0230377
-0.0236441
-0.0241716
-0.0246282
-0.0250213
-0.0253578
-0.025644
-0.0258859
-0.0260888
-0.0262575
-0.0263967
-0.0265102
-0.0266018
-0.0266747
-0.026732
-0.0267762
-0.0268097
-0.0268345
-0.0268524
-0.0268651
-0.0268737
-0.0268793
-0.0268828
-0.0268847
-0.0268856
-0.0173647
-0.0183885
-0.0193663
-0.020233
-0.0210076
-0.0216891
-0.0222864
-0.0228068
-0.0232581
-0.0236473
-0.0239814
-0.0242664
-0.0245081
-0.0247116
-0.0248817
-0.0250228
-0.0251386
-0.0252328
-0.0253086
-0.0253688
-0.0254159
-0.0254523
-0.0254798
-0.0255003
-0.0255151
-0.0255257
-0.0255329
-0.0255376
-0.0255404
-0.0255417
-0.0161392
-0.0171423
-0.0180981
-0.0189459
-0.0197038
-0.0203713
-0.0209568
-0.0214676
-0.0219112
-0.0222945
-0.0226242
-0.0229062
-0.0231461
-0.0233487
-0.0235188
-0.0236605
-0.0237776
-0.0238734
-0.0239511
-0.0240134
-0.0240627
-0.0241012
-0.0241309
-0.0241534
-0.0241701
-0.0241822
-0.0241907
-0.0241965
-0.0241999
-0.0242016
-0.0149593
-0.0159382
-0.0168686
-0.0176944
-0.0184327
-0.0190833
-0.0196544
-0.0201532
-0.0205869
-0.0209623
-0.0212857
-0.021563
-0.0217994
-0.0219998
-0.0221685
-0.0223097
-0.0224269
-0.0225233
-0.022602
-0.0226656
-0.0227164
-0.0227566
-0.0227878
-0.0228118
-0.02283
-0.0228434
-0.0228529
-0.0228595
-0.0228635
-0.0228655
-0.0138237
-0.0147749
-0.0156768
-0.0164774
-0.0171932
-0.0178241
-0.0183784
-0.0188628
-0.0192845
-0.01965
-0.0199654
-0.0202363
-0.0204677
-0.0206644
-0.0208306
-0.0209701
-0.0210863
-0.0211825
-0.0212614
-0.0213255
-0.0213771
-0.0214183
-0.0214506
-0.0214757
-0.0214949
-0.0215092
-0.0215196
-0.0215268
-0.0215313
-0.0215335
-0.012731
-0.0136511
-0.0145213
-0.0152937
-0.0159841
-0.0165928
-0.0171277
-0.0175956
-0.0180032
-0.0183569
-0.0186625
-0.0189254
-0.0191505
-0.0193422
-0.0195046
-0.0196413
-0.0197557
-0.0198506
-0.0199289
-0.0199928
-0.0200446
-0.0200862
-0.0201191
-0.0201449
-0.0201648
-0.0201798
-0.0201907
-0.0201984
-0.0202032
-0.0202056
-0.0116799
-0.0125655
-0.0134009
-0.0141422
-0.0148044
-0.0153883
-0.0159016
-0.0163508
-0.0167423
-0.0170824
-0.0173766
-0.0176301
-0.0178474
-0.0180329
-0.0181904
-0.0183233
-0.0184347
-0.0185277
-0.0186045
-0.0186676
-0.018719
-0.0187604
-0.0187935
-0.0188195
-0.0188398
-0.0188551
-0.0188665
-0.0188744
-0.0188795
-0.0188819
-0.0106689
-0.0115166
-0.0123141
-0.0130213
-0.0136528
-0.0142094
-0.0146988
-0.0151271
-0.0155008
-0.0158256
-0.0161068
-0.0163494
-0.0165577
-0.0167357
-0.0168872
-0.0170153
-0.017123
-0.0172131
-0.0172879
-0.0173495
-0.0173999
-0.0174407
-0.0174734
-0.0174994
-0.0175196
-0.0175351
-0.0175466
-0.0175547
-0.0175598
-0.0175623
-0.00969658
-0.0105031
-0.0112598
-0.0119301
-0.0125282
-0.0130552
-0.0135186
-0.0139242
-0.0142781
-0.014586
-0.0148527
-0.015083
-0.0152811
-0.0154506
-0.015595
-0.0157175
-0.0158207
-0.0159071
-0.0159791
-0.0160387
-0.0160875
-0.0161272
-0.0161592
-0.0161847
-0.0162047
-0.01622
-0.0162315
-0.0162396
-0.0162447
-0.0162472
-0.00876123
-0.00952317
-0.010236
-0.0108667
-0.0114288
-0.011924
-0.0123592
-0.0127402
-0.0130727
-0.0133621
-0.013613
-0.0138298
-0.0140164
-0.0141764
-0.0143129
-0.0144287
-0.0145266
-0.0146088
-0.0146774
-0.0147343
-0.0147811
-0.0148193
-0.0148501
-0.0148748
-0.0148942
-0.0149092
-0.0149204
-0.0149284
-0.0149335
-0.014936
-0.00786136
-0.00857562
-0.00924184
-0.00983022
-0.0103541
-0.0108152
-0.0112204
-0.011575
-0.0118846
-0.012154
-0.0123878
-0.01259
-0.0127641
-0.0129135
-0.0130412
-0.0131497
-0.0132416
-0.0133188
-0.0133834
-0.0134371
-0.0134814
-0.0135177
-0.0135471
-0.0135707
-0.0135893
-0.0136037
-0.0136145
-0.0136222
-0.0136271
-0.0136295
-0.00699499
-0.00765804
-0.00827458
-0.008818
-0.00930126
-0.00972625
-0.0100995
-0.0104261
-0.0107112
-0.0109594
-0.0111748
-0.0113612
-0.0115219
-0.0116599
-0.0117779
-0.0118784
-0.0119635
-0.0120353
-0.0120954
-0.0121454
-0.0121868
-0.0122208
-0.0122484
-0.0122706
-0.0122881
-0.0123018
-0.012312
-0.0123194
-0.0123241
-0.0123264
-0.00616055
-0.00676961
-0.00733403
-0.00783021
-0.00827077
-0.00865777
-0.00899737
-0.00929447
-0.00955378
-0.00977954
-0.00997555
-0.0101452
-0.0102916
-0.0104173
-0.010525
-0.0106168
-0.0106946
-0.0107603
-0.0108154
-0.0108614
-0.0108995
-0.0109308
-0.0109563
-0.0109769
-0.0109932
-0.0110059
-0.0110154
-0.0110223
-0.0110267
-0.0110288
-0.00535557
-0.00590681
-0.00641596
-0.00686225
-0.00725789
-0.00760497
-0.0079093
-0.00817541
-0.00840762
-0.0086098
-0.00878536
-0.00893736
-0.00906856
-0.00918138
-0.00927804
-0.00936049
-0.0094305
-0.00948965
-0.00953936
-0.00958088
-0.00961533
-0.0096437
-0.00966686
-0.00968555
-0.00970041
-0.00971199
-0.00972074
-0.009727
-0.00973104
-0.00973305
-0.00457859
-0.00506998
-0.00552204
-0.00591668
-0.00626576
-0.00657143
-0.00683916
-0.0070731
-0.00727718
-0.00745484
-0.00760912
-0.00774274
-0.0078581
-0.00795736
-0.00804245
-0.00811508
-0.00817681
-0.00822901
-0.00827293
-0.00830965
-0.00834017
-0.00836533
-0.0083859
-0.00840252
-0.00841576
-0.00842609
-0.0084339
-0.0084395
-0.00844312
-0.00844485
-0.00382618
-0.00425308
-0.00464454
-0.00498478
-0.00528511
-0.00554756
-0.00577719
-0.00597769
-0.00615252
-0.00630469
-0.00643685
-0.00655132
-0.00665019
-0.00673529
-0.00680828
-0.00687062
-0.00692364
-0.00696852
-0.0070063
-0.00703793
-0.00706424
-0.00708596
-0.00710374
-0.00711813
-0.0071296
-0.00713856
-0.00714535
-0.00715021
-0.00715337
-0.00715501
-0.00309739
-0.00345956
-0.00378996
-0.00407496
-0.00432556
-0.00454386
-0.00473453
-0.00490083
-0.00504576
-0.00517187
-0.00528139
-0.00537626
-0.00545821
-0.00552877
-0.0055893
-0.00564103
-0.00568504
-0.00572231
-0.00575371
-0.00578002
-0.00580191
-0.00582
-0.00583482
-0.00584682
-0.00585641
-0.0058639
-0.00586957
-0.00587363
-0.00587627
-0.00587748
-0.00238696
-0.00267753
-0.00294218
-0.00316855
-0.00336694
-0.00353923
-0.00368947
-0.00382037
-0.00393438
-0.00403356
-0.00411968
-0.00419429
-0.00425875
-0.00431425
-0.00436189
-0.00440261
-0.00443727
-0.00446663
-0.00449139
-0.00451213
-0.00452942
-0.00454371
-0.00455542
-0.00456491
-0.0045725
-0.00457843
-0.00458293
-0.00458614
-0.00458824
-0.00458951
-0.00169529
-0.00191806
-0.00211923
-0.00228762
-0.00243399
-0.00256018
-0.00266986
-0.00276523
-0.00284822
-0.0029204
-0.00298305
-0.00303733
-0.00308421
-0.00312459
-0.00315923
-0.00318885
-0.00321405
-0.00323541
-0.00325342
-0.00326851
-0.00328108
-0.00329148
-0.0033
-0.00330691
-0.00331243
-0.00331675
-0.00332002
-0.00332235
-0.00332381
-0.00332428
-0.00101302
-0.00115473
-0.00128352
-0.001388
-0.00147864
-0.00155611
-0.00162325
-0.00168152
-0.00173218
-0.00177622
-0.00181445
-0.00184756
-0.00187616
-0.00190078
-0.00192191
-0.00193996
-0.00195533
-0.00196836
-0.00197933
-0.00198853
-0.0019962
-0.00200253
-0.00200773
-0.00201194
-0.0020153
-0.00201794
-0.00201993
-0.00202134
-0.00202223
-0.00202305
-0.000343845
-0.000415204
-0.000476223
-0.000519581
-0.000556091
-0.000585754
-0.0006111
-0.000632887
-0.000651792
-0.000668214
-0.000682464
-0.000694799
-0.000705441
-0.00071459
-0.000722425
-0.000729108
-0.000734783
-0.000739578
-0.000743609
-0.000746979
-0.000749777
-0.000752083
-0.000753967
-0.000755489
-0.000756701
-0.000757646
-0.000758363
-0.000758871
-0.00075906
-0.000758245
-0.191439
-0.189016
-0.18653
-0.183982
-0.181373
-0.178705
-0.175981
-0.173201
-0.170369
-0.167485
-0.164552
-0.161573
-0.158551
-0.155487
-0.152386
-0.149249
-0.146081
-0.142885
-0.139664
-0.136422
-0.133163
-0.12989
-0.126608
-0.123321
-0.120031
-0.116744
-0.113463
-0.110193
-0.106936
-0.103698
-0.100481
-0.0972896
-0.0941268
-0.0909962
-0.0879011
-0.0848443
-0.0818288
-0.0788573
-0.0759323
-0.0730562
-0.0702313
-0.0674594
-0.0647423
-0.0620817
-0.0594788
-0.0569349
-0.0544511
-0.052028
-0.0496664
-0.0473667
-0.0451292
-0.0429541
-0.0408414
-0.0387909
-0.0368024
-0.0348756
-0.0330099
-0.0312047
-0.0294594
-0.0277732
-0.0261452
-0.0245745
-0.0230603
-0.0216013
-0.0201966
-0.018845
-0.0175455
-0.0162966
-0.0150974
-0.0139464
-0.0128424
-0.0117841
-0.01077
-0.00979881
-0.008869
-0.00797909
-0.00712733
-0.00631226
-0.0055316
-0.00478417
-0.00406646
-0.00337844
-0.00271366
-0.00207589
-0.00145153
-0.000855742
-0.000258538
-0.195061
-0.192572
-0.190024
-0.187418
-0.184754
-0.182034
-0.179258
-0.176429
-0.173547
-0.170615
-0.167634
-0.164607
-0.161536
-0.158423