/*--------------------------------*- C++ -*----------------------------------*\
  =========                 |
  \\      /  F ield         | OpenFOAM: The Open Source CFD Toolbox
   \\    /   O peration     | Website:  https://openfoam.org
    \\  /    A nd           | Version:  7
     \\/     M anipulation  |
\*---------------------------------------------------------------------------*/
FoamFile
{
    version     2.0;
    format      ascii;
    class       surfaceScalarField;
    location    "30";
    object      phi;
}
// * * * * * * * * * * * * * * * * * * * * * * * * * * * * * * * * * * * * * //

dimensions      [0 3 -1 0 0 0 0];

internalField   nonuniform List<scalar> 
6504
(
-0.000253712
4.06446e-05
-0.000296896
4.31787e-05
-0.000342955
4.60541e-05
-0.00039249
4.95292e-05
-0.000446357
5.38619e-05
5.93029e-05
-0.000505665
-0.000247139
7.98167e-05
-0.000288521
8.45604e-05
-0.000332408
8.99414e-05
-0.000379374
9.64947e-05
-0.000430279
0.000104767
0.000115304
-0.00048628
-0.000234278
0.000116081
-0.000272099
0.000122381
-0.000311674
0.000129516
-0.000353513
0.000138334
-0.000398482
0.000149736
0.000164676
-0.000447854
-0.000215656
0.000148096
-0.000248243
0.000154968
-0.000281429
0.000162703
-0.000315606
0.000172511
-0.000351626
0.000185756
0.000204024
-0.000390974
-0.000191949
0.000174647
-0.000217752
0.000180771
-0.000242568
0.000187518
-0.000266575
0.000196518
-0.00029055
0.000209731
0.00022975
-0.000316276
-0.000163814
-0.000181423
0.00019838
-0.000196009
0.000202104
-0.000207396
0.000207904
-0.000216148
0.000218484
0.000237809
-0.000224207
-0.000139735
0.000206491
-0.000142341
0.00020471
-0.000138721
0.000204284
-0.000129231
0.000208993
0.000223534
-0.000114956
-9.23392e-05
-8.11489e-05
0.00019352
-5.98796e-05
0.000183015
-2.82165e-05
0.00017733
0.000187075
8.24301e-06
-1.01856e-05
0.000166224
3.17955e-05
0.000141034
9.02815e-05
0.000118844
0.000113785
0.000163571
7.47595e-05
0.000141185
7.46089e-05
0.000231502
2.85263e-05
1.75018e-07
0.000345113
0.000276992
0.000404931
-9.94133e-05
-0.000162005
0.000567111
0.000624573
-0.000272786
-0.000379986
0.000842555
0.000904769
-0.000658917
0.0011837
0.00159386
-0.000607743
0.000102065
-0.000698052
9.02994e-05
-0.000788434
9.0378e-05
-0.00087675
8.83188e-05
-0.000963522
8.67871e-05
-0.00104816
8.46711e-05
-0.00113008
8.19668e-05
-0.00120866
7.86545e-05
-0.00128331
7.47534e-05
-0.00135348
7.02921e-05
-0.0014186
6.5274e-05
-0.00147811
5.96835e-05
-0.00153137
5.34552e-05
-0.00157767
4.6494e-05
-0.00161619
3.87142e-05
-0.00164608
3.00542e-05
-0.00166644
2.05057e-05
-0.00167648
1.01365e-05
-0.00167546
-9.89483e-07
-0.00166342
-1.2058e-05
-0.00163976
-2.37512e-05
-0.00160417
-3.57408e-05
-0.00155668
-4.77114e-05
-0.00149756
-5.93866e-05
-0.00142729
-7.05757e-05
-0.00134659
-8.1038e-05
-0.00125635
-9.05921e-05
-0.00115764
-9.9071e-05
-0.00105156
-0.000106417
-0.000939292
-0.000112589
-0.000821981
-0.000117596
-0.000700778
-0.000121447
-0.000576715
-0.000124261
-0.000450766
-0.000126098
-0.000323773
-0.000127092
-0.000196481
-0.000127342
-6.94964e-05
-0.000126987
5.66698e-05
-0.000126126
0.000181589
-0.000124839
0.000304989
-0.000123283
0.0004266
-0.000121465
0.000546377
-0.000119606
0.00066414
-0.000117573
0.000780091
-0.000115747
0.000894183
-0.00011388
0.00100666
-0.000112264
0.00111835
-0.000111479
0.00122825
-0.000109704
0.00134085
-0.000112403
-0.000111721
-1.46079e-07
-0.000586027
0.000201812
-0.000673699
0.000177971
-0.000761623
0.000178302
-0.000847531
0.000174228
-0.000931808
0.000171063
-0.00101387
0.000166738
-0.00109314
0.000161229
-0.001169
0.000154514
-0.00124088
0.000146635
-0.00130824
0.000137652
-0.00137054
0.000127576
-0.00142724
0.000116383
-0.00147773
0.000103949
-0.00152133
9.00864e-05
-0.00155724
7.46242e-05
-0.00158462
5.74369e-05
-0.00160263
3.85124e-05
-0.00161043
1.79408e-05
-0.00160752
-3.89823e-06
-0.00159372
-2.58556e-05
-0.00156851
-4.89629e-05
-0.00153162
-7.26292e-05
-0.00148307
-9.62596e-05
-0.00142317
-0.000119294
-0.00135237
-0.00014137
-0.0012714
-0.00016201
-0.00118113
-0.000180859
-0.00108262
-0.000197581
-0.000976976
-0.000212065
-0.000865333
-0.000224233
-0.000748825
-0.000234104
-0.000628585
-0.000241687
-0.000505617
-0.000247229
-0.000380873
-0.000250842
-0.000255174
-0.000252791
-0.000129246
-0.00025327
-3.64607e-06
-0.000252586
0.000121054
-0.000250827
0.000244514
-0.000248299
0.000366449
-0.000245218
0.000486608
-0.000241624
0.000604941
-0.000237939
0.000721301
-0.000233933
0.000835853
-0.0002303
0.000948621
-0.000226649
0.00105976
-0.000223398
0.00117018
-0.000221907
0.00127885
-0.000218367
0.00138995
-0.000223502
-0.000222361
-0.000543112
0.00029707
-0.000625715
0.000260574
-0.000708875
0.000261462
-0.000790131
0.000255483
-0.000869575
0.000250508
-0.000946655
0.000243818
-0.00102078
0.000235351
-0.00109137
0.000225105
-0.00115789
0.000213154
-0.00121982
0.000199591
-0.00127669
0.000184437
-0.00132797
0.000167663
-0.00137312
0.0001491
-0.0014115
0.000128466
-0.00144237
0.000105503
-0.00146495
8.0013e-05
-0.00147843
5.1989e-05
-0.00148199
2.14986e-05
-0.00147542
-1.04681e-05
-0.00145827
-4.2998e-05
-0.00143012
-7.71125e-05
-0.00139077
-0.000111979
-0.00134025
-0.000146786
-0.00127887
-0.000180671
-0.00120711
-0.000213129
-0.00112566
-0.000243456
-0.00103539
-0.000271131
-0.000937328
-0.000295646
-0.000832547
-0.000316846
-0.00072215
-0.00033463
-0.000607224
-0.00034903
-0.000488864
-0.000360047
-0.000368027
-0.000368066
-0.000245619
-0.00037325
-0.000122416
-0.000375994
9.37236e-07
-0.000376624
0.000123747
-0.000375396
0.00024569
-0.000372771
0.000366352
-0.00036896
0.000485477
-0.000364343
0.000602854
-0.000359001
0.000718421
-0.000353506
0.000832094
-0.000347606
0.000943967
-0.000342173
0.0010542
-0.000336881
0.00116276
-0.000331963
0.00127076
-0.000329905
0.00137706
-0.000324663
0.00148532
-0.000331762
-0.000330618
-0.000479871
0.000385967
-0.000555392
0.000336095
-0.000631779
0.000337849
-0.000706437
0.000330141
-0.000779019
0.00032309
-0.000849003
0.000313802
-0.000915806
0.000302154
-0.000978902
0.000288201
-0.0010378
0.000272052
-0.00109205
0.000253836
-0.0011412
0.000233589
-0.00118481
0.000211277
-0.00122241
0.000186703
-0.00125344
0.000159493
-0.00127723
0.000129296
-0.00129305
9.58335e-05
-0.00130018
5.91108e-05
-0.00129784
1.91604e-05
-0.00128612
-2.21822e-05
-0.00126434
-6.47854e-05
-0.00123214
-0.000109308
-0.00118942
-0.000154699
-0.00113622
-0.000199993
-0.00107288
-0.000244002
-0.000999889
-0.000286124
-0.000917904
-0.000325441
-0.000827754
-0.000361281
-0.000730438
-0.000392962
-0.000626993
-0.00042029
-0.00051846
-0.000443163
-0.000405855
-0.000461635
-0.000290225
-0.000475677
-0.000172448
-0.000485843
-5.3365e-05
-0.000492334
6.62627e-05
-0.000495622
0.000185829
-0.00049619
0.000304857
-0.000494423
0.000422896
-0.00049081
0.000539626
-0.00048569
0.000654813
-0.00047953
0.000768297
-0.000472486
0.000879996
-0.000465205
0.000989919
-0.000457528
0.00109805
-0.000450306
0.00120474
-0.000443569
0.00130973
-0.000436952
0.00141431
-0.000434487
0.00151731
-0.000427661
0.00162166
-0.000436113
-0.000435483
-0.000397216
0.000466907
-0.00046431
0.000403189
-0.000532327
0.000405865
-0.000598857
0.000396672
-0.000662965
0.000387197
-0.000724153
0.00037499
-0.00078188
0.000359881
-0.000835683
0.000342004
-0.000885148
0.000321516
-0.000929889
0.000298578
-0.000969538
0.000273237
-0.00100372
0.000245461
-0.00103206
0.000215041
-0.00105408
0.000181511
-0.00106921
0.000144425
-0.00107679
0.00010341
-0.0010762
5.85235e-05
-0.00106674
9.69811e-06
-0.00104882
-4.00981e-05
-0.00102145
-9.21503e-05
-0.00098446
-0.000146302
-0.000937789
-0.00020137
-0.000881488
-0.000256294
-0.000815966
-0.000309523
-0.000741673
-0.000360417
-0.000659254
-0.00040786
-0.000569481
-0.000451054
-0.0004733
-0.000489144
-0.0003717
-0.00052189
-0.000265647
-0.000549216
-0.000156035
-0.000571246
-4.38382e-05
-0.000587874
7.00004e-05
-0.000599682
0.000184833
-0.000607167
0.000300028
-0.000610817
0.000414999
-0.000611161
0.000529303
-0.000608726
0.000642552
-0.000604059
0.000754481
-0.000597619
0.00086487
-0.000589919
0.000973629
-0.000581245
0.00108064
-0.000572214
0.00118602
-0.000562914
0.00128964
-0.000553921
0.00139204
-0.000545966
0.00149272
-0.000537636
0.00159314
-0.000534907
0.00169216
-0.000526684
0.00179187
-0.00053582
-0.000536161
-0.000295662
0.000538361
-0.000353919
0.000461447
-0.000412489
0.000464435
-0.000469855
0.000454038
-0.000524369
0.000441712
-0.000575544
0.000426165
-0.000622919
0.000407257
-0.000666126
0.000385211
-0.000704851
0.00036024
-0.000738799
0.000332527
-0.000767687
0.000302125
-0.000791227
0.000269002
-0.000809133
0.000232946
-0.000821035
0.000193414
-0.000826459
0.000149848
-0.000824818
0.00010177
-0.000815624
4.93293e-05
-0.000798485
-7.44081e-06
-0.000773663
-6.49198e-05
-0.000740185
-0.000125629
-0.00069802
-0.000188467
-0.000647167
-0.000252222
-0.000587677
-0.000315785
-0.000519994
-0.000377206
-0.000444565
-0.000435847
-0.000362003
-0.000490421
-0.00027299
-0.000540068
-0.000178397
-0.000583736
-7.91232e-05
-0.000621164
2.39699e-05
-0.00065231
0.000129661
-0.000676938
0.00023757
-0.000695783
0.000346865
-0.000708976
0.000456841
-0.000717143
0.000566925
-0.000720901
0.000676621
-0.000720857
0.000785555
-0.00071766
0.000893388
-0.000711893
0.00099992
-0.00070415
0.00110494
-0.000694937
0.00120843
-0.000684737
0.00131022
-0.000674009
0.00141058
-0.000663269
0.0015092
-0.000652539
0.00160684
-0.000643605
0.00170279
-0.000633586
0.00179857
-0.000630692
0.0018932
-0.000621316
0.00198788
-0.0006305
-0.000632115
-0.000174694
0.000598099
-0.000225044
0.000511797
-0.00027372
0.000513111
-0.000321406
0.000501724
-0.000365739
0.000486044
-0.000406194
0.00046662
-0.000442452
0.000443515
-0.000474276
0.000417035
-0.000501483
0.000387448
-0.000523893
0.000354937
-0.000541318
0.00031955
-0.000553566
0.00028125
-0.000560445
0.000239825
-0.000561694
0.000194663
-0.000556929
0.000145083
-0.000545642
9.04832e-05
-0.00052726
3.09474e-05
-0.000502743
-3.19574e-05
-0.000470601
-9.70619e-05
-0.00043092
-0.00016531
-0.000383607
-0.00023578
-0.000328712
-0.000307118
-0.000266224
-0.000378273
-0.000196667
-0.000446762
-0.00012043
-0.000512084
-3.79777e-05
-0.000572873
4.96142e-05
-0.00062766
0.000141776
-0.000675898
0.000237893
-0.000717281
0.0003371
-0.000751516
0.000438698
-0.000778536
0.000541877
-0.000798962
0.00064603
-0.000813129
0.000750577
-0.000821691
0.00085504
-0.000825364
0.000958995
-0.000824812
0.00106214
-0.000820802
0.00116417
-0.000813929
0.00126497
-0.000804944
0.00136431
-0.000794276
0.00146226
-0.000782693
0.0015586
-0.000770345
0.00165371
-0.000758376
0.00174713
-0.000745968
0.00183982
-0.000736287
0.00193088
-0.000724653
0.00202183
-0.00072164
0.0021119
-0.000711388
0.00220149
-0.000720088
-0.000723087
-2.97377e-05
0.00063608
-7.79918e-05
0.000560051
-0.000116362
0.000551482
-0.000154414
0.000539775
-0.000188519
0.00052015
-0.000218068
0.000496169
-0.000242956
0.000468402
-0.000263129
0.000437208
-0.000278571
0.00040289
-0.00028924
0.000365605
-0.000295056
0.000325366
-0.000295927
0.000282121
-0.000291757
0.000235655
-0.000282378
0.000185284
-0.000267468
0.000130173
-0.000246878
6.98928e-05
-0.000219607
3.67602e-06
-0.000187432
-6.41318e-05
-0.000148509
-0.000135985
-0.000102944
-0.000210876
-5.07584e-05
-0.000287965
8.1415e-06
-0.000366018
7.25076e-05
-0.000442639
0.000143145
-0.000517399
0.000219359
-0.000588298
0.000300565
-0.000654079
0.000386233
-0.000713328
0.000475691
-0.000765356
0.000568207
-0.000809798
0.000663118
-0.000846427
0.000759838
-0.000875255
0.000857721
-0.000896845
0.000956258
-0.000911666
0.00105497
-0.000920402
0.00115347
-0.000923863
0.0012514
-0.000922744
0.00134853
-0.000917935
0.0014446
-0.000910001
0.00153955
-0.000899887
0.00163314
-0.000887865
0.00172552
-0.00087508
0.0018164
-0.000861222
0.00190628
-0.000848252
0.00199457
-0.00083426
0.00208233
-0.000824047
0.0021686
-0.000810923
0.00225476
-0.000807798
0.00234031
-0.000796942
0.002425
-0.000804779
-0.000809083
0.000129515
0.000670136
9.01436e-05
0.000599422
6.07389e-05
0.000580886
3.18621e-05
0.000568652
7.66176e-06
0.00054435
-1.13719e-05
0.000515203
-2.52153e-05
0.000482245
-3.40144e-05
0.000446007
-3.79894e-05
0.000406865
-3.72664e-05
0.000364882
-3.18856e-05
0.000319985
-2.18429e-05
0.000272078
-7.08417e-06
0.000220897
1.22629e-05
0.000165937
3.66115e-05
0.000105825
6.64848e-05
4.00194e-05
0.000100435
-3.0274e-05
0.000140024
-0.000103721
0.000184991
-0.000180953
0.000235485
-0.000261369
0.000291383
-0.000343864
0.000352513
-0.000427148
0.00041889
-0.000509016
0.000490018
-0.000588527
0.00056553
-0.00066381
0.000644961
-0.00073351
0.000727861
-0.000796228
0.000813689
-0.000851184
0.000901864
-0.000897972
0.000991842
-0.000936406
0.00108315
-0.000966568
0.00117529
-0.000988985
0.00126786
-0.00100423
0.00136047
-0.00101301
0.00145281
-0.00101621
0.00154462
-0.00101454
0.0016357
-0.00100902
0.00172583
-0.00100013
0.00181501
-0.000989059
0.00190297
-0.000975831
0.00198996
-0.000962063
0.00207558
-0.000946844
0.00216044
-0.000933113
0.00224385
-0.000917671
0.00232692
-0.000907119
0.00240867
-0.000892671
0.0024903
-0.000889431
0.00257155
-0.00087819
0.00265174
-0.000884967
-0.00089034
0.000316909
0.00069834
0.000283938
0.000632392
0.000260749
0.000604075
0.000240144
0.000589257
0.000224709
0.000559786
0.000215425
0.000524486
0.000211917
0.000485754
0.000213692
0.000444233
0.0002203
0.000400257
0.00023144
0.000353742
0.000246945
0.00030448
0.000266718
0.000252306
0.000290689
0.000196925
0.000318882
0.000137745
0.000351237
7.34696e-05
0.000388795
2.4617e-06
0.000429215
-7.06949e-05
0.000474395
-0.0001489
0.000524123
-0.000230681
0.000578305
-0.000315551
0.000636797
-0.000402356
0.000699412
-0.000489763
0.000766076
-0.00057568
0.000836406
-0.000658857
0.000910077
-0.000737481
0.000986698
-0.000810131
0.00106591
-0.000875442
0.0011473
-0.000932577
0.00123044
-0.000981108
0.00131491
-0.00102088
0.00140037
-0.00105202
0.00148643
-0.00107505
0.0015728
-0.0010906
0.00165918
-0.00109939
0.00174536
-0.00110239
0.00183109
-0.00110028
0.00191626
-0.00109419
0.00200066
-0.00108453
0.00208432
-0.00107271
0.00216696
-0.00105848
0.00224887
-0.00104397
0.00232961
-0.00102758
0.00240983
-0.00101333
0.00248877
-0.000996612
0.00256754
-0.000985892
0.00264518
-0.00097031
0.00272272
-0.000966969
0.00280001
-0.000955483
0.00287623
-0.000961183
-0.000967267
0.0005394
0.000726051
0.000508848
0.000662945
0.00049042
0.000622503
0.000476377
0.0006033
0.000468292
0.00056787
0.000467148
0.00052563
0.00047236
0.000480542
0.000483094
0.000433498
0.000498616
0.000384735
0.000518427
0.000333931
0.000542241
0.000280667
0.000569882
0.000224665
0.000601241
0.000165566
0.00063626
0.000102726
0.000675402
3.43276e-05
0.000716955
-3.90914e-05
0.000762576
-0.000116316
0.000811567
-0.000197892
0.000864159
-0.000283272
0.000920208
-0.0003716
0.000979548
-0.000461696
0.00104198
-0.000552195
0.00110741
-0.000641105
0.00117552
-0.000726974
0.00124607
-0.000808029
0.00131875
-0.000882815
0.00139332
-0.000950005
0.00146948
-0.00100874
0.00154694
-0.00105857
0.00162542
-0.00109936
0.0017047
-0.0011313
0.0017845
-0.00115485
0.00186462
-0.00117072
0.00194483
-0.00117961
0.00202499
-0.00118255
0.0021049
-0.00118018
0.00218447
-0.00117377
0.0022635
-0.00116356
0.00234205
-0.00115126
0.00241983
-0.00113626
0.00249714
-0.00112128
0.0025735
-0.00110394
0.00264957
-0.0010894
0.00272458
-0.00107162
0.00279957
-0.00106088
0.00287361
-0.00104436
0.00294761
-0.00104097
0.00302141
-0.00102928
0.00309427
-0.00103405
-0.0010404
0.000805099
0.000763506
0.000774328
0.000693716
0.000758351
0.00063848
0.000748851
0.000612799
0.000745919
0.000570803
0.000750506
0.000521042
0.00076192
0.000469128
0.000779012
0.000416407
0.000800757
0.00036299
0.000826475
0.000308213
0.000855781
0.000251361
0.000888457
0.000191988
0.000924408
0.000129615
0.000963349
6.37843e-05
0.00100569
-8.01199e-06
0.00105005
-8.34502e-05
0.00109744
-0.000163708
0.00114769
-0.000248142
0.0012007
-0.000336278
0.0012563
-0.000427204
0.00131433
-0.000519728
0.0013746
-0.000612461
0.001437
-0.000703503
0.00150131
-0.000791285
0.00156735
-0.000874077
0.00163495
-0.000950408
0.00170393
-0.00101899
0.00177415
-0.00107896
0.00184544
-0.00112986
0.00191764
-0.00117156
0.0019906
-0.00120426
0.00206416
-0.00122841
0.00213818
-0.00124474
0.0022125
-0.00125393
0.002287
-0.00125706
0.00236151
-0.00125469
0.00243598
-0.00124823
0.00251018
-0.00123776
0.00258419
-0.00122527
0.0026577
-0.00120977
0.002731
-0.00119459
0.00280361
-0.00117654
0.00287614
-0.00116193
0.00294783
-0.00114331
0.00301964
-0.00113269
0.00309069
-0.0011154
0.00316178
-0.00111205
0.00323263
-0.00110013
0.00330282
-0.00110424
-0.00111037
0.00112344
0.000823765
0.00109122
0.000725937
0.00107579
0.000653907
0.00106839
0.000620202
0.00106753
0.000571664
0.0010742
0.000514366
0.00108791
0.000455427
0.00110732
0.000396994
0.0011312
0.00033911
0.00115872
0.000280688
0.00118945
0.000220638
0.00122317
0.000158265
0.00125978
9.30042e-05
0.00129921
2.43518e-05
0.00134029
-4.90905e-05
0.00138408
-0.000127242
0.0014301
-0.000209726
0.0014784
-0.000296442
0.00152884
-0.000386715
0.00158125
-0.000479619
0.00163548
-0.000573957
0.00169136
-0.000668338
0.0017488
-0.000760945
0.00180768
-0.000850159
0.00186789
-0.000934287
0.00192935
-0.00101187
0.00199201
-0.00108165
0.0020558
-0.00114276
0.00212068
-0.00119473
0.00218655
-0.00123743
0.00225336
-0.00127106
0.00232099
-0.00129604
0.00238935
-0.0013131
0.00245831
-0.00132288
0.00252776
-0.00132651
0.00259753
-0.00132446
0.00266757
-0.00131827
0.00273766
-0.00130785
0.00280785
-0.00129546
0.00287783
-0.00127975
0.00294785
-0.0012646
0.00301743
-0.00124613
0.00308711
-0.00123161
0.0031562
-0.00121239
0.0032255
-0.00120199
0.00329421
-0.00118412
0.00336307
-0.00118091
0.00343158
-0.00116864
0.00349982
-0.00117248
-0.00117779
0.00150709
0.000910531
0.00147717
0.00075586
0.00146069
0.00067039
0.0014511
0.000629792
0.00144692
0.000575838
0.00144963
0.00051166
0.00145925
0.000445805
0.00147459
0.000381652
0.00149436
0.000319338
0.00151769
0.000257366
0.0015441
0.000194225
0.00157342
0.000128949
0.00160546
6.09568e-05
0.00163991
-1.00937e-05
0.00167608
-8.52653e-05
0.00171463
-0.000165793
0.00175534
-0.000250432
0.00179806
-0.000339167
0.00184266
-0.000431314
0.00188898
-0.000525938
0.00193687
-0.000621846
0.0019862
-0.000717668
0.00203692
-0.000811662
0.00208896
-0.000902202
0.00214231
-0.000987633
0.00219694
-0.00106651
0.00225289
-0.0011376
0.00231017
-0.00120003
0.00236877
-0.00125333
0.00242866
-0.00129732
0.0024898
-0.00133221
0.00255212
-0.00135836
0.00261553
-0.00137651
0.00267988
-0.00138724
0.00274509
-0.00139171
0.00281096
-0.00139033
0.00287741
-0.00138473
0.00294423
-0.00137467
0.00301142
-0.00136265
0.00307868
-0.00134701
0.00314619
-0.00133212
0.00321352
-0.00131346
0.0032811
-0.00129919
0.0033483
-0.00127958
0.00341582
-0.00126951
0.00348283
-0.00125113
0.00355022
-0.0012483
0.00361694
-0.00123536
0.00368406
-0.00123961
-0.00124325
0.00200308
0.000961937
0.00197898
0.00077996
0.00195001
0.000699359
0.00192615
0.000653651
0.00190713
0.000594867
0.00189454
0.000524243
0.00188908
0.000451269
0.00188989
0.000380844
0.00189582
0.000313408
0.00190603
0.000247154
0.00192004
0.000180212
0.00193769
0.000111304
0.00195879
3.98522e-05
0.00198193
-3.32327e-05
0.00200821
-0.000111544
0.00203707
-0.000194652
0.00206843
-0.000281792
0.00210211
-0.000372843
0.00213791
-0.000467123
0.00217567
-0.000563698
0.00221522
-0.000661396
0.00225643
-0.000758873
0.00229924
-0.000854472
0.00234361
-0.000946575
0.00238955
-0.00103357
0.00243708
-0.00111403
0.00248624
-0.00118676
0.00253708
-0.00125087
0.00258962
-0.00130587
0.00264385
-0.00135156
0.00269976
-0.00138812
0.00275726
-0.00141586
0.00281628
-0.00143553
0.00287667
-0.00144762
0.0029383
-0.00145334
0.00300097
-0.00145301
0.00306457
-0.00144833
0.0031289
-0.00143899
0.00319383
-0.00142759
0.00325921
-0.00141239
0.00332493
-0.00139783
0.00339094
-0.00137946
0.00345699
-0.00136525
0.00352341
-0.001346
0.00358943
-0.00133553
0.00365625
-0.00131795
0.00372183
-0.00131388
0.00378903
-0.00130257
0.00385369
-0.00130426
-0.00130862
0.0298099
0.0018178
0.0289104
0.00167955
0.0280999
0.0015098
0.027406
0.00134753
0.0268012
0.00119969
0.0262617
0.0010638
0.0257792
0.000933758
0.0253526
0.000807436
0.0249815
0.000684516
0.0246641
0.000564551
0.0243974
0.000446843
0.0241784
0.000330331
0.0240044
0.000213883
0.0238745
9.66784e-05
0.0237768
-1.3836e-05
0.0237143
-0.000132143
0.0236818
-0.000249306
0.0236747
-0.000365733
0.0236884
-0.000480863
0.0237189
-0.000594147
0.0237624
-0.000704921
0.0238158
-0.000812346
0.0238768
-0.00091543
0.0239434
-0.00101312
0.0240142
-0.00110445
0.0240887
-0.00118852
0.0241666
-0.00126465
0.024248
-0.00133231
0.0243334
-0.00139126
0.0244233
-0.00144137
0.024518
-0.00148287
0.0246181
-0.00151597
0.0247239
-0.0015413
0.0248355
-0.00155921
0.0249528
-0.00157068
0.0250758
-0.00157603
0.0252041
-0.00157659
0.0253375
-0.00157241
0.0254752
-0.00156523
0.0256173
-0.00155457
0.0257623
-0.00154278
0.0259114
-0.0015286
0.0260612
-0.00151508
0.0262155
-0.00150029
0.0263675
-0.00148748
0.0265246
-0.00147509
0.0266755
-0.00146475
0.026831
-0.00145804
0.0269773
-0.00145056
-0.00145218
0.0343196
0.0018675
0.0342974
0.0017017
0.034231
0.00157621
0.0341286
0.00144996
0.0340073
0.00132098
0.0338784
0.00119269
0.0337456
0.00106654
0.0336108
0.000942226
0.0334763
0.000819074
0.0333442
0.000696585
0.0332165
0.000574579
0.0330938
0.000453079
0.0329753
0.000332308
0.0328593
0.000212739
0.0327501
9.53263e-05
0.0326389
-2.09033e-05
0.0325384
-0.000148797
0.0324422
-0.000269595
0.0323482
-0.000386847
0.0322552
-0.000501173
0.0321625
-0.000612213
0.0320693
-0.000719158
0.0319751
-0.00082116
0.0318794
-0.000917456
0.0317824
-0.00100741
0.0316843
-0.00109044
0.0315857
-0.00116609
0.0314874
-0.00123399
0.0313901
-0.00129396
0.0312946
-0.00134589
0.0312019
-0.00139014
0.0311128
-0.00142685
0.0310279
-0.00145643
0.0309479
-0.00147924
0.0308732
-0.00149598
0.0308043
-0.00150706
0.030741
-0.00151336
0.0306839
-0.00151525
0.0306324
-0.00151379
0.030587
-0.00150913
0.0305468
-0.0015026
0.0305122
-0.00149397
0.030482
-0.00148491
0.0304564
-0.00147466
0.0304342
-0.00146534
0.0304146
-0.00145546
0.0303976
-0.00144775
0.0303793
-0.00143974
0.0303639
-0.00143511
-0.0014319
0.0347327
0.00172495
0.0348301
0.00160423
0.0349148
0.00149153
0.0349874
0.00137738
0.0350452
0.00126315
0.0350886
0.00114931
0.035119
0.00103612
0.0351371
0.000924171
0.0351432
0.000812971
0.0351389
0.000700828
0.0351252
0.000588287
0.0351028
0.000475516
0.0350725
0.000362585
0.0350358
0.000249434
0.0349953
0.000135794
0.034954
2.04624e-05
0.0348918
-8.66436e-05
0.0348165
-0.000194262
0.0347309
-0.000301275
0.0346353
-0.000405585
0.0345292
-0.000506133
0.0344127
-0.000602668
0.0342865
-0.000694944
0.0341515
-0.000782473
0.0340089
-0.000864729
0.0338596
-0.000941214
0.0337051
-0.0010115
0.0335464
-0.00107534
0.0333851
-0.00113265
0.0332226
-0.00118338
0.0330601
-0.00122767
0.0328989
-0.00126565
0.0327401
-0.00129764
0.0325848
-0.00132389
0.0324337
-0.0013449
0.0322876
-0.001361
0.0321471
-0.00137285
0.0320126
-0.00138075
0.0318843
-0.00138549
0.0317624
-0.00138724
0.0316468
-0.00138695
0.0315374
-0.00138454
0.0314337
-0.00138121
0.0313354
-0.00137643
0.0312419
-0.00137184
0.0311527
-0.00136622
0.0310669
-0.00136192
0.0309838
-0.00135665
0.0309025
-0.00135378
-0.00134619
0.0341461
0.00155747
0.034297
0.00145333
0.034437
0.00135158
0.0345617
0.00125266
0.0346708
0.0011541
0.0347647
0.00105535
0.0348446
0.00095622
0.0349121
0.000856702
0.0349683
0.000756748
0.0350128
0.000656305
0.0350457
0.000555382
0.0350677
0.000453564
0.0350787
0.0003516
0.0350768
0.000251267
0.0350601
0.000152516
0.0350246
5.59405e-05
0.0349788
-4.0764e-05
0.0349224
-0.00013785
0.0348528
-0.000231766
0.0347704
-0.000323168
0.0346762
-0.000411948
0.0345712
-0.00049759
0.0344558
-0.000579594
0.0343309
-0.000657562
0.0341973
-0.000731163
0.0340562
-0.000800081
0.0339088
-0.000864065
0.0337563
-0.000922909
0.0336002
-0.000976529
0.0334417
-0.00102487
0.033282
-0.00106799
0.0331223
-0.00110598
0.0329637
-0.00113905
0.0328072
-0.00116737
0.0326536
-0.00119131
0.0325037
-0.00121107
0.032358
-0.00122716
0.032217
-0.00123974
0.032081
-0.00124946
0.0319501
-0.00125636
0.0318244
-0.00126124
0.0317038
-0.00126392
0.031588
-0.00126546
0.0314768
-0.00126526
0.0313698
-0.00126479
0.0312663
-0.00126275
0.0311657
-0.00126134
0.0310672
-0.0012581
0.03097
-0.00125663
-0.00125431
0.0335625
0.00137252
0.0337217
0.00129405
0.033865
0.00120829
0.0339947
0.00112296
0.0341108
0.00103802
0.0342134
0.000952796
0.0343028
0.000866753
0.0343798
0.000779721
0.0344447
0.000691829
0.0344977
0.00060331
0.0345387
0.00051439
0.0345668
0.000425463
0.0345813
0.000337164
0.0345826
0.000249918
0.0345722
0.000162948
0.0345523
7.57956e-05
0.0345229
-1.13967e-05
0.0344796
-9.44674e-05
0.0344246
-0.000176848
0.0343588
-0.000257369
0.0342824
-0.000335537
0.0341959
-0.000411016
0.0340998
-0.000483505
0.0339949
-0.000552712
0.0338821
-0.000618386
0.0337624
-0.000680296
0.0336366
-0.000738261
0.0335058
-0.000792123
0.033371
-0.000841802
0.0332334
-0.000887232
0.0330939
-0.000928447
0.0329534
-0.000965478
0.0328128
-0.000998478
0.032673
-0.00102755
0.0325346
-0.00105295
0.0323983
-0.00107481
0.0322647
-0.00109348
0.032134
-0.00110907
0.0320066
-0.00112205
0.0318827
-0.00113245
0.0317623
-0.00114086
0.0316455
-0.00114713
0.0315321
-0.00115205
0.031422
-0.00115517
0.0313148
-0.0011576
0.0312105
-0.00115836
0.0311083
-0.00115921
0.0310085
-0.00115827
0.0309103
-0.00115844
-0.00115565
0.0330451
0.00120559
0.033196
0.00114311
0.0333316
0.00107274
0.033454
0.00100051
0.0335643
0.000927731
0.0336627
0.000854421
0.0337492
0.000780203
0.0338241
0.000704873
0.0338874
0.000628534
0.0339392
0.000551485
0.0339795
0.00047408
0.0340084
0.000396591
0.0340264
0.000319145
0.0340345
0.000241797
0.0340328
0.000164677
0.0340206
8.80449e-05
0.0339971
1.20739e-05
0.033964
-6.1377e-05
0.0339208
-0.000133682
0.0338679
-0.00020446
0.0338057
-0.000273332
0.0337347
-0.00034
0.0336554
-0.000404224
0.0335685
-0.000465782
0.0334746
-0.000524476
0.0333744
-0.000580124
0.0332687
-0.000632585
0.0331583
-0.000681739
0.0330441
-0.000727518
0.0329267
-0.000769853
0.032807
-0.000808743
0.0326857
-0.000844202
0.0325635
-0.000876323
0.0324412
-0.00090517
0.0323191
-0.000930911
0.032198
-0.000953637
0.0320781
-0.000973589
0.0319598
-0.000990853
0.0318435
-0.00100575
0.0317294
-0.0010183
0.0316175
-0.00102893
0.0315079
-0.00103756
0.0314006
-0.00104472
0.0312955
-0.00105012
0.0311925
-0.00105456
0.0310915
-0.00105736
0.030992
-0.00105975
0.0308941
-0.00106038
0.0307969
-0.0010612
-0.00105932
0.0325852
0.00105694
0.0327228
0.00100554
0.0328478
0.000947768
0.0329606
0.00088768
0.0330622
0.000826146
0.0331531
0.000763467
0.0332337
0.000699641
0.0333039
0.000634648
0.0333639
0.000568591
0.0334137
0.000501684
0.0334536
0.000434181
0.0334838
0.000366313
0.0335047
0.000298291
0.0335161
0.000230342
0.0335181
0.000162703
0.0335106
9.55832e-05
0.0334936
2.9014e-05
0.0334682
-3.59822e-05
0.0334341
-9.952e-05
0.0333915
-0.00016186
0.0333408
-0.000222674
0.0332825
-0.000281714
0.0332171
-0.000338767
0.0331449
-0.000393643
0.0330666
-0.000446181
0.0329828
-0.000496237
0.0328939
-0.000543696
0.0328006
-0.000588457
0.0327035
-0.000630454
0.0326033
-0.000669631
0.0325005
-0.000705978
0.0323958
-0.000739492
0.0322897
-0.000770223
0.0321828
-0.000798202
0.0320754
-0.000823542
0.0319681
-0.000846303
0.0318611
-0.000866649
0.0317549
-0.000884641
0.0316497
-0.000900498
0.0315456
-0.000914246
0.0314428
-0.000926174
0.0313415
-0.000936228
0.0312416
-0.000944797
0.0311431
-0.000951677
0.031046
-0.000957427
0.0309502
-0.000961567
0.0308554
-0.000964957
0.0307617
-0.000966632
0.0306685
-0.000968044
-0.000967737
0.0321785
0.000926656
0.0322998
0.000884236
0.0324113
0.000836323
0.032513
0.000785962
0.0326053
0.000733872
0.0326884
0.000680354
0.0327625
0.000625516
0.0328277
0.000569437
0.0328841
0.000512247
0.0329316
0.000454142
0.0329704
0.00039535
0.0330006
0.000336117
0.0330222
0.000276675
0.0330353
0.000217248
0.03304
0.000158027
0.0330364
9.91773e-05
0.0330246
4.07978e-05
0.0330054
-1.67076e-05
0.0329785
-7.26722e-05
0.0329444
-0.000127714
0.0329032
-0.000181523
0.0328554
-0.000233895
0.0328013
-0.000284648
0.0327413
-0.000333622
0.0326758
-0.000380684
0.0326052
-0.000425713
0.0325302
-0.000468612
0.032451
-0.000509294
0.0323682
-0.000547699
0.0322824
-0.000583777
0.0321939
-0.000617508
0.0321033
-0.000648881
0.032011
-0.000677914
0.0319174
-0.000704623
0.0318229
-0.000729074
0.031728
-0.000751311
0.0316327
-0.000771435
0.0315376
-0.000789498
0.0314427
-0.000805632
0.0313484
-0.000819881
0.0312546
-0.000832415
0.0311616
-0.000843237
0.0310694
-0.000852569
0.030978
-0.000860336
0.0308875
-0.000866847
0.0307978
-0.000871882
0.0307087
-0.000875918
0.0306206
-0.000878484
0.0305329
-0.000880371
-0.000880409
0.0318138
0.000813566
0.0319201
0.00077791
0.0320187
0.000737705
0.0321095
0.000695209
0.0321924
0.000650946
0.0322676
0.000605174
0.0323351
0.00055803
0.0323949
0.000509633
0.032447
0.000460134
0.0324914
0.000409724
0.0325282
0.000358615
0.0325572
0.000307026
0.0325788
0.00025516
0.0325928
0.000203207
0.0325995
0.000151328
0.032599
9.96793e-05
0.0325914
4.83679e-05
0.0325774
-2.6551e-06
0.0325565
-5.18197e-05
0.0325293
-0.000100475
0.0324959
-0.000148139
0.0324566
-0.000194637
0.0324118
-0.000239822
0.0323618
-0.000283558
0.0323068
-0.000325727
0.0322473
-0.000366227
0.0321837
-0.00040497
0.0321163
-0.000441882
0.0320455
-0.000476904
0.0319717
-0.000509991
0.0318953
-0.000541114
0.0318167
-0.000570258
0.0317362
-0.000597421
0.0316542
-0.000622614
0.0315709
-0.000645865
0.0314868
-0.000667208
0.0314021
-0.000686694
0.031317
-0.000704375
0.0312317
-0.000720318
0.0311464
-0.000734579
0.0310612
-0.000747237
0.0309763
-0.000758345
0.0308917
-0.000767993
0.0308076
-0.000776215
0.0307239
-0.00078312
0.0306407
-0.000788697
0.0305579
-0.000793098
0.0304756
-0.000796219
0.0303935
-0.000798297
-0.00079908
0.0314866
0.00071536
0.0315794
0.000685073
0.0316661
0.000651005
0.0317465
0.00061487
0.0318204
0.000577066
0.0318877
0.000537804