/*--------------------------------*- C++ -*----------------------------------*\
  =========                 |
  \\      /  F ield         | OpenFOAM: The Open Source CFD Toolbox
   \\    /   O peration     | Website:  https://openfoam.org
    \\  /    A nd           | Version:  7
     \\/     M anipulation  |
\*---------------------------------------------------------------------------*/
FoamFile
{
    version     2.0;
    format      ascii;
    class       volVectorField;
    location    "30";
    object      U;
}
// * * * * * * * * * * * * * * * * * * * * * * * * * * * * * * * * * * * * * //

dimensions      [0 1 -1 0 0 0 0];

internalField   nonuniform List<vector> 
3313
(
(-0.0579 0.00417704 -1.61551e-20)
(-0.0651522 0.00405536 -3.21169e-20)
(-0.0722121 0.00396259 1.72647e-20)
(-0.0791481 0.00392276 -4.95251e-22)
(-0.0860605 0.00395328 -2.0974e-20)
(-0.0931666 0.00406293 2.15156e-20)
(-0.057488 0.0123978 1.83777e-20)
(-0.0644124 0.0120251 7.09256e-20)
(-0.0711042 0.0117408 -3.89255e-20)
(-0.0776357 0.0116194 -1.79649e-20)
(-0.0841086 0.0117166 1.47543e-20)
(-0.0907718 0.0120603 1.19079e-20)
(-0.0566604 0.0202132 -1.47883e-19)
(-0.0629288 0.0195657 1.40812e-20)
(-0.0688811 0.0190701 -1.06527e-19)
(-0.0745972 0.0188595 1.97079e-19)
(-0.0801813 0.0190395 -2.84148e-20)
(-0.0859484 0.0196636 2.20392e-21)
(-0.0554026 0.0273638 3.90279e-20)
(-0.060685 0.026398 4.44555e-20)
(-0.0655196 0.0256525 -7.46631e-20)
(-0.0699959 0.0253333 9.71745e-20)
(-0.0742193 0.025618 -2.07705e-20)
(-0.0786097 0.0266036 8.18595e-20)
(-0.0536721 0.0336102 -5.54956e-20)
(-0.0576333 0.0322589 5.52357e-20)
(-0.0609593 0.0311979 -5.69784e-20)
(-0.0637496 0.0307268 -2.26022e-19)
(-0.066103 0.0311312 1.13471e-21)
(-0.0685774 0.0325909 1.61419e-19)
(-0.0513684 0.03875 1.89415e-20)
(-0.0536607 0.0369211 -2.39206e-19)
(-0.0550655 0.0354437 2.0764e-19)
(-0.0556919 0.0347363 -1.97654e-19)
(-0.0556168 0.0352409 2.56757e-19)
(-0.0555195 0.037291 -1.38474e-19)
(-0.0485329 0.0402249 3.47619e-19)
(-0.0475644 0.0381973 -2.10087e-19)
(-0.0455043 0.0371166 4.40568e-19)
(-0.0424059 0.0376475 -4.9288e-19)
(-0.0389 0.0404138 -1.42798e-19)
(-0.0418073 0.0421192 -4.1803e-19)
(-0.0379319 0.0393943 5.30641e-19)
(-0.0325586 0.0377607 -3.82011e-19)
(-0.0257735 0.038223 3.61151e-19)
(-0.0180065 0.0421466 -3.73343e-19)
(-0.0252554 0.0391412 2.43102e-19)
(-0.0157006 0.0367628 -9.69021e-20)
(-0.00399585 0.0370502 -1.25382e-19)
(0.00894196 0.0421951 -7.65919e-21)
(-0.00815614 0.0377882 -2.3884e-19)
(0.00664292 0.0345067 1.84503e-19)
(0.0245632 0.034307 -2.46389e-20)
(0.0444776 0.0404541 -1.81854e-19)
(0.0367845 0.0318836 -2.55748e-19)
(0.0624575 0.0310284 6.94864e-20)
(0.0916419 0.0382587 -3.86175e-19)
(0.113073 0.0288829 -3.52237e-19)
(0.15425 0.0376504 2.4046e-19)
(0.179842 0.0300296 -3.22668e-19)
(0.235441 0.0418418 7.07958e-19)
(0.334872 0.0548945 -1.25166e-19)
(-0.106566 0.0043422 -1.01163e-20)
(-0.12569 0.00386108 3.74182e-21)
(-0.142681 0.00387571 4.82348e-22)
(-0.160448 0.00379761 4.48952e-21)
(-0.177537 0.00374398 -1.02424e-20)
(-0.194529 0.00366411 8.07266e-21)
(-0.211048 0.00355886 -7.63434e-22)
(-0.227072 0.00342676 4.49362e-21)
(-0.242442 0.00326856 -3.27174e-21)
(-0.257058 0.0030852 -2.02589e-21)
(-0.2708 0.00287656 2.17313e-21)
(-0.28356 0.00264173 5.85357e-22)
(-0.295214 0.00237878 -1.06778e-21)
(-0.305622 0.00208406 -5.88321e-22)
(-0.314626 0.00175446 1.76887e-21)
(-0.32205 0.00138825 1.5627e-21)
(-0.327711 0.000986544 3.15173e-22)
(-0.331414 0.000556229 -3.49278e-21)
(-0.332989 0.000113821 5.50511e-21)
(-0.332392 -0.000387848 -2.21628e-21)
(-0.329534 -0.000898941 -5.26117e-22)
(-0.324295 -0.00141979 -1.59194e-21)
(-0.316639 -0.00193816 2.7755e-21)
(-0.306583 -0.00244277 -5.71586e-21)
(-0.294191 -0.00292541 4.88798e-21)
(-0.279567 -0.00337584 2.12698e-22)
(-0.262861 -0.00378638 2.34664e-21)
(-0.244262 -0.00415008 -3.92808e-21)
(-0.223982 -0.00446462 1.29088e-21)
(-0.202242 -0.00472844 -6.68117e-22)
(-0.179268 -0.00494212 1.13058e-21)
(-0.155293 -0.00510643 -1.07481e-21)
(-0.130531 -0.00522654 4.31895e-22)
(-0.105182 -0.00530534 7.7557e-22)
(-0.0794318 -0.00534865 -8.23684e-22)
(-0.0534377 -0.00536078 2.5038e-22)
(-0.0273404 -0.00534819 2.43412e-22)
(-0.00124798 -0.00531453 -2.75915e-22)
(0.0247305 -0.00526351 1.68153e-22)
(0.0505461 -0.00520188 -2.5464e-24)
(0.07609 -0.00512988 -4.30357e-23)
(0.101441 -0.00505691 9.5413e-23)
(0.12633 -0.00497717 -6.98948e-24)
(0.151281 -0.00490715 4.37198e-23)
(0.175187 -0.00483539 -2.01141e-23)
(0.200451 -0.00477604 3.09622e-24)
(0.222166 -0.00475027 4.85989e-24)
(0.25068 -0.00468688 -1.12976e-24)
(0.2654 -0.00480823 6.02402e-24)
(0.307763 -0.00479694 -1.06438e-23)
(-0.1036 0.0129217 1.65153e-20)
(-0.122425 0.0114603 6.39601e-21)
(-0.138851 0.0115131 -1.03162e-20)
(-0.156183 0.0112785 2.00502e-21)
(-0.172792 0.0111115 -1.20865e-20)
(-0.189285 0.0108653 2.45168e-22)
(-0.205279 0.0105423 1.90122e-20)
(-0.220755 0.0101386 -1.41252e-20)
(-0.235556 0.00965682 -2.49689e-20)
(-0.249586 0.00910023 1.03928e-20)
(-0.26273 0.0084689 -2.53209e-21)
(-0.274881 0.00776067 3.79727e-21)
(-0.285923 0.00697035 -2.87143e-21)
(-0.295721 0.00608758 -7.4139e-21)
(-0.30412 0.00510328 -1.95125e-20)
(-0.310951 0.00401231 1.19612e-20)
(-0.316035 0.00281833 1.61322e-20)
(-0.319177 0.00154032 -6.47706e-21)
(-0.32024 0.000219912 -1.31416e-20)
(-0.319171 -0.00125751 6.62073e-21)
(-0.315865 -0.00276908 -8.90244e-21)
(-0.310226 -0.00430929 5.44476e-21)
(-0.30222 -0.00584296 -6.80689e-21)
(-0.291868 -0.0073362 -2.12457e-21)
(-0.279236 -0.00876549 2.74336e-21)
(-0.26443 -0.0101006 1.39548e-21)
(-0.247599 -0.0113187 -6.68387e-21)
(-0.228931 -0.0123991 8.24021e-22)
(-0.208636 -0.0133347 -1.53454e-21)
(-0.186931 -0.014121 1.34295e-21)
(-0.164039 -0.0147594 5.23283e-21)
(-0.140188 -0.0152518 -5.97618e-21)
(-0.115586 -0.0156136 -1.59279e-21)
(-0.0904304 -0.0158528 1.8239e-21)
(-0.0648991 -0.0159868 -2.04509e-21)
(-0.0391466 -0.0160282 -4.30774e-22)
(-0.0133087 -0.0159961 2.188e-22)
(0.0125121 -0.0158985 1.31166e-22)
(0.0382077 -0.0157518 -1.47262e-21)
(0.0637365 -0.0155721 4.82633e-22)
(0.0889847 -0.0153611 -7.36142e-22)
(0.114048 -0.0151461 -7.1097e-23)
(0.138634 -0.0149112 -1.05033e-22)
(0.163313 -0.014703 8.26744e-23)
(0.186902 -0.0144918 -1.00814e-22)
(0.21193 -0.0143126 1.23806e-23)
(0.233302 -0.0142379 -9.25356e-24)
(0.261607 -0.0140457 1.66631e-23)
(0.276022 -0.0143966 3.56858e-24)
(0.317926 -0.0143663 4.91401e-23)
(-0.0976575 0.0211886 -1.55536e-20)
(-0.115919 0.0186952 1.58293e-20)
(-0.131239 0.0188134 4.93678e-20)
(-0.147725 0.0184257 -3.80609e-20)
(-0.163403 0.0181328 -1.73215e-21)
(-0.17892 0.017709 1.70764e-20)
(-0.193892 0.0171564 -3.5688e-20)
(-0.208298 0.016471 -8.67027e-21)
(-0.221991 0.0156579 4.16329e-20)
(-0.234882 0.0147227 -1.29679e-20)
(-0.246862 0.013666 1.20017e-20)
(-0.257833 0.0124844 2.26219e-20)
(-0.267687 0.0111699 -3.14024e-21)
(-0.2763 0.00970591 2.94289e-21)
(-0.283529 0.00807726 -2.46493e-20)
(-0.289213 0.00627514 -1.14395e-20)
(-0.293184 0.00430652 3.66742e-20)
(-0.295249 0.00220059 -7.2281e-21)
(-0.295323 4.54796e-06 -8.74271e-21)
(-0.293341 -0.00240811 1.15918e-20)
(-0.28918 -0.00488981 -2.81058e-20)
(-0.282778 -0.0074162 1.96528e-20)
(-0.274104 -0.00993219 -5.79682e-23)
(-0.263191 -0.0123796 -3.11693e-21)
(-0.250108 -0.0147214 1.50621e-21)
(-0.234962 -0.0169078 -1.52867e-20)
(-0.217901 -0.0189015 8.91205e-21)
(-0.199112 -0.0206675 1.33836e-21)
(-0.178798 -0.0221952 4.78615e-21)
(-0.157174 -0.0234774 8.92008e-22)
(-0.13445 -0.0245169 -2.25017e-21)
(-0.110847 -0.0253158 -1.56242e-21)
(-0.0865647 -0.0259016 1.73755e-21)
(-0.0617882 -0.0262859 7.90587e-23)
(-0.036687 -0.026498 3.04386e-21)
(-0.0114064 -0.0265603 -2.94066e-21)
(0.013927 -0.0264969 4.51834e-21)
(0.03922 -0.0263315 9.80444e-23)
(0.0643656 -0.026086 -8.07831e-22)
(0.0893392 -0.0257858 9.99494e-22)
(0.114015 -0.0254358 -1.01421e-21)
(0.138523 -0.0250782 -2.01592e-22)
(0.16252 -0.0246916 8.71114e-22)
(0.186676 -0.0243442 -2.47449e-22)
(0.209649 -0.024001 -8.24527e-23)
(0.23422 -0.0236981 6.94173e-23)
(0.254931 -0.0235823 1.1535e-23)
(0.282824 -0.023263 2.0784e-23)
(0.296662 -0.0238097 -1.49468e-23)
(0.337667 -0.0237894 -3.24603e-23)
(-0.0886881 0.0289612 -4.8583e-20)
(-0.106194 0.0253528 4.72833e-21)
(-0.119922 0.0255762 3.31313e-20)
(-0.135195 0.0250419 -2.42967e-20)
(-0.149539 0.0246026 2.0644e-20)
(-0.163653 0.0239822 2.38973e-20)
(-0.177154 0.0231816 2.16915e-21)
(-0.19002 0.0221992 -6.19595e-20)
(-0.202122 0.0210431 -2.17264e-20)
(-0.213377 0.0197215 8.35036e-20)
(-0.22369 0.0182361 -8.92521e-21)
(-0.232974 0.0165823 -2.83381e-20)
(-0.241134 0.0147496 1.87595e-20)
(-0.248061 0.0127163 -1.12466e-20)
(-0.253625 0.0104609 -2.19404e-20)
(-0.257682 0.00797043 1.09281e-20)
(-0.260075 0.00525623 5.36894e-21)
(-0.260624 0.00236007 5.32334e-20)
(-0.259301 -0.000694553 -8.0492e-20)
(-0.256031 -0.00399165 6.06156e-20)
(-0.250675 -0.00739548 -2.98487e-20)
(-0.24321 -0.0108556 2.53287e-20)
(-0.233613 -0.0143009 -2.08307e-20)
(-0.221929 -0.0176473 -1.66074e-20)
(-0.208233 -0.0208471 2.62897e-20)
(-0.192635 -0.0238315 7.81357e-21)
(-0.175279 -0.0265498 -9.07743e-21)
(-0.156347 -0.0289527 1.09433e-20)
(-0.136039 -0.0310263 2.28806e-21)
(-0.114558 -0.0327628 -1.28778e-20)
(-0.0921001 -0.0341682 1.50976e-20)
(-0.068875 -0.03524 -7.85519e-21)
(-0.045069 -0.0360215 6.97344e-21)
(-0.0208502 -0.0365282 -1.08667e-20)
(0.00362315 -0.0367979 1.1915e-21)
(0.0282217 -0.0368659 4.15564e-21)
(0.0528274 -0.0367597 -4.58354e-21)
(0.0773612 -0.0365198 1.95096e-21)
(0.10172 -0.03617 -1.64497e-21)
(0.125902 -0.0357459 -4.32114e-22)
(0.14976 -0.0352573 1.84286e-21)
(0.17348 -0.0347564 -7.48902e-22)
(0.19664 -0.0342237 -1.33563e-22)
(0.220051 -0.0337356 1.4066e-22)
(0.242151 -0.0332723 2.0431e-22)
(0.266069 -0.0328402 -6.55569e-23)
(0.285849 -0.0326936 -9.28468e-24)
(0.313132 -0.0322518 -2.95721e-23)
(0.326182 -0.0329443 -8.89375e-24)
(0.36589 -0.0329723 -1.43736e-23)
(-0.0765519 0.0360968 -8.85819e-20)
(-0.0932255 0.0312631 4.43329e-20)
(-0.104953 0.0316347 -5.79121e-20)
(-0.118709 0.0309639 -1.42897e-20)
(-0.131388 0.0303505 4.69026e-21)
(-0.143735 0.0295075 7.72847e-20)
(-0.155382 0.0284347 4.32905e-20)
(-0.16631 0.027136 -4.72575e-21)
(-0.176409 0.0256229 2.04009e-20)
(-0.185612 0.0239067 -1.46126e-19)
(-0.19384 0.02199 5.97758e-20)
(-0.201017 0.0198678 2.80807e-20)
(-0.207068 0.0175269 -3.5379e-20)
(-0.2119 0.0149417 6.44718e-20)
(-0.215402 0.0120846 1.54538e-20)
(-0.217447 0.00893806 -3.4775e-20)
(-0.217894 0.0055228 -6.30769e-20)
(-0.216587 0.00191339 3.87593e-20)
(-0.213557 -0.00199216 3.02393e-20)
(-0.208706 -0.0061167 -2.78906e-20)
(-0.201907 -0.0103786 3.30771e-20)
(-0.193164 -0.0147032 -2.39512e-20)
(-0.182465 -0.0190081 2.29226e-20)
(-0.169873 -0.0231802 -1.17554e-20)
(-0.155469 -0.0271656 -1.81408e-20)
(-0.139365 -0.0308773 -6.11884e-22)
(-0.121701 -0.0342552 -5.05287e-21)
(-0.10265 -0.0372326 2.88298e-20)
(-0.082404 -0.0397926 -2.1196e-20)
(-0.0611565 -0.0419303 1.48206e-20)
(-0.0390799 -0.0436549 -3.10425e-21)
(-0.0163685 -0.0449605 -1.54203e-21)
(0.0068041 -0.045898 -1.56842e-21)
(0.0302951 -0.0464987 -8.94961e-22)
(0.0539591 -0.0468042 9.36587e-22)
(0.0776849 -0.0468585 4.70107e-21)
(0.101367 -0.0467005 -3.12005e-21)
(0.124944 -0.0463751 -2.17358e-21)
(0.148315 -0.0459157 -2.25865e-22)
(0.171506 -0.0453645 8.53472e-22)
(0.194345 -0.044739 5.88388e-22)
(0.217085 -0.0440942 -4.96561e-22)
(0.239202 -0.0434238 -5.24644e-22)
(0.261693 -0.0427931 3.635e-22)
(0.282709 -0.0422245 1.04681e-22)
(0.305811 -0.0416581 1.07293e-23)
(0.324454 -0.0414903 -6.93961e-24)
(0.350942 -0.0409356 -4.19979e-24)
(0.363063 -0.0417148 3.029e-24)
(0.401134 -0.0418271 -2.09953e-24)
(-0.0609386 0.0424886 2.09848e-20)
(-0.0768763 0.0363229 5.23111e-20)
(-0.0862997 0.036868 -5.18215e-20)
(-0.0983066 0.0360726 -2.73486e-20)
(-0.109075 0.03525 6.37368e-20)
(-0.119367 0.0341511 -2.15343e-20)
(-0.128855 0.0327778 3.98649e-21)
(-0.137526 0.0311409 -8.28119e-20)
(-0.145298 0.0292567 3.50566e-20)
(-0.152124 0.0271389 4.84721e-20)
(-0.157942 0.0247909 3.39338e-20)
(-0.162697 0.0222078 -1.57475e-20)
(-0.166328 0.0193736 2.96417e-20)
(-0.168765 0.01626 5.52085e-20)
(-0.169918 0.0128335 -1.73778e-19)
(-0.169676 0.00907151 8.94962e-20)
(-0.167909 0.00501174 -2.93034e-20)
(-0.164535 0.000785781 3.83455e-20)
(-0.159603 -0.00395413 1.17977e-20)
(-0.152972 -0.00884289 -5.0499e-21)
(-0.144575 -0.0138833 -1.07429e-20)
(-0.134435 -0.0189886 -3.46654e-20)
(-0.122547 -0.0240726 3.65679e-20)
(-0.10899 -0.0289824 -4.432e-22)
(-0.0938578 -0.0336665 3.3626e-20)
(-0.0772627 -0.0380221 -4.54546e-20)
(-0.0593368 -0.0419814 1.73811e-20)
(-0.0402375 -0.0454607 -8.58579e-21)
(-0.0201503 -0.0484413 9.35127e-21)
(0.000744742 -0.0509213 -8.81454e-22)
(0.0223021 -0.0528966 1.30194e-20)
(0.0443545 -0.0543972 -2.69695e-20)
(0.0667364 -0.0554545 1.72268e-20)
(0.0893327 -0.0561185 4.33464e-21)
(0.112019 -0.0564371 3.52601e-22)
(0.134703 -0.0564598 -2.91994e-22)
(0.157293 -0.0562369 1.93297e-21)
(0.179747 -0.0558173 -1.85782e-21)
(0.201965 -0.055245 2.52181e-21)
(0.224009 -0.0545642 -3.19271e-21)
(0.245667 -0.0538058 4.86346e-21)
(0.267281 -0.0530175 -6.37605e-22)
(0.288199 -0.0522201 -2.90913e-22)
(0.309634 -0.0514456 -5.59738e-22)
(0.329411 -0.0507879 5.56421e-23)
(0.351564 -0.0500843 6.49175e-23)
(0.368933 -0.0499017 -1.62919e-23)
(0.394454 -0.0492488 1.00972e-23)
(0.405579 -0.050055 -1.74852e-24)
(0.441741 -0.0502767 -1.01636e-22)
(-0.0412719 0.0479476 7.71795e-20)
(-0.0568011 0.0405705 -2.54447e-20)
(-0.0637499 0.0412075 2.63576e-20)
(-0.0738583 0.040298 3.23905e-20)
(-0.0825625 0.0392248 4.69307e-20)
(-0.0905969 0.0378282 -3.39838e-21)
(-0.0977031 0.0361219 -1.75683e-19)
(-0.103885 0.0341242 1.43462e-21)
(-0.109097 0.0318562 1.6986e-19)
(-0.113316 0.0293328 -1.76621e-20)
(-0.116505 0.0265578 1.81786e-20)
(-0.118626 0.0235264 -4.50194e-20)
(-0.119642 0.02022 -1.42932e-19)
(-0.119501 0.0166077 1.58899e-19)
(-0.118135 0.0126512 -5.71999e-21)
(-0.115449 0.00832023 -1.79744e-19)
(-0.111309 0.00366681 6.84717e-20)
(-0.105785 -0.00122361 -5.75507e-20)
(-0.0988698 -0.00661737 1.10904e-19)
(-0.0903653 -0.0121794 2.33014e-20)
(-0.0803205 -0.0179065 -9.63204e-20)
(-0.0687649 -0.0236982 5.33653e-20)
(-0.0556979 -0.0294693 -3.40349e-20)
(-0.0412056 -0.0350193 1.98603e-20)
(-0.0254034 -0.0403075 -7.57548e-21)
(-0.00839994 -0.0452204 -2.59955e-20)
(0.0096783 -0.0496585 3.41903e-20)
(0.0286999 -0.0535552 -3.87162e-20)
(0.0484899 -0.0568891 2.7584e-20)
(0.0688883 -0.059648 -1.28059e-20)
(0.0897664 -0.0618201 -1.73547e-20)
(0.110991 -0.0634679 8.75174e-21)
(0.132422 -0.064612 5.80567e-21)
(0.153963 -0.0653093 -2.495e-23)
(0.175516 -0.0656177 -3.82957e-21)
(0.197008 -0.0655925 -8.19572e-22)
(0.21836 -0.0652945 8.86457e-22)
(0.239555 -0.0647745 -7.45888e-22)
(0.260489 -0.064089 6.35455e-22)
(0.281263 -0.0632788 2.46376e-21)
(0.301621 -0.0623943 -1.65095e-21)
(0.322002 -0.0614647 8.10271e-22)
(0.341609 -0.0605535 -9.03701e-22)
(0.361889 -0.0596358 2.67129e-22)
(0.380328 -0.0589053 4.95678e-22)
(0.401426 -0.0580653 3.73717e-23)
(0.41745 -0.0578698 -1.17495e-22)
(0.441851 -0.0571376 5.00284e-24)
(0.451971 -0.0579178 -4.27066e-24)
(0.486026 -0.0582578 9.24351e-23)
(-0.0166924 0.05198 1.33959e-19)
(-0.0322951 0.0442663 -7.53011e-20)
(-0.0368305 0.0446147 5.69987e-20)
(-0.0449482 0.0436212 -1.31205e-19)
(-0.0515302 0.0422483 1.21705e-20)
(-0.0571927 0.0405038 1.81443e-20)
(-0.0617814 0.0384287 -2.05708e-20)
(-0.0653325 0.0360476 -1.28113e-20)
(-0.0678454 0.0333858 2.61504e-20)
(-0.0693295 0.0304577 7.52493e-20)
(-0.0697756 0.0272658 -3.04772e-20)
(-0.0691672 0.0238045 2.19466e-20)
(-0.0674879 0.0200535 9.74616e-21)
(-0.0647072 0.0159804 -1.17163e-20)
(-0.0607763 0.0115386 4.77662e-20)
(-0.0556205 0.00670641 -3.74363e-20)
(-0.049121 0.00167391 1.91824e-21)
(-0.0414308 -0.00401663 3.34305e-20)
(-0.0325168 -0.00993865 -5.14149e-20)
(-0.0222089 -0.0160861 3.77245e-20)
(-0.0105799 -0.0224068 -7.18008e-20)
(0.00230542 -0.0287963 -2.20589e-20)
(0.0164405 -0.0351042 1.23292e-19)
(0.0317478 -0.0412074 -3.43521e-20)
(0.048077 -0.0470018 -1.61737e-20)
(0.0653393 -0.0523737 4.60677e-20)
(0.0834062 -0.0571998 2.46543e-21)
(0.102165 -0.0614316 -3.26256e-20)
(0.121471 -0.0650432 -5.26039e-21)
(0.141189 -0.0680145 -4.15659e-20)
(0.161211 -0.0703451 2.27067e-20)
(0.181431 -0.0720899 1.54832e-21)
(0.201745 -0.0732849 3.81165e-21)
(0.222075 -0.0739892 -1.99952e-20)
(0.242348 -0.0742694 7.79379e-21)
(0.262513 -0.0741849 -1.51936e-20)
(0.282505 -0.0738064 1.11481e-20)
(0.30233 -0.0731843 -3.06888e-22)
(0.321877 -0.0723894 -2.54034e-22)
(0.341291 -0.0714532 -3.09619e-21)
(0.360265 -0.0704532 -8.28223e-22)
(0.379337 -0.0693869 -1.00684e-21)
(0.397564 -0.0683773 4.21022e-22)
(0.416622 -0.0673197 1.82707e-22)
(0.433671 -0.0665319 -9.49119e-23)
(0.453631 -0.0655607 -1.86162e-22)
(0.468296 -0.0653506 1.08493e-22)
(0.491448 -0.0645586 -3.45663e-23)
(0.500594 -0.065272 2.66182e-24)
(0.532414 -0.0657227 3.97402e-23)
(0.013768 0.0548065 -9.39006e-20)
(-0.00208592 0.0474183 2.46833e-19)
(-0.00469582 0.0471003 -1.14159e-19)
(-0.0107334 0.0460688 -7.8757e-20)
(-0.015236 0.0443349 6.34189e-20)
(-0.0185073 0.0421921 -3.43852e-20)
(-0.0205351 0.0397099 1.41799e-19)
(-0.0214111 0.0369226 -1.74586e-19)
(-0.021191 0.0338612 1.96336e-20)
(-0.0199238 0.0305357 1.4212e-19)
(-0.0176309 0.0269441 -1.05503e-19)
(-0.0143186 0.0230787 1.07337e-19)
(-0.00999113 0.0189157 -5.72128e-20)
(-0.00464162 0.0144324 -3.768e-20)
(0.00176937 0.00955678 -4.2471e-20)
(0.00935768 0.00429168 1.4615e-19)
(0.0180162 -0.00120418 -1.23902e-19)
(0.0276761 -0.0074253 4.04256e-20)
(0.0384984 -0.0138245 9.78215e-20)
(0.0504484 -0.0204675 -4.49234e-20)
(0.0634773 -0.0272804 -7.22261e-20)
(0.0775149 -0.0341575 -6.76874e-20)
(0.0925087 -0.0408957 7.22126e-20)
(0.108393 -0.0474463 3.78229e-20)
(0.125026 -0.0536396 -2.42046e-21)
(0.142315 -0.0593644 5.42198e-20)
(0.160142 -0.0645018 -1.06599e-19)
(0.178411 -0.0689924 4.1897e-20)
(0.197011 -0.0728063 1.03288e-21)
(0.215835 -0.075929 1.62919e-20)
(0.234802 -0.0783681 -6.80997e-21)
(0.253835 -0.0801724 6.85274e-21)
(0.272863 -0.0813901 6.2109e-21)
(0.291832 -0.0820822 -7.50315e-21)
(0.310692 -0.0823231 1.94658e-20)
(0.329414 -0.0821738 -7.36506e-21)
(0.347943 -0.0817154 1.50585e-20)
(0.366311 -0.0809945 -4.91218e-21)
(0.384397 -0.0800989 -2.41566e-21)
(0.402388 -0.0790444 1.80832e-21)
(0.419924 -0.0779427 2.92953e-21)
(0.437641 -0.0767479 -1.93099e-21)
(0.454452 -0.0756565 8.3916e-22)
(0.472244 -0.074466 4.95992e-22)
(0.487893 -0.0736347 2.02945e-23)
(0.506649 -0.0725421 2.10421e-22)
(0.519986 -0.072314 2.66725e-23)
(0.541783 -0.071479 -6.53691e-23)
(0.550014 -0.0721002 6.68335e-23)
(0.579535 -0.0726397 2.07157e-23)
(0.0523001 0.0572429 -4.2731e-20)
(0.0354684 0.0498085 9.98216e-20)
(0.0341985 0.0488385 -5.59265e-20)
(0.0302027 0.0477063 2.41551e-19)
(0.0276467 0.0455525 -1.95661e-19)
(0.026679 0.042952 5.11945e-20)
(0.0271416 0.0400222 7.36073e-20)
(0.0288648 0.0368113 -1.29819e-19)
(0.0317236 0.0333523 8.44698e-20)
(0.0356216 0.0296459 -1.99751e-21)
(0.040506 0.0256815 -3.81712e-20)
(0.0463475 0.0214466 8.30207e-20)
(0.0531273 0.0169147 2.17658e-20)
(0.0608229 0.0120727 -1.9283e-19)
(0.0694634 0.00683435 3.64466e-20)
(0.079176 0.00135614 2.37304e-20)
(0.0897586 -0.00485095 -1.34558e-20)
(0.101175 -0.0113595 -1.17287e-20)
(0.113558 -0.0181434 5.10392e-20)
(0.12684 -0.0251816 1.63465e-20)
(0.140956 -0.0323788 3.0864e-20)
(0.155824 -0.0396236 -4.79606e-20)
(0.171363 -0.0467298 -7.74569e-20)
(0.187507 -0.0536062 -1.68711e-20)
(0.204129 -0.0600942 1.50958e-19)
(0.221139 -0.0660765 -8.69202e-20)
(0.238435 -0.071438 2.75384e-20)
(0.255942 -0.0761116 2.12966e-20)
(0.273581 -0.0800651 -5.38923e-20)
(0.291279 -0.0832883 3.96675e-20)
(0.308982 -0.0857943 -2.89647e-20)
(0.326645 -0.0876299 6.1197e-21)
(0.344227 -0.088851 -1.34632e-21)
(0.361698 -0.08952 4.45866e-21)
(0.379028 -0.089718 7.36306e-21)
(0.396212 -0.0895056 -1.92724e-20)
(0.413202 -0.0889743 1.16042e-20)
(0.430051 -0.0881636 -1.41847e-20)
(0.446627 -0.0871809 -3.89452e-21)
(0.463157 -0.0860199 6.39782e-21)
(0.479231 -0.0848337 -1.44487e-21)
(0.495568 -0.0835222 2.86418e-22)
(0.510961 -0.0823668 9.92514e-23)
(0.527459 -0.0810542 -1.77524e-21)
(0.541732 -0.0801919 2.7999e-22)
(0.559236 -0.0789906 -1.18149e-23)
(0.571306 -0.0787418 -1.90252e-22)
(0.591672 -0.0778756 -7.89734e-23)
(0.599058 -0.078395 5.13547e-24)
(0.626267 -0.0789913 -8.5105e-23)
(0.101412 0.0594306 2.06719e-19)
(0.0827702 0.0516651 -3.09454e-19)
(0.0821964 0.0500639 2.78177e-19)
(0.0800388 0.0486809 8.96671e-20)
(0.0792089 0.0460465 -1.16374e-19)
(0.0803119 0.0429188 -4.8953e-20)
(0.0830398 0.0395002 9.38032e-21)
(0.0871161 0.0358529 5.28371e-21)
(0.0923368 0.0320049 -8.74913e-21)
(0.0985551 0.0279419 1.10387e-19)
(0.105689 0.0236395 -2.21478e-19)
(0.113689 0.0190766 5.91537e-20)
(0.122527 0.0142264 -1.74442e-20)
(0.132157 0.0090776 -3.9275e-21)
(0.142662 0.00356454 6.31905e-20)
(0.153968 -0.00225421 -3.25971e-20)
(0.165959 -0.00882427 -9.31667e-21)
(0.178736 -0.015617 -2.98375e-20)
(0.192228 -0.0227083 9.23846e-20)
(0.206383 -0.0300449 -1.56826e-19)
(0.22113 -0.0375267 8.96415e-20)
(0.236377 -0.0450379 -6.19263e-20)
(0.252031 -0.0524046 8.27248e-20)
(0.268019 -0.059508 -5.49165e-20)
(0.284234 -0.0661978 8.6302e-21)
(0.300593 -0.0723524 -6.24981e-20)
(0.31702 -0.0778599 -5.61692e-21)
(0.33346 -0.0826508 5.6002e-20)
(0.349868 -0.0866921 -6.39994e-20)
(0.366201 -0.0899757 1.49083e-20)
(0.382438 -0.0925192 3.82001e-20)
(0.39856 -0.0943682 4.41828e-21)
(0.414556 -0.0955838 -1.40337e-20)
(0.430416 -0.0962285 5.92039e-22)
(0.446129 -0.0963892 9.85646e-21)
(0.461707 -0.0961237 -1.77432e-20)
(0.477109 -0.0955342 6.37144e-21)
(0.492405 -0.0946497 7.44155e-21)
(0.507453 -0.0935992 -4.57863e-21)
(0.52251 -0.0923495 -1.74499e-21)
(0.537124 -0.0910996 2.11453e-21)
(0.552077 -0.0896883 -2.49982e-21)
(0.566075 -0.088488 1.45466e-21)
(0.581271 -0.087069 1.44174e-21)
(0.594217 -0.0861881 -1.19077e-21)
(0.610437 -0.0848934 5.80519e-22)
(0.62132 -0.0846254 -2.15024e-22)
(0.640203 -0.083733 -1.47812e-23)
(0.646822 -0.0841564 -1.12025e-22)
(0.671742 -0.0847712 2.38438e-23)
(0.163893 0.0619154 7.70971e-20)
(0.14307 0.0534323 -5.02747e-20)
(0.142633 0.0510361 -1.25557e-19)
(0.141973 0.0492335 2.29357e-19)
(0.142496 0.0460337 -9.52932e-20)
(0.145214 0.0423128 5.06373e-20)
(0.149728 0.0383635 -9.86186e-20)
(0.155642 0.0342678 -2.28436e-20)
(0.162668 0.0300433 -3.5444e-20)
(0.170613 0.0256521 1.1767e-19)
(0.179374 0.0210501 -1.97548e-19)
(0.188889 0.0162043 9.46942e-20)
(0.199128 0.0110959 -7.72178e-20)
(0.210026 0.00571168 9.99836e-20)
(0.22166 4.97479e-05 3.14081e-20)
(0.233924 -0.00628868 -1.17218e-19)
(0.246743 -0.0129529 1.52395e-19)
(0.260168 -0.0199531 -1.68312e-20)
(0.274116 -0.0272638 -1.81163e-20)
(0.288521 -0.0348055 4.05905e-20)
(0.303297 -0.0424766 2.0003e-20)
(0.318347 -0.0501585 -5.03214e-20)
(0.333575 -0.0576853 2.4851e-20)
(0.348908 -0.0649265 -6.71091e-20)
(0.364256 -0.0717353 5.97068e-20)
(0.379552 -0.0779891 1.31992e-20)
(0.394746 -0.0835802 -1.79793e-20)
(0.409805 -0.0884386 5.24503e-20)
(0.424715 -0.0925314 -1.11823e-19)
(0.439463 -0.0958516 2.89716e-20)
(0.454056 -0.09842 5.67268e-20)
(0.468499 -0.10028 -1.87525e-20)
(0.482802 -0.101496 -8.7991e-21)
(0.496975 -0.10213 1.20403e-21)
(0.511021 -0.102271 9.85523e-21)
(0.524961 -0.101974 -3.62099e-21)
(0.538761 -0.101351 4.97893e-21)
(0.552502 -0.100418 2.9551e-22)
(0.566032 -0.0993258 4.51607e-21)
(0.579629 -0.098012 4.0337e-21)
(0.592812 -0.0967234 -6.36268e-21)
(0.606398 -0.0952346 1.66398e-21)
(0.619048 -0.0940102 3.07803e-21)
(0.632946 -0.0925044 4.34412e-22)
(0.644636 -0.0916185 -3.59939e-22)
(0.659554 -0.0902455 3.48458e-22)
(0.669344 -0.0899666 3.78556e-22)
(0.686717 -0.0890443 -1.40763e-22)
(0.692649 -0.0893938 9.48714e-23)
(0.715331 -0.089982 1.67393e-24)
(0.242702 0.0658126 -5.54847e-20)
(0.220683 0.0552173 -6.46031e-22)
(0.220177 0.0516335 -3.06034e-20)
(0.220488 0.0492865 -2.52312e-19)
(0.221682 0.0455055 4.20945e-19)
(0.225163 0.0411919 -1.89849e-19)
(0.230549 0.0367213 7.74133e-20)
(0.237341 0.0322098 -7.98774e-21)
(0.24518 0.0276605 1.3028e-20)
(0.253838 0.0230018 -7.34199e-20)
(0.263204 0.0181654 -1.26134e-19)
(0.273223 0.013113 -1.29223e-19)
(0.283864 0.00783237 1.91135e-20)
(0.295079 0.00234084 2.4039e-19)
(0.306829 -0.0035514 -1.6935e-19)
(0.319089 -0.010097 2.56891e-20)
(0.331863 -0.016908 -2.92939e-20)
(0.345074 -0.0240654 -2.08522e-20)
(0.358655 -0.0315187 -1.36207e-20)
(0.372529 -0.0391884 7.02787e-20)
(0.386603 -0.0469726 3.06842e-20)
(0.40078 -0.0547521 -9.47486e-20)
(0.414966 -0.0623688 4.03704e-20)
(0.429092 -0.0696871 -3.04487e-20)
(0.443087 -0.076564 9.56847e-20)
(0.456902 -0.0828775 -1.63722e-20)
(0.47051 -0.0885236 2.80839e-20)
(0.4839 -0.0934323 -8.13086e-20)
(0.497082 -0.0975703 2.09059e-20)
(0.51007 -0.10093 1.06857e-20)
(0.52289 -0.103534 -4.64968e-20)
(0.535564 -0.105421 3.03143e-20)
(0.548121 -0.106659 8.32932e-21)
(0.560579 -0.107303 6.53012e-21)
(0.572951 -0.10745 -1.87484e-20)
(0.585264 -0.107146 1.11128e-20)
(0.597486 -0.106512 -5.69236e-22)
(0.609703 -0.105552 -1.38182e-21)
(0.621759 -0.10444 8.54458e-22)
(0.633934 -0.10308 1.706e-21)
(0.645741 -0.10177 3.26588e-22)
(0.657994 -0.100219 -4.2637e-21)
(0.669362 -0.098983 -4.59037e-22)
(0.681983 -0.0974022 -1.42956e-21)
(0.692499 -0.0965196 1.00581e-21)
(0.706114 -0.0950732 -3.70186e-22)
(0.714909 -0.0947947 -1.21042e-22)
(0.730765 -0.0938234 1.54616e-22)
(0.736089 -0.0941341 -4.95823e-23)
(0.756603 -0.0946393 -6.22455e-24)
(0.341228 0.071099 3.57774e-19)
(0.32173 0.0556273 -3.93998e-19)
(0.321381 0.0509692 1.48207e-19)
(0.321658 0.0483339 -1.27062e-19)
(0.32216 0.0442657 5.97561e-20)
(0.324812 0.0395806 -5.09749e-20)
(0.329408 0.0347446 3.13868e-19)
(0.335412 0.029951 -1.38561e-19)
(0.342413 0.0252028 -5.25403e-20)
(0.350176 0.0203931 -9.62216e-20)
(0.358596 0.0154243 3.08614e-19)
(0.367634 0.0102483 1.39969e-20)
(0.377265 0.0048576 -3.14823e-19)
(0.387401 -0.000652312 2.01415e-19)
(0.397998 -0.00686692 -2.00781e-20)
(0.409103 -0.0134678 -1.2828e-19)
(0.420675 -0.0204064 1.66379e-19)
(0.432618 -0.0276966 -5.1127e-20)
(0.444858 -0.0352758 1.14047e-20)
(0.45731 -0.0430645 -1.44871e-20)
(0.469875 -0.0509595 -2.38106e-20)
(0.482459 -0.0588414 -1.55021e-20)
(0.494971 -0.0665577 3.18683e-20)
(0.507349 -0.0739693 3.07685e-20)
(0.519536 -0.0809347 -8.72462e-20)
(0.531501 -0.0873318 3.28138e-20)
(0.543231 -0.0930579 -4.89057e-20)
(0.554733 -0.0980415 6.26987e-20)
(0.566034 -0.102247 1.24151e-21)
(0.57716 -0.105666 2.3573e-20)
(0.588151 -0.10832 -7.63491e-20)
(0.599038 -0.110244 4.51685e-20)
(0.609857 -0.111508 4.18766e-21)
(0.62063 -0.112163 7.1477e-21)
(0.631373 -0.112311 -2.54779e-21)
(0.642115 -0.111991 -1.46385e-20)
(0.652824 -0.111336 1.39826e-20)
(0.663581 -0.110336 3.15468e-21)
(0.674233 -0.109189 1.75996e-21)
(0.685048 -0.10777 -9.06847e-21)
(0.695554 -0.106422 1.92706e-21)
(0.706527 -0.104797 -1.90746e-21)
(0.716693 -0.103532 1.74577e-21)
(0.72807 -0.101869 -1.18489e-21)
(0.737502 -0.100972 1.28948e-21)
(0.749826 -0.0994462 -4.19807e-22)
(0.757725 -0.0991565 -1.91181e-23)
(0.772071 -0.0981173 5.84456e-24)
(0.776868 -0.0984017 -6.35619e-23)
(0.795295 -0.0987767 -3.53957e-25)
(0.468592 0.0764259 -1.47952e-19)
(0.456825 0.0576283 1.70179e-19)
(0.455567 0.0526809 -2.41466e-20)
(0.453199 0.049641 -1.4647e-19)
(0.450238 0.045269 1.19511e-19)
(0.44916 0.040171 -8.46294e-20)
(0.450104 0.0348586 -1.47824e-19)
(0.452602 0.0296307 2.67856e-19)
(0.456228 0.0245287 -2.86711e-19)
(0.460737 0.0194322 3.9878e-20)
(0.466025 0.014215 6.0561e-20)
(0.472067 0.00880155 1.37895e-19)
(0.478847 0.00316855 -1.64786e-19)
(0.486189 -0.00259163 -1.33487e-19)
(0.494082 -0.00902367 2.86933e-19)
(0.502637 -0.0157812 -6.12205e-20)
(0.511726 -0.0228953 -5.69457e-20)
(0.521248 -0.0303544 5.63822e-20)
(0.531119 -0.0380929 -1.38112e-20)
(0.541241 -0.0460288 1.19271e-19)
(0.551511 -0.0540578 -1.41429e-19)
(0.561833 -0.0620607 3.55626e-20)
(0.572118 -0.06989 9.70737e-20)
(0.582303 -0.0774051 -9.90167e-20)
(0.59234 -0.0844665 6.02596e-20)
(0.602202 -0.0909524 -7.60936e-20)
(0.611886 -0.0967622 -1.43627e-20)
(0.6214 -0.101824 -1.49001e-20)
(0.630777 -0.106101 1.00235e-19)
(0.640043 -0.109583 -7.08639e-20)
(0.649243 -0.112293 -1.66212e-20)
(0.658404 -0.114263 5.79647e-20)
(0.667565 -0.115564 -5.03032e-20)
(0.676743 -0.116244 2.55892e-20)
(0.685955 -0.116408 4.56483e-21)
(0.695222 -0.116092 -2.17479e-21)
(0.704515 -0.115435 -6.45047e-21)
(0.713904 -0.11442 1.96623e-21)
(0.723244 -0.113257 4.91111e-21)
(0.73278 -0.11181 -3.64529e-21)
(0.742071 -0.110438 -2.20631e-21)
(0.751826 -0.108777 3.10764e-21)
(0.760876 -0.107484 -1.32425e-22)
(0.771053 -0.105787 1.53055e-21)
(0.779489 -0.104853 1.86667e-22)
(0.790548 -0.103311 -9.71041e-22)
(0.797641 -0.102959 2.81448e-22)
(0.810501 -0.101922 1.80832e-22)
(0.81484 -0.102115 -1.07048e-22)
(0.831277 -0.102409 1.7527e-23)
(1.04252 0.134877 0)
(1.0139 0.117015 0)
(0.993266 0.102353 0)
(0.971752 0.0891718 0)
(0.949415 0.0771569 0)
(0.928285 0.0659638 0)
(0.909575 0.0554707 0)
(0.893464 0.0456728 0)
(0.879634 0.036543 0)
(0.867769 0.0279736 0)
(0.85765 0.0198403 0)
(0.849204 0.0119819 0)
(0.842326 0.00430649 0)
(0.837007 -0.00334836 0)
(0.83302 -0.0109658 0)
(0.830293 -0.0186015 0)
(0.828674 -0.0263244 0)
(0.828025 -0.034131 0)
(0.828198 -0.0419803 0)
(0.82904 -0.049816 0)
(0.830409 -0.0575728 0)
(0.83218 -0.065179 0)
(0.83425 -0.0725529 0)
(0.836538 -0.0796095 0)
(0.83899 -0.0862655 0)
(0.841565 -0.092443 0)
(0.844252 -0.0980788 0)
(0.847041 -0.103121 0)
(0.849954 -0.107542 0)
(0.852996 -0.111321 0)
(0.856201 -0.114472 0)
(0.859574 -0.117001 0)
(0.863147 -0.118956 0)
(0.866912 -0.120352 0)
(0.87089 -0.121272 0)
(0.875067 -0.121721 0)
(0.879438 -0.121821 0)
(0.884009 -0.121537 0)
(0.88871 -0.121053 0)
(0.893646 -0.120256 0)
(0.898572 -0.119429 0)
(0.903858 -0.118329 0)
(0.908847 -0.117395 0)
(0.914535 -0.116196 0)
(0.919317 -0.115377 0)
(0.925588 -0.114299 0)
(0.929687 -0.11378 0)
(0.936963 -0.113112 0)
(0.939523 -0.112966 0)
(0.948725 -0.113158 0)
(1.20179 0.147646 0)
(1.20416 0.138769 0)
(1.20197 0.129392 0)
(1.19758 0.119302 0)
(1.19247 0.108979 0)