/*--------------------------------*- C++ -*----------------------------------*\
  =========                 |
  \\      /  F ield         | OpenFOAM: The Open Source CFD Toolbox
   \\    /   O peration     | Website:  https://openfoam.org
    \\  /    A nd           | Version:  7
     \\/     M anipulation  |
\*---------------------------------------------------------------------------*/
FoamFile
{
    version     2.0;
    format      ascii;
    class       volVectorField;
    location    "30";
    object      U;
}
// * * * * * * * * * * * * * * * * * * * * * * * * * * * * * * * * * * * * * //

dimensions      [0 1 -1 0 0 0 0];

internalField   nonuniform List<vector> 
12150
(
(-0.000607642 0.000665504 -6.78795e-22)
(-0.00297838 0.0014648 6.82052e-22)
(-0.00708821 0.00187223 -3.24115e-21)
(-0.0116911 0.00199435 3.7326e-21)
(-0.016193 0.00190481 -3.66198e-21)
(-0.020226 0.00166226 -5.35792e-21)
(-0.02352 0.00131557 -3.29719e-23)
(-0.025907 0.000906194 8.72553e-22)
(-0.027309 0.000471019 -8.08107e-22)
(-0.0277257 4.47759e-05 8.18776e-23)
(-0.0272294 -0.000338131 4.55456e-21)
(-0.0259677 -0.00064278 3.88768e-21)
(-0.0241569 -0.000836055 -4.48546e-21)
(-0.0220359 -0.000892375 -4.18588e-21)
(-0.0199744 -0.000774543 -6.60713e-22)
(-0.000730794 0.00197049 1.94335e-21)
(-0.00319097 0.00433149 -1.95321e-21)
(-0.0072277 0.00553028 -3.62245e-21)
(-0.0116413 0.00588245 1.25176e-20)
(-0.0158611 0.00560677 -1.47734e-21)
(-0.0195354 0.00487747 -8.18731e-22)
(-0.0224072 0.00383965 1.14498e-20)
(-0.0243182 0.00261642 3.63719e-21)
(-0.0251976 0.00131737 1.52451e-21)
(-0.02505 4.58824e-05 -1.99751e-21)
(-0.0239516 -0.00109513 -8.75988e-21)
(-0.0220551 -0.00200068 1.11289e-20)
(-0.0195895 -0.00257015 -3.80452e-21)
(-0.0167878 -0.00272206 -2.93164e-21)
(-0.0139427 -0.00234454 5.16332e-21)
(-0.000967916 0.0031984 1.79708e-20)
(-0.00359357 0.00701172 -1.30948e-20)
(-0.00747511 0.0089322 5.74043e-21)
(-0.011504 0.00947251 -1.68853e-20)
(-0.0151556 0.00898991 2.74471e-20)
(-0.0181101 0.00776926 -1.10797e-20)
(-0.0201365 0.00604748 -1.07403e-20)
(-0.0210959 0.00402552 7.80169e-22)
(-0.0209313 0.00188237 -1.15166e-20)
(-0.0196573 -0.00021235 1.14951e-20)
(-0.0173574 -0.00208843 -1.5928e-20)
(-0.0141944 -0.00357068 -7.82765e-21)
(-0.0104201 -0.00448879 -1.72669e-21)
(-0.00626756 -0.00468284 4.7379e-21)
(-0.00184795 -0.00390703 3.754e-21)
(-0.00130097 0.00430107 6.51595e-21)
(-0.00414167 0.00938866 2.71339e-21)
(-0.00776801 0.0119175 2.10088e-20)
(-0.0112044 0.0125781 2.80052e-20)
(-0.0139936 0.0118555 -1.53851e-20)
(-0.0158624 0.0101371 1.62302e-21)
(-0.016618 0.00774466 -5.75886e-21)
(-0.0161502 0.0049505 3.70734e-21)
(-0.0144227 0.00199766 6.30178e-21)
(-0.0114648 -0.000882459 9.94579e-21)
(-0.007371 -0.00345506 -2.47243e-20)
(-0.00231852 -0.00547477 1.23556e-20)
(0.0034203 -0.00669842 2.76607e-20)
(0.0096444 -0.00685932 -4.13112e-20)
(0.0161907 -0.00554955 -3.39379e-21)
(-0.00170367 0.0052349 -1.67419e-20)
(-0.00477006 0.0113563 -3.15506e-22)
(-0.00801449 0.0143408 -1.88665e-20)
(-0.010632 0.0150307 -5.50739e-20)
(-0.0122518 0.014025 3.74328e-20)
(-0.0126614 0.0118029 -4.20607e-20)
(-0.0117174 0.00876109 3.26832e-20)
(-0.00934688 0.00523492 2.98511e-21)
(-0.00554098 0.00152376 2.8536e-20)
(-0.000348486 -0.00208587 -1.15909e-20)
(0.00612144 -0.00529897 7.47595e-21)
(0.0136713 -0.00780173 1.40669e-20)
(0.022004 -0.00927137 -3.15839e-20)
(0.0309738 -0.00931422 3.86815e-20)
(0.0403513 -0.00735441 8.37296e-21)
(-0.00214235 0.00596235 2.81791e-20)
(-0.00539457 0.0128231 -4.83556e-20)
(-0.00809522 0.0160764 1.03257e-20)
(-0.0096425 0.0166861 4.7406e-20)
(-0.00976911 0.0153476 -3.86555e-20)
(-0.00833504 0.0126189 3.75283e-20)
(-0.00525681 0.00896006 2.37637e-20)
(-0.000507433 0.00475901 -3.89728e-20)
(0.00588827 0.000361615 8.99405e-21)
(0.013857 -0.00389927 2.59541e-20)
(0.0232711 -0.00767566 -3.36728e-20)
(0.0339082 -0.010589 5.37121e-20)
(0.0454372 -0.0122301 -9.70102e-21)
(0.0577686 -0.0120489 -2.52531e-20)
(0.0706486 -0.0092561 -1.0397e-20)
(-0.00257693 0.00645298 -4.20451e-20)
(-0.00591424 0.0137144 6.12228e-21)
(-0.0078661 0.0170236 2.47482e-20)
(-0.0080607 0.0174299 -5.07086e-20)
(-0.00634839 0.0157064 2.44816e-20)
(-0.00267216 0.0124752 3.3158e-20)
(0.00298252 0.00824647 3.35427e-20)
(0.0105888 0.00344868 -6.65201e-22)
(0.0200816 -0.0015371 -3.84208e-20)
(0.0313575 -0.00634279 -5.56666e-20)
(0.0442657 -0.010578 4.88293e-20)
(0.0585554 -0.0138066 6.15186e-21)
(0.0738514 -0.0155325 -1.09336e-20)
(0.0901188 -0.0150109 2.52815e-20)
(0.107119 -0.0111489 6.96293e-20)
(-0.00296213 0.00668414 2.16242e-20)
(-0.00621371 0.0139753 9.27716e-21)
(-0.00716145 0.0171094 -3.24616e-21)
(-0.00568423 0.0171824 1.60454e-20)
(-0.00176113 0.0150244 -2.07484e-20)
(0.00457316 0.0113061 -8.39468e-20)
(0.0132562 0.00657351 -2.283e-20)
(0.0242005 0.00128291 -9.27364e-20)
(0.0372934 -0.0041618 7.19193e-20)
(0.052395 -0.00937055 -2.45428e-20)
(0.0693258 -0.0139243 -9.1621e-22)
(0.0878016 -0.017343 -2.9791e-20)
(0.107395 -0.0190511 -4.1783e-20)
(0.128124 -0.0180728 -2.89241e-20)
(0.149815 -0.012894 -3.09916e-21)
(-0.00324847 0.00664125 3.19745e-20)
(-0.00616624 0.0135727 7.06561e-21)
(-0.00579751 0.0162921 6.24644e-20)
(-0.00228818 0.0159021 -1.74743e-20)
(0.00424715 0.0132686 5.2479e-20)
(0.0136753 0.00909474 2.7122e-20)
(0.0258502 0.00394782 3.82956e-20)
(0.0406168 -0.00170085 1.33811e-21)
(0.0578079 -0.00743736 2.72844e-21)
(0.0772389 -0.0128639 1.10411e-20)
(0.098694 -0.0175501 -1.46955e-20)
(0.121849 -0.0209925 3.78805e-20)
(0.146216 -0.0225572 9.06827e-21)
(0.171866 -0.0210142 -3.34462e-20)
(0.198756 -0.0142951 1.49392e-20)
(-0.00338265 0.00631898 -3.14179e-20)
(-0.00563634 0.0124954 -3.59045e-21)
(-0.00357839 0.014562 -4.58881e-20)
(0.00236909 0.0135884 1.21436e-20)
(0.0119501 0.0104539 -1.43189e-20)
(0.0249288 0.00587697 4.91257e-21)
(0.0410703 0.000432836 4.19583e-21)
(0.0601457 -0.0054045 -4.20387e-20)
(0.0819257 -0.011223 3.81814e-20)
(0.106171 -0.016631 2.30281e-20)
(0.132619 -0.0212056 -5.82756e-20)
(0.160896 -0.0244483 -5.72874e-20)
(0.190441 -0.0257048 3.241e-20)
(0.221375 -0.0234955 -1.39168e-20)
(0.253871 -0.015067 -6.10669e-21)
(-0.00331029 0.00572023 -8.47724e-20)
(-0.0044829 0.0107545 1.48397e-20)
(-0.000299589 0.0119448 1.8736e-21)
(0.00853817 0.0102851 1.21513e-20)
(0.0216307 0.00664495 3.46754e-20)
(0.0386364 0.00174329 -9.7475e-20)
(0.0592279 -0.00385043 8.17546e-20)
(0.0830972 -0.00967043 -7.21266e-20)
(0.109944 -0.0153162 2.71225e-20)
(0.139465 -0.020414 1.82344e-20)
(0.171333 -0.0245659 3.28313e-20)
(0.205113 -0.0273101 9.11346e-21)
(0.240155 -0.0280294 -1.6704e-21)
(0.276618 -0.0250433 -3.54362e-20)
(0.315003 -0.014811 2.65336e-20)
(-0.00297573 0.00485629 2.65453e-20)
(-0.00256301 0.00838509 3.08057e-20)
(0.00424592 0.00850115 -1.31868e-19)
(0.0164713 0.00607914 4.18726e-20)
(0.03357 0.00195735 2.21494e-20)
(0.0550945 -0.00316065 -4.78461e-20)
(0.080622 -0.00872444 -3.46997e-20)
(0.10976 -0.0142858 -5.9777e-20)
(0.142131 -0.0194627 1.25315e-20)
(0.177352 -0.0239057 -4.40037e-21)
(0.215019 -0.0272537 4.35137e-20)
(0.25461 -0.0291113 1.82166e-20)
(0.29537 -0.0289718 3.26574e-20)
(0.337472 -0.0250596 3.12226e-21)
(0.381856 -0.0130209 2.23988e-20)
(-0.00232358 0.00374732 2.02822e-20)
(0.000264333 0.0054461 -7.76286e-20)
(0.0102597 0.00432727 7.48587e-20)
(0.0264114 0.00110335 -7.60505e-20)
(0.0480347 -0.00344079 4.81171e-20)
(0.0745763 -0.00863419 2.00443e-20)
(0.105517 -0.0139578 3.40184e-20)
(0.140376 -0.0189895 7.50004e-20)
(0.17869 -0.02337 -3.52656e-20)
(0.219987 -0.0267743 -2.9687e-20)
(0.263763 -0.028877 -2.29539e-20)
(0.309384 -0.0293622 -9.07728e-21)
(0.355961 -0.0278912 2.55752e-20)
(0.403637 -0.0227132 -6.83715e-20)
(0.453939 -0.00885544 -1.78463e-20)
(-0.00129997 0.0024222 -2.43763e-20)
(0.00413446 0.00202014 -7.20414e-21)
(0.0179323 -0.000444021 -5.73876e-20)
(0.0385819 -0.0044633 3.66864e-20)
(0.0652611 -0.0093304 -4.0744e-20)
(0.0973114 -0.0144234 -1.22276e-20)
(0.134116 -0.0192686 -1.48331e-21)
(0.175103 -0.0234804 3.51049e-20)
(0.219722 -0.0267262 2.03332e-19)
(0.267404 -0.0286997 -1.4468e-19)
(0.317532 -0.0290944 9.29451e-20)
(0.36933 -0.0276424 -7.59371e-20)
(0.421719 -0.0241013 3.18865e-20)
(0.474554 -0.0166958 -1.02518e-20)
(0.529637 -0.000613466 4.68562e-20)
(0.000146007 0.000918397 5.03133e-20)
(0.00917258 -0.00178669 1.18684e-20)
(0.0274351 -0.00564489 -2.99804e-20)
(0.0531762 -0.0103986 -3.92171e-20)
(0.0854409 -0.0154425 1.27058e-20)
(0.123466 -0.0202227 8.43156e-20)
(0.166536 -0.0243284 2.77923e-20)
(0.213986 -0.0274251 -4.33643e-20)
(0.265178 -0.0292177 -6.35666e-20)
(0.319459 -0.0294214 4.30383e-20)
(0.376125 -0.0277339 1.18171e-19)
(0.434322 -0.0238557 -8.50971e-20)
(0.492918 -0.0173341 -3.63596e-20)
(0.551135 -0.00608345 9.05636e-21)
(0.60925 0.012321 9.04461e-22)
(0.00206108 -0.000718255 -5.50158e-20)
(0.0154894 -0.00584561 -1.66805e-20)
(0.0389127 -0.0110737 8.85812e-20)
(0.0703462 -0.0164379 -4.86734e-21)
(0.108707 -0.0214605 -8.76684e-20)
(0.153124 -0.0256771 4.44767e-20)
(0.20278 -0.028762 1.2305e-19)
(0.256912 -0.0304548 -3.71696e-20)
(0.314791 -0.0305244 -3.81247e-20)
(0.375695 -0.0287414 -3.26034e-20)
(0.438892 -0.0248472 -2.38741e-20)
(0.503654 -0.0185013 -1.94292e-21)
(0.569496 -0.00886998 5.28709e-20)
(0.636308 0.00570581 -4.44649e-20)
(0.70245 0.0200599 2.13077e-20)
(0.00448627 -0.00243372 3.91348e-20)
(0.0231768 -0.0100064 1.28413e-20)
(0.0524762 -0.0164975 2.0765e-20)
(0.0901933 -0.022278 -4.70573e-20)
(0.135119 -0.0270245 -5.68854e-20)
(0.186274 -0.0303858 -4.64439e-20)
(0.242724 -0.0321464 -2.93694e-20)
(0.303595 -0.0321498 -7.83898e-20)
(0.368049 -0.0302687 8.74285e-21)
(0.43527 -0.0263892 5.08473e-20)
(0.504462 -0.0204005 3.69507e-20)
(0.57491 -0.0121545 -1.90729e-20)
(0.646315 -0.00117408 4.01682e-20)
(0.718702 0.0126242 2.66249e-20)
(0.788743 0.0214873 1.11391e-19)
(0.00745541 -0.00416655 6.58452e-20)
(0.0323042 -0.0141 1.9015e-20)
(0.0681967 -0.0216564 1.04872e-19)
(0.11276 -0.0275838 -1.30128e-19)
(0.164662 -0.0317401 -1.07402e-21)
(0.222803 -0.0339117 -6.03002e-20)
(0.286122 -0.0340191 -6.66767e-20)
(0.353609 -0.0320386 8.47186e-20)
(0.424287 -0.0279802 2.01456e-20)
(0.497198 -0.0218874 5.25973e-20)
(0.571408 -0.013844 -7.90537e-20)
(0.646054 -0.00395521 -7.72364e-20)
(0.720585 0.00783642 -1.03068e-20)
(0.79447 0.0208082 -4.6837e-20)
(0.863541 0.0279701 1.00964e-22)
(0.010994 -0.00584872 -3.38288e-20)
(0.0429138 -0.0179412 -3.62926e-20)
(0.0860997 -0.0262696 -6.36228e-20)
(0.138024 -0.0319981 -1.65597e-20)
(0.197231 -0.0351924 2.78412e-20)
(0.262496 -0.0358012 5.41161e-20)
(0.332612 -0.0339055 1.11751e-19)
(0.406412 -0.0296388 -1.1307e-19)
(0.48275 -0.0231733 -7.34983e-20)
(0.56049 -0.0147281 -2.92214e-20)
(0.638511 -0.00458437 1.01268e-19)
(0.715733 0.00692893 -2.46423e-20)
(0.79125 0.0195698 4.43253e-20)
(0.863953 0.0323498 -3.74314e-20)
(0.929588 0.0398198 3.10461e-21)
(0.0151175 -0.00740666 -9.98949e-20)
(0.0550178 -0.021333 -3.07281e-20)
(0.106159 -0.0300432 1.13792e-19)
(0.16589 -0.0351531 -1.94249e-20)
(0.232637 -0.0369633 2.37335e-20)
(0.305037 -0.0356083 -3.70529e-20)
(0.381726 -0.0313526 -1.47855e-21)
(0.461363 -0.0245088 4.48858e-20)
(0.542617 -0.0154271 5.06775e-20)
(0.624162 -0.0045093 6.65699e-20)
(0.704683 0.00777897 -9.79359e-20)
(0.782899 0.0209288 1.25513e-20)
(0.857622 0.0345013 5.33766e-20)
(0.927398 0.047477 -7.33903e-20)
(0.988319 0.0558936 2.16405e-20)
(0.0198302 -0.00876242 4.39314e-20)
(0.0685936 -0.0240706 9.3107e-20)
(0.128294 -0.0326782 -4.44732e-20)
(0.196191 -0.0366844 1.94108e-20)
(0.270595 -0.0366499 -2.30581e-20)
(0.350003 -0.0329186 2.24515e-20)
(0.432887 -0.0259606 2.60793e-20)
(0.517725 -0.0162855 -9.46702e-20)
(0.603003 -0.00443325 5.23681e-20)
(0.687217 0.009012 -7.91048e-20)
(0.768894 0.0234185 7.34025e-20)
(0.846613 0.0381378 -3.91806e-20)
(0.919038 0.0526082 6.62383e-20)
(0.984608 0.0658796 2.45453e-20)
(1.03997 0.0752322 -3.50415e-20)
(0.0251229 -0.00983515 4.78959e-20)
(0.0835814 -0.0259469 -2.95429e-20)
(0.152363 -0.0338802 3.67758e-20)
(0.228677 -0.0362435 -2.9886e-20)
(0.31073 -0.033882 5.2057e-20)
(0.396877 -0.0273715 -2.65801e-20)
(0.485427 -0.0174076 5.90066e-20)
(0.574687 -0.00471186 -6.58979e-20)
(0.662979 0.00997929 8.43441e-21)
(0.748661 0.0259053 9.23409e-20)
(0.830161 0.0422892 -2.66957e-20)
(0.906015 0.0583808 1.00257e-20)
(0.97488 0.0735507 -4.82191e-20)
(1.03529 0.0869641 -4.97543e-20)
(1.08452 0.0968852 2.41847e-20)
(0.0309721 -0.0105428 -6.61207e-20)
(0.0998804 -0.0267581 -6.5247e-21)
(0.178161 -0.033369 -5.41852e-21)
(0.263022 -0.0335119 2.49909e-21)
(0.352578 -0.028339 4.94702e-20)
(0.445048 -0.0186785 -7.798e-20)
(0.538595 -0.0054681 9.0489e-20)
(0.631377 0.0103483 -6.74733e-20)
(0.721592 0.0278372 -4.29787e-20)
(0.807518 0.0460739 1.62171e-20)
(0.887571 0.0641626 -3.40233e-20)
(0.960346 0.081289 1.28147e-20)
(1.02463 0.0968047 4.07963e-20)
(1.07921 0.11002 3.40528e-20)
(1.122 0.119958 1.19917e-20)
(0.0373378 -0.0108042 5.43666e-20)
(0.117347 -0.0263095 1.28646e-22)
(0.205424 -0.0308878 -1.43057e-20)
(0.298824 -0.0282137 -3.13694e-20)
(0.395591 -0.019764 -6.29717e-21)
(0.493832 -0.00663693 2.3789e-20)
(0.591582 0.00997607 -4.24464e-20)
(0.686895 0.0289053 -1.30293e-20)
(0.777899 0.0490281 1.35312e-20)
(0.862873 0.0692767 1.53178e-20)
(0.940313 0.0886703 1.88696e-20)
(1.00898 0.106373 7.45227e-21)
(1.06792 0.121766 -1.41913e-20)
(1.11626 0.134332 2.20926e-20)
(1.15257 0.143675 -4.77525e-21)
(0.0441628 -0.0105414 1.02614e-19)
(0.135795 -0.0244223 -3.11746e-20)
(0.233824 -0.0262137 -2.92468e-20)
(0.335611 -0.0201266 -5.55701e-20)
(0.439157 -0.00797557 2.88627e-20)
(0.542484 0.00885988 1.20588e-20)
(0.643545 0.0289304 4.59748e-20)
(0.740339 0.0508463 1.79772e-20)
(0.831004 0.0733145 -3.72303e-20)
(0.913903 0.0951561 -2.31771e-20)
(0.987712 0.115348 1.69115e-20)
(1.05146 0.133082 -3.44146e-20)
(1.10453 0.147819 -1.79725e-20)
(1.14649 0.159243 7.63993e-21)
(1.1765 0.1674 -2.65695e-20)
(0.0513723 -0.00968256 -4.41618e-20)
(0.154995 -0.0209409 1.67305e-20)
(0.262978 -0.0191668 3.30638e-20)
(0.372848 -0.00909323 -2.8324e-20)
(0.482605 0.00712287 2.00044e-20)
(0.590225 0.0278171 -5.11436e-20)
(0.693634 0.051288 2.06199e-20)
(0.790846 0.0759443 6.45615e-20)
(0.880089 0.100353 -1.50625e-20)
(0.959909 0.123268 4.73623e-20)
(1.02925 0.143677 -6.87443e-20)
(1.0875 0.16085 4.79758e-20)
(1.13445 0.174381 -1.53929e-20)
(1.1701 0.184181 -1.463e-20)
(1.1942 0.190637 2.487e-20)
(0.0588737 -0.00816475 4.02197e-20)
(0.174678 -0.0157392 4.31105e-20)
(0.292451 -0.00961938 -3.60623e-20)
(0.409955 0.00497077 2.30691e-20)
(0.525233 0.0255368 -1.00661e-20)
(0.636268 0.0501366 -9.42782e-21)
(0.741024 0.0768355 -1.93495e-20)
(0.837614 0.103871 2.10194e-20)
(0.924444 0.129717 -1.28498e-20)
(1.00033 0.153112 -2.86126e-21)
(1.06458 0.173114 -2.10295e-20)
(1.11699 0.18913 7.73212e-22)
(1.15778 0.20093 -2.31433e-20)
(1.18743 0.208677 1.36037e-20)
(1.20614 0.21302 1.14779e-20)
(0.0665579 -0.00593734 2.97339e-21)
(0.194539 -0.00872841 -2.28406e-20)
(0.32177 0.00249646 4.34431e-21)
(0.446317 0.0220697 3.03815e-20)
(0.56632 0.0471773 -2.6923e-20)
(0.679836 0.0756195 1.52461e-20)
(0.784941 0.105261 -1.90813e-20)
(0.879932 0.134216 -2.76635e-21)
(0.963486 0.160917 5.81312e-21)
(1.03477 0.184157 1.1669e-20)
(1.09352 0.203124 -6.26266e-23)
(1.13997 0.217412 1.63343e-21)
(1.1748 0.227013 -9.12098e-22)
(1.1989 0.232354 -4.87147e-21)
(1.21287 0.234287 4.77434e-21)
(0.0743007 -0.00296486 3.71103e-21)
(0.214244 0.000137446 -4.46809e-21)
(0.350433 0.017182 -3.86661e-20)
(0.481302 0.0421237 3.81915e-21)
(0.605156 0.0718611 1.41515e-21)
(0.720193 0.103972 2.44057e-21)
(0.824685 0.136168 -1.86153e-20)
(0.9172 0.166498 4.67166e-21)
(0.996767 0.193427 -8.39704e-21)
(1.06298 0.215865 7.31123e-21)
(1.11602 0.233192 -4.74734e-22)
(1.15661 0.245242 -1.95426e-21)
(1.18585 0.252254 3.16717e-21)
(1.20497 0.254921 5.67916e-21)
(1.21492 0.254261 1.1472e-21)
(0.0819659 0.00077015 5.15611e-21)
(0.233438 0.010856 -6.66232e-22)
(0.37792 0.0343673 1.08879e-21)
(0.514282 0.0649668 -5.8132e-21)
(0.641057 0.0993134 1.00064e-20)
(0.756662 0.134812 6.01461e-21)
(0.859649 0.169087 -9.68549e-22)
(0.948939 0.200194 -2.31003e-21)
(1.02398 0.2267 4.19486e-22)
(1.08484 0.247707 2.2158e-21)
(1.13219 0.262845 -6.05277e-21)
(1.1672 0.27222 1.72218e-21)
(1.19134 0.27634 3.59196e-21)
(1.20616 0.27616 -5.17122e-21)
(1.21281 0.272827 4.66984e-22)
(0.0894083 0.00526477 -6.50538e-21)
(0.251756 0.0233727 2.45498e-21)
(0.403714 0.0539092 5.05603e-21)
(0.544648 0.0903483 -5.53528e-21)
(0.673387 0.129174 5.10924e-21)
(0.788646 0.167686 7.1588e-21)
(0.889336 0.203495 7.39846e-23)
(0.974799 0.234745 -6.44028e-21)
(1.04496 0.260187 5.54049e-21)
(1.10039 0.279179 -1.10629e-22)
(1.14224 0.291649 -4.13993e-21)
(1.17208 0.298004 -3.25675e-21)
(1.19173 0.299023 3.60741e-21)
(1.20295 0.295906 1.39855e-21)
(1.20703 0.289905 -1.02636e-21)
(0.0964777 0.010494 -1.08185e-20)
(0.26883 0.0375787 -1.01711e-20)
(0.42731 0.0755906 -6.20145e-21)
(0.571827 0.117937 -1.805e-20)
(0.701578 0.161006 1.03391e-20)
(0.815644 0.202074 -1.40705e-20)
(0.913364 0.238826 -7.11368e-21)
(0.994561 0.269581 1.34928e-21)
(1.05967 0.293352 2.61256e-21)
(1.10976 0.30981 1.495e-21)
(1.14643 0.319219 7.66777e-21)
(1.17164 0.322302 -8.92989e-21)
(1.18747 0.320099 2.26026e-21)
(1.1958 0.314031 4.82542e-21)
(1.19803 0.30544 1.77319e-21)
(0.103023 0.0164096 -2.88279e-20)
(0.284301 0.0533103 -1.78692e-20)
(0.448231 0.0991237 2.6249e-20)
(0.595305 0.147326 4.1013e-21)
(0.725142 0.194308 -1.88242e-20)
(0.837257 0.23741 1.35689e-20)
(0.931472 0.274491 1.29738e-20)
(1.00813 0.304132 -2.08647e-20)
(1.06818 0.325677 -1.26722e-20)
(1.11317 0.339165 3.44292e-21)
(1.14513 0.345217 1.33254e-20)
(1.16631 0.34487 6.24205e-21)
(1.179 0.339406 4.71881e-22)
(1.18516 0.330433 -3.03306e-21)
(1.1862 0.319391 -1.00104e-20)
(0.108898 0.0229401 4.58653e-20)
(0.297833 0.0703507 -2.48238e-21)
(0.466047 0.124155 -5.76369e-21)
(0.614634 0.178045 1.08994e-21)
(0.743685 0.228522 3.54747e-20)
(0.8532 0.273094 -4.24314e-20)
(0.94352 0.30989 7.79555e-21)
(1.01552 0.337839 -2.89904e-21)
(1.07066 0.356679 -3.83425e-21)
(1.11093 0.366851 -8.12207e-21)
(1.13872 0.369345 1.7268e-20)
(1.15652 0.3655 -2.28249e-20)
(1.16675 0.356806 7.94304e-21)
(1.17142 0.345016 -8.12618e-21)
(1.17188 0.331717 2.20457e-21)
(0.113964 0.0299911 -5.50697e-20)
(0.30912 0.0884334 -2.18781e-20)
(0.480382 0.15027 6.53534e-20)
(0.629448 0.209569 1.30554e-20)
(0.756916 0.263053 -7.19596e-20)
(0.863302 0.308507 4.61611e-20)
(0.949485 0.344426 -1.07592e-20)
(1.01686 0.370164 1.36571e-20)
(1.06737 0.385905 6.98256e-21)
(1.1034 0.392515 8.43333e-21)
(1.12761 0.391349 1.266e-20)
(1.14268 0.384021 -7.43499e-21)
(1.15111 0.37219 -4.66783e-21)
(1.15488 0.357697 2.54564e-22)
(1.15524 0.342372 2.30147e-21)
(0.118095 0.037447 3.59297e-20)
(0.317896 0.107247 -3.81488e-21)
(0.490929 0.177009 -6.86612e-20)
(0.639475 0.241329 4.47156e-20)
(0.764653 0.297279 3.9448e-20)
(0.867508 0.343024 -3.59588e-20)
(0.949451 0.377515 3.54068e-20)
(1.01237 0.400598 -1.73552e-20)
(1.05865 0.412942 -3.40895e-21)
(1.09098 0.415844 -3.33003e-20)
(1.11225 0.41101 1.95766e-20)
(1.12524 0.4003 -1.01839e-21)
(1.13246 0.385501 4.07372e-21)
(1.13581 0.368488 -4.0396e-21)
(1.13629 0.35131 -6.93386e-21)
(0.121185 0.0451728 -4.26654e-20)
(0.323946 0.126444 3.56603e-20)
(0.497458 0.203868 1.14129e-20)
(0.644537 0.272731 1.99963e-20)
(0.766819 0.330568 -2.34416e-20)
(0.865871 0.376027 3.41704e-20)
(0.943605 0.408597 -4.35954e-20)
(1.00236 0.428668 -2.78062e-20)
(1.04488 0.437413 2.38574e-20)
(1.07411 0.436558 1.47027e-20)
(1.09308 0.428134 -1.06893e-20)
(1.10462 0.414213 1.70105e-20)
(1.1112 0.396706 3.92913e-21)
(1.11458 0.377582 2.72096e-21)
(1.11556 0.358703 -1.23785e-21)
(0.123145 0.0530178 -4.36933e-20)
(0.32711 0.145645 2.59375e-20)
(0.499821 0.230321 5.10081e-21)
(0.64456 0.303165 9.5146e-21)
(0.763449 0.36229 -6.12373e-21)
(0.858547 0.406918 2.39496e-20)
(0.932222 0.437143 -4.11215e-20)
(0.987202 0.453935 9.39981e-21)
(1.0265 0.458977 -1.82445e-20)
(1.05327 0.454405 -2.20661e-21)
(1.07057 0.44254 -8.45801e-21)
(1.08125 0.425623 -4.42233e-21)
(1.08771 0.405654 8.64846e-21)
(1.0916 0.384693 8.36583e-21)
(1.09368 0.364411 -2.653e-21)
(0.123914 0.0608181 -2.63554e-20)
(0.327292 0.164453 -3.36194e-20)
(0.49796 0.255825 3.30962e-20)
(0.639569 0.332019 1.10785e-20)
(0.754681 0.39183 6.37316e-23)
(0.84579 0.435129 1.46992e-20)
(0.915657 0.462664 -1.67819e-20)
(0.967315 0.476003 3.61585e-20)
(1.00399 0.477332 -2.05643e-22)
(1.02891 0.469165 3.08802e-21)
(1.04517 0.454071 1.031e-20)
(1.05553 0.434417 -5.67411e-21)
(1.06233 0.412249 -2.61396e-21)
(1.0671 0.389661 -4.12037e-21)
(1.07061 0.368241 -7.95752e-22)
(0.123456 0.0684018 1.91604e-20)
(0.324459 0.182458 7.46345e-20)
(0.491902 0.279837 -5.55809e-20)
(0.629691 0.358698 7.95386e-21)
(0.74075 0.418603 3.22239e-21)
(0.827939 0.460132 -2.53998e-21)
(0.894327 0.484715 -1.56229e-20)
(0.943174 0.494522 1.48817e-20)
(0.977822 0.492214 -3.50083e-22)
(1.00153 0.480646 -1.54004e-20)
(1.01732 0.46259 3.58576e-21)
(1.02785 0.440495 2.9759e-21)
(1.03536 0.416412 1.09341e-21)
(1.04131 0.392419 2.441e-21)
(1.04647 0.370115 -1.00721e-21)
(0.121763 0.0755939 -2.07701e-21)
(0.318645 0.199252 -1.6184e-20)
(0.481767 0.301827 3.43111e-20)
(0.615148 0.382633 -9.36702e-21)
(0.721978 0.442062 -1.64292e-20)
(0.805402 0.481446 5.25046e-22)
(0.868707 0.502903 1.5404e-20)
(0.915288 0.509184 -5.15872e-22)
(0.948523 0.503395 5.15986e-21)
(0.971618 0.488685 2.40669e-21)
(0.987471 0.467978 -4.07569e-22)
(0.998608 0.443767 1.26981e-21)
(1.00714 0.418066 1.94991e-22)
(1.01448 0.392899 -4.24113e-21)
(1.02145 0.369948 5.02028e-21)
(0.118861 0.082225 7.28563e-21)
(0.309946 0.214436 -2.72475e-20)
(0.467757 0.321288 -2.61436e-20)
(0.596246 0.403295 1.12935e-20)
(0.698768 0.461717 1.63955e-21)
(0.778657 0.498647 6.12108e-21)
(0.839318 0.516886 -3.81318e-21)
(0.884186 0.519733 4.81342e-21)
(0.916601 0.510688 -2.90563e-21)
(0.939656 0.493143 4.52815e-21)
(0.956079 0.470133 2.06123e-22)
(0.96821 0.444152 -1.52368e-20)
(0.97801 0.41714 5.4161e-21)
(0.986856 0.391006 -7.07751e-21)
(0.995762 0.367585 7.41305e-21)
(0.114782 0.0881246 -7.28817e-21)
(0.298533 0.227645 1.32131e-20)
(0.450158 0.33775 2.81903e-21)
(0.573374 0.420203 -1.64203e-21)
(0.671598 0.47713 -1.3762e-20)
(0.748236 0.511374 -2.03926e-21)
(0.806709 0.526385 -2.50445e-21)
(0.850409 0.525962 -3.83894e-21)
(0.882568 0.513943 -3.51243e-21)
(0.906116 0.493911 1.80836e-20)
(0.923579 0.468964 -5.72217e-21)
(0.937068 0.441574 1.21005e-20)
(0.948341 0.413574 2.30164e-20)
(0.958766 0.386654 -9.34192e-21)
(0.969706 0.362813 6.37321e-21)
(0.109616 0.0931142 -2.1485e-21)
(0.284642 0.238519 -1.00571e-20)
(0.429321 0.350799 3.38004e-21)
(0.546995 0.432943 -3.36621e-21)
(0.641002 0.487934 2.45966e-21)
(0.714708 0.519333 7.07536e-21)
(0.771452 0.531182 1.85058e-20)
(0.814501 0.527717 1.89583e-20)
(0.846921 0.513051 -5.69688e-21)
(0.871446 0.490901 -2.59726e-20)
(0.890381 0.464388 -9.50238e-21)
(0.905588 0.435945 -7.41725e-21)
(0.918575 0.407281 1.55326e-20)
(0.930723 0.379755 -2.26513e-20)
(0.943817 0.355515 -2.70352e-20)
(0.103476 0.0970628 7.20863e-21)
(0.268545 0.246748 -6.64334e-21)
(0.405669 0.36007 -1.91976e-20)
(0.517631 0.441166 4.7535e-21)
(0.607561 0.493837 -4.17824e-21)
(0.678674 0.522302 1.35895e-20)
(0.734132 0.531125 -4.27706e-21)
(0.777 0.524904 1.03603e-20)
(0.810132 0.507953 -1.11154e-20)
(0.836041 0.48406 1.76731e-20)
(0.856816 0.456324 5.97116e-20)
(0.874075 0.427106 -4.27251e-20)
(0.889083 0.397968 -2.06051e-20)
(0.903259 0.369812 3.74034e-21)
(0.918532 0.345073 -1.18732e-21)
(0.0964856 0.099844 -2.01127e-20)
(0.250576 0.252079 -1.36381e-20)
(0.37968 0.365268 -5.77771e-21)
(0.485855 0.444601 2.65493e-20)
(0.571896 0.494625 -5.24738e-20)
(0.640762 0.520135 -2.80414e-21)
(0.695344 0.526135 3.08957e-20)
(0.738443 0.517494 -2.94623e-20)
(0.772652 0.498656 4.48733e-20)
(0.800246 0.473414 -2.00319e-20)
(0.823098 0.444783 -1.2338e-20)
(0.842617 0.414992 2.84516e-22)
(0.859906 0.385349 3.36673e-20)
(0.876398 0.355785 -3.02501e-20)
(0.891912 0.326631 1.19101e-20)
(0.0887927 0.101353 4.16262e-20)
(0.231108 0.254305 -2.57334e-20)
(0.351876 0.366169 5.6283e-21)
(0.452279 0.443058 -1.70007e-20)
(0.534658 0.490164 5.51694e-22)
(0.601614 0.512764 4.14683e-21)
(0.655694 0.516199 1.02132e-20)
(0.699368 0.505527 1.28314e-20)
(0.734933 0.485247 -4.44638e-20)
(0.7644 0.459103 -1.18165e-20)
(0.789417 0.429995 2.13783e-20)
(0.811219 0.400006 -4.95661e-20)
(0.830846 0.370327 3.14385e-20)
(0.849572 0.341001 1.80933e-20)
(0.866195 0.312692 -4.14594e-21)
(0.0805649 0.10151 1.11895e-20)
(0.210547 0.25328 3.51933e-20)
(0.322814 0.362625 8.19603e-21)
(0.417541 0.436427 -3.00435e-20)
(0.496512 0.4804 4.09518e-20)
(0.561886 0.500189 -4.08654e-20)
(0.615792 0.501369 -4.90095e-20)
(0.660328 0.489096 -6.94937e-20)
(0.697462 0.467853 1.01304e-19)
(0.728921 0.441298 1.77425e-20)
(0.75612 0.412201 -1.8304e-20)
(0.78012 0.382503 -1.67889e-20)
(0.801833 0.353302 3.27152e-20)
(0.822263 0.324767 -3.79655e-21)
(0.840018 0.297762 9.16881e-20)
(0.0719825 0.100263 -1.07556e-19)
(0.18932 0.248915 8.27894e-20)
(0.293071 0.354568 1.71844e-20)
(0.382296 0.424682 -3.84966e-20)
(0.458135 0.465357 7.42504e-20)
(0.522232 0.482481 -5.54187e-20)
(0.57625 0.48175 4.54149e-20)
(0.621878 0.468326 1.82033e-20)
(0.66074 0.446617 7.26746e-21)
(0.694277 0.42015 4.03287e-20)
(0.723678 0.391554 -2.12929e-20)
(0.749844 0.362635 -7.24185e-20)
(0.773563 0.334414 -4.54839e-20)
(0.795647 0.307144 6.78575e-21)
(0.81481 0.281698 3.56541e-21)
(0.0632341 0.0975883 9.44851e-21)
(0.16787 0.241188 -2.01827e-20)
(0.263235 0.342005 2.71221e-20)
(0.347201 0.407877 -1.96634e-20)
(0.420193 0.445133 2.568e-20)
(0.483294 0.459771 -3.47741e-20)
(0.537661 0.457494 4.54459e-20)
(0.584559 0.443379 -4.39316e-20)
(0.625257 0.421693 1.09962e-20)
(0.660921 0.395796 -2.98739e-22)
(0.69253 0.368156 -3.99457e-20)
(0.720841 0.340442 8.24727e-21)
(0.746543 0.313599 5.4229e-20)
(0.770315 0.287922 -7.33743e-20)
(0.791044 0.26419 2.19889e-20)
(0.0545119 0.0934899 -6.6684e-20)
(0.146641 0.230136 4.08398e-20)
(0.233891 0.325022 -3.38465e-20)
(0.3129 0.386145 5.35035e-20)
(0.383339 0.4199 -1.79047e-20)
(0.445694 0.432256 2.20803e-20)
(0.500598 0.428804 8.02874e-20)
(0.548883 0.414452 -9.61986e-20)
(0.591475 0.39326 1.06385e-20)
(0.629273 0.368386 -4.95446e-21)
(0.663063 0.342116 7.73904e-20)
(0.69348 0.315975 7.38073e-20)
(0.72113 0.290827 2.06721e-20)
(0.746594 0.266976 -1.79585e-20)
(0.768942 0.245068 1.99023e-21)
(0.0460072 0.088001 4.99909e-20)
(0.12607 0.21586 -8.2572e-20)
(0.205608 0.303782 -3.42057e-21)
(0.280018 0.359696 -3.24284e-20)
(0.348198 0.389897 -1.8849e-20)
(0.410021 0.400187 -9.78641e-20)
(0.465598 0.395931 -5.53554e-20)
(0.515334 0.381776 -2.14271e-20)
(0.559821 0.361524 5.53325e-20)
(0.599711 0.338092 -1.02083e-19)
(0.635617 0.313566 6.97953e-21)
(0.668069 0.289323 1.25186e-20)
(0.6976 0.266136 -5.8888e-20)
(0.724718 0.244299 -1.1269e-20)
(0.748676 0.224318 -1.14966e-20)
(0.0379061 0.0811823 -7.57617e-20)
(0.106579 0.19852 -6.98594e-20)
(0.178932 0.278517 -3.87226e-21)
(0.249148 0.328812 4.70539e-20)
(0.315356 0.355433 1.37568e-20)
(0.376827 0.363877 1.28741e-19)
(0.433161 0.359171 3.99012e-20)
(0.484353 0.345625 9.35079e-20)
(0.530684 0.326724 -1.52545e-21)
(0.572576 0.305115 -2.76183e-20)
(0.610491 0.28267 -1.93614e-21)
(0.644867 0.260609 8.63837e-20)
(0.676176 0.239614 5.20549e-20)
(0.704867 0.219954 -7.02801e-21)
(0.730378 0.202004 -2.82034e-20)
(0.0303853 0.0731209 6.62745e-20)
(0.0885654 0.17833 6.38399e-20)
(0.154373 0.249527 -7.37573e-20)
(0.220839 0.293843 1.38809e-20)
(0.285356 0.316876 -7.79829e-21)
(0.346618 0.323687 -7.63072e-21)
(0.403741 0.318866 5.22529e-20)
(0.45634 0.306307 -7.65739e-20)
(0.50441 0.289131 1.75142e-20)
(0.548169 0.269688 6.72974e-20)
(0.587943 0.249622 -1.62432e-20)
(0.624095 0.229992 -5.89567e-20)
(0.657042 0.21139 -1.84633e-20)
(0.687188 0.19405 -7.63224e-20)
(0.714153 0.178235 3.97794e-20)
(0.0236082 0.0639284 -6.9064e-20)
(0.0723937 0.155559 -4.0778e-21)
(0.132398 0.217177 -5.92072e-21)
(0.195592 0.2552 -1.46284e-20)
(0.258687 0.274649 3.50862e-20)
(0.319846 0.280031 -6.89401e-20)
(0.377744 0.275398 2.40999e-20)
(0.431652 0.264165 -7.20612e-20)
(0.481309 0.249048 8.66807e-21)
(0.526755 0.232072 -2.95265e-20)
(0.5682 0.214645 2.56015e-20)
(0.605942 0.197664 2.73859e-20)
(0.640355 0.181627 -9.18375e-20)
(0.671806 0.166733 6.7082e-20)
(0.700089 0.153153 6.27925e-21)
(0.0177216 0.0537385 6.5939e-20)
(0.0583904 0.13052 -1.38068e-20)
(0.11342 0.181883 1.06911e-19)
(0.173848 0.21335 -8.86257e-21)
(0.235781 0.229229 -2.1888e-20)
(0.296911 0.233363 1.97133e-20)
(0.355526 0.229187 -1.04249e-20)
(0.410597 0.219577 2.20303e-20)
(0.461646 0.206806 -2.107e-20)
(0.508559 0.192556 -6.03759e-20)
(0.551452 0.17799 -5.50975e-20)
(0.590569 0.163842 7.28912e-20)
(0.626247 0.150518 -2.30566e-20)
(0.658825 0.138178 -2.24395e-20)
(0.688258 0.126926 1.49459e-20)
(0.0128526 0.0427045 1.15461e-20)
(0.0468365 0.103567 -1.7975e-20)
(0.0977959 0.144112 -1.3388e-20)
(0.155985 0.168809 -2.67615e-20)
(0.217003 0.181135 1.18777e-20)
(0.278149 0.184177 -8.10343e-20)
(0.337385 0.180685 5.3806e-20)
(0.393437 0.172947 -3.9147e-20)
(0.445645 0.16276 -1.72843e-20)
(0.493773 0.151452 4.9334e-20)
(0.53786 0.13993 -3.31785e-20)
(0.57811 0.128767 -3.69342e-20)
(0.614828 0.118276 3.03993e-20)
(0.648334 0.108583 -7.34602e-21)
(0.678719 0.0997393 7.36426e-20)
(0.0091063 0.0309964 4.5035e-21)
(0.0379634 0.0750896 -1.12709e-20)
(0.0858165 0.104372 -1.08166e-20)
(0.142312 0.122131 1.26645e-20)
(0.202655 0.130921 -1.07152e-20)
(0.263834 0.133 2.15976e-20)
(0.323565 0.130373 -2.72493e-20)
(0.38038 0.124703 4.89527e-20)
(0.433485 0.11729 3.99693e-20)
(0.482549 0.109091 -8.70874e-21)
(0.527553 0.100758 6.33533e-23)
(0.568671 0.0926985 3.30331e-21)
(0.606185 0.0851367 -2.43136e-21)
(0.640403 0.0781601 -9.20513e-21)
(0.671523 0.0717932 -1.57076e-20)
(0.00656312 0.018797 -6.04011e-21)
(0.0319481 0.045503 -2.59193e-20)
(0.0777048 0.063202 -1.60207e-21)
(0.133065 0.0739049 5.70582e-21)
(0.192961 0.0791722 1.49808e-20)
(0.254174 0.0803817 -2.03895e-20)
(0.314248 0.078752 -1.69559e-20)