/*--------------------------------*- C++ -*----------------------------------*\
  =========                 |
  \\      /  F ield         | OpenFOAM: The Open Source CFD Toolbox
   \\    /   O peration     | Website:  https://openfoam.org
    \\  /    A nd           | Version:  7
     \\/     M anipulation  |
\*---------------------------------------------------------------------------*/
FoamFile
{
    version     2.0;
    format      ascii;
    class       volScalarField;
    location    "110.001";
    object      p;
}
// * * * * * * * * * * * * * * * * * * * * * * * * * * * * * * * * * * * * * //

dimensions      [0 2 -2 0 0 0 0];

internalField   nonuniform List<scalar> 
3700
(
-0.410346
-0.418922
-0.417862
-0.404043
-0.376959
-0.338733
-0.29484
-0.251437
-0.213547
-0.184027
-0.163697
-0.152034
-0.148001
-0.150887
-0.160659
-0.177136
-0.19861
-0.221213
-0.239757
-0.249494
-0.247664
-0.234608
-0.213098
-0.187336
-0.16138
-0.13809
-0.118885
-0.104081
-0.0934007
-0.0863829
-0.0825863
-0.0816538
-0.0833816
-0.0878157
-0.0952344
-0.105849
-0.119295
-0.134267
-0.148619
-0.159908
-0.166091
-0.166067
-0.160135
-0.149498
-0.136061
-0.121734
-0.108008
-0.0958112
-0.0855757
-0.0774074
-0.0712535
-0.0670033
-0.0645432
-0.0638059
-0.0648261
-0.0677471
-0.0727164
-0.0796805
-0.0881977
-0.0973974
-0.106122
-0.113161
-0.117496
-0.118461
-0.115874
-0.110037
-0.101617
-0.0913947
-0.0802994
-0.0688783
-0.0578461
-0.0471618
-0.0374516
-0.0280177
-0.0198532
-0.0113573
-0.00459395
-0.376873
-0.381301
-0.379455
-0.366609
-0.342956
-0.309535
-0.271341
-0.233655
-0.201007
-0.176057
-0.15962
-0.151261
-0.150129
-0.155804
-0.168482
-0.187917
-0.21204
-0.236544
-0.255962
-0.265505
-0.262549
-0.247663
-0.223929
-0.195869
-0.167789
-0.142659
-0.121898
-0.105763
-0.0939108
-0.0858131
-0.0809765
-0.0790045
-0.0796472
-0.082886
-0.0889381
-0.0980073
-0.10981
-0.123199
-0.136221
-0.146615
-0.152483
-0.152769
-0.147751
-0.138449
-0.1266
-0.113918
-0.101756
-0.0909732
-0.081983
-0.0749106
-0.0697359
-0.0663832
-0.0647732
-0.0648761
-0.0667701
-0.0706404
-0.0766612
-0.0847774
-0.0945138
-0.104937
-0.114803
-0.122797
-0.127797
-0.129052
-0.126338
-0.119991
-0.110734
-0.0994496
-0.087189
-0.0745925
-0.0624532
-0.0507607
-0.0401625
-0.0299591
-0.0211309
-0.0120684
-0.00479806
-0.340436
-0.340252
-0.336643
-0.325204
-0.305392
-0.277125
-0.245008
-0.213322
-0.186161
-0.165967
-0.15353
-0.148503
-0.150259
-0.158706
-0.17424
-0.19652
-0.223114
-0.24932
-0.26948
-0.278827
-0.274927
-0.258456
-0.232784
-0.202727
-0.172811
-0.146092
-0.123973
-0.106661
-0.0937508
-0.0846585
-0.0788469
-0.0758852
-0.0754847
-0.0775677
-0.0822896
-0.0898419
-0.10002
-0.111839
-0.123546
-0.133064
-0.138639
-0.139354
-0.135124
-0.127125
-0.116826
-0.10575
-0.0951198
-0.0857241
-0.077963
-0.0719778
-0.0677785
-0.0653218
-0.0645613
-0.0655049
-0.0682734
-0.0730937
-0.0801672
-0.0894398
-0.100407
-0.112077
-0.12312
-0.132116
-0.13783
-0.13942
-0.136613
-0.129784
-0.119703
-0.107352
-0.0939141
-0.0801305
-0.066878
-0.05418
-0.0427057
-0.0317529
-0.0222918
-0.0127007
-0.00497325
-0.302392
-0.297
-0.291307
-0.281995
-0.265063
-0.242033
-0.216161
-0.190567
-0.168991
-0.153621
-0.145197
-0.143468
-0.148055
-0.159223
-0.17754
-0.202524
-0.231392
-0.259129
-0.279963
-0.289142
-0.284538
-0.266802
-0.239542
-0.207844
-0.176421
-0.148393
-0.125142
-0.106825
-0.0929852
-0.0829966
-0.0762863
-0.0723967
-0.0710066
-0.071988
-0.0754357
-0.0815229
-0.0901182
-0.1004
-0.110817
-0.11948
-0.124757
-0.125746
-0.122386
-0.115659
-0.106854
-0.0973217
-0.0881654
-0.0801131
-0.073549
-0.0686286
-0.0653887
-0.0638151
-0.0638923
-0.065665
-0.069296
-0.0750524
-0.083163
-0.0935784
-0.105771
-0.118695
-0.130937
-0.140971
-0.147447
-0.14942
-0.146564
-0.139298
-0.128421
-0.115018
-0.100408
-0.0854407
-0.071082
-0.0573922
-0.045063
-0.0333883
-0.0233305
-0.0132524
-0.00511986
-0.26418
-0.253005
-0.24484
-0.235566
-0.222657
-0.204891
-0.185177
-0.165584
-0.14955
-0.138949
-0.134457
-0.135927
-0.14328
-0.157122
-0.178139
-0.205677
-0.236622
-0.265732
-0.287208
-0.296255
-0.291265
-0.272605
-0.244143
-0.211194
-0.178624
-0.149592
-0.125453
-0.106316
-0.091685
-0.0809069
-0.0733839
-0.0686378
-0.0663227
-0.0662678
-0.0685129
-0.0732065
-0.0802812
-0.0890751
-0.0982375
-0.106062
-0.111032
-0.112267
-0.109701
-0.104183
-0.0967914
-0.0887187
-0.0809626
-0.0741933
-0.0687797
-0.0648888
-0.0625802
-0.0618655
-0.0627576
-0.0653364
-0.0698045
-0.0764679
-0.0855829
-0.0971085
-0.1105
-0.124666
-0.138115
-0.149212
-0.156491
-0.158898
-0.156041
-0.148404
-0.136782
-0.122361
-0.106602
-0.0904704
-0.0750261
-0.0603702
-0.047217
-0.0348555
-0.0242427
-0.0137222
-0.00523844
-0.209845
-0.198681
-0.189288
-0.179122
-0.166527
-0.152572
-0.138699
-0.127993
-0.121962
-0.12123
-0.125767
-0.135837
-0.152323
-0.175966
-0.2059
-0.238716
-0.26904
-0.29114
-0.300555
-0.295119
-0.275842
-0.246576
-0.212791
-0.179454
-0.14974
-0.124968
-0.105202
-0.0899251
-0.0784695
-0.0702252
-0.0647017
-0.0615352
-0.0605186
-0.0616435
-0.0650303
-0.0706632
-0.07803
-0.0859797
-0.0929833
-0.0976307
-0.0990754
-0.097216
-0.0928213
-0.0867422
-0.0800286
-0.0735825
-0.0680214
-0.0636987
-0.0607901
-0.0593738
-0.0594829
-0.0611567
-0.0645072
-0.0697744
-0.0773004
-0.0873695
-0.0999529
-0.114497
-0.129872
-0.144516
-0.156692
-0.164806
-0.167695
-0.16489
-0.156972
-0.144675
-0.129289
-0.112425
-0.0951661
-0.078672
-0.0630878
-0.0491513
-0.0361456
-0.0250249
-0.0141099
-0.00532975
-0.169142
-0.154252
-0.14424
-0.136577
-0.127772
-0.118861
-0.110262
-0.104518
-0.102758
-0.105545
-0.11303
-0.125789
-0.144907
-0.171094
-0.203246
-0.237717
-0.269092
-0.291772
-0.301508
-0.296066
-0.276529
-0.246873
-0.212678
-0.17897
-0.148908
-0.123759
-0.103559
-0.0877822
-0.0757625
-0.0668909
-0.0606731
-0.0567341
-0.0548392
-0.0549339
-0.0571111
-0.0613936
-0.0674048
-0.074188
-0.0803893
-0.0847014
-0.0863012
-0.0850376
-0.0816836
-0.0768057
-0.0713359
-0.0660964
-0.0616565
-0.058354
-0.0563696
-0.0557961
-0.0566846
-0.0590973
-0.0631747
-0.0691905
-0.0775202
-0.088476
-0.102045
-0.117674
-0.134204
-0.150012
-0.163263
-0.172243
-0.17566
-0.172941
-0.164871
-0.15199
-0.135712
-0.117805
-0.0994749
-0.0819821
-0.0655198
-0.050851
-0.0372512
-0.0256746
-0.0144157
-0.00539475
-0.132467
-0.11328
-0.10139
-0.0941072
-0.089058
-0.0845787
-0.08064
-0.0793788
-0.0815337
-0.0875891
-0.0979324
-0.113377
-0.135116
-0.163746
-0.197911
-0.2338
-0.266054
-0.289292
-0.2994
-0.294191
-0.274736
-0.245105
-0.210939
-0.177264
-0.147182
-0.121909
-0.101465
-0.085332
-0.072861
-0.0634554
-0.0566272
-0.0519974
-0.0493109
-0.048473
-0.0495441
-0.052576
-0.0573115
-0.0629783
-0.0683958
-0.0723604
-0.0740574
-0.0732373
-0.0708708
-0.0670732
-0.0627203
-0.0585738
-0.0551588
-0.0527963
-0.0516693
-0.0518802
-0.0534952
-0.0565954
-0.0613455
-0.0680484
-0.0771094
-0.0888684
-0.103333
-0.119957
-0.137565
-0.154486
-0.168793
-0.178662
-0.182656
-0.180029
-0.171983
-0.15862
-0.141539
-0.122671
-0.103345
-0.0849205
-0.0676431
-0.0523025
-0.0381658
-0.0261903
-0.0146405
-0.00543466
-0.100965
-0.0774943
-0.0624196
-0.0547449
-0.0515583
-0.0504106
-0.0503457
-0.053003
-0.0586445
-0.0677486
-0.0808815
-0.099013
-0.123345
-0.154283
-0.190225
-0.227274
-0.260222
-0.283949
-0.294472
-0.289682
-0.270621
-0.241411
-0.207699
-0.174443
-0.144657
-0.119503
-0.0989974
-0.0826472
-0.0698343
-0.0599862
-0.0526298
-0.0473902
-0.0439987
-0.0423286
-0.0424029
-0.0442896
-0.0478349
-0.0524385
-0.0570918
-0.0606989
-0.0624422
-0.06185
-0.0604856
-0.0576273
-0.0542547
-0.0510815
-0.0485883
-0.0470786
-0.0467346
-0.0476646
-0.0499463
-0.0536751
-0.0590357
-0.0663547
-0.0760633
-0.0885275
-0.10378
-0.12129
-0.139879
-0.157837
-0.173166
-0.183939
-0.188571
-0.185974
-0.178218
-0.164464
-0.146683
-0.126957
-0.106728
-0.0874541
-0.0694367
-0.0534941
-0.0388846
-0.0265713
-0.014786
-0.00545088
-0.076948
-0.0477898
-0.0291765
-0.0199147
-0.0171105
-0.0173942
-0.020244
-0.0260918
-0.0347257
-0.0466412
-0.0624761
-0.0832614
-0.110101
-0.143155
-0.180596
-0.218525
-0.251961
-0.276062
-0.287017
-0.282787
-0.264391
-0.235968
-0.203107
-0.170632
-0.141437
-0.116629
-0.096232
-0.0797957
-0.0667452
-0.0565427
-0.0487373
-0.0429655
-0.0389531
-0.0365472
-0.0357381
-0.0365898
-0.0390345
-0.0426305
-0.0465396
-0.0497856
-0.0515769
-0.0508476
-0.0506391
-0.0485378
-0.0460039
-0.0436816
-0.0420037
-0.0412554
-0.0416145
-0.0431931
-0.0460758
-0.0503686
-0.0562708
-0.0641273
-0.0743901
-0.08745
-0.103367
-0.121637
-0.141087
-0.159988
-0.176284
-0.187971
-0.19337
-0.190638
-0.183526
-0.169428
-0.151061
-0.130599
-0.109578
-0.0895529
-0.0708823
-0.0544161
-0.039404
-0.0268177
-0.0148543
-0.00544501
-0.0604819
-0.0263809
-0.00333232
0.00921833
0.0137962
0.0130605
0.0083499
0.000309681
-0.0107282
-0.0251222
-0.043485
-0.0667954
-0.0959597
-0.130851
-0.16946
-0.207961
-0.241657
-0.266002
-0.277369
-0.273786
-0.256283
-0.228976
-0.197329
-0.165966
-0.137628
-0.113371
-0.0932392
-0.0768379
-0.0636482
-0.0531749
-0.0449962
-0.0387658
-0.0342114
-0.0311615
-0.0295756
-0.0295079
-0.0309465
-0.0335925
-0.0367757
-0.039658
-0.0416514
-0.0433116
-0.0415064
-0.0398551
-0.0380229
-0.0364311
-0.0354615
-0.0353807
-0.0363601
-0.038513
-0.0419271
-0.0467149
-0.0530852
-0.061395
-0.072112
-0.0856489
-0.102097
-0.120984
-0.141158
-0.160884
-0.178069
-0.190665
-0.197125
-0.197795
-0.187946
-0.173412
-0.154598
-0.133541
-0.111857
-0.0911913
-0.0719651
-0.0550613
-0.0397222
-0.0269307
-0.014848
-0.00541872
-0.0131024
0.0142697
0.0309623
0.0388024
0.0389843
0.0339112
0.0248226
0.0121469
-0.00422574
-0.0247825
-0.050332
-0.0814982
-0.11785
-0.157241
-0.195979
-0.229692
-0.254155
-0.265859
-0.262968
-0.246548
-0.220655
-0.190543
-0.160582
-0.133337
-0.10981
-0.0900828
-0.0738269
-0.0605889
-0.0499236
-0.0414432
-0.0348235
-0.0298006
-0.0261914
-0.0239289
-0.0230512
-0.0235837
-0.0253415
-0.0278132
-0.0302871
-0.0322012
-0.033441
-0.0326638
-0.0315795
-0.0303534
-0.0293803
-0.029015
-0.0295079
-0.0310238
-0.0336746
-0.0375481
-0.0427592
-0.0495212
-0.058197
-0.0692639
-0.0831539
-0.0999892
-0.119339
-0.140085
-0.160501
-0.178473
-0.191895
-0.199121
-0.199468
-0.190795
-0.176288
-0.157224
-0.135734
-0.113531
-0.0923494
-0.0726744
-0.0554252
-0.0398392
-0.026912
-0.01477
-0.00537371
-0.00742231
0.0238058
0.0447378
0.0563271
0.058891
0.0549265
0.0459976
0.0326238
0.0149679
-0.00724451
-0.034556
-0.0672477
-0.104583
-0.144321
-0.18295
-0.216442
-0.240844
-0.252793
-0.25062
-0.235449
-0.211228
-0.182932
-0.15462
-0.128665
-0.106023
-0.0868213
-0.0708095
-0.0576067
-0.0468224
-0.0381072
-0.031163
-0.0257391
-0.0216478
-0.0188005
-0.0172155
-0.0169387
-0.0178752
-0.0196526
-0.021678
-0.0234004
-0.0244898
-0.024323
-0.0237511
-0.0230335
-0.022574
-0.0227137
-0.0236886
-0.0256578
-0.0287297
-0.0329896
-0.0385514
-0.0456276
-0.0545811
-0.0658927
-0.0800094
-0.0970857
-0.116737
-0.137891
-0.158846
-0.17748
-0.191637
-0.19953
-0.200097
-0.192268
-0.178012
-0.158892
-0.137144
-0.114577
-0.0930134
-0.0730041
-0.0555068
-0.0397571
-0.0267648
-0.0146238
-0.00531165
-0.0082364
0.0260133
0.0508642
0.066363
0.072042
0.0703136
0.0626645
0.0496024
0.0315132
0.00837279
-0.0200425
-0.0536451
-0.0914073
-0.131026
-0.169191
-0.202214
-0.226432
-0.238487
-0.237029
-0.223251
-0.200928
-0.174681
-0.148219
-0.123713
-0.102082
-0.0835095
-0.0678283
-0.0547352
-0.0438988
-0.0350104
-0.0278006
-0.0220369
-0.017533
-0.0141836
-0.0119863
-0.0109933
-0.0111768
-0.0122841
-0.0138362
-0.0153147
-0.0163433
-0.0165601
-0.0164055
-0.0160958
-0.0160508
-0.0166019
-0.0179715
-0.0203132
-0.0237304
-0.0283042
-0.0341444
-0.0414583
-0.0506024
-0.0620552
-0.076274
-0.0934445
-0.113233
-0.134623
-0.155956
-0.175116
-0.189914
-0.198447
-0.199511
-0.192419
-0.178569
-0.159577
-0.137749
-0.114981
-0.0931757
-0.0729522
-0.0553076
-0.0394799
-0.0264929
-0.0144134
-0.00523403
-0.0138856
0.0223442
0.0503279
0.0699816
0.07863
0.0796971
0.074193
0.0623848
0.0447654
0.021541
-0.00719505
-0.0410004
-0.078586
-0.117611
-0.154958
-0.187278
-0.211318
-0.223222
-0.222461
-0.210206
-0.189974
-0.165964
-0.141504
-0.118567
-0.0980461
-0.0801863
-0.0649088
-0.0519909
-0.0411622
-0.032157
-0.0247363
-0.0186884
-0.0138345
-0.0100577
-0.007335
-0.00571491
-0.00521531
-0.00568372
-0.00675157
-0.00795544
-0.00892645
-0.00940048
-0.00956842
-0.00956559
-0.00984294
-0.010719
-0.0124018
-0.0150387
-0.0187277
-0.0235448
-0.0295929
-0.0370701
-0.0463212
-0.0578158
-0.0720168
-0.0891388
-0.108903
-0.130357
-0.151901
-0.171444
-0.186783
-0.19594
-0.197623
-0.191268
-0.17796
-0.159272
-0.137539
-0.114734
-0.0928318
-0.0725183
-0.0548295
-0.0390115
-0.0260995
-0.0141423
-0.00514187
0.0144953
0.0447771
0.0697741
0.0793354
0.0833797
0.0805375
0.0707614
0.0544657
0.0320145
0.00377766
-0.0294956
-0.0662972
-0.104266
-0.140457
-0.17183
-0.19585
-0.207191
-0.207143
-0.196546
-0.178562
-0.15692
-0.13456
-0.113271
-0.0939285
-0.0768468
-0.0620358
-0.0493531
-0.0385897
-0.0295233
-0.0219454
-0.0156674
-0.0105222
-0.00638735
-0.00322046
-0.00105897
5.18956e-05
0.000184056
-0.000397628
-0.00130091
-0.00219014
-0.00289424
-0.00324998
-0.00345773
-0.00397529
-0.00509902
-0.00702033
-0.0098799
-0.0137709
-0.0187633
-0.0249518
-0.0325215
-0.0418008
-0.0532447
-0.067316
-0.0842548
-0.103838
-0.125188
-0.146775
-0.166554
-0.182329
-0.192076
-0.19444
-0.188862
-0.176212
-0.157986
-0.136518
-0.113837
-0.0919838
-0.0717059
-0.054077
-0.0383569
-0.0255881
-0.0138135
-0.00503506
0.00364718
0.0349601
0.0584191
0.0750589
0.0823051
0.0822559
0.0749709
0.0607122
0.0398314
0.012877
-0.0191663
-0.0546209
-0.0911172
-0.12582
-0.155951
-0.179886
-0.190497
-0.191339
-0.182541
-0.166911
-0.147702
-0.127483
-0.10788
-0.0897616
-0.0735123
-0.0592263
-0.0468369
-0.036195
-0.027121
-0.0194375
-0.0129796
-0.00759583
-0.00316398
0.000374473
0.002998
0.00464898
0.00533816
0.00523853
0.00466466
0.00391168
0.00315129
0.00255236
0.00222289
0.00153874
0.000232685
-0.00186214
-0.00487884
-0.00890636
-0.0140098
-0.0202746
-0.0278705
-0.0371053
-0.0484136
-0.0622527
-0.0788849
-0.0981435
-0.11923
-0.140697
-0.160563
-0.176665
-0.18695
-0.190019
-0.185262
-0.173376
-0.15576
-0.134722
-0.112325
-0.0906625
-0.0705417
-0.053072
-0.0375322
-0.0249694
-0.0134315
-0.00491271
-0.00894189
0.0229864
0.0480744
0.067113
0.0775692
0.0803384
0.0757321
0.0638573
0.0451503
0.0201549
-0.0100258
-0.0436138
-0.0782398
-0.111206
-0.139646
-0.160227
-0.173194
-0.175428
-0.168598
-0.155403
-0.138663
-0.120608
-0.102716
-0.0858563
-0.0704764
-0.0567511
-0.0446866
-0.0341935
-0.0251373
-0.0173722
-0.0107581
-0.00516295
-0.000470671
0.0033898
0.00641681
0.008553
0.00976344
0.0101368
0.00991147
0.00935471
0.00861516
0.00776855
0.00745591
0.00668329
0.00525659
0.00304742
-6.83772e-05
-0.00417441
-0.00933059
-0.0156131
-0.0231749
-0.0323002
-0.0433988
-0.0569162
-0.0731307
-0.0919297
-0.112599
-0.133787
-0.153595
-0.169911
-0.180679
-0.184449
-0.180548
-0.169523
-0.152668
-0.132229
-0.110276
-0.0889411
-0.0690871
-0.051864
-0.0365721
-0.0242683
-0.0130093
-0.00477381
-0.0213416
0.0114598
0.041392
0.0583256
0.070296
0.075533
0.0738857
0.0647977
0.0486207
0.0260398
-0.00187568
-0.0332962
-0.0658704
-0.0969322
-0.123742
-0.144937
-0.15569
-0.159231
-0.154577
-0.144033
-0.129913
-0.114115
-0.0979902
-0.0824181
-0.0679195
-0.054756
-0.0430121
-0.0326621
-0.0236198
-0.0157732
-0.00900581
-0.00320583
0.00172928
0.0058777
0.00926456
0.01185
0.0135665
0.0144115
0.0145282
0.0141584
0.0134334
0.0121951
0.0121882
0.0113857
0.00990105
0.00765041
0.00450629
0.000387146
-0.004762
-0.0110061
-0.018478
-0.0274342
-0.0382558
-0.0513747
-0.067084
-0.085324
-0.105462
-0.126242
-0.145851
-0.162237
-0.173351
-0.177743
-0.174755
-0.164696
-0.14875
-0.129072
-0.10771
-0.0868299
-0.0673497
-0.0504565
-0.0354865
-0.0234867
-0.0125618
-0.00460782
-0.00654545
0.0170265
0.0438116
0.0599019
0.0678497
0.0686234
0.0625862
0.0495942
0.0301576
0.00544315
-0.0228897
-0.0525985
-0.0811264
-0.105922
-0.121263
-0.137733
-0.142104
-0.139455
-0.131422
-0.119754
-0.106085
-0.0916772
-0.077425
-0.0639045
-0.0514408
-0.0401752
-0.0301302
-0.0212596
-0.0134801
-0.00669394
-0.000806915
0.00426256
0.00858655
0.0122159
0.0151477
0.0173078
0.018613
0.0190871
0.0188915
0.0181158
0.0153298
0.0166271
0.0157795
0.0142049
0.0119005
0.0087501
0.00466419
-0.00041856
-0.00656243
-0.0138874
-0.0226218
-0.0331099
-0.0457542
-0.0608493
-0.078384
-0.0978204
-0.118024
-0.137301
-0.153685
-0.165119
-0.170094
-0.167867
-0.158891
-0.143899
-0.12502
-0.104334
-0.0840255
-0.0650809
-0.0486429
-0.034157
-0.0225199
-0.0120731
-0.00437631
-0.00991723
0.0159161
0.0368547
0.0516001
0.0602142
0.0627268
0.0586054
0.0477084
0.0304356
0.00783296
-0.0182755
-0.0456597
-0.0719895
-0.0946678
-0.112813
-0.122083
-0.125114
-0.122291
-0.114845
-0.10436
-0.0922062
-0.0794299
-0.0667667
-0.0546874
-0.0434575
-0.0331989
-0.0239434
-0.0156654
-0.00830689
-0.00179219
0.00395228
0.00898553
0.0133594
0.0171247
0.0203062
0.022872
0.0247507
0.0259087
0.0264435
0.0266198
0.027356
0.0251582
0.023465
0.0215124
0.0189146
0.0155437
0.0113246
0.00621652
0.0001716
-0.00692302
-0.0152968
-0.0252983
-0.0373378
-0.0517362
-0.0685293
-0.0872491
-0.106857
-0.125782
-0.142159
-0.153982
-0.159584
-0.158527
-0.15003
-0.135904
-0.117943
-0.0982334
-0.0788935
-0.060956
-0.04539
-0.0318303
-0.0208514
-0.0112563
-0.00397865
-0.0177457
0.00362229
0.0223548
0.0360289
0.0443536
0.0472049
0.0443973
0.0359933
0.0224115
0.00457945
-0.0159708
-0.0372213
-0.0571773
-0.0743536
-0.0867545
-0.0947916
-0.0974509
-0.0956136
-0.0903183
-0.0825931
-0.0733761
-0.0634231
-0.0532959
-0.0433844
-0.0339395
-0.0251072
-0.0169582
-0.00951716
-0.00277495
0.00330015
0.00874493
0.013591
0.0178733
0.021636
0.0249048
0.0276446
0.0297622
0.0311704
0.031874
0.0320195
0.0318168
0.030638
0.0292525
0.0273903
0.0249217
0.0217096
0.0176831
0.0128118
0.00706146
0.000342888
-0.00753443
-0.016868
-0.0280198
-0.0412887
-0.0567365
-0.0739885
-0.092139
-0.10974
-0.125015
-0.136191
-0.141949
-0.141328
-0.134584
-0.122193
-0.106127
-0.0883896
-0.0709409
-0.054743
-0.0406935
-0.0284759
-0.0186116
-0.0100384
-0.00360298
-0.0246208
-0.00542482
0.0107124
0.0228176
0.0304647
0.0335225
0.0319366
0.0258314
0.0156502
0.00224471
-0.0131578
-0.0291633
-0.0443836
-0.0575319
-0.0676299
-0.074
-0.0765392
-0.0756736
-0.0720301
-0.0662878
-0.0591173
-0.0511047
-0.0427189
-0.034312
-0.0261317
-0.0183393
-0.0110294
-0.00425061
0.00198096
0.0076732
0.0128455
0.0175154
0.0216966
0.0254071
0.0286649
0.0314604
0.0337376
0.035415
0.0364449
0.0368602
0.0367318
0.035663
0.0341927
0.0322673
0.0297949
0.0266709
0.0228151
0.0181839
0.0127421
0.00642016
-0.000930007
-0.00954505
-0.0197211
-0.0317072
-0.0455552
-0.0609411
-0.0770866
-0.0927887
-0.106638
-0.117197
-0.123199
-0.12362
-0.118177
-0.107625
-0.0936449
-0.0780355
-0.0626109
-0.0482552
-0.0358156
-0.0249996
-0.0163219
-0.00877927
-0.00325629
-0.02998
-0.0132846
0.000758086
0.0115229
0.0186556
0.0220348
0.02164
0.0176196
0.0103709
0.00055605
-0.0109301
-0.0230538
-0.0346996
-0.0447268
-0.0525441
-0.0576814
-0.0599769
-0.0595935
-0.0569393
-0.0525085
-0.0468054
-0.0402835
-0.0333179
-0.0262017
-0.0191523
-0.0123219
-0.00581016
0.000321996
0.00604142
0.0113357
0.0162058
0.0206561
0.0246886
0.0283057
0.0315122
0.034303
0.0366444
0.0384683
0.0397003
0.0402925
0.0402141
0.0394295
0.0380939
0.0362423
0.0338559
0.0308728
0.0272327
0.0228963
0.0178342
0.0119963
0.00527457
-0.00251066
-0.0115911
-0.0221684
-0.0342974
-0.0477498
-0.0619391
-0.075919
-0.0885153
-0.0984228
-0.104401
-0.105421
-0.101275
-0.0924898
-0.0805895
-0.0671908
-0.053923
-0.0415425
-0.0308234
-0.0214811
-0.014039
-0.00754104
-0.00292691
-0.0343343
-0.0198308
-0.00750649
0.00214371
0.0088327
0.0124486
0.0129928
0.010609
0.00562132
-0.00144924
-0.00989542
-0.0188843
-0.0275633
-0.0351938
-0.041173
-0.045183
-0.04705
-0.0468514
-0.0448481
-0.041374
-0.0367826
-0.0314104
-0.0255529
-0.0194549
-0.0133093
-0.00726079
-0.00141216
0.00416727
0.00943332
0.0143607
0.0189376
0.0231591
0.0270197
0.0305119
0.0336278
0.0363572
0.0386779
0.0405445
0.0418916
0.0426556
0.042787
0.0422509
0.0411077
0.0394142
0.0371871
0.0344073
0.0310436
0.0270702
0.0224664
0.0171983
0.011188
0.00429682
-0.00366602
-0.0128849
-0.0234392
-0.0351771
-0.0476251
-0.0599786
-0.0712373
-0.0803054
-0.0861122
-0.0876541
-0.0846489
-0.0775433
-0.0677016
-0.0565178
-0.0454055
-0.0349894
-0.0259699
-0.0180749
-0.0118406
-0.00635364
-0.00260016
-0.0376633
-0.025026
-0.014172
-0.00550201
0.00074647
0.00447975
0.00571086
0.00457164
0.00133789
-0.00356407
-0.00958359
-0.0160944
-0.0224587
-0.0281437
-0.0326348
-0.0356632
-0.037076
-0.0368926
-0.0352628
-0.0324072
-0.0285802
-0.0240382
-0.0190175
-0.0137215
-0.0083163
-0.00293196
0.00233445
0.00741323
0.012256
0.0168303
0.0211156
0.0250988
0.0287686
0.0321121
0.0351146
0.0377605
0.0400297
0.0418909
0.0432991
0.044197
0.0445005
0.0442001
0.0433093
0.0418571
0.0398696
0.0373571
0.0343168
0.0307418
0.0266231
0.0219385
0.0166292
0.0105815
0.00363146
-0.00438803
-0.0135528
-0.0237349
-0.0345361
-0.0453165
-0.0552996
-0.0635705
-0.0691242
-0.0710036
-0.0689403
-0.0633472
-0.0554178
-0.0463291
-0.0372752
-0.0287444
-0.0213568
-0.0148481
-0.00976533
-0.00523712
-0.00228201
-0.040081
-0.0290482
-0.0194646
-0.0116611
-0.00583454
-0.00206116
-0.000321327
-0.000496794
-0.0023593
-0.00557391
-0.00971933
-0.014311
-0.0188567
-0.02298
-0.0262499
-0.028428
-0.0293728
-0.029074
-0.027618
-0.0251545
-0.0218665
-0.0179469
-0.0135794
-0.00892833
-0.00413334
0.000691639
0.00545716
0.0100953
0.0145559
0.0188025
0.0228092
0.0265569
0.0300303
0.0332134
0.0360887
0.0386371
0.0408369
0.0426623
0.0440847
0.0450859
0.045508
0.0454187
0.0447884
0.0436232
0.0419394
0.0397538
0.0370786
0.0339214
0.0302835
0.0261513
0.02148
0.0161769
0.0101085
0.00313811
-0.00479253
-0.0135802
-0.0229216
-0.0323355
-0.0411943
-0.0486739
-0.0538392
-0.0558586
-0.0545336
-0.0502665
-0.0440822
-0.0369312
-0.029783
-0.0229948
-0.0171131
-0.0118822
-0.00785784
-0.00421215
-0.00197724
-0.0417105
-0.0320603
-0.0235783
-0.0165392
-0.0111077
-0.00734801
-0.00524118
-0.00468838
-0.00550625
-0.00742798
-0.0101151
-0.0131832
-0.0163669
-0.0192174
-0.0214655
-0.0228981
-0.0233921
-0.0229197
-0.0215269
-0.0193119
-0.0164039
-0.0129461
-0.00908107
-0.00494149
-0.000644275
0.00371178
0.00804613
0.0122951
0.0164095
0.0203519
0.0240934
0.0276119
0.0308886
0.033906
0.0366453
0.0390861
0.0412062
0.0429808
0.0443803
0.0453537
0.045947
0.0460435
0.0456498
0.0447683
0.0434069
0.0415786
0.0392964
0.0365706
0.0334058
0.0297926
0.0256963
0.0210436
0.01573
0.00964831
0.00275515
-0.00487081
-0.012999
-0.021247
-0.0290723
-0.035731
-0.0404012
-0.0424141
-0.0416691
-0.0385602
-0.033933
-0.0285136
-0.0230654
-0.0178322
-0.0132968
-0.00921187
-0.00613599
-0.0032863
-0.00168889
-0.0426853
-0.0342232
-0.0266967
-0.0203335
-0.0152737
-0.0115735
-0.009218
-0.00812712
-0.00815336
-0.00908384
-0.0106387
-0.0124272
-0.0146075
-0.0164598
-0.0178625
-0.0186579
-0.0187413
-0.0180743
-0.0166759
-0.0146086
-0.0119637
-0.00884788
-0.00537181
-0.00164181
0.00224539
0.00620549
0.0101675
0.0140732
0.0178759
0.0215384
0.0250312
0.0283303
0.0314152
0.0342674
0.0368678
0.0391966
0.0412327
0.0429531
0.0443327
0.0453434
0.0459892
0.0462166
0.0460144
0.0453796
0.044315
0.0428283
0.0409282
0.0386212
0.0359077
0.0327755
0.0291931
0.0250997
0.0204152
0.0150615
0.00901469
0.00234372
-0.0047629
-0.0119814
-0.0188295
-0.0246516
-0.0287695
-0.0306993
-0.0304411
-0.0283487
-0.0250849
-0.0211711
-0.0171945
-0.0133079
-0.00994181
-0.00685812
-0.00461123
-0.00246474
-0.00142075
-0.0431258
-0.0356872
-0.0289908
-0.0232279
-0.0185182
-0.0149115
-0.012398
-0.0109143
-0.0103447
-0.0105292
-0.0112813
-0.0124706
-0.0134527
-0.0144347
-0.0151357
-0.015394
-0.0151132
-0.0142499
-0.0128066
-0.0108221
-0.00836059
-0.00550103
-0.00232878
0.00107141
0.00462005
0.00824575
0.0118866
0.0154902
0.0190132
0.02242
0.0256815
0.0287732
0.0316741
0.0343652
0.036828
0.0390437
0.0409931
0.0426557
0.0440101
0.0450353
0.0457235
0.0460471
0.045994
0.0455593
0.0447433
0.0435499
0.0419835
0.0400452
0.0377294
0.0350186
0.0318808
0.0282648
0.0241121
0.0193726
0.014042
0.00818747
0.00197555
-0.00430451
-0.0102219
-0.0152299
-0.0188212
-0.0206812
-0.0208696
-0.0196678
-0.0175683
-0.0149222
-0.0121788
-0.00942412
-0.00704678
-0.0048186
-0.00328129
-0.00174547
-0.00117436
-0.0431397
-0.0365839
-0.0306107
-0.0253819
-0.0210002
-0.0175102
-0.0149071
-0.0131421
-0.0121252
-0.01173
-0.0118006
-0.0121788
-0.0125696
-0.0129129
-0.0130537
-0.0128677
-0.0122724
-0.0112251
-0.00971906
-0.00777717
-0.0054438
-0.00277744
0.000156155
0.00328947
0.00655735
0.00989969
0.013263
0.0166007
0.0198733
0.0230476
0.0260954
0.028993
0.0317197
0.0342564
0.0365857
0.0386901
0.0405516
0.0421524
0.0434761
0.0445031
0.0452222
0.0456173
0.0456792
0.0454022
0.0447849
0.0438281
0.0425328
0.0408955
0.038907
0.0365471
0.033786
0.0305825
0.0268963
0.0226985
0.0180009
0.0128735
0.00747261
0.00205917
-0.00300172
-0.00729101
-0.0104612
-0.0123133
-0.0129181
-0.0124739
-0.0113319
-0.00971616
-0.00797506
-0.00614793
-0.00458816
-0.00307744
-0.00213678
-0.00112338
-0.000950636
-0.0428203
-0.0370271
-0.0316852
-0.026932
-0.0228561
-0.0194982
-0.0168576
-0.0148976
-0.0135487
-0.0127105
-0.0122613
-0.0120523
-0.0119223
-0.0117606
-0.011453
-0.010903
-0.0100416
-0.00882938
-0.00725507
-0.00533095
-0.00308763
-0.000568435
0.00217585
0.00509148
0.00812515
0.0112265
0.0143495
0.0174533
0.0205023
0.023466
0.0263179
0.0290354
0.0315986
0.0339892
0.0361906
0.0381869
0.0399619
0.0415002
0.0427864
0.0438042
0.0445432
0.0449916
0.0451416
0.0449875
0.0445267
0.0437573
0.0426774
0.041281
0.0395573
0.0374868
0.0350451
0.032201
0.0289294
0.0252178
0.0210903
0.0166197
0.0119514
0.00730768
0.00297451
-0.00074443
-0.00361737
-0.00550987
-0.0064801
-0.00664835
-0.0062612
-0.0054552
-0.00450686
-0.0034237
-0.00252738
-0.00160912
-0.0011627
-0.000590671
-0.000749353
-0.0422471
-0.037114
-0.0323243
-0.0279951
-0.0242034
-0.0209865
-0.0183472
-0.0162589
-0.0146674
-0.0134933
-0.0126434
-0.0119998
-0.0114462
-0.010882
-0.0102153
-0.00936877
-0.00828516
-0.00692952
-0.00528857
-0.00336805
-0.00118901
0.00121639
0.00380884
0.00654547
0.00938268
0.0122783
0.015193
0.018091
0.0209408
0.0237144
0.0263877
0.0289392
0.0313503
0.0336039
0.0356843
0.0375767
0.0392673
0.0407428
0.0419885
0.0429892
0.0437375
0.0442234
0.0444396
0.0443805
0.0440424
0.0434214
0.0425139
0.041312
0.0398054
0.0379771
0.0358086
0.0332786
0.0303743
0.0270958
0.0234749
0.0195821
0.0155438
0.0115371
0.00777798
0.00448447
0.00182116
-0.000122367
-0.00138307
-0.00201954
-0.00220321
-0.00201515
-0.00168021
-0.00118399
-0.000818236
-0.000383326
-0.000341268
-0.000138243
-0.000569637
-0.0414876
-0.036927
-0.0326209
-0.0286698
-0.0251413
-0.0220694
-0.0194599
-0.017294
-0.0155313
-0.0141118
-0.0129557
-0.0119789
-0.0110902
-0.0102063
-0.00925255
-0.00816592
-0.00689899
-0.0054214
-0.00371966
-0.00179556
0.000336471
0.00265241
0.00512167
0.0077099
0.0103814
0.0131008
0.0158345
0.0185517
0.0212241
0.0238269
0.0263378
0.0287373
0.031008
0.033134
0.0351009
0.0368952
0.0385043
0.0399162
0.0411218
0.0420995
0.0428477
0.0433575
0.0436223
0.0436358
0.0433933
0.0428899
0.0421206
0.0410773
0.0397505
0.0381264
0.0361923
0.0339348
0.0313504
0.0284473
0.0252599
0.0218517
0.0183271
0.0148241
0.0115055
0.00853266
0.00602344
0.00404619
0.00258035
0.00160853
0.00100805
0.000734682
0.000602496
0.000641101
0.000587224
0.000631538
0.000346198
0.000243381
-0.000410183
-0.0405987
-0.0365349
-0.0326527
-0.029039
-0.025753
-0.0228264
-0.0202668
-0.0180616
-0.0161825
-0.0145808
-0.013198
-0.0119667
-0.0108168
-0.00968114
-0.00849901
-0.00721929
-0.00580281
-0.00422358
-0.00246892
-0.000538361
0.00155813
0.00380241
0.00617047
0.00863462
0.0111655
0.0137334
0.0163098
0.0188678
0.0213828
0.0238323
0.0261966
0.0284576
0.0305993
0.0326075
0.0344688
0.0361707
0.0377018
0.0390515
0.0402099
0.0411652
0.041908
0.042432
0.0427312
0.0427992
0.0426307
0.04222
0.0415615
0.0406473
0.0394693
0.0380168
0.0362816
0.0342563
0.0319435
0.0293555
0.0265263
0.023511
0.0203952
0.0172868
0.0143098
0.0115863
0.00920568
0.00722306
0.00562789
0.00442654
0.00352967
0.00291709
0.00243313
0.00211788
0.00173495
0.00146599
0.000917948
0.000563454
-0.000269465
-0.0396274
-0.035995
-0.0324848
-0.0291717
-0.0261083
-0.023324
-0.0208282
-0.0186133
-0.0166567
-0.0149268
-0.0133755
-0.0119516
-0.0106002
-0.00926766
-0.00790523
-0.00647153
-0.00493439
-0.00327197
-0.00147289
0.000464381
0.00253284
0.00471854
0.00700241
0.00936196
0.0117729
0.0142102
0.0166496
0.0190677
0.021443
0.0237556
0.0259877
0.0281231
0.0301474
0.0320473
0.0338108
0.0354267
0.0368847
0.0381749
0.0392867
0.0402155
0.040948
0.0414785
0.041801
0.0419092
0.0417974
0.0414596
0.0408898
0.0400807
0.0390255
0.037716
0.0361475
0.0343167
0.03223
0.0299016
0.0273638
0.0246641
0.0218733
0.0190772
0.0163721
0.0138519
0.0115865
0.00962522
0.00795509
0.00660292
0.00549953
0.00464014
0.0038933
0.00330601
0.00266681
0.00214813
0.00139097
0.000830614
-0.000145878
-0.0386124
-0.0353549
-0.0321707
-0.0291253
-0.0262655
-0.023619
-0.0211966
-0.0189921
-0.0169902
-0.01517
-0.013496
-0.0119279
-0.0104226
-0.00893755
-0.007434
-0.00587864
-0.00424532
-0.00251599
-0.000680874
0.0012619
0.00330718
0.00544402
0.00765703
0.00992773
0.0122358
0.0145603
0.0168802
0.0191754
0.0214271
0.0236177
0.0257313
0.0277534
0.0296711
0.0314723
0.0331462
0.0346828
0.0360726
0.0373067
0.0383758
0.0392744
0.0399925
0.0405231
0.0408604
0.0409977
0.0409294
0.0406488
0.0401503
0.0394269
0.038473
0.0372823
0.0358527
0.0341839
0.0322843
0.0301691
0.0278685
0.0254237
0.0228943
0.020349
0.0178642
0.0155138
0.0133538
0.0114326
0.00972319
0.00827686
0.00703243
0.0059949
0.00505276
0.00425726
0.00341964
0.00270293
0.00178059
0.00105269
-3.78123e-05
-0.0375856
-0.0346535
-0.0317549
-0.028947
-0.0262722
-0.0237578
-0.021417
-0.0192282
-0.0172067
-0.0153286
-0.0135678
-0.0118935
-0.010272
-0.00867014
-0.00705724
-0.00540678
-0.0036978
-0.00191565
-5.22579e-05
0.00189408
0.00391935
0.00601468
0.00816741
0.0103622
0.0125818
0.0148085
0.0170243
0.0192117
0.0213542
0.0234364
0.0254441