/*--------------------------------*- C++ -*----------------------------------*\
  =========                 |
  \\      /  F ield         | OpenFOAM: The Open Source CFD Toolbox
   \\    /   O peration     | Website:  https://openfoam.org
    \\  /    A nd           | Version:  7
     \\/     M anipulation  |
\*---------------------------------------------------------------------------*/
FoamFile
{
    version     2.0;
    format      ascii;
    class       surfaceScalarField;
    location    "110.001";
    object      phi;
}
// * * * * * * * * * * * * * * * * * * * * * * * * * * * * * * * * * * * * * //

dimensions      [0 3 -1 0 0 0 0];

internalField   nonuniform List<scalar> 
7273
(
0.000111826
-0.00356556
0.000575514
-0.00217974
0.00102958
-0.000593568
0.0014669
0.0010807
0.00188351
0.00272106
0.00226962
0.0041864
0.00260595
0.0053677
0.00287518
0.00620534
0.00306821
0.00670833
0.00318528
0.00693563
0.00322734
0.00697728
0.00319016
0.00694784
0.00307787
0.0069484
0.00292402
0.00698494
0.0027909
0.00692173
0.00274047
0.00654475
0.00280108
0.00570059
0.0029613
0.00438712
0.00318983
0.00272775
0.00345592
0.000894639
0.00373266
-0.000930358
0.00399939
-0.00258874
0.00423726
-0.00394604
0.00443148
-0.00493181
0.00457464
-0.00555095
0.0046674
-0.00586692
0.00471579
-0.00596953
0.0047279
-0.00594629
0.004712
-0.00586386
0.00467492
-0.00576169
0.004619
-0.00566253
0.00454059
-0.00559154
0.00443398
-0.00557914
0.00429926
-0.00563357
0.00414767
-0.00570552
0.00399937
-0.00568354
0.00387542
-0.00543481
0.0037907
-0.00486488
0.0037523
-0.00395493
0.0037616
-0.00275963
0.00381618
-0.00138267
0.00390956
4.96581e-05
0.00403101
0.00141319
0.0041671
0.00260391
0.00430334
0.00355823
0.00442723
0.0042584
0.00453019
0.00472597
0.0046079
0.00500697
0.00465983
0.00515486
0.0046881
0.00521689
0.00469556
0.0052291
0.00468374
0.00522079
0.00465189
0.00522075
0.00459822
0.00525463
0.0045225
0.00533
0.00442796
0.00542053
0.0043211
0.0054642
0.00420969
0.00538223
0.00410069
0.00510745
0.00399971
0.00460587
0.00391157
0.00388152
0.00384099
0.00296914
0.00379231
0.00192497
0.00376882
0.000816359
0.003771
-0.00028108
0.00379701
-0.00130223
0.00384157
-0.00218411
0.00389783
-0.00290552
0.00395727
-0.00343153
0.00401313
-0.00381645
0.00405937
-0.00401111
0.00409209
-0.00416364
0.00410869
-0.00412413
0.00410402
-0.00418807
0.00407939
-0.00402537
0.00403057
-0.00410329
-0.00389789
-0.000339974
-0.00399562
0.000128385
-0.0026481
0.000616289
-0.00108147
0.0010968
0.000600187
0.00155801
0.00225985
0.0019918
0.00375261
0.00237714
0.00498235
0.00269562
0.00588686
0.00293613
0.00646782
0.00309521
0.00677655
0.00316982
0.00690267
0.00315745
0.00696021
0.00307203
0.00703383
0.00295767
0.00709929
0.00287806
0.00700134
0.00288475
0.00653806
0.00299207
0.00559328
0.00318028
0.00419891
0.00341676
0.00249126
0.00367368
0.000637725
0.00392977
-0.00118645
0.00416864
-0.00282761
0.0043749
-0.00415229
0.00453645
-0.00509336
0.00464823
-0.00566273
0.00471276
-0.00593145
0.00473713
-0.0059939
0.00472941
-0.00593857
0.00469706
-0.00583151
0.00464612
-0.00571075
0.00457882
-0.00559523
0.00449148
-0.0055042
0.00437732
-0.00546498
0.00423453
-0.00549079
0.0040731
-0.00554409
0.00391386
-0.0055243
0.00378032
-0.00530127
0.00368994
-0.0047745
0.003651
-0.003916
0.0036646
-0.00277323
0.00372714
-0.0014452
0.00383106
-5.42656e-05
0.00396403
0.00128022
0.00411207
0.00245586
0.00426022
0.00341008
0.0043957
0.00412291
0.00450972
0.00461195
0.00459785
0.00491884
0.0046596
0.0050931
0.00469715
0.00517934
0.00471333
0.00521292
0.00470959
0.00522452
0.00468531
0.00524503
0.00463905
0.00530089
0.00457094
0.00539812
0.00448416
0.0055073
0.00438459
0.00556377
0.00427896
0.00548786
0.00417335
0.00521306
0.00407296
0.00470625
0.00398275
0.00397173
0.00390794
0.00304395
0.0038535
0.00197942
0.00382345
0.000846412
0.00381894
-0.000276575
0.00383872
-0.00132201
0.00387793
-0.00222332
0.00392996
-0.00295755
0.00398614
-0.0034877
0.00403952
-0.00386984
0.00408371
-0.0040553
0.00411491
-0.00419483
0.00413057
-0.0041398
0.00412569
-0.00418318
0.00410167
-0.00400136
0.00405361
-0.00405523
-0.00383169
-0.000711781
-0.00438097
-0.000258494
-0.00310139
0.000238441
-0.00157841
0.000753194
8.54335e-05
0.00125249
0.00176056
0.00172918
0.00327591
0.00215952
0.00455202
0.00252421
0.00552217
0.00280964
0.00618239
0.00300826
0.00657792
0.00311455
0.00679639
0.00313023
0.00694453
0.00307934
0.00708471
0.00301303
0.00716561
0.0029917
0.00702267
0.00305482
0.00647493
0.00320438
0.00544371
0.00341441
0.00398888
0.00365288
0.0022528
0.00389648
0.000394127
0.00412873
-0.0014187
0.00433775
-0.00303664
0.00451105
-0.0043256
0.00463917
-0.00522148
0.00471936
-0.00574293
0.00475591
-0.005968
0.00475686
-0.00599484
0.00473023
-0.00591195
0.00468257
-0.00578385
0.00461895
-0.00564713
0.00454144
-0.00551772
0.00444654
-0.0054093
0.00432681
-0.00534524
0.00417846
-0.00534245
0.00400959
-0.00537521
0.00384097
-0.00535569
0.00369823
-0.00515853
0.00360165
-0.00467792
0.00356113
-0.00387548
0.0035777
-0.0027898
0.00364678
-0.00151428
0.00375972
-0.000167211
0.00390275
0.00113719
0.00406144
0.00229718
0.0042204
0.00325113
0.00436662
0.00397669
0.00449109
0.00448748
0.00458931
0.00482063
0.00466077
0.00502164
0.00470768
0.00513243
0.00473278
0.00518782
0.00473751
0.0052198
0.0047214
0.00526115
0.00468339
0.00533889
0.00462391
0.0054576
0.00454596
0.00558525
0.00445465
0.00565508
0.00435568
0.00558684
0.00425425
0.00531449
0.00415518
0.00480532
0.00406353
0.00406339
0.00398491
0.00312257
0.00392487
0.00203945
0.00388814
0.000883151
0.00387656
-0.000264999
0.00388951
-0.00133496
0.00392264
-0.00225645
0.00396969
-0.0030046
0.00402192
-0.00353993
0.00407226
-0.00392018
0.00411395
-0.00409699
0.0041432
-0.00422409
0.00415763
-0.00415423
0.00415234
-0.00417788
0.0041289
-0.00397793
0.00408176
-0.00400809
-0.0037667
-0.00098239
-0.0046855
-0.000567039
-0.00351674
-8.94977e-05
-0.00205595
0.000445492
-0.000449557
0.000974161
0.00123189
0.00148608
0.00276399
0.00195547
0.00408263
0.00236162
0.00511603
0.00268782
0.00585618
0.00292294
0.00634281
0.00306088
0.00665845
0.00310923
0.00689617
0.00310061
0.00709334
0.0030892
0.00717702
0.00312857
0.0069833
0.00324558
0.00635792
0.00343183
0.00525746
0.00365787
0.00376284
0.00389333
0.00201733
0.00412009
0.000167373
0.00432655
-0.00162517
0.00450459
-0.00321467
0.00464425
-0.00446525
0.00473862
-0.00531585
0.00478737
-0.00579167
0.00479647
-0.0059771
0.00477479
-0.00597317
0.00473028
-0.00586744
0.00466853
-0.00572209
0.00459349
-0.00557209
0.00450693
-0.00543116
0.00440577
-0.00530815
0.00428229
-0.00522176
0.00413086
-0.00519101
0.00395713
-0.00520148
0.00378096
-0.00517952
0.00362958
-0.00500715
0.00352615
-0.00457449
0.00348279
-0.00383212
0.0035009
-0.00280792
0.00357481
-0.00158819
0.00369496
-0.000287365
0.00384668
0.000985478
0.00401473
0.00212912
0.00418343
0.00308243
0.00433954
0.00382058
0.00447389
0.00435313
0.00458186
0.00471266
0.00466293
0.00494057
0.00471925
0.00507612
0.00475347
0.00515359
0.00476702
0.00520625
0.00475967
0.0052685
0.00473074
0.00536782
0.00468086
0.00550748
0.00461276
0.00565336
0.0045307
0.00573714
0.00443932
0.00567821
0.00434298
0.00541083
0.00424608
0.00490222
0.00415372
0.00415574
0.00407188
0.00320441
0.00400654
0.00210478
0.00396307
0.000926621
0.00394411
-0.000246031
0.00394965
-0.00134051
0.00397596
-0.00228276
0.00401725
-0.00304589
0.00406479
-0.00358747
0.00411144
-0.00396683
0.00415012
-0.00413567
0.00417698
-0.00425095
0.00418981
-0.00416707
0.00418382
-0.00417189
0.00416084
-0.00395495
0.00411473
-0.00396197
-0.00370293
-0.00112064
-0.00078308
-0.0038543
-0.000336562
-0.00250247
0.000178549
-0.000964668
0.000726942
0.000683496
0.00126443
0.0022265
0.00176555
0.00358151
0.00220686
0.00467472
0.00256861
0.00549443
0.00283719
0.00607424
0.00300786
0.00648777
0.00309458
0.00680946
0.00313565
0.00705226
0.00318411
0.00712856
0.00328432
0.00688309
0.00345115
0.00619109
0.00366836
0.00504025
0.00390469
0.00352651
0.004134
0.00178802
0.0043401
-3.87247e-05
0.00452045
-0.00180552
0.00466713
-0.00336136
0.004773
-0.00457113
0.00483375
-0.0053766
0.00485149
-0.00580941
0.00483393
-0.00595953
0.00479065
-0.00592989
0.00472939
-0.00580618
0.0046548
-0.0056475
0.00456964
-0.00548694
0.00447523
-0.00533674
0.00436899
-0.00520191
0.00424337
-0.00509614
0.00409118
-0.00503883
0.00391528
-0.00502558
0.00373369
-0.00499793
0.00357444
-0.00484789
0.00346356
-0.00446361
0.00341586
-0.00378442
0.0034337
-0.00282576
0.00351101
-0.0016655
0.00363623
-0.000412583
0.00379528
0.000826425
0.0039714
0.00195301
0.00414875
0.00290508
0.00431393
0.00365539
0.0044576
0.00420947
0.00457501
0.00459524
0.00466559
0.00484999
0.00473135
0.00501036
0.00477487
0.00511007
0.00479758
0.00518354
0.00479953
0.00526655
0.00478044
0.0053869
0.00474108
0.00554684
0.0046838
0.00571064
0.00461197
0.00580897
0.00452916
0.00576102
0.0044389
0.0055011
0.00434515
0.00499596
0.00425299
0.0042479
0.00416858
0.00328882
0.00409835
0.00217502
0.00404823
0.000976743
0.00402162
-0.000219418
0.00401923
-0.00133812
0.00403802
-0.00230155
0.00407274
-0.00308061
0.00411482
-0.00362955
0.0041571
-0.0040091
0.00419221
-0.00417079
0.00421618
-0.00427491
0.00422701
-0.0041779
0.00421998
-0.00416487
0.00419725
-0.00393221
0.00415221
-0.00391693
-0.00364039
-0.000878097
-0.00407235
-0.000504842
-0.00287572
-3.90308e-05
-0.00143048
0.000513323
0.000131142
0.00106405
0.00167578
0.00158818
0.00305737
0.00205754
0.00420536
0.0024496
0.00510237
0.00274955
0.00577429
0.00295538
0.00628194
0.00308641
0.00667843
0.00318329
0.00695539
0.00329444
0.00701741
0.00345381
0.00672372
0.00366568
0.00597923
0.00390792
0.00479801
0.00414974
0.00328469
0.00436855
0.00156922
0.0045548
-0.000224982
0.00470805
-0.00195876
0.00482353
-0.00347683
0.00489589
-0.00464349
0.00492341
-0.00540412
0.00491086
-0.00579686
0.0048677
-0.00591638
0.00480404
-0.00586622
0.00472727
-0.00572941
0.00464113
-0.00556136
0.00454719
-0.005393
0.00444612
-0.00523567
0.00433586
-0.00509166
0.00420946
-0.00496973
0.00405861
-0.00488798
0.00388323
-0.00485019
0.00369861
-0.00481331
0.0035326
-0.00468189
0.00341382
-0.00434482
0.00336021
-0.00373081
0.00337579
-0.00284134
0.0034543
-0.00174401
0.00358338
-0.000541666
0.00374798
0.000661834
0.00393081
0.00177017
0.00411576
0.00272013
0.00428921
0.00348194
0.00444165
0.00405703
0.00456821
0.00446868
0.00466818
0.00475002
0.00474342
0.00493511
0.00479637
0.00505712
0.00482854
0.00515137
0.00484029
0.0052548
0.00483172
0.00539547
0.0048037
0.00557486
0.00475813
0.00575621
0.00469748
0.00586962
0.00462426
0.00583424
0.00454113
0.00558423
0.00445163
0.00508546
0.00436067
0.00433886
0.00427451
0.00337498
0.00419991
0.00224962
0.00414332
0.00103333
0.00410892
-0.000185022
0.00409816
-0.00132736
0.00410877
-0.00231215
0.00413614
-0.00310798
0.00417198
-0.0036654
0.00420916
-0.00404628
0.00424013
-0.00420176
0.00426068
-0.00429546
0.00426906
-0.00418627
0.00426061
-0.00415642
0.00423784
-0.00390944
0.00419384
-0.00387292
-0.00357907
-0.000819525
-0.00413939
-0.000563732
-0.00313152
-0.000163687
-0.00183052
0.000342188
-0.000374733
0.000888529
0.00112944
0.00142311
0.00252279
0.00191235
0.00371612
0.00233006
0.00468466
0.00266063
0.00544371
0.00290508
0.0060375
0.00308586
0.00649765
0.00324261
0.00679864
0.00341667
0.00684335
0.00363151
0.00650888
0.00388271
0.00572802
0.00414468
0.00453604
0.00438798
0.0030414
0.00459456
0.00136263
0.00476046
-0.000390874
0.00488721
-0.00208551
0.00497206
-0.00356168
0.00501141
-0.00468283
0.00500634
-0.00539906
0.00496455
-0.00575507
0.00489714
-0.00584897
0.0048145
-0.00578359
0.00472356
-0.00563847
0.00462717
-0.00546497
0.00452576
-0.00529159
0.00441924
-0.00512915
0.00430596
-0.00497837
0.00417984
-0.00484362
0.00403209
-0.00474023
0.00385977
-0.00467788
0.00367474
-0.00462828
0.00350353
-0.00451068
0.00337667
-0.00421796
0.00331563
-0.00366977
0.00332687
-0.00285258
0.00340434
-0.00182148
0.00353553
-0.000672859
0.00370407
0.000493299
0.00389231
0.00158193
0.0040838
0.00252864
0.00426474
0.003301
0.00442544
0.00389634
0.00456086
0.00433326
0.0046701
0.00464078
0.00475482
0.0048504
0.00481732
0.00499462
0.0048592
0.00510948
0.00488118
0.00523283
0.00488371
0.00539294
0.00486774
0.00559083
0.0048347
0.00578925
0.00478612
0.00591819
0.00472349
0.00589687
0.0046486
0.00565912
0.0045645
0.00516957
0.00447586
0.0044275
0.00438888
0.00346196
0.0043105
0.00232799
0.00424782
0.00109602
0.00420561
-0.000142813
0.00418613
-0.00130787
0.00418797
-0.002314
0.00420728
-0.00312728
0.00423612
-0.00369424
0.00426748
-0.00407765
0.00429371
-0.00422799
0.00431031
-0.00431207
0.00431577
-0.00419173
0.00430548
-0.00414613
0.00428233
-0.00388629
0.00423927
-0.00382986
-0.00351893
-0.000583984
-0.00404633
-0.000479856
-0.00323564
-0.000192849
-0.00211753
0.00023505
-0.000802633
0.000749544
0.000614943
0.00127706
0.00199527
0.00177566
0.00321751
0.00221391
0.00424642
0.00257482
0.0050828
0.00286107
0.00575126
0.00309535
0.00626336
0.00331332
0.00658067
0.0035478
0.00660886
0.00381256
0.00624412
0.00409653
0.00544405
0.00437255
0.00426002
0.00461407
0.00279987
0.00480814
0.00116856
0.00495439
-0.000537124
0.00505578
-0.0021869
0.00511074
-0.00361664
0.00511777
-0.00468987
0.00508121
-0.0053625
0.0050116
-0.00568546
0.00492156
-0.00575893
0.00482155
-0.00568358
0.00471787
-0.00553479
0.00461252
-0.00535962
0.00450492
-0.00518399
0.00439414
-0.00501837
0.00427874
-0.00486297
0.00415374
-0.00471862
0.00401044
-0.00459692
0.00384347
-0.00451091
0.00366076
-0.00444557
0.00348634
-0.00433625
0.00335172
-0.00408335
0.00328188
-0.00359992
0.00328651
-0.00285722
0.00336096
-0.00189593
0.00349181
-0.00080371
0.00366288
0.000322236
0.00385518
0.00138962
0.0040522
0.00233163
0.00423988
0.00311332
0.00440833
0.00372788
0.00455233
0.00418926
0.0046707
0.0045224
0.00476487
0.00475624
0.00483699
0.0049225
0.0048888
0.00505768
0.00492134
0.00520029
0.00493546
0.00537882
0.00493213
0.00559417
0.0049123
0.00580908
0.00487663
0.00595386
0.00482556
0.00594794
0.00476004
0.00572464
0.00468254
0.00524707
0.00459733
0.00451271
0.00451065
0.00354864
0.00442942
0.00240922
0.00436073
0.00116471
0.00431102
-9.31029e-05
0.00428258
-0.00127943
0.00427522
-0.00230664
0.00428582
-0.00313789
0.00430696
-0.00371537
0.0043318
-0.00410249
0.00435269
-0.00424887
0.00436482
-0.0043242
0.00436689
-0.0041938
0.00435432
-0.00413356
0.00433039
-0.00386237
0.00428813
-0.0037876
-0.00345993
-0.000173318
-0.00381685
-0.000230276
-0.00317869
-9.2482e-05
-0.00225532
0.000228947
-0.00112406
0.000674195
0.000169696
0.00116924
0.00150023
0.00166155
0.0027252
0.00211229
0.00379568
0.00250145
0.00469364
0.00283034
0.00542237
0.00311874
0.00597496
0.00339592
0.00630349
0.00368566
0.00631912
0.00399324
0.00593655
0.0043029
0.00513439
0.00458757
0.00397535
0.00482455
0.00256289
0.0050056
0.000987512
0.00513339
-0.000664913
0.00521095
-0.00226446
0.00523731
-0.00364301
0.00521332
-0.00466588
0.00514677
-0.00529595
0.00505111
-0.0055898
0.00494029
-0.00564811
0.00482467
-0.00556795
0.00470974
-0.00541986
0.00459672
-0.0052466
0.00448415
-0.00507141
0.00437026
-0.00490448
0.0042536
-0.00474631
0.00413034
-0.00459536
0.00399243
-0.00445901
0.00383269
-0.00435118
0.00365499
-0.00426787
0.00347977
-0.00416104
0.00333831
-0.00394188
0.00325869
-0.00352031
0.00325455
-0.00285307
0.00332338
-0.00196476
0.00345195
-0.000932283
0.00362378
0.000150408
0.00381877
0.00119462
0.00402028
0.00213012
0.00421396
0.00291964
0.00438969
0.00355215
0.00454197
0.00403699
0.00466933
0.00439505
0.00477288
0.00465268
0.00485467
0.00484071
0.00491653
0.00499581
0.00495989
0.00515693
0.00498595
0.00535276
0.00499569
0.00558442
0.00498965
0.00581512
0.00496761
0.0059759
0.00492903
0.00598653
0.00487398
0.00577969
0.00480427
0.00531678
0.0047238
0.00459318
0.00463843
0.00363401
0.00455516
0.00249249
0.00448127
0.0012386
0.00442428
-3.61158e-05
0.00438679
-0.00124194
0.0043699
-0.00228976
0.00437129
-0.00313928
0.0043841
-0.00372818
0.00440176
-0.00412015
0.00441673
-0.00426385
0.00442389
-0.00433135
0.00442212
-0.00419204
0.00440684
-0.00411827
0.00438172
-0.00383724
0.00434003
-0.00374591
-0.00340201
0.00041721
-0.00347144
0.000204465
-0.00296594
0.000186343
-0.0022372
0.00036367
-0.00130139
0.00070044
-0.000167074
0.00113029
0.00107038
0.00159389
0.00226159
0.0020439
0.00334568
0.00245466
0.00428287
0.00282249
0.00505455
0.00316115
0.0056363
0.00349174
0.0059729
0.00382897
0.0059819
0.00417097
0.00559454
0.00449895
0.00480641
0.00478718
0.00368712
0.00501735
0.00233272
0.0051854
0.000819462
0.00529597
-0.000775482
0.00535111
-0.00231961
0.00535019
-0.00364209
0.00529663
-0.00461232
0.00520188
-0.0052012
0.00508222
-0.00547014
0.0049527
-0.00551859
0.00482334
-0.00543859
0.00469874
-0.00529526
0.00457931
-0.00512717
0.0044629
-0.00495501
0.004347
-0.00478858
0.00422992
-0.00462923
0.00410884
-0.00447427
0.00397685
-0.00432702
0.00382576
-0.00420009
0.00365555
-0.00409765
0.00348225
-0.00398774
0.00333549
-0.00379512
0.00324571
-0.00343053
0.00323082
-0.00283819
0.00329149
-0.00202542
0.00341544
-0.00105624
0.00358628
-2.0427e-05
0.00378246
0.000998437
0.00398743
0.00192515
0.00418638
0.00272069
0.00436889
0.00336965
0.00452914
0.00387674
0.0046653
0.00425888
0.00477816
0.00453982
0.0048696
0.00474927
0.00494159
0.00492383
0.00499591
0.00510261
0.0050341
0.00531457
0.00505723
0.00556129
0.00506539
0.00580696
0.00505759
0.0059837
0.00503233
0.00601178
0.0049888
0.00582323
0.0049281
0.00537747
0.00485357
0.00466772
0.00477075
0.00371683
0.00468637
0.00257687
0.00460797
0.001317
0.00454427
2.75831e-05
0.00449775
-0.00119542
0.00447122
-0.00226322
0.00446304
-0.0031311
0.00446701
-0.00373215
0.0044769
-0.00413004
0.00448543
-0.00427238
0.00448713
-0.00433305
0.00448111
-0.00418602
0.00446271
-0.00409987
0.00443596
-0.00381049
0.00439459
-0.00370454
-0.00334508
0.00110745
0.000801872
-0.00266036
0.000640548
-0.00207588
0.00066019
-0.00132103
0.000858727
-0.000365612
0.00119283
0.000736279
0.00160137
0.00185305
0.00203183
0.00291521
0.00245135
0.00386336
0.00284845
0.00465744
0.00322836
0.0052564
0.00360266
0.0055986
0.00397722
0.00560734
0.00434417
0.00522759
0.00468289
0.0044677
0.00496992
0.00340009
0.0051915
0.00211113
0.00534674
0.000664229
0.00544121
-0.000869958
0.00547507
-0.00235346
0.00544801
-0.00361503
0.0053664
-0.00453071
0.00524551
-0.0050803
0.00510417
-0.0053288
0.0049582
-0.00537262
0.00481709
-0.00529748
0.00468442
-0.00516259
0.00455981
-0.00500257
0.00444062
-0.00483581
0.00432371
-0.00467166
0.00420702
-0.00451255
0.00408847
-0.00435572
0.00396259
-0.00420115
0.00382103
-0.00405852
0.00366041
-0.00393703
0.00349187
-0.0038192
0.00334202
-0.00364527
0.00324245
-0.00333096
0.00321529
-0.00281103
0.00326543
-0.00207556
0.00338247
-0.00117328
0.00354947
-0.00018742
0.0037457
0.0008022
0.00395309
0.00171776
0.00415655
0.00251723
0.00434534
0.00318086
0.00451323
0.00370884
0.004658
0.00411412
0.00478004
0.00441777
0.00488108
0.00464824
0.00496318
0.00484172
0.00502849
0.0050373
0.0050789
0.00526416
0.00511553
0.00552466
0.00513815
0.00578434
0.00514503
0.00597682
0.00513381
0.00602301
0.00510276
0.00585428
0.00505223
0.00542799
0.00498491
0.00473505
0.00490584
0.0037959
0.00482152
0.00266119
0.00473982
0.0013987
0.0046691
9.83024e-05
0.00461427
-0.00114059
0.00457818
-0.00222714
0.00456025
-0.00311317
0.00455503
-0.00372694
0.00455667
-0.00413168
0.00455829
-0.00427399
0.00455411
-0.00432888
0.00454345
-0.00417536
0.00452157
-0.00407799
0.00449276
-0.00378168
0.00445142
-0.0036632
-0.00328908
0.00146647
-0.00232409
0.00121501
-0.00182442
0.00110333
-0.00120935
0.00116347
-0.00042575
0.00138044
0.000519305
0.00170894
0.00152456
0.00209758
0.00252657
0.00250752
0.00345342
0.00291854
0.00424642
0.00332577
0.00484916
0.00373064
0.00519373
0.00413042
0.00520756
0.00451203
0.00484597
0.00485382
0.0041259
0.00513516
0.00311875
0.00534653
0.00189977
0.00548967
0.000521084
0.00556862
-0.000948909
0.00558183
-0.00236667
0.00552954
-0.00356273
0.00542151
-0.00442269
0.00527677
-0.00493555
0.00511632
-0.00516835
0.00495632
-0.00521262
0.00480548
-0.00514664
0.00466634
-0.00502344
0.00453776
-0.00487399
0.00441674
-0.00471479
0.00429973
-0.00455465
0.00418421
-0.00439704
0.00406852
-0.00424003
0.00394869
-0.00408132
0.00381697
-0.0039268
0.00366753
-0.0037876
0.00350651
-0.00365818
0.0033563
-0.00349506
0.00324818
-0.00322283
0.00320791
-0.00277076
0.00324512
-0.00211277
0.00335283
-0.00128099
0.00351357
-0.00034816
0.00370821
0.00060756
0.00391682
0.00150915
0.00412399
0.00231006
0.0043185
0.00298635
0.00449368
0.00353366
0.0046468
0.003961
0.00477788
0.0042867
0.0048884
0.00453772
0.00498055
0.00474957
0.00505677
0.00496107
0.00511932
0.00520162
0.00516942
0.00547456
0.00520657
0.00574719
0.00522843
0.00595497
0.00523178
0.00601966
0.00521405
0.005872
0.00517478
0.00546727
0.00511587
0.00479395
0.00504182
0.00386994
0.00495868
0.00274433
0.00487482
0.00148257
0.00479762
0.000175499
0.00473506
-0.00107803
0.00468968
-0.00218176
0.004662
-0.00308548
0.00464739
-0.00371233
0.00464043
-0.00412471
0.00463474
-0.00426831
0.00462432
-0.00431846
0.0046087
-0.00415974
0.00458302
-0.0040523
0.00455177
-0.00375044
0.00451013
-0.00362157
-0.00323391
0.00212229
-0.00201206
0.00184448
-0.00154661
0.00165215
-0.00101703
0.00159793
-0.000371529
0.00169614
0.000421095
0.0019284
0.0012923
0.00225433
0.00220063
0.00263401
0.00307374
0.00303986
0.00384057
0.00345709
0.00443193
0.00387696
0.00477387
0.00428854
0.00479598
0.00467409
0.00446042
0.00501151
0.00378848
0.00528316
0.0028471
0.00548333
0.0016996
0.00561404
0.000390378
0.00567777
-0.00101264
0.00567044
-0.00235935
0.00559366
-0.00348595
0.00546097
-0.00429
0.00529492
-0.00476951
0.00511816
-0.00499159
0.00494665
-0.00504112
0.00478813
-0.00498812
0.00464408
-0.0048794
0.0045127
-0.00474261
0.00439073
-0.00459282
0.00427441
-0.00443833
0.0041608
-0.00428343
0.00404831
-0.00412755
0.00393432
-0.00396733
0.00381231
-0.00380478
0.00367502
-0.00365031
0.00352395
-0.00350712
0.00337642
-0.00334752
0.00326182
-0.00310823
0.00320848
-0.00271742
0.00323097
-0.00213526
0.00332635
-0.00137637
0.00347905
-0.000500859
0.00366989
0.000416714
0.00387835
0.0013007
0.0040883
0.00210011
0.00428792
0.00278673
0.00446997
0.00335161
0.00463118
0.00379979
0.00477108
0.0041468
0.00489093
0.00441786
0.00499297
0.00464753
0.00507995
0.0048741
0.00515443
0.00512714
0.0052178
0.00541118
0.00526938
0.0056956
0.0053063
0.00591804
0.00532461
0.00600135
0.00532089
0.00587572
0.0052938
0.00549437
0.00524449
0.00484326
0.00517663
0.0039378
0.00509596
0.002825
0.00501062
0.00156791
0.00492863
0.00025749
0.00485872
-0.00100812
0.00480447
-0.00212752
0.00476723
-0.00304823
0.00474322
-0.00368833
0.00472744
-0.00410893
0.00471417
-0.00425504
0.00469722
-0.00430151
0.00467637
-0.00413889
0.00464663
-0.00402256
0.00461261
-0.00371641
0.00457034
-0.0035793
-0.00317946
0.00270096
-0.00175595
0.00245156
-0.00129721
0.00223963
-0.000805099
0.00211753
-0.000249425
0.00211785
0.000420774
0.00225297
0.00115717
0.00250254
0.00195107
0.00283315
0.00274313
0.00321422
0.0034595
0.00362292
0.00402324
0.00404131
0.00435547
0.00445095
0.00438634
0.00482996
0.00408141
0.00515614
0.00346231
0.00541472
0.00258852
0.00560243
0.00151189
0.00572042
0.000272386
0.00576823
-0.00106044
0.00573996
-0.00233108
0.00563933
-0.00338532
0.00548394
-0.00413461
0.00529943
-0.004585
0.00510932
-0.00480148
0.00492889
-0.00486068
0.00476471
-0.00482393
0.00461728
-0.00473197
0.00448421
-0.00460953
0.00436208
-0.00447069
0.00424713
-0.00432339
0.00413609
-0.00417238
0.00402718
-0.00401865
0.00391879
-0.00385894
0.003806
-0.00369199
0.0036812
-0.0035255
0.003542
-0.00336793
0.00340022
-0.00320574
0.0032819
-0.00298991
0.00321653
-0.00265205
0.00322323
-0.00214197
0.00330396
-0.00145709
0.00344602
-0.000642919
0.00363091
0.000231823
0.00383759
0.00109402
0.00404924
0.00188846
0.00425327
0.0025827
0.0044417
0.00316317
0.00461065
0.00363085
0.00475912
0.00399832
0.0048881
0.00428888
0.00499983
0.0045358
0.0050973
0.00477663
0.00518338
0.00504105
0.00525968
0.00533489
0.00532541
0.00562987
0.00537731
0.00586615
0.00541075
0.0059679
0.00542153
0.00586495
0.00540744
0.00550846
0.00536871
0.00488199
0.0053083
0.00399821
0.00523136
0.00290194
0.0051456
0.00165367
0.00506011
0.000342982
0.00498368
-0.000931688
0.00492121
-0.00206505
0.00487479
-0.00300181
0.00484155
-0.00365509
0.00481691
-0.00408428
0.00479589
-0.00423402
0.00477221
-0.00427783
0.00474594
-0.00411263
0.00471196
-0.00398857
0.00467489
-0.00367934
0.00463167
-0.00353608
-0.00312566
0.00316088
0.00296931
-0.00110564
0.00278918
-0.000624973
0.00265604
-0.000116286
0.00259953
0.000477288
0.002656
0.0011007
0.00282848
0.00177859
0.00309796
0.00247365
0.0034375
0.00311996
0.00382033
0.00364041
0.00422151
0.00395429
0.00461624
0.00399161
0.00497919
0.00371846
0.00528823
0.00315326
0.00553078
0.00234597
0.00570473
0.00133794
0.00580908
0.000168036
0.00583943
-0.00109079
0.00578939
-0.00228105
0.00566564
-0.00326157
0.00548985
-0.00395882
0.00529001
-0.00438516
0.00508969
-0.00460115
0.00490294
-0.00467393
0.00473505
-0.00465605
0.00458569
-0.00458261
0.00445197
-0.00447582
0.00433042
-0.00434915
0.00421741
-0.00421037
0.00410948
-0.00406445
0.00400455
-0.00391372
0.00390157
-0.00375595
0.0037973
-0.00358773
0.00368473
-0.00341293
0.00355868
-0.00324187
0.00342547
-0.00307253
0.00330663
-0.00287107
0.00323122
-0.00257664
0.0032221
-0.00213284
0.00328634
-0.00152134
0.00341514
-0.000771716
0.00359171
5.52532e-05
0.00379471
0.000891014
0.00400678
0.00167639
0.00421433
0.00237516
0.00440856
0.00296894
0.00458483
0.00345458
0.00474157
0.00384158
0.00487942
0.00415103
0.00500057
0.00441465
0.00510819
0.00466902
0.00520546
0.00494379
0.00529419
0.00524616
0.00537363
0.00555043
0.00544022
0.00579956
0.00548879
0.00591933
0.00551437
0.00583937
0.0055139
0.00550892
0.00548668
0.00490921
0.00543477
0.00405012
0.00536273
0.00297398
0.0052782
0.0017382
0.00519004
0.000431137
0.00510833
-0.00084998
0.00503848
-0.0019952
0.00498349
-0.00294682
0.00494138
-0.00361298
0.00490799
-0.0040509
0.00487918
-0.0042052
0.00484866
-0.00424731
0.00481686
-0.00408083
0.00477852
-0.00395023
0.00473823
-0.00363905
0.00469372
-0.00349156
-0.0030724
0.00337576
-0.000975081
0.00324912
-0.000498332
0.00314285
-1.00134e-05
0.00307883
0.000541303
0.00309284
0.00108669
0.00320423
0.00166721
0.00341214
0.00226574
0.00370016
0.00283194
0.00404346
0.00329711
0.00441392
0.00358382
0.00478251
0.00362302
0.00512139
0.00337958
0.0054085
0.00286616
0.00563251
0.00212196
0.00579082
0.00117962
0.00587962
7.92441e-05
0.00589034
-0.00110152
0.00581759
-0.00220829
0.00567179
-0.00311577
0.00547836
-0.0037654
0.00526665
-0.00417345
0.00505935
-0.00439384
0.00486886
-0.00448344
0.00469914
-0.00448633
0.00454916
-0.00443262
0.00441576
-0.00434241
0.00429545
-0.00422884
0.00418482
-0.00409974
0.00408044
-0.00396008
0.00397986
-0.00381313
0.00388217
-0.00365827
0.00378565
-0.00349121
0.00368462
-0.0033119
0.00357228
-0.00312953
0.00344999
-0.00295024
0.00333395
-0.00275503
0.00325127
-0.00249396
0.0032273
-0.00210887
0.00327408
-0.00156813
0.00338738
-0.000885015
0.00355312
-0.000110482
0.00375023
0.000693901
0.00396112
0.0014655
0.00417109
0.0021652
0.00437037
0.00276966
0.00455345
0.0032715
0.00471809
0.00367694
0.0048645
0.00400462
0.00499474
0.00428441
0.00511211
0.00455165
0.00522004
0.00483585
0.00532061
0.00514558
0.00541317
0.00545788
0.00549398
0.00571874
0.00555747
0.00585584
0.00559796
0.00579888
0.00561157
0.00549531
0.0055966
0.00492418
0.00555422
0.0040925
0.00548816
0.00304005
0.00540626
0.0018201
0.00531691
0.000520495
0.00523111
-0.000764187
0.00515489
-0.00191898
0.00509208
-0.00288401
0.00504165
-0.00356254
0.00499981
-0.00400906
0.0049633
-0.00416869
0.00492593
-0.00420994
0.00488856
-0.00404347
0.00484582
-0.00390749
0.00480223
-0.00359546
0.00475613
-0.00344546
-0.00301962
0.0036652
-0.000897777
0.00360016
-0.000433295
0.00354246
4.76834e-05
0.00350535
0.000578419
0.0035119
0.00108014
0.00358964
0.00158946
0.00374949
0.0021059
0.00398644
0.00259499
0.00428323
0.00300032
0.00461362
0.00325343
0.00494754
0.0032891
0.00525611
0.00307101
0.00551744
0.00260484
0.00572054
0.00191886
0.00586052
0.00103964
0.00593125
8.51157e-06
0.00591937
-0.00108964
0.00582304
-0.00211196
0.00565677
-0.0029495
0.00544899
-0.00355762
0.00522912
-0.00395358
0.00501807
-0.00418279
0.00482626
-0.00429164
0.00465641
-0.00431648
0.00450701
-0.00428322
0.0043748
-0.0042102
0.00425636
-0.0041104
0.00414853
-0.00399191
0.00404807
-0.00385962
0.00395221
-0.00371727
0.00385986
-0.00356592
0.0037704
-0.00340174
0.00367991
-0.00322141
0.00358125
-0.00303088
0.00347165
-0.00284064
0.00336159
-0.00264497
0.00327484
-0.00240721
0.00323794
-0.00207197
0.00326741
-0.00159759
0.00336404
-0.000981648
0.00351588
-0.000262318
0.00370502
0.00050476
0.00391282
0.00125769
0.0041238
0.00195422
0.00432714
0.00256631
0.00451636
0.00308228
0.00468842
0.00350488
0.00484301
0.00385003
0.00498198
0.00414544
0.00510865
0.00442498
0.00522668
0.00471782
0.0053384
0.00503386
0.00544336
0.00535292
0.00553779
0.00562431
0.00561579
0.00577784
0.0056711
0.00574357
0.00569904
0.00546737
0.00569691
0.00492631
0.00566485
0.00412456
0.0056061
0.0030988
0.00552774
0.00189846
0.0054392
0.000609032
0.00535047
-0.000675453
0.00526903
-0.00183754
0.00519934
-0.00281432
0.00514127
-0.00350448
0.00509145
-0.00395924
0.00504746
-0.00412471
0.00500334
-0.00416582
0.00496044
-0.00400056
0.00491333
-0.00386037
0.00486646
-0.0035486
0.00481851
-0.00339751
-0.00296728
0.00384906
-0.000860311
0.00383401
-0.000418245
0.00382927
5.24201e-05
0.00384057
0.000567124
0.00387191
0.0010488
0.00394459
0.00151678
0.00407648
0.001974
0.00427327
0.0023982
0.0045252
0.00274838
0.0048121
0.00296653
0.00510673
0.00299447
0.00538131
0.00279643
0.00561429
0.00237185
0.00579383
0.00173932
0.00591398
0.000919492
0.0059619
-3.94128e-05
0.00592506
-0.0010528
0.0058045
-0.00199139
0.00561986
-0.00276486
0.00540129
-0.00333906
0.00517689
-0.00372917
0.00496502
-0.00397092
0.00477403
-0.00410064
0.00460555
-0.00414801
0.00445784
-0.0041355
0.00432771
-0.00408008
0.00421185
-0.00399453
0.00410731