/*--------------------------------*- C++ -*----------------------------------*\
  =========                 |
  \\      /  F ield         | OpenFOAM: The Open Source CFD Toolbox
   \\    /   O peration     | Website:  https://openfoam.org
    \\  /    A nd           | Version:  7
     \\/     M anipulation  |
\*---------------------------------------------------------------------------*/
FoamFile
{
    version     2.0;
    format      ascii;
    class       volScalarField;
    location    "5";
    object      p;
}
// * * * * * * * * * * * * * * * * * * * * * * * * * * * * * * * * * * * * * //

dimensions      [0 2 -2 0 0 0 0];

internalField   nonuniform List<scalar> 
1360
(
0.00385453
0.00273596
0.00184808
0.000946272
5.78888e-05
-0.00080129
-0.00162524
-0.00240686
-0.00314059
-0.00382198
-0.00444757
-0.00501472
-0.00552149
-0.00596652
-0.00634888
-0.00666798
-0.00692347
-0.00711517
-0.00724303
-0.00730691
0.00371083
0.00266425
0.00182821
0.000977052
0.000136317
-0.000678855
-0.00146244
-0.00220741
-0.00290816
-0.00356016
-0.00415982
-0.00470433
-0.00519158
-0.00562001
-0.00598852
-0.00629636
-0.00654303
-0.00672822
-0.00685179
-0.00691354
0.00356537
0.0025868
0.00179993
0.000997036
0.000201919
-0.000570928
-0.00131552
-0.00202491
-0.00269353
-0.00331679
-0.00389098
-0.00441316
-0.00488108
-0.00529303
-0.00564775
-0.00594434
-0.00618217
-0.00636084
-0.0064801
-0.00653971
0.00341943
0.00250501
0.0017647
0.00100772
0.000256203
-0.000476017
-0.00118301
-0.00185798
-0.00249536
-0.00309056
-0.0036398
-0.00414004
-0.0045889
-0.00498454
-0.00532557
-0.00561097
-0.00584
-0.00601215
-0.00612711
-0.00618459
0.00327411
0.00242006
0.00172382
0.00101045
0.000300527
-0.000392762
-0.00106358
-0.00170529
-0.00231239
-0.00288028
-0.00340514
-0.00388387
-0.00431399
-0.00469355
-0.00502105
-0.00529536
-0.00551564
-0.00568131
-0.00579198
-0.00584733
0.00313031
0.002333
0.00167839
0.0010064
0.000336116
-0.000319927
-0.000956007
-0.00156564
-0.00214343
-0.00268479
-0.0031859
-0.00364361
-0.00405535
-0.00441909
-0.00473326
-0.00499661
-0.00520824
-0.00536749
-0.00547391
-0.00552715
0.00298877
0.00224471
0.00162941
0.000996628
0.000364067
-0.000256393
-0.000859154
-0.00143792
-0.00198739
-0.00250305
-0.00298107
-0.00341826
-0.00381203
-0.00416027
-0.00446133
-0.00471389
-0.00491699
-0.00506989
-0.00517211
-0.00522326
0.0028501
0.00215594
0.00157774
0.000982071
0.000385364
-0.000201143
-0.000771997
-0.0013211
-0.00184327
-0.00233406
-0.00278967
-0.0032069
-0.00358313
-0.00391621
-0.00420441
-0.00444639
-0.00464109
-0.00478774
-0.00488582
-0.00493491
0.00271477
0.00206734
0.0015241
0.000963547
0.000400886
-0.000153261
-0.000693597
-0.00121423
-0.00171012
-0.00217689
-0.00261079
-0.00300864
-0.0033678
-0.00368607
-0.00396171
-0.0041933
-0.00437977
-0.00452028
-0.00461429
-0.00466135
0.00258316
0.00197942
0.00146913
0.000941774
0.000411416
-0.00011192
-0.000623102
-0.00111645
-0.00158707
-0.00203068
-0.00244359
-0.00282265
-0.00316521
-0.00346907
-0.00373244
-0.00395389
-0.00413229
-0.00426679
-0.0043568
-0.00440187
0.00245553
0.00189265
0.00141338
0.000917383
0.000417648
-7.63774e-05
-0.000559734
-0.00102696
-0.00147332
-0.00189463
-0.00228727
-0.00264814
-0.0029746
-0.00326445
-0.00351588
-0.00372743
-0.00389795
-0.00402657
-0.00411267
-0.00415579
0.00233209
0.00180736
0.00135732
0.000890921
0.000420199
-4.59643e-05
-0.00050279
-0.000945035
-0.00136812
-0.00176798
-0.00214109
-0.00248438
-0.00279525
-0.00307149
-0.00331131
-0.00351322
-0.00367607
-0.00379894
-0.00388123
-0.00392244
0.00221298
0.00172386
0.00130132
0.000862864
0.000419614
-2.00824e-05
-0.000451629
-0.000870004
-0.00127079
-0.00165005
-0.00200435
-0.00233067
-0.00262645
-0.00288952
-0.00311807
-0.00331061
-0.00346598
-0.00358327
-0.00366183
-0.00370119
0.00209826
0.00164238
0.00124571
0.000833621
0.000416373
1.8042e-06
-0.000405673
-0.000801257
-0.00118069
-0.00154019
-0.00187639
-0.00218635
-0.00246757
-0.00271789
-0.00293551
-0.00311897
-0.00326707
-0.00337892
-0.00345386
-0.00349141
0.00198796
0.00156308
0.00119077
0.000803544
0.000410898
2.01744e-05
-0.000364399
-0.000738237
-0.00109726
-0.0014378
-0.00175661
-0.00205083
-0.00231799
-0.00255598
-0.00276303
-0.00293768
-0.00307874
-0.00318531
-0.00325673
-0.00329252
0.00188206
0.00148611
0.0011367
0.000772935
0.000403559
3.54553e-05
-0.000327334
-0.000680437
-0.00101994
-0.00134232
-0.00164444
-0.00192351
-0.00217713
-0.00240322
-0.00260006
-0.00276617
-0.00290041
-0.00300186
-0.00306987
-0.00310395
0.00178053
0.00141155
0.0010837
0.000742049
0.00039468
4.80271e-05
-0.00029405
-0.000627392
-0.000948254
-0.00125325
-0.00153935
-0.00180386
-0.00204444
-0.00225907
-0.00244603
-0.0026039
-0.00273153
-0.00282802
-0.00289272
-0.00292515
0.00168328
0.00133945
0.00103189
0.0007111
0.000384541
5.82277e-05
-0.000264164
-0.000578679
-0.000881742
-0.00117011
-0.00144085
-0.00169138
-0.00191942
-0.00212299
-0.00230043
-0.00245034
-0.00257159
-0.00266328
-0.00272477
-0.00275561
0.00159022
0.00126984
0.00098138
0.000680268
0.000373389
6.63572e-05
-0.000237328
-0.000533913
-0.000819988
-0.00109245
-0.00134848
-0.00158559
-0.00180157
-0.00199451
-0.00216277
-0.002305
-0.00242007
-0.00250713
-0.00256553
-0.00259481
0.00150121
0.00120273
0.000932247
0.0006497
0.000361433
7.26815e-05
-0.00021323
-0.000492742
-0.00076261
-0.00101986
-0.00126181
-0.00148605
-0.00169044
-0.00187315
-0.00203257
-0.00216739
-0.00227652
-0.00235909
-0.0024145
-0.00244229
0.00141612
0.00113808
0.000884543
0.000619518
0.000348856
7.7436e-05
-0.000191588
-0.000454847
-0.000709255
-0.000951979
-0.00118044
-0.00139234
-0.00158561
-0.00175848
-0.00190939
-0.00203708
-0.00214046
-0.00221872
-0.00227124
-0.00229758
0.0013348
0.00107586
0.000838298
0.000589819
0.000335814
8.08285e-05
-0.00017215
-0.000419936
-0.000659599
-0.000888442
-0.001104
-0.00130407
-0.00148667
-0.00165008
-0.00179281
-0.00191362
-0.00201148
-0.00208557
-0.0021353
-0.00216025
0.00125708
0.00101601
0.000793528
0.000560679
0.000322441
8.30425e-05
-0.000154689
-0.000387744
-0.000613345
-0.000828927
-0.00103214
-0.00122087
-0.00139323
-0.00154756
-0.00168243
-0.00179662
-0.00188915
-0.00195922
-0.00200627
-0.00202987
0.00118281
0.000958477
0.000750233
0.000532159
0.00030885
8.42396e-05
-0.000139
-0.000358029
-0.000570219
-0.000773133
-0.000964539
-0.00114241
-0.00130495
-0.00145055
-0.00157786
-0.00168569
-0.00177309
-0.00183929
-0.00188375
-0.00190606
0.00111181
0.000903189
0.000708402
0.000504303
0.000295138
8.45621e-05
-0.0001249
-0.000330572
-0.000529969
-0.000720782
-0.000900888
-0.00106836
-0.00122148
-0.00135871
-0.00147874
-0.00158045
-0.00166291
-0.00172539
-0.00176736
-0.00178841
0.00104396
0.000850077
0.000668016
0.000477143
0.000281384
8.41349e-05
-0.000112223
-0.000305171
-0.000492362
-0.000671613
-0.000840909
-0.000998419
-0.0011425
-0.00127169
-0.00138474
-0.00148056
-0.00155827
-0.00161716
-0.00165673
-0.00167658
0.000979132
0.000799072
0.000629048
0.0004507
0.000267656
8.30677e-05
-0.000100821
-0.000281643
-0.000457186
-0.000625387
-0.000784338
-0.000932302
-0.00106771
-0.00118919
-0.00129552
-0.00138568
-0.00145882
-0.00151426
-0.00155151
-0.0015702
0.00091719
0.000750094
0.000591466
0.000424986
0.000254009
8.14562e-05
-9.05614e-05
-0.000259822
-0.000424243
-0.000581879
-0.000730928
-0.000869743
-0.00099684
-0.0011109
-0.00121078
-0.0012955
-0.00136424
-0.00141636
-0.00145138
-0.00146895
0.000857988
0.000703061
0.000555228
0.000400004
0.000240487
7.93839e-05
-8.13242e-05
-0.000239555
-0.000393351
-0.000540883
-0.000680448
-0.000810492
-0.00092961
-0.00103655
-0.00113023
-0.00120971
-0.00127422
-0.00132313
-0.001356
-0.0013725
0.000801372
0.000657884
0.000520288
0.000375749
0.000227127
7.69236e-05
-7.3002e-05
-0.000220702
-0.000364343
-0.000502203
-0.000632682
-0.000754314
-0.000865772
-0.000965874
-0.00105359
-0.00112803
-0.00118845
-0.00123429
-0.00126509
-0.00128055
0.000747191
0.000614473
0.000486597
0.00035221
0.000213953
7.41381e-05
-6.54984e-05
-0.000203137
-0.000337062
-0.000465659
-0.000587427
-0.000700986
-0.000805085
-0.000898611
-0.000980585
-0.00105017
-0.00110667
-0.00114953
-0.00117835
-0.00119281
0.000695311
0.000572741
0.000454099
0.00032937
0.000200988
7.10818e-05
-5.87265e-05
-0.000186743
-0.000311365
-0.000431084
-0.000544493
-0.000650298
-0.000747324
-0.000834523
-0.000910973
-0.000975886
-0.0010286
-0.0010686
-0.00109549
-0.00110899
0.00064559
0.000532594
0.000422737
0.000307207
0.000188243
6.78013e-05
-5.26085e-05
-0.000171412
-0.000287118
-0.000398319
-0.000503701
-0.000602053
-0.000692274
-0.000773382
-0.00084451
-0.000904919
-0.000953987
-0.000991221
-0.00101626
-0.00102882
0.000597883
0.000493936
0.000392451
0.000285695
0.000175726
6.43365e-05
-4.70744e-05
-0.000157047
-0.000264198
-0.000367217
-0.000464882
-0.000556062
-0.000639732
-0.00071497
-0.000780967
-0.00083703
-0.000882576
-0.000917142
-0.000940385
-0.000952056
0.000552049
0.00045667
0.000363178
0.000264806
0.000163441
6.07212e-05
-4.20611e-05
-0.000143558
-0.000242488
-0.00033764
-0.000427877
-0.000512149
-0.000589503
-0.000659079
-0.000720125
-0.00077199
-0.000814134
-0.000846122
-0.000867634
-0.000878435
0.000507948
0.000420701
0.000334852
0.000244506
0.000151387
5.69839e-05
-3.7512e-05
-0.000130861
-0.000221882
-0.000309457
-0.000392535
-0.000470146
-0.000541403
-0.000605512
-0.000661772
-0.000709581
-0.000748434
-0.000777928
-0.000797764
-0.000807725
0.000465447
0.000385933
0.00030741
0.000224761
0.000139558
5.31484e-05
-3.33758e-05
-0.000118879
-0.000202279
-0.000282546
-0.000358715
-0.000429891
-0.000495256
-0.000554078
-0.000605708
-0.00064959
-0.000685257
-0.000712335
-0.000730548
-0.000739695
0.000424412
0.00035227
0.000280785
0.000205534
0.000127946
4.92346e-05
-2.96063e-05
-0.000107542
-0.000183584
-0.000256792
-0.000326282
-0.000391232
-0.000450895
-0.000504596
-0.00055174
-0.000591815
-0.000624392
-0.000649127
-0.000665766
-0.000674123
0.000384715
0.000319618
0.00025491
0.000186787
0.000116542
4.52589e-05
-2.61615e-05
-9.67829e-05
-0.000165709
-0.000232085
-0.000295106
-0.000354025
-0.000408158
-0.000456892
-0.000499682
-0.000536061
-0.000565638
-0.000588096
-0.000603205
-0.000610796
0.00034623
0.000287883
0.000229717
0.00016848
0.000105331
4.12345e-05
-2.30032e-05
-8.65403e-05
-0.000148569
-0.00020832
-0.000265065
-0.000318128
-0.000366891
-0.000410797
-0.000449355
-0.00048214
-0.000508797
-0.00052904
-0.000542661
-0.000549506
0.000308832
0.000256973
0.000205141
0.000150572
9.43007e-05
3.71722e-05
-2.00965e-05
-7.67564e-05
-0.000132087
-0.000185399
-0.000236041
-0.000283408
-0.000326945
-0.000366151
-0.000400586
-0.000429869
-0.00045368
-0.000471765
-0.000483935
-0.000490054
0.000272398
0.000226794
0.000181113
0.000133021
8.34337e-05
3.30806e-05
-1.74093e-05
-6.73767e-05
-0.000116186
-0.000163227
-0.000207923
-0.000249737
-0.000288176
-0.000322797
-0.000353208
-0.000379071
-0.000400104
-0.000416079
-0.000426831
-0.000432244
0.000236805
0.000197255
0.000157567
0.000115787
7.27137e-05
2.89665e-05
-1.4912e-05
-5.83503e-05
-0.000100795
-0.000141714
-0.000180603
-0.000216991
-0.000250448
-0.000280585
-0.00030706
-0.000329578
-0.00034789
-0.0003618
-0.000371165
-0.00037589
0.000201932
0.000168265
0.000134436
9.88268e-05
6.21228e-05
2.48356e-05
-1.25767e-05
-4.96281e-05
-8.58459e-05
-0.000120773
-0.000153976
-0.000185051
-0.000213626
-0.000239369
-0.000261985
-0.000281221
-0.000296866
-0.000308749
-0.00031675
-0.000320807
0.000167593
0.000139679
0.00011161
8.20662e-05
5.16223e-05
2.06843e-05
-1.0373e-05
-4.1147e-05
-7.12435e-05
-0.000100279
-0.00012789
-0.000153737
-0.000177509
-0.000198926
-0.000217742
-0.000233746
-0.000246763
-0.000256647
-0.0002633
-0.000266712
0.000133685
0.000111432
8.9039e-05
6.54763e-05
4.12024e-05
1.65201e-05
-8.27723e-06
-3.28682e-05
-5.69351e-05
-8.0167e-05
-0.000102268
-0.000122962
-0.000141997
-0.000159147
-0.000174214
-0.000187029
-0.000197451
-0.000205362
-0.000210673
-0.00021354
0.000102941
8.58202e-05
6.85594e-05
5.04147e-05
3.17252e-05
1.26966e-05
-6.45127e-06
-2.54693e-05
-4.41062e-05
-6.21138e-05
-7.92555e-05
-9.53113e-05
-0.000110082
-0.000123389
-0.000135078
-0.000145018
-0.000153099
-0.000159232
-0.00016332
-0.000165739
7.34241e-05
6.1143e-05
4.88018e-05
3.58841e-05
2.25707e-05
8.97743e-06
-4.74504e-06
-1.84166e-05
-3.18481e-05
-4.485e-05
-5.72411e-05
-6.88544e-05
-7.95398e-05
-8.91658e-05
-9.7619e-05
-0.000104804
-0.000110642
-0.000115071
-0.000117936
-0.000118589
0.00403161
0.00389418
0.00375431
0.00361323
0.00347198
0.00333145
0.00319237
0.00305535
0.0029209
0.00278942
0.00266122
0.00253656
0.0024156
0.0022985
0.00218532
0.00207611
0.00197088
0.00186962
0.00177227
0.00167876
0.001589
0.00150286
0.0014202
0.00134088
0.00126474
0.00119156
0.00112131
0.00105396
0.000989425
0.000927556
0.000868058
0.000811034
0.000756289
0.000703642
0.00065296
0.000604111
0.000556958
0.000511371
0.000467219
0.000424375
0.000382706
0.000342095
0.000302415
0.000263538
0.000225339
0.00018761
0.0001502
0.000116356
8.45566e-05
0.00493725
0.00473453
0.00453382
0.0043361
0.00414219
0.00395275
0.00376829
0.00358919
0.00341574
0.00324815
0.00308652
0.00293093
0.00278136
0.00263779
0.00250014
0.00236829
0.00224213
0.00212152
0.00200629
0.00189627
0.00179125
0.001691
0.00159524
0.00150384
0.00141651
0.00133197
0.00125139
0.00117465
0.00110162
0.00103237
0.000964225
0.000899671
0.000838111
0.000779075
0.000722367
0.000667822
0.000615273
0.000564558
0.00051552
0.000468009
0.000421881
0.000376984
0.000333177
0.000290321
0.000248278
0.000206813
0.000165776
0.000128943
9.43969e-05
0.00581461
0.00556201
0.00531397
0.00507142
0.00483508
0.00460552
0.00438318
0.00416834
0.0039612
0.00376185
0.00357031
0.00338656
0.00321048
0.00304196
0.00288082
0.00272688
0.00257992
0.00243973
0.0023061
0.00217881
0.00205769
0.00194254
0.001833
0.00172795
0.00162923
0.00153841
0.00144095
0.00135142
0.0012673
0.00118711
0.00111018
0.00103863
0.000969545
0.000903118
0.000839403
0.00077822
0.00071938
0.000662708
0.000608034
0.000555194
0.000504024
0.000454365
0.00040606
0.000358959
0.000312916
0.000267783
0.00022331
0.000179365
0.000140234
0.000103326
0.00638912
0.00609432
0.00580738
0.00552897
0.00525959
0.00499957
0.00474914
0.0045084
0.00427736
0.00405594
0.00384403
0.00364143
0.00344793
0.00326328
0.00308719
0.00291937
0.00275952
0.00260733
0.00246249
0.00232478
0.00219417
0.00207129
0.00195755
0.00183748
0.00172529
0.00161672
0.00152436
0.00143317
0.00134502
0.00126066
0.00117999
0.00110299
0.00102922
0.000958537
0.000890774
0.000825734
0.000763217
0.000703032
0.000644997
0.000588933
0.000534666
0.000482027
0.000430853
0.000380984
0.000332266
0.000284547
0.000237557
0.000191185
0.000150183
0.000111281
0.00687228
0.00654142
0.00622131
0.00591237
0.00561489
0.00532902
0.00505479
0.00479212
0.00454087
0.00430082
0.00407171
0.00385324
0.00364507
0.00344684
0.00325819
0.00307871
0.00290803
0.00274572
0.00259131
0.0024442
0.0023032
0.00216777
0.00203602
0.00192204
0.00180998
0.00170204
0.00160012
0.00150283
0.00140987
0.00132112
0.00123636
0.00115537
0.00107792
0.00100377
0.000932708
0.000864519
0.000798998
0.000735943
0.000675161
0.000616465
0.000559672
0.000504608
0.000451101
0.000398985
0.000348101
0.000298293
0.000249273
0.00020095
0.000158479
0.000117974
0.00724058
0.00688193
0.00653629
0.00620392
0.00588491
0.00557925
0.00528682
0.00500742
0.00474076
0.00448652
0.00424432
0.00401377
0.00379443
0.00358588
0.00338767
0.00319935
0.00302053
0.00285085
0.0026902
0.00253884
0.00239067
0.00225118
0.00211902
0.00199454
0.00187637
0.00176407
0.00165738
0.0015559
0.00145924
0.00136708
0.00127914
0.00119517
0.0011149
0.0010381
0.000964514
0.000893928
0.000826124
0.000760892
0.00069803
0.000637342
0.000578641
0.000521745
0.000466477
0.000412668
0.000360154
0.000308775
0.000258231
0.000208446
0.000164896
0.000123189
0.00788219
0.00749024
0.00711261
0.00674955
0.00640119
0.00606752
0.0057484
0.00544361
0.00515284
0.00487572
0.00461185
0.00436078
0.00412204
0.00389513
0.00367956
0.00347482
0.00328039
0.00309572
0.00292022
0.00275311
0.00259331
0.00244607
0.00230487
0.00217015
0.00204221
0.00192081
0.00180553
0.00169597
0.00159178
0.00149261
0.00139812
0.00130801
0.001222
0.00113982
0.00106121
0.000985921
0.000913717
0.000844374
0.000777676
0.000713413
0.000651387
0.000591405
0.00053328
0.000476832
0.000421888
0.000368283
0.000315854
0.000264292
0.000213531
0.000169271
0.00012676
0.00801888
0.0076164
0.00722912
0.00685722
0.00650076
0.00615965
0.00583372
0.00552267
0.00522614
0.00494374
0.004675
0.00441945
0.00417657
0.00394584
0.00372675
0.00351875
0.00332132
0.00313396
0.00295616
0.00278747
0.00262742
0.00247597
0.00233215
0.00219564
0.00206611
0.00194314
0.00182636
0.00171538
0.00160984
0.00150941
0.00141374
0.00132254
0.00123551
0.00115236
0.00107284
0.000996687
0.000923668
0.00085355
0.000786114
0.000721148
0.000658449
0.000597823
0.00053908
0.000482041
0.000426528
0.000372377
0.000319421
0.000267349
0.0002161
0.000171488
0.000128574
)
;

boundaryField
{
    inlet
    {
        type            zeroGradient;
    }
    outlet
    {
        type            fixedValue;
        value           uniform 0;
    }
    cylinder
    {
        type            zeroGradient;
    }
    top
    {
        type            symmetryPlane;
    }
    bottom
    {
        type            symmetryPlane;
    }
    defaultFaces
    {
        type            empty;
    }
    procBoundary3to2
    {
        type            processor;
        value           nonuniform List<scalar> 
30
(
0.00399493
0.00399493
0.00280035
0.0018579
0.000903025
-3.50282e-05
-0.000939866
-0.00180551
-0.00262481
-0.00339228
-0.00410361
-0.0047555
-0.00534552
-0.00587195
-0.00633362
-0.00672982
-0.00706015
-0.00732443
-0.00752258
-0.00765468
-0.00772067
0.00416516
0.00514077
0.00514077
0.0060706
0.0066909
0.00721324
0.00761181
0.00761181
0.00828796
)
;
    }
    procBoundary3to6
    {
        type            processor;
        value           uniform 0.00843614;
    }
    procBoundary3to7
    {
        type            processor;
        value           nonuniform List<scalar> 
51
(
0.00801887
0.00761639
0.00722911
0.00685722
0.00650075
0.00615965
0.00583372
0.00552267
0.00522614
0.00494374
0.004675
0.00441945
0.00417657
0.00394584
0.00372675
0.00351875
0.00332132
0.00313396
0.00295616
0.00278747
0.00262742
0.00247597
0.00233215
0.00219564
0.00206611
0.00194314
0.00182636
0.00171537
0.00160984
0.00150941
0.00141374
0.00132254
0.00123551
0.00115236
0.00107284
0.000996686
0.000923667
0.00085355
0.000786114
0.000721148
0.000658449
0.000597823
0.000539081
0.000482041
0.000426528
0.000372377
0.000319422
0.000267349
0.0002161
0.000171488
0.000128574
)
;
    }
}


// ************************************************************************* //
