/*--------------------------------*- C++ -*----------------------------------*\
  =========                 |
  \\      /  F ield         | OpenFOAM: The Open Source CFD Toolbox
   \\    /   O peration     | Website:  https://openfoam.org
    \\  /    A nd           | Version:  7
     \\/     M anipulation  |
\*---------------------------------------------------------------------------*/
FoamFile
{
    version     2.0;
    format      ascii;
    class       volScalarField;
    location    "95";
    object      p;
}
// * * * * * * * * * * * * * * * * * * * * * * * * * * * * * * * * * * * * * //

dimensions      [0 2 -2 0 0 0 0];

internalField   nonuniform List<scalar> 
3500
(
-0.196541
-0.193646
-0.190581
-0.187356
-0.183987
-0.180496
-0.176905
-0.173243
-0.169537
-0.165818
-0.162114
-0.158454
-0.154866
-0.151372
-0.147991
-0.144735
-0.141612
-0.138621
-0.135759
-0.133014
-0.130368
-0.1278
-0.125281
-0.122777
-0.120251
-0.117665
-0.11499
-0.112246
-0.109659
-0.106873
-0.103944
-0.100884
-0.0976994
-0.0943809
-0.0910304
-0.0876445
-0.0842247
-0.0808107
-0.0774436
-0.0741646
-0.0710752
-0.0680876
-0.0653192
-0.0627981
-0.0605432
-0.0585713
-0.0568918
-0.0555054
-0.0544039
-0.0535699
-0.0529773
-0.052592
-0.0523728
-0.052273
-0.0522424
-0.0522289
-0.0521807
-0.0520488
-0.0517894
-0.0513663
-0.0507555
-0.0499515
-0.0489921
-0.0480595
-0.0461302
-0.044112
-0.0419496
-0.0396204
-0.0371302
-0.0344976
-0.0317483
-0.0289114
-0.0260185
-0.0231014
-0.020192
-0.0173218
-0.0145213
-0.0118205
-0.00924843
-0.00683337
-0.004603
-0.00258428
-0.000803612
0.000713262
0.00194067
0.00285325
0.00342283
0.00361936
0.00340028
0.00269191
0.00145031
-0.206869
-0.20349
-0.199798
-0.195806
-0.191535
-0.187013
-0.182275
-0.177357
-0.172295
-0.167127
-0.161896
-0.156651
-0.151438
-0.146298
-0.14127
-0.136387
-0.131677
-0.12716
-0.12285
-0.118755
-0.114876
-0.111207
-0.107736
-0.104448
-0.101321
-0.0983368
-0.0954735
-0.0927188
-0.0900799
-0.0875591
-0.0851183
-0.0827292
-0.080385
-0.0780834
-0.0758545
-0.0738137
-0.0717803
-0.0698541
-0.0680557
-0.066443
-0.0650402
-0.0637755
-0.0627507
-0.0619809
-0.0614609
-0.0611864
-0.0611466
-0.0613231
-0.0616894
-0.0622111
-0.0628467
-0.0635489
-0.0642658
-0.064943
-0.0655252
-0.0659587
-0.0661928
-0.0661826
-0.0658902
-0.0652889
-0.0643684
-0.0631235
-0.0615734
-0.0596703
-0.0573366
-0.0546921
-0.0517906
-0.04867
-0.0453657
-0.0419136
-0.0383511
-0.0347164
-0.0310469
-0.0273793
-0.0237484
-0.0201877
-0.016729
-0.0134026
-0.0102383
-0.00726531
-0.00451315
-0.00201241
0.000204234
0.0021017
0.0036397
0.00477408
0.00544626
0.00559671
0.0051113
0.00391649
0.00168718
-0.216155
-0.212345
-0.208091
-0.203411
-0.198328
-0.192879
-0.18711
-0.181065
-0.174783
-0.168304
-0.161694
-0.155018
-0.148338
-0.141712
-0.135194
-0.128835
-0.122678
-0.116761
-0.111115
-0.105765
-0.100728
-0.0960131
-0.0916262
-0.0875656
-0.0838257
-0.0803975
-0.0772683
-0.0744207
-0.0718251
-0.0694456
-0.0674563
-0.0656564
-0.0640578
-0.0626401
-0.0612504
-0.0609221
-0.0600489
-0.05951
-0.059201
-0.0591268
-0.0592936
-0.0597004
-0.0603557
-0.0612516
-0.062365
-0.0636714
-0.0651397
-0.0667323
-0.068405
-0.070108
-0.0717869
-0.0733842
-0.0748417
-0.0761014
-0.0771072
-0.0778073
-0.0781552
-0.0781118
-0.0776442
-0.0767273
-0.075419
-0.0736788
-0.0715168
-0.0689472
-0.0659827
-0.0626744
-0.0590776
-0.0552442
-0.0512239
-0.0470654
-0.0428154
-0.0385192
-0.0342195
-0.0299563
-0.0257671
-0.0216864
-0.0177466
-0.0139783
-0.0104108
-0.00707355
-0.00399672
-0.00121233
0.00124352
0.00333102
0.00500027
0.00619835
0.00684368
0.00687231
0.00610817
0.0045499
0.00167491
-0.219507
-0.214805
-0.20957
-0.20383
-0.197626
-0.191009
-0.184026
-0.176722
-0.169158
-0.161414
-0.153565
-0.145682
-0.137836
-0.130095
-0.12252
-0.11517
-0.108096
-0.101343
-0.0949474
-0.0889411
-0.0833477
-0.0781842
-0.0734617
-0.069186
-0.065358
-0.0619754
-0.0590354
-0.0565379
-0.0544653
-0.052668
-0.0513285
-0.0503636
-0.0497488
-0.0494782
-0.049643
-0.050058
-0.0507882
-0.0518189
-0.0531404
-0.0547428
-0.0566112
-0.0587273
-0.0610582
-0.0635655
-0.066206
-0.0689307
-0.0716849
-0.0744095
-0.0770418
-0.0795177
-0.0817735
-0.0837479
-0.0853827
-0.0866247
-0.0874267
-0.0877485
-0.0875597
-0.0868445
-0.0856319
-0.083869
-0.0816232
-0.078908
-0.075752
-0.0721961
-0.068293
-0.0641002
-0.0596765
-0.0550797
-0.0503656
-0.0455871
-0.0407937
-0.0360313
-0.0313421
-0.0267643
-0.0223331
-0.0180809
-0.0140378
-0.0102332
-0.006696
-0.00345666
-0.000547384
0.00199394
0.00412699
0.0057962
0.00695088
0.00749357
0.00738221
0.00639507
0.00464722
0.00151143
-0.224575
-0.21956
-0.213933
-0.207724
-0.200971
-0.193724
-0.18604
-0.177988
-0.169641
-0.161077
-0.152378
-0.143623
-0.134893
-0.126262
-0.117803
-0.109584
-0.101663
-0.0940958
-0.0869293
-0.0802036
-0.0739522
-0.0682016
-0.062972
-0.0582778
-0.054128
-0.0505267
-0.0474741
-0.0449647
-0.0429778
-0.0414738
-0.0405613
-0.0401077
-0.0401189
-0.0405899
-0.0415114
-0.0428427
-0.0445631
-0.0466507
-0.0490799
-0.051821
-0.0548405
-0.0580955
-0.0615377
-0.0651136
-0.0687645
-0.0724265
-0.0760318
-0.0795093
-0.0827867
-0.0857928
-0.0884611
-0.0907314
-0.0925492
-0.0938649
-0.0946378
-0.0948277
-0.0944297
-0.0934448
-0.0918752
-0.0897356
-0.0870557
-0.0838758
-0.0802438
-0.0762139
-0.0718458
-0.0672024
-0.0623474
-0.057343
-0.0522486
-0.0471198
-0.0420079
-0.0369597
-0.0320173
-0.027219
-0.0225992
-0.0181895
-0.0140192
-0.0101169
-0.00651074
-0.00323095
-0.000308586
0.00221788
0.00431129
0.00591362
0.00698537
0.00742105
0.00721535
0.00612849
0.00437123
0.00133104
-0.227281
-0.222101
-0.21626
-0.209788
-0.202727
-0.19513
-0.187059
-0.178584
-0.169785
-0.160743
-0.151543
-0.142272
-0.133013
-0.123847
-0.114852
-0.1061
-0.0976571
-0.0895838
-0.0819332
-0.0747522
-0.0680804
-0.0619513
-0.0563916
-0.0514221
-0.047058
-0.0433089
-0.0401799
-0.0376725
-0.0357903
-0.0345585
-0.0338135
-0.0336711
-0.0341015
-0.0350747
-0.0365633
-0.0385323
-0.0409492
-0.0437788
-0.0469823
-0.050514
-0.0543232
-0.0583544
-0.0625468
-0.0668344
-0.071147
-0.0754103
-0.079547
-0.0834775
-0.0871215
-0.090402
-0.093253
-0.0956177
-0.0974597
-0.098729
-0.0993848
-0.0994065
-0.0987779
-0.0975181
-0.0956404
-0.0931705
-0.0901485
-0.0866247
-0.0826555
-0.0783028
-0.0736318
-0.0687092
-0.063601
-0.0583707
-0.0530786
-0.0477801
-0.0425259
-0.0373619
-0.032329
-0.0274638
-0.0227993
-0.0183656
-0.0141906
-0.0103017
-0.00672525
-0.00349056
-0.000626022
0.00183093
0.00384921
0.00537188
0.00637442
0.0067536
0.00653604
0.00549957
0.00388334
0.0011904
-0.222595
-0.216732
-0.210221
-0.203103
-0.195429
-0.187265
-0.178679
-0.169752
-0.160566
-0.151206
-0.141758
-0.132309
-0.122941
-0.113733
-0.104759
-0.0960881
-0.0877829
-0.0799004
-0.0724909
-0.0655987
-0.0592621
-0.0535128
-0.0483771
-0.0438751
-0.0400218
-0.0368265
-0.034295
-0.0324304
-0.0312288
-0.0306542
-0.0307213
-0.0313955
-0.0326547
-0.03447
-0.0368057
-0.0396222
-0.0428755
-0.0465165
-0.0504908
-0.0547382
-0.0591937
-0.063787
-0.0684442
-0.0730883
-0.0776398
-0.0820171
-0.0861354
-0.0899052
-0.0932315
-0.0960754
-0.0983732
-0.100116
-0.101247
-0.101729
-0.101543
-0.100696
-0.0992018
-0.0970844
-0.0943809
-0.091138
-0.0874106
-0.0832596
-0.0787502
-0.0739495
-0.0689247
-0.0637413
-0.0584616
-0.053144
-0.0478418
-0.0426036
-0.0374727
-0.0324879
-0.0276837
-0.0230909
-0.0187381
-0.0146512
-0.0108559
-0.00737659
-0.00424053
-0.00147251
0.000892918
0.00283174
0.00429246
0.0052634
0.00565496
0.00550835
0.00464725
0.00327869
0.00105843
-0.215349
-0.209051
-0.202152
-0.194701
-0.186757
-0.178389
-0.169669
-0.160677
-0.151497
-0.142209
-0.132898
-0.123643
-0.114522
-0.10561
-0.0969754
-0.0886832
-0.0807912
-0.073352
-0.0664122
-0.0600127
-0.0541889
-0.048971
-0.0443838
-0.0404463
-0.0371718
-0.034567
-0.0326216
-0.0313125
-0.0307246
-0.0308242
-0.0315435
-0.0328568
-0.0347424
-0.0371645
-0.040081
-0.0434436
-0.0471982
-0.0512847
-0.0556374
-0.0601853
-0.0648534
-0.0695636
-0.0742363
-0.0787925
-0.0831559
-0.0872466
-0.0909663
-0.0941296
-0.0968648
-0.0990381
-0.100619
-0.101543
-0.101808
-0.101431
-0.100406
-0.0987496
-0.0964921
-0.0936742
-0.0903454
-0.0865624
-0.0823868
-0.0778832
-0.0731172
-0.0681534
-0.0630543
-0.0578788
-0.0526816
-0.0475129
-0.0424177
-0.0374366
-0.0326056
-0.0279571
-0.02352
-0.0193208
-0.0153837
-0.0117325
-0.00838936
-0.00537888
-0.0027221
-0.000449044
0.00142241
0.00284999
0.00382959
0.00429298
0.00427981
0.00366882
0.00261038
0.000894431
-0.21278
-0.206816
-0.200273
-0.193195
-0.185636
-0.177658
-0.16933
-0.160725
-0.151919
-0.142992
-0.134021
-0.125083
-0.116247
-0.107583
-0.0991576
-0.0910351
-0.0832751
-0.0759318
-0.0690541
-0.0626851
-0.0568632
-0.0516212
-0.046987
-0.0429831
-0.0396267
-0.0369277
-0.0349024
-0.0335765
-0.0329061
-0.0328873
-0.0334623
-0.03466
-0.0364391
-0.0387572
-0.0415698
-0.0448262
-0.04847
-0.0524384
-0.0566632
-0.0610714
-0.0655857
-0.0701268
-0.0746149
-0.0789766
-0.083147
-0.0870991
-0.0909701
-0.09358
-0.0958898
-0.097794
-0.0990975
-0.0998134
-0.0999313
-0.0994266
-0.0983049
-0.0965879
-0.0943074
-0.0915047
-0.0882287
-0.0845346
-0.0804811
-0.076129
-0.0715395
-0.0667725
-0.0618856
-0.0569331
-0.0519654
-0.0470286
-0.0421646
-0.0374109
-0.0328014
-0.0283663
-0.0241328
-0.020126
-0.0163684
-0.0128823
-0.00968738
-0.00680554
-0.00425459
-0.00205896
-0.000232298
0.00119425
0.00221934
0.00279801
0.00296067
0.00263506
0.00191956
0.000696047
-0.203711
-0.1979
-0.191578
-0.184786
-0.177575
-0.170003
-0.162133
-0.15403
-0.145765
-0.137408
-0.129031
-0.120703
-0.112491
-0.104458
-0.0966607
-0.0891571
-0.0820028
-0.0752482
-0.0689384
-0.0631143
-0.0578123
-0.0530648
-0.0488985
-0.0453359
-0.0423968
-0.0400897
-0.038393
-0.0373623
-0.0369598
-0.0372188
-0.0380381
-0.0394115
-0.0413178
-0.0437122
-0.0465453
-0.0497633
-0.0533055
-0.0571047
-0.0610888
-0.0651811
-0.0693002
-0.0733614
-0.0772798
-0.0809641
-0.0843319
-0.0871085
-0.0903378
-0.092773
-0.0945407
-0.095717
-0.0963106
-0.0963261
-0.0957715
-0.0946523
-0.0929868
-0.0908047
-0.0881442
-0.0850499
-0.0815718
-0.0777633
-0.0736795
-0.0693756
-0.0649062
-0.0603237
-0.0556775
-0.0510141
-0.0463761
-0.0418024
-0.0373281
-0.0329851
-0.0288019
-0.0248042
-0.0210155
-0.0174571
-0.0141492
-0.0111098
-0.00835751
-0.00590763
-0.00377867
-0.00198168
-0.000536742
0.000554743
0.00126853
0.00162476
0.00158863
0.00122389
0.000469395
-0.19668
-0.191234
-0.185326
-0.178998
-0.172294
-0.165268
-0.157976
-0.150477
-0.142834
-0.135109
-0.127366
-0.119666
-0.112068
-0.10463
-0.0974089
-0.090456
-0.0838215
-0.0775509
-0.0716855
-0.0662611
-0.0613087
-0.0568565
-0.0529303
-0.0495492
-0.0467217
-0.0444469
-0.0427575
-0.0416915
-0.0413103
-0.041441
-0.042078
-0.043235
-0.0448822
-0.0469746
-0.0494664
-0.0523075
-0.0554405
-0.0588026
-0.062327
-0.0659427
-0.0695733
-0.0731234
-0.0765559
-0.0797811
-0.0827171
-0.0853163
-0.0876026
-0.0894336
-0.0907844
-0.0916345
-0.0919672
-0.0917778
-0.0910697
-0.0898552
-0.0881561
-0.0860024
-0.0834303
-0.0804812
-0.0772005
-0.0736357
-0.0698353
-0.0658481
-0.0617215
-0.0575012
-0.0532302
-0.0489488
-0.0446943
-0.0405006
-0.0363986
-0.0324162
-0.0285784
-0.024908
-0.0214254
-0.0181491
-0.0150961
-0.0122817
-0.00972039
-0.0074244
-0.00540608
-0.00367369
-0.00223744
-0.00109807
-0.000264114
0.000279074
0.000520535
0.000507972
0.000211388
-0.184497
-0.179577
-0.174282
-0.168646
-0.162707
-0.15651
-0.150099
-0.143525
-0.136838
-0.130088
-0.123328
-0.116608
-0.109979
-0.103489
-0.0971842
-0.0911074
-0.0853005
-0.0798023
-0.074649
-0.0698755
-0.0655142
-0.0615911
-0.0581262
-0.0551353
-0.0526313
-0.050631
-0.049136
-0.0481386
-0.047534
-0.0474497
-0.0478559
-0.0487037
-0.0499586
-0.051587
-0.0535495
-0.0557996
-0.0582863
-0.0609568
-0.0637564
-0.0666298
-0.069559
-0.0722288
-0.0748253
-0.0772719
-0.0794797
-0.0814088
-0.0830327
-0.0843017
-0.0851707
-0.0856154
-0.0856253
-0.0851991
-0.0843434
-0.0830711
-0.0814018
-0.0793606
-0.0769777
-0.0742871
-0.0713255
-0.0681313
-0.0647438
-0.0612021
-0.0575446
-0.0538085
-0.050029
-0.0462392
-0.0424699
-0.0387496
-0.0351044
-0.031558
-0.0281319
-0.0248458
-0.0217171
-0.0187618
-0.015994
-0.0134266
-0.0110705
-0.00893541
-0.00702881
-0.00535658
-0.00392226
-0.00272526
-0.00176535
-0.00102884
-0.000516921
-0.000183497
-5.18064e-05
-0.174291
-0.169951
-0.165298
-0.16036
-0.155169
-0.149759
-0.144169
-0.138437
-0.132607
-0.126719
-0.120818
-0.114947
-0.109147
-0.103459
-0.0979229
-0.092577
-0.0874574
-0.0825981
-0.0780309
-0.0737849
-0.0698849
-0.0663515
-0.0632022
-0.060451
-0.0581072
-0.0561726
-0.054642
-0.0535143
-0.0528462
-0.0525867
-0.0527127
-0.0531979
-0.0540201
-0.055152
-0.0565582
-0.0581977
-0.0600213
-0.0619865
-0.0640458
-0.0661163
-0.0681328
-0.070292
-0.0722826
-0.0740965
-0.07571
-0.0770881
-0.0781971
-0.0790057
-0.0794899
-0.0796341
-0.0794296
-0.0788742
-0.0779717
-0.0767314
-0.0751679
-0.0733006
-0.0711524
-0.0687498
-0.0661212
-0.0632969
-0.0603081
-0.0571861
-0.0539621
-0.0506662
-0.0473276
-0.043974
-0.0406313
-0.0373238
-0.0340739
-0.0309023
-0.0278276
-0.024867
-0.0220356
-0.0193473
-0.0168139
-0.014446
-0.012252
-0.0102394
-0.00841274
-0.00677562
-0.00532801
-0.00406757
-0.00299065
-0.0020823
-0.00134247
-0.000722902
-0.000253781
-0.164898
-0.161074
-0.156988
-0.152664
-0.148127
-0.143406
-0.138533
-0.13354
-0.128463
-0.123336
-0.118196
-0.113078
-0.108017
-0.103048
-0.0982048
-0.0935187
-0.0890205
-0.0847383
-0.0806984
-0.0769242
-0.0734364
-0.0702531
-0.0673892
-0.0648561
-0.0626616
-0.0608112
-0.0593114
-0.0581678
-0.0573765
-0.056916
-0.0567704
-0.0569186
-0.0573466
-0.0580303
-0.0589417
-0.0600571
-0.061284
-0.0626381
-0.0640678
-0.0655548
-0.0670328
-0.0684853
-0.0698508
-0.0710908
-0.0721719
-0.0730635
-0.0737391
-0.0741763
-0.0743566
-0.0742663
-0.0738968
-0.073245
-0.0723129
-0.071107
-0.0696383
-0.0679212
-0.0659735
-0.0638157
-0.0614702
-0.0589608
-0.0563122
-0.0535496
-0.050698
-0.047782
-0.0448255
-0.0418513
-0.0388811
-0.0359351
-0.0330324
-0.0301905
-0.0274251
-0.024751
-0.022181
-0.0197268
-0.0173981
-0.0152036
-0.0131498
-0.0112423
-0.00948372
-0.00787596
-0.00641757
-0.00510462
-0.00393347
-0.00288758
-0.00197052
-0.001131
-0.000409708
-0.156507
-0.153149
-0.149571
-0.145791
-0.141832
-0.137717
-0.133472
-0.129125
-0.124705
-0.12024
-0.11576
-0.111295
-0.106874
-0.102526
-0.0982799
-0.0941615
-0.0901964
-0.0864085
-0.0828194
-0.0794493
-0.0763159
-0.0734344
-0.0708176
-0.0684757
-0.0664167
-0.0646461
-0.0631652
-0.0619703
-0.0610543
-0.0604089
-0.0600249
-0.0598922
-0.0599862
-0.0602832
-0.0607572
-0.0613719
-0.0621548
-0.0630205
-0.0639452
-0.0649021
-0.0658581
-0.0667844
-0.0676475
-0.0684154
-0.06906
-0.0695564
-0.0698825
-0.0700194
-0.0699518
-0.0696687
-0.069163
-0.0684318
-0.0674759
-0.0662999
-0.0649116
-0.0633218
-0.0615438
-0.0595931
-0.0574869
-0.0552437
-0.0528827
-0.0504238
-0.047887
-0.045292
-0.0426583
-0.0400045
-0.0373486
-0.0347076
-0.0320973
-0.0295327
-0.0270271
-0.024593
-0.0222412
-0.0199817
-0.0178225
-0.0157708
-0.0138315
-0.0120089
-0.0103046
-0.00871934
-0.00725145
-0.00589579
-0.00465049
-0.00349746
-0.00244548
-0.00143949
-0.000529666
-0.148986
-0.146041
-0.142909
-0.139605
-0.136147
-0.132556
-0.128852
-0.12506
-0.121202
-0.117302
-0.113387
-0.10948
-0.105606
-0.101789
-0.0980528
-0.0944197
-0.0909112
-0.0875472
-0.0843461
-0.0813249
-0.0784983
-0.0758792
-0.0734783
-0.0713041
-0.0693624
-0.0676563
-0.0661859
-0.0649494
-0.0639434
-0.0631618
-0.0625953
-0.0622311
-0.0620523
-0.0620402
-0.0621751
-0.0624359
-0.0628046
-0.063252
-0.0637527
-0.0642815
-0.0648127
-0.0653204
-0.065779
-0.0661643
-0.0664536
-0.0666267
-0.0666657
-0.0665556
-0.066284
-0.0658418
-0.065223
-0.0644244
-0.0634461
-0.0622909
-0.060964
-0.0594733
-0.0578287
-0.0560419
-0.054126
-0.0520953
-0.049965
-0.0477508
-0.0454685
-0.0431343
-0.0407639
-0.0383725
-0.0359751
-0.0335858
-0.0312177
-0.0288833
-0.026594
-0.0243601
-0.0221907
-0.0200942
-0.018077
-0.016145
-0.0143022
-0.0125517
-0.0108946
-0.00933067
-0.00785891
-0.0064732
-0.00517404
-0.00394193
-0.00279085
-0.00166248
-0.000615847
-0.142207
-0.139628
-0.136887
-0.133997
-0.130974
-0.127835
-0.124598
-0.121281
-0.117906
-0.114492
-0.11106
-0.107631
-0.104225
-0.100863
-0.0975637
-0.0943471
-0.0912306
-0.0882311
-0.0853641
-0.0826437
-0.0800823
-0.0776905
-0.0754773
-0.0734494
-0.0716115
-0.0699665
-0.0685151
-0.0672562
-0.0661865
-0.0652997
-0.0645875
-0.0640391
-0.0636417
-0.0633812
-0.0632416
-0.0632057
-0.0632558
-0.0633716
-0.0635326
-0.0637177
-0.063906
-0.064077
-0.0642105
-0.0642872
-0.0642895
-0.0642009
-0.0640072
-0.0636961
-0.0632574
-0.0626835
-0.0619689
-0.0611108
-0.0601084
-0.0589634
-0.0576795
-0.0562625
-0.0547196
-0.0530598
-0.0512931
-0.0494307
-0.0474843
-0.0454665
-0.04339
-0.0412675
-0.0391118
-0.0369355
-0.0347506
-0.0325687
-0.0304009
-0.0282573
-0.0261475
-0.0240801
-0.0220626
-0.0201018
-0.0182033
-0.0163718
-0.0146104
-0.0129213
-0.0113058
-0.00976275
-0.00829208
-0.00688699
-0.00555036
-0.00426164
-0.00303949
-0.00182316
-0.000678748
-0.136064
-0.133809
-0.131411
-0.128884
-0.126239
-0.123492
-0.120657
-0.117752
-0.114792
-0.111795
-0.108778
-0.105758
-0.102754
-0.0997819
-0.0968582
-0.0939991
-0.0912194
-0.0885335
-0.0859543
-0.0834936
-0.0811617
-0.0789678
-0.0769192
-0.0750216
-0.0732793
-0.0716946
-0.0702682
-0.0689988
-0.0678833
-0.0669165
-0.0660916
-0.0654003
-0.0648324
-0.0643764
-0.0640194
-0.0637473
-0.0635453
-0.0633973
-0.0632869
-0.0631973
-0.0631119
-0.063014
-0.0628876
-0.0627175
-0.0624893
-0.06219
-0.0618079
-0.061333
-0.0607569
-0.0600732
-0.0592774
-0.0583666
-0.0573399
-0.0561983
-0.0549443
-0.053582
-0.0521168
-0.0505554
-0.0489057
-0.0471762
-0.0453761
-0.0435154
-0.0416041
-0.0396525
-0.0376708
-0.0356693
-0.0336578
-0.0316458
-0.0296423
-0.0276559
-0.0256942
-0.0237646
-0.0218733
-0.0200258
-0.0182267
-0.0164798
-0.0147878
-0.0131522
-0.0115742
-0.0100524
-0.00858745
-0.00717217
-0.00581163
-0.00448447
-0.0032133
-0.00193561
-0.000722811
-0.130471
-0.128502
-0.126407
-0.124196
-0.121882
-0.119475
-0.11699
-0.114439
-0.111838
-0.109201
-0.106541
-0.103875
-0.101216
-0.0985793
-0.0959785
-0.0934271
-0.0909378
-0.0885225
-0.0861922
-0.0839567
-0.081825
-0.0798046
-0.0779018
-0.0761216
-0.0744673
-0.0729411
-0.0715434
-0.0702731
-0.0691278
-0.0681034
-0.0671946
-0.0663944
-0.0656947
-0.0650862
-0.0645584
-0.0640999
-0.0636987
-0.063342
-0.0630165
-0.0627089
-0.0624058
-0.0620938
-0.0617601
-0.0613924
-0.0609792
-0.0605101
-0.0599755
-0.0593674
-0.0586789
-0.0579046
-0.0570405
-0.0560842
-0.0550347
-0.0538922
-0.0526586
-0.0513367
-0.0499306
-0.0484454
-0.0468871
-0.0452623
-0.0435783
-0.041843
-0.0400642
-0.0382503
-0.0364095
-0.03455
-0.0326799
-0.0308069
-0.0289385
-0.0270815
-0.0252425
-0.0234272
-0.021641
-0.0198883
-0.018173
-0.016498
-0.0148658
-0.0132773
-0.0117338
-0.0102336
-0.00877819
-0.0073601
-0.00598628
-0.00463481
-0.00333142
-0.00201244
-0.000753097
-0.125358
-0.123643
-0.121815
-0.119883
-0.117857
-0.115747
-0.113566
-0.111324
-0.109033
-0.106706
-0.104356
-0.101994
-0.0996333
-0.0972862
-0.0949643
-0.0926789
-0.0904407
-0.08826
-0.0861459
-0.0841069
-0.0821504
-0.080283
-0.07851
-0.0768355
-0.0752626
-0.073793
-0.0724272
-0.0711645
-0.0700029
-0.0689394
-0.0679694
-0.0670876
-0.0662872
-0.0655609
-0.0649001
-0.0642958
-0.0637382
-0.0632171
-0.0627218
-0.0622416
-0.0617657
-0.0612835
-0.0607846
-0.0602591
-0.0596979
-0.0590924
-0.058435
-0.0577191
-0.056939
-0.0560902
-0.0551693
-0.0541742
-0.0531038
-0.0519581
-0.0507382
-0.0494463
-0.0480854
-0.0466593
-0.0451727
-0.0436308
-0.0420392
-0.0404041
-0.0387319
-0.0370292
-0.0353026
-0.0335587
-0.031804
-0.030045
-0.0282875
-0.0265373
-0.0247997
-0.0230796
-0.0213811
-0.019708
-0.0180635
-0.0164501
-0.0148697
-0.0133229
-0.0118114
-0.0103329
-0.00889002
-0.00747479
-0.00609579
-0.00473073
-0.00340774
-0.00206255
-0.000772895
-0.12067
-0.119181
-0.117589
-0.115902
-0.114129
-0.112279
-0.110362
-0.108388
-0.106367
-0.10431
-0.102227
-0.10013
-0.0980275
-0.0959312
-0.0938509
-0.0917961
-0.0897761
-0.0877994
-0.085874
-0.0840069
-0.0822047
-0.0804728
-0.0788157
-0.0772371
-0.0757397
-0.074325
-0.0729937
-0.0717452
-0.0705781
-0.0694899
-0.0684771
-0.0675353
-0.0666593
-0.0658431
-0.06508
-0.0643626
-0.063683
-0.0630331
-0.0624043
-0.061788
-0.0611756
-0.0605585
-0.0599284
-0.0592774
-0.058598
-0.0578834
-0.0571274
-0.0563244
-0.05547
-0.0545603
-0.0535926
-0.0525648
-0.051476
-0.0503261
-0.0491156
-0.0478462
-0.0465202
-0.0451403
-0.0437103
-0.0422342
-0.0407164
-0.0391618
-0.0375754
-0.0359626
-0.0343287
-0.0326789
-0.0310187
-0.029353
-0.0276869
-0.026025
-0.0243715
-0.0227305
-0.0211056
-0.0194996
-0.0179154
-0.0163548
-0.0148196
-0.0133103
-0.0118284
-0.0103717
-0.00894319
-0.00753499
-0.00615683
-0.00478621
-0.00345304
-0.00209286
-0.000784932
-0.116365
-0.115076
-0.113692
-0.112221
-0.110671
-0.109049
-0.107363
-0.105623
-0.103837
-0.102014
-0.100164
-0.098296
-0.0964181
-0.0945398
-0.0926695
-0.0908154
-0.0889855
-0.087187
-0.0854267
-0.0837108
-0.0820447
-0.0804332
-0.0788803
-0.0773891
-0.075962
-0.0746005
-0.0733052
-0.0720759
-0.0709115
-0.0698101
-0.068769
-0.0677848
-0.0668533
-0.0659697
-0.0651287
-0.0643244
-0.0635504
-0.0628004
-0.0620673
-0.0613444
-0.0606246
-0.0599011
-0.0591672
-0.0584166
-0.0576433
-0.0568416
-0.0560066
-0.0551338
-0.0542195
-0.0532605
-0.0522544
-0.0511996
-0.0500952
-0.0489408
-0.0477369
-0.0464847
-0.0451858
-0.0438424
-0.0424573
-0.0410336
-0.039575
-0.0380852
-0.0365682
-0.0350283
-0.0334698
-0.0318969
-0.030314
-0.0287251
-0.0271344
-0.0255455
-0.023962
-0.0223873
-0.0208241
-0.0192749
-0.0177422
-0.0162272
-0.0147318
-0.013256
-0.0118017
-0.0103663
-0.00895348
-0.00755524
-0.00618228
-0.00481197
-0.00347553
-0.00210859
-0.000791226
-0.112407
-0.111296
-0.110096
-0.108816
-0.107461
-0.106038
-0.104555
-0.10302
-0.101439
-0.099821
-0.0981738
-0.0965051
-0.0948227
-0.0931343
-0.0914471
-0.0897682
-0.0881045
-0.0864621
-0.0848469
-0.0832643
-0.0817189
-0.0802149
-0.0787559
-0.0773445
-0.0759829
-0.0746726
-0.0734142
-0.0722076
-0.0710523
-0.0699467
-0.0688889
-0.067876
-0.066905
-0.065972
-0.0650727
-0.0642024
-0.0633563
-0.062529
-0.0617151
-0.060909
-0.0601053
-0.0592983
-0.0584828
-0.0576537
-0.0568059
-0.0559352
-0.0550374
-0.0541089
-0.0531465
-0.0521479
-0.0511108
-0.050034
-0.0489165
-0.0477582
-0.0465591
-0.0453202
-0.0440426
-0.0427282
-0.041379
-0.0399975
-0.0385865
-0.037149
-0.0356884
-0.0342078
-0.0327108
-0.0312009
-0.0296815
-0.0281559
-0.0266275
-0.0250993
-0.0235743
-0.022055
-0.0205439
-0.0190431
-0.0175544
-0.016079
-0.0146187
-0.0131731
-0.0117442
-0.0103295
-0.00893307
-0.00754673
-0.00618198
-0.00481617
-0.00348142
-0.0021137
-0.000793322
-0.108768
-0.107814
-0.106778
-0.105665
-0.104482
-0.103235
-0.10193
-0.100573
-0.0991718
-0.0977328
-0.0962628
-0.0947685
-0.0932569
-0.0917343
-0.0902072
-0.0886817
-0.0871636
-0.0856583
-0.0841711
-0.0827063
-0.0812683
-0.0798606
-0.0784862
-0.0771478
-0.0758473
-0.074586
-0.0733646
-0.0721833
-0.0710418
-0.0699389
-0.0688732
-0.0678427
-0.0668448
-0.0658765
-0.0649345
-0.0640152
-0.0631145
-0.0622284
-0.0613524
-0.0604822
-0.0596133
-0.0587413
-0.057862
-0.0569712
-0.056065
-0.0551398
-0.0541923
-0.0532196
-0.0522192
-0.0511889
-0.0501271
-0.0490326
-0.0479046
-0.0467429
-0.0455476
-0.0443192
-0.0430588
-0.0417676
-0.0404473
-0.0390999
-0.0377275
-0.0363326
-0.0349178
-0.0334857
-0.0320392
-0.0305809
-0.0291138
-0.0276406
-0.0261639
-0.0246863
-0.0232101
-0.0217375
-0.0202706
-0.0188109
-0.0173602
-0.0159194
-0.0144899
-0.0130715
-0.0116662
-0.0102713
-0.00889135
-0.00751806
-0.0061635
-0.00480508
-0.00347549
-0.00211123
-0.000792414
-0.105423
-0.104609
-0.103718
-0.102753
-0.101722
-0.100629
-0.0994793
-0.0982797
-0.0970357
-0.0957531
-0.0944381
-0.0930965
-0.0917342
-0.0903568
-0.0889699
-0.0875789
-0.0861888
-0.0848044
-0.08343
-0.0820698
-0.0807274
-0.079406
-0.0781083
-0.0768367
-0.0755929
-0.0743783
-0.0731935
-0.0720391
-0.0709147
-0.0698197
-0.0687531
-0.0677133
-0.0666983
-0.0657061
-0.0647338
-0.0637786
-0.0628375
-0.0619072
-0.0609841
-0.0600649
-0.0591459
-0.0582238
-0.057295
-0.0563562
-0.0554044
-0.0544366
-0.0534502
-0.0524428
-0.0514123
-0.0503572
-0.0492758
-0.0481674
-0.0470312
-0.045867
-0.0446748
-0.0434551
-0.0422086
-0.0409363
-0.0396395
-0.0383198
-0.0369789
-0.0356187
-0.0342414
-0.0328491
-0.031444
-0.0300285
-0.0286046
-0.0271748
-0.0257412
-0.0243059
-0.0228707
-0.0214375
-0.0200081
-0.0185836
-0.0171657
-0.015755
-0.0143529
-0.012959
-0.0115753
-0.0101993
-0.00883552
-0.00747582
-0.00613264
-0.00478347
-0.00346139
-0.00210347
-0.000789413
-0.102354
-0.101664
-0.1009
-0.100067
-0.0991687
-0.098211
-0.0971987
-0.0961368
-0.0950306
-0.0938852
-0.0927059
-0.091498
-0.0902665
-0.0890164
-0.0877526
-0.0864797
-0.0852023
-0.0839244
-0.08265
-0.0813826
-0.0801255
-0.0788816
-0.0776533
-0.0764427
-0.0752516
-0.0740811
-0.0729321
-0.0718052
-0.0707002
-0.0696168
-0.0685544
-0.0675118
-0.0664876
-0.06548
-0.0644871
-0.0635067
-0.0625363
-0.0615734
-0.0606152
-0.059659
-0.0587021
-0.0577416
-0.0567748
-0.0557991
-0.054812
-0.0538112
-0.0527946
-0.0517602
-0.0507064
-0.0496319
-0.0485354
-0.0474163
-0.0462739
-0.045108
-0.0439187
-0.0427062
-0.0414712
-0.0402144
-0.0389369
-0.0376399
-0.0363249
-0.0349933
-0.0336468
-0.0322873
-0.0309164
-0.0295362
-0.0281483
-0.0267546
-0.025357
-0.0239571
-0.0225565
-0.0211567
-0.0197592
-0.018365
-0.0169755
-0.0155911
-0.0142132
-0.0128413
-0.0114776
-0.0101192
-0.00877109
-0.00742505
-0.00609382
-0.00475501
-0.00344189
-0.00209221
-0.000785013
-0.0995456
-0.0989647
-0.098313
-0.0975947
-0.0968141
-0.0959756
-0.0950835
-0.0941424
-0.093157
-0.0921319
-0.0910716
-0.0899809
-0.088864
-0.0877256
-0.0865699
-0.0854009
-0.0842227
-0.0830388
-0.0818529
-0.080668
-0.0794871
-0.0783127
-0.0771471
-0.0759923
-0.0748498
-0.0737209
-0.0726065
-0.071507
-0.0704228
-0.0693537
-0.0682992
-0.0672586
-0.0662309
-0.0652148
-0.0642089
-0.0632114
-0.0622204
-0.0612341
-0.0602502
-0.0592667
-0.0582814
-0.057292
-0.0562964
-0.0552926
-0.0542786
-0.0532526
-0.0522127
-0.0511576
-0.050086
-0.0489966
-0.0478887
-0.0467615
-0.0456146
-0.0444479
-0.0432613
-0.0420551
-0.0408298
-0.0395859
-0.0383244
-0.0370463
-0.0357526
-0.0344446
-0.0331236
-0.0317912
-0.0304488
-0.0290978
-0.0277398
-0.0263764
-0.0250089
-0.0236388
-0.0222675
-0.0208961
-0.0195259
-0.0181577
-0.0167928
-0.0154315
-0.0140751
-0.0127229
-0.0113773
-0.0100354
-0.00870223
-0.00736956
-0.0060504
-0.00472248
-0.00341911
-0.00207878
-0.000779746
-0.0969822
-0.0964975
-0.095945
-0.0953282
-0.0946508
-0.0939168
-0.0931303
-0.0922952
-0.0914157
-0.0904959
-0.0895399
-0.0885518
-0.0875355
-0.0864951
-0.0854342
-0.0843566
-0.0832658
-0.082165
-0.0810573
-0.0799457
-0.0788327
-0.0777207
-0.0766118
-0.0755077
-0.07441
-0.07332
-0.0722384
-0.071166
-0.0701031
-0.0690498
-0.0680058
-0.0669708
-0.0659439
-0.0649245
-0.0639112
-0.062903
-0.0618983
-0.0608958
-0.0598937
-0.0588904
-0.0578842
-0.0568735
-0.0558565
-0.0548316
-0.0537973
-0.0527522
-0.0516949
-0.0506241
-0.049539
-0.0484385
-0.047322
-0.0461891
-0.0450392
-0.0438723
-0.0426885
-0.0414878
-0.0402708
-0.0390379
-0.0377897
-0.0365272
-0.0352513
-0.0339629
-0.0326632
-0.0313533
-0.0300345
-0.028708
-0.0273751
-0.0260369
-0.0246948
-0.0233499
-0.0220033
-0.0206561
-0.0193093
-0.0179635
-0.01662
-0.0152789
-0.0139415
-0.0126071
-0.011278
-0.00995123
-0.00863206
-0.00731225
-0.00600492
-0.00468796
-0.00339466
-0.00206421
-0.000774016
-0.0946527
-0.0942529
-0.0937874
-0.0932596
-0.0926727
-0.0920304
-0.0913363
-0.090594
-0.0898072
-0.0889795
-0.0881148
-0.0872165
-0.0862883
-0.0853337
-0.0843561
-0.0833588
-0.0823448
-0.0813172
-0.0802788
-0.0792322
-0.0781796
-0.0771235
-0.0760655
-0.0750075
-0.0739509
-0.0728968
-0.0718463
-0.0708
-0.0697584
-0.0687217
-0.0676899
-0.0666628
-0.06564
-0.0646208
-0.0636047
-0.0625905
-0.0615774
-0.0605641
-0.0595496
-0.0585324
-0.0575114
-0.0564852
-0.0554526
-0.0544122
-0.053363
-0.0523037
-0.0512333
-0.050151
-0.0490559
-0.0479474
-0.0468248
-0.0456878
-0.0445362
-0.0433698
-0.0421887
-0.040993
-0.0397832
-0.0385596
-0.0373227
-0.0360734
-0.0348123
-0.0335403
-0.0322583
-0.0309672
-0.0296682
-0.0283622
-0.0270502
-0.0257334
-0.0244126
-0.023089
-0.0217635
-0.0204368
-0.0191101
-0.0177837
-0.0164588
-0.0151354
-0.0138148
-0.0124962
-0.0111819
-0.00986909
-0.00856294
-0.00725526
-0.00595929
-0.00465305
-0.00336974
-0.00204924
-0.000768125
-0.0925472
-0.0922216
-0.0918323
-0.0913823
-0.0908747
-0.0903125
-0.0896991
-0.0890378
-0.0883319
-0.0875848
-0.0867997
-0.0859799
-0.0851287
-0.0842491
-0.0833444
-0.0824174
-0.0814709
-0.0805077
-0.0795303
-0.0785412
-0.0775423
-0.0765359
-0.0755237
-0.0745072
-0.0734879
-0.072467
-0.0714454
-0.0704239
-0.069403
-0.0683831
-0.0673644
-0.0663468
-0.0653301
-0.0643141
-0.0632981
-0.0622816
-0.061264
-0.0602443
-0.0592216
-0.0581952
-0.0571639
-0.0561269
-0.0550831
-0.0540317
-0.0529716
-0.0519021
-0.0508224
-0.0497317
-0.0486295
-0.0475152
-0.0463884
-0.0452489
-0.0440965
-0.042931
-0.0417527
-0.0405616
-0.0393581
-0.0381425
-0.0369152
-0.035677
-0.0344284
-0.0331701
-0.0319029
-0.0306277
-0.0293452
-0.0280564
-0.0267621
-0.0254631
-0.0241605
-0.0228549
-0.0215472
-0.0202382
-0.0189286
-0.017619
-0.0163101
-0.0150022
-0.0136964
-0.0123919
-0.011091
-0.00979078
-0.00849658
-0.0072002
-0.00591491
-0.00461891
-0.00334525
-0.00203447
-0.0007623
-0.0903964
-0.0900735
-0.0896912
-0.0892524
-0.0887599
-0.0882167
-0.0876259
-0.0869904
-0.0863132
-0.0855974
-0.0848459
-0.0840617
-0.0832475
-0.0824063
-0.0815407
-0.0806533
-0.0797465
-0.0788228
-0.0778842
-0.0769328
-0.0759705
-0.074999
-0.0740198
-0.0730342
-0.0720435
-0.0710486
-0.0700502
-0.0690491
-0.0680457
-0.0670403
-0.066033
-0.0650239
-0.0640126
-0.0629991
-0.0619829
-0.0609636
-0.0599406
-0.0589133
-0.057881
-0.056843
-0.0557987
-0.0547473
-0.0536882
-0.0526206
-0.0515439
-0.0504575
-0.049361
-0.0482538
-0.0471356
-0.0460062
-0.0448653
-0.0437128
-0.0425487
-0.0413732
-0.0401863
-0.0389883
-0.0377796
-0.0365606
-0.0353318
-0.0340937
-0.032847
-0.0315923
-0.0303303
-0.0290617
-0.0277873
-0.0265078
-0.025224
-0.0239366
-0.0226462
-0.0213538
-0.0200597
-0.0187649