/*--------------------------------*- C++ -*----------------------------------*\
  =========                 |
  \\      /  F ield         | OpenFOAM: The Open Source CFD Toolbox
   \\    /   O peration     | Website:  https://openfoam.org
    \\  /    A nd           | Version:  7
     \\/     M anipulation  |
\*---------------------------------------------------------------------------*/
FoamFile
{
    version     2.0;
    format      ascii;
    class       volScalarField;
    location    "84.999";
    object      p;
}
// * * * * * * * * * * * * * * * * * * * * * * * * * * * * * * * * * * * * * //

dimensions      [0 2 -2 0 0 0 0];

internalField   nonuniform List<scalar> 
14800
(
-0.245398
-0.248359
-0.249316
-0.250345
-0.251281
-0.252188
-0.253047
-0.25381
-0.254427
-0.254845
-0.255014
-0.254896
-0.25447
-0.253735
-0.25276
-0.245126
-0.24807
-0.249004
-0.249995
-0.250873
-0.251701
-0.252454
-0.253082
-0.25353
-0.253745
-0.253675
-0.253284
-0.252556
-0.251507
-0.250162
-0.245117
-0.247998
-0.248895
-0.249833
-0.250645
-0.251385
-0.252029
-0.252521
-0.252804
-0.252818
-0.252515
-0.251854
-0.250814
-0.249461
-0.247611
-0.245362
-0.248138
-0.248983
-0.249855
-0.25059
-0.251238
-0.251768
-0.252124
-0.252244
-0.252065
-0.251535
-0.250614
-0.249244
-0.247642
-0.245099
-0.245849
-0.248481
-0.24926
-0.250052
-0.250699
-0.251246
-0.251659
-0.251878
-0.251838
-0.251473
-0.250725
-0.249565
-0.247832
-0.246107
-0.242593
-0.246561
-0.249016
-0.249712
-0.250409
-0.250955
-0.251392
-0.251683
-0.251764
-0.251568
-0.251022
-0.250066
-0.248708
-0.246533
-0.244924
-0.240027
-0.247477
-0.249727
-0.250324
-0.250908
-0.251338
-0.251654
-0.251816
-0.251756
-0.251405
-0.250688
-0.249525
-0.248044
-0.245269
-0.244162
-0.237353
-0.248574
-0.250597
-0.251077
-0.251528
-0.251826
-0.252007
-0.252029
-0.251823
-0.251319
-0.25044
-0.249054
-0.247581
-0.243971
-0.243761
-0.234971
-0.24983
-0.251608
-0.251953
-0.252251
-0.252396
-0.252425
-0.252296
-0.251936
-0.251276
-0.250247
-0.248598
-0.247269
-0.242838
-0.243271
-0.232933
-0.251223
-0.252746
-0.252935
-0.253055
-0.253024
-0.252882
-0.252587
-0.252065
-0.251242
-0.250078
-0.248179
-0.246919
-0.241767
-0.243082
-0.230894
-0.252738
-0.253997
-0.254008
-0.253924
-0.253691
-0.253355
-0.252877
-0.252181
-0.251188
-0.249879
-0.24774
-0.246635
-0.240551
-0.243136
-0.228961
-0.254363
-0.255352
-0.25516
-0.254843
-0.254381
-0.253828
-0.253148
-0.252265
-0.251091
-0.249643
-0.247225
-0.246367
-0.239241
-0.243176
-0.227367
-0.256094
-0.256806
-0.256385
-0.255805
-0.255083
-0.254287
-0.253385
-0.252301
-0.250935
-0.249349
-0.246637
-0.245987
-0.237978
-0.242814
-0.226389
-0.257933
-0.25836
-0.257681
-0.256806
-0.255794
-0.254728
-0.253584
-0.252285
-0.250712
-0.24897
-0.245995
-0.245339
-0.236933
-0.24164
-0.226057
-0.259892
-0.260021
-0.259053
-0.257849
-0.256516
-0.255156
-0.253748
-0.252217
-0.250425
-0.248484
-0.245311
-0.244294
-0.236154
-0.239489
-0.225933
-0.261993
-0.261805
-0.260511
-0.258945
-0.257263
-0.255583
-0.253891
-0.252107
-0.250078
-0.247872
-0.244551
-0.242809
-0.235439
-0.23656
-0.225332
-0.264264
-0.263731
-0.262073
-0.260113
-0.258052
-0.256029
-0.254032
-0.251967
-0.249669
-0.24712
-0.243625
-0.240915
-0.234395
-0.233183
-0.223786
-0.266741
-0.26581
-0.263776
-0.261378
-0.25891
-0.256521
-0.254193
-0.25181
-0.249187
-0.246203
-0.242416
-0.238641
-0.232665
-0.229429
-0.221196
-0.269472
-0.268087
-0.265638
-0.262769
-0.259871
-0.257091
-0.254399
-0.251644
-0.248609
-0.245081
-0.240819
-0.235974
-0.230078
-0.225046
-0.217656
-0.272513
-0.270593
-0.267692
-0.264323
-0.260969
-0.257771
-0.254668
-0.251464
-0.247903
-0.243698
-0.238764
-0.232896
-0.226641
-0.21987
-0.213253
-0.275911
-0.273369
-0.269978
-0.26608
-0.262243
-0.258588
-0.25501
-0.251254
-0.247028
-0.242005
-0.236223
-0.229401
-0.222473
-0.214419
-0.207886
-0.279703
-0.276469
-0.272541
-0.268081
-0.263729
-0.259564
-0.255422
-0.250988
-0.245936
-0.23996
-0.233208
-0.225478
-0.217714
-0.209098
-0.201669
-0.283955
-0.279925
-0.275422
-0.270369
-0.265459
-0.260712
-0.255894
-0.250628
-0.244584
-0.237539
-0.229755
-0.221148
-0.212668
-0.203516
-0.195525
-0.28872
-0.283781
-0.278667
-0.272983
-0.267457
-0.262034
-0.2564
-0.250127
-0.24293
-0.234735
-0.225906
-0.216497
-0.207366
-0.19782
-0.189573
-0.294045
-0.28808
-0.282322
-0.27596
-0.269737
-0.263522
-0.256902
-0.249433
-0.240945
-0.231557
-0.221714
-0.211572
-0.201887
-0.192023
-0.183572
-0.299972
-0.292864
-0.286431
-0.279324
-0.272308
-0.265154
-0.257341
-0.248486
-0.23861
-0.228024
-0.217223
-0.206422
-0.196249
-0.186109
-0.177531
-0.306535
-0.298172
-0.291028
-0.283095
-0.275166
-0.266883
-0.257644
-0.247235
-0.235917
-0.224159
-0.212465
-0.201069
-0.190455
-0.180082
-0.171351
-0.313759
-0.30404
-0.29614
-0.287279
-0.27829
-0.268633
-0.257728
-0.245637
-0.232863
-0.21998
-0.20746
-0.195521
-0.184501
-0.173914
-0.165028
-0.321656
-0.310491
-0.301777
-0.291872
-0.281624
-0.270304
-0.25751
-0.243657
-0.229447
-0.215498
-0.202213
-0.189772
-0.178368
-0.167591
-0.158531
-0.330223
-0.317536
-0.307931
-0.296849
-0.285073
-0.271776
-0.256918
-0.241268
-0.225666
-0.21071
-0.196716
-0.183804
-0.172041
-0.161088
-0.151846
-0.339444
-0.325162
-0.314575
-0.302151
-0.288504
-0.272932
-0.255884
-0.238442
-0.221507
-0.205606
-0.190952
-0.177598
-0.165496
-0.154386
-0.144953
-0.349259
-0.333328
-0.321661
-0.307668
-0.291758
-0.273653
-0.254348
-0.235152
-0.216951
-0.200165
-0.184898
-0.171127
-0.158713
-0.147463
-0.137837
-0.359598
-0.341962
-0.329111
-0.313237
-0.294664
-0.273831
-0.252252
-0.231365
-0.211972
-0.19436
-0.178524
-0.164365
-0.151667
-0.140297
-0.130483
-0.370346
-0.350958
-0.336806
-0.31865
-0.297049
-0.273362
-0.24954
-0.227043
-0.206536
-0.188159
-0.1718
-0.157282
-0.144336
-0.132868
-0.122878
-0.381349
-0.360179
-0.344571
-0.323673
-0.298745
-0.272151
-0.246155
-0.222143
-0.200606
-0.181526
-0.164691
-0.149853
-0.136699
-0.125157
-0.115007
-0.392407
-0.369455
-0.352171
-0.328062
-0.299593
-0.270106
-0.242038
-0.21662
-0.194138
-0.174423
-0.157166
-0.14205
-0.128733
-0.117141
-0.106857
-0.403281
-0.378588
-0.359318
-0.331576
-0.299443
-0.267137
-0.237129
-0.210424
-0.187091
-0.166813
-0.149193
-0.133849
-0.120419
-0.108803
-0.0984175
-0.413691
-0.38734
-0.36569
-0.33398
-0.298155
-0.263161
-0.231367
-0.203503
-0.179419
-0.158659
-0.140742
-0.12523
-0.11174
-0.100131
-0.0896911
-0.423327
-0.395442
-0.370955
-0.335053
-0.295603
-0.258097
-0.22469
-0.195808
-0.171082
-0.149926
-0.131787
-0.116173
-0.102683
-0.0911227
-0.0806975
-0.431864
-0.402585
-0.374788
-0.33459
-0.291669
-0.251869
-0.217042
-0.187291
-0.162039
-0.140584
-0.122303
-0.106658
-0.0932313
-0.0817813
-0.0714675
-0.438965
-0.408434
-0.376891
-0.332408
-0.28625
-0.244408
-0.208366
-0.177907
-0.152255
-0.130605
-0.112269
-0.0966661
-0.0833703
-0.072103
-0.0620066
-0.444297
-0.412637
-0.377001
-0.328351
-0.279254
-0.23565
-0.198616
-0.167617
-0.141701
-0.119967
-0.101668
-0.0861839
-0.0730842
-0.062067
-0.0522607
-0.447539
-0.41484
-0.374893
-0.322292
-0.270605
-0.225544
-0.187749
-0.15639
-0.130353
-0.108653
-0.0904876
-0.0752027
-0.0623675
-0.0516436
-0.042106
-0.44839
-0.414709
-0.370381
-0.314129
-0.260242
-0.214044
-0.175732
-0.144201
-0.118194
-0.0966509
-0.0787187
-0.0637206
-0.0512313
-0.0408301
-0.0313875
-0.446575
-0.411949
-0.363306
-0.303791
-0.248119
-0.201121
-0.162543
-0.131031
-0.10521
-0.0839524
-0.0663602
-0.05174
-0.0396924
-0.0296589
-0.0201392
-0.441853
-0.406315
-0.35354
-0.291228
-0.23421
-0.186756
-0.148164
-0.116867
-0.0913944
-0.0705581
-0.0534262
-0.0392783
-0.0277616
-0.0180813
-0.00885916
-0.434021
-0.397609
-0.340997
-0.276416
-0.218507
-0.170935
-0.13258
-0.101709
-0.0767597
-0.0564865
-0.0399444
-0.0263837
-0.015435
-0.00610005
0.00253017
-0.422915
-0.385689
-0.325629
-0.259353
-0.201013
-0.153648
-0.115791
-0.0855885
-0.0613428
-0.0417845
-0.0259131
-0.0130451
-0.00271377
0.00619117
0.0141122
-0.408417
-0.370468
-0.307427
-0.240052
-0.181724
-0.134903
-0.0978506
-0.068573
-0.0451678
-0.026435
-0.0113622
0.00072197
0.0103724
0.0187504
0.0259073
-0.390453
-0.351912
-0.286418
-0.218542
-0.160636
-0.114789
-0.0789007
-0.0506175
-0.0282404
-0.0104761
0.00367745
0.0148891
0.023787
0.0315545
0.0379002
-0.368994
-0.330041
-0.262674
-0.194889
-0.137808
-0.0935058
-0.0588205
-0.0317832
-0.0106022
0.00605144
0.0191695
0.02942
0.0374923
0.0445775
0.05006
-0.344059
-0.304921
-0.236308
-0.169212
-0.113561
-0.070813
-0.0377071
-0.0121282
0.00769446
0.0231013
0.0350721
0.0442736
0.0514488
0.0577827
0.0623424
-0.315719
-0.276686
-0.207438
-0.141606
-0.0878186
-0.0469176
-0.0156362
0.00828122
0.0265901
0.0406212
0.0513376
0.0594055
0.0656151
0.0711261
0.0746958
-0.284099
-0.24557
-0.176088
-0.112176
-0.0606682
-0.0219316
0.00730216
0.029372
0.0460192
0.0585524
0.0679127
0.0747678
0.0799488
0.084564
0.0870817
-0.249381
-0.211867
-0.142212
-0.0811022
-0.0322511
0.00403041
0.0310106
0.051062
0.0659092
0.0768301
0.0847382
0.0903095
0.0944097
0.0980611
0.0994768
-0.211762
-0.175616
-0.106317
-0.0484623
-0.0027118
0.0308467
0.055383
0.0732613
0.086182
0.0953837
0.101751
0.105978
0.108957
0.111568
0.111788
-0.171446
-0.136376
-0.0693032
-0.0145666
0.0277951
0.0583867
0.0803057
0.0958729
0.106753
0.114139
0.118888
0.121727
0.123532
0.124942
0.123715
-0.128702
-0.0949327
-0.0309889
0.0203426
0.0590956
0.086512
0.105658
0.118793
0.127534
0.133022
0.136097
0.137518
0.138054
0.137913
0.134844
-0.0837387
-0.051827
0.0085188
0.0560591
0.091005
0.115074
0.131314
0.141913
0.148431
0.151957
0.153328
0.153315
0.152433
0.150291
0.145167
-0.0369958
-0.00737878
0.0489874
0.0923778
0.123335
0.143916
0.15714
0.165118
0.169346
0.170866
0.170519
0.169045
0.166591
0.162314
0.155728
0.0111352
0.0380955
0.0901372
0.129079
0.155893
0.172874
0.182997
0.188289
0.190179
0.189666
0.187586
0.184579
0.180417
0.174219
0.169182
0.0602598
0.0842534
0.131672
0.165931
0.18848
0.201781
0.208742
0.211306
0.210829
0.208271
0.204434
0.199804
0.193946
0.18652
0.182242
0.10997
0.130739
0.173288
0.202692
0.220896
0.230466
0.234232
0.234044
0.231191
0.226588
0.220977
0.214705
0.207313
0.19898
0.19444
0.159851
0.177184
0.214679
0.239118
0.252934
0.258755
0.259318
0.25638
0.251159
0.244519
0.237129
0.229235
0.220449
0.211287
0.206032
0.20949
0.223216
0.255539
0.27496
0.28439
0.286475
0.283853
0.278188
0.270625
0.261969
0.252818
0.243348
0.233259
0.223227
0.217038
0.258469
0.268461
0.295565
0.309973
0.315058
0.313453
0.307692
0.299343
0.289481
0.278847
0.267969
0.256981
0.245651
0.234719
0.227507
0.306374
0.312559
0.334459
0.343913
0.344735
0.339518
0.33069
0.319724
0.307622
0.295062
0.282508
0.270061
0.25754
0.245693
0.237422
0.352797
0.355156
0.371929
0.376544
0.373224
0.364505
0.352707
0.339211
0.324945
0.310527
0.29636
0.282518
0.268857
0.256101
0.246762
0.397343
0.395913
0.407697
0.407637
0.400334
0.388252
0.373607
0.357687
0.341352
0.325157
0.309452
0.294286
0.279541
0.265896
0.255498
0.439633
0.434505
0.441496
0.436972
0.425882
0.410606
0.393259
0.375042
0.356747
0.338872
0.321713
0.305301
0.289536
0.275035
0.2636
0.479305
0.470625
0.473073
0.464343
0.449694
0.43142
0.41154
0.391171
0.371043
0.351594
0.333078
0.315505
0.29879
0.283477
0.271042
0.516023
0.503986
0.502193
0.489554
0.471608
0.450559
0.428335
0.405977
0.384153
0.363253
0.343485
0.324844
0.307257
0.291184
0.277796
0.549474
0.534324
0.528638
0.512427
0.491473
0.467894
0.443536
0.419367
0.396003
0.373783
0.352877
0.333268
0.314892
0.298119
0.283843
0.579373
0.561399
0.552211
0.532797
0.509153
0.483313
0.457047
0.431261
0.40652
0.383122
0.361202
0.340733
0.321655
0.304251
0.289161
0.605467
0.584995
0.572735
0.550521
0.524526
0.496711
0.46878
0.441584
0.415644
0.391219
0.368414
0.347198
0.327512
0.309552
0.293736
0.627534
0.604927
0.590057
0.565469
0.537486
0.508
0.478661
0.450273
0.423318
0.398025
0.374475
0.352629
0.332431
0.313997
0.297555
0.645386
0.621037
0.604048
0.577537
0.547942
0.517104
0.486626
0.457272
0.429498
0.403503
0.37935
0.356995
0.336385
0.317564
0.300609
0.658873
0.633198
0.614603
0.586636
0.555823
0.523962
0.492622
0.462539
0.434145
0.40762
0.383011
0.360274
0.339354
0.320239
0.30289
0.667878
0.641312
0.621642
0.5927
0.561072
0.528527
0.496611
0.46604
0.437232
0.410352
0.385439
0.362447
0.341319
0.322008
0.304393
0.672325
0.645316
0.625112
0.595686
0.563653
0.530768
0.498566
0.467753
0.438739
0.411684
0.38662
0.363501
0.342271
0.322863
0.305116
0.672175
0.645176
0.624986
0.595572
0.563548
0.53067
0.498474
0.467666
0.438657
0.411606
0.386546
0.363431
0.342205
0.322799
0.305058
0.667428
0.640893
0.621264
0.592357
0.560756
0.528233
0.496335
0.46578
0.436986
0.410119
0.385218
0.362237
0.341119
0.321817
0.304217
0.658122
0.632498
0.613973
0.586062
0.555295
0.523471
0.492162
0.462106
0.433735
0.407232
0.382643
0.359924
0.339019
0.319921
0.302596
0.644333
0.620055
0.603164
0.576733
0.547202
0.516416
0.485981
0.456665
0.428924
0.402959
0.378834
0.356505
0.335917
0.317119
0.300198
0.626176
0.603662
0.588918
0.564434
0.536532
0.507114
0.477831
0.449491
0.42258
0.397326
0.373811
0.351998
0.33183
0.313424
0.297026
0.603802
0.583443
0.571339
0.549252
0.523358
0.495626
0.467764
0.440628
0.41474
0.390363
0.367603
0.346427
0.326777
0.308852
0.293089
0.577398
0.559558
0.550555
0.531293
0.507769
0.482027
0.455844
0.430129
0.405451
0.38211
0.360242
0.339821
0.320786
0.303424
0.288395
0.547185
0.532191
0.52672
0.510685
0.489871
0.466407
0.442145
0.418059
0.394767
0.372613
0.351769
0.332216
0.313889
0.297164
0.282957
0.513416
0.501556
0.50001
0.487572
0.469786
0.448868
0.426754
0.404491
0.382751
0.361926
0.342228
0.323651
0.30612
0.290102
0.276792
0.476377
0.467894
0.470621
0.462118
0.447651
0.429525
0.409769
0.389507
0.369472
0.350109
0.331672
0.314171
0.29752
0.282268
0.269918
0.436378
0.431469
0.438771
0.434502
0.423614
0.408503
0.391296
0.373198
0.355009
0.337228
0.320157
0.303826
0.288132
0.273699
0.262357
0.393757
0.392567
0.404696
0.404917
0.39784
0.385941
0.37145
0.355662
0.339443
0.323354
0.307746
0.292669
0.278004
0.264432
0.254134
0.348875
0.351495
0.368648
0.373572
0.3705
0.361982
0.350355
0.337003
0.322866
0.308563
0.294503
0.28076
0.267186
0.254509
0.245278
0.302111
0.308578
0.330893
0.340685
0.341778
0.336782
0.32814
0.317333
0.305371
0.292938
0.2805
0.26816
0.255735
0.243974
0.235817
0.25386
0.264155
0.291711
0.306485
0.311866
0.310501
0.304943
0.296768
0.287058
0.276561
0.26581
0.254938
0.243712
0.232873
0.225782
0.204529
0.21858
0.251392
0.27121
0.28096
0.283306
0.280903
0.275426
0.268028
0.259521
0.250506
0.241163
0.231186
0.221253
0.215192
0.154536
0.172214
0.210235
0.235102
0.249264
0.255366
0.256165
0.25343
0.248388
0.241907
0.234664
0.226907
0.218243
0.209186
0.204063
0.104295
0.12543
0.168543
0.198407
0.216982
0.226855
0.230875
0.230906
0.228244
0.223812
0.218359
0.212235
0.204975
0.196751
0.192347
0.0542228
0.0786033
0.126622
0.161373
0.18432
0.197946
0.20518
0.207977
0.207705
0.205331
0.201662
0.19719
0.191475
0.184167
0.180024
0.00473313
0.0321007
0.0847794
0.124245
0.151484
0.168813
0.179227
0.18477
0.186878
0.186561
0.18466
0.181821
0.177815
0.171746
0.166829
-0.043764
-0.0137204
0.0433177
0.0872657
0.118676
0.139627
0.153161
0.161406
0.165866
0.167594
0.167437
0.166141
0.163856
0.159725
0.153236
-0.0908734
-0.0585163
0.00253391
0.0506664
0.0860936
0.110556
0.127126
0.138007
0.144772
0.148519
0.15009
0.150265
0.149562
0.147585
0.142577
-0.136204
-0.10197
-0.0372922
0.0146676
0.0539302
0.081763
0.101259
0.114693
0.123695
0.129417
0.132704
0.134321
0.135046
0.135088
0.132163
-0.179303
-0.143767
-0.0759267
-0.0205248
0.0223742
0.0534061
0.075694
0.0915767
0.102733
0.110366
0.115339
0.118385
0.120389
0.121995
0.120931
-0.219971
-0.183355
-0.113256
-0.0547043
-0.00838942
0.025634
0.0505588
0.0687688
0.0819802
0.0914421
0.0980457
0.102491
0.105679
0.108497
0.108895
-0.257938
-0.219982
-0.149434
-0.0876294
-0.0381864
-0.00141386
0.0259738
0.0463726
0.0615248
0.0727191
0.0808762
0.0866774
0.0909972
0.0948667
0.0964729
-0.292993
-0.254025
-0.183622
-0.118994
-0.0668616
-0.0276061
0.00205285
0.0244848
0.041451
0.0542711
0.0638928
0.0709895
0.0764012
0.0812455
0.0839667
-0.324937
-0.285464
-0.215304
-0.148701
-0.0942726
-0.0528191
-0.0210976
0.00319524
0.0218372
0.0361685
0.0471588
0.0554801
0.0619316
0.067683
0.0714694
-0.35359
-0.314016
-0.24449
-0.176586
-0.120281
-0.0769374
-0.0433802
-0.0174144
0.00275563
0.0184762
0.0307333
0.0402
0.0476285
0.0542142
0.0590042
-0.378822
-0.339443
-0.271157
-0.202533
-0.144794
-0.0998517
-0.0647053
-0.037272
-0.0157281
0.00125285
0.0146691
0.0251966
0.0335338
0.0408824
0.0466094
-0.400561
-0.361609
-0.295191
-0.226448
-0.16783
-0.121403
-0.0849964
-0.0563126
-0.0335541
-0.0154493
-0.000986526
0.010514
0.0196886
0.0277314
0.0343362
-0.418785
-0.380441
-0.316481
-0.24822
-0.189148
-0.141743
-0.104167
-0.0744768
-0.0506695
-0.0315839
-0.0161924
-0.00380697
0.00613175
0.0147975
0.0222281
-0.433521
-0.395921
-0.334953
-0.26778
-0.208679
-0.160709
-0.122334
-0.0916795
-0.0670331
-0.0471103
-0.0309131
-0.0177297
-0.00710012
0.00210656
0.0103148
-0.444839
-0.408076
-0.350577
-0.285094
-0.226414
-0.178217
-0.139336
-0.107995
-0.0826372
-0.0619928
-0.0451182
-0.0312251
-0.0199719
-0.0103188
-0.00138878
-0.452858
-0.416991
-0.363358
-0.300144
-0.242347
-0.194254
-0.155126
-0.123355
-0.0974664
-0.0762542
-0.0587703
-0.0442795
-0.0324536
-0.0224386
-0.012902
-0.457739
-0.422806
-0.373342
-0.312933
-0.256477
-0.208832
-0.16971
-0.137722
-0.11148
-0.0898392
-0.0718834
-0.0569136
-0.0445321
-0.0341643
-0.0243019
-0.459683
-0.425714
-0.380613
-0.323483
-0.268812
-0.221963
-0.183103
-0.151095
-0.124663
-0.102731
-0.0844281
-0.0690715
-0.0562292
-0.0454743
-0.0356606
-0.458931
-0.42596
-0.385297
-0.331842
-0.279378
-0.233665
-0.195323
-0.163487
-0.137024
-0.114931
-0.0963892
-0.080737
-0.0675355
-0.05644
-0.0465217
-0.455755
-0.423835
-0.38755
-0.338081
-0.288219
-0.24397
-0.206391
-0.174918
-0.148578
-0.126449
-0.10777
-0.0919102
-0.0784341
-0.0670329
-0.0568349
-0.450458
-0.419675
-0.387558
-0.342299
-0.295395
-0.252918
-0.216341
-0.185414
-0.159342
-0.137299
-0.11858
-0.102595
-0.0889138
-0.0772498
-0.0667434
-0.443361
-0.413833
-0.385542
-0.344619
-0.300981
-0.260562
-0.225212
-0.195006
-0.169342
-0.147499
-0.128835
-0.112803
-0.0989807
-0.087119
-0.0763723
-0.434797
-0.406666
-0.381763
-0.345198
-0.305066
-0.266966
-0.233056
-0.203734
-0.178608
-0.157072
-0.138553
-0.122548
-0.108652
-0.0966645
-0.0857823
-0.425105
-0.398511
-0.376518
-0.344214
-0.307754
-0.272197
-0.239924
-0.211643
-0.187177
-0.166047
-0.147756
-0.131853
-0.117948
-0.105894
-0.0949736
-0.414613
-0.38968
-0.37013
-0.341871
-0.309159
-0.27633
-0.245876
-0.218781
-0.195089
-0.174459
-0.156474
-0.14074
-0.126886
-0.114809
-0.103919
-0.403635
-0.38045
-0.362934
-0.338389
-0.309406
-0.279444
-0.250971
-0.225199
-0.202388
-0.182343
-0.164735
-0.149231
-0.135484
-0.123415
-0.112601
-0.392453
-0.371059
-0.355256
-0.334
-0.308631
-0.281622
-0.25527
-0.230949
-0.20912
-0.189739
-0.172572
-0.157354
-0.143764
-0.131728
-0.121022
-0.381313
-0.36171
-0.347387
-0.328948
-0.306984
-0.28295
-0.258832
-0.23608
-0.215329
-0.196688
-0.180021
-0.165135
-0.15175
-0.13977
-0.129196
-0.370416
-0.352576
-0.33957
-0.323476
-0.304621
-0.283518
-0.261716
-0.240639
-0.22106
-0.20323
-0.187119
-0.172607
-0.159469
-0.147569
-0.137143
-0.359923
-0.343797
-0.331985
-0.31782
-0.301709
-0.28342
-0.263976
-0.24467
-0.226352
-0.209405
-0.193904
-0.179803
-0.166951
-0.155151
-0.144882
-0.349951
-0.335481
-0.324757
-0.312191
-0.298419
-0.282756
-0.265666
-0.248209
-0.231242
-0.215251
-0.200414
-0.186759
-0.174226
-0.162545
-0.152436
-0.340579
-0.327705
-0.317965
-0.30676
-0.294925
-0.281634
-0.266843
-0.251289
-0.235758
-0.220798
-0.206684
-0.19351
-0.181326
-0.169782
-0.159828
-0.331863
-0.320514
-0.311661
-0.301643
-0.291387
-0.280168
-0.267564
-0.253936
-0.239919
-0.226071
-0.212746
-0.200091
-0.188285
-0.176894
-0.167082
-0.323829
-0.313924
-0.305876
-0.296905
-0.287946
-0.278482
-0.267894
-0.256175
-0.243739
-0.231085
-0.218624
-0.206534
-0.195137
-0.183913
-0.174231
-0.316484
-0.307929
-0.300623
-0.292577
-0.284706
-0.276696
-0.267906
-0.258031
-0.24722
-0.235845
-0.224334
-0.212868
-0.201915
-0.190881
-0.181302
-0.309821
-0.302508
-0.295896
-0.28867
-0.281732
-0.27492
-0.267685
-0.259537
-0.250362
-0.240342
-0.229877
-0.219111
-0.208653
-0.197829
-0.188343
-0.30382
-0.297631
-0.291676
-0.285184
-0.279056
-0.273241
-0.267318
-0.260734
-0.253161
-0.244555
-0.235239
-0.225268
-0.215376
-0.204811
-0.195379
-0.298449
-0.293261
-0.287932
-0.28211
-0.276691
-0.271718
-0.266888
-0.261675
-0.25562
-0.248455
-0.240386
-0.231325
-0.222101
-0.211849
-0.202537
-0.293669
-0.289359
-0.284629
-0.279429
-0.274639
-0.270386
-0.266465
-0.26242
-0.257751
-0.25201
-0.245266
-0.237235
-0.228831
-0.219002
-0.209846
-0.289429
-0.285878
-0.281716
-0.27711
-0.272895
-0.269264
-0.266099
-0.263031
-0.259579
-0.255195
-0.249807
-0.242943
-0.235497
-0.226287
-0.217661
-0.285673
-0.282774
-0.279151
-0.275114
-0.271438
-0.268357
-0.265826
-0.263561
-0.26114
-0.258
-0.253938
-0.248333
-0.242063
-0.23363
-0.225877
-0.282339
-0.279995
-0.276882
-0.273395
-0.270234
-0.267654
-0.265661
-0.264052
-0.262478
-0.260431
-0.257587
-0.253345
-0.248154
-0.241476
-0.234027
-0.27936
-0.277493
-0.274858
-0.271901
-0.26924
-0.267128
-0.265605
-0.264535
-0.263636
-0.262515
-0.2607
-0.257928
-0.253589
-0.249228
-0.241343
-0.276661
-0.275224
-0.273028
-0.270579
-0.268402
-0.266737
-0.265638
-0.265017
-0.264653
-0.264287
-0.263272
-0.262004
-0.258152
-0.256042
-0.247779
-0.274192
-0.27313
-0.271344
-0.269377
-0.267666
-0.266429
-0.265721
-0.265488
-0.265548
-0.265788
-0.265343
-0.265518
-0.26173
-0.26197
-0.253235
-0.271896
-0.271166
-0.26976
-0.268246
-0.266976
-0.266146
-0.265805
-0.265915
-0.266323
-0.267041
-0.26699
-0.268454
-0.26438
-0.267262
-0.257565
-0.269719
-0.269297
-0.268237
-0.267144
-0.266285
-0.265835
-0.265834
-0.266252
-0.266959
-0.268044
-0.2683
-0.270773
-0.266346
-0.271865
-0.260674
-0.267619
-0.267493
-0.266746
-0.266036
-0.265553
-0.26545
-0.265759
-0.26645
-0.26742
-0.268778
-0.269331
-0.272417
-0.26795
-0.275421
-0.262732
-0.265563
-0.265722
-0.265269
-0.264896
-0.264748
-0.264955
-0.265537
-0.266467
-0.267666
-0.269216
-0.270086
-0.273368
-0.269391
-0.277609
-0.264248
-0.263532
-0.263979
-0.263786
-0.263711
-0.263854
-0.264326
-0.265142
-0.266272
-0.267658
-0.269339
-0.270519
-0.273688
-0.270628
-0.278435
-0.265675
-0.261517
-0.262255
-0.26229
-0.262473
-0.262863
-0.263556
-0.26456
-0.265848
-0.267372
-0.269137
-0.270573
-0.273478
-0.271477
-0.278181
-0.267044
-0.25952
-0.260553
-0.260784
-0.261186
-0.261779
-0.262647
-0.263795
-0.265194
-0.266808
-0.268615
-0.270207
-0.272832
-0.271753
-0.277184
-0.268073
-0.257553
-0.258879
-0.25928
-0.259863
-0.260616
-0.261616
-0.262862
-0.264328
-0.265982
-0.267784
-0.269433
-0.271822
-0.271353
-0.275713
-0.268482
-0.255634
-0.257247
-0.257791
-0.258522
-0.259396
-0.260486
-0.261791
-0.263281
-0.264925
-0.266671
-0.268351
-0.270414
-0.270348
-0.273943
-0.268169
-0.253789
-0.255677
-0.25634
-0.257186
-0.258147
-0.259292
-0.260617
-0.262093
-0.263686
-0.265342
-0.266962
-0.26866
-0.269139
-0.271526
-0.267338
-0.252046
-0.254191
-0.254951
-0.255885
-0.256902
-0.25807
-0.259383
-0.260811
-0.262319
-0.263853
-0.265339
-0.26675
-0.267474
-0.268876
-0.266473
-0.250438
-0.252814
-0.25365
-0.254647
-0.255694
-0.256859
-0.258134
-0.259488
-0.260883
-0.262266
-0.263575
-0.264737
-0.26546
-0.266253
-0.264938
-0.248995
-0.25157
-0.252464
-0.253502
-0.254557
-0.255697
-0.256914
-0.258173
-0.259433
-0.260644
-0.261748
-0.262669
-0.263258
-0.263663
-0.262902
-0.247746
-0.250484
-0.251418
-0.252477
-0.253522
-0.254622
-0.255764
-0.256912
-0.258022
-0.259045
-0.259927
-0.260601
-0.260985
-0.261097
-0.26055
-0.246718
-0.249576
-0.250533
-0.251597
-0.252618
-0.253663
-0.254718
-0.255744
-0.256695
-0.25752
-0.258169
-0.258586
-0.258724
-0.258569
-0.258011
-0.245931
-0.248863
-0.249828
-0.250881
-0.251866
-0.252846
-0.253806
-0.254703
-0.255487
-0.25611
-0.25652
-0.256672
-0.256536
-0.256101
-0.25539
-0.25215
-0.25081
-0.249573
-0.248108
-0.246632
-0.245155
-0.243758
-0.242488
-0.241383
-0.240454
-0.239673
-0.238975
-0.238249
-0.237341
-0.236059
-0.234172
-0.231471
-0.227875
-0.22323
-0.217499
-0.210772
-0.203205
-0.195059
-0.186702
-0.178556
-0.171056
-0.164595
-0.159485
-0.155907
-0.153905
-0.1533
-0.153819
-0.154955
-0.156146
-0.156824
-0.156369
-0.154396
-0.150664
-0.14514
-0.137956
-0.12945
-0.120036
-0.110193
-0.100404
-0.0911287
-0.0828027
-0.0758333
-0.0705905
-0.0673776
-0.0663786
-0.0675853
-0.0707396
-0.0753239
-0.0806187
-0.0858122
-0.0901279
-0.0929323
-0.0938033
-0.0925507
-0.0892154
-0.0840177
-0.0772942
-0.0694491
-0.0608965
-0.0520191
-0.0431401
-0.0345167
-0.0263418
-0.0187606
-0.0118882
-0.00583824
-0.000739967
0.00324144
0.00596515
0.00728177
0.00736073
0.00611871
0.00470451
0.00213666
0.00170798
-0.249614
-0.248298
-0.247298
-0.246236
-0.24536
-0.244681
-0.244277
-0.244175
-0.244384
-0.244874
-0.245566
-0.246343
-0.247029
-0.247406
-0.247216
-0.246176
-0.244027
-0.240593
-0.235712
-0.22933
-0.221571
-0.212578
-0.202641
-0.192171
-0.181638
-0.171553
-0.162364
-0.154466
-0.148129
-0.143508
-0.140554
-0.139052
-0.138594
-0.138681
-0.138783
-0.13832
-0.136869
-0.134067
-0.129859
-0.124275
-0.117582
-0.110103
-0.102253
-0.0944733
-0.0872065
-0.0808924
-0.0759561
-0.0727761
-0.0716346
-0.0726567
-0.0757411
-0.0805187
-0.0863709
-0.0925107
-0.0981047
-0.102396
-0.104797
-0.104946
-0.102731
-0.0982656
-0.0918397
-0.0838551
-0.0747704
-0.0650403
-0.0550734
-0.0452055
-0.035696
-0.0267326
-0.0184501
-0.0109489
-0.00432274
0.00131917
0.00583117
0.00905881
0.0108347
0.0111971
0.0100506
0.00820965
0.00490516
0.00280901
-0.247312
-0.245947
-0.245181
-0.244492
-0.244182
-0.244259
-0.244798
-0.245808
-0.247268
-0.249108
-0.251202
-0.25338
-0.255404
-0.256992
-0.257826
-0.257575
-0.255929
-0.252629
-0.247489
-0.240431
-0.231668
-0.221285
-0.209606
-0.197099
-0.184251
-0.171669
-0.159842
-0.149237
-0.140189
-0.132957
-0.127628
-0.12404
-0.121868
-0.1207
-0.120088
-0.119412
-0.118258
-0.11631
-0.113308
-0.109232
-0.104305
-0.0987458
-0.092918
-0.0872173
-0.0820674
-0.077905
-0.0751616
-0.0742064
-0.0752731
-0.0784063
-0.0834006
-0.0897799
-0.0968411
-0.103752
-0.109677
-0.113889
-0.115851
-0.115251
-0.112078
-0.106502
-0.0988797
-0.0896789
-0.0794123
-0.0685729
-0.0575922
-0.0468151
-0.0365003
-0.0268276
-0.0179208
-0.00986645
-0.00274098
0.00336342
0.00832194
0.0119721
0.0141416
0.0147516
0.0137028
0.0114739
0.00751603
0.00381331
-0.245257
-0.243763
-0.24322
-0.242864
-0.243079
-0.243856
-0.24527
-0.247313
-0.249933
-0.253031
-0.256426
-0.259909
-0.263178
-0.265887
-0.267655
-0.268114
-0.266906
-0.263708
-0.258296
-0.250518
-0.240811
-0.229092
-0.215752
-0.201327
-0.186262
-0.171327
-0.157018
-0.143859
-0.132219
-0.122434
-0.11478
-0.109095
-0.105132
-0.102576
-0.101117
-0.100078
-0.0989819
-0.0976596
-0.0957835
-0.0930816
-0.08984
-0.0861639
-0.0823673
-0.0788024
-0.0758673
-0.0739826
-0.0735651
-0.0749587
-0.0783251
-0.0836112
-0.0905049
-0.0984344
-0.106631
-0.114239
-0.120432
-0.124522
-0.126018
-0.124662
-0.120549
-0.113894
-0.105122
-0.0947649
-0.0833897
-0.071524
-0.0596183
-0.0480228
-0.0369923
-0.0266968
-0.0172478
-0.0087189
-0.00117076
0.005318
0.0106436
0.0146379
0.0171358
0.0179537
0.0170023
0.0144272
0.00990888
0.00469217
-0.243475
-0.241739
-0.241411
-0.241344
-0.242035
-0.243439
-0.245644
-0.24862
-0.252291
-0.256529
-0.261098
-0.265764
-0.270161
-0.273885
-0.276496
-0.277575
-0.276732
-0.273602
-0.267929
-0.259329
-0.248798
-0.235813
-0.220925
-0.204752
-0.187559
-0.170489
-0.153907
-0.1384
-0.124347
-0.112126
-0.102288
-0.0945488
-0.0887684
-0.0847061
-0.0823083
-0.0807427
-0.0795514
-0.0785569
-0.0776792
-0.0762018
-0.0745358
-0.0726789
-0.0708989
-0.0695019
-0.0688517
-0.0693363
-0.0713354
-0.075146
-0.0808443
-0.0882699
-0.0970088
-0.106409
-0.115655
-0.123882
-0.130287
-0.134217
-0.135224
-0.133155
-0.128109
-0.120412
-0.110549
-0.0991128
-0.0867179
-0.0739224
-0.061192
-0.0488778
-0.0372281
-0.0264015
-0.0164959
-0.00757303
0.000321278
0.00711854
0.0127356
0.0169987
0.0197609
0.0207436
0.0198853
0.017006
0.0120253
0.00541857
-0.242032
-0.239844
-0.239758
-0.239925
-0.241037
-0.242987
-0.245886
-0.249684
-0.254279
-0.259529
-0.265095
-0.270786
-0.276171
-0.28078
-0.284124
-0.285699
-0.285171
-0.282054
-0.276087
-0.2671
-0.255541
-0.241377
-0.225068
-0.207222
-0.188315
-0.169228
-0.150563
-0.132916
-0.116689
-0.102177
-0.0904221
-0.0807026
-0.073136
-0.067466
-0.0641373
-0.0618906
-0.0604296
-0.0596542
-0.0594562
-0.0590719
-0.0588445
-0.0587172
-0.0589054
-0.059668
-0.0613257
-0.0642183
-0.0686664
-0.0748964
-0.0828934
-0.0923887
-0.102877
-0.113641
-0.123837
-0.132603
-0.139163
-0.142901
-0.143398
-0.140637
-0.134711
-0.126029
-0.115149
-0.102726
-0.0894141
-0.075798
-0.0623525
-0.0494263
-0.0372583
-0.0259946
-0.0157196
-0.0064835
0.00168149
0.0087138
0.0145508
0.0190106
0.0219745
0.0230764
0.0223022
0.0191584
0.013814
0.00597032
-0.240946
-0.238073
-0.238245
-0.238611
-0.240079
-0.242483
-0.24596
-0.250441
-0.255806
-0.261877
-0.268365
-0.274948
-0.281172
-0.286535
-0.2905
-0.292508
-0.292204
-0.289077
-0.282848
-0.273403
-0.260979
-0.245753
-0.228182
-0.208862
-0.188387
-0.167574
-0.147096
-0.127563
-0.109424
-0.0931359
-0.0792891
-0.0677482
-0.0585192
-0.0511492
-0.0470693
-0.0440329
-0.0422033
-0.0415989
-0.0416825
-0.042226
-0.0432777
-0.0447584
-0.0468261
-0.0496907
-0.0536204
-0.0588931
-0.0657524
-0.074335
-0.0845324
-0.0959751
-0.108079
-0.120078
-0.131114
-0.140335
-0.146996
-0.150516
-0.150481
-0.147071
-0.140316
-0.13072
-0.118916
-0.105611
-0.0914994
-0.0771822
-0.0631388
-0.0497116
-0.0371283
-0.0255219
-0.0149635
-0.00549318
0.0028695
0.0100667
0.0160562
0.0206451
0.0237511
0.024925
0.0242217
0.0208496
0.0152369
0.00633358
-0.239733
-0.236818
-0.236799
-0.237408
-0.239124
-0.241916
-0.245865
-0.250907
-0.256907
-0.263663
-0.27087
-0.278166
-0.285078
-0.291065
-0.295532
-0.297878
-0.297736
-0.294579
-0.288114
-0.278233
-0.265093
-0.24896
-0.230302
-0.20972
-0.187905