/*--------------------------------*- C++ -*----------------------------------*\
  =========                 |
  \\      /  F ield         | OpenFOAM: The Open Source CFD Toolbox
   \\    /   O peration     | Website:  https://openfoam.org
    \\  /    A nd           | Version:  7
     \\/     M anipulation  |
\*---------------------------------------------------------------------------*/
FoamFile
{
    version     2.0;
    format      ascii;
    class       surfaceScalarField;
    location    "84.999";
    object      phi;
}
// * * * * * * * * * * * * * * * * * * * * * * * * * * * * * * * * * * * * * //

dimensions      [0 3 -1 0 0 0 0];

internalField   nonuniform List<scalar> 
29280
(
-1.63105e-05
-9.02574e-06
2.53362e-05
-5.29952e-05
-1.52737e-05
5.19584e-05
-0.000103798
-1.43591e-05
6.51617e-05
-0.000164394
-9.71576e-06
7.03124e-05
-0.000232045
-3.65531e-06
7.13061e-05
-0.000305092
2.84894e-06
7.01979e-05
-0.000382542
9.97718e-06
6.7473e-05
-0.000463728
1.86503e-05
6.25359e-05
-0.000548053
3.01633e-05
5.41615e-05
-0.000634833
4.60054e-05
4.0774e-05
-0.000723271
6.78755e-05
2.05626e-05
-0.000812587
9.77586e-05
-8.44278e-06
-0.00090242
0.00013814
-4.83061e-05
-0.000993763
0.000192388
-0.000101046
0.000263534
-0.000169485
-0.00108781
-1.62305e-05
7.20476e-06
-5.26795e-05
2.11754e-05
-0.000103041
3.60028e-05
-0.000162953
5.01953e-05
-0.000229626
6.30181e-05
-0.000301338
7.45607e-05
-0.000377002
8.56418e-05
-0.000455829
9.74775e-05
-0.000537067
0.000111401
-0.000619836
0.000128774
-0.000703091
0.00015113
-0.000785702
0.00018037
-0.000866767
0.000219204
-0.000947115
0.000272737
0.000342158
-0.00102574
-1.58601e-05
2.30649e-05
-5.14755e-05
5.67907e-05
-0.000100565
8.50921e-05
-0.000158739
0.000108369
-0.00022314
0.000127419
-0.000291935
0.000143356
-0.000363892
0.000157598
-0.000438036
0.000171622
-0.000513399
0.000186764
-0.000588827
0.000204201
-0.000662914
0.000225218
-0.000734016
0.000251473
-0.000800152
0.00028534
-0.000862308
0.000334893
0.000394837
-0.000914988
-1.52243e-05
3.82892e-05
-4.94501e-05
9.10165e-05
-9.64843e-05
0.000132126
-0.000151922
0.000163807
-0.000212813
0.00018831
-0.00027717
0.000207713
-0.000343561
0.000223989
-0.000410771
0.000238832
-0.00047755
0.000253543
-0.000542403
0.000269054
-0.000603479
0.000286293
-0.000658567
0.000306561
-0.000703914
0.000330687
-0.000741509
0.000372488
0.000411845
-0.000758516
-1.43593e-05
5.26484e-05
-4.67007e-05
0.000123358
-9.09666e-05
0.000176392
-0.000142741
0.000215582
-0.000198955
0.000244524
-0.000257426
0.000266184
-0.000316466
0.000283029
-0.000374555
0.000296922
-0.000430098
0.000309086
-0.000481192
0.000320148
-0.00052546
0.000330561
-0.000560276
0.000341377
-0.000579169
0.000349579
-0.000586578
0.000379898
0.000384614
-0.000559347
-1.33109e-05
6.59593e-05
-4.33491e-05
0.000153396
-8.42192e-05
0.000217262
-0.000131491
0.000262854
-0.000181946
0.000294979
-0.000233164
0.000317402
-0.000283139
0.000333004
-0.000329974
0.000343756
-0.000371643
0.000350755
-0.000405764
0.000354269
-0.000429301
0.000354098
-0.000439615
0.000351691
-0.000426436
0.0003364
-0.000398
0.000351462
0.000306714
-0.0003201
-1.21318e-05
7.80912e-05
-3.95351e-05
0.000180799
-7.64796e-05
0.000254207
-0.000118505
0.000304879
-0.000162212
0.000338687
-0.00020489
0.00036008
-0.000244147
0.000372261
-0.000277616
0.000377225
-0.000302732
0.000375871
-0.000316526
0.000368063
-0.000315034
0.000352606
-0.000296119
0.000332776
-0.000245374
0.000285655
-0.00017258
0.000278668
0.000179163
-4.50293e-05
-1.08787e-05
8.89698e-05
-3.54083e-05
0.000205329
-6.80005e-05
0.000286799
-0.000104135
0.000341013
-0.000140195
0.000374746
-0.000173114
0.000392999
-0.000200033
0.000399181
-0.000217999
0.000395191
-0.000223748
0.00038162
-0.000213596
0.000357911
-0.000182225
0.000321235
-0.000127399
0.00027795
-3.64132e-05
0.000194669
9.31461e-05
0.000149108
-1.71227e-05
0.000289431
-9.6082e-06
9.8578e-05
-3.11187e-05
0.00022684
-5.90332e-05
0.000314714
-8.87284e-05
0.000370709
-0.000116311
0.000402329
-0.000138292
0.00041498
-0.000151234
0.000412123
-0.000151448
0.000395405
-0.000134742
0.000364914
-9.65034e-05
0.000319672
-3.07953e-05
0.000255526
6.92692e-05
0.000177886
0.000215869
4.80695e-05
0.000398834
-3.3857e-05
-0.000298847
0.000680559
-8.37407e-06
0.000106952
-2.68058e-05
0.000245271
-4.98078e-05
0.000337716
-7.25888e-05
0.00039349
-9.09094e-05
0.00042065
-0.000100756
0.000424826
-9.79728e-05
0.00040934
-7.79416e-05
0.000375374
-3.52867e-05
0.000322259
3.62427e-05
0.000248143
0.000144119
0.00014765
0.000294285
2.77203e-05
0.000508902
-0.000166547
0.000763914
-0.000288869
-0.000677506
0.00114257
-7.22272e-06
0.000114175
-2.25877e-05
0.000260636
-4.05109e-05
0.000355639
-5.59458e-05
0.000408925
-6.42074e-05
0.000428911
-6.06232e-05
0.000421242
-4.0132e-05
0.000388849
3.07325e-06
0.000332168
7.58759e-05
0.000249457
0.000186143
0.000137876
0.000343931
-1.01375e-05
0.000556805
-0.000185154
0.000849349
-0.000459092
0.00119498
-0.000634504
-0.00116865
0.00168613
-6.18968e-06
0.000120364
-1.85492e-05
0.000272996
-3.12634e-05
0.000368353
-3.8913e-05
0.000416574
-3.62319e-05
0.00042623
-1.77051e-05
0.000402715
2.28878e-05
0.000348256
9.28596e-05
0.000262197
0.000200985
0.000141331
0.000357392
-1.85312e-05
0.000573618
-0.000226363
0.000862152
-0.000473688
0.00124302
-0.00083996
0.00169573
-0.00108721
-0.00178298
0.00231005
-5.29603e-06
0.000125661
-1.47308e-05
0.000282431
-2.20965e-05
0.000375719
-2.14486e-05
0.000415926
-6.7551e-06
0.000411537
2.85912e-05
0.000367369
9.2293e-05
0.000284554
0.000193549
0.000160941
0.000343355
-8.47516e-06
0.000554532
-0.000229709
0.000839105
-0.000510936
0.00121537
-0.000849954
0.00169274
-0.00131733
0.00226217
-0.00165664
-0.00251494
0.00299413
-4.54546e-06
0.000130206
-1.11186e-05
0.000289004
-1.29325e-05
0.000377533
-3.31681e-06
0.000406311
2.47616e-05
0.000383458
7.93313e-05
0.000312799
0.000169964
0.000193921
0.000308136
2.27696e-05
0.000507219
-0.000207559
0.000782623
-0.000505113
0.00114592
-0.000874237
0.00161773
-0.00132176
0.00219423
-0.00189382
0.00287817
-0.00234058
-0.00333428
0.00369751
-3.92221e-06
0.000134128
-7.63742e-06
0.000292719
-3.56651e-06
0.000373462
1.59239e-05
0.00038682
5.92014e-05
0.000340181
0.000136087
0.000235914
0.000258436
7.15722e-05
0.000440278
-0.000159072
0.000697153
-0.000464434
0.00104567
-0.000853631
0.00149628
-0.00132484
0.00206355
-0.00188904
0.00273121
-0.00256149
0.0035106
-0.00311997
-0.0041889
0.00436522
-3.38999e-06
0.000137518
-4.14457e-06
0.000293473
6.33143e-06
0.000362986
3.6958e-05
0.000356194
9.77981e-05
0.000279341
0.000200896
0.000132816
0.000360722
-8.82541e-05
0.000593784
-0.000392135
0.0009169
-0.000787551
0.00134479
-0.00128152
0.00188505
-0.0018651
0.00253704
-0.00254102
0.00327368
-0.00329813
0.00410952
-0.00395581
-0.00502021
0.00494083
-2.89454e-06
0.000140413
-3.7148e-07
0.00029095
1.72248e-05
0.000345389
6.0673e-05
0.000312745
0.000142088
0.000197925
0.000276123
-1.21883e-06
0.000479947
-0.000292077
0.00077177
-0.000683958
0.00116764
-0.00118342
0.00167602
-0.00178991
0.00229729
-0.00248637
0.00301086
-0.00325458
0.00378143
-0.00406871
0.00461901
-0.00479339
-0.00578094
0.00537974
-2.37959e-06
0.000142792
3.68783e-06
0.000284883
2.96698e-05
0.000319408
8.81341e-05
0.000254281
0.000193805
9.22539e-05
0.000364216
-0.000171629
0.000618754
-0.000546616
0.000975508
-0.00104071
0.00144611
-0.00165402
0.00202814
-0.00237194
0.0027088
-0.00316702
0.00344965
-0.00399544
0.0042124
-0.00483145
0.00499585
-0.00557684
-0.00644488
0.0056598
-1.74991e-06
0.000144542
8.57308e-06
0.00027456
4.43334e-05
0.000283647
0.000120509
0.000178106
0.000254737
-4.19742e-05
0.00046729
-0.000384182
0.000778505
-0.000857832
0.00120309
-0.0014653
0.00174325
-0.00219418
0.00238204
-0.00301073
0.00308999
-0.00387497
0.00381902
-0.00472448
0.00453412
-0.00554655
0.00522329
-0.00626601
-0.00700744
0.00578584
-8.48973e-07
0.000145391
1.45503e-05
0.000259161
6.19011e-05
0.000236296
0.000158971
8.10356e-05
0.000326467
-0.000209469
0.000586675
-0.00064439
0.000958351
-0.00122951
0.00144827
-0.00195522
0.00204417
-0.00279007
0.00271335
-0.00367992
0.00341249
-0.00457411
0.00409515
-0.00540713
0.00473341
-0.00618482
0.00530944
-0.00684204
-0.00748497
0.00578697
4.22278e-07
0.000144969
2.19319e-05
0.000237651
8.30407e-05
0.000175188
0.000204581
-4.05049e-05
0.000410122
-0.00041501
0.000722315
-0.000956583
0.0011544
-0.00166159
0.0017001
-0.00250092
0.00232984
-0.0034198
0.00299802
-0.0043481
0.00365624
-0.00523233
0.0042693
-0.00602019
0.00481882
-0.00673434
0.00529468
-0.0073179
-0.00791042
0.00572013
1.97813e-06
0.000142991
3.10071e-05
0.000208622
0.000108354
9.7841e-05
0.000258154
-0.000190305
0.000506059
-0.000662916
0.00087221
-0.00132273
0.00135931
-0.00214869
0.00194399
-0.0030856
0.0025808
-0.00405661
0.0032183
-0.0049856
0.0038136
-0.00582763
0.00434676
-0.00655335
0.00480849
-0.00719607
0.00521741
-0.00772682
-0.00827904
0.00558603
4.05521e-06
0.000138936
4.20519e-05
0.000170625
0.000138321
1.57221e-06
0.00032012
-0.000372104
0.000613536
-0.000956332
0.00103201
-0.00174121
0.00156269
-0.00267938
0.00216429
-0.00368719
0.00278152
-0.00467385
0.00336621
-0.00557029
0.0038884
-0.00634982
0.00434245
-0.00700741
0.0047334
-0.00758702
0.00508369
-0.00807711
-0.00859565
0.0054003
6.70043e-06
0.000132235
5.52766e-05
0.000122049
0.000173254
-0.000116405
0.000390382
-0.000589231
0.000730428
-0.00129638
0.00119504
-0.00220582
0.00175259
-0.00323693
0.0023475
-0.0042821
0.0029235
-0.00524985
0.00344318
-0.00608997
0.00389186
-0.00679849
0.00427652
-0.00739207
0.00460971
-0.00792021
0.00491458
-0.00838198
-0.00888309
0.00520202
9.96625e-06
0.000122269
7.08312e-05
6.11843e-05
0.000213242
-0.000258816
0.000468159
-0.000844149
0.000853061
-0.00168128
0.0013529
-0.00270565
0.00191765
-0.00380168
0.00248484
-0.00484929
0.00300564
-0.00577064
0.00345714
-0.00654148
0.00383868
-0.00718003
0.00416542
-0.00771881
0.00445349
-0.00820828
0.0047251
-0.0086536
-0.00914399
0.00498601
1.38935e-05
0.000108375
8.87886e-05
-1.37109e-05
0.000258109
-0.000428136
0.000551856
-0.0011379
0.000976342
-0.00210577
0.00149676
-0.00322607
0.00204924
-0.00435417
0.00257312
-0.00537318
0.00303253
-0.00623005
0.00341913
-0.00692808
0.00374278
-0.00750368
0.0040229
-0.00799893
0.00427604
-0.00846142
0.00452082
-0.00889838
-0.00938383
0.00476067
1.85091e-05
8.98664e-05
0.00010914
-0.000104342
0.00030735
-0.000626346
0.000638985
-0.00146953
0.00109425
-0.00256103
0.00161884
-0.00375066
0.00214261
-0.00487794
0.00261398
-0.00584455
0.00301197
-0.00662803
0.00334048
-0.00725659
0.00361603
-0.00777922
0.00385904
-0.00824194
0.00408441
-0.00868679
0.00430733
-0.0091213
-0.00960492
0.00452841
2.38256e-05
6.60408e-05
0.000131781
-0.000212297
0.000360072
-0.000854637
0.000726242
-0.0018357
0.00120069
-0.00303549
0.00171362
-0.00426359
0.00219687
-0.00536119
0.00261226
-0.00625993
0.00295281
-0.00696859
0.00323135
-0.00753513
0.00346761
-0.00801548
0.00368085
-0.00845517
0.00388347
-0.00888941
0.00408715
-0.00932499
-0.00980841
0.00429064
2.98387e-05
3.62021e-05
0.000156494
-0.000338953
0.000414951
-0.00111309
0.000809785
-0.00223054
0.00129041
-0.00351611
0.00177835
-0.00475152
0.00221416
-0.005797
0.00257434
-0.00662012
0.00286352
-0.00725776
0.00310006
-0.00777167
0.0033043
-0.00821973
0.00349307
-0.00864394
0.00367608
-0.00907242
0.00386207
-0.00951098
-0.00999505
0.00404871
3.65244e-05
-3.22291e-07
0.000182929
-0.000485357
0.000470242
-0.00140041
0.000885681
-0.00264597
0.00135966
-0.00399009
0.0018128
-0.00520466
0.00219846
-0.00618267
0.00250697
-0.00692862
0.00275148
-0.00750228
0.00295306
-0.00797325
0.00313087
-0.00839754
0.0032988
-0.00881187
0.00346412
-0.00923775
0.00363321
-0.00968007
-0.0101649
0.00380311
4.38335e-05
-4.41558e-05
0.000210584
-0.000652107
0.000523873
-0.0017137
0.000950425
-0.00307253
0.00140652
-0.00444618
0.00181869
-0.00561683
0.00215466
-0.00651864
0.00241641
-0.00719037
0.00262272
-0.00770859
0.00279513
-0.00814565
0.00295059
-0.008553
0.00310004
-0.00896132
0.00324875
-0.00938646
0.00340127
-0.00983259
-0.0103182
0.0035545
5.17019e-05
-9.58577e-05
0.00023879
-0.000839196
0.000573633
-0.00204854
0.00100136
-0.00350025
0.00143072
-0.00487554
0.00179894
-0.00598505
0.00208773
-0.00680743
0.00230813
-0.00741077
0.00248198
-0.00788244
0.00262973
-0.0082934
0.00276568
-0.00868895
0.00289812
-0.00909377
0.00303078
-0.00951911
0.00316685
-0.00996866
-0.0104546
0.00330328
6.00256e-05
-0.000155883
0.000266728
-0.0010459
0.000617398
-0.00239921
0.00103689
-0.00391975
0.00143329
-0.00527195
0.00175707
-0.00630882
0.00200236
-0.00705272
0.00218667
-0.00759509
0.00233285
-0.00802862
0.0024593
-0.00841986
0.00257763
-0.00880728
0.00269393
-0.00921007
0.00281079
-0.00963596
0.00293039
-0.0100883
-0.0105741
0.00304992
6.8672e-05
-0.000224555
0.000293465
-0.00127069
0.000653365
-0.00275911
0.00105648
-0.00432286
0.00141613
-0.0056316
0.00169669
-0.00658938
0.00190266
-0.00725869
0.00205565
-0.00774808
0.00217798
-0.00815094
0.00228556
-0.00852744
0.00238749
-0.00890921
0.00248812
-0.0093107
0.00258925
-0.00973709
0.00269234
-0.0101914
-0.0106766
0.00279485
7.74743e-05
-0.00030203
0.000318034
-0.00151125
0.00068022
-0.0031213
0.00106047
-0.00470311
0.00138159
-0.00595272
0.00162129
-0.00682908
0.00179215
-0.00742954
0.0019179
-0.00787383
0.00201931
-0.00825236
0.0021097
-0.00861782
0.00219597
-0.00899548
0.00228117
-0.00939591
0.00236657
-0.0098225
0.00245308
-0.0102779
-0.010762
0.00253848
8.62302e-05
-0.00038826
0.000339506
-0.00176453
0.000697214
-0.003479
0.00104985
-0.00505575
0.00133221
-0.00623508
0.00153399
-0.00703086
0.00167368
-0.00756923
0.00177557
-0.00797572
0.00185827
-0.00833506
0.00193257
-0.00869213
0.00200362
-0.00906653
0.00207351
-0.0094658
0.00214314
-0.00989213
0.002213
-0.0103477
-0.0108303
0.00228123
9.47053e-05
-0.000482965
0.000357076
-0.0020269
0.000704148
-0.00382608
0.00102603
-0.00537763
0.0012705
-0.00647955
0.00143752
-0.00719788
0.00154957
-0.00768128
0.0016303
-0.00805644
0.00169587
-0.00840064
0.00175483
-0.00875108
0.0018109
-0.0091226
0.00186551
-0.00952041
0.00191932
-0.00994593
0.00197249
-0.0104009
-0.0108813
0.00202354
0.000102645
-0.00058561
0.000370111
-0.00229436
0.000701287
-0.00415725
0.000990609
-0.00566695
0.00119879
-0.00668772
0.0013342
-0.00733329
0.00142164
-0.00776873
0.00148331
-0.00811811
0.00153288
-0.00845021
0.00157694
-0.00879514
0.00161816
-0.00916382
0.00165752
-0.00955977
0.00169547
-0.00998389
0.00173196
-0.0104374
-0.0109152
0.00176586
0.000109788
-0.000695398
0.000378189
-0.00256276
0.000689239
-0.0044683
0.000945273
-0.00592299
0.00111918
-0.00686163
0.00122594
-0.00744006
0.00129132
-0.00783411
0.00133552
-0.00816231
0.00136986
-0.00848454
0.00139931
-0.00882459
0.00142576
-0.00919027
0.00144986
-0.00958387
0.00147194
-0.010006
0.00149181
-0.0104572
-0.0109321
0.00150868
0.000115888
-0.000811286
0.000381108
-0.00282798
0.000668833
-0.00475603
0.000891665
-0.00614582
0.00103352
-0.00700348
0.00111432
-0.00752086
0.0011597
-0.00787949
0.00118763
-0.00819024
0.00120726
-0.00850416
0.00122228
-0.00883961
0.00123398
-0.00920198
0.00124283
-0.00959271
0.00124905
-0.0100122
0.00125243
-0.0104606
-0.0109322
0.00125254
0.000120725
-0.00093201
0.000378871
-0.00308613
0.000641024
-0.00501818
0.000831325
-0.00633612
0.000943395
-0.00711555
0.0010006
-0.00757806
0.00102765
-0.00790654
0.00104018
-0.00820277
0.00104544
-0.00850943
0.00104614
-0.00884031
0.00104313
-0.00919897
0.00103671
-0.0095863
0.00102708
-0.0100026
0.0010141
-0.0104476
-0.0109156
0.000997559
0.000124115
-0.00105613
0.000371656
-0.00333367
0.000606808
-0.00525333
0.000765655
-0.00649497
0.000850137
-0.00720004
0.000885774
-0.0076137
0.00089581
-0.00791658
0.000893576
-0.00820053
0.000884732
-0.00850059
0.000871184
-0.00882676
0.00085349
-0.00918127
0.000831817
-0.00956462
0.000806327
-0.00997707
0.000777022
-0.0104183
-0.0108822
0.000743561
0.000125922
-0.00118205
0.00035978
-0.00356753
0.000567174
-0.00546073
0.000695903
-0.0066237
0.00075486
-0.00725899
0.000770661
-0.0076295
0.000764708
-0.00791062
0.000748176
-0.008184
0.000725393
-0.00847781
0.000697677
-0.00879905
0.000665354
-0.00914895
0.000628473
-0.00952774
0.000587134
-0.00993573
0.000541312
-0.0103725
-0.0108318
0.000490894
0.000126062
-0.00130811
0.000343644
-0.00378511
0.000523067
-0.00564015
0.000623161
-0.00672379
0.000658483
-0.00729432
0.000655894
-0.00762691
0.000634747
-0.00788948
0.00060426
-0.00815351
0.000567679
-0.00844122
0.000525873
-0.00875724
0.000479002
-0.00910208
0.000427041
-0.00947578
0.000370024
-0.00987871
0.00030731
-0.0103098
-0.010764
0.000239567
0.000124506
-0.00143262
0.000323769
-0.00398437
0.000475376
-0.00579176
0.000548368
-0.00679678
0.000561759
-0.00730771
0.000541977
-0.00760713
0.000506253
-0.00785375
0.000462076
-0.00810934
0.000411822
-0.00839097
0.000356022
-0.00870144
0.000294681
-0.00904074
0.000227795
-0.00940889
0.000155313
-0.00980623
7.71081e-05
-0.0102316
-0.0106738
-1.31607e-05
0.000121285
-0.0015539
0.000300715
-0.0041638
0.000424918
-0.00591596
0.000472328
-0.00684419
0.000465298
-0.00730068
0.00042931
-0.00757114
0.000379496
-0.00780394
0.000321846
-0.00805169
0.000258026
-0.00832715
0.000188354
-0.00863177
0.000112605
-0.00896499
3.06419e-05
-0.00932693
-5.7057e-05
-0.00971853
-0.000151216
-0.0101374
-0.0105714
-0.00025359
0.000116475
-0.00167038
0.000274983
-0.00432231
0.000372421
-0.0060134
0.000395718
-0.00686749
0.00036959
-0.00727455
0.000318215
-0.00751976
0.000254712
-0.00774044
0.00018375
-0.00798072
0.000106426
-0.00824983
2.27941e-05
-0.00854814
-6.6844e-05
-0.00887535
-0.00016298
-0.00923079
-0.000265776
-0.00961574
-0.000376554
-0.0100267
-0.0104543
-0.000493601
0.000110191
-0.00178057
0.000247055
-0.00445918
0.000318528
-0.00608487
0.000319108
-0.00686807
0.000275031
-0.00723047
0.000208958
-0.00745369
0.000132081
-0.00766356
4.77706e-05
-0.00789641
-4.27513e-05
-0.0081593
-0.000139522
-0.00845137
-0.000243239
-0.00877163
-0.000353827
-0.00912021
-0.000471757
-0.00949781
-0.000597752
-0.00990067
-0.0103217
-0.000730426
0.000102578
-0.00188314
0.00021739
-0.00457399
0.000263799
-0.00613128
0.000242966
-0.00684724
0.000181956
-0.00716946
0.000101735
-0.00737347
1.1193e-05
-0.00757302
-8.53974e-05
-0.00779982
-0.000188831
-0.00805587
-0.000299189
-0.00834101
-0.00041667
-0.00865415
-0.000541507
-0.00899537
-0.000674232
-0.00936508
-0.000815137
-0.00975977
-0.0101735
-0.000963309
9.38005e-05
-0.00197694
0.000186424
-0.00466661
0.000208726
-0.00615358
0.000167647
-0.00680616
9.06547e-05
-0.00709247
-4.03145e-06
-0.00727878
-0.000106109
-0.00747094
-0.000215776
-0.00769016
-0.000332252
-0.00793939
-0.000455846
-0.00821741
-0.000586861
-0.00852314
-0.000725677
-0.00885655
-0.000872857
-0.0092179
-0.00102851
-0.00960412
-0.0100101
-0.00119187
8.40349e-05
-0.00206098
0.000154567
-0.00473715
0.000153748
-0.00615276
9.34436e-05
-0.00674585
5.14605e-08
-0.00699908
-0.000105838
-0.00717289
-0.000221124
-0.00735565
-0.00034342
-0.00756786
-0.000472689
-0.00781013
-0.000609275
-0.00808083
-0.000753578
-0.00837884
-0.00090608
-0.00870405
-0.00106739
-0.00905659
-0.00123757
-0.00943394
-0.00983192
-0.00141577
7.34576e-05
-0.00213444
0.000122197
-0.00478589
9.92101e-05
-0.00612977
2.09443e-05
-0.00666759
-8.5699e-05
-0.00689243
-0.000205742
-0.00705285
-0.000333457
-0.00722794
-0.000468142
-0.00743317
-0.000609957
-0.00766831
-0.000759298
-0.00793149
-0.000916619
-0.00822151
-0.00108249
-0.00853818
-0.00125761
-0.00888147
-0.00144203
-0.00924952
-0.00963924
-0.00163471
6.22499e-05
-0.00219669
8.96529e-05
-0.00481329
4.54745e-05
-0.0060856
-4.98546e-05
-0.00657226
-0.000170524
-0.00677176
-0.000303068
-0.00692031
-0.000442951
-0.00708806
-0.000589789
-0.00728634
-0.000743907
-0.00751419
-0.000905744
-0.00776965
-0.00107579
-0.00805146
-0.0012547
-0.00835928
-0.00144329
-0.00869288
-0.00164164
-0.00905118
-0.00943256
-0.00184832
5.06185e-05
-0.00224731
5.72722e-05
-0.00481994
-6.91562e-06
-0.00602141
-0.00011882
-0.00646035
-0.000253016
-0.00663757
-0.000397691
-0.00677563
-0.000549472
-0.00693627
-0.000708229
-0.00712758
-0.000874394
-0.00734803
-0.00104845
-0.00759559
-0.00123093
-0.00786898
-0.00142254
-0.00816768
-0.00162423
-0.00849118
-0.00183609
-0.00883932
-0.00921258
-0.00205607
3.87752e-05
-0.00228608
2.57016e-05
-0.00480687
-5.9052e-05
-0.00593666
-0.000185976
-0.00633343
-0.000333021
-0.00649052
-0.000489518
-0.00661914
-0.000652921
-0.00677287
-0.000823338
-0.00695716
-0.00100128
-0.00717008
-0.00118728
-0.00740959
-0.00138187
-0.00767439
-0.00158583
-0.00796372
-0.00180024
-0.00827678
-0.00202509
-0.00861447
-0.00897996
-0.0022577
2.67333e-05
-0.00231281
-3.94675e-06
-0.00477619
-0.000108902
-0.0058317
-0.000251087
-0.00619124
-0.000410479
-0.00633113
-0.000578455
-0.00645116
-0.000753197
-0.00659813
-0.000935001
-0.00677536
-0.00112444
-0.00698064
-0.00132208
-0.00721195
-0.00152847
-0.007468
-0.00174443
-0.00774776
-0.00197114
-0.00805007
-0.00220854
-0.00837707
-0.00873481
-0.0024537
1.42336e-05
-0.00232705
-3.88565e-05
-0.0047231
-0.000158
-0.00571256
-0.000313993
-0.00603525
-0.000485294
-0.00615983
-0.000664421
-0.00627203
-0.000850207
-0.00641234
-0.00104311
-0.00658246
-0.00124376
-0.00677999
-0.00145273
-0.00700298
-0.0016706
-0.00725013
-0.00189821
-0.00752014
-0.00213683
-0.00781146
-0.00238664
-0.00812725
-0.00847727
-0.00264418
2.01978e-06
-0.00232907
-7.05943e-05
-0.00465048
-0.000205638
-0.00557751
-0.000374628
-0.00586626
-0.000557373
-0.00597709
-0.000747333
-0.00608207
-0.000943858
-0.00621582
-0.00114755
-0.00637876
-0.0013591
-0.00656845
-0.00157911
-0.00678297
-0.0018082
-0.00702104
-0.00204722
-0.00728112
-0.00229725
-0.00756143
-0.00255859
-0.00786592
-0.00820895
-0.0028269
-1.08735e-05
-0.00231819
-0.000101005
-0.00456035
-0.000251532
-0.00542698
-0.000432942
-0.00568485
-0.000626662
-0.00578337
-0.000827118
-0.00588162
-0.00103406
-0.00600887
-0.00124822
-0.0061646
-0.00147034
-0.00634633
-0.00170109
-0.00655222
-0.00194119
-0.00678094
-0.00219154
-0.00703076
-0.00245262
-0.00730035
-0.0027225
-0.00759604
-0.00792899
-0.00300246
-2.32834e-05
-0.00229491
-0.000130285
-0.00445335
-0.000295565
-0.0052617
-0.00048885
-0.00549157
-0.000693107
-0.00557911
-0.000903708
-0.00567102
-0.00112073
-0.00579185
-0.00134502
-0.00594032
-0.00157736
-0.00611399
-0.00181851
-0.00631107
-0.00206935
-0.00653009
-0.00233084
-0.00676928
-0.0026034
-0.00702779
-0.00288789
-0.00731155
-0.00765469
-0.00316219
-3.52855e-05
-0.00225962
-0.000158434
-0.0043302
-0.000337686
-0.00508245
-0.000542294
-0.00528696
-0.000756661
-0.00536474
-0.000977038
-0.00545064
-0.00120379
-0.0055651
-0.00143783
-0.00570627
-0.00168003
-0.0058718
-0.00193122
-0.00605988
-0.00219239
-0.00626893
-0.00246435
-0.00649731
-0.00274632
-0.00674582
-0.00303646
-0.0070214
-0.00731925
-0.0033719
-4.68873e-05
-0.00221274
-0.000185412
-0.00419168
-0.000377854
-0.00489001
-0.000593226
-0.00507159
-0.000817277
-0.00514069
-0.00104705
-0.00522086
-0.00128315
-0.005329
-0.00152658
-0.00546284
-0.00177826
-0.00562011
-0.00203912
-0.00579902
-0.00231007
-0.00599798
-0.00259143
-0.00621596
-0.00288256
-0.00645469
-0.00318758
-0.00671638
-0.00698708
-0.00351976
-5.80517e-05
-0.00215469
-0.000211169
-0.00403856
-0.000416038
-0.00468514
-0.000641614
-0.00484601
-0.000874914
-0.00490739
-0.00111369
-0.00498209
-0.00135875
-0.00508394
-0.00161116
-0.00521043
-0.00187194
-0.00535934
-0.00214205
-0.0055289
-0.00242241
-0.00571762
-0.00271349
-0.00592489
-0.00301612
-0.00615206
-0.00333451
-0.00639799
-0.00665168
-0.00366991
-6.87422e-05
-0.00208594
-0.000235662
-0.00387164
-0.000452207
-0.0044686
-0.000687429
-0.00461079
-0.000929536
-0.00466528
-0.0011769
-0.00473472
-0.00143051
-0.00483033
-0.0016915
-0.00494944
-0.00196093
-0.00508991
-0.00223982
-0.00525002
-0.00252902
-0.00542841
-0.00282919
-0.00562472
-0.00314173
-0.00583952
-0.00346956
-0.00607015
-0.00630926
-0.00381199
-7.89663e-05
-0.00200698
-0.000258853
-0.00369175
-0.000486338
-0.00424111
-0.000730648
-0.00436648
-0.000981109
-0.00441482
-0.00123664
-0.0044792
-0.00149837
-0.0045686
-0.00176751
-0.0046803
-0.00204516
-0.00481226
-0.00233238
-0.0049628
-0.00263007
-0.00513072
-0.00293911
-0.00531568
-0.00326099
-0.00551764
-0.00359751
-0.00573363
-0.00595895
-0.00394782
-8.86846e-05
-0.00191829
-0.000280711
-0.00349973
-0.000518409
-0.00400341
-0.000771251
-0.00411364
-0.0010296
-0.00415647
-0.00129285
-0.00421594
-0.00156227
-0.00429918
-0.00183911
-0.00440346
-0.00212452
-0.00452684
-0.00241959
-0.00466773
-0.00272527
-0.00482504
-0.00304257
-0.00499838
-0.00337289
-0.00518732
-0.0037175
-0.00538902
-0.00560049
-0.00407596
-9.78611e-05
-0.00182043
-0.000301208
-0.00329638
-0.000548403
-0.00375622
-0.000809221
-0.00385282
-0.00107499
-0.00389071
-0.00134551
-0.00394542
-0.00162215
-0.00402254
-0.00190623
-0.00411939
-0.00219894
-0.00423413
-0.00250139
-0.00436528
-0.00281459
-0.00451184
-0.00313962
-0.00467336
-0.00347776
-0.00484918
-0.00383005
-0.00503673
-0.0052342
-0.00419634
-0.000106468
-0.00171396
-0.000320317
-0.00308253
-0.000576303
-0.00350023
-0.000844541
-0.00358458
-0.00111724
-0.00361801
-0.00139456
-0.0036681
-0.00167796
-0.00373913
-0.00196881
-0.00382854
-0.00226833
-0.00393461
-0.00257767
-0.00405594
-0.00289788
-0.00419162
-0.00323007
-0.00434117
-0.00357544
-0.00450381
-0.00393495
-0.00467723
-0.00486047
-0.00430867
-0.000114482
-0.00159948
-0.000338019
-0.00285899
-0.000602097
-0.00323615
-0.000877197
-0.00330948
-0.00115633
-0.00333888
-0.00143997
-0.00338446
-0.00172966
-0.00344944
-0.00202679
-0.00353141
-0.00233264
-0.00362876
-0.00264837
-0.00374021
-0.00297508
-0.00386491
-0.00331388
-0.00400237
-0.00366592
-0.00415177
-0.00403215
-0.004311
-0.00447981
-0.00441282
-0.000121883
-0.0014776
-0.000354294
-0.00262658
-0.000625775
-0.00296467
-0.000907176
-0.00302808
-0.00119224
-0.00305382
-0.00148172
-0.00309498
-0.0017772
-0.00315396
-0.00208013
-0.00322848
-0.0023918
-0.00331709
-0.00271341
-0.0034186
-0.00304609
-0.00353223
-0.00339095
-0.0036575
-0.00374914
-0.00379358
-0.00412157
-0.00393857
-0.00409274
-0.00450864
-0.000128656
-0.00134894
-0.00036913
-0.00238611
-0.000647327
-0.00268648
-0.000934469
-0.00274094
-0.00122496
-0.00276333
-0.00151976
-0.00280017
-0.00182054
-0.00285318
-0.00212876
-0.00292026
-0.00244575
-0.00300011
-0.00277273
-0.00309162
-0.00311085
-0.00319411
-0.00346124
-0.00330711
-0.00382502
-0.0034298
-0.00420311
-0.00356048
-0.00369981
-0.00459603
-0.000134787
-0.00121416
-0.000382512
-0.00213838
-0.000666745
-0.00240224
-0.000959063
-0.00244862
-0.00125445
-0.00246794
-0.00155408
-0.00250054
-0.00185965
-0.00254761
-0.00217265
-0.00260726
-0.00249445
-0.00267832
-0.00282627
-0.0027598
-0.0031693
-0.00285108
-0.00352467
-0.00295174
-0.0038935
-0.00306097
-0.0042767
-0.00317728
-0.00330161
-0.0046749
-0.000140263
-0.00107389
-0.000394432
-0.00188422
-0.000684023
-0.00211265
-0.000980952
-0.00215169
-0.00128072
-0.00216817
-0.00158466
-0.0021966
-0.0018945
-0.00223777
-0.00221177
-0.00228999
-0.00253785
-0.00235224
-0.00287399
-0.00242365
-0.00322139
-0.00250368
-0.0035812
-0.00259193
-0.00395452
-0.00268765
-0.00434226
-0.00278954
-0.0028987
-0.00474516
-0.000145076
-0.000928816
-0.000404881
-0.00162441
-0.000699157
-0.00181838
-0.00100013
-0.00185072
-0.00130374
-0.00186456
-0.00161146
-0.00188888
-0.00192506
-0.00192417
-0.00224608
-0.00196897
-0.00257591
-0.00202241
-0.00291585
-0.00208372
-0.00326708
-0.00215245
-0.00363077
-0.00222824
-0.00400802
-0.00231041
-0.00439973
-0.00239782
-0.00249169
-0.00480675
-0.000149216
-0.0007796
-0.000413851
-0.00135978
-0.00071214
-0.00152009
-0.00101658
-0.00154628
-0.0013235
-0.00155765
-0.00163447
-0.0015779
-0.0019513
-0.00160734
-0.00227555
-0.00164473
-0.00260861
-0.00168934
-0.0029518
-0.00174053
-0.00330632
-0.00179792
-0.00367335
-0.00186121
-0.00405397
-0.00192979
-0.00444908
-0.00200271
-0.00208116
-0.00485961
-0.000152678
-0.000626922
-0.000421338
-0.00109112
-0.000722971
-0.00121845
-0.00103031
-0.00123894
-0.00133999
-0.00124797
-0.00165369
-0.0012642
-0.00197322
-0.00128781
-0.00230015
-0.0013178
-0.00263592
-0.00135357
-0.00298182
-0.00139463
-0.00333909
-0.00144065
-0.0037089
-0.0014914
-0.00409233
-0.00154636
-0.00449026
-0.00160478
-0.00166771
-0.00490371
-0.000155456
-0.000471466
-0.000427337
-0.000819235
-0.000731646
-0.000914145
-0.00104131
-0.000929281
-0.00135321
-0.000936066
-0.00166909
-0.000948322
-0.00199078
-0.000966114
-0.00231988
-0.000988707
-0.00265781
-0.00101564
-0.00300589
-0.00104655
-0.00336536
-0.00108118
-0.00373739
-0.00111936
-0.00412307
-0.00116069
-0.00452325
-0.0012046
-0.00125194
-0.00493902
-0.000157545
-0.000313921
-0.000431845
-0.000544934
-0.000738164
-0.000607827
-0.00104957
-0.000617875
-0.00136314
-0.000622497
-0.00168067
-0.000630795
-0.00200399
-0.00064279
-0.00233471
-0.000657989
-0.00267426
-0.000676087
-0.00302398
-0.00069683
-0.0033851
-0.000720062
-0.00375881
-0.000745655
-0.00414616
-0.000773337
-0.00454803
-0.000802734
-0.00083444
-0.00496553
-0.000158942
-0.000154979
-0.00043486
-0.000269017
-0.000742522
-0.000300165
-0.0010551
-0.0003053
-0.00136978
-0.000307811
-0.00168841
-0.000312169
-0.00201282
-0.000318376
-0.00234463
-0.000326185
-0.00268527
-0.000335441
-0.00303609
-0.000346018
-0.00339831
-0.000357837
-0.00377314
-0.000370831
-0.00416161
-0.000384862
-0.0045646
-0.000399747
-0.000415786
-0.00498325
-0.000159647
4.66791e-06
-0.000436379
7.71557e-06
-0.000744719
8.17509e-06
-0.00105788
7.86579e-06
-0.00137314
7.44094e-06
-0.00169232
7.01347e-06
-0.00201728
6.58885e-06
-0.00234964
6.16825e-06
-0.00269083
5.753e-06
-0.00304219
5.34447e-06
-0.00340497
4.94453e-06
-0.00378036
4.55539e-06
-0.0041694
4.1761e-06
-0.00457295
3.80164e-06
3.43936e-06
-0.00499217
-0.000159656
0.000164324
-0.000436402
0.000284462
-0.000744756
0.000316528
-0.00105793
0.000321043
-0.0013732
0.000322704
-0.00169239
0.000326206
-0.00201736
0.000331564
-0.00234972
0.00033853
-0.00269093
0.000346956
-0.0030423
0.000356715
-0.00340509
0.000367733
-0.00378048
0.000379948
-0.00416952
0.000393221
-0.00457308
0.000407356
0.000422678
-0.00499232
-0.000158971
0.000323295
-0.00043493
0.000560421
-0.000742631