/*--------------------------------*- C++ -*----------------------------------*\
  =========                 |
  \\      /  F ield         | OpenFOAM: The Open Source CFD Toolbox
   \\    /   O peration     | Website:  https://openfoam.org
    \\  /    A nd           | Version:  7
     \\/     M anipulation  |
\*---------------------------------------------------------------------------*/
FoamFile
{
    version     2.0;
    format      ascii;
    class       volVectorField;
    location    "84.999";
    object      U;
}
// * * * * * * * * * * * * * * * * * * * * * * * * * * * * * * * * * * * * * //

dimensions      [0 1 -1 0 0 0 0];

internalField   nonuniform List<vector> 
14800
(
(-0.00261503 -0.00378434 -1.55059e-20)
(-0.0136093 -0.00721507 2.04162e-21)
(-0.031707 -0.00843855 8.80669e-21)
(-0.0506667 -0.0084747 -4.66554e-21)
(-0.0695444 -0.00802602 -1.52193e-20)
(-0.0873993 -0.00740185 1.43561e-20)
(-0.103885 -0.00664663 5.92465e-22)
(-0.118897 -0.00566211 1.68087e-21)
(-0.132412 -0.00429885 -7.93421e-21)
(-0.144423 -0.00240185 -1.03499e-21)
(-0.154913 0.000177913 5.93464e-21)
(-0.16387 0.00358323 5.05742e-21)
(-0.171338 0.00795103 1.88985e-20)
(-0.177473 0.0134275 -2.0989e-20)
(-0.182552 0.0201439 8.53068e-21)
(-0.00266315 -0.000343796 3.24997e-20)
(-0.0136925 -0.000171247 -2.01202e-20)
(-0.0317355 0.000297055 -7.16683e-21)
(-0.0505613 0.00085996 1.54673e-21)
(-0.0692235 0.00127147 1.42298e-20)
(-0.0867841 0.00152442 2.80896e-20)
(-0.102897 0.00174238 -2.4121e-20)
(-0.117453 0.0021049 4.27812e-21)
(-0.130424 0.0027904 2.09796e-20)
(-0.14179 0.00395719 2.2253e-20)
(-0.151519 0.00575637 -2.78347e-20)
(-0.159577 0.00834786 3.00618e-20)
(-0.165971 0.0119293 -4.36671e-20)
(-0.17085 0.0168234 4.14906e-20)
(-0.174174 0.0230818 8.22828e-21)
(-0.00292804 0.00303733 5.18746e-20)
(-0.0141013 0.00675525 9.30035e-20)
(-0.0319568 0.00888461 5.04032e-21)
(-0.0504049 0.010028 -2.55136e-20)
(-0.0685272 0.0103906 -1.25528e-20)
(-0.0854094 0.0102623 -4.46876e-20)
(-0.100713 0.00993142 3.14551e-20)
(-0.114327 0.0096568 3.90618e-20)
(-0.126214 0.00964463 -4.42164e-20)
(-0.13634 0.0100542 -1.75661e-20)
(-0.144653 0.0110343 5.78991e-20)
(-0.151088 0.0127543 -2.02161e-20)
(-0.155552 0.0154444 1.88167e-20)
(-0.158291 0.0196947 2.12796e-20)
(-0.158419 0.0252058 3.33578e-20)
(-0.00340006 0.00628867 -4.41724e-20)
(-0.014826 0.0134381 -1.53638e-19)
(-0.0323713 0.0171808 7.48909e-20)
(-0.0502075 0.018884 -7.12423e-21)
(-0.0674741 0.0191897 2.81348e-20)
(-0.0833005 0.0186762 -8.29491e-20)
(-0.0973635 0.017792 2.82893e-21)
(-0.109551 0.0168735 9.89874e-22)
(-0.119816 0.0161541 3.06688e-20)
(-0.128108 0.0157915 -3.54106e-20)
(-0.134351 0.0159259 -9.70936e-20)
(-0.138455 0.0167253 -3.43016e-20)
(-0.140123 0.0183813 -4.70175e-21)
(-0.139999 0.0219464 8.9786e-21)
(-0.135423 0.0262556 -3.8211e-20)
(-0.00406326 0.00934721 -9.75339e-20)
(-0.0158495 0.0197609 7.23811e-20)
(-0.032975 0.0250501 4.25111e-21)
(-0.0499781 0.0272875 7.89402e-21)
(-0.0660835 0.0275301 -6.09718e-20)
(-0.0804838 0.0266317 4.59079e-20)
(-0.0928777 0.0251953 -1.66847e-20)
(-0.103153 0.0236336 2.60004e-20)
(-0.111251 0.022208 -1.49604e-20)
(-0.117101 0.0210731 9.02704e-20)
(-0.120597 0.0203531 6.97149e-20)
(-0.121677 0.0202111 4.59681e-20)
(-0.119598 0.0206548 -7.1102e-20)
(-0.116099 0.0235488 1.87583e-20)
(-0.1052 0.0260414 -1.93403e-20)
(-0.00489682 0.0121599 2.09814e-22)
(-0.0171476 0.0256205 1.25398e-19)
(-0.0337588 0.0323674 -9.36902e-20)
(-0.0497221 0.0351047 7.78508e-20)
(-0.0643721 0.0352764 6.7729e-20)
(-0.0769817 0.0339952 -3.82501e-20)
(-0.0872774 0.0320118 2.64862e-20)
(-0.0951455 0.0298139 -1.06256e-19)
(-0.100514 0.0276925 3.08051e-20)
(-0.103283 0.0258005 -6.88445e-20)
(-0.103298 0.0242398 3.53794e-20)
(-0.100658 0.023191 -8.18687e-20)
(-0.0936862 0.0222369 -1.88363e-20)
(-0.0864902 0.0245324 -3.93577e-20)
(-0.0675479 0.0246409 4.59683e-20)
(-0.00587668 0.0146854 -1.09949e-20)
(-0.0186903 0.0309297 -1.28689e-19)
(-0.0347079 0.0390209 1.18373e-20)
(-0.0494388 0.0422111 1.65445e-21)
(-0.0623486 0.0422984 1.91038e-20)
(-0.072805 0.0406353 1.6932e-19)
(-0.0805665 0.0381118 -1.33648e-20)
(-0.0855139 0.0352886 8.66312e-20)
(-0.087553 0.0324896 1.08322e-20)
(-0.0865513 0.0298707 6.00147e-21)
(-0.082238 0.0275063 -2.64359e-20)
(-0.0751601 0.025656 6.20947e-20)
(-0.061857 0.0232464 1.49986e-19)
(-0.0505678 0.024887 -1.66349e-19)
(-0.0219556 0.0227424 -5.85018e-20)
(-0.00697739 0.0168955 7.26858e-20)
(-0.0204434 0.0356196 1.26795e-19)
(-0.0358005 0.0449139 -3.4181e-20)
(-0.0491172 0.0484927 -5.90476e-20)
(-0.0600068 0.0484729 -5.86986e-20)
(-0.0679429 0.0464249 7.61578e-21)
(-0.0727163 0.0433677 5.37499e-20)
(-0.0741945 0.0399329 -1.6816e-19)
(-0.072247 0.0364804 -2.60185e-21)
(-0.0667066 0.033179 -4.95287e-20)
(-0.0570438 0.03008 -1.19499e-19)
(-0.0446802 0.0275365 1.205e-19)
(-0.0234009 0.0240407 -1.6297e-19)
(-0.00697009 0.0245039 8.52414e-20)
(0.0330984 0.0207654 5.93777e-20)
(-0.00817392 0.0187752 -3.97347e-20)
(-0.0223692 0.0396403 4.70701e-20)
(-0.0370057 0.0499668 -8.46518e-20)
(-0.0487309 0.0538493 7.20187e-20)
(-0.057317 0.053687 9.74626e-20)
(-0.0623487 0.0512446 1.15565e-19)
(-0.0636452 0.0476587 -4.65618e-20)
(-0.0610464 0.0436285 -3.58496e-20)
(-0.0543609 0.0395529 1.64596e-19)
(-0.0433942 0.0356264 1.17431e-19)
(-0.0271742 0.0319388 1.08912e-19)
(-0.00828606 0.0286553 -1.58928e-19)
(0.0227975 0.0246596 4.56599e-20)
(0.0453243 0.0240405 4.39112e-20)
(0.101209 0.0188361 -1.46806e-21)
(-0.00944321 0.0203226 -1.7387e-19)
(-0.024427 0.0429611 -2.27005e-19)
(-0.038281 0.0541186 8.50816e-20)
(-0.0482312 0.0581966 1.14827e-19)
(-0.054213 0.0578412 -2.36902e-19)
(-0.0559211 0.0549878 -1.06394e-20)
(-0.0531912 0.0508776 -9.2559e-20)
(-0.0458137 0.0462737 2.19226e-19)
(-0.0334955 0.0416169 -9.68075e-20)
(-0.0160061 0.0371253 -1.19418e-20)
(0.00815454 0.0330329 7.30881e-20)
(0.0350231 0.0290444 1.81008e-19)
(0.0789619 0.0250114 7.89802e-20)
(0.10735 0.0239962 -6.27055e-20)
(0.185575 0.0179786 -1.2379e-20)
(-0.0107654 0.0215469 1.20733e-19)
(-0.0265728 0.0455694 1.62506e-19)
(-0.0395685 0.0573273 -1.11499e-19)
(-0.0475383 0.0614687 -3.80079e-19)
(-0.0505786 0.0608546 -4.16862e-20)
(-0.0484819 0.0575675 1.5851e-21)
(-0.0410781 0.0529409 1.24708e-19)
(-0.0280768 0.047798 -2.75673e-19)
(-0.00903705 0.0426259 -1.22487e-20)
(0.0163342 0.037662 -1.42888e-19)
(0.0502534 0.0333901 -1.86687e-19)
(0.0865647 0.0288191 -1.19471e-19)
(0.147239 0.0255514 1.10435e-20)
(0.181001 0.0238824 -3.86374e-20)
(0.288777 0.0196155 -1.17172e-19)
(-0.0121242 0.0224669 6.66734e-20)
(-0.0287587 0.0474692 1.17343e-19)
(-0.0407897 0.0595704 -5.39585e-20)
(-0.0465318 0.0636212 -4.88956e-20)
(-0.046229 0.0626699 3.09262e-19)
(-0.039748 0.0589251 -3.18532e-19)
(-0.0268766 0.0538018 1.64002e-20)
(-0.00719932 0.0481828 7.2545e-20)
(0.01993 0.0426117 5.33032e-20)
(0.0548496 0.0373341 3.65268e-20)
(0.10074 0.03327 6.31239e-20)
(0.148355 0.0280174 -4.68215e-20)
(0.229463 0.0271399 1.41238e-19)
(0.268508 0.0236096 1.12875e-19)
(0.411566 0.0242892 7.3122e-20)
(-0.0135071 0.0231079 2.86838e-20)
(-0.03093 0.0486776 -2.37836e-19)
(-0.0418399 0.0608445 3.46627e-19)
(-0.0450384 0.0646337 4.29212e-19)
(-0.0408927 0.0632598 -1.44156e-19)
(-0.0293032 0.0590408 5.10277e-20)
(-0.00996418 0.0534667 -1.32919e-19)
(0.0177188 0.047484 -2.26151e-20)
(0.0546517 0.0417119 -2.47878e-19)
(0.101182 0.0363617 5.27006e-20)
(0.16145 0.0331346 2.03554e-19)
(0.222869 0.0271179 -2.66258e-20)
(0.326488 0.0304395 6.58e-20)
(0.372245 0.0241716 -2.73855e-20)
(0.551048 0.0319409 7.15424e-21)
(-0.0149039 0.0234987 -1.41167e-19)
(-0.0330227 0.0492222 -1.59495e-19)
(-0.0425813 0.0611641 -3.80149e-19)
(-0.04282 0.0645122 -2.71876e-19)
(-0.0341909 0.0626342 -2.14192e-19)
(-0.01657 0.0579458 2.42067e-19)
(0.010508 0.0520134 4.78196e-20)
(0.0478696 0.0458587 1.03976e-19)
(0.0966935 0.0402072 5.48615e-20)
(0.157285 0.0351773 -1.53702e-19)
(0.23419 0.0335236 -7.93043e-20)
(0.312514 0.0273047 2.14875e-20)
(0.43735 0.0356132 -2.78938e-19)
(0.493496 0.0275033 6.2947e-20)
(0.699732 0.0424342 -1.58464e-19)
(-0.0163053 0.0236682 7.24061e-20)
(-0.0349588 0.0491364 5.56296e-19)
(-0.0428354 0.0605606 2.81751e-19)
(-0.0395619 0.0632923 1.31399e-19)
(-0.0256202 0.0608468 3.33713e-19)
(-0.000788353 0.0557357 -2.90757e-19)
(0.0356303 0.0496122 -1.20339e-19)
(0.0847221 0.0435934 -1.15532e-19)
(0.147847 0.0385453 5.4955e-19)
(0.225147 0.0344799 1.76397e-19)
(0.320315 0.0349873 -1.35453e-19)
(0.418387 0.0302493 7.24347e-20)
(0.559071 0.042547 -9.53724e-20)
(0.630074 0.0352984 9.95195e-20)
(0.846443 0.0555502 4.58022e-20)
(-0.0177001 0.0236418 -6.88694e-21)
(-0.03664 0.0484542 -2.97164e-19)
(-0.042377 0.0590827 -2.70467e-19)
(-0.0348624 0.0610408 -9.3853e-20)
(-0.0145408 0.0580022 -1.64513e-19)
(0.0189923 0.0525838 1.69209e-19)
(0.0667177 0.0465462 8.1878e-20)
(0.129938 0.0411282 -1.23042e-19)
(0.209913 0.0373462 2.2202e-21)
(0.306277 0.035201 -9.29723e-20)
(0.420198 0.0381769 2.09845e-20)
(0.53866 0.0372647 2.83095e-20)
(0.686966 0.0513934 2.41336e-20)
(0.774356 0.0478541 6.17848e-20)
(0.979201 0.0703756 -1.66637e-19)
(-0.0190727 0.0234389 -1.45677e-19)
(-0.0379402 0.0472061 1.19823e-19)
(-0.0409283 0.0567965 1.12958e-19)
(-0.0282271 0.0578563 1.41164e-20)
(-0.0001739 0.0542624 1.14234e-19)
(0.0438976 0.0487524 -1.53008e-19)
(0.105244 0.043227 1.58302e-19)
(0.185187 0.0390685 2.47725e-20)
(0.284327 0.0373875 -1.7712e-19)
(0.401014 0.038317 4.93204e-21)
(0.532506 0.0439717 -1.7423e-19)
(0.667798 0.0485334 1.57474e-19)
(0.814856 0.0624769 2.09834e-20)
(0.914091 0.063951 3.56205e-20)
(1.08855 0.0851321 1.67599e-19)
(-0.0204026 0.0230716 4.091e-19)
(-0.0387113 0.045431 -1.6168e-19)
(-0.0381432 0.0537718 -8.57224e-20)
(-0.0190679 0.0538694 -1.05693e-19)
(0.0183866 0.0498531 -2.85569e-19)
(0.0751788 0.0446071 -9.40208e-20)
(0.152711 0.0402029 1.84923e-19)
(0.251854 0.0381686 -1.23571e-19)
(0.371642 0.0395522 -4.72704e-19)
(0.507883 0.044579 1.71991e-19)
(0.653404 0.0532079 3.82576e-20)
(0.797475 0.0631625 -1.04524e-19)
(0.935309 0.0756002 5.99299e-20)
(1.03649 0.0815516 -5.67715e-20)
(1.16987 0.0978686 6.95392e-20)
(-0.0216549 0.022545 -6.55658e-20)
(-0.0387775 0.0431593 2.11959e-19)
(-0.0336199 0.0500849 2.37738e-19)
(-0.00670401 0.0492502 1.82972e-19)
(0.0421475 0.0450683 2.81775e-19)
(0.114131 0.0406141 2.48866e-19)
(0.210438 0.0381456 -2.80587e-19)
(0.330637 0.039268 3.87744e-19)
(0.470928 0.0446868 3.02791e-19)
(0.62324 0.0543254 -2.78989e-19)
(0.776416 0.0660492 2.11499e-19)
(0.918732 0.0796926 -5.52103e-20)
(1.04092 0.089828 -1.00579e-19)
(1.13294 0.0986719 -1.38189e-19)
(1.22371 0.107221 -7.10959e-20)
(-0.0227746 0.0218473 -1.83338e-19)
(-0.0379206 0.0404103 3.657e-19)
(-0.026907 0.0458387 -1.96563e-20)
(0.00961421 0.0442076 3.80354e-20)
(0.0721622 0.0402709 -5.12469e-20)
(0.161959 0.0373364 -3.77432e-21)
(0.27928 0.0378167 2.39383e-19)
(0.421089 0.0431702 -1.81078e-19)
(0.579339 0.053351 1.82384e-19)
(0.741439 0.0673874 2.25253e-19)
(0.89364 0.0816708 -1.44327e-19)
(1.02425 0.0965175 1.13413e-19)
(1.12652 0.104035 -4.33231e-20)
(1.20108 0.113758 1.04647e-19)
(1.25442 0.112442 4.91051e-20)
(-0.0236834 0.0209599 -2.58755e-19)
(-0.0358863 0.0372102 2.8749e-20)
(-0.0175014 0.0411491 9.78889e-20)
(0.0306818 0.0389909 -1.57471e-19)
(0.109457 0.0358964 -1.8e-19)
(0.219593 0.0354248 1.10355e-19)
(0.359278 0.0399907 -2.04251e-19)
(0.521232 0.0504683 1.60584e-19)
(0.692149 0.0655695 -6.53875e-20)
(0.855696 0.0830358 -2.47445e-19)
(0.997913 0.0985675 -1.40955e-19)
(1.10986 0.112309 2.058e-19)
(1.19051 0.117389 -8.65027e-20)
(1.24392 0.125329 -5.36553e-20)
(1.26879 0.113595 -9.19409e-20)
(-0.0242946 0.0198745 5.0967e-19)
(-0.0323739 0.0335826 -6.26734e-19)
(-0.00485762 0.0361483 -1.43216e-19)
(0.0573045 0.0338952 -8.42623e-20)
(0.154933 0.0324511 5.23563e-20)
(0.287459 0.0355764 -2.07764e-19)
(0.449325 0.0453263 1.20484e-19)
(0.62745 0.0613511 5.94858e-20)
(0.803443 0.080747 -3.93323e-19)
(0.9596 0.10009 3.19626e-19)
(1.08467 0.115183 8.27785e-20)
(1.17485 0.126364 -2.21812e-19)
(1.23437 0.129102 1.29109e-19)
(1.26735 0.1324 8.27586e-20)
(1.28547 0.122122 1.78657e-20)
(-0.0245125 0.0185773 -3.43734e-19)
(-0.0270524 0.029554 5.71035e-19)
(0.0115998 0.0309989 5.55441e-20)
(0.0902518 0.0292688 -2.04594e-19)
(0.209232 0.0305047 2.52121e-19)
(0.36523 0.0384626 -1.52191e-19)
(0.546976 0.0542002 1.61364e-20)
(0.734874 0.0754814 -1.93707e-19)
(0.907347 0.0978181 3.45558e-19)
(1.04861 0.11725 -1.53412e-19)
(1.15255 0.130443 4.15264e-20)
(1.22108 0.138484 -6.43073e-20)
(1.26155 0.138337 -6.04851e-21)
(1.2815 0.139101 9.43208e-21)
(1.29059 0.127763 2.01698e-20)
(-0.0242144 0.0170494 7.39965e-20)
(-0.019571 0.0251763 -3.38578e-19)
(0.0324491 0.0259032 -2.96218e-19)
(0.130195 0.025521 7.84713e-20)
(0.272582 0.0306668 -2.04656e-19)
(0.451597 0.0446148 -1.88225e-19)
(0.648557 0.0665639 5.94971e-20)
(0.838264 0.0920456 2.76415e-19)
(0.999284 0.115564 9.11215e-20)
(1.12077 0.133484 -1.76976e-19)
(1.20273 0.143883 -4.7888e-20)
(1.25172 0.148555 2.53368e-20)
(1.27745 0.146069 1.3838e-19)
(1.28738 0.144436 -3.04884e-20)
(1.29041 0.132623 -3.69214e-20)
(-0.0232608 0.0152811 -4.06126e-20)
(-0.00955773 0.020529 4.45317e-19)
(0.0582501 0.0211092 2.08667e-19)
(0.177625 0.0231234 7.37669e-20)
(0.344614 0.0335313 1.45082e-19)
(0.544198 0.0542862 2.79781e-19)
(0.749685 0.0819135 1.30303e-19)
(0.933063 0.109982 -2.86578e-19)
(1.0767 0.132936 -1.79503e-19)
(1.1764 0.148211 3.0572e-19)
(1.23781 0.15542 -3.00906e-20)
(1.27067 0.156986 -2.0152e-20)
(1.28522 0.152516 -1.76432e-19)
(1.28852 0.149113 -2.25503e-20)
(1.2884 0.137055 1.62651e-19)
(-0.0214993 0.013277 -7.03191e-20)
(0.00337017 0.0157262 -5.63214e-19)
(0.0895119 0.0169214 -4.23285e-20)
(0.232759 0.0226033 -1.18852e-19)
(0.424219 0.0395824 -3.21124e-19)
(0.639794 0.0673534 1.06898e-19)
(0.846058 0.0994169 -2.60972e-19)
(1.01616 0.128266 1.17613e-19)
(1.13904 0.149241 -1.00909e-20)
(1.21731 0.161242 -1.73892e-19)
(1.26093 0.165281 1.12379e-19)
(1.28114 0.16413 -5.72994e-20)
(1.28778 0.158154 7.2578e-20)
(1.28687 0.153353 1.21622e-19)
(1.28423 0.141091 -2.35761e-20)
(-0.018767 0.0110587 -5.1213e-22)
(0.0195922 0.0109257 9.30826e-20)
(0.126646 0.0137105 8.98231e-20)
(0.295412 0.0245097 -8.49921e-21)
(0.509494 0.0490792 4.51414e-20)
(0.734729 0.0833282 -3.38446e-19)
(0.934202 0.11814 7.99227e-20)
(1.08613 0.146112 -5.0961e-20)
(1.18723 0.164144 3.97385e-20)
(1.24599 0.172669 9.86443e-20)
(1.27502 0.173786 -1.19063e-19)
(1.28579 0.170382 2.98542e-20)
(1.28703 0.163278 2.62576e-20)
(1.28338 0.157326 -3.27368e-20)
(1.27956 0.14506 2.21191e-20)
(-0.0148949 0.00866763 1.63399e-19)
(0.0394677 0.00633565 2.88255e-19)
(0.169915 0.0119127 4.41775e-20)
(0.3649 0.0293458 -1.06381e-19)
(0.597884 0.0619753 3.08217e-19)
(0.825539 0.10149 2.05414e-19)
(1.01188 0.137253 -7.40199e-20)
(1.14294 0.163034 2.86275e-21)
(1.22304 0.177589 -6.9417e-20)
(1.26499 0.182726 1.95592e-20)
(1.28257 0.181283 1.57018e-20)
(1.28655 0.176054 -6.80284e-20)
(1.28418 0.168109 -1.4006e-19)
(1.27894 0.161195 8.76088e-20)
(1.27422 0.148986 -1.31654e-19)
(-0.00971292 0.00616755 -1.78734e-19)
(0.0633149 0.00221838 -9.35779e-20)
(0.219362 0.0120178 -2.50727e-19)
(0.439975 0.0374761 3.95311e-19)
(0.686499 0.0779263 -3.44164e-19)
(0.909445 0.121065 1.40216e-19)
(1.07811 0.15614 8.68254e-20)
(1.18754 0.178809 9.58122e-20)
(1.24854 0.189692 5.95288e-20)
(1.27662 0.191701 -1.15989e-20)
(1.28553 0.188079 -5.76093e-20)
(1.28476 0.181389 -1.35441e-19)
(1.28007 0.172799 7.06852e-20)
(1.27384 0.165029 6.62576e-20)
(1.26863 0.152937 1.40915e-19)
(-0.00305637 0.0036451 -1.60251e-19)
(0.0913857 -0.00110839 7.79284e-20)
(0.274741 0.0145357 7.97933e-20)
(0.518879 0.0490447 -1.73581e-19)
(0.772537 0.0963885 6.69382e-20)
(0.9846 0.141372 -5.915e-20)
(1.13291 0.174411 -9.07121e-20)
(1.22139 0.193404 -1.02463e-19)
(1.26576 0.200658 3.80936e-20)
(1.28278 0.199878 1.1562e-19)
(1.28531 0.194427 1.65977e-19)
(1.28131 0.18656 6.36177e-20)
(1.27512 0.177436 -4.18031e-20)
(1.26832 0.168884 -4.46575e-20)
(1.26276 0.156934 -3.75412e-20)
(0.00523476 0.00120689 1.54706e-19)
(0.123836 -0.0032743 -7.71008e-20)
(0.33546 0.0199381 4.43103e-20)
(0.599508 0.0639494 2.51312e-19)
(0.85363 0.116751 2.40207e-19)
(1.05007 0.161884 -2.22694e-19)
(1.177 0.191866 1.08602e-19)
(1.24614 0.206907 1.25454e-19)
(1.27653 0.210724 -2.12744e-19)
(1.28498 0.207506 4.36388e-20)
(1.28292 0.200521 -9.57457e-20)
(1.27675 0.19168 1.5357e-20)
(1.26963 0.182076 -4.74701e-20)
(1.26248 0.172784 8.51069e-20)
(1.25668 0.160975 -9.18977e-20)
(0.015299 -0.00101311 -1.40564e-19)
(0.160693 -0.00386113 9.51271e-20)
(0.400566 0.0285897 1.28531e-19)
(0.679665 0.0818855 -3.32565e-20)
(0.928043 0.138444 -3.03275e-19)
(1.10568 0.182238 -1.07741e-19)
(1.21144 0.208447 -1.67821e-19)
(1.2634 0.219473 7.12978e-20)
(1.28236 0.220122 -1.00001e-20)
(1.28432 0.21479 -1.12297e-19)
(1.27903 0.206496 -1.02744e-19)
(1.27144 0.196819 1.92459e-20)
(1.26371 0.18674 3.86391e-20)
(1.25637 0.176739 -7.82059e-20)
(1.25038 0.16506 3.95205e-20)
(0.0272438 -0.00285895 6.00369e-20)
(0.201817 -0.00242769 1.44354e-21)
(0.468786 0.0406899 -3.86654e-19)
(0.757309 0.102431 -2.77572e-20)
(0.994696 0.160987 2.17439e-19)
(1.15178 0.202209 2.19549e-19)
(1.23749 0.224186 1.49859e-19)
(1.27461 0.231279 -2.74362e-20)
(1.28446 0.229056 4.55805e-20)
(1.28161 0.221885 -1.36206e-21)
(1.27408 0.212445 8.16198e-20)
(1.26555 0.202012 3.1872e-20)
(1.25743 0.191439 6.85257e-20)
(1.24999 0.180752 -5.08651e-20)
(1.24384 0.169171 -3.77951e-20)
(0.0411488 -0.00415471 -1.06891e-20)
(0.246877 0.00146339 1.10003e-19)
(0.538633 0.0562536 2.03282e-19)
(0.830733 0.125129 6.83085e-20)
(1.05308 0.18401 -1.95408e-19)
(1.18905 0.221677 -2.43807e-19)
(1.2564 0.239169 9.96624e-20)
(1.28101 0.242502 -6.00031e-20)
(1.28374 0.237693 1.69002e-19)
(1.27739 0.228899 4.53999e-21)
(1.26832 0.21842 -4.23602e-20)
(1.25919 0.207271 -1.58671e-20)
(1.25083 0.196167 7.69953e-20)
(1.24334 0.184818 6.75003e-20)
(1.23706 0.173294 7.20838e-20)
(0.0570501 -0.00470349 1.58674e-19)
(0.295343 0.00820633 -1.70017e-19)
(0.608535 0.0751321 1.07062e-19)
(0.898649 0.149546 1.5031e-19)
(1.10313 0.207233 1.29686e-19)
(1.21834 0.240598 5.21377e-20)
(1.26931 0.253508 2.7694e-20)
(1.28361 0.253303 -1.06718e-20)
(1.28089 0.246161 -7.75095e-20)
(1.27203 0.235904 2.89784e-20)
(1.26193 0.224447 6.88891e-20)
(1.2524 0.212594 2.79415e-20)
(1.2439 0.200914 -2.6554e-20)
(1.23642 0.188924 -2.80793e-20)
(1.23002 0.177404 -3.38195e-20)
(0.0749298 -0.00429228 -8.52295e-20)
(0.346491 0.0181109 6.17023e-20)
(0.676973 0.0970584 -6.54903e-21)
(0.960184 0.175292 -1.5823e-19)
(1.14509 0.230457 -4.12593e-20)
(1.24054 0.258972 9.22934e-20)
(1.27724 0.26732 -8.17715e-20)
(1.28321 0.263811 5.46471e-21)
(1.27637 0.254548 -5.02411e-21)
(1.26575 0.242937 -2.66379e-20)
(1.25497 0.230533 -4.38231e-20)
(1.24521 0.217964 -6.15134e-20)
(1.23665 0.205665 -2.31564e-20)
(1.2292 0.193057 4.02622e-20)
(1.2227 0.181479 9.51966e-21)
(0.0947074 -0.00270047 -1.10079e-19)
(0.399441 0.0313712 -1.4e-20)
(0.742583 0.121695 -6.99883e-20)
(1.01483 0.20203 6.55381e-20)
(1.1794 0.253536 -7.67522e-20)
(1.25656 0.276829 -3.33106e-20)
(1.28105 0.280713 8.55152e-21)
(1.28039 0.274128 -1.2976e-20)
(1.27053 0.26291 2.56495e-20)
(1.25869 0.250012 2.09641e-22)
(1.24749 0.236665 1.72954e-20)
(1.23761 0.223359 3.0429e-20)
(1.22905 0.210402 3.53132e-20)
(1.22167 0.197197 -1.57847e-20)
(1.21509 0.185492 -1.14813e-20)
(0.116232 0.00028815 6.64332e-20)
(0.453209 0.0480515 7.00352e-20)
(0.804225 0.148673 2.44752e-20)
(1.06238 0.229468 -3.85137e-20)
(1.20662 0.276368 8.47735e-21)
(1.26719 0.294209 5.80496e-20)
(1.28143 0.293776 -3.96559e-20)
(1.27562 0.284322 -3.43924e-20)
(1.26357 0.271272 -1.11887e-20)
(1.25094 0.257122 6.74624e-21)
(1.2395 0.242822 -3.7715e-20)
(1.2296 0.228751 7.95492e-21)
(1.22109 0.215103 2.07857e-20)
(1.21381 0.201322 -8.36873e-21)
(1.20719 0.189417 -6.36577e-21)
(0.139281 0.00487062 -4.36328e-20)
(0.506769 0.0680892 -2.97923e-20)
(0.861006 0.177613 -5.79815e-20)
(1.10282 0.257347 -9.34366e-21)
(1.22733 0.298874 -6.04604e-21)
(1.27315 0.311149 -6.32028e-20)
(1.27895 0.306573 1.98885e-20)
(1.26921 0.29443 1.20256e-20)
(1.25564 0.279635 -1.96455e-20)
(1.24253 0.264244 -1.17863e-20)
(1.231 0.248972 -4.32226e-22)
(1.22115 0.234107 -1.1062e-20)
(1.21276 0.219744 -1.66934e-20)
(1.20563 0.205403 -1.45266e-20)
(1.19901 0.193222 1.02045e-20)
(0.16356 0.0112098 -2.01257e-20)
(0.559103 0.0913104 7.33272e-21)
(0.912273 0.208141 9.86031e-21)
(1.13632 0.285438 1.01339e-20)
(1.24213 0.32099 1.71366e-20)
(1.27508 0.327679 1.19583e-20)
(1.27405 0.319147 -3.32494e-21)
(1.26139 0.304464 1.14233e-20)
(1.24682 0.28798 -5.93424e-22)
(1.23346 0.271345 -7.81099e-23)
(1.22197 0.255078 4.42174e-21)
(1.21226 0.239391 -2.04805e-21)
(1.20406 0.224294 1.37196e-21)
(1.19711 0.209398 5.59036e-21)
(1.19059 0.196873 -4.4126e-21)
(0.188715 0.0194216 -1.28655e-20)
(0.609254 0.11745 -3.2997e-21)
(0.957589 0.239892 1.46359e-20)
(1.16314 0.313527 6.35751e-21)
(1.25159 0.342659 1.74227e-20)
(1.27348 0.343815 1.15534e-20)
(1.26705 0.331511 -3.67727e-22)
(1.25232 0.31441 1.30637e-20)
(1.23715 0.296272 -6.36982e-21)
(1.22376 0.278382 7.04006e-22)
(1.21241 0.261096 3.93568e-21)
(1.20291 0.244563 -1.72115e-21)
(1.19495 0.228716 1.62873e-21)
(1.18828 0.213257 5.61378e-21)
(1.18194 0.200335 -1.96816e-21)
(0.214342 0.0295667 -1.86256e-20)
(0.656364 0.14617 -5.23288e-20)
(0.9967 0.272516 -5.83087e-20)
(1.1836 0.341418 -2.13667e-21)
(1.25622 0.363822 -8.45272e-21)
(1.2688 0.359554 -5.66758e-20)
(1.2582 0.343657 2.7169e-20)
(1.24208 0.324235 2.55075e-21)
(1.22667 0.304463 -1.62547e-20)
(1.2134 0.285305 -1.38925e-20)
(1.2023 0.266982 1.88053e-21)
(1.19308 0.249583 -7.2569e-21)
(1.18545 0.232968 -7.59681e-21)
(1.1791 0.216926 -1.03352e-20)
(1.17304 0.203581 5.87209e-21)
(0.240003 0.0416471 6.98179e-20)
(0.699691 0.177081 5.06699e-20)
(1.0295 0.305667 2.12292e-20)
(1.19806 0.368925 -2.9382e-20)
(1.2565 0.384413 1.33903e-20)
(1.26138 0.374874 3.01306e-20)
(1.2477 0.355553 -2.25404e-20)
(1.23076 0.333889 -4.22394e-20)
(1.21537 0.312498 -2.51492e-21)
(1.20239 0.29206 2.28008e-20)
(1.19163 0.272688 -2.51172e-20)
(1.18278 0.254411 1.04188e-20)
(1.17552 0.237013 4.68078e-21)
(1.16956 0.220364 1.16655e-21)
(1.16378 0.206591 -1.88537e-22)
(0.265244 0.055608 -8.48788e-20)
(0.738628 0.209754 -5.30775e-20)
(1.05601 0.339014 -8.22272e-20)
(1.20691 0.395871 7.12354e-20)
(1.25284 0.404362 -7.28417e-20)
(1.25151 0.389736 -1.65848e-20)
(1.23568 0.367148 -1.20485e-21)
(1.21839 0.343311 1.33665e-21)
(1.20327 0.32031 2.97152e-20)
(1.19071 0.298589 -3.00496e-20)
(1.1804 0.278163 2.37772e-20)
(1.17199 0.259004 8.39704e-21)
(1.16519 0.240819 1.86441e-20)
(1.15965 0.22357 2.12554e-22)
(1.15404 0.209346 -4.57789e-21)
(0.289606 0.0713417 1.20107e-20)
(0.772707 0.243736 1.53447e-20)
(1.07633 0.372227 -2.7782e-20)
(1.21052 0.422084 -1.07276e-19)
(1.24562 0.423586 -2.58457e-20)
(1.23943 0.40408 6.53304e-20)
(1.22224 0.378377 -4.87381e-20)
(1.20501 0.352426 -2.21281e-20)
(1.19037 0.327831 6.69397e-21)
(1.17836 0.304831 -5.61337e-21)
(1.1686 0.283356 -3.05788e-20)
(1.16071 0.263313 -1.40003e-20)
(1.15447 0.244356 -3.02568e-21)
(1.14939 0.226594 3.73831e-21)
(1.14379 0.211833 2.5186e-21)
(0.312648 0.0886913 1.62843e-19)
(0.801601 0.278567 -2.0193e-19)
(1.09061 0.404986 1.34894e-19)
(1.20926 0.447398 6.77248e-20)
(1.23516 0.441996 1.84797e-19)
(1.22532 0.417834 3.76515e-21)
(1.20746 0.38916 4.2455e-20)
(1.19064 0.361156 1.11667e-20)
(1.17667 0.334987 -6.26106e-20)
(1.16535 0.310721 2.16671e-20)
(1.15624 0.288211 1.6238e-20)
(1.14897 0.267288 1.72508e-20)
(1.14336 0.247578 -1.3565e-20)
(1.13875 0.229456 -1.22565e-21)
(1.13335 0.214068 9.00034e-22)
(0.333957 0.107455 -2.17122e-20)
(0.825106 0.313791 2.35128e-19)
(1.09907 0.436983 1.73802e-19)
(1.20349 0.471643 2.78136e-20)
(1.22174 0.459492 -1.71291e-19)
(1.20935 0.430913 -9.81357e-20)
(1.19141 0.399409 2.83401e-20)
(1.1753 0.369412 -1.49369e-20)
(1.16219 0.341699 3.41763e-20)
(1.15169 0.316192 7.00059e-21)
(1.14335 0.292675 6.84834e-21)
(1.13679 0.270886 -8.42124e-21)
(1.13187 0.25046 2.44833e-21)
(1.12771 0.232004 3.83725e-21)
(1.12284 0.216024 -4.12878e-21)
(0.353159 0.127393 1.82052e-19)
(0.843121 0.348959 -1.93775e-19)
(1.10195 0.467915 -2.90143e-19)
(1.19355 0.494651 2.00684e-20)
(1.20563 0.475968 1.34813e-19)
(1.19163 0.443218 1.20531e-19)
(1.17412 0.409025 5.3813e-20)
(1.15902 0.377104 5.79702e-21)
(1.14695 0.34789 4.78011e-21)
(1.13742 0.321176 -5.85958e-22)
(1.12994 0.296681 1.07296e-20)
(1.12418 0.274065 -3.13123e-22)
(1.11999 0.252985 -4.15574e-21)
(1.11635 0.234204 -1.90881e-21)
(1.11214 0.217625 -1.1637e-21)
(0.369932 0.148233 -2.3499e-19)
(0.855635 0.383637 1.78249e-19)
(1.09955 0.497493 1.51303e-19)
(1.17976 0.516253 -9.73226e-20)
(1.18703 0.491309 -1.87384e-19)
(1.17228 0.454647 -3.60545e-20)
(1.15567 0.417899 -7.55258e-20)
(1.14187 0.384138 2.87867e-20)
(1.131 0.353477 -5.32005e-21)
(1.12255 0.325613 -9.42857e-21)
(1.11602 0.300181 -3.64885e-21)
(1.11115 0.276779 -3.92284e-21)
(1.10774 0.2551 -4.43338e-21)
(1.1047 0.236004 4.17063e-21)
(1.10126 0.218848 -4.27162e-21)
(0.384011 0.169678 3.33209e-19)
(0.862715 0.417407 -2.11243e-19)
(1.09216 0.525441 1.08002e-19)
(1.16242 0.536284 9.61991e-20)
(1.16613 0.505389 1.58258e-19)
(1.15142 0.465083 -8.52317e-20)
(1.1362 0.425929 2.70334e-20)
(1.12387 0.390414 2.2667e-20)
(1.11434 0.358399 -1.22627e-20)
(1.10709 0.329434 2.96879e-21)
(1.10163 0.303117 4.10861e-21)
(1.09773 0.278984 -2.55306e-21)
(1.09515 0.256766 8.2842e-21)
(1.09279 0.237371 -1.31542e-20)
(1.09019 0.219666 3.25431e-20)
(0.395189 0.191414 -1.84748e-19)
(0.864497 0.449871 1.19663e-20)
(1.0801 0.5515 7.00188e-20)
(1.14183 0.55459 -1.42176e-19)
(1.1431 0.518064 5.0671e-20)
(1.12927 0.474408 1.42662e-20)
(1.11572 0.43301 -3.21861e-20)
(1.10503 0.395862 -1.13366e-20)
(1.09701 0.36256 7.59341e-21)
(1.09108 0.332574 -2.24115e-21)
(1.0868 0.305437 -1.43308e-20)
(1.08394 0.280636 -2.77487e-20)
(1.08225 0.25794 -7.98514e-21)
(1.08064 0.23827 3.69827e-20)
(1.07895 0.220068 9.92118e-21)
(0.403322 0.213117 3.44043e-20)
(0.861173 0.48065 -1.84901e-19)
(1.06373 0.575431 -2.29318e-19)
(1.11828 0.571034 1.62233e-19)
(1.11826 0.529217 -7.84463e-20)
(1.10586 0.482474 4.17986e-20)
(1.09422 0.439055 1.39812e-20)
(1.08541 0.400377 1.12816e-22)
(1.07906 0.36589 7.25892e-22)
(1.07458 0.334969 -7.5789e-21)
(1.07157 0.307087 1.32117e-20)
(1.06983 0.281695 2.29458e-20)
(1.06908 0.258586 -1.09541e-20)
(1.06827 0.238668 -9.58593e-21)
(1.06758 0.220042 -5.42869e-20)
(0.408329 0.234458 1.3694e-19)
(0.852997 0.509392 3.42866e-19)
(1.04338 0.596998 -5.46248e-20)
(1.09207 0.585425 -1.00949e-19)
(1.09178 0.538764 1.33147e-19)
(1.08121 0.489171 3.1969e-20)
(1.07184 0.443933 -6.18727e-21)
(1.0651 0.403874 -6.15659e-21)
(1.06055 0.368314 -1.52226e-21)
(1.05764 0.336557 2.91858e-20)
(1.05599 0.308018 -1.82416e-20)
(1.05543 0.282118 -6.19053e-21)
(1.05568 0.258665 4.24807e-20)
(1.05572 0.238533 1.5054e-20)
(1.05612 0.219572 4.76846e-20)
(0.410198 0.255115 -6.11932e-20)
(0.8403 0.535792 1.2463e-19)
(1.01934 0.615959 1.03614e-19)
(1.06346 0.597612 -4.88925e-20)
(1.06377 0.546543 -2.90954e-20)
(1.05552 0.49442 -1.22033e-20)
(1.04865 0.447554 -1.89152e-20)
(1.04415 0.40627 7.3856e-21)
(1.04154 0.369766 1.40988e-20)
(1.0403 0.337282 -3.79473e-20)
(1.04011 0.308182 4.41946e-20)
(1.04081 0.281867 -2.47337e-20)
(1.04209 0.258143 -6.15945e-20)
(1.04303 0.237826 8.06176e-20)
(1.04459 0.218635 -5.83166e-20)
(0.408999 0.274761 -1.17366e-19)
(0.823482 0.559641 -4.16934e-19)
(0.991788 0.632045 1.28837e-20)
(1.03274 0.607435 -4.86166e-20)
(1.03443 0.55244 -5.23914e-20)
(1.0289 0.49811 1.37523e-20)
(1.02477 0.449826 2.95491e-20)
(1.02266 0.407489 -2.60865e-20)
(1.0221 0.370181 -2.90785e-20)
(1.02264 0.337089 5.23025e-20)
(1.02399 0.307535 -2.46637e-20)
(1.026 0.280905 -1.33723e-20)
(1.02834 0.256985 -5.17911e-21)
(1.03023 0.236508 -2.25955e-20)
(1.033 0.217212 1.99828e-20)
(0.404872 0.293047 1.10348e-20)
(0.80284 0.580761 2.14672e-19)
(0.961081 0.645124 7.81374e-20)
(1.00022 0.614679 3.02568e-20)
(1.00395 0.55635 6.21866e-21)
(1.0015 0.500148 -3.11658e-20)
(1.00029 0.450669 -3.09299e-20)
(1.0007 0.40746 6.26357e-20)
(1.00231 0.3695 1.12377e-19)
(1.00472 0.33593 -1.15859e-19)
(1.00769 0.306038 -1.53683e-20)
(1.01107 0.279204 1.24171e-20)
(1.0145 0.255166 9.60812e-20)
(1.01736 0.234541 3.02698e-20)
(1.0214 0.215294 -8.71263e-20)
(0.39796 0.309621 6.3876e-20)
(0.778391 0.598692 -1.99286e-19)
(0.927937 0.655322 -2.27278e-20)
(0.966219 0.619229 -1.9393e-20)
(0.972531 0.558155 2.39226e-20)
(0.973442 0.500444 -1.52677e-20)
(0.975317 0.450008 1.17856e-20)
(0.978377 0.40612 -8.37892e-20)
(0.982247 0.367672 -6.13215e-20)
(0.986612 0.33376 8.26404e-20)
(0.99128 0.303652 -5.96416e-20)
(0.99607 0.276734 8.20731e-20)
(1.0006 0.252667 -7.80281e-20)
(1.00454 0.231907 2.26154e-20)
(1.01003 0.212862 8.49572e-20)
(0.388333 0.324304 -1.49445e-19)
(0.750376 0.612969 2.09996e-19)
(0.892771 0.662405 -4.94052e-21)
(0.930988 0.621132 1.95952e-20)
(0.940361 0.55778 -4.94338e-20)
(0.944875 0.498921 1.84847e-20)
(0.949977 0.44778 7.68673e-20)
(0.955784 0.403416 1.02048e-19)
(0.962001 0.364649 -2.09888e-19)
(0.968394 0.330538 6.11888e-20)
(0.974813 0.30034 1.71758e-20)
(0.981039 0.273457 -1.12702e-19)
(0.986749 0.249455 8.94303e-20)
(0.992027 0.2286 -3.08614e-20)
(0.999259 0.209932 3.93331e-20)
(0.376137 0.336896 1.69027e-19)
(0.719532 0.623596 -1.12241e-19)
(0.855836 0.666136 1.61147e-20)
(0.894782 0.620316 -2.31362e-21)
(0.907636 0.555158 -3.06726e-21)
(0.915947 0.495509 7.5354e-20)
(0.924389 0.443929 -1.02545e-19)
(0.933027 0.399302 8.75043e-20)
(0.94166 0.360394 1.27238e-19)
(0.950138 0.326232 -1.77858e-19)
(0.958339 0.296069 5.54591e-20)
(0.966021 0.269317 -2.89409e-20)
(0.973056 0.245435 -7.03153e-21)
(0.980094 0.22453 -9.39525e-20)
(0.989163 0.20671 -4.95173e-20)
(0.36157 0.347117 -4.28022e-20)
(0.686325 0.63042 4.28619e-20)
(0.81746 0.666401 3.2534e-20)
(0.857859 0.616714 1.2832e-20)
(0.874552 0.550238 1.17407e-19)
(0.886813 0.490157 -1.10383e-19)
(0.898683 0.43841 1.45053e-19)
(0.910216 0.393743 -1.15381e-19)
(0.921318 0.354877 1.33587e-19)
(0.931915 0.320822 1.51842e-19)