/*--------------------------------*- C++ -*----------------------------------*\
  =========                 |
  \\      /  F ield         | OpenFOAM: The Open Source CFD Toolbox
   \\    /   O peration     | Website:  https://openfoam.org
    \\  /    A nd           | Version:  7
     \\/     M anipulation  |
\*---------------------------------------------------------------------------*/
FoamFile
{
    version     2.0;
    format      ascii;
    class       volScalarField;
    location    "90";
    object      p;
}
// * * * * * * * * * * * * * * * * * * * * * * * * * * * * * * * * * * * * * //

dimensions      [0 2 -2 0 0 0 0];

internalField   nonuniform List<scalar> 
3500
(
-0.189583
-0.187475
-0.185339
-0.183174
-0.180975
-0.178738
-0.176458
-0.174131
-0.171749
-0.169307
-0.166798
-0.16421
-0.161533
-0.158745
-0.155834
-0.152937
-0.149943
-0.146827
-0.143612
-0.140304
-0.136907
-0.133427
-0.129871
-0.12625
-0.122575
-0.118859
-0.115115
-0.111359
-0.107606
-0.103872
-0.10017
-0.0965157
-0.092922
-0.0894018
-0.0859658
-0.082623
-0.0793798
-0.0762404
-0.0732092
-0.0702896
-0.0674565
-0.0647258
-0.0620947
-0.0595532
-0.0570967
-0.0547365
-0.0524268
-0.0501995
-0.0480274
-0.0458869
-0.0437606
-0.0417647
-0.0397913
-0.0378312
-0.0358997
-0.0340003
-0.0321359
-0.03031
-0.0285263
-0.0267897
-0.0251055
-0.0234792
-0.0219167
-0.0204233
-0.0190042
-0.017664
-0.0164062
-0.0152335
-0.0141475
-0.0131482
-0.0122349
-0.0114052
-0.0106555
-0.00998092
-0.0093753
-0.00883124
-0.00834031
-0.00789309
-0.00747936
-0.00708815
-0.00670784
-0.00632604
-0.00592928
-0.00550246
-0.00502667
-0.00447464
-0.0037956
-0.00315816
-0.00232426
-0.00137059
8.97173e-05
-0.190771
-0.189228
-0.187672
-0.186092
-0.184478
-0.182818
-0.181098
-0.179306
-0.177427
-0.175445
-0.173344
-0.171105
-0.168725
-0.166182
-0.163589
-0.160738
-0.15773
-0.154551
-0.151206
-0.147684
-0.143991
-0.140139
-0.136142
-0.132013
-0.127768
-0.123427
-0.119011
-0.114542
-0.110043
-0.105534
-0.101036
-0.096572
-0.0921638
-0.0878328
-0.0835977
-0.0794749
-0.0754786
-0.07162
-0.0679081
-0.0644442
-0.0610035
-0.0577456
-0.0546675
-0.0517471
-0.0489805
-0.0463667
-0.0438949
-0.0415639
-0.0393616
-0.0372758
-0.0352991
-0.0334366
-0.0316729
-0.0300129
-0.0284374
-0.0269477
-0.0255407
-0.0242134
-0.0229637
-0.0217907
-0.020694
-0.0196736
-0.0187298
-0.0178623
-0.0170708
-0.0163543
-0.0157109
-0.0151379
-0.0146316
-0.0141871
-0.0137989
-0.01346
-0.0131629
-0.0128988
-0.012658
-0.01243
-0.0122034
-0.0119664
-0.0117064
-0.0114105
-0.0110653
-0.0106568
-0.0101703
-0.00959014
-0.00890074
-0.00809127
-0.00716203
-0.0059033
-0.00442326
-0.00276852
-0.000453448
-0.192119
-0.191078
-0.190035
-0.188973
-0.187876
-0.186723
-0.185495
-0.184169
-0.182721
-0.181123
-0.17935
-0.177361
-0.175302
-0.173057
-0.170537
-0.16777
-0.164757
-0.161435
-0.157919
-0.154209
-0.150236
-0.146044
-0.141645
-0.137057
-0.132302
-0.127404
-0.122391
-0.117291
-0.112132
-0.106941
-0.101744
-0.0965743
-0.0914598
-0.0864279
-0.0815035
-0.0767093
-0.0720655
-0.0675901
-0.063299
-0.0592082
-0.0553008
-0.0516002
-0.0481165
-0.0448486
-0.0417946
-0.0389519
-0.0363159
-0.0338814
-0.0316411
-0.0295861
-0.0277078
-0.0259979
-0.0244458
-0.0230419
-0.0217792
-0.0206593
-0.0196713
-0.0188024
-0.0180458
-0.0173955
-0.0168457
-0.0163907
-0.0160247
-0.0157417
-0.0155352
-0.0153984
-0.0153233
-0.0153016
-0.0153237
-0.0153798
-0.0154589
-0.0155502
-0.0156422
-0.0157229
-0.0157794
-0.0157989
-0.0157678
-0.0156727
-0.0154999
-0.0152355
-0.0148649
-0.0143744
-0.0137486
-0.012973
-0.0120255
-0.0108883
-0.00952398
-0.00789715
-0.00592283
-0.00373474
-0.000827223
-0.192807
-0.192177
-0.191531
-0.190849
-0.190103
-0.189264
-0.188295
-0.187166
-0.185833
-0.184403
-0.182795
-0.180856
-0.178678
-0.176228
-0.173488
-0.170448
-0.167103
-0.163468
-0.159538
-0.155316
-0.15082
-0.14607
-0.141088
-0.135899
-0.130533
-0.125022
-0.119398
-0.113696
-0.107949
-0.102192
-0.096461
-0.0907879
-0.0852045
-0.07974
-0.0744212
-0.0692724
-0.0643148
-0.0595669
-0.0550434
-0.0507531
-0.0467064
-0.042912
-0.0393748
-0.0360965
-0.0330764
-0.030312
-0.027799
-0.0255316
-0.0235023
-0.0217025
-0.0201229
-0.0187527
-0.0175805
-0.0165946
-0.0157612
-0.015151
-0.014679
-0.0143442
-0.0141401
-0.0140569
-0.0140833
-0.0142083
-0.01442
-0.0147062
-0.0150543
-0.015451
-0.0158824
-0.0163338
-0.0167898
-0.0172346
-0.0176543
-0.018035
-0.018362
-0.0186203
-0.0187955
-0.018873
-0.0188383
-0.0186778
-0.018378
-0.0179254
-0.0173086
-0.0165102
-0.0155165
-0.0143108
-0.0128768
-0.0111733
-0.00920291
-0.00684791
-0.00429392
-0.00105317
-0.194238
-0.193909
-0.193565
-0.193184
-0.192731
-0.19217
-0.191458
-0.190619
-0.189623
-0.188332
-0.186805
-0.185006
-0.182912
-0.180504
-0.177765
-0.174686
-0.171263
-0.167498
-0.163399
-0.158977
-0.154246
-0.149227
-0.143947
-0.138433
-0.13272
-0.126842
-0.120837
-0.114744
-0.108601
-0.102447
-0.0963202
-0.0902568
-0.084291
-0.0784547
-0.0727773
-0.067285
-0.0620014
-0.0569468
-0.052138
-0.0475887
-0.0433103
-0.039312
-0.0356003
-0.0321789
-0.029049
-0.0262093
-0.0236567
-0.0213864
-0.0193917
-0.0176644
-0.0161953
-0.014974
-0.0139904
-0.0132356
-0.012708
-0.012325
-0.0121418
-0.0121303
-0.01227
-0.0125451
-0.0129397
-0.0134379
-0.0140229
-0.0146773
-0.015384
-0.0161254
-0.0168838
-0.0176401
-0.0183733
-0.0190595
-0.0196865
-0.0202406
-0.0207058
-0.0210634
-0.0213
-0.0214008
-0.0213509
-0.0211395
-0.0207523
-0.0201797
-0.0194085
-0.0184274
-0.0172258
-0.0157872
-0.0141038
-0.0121376
-0.00991361
-0.0073128
-0.00454616
-0.00118539
-0.195205
-0.195054
-0.194866
-0.194686
-0.194421
-0.194035
-0.193525
-0.192821
-0.191913
-0.190758
-0.189332
-0.187608
-0.185561
-0.183175
-0.180433
-0.177325
-0.173849
-0.170005
-0.165802
-0.161252
-0.156372
-0.151186
-0.145721
-0.140009
-0.134086
-0.127991
-0.121762
-0.115441
-0.109069
-0.102687
-0.0963351
-0.0900506
-0.0838695
-0.0778251
-0.0719479
-0.0662655
-0.0608023
-0.0555798
-0.0506163
-0.0459269
-0.0415243
-0.0374184
-0.0336165
-0.0301235
-0.0269417
-0.0240709
-0.0215092
-0.0192523
-0.0172943
-0.0156274
-0.0142424
-0.0131284
-0.0122736
-0.0116649
-0.0112865
-0.0111137
-0.0111434
-0.0113608
-0.0117401
-0.0122491
-0.0128829
-0.0136227
-0.0144466
-0.015333
-0.0162615
-0.0172121
-0.0181658
-0.0191028
-0.0199979
-0.0207915
-0.0215046
-0.022124
-0.0226332
-0.0229958
-0.0232141
-0.0232698
-0.0231509
-0.0228442
-0.02234
-0.021629
-0.0207028
-0.019552
-0.0181706
-0.0165455
-0.0146783
-0.0125373
-0.0101607
-0.00744545
-0.00459376
-0.00126835
-0.195547
-0.195494
-0.195344
-0.19513
-0.194811
-0.194357
-0.193721
-0.192868
-0.191764
-0.190378
-0.188686
-0.186662
-0.184288
-0.18155
-0.178437
-0.174946
-0.171078
-0.166843
-0.162254
-0.157328
-0.152092
-0.146573
-0.140804
-0.134821
-0.128664
-0.122372
-0.115987
-0.109551
-0.103105
-0.0966894
-0.0903416
-0.084098
-0.077992
-0.0720546
-0.0663135
-0.0607938
-0.0555172
-0.0505028
-0.0457665
-0.0413216
-0.0371789
-0.0333463
-0.0298294
-0.0266315
-0.0237533
-0.0211937
-0.0189491
-0.0170141
-0.0153816
-0.0140422
-0.0129852
-0.0121979
-0.011666
-0.0113736
-0.0113043
-0.0114476
-0.0117897
-0.0123215
-0.0129199
-0.0136636
-0.0145167
-0.0154493
-0.0164366
-0.017456
-0.0184867
-0.0195119
-0.0205259
-0.0215617
-0.0222671
-0.0229482
-0.0235373
-0.0239939
-0.0243155
-0.0244661
-0.0244358
-0.0242153
-0.0237951
-0.0231668
-0.0223236
-0.0212603
-0.0199718
-0.0184562
-0.016706
-0.0147281
-0.0125013
-0.0100653
-0.00734716
-0.00450979
-0.00132392
-0.194981
-0.194851
-0.194644
-0.194327
-0.193868
-0.193229
-0.192377
-0.191279
-0.189906
-0.18823
-0.186228
-0.183882
-0.181176
-0.178102
-0.174656
-0.170841
-0.166663
-0.162137
-0.157282
-0.15212
-0.14668
-0.140994
-0.135097
-0.129028
-0.122825
-0.116528
-0.110179
-0.103816
-0.0974785
-0.0912043
-0.0850284
-0.0789838
-0.0731006
-0.0674067
-0.0619268
-0.056683
-0.0516945
-0.0469778
-0.0425468
-0.0384127
-0.0345842
-0.0310678
-0.0278674
-0.0249848
-0.0224196
-0.020169
-0.0182284
-0.0165912
-0.0152484
-0.0141896
-0.0134019
-0.0128713
-0.0125818
-0.0125181
-0.0126607
-0.0129834
-0.0134549
-0.0141535
-0.0149456
-0.0158187
-0.0167548
-0.0177299
-0.0187209
-0.019705
-0.0206554
-0.0215348
-0.0222659
-0.0231566
-0.0238548
-0.0243946
-0.0247805
-0.0250045
-0.0250531
-0.0249158
-0.0245838
-0.02405
-0.0233087
-0.0223562
-0.0211898
-0.0198082
-0.0182121
-0.0164006
-0.0143817
-0.0121479
-0.00972976
-0.00709227
-0.00434014
-0.00135556
-0.19358
-0.193389
-0.193123
-0.192751
-0.192245
-0.191569
-0.19069
-0.189578
-0.188204
-0.186542
-0.184569
-0.182268
-0.179624
-0.176629
-0.17328
-0.169577
-0.165528
-0.161147
-0.156449
-0.151458
-0.1462
-0.140705
-0.135005
-0.129137
-0.123137
-0.117042
-0.110892
-0.104722
-0.0985706
-0.0924717
-0.0864589
-0.080564
-0.0748165
-0.0692438
-0.0638706
-0.0587189
-0.0538081
-0.0491551
-0.0447743
-0.0406776
-0.0368743
-0.0333717
-0.0301746
-0.0272857
-0.0247053
-0.0224318
-0.0204613
-0.018788
-0.0174039
-0.0162989
-0.0154612
-0.0148757
-0.0145252
-0.01439
-0.0144526
-0.0147
-0.0151147
-0.0156813
-0.0163621
-0.0171345
-0.0179777
-0.0188683
-0.0197786
-0.02068
-0.0215452
-0.0223506
-0.023079
-0.0237506
-0.0243056
-0.0247244
-0.0249939
-0.0251024
-0.0250384
-0.0247926
-0.0243574
-0.0237276
-0.0228992
-0.021871
-0.0206419
-0.0192144
-0.0175902
-0.015775
-0.0137743
-0.0115959
-0.00925373
-0.00675155
-0.00412928
-0.00136825
-0.190561
-0.190212
-0.189768
-0.189205
-0.188491
-0.187595
-0.186491
-0.185153
-0.183555
-0.181676
-0.1795
-0.177011
-0.174201
-0.171065
-0.167602
-0.163818
-0.159722
-0.155328
-0.150654
-0.145724
-0.140563
-0.135201
-0.129667
-0.123996
-0.118222
-0.112379
-0.106502
-0.100626
-0.0947839
-0.0890074
-0.0833268
-0.0777696
-0.0723625
-0.0671302
-0.062095
-0.0572767
-0.0526928
-0.0483584
-0.0442865
-0.0404874
-0.0369694
-0.0337387
-0.030799
-0.0281521
-0.0257977
-0.0237332
-0.021954
-0.0204534
-0.0192225
-0.0182507
-0.0175254
-0.0170328
-0.0167575
-0.0166808
-0.0167798
-0.0170356
-0.0174319
-0.0179467
-0.0185557
-0.0192346
-0.0199586
-0.0207024
-0.0214412
-0.0221512
-0.022811
-0.0234022
-0.0239117
-0.0243156
-0.0245943
-0.0247328
-0.0247193
-0.0245437
-0.0241979
-0.0236752
-0.0229718
-0.0220845
-0.021014
-0.0197601
-0.0183282
-0.0167197
-0.0149463
-0.013009
-0.0109292
-0.00870379
-0.00636967
-0.00390922
-0.00137728
-0.18685
-0.186389
-0.185834
-0.18516
-0.18434
-0.183346
-0.182152
-0.180737
-0.179078
-0.177159
-0.174962
-0.172478
-0.169699
-0.166622
-0.163247
-0.159581
-0.155633
-0.151418
-0.146952
-0.142257
-0.137356
-0.132277
-0.127047
-0.121696
-0.116256
-0.110757
-0.10523
-0.0997064
-0.0942157
-0.0887864
-0.0834456
-0.078219
-0.0731305
-0.0682023
-0.0634543
-0.0589045
-0.0545688
-0.050461
-0.0465929
-0.0429741
-0.0396122
-0.0365128
-0.0336795
-0.0311137
-0.0288155
-0.0267827
-0.0250114
-0.0234955
-0.0222273
-0.0211971
-0.020393
-0.0198008
-0.019404
-0.0191859
-0.0191311
-0.0192235
-0.0194447
-0.0197734
-0.0201867
-0.020662
-0.0211766
-0.0217079
-0.0222339
-0.0227335
-0.023187
-0.0235764
-0.0238852
-0.0240965
-0.024195
-0.0241674
-0.0240027
-0.0236919
-0.0232282
-0.0226063
-0.021824
-0.0208793
-0.0197747
-0.0185105
-0.0170948
-0.0155281
-0.0138269
-0.0119879
-0.0100424
-0.00797306
-0.00584018
-0.00358411
-0.00131498
-0.180232
-0.179613
-0.178893
-0.178049
-0.17706
-0.175906
-0.174568
-0.173029
-0.171272
-0.169285
-0.167058
-0.164582
-0.161854
-0.158873
-0.155642
-0.152167
-0.148457
-0.144524
-0.140384
-0.136056
-0.131558
-0.126915
-0.122148
-0.117284
-0.112347
-0.107364
-0.102361
-0.097362
-0.0923932
-0.0874784
-0.0826404
-0.0779011
-0.0732806
-0.0687976
-0.0644696
-0.0603119
-0.0563386
-0.0525617
-0.0489918
-0.0456374
-0.0425056
-0.0396016
-0.0369292
-0.03449
-0.0322838
-0.0303087
-0.0285613
-0.0270362
-0.0257264
-0.0246233
-0.0237165
-0.0229942
-0.0224437
-0.0220519
-0.0218043
-0.0216847
-0.0216756
-0.0217586
-0.0219147
-0.0221246
-0.0223687
-0.0226282
-0.0228842
-0.0231188
-0.0233149
-0.0234567
-0.0235292
-0.0235187
-0.0234126
-0.0231999
-0.0228719
-0.0224208
-0.0218417
-0.0211301
-0.0202852
-0.0193051
-0.0181936
-0.0169505
-0.0155854
-0.0140971
-0.012505
-0.0108009
-0.00902314
-0.00714194
-0.0052342
-0.00320994
-0.00121917
-0.173413
-0.172672
-0.171831
-0.170872
-0.16978
-0.168538
-0.167133
-0.165552
-0.163782
-0.161815
-0.159641
-0.157257
-0.154659
-0.151847
-0.148824
-0.145596
-0.14217
-0.138556
-0.134769
-0.130822
-0.126732
-0.122517
-0.118198
-0.113794
-0.109327
-0.104819
-0.100292
-0.0957656
-0.0912627
-0.0868034
-0.0824072
-0.078093
-0.0738782
-0.0697794
-0.0658116
-0.0619887
-0.0583229
-0.0548251
-0.0515046
-0.0483694
-0.0454258
-0.0426785
-0.0401307
-0.0377841
-0.0356386
-0.0336928
-0.0319438
-0.0303871
-0.029017
-0.0278261
-0.026806
-0.025947
-0.0252382
-0.0246675
-0.0242215
-0.0238862
-0.0236469
-0.0234883
-0.0233945
-0.0233494
-0.0233367
-0.0233403
-0.0233443
-0.0233335
-0.0232935
-0.0232104
-0.0230718
-0.022866
-0.0225828
-0.022213
-0.0217492
-0.0211852
-0.0205167
-0.0197402
-0.0188551
-0.0178599
-0.0167586
-0.0155505
-0.0142455
-0.0128411
-0.0113576
-0.00978354
-0.00815988
-0.00644969
-0.00473704
-0.00291439
-0.00114446
-0.166476
-0.165672
-0.16477
-0.163756
-0.162618
-0.161345
-0.159925
-0.158348
-0.156606
-0.154692
-0.1526
-0.150326
-0.14787
-0.145232
-0.142415
-0.139423
-0.136264
-0.132947
-0.129482
-0.125881
-0.12216
-0.118333
-0.114417
-0.110429
-0.106386
-0.102306
-0.098209
-0.0941117
-0.0900322
-0.0859879
-0.0819956
-0.0780711
-0.0742297
-0.0704854
-0.0668512
-0.0633392
-0.05996
-0.0567231
-0.0536367
-0.0507078
-0.0479419
-0.0453433
-0.0429149
-0.0406583
-0.0385738
-0.0366602
-0.0349154
-0.0333356
-0.0319161
-0.0306508
-0.0295325
-0.0285529
-0.0277026
-0.0269713
-0.026348
-0.0258211
-0.0253782
-0.0250065
-0.0246926
-0.0244231
-0.0241844
-0.0239628
-0.0237454
-0.0235192
-0.0232721
-0.0229928
-0.0226707
-0.022296
-0.0218602
-0.0213558
-0.0207764
-0.0201169
-0.0193739
-0.0185442
-0.0176278
-0.0166231
-0.015534
-0.0143595
-0.0131093
-0.0117797
-0.0103906
-0.00892874
-0.00743449
-0.00586773
-0.00431169
-0.00265326
-0.00105596
-0.159814
-0.158982
-0.158054
-0.157021
-0.155872
-0.154599
-0.153193
-0.151648
-0.149957
-0.148115
-0.146119
-0.143967
-0.141658
-0.139193
-0.136575
-0.133808
-0.1309
-0.127856
-0.124687
-0.121403
-0.118016
-0.114539
-0.110984
-0.107367
-0.103702
-0.100004
-0.0962894
-0.0925721
-0.0888677
-0.0851908
-0.0815558
-0.0779761
-0.0744648
-0.071034
-0.0676949
-0.064458
-0.0613326
-0.058327
-0.0554484
-0.052703
-0.0500957
-0.0476304
-0.0453099
-0.0431356
-0.0411079
-0.0392262
-0.0374886
-0.0358922
-0.034433
-0.0331059
-0.0319048
-0.030823
-0.0298526
-0.0289851
-0.0282112
-0.0275214
-0.0269051
-0.0263516
-0.0258499
-0.0253886
-0.0249567
-0.0245427
-0.024136
-0.0237258
-0.0233021
-0.0228553
-0.0223767
-0.0218583
-0.0212928
-0.0206739
-0.0199966
-0.0192564
-0.0184505
-0.0175762
-0.0166336
-0.0156213
-0.0145429
-0.0133969
-0.0121923
-0.010925
-0.00961336
-0.00824343
-0.00685315
-0.00540199
-0.00396901
-0.00244295
-0.000980068
-0.153468
-0.15264
-0.151717
-0.150694
-0.149562
-0.148316
-0.14695
-0.145458
-0.143836
-0.142081
-0.140191
-0.138165
-0.136002
-0.133705
-0.131276
-0.128719
-0.126039
-0.123244
-0.120341
-0.117339
-0.114248
-0.111078
-0.107841
-0.10455
-0.101215
-0.097851
-0.0944697
-0.0910844
-0.0877077
-0.0843521
-0.0810297
-0.0777523
-0.0745309
-0.0713759
-0.0682972
-0.0653037
-0.0624035
-0.0596038
-0.0569111
-0.0543308
-0.0518672
-0.0495238
-0.0473032
-0.0452068
-0.0432351
-0.0413877
-0.039663
-0.0380589
-0.0365719
-0.0351981
-0.0339323
-0.032769
-0.0317016
-0.0307232
-0.029826
-0.0290019
-0.0282422
-0.0275381
-0.0268804
-0.0262598
-0.0256671
-0.025093
-0.0245284
-0.0239646
-0.0233932
-0.0228064
-0.0221969
-0.0215579
-0.0208835
-0.0201685
-0.0194086
-0.0186001
-0.0177407
-0.016828
-0.0158621
-0.0148418
-0.0137701
-0.0126456
-0.0114762
-0.0102574
-0.0090061
-0.00770812
-0.0063984
-0.00503747
-0.0036987
-0.00227576
-0.000914165
-0.147471
-0.146669
-0.145774
-0.144782
-0.143689
-0.142488
-0.141178
-0.139753
-0.138212
-0.136551
-0.134771
-0.13287
-0.13085
-0.128712
-0.126459
-0.124094
-0.121623
-0.119051
-0.116386
-0.113634
-0.110804
-0.107906
-0.104948
-0.101942
-0.0988973
-0.0958249
-0.0927358
-0.0896409
-0.086551
-0.0834768
-0.0804286
-0.0774165
-0.07445
-0.071538
-0.0686889
-0.0659107
-0.0632103
-0.060594
-0.0580675
-0.0556355
-0.0533019
-0.0510699
-0.0489417
-0.0469189
-0.0450019
-0.0431905
-0.0414837
-0.0398796
-0.0383756
-0.0369684
-0.0356538
-0.0344273
-0.0332834
-0.0322164
-0.0312198
-0.030287
-0.0294108
-0.0285839
-0.0277988
-0.0270476
-0.0263229
-0.0256169
-0.0249221
-0.0242314
-0.0235379
-0.0228349
-0.0221164
-0.0213769
-0.0206115
-0.0198158
-0.0189862
-0.0181195
-0.0172139
-0.0162674
-0.01528
-0.0142505
-0.0131817
-0.0120718
-0.0109281
-0.00974574
-0.00853995
-0.00729683
-0.00604825
-0.00475638
-0.00348872
-0.00214501
-0.000859794
-0.141824
-0.141063
-0.140211
-0.139265
-0.138223
-0.137081
-0.135837
-0.134489
-0.133034
-0.131471
-0.129802
-0.128024
-0.126141
-0.124153
-0.122063
-0.119875
-0.117594
-0.115224
-0.112771
-0.110242
-0.107645
-0.104986
-0.102275
-0.0995195
-0.0967291
-0.0939128
-0.0910797
-0.0882394
-0.0854009
-0.0825735
-0.0797659
-0.0769868
-0.0742444
-0.0715464
-0.0689001
-0.0663123
-0.0637891
-0.0613361
-0.0589582
-0.0566596
-0.0544437
-0.0523135
-0.050271
-0.0483176
-0.0464539
-0.04468
-0.042995
-0.0413975
-0.0398854
-0.0384562
-0.0371064
-0.0358322
-0.0346293
-0.0334928
-0.0324176
-0.0313981
-0.0304284
-0.0295025
-0.0286141
-0.0277569
-0.0269246
-0.0261109
-0.0253095
-0.0245146
-0.0237204
-0.0229215
-0.0221129
-0.0212899
-0.0204486
-0.0195852
-0.0186967
-0.0177806
-0.0168352
-0.0158587
-0.0148514
-0.0138119
-0.0127426
-0.0116419
-0.0105159
-0.00935998
-0.0081877
-0.00698552
-0.00578252
-0.00454266
-0.00332805
-0.00204443
-0.000816242
-0.136515
-0.135804
-0.135005
-0.134116
-0.133135
-0.13206
-0.130889
-0.129622
-0.128257
-0.126794
-0.125233
-0.123575
-0.121822
-0.119975
-0.118037
-0.116011
-0.113903
-0.111715
-0.109453
-0.107124
-0.104733
-0.102288
-0.0997942
-0.0972605
-0.0946941
-0.0921031
-0.0894952
-0.0868786
-0.0842611
-0.0816505
-0.0790546
-0.0764806
-0.0739357
-0.0714267
-0.0689598
-0.0665408
-0.0641753
-0.061868
-0.0596233
-0.0574448
-0.0553359
-0.0532989
-0.0513358
-0.049448
-0.0476361
-0.0459003
-0.0442401
-0.0426544
-0.0411417
-0.0396997
-0.0383258
-0.037017
-0.0357696
-0.0345797
-0.0334431
-0.0323552
-0.0313112
-0.0303061
-0.0293348
-0.028392
-0.0274725
-0.0265712
-0.025683
-0.0248028
-0.0239261
-0.0230483
-0.0221653
-0.0212732
-0.0203687
-0.0194486
-0.0185106
-0.0175524
-0.0165726
-0.0155697
-0.0145439
-0.0134938
-0.0124216
-0.0113256
-0.0102112
-0.00907367
-0.00792535
-0.00675305
-0.00558341
-0.00438211
-0.00320655
-0.00196793
-0.000781891
-0.131533
-0.130879
-0.130139
-0.129313
-0.128398
-0.127394
-0.126301
-0.125117
-0.123842
-0.122477
-0.121023
-0.11948
-0.11785
-0.116135
-0.114338
-0.112462
-0.11051
-0.108488
-0.106399
-0.104248
-0.102042
-0.0997856
-0.0974855
-0.095148
-0.0927797
-0.0903876
-0.0879784
-0.085559
-0.0831363
-0.080717
-0.0783077
-0.0759149
-0.0735447
-0.0712029
-0.068895
-0.0666262
-0.0644012
-0.0622242
-0.0600992
-0.0580293
-0.0560174
-0.0540659
-0.0521765
-0.0503505
-0.0485887
-0.0468913
-0.045258
-0.0436881
-0.0421804
-0.0407332
-0.0393443
-0.0380114
-0.0367314
-0.0355013
-0.0343176
-0.0331764
-0.032074
-0.0310061
-0.0299686
-0.0289571
-0.0279675
-0.0269954
-0.0260366
-0.0250871
-0.024143
-0.0232005
-0.0222562
-0.0213069
-0.0203499
-0.0193826
-0.0184028
-0.0174088
-0.0163993
-0.015373
-0.0143301
-0.0132692
-0.0121924
-0.0110977
-0.00999015
-0.00886486
-0.00773311
-0.00658208
-0.00543635
-0.00426314
-0.00311586
-0.00191048
-0.000755165
-0.126866
-0.126273
-0.125596
-0.124835
-0.12399
-0.12306
-0.122044
-0.120944
-0.119759
-0.11849
-0.117138
-0.115704
-0.11419
-0.112599
-0.110932
-0.109193
-0.107385
-0.105512
-0.103579
-0.101589
-0.0995476
-0.0974603
-0.0953322
-0.0931691
-0.0909765
-0.0887606
-0.0865271
-0.0842822
-0.0820318
-0.0797816
-0.0775375
-0.0753051
-0.0730896
-0.0708962
-0.0687298
-0.0665947
-0.0644952
-0.0624351
-0.0604177
-0.058446
-0.0565225
-0.0546494
-0.0528284
-0.0510606
-0.0493469
-0.0476876
-0.0460827
-0.0445316
-0.0430334
-0.0415868
-0.0401903
-0.0388418
-0.037539
-0.0362794
-0.0350601
-0.0338781
-0.0327302
-0.031613
-0.0305232
-0.0294571
-0.0284113
-0.0273823
-0.0263665
-0.0253607
-0.0243617
-0.0233663
-0.0223717
-0.0213753
-0.0203748
-0.0193679
-0.0183531
-0.0173285
-0.0162934
-0.0152465
-0.0141879
-0.0131164
-0.0120338
-0.0109381
-0.00983376
-0.00871601
-0.00759517
-0.00645878
-0.00532969
-0.00417648
-0.0030492
-0.00186794
-0.000734568
-0.122503
-0.121972
-0.12136
-0.120667
-0.119891
-0.119035
-0.118097
-0.117079
-0.115981
-0.114804
-0.113549
-0.112219
-0.110814
-0.109337
-0.10779
-0.106177
-0.1045
-0.102763
-0.10097
-0.0991252
-0.0972323
-0.0952962
-0.0933217
-0.0913138
-0.0892775
-0.0872181
-0.0851406
-0.0830504
-0.0809526
-0.0788524
-0.0767548
-0.0746647
-0.0725867
-0.0705253
-0.0684849
-0.0664692
-0.0644821
-0.0625269
-0.0606065
-0.0587238
-0.0568809
-0.0550798
-0.0533222
-0.0516091
-0.0499415
-0.0483196
-0.0467437
-0.0452134
-0.0437282
-0.0422869
-0.0408885
-0.0395312
-0.0382134
-0.036933
-0.0356876
-0.0344749
-0.0332923
-0.0321369
-0.0310061
-0.0298969
-0.0288064
-0.0277319
-0.0266703
-0.0256191
-0.0245755
-0.023537
-0.0225013
-0.0214661
-0.0204295
-0.0193898
-0.0183454
-0.017295
-0.0162378
-0.0151727
-0.0140999
-0.0130182
-0.0119291
-0.0108306
-0.00972688
-0.00861314
-0.00749894
-0.00637216
-0.00525415
-0.00411476
-0.00300116
-0.00183698
-0.000718827
-0.118436
-0.117967
-0.117419
-0.116791
-0.116085
-0.115301
-0.114439
-0.1135
-0.112486
-0.111396
-0.110234
-0.109001
-0.107697
-0.106326
-0.104891
-0.103393
-0.101835
-0.100222
-0.0985562
-0.0968415
-0.0950817
-0.0932812
-0.091444
-0.0895747
-0.0876776
-0.0857574
-0.0838186
-0.0818659
-0.0799038
-0.0779369
-0.0759695
-0.0740059
-0.0720503
-0.0701066
-0.0681785
-0.0662697
-0.0643834
-0.0625225
-0.0606898
-0.0588876
-0.0571182
-0.0553833
-0.0536844
-0.0520227
-0.0503989
-0.0488135
-0.0472669
-0.0457588
-0.0442888
-0.0428564
-0.0414605
-0.0401
-0.0387734
-0.0374791
-0.0362153
-0.0349801
-0.0337714
-0.0325868
-0.0314243
-0.0302814
-0.0291558
-0.0280451
-0.026947
-0.0258593
-0.0247798
-0.0237063
-0.022637
-0.0215699
-0.0205036
-0.0194365
-0.0183674
-0.0172951
-0.0162189
-0.0151379
-0.0140523
-0.0129607
-0.0118648
-0.0107625
-0.00965755
-0.00854526
-0.00743451
-0.00631353
-0.00520244
-0.00407215
-0.00296743
-0.00181497
-0.000706902
-0.114653
-0.114245
-0.113759
-0.113196
-0.112556
-0.111842
-0.111053
-0.11019
-0.109255
-0.108249
-0.107173
-0.10603
-0.104821
-0.103549
-0.102215
-0.100822
-0.0993738
-0.0978725
-0.0963216
-0.0947244
-0.0930845
-0.0914055
-0.0896913
-0.0879458
-0.086173
-0.0843769
-0.0825617
-0.0807314
-0.0788901
-0.0770417
-0.0751902
-0.0733394
-0.0714928
-0.0696542
-0.0678267
-0.0660135
-0.0642176
-0.0624417
-0.0606881
-0.0589592
-0.0572568
-0.0555826
-0.0539381
-0.0523243
-0.050742
-0.0491919
-0.0476743
-0.0461891
-0.0447362
-0.0433152
-0.0419253
-0.0405656
-0.0392352
-0.0379326
-0.0366566
-0.0354055
-0.0341776
-0.0329713
-0.0317846
-0.0306157
-0.0294627
-0.0283236
-0.0271965
-0.0260797
-0.0249713
-0.0238696
-0.0227729
-0.0216799
-0.0205891
-0.0194993
-0.0184095
-0.0173186
-0.0162262
-0.0151313
-0.0140341
-0.0129334
-0.0118307
-0.0107238
-0.00961638
-0.00850368
-0.00739407
-0.00627609
-0.00516879
-0.00404406
-0.00294463
-0.0017998
-0.000697959
-0.111145
-0.110795
-0.110369
-0.109868
-0.109292
-0.108644
-0.107924
-0.107133
-0.106273
-0.105345
-0.10435
-0.103291
-0.10217
-0.100987
-0.0997468
-0.0984507
-0.0971014
-0.0957017
-0.0942548
-0.0927636
-0.0912314
-0.0896616
-0.0880575
-0.0864228
-0.084761
-0.0830758
-0.0813708
-0.0796496
-0.0779159
-0.0761731
-0.0744249
-0.0726746
-0.0709254
-0.0691806
-0.067443
-0.0657156
-0.064001
-0.0623016
-0.0606196
-0.0589571
-0.0573158
-0.0556973
-0.054103
-0.0525339
-0.0509909
-0.0494745
-0.0479853
-0.0465233
-0.0450885
-0.0436806
-0.0422992
-0.0409436
-0.0396131
-0.0383067
-0.0370232
-0.0357615
-0.0345202
-0.0332979
-0.0320932
-0.0309046
-0.0297304
-0.0285693
-0.0274195
-0.0262796
-0.0251481
-0.0240237
-0.0229051
-0.0217908
-0.02068
-0.0195714
-0.0184643
-0.0173578
-0.0162515
-0.0151445
-0.014037
-0.0129279
-0.0118185
-0.0107068
-0.009596
-0.00848161
-0.00737149
-0.00625445
-0.00514868
-0.00402688
-0.00293008
-0.00178982
-0.000691331
-0.107903
-0.107608
-0.107239
-0.106796
-0.106281
-0.105696
-0.105041
-0.104317
-0.103527
-0.102671
-0.101752
-0.10077
-0.0997289
-0.0986296
-0.0974745
-0.0962661
-0.0950068
-0.0936992
-0.0923462
-0.0909505
-0.0895152
-0.0880433
-0.086538
-0.0850024
-0.0834398
-0.0818535
-0.0802468
-0.0786229
-0.0769851
-0.0753366
-0.0736805
-0.0720199
-0.0703577
-0.0686967
-0.0670397
-0.0653891
-0.0637475
-0.062117
-0.0604997
-0.0588973
-0.0573117
-0.0557443
-0.0541962
-0.0526687
-0.0511625
-0.0496783
-0.0482165
-0.0467775
-0.0453612
-0.0439677
-0.0425966
-0.0412475
-0.0399198
-0.0386128
-0.0373257
-0.0360575
-0.0348073
-0.0335739
-0.0323561
-0.0311527
-0.0299626
-0.0287844
-0.027617
-0.026459
-0.0253094
-0.0241669
-0.0230304
-0.021899
-0.0207718
-0.0196478
-0.0185264
-0.0174067
-0.0162885
-0.015171
-0.0140544
-0.0129376
-0.0118219
-0.0107052
-0.00959065
-0.00847374
-0.00736197
-0.00624442
-0.00513854
-0.00401777
-0.00292167
-0.00178373
-0.00068649
-0.104919
-0.104675
-0.104359
-0.103971
-0.103513
-0.102986
-0.102391
-0.101731
-0.101005
-0.100216
-0.099366
-0.098456
-0.0974882
-0.0964645
-0.0953872
-0.0942585
-0.0930808
-0.0918564
-0.0905881
-0.0892784
-0.0879301
-0.086546
-0.085129
-0.0836821
-0.0822081
-0.0807101
-0.0791911
-0.077654
-0.0761017
-0.0745372
-0.0729632
-0.0713826
-0.069798
-0.0682119
-0.0666269
-0.0650453
-0.0634692
-0.0619007
-0.0603417
-0.058794
-0.0572589
-0.0557381
-0.0542326
-0.0527435
-0.0512717
-0.0498178
-0.0483824
-0.0469658
-0.0455682
-0.0441896
-0.0428299
-0.0414889
-0.0401662
-0.0388612
-0.0375734
-0.036302
-0.0350464
-0.0338055
-0.0325785
-0.0313646
-0.0301626
-0.0289716
-0.0277906
-0.0266186
-0.0254546
-0.0242978
-0.0231472
-0.022002
-0.0208614
-0.0197248
-0.0185914
-0.0174608
-0.0163325
-0.015206
-0.0140814
-0.0129577
-0.011836
-0.0107144
-0.00959585
-0.00847591
-0.00736176
-0.00624273
-0.0051356
-0.00401451
-0.00291775
-0.00178051
-0.00068302
-0.102184
-0.101988
-0.10172
-0.101383
-0.100978
-0.100505
-0.0999663
-0.0993633
-0.0986974
-0.0979701
-0.0971832
-0.0963385
-0.0954377
-0.094483
-0.0934762
-0.0924197
-0.0913155
-0.0901662
-0.088974
-0.0877415
-0.0864712
-0.0851657
-0.0838278
-0.08246
-0.0810651
-0.0796458
-0.0782049
-0.076745
-0.0752689
-0.0737792
-0.0722784
-0.070769
-0.0692536
-0.0677345
-0.0662139
-0.0646939
-0.0631766
-0.0616638
-0.0601574
-0.0586589
-0.0571697
-0.0556913
-0.0542247
-0.0527711
-0.0513312
-0.0499057
-0.0484953
-0.0471003
-0.045721
-0.0443576
-0.04301
-0.0416782
-0.0403619
-0.0390608
-0.0377744
-0.0365024
-0.035244
-0.0339986
-0.0327656
-0.0315442
-0.0303336
-0.0291331
-0.0279419
-0.0267591
-0.0255841
-0.024416
-0.0232542
-0.022098
-0.0209466
-0.0197996
-0.0186565
-0.0175167
-0.0163799
-0.0152456
-0.014114
-0.0129841
-0.011857
-0.0107307
-0.00960814
-0.00848493
-0.00736797
-0.00624681
-0.00513772
-0.00401538
-0.00291704
-0.00177935
-0.000680589
-0.0996899
-0.0995371
-0.0993148
-0.0990244
-0.0986671
-0.0982441
-0.0977568
-0.0972067
-0.0965953
-0.0959241
-0.095195
-0.0944095
-0.0935696
-0.0926771
-0.0917341
-0.0907426
-0.0897047
-0.0886226
-0.0874988
-0.0863353
-0.0851348
-0.0838995
-0.082632
-0.0813347
-0.0800102
-0.0786609
-0.0772895
-0.0758983
-0.0744898
-0.0730665
-0.0716308
-0.0701849
-0.068731
-0.0672715
-0.0658082
-0.0643433
-0.0628785
-0.0614157
-0.0599565
-0.0585023
-0.0570546
-0.0556147
-0.0541837
-0.0527625
-0.051352
-0.049953
-0.048566
-0.0471916
-0.04583
-0.0444815
-0.0431463
-0.0418242
-0.0405153
-0.0392193
-0.037936
-0.0366651
-0.035406
-0.0341584
-0.0329217
-0.0316954
-0.0304789
-0.0292716
-0.0280728
-0.0268819
-0.0256984
-0.0245216
-0.023351
-0.0221859
-0.021026
-0.0198706
-0.0187194
-0.017572
-0.0164281
-0.0152871
-0.0141494
-0.013014
-0.011882
-0.0107513
-0.00962489
-0.00849833
-0.00737836
-0.00625472
-0.00514321
-0.00401903
-0.00291855
-0.00177963
-0.00067894
-0.0974297
-0.0973166
-0.0971354
-0.0968875
-0.0965739
-0.0961961
-0.0957554
-0.0952533
-0.0946913
-0.094071
-0.093394
-0.092662
-0.0918769
-0.0910405
-0.0901547
-0.0892214
-0.0882428
-0.087221
-0.086158
-0.0850562
-0.0839177
-0.0827448
-0.0815399
-0.0803052
-0.0790431
-0.0777559
-0.076446
-0.0751157
-0.0737672
-0.0724027
-0.0710246
-0.0696349
-0.0682357
-0.066829
-0.0654168
-0.0640008
-0.0625829
-0.0611646
-0.0597476
-0.0583332
-0.0569228
-0.0555176
-0.0541187
-0.0527271
-0.0513436
-0.0499689
-0.0486038
-0.0472486
-0.0459039
-0.0445699
-0.0432468
-0.0419348
-0.0406338
-0.0393438
-0.0380646
-0.036796
-0.0355378
-0.0342897
-0.0330511
-0.0318219
-0.0306014
-0.0293893
-0.0281851
-0.0269883
-0.0257983
-0.0246148
-0.0234373
-0.0222654
-0.0210985
-0.0199364
-0.0187787
-0.0176249
-0.016475
-0.0153285
-0.0141856
-0.0130453
-0.0119088
-0.0107742
-0.00964407
-0.00851425
-0.00739123
-0.00626494
-0.00515079
-0.00402445
-0.00292149
-0.00178088
-0.000677869
-0.0953193
-0.0951752
-0.0949655
-0.0946914
-0.0943543
-0.0939555
-0.0934966
-0.092979
-0.0924043
-0.091774
-0.09109
-0.0903539
-0.0895675
-0.0887327
-0.0878514
-0.0869255
-0.0859571
-0.0849483
-0.083901
-0.0828174
-0.0816997
-0.0805501
-0.0793707
-0.0781637
-0.0769313
-0.0756757
-0.074399
-0.0731033
-0.0717908
-0.0704635
-0.0691233
-0.0677723
-0.0664124
-0.0650452
-0.0636726
-0.0622961
-0.0609174
-0.059538
-0.058159
-0.056782
-0.0554079
-0.054038
-0.052673
-0.051314
-0.0499616
-0.0486165
-0.0472793
-0.0459503
-0.0446301
-0.0433188
-0.0420166
-0.0407237
-0.03944
-0.0381656
-0.0369003
-0.035644
-0.0343965
-0.0331575
-0.0319267
-0.0307039
-0.0294886
-0.0282806
-0.0270795
-0.0258848
-0.0246963
-0.0235135
-0.0223361
-0.0211638
-0.0199963
-0.0188332
-0.0176743
-0.0165195
-0.0153682
-0.0142208
-0.0130764
-0.011936
-0.0107977
-0.00966418
-0.00853126
-0.00740529
-0.00627634
-0.00515951
-0.00403085
-0.00292529
-0.00178272
-0.000677219
-0.0935391
-0.093428
-0.0932524
-0.0930135
-0.0927126
-0.0923512
-0.0919307
-0.0914526
-0.0909185
-0.0903298