/*--------------------------------*- C++ -*----------------------------------*\
  =========                 |
  \\      /  F ield         | OpenFOAM: The Open Source CFD Toolbox
   \\    /   O peration     | Website:  https://openfoam.org
    \\  /    A nd           | Version:  7
     \\/     M anipulation  |
\*---------------------------------------------------------------------------*/
FoamFile
{
    version     2.0;
    format      ascii;
    class       volVectorField;
    location    "90";
    object      U;
}
// * * * * * * * * * * * * * * * * * * * * * * * * * * * * * * * * * * * * * //

dimensions      [0 1 -1 0 0 0 0];

internalField   nonuniform List<vector> 
3500
(
(-0.212999 0.0391386 1.7377e-20)
(-0.210926 0.0397545 -1.81109e-20)
(-0.20867 0.0399232 7.622e-21)
(-0.206229 0.039617 9.39138e-21)
(-0.203602 0.0388135 -1.68995e-20)
(-0.200788 0.0374957 1.97699e-20)
(-0.197788 0.0356534 -1.9385e-20)
(-0.194602 0.0332825 2.31325e-20)
(-0.19123 0.0303862 -1.05545e-20)
(-0.187676 0.026975 -4.10581e-21)
(-0.183941 0.0230672 7.31878e-22)
(-0.180027 0.0186908 6.23929e-21)
(-0.175933 0.0138829 3.64408e-21)
(-0.171662 0.00869319 9.96437e-23)
(-0.167229 0.00313742 -9.64388e-21)
(-0.162699 -0.00275617 -1.10157e-21)
(-0.15806 -0.00892953 -3.09748e-21)
(-0.15327 -0.0153078 6.5362e-21)
(-0.148368 -0.0218177 -5.54042e-22)
(-0.143374 -0.0283729 7.00857e-21)
(-0.138309 -0.0349188 -1.34143e-20)
(-0.133185 -0.041385 6.77421e-21)
(-0.128013 -0.0477005 5.16283e-22)
(-0.122802 -0.0537958 -1.14182e-20)
(-0.117562 -0.0596033 5.50032e-21)
(-0.112301 -0.0650581 2.4898e-21)
(-0.107022 -0.0700985 1.4216e-21)
(-0.101729 -0.0746672 -3.31215e-21)
(-0.0964205 -0.0787111 2.1089e-22)
(-0.0910925 -0.0821825 1.02674e-20)
(-0.0857376 -0.085038 -1.4922e-20)
(-0.0803462 -0.0872392 1.02482e-20)
(-0.0749067 -0.0887547 1.37752e-21)
(-0.0694059 -0.0895605 -1.40872e-21)
(-0.0638293 -0.08964 -1.06135e-21)
(-0.0581606 -0.0889821 1.13591e-21)
(-0.0523815 -0.087581 -2.16559e-21)
(-0.0464768 -0.085447 -2.0063e-22)
(-0.0404343 -0.0825894 -5.38581e-22)
(-0.0342396 -0.0790115 2.76073e-22)
(-0.027908 -0.0747427 1.45298e-21)
(-0.0214336 -0.0698678 -2.73324e-21)
(-0.0147706 -0.0643824 -7.25809e-22)
(-0.00791414 -0.0583637 2.25648e-21)
(-0.000874703 -0.0518552 1.58605e-21)
(0.00627509 -0.0449086 -1.89368e-21)
(0.01354 -0.0375881 7.85451e-22)
(0.0209718 -0.0299607 -2.08016e-21)
(0.0285259 -0.0220939 1.37479e-21)
(0.036176 -0.0140731 1.03775e-21)
(0.0438845 -0.00592884 -7.87979e-22)
(0.0515944 0.00227012 3.17343e-22)
(0.0593055 0.0104449 5.3966e-22)
(0.0670282 0.0185127 -1.67769e-21)
(0.0747208 0.0264093 1.78979e-21)
(0.0823579 0.0340726 -1.54075e-21)
(0.0899216 0.0414438 1.40208e-21)
(0.0973973 0.0484676 -1.04458e-21)
(0.104774 0.0550932 2.69902e-23)
(0.112046 0.0612737 3.198e-22)
(0.11921 0.0669667 -2.02939e-22)
(0.12627 0.0721341 -1.349e-22)
(0.133233 0.076742 5.91791e-23)
(0.140112 0.0807606 -4.7463e-22)
(0.146921 0.0841644 1.28825e-22)
(0.153682 0.086932 -1.83033e-23)
(0.160415 0.0890462 4.79508e-22)
(0.167145 0.090494 -2.01477e-22)
(0.173897 0.0912668 -4.20142e-22)
(0.180696 0.0913605 1.50983e-22)
(0.187567 0.0907755 1.0656e-22)
(0.194531 0.0895169 -1.58506e-22)
(0.201607 0.0875943 1.39642e-22)
(0.208812 0.0850223 1.04987e-22)
(0.216156 0.0818201 -1.58723e-22)
(0.223646 0.0780116 -4.0162e-23)
(0.231282 0.073625 1.2962e-22)
(0.239062 0.0686924 -1.1031e-22)
(0.246973 0.0632493 6.09866e-23)
(0.255001 0.0573341 -3.33097e-23)
(0.263124 0.050987 -7.87948e-24)
(0.271314 0.0442493 2.20315e-23)
(0.27954 0.0371619 -6.28567e-24)
(0.287763 0.0297649 -3.82098e-23)
(0.29594 0.0220935 1.94535e-23)
(0.304019 0.0141819 -9.2503e-24)
(0.311957 0.0060413 -1.43461e-23)
(0.319594 -0.00231183 4.36229e-24)
(0.327133 -0.010915 2.12119e-24)
(0.333415 -0.0195431 -4.05573e-25)
(0.343296 -0.0297305 -7.68434e-26)
(-0.169696 0.0351508 -6.89664e-21)
(-0.166755 0.03549 5.09543e-20)
(-0.163591 0.035382 2.60513e-20)
(-0.160208 0.0348 -2.9555e-20)
(-0.156607 0.0337224 4.8745e-20)
(-0.152793 0.0321336 -5.44109e-20)
(-0.148771 0.0300241 5.35269e-20)
(-0.144547 0.0273916 -3.87811e-20)
(-0.140129 0.0242408 -2.95005e-20)
(-0.135527 0.020586 -6.54142e-21)
(-0.130746 0.0164514 -2.09157e-21)
(-0.125792 0.0118751 3.76187e-20)
(-0.120666 0.00688453 1.70409e-20)
(-0.115441 0.00146803 -3.7222e-20)
(-0.11018 -0.00431982 3.2298e-20)
(-0.104836 -0.010422 3.36488e-21)
(-0.0993975 -0.0167516 -2.89629e-20)
(-0.0939145 -0.0232823 2.61678e-21)
(-0.088382 -0.0299545 9.99365e-21)
(-0.0828526 -0.0365702 4.11554e-21)
(-0.0773798 -0.0431556 -1.48963e-22)
(-0.0719686 -0.0496349 -7.18112e-21)
(-0.0666416 -0.0559404 -1.8857e-20)
(-0.0614196 -0.062006 1.06869e-20)
(-0.0563203 -0.0677676 -5.23997e-21)
(-0.0513589 -0.0731636 1.34057e-20)
(-0.0465473 -0.0781371 -3.33369e-22)
(-0.0418934 -0.0826355 6.41591e-21)
(-0.0374004 -0.0866115 -1.86476e-20)
(-0.0330649 -0.0900219 1.06985e-20)
(-0.0288775 -0.0928279 4.16671e-21)
(-0.0248259 -0.0949959 -1.57364e-20)
(-0.0208949 -0.0964995 2.56622e-20)
(-0.0170656 -0.0973188 -1.21986e-20)
(-0.0133143 -0.0974396 -8.35838e-21)
(-0.00961352 -0.096854 1.54769e-20)
(-0.00593181 -0.0955606 -2.90352e-21)
(-0.00223505 -0.0935647 -3.13668e-21)
(0.00152734 -0.0908762 -8.67709e-22)
(0.00538362 -0.0875117 5.09699e-21)
(0.00926098 -0.0835053 3.92033e-21)
(0.0132277 -0.0788825 -1.52726e-20)
(0.0173969 -0.0736714 2.4414e-21)
(0.0217492 -0.0679225 8.63562e-22)
(0.0263014 -0.0616852 -1.49894e-21)
(0.0310544 -0.0550211 7.89106e-21)
(0.0360193 -0.0479493 1.13401e-21)
(0.0412173 -0.0405487 -2.364e-21)
(0.0466457 -0.0328878 -2.95849e-21)
(0.0523009 -0.0250365 4.39445e-21)
(0.0581788 -0.0170641 -1.91653e-21)
(0.0642776 -0.00903331 4.96878e-21)
(0.0705616 -0.000992568 -4.56707e-21)
(0.0770151 0.00697896 -3.01943e-23)
(0.0836481 0.014812 1.18579e-21)
(0.0904467 0.0224373 -8.97816e-22)
(0.097399 0.0297906 -1.04391e-22)
(0.104496 0.0368125 8.49087e-22)
(0.111729 0.0434469 5.86942e-22)
(0.119093 0.0496417 1.11259e-22)
(0.126585 0.0553488 -4.46545e-22)
(0.134204 0.0605242 4.3622e-22)
(0.141952 0.0651286 -1.20249e-21)
(0.149831 0.0691276 -2.06615e-22)
(0.157847 0.0724916 3.80472e-22)
(0.166008 0.075196 -3.27214e-22)
(0.174319 0.0772218 1.73887e-21)
(0.18279 0.0785552 -1.09477e-21)
(0.191427 0.0791883 3.4957e-22)
(0.200236 0.0791189 9.73708e-22)
(0.20922 0.0783505 -9.08915e-22)
(0.21838 0.0768924 1.96972e-23)
(0.227713 0.0747599 -5.56609e-22)
(0.237214 0.0719737 5.2066e-22)
(0.246872 0.0685602 4.90616e-24)
(0.256672 0.0645506 -6.43544e-22)
(0.266595 0.0599812 2.92472e-22)
(0.276616 0.054892 2.76519e-22)
(0.286707 0.0493267 -3.03303e-22)
(0.296835 0.0433316 4.20144e-22)
(0.306962 0.0369548 -6.09224e-22)
(0.317045 0.0302446 3.15112e-22)
(0.327038 0.0232499 1.92903e-22)
(0.336888 0.0160223 -1.7446e-22)
(0.346543 0.00859848 1.81939e-22)
(0.355916 0.00101916 3.80338e-23)
(0.364962 -0.00668043 3.37116e-23)
(0.373494 -0.0144438 6.96945e-24)
(0.381895 -0.0223158 -5.93884e-23)
(0.388481 -0.02987 1.10396e-23)
(0.39873 -0.0390963 3.98204e-24)
(-0.0891969 0.0296769 4.53589e-21)
(-0.0852738 0.0297144 -6.38332e-20)
(-0.0810959 0.0293097 3.00987e-20)
(-0.0766683 0.0284372 5.00652e-21)
(-0.071998 0.0270765 -4.79946e-20)
(-0.0670933 0.0252131 9.50702e-22)
(-0.0619645 0.0228399 4.88357e-20)
(-0.0566239 0.0199584 -4.94729e-20)
(-0.0510822 0.0165783 2.09367e-20)
(-0.0453491 0.0127261 -4.75018e-20)
(-0.0394262 0.00842445 9.2443e-20)
(-0.0333573 0.00366787 8.6437e-21)
(-0.02725 -0.00153396 -7.86751e-20)
(-0.0211011 -0.00713321 3.09981e-20)
(-0.0148504 -0.0130444 -4.9136e-20)
(-0.00856272 -0.0191974 3.36992e-20)
(-0.00229576 -0.0255519 -3.15101e-21)
(0.00388133 -0.0320535 4.29434e-20)
(0.0101563 -0.0385998 -7.9094e-20)
(0.0164205 -0.0451342 3.3759e-20)
(0.022435 -0.051612 -2.74642e-20)
(0.028282 -0.057951 1.2861e-20)
(0.0339253 -0.0640849 4.37394e-20)
(0.0393374 -0.0699489 -2.21898e-20)
(0.0444931 -0.0754819 2.44696e-20)
(0.0493693 -0.0806263 -2.46718e-20)
(0.0539466 -0.0853297 -1.49472e-20)
(0.0582113 -0.0895445 3.56546e-20)
(0.0621571 -0.0932286 -6.79369e-21)
(0.0657857 -0.0963457 4.44895e-21)
(0.0691044 -0.0988657 6.116e-21)
(0.0721228 -0.100766 -1.07834e-20)
(0.0748549 -0.10203 -1.25034e-20)
(0.0773226 -0.102646 1.50222e-20)
(0.079554 -0.102606 -1.93255e-20)
(0.0815834 -0.101909 -2.49523e-22)
(0.08345 -0.100556 1.77696e-20)
(0.0851966 -0.0985577 6.3838e-21)
(0.0868687 -0.0959264 -5.53866e-21)
(0.088512 -0.0926907 -1.29391e-20)
(0.0901634 -0.0888804 1.86218e-20)
(0.0918692 -0.0844752 -1.52606e-20)
(0.0936905 -0.079531 -3.39604e-21)
(0.0956679 -0.0740854 1.35625e-20)
(0.0978379 -0.0681789 -3.97847e-21)
(0.100234 -0.0618594 3.67534e-21)
(0.10289 -0.0551681 -3.45698e-21)
(0.105835 -0.0481618 -3.71653e-21)
(0.109092 -0.0408992 -1.53162e-21)
(0.112681 -0.033442 5.10796e-21)
(0.116614 -0.0258539 -3.71092e-21)
(0.120903 -0.0182021 -2.18348e-21)
(0.125552 -0.0105572 4.96796e-21)
(0.130564 -0.00297151 -4.12467e-21)
(0.135928 0.00448588 -9.49894e-23)
(0.141643 0.0117564 2.89138e-21)
(0.14771 0.0187766 8.54373e-22)
(0.154128 0.0254769 3.30865e-22)
(0.160891 0.0317985 -1.12971e-21)
(0.167994 0.0376878 3.38994e-22)
(0.175429 0.0430945 -2.19988e-21)
(0.183192 0.0479724 3.23432e-21)
(0.191276 0.0522802 -2.66875e-21)
(0.199676 0.0559817 1.42334e-22)
(0.208384 0.0590461 3.21303e-22)
(0.217394 0.0614487 2.88515e-21)
(0.226699 0.0631708 -9.12041e-22)
(0.23629 0.0642003 -1.7826e-22)
(0.246155 0.0645313 -2.14729e-21)
(0.256283 0.0641647 6.33763e-22)
(0.266658 0.0631079 6.33254e-22)
(0.277262 0.0613751 -3.85269e-23)
(0.288072 0.0589867 -2.87857e-22)
(0.299066 0.0559691 -1.74704e-22)
(0.310213 0.0523546 -1.10769e-21)
(0.321482 0.048181 6.7484e-22)
(0.332838 0.0434908 -1.86383e-22)
(0.344242 0.0383308 1.43411e-21)
(0.355652 0.0327505 1.23805e-22)
(0.367022 0.0268025 -8.45135e-22)
(0.378303 0.0205431 -4.06843e-22)
(0.389443 0.014023 7.515e-22)
(0.400395 0.00729638 -6.71853e-22)
(0.411087 0.000412663 -1.76883e-22)
(0.421455 -0.00656966 4.5564e-22)
(0.431423 -0.0135984 -2.49292e-22)
(0.441018 -0.0206285 4.4995e-24)
(0.449882 -0.0275548 -1.46913e-23)
(0.458709 -0.0345053 -5.18366e-24)
(0.465234 -0.0407868 -5.3908e-23)
(0.475745 -0.0487431 1.28672e-24)
(0.0274205 0.0223882 1.51989e-20)
(0.0325239 0.0216882 -1.46739e-19)
(0.0379043 0.0205324 3.49168e-21)
(0.0435499 0.0189026 4.99505e-20)
(0.0494483 0.0167861 5.38645e-20)
(0.0555876 0.0141815 4.95257e-21)
(0.0619532 0.0111065 2.90339e-20)
(0.0685424 0.00755493 -4.08424e-20)
(0.0753215 0.00352695 7.4552e-21)
(0.0822037 -0.000978594 2.25351e-20)
(0.0891379 -0.00593312 1.17877e-21)
(0.0961775 -0.0112831 -6.87375e-20)
(0.103303 -0.0169321 1.05805e-20)
(0.110455 -0.0228496 2.25472e-20)
(0.117595 -0.0289851 3.13954e-21)
(0.124686 -0.0352753 7.25718e-21)
(0.131683 -0.0416513 -2.38141e-20)
(0.13856 -0.0479939 5.92649e-20)
(0.145286 -0.0543551 -9.32417e-20)
(0.151793 -0.0606091 2.32078e-20)
(0.15805 -0.066686 -4.99148e-20)
(0.164018 -0.0725179 1.33409e-19)
(0.169663 -0.078041 -7.7159e-20)
(0.174953 -0.0831967 -2.39347e-20)
(0.179857 -0.0879314 -3.46347e-20)
(0.184353 -0.0921967 4.54652e-20)
(0.188422 -0.0959498 -3.3623e-21)
(0.192054 -0.0991551 -2.03799e-20)
(0.195245 -0.101785 1.71291e-20)
(0.197996 -0.103821 1.59604e-20)
(0.200314 -0.105252 5.83344e-21)
(0.202212 -0.106073 -5.06856e-20)
(0.203712 -0.106281 2.6516e-20)
(0.204841 -0.105879 8.73196e-21)
(0.205635 -0.104874 -2.21279e-21)
(0.206135 -0.103276 -2.36252e-20)
(0.206389 -0.101101 9.28564e-22)
(0.206448 -0.0983646 1.88582e-20)
(0.206367 -0.0950885 -6.78355e-21)
(0.206204 -0.0912967 1.55347e-20)
(0.206015 -0.0870087 -6.34533e-23)
(0.205864 -0.0822561 -4.78743e-21)
(0.20581 -0.0770728 6.07355e-21)
(0.205912 -0.0714945 -1.36199e-20)
(0.206223 -0.0655598 5.71122e-21)
(0.206795 -0.0593097 2.51021e-21)
(0.207675 -0.0527899 -1.57472e-21)
(0.208905 -0.04605 -6.59581e-21)
(0.210524 -0.0391433 5.71645e-21)
(0.212563 -0.0321259 5.13874e-21)
(0.215047 -0.0250571 -3.74874e-21)
(0.217997 -0.0179978 -1.8426e-21)
(0.221427 -0.0110114 -1.24932e-21)
(0.22536 -0.00415915 4.51255e-21)
(0.22981 0.00250056 -4.95901e-21)
(0.234756 0.00890976 1.31871e-21)
(0.240195 0.0150225 -1.36414e-21)
(0.246138 0.0207665 5.02147e-22)
(0.252581 0.026089 9.41714e-22)
(0.259517 0.0309406 5.18274e-22)
(0.266933 0.0352761 -3.04266e-22)
(0.274817 0.0390546 -8.98548e-23)
(0.283154 0.0422411 7.28808e-22)
(0.291927 0.0448061 1.64815e-21)
(0.301119 0.0467268 -1.38081e-21)
(0.310708 0.0479869 9.29508e-22)
(0.32067 0.0485768 -1.93765e-21)
(0.330982 0.0484941 2.76116e-21)
(0.341614 0.047743 -1.78009e-21)
(0.352535 0.046335 -1.1142e-22)
(0.363711 0.044289 3.94664e-22)
(0.375107 0.0416299 8.61597e-22)
(0.386681 0.0383892 -2.95802e-21)
(0.398394 0.0346036 1.25768e-21)
(0.410199 0.0303153 2.17407e-22)
(0.422052 0.0255717 -1.41821e-21)
(0.433902 0.0204256 1.86314e-21)
(0.445698 0.0149276 5.19458e-23)
(0.457394 0.00913289 4.08928e-22)
(0.468927 0.00309666 -3.4142e-22)
(0.480238 -0.00311857 -1.10027e-21)
(0.491272 -0.00945435 3.89873e-22)
(0.501975 -0.0158578 -5.06722e-22)
(0.512319 -0.0222632 8.1982e-22)
(0.522163 -0.0286042 1.25396e-22)
(0.531624 -0.0348507 -2.32936e-22)
(0.540185 -0.0408697 1.89252e-23)
(0.548923 -0.0468371 3.91764e-23)
(0.554991 -0.0518946 -2.30342e-23)
(0.56535 -0.0584668 2.35407e-24)
(0.165209 0.0138943 8.09243e-20)
(0.170911 0.0128967 -8.65133e-20)
(0.176926 0.0114684 1.77081e-19)
(0.183236 0.00959895 -1.53011e-19)
(0.189826 0.00726738 -6.13691e-22)
(0.1967 0.00447284 1.15035e-19)
(0.203797 0.00119298 4.65337e-20)
(0.211046 -0.00256263 -8.98597e-20)
(0.21842 -0.00678539 -2.5229e-20)
(0.225952 -0.011445 -8.0535e-22)
(0.233615 -0.016471 -1.94893e-20)
(0.241343 -0.0218185 -9.9032e-21)
(0.249099 -0.0274568 8.30101e-20)
(0.256845 -0.0333332 -8.31338e-20)
(0.264538 -0.039389 2.43688e-21)
(0.272135 -0.0455608 5.58772e-20)
(0.279589 -0.0517839 1.19388e-20)
(0.286859 -0.0579808 2.66459e-20)
(0.293908 -0.0640931 -5.35945e-20)
(0.300686 -0.0700476 -7.82707e-21)
(0.307147 -0.0757762 4.59944e-20)
(0.313254 -0.0812135 1.73546e-20)
(0.318968 -0.0862978 -5.87067e-20)
(0.324256 -0.0909732 1.50117e-20)
(0.329089 -0.0951894 -3.33741e-20)
(0.333442 -0.0989032 4.52567e-20)
(0.337299 -0.102079 -1.05649e-19)
(0.340647 -0.104689 6.15004e-20)
(0.343479 -0.106714 -1.63688e-20)
(0.345797 -0.108146 3.92244e-20)
(0.347605 -0.108981 -2.00731e-20)
(0.348916 -0.109222 1.56773e-20)
(0.34975 -0.108879 -5.69457e-20)
(0.350133 -0.107964 7.70572e-20)
(0.350096 -0.106494 -2.93488e-20)
(0.349681 -0.104491 1.69321e-20)
(0.348931 -0.101976 -1.84194e-20)
(0.347897 -0.0989748 8.54108e-21)
(0.346636 -0.0955134 -9.10316e-21)
(0.345207 -0.0916196 8.53649e-21)
(0.343672 -0.0873213 2.32113e-21)
(0.342096 -0.0826481 -1.18359e-20)
(0.340548 -0.0776318 -2.29516e-21)
(0.339092 -0.0723059 5.02631e-21)
(0.337796 -0.0667054 -3.60478e-21)
(0.336721 -0.0608672 -2.43536e-21)
(0.335928 -0.0548306 6.2871e-21)
(0.335476 -0.0486379 1.09929e-22)
(0.335415 -0.0423341 -4.32386e-21)
(0.335791 -0.0359665 -2.0435e-21)
(0.336647 -0.0295849 5.33117e-21)
(0.338016 -0.0232407 -9.59497e-22)
(0.339925 -0.0169864 -2.54733e-21)
(0.342393 -0.0108747 8.88874e-23)
(0.345444 -0.00496963 3.29834e-21)
(0.349119 0.000675525 -5.01075e-22)
(0.353398 0.00600774 -1.25495e-21)
(0.358256 0.0109874 3.2811e-21)
(0.363713 0.0155621 -1.44492e-21)
(0.369762 0.019681 -1.56857e-21)
(0.376389 0.0233032 -4.06089e-22)
(0.383576 0.0263922 -3.69639e-21)
(0.391303 0.0289158 4.01777e-21)
(0.399546 0.0308482 -8.88816e-22)
(0.408278 0.0321699 -1.85775e-22)
(0.417468 0.0328681 8.24515e-22)
(0.427083 0.032937 9.10855e-22)
(0.437085 0.0323776 -2.70829e-21)
(0.447434 0.0311975 2.13024e-21)
(0.458089 0.0294116 1.31617e-21)
(0.469005 0.027044 -4.68018e-21)
(0.480134 0.0241232 -2.6054e-22)
(0.491425 0.0206838 3.22021e-21)
(0.502828 0.0167662 -7.70133e-22)
(0.514291 0.0124159 -3.52521e-22)
(0.525764 0.00768152 1.059e-21)
(0.537186 0.00261266 -1.1256e-21)
(0.548498 -0.00273128 7.58629e-23)
(0.559646 -0.00829366 7.96268e-22)
(0.570584 -0.0140181 -7.31153e-22)
(0.58126 -0.0198418 -7.20592e-22)
(0.59162 -0.0257022 1.83669e-23)
(0.601592 -0.0315388 1.6252e-21)
(0.611174 -0.0372971 -1.13821e-21)
(0.620199 -0.0429163 -2.13258e-23)
(0.628892 -0.048356 1.05898e-22)
(0.636576 -0.0534759 -2.01173e-22)
(0.64464 -0.0584745 -1.42695e-22)
(0.649899 -0.0624788 -3.4002e-23)
(0.659417 -0.0677181 1.52984e-23)
(0.322833 0.00517964 -3.71178e-20)
(0.328559 0.00385563 -5.08613e-20)
(0.33466 0.00212882 -4.75778e-20)
(0.341093 -3.16429e-05 1.43833e-19)
(0.34781 -0.00263203 2.54306e-21)
(0.354767 -0.00568348 1.44259e-20)
(0.361963 -0.00919675 -8.28162e-20)
(0.369406 -0.0131356 8.4347e-20)
(0.377023 -0.0174696 -4.06139e-21)
(0.384768 -0.0221648 8.83474e-21)
(0.392603 -0.0272034 -1.87024e-19)
(0.400486 -0.0325429 6.56791e-20)
(0.408373 -0.0381338 1.27739e-19)
(0.416218 -0.0439214 -1.19458e-19)
(0.423972 -0.049846 -8.23496e-20)
(0.431588 -0.055843 4.28043e-20)
(0.439016 -0.0618451 3.20529e-20)
(0.446211 -0.0677807 1.43978e-20)
(0.453127 -0.0735825 -3.52226e-20)
(0.459719 -0.0791824 1.38167e-19)
(0.465945 -0.0845132 -1.06479e-19)
(0.471766 -0.0895108 4.44655e-20)
(0.477148 -0.0941162 -6.82352e-20)
(0.482062 -0.0982762 3.22303e-20)
(0.486481 -0.101945 2.55203e-20)
(0.490386 -0.105083 9.70144e-22)
(0.493765 -0.107662 -1.48721e-20)
(0.496608 -0.109659 -1.97837e-20)
(0.498914 -0.111064 1.35732e-20)
(0.500686 -0.111873 -3.57759e-20)
(0.501935 -0.112089 3.26191e-20)
(0.502675 -0.111725 1.91913e-21)
(0.502926 -0.110796 -6.17651e-21)
(0.502713 -0.109325 4.74158e-21)
(0.502068 -0.107337 -3.08155e-20)
(0.501026 -0.104862 -1.54434e-20)
(0.499629 -0.101931 5.86673e-20)
(0.497921 -0.0985766 -5.54904e-20)
(0.495953 -0.0948323 6.49356e-20)
(0.493778 -0.0907324 -2.08164e-20)
(0.491454 -0.0863109 1.20013e-20)
(0.48904 -0.0816018 -3.5915e-20)
(0.4866 -0.0766394 -8.47718e-23)
(0.484197 -0.0714579 7.14811e-21)
(0.481897 -0.0660921 3.64432e-21)
(0.479763 -0.0605767 1.72066e-22)
(0.47786 -0.0549478 9.09389e-21)
(0.476249 -0.0492424 -8.53354e-21)
(0.474989 -0.0434992 4.83248e-21)
(0.474134 -0.0377586 2.98995e-22)
(0.473733 -0.0320625 -5.08491e-22)
(0.473832 -0.0264541 -5.17259e-21)
(0.474468 -0.020977 2.87074e-21)
(0.475674 -0.015674 1.4044e-21)
(0.477474 -0.0105863 1.91039e-21)
(0.479875 -0.00576478 -2.48535e-21)
(0.482918 -0.00126862 -4.77549e-21)
(0.48661 0.0028781 1.07374e-21)
(0.490922 0.00663027 3.78298e-21)
(0.495854 0.00993527 -2.11868e-21)
(0.501402 0.0127648 -9.1302e-23)
(0.507545 0.0150884 1.95824e-21)
(0.514261 0.0168794 -1.07123e-21)
(0.521521 0.0181173 -1.61526e-21)
(0.529294 0.0187879 4.59122e-21)
(0.537544 0.0188834 -4.0151e-21)
(0.54623 0.0184022 3.32027e-21)
(0.555307 0.0173491 -5.66826e-22)
(0.564728 0.015734 -2.72861e-21)
(0.574447 0.0135672 1.57667e-22)
(0.584413 0.0108916 -1.16038e-21)
(0.594568 0.00773647 2.54181e-21)
(0.604858 0.0041365 2.59617e-21)
(0.615227 0.000132751 -2.99974e-22)
(0.625618 -0.00422966 -2.0172e-21)
(0.635968 -0.0089011 -4.44141e-21)
(0.646228 -0.013831 5.04898e-21)
(0.656349 -0.0189587 -2.69101e-21)
(0.666272 -0.0242271 9.52575e-22)
(0.675944 -0.0295735 5.46898e-22)
(0.685315 -0.0349479 1.17186e-21)
(0.694346 -0.0402865 -1.77784e-21)
(0.702965 -0.0455406 1.9553e-22)
(0.711197 -0.0506422 4.10896e-22)
(0.718855 -0.0555476 -9.3487e-23)
(0.726233 -0.0602025 -5.42217e-23)
(0.732599 -0.0644944 3.8224e-22)
(0.739414 -0.0685929 -3.29077e-22)
(0.743625 -0.0717404 5.48073e-23)
(0.751555 -0.0757938 4.09372e-24)
(0.500141 -0.00449441 -2.6127e-19)
(0.505484 -0.00658482 3.56236e-19)
(0.511217 -0.00907357 -3.54204e-19)
(0.517323 -0.0119586 1.84771e-19)
(0.523742 -0.0152452 -2.23902e-19)
(0.530428 -0.0189087 9.18871e-20)
(0.537343 -0.022951 2.21268e-19)
(0.544438 -0.0273583 1.15194e-20)
(0.551668 -0.0320992 -3.67292e-20)
(0.558983 -0.0371372 -2.9628e-19)
(0.566334 -0.0424296 9.27154e-20)
(0.573667 -0.0479278 1.74781e-19)
(0.58093 -0.0535774 -1.49907e-19)
(0.58807 -0.059319 1.13497e-19)
(0.595035 -0.065089 -1.12008e-19)
(0.601773 -0.0708209 1.36224e-19)
(0.608236 -0.0764464 -1.10219e-19)
(0.614377 -0.0818978 -5.72111e-20)
(0.620155 -0.0871084 4.37057e-20)
(0.62553 -0.0920139 1.1216e-20)
(0.630467 -0.0965537 -6.02746e-22)
(0.634939 -0.100673 -6.0878e-20)
(0.638923 -0.104322 7.88028e-20)
(0.642401 -0.10746 1.22906e-21)
(0.645363 -0.110054 9.2341e-21)
(0.647805 -0.112079 -9.9773e-21)
(0.649727 -0.113517 -1.34712e-20)
(0.651137 -0.114363 2.6031e-20)
(0.652047 -0.114617 -2.79905e-20)
(0.652474 -0.114288 -3.91313e-21)
(0.652438 -0.113393 7.69053e-21)
(0.651964 -0.111952 2.71333e-20)
(0.651082 -0.109994 6.62766e-21)
(0.649822 -0.10755 -3.13305e-20)
(0.648221 -0.104654 4.08663e-20)
(0.646314 -0.101344 -1.19171e-20)
(0.644142 -0.0976579 4.49307e-21)
(0.641747 -0.0936348 -3.38234e-20)
(0.639174 -0.0893147 -2.59861e-21)
(0.636471 -0.0847371 2.33053e-20)
(0.633685 -0.0799412 1.0011e-20)
(0.630868 -0.0749652 2.56413e-21)
(0.628073 -0.069847 -1.43785e-20)
(0.625355 -0.0646233 -1.79893e-22)
(0.622767 -0.0593303 -6.18196e-21)
(0.620366 -0.0540037 -4.7204e-21)
(0.618206 -0.0486788 1.63967e-21)
(0.61634 -0.0433913 1.53641e-20)
(0.614821 -0.0381767 -2.69859e-21)
(0.613697 -0.0330714 -1.20664e-20)
(0.613013 -0.028112 8.77358e-21)
(0.612809 -0.0233356 -2.70309e-21)
(0.613123 -0.0187794 3.7242e-21)
(0.613985 -0.0144796 -3.40692e-21)
(0.615422 -0.0104694 7.25459e-22)
(0.617455 -0.00677842 4.45165e-21)
(0.62009 -0.00345739 -6.25158e-21)
(0.623304 -0.000539218 2.72168e-21)
(0.627106 0.00196397 2.00508e-21)
(0.631505 0.00401673 -3.23918e-21)
(0.636475 0.00558856 2.05737e-22)
(0.641994 0.00665814 -5.58553e-22)
(0.648034 0.00721144 6.25914e-21)
(0.654564 0.00724114 -4.09781e-21)
(0.661545 0.00674638 -6.39759e-21)
(0.668933 0.00573244 1.14466e-20)
(0.676679 0.00421022 -8.59498e-21)
(0.684721 0.00219723 -4.53805e-21)
(0.693035 -0.000271637 1.08354e-20)
(0.701581 -0.00318812 -3.62686e-21)
(0.710273 -0.00652004 -1.54987e-21)
(0.719053 -0.0102272 4.75801e-21)
(0.727866 -0.0142658 -5.01266e-21)
(0.736658 -0.0185896 1.55234e-21)
(0.745377 -0.0231464 5.1735e-22)
(0.753969 -0.0278814 -6.52089e-22)
(0.762383 -0.0327418 -1.95444e-21)
(0.770571 -0.0376761 1.60364e-21)
(0.778486 -0.0426231 -1.39976e-21)
(0.786085 -0.0475369 2.37214e-21)
(0.793335 -0.0523501 9.3957e-22)
(0.80018 -0.0570298 7.28732e-22)
(0.806647 -0.061497 -1.65888e-21)
(0.812578 -0.0657359 9.95588e-22)
(0.81824 -0.0696687 -3.35216e-22)
(0.823024 -0.0732364 4.71311e-22)
(0.828137 -0.0765417 5.21531e-23)
(0.831191 -0.0790138 -8.86294e-23)
(0.836946 -0.082073 9.5619e-24)
(0.681854 -0.0129637 -1.23936e-19)
(0.686222 -0.0158002 1.64764e-19)
(0.69097 -0.0189788 -4.19026e-19)
(0.696055 -0.0225051 4.82562e-19)
(0.701431 -0.0263705 -1.95816e-19)
(0.70705 -0.0305624 -9.85284e-20)
(0.712857 -0.0350609 1.82541e-19)
(0.718797 -0.0398385 -2.64356e-19)
(0.724816 -0.044861 4.41117e-19)
(0.730854 -0.0500876 -3.92154e-19)
(0.736855 -0.0554711 8.82454e-20)
(0.742762 -0.0609587 1.04945e-19)
(0.748517 -0.0664931 -1.61295e-19)
(0.754068 -0.0720132 -3.57907e-20)
(0.759362 -0.0774556 1.09007e-19)
(0.764352 -0.0827556 -1.72785e-19)
(0.768994 -0.0878489 2.92068e-19)
(0.77325 -0.0926728 -1.57257e-19)
(0.777088 -0.0971675 2.83408e-20)
(0.78048 -0.101278 6.42549e-20)
(0.783409 -0.104953 -8.88391e-20)
(0.78586 -0.108149 -4.81694e-23)
(0.787827 -0.110831 8.0965e-20)
(0.789313 -0.112968 -3.81556e-20)
(0.790323 -0.114542 -3.74395e-20)
(0.79087 -0.115539 2.36182e-20)
(0.790973 -0.115955 4.52257e-20)
(0.790652 -0.115796 2.07771e-20)
(0.789934 -0.115072 -2.11913e-20)
(0.788849 -0.113802 -6.27051e-20)
(0.787426 -0.112012 8.67876e-20)
(0.785698 -0.109729 -5.42493e-20)
(0.783701 -0.106989 3.83212e-20)
(0.781468 -0.103827 -6.71245e-20)
(0.779035 -0.100281 3.09834e-21)
(0.776439 -0.0963931 -3.92431e-21)
(0.773714 -0.0922042 6.28291e-20)
(0.770898 -0.0877569 -2.20915e-20)
(0.768026 -0.0830936 1.94719e-20)
(0.765137 -0.0782564 -7.79525e-21)
(0.762267 -0.0732869 -3.1294e-20)
(0.759455 -0.0682259 1.88334e-20)
(0.756739 -0.063113 1.89109e-21)
(0.754161 -0.057987 -1.52778e-20)
(0.751759 -0.0528853 4.8656e-21)
(0.749574 -0.0478442 1.06285e-20)
(0.747647 -0.042899 -1.32574e-20)
(0.746016 -0.0380841 8.87899e-21)
(0.744719 -0.0334331 5.58749e-21)
(0.743794 -0.0289787 -9.477e-21)
(0.743273 -0.024753 4.11949e-21)
(0.743189 -0.020788 2.39525e-21)
(0.743573 -0.0171162 6.55065e-22)
(0.744442 -0.0137717 -2.50339e-21)
(0.745811 -0.0107847 1.12767e-21)
(0.747687 -0.00818066 -4.33429e-21)
(0.750095 -0.00597866 2.91063e-21)
(0.753024 -0.00418762 -1.82282e-21)
(0.75644 -0.00283673 3.87419e-21)
(0.760338 -0.00194041 -2.05311e-21)
(0.764706 -0.00150824 -1.6014e-21)
(0.769522 -0.0015465 6.52425e-21)
(0.774759 -0.00205835 -7.67496e-21)
(0.780381 -0.00304271 2.95831e-21)
(0.78635 -0.0044924 3.91523e-21)
(0.792622 -0.00639287 -4.2434e-21)
(0.799161 -0.00871929 -6.56499e-24)
(0.805884 -0.0114385 -1.53284e-22)
(0.812727 -0.0145429 -4.54737e-21)
(0.819668 -0.0179942 9.61058e-21)
(0.826653 -0.0217513 -3.98619e-21)
(0.833628 -0.0257689 1.55436e-21)
(0.840541 -0.03 -3.59909e-21)
(0.84734 -0.0343944 -2.55261e-21)
(0.853981 -0.0389037 2.69225e-21)
(0.860416 -0.0434738 3.01986e-21)
(0.866607 -0.0480589 -5.0988e-21)
(0.872512 -0.0525987 3.39604e-21)
(0.878105 -0.0570576 -3.94518e-21)
(0.88335 -0.0613653 2.89858e-21)
(0.888225 -0.0655072 5.31267e-22)
(0.892725 -0.0693935 -1.34131e-21)
(0.896786 -0.0730394 1.19829e-21)
(0.900535 -0.0763418 -2.80032e-22)
(0.903665 -0.0793019 1.07192e-22)
(0.906836 -0.0819455 -2.62656e-22)
(0.908745 -0.0838975 -1.21126e-22)
(0.912045 -0.0861735 1.22511e-23)
(0.851962 -0.0165953 -9.34523e-20)
(0.854527 -0.0198033 -8.89067e-21)
(0.857453 -0.0232944 -9.42244e-21)
(0.8607 -0.0270683 -3.50848e-19)
(0.864219 -0.0311178 7.63576e-20)
(0.867958 -0.0354311 2.56417e-20)
(0.871861 -0.0399897 4.04084e-19)
(0.875873 -0.0447678 -5.34289e-20)
(0.879936 -0.0497325 -1.154e-19)
(0.883992 -0.054845 1.35571e-19)
(0.887983 -0.0600612 -9.55619e-20)
(0.891853 -0.0653319 -9.6004e-20)
(0.895549 -0.0706041 -8.04712e-20)
(0.899019 -0.0758217 1.51729e-19)
(0.902217 -0.0809269 -3.21406e-19)
(0.905101 -0.085861 3.06719e-19)
(0.907635 -0.0905662 6.99173e-21)
(0.909789 -0.0949862 -2.12474e-19)
(0.911541 -0.099068 -8.37533e-20)
(0.912876 -0.102763 2.5669e-19)
(0.913784 -0.106027 -4.2032e-20)
(0.914266 -0.108823 -1.20772e-19)
(0.914327 -0.111119 1.42828e-19)
(0.913979 -0.112892 -1.74621e-20)
(0.913241 -0.114126 -1.38487e-20)
(0.912136 -0.114811 3.42945e-20)
(0.910691 -0.114946 -3.04451e-20)
(0.908936 -0.114537 1.12765e-20)
(0.906902 -0.113596 4.9949e-20)
(0.904625 -0.11214 -5.62073e-20)
(0.902139 -0.110193 2.26802e-20)
(0.89948 -0.107782 -1.37484e-20)
(0.896682 -0.104942 4.27036e-20)
(0.893781 -0.101707 -4.21676e-21)
(0.89081 -0.0981149 -2.36703e-21)
(0.8878 -0.0942061 -5.92142e-20)
(0.884783 -0.0900217 3.40165e-21)
(0.881788 -0.085604 1.32744e-20)
(0.878841 -0.0809957 -1.68191e-20)
(0.875971 -0.0762396 1.90887e-20)
(0.873203 -0.0713783 -7.84318e-22)
(0.870562 -0.066454 8.36029e-21)
(0.868074 -0.0615081 8.04809e-21)
(0.865763 -0.0565808 -1.1895e-20)
(0.863653 -0.0517113 -8.60271e-21)
(0.86177 -0.0469374 -6.56327e-21)
(0.860137 -0.0422953 1.87894e-20)
(0.858777 -0.0378198 -7.41858e-21)
(0.857715 -0.033544 2.22784e-23)
(0.856972 -0.0294996 -1.22932e-20)
(0.856569 -0.0257163 1.163e-20)
(0.856522 -0.0222228 -1.88814e-22)
(0.856843 -0.0190465 -9.87855e-21)
(0.857546 -0.0162125 1.61729e-20)
(0.858654 -0.013742 -1.00911e-20)
(0.860176 -0.0116576 2.15723e-21)
(0.862111 -0.00997806 -3.05286e-21)
(0.864452 -0.00873074 2.40865e-21)
(0.867185 -0.00791696 3.14361e-21)
(0.8703 -0.00753825 1.52966e-21)
(0.873778 -0.00759559 -3.71314e-21)
(0.877594 -0.0080885 -3.31557e-21)
(0.881716 -0.00901426 1.55589e-21)
(0.886114 -0.0103665 4.16917e-21)
(0.89075 -0.0121343 3.20232e-21)
(0.89559 -0.0143019 -3.03236e-21)
(0.900591 -0.01685 6.12831e-21)
(0.905706 -0.0197612 -1.4588e-20)
(0.910887 -0.0229854 1.16874e-20)
(0.916092 -0.0264873 -8.63031e-21)
(0.921276 -0.0302291 3.81466e-21)
(0.926392 -0.0341677 3.0978e-21)
(0.931398 -0.0382595 -1.81566e-21)
(0.936251 -0.0424561 1.65961e-21)
(0.940916 -0.0467137 -3.18785e-21)
(0.945352 -0.0509796 -3.31284e-21)
(0.949538 -0.0552154 3.41449e-21)
(0.953432 -0.0593622 -1.39254e-21)
(0.957034 -0.0633951 1.8418e-22)
(0.960292 -0.0672422 7.42921e-22)
(0.963243 -0.0709053 -7.79354e-23)
(0.965812 -0.0742878 6.1749e-22)
(0.968084 -0.0774306 -6.67876e-22)
(0.969956 -0.0802121 3.92867e-22)
(0.971549 -0.0826834 3.07811e-22)
(0.972798 -0.0848061 3.73486e-22)
(0.973685 -0.0863669 -7.66455e-23)
(0.974585 -0.0880585 -3.50613e-23)
(1.00225 -0.0193358 1.31619e-19)
(1.00323 -0.0230801 -3.4505e-19)
(1.00447 -0.0270613 2.32381e-19)
(1.00591 -0.0312733 -1.09369e-19)
(1.00751 -0.0357055 2.05631e-19)
(1.00921 -0.0403409 -3.87703e-19)
(1.01098 -0.0451557 4.25891e-19)
(1.01275 -0.0501201 -3.18035e-19)
(1.01448 -0.0551985 2.59799e-19)
(1.01611 -0.0603502 -1.61442e-19)
(1.0176 -0.0655299 -1.01773e-19)
(1.0189 -0.0706889 2.97041e-19)
(1.01997 -0.0757753 -2.86521e-19)
(1.02078 -0.080736 -1.75076e-19)
(1.0213 -0.0855172 2.70496e-19)
(1.02149 -0.0900657 -1.22906e-21)
(1.02135 -0.0943301 9.80772e-20)
(1.02085 -0.0982619 -7.14934e-20)
(1.02001 -0.101817 8.83633e-20)
(1.01882 -0.104954 -1.90809e-19)
(1.01729 -0.107641 -1.01366e-19)
(1.01543 -0.109848 9.19893e-20)
(1.01327 -0.111553 8.79865e-20)
(1.01084 -0.112743 9.66498e-20)
(1.00815 -0.113408 -7.36401e-20)
(1.00525 -0.113548 -7.40234e-21)
(1.00217 -0.113166 -4.47799e-20)
(0.998938 -0.112273 -4.35524e-20)
(0.995594 -0.110885 7.98023e-20)
(0.992172 -0.109024 -8.04815e-22)
(0.988704 -0.106714 -4.09284e-20)
(0.985223 -0.103986 1.39682e-20)
(0.98176 -0.100873 -2.58276e-20)
(0.978348 -0.097409 1.10995e-20)
(0.975011 -0.0936331 2.73505e-20)
(0.971778 -0.0895846 -1.70509e-20)
(0.96867 -0.0853047 -1.7875e-20)
(0.96571 -0.0808354 1.71559e-20)
(0.962916 -0.0762193 2.54206e-20)
(0.960307 -0.0714994 -3.91772e-20)
(0.957897 -0.0667183 1.94345e-20)
(0.955703 -0.0619185 -1.52198e-20)
(0.953737 -0.057142 2.57399e-20)
(0.952013 -0.0524296 -2.33828e-20)
(0.950541 -0.0478209 1.28638e-20)
(0.949333 -0.0433542 7.71508e-21)
(0.948398 -0.0390662 -9.45768e-22)
(0.947745 -0.0349917 1.14944e-21)
(0.947383 -0.0311634 2.2896e-21)
(0.947318 -0.0276121 -8.99335e-21)