/*--------------------------------*- C++ -*----------------------------------*\
  =========                 |
  \\      /  F ield         | OpenFOAM: The Open Source CFD Toolbox
   \\    /   O peration     | Website:  https://openfoam.org
    \\  /    A nd           | Version:  7
     \\/     M anipulation  |
\*---------------------------------------------------------------------------*/
FoamFile
{
    version     2.0;
    format      ascii;
    class       volScalarField;
    location    "25";
    object      p;
}
// * * * * * * * * * * * * * * * * * * * * * * * * * * * * * * * * * * * * * //

dimensions      [0 2 -2 0 0 0 0];

internalField   nonuniform List<scalar> 
3313
(
-0.233693
-0.234814
-0.23561
-0.236194
-0.236686
-0.237112
-0.237488
-0.237829
-0.238146
-0.233987
-0.235087
-0.235868
-0.236438
-0.236917
-0.237329
-0.237691
-0.238017
-0.238318
-0.234567
-0.235628
-0.236377
-0.236921
-0.237373
-0.237757
-0.238089
-0.238384
-0.238653
-0.235419
-0.236423
-0.237128
-0.237632
-0.238042
-0.238383
-0.23867
-0.238917
-0.239135
-0.236526
-0.23746
-0.238107
-0.238557
-0.238911
-0.239192
-0.239417
-0.239597
-0.239743
-0.237866
-0.23872
-0.239298
-0.239682
-0.239964
-0.240169
-0.240311
-0.240404
-0.240454
-0.239425
-0.24019
-0.240688
-0.240992
-0.241186
-0.241296
-0.241336
-0.241318
-0.241249
-0.241127
-0.241188
-0.241859
-0.242267
-0.242476
-0.242566
-0.242561
-0.242478
-0.242328
-0.242114
-0.24183
-0.243153
-0.243724
-0.24403
-0.244128
-0.244095
-0.243957
-0.24373
-0.243427
-0.243046
-0.242576
-0.242005
-0.245325
-0.245789
-0.245979
-0.245949
-0.245773
-0.245479
-0.245088
-0.244613
-0.244048
-0.243374
-0.242564
-0.247723
-0.248069
-0.248126
-0.247947
-0.247602
-0.24713
-0.246554
-0.245888
-0.245126
-0.244237
-0.243178
-0.241916
-0.250377
-0.250589
-0.250493
-0.250136
-0.249596
-0.248916
-0.248131
-0.247255
-0.246283
-0.245177
-0.24387
-0.2423
-0.240366
-0.253333
-0.253391
-0.253111
-0.252545
-0.251774
-0.250854
-0.249827
-0.248718
-0.247519
-0.246187
-0.244637
-0.242769
-0.240438
-0.256654
-0.256526
-0.256027
-0.255213
-0.25417
-0.252969
-0.251665
-0.250289
-0.248839
-0.247271
-0.245486
-0.24335
-0.240626
-0.236249
-0.260418
-0.260065
-0.259305
-0.258197
-0.256836
-0.25531
-0.253687
-0.252009
-0.250283
-0.248472
-0.246492
-0.244225
-0.241381
-0.236561
-0.23111
-0.264727
-0.264095
-0.263021
-0.261569
-0.259842
-0.257946
-0.255964
-0.253949
-0.251917
-0.249851
-0.247701
-0.245425
-0.242965
-0.24001
-0.245477
-0.269694
-0.268717
-0.267269
-0.26542
-0.263281
-0.260973
-0.258595
-0.256208
-0.253837
-0.251471
-0.249086
-0.246685
-0.244353
-0.242231
-0.24521
-0.275444
-0.274039
-0.272152
-0.269855
-0.267258
-0.264503
-0.261698
-0.258908
-0.256155
-0.253428
-0.250701
-0.247985
-0.245336
-0.243167
-0.242813
-0.282099
-0.280175
-0.27778
-0.274983
-0.271891
-0.268656
-0.265394
-0.262161
-0.258964
-0.255772
-0.252536
-0.249244
-0.245871
-0.242848
-0.23993
-0.289774
-0.287228
-0.284255
-0.280913
-0.277289
-0.273544
-0.269784
-0.266044
-0.2623
-0.258484
-0.254513
-0.250339
-0.245895
-0.241517
-0.236426
-0.29856
-0.295289
-0.291671
-0.287742
-0.283553
-0.279256
-0.274936
-0.270587
-0.266135
-0.261475
-0.256497
-0.251144
-0.245364
-0.239407
-0.232638
-0.308515
-0.30442
-0.300099
-0.295548
-0.290756
-0.285849
-0.280867
-0.275747
-0.270365
-0.264587
-0.258314
-0.251522
-0.244228
-0.236669
-0.228439
-0.319651
-0.314646
-0.309576
-0.30437
-0.298926
-0.293316
-0.287516
-0.281398
-0.274801
-0.267603
-0.25976
-0.251335
-0.24244
-0.233346
-0.223844
-0.331919
-0.325939
-0.320087
-0.314196
-0.308026
-0.301571
-0.29473
-0.287319
-0.279183
-0.270263
-0.260627
-0.25045
-0.239944
-0.229421
-0.218746
-0.345195
-0.338201
-0.331551
-0.324931
-0.317926
-0.310422
-0.302245
-0.293199
-0.28319
-0.272289
-0.260708
-0.248742
-0.236679
-0.22484
-0.213087
-0.359263
-0.35125
-0.343794
-0.336384
-0.328381
-0.319557
-0.309697
-0.298654
-0.286473
-0.273402
-0.259813
-0.246092
-0.232568
-0.219529
-0.206787
-0.373801
-0.364801
-0.356537
-0.348243
-0.339025
-0.328552
-0.316631
-0.303254
-0.288673
-0.27334
-0.257762
-0.242381
-0.227523
-0.213403
-0.199776
-0.38838
-0.378459
-0.369381
-0.360071
-0.349364
-0.33688
-0.322537
-0.306556
-0.289447
-0.271857
-0.254387
-0.237484
-0.221435
-0.206357
-0.191971
-0.402458
-0.391713
-0.381807
-0.371308
-0.358805
-0.343948
-0.326881
-0.308129
-0.288476
-0.268726
-0.249519
-0.231264
-0.214181
-0.198277
-0.183279
-0.415396
-0.40395
-0.39319
-0.381296
-0.36668
-0.349135
-0.329138
-0.307573
-0.285472
-0.263738
-0.242993
-0.223577
-0.205628
-0.189041
-0.173594
-0.426476
-0.414472
-0.402815
-0.389309
-0.372289
-0.351828
-0.328826
-0.304533
-0.280177
-0.256695
-0.234646
-0.214279
-0.195641
-0.178528
-0.162806
-0.434934
-0.422524
-0.409919
-0.394592
-0.374946
-0.351461
-0.325518
-0.2987
-0.272365
-0.247419
-0.224324
-0.203229
-0.184093
-0.16663
-0.15081
-0.439993
-0.427331
-0.413731
-0.396413
-0.374016
-0.347541
-0.318857
-0.289822
-0.261845
-0.235752
-0.211885
-0.190296
-0.170866
-0.153243
-0.137491
-0.440902
-0.42814
-0.413513
-0.394103
-0.368954
-0.339664
-0.308564
-0.277704
-0.24847
-0.221568
-0.197215
-0.17537
-0.155847
-0.138235
-0.12267
-0.436976
-0.424264
-0.408604
-0.387091
-0.359324
-0.327533
-0.294443
-0.262211
-0.23214
-0.204791
-0.180253
-0.158399
-0.138969
-0.12146
-0.106081
-0.427634
-0.415112
-0.398461
-0.374935
-0.344814
-0.310951
-0.276378
-0.243273
-0.212808
-0.185393
-0.160996
-0.139414
-0.120291
-0.10297
-0.0876953
-0.412423
-0.40023
-0.38268
-0.357336
-0.325246
-0.289833
-0.254336
-0.220878
-0.190475
-0.163385
-0.139476
-0.118477
-0.0999406
-0.0831213
-0.0686188
-0.391046
-0.379317
-0.361017
-0.334149
-0.300572
-0.264196
-0.228362
-0.195078
-0.165189
-0.138815
-0.115748
-0.0956452
-0.077963
-0.0620281
-0.0489014
-0.363378
-0.352242
-0.333397
-0.305386
-0.270879
-0.234165
-0.198579
-0.165981
-0.137051
-0.111782
-0.0898885
-0.0709826
-0.0544701
-0.0397727
-0.0281904
-0.329468
-0.319052
-0.299919
-0.271218
-0.236387
-0.199935
-0.165166
-0.133755
-0.106203
-0.0824002
-0.062006
-0.0445921
-0.0295416
-0.0163636
-0.00649067
-0.289541
-0.279968
-0.260862
-0.231984
-0.197395
-0.161737
-0.128374
-0.0986236
-0.0728448
-0.0508483
-0.0322561
-0.0166064
-0.00327767
0.00809821
0.0159478
-0.24397
-0.235389
-0.216662
-0.18808
-0.154097
-0.120059
-0.0885679
-0.0608803
-0.0372208
-0.0173357
-0.000821101
0.0128116
0.0241405
0.0333203
0.0386877
-0.193224
-0.185875
-0.167751
-0.139756
-0.107432
-0.0753475
-0.046144
-0.0208625
0.000398164
0.0179341
0.0321641
0.043569
0.052557
0.0589504
0.0614207
-0.137902
-0.132102
-0.114739
-0.0881303
-0.0577847
-0.0281226
-0.0015686
0.0210335
0.0396941
0.0547506
0.0666396
0.0757811
0.0822368
0.085389
0.0848172
-0.0790627
-0.0746799
-0.0585909
-0.0337613
-0.00582298
0.0210198
0.0446164
0.0643143
0.0802274
0.0927534
0.10238
0.10947
0.113725
0.114321
0.111836
-0.0175463
-0.0145369
-6.85206e-05
0.0225873
0.0477294
0.0714246
0.0918079
0.108407
0.121429
0.131337
0.138678
0.143774
0.146135
0.145418
0.1476
0.045814
0.0473326
0.0599459
0.0800927
0.102118
0.122409
0.139384
0.152731
0.162734
0.169886
0.174704
0.177413
0.177734
0.176548
0.179655
0.110021
0.109966
0.120531
0.137905
0.156574
0.173281
0.186718
0.196721
0.203634
0.207963
0.210188
0.210508
0.20886
0.206455
0.207815
0.174062
0.172391
0.180761
0.195172
0.21033
0.22335
0.233187
0.239801
0.243581
0.245029
0.244597
0.242503
0.238835
0.234795
0.233863
0.236934
0.233638
0.239718
0.251058
0.262635
0.271947
0.278193
0.281442
0.282111
0.280693
0.277617
0.273104
0.267303
0.261338
0.258039
0.297658
0.29276
0.296515
0.304754
0.312767
0.318428
0.32116
0.321125
0.31876
0.314546
0.308893
0.302019
0.294102
0.286171
0.280538
0.355293
0.348847
0.350302
0.355489
0.360037
0.362179
0.361543
0.358367
0.353102
0.346215
0.338094
0.328956
0.318994
0.309141
0.301272
0.408955
0.401044
0.400283
0.402545
0.403803
0.40263
0.398833
0.392716
0.384736
0.375349
0.364921
0.353667
0.341793
0.330118
0.320137
0.457824
0.44856
0.445722
0.445258
0.443474
0.439253
0.432561
0.423753
0.413293
0.40162
0.389084
0.375903
0.362284
0.348925
0.336997
0.501161
0.490681
0.48596
0.483032
0.478517
0.471572
0.462301
0.4511
0.438435
0.42473
0.410323
0.395434
0.380268
0.365399
0.351722
0.538311
0.526778
0.520412
0.51534
0.508461
0.49917
0.48768
0.474424
0.459864
0.444415
0.428403
0.412051
0.39556
0.379382
0.364187
0.568718
0.556316
0.548584
0.541736
0.532909
0.521689
0.508379
0.493437
0.477325
0.460447
0.443121
0.425574
0.407998
0.390739
0.37429
0.591927
0.578859
0.570072
0.561857
0.551535
0.538837
0.524136
0.507906
0.490608
0.472638
0.454309
0.435851
0.417448
0.399358
0.381942
0.607594
0.594073
0.584569
0.575427
0.564091
0.550394
0.534752
0.517652
0.499554
0.480847
0.461841
0.442768
0.423807
0.405152
0.38708
0.615486
0.601737
0.59187
0.582258
0.570411
0.55621
0.540094
0.522555
0.504054
0.484975
0.465628
0.446247
0.427004
0.408064
0.389659
-0.239317
-0.171466
-0.150601
-0.120373
-0.0989303
-0.0829372
-0.069883
-0.0595938
-0.0511464
-0.0441758
-0.0383516
-0.033432
-0.0292433
-0.0256506
-0.0225507
-0.0198624
-0.0175212
-0.015475
-0.0136814
-0.0121063
-0.0107188
-0.00949426
-0.008412
-0.00745378
-0.00660473
-0.00585161
-0.0051832
-0.00458967
-0.00406247
-0.00359413
-0.00317807
-0.00280856
-0.00248047
-0.00218936
-0.00193125
-0.00170257
-0.00150042
-0.00132215
-0.00116537
-0.00102807
-0.000908403
-0.000804801
-0.000715889
-0.000640493
-0.000577623
-0.000526445
-0.000486276
-0.000456619
-0.000437031
-0.000427193
-0.240851
-0.161859
-0.144429
-0.115281
-0.0944826
-0.0795058
-0.0669852
-0.0572029
-0.0491485
-0.0424908
-0.0369237
-0.0322138
-0.0281985
-0.0247504
-0.0217719
-0.019186
-0.0169321
-0.0149603
-0.0132308
-0.0117111
-0.0103714
-0.00918834
-0.00814222
-0.00721548
-0.006394
-0.00566502
-0.0050178
-0.0044429
-0.0039321
-0.0034782
-0.00307487
-0.00271659
-0.0023984
-0.00211602
-0.00186561
-0.00164368
-0.00144747
-0.00127443
-0.00112222
-0.000988916
-0.000872714
-0.000772104
-0.000685751
-0.000612513
-0.000551433
-0.0005017
-0.000462651
-0.000433809
-0.000414731
-0.0004051
-0.241683
-0.156206
-0.137941
-0.111
-0.0902675
-0.0762348
-0.0642211
-0.0548819
-0.0472032
-0.0408399
-0.0355186
-0.0310111
-0.0271643
-0.0238577
-0.0209983
-0.0185136
-0.0163459
-0.014448
-0.0127821
-0.0113174
-0.0100253
-0.00888358
-0.00787346
-0.00697809
-0.00618406
-0.00547913
-0.00485302
-0.00429667
-0.00380217
-0.00336264
-0.00297197
-0.00262486
-0.00231651
-0.0020428
-0.00180003
-0.00158479
-0.00139449
-0.00122662
-0.00107895
-0.000949604
-0.00083684
-0.000739197
-0.00065538
-0.000584284
-0.000524981
-0.000476684
-0.000438749
-0.000410722
-0.000392157
-0.000382748
-0.236216
-0.151947
-0.130962
-0.106977
-0.0862667
-0.0730427
-0.0615713
-0.0526339
-0.04532
-0.0392402
-0.034155
-0.0298434
-0.0261593
-0.0229894
-0.0202454
-0.0178585
-0.0157744
-0.013948
-0.0123438
-0.0109326
-0.00968662
-0.00858505
-0.00760993
-0.00674508
-0.00597778
-0.00529627
-0.00469074
-0.00415248
-0.00367392
-0.00324843
-0.00287014
-0.00253396
-0.00223525
-0.00197005
-0.00173478
-0.00152612
-0.00134161
-0.00117884
-0.00103563
-0.000910193
-0.000800821
-0.000706107
-0.000624797
-0.000555818
-0.000498276
-0.000451403
-0.000414577
-0.000387363
-0.000369312
-0.000360141
-0.228213
-0.149117
-0.124169
-0.102929
-0.0824608
-0.0698641
-0.0589747
-0.0504183
-0.0434582
-0.0376581
-0.0328037
-0.0286847
-0.025161
-0.0221259
-0.019496
-0.017206
-0.0152046
-0.0134491
-0.0119062
-0.0105481
-0.00934815
-0.00828654
-0.00734627
-0.00651184
-0.00577118
-0.00511304
-0.00452804
-0.00400785
-0.0035452
-0.00313375
-0.00276784
-0.00244259
-0.00215353
-0.00189686
-0.00166909
-0.00146702
-0.00128831
-0.00113066
-0.000991924
-0.000870403
-0.000764436
-0.000672665
-0.000593873
-0.000527025
-0.000471254
-0.000425816
-0.00039011
-0.000363722
-0.000346197
-0.000337279
-0.218154
-0.14611
-0.117686
-0.0986878
-0.0788214
-0.0667128
-0.0564218
-0.0482436
-0.0416243
-0.0361009
-0.0314721
-0.0275421
-0.0241758
-0.0212732
-0.0187552
-0.0165604
-0.0146404
-0.0129548
-0.0114723
-0.0101666
-0.009012
-0.00798983
-0.00708401
-0.00627965
-0.00556535
-0.00493036
-0.0043657
-0.00386343
-0.00341658
-0.00301906
-0.00266546
-0.00235108
-0.00207162
-0.00182343
-0.00160314
-0.00140764
-0.00123473
-0.00108217
-0.00094791
-0.000830303
-0.000727741
-0.000638914
-0.000562645
-0.000497931
-0.000443937
-0.000399942
-0.000365364
-0.000339809
-0.000322819
-0.000314169
-0.207881
-0.142863
-0.111737
-0.0942776
-0.0752929
-0.0635955
-0.0538906
-0.046098
-0.0398079
-0.0345588
-0.0301524
-0.0264087
-0.0231979
-0.0204261
-0.0180189
-0.0159183
-0.0140789
-0.0124625
-0.0110398
-0.00978616
-0.0086766
-0.00769361
-0.00682202
-0.00604757
-0.00535951
-0.00474755
-0.00420316
-0.00371875
-0.00328765
-0.00290403
-0.00256271
-0.00225919
-0.00198933
-0.00174963
-0.00153682
-0.00134788
-0.00118076
-0.00103332
-0.000903536
-0.000789854
-0.000690707
-0.000604835
-0.000531099
-0.00046853
-0.000416323
-0.000373779
-0.00034034
-0.00031563
-0.000299185
-0.000290817
-0.197644
-0.138919
-0.106174
-0.0897397
-0.0718199
-0.0605259
-0.0513777
-0.0439812
-0.0380113
-0.0330331
-0.0288464
-0.0252861
-0.0222288
-0.0195861
-0.0172882
-0.0152807
-0.0135209
-0.0119729
-0.0106095
-0.0094074
-0.00834249
-0.00739834
-0.00656071
-0.00581595
-0.00515393
-0.00456487
-0.00404063
-0.00357398
-0.00315856
-0.00278879
-0.00245972
-0.00216702
-0.00190674
-0.00167551
-0.00147017
-0.0012878
-0.00112647
-0.00098413
-0.000858836
-0.000749082
-0.000653358
-0.000570447
-0.000499252
-0.000438836
-0.000388425
-0.000347341
-0.000315049
-0.000291193
-0.000275303
-0.000267228
-0.187814
-0.134425
-0.100927
-0.0851566
-0.0683627
-0.0575039
-0.0488785
-0.0418859
-0.0362309
-0.0315202
-0.0275511
-0.0241721
-0.0212666
-0.0187516
-0.016562
-0.0146466
-0.0129656
-0.0114854
-0.0101807
-0.00902982
-0.00800925
-0.00710368
-0.00629979
-0.00558454
-0.00494843
-0.00438215
-0.00387798
-0.00342903
-0.00302923
-0.00267328
-0.00235642
-0.00207454
-0.00182382
-0.00160106
-0.00140319
-0.00122737
-0.00107184
-0.000934609
-0.000813806
-0.00070799
-0.000615697
-0.000535756
-0.00046711
-0.000408857
-0.00036025
-0.000320634
-0.000289499
-0.000266506
-0.00025118
-0.000243407
-0.178261
-0.129354
-0.0958374
-0.0805698
-0.0648965
-0.0545247
-0.046394
-0.039809
-0.0344662
-0.0300195
-0.0262662
-0.0230665
-0.0203112
-0.0179226
-0.0158401
-0.014016
-0.012413
-0.011
-0.00975366
-0.00865352
-0.00767698
-0.00680971
-0.00603934
-0.00535342
-0.00474308
-0.00419946
-0.00371527
-0.00328394
-0.00289971
-0.00255752
-0.00225285
-0.00198176
-0.0017406
-0.0015263
-0.00133589
-0.00116663
-0.00101688
-0.000884771
-0.000768465
-0.000666592
-0.000577738
-0.000500775
-0.000434687
-0.000378603
-0.000331809
-0.00029367
-0.0002637
-0.000241579
-0.000226824
-0.000219362
-0.168926
-0.123831
-0.0908254
-0.0760118
-0.0614116
-0.0515783
-0.0439239
-0.0377461
-0.0327149
-0.0285289
-0.0249901
-0.0219681
-0.0193617
-0.0170984
-0.0151221
-0.0133884
-0.0118629
-0.0105165
-0.00932798
-0.00827832
-0.0073455
-0.0065163
-0.00577926
-0.00512252
-0.0045378
-0.00401676
-0.00355245
-0.00313868
-0.00276998
-0.00244152
-0.002149
-0.00188868
-0.00165707
-0.00145123
-0.00126828
-0.00110557
-0.000961611
-0.000834624
-0.000722822
-0.000624899
-0.000539491
-0.000465515
-0.000401992
-0.000348087
-0.000303113
-0.000266457
-0.000237661
-0.000216419
-0.000202244
-0.000195098
-0.159656
-0.117887
-0.0858057
-0.0714846
-0.0579042
-0.0486533
-0.0414674
-0.0356944
-0.030975
-0.0270472
-0.0237217
-0.0208762
-0.0184175
-0.0162786
-0.0144077
-0.0127637
-0.011315
-0.0100347
-0.00890365
-0.00790418
-0.00701479
-0.00622344
-0.00551955
-0.00489184
-0.00433263
-0.00383404
-0.00338955
-0.00299327
-0.00264004
-0.00232528
-0.00204489
-0.00179533
-0.00157325
-0.00137587
-0.00120038
-0.00104422
-0.000906044
-0.000784182
-0.000676889
-0.000582924
-0.00050097
-0.000429987
-0.000369038
-0.000317319
-0.000274172
-0.000239007
-0.000211392
-0.000191037
-0.000177449
-0.000170623
-0.150341
-0.111589
-0.0807343
-0.0669839
-0.0543743
-0.0457377
-0.0390215
-0.0336509
-0.0292442
-0.0255727
-0.0224597
-0.01979
-0.0174781
-0.0154628
-0.0136965
-0.0121416
-0.0107692
-0.00955449
-0.00848053
-0.00753099
-0.00668484
-0.00593109
-0.00526019
-0.00466136
-0.00412753
-0.00365132
-0.00322656
-0.00284773
-0.00250992
-0.00220882
-0.00194054
-0.00170172
-0.00148916
-0.00130024
-0.00113221
-0.000982581
-0.000850193
-0.000733461
-0.000630682
-0.000540681
-0.000462188
-0.000394207
-0.000335838
-0.000286312
-0.000245
-0.000211331
-0.000184903
-0.000165442
-0.000152447
-0.000145943
-0.14084
-0.104974
-0.0755629
-0.0624952
-0.05082
-0.0428206
-0.0365823
-0.0316127
-0.0275205
-0.0241046
-0.0212034
-0.0187088
-0.0165431
-0.0146506
-0.0129883
-0.0115221
-0.0102254
-0.0090758
-0.00805856
-0.00715867
-0.0063557
-0.0056393
-0.00500119
-0.00443111
-0.00392255
-0.00346861
-0.00306351
-0.00270206
-0.00237963
-0.00209216
-0.00183596
-0.00160785
-0.00140482
-0.00122435
-0.00106378
-0.000920684
-0.000794076
-0.000682476
-0.000584218
-0.000498186
-0.000423161
-0.000358188
-0.000302407
-0.00025508
-0.000215608
-0.000183442
-0.000158208
-0.000139646
-0.000127248
-0.000121066
-0.131015
-0.0980744
-0.0702449
-0.0580064
-0.0472384
-0.0398958
-0.0341457
-0.029577
-0.0258026
-0.0226432
-0.0199526
-0.0176324
-0.0156121
-0.013842
-0.0122831
-0.0109049
-0.00968353
-0.0085986
-0.00763768
-0.00678715
-0.00602748
-0.00534814
-0.00474259
-0.00420111
-0.0037177
-0.00328594
-0.00290043
-0.00255629
-0.0022492
-0.00197531
-0.00173117
-0.00151377
-0.00132024
-0.00114823
-0.000995113
-0.000858545
-0.000737711
-0.000631246
-0.000537513
-0.000455457
-0.000383907
-0.000321948
-0.00026876
-0.000223639
-0.000186012
-0.000155354
-0.000131317
-0.000113661
-0.000101865
-9.60031e-05
-0.120692
-0.0909043
-0.0647229
-0.053512
-0.0436283
-0.0369664
-0.0317109
-0.0275424
-0.0240901
-0.0211896
-0.0187076
-0.0165607
-0.0146851
-0.0130366
-0.0115807
-0.0102901
-0.00914353
-0.00812283
-0.00721786
-0.00641641
-0.00570011
-0.00505758
-0.00448439
-0.00397137
-0.00351298
-0.00310331
-0.00273732
-0.00241044
-0.00211864
-0.00185831
-0.00162619
-0.00141948
-0.00123545
-0.00107189
-0.00092623
-0.000796179
-0.000681114
-0.000579785
-0.000490583
-0.000412507
-0.000344437
-0.000285499
-0.00023491
-0.000191999
-0.000156224
-0.000127076
-0.000104243
-8.74957e-05
-7.63046e-05
-7.07589e-05
-0.109665
-0.0835066
-0.0589665
-0.0490181
-0.0400006
-0.0340412
-0.0292807
-0.0255101
-0.0223824
-0.0197427
-0.0174675
-0.0154928
-0.0137613
-0.012234
-0.0108806
-0.00967719
-0.00860508
-0.00764823
-0.00679892
-0.00604661
-0.00537301
-0.00476737
-0.00422643
-0.00374177
-0.00330833
-0.00292068
-0.00257413
-0.00226448
-0.00198793
-0.00174112
-0.00152101
-0.00132496
-0.00115043
-0.000995327
-0.00085713
-0.00073359
-0.000624286
-0.000528096
-0.00044343
-0.000369341
-0.000304758
-0.000248846
-0.000200862
-0.000160168
-0.000126247
-9.86139e-05
-7.69879e-05
-6.11547e-05
-5.05699e-05
-4.53338e-05
-0.0976944
-0.0759648
-0.0530248
-0.0445276
-0.0363752
-0.0311201
-0.0268568
-0.0234836
-0.0206756
-0.0182932
-0.016228
-0.0144262
-0.0128389
-0.0114327
-0.0101818
-0.00906535
-0.00806747
-0.0071742
-0.00638034
-0.00567715
-0.0050461
-0.00447731
-0.00396854
-0.00351217
-0.00310362
-0.00273793
-0.0024108
-0.00211833
-0.00185701
-0.0016237
-0.00141559
-0.00123021
-0.00106517
-0.000918535
-0.000787807
-0.000670772
-0.000567223
-0.000476175
-0.000396053
-0.000325959
-0.000264869
-0.000211991
-0.000166619
-0.000128146
-9.60847e-05
-6.99684e-05
-4.9553e-05
-3.46378e-05
-2.46595e-05
-1.97237e-05
-0.0846261
-0.0683424
-0.0470415
-0.0400076
-0.0327441
-0.0281707
-0.0244252
-0.021453
-0.0189659
-0.0168416
-0.0149879
-0.0133596
-0.0119169
-0.010632
-0.00948345
-0.00845407
-0.00753034
-0.00670046
-0.00596187
-0.00530779
-0.00471933
-0.00418736
-0.0037107
-0.00328255
-0.00289884
-0.00255507
-0.00224733
-0.00197201
-0.0017259
-0.00150609
-0.00130996
-0.00113523
-0.000979688
-0.000841534
-0.000718286
-0.00060775
-0.000509945
-0.000424041
-0.00034847
-0.000282377
-0.000224789
-0.00017495
-0.000132194
-9.59482e-05
-6.5749e-05
-4.11518e-05
-2.19499e-05
-7.95636e-06
1.41632e-06
6.06355e-06
-0.0706508
-0.0605122
-0.041037
-0.0353581
-0.0290799
-0.0251863
-0.0219765
-0.0194133
-0.0172516
-0.0153881
-0.0137477
-0.0122942
-0.0109966
-0.00983307
-0.00878704
-0.00784463
-0.00699489
-0.00622807
-0.00554445
-0.00493941
-0.00439353
-0.00389823
-0.00345352
-0.00305345
-0.00269446
-0.00237252
-0.00208407
-0.00182585
-0.00159488
-0.00138851
-0.00120432
-0.00104021
-0.000894144
-0.000764466
-0.000648693
-0.000544633
-0.000452551
-0.000371783
-0.000300764
-0.000238672
-0.000184585
-0.000137788
-9.76498e-05
-6.36317e-05
-3.52955e-05
-1.22167e-05
5.77075e-06
1.88406e-05
2.76103e-05
3.19793e-05
-0.0562462
-0.051989
-0.0348946
-0.0305267
-0.0253305
-0.0221466
-0.0195003
-0.0173624
-0.0155354
-0.0139379
-0.0125132
-0.0112356
-0.0100834
-0.0090412
-0.00809725
-0.00724126
-0.00646484
-0.00576032
-0.00513098
-0.00457445
-0.00407075
-0.00361168
-0.00319849
-0.00282616
-0.00249158
-0.00219121
-0.00192184
-0.00168051
-0.00146453
-0.00127146
-0.0010991
-0.000945522
-0.000808855
-0.000687605
-0.000579266
-0.000481636
-0.000395235
-0.000319578
-0.000253093
-0.000194989
-0.000144393
-0.000100628
-6.31022e-05
-3.1307e-05
-4.82913e-06
1.67359e-05
3.35119e-05
4.56591e-05
5.38311e-05
5.79263e-05
-0.0412415
-0.0426385
-0.0284212
-0.0254342
-0.0214421
-0.0190356
-0.0169947
-0.0153057
-0.0138256
-0.0125
-0.0112935
-0.0101923
-0.00918491
-0.00826298
-0.00741979
-0.00664885
-0.00594439
-0.00530086
-0.00472454
-0.00421539
-0.00375298
-0.00332932
-0.00294697
-0.00260179
-0.00229114
-0.00201192
-0.00176126
-0.00153653
-0.00133529
-0.00115533
-0.000994616
-0.000851429
-0.000724048
-0.00061114
-0.000510169
-0.000418912
-0.000338137
-0.000267552
-0.000205572
-0.000151433
-0.000104309
-6.35619e-05
-2.86357e-05
9.46243e-07
2.55744e-05
4.56334e-05
6.12045e-05
7.24334e-05
8.00154e-05
8.38374e-05
-0.0255187
-0.0323352
-0.0215122
-0.020084
-0.0174326
-0.015878
-0.0144774
-0.0132543
-0.0121278
-0.0110767
-0.0100883
-0.0091628
-0.00829888
-0.00749566
-0.00675172
-0.00606442
-0.00543071
-0.00484706
-0.00432262
-0.00385978
-0.00343797
-0.00304921
-0.00269723
-0.00237881
-0.00209176
-0.00183342
-0.00160128
-0.00139299
-0.00120636
-0.0010394
-0.000890258
-0.000757393
-0.000639249
-0.000534656
-0.000441039
-0.000356144
-0.000280974
-0.000215448
-0.00015797
-0.000107793
-6.41398e-05
-2.64093e-05
5.91794e-06
3.32876e-05
5.60681e-05
7.46246e-05
8.8994e-05
9.93072e-05
0.000106307
0.000109871
-0.00907948
-0.0212978
-0.0144258
-0.0147206
-0.013459
-0.0127571
-0.011979
-0.011207
-0.0104246
-0.00964243
-0.00886929
-0.00811815
-0.00739755
-0.00671348
-0.00606961
-0.00546704
-0.00490532
-0.00438258
-0.00391071
-0.00349509
-0.00311517
-0.00276237
-0.00244157
-0.00215059
-0.00188776
-0.00165086
-0.00143773
-0.00124632
-0.00107469
-0.000921049
-0.000783769
-0.000661466
-0.000552776
-0.000456706
-0.000370637
-0.000292222
-0.000222731
-0.000162345
-0.000109455
-6.33142e-05
-2.31913e-05
1.1474e-05
4.11633e-05
6.62899e-05
8.7201e-05
0.000104243
0.000117398
0.000126785
0.000133202
0.000136578
0.00765834
-0.0103626
-0.00780259
-0.00976642
-0.00973365
-0.00975077
-0.00950305
-0.0091316
-0.00866756
-0.00814343
-0.00758265
-0.00700766
-0.00643454
-0.00587497
-0.00533695
-0.00482499
-0.00434068
-0.00388324
-0.0034678
-0.003104
-0.00277046
-0.00245702
-0.00216999
-0.00190865
-0.00167197
-0.0014582
-0.00126552
-0.00109221
-0.00093661
-0.000797179
-0.000672494
-0.000561371
-0.000462689
-0.000375651
-0.000297574
-0.00022587
-0.000162221
-0.000107166
-5.9055e-05
-1.7111e-05
1.93514e-05
5.08464e-05
7.78123e-05
0.000100628
0.00011962
0.000135118
0.000147023
0.000155453
0.000161275
0.000164604
0.0238808
-0.000246429
-0.00187325
-0.00526838
-0.00620542
-0.00678991
-0.00699274
-0.0069875
-0.00682955
-0.00656208
-0.00621767
-0.00582553
-0.00540763
-0.00498047
-0.00455588
-0.0041416
-0.0037406
-0.00335279
-0.0029978
-0.00269118
-0.00240866
-0.00213768
-0.00188666
-0.00165684
-0.00144792
-0.00125863
-0.00108753
-0.000933236
-0.00079442
-0.00066981
-0.00055822
-0.000458684
-0.000370392
-0.000292764
-0.000223
-0.00015807
-0.00010029
-5.06651e-05
-7.45603e-06
3.01891e-05
6.29113e-05
9.11721e-05
0.000115362
0.000135824
0.00015287
0.000166811
0.000177439
0.000184879
0.000190097
0.000193499
0.0397148
0.0104571
0.0048223
-0.000194318
-0.00226596
-0.00359291
-0.00437354
-0.00481724
-0.00501427
-0.00503085
-0.0049169
-0.00471366
-0.0044521
-0.00415543
-0.00384065
-0.00351937
-0.00319641
-0.00287262
-0.00257277
-0.00231865
-0.00208259
-0.00184993
-0.00163117
-0.00142947
-0.00124527
-0.00107772
-0.000925778
-0.000788382
-0.000664499
-0.000553104
-0.000453212
-0.000364071
-0.000285128
-0.000216068
-0.000153892
-9.51183e-05
-4.26771e-05
1.96648e-06
4.06412e-05
7.42919e-05
0.000103526
0.000128758
0.000150338
0.00016858
0.000183786
0.00019625
0.000205662
0.000212137
0.000216818
0.000220112
0.0577432
0.0257156
0.0150711
0.00715433
0.00290371
0.00011879
-0.0016626
-0.00278902
-0.00346173
-0.0038176
-0.00395139
-0.00393237
-0.00381016
-0.00362046
-0.00338921
-0.00313394
-0.00286405
-0.00258222
-0.00231549
-0.00208897
-0.00187808
-0.00166754
-0.00146739
-0.0012817
-0.00111146
-0.000956258
-0.000815325
-0.000687825
-0.000572873
-0.000469567
-0.000376995
-0.000294524
-0.000221581
-0.000158212
-0.000101173
-4.71315e-05
1.2269e-06
4.21732e-05
7.74606e-05
0.000108066
0.000134587
0.000157423
0.000176909
0.000193342
0.000207026
0.000218224
0.000226652
0.000232303
0.000236672
0.000239069
0.0796143
0.0462662
0.0289163
0.0166959
0.00913861
0.00421118
0.00105161
-0.000958391
-0.00220777
-0.00294671
-0.00333849
-0.00349441
-0.00349136
-0.0033828
-0.00320702
-0.00298955
-0.0027482
-0.00248845
-0.00223304
-0.00200447
-0.00179499
-0.00159017
-0.00139519
-0.00121351
-0.00104655
-0.000894365
-0.000756405
-0.000631904
-0.000519985
-0.000419745
-0.000330211
-0.00025075
-0.000180381
-0.000119615
-6.50722e-05
-1.48173e-05
3.03727e-05
6.88355e-05
0.000101901
0.000130426
0.000155022
0.000176105
0.000194027
0.000209074
0.000221559
0.000231677
0.000239396
0.000244426
0.000248776
0.000249171
0.0975053
0.0618772
0.0396857
0.0243863
0.0144936
0.00804544
0.00386468
0.001156
-0.000583726
-0.00167475
-0.00232456
-0.00267277
-0.00281535
-0.00281866
-0.00273023
-0.002582
-0.00239902
-0.00219077
-0.00197486
-0.00176653
-0.00157736
-0.00139499
-0.00122052
-0.00105662
-0.00090511
-0.000766557
-0.000640779
-0.000527225
-0.000425173
-0.000333853
-0.000252379
-0.000180173
-0.000116008
-6.0675e-05
-1.09225e-05
3.32168e-05
7.31632e-05
0.000107508
0.000137068
0.00016247
0.000184287
0.000202922
0.000218719
0.000231938
0.000242872
0.000251633
0.00025845
0.000262842
0.000266973
0.000265703
0.131867
0.0886692
0.0601823
0.0408119
0.0280569
0.0194499
0.0135168
0.00937199
0.00645144
0.00438391
0.00291946
0.00188587
0.00116228
0.000662767
0.000325281
0.000105324
-3.11942e-05
-0.000108142
-0.00014505
-0.000139432
-0.000125018
-0.000100252
-6.74849e-05
-2.96593e-05
1.03218e-05
5.02623e-05
8.88003e-05
0.000125142
0.000158833
0.000189649
0.000217488
0.000242426
0.000264773
0.000284029
0.000302256
0.000316052
0.000328839
0.000340117
0.000349789
0.000357928
0.000364751
0.000370447
0.000375173
0.000379036
0.000382155
0.000384521
0.000386342
0.000387746
0.000388622
0.000386983
0.164278
0.114098
0.0837632
0.0623558
0.0470027
0.0359339
0.0278288
0.0218068
0.0172781
0.013836
0.0111941
0.0091483
0.00755094
0.00629389
0.00529737
0.00450131
0.00386009
0.00333393
0.00289589
0.00256805
0.00229294
0.00205646
0.00185567
0.00168561
0.00154093
0.00141704
0.00131023
0.0012176
0.00113686
0.00106614
0.00100395
0.00094911
0.000900673
0.000858935
0.000822356
0.00078556
0.000753581
0.000726111
0.000702029
0.000680784
0.000662071
0.000645702
0.000631514
0.000619371
0.000609107
0.000600623
0.000593771
0.000589673
0.000585309
0.000584222
0.163925
0.127017
0.0986602
0.0773128
0.0610506
0.0487207
0.0393146
0.0320553
0.02639
0.021924
0.0183698
0.0155156
0.0132034
0.0113147
0.0097599
0.00846971
0.00738986
0.00647693
0.00570481
0.00506352
0.00451774
0.00404406
0.00363177
0.00327287
0.00295984
0.00268601
0.00244572
0.00223425
0.00204772
0.00188285
0.0017369
0.00160763
0.00149327
0.00139244
0.00130247
0.00122069
0.00114787
0.00108394
0.00102787
0.000978686
0.000935654
0.000898231
0.00086597
0.000838486
0.00081544
0.000796583
0.000781798
0.000771111
0.000763569
0.000760607
0.15868
0.129275
0.104932
0.0855562
0.0701159
0.0578083
0.0479975
0.0401441
0.0338159
0.0286802
0.024482
0.0210249
0.0181575
0.0157627
0.0137491
0.0120448
0.0105927
0.00934869
0.00828153
0.0073657
0.00657516
0.0058861
0.00528203
0.00475133
0.00428444
0.00387297
0.00350963
0.00318824
0.00290351
0.00265099
0.00242685
0.00222789
0.00205134
0.00189459
0.00175489
0.00163018
0.00151919
0.00142106
0.00133474
0.00125902
0.00119285
0.00113537
0.00108587
0.00104376
0.00100851
0.000979763
0.000957203
0.000940546
0.000929632
0.000924488
0.147367
0.126507
0.107279
0.090522
0.0763202
0.064492
0.0547184
0.0466512
0.0399724
0.0344174
0.0297733
0.0258699
0.022571
0.019768
0.0173738
0.0153183
0.0135452
0.0120101
0.010678
0.00951865
0.00850662
0.00761913
0.00683766
0.00614777
0.0055378
0.0049978
0.00451916
0.00409441
0.00371712
0.00338176
0.00308356
0.00281839
0.0025826
0.00237284
0.00218611
0.00202
0.00187245
0.00174184
0.00162669
0.0015256
0.00143727
0.00136057
0.00129454
0.00123839
0.00119144
0.00115316
0.00112309
0.00110088
0.00108635
0.00107922
0.137743
0.121861
0.10631
0.0921369
0.0796237
0.0687752
0.0594791
0.0515608
0.0448254
0.0390887
0.0341903
0.0299945
0.0263882
0.0232775
0.0205843
0.0182443
0.0162046
0.0144221
0.0128606
0.0114893
0.0102828
0.00921857
0.00827738
0.00744329
0.00670311
0.00604564
0.00546117
0.00494121
0.00447839
0.00406628
0.00369927
0.00337243
0.0030814
0.00282228
0.00259167
0.00238667
0.00220469
0.00204356
0.00190139
0.00177649
0.00166731
0.00157251
0.00149092
0.00142154
0.00136355
0.00131626
0.0012791
0.00125167
0.00123363
0.00122469
0.127723
0.116164
0.104112
0.0924072
0.0815271
0.0717071
0.0630035
0.0553783
0.0487336
0.0429526
0.0379221
0.0335396
0.0297155
0.0263721
0.0234427
0.0208704
0.0186074
0.0166129
0.0148521
0.0132954
0.0119168