/*--------------------------------*- C++ -*----------------------------------*\
  =========                 |
  \\      /  F ield         | OpenFOAM: The Open Source CFD Toolbox
   \\    /   O peration     | Website:  https://openfoam.org
    \\  /    A nd           | Version:  7
     \\/     M anipulation  |
\*---------------------------------------------------------------------------*/
FoamFile
{
    version     2.0;
    format      ascii;
    class       surfaceScalarField;
    location    "25";
    object      phi;
}
// * * * * * * * * * * * * * * * * * * * * * * * * * * * * * * * * * * * * * //

dimensions      [0 3 -1 0 0 0 0];

internalField   nonuniform List<scalar> 
6486
(
-3.83264e-06
3.83269e-06
-1.4215e-05
1.03825e-05
-3.04536e-05
1.62386e-05
-5.1862e-05
2.14084e-05
-7.77731e-05
2.59109e-05
-0.000107564
2.97907e-05
-0.000140686
3.31216e-05
-0.000176697
3.60098e-05
3.85969e-05
-3.75926e-06
7.59195e-06
-1.39489e-05
2.05721e-05
-2.98838e-05
3.21735e-05
-5.08782e-05
4.24029e-05
-7.6258e-05
5.12907e-05
-0.000105386
5.89184e-05
-0.000137689
6.54252e-05
-0.000172693
7.10134e-05
7.59564e-05
-3.61889e-06
1.12108e-05
-1.34371e-05
3.03903e-05
-2.87845e-05
4.75209e-05
-4.89747e-05
6.25931e-05
-7.33196e-05
7.56356e-05
-0.000101153
8.67518e-05
-0.000131857
9.6129e-05
-0.00016489
0.000104046
0.000110889
-3.42323e-06
1.46341e-05
-1.27176e-05
3.96847e-05
-2.72293e-05
6.20325e-05
-4.62683e-05
8.16322e-05
-6.9125e-05
9.84923e-05
-9.50912e-05
0.000112718
-0.000123482
0.00012452
-0.000153661
0.000134225
0.000142296
-3.18751e-06
1.78216e-05
-1.18392e-05
4.83364e-05
-2.53126e-05
7.55059e-05
-4.2908e-05
9.92276e-05
-6.38855e-05
0.00011947
-8.74833e-05
0.000136316
-0.000112932
0.000149969
-0.000139473
0.000160766
0.000169199
-2.92789e-06
2.07495e-05
-1.0853e-05
5.62615e-05
-2.31321e-05
8.77849e-05
-3.90447e-05
0.00011514
-5.78112e-05
0.000138236
-7.86053e-05
0.00015711
-0.00010056
0.000171924
-0.000122773
0.000182978
0.000190737
-2.65883e-06
2.34083e-05
-9.8036e-06
6.34063e-05
-2.07692e-05
9.87505e-05
-3.47984e-05
0.000129169
-5.10583e-05
0.000154496
-6.86472e-05
0.000174699
-8.65899e-05
0.000189867
-0.000103825
0.000200213
-0.00011919
0.000206102
0.000208123
-2.39069e-06
2.5799e-05
-8.72017e-06
6.97358e-05
-1.82715e-05
0.000108302
-3.02258e-05
0.000141124
-4.36771e-05
0.000167948
-5.76319e-05
0.000188654
-7.09932e-05
0.000203228
-8.25294e-05
0.000211749
-9.08322e-05
0.000214405
0.000211568
-2.12821e-06
2.79272e-05
-7.61138e-06
7.52189e-05
-1.56399e-05
0.00011633
-2.52972e-05
0.000150781
-3.55716e-05
0.000178222
-4.53487e-05
0.000198431
-5.33842e-05
0.000211264
-5.82548e-05
0.00021662
-5.82874e-05
0.000214438
-5.14726e-05
0.000204753
0.000187899
-1.87026e-06
2.97975e-05
-6.46351e-06
7.98122e-05
-1.28245e-05
0.000122692
-1.98877e-05
0.000157844
-2.64839e-05
0.000184818
-3.13253e-05
0.000203272
-3.29673e-05
0.000212905
-2.9745e-05
0.000213398
-1.96813e-05
0.000204374
-3.59177e-07
0.000185431
0.000156307
-1.61059e-06
3.1408e-05
-5.24244e-06
8.3444e-05
-9.72831e-06
0.000127177
-1.3784e-05
0.0001619
-1.60062e-05
0.00018704
-1.48472e-05
0.000202113
-8.56526e-06
0.000206624
4.84856e-06
0.000199984
2.77727e-05
0.00018145
6.30951e-05
0.000150109
0.000114409
0.000104993
4.5516e-05
-1.33871e-06
3.27468e-05
-3.89658e-06
8.60019e-05
-6.21419e-06
0.000129495
-6.69992e-06
0.000162385
-3.61256e-06
0.000183953
4.98012e-06
0.00019352
2.12668e-05
0.000190337
4.77734e-05
0.000173477
8.74604e-05
0.000141763
0.000143841
9.37279e-05
0.000221142
2.76921e-05
0.000324553
-5.78951e-05
-0.000163335
-1.03983e-06
3.37866e-05
-2.35707e-06
8.73191e-05
-2.10649e-06
0.000129244
1.7138e-06
0.000158565
1.13105e-05
0.000174356
2.91612e-05
0.00017567
5.80952e-05
0.000161403
0.000101386
0.000130186
0.000162835
8.03143e-05
0.000246822
9.74064e-06
0.00035834
-8.38255e-05
0.000503063
-0.000202618
-0.000347943
-6.92887e-07
3.44795e-05
-5.30825e-07
8.71571e-05
2.81259e-06
0.000125901
1.18722e-05
0.000149506
2.94642e-05
0.000156764
5.87834e-05
0.00014635
0.000103514
0.000116672
0.000167929
6.57712e-05
0.000256942
-8.69791e-06
0.000376072
-0.00010939
0.000531267
-0.000239021
0.000728569
-0.00039992
0.000973843
-0.000593217
-0.000815552
-2.68247e-07
3.47477e-05
1.70042e-06
8.51884e-05
8.82516e-06
0.000118776
2.42887e-05
0.000134042
5.16599e-05
0.000129393
9.50234e-05
0.000102987
0.000159106
5.25892e-05
0.000249365
-2.44878e-05
0.000371994
-0.000131327
0.000533787
-0.000271183
0.000741805
-0.000447039
0.00100278
-0.000660896
0.00132179
-0.000912226
0.00169835
-0.00119211
-0.00140252
2.792e-07
3.44685e-05
4.5044e-06
8.09632e-05
1.62879e-05
0.000106993
3.95778e-05
0.000110752
7.88266e-05
9.01445e-05
0.000139137
4.26769e-05
0.000226369
-3.46432e-05
0.000347166
-0.000145285
0.000508826
-0.000292987
0.000718988
-0.000481345
0.000985124
-0.000713174
0.00131394
-0.000989715
0.00171126
-0.00130955
0.00218667
-0.00166753
-0.00201689
0.00280104
1.00244e-06
3.34661e-05
8.07651e-06
7.38891e-05
2.56151e-05
8.94542e-05
5.84331e-05
7.7934e-05
0.000111961
3.66168e-05
0.000192367
-3.77292e-05
0.000306579
-0.000148855
0.000462129
-0.000300835
0.000666749
-0.000497607
0.000927676
-0.000742272
0.0012507
-0.0010362
0.00163919
-0.0013782
0.00209376
-0.00176412
0.00261176
-0.00218553
-0.00262136
0.00321623
1.96443e-06
3.15016e-05
1.26292e-05
6.32243e-05
3.72374e-05
6.4846e-05
8.15382e-05
3.36333e-05
0.00015197
-3.38147e-05
0.00025569
-0.00014145
0.000400407
-0.000293571
0.000593905
-0.000494333
0.000843226
-0.000746928
0.00115349
-0.00105253
0.00152655
-0.00140926
0.00195982
-0.00181147
0.00244566
-0.00224995
0.00297145
-0.00271131
-0.0031843
0.00353439
3.22443e-06
2.82772e-05
1.83577e-05
4.8091e-05
5.15254e-05
3.16783e-05
0.000109422
-2.42628e-05
0.000199415
-0.000123808
0.00032939
-0.000271425
0.000507252
-0.000471434
0.000740024
-0.000727105
0.00103252
-0.00103942
0.00138582
-0.00140583
0.00179587
-0.00181932
0.00225285
-0.00226845
0.00274139
-0.00273849
0.0032424
-0.00321232
-0.00368402
0.00374212
4.8306e-06
2.34466e-05
2.54054e-05
2.75163e-05
6.871e-05
-1.16264e-05
0.000142302
-9.78551e-05
0.000254246
-0.000235752
0.000412638
-0.000429816
0.000624666
-0.000683462
0.000895202
-0.00099764
0.00122511
-0.00136933
0.00160971
-0.00179044
0.00203812
-0.00224772
0.00249382
-0.00272416
0.00295666
-0.00320133
0.00340657
-0.00366223
-0.00410332
0.00382587
6.81322e-06
1.66334e-05
3.38371e-05
4.924e-07
8.88179e-05
-6.66072e-05
0.000179968
-0.000189006
0.000315606
-0.00037139
0.000503239
-0.000617449
0.000748107
-0.00092833
0.00105136
-0.00130089
0.00140838
-0.00172635
0.00180796
-0.00219001
0.00223302
-0.00267278
0.00266305
-0.00315419
0.00307768
-0.00361597
0.00346081
-0.00404536
-0.0044425
0.00379999
9.18173e-06
7.45166e-06
4.36221e-05
-3.39479e-05
0.000111632
-0.000134617
0.000221706
-0.00029908
0.000381742
-0.000531426
0.000597592
-0.0008333
0.000871144
-0.00120188
0.00119842
-0.00162817
0.00156856
-0.00209649
0.00196445
-0.0025859
0.00236531
-0.00307365
0.00275067
-0.00353955
0.00310429
-0.00396959
0.00341721
-0.00435828
-0.00471053
0.00368524
1.19214e-05
-4.46976e-06
5.46276e-05
-7.66541e-05
0.000136671
-0.00021666
0.000266278
-0.000428687
0.000450031
-0.000715178
0.000690896
-0.00107416
0.000986101
-0.00149709
0.00132576
-0.00196783
0.00169322
-0.00246395
0.00206763
-0.00296031
0.00242812
-0.00343413
0.00275807
-0.0038695
0.00304808
-0.0042596
0.00329673
-0.00460693
-0.00492088
0.00350708
1.49934e-05
-1.94632e-05
6.66101e-05
-0.000128271
0.000163188
-0.000313238
0.000311957
-0.000577456
0.000517134
-0.000920355
0.0007776
-0.00133463
0.00108507
-0.00180456
0.00142396
-0.00230672
0.00177361
-0.0028136
0.00211258
-0.00329928
0.00242331
-0.00374487
0.00269543
-0.00414162
0.00292664
-0.00449081
0.00312134
-0.00480163
-0.00508642
0.00328689
1.83328e-05
-3.7796e-05
7.92172e-05
-0.000189155
0.000190188
-0.000424209
0.000356615
-0.000743883
0.000579278
-0.00114302
0.00085207
-0.00160742
0.00116112
-0.00211361
0.00148644
-0.00263204
0.00180605
-0.00313321
0.00210102
-0.00359425
0.00235933
-0.00400319
0.00257725
-0.00435954
0.00275813
-0.00467169
0.00290974
-0.00495323
-0.00521755
0.00304087
2.18452e-05
-5.96413e-05
9.1993e-05
-0.000259303
0.000216477
-0.000548693
0.000397887
-0.000925293
0.000632658
-0.00137779
0.000909339
-0.0018841
0.00120929
-0.00241356
0.00151029
-0.00293304
0.00179181
-0.00341473
0.00203962
-0.00384206
0.00224786
-0.00421143
0.00241834
-0.00453002
0.00255798
-0.00481132
0.00267567
-0.00507093
-0.00532171
0.00277984
2.54097e-05
-8.5051e-05
0.000104399
-0.000338292
0.000240743
-0.000685037
0.000433396
-0.00111795
0.000673891
-0.00161828
0.000945774
-0.00215599
0.00122723
-0.00269502
0.00149624
-0.00320205
0.00173591
-0.0036544
0.00193758
-0.00404373
0.0021009
-0.00437474
0.00223149
-0.00466061
0.00233784
-0.00491768
0.00242852
-0.0051616
-0.00540381
0.00251062
2.88835e-05
-0.000113935
0.000115848
-0.000425257
0.000261667
-0.000830855
0.000461003
-0.00131728
0.000700418
-0.0018577
0.000959475
-0.00241504
0.00121519
-0.00295073
0.00144786
-0.00343472
0.0016454
-0.00385194
0.00180453
-0.00420285
0.00192903
-0.00449924
0.00202661
-0.00475819
0.00210589
-0.00499696
0.00217427
-0.00522998
-0.00546685
0.00223731
3.21109e-05
-0.000146045
0.000125752
-0.000518898
0.00027805
-0.000983153
0.000479034
-0.00151827
0.00071077
-0.00208943
0.000950326
-0.0026546
0.00117551
-0.00317592
0.00137038
-0.00362959
0.0015279
-0.00400945
0.0016492
-0.00432416
0.00174074
-0.00459078
0.00181092
-0.00482837
0.00186757
-0.00505361
0.00191665
-0.00527907
-0.00551251
0.00196231
3.49343e-05
-0.00018098
0.00013357
-0.000617534
0.000288928
-0.00113851
0.000486445
-0.00171578
0.000704629
-0.00230762
0.000919722
-0.00286969
0.00111191
-0.0033681
0.00126966
-0.00378734
0.00139051
-0.00413031
0.00147885
-0.0044125
0.00154245
-0.00465438
0.00158942
-0.00487534
0.00162641
-0.0050906
0.00165797
-0.00531063
-0.00554164
0.0016871
3.72072e-05
-0.000218187
0.000138856
-0.000719183
0.000293653
-0.00129331
0.000482872
-0.001905
0.000682707
-0.00250745
0.00087013
-0.00305712
0.00102872
-0.0035267
0.00115139
-0.00391
0.00123938
-0.0042183
0.00129914
-0.00447226
0.00133877
-0.004694
0.00136551
-0.00490208
0.00138471
-0.00510979
0.0013997
-0.00532562
-0.00555456
0.00141261
3.88047e-05
-0.000256992
0.00014129
-0.000821668
0.00029193
-0.00144395
0.000468593
-0.00208167
0.0006465
-0.00268536
0.000804602
-0.00321522
0.000930349
-0.00365244
0.00102063
-0.00400029
0.00107947
-0.00427714
0.00111434
-0.00450713
0.00113297
-0.00471263
0.0011415
-0.00491061
0.00114401
-0.0051123
0.00114287
-0.00532448
-0.00555124
0.00113955
3.96326e-05
-0.000296624
0.000140704
-0.00092274
0.000283811
-0.00158706
0.000444404
-0.00224226
0.000597999
-0.00283895
0.000726371
-0.00334359
0.000820857
-0.00374693
0.000881673
-0.00406111
0.00091466
-0.00431013
0.000927565
-0.00452003
0.000927338
-0.0047124
0.000918955
-0.00490223
0.00090542
-0.00509877
0.000888337
-0.0053074
-0.00553152
0.000868609
3.96319e-05
-0.000336256
0.000137072
-0.00102018
0.000269646
-0.00171963
0.000411469
-0.00238408
0.000539417
-0.0029669
0.000638548
-0.00344272
0.000703798
-0.00381218
0.000737954
-0.00409526
0.000747892
-0.00432007
0.000741089
-0.00451323
0.000723515
-0.00469483
0.000699041
-0.00487776
0.000669795
-0.00506952
0.000636829
-0.00527443
-0.00549538
0.000600689
3.87803e-05
-0.000375036
0.000130503
-0.0011119
0.000250011
-0.00183914
0.000371156
-0.00250523
0.000472975
-0.00306872
0.000543947
-0.00351369
0.000582133
-0.00385037
0.000592175
-0.0041053
0.000581367
-0.00430926
0.000556579
-0.00448844
0.000522756
-0.00466101
0.000482773
-0.00483777
0.000437987
-0.00502474
0.000388952
-0.0052254
-0.00544324
0.000336813
3.70894e-05
-0.000412126
0.000121215
-0.00119603
0.000225632
-0.00194355
0.0003249
-0.00260449
0.000400754
-0.00314458
0.000444988
-0.00355793
0.000458244
-0.00386362
0.000446387
-0.00409345
0.000416678
-0.00427955
0.000375221
-0.00444698
0.000326017
-0.0046118
0.000271142
-0.0047829
0.00021128
-0.00496488
0.000146116
-0.00516023
-0.00537098
7.38625e-05
3.46009e-05
-0.000446727
0.000109503
-0.00127093
0.00019731
-0.00203136
0.000274105
-0.00268129
0.000324617
-0.00319509
0.000343689
-0.003577
0.000333995
-0.00385393
0.000302102
-0.00406155
0.000254937
-0.00423238
0.000197791
-0.00438984
0.000133829
-0.00454784
6.45553e-05
-0.00471362
-9.53502e-06
-0.00489079
-8.87672e-05
-0.005081
-0.00528602
-0.00017373
3.13801e-05
-0.000478107
9.57143e-05
-0.00133527
0.000165863
-0.00210151
0.000220075
-0.0027355
0.000246172
-0.00322118
0.000241685
-0.00357251
0.000210819
-0.00382306
0.000160433
-0.00401117
9.69132e-05
-0.00416886
2.47363e-05
-0.00431766
-5.35615e-05
-0.00446954
-0.000136958
-0.00463023
-0.000225374
-0.00480237
-0.000318759
-0.00498761
-0.00518898
-0.000415802
2.75117e-05
-0.000505619
8.02233e-05
-0.00138798
0.000132088
-0.00215338
0.000163984
-0.0027674
0.000166765
-0.00322397
0.000140277
-0.00354602
8.98163e-05
-0.0037726
2.21965e-05
-0.00394355
-5.68051e-05
-0.00408986
-0.000143432
-0.00423103
-0.000235793
-0.00437718
-0.000333199
-0.00453282
-0.000435623
-0.00469995
-0.000542929
-0.00488031
-0.00507744
-0.000654465
2.30994e-05
-0.000528718
6.34208e-05
-0.0014283
9.67439e-05
-0.0021867
0.000106865
-0.00277752
8.74881e-05
-0.00320459
4.05629e-05
-0.0034991
-2.81407e-05
-0.0037039
-0.000111962
-0.00385973
-0.000205798
-0.00399603
-0.000306579
-0.00413025
-0.000412848
-0.00427092
-0.000524148
-0.00442152
-0.000640513
-0.00458358
-0.000761874
-0.00475895
-0.00495155
-0.000887767
1.82718e-05
-0.00054699
4.57126e-05
-0.00145574
6.05398e-05
-0.00220153
4.96254e-05
-0.0027666
9.74224e-06
-0.00316471
-5.65971e-05
-0.00343276
-0.000142427
-0.00361807
-0.000241603
-0.00376055
-0.000349749
-0.00388788
-0.000464406
-0.00401559
-0.00058448
-0.00415084
-0.000709681
-0.00429632
-0.000840113
-0.00445315
-0.000975689
-0.00462337
-0.00481137
-0.00111587
1.31562e-05
-0.000560146
2.74589e-05
-0.00147004
2.42234e-05
-0.00219829
-6.36524e-06
-0.00273601
-6.66831e-05
-0.00310439
-0.000150808
-0.00334863
-0.000252578
-0.0035163
-0.000366337
-0.00364679
-0.00048834
-0.00376588
-0.000616654
-0.00388728
-0.000750492
-0.004017
-0.000889704
-0.00415711
-0.00103449
-0.00430836
-0.00118476
-0.0044731
-0.00465629
-0.00133983
7.81987e-06
-0.000567966
8.92766e-06
-0.00147115
-1.19815e-05
-0.00217738
-6.25372e-05
-0.00268546
-0.000140665
-0.00302626
-0.00024135
-0.00324795
-0.000358091
-0.00339956
-0.000485749
-0.00351913
-0.000621222
-0.0036304
-0.000763059
-0.00374544
-0.000910749
-0.00386931
-0.00106423
-0.00400363
-0.00122366
-0.00414893
-0.00138905
-0.00430772
-0.00448439
-0.00156095
1.93356e-06
-0.000569899
-9.8392e-06
-0.00145938
-4.81392e-05
-0.00213908
-0.000116314
-0.00261728
-0.000211536
-0.00293104
-0.000327658
-0.00313183
-0.000458433
-0.00326878
-0.000599316
-0.00337825
-0.000747836
-0.00348188
-0.000903066
-0.00359021
-0.00106488
-0.0037075
-0.00123336
-0.00383515
-0.00140833
-0.00397396
-0.00158897
-0.00412707
-0.00429181
-0.00178155
-3.67522e-06
-0.000566224
-2.83846e-05
-0.00143467
-8.28062e-05
-0.00208466
-0.000167815
-0.00253227
-0.00027886
-0.00281999
-0.000409287
-0.0030014
-0.000553113
-0.00312496
-0.000706378
-0.00322499
-0.000867209
-0.00332105
-0.00103523
-0.00342219
-0.00121093
-0.00353181
-0.00139506
-0.00365101
-0.00158875
-0.00378028
-0.00179476
-0.00392105
-0.0040974
-0.00198918
-9.12791e-06
-0.000557096
-4.62299e-05
-0.00139757
-0.000116009
-0.00201488
-0.0002167
-0.00243158
-0.000342334
-0.00269436
-0.000485921
-0.00285781
-0.000641773
-0.0029691
-0.000806425
-0.00306034
-0.000978428
-0.00314905
-0.00115774
-0.00324288
-0.00134525
-0.0033443
-0.00154241
-0.00345385
-0.00175029
-0.0035724
-0.0019701
-0.00370124
-0.00382776
-0.00223974
-1.45685e-05
-0.000542528
-6.3374e-05
-0.00134876
-0.000147529
-0.00193072
-0.000262719
-0.00231639
-0.000401748
-0.00255533
-0.000557407
-0.00270215
-0.000724322
-0.00280219
-0.00089945
-0.00288521
-0.00108162
-0.00296688
-0.00127077
-0.00305373
-0.00146727
-0.00314779
-0.00167141
-0.00324971
-0.00188392
-0.00335989
-0.00210891
-0.00347625
-0.00358915
-0.00234753
-1.98155e-05
-0.000522712
-7.96759e-05
-0.0012889
-0.000177182
-0.00183322
-0.000305694
-0.00218788
-0.000456965
-0.00240406
-0.000623662
-0.00253546
-0.000800741
-0.00262511
-0.000985562
-0.00270039
-0.00117725
-0.00277519
-0.00137591
-0.00285507
-0.00158198
-0.00294172
-0.00179605
-0.00303564
-0.00201918
-0.00313677
-0.00225229
-0.00324313
-0.00335149
-0.00248995
-2.48091e-05
-0.000497903
-9.50096e-05
-0.0012187
-0.000204827
-0.0017234
-0.000345507
-0.0020472
-0.000507911
-0.00224166
-0.00068465
-0.00235872
-0.00087099
-0.00243877
-0.00106462
-0.00250676
-0.00126485
-0.00257496
-0.00147179
-0.00264812
-0.00168586
-0.00272766
-0.00190756
-0.00281394
-0.00213755
-0.00290678
-0.00237573
-0.00300495
-0.00310745
-0.00261977
-2.95052e-05
-0.000468398
-0.00010928
-0.00113892
-0.000230361
-0.00160232
-0.000382088
-0.00189548
-0.000554573
-0.00206917
-0.000740432
-0.00217286
-0.000935237
-0.00224396
-0.00113699
-0.00230501
-0.00134517
-0.00236678
-0.00155999
-0.00243331
-0.00178187
-0.00250578
-0.00201131
-0.0025845
-0.0022487
-0.00266939
-0.00249392
-0.00275973
-0.00285566
-0.00274571
-3.38675e-05
-0.000434531
-0.000122414
-0.00105038
-0.000253711
-0.00147102
-0.00041539
-0.0017338
-0.00059694
-0.00188762
-0.000791018
-0.00197878
-0.000993484
-0.0020415
-0.0012026
-0.00209589
-0.00141802
-0.00215136
-0.00164001
-0.00221132
-0.00186901
-0.00227678
-0.0021055
-0.00234801
-0.00234988
-0.00242501
-0.00260226
-0.00250735
-0.00259571
-0.00286221
-3.78661e-05
-0.000396665
-0.000134356
-0.000953887
-0.000274825
-0.00133055
-0.000445392
-0.00156323
-0.000635032
-0.00169798
-0.000836469
-0.00177735
-0.00104583
-0.00183213
-0.00126162
-0.0018801
-0.00148364
-0.00192934
-0.00171219
-0.00198276
-0.00194779
-0.00204118
-0.00219092
-0.00210488
-0.00244204
-0.00217388
-0.00270146
-0.00224793
-0.00232804
-0.00296913
-4.1476e-05
-0.000355189
-0.000145062
-0.000850301
-0.000293664
-0.00118195
-0.000472081
-0.00138481
-0.000668862
-0.0015012
-0.000876817
-0.00156939
-0.00109232
-0.00161663
-0.00131408
-0.00165834
-0.00154201
-0.00170141
-0.0017765
-0.00174827
-0.00201807
-0.00179961
-0.00226727
-0.00185568
-0.00252464
-0.00191652
-0.0027906
-0.00198197
-0.00205323
-0.00306541
-4.46764e-05
-0.000310512
-0.000154498
-0.00074048
-0.000310201
-0.00102625
-0.000495448
-0.00119957
-0.000698444
-0.0012982
-0.00091209
-0.00135575
-0.00113298
-0.00139574
-0.00136
-0.00143132
-0.00159316
-0.00146825
-0.00183291
-0.00150852
-0.00207982
-0.00155271
-0.00233447
-0.00160103
-0.00259747
-0.00165352
-0.00286933
-0.0017101
-0.00177202
-0.00315054
-4.74502e-05
-0.000263062
-0.000162634
-0.000625296
-0.000324414
-0.000864469
-0.000515489
-0.00100849
-0.00072379
-0.0010899
-0.000942308
-0.00113723
-0.00116782
-0.00117023
-0.00139938
-0.00119977
-0.00163707
-0.00123056
-0.0018814
-0.0012642
-0.00213295
-0.00130116
-0.00239236
-0.00134162
-0.00266028
-0.0013856
-0.00293729
-0.00143309
-0.00148526
-0.00322405
-4.97829e-05
-0.000213279
-0.000169447
-0.000505632
-0.000336284
-0.000697633
-0.000532198
-0.000812577
-0.000744907
-0.00087719
-0.000967483
-0.000914652
-0.00119687
-0.000940842
-0.00143223
-0.000964408
-0.00167373
-0.000989056
-0.0019219
-0.00101603
-0.00217736
-0.00104569
-0.0024408
-0.00107818
-0.00271287
-0.00111353
-0.00299423
-0.00115172
-0.00119384
-0.00328566
-5.16628e-05
-0.000161616
-0.00017492
-0.000382374
-0.000345797
-0.000526756
-0.000545572
-0.000612802
-0.000761798
-0.000660964
-0.00098762
-0.000688829
-0.00122011
-0.000708354
-0.00145852
-0.000725994
-0.00170309
-0.000744491
-0.00195436
-0.000764755
-0.00221299
-0.000787057
-0.00247967
-0.000811502
-0.0027551
-0.000838103
-0.00303996
-0.000866867
-0.000898663
-0.00333513
-5.30808e-05
-0.000108536
-0.000179037
-0.000256418
-0.000352942
-0.000352852
-0.000555606
-0.000410137
-0.000774466
-0.000442104
-0.00100272
-0.000460572
-0.00123754
-0.000473534
-0.00147826
-0.000485278
-0.00172513
-0.000497616
-0.00197875
-0.000511143
-0.00223977
-0.000526037
-0.0025089
-0.00054237
-0.00278686
-0.000560146
-0.00307435
-0.000579377
-0.000600673
-0.00337234
-5.40299e-05
-5.45056e-05
-0.000181788
-0.00012866
-0.00035771
-0.00017693
-0.000562298
-0.000205549
-0.000782912
-0.00022149
-0.00101279
-0.000230692
-0.00124917
-0.000237157
-0.00149142
-0.000243024
-0.00173984
-0.000249195
-0.00199502
-0.000255964
-0.00225764
-0.000263419
-0.00252841
-0.000271596
-0.00280806
-0.000280496
-0.00309731
-0.000290128
-0.000300806
-0.00339718
-5.45056e-05
-0.000183165
-0.000360095
-0.000565644
-0.000787135
-0.00101783
-0.00125498
-0.00149801
-0.0017472
-0.00200317
-0.00226659
-0.00253818
-0.00281868
-0.00310881
-0.00340961
0.00459892
-0.0326233
0.00473362
-0.0346055
0.00457586
-0.0345045
0.00436555
-0.0338268
0.00416319
-0.0332228
0.00397872
-0.0327318
0.00380746
-0.0322946
0.00364865
-0.0319108
0.00350056
-0.0315669
0.00336182
-0.0312578
0.00323128
-0.0309796
0.0031079
-0.0307286
0.00299078
-0.0305023
0.00287914
-0.0302982
0.00277233
-0.0301144
0.00266974
-0.0299489
0.00257086
-0.0298001
0.00247523
-0.0296663
0.00238247
-0.0295462
0.00229222
-0.0294386
0.00220418
-0.029342
0.00211808
-0.0292554
0.00203368
-0.0291778
0.00195078
-0.0291083
0.00186919
-0.0290461
0.00178876
-0.0289905
0.00170934
-0.0289407
0.00163082
-0.0288961
0.00155308
-0.0288563
0.00147603
-0.0288208
0.00139958
-0.0287891
0.00132367
-0.0287607
0.00124822
-0.0287355
0.00117319
-0.028713
0.00109851
-0.028693
0.00102415
-0.0286752
0.000950057
-0.0286595
0.000876208
-0.0286456
0.000802568
-0.0286333
0.000729108
-0.0286225
0.000655806
-0.0286131
0.000582636
-0.0286049
0.000509581
-0.0285979
0.00043662
-0.0285919
0.000363738
-0.028587
0.000290921
-0.0285829
0.00021815
-0.0285797
0.000145416
-0.0285774
7.27038e-05
-0.0285758
-0.028575
0.00454411
-0.0339512
0.00455674
-0.0346181
0.00434204
-0.0342898
0.00413937
-0.0336241
0.00394384
-0.0330273
0.00376772
-0.0325556
0.00360478
-0.0321317
0.00345358
-0.0317596
0.00331282
-0.0314261
0.00318098
-0.031126
0.00305698
-0.0308556
0.00293981
-0.0306114
0.00282863
-0.0303911
0.00272269
-0.0301923
0.00262135
-0.030013
0.00252405
-0.0298516
0.00243029
-0.0297063
0.00233963
-0.0295757
0.00225172
-0.0294583
0.00216621
-0.0293531
0.00208282
-0.0292586
0.00200129
-0.0291738
0.00192138
-0.0290979
0.00184292
-0.0290299
0.00176571
-0.0289689
0.00168962
-0.0289144
0.0016145
-0.0288655
0.00154024
-0.0288219
0.00146674
-0.0287828
0.0013939
-0.028748
0.00132164
-0.0287168
0.0012499
-0.028689
0.00117861
-0.0286642
0.00110772
-0.0286421
0.00103717
-0.0286225
0.000966931
-0.028605
0.000896956
-0.0285895
0.000827212
-0.0285758
0.000757671
-0.0285637
0.000688306
-0.0285531
0.000619092
-0.0285439
0.000550009
-0.0285358
0.000481036
-0.0285289
0.000412158
-0.0285231
0.000343356
-0.0285182
0.000274615
-0.0285142
0.000205922
-0.028511
0.000137264
-0.0285087
6.86272e-05
-0.0285072
-0.0285064
0.00437361
-0.0347904
0.00434382
-0.0345884
0.00411918
-0.0340652
0.0039241
-0.033429
0.00373479
-0.032838
0.00356384
-0.0323847
0.00340687
-0.0319747
0.00326132
-0.031614
0.00312623
-0.0312911
0.00299998
-0.0309997
0.00288147
-0.0307371
0.0027697
-0.0304997
0.0026638
-0.0302852
0.00256304
-0.0300915
0.00246678
-0.0299168
0.00237446
-0.0297593
0.0022856
-0.0296174
0.00219978
-0.0294899
0.00211662
-0.0293752
0.00203581
-0.0292722
0.00195705
-0.0291798
0.00188011
-0.0290969
0.00180475
-0.0290225
0.00173079
-0.0289559
0.00165806
-0.0288962
0.00158641
-0.0288427
0.00151571
-0.0287948
0.00144585
-0.028752
0.00137672
-0.0287137
0.00130824
-0.0286795
0.00124033
-0.0286489
0.00117292
-0.0286216
0.00110594
-0.0285972
0.00103936
-0.0285755
0.000973116
-0.0285562
0.000907168
-0.028539
0.000841481
-0.0285238
0.00077602
-0.0285104
0.000710757
-0.0284985
0.000645666
-0.0284881
0.000580724
-0.0284789
0.000515909
-0.028471
0.000451203
-0.0284642
0.000386588
-0.0284584
0.000322048
-0.0284536
0.00025757
-0.0284497
0.000193139
-0.0284466
0.000128741
-0.0284443
6.4366e-05
-0.0284428
-0.028442
0.004222
-0.0352703
0.00412847
-0.0344948
0.00389063
-0.0338273
0.00369569
-0.0332341
0.00351366
-0.0326559
0.00334841
-0.0322194
0.00319805
-0.0318243
0.00305889
-0.0314749
0.00293007
-0.0311622
0.00280997
-0.0308796
0.00269744
-0.0306245
0.0025915
-0.0303937
0.00249128
-0.030185
0.00239607
-0.0299963
0.00230522
-0.0298259
0.0022182
-0.0296722
0.00213453
-0.0295338
0.0020538
-0.0294091
0.00197566
-0.029297
0.00189978
-0.0291964
0.0018259
-0.0291059
0.00175377
-0.0290248
0.00168317
-0.028952
0.00161393
-0.0288867
0.00154588
-0.0288281
0.00147887
-0.0287757
0.00141279
-0.0287288
0.00134751
-0.0286867
0.00128295
-0.0286491
0.00121901
-0.0286155
0.00115563
-0.0285855
0.00109273
-0.0285587
0.00103026
-0.0285348
0.000968171
-0.0285134
0.000906408
-0.0284945
0.000844934
-0.0284776
0.000783713
-0.0284626
0.000722713
-0.0284494
0.000661905
-0.0284377
0.000601266
-0.0284274
0.000540772
-0.0284184
0.000480402
-0.0284107
0.000420139
-0.028404
0.000359965
-0.0283983
0.000299864
-0.0283935
0.000239824
-0.0283896
0.000179828
-0.0283866
0.000119868
-0.0283843
5.99291e-05
-0.0283828
-0.0283821
0.00401337
-0.0354578
0.00388085
-0.0343623
0.00365221
-0.0335987
0.00346048
-0.0330424
0.00328681
-0.0324823
0.0031275
-0.0320601
0.00298358
-0.0316804
0.00285082
-0.0313421
0.00272822
-0.0310396
0.00261426
-0.0307657
0.00250773
-0.030518
0.00240766
-0.0302937
0.00231319
-0.0300905
0.00222359
-0.0299067
0.00213826
-0.0297406
0.00205664
-0.0295906
0.00197828
-0.0294554
0.00190277
-0.0293336
0.00182977
-0.029224
0.00175897
-0.0291256
0.00169011
-0.0290371
0.00162293
-0.0289576
0.00155725
-0.0288863
0.00149288
-0.0288223
0.00142966
-0.0287649
0.00136745
-0.0287135
0.00130614
-0.0286674
0.00124561
-0.0286262
0.00118577
-0.0285893
0.00112654
-0.0285563
0.00106785
-0.0285268
0.00100963
-0.0285005
0.000951821
-0.028477
0.000894381
-0.028456
0.000837261
-0.0284373
0.000780423
-0.0284207
0.00072383
-0.028406
0.000667454
-0.028393
0.000611266
-0.0283815
0.00055524
-0.0283714
0.000499356
-0.0283626
0.000443593
-0.0283549
0.000387936
-0.0283483
0.000332364
-0.0283427
0.000276865
-0.028338
0.000221425
-0.0283342
0.000166031
-0.0283312
0.00011067
-0.028329
5.533e-05
-0.0283275
-0.0283268
0.0037982
-0.035456
0.00362929
-0.0341934
0.00340825
-0.0333776
0.0032178
-0.0328519
0.00305164
-0.0323161
0.0028989
-0.0319074
0.0027616
-0.0315431
0.00263558
-0.0312161
0.00251949
-0.0309235
0.00241194
-0.0306581
0.00231167
-0.0304177
0.0022177
-0.0301997
0.00212919
-0.030002
0.00204542
-0.0298229
0.00196579
-0.029661
0.00188977
-0.0295146
0.0018169
-0.0293825
0.00174679
-0.0292635
0.0016791
-0.0291563
0.00161355
-0.02906
0.00154986
-0.0289734
0.00148781
-0.0288955
0.00142721
-0.0288257
0.00136786
-0.0287629
0.00130963
-0.0287067
0.00125238
-0.0286563
0.001196
-0.0286111
0.00114037
-0.0285706
0.00108541
-0.0285344
0.00103104
-0.0285019
0.000977191
-0.028473
0.0009238
-0.0284471
0.00087081
-0.028424
0.000818176
-0.0284034
0.000765853
-0.028385
0.000713802
-0.0283687
0.00066199
-0.0283542
0.000610387
-0.0283414
0.000558967
-0.0283301
0.000507707
-0.0283201
0.000456585
-0.0283114
0.000405582
-0.0283039
0.000354678
-0.0282974
0.000303861
-0.0282919
0.000253115
-0.0282873
0.000202426
-0.0282835
0.000151782
-0.0282806
0.00010117
-0.0282784
5.05796e-05
-0.0282769
-0.0282762
0.00355671
-0.0353275
0.00336418
-0.0340009
0.00315574
-0.0331692
0.00296955
-0.0326657
0.00281061
-0.0321572
0.00266486
-0.0317616
0.00253414
-0.0314124
0.00241492
-0.0310969
0.00230542
-0.030814
0.00220435
-0.0305571
0.00211042
-0.0303238
0.00202265
-0.0301119
0.00194021
-0.0299195
0.00186238
-0.0297451
0.00178857
-0.0295871
0.00171826
-0.0294443
0.00165101
-0.0293153
0.00158643
-0.0291989
0.00152419
-0.0290941
0.00146402
-0.0289998
0.00140564
-0.028915
0.00134885
-0.0288388
0.00129345
-0.0287703
0.00123928
-0.0287088
0.00118617
-0.0286536
0.00113402
-0.0286041
0.00108269
-0.0285597
0.00103211
-0.02852
0.000982165
-0.0284844
0.000932794
-0.0284526
0.000883925
-0.0284241
0.0008355
-0.0283986
0.000787463
-0.0283759
0.000739773
-0.0283557
0.000692382
-0.0283376
0.000645256
-0.0283216
0.000598363
-0.0283073
0.000551672
-0.0282947
0.000505161
-0.0282836
0.000458803
-0.0282738
0.000412579
-0.0282652
0.000366471
-0.0282578
0.000320462
-0.0282514
0.000274535
-0.028246
0.000228679
-0.0282414
0.000182878
-0.0282377
0.000137121
-0.0282348
9.13966e-05
-0.0282326
4.56929e-05
-0.0282312
-0.0282305
0.003306
-0.0351264
0.00309692
-0.0337918
0.00289748
-0.0329698
0.00271601
-0.0324842
0.00256354
-0.0320047
0.00242506
-0.0316231
0.00230111
-0.0312884
0.00218882
-0.0309846
0.00208609
-0.0307113
0.00199164
-0.0304626
0.0019042
-0.0302364
0.00182278
-0.0300305
0.00174654
-0.0298433
0.0016748
-0.0296734
0.00160695
-0.0295193
0.00154248
-0.0293798
0.00148098
-0.0292538
0.00142205
-0.02914
0.00136539
-0.0290374
0.00131073
-0.0289452
0.0012578
-0.0288621
0.00120639
-0.0287873
0.00115633
-0.0287202
0.00110744
-0.0286599
0.0010596
-0.0286057
0.00101266
-0.0285572
0.00096653
-0.0285136
0.000921107
-0.0284746
0.000876308
-0.0284396
0.00083206
-0.0284083
0.000788298
-0.0283803
0.000744964
-0.0283553
0.000702007
-0.028333
0.000659383
-0.028313
0.000617051
-0.0282953
0.000574975
-0.0282795
0.000533123
-0.0282655
0.00049147
-0.028253
0.000449988
-0.0282421
0.000408657
-0.0282324
0.000367458
-0.028224
0.00032637
-0.0282167
0.000285377
-0.0282104
0.000244467
-0.028205
0.000203622
-0.0282006
0.000162833
-0.0281969
0.000122089
-0.0281941
8.1375e-05
-0.0281919
4.0682e-05
-0.0281905
-0.0281898
0.0030428
-0.0348823
0.00282398
-0.033573
0.00263289
-0.0327787
0.00245784
-0.0323092
0.00231173
-0.0318586
0.00218061
-0.031492
0.00206354
-0.0311714
0.00195822
-0.0308793
0.00186234
-0.0306154
0.0017746
-0.0303749
0.00169373
-0.0301555
0.00161875
-0.0299555
0.00154882
-0.0297734
0.00148325
-0.0296078
0.00142147
-0.0294575
0.00136296
-0.0293213
0.00130731
-0.0291981
0.00125415
-0.0290868
0.00120318
-0.0289865
0.00115412
-0.0288961
0.00110674
-0.0288147
0.00106084
-0.0287414
0.00101622
-0.0286756
0.000972741
-0.0286164
0.000930258
-0.0285633
0.000888654
-0.0285156
0.000847825
-0.0284728
0.000807678
-0.0284344
0.000768133
-0.0284001
0.000729119
-0.0283693
0.000690574
-0.0283418
0.000652442