/*--------------------------------*- C++ -*----------------------------------*\
  =========                 |
  \\      /  F ield         | OpenFOAM: The Open Source CFD Toolbox
   \\    /   O peration     | Website:  https://openfoam.org
    \\  /    A nd           | Version:  7
     \\/     M anipulation  |
\*---------------------------------------------------------------------------*/
FoamFile
{
    version     2.0;
    format      ascii;
    class       volScalarField;
    location    "70";
    object      p;
}
// * * * * * * * * * * * * * * * * * * * * * * * * * * * * * * * * * * * * * //

dimensions      [0 2 -2 0 0 0 0];

internalField   nonuniform List<scalar> 
3500
(
-0.189152
-0.186699
-0.184196
-0.181645
-0.179047
-0.176401
-0.173708
-0.170971
-0.168189
-0.165364
-0.162497
-0.159589
-0.156644
-0.153662
-0.150645
-0.147596
-0.144517
-0.14141
-0.138279
-0.135125
-0.131953
-0.128764
-0.125562
-0.12235
-0.119131
-0.11591
-0.112689
-0.109472
-0.106263
-0.103065
-0.0998809
-0.0967148
-0.09357
-0.0904499
-0.0873577
-0.0842967
-0.0812702
-0.0782806
-0.0753305
-0.0724235
-0.0695615
-0.0667473
-0.0639832
-0.0612712
-0.0586131
-0.0560109
-0.0534661
-0.05098
-0.0485539
-0.0461888
-0.0438856
-0.041645
-0.0394676
-0.0373537
-0.0353036
-0.0333174
-0.0313951
-0.0295364
-0.0277411
-0.0260088
-0.024339
-0.0227312
-0.0211845
-0.0196983
-0.0182718
-0.0169041
-0.0155943
-0.0143415
-0.0131447
-0.0120028
-0.0109148
-0.00987972
-0.00889605
-0.00796175
-0.00708237
-0.00625104
-0.00546751
-0.0047313
-0.00404175
-0.00339823
-0.00280015
-0.00224703
-0.00173847
-0.00127424
-0.000854207
-0.000478648
-0.000147303
0.000136287
0.000384095
0.000527027
0.000852804
-0.189342
-0.186886
-0.184384
-0.181834
-0.179239
-0.176599
-0.173914
-0.171186
-0.168415
-0.165604
-0.162752
-0.159862
-0.156936
-0.153974
-0.150979
-0.147952
-0.144897
-0.141814
-0.138707
-0.135577
-0.132428
-0.129262
-0.126082
-0.122892
-0.119694
-0.116491
-0.113286
-0.110083
-0.106884
-0.103695
-0.100517
-0.0973537
-0.0942092
-0.0910865
-0.0879889
-0.0849197
-0.081883
-0.0788824
-0.0759071
-0.0729847
-0.0701033
-0.0672665
-0.0644778
-0.0617395
-0.0590537
-0.0564225
-0.0538478
-0.051331
-0.0488738
-0.0464773
-0.0441428
-0.0418712
-0.0396632
-0.0375195
-0.0354405
-0.0334264
-0.0314774
-0.0295935
-0.0277745
-0.0260201
-0.02433
-0.0227036
-0.0211404
-0.0196395
-0.0182003
-0.0168218
-0.0155033
-0.0142436
-0.0130417
-0.0118967
-0.0108075
-0.00977288
-0.00879178
-0.00786317
-0.00698679
-0.00616097
-0.00538461
-0.00465678
-0.0039766
-0.00334326
-0.002756
-0.00221415
-0.00171712
-0.00126447
-0.000855703
-0.000490997
-0.00016888
0.000105421
0.000351312
0.000481157
0.000789753
-0.189871
-0.187415
-0.184914
-0.182368
-0.179777
-0.177144
-0.174467
-0.171748
-0.168989
-0.166191
-0.163354
-0.16048
-0.15757
-0.154626
-0.15165
-0.148644
-0.145608
-0.142546
-0.139459
-0.13635
-0.13322
-0.130073
-0.126912
-0.123741
-0.120543
-0.117353
-0.11416
-0.110965
-0.107773
-0.104586
-0.101409
-0.098244
-0.0950947
-0.0919643
-0.0888562
-0.0857737
-0.08272
-0.0796985
-0.0767118
-0.0737638
-0.0708566
-0.0679931
-0.0651762
-0.0624084
-0.059692
-0.0570293
-0.0544223
-0.0518729
-0.0493828
-0.0469535
-0.0445863
-0.0422825
-0.0400429
-0.0378683
-0.0357594
-0.0337165
-0.0317401
-0.02983
-0.0279864
-0.0262091
-0.0244976
-0.0228515
-0.0212704
-0.0197534
-0.0182998
-0.0169088
-0.0155794
-0.0143107
-0.0131016
-0.0119509
-0.0108576
-0.00982043
-0.00883835
-0.0079102
-0.00703495
-0.00621138
-0.00543831
-0.00471464
-0.00403932
-0.00341137
-0.00282984
-0.00229387
-0.00180258
-0.00135537
-0.000951119
-0.000590284
-0.000268916
3.33478e-06
0.000258686
0.000382269
0.000672303
-0.188164
-0.18567
-0.183131
-0.18055
-0.177926
-0.17526
-0.172553
-0.169807
-0.167022
-0.1642
-0.161341
-0.158447
-0.15552
-0.152561
-0.149571
-0.146552
-0.143506
-0.140435
-0.137341
-0.134226
-0.131092
-0.127942
-0.124777
-0.121602
-0.118418
-0.115228
-0.112036
-0.108844
-0.105656
-0.102474
-0.099303
-0.096145
-0.0930037
-0.0898823
-0.0867844
-0.0837131
-0.0806716
-0.0776633
-0.0746916
-0.0717595
-0.0688699
-0.0660256
-0.0632293
-0.0604836
-0.057791
-0.0551536
-0.0525735
-0.0500527
-0.0475927
-0.0451953
-0.0428616
-0.0405927
-0.0383896
-0.0362531
-0.0341837
-0.0321817
-0.0302474
-0.0283808
-0.0265817
-0.0248498
-0.0231849
-0.0215862
-0.0200531
-0.0185849
-0.0171807
-0.0158395
-0.0145603
-0.0133419
-0.0121833
-0.0110832
-0.0100405
-0.0090538
-0.00812196
-0.00724371
-0.0064178
-0.00564295
-0.00491793
-0.00424155
-0.00361263
-0.00303002
-0.00249269
-0.00199937
-0.00154942
-0.00114073
-0.000774752
-0.000443688
-0.000163915
0.000110826
0.000245004
0.000525818
-0.189012
-0.186525
-0.183996
-0.181424
-0.17881
-0.176156
-0.173462
-0.170728
-0.167957
-0.165149
-0.162305
-0.159426
-0.156514
-0.153571
-0.150596
-0.147593
-0.144562
-0.141505
-0.138425
-0.135322
-0.1322
-0.12906
-0.125904
-0.122736
-0.119557
-0.116371
-0.113181
-0.10999
-0.106801
-0.103616
-0.100439
-0.0972737
-0.094123
-0.0909905
-0.0878795
-0.0847935
-0.0817358
-0.0787098
-0.0757188
-0.0727662
-0.069855
-0.066988
-0.0641683
-0.0613986
-0.0586814
-0.056019
-0.0534138
-0.0508678
-0.0483827
-0.0459602
-0.0436018
-0.0413087
-0.0390819
-0.0369221
-0.0348302
-0.0328064
-0.0308511
-0.0289643
-0.027146
-0.0253958
-0.0237134
-0.0220982
-0.0205495
-0.0190666
-0.0176486
-0.0162944
-0.015003
-0.0137733
-0.0126041
-0.011494
-0.0104418
-0.00944616
-0.00850576
-0.00761923
-0.0067852
-0.0060023
-0.00526917
-0.00458444
-0.0039468
-0.00335483
-0.00280739
-0.00230273
-0.00184037
-0.00141684
-0.00103523
-0.000683394
-0.000384193
-8.16249e-05
8.506e-05
0.000372043
-0.18975
-0.187282
-0.184771
-0.182216
-0.179621
-0.176984
-0.174307
-0.171592
-0.168838
-0.166048
-0.163222
-0.160361
-0.157466
-0.15454
-0.151582
-0.148596
-0.145581
-0.14254
-0.139474
-0.136386
-0.133277
-0.130149
-0.127005
-0.123847
-0.120677
-0.117499
-0.114315
-0.111128
-0.107941
-0.104757
-0.10158
-0.0984134
-0.0952596
-0.0921225
-0.0890055
-0.0859121
-0.0828457
-0.0798099
-0.0768079
-0.0738432
-0.0709188
-0.0680379
-0.0652035
-0.0624183
-0.059685
-0.0570062
-0.054384
-0.0518207
-0.0493181
-0.046878
-0.0445018
-0.0421908
-0.0399462
-0.0377688
-0.0356593
-0.0336182
-0.0316458
-0.0297421
-0.0279071
-0.0261405
-0.024442
-0.022811
-0.0212469
-0.0197488
-0.0183158
-0.0169469
-0.015641
-0.0143969
-0.0132134
-0.0120892
-0.0110228
-0.010013
-0.00905821
-0.00815708
-0.00730813
-0.00650986
-0.0057608
-0.00505943
-0.00440432
-0.00379376
-0.00322659
-0.00270046
-0.00221525
-0.00176608
-0.00135759
-0.000974432
-0.000642642
-0.000304532
-8.5237e-05
0.000224614
-0.187792
-0.185303
-0.182772
-0.180199
-0.177585
-0.174931
-0.172238
-0.169507
-0.166739
-0.163936
-0.161098
-0.158227
-0.155323
-0.152388
-0.149424
-0.146431
-0.143412
-0.140367
-0.1373
-0.134211
-0.131103
-0.127977
-0.124837
-0.121684
-0.118522
-0.115353
-0.11218
-0.109006
-0.105834
-0.102667
-0.099509
-0.0963631
-0.0932326
-0.0901211
-0.087032
-0.0839687
-0.0809348
-0.0779335
-0.0749684
-0.0720425
-0.069159
-0.066321
-0.0635312
-0.0607924
-0.0581072
-0.0554777
-0.0529063
-0.0503949
-0.0479452
-0.0455587
-0.0432369
-0.0409807
-0.0387912
-0.0366691
-0.0346148
-0.0326287
-0.0307109
-0.0288613
-0.0270798
-0.0253659
-0.0237192
-0.0221389
-0.0206242
-0.0191743
-0.017788
-0.0164644
-0.0152022
-0.014
-0.0128567
-0.0117707
-0.0107406
-0.00976505
-0.00884238
-0.0079711
-0.00714963
-0.00637642
-0.00564975
-0.00496814
-0.00432962
-0.00373301
-0.00317545
-0.00265709
-0.00217209
-0.00172569
-0.00130175
-0.00092482
-0.000543619
-0.000257388
9.01994e-05
-0.185356
-0.182873
-0.180347
-0.177778
-0.175167
-0.172516
-0.169826
-0.167098
-0.164333
-0.161533
-0.158697
-0.155829
-0.152929
-0.149999
-0.14704
-0.144053
-0.141041
-0.138004
-0.134946
-0.131868
-0.128772
-0.12566
-0.122536
-0.119401
-0.116258
-0.11311
-0.109961
-0.106812
-0.103668
-0.100532
-0.0974062
-0.0942949
-0.0912014
-0.0881291
-0.0850814
-0.0820618
-0.0790737
-0.0761202
-0.0732047
-0.0703302
-0.0674998
-0.0647164
-0.0619825
-0.0593007
-0.0566735
-0.0541029
-0.0515909
-0.0491393
-0.0467497
-0.0444233
-0.0421614
-0.0399649
-0.0378345
-0.0357708
-0.0337741
-0.0318445
-0.0299821
-0.0281866
-0.0264577
-0.0247948
-0.0231974
-0.0216647
-0.0201957
-0.0187894
-0.0174448
-0.0161606
-0.0149355
-0.0137682
-0.0126574
-0.0116014
-0.0105988
-0.00964804
-0.00874752
-0.00789558
-0.00709058
-0.00633071
-0.00561439
-0.00493949
-0.00430473
-0.00370703
-0.0031464
-0.00261695
-0.00212308
-0.0016504
-0.00121805
-0.000786371
-0.000424625
-2.74548e-05
-0.184816
-0.182386
-0.179913
-0.177397
-0.174839
-0.17224
-0.169602
-0.166925
-0.164212
-0.161462
-0.158677
-0.155859
-0.153009
-0.150129
-0.147219
-0.144281
-0.141318
-0.13833
-0.135319
-0.132289
-0.12924
-0.126175
-0.123096
-0.120006
-0.116908
-0.113804
-0.110698
-0.107591
-0.104488
-0.101391
-0.0983041
-0.0952301
-0.0921723
-0.0891343
-0.0861194
-0.0831309
-0.080172
-0.0772461
-0.0743562
-0.0715053
-0.0686966
-0.0659327
-0.0632164
-0.0605501
-0.0579362
-0.0553768
-0.0528739
-0.0504293
-0.0480446
-0.045721
-0.0434598
-0.041262
-0.0391282
-0.0370592
-0.0350552
-0.0331165
-0.031243
-0.0294348
-0.0276913
-0.0260122
-0.024397
-0.0228447
-0.0213546
-0.0199258
-0.0185571
-0.0172473
-0.0159953
-0.0147996
-0.0136589
-0.0125718
-0.0115365
-0.0105517
-0.00961569
-0.00872672
-0.00788315
-0.0070831
-0.00632489
-0.00560634
-0.00492598
-0.00428083
-0.00367033
-0.00308939
-0.00254041
-0.00201254
-0.00151739
-0.0010285
-0.000586233
-0.000128299
-0.181422
-0.179069
-0.176666
-0.174214
-0.171717
-0.169175
-0.166591
-0.163966
-0.161301
-0.158599
-0.15586
-0.153087
-0.15028
-0.147443
-0.144575
-0.14168
-0.138758
-0.135812
-0.132844
-0.129857
-0.126851
-0.123831
-0.120797
-0.117754
-0.114703
-0.111647
-0.10859
-0.105535
-0.102484
-0.0994407
-0.0964084
-0.0933904
-0.0903899
-0.0874103
-0.0844548
-0.0815267
-0.078629
-0.0757649
-0.0729374
-0.0701493
-0.0674035
-0.0647027
-0.0620493
-0.0594458
-0.0568942
-0.0543965
-0.0519546
-0.0495701
-0.0472444
-0.0449787
-0.042774
-0.0406312
-0.0385509
-0.0365335
-0.0345793
-0.0326885
-0.0308609
-0.0290962
-0.0273942
-0.0257543
-0.0241757
-0.0226577
-0.0211993
-0.0197997
-0.0184575
-0.0171715
-0.0159406
-0.0147632
-0.013638
-0.0125634
-0.0115377
-0.0105595
-0.00962684
-0.00873809
-0.00789137
-0.00708485
-0.00631641
-0.00558426
-0.0048858
-0.00421955
-0.00358181
-0.00297234
-0.00238463
-0.00182235
-0.00127202
-0.000748886
-0.000223241
-0.178383
-0.176135
-0.173836
-0.171487
-0.169091
-0.166648
-0.164162
-0.161633
-0.159063
-0.156454
-0.153809
-0.151127
-0.148411
-0.145664
-0.142886
-0.14008
-0.137247
-0.13439
-0.13151
-0.128611
-0.125693
-0.122761
-0.119815
-0.116859
-0.113895
-0.110927
-0.107957
-0.104987
-0.102022
-0.099064
-0.096116
-0.0931813
-0.090263
-0.0873643
-0.0844883
-0.081638
-0.0788164
-0.0760264
-0.0732709
-0.0705527
-0.0678743
-0.0652382
-0.0626468
-0.0601024
-0.0576068
-0.0551621
-0.0527699
-0.0504317
-0.0481488
-0.0459225
-0.0437536
-0.041643
-0.0395912
-0.0375988
-0.0356659
-0.0337927
-0.0319791
-0.030225
-0.0285299
-0.0268933
-0.0253146
-0.0237932
-0.022328
-0.0209182
-0.0195627
-0.0182603
-0.0170097
-0.0158097
-0.0146588
-0.0135556
-0.0124984
-0.0114857
-0.0105159
-0.00958712
-0.00869762
-0.00784546
-0.00702877
-0.00624537
-0.00549332
-0.0047701
-0.00407374
-0.0034012
-0.00275061
-0.00211798
-0.00150179
-0.000896151
-0.000300643
-0.17227
-0.170209
-0.168092
-0.16592
-0.163697
-0.161425
-0.159105
-0.156741
-0.154334
-0.151885
-0.149397
-0.146872
-0.144312
-0.141718
-0.139093
-0.136439
-0.133757
-0.13105
-0.128321
-0.12557
-0.122802
-0.120017
-0.11722
-0.114411
-0.111594
-0.108772
-0.105947
-0.103122
-0.1003
-0.0974835
-0.094676
-0.0918801
-0.0890986
-0.0863346
-0.0835909
-0.0808702
-0.0781753
-0.0755089
-0.0728736
-0.070272
-0.0677063
-0.0651789
-0.0626919
-0.0602474
-0.0578472
-0.055493
-0.0531864
-0.0509288
-0.0487214
-0.0465654
-0.0444616
-0.0424108
-0.0404136
-0.0384705
-0.0365816
-0.0347472
-0.0329673
-0.0312416
-0.02957
-0.027952
-0.026387
-0.0248744
-0.0234135
-0.0220034
-0.0206432
-0.0193317
-0.0180679
-0.0168505
-0.0156783
-0.0145498
-0.0134637
-0.0124183
-0.0114123
-0.0104437
-0.00951108
-0.00861239
-0.00774609
-0.00690969
-0.00610196
-0.00531952
-0.00456201
-0.00382415
-0.00310792
-0.00240362
-0.00171898
-0.00103339
-0.000367166
-0.166432
-0.164541
-0.162593
-0.16059
-0.158534
-0.156427
-0.154271
-0.152069
-0.149822
-0.147532
-0.145202
-0.142833
-0.140428
-0.137988
-0.135516
-0.133014
-0.130484
-0.127927
-0.125347
-0.122746
-0.120126
-0.117488
-0.114837
-0.112174
-0.109501
-0.106822
-0.104139
-0.101454
-0.0987713
-0.0960922
-0.0934198
-0.090757
-0.0881063
-0.0854705
-0.0828522
-0.080254
-0.0776784
-0.075128
-0.0726051
-0.070112
-0.067651
-0.0652242
-0.0628335
-0.0604808
-0.0581679
-0.0558964
-0.0536677
-0.0514831
-0.0493439
-0.0472511
-0.0452056
-0.043208
-0.0412591
-0.0393592
-0.0375086
-0.0357077
-0.0339563
-0.0322544
-0.0306018
-0.0289981
-0.027443
-0.0259359
-0.024476
-0.0230627
-0.021695
-0.0203722
-0.019093
-0.0178564
-0.0166613
-0.0155063
-0.0143902
-0.0133114
-0.0122686
-0.0112601
-0.0102845
-0.00933967
-0.00842448
-0.00753624
-0.00667426
-0.0058346
-0.00501811
-0.00421805
-0.00343909
-0.00266789
-0.00191818
-0.00115985
-0.000424628
-0.16046
-0.158747
-0.156974
-0.155144
-0.153258
-0.151319
-0.149329
-0.14729
-0.145206
-0.143077
-0.140905
-0.138694
-0.136445
-0.134161
-0.131843
-0.129493
-0.127114
-0.124709
-0.122278
-0.119826
-0.117353
-0.114862
-0.112356
-0.109838
-0.107308
-0.104771
-0.102228
-0.0996827
-0.0971367
-0.0945929
-0.0920538
-0.089522
-0.087
-0.0844903
-0.0819954
-0.0795176
-0.0770594
-0.074623
-0.0722106
-0.0698245
-0.0674665
-0.0651388
-0.0628431
-0.0605812
-0.0583547
-0.0561652
-0.0540138
-0.0519021
-0.0498309
-0.0478014
-0.0458144
-0.0438706
-0.0419707
-0.040115
-0.0383039
-0.0365376
-0.0348162
-0.0331397
-0.0315079
-0.0299206
-0.0283775
-0.0268779
-0.0254215
-0.0240074
-0.022635
-0.0213034
-0.0200118
-0.018759
-0.017544
-0.0163657
-0.0152229
-0.0141141
-0.0130382
-0.0119934
-0.0109787
-0.00999188
-0.00903206
-0.0080965
-0.00718492
-0.00629311
-0.00542273
-0.00456621
-0.00372989
-0.00289826
-0.00208853
-0.00126503
-0.000466813
-0.154715
-0.153166
-0.151555
-0.149885
-0.148159
-0.146378
-0.144545
-0.142661
-0.140731
-0.138755
-0.136735
-0.134675
-0.132576
-0.13044
-0.128269
-0.126067
-0.123834
-0.121573
-0.119287
-0.116977
-0.114646
-0.112296
-0.10993
-0.10755
-0.105158
-0.102756
-0.100348
-0.0979349
-0.0955198
-0.0931051
-0.0906931
-0.0882861
-0.0858865
-0.0834968
-0.0811191
-0.0787557
-0.0764089
-0.0740807
-0.0717732
-0.0694884
-0.0672282
-0.0649945
-0.0627889
-0.0606131
-0.0584686
-0.0563568
-0.054279
-0.0522364
-0.0502301
-0.0482609
-0.0463298
-0.0444374
-0.0425844
-0.0407711
-0.038998
-0.0372654
-0.0355732
-0.0339216
-0.0323105
-0.0307397
-0.0292088
-0.0277175
-0.0262654
-0.0248518
-0.023476
-0.0221374
-0.0208352
-0.0195683
-0.0183359
-0.0171369
-0.0159702
-0.0148345
-0.0137287
-0.0126512
-0.0116011
-0.0105763
-0.00957606
-0.00859768
-0.0076412
-0.0067023
-0.00578317
-0.0048758
-0.00398762
-0.00310185
-0.00223799
-0.00135709
-0.000502723
-0.149187
-0.147794
-0.146338
-0.144822
-0.143248
-0.141618
-0.139935
-0.1382
-0.136417
-0.134587
-0.132713
-0.130797
-0.128841
-0.126847
-0.124818
-0.122755
-0.120661
-0.118538
-0.116389
-0.114215
-0.112019
-0.109803
-0.10757
-0.105321
-0.103059
-0.100786
-0.0985046
-0.0962171
-0.0939257
-0.0916327
-0.0893404
-0.0870511
-0.0847668
-0.08249
-0.0802226
-0.0779668
-0.0757247
-0.0734982
-0.0712893
-0.0690998
-0.0669316
-0.0647863
-0.0626656
-0.0605709
-0.0585037
-0.0564654
-0.0544571
-0.05248
-0.0505351
-0.0486233
-0.0467454
-0.0449022
-0.0430941
-0.0413218
-0.0395854
-0.0378854
-0.0362219
-0.034595
-0.0330045
-0.0314505
-0.0299325
-0.0284505
-0.0270038
-0.0255921
-0.0242148
-0.0228712
-0.0215606
-0.0202821
-0.019035
-0.0178181
-0.0166307
-0.0154714
-0.0143394
-0.0132331
-0.0121516
-0.0110931
-0.0100569
-0.00904045
-0.00804399
-0.00706318
-0.00610063
-0.00514807
-0.00421373
-0.00328004
-0.00236809
-0.00143673
-0.000532625
-0.143916
-0.14267
-0.141361
-0.139989
-0.138559
-0.137071
-0.135529
-0.133935
-0.132291
-0.130599
-0.128862
-0.127082
-0.125261
-0.123402
-0.121506
-0.119576
-0.117613
-0.115621
-0.113601
-0.111556
-0.109487
-0.107397
-0.105289
-0.103163
-0.101024
-0.098872
-0.0967102
-0.0945405
-0.0923653
-0.0901866
-0.0880067
-0.0858276
-0.0836515
-0.0814804
-0.0793163
-0.0771613
-0.0750173
-0.0728861
-0.0707696
-0.0686695
-0.0665875
-0.0645251
-0.062484
-0.0604655
-0.058471
-0.0565018
-0.054559
-0.0526437
-0.0507568
-0.0488993
-0.047072
-0.0452755
-0.0435104
-0.0417771
-0.0400761
-0.0384077
-0.0367721
-0.0351693
-0.0335993
-0.0320622
-0.0305577
-0.0290855
-0.0276454
-0.0262368
-0.0248594
-0.0235125
-0.0221955
-0.0209077
-0.0196484
-0.0184165
-0.0172113
-0.0160317
-0.0148768
-0.0137452
-0.0126362
-0.011548
-0.0104802
-0.0094301
-0.00839831
-0.00738046
-0.00637953
-0.00538709
-0.00441199
-0.00343611
-0.00248178
-0.00150619
-0.000558505
-0.138907
-0.137799
-0.136626
-0.135389
-0.134093
-0.132739
-0.13133
-0.129868
-0.128355
-0.126793
-0.125185
-0.123534
-0.12184
-0.120107
-0.118337
-0.116532
-0.114693
-0.112824
-0.110926
-0.109002
-0.107053
-0.105082
-0.103091
-0.101082
-0.0990573
-0.097019
-0.0949693
-0.0929102
-0.0908438
-0.0887723
-0.0866976
-0.0846217
-0.0825468
-0.0804747
-0.0784073
-0.0763466
-0.0742943
-0.0722522
-0.0702221
-0.0682056
-0.0662042
-0.0642195
-0.062253
-0.0603059
-0.0583796
-0.0564753
-0.054594
-0.0527369
-0.0509048
-0.0490986
-0.0473191
-0.0455669
-0.0438426
-0.0421467
-0.0404796
-0.0388416
-0.037233
-0.0356537
-0.034104
-0.0325838
-0.0310929
-0.0296312
-0.0281984
-0.0267941
-0.0254179
-0.0240694
-0.0227479
-0.0214528
-0.0201834
-0.018939
-0.0177188
-0.0165218
-0.0153472
-0.0141937
-0.0130608
-0.0119467
-0.0108511
-0.00977156
-0.00870876
-0.0076584
-0.00662375
-0.00559628
-0.0045854
-0.00357252
-0.00258107
-0.00156679
-0.000581027
-0.134157
-0.133177
-0.13213
-0.131021
-0.12985
-0.128622
-0.127337
-0.125998
-0.124608
-0.123169
-0.121683
-0.120152
-0.118578
-0.116964
-0.115312
-0.113624
-0.111902
-0.110149
-0.108365
-0.106555
-0.104718
-0.102859
-0.100978
-0.0990786
-0.0971618
-0.0952301
-0.0932854
-0.0913298
-0.0893653
-0.087394
-0.0854177
-0.0834384
-0.081458
-0.0794784
-0.0775014
-0.0755288
-0.0735622
-0.0716034
-0.069654
-0.0677156
-0.0657897
-0.0638777
-0.0619809
-0.0601007
-0.0582383
-0.0563949
-0.0545714
-0.052769
-0.0509885
-0.0492307
-0.0474963
-0.0457861
-0.0441006
-0.0424403
-0.0408056
-0.0391968
-0.0376142
-0.036058
-0.0345281
-0.0330247
-0.0315477
-0.0300968
-0.028672
-0.0272728
-0.025899
-0.0245502
-0.0232258
-0.0219252
-0.020648
-0.0193933
-0.0181605
-0.0169487
-0.0157573
-0.014585
-0.0134314
-0.0122948
-0.0111751
-0.0100699
-0.00897998
-0.00790121
-0.00683707
-0.00577898
-0.00473681
-0.0036916
-0.00266771
-0.00161966
-0.000600719
-0.129663
-0.128801
-0.127873
-0.126881
-0.125829
-0.124717
-0.123548
-0.122325
-0.12105
-0.119726
-0.118353
-0.116935
-0.115474
-0.113972
-0.112431
-0.110853
-0.109241
-0.107596
-0.10592
-0.104216
-0.102485
-0.10073
-0.0989529
-0.0971554
-0.0953396
-0.0935075
-0.091661
-0.0898023
-0.0879331
-0.0860554
-0.0841711
-0.082282
-0.08039
-0.0784967
-0.0766041
-0.0747136
-0.0728271
-0.0709461
-0.0690721
-0.0672067
-0.0653512
-0.0635071
-0.0616756
-0.059858
-0.0580555
-0.0562691
-0.0544999
-0.0527489
-0.0510168
-0.0493046
-0.0476129
-0.0459424
-0.0442937
-0.0426672
-0.0410634
-0.0394826
-0.0379252
-0.0363911
-0.0348807
-0.0333939
-0.0319307
-0.030491
-0.0290746
-0.0276814
-0.026311
-0.024963
-0.0236371
-0.0223327
-0.0210494
-0.0197864
-0.0185433
-0.0173192
-0.0161135
-0.0149251
-0.0137537
-0.0125978
-0.0114572
-0.0103296
-0.00921625
-0.00811275
-0.00702294
-0.00593817
-0.00486873
-0.00379534
-0.00274321
-0.00166573
-0.000617914
-0.125422
-0.12467
-0.123852
-0.12297
-0.122026
-0.121023
-0.119963
-0.118848
-0.11768
-0.116462
-0.115197
-0.113885
-0.112529
-0.111131
-0.109694
-0.108219
-0.106709
-0.105165
-0.10359
-0.101985
-0.100354
-0.0986964
-0.0970159
-0.0953139
-0.0935924
-0.0918535
-0.0900989
-0.0883305
-0.0865503
-0.0847601
-0.0829616
-0.0811566
-0.079347
-0.0775343
-0.0757203
-0.0739066
-0.0720947
-0.0702863
-0.0684826
-0.0666853
-0.0648956
-0.0631149
-0.0613444
-0.0595854
-0.0578388
-0.0561059
-0.0543875
-0.0526847
-0.0509982
-0.0493289
-0.0476774
-0.0460444
-0.0444305
-0.0428361
-0.0412617
-0.0397077
-0.0381743
-0.0366618
-0.0351702
-0.0336997
-0.0322503
-0.0308219
-0.0294144
-0.0280277
-0.0266614
-0.0253154
-0.0239892
-0.0226823
-0.0213945
-0.0201251
-0.0188736
-0.0176392
-0.0164216
-0.0152197
-0.0140331
-0.0128605
-0.011702
-0.0105552
-0.00942146
-0.00829654
-0.00718445
-0.00607652
-0.00498339
-0.00388551
-0.00280884
-0.00170578
-0.000632886
-0.121431
-0.120781
-0.120064
-0.119283
-0.11844
-0.117538
-0.116579
-0.115564
-0.114496
-0.113378
-0.112211
-0.110998
-0.10974
-0.10844
-0.1071
-0.105721
-0.104306
-0.102857
-0.101376
-0.0998647
-0.098325
-0.096759
-0.0951687
-0.0935558
-0.0919224
-0.0902703
-0.0886013
-0.0869172
-0.0852199
-0.0835112
-0.0817927
-0.0800661
-0.0783333
-0.0765957
-0.0748549
-0.0731127
-0.0713704
-0.0696294
-0.0678914
-0.0661575
-0.0644292
-0.0627076
-0.0609941
-0.0592897
-0.0575954
-0.0559125
-0.0542417
-0.052584
-0.0509403
-0.0493112
-0.0476976
-0.0460999
-0.0445189
-0.0429549
-0.0414085
-0.03988
-0.0383697
-0.0368778
-0.0354045
-0.03395
-0.0325142
-0.0310971
-0.0296988
-0.028319
-0.0269575
-0.0256142
-0.0242887
-0.0229807
-0.0216897
-0.0204154
-0.0191572
-0.0179146
-0.016687
-0.0154737
-0.0142743
-0.0130876
-0.0119136
-0.0107504
-0.00959912
-0.00845573
-0.00732439
-0.00619641
-0.00508278
-0.00396368
-0.00286574
-0.00174051
-0.000645874
-0.117687
-0.117129
-0.116506
-0.115818
-0.115069
-0.11426
-0.113394
-0.112472
-0.111497
-0.110471
-0.109396
-0.108275
-0.107108
-0.105899
-0.104648
-0.103359
-0.102033
-0.100672
-0.0992787
-0.0978539
-0.0964001
-0.094919
-0.0934127
-0.0918828
-0.0903313
-0.08876
-0.0871706
-0.085565
-0.0839449
-0.0823119
-0.0806678
-0.0790142
-0.0773527
-0.0756849
-0.0740123
-0.0723365
-0.0706589
-0.0689808
-0.0673038
-0.065629
-0.0639578
-0.0622913
-0.0606308
-0.0589773
-0.0573319
-0.0556956
-0.0540692
-0.0524538
-0.0508501
-0.0492588
-0.0476806
-0.0461163
-0.0445662
-0.043031
-0.0415111
-0.0400068
-0.0385185
-0.0370464
-0.0355908
-0.0341517
-0.0327293
-0.0313236
-0.0299345
-0.0285619
-0.0272058
-0.0258659
-0.024542
-0.0232337
-0.0219409
-0.020663
-0.0193996
-0.0181503
-0.0169146
-0.0156918
-0.0144817
-0.013283
-0.012096
-0.0109187
-0.0097524
-0.00859314
-0.00744524
-0.00629999
-0.00516866
-0.00403124
-0.00291492
-0.00177053
-0.000657097
-0.114184
-0.113713
-0.113175
-0.112573
-0.11191
-0.111186
-0.110406
-0.10957
-0.108681
-0.10774
-0.106751
-0.105714
-0.104632
-0.103506
-0.102339
-0.101133
-0.0998899
-0.0986109
-0.0972983
-0.095954
-0.0945798
-0.0931776
-0.0917492
-0.0902963
-0.0888209
-0.0873246
-0.0858092
-0.0842764
-0.0827278
-0.0811652
-0.0795901
-0.0780042
-0.0764089
-0.0748059
-0.0731966
-0.0715824
-0.0699648
-0.0683452
-0.0667248
-0.0651048
-0.0634867
-0.0618714
-0.0602602
-0.0586541
-0.0570542
-0.0554613
-0.0538764
-0.0523004
-0.0507341
-0.0491781
-0.0476332
-0.0461001
-0.0445792
-0.043071
-0.0415761
-0.0400948
-0.0386274
-0.0371743
-0.0357356
-0.0343115
-0.0329021
-0.0315075
-0.0301277
-0.0287626
-0.0274121
-0.0260762
-0.0247545
-0.023447
-0.0221532
-0.0208729
-0.0196057
-0.0183511
-0.0171089
-0.0158783
-0.0146593
-0.0134505
-0.0122525
-0.0110632
-0.00988415
-0.00871133
-0.00754923
-0.00638916
-0.00524261
-0.00408944
-0.00295729
-0.00179639
-0.000666758
-0.11092
-0.110526
-0.110067
-0.109543
-0.108959
-0.108315
-0.107613
-0.106856
-0.106046
-0.105184
-0.104273
-0.103314
-0.10231
-0.101262
-0.100172
-0.0990432
-0.097876
-0.0966727
-0.0954352
-0.0941653
-0.0928648
-0.0915356
-0.0901793
-0.0887978
-0.0873928
-0.085966
-0.084519
-0.0830536
-0.0815713
-0.0800737
-0.0785626
-0.0770393
-0.0755053
-0.0739623
-0.0724115
-0.0708545
-0.0692925
-0.0677269
-0.0661589
-0.0645898
-0.0630209
-0.0614531
-0.0598876
-0.0583255
-0.0567677
-0.0552153
-0.053669
-0.0521297
-0.0505982
-0.0490752
-0.0475614
-0.0460574
-0.0445638
-0.043081
-0.0416097
-0.04015
-0.0387025
-0.0372673
-0.0358448
-0.0344351
-0.0330383
-0.0316546
-0.030284
-0.0289265
-0.027582
-0.0262504
-0.0249316
-0.0236254
-0.0223315
-0.0210498
-0.0197798
-0.0185213
-0.0172739
-0.016037
-0.0148106
-0.0135935
-0.0123862
-0.0111868
-0.00999694
-0.00881258
-0.00763837
-0.00646564
-0.00530606
-0.00413938
-0.00299365
-0.00181858
-0.00067504
-0.10789
-0.107567
-0.107178
-0.106726
-0.106213
-0.105641
-0.105012
-0.104327
-0.103589
-0.1028
-0.101961
-0.101074
-0.100142
-0.0991652
-0.0981468
-0.0970882
-0.0959913
-0.0948578
-0.0936895
-0.0924883
-0.0912558
-0.0899939
-0.0887042
-0.0873885
-0.0860485
-0.0846857
-0.0833019
-0.0818986
-0.0804775
-0.07904
-0.0775878
-0.0761223
-0.074645
-0.0731573
-0.0716606
-0.0701562
-0.0686456
-0.0671299
-0.0656104
-0.0640883
-0.0625648
-0.0610409
-0.0595178
-0.0579964
-0.0564777
-0.0549626
-0.0534521
-0.0519468
-0.0504477
-0.0489553
-0.0474705
-0.0459937
-0.0445256
-0.0430666
-0.0416173
-0.0401781
-0.0387492
-0.0373311
-0.0359239
-0.034528
-0.0331434
-0.0317702
-0.0304087
-0.0290587
-0.0277202
-0.0263933
-0.0250777
-0.0237734
-0.0224802
-0.0211978
-0.0199261
-0.0186646
-0.0174132
-0.0161712
-0.0149388
-0.0137149
-0.0124999
-0.0112921
-0.0100931
-0.00889895
-0.00771447
-0.00653096
-0.00536028
-0.00418207
-0.00302473
-0.00183755
-0.00068211
-0.105088
-0.104829
-0.104505
-0.104118
-0.10367
-0.103164
-0.1026
-0.101982
-0.10131
-0.100586
-0.0998133
-0.0989925
-0.0981258
-0.0972149
-0.0962617
-0.095268
-0.0942356
-0.0931661
-0.0920615
-0.0909233
-0.0897533
-0.0885532
-0.0873247
-0.0860695
-0.0847891
-0.0834853
-0.0821595
-0.0808134
-0.0794485
-0.0780663
-0.0766683
-0.075256
-0.0738307
-0.0723939
-0.0709469
-0.0694911
-0.0680276
-0.0665579
-0.065083
-0.0636042
-0.0621225
-0.0606391
-0.059155
-0.0576711
-0.0561885
-0.054708
-0.0532304
-0.0517567
-0.0502875
-0.0488235
-0.0473655
-0.045914
-0.0444696
-0.0430328
-0.0416041
-0.040184
-0.0387726
-0.0373705
-0.0359779
-0.034595
-0.033222
-0.0318591
-0.0305063
-0.0291637
-0.0278313
-0.0265092
-0.0251972
-0.0238952
-0.0226032
-0.0213208
-0.020048
-0.0187845
-0.0175301
-0.0162842
-0.015047
-0.0138174
-0.0125961
-0.0113813
-0.0101746
-0.00897228
-0.00777913
-0.0065865
-0.0054064
-0.0042184
-0.00305119
-0.0018537
-0.000688119
-0.102511
-0.102309
-0.102043
-0.101715
-0.101326
-0.100879
-0.100376
-0.0998169
-0.0992049
-0.0985416
-0.0978287
-0.0970679
-0.0962611
-0.09541
-0.0945164
-0.0935819
-0.0926084
-0.0915975
-0.090551
-0.0894704
-0.0883576
-0.0872141
-0.0860416
-0.0848417
-0.083616
-0.0823661
-0.0810934
-0.0797997
-0.0784862
-0.0771546
-0.0758063
-0.0744426
-0.073065
-0.0716748
-0.0702734
-0.068862
-0.0674418
-0.0660142
-0.0645802
-0.0631411
-0.0616978
-0.0602515
-0.0588032
-0.0573538
-0.0559043
-0.0544555
-0.0530084
-0.0515636
-0.050122
-0.0486843
-0.047251
-0.0458229
-0.0444004
-0.0429842
-0.0415747
-0.0401722
-0.0387773
-0.0373902
-0.0360112
-0.0346406
-0.0332786
-0.0319254
-0.0305811
-0.0292457
-0.0279194
-0.0266021
-0.0252938
-0.0239945
-0.022704
-0.0214222
-0.020149
-0.0188842
-0.0176275
-0.0163787
-0.0151376
-0.0139036
-0.0126771
-0.0114564
-0.0102434
-0.00903424
-0.00783382
-0.00663351
-0.00544546
-0.00424918
-0.0030736
-0.00186738
-0.000693202
-0.100152
-0.100002
-0.0997884
-0.0995131
-0.0991779
-0.0987846
-0.0983347
-0.0978301
-0.0972725
-0.0966636
-0.0960051
-0.0952988
-0.0945464
-0.0937495
-0.0929099
-0.0920293
-0.0911093
-0.0901516
-0.089158
-0.0881299
-0.087069
-0.0859771
-0.0848555
-0.083706
-0.08253
-0.0813292
-0.080105
-0.0788588
-0.0775923
-0.0763068
-0.0750037
-0.0736843
-0.0723502
-0.0710025
-0.0696426
-0.0682717
-0.066891
-0.0655018
-0.0641051
-0.0627022
-0.0612939
-0.0598815
-0.0584659
-0.057048
-0.0556288
-0.0542091
-0.0527898
-0.0513716
-0.0499553
-0.0485415
-0.047131
-0.0457244
-0.0443222
-0.0429249
-0.041533
-0.040147
-0.0387672
-0.037394
-0.0360278
-0.0346687
-0.0333171
-0.0319731
-0.0306368
-0.0293084
-0.0279879
-0.0266755
-0.025371
-0.0240745
-0.0227859
-0.0215051
-0.020232
-0.0189664
-0.0177082
-0.0164571
-0.0152131
-0.0139755
-0.0127448
-0.0115194
-0.0103011
-0.0090863
-0.00787981
-0.00667309
-0.00547836
-0.00427512
-0.0030925
-0.00187891
-0.00069748
-0.0980088
-0.0979045
-0.0977374
-0.0975093
-0.0972218
-0.0968764
-0.096475
-0.096019
-0.0955102
-0.0949503
-0.0943408
-0.0936836
-0.0929801
-0.0922322
-0.0914414
-0.0906094
-0.0897378
-0.0888282
-0.0878823
-0.0869016
-0.0858878
-0.0848424
-0.083767
-0.082663
-0.0815321
-0.0803757
-0.0791953
-0.0779923
-0.0767682
-0.0755244
-0.0742623
-0.0729831
-0.0716883
-0.0703791
-0.0690568
-0.0677226
-0.0663778
-0.0650233
-0.0636605
-0.0622904
-0.060914
-0.0595323
-0.0581464
-0.0567571
-0.0553654
-0.0539721
-0.0525781
-0.0511841
-0.0497908
-0.0483989
-0.0470092
-0.0456222
-0.0442384
-0.0428585
-0.0414828
-0.0401118
-0.0387461
-0.0373858
-0.0360313
-0.0346829
-0.033341
-0.0320055
-0.0306769
-0.0293551
-0.0280403
-0.0267325
-0.0254318
-0.0241382
-0.0228517
-0.0215721
-0.0202995
-0.0190337
-0.0177746
-0.0165218
-0.0152756
-0.0140351
-0.0128011
-0.0115718
-0.0103493
-0.00912978
-0.00791827
-0.00670621
-0.00550591
-0.00429686
-0.00310833
-0.00188857
-0.000701059
-0.096012
-0.0958862
-0.0957
-0.0954548
-0.0951522
-0.0947938
-0.0943812
-0.0939159
-0.0933997
-0.0928341
-0.0922207
-0.0915612
-0.090857
-0.0901099
-0.0893215
-0.0884932
-0.0876268
-0.0867238
-0.0857857
-0.0848141
-0.0838105
-0.0827764
-0.0817134
-0.0806229
-0.0795065
-0.0783654
-0.0772012
-0.0760153
-0.074809
-0.0735837
-0.0723407
-0.0710812
-0.0698067
-0.0685182
-0.067217
-0.0659043
-0.0645813
-0.0632489
-0.0619083
-0.0605605
-0.0592066
-0.0578474
-0.0564839
-0.0551171
-0.0537476
-0.0523764
-0.0510042
-0.0496317
-0.0482597
-0.0468888
-0.0455195
-0.0441525
-0.0427883
-0.0414274
-0.0400702
-0.0387171
-0.0373686
-0.0360249
-0.0346864
-0.0333533
-0.0320259
-0.0307043
-0.0293887
-0.0280792
-0.026776
-0.025479
-0.0241883
-0.022904
-0.0216258
-0.020354
-0.0190882
-0.0178286
-0.0165747
-0.0153269
-0.0140842
-0.0128476
-0.0116152
-0.0103892
-0.00916586
-0.00795022
-0.00673375
-0.00552884
-0.00431496