/*--------------------------------*- C++ -*----------------------------------*\
  =========                 |
  \\      /  F ield         | OpenFOAM: The Open Source CFD Toolbox
   \\    /   O peration     | Website:  https://openfoam.org
    \\  /    A nd           | Version:  7
     \\/     M anipulation  |
\*---------------------------------------------------------------------------*/
FoamFile
{
    version     2.0;
    format      ascii;
    class       surfaceScalarField;
    location    "70";
    object      phi;
}
// * * * * * * * * * * * * * * * * * * * * * * * * * * * * * * * * * * * * * //

dimensions      [0 3 -1 0 0 0 0];

internalField   nonuniform List<scalar> 
6868
(
-0.00246308
-2.21291e-05
-0.00244098
-2.2886e-05
-0.00241718
-2.3592e-05
-0.00239165
-2.42562e-05
-0.00236438
-2.48873e-05
-0.00233534
-2.54953e-05
-0.00230452
-2.60909e-05
-0.00227191
-2.66854e-05
-0.00223749
-2.72904e-05
-0.00220126
-2.79179e-05
-0.0021632
-2.858e-05
-0.00212331
-2.92885e-05
-0.00208159
-3.00553e-05
-0.00203805
-3.08915e-05
-0.00199268
-3.18079e-05
-0.00194551
-3.28145e-05
-0.00189653
-3.39206e-05
-0.00184578
-3.51342e-05
-0.00179326
-3.64627e-05
-0.00173901
-3.79121e-05
-0.00168305
-3.94871e-05
-0.00162542
-4.11903e-05
-0.00156614
-4.30222e-05
-0.00150526
-4.49879e-05
-0.00144279
-4.70918e-05
-0.00137883
-4.92643e-05
-0.00131343
-5.15384e-05
-0.00124665
-5.39173e-05
-0.00117852
-5.63892e-05
-0.00110913
-5.89416e-05
-0.00103852
-6.15612e-05
-0.000966763
-6.42337e-05
-0.000893924
-6.69436e-05
-0.000820071
-6.96747e-05
-0.000745279
-7.24107e-05
-0.000669629
-7.51339e-05
-0.000593151
-7.78179e-05
-0.000515948
-8.04553e-05
-0.000438036
-8.30912e-05
-0.000359552
-8.55591e-05
-0.000280557
-8.79328e-05
-0.000201114
-9.01977e-05
-0.00012129
-9.23317e-05
-4.11509e-05
-9.43184e-05
3.9236e-05
-9.61435e-05
0.000119808
-9.77951e-05
0.000200504
-9.92626e-05
0.000281265
-0.000100536
0.000362033
-0.000101607
0.000442753
-0.000102469
0.000523372
-0.000103118
0.000603842
-0.000103551
0.000684113
-0.000103765
0.000764142
-0.000103761
0.000843887
-0.000103542
0.000923309
-0.000103109
0.00100237
-0.000102468
0.00108104
-0.000101625
0.00115928
-0.000100587
0.00123707
-9.93631e-05
0.00131438
-9.79636e-05
0.00139119
-9.63991e-05
0.00146747
-9.46816e-05
0.00154321
-9.2824e-05
0.0016184
-9.08398e-05
0.00169301
-8.87433e-05
0.00176703
-8.65491e-05
0.00184046
-8.42724e-05
0.00191329
-8.19287e-05
0.00198551
-7.95335e-05
0.00205712
-7.71025e-05
0.00212812
-7.46517e-05
0.00219852
-7.21973e-05
0.00226831
-6.97576e-05
0.00233748
-6.73502e-05
0.00240605
-6.49847e-05
0.00247403
-6.26777e-05
0.00254143
-6.0445e-05
0.00260826
-5.83022e-05
0.00267455
-5.62649e-05
0.0027403
-5.43487e-05
0.00280554
-5.25696e-05
0.00287029
-5.0945e-05
0.00293458
-4.94924e-05
0.00299845
-4.82339e-05
0.00306192
-4.7188e-05
0.00312506
-4.63973e-05
-1.6744e-05
0.0031879
-4.58576e-05
-1.69796e-05
0.00325057
-4.57109e-05
-1.69557e-05
0.00331302
-4.57806e-05
-1.66724e-05
-4.62467e-05
-1.57938e-05
-0.00198357
-4.48178e-05
-0.00195921
-4.72506e-05
-0.00193315
-4.96498e-05
-0.00190538
-5.2023e-05
-0.00187589
-5.43785e-05
-0.00184466
-5.6725e-05
-0.00181168
-5.90716e-05
-0.00177694
-6.14277e-05
-0.00174043
-6.38028e-05
-0.00170214
-6.62064e-05
-0.00166207
-6.86477e-05
-0.00162023
-7.11359e-05
-0.0015766
-7.36792e-05
-0.00153121
-7.62856e-05
-0.00148405
-7.89622e-05
-0.00143515
-8.17151e-05
-0.00138452
-8.45496e-05
-0.00133219
-8.74698e-05
-0.00127817
-9.04788e-05
-0.0012225
-9.35787e-05
-0.00116522
-9.67703e-05
-0.00110636
-0.000100053
-0.00104596
-0.000103425
-0.000984059
-0.000106885
-0.000920662
-0.000110488
-0.000855889
-0.000114038
-0.000789799
-0.000117628
-0.000722447
-0.000121269
-0.000653894
-0.000124943
-0.000584203
-0.000128633
-0.00051344
-0.000132324
-0.000441675
-0.000135999
-0.000368978
-0.000139641
-0.00029542
-0.000143232
-0.000221077
-0.000146754
-0.00014602
-0.000150191
-7.03084e-05
-0.000153529
5.98884e-06
-0.000156753
8.26506e-05
-0.000159753
0.000159754
-0.000162663
0.000237221
-0.000165399
0.000314968
-0.000167945
0.000392925
-0.000170289
0.000471024
-0.000172418
0.000549202
-0.000174322
0.000627398
-0.00017599
0.00070555
-0.000177415
0.000783605
-0.000178591
0.00086151
-0.000179512
0.000939215
-0.000180175
0.00101668
-0.000180578
0.00109385
-0.000180722
0.00117069
-0.000180609
0.00124717
-0.000180242
0.00132325
-0.000179625
0.00139891
-0.000178766
0.00147411
-0.000177671
0.00154884
-0.000176351
0.00162307
-0.000174816
0.00169678
-0.000173077
0.00176997
-0.000171147
0.00184261
-0.000169039
0.00191469
-0.000166768
0.00198622
-0.000164349
0.00205718
-0.000161797
0.00212756
-0.000159129
0.00219737
-0.000156362
0.00226661
-0.000153512
0.00233528
-0.000150597
0.00240338
-0.000147634
0.00247092
-0.00014464
0.0025379
-0.000141633
0.00260434
-0.000138631
0.00267023
-0.00013565
0.00273559
-0.00013271
0.00280043
-0.000129825
0.00286476
-0.000127012
0.00292861
-0.000124288
0.00299197
-0.00012167
0.00305488
-0.000119175
0.00311735
-0.00011682
0.00317941
-0.000114623
0.00324107
-0.000112604
0.00330236
-0.000110781
0.0033633
-0.000109183
0.00342394
-0.000107821
0.0034843
-0.000106762
0.00354441
-0.000105963
0.00360433
-0.000105629
0.00366407
-0.000105527
-0.000105717
-0.00107435
-0.00104649
-7.51139e-05
-0.00101696
-7.91798e-05
-0.000985753
-8.32277e-05
-0.000952867
-8.72647e-05
-0.000918293
-9.12982e-05
-0.000882029
-9.53356e-05
-0.000844073
-9.93844e-05
-0.000804423
-0.000103452
-0.000763084
-0.000107546
-0.000720059
-0.000111672
-0.000675358
-0.000115837
-0.000628992
-0.000120046
-0.000580974
-0.000124304
-0.000531322
-0.000128614
-0.000480058
-0.000132979
-0.000427207
-0.000137401
-0.000372797
-0.00014188
-0.000316861
-0.000146415
-0.000259435
-0.000151005
-0.000200559
-0.000155646
-0.000140277
-0.000160335
-7.86282e-05
-0.000165074
-1.56539e-05
-0.000169859
4.83854e-05
-0.000174528
0.000113596
-0.000179248
0.000179941
-0.000183973
0.000247349
-0.000188677
0.00031575
-0.000193343
0.000385071
-0.000197954
0.000455239
-0.000202492
0.000526178
-0.000206938
0.000597813
-0.000211276
0.000670067
-0.000215486
0.000742863
-0.00021955
0.000816125
-0.000223452
0.00088977
-0.000227175
0.000963717
-0.0002307
0.00103795
-0.000233988
0.00111235
-0.000237058
0.00118684
-0.000239891
0.00126136
-0.000242468
0.00133585
-0.000244779
0.00141025
-0.000246813
0.00148449
-0.000248563
0.00155852
-0.000250022
0.00163229
-0.000251185
0.00170575
-0.00025205
0.00177885
-0.000252615
0.00185156
-0.000252881
0.00192383
-0.000252851
0.00199564
-0.000252527
0.00206694
-0.000251916
0.00213773
-0.000251025
0.00220797
-0.000249863
0.00227764
-0.000248439
0.00234673
-0.000246764
0.00241523
-0.000244852
0.00248313
-0.000242715
0.00255042
-0.000240369
0.0026171
-0.000237827
0.00268317
-0.000235108
0.00274863
-0.000232227
0.00281349
-0.000229202
0.00287774
-0.00022605
0.0029414
-0.000222789
0.00300448
-0.000219439
0.00306698
-0.000216017
0.00312892
-0.000212541
0.00319032
-0.000209031
0.00325118
-0.000205504
0.00331153
-0.00020198
0.00337138
-0.000198476
0.00343074
-0.000195012
0.00348963
-0.000191603
0.00354808
-0.000188269
0.00360609
-0.000185026
0.00366369
-0.000181891
0.0037209
-0.000178883
0.00377775
-0.000176018
0.00383424
-0.000173316
0.00389041
-0.000170793
0.00394628
-0.000168472
0.00400187
-0.000166369
0.00405721
-0.000164518
0.00411231
-0.00016292
0.0041672
-0.000161657
0.0042219
-0.000160663
0.00427639
-0.000160125
0.00433079
-0.000159919
-0.000160002
0.000210839
-0.000105817
0.000243215
-0.000111557
0.000277259
-0.000117272
0.000312963
-0.000122968
0.000350317
-0.000128652
0.00038931
-0.000134329
0.00042993
-0.000140005
0.000472163
-0.000145685
0.000515992
-0.000151375
0.000561399
-0.000157079
0.000608361
-0.0001628
0.000656856
-0.000168541
0.000706856
-0.000174303
0.000758331
-0.000180089
0.000811247
-0.000185895
0.000865568
-0.000191722
0.000921255
-0.000197566
0.000978262
-0.000203422
0.00103654
-0.000209285
0.00109604
-0.000215147
0.00115671
-0.000221002
0.00121848
-0.000226841
0.00128127
-0.000232653
0.00134511
-0.000238371
0.00140989
-0.000244029
0.00147554
-0.000249618
0.00154197
-0.000255113
0.00160913
-0.000260497
0.00167693
-0.000265753
0.0017453
-0.000270861
0.00181416
-0.000275803
0.00188345
-0.000280561
0.00195308
-0.000285115
0.00202297
-0.000289448
0.00209306
-0.000293543
0.00216327
-0.000297384
0.00223353
-0.000300954
0.00230378
-0.000304235
0.00237394
-0.00030722
0.00244394
-0.000309897
0.00251373
-0.000312257
0.00258324
-0.000314291
0.00265243
-0.000315993
0.00272122
-0.000317358
0.00278958
-0.000318384
0.00285747
-0.00031907
0.00292483
-0.000319416
0.00299165
-0.000319427
0.00305787
-0.000319105
0.00312348
-0.000318459
0.00318845
-0.000317496
0.00325276
-0.000316226
0.00331639
-0.000314659
0.00337934
-0.000312809
0.00344159
-0.000310688
0.00350314
-0.000308313
0.00356398
-0.000305697
0.00362413
-0.00030286
0.00368357
-0.000299816
0.00374233
-0.000296586
0.00380041
-0.000293187
0.00385782
-0.000289639
0.00391458
-0.000285961
0.00397071
-0.000282173
0.00402621
-0.000278293
0.00408111
-0.000274343
0.00413544
-0.000270341
0.0041892
-0.000266307
0.00424243
-0.000262261
0.00429515
-0.000258221
0.00434738
-0.000254208
0.00439914
-0.000250238
0.00445046
-0.000246331
0.00450136
-0.000242505
0.00455187
-0.000238778
0.00460201
-0.000235166
0.00465181
-0.000231688
0.00470128
-0.00022836
0.00475047
-0.0002252
0.00479938
-0.000222227
0.00484804
-0.000219457
0.00489648
-0.000216914
0.00494472
-0.000214608
0.00499278
-0.000212578
0.00504068
-0.000210818
0.00508843
-0.000209402
0.00513605
-0.00020829
0.0051835
-0.000207571
0.00523088
-0.000207296
-0.00020737
0.00171511
-0.00013678
0.00174781
-0.000144259
0.00178223
-0.00015169
0.00181834
-0.000159075
0.00185611
-0.00016642
0.00189551
-0.00017373
0.00193651
-0.000181007
0.00197908
-0.000188258
0.00202319
-0.000195484
0.0020688
-0.000202689
0.00211587
-0.000209872
0.00216437
-0.000217036
0.00221425
-0.000224179
0.00226546
-0.000231299
0.00231795
-0.000238394
0.00237169
-0.000245459
0.00242661
-0.000252488
0.00248267
-0.000259475
0.00253979
-0.00026641
0.00259793
-0.000273284
0.00265701
-0.000280085
0.00271697
-0.000286801
0.00277774
-0.000293418
0.00283928
-0.000299908
0.00290151
-0.000306263
0.00296436
-0.000312468
0.00302775
-0.000318505
0.00309161
-0.000324357
0.00315587
-0.000330006
0.00322044
-0.000335432
0.00328525
-0.000340618
0.00335023
-0.000345545
0.00341532
-0.000350197
0.00348042
-0.000354555
0.00354548
-0.000358605
0.00361043
-0.000362331
0.0036752
-0.000365721
0.00373973
-0.000368762
0.00380395
-0.000371443
0.00386781
-0.000373759
0.00393126
-0.000375702
0.00399423
-0.000377267
0.00405669
-0.000378453
0.00411859
-0.000379258
0.00417989
-0.000379683
0.00424055
-0.000379733
0.00430055
-0.000379413
0.00435985
-0.000378728
0.00441843
-0.000377689
0.00447628
-0.000376306
0.00453338
-0.000374591
0.00458971
-0.000372557
0.00464527
-0.000370221
0.00470006
-0.000367597
0.00475407
-0.000364702
0.00480731
-0.000361557
0.0048598
-0.000358178
0.00491152
-0.000354587
0.00496251
-0.000350802
0.00501277
-0.000346846
0.00506232
-0.000342739
0.00511118
-0.000338501
0.00515938
-0.000334155
0.00520692
-0.000329721
0.00525385
-0.000325221
0.00530018
-0.000320675
0.00534595
-0.000316105
0.00539117
-0.000311529
0.00543588
-0.00030697
0.0054801
-0.000302445
0.00552387
-0.000297975
0.00556721
-0.000293577
0.00561015
-0.000289271
0.00565272
-0.000285074
0.00569494
-0.000281004
0.00573686
-0.000277078
0.00577848
-0.000273312
0.00581985
-0.000269725
0.00586098
-0.000266331
0.0059019
-0.00026315
0.00594264
-0.000260196
0.00598321
-0.000257491
0.00602365
-0.000255046
0.00606397
-0.000252893
0.00610419
-0.000251035
0.00614429
-0.00024951
0.00618434
-0.00024834
0.00622427
-0.000247496
0.00626413
-0.000247156
-0.000247245
0.00337106
0.00339971
-0.000172905
0.00343025
-0.000182228
0.00346262
-0.000191452
0.00349678
-0.000200578
0.00353266
-0.000209611
0.00357021
-0.000218558
0.00360938
-0.00022742
0.00365009
-0.0002362
0.0036923
-0.0002449
0.00373595
-0.00025352
0.00378097
-0.000262059
0.00382731
-0.000270517
0.0038749
-0.000278889
0.00392368
-0.000287171
0.00397358
-0.000295358
0.00402453
-0.000303443
0.00407647
-0.000311416
0.00412933
-0.00031927
0.00418304
-0.000326991
0.00423752
-0.000334568
0.00429271
-0.000341987
0.00434852
-0.000349233
0.0044049
-0.000356286
0.00446177
-0.000363132
0.00451905
-0.000369753
0.00457668
-0.000376134
0.00463458
-0.000382255
0.00469267
-0.0003881
0.00475089
-0.000393651
0.00480917
-0.000398891
0.00486743
-0.000403803
0.0049256
-0.000408373
0.00498363
-0.000412584
0.00504145
-0.000416423
0.005099
-0.000419879
0.00515622
-0.000422941
0.00521305
-0.000425599
0.00526946
-0.000427847
0.00532538
-0.00042968
0.00538077
-0.000431096
0.0054356
-0.000432094
0.00548982
-0.000432674
0.0055434
-0.00043284
0.00559632
-0.000432597
0.00564854
-0.000431953
0.00570004
-0.000430916
0.00575081
-0.000429497
0.00580083
-0.00042771
0.00585009
-0.000425567
0.00589858
-0.000423086
0.00594631
-0.000420284
0.00599327
-0.000417177
0.00603946
-0.000413787
0.00608489
-0.000410134
0.00612957
-0.000406237
0.00617351
-0.00040212
0.00621673
-0.000397805
0.00625924
-0.000393313
0.00630106
-0.000388668
0.00634222
-0.000383893
0.00638273
-0.00037901
0.00642261
-0.000374042
0.0064619
-0.000369013
0.00650063
-0.000363943
0.00653881
-0.000358855
0.00657647
-0.00035377
0.00661365
-0.000348709
0.00665038
-0.000343693
0.00668667
-0.000338741
0.00672257
-0.000333873
0.0067581
-0.000329107
0.00679329
-0.000324461
0.00682817
-0.000319953
0.00686277
-0.000315601
0.00689711
-0.00031142
0.00693122
-0.000307427
0.00696513
-0.000303638
0.00699887
-0.000300068
0.00703246
-0.000296735
0.00706591
-0.000293652
0.00709926
-0.000290838
0.00713252
-0.000288307
0.0071657
-0.000286075
0.00719884
-0.000284169
0.0072319
-0.000282576
0.00726494
-0.000281382
0.00729793
-0.000280479
0.00733084
-0.000280074
-0.000280172
0.00509149
0.00511351
-0.000204246
0.00513761
-0.000215549
0.00516369
-0.000226664
0.00519168
-0.000237599
0.00522148
-0.000248359
0.00525301
-0.00025895
0.00528619
-0.000269374
0.00532092
-0.000279634
0.00535713
-0.00028973
0.00539473
-0.000299663
0.00543365
-0.000309432
0.00547379
-0.000319034
0.00551509
-0.000328465
0.00555745
-0.00033772
0.0056008
-0.000346793
0.00564506
-0.000355675
0.00569015
-0.000364358
0.00573599
-0.00037283
0.0057825
-0.000381079
0.00582961
-0.000389093
0.00587723
-0.000396857
0.0059253
-0.000404356
0.00597374
-0.000411574
0.00602248
-0.000418495
0.00607145
-0.000425103
0.00612058
-0.000431382
0.0061698
-0.000437317
0.00621904
-0.000442892
0.00626824
-0.000448092
0.00631734
-0.000452904
0.00636628
-0.000457314
0.00641501
-0.00046131
0.00646347
-0.000464882
0.00651161
-0.00046802
0.00655938
-0.000470717
0.00660675
-0.000472967
0.00665367
-0.000474768
0.00670011
-0.000476117
0.00674603
-0.000477015
0.0067914
-0.000477465
0.0068362
-0.000477472
0.0068804
-0.000477041
0.00692398
-0.000476182
0.00696694
-0.000474906
0.00700924
-0.000473224
0.0070509
-0.00047115
0.00709189
-0.000468702
0.00713222
-0.000465895
0.00717188
-0.000462749
0.00721088
-0.000459283
0.00724922
-0.000455518
0.00728691
-0.000451477
0.00732396
-0.000447182
0.00736038
-0.000442655
0.00739618
-0.000437922
0.00743138
-0.000433005
0.007466
-0.00042793
0.00750005
-0.000422719
0.00753355
-0.000417399
0.00756654
-0.000411992
0.00759902
-0.000406523
0.00763102
-0.000401015
0.00766257
-0.00039549
0.00769368
-0.000389972
0.00772439
-0.000384482
0.00775473
-0.000379042
0.0077847
-0.000373671
0.00781435
-0.000368391
0.0078437
-0.000363219
0.00787277
-0.000358176
0.00790158
-0.000353278
0.00793017
-0.000348542
0.00795856
-0.000343986
0.00798677
-0.000339626
0.00801482
-0.000335477
0.00804273
-0.000331553
0.00807053
-0.000327871
0.00809824
-0.000324444
0.00812588
-0.000321289
0.00815346
-0.000318413
0.00818099
-0.000315844
0.00820849
-0.000313574
0.00823598
-0.000311655
0.00826344
-0.000310037
0.0082909
-0.000308837
0.00831835
-0.00030793
0.00834575
-0.000307473
-0.000307568
0.0067048
-0.000214223
0.00671713
-0.000227873
0.00673167
-0.000241209
0.00674832
-0.000254244
0.00676695
-0.000266989
0.00678745
-0.000279452
0.00680971
-0.000291639
0.00683363
-0.000303554
0.00685911
-0.000315203
0.00688603
-0.000326587
0.00691431
-0.000337709
0.00694384
-0.000348567
0.00697454
-0.00035916
0.0070063
-0.000369486
0.00703905
-0.00037954
0.00707269
-0.000389316
0.00710714
-0.000398807
0.00714231
-0.000408005
0.00717813
-0.0004169
0.00721452
-0.000425482
0.0072514
-0.000433737
0.0072887
-0.000441656
0.00732635
-0.000449223
0.00736428
-0.000456425
0.00740243
-0.000463251
0.00744073
-0.000469685
0.00747913
-0.000475715
0.00751757
-0.000481328
0.00755599
-0.000486512
0.00759434
-0.000491257
0.00763258
-0.000495552
0.00767066
-0.000499389
0.00770853
-0.00050276
0.00774617
-0.000505659
0.00778354
-0.000508082
0.0078206
-0.000510027
0.00785732
-0.000511492
0.00789369
-0.000512481
0.00792967
-0.000512996
0.00796524
-0.000513042
0.0080004
-0.000512629
0.00803512
-0.000511764
0.0080694
-0.00051046
0.00810322
-0.000508729
0.00813659
-0.000506587
0.00816948
-0.000504049
0.00820192
-0.000501134
0.00823388
-0.000497862
0.00826539
-0.000494252
0.00829643
-0.000490327
0.00832702
-0.000486109
0.00835717
-0.000481622
0.00838687
-0.000476889
0.00841615
-0.000471936
0.00844502
-0.000466788
0.00847348
-0.000461469
0.00850156
-0.000456004
0.00852926
-0.00045042
0.0085566
-0.000444741
0.0085836
-0.000438991
0.00861027
-0.000433196
0.00863664
-0.000427379
0.00866271
-0.000421564
0.00868851
-0.000415773
0.00871406
-0.000410029
0.00873937
-0.000404352
0.00876446
-0.000398764
0.00878936
-0.000393284
0.00881407
-0.000387933
0.00883862
-0.000382727
0.00886303
-0.000377685
0.00888731
-0.000372824
0.00891148
-0.000368159
0.00893556
-0.000363707
0.00895957
-0.000359482
0.00898351
-0.000355498
0.00900741
-0.000351772
0.00903128
-0.000348311
0.00905513
-0.000345137
0.00907897
-0.00034225
0.00910281
-0.000339684
0.00912665
-0.000337416
0.0091505
-0.00033551
0.00917437
-0.000333904
0.00919824
-0.000332709
0.00922214
-0.00033183
0.00924602
-0.000331347
-0.000331443
0.00805454
0.00805469
-0.000228028
0.00805715
-0.000243672
0.00806179
-0.000258878
0.00806846
-0.000273665
0.00807705
-0.000288045
0.00808745
-0.00030203
0.00809952
-0.000315631
0.00811318
-0.000328856
0.0081283
-0.000341713
0.0081448
-0.000354205
0.00816257
-0.000366337
0.00818152
-0.000378111
0.00820156
-0.000389527
0.0082226
-0.000400584
0.00824457
-0.000411279
0.00826737
-0.000421608
0.00829093
-0.000431567
0.00831518
-0.000441149
0.00834004
-0.000450345
0.00836545
-0.000459149
0.00839135
-0.00046755
0.00841766
-0.000475538
0.00844434
-0.000483104
0.00847133
-0.000490238
0.00849857
-0.000496928
0.00852602
-0.000503166
0.00855364
-0.000508942
0.00858137
-0.000514246
0.00860919
-0.000519072
0.00863704
-0.00052341
0.00866491
-0.000527256
0.00869276
-0.000530606
0.00872055
-0.000533455
0.00874827
-0.000535803
0.0087759
-0.000537649
0.0088034
-0.000538996
0.00883077
-0.000539848
0.00885798
-0.00054021
0.00888503
-0.000540092
0.00891191
-0.000539502
0.00893859
-0.000538452
0.00896509
-0.000536954
0.00899138
-0.000535024
0.00901747
-0.000532679
0.00904336
-0.000529936
0.00906904
-0.000526814
0.00909451
-0.000523335
0.00911978
-0.000519519
0.00914484
-0.000515391
0.00916971
-0.000510972
0.00919437
-0.000506288
0.00921885
-0.000501364
0.00924314
-0.000496225
0.00926725
-0.000490896
0.00929118
-0.000485404
0.00931495
-0.000479774
0.00933856
-0.000474031
0.00936202
-0.000468202
0.00938534
-0.000462311
0.00940853
-0.000456383
0.00943159
-0.000450443
0.00945454
-0.000444513
0.00947739
-0.000438618
0.00950014
-0.000432779
0.0095228
-0.000427017
0.00954539
-0.000421355
0.00956792
-0.00041581
0.00959039
-0.000410404
0.00961282
-0.000405153
0.00963521
-0.000400076
0.00965757
-0.000395189
0.00967992
-0.000390508
0.00970226
-0.000386047
0.0097246
-0.000381824
0.00974695
-0.000377848
0.00976932
-0.000374138
0.00979171
-0.000370698
0.00981412
-0.000367552
0.00983657
-0.000364695
0.00985905
-0.000362163
0.00988156
-0.000359928
0.0099041
-0.000358055
0.00992668
-0.000356482
0.00994927
-0.0003553
0.00997189
-0.000354446
0.00999449
-0.000353945
-0.000354078
0.0090216
-0.000217992
0.00901379
-0.000235859
0.00900809
-0.000253177
0.00900439
-0.000269963
0.00900258
-0.000286237
0.00900256
-0.000302011
0.00900423
-0.000317299
0.00900748
-0.000332114
0.00901224
-0.000346465
0.00901839
-0.000360361
0.00902587
-0.000373809
0.00903457
-0.000386814
0.00904442
-0.00039938
0.00905535
-0.00041151
0.00906727
-0.000423203
0.00908012
-0.000434459
0.00909383
-0.000445276
0.00910833
-0.000455651
0.00912357
-0.000465579
0.00913947
-0.000475057
0.009156
-0.000484076
0.00917309
-0.000492631
0.00919071
-0.000500715
0.00920879
-0.000508321
0.0092273
-0.000515441
0.0092462
-0.000522069
0.00926546
-0.000528197
0.00928503
-0.00053382
0.00930489
-0.000538933
0.00932501
-0.00054353
0.00934537
-0.000547609
0.00936593
-0.000551167
0.00938668
-0.000554203
0.00940759
-0.000556718
0.00942866
-0.000558716
0.00944986
-0.000560198
0.00947119
-0.000561172
0.00949262
-0.000561645
0.00951415
-0.000561624
0.00953577
-0.000561122
0.00955747
-0.000560151
0.00957924
-0.000558725
0.00960108
-0.000556859
0.00962297
-0.000554572
0.00964492
-0.000551882
0.00966691
-0.000548809
0.00968895
-0.000545374
0.00971103
-0.0005416
0.00973315
-0.000537511
0.00975531
-0.000533129
0.0097775
-0.00052848
0.00979973
-0.000523589
0.00982198
-0.000518483
0.00984427
-0.000513186
0.0098666
-0.000507725
0.00988895
-0.000502126
0.00991133
-0.000496415
0.00993375
-0.000490618
0.0099562
-0.00048476
0.00997868
-0.000478866
0.0100012
-0.00047296
0.0100238
-0.000467067
0.0100463
-0.000461209
0.010069
-0.000455409
0.0100916
-0.000449689
0.0101144
-0.000444069
0.0101371
-0.000438569
0.0101599
-0.00043321
0.0101828
-0.000428008
0.0102057
-0.000422982
0.0102286
-0.000418147
0.0102517
-0.000413521
0.0102747
-0.000409117
0.0102979
-0.000404951
0.010321
-0.000401033
0.0103443
-0.000397382
0.0103676
-0.000394001
0.0103909
-0.000390913
0.0104144
-0.000388111
0.0104378
-0.00038563
0.0104613
-0.000383446
0.0104849
-0.000381608
0.0105085
-0.000380078
0.0105321
-0.000378908
0.0105557
-0.000378084
0.0105794
-0.000377563
-0.000377555
0.0146785
-0.00018648
0.0146484
-0.000205829
0.0146198
-0.000224564
0.0145926
-0.000242703
0.0145666
-0.000260259
0.0145418
-0.000277247
0.0145182
-0.00029368
0.0144957
-0.00030957
0.0144741
-0.000324928
0.0144535
-0.000339761
0.0144338
-0.000354079
0.0144149
-0.000367887
0.0143967
-0.000381191
0.0143792
-0.000393994
0.0143623
-0.000406298
0.0143459
-0.000418106
0.01433
-0.000429418
0.0143146
-0.000440233
0.0142996
-0.000450551
0.0142849
-0.000460368
0.0142705
-0.000469682
0.0142564
-0.00047849
0.0142424
-0.000486789
0.0142287
-0.000494576
0.0142151
-0.000501846
0.0142016
-0.000508597
0.0141883
-0.000514825
0.014175
-0.000520529
0.0141617
-0.000525707
0.0141486
-0.000530357
0.0141354
-0.000534481
0.0141224
-0.000538079
0.0141093
-0.000541154
0.0140963
-0.000543709
0.0140833
-0.00054575
0.0140704
-0.000547283
0.0140576
-0.000548315
0.0140448
-0.000548858
0.0140321
-0.00054892
0.0140195
-0.000548515
0.014007
-0.000547656
0.0139946
-0.000546359
0.0139824
-0.000544639
0.0139703
-0.000542516
0.0139584
-0.000540007
0.0139468
-0.000537133
0.0139353
-0.000533915
0.0139241
-0.000530374
0.0139131
-0.000526534
0.0139024
-0.000522418
0.013892
-0.00051805
0.0138818
-0.000513454
0.013872
-0.000508654
0.0138625
-0.000503675
0.0138533
-0.000498543
0.0138445
-0.000493282
0.013836
-0.000487916
0.0138278
-0.000482469
0.01382
-0.000476967
0.0138126
-0.000471432
0.0138055
-0.000465887
0.0137988
-0.000460356
0.0137925
-0.000454859
0.0137865
-0.000449418
0.0137808
-0.000444054
0.0137755
-0.000438786
0.0137706
-0.000433633
0.013766
-0.000428613
0.0137617
-0.000423744
0.0137578
-0.000419041
0.0137542
-0.000414521
0.0137509
-0.000410198
0.0137478
-0.000406086
0.0137451
-0.000402199
0.0137426
-0.000398547
0.0137404
-0.000395146
0.0137384
-0.000392
0.0137366
-0.000389128
0.013735
-0.000386527
0.0137336
-0.000384221
0.0137323
-0.000382199
0.0137312
-0.000380488
0.0137302
-0.000379077
0.0137293
-0.000377974
0.0137284
-0.000377212
0.0137275
-0.000376688
-0.00037664
0.0157218
-0.000154231
0.01569
-0.00017409
0.0156588
-0.000193336
0.0156281
-0.000211978
0.0155979
-0.00023003
0.0155681
-0.000247501
0.0155388
-0.000264402
0.01551
-0.000280742
0.0154816
-0.00029653
0.0154536
-0.000311773
0.015426
-0.000326477
0.0153988
-0.000340648
0.0153719
-0.00035429
0.0153453
-0.000367408
0.015319
-0.000380004
0.015293
-0.00039208
0.0152672
-0.000403638
0.0152416
-0.000414677
0.0152163
-0.0004252
0.0151911
-0.000435204
0.0151661
-0.000444689
0.0151413
-0.000453654
0.0151166
-0.000462098
0.015092
-0.00047002
0.0150676
-0.000477418
0.0150433
-0.000484292
0.0150191
-0.000490642
0.0149951
-0.000496467
0.0149711
-0.000501768
0.0149473
-0.000506547
0.0149236
-0.000510806
0.0149001
-0.000514548
0.0148767
-0.000517778
0.0148535
-0.000520502
0.0148305
-0.000522725
0.0148077
-0.000524456
0.0147851
-0.000525704
0.0147627
-0.000526479
0.0147406
-0.000526793
0.0147187
-0.000526658
0.0146971
-0.00052609
0.0146759
-0.000525102
0.014655
-0.000523712
0.0146344
-0.000521936
0.0146142
-0.000519794
0.0145943
-0.000517304
0.0145749
-0.000514486
0.0145559
-0.000511363
0.0145373
-0.000507954
0.0145192
-0.000504283
0.0145015
-0.000500371
0.0144843
-0.000496241
0.0144675
-0.000491918
0.0144513
-0.000487422
0.0144355
-0.000482779
0.0144203
-0.000478011
0.0144055
-0.000473141
0.0143912
-0.000468191
0.0143774
-0.000463185
0.0143641
-0.000458143
0.0143513
-0.000453089
0.014339
-0.000448042
0.0143272
-0.000443024
0.0143158
-0.000438053
0.0143049
-0.00043315
0.0142945
-0.000428333
0.0142845
-0.000423618
0.0142749
-0.000419025
0.0142657
-0.000414567
0.0142569
-0.000410262
0.0142485
-0.000406123
0.0142405
-0.000402165
0.0142328
-0.000398399
0.0142254
-0.00039484
0.0142184
-0.000391497
0.0142116
-0.000388383
0.0142051
-0.000385504
0.0141989
-0.000382875
0.0141928
-0.000380497
0.014187
-0.000378384
0.0141813
-0.000376537
0.0141758
-0.000374965
0.0141704
-0.000373675
0.0141651
-0.000372653
0.0141598
-0.000371948
0.0141546
-0.000371458
-0.000371426
0.0161959
-0.000127339
0.0161688
-0.000147001
0.0161416
-0.000166071
0.0161142
-0.000184561
0.0160866
-0.000202479
0.0160589
-0.000219834
0.0160312
-0.000236634
0.0160033
-0.000252884
0.0159754
-0.000268592
0.0159474
-0.000283763
0.0159193
-0.000298402
0.0158912
-0.000312513
0.015863
-0.000326101
0.0158347
-0.000339167
0.0158064
-0.000351715
0.0157781
-0.000363746
0.0157497
-0.000375263
0.0157213
-0.000386266
0.0156929
-0.000396756
0.0156644
-0.000406732
0.0156359
-0.000416196
0.0156074
-0.000425148
0.0155789
-0.000433587
0.0155504
-0.000441513
0.0155219
-0.000448927
0.0154934
-0.00045583
0.015465
-0.000462222
0.0154366
-0.000468105
0.0154084
-0.000473481
0.0153802
-0.000478354
0.0153521
-0.000482725
0.0153241
-0.000486601
0.0152963
-0.000489985
0.0152687
-0.000492885
0.0152413
-0.000495309
0.0152141
-0.000497263
0.0151872
-0.000498758
0.0151605
-0.000499804
0.0151341
-0.000500413
0.0151081
-0.000500597
0.0150823
-0.00050037
0.015057
-0.000499747
0.015032
-0.000498743
0.0150075
-0.000497375
0.0149833
-0.00049566
0.0149596
-0.000493617
0.0149364
-0.000491263
0.0149137
-0.000488619
0.0148914
-0.000485705
0.0148697
-0.000482541
0.0148485
-0.000479148
0.0148278
-0.000475547
0.0148076
-0.000471759
0.014788
-0.000467806
0.0147689
-0.000463709
0.0147504
-0.000459489
0.0147324
-0.000455168
0.014715
-0.000450767
0.0146981
-0.000446306
0.0146818
-0.000441805
0.014666
-0.000437286
0.0146507
-0.000432767
0.0146359
-0.000428266
0.0146217
-0.000423804
0.0146079
-0.000419397
0.0145947
-0.000415062
0.0145819
-0.000410817
0.0145695
-0.000406676
0.0145576
-0.000402656
0.0145461
-0.000398769
0.014535
-0.000395031
0.0145243
-0.000391454
0.014514
-0.000388049
0.014504
-0.00038483
0.0144943
-0.000381805
0.0144849
-0.000378985
0.0144757
-0.000376378
0.0144669
-0.000373995
0.0144582
-0.00037184
0.0144497
-0.000369921
0.0144414
-0.000368245
0.0144333
-0.000366812
0.0144253
-0.000365639
0.0144173
-0.0003647
0.0144094
-0.000364057
0.0144016
-0.000363604
-0.000363516
0.0163506
-0.000105798
0.0163284
-0.00012489
0.0163058
-0.000143429
0.0162827
-0.000161418
0.0162591
-0.000178866
0.016235
-0.000195777
0.0162105
-0.000212157
0.0161856
-0.000228011
0.0161604
-0.000243344
0.0161348
-0.00025816
0.0161089
-0.000272463
0.0160826
-0.000286257
0.016056
-0.000299544
0.0160292
-0.000312328
0.0160021
-0.000324609
0.0159747
-0.000336391
0.0159471
-0.000347674
0.0159193
-0.000358459
0.0158913
-0.000368749
0.0158631
-0.000378543
0.0158348
-0.000387843
0.0158063
-0.000396648
0.0157777
-0.000404961
0.0157489
-0.000412781
0.0157201
-0.000420111
0.0156912
-0.000426951
0.0156623
-0.000433303
0.0156334
-0.00043917
0.0156045
-0.000444555
0.0155756
-0.000449461
0.0155467
-0.000453892
0.015518
-0.000457854
0.0154894
-0.000461352
0.0154609
-0.000464392
0.0154325
-0.000466983
0.0154044
-0.000469132
0.0153765
-0.000470849
0.0153488
-0.000472144
0.0153214
-0.000473028
0.0152944
-0.000473513
0.0152676
-0.000473613
0.0152412
-0.00047334
0.0152152
-0.00047271
0.0151895
-0.000471738
0.0151643
-0.000470439
0.0151395
-0.000468832
0.0151152
-0.000466932
0.0150913
-0.000464759
0.015068
-0.000462329
0.0150451
-0.000459663
0.0150227
-0.000456779
0.0150009
-0.000453697
0.0149795
-0.000450435
0.0149587
-0.000447014
0.0149385
-0.000443454
0.0149188
-0.000439773
0.0148996
-0.000435991
0.014881
-0.000432127
0.0148629
-0.000428201
0.0148453
-0.000424231
0.0148282
-0.000420236
0.0148117
-0.000416233
0.0147957
-0.00041224
0.0147801
-0.000408274
0.0147651
-0.000404352
0.0147505
-0.000400488
0.0147364
-0.0003967
0.0147227
-0.000393
0.0147095
-0.000389404
0.0146966
-0.000385925
0.0146842
-0.000382575
0.0146721
-0.000379366
0.0146603
-0.000376309
0.0146489
-0.000373416
0.0146378
-0.000370695
0.014627
-0.000368157
0.0146164
-0.000365809
0.0146061
-0.000363659
0.014596
-0.000361713
0.014586
-0.000359978
0.0145762
-0.000358459
0.0145666
-0.000357157
0.014557
-0.000356087
0.0145476
-0.000355228
0.0145381
-0.000354625
0.0145287
-0.000354202
-0.000354091
0.016358
-8.80596e-05
0.0163395