/*--------------------------------*- C++ -*----------------------------------*\
  =========                 |
  \\      /  F ield         | OpenFOAM: The Open Source CFD Toolbox
   \\    /   O peration     | Website:  https://openfoam.org
    \\  /    A nd           | Version:  7
     \\/     M anipulation  |
\*---------------------------------------------------------------------------*/
FoamFile
{
    version     2.0;
    format      ascii;
    class       surfaceScalarField;
    location    "5.001";
    object      phi;
}
// * * * * * * * * * * * * * * * * * * * * * * * * * * * * * * * * * * * * * //

dimensions      [0 3 -1 0 0 0 0];

internalField   nonuniform List<scalar> 
7273
(
-0.00200672
-0.0004507
-0.00149879
-0.000507924
-0.000953693
-0.000545099
-0.000394666
-0.000559028
0.000159534
-0.0005542
0.00069271
-0.000533175
0.0011944
-0.000501694
0.00165801
-0.00046361
0.00208043
-0.000422414
0.00246134
-0.000380911
0.00280242
-0.000341076
0.00310638
-0.000303959
0.00337648
-0.000270109
0.00361632
-0.000239835
0.00382945
-0.000213133
0.00401924
-0.000189788
0.0041887
-0.000169461
0.00434046
-0.000151758
0.00447674
-0.000136282
0.0045994
-0.000122659
0.00470996
-0.000110558
0.00480966
-9.96984e-05
0.00489951
-8.98489e-05
0.00498033
-8.08248e-05
0.00505282
-7.24832e-05
0.00511753
-6.47173e-05
0.00517498
-5.74522e-05
0.00522563
-5.06415e-05
0.00526989
-4.42637e-05
0.00530821
-3.83189e-05
0.00534103
-3.28218e-05
0.00536883
-2.77949e-05
0.00539208
-2.32595e-05
0.00541131
-1.92276e-05
0.00542701
-1.56967e-05
0.00543966
-1.26473e-05
0.0054497
-1.00441e-05
0.00545754
-7.83951e-06
0.00546352
-5.97943e-06
0.00546793
-4.40849e-06
0.005471
-3.07431e-06
0.00547293
-1.93025e-06
0.00547387
-9.39462e-07
0.00547393
-5.55068e-08
0.00547324
6.84156e-07
0.00547189
1.35014e-06
0.00546995
1.94429e-06
0.00546747
2.47594e-06
0.00546452
2.95158e-06
0.00546114
3.37694e-06
0.00545739
3.75722e-06
0.00545329
4.09714e-06
0.00544889
4.40104e-06
0.00544422
4.67286e-06
0.0054393
4.91623e-06
0.00543416
5.13435e-06
0.00542883
5.33011e-06
0.00542333
5.50603e-06
0.00541766
5.66439e-06
0.00541186
5.80707e-06
0.00540592
5.93584e-06
0.00539987
6.05208e-06
0.00539371
6.15726e-06
0.00538746
6.25225e-06
0.00538112
6.33844e-06
0.00537471
6.41611e-06
0.00536822
6.48689e-06
0.00536167
6.5502e-06
0.00535506
6.60845e-06
0.0053484
6.65952e-06
0.00534169
6.70774e-06
0.00533494
6.74788e-06
0.00532816
6.78856e-06
0.00532134
6.81802e-06
0.00531448
6.85427e-06
0.00530761
6.87158e-06
6.90848e-06
-0.00173291
-0.0008871
-0.00124017
-0.00100066
-0.000711608
-0.00107366
-0.000169385
-0.00110125
0.000365674
-0.00108926
0.000880703
-0.0010482
0.00136473
-0.000985724
0.00181129
-0.000910169
0.00221755
-0.000828677
0.00258337
-0.00074673
0.00291048
-0.000668185
0.00320166
-0.000595133
0.00346014
-0.000528589
0.00368944
-0.000469143
0.00389308
-0.000416768
0.00407432
-0.000371025
0.00423609
-0.000331235
0.00438094
-0.000296611
0.00451103
-0.000266364
0.00462812
-0.000239756
0.0047337
-0.000216135
0.00482895
-0.000194951
0.00491485
-0.00017575
0.0049922
-0.00015817
0.00506165
-0.00014193
0.00512375
-0.000126818
0.00517898
-0.000112682
0.00522776
-9.94261e-05
0.0052705
-8.70049e-05
0.0053076
-7.54143e-05
0.00533946
-6.46818e-05
0.00536651
-5.48517e-05
0.00538922
-4.59673e-05
0.00540805
-3.80555e-05
0.00542347
-3.11151e-05
0.00543593
-2.51114e-05
0.00544587
-1.99781e-05
0.00545365
-1.56247e-05
0.00545962
-1.19465e-05
0.00546405
-8.83609e-06
0.00546716
-6.19134e-06
0.00546915
-3.92096e-06
0.00547017
-1.95224e-06
0.00547031
-1.98016e-07
0.00546971
1.27985e-06
0.00546846
2.60546e-06
0.00546661
3.78921e-06
0.00546424
4.84929e-06
0.00546139
5.79822e-06
0.00545812
6.64715e-06
0.00545447
7.40635e-06
0.00545049
8.08516e-06
0.00544619
8.69214e-06
0.00544163
9.23518e-06
0.00543683
9.72144e-06
0.0054318
1.01573e-05
0.00542659
1.05485e-05
0.00542119
1.09002e-05
0.00541564
1.12167e-05
0.00540994
1.15019e-05
0.00540412
1.17593e-05
0.00539818
1.19917e-05
0.00539214
1.2202e-05
0.005386
1.23919e-05
0.00537977
1.25642e-05
0.00537347
1.27195e-05
0.00536709
1.2861e-05
0.00536066
1.29876e-05
0.00535416
1.31041e-05
0.00534761
1.32062e-05
0.00534102
1.33026e-05
0.00533438
1.33828e-05
0.00532771
1.34642e-05
0.005321
1.35231e-05
0.00531426
1.35955e-05
0.0053075
1.36302e-05
1.37039e-05
-0.00123481
-0.00129593
-0.000771424
-0.00146405
-0.000274043
-0.00157104
0.000233067
-0.00160836
0.000734148
-0.00159034
0.00121586
-0.00152991
0.00166777
-0.00143764
0.00208379
-0.00132618
0.00246131
-0.00120621
0.00280039
-0.0010858
0.00310279
-0.000970594
0.00337137
-0.000863707
0.00360929
-0.00076651
0.00381997
-0.000679821
0.00400677
-0.000603567
0.00417282
-0.000537081
0.00432092
-0.000479336
0.00445347
-0.000429159
0.00457248
-0.000385375
0.00467962
-0.000346897
0.00477626
-0.000312772
0.00486351
-0.000282198
0.00494227
-0.000254517
0.00501331
-0.000229206
0.00507723
-0.000205851
0.00513455
-0.000184138
0.00518571
-0.000163837
0.00523108
-0.000144797
0.00527101
-0.000126939
0.00530584
-0.000110249
0.00533592
-9.47613e-05
0.00536161
-8.05401e-05
0.0053833
-6.76522e-05
0.00540139
-5.61434e-05
0.00541629
-4.602e-05
0.00542842
-3.72398e-05
0.00543815
-2.9714e-05
0.00544585
-2.33167e-05
0.0054518
-1.78999e-05
0.00545627
-1.33095e-05
0.00545948
-9.39896e-06
0.0054616
-6.03609e-06
0.00546276
-3.11388e-06
0.00546308
-5.1595e-07
0.00546266
1.69772e-06
0.00546159
3.67031e-06
0.00545995
5.43506e-06
0.00545778
7.01739e-06
0.00545514
8.43499e-06
0.00545209
9.70401e-06
0.00544865
1.08394e-05
0.00544488
1.18551e-05
0.00544081
1.27636e-05
0.00543647
1.35766e-05
0.00543189
1.43048e-05
0.00542709
1.49576e-05
0.00542209
1.55438e-05
0.00541692
1.60706e-05
0.00541159
1.65449e-05
0.00540612
1.69724e-05
0.00540052
1.73582e-05
0.00539481
1.77066e-05
0.00538899
1.80218e-05
0.00538307
1.83065e-05
0.00537707
1.85649e-05
0.00537099
1.87977e-05
0.00536485
1.90098e-05
0.00535863
1.91996e-05
0.00535236
1.93742e-05
0.00534604
1.95273e-05
0.00533967
1.96719e-05
0.00533326
1.97922e-05
0.00532681
1.99141e-05
0.00532033
2.00024e-05
0.00531382
2.0111e-05
0.00530729
2.01629e-05
2.02734e-05
-0.000585247
-0.00166616
-0.000161793
-0.00188751
0.000285017
-0.00201785
0.000744685
-0.00206803
0.00120084
-0.00204649
0.00163856
-0.00196763
0.00204842
-0.00184751
0.0024249
-0.00170265
0.00276568
-0.00154699
0.0030709
-0.00139102
0.0033423
-0.00124199
0.00358264
-0.00110405
0.00379498
-0.000978846
0.00398251
-0.000867356
0.00414841
-0.000769466
0.00429561
-0.000684279
0.00442671
-0.000610436
0.00454393
-0.000546382
0.00464913
-0.000490568
0.00474381
-0.000441578
0.00482921
-0.000398179
0.00490636
-0.000359346
0.00497609
-0.000324243
0.00503908
-0.0002922
0.00509592
-0.000262689
0.00514708
-0.000235297
0.00519295
-0.000209712
0.00523388
-0.00018572
0.00527014
-0.0001632
0.005302
-0.000142113
0.00532974
-0.000122495
0.00535362
-0.000104423
0.00537396
-8.79876e-05
0.00539107
-7.32574e-05
0.0054053
-6.02536e-05
0.005417
-4.89363e-05
0.00542649
-3.92039e-05
0.00543408
-3.09052e-05
0.00544004
-2.38578e-05
0.0054446
-1.78693e-05
0.00544795
-1.27545e-05
0.00545026
-8.34611e-06
0.00545165
-4.50529e-06
0.00545223
-1.09776e-06
0.00545209
1.84566e-06
0.00545131
4.44754e-06
0.00544996
6.78171e-06
0.0054481
8.87742e-06
0.00544578
1.0757e-05
0.00544304
1.24411e-05
0.00543993
1.39489e-05
0.00543649
1.52983e-05
0.00543275
1.6506e-05
0.00542874
1.75872e-05
0.00542449
1.85558e-05
0.00542002
1.94246e-05
0.00541536
2.02047e-05
0.00541052
2.0906e-05
0.00540553
2.15376e-05
0.0054004
2.21068e-05
0.00539513
2.26208e-05
0.00538976
2.30848e-05
0.00538427
2.35047e-05
0.00537869
2.3884e-05
0.00537303
2.42282e-05
0.00536729
2.45384e-05
0.00536148
2.48211e-05
0.00535561
2.5074e-05
0.00534967
2.53067e-05
0.00534369
2.55106e-05
0.00533766
2.57032e-05
0.00533159
2.58635e-05
0.00532547
2.60259e-05
0.00531933
2.61435e-05
0.00531316
2.62882e-05
0.00530696
2.63572e-05
2.65044e-05
0.000144887
0.000506197
-0.00224882
0.00089874
-0.0024104
0.00130475
-0.00247404
0.00170741
-0.00244915
0.00209372
-0.00235394
0.00245514
-0.00220892
0.00278671
-0.00203422
0.00308641
-0.00184669
0.00335438
-0.00165899
0.00359216
-0.00147978
0.00380225
-0.00131413
0.00398744
-0.00116404
0.0041506
-0.00103052
0.0042946
-0.000913462
0.0044221
-0.000811781
0.00453548
-0.000723811
0.00463674
-0.000647641
0.00472754
-0.000581368
0.00480922
-0.000523264
0.00488289
-0.000471847
0.00494944
-0.000425896
0.00500962
-0.000384427
0.00506408
-0.000346656
0.00511334
-0.000311953
0.00515787
-0.000279818
0.00519801
-0.000249858
0.00523408
-0.000221786
0.0052663
-0.000195424
0.00529489
-0.000170698
0.00532002
-0.000147629
0.0053419
-0.000126302
0.00536074
-0.000106827
0.00537678
-8.92978e-05
0.00539028
-7.37571e-05
0.00540152
-6.0176e-05
0.00541077
-4.84511e-05
0.00541828
-3.84163e-05
0.00542429
-2.98648e-05
0.00542899
-2.2574e-05
0.00543257
-1.63279e-05
0.00543515
-1.09299e-05
0.00543686
-6.21329e-06
0.00543779
-2.03421e-06
0.00543801
1.62877e-06
0.00543762
4.83807e-06
0.00543667
7.72842e-06
0.00543522
1.03265e-05
0.00543332
1.26597e-05
0.00543101
1.47523e-05
0.00542833
1.66274e-05
0.00542532
1.83068e-05
0.00542202
1.98106e-05
0.00541845
2.11575e-05
0.00541464
2.23648e-05
0.00541062
2.34479e-05
0.0054064
2.44208e-05
0.00540201
2.52957e-05
0.00539746
2.60838e-05
0.00539278
2.67942e-05
0.00538796
2.74358e-05
0.00538303
2.8015e-05
0.005378
2.85393e-05
0.00537287
2.9013e-05
0.00536765
2.94428e-05
0.00536236
2.98302e-05
0.005357
3.01833e-05
0.00535157
3.0499e-05
0.00534609
3.07896e-05
0.00534056
3.10443e-05
0.00533498
3.12848e-05
0.00532935
3.14849e-05
0.00532369
3.16878e-05
0.005318
3.18345e-05
0.00531227
3.20152e-05
0.00530653
3.21013e-05
3.2285e-05
0.00119073
-0.00255572
0.00152476
-0.00274443
0.00187028
-0.00281956
0.00221341
-0.00279228
0.00254307
-0.0026836
0.0028518
-0.00251765
0.00313527
-0.00231769
0.00339173
-0.00210315
0.00362122
-0.00188848
0.00382496
-0.00168352
0.00400495
-0.00149412
0.00416363
-0.00132271
0.00430333
-0.00117022
0.00442649
-0.00103662
0.00453542
-0.000920714
0.00463221
-0.000820597
0.00471861
-0.000734046
0.00479608
-0.000658834
0.00486576
-0.000592948
0.00492859
-0.00053468
0.00498535
-0.00048265
0.00503668
-0.00043576
0.00508317
-0.000393143
0.00512531
-0.000354098
0.00516354
-0.00031805
0.00519821
-0.000284529
0.0052296
-0.000253172
0.0052579
-0.000223731
0.00528329
-0.000196082
0.00530588
-0.000170218
0.00532579
-0.000146218
0.00534317
-0.000124207
0.00535818
-0.000104303
0.005371
-8.65739e-05
0.00538183
-7.10097e-05
0.00539089
-5.75139e-05
0.00539839
-4.59158e-05
0.00540452
-3.59934e-05
0.00540945
-2.75024e-05
0.00541332
-2.02027e-05
0.00541627
-1.38754e-05
0.00541839
-8.33123e-06
0.00541977
-3.41862e-06
0.00542045
9.48601e-07
0.00542055
4.74101e-06
0.0054201
8.17408e-06
0.00541917
1.12618e-05
0.00541779
1.40387e-05
0.00541601
1.65323e-05
0.00541387
1.87687e-05
0.0054114
2.07732e-05
0.00540864
2.25694e-05
0.00540562
2.41792e-05
0.00540236
2.56227e-05
0.00539889
2.69184e-05
0.00539523
2.80826e-05
0.0053914
2.91299e-05
0.00538741
3.00735e-05
0.00538328
3.09243e-05
0.00537902
3.16928e-05
0.00537465
3.23868e-05
0.00537017
3.30151e-05
0.0053656
3.35827e-05
0.00536095
3.40978e-05
0.00535621
3.45622e-05
0.00535141
3.49854e-05
0.00534655
3.53638e-05
0.00534163
3.57121e-05
0.00533665
3.60173e-05
0.00533163
3.63056e-05
0.00532657
3.65454e-05
0.00532147
3.67885e-05
0.00531634
3.69644e-05
0.00531117
3.71808e-05
0.00530599
3.7284e-05
3.75039e-05
0.00186092
-0.00280471
0.0021324
-0.00301591
0.00241364
-0.0031008
0.00269356
-0.00307221
0.00296335
-0.00295339
0.00321693
-0.00277123
0.00345072
-0.00255148
0.00366317
-0.0023156
0.00385421
-0.00207953
0.00402466
-0.00185396
0.00417586
-0.00164533
0.0043097
-0.00145655
0.0044279
-0.00128842
0.00453233
-0.00114105
0.00462484
-0.00101322
0.00470715
-0.000902905
0.00478074
-0.00080764
0.00484683
-0.000724922
0.00490636
-0.000652481
0.0049601
-0.000588414
0.00500865
-0.000531207
0.00505258
-0.000479689
0.00509238
-0.000432944
0.00512852
-0.000390233
0.0051614
-0.00035093
0.00519137
-0.000314501
0.00521871
-0.000280507
0.0052436
-0.000248623
0.00526618
-0.000218661
0.00528653
-0.00019057
0.00530473
-0.000164414
0.00532084
-0.000140321
0.00533497
-0.000118432
0.00534723
-9.88389e-05
0.00535778
-8.1556e-05
0.00536677
-6.65011e-05
0.00537436
-5.35062e-05
0.00538071
-4.23426e-05
0.00538596
-3.27519e-05
0.00539023
-2.44759e-05
0.00539363
-1.7279e-05
0.00539626
-1.0957e-05
0.00539819
-5.35405e-06
0.00539943
-2.87712e-07
0.00540012
4.0505e-06
0.00540028
8.01714e-06
0.00539996
1.15807e-05
0.00539921
1.47902e-05
0.00539806
1.76762e-05
0.00539656
2.02671e-05
0.00539475
2.25913e-05
0.00539264
2.46756e-05
0.00539028
2.65447e-05
0.00538768
2.82217e-05
0.00538487
2.97277e-05
0.00538187
3.10814e-05
0.0053787
3.22995e-05
0.00537537
3.33975e-05
0.00537191
3.43878e-05
0.00536832
3.52825e-05
0.00536462
3.60905e-05
0.00536081
3.68223e-05
0.00535691
3.74834e-05
0.00535292
3.80835e-05
0.00534886
3.86244e-05
0.00534473
3.91175e-05
0.00534053
3.95584e-05
0.00533628
3.99641e-05
0.00533198
4.03196e-05
0.00532763
4.06555e-05
0.00532324
4.09347e-05
0.00531881
4.1218e-05
0.00531435
4.14227e-05
0.00530986
4.16748e-05
0.00530535
4.17948e-05
4.20508e-05
0.00249328
-0.00299576
0.00270122
-0.00322385
0.00291679
-0.00331637
0.00313206
-0.00328748
0.0033408
-0.00316213
0.00353862
-0.00296905
0.00372273
-0.00273558
0.00389175
-0.00248462
0.00404544
-0.00223322
0.00418414
-0.00199266
0.00430852
-0.00176972
0.00441971
-0.00156774
0.00451884
-0.00138755
0.00460704
-0.00122925
0.00468562
-0.00109181
0.0047559
-0.000973177
0.00481902
-0.000870769
0.00487597
-0.000781872
0.00492749
-0.000703996
0.00497414
-0.000635065
0.0050164
-0.000573462
0.00505467
-0.000517967
0.00508939
-0.000467656
0.00512094
-0.000421784
0.00514971
-0.000379706
0.00517605
-0.000340842
0.00520023
-0.000304687
0.00522245
-0.000270837
0.00524282
-0.000239032
0.00526141
-0.000209166
0.00527827
-0.000181272
0.00529343
-0.000155476
0.00530693
-0.000131931
0.00531884
-0.000110755
0.00532927
-9.19862e-05
0.00533833
-7.55605e-05
0.00534615
-6.13194e-05
0.00535284
-4.90333e-05
0.00535852
-3.84355e-05
0.0053633
-2.92554e-05
0.00536727
-2.12448e-05
0.0053705
-1.41889e-05
0.00537305
-7.90951e-06
0.00537502
-2.25629e-06
0.00537637
2.69878e-06
0.00537723
7.1566e-06
0.00537763
1.11816e-05
0.00537761
1.48114e-05
0.00537721
1.80804e-05
0.00537646
2.10182e-05
0.00537539
2.36559e-05
0.00537404
2.60235e-05
0.00537244
2.8148e-05
0.00537061
3.00552e-05
0.00536857
3.17689e-05
0.00536634
3.33099e-05
0.00536394
3.46972e-05
0.00536139
3.59481e-05
0.0053587
3.70768e-05
0.00535589
3.80967e-05
0.00535296
3.9018e-05
0.00534993
3.98525e-05
0.00534681
4.06066e-05
0.0053436
4.12912e-05
0.00534031
4.19083e-05
0.00533696
4.24708e-05
0.00533354
4.29738e-05
0.00533007
4.34368e-05
0.00532655
4.38423e-05
0.00532298
4.42255e-05
0.00531937
4.45439e-05
0.00531572
4.48671e-05
0.00531204
4.51003e-05
0.00530833
4.53879e-05
0.0053046
4.55245e-05
4.58162e-05
0.0030731
-0.00312908
0.00321762
-0.00336837
0.00336772
-0.00346647
0.00351878
-0.00343854
0.00366731
-0.00331065
0.0038106
-0.00311235
0.00394666
-0.00287164
0.00407421
-0.00261217
0.0041927
-0.0023517
0.00430197
-0.00210193
0.00440203
-0.00186978
0.00449311
-0.00165882
0.00457575
-0.00147019
0.00465033
-0.00130382
0.00471752
-0.001159
0.00477817
-0.00103383
0.00483312
-0.000925719
0.00488309
-0.000831834
0.00492861
-0.00074952
0.0049701
-0.000676554
0.00500787
-0.000611228
0.0050422
-0.0005523
0.00507341
-0.000498862
0.00510182
-0.000450197
0.00512779
-0.000405672
0.00515163
-0.000364688
0.00517363
-0.000326687
0.00519399
-0.000291195
0.00521284
-0.000257877
0.00523023
-0.000226562
0.00524621
-0.000197246
0.00526077
-0.000170038
0.00527393
-0.000145099
0.00528575
-0.000122567
0.00529626
-0.000102504
0.00530557
-8.48658e-05
0.00531376
-6.95068e-05
0.00532092
-5.62006e-05
0.00532716
-4.46769e-05
0.00533257
-3.4657e-05
0.0053372
-2.58828e-05
0.00534115
-1.8132e-05
0.00534445
-1.12148e-05
0.0053472
-5.00539e-06
0.00534934
5.58862e-07
0.00535101
5.4854e-06
0.00535223
9.96328e-06
0.00535304
1.40008e-05
0.00535348
1.76425e-05
0.00535358
2.09188e-05
0.00535337
2.38635e-05
0.00535289
2.6509e-05
0.00535215
2.88844e-05
0.00535119
3.10181e-05
0.00535002
3.29366e-05
0.00534867
3.46625e-05
0.00534715
3.62168e-05
0.00534548
3.76191e-05
0.00534367
3.88848e-05
0.00534174
4.00287e-05
0.00533969
4.10623e-05
0.00533755
4.19988e-05
0.00533531
4.28451e-05
0.00533298
4.36137e-05
0.00533059
4.43063e-05
0.00532812
4.4938e-05
0.00532559
4.55026e-05
0.005323
4.60224e-05
0.00532037
4.64775e-05
0.00531769
4.69078e-05
0.00531497
4.7265e-05
0.0053122
4.76278e-05
0.00530942
4.78894e-05
0.00530659
4.82121e-05
0.00530375
4.83652e-05
4.86923e-05
0.00359137
-0.00320356
0.00367263
-0.00344964
0.00375859
-0.00355243
0.00384763
-0.00352758
0.0039386
-0.00340163
0.00403036
-0.00320411
0.00412153
-0.00296281
0.00421079
-0.00270144
0.0042972
-0.00243811
0.00438006
-0.00218479
0.0044587
-0.00194842
0.00453252
-0.00173265
0.00460128
-0.00153895
0.00466478
-0.00136732
0.004723
-0.00121722
0.00477628
-0.00108711
0.00482512
-0.000974554
0.00486998
-0.000876701
0.00491126
-0.0007908
0.00494921
-0.000714506
0.00498402
-0.000646038
0.00501586
-0.000584136
0.00504492
-0.000527925
0.00507146
-0.00047674
0.00509578
-0.000429989
0.00511817
-0.000387079
0.00513891
-0.000347422
0.0051582
-0.000310485
0.00517618
-0.000275861
0.00519293
-0.000243315
0.00520848
-0.000212792
0.00522282
-0.000184382
0.00523597
-0.000158244
0.00524793
-0.00013453
0.00525875
-0.000113324
0.00526849
-9.46009e-05
0.00527721
-7.82285e-05
0.005285
-6.39869e-05
0.00529193
-5.16053e-05
0.00529807
-4.07999e-05
0.00530349
-3.13056e-05
0.00530825
-2.28938e-05
0.00531241
-1.53761e-05
0.00531602
-8.61551e-06
0.00531909
-2.50404e-06
0.00532165
2.91819e-06
0.0053238
7.82208e-06
0.00532554
1.22577e-05
0.00532692
1.62613e-05
0.00532797
1.98671e-05
0.00532872
2.31118e-05
0.0053292
2.60294e-05
0.00532944
2.86508e-05
0.00532945
3.1007e-05
0.00532926
3.3127e-05
0.00532888
3.50349e-05
0.00532835
3.6754e-05
0.00532766
3.83057e-05
0.00532684
3.97068e-05
0.00532589
4.09735e-05
0.00532484
4.21182e-05
0.00532368
4.31557e-05
0.00532243
4.40935e-05
0.0053211
4.49452e-05
0.00531969
4.57129e-05
0.00531822
4.6413e-05
0.00531668
4.70387e-05
0.00531509
4.76149e-05
0.00531345
4.81192e-05
0.00531176
4.85961e-05
0.00531003
4.89919e-05
0.00530827
4.93939e-05
0.00530647
4.96835e-05
0.00530465
5.00411e-05
0.0053028
5.02104e-05
5.05723e-05
0.00404217
0.00406053
-0.003468
0.00408481
-0.00357671
0.00411564
-0.00355841
0.00415346
-0.00343944
0.0041982
-0.00324885
0.00424889
-0.0030135
0.00430407
-0.00275662
0.00436229
-0.00249633
0.00442225
-0.00224475
0.00448264
-0.00200881
0.00454215
-0.00179215
0.00459965
-0.00159646
0.00465445
-0.00142212
0.00470588
-0.00126865
0.00475377
-0.001135
0.00479826
-0.00101904
0.00483961
-0.000918048
0.00487805
-0.00082924
0.00491374
-0.000750198
0.00494677
-0.00067907
0.00497722
-0.000614581
0.00500518
-0.000555893
0.00503085
-0.000502404
0.00505444
-0.000453581
0.00507622
-0.000408863
0.00509646
-0.000367655
0.00511535
-0.000329379
0.00513306
-0.000293567
0.00514966
-0.000259919
0.0051652
-0.000228332
0.00517968
-0.000198862
0.0051931
-0.000171663
0.00520546
-0.000146895
0.0052168
-0.000124659
0.00522715
-0.000104948
0.00523656
-8.76444e-05
0.00524511
-7.25347e-05
0.00525286
-5.93501e-05
0.00525986
-4.7804e-05
0.00526618
-3.76263e-05
0.00527187
-2.85837e-05
0.00527698
-2.04868e-05
0.00528155
-1.31885e-05
0.00528567
-6.6147e-06
0.0052892
-6.18268e-07
0.00529238
4.64797e-06
0.00529515
9.48038e-06
0.00529758
1.38376e-05
0.00529968
1.77631e-05
0.00530149
2.13004e-05
0.00530304
2.44838e-05
0.00530434
2.73461e-05
0.00530543
2.99202e-05
0.00530632
3.22381e-05
0.00530703
3.4325e-05
0.00530758
3.62062e-05
0.00530798
3.79051e-05
0.00530824
3.944e-05
0.00530839
4.08278e-05
0.00530842
4.20823e-05
0.00530836
4.32196e-05
0.00530821
4.42478e-05
0.00530797
4.51819e-05
0.00530766
4.60238e-05
0.00530728
4.67917e-05
0.00530684
4.7478e-05
0.00530635
4.81099e-05
0.0053058
4.86628e-05
0.00530521
4.9186e-05
0.00530458
4.96197e-05
0.00530392
5.00607e-05
0.00530322
5.03778e-05
0.00530249
5.07698e-05
0.00530175
5.0955e-05
5.13513e-05
0.00437787
-0.00342608
0.00434457
-0.0035434
0.00432264
-0.00353649
0.00431319
-0.00342999
0.00431665
-0.0032523
0.00433222
-0.00302907
0.00435818
-0.00278258
0.00439257
-0.00253072
0.00443343
-0.00228561
0.00447884
-0.00205422
0.00452685
-0.00184016
0.00457564
-0.00164525
0.00462382
-0.00147029
0.00467035
-0.00131518
0.00471451
-0.00117916
0.00475611
-0.00106064
0.00479518
-0.00095712
0.00483185
-0.000865914
0.00486622
-0.000784565
0.00489831
-0.000711164
0.00492815
-0.000644413
0.00495575
-0.000583501
0.00498124
-0.00052789
0.00500478
-0.000477117
0.00502658
-0.000430671
0.0050469
-0.000387967
0.00506592
-0.000348404
0.00508382
-0.000311464
0.00510069
-0.000276787
0.00511657
-0.000244218
0.00513149
-0.000213782
0.00514545
-0.000185617
0.00515844
-0.000159888
0.00517049
-0.000136705
0.00518162
-0.000116081
0.00519188
-9.79077e-05
0.00520133
-8.19823e-05
0.00521002
-6.8038e-05
0.005218
-5.57871e-05
0.00522533
-4.49561e-05
0.00523205
-3.5308e-05
0.00523822
-2.66507e-05
0.00524387
-1.88385e-05
0.00524903
-1.17739e-05
0.00525378
-5.37203e-06
0.00525802
4.09697e-07
0.00526193
5.56657e-06
0.0052655
1.02719e-05
0.00526875
1.4508e-05
0.00527172
1.83305e-05
0.00527443
2.17731e-05
0.00527691
2.48707e-05
0.00527917
2.76578e-05
0.00528124
3.017e-05
0.00528313
3.24324e-05
0.00528487
3.44727e-05
0.00528646
3.63166e-05
0.00528791
3.79831e-05
0.00528925
3.94903e-05
0.00529048
4.0853e-05
0.00529161
4.20889e-05
0.00529265
4.32063e-05
0.00529361
4.42216e-05
0.0052945
4.51368e-05
0.00529532
4.59718e-05
0.00529608
4.67178e-05
0.00529678
4.74049e-05
0.00529744
4.80057e-05
0.00529805
4.85745e-05
0.00529863
4.90457e-05
0.00529916
4.95251e-05
0.00529967
4.98693e-05
0.00530014
5.02952e-05
0.0053006
5.0496e-05
5.09261e-05
0.00462273
-0.00333236
0.00453863
-0.0034593
0.00447091
-0.00346877
0.0044212
-0.00338028
0.00438992
-0.00322102
0.00437625
-0.00301541
0.0043782
-0.00278453
0.00439325
-0.00254577
0.00441884
-0.00231119
0.00445243
-0.00208782
0.00449155
-0.00187928
0.00453381
-0.00168751
0.0045772
-0.00151368
0.0046203
-0.00135829
0.00466205
-0.00122091
0.00470186
-0.00110045
0.00473959
-0.000994852
0.00477528
-0.000901601
0.00480897
-0.000818259
0.00484069
-0.000742881
0.00487041
-0.000674134
0.00489813
-0.00061122
0.00492389
-0.000553652
0.00494781
-0.00050104
0.00497007
-0.00045293
0.00499087
-0.000408767
0.00501041
-0.000367945
0.00502885
-0.000329904
0.0050463
-0.000294238
0.00506282
-0.00026074
0.00507844
-0.000229398
0.00509315
-0.000200333
0.00510697
-0.000173707
0.00511991
-0.000149641
0.00513198
-0.000128157
0.00514324
-0.000109162
0.00515372
-9.24613e-05
0.00516347
-7.77908e-05
0.00517255
-6.48636e-05
0.005181
-5.34039e-05
0.00518886
-4.31717e-05
0.00519618
-3.39728e-05
0.005203
-2.566e-05
0.00520936
-1.81285e-05
0.00521529
-1.13055e-05
0.00522083
-5.12592e-06
0.00522592
4.69255e-07
0.00523073
5.46361e-06
0.00523524
1.00007e-05
0.00523947
1.41045e-05
0.00524344
1.77992e-05
0.00524718
2.11269e-05
0.00525072
2.41217e-05
0.00525407
2.68244e-05
0.00525724
2.92584e-05
0.00526026
3.14547e-05
0.00526313
3.3441e-05
0.00526588
3.52372e-05
0.00526851
3.68616e-05
0.00527103
3.83307e-05
0.00527345
3.96636e-05
0.00527579
4.08689e-05
0.00527805
4.19644e-05
0.00528023
4.29519e-05
0.00528235
4.3853e-05
0.00528441
4.46578e-05
0.00528642
4.53992e-05
0.00528838
4.60471e-05
0.00529029
4.6661e-05
0.00529217
4.71688e-05
0.00529401
4.76861e-05
0.00529582
4.80568e-05
0.0052976
4.85162e-05
0.00529936
4.87322e-05
4.91952e-05
0.00479524
-0.00319784
0.00467004
-0.0033341
0.00456482
-0.00336355
0.00448246
-0.00329792
0.00442331
-0.00316188
0.00438645
-0.00297855
0.00436957
-0.00276765
0.00436965
-0.00254584
0.00438354
-0.00232508
0.00440817
-0.00211245
0.00444062
-0.00191173
0.00447811
-0.001725
0.00451819
-0.00155376
0.00455897
-0.00139907
0.00459921
-0.00126115
0.00463803
-0.00113926
0.00467508
-0.0010319
0.00471032
-0.000936835
0.00474377
-0.000851714
0.00477547
-0.000774576
0.00480538
-0.00070405
0.00483349
-0.000639329
0.0048598
-0.000579963
0.00488439
-0.000525622
0.00490737
-0.000475916
0.00492894
-0.000430332
0.00494926
-0.000388269
0.00496851
-0.000349147
0.00498678
-0.000312516
0.00500417
-0.000278122
0.00502069
-0.000245918
0.00503635
-0.000216002
0.00505118
-0.000188528
0.00506516
-0.000163624
0.00507833
-0.000141323
0.00509071
-0.000121543
0.00510234
-0.000104097
0.00511328
-8.87263e-05
0.00512356
-7.51454e-05
0.00513323
-6.3077e-05
0.00514234
-5.2279e-05
0.00515092
-4.2555e-05
0.00515902
-3.37556e-05
0.00516666
-2.57742e-05
0.00517389
-1.85297e-05
0.00518074
-1.19733e-05
0.00518724
-6.03593e-06
0.00519332
-6.17978e-07
0.00519919
4.13758e-06
0.00520476
8.52628e-06
0.0052101
1.24629e-05
0.00521521
1.60177e-05
0.00522012
1.9215e-05
0.00522484
2.21046e-05
0.00522939
2.47066e-05
0.00523379
2.70555e-05
0.00523805
2.91813e-05
0.00524218
3.11049e-05
0.0052462
3.28446e-05
0.00525011
3.4418e-05
0.00525393
3.58462e-05
0.00525766
3.71379e-05
0.00526131
3.83122e-05
0.00526489
3.93707e-05
0.00526841
4.03368e-05
0.00527186
4.11995e-05
0.00527527
4.19942e-05
0.00527863
4.26883e-05
0.00528194
4.33465e-05
0.00528522
4.38903e-05
0.00528846
4.44449e-05
0.00529168
4.48414e-05
0.00529486
4.53336e-05
0.00529803
4.55642e-05
4.60594e-05
0.00489814
0.00474367
-0.00317963
0.00461018
-0.00323006
0.00450289
-0.00319063
0.00442267
-0.00308165
0.00436842
-0.00292431
0.00433757
-0.0027368
0.00432664
-0.00253491
0.00433197
-0.00233041
0.00435005
-0.00213053
0.00437761
-0.00193929
0.00441164
-0.00175903
0.00444941
-0.00159153
0.00448871
-0.00143836
0.00452801
-0.00130045
0.00456635
-0.0011776
0.00460315
-0.0010687
0.00463828
-0.000971971
0.00467178
-0.000885211
0.00470368
-0.000806475
0.00473398
-0.00073435
0.00476265
-0.000668
0.00478968
-0.00060699
0.00481509
-0.000551035
0.00483899
-0.00049981
0.0048615
-0.000452849
0.00488281
-0.000409572
0.00490305
-0.000369388
0.00492234
-0.000331811
0.00494077
-0.000296551
0.00495837
-0.000263519
0.00497516
-0.000232789
0.00499114
-0.000204507
0.00500631
-0.000178802
0.00502071
-0.000155716
0.00503434
-0.000135177
0.00504725
-0.000117009
0.00505949
-0.000100959
0.00507108
-8.67423e-05
0.00508209
-7.40819e-05
0.00509254
-6.27337e-05
0.00510249
-5.24993e-05
0.00511196
-4.32272e-05
0.00512099
-3.48075e-05
0.00512962
-2.71589e-05
0.00513787
-2.02207e-05
0.00514577
-1.39374e-05
0.00515339
-8.24237e-06
0.00516065
-3.11792e-06
0.00516767
1.51059e-06
0.00517446
5.67111e-06
0.00518103
9.44789e-06
0.0051874
1.28411e-05
0.00519359
1.59142e-05
0.00519962
1.86812e-05
0.00520549
2.11797e-05
0.00521123
2.34422e-05
0.00521685
2.54908e-05
0.00522235
2.73436e-05
0.00522775
2.90192e-05
0.00523305
3.05409e-05
0.00523827
3.19173e-05
0.00524341
3.31689e-05
0.00524849
3.42971e-05
0.0052535
3.53272e-05
0.00525845
3.62466e-05
0.00526335
3.70936e-05
0.00526821
3.78328e-05
0.00527302
3.85345e-05
0.0052778
3.91133e-05
0.00528254
3.97045e-05
0.00528725
4.0126e-05
0.00529193
4.06504e-05
0.0052966
4.08951e-05
4.14216e-05
0.00476631
-0.00300665
0.00461368
-0.00307742
0.00448896
-0.00306592
0.00439397
-0.00298666
0.00432765
-0.00285798
0.00428712
-0.00269627
0.00426853
-0.00251632
0.00426784
-0.00232972
0.00428122
-0.00214391
0.00430519
-0.00196327
0.00433662
-0.00179046
0.00437268
-0.00162759
0.00441096
-0.00147665
0.0044497
-0.00133919
0.00448782
-0.00121572
0.00452462
-0.00110551
0.00455989
-0.00100723
0.00459361
-0.000918939
0.00462587
-0.000838731
0.00465668
-0.000765161
0.00468603
-0.000697348
0.00471389
-0.000634846
0.00474025
-0.000577403
0.00476519
-0.000524746
0.0047888
-0.000476464
0.00481124
-0.000432007
0.00483263
-0.000390783
0.00485311
-0.000352286
0.00487274
-0.000316184
0.00489158
-0.000282355
0.00490964
-0.000250845
0.00492692
-0.000221788
0.00494342
-0.00019531
0.00495917
-0.000171464
0.00497419
-0.000150189
0.00498849
-0.000131317
0.00500214
-0.000114602
0.00501516
-9.97638e-05
0.0050276
-8.65249e-05
0.00503951
-7.464e-05
0.00505092
-6.39084e-05
0.00506187
-5.41763e-05
0.00507239
-4.53306e-05
0.00508252
-3.72878e-05
0.00509228
-2.99839e-05
0.00510171
-2.33626e-05
0.00511083
-1.73629e-05
0.00511967
-1.19607e-05
0.00512825
-7.06894e-06
0.00513657
-2.64769e-06
0.00514468
1.33053e-06
0.00515262
4.90828e-06
0.00516037
8.16146e-06
0.00516796
1.10867e-05
0.00517541
1.37327e-05
0.00518272
1.61295e-05
0.00518991
1.83007e-05
0.00519699
2.02649e-05
0.00520397
2.20406e-05
0.00521086
2.36539e-05
0.00521766
2.51132e-05
0.00522439
2.64407e-05
0.00523105
2.76371e-05
0.00523765
2.87298e-05
0.00524419
2.97048e-05
0.00525068
3.06028e-05
0.00525713
3.1386e-05
0.00526353
3.21305e-05
0.0052699
3.27432e-05
0.00527624
3.33705e-05
0.00528255
3.38159e-05
0.00528882
3.43719e-05
0.00529509
3.463e-05
3.51869e-05
0.00474562
-0.00282374
0.00458265
-0.00291445
0.00444744
-0.00293071
0.00434329
-0.00288251
0.00426938
-0.00278407
0.00422267
-0.00264956
0.00419901
-0.00249266
0.00419412
-0.00232483
0.00420403
-0.00215381
0.00422518
-0.00198442
0.00425446
-0.00181974
0.00428903
-0.00166217
0.00432646
-0.00151408
0.00436481
-0.00137753
0.00440281
-0.00125372
0.00443976
-0.00114247
0.00447533
-0.0010428
0.00450946
-0.000953069
0.00454222
-0.000871494
0.00457367
-0.00079661
0.00460381
-0.000727485
0.0046326
-0.00066364
0.00466004
-0.000604835
0.00468613
-0.000550843
0.00471097
-0.000501305
0.00473468
-0.000455709
0.00475737
-0.000413477
0.00477917
-0.000374085
0.00480016
-0.00033717
0.00482037
-0.000302573
0.00483984
-0.000270313
0.00485856
-0.000240507
0.00487653
-0.000213283
0.00489377
-0.000188697
0.00491028
-0.000166701
0.0049261
-0.000147137
0.00494126
-0.000129769
0.00495582
-0.00011432
0.00496981
-0.000100514
0.00498327
-8.81033e-05
0.00499625
-7.68861e-05
0.00500878
-6.67052e-05
0.00502089
-5.74447e-05
0.00503262
-4.90181e-05
0.005044
-4.1359e-05
0.00505505
-3.4409e-05
0.00506579
-2.81125e-05
0.00507626
-2.24255e-05
0.00508647
-1.72812e-05
0.00509647
-1.2641e-05
0.00510625
-8.45022e-06
0.00511583
-4.67323e-06
0.00512522
-1.22996e-06
0.00513447
1.83376e-06
0.00514358
4.62248e-06
0.00515256