/*--------------------------------*- C++ -*----------------------------------*\
  =========                 |
  \\      /  F ield         | OpenFOAM: The Open Source CFD Toolbox
   \\    /   O peration     | Website:  https://openfoam.org
    \\  /    A nd           | Version:  7
     \\/     M anipulation  |
\*---------------------------------------------------------------------------*/
FoamFile
{
    version     2.0;
    format      ascii;
    class       volVectorField;
    location    "5.001";
    object      U;
}
// * * * * * * * * * * * * * * * * * * * * * * * * * * * * * * * * * * * * * //

dimensions      [0 1 -1 0 0 0 0];

internalField   nonuniform List<vector> 
3700
(
(-0.382232 -0.0219855 2.16329e-22)
(-0.299388 -0.0247245 -1.91624e-21)
(-0.20952 -0.0264731 1.83151e-21)
(-0.114655 -0.0271058 -1.04387e-21)
(-0.0190613 -0.0268542 5.72427e-22)
(0.0744854 -0.0257798 1.61909e-22)
(0.163661 -0.0242173 -4.23996e-22)
(0.24702 -0.0223473 3.29332e-22)
(0.323696 -0.020336 -4.87281e-22)
(0.393373 -0.0183172 2.05511e-22)
(0.456156 -0.0163858 4.12044e-22)
(0.512413 -0.0146026 2.22834e-22)
(0.562648 -0.0129915 -2.2095e-22)
(0.607437 -0.0115589 1.73902e-22)
(0.647392 -0.0103003 -2.47076e-22)
(0.683103 -0.00920307 8.45353e-23)
(0.715115 -0.00824981 2.66744e-22)
(0.743908 -0.00742107 -5.61568e-22)
(0.769894 -0.00669755 6.21648e-22)
(0.793419 -0.00606134 8.74345e-23)
(0.814766 -0.00549662 -5.02844e-22)
(0.834168 -0.00499 8.05672e-23)
(0.851813 -0.0045305 7.56175e-23)
(0.867854 -0.0041094 -7.18237e-23)
(0.882415 -0.00371995 3.00709e-22)
(0.895601 -0.00335718 -2.16558e-22)
(0.907498 -0.00301761 -8.72239e-24)
(0.918186 -0.00269913 5.96913e-23)
(0.927737 -0.00240083 2.17642e-22)
(0.936223 -0.00212276 -1.78183e-22)
(0.943716 -0.0018657 -8.47161e-23)
(0.950294 -0.00163072 1.53007e-22)
(0.95604 -0.00141885 2.94849e-24)
(0.961039 -0.00123067 4.28936e-23)
(0.965378 -0.00106604 -1.14324e-22)
(0.969143 -0.000924035 7.22688e-23)
(0.972416 -0.000802976 -1.85178e-23)
(0.97527 -0.00070062 3.42004e-23)
(0.97777 -0.000614411 7.69681e-24)
(0.979972 -0.000541746 -1.85926e-23)
(0.981921 -0.00048017 8.53178e-24)
(0.983654 -0.000427522 -3.92197e-24)
(0.985203 -0.00038215 7.6812e-24)
(0.986586 -0.000342424 -7.28856e-24)
(0.987827 -0.000306681 3.36426e-24)
(0.988946 -0.000275388 8.84091e-24)
(0.989955 -0.000247662 -5.77375e-25)
(0.990865 -0.000222954 2.21189e-23)
(0.991686 -0.000200913 -2.13415e-23)
(0.992428 -0.000181244 6.914e-24)
(0.993098 -0.000163691 1.1252e-23)
(0.993705 -0.000148024 -6.6833e-24)
(0.994255 -0.000134036 6.38598e-24)
(0.994755 -0.000121537 6.64672e-25)
(0.995208 -0.000110359 4.21049e-24)
(0.995621 -0.000100348 -1.51652e-24)
(0.995997 -9.13704e-05 -1.11132e-24)
(0.99634 -8.33076e-05 2.12329e-24)
(0.996654 -7.60538e-05 -5.52972e-25)
(0.99694 -6.95212e-05 -1.60654e-25)
(0.997203 -6.36271e-05 5.03899e-25)
(0.997443 -5.83087e-05 1.19876e-24)
(0.997664 -5.34972e-05 -6.68321e-25)
(0.997867 -4.9153e-05 -1.13822e-24)
(0.998054 -4.52119e-05 1.2561e-25)
(0.998225 -4.16609e-05 1.92129e-24)
(0.998386 -3.8426e-05 3.30023e-25)
(0.99853 -3.55329e-05 -1.92745e-25)
(0.998669 -3.28721e-05 1.35977e-25)
(0.998791 -3.054e-05 -2.23717e-25)
(0.998915 -2.83395e-05 -2.71032e-25)
(0.999014 -2.65088e-05 3.41595e-25)
(0.99913 -2.46557e-05 2.4391e-25)
(0.999206 -2.33153e-05 3.40475e-26)
(0.999325 -2.1669e-05 3.71197e-26)
(0.999368 -2.08864e-05 2.95994e-26)
(0.99951 -1.92241e-05 3.01103e-26)
(-0.330834 -0.0652587 -2.47871e-21)
(-0.250139 -0.0734355 2.96315e-21)
(-0.162634 -0.0786583 -3.59974e-21)
(-0.0705809 -0.0805864 -1.1211e-21)
(0.0220337 -0.0796149 9.79696e-23)
(0.112457 -0.0764599 2.18637e-22)
(0.198381 -0.0717963 7.66736e-22)
(0.278536 -0.0662131 -2.49761e-21)
(0.352126 -0.060222 1.23078e-21)
(0.418882 -0.0542176 2.70538e-22)
(0.478936 -0.0484776 -6.09999e-22)
(0.532678 -0.0431818 9.17664e-22)
(0.580619 -0.0384029 -1.07545e-21)
(0.623329 -0.034158 7.08171e-22)
(0.661407 -0.030432 1.04429e-21)
(0.695429 -0.0271864 3.03527e-22)
(0.725924 -0.0243687 -1.42439e-21)
(0.753355 -0.0219206 2.87202e-22)
(0.778119 -0.0197845 -1.85255e-21)
(0.800545 -0.017907 1.85976e-21)
(0.820906 -0.0162412 1.65966e-22)
(0.839424 -0.0147475 -8.97544e-22)
(0.856278 -0.0133934 7.82599e-23)
(0.871615 -0.012153 -2.61441e-22)
(0.885554 -0.0110063 6.6471e-22)
(0.898194 -0.00993851 -8.20244e-22)
(0.909619 -0.00893903 4.9861e-22)
(0.919903 -0.00800144 -2.69103e-22)
(0.929114 -0.00712281 6.87893e-23)
(0.937316 -0.00630315 -2.77485e-22)
(0.944577 -0.00554467 1.76913e-24)
(0.950968 -0.0048506 1.41488e-22)
(0.956564 -0.00422406 1.5926e-22)
(0.961446 -0.00366689 -3.90596e-22)
(0.965693 -0.0031789 2.00583e-22)
(0.969388 -0.0027575 -1.18283e-23)
(0.972606 -0.00239788 -5.23589e-23)
(0.975418 -0.00209352 1.41947e-22)
(0.977887 -0.00183694 -1.4163e-22)
(0.980064 -0.00162047 6.95853e-23)
(0.981995 -0.00143689 1.27247e-23)
(0.983714 -0.0012798 -6.73283e-23)
(0.985251 -0.00114429 -3.95219e-23)
(0.986627 -0.00102566 1.09169e-22)
(0.987861 -0.000918804 -7.8084e-23)
(0.988975 -0.000825191 7.24425e-23)
(0.989979 -0.000742228 -1.36534e-22)
(0.990885 -0.000668262 6.45331e-23)
(0.991703 -0.000602254 4.15437e-23)
(0.992443 -0.000543338 -4.28775e-23)
(0.993111 -0.000490749 1.52435e-23)
(0.993717 -0.000443804 -6.29323e-24)
(0.994265 -0.000401881 3.69859e-25)
(0.994764 -0.00036442 3.0955e-24)
(0.995216 -0.000330911 -2.94553e-23)
(0.995628 -0.000300901 1.03702e-23)
(0.996004 -0.000273985 -8.77471e-24)
(0.996346 -0.000249811 4.57337e-24)
(0.996659 -0.000228061 1.38454e-23)
(0.996945 -0.000208473 6.26303e-24)
(0.997207 -0.000190799 -1.23545e-23)
(0.997447 -0.00017485 3.16763e-24)
(0.997668 -0.000160421 7.91425e-25)
(0.99787 -0.000147393 -5.369e-24)
(0.998057 -0.000135574 -2.4608e-25)
(0.998228 -0.000124925 -5.58674e-25)
(0.998388 -0.000115223 -9.74474e-25)
(0.998532 -0.000106547 1.62675e-24)
(0.998671 -9.85674e-05 -2.75022e-24)
(0.998793 -9.15735e-05 -1.31591e-24)
(0.998916 -8.49742e-05 2.8832e-24)
(0.999016 -7.94843e-05 -5.61834e-25)
(0.999132 -7.39267e-05 -1.52577e-24)
(0.999207 -6.99071e-05 2.0239e-25)
(0.999326 -6.49699e-05 -3.81357e-26)
(0.999369 -6.26235e-05 -6.49188e-26)
(0.999511 -5.76386e-05 -5.7235e-26)
(-0.23684 -0.106531 1.0582e-20)
(-0.160314 -0.120039 -1.30095e-20)
(-0.0774621 -0.128726 9.79661e-21)
(0.00942337 -0.131575 2.19062e-22)
(0.0965163 -0.129818 -3.28001e-22)
(0.181069 -0.124666 1.15269e-21)
(0.261088 -0.116979 -6.2271e-23)
(0.335435 -0.107784 -1.16692e-21)
(0.403448 -0.0979406 9.18617e-22)
(0.464945 -0.0880972 6.86973e-22)
(0.520106 -0.078701 -4.03792e-21)
(0.569341 -0.0700404 5.43092e-21)
(0.613174 -0.062242 -3.68205e-21)
(0.652163 -0.055328 -6.53695e-22)
(0.68688 -0.0492696 5.33907e-21)
(0.717875 -0.0440007 -3.15841e-21)
(0.745648 -0.0394331 3.40393e-22)
(0.770633 -0.0354695 6.41145e-22)
(0.793196 -0.0320147 1.60672e-22)
(0.813642 -0.0289809 1.5034e-21)
(0.832221 -0.0262916 -7.24278e-22)
(0.849136 -0.0238823 3.84699e-22)
(0.864552 -0.0217003 -1.1479e-21)
(0.878605 -0.0197036 4.37714e-22)
(0.891404 -0.0178595 -8.29287e-22)
(0.903043 -0.0161434 7.32018e-22)
(0.913598 -0.0145375 -6.27387e-22)
(0.923135 -0.0130308 8.87775e-22)
(0.931712 -0.0116175 4.40535e-22)
(0.939387 -0.0102973 -5.57142e-22)
(0.946213 -0.00907347 -1.94851e-22)
(0.952252 -0.00795117 3.39132e-22)
(0.957567 -0.00693576 1.18193e-22)
(0.962226 -0.00603071 -4.6369e-22)
(0.966299 -0.00523624 3.18001e-22)
(0.969859 -0.00454871 -8.15646e-23)
(0.972974 -0.00396076 3.5648e-22)
(0.975707 -0.0034622 -3.08459e-22)
(0.978115 -0.00304113 2.00135e-22)
(0.980246 -0.00268528 -1.52112e-22)
(0.98214 -0.002383 8.43337e-23)
(0.983832 -0.00212395 2.4342e-23)
(0.985348 -0.00190006 3.5465e-23)
(0.986707 -0.00170391 1.1304e-22)
(0.987929 -0.00152725 -1.81922e-22)
(0.989031 -0.00137213 -1.47624e-23)
(0.990027 -0.00123456 6.15007e-23)
(0.990926 -0.00111179 -3.5153e-23)
(0.991738 -0.00100216 8.12613e-24)
(0.992473 -0.000904264 -1.43353e-23)
(0.993138 -0.000816846 -1.86742e-24)
(0.99374 -0.000738785 1.93652e-24)
(0.994286 -0.000669055 8.15128e-23)
(0.994782 -0.000606732 -2.19017e-23)
(0.995232 -0.000550973 1.2837e-23)
(0.995642 -0.000501029 -2.29252e-23)
(0.996016 -0.000456226 2.27583e-23)
(0.996358 -0.000415984 -8.26275e-25)
(0.996669 -0.000379773 1.78237e-23)
(0.996954 -0.000347158 -2.74007e-23)
(0.997216 -0.000317726 4.83855e-24)
(0.997455 -0.000291168 1.15817e-24)
(0.997675 -0.000267138 9.5571e-25)
(0.997877 -0.000245441 -2.61332e-24)
(0.998063 -0.000225756 -1.87163e-24)
(0.998234 -0.00020802 -4.85485e-24)
(0.998393 -0.000191861 2.65534e-24)
(0.998537 -0.00017741 2.84297e-24)
(0.998676 -0.000164119 -3.81706e-24)
(0.998797 -0.000152471 6.89311e-25)
(0.99892 -0.000141479 -2.7828e-24)
(0.999019 -0.000132336 7.18727e-25)
(0.999135 -0.000123079 -2.98769e-25)
(0.99921 -0.000116386 -2.41044e-25)
(0.999328 -0.000108162 5.24794e-25)
(0.999371 -0.000104256 -4.9287e-25)
(0.999513 -9.59543e-05 2.01071e-26)
(-0.113326 -0.144812 1.26697e-20)
(-0.0426521 -0.163575 -1.19103e-20)
(0.0337202 -0.17474 1.32093e-20)
(0.113572 -0.17856 -8.62522e-22)
(0.192919 -0.176275 1.04152e-21)
(0.269551 -0.169188 -5.34492e-22)
(0.341733 -0.158622 5.31529e-22)
(0.408452 -0.146006 -8.25976e-22)
(0.469204 -0.132528 2.74874e-21)
(0.523913 -0.119079 4.79748e-22)
(0.572799 -0.10626 -7.39589e-21)
(0.616288 -0.094454 6.52357e-21)
(0.654903 -0.0838483 8.41211e-22)
(0.689178 -0.0744679 -4.20887e-21)
(0.719646 -0.0662662 3.01252e-22)
(0.746816 -0.0591488 1.01156e-21)
(0.771149 -0.0529909 -5.8103e-22)
(0.793039 -0.0476568 -6.67562e-22)
(0.812816 -0.0430142 -4.91458e-22)
(0.83075 -0.0389425 1.94635e-22)
(0.847061 -0.0353375 1.82724e-21)
(0.86193 -0.0321121 -1.073e-21)
(0.875501 -0.0291952 -1.10966e-21)
(0.887898 -0.0265305 -8.39032e-22)
(0.899222 -0.0240733 2.50979e-21)
(0.909555 -0.0217897 -1.88349e-21)
(0.918968 -0.0196544 8.55271e-22)
(0.927518 -0.0176508 -4.85367e-22)
(0.935256 -0.0157698 8.36855e-22)
(0.942225 -0.0140096 -9.74317e-22)
(0.948468 -0.0123739 2.39478e-22)
(0.954032 -0.0108695 -1.57535e-22)
(0.958964 -0.00950403 -2.90255e-22)
(0.963319 -0.008283 -2.32681e-22)
(0.967154 -0.0072077 1.73715e-22)
(0.970528 -0.00627425 -6.32603e-24)
(0.973499 -0.00547367 -9.40316e-23)
(0.976121 -0.00479292 3.22147e-22)
(0.978443 -0.00421647 3.39019e-23)
(0.980509 -0.00372809 -2.41885e-22)
(0.982353 -0.00331228 1.33419e-22)
(0.984005 -0.00295515 -2.38955e-22)
(0.98549 -0.00264565 -7.80364e-23)
(0.986827 -0.00237414 1.74342e-22)
(0.988029 -0.00212981 -1.24938e-22)
(0.989115 -0.00191448 2.3223e-23)
(0.990098 -0.00172323 -7.06307e-23)
(0.990987 -0.00155239 3.74163e-23)
(0.99179 -0.0013997 1.6319e-23)
(0.992518 -0.00126326 8.57484e-24)
(0.993177 -0.00114135 -1.70339e-23)
(0.993774 -0.00103244 -5.66491e-23)
(0.994316 -0.000935109 7.87994e-23)
(0.994809 -0.000848091 -4.34393e-23)
(0.995256 -0.000770216 -1.91046e-23)
(0.995664 -0.000700443 -1.12303e-23)
(0.996036 -0.000637842 1.26057e-23)
(0.996375 -0.000581603 -4.27752e-23)
(0.996685 -0.000530988 1.89641e-23)
(0.996969 -0.000485393 2.33203e-23)
(0.997229 -0.000444245 -2.66308e-24)
(0.997467 -0.00040711 -2.807e-23)
(0.997686 -0.000373508 -8.12365e-24)
(0.997887 -0.000343165 1.40506e-23)
(0.998072 -0.000315636 -9.14846e-25)
(0.998242 -0.00029083 1.40957e-24)
(0.998401 -0.00026823 1.42665e-25)
(0.998544 -0.00024802 -3.82511e-24)
(0.998682 -0.00022943 7.31408e-24)
(0.998802 -0.000213139 -5.01042e-24)
(0.998925 -0.000197765 1.24805e-24)
(0.999024 -0.00018498 1.09314e-24)
(0.999139 -0.000172033 6.22632e-25)
(0.999214 -0.000162674 1.08023e-24)
(0.999332 -0.000151173 -6.98835e-25)
(0.999375 -0.000145713 2.87657e-25)
(0.999515 -0.000134105 -8.97113e-26)
(0.0271822 -0.178654 2.08071e-21)
(0.0913822 -0.201991 -1.13291e-20)
(0.159925 -0.215651 1.76535e-20)
(0.230749 -0.220759 -1.18823e-20)
(0.300806 -0.218049 6.75321e-21)
(0.368037 -0.209171 -2.27168e-21)
(0.430989 -0.195958 -3.36722e-22)
(0.48885 -0.180208 4.79329e-21)
(0.541285 -0.163413 -8.92443e-21)
(0.588316 -0.146679 1.08524e-20)
(0.630199 -0.13075 -8.69586e-21)
(0.667344 -0.116082 1.7929e-21)
(0.700248 -0.102926 -2.70125e-23)
(0.729407 -0.0913167 1.421e-21)
(0.755292 -0.0811894 3.85098e-22)
(0.778356 -0.0724209 -2.82264e-21)
(0.799006 -0.0648516 1.44297e-21)
(0.817589 -0.0583082 8.31216e-22)
(0.834392 -0.0526225 1.13816e-21)
(0.849645 -0.0476429 1.61984e-21)
(0.863532 -0.0432399 -2.58888e-21)
(0.876206 -0.0393062 2.87707e-21)
(0.887792 -0.0357553 -1.79405e-21)
(0.898396 -0.0325182 -4.43175e-22)
(0.908109 -0.0295403 1.54967e-21)
(0.917009 -0.0267785 -1.30586e-21)
(0.925157 -0.0242 9.3333e-22)
(0.932607 -0.0217816 -7.28189e-22)
(0.9394 -0.0195099 6.30198e-22)
(0.945569 -0.0173801 7.88476e-22)
(0.951145 -0.0153954 8.36e-22)
(0.95616 -0.0135638 -1.37977e-21)
(0.960648 -0.0118949 -9.34943e-23)
(0.964648 -0.0103964 -1.00532e-22)
(0.968201 -0.00907157 7.28175e-22)
(0.971354 -0.00791703 -2.41323e-23)
(0.974152 -0.00692319 -3.97092e-22)
(0.976641 -0.00607516 5.9053e-22)
(0.978859 -0.00535471 -3.39816e-22)
(0.980844 -0.00474243 2.18977e-22)
(0.982626 -0.0042196 1.75722e-22)
(0.984229 -0.00376934 1.45937e-22)
(0.985675 -0.00337786 -3.59557e-22)
(0.986983 -0.00303393 9.73742e-23)
(0.988161 -0.00272464 1.14903e-22)
(0.989226 -0.00245072 -7.30819e-23)
(0.990192 -0.00220696 2.55005e-24)
(0.991068 -0.001989 1.01062e-22)
(0.99186 -0.00179398 -1.51226e-22)
(0.992579 -0.00161957 1.60757e-22)
(0.99323 -0.00146363 1.85676e-23)
(0.993821 -0.00132423 -9.52534e-23)
(0.994357 -0.00119959 1.12285e-22)
(0.994845 -0.00108811 -6.06786e-23)
(0.995289 -0.000988303 -4.42097e-23)
(0.995693 -0.000898853 8.18636e-23)
(0.996062 -0.000818575 -1.54955e-23)
(0.996399 -0.000746438 2.18365e-23)
(0.996707 -0.000681501 1.52501e-23)
(0.996988 -0.000622994 -2.21341e-23)
(0.997247 -0.000570186 1.4698e-23)
(0.997483 -0.000522521 1.07474e-23)
(0.997701 -0.000479386 -1.14157e-23)
(0.9979 -0.000440433 -6.22789e-24)
(0.998085 -0.000405088 8.26387e-24)
(0.998253 -0.00037324 1.03815e-23)
(0.998411 -0.00034422 3.53976e-24)
(0.998554 -0.000318272 -3.01358e-24)
(0.998691 -0.000294402 -2.93796e-24)
(0.99881 -0.000273487 5.08126e-24)
(0.998932 -0.000253745 1.48687e-24)
(0.99903 -0.000237332 -2.45364e-24)
(0.999145 -0.000220708 1.84838e-24)
(0.999219 -0.000208697 5.16987e-25)
(0.999336 -0.00019393 1.00168e-24)
(0.999379 -0.000186924 1.77094e-25)
(0.999519 -0.000172025 1.87215e-25)
(0.232436 -0.234633 2.57916e-20)
(0.292189 -0.251284 -2.99025e-20)
(0.353124 -0.257496 3.10286e-21)
(0.412765 -0.254399 3.71366e-21)
(0.469473 -0.243976 -3.3319e-21)
(0.522177 -0.228456 1.49764e-21)
(0.570328 -0.209968 8.79815e-23)
(0.613771 -0.190274 -3.76524e-21)
(0.652625 -0.170671 7.79351e-22)
(0.687171 -0.152026 -5.9043e-21)
(0.717775 -0.13485 8.15123e-21)
(0.744874 -0.119441 3.09115e-21)
(0.768902 -0.105868 -8.13233e-21)
(0.790248 -0.0940484 2.21443e-21)
(0.809284 -0.0838353 -1.88636e-21)
(0.82635 -0.0750377 7.87752e-21)
(0.841737 -0.0674475 -7.64417e-21)
(0.85568 -0.0608626 5.34843e-21)
(0.868362 -0.0551025 -6.29907e-22)
(0.87993 -0.0500145 -4.83535e-21)
(0.890504 -0.0454747 2.43903e-21)
(0.900183 -0.041384 -3.15615e-22)
(0.909058 -0.0376638 -3.1852e-22)
(0.917208 -0.0342512 2.56741e-21)
(0.924703 -0.0310954 -7.2237e-22)
(0.931603 -0.0281559 -4.64037e-22)
(0.937955 -0.0254027 -3.46838e-22)
(0.943795 -0.0228161 -6.59778e-22)
(0.94915 -0.0203875 1.00044e-22)
(0.95404 -0.018118 -5.73843e-22)
(0.958485 -0.0160158 2.72873e-22)
(0.962507 -0.0140921 -2.92204e-22)
(0.966128 -0.0123571 7.98833e-22)
(0.96938 -0.010816 -8.42804e-22)
(0.972294 -0.00946715 5.97909e-22)
(0.974904 -0.00830112 -6.32118e-22)
(0.977245 -0.0073022 -1.39602e-22)
(0.979348 -0.00645033 -5.2521e-22)
(0.981242 -0.00572373 6.59904e-22)
(0.982952 -0.00510118 3.33317e-23)
(0.984499 -0.00456341 -1.31198e-22)
(0.985901 -0.00409424 -2.54974e-22)
(0.987173 -0.0036814 -4.21016e-22)
(0.988324 -0.00330976 2.56907e-23)
(0.989364 -0.00297951 3.94719e-22)
(0.99031 -0.00268456 -2.15499e-22)
(0.991169 -0.00242061 -1.37515e-22)
(0.991948 -0.00218417 1.48633e-22)
(0.992655 -0.00197249 8.83497e-25)
(0.993297 -0.00178308 -4.4488e-24)
(0.993879 -0.00161364 -9.26159e-23)
(0.994409 -0.00146205 -9.07834e-24)
(0.994891 -0.0013264 5.05155e-23)
(0.99533 -0.00120489 -2.82817e-23)
(0.99573 -0.00109596 -1.56756e-23)
(0.996095 -0.000998157 6.08867e-24)
(0.996429 -0.000910252 -6.23865e-23)
(0.996734 -0.000831099 -1.93772e-23)
(0.997013 -0.000759768 2.87867e-23)
(0.997269 -0.000695372 1.84729e-23)
(0.997503 -0.00063724 -3.44485e-23)
(0.997719 -0.000584625 2.00514e-24)
(0.997917 -0.000537106 1.30254e-24)
(0.9981 -0.000493984 -1.82031e-23)
(0.998267 -0.000455127 -3.27063e-24)
(0.998424 -0.000419719 -1.65162e-24)
(0.998566 -0.000388059 -9.56056e-24)
(0.998702 -0.000358933 -1.03456e-24)
(0.99882 -0.000333417 -9.86891e-24)
(0.998941 -0.000309328 -3.72829e-25)
(0.999039 -0.000289307 -1.33949e-24)
(0.999152 -0.000269021 4.39882e-25)
(0.999226 -0.000254374 -4.43536e-24)
(0.999342 -0.000236357 -8.07308e-25)
(0.999384 -0.000227817 -4.10791e-25)
(0.999523 -0.000209645 -2.8134e-25)
(0.374206 -0.262045 -2.30226e-20)
(0.424892 -0.281003 2.85229e-20)
(0.475354 -0.288168 -1.13026e-20)
(0.523846 -0.284805 1.26984e-21)
(0.569283 -0.273149 4.67478e-21)
(0.611063 -0.255749 -1.82978e-22)
(0.648963 -0.235016 1.18072e-22)
(0.683025 -0.212939 3.65279e-21)
(0.713464 -0.190972 -8.65327e-21)
(0.740579 -0.170078 9.32806e-21)
(0.764676 -0.150818 -6.58299e-22)
(0.786095 -0.133502 -9.55058e-21)
(0.805185 -0.118254 4.7098e-22)
(0.822238 -0.10499 6.67722e-21)
(0.83752 -0.0935436 1.46538e-21)
(0.851289 -0.0836998 -9.31423e-22)
(0.863768 -0.0752207 -3.2617e-21)
(0.875132 -0.067874 7.11452e-21)
(0.885518 -0.0614523 -6.60727e-21)
(0.895027 -0.0557827 4.46007e-21)
(0.903742 -0.0507272 9.31274e-22)
(0.911737 -0.0461776 -3.30676e-21)
(0.919079 -0.0420492 -5.35332e-24)
(0.925837 -0.0382736 -3.64503e-21)
(0.932073 -0.0347939 2.82607e-21)
(0.937841 -0.0315631 1.73867e-21)
(0.943187 -0.0285434 -3.62645e-21)
(0.948144 -0.0257086 2.09836e-21)
(0.952734 -0.0230445 4.10538e-22)
(0.956972 -0.0205488 1.40675e-21)
(0.960869 -0.0182286 -2.35587e-22)
(0.964436 -0.0160961 6.72369e-23)
(0.967685 -0.0141635 2.83667e-22)
(0.970635 -0.0124387 -5.06609e-22)
(0.973307 -0.0109218 -5.18539e-23)
(0.975724 -0.00960448 9.18617e-23)
(0.977912 -0.00847106 -3.79204e-22)
(0.979894 -0.00750051 5.25804e-22)
(0.981692 -0.00666942 -5.28038e-22)
(0.983326 -0.00595466 7.37882e-22)
(0.984812 -0.00533519 -4.43224e-22)
(0.986164 -0.00479297 4.48094e-22)
(0.987398 -0.00431501 -1.80207e-22)
(0.988516 -0.00389148 -2.66564e-23)
(0.989529 -0.00350073 -6.71504e-23)
(0.990451 -0.00315503 -1.12601e-22)
(0.991291 -0.00284631 2.60148e-22)
(0.992054 -0.00256946 1.13843e-22)
(0.992747 -0.00232131 -3.04782e-22)
(0.993378 -0.00209909 2.05183e-23)
(0.993951 -0.00190014 3.33657e-24)
(0.994472 -0.00172203 1.44884e-22)
(0.994947 -0.00156254 7.84188e-24)
(0.99538 -0.00141963 7.64933e-23)
(0.995775 -0.00129144 -7.62051e-23)
(0.996135 -0.00117631 -3.45121e-24)
(0.996465 -0.0010728 7.20524e-23)
(0.996767 -0.000979557 -6.66235e-23)
(0.997043 -0.000895509 5.81273e-23)
(0.997296 -0.000819617 -8.9141e-24)
(0.997528 -0.000751096 -1.37843e-24)
(0.997742 -0.000689066 2.67737e-23)
(0.997938 -0.000633039 -4.08479e-23)
(0.998119 -0.000582188 7.13958e-26)
(0.998285 -0.000536366 6.04757e-24)
(0.99844 -0.000494606 1.07004e-23)
(0.99858 -0.000457271 2.50984e-24)
(0.998715 -0.000422919 4.6637e-25)
(0.998832 -0.00039283 6.55764e-25)
(0.998952 -0.000364419 5.5697e-25)
(0.999049 -0.000340814 4.54045e-24)
(0.999161 -0.000316888 4.42692e-25)
(0.999234 -0.000299625 3.26981e-25)
(0.999349 -0.000278378 -8.30869e-26)
(0.999391 -0.000268319 8.08062e-25)
(0.999529 -0.000246897 1.39395e-25)
(0.512336 -0.28375 3.97453e-20)
(0.553886 -0.304562 -3.2916e-20)
(0.593653 -0.312502 2.21723e-20)
(0.63063 -0.308978 -1.55788e-20)
(0.664417 -0.296434 8.67748e-21)
(0.694961 -0.277647 2.5596e-21)
(0.722403 -0.255236 -1.25785e-23)
(0.746993 -0.23136 -5.15146e-21)
(0.769033 -0.207597 5.6319e-21)
(0.788827 -0.184981 4.12421e-21)
(0.806618 -0.16411 -5.44495e-22)
(0.822626 -0.145284 -8.5111e-21)
(0.837085 -0.128672 8.72332e-21)
(0.850185 -0.11422 -8.46527e-21)
(0.862075 -0.101754 5.05783e-22)
(0.872911 -0.0910429 -1.11076e-21)
(0.882838 -0.0818262 3.13347e-21)
(0.891971 -0.0738466 -2.17663e-21)
(0.900392 -0.0668731 3.68159e-22)
(0.908159 -0.0607147 1.85028e-21)
(0.915316 -0.0552219 -3.63363e-21)
(0.921906 -0.0502808 3.57168e-21)
(0.927974 -0.0458038 -3.34386e-21)
(0.93357 -0.0417202 5.32234e-22)
(0.938749 -0.03797 2.77608e-21)
(0.943559 -0.0345006 1.45077e-21)
(0.948044 -0.0312676 -1.78585e-21)
(0.952235 -0.0282373 1.55284e-21)
(0.956153 -0.0253889 1.6181e-21)
(0.959808 -0.0227154 -3.71595e-21)
(0.963208 -0.0202218 1.56229e-21)
(0.966355 -0.0179202 7.73911e-22)
(0.969256 -0.0158246 5.30369e-22)
(0.97192 -0.013945 -2.52479e-21)
(0.974359 -0.0122839 1.43207e-21)
(0.976588 -0.0108347 1.25483e-22)
(0.978625 -0.0095821 -6.05317e-22)
(0.980485 -0.0085049 -3.9233e-22)
(0.982186 -0.00757868 6.53537e-22)
(0.983741 -0.00677897 -1.41288e-22)
(0.985163 -0.00608341 4.28574e-22)
(0.986462 -0.00547275 -5.61853e-22)
(0.98765 -0.00493256 2.92099e-22)
(0.988737 -0.00445574 -7.10707e-24)
(0.989723 -0.00401217 -2.92408e-22)
(0.990617 -0.00361765 4.57561e-22)
(0.991434 -0.00326533 -2.95263e-22)
(0.992179 -0.00294912 3.26455e-22)
(0.992856 -0.00266538 -3.31759e-22)
(0.993473 -0.00241106 1.75885e-22)
(0.994035 -0.0021832 9.21489e-23)
(0.994547 -0.00197904 3.63795e-23)
(0.995014 -0.00179613 -7.08827e-23)
(0.99544 -0.00163214 2.89794e-23)
(0.995828 -0.00148496 -3.85246e-23)
(0.996184 -0.00135273 -7.91721e-23)
(0.996509 -0.0012338 3.58194e-23)
(0.996806 -0.00112663 6.80685e-24)
(0.997079 -0.00103 1.74283e-23)
(0.997329 -0.000942721 3.9872e-23)
(0.997558 -0.000863905 -4.66491e-23)
(0.997769 -0.000792541 2.90841e-23)
(0.997963 -0.000728074 4.80609e-23)
(0.998142 -0.000669555 -1.41714e-23)
(0.998305 -0.000616821 -4.76197e-24)
(0.998459 -0.000568756 1.11841e-23)
(0.998597 -0.000525787 -1.81019e-24)
(0.99873 -0.000486247 2.27798e-24)
(0.998847 -0.000451623 1.07322e-23)
(0.998965 -0.000418919 -5.00256e-24)
(0.99906 -0.000391761 6.81628e-24)
(0.999172 -0.000364221 2.19622e-24)
(0.999244 -0.000344367 3.46494e-25)
(0.999358 -0.000319913 1.24841e-24)
(0.999399 -0.000308353 -1.05117e-25)
(0.999535 -0.00028371 2.13959e-25)
(0.643848 -0.29985 -1.05074e-19)
(0.676229 -0.321924 -2.37585e-21)
(0.705231 -0.330409 4.94227e-20)
(0.730621 -0.326833 -4.6809e-21)
(0.752736 -0.313774 1.15756e-20)
(0.772105 -0.294143 -5.02725e-21)
(0.78924 -0.270671 1.36461e-21)
(0.804582 -0.245626 -6.66669e-22)
(0.818505 -0.220672 3.33002e-22)
(0.831299 -0.196887 4.17131e-21)
(0.843144 -0.174896 -4.78943e-21)
(0.854129 -0.154998 -2.64999e-22)
(0.864349 -0.13735 1.70338e-21)
(0.873886 -0.121969 -1.68964e-22)
(0.882776 -0.108693 -7.06601e-21)
(0.891063 -0.0972837 4.03436e-21)
(0.898805 -0.0874702 5.15871e-21)
(0.906052 -0.0789761 -1.30944e-22)
(0.912834 -0.0715503 -6.33389e-21)
(0.919167 -0.0649861 3.90818e-21)
(0.925058 -0.0591243 -3.28548e-21)
(0.930518 -0.0538477 4.52262e-21)
(0.935567 -0.0490689 -2.4665e-22)
(0.940238 -0.0447182 -5.19936e-21)
(0.944571 -0.0407352 3.11254e-21)
(0.948611 -0.0370641 2.66884e-22)
(0.952395 -0.0336548 -4.10313e-22)
(0.955955 -0.0304666 -1.31847e-21)
(0.959309 -0.0274715 3.08949e-21)
(0.962468 -0.0246571 -9.88777e-23)
(0.965436 -0.0220249 2.04857e-23)
(0.968214 -0.0195862 -1.6936e-21)
(0.970802 -0.0173557 -1.42259e-21)
(0.973205 -0.0153457 6.96686e-22)
(0.975427 -0.0135609 -6.88369e-22)
(0.977479 -0.0119964 1.4048e-21)
(0.979371 -0.0106381 -4.33686e-22)
(0.981113 -0.00946497 9.18871e-22)
(0.982717 -0.00845209 -1.01523e-21)
(0.984193 -0.00757408 4.08701e-23)
(0.985549 -0.00680758 5.34104e-22)
(0.986794 -0.00613258 -1.75886e-22)
(0.987936 -0.00553252 9.47948e-23)
(0.988986 -0.00499696 -2.40969e-22)
(0.989942 -0.00451526 -1.3466e-22)
(0.990807 -0.00407154 4.66841e-22)
(0.991599 -0.00367673 -3.35436e-22)
(0.992323 -0.00332244 5.60927e-23)
(0.992983 -0.00300404 4.64883e-24)
(0.993585 -0.00271841 1.20688e-22)
(0.994134 -0.00246228 5.8603e-23)
(0.994635 -0.00223262 -1.18217e-22)
(0.995092 -0.00202673 -7.15536e-23)
(0.995509 -0.00184203 7.12096e-23)
(0.995891 -0.00167618 -3.85366e-23)
(0.99624 -0.00152711 1.39263e-23)
(0.99656 -0.00139298 1.15006e-22)
(0.996852 -0.00127207 -7.85877e-23)
(0.997121 -0.001163 -3.97786e-23)
(0.997367 -0.00106447 1.10345e-23)
(0.997593 -0.000975469 -1.45614e-23)
(0.997801 -0.000894866 -3.44818e-23)
(0.997992 -0.000822042 1.66892e-23)
(0.998168 -0.000755927 2.78368e-23)
(0.99833 -0.000696345 -2.55101e-23)
(0.998481 -0.000642031 -2.68185e-25)
(0.998617 -0.000593481 -1.52959e-23)
(0.998749 -0.000548798 7.81012e-24)
(0.998863 -0.000509682 -8.26155e-24)
(0.99898 -0.000472722 -7.10813e-24)
(0.999074 -0.000442048 2.0388e-24)
(0.999184 -0.000410925 -1.39836e-24)
(0.999255 -0.000388511 -2.68541e-24)
(0.999368 -0.00036088 1.26055e-26)
(0.999408 -0.000347839 -1.46532e-24)
(0.999542 -0.000320011 1.54282e-25)
(0.766591 -0.310185 -1.09238e-20)
(0.78968 -0.333053 -8.10773e-20)
(0.807967 -0.34193 5.45536e-20)
(0.821972 -0.338461 1.71441e-20)
(0.832751 -0.325305 -2.01368e-20)
(0.841377 -0.305409 -3.05851e-21)
(0.848702 -0.281525 -6.62091e-22)
(0.855328 -0.255958 2.00933e-21)
(0.86167 -0.230422 -3.23301e-22)
(0.867988 -0.206026 2.96208e-21)
(0.874386 -0.183404 -1.46635e-21)
(0.880839 -0.162864 3.43011e-23)
(0.887283 -0.14453 2.58736e-21)
(0.893679 -0.128472 -2.82084e-21)
(0.899965 -0.114581 -1.11568e-22)
(0.906075 -0.10263 2.75464e-21)
(0.911975 -0.0923455 -4.27366e-21)
(0.91765 -0.0834406 3.41945e-21)
(0.923082 -0.0756497 3.34341e-21)
(0.928247 -0.0687523 -5.7404e-21)
(0.933118 -0.062581 1.61632e-21)
(0.93768 -0.0570163 -3.34284e-21)
(0.941928 -0.0519732 5.58522e-21)
(0.945878 -0.0473857 -3.51639e-21)
(0.949554 -0.0431956 -1.44491e-21)
(0.952992 -0.0393465 2.81707e-21)
(0.956224 -0.0357846 -1.2334e-21)
(0.959279 -0.0324628 4.31362e-22)
(0.962176 -0.0293464 2.45105e-21)
(0.964925 -0.0264167 -2.47089e-22)
(0.967529 -0.023671 -1.71805e-21)
(0.969989 -0.0211189 3.77399e-22)
(0.972304 -0.0187753 3.9967e-23)
(0.974473 -0.0166541 4.17688e-22)
(0.9765 -0.014762 -2.33229e-21)
(0.978388 -0.013096 1.35188e-21)
(0.980143 -0.0116433 -9.79458e-23)
(0.981773 -0.0103834 -9.33555e-22)
(0.983283 -0.00929113 5.24714e-22)
(0.98468 -0.00834064 -6.05553e-22)
(0.98597 -0.0075078 7.65724e-22)
(0.987159 -0.00677201 -2.42075e-22)
(0.988253 -0.00611599 3.71049e-22)
(0.989261 -0.0055281 -3.85833e-22)
(0.990186 -0.00500621 -1.30231e-22)
(0.991024 -0.00451658 8.90072e-24)
(0.991787 -0.00407991 2.92795e-22)
(0.992488 -0.00368874 -7.67133e-23)
(0.993128 -0.00333676 7.56868e-23)
(0.993713 -0.00302059 -8.34727e-23)
(0.994248 -0.00273684 -1.7041e-22)
(0.994736 -0.00248225 1.32884e-22)
(0.995182 -0.00225387 -1.32405e-22)
(0.99559 -0.0020489 8.75035e-23)
(0.995964 -0.00186471 2.30308e-23)
(0.996306 -0.00169911 -7.74451e-23)
(0.996619 -0.00155003 -1.13616e-22)
(0.996906 -0.00141557 -2.31679e-23)
(0.997169 -0.00129424 1.15687e-22)
(0.997411 -0.00118461 -2.14421e-23)
(0.997633 -0.00108557 -2.86449e-24)
(0.997838 -0.000995837 1.50859e-23)
(0.998025 -0.000914756 1.65714e-24)
(0.998199 -0.00084113 -5.1999e-23)
(0.998358 -0.000774778 3.93253e-24)
(0.998506 -0.000714282 2.01744e-23)
(0.998641 -0.000660213 -1.97134e-23)
(0.99877 -0.000610442 1.46694e-23)
(0.998883 -0.000566887 1.1854e-23)
(0.998998 -0.000525717 -2.49845e-24)
(0.99909 -0.00049157 -5.11287e-24)
(0.999198 -0.000456902 -1.07112e-24)
(0.999268 -0.000431964 -1.55222e-24)
(0.999379 -0.000401191 3.13234e-25)
(0.999419 -0.000386693 9.55911e-26)
(0.999551 -0.000355721 -3.98987e-25)
(0.878722 -0.314545 3.52389e-20)
(0.892356 -0.337869 -1.66637e-20)
(0.900204 -0.347192 3.87383e-20)
(0.903373 -0.344118 -1.28209e-20)
(0.903523 -0.331342 -3.36326e-20)
(0.902196 -0.311785 -8.74224e-21)
(0.900526 -0.288141 1.01232e-20)
(0.899234 -0.26269 1.41325e-21)
(0.898747 -0.237164 -3.86502e-23)
(0.899279 -0.21269 5.26275e-21)
(0.900849 -0.189902 -1.19413e-21)
(0.903326 -0.169115 9.12845e-23)
(0.906501 -0.150446 -1.99989e-21)
(0.910196 -0.133958 -5.29919e-21)
(0.914258 -0.119629 3.15935e-21)
(0.918532 -0.107272 1.16765e-21)
(0.922896 -0.0966219 1.0501e-21)
(0.927268 -0.0873921 -6.78349e-21)
(0.931585 -0.079308 -2.94141e-22)
(0.935791 -0.0721383 1.18424e-21)
(0.939833 -0.0657079 3.04994e-21)
(0.943671 -0.0598955 -3.48392e-21)
(0.947283 -0.054619 5.61021e-21)
(0.950664 -0.0498179 -3.87281e-21)
(0.953827 -0.0454386 3.29026e-21)
(0.956795 -0.0414265 -2.91795e-21)
(0.959595 -0.0377258 2.17275e-21)
(0.962251 -0.0342847 -2.41445e-21)
(0.96478 -0.0310621 2.99146e-21)
(0.967193 -0.0280334 -1.30219e-21)
(0.969494 -0.0251912 1.82221e-21)
(0.971683 -0.0225424 -2.29199e-21)
(0.97376 -0.0201017 1.8656e-21)
(0.975723 -0.0178837 -8.17748e-22)
(0.977573 -0.0158971 -4.22734e-22)
(0.979311 -0.0141405 -2.04739e-22)
(0.980939 -0.0126026 1.12184e-21)
(0.982461 -0.0112632 -1.12824e-22)
(0.983881 -0.0100977 -1.13007e-21)
(0.985201 -0.00907965 1.27538e-21)
(0.986425 -0.00818449 -5.66457e-22)
(0.987558 -0.00739106 6.50392e-22)
(0.988603 -0.00668224 -8.02207e-22)
(0.989565 -0.00604521 9.008e-22)
(0.990456 -0.00547529 -3.42213e-22)
(0.991266 -0.00496147 -3.04586e-22)
(0.991999 -0.00447736 3.6743e-22)
(0.992674 -0.00404747 -4.28052e-22)
(0.993293 -0.00366284 2.22875e-22)
(0.993859 -0.00331715 7.44674e-23)
(0.994377 -0.00300645 1.06275e-22)
(0.994852 -0.00272747 -1.59668e-22)
(0.995286 -0.00247711 8.50502e-23)
(0.995683 -0.0022523 3.49142e-23)
(0.996047 -0.00205016 -3.13255e-23)
(0.996381 -0.00186834 -6.45506e-23)
(0.996687 -0.0017046 -3.95069e-23)
(0.996968 -0.00155684 9.38196e-23)
(0.997225 -0.00142345 4.20175e-23)
(0.997462 -0.0013029 -9.78019e-23)
(0.997679 -0.00119396 1.38912e-23)
(0.99788 -0.00109523 1.42707e-23)
(0.998064 -0.00100601 -2.4908e-23)
(0.998234 -0.000924976 4.26789e-24)
(0.99839 -0.000851944 1.97489e-23)
(0.998536 -0.000785344 -1.09598e-23)
(0.998667 -0.000725832 -1.01245e-23)
(0.998794 -0.000671039 1.46284e-23)
(0.998905 -0.000623108 5.91918e-24)
(0.999018 -0.00057778 -8.06484e-24)
(0.999108 -0.000540213 -6.31081e-26)
(0.999214 -0.000502044 3.41536e-24)
(0.999283 -0.000474625 -1.17976e-24)
(0.999392 -0.000440752 -1.38166e-25)