/*--------------------------------*- C++ -*----------------------------------*\
  =========                 |
  \\      /  F ield         | OpenFOAM: The Open Source CFD Toolbox
   \\    /   O peration     | Website:  https://openfoam.org
    \\  /    A nd           | Version:  7
     \\/     M anipulation  |
\*---------------------------------------------------------------------------*/
FoamFile
{
    version     2.0;
    format      ascii;
    class       surfaceScalarField;
    location    "90";
    object      phi;
}
// * * * * * * * * * * * * * * * * * * * * * * * * * * * * * * * * * * * * * //

dimensions      [0 3 -1 0 0 0 0];

internalField   nonuniform List<scalar> 
7273
(
-0.0011176
0.000899941
-0.00112734
0.000729427
-0.00113204
0.000490956
-0.00113108
0.000184431
-0.00112402
-0.000185589
-0.00111074
-0.000610947
-0.00109108
-0.00107908
-0.00106544
-0.00157336
-0.00103469
-0.00207457
-0.000999766
-0.00256205
-0.000961254
-0.00301509
-0.000918692
-0.00341394
-0.000869993
-0.00374071
-0.000811433
-0.00397794
-0.00073825
-0.00410808
-0.000644985
-0.00411507
-0.000526612
-0.00398482
-0.00037996
-0.0037078
-0.000204906
-0.00328224
-5.24977e-06
-0.00271404
0.000220288
-0.00202553
0.000456453
-0.00123106
0.00069759
-0.000373274
0.000936811
0.000512522
0.00116854
0.00138641
0.00138613
0.00221409
0.0015823
0.00296512
0.00174883
0.00361815
0.00187736
0.00416343
0.00196011
0.00460472
0.00199095
0.00495812
0.00196762
0.00524707
0.00189551
0.00549202
0.0017914
0.00569639
0.0016837
0.00583518
0.00160634
0.00585576
0.00158768
0.00569587
0.00163989
0.00531199
0.00175645
0.00470039
0.00191942
0.00389537
0.00211032
0.00294925
0.00231645
0.00191341
0.00253063
0.000833033
0.00274742
-0.000247854
0.00296167
-0.00128592
0.00316642
-0.00223585
0.00335381
-0.00305908
0.0035165
-0.00373117
0.0036491
-0.00424546
0.00374875
-0.00461147
0.00381491
-0.00485001
0.00384889
-0.00498723
0.00385329
-0.00504884
0.00383053
-0.0050564
0.00377993
-0.00502979
0.00369618
-0.00499555
0.00357316
-0.00498916
0.00341244
-0.00503872
0.00322998
-0.00513627
0.00305429
-0.0052214
0.00291533
-0.00519801
0.00283144
-0.00497865
0.00280404
-0.00452687
0.00282343
-0.00386424
0.00287758
-0.00304882
0.00295751
-0.00214086
0.00305627
-0.00120129
0.00316809
-0.000269361
0.0032864
0.000599637
0.0034041
0.00139189
0.00351538
0.00205689
0.00361414
0.00261364
0.00369515
0.0030216
0.00376022
0.00333803
0.00379795
0.00350079
0.00382511
0.00364873
0.00360727
-0.000964173
0.000908898
-0.000969985
0.000735239
-0.000972061
0.000493033
-0.000970252
0.000182621
-0.000963752
-0.000192088
-0.000953059
-0.00062164
-0.000938503
-0.00109364
-0.00092102
-0.00159085
-0.000902014
-0.00209358
-0.00088301
-0.00258106
-0.000865055
-0.00303304
-0.000848027
-0.00343096
-0.000829804
-0.00375893
-0.000806335
-0.0040014
-0.000771982
-0.00414243
-0.000719682
-0.00416737
-0.000642333
-0.00406217
-0.000534453
-0.00381568
-0.000393146
-0.00342355
-0.000218853
-0.00288833
-1.89018e-05
-0.00222548
0.000211395
-0.00146136
0.000450434
-0.000612313
0.00069302
0.000269936
0.000931095
0.00114833
0.001157
0.00198818
0.00136222
0.00275991
0.00153778
0.00344258
0.00167496
0.00402626
0.0017661
0.00451357
0.00180644
0.00491778
0.00179683
0.00525669
0.00174701
0.00554184
0.00167755
0.00576585
0.00161745
0.00589527
0.00159642
0.00587679
0.0016344
0.00565788
0.00173465
0.00521175
0.00188541
0.00454962
0.00206893
0.00371185
0.00227014
0.00274803
0.00247986
0.00170369
0.00269351
0.000619387
0.00290648
-0.000460826
0.00311431
-0.00149376
0.0033103
-0.00243184
0.00348691
-0.00323568
0.00363731
-0.00388157
0.00375683
-0.00436498
0.00384346
-0.0046981
0.0038974
-0.00490395
0.00392036
-0.00501019
0.00391514
-0.00504362
0.00388474
-0.005026
0.0038298
-0.00497485
0.00374598
-0.00491174
0.00362588
-0.00486906
0.00346692
-0.00487976
0.00328007
-0.00494942
0.00309125
-0.00503258
0.00293226
-0.00503903
0.00282668
-0.00487307
0.00278092
-0.00448111
0.00278714
-0.00387045
0.00283235
-0.00309404
0.00290581
-0.00221432
0.00299938
-0.00129486
0.00310689
-0.00037687
0.00322175
0.000484779
0.00333698
0.00127666
0.00344687
0.00194699
0.00354478
0.00251574
0.00362614
0.00294025
0.00369119
0.00327298
0.00372935
0.00346263
0.00375782
0.00362026
0.00361124
-0.000745398
0.00091
-0.000744386
0.000734227
-0.000741042
0.000489689
-0.000735584
0.000177163
-0.000727065
-0.000200607
-0.000716643
-0.000632062
-0.000705006
-0.00110528
-0.000693562
-0.00160229
-0.000684252
-0.00210289
-0.000679224
-0.00258609
-0.000680094
-0.00303217
-0.000687229
-0.00342383
-0.000698799
-0.00374736
-0.000710778
-0.00398943
-0.00071678
-0.00413643
-0.000708348
-0.0041758
-0.000676366
-0.00409415
-0.000613255
-0.00387879
-0.000513312
-0.0035235
-0.000374852
-0.00302679
-0.000201
-0.00239933
-1.55562e-06
-0.0016608
0.00023315
-0.000847019
0.00047279
3.02959e-05
0.000712219
0.000908907
0.000942875
0.00175753
0.00115466
0.00254812
0.00133782
0.00325941
0.00148346
0.00388063
0.00158463
0.0044124
0.00163856
0.00486386
0.00164931
0.00524593
0.0016302
0.00556095
0.00160344
0.00579261
0.001596
0.00590272
0.00163142
0.00584137
0.00172131
0.00556799
0.0018621
0.00507096
0.00203974
0.00437199
0.00223835
0.00351323
0.00244638
0.00254
0.00265747
0.00149261
0.00286843
0.000408428
0.00307592
-0.00066832
0.00327562
-0.00169346
0.00346118
-0.00261739
0.0036254
-0.00339991
0.00376209
-0.00401826
0.00386737
-0.00447026
0.0039401
-0.00477083
0.00398125
-0.0049451
0.00399298
-0.00502193
0.00397815
-0.0050288
0.00393999
-0.00498783
0.00388019
-0.00491504
0.00379578
-0.00482734
0.00367905
-0.00475233
0.00352404
-0.00472475
0.00333642
-0.0047618
0.00313815
-0.0048343
0.00296132
-0.0048622
0.00283413
-0.00474587
0.00276872
-0.0044157
0.00276036
-0.0038621
0.00279585
-0.00312953
0.00286261
-0.00228108
0.00295099
-0.00138324
0.00305415
-0.000480034
0.00316535
0.00037358
0.00327777
0.00116423
0.00338575
0.00183901
0.00348226
0.00241923
0.00356334
0.00285916
0.00362771
0.00320861
0.00366604
0.0034243
0.0036952
0.0035911
0.0036169
-0.000466348
0.000900449
-0.000455782
0.000723661
-0.000444471
0.000478378
-0.000432826
0.000165519
-0.000419788
-0.000213646
-0.000407359
-0.000644491
-0.000396429
-0.00111621
-0.000388779
-0.00160994
-0.00038679
-0.00210488
-0.000393222
-0.00257965
-0.00041032
-0.00301507
-0.000439012
-0.00339514
-0.000478216
-0.00370816
-0.000524309
-0.00394333
-0.000570318
-0.00409042
-0.000606842
-0.00413928
-0.000622648
-0.00407835
-0.000608438
-0.003893
-0.000555852
-0.00357608
-0.000460714
-0.00312193
-0.000323645
-0.0025364
-0.00014865
-0.0018358
5.53979e-05
-0.00105107
0.000285454
-0.00019976
0.000519764
0.000674596
0.000750409
0.00152688
0.000965659
0.00233287
0.00115505
0.00307003
0.00130968
0.003726
0.00142369
0.00429839
0.00149635
0.0047912
0.00153434
0.00520794
0.00155287
0.00554242
0.00157387
0.00577161
0.00162032
0.00585627
0.00170888
0.00575281
0.00184396
0.00543292
0.00201762
0.00489729
0.00221571
0.0041739
0.00242502
0.00330392
0.00263698
0.00232804
0.0028473
0.00128229
0.00305393
0.000201789
0.00325418
-0.000868566
0.00344414
-0.00188342
0.00361767
-0.00279093
0.00376805
-0.00355028
0.00388973
-0.00413995
0.00397973
-0.00456026
0.00403781
-0.0048289
0.00406572
-0.00497301
0.00406609
-0.0050223
0.0040418
-0.00500451
0.003996
-0.00494203
0.00393104
-0.00485008
0.00384545
-0.00474175
0.00373207
-0.00463895
0.00358259
-0.00457527
0.0033975
-0.00457671
0.00319372
-0.00463052
0.00300194
-0.00467042
0.00285384
-0.00459778
0.00276765
-0.0043295
0.00274306
-0.00383752
0.00276769
-0.00315415
0.00282731
-0.00234069
0.00291046
-0.00146639
0.0030093
-0.000578877
0.00311676
0.000266122
0.00322614
0.00105485
0.0033318
0.00173336
0.00342645
0.00232458
0.00350674
0.00277888
0.00356989
0.00314545
0.00360821
0.00338599
0.00363734
0.00356197
0.00362515
-0.000133168
-0.000110307
0.0007008
-8.85047e-05
0.000456575
-6.78524e-05
0.000144867
-4.79091e-05
-0.000233589
-3.08484e-05
-0.000661552
-1.82003e-05
-0.00112886
-1.21459e-05
-0.00161599
-1.58097e-05
-0.00210122
-3.22034e-05
-0.00256326
-6.38493e-05
-0.00298343
-0.000111271
-0.00334772
-0.000174737
-0.00364469
-0.000251629
-0.00386644
-0.000334904
-0.00400714
-0.000415195
-0.00405899
-0.000478972
-0.00401457
-0.000515545
-0.00385643
-0.000514145
-0.00357748
-0.000467782
-0.0031683
-0.000375204
-0.00262898
-0.00023739
-0.00197361
-6.4546e-05
-0.00122391
0.000142124
-0.00040643
0.000364432
0.000452288
0.000589471
0.00130184
0.000804633
0.00211771
0.000998774
0.00287588
0.00116317
0.0035616
0.001293
0.00416855
0.00138921
0.00469499
0.00145995
0.0051372
0.00152062
0.00548175
0.00159092
0.00570131
0.00168896
0.00575823
0.00182482
0.00561695
0.00199744
0.0052603
0.00219676
0.00469796
0.00240985
0.00396081
0.00262622
0.00308755
0.00283968
0.00211459
0.00304742
0.00107455
0.00324773
1.47362e-06
0.00343936
-0.0010602
0.00361813
-0.00206218
0.00377824
-0.00295104
0.00391342
-0.00368547
0.00401895
-0.00424548
0.00409281
-0.00463412
0.00413567
-0.00487176
0.00415003
-0.00498737
0.00413899
-0.00501126
0.00410548
-0.00497099
0.00405234
-0.00488889
0.00398218
-0.00477993
0.00389487
-0.00465443
0.00378448
-0.00452857
0.00364147
-0.00443225
0.00346174
-0.00439699
0.00325648
-0.00442525
0.00305326
-0.0044672
0.00288574
-0.00443026
0.00277801
-0.00422177
0.00273538
-0.00379488
0.00274759
-0.00316637
0.00279932
-0.00239242
0.00287711
-0.00154419
0.00297168
-0.000673444
0.00307543
0.000162374
0.00318166
0.00094862
0.00328469
0.00163033
0.00337718
0.00223209
0.00345625
0.0026998
0.00351782
0.00308388
0.00355595
0.00334786
0.00358418
0.00353374
0.00363693
0.000273511
0.000666061
0.000305711
0.000424375
0.000334641
0.000115937
0.00036126
-0.000260208
0.000382524
-0.000682815
0.000397357
-0.00114369
0.000403714
-0.00162235
0.000398804
-0.00209631
0.000379139
-0.0025436
0.000341279
-0.00294557
0.000282369
-0.00328881
0.000199941
-0.00356226
9.59333e-05
-0.00376243
-2.12802e-05
-0.00388993
-0.000139089
-0.00394118
-0.000247772
-0.00390588
-0.000334281
-0.00376992
-0.000385458
-0.00352631
-0.000390764
-0.00316299
-0.000347794
-0.00267195
-0.000254313
-0.00206709
-0.000117091
-0.00136113
5.50844e-05
-0.000578606
0.000258898
0.000248474
0.000472266
0.00108848
0.000683352
0.00190663
0.000880398
0.00267884
0.00105485
0.00338715
0.00120262
0.00402078
0.00132552
0.00457209
0.001432
0.00503071
0.0015361
0.00537765
0.00165397
0.00558345
0.0017985
0.00561369
0.00197432
0.00544114
0.00217674
0.00505788
0.00239526
0.00447945
0.00261876
0.00373731
0.0028391
0.00286721
0.00305174
0.00190195
0.00325508
0.000871213
0.00344782
-0.000191262
0.00362942
-0.0012418
0.00379573
-0.0022285
0.00394117
-0.00309647
0.00405999
-0.00380429
0.00414838
-0.00433387
0.0042054
-0.00469114
0.00423267
-0.00489903
0.00423335
-0.00498806
0.00421099
-0.0049889
0.00416853
-0.00492854
0.0041085
-0.00482886
0.00403336
-0.00470479
0.00394394
-0.00456502
0.00383597
-0.0044206
0.00369977
-0.00429605
0.00352763
-0.00422484
0.00332473
-0.00422236
0.00311409
-0.00425656
0.0029295
-0.00424567
0.0028001
-0.00409237
0.00273763
-0.00373242
0.00273549
-0.00316423
0.00277817
-0.0024351
0.00285023
-0.00161626
0.00294056
-0.000763773
0.00304071
6.22258e-05
0.00314379
0.000845544
0.00324404
0.00153008
0.00333419
0.00214194
0.00341176
0.00262223
0.0034715
0.00302414
0.00350922
0.00331014
0.00353558
0.00350738
0.00365311
0.000691812
0.000618004
0.000736035
0.000380151
0.000774841
7.71312e-05
0.000809835
-0.000295202
0.000837058
-0.000710039
0.000855604
-0.00116224
0.000863458
-0.0016302
0.000857985
-0.00209083
0.000836105
-0.00252172
0.000794421
-0.00290388
0.000728012
-0.0032224
0.000634829
-0.00346908
0.00051577
-0.00364338
0.00037457
-0.00374873
0.000219119
-0.00378573
6.25832e-05
-0.00374935
-7.09353e-05
-0.0036364
-0.000171923
-0.00342532
-0.000228789
-0.00310612
-0.000237944
-0.0026628
-0.000192895
-0.00211214
-9.78793e-05
-0.00145615
3.79437e-05
-0.000714429
0.00021552
7.08983e-05
0.000411327
0.000892668
0.000613908
0.00170404
0.000811292
0.00248145
0.00099495
0.00320349
0.00116103
0.0038547
0.0013114
0.00442173
0.00145358
0.00488853
0.00159912
0.00523211
0.00175999
0.00542258
0.0019441
0.00542957
0.00215196
0.00523327
0.00237692
0.00483293
0.00260899
0.00424738
0.00283897
0.00350733
0.00306054
0.00264564
0.00327041
0.00169208
0.00346754
0.000674088
0.00365173
-0.000375452
0.00382215
-0.00141223
0.00397496
-0.0023813
0.00410466
-0.00322618
0.00420612
-0.00390575
0.00427658
-0.00440433
0.00431627
-0.00473082
0.00432776
-0.00491052
0.00431484
-0.00497515
0.00428136
-0.00495542
0.00423033
-0.0048775
0.00416392
-0.00476244
0.00408419
-0.00462506
0.00399254
-0.00447336
0.00388633
-0.00431439
0.00375678
-0.0041665
0.00359374
-0.0040618
0.00339671
-0.00402533
0.00318295
-0.00404281
0.00298447
-0.00404718
0.00283411
-0.00394201
0.00275029
-0.0036486
0.00273157
-0.00314551
0.00276356
-0.00246708
0.0028292
-0.0016819
0.00291521
-0.000849788
0.00301192
-3.44798e-05
0.00311194
0.000745525
0.00320941
0.0014326
0.00329718
0.00205417
0.00337307
0.00254635
0.00343084
0.00296637
0.00346784
0.00327314
0.00349129
0.00348394
0.00367443
0.00113899
0.000557076
0.00119482
0.000324314
0.00124362
2.83386e-05
0.00128653
-0.000338117
0.00131943
-0.000742939
0.00134147
-0.00118428
0.00135076
-0.00163949
0.00134508
-0.00208515
0.00132157
-0.00249821
0.00127596
-0.00285827
0.00120469
-0.00315113
0.00110563
-0.00337002
0.000977918
-0.00351566
0.000823021
-0.00359383
0.000647008
-0.00360972
0.0004624
-0.00356474
0.00028306
-0.00345706
0.000126841
-0.0032691
7.78511e-06
-0.00298707
-4.87042e-05
-0.00260631
-5.3154e-05
-0.00210769
-6.38477e-06
-0.00150292
0.000100468
-0.000821282
0.000244075
-7.27083e-05
0.000416804
0.000719939
0.000606165
0.00151468
0.000800454
0.00228717
0.000991034
0.00301291
0.00117379
0.00367194
0.00134977
0.00424576
0.00152468
0.00471362
0.0017069
0.00504988
0.00190419
0.0052253
0.00212009
0.00521367
0.00235222
0.00500115
0.00259315
0.004592
0.0028339
0.00400662
0.00306694
0.00327429
0.00328726
0.00242532
0.00349248
0.00148686
0.0036823
0.000484275
0.00385688
-0.000550033
0.00401535
-0.0015707
0.0041538
-0.00251975
0.00426686
-0.00333924
0.00435013
-0.00398903
0.00440206
-0.00445625
0.00442412
-0.00475289
0.00441989
-0.00490628
0.00439365
-0.00494892
0.00434944
-0.0049112
0.00429026
-0.00481833
0.00421802
-0.0046902
0.00413425
-0.0045413
0.00404045
-0.00437956
0.00393545
-0.00420939
0.003812
-0.00404306
0.00365886
-0.00390866
0.0034706
-0.00383707
0.00325809
-0.0038303
0.00304965
-0.00383875
0.00288001
-0.00377237
0.00277392
-0.00354251
0.00273629
-0.00310788
0.00275545
-0.00248624
0.00281351
-0.00173996
0.00289496
-0.000931237
0.00298824
-0.000127761
0.00308545
0.000648317
0.00318029
0.00133776
0.00326577
0.00196869
0.00333991
0.00247221
0.00339562
0.00291066
0.00343149
0.00323727
0.00345098
0.00346444
0.00370146
0.00160828
0.000485429
0.00167316
0.00025944
0.00173261
-3.11115e-05
0.00178111
-0.000386619
0.00181847
-0.000780297
0.00184294
-0.00120875
0.00185264
-0.00164919
0.0018452
-0.00207771
0.00181783
-0.00247083
0.00176801
-0.00280846
0.00169338
-0.0030765
0.00159173
-0.00326837
0.00146127
-0.0033852
0.00130152
-0.00343409
0.00111567
-0.00342386
0.000912545
-0.00336162
0.000704922
-0.00324944
0.000511593
-0.00307577
0.000351976
-0.00282745
0.000236876
-0.00249121
0.000180253
-0.00205107
0.000184347
-0.00150701
0.00024279
-0.000879725
0.00034883
-0.000178749
0.000493886
0.000574883
0.000665609
0.00134296
0.00085282
0.00209995
0.00104675
0.00281898
0.00124263
0.00347606
0.00144007
0.00404831
0.00164241
0.00451128
0.00185468
0.00483762
0.00208068
0.0049993
0.00232048
0.00497386
0.00256967
0.00475196
0.00282081
0.00434086
0.00306604
0.00376139
0.00329911
0.00304122
0.00351602
0.00220841
0.00371509
0.00128778
0.00389656
0.00030281
0.00406089
-0.000714363
0.00420684
-0.00171665
0.00433023
-0.00264314
0.00442587
-0.00343488
0.00449029
-0.00405344
0.00452328
-0.00448924
0.0045277
-0.00475731
0.00450803
-0.00488661
0.00446896
-0.00490984
0.00441454
-0.00485678
0.00434775
-0.00475153
0.00427024
-0.00461269
0.00418305
-0.00445412
0.00408742
-0.00428392
0.00398321
-0.00410519
0.00386511
-0.00392495
0.00372201
-0.00376556
0.00354472
-0.00365978
0.00333758
-0.00362315
0.00312365
-0.00362482
0.00293747
-0.00358618
0.00280901
-0.00341405
0.00275032
-0.00304919
0.00275413
-0.00249005
0.0028029
-0.00178872
0.00287906
-0.00100739
0.00296902
-0.000217726
0.0030636
0.000553736
0.00315607
0.00124529
0.00323948
0.00188528
0.00331188
0.00239981
0.00336545
0.00285709
0.00339969
0.00320302
0.00341432
0.00344981
0.00373451
0.00209663
0.000407151
0.00216786
0.000188208
0.00223345
-9.66979e-05
0.00228566
-0.000438833
0.00232493
-0.000819569
0.00234887
-0.00123269
0.00235551
-0.00165583
0.00234315
-0.00206535
0.00231025
-0.00243793
0.00225539
-0.0027536
0.0021772
-0.00299831
0.00207417
-0.00316534
0.00194454
-0.00325557
0.00178673
-0.00327628
0.00160115
-0.00323827
0.00139231
-0.00315278
0.00116971
-0.00302684
0.000950063
-0.00285612
0.000752908
-0.00263029
0.000594387
-0.00233269
0.000489845
-0.00194653
0.0004457
-0.00146286
0.000459741
-0.000893766
0.000527502
-0.000246509
0.000641927
0.000460459
0.000792432
0.00119245
0.000968499
0.00192389
0.00116136
0.00262612
0.00136541
0.00327201
0.00157858
0.00383515
0.00180162
0.00428824
0.0020363
0.00460294
0.00228305
0.00475255
0.00253923
0.00471768
0.00279912
0.00449207
0.00305551
0.00408447
0.00330159
0.00351531
0.00353208
0.00281074
0.00374371
0.00199678
0.00393542
0.00109606
0.00410791
0.000130323
0.00426158
-0.000868032
0.00439457
-0.00184965
0.00450227
-0.00275083
0.00457979
-0.0035124
0.00462483
-0.00409848
0.00463877
-0.00450318
0.0046258
-0.00474434
0.00459121
-0.00485203
0.00453997
-0.00485859
0.00447605
-0.00479287
0.00440226
-0.00467774
0.00432007
-0.0045305
0.0042301
-0.00436414
0.0041331
-0.00418693
0.00402953
-0.00400162
0.00391596
-0.00381138
0.00378248
-0.00363208
0.00361753
-0.00349483
0.00341939
-0.00342501
0.00320473
-0.00341017
0.00300572
-0.00338718
0.00285592
-0.00326424
0.00277451
-0.00296778
0.00276022
-0.00247576
0.00279743
-0.00182593
0.00286711
-0.00107708
0.00295349
-0.000304108
0.00304564
0.000461588
0.00313608
0.00115485
0.0032177
0.00180366
0.00328844
0.00232907
0.0033398
0.00280574
0.0033719
0.00317092
0.00338096
0.00344076
0.00377357
0.00260172
0.00267342
0.000116504
0.00273913
-0.000162402
0.00278997
-0.000489675
0.00282662
-0.000856224
0.00284618
-0.00125224
0.00284678
-0.00165644
0.00282719
-0.00204577
0.00278671
-0.00239745
0.00272503
-0.00269192
0.00264196
-0.00291524
0.00253711
-0.00306048
0.00240946
-0.00312792
0.00225734
-0.00312417
0.00207943
-0.00306036
0.00187646
-0.00294981
0.00165338
-0.00280376
0.00142236
-0.0026251
0.00120082
-0.00240876
0.00100768
-0.00213955
0.000860963
-0.00179981
0.000772125
-0.00137403
0.000743313
-0.000864954
0.000772882
-0.000276078
0.000855308
0.000378032
0.000981916
0.00106585
0.00114307
0.00176273
0.00133016
0.00243903
0.00153678
0.00306539
0.00175917
0.00361275
0.00199562
0.00405179
0.00224495
0.00435361
0.0025048
0.0044927
0.00277053
0.00445195
0.00303563
0.00422698
0.00329312
0.00382698
0.00353695
0.00327148
0.00376262
0.00258507
0.00396746
0.00179194
0.00415096
0.000912562
0.0043141
-3.28122e-05
0.00445688
-0.00101081
0.00457649
-0.00196926
0.00466784
-0.00284219
0.00472664
-0.00357119
0.00475203
-0.00412388
0.00474709
-0.00449824
0.00471728
-0.00471453
0.00466855
-0.00480329
0.00460599
-0.00479603
0.00453339
-0.00472028
0.00445332
-0.00459766
0.00436706
-0.00444424
0.00427491
-0.00427199
0.00417712
-0.00408914
0.00407425
-0.00389874
0.00396449
-0.00370162
0.00383981
-0.0035074
0.00368778
-0.0033428
0.00350156
-0.00323879
0.00329088
-0.00319948
0.00308356
-0.00317986
0.00291462
-0.00309531
0.00280972
-0.00286289
0.00277465
-0.00244069
0.00279752
-0.0018488
0.00285895
-0.00113851
0.00294106
-0.000386215
0.00303079
0.000371857
0.00311953
0.00106612
0.00319968
0.00172351
0.00326888
0.00225986
0.003318
0.00275662
0.00334751
0.00314141
0.00335062
0.00343765
0.00381829
0.00318267
5.2337e-05
0.0032415
-0.000221232
0.00328552
-0.000533696
0.0033146
-0.000885305
0.00332553
-0.00126317
0.00331651
-0.00164741
0.00328668
-0.00201594
0.00323612
-0.00234689
0.00316552
-0.00262132
0.00307586
-0.00282558
0.00296791
-0.00295253
0.00284174
-0.00300175
0.00269636
-0.00297879
0.00252994
-0.00289394
0.00234085
-0.00276073
0.00212981
-0.00259271
0.00190318
-0.00239847
0.00167377
-0.00217934
0.0014596
-0.00192538
0.0012804
-0.00162061
0.00115248
-0.0012461
0.00108343
-0.000795905
0.00107551
-0.000268159
0.00112516
0.000328376
0.00122583
0.000965185
0.00136876
0.0016198
0.00154556
0.00226223
0.00174915
0.0028618
0.00197425
0.00338764
0.00221697
0.00380907
0.00247365
0.00409693
0.00273968
0.00422667
0.00300897
0.00418266
0.00327448
0.00396147
0.00352948
0.00357198
0.00376844
0.00303251
0.00398744
0.00236607
0.00418439
0.00159499
0.00435911
0.000737848
0.00451291
-0.000186616
0.00464466
-0.00114256
0.00475049
-0.00207508
0.00482492
-0.00291662
0.00486455
-0.00361082
0.00487029
-0.00412963
0.00484695
-0.0044749
0.00480113
-0.00466871
0.00473924
-0.0047414
0.00466638
-0.00472317
0.00458606
-0.00463995
0.00450049
-0.00451209
0.0044108
-0.00435455
0.00431707
-0.00417826
0.00421909
-0.00399115
0.00411719
-0.00379684
0.0040107
-0.00359513
0.00389379
-0.00339049
0.0037545
-0.00320352
0.00358227
-0.00306656
0.0033799
-0.00299711
0.00316931
-0.00296927
0.00298466
-0.00291066
0.00285664
-0.00273487
0.00279858
-0.00238262
0.00280402
-0.00185425
0.00285479
-0.00118927
0.00293137
-0.000462799
0.00301835
0.000284881
0.00310559
0.000978882
0.00318456
0.00164454
0.00325238
0.00219204
0.00329927
0.00270973
0.0033259
0.00311478
0.00332309
0.00344045
0.00386795
0.00368843
3.05361e-06
0.00373254
-0.000265337
0.00376331
-0.000564473
0.00377916
-0.000901145
0.00377674
-0.00126076
0.00375424
-0.00162491
0.00371114
-0.00197284
0.00364812
-0.00228387
0.00356674
-0.00253994
0.00346895
-0.00272778
0.00335657
-0.00284016
0.00323077
-0.00287596
0.00309153
-0.00283954
0.00293744
-0.00273985
0.00276607
-0.00258936
0.00257532
-0.00240196
0.00236635
-0.0021895
0.00214587
-0.00195886
0.00192758
-0.00170709
0.00173006
-0.00142309
0.00157258
-0.00108863
0.00146831
-0.000691635
0.00142455
-0.000224393
0.00144116
0.000311765
0.0015142
0.000892141
0.00163601
0.00149798
0.00179842
0.00209983
0.00199381
0.00266642
0.00221563
0.00316582
0.00245815
0.00356655
0.00271571
0.00383937
0.00298197
0.00396041
0.00324973
0.0039149
0.00351163
0.00369957
0.00376112
0.00332249
0.00399306
0.00280057
0.00420396
0.00215516
0.00439228
0.00140666
0.00455823
0.000571902
0.00470272
-0.000331102
0.00482328
-0.00126313
0.00491476
-0.00216657
0.00497161
-0.00297346
0.00499175
-0.00363096
0.00497811
-0.00411598
0.00493716
-0.00443396
0.00487646
-0.00460801
0.00480265
-0.00466759
0.00472064
-0.00464116
0.00463361
-0.00455292
0.00454342
-0.0044219
0.00445096
-0.0042621
0.00435621
-0.00408352
0.00425861
-0.00389355
0.00415809
-0.00369632
0.0040546
-0.00349164
0.0039444
-0.0032803
0.00381709
-0.0030762
0.00365997
-0.00290944
0.0034696
-0.00280674
0.00326093
-0.00276059
0.00306503
-0.00271475
0.00291561
-0.00258545
0.0028332
-0.00230021
0.00281817
-0.00183923
0.00285528
-0.00122638
0.00292443
-0.000531945
0.0030078
0.000201507
0.00309346
0.000893221
0.00317143
0.00156657
0.00323805
0.00212542
0.00328285
0.00266493
0.00330654
0.00309109
0.00329833
0.00344867
0.00392144
0.00417703
-2.6764e-05
0.00419873
-0.000287041
0.00421045
-0.000576189
0.00420805
-0.000898751
0.00418818
-0.00124089
0.00414899
-0.00158571
0.00409025
-0.0019141
0.00401313
-0.00220675
0.00391981
-0.00244662
0.00381298
-0.00262096
0.00369533
-0.0027225
0.00356892
-0.00274955
0.0034347
-0.00270533
0.00329212
-0.00259727
0.00313898
-0.00243622
0.0029721
-0.00223508
0.00278916
-0.00200656
0.00259128
-0.00176099
0.00238595
-0.00150176
0.00218736
-0.0012245
0.00201433
-0.000915596
0.00188374
-0.000561038
0.00180849
-0.000149147
0.00179281
0.000327449
0.00183699
0.000847961
0.00193506
0.00139991
0.00207939
0.0019555
0.002262
0.00248381
0.00247528
0.00295254
0.00271204
0.0033298
0.00296502
0.00358638
0.00322655
0.00369888
0.00348864
0.00365281
0.00374369
0.00344452
0.00398526
0.00308092
0.00420851
0.00257732
0.0044104
0.00195327
0.00458993
0.00122713
0.00474702
0.000414815
0.00488231
-0.000466391
0.00499123
-0.00137205
0.00506754
-0.00224287
0.00510607
-0.00301199
0.00510659
-0.00363148
0.00507415
-0.00408354
0.00501675
-0.00437656
0.00494257
-0.00453383
0.00485824
-0.00458326
0.00476834
-0.00455127
0.00467569
-0.00446027
0.00458177
-0.00432798
0.00448725
-0.00416758
0.00439203
-0.00398829
0.00429534
-0.00379687
0.00419668
-0.00359766
0.00409615
-0.0033911
0.00399175
-0.0031759
0.00387526
-0.00295971
0.00373347
-0.00276765
0.0035579
-0.00263118
0.00335614
-0.00255883
0.00315418
-0.00251279
0.00298645
-0.00241772
0.00287955
-0.00219332
0.00284144
-0.00180111
0.00286156
-0.00124649
0.00292068
-0.000591062
0.00299895
0.000123233
0.00308254
0.000809632
0.00315948
0.00148963
0.00322505
0.00205984
0.00326802
0.00262196
0.00328904
0.00307007
0.00327642
0.00346129
0.00397729
0.00462432
0.00462154
-0.000284265
0.00461079
-0.000565442
0.00458716
-0.000875115
0.00454743
-0.00120116
0.00448988
-0.00152816
0.00441452
-0.00183874
0.00432287
-0.0021151
0.00421752
-0.00234127
0.00410168
-0.00250512
0.00397863
-0.00259945
0.00385115
-0.00262207
0.00372104
-0.00257522
0.00358858
-0.00246482
0.00345235
-0.00229998
0.00330928
-0.00209201
0.00315558
-0.00185285
0.00298857
-0.00159398
0.00280982
-0.001323
0.00262725
-0.00104193
0.00245573
-0.000744077
0.00231239
-0.000417696
0.0022137
-5.04617e-05
0.00216937
0.000371777
0.00218481
0.000832524
0.00225713
0.0013276
0.00238011
0.00183251
0.00254587
0.00231805
0.0027461
0.00275232
0.0029724
0.00310349
0.0032163
0.00334248
0.0034691
0.00344608
0.00372222
0.00339968
0.00396788
0.00319886
0.00419974
0.00284907
0.00441317
0.00236389
0.00460553
0.00176091
0.00477626
0.00105641
0.00492498
0.00026609
0.00505071
-0.000592119
0.00514709
-0.00146843
0.00520703
-0.00230281
0.00522651
-0.00303147
0.00520754
-0.00361252
0.00515731
-0.0040333
0.00508497
-0.00430423
0.00499898
-0.00444783
0.00490568
-0.00448995
0.00480924
-0.00445483
0.00471207
-0.0043631
0.00461534
-0.00423125
0.00451947
-0.00407171
0.0044243
-0.00389312
0.004329
-0.00370157
0.00423268
-0.00350135
0.00413528
-0.00329369
0.00403597
-0.00307659
0.00392898
-0.00285272
0.00380195
-0.00264063
0.00364298
-0.0024722
0.00345254
-0.0023684
0.0032501
-0.00231035
0.00306838
-0.002236
0.00293829
-0.00206323
0.00287535
-0.00173817
0.00287519
-0.00124634
0.00292112
-0.000636992
0.0029921
5.22548e-05
0.00307257
0.000729158
0.00314814
0.00141406
0.00321276
0.00199522
0.00325428
0.00258045
0.00327322
0.00305112
0.00325766
0.00347685
0.00403372
0.00498096
-0.000257747
0.00494743
-0.000531916
0.00490245
-0.00083013
0.004843
-0.00114171
0.00476758
-0.00145274
0.00467643
-0.00174759
0.00457128
-0.00200994
0.00445499
-0.00222498
0.00433112
-0.00238126
0.00420338
-0.0024717
0.00407506
-0.00249375
0.00394859
-0.00244875
0.003825
-0.00234123
0.00370368
-0.00217866
0.00358231
-0.00197064
0.00345707
-0.00172761
0.0033236
-0.00146051
0.00317931
-0.00117872
0.00302608
-0.000888709
0.0028728
-0.000590791
0.00273412
-0.00027902
0.0026228
6.08631e-05
0.00255862
0.000435956
0.00254842
0.000842717
0.00259461
0.00128141
0.00269382
0.00173331
0.00283926
0.0021726
0.0030225
0.00256908
0.00323437
0.00289162
0.00346545
0.0031114
0.00370629
0.00320524
0.00394787
0.00315811
0.00418226
0.00296447
0.00440317
0.00262817
0.00460618
0.00216087
0.00478898
0.00157811
0.0049511
0.000894288
0.00509164
0.000125547
0.00520693
-0.000707406
0.00528923
-0.00155073
0.00533135
-0.00234494
0.0053312
-0.00303131
0.00529334
-0.00357466
0.00522677
-0.00396673
0.00514136
-0.00421883
0.00504541
-0.00435188
0.00494479
-0.00438933
0.00484317
-0.00435321
0.00474259
-0.00426251
0.00464394
-0.0041326
0.00454744
-0.00397522
0.00445285
-0.00379853
0.00435935
-0.00360807
0.00426583
-0.00340783
0.00417184
-0.00319971
0.00407723
-0.00298198
0.00397842
-0.00275391
0.00386502
-0.00252723
0.00372337
-0.00233056
0.00354783
-0.00219286
0.00335044
-0.00211295
0.00315998
-0.00204554
0.00300949
-0.00191273
0.00292121
-0.00164989
0.00289796
-0.00122309
0.00292728
-0.000666311
0.00298813
-8.58943e-06
0.00306382
0.000653462
0.00313728
0.00134061
0.00320088
0.00193162
0.00324144
0.0025399
0.00325919
0.00303337
0.00324254
0.0034935
0.00408867
0.00525963
-0.000211478
0.00520661
-0.00047889
0.00514319
-0.000766715
0.00506674
-0.00106525
0.00497605
-0.00136206
0.0048716
-0.00164314
0.0047553
-0.00189365
0.00463026
-0.00209993
0.00450026
-0.00225126
0.00436933
-0.00234077
0.00424112
-0.00236554
0.00411849
-0.00232612
0.00400308
-0.00222582
0.00389514
-0.00207073
0.00379321
-0.00186871
0.00369377
-0.00162817
0.00359213
-0.00135887
0.0034838
-0.00107039
0.00336653
-0.000771441
0.00324329
-0.000467551
0.00312448
-0.000160209
0.00301842
0.000166921
0.00294577
0.000508613
0.00291727
0.000871213
0.0029401
0.00125858
0.00301503
0.00165838
0.00313777
0.00204986
0.00330077
0.00240608
0.0034948
0.00269758
0.00370992
0.00289628
0.00393616
0.002979
0.00416419
0.00293008
0.00438596
0.00274269
0.00459521
0.00241892
0.00478767
0.00196841
0.00496116
0.00140462
0.00511451
0.000740935
0.00524701
-6.95464e-06
0.0053497
-0.000810093
0.00541566
-0.0016167
0.0054384
-0.00236768
0.00541842
-0.00301133
0.00536278
-0.00351903
0.0052818
-0.00388574
0.00518545
-0.00412248
0.00508152
-0.00424796
0.00497525
-0.00428306
0.00486982
-0.00424778
0.00476692
-0.00415962
0.00466726
-0.00403294
0.00457087
-0.00387883
0.00447742
-0.00370508
0.00438614
-0.00351678
0.0042958
-0.0033175
0.0042056
-0.0031095
0.00411553
-0.00289191
0.00402382
-0.0026622
0.00392255
-0.00242596
0.00379804
-0.00220605
0.00363992
-0.00203474
0.00345266
-0.00192569
0.00325929
-0.00185218
0.00309253
-0.00174597
0.00297991
-0.00153727
0.00293169
-0.00117486
0.00294095
-0.000675576
0.00298866
-5.63012e-05
0.00305719
0.000584936
0.00312731
0.00127049
0.0031896
0.00186932
0.00322971
0.00249979
0.00324737
0.0030157
0.00323178
0.0035091
0.00413993
0.00544737
-0.000152909
0.00538073
-0.000412249
0.00530392
-0.000689904
0.00521484