/*--------------------------------*- C++ -*----------------------------------*\
  =========                 |
  \\      /  F ield         | OpenFOAM: The Open Source CFD Toolbox
   \\    /   O peration     | Website:  https://openfoam.org
    \\  /    A nd           | Version:  7
     \\/     M anipulation  |
\*---------------------------------------------------------------------------*/
FoamFile
{
    version     2.0;
    format      ascii;
    class       surfaceScalarField;
    location    "15";
    object      phi;
}
// * * * * * * * * * * * * * * * * * * * * * * * * * * * * * * * * * * * * * //

dimensions      [0 3 -1 0 0 0 0];

internalField   nonuniform List<scalar> 
21496
(
-1.14122e-05
1.14122e-05
3.24302e-12
-3.74142e-05
2.60019e-05
7.17381e-12
-7.25222e-05
3.5108e-05
1.10927e-11
-0.000112402
3.98802e-05
1.42845e-11
-0.000153462
4.10597e-05
1.70358e-11
-0.000192646
3.91841e-05
1.93802e-11
-0.000227292
3.46456e-05
2.14104e-11
-0.000255011
2.77191e-05
2.31144e-11
-0.000273601
1.85902e-05
2.45238e-11
-0.000280983
7.38164e-06
2.56119e-11
-0.000275164
-5.81863e-06
2.62638e-11
-0.000254235
-2.0929e-05
2.64166e-11
-0.000216396
-3.78389e-05
2.60077e-11
-0.000160042
-5.63539e-05
2.49215e-11
-8.39115e-05
-7.6131e-05
2.30476e-11
1.26831e-05
-9.65946e-05
2.02953e-11
0.000129537
-0.000116854
1.6562e-11
0.000265152
-0.000135615
1.17803e-11
0.000416039
-0.000150886
5.93579e-12
-0.000159581
-8.79953e-13
0.00057562
-9.95536e-06
2.13676e-05
-3.20737e-05
4.81202e-05
-6.10466e-05
6.4081e-05
-9.26071e-05
7.14408e-05
-0.000123164
7.16166e-05
-0.000149616
6.5636e-05
-0.000169218
5.42478e-05
-0.000179474
3.79747e-05
-0.00017805
1.71661e-05
-0.000162716
-7.95227e-06
-0.00013131
-3.72242e-05
-8.17169e-05
-7.05222e-05
-1.18913e-05
-0.000107664
8.00846e-05
-0.00014833
0.00019588
-0.000191926
0.000336701
-0.000237416
0.000502963
-0.000283116
0.000693802
-0.000326454
0.000906234
-0.000363318
-0.000386996
0.00113365
-7.19196e-06
2.85596e-05
-2.18845e-05
6.28127e-05
-3.90714e-05
8.12679e-05
-5.45966e-05
8.69659e-05
-6.48609e-05
8.18809e-05
-6.66694e-05
6.74444e-05
-5.71183e-05
4.46968e-05
-3.35036e-05
1.436e-05
6.74998e-06
-2.30876e-05
6.61443e-05
-6.73466e-05
0.00014715
-0.00011823
0.000252219
-0.000175591
0.000383797
-0.000239243
0.000544299
-0.000308832
0.000736036
-0.000383663
0.00096106
-0.00046244
0.00122084
-0.000542895
0.00151567
-0.000621288
0.00184358
-0.00069122
-0.000741333
0.00219791
-3.37848e-06
3.1938e-05
-7.69377e-06
6.7128e-05
-8.29231e-06
8.18665e-05
-1.13843e-06
7.9812e-05
1.73955e-05
6.33469e-05
5.06431e-05
3.41969e-05
0.000101729
-6.38914e-06
0.00017363
-5.75411e-05
0.000269241
-0.000118698
0.000391402
-0.000189508
0.000542931
-0.000269759
0.000726646
-0.000359306
0.000945378
-0.000457975
0.00120198
-0.000565439
0.00149934
-0.000681023
0.00184029
-0.000803384
0.00222737
-0.000929979
0.00266228
-0.00105619
0.00314445
-0.00117339
-0.00126446
0.00366758
1.19608e-06
3.0742e-05
9.52179e-06
5.88023e-05
2.92996e-05
6.20887e-05
6.44619e-05
4.46497e-05
0.000118687
9.12207e-06
0.000195467
-4.25834e-05
0.000298166
-0.000109088
0.000430058
-0.000189433
0.000594342
-0.000282982
0.000794162
-0.000389328
0.00103261
-0.000508205
0.00131272
-0.000639415
0.00163748
-0.000782739
0.00200986
-0.00093782
0.00243283
-0.00110399
0.00290942
-0.00127997
0.00344266
-0.00146322
0.00403522
-0.00164875
0.00468811
-0.00182628
-0.00197279
0.00539644
6.28569e-06
2.44563e-05
2.88918e-05
3.61962e-05
7.18618e-05
1.91187e-05
0.000139038
-2.25267e-05
0.000234138
-8.59775e-05
0.000360789
-0.000169234
0.000522537
-0.000270836
0.00072285
-0.000389746
0.0009651
-0.000525233
0.00125254
-0.000676767
0.00158826
-0.000843928
0.00197517
-0.00102632
0.00241594
-0.00122351
0.00291301
-0.00143489
0.00346863
-0.00165961
0.00408495
-0.00189629
0.00476422
-0.00214249
0.00550882
-0.00239336
0.00632088
-0.00263834
-0.00285116
0.00719925
1.17368e-05
1.27195e-05
4.98026e-05
-1.86966e-06
0.000117974
-4.90523e-05
0.000219974
-0.000124527
0.000359481
-0.000225484
0.000540118
-0.000349872
0.000765427
-0.000496145
0.00103881
-0.00066313
0.00136348
-0.000849902
0.00174237
-0.00105566
0.00217808
-0.00127964
0.00267276
-0.00152101
0.00322808
-0.00177882
0.00384511
-0.00205193
0.00452439
-0.00233889
0.00526597
-0.00263788
0.00606976
-0.00294627
0.00693606
-0.00325966
0.00786704
-0.00356932
-0.00385343
0.00886931
1.74973e-05
-4.77777e-06
7.18835e-05
-5.62559e-05
0.00016663
-0.000143799
0.000305177
-0.000263075
0.000490957
-0.000411263
0.000727307
-0.000586223
0.00101738
-0.000786223
0.00136406
-0.0010098
0.00176979
-0.00125563
0.00223654
-0.00152241
0.00276565
-0.00180875
0.00335776
-0.00211311
0.00401272
-0.00243378
0.00472958
-0.00276878
0.00550655
-0.00311586
0.00634111
-0.00347244
0.00723023
-0.00383539
0.00817054
-0.00419996
0.00915921
-0.00455799
-0.00490387
0.0102096
2.35463e-05
-2.83241e-05
9.49039e-05
-0.000127614
0.000216956
-0.000265851
0.000392589
-0.000438707
0.000624605
-0.00064328
0.000915573
-0.000877191
0.00126766
-0.00113831
0.00168247
-0.00142461
0.0021609
-0.00173407
0.00270302
-0.00206453
0.00330797
-0.0024137
0.00397395
-0.00277909
0.00469824
-0.00315808
0.00547737
-0.00354791
0.00630732
-0.00394582
0.00718398
-0.0043491
0.00810382
-0.00475522
0.0090658
-0.00516195
0.0100768
-0.00556894
-0.00598176
0.0111546
2.98567e-05
-5.81808e-05
0.000118477
-0.000216234
0.000267739
-0.000415113
0.000479494
-0.000650462
0.000755345
-0.000919131
0.0010964
-0.00121825
0.00150304
-0.00154495
0.00197472
-0.00189629
0.00250977
-0.00226913
0.00310539
-0.00266014
0.00375751
-0.00306581
0.00446092
-0.00348251
0.00520939
-0.00390655
0.00599584
-0.00433436
0.00681263
-0.0047626
0.00765181
-0.00518829
0.00850551
-0.00560892
0.00936628
-0.00602272
0.0102262
-0.00642888
-0.00682492
0.0110694
3.62943e-05
-9.44751e-05
0.000141894
-0.000321833
0.000317078
-0.000590297
0.00056202
-0.000895404
0.000876407
-0.00123352
0.0012591
-0.00160094
0.00170785
-0.0019937
0.00221913
-0.00240756
0.00278802
-0.00283801
0.00340823
-0.00328035
0.00407226
-0.00372985
0.0047716
-0.00418185
0.00549705
-0.00463199
0.00623908
-0.00507639
0.00698823
-0.00551176
0.00773548
-0.00593553
0.00847247
-0.00634591
0.00919154
-0.00674179
0.00988491
-0.00712225
-0.00748367
0.0105437
4.25901e-05
-0.000137065
0.000164002
-0.000443246
0.000362206
-0.000788501
0.000634972
-0.00116817
0.000979308
-0.00157786
0.00139107
-0.0020127
0.00186471
-0.00246735
0.00239321
-0.00293606
0.00296815
-0.00341295
0.00357993
-0.00389213
0.00421815
-0.00436807
0.00487207
-0.00483577
0.00553109
-0.00529101
0.00618528
-0.00573058
0.00682583
-0.00615231
0.00744545
-0.00655514
0.00803851
-0.00693898
0.00860121
-0.00730449
0.00913136
-0.00765239
-0.00798136
0.00962905
4.83426e-05
-0.000185408
0.000183247
-0.00057815
0.000399663
-0.00100492
0.000692254
-0.00146076
0.0010547
-0.0019403
0.00147933
-0.00243733
0.001957
-0.00294502
0.00247725
-0.00345631
0.00302859
-0.00396429
0.00359904
-0.00446258
0.00417666
-0.00494569
0.00475024
-0.00540934
0.00530984
-0.00585061
0.00584729
-0.00626804
0.00635657
-0.00666159
0.00683387
-0.00703245
0.00727767
-0.00738278
0.00768847
-0.00771528
0.00806855
-0.00803248
-0.00833505
0.00842223
5.30601e-05
-0.000238468
0.000197852
-0.000722942
0.000425718
-0.00123278
0.000727699
-0.00176274
0.00109378
-0.00230638
0.00151264
-0.00285619
0.00197181
-0.00340419
0.00245803
-0.00394253
0.00295787
-0.00446413
0.00345843
-0.00496314
0.00394803
-0.00543529
0.00441686
-0.00587817
0.00485741
-0.00629116
0.00526476
-0.0066754
0.00563659
-0.00703341
0.00597293
-0.00736879
0.00627584
-0.00768569
0.00654894
-0.00798838
0.00679695
-0.00828048
-0.00856387
0.00702577
5.62263e-05
-0.000294694
0.000206064
-0.00087278
0.000436929
-0.00146365
0.000736041
-0.00206185
0.00108974
-0.00266008
0.0014835
-0.00324995
0.00190229
-0.00382298
0.00233128
-0.00437153
0.00275662
-0.00488947
0.00316617
-0.00537268
0.00355014
-0.00581927
0.00390156
-0.00622958
0.00421635
-0.00660596
0.00449325
-0.00695229
0.00473341
-0.00727357
0.00493988
-0.00757525
0.00511699
-0.0078628
0.00526977
-0.00814116
0.00540347
-0.00841419
-0.00868403
0.00552364
5.7371e-05
-0.000352065
0.000206412
-0.00102182
0.000430659
-0.0016879
0.000713752
-0.00234495
0.00103894
-0.00298527
0.00138935
-0.00360036
0.00174869
-0.00418232
0.00210203
-0.00472487
0.00243661
-0.00522406
0.00274251
-0.00567858
0.00301296
-0.00608971
0.0032444
-0.00646103
0.00343627
-0.00679782
0.00359042
-0.00710644
0.00371049
-0.00739365
0.00380125
-0.00766601
0.00386785
-0.00792941
0.0039154
-0.0081887
0.00394853
-0.00844732
-0.00870711
0.0039716
5.61321e-05
-0.000408197
0.000197901
-0.00116359
0.000405455
-0.00189545
0.000659542
-0.00259904
0.0009413
-0.00326702
0.0012328
-0.00389186
0.00151788
-0.0044674
0.00178296
-0.00498994
0.00201763
-0.00545873
0.00221505
-0.00587599
0.00237183
-0.00624649
0.00248771
-0.00657692
0.00256493
-0.00687505
0.00260748
-0.00714899
0.0026203
-0.00740647
0.00260862
-0.00765433
0.00257742
-0.00789821
0.00253106
-0.00814235
0.00247315
-0.00838942
-0.00864078
0.00240683
5.22997e-05
-0.000460497
0.000180145
-0.00129143
0.000361214
-0.00207652
0.00057446
-0.00281228
0.000800204
-0.00349277
0.00102086
-0.00411252
0.00122175
-0.00466829
0.00139176
-0.00515994
0.00152358
-0.00559056
0.00161368
-0.00596609
0.00166181
-0.00629462
0.00167031
-0.00658542
0.00164328
-0.00684801
0.00158571
-0.00709142
0.00150284
-0.00732359
0.00139953
-0.00755102
0.00127998
-0.00777866
0.00114752
-0.00800988
0.00100466
-0.00824656
-0.00848946
0.000853344
4.58399e-05
-0.000506337
0.000153393
-0.00139899
0.00029915
-0.00222228
0.000461641
-0.00297477
0.000621787
-0.00365291
0.000763664
-0.00425439
0.000875163
-0.00477979
0.000948289
-0.00523307
0.000979047
-0.00562132
0.000966949
-0.00595399
0.000914231
-0.00624191
0.000824952
-0.00649614
0.000704101
-0.00672716
0.000556842
-0.00694417
0.000387968
-0.00715472
0.000201567
-0.00736462
8.89693e-07
-0.00757799
-0.000211608
-0.00779738
-0.000434493
-0.00802368
-0.00825697
-0.000666981
3.68952e-05
-0.000543232
0.000118487
-0.00148058
0.000221599
-0.00232539
0.000325822
-0.003079
0.000414029
-0.00374112
0.000473041
-0.00431341
0.000493993
-0.00480074
0.000472244
-0.00521132
0.000406881
-0.00555595
0.000299883
-0.005847
0.000155185
-0.00609721
-2.2281e-05
-0.00631867
-0.000227391
-0.00652205
-0.000455408
-0.00671615
-0.000702314
-0.00690781
-0.000964922
-0.00710201
-0.00124084
-0.00730207
-0.0015284
-0.00750982
-0.0018264
-0.00772568
-0.00794934
-0.00213403
2.57705e-05
-0.000569003
7.6761e-05
-0.00153157
0.000131726
-0.00238035
0.000172742
-0.00312001
0.00018582
-0.0037542
0.00016124
-0.00428883
9.36767e-05
-0.00473318
-1.82955e-05
-0.00509935
-0.000173026
-0.00540122
-0.000366724
-0.0056533
-0.000594507
-0.00586942
-0.000851251
-0.00606193
-0.00113221
-0.00624109
-0.00143341
-0.00641495
-0.00175175
-0.00658947
-0.00208497
-0.00676879
-0.00243146
-0.00695558
-0.00278999
-0.00715129
-0.00315947
-0.00735621
-0.00756976
-0.00353904
1.2958e-05
-0.000581961
2.99055e-05
-0.00154852
3.32218e-05
-0.00238367
8.71342e-06
-0.0030955
-5.38007e-05
-0.00369168
-0.000160034
-0.00418259
-0.00031181
-0.0045814
-0.00050774
-0.00490342
-0.000744162
-0.0051648
-0.00101619
-0.00538127
-0.0013186
-0.00556701
-0.00164652
-0.00573401
-0.00199587
-0.00589174
-0.00236354
-0.00604728
-0.00274735
-0.00620566
-0.00314591
-0.00637023
-0.00355835
-0.00654315
-0.00398386
-0.00672578
-0.0044212
-0.00691887
-0.00712223
-0.00486873
-1.33955e-06
-0.000580621
-2.03248e-05
-0.00152953
-7.01719e-05
-0.00233382
-0.000160362
-0.00300531
-0.000296427
-0.00355562
-0.000480208
-0.00399881
-0.000710299
-0.00435131
-0.000982971
-0.00463075
-0.00129317
-0.0048546
-0.00163543
-0.005039
-0.00200462
-0.00519783
-0.00239638
-0.00534225
-0.00280738
-0.00548073
-0.00323534
-0.00561932
-0.00367889
-0.00576212
-0.00413737
-0.00591174
-0.00461066
-0.00606986
-0.00509862
-0.00623781
-0.00559985
-0.00641764
-0.00660857
-0.00611351
-1.59886e-05
-0.000564632
-7.18076e-05
-0.00147371
-0.000174538
-0.00223109
-0.000328357
-0.00285149
-0.000534182
-0.00334979
-0.000789991
-0.003743
-0.00109156
-0.00404974
-0.00143337
-0.00428894
-0.00180949
-0.00447848
-0.00221434
-0.00463416
-0.00264315
-0.00476902
-0.00309224
-0.00489316
-0.00355903
-0.00501394
-0.00404198
-0.00513638
-0.00454033
-0.00526376
-0.00505399
-0.00539809
-0.0055834
-0.00554044
-0.00612986
-0.00569135
-0.00669465
-0.00585285
-0.00603352
-0.00726971
-3.08949e-05
-0.000533737
-0.000122765
-0.00138184
-0.00027631
-0.00207755
-0.000490072
-0.00263773
-0.000760327
-0.00307954
-0.00108154
-0.00342179
-0.00144713
-0.00368415
-0.00185027
-0.0038858
-0.00228459
-0.00404416
-0.00274468
-0.00417406
-0.00322638
-0.00428733
-0.00372676
-0.00439278
-0.0042441
-0.0044966
-0.00477767
-0.00460281
-0.00532757
-0.00471386
-0.00589459
-0.00483106
-0.00647996
-0.00495508
-0.00708478
-0.00508652
-0.00771191
-0.00522573
-0.00536828
-0.00837715
-4.52909e-05
-0.000488447
-0.000171372
-0.00125576
-0.000372242
-0.00187668
-0.000640848
-0.00236913
-0.000969095
-0.00275129
-0.00134834
-0.00304254
-0.00177009
-0.00326241
-0.00222658
-0.00342931
-0.00271128
-0.00355947
-0.00321906
-0.00366628
-0.00374627
-0.00376011
-0.0042906
-0.00384846
-0.00485079
-0.0039364
-0.00542646
-0.00402714
-0.00601782
-0.0041225
-0.00662542
-0.00422346
-0.00725001
-0.00433049
-0.00789282
-0.00444371
-0.00855606
-0.00456249
-0.0046858
-0.00923854
-5.86733e-05
-0.000429773
-0.000216036
-0.0010984
-0.000459524
-0.00163319
-0.000776799
-0.00205185
-0.00115582
-0.00237227
-0.00158531
-0.00261305
-0.00205528
-0.00279244
-0.00255737
-0.00292722
-0.00308506
-0.00303177
-0.00363363
-0.00311771
-0.00419996
-0.00319378
-0.00478225
-0.00326617
-0.00537972
-0.00333893
-0.00599231
-0.00341455
-0.00662038
-0.00349443
-0.00726458
-0.00357927
-0.00792567
-0.0036694
-0.00860454
-0.00376484
-0.00930183
-0.0038652
-0.00397027
-0.0100174
-7.05748e-05
-0.000359198
-0.000255375
-0.000913597
-0.000535777
-0.00135279
-0.000894702
-0.00169293
-0.00131671
-0.00195027
-0.00178836
-0.00214139
-0.00229854
-0.00228226
-0.00283854
-0.00238722
-0.00340197
-0.00246834
-0.00398452
-0.00253516
-0.00458357
-0.00259474
-0.00519778
-0.00265196
-0.00582675
-0.00270995
-0.00647071
-0.0027706
-0.00713021
-0.00283493
-0.00780603
-0.00290344
-0.00849905
-0.00297638
-0.00921014
-0.00305375
-0.00994004
-0.00313529
-0.00322103
-0.0106893
-8.05933e-05
-0.000278605
-0.000288235
-0.000705956
-0.000599057
-0.00104197
-0.000991978
-0.0013
-0.00144878
-0.00149347
-0.00195433
-0.00163584
-0.0024967
-0.00173989
-0.00306699
-0.00181692
-0.00365902
-0.00187631
-0.00426884
-0.00192534
-0.00489424
-0.00196934
-0.00553429
-0.00201191
-0.0061889
-0.00205534
-0.00685852
-0.00210098
-0.00754391
-0.00214954
-0.00824596
-0.00220139
-0.00896567
-0.00225667
-0.00970402
-0.0023154
-0.0104619
-0.00237739
-0.00244272
-0.0112402
-8.84001e-05
-0.000190205
-0.000313687
-0.000480669
-0.000647832
-0.000707822
-0.00106663
-0.000881207
-0.00154974
-0.00101036
-0.00208081
-0.00110477
-0.00264734
-0.00117336
-0.00324035
-0.00122391
-0.00385385
-0.00126282
-0.00448418
-0.00129501
-0.00512949
-0.00132403
-0.00578913
-0.00135227
-0.00646326
-0.00138121
-0.00715251
-0.00141173
-0.00785776
-0.00144428
-0.00858006
-0.00147909
-0.00932048
-0.00151625
-0.0100801
-0.00155577
-0.01086
-0.00159752
-0.00164156
-0.0116611
-9.37451e-05
-9.64599e-05
-0.000331041
-0.000243373
-0.00068097
-0.000357892
-0.00111719
-0.000444985
-0.00161795
-0.000509604
-0.00216606
-0.000556656
-0.00274871
-0.000590711
-0.00335688
-0.000615743
-0.0039847
-0.000634995
-0.00462876
-0.000650945
-0.00528743
-0.000665367
-0.00596025
-0.000679447
-0.00664754
-0.000693922
-0.00735006
-0.000709215
-0.00806879
-0.000725547
-0.00880486
-0.000743028
-0.0095594
-0.000761706
-0.0103336
-0.000781577
-0.0111285
-0.000802579
-0.000824755
-0.0119453
-9.64599e-05
1.61098e-12
-0.000339833
4.22231e-12
-0.000697725
7.0209e-12
-0.00114271
9.36017e-12
-0.00165231
1.14545e-11
-0.00220897
1.30457e-11
-0.00279968
1.40923e-11
-0.00341542
1.4738e-11
-0.00405042
1.50877e-11
-0.00470136
1.52219e-11
-0.00536673
1.52498e-11
-0.00604618
1.51971e-11
-0.0067401
1.50847e-11
-0.00744931
1.49439e-11
-0.00817486
1.47965e-11
-0.00891789
1.46524e-11
-0.0096796
1.45031e-11
-0.0104612
1.43429e-11
-0.0112638
1.41792e-11
1.40176e-11
-0.0120885
-9.64599e-05
9.64599e-05
-0.000339833
0.000243373
-0.000697725
0.000357892
-0.00114271
0.000444985
-0.00165231
0.000509604
-0.00220897
0.000556656
-0.00279968
0.000590711
-0.00341542
0.000615743
-0.00405042
0.000634995
-0.00470136
0.000650945
-0.00536673
0.000665367
-0.00604618
0.000679447
-0.0067401
0.000693922
-0.00744931
0.000709215
-0.00817486
0.000725548
-0.00891789
0.000743028
-0.0096796
0.000761706
-0.0104612
0.000781577
-0.0112638
0.000802579
0.000824755
-0.0120885
-9.37451e-05
0.000190205
-0.000331041
0.000480669
-0.00068097
0.000707822
-0.00111719
0.000881207
-0.00161795
0.00101036
-0.00216606
0.00110477
-0.00274871
0.00117336
-0.00335688
0.00122391
-0.0039847
0.00126282
-0.00462876
0.00129501
-0.00528743
0.00132403
-0.00596025
0.00135227
-0.00664754
0.00138121
-0.00735006
0.00141173
-0.00806879
0.00144428
-0.00880486
0.00147909
-0.0095594
0.00151625
-0.0103336
0.00155577
-0.0111285
0.00159752
0.00164156
-0.0119453
-8.84001e-05
0.000278605
-0.000313687
0.000705956
-0.000647832
0.00104197
-0.00106663
0.0013
-0.00154974
0.00149347
-0.00208081
0.00163584
-0.00264734
0.00173989
-0.00324035
0.00181692
-0.00385385
0.00187631
-0.00448418
0.00192534
-0.00512949
0.00196934
-0.00578913
0.00201191
-0.00646326
0.00205534
-0.00715251
0.00210098
-0.00785776
0.00214954
-0.00858006
0.00220139
-0.00932048
0.00225667
-0.0100801
0.0023154
-0.01086
0.00237739
0.00244272
-0.0116611
-8.05933e-05
0.000359198
-0.000288235
0.000913597
-0.000599057
0.00135279
-0.000991978
0.00169293
-0.00144878
0.00195027
-0.00195433
0.00214139
-0.0024967
0.00228226
-0.00306699
0.00238722
-0.00365902
0.00246834
-0.00426884
0.00253516
-0.00489424
0.00259474
-0.00553429
0.00265196
-0.0061889
0.00270995
-0.00685852
0.0027706
-0.00754391
0.00283493
-0.00824596
0.00290344
-0.00896567
0.00297638
-0.00970402
0.00305375
-0.0104619
0.00313529
0.00322103
-0.0112402
-7.05748e-05
0.000429773
-0.000255375
0.0010984
-0.000535777
0.00163319
-0.000894702
0.00205185
-0.00131671
0.00237227
-0.00178836
0.00261305
-0.00229854
0.00279244
-0.00283854
0.00292722
-0.00340197
0.00303177
-0.00398452
0.00311771
-0.00458357
0.00319378
-0.00519778
0.00326617
-0.00582675
0.00333893
-0.00647071
0.00341455
-0.00713021
0.00349443
-0.00780603
0.00357927
-0.00849905
0.0036694
-0.00921014
0.00376484
-0.00994004
0.0038652
0.00397027
-0.0106893
-5.86733e-05
0.000488447
-0.000216036
0.00125576
-0.000459524
0.00187668
-0.000776799
0.00236913
-0.00115582
0.00275129
-0.00158531
0.00304254
-0.00205528
0.00326241
-0.00255737
0.00342931
-0.00308506
0.00355947
-0.00363363
0.00366628
-0.00419996
0.00376011
-0.00478225
0.00384846
-0.00537972
0.0039364
-0.00599231
0.00402714
-0.00662038
0.0041225
-0.00726458
0.00422346
-0.00792567
0.00433049
-0.00860454
0.00444371
-0.00930183
0.00456249
0.0046858
-0.0100174
-4.52909e-05
0.000533737
-0.000171372
0.00138184
-0.000372242
0.00207755
-0.000640848
0.00263773
-0.000969095
0.00307954
-0.00134834
0.00342179
-0.00177009
0.00368415
-0.00222658
0.0038858
-0.00271128
0.00404416
-0.00321906
0.00417406
-0.00374627
0.00428733
-0.0042906
0.00439278
-0.00485079
0.0044966
-0.00542646
0.00460281
-0.00601782
0.00471386
-0.00662542
0.00483106
-0.00725001
0.00495508
-0.00789282
0.00508652
-0.00855606
0.00522573
0.00536828
-0.00923854
-3.08949e-05
0.000564632
-0.000122765
0.00147371
-0.00027631
0.00223109
-0.000490072
0.00285149
-0.000760327
0.00334979
-0.00108154
0.003743
-0.00144713
0.00404974
-0.00185027
0.00428894
-0.00228459
0.00447848
-0.00274468
0.00463416
-0.00322638
0.00476902
-0.00372676
0.00489316
-0.0042441
0.00501394
-0.00477767
0.00513638
-0.00532757
0.00526376
-0.00589459
0.00539809
-0.00647996
0.00554044
-0.00708478
0.00569135
-0.00771191
0.00585285
0.00603352
-0.00837715
-1.59886e-05
0.000580621
-7.18076e-05
0.00152953
-0.000174538
0.00233382
-0.000328357
0.00300531
-0.000534182
0.00355562
-0.000789991
0.00399881
-0.00109156
0.00435131
-0.00143337
0.00463075
-0.00180949
0.0048546
-0.00221434
0.005039
-0.00264315
0.00519783
-0.00309224
0.00534225
-0.00355903
0.00548073
-0.00404198
0.00561932
-0.00454033
0.00576212
-0.00505399
0.00591174
-0.0055834
0.00606986
-0.00612986
0.00623781
-0.00669465
0.00641764
0.00660857
-0.00726971
-1.33955e-06
0.000581961
-2.03249e-05
0.00154852
-7.01719e-05
0.00238367
-0.000160362
0.0030955
-0.000296427
0.00369168
-0.000480208
0.00418259
-0.000710299
0.0045814
-0.000982971
0.00490342
-0.00129317
0.0051648
-0.00163543
0.00538127
-0.00200462
0.00556701
-0.00239638
0.00573401
-0.00280738
0.00589174
-0.00323534
0.00604728
-0.00367889
0.00620566
-0.00413737
0.00637023
-0.00461066
0.00654315
-0.00509862
0.00672578
-0.00559985
0.00691887
0.00712223
-0.00611351
1.2958e-05
0.000569003
2.99055e-05
0.00153157
3.32218e-05
0.00238035
8.71341e-06
0.00312001
-5.38007e-05
0.0037542
-0.000160034
0.00428883
-0.00031181
0.00473318
-0.00050774
0.00509935
-0.000744162
0.00540122
-0.00101619
0.0056533
-0.0013186
0.00586942
-0.00164652
0.00606193
-0.00199587
0.00624109
-0.00236354
0.00641495
-0.00274735
0.00658947
-0.00314591
0.00676879
-0.00355835
0.00695558
-0.00398386
0.00715129
-0.0044212
0.00735621
0.00756976
-0.00486873
2.57705e-05
0.000543232
7.6761e-05
0.00148058
0.000131726
0.00232539
0.000172742
0.003079
0.00018582
0.00374112
0.00016124
0.00431341
9.36767e-05
0.00480074
-1.82955e-05
0.00521132
-0.000173026
0.00555595
-0.000366724
0.005847
-0.000594507
0.00609721
-0.000851251
0.00631867
-0.00113221
0.00652205
-0.00143341
0.00671615
-0.00175175
0.00690781
-0.00208497
0.00710201
-0.00243146
0.00730207
-0.00278999
0.00750982
-0.00315947
0.00772568
0.00794934
-0.00353904
3.68952e-05
0.000506337
0.000118487
0.00139899
0.000221599
0.00222228
0.000325822
0.00297477
0.000414029
0.00365291
0.000473041
0.00425439
0.000493993
0.00477979
0.000472244
0.00523307
0.000406881
0.00562132
0.000299883
0.00595399
0.000155185
0.00624191
-2.2281e-05
0.00649614
-0.000227391
0.00672716
-0.000455408
0.00694417
-0.000702314
0.00715472
-0.000964922
0.00736462
-0.00124084
0.00757799
-0.0015284
0.00779738
-0.0018264
0.00802368
0.00825697
-0.00213403
4.58399e-05
0.000460497
0.000153393
0.00129143
0.00029915
0.00207652
0.000461641
0.00281228
0.000621787
0.00349277
0.000763664
0.00411252
0.000875163
0.00466829
0.000948289
0.00515994
0.000979047
0.00559056
0.000966949
0.00596609
0.000914231
0.00629462
0.000824952
0.00658542
0.000704101
0.00684801
0.000556842
0.00709142
0.000387968
0.00732359
0.000201567
0.00755102
8.8968e-07
0.00777866
-0.000211608
0.00800988
-0.000434493
0.00824656
0.00848946
-0.000666981
5.22997e-05
0.000408197
0.000180145
0.00116359
0.000361214
0.00189545
0.00057446
0.00259904
0.000800204
0.00326702
0.00102086
0.00389186
0.00122175
0.0044674
0.00139176
0.00498994
0.00152358
0.00545873
0.00161368
0.00587599
0.00166181
0.00624649
0.00167031
0.00657692
0.00164328
0.00687505
0.00158571
0.00714899
0.00150284
0.00740647
0.00139953
0.00765433
0.00127998
0.00789821
0.00114752
0.00814235
0.00100466
0.00838942
0.00864078
0.000853344
5.61321e-05
0.000352065
0.000197901
0.00102182
0.000405455
0.0016879
0.000659542
0.00234495
0.0009413
0.00298527
0.0012328
0.00360036
0.00151788
0.00418232
0.00178296
0.00472487
0.00201763
0.00522406
0.00221505
0.00567858
0.00237183
0.00608972
0.00248771
0.00646103
0.00256493
0.00679782
0.00260748
0.00710644
0.0026203
0.00739365
0.00260862
0.00766601
0.00257742
0.00792941
0.00253106
0.0081887
0.00247315
0.00844732
0.00870711
0.00240683
5.7371e-05
0.000294694
0.000206412
0.00087278
0.000430659
0.00146365
0.000713752
0.00206185
0.00103894
0.00266008
0.00138935
0.00324995
0.00174869
0.00382298
0.00210203
0.00437153
0.00243661
0.00488947
0.00274251
0.00537268
0.00301296
0.00581927
0.0032444
0.00622958
0.00343627
0.00660596
0.00359042
0.00695229
0.00371049
0.00727357
0.00380125
0.00757525
0.00386785
0.0078628
0.0039154
0.00814116
0.00394853
0.00841419
0.00868403
0.0039716
5.62263e-05
0.000238468
0.000206064
0.000722942
0.000436929
0.00123278
0.000736041
0.00176274
0.00108974
0.00230638
0.0014835
0.00285619
0.00190229
0.00340419
0.00233128
0.00394253
0.00275662
0.00446413
0.00316617
0.00496314
0.00355014
0.00543529
0.00390156
0.00587817
0.00421635
0.00629116
0.00449325
0.0066754
0.00473341
0.00703341
0.00493988
0.00736879
0.00511699
0.00768569
0.00526977
0.00798838
0.00540347
0.00828048
0.00856387
0.00552364
5.30601e-05
0.000185408
0.000197852
0.00057815
0.000425718
0.00100492
0.000727699
0.00146076
0.00109378
0.0019403
0.00151264
0.00243733
0.00197181
0.00294502
0.00245803
0.00345631
0.00295787
0.00396429
0.00345843
0.00446258
0.00394803
0.00494569
0.00441686
0.00540934
0.00485741
0.00585061
0.00526476
0.00626804
0.00563659
0.00666159
0.00597293
0.00703245
0.00627584
0.00738278
0.00654894
0.00771528
0.00679695
0.00803248
0.00833505
0.00702577
4.83426e-05
0.000137065
0.000183247
0.000443246
0.000399663
0.000788501
0.000692254
0.00116817
0.0010547
0.00157786
0.00147933
0.0020127
0.001957
0.00246735
0.00247725
0.00293606
0.00302859
0.00341295
0.00359904
0.00389213
0.00417666
0.00436807
0.00475024
0.00483577
0.00530984
0.00529101
0.00584729
0.00573058
0.00635657
0.00615231
0.00683387
0.00655514
0.00727767
0.00693898
0.00768847
0.00730449
0.00806855
0.00765239
0.00798136
0.00842223
4.25901e-05
9.44751e-05
0.000164002
0.000321833
0.000362206
0.000590297
0.000634972
0.000895404
0.000979308
0.00123352
0.00139107
0.00160094
0.00186471
0.0019937
0.00239321
0.00240756
0.00296815
0.00283801
0.00357993
0.00328035
0.00421815
0.00372985
0.00487207
0.00418185
0.00553109
0.00463199
0.00618528
0.00507639
0.00682583
0.00551176
0.00744545
0.00593553
0.00803851
0.00634591
0.00860121
0.00674179
0.00913136
0.00712225
0.00748367
0.00962905
3.62943e-05
5.81808e-05
0.000141894
0.000216234
0.000317078
0.000415113
0.00056202
0.000650462
0.000876407
0.000919131
0.0012591
0.00121825
0.00170785
0.00154495
0.00221913
0.00189629
0.00278802
0.00226913
0.00340823
0.00266014
0.00407226
0.00306581
0.0047716
0.00348251
0.00549705
0.00390655
0.00623908
0.00433436
0.00698823
0.0047626
0.00773548
0.00518829
0.00847247
0.00560892
0.00919154
0.00602272
0.00988491
0.00642888
0.00682492
0.0105437
2.98567e-05
2.83241e-05
0.000118477
0.000127614
0.000267739
0.000265851
0.000479494
0.000438707
0.000755345
0.00064328
0.0010964
0.000877191
0.00150304
0.00113831
0.00197472
0.00142461
0.00250977
0.00173407
0.00310539
0.00206453
0.00375751
0.0024137
0.00446092
0.00277909
0.00520939
0.00315808
0.00599584
0.00354791
0.00681263
0.00394582
0.00765181
0.0043491
0.00850551
0.00475522
0.00936628
0.00516195
0.0102262
0.00556894
0.00598176
0.0110694
2.35463e-05
4.77777e-06
9.49039e-05
5.62559e-05
0.000216956
0.000143799
0.000392589
0.000263075
0.000624605
0.000411263
0.000915573
0.000586223
0.00126766
0.000786223
0.00168247
0.0010098
0.0021609
0.00125563
0.00270302
0.00152241
0.00330797
0.00180875
0.00397395
0.00211311
0.00469824
0.00243378
0.00547737
0.00276878
0.00630732
0.00311586
0.00718398
0.00347244
0.00810382
0.00383539
0.0090658
0.00419996
0.0100768
0.00455799
0.00490387
0.0111546
1.74973e-05
-1.27195e-05
7.18835e-05
1.86967e-06
0.00016663
4.90523e-05
0.000305177
0.000124527
0.000490957
0.000225484
0.000727307
0.000349872
0.00101739
0.000496145
0.00136406
0.00066313
0.00176979
0.000849902
0.00223654
0.00105566
0.00276565
0.00127964
0.00335776
0.00152101
0.00401272
0.00177882
0.00472958
0.00205193
0.00550655
0.00233889
0.00634111
0.00263788
0.00723023
0.00294627
0.00817054
0.00325966
0.00915921
0.00356932
0.00385343
0.0102096
1.17368e-05
-2.44563e-05
4.98026e-05
-3.61962e-05
0.000117974
-1.91186e-05
0.000219974
2.25267e-05
0.000359481
8.59775e-05
0.000540118
0.000169234
0.000765427
0.000270836
0.00103881
0.000389746
0.00136348
0.000525233
0.00174237
0.000676767
0.00217808
0.000843928
0.00267276
0.00102632
0.00322808
0.00122351
0.00384511
0.00143489
0.00452439
0.00165961
0.00526597
0.00189629
0.00606976
0.00214249
0.00693606
0.00239336
0.00786704
0.00263834
0.00285116
0.00886931
6.28569e-06
-3.0742e-05
2.88918e-05
-5.88023e-05
7.18618e-05
-6.20887e-05
0.000139038
-4.46497e-05
0.000234138
-9.12207e-06
0.000360789
4.25834e-05
0.000522537
0.000109088
0.00072285
0.000189433
0.0009651
0.000282982
0.00125254
0.000389328
0.00158826
0.000508205
0.00197517
0.000639415
0.00241594
0.000782739
0.00291301
0.00093782
0.00346863
0.00110399
0.00408496
0.00127997
0.00476422
0.00146322
0.00550882
0.00164875
0.00632088
0.00182628
0.00197279
0.00719925
1.19608e-06
-3.1938e-05
9.5218e-06
-6.7128e-05
2.92996e-05
-8.18665e-05
6.4462e-05
-7.9812e-05
0.000118687
-6.33469e-05
0.000195467
-3.41969e-05
0.000298166
6.38912e-06
0.000430058
5.75411e-05
0.000594342
0.000118698
0.000794162
0.000189508
0.00103261
0.000269759
0.00131272
0.000359306
0.00163748
0.000457975
0.00200986
0.000565439
0.00243283
0.000681023
0.00290942
0.000803384
0.00344266
0.000929979
0.00403522
0.00105619
0.00468811
0.00117339
0.00126446
0.00539644
-3.37848e-06
-2.85596e-05
-7.69376e-06
-6.28127e-05
-8.2923e-06
-8.12679e-05
-1.13842e-06
-8.69659e-05
1.73956e-05
-8.18809e-05
5.06431e-05
-6.74445e-05
0.000101729
-4.46968e-05
0.00017363
-1.436e-05
0.000269241
2.30875e-05
0.000391402
6.73466e-05
0.000542931
0.00011823
0.000726646
0.000175591
0.000945378
0.000239243
0.00120199
0.000308832
0.00149935
0.000383663
0.00184029
0.00046244
0.00222737
0.000542895
0.00266228
0.000621288
0.00314445
0.000691221
0.000741333
0.00366758
-7.19195e-06
-2.13676e-05
-2.18845e-05
-4.81202e-05
-3.90714e-05
-6.4081e-05
-5.45966e-05
-7.14408e-05
-6.48609e-05
-7.16166e-05
-6.66693e-05
-6.5636e-05
-5.71183e-05
-5.42478e-05
-3.35036e-05
-3.79747e-05
6.75003e-06
-1.71661e-05
6.61444e-05
7.95222e-06
0.00014715
3.72242e-05
0.000252219
7.05222e-05
0.000383798
0.000107664
0.000544299
0.00014833
0.000736036
0.000191926
0.00096106
0.000237416
0.00122084
0.000283116
0.00151567
0.000326454
0.00184358
0.000363318
0.000386996
0.00219791
-9.95536e-06
-1.14122e-05
-3.20737e-05
-2.60019e-05
-6.10466e-05
-3.51081e-05