/*--------------------------------*- C++ -*----------------------------------*\
  =========                 |
  \\      /  F ield         | OpenFOAM: The Open Source CFD Toolbox
   \\    /   O peration     | Website:  https://openfoam.org
    \\  /    A nd           | Version:  7
     \\/     M anipulation  |
\*---------------------------------------------------------------------------*/
FoamFile
{
    version     2.0;
    format      ascii;
    class       volVectorField;
    location    "15";
    object      U;
}
// * * * * * * * * * * * * * * * * * * * * * * * * * * * * * * * * * * * * * //

dimensions      [0 1 -1 0 0 0 0];

internalField   nonuniform List<vector> 
10880
(
(-0.00106425 0.00164734 -5.80183e-20)
(-0.00433962 0.00354288 2.40553e-21)
(-0.00956057 0.00444579 -6.79581e-20)
(-0.0153227 0.00466423 -3.85227e-20)
(-0.0207521 0.00440297 2.42216e-20)
(-0.0254122 0.00380127 -4.15304e-21)
(-0.0290339 0.00295955 2.69649e-20)
(-0.0314421 0.00195055 -5.23908e-21)
(-0.0325353 0.000826674 -4.4799e-20)
(-0.0322637 -0.000373754 1.19061e-19)
(-0.0306129 -0.00162131 1.55621e-20)
(-0.0275939 -0.00289106 -2.63451e-20)
(-0.0232391 -0.00415832 -5.32961e-20)
(-0.0176028 -0.00539448 5.50081e-21)
(-0.0107667 -0.00656261 5.15614e-20)
(-0.00285137 -0.00761329 -4.51322e-20)
(0.00597276 -0.00848251 6.78401e-20)
(0.0154893 -0.00908953 -5.24667e-20)
(0.0254191 -0.00932078 -5.60064e-20)
(0.0351908 -0.00902027 6.76396e-20)
(-0.00157817 0.00469691 -1.19874e-19)
(-0.00514461 0.0100563 1.47219e-19)
(-0.00990036 0.0125722 2.46534e-20)
(-0.0146711 0.0131248 9.35062e-20)
(-0.018729 0.0123008 1.01512e-19)
(-0.0217215 0.0105024 -2.08559e-19)
(-0.023439 0.00801987 -5.86281e-20)
(-0.0237515 0.00506354 4.96452e-20)
(-0.0225904 0.001785 -2.17905e-19)
(-0.0199306 -0.00170511 8.98323e-21)
(-0.0157764 -0.00532235 2.24539e-19)
(-0.0101534 -0.00899566 -2.93802e-20)
(-0.00310536 -0.0126556 -4.38436e-20)
(0.00530494 -0.0162219 -1.16268e-21)
(0.0149891 -0.0195903 4.87812e-20)
(0.0258175 -0.0226193 1.27763e-19)
(0.0376041 -0.0251204 4.4437e-20)
(0.0501479 -0.0268423 -2.22933e-21)
(0.0632724 -0.0274104 -2.3498e-19)
(0.0761513 -0.0263481 -1.57413e-19)
(-0.00245102 0.00705107 -6.38848e-20)
(-0.00639496 0.0149402 7.15133e-20)
(-0.0101086 0.0185161 -8.64587e-20)
(-0.0128419 0.0191066 -1.834e-19)
(-0.0141384 0.0176047 1.74891e-19)
(-0.0138034 0.0146302 1.94958e-19)
(-0.01174 0.0106323 6.5866e-20)
(-0.00790394 0.00593672 -9.73992e-20)
(-0.00229068 0.00077796 -1.01598e-20)
(0.00507632 -0.00467309 1.3448e-19)
(0.014155 -0.0102871 -1.19794e-19)
(0.0248894 -0.0159574 9.49158e-20)
(0.0372102 -0.0215821 -3.85905e-20)
(0.0510337 -0.0270452 3.44169e-19)
(0.0662542 -0.0321938 -5.05052e-19)
(0.0827197 -0.0368156 -1.29496e-19)
(0.100208 -0.0406149 4.65099e-19)
(0.118529 -0.0431534 -4.19522e-19)
(0.137697 -0.0437006 -3.74844e-21)
(0.156476 -0.0414052 -7.85985e-20)
(-0.00339925 0.0083694 3.79892e-20)
(-0.00742226 0.017382 3.62694e-19)
(-0.00929641 0.0211786 -4.13765e-19)
(-0.00882956 0.021358 1.02538e-19)
(-0.00592715 0.0190078 -1.29245e-20)
(-0.00060797 0.0148989 3.99881e-20)
(0.00706936 0.00959293 2.45276e-19)
(0.0170293 0.00349656 -2.81364e-19)
(0.0291846 -0.00309668 -7.78935e-21)
(0.0434403 -0.00997344 -4.81603e-19)
(0.0596957 -0.0169741 -5.31744e-20)
(0.0778445 -0.0239706 6.36169e-20)
(0.097773 -0.0308454 2.56409e-19)
(0.119357 -0.0374676 -1.43408e-19)
(0.142455 -0.0436656 4.42451e-19)
(0.166872 -0.049194 -6.35607e-19)
(0.192323 -0.0536914 7.64538e-19)
(0.218589 -0.0565424 -5.28862e-19)
(0.245927 -0.056538 3.31233e-19)
(0.272715 -0.0522995 1.69825e-19)
(-0.00405425 0.00846462 1.24429e-19)
(-0.00733599 0.0169214 4.78621e-20)
(-0.00625312 0.0199345 2.57795e-19)
(-0.00123826 0.0191753 -1.49532e-19)
(0.0073904 0.0157971 -6.89049e-20)
(0.019365 0.010643 5.76709e-19)
(0.034441 0.00432994 -9.09511e-19)
(0.0523959 -0.00269569 7.32014e-19)
(0.0730251 -0.0101117 3.35763e-19)
(0.0961373 -0.0176846 -7.13704e-19)
(0.121548 -0.0252415 1.83723e-19)
(0.149075 -0.032648 7.39562e-20)
(0.178533 -0.0397873 8.12762e-19)
(0.209727 -0.0465366 -8.84613e-19)
(0.242449 -0.0527378 -2.62096e-19)
(0.276433 -0.0581626 6.81054e-19)
(0.311299 -0.0624568 -5.66341e-19)
(0.346738 -0.0649028 3.86416e-19)
(0.383232 -0.0637459 3.35816e-19)
(0.418996 -0.056815 -1.14682e-18)
(-0.00400856 0.00731344 -3.93327e-19)
(-0.0051232 0.0134943 1.24787e-19)
(0.000431697 0.0147146 -1.75325e-19)
(0.0115889 0.0125237 4.48429e-22)
(0.0276017 0.00800928 4.77702e-19)
(0.0479352 0.0020033 -9.30496e-19)
(0.0721387 -0.0048833 8.33667e-19)
(0.0998181 -0.0122116 -7.49948e-19)
(0.130625 -0.0196662 7.68542e-19)
(0.164243 -0.0270192 -6.74143e-19)
(0.20037 -0.034105 3.7216e-19)
(0.238712 -0.0407994 -9.0555e-19)
(0.278973 -0.0470025 1.13359e-18)
(0.320846 -0.0526187 9.33802e-20)
(0.364014 -0.0575321 -2.88305e-19)
(0.408107 -0.0615795 -5.6066e-19)
(0.452619 -0.0645029 -3.1296e-20)
(0.497093 -0.0656325 6.24867e-19)
(0.54216 -0.0627534 3.091e-19)
(0.586259 -0.0526571 -6.6847e-19)
(-0.00285309 0.0050408 -1.28173e-19)
(0.000256991 0.00742254 -5.63727e-20)
(0.0122339 0.00601992 -8.74789e-20)
(0.0314034 0.00208294 4.63758e-20)
(0.0565998 -0.00349187 -6.34466e-19)
(0.0870139 -0.00996653 1.21596e-18)
(0.121972 -0.0168 -1.42056e-20)
(0.160883 -0.023612 -4.39023e-20)
(0.203223 -0.0301339 -4.36673e-19)
(0.24851 -0.0361765 -8.31798e-20)
(0.296285 -0.0416077 -1.30814e-19)
(0.346093 -0.0463359 -7.38207e-19)
(0.397478 -0.050296 6.98648e-19)
(0.449976 -0.0534354 -6.0849e-19)
(0.503108 -0.0556968 3.64449e-19)
(0.556357 -0.0570072 -3.18406e-19)
(0.609081 -0.0572603 5.84428e-19)
(0.660665 -0.0559725 -4.3376e-19)
(0.711781 -0.0507444 1.551e-19)
(0.761615 -0.0376058 7.93206e-19)
(-0.000199373 0.00189125 1.51094e-19)
(0.00979407 -0.000634713 -1.45983e-20)
(0.0305518 -0.00512236 -2.50816e-19)
(0.0598452 -0.0107846 3.40314e-20)
(0.0961106 -0.0170366 5.3887e-19)
(0.138261 -0.023316 -1.03898e-18)
(0.18538 -0.0292175 6.04963e-19)
(0.23665 -0.0344757 -3.24866e-20)
(0.291332 -0.0389184 4.42763e-19)
(0.348733 -0.0424382 -4.92506e-19)
(0.408188 -0.044976 4.0279e-19)
(0.469041 -0.0465072 -1.05773e-18)
(0.530639 -0.0470306 -5.87727e-19)
(0.592332 -0.0465564 1.21833e-18)
(0.653467 -0.0450955 -4.88293e-19)
(0.713376 -0.0426573 -3.15114e-19)
(0.771319 -0.0392415 4.27084e-19)
(0.82659 -0.0345207 9.27707e-19)
(0.879578 -0.026524 -5.55962e-19)
(0.9303 -0.0128353 -1.50687e-19)
(0.0043014 -0.00179557 3.07587e-19)
(0.0243462 -0.009731 -2.93725e-19)
(0.0565508 -0.0172296 -2.36233e-19)
(0.0981974 -0.0241286 -6.73469e-19)
(0.147355 -0.0302708 5.89659e-19)
(0.202651 -0.0353522 8.20592e-19)
(0.262903 -0.0391747 -4.14346e-19)
(0.327031 -0.0416539 4.82634e-19)
(0.394035 -0.0427755 -1.69352e-19)
(0.46297 -0.0425731 5.20183e-20)
(0.532929 -0.0411178 8.54564e-19)
(0.603037 -0.0385074 -1.16102e-18)
(0.672452 -0.0348567 -4.22252e-20)
(0.740379 -0.0302856 2.37791e-19)
(0.806083 -0.0249094 8.70598e-20)
(0.868912 -0.0188243 -8.89207e-20)
(0.928342 -0.0120488 2.53921e-19)
(0.984041 -0.00438064 -1.40436e-19)
(1.03566 0.00416911 -7.90153e-19)
(1.08217 0.0108963 7.17273e-19)
(0.0109391 -0.00559531 2.416e-19)
(0.0445494 -0.0186813 7.97474e-20)
(0.0909827 -0.0284644 -2.38519e-19)
(0.147118 -0.0355652 2.79905e-19)
(0.21069 -0.0403723 -6.37695e-19)
(0.280036 -0.0429278 1.35052e-18)
(0.353679 -0.0433194 -9.20314e-19)
(0.430241 -0.0417183 -5.01089e-19)
(0.508428 -0.0383389 1.32591e-18)
(0.587021 -0.0334235 -1.04565e-18)
(0.664864 -0.0272369 1.28442e-18)
(0.740873 -0.0200598 -1.57135e-18)
(0.814054 -0.0121798 5.2877e-19)
(0.883523 -0.00388422 6.21163e-19)
(0.948525 0.00454578 -5.35472e-19)
(1.00846 0.0128444 -1.0981e-20)
(1.06292 0.0207922 -8.30545e-20)
(1.1117 0.0281772 -6.15649e-19)
(1.15438 0.0341172 4.48514e-19)
(1.19014 0.0367616 -1.25885e-19)
(0.0199086 -0.00900786 -3.20063e-19)
(0.0707119 -0.0261157 1.20689e-19)
(0.134008 -0.0367527 -5.77751e-21)
(0.206393 -0.0424811 -4.77864e-19)
(0.285319 -0.0443514 6.42386e-19)
(0.368835 -0.0428429 -8.82466e-19)
(0.45516 -0.0384116 8.04646e-20)
(0.542617 -0.0315586 2.58585e-19)
(0.629632 -0.0227917 -3.57023e-19)
(0.714749 -0.0126132 6.58241e-19)
(0.796636 -0.00151537 1.81847e-19)
(0.874116 0.0100277 7.59048e-20)
(0.946186 0.0215714 -7.50375e-19)
(1.01204 0.0327117 7.62116e-19)
(1.0711 0.0430939 -4.07733e-19)
(1.12301 0.052424 3.01809e-19)
(1.16762 0.0604862 -6.33045e-19)
(1.20498 0.0670907 -3.59926e-19)
(1.235 0.0717138 4.25981e-19)
(1.25723 0.0740541 1.10924e-19)
(0.0312604 -0.0114658 -3.11451e-19)
(0.102689 -0.0305456 4.30157e-19)
(0.185027 -0.039941 9.06394e-20)
(0.274751 -0.0422918 -7.86046e-20)
(0.369117 -0.0394154 2.13486e-19)
(0.465922 -0.0323158 5.26224e-19)
(0.563123 -0.0218921 -2.71218e-19)
(0.658799 -0.00903572 -2.04325e-19)
(0.751198 0.00541103 -5.34583e-19)
(0.838761 0.0206699 4.70159e-19)
(0.920166 0.0360329 -2.47654e-19)
(0.994353 0.0508736 1.0261e-20)
(1.06056 0.0646607 1.14975e-18)
(1.11832 0.0769692 -8.03421e-19)
(1.16747 0.0874864 7.10227e-19)
(1.20813 0.0960166 -7.25772e-20)
(1.24066 0.102484 1.00849e-19)
(1.26558 0.106883 -2.32854e-19)
(1.28336 0.109077 -8.10549e-20)
(1.29433 0.109487 -4.29597e-19)
(0.0448449 -0.0123626 1.79067e-19)
(0.139776 -0.0304731 1.15446e-19)
(0.242563 -0.0359955 -7.41744e-20)
(0.349791 -0.0327315 -9.97411e-19)
(0.458654 -0.0233369 3.01387e-19)
(0.566796 -0.0094038 -7.31904e-20)
(0.672025 0.00768109 -4.08968e-20)
(0.772339 0.0266179 -5.24875e-20)
(0.865995 0.0462445 8.65481e-20)
(0.951577 0.0655559 -6.3711e-19)
(1.02803 0.0837118 3.39589e-19)
(1.0947 0.100047 -5.20403e-19)
(1.15133 0.114077 6.71105e-20)
(1.19802 0.1255 -2.75595e-19)
(1.23521 0.134185 -1.02706e-19)
(1.26363 0.140161 5.25297e-19)
(1.28415 0.14359 -5.66635e-19)
(1.29777 0.144708 8.6681e-20)
(1.30535 0.143707 2.247e-19)
(1.3076 0.141344 -2.38818e-19)
(0.0602689 -0.0111049 2.76998e-19)
(0.180644 -0.0245456 -4.27777e-20)
(0.304253 -0.0232423 -3.55299e-19)
(0.428071 -0.0121562 -4.91344e-20)
(0.549434 0.00521201 6.2559e-19)
(0.666011 0.0266726 -2.6051e-19)
(0.775677 0.0503696 2.4672e-19)
(0.87659 0.0746515 -2.76379e-19)
(0.967309 0.0981323 1.3058e-19)
(1.04685 0.119712 -1.2506e-19)
(1.11474 0.138577 5.55618e-19)
(1.17095 0.154192 -3.41988e-19)
(1.21594 0.166288 -3.8283e-20)
(1.25051 0.174833 -4.51277e-20)
(1.27574 0.179991 7.47615e-20)
(1.29287 0.182082 -1.14726e-19)
(1.30321 0.181527 2.59599e-19)
(1.308 0.178778 8.84238e-21)
(1.30831 0.174251 -3.90079e-19)
(1.30492 0.168779 -1.20588e-19)
(0.0768796 -0.00718852 -2.15511e-19)
(0.223362 -0.0117418 1.70857e-19)
(0.366959 -0.000619799 6.00403e-20)
(0.505363 0.020184 -7.60064e-20)
(0.636323 0.046416 -2.06225e-20)
(0.7578 0.075368 8.79147e-20)
(0.868019 0.104827 -6.93308e-20)
(0.965624 0.132942 3.00078e-19)
(1.04978 0.158292 -2.07227e-19)
(1.12024 0.179888 9.94866e-20)
(1.17731 0.197149 -2.24271e-19)
(1.22179 0.209859 2.17071e-19)
(1.25487 0.218115 8.87534e-20)
(1.27801 0.222257 -2.44858e-19)
(1.29281 0.222791 2.48905e-19)
(1.30084 0.220321 -1.00709e-19)
(1.3036 0.215479 4.39298e-20)
(1.30237 0.20886 3.97973e-20)
(1.29816 0.200998 2.09893e-21)
(1.29161 0.192605 4.05435e-20)
(0.0937873 -0.000282039 -9.92688e-20)
(0.265511 0.00843951 1.65032e-19)
(0.427012 0.032101 -1.01564e-19)
(0.577051 0.0639529 8.17193e-20)
(0.714101 0.0992083 -1.05063e-19)
(0.836734 0.134833 -1.56158e-20)
(0.943861 0.168478 4.50741e-20)
(1.03492 0.198344 -1.70398e-20)
(1.10997 0.223228 -1.80772e-20)
(1.16968 0.242497 8.97687e-20)
(1.21524 0.256009 -1.33758e-20)
(1.24828 0.264021 -4.90029e-20)
(1.27063 0.267082 9.88319e-20)
(1.28425 0.265925 -7.45782e-20)
(1.29099 0.261369 1.69829e-20)
(1.29257 0.254228 -2.26836e-20)
(1.29041 0.245248 6.39172e-20)
(1.28568 0.235078 -5.0196e-20)
(1.27917 0.224281 -7.49334e-21)
(1.27134 0.213287 -1.2489e-20)
(0.109928 0.00969452 5.7695e-20)
(0.304382 0.0358301 -1.75751e-19)
(0.480559 0.0741752 1.06501e-19)
(0.638596 0.117659 -1.63899e-20)
(0.778013 0.161319 3.06817e-20)
(0.898311 0.202106 -5.18967e-20)
(0.999388 0.237852 -3.36893e-20)
(1.08172 0.267122 6.97736e-21)
(1.14642 0.289216 8.1828e-20)
(1.19512 0.304082 -1.16429e-19)
(1.22989 0.312171 1.66842e-20)
(1.25298 0.314288 2.46073e-20)
(1.26671 0.311438 -3.55891e-20)
(1.27325 0.304697 9.48079e-20)
(1.27453 0.295099 -3.31457e-20)
(1.27217 0.283564 2.53653e-20)
(1.26741 0.270854 -5.45464e-20)
(1.26116 0.257596 1.38222e-20)
(1.25398 0.244312 2.33021e-20)
(1.24617 0.231048 1.36459e-20)
(0.124161 0.0225152 1.14165e-19)
(0.337245 0.0695129 1.01071e-19)
(0.523948 0.123856 -3.48905e-20)
(0.686009 0.178727 -1.22419e-19)
(0.824248 0.229466 -6.52878e-20)
(0.939353 0.273418 1.54092e-19)
(1.03241 0.308965 6.32578e-20)
(1.10505 0.335365 -1.26705e-19)
(1.15943 0.352672 5.03728e-20)
(1.19808 0.361575 -6.36072e-22)
(1.22373 0.363189 1.70364e-19)
(1.23909 0.358855 -6.6385e-20)
(1.24667 0.349963 -1.54084e-19)
(1.24867 0.337824 1.78983e-19)
(1.24689 0.323577 -7.28618e-20)
(1.24273 0.30814 1.07609e-19)
(1.23717 0.292211 -3.61234e-20)
(1.23088 0.27634 9.43239e-21)
(1.22416 0.260974 -1.88711e-20)
(1.21722 0.24576 -1.42262e-20)
(0.135383 0.0376282 -1.1629e-19)
(0.361634 0.107833 -2.38015e-19)
(0.554111 0.178488 3.77142e-19)
(0.71624 0.243696 2.09466e-19)
(0.850269 0.299658 -6.07699e-19)
(0.958195 0.344553 3.57644e-19)
(1.04234 0.377693 8.34074e-20)
(1.10545 0.399304 1.40468e-19)
(1.1506 0.410371 -6.26065e-22)
(1.181 0.41239 -1.04447e-20)
(1.19981 0.407121 -2.83633e-19)
(1.20991 0.396354 1.91073e-19)
(1.21381 0.381751 6.66132e-20)
(1.21357 0.364736 -3.41186e-20)
(1.21074 0.346443 -8.93687e-20)
(1.20646 0.32771 1.20711e-20)
(1.20147 0.309121 -2.53968e-20)
(1.19618 0.291131 -6.0127e-21)
(1.19069 0.274099 8.19144e-20)
(1.1852 0.25728 3.4006e-21)
(0.142656 0.0541767 -2.6664e-19)
(0.375607 0.148503 -1.17511e-19)
(0.568877 0.234711 -1.19827e-19)
(0.727456 0.308515 3.08586e-19)
(0.854974 0.367534 2.65597e-20)
(0.954689 0.411205 -1.11087e-19)
(1.03005 0.440073 -1.92321e-19)
(1.08472 0.455526 -1.70019e-20)
(1.12245 0.459545 1.17387e-21)
(1.14686 0.45441 2.3003e-19)
(1.16127 0.442424 -2.28733e-19)
(1.16853 0.425707 4.96092e-20)
(1.17099 0.406056 -1.1556e-19)
(1.17043 0.384897 4.64993e-20)
(1.16816 0.36328 4.09904e-21)
(1.16506 0.341909 -8.35889e-20)
(1.16165 0.321235 2.41771e-20)
(1.15813 0.301645 -6.96537e-21)
(1.15445 0.283402 6.35724e-21)
(1.15096 0.265271 -2.12231e-22)
(0.145306 0.07106 1.11874e-19)
(0.377964 0.188781 1.36136e-19)
(0.567178 0.28874 -1.67627e-19)
(0.719169 0.368877 2.37009e-19)
(0.838698 0.428716 5.82016e-20)
(0.930061 0.469278 -2.9237e-19)
(0.997571 0.492533 6.74547e-20)
(1.04553 0.501095 6.00407e-20)
(1.07803 0.497911 8.47774e-20)
(1.09885 0.485935 -5.65711e-20)
(1.11122 0.467873 8.58373e-20)
(1.11781 0.446025 2.87515e-20)
(1.12068 0.422209 2.16225e-20)
(1.12135 0.397763 -1.30401e-21)
(1.12086 0.373595 4.2644e-22)
(1.11987 0.350259 1.53641e-20)
(1.11876 0.328077 3.96834e-22)
(1.11758 0.30737 3.60881e-20)
(1.11619 0.288332 -1.33004e-20)
(1.11515 0.269358 -1.33703e-19)
(0.143012 0.0870301 3.37142e-19)
(0.368366 0.225709 -2.38249e-19)
(0.549144 0.336684 8.485e-21)
(0.692235 0.420572 -1.95315e-19)
(0.803089 0.479125 -1.77529e-19)
(0.886686 0.515136 2.68043e-19)
(0.947844 0.532043 -3.05958e-20)
(0.991125 0.533632 -5.14434e-21)
(1.0207 0.52368 9.30037e-21)
(1.04019 0.505656 -3.56888e-20)
(1.05263 0.482512 3.04209e-21)
(1.06036 0.456593 3.01132e-20)
(1.06513 0.429634 -7.49719e-20)
(1.06819 0.402828 1.31582e-19)
(1.07035 0.376917 2.69667e-20)
(1.07212 0.352304 3.63191e-20)
(1.07377 0.329196 -1.93915e-19)
(1.07528 0.307856 -9.57715e-20)
(1.0765 0.288442 4.4694e-19)
(1.07834 0.269151 -1.71308e-19)
(0.135814 0.100787 -2.07368e-20)
(0.347395 0.256377 -2.15064e-20)
(0.516087 0.374856 1.37883e-19)
(0.648723 0.4598 6.10844e-20)
(0.750912 0.515261 3.17846e-20)
(0.827856 0.545792 -2.35921e-20)
(0.884444 0.556221 3.52598e-20)
(0.925155 0.551335 5.28626e-20)
(0.953938 0.535544 -3.97435e-20)
(0.974118 0.512637 -1.32925e-20)
(0.988347 0.485655 2.79349e-19)
(0.998639 0.456874 1.07132e-20)
(1.00644 0.427882 2.46547e-19)
(1.01272 0.399691 7.72416e-20)
(1.01814 0.37288 -1.57302e-19)
(1.02308 0.347715 1.39943e-19)
(1.02777 0.324302 7.28822e-20)
(1.03218 0.302818 -2.75797e-19)
(1.03633 0.283405 5.57739e-20)
(1.04137 0.264441 -1.35805e-19)
(0.12422 0.111054 7.36792e-20)
(0.31652 0.278083 -2.76959e-20)
(0.470339 0.400082 1.36637e-20)
(0.591732 0.483421 -1.5098e-19)
(0.685813 0.534362 2.80059e-20)
(0.757494 0.559034 1.28198e-19)
(0.811338 0.563411 -2.40128e-19)
(0.851425 0.553025 2.55441e-19)
(0.881266 0.532684 1.60615e-19)
(0.903742 0.506303 1.10782e-19)
(0.921097 0.476868 2.01361e-19)
(0.934994 0.446503 -5.31438e-19)
(0.946599 0.416603 -3.29754e-19)
(0.956697 0.388 2.04032e-19)
(0.965796 0.361125 1.42577e-19)
(0.974212 0.336146 -1.91786e-19)
(0.982139 0.313078 1.93522e-19)
(0.989727 0.291941 -4.64997e-20)
(0.997263 0.272958 -3.80563e-19)
(1.00562 0.255792 5.14119e-19)
(0.109042 0.116846 2.41036e-20)
(0.277891 0.288735 -1.359e-19)
(0.415104 0.409915 6.52778e-20)
(0.525144 0.489169 1.14539e-19)
(0.612027 0.534581 1.20447e-19)
(0.679913 0.553503 -4.21074e-19)
(0.732687 0.552703 5.96447e-19)
(0.773781 0.538148 5.57261e-19)
(0.806114 0.514786 -4.63412e-20)
(0.832052 0.486473 -1.79655e-19)
(0.853421 0.456018 7.55783e-19)
(0.871557 0.425325 -8.11741e-19)
(0.887399 0.395568 -4.5248e-20)
(0.90158 0.367384 7.44911e-19)
(0.91451 0.34105 -5.01108e-19)
(0.926434 0.316621 -6.70921e-20)
(0.937545 0.293972 8.71104e-20)
(0.948252 0.272705 7.72542e-19)
(0.959033 0.252466 -6.95625e-19)
(0.968103 0.234841 -1.52127e-19)
(0.0913885 0.117382 1.8771e-19)
(0.234272 0.286876 1.34629e-20)
(0.354183 0.402828 -4.82894e-19)
(0.453332 0.475781 7.56315e-21)
(0.534121 0.515056 -3.03153e-19)
(0.59959 0.528738 1.13489e-19)
(0.652678 0.52397 1.54597e-19)
(0.696001 0.506814 -3.90036e-19)
(0.731803 0.482112 5.27901e-19)
(0.761914 0.453498 1.42854e-19)
(0.787756 0.423524 4.01697e-19)
(0.810379 0.393842 -1.37887e-18)
(0.830529 0.365419 4.81167e-19)
(0.848725 0.338736 -1.81835e-19)
(0.865311 0.313967 1.83901e-19)
(0.880506 0.291112 -6.3278e-19)
(0.89452 0.270032 6.43857e-19)
(0.907712 0.250396 -7.42607e-19)
(0.920202 0.231912 4.2815e-19)
(0.930185 0.215557 5.07982e-19)
(0.0725891 0.112247 -4.89775e-19)
(0.188769 0.271832 3.83643e-19)
(0.291701 0.378293 2.49046e-19)
(0.380877 0.443044 6.15946e-20)
(0.45674 0.475915 3.54199e-19)
(0.520962 0.485149 -5.88584e-19)
(0.575379 0.477807 8.56516e-19)
(0.621716 0.459704 -4.92511e-19)
(0.661523 0.435347 3.45557e-19)
(0.696124 0.408015 -8.95703e-19)
(0.726578 0.379935 7.70004e-19)
(0.753702 0.352494 -6.79586e-19)
(0.778104 0.326463 1.13935e-18)
(0.800228 0.302194 -2.97418e-19)
(0.820392 0.279783 -4.70298e-19)
(0.838825 0.259185 -3.80417e-19)
(0.855753 0.240258 -5.83771e-20)
(0.871494 0.222744 9.01971e-19)
(0.886107 0.206446 4.67075e-19)
(0.898238 0.192025 -6.34382e-19)
(0.0540643 0.10141 3.78474e-20)
(0.144607 0.243777 1.01473e-19)
(0.231823 0.336814 1.13314e-19)
(0.312293 0.391797 -3.68984e-19)
(0.38435 0.418255 2.02663e-19)
(0.448204 0.423987 5.88069e-19)
(0.504551 0.415516 -9.58702e-19)
(0.554229 0.398089 4.28387e-19)
(0.598136 0.375674 1.76695e-19)
(0.637137 0.351087 -1.10648e-18)
(0.671989 0.326185 4.01956e-19)
(0.703326 0.302091 -4.34642e-19)
(0.731657 0.279395 1.13538e-18)
(0.757385 0.258346 -7.5333e-19)
(0.780825 0.238984 -2.32491e-19)
(0.802227 0.221242 5.48168e-19)
(0.821834 0.204986 -7.7429e-19)
(0.839943 0.190014 5.36637e-19)
(0.856642 0.176165 4.8704e-19)
(0.871009 0.163807 -1.19739e-18)
(0.0372165 0.0852379 -1.69704e-19)
(0.104894 0.203718 5.66158e-19)
(0.178489 0.279892 -6.24935e-19)
(0.251766 0.323871 -1.71445e-19)
(0.321028 0.344075 -2.79089e-19)
(0.385078 0.347279 6.32616e-20)
(0.443549 0.339049 -3.17487e-20)
(0.496474 0.32378 4.2438e-19)
(0.544179 0.304732 1.05314e-19)
(0.587146 0.284176 -8.44724e-19)
(0.625892 0.263573 -8.5766e-20)
(0.660912 0.243781 3.17148e-19)
(0.692652 0.225237 3.95746e-19)
(0.721493 0.208104 -5.34808e-19)
(0.747761 0.192389 1.06253e-18)
(0.771728 0.178023 -7.91537e-19)
(0.793656 0.16489 9.46966e-19)
(0.813827 0.152838 -7.91077e-19)
(0.832369 0.141733 3.73584e-19)
(0.848744 0.13173 1.92186e-19)
(0.0233212 0.0644707 -1.90366e-19)
(0.0724105 0.153426 2.07678e-19)
(0.135167 0.209929 6.55371e-20)
(0.202933 0.241976 -6.49688e-20)
(0.270267 0.256162 1.19499e-19)
(0.334777 0.257729 -5.99465e-21)
(0.395197 0.250924 3.96461e-20)
(0.450904 0.239061 -5.05632e-19)
(0.501769 0.224564 1.79663e-19)
(0.547975 0.209092 4.69574e-19)
(0.589863 0.193698 -5.78169e-19)
(0.627831 0.178985 2.37184e-19)
(0.662283 0.16525 -2.23921e-19)
(0.693595 0.152594 6.42165e-19)
(0.722103 0.141009 -8.05102e-19)
(0.748102 0.130434 -6.17152e-20)
(0.771869 0.120782 7.88732e-19)
(0.793676 0.111948 -7.25182e-19)
(0.81369 0.103825 -1.29157e-19)
(0.831695 0.0964486 -2.56965e-19)
(0.0134298 0.0401693 -2.34935e-19)
(0.0494172 0.0953241 2.2903e-19)
(0.104648 0.130078 -8.30536e-21)
(0.168691 0.149554 -1.01525e-19)
(0.23483 0.157954 2.4661e-19)
(0.299802 0.15859 -5.75323e-20)
(0.361699 0.154124 -1.01394e-19)
(0.419431 0.146613 2.2431e-20)
(0.472553 0.13755 -4.8923e-19)
(0.521048 0.127945 6.36849e-19)
(0.565137 0.118433 1.03835e-19)
(0.60516 0.109372 -2.21698e-19)
(0.641496 0.100932 -7.46794e-21)
(0.67452 0.0931681 2.48237e-19)
(0.704579 0.0860706 4.3024e-20)
(0.731987 0.079598 1.58225e-19)
(0.757027 0.0736966 1.2247e-19)
(0.779964 0.0683033 -3.73119e-19)
(0.800998 0.0633505 9.15477e-20)
(0.820149 0.0588257 -2.17676e-19)
(0.00828997 0.0136429 -1.44779e-19)
(0.0375087 0.03233 2.57756e-19)
(0.0888856 0.0440578 7.50594e-20)
(0.151053 0.0505907 1.10183e-20)
(0.216624 0.053371 1.39196e-19)
(0.281877 0.0535307 -1.13975e-19)
(0.344566 0.0519768 6.89021e-20)
(0.403362 0.0494067 -2.61974e-20)
(0.457659 0.0463239 -9.91902e-20)
(0.507337 0.0430681 1.55001e-19)
(0.55256 0.039851 -7.36624e-20)
(0.593637 0.0367911 -8.82339e-20)
(0.630938 0.0339443 2.13922e-20)
(0.664837 0.0313278 -7.0899e-20)
(0.69569 0.0289373 3.73581e-20)
(0.723817 0.0267582 -5.44048e-20)
(0.749507 0.0247724 2.13774e-19)
(0.773021 0.022959 -7.11937e-20)
(0.794577 0.0212945 -2.43441e-20)
(0.814318 0.0197693 1.1929e-19)
(0.00828997 -0.0136429 1.44779e-19)
(0.0375087 -0.03233 -2.57756e-19)
(0.0888856 -0.0440578 -6.27319e-20)
(0.151053 -0.0505907 8.15876e-20)
(0.216624 -0.053371 -5.3162e-20)
(0.281877 -0.0535308 9.51812e-21)
(0.344566 -0.0519768 -5.45529e-20)
(0.403362 -0.0494067 1.0842e-20)
(0.457659 -0.0463239 8.47911e-20)
(0.507337 -0.0430681 -2.21183e-19)
(0.55256 -0.039851 -2.54176e-20)
(0.593637 -0.0367911 4.80487e-20)
(0.630938 -0.0339443 9.16541e-20)
(0.664837 -0.0313278 -9.70846e-21)
(0.69569 -0.0289373 -8.63992e-20)
(0.723817 -0.0267582 7.35823e-20)
(0.749507 -0.0247724 -1.09793e-19)
(0.773021 -0.022959 8.43298e-20)
(0.794577 -0.0212945 8.73828e-20)
(0.814318 -0.0197693 -1.03136e-19)
(0.0134298 -0.0401693 2.25357e-19)
(0.0494172 -0.0953241 -3.31158e-19)
(0.104648 -0.130078 -4.00435e-19)
(0.168691 -0.149554 -1.914e-19)
(0.23483 -0.157954 -2.06167e-19)
(0.299802 -0.15859 4.14119e-19)
(0.361699 -0.154124 1.12469e-19)
(0.419431 -0.146613 -9.33191e-20)
(0.472553 -0.13755 3.99152e-19)
(0.521048 -0.127945 -2.5916e-20)
(0.565137 -0.118433 -3.98119e-19)
(0.60516 -0.109372 5.57963e-20)
(0.641496 -0.100932 7.0747e-20)
(0.67452 -0.0931681 7.51932e-22)
(0.704579 -0.0860706 -7.62451e-20)
(0.731987 -0.079598 -2.01349e-19)
(0.757027 -0.0736966 -6.75976e-20)
(0.779964 -0.0683033 7.81636e-21)
(0.800998 -0.0633505 3.6282e-19)
(0.820149 -0.0588258 2.34679e-19)
(0.0233212 -0.0644707 1.32403e-19)
(0.0724105 -0.153426 -1.52928e-19)
(0.135167 -0.209929 3.30869e-19)
(0.202933 -0.241976 3.46211e-19)
(0.270267 -0.256162 -3.32409e-19)
(0.334777 -0.257729 -3.59251e-19)
(0.395197 -0.250924 -1.15309e-19)
(0.450904 -0.239061 1.83621e-19)
(0.501769 -0.224564 1.37399e-20)
(0.547975 -0.209092 -2.35702e-19)
(0.589863 -0.193698 2.06792e-19)
(0.627831 -0.178985 -1.50216e-19)
(0.662283 -0.16525 5.86028e-20)
(0.693595 -0.152594 -5.46866e-19)
(0.722103 -0.141009 7.88184e-19)
(0.748102 -0.130434 1.92092e-19)
(0.771869 -0.120782 -7.10581e-19)
(0.793676 -0.111948 6.29649e-19)
(0.81369 -0.103825 8.33653e-22)
(0.831695 -0.0964486 1.03567e-19)
(0.0372165 -0.0852379 -5.99424e-20)
(0.104894 -0.203718 -6.24799e-19)
(0.178489 -0.279892 5.10081e-19)
(0.251766 -0.323871 9.05209e-20)
(0.321028 -0.344075 3.9025e-20)
(0.385078 -0.347279 -5.74444e-20)
(0.443549 -0.339049 -3.7113e-19)
(0.496474 -0.32378 4.38947e-19)
(0.544179 -0.304732 4.55956e-21)
(0.587146 -0.284176 7.21289e-19)
(0.625892 -0.263573 8.96114e-20)
(0.660912 -0.243781 -1.02568e-19)
(0.692652 -0.225237 -3.81362e-19)
(0.721493 -0.208104 2.03282e-19)
(0.747761 -0.192389 -6.43335e-19)
(0.771728 -0.178023 9.01013e-19)
(0.793656 -0.16489 -1.0894e-18)
(0.813827 -0.152838 7.5038e-19)
(0.832369 -0.141733 -4.65709e-19)
(0.848744 -0.13173 -2.18912e-19)
(0.0540643 -0.10141 -1.52289e-19)
(0.144607 -0.243777 -5.52936e-20)
(0.231823 -0.336814 -3.26663e-19)
(0.312293 -0.391797 3.13007e-19)
(0.38435 -0.418255 1.39456e-19)
(0.448204 -0.423987 -7.62475e-19)
(0.504551 -0.415516 1.26154e-18)
(0.554229 -0.398089 -1.00225e-18)
(0.598136 -0.375674 -4.53711e-19)
(0.637137 -0.351087 9.49158e-19)
(0.671989 -0.326185 -2.29798e-19)
(0.703326 -0.302091 -8.52567e-20)
(0.731657 -0.279395 -1.07069e-18)
(0.757385 -0.258346 1.1481e-18)
(0.780825 -0.238984 3.18257e-19)
(0.802227 -0.221242 -8.84938e-19)
(0.821834 -0.204986 7.30296e-19)
(0.839943 -0.190014 -4.97568e-19)
(0.856642 -0.176165 -4.39057e-19)
(0.871009 -0.163807 1.46033e-18)
(0.0725891 -0.112247 4.98428e-19)
(0.188769 -0.271832 -1.57306e-19)
(0.291701 -0.378293 1.93744e-19)
(0.380877 -0.443044 2.57808e-21)
(0.45674 -0.475915 -3.6984e-19)
(0.520962 -0.485149 1.0061e-18)
(0.575379 -0.477807 -8.89059e-19)
(0.621716 -0.459704 8.18005e-19)
(0.661523 -0.435347 -8.19353e-19)
(0.696124 -0.408015 7.60563e-19)
(0.726578 -0.379935 -4.23194e-19)
(0.753702 -0.352494 1.04414e-18)
(0.778104 -0.326463 -1.28548e-18)
(0.800228 -0.302194 -1.14805e-19)
(0.820392 -0.279783 3.04316e-19)
(0.838825 -0.259185 6.41205e-19)
(0.855753 -0.240258 3.6707e-20)
(0.871494 -0.222744 -7.29147e-19)
(0.886107 -0.206446 -3.76692e-19)
(0.898238 -0.192025 7.7984e-19)
(0.0913885 -0.117382 1.38688e-19)
(0.234272 -0.286876 1.13172e-20)
(0.354183 -0.402828 9.54884e-20)
(0.453332 -0.475781 -3.20337e-20)
(0.534121 -0.515056 5.14034e-19)
(0.59959 -0.528738 -2.4932e-19)
(0.652678 -0.52397 2.81365e-20)
(0.696001 -0.506814 2.71119e-20)
(0.731803 -0.482112 3.75852e-19)
(0.761914 -0.453498 6.44994e-20)
(0.787756 -0.423524 1.22368e-19)
(0.810379 -0.393842 6.80917e-19)
(0.830529 -0.365419 -6.34436e-19)
(0.848725 -0.338736 5.67232e-19)
(0.865311 -0.313967 -3.60966e-19)
(0.880506 -0.291112 3.19293e-19)
(0.89452 -0.270032 -5.8145e-19)
(0.907712 -0.250396 4.48015e-19)
(0.920202 -0.231912 -1.67154e-19)
(0.930185 -0.215557 -8.21238e-19)
(0.109042 -0.116846 -4.83081e-20)
(0.277891 -0.288735 -2.04526e-20)
(0.415104 -0.409915 1.54948e-19)
(0.525144 -0.489169 -3.13917e-20)
(0.612027 -0.534581 -2.89455e-19)
(0.679913 -0.553503 4.66319e-19)
(0.732687 -0.552703 -5.1257e-19)
(0.773781 -0.538148 -4.01043e-19)
(0.806114 -0.514786 -3.05409e-19)
(0.832052 -0.486473 2.80477e-19)
(0.853421 -0.456018 -2.9183e-19)
(0.871557 -0.425325 7.29983e-19)
(0.887399 -0.395568 4.39083e-19)
(0.90158 -0.367384 -9.41467e-19)
(0.91451 -0.34105 3.75868e-19)
(0.926434 -0.316621 2.62717e-19)
(0.937545 -0.293972 -3.40037e-19)
(0.948252 -0.272705 -7.72682e-19)
(0.959033 -0.252466 4.48247e-19)
(0.968103 -0.234841 1.39394e-19)
(0.12422 -0.111054 -5.81335e-20)
(0.31652 -0.278083 1.49896e-21)
(0.470339 -0.400082 3.82077e-20)
(0.591732 -0.483421 8.44301e-20)
(0.685813 -0.534362 -7.26862e-20)
(0.757494 -0.559034 -1.78298e-19)
(0.811338 -0.563411 1.13484e-19)
(0.851425 -0.553025 -3.00438e-19)
(0.881266 -0.532684 -3.75588e-20)
(0.903742 -0.506303 -3.21389e-19)
(0.921097 -0.476868 -4.37913e-19)
(0.934994 -0.446503 5.47734e-19)
(0.946599 -0.416603 3.64785e-20)
(0.956697 -0.388 -1.42959e-19)
(0.965796 -0.361125 -4.40841e-20)
(0.974212 -0.336146 6.6581e-20)
(0.982139 -0.313078 -1.38126e-19)
(0.989727 -0.291941 1.12221e-19)
(0.997263 -0.272958 5.12882e-19)
(1.00562 -0.255792 -4.81412e-19)
(0.135814 -0.100787 -3.57658e-21)
(0.347395 -0.256377 -1.9104e-20)
(0.516087 -0.374856 -1.76779e-20)
(0.648723 -0.4598 7.04001e-20)
(0.750912 -0.515261 -4.59177e-20)
(0.827856 -0.545792 7.25667e-20)
(0.884444 -0.556221 2.92937e-20)
(0.925155 -0.551335 5.43171e-20)
(0.953938 -0.535544 -1.6225e-19)
(0.974118 -0.512637 5.12364e-20)
(0.988347 -0.485655 -2.53619e-19)
(0.998639 -0.456874 -7.27648e-20)
(1.00644 -0.427882 -1.3779e-19)
(1.01272 -0.399691 -2.41675e-19)
(1.01814 -0.37288 1.92417e-19)
(1.02308 -0.347715 8.80486e-21)
(1.02777 -0.324302 4.35485e-20)
(1.03218 -0.302818 3.25495e-19)
(1.03633 -0.283405 -2.42221e-19)
(1.04137 -0.264441 8.25625e-20)
(0.143012 -0.0870301 -1.17122e-19)
(0.368366 -0.225709 1.05787e-20)
(0.549144 -0.336684 3.9486e-20)
(0.692235 -0.420572 -1.62041e-19)
(0.803089 -0.479125 1.87815e-19)
(0.886686 -0.515136 -2.08802e-19)
(0.947844 -0.532043 5.43013e-20)
(0.991125 -0.533632 4.31069e-20)
(1.0207 -0.52368 1.59247e-20)
(1.04019 -0.505656 -6.76622e-21)
(1.05263 -0.482512 -1.82409e-20)
(1.06036 -0.456593 -3.29337e-20)
(1.06513 -0.429634 7.71447e-20)
(1.06819 -0.402828 -1.40839e-19)
(1.07035 -0.376917 -9.79211e-20)
(1.07212 -0.352304 -8.19284e-20)
(1.07377 -0.329196 1.83715e-19)
(1.07528 -0.307856 1.48206e-19)
(1.0765 -0.288442 -1.41986e-19)
(1.07834 -0.269151 -3.74504e-20)
(0.145306 -0.07106 -1.53616e-19)
(0.377964 -0.188781 2.23298e-19)
(0.567178 -0.28874 6.67936e-20)
(0.719169 -0.368877 -7.10163e-20)
(0.838698 -0.428716 1.17109e-19)
(0.930061 -0.469278 2.39354e-19)
(0.997571 -0.492533 -1.34194e-19)
(1.04553 -0.501095 -8.52813e-20)
(1.07803 -0.497911 -1.60148e-19)
(1.09885 -0.485935 1.1095e-19)
(1.11122 -0.467873 -2.75522e-20)
(1.11781 -0.446025 1.1183e-20)
(1.12068 -0.422209 8.43173e-20)
(1.12135 -0.397763 -2.10884e-20)
(1.12086 -0.373595 7.11738e-21)
(1.11987 -0.350259 -1.2064e-20)
(1.11876 -0.328077 -4.85297e-21)
(1.11758 -0.30737 -2.51383e-20)
(1.11619 -0.288332 1.81238e-20)
(1.11515 -0.269358 1.05521e-19)
(0.142656 -0.0541767 1.33809e-19)
(0.375607 -0.148503 8.58828e-20)
(0.568877 -0.234711 -5.82348e-20)