/*--------------------------------*- C++ -*----------------------------------*\
  =========                 |
  \\      /  F ield         | OpenFOAM: The Open Source CFD Toolbox
   \\    /   O peration     | Website:  https://openfoam.org
    \\  /    A nd           | Version:  7
     \\/     M anipulation  |
\*---------------------------------------------------------------------------*/
FoamFile
{
    version     2.0;
    format      ascii;
    class       volScalarField;
    location    "120";
    object      p;
}
// * * * * * * * * * * * * * * * * * * * * * * * * * * * * * * * * * * * * * //

dimensions      [0 2 -2 0 0 0 0];

internalField   nonuniform List<scalar> 
3700
(
0.650599
0.622634
0.601397
0.570575
0.537158
0.502998
0.469706
0.438014
0.408338
0.380829
0.355505
0.332297
0.311131
0.291926
0.274506
0.645827
0.618414
0.597857
0.567642
0.534725
0.500978
0.468028
0.436619
0.407177
0.379864
0.354702
0.331626
0.310562
0.291449
0.274148
0.636268
0.609881
0.590579
0.561488
0.529504
0.496532
0.464229
0.433362
0.404375
0.377447
0.35261
0.329803
0.308953
0.290042
0.273006
0.622005
0.597104
0.579619
0.55216
0.521534
0.489694
0.458339
0.428268
0.399954
0.373595
0.349244
0.32684
0.306315
0.28771
0.271076
0.603159
0.580183
0.56506
0.539728
0.510872
0.480513
0.450398
0.421373
0.393942
0.368335
0.344625
0.322758
0.302666
0.284465
0.268361
0.579884
0.55925
0.547012
0.52428
0.497595
0.469051
0.440461
0.412721
0.386379
0.361699
0.338783
0.317581
0.298029
0.280326
0.264868
0.552375
0.534465
0.525605
0.505928
0.481795
0.455388
0.428594
0.40237
0.377312
0.353729
0.331752
0.311341
0.292431
0.275314
0.260608
0.520856
0.506019
0.500997
0.4848
0.46358
0.439615
0.414874
0.390385
0.3668
0.344472
0.323574
0.304074
0.285905
0.269454
0.255595
0.485586
0.474129
0.473367
0.461045
0.443076
0.421836
0.39939
0.376842
0.354905
0.333985
0.314297
0.295822
0.278488
0.262776
0.249844
0.446854
0.439039
0.442915
0.434829
0.42042
0.40217
0.382241
0.361826
0.3417
0.322329
0.303973
0.286631
0.270221
0.255313
0.243375
0.404978
0.401015
0.409861
0.406334
0.395767
0.380744
0.363537
0.345428
0.327264
0.309571
0.292661
0.276553
0.261149
0.247101
0.236211
0.360301
0.360348
0.374445
0.375757
0.36928
0.357698
0.343395
0.32775
0.311683
0.295786
0.280424
0.265642
0.251321
0.23818
0.228378
0.313188
0.31735
0.336921
0.343308
0.341136
0.33318
0.321941
0.308897
0.295048
0.281051
0.267332
0.25396
0.240792
0.228593
0.219904
0.264025
0.272348
0.297561
0.30921
0.311521
0.307346
0.299307
0.288984
0.277455
0.265449
0.253454
0.241571
0.229617
0.218386
0.210819
0.213216
0.225689
0.256648
0.273694
0.28063
0.280361
0.275632
0.268128
0.259007
0.249067
0.238868
0.228545
0.217863
0.207608
0.201155
0.161177
0.177731
0.214476
0.237003
0.248662
0.252393
0.251058
0.24645
0.239806
0.231994
0.223648
0.214952
0.205599
0.196311
0.190936
0.10833
0.128846
0.171349
0.199382
0.215824
0.223615
0.225734
0.224077
0.219962
0.214321
0.207872
0.200868
0.192915
0.184572
0.180184
0.0551004
0.079417
0.127576
0.161083
0.182325
0.194204
0.199806
0.201134
0.199583
0.196144
0.191615
0.186358
0.179905
0.172477
0.168867
0.00191888
0.0298238
0.0834682
0.122357
0.148376
0.164337
0.173427
0.17775
0.17878
0.177559
0.174951
0.171468
0.166668
0.160252
0.15698
-0.0507817
-0.0195587
0.0393382
0.083457
0.114185
0.134191
0.146745
0.154051
0.157662
0.158665
0.157967
0.156245
0.15327
0.148204
0.144283
-0.102573
-0.0683613
-0.00450232
0.0446307
0.0799601
0.103941
0.119909
0.130164
0.136334
0.139558
0.140751
0.140703
0.139581
0.136587
0.13122
-0.153039
-0.116225
-0.0477463
0.00611842
0.0459043
0.073759
0.093066
0.106212
0.114902
0.120325
0.123399
0.124955
0.125544
0.124809
0.120955
-0.201775
-0.162815
-0.0900993
-0.0318507
0.0122155
0.0438137
0.0663576
0.0823172
0.0934663
0.101053
0.105998
0.109129
0.111268
0.112639
0.110895
-0.248314
-0.207817
-0.131298
-0.0690623
-0.020913
0.0142673
0.0399213
0.0585969
0.0721272
0.0818184
0.0886122
0.0933061
0.0968458
0.0998816
0.100036
-0.292369
-0.250728
-0.171157
-0.105311
-0.0532916
-0.0147252
0.0138886
0.0351639
0.0509809
0.0626999
0.071292
0.0775268
0.0823754
0.0867349
0.0884098
-0.33368
-0.290967
-0.209662
-0.140373
-0.0847361
-0.0430179
-0.0116157
0.012125
0.0301194
0.043774
0.0540932
0.0618296
0.0679414
0.0734707
0.0764302
-0.371986
-0.328103
-0.246689
-0.173969
-0.115078
-0.0704745
-0.0364738
-0.0104195
0.0096293
0.0251167
0.0370789
0.0462627
0.0536008
0.0602298
0.0643961
-0.407086
-0.362511
-0.281378
-0.205829
-0.144171
-0.0969657
-0.060575
-0.0323758
-0.0104083
0.00680026
0.0203139
0.0308793
0.039396
0.0470626
0.0524006
-0.438785
-0.394047
-0.313337
-0.235899
-0.17188
-0.122369
-0.0838181
-0.0536583
-0.0299187
-0.0111087
0.00385842
0.0157315
0.0253684
0.0340046
0.0404648
-0.466911
-0.42241
-0.342646
-0.26399
-0.198077
-0.146573
-0.106113
-0.0741895
-0.0488343
-0.0285504
-0.0122335
0.000867218
0.0115613
0.0211002
0.0286229
-0.49135
-0.447387
-0.369261
-0.289998
-0.222682
-0.169472
-0.127379
-0.0939006
-0.0670945
-0.0454714
-0.0279138
-0.0136698
-0.00198415
0.00839489
0.0169228
-0.512045
-0.468854
-0.393053
-0.313831
-0.245643
-0.190991
-0.147547
-0.112731
-0.084646
-0.0618258
-0.0431402
-0.0278403
-0.0152311
-0.00407299
0.00540589
-0.528993
-0.486749
-0.413915
-0.335395
-0.266808
-0.211193
-0.166551
-0.13063
-0.101443
-0.0775734
-0.0578763
-0.0416096
-0.0281474
-0.0162758
-0.00589727
-0.542233
-0.501059
-0.431779
-0.35463
-0.286114
-0.229936
-0.184451
-0.147573
-0.117449
-0.0926801
-0.0720919
-0.0549493
-0.0407038
-0.0281961
-0.0169642
-0.551856
-0.511824
-0.446621
-0.371502
-0.303545
-0.247164
-0.201152
-0.163573
-0.132685
-0.107108
-0.0857638
-0.0678393
-0.0528725
-0.0398186
-0.0277821
-0.557996
-0.519137
-0.458453
-0.386
-0.3191
-0.262877
-0.216616
-0.178576
-0.147112
-0.120893
-0.0988819
-0.0802726
-0.0646318
-0.0511117
-0.0383704
-0.560832
-0.523153
-0.467327
-0.398131
-0.332785
-0.277088
-0.230847
-0.192564
-0.160703
-0.133999
-0.111448
-0.0922701
-0.0759959
-0.0619926
-0.0488105
-0.560586
-0.52408
-0.473334
-0.407926
-0.344617
-0.289817
-0.243865
-0.205546
-0.173459
-0.146411
-0.123443
-0.103794
-0.0869724
-0.0724816
-0.0591952
-0.557517
-0.522184
-0.476609
-0.415436
-0.354628
-0.30109
-0.255696
-0.217545
-0.185396
-0.158137
-0.134864
-0.114838
-0.0975627
-0.0826268
-0.0690781
-0.551921
-0.517779
-0.47732
-0.420737
-0.362866
-0.310946
-0.266371
-0.228588
-0.196537
-0.169197
-0.145722
-0.125409
-0.107764
-0.0924172
-0.0784616
-0.544122
-0.511231
-0.475658
-0.423925
-0.369397
-0.319431
-0.27593
-0.238708
-0.206908
-0.179613
-0.15604
-0.135525
-0.117581
-0.10187
-0.0874997
-0.534468
-0.502932
-0.47185
-0.425127
-0.374297
-0.326605
-0.284419
-0.247943
-0.216541
-0.189414
-0.165841
-0.145205
-0.127031
-0.111022
-0.0963149
-0.523318
-0.493275
-0.466164
-0.424497
-0.377656
-0.332532
-0.291893
-0.256339
-0.225476
-0.198631
-0.175156
-0.15448
-0.136142
-0.119901
-0.104955
-0.511037
-0.482636
-0.45891
-0.422217
-0.379577
-0.33728
-0.298409
-0.263946
-0.233755
-0.207303
-0.184018
-0.16338
-0.144945
-0.128522
-0.113417
-0.497982
-0.471359
-0.450433
-0.418493
-0.380168
-0.340922
-0.304023
-0.270815
-0.241425
-0.215471
-0.192466
-0.171941
-0.153474
-0.136906
-0.121694
-0.484494
-0.459745
-0.441097
-0.413548
-0.379546
-0.343526
-0.308793
-0.276999
-0.248534
-0.223181
-0.20054
-0.180202
-0.161763
-0.14508
-0.129801
-0.470879
-0.448054
-0.431266
-0.407618
-0.377836
-0.345165
-0.312772
-0.282546
-0.255131
-0.23048
-0.208287
-0.188206
-0.169854
-0.153085
-0.137767
-0.457404
-0.436502
-0.421276
-0.400951
-0.375168
-0.345904
-0.316003
-0.287499
-0.261262
-0.237417
-0.215757
-0.195998
-0.177795
-0.160967
-0.145633
-0.444286
-0.425274
-0.411409
-0.393796
-0.371683
-0.345807
-0.318524
-0.291893
-0.266969
-0.244039
-0.223001
-0.203633
-0.185639
-0.168778
-0.153444
-0.431689
-0.414519
-0.401875
-0.386407
-0.367528
-0.344934
-0.320358
-0.295751
-0.272284
-0.250391
-0.230072
-0.211167
-0.193443
-0.176577
-0.161251
-0.419728
-0.404353
-0.39281
-0.379015
-0.362856
-0.343346
-0.321521
-0.299083
-0.277232
-0.256514
-0.237026
-0.218663
-0.201273
-0.184428
-0.169113
-0.408484
-0.394857
-0.384292
-0.371819
-0.357827
-0.341105
-0.322017
-0.301882
-0.281821
-0.262441
-0.243917
-0.226188
-0.209203
-0.192407
-0.177095
-0.397996
-0.386072
-0.376358
-0.364953
-0.352596
-0.338286
-0.321846
-0.304125
-0.286046
-0.268193
-0.250796
-0.233815
-0.217318
-0.200598
-0.185278
-0.388287
-0.378009
-0.369021
-0.358483
-0.347312
-0.334974
-0.321016
-0.305781
-0.289881
-0.273777
-0.257708
-0.241619
-0.225711
-0.20911
-0.19375
-0.379373
-0.370657
-0.362282
-0.352428
-0.342094
-0.331276
-0.319545
-0.30681
-0.293281
-0.279181
-0.264688
-0.249679
-0.234494
-0.218056
-0.202634
-0.371269
-0.363997
-0.356134
-0.346782
-0.337028
-0.327312
-0.317484
-0.307186
-0.296192
-0.28437
-0.271754
-0.258069
-0.243791
-0.227607
-0.212046
-0.364
-0.358022
-0.350574
-0.341555
-0.332173
-0.323214
-0.314927
-0.306906
-0.298554
-0.289289
-0.278898
-0.266857
-0.253736
-0.237925
-0.222269
-0.357592
-0.352747
-0.345612
-0.336781
-0.327591
-0.319123
-0.312013
-0.30602
-0.300323
-0.293861
-0.286087
-0.276069
-0.264484
-0.249288
-0.233483
-0.352082
-0.348207
-0.341281
-0.332529
-0.323378
-0.315191
-0.308931
-0.304647
-0.301496
-0.298006
-0.293237
-0.28572
-0.276118
-0.261944
-0.246615
-0.347557
-0.344415
-0.337624
-0.328892
-0.319676
-0.311601
-0.305915
-0.302986
-0.30214
-0.301664
-0.30024
-0.295711
-0.288786
-0.276181
-0.261647
-0.344033
-0.341418
-0.334699
-0.325978
-0.316653
-0.308576
-0.303237
-0.301312
-0.302416
-0.304833
-0.306947
-0.305954
-0.30212
-0.292932
-0.28015
-0.341501
-0.339158
-0.332616
-0.323884
-0.314476
-0.306358
-0.301201
-0.299962
-0.302588
-0.307614
-0.313213
-0.316312
-0.315959
-0.311489
-0.299416
-0.339931
-0.337701
-0.331313
-0.322663
-0.313271
-0.305156
-0.300107
-0.299301
-0.30301
-0.310221
-0.318983
-0.326502
-0.329899
-0.329993
-0.319221
-0.339246
-0.337004
-0.330753
-0.322318
-0.313091
-0.305109
-0.300196
-0.299675
-0.304089
-0.312973
-0.324368
-0.336215
-0.34359
-0.348063
-0.339777
-0.339331
-0.336889
-0.330971
-0.322804
-0.313916
-0.30625
-0.301595
-0.301339
-0.306207
-0.316256
-0.329675
-0.345338
-0.356811
-0.365877
-0.361224
-0.340055
-0.337363
-0.33178
-0.324022
-0.315657
-0.308517
-0.304302
-0.304397
-0.309626
-0.320454
-0.33533
-0.354043
-0.369441
-0.38342
-0.383338
-0.341276
-0.338318
-0.333084
-0.325859
-0.318185
-0.311771
-0.308196
-0.308797
-0.314423
-0.325834
-0.341738
-0.362723
-0.381491
-0.400495
-0.405494
-0.342848
-0.339653
-0.334794
-0.328195
-0.321351
-0.31583
-0.313074
-0.314346
-0.320493
-0.332459
-0.349147
-0.371821
-0.393163
-0.416976
-0.426917
-0.344642
-0.34128
-0.336824
-0.330921
-0.325002
-0.32049
-0.318683
-0.320765
-0.327576
-0.340185
-0.357582
-0.38161
-0.40481
-0.432872
-0.44706
-0.346544
-0.343124
-0.339097
-0.333935
-0.328993
-0.325545
-0.324754
-0.32773
-0.335321
-0.348677
-0.36687
-0.392058
-0.416748
-0.448211
-0.465832
-0.348465
-0.345127
-0.341549
-0.337146
-0.333186
-0.3308
-0.331027
-0.334913
-0.343346
-0.35751
-0.376636
-0.403157
-0.429027
-0.462938
-0.483446
-0.350337
-0.347239
-0.344125
-0.340477
-0.337464
-0.336084
-0.337269
-0.34202
-0.351277
-0.36623
-0.386342
-0.41386
-0.441289
-0.476859
-0.500076
-0.352121
-0.349426
-0.346784
-0.343867
-0.341733
-0.341265
-0.343301
-0.34881
-0.358792
-0.374421
-0.395471
-0.423821
-0.452857
-0.489555
-0.515365
-0.353802
-0.351669
-0.349499
-0.347273
-0.345934
-0.346258
-0.349005
-0.355118
-0.365647
-0.38174
-0.403513
-0.43238
-0.462891
-0.500267
-0.528288
-0.355394
-0.353966
-0.352261
-0.350681
-0.350044
-0.351034
-0.354331
-0.360861
-0.371688
-0.387938
-0.410029
-0.438943
-0.470478
-0.507962
-0.537712
-0.356937
-0.356338
-0.35508
-0.354105
-0.354081
-0.355618
-0.359298
-0.366038
-0.37686
-0.39287
-0.4147
-0.443045
-0.474789
-0.511558
-0.541968
-0.358499
-0.358804
-0.358006
-0.357589
-0.358099
-0.360063
-0.364007
-0.37073
-0.381216
-0.396513
-0.417349
-0.444419
-0.475207
-0.51023
-0.5402
-0.360172
-0.361432
-0.361088
-0.361202
-0.362192
-0.364503
-0.368576
-0.375084
-0.384905
-0.398983
-0.417969
-0.443032
-0.471405
-0.503562
-0.531654
-0.362062
-0.364294
-0.364403
-0.365034
-0.366473
-0.369081
-0.373183
-0.379302
-0.388159
-0.400561
-0.417212
-0.438671
-0.463395
-0.491605
-0.516116
-0.36429
-0.367472
-0.368036
-0.369186
-0.371067
-0.373949
-0.378021
-0.383623
-0.391263
-0.401555
-0.415092
-0.432208
-0.452203
-0.474368
-0.493891
0.252168
0.230449
0.212086
0.198172
0.186169
0.177003
0.168936
0.162739
0.157219
0.152967
0.149153
0.146218
0.1436
0.141611
0.13986
0.138584
0.137506
0.136792
0.136262
0.136069
0.251991
0.230374
0.212069
0.198215
0.186232
0.177083
0.169023
0.162831
0.157309
0.153056
0.149238
0.146298
0.143677
0.141687
0.139934
0.138657
0.137577
0.136862
0.136331
0.136138
0.25126
0.229943
0.21179
0.198063
0.186144
0.177051
0.169017
0.162851
0.157337
0.153095
0.149279
0.146338
0.143719
0.14173
0.139979
0.138702
0.137622
0.136907
0.136376
0.136183
0.249954
0.229122
0.211221
0.197705
0.185894
0.1769
0.168913
0.162795
0.157301
0.153082
0.149274
0.146334
0.143724
0.141744
0.139995
0.13872
0.137642
0.136929
0.136398
0.136205
0.248075
0.227914
0.210361
0.197141
0.185482
0.176628
0.16871
0.162661
0.1572
0.153015
0.149223
0.146356
0.143694
0.141727
0.139982
0.138711
0.137636
0.136925
0.136397
0.136204
0.245622
0.226323
0.209215
0.196374
0.184909
0.176237
0.16841
0.162451
0.157035
0.152895
0.149124
0.146257
0.143637
0.141678
0.13994
0.138675
0.137606
0.136898
0.136372
0.13618
0.242597
0.224351
0.207783
0.195406
0.184179
0.175728
0.168014
0.162165
0.156807
0.152722
0.148983
0.146134
0.143542
0.141597
0.139869
0.138613
0.13755
0.136847
0.136325
0.136133
0.239003
0.222001
0.206069
0.194239
0.183293
0.175103
0.167524
0.161805
0.156516
0.152499
0.148801
0.145979
0.143413
0.141485
0.13977
0.138524
0.13747
0.136773
0.136255
0.136063
0.234844
0.219277
0.204076
0.192878
0.182256
0.174364
0.166943
0.16137
0.156165
0.152223
0.148576
0.145788
0.14325
0.141343
0.139644
0.13841
0.137366
0.136675
0.136163
0.135972
0.230126
0.216186
0.201809
0.191325
0.18107
0.173512
0.166272
0.160863
0.155754
0.151897
0.148306
0.145552
0.143055
0.141174
0.139491
0.138271
0.137238
0.136555
0.136049
0.135859
0.224855
0.212732
0.199271
0.189583
0.17974
0.172549
0.165516
0.160285
0.155287
0.151521
0.14799
0.145245
0.142836
0.140976
0.139312
0.138108
0.137088
0.136414
0.135914
0.135725
0.219041
0.20892
0.19647
0.187654
0.178271
0.171478
0.164676
0.159638
0.154765
0.151097
0.147637
0.145046
0.142582
0.140753
0.139108
0.137921
0.136916
0.136251
0.135758
0.13557
0.212694
0.204757
0.19341
0.18554
0.176667
0.170301
0.163756
0.158923
0.154189
0.150626
0.147242
0.144692
0.14229
0.140511
0.138878
0.137711
0.136722
0.136068
0.135583
0.135397
0.205826
0.200246
0.190101
0.183243
0.174934
0.169019
0.162759
0.158143
0.153561
0.150111
0.146813
0.144322
0.142015
0.140245
0.138624
0.13748
0.136508
0.135865
0.135389
0.135204
0.198449
0.19539
0.186552
0.180765
0.173077
0.167636
0.161687
0.1573
0.152884
0.149553
0.146348
0.14392
0.141667
0.139921
0.138343
0.137229
0.136274
0.135643
0.135176
0.134993
0.190577
0.190188
0.182774
0.178109
0.1711
0.166155
0.160544
0.156396
0.152159
0.148953
0.145848
0.143487
0.141285
0.1396
0.138024
0.136962
0.136022
0.135403
0.134946
0.134765
0.182219
0.184634
0.178775
0.175274
0.169007
0.164578
0.15933
0.155434
0.151386
0.148313
0.145314
0.143025
0.140878
0.139231
0.137835
0.136683
0.13575
0.135145
0.134699
0.134521
0.173411
0.17873
0.174573
0.172266
0.1668
0.162906
0.158047
0.154413
0.150567
0.147633
0.144747
0.142535
0.140454
0.138858
0.137465
0.136383
0.135454
0.134874
0.134436
0.134261
0.164058
0.172482
0.170196
0.169144
0.164521
0.161191
0.156731
0.153373
0.14973
0.146941
0.144166
0.142033
0.140017
0.138473
0.137103
0.136062
0.135211
0.13459
0.134158
0.133986
0.153899
0.165457
0.165376
0.16568
0.162034
0.159324
0.155297
0.152239
0.148814
0.146181
0.143528
0.141482
0.139538
0.138048
0.136717
0.135709
0.134875
0.134292
0.133866
0.133698
0.139195
0.153892
0.157731
0.159206
0.15732
0.155375
0.152328
0.149749
0.146884
0.144547
0.142227
0.140366
0.138625
0.137254
0.136042
0.135112
0.134343
0.133806
0.133421
0.133269
0.128861
0.141395
0.148215
0.151073
0.151069
0.150188
0.148252
0.146383
0.144191
0.14231
0.140404
0.138833
0.137351
0.136164
0.135107
0.134292
0.133612
0.133134
0.132797
0.132665
0.119422
0.13144
0.139549
0.143474
0.144989
0.145075
0.144158
0.142964
0.141425
0.139994
0.138505
0.137229
0.136011
0.135014
0.13412
0.133422
0.132838
0.132424
0.132133
0.13202
0.110691
0.122857
0.131698
0.136475
0.139184
0.140124
0.14013
0.13956
0.138647
0.137645
0.136568
0.135579
0.134627
0.133818
0.133091
0.132511
0.132026
0.131677
0.131435
0.131338
0.102939
0.115265
0.124583
0.130082
0.133706
0.135402
0.136209
0.136222
0.135887
0.135297
0.134613
0.133905
0.133215
0.132591
0.132032
0.131569
0.131184
0.130901
0.130708
0.130627
0.0962143
0.108544
0.118151
0.124244
0.128574
0.130934
0.132423
0.132977
0.133166
0.132969
0.132656
0.132222
0.131784
0.131345
0.13095
0.130604
0.130318
0.130102
0.129956
0.129891
0.0904276
0.102622
0.112366
0.118917
0.123792
0.126728
0.128793
0.129844
0.130502
0.13068
0.130712
0.130545
0.130347
0.13009
0.129854
0.129623
0.129436
0.129284
0.129186
0.129137
0.0854324
0.0974153
0.107185
0.114064
0.119359
0.122784
0.125338
0.126837
0.127914
0.128444
0.128795
0.128884
0.128913
0.128833
0.12875
0.128635
0.128542
0.128455
0.128403
0.128371
0.0811115
0.0928355
0.102555
0.109656
0.115268
0.119102
0.122066
0.123967
0.125416
0.126273
0.126916
0.12725
0.127493
0.127585
0.127648
0.127645
0.127643
0.127621
0.127612
0.127596
0.0773766
0.0888066
0.098421
0.10566
0.111506
0.115677
0.118985
0.121242
0.123018
0.124177
0.125087
0.125652
0.126095
0.126352
0.126554
0.12666
0.126745
0.126785
0.126818
0.12682
0.0741544
0.085265
0.0947335
0.102044
0.108058
0.112501
0.116097
0.118665
0.12073
0.122164
0.123317
0.124098
0.124727
0.125141
0.125474
0.125686
0.125855
0.125955
0.126028
0.126047
0.0713799
0.0821556
0.0914474
0.0987787
0.104907
0.109568
0.113402
0.116239
0.118558
0.120241
0.121615
0.122596
0.123397
0.12396
0.124416
0.124729
0.124976
0.125135
0.125245
0.125282
0.0689948
0.079429
0.0885225
0.095835
0.102035
0.106866
0.110896
0.113965
0.116506
0.118412
0.119985
0.121151
0.122111
0.122814
0.123386
0.123794
0.124116
0.124329
0.124475
0.124529
0.0669479
0.0770408
0.0859225
0.093187
0.0994238
0.104385
0.108575
0.111842
0.114577
0.116681
0.118434
0.11977
0.120876
0.121708
0.122388
0.122886
0.123278
0.123544
0.123723
0.123793
0.0651944
0.0749516
0.0836148
0.0908099
0.0970557
0.102115
0.106434
0.109869
0.112771
0.115052
0.116966
0.118456
0.119696
0.120648
0.121428
0.12201
0.122468
0.122782
0.122994
0.123079
0.0636949
0.0731267
0.0815702
0.088681
0.0949145
0.100046
0.104466
0.108044
0.11109
0.113526
0.115584
0.117213
0.118575
0.119638
0.12051
0.12117
0.121688
0.122049
0.12229
0.12239
0.0624153
0.0715353
0.0797623
0.0867793
0.0929846
0.0981657
0.102666
0.106362
0.109532
0.112105
0.11429
0.116044
0.117516
0.118681
0.119637
0.12037
0.120945
0.121348
0.121616
0.121731
0.0613257
0.0701504
0.0781679
0.0850858
0.0912514
0.0964647
0.101026
0.104821
0.108096
0.110789
0.113086
0.114953
0.116524
0.117781
0.118814
0.119614
0.12024
0.120683
0.120976
0.121104
0.0604003
0.0689485
0.0767663
0.0835834
0.0897014
0.0949331
0.0995403
0.103417
0.106782
0.109578
0.111974
0.11394
0.115601
0.11694
0.118044
0.118904
0.119578
0.120056
0.120373
0.120513
0.0596168
0.067909
0.0755389
0.0822564
0.0883223
0.0935619
0.0982024
0.102147
0.105586
0.108472
0.110954
0.113009
0.114749
0.116163
0.11733
0.118244
0.118961
0.119472
0.11981
0.119961
0.058956
0.067014
0.0744698
0.0810911
0.0871031
0.0923424
0.0970064
0.101005
0.104508
0.10747
0.110027
0.11216
0.11397
0.11545
0.116673
0.117637
0.118392
0.118933
0.119289
0.11945
0.0584018
0.066248
0.0735446
0.0800752
0.0860335
0.091267
0.0959467
0.0999894
0.103544
0.106572
0.109194
0.111393
0.113265
0.114803
0.116077
0.117084
0.117873
0.11844
0.118814
0.118984
0.0579402
0.0655977
0.0727512
0.079198
0.0851048
0.0903287
0.0950181
0.0990959
0.102694
0.105776
0.108453
0.110711
0.112636
0.114225
0.115542
0.116587
0.117407
0.117997
0.118386
0.118564
0.0575598
0.0650518
0.0720789
0.0784501
0.0843089
0.0895213
0.0942159
0.0983215
0.101954
0.105083
0.107806
0.110113
0.112084
0.113716
0.115071
0.116149
0.116995
0.117606
0.118007
0.118192
0.0572507
0.0646009
0.0715187
0.0778235
0.0836392
0.0888393
0.0935362
0.0976632
0.101324
0.10449
0.107252
0.1096
0.111609
0.113278
0.114665
0.115771
0.116639
0.117267
0.117679
0.117871
0.0570052
0.064237
0.071063
0.0773115
0.0830897
0.088278
0.0929752
0.0971186
0.100802
0.103998
0.106791
0.109173
0.111213
0.112912
0.114325
0.115455
0.11634
0.116983
0.117404
0.1176
0.0568167
0.0639537
0.0707059
0.0769085
0.0826559
0.0878337
0.09253
0.0966856
0.100385
0.103605
0.106422
0.10883
0.110895
0.112618
0.114052
0.1152
0.1161
0.116754
0.117182
0.117383
0.0566806
0.0637463
0.0704423
0.0766102
0.0823337
0.0875031
0.0921982
0.0963623
0.100074
0.103311
0.106146
0.108574
0.110656
0.112397
0.113846
0.115008
0.115919
0.116581
0.117015
0.117219
0.0565932
0.0636108
0.0702687
0.0764132
0.0821204
0.0872841
0.0919779
0.0961476
0.0998671
0.103116
0.105962
0.108402
0.110497
0.11225
0.113709
0.11488
0.115798
0.116466
0.116904
0.117109
0.0565513
0.0635448
0.070182
0.0763158
0.0820138
0.0871753
0.0918677
0.0960407
0.0997635
0.103018
0.105869
0.108317
0.110417
0.112176
0.11364
0.114816
0.115738
0.116408
0.116848
0.117054
0.124382
0.116532
0.108166
0.100199
0.0930351
0.0867403
0.0812647
0.0765331
0.0724708
0.069003
0.0660567
0.0635635
0.0614617
0.0596963
0.0582189
0.056987
0.0559635
0.0551163
0.0544178
0.0538441
0.053375
0.0529935
0.0526853
0.0524385
0.0522433
0.0520919
0.0519778
0.051896
0.0518439
0.0518233
0.114441
0.106205
0.0983951
0.091257
0.0849612
0.07946
0.0746767
0.070551
0.0670245
0.0640309
0.0615029
0.0593774
0.0575979
0.0561143
0.0548829
0.0538653
0.0530284
0.0523432
0.0517849
0.0513323
0.0509672
0.0506744
0.0504408
0.0502558
0.0501104
0.0499976
0.0499116
0.0498477
0.0498036
0.0497849
0.103151
0.0937494
0.0862146
0.0798352
0.0745192
0.0700391
0.0662409
0.0630265
0.0603204
0.0580521
0.0561572
0.054579
0.0532688
0.0521854
0.0512931
0.0505618
0.0499656
0.0494823
0.049093
0.0487814
0.0485336
0.0483377
0.0481836
0.0480628
0.0479684
0.0478944
0.0478365
0.0477905
0.0477542
0.0477352
0.0929219
0.0836621
0.0766584
0.0707971
0.0660859
0.0622497
0.0591107
0.0565385
0.0544331
0.0527117
0.0513062
0.050161
0.0492304
0.0484771
0.0478702
0.0473841
0.0469974
0.0466926
0.0464546
0.0462708
0.0461304
0.0460241
0.0459442
0.0458839
0.0458376
0.0458008
0.0457699
0.0457416
0.0457127
0.0456912
0.0825472
0.0744644
0.0686691
0.0635802
0.0594772
0.0561377
0.0534428
0.0512804
0.0495537
0.04818
0.047092
0.0462354
0.045566
0.0450478
0.0446513
0.0443526
0.044132
0.0439733
0.0438632
0.0437906
0.0437461
0.0437218
0.0437111
0.0437084
0.0437088
0.0437087
0.043705
0.0436952
0.0436747
0.0436506
0.0716286
0.0647176
0.0602865
0.0562188
0.0529486
0.0502494
0.0480694
0.0463327
0.0449677
0.0439082
0.0430976
0.0424884
0.0420413
0.0417237
0.0415084
0.0413732
0.0412998
0.041273
0.0412804
0.0413117
0.0413583
0.0414132
0.0414703
0.0415248
0.0415724
0.0416098
0.0416345
0.0416444
0.0416342
0.0416091
0.0606337
0.0547004
0.0513444
0.0482051
0.0458152
0.0438618
0.0423127
0.0411029
0.0401802
0.0394956
0.0390066
0.0386762
0.0384727
0.0383694
0.0383439
0.0383773
0.0384537
0.0385602
0.0386857
0.0388214
0.0389596
0.0390941
0.0392198
0.0393323
0.0394281
0.0395042
0.0395584
0.0395892
0.0395912
0.0395666
0.0498136
0.0449099
0.042456
0.0400827
0.038459
0.0372024
0.0362844
0.0356287
0.0351866
0.0349169
0.0347861
0.0347656
0.0348313
0.0349624
0.0351418
0.0353548
0.035589
0.035834
0.0360813
0.0363237
0.036555
0.0367703
0.0369654
0.0371368
0.0372814
0.037397
0.0374816
0.0375344
0.0375498
0.0375274
0.0391344
0.0353786
0.0338636
0.0322405
0.0313098
0.0306691
0.0303171
0.0301717
0.0301852
0.0303188
0.0305428
0.0308336
0.031172
0.031542
0.0319306
0.0323269
0.0327217
0.0331076
0.0334781
0.0338281
0.0341532
0.0344497
0.0347144
0.0349449
0.0351388
0.0352943
0.0354099
0.0354853
0.0355153
0.0354965
0.0285541
0.0259786
0.0254444
0.0246335
0.0244103
0.0243666
0.0245432
0.0248665
0.0252983
0.025805
0.0263611
0.0269466
0.027546
0.0281467
0.0287391
0.029315
0.0298681
0.030393
0.0308856
0.0313425
0.0317608
0.032138
0.0324723
0.0327618
0.0330051
0.0332008
0.033348
0.0334466
0.0334921
0.0334785
0.0181003
0.0166756
0.0170966
0.0171229
0.0176297
0.0181995
0.0189066
0.0196887
0.020523
0.0213851
0.0222563
0.0231216
0.0239696
0.0247913
0.0255798
0.0263296
0.0270366
0.0276975
0.0283099
0.028872
0.0293824
0.0298397
0.0302431
0.0305916
0.0308843
0.0311205
0.0312997
0.0314221
0.0314842
0.0314772
0.00780973
0.0075045
0.00883744
0.00968182
0.0109063
0.0120921
0.0133345
0.0145786
0.0158149
0.0170286
0.0182091
0.0193477
0.0204379
0.0214746
0.022454
0.0233734
0.0242308
0.0250248
0.0257548
0.0264206
0.0270219
0.0275587
0.0280308
0.028438
0.0287802
0.0290572
0.0292687
0.0294157
0.029495
0.0294961
-0.0023041
-0.00151166
0.000712092
0.00235086
0.00426394
0.0060478
0.00781521
0.00951705
0.0111534
0.0127174
0.0142054
0.015615
0.0169447
0.0181935
0.0193611
0.0204475
0.021453
0.0223782
0.0232241
0.0239921
0.0246835
0.025299
0.0258394
0.0263051
0.0266968
0.0270148
0.027259
0.0274309
0.0275282
0.0275386
-0.0122415
-0.0103719
-0.00725899
-0.00484139
-0.00226179
9.78602e-05
0.00237231
0.00451931
0.00654727
0.00845571
0.0102473
0.0119248
0.0134913
0.0149498
0.0163035
0.017555
0.018707
0.0197617
0.0207218
0.021591
0.0223715
0.0230651
0.0236733
0.0241973
0.0246384
0.0249973
0.0252745
0.0254717
0.0255876
0.0256084
-0.022009
-0.0190749
-0.0150698
-0.0118917
-0.00865717
-0.00574091
-0.00297478
-0.000396061
0.00201209
0.00425621
0.00634455
0.00828473
0.010084
0.0117491
0.0132862
0.0147008
0.0159975
0.0171801
0.0182525
0.0192214
0.0200903
0.0208614
0.0215369
0.0221188
0.022609
0.0230089
0.0233192
0.023542
0.0236769
0.023709
-0.0316129
-0.027598
-0.0227117
-0.0188022
-0.0149183
-0.0114686
-0.00821982
-0.00522128
-0.00244315
0.000127918
0.00250569
0.00470253
0.00672972
0.00859741
0.0103148
0.0118899
0.0133296
0.0146384
0.0158203
0.0168879
0.0178444
0.0186923
0.0194345
0.0200739
0.0206129
0.0210535
0.021397
0.0216454
0.0217998
0.0218438
-0.0410502
-0.0358885
-0.0301823
-0.0255691
-0.0210458
-0.0170843
-0.0133606
-0.00995408
-0.00681477
-0.00392456
-0.0012642
0.00118346
0.00343366
0.00549986
0.00739406
0.00912704
0.0107081
0.0121427
0.0134285
0.0145945
0.0156381
0.0165619
0.0173702
0.0180665
0.018654
0.0191352
0.0195116
0.0197857
0.0199598
0.0200163
-0.0502364
-0.0438724
-0.0375057
-0.0321783
-0.0270721
-0.0225609
-0.0183935
-0.0145925
-0.0111004
-0.00789866
-0.00496214
-0.00226906
0.000199578
0.00246039
0.0045281
0.00641606
0.00813687
0.00969931
0.0110796
0.0123458
0.0134758
0.0144747
0.0153482
0.0161008
0.0167362
0.0172575
0.0176668
0.0179664
0.0181603
0.0182298
-0.0592016
-0.0517537
-0.044759
-0.0386827
-0.0330341
-0.0279418
-0.0233148
-0.0191283
-0.015296
-0.0117916
-0.00858562
-0.00565246
-0.00296977
-0.000517985
0.00172018
0.00376015
0.0056165
0.00731772
0.00877342
0.0101477
0.0113621
0.0124348
0.0133726
0.0141806
0.0148633
0.0154243
0.0158661
0.0161909
0.0164042
0.0164878
-0.0678484
-0.0595228
-0.0518655
-0.0450734
-0.0388689
-0.033247
-0.0281816
-0.0236035
-0.0194287
-0.0156215
-0.0121471
-0.00897512
-0.00607982
-0.00343863
-0.00103177
0.00115804
0.00314659
0.0049514
0.00655519
0.00800934
0.00930344
0.0104475
0.0114478
0.0123101
0.0130392
0.0136392
0.014113
0.0144632
0.0146938
0.0147941
-0.0762163
-0.0671361
-0.0587814
-0.0513183
-0.044555
-0.0384642
-0.0329713
-0.0280043
-0.0234882
-0.0193802
-0.0156392
-0.0122306
-0.00912468
-0.00629601
-0.00372225
-0.00138392
0.000737094
0.00265722
0.00437727
0.00592114
0.00729621
0.00851148
0.00957404
0.0104902
0.0112653
0.0119039
0.0124094
0.0127846
0.013033
0.0131474
-0.0844053
-0.0745943
-0.0655118
-0.0574096
-0.0501098
-0.0435649
-0.0376543
-0.0323087
-0.0274587
-0.0230552
-0.0190519
-0.01541
-0.0120966
-0.00908305
-0.00634443
-0.00385892
-0.00160681
0.000427497
0.00225247
0.00388825
0.00534448
0.00663068
0.00775502
0.00872452
0.00954512
0.0102218
0.0107585
0.0111583
0.0114251
0.0115513
-0.0924752
-0.0819023
-0.0720911
-0.0633694
-0.055552
-0.04855
-0.0422275
-0.0365131
-0.0313371
-0.0266435
-0.0223821
-0.0185106
-0.0149926
-0.0117966
-0.00889537
-0.00626499
-0.00388472
-0.00173773
0.000190513
0.00191715
0.00345336
0.00480958
0.00599486
0.00701691
0.00788226
0.00859639
0.00916359
0.00958744
0.00987214
0.01001
-0.100428
-0.0890806
-0.0785501
-0.0692219
-0.0608933
-0.0534327
-0.0467025
-0.0406256
-0.0351278
-0.0301477
-0.0256314
-0.0215329
-0.0178126
-0.0144363
-0.0113745
-0.00860138
-0.00609446
-0.0038345
-0.00180453
1.14149e-05
0.00162625
0.00305138
0.0042966
0.00537029
0.00627957
0.00703037
0.00762739
0.00807455
0.0083765
0.00852612
-0.10826
-0.0961492
-0.0849076
-0.0749803
-0.0661419
-0.0582249
-0.0510903
-0.0446535
-0.0388357
-0.0335709
-0.0288015
-0.0244778
-0.0205568
-0.0170018
-0.0137809
-0.0108662
-0.00823312
-0.00586078
-0.00373091
-0.00182694
-0.000134605
0.00135837
0.00266255
0.00378698
0.00473932
0.00552601
0.00615212
0.00662186
0.00694037
0.0071015
-0.115983
-0.103127
-0.0911747
-0.0806506
-0.0713042
-0.0629343
-0.0553972
-0.0486006
-0.0424628
-0.0369143
-0.0318931
-0.0273452
-0.0232245
-0.0194918
-0.0161128
-0.0130573
-0.010299
-0.00781555
-0.00558717
-0.00359621
-0.00182736
-0.000267507
0.0010947
0.00226898
0.00326355
0.00408533
0.00473978
0.00523137
0.00556569
0.00573769
-0.123622
-0.110034
-0.0973617
-0.0862383
-0.0763862
-0.0675666
-0.0596267
-0.0524689
-0.0460106
-0.0401789
-0.0349065
-0.0301347
-0.0258149
-0.0219053
-0.0183689
-0.0151735
-0.0122911
-0.00969758
-0.00737169
-0.00529468
-0.00345028
-0.00182447
-0.000405118
0.000818141
0.00185411
0.00271016
0.00339219
0.00390488
0.00425422
0.00443633
-0.13121
-0.116893
-0.103479
-0.0917498
-0.0813949
-0.072128
-0.0637827
-0.0562601
-0.0494803
-0.0433657
-0.037842
-0.0328462
-0.0283275
-0.0242414
-0.0205484
-0.0172139
-0.0142082
-0.0115055
-0.00908297
-0.00692082
-0.00500178