/*--------------------------------*- C++ -*----------------------------------*\
  =========                 |
  \\      /  F ield         | OpenFOAM: The Open Source CFD Toolbox
   \\    /   O peration     | Website:  https://openfoam.org
    \\  /    A nd           | Version:  7
     \\/     M anipulation  |
\*---------------------------------------------------------------------------*/
FoamFile
{
    version     2.0;
    format      ascii;
    class       volScalarField;
    location    "55";
    object      p;
}
// * * * * * * * * * * * * * * * * * * * * * * * * * * * * * * * * * * * * * //

dimensions      [0 2 -2 0 0 0 0];

internalField   nonuniform List<scalar> 
14000
(
-0.230186
-0.233788
-0.235244
-0.236908
-0.238627
-0.240232
-0.241458
-0.24203
-0.242393
-0.240427
-0.231247
-0.23464
-0.236017
-0.237628
-0.23931
-0.240915
-0.242209
-0.242498
-0.243499
-0.240512
-0.233256
-0.236246
-0.237452
-0.23894
-0.240527
-0.242074
-0.243659
-0.24296
-0.245841
-0.240297
-0.236018
-0.238438
-0.239354
-0.240616
-0.24202
-0.243284
-0.24571
-0.242669
-0.249429
-0.238928
-0.239305
-0.241019
-0.241493
-0.24237
-0.243518
-0.244093
-0.248021
-0.241294
-0.252471
-0.237539
-0.242919
-0.243817
-0.243661
-0.243939
-0.244713
-0.244506
-0.248907
-0.239915
-0.254361
-0.236236
-0.246748
-0.24673
-0.24574
-0.245203
-0.245239
-0.244578
-0.248628
-0.238353
-0.252393
-0.236786
-0.250813
-0.249752
-0.247735
-0.246177
-0.245271
-0.244166
-0.246513
-0.238062
-0.245758
-0.236142
-0.255313
-0.252973
-0.249811
-0.247047
-0.245025
-0.243321
-0.242817
-0.237363
-0.23672
-0.230288
-0.260571
-0.25667
-0.252224
-0.248105
-0.244815
-0.241901
-0.238503
-0.233361
-0.226304
-0.219367
-0.266948
-0.261219
-0.255319
-0.249655
-0.244754
-0.239829
-0.233591
-0.226173
-0.214916
-0.204974
-0.274892
-0.267
-0.259374
-0.251839
-0.244754
-0.237005
-0.227575
-0.216838
-0.203787
-0.191749
-0.284872
-0.274341
-0.264531
-0.25474
-0.244626
-0.233229
-0.22035
-0.206796
-0.192107
-0.178978
-0.297292
-0.283382
-0.27097
-0.258287
-0.244019
-0.228346
-0.212138
-0.196007
-0.180211
-0.166736
-0.31242
-0.293864
-0.278938
-0.262044
-0.242436
-0.222241
-0.202834
-0.184669
-0.168098
-0.154003
-0.330228
-0.305444
-0.287951
-0.26509
-0.239358
-0.214694
-0.19246
-0.172628
-0.155377
-0.14077
-0.349536
-0.318173
-0.296293
-0.266171
-0.234259
-0.205515
-0.180821
-0.15967
-0.14191
-0.126691
-0.368316
-0.331869
-0.302081
-0.264149
-0.226654
-0.194407
-0.167702
-0.145562
-0.127392
-0.11178
-0.384394
-0.344864
-0.304204
-0.258329
-0.216081
-0.181055
-0.152819
-0.130024
-0.111702
-0.0960435
-0.396101
-0.354268
-0.301781
-0.248313
-0.202159
-0.165115
-0.135885
-0.112818
-0.0946444
-0.0794457
-0.402315
-0.35743
-0.293632
-0.233705
-0.184572
-0.146287
-0.116653
-0.0937483
-0.0760565
-0.061592
-0.402057
-0.352431
-0.278885
-0.21408
-0.163056
-0.124337
-0.0949639
-0.0727717
-0.0558453
-0.0419233
-0.394156
-0.338207
-0.257023
-0.189076
-0.137396
-0.0991617
-0.0707877
-0.0499346
-0.0340384
-0.0204527
-0.377223
-0.314247
-0.227721
-0.158484
-0.107563
-0.070883
-0.0442599
-0.0252697
-0.0104333
0.00174244
-0.349902
-0.280422
-0.190751
-0.122431
-0.0738255
-0.0398117
-0.015623
0.00138419
0.0147286
0.0246636
-0.31126
-0.236858
-0.146199
-0.0814567
-0.0365631
-0.00595078
0.0150775
0.0297012
0.0409423
0.0481076
-0.261067
-0.183595
-0.0950745
-0.0358113
0.00406301
0.0303012
0.0475406
0.0591588
0.0675299
0.0713412
-0.19976
-0.12052
-0.038767
0.0138272
0.0475085
0.0685013
0.0813538
0.0891707
0.0936238
0.0933665
-0.127883
-0.049796
0.0219955
0.0664656
0.0930614
0.108136
0.116062
0.119275
0.118727
0.113927
-0.0459085
0.0249209
0.0860863
0.121096
0.139887
0.148548
0.151099
0.149195
0.143419
0.134785
0.0426661
0.102367
0.151943
0.176611
0.187061
0.188931
0.185727
0.178527
0.168232
0.160585
0.134714
0.18092
0.217898
0.231767
0.233587
0.228439
0.219252
0.206915
0.19328
0.185225
0.226877
0.258474
0.28225
0.285242
0.278412
0.266257
0.25125
0.2343
0.217757
0.207277
0.315811
0.332795
0.34331
0.335698
0.32046
0.301517
0.281017
0.259942
0.240622
0.227075
0.398283
0.401673
0.399438
0.38184
0.358736
0.333496
0.308001
0.283196
0.261058
0.244304
0.471462
0.462953
0.449049
0.422424
0.392261
0.361426
0.331578
0.303524
0.278728
0.258889
0.533205
0.514463
0.490654
0.456343
0.420193
0.384643
0.351161
0.320377
0.293244
0.270656
0.581489
0.554526
0.52299
0.48265
0.441812
0.40259
0.366298
0.333386
0.304357
0.279501
0.614649
0.581922
0.545089
0.500606
0.456546
0.414809
0.376602
0.342234
0.311874
0.285386
0.631525
0.59583
0.556302
0.509711
0.464012
0.420998
0.381819
0.346711
0.315663
0.288317
0.631526
0.59583
0.556302
0.509711
0.464012
0.420998
0.381819
0.346711
0.315663
0.288317
0.61465
0.581923
0.545089
0.500606
0.456546
0.41481
0.376602
0.342234
0.311874
0.285386
0.58149
0.554526
0.52299
0.48265
0.441812
0.40259
0.366298
0.333387
0.304357
0.279502
0.533207
0.514463
0.490655
0.456344
0.420194
0.384644
0.351161
0.320378
0.293244
0.270657
0.471463
0.462954
0.44905
0.422425
0.392262
0.361427
0.331579
0.303524
0.278729
0.25889
0.398284
0.401674
0.399439
0.381841
0.358737
0.333497
0.308002
0.283196
0.261059
0.244305
0.315813
0.332797
0.343312
0.335699
0.320461
0.301518
0.281017
0.259943
0.240623
0.227075
0.226879
0.258476
0.282251
0.285243
0.278413
0.266258
0.251251
0.234301
0.217757
0.207278
0.134716
0.180922
0.217899
0.231769
0.233588
0.22844
0.219253
0.206916
0.193281
0.185226
0.0426688
0.10237
0.151945
0.176613
0.187063
0.188933
0.185728
0.178528
0.168233
0.160586
-0.0459056
0.0249233
0.0860884
0.121097
0.139889
0.148549
0.1511
0.149196
0.14342
0.134786
-0.12788
-0.0497934
0.0219977
0.0664675
0.0930631
0.108137
0.116064
0.119276
0.118728
0.113928
-0.199757
-0.120517
-0.0387646
0.0138293
0.0475103
0.068503
0.0813553
0.0891721
0.0936252
0.0933678
-0.261064
-0.183592
-0.095072
-0.0358091
0.00406498
0.030303
0.0475423
0.0591603
0.0675313
0.0713425
-0.311256
-0.236855
-0.146196
-0.0814544
-0.036561
-0.00594886
0.0150793
0.0297028
0.0409439
0.0481091
-0.349899
-0.280419
-0.190748
-0.122429
-0.0738233
-0.0398096
-0.0156211
0.001386
0.0147303
0.0246652
-0.377219
-0.314244
-0.227719
-0.158482
-0.107561
-0.0708809
-0.0442579
-0.0252678
-0.0104315
0.00174418
-0.394153
-0.338204
-0.25702
-0.189074
-0.137394
-0.0991594
-0.0707856
-0.0499325
-0.0340364
-0.0204508
-0.402053
-0.352427
-0.278882
-0.214077
-0.163053
-0.124334
-0.0949616
-0.0727695
-0.0558431
-0.0419212
-0.402312
-0.357427
-0.293629
-0.233702
-0.18457
-0.146284
-0.11665
-0.0937458
-0.0760541
-0.0615898
-0.396098
-0.354265
-0.301778
-0.24831
-0.202156
-0.165112
-0.135882
-0.112815
-0.0946418
-0.0794432
-0.384391
-0.344861
-0.304201
-0.258326
-0.216078
-0.181052
-0.152816
-0.130021
-0.111699
-0.0960407
-0.368313
-0.331866
-0.302078
-0.264146
-0.226651
-0.194404
-0.167699
-0.145559
-0.127389
-0.111776
-0.349533
-0.31817
-0.29629
-0.266168
-0.234257
-0.205512
-0.180818
-0.159667
-0.141906
-0.126687
-0.330225
-0.305441
-0.287948
-0.265088
-0.239355
-0.21469
-0.192457
-0.172625
-0.155373
-0.140766
-0.312418
-0.293862
-0.278936
-0.262042
-0.242433
-0.222238
-0.20283
-0.184665
-0.168093
-0.153998
-0.29729
-0.28338
-0.270968
-0.258285
-0.244017
-0.228342
-0.212134
-0.196002
-0.180205
-0.16673
-0.28487
-0.274339
-0.264529
-0.254738
-0.244624
-0.233226
-0.220345
-0.206791
-0.1921
-0.178971
-0.27489
-0.266998
-0.259373
-0.251837
-0.244751
-0.237002
-0.22757
-0.216831
-0.203779
-0.191741
-0.266946
-0.261217
-0.255317
-0.249653
-0.244752
-0.239826
-0.233585
-0.226165
-0.214906
-0.204963
-0.260569
-0.256668
-0.252222
-0.248104
-0.244812
-0.241897
-0.238498
-0.233352
-0.226292
-0.219353
-0.25531
-0.252971
-0.249809
-0.247045
-0.245023
-0.243318
-0.242811
-0.237353
-0.236707
-0.230271
-0.25081
-0.24975
-0.247733
-0.246174
-0.245268
-0.244161
-0.246506
-0.238051
-0.245743
-0.236123
-0.246745
-0.246727
-0.245738
-0.2452
-0.245235
-0.244573
-0.248621
-0.238342
-0.252377
-0.236765
-0.242915
-0.243814
-0.243659
-0.243936
-0.244709
-0.2445
-0.2489
-0.239903
-0.254345
-0.236213
-0.239302
-0.241017
-0.24149
-0.242367
-0.243515
-0.244088
-0.248014
-0.241282
-0.252455
-0.237517
-0.236015
-0.238436
-0.239352
-0.240613
-0.242017
-0.243279
-0.245703
-0.242659
-0.249415
-0.238909
-0.233254
-0.236244
-0.23745
-0.238938
-0.240524
-0.242071
-0.243654
-0.242952
-0.24583
-0.240282
-0.231246
-0.234639
-0.236015
-0.237626
-0.239308
-0.240912
-0.242205
-0.242493
-0.243492
-0.240502
-0.230185
-0.233788
-0.235243
-0.236907
-0.238626
-0.240231
-0.241456
-0.242028
-0.242391
-0.240424
-0.239604
-0.238817
-0.237929
-0.236952
-0.235891
-0.234755
-0.23355
-0.232281
-0.230951
-0.229564
-0.228122
-0.226626
-0.225077
-0.223474
-0.221817
-0.220107
-0.218346
-0.216538
-0.214682
-0.212776
-0.210822
-0.208817
-0.206763
-0.204658
-0.202503
-0.200298
-0.198042
-0.195734
-0.193376
-0.190967
-0.188507
-0.185997
-0.183435
-0.180824
-0.178164
-0.175455
-0.172698
-0.169895
-0.167046
-0.164152
-0.161217
-0.15824
-0.155225
-0.152173
-0.149086
-0.145967
-0.142819
-0.139645
-0.136447
-0.133228
-0.129992
-0.126742
-0.123482
-0.120214
-0.116943
-0.113673
-0.110407
-0.107148
-0.103902
-0.10067
-0.0974575
-0.0942673
-0.0911029
-0.087968
-0.0848656
-0.081799
-0.0787714
-0.0757855
-0.0728443
-0.0699501
-0.0671055
-0.0643128
-0.0615739
-0.0588908
-0.0562651
-0.0536984
-0.0511919
-0.0487469
-0.0463642
-0.0440447
-0.041789
-0.0395974
-0.0374704
-0.035408
-0.0334102
-0.0314771
-0.0296082
-0.0278032
-0.0260617
-0.0243831
-0.0227668
-0.021212
-0.019718
-0.018284
-0.016909
-0.0155921
-0.0143324
-0.013129
-0.0119807
-0.0108867
-0.00984596
-0.00885764
-0.00792066
-0.00703412
-0.00619716
-0.00540894
-0.00466871
-0.00397576
-0.00332946
-0.00272929
-0.00217481
-0.00166572
-0.00120191
-0.000783348
-0.000410528
-8.32205e-05
0.000194073
0.0004353
0.000562191
0.000875762
-0.240085
-0.239267
-0.238342
-0.237341
-0.23626
-0.235107
-0.233889
-0.232611
-0.231276
-0.229885
-0.228441
-0.226944
-0.225394
-0.223791
-0.222131
-0.220418
-0.218662
-0.216858
-0.215005
-0.213103
-0.211152
-0.20915
-0.207099
-0.204998
-0.202846
-0.200645
-0.198392
-0.196089
-0.193735
-0.19133
-0.188874
-0.186368
-0.183811
-0.181203
-0.178547
-0.175841
-0.173088
-0.170288
-0.167442
-0.164552
-0.161619
-0.158645
-0.155631
-0.152581
-0.149496
-0.146378
-0.143231
-0.140057
-0.136859
-0.133639
-0.130402
-0.127151
-0.123889
-0.120619
-0.117346
-0.114072
-0.110802
-0.107539
-0.104287
-0.10105
-0.0978317
-0.0946353
-0.0914643
-0.0883224
-0.0852129
-0.0821392
-0.0791043
-0.0761074
-0.0731589
-0.0702568
-0.0674038
-0.0646025
-0.061855
-0.0591632
-0.0565289
-0.0539536
-0.0514387
-0.0489852
-0.0465943
-0.0442667
-0.042003
-0.0398037
-0.0376692
-0.0355995
-0.0335948
-0.0316549
-0.0297795
-0.0279684
-0.026221
-0.0245368
-0.0229151
-0.0213553
-0.0198566
-0.018418
-0.0170388
-0.015718
-0.0144546
-0.0132477
-0.0120962
-0.0109992
-0.00995569
-0.00896466
-0.00802517
-0.00713629
-0.00629712
-0.00550682
-0.00476457
-0.00406967
-0.00342144
-0.00281932
-0.00226284
-0.00175162
-0.00128549
-0.000864233
-0.000488445
-0.000156807
0.000123995
0.000375281
0.000500127
0.000803039
-0.240954
-0.239985
-0.23899
-0.237962
-0.236863
-0.235694
-0.234464
-0.233177
-0.231837
-0.230446
-0.229004
-0.227511
-0.225968
-0.224369
-0.222716
-0.221018
-0.219269
-0.21747
-0.215622
-0.213725
-0.211779
-0.209784
-0.207739
-0.205644
-0.203499
-0.201303
-0.199057
-0.19676
-0.194412
-0.192013
-0.189563
-0.187063
-0.184512
-0.181911
-0.17926
-0.17656
-0.173812
-0.171017
-0.168176
-0.16529
-0.16236
-0.159389
-0.156378
-0.15333
-0.150246
-0.147129
-0.143982
-0.140808
-0.137608
-0.134387
-0.131147
-0.127893
-0.124632
-0.121338
-0.118064
-0.114785
-0.111508
-0.108237
-0.104977
-0.101731
-0.0985028
-0.0952959
-0.092114
-0.0889606
-0.085839
-0.0827527
-0.0797047
-0.0766979
-0.0737355
-0.0708199
-0.0679535
-0.0651388
-0.0623779
-0.0596728
-0.0570252
-0.0544367
-0.0519088
-0.0494424
-0.0470388
-0.0446988
-0.0424229
-0.0402117
-0.0380655
-0.0359846
-0.0339688
-0.0320182
-0.0301325
-0.0283113
-0.0265542
-0.0248607
-0.02323
-0.0216615
-0.0201544
-0.0187078
-0.0173209
-0.0159926
-0.0147221
-0.0135083
-0.0123501
-0.0112467
-0.010197
-0.00919993
-0.00825457
-0.00735996
-0.00651516
-0.0057193
-0.00497154
-0.0042711
-0.00361729
-0.00300944
-0.00244704
-0.00192955
-0.00145677
-0.00102799
-0.000644329
-0.000302012
-1.26402e-05
0.000257812
0.000386322
0.000677019
-0.243096
-0.24066
-0.23977
-0.23862
-0.237495
-0.236317
-0.235088
-0.233807
-0.232476
-0.231093
-0.229659
-0.228175
-0.226639
-0.225047
-0.2234
-0.221713
-0.219971
-0.218184
-0.21635
-0.214467
-0.212537
-0.210553
-0.208508
-0.20643
-0.204299
-0.202117
-0.199884
-0.1976
-0.195265
-0.192878
-0.19044
-0.18795
-0.18541
-0.182818
-0.180177
-0.177485
-0.174745
-0.171957
-0.169123
-0.166243
-0.163318
-0.160352
-0.157345
-0.154299
-0.151218
-0.148102
-0.144955
-0.14178
-0.138579
-0.135355
-0.132112
-0.128852
-0.125581
-0.122299
-0.119013
-0.115725
-0.11244
-0.10916
-0.10589
-0.102633
-0.0993936
-0.0961751
-0.0929811
-0.0898151
-0.0866806
-0.0835809
-0.0805191
-0.0774983
-0.0745215
-0.0715914
-0.0687104
-0.0658811
-0.0631054
-0.0603855
-0.0577231
-0.0551199
-0.0525773
-0.0500964
-0.0476784
-0.045324
-0.0430341
-0.040809
-0.0386492
-0.0365548
-0.0345258
-0.0325622
-0.0306638
-0.0288302
-0.0270609
-0.0253554
-0.0237131
-0.0221332
-0.0206149
-0.0191573
-0.0177597
-0.0164209
-0.01514
-0.013916
-0.0127479
-0.0116346
-0.0105751
-0.00956837
-0.00861341
-0.00770921
-0.00685482
-0.0060493
-0.00529178
-0.0045814
-0.0039174
-0.00329901
-0.00272565
-0.0021965
-0.00171147
-0.00126892
-0.000871203
-0.000510703
-0.000205938
9.06664e-05
0.000237722
0.000524704
-0.241863
-0.241544
-0.240291
-0.239086
-0.237952
-0.236785
-0.235568
-0.234308
-0.233001
-0.231647
-0.230244
-0.228793
-0.22729
-0.225732
-0.224113
-0.222446
-0.220729
-0.21896
-0.21714
-0.215271
-0.213352
-0.211384
-0.209365
-0.207295
-0.205174
-0.203003
-0.200781
-0.198507
-0.196183
-0.193807
-0.19138
-0.188901
-0.186371
-0.18379
-0.181159
-0.178478
-0.175747
-0.172968
-0.170142
-0.16727
-0.164353
-0.161393
-0.158392
-0.155352
-0.152275
-0.149163
-0.146019
-0.142846
-0.139647
-0.136424
-0.133181
-0.129921
-0.126647
-0.123362
-0.120072
-0.11678
-0.11349
-0.110205
-0.106928
-0.103665
-0.100418
-0.0971914
-0.0939887
-0.0908134
-0.0876692
-0.0845592
-0.0814867
-0.0784548
-0.0754665
-0.0725246
-0.0696315
-0.0667897
-0.0640015
-0.0612687
-0.0585933
-0.0559769
-0.0534209
-0.0509267
-0.0484952
-0.0461273
-0.0438237
-0.041585
-0.0394115
-0.0373034
-0.0352609
-0.0332836
-0.0313716
-0.0295244
-0.0277416
-0.0260226
-0.0243667
-0.0227733
-0.0212416
-0.0197706
-0.0183595
-0.0170073
-0.015713
-0.0144756
-0.013294
-0.0121672
-0.0110941
-0.0100737
-0.00910489
-0.00818666
-0.00731801
-0.00649795
-0.00572554
-0.00499985
-0.00432003
-0.00368514
-0.00309459
-0.00254712
-0.00204294
-0.0015791
-0.00115969
-0.000772868
-0.000443371
-0.00011475
7.04554e-05
0.000367952
-0.238997
-0.239907
-0.239607
-0.238821
-0.237839
-0.236761
-0.235632
-0.234444
-0.233185
-0.231861
-0.230485
-0.229059
-0.227577
-0.226035
-0.224423
-0.222741
-0.221063
-0.219347
-0.217573
-0.215741
-0.213857
-0.211921
-0.209934
-0.207896
-0.205807
-0.203666
-0.201471
-0.199224
-0.196925
-0.194572
-0.192167
-0.189709
-0.187199
-0.184637
-0.182024
-0.17936
-0.176645
-0.173882
-0.171071
-0.168213
-0.165309
-0.162362
-0.159373
-0.156345
-0.153278
-0.150177
-0.147042
-0.143878
-0.140686
-0.137471
-0.134234
-0.13098
-0.127712
-0.124433
-0.121147
-0.117858
-0.114571
-0.111287
-0.108012
-0.104749
-0.101502
-0.0982746
-0.0950704
-0.091893
-0.088746
-0.0856327
-0.0825563
-0.0795199
-0.0765264
-0.0735787
-0.0706793
-0.0678307
-0.065035
-0.0622943
-0.0596104
-0.0569851
-0.0544197
-0.0519155
-0.0494736
-0.0470949
-0.0447801
-0.0425298
-0.0403442
-0.0382238
-0.0361684
-0.034178
-0.0322525
-0.0303915
-0.0285945
-0.0268611
-0.0251905
-0.023582
-0.0220349
-0.0205483
-0.0191213
-0.0177529
-0.0164421
-0.0151879
-0.0139891
-0.0128449
-0.011754
-0.0107153
-0.00972794
-0.00879066
-0.00790246
-0.00706229
-0.00626914
-0.00552196
-0.00481986
-0.00416167
-0.00354679
-0.00297346
-0.00244228
-0.00194895
-0.00149905
-0.00107776
-0.000712445
-0.000345858
-0.000104437
0.000219243
-0.235494
-0.236276
-0.237027
-0.236997
-0.236334
-0.235486
-0.234631
-0.233688
-0.232599
-0.2314
-0.230137
-0.22882
-0.227441
-0.225995
-0.224475
-0.22286
-0.221138
-0.219405
-0.217692
-0.215933
-0.214105
-0.212208
-0.210249
-0.208235
-0.206167
-0.204047
-0.201874
-0.19965
-0.197374
-0.195047
-0.192666
-0.190232
-0.187746
-0.185207
-0.182617
-0.179975
-0.177284
-0.174543
-0.171754
-0.168918
-0.166036
-0.16311
-0.160143
-0.157135
-0.154089
-0.151008
-0.147893
-0.144749
-0.141576
-0.13838
-0.135162
-0.131925
-0.128675
-0.125413
-0.122143
-0.11887
-0.115597
-0.112327
-0.109066
-0.105815
-0.10258
-0.0993632
-0.0961689
-0.0930006
-0.0898617
-0.0867555
-0.0836852
-0.080654
-0.0776648
-0.0747202
-0.071823
-0.0689754
-0.0661798
-0.0634382
-0.0607525
-0.0581242
-0.0555549
-0.0530458
-0.050598
-0.0482125
-0.04589
-0.043631
-0.0414359
-0.039305
-0.0372384
-0.0352359
-0.0332975
-0.0314229
-0.0296115
-0.0278629
-0.0261765
-0.0245516
-0.0229873
-0.0214829
-0.0200375
-0.01865
-0.0173194
-0.0160449
-0.0148252
-0.0136594
-0.0125462
-0.0114847
-0.0104737
-0.00951206
-0.00859873
-0.00773257
-0.00691252
-0.00613739
-0.00540623
-0.00471764
-0.00407103
-0.00346418
-0.00289789
-0.00236702
-0.00187753
-0.00141406
-0.0010019
-0.000590851
-0.000280238
8.38233e-05
-0.232364
-0.23208
-0.233388
-0.233691
-0.233048
-0.232405
-0.231938
-0.231336
-0.230475
-0.229448
-0.228337
-0.227152
-0.225884
-0.224537
-0.223119
-0.221629
-0.220058
-0.218378
-0.216599
-0.214834
-0.213146
-0.21141
-0.209593
-0.207695
-0.205719
-0.203674
-0.201565
-0.1994
-0.197183
-0.194913
-0.192588
-0.190206
-0.18777
-0.185281
-0.182739
-0.180144
-0.177498
-0.174801
-0.172055
-0.16926
-0.166419
-0.163533
-0.160604
-0.157634
-0.154626
-0.151581
-0.148502
-0.145393
-0.142255
-0.139092
-0.135907
-0.132704
-0.129485
-0.126254
-0.123015
-0.119771
-0.116527
-0.113285
-0.11005
-0.106825
-0.103614
-0.100421
-0.0972482
-0.0941006
-0.0909811
-0.087893
-0.0848395
-0.0818236
-0.0788481
-0.0759159
-0.0730295
-0.0701913
-0.0674036
-0.0646683
-0.0619874
-0.0593624
-0.0567949
-0.0542862
-0.0518373
-0.0494492
-0.0471227
-0.0448583
-0.0426565
-0.0405175
-0.0384415
-0.0364284
-0.0344782
-0.0325904
-0.0307649
-0.029001
-0.0272981
-0.0256557
-0.0240729
-0.0225489
-0.0210829
-0.019674
-0.018321
-0.0170231
-0.0157791
-0.014588
-0.0134487
-0.0123601
-0.0113209
-0.0103302
-0.00938664
-0.00848913
-0.00763653
-0.00682755
-0.00606113
-0.00533573
-0.00465064
-0.00400342
-0.00339466
-0.00281923
-0.00228201
-0.00176959
-0.00130134
-0.000839039
-0.000451304
-3.53411e-05
-0.226787
-0.226867
-0.228724
-0.228713
-0.227834
-0.227501
-0.227531
-0.227349
-0.226858
-0.226198
-0.225431
-0.224546
-0.223539
-0.222424
-0.22121
-0.219902
-0.218503
-0.217015
-0.215421
-0.213671
-0.211751
-0.209883
-0.208156
-0.206395
-0.204549
-0.202609
-0.200584
-0.198493
-0.196348
-0.194146
-0.191882
-0.189558
-0.187178
-0.184745
-0.182258
-0.179718
-0.177127
-0.174484
-0.171793
-0.169054
-0.166268
-0.163437
-0.160564
-0.157649
-0.154696
-0.151706
-0.148682
-0.145627
-0.142544
-0.139435
-0.136303
-0.133152
-0.129986
-0.126806
-0.123617
-0.120423
-0.117227
-0.114033
-0.110843
-0.107663
-0.104495
-0.101343
-0.0982103
-0.0951005
-0.092017
-0.088963
-0.0859415
-0.0829556
-0.0800081
-0.0771016
-0.0742387
-0.0714218
-0.0686531
-0.0659347
-0.0632683
-0.0606558
-0.0580985
-0.0555978
-0.0531548
-0.0507705
-0.0484457
-0.0461809
-0.0439768
-0.0418335
-0.0397514
-0.0377303
-0.0357702
-0.033871
-0.0320323
-0.0302535
-0.0285343
-0.026874
-0.0252719
-0.0237272
-0.0222391
-0.0208067
-0.019429
-0.018105
-0.0168337
-0.0156141
-0.014445
-0.0133253
-0.0122539
-0.0112295
-0.0102511
-0.00931731
-0.00842699
-0.00757878
-0.00677151
-0.00600357
-0.005274
-0.00458047
-0.00392288
-0.00329693
-0.00270531
-0.0021382
-0.00160707
-0.00108709
-0.000617379
-0.000138369
-0.21888
-0.220972
-0.222521
-0.221527
-0.220441
-0.22032
-0.220518
-0.220514
-0.220303
-0.219978
-0.219546
-0.218989
-0.218312
-0.217524
-0.216627
-0.215624
-0.214517
-0.213311
-0.212014
-0.210633
-0.209147
-0.207477
-0.205591
-0.203787
-0.202091
-0.200327
-0.198462
-0.196539
-0.194566
-0.19253
-0.190421
-0.188242
-0.185999
-0.183695
-0.181331
-0.178909
-0.17643
-0.173896
-0.171308
-0.168669
-0.165981
-0.163245
-0.160463
-0.157637
-0.15477
-0.151865
-0.148923
-0.145948
-0.142942
-0.139908
-0.136849
-0.133769
-0.130671
-0.127557
-0.124432
-0.1213
-0.118162
-0.115024
-0.111888
-0.108759
-0.105639
-0.102533
-0.0994432
-0.0963737
-0.0933276
-0.0903081
-0.0873185
-0.0843616
-0.0814403
-0.0785572
-0.0757148
-0.0729157
-0.070162
-0.0674559
-0.0647993
-0.0621938
-0.059641
-0.0571424
-0.0546991
-0.0523122
-0.0499826
-0.0477109
-0.0454976
-0.0433433
-0.0412482
-0.0392123
-0.0372357
-0.0353181
-0.0334595
-0.0316593
-0.0299172
-0.0282325
-0.0266047
-0.0250329
-0.0235164
-0.0220544
-0.020646
-0.01929
-0.0179856
-0.0167317
-0.0155272
-0.0143708
-0.0132616
-0.0121982
-0.0111795
-0.0102041
-0.0092708
-0.00837816
-0.00752484
-0.00670928
-0.00593014
-0.00518543
-0.00447405
-0.00379304
-0.00314231
-0.00251638
-0.00191852
-0.00133689
-0.000785053
-0.000236153
-0.206389
-0.213355
-0.214342
-0.212951
-0.211874
-0.211671
-0.211919
-0.212196
-0.212336
-0.212318
-0.21216
-0.211882
-0.211493
-0.210992
-0.210377
-0.209647
-0.208807
-0.207858
-0.206807
-0.205655
-0.204406
-0.203066
-0.201627
-0.200047
-0.198319
-0.196512
-0.194663
-0.192808
-0.190925
-0.188985
-0.186977
-0.184902
-0.182764
-0.180565
-0.178306
-0.175987
-0.173611
-0.171179
-0.168692
-0.166154
-0.163565
-0.160928
-0.158244
-0.155518
-0.152749
-0.149942
-0.147098
-0.144221
-0.141313
-0.138377
-0.135417
-0.132434
-0.129433
-0.126417
-0.123389
-0.120353
-0.117311
-0.114268
-0.111227
-0.10819
-0.105163
-0.102147
-0.0991463
-0.0961642
-0.0932036
-0.0902676
-0.0873593
-0.0844814
-0.0816365
-0.0788274
-0.0760563
-0.0733257
-0.0706376
-0.067994
-0.0653968
-0.0628476
-0.0603479
-0.057899
-0.0555021
-0.0531583
-0.0508683
-0.0486328
-0.0464524
-0.0443276
-0.0422586
-0.0402455
-0.0382884
-0.0363871
-0.0345415
-0.0327512
-0.0310159
-0.0293349
-0.0277078
-0.0261338
-0.0246123
-0.0231423
-0.0217231
-0.0203538
-0.0190332
-0.0177605
-0.0165346
-0.0153543
-0.0142185
-0.013126
-0.0120755
-0.0110659
-0.0100957
-0.00916355
-0.008268
-0.00740763
-0.00658065
-0.00578565
-0.00502041
-0.0042836
-0.00357223
-0.00288532
-0.00221834
-0.00157134
-0.000936345
-0.000315881
-0.187771
-0.197003
-0.20002
-0.199473
-0.198487
-0.198293
-0.198788
-0.199484
-0.200044
-0.20037
-0.200496
-0.200477
-0.200341
-0.200092
-0.199725
-0.199234
-0.198619
-0.197883
-0.197027
-0.196054
-0.194964
-0.193757
-0.192439
-0.191036
-0.1896
-0.188178
-0.186765
-0.185291
-0.183688
-0.181965
-0.180155
-0.178275
-0.17633
-0.174319
-0.172242
-0.170102
-0.167902
-0.165643
-0.163328
-0.16096
-0.15854
-0.156071
-0.153555
-0.150995
-0.148392
-0.145751
-0.143073
-0.14036
-0.137617
-0.134846
-0.132049
-0.129231
-0.126393
-0.123539
-0.120673
-0.117797
-0.114915
-0.112029
-0.109144
-0.106262
-0.103386
-0.10052
-0.097667
-0.0948294
-0.0920103
-0.0892126
-0.0864391
-0.0836923
-0.0809748
-0.078289
-0.0756371
-0.0730213
-0.0704436
-0.0679059
-0.0654097
-0.0629568
-0.0605486
-0.0581862
-0.0558709
-0.0536036
-0.0513853
-0.0492165
-0.0470978
-0.0450298
-0.0430127
-0.0410467
-0.0391319
-0.0372683
-0.0354557
-0.033694
-0.0319827
-0.0303215
-0.0287098
-0.0271472
-0.0256329
-0.0241663
-0.0227465
-0.0213728
-0.0200442
-0.0187598
-0.0175186
-0.0163196
-0.0151616
-0.0140436
-0.0129642
-0.0119224
-0.0109167
-0.0099459
-0.00900833
-0.00810284
-0.00722728
-0.00638084
-0.00556034
-0.00476598
-0.00399241
-0.00324242
-0.00250559
-0.00179121
-0.00107622
-0.000384197
-0.171043
-0.180974
-0.185112
-0.18553
-0.185122
-0.185292
-0.186119
-0.187174
-0.188093
-0.18875
-0.189174
-0.189433
-0.189569
-0.189591
-0.189493
-0.189271
-0.188924
-0.188455
-0.187872
-0.18718
-0.186389
-0.185507
-0.184547
-0.183521
-0.182425
-0.181242
-0.17994
-0.178489
-0.176929
-0.175324
-0.173677
-0.171972
-0.1702
-0.168359
-0.166452
-0.164481
-0.16245
-0.16036
-0.158214
-0.156014
-0.153761
-0.151459
-0.14911
-0.146716
-0.14428
-0.141804
-0.13929
-0.136743
-0.134164
-0.131556
-0.128922
-0.126264
-0.123587
-0.120893
-0.118185
-0.115465
-0.112738
-0.110005
-0.107271
-0.104537
-0.101808
-0.0990851
-0.0963723
-0.093672
-0.090987
-0.08832
-0.0856735
-0.0830499
-0.0804517
-0.0778811
-0.0753403
-0.0728312
-0.0703557
-0.0679157
-0.0655127
-0.0631483
-0.0608239
-0.0585407
-0.0562997
-0.0541021
-0.0519486
-0.04984
-0.0477768
-0.0457596
-0.0437888
-0.0418645
-0.0399869
-0.0381561
-0.036372
-0.0346345
-0.0329433
-0.0312981
-0.0296984
-0.0281439
-0.0266338
-0.0251677
-0.0237448
-0.0223644
-0.0210256
-0.0197276
-0.0184694
-0.0172501
-0.0160686
-0.014924
-0.0138148
-0.0127402
-0.0116986
-0.0106889
-0.00970944
-0.00875924
-0.00783589
-0.00693908
-0.00606499
-0.00521494
-0.00438203
-0.0035717
-0.00276976
-0.00199153
-0.00120416
-0.000442912
-0.156805
-0.166238
-0.170861
-0.172125
-0.172424
-0.173061
-0.174206
-0.175534
-0.176729
-0.177665
-0.178359
-0.178876
-0.179258
-0.17952
-0.17966
-0.179672
-0.179557
-0.17932
-0.178966
-0.178502
-0.177932
-0.17726
-0.176487
-0.17561
-0.174627
-0.173542
-0.172367
-0.171128
-0.169853
-0.168505
-0.167067
-0.165546
-0.16395
-0.162285
-0.160554
-0.158758
-0.156901
-0.154983
-0.153007
-0.150977
-0.148893
-0.146759
-0.144577
-0.142349
-0.140079
-0.137768
-0.135419
-0.133035
-0.130619
-0.128172
-0.125699
-0.123202
-0.120684
-0.118147
-0.115594
-0.113029
-0.110454
-0.107872
-0.105286
-0.102698
-0.100112
-0.0975307
-0.0949559
-0.0923907
-0.0898376
-0.0872991
-0.0847777
-0.0822755
-0.079795
-0.0773381
-0.0749069
-0.0725034
-0.0701292
-0.0677862
-0.0654759
-0.0631996
-0.0609589
-0.0587548
-0.0565885
-0.0544609
-0.0523729
-0.0503253
-0.0483186
-0.0463534
-0.04443
-0.0425489
-0.0407101
-0.0389138
-0.03716
-0.0354486
-0.0337795
-0.0321524
-0.0305669
-0.0290226
-0.0275192
-0.026056
-0.0246324
-0.0232478
-0.0219014
-0.0205924
-0.01932
-0.0180832
-0.0168811
-0.0157127
-0.0145769
-0.0134725
-0.0123983
-0.0113532
-0.0103354
-0.00934428
-0.00837721
-0.00743426
-0.00651127
-0.0056103
-0.00472357
-0.00385816
-0.00299762
-0.00216078
-0.0013091
-0.000485332
-0.143868
-0.152759
-0.157628
-0.159533
-0.160454
-0.161533
-0.162971
-0.164531
-0.165955
-0.167133
-0.168072
-0.168826
-0.169435
-0.169916
-0.170268
-0.17049
-0.170583
-0.17055
-0.170397
-0.170129
-0.169749
-0.169261
-0.168666
-0.167969
-0.167176
-0.166298
-0.165345
-0.164321
-0.163217
-0.162022
-0.160742
-0.159383
-0.157951
-0.15645
-0.154882
-0.153249
-0.151554
-0.149797
-0.147983
-0.146112
-0.144188
-0.142214
-0.14019
-0.138121
-0.136008
-0.133855
-0.131663
-0.129435
-0.127173
-0.124882
-0.122562
-0.120217
-0.11785
-0.115463
-0.113059
-0.110641
-0.108211
-0.105772
-0.103328
-0.100879
-0.0984299
-0.0959823
-0.0935389
-0.0911021
-0.0886745
-0.0862583
-0.0838558
-0.0814691
-0.0791005
-0.0767518
-0.0744251
-0.072122
-0.0698445
-0.0675939
-0.065372
-0.06318
-0.0610192
-0.0588909
-0.056796
-0.0547357
-0.0527106
-0.0507217
-0.0487694
-0.0468544
-0.0449771
-0.0431378
-0.0413369
-0.0395743
-0.0378503
-0.0361648
-0.0345177
-0.0329088
-0.0313378
-0.0298045
-0.0283084
-0.0268491
-0.025426
-0.0240385
-0.0226859
-0.0213676
-0.0200828
-0.0188306
-0.01761
-0.0164203
-0.0152603
-0.014129
-0.0130251
-0.0119477
-0.0108951
-0.00986674
-0.00885994
-0.00787506
-0.00690778
-0.00596069
-0.00502548
-0.00411032
-0.00319745
-0.00230798
-0.0014001
-0.000521076
-0.132283
-0.140669
-0.14561
-0.147947
-0.149346
-0.150793
-0.152488
-0.15425
-0.155871
-0.157255
-0.158409
-0.159374
-0.160186
-0.160863
-0.161406
-0.161817
-0.162096
-0.162247
-0.162276
-0.162187
-0.161985
-0.161674
-0.161258
-0.160744
-0.160136
-0.159439
-0.158656
-0.157786
-0.156827
-0.155784
-0.154661
-0.153462
-0.152189
-0.150846
-0.149434
-0.147957
-0.146416
-0.144814
-0.143153
-0.141435
-0.139664
-0.137841
-0.135969
-0.13405
-0.132088
-0.130083
-0.12804
-0.12596
-0.123846
-0.121701
-0.119526
-0.117326
-0.115101
-0.112856
-0.110592
-0.108313
-0.10602
-0.103716
-0.101404
-0.0990868
-0.0967662
-0.0944448
-0.0921251
-0.0898093
-0.0874998
-0.0851987
-0.0829083
-0.0806305
-0.0783674
-0.0761209
-0.0738927
-0.0716847
-0.0694984
-0.0673355
-0.0651973
-0.0630852
-0.0610005
-0.0589443
-0.0569176
-0.0549215
-0.0529567
-0.051024
-0.0491241
-0.0472575
-0.0454248
-0.0436262
-0.0418621
-0.0401327
-0.0384381
-0.0367783
-0.0351533
-0.033563
-0.0320071
-0.0304855
-0.0289977
-0.0275435
-0.0261222
-0.0247334
-0.0233765
-0.0220508
-0.0207557
-0.0194903
-0.0182539
-0.0170455
-0.0158642
-0.0147091
-0.0135788
-0.0124728
-0.0113891
-0.0103274
-0.00928511
-0.00826277
-0.007256
-0.00626776
-0.00528948
-0.00433009
-0.00337103
-0.002435
-0.001478
-0.000550394
-0.122143
-0.129924
-0.134796
-0.137412
-0.139164
-0.1409
-0.142803
-0.144731
-0.146512
-0.148067
-0.149398
-0.150542
-0.15153
-0.152378
-0.15309
-0.153667
-0.154112
-0.154428
-0.154621
-0.154696
-0.154657
-0.154509
-0.154257
-0.153905
-0.153456
-0.152912
-0.152277
-0.151552
-0.150741
-0.149849
-0.148877
-0.147828
-0.146705
-0.14551
-0.144246
-0.142915
-0.14152
-0.140063
-0.138547
-0.136973
-0.135345
-0.133665
-0.131936
-0.130159
-0.128337
-0.126474
-0.12457
-0.122629
-0.120653
-0.118645
-0.116607
-0.114542
-0.112452
-0.11034
-0.108207
-0.106058
-0.103893
-0.101716
-0.0995289
-0.0973341
-0.0951341
-0.092931
-0.0907272
-0.0885248
-0.0863261
-0.084133
-0.0819478
-0.0797722
-0.0776082
-0.0754577
-0.0733223
-0.0712037
-0.0691035
-0.0670232
-0.0649641
-0.0629275
-0.0609148
-0.0589269
-0.0569649
-0.0550298
-0.0531224
-0.0512435
-0.0493937
-0.0475736
-0.0457837
-0.0440244
-0.042296
-0.0405989
-0.038933
-0.0372986
-0.0356956
-0.0341239
-0.0325835
-0.0310741
-0.0295954
-0.0281472
-0.0267289
-0.0253402
-0.0239805
-0.0226493
-0.0213458
-0.0200695
-0.0188195
-0.0175951
-0.0163952
-0.0152192
-0.0140658
-0.0129344
-0.0118232
-0.0107321
-0.00965836
-0.00860283
-0.00756111
-0.00653646
-0.00552018
-0.00452178
-0.00352217
-0.00254525
-0.00154545
-0.00057551
-0.113178
-0.120352
-0.125089
-0.127879
-0.129887
-0.131838
-0.133899
-0.135955
-0.137861
-0.13955