/*--------------------------------*- C++ -*----------------------------------*\
  =========                 |
  \\      /  F ield         | OpenFOAM: The Open Source CFD Toolbox
   \\    /   O peration     | Website:  https://openfoam.org
    \\  /    A nd           | Version:  7
     \\/     M anipulation  |
\*---------------------------------------------------------------------------*/
FoamFile
{
    version     2.0;
    format      ascii;
    class       volVectorField;
    location    "55";
    object      U;
}
// * * * * * * * * * * * * * * * * * * * * * * * * * * * * * * * * * * * * * //

dimensions      [0 1 -1 0 0 0 0];

internalField   nonuniform List<vector> 
14000
(
(-0.00750985 0.0052153 -4.87915e-22)
(-0.0296388 0.00912683 9.75239e-22)
(-0.0612629 0.010058 6.26462e-20)
(-0.0905556 0.00979492 1.09234e-20)
(-0.116867 0.00906217 2.12567e-20)
(-0.140018 0.0081759 -1.22984e-20)
(-0.159742 0.00713778 -2.28021e-20)
(-0.17515 0.00560303 2.21326e-20)
(-0.188963 0.00519467 2.16774e-20)
(-0.194243 0.00211043 1.69241e-20)
(-0.00859343 0.0152066 -7.94098e-20)
(-0.03058 0.0267328 5.2563e-20)
(-0.0605706 0.0295308 -7.15417e-20)
(-0.0876255 0.0287844 3.83511e-21)
(-0.111162 0.0266313 -5.10401e-20)
(-0.131036 0.0240234 6.27203e-21)
(-0.147305 0.0211274 3.27617e-20)
(-0.157216 0.0162144 -1.44071e-19)
(-0.168127 0.0158173 3.55493e-20)
(-0.165103 0.0053706 1.50557e-22)
(-0.0106388 0.0239783 1.47829e-19)
(-0.0324106 0.0425079 -1.30887e-20)
(-0.0592819 0.0471568 9.94091e-20)
(-0.0819635 0.0460264 -9.30971e-21)
(-0.100002 0.0425703 -1.08823e-19)
(-0.113086 0.0383262 8.03557e-20)
(-0.122768 0.0341877 -3.45543e-20)
(-0.12017 0.0252681 3.46584e-20)
(-0.126086 0.0270134 -1.05213e-19)
(-0.104585 0.00685399 1.49333e-19)
(-0.013439 0.030936 1.74409e-20)
(-0.0350318 0.0554257 -2.35215e-19)
(-0.057549 0.0617849 -1.39974e-19)
(-0.0738874 0.0603404 7.36426e-20)
(-0.0838534 0.0557253 8.74786e-20)
(-0.0861453 0.0499372 -1.4561e-19)
(-0.0865477 0.0449228 6.23795e-20)
(-0.0623008 0.0324136 4.1483e-20)
(-0.0612351 0.0370926 1.66609e-19)
(-0.00590384 0.0107814 -2.15242e-19)
(-0.0167611 0.0357672 -7.43969e-20)
(-0.038295 0.0647344 1.15845e-19)
(-0.0554801 0.0724136 3.39018e-19)
(-0.0636034 0.0705885 -1.69093e-19)
(-0.0629975 0.0648568 1.56938e-19)
(-0.0501147 0.0579543 2.64651e-19)
(-0.0374664 0.0501146 -7.36634e-21)
(0.0174668 0.0387433 7.51997e-21)
(0.0280379 0.0425225 -2.45844e-19)
(0.139792 0.0213902 1.15997e-19)
(-0.0204091 0.0384669 -1.76356e-19)
(-0.0419663 0.070025 1.04441e-19)
(-0.0529417 0.0782972 -4.73137e-19)
(-0.0508366 0.0758293 2.30372e-19)
(-0.0364559 0.0687801 3.23278e-20)
(-0.0042221 0.0617288 -2.98526e-19)
(0.029314 0.0486511 -8.76344e-20)
(0.1276 0.0451486 8.75792e-20)
(0.143543 0.0376758 1.66307e-19)
(0.348777 0.0343004 -9.24776e-20)
(-0.02426 0.0392935 -1.93165e-20)
(-0.0456294 0.0712432 -3.28512e-19)
(-0.0492014 0.0790654 3.24561e-19)
(-0.0341982 0.0754991 -2.3334e-19)
(-0.000946362 0.0671637 5.78985e-20)
(0.0573808 0.061108 1.93985e-19)
(0.122734 0.0426261 -3.55603e-19)
(0.273586 0.0519393 -1.48911e-19)
(0.304323 0.0310558 1.26539e-19)
(0.608267 0.0467617 7.37965e-20)
(-0.0282579 0.0386623 1.93426e-19)
(-0.0485255 0.0686432 5.66899e-19)
(-0.0424524 0.0748316 -5.47131e-19)
(-0.0099683 0.0697714 1.33826e-19)
(0.0501785 0.0607919 3.34997e-19)
(0.144928 0.0566292 -1.70564e-19)
(0.260687 0.0401704 -5.4254e-20)
(0.453242 0.0568876 -2.01566e-19)
(0.535923 0.0401263 2.40111e-19)
(0.869437 0.0681426 -1.68553e-19)
(-0.0323103 0.0369597 -3.54674e-19)
(-0.0493838 0.0627436 9.80409e-20)
(-0.0292963 0.0662429 2.04627e-19)
(0.0286282 0.0598949 -1.01781e-19)
(0.12812 0.0524209 -3.43962e-19)
(0.272141 0.0516492 4.07427e-19)
(0.450599 0.0510821 2.58622e-19)
(0.660295 0.0648062 2.33171e-19)
(0.814373 0.0699711 -1.89946e-19)
(1.07778 0.0958301 1.43763e-19)
(-0.036072 0.0344172 -8.80393e-20)
(-0.0461828 0.0541684 -2.86568e-19)
(-0.00448623 0.0545204 -1.70055e-19)
(0.0914507 0.0486871 1.99745e-19)
(0.245464 0.0475724 3.83556e-20)
(0.447928 0.0555496 -2.40049e-19)
(0.672387 0.0742567 2.79802e-19)
(0.880086 0.0873017 -3.92877e-19)
(1.05295 0.11148 -2.20929e-19)
(1.19665 0.116348 7.69682e-20)
(-0.0388805 0.0311311 2.15141e-19)
(-0.0358957 0.0434979 3.01963e-19)
(0.0390301 0.0416043 1.25485e-19)
(0.189466 0.0409047 1.74867e-19)
(0.408092 0.0530322 -1.01385e-19)
(0.657999 0.0765517 -2.59344e-19)
(0.888197 0.1055 1.03409e-19)
(1.06836 0.122298 1.26887e-19)
(1.18836 0.144585 4.22321e-19)
(1.23276 0.120057 -2.48197e-19)
(-0.0397725 0.0270503 3.20661e-19)
(-0.0145382 0.0312928 -3.91383e-20)
(0.109403 0.0306037 2.89217e-19)
(0.329254 0.043118 -1.28547e-19)
(0.604042 0.0738592 3.92831e-19)
(0.863798 0.110657 1.55683e-19)
(1.05961 0.140095 1.92624e-19)
(1.18281 0.154501 -3.15171e-19)
(1.23542 0.157623 -1.28767e-19)
(1.26016 0.143182 1.2353e-19)
(-0.037415 0.0220028 2.29225e-20)
(0.0227242 0.0184572 -2.82522e-19)
(0.213809 0.026587 -2.68265e-19)
(0.504215 0.0607826 -6.77188e-20)
(0.801157 0.108095 -1.06958e-19)
(1.02824 0.147803 1.1662e-19)
(1.16649 0.170198 -4.82595e-19)
(1.2314 0.173681 3.22617e-19)
(1.25488 0.171723 -3.17343e-21)
(1.25883 0.153227 -3.80273e-19)
(-0.0300879 0.0158709 -4.57255e-19)
(0.0813174 0.00712624 -9.32393e-20)
(0.353512 0.0357602 -9.8907e-21)
(0.690603 0.0933574 2.88152e-20)
(0.96641 0.147257 1.51059e-19)
(1.13747 0.180526 -4.7146e-19)
(1.22032 0.191653 4.61323e-19)
(1.25091 0.189442 -1.01557e-19)
(1.25391 0.179986 5.95966e-20)
(1.24794 0.162622 9.78383e-20)
(-0.0156821 0.00882723 1.222e-20)
(0.165898 0.00192804 3.74876e-19)
(0.517296 0.0613388 9.51942e-20)
(0.859663 0.134254 -5.11018e-20)
(1.08613 0.184313 -4.28297e-20)
(1.20076 0.206731 2.7456e-19)
(1.24434 0.209141 -1.15945e-21)
(1.25199 0.201112 2.00607e-19)
(1.24604 0.188308 -6.25969e-20)
(1.23951 0.17262 -2.91358e-21)
(0.00857874 0.00166112 7.46927e-20)
(0.277183 0.0095478 -1.35999e-19)
(0.683042 0.100403 1.07021e-19)
(0.994919 0.176951 1.41319e-19)
(1.16452 0.217128 -9.27135e-20)
(1.23334 0.228744 -1.52638e-20)
(1.24969 0.223588 -2.68179e-19)
(1.24557 0.211995 -1.75785e-19)
(1.23611 0.196407 2.14924e-19)
(1.22596 0.181245 -1.353e-19)
(0.0455577 -0.00344657 9.66403e-20)
(0.408456 0.0347425 1.72314e-19)
(0.830924 0.14714 1.20994e-19)
(1.09397 0.218433 -1.82661e-19)
(1.21116 0.246372 2.1572e-19)
(1.24556 0.247852 -1.14439e-19)
(1.2455 0.237058 -2.86623e-20)
(1.23505 0.222214 -1.03228e-20)
(1.22339 0.204621 -6.08955e-20)
(1.21381 0.19045 1.93923e-20)
(0.0966141 -0.00296751 2.45164e-19)
(0.546283 0.0765673 -1.36181e-19)
(0.951817 0.19725 8.52509e-20)
(1.16099 0.257792 9.95547e-20)
(1.23457 0.272811 -7.10628e-20)
(1.2453 0.26553 1.0773e-19)
(1.23546 0.249962 3.92643e-20)
(1.222 0.232394 5.22465e-20)
(1.2103 0.21329 3.33325e-20)
(1.19952 0.198831 5.32533e-20)
(0.160531 0.00665952 -9.03147e-20)
(0.676332 0.130305 -1.32379e-19)
(1.04427 0.248405 -1.03685e-19)
(1.20174 0.294748 -9.83326e-20)
(1.24156 0.297271 -4.32686e-20)
(1.2368 0.28239 4.75378e-20)
(1.22183 0.262769 -2.34409e-20)
(1.20731 0.242541 -1.86486e-22)
(1.19532 0.221881 -2.16113e-20)
(1.18493 0.206777 3.95005e-21)
(0.233422 0.0274703 2.41745e-20)
(0.788488 0.191114 -5.25916e-21)
(1.10995 0.29922 2.34044e-20)
(1.22173 0.329444 1.83108e-20)
(1.23676 0.320269 1.3726e-20)
(1.22273 0.29882 -3.68061e-20)
(1.2054 0.275393 1.70379e-20)
(1.19072 0.252483 -1.66374e-20)
(1.17943 0.230283 -5.31875e-21)
(1.1693 0.213814 -8.6788e-21)
(0.3097 0.0594208 1.2528e-21)
(0.878153 0.255308 -7.38147e-22)
(1.15148 0.348674 -5.08132e-21)
(1.22539 0.36206 6.09997e-20)
(1.22331 0.342108 -1.65462e-20)
(1.20432 0.314752 -1.55527e-20)
(1.18645 0.287655 2.02773e-21)
(1.17243 0.261984 -1.68629e-21)
(1.16184 0.237953 -6.20468e-21)
(1.15263 0.219887 -1.29923e-20)
(0.383292 0.10089 -1.04018e-19)
(0.944389 0.320309 1.9703e-20)
(1.17191 0.395934 -1.67888e-19)
(1.21603 0.39255 -5.8846e-20)
(1.20309 0.362747 -1.79821e-20)
(1.18221 0.329947 -2.28936e-21)
(1.16505 0.299198 -1.19345e-20)
(1.15224 0.2707 -6.52313e-21)
(1.1429 0.244774 6.03307e-21)
(1.13439 0.224881 8.93559e-21)
(0.448651 0.14956 1.79474e-19)
(0.987625 0.384045 -9.16243e-20)
(1.17407 0.440093 1.27554e-19)
(1.19603 0.420655 5.08537e-20)
(1.17724 0.381911 -1.78363e-20)
(1.1567 0.34396 5.94342e-20)
(1.14125 0.309577 -1.49997e-20)
(1.13033 0.278337 1.72628e-20)
(1.12232 0.250694 3.34598e-21)
(1.11446 0.228715 6.17944e-21)
(0.501499 0.202843 -1.09954e-19)
(1.00917 0.444733 4.16713e-19)
(1.16049 0.480312 -7.67583e-20)
(1.16713 0.445933 -4.28889e-20)
(1.14653 0.399076 9.03913e-20)
(1.1281 0.356258 -3.76457e-20)
(1.11521 0.318313 -1.31997e-20)
(1.10666 0.284546 -8.42025e-21)
(1.10011 0.255636 -9.78616e-24)
(1.09363 0.231359 -1.0247e-20)
(0.53914 0.257969 -1.99492e-19)
(1.01072 0.500724 -2.22786e-19)
(1.13323 0.515669 1.36248e-19)
(1.1307 0.46773 3.75691e-20)
(1.11164 0.413566 -4.48335e-20)
(1.0968 0.366289 -6.72303e-21)
(1.08716 0.325035 1.91478e-20)
(1.08117 0.289094 5.73872e-21)
(1.07628 0.258975 -1.92492e-20)
(1.07218 0.23265 -2.72996e-21)
(0.560434 0.312047 6.90093e-20)
(0.994212 0.550458 2.86881e-19)
(1.09409 0.545138 -5.74337e-20)
(1.08817 0.485228 4.54011e-21)
(1.07325 0.424665 -3.52428e-21)
(1.06294 0.373441 2.83033e-21)
(1.05715 0.329444 1.57252e-20)
(1.05399 0.291653 -1.08518e-20)
(1.05137 0.260433 1.87286e-20)
(1.05013 0.232493 -1.89373e-20)
(0.565583 0.362296 -5.10001e-19)
(0.961408 0.592305 2.64006e-20)
(1.04512 0.567719 -1.06572e-19)
(1.04064 0.497394 1.43679e-20)
(1.03169 0.431726 -2.30311e-21)
(1.02679 0.377209 5.64172e-20)
(1.02546 0.331042 -4.65838e-20)
(1.02564 0.291894 2.73064e-20)
(1.02597 0.259723 -2.61498e-20)
(1.02823 0.230819 -8.76469e-20)
(0.55566 0.406432 2.58517e-19)
(0.913866 0.624186 -2.42542e-19)
(0.988638 0.582546 -1.71935e-20)
(0.989073 0.503433 -5.04279e-21)
(0.987571 0.433979 8.92645e-20)
(0.988905 0.377049 -7.50123e-21)
(0.992516 0.32942 7.02776e-20)
(0.996666 0.289421 8.13818e-21)
(1.00094 0.256665 5.46149e-21)
(1.0073 0.227722 1.22945e-19)
(0.531787 0.442761 1.43672e-19)
(0.854074 0.644521 -2.04645e-20)
(0.926658 0.588372 -7.29118e-21)
(0.934556 0.502888 7.09792e-20)
(0.941619 0.430883 -2.97172e-20)
(0.949752 0.372472 -1.07953e-19)
(0.958799 0.324047 -6.95643e-20)
(0.967691 0.283641 7.01424e-21)
(0.976961 0.250739 9.59892e-20)
(0.987715 0.223555 -7.82602e-20)
(0.495148 0.468726 -9.78761e-21)
(0.786074 0.652978 -2.53493e-20)
(0.861053 0.584283 -9.90933e-20)
(0.878235 0.495204 4.97521e-21)
(0.89463 0.422009 1.48776e-19)
(0.90998 0.363129 -4.75104e-20)
(0.924862 0.314588 1.7795e-19)
(0.939116 0.273986 -2.45736e-19)
(0.953958 0.240678 -1.65838e-19)
(0.968319 0.217136 -3.55278e-20)
(0.448077 0.481069 3.33227e-20)
(0.712404 0.648014 5.31303e-20)
(0.793358 0.570176 3.37202e-20)
(0.821305 0.479935 -5.29771e-20)
(0.847484 0.407073 -2.25023e-19)
(0.870316 0.348837 2.12763e-19)
(0.891353 0.30106 8.23858e-20)
(0.91117 0.26086 1.06876e-19)
(0.931252 0.226027 3.0567e-19)
(0.946473 0.199834 -7.41808e-20)
(0.394743 0.479437 1.29868e-19)
(0.636065 0.629202 -2.29897e-20)
(0.725458 0.545854 -5.7727e-20)
(0.765025 0.456829 1.11551e-19)
(0.801147 0.385883 1.99757e-19)
(0.831601 0.329452 -4.73585e-19)
(0.858984 0.28345 -7.38891e-20)
(0.884075 0.245247 -1.92444e-19)
(0.907257 0.212979 3.90002e-20)
(0.922004 0.188122 -1.39768e-19)
(0.338302 0.463446 -2.63836e-19)
(0.559714 0.596198 -1.19813e-19)
(0.659146 0.511381 3.98298e-19)
(0.710685 0.425886 -2.28616e-19)
(0.75662 0.358448 -3.29698e-19)
(0.794631 0.304926 3.09349e-19)
(0.828315 0.261271 -2.84034e-19)
(0.858526 0.224777 1.41082e-19)
(0.885047 0.19386 -1.75385e-19)
(0.901936 0.170283 2.77504e-19)
(0.281888 0.433523 -1.07947e-19)
(0.48615 0.549382 5.91468e-19)
(0.59623 0.467027 -6.16664e-19)
(0.659574 0.387324 2.57392e-20)
(0.71491 0.325013 2.01475e-19)
(0.760107 0.275763 -1.25768e-20)
(0.799509 0.235841 4.34297e-19)
(0.833877 0.20269 -3.78698e-19)
(0.863136 0.17459 2.75874e-19)
(0.883135 0.152524 -1.86515e-19)
(0.22832 0.390689 -1.76683e-19)
(0.417883 0.489485 9.66471e-20)
(0.538435 0.413304 2.65927e-19)
(0.612961 0.341543 3.0583e-19)
(0.677058 0.285794 -7.02404e-20)
(0.728985 0.24178 2.90031e-19)
(0.773709 0.206115 2.44651e-20)
(0.811902 0.17655 3.12709e-20)
(0.843851 0.151681 -1.11296e-19)
(0.866905 0.132259 -6.05467e-21)
(0.180003 0.336512 5.33265e-19)
(0.357173 0.417708 -3.70187e-19)
(0.487423 0.350999 -4.94654e-19)
(0.572007 0.28925 2.78011e-20)
(0.64387 0.241534 -1.45489e-19)
(0.701674 0.203974 1.21499e-19)
(0.750934 0.173621 -4.44179e-19)
(0.792384 0.148461 1.30953e-19)
(0.826925 0.127202 3.72619e-19)
(0.853085 0.110425 -1.80234e-19)
(0.138817 0.27267 7.25612e-20)
(0.306042 0.335805 4.60483e-19)
(0.444775 0.281183 3.32575e-19)
(0.537856 0.231234 -3.11099e-19)
(0.616296 0.192729 1.94034e-19)
(0.679054 0.162458 -8.79185e-20)
(0.732074 0.138044 -5.72433e-20)
(0.776198 0.117861 -2.72276e-20)
(0.812973 0.100806 -1.15272e-19)
(0.841914 0.0872213 2.12753e-19)
(0.10632 0.200801 -3.57332e-19)
(0.266153 0.245815 -4.16532e-19)
(0.411702 0.205311 -6.72014e-21)
(0.511391 0.168611 2.9657e-19)
(0.594948 0.140361 -5.44256e-20)
(0.661544 0.118177 -5.8777e-20)
(0.717448 0.100301 8.54061e-20)
(0.763632 0.0855229 -4.61553e-20)
(0.802214 0.0730048 -3.67853e-20)
(0.833468 0.062952 3.8258e-20)
(0.0838567 0.122943 5.19549e-20)
(0.238817 0.149905 -6.83356e-20)
(0.389134 0.124993 2.94851e-19)
(0.493345 0.102561 -7.23186e-20)
(0.580405 0.0853036 1.36387e-19)
(0.649622 0.0717626 -3.66411e-20)
(0.70748 0.0608619 -5.71321e-20)
(0.755059 0.0518543 9.14734e-20)
(0.794902 0.0442052 1.27429e-20)
(0.827823 0.0380166 -3.29069e-20)
(0.072381 0.0413966 -1.40638e-21)
(0.224922 0.0503752 1.84776e-21)
(0.377694 0.0419684 1.3707e-19)
(0.484199 0.0344222 -6.84915e-20)
(0.573037 0.0286182 3.14146e-20)
(0.643582 0.0240652 -1.66408e-20)
(0.702426 0.0204014 1.98344e-20)
(0.750707 0.0173744 -2.6037e-20)
(0.791197 0.0147997 -1.58603e-20)
(0.824996 0.0127079 5.67488e-24)
(0.072381 -0.041395 1.40638e-21)
(0.224922 -0.0503731 -1.84776e-21)
(0.377694 -0.0419665 -1.37071e-19)
(0.484199 -0.0344205 -2.44372e-20)
(0.573037 -0.0286168 -4.14302e-20)
(0.643581 -0.024064 2.21712e-20)
(0.702426 -0.0204003 3.51536e-20)
(0.750707 -0.0173734 -3.23044e-20)
(0.791197 -0.0147989 -2.8313e-20)
(0.824996 -0.0127071 -1.94279e-20)
(0.0838565 -0.122942 1.66237e-19)
(0.238817 -0.149903 -1.18162e-19)
(0.389134 -0.124991 1.6827e-19)
(0.493345 -0.102559 -2.31951e-21)
(0.580405 -0.0853022 9.8112e-20)
(0.649622 -0.0717613 -8.05743e-21)
(0.70748 -0.0608607 -4.96138e-20)
(0.755058 -0.0518533 2.0049e-19)
(0.794902 -0.0442044 -4.70311e-20)
(0.827823 -0.0380158 -1.24733e-21)
(0.10632 -0.200799 -3.56745e-19)
(0.266153 -0.245813 4.15504e-20)
(0.411701 -0.205309 -2.26654e-19)
(0.51139 -0.16861 2.09903e-20)
(0.594947 -0.14036 1.95377e-19)
(0.661543 -0.118176 -1.32046e-19)
(0.717448 -0.1003 5.24211e-20)
(0.763632 -0.0855219 -4.88965e-20)
(0.802214 -0.073004 1.29765e-19)
(0.833468 -0.0629513 -1.72538e-19)
(0.138817 -0.272668 -5.62482e-21)
(0.306041 -0.335803 5.10952e-19)
(0.444775 -0.281181 2.78538e-19)
(0.537856 -0.231233 -1.35563e-19)
(0.616295 -0.192728 -1.59512e-19)
(0.679054 -0.162457 2.38954e-19)
(0.732073 -0.138043 -9.1653e-20)
(0.776197 -0.11786 -5.73025e-20)
(0.812973 -0.100806 -1.90986e-19)
(0.841914 -0.0872206 2.43563e-19)
(0.180003 -0.336511 1.56586e-19)
(0.357172 -0.417706 -2.26568e-19)
(0.487422 -0.350998 -6.25235e-19)
(0.572006 -0.289248 2.97313e-19)
(0.643869 -0.241533 -2.64926e-19)
(0.701674 -0.203973 -3.74321e-19)
(0.750934 -0.17362 2.89545e-20)
(0.792384 -0.14846 -1.21204e-20)
(0.826924 -0.127201 2.72234e-19)
(0.853084 -0.110425 -1.26868e-19)
(0.228319 -0.390687 2.65079e-19)
(0.417882 -0.489483 -1.51719e-19)
(0.538434 -0.413303 7.71632e-19)
(0.612961 -0.341542 -3.6084e-19)
(0.677058 -0.285793 -3.52731e-20)
(0.728984 -0.241779 4.10735e-19)
(0.773708 -0.206114 1.26399e-19)
(0.811901 -0.176549 -1.05178e-19)
(0.843851 -0.15168 -1.7579e-19)
(0.866905 -0.132259 9.43949e-20)
(0.281887 -0.433522 -4.86817e-21)
(0.486148 -0.54938 4.0436e-19)
(0.596229 -0.467025 -4.43231e-19)
(0.659573 -0.387323 3.04251e-19)
(0.714909 -0.325011 -7.49518e-20)
(0.760106 -0.275762 -2.45969e-19)
(0.799508 -0.23584 4.0425e-19)
(0.833877 -0.20269 1.55693e-19)
(0.863136 -0.174589 -1.35199e-19)
(0.883134 -0.152524 -6.80746e-20)
(0.338301 -0.463445 -1.35501e-19)
(0.559713 -0.596197 -6.36794e-19)
(0.659145 -0.51138 6.18558e-19)
(0.710683 -0.425885 -1.64497e-19)
(0.756619 -0.358446 -3.59176e-19)
(0.79463 -0.304925 1.72741e-19)
(0.828314 -0.26127 3.51446e-20)
(0.858525 -0.224776 1.89193e-19)
(0.885046 -0.193859 -2.18288e-19)
(0.901935 -0.170282 1.45641e-19)
(0.394742 -0.479436 2.34273e-19)
(0.636064 -0.6292 -4.87926e-20)
(0.725457 -0.545852 -2.19238e-19)
(0.765024 -0.456828 8.88589e-20)
(0.801146 -0.385882 3.42456e-19)
(0.8316 -0.329451 -3.79013e-19)
(0.858983 -0.283449 -2.44103e-19)
(0.884074 -0.245246 -1.98294e-19)
(0.907256 -0.212978 1.59747e-19)
(0.922003 -0.188122 -1.19407e-19)
(0.448076 -0.481068 -5.37163e-20)
(0.712402 -0.648012 9.15968e-20)
(0.793356 -0.570174 5.51805e-20)
(0.821304 -0.479934 -1.4489e-19)
(0.847483 -0.407072 -2.37681e-20)
(0.870315 -0.348836 2.10645e-19)
(0.891352 -0.301059 -2.17167e-19)
(0.911169 -0.260859 3.0703e-19)
(0.931251 -0.226026 1.52448e-19)
(0.946472 -0.199833 -5.23849e-20)
(0.495146 -0.468725 -3.1517e-21)
(0.786072 -0.652977 -2.72968e-20)
(0.861051 -0.584281 -8.92899e-20)
(0.878234 -0.495202 -6.05775e-20)
(0.894628 -0.422008 5.9321e-20)
(0.909979 -0.363128 1.54742e-19)
(0.924861 -0.314587 -6.66318e-20)
(0.939115 -0.273985 -8.04464e-20)
(0.953957 -0.240678 -2.95461e-19)
(0.968318 -0.217135 1.66902e-19)
(0.531786 -0.442759 1.87472e-19)
(0.854072 -0.64452 1.8021e-20)
(0.926656 -0.58837 -2.76432e-20)
(0.934554 -0.502887 4.81461e-20)
(0.941618 -0.430883 -1.44526e-19)
(0.949751 -0.372471 -7.49269e-20)
(0.958797 -0.324046 -9.59272e-20)
(0.96769 -0.283641 1.75149e-19)
(0.97696 -0.250739 7.13e-20)
(0.987714 -0.223554 -6.78337e-20)
(0.555659 -0.406431 9.91004e-20)
(0.913864 -0.624184 -1.44781e-19)
(0.988636 -0.582545 -2.15318e-20)
(0.989071 -0.503432 6.04461e-21)
(0.987569 -0.433978 3.54086e-20)
(0.988904 -0.377048 -8.62826e-21)
(0.992514 -0.329419 1.73512e-19)
(0.996665 -0.28942 -1.4271e-19)
(1.00094 -0.256665 -1.08218e-20)
(1.0073 -0.227722 1.9432e-19)
(0.565582 -0.362295 -3.73216e-19)
(0.961406 -0.592304 -1.08375e-19)
(1.04512 -0.567718 -1.03337e-20)
(1.04064 -0.497393 -7.67846e-22)
(1.03169 -0.431726 6.94282e-21)
(1.02679 -0.377208 7.60142e-20)
(1.02546 -0.331042 -1.11896e-19)
(1.02564 -0.291894 2.60697e-20)
(1.02597 -0.259722 -3.21961e-20)
(1.02823 -0.230819 -5.25973e-20)
(0.560433 -0.312046 9.0328e-21)
(0.99421 -0.550457 2.95073e-19)
(1.09408 -0.545137 3.12754e-20)
(1.08817 -0.485227 -1.71106e-20)
(1.07325 -0.424664 -4.77813e-22)
(1.06294 -0.37344 4.85264e-21)
(1.05714 -0.329443 1.94205e-20)
(1.05399 -0.291653 -2.65597e-20)
(1.05137 -0.260433 3.39142e-21)
(1.05013 -0.232493 -1.856e-21)
(0.539138 -0.257968 7.38378e-20)
(1.01072 -0.500723 -1.37905e-19)
(1.13322 -0.515668 4.90063e-20)
(1.1307 -0.467729 6.35625e-20)
(1.11164 -0.413566 -4.5855e-20)
(1.09679 -0.366289 -3.3969e-21)
(1.08716 -0.325035 -1.40498e-20)
(1.08117 -0.289094 1.34346e-20)
(1.07627 -0.258975 -1.93149e-20)
(1.07217 -0.23265 1.94514e-20)
(0.501497 -0.202843 1.01509e-19)
(1.00916 -0.444732 1.74702e-19)
(1.16049 -0.480311 9.96269e-20)
(1.16712 -0.445932 -1.07774e-19)
(1.14652 -0.399075 9.89218e-20)
(1.1281 -0.356258 -4.27065e-20)
(1.11521 -0.318313 -6.07963e-21)
(1.10666 -0.284546 -5.42804e-21)
(1.1001 -0.255636 1.11915e-21)
(1.09363 -0.231359 -1.16936e-20)
(0.44865 -0.14956 2.61095e-19)
(0.987622 -0.384044 -1.3745e-19)
(1.17407 -0.440092 7.86322e-20)
(1.19603 -0.420655 7.26606e-20)
(1.17724 -0.38191 -3.2267e-20)
(1.1567 -0.34396 4.97155e-20)
(1.14125 -0.309577 1.53315e-20)
(1.13032 -0.278337 1.62399e-20)
(1.12232 -0.250695 9.1569e-21)
(1.11446 -0.228716 4.44951e-21)
(0.383291 -0.100889 -9.55062e-20)
(0.944386 -0.320308 -1.32924e-19)
(1.17191 -0.395933 -8.79404e-20)
(1.21603 -0.39255 -8.06665e-20)
(1.20309 -0.362747 -2.82942e-20)
(1.18221 -0.329947 3.68455e-20)
(1.16505 -0.299198 -1.48987e-20)
(1.15224 -0.2707 3.00635e-21)
(1.1429 -0.244774 -8.18832e-21)
(1.13439 -0.224881 4.86299e-21)
(0.309699 -0.0594206 2.47207e-20)
(0.878151 -0.255307 -5.40001e-21)
(1.15148 -0.348673 2.22297e-20)
(1.22538 -0.36206 1.46415e-20)
(1.22331 -0.342107 1.27734e-20)
(1.20431 -0.314752 -2.96799e-20)
(1.18645 -0.287655 1.3279e-20)
(1.17243 -0.261984 -1.23834e-20)
(1.16184 -0.237953 -3.06066e-21)
(1.15263 -0.219888 -4.0837e-21)
(0.233422 -0.0274701 1.02853e-21)
(0.788486 -0.191114 -7.86054e-22)
(1.10995 -0.29922 -5.25555e-21)
(1.22173 -0.329443 6.72561e-20)
(1.23676 -0.320269 -1.82638e-20)
(1.22273 -0.29882 -2.10415e-20)
(1.2054 -0.275394 3.84082e-21)
(1.19072 -0.252484 -3.8774e-21)
(1.17943 -0.230283 -9.17326e-21)
(1.1693 -0.213815 -2.0271e-20)
(0.16053 -0.00665944 -9.89626e-20)
(0.676329 -0.130304 2.1478e-20)
(1.04427 -0.248404 -1.84383e-19)
(1.20174 -0.294748 -6.99305e-20)
(1.24155 -0.297271 -2.58996e-20)
(1.2368 -0.28239 -7.64199e-21)
(1.22183 -0.262769 -1.97033e-20)
(1.20731 -0.242541 -1.87837e-20)
(1.19532 -0.221882 5.73221e-21)
(1.18493 -0.206778 1.40825e-20)
(0.0966141 0.00296756 1.67416e-19)
(0.546281 -0.0765668 -9.39763e-20)
(0.951814 -0.19725 1.44526e-19)
(1.16099 -0.257791 7.40714e-20)
(1.23456 -0.272811 -4.352e-20)
(1.2453 -0.26553 1.34619e-19)
(1.23545 -0.249962 -2.81823e-20)
(1.222 -0.232394 5.17424e-20)
(1.21029 -0.213291 3.55724e-21)
(1.19952 -0.198832 5.14092e-20)
(0.0455579 0.00344662 -1.03397e-19)
(0.408455 -0.0347421 4.29538e-19)
(0.830921 -0.147139 -9.43455e-20)
(1.09397 -0.218432 -8.01652e-20)
(1.21115 -0.246372 2.0492e-19)
(1.24556 -0.247851 -9.1131e-20)
(1.2455 -0.237058 -4.72646e-20)
(1.23505 -0.222215 -2.54872e-20)
(1.22339 -0.204622 -9.68484e-20)
(1.21381 -0.190452 3.46722e-20)
(0.00857913 -0.00166104 -1.87231e-19)
(0.277182 -0.00954757 -2.55121e-19)
(0.68304 -0.100402 2.01635e-19)
(0.994915 -0.176951 5.66815e-20)
(1.16452 -0.217127 -1.46374e-19)
(1.23333 -0.228744 -1.48329e-19)
(1.24969 -0.223588 7.89964e-21)
(1.24556 -0.211996 -9.65936e-20)
(1.23611 -0.196409 1.47285e-19)
(1.22595 -0.181247 -2.11876e-20)
(-0.0156816 -0.00882714 8.33319e-20)
(0.165898 -0.00192791 3.98731e-19)
(0.517294 -0.0613381 -5.00441e-20)
(0.85966 -0.134253 1.40985e-20)
(1.08613 -0.184313 -3.32814e-20)
(1.20076 -0.20673 1.94303e-19)
(1.24434 -0.209141 6.59007e-20)
(1.25199 -0.201112 1.1217e-19)
(1.24604 -0.188309 -1.02679e-19)
(1.2395 -0.172622 6.17154e-20)
(-0.0300875 -0.0158708 -6.16786e-19)
(0.0813177 -0.00712615 1.5692e-19)
(0.35351 -0.0357596 -2.00295e-19)
(0.6906 -0.0933564 2.41619e-19)
(0.966406 -0.147255 -5.9671e-20)
(1.13747 -0.180525 -3.40832e-19)
(1.22032 -0.191653 1.82546e-19)
(1.25091 -0.189443 -6.83534e-20)
(1.25391 -0.179987 6.20834e-20)
(1.24794 -0.162625 1.8598e-19)
(-0.0374146 -0.0220028 2.88795e-19)
(0.0227247 -0.0184571 -4.34357e-19)
(0.213809 -0.0265864 -5.37603e-20)
(0.504213 -0.0607814 -2.68362e-19)
(0.801153 -0.108094 -3.31587e-19)
(1.02823 -0.147802 1.63378e-19)
(1.16649 -0.170196 -2.03189e-19)
(1.23139 -0.17368 -2.44764e-20)
(1.25488 -0.171723 -1.91631e-20)
(1.25883 -0.15323 -2.37646e-19)
(-0.0397722 -0.0270505 2.68324e-19)
(-0.0145375 -0.0312925 -1.02766e-19)
(0.109403 -0.0306027 9.80325e-20)
(0.329253 -0.0431163 -1.45443e-19)
(0.604039 -0.0738569 1.4309e-19)
(0.863793 -0.110654 2.65236e-19)
(1.0596 -0.140093 1.57249e-19)
(1.1828 -0.1545 -7.77091e-21)
(1.23541 -0.157624 -1.75341e-19)
(1.26015 -0.143185 1.40804e-19)
(-0.0388804 -0.0311312 3.12285e-19)
(-0.0358951 -0.0434971 1.00141e-19)
(0.0390305 -0.0416024 1.67937e-19)
(0.189466 -0.040902 4.93336e-20)
(0.40809 -0.0530288 -2.40074e-19)
(0.657995 -0.076548 7.1992e-20)
(0.88819 -0.105496 -2.73725e-19)
(1.06835 -0.122296 3.78921e-19)
(1.18835 -0.144584 2.27327e-19)
(1.23275 -0.120062 6.07643e-20)
(-0.0360719 -0.0344171 -4.41851e-19)
(-0.0461824 -0.0541666 -1.10001e-19)
(-0.00448634 -0.054517 -1.28204e-19)
(0.0914499 -0.0486826 7.46128e-20)
(0.245462 -0.0475672 3.03275e-19)
(0.447924 -0.0555442 -2.44148e-19)
(0.67238 -0.0742511 -1.06001e-19)
(0.880076 -0.087298 -1.33776e-19)
(1.05294 -0.111477 -4.27344e-19)
(1.19663 -0.116351 1.08565e-19)
(-0.0323101 -0.036959 -1.80343e-19)
(-0.0493836 -0.0627404 3.94604e-20)
(-0.0292972 -0.0662374 1.9714e-20)
(0.0286261 -0.059888 -1.20723e-19)
(0.128116 -0.0524132 -1.93287e-19)
(0.272137 -0.0516411 5.10717e-19)
(0.450592 -0.0510735 7.17839e-20)
(0.660284 -0.0647999 2.23219e-19)
(0.814357 -0.0699658 -4.39647e-20)
(1.07777 -0.0958302 1.68173e-19)
(-0.0282576 -0.0386608 3.2174e-19)
(-0.0485255 -0.0686381 7.1989e-20)
(-0.042454 -0.0748237 -3.40214e-19)
(-0.00997182 -0.0697618 1.89591e-19)
(0.0501731 -0.0607811 3.08614e-19)
(0.144921 -0.0566179 -3.00755e-19)
(0.260678 -0.0401584 2.56562e-19)
(0.45323 -0.0568776 -1.39457e-19)
(0.535906 -0.0401175 2.02902e-19)
(0.869415 -0.0681394 -3.188e-19)
(-0.0242595 -0.0392908 6.18779e-20)
(-0.0456294 -0.0712359 -4.63899e-19)
(-0.0492035 -0.0790548 4.50933e-19)
(-0.0342028 -0.0754866 -2.58212e-20)
(-0.000953427 -0.0671498 -1.5006e-19)
(0.0573712 -0.0610934 -5.17192e-21)
(0.122723 -0.0426106 -3.95089e-19)
(0.27357 -0.051925 3.552e-19)
(0.304305 -0.0310432 -2.84127e-19)
(0.608241 -0.0467546 1.98106e-19)
(-0.0204084 -0.0384628 9.27937e-20)
(-0.0419662 -0.0700154 -4.65891e-20)
(-0.0529439 -0.078284 -1.5962e-19)
(-0.0508415 -0.0758142 -1.9599e-19)
(-0.0364638 -0.0687636 4.44246e-20)
(-0.00423256 -0.0617113 -2.18126e-19)
(0.0293009 -0.0486324 -7.26432e-21)
(0.127582 -0.0451313 -3.30342e-20)
(0.143524 -0.0376606 9.80506e-20)
(0.348749 -0.0342895 4.55206e-21)
(-0.0167602 -0.0357616 -2.66128e-19)
(-0.0382947 -0.0647224 1.90509e-19)
(-0.0554821 -0.0723981 2.6807e-19)
(-0.063608 -0.0705713 -1.15647e-20)
(-0.0630048 -0.0648383 8.85375e-20)
(-0.0501244 -0.0579347 -8.32296e-20)
(-0.0374798 -0.0500942 3.32836e-19)
(0.0174508 -0.0387231 -1.07216e-19)
(0.0280197 -0.0425059 -3.40706e-19)
(0.139768 -0.0213778 1.61189e-19)
(-0.013438 -0.030929 -1.87801e-20)
(-0.0350314 -0.0554117 -2.14424e-19)
(-0.0575507 -0.0617675 -1.69594e-19)
(-0.0738913 -0.0603214 1.65266e-19)
(-0.0838595 -0.0557053 -1.21881e-19)
(-0.0861535 -0.0499163 5.552e-20)
(-0.0865583 -0.0449018 4.16051e-20)
(-0.0623129 -0.0323924 1.94382e-20)
(-0.06125 -0.0370757 1.01009e-19)
(-0.00591841 -0.0107701 -1.90632e-19)
(-0.010638 -0.0239701 1.46782e-19)
(-0.0324102 -0.0424923 1.85319e-19)
(-0.0592831 -0.0471379 5.78017e-21)
(-0.0819663 -0.0460062 -1.48611e-19)
(-0.100006 -0.0425492 2.42721e-20)
(-0.113092 -0.0383045 3.81305e-20)
(-0.122775 -0.0341662 -5.78702e-20)
(-0.120178 -0.0252479 3.01828e-20)
(-0.126095 -0.0269975 3.09773e-20)
(-0.104593 -0.00684451 -3.18391e-20)
(-0.00859289 -0.0151975 -2.09316e-20)
(-0.0305798 -0.026716 2.88808e-20)
(-0.0605713 -0.0295109 -1.28954e-19)
(-0.0876272 -0.0287633 3.35156e-20)
(-0.111165 -0.0266096 -7.38948e-20)
(-0.13104 -0.0240013 2.00192e-20)
(-0.147309 -0.0211059 3.60612e-20)
(-0.157221 -0.0161951 -6.45415e-20)
(-0.168132 -0.0158029 -7.4842e-21)
(-0.165107 -0.00536379 2.88336e-20)
(-0.00750966 -0.0052058 -1.44165e-20)
(-0.0296387 -0.00910946 3.07867e-21)
(-0.0612631 -0.0100376 6.87306e-20)
(-0.0905562 -0.00977347 2.72892e-20)
(-0.116868 -0.00904015 -1.60636e-20)
(-0.140019 -0.00815372 9.11906e-21)
(-0.159744 -0.0071164 -1.22179e-20)
(-0.175151 -0.00558414 1.88439e-20)
(-0.188964 -0.00518104 1.24814e-20)
(-0.194244 -0.00210513 5.32836e-24)
(-0.197971 0.00315926 -4.96369e-20)
(-0.201733 0.00289801 3.55198e-20)
(-0.204981 0.00256073 4.83254e-22)
(-0.207843 0.00225899 -6.15101e-21)
(-0.210388 0.00199371 -1.22762e-20)
(-0.212648 0.00176036 -1.41088e-20)
(-0.214657 0.00155396 -2.41257e-20)
(-0.216442 0.00136915 4.28981e-20)
(-0.218023 0.00120095 -2.43152e-20)
(-0.219418 0.00104518 4.98493e-20)
(-0.220638 0.000898505 -3.13896e-20)
(-0.22169 0.000758433 -4.52764e-21)
(-0.22258 0.000623184 -1.10717e-20)
(-0.223312 0.000491828 2.87028e-20)
(-0.223887 0.000364999 -1.89015e-20)
(-0.224307 0.000245494 1.92651e-20)
(-0.224577 0.000134622 -1.33963e-20)
(-0.224712 2.27357e-05 -1.12732e-20)
(-0.224718 -9.01262e-05 7.26048e-21)
(-0.224592 -0.000202784 -4.81944e-21)
(-0.224333 -0.000314931 1.79683e-20)
(-0.223938 -0.00042646 -8.18543e-21)
(-0.223408 -0.00053712 -1.21106e-20)
(-0.222741 -0.000646807 7.5088e-21)
(-0.221936 -0.000756184 -1.01824e-20)
(-0.220993 -0.000865575 1.19831e-20)
(-0.219908 -0.000975257 3.32159e-21)
(-0.21868 -0.00108546 -9.56971e-21)
(-0.217307 -0.00119636 1.71586e-20)
(-0.215786 -0.0013081 1.75075e-20)
(-0.214115 -0.00142078 -1.82047e-20)
(-0.212293 -0.00153451 7.66479e-21)
(-0.210317 -0.00164938 9.40256e-21)
(-0.208184 -0.00176545 -1.68768e-20)
(-0.205892 -0.00188276 1.97103e-20)
(-0.203441 -0.00200135 -1.92722e-20)
(-0.200827 -0.00212123 2.29446e-20)
(-0.198049 -0.00224241 -1.04563e-20)
(-0.195106 -0.00236487 -4.04611e-21)
(-0.191996 -0.00248858 7.28615e-22)
(-0.188719 -0.00261348 6.11976e-21)
(-0.185274 -0.00273951 3.55842e-21)
(-0.181659 -0.00286657 8.14991e-23)
(-0.177876 -0.00299458 -9.41728e-21)
(-0.173924 -0.0031234 -1.06685e-21)
(-0.169804 -0.00325291 -3.01521e-21)
(-0.165517 -0.00338296 6.35914e-21)
(-0.161064 -0.0035134 -5.4258e-22)
(-0.156445 -0.00364406 6.82171e-21)
(-0.151664 -0.00377478 -1.30515e-20)
(-0.146722 -0.00390525 6.59846e-21)
(-0.141621 -0.00403497 5.08976e-22)
(-0.136364 -0.00416367 -1.11825e-20)
(-0.130952 -0.00429171 5.37608e-21)
(-0.125392 -0.00441587 2.44081e-21)
(-0.119689 -0.00453858 1.40013e-21)
(-0.113846 -0.00465955 -3.29105e-21)
(-0.107869 -0.0047781 1.92845e-22)
(-0.101761 -0.00489384 1.02785e-20)
(-0.0955282 -0.00500644 -1.4999e-20)
(-0.0891746 -0.00511557 1.03337e-20)
(-0.082706 -0.0052209 1.4107e-21)
(-0.076128 -0.00532214 -1.42092e-21)
(-0.0694463 -0.00541902 -1.07886e-21)
(-0.0626667 -0.00551119 1.17463e-21)
(-0.0557953 -0.00559846 -2.23002e-21)
(-0.0488384 -0.00568117 -2.09858e-22)
(-0.0418003 -0.00576019 -5.54684e-22)
(-0.0346879 -0.00583102 2.85406e-22)
(-0.027509 -0.00589595 1.51034e-21)
(-0.020269 -0.00595529 -2.83661e-21)
(-0.0129738 -0.00600877 -7.53326e-22)
(-0.00562954 -0.00605621 2.33364e-21)
(0.0017581 -0.00609748 1.62824e-21)
(0.00918331 -0.00613261 -1.94415e-21)
(0.0166402 -0.00616158 7.98893e-22)