/*--------------------------------*- C++ -*----------------------------------*\
  =========                 |
  \\      /  F ield         | OpenFOAM: The Open Source CFD Toolbox
   \\    /   O peration     | Website:  https://openfoam.org
    \\  /    A nd           | Version:  7
     \\/     M anipulation  |
\*---------------------------------------------------------------------------*/
FoamFile
{
    version     2.0;
    format      ascii;
    class       volScalarField;
    location    "40";
    object      p;
}
// * * * * * * * * * * * * * * * * * * * * * * * * * * * * * * * * * * * * * //

dimensions      [0 2 -2 0 0 0 0];

internalField   nonuniform List<scalar> 
3313
(
-0.218507
-0.218789
-0.219068
-0.21935
-0.219645
-0.220012
-0.218657
-0.218922
-0.219184
-0.219448
-0.219724
-0.220086
-0.218946
-0.219176
-0.219402
-0.219629
-0.219865
-0.220217
-0.219357
-0.219531
-0.2197
-0.219867
-0.220038
-0.220371
-0.219868
-0.219961
-0.220046
-0.220126
-0.220199
-0.220498
-0.220454
-0.220437
-0.220406
-0.220364
-0.220299
-0.220525
-0.220932
-0.220744
-0.220541
-0.220279
-0.220297
-0.221432
-0.221042
-0.220622
-0.220087
-0.219559
-0.221308
-0.220597
-0.219702
-0.219122
-0.221559
-0.220485
-0.219083
-0.218122
-0.220365
-0.218343
-0.216595
-0.217622
-0.214679
-0.216956
-0.21246
-0.210187
-0.220869
-0.221423
-0.222561
-0.223576
-0.224756
-0.225936
-0.227108
-0.228196
-0.229141
-0.229876
-0.230331
-0.230437
-0.230119
-0.229302
-0.227901
-0.225838
-0.223031
-0.219405
-0.214904
-0.20957
-0.203356
-0.19628
-0.188388
-0.179754
-0.170475
-0.160671
-0.150471
-0.140014
-0.129433
-0.118867
-0.108432
-0.0982375
-0.0883738
-0.0789156
-0.0699191
-0.0614305
-0.0534765
-0.0460754
-0.0392349
-0.0329529
-0.0272284
-0.022039
-0.0173966
-0.0132333
-0.00965031
-0.00638502
-0.00398063
-0.00122656
-0.000802194
0.00303174
-0.22102
-0.221493
-0.222643
-0.223653
-0.224836
-0.226019
-0.227196
-0.22829
-0.229241
-0.229982
-0.230445
-0.23056
-0.230253
-0.229447
-0.22806
-0.22601
-0.223217
-0.219603
-0.215135
-0.209803
-0.203598
-0.196529
-0.188642
-0.180009
-0.170729
-0.16092
-0.150712
-0.140245
-0.129653
-0.119075
-0.108628
-0.0984199
-0.0885432
-0.0790727
-0.0700642
-0.0615646
-0.0536004
-0.0461898
-0.0393407
-0.0330508
-0.0273194
-0.0221234
-0.017476
-0.0133067
-0.00972071
-0.00644909
-0.00404267
-0.0012836
-0.000841131
0.00296523
-0.221314
-0.221621
-0.222798
-0.223796
-0.224985
-0.226176
-0.227363
-0.228467
-0.229431
-0.230186
-0.230665
-0.230797
-0.230511
-0.229728
-0.228368
-0.226346
-0.22358
-0.219988
-0.215552
-0.210247
-0.204062
-0.197007
-0.189128
-0.180496
-0.171212
-0.161393
-0.151172
-0.140687
-0.130073
-0.119472
-0.109001
-0.0987692
-0.0888689
-0.0793758
-0.0703456
-0.0618259
-0.0538427
-0.0464148
-0.03955
-0.0332455
-0.0275014
-0.022293
-0.017636
-0.0134552
-0.00986333
-0.00657915
-0.00416808
-0.00139819
-0.000919647
0.00283508
-0.221737
-0.221787
-0.223009
-0.223992
-0.225187
-0.226389
-0.227589
-0.228709
-0.22969
-0.230465
-0.230965
-0.231123
-0.230867
-0.230118
-0.228796
-0.226814
-0.224088
-0.22053
-0.216142
-0.210871
-0.204713
-0.197679
-0.189812
-0.181184
-0.171894
-0.162064
-0.151823
-0.141315
-0.130671
-0.12004
-0.109537
-0.0992727
-0.0893402
-0.0798164
-0.0707552
-0.0622087
-0.0541981
-0.0467465
-0.0398596
-0.0335344
-0.0277722
-0.0225458
-0.017875
-0.0136772
-0.0100759
-0.00677294
-0.00435361
-0.00156639
-0.0010345
0.00264869
-0.222269
-0.221964
-0.223252
-0.224218
-0.225419
-0.226634
-0.227848
-0.228986
-0.229988
-0.230787
-0.231315
-0.231504
-0.231285
-0.230579
-0.229304
-0.227373
-0.224698
-0.221188
-0.216852
-0.211626
-0.205505
-0.198498
-0.190649
-0.182029
-0.172736
-0.162893
-0.152633
-0.142098
-0.131422
-0.120756
-0.110216
-0.0999128
-0.0899425
-0.0803839
-0.0712815
-0.062703
-0.0546618
-0.0471797
-0.0402652
-0.0339139
-0.0281286
-0.0228791
-0.0181899
-0.0139699
-0.0103553
-0.00702721
-0.00459461
-0.00178317
-0.00118087
0.00241611
-0.222899
-0.222117
-0.223502
-0.224451
-0.225655
-0.226882
-0.228111
-0.229268
-0.230292
-0.231117
-0.231676
-0.231902
-0.231724
-0.231068
-0.229847
-0.227975
-0.225349
-0.221848
-0.217625
-0.21246
-0.206384
-0.199413
-0.191588
-0.182982
-0.173691
-0.16384
-0.153562
-0.143005
-0.132292
-0.121593
-0.111015
-0.100668
-0.0906577
-0.0810569
-0.0719203
-0.0633015
-0.0552241
-0.0477076
-0.0407611
-0.0343792
-0.0285664
-0.0232892
-0.0185772
-0.0143298
-0.0106972
-0.00733782
-0.00488539
-0.00204306
-0.00135286
0.00214908
-0.223651
-0.222205
-0.223731
-0.224666
-0.225868
-0.227104
-0.228346
-0.22952
-0.230566
-0.231418
-0.23201
-0.232275
-0.232143
-0.23154
-0.230379
-0.228569
-0.22601
-0.222711
-0.218435
-0.213319
-0.207296
-0.200369
-0.192578
-0.183993
-0.174711
-0.16486
-0.154571
-0.144005
-0.133238
-0.122519
-0.111905
-0.101522
-0.0914707
-0.0818279
-0.072652
-0.0639925
-0.0558766
-0.0483228
-0.041341
-0.0349249
-0.0290807
-0.0237715
-0.0190324
-0.0147526
-0.0110967
-0.00769994
-0.00521951
-0.00234054
-0.00154429
0.00185977
-0.224557
-0.222209
-0.223917
-0.224841
-0.226033
-0.227273
-0.228523
-0.229711
-0.230777
-0.231656
-0.232281
-0.232585
-0.2325
-0.231953
-0.230855
-0.229112
-0.226602
-0.22335
-0.219193
-0.214151
-0.208189
-0.201315
-0.19357
-0.185014
-0.175746
-0.165907
-0.155617
-0.145029
-0.134268
-0.123513
-0.112867
-0.10245
-0.0923616
-0.0826798
-0.0734646
-0.0647651
-0.0566098
-0.049017
-0.0419977
-0.0355446
-0.0296656
-0.0243207
-0.01955
-0.0152331
-0.0115481
-0.0081083
-0.00559021
-0.00267024
-0.00174946
0.00155965
-0.225108
-0.222296
-0.224015
-0.22496
-0.226125
-0.22736
-0.228613
-0.229811
-0.230894
-0.231797
-0.232454
-0.232798
-0.232761
-0.232269
-0.231236
-0.229567
-0.227125
-0.22395
-0.219874
-0.214906
-0.209014
-0.202202
-0.194509
-0.185999
-0.17677
-0.16695
-0.15667
-0.146081
-0.135318
-0.124545
-0.113877
-0.103434
-0.0933139
-0.0835976
-0.0743461
-0.0656082
-0.0574139
-0.0497818
-0.0427236
-0.0362313
-0.0303148
-0.0249306
-0.0201243
-0.0157656
-0.0120452
-0.00855739
-0.00599071
-0.00302695
-0.0019636
0.00125844
-0.225727
-0.22241
-0.223979
-0.225005
-0.226125
-0.227343
-0.228589
-0.229791
-0.230886
-0.231811
-0.232498
-0.232881
-0.232891
-0.232456
-0.231485
-0.229871
-0.227596
-0.224432
-0.220436
-0.215548
-0.209733
-0.202994
-0.195366
-0.186913
-0.177733
-0.16795
-0.157698
-0.147124
-0.13637
-0.125593
-0.114915
-0.104455
-0.0943113
-0.0845666
-0.075283
-0.0665097
-0.0582782
-0.0506072
-0.0435095
-0.0369766
-0.0310202
-0.025594
-0.0207479
-0.0163435
-0.0125813
-0.00904121
-0.00641421
-0.00340549
-0.00218293
0.000963539
-0.226458
-0.222462
-0.223837
-0.224941
-0.226001
-0.227186
-0.228417
-0.229618
-0.230723
-0.231668
-0.232384
-0.232806
-0.232862
-0.232482
-0.231572
-0.230016
-0.227802
-0.224747
-0.220842
-0.21604
-0.210311
-0.203655
-0.196104
-0.187723
-0.178606
-0.168877
-0.158668
-0.148128
-0.137397
-0.126632
-0.115957
-0.10549
-0.0953319
-0.0855664
-0.0762566
-0.0674524
-0.0591866
-0.0514784
-0.044342
-0.0377682
-0.0317707
-0.0263004
-0.0214114
-0.0169582
-0.0131478
-0.00955271
-0.00685378
-0.00380018
-0.0024044
0.000679972
-0.227215
-0.222457
-0.223571
-0.224744
-0.225729
-0.226861
-0.228071
-0.229266
-0.230381
-0.231344
-0.232089
-0.232548
-0.232647
-0.232321
-0.231466
-0.230062
-0.227844
-0.224875
-0.22106
-0.216349
-0.210712
-0.204148
-0.196688
-0.188392
-0.179355
-0.169696
-0.159549
-0.14906
-0.13837
-0.127633
-0.116975
-0.106515
-0.0963541
-0.0865774
-0.0772492
-0.0684203
-0.060125
-0.052383
-0.0452098
-0.0385959
-0.0325571
-0.0270414
-0.0221071
-0.0176023
-0.0137383
-0.0100857
-0.00730445
-0.00420587
-0.00262682
0.000409894
-0.227882
-0.222478
-0.223293
-0.224498
-0.225367
-0.226407
-0.227572
-0.22875
-0.229864
-0.230839
-0.231605
-0.232093
-0.232233
-0.231952
-0.231141
-0.229779
-0.22767
-0.224795
-0.221074
-0.216461
-0.210928
-0.204471
-0.197118
-0.188929
-0.179993
-0.170429
-0.160367
-0.149951
-0.139323
-0.128633
-0.118008
-0.107569
-0.097417
-0.0876374
-0.0782968
-0.0694468
-0.0611236
-0.0533476
-0.0461363
-0.0394795
-0.0333959
-0.02783
-0.0228451
-0.0182831
-0.014358
-0.0106432
-0.00776879
-0.00462294
-0.00285231
0.000149602
-0.228401
-0.22258
-0.223008
-0.224184
-0.224862
-0.225748
-0.226835
-0.227984
-0.229093
-0.230074
-0.230858
-0.231382
-0.231577
-0.231361
-0.230674
-0.2293
-0.227284
-0.22451
-0.220902
-0.216412
-0.211011
-0.204691
-0.197479
-0.18943
-0.18063
-0.171191
-0.161243
-0.150925
-0.14038
-0.129752
-0.119173
-0.10876
-0.0986187
-0.0888351
-0.0794778
-0.0706004
-0.0622414
-0.0544224
-0.0471632
-0.0404532
-0.0343142
-0.0286882
-0.0236415
-0.0190138
-0.0150142
-0.0112331
-0.00824731
-0.00505794
-0.00307604
-0.000111631
-0.226957
-0.220547
-0.221243
-0.22265
-0.223288
-0.224103
-0.2252
-0.226427
-0.227637
-0.228715
-0.229586
-0.230193
-0.230486
-0.2304
-0.229759
-0.228485
-0.226569
-0.223899
-0.220405
-0.216038
-0.210766
-0.20458
-0.197504
-0.18959
-0.180922
-0.171609
-0.161776
-0.151561
-0.141104
-0.13055
-0.120028
-0.109658
-0.0995455
-0.0897781
-0.0804261
-0.0715441
-0.0631722
-0.0553333
-0.0480477
-0.0413068
-0.03513
-0.029465
-0.0243665
-0.019695
-0.0156186
-0.0117978
-0.00868109
-0.00548421
-0.00325963
-0.000367779
-0.194563
-0.19524
-0.202836
-0.208164
-0.210889
-0.212678
-0.214605
-0.216839
-0.219139
-0.221235
-0.222968
-0.224268
-0.225098
-0.225423
-0.225206
-0.224342
-0.222713
-0.22027
-0.216978
-0.212802
-0.20772
-0.20173
-0.194864
-0.187181
-0.178768
-0.169736
-0.160207
-0.150314
-0.140194
-0.129978
-0.119793
-0.10975
-0.0999484
-0.0904707
-0.0813835
-0.0727378
-0.0645709
-0.0569055
-0.0497559
-0.0431218
-0.0370032
-0.0313788
-0.0262447
-0.0215543
-0.0173134
-0.0134343
-0.0099546
-0.00671605
-0.0038278
-0.00104377
-0.16724
-0.17867
-0.184944
-0.188596
-0.191345
-0.194008
-0.196778
-0.199505
-0.20194
-0.203898
-0.205304
-0.206155
-0.206462
-0.206208
-0.20534
-0.203847
-0.201714
-0.198884
-0.195398
-0.191266
-0.186477
-0.181027
-0.174933
-0.168242
-0.161017
-0.153334
-0.145279
-0.136946
-0.128429
-0.11982
-0.111211
-0.102681
-0.0943061
-0.0861494
-0.0782645
-0.0706954
-0.0634735
-0.0566227
-0.0501553
-0.044079
-0.0383902
-0.0330834
-0.0281418
-0.0235491
-0.0192759
-0.015297
-0.0115693
-0.00806452
-0.0047268
-0.0015516
-0.143856
-0.152481
-0.157369
-0.1603
-0.162753
-0.165351
-0.16811
-0.170788
-0.173128
-0.174978
-0.176298
-0.177113
-0.177463
-0.177378
-0.176876
-0.175969
-0.174663
-0.172912
-0.170529
-0.167425
-0.163632
-0.159226
-0.154283
-0.148857
-0.143
-0.136766
-0.130215
-0.123414
-0.116433
-0.109339
-0.102201
-0.0950833
-0.088041
-0.081125
-0.0743757
-0.0678301
-0.0615135
-0.0554504
-0.0496506
-0.0441281
-0.0388771
-0.033904
-0.0291871
-0.0247295
-0.0204914
-0.0164795
-0.0126311
-0.008965
-0.00538055
-0.00190689
-0.115366
-0.124714
-0.130221
-0.133741
-0.136723
-0.139768
-0.142894
-0.145883
-0.148524
-0.150711
-0.152414
-0.153651
-0.154448
-0.154822
-0.154757
-0.154205
-0.153105
-0.151408
-0.149149
-0.146411
-0.143231
-0.139619
-0.135588
-0.131165
-0.126385
-0.12129
-0.115927
-0.110345
-0.104595
-0.098728
-0.0927932
-0.0868381
-0.0809042
-0.0750308
-0.0692497
-0.0635915
-0.0580769
-0.0527284
-0.0475545
-0.0425704
-0.0377715
-0.0331684
-0.0287423
-0.0245033
-0.0204153
-0.0164945
-0.0126805
-0.00900513
-0.00537333
-0.00185652
-0.0934073
-0.102017
-0.107794
-0.111886
-0.115337
-0.118651
-0.121899
-0.124944
-0.127627
-0.129855
-0.1316
-0.132874
-0.133691
-0.134051
-0.133952
-0.133401
-0.132429
-0.131081
-0.129389
-0.127315
-0.124837
-0.121964
-0.118724
-0.115151
-0.111277
-0.107138
-0.102768
-0.0982032
-0.0934805
-0.0886373
-0.0837097
-0.0787331
-0.0737387
-0.0687575
-0.0638144
-0.0589349
-0.0541357
-0.0494369
-0.0448456
-0.0403772
-0.0360282
-0.0318117
-0.0277117
-0.0237432
-0.0198742
-0.0161282
-0.0124509
-0.00888541
-0.005341
-0.00188882
-0.0767714
-0.0842815
-0.089807
-0.094012
-0.0975763
-0.10088
-0.104013
-0.106906
-0.109454
-0.111585
-0.113277
-0.114536
-0.115382
-0.115836
-0.115922
-0.115663
-0.115066
-0.114125
-0.112824
-0.111172
-0.109182
-0.106871
-0.104256
-0.101361
-0.0982099
-0.0948289
-0.0912436
-0.0874815
-0.08357
-0.0795379
-0.0754119
-0.0712193
-0.066984
-0.0627306
-0.0584787
-0.0542492
-0.0500555
-0.0459153
-0.0418347
-0.0378287
-0.033895
-0.0300478
-0.026274
-0.0225912
-0.0189718
-0.0154427
-0.011955
-0.00855385
-0.00515262
-0.0018226
-0.0635701
-0.0701091
-0.0751226
-0.0790979
-0.0825226
-0.0856731
-0.088622
-0.091328
-0.0937202
-0.0957487
-0.0973968
-0.0986734
-0.0995979
-0.10019
-0.100461
-0.100415
-0.100051
-0.0993689
-0.0983748
-0.0970856
-0.0955127
-0.0936665
-0.0915616
-0.0892155
-0.0866464
-0.0838736
-0.0809173
-0.0777988
-0.0745395
-0.0711612
-0.0676845
-0.0641309
-0.0605194
-0.0568701
-0.0531984
-0.049522
-0.0458517
-0.0422031
-0.0385814
-0.0350006
-0.0314589
-0.027971
-0.0245259
-0.0211418
-0.0177949
-0.0145129
-0.011252
-0.00805762
-0.00485196
-0.00170994
-0.0530941
-0.0586952
-0.0631316
-0.0667555
-0.0699296
-0.0728596
-0.0755979
-0.078112
-0.0803489
-0.0822716
-0.0838678
-0.085143
-0.0861097
-0.0867791
-0.0871586
-0.0872524
-0.0870644
-0.0866001
-0.0858658
-0.0848696
-0.0836289
-0.082157
-0.0804638
-0.0785596
-0.0764579
-0.0741742
-0.0717249
-0.0691272
-0.0663978
-0.0635539
-0.0606116
-0.0575881
-0.0544984
-0.0513586
-0.0481811
-0.0449808
-0.0417665
-0.0385518
-0.0353411
-0.0321473
-0.0289691
-0.0258207
-0.0226927
-0.0196036
-0.0165326
-0.0135078
-0.0104899
-0.00752489
-0.00454135
-0.00160983
-0.0445936
-0.0494002
-0.0532887
-0.0565343
-0.0594184
-0.0620978
-0.0646082
-0.0669196
-0.0689883
-0.0707842
-0.0722969
-0.0735301
-0.0744924
-0.0751927
-0.0756374
-0.0758319
-0.0757808
-0.0754894
-0.0749645
-0.0742148
-0.0732533
-0.0720873
-0.0707253
-0.0691768
-0.0674532
-0.0655668
-0.0635308
-0.061359
-0.0590645
-0.0566613
-0.0541621
-0.0515807
-0.0489288
-0.0462197
-0.0434636
-0.0406728
-0.0378548
-0.0350214
-0.0321763
-0.0293315
-0.0264859
-0.023653
-0.0208251
-0.01802
-0.0152198
-0.0124516
-0.00968067
-0.00695068
-0.00419659
-0.00148583
-0.0376279
-0.0417579
-0.0451529
-0.0480327
-0.0506213
-0.0530406
-0.055315
-0.0574166
-0.0593078
-0.0609634
-0.0623748
-0.0635447
-0.0644803
-0.0651888
-0.0656757
-0.0659455
-0.0660021
-0.0658499
-0.0654939
-0.06494
-0.0641948
-0.0632699
-0.0621734
-0.0609127
-0.0594965
-0.0579344
-0.056237
-0.0544153
-0.0524799
-0.0504421
-0.0483122
-0.0461012
-0.0438189
-0.041476
-0.0390808
-0.0366439
-0.0341714
-0.0316738
-0.0291543
-0.0266238
-0.0240815
-0.0215401
-0.0189929
-0.0164571
-0.0139169
-0.0113984
-0.00887037
-0.00637439
-0.00385167
-0.00136567
-0.0318525
-0.0354112
-0.038372
-0.0409145
-0.0432203
-0.0453868
-0.0474308
-0.049327
-0.0510428
-0.0525569
-0.0538618
-0.0549597
-0.055856
-0.0565562
-0.0570644
-0.0573836
-0.0575166
-0.0574665
-0.0572375
-0.0568346
-0.0562639
-0.0555347
-0.0546534
-0.0536264
-0.0524608
-0.0511644
-0.0497456
-0.0482133
-0.046576
-0.0448431
-0.0430228
-0.0411244
-0.0391556
-0.0371256
-0.0350411
-0.0329112
-0.030741
-0.0285397
-0.0263101
-0.0240621
-0.021795
-0.0195209
-0.0172337
-0.0149499
-0.0126554
-0.0103749
-0.00808045
-0.00581104
-0.00351347
-0.00124662
-0.0270155
-0.0300921
-0.0326755
-0.0349152
-0.0369612
-0.0388925
-0.0407211
-0.0424242
-0.0439737
-0.045351
-0.0465496
-0.0475706
-0.0484183
-0.0490966
-0.0496082
-0.0499552
-0.0501395
-0.0501636
-0.0500309
-0.0497458
-0.0493145
-0.0487426
-0.0480358
-0.047199
-0.0462384
-0.0451606
-0.0439723
-0.0426804
-0.041292
-0.0398149
-0.0382558
-0.0366224
-0.0349212
-0.0331596
-0.0313435
-0.0294806
-0.0275753
-0.0256356
-0.0236639
-0.0216692
-0.019651
-0.0176204
-0.0155722
-0.0135217
-0.0114564
-0.00939941
-0.00732584
-0.00527171
-0.00318911
-0.00113234
-0.02293
-0.0255989
-0.0278565
-0.0298291
-0.0316419
-0.0333599
-0.0349919
-0.0365176
-0.0379123
-0.0391602
-0.0402552
-0.0411979
-0.0419913
-0.0426383
-0.0431408
-0.0435002
-0.043718
-0.0437963
-0.0437378
-0.0435456
-0.0432223
-0.0427737
-0.0422062
-0.041525
-0.0407337
-0.0398369
-0.0388398
-0.0377485
-0.0365689
-0.0353075
-0.0339698
-0.0325622
-0.03109
-0.0295599
-0.0279764
-0.0263464
-0.0246735
-0.0229648
-0.0212225
-0.0194546
-0.0176607
-0.015851
-0.014021
-0.0121848
-0.0103316
-0.00848231
-0.00661502
-0.00476282
-0.00288261
-0.00102415
-0.0194545
-0.0217776
-0.0237549
-0.0254938
-0.0271
-0.0286274
-0.0300825
-0.0314471
-0.0327001
-0.0338274
-0.0348238
-0.0356895
-0.0364266
-0.0370371
-0.0375225
-0.0378835
-0.0381212
-0.0382368
-0.0382322
-0.03811
-0.037873
-0.0375254
-0.0370726
-0.0365181
-0.0358651
-0.0351174
-0.0342795
-0.0333562
-0.0323525
-0.0312736
-0.0301241
-0.0289096
-0.0276345
-0.0263042
-0.0249229
-0.0234963
-0.0220276
-0.0205231
-0.0189846
-0.0174195
-0.0158273
-0.0142173
-0.0125857
-0.0109453
-0.00928665
-0.00762896
-0.00595265
-0.00428801
-0.00259633
-0.000922994
-0.0164804
-0.0185092
-0.0202453
-0.0217808
-0.023205
-0.0245634
-0.0258605
-0.0270804
-0.0282048
-0.0292216
-0.030126
-0.030918
-0.0315991
-0.0321709
-0.032634
-0.0329889
-0.0332362
-0.0333768
-0.0334122
-0.0333444
-0.0331759
-0.0329094
-0.0325481
-0.0320966
-0.0315577
-0.0309341
-0.0302292
-0.0294473
-0.0285922
-0.0276684
-0.0266798
-0.0256309
-0.0245256
-0.0233686
-0.0221633
-0.0209148
-0.0196257
-0.0183017
-0.0169443
-0.0155601
-0.0141488
-0.0127189
-0.0112669
-0.00980457
-0.00832352
-0.00684134
-0.00534057
-0.00384877
-0.00233125
-0.000829228
-0.0139228
-0.0157
-0.0172285
-0.018587
-0.0198517
-0.0210608
-0.0222177
-0.0233085
-0.0243173
-0.0252336
-0.0260533
-0.0267761
-0.0274031
-0.0279354
-0.0283733
-0.028717
-0.0289667
-0.0291232
-0.0291875
-0.0291612
-0.0290459
-0.028844
-0.0285577
-0.0281908
-0.0277458
-0.0272255
-0.0266326
-0.02597
-0.0252411
-0.0244495
-0.0235987
-0.0226925
-0.0217342
-0.0207277
-0.019676
-0.0185836
-0.0174527
-0.0162882
-0.0150917
-0.0138689
-0.0126197
-0.0113516
-0.0100618
-0.00876075
-0.00744115
-0.00611895
-0.00477862
-0.00344514
-0.00208749
-0.000742923
-0.0117147
-0.0132761
-0.0146252
-0.0158298
-0.0169547
-0.0180324
-0.0190654
-0.0200414
-0.0209467
-0.0217723
-0.0225147
-0.0231733
-0.023749
-0.0242425
-0.0246539
-0.0249832
-0.0252304
-0.0253959
-0.0254804
-0.0254851
-0.0254112
-0.0252606
-0.0250353
-0.024739
-0.0243729
-0.0239393
-0.0234404
-0.0228788
-0.0222571
-0.0215787
-0.0208463
-0.0200632
-0.0192322
-0.0183567
-0.0174393
-0.0164838
-0.0154923
-0.014469
-0.0134153
-0.0123364
-0.0112321
-0.0101093
-0.00896541
-0.00781005
-0.00663666
-0.00545969
-0.00426535
-0.0030762
-0.00186452
-0.00066392
-0.00980191
-0.0111776
-0.0123715
-0.0134419
-0.0144446
-0.0154066
-0.0163301
-0.0172043
-0.0180174
-0.0187616
-0.0194337
-0.0200334
-0.0205612
-0.0210174
-0.0214022
-0.0217152
-0.0219563
-0.0221259
-0.0222244
-0.0222527
-0.0222121
-0.0221037
-0.0219291
-0.0216891
-0.0213877
-0.0210265
-0.0206071
-0.0201313
-0.0196014
-0.0190201
-0.0183897
-0.0177132
-0.0169928
-0.0162317
-0.0154318
-0.0145966
-0.013728
-0.0128296
-0.0119027
-0.0109519
-0.00997707
-0.00898438
-0.00797164
-0.00694747
-0.00590608
-0.00486052
-0.00379853
-0.00274042
-0.00166148
-0.000591929
-0.00814094
-0.00935595
-0.0104151
-0.0113686
-0.0122639
-0.0131243
-0.0139511
-0.0147351
-0.0154661
-0.0161374
-0.0167462
-0.0172921
-0.0177755
-0.0181965
-0.0185551
-0.018851
-0.019084
-0.0192541
-0.0193618
-0.0194076
-0.0193924
-0.0193171
-0.019183
-0.0189916
-0.0187452
-0.0184452
-0.018093
-0.0176903
-0.0172389
-0.0167412
-0.016199
-0.0156149
-0.0149908
-0.0143295
-0.0136327
-0.0129034
-0.0121431
-0.0113553
-0.0105409
-0.00970414
-0.00884489
-0.00796865
-0.00707353
-0.00616728
-0.0052448
-0.0043178
-0.00337543
-0.00243592
-0.00147727
-0.000526571
-0.00669651
-0.00777186
-0.00871361
-0.00956475
-0.0103658
-0.0111366
-0.011878
-0.0125821
-0.0132401
-0.0138462
-0.0143981
-0.0148951
-0.0153377
-0.0157259
-0.0160594
-0.0163381
-0.0165615
-0.0167297
-0.0168429
-0.0169016
-0.0169064
-0.0168582
-0.0167579
-0.0166066
-0.0164057
-0.0161573
-0.0158624
-0.0155223
-0.0151385
-0.0147128
-0.0142469
-0.0137431
-0.0132031
-0.0126291
-0.0120227
-0.0113865
-0.0107219
-0.0100319
-0.00931741
-0.00858207
-0.00782586
-0.00705369
-0.0062639
-0.00546345
-0.00464784
-0.00382759
-0.00299306
-0.00216059
-0.00131063
-0.000467423
-0.00543738
-0.0063914
-0.00723064
-0.00799205
-0.00871027
-0.00940202
-0.0100681
-0.0107014
-0.0112946
-0.0118426
-0.0123432
-0.0127961
-0.0132014
-0.0135592
-0.0138691
-0.0141308
-0.014344
-0.0145086
-0.0146249
-0.014693
-0.0147135
-0.0146871
-0.0146146
-0.0144967
-0.0143345
-0.0141297
-0.0138834
-0.0135969
-0.0132713
-0.0129079
-0.0125084
-0.0120746
-0.0116079
-0.0111104
-0.0105835
-0.0100294
-0.0094493
-0.00884591
-0.00821999
-0.00757484
-0.00691044
-0.00623117
-0.00553559
-0.00482992
-0.00411021
-0.00338586
-0.00264834
-0.00191227
-0.00116028
-0.000414025
-0.00433813
-0.00518642
-0.00593604
-0.00661869
-0.00726395
-0.00788602
-0.00848544
-0.0090562
-0.00959177
-0.0100879
-0.0105427
-0.0109558
-0.0113272
-0.011657
-0.0119448
-0.0121902
-0.012393
-0.0125531
-0.0126704
-0.0127453
-0.0127781
-0.0127693
-0.0127195
-0.0126294
-0.0125
-0.0123326
-0.0121283
-0.0118879
-0.0116124
-0.011303
-0.0109611
-0.0105882
-0.0101857
-0.00975531
-0.00929823
-0.00881647
-0.00831105
-0.00778434
-0.00723703
-0.00667205
-0.00608942
-0.00549302
-0.00488161
-0.00426075
-0.00362696
-0.00298862
-0.00233822
-0.00168879
-0.00102492
-0.000365934
-0.00337762
-0.00413348
-0.00480456
-0.00541797
-0.00599892
-0.00655946
-0.00709996
-0.00761524
-0.00809966
-0.00854956
-0.00896333
-0.00934059
-0.00968135
-0.00998551
-0.0102528
-0.0104828
-0.0106753
-0.0108301
-0.0109473
-0.0110269
-0.0110692
-0.0110748
-0.0110441
-0.0109777
-0.0108761
-0.0107402
-0.0105713
-0.0103706
-0.0101385
-0.00987619
-0.00958454
-0.00926499
-0.0089187
-0.00854722
-0.00815161
-0.00773362
-0.00729417
-0.00683534
-0.00635775
-0.005864
-0.00535412
-0.00483158
-0.0042953
-0.00375023
-0.00319331
-0.00263202
-0.00205973
-0.00148803
-0.000903294
-0.000322702
-0.00253745
-0.00321247
-0.00381461
-0.00436704
-0.00489122
-0.00539737
-0.00588573
-0.00635182
-0.00679081
-0.00719955
-0.00757662
-0.00792169
-0.0082347
-0.00851555
-0.00876394
-0.00897953
-0.00916204
-0.00931129
-0.00942726
-0.00951007
-0.00955994
-0.00957717
-0.00956213
-0.00951529
-0.00943719
-0.00932876
-0.00919089
-0.00902448
-0.00883
-0.00860835
-0.00836047
-0.00808753
-0.00779052
-0.00747081
-0.00712934
-0.00676763
-0.0063865
-0.00598779
-0.00557204
-0.00514157
-0.00469642
-0.00423967
-0.00377039
-0.00329298
-0.00280477
-0.0023124
-0.00181003
-0.00130797
-0.000794177
-0.000283903
-0.00180243
-0.00240651
-0.002948
-0.00344663
-0.00392063
-0.00437864
-0.0048208
-0.00524326
-0.00564188
-0.00601394
-0.00635822
-0.00667438
-0.00696237
-0.00722204
-0.00745311
-0.00765527
-0.00782823
-0.00797183
-0.00808601
-0.00817084
-0.0082265
-0.00825324
-0.00825138
-0.00822134
-0.00816359
-0.00807855
-0.00796686
-0.00782975
-0.00766797
-0.00748204
-0.00727254
-0.00704046
-0.00678672
-0.00651253
-0.00621874
-0.00590669
-0.00557711
-0.00523161
-0.00487068
-0.0044964
-0.00410878
-0.00371059
-0.00330101
-0.00288396
-0.00245708
-0.0020263
-0.00158646
-0.00114671
-0.000696432
-0.000249137
-0.00115926
-0.001701
-0.00218905
-0.00264013
-0.00306971
-0.00348505
-0.00388625
-0.00426998
-0.00463271
-0.00497208
-0.00528704
-0.00557729
-0.00584273
-0.00608321
-0.00629847
-0.0064882
-0.00665215
-0.00679015
-0.00690213
-0.00698814
-0.0070483
-0.00708281
-0.00709192
-0.00707596
-0.00703528
-0.00697035
-0.00688182
-0.00677049
-0.00663711
-0.00648209
-0.00630597
-0.00610967
-0.00589393
-0.00565981
-0.00540804
-0.00513985
-0.00485585
-0.00455748
-0.00424518
-0.00392077
-0.00358429
-0.00323819
-0.00288177
-0.00251851
-0.00214635
-0.00177053
-0.00138654
-0.00100248
-0.000608984
-0.000218022
-0.000596545
-0.00108342
-0.00152429
-0.0019333
-0.00232348
-0.00270098
-0.00306581
-0.00341514
-0.00374593
-0.00405617
-0.00434494
-0.00461195
-0.00485709
-0.00508022
-0.00528107
-0.00545938
-0.00561489
-0.00574745
-0.00585698
-0.00594351
-0.00600712
-0.00604797
-0.00606628
-0.00606232
-0.00603642
-0.00598899
-0.00592041
-0.00583119
-0.00572223
-0.00559423
-0.00544755
-0.00528275
-0.00510043
-0.00490158
-0.00468688
-0.00445739
-0.00421369
-0.00395703
-0.00368782
-0.00340765
-0.00311659
-0.00281681
-0.00250769
-0.00219233
-0.00186893
-0.00154213
-0.00120797
-0.000873619
-0.000530846
-0.000190213
-0.000104394
-0.000542919
-0.000942082
-0.00131378
-0.00166901
-0.00201288
-0.00234541
-0.00266416
-0.00296653
-0.0032508
-0.00351616
-0.00376235
-0.00398924
-0.00419668
-0.00438445
-0.00455228
-0.00469995
-0.00482729
-0.00493425
-0.00502082
-0.00508707
-0.00513313
-0.00515916
-0.0051654
-0.0051521
-0.00511962
-0.00506831
-0.00499867
-0.00491118
-0.0048068
-0.00468575
-0.00454847
-0.00439552
-0.00422773
-0.00404571
-0.00385041
-0.00364233
-0.0034226
-0.00319157
-0.00295065
-0.00269992
-0.00244128
-0.00217423
-0.00190149
-0.00162151
-0.00133839
-0.00104865
-0.000758626
-0.000461103
-0.000165384
0.000325808
-7.00577e-05
-0.000432301
-0.000770894
-0.00109505
-0.00140904
-0.00171285
-0.00200439
-0.00228146
-0.00254256
-0.002787
-0.00301453
-0.00322502
-0.00341832
-0.00359422
-0.00375247
-0.00389288
-0.00401529
-0.00411963
-0.0042059
-0.00427413
-0.00432444
-0.00435696
-0.00437187
-0.00436942
-0.00434988
-0.00431353
-0.00426077
-0.00419199
-0.00410832
-0.00400969
-0.00389667
-0.00376964
-0.00362926
-0.00347607
-0.00331095
-0.00313437
-0.00294731
-0.0027501
-0.00254398
-0.00232903
-0.00210693
-0.00187726
-0.00164242
-0.00140107
-0.00115682
-0.000906643
-0.000656114
-0.000398919
-0.00014324
0.000701572
0.000343382
1.38546e-05
-0.000295324
-0.000591839
-0.000879253
-0.00115751
-0.00142484
-0.00167936
-0.0019198
-0.00214554
-0.00235636
-0.00255211
-0.00273267
-0.00289781
-0.00304734
-0.00318105
-0.00329882
-0.00340057
-0.00348628
-0.00355599
-0.00360978
-0.00364777
-0.00367012
-0.00367703
-0.00366876
-0.0036456
-0.0036079
-0.00355598
-0.00348973
-0.00341054
-0.00331872
-0.0032144
-0.00309812
-0.00297035
-0.00283187
-0.00268311
-0.00252495
-0.00235768
-0.0021824
-0.00199918
-0.00180951
-0.00161303
-0.00141187
-0.00120486
-0.000995175
-0.0007802
-0.000564821
-0.000343534
-0.000123513
0.0010295
0.000704602
0.000404088
0.000121065
-0.000150848
-0.0004146
-0.000670115
-0.000915888
-0.00115032
-0.00137232
-0.00158136
-0.00177721
-0.00195974
-0.00212881
-0.00228423
-0.00242582
-0.00255338
-0.00266681
-0.00276603
-0.00285102
-0.00292179
-0.00297842
-0.003021
-0.00304967
-0.0030646
-0.003066
-0.00305409
-0.00302917
-0.00299152
-0.00294152
-0.00287958
-0.00280633
-0.00272198
-0.00262696
-0.00252164
-0.0024067
-0.00228252
-0.00214992
-0.00200915
-0.00186119
-0.00170609
-0.00154518
-0.00137815
-0.00120689
-0.00103037
-0.000851414
-0.000667728
-0.000483605
-0.000294255
-0.000105957
0.00131535
0.00101989
0.000745126
0.000485375
0.00023537
-7.31037e-06
-0.000242578
-0.000469156
-0.000685688
-0.000891244
-0.00108535
-0.00126779
-0.00143846
-0.0015972
-0.00174384
-0.00187821
-0.00200015
-0.00210955
-0.00220633
-0.00229047
-0.00236198
-0.00242092
-0.00246736
-0.00250142
-0.00252325
-0.00253302
-0.00253093
-0.00251724
-0.00249218
-0.00245609
-0.00240936
-0.00235237
-0.00228557
-0.0022093
-0.00212381
-0.00202966
-0.00192722
-0.00181721
-0.00169988
-0.0015761
-0.00144591
-0.00131049
-0.00116958
-0.00102483
-0.000875383
-0.000723693
-0.000567792
-0.000411431
-0.000250458
-9.03502e-05
0.00156427
0.00129482
0.0010429
0.000803863
0.000573372
0.000349456
0.000132212
-7.72764e-05
-0.00027786
-0.000468746
-0.000649514
-0.00081997
-0.000979991
-0.00112944
-0.00126817
-0.001396
-0.0015128
-0.00161846
-0.00171292
-0.00179614
-0.00186814
-0.00192895
-0.00197865
-0.00201732
-0.00204508
-0.00206211
-0.00206857
-0.00206468
-0.00205068
-0.00202682
-0.00199327
-0.00195052
-0.00189914
-0.00183941
-0.00177143
-0.00169566
-0.00161241
-0.00152236
-0.00142575
-0.00132334
-0.0012152
-0.00110234
-0.000984562
-0.00086331
-0.000737858
-0.00061035
-0.000479096
-0.000347367
-0.000211578
-7.64926e-05
0.00178069
0.00153426
0.00130261
0.00108199
0.000868879
0.000661668
0.000460465
0.000266187
7.98048e-05
-9.80015e-05
-0.000266864
-0.000426599
-0.000577086
-0.000718197
-0.000849785
-0.000971703
-0.00108382
-0.00118604
-0.0012783
-0.00136057
-0.00143286
-0.00149519
-0.00154761
-0.00159022
-0.00162311
-0.00164643
-0.00166031
-0.00166497
-0.00166059
-0.0016474
-0.00162565
-0.00159568
-0.00155769
-0.00151231
-0.00145968
-0.0014001
-0.0013338
-0.00126136
-0.00118303
-0.00109951
-0.00101085
-0.000917951
-0.000820643
-0.000720191
-0.000615983
-0.000509893
-0.000400475
-0.000290574
-0.000177107
-6.42039e-05
0.00196862
0.0017425
0.00152883
0.00132459
0.00112693
0.000934576
0.000747637
0.000566884
0.000393139
0.000226983
6.87393e-05
-8.14199e-05
-0.000223376
-0.000357007
-0.000482177
-0.000598752
-0.000706615
-0.000805676
-0.000895877
-0.000977187
-0.0010496
-0.00111315
-0.00116787
-0.00121384
-0.00125114
-0.0012799
-0.00130024
-0.00131234
-0.00131637
-0.00131253
-0.00130105
-0.0012822
-0.0012562
-0.00122341
-0.00118422
-0.00113887
-0.00108752
-0.00103063
-0.000968432
-0.000901565
-0.000830108
-0.000754839
-0.00067562
-0.000593556
-0.000508134
-0.000420988
-0.000330888
-0.000240301
-0.000146591
-5.33234e-05
0.00213165
0.0019234
0.00172563
0.00153592
0.00135199
0.00117284
0.00099856
0.000829819
0.000667302
0.000511506
0.000362718
0.000221099
8.67634e-05
-4.01719e-05
-0.000159582
-0.000271345
-0.000375354
-0.000471527
-0.000559807
-0.000640167
-0.0007126
-0.000777122
-0.000833771
-0.000882606
-0.000923705
-0.000957171
-0.000983121
-0.0010017
-0.00101307
-0.00101741
-0.00101489
-0.00100577
-0.000990233
-0.000968609
-0.000941163
-0.000908314
-0.000870122
-0.000826949
-0.000778986
-0.000726806
-0.000670509
-0.000610786
-0.000547527
-0.000481693
-0.000412857
-0.000342438
-0.000269401
-0.000195876
-0.000119622
-4.37052e-05
0.00227264
0.00208015
0.00189644
0.00171961
0.00154787
0.00138042
0.00121738
0.00105929
0.000906741
0.000760148
0.00061977
0.000485755
0.000358217
0.000237265
0.000123014
1.55771e-05
-8.49494e-05
-0.00017849
-0.000264992
-0.000344427
-0.000416786
-0.000482081
-0.000540343
-0.000591622
-0.000635985
-0.000673523
-0.000704336
-0.000728556
-0.000746314
-0.00075778
-0.000763114
-0.00076252
-0.000756174
-0.000744279
-0.000727074
-0.000705193
-0.000678585
-0.000647504
-0.000612083
-0.00057283
-0.00052987
-0.000483826
-0.000434619
-0.000383081