/*--------------------------------*- C++ -*----------------------------------*\
  =========                 |
  \\      /  F ield         | OpenFOAM: The Open Source CFD Toolbox
   \\    /   O peration     | Website:  https://openfoam.org
    \\  /    A nd           | Version:  7
     \\/     M anipulation  |
\*---------------------------------------------------------------------------*/
FoamFile
{
    version     2.0;
    format      ascii;
    class       volVectorField;
    location    "15";
    object      U;
}
// * * * * * * * * * * * * * * * * * * * * * * * * * * * * * * * * * * * * * //

dimensions      [0 1 -1 0 0 0 0];

internalField   nonuniform List<vector> 
1360
(
(0.521982 -0.00485858 -2.34802e-21)
(0.526845 -0.00479995 -4.74089e-22)
(0.531655 -0.00474315 2.20543e-21)
(0.536414 -0.00468816 7.10161e-22)
(0.541123 -0.00463498 -1.86491e-21)
(0.545783 -0.00458359 -2.92547e-21)
(0.550397 -0.00453398 3.95648e-21)
(0.554966 -0.00448612 -3.36211e-22)
(0.559492 -0.00444002 -2.14951e-21)
(0.563977 -0.00439564 1.06461e-21)
(0.568421 -0.00435297 -1.51939e-21)
(0.572828 -0.00431198 2.72241e-21)
(0.577198 -0.00427265 3.4812e-22)
(0.581533 -0.00423495 -2.24836e-21)
(0.585835 -0.00419885 -5.91034e-22)
(0.590105 -0.00416434 8.05899e-22)
(0.594345 -0.00413136 5.98688e-22)
(0.598556 -0.0040999 -8.12706e-22)
(0.60274 -0.00406992 3.40199e-22)
(0.606898 -0.00404139 3.25077e-22)
(0.611032 -0.00401426 -7.04074e-22)
(0.615142 -0.00398849 7.31768e-22)
(0.619231 -0.00396406 -4.24231e-22)
(0.6233 -0.00394091 3.08603e-22)
(0.627349 -0.00391901 2.58355e-22)
(0.631381 -0.0038983 -4.42738e-22)
(0.635395 -0.00387876 -4.83132e-22)
(0.639394 -0.00386032 3.34941e-22)
(0.643379 -0.00384294 2.51418e-22)
(0.64735 -0.00382658 -3.35802e-22)
(0.651308 -0.00381118 -1.20594e-22)
(0.655255 -0.0037967 2.50033e-22)
(0.659192 -0.00378308 -1.02798e-22)
(0.663118 -0.00377028 4.96485e-22)
(0.667036 -0.00375823 -4.47504e-22)
(0.670946 -0.0037469 6.00299e-23)
(0.674847 -0.00373621 1.26514e-22)
(0.678742 -0.00372613 3.32494e-23)
(0.682631 -0.00371658 -4.93722e-23)
(0.686514 -0.00370752 -6.40583e-23)
(0.690391 -0.00369888 8.54866e-23)
(0.694264 -0.0036906 -6.0666e-23)
(0.698132 -0.00368261 3.4412e-23)
(0.701995 -0.00367485 2.51132e-24)
(0.705854 -0.00366722 -8.08473e-24)
(0.70971 -0.00365964 7.67889e-25)
(0.713564 -0.00365201 -3.38148e-25)
(0.717398 -0.00364415 3.43086e-24)
(0.721187 -0.00363517 2.61209e-24)
(0.725271 -0.00362306 1.14126e-25)
(0.730483 -0.00361315 2.77756e-24)
(0.538448 -0.0143414 -8.76676e-21)
(0.543071 -0.0141696 -6.5044e-21)
(0.547644 -0.0140032 1.34096e-20)
(0.552169 -0.0138421 -4.80886e-21)
(0.556649 -0.0136863 5.39931e-21)
(0.561083 -0.0135358 -1.51965e-20)
(0.565475 -0.0133905 1.88018e-20)
(0.569826 -0.0132504 3.86763e-22)
(0.574137 -0.0131154 -5.48171e-21)
(0.578409 -0.0129855 -2.87718e-21)
(0.582645 -0.0128607 9.85734e-23)
(0.586847 -0.0127408 -1.50275e-21)
(0.591014 -0.0126258 3.95982e-21)
(0.59515 -0.0125156 -2.13226e-21)
(0.599255 -0.0124101 1.17689e-21)
(0.603331 -0.0123092 -7.07617e-22)
(0.60738 -0.012213 3.21552e-22)
(0.611402 -0.0121211 -3.12687e-22)
(0.6154 -0.0120337 -2.75208e-21)
(0.619374 -0.0119505 2.09802e-22)
(0.623326 -0.0118714 1.73493e-21)
(0.627257 -0.0117963 -2.98164e-21)
(0.631169 -0.0117252 2.88066e-21)
(0.635062 -0.0116579 -1.8026e-21)
(0.638939 -0.0115942 1.11863e-21)
(0.642799 -0.0115341 6.90668e-22)
(0.646644 -0.0114774 7.42989e-22)
(0.650476 -0.011424 -5.14977e-22)
(0.654295 -0.0113737 -2.60082e-21)
(0.658102 -0.0113264 2.51459e-21)
(0.661899 -0.0112819 -1.11107e-21)
(0.665685 -0.0112401 -1.67453e-22)
(0.669463 -0.0112009 1.46727e-22)
(0.673232 -0.0111641 2.53591e-22)
(0.676994 -0.0111295 -2.94181e-22)
(0.680748 -0.0110971 -1.51135e-22)
(0.684497 -0.0110665 8.63094e-22)
(0.68824 -0.0110377 -3.13901e-22)
(0.691978 -0.0110105 -2.54059e-23)
(0.695712 -0.0109848 -2.89381e-22)
(0.699441 -0.0109603 2.36076e-22)
(0.703167 -0.0109369 5.37886e-23)
(0.70689 -0.0109144 -2.38521e-23)
(0.710609 -0.0108925 -1.01807e-23)
(0.714326 -0.0108711 1.81628e-23)
(0.71804 -0.0108498 -2.68808e-24)
(0.721753 -0.0108285 -3.62364e-24)
(0.72545 -0.0108065 5.7672e-24)
(0.729103 -0.0107814 -9.17614e-24)
(0.73304 -0.0107473 3.35084e-24)
(0.738076 -0.0107192 -1.59529e-23)
(0.574207 -0.0228702 1.35453e-20)
(0.578329 -0.0226056 -1.12853e-20)
(0.582412 -0.0223495 -5.79254e-21)
(0.586455 -0.022102 4.14853e-21)
(0.590461 -0.0218628 -3.10372e-21)
(0.594431 -0.0216321 -3.97586e-21)
(0.598367 -0.0214097 5.19442e-21)
(0.602269 -0.0211956 -8.4388e-21)
(0.606139 -0.0209896 4.40493e-22)
(0.609979 -0.0207917 7.20938e-21)
(0.613789 -0.0206017 -1.21299e-21)
(0.617572 -0.0204196 -7.82199e-22)
(0.621328 -0.0202452 -9.09218e-21)
(0.62506 -0.0200784 6.10795e-21)
(0.628767 -0.0199191 1.77049e-21)
(0.632452 -0.0197671 4.53369e-22)
(0.636115 -0.0196222 -3.50504e-21)
(0.639759 -0.0194844 3.16992e-21)
(0.643383 -0.0193534 -7.37526e-22)
(0.64699 -0.0192291 3.62012e-21)
(0.650581 -0.0191113 -1.10491e-21)
(0.654156 -0.0189997 -3.28394e-21)
(0.657716 -0.0188943 2.56799e-21)
(0.661263 -0.0187948 -1.21644e-21)
(0.664798 -0.018701 -3.62347e-21)
(0.668322 -0.0186127 1.8352e-21)
(0.671835 -0.0185296 -4.13688e-22)
(0.675339 -0.0184516 1.28323e-21)
(0.678835 -0.0183785 -2.52821e-21)
(0.682322 -0.0183099 2.965e-21)
(0.685803 -0.0182457 -6.61541e-22)
(0.689278 -0.0181856 -6.20175e-22)
(0.692747 -0.0181294 9.23396e-22)
(0.696211 -0.0180768 -1.83082e-21)
(0.699672 -0.0180276 1.98023e-21)
(0.703128 -0.0179815 -1.31997e-21)
(0.706582 -0.0179383 2.13711e-22)
(0.710033 -0.0178976 7.19743e-23)
(0.713483 -0.0178593 -2.63383e-22)
(0.71693 -0.0178231 1.31228e-22)
(0.720376 -0.0177886 -1.07902e-22)
(0.723821 -0.0177556 1.85594e-22)
(0.727266 -0.0177237 7.66281e-23)
(0.73071 -0.0176927 -1.09861e-22)
(0.734154 -0.017662 1.65474e-23)
(0.737599 -0.0176313 7.90131e-24)
(0.741032 -0.0175999 -2.82742e-24)
(0.744427 -0.017564 -7.28911e-24)
(0.74808 -0.0175143 -1.38746e-23)
(0.752778 -0.0174726 2.89236e-23)
(0.617802 -0.0305251 -1.64498e-20)
(0.621305 -0.0301799 1.82308e-21)
(0.624778 -0.029846 -1.97689e-21)
(0.628222 -0.0295234 8.45225e-21)
(0.631638 -0.0292119 -8.6296e-22)
(0.635027 -0.0289115 2.60836e-20)
(0.638391 -0.0286222 -2.79772e-20)
(0.641731 -0.0283438 -8.14472e-21)
(0.645047 -0.0280761 1.96038e-20)
(0.648341 -0.0278191 -1.04596e-20)
(0.651614 -0.0275727 9.39622e-21)
(0.654867 -0.0273367 5.44896e-21)
(0.658101 -0.0271109 -1.02094e-20)
(0.661317 -0.0268952 -4.37503e-21)
(0.664517 -0.0266894 4.29484e-21)
(0.6677 -0.0264933 1.15954e-20)
(0.670869 -0.0263067 -7.22747e-21)
(0.674025 -0.0261294 -1.25133e-21)
(0.677168 -0.0259613 1.60426e-21)
(0.680299 -0.025802 -2.07541e-21)
(0.683419 -0.0256513 7.23639e-22)
(0.686529 -0.025509 -6.74734e-22)
(0.689631 -0.0253748 4.3881e-22)
(0.692724 -0.0252485 -2.96311e-22)
(0.69581 -0.0251298 3.07663e-21)
(0.698889 -0.0250184 -2.79793e-21)
(0.701963 -0.0249141 1.76912e-21)
(0.705032 -0.0248164 -1.21685e-21)
(0.708097 -0.0247252 -1.87829e-22)
(0.711158 -0.0246402 3.0943e-22)
(0.714216 -0.0245609 1.65751e-21)
(0.717273 -0.0244872 -7.9388e-22)
(0.720327 -0.0244186 -1.18301e-21)
(0.72338 -0.0243549 -9.51163e-22)
(0.726433 -0.0242957 6.34859e-23)
(0.729486 -0.0242406 8.13957e-24)
(0.732539 -0.0241894 3.04447e-22)
(0.735593 -0.0241417 6.28885e-22)
(0.738648 -0.0240972 2.55409e-22)
(0.741705 -0.0240554 2.09198e-22)
(0.744764 -0.0240161 -4.38746e-22)
(0.747824 -0.0239788 5.30102e-23)
(0.750887 -0.0239431 -5.90198e-23)
(0.753953 -0.0239087 -8.14258e-23)
(0.757021 -0.023875 3.3694e-23)
(0.760094 -0.0238416 -7.32463e-24)
(0.76316 -0.0238076 2.82843e-24)
(0.766196 -0.0237687 8.90492e-24)
(0.769456 -0.0237126 -1.01612e-23)
(0.77368 -0.0236646 1.56738e-23)
(0.670594 -0.0368542 2.34381e-21)
(0.673366 -0.0364503 -8.10832e-21)
(0.676119 -0.0360598 1.56728e-20)
(0.678856 -0.0356827 -2.77275e-20)
(0.681576 -0.0353189 2.46685e-20)
(0.68428 -0.0349683 -1.0057e-20)
(0.686969 -0.0346308 -1.36232e-20)
(0.689644 -0.0343064 1.82617e-20)
(0.692306 -0.0339949 -8.28132e-21)
(0.694956 -0.0336962 -1.31664e-21)
(0.697593 -0.03341 -6.2177e-21)
(0.70022 -0.0331363 1.95398e-20)
(0.702837 -0.0328749 -4.50045e-21)
(0.705445 -0.0326255 -6.01551e-21)
(0.708044 -0.032388 3.63684e-21)
(0.710635 -0.0321621 -8.62006e-21)
(0.71322 -0.0319477 3.6894e-22)
(0.715798 -0.0317445 7.56171e-21)
(0.71837 -0.0315521 5.58862e-21)
(0.720938 -0.0313704 -4.90883e-21)
(0.723501 -0.0311991 -3.66762e-21)
(0.726061 -0.0310379 2.90373e-21)
(0.728619 -0.0308865 -3.66256e-21)
(0.731174 -0.0307445 6.4124e-21)
(0.733728 -0.0306117 -8.48322e-22)
(0.73628 -0.0304877 -4.12816e-21)
(0.738833 -0.0303722 6.34544e-21)
(0.741385 -0.0302648 -4.15499e-21)
(0.743939 -0.0301652 -1.75444e-21)
(0.746494 -0.030073 4.79033e-21)
(0.74905 -0.0299878 -1.61513e-21)
(0.751609 -0.0299092 -3.04788e-21)
(0.75417 -0.0298369 2.80651e-21)
(0.756735 -0.0297705 -2.58118e-21)
(0.759303 -0.0297095 2.5659e-21)
(0.761875 -0.0296536 -5.21799e-22)
(0.764451 -0.0296024 1.03976e-21)
(0.767031 -0.0295554 -6.8793e-22)
(0.769617 -0.0295123 -6.5589e-22)
(0.772207 -0.0294726 9.24627e-22)
(0.774803 -0.0294359 -2.39228e-22)
(0.777404 -0.0294018 -3.59573e-22)
(0.780011 -0.0293698 4.5688e-22)
(0.782624 -0.0293395 -8.45279e-23)
(0.785244 -0.0293105 -5.10227e-23)
(0.78787 -0.0292821 9.23059e-24)
(0.790497 -0.0292538 1.43428e-23)
(0.7931 -0.0292207 -2.83972e-23)
(0.795891 -0.0291693 5.61146e-24)
(0.799541 -0.0291234 -1.54989e-23)
(0.728914 -0.0416871 3.40894e-20)
(0.730907 -0.0412483 9.81656e-21)
(0.732894 -0.0408244 -2.24727e-20)
(0.734877 -0.0404154 1.75154e-20)
(0.736854 -0.0400211 1.08118e-20)
(0.738828 -0.0396416 -3.08282e-20)
(0.740798 -0.0392767 -2.23758e-21)
(0.742765 -0.0389264 -5.56998e-21)
(0.744729 -0.0385904 3.56049e-20)
(0.74669 -0.0382687 -1.56176e-20)
(0.74865 -0.0379611 3.71605e-21)
(0.750608 -0.0376674 -2.67666e-21)
(0.752566 -0.0373874 -1.09684e-20)
(0.754523 -0.037121 1.28486e-20)
(0.75648 -0.0368679 -3.55538e-21)
(0.758438 -0.0366278 2.48133e-21)
(0.760397 -0.0364006 7.04973e-21)
(0.762357 -0.036186 -5.09648e-22)
(0.764319 -0.0359837 -1.43398e-20)
(0.766283 -0.0357933 5.6954e-22)
(0.76825 -0.0356147 6.73212e-21)
(0.77022 -0.0354474 7.85857e-21)
(0.772194 -0.0352911 -2.57274e-21)
(0.774172 -0.0351456 -1.45331e-20)
(0.776154 -0.0350104 -1.2531e-22)
(0.778141 -0.0348851 9.94512e-21)
(0.780133 -0.0347695 2.65304e-21)
(0.782131 -0.034663 -5.73553e-21)
(0.784134 -0.0345653 2.3665e-21)
(0.786144 -0.034476 3.97857e-22)
(0.78816 -0.0343946 3.27519e-21)
(0.790183 -0.0343208 -8.4438e-22)
(0.792213 -0.0342541 -3.01932e-21)
(0.79425 -0.034194 9.01873e-22)
(0.796295 -0.0341401 -4.73288e-22)
(0.798348 -0.034092 -8.7068e-22)
(0.800408 -0.0340492 1.46642e-21)
(0.802477 -0.0340113 -5.32262e-22)
(0.804554 -0.0339777 4.09399e-22)
(0.80664 -0.0339481 2.98001e-22)
(0.808734 -0.033922 6.77981e-22)
(0.810837 -0.0338989 -7.96727e-22)
(0.812949 -0.0338785 1.8045e-22)
(0.81507 -0.0338602 1.69495e-22)
(0.817201 -0.0338435 -7.81032e-23)
(0.819343 -0.0338282 1.1985e-23)
(0.821488 -0.0338136 -2.5366e-23)
(0.82362 -0.0337954 -6.03822e-25)
(0.825899 -0.0337591 1.75453e-24)
(0.828916 -0.0337244 -9.47861e-25)
(0.790336 -0.0445425 1.47972e-20)
(0.791571 -0.0441074 1.49648e-21)
(0.792812 -0.0436879 -2.94738e-20)
(0.79406 -0.043284 1.80029e-20)
(0.795314 -0.0428957 -6.3634e-21)
(0.796576 -0.0425229 -3.80189e-20)
(0.797845 -0.0421656 2.13164e-20)
(0.799121 -0.0418236 2.6316e-20)
(0.800405 -0.0414968 -2.67545e-20)
(0.801696 -0.041185 2.61798e-20)
(0.802995 -0.040888 -1.1211e-20)
(0.804301 -0.0406058 -1.92822e-20)
(0.805616 -0.040338 1.37518e-22)
(0.806939 -0.0400845 1.5462e-20)
(0.80827 -0.0398451 -1.66157e-20)
(0.80961 -0.0396194 6.18481e-21)
(0.810958 -0.0394072 7.76412e-21)
(0.812316 -0.0392082 8.03279e-22)
(0.813682 -0.0390222 6.41799e-21)
(0.815058 -0.0388487 -4.95745e-21)
(0.816443 -0.0386876 -1.21562e-21)
(0.817837 -0.0385383 -3.51728e-21)
(0.819242 -0.0384005 9.32427e-22)
(0.820656 -0.038274 -9.11242e-21)
(0.82208 -0.0381582 8.15252e-21)
(0.823515 -0.0380527 5.86495e-21)
(0.824959 -0.0379572 -1.42128e-20)
(0.826415 -0.0378712 7.05044e-21)
(0.827881 -0.0377943 8.0826e-22)
(0.829358 -0.037726 -2.44855e-22)
(0.830845 -0.0376659 -3.35839e-22)
(0.832344 -0.0376134 8.06796e-22)
(0.833854 -0.0375682 5.00988e-23)
(0.835375 -0.0375297 1.03825e-21)
(0.836907 -0.0374974 -2.82941e-21)
(0.83845 -0.0374709 1.54298e-21)
(0.840005 -0.0374497 2.24417e-21)
(0.841572 -0.0374333 -1.04625e-21)
(0.84315 -0.0374212 -4.54321e-22)
(0.84474 -0.0374129 6.92341e-22)
(0.846341 -0.037408 -5.55466e-22)
(0.847954 -0.0374061 1.37931e-22)
(0.849578 -0.0374067 2.19236e-22)
(0.851215 -0.0374094 -4.40382e-22)
(0.852864 -0.0374139 4.69552e-23)
(0.854523 -0.0374198 3.3461e-23)
(0.856174 -0.0374237 -2.39622e-24)
(0.857936 -0.0374114 -4.57734e-24)
(0.860299 -0.0373951 9.27155e-24)
(0.848438 -0.0464989 3.40534e-20)
(0.848983 -0.0460665 -5.92857e-20)
(0.849545 -0.0456502 3.80755e-20)
(0.850124 -0.0452501 -4.23353e-20)
(0.850719 -0.0448661 6.34216e-20)
(0.851331 -0.0444981 -1.69158e-20)
(0.851959 -0.0441462 -4.61186e-20)
(0.852604 -0.0438101 5.9783e-20)
(0.853264 -0.0434899 -1.40809e-20)
(0.85394 -0.0431853 1.1505e-20)
(0.854631 -0.0428963 1.6265e-21)
(0.855338 -0.0426226 -1.81015e-20)
(0.85606 -0.042364 -6.00089e-21)
(0.856798 -0.0421204 1.09931e-20)
(0.857551 -0.0418915 7.95159e-21)
(0.858318 -0.041677 -1.67782e-20)
(0.859101 -0.0414767 7.60692e-21)
(0.859899 -0.0412903 -5.60763e-21)
(0.860712 -0.0411175 3.74236e-21)
(0.861539 -0.040958 -2.98214e-21)
(0.862381 -0.0408114 2.92263e-21)
(0.863238 -0.0406773 2.54586e-21)
(0.864109 -0.0405554 7.44124e-21)
(0.864995 -0.0404452 -1.1362e-20)
(0.865896 -0.0403465 4.63963e-21)
(0.866811 -0.0402587 -2.36834e-21)
(0.86774 -0.0401814 -1.02469e-21)
(0.868684 -0.0401141 8.92006e-21)
(0.869642 -0.0400565 -8.58569e-21)
(0.870614 -0.0400079 5.8238e-22)
(0.871601 -0.039968 -2.241e-21)
(0.872601 -0.0399362 -2.76494e-22)
(0.873616 -0.0399121 3.4034e-21)
(0.874645 -0.039895 1.07132e-21)
(0.875688 -0.0398846 -2.13059e-21)
(0.876745 -0.0398803 -1.17214e-21)
(0.877816 -0.0398815 9.54377e-22)
(0.878901 -0.0398879 -3.79784e-22)
(0.88 -0.0398988 -2.23635e-22)
(0.881112 -0.0399138 3.03048e-23)
(0.882238 -0.0399324 -1.25243e-22)
(0.883378 -0.0399542 2.52068e-22)
(0.884531 -0.0399787 2.66258e-22)
(0.885697 -0.0400055 -4.31348e-22)
(0.886878 -0.0400344 1.32229e-22)
(0.88807 -0.0400651 3.1126e-24)
(0.889261 -0.040095 -4.58842e-23)
(0.890531 -0.0401109 6.14699e-25)
(0.892255 -0.0401163 -2.56252e-27)
(0.906239 -0.0464095 0)
(0.906211 -0.0460345 0)
(0.906205 -0.0456747 0)
(0.906221 -0.0453302 6.57052e-28)
(0.90626 -0.045001 -3.05876e-28)
(0.906321 -0.044687 2.96309e-28)
(0.906403 -0.0443884 -5.97288e-28)
(0.906506 -0.0441049 0)
(0.906629 -0.0438366 0)
(0.906772 -0.0435833 0)
(0.906936 -0.043345 -6.05034e-12)
(0.907119 -0.0431214 -5.84433e-12)
(0.907321 -0.0429123 0)
(0.907542 -0.0427177 0)
(0.907782 -0.0425372 0)
(0.90804 -0.0423706 0)
(0.908317 -0.0422177 0)
(0.908611 -0.0420782 0)
(0.908923 -0.0419518 0)
(0.909253 -0.0418381 0)
(0.9096 -0.0417368 3.56622e-28)
(0.909964 -0.0416476 -1.63932e-28)
(0.910345 -0.04157 0)
(0.910743 -0.0415037 0)
(0.911157 -0.0414482 0)
(0.911588 -0.0414032 0)
(0.912034 -0.0413681 0)
(0.912497 -0.0413425 2.52769e-28)
(0.912976 -0.0413259 -1.14622e-28)
(0.91347 -0.0413179 2.24587e-28)
(0.91398 -0.0413179 -1.01231e-28)
(0.914505 -0.0413255 0)
(0.915045 -0.0413401 0)
(0.915601 -0.0413612 0)
(0.916172 -0.0413883 0)
(0.916757 -0.0414208 0)
(0.917357 -0.0414583 0)
(0.917972 -0.0415003 1.17835e-28)
(0.918601 -0.0415461 -5.05161e-29)
(0.919245 -0.0415955 0)
(0.919903 -0.0416477 0)
(0.920575 -0.0417025 6.80322e-29)
(0.92126 -0.0417594 -2.68867e-29)
(0.92196 -0.041818 0)
(0.922672 -0.041878 3.23316e-29)
(0.923389 -0.041937 -9.97229e-30)
(0.924157 -0.0419834 8.8183e-30)
(0.925213 -0.0420147 1.4425e-30)
(0.963033 -0.0457409 0)
(0.962457 -0.0454173 0)
(0.961908 -0.0451077 0)
(0.961386 -0.0448124 -6.57929e-28)
(0.96089 -0.0445313 3.06283e-28)
(0.960419 -0.0442646 -1.05164e-27)
(0.959972 -0.0440121 1.35302e-27)
(0.95955 -0.043774 0)
(0.959152 -0.0435501 0)
(0.958776 -0.0433404 0)
(0.958423 -0.0431447 6.0582e-12)
(0.958092 -0.0429631 5.85188e-12)
(0.957783 -0.0427952 0)
(0.957496 -0.042641 0)
(0.957229 -0.0425002 0)
(0.956982 -0.0423727 0)
(0.956756 -0.0422582 0)
(0.956549 -0.0421564 -5.23609e-28)
(0.956362 -0.042067 5.23609e-28)
(0.956193 -0.0419898 0)
(0.956044 -0.0419244 -3.57059e-28)
(0.955913 -0.0418705 1.64132e-28)
(0.955799 -0.0418277 0)
(0.955704 -0.0417956 0)
(0.955626 -0.0417739 0)
(0.955565 -0.0417621 0)
(0.955522 -0.0417598 0)
(0.955494 -0.0417665 -2.53063e-28)
(0.955484 -0.0417818 1.14754e-28)
(0.95549 -0.0418053 -2.24844e-28)
(0.955511 -0.0418363 1.01346e-28)
(0.955549 -0.0418746 0)
(0.955602 -0.0419194 0)
(0.955671 -0.0419705 0)
(0.955754 -0.0420271 0)
(0.955853 -0.0420889 0)
(0.955967 -0.0421554 0)
(0.956096 -0.0422259 -1.1796e-28)
(0.956239 -0.0423001 5.0569e-29)
(0.956397 -0.0423774 0)
(0.956568 -0.0424573 0)
(0.956754 -0.0425394 -6.8101e-29)
(0.956954 -0.0426232 2.69135e-29)
(0.957168 -0.0427082 0)
(0.957395 -0.042794 -3.23631e-29)
(0.957632 -0.0428785 9.98187e-30)
(0.957896 -0.0429521 -8.82667e-30)
(0.958276 -0.0430082 -1.44121e-30)
(1.01324 -0.0440967 0)
(1.01224 -0.0438301 0)
(1.01127 -0.043576 -1.87213e-29)
(1.01032 -0.0433348 0)
(1.0094 -0.0431065 1.76086e-29)
(1.00851 -0.0428911 -8.37229e-28)
(1.00765 -0.0426889 8.2016e-28)
(1.00681 -0.0424997 1.60193e-29)
(1.006 -0.0423237 0)
(1.0052 -0.0421607 0)
(1.00444 -0.0420108 7.27783e-29)
(1.00369 -0.0418738 0)
(1.00297 -0.0417496 -2.13136e-28)
(1.00227 -0.0416381 -1.53239e-28)
(1.00159 -0.0415392 0)
(1.00093 -0.0414526 -6.1018e-29)
(1.00029 -0.0413782 0)
(0.999676 -0.0413157 0)
(0.999077 -0.0412649 0)
(0.998497 -0.0412255 -1.04158e-29)
(0.997936 -0.0411971 0)
(0.997393 -0.0411796 0)
(0.996868 -0.0411724 0)
(0.996361 -0.0411754 0)
(0.99587 -0.0411881 8.35044e-30)
(0.995397 -0.0412102 0)
(0.99494 -0.0412411 0)
(0.994499 -0.0412806 3.5951e-29)
(0.994075 -0.0413282 2.98047e-12)
(0.993666 -0.0413833 2.81353e-12)
(0.993272 -0.0414457 0)
(0.992894 -0.0415148 5.65824e-30)
(0.99253 -0.0415901 0)
(0.992181 -0.0416711 0)
(0.991847 -0.0417574 0)
(0.991527 -0.0418485 -4.21266e-30)
(0.991222 -0.0419439 0)
(0.99093 -0.0420431 1.5435e-12)
(0.990652 -0.0421456 1.39277e-12)
(0.990388 -0.0422508 0)
(0.990137 -0.0423584 2.49693e-30)
(0.9899 -0.0424679 0)
(0.989676 -0.0425787 0)
(0.989465 -0.0426904 -1.51718e-30)
(0.989267 -0.0428024 0)
(0.989083 -0.0429133 0)
(0.988907 -0.0430151 0)
(0.988689 -0.043097 0)
(1.05586 -0.0417345 0)
(1.05456 -0.0415256 0)
(1.05328 -0.0413278 1.87213e-29)
(1.05204 -0.0411412 0)
(1.05082 -0.0409661 -1.76086e-29)
(1.04963 -0.0408026 1.70687e-29)
(1.04846 -0.0406508 0)
(1.04731 -0.0405108 -1.60193e-29)
(1.04619 -0.0403826 0)
(1.0451 -0.0402662 0)
(1.04402 -0.0401617 -7.27783e-29)
(1.04297 -0.040069 0)
(1.04193 -0.0399881 2.13136e-28)
(1.04092 -0.0399187 1.53239e-28)
(1.03993 -0.0398609 0)
(1.03896 -0.0398144 6.1018e-29)
(1.03801 -0.0397791 0)
(1.03707 -0.0397548 0)
(1.03616 -0.0397413 0)
(1.03526 -0.0397383 1.04158e-29)
(1.03438 -0.0397456 0)
(1.03351 -0.0397629 0)
(1.03266 -0.0397898 0)
(1.03183 -0.0398261 0)
(1.03102 -0.0398715 -8.35044e-30)
(1.03021 -0.0399255 0)
(1.02943 -0.0399878 0)
(1.02866 -0.040058 -3.5951e-29)
(1.0279 -0.0401357 -2.98047e-12)
(1.02716 -0.0402204 -2.81353e-12)
(1.02643 -0.0403119 0)
(1.02571 -0.0404096 -5.65824e-30)
(1.02501 -0.040513 0)
(1.02432 -0.0406218 0)
(1.02365 -0.0407354 0)
(1.02298 -0.0408535 4.21266e-30)
(1.02233 -0.0409755 0)
(1.02169 -0.0411009 -1.5435e-12)
(1.02107 -0.0412294 -1.39277e-12)
(1.02046 -0.0413604 0)
(1.01985 -0.0414934 -2.49693e-30)
(1.01926 -0.041628 0)
(1.01869 -0.0417638 0)
(1.01812 -0.0419002 1.51718e-30)
(1.01756 -0.0420368 0)
(1.01703 -0.0421724 0)
(1.01648 -0.0423006 0)
(1.01576 -0.0424074 0)
(1.09058 -0.038908 0)
(1.0891 -0.0387529 0)
(1.08764 -0.0386074 0)
(1.08621 -0.0384716 0)
(1.0848 -0.0383458 0)
(1.08341 -0.0382303 0)
(1.08205 -0.0381251 0)
(1.08071 -0.0380304 0)
(1.07939 -0.0379463 0)
(1.07809 -0.0378728 0)
(1.0768 -0.0378099 0)
(1.07554 -0.0377577 0)
(1.0743 -0.0377161 0)
(1.07307 -0.037685 0)
(1.07187 -0.0376644 0)
(1.07068 -0.0376541 0)
(1.0695 -0.0376541 0)
(1.06834 -0.0376641 5.67082e-28)
(1.0672 -0.0376839 -5.67082e-28)
(1.06607 -0.0377134 0)
(1.06496 -0.0377523 0)
(1.06386 -0.0378004 0)
(1.06278 -0.0378574 0)
(1.06171 -0.037923 0)
(1.06065 -0.0379969 0)
(1.05961 -0.0380789 0)
(1.05858 -0.0381684 0)
(1.05756 -0.0382652 0)
(1.05655 -0.038369 0)
(1.05556 -0.0384793 0)
(1.05457 -0.0385958 0)
(1.0536 -0.038718 0)
(1.05264 -0.0388456 0)
(1.05169 -0.0389781 0)
(1.05075 -0.0391151 0)
(1.04982 -0.0392561 0)
(1.0489 -0.0394008 0)
(1.04799 -0.0395487 0)
(1.04709 -0.0396993 0)
(1.0462 -0.0398522 0)
(1.04532 -0.0400071 0)
(1.04445 -0.0401633 0)
(1.04359 -0.0403206 0)
(1.04274 -0.0404785 0)
(1.0419 -0.0406365 0)
(1.04107 -0.0407937 0)
(1.04024 -0.0409452 0)
(1.0391 -0.0410746 0)
(1.11771 -0.0358348 0)
(1.11614 -0.0357261 0)
(1.1146 -0.0356257 0)
(1.11308 -0.0355337 0)
(1.11157 -0.0354504 0)
(1.11009 -0.0353761 -8.24211e-28)
(1.10862 -0.0353109 8.24211e-28)
(1.10717 -0.035255 0)
(1.10574 -0.0352085 0)
(1.10432 -0.0351715 0)
(1.10293 -0.035144 0)
(1.10154 -0.0351261 0)
(1.10018 -0.0351177 0)
(1.09882 -0.0351188 0)
(1.09748 -0.0351295 0)
(1.09616 -0.0351495 0)
(1.09485 -0.0351787 0)
(1.09355 -0.0352171 5.4666e-28)
(1.09226 -0.0352646 -5.4666e-28)
(1.09099 -0.0353208 0)
(1.08973 -0.0353856 0)
(1.08847 -0.0354588 0)
(1.08723 -0.0355402 0)
(1.086 -0.0356295 0)
(1.08478 -0.0357265 0)
(1.08357 -0.0358307 0)
(1.08237 -0.0359421 0)
(1.08118 -0.0360601 0)
(1.08 -0.0361845 0)
(1.07883 -0.036315 0)
(1.07766 -0.0364512 0)
(1.07651 -0.0365926 0)
(1.07536 -0.0367391 0)
(1.07422 -0.0368901 0)
(1.07308 -0.0370453 0)
(1.07196 -0.0372042 0)
(1.07084 -0.0373666 0)
(1.06973 -0.037532 0)
(1.06863 -0.0376999 0)
(1.06753 -0.03787 0)
(1.06645 -0.038042 0)
(1.06537 -0.0382153 0)
(1.06429 -0.0383896 0)
(1.06323 -0.0385646 0)
(1.06217 -0.0387397 0)
(1.06113 -0.0389145 0)
(1.06006 -0.0390849 0)
(1.05861 -0.0392334 0)
(1.13797 -0.0326885 0)
(1.1364 -0.0326173 0)
(1.13484 -0.0325531 0)
(1.1333 -0.0324963 0)
(1.13177 -0.032447 3.84753e-28)
(1.13026 -0.0324056 3.5741e-28)
(1.12876 -0.0323723 -2.31003e-28)
(1.12728 -0.0323472 -3.5098e-28)
(1.12581 -0.0323304 0)
(1.12435 -0.0323221 0)
(1.12291 -0.0323224 0)
(1.12147 -0.0323313 0)
(1.12005 -0.0323487 0)
(1.11864 -0.0323748 0)
(1.11724 -0.0324094 0)
(1.11585 -0.0324526 0)
(1.11447 -0.0325042 0)
(1.1131 -0.0325641 0)
(1.11173 -0.0326322 0)
(1.11038 -0.0327083 0)
(1.10903 -0.0327923 0)
(1.10769 -0.0328841 0)
(1.10636 -0.0329833 4.4209e-12)
(1.10504 -0.0330897 4.23023e-12)
(1.10372 -0.0332032 4.04193e-12)
(1.10241 -0.0333235 3.85593e-12)
(1.10111 -0.0334502 -1.69157e-28)
(1.09981 -0.0335832 0)
(1.09852 -0.0337221 0)
(1.09723 -0.0338666 0)
(1.09595 -0.0340163 0)
(1.09468 -0.0341711 0)
(1.09341 -0.0343304 0)
(1.09214 -0.0344941 0)
(1.09088 -0.0346616 0)
(1.08962 -0.0348327 0)
(1.08837 -0.0350071 0)
(1.08712 -0.0351843 0)
(1.08588 -0.035364 0)
(1.08464 -0.0355458 0)
(1.08341 -0.0357294 6.04726e-29)
(1.08218 -0.0359144 0)
(1.08095 -0.0361006 0)
(1.07973 -0.0362875 -3.94312e-29)
(1.07852 -0.0364748 4.49798e-29)
(1.07732 -0.0366621 -2.58241e-29)
(1.07609 -0.0368462 0)
(1.0744 -0.0370093 0)
(1.15236 -0.0295913 0)
(1.15083 -0.0295483 0)
(1.14931 -0.0295113 0)
(1.1478 -0.0294806 0)
(1.1463 -0.0294567 -3.84753e-28)
(1.14482 -0.0294397 3.73305e-28)
(1.14334 -0.0294298 -4.99711e-28)
(1.14187 -0.0294272 3.5098e-28)
(1.14041 -0.0294321 0)
(1.13896 -0.0294446 0)
(1.13752 -0.0294647 0)
(1.13609 -0.0294926 0)
(1.13466 -0.0295283 0)
(1.13324 -0.0295717 0)
(1.13183 -0.0296229 0)
(1.13043 -0.0296819 0)
(1.12903 -0.0297485 0)
(1.12763 -0.0298228 5.28973e-28)
(1.12625 -0.0299045 -5.28973e-28)
(1.12486 -0.0299936 0)
(1.12349 -0.0300899 0)
(1.12211 -0.0301933 0)
(1.12074 -0.0303035 -4.4209e-12)
(1.11938 -0.0304204 -4.23023e-12)
(1.11802 -0.0305439 -4.04193e-12)
(1.11666 -0.0306735 -3.85593e-12)
(1.1153 -0.0308092 1.69157e-28)
(1.11395 -0.0309507 0)
(1.1126 -0.0310976 0)
(1.11125 -0.0312498 0)
(1.10991 -0.0314069 0)
(1.10856 -0.0315687 0)
(1.10722 -0.0317348 0)
(1.10588 -0.0319049 0)
(1.10455 -0.0320788 0)
(1.10321 -0.0322561 0)
(1.10188 -0.0324366 0)
(1.10054 -0.0326197 0)
(1.09921 -0.0328054 0)
(1.09788 -0.0329932 0)
(1.09656 -0.0331828 -6.04726e-29)
(1.09523 -0.033374 0)
(1.09391 -0.0335664 0)
(1.09258 -0.0337597 3.94312e-29)
(1.09126 -0.0339538 -4.49798e-29)
(1.08995 -0.0341481 2.58241e-29)
(1.08862 -0.0343403 0)
(1.08676 -0.0345127 0)
(1.162 -0.026616 0)
(1.16053 -0.0265927 9.37818e-12)
(1.15908 -0.0265747 1.82267e-11)
(1.15763 -0.0265623 8.85276e-12)
(1.15619 -0.0265557 0)
(1.15475 -0.0265553 -3.46361e-28)
(1.15332 -0.0265612 0)
(1.1519 -0.0265736 0)
(1.15049 -0.0265927 -7.60962e-12)
(1.14908 -0.0266186 -7.37225e-12)
(1.14767 -0.0266515 0)
(1.14627 -0.0266913 -6.90797e-12)
(1.14487 -0.0267381 -6.68088e-12)
(1.14348 -0.026792 0)
(1.14209 -0.0268529 -6.23632e-12)
(1.14071 -0.0269209 -6.01868e-12)
(1.13932 -0.0269959 0)
(1.13794 -0.0270778 -4.8323e-28)
(1.13657 -0.0271666 0)
(1.13519 -0.0272621 2.14907e-28)
(1.13382 -0.0273642 -4.2977e-28)
(1.13244 -0.0274729 1.98117e-28)
(1.13107 -0.0275878 4.57425e-12)
(1.1297 -0.027709 4.37831e-12)
(1.12833 -0.0278361 -1.73714e-28)
(1.12696 -0.027969 3.99358e-12)
(1.1256 -0.0281075 3.80469e-12)
(1.12423 -0.0282514 3.12635e-28)
(1.12286 -0.0284004 3.43355e-12)
(1.12149 -0.0285543 3.25122e-12)
(1.12012 -0.0287128 -1.27479e-28)
(1.11875 -0.0288758 2.89281e-12)
(1.11737 -0.0290428 1.17374e-28)
(1.116 -0.0292137 -2.5425e-12)
(1.11463 -0.0293882 2.3703e-12)
(1.11325 -0.0295659 2.20002e-12)
(1.11188 -0.0297467 0)
(1.1105 -0.0299302 -1.86517e-12)
(1.10912 -0.0301162 -3.40112e-12)
(1.10774 -0.0303044 -1.5378e-12)
(1.10636 -0.0304945 -1.37688e-12)
(1.10498 -0.0306863 -1.21779e-12)
(1.1036 -0.0308794 -4.40234e-29)
(1.10222 -0.0310738 0)
(1.10083 -0.0312691 6.49257e-29)
(1.09946 -0.031465 -2.48704e-29)
(1.09806 -0.0316596 0)
(1.09609 -0.0318358 1.38205e-29)
(1.16795 -0.023795 0)
(1.16657 -0.0237848 -9.37818e-12)
(1.16518 -0.0237791 -1.82267e-11)
(1.16381 -0.0237783 -8.85276e-12)
(1.16243 -0.0237826 0)
(1.16106 -0.0237924 3.46361e-28)
(1.1597 -0.0238077 0)
(1.15834 -0.0238289 0)
(1.15698 -0.0238561 7.60962e-12)
(1.15562 -0.0238894 7.37225e-12)
(1.15427 -0.0239288 0)
(1.15292 -0.0239746 6.90797e-12)
(1.15157 -0.0240267 6.68088e-12)
(1.15022 -0.0240852 0)
(1.14888 -0.0241501 6.23632e-12)
(1.14753 -0.0242214 6.01868e-12)
(1.14618 -0.024299 0)
(1.14484 -0.024383 9.93487e-28)
(1.14349 -0.0244732 -5.10257e-28)
(1.14214 -0.0245696 -2.14907e-28)
(1.1408 -0.024672 4.2977e-28)
(1.13945 -0.0247805 -1.98117e-28)
(1.1381 -0.0248947 -4.57425e-12)
(1.13675 -0.0250146 -4.37831e-12)
(1.13539 -0.0251401 1.73714e-28)
(1.13404 -0.0252709 -3.99358e-12)
(1.13268 -0.025407 -3.80469e-12)
(1.13132 -0.025548 -3.12635e-28)
(1.12996 -0.0256938 -3.43355e-12)
(1.12859 -0.0258442 -3.25122e-12)
(1.12722 -0.0259989 1.27479e-28)
(1.12585 -0.0261578 -2.89281e-12)
(1.12448 -0.0263206 -1.17374e-28)
(1.1231 -0.0264871 2.5425e-12)
(1.12172 -0.026657 -2.3703e-12)
(1.12033 -0.0268301 -2.20002e-12)
(1.11894 -0.0270062 0)
(1.11755 -0.0271849 1.86517e-12)
(1.11616 -0.0273662 3.40112e-12)
(1.11476 -0.0275497 1.5378e-12)
(1.11336 -0.0277351 1.37688e-12)
(1.11195 -0.0279224 1.21779e-12)
(1.11054 -0.0281112 4.40234e-29)
(1.10913 -0.0283014 0)
(1.10771 -0.0284928 -6.49257e-29)
(1.10631 -0.0286851 2.48704e-29)
(1.10487 -0.0288767 0)
(1.10284 -0.0290515 -1.38153e-29)
(1.1712 -0.0211319 4.09e-28)
(1.16989 -0.0211295 -8.28023e-28)
(1.16858 -0.0211312 3.86715e-28)
(1.16728 -0.021137 0)
(1.16597 -0.0211474 0)
(1.16467 -0.0211625 0)
(1.16337 -0.0211826 0)
(1.16207 -0.0212079 0)
(1.16078 -0.0212384 -6.73642e-28)
(1.15948 -0.0212744 0)
(1.15818 -0.0213159 6.32293e-28)
(1.15688 -0.0213631 -2.94022e-28)
(1.15559 -0.0214159 0)
(1.15429 -0.0214745 0)
(1.15299 -0.0215389 0)
(1.15169 -0.021609 5.33764e-28)
(1.15039 -0.0216849 -2.47325e-28)
(1.14909 -0.0217666 5.53008e-28)
(1.14778 -0.0218538 -3.23514e-28)
(1.14648 -0.0219468 -2.20748e-28)
(1.14517 -0.0220452 4.41542e-28)
(1.14385 -0.0221491 0)
(1.14254 -0.0222583 0)
(1.14122 -0.0223727 0)
(1.13989 -0.0224923 0)
(1.13857 -0.0226167 0)
(1.13723 -0.022746 0)
(1.1359 -0.0228798 -3.2169e-28)
(1.13456 -0.0230182 1.46695e-28)
(1.13321 -0.0231608 -2.89225e-28)
(1.13186 -0.0233075 0)
(1.13051 -0.0234581 0)
(1.12915 -0.0236123 0)
(1.12778 -0.0237701 1.08787e-28)
(1.12641 -0.0239312 0)
(1.12504 -0.0240953 -9.42011e-29)
(1.12366 -0.0242624 8.70259e-29)
(1.12227 -0.024432 0)
(1.12088 -0.0246042 0)
(1.11948 -0.0247785 0)
(1.11807 -0.024955 0)
(1.11667 -0.0251333 0)
(1.11525 -0.0253133 0)
(1.11383 -0.0254948 0)
(1.11241 -0.0256777 0)
(1.11099 -0.0258618 -2.57347e-29)
(1.10953 -0.0260456 4.0833e-29)
(1.10749 -0.0262142 -1.42234e-29)
(1.17257 -0.0186122 -4.09e-28)
(1.17133 -0.0186143 8.28023e-28)
(1.17008 -0.0186197 -3.86715e-28)
(1.16884 -0.0186289 0)
(1.1676 -0.0186419 0)
(1.16636 -0.018659 0)
(1.16511 -0.0186805 0)
(1.16387 -0.0187065 0)
(1.16263 -0.0187372 6.73642e-28)
(1.16139 -0.0187727 0)
(1.16015 -0.018813 -6.32293e-28)
(1.1589 -0.0188584 2.94022e-28)
(1.15766 -0.0189088 0)
(1.15641 -0.0189644 0)
(1.15516 -0.0190251 0)
(1.15391 -0.0190909 -5.33764e-28)
(1.15265 -0.0191619 2.47325e-28)
(1.15139 -0.019238 5.2318e-28)
(1.15013 -0.0193192 -7.52674e-28)
(1.14887 -0.0194055 2.20748e-28)
(1.1476 -0.0194968 -4.41542e-28)
(1.14632 -0.019593 0)
(1.14504 -0.019694 0)
(1.14376 -0.0197998 0)
(1.14247 -0.0199102 0)
(1.14118 -0.0200251 0)
(1.13988 -0.0201444 0)
(1.13857 -0.0202679 3.2169e-28)
(1.13726 -0.0203956 -1.46695e-28)
(1.13595 -0.0205271 2.89225e-28)
(1.13462 -0.0206625 0)
(1.13329 -0.0208015 0)
(1.13196 -0.0209439 0)
(1.13062 -0.0210897 -1.08787e-28)
(1.12927 -0.0212385 0)
(1.12791 -0.0213903 9.42011e-29)
(1.12655 -0.0215449 -8.70259e-29)
(1.12518 -0.021702 0)
(1.1238 -0.0218615 0)
(1.12241 -0.0220232 0)
(1.12102 -0.022187 0)
(1.11962 -0.0223528 0)
(1.11822 -0.0225202 0)
(1.1168 -0.0226893 0)
(1.11539 -0.0228599 0)
(1.11397 -0.0230317 2.57347e-29)