/*--------------------------------*- C++ -*----------------------------------*\
  =========                 |
  \\      /  F ield         | OpenFOAM: The Open Source CFD Toolbox
   \\    /   O peration     | Website:  https://openfoam.org
    \\  /    A nd           | Version:  7
     \\/     M anipulation  |
\*---------------------------------------------------------------------------*/
FoamFile
{
    version     2.0;
    format      ascii;
    class       surfaceScalarField;
    location    "10";
    object      phi;
}
// * * * * * * * * * * * * * * * * * * * * * * * * * * * * * * * * * * * * * //

dimensions      [0 3 -1 0 0 0 0];

internalField   nonuniform List<scalar> 
21496
(
-1.15202e-05
1.15202e-05
-6.97577e-12
-3.77611e-05
2.6241e-05
-2.08161e-11
-7.31888e-05
3.54277e-05
-3.26277e-11
-0.000113433
4.02441e-05
-4.32911e-11
-0.000154872
4.14388e-05
-5.16383e-11
-0.000194425
3.95535e-05
-5.81405e-11
-0.000229407
3.49825e-05
-6.22873e-11
-0.000257408
2.8001e-05
-6.39489e-11
-0.000276201
1.87932e-05
-6.31018e-11
-0.000283681
7.47917e-06
-5.97997e-11
-0.000277823
-5.85708e-06
-5.41416e-11
-0.000256685
-2.11388e-05
-4.63476e-11
-0.000218423
-3.82614e-05
-3.65738e-11
-0.000161387
-5.7036e-05
-2.48901e-11
-8.42622e-05
-7.71249e-05
-1.14005e-11
1.36922e-05
-9.79544e-05
3.7682e-12
0.000132323
-0.00011863
2.049e-11
0.000270169
-0.000137846
3.86041e-11
0.000423749
-0.00015358
5.78946e-11
-0.000162688
7.80588e-11
0.000586437
-1.00398e-05
2.156e-05
-3.23392e-05
4.85404e-05
-6.15439e-05
6.46324e-05
-9.33512e-05
7.20514e-05
-0.00012414
7.22271e-05
-0.00015078
6.61941e-05
-0.000170502
5.47041e-05
-0.00018078
3.82794e-05
-0.000179253
1.72661e-05
-0.000163658
-8.11578e-06
-0.000131797
-3.77183e-05
-8.15117e-05
-7.14241e-05
-1.07098e-05
-0.000109063
8.25815e-05
-0.000150327
0.000200093
-0.000194636
0.000343097
-0.000240959
0.000512078
-0.000287611
0.000706231
-0.000331999
0.00092261
-0.00036996
-0.000394664
0.00115459
-7.23519e-06
2.87951e-05
-2.20067e-05
6.33119e-05
-3.92697e-05
8.18954e-05
-5.48339e-05
8.76157e-05
-6.50683e-05
8.24615e-05
-6.67461e-05
6.7872e-05
-5.69314e-05
4.48894e-05
-3.28856e-05
1.42335e-05
8.00371e-06
-2.36232e-05
6.82789e-05
-6.8391e-05
0.000150455
-0.000119895
0.000257036
-0.000178004
0.000390521
-0.000242549
0.000553388
-0.000313194
0.000748019
-0.000389267
0.000976543
-0.000469484
0.00124052
-0.000551585
0.00154033
-0.00063181
0.00187407
-0.000703697
-0.000755721
0.00223512
-3.37246e-06
3.21676e-05
-7.64241e-06
6.75819e-05
-8.1261e-06
8.23791e-05
-7.56248e-07
8.02458e-05
1.81278e-05
6.35774e-05
5.18949e-05
3.41049e-05
0.000103707
-6.9229e-06
0.000176582
-5.86414e-05
0.000273458
-0.000120499
0.000397221
-0.000192154
0.000550739
-0.000273413
0.000736884
-0.000364149
0.000958543
-0.000464208
0.00121863
-0.000573286
0.0015201
-0.000690733
0.00186585
-0.000815229
0.00225851
-0.000944248
0.00269987
-0.00107317
0.00318946
-0.00119329
-0.00128731
0.00372105
1.24983e-06
3.09178e-05
9.74435e-06
5.90873e-05
2.98283e-05
6.22952e-05
6.54623e-05
4.46118e-05
0.000120357
8.68277e-06
0.000198041
-4.3579e-05
0.000301916
-0.000110798
0.000435299
-0.000192024
0.000601432
-0.000286632
0.000803505
-0.000394227
0.00104465
-0.000514561
0.00132796
-0.000647454
0.00165646
-0.000792706
0.00203315
-0.000949981
0.00246106
-0.00111864
0.00294323
-0.00129741
0.00348276
-0.00148378
0.00408236
-0.00167277
0.00474311
-0.00185404
-0.00200441
0.00546022
6.37911e-06
2.45387e-05
2.92596e-05
3.62068e-05
7.2701e-05
1.88538e-05
0.000140569
-2.32565e-05
0.00023661
-8.7358e-05
0.000364484
-0.000171453
0.000527771
-0.000274085
0.000729974
-0.000394227
0.0009745
-0.000531158
0.00126463
-0.00068436
0.0016035
-0.000853425
0.00199402
-0.00103797
0.00243888
-0.00123757
0.00294054
-0.00145164
0.00350122
-0.00167932
0.00412306
-0.00191925
0.00480827
-0.00216899
0.00555922
-0.00242371
0.00637801
-0.00267283
-0.00288994
0.00726354
1.18595e-05
1.26791e-05
5.0279e-05
-2.21268e-06
0.000119047
-4.99137e-05
0.000221903
-0.000126113
0.000362547
-0.000228002
0.000544627
-0.000353532
0.000771704
-0.000501163
0.0010472
-0.000669727
0.00137435
-0.000858304
0.00175609
-0.0010661
0.00219501
-0.00129234
0.00269325
-0.00153622
0.00325244
-0.00179676
0.00387363
-0.00207282
0.00455726
-0.00236295
0.00530331
-0.0026653
0.00611157
-0.00297724
0.00698222
-0.00329437
0.00791732
-0.00360793
-0.00389609
0.00892347
1.76391e-05
-4.96001e-06
7.24345e-05
-5.7008e-05
0.000167859
-0.000145339
0.000307365
-0.000265618
0.000494392
-0.000415029
0.000732289
-0.00059143
0.00102422
-0.000793089
0.00137303
-0.00101855
0.0017812
-0.00126647
0.00225063
-0.00153553
0.00278263
-0.00182435
0.00337778
-0.00213136
0.00403583
-0.00245481
0.00475573
-0.00279272
0.00553556
-0.00314278
0.00637264
-0.00350238
0.00726376
-0.00386836
0.00820533
-0.00423594
0.00919432
-0.00459691
-0.00494544
0.0102437
2.37008e-05
-2.86608e-05
9.54981e-05
-0.000128805
0.000218271
-0.000268111
0.000394904
-0.000442251
0.000628195
-0.00064832
0.0009207
-0.000883935
0.00127457
-0.00114696
0.00169137
-0.00143535
0.00217194
-0.00174705
0.0027163
-0.00207989
0.00332348
-0.00243153
0.00399158
-0.00279946
0.00471776
-0.003181
0.00549839
-0.00357334
0.00632927
-0.00397367
0.00720612
-0.00437923
0.00812519
-0.00478743
0.00908522
-0.00519597
0.0100927
-0.00560439
-0.00601799
0.0111652
3.0018e-05
-5.86788e-05
0.000119089
-0.000217877
0.000269078
-0.0004181
0.000481818
-0.000654991
0.000758888
-0.00092539
0.00110137
-0.00122641
0.00150958
-0.00155517
0.00198291
-0.00190868
0.00251964
-0.00228377
0.00311682
-0.00267707
0.00377029
-0.00308501
0.00447472
-0.00350389
0.00522371
-0.00392999
0.00601005
-0.00435968
0.00682596
-0.00478957
0.00766335
-0.00521663
0.00851424
-0.00563831
0.00937107
-0.0060528
0.0102259
-0.00645924
-0.006855
0.0110629
3.64571e-05
-9.51359e-05
0.000142501
-0.00032392
0.000318381
-0.00059398
0.000564236
-0.000900847
0.000879712
-0.00124087
0.00126361
-0.00161031
0.00171361
-0.00200517
0.00222608
-0.00242115
0.00279601
-0.0028537
0.00341699
-0.00329805
0.00408141
-0.00374942
0.00478061
-0.00420309
0.00550528
-0.00465467
0.00624581
-0.00510021
0.00699266
-0.00553642
0.00773674
-0.00596071
0.0084697
-0.00637127
0.00918391
-0.00676702
0.00987168
-0.007147
-0.00750761
0.0105243
4.27484e-05
-0.000137884
0.000164577
-0.000445749
0.000363411
-0.000792814
0.000636967
-0.0011744
0.000982191
-0.00158609
0.00139486
-0.00202297
0.00186933
-0.00247964
0.00239847
-0.0029503
0.00297377
-0.00342899
0.00358551
-0.00390979
0.00422318
-0.0043871
0.00487596
-0.00485587
0.00553319
-0.00531189
0.0061849
-0.00575192
0.00682228
-0.0061738
0.00743806
-0.00657648
0.0080267
-0.00695992
0.00858447
-0.00732479
0.00910933
-0.00767186
-0.00799981
0.00960154
4.84892e-05
-0.000186373
0.000183762
-0.000581022
0.000400707
-0.00100976
0.00069392
-0.00146762
0.001057
-0.00194917
0.00148218
-0.00244815
0.00196022
-0.00295768
0.00248056
-0.00347063
0.0030316
-0.00398004
0.00360128
-0.00447947
0.00417761
-0.00496342
0.00474933
-0.00542759
0.0053065
-0.00586906
0.00584099
-0.00628641
0.00634681
-0.00667961
0.00682025
-0.00704992
0.00725986
-0.00739953
0.00766626
-0.00773118
0.00804182
-0.00804743
-0.00834897
0.00839098
5.31873e-05
-0.000239561
0.000198279
-0.000726114
0.000426546
-0.00123803
0.000728947
-0.00177002
0.00109537
-0.0023156
0.00151442
-0.0028672
0.00197351
-0.00341677
0.0024593
-0.00395643
0.00295831
-0.00447904
0.00345756
-0.00497873
0.00394538
-0.00545124
0.00441196
-0.00589417
0.00484985
-0.00630695
0.00525419
-0.00669074
0.00562271
-0.00704814
0.00595556
-0.00738277
0.00625487
-0.00769884
0.00652433
-0.00800064
0.00676871
-0.00829182
-0.00857424
0.00699398
5.63273e-05
-0.000295888
0.000206383
-0.000876169
0.0004375
-0.00146914
0.000736815
-0.00206933
0.00109058
-0.00266936
0.00148416
-0.00326078
0.00190248
-0.00383509
0.00233065
-0.00438459
0.00275476
-0.00490315
0.00316268
-0.00538664
0.00354465
-0.00583322
0.00389374
-0.00624326
0.00420594
-0.00661915
0.00448006
-0.00696486
0.00471732
-0.00728541
0.00492085
-0.0075863
0.00509503
-0.00787302
0.00524493
-0.00815054
0.00537581
-0.0084227
-0.00869167
0.00549325
5.74407e-05
-0.000353329
0.000206606
-0.00102533
0.000430953
-0.00169349
0.000714034
-0.00235241
0.00103902
-0.00299434
0.00138897
-0.00361074
0.00174754
-0.00419366
0.00209976
-0.00473682
0.0024329
-0.00523629
0.00273705
-0.00569079
0.00300548
-0.00610165
0.00323473
-0.0064725
0.00342425
-0.00680868
0.003576
-0.00711661
0.00369367
-0.00740307
0.00378205
-0.00767468
0.00384634
-0.00793731
0.00389164
-0.00819584
0.00392261
-0.00845368
-0.00871266
0.0039436
5.61679e-05
-0.000409497
0.000197968
-0.00116713
0.000405472
-0.00190099
0.000659356
-0.0026063
0.000940691
-0.00327568
0.00123151
-0.00390155
0.00151562
-0.00447777
0.00177943
-0.00500064
0.00201259
-0.00546945
0.00220829
-0.00588648
0.00236319
-0.00625655
0.0024771
-0.00658641
0.00255232
-0.0068839
0.00259288
-0.00715716
0.00260374
-0.00741394
0.00259018
-0.00766111
0.00255717
-0.0079043
0.00250908
-0.00814775
0.00244951
-0.00839411
-0.00864475
0.0023816
5.23014e-05
-0.000461798
0.000180089
-0.00129492
0.000360976
-0.00208188
0.000573859
-0.00281918
0.000799016
-0.00350084
0.00101884
-0.00412138
0.00121866
-0.00467759
0.00138737
-0.00516935
0.00151772
-0.0055998
0.00160622
-0.00597498
0.00165268
-0.00630301
0.00165949
-0.00659323
0.00163078
-0.0068552
0.0015716
-0.00709798
0.00148717
-0.00732952
0.00138238
-0.00755632
0.00126142
-0.00778334
0.00112763
-0.00801395
0.0009835
-0.00824998
-0.0084922
0.00083095
4.58098e-05
-0.000507608
0.000153226
-0.00140234
0.000298693
-0.00222735
0.000460702
-0.00298119
0.000620152
-0.00366029
0.000761121
-0.00426235
0.000871518
-0.00478798
0.000943386
-0.00524121
0.000972778
-0.0056292
0.000959254
-0.00596146
0.000905098
-0.00624886
0.000814406
-0.00650253
0.000692193
-0.00673298
0.000543639
-0.00694942
0.000373543
-0.00715942
0.000186001
-0.00736878
-1.5731e-05
-0.00758161
-0.000229257
-0.00780043
-0.000453083
-0.00802616
-0.00825887
-0.000686414
3.68374e-05
-0.000544445
0.000118229
-0.00148373
0.000220969
-0.00233009
0.00032463
-0.00308485
0.000412083
-0.00374774
0.000470168
-0.00432043
0.00049005
-0.00480786
0.000467131
-0.00521829
0.000400542
-0.00556261
0.000292305
-0.00585322
0.000146391
-0.00610294
-3.22447e-05
-0.0063239
-0.000238463
-0.00652677
-0.000467519
-0.00672037
-0.000715396
-0.00691154
-0.000978909
-0.00710526
-0.00125568
-0.00730484
-0.001544
-0.0075121
-0.0018427
-0.00772746
-0.00795059
-0.00215098
2.56902e-05
-0.000570135
7.64336e-05
-0.00153447
0.000130972
-0.00238463
0.00017138
-0.00312526
0.000183691
-0.00376005
0.000158207
-0.00429495
8.96405e-05
-0.0047393
-2.33929e-05
-0.00510526
-0.000179198
-0.0054068
-0.000373953
-0.00565846
-0.000602754
-0.00587414
-0.000860459
-0.00606619
-0.00114232
-0.00624491
-0.00144435
-0.00641834
-0.00176346
-0.00659243
-0.00209739
-0.00677133
-0.00244453
-0.0069577
-0.00280365
-0.00715298
-0.00317365
-0.00735745
-0.00757055
-0.0035537
1.28603e-05
-0.000582996
2.95312e-05
-0.00155114
3.23949e-05
-0.00238749
7.27566e-06
-0.00310014
-5.59989e-05
-0.00369678
-0.000163089
-0.00418786
-0.000315782
-0.0045866
-0.000512651
-0.00490839
-0.000750006
-0.00516945
-0.00102293
-0.00538554
-0.00132619
-0.00557088
-0.0016549
-0.00573748
-0.00200498
-0.00589483
-0.00237332
-0.00605
-0.00275775
-0.00620801
-0.00315687
-0.00637221
-0.00356981
-0.00654477
-0.00399576
-0.00672702
-0.00443349
-0.00691972
-0.00712268
-0.00488136
-1.44271e-06
-0.000581553
-2.07266e-05
-0.00153186
-7.10404e-05
-0.00233718
-0.000161842
-0.00300934
-0.000298621
-0.00356
-0.000483189
-0.00400329
-0.000714102
-0.00435569
-0.000987598
-0.0046349
-0.0012986
-0.00485845
-0.00164162
-0.00504251
-0.00201151
-0.00520099
-0.00240393
-0.00534507
-0.00281553
-0.00548322
-0.00324403
-0.00562149
-0.00368807
-0.00576397
-0.00414699
-0.00591329
-0.00462067
-0.00607109
-0.00510897
-0.00623872
-0.00561048
-0.00641822
-0.0066088
-0.00612436
-1.61033e-05
-0.00056545
-7.22219e-05
-0.00147574
-0.000175411
-0.00223399
-0.000329812
-0.00285494
-0.000536305
-0.0033535
-0.00079283
-0.00374676
-0.00109513
-0.00405339
-0.00143766
-0.00429237
-0.00181446
-0.00448164
-0.00221995
-0.00463702
-0.00264935
-0.00477159
-0.00309898
-0.00489544
-0.00356627
-0.00501594
-0.00404966
-0.00513811
-0.00454841
-0.00526522
-0.00506241
-0.00539929
-0.00559213
-0.00554137
-0.00613884
-0.005692
-0.00670384
-0.00585323
-0.00603361
-0.00727902
-3.10095e-05
-0.00053444
-0.000123177
-0.00138357
-0.000277163
-0.00208
-0.000491472
-0.00264063
-0.00076234
-0.00308264
-0.0010842
-0.0034249
-0.00145044
-0.00368716
-0.0018542
-0.00388861
-0.0022891
-0.00404673
-0.00274974
-0.00417638
-0.00323193
-0.0042894
-0.00373276
-0.00439461
-0.00425051
-0.00449819
-0.00478444
-0.00460418
-0.00533466
-0.004715
-0.00590195
-0.00483199
-0.00648754
-0.00495579
-0.00709253
-0.00508701
-0.00771975
-0.005226
-0.00536833
-0.00838504
-4.54036e-05
-0.000489037
-0.000171771
-0.00125721
-0.000373059
-0.00187871
-0.000642173
-0.00237151
-0.000970979
-0.00275383
-0.0013508
-0.00304508
-0.00177312
-0.00326484
-0.00223016
-0.00343157
-0.00271536
-0.00356153
-0.0032236
-0.00366814
-0.00375124
-0.00376176
-0.00429594
-0.00384991
-0.00485648
-0.00393766
-0.00543245
-0.0040282
-0.00602408
-0.00412338
-0.0066319
-0.00422416
-0.00725668
-0.00433102
-0.00789963
-0.00444406
-0.00856297
-0.00456266
-0.00468579
-0.00924551
-5.87823e-05
-0.000430254
-0.000216418
-0.00109957
-0.000460297
-0.00163484
-0.00077804
-0.00205377
-0.00115757
-0.0023743
-0.00158758
-0.00261507
-0.00205805
-0.00279437
-0.00256062
-0.00292901
-0.00308875
-0.0030334
-0.00363772
-0.00311917
-0.00420441
-0.00319507
-0.00478702
-0.00326729
-0.00538478
-0.0033399
-0.00599761
-0.00341537
-0.0066259
-0.0034951
-0.00727028
-0.00357979
-0.00793153
-0.00366977
-0.00861051
-0.00376507
-0.00930788
-0.00386529
-0.00397021
-0.0100235
-7.06791e-05
-0.000359575
-0.000255737
-0.000914514
-0.000536504
-0.00135407
-0.000895861
-0.00169441
-0.00131833
-0.00195183
-0.00179045
-0.00214295
-0.00230108
-0.00228374
-0.0028415
-0.00238859
-0.00340532
-0.00246958
-0.00398822
-0.00253627
-0.00458758
-0.00259572
-0.00520206
-0.00265281
-0.00583128
-0.00271068
-0.00647544
-0.00277121
-0.00713512
-0.00283542
-0.00781109
-0.00290382
-0.00850422
-0.00297664
-0.0092154
-0.0030539
-0.00994536
-0.00313533
-0.00322095
-0.0106946
-8.06928e-05
-0.000278882
-0.000288577
-0.000706629
-0.000599742
-0.0010429
-0.000993064
-0.00130109
-0.00145029
-0.00149461
-0.00195626
-0.00163697
-0.00249904
-0.00174096
-0.00306972
-0.00181791
-0.00366209
-0.0018772
-0.00427221
-0.00192614
-0.00489789
-0.00197004
-0.00553818
-0.00201252
-0.006193
-0.00205586
-0.0068628
-0.00210141
-0.00754834
-0.00214988
-0.00825051
-0.00220164
-0.00897031
-0.00225684
-0.00970871
-0.00231549
-0.0104666
-0.0023774
-0.00244264
-0.011245
-8.84952e-05
-0.000190387
-0.000314014
-0.00048111
-0.000648482
-0.000708435
-0.00106766
-0.000881917
-0.00155116
-0.0010111
-0.00208262
-0.00110551
-0.00264953
-0.00117406
-0.00324289
-0.00122455
-0.0038567
-0.0012634
-0.00448732
-0.00129552
-0.00513287
-0.00132448
-0.00579273
-0.00135266
-0.00646704
-0.00138154
-0.00715645
-0.00141201
-0.00786183
-0.0014445
-0.00858422
-0.00147925
-0.00932471
-0.00151636
-0.0100844
-0.00155582
-0.0108643
-0.00159751
-0.00164151
-0.0116654
-9.38371e-05
-9.65502e-05
-0.000331356
-0.000243592
-0.000681596
-0.000358196
-0.00111818
-0.000445336
-0.00161931
-0.000509971
-0.0021678
-0.000557019
-0.0027508
-0.000591054
-0.00335929
-0.000616059
-0.00398741
-0.00063528
-0.00463174
-0.000651198
-0.00529063
-0.000665589
-0.00596365
-0.000679638
-0.00665111
-0.000694084
-0.00735377
-0.000709347
-0.00807262
-0.000725651
-0.00880876
-0.000743104
-0.00956336
-0.000761754
-0.0103376
-0.000781598
-0.0111325
-0.000802573
-0.000824723
-0.0119493
-9.65502e-05
-5.01703e-12
-0.000340142
-1.25324e-11
-0.000698338
-1.4931e-11
-0.00114367
-1.22615e-11
-0.00165364
-7.5653e-12
-0.00221066
-2.96612e-12
-0.00280172
5.742e-13
-0.00341778
3.17557e-12
-0.00405306
5.03599e-12
-0.00470425
6.31149e-12
-0.00536984
7.12084e-12
-0.00604948
7.63481e-12
-0.00674357
7.90771e-12
-0.00745291
7.98127e-12
-0.00817856
7.90973e-12
-0.00892167
7.72303e-12
-0.00968342
7.43388e-12
-0.010465
7.03331e-12
-0.0112676
6.50143e-12
5.83048e-12
-0.0120923
-9.65502e-05
9.65502e-05
-0.000340142
0.000243592
-0.000698338
0.000358196
-0.00114367
0.000445336
-0.00165364
0.000509971
-0.00221066
0.000557019
-0.00280172
0.000591054
-0.00341778
0.000616059
-0.00405306
0.00063528
-0.00470425
0.000651198
-0.00536984
0.000665589
-0.00604948
0.000679638
-0.00674357
0.000694084
-0.00745291
0.000709347
-0.00817856
0.000725651
-0.00892167
0.000743104
-0.00968342
0.000761754
-0.010465
0.000781598
-0.0112676
0.000802573
0.000824723
-0.0120923
-9.3837e-05
0.000190387
-0.000331356
0.00048111
-0.000681596
0.000708435
-0.00111818
0.000881917
-0.00161931
0.0010111
-0.0021678
0.00110551
-0.0027508
0.00117406
-0.00335929
0.00122455
-0.00398741
0.0012634
-0.00463174
0.00129552
-0.00529063
0.00132448
-0.00596365
0.00135266
-0.00665111
0.00138154
-0.00735377
0.00141201
-0.00807262
0.0014445
-0.00880876
0.00147925
-0.00956336
0.00151636
-0.0103376
0.00155582
-0.0111325
0.00159751
0.00164151
-0.0119493
-8.84952e-05
0.000278882
-0.000314014
0.000706629
-0.000648482
0.0010429
-0.00106766
0.00130109
-0.00155116
0.00149461
-0.00208262
0.00163697
-0.00264953
0.00174096
-0.00324289
0.00181791
-0.0038567
0.0018772
-0.00448732
0.00192614
-0.00513287
0.00197004
-0.00579273
0.00201252
-0.00646704
0.00205586
-0.00715645
0.00210141
-0.00786183
0.00214988
-0.00858422
0.00220164
-0.00932471
0.00225684
-0.0100844
0.00231549
-0.0108643
0.0023774
0.00244264
-0.0116654
-8.06928e-05
0.000359575
-0.000288577
0.000914514
-0.000599742
0.00135407
-0.000993064
0.00169441
-0.00145029
0.00195183
-0.00195626
0.00214295
-0.00249904
0.00228374
-0.00306972
0.00238859
-0.00366209
0.00246958
-0.00427221
0.00253627
-0.00489789
0.00259572
-0.00553818
0.00265281
-0.006193
0.00271068
-0.0068628
0.00277121
-0.00754834
0.00283542
-0.00825051
0.00290382
-0.00897031
0.00297664
-0.00970871
0.0030539
-0.0104666
0.00313533
0.00322095
-0.011245
-7.06791e-05
0.000430254
-0.000255737
0.00109957
-0.000536505
0.00163484
-0.000895861
0.00205377
-0.00131833
0.0023743
-0.00179045
0.00261507
-0.00230108
0.00279437
-0.0028415
0.00292901
-0.00340532
0.0030334
-0.00398822
0.00311917
-0.00458758
0.00319507
-0.00520206
0.00326729
-0.00583128
0.0033399
-0.00647544
0.00341537
-0.00713512
0.0034951
-0.00781109
0.00357979
-0.00850422
0.00366977
-0.0092154
0.00376507
-0.00994536
0.00386529
0.00397021
-0.0106946
-5.87823e-05
0.000489037
-0.000216418
0.00125721
-0.000460297
0.00187871
-0.000778041
0.00237151
-0.00115757
0.00275383
-0.00158758
0.00304508
-0.00205805
0.00326484
-0.00256062
0.00343157
-0.00308875
0.00356153
-0.00363772
0.00366814
-0.00420441
0.00376176
-0.00478702
0.00384991
-0.00538478
0.00393766
-0.00599761
0.0040282
-0.0066259
0.00412338
-0.00727028
0.00422416
-0.00793153
0.00433102
-0.00861051
0.00444406
-0.00930788
0.00456266
0.00468579
-0.0100235
-4.54036e-05
0.00053444
-0.000171771
0.00138357
-0.000373059
0.00208
-0.000642173
0.00264063
-0.000970979
0.00308264
-0.0013508
0.0034249
-0.00177312
0.00368716
-0.00223016
0.00388861
-0.00271536
0.00404673
-0.0032236
0.00417638
-0.00375124
0.0042894
-0.00429594
0.00439461
-0.00485648
0.00449819
-0.00543245
0.00460418
-0.00602408
0.004715
-0.0066319
0.00483199
-0.00725668
0.00495579
-0.00789963
0.00508701
-0.00856297
0.005226
0.00536833
-0.00924551
-3.10095e-05
0.00056545
-0.000123177
0.00147574
-0.000277163
0.00223399
-0.000491472
0.00285494
-0.00076234
0.0033535
-0.0010842
0.00374676
-0.00145044
0.00405339
-0.0018542
0.00429237
-0.0022891
0.00448164
-0.00274974
0.00463702
-0.00323193
0.00477159
-0.00373276
0.00489544
-0.00425051
0.00501594
-0.00478444
0.00513811
-0.00533466
0.00526522
-0.00590195
0.00539929
-0.00648754
0.00554137
-0.00709253
0.005692
-0.00771975
0.00585323
0.00603361
-0.00838504
-1.61033e-05
0.000581553
-7.22219e-05
0.00153186
-0.000175411
0.00233718
-0.000329813
0.00300934
-0.000536305
0.00356
-0.00079283
0.00400329
-0.00109513
0.00435569
-0.00143766
0.0046349
-0.00181446
0.00485845
-0.00221995
0.00504251
-0.00264935
0.00520099
-0.00309898
0.00534507
-0.00356627
0.00548322
-0.00404966
0.00562149
-0.00454841
0.00576397
-0.00506241
0.00591329
-0.00559213
0.00607109
-0.00613884
0.00623872
-0.00670384
0.00641822
0.0066088
-0.00727902
-1.44271e-06
0.000582996
-2.07266e-05
0.00155114
-7.10404e-05
0.00238749
-0.000161842
0.00310014
-0.000298621
0.00369678
-0.000483189
0.00418786
-0.000714102
0.0045866
-0.000987598
0.00490839
-0.0012986
0.00516945
-0.00164162
0.00538554
-0.00201151
0.00557088
-0.00240393
0.00573748
-0.00281553
0.00589483
-0.00324403
0.00605
-0.00368807
0.00620801
-0.00414699
0.00637221
-0.00462067
0.00654477
-0.00510897
0.00672702
-0.00561048
0.00691972
0.00712268
-0.00612436
1.28603e-05
0.000570135
2.95312e-05
0.00153447
3.23949e-05
0.00238463
7.27563e-06
0.00312526
-5.5999e-05
0.00376005
-0.000163089
0.00429495
-0.000315782
0.0047393
-0.000512651
0.00510526
-0.000750006
0.0054068
-0.00102293
0.00565846
-0.00132619
0.00587414
-0.0016549
0.00606619
-0.00200498
0.00624491
-0.00237332
0.00641834
-0.00275775
0.00659243
-0.00315687
0.00677133
-0.00356981
0.0069577
-0.00399576
0.00715298
-0.00443349
0.00735745
0.00757055
-0.00488136
2.56902e-05
0.000544445
7.64336e-05
0.00148373
0.000130972
0.00233009
0.00017138
0.00308485
0.000183691
0.00374774
0.000158207
0.00432043
8.96404e-05
0.00480786
-2.3393e-05
0.00521829
-0.000179198
0.00556261
-0.000373953
0.00585322
-0.000602754
0.00610294
-0.000860459
0.0063239
-0.00114232
0.00652677
-0.00144435
0.00672037
-0.00176346
0.00691154
-0.00209739
0.00710526
-0.00244453
0.00730484
-0.00280365
0.0075121
-0.00317365
0.00772746
0.00795059
-0.0035537
3.68374e-05
0.000507608
0.000118229
0.00140234
0.000220969
0.00222735
0.00032463
0.00298119
0.000412083
0.00366029
0.000470168
0.00426235
0.00049005
0.00478798
0.000467131
0.00524121
0.000400542
0.0056292
0.000292305
0.00596146
0.000146391
0.00624886
-3.22447e-05
0.00650253
-0.000238463
0.00673298
-0.000467519
0.00694942
-0.000715396
0.00715942
-0.000978909
0.00736878
-0.00125568
0.00758161
-0.001544
0.00780043
-0.0018427
0.00802616
0.00825887
-0.00215098
4.58098e-05
0.000461798
0.000153226
0.00129492
0.000298693
0.00208188
0.000460702
0.00281918
0.000620152
0.00350084
0.00076112
0.00412138
0.000871518
0.00467759
0.000943386
0.00516935
0.000972778
0.0055998
0.000959254
0.00597498
0.000905098
0.00630301
0.000814406
0.00659323
0.000692193
0.0068552
0.000543639
0.00709798
0.000373543
0.00732952
0.000186001
0.00755632
-1.5731e-05
0.00778334
-0.000229257
0.00801395
-0.000453083
0.00824998
0.0084922
-0.000686414
5.23014e-05
0.000409497
0.000180089
0.00116713
0.000360976
0.00190099
0.000573859
0.0026063
0.000799016
0.00327568
0.00101884
0.00390155
0.00121866
0.00447777
0.00138737
0.00500064
0.00151772
0.00546945
0.00160622
0.00588648
0.00165268
0.00625655
0.00165949
0.00658641
0.00163078
0.0068839
0.0015716
0.00715716
0.00148717
0.00741394
0.00138238
0.00766111
0.00126142
0.0079043
0.00112763
0.00814775
0.0009835
0.00839411
0.00864475
0.00083095
5.61679e-05
0.000353329
0.000197968
0.00102533
0.000405472
0.00169349
0.000659355
0.00235241
0.000940691
0.00299434
0.00123151
0.00361074
0.00151562
0.00419366
0.00177943
0.00473682
0.00201259
0.00523629
0.00220829
0.00569079
0.00236319
0.00610165
0.0024771
0.0064725
0.00255232
0.00680868
0.00259288
0.00711661
0.00260374
0.00740307
0.00259018
0.00767468
0.00255717
0.00793731
0.00250908
0.00819584
0.00244951
0.00845368
0.00871266
0.0023816
5.74407e-05
0.000295888
0.000206606
0.000876169
0.000430953
0.00146914
0.000714034
0.00206933
0.00103902
0.00266936
0.00138897
0.00326079
0.00174754
0.00383509
0.00209976
0.00438459
0.0024329
0.00490315
0.00273705
0.00538664
0.00300548
0.00583322
0.00323473
0.00624326
0.00342425
0.00661915
0.003576
0.00696486
0.00369367
0.00728541
0.00378205
0.0075863
0.00384634
0.00787302
0.00389164
0.00815054
0.00392261
0.0084227
0.00869167
0.0039436
5.63273e-05
0.000239561
0.000206383
0.000726114
0.0004375
0.00123803
0.000736815
0.00177002
0.00109058
0.0023156
0.00148416
0.0028672
0.00190248
0.00341677
0.00233065
0.00395643
0.00275476
0.00447904
0.00316268
0.00497873
0.00354465
0.00545124
0.00389374
0.00589417
0.00420594
0.00630695
0.00448006
0.00669074
0.00471732
0.00704814
0.00492085
0.00738277
0.00509503
0.00769884
0.00524493
0.00800064
0.00537581
0.00829182
0.00857424
0.00549325
5.31873e-05
0.000186373
0.000198279
0.000581022
0.000426546
0.00100976
0.000728947
0.00146762
0.00109537
0.00194917
0.00151442
0.00244815
0.00197351
0.00295768
0.0024593
0.00347063
0.00295831
0.00398004
0.00345756
0.00447947
0.00394538
0.00496342
0.00441196
0.00542759
0.00484985
0.00586906
0.00525419
0.00628641
0.00562271
0.00667961
0.00595556
0.00704992
0.00625487
0.00739953
0.00652433
0.00773118
0.00676871
0.00804743
0.00834897
0.00699398
4.84892e-05
0.000137884
0.000183762
0.000445749
0.000400707
0.000792814
0.00069392
0.0011744
0.001057
0.00158609
0.00148218
0.00202297
0.00196022
0.00247964
0.00248056
0.0029503
0.0030316
0.00342899
0.00360128
0.00390979
0.00417761
0.0043871
0.00474933
0.00485587
0.0053065
0.00531189
0.00584099
0.00575192
0.00634681
0.0061738
0.00682025
0.00657648
0.00725986
0.00695992
0.00766626
0.00732479
0.00804182
0.00767186
0.00799981
0.00839098
4.27484e-05
9.5136e-05
0.000164577
0.00032392
0.000363411
0.00059398
0.000636967
0.000900847
0.000982191
0.00124087
0.00139486
0.00161031
0.00186933
0.00200517
0.00239847
0.00242115
0.00297377
0.0028537
0.00358551
0.00329805
0.00422318
0.00374942
0.00487596
0.00420309
0.00553319
0.00465467
0.0061849
0.00510021
0.00682228
0.00553642
0.00743806
0.00596071
0.0080267
0.00637127
0.00858447
0.00676702
0.00910933
0.007147
0.00750761
0.00960154
3.64571e-05
5.86788e-05
0.000142501
0.000217877
0.000318381
0.000418101
0.000564236
0.000654991
0.000879712
0.000925391
0.00126361
0.00122641
0.00171361
0.00155517
0.00222608
0.00190868
0.00279601
0.00228377
0.00341699
0.00267707
0.00408141
0.00308501
0.00478061
0.00350389
0.00550528
0.00392999
0.00624581
0.00435968
0.00699266
0.00478957
0.00773674
0.00521663
0.0084697
0.00563831
0.00918391
0.0060528
0.00987168
0.00645924
0.006855
0.0105243
3.0018e-05
2.86608e-05
0.000119089
0.000128805
0.000269078
0.000268111
0.000481818
0.000442251
0.000758888
0.00064832
0.00110137
0.000883936
0.00150958
0.00114696
0.00198291
0.00143535
0.00251964
0.00174705
0.00311682
0.00207989
0.00377029
0.00243153
0.00447472
0.00279946
0.00522371
0.003181
0.00601005
0.00357334
0.00682596
0.00397367
0.00766335
0.00437923
0.00851424
0.00478743
0.00937106
0.00519597
0.0102259
0.00560439
0.00601799
0.0110629
2.37008e-05
4.96004e-06
9.54981e-05
5.70081e-05
0.000218271
0.000145339
0.000394904
0.000265619
0.000628195
0.000415029
0.0009207
0.00059143
0.00127457
0.00079309
0.00169137
0.00101855
0.00217194
0.00126647
0.0027163
0.00153553
0.00332348
0.00182435
0.00399158
0.00213136
0.00471776
0.00245481
0.00549839
0.00279272
0.00632927
0.00314278
0.00720612
0.00350238
0.00812519
0.00386836
0.00908522
0.00423594
0.0100927
0.00459691
0.00494544
0.0111652
1.76391e-05
-1.26791e-05
7.24345e-05
2.21275e-06
0.000167859
4.99138e-05
0.000307365
0.000126113
0.000494392
0.000228002
0.000732289
0.000353532
0.00102422
0.000501163
0.00137303
0.000669727
0.0017812
0.000858305
0.00225063
0.0010661
0.00278263
0.00129234
0.00337778
0.00153622
0.00403583
0.00179676
0.00475573
0.00207282
0.00553556
0.00236295
0.00637264
0.0026653
0.00726376
0.00297724
0.00820533
0.00329437
0.00919431
0.00360793
0.00389609
0.0102437
1.18595e-05
-2.45386e-05
5.0279e-05
-3.62068e-05
0.000119047
-1.88537e-05
0.000221903
2.32566e-05
0.000362547
8.73581e-05
0.000544627
0.000171453
0.000771704
0.000274086
0.0010472
0.000394227
0.00137435
0.000531158
0.00175609
0.00068436
0.00219501
0.000853426
0.00269325
0.00103797
0.00325244
0.00123757
0.00387363
0.00145164
0.00455726
0.00167932
0.00530331
0.00191925
0.00611157
0.00216899
0.00698222
0.00242371
0.00791732
0.00267283
0.00288994
0.00892347
6.37912e-06
-3.09178e-05
2.92596e-05
-5.90873e-05
7.2701e-05
-6.22951e-05
0.000140569
-4.46117e-05
0.00023661
-8.68264e-06
0.000364484
4.35791e-05
0.000527771
0.000110799
0.000729974
0.000192024
0.0009745
0.000286632
0.00126463
0.000394227
0.0016035
0.000514561
0.00199402
0.000647455
0.00243888
0.000792706
0.00294054
0.000949981
0.00350122
0.00111864
0.00412306
0.00129741
0.00480827
0.00148378
0.00555922
0.00167277
0.00637801
0.00185404
0.00200441
0.00726354
1.24983e-06
-3.21676e-05
9.74436e-06
-6.75818e-05
2.98283e-05
-8.2379e-05
6.54623e-05
-8.02457e-05
0.000120357
-6.35773e-05
0.000198041
-3.41047e-05
0.000301916
6.92303e-06
0.000435299
5.86415e-05
0.000601432
0.000120499
0.000803505
0.000192154
0.00104465
0.000273413
0.00132796
0.000364149
0.00165646
0.000464208
0.00203315
0.000573286
0.00246106
0.000690733
0.00294323
0.000815229
0.00348276
0.000944248
0.00408236
0.00107317
0.00474311
0.00119329
0.00128731
0.00546021
-3.37246e-06
-2.87951e-05
-7.6424e-06
-6.33119e-05
-8.12609e-06
-8.18953e-05
-7.56226e-07
-8.76156e-05
1.81279e-05
-8.24614e-05
5.1895e-05
-6.78718e-05
0.000103707
-4.48893e-05
0.000176582
-1.42334e-05
0.000273458
2.36233e-05
0.000397221
6.83911e-05
0.000550739
0.000119895
0.000736884
0.000178004
0.000958543
0.000242549
0.00121863
0.000313194
0.0015201
0.000389267
0.00186585
0.000469483
0.00225851
0.000551585
0.00269987
0.00063181
0.00318946
0.000703697
0.00075572
0.00372105
-7.23519e-06
-2.15599e-05
-2.20067e-05
-4.85404e-05
-3.92697e-05
-6.46323e-05
-5.48339e-05
-7.20513e-05
-6.50682e-05
-7.2227e-05
-6.67461e-05
-6.6194e-05
-5.69314e-05
-5.4704e-05
-3.28855e-05
-3.82793e-05
8.00373e-06
-1.7266e-05
6.82789e-05
8.11589e-06
0.000150455
3.77184e-05
0.000257036
7.14242e-05
0.000390521
0.000109063
0.000553388
0.000150327
0.000748019
0.000194636
0.000976543
0.000240959
0.00124052
0.000287611
0.00154033
0.000331999
0.00187407
0.000369959
0.000394663
0.00223512
-1.00398e-05
-1.15202e-05
-3.23392e-05
-2.62409e-05
-6.15439e-05
-3.54276e-05
-9.33512e-05
-4.0244e-05
-0.00012414
-4.14387e-05
-0.00015078