/*--------------------------------*- C++ -*----------------------------------*\
  =========                 |
  \\      /  F ield         | OpenFOAM: The Open Source CFD Toolbox
   \\    /   O peration     | Website:  https://openfoam.org
    \\  /    A nd           | Version:  7
     \\/     M anipulation  |
\*---------------------------------------------------------------------------*/
FoamFile
{
    version     2.0;
    format      ascii;
    class       volVectorField;
    location    "5";
    object      U;
}
// * * * * * * * * * * * * * * * * * * * * * * * * * * * * * * * * * * * * * //

dimensions      [0 1 -1 0 0 0 0];

internalField   nonuniform List<vector> 
1360
(
(-0.00482112 0.00394769 2.6329e-21)
(-0.010634 0.00497112 -7.40035e-20)
(-0.0170806 0.00524895 -4.19624e-20)
(-0.0232063 0.00500662 2.63811e-20)
(-0.0285369 0.00439534 -4.52163e-21)
(-0.0327785 0.00352257 2.93769e-20)
(-0.0357363 0.00246469 -5.70731e-21)
(-0.0372921 0.00127522 -4.88004e-20)
(-0.0373802 -8.23462e-06 1.29685e-19)
(-0.035969 -0.00135829 1.69317e-20)
(-0.0330508 -0.00275367 -2.86773e-20)
(-0.0286359 -0.00417325 -5.79586e-20)
(-0.0227527 -0.00559207 6.03372e-21)
(-0.0154546 -0.00697584 5.59445e-20)
(-0.00683314 -0.00827536 -4.87917e-20)
(0.00296806 -0.00942263 7.30976e-20)
(0.0137565 -0.0103265 -5.65793e-20)
(0.0252688 -0.0108525 -6.00028e-20)
(0.036889 -0.010808 7.20299e-20)
(-0.00174145 0.00521234 -1.30535e-19)
(-0.00567412 0.0111746 1.60337e-19)
(-0.0109286 0.0140235 2.6866e-20)
(-0.0162283 0.0147374 1.01862e-19)
(-0.0207814 0.0139598 1.106e-19)
(-0.0242037 0.0121254 -2.27244e-19)
(-0.0262628 0.0095443 -6.38936e-20)
(-0.0268088 0.00643692 5.41119e-20)
(-0.0257553 0.00295812 -2.37478e-19)
(-0.0230591 -0.000783425 9.81054e-21)
(-0.0187063 -0.00470962 2.44671e-19)
(-0.0127016 -0.00875832 -3.19637e-20)
(-0.00506468 -0.0128705 -4.77961e-20)
(0.00416785 -0.016977 -1.34517e-21)
(0.0149361 -0.0209818 5.29133e-20)
(0.027139 -0.0247455 1.38201e-19)
(0.0406162 -0.0280702 4.72787e-20)
(0.0551934 -0.0306751 -3.29835e-21)
(0.0707329 -0.032121 -2.53182e-19)
(0.0863465 -0.0318248 -1.68256e-19)
(-0.00268175 0.0077775 -6.95976e-20)
(-0.00697957 0.0165127 7.79151e-20)
(-0.0110152 0.0205536 -9.41813e-20)
(-0.0139912 0.0213598 -1.99825e-19)
(-0.0154164 0.019901 1.90543e-19)
(-0.0150745 0.016843 2.12472e-19)
(-0.0128504 0.0126631 7.18188e-20)
(-0.00868125 0.00770158 -1.06174e-19)
(-0.00254423 0.00219773 -1.11009e-20)
(0.00555597 -0.00368029 1.46633e-19)
(0.0155979 -0.00981157 -1.30612e-19)
(0.0275473 -0.0161017 1.03629e-19)
(0.0413578 -0.0224649 -4.21363e-20)
(0.0569698 -0.0288018 3.74884e-19)
(0.0743026 -0.0349749 -5.50056e-19)
(0.0932286 -0.0407796 -1.40598e-19)
(0.113544 -0.0459121 5.04878e-19)
(0.135081 -0.0498933 -4.5458e-19)
(0.157916 -0.0518864 -3.34233e-21)
(0.180754 -0.0508623 -8.34984e-20)
(-0.00368245 0.00915144 4.13877e-20)
(-0.00800289 0.0190606 3.95105e-19)
(-0.00995185 0.0233398 -4.50752e-19)
(-0.00934972 0.0237179 1.11715e-19)
(-0.0060999 0.0213606 -1.41033e-20)
(-0.000213315 0.0170885 4.35726e-20)
(0.0082628 0.0114933 2.67474e-19)
(0.0192667 0.00499804 -3.06888e-19)
(0.0327267 -0.00209847 -8.48559e-21)
(0.0485644 -0.00958531 -5.25986e-19)
(0.0666966 -0.0173114 -5.81233e-20)
(0.0870338 -0.0251627 6.93875e-20)
(0.109478 -0.0330391 2.80201e-19)
(0.133922 -0.0408305 -1.56862e-19)
(0.160234 -0.0483854 4.83448e-19)
(0.188233 -0.0554752 -6.94793e-19)
(0.217635 -0.0617414 8.34355e-19)
(0.248221 -0.066535 -5.7684e-19)
(0.280304 -0.0685191 3.60547e-19)
(0.312248 -0.0660549 1.84057e-19)
(-0.00433885 0.00915213 1.35464e-19)
(-0.00778549 0.01836 5.20967e-20)
(-0.00646963 0.021749 2.80671e-19)
(-0.000885655 0.0210906 -1.62841e-19)
(0.00862055 0.0176012 -7.50726e-20)
(0.0217743 0.0121675 6.28678e-19)
(0.0383319 0.0054335 -9.9174e-19)
(0.0580759 -0.00214 7.98678e-19)
(0.0808091 -0.010226 3.66855e-19)
(0.106348 -0.0185932 -7.79837e-19)
(0.134514 -0.0270767 2.00825e-19)
(0.16513 -0.0355547 8.08997e-20)
(0.19801 -0.0439263 8.90289e-19)
(0.232955 -0.0520884 -9.69497e-19)
(0.269747 -0.0599053 -2.88065e-19)
(0.308108 -0.0671714 7.47207e-19)
(0.347635 -0.0735507 -6.21754e-19)
(0.387978 -0.0783211 4.24337e-19)
(0.429625 -0.079628 3.68303e-19)
(0.470846 -0.0749786 -1.25461e-18)
(-0.0042194 0.00779436 -4.28238e-19)
(-0.00526429 0.0144243 1.35858e-19)
(0.000890106 0.0158069 -1.90803e-19)
(0.0130834 0.0135468 4.49572e-22)
(0.0305184 0.00876986 5.20283e-19)
(0.0526386 0.00233915 -1.01375e-18)
(0.0789808 -0.00511473 9.08972e-19)
(0.109142 -0.0131431 -8.18144e-19)
(0.142766 -0.021428 8.39526e-19)
(0.179526 -0.0297445 -7.36997e-19)
(0.219108 -0.0379338 4.07202e-19)
(0.2612 -0.0458822 -9.92355e-19)
(0.305479 -0.0535024 1.24354e-18)
(0.351607 -0.0607148 1.03063e-19)
(0.399224 -0.0674223 -3.17139e-19)
(0.447914 -0.073484 -6.17532e-19)
(0.497119 -0.0786672 -3.50245e-20)
(0.546306 -0.0823307 6.89439e-19)
(0.59602 -0.0822458 3.41486e-19)
(0.644791 -0.0749205 -7.39022e-19)
(-0.00290613 0.00525527 -1.39416e-19)
(0.000625015 0.00769251 -6.09915e-20)
(0.0136299 0.0061715 -9.51762e-20)
(0.0343268 0.001951 5.04161e-20)
(0.0614835 -0.00406206 -6.90447e-19)
(0.0942544 -0.0111141 1.32419e-18)
(0.131936 -0.0186544 -1.49158e-20)
(0.17391 -0.0262994 -4.74432e-20)
(0.219622 -0.0337821 -4.76578e-19)
(0.268555 -0.0409178 -9.05077e-20)
(0.320209 -0.0475821 -1.43052e-19)
(0.37408 -0.0536928 -8.10159e-19)
(0.429656 -0.0591958 7.66821e-19)
(0.486405 -0.0640511 -6.69752e-19)
(0.543774 -0.0682161 4.00966e-19)
(0.601167 -0.071635 -3.5199e-19)
(0.657864 -0.0742218 6.45456e-19)
(0.713158 -0.0755356 -4.80966e-19)
(0.767563 -0.0732726 1.71294e-19)
(0.820289 -0.0633915 8.75764e-19)
(-1.43279e-05 0.001829 1.63775e-19)
(0.0108687 -0.00105464 -1.56304e-20)
(0.0331468 -0.00595624 -2.7253e-19)
(0.0644791 -0.0121205 3.70514e-20)
(0.103224 -0.0189778 5.86265e-19)
(0.148243 -0.0259656 -1.13063e-18)
(0.198568 -0.0326799 6.59089e-19)
(0.253329 -0.0388602 -3.5004e-20)
(0.311729 -0.0443408 4.84108e-19)
(0.373009 -0.049023 -5.38423e-19)
(0.436428 -0.0528578 4.41903e-19)
(0.50125 -0.0558321 -1.1602e-18)
(0.566732 -0.0579566 -6.46626e-19)
(0.632125 -0.0592548 1.34063e-18)
(0.696677 -0.0597515 -5.37911e-19)
(0.759621 -0.0594706 -3.48036e-19)
(0.820126 -0.058426 4.71488e-19)
(0.877391 -0.0563301 1.0273e-18)
(0.931611 -0.0513665 -6.15145e-19)
(0.982665 -0.0411877 -1.67293e-19)
(0.00479527 -0.00210694 3.33127e-19)
(0.0263017 -0.01077 -3.17747e-19)
(0.0605738 -0.0189417 -2.56142e-19)
(0.104781 -0.0265229 -7.31168e-19)
(0.156902 -0.0333941 6.39674e-19)
(0.215494 -0.039266 8.92417e-19)
(0.279301 -0.0439529 -4.51208e-19)
(0.347159 -0.0473836 5.26225e-19)
(0.417978 -0.0495574 -1.8437e-19)
(0.490717 -0.0505217 5.71863e-20)
(0.564363 -0.0503616 9.36739e-19)
(0.637931 -0.0491889 -1.27328e-18)
(0.710465 -0.0471317 -4.70986e-20)
(0.781059 -0.0443229 2.61101e-19)
(0.84887 -0.040889 9.56544e-20)
(0.913144 -0.0369357 -9.7995e-20)
(0.97326 -0.0324903 2.79217e-19)
(1.02879 -0.0273646 -1.54787e-19)
(1.07926 -0.0215456 -8.6323e-19)
(1.12342 -0.0173406 7.84104e-19)
(0.0117997 -0.00610385 2.61478e-19)
(0.0475224 -0.0201969 8.70824e-20)
(0.0966017 -0.030834 -2.57996e-19)
(0.155802 -0.0387262 3.03074e-19)
(0.222758 -0.0443194 -6.92369e-19)
(0.295713 -0.0476842 1.46764e-18)
(0.37309 -0.0489325 -1.00128e-18)
(0.453399 -0.0482582 -5.46709e-19)
(0.535232 -0.0458968 1.44736e-18)
(0.617247 -0.0421102 -1.14312e-18)
(0.698165 -0.0371805 1.40693e-18)
(0.776788 -0.0314024 -1.72237e-18)
(0.852015 -0.0250739 5.79813e-19)
(0.922867 -0.0184871 6.82423e-19)
(0.988518 -0.0119208 -5.88177e-19)
(1.04831 -0.00563018 -1.21208e-20)
(1.10182 0.000186307 -9.13965e-20)
(1.14879 0.0053511 -6.74717e-19)
(1.18881 0.00907366 4.92031e-19)
(1.22106 0.009832 -1.36904e-19)
(0.021178 -0.00964558 -3.45179e-19)
(0.0747861 -0.0279189 1.29974e-19)
(0.141301 -0.0394889 -6.8416e-21)
(0.217203 -0.0460314 -5.17307e-19)
(0.299829 -0.0486723 6.96693e-19)
(0.387115 -0.047934 -9.58121e-19)
(0.477155 -0.0443083 8.68647e-20)
(0.56814 -0.0383294 2.81343e-19)
(0.658367 -0.0305343 -3.89935e-19)
(0.746254 -0.0214492 7.19218e-19)
(0.830357 -0.0115847 1.99187e-19)
(0.909405 -0.00142601 8.34294e-20)
(0.982328 0.00857987 -8.22377e-19)
(1.04829 0.018036 8.35651e-19)
(1.10669 0.0266057 -4.46966e-19)
(1.1572 0.034024 3.30964e-19)
(1.19973 0.0401164 -6.93619e-19)
(1.2344 0.0447457 -3.93109e-19)
(1.26119 0.0474689 4.66517e-19)
(1.27976 0.0481822 1.2125e-19)
(0.0329602 -0.0121545 -3.34992e-19)
(0.107883 -0.0324226 4.6342e-19)
(0.193961 -0.0427216 9.79178e-20)
(0.287557 -0.0458256 -8.44761e-20)
(0.385801 -0.043644 2.31063e-19)
(0.486357 -0.0372381 5.71256e-19)
(0.587045 -0.0275546 -2.93696e-19)
(0.685811 -0.0155265 -2.21774e-19)
(0.780776 -0.00202976 -5.82475e-19)
(0.87028 0.0121335 5.13086e-19)
(0.952925 0.0262424 -2.70626e-19)
(1.02761 0.0396696 1.10727e-20)
(1.09357 0.0518958 1.25852e-18)
(1.15037 0.0625202 -8.79767e-19)
(1.19791 0.0712658 7.78149e-19)
(1.23641 0.0779823 -7.95653e-20)
(1.26633 0.0826472 1.10407e-19)
(1.28831 0.0853081 -2.55049e-19)
(1.30292 0.0858879 -8.86094e-20)
(1.3106 0.0849125 -4.69404e-19)
(0.0469707 -0.0130184 1.92248e-19)
(0.146032 -0.0322042 1.24992e-19)
(0.252986 -0.038502 -7.8786e-20)
(0.364309 -0.0358644 -1.07637e-18)
(0.477063 -0.027053 3.25153e-19)
(0.588757 -0.0137292 -7.9386e-20)
(0.697065 0.0026644 -4.4191e-20)
(0.799865 0.0207834 -5.68665e-20)
(0.895325 0.0394349 9.44488e-20)
(0.98197 0.0575989 -6.94782e-19)
(1.05873 0.0744364 3.70265e-19)
(1.12498 0.0892992 -5.68751e-19)
(1.18052 0.101735 7.31229e-20)
(1.22555 0.111486 -3.01734e-19)
(1.26064 0.118472 -1.12652e-19)
(1.28661 0.122773 5.7555e-19)
(1.30449 0.124608 -6.21158e-19)
(1.31536 0.124256 9.49811e-20)
(1.32018 0.121943 2.46411e-19)
(1.31971 0.11848 -2.61749e-19)
(0.0627862 -0.0116449 2.96609e-19)
(0.187826 -0.025924 -4.52134e-20)
(0.315899 -0.0251903 -3.8187e-19)
(0.443884 -0.0145643 -5.34195e-20)
(0.568991 0.00233932 6.75809e-19)
(0.688768 0.0232555 -2.81378e-19)
(0.800976 0.0462718 2.67713e-19)
(0.903698 0.0696986 -3.00104e-19)
(0.99545 0.0921324 1.41832e-19)
(1.07526 0.112477 -1.36402e-19)
(1.14269 0.129942 6.06246e-19)
(1.19783 0.144032 -3.73233e-19)
(1.24123 0.15453 -4.18536e-20)
(1.27382 0.16146 -4.95851e-20)
(1.29682 0.165044 8.19508e-20)
(1.3116 0.165651 -1.26111e-19)
(1.31954 0.163746 2.85564e-19)
(1.32199 0.159808 1.00185e-20)
(1.32002 0.154266 -4.30136e-19)
(1.31446 0.147973 -1.33504e-19)
(0.0797242 -0.00753772 -2.30455e-19)
(0.231265 -0.0125934 1.8304e-19)
(0.379473 -0.00178516 6.44806e-20)
(0.521966 0.0187362 -8.18205e-20)
(0.656389 0.0446048 -2.22548e-20)
(0.780608 0.0730407 9.49909e-20)
(0.892785 0.101785 -7.51281e-20)
(0.991535 0.128967 3.25797e-19)
(1.07605 0.15317 -2.25122e-19)
(1.14616 0.173436 1.08493e-19)
(1.20225 0.189231 -2.44835e-19)
(1.24528 0.200401 2.37192e-19)
(1.27657 0.207106 9.74499e-20)
(1.29772 0.209744 -2.69019e-19)
(1.31043 0.208875 2.73951e-19)
(1.31638 0.20514 -1.11394e-19)
(1.3171 0.199195 4.85463e-20)
(1.31393 0.191644 4.42283e-20)
(1.30788 0.18302 2.27234e-21)
(1.2996 0.174029 4.53379e-20)
(0.0968691 -0.000381666 -1.06125e-19)
(0.273875 0.00824005 1.76693e-19)
(0.439983 0.0318637 -1.08982e-19)
(0.593904 0.0635981 8.79563e-20)
(0.734043 0.0985587 -1.13365e-19)
(0.858922 0.133656 -1.69655e-20)
(0.967441 0.166516 4.88201e-20)
(1.05908 0.195349 -1.84731e-20)
(1.13397 0.218987 -1.97483e-20)
(1.1929 0.236853 9.79618e-20)
(1.23722 0.248875 -1.4476e-20)
(1.26869 0.255381 -5.36707e-20)
(1.28928 0.256986 1.08867e-19)
(1.30106 0.254477 -8.23995e-20)
(1.30597 0.248708 1.88418e-20)
(1.30577 0.240513 -2.5368e-20)
(1.30194 0.230646 7.16638e-20)
(1.29562 0.219753 -5.62165e-20)
(1.28761 0.208381 -8.63103e-21)
(1.27836 0.196944 -1.44113e-20)
(0.11314 0.00988107 6.17147e-20)
(0.312922 0.0363478 -1.88202e-19)
(0.493561 0.0749241 1.14317e-19)
(0.655177 0.118427 -1.76086e-20)
(0.797265 0.161824 3.31064e-20)
(0.919329 0.20204 -5.61084e-20)
(1.02131 0.236915 -3.65284e-20)
(1.10379 0.265055 7.54849e-21)
(1.16799 0.285827 8.94756e-20)
(1.2157 0.299258 -1.27608e-19)
(1.24914 0.30588 1.81409e-20)
(1.27071 0.306571 2.70263e-20)
(1.28283 0.302394 -3.95359e-20)
(1.28777 0.294463 1.05988e-19)
(1.2875 0.283834 -3.73251e-20)
(1.28366 0.271428 2.88924e-20)
(1.27751 0.258001 -6.24788e-20)
(1.26996 0.244169 1.54514e-20)
(1.26153 0.230437 2.74334e-20)
(1.25252 0.216827 1.63675e-20)
(0.127389 0.022999 1.22012e-19)
(0.345677 0.0707497 1.08783e-19)
(0.53658 0.125564 -3.74643e-20)
(0.701859 0.180555 -1.32234e-19)
(0.842352 0.231034 -7.08908e-20)
(0.958801 0.274354 1.66749e-19)
(1.05239 0.308947 6.89556e-20)
(1.12487 0.334145 -1.38495e-19)
(1.17858 0.350093 5.48459e-20)
(1.21618 0.357574 -9.06426e-22)
(1.24056 0.357786 1.89604e-19)
(1.25454 0.352136 -7.35616e-20)
(1.26073 0.342059 -1.74825e-19)
(1.26137 0.328887 2.04729e-19)
(1.25829 0.313766 -8.34787e-20)
(1.2529 0.297605 1.26953e-19)
(1.2462 0.281083 -4.27458e-20)
(1.2388 0.26474 1.1415e-20)
(1.23101 0.249007 -2.32396e-20)
(1.22302 0.233501 -1.80804e-20)
(0.13852 0.038395 -1.2504e-19)
(0.369697 0.109733 -2.56755e-19)
(0.56603 0.181057 4.07271e-19)
(0.730993 0.24645 2.27439e-19)
(0.866894 0.302133 -6.60903e-19)
(0.975824 0.346339 3.89769e-19)
(1.06024 0.378463 9.21555e-20)
(1.12304 0.398836 1.55643e-19)
(1.16745 0.408549 -2.16032e-23)
(1.19686 0.409199 -1.1168e-20)
(1.21452 0.402622 -3.2228e-19)
(1.22343 0.390664 2.19142e-19)
(1.22616 0.375016 7.74419e-20)
(1.22478 0.357109 -3.94236e-20)
(1.22088 0.338074 -1.09004e-19)
(1.21558 0.318732 1.64313e-20)
(1.20963 0.299646 -3.31732e-20)
(1.2034 0.281268 -1.2197e-20)
(1.19698 0.263947 1.20534e-19)
(1.1906 0.246867 8.76679e-21)
(0.145603 0.0551901 -2.8875e-19)
(0.383087 0.150962 -1.29013e-19)
(0.579816 0.237986 -1.31854e-19)
(0.740852 0.312011 3.36691e-19)
(0.869913 0.370727 2.82614e-20)
(0.970378 0.413665 -1.22387e-19)
(1.04585 0.441487 -2.13031e-19)
(1.10015 0.455704 -1.95077e-20)
(1.13718 0.458414 1.65784e-21)
(1.1607 0.451992 2.66712e-19)
(1.17413 0.43881 -2.7036e-19)
(1.1804 0.421027 6.17834e-20)
(1.18188 0.400457 -1.48883e-19)
(1.1804 0.378525 6.34558e-20)
(1.17724 0.356267 8.74762e-21)
(1.17329 0.33437 -1.38652e-19)
(1.16907 0.313267 4.06525e-20)
(1.16475 0.293337 2.47878e-21)
(1.16028 0.274834 -1.73312e-20)
(1.15602 0.25647 1.86161e-20)
(0.147989 0.0722667 1.20598e-19)
(0.384701 0.191663 1.51527e-19)
(0.576955 0.292536 -1.87628e-19)
(0.731052 0.372907 2.6561e-19)
(0.851857 0.432425 6.41296e-20)
(0.943793 0.472234 -3.35863e-19)
(1.01133 0.494445 7.24606e-20)
(1.05893 0.501811 6.60985e-20)
(1.09083 0.497393 1.02741e-19)
(1.11089 0.48423 -7.34739e-20)
(1.12246 0.465089 1.08819e-19)
(1.12824 0.442296 4.7373e-20)
(1.13032 0.417674 3.73243e-20)
(1.13023 0.392552 -7.14717e-21)
(1.12901 0.367825 -1.69086e-20)
(1.12732 0.344027 2.36878e-20)
(1.12551 0.321466 1.03448e-20)
(0.145378 0.0883663 3.81379e-19)
(0.374265 0.228866 -2.65763e-19)
(0.557664 0.340804 5.06208e-21)
(0.702549 0.424921 -2.2707e-19)
(0.814462 0.48314 -2.11091e-19)
(0.898518 0.518413 3.19899e-19)
(0.959689 0.534312 -3.91453e-20)
(1.00267 0.534771 2.24926e-22)
(1.03175 0.52368 -1.07484e-21)
(1.05064 0.504583 -4.66508e-20)
(1.06243 0.480476 1.24212e-20)
(1.06952 0.453722 1.39913e-20)
(1.07366 0.426056 -3.79354e-20)
(1.0761 0.398657 8.71691e-20)
(0.137841 0.102186 -1.4026e-20)
(0.352416 0.259648 -1.97054e-20)
(0.523329 0.379104 1.75046e-19)
(0.65748 0.464278 7.34261e-20)
(0.76056 0.519406 5.74935e-20)
(0.837905 0.549221 -8.58565e-20)
(0.894525 0.558706 8.12804e-20)
(0.935017 0.552782 1.42489e-20)
(0.963425 0.535961 -1.32971e-20)
(0.983145 0.512096 -8.807e-21)
(0.996879 0.484264 2.09122e-19)
(0.125895 0.11246 2.59503e-20)
(0.320663 0.281336 -2.78619e-20)
(0.476338 0.404278 1.37309e-20)
(0.599009 0.487836 -1.00848e-19)
(0.693862 0.538465 9.25347e-21)
(0.765912 0.562472 9.48691e-20)
(0.819827 0.565986 -1.9029e-19)
(0.859781 0.554667 2.19567e-19)
(0.889362 0.533411 1.35781e-19)
(0.110377 0.118196 2.26039e-20)
(0.281209 0.291841 -1.23495e-19)
(0.419947 0.413906 6.43922e-20)
(0.531065 0.493365 9.86808e-20)
(0.618626 0.538494 1.03823e-19)
(0.68687 0.556817 -3.78081e-19)
(0.739762 0.555251 5.40065e-19)
(0.0924136 0.118629 1.78427e-19)
(0.236842 0.289729 8.68789e-21)
(0.357989 0.406488 -4.495e-19)
(0.458048 0.479628 7.184e-21)
(0.539444 0.518657 -2.86472e-19)
(0.0733416 0.11335 -4.68684e-19)
(0.190688 0.274351 3.68658e-19)
(0.29461 0.38152 2.39149e-19)
(0.384557 0.44644 5.91109e-20)
(0.0545875 0.102342 3.79669e-20)
(0.145981 0.245902 9.88683e-20)
(0.233984 0.339535 1.10639e-19)
(0.315112 0.394664 -3.57345e-19)
(0.0375564 0.0859792 -1.65779e-19)
(0.105835 0.205405 5.52936e-19)
(0.180055 0.282054 -6.09498e-19)
(0.0235246 0.0650078 -1.86811e-19)
(0.0730287 0.154647 2.04029e-19)
(0.0135429 0.0404943 -2.31168e-19)
(0.0498222 0.0960627 2.25061e-19)
(0.0471963 -0.0102008 5.00746e-20)
(0.0565165 -0.00996493 -1.70544e-19)
(0.0657471 -0.0101098 6.98264e-20)
(0.0753321 -0.0104461 5.83042e-20)
(0.0853402 -0.010888 -1.07218e-20)
(0.0958158 -0.011408 -4.69416e-20)
(0.106822 -0.0119878 1.77219e-20)
(0.11841 -0.0126095 -2.13188e-20)
(0.130615 -0.0132578 -1.3299e-20)
(0.143454 -0.0139203 3.14978e-20)
(0.156937 -0.0145859 -1.51981e-20)
(0.171064 -0.0152451 6.6217e-21)
(0.185824 -0.015889 7.3693e-21)
(0.2012 -0.0165095 -4.21852e-20)
(0.217168 -0.0170997 6.53787e-21)
(0.233697 -0.0176531 1.19377e-20)
(0.25075 -0.0181644 2.43369e-21)
(0.268286 -0.018629 -2.36648e-21)
(0.286259 -0.0190431 1.19382e-20)
(0.0981451 -0.0300254 -2.81204e-20)
(0.106878 -0.0294799 6.85602e-20)
(0.115519 -0.0299909 1.6483e-19)
(0.124846 -0.0309963 -1.15909e-20)
(0.134696 -0.0322855 1.17967e-19)
(0.145003 -0.0337979 -8.87004e-20)
(0.155815 -0.0354835 -2.39897e-20)
(0.167182 -0.0372904 -1.14296e-19)
(0.179126 -0.0391738 8.65861e-20)
(0.191658 -0.0410971 9.51901e-20)
(0.204779 -0.0430286 -9.23653e-20)
(0.218484 -0.04494 -3.65835e-20)
(0.232758 -0.0468055 3.71145e-20)
(0.247583 -0.048602 -1.16483e-19)
(0.262931 -0.050309 1.18579e-19)
(0.278772 -0.0519083 -8.54915e-20)
(0.295069 -0.0533842 8.24662e-20)
(0.311782 -0.0547238 -2.16196e-20)
(0.32887 -0.0559164 -7.76086e-20)
(0.194819 -0.04791 6.26369e-19)
(0.202386 -0.047499 -3.3203e-19)
(0.209746 -0.0486287 -2.79073e-19)
(0.218377 -0.0503349 6.3932e-19)
(0.227749 -0.0524025 -3.33445e-19)
(0.23758 -0.0548005 5.39817e-20)
(0.247885 -0.0574632 -7.88268e-20)
(0.258707 -0.060308 9.72872e-21)
(0.270049 -0.063265 2.43013e-19)
(0.2819 -0.0662778 -1.87525e-19)
(0.294246 -0.0692976 1.86632e-19)
(0.307068 -0.0722802 -6.92495e-20)
(0.320347 -0.0751859 -3.95526e-20)
(0.334055 -0.077979 1.4277e-19)
(0.348165 -0.0806279 3.93963e-20)
(0.362643 -0.0831052 -3.57465e-19)
(0.377456 -0.085387 1.03578e-19)
(0.392566 -0.0874536 9.8654e-20)
(0.407937 -0.0892891 -1.95749e-20)
(0.328205 -0.0620117 -7.25711e-19)
(0.334012 -0.0623716 7.19613e-19)
(0.339319 -0.064577 -1.6933e-19)
(0.346611 -0.0671343 -6.02798e-19)
(0.354961 -0.0699721 4.08163e-19)
(0.363806 -0.07318 -1.66148e-19)
(0.373112 -0.0766953 1.47581e-19)
(0.382908 -0.0804099 -4.0433e-20)
(0.393167 -0.0842384 -1.1258e-19)
(0.403841 -0.0881151 2.504e-19)
(0.414893 -0.0919822 -1.15764e-19)
(0.42629 -0.0957862 1.30776e-19)
(0.437998 -0.099479 -1.87198e-19)
(0.449985 -0.103018 -3.73392e-20)
(0.462219 -0.106365 2.1416e-20)
(0.474668 -0.109487 -7.47676e-20)
(0.487301 -0.112355 3.72136e-19)
(0.500088 -0.114947 -1.27058e-19)
(0.512998 -0.117243 -1.37577e-19)
(0.526002 -0.119229 -4.84824e-20)
(0.48717 -0.0701366 7.81507e-19)
(0.490618 -0.0720358 1.85549e-20)
(0.493247 -0.0759337 -6.45066e-19)
(0.498542 -0.079638 -6.6938e-20)
(0.505224 -0.0833683 1.39116e-18)
(0.512444 -0.0874192 -7.61888e-19)
(0.52012 -0.0917369 5.04975e-19)
(0.528262 -0.0961941 -1.60452e-19)
(0.5368 -0.100709 -3.09487e-19)
(0.54565 -0.105227 8.81721e-20)
(0.554751 -0.109693 3.6751e-20)
(0.564053 -0.114056 -3.14131e-20)
(0.573516 -0.118269 -2.2535e-19)
(0.583104 -0.122289 1.13981e-19)
(0.592784 -0.12608 9.93257e-20)
(0.602529 -0.129607 -2.29643e-19)
(0.612315 -0.132843 2.25446e-19)
(0.622119 -0.135763 6.44381e-20)
(0.631924 -0.138348 -2.0434e-21)
(0.641711 -0.140581 -1.17602e-19)
(0.659401 -0.0701814 -4.17731e-19)
(0.660204 -0.0745674 1.18633e-19)
(0.660101 -0.0808061 7.73185e-19)
(0.663096 -0.0860096 -8.62698e-19)
(0.667602 -0.0908566 6.73025e-19)
(0.672581 -0.0958721 1.08811e-20)
(0.677943 -0.100994 -3.17627e-19)
(0.68369 -0.106098 5.19902e-19)
(0.68972 -0.111144 -1.15187e-19)
(0.695933 -0.116109 -6.85921e-19)
(0.702265 -0.12096 -2.64913e-19)
(0.708668 -0.12566 9.15698e-19)
(0.715105 -0.130173 -5.14344e-20)
(0.721546 -0.134466 1.0756e-19)
(0.727967 -0.138508 -7.05004e-19)
(0.734349 -0.142268 -9.24098e-20)
(0.74068 -0.145721 4.57316e-19)
(0.746946 -0.148845 -1.51229e-19)
(0.753141 -0.151618 3.40256e-19)
(0.75926 -0.154028 -1.78485e-19)
(0.765297 -0.156063 8.97458e-21)
(0.832144 -0.061031 -1.06465e-18)
(0.831296 -0.0694115 1.33225e-18)
(0.829572 -0.0785431 -1.88327e-18)
(0.830541 -0.0855587 7.15799e-19)
(0.832497 -0.0917969 -3.91709e-19)
(0.834556 -0.0978986 5.07471e-19)
(0.836758 -0.103791 5.86257e-20)
(0.839144 -0.109431 1.4079e-19)
(0.84165 -0.114862 -1.15615e-19)
(0.844222 -0.120113 -2.85034e-19)
(0.84683 -0.125185 -1.07042e-19)
(0.849452 -0.130064 3.46497e-19)
(0.852068 -0.134736 3.38139e-19)
(0.854661 -0.139178 1.84782e-19)
(0.857219 -0.143369 -8.92539e-19)
(0.85973 -0.147284 6.6288e-19)
(0.862187 -0.150899 -5.46141e-19)
(0.864587 -0.154193 1.142e-19)
(0.866926 -0.157147 1.3838e-19)
(0.869205 -0.159746 5.0157e-19)
(0.871427 -0.161977 -3.62391e-19)
(0.873595 -0.163834 -1.3933e-19)
(0.996372 -0.0458897 1.12501e-18)
(0.997142 -0.0583115 -1.07041e-18)
(0.995246 -0.0687881 -2.97826e-19)
(0.993618 -0.0767317 1.62761e-19)
(0.991635 -0.083864 -4.49928e-19)
(0.989284 -0.0906352 -1.82486e-19)
(0.98688 -0.0970237 9.23793e-19)
(0.984564 -0.103096 4.15458e-19)
(0.982369 -0.108934 -6.56363e-19)
(0.980308 -0.114573 8.77179e-19)
(0.978384 -0.12002 -6.49396e-19)
(0.976588 -0.12527 -6.38851e-19)
(0.974902 -0.130314 5.95707e-19)
(0.973308 -0.135134 -1.64327e-19)
(0.971787 -0.139709 -4.44977e-19)
(0.970325 -0.144018 1.08252e-18)
(0.968907 -0.148038 -7.92649e-19)
(0.967524 -0.151748 -2.03338e-19)
(0.966169 -0.155129 6.5639e-19)
(0.964839 -0.158164 -6.93384e-20)
(0.963533 -0.16084 -8.9532e-20)
(0.962254 -0.163146 1.42303e-19)
(0.961004 -0.165076 -3.55591e-19)
(1.17377 -0.0221375 2.93742e-27)
(1.1615 -0.0336615 -5.90223e-27)
(1.14994 -0.0435643 2.80036e-27)
(1.13906 -0.0526269 -5.71635e-27)
(1.1291 -0.0611512 0)
(1.12008 -0.0691594 0)
(1.11189 -0.0767058 0)
(1.10441 -0.0838656 0)
(1.09754 -0.0906902 0)
(1.09118 -0.0972088 -7.8184e-28)
(1.08526 -0.10344 -4.64821e-27)
(1.07971 -0.109393 0)
(1.07446 -0.115072 0)
(1.06947 -0.120474 0)
(1.06469 -0.125593 0)
(1.06009 -0.130418 0)
(1.05564 -0.134939 0)
(1.05133 -0.139143 1.65291e-27)
(1.04713 -0.143018 -3.26783e-27)
(1.04303 -0.146553 3.58317e-11)
(1.03904 -0.149738 3.3867e-11)
(1.03514 -0.152565 1.32542e-27)
(1.03134 -0.155028 -2.59444e-27)
(1.02763 -0.157123 0)
(1.24749 -0.00260037 -2.94341e-27)
(1.24072 -0.0130296 5.90919e-27)
(1.23226 -0.0236018 -2.80359e-27)
(1.2234 -0.0340098 5.7228e-27)
(1.21471 -0.0439591 0)
(1.20623 -0.0533496 0)
(1.19795 -0.0621926 0)
(1.18989 -0.0705229 0)
(1.18207 -0.0783729 0)
(1.17449 -0.0857723 7.82639e-28)
(1.16714 -0.092748 4.65289e-27)
(1.16001 -0.0993229 0)
(1.15307 -0.105514 0)
(1.14631 -0.111332 0)
(1.13971 -0.116786 0)
(1.13326 -0.121877 0)
(1.12694 -0.126608 0)
(1.12075 -0.130976 -1.65447e-27)
(1.11467 -0.134981 3.27089e-27)
(1.10871 -0.138619 -3.58651e-11)
(1.10286 -0.141889 -3.38985e-11)
(1.09712 -0.14479 -1.32665e-27)
(1.09149 -0.147321 2.59684e-27)
(1.08597 -0.149485 0)
(1.28166 0.0100815 0)
(1.27761 -5.39758e-05 0)
(1.27135 -0.0100681 1.27224e-28)
(1.26479 -0.0198626 6.25009e-28)
(1.25829 -0.0292981 0)
(1.25168 -0.0383318 0)
(1.24489 -0.0469668 1.01975e-27)
(1.23795 -0.05521 1.45529e-27)
(1.23094 -0.0630658 9.70034e-28)
(1.22388 -0.0705394 -4.76672e-11)
(1.2168 -0.0776372 -9.25438e-11)
(1.20971 -0.0843652 -4.48332e-11)
(1.20264 -0.0907288 -9.87138e-29)
(1.19559 -0.0967315 -4.18506e-11)
(1.18856 -0.102375 -4.03188e-11)
(1.18158 -0.107662 0)
(1.17464 -0.11259 -8.47022e-29)
(1.16774 -0.117161 0)
(1.16091 -0.121372 -3.40552e-11)
(1.15413 -0.125223 -3.24826e-11)
(1.14742 -0.128715 0)
(1.14079 -0.131846 0)
(1.13425 -0.134619 0)
(1.12779 -0.137037 0)
(1.2929 0.0192215 0)
(1.29066 0.009454 0)
(1.28599 -1.54238e-05 -1.27224e-28)
(1.28106 -0.00918247 -6.25009e-28)
(1.27618 -0.0180319 0)
(1.2711 -0.026559 0)
(1.26572 -0.0347634 -1.01975e-27)
(1.26006 -0.0426442 -1.45529e-27)
(1.25419 -0.0501999 -9.70034e-28)
(1.24813 -0.0574293 4.76672e-11)
(1.2419 -0.0643321 9.25438e-11)
(1.23554 -0.070908 4.48332e-11)
(1.22906 -0.0771565 9.87138e-29)
(1.22249 -0.0830767 4.18506e-11)
(1.21583 -0.0886674 4.03188e-11)
(1.20911 -0.093927 0)
(1.20234 -0.0988536 8.47022e-29)
(1.19554 -0.103445 0)
(1.18872 -0.107701 3.40552e-11)
(1.1819 -0.111618 3.24826e-11)
(1.17508 -0.115197 0)
(1.16829 -0.118438 0)
(1.16154 -0.121341 0)
(1.15484 -0.12391 0)
(1.28963 0.0249635 4.59753e-11)
(1.28879 0.0158452 4.53618e-11)
(1.28556 0.00705229 0)
(1.282 -0.0014186 0)
(1.27843 -0.0096008 0)
(1.27461 -0.0175071 4.32791e-11)
(1.27044 -0.025137 4.26259e-11)
(1.26593 -0.0324884 0)
(1.26114 -0.0395605 0)
(1.2561 -0.0463525 0)
(1.25084 -0.052863 0)
(1.24536 -0.0590904 0)
(1.23969 -0.0650322 0)
(1.23385 -0.0706858 0)
(1.22787 -0.0760485 0)
(1.22176 -0.081117 0)
(1.21553 -0.0858882 0)
(1.20922 -0.090359 0)
(1.20283 -0.0945267 0)
(1.19638 -0.0983889 0)
(1.18989 -0.101944 0)
(1.18338 -0.105191 0)
(1.17686 -0.10813 2.54492e-11)
(1.17035 -0.110762 2.42518e-11)
(1.2784 0.0277568 -4.59764e-11)
(1.2786 0.0195428 -4.53618e-11)
(1.2766 0.0116005 0)
(1.27419 0.00394044 0)
(1.2717 -0.00347879 0)
(1.26892 -0.0106731 -4.32791e-11)
(1.26576 -0.01764 -4.26259e-11)
(1.26224 -0.0243752 0)
(1.25841 -0.0308764 0)
(1.2543 -0.0371419 0)
(1.24992 -0.0431693 0)
(1.2453 -0.0489555 0)
(1.24045 -0.0544972 0)
(1.2354 -0.0597906 0)
(1.23017 -0.0648319 0)
(1.22477 -0.0696168 0)
(1.21922 -0.0741416 0)
(1.21354 -0.0784021 0)
(1.20775 -0.0823949 0)
(1.20186 -0.0861167 0)
(1.1959 -0.089565 0)
(1.18988 -0.092738 0)
(1.18381 -0.0956344 -2.54492e-11)
(1.17772 -0.0982543 -2.42518e-11)
(1.26391 0.0284869 0)
(1.26475 0.0212605 0)
(1.26367 0.0142275 1.6608e-27)
(1.26216 0.00741566 -2.28062e-27)
(1.2605 0.000790072 1.64445e-27)
(1.25854 -0.00566171 0)
(1.25619 -0.0119342 -2.82764e-28)
(1.25349 -0.0180204 0)
(1.25046 -0.0239159 0)
(1.24715 -0.0296173 0)
(1.24355 -0.035121 0)
(1.2397 -0.0404227 0)
(1.23561 -0.045518 0)
(1.23129 -0.0504025 0)
(1.22678 -0.0550714 0)
(1.22207 -0.0595201 0)
(1.2172 -0.0637439 0)
(1.21218 -0.0677384 0)
(1.20703 -0.0714993 0)
(1.20175 -0.0750228 0)
(1.19638 -0.0783057 0)
(1.19092 -0.0813453 1.11075e-27)
(1.18539 -0.0841398 -1.47355e-27)
(1.17981 -0.086688 1.02443e-27)
(1.24888 0.0279309 0)
(1.25005 0.0216504 0)
(1.2496 0.0154972 -1.6608e-27)
(1.24874 0.0095074 2.28062e-27)
(1.2477 0.00365513 -1.64445e-27)
(1.24635 -0.00206775 0)
(1.24464 -0.0076537 2.82764e-28)
(1.24258 -0.013094 0)
(1.24021 -0.0183825 0)
(1.23755 -0.0235146 0)
(1.23461 -0.0284853 0)
(1.23141 -0.0332897 0)
(1.22797 -0.0379226 0)
(1.22431 -0.0423787 0)
(1.22044 -0.0466529 0)
(1.21637 -0.05074 0)
(1.21213 -0.0546348 0)
(1.20772 -0.0583324 0)
(1.20317 -0.0618282 0)
(1.19849 -0.0651178 0)
(1.19369 -0.0681976 0)
(1.18879 -0.0710642 -1.11075e-27)
(1.18381 -0.0737151 1.47355e-27)
(1.17875 -0.0761486 -1.02443e-27)
(1.23463 0.0266122 0)
(1.23595 0.0211913 -2.89794e-11)
(1.23593 0.0158498 -2.92313e-11)
(1.23552 0.0106244 2.93153e-11)
(1.23492 0.00549663 6.09782e-28)
(1.23403 0.000462163 -2.93927e-11)
(1.2328 -0.00447052 -1.61882e-27)
(1.23124 -0.00929189 -4.09375e-28)
(1.22939 -0.013995 -1.59851e-27)
(1.22725 -0.0185742 -4.02322e-28)
(1.22485 -0.0230239 -2.44812e-27)
(1.2222 -0.0273385 0)
(1.21931 -0.0315123 1.14101e-27)
(1.21621 -0.0355396 0)
(1.21289 -0.0394149 2.64597e-11)
(1.20938 -0.0431326 1.1185e-27)
(1.20569 -0.0466874 -2.52835e-11)
(1.20184 -0.0500739 0)
(1.19783 -0.0532872 -2.39909e-11)
(1.19368 -0.0563227 -2.33106e-11)
(1.18941 -0.0591763 1.95394e-27)
(1.18503 -0.0618444 0)
(1.18055 -0.0643239 -1.82981e-27)
(1.17599 -0.0666126 0)
(1.22171 0.0248557 0)
(1.22308 0.0201994 2.89794e-11)
(1.22334 0.0155894 2.92313e-11)
(1.22326 0.0110592 -2.93153e-11)
(1.22298 0.00659585 -6.09782e-28)
(1.22242 0.00219758 2.93927e-11)
(1.22155 -0.00212696 1.61882e-27)
(1.22038 -0.00636804 4.09375e-28)
(1.21894 -0.0105187 1.59851e-27)
(1.21723 -0.0145728 4.02322e-28)
(1.21526 -0.0185244 2.44812e-27)
(1.21306 -0.0223675 0)
(1.21064 -0.0260964 -1.14101e-27)
(1.20799 -0.029705 0)
(1.20515 -0.0331877 -2.64597e-11)
(1.20211 -0.0365388 -1.1185e-27)
(1.1989 -0.0397526 2.52835e-11)
(1.19552 -0.0428239 0)
(1.19199 -0.0457475 2.39909e-11)
(1.18832 -0.0485187 2.33106e-11)
(1.18452 -0.0511331 -1.95394e-27)
(1.1806 -0.0535868 0)
(1.17658 -0.0558767 1.82981e-27)
(1.17246 -0.0580002 0)
(1.21024 0.0228475 0)
(1.2116 0.0188661 0)
(1.21206 0.0149092 1.00416e-27)
(1.21222 0.0110056 0)
(1.21217 0.00714599 0)
(1.21187 0.00333026 0)
(1.21129 -0.00043326 0)
(1.21043 -0.00413614 0)
(1.20931 -0.00777102 -1.36995e-27)
(1.20794 -0.0113317 0)
(1.20634 -0.0148124 2.12033e-27)
(1.20451 -0.018207 0)
(1.20246 -0.0215098 0)
(1.20021 -0.0247148 -2.05156e-27)
(1.19776 -0.0278163 0)
(1.19513 -0.0308087 1.98749e-27)
(1.19232 -0.0336865 -9.37191e-28)
(1.18935 -0.0364441 0)
(1.18623 -0.0390767 0)
(1.18297 -0.0415793 0)
(1.17958 -0.0439477 1.78063e-27)
(1.17606 -0.0461778 0)
(1.17244 -0.0482664 0)
(1.16872 -0.0502106 0)
(1.20019 0.0206854 0)
(1.20152 0.0173011 0)
(1.20213 0.0139273 -1.00416e-27)
(1.20246 0.0105879 0)
(1.2026 0.00727607 0)
(1.2025 0.00399243 0)
(1.20214 0.00074447 0)
(1.20152 -0.00246025 0)
(1.20067 -0.00561487 1.36995e-27)
(1.19958 -0.0087135 0)
(1.19827 -0.0117505 -2.12033e-27)
(1.19675 -0.01472 0)
(1.19503 -0.0176166 0)
(1.1931 -0.0204344 2.05156e-27)
(1.19099 -0.023168 0)
(1.1887 -0.0258118 -1.98749e-27)
(1.18624 -0.0283606 9.37191e-28)
(1.18362 -0.030809 0)
(1.18085 -0.0331522 0)
(1.17794 -0.0353855 0)
(1.17489 -0.0375046 -1.78063e-27)
(1.17173 -0.0395056 0)
(1.16845 -0.0413853 0)
(1.16507 -0.0431407 0)
(1.19146 0.0184207 0)
(1.19277 0.0155683 0)