/*--------------------------------*- C++ -*----------------------------------*\
  =========                 |
  \\      /  F ield         | OpenFOAM: The Open Source CFD Toolbox
   \\    /   O peration     | Website:  https://openfoam.org
    \\  /    A nd           | Version:  7
     \\/     M anipulation  |
\*---------------------------------------------------------------------------*/
FoamFile
{
    version     2.0;
    format      ascii;
    class       surfaceScalarField;
    location    "35.001";
    object      phi;
}
// * * * * * * * * * * * * * * * * * * * * * * * * * * * * * * * * * * * * * //

dimensions      [0 3 -1 0 0 0 0];

internalField   nonuniform List<scalar> 
22580
(
0.000231632
0.00569371
0.000222795
0.00568744
0.000214015
0.0056814
0.000205293
0.0056756
0.000196626
0.00567004
0.000188013
0.0056647
0.000179451
0.00565961
0.00017094
0.00565474
0.000162477
0.0056501
0.00015406
0.00564569
0.000145687
0.00564151
0.000137357
0.00563755
0.000129067
0.00563382
0.000120814
0.00563032
0.000112598
0.00562703
0.000104414
0.00562397
9.62622e-05
0.00562114
8.81389e-05
0.00561852
8.00421e-05
0.00561612
7.19694e-05
0.00561394
6.39184e-05
0.00561199
5.58866e-05
0.00561025
4.78716e-05
0.00560872
3.98707e-05
0.00560742
3.18814e-05
0.00560633
2.39015e-05
0.00560547
1.59291e-05
0.00560482
7.9627e-06
0.0056044
0.00560419
0.00057084
0.00594069
-0.000539065
0.000593556
0.00609107
0.000607501
0.00618323
0.000614251
0.00623215
0.000615905
0.00625254
0.00061428
0.00625579
0.000610631
0.00624939
0.000605722
0.0062378
0.000599992
0.00622349
0.000593685
0.00620776
0.000586929
0.00619126
0.000579795
0.00617432
0.000572324
0.00615713
0.00056455
0.00613982
0.000556506
0.00612254
0.000548229
0.00610544
0.000539753
0.00608864
0.000531112
0.00607222
0.000522334
0.00605623
0.000513443
0.00604069
0.000504455
0.00602558
0.000495385
0.00601088
0.000486243
0.00599656
0.00047704
0.00598258
0.000467784
0.00596892
0.000458486
0.00595556
0.000449155
0.00594249
0.0004398
0.0059297
0.000430429
0.00591719
0.000421051
0.00590495
0.000411674
0.00589298
0.000402305
0.00588129
0.00039295
0.00586986
0.000383615
0.0058587
0.000374305
0.00584781
0.000365026
0.00583719
0.000355781
0.00582683
0.000346575
0.00581673
0.000337409
0.0058069
0.000328288
0.00579733
0.000319212
0.00578801
0.000310185
0.00577896
0.000301208
0.00577016
0.000292282
0.00576161
0.000283408
0.00575332
0.000274586
0.00574528
0.000265818
0.00573749
0.000257103
0.00572994
0.000248442
0.00572265
0.000239833
0.00571559
0.000231277
0.00570879
0.000222773
0.00570222
0.00021432
0.00569589
0.000205918
0.0056898
0.000197565
0.00568395
0.00018926
0.00567834
0.000181002
0.00567296
0.000172789
0.00566782
0.000164621
0.00566291
0.000156495
0.00565823
0.000148409
0.00565377
0.000140363
0.00564955
0.000132354
0.00564556
0.000124381
0.00564179
0.000116441
0.00563826
0.000108533
0.00563494
0.000100655
0.00563185
9.28043e-05
0.00562899
8.49797e-05
0.00562634
7.71787e-05
0.00562392
6.93993e-05
0.00562172
6.16393e-05
0.00561975
5.38966e-05
0.00561799
4.61689e-05
0.00561645
3.8454e-05
0.00561513
3.07495e-05
0.00561404
2.30534e-05
0.00561316
1.53643e-05
0.00561251
7.68051e-06
0.00561208
0.00561187
0.000526075
0.00590894
-0.00049432
0.000549406
0.00606774
0.000564496
0.00616814
0.000572607
0.00622404
0.00057557
0.00624958
0.000575102
0.00625626
0.000572467
0.00625203
0.000568479
0.00624179
0.000563616
0.00622835
0.000558149
0.00621323
0.000552224
0.00619719
0.000545918
0.00618063
0.000539278
0.00616377
0.000532335
0.00614676
0.000525122
0.00612976
0.000517671
0.00611289
0.000510015
0.00609629
0.000502186
0.00608004
0.000494209
0.0060642
0.000486108
0.00604879
0.000477899
0.00603379
0.000469595
0.00601918
0.000461208
0.00600494
0.000452746
0.00599104
0.00044422
0.00597744
0.000435637
0.00596414
0.000427007
0.00595112
0.000418338
0.00593837
0.00040964
0.00592589
0.00040092
0.00591367
0.000392186
0.00590172
0.000383445
0.00589003
0.000374704
0.0058786
0.000365969
0.00586744
0.000357245
0.00585654
0.000348537
0.0058459
0.00033985
0.00583552
0.000331188
0.0058254
0.000322554
0.00581553
0.000313951
0.00580593
0.000305382
0.00579658
0.00029685
0.00578749
0.000288355
0.00577865
0.000279901
0.00577007
0.000271487
0.00576173
0.000263116
0.00575365
0.000254788
0.00574582
0.000246503
0.00573823
0.000238262
0.00573089
0.000230065
0.00572379
0.000221912
0.00571694
0.000213803
0.00571033
0.000205737
0.00570396
0.000197714
0.00569783
0.000189732
0.00569194
0.000181792
0.00568628
0.000173892
0.00568086
0.000166032
0.00567568
0.000158209
0.00567073
0.000150424
0.00566601
0.000142673
0.00566152
0.000134957
0.00565727
0.000127274
0.00565324
0.000119621
0.00564945
0.000111999
0.00564588
0.000104404
0.00564254
9.6835e-05
0.00563942
8.92907e-05
0.00563653
8.17692e-05
0.00563386
7.42686e-05
0.00563142
6.67871e-05
0.00562921
5.93229e-05
0.00562721
5.18739e-05
0.00562544
4.44382e-05
0.00562389
3.70138e-05
0.00562256
2.95988e-05
0.00562145
2.21914e-05
0.00562057
1.47902e-05
0.00561991
7.39367e-06
0.00561948
0.00561926
0.000482799
0.00587742
-0.000451284
0.000506541
0.006044
0.000522565
0.00615212
0.000531875
0.00621473
0.000536056
0.0062454
0.000536699
0.00625562
0.000535052
0.00625367
0.000531959
0.00624488
0.000527935
0.00623238
0.000523275
0.00621789
0.000518143
0.00620232
0.000512626
0.00618615
0.000506775
0.00616962
0.000500623
0.00615291
0.0004942
0.00613618
0.000487536
0.00611956
0.000480662
0.00610317
0.000473607
0.0060871
0.000466396
0.00607141
0.000459052
0.00605613
0.000451589
0.00604125
0.000444021
0.00602675
0.00043636
0.00601261
0.000428613
0.00599879
0.000420789
0.00598527
0.000412897
0.00597203
0.000404946
0.00595907
0.000396944
0.00594637
0.000388899
0.00593393
0.000380819
0.00592175
0.000372713
0.00590983
0.000364586
0.00589816
0.000356445
0.00588674
0.000348298
0.00587559
0.000340149
0.00586469
0.000332003
0.00585404
0.000323866
0.00584365
0.00031574
0.00583352
0.000307631
0.00582364
0.000299541
0.00581402
0.000291474
0.00580465
0.000283432
0.00579553
0.000275416
0.00578667
0.00026743
0.00577805
0.000259475
0.00576969
0.000251552
0.00576157
0.000243663
0.00575371
0.000235807
0.00574608
0.000227987
0.00573871
0.000220202
0.00573158
0.000212453
0.00572469
0.000204739
0.00571804
0.000197061
0.00571164
0.000189418
0.00570547
0.000181811
0.00569954
0.000174238
0.00569385
0.000166698
0.0056884
0.000159192
0.00568318
0.000151719
0.0056782
0.000144276
0.00567345
0.000136864
0.00566894
0.000129481
0.00566465
0.000122127
0.0056606
0.000114799
0.00565677
0.000107496
0.00565318
0.000100218
0.00564981
9.29625e-05
0.00564668
8.57282e-05
0.00564376
7.85137e-05
0.00564108
7.13175e-05
0.00563862
6.41379e-05
0.00563638
5.69734e-05
0.00563437
4.98222e-05
0.00563259
4.26827e-05
0.00563103
3.5553e-05
0.00562969
2.84316e-05
0.00562857
2.13169e-05
0.00562769
1.42077e-05
0.00562702
7.10264e-06
0.00562659
0.00562637
0.000441
0.00584634
-0.000409917
0.000464964
0.00602003
0.000481728
0.00613535
0.000492076
0.00620438
0.000497368
0.00624011
0.00049906
0.00625392
0.000498365
0.00625437
0.000496139
0.00624711
0.000492924
0.00623559
0.00048904
0.00622177
0.000484669
0.00620669
0.000479906
0.00619091
0.000474808
0.00617472
0.000469409
0.00615831
0.00046374
0.00614185
0.000457827
0.00612547
0.0004517
0.00610929
0.000445386
0.00609341
0.000438909
0.00607789
0.000432289
0.00606275
0.000425543
0.006048
0.000418683
0.00603361
0.00041172
0.00601957
0.000404662
0.00600584
0.000397517
0.00599241
0.000390294
0.00597926
0.000383
0.00596636
0.000375645
0.00595373
0.000368235
0.00594134
0.000360778
0.00592921
0.000353283
0.00591732
0.000345755
0.00590568
0.000338202
0.0058943
0.00033063
0.00588316
0.000323045
0.00587227
0.000315451
0.00586164
0.000307854
0.00585125
0.000300258
0.00584112
0.000292666
0.00583124
0.000285083
0.0058216
0.000277511
0.00581222
0.000269954
0.00580309
0.000262414
0.00579421
0.000254893
0.00578557
0.000247393
0.00577719
0.000239917
0.00576905
0.000232464
0.00576116
0.000225037
0.00575351
0.000217636
0.00574611
0.000210262
0.00573895
0.000202916
0.00573203
0.000195598
0.00572536
0.000188309
0.00571893
0.000181047
0.00571273
0.000173815
0.00570678
0.00016661
0.00570106
0.000159433
0.00569558
0.000152283
0.00569033
0.00014516
0.00568533
0.000138064
0.00568055
0.000130992
0.00567601
0.000123945
0.0056717
0.000116922
0.00566762
0.000109921
0.00566378
0.000102942
0.00566016
9.59835e-05
0.00565677
8.90443e-05
0.00565362
8.21232e-05
0.00565069
7.5219e-05
0.00564798
6.83305e-05
0.00564551
6.14563e-05
0.00564326
5.4595e-05
0.00564124
4.77451e-05
0.00563944
4.09053e-05
0.00563787
3.4074e-05
0.00563652
2.72498e-05
0.0056354
2.04314e-05
0.0056345
1.36179e-05
0.00563384
6.80791e-06
0.0056334
0.00563318
0.000400626
0.00581585
-0.000370135
0.000424644
0.00599601
0.000441976
0.00611802
0.000453211
0.00619315
0.000459506
0.00623381
0.000462182
0.00625125
0.000462397
0.00625415
0.000461005
0.0062485
0.00045857
0.00623803
0.000455433
0.00622491
0.00045179
0.00621034
0.00044775
0.00619495
0.000443372
0.00617909
0.000438693
0.00616299
0.000433743
0.0061468
0.000428549
0.00613066
0.000423137
0.00611471
0.000417533
0.00609902
0.000411759
0.00608366
0.000405836
0.00606867
0.000399779
0.00605405
0.0003936
0.00603979
0.00038731
0.00602586
0.000380916
0.00601224
0.000374427
0.0059989
0.000367851
0.00598583
0.000361194
0.00597302
0.000354465
0.00596046
0.000347672
0.00594814
0.000340822
0.00593606
0.000333922
0.00592422
0.00032698
0.00591263
0.000320001
0.00590128
0.000312992
0.00589017
0.000305959
0.00587931
0.000298907
0.00586869
0.000291841
0.00585832
0.000284765
0.00584819
0.000277683
0.00583832
0.0002706
0.00582869
0.000263518
0.0058193
0.000256441
0.00581017
0.000249371
0.00580128
0.000242311
0.00579263
0.000235263
0.00578424
0.000228229
0.00577608
0.00022121
0.00576818
0.000214209
0.00576051
0.000207226
0.00575309
0.000200263
0.00574591
0.000193319
0.00573898
0.000186397
0.00573228
0.000179495
0.00572583
0.000172616
0.00571961
0.000165758
0.00571363
0.000158923
0.00570789
0.000152109
0.00570239
0.000145317
0.00569713
0.000138546
0.0056921
0.000131796
0.0056873
0.000125067
0.00568274
0.000118358
0.00567841
0.000111668
0.00567431
0.000104997
0.00567045
9.83439e-05
0.00566681
9.17075e-05
0.00566341
8.50872e-05
0.00566024
7.8482e-05
0.00565729
7.18909e-05
0.00565457
6.53129e-05
0.00565209
5.8747e-05
0.00564983
5.21918e-05
0.00564779
4.56463e-05
0.00564598
3.91092e-05
0.0056444
3.25793e-05
0.00564305
2.60554e-05
0.00564192
1.95366e-05
0.00564102
1.30218e-05
0.00564035
6.51001e-06
0.00563991
0.00563969
0.00036161
0.00578608
-0.000331846
0.000385536
0.00597209
0.000403283
0.00610027
0.000415268
0.00618116
0.000422464
0.00622661
0.000426056
0.00624765
0.000427136
0.00625307
0.000426546
0.00624909
0.000424862
0.00623971
0.000422444
0.00622733
0.000419502
0.00621328
0.000416154
0.0061983
0.000412465
0.00618278
0.000408476
0.00616698
0.000404215
0.00615106
0.000399709
0.00613517
0.000394982
0.00611943
0.000390058
0.00610394
0.000384961
0.00608876
0.000379707
0.00607393
0.000374313
0.00605945
0.00036879
0.00604531
0.000363148
0.0060315
0.000357396
0.00601799
0.000351541
0.00600476
0.00034559
0.00599178
0.00033955
0.00597906
0.00033343
0.00596658
0.000327236
0.00595433
0.000320976
0.00594232
0.000314656
0.00593054
0.000308284
0.005919
0.000301866
0.00590769
0.000295408
0.00589663
0.000288916
0.0058858
0.000282395
0.00587521
0.00027585
0.00586486
0.000269285
0.00585476
0.000262706
0.0058449
0.000256115
0.00583528
0.000249516
0.0058259
0.000242913
0.00581677
0.000236308
0.00580788
0.000229704
0.00579924
0.000223103
0.00579084
0.000216509
0.00578268
0.000209921
0.00577476
0.000203343
0.00576709
0.000196776
0.00575966
0.000190221
0.00575247
0.000183679
0.00574552
0.00017715
0.00573881
0.000170637
0.00573234
0.000164138
0.00572611
0.000157656
0.00572012
0.000151189
0.00571436
0.000144739
0.00570884
0.000138305
0.00570356
0.000131887
0.00569851
0.000125486
0.0056937
0.0001191
0.00568912
0.00011273
0.00568478
0.000106376
0.00568067
0.000100036
0.00567679
9.37098e-05
0.00567314
8.73975e-05
0.00566972
8.10981e-05
0.00566653
7.48109e-05
0.00566358
6.85351e-05
0.00566085
6.227e-05
0.00565835
5.60146e-05
0.00565608
4.9768e-05
0.00565404
4.35293e-05
0.00565222
3.72975e-05
0.00565063
3.10716e-05
0.00564927
2.48506e-05
0.00564814
1.86338e-05
0.00564724
1.24203e-05
0.00564657
6.20945e-06
0.00564612
0.00564589
0.000323883
0.00575716
-0.000294958
0.00034759
0.00594838
0.000365619
0.00608224
0.00037823
0.00616855
0.000386229
0.00621862
0.000390669
0.00624321
0.00039257
0.00625117
0.000392751
0.00624891
0.000391792
0.00624067
0.000390067
0.00622905
0.000387798
0.00621555
0.000385114
0.00620098
0.000382087
0.00618581
0.000378758
0.00617031
0.000375158
0.00615466
0.000371311
0.00613902
0.000367242
0.0061235
0.000362972
0.00610821
0.000358524
0.00609321
0.000353914
0.00607854
0.000349159
0.0060642
0.000344268
0.0060502
0.000339252
0.00603652
0.00033412
0.00602312
0.000328877
0.00601
0.000323532
0.00599713
0.00031809
0.0059845
0.00031256
0.00597211
0.000306948
0.00595994
0.000301262
0.005948
0.000295507
0.00593629
0.000289692
0.00592481
0.000283821
0.00591356
0.000277901
0.00590255
0.000271938
0.00589176
0.000265938
0.00588121
0.000259904
0.0058709
0.000253842
0.00586082
0.000247755
0.00585098
0.000241649
0.00584138
0.000235526
0.00583203
0.00022939
0.00582291
0.000223244
0.00581403
0.000217092
0.00580539
0.000210934
0.00579699
0.000204774
0.00578884
0.000198615
0.00578092
0.000192457
0.00577325
0.000186302
0.00576581
0.000180153
0.00575862
0.00017401
0.00575166
0.000167874
0.00574495
0.000161746
0.00573847
0.000155628
0.00573223
0.00014952
0.00572622
0.000143422
0.00572046
0.000137335
0.00571493
0.00013126
0.00570964
0.000125195
0.00570458
0.000119142
0.00569975
0.000113101
0.00569516
0.000107071
0.00569081
0.000101052
0.00568669
9.50445e-05
0.00568279
8.90473e-05
0.00567914
8.30605e-05
0.00567571
7.70836e-05
0.00567251
7.1116e-05
0.00566955
6.51572e-05
0.00566681
5.92066e-05
0.0056643
5.32637e-05
0.00566202
4.73276e-05
0.00565997
4.13977e-05
0.00565815
3.54732e-05
0.00565656
2.95533e-05
0.00565519
2.36373e-05
0.00565406
1.77246e-05
0.00565315
1.18146e-05
0.00565248
5.90672e-06
0.00565203
0.0056518
0.000287386
0.00572916
-0.000259385
0.000310764
0.005925
0.000328955
0.00606405
0.000342079
0.00615543
0.000350789
0.00620991
0.000356011
0.00623799
0.000358688
0.0062485
0.000359608
0.00624799
0.000359348
0.00624093
0.00035829
0.00623011
0.000356671
0.00621717
0.000354627
0.00620303
0.000352234
0.0061882
0.00034954
0.006173
0.000346574
0.00615763
0.00034336
0.00614223
0.000339923
0.00612694
0.000336282
0.00611185
0.000332459
0.00609703
0.00032847
0.00608253
0.000324329
0.00606835
0.000320048
0.00605449
0.000315637
0.00604093
0.000311103
0.00602766
0.000306453
0.00601465
0.000301694
0.00600189
0.000296832
0.00598936
0.000291875
0.00597706
0.000286829
0.00596499
0.0002817
0.00595313
0.000276496
0.0059415
0.000271222
0.00593009
0.000265886
0.0059189
0.000260492
0.00590794
0.000255047
0.00589721
0.000249555
0.0058867
0.000244023
0.00587643
0.000238453
0.00586639
0.000232852
0.00585658
0.000227222
0.00584701
0.000221568
0.00583768
0.000215893
0.00582858
0.0002102
0.00581972
0.000204492
0.0058111
0.000198773
0.00580271
0.000193043
0.00579457
0.000187307
0.00578666
0.000181565
0.00577899
0.00017582
0.00577156
0.000170074
0.00576437
0.000164327
0.00575741
0.000158582
0.00575069
0.000152839
0.00574421
0.000147099
0.00573797
0.000141364
0.00573196
0.000135634
0.00572619
0.000129909
0.00572065
0.000124191
0.00571535
0.00011848
0.00571029
0.000112776
0.00570546
0.000107079
0.00570086
0.000101389
0.0056965
9.57065e-05
0.00569237
9.00316e-05
0.00568847
8.4364e-05
0.0056848
7.87035e-05
0.00568137
7.30499e-05
0.00567817
6.7403e-05
0.00567519
6.17624e-05
0.00567245
5.61277e-05
0.00566994
5.04985e-05
0.00566765
4.48744e-05
0.0056656
3.92548e-05
0.00566377
3.3639e-05
0.00566217
2.80267e-05
0.00566081
2.24173e-05
0.00565967
1.68104e-05
0.00565876
1.12056e-05
0.00565808
5.60232e-06
0.00565763
0.0056574
0.000252054
0.00570215
-0.000225044
0.000275013
0.00590204
0.000293263
0.0060458
0.000306798
0.00614189
0.000316132
0.00620057
0.000322072
0.00623205
0.00032548
0.00624509
0.000327106
0.00624636
0.000327519
0.00624052
0.000327107
0.00623052
0.000326114
0.00621816
0.000324686
0.00620445
0.000322905
0.00618998
0.00032082
0.00617509
0.000318464
0.00615998
0.00031586
0.00614484
0.00031303
0.00612977
0.000309995
0.00611489
0.000306773
0.00610026
0.000303382
0.00608592
0.000299835
0.00607189
0.000296143
0.00605818
0.000292315
0.00604476
0.00028836
0.00603161
0.000284284
0.00601873
0.000280092
0.00600608
0.000275793
0.00599366
0.000271391
0.00598147
0.000266894
0.00596949
0.000262308
0.00595772
0.000257639
0.00594617
0.000252894
0.00593483
0.000248079
0.00592372
0.000243199
0.00591282
0.00023826
0.00590214
0.000233267
0.00589169
0.000228225
0.00588147
0.000223139
0.00587148
0.000218014
0.00586171
0.000212852
0.00585218
0.000207659
0.00584287
0.000202438
0.0058338
0.000197191
0.00582497
0.000191923
0.00581637
0.000186635
0.005808
0.000181332
0.00579987
0.000176014
0.00579198
0.000170684
0.00578432
0.000165345
0.0057769
0.000159998
0.00576971
0.000154645
0.00576276
0.000149287
0.00575605
0.000143926
0.00574957
0.000138563
0.00574333
0.000133199
0.00573732
0.000127835
0.00573155
0.000122472
0.00572602
0.000117111
0.00572072
0.000111752
0.00571565
0.000106395
0.00571081
0.000101042
0.00570621
9.56925e-05
0.00570185
9.03466e-05
0.00569771
8.50046e-05
0.00569381
7.96667e-05
0.00569014
7.4333e-05
0.0056867
6.90033e-05
0.00568349
6.36777e-05
0.00568052
5.83559e-05
0.00567777
5.30379e-05
0.00567525
4.77234e-05
0.00567297
4.24121e-05
0.00567091
3.71037e-05
0.00566908
3.17979e-05
0.00566748
2.64943e-05
0.00566611
2.11926e-05
0.00566497
1.58926e-05
0.00566406
1.05941e-05
0.00566338
5.29669e-06
0.00566293
0.0056627
0.000217833
0.00567618
-0.000191861
0.000240295
0.00587958
0.000258513
0.00602758
0.000272369
0.00612803
0.000282248
0.00619069
0.000288844
0.00622546
0.000292938
0.00624099
0.000295238
0.00624406
0.000296299
0.00623946
0.00029651
0.00623031
0.000296122
0.00621855
0.000295288
0.00620529
0.000294096
0.00619117
0.000292598
0.00617658
0.000290828
0.00616175
0.000288811
0.00614685
0.000286566
0.00613201
0.000284114
0.00611734
0.000281473
0.0061029
0.000278659
0.00608873
0.000275684
0.00607487
0.000272561
0.0060613
0.000269298
0.00604802
0.000265903
0.00603501
0.000262382
0.00602225
0.000258741
0.00600972
0.000254986
0.00599742
0.000251124
0.00598533
0.00024716
0.00597345
0.000243102
0.00596178
0.000238955
0.00595032
0.000234724
0.00593906
0.000230417
0.00592802
0.000226039
0.0059172
0.000221594
0.00590659
0.000217089
0.0058962
0.000212528
0.00588603
0.000207916
0.00587609
0.000203258
0.00586637
0.000198556
0.00585688
0.000193816
0.00584761
0.000189041
0.00583858
0.000184234
0.00582978
0.000179399
0.0058212
0.000174538
0.00581286
0.000169654
0.00580476
0.00016475
0.00579688
0.000159828
0.00578924
0.00015489
0.00578184
0.000149939
0.00577466
0.000144976
0.00576773
0.000140003
0.00576102
0.000135021
0.00575455
0.000130032
0.00574832
0.000125037
0.00574232
0.000120038
0.00573655
0.000115034
0.00573102
0.000110028
0.00572572
0.00010502
0.00572066
0.000100011
0.00571582
9.50003e-05
0.00571122
8.999e-05
0.00570686
8.498e-05
0.00570272
7.99707e-05
0.00569882
7.49623e-05
0.00569515
6.99552e-05
0.00569171
6.49495e-05
0.0056885
5.99453e-05
0.00568552
5.49426e-05
0.00568277
4.99416e-05
0.00568026
4.49422e-05
0.00567797
3.99443e-05
0.00567591
3.49477e-05
0.00567408
2.99524e-05
0.00567248
2.49581e-05
0.0056711
1.99647e-05
0.00566996
1.49725e-05
0.00566905
9.981e-06
0.00566837
4.99027e-06
0.00566792
0.00566769
0.000184659
0.00565128
-0.000159757
0.000206567
0.00585767
0.000224678
0.00600947
0.000238775
0.00611394
0.000249127
0.00618034
0.000256319
0.00621826
0.000261055
0.00623626
0.000263997
0.00624112
0.000265681
0.00623777
0.000266493
0.0062295
0.000266689
0.00621835
0.000266428
0.00620555
0.000265804
0.0061918
0.000264873
0.00617752
0.000263668
0.00616296
0.000262215
0.00614831
0.000260535
0.0061337
0.000258645
0.00611923
0.000256564
0.00610498
0.000254306
0.00609099
0.000251886
0.00607729
0.000249313
0.00606387
0.000246596
0.00605074
0.000243742
0.00603786
0.000240758
0.00602523
0.000237651
0.00601283
0.000234425
0.00600064
0.000231087
0.00598867
0.000227642
0.00597689
0.000224096
0.00596532
0.000220457
0.00595396
0.000216728
0.00594279
0.000212916
0.00593183
0.000209027
0.00592109
0.000205066
0.00591055
0.000201038
0.00590023
0.000196948
0.00589012
0.0001928
0.00588024
0.0001886
0.00587057
0.00018435
0.00586113
0.000180055
0.00585191
0.000175718
0.00584292
0.000171344
0.00583415
0.000166935
0.00582561
0.000162494
0.0058173
0.000158025
0.00580923
0.000153529
0.00580138
0.00014901
0.00579376
0.00014447
0.00578638
0.00013991
0.00577922
0.000135333
0.0057723
0.000130741
0.00576561
0.000126135
0.00575916
0.000121517
0.00575294
0.000116889
0.00574695
0.000112251
0.00574119
0.000107605
0.00573567
0.000102953
0.00573037
9.82937e-05
0.00572532
9.36296e-05
0.00572049
8.89613e-05
0.00571589
8.42892e-05
0.00571153
7.96142e-05
0.0057074
7.49367e-05
0.0057035
7.02572e-05
0.00569983
6.55762e-05
0.00569639
6.0894e-05
0.00569318
5.6211e-05
0.00569021
5.15273e-05
0.00568746
4.68432e-05
0.00568494
4.21588e-05
0.00568265
3.74743e-05
0.00568059
3.27897e-05
0.00567876
2.8105e-05
0.00567716
2.34204e-05
0.00567579
1.87359e-05
0.00567465
1.40514e-05
0.00567374
9.36726e-06
0.00567305
4.68351e-06
0.0056726
0.00567237
0.000152488
0.00562746
-0.000128672
0.000173792
0.00583637
0.000191734
0.00599153
0.000206002
0.00609967
0.000216759
0.00616958
0.000224492
0.00621053
0.000229827
0.00623092
0.000233378
0.00623757
0.000235659
0.00623549
0.00023705
0.00622811
0.000237811
0.00621759
0.000238104
0.00620526
0.000238028
0.00619187
0.000237643
0.0061779
0.000236983
0.00616362
0.000236075
0.00614921
0.000234938
0.00613483
0.000233591
0.00612057
0.000232051
0.00610652
0.000230332
0.00609271
0.000228446
0.00607917
0.000226404
0.00606591
0.000224216
0.00605293
0.000221887
0.00604019
0.000219425
0.00602769
0.000216834
0.00601542
0.000214121
0.00600336
0.000211291
0.0059915
0.000208351
0.00597983
0.000205304
0.00596837
0.000202159
0.0059571
0.000198919
0.00594603
0.00019559
0.00593516
0.000192179
0.0059245
0.00018869
0.00591404
0.000185129
0.00590379
0.000181499
0.00589375
0.000177806
0.00588393
0.000174054
0.00587432
0.000170247
0.00586493
0.000166389
0.00585577
0.000162483
0.00584682
0.000158534
0.0058381
0.000154545
0.0058296
0.000150518
0.00582133
0.000146457
0.00581329
0.000142365
0.00580547
0.000138243
0.00579788
0.000134095
0.00579052
0.000129922
0.0057834
0.000125727
0.0057765
0.000121513
0.00576983
0.000117279
0.00576339
0.000113029
0.00575719
0.000108764
0.00575121
0.000104486
0.00574547
0.000100195
0.00573996
9.58932e-05
0.00573468
9.15816e-05
0.00572963
8.72611e-05
0.00572481
8.29328e-05
0.00572022
7.85975e-05
0.00571587
7.42561e-05
0.00571174
6.99092e-05
0.00570785
6.55576e-05
0.00570418
6.12018e-05
0.00570075
5.68423e-05
0.00569754
5.24796e-05
0.00569457
4.81144e-05
0.00569182
4.37467e-05
0.00568931
3.9377e-05
0.00568702
3.50055e-05
0.00568496
3.06326e-05
0.00568313
2.62584e-05
0.00568153
2.18831e-05
0.00568016
1.7507e-05
0.00567902
1.31305e-05
0.00567811
8.75365e-06
0.00567743
4.3768e-06
0.00567698
0.00567675
0.000121251
0.00560474
-9.85317e-05
0.00014193
0.00581569
0.000159661
0.0059738
0.000174043
0.00608529
0.000185144
0.00615848
0.000193362
0.00620231
0.000199252
0.00622503
0.000203379
0.00623344
0.000206231
0.00623264
0.000208179
0.00622616
0.000209484
0.00621629
0.000210312
0.00620443
0.000210766
0.00619142
0.000210907
0.00617776
0.000210773
0.00616375
0.000210391
0.0061496
0.000209779
0.00613544
0.000208956
0.0061214
0.000207938
0.00610754
0.000206739
0.00609391
0.000205371
0.00608054
0.000203844
0.00606744
0.000202167
0.0060546
0.000200346
0.00604201
0.000198389
0.00602965
0.0001963
0.00601751
0.000194085
0.00600557
0.000191749
0.00599383
0.000189298
0.00598229
0.000186738
0.00597093
0.000184073
0.00595977
0.000181309
0.0059488
0.000178452
0.00593802
0.000175507
0.00592744
0.000172479
0.00591707
0.000169373
0.0059069
0.000166194
0.00589693
0.000162946
0.00588718
0.000159633
0.00587763
0.00015626
0.00586831
0.000152831
0.0058592
0.000149349
0.0058503
0.000145818
0.00584163
0.000142241
0.00583318
0.000138622
0.00582495
0.000134963
0.00581695
0.000131268
0.00580917
0.000127538
0.00580161
0.000123777
0.00579429
0.000119987
0.00578719
0.00011617
0.00578031
0.000112328
0.00577367
0.000108464
0.00576726
0.000104578
0.00576107
0.000100673
0.00575512
9.67507e-05
0.00574939
9.2812e-05
0.0057439
8.88586e-05
0.00573863
8.48917e-05
0.00573359
8.09125e-05
0.00572879
7.69222e-05
0.00572421
7.29218e-05
0.00571987
6.89123e-05
0.00571575
6.48945e-05
0.00571186
6.08692e-05
0.00570821
5.68373e-05
0.00570478
5.27994e-05
0.00570158
4.87561e-05
0.00569861
4.47082e-05
0.00569587
4.0656e-05
0.00569336
3.66002e-05
0.00569108
3.2541e-05
0.00568902
2.84791e-05
0.0056872
2.44147e-05
0.0056856
2.03482e-05
0.00568423
1.62802e-05
0.00568309
1.22109e-05
0.00568218
8.14094e-06
0.0056815
4.07054e-06
0.00568105
0.00568082
9.092e-05
0.00558312
-6.93022e-05
0.000110968
0.00579564
0.000128455
0.00595631
0.000142892
0.00607085
0.000154274
0.0061471
0.000162924
0.00619366
0.000169326
0.00621863
0.000173995
0.00622877
0.000177392
0.00622925
0.000179876
0.00622368
0.000181706
0.00621446
0.00018305
0.00620308
0.000184015
0.00619046
0.000184664
0.00617711
0.000185038
0.00616338
0.000185163
0.00614947
0.000185058
0.00613555
0.000184742
0.00612171
0.000184229
0.00610805
0.000183532
0.0060946
0.000182665
0.00608141
0.000181636
0.00606847
0.000180455
0.00605578
0.000179127
0.00604334
0.00017766
0.00603112
0.000176058
0.00601911
0.000174326
0.0060073
0.00017247
0.00599569
0.000170495
0.00598426
0.000168407
0.00597302
0.00016621
0.00596196
0.00016391
0.0059511
0.000161513
0.00594042
0.000159022
0.00592993
0.000156444
0.00591965
0.000153784
0.00590956
0.000151045
0.00589967
0.000148232
0.00588999
0.00014535
0.00588052
0.000142403
0.00587125
0.000139394
0.0058622
0.000136328
0.00585337
0.000133207
0.00584475
0.000130036
0.00583635
0.000126818
0.00582817
0.000123555
0.00582021
0.00012025
0.00581247
0.000116907
0.00580495
0.000113528
0.00579766
0.000110115
0.0057906
0.000106671
0.00578376
0.000103198
0.00577714
9.96979e-05
0.00577076
9.61727e-05
0.0057646
9.26243e-05
0.00575867
8.90544e-05
0.00575296
8.54647e-05
0.00574749
8.18567e-05
0.00574224
7.82318e-05
0.00573722
7.45912e-05
0.00573243
7.09366e-05
0.00572787
6.72688e-05
0.00572353
6.35891e-05
0.00571943
5.98984e-05
0.00571555
5.61977e-05
0.00571191
5.2488e-05
0.00570849
4.87701e-05
0.0057053
4.50449e-05
0.00570234
4.13128e-05
0.0056996
3.75749e-05
0.0056971
3.38317e-05
0.00569482
3.00838e-05
0.00569277
2.63318e-05
0.00569095
2.25762e-05
0.00568935
1.88177e-05
0.00568799
1.50567e-05
0.00568685
1.12939e-05
0.00568595
7.52989e-06
0.00568527
3.7651e-06
0.00568481
0.00568459
6.14245e-05
0.00556254
-4.08363e-05
8.09326e-05
0.00577613
9.81463e-05
0.0059391
0.00011256
0.00605644
0.000124156
0.0061355
0.000133184
0.00618463
0.000140053
0.00621176
0.000145229
0.0062236
0.000149141
0.00622533
0.000152138
0.00622068
0.000154472
0.00621212
0.000156314
0.00620124
0.000157772
0.006189
0.000158913
0.00617597
0.000159777
0.00616251
0.000160392
0.00614886
0.000160777
0.00613516
0.00016095
0.00612154
0.000160926
0.00610807
0.000160716
0.00609481
0.000160334
0.00608179
0.000159788
0.00606902
0.000159086
0.00605649
0.000158237
0.00604419
0.000157244
0.00603211
0.000156114
0.00602024
0.000154852
0.00600856
0.000153462
0.00599708
0.000151951
0.00598577
0.000150322
0.00597465
0.000148581
0.0059637
0.000146733
0.00595294
0.000144783
0.00594237
0.000142736
0.00593198
0.000140598
0.00592178
0.000138372
0.00591178
0.000136063
0.00590198
0.000133677
0.00589238
0.000131216
0.00588298
0.000128685
0.00587378
0.000126089
0.0058648
0.00012343
0.00585603
0.000120713
0.00584747
0.00011794
0.00583912
0.000115115
0.00583099
0.000112242
0.00582308
0.000109322
0.00581539
0.00010636
0.00580792
0.000103357
0.00580067
0.000100316
0.00579364
9.72404e-05
0.00578683
9.41311e-05
0.00578025
9.09911e-05
0.0057739
8.78221e-05
0.00576777
8.46262e-05
0.00576186
8.14053e-05
0.00575618
7.8161e-05
0.00575073
7.48951e-05
0.0057455
7.16091e-05
0.0057405
6.83045e-05
0.00573573
6.49826e-05
0.00573119
6.16448e-05
0.00572687
5.82924e-05
0.00572278
5.49266e-05
0.00571892
5.15483e-05
0.00571528
4.81588e-05
0.00571188
4.4759e-05
0.0057087
4.13498e-05
0.00570575
3.79321e-05
0.00570302
3.45069e-05
0.00570052
3.10748e-05
0.00569825
2.76366e-05
0.00569621
2.41932e-05
0.00569439
2.07451e-05
0.0056928
1.72932e-05
0.00569144
1.3838e-05
0.00569031
1.03805e-05
0.0056894
6.92119e-06
0.00568872
3.46084e-06
0.00568827
0.00568805
3.30386e-05
0.00554265
-1.31523e-05
5.19611e-05
0.00575721
6.87116e-05
0.00592235
8.30216e-05
0.00604213
9.4783e-05
0.00612374
0.000104138
0.00617528
0.000111429
0.00620447
0.000117074
0.00621795
0.000121474
0.00622093
0.000124961
0.00621719
0.00012778
0.0062093
0.000130102
0.00619892
0.000132036
0.00618706
0.000133651
0.00617435
0.000134989
0.00616117
0.000136077
0.00614777
0.000136937
0.0061343
0.000137583
0.00612089
0.000138031
0.00610763
0.000138293
0.00609455
0.00013838
0.0060817
0.000138301
0.00606909
0.000138066
0.00605672
0.000137679
0.00604457
0.000137148
0.00603264
0.000136477
0.00602091
0.000135671
0.00600937
0.000134734
0.00599801
0.000133673
0.00598683
0.000132491
0.00597583
0.000131193
0.005965
0.000129785
0.00595435
0.000128272
0.00594388
0.000126658
0.00593359
0.000124948
0.00592349
0.000123147
0.00591358
0.00012126
0.00590387
0.000119289
0.00589435
0.000117241
0.00588503
0.000115119
0.00587591
0.000112926
0.00586699
0.000110667
0.00585829
0.000108345
0.00584979
0.000105963
0.0058415
0.000103525
0.00583343
0.000101035
0.00582557
9.8494e-05
0.00581793
9.59061e-05
0.00581051
9.32739e-05
0.0058033
9.05998e-05
0.00579631
8.78866e-05
0.00578955
8.51364e-05
0.005783
8.23516e-05
0.00577668
7.95344e-05
0.00577058
7.66869e-05
0.00576471
7.38108e-05
0.00575906
7.09083e-05
0.00575363
6.79809e-05