/*--------------------------------*- C++ -*----------------------------------*\
  =========                 |
  \\      /  F ield         | OpenFOAM: The Open Source CFD Toolbox
   \\    /   O peration     | Website:  https://openfoam.org
    \\  /    A nd           | Version:  7
     \\/     M anipulation  |
\*---------------------------------------------------------------------------*/
FoamFile
{
    version     2.0;
    format      ascii;
    class       volScalarField;
    location    "35.001";
    object      p;
}
// * * * * * * * * * * * * * * * * * * * * * * * * * * * * * * * * * * * * * //

dimensions      [0 2 -2 0 0 0 0];

internalField   nonuniform List<scalar> 
45600
(
-0.242777
-0.245024
-0.246019
-0.246834
-0.24756
-0.248233
-0.248885
-0.249517
-0.25012
-0.250677
-0.251169
-0.251576
-0.25188
-0.252063
-0.252111
-0.252015
-0.251779
-0.251411
-0.250934
-0.250442
-0.243026
-0.245236
-0.246215
-0.247018
-0.247734
-0.248399
-0.249044
-0.249671
-0.25027
-0.250824
-0.251313
-0.251719
-0.252022
-0.252202
-0.252245
-0.252142
-0.251892
-0.251502
-0.250983
-0.250458
-0.243516
-0.245654
-0.246602
-0.247381
-0.248077
-0.248725
-0.249356
-0.249972
-0.250563
-0.25111
-0.251595
-0.251997
-0.252297
-0.252473
-0.252507
-0.252387
-0.252109
-0.251677
-0.25108
-0.250474
-0.244236
-0.246269
-0.247171
-0.247912
-0.248577
-0.249199
-0.249809
-0.250407
-0.250984
-0.25152
-0.251998
-0.252394
-0.252688
-0.252858
-0.25288
-0.252736
-0.252418
-0.251928
-0.251218
-0.250455
-0.245166
-0.247065
-0.247907
-0.248598
-0.24922
-0.249806
-0.250384
-0.250957
-0.251513
-0.252033
-0.252498
-0.252885
-0.253172
-0.253332
-0.25334
-0.253168
-0.252798
-0.252235
-0.2514
-0.250338
-0.246284
-0.248025
-0.248793
-0.249421
-0.249986
-0.250523
-0.25106
-0.251598
-0.252124
-0.25262
-0.253067
-0.25344
-0.253715
-0.253864
-0.253855
-0.253652
-0.253223
-0.252575
-0.251642
-0.250013
-0.247565
-0.249129
-0.249809
-0.250359
-0.250854
-0.251329
-0.251811
-0.252301
-0.252787
-0.25325
-0.253669
-0.254021
-0.254279
-0.254412
-0.254384
-0.254153
-0.253658
-0.252886
-0.252
-0.249348
-0.248983
-0.250357
-0.250936
-0.251394
-0.251802
-0.252199
-0.25261
-0.253038
-0.25347
-0.253887
-0.254269
-0.25459
-0.254822
-0.254933
-0.254881
-0.254621
-0.254063
-0.253068
-0.252474
-0.248624
-0.250512
-0.251688
-0.252155
-0.252504
-0.252808
-0.253107
-0.25343
-0.253778
-0.25414
-0.254497
-0.254828
-0.255105
-0.255301
-0.255379
-0.255294
-0.254998
-0.254402
-0.253327
-0.252516
-0.247995
-0.25213
-0.253105
-0.253447
-0.253671
-0.253851
-0.254032
-0.254245
-0.254494
-0.254768
-0.255047
-0.25531
-0.255528
-0.255673
-0.255706
-0.255578
-0.255227
-0.254603
-0.253334
-0.252658
-0.247022
-0.253818
-0.254596
-0.254801
-0.254881
-0.254914
-0.254954
-0.255035
-0.255162
-0.255327
-0.255509
-0.255686
-0.255828
-0.255904
-0.255874
-0.255686
-0.255255
-0.254629
-0.253014
-0.252783
-0.245729
-0.255565
-0.25615
-0.256206
-0.256122
-0.255985
-0.255859
-0.255783
-0.255765
-0.255798
-0.255863
-0.255935
-0.255983
-0.255971
-0.255858
-0.255592
-0.255039
-0.254448
-0.252329
-0.25275
-0.244223
-0.257367
-0.257766
-0.257658
-0.257389
-0.257059
-0.25674
-0.256481
-0.256294
-0.256173
-0.2561
-0.256047
-0.255981
-0.255864
-0.255644
-0.255283
-0.254557
-0.254026
-0.251287
-0.252381
-0.242683
-0.259229
-0.259448
-0.259161
-0.258685
-0.258134
-0.257597
-0.257128
-0.256748
-0.256452
-0.256221
-0.256025
-0.255828
-0.255584
-0.255235
-0.254757
-0.253809
-0.253303
-0.249968
-0.251452
-0.24127
-0.261166
-0.261207
-0.260724
-0.260015
-0.259219
-0.258437
-0.257735
-0.25714
-0.256648
-0.25624
-0.255883
-0.255536
-0.255145
-0.254637
-0.254005
-0.252809
-0.252191
-0.24846
-0.249778
-0.239958
-0.263202
-0.263063
-0.262361
-0.261399
-0.26033
-0.259278
-0.25832
-0.257489
-0.256784
-0.256182
-0.255648
-0.255128
-0.254562
-0.253858
-0.253009
-0.251556
-0.250604
-0.246756
-0.247318
-0.238493
-0.265371
-0.265037
-0.264098
-0.262855
-0.261489
-0.260145
-0.258911
-0.257827
-0.256892
-0.256081
-0.255347
-0.254628
-0.253844
-0.252894
-0.251736
-0.250003
-0.24849
-0.24472
-0.244165
-0.236545
-0.267714
-0.267163
-0.265967
-0.264415
-0.262727
-0.261071
-0.259544
-0.258191
-0.257012
-0.255972
-0.255012
-0.254051
-0.25299
-0.251717
-0.250144
-0.248052
-0.245821
-0.242136
-0.240379
-0.233852
-0.270283
-0.269482
-0.267998
-0.266111
-0.264081
-0.262094
-0.260261
-0.258626
-0.257184
-0.255889
-0.254661
-0.253399
-0.25198
-0.250282
-0.248185
-0.245606
-0.242584
-0.23882
-0.235835
-0.230268
-0.273138
-0.272031
-0.270232
-0.267983
-0.26559
-0.263259
-0.261105
-0.259173
-0.257445
-0.255856
-0.254303
-0.252656
-0.250774
-0.248533
-0.245811
-0.242611
-0.238814
-0.234727
-0.230393
-0.225728
-0.276326
-0.274862
-0.272711
-0.270075
-0.2673
-0.264609
-0.262121
-0.259871
-0.257823
-0.255885
-0.253924
-0.251787
-0.249324
-0.246423
-0.242992
-0.239081
-0.234592
-0.229985
-0.224568
-0.220109
-0.279907
-0.278023
-0.275479
-0.272428
-0.269253
-0.266189
-0.26335
-0.260752
-0.258332
-0.255966
-0.253492
-0.250745
-0.247581
-0.243924
-0.239728
-0.235087
-0.229978
-0.224727
-0.218988
-0.213884
-0.283942
-0.281556
-0.27858
-0.275089
-0.271494
-0.26804
-0.264823
-0.261833
-0.25897
-0.256074
-0.252964
-0.249479
-0.245511
-0.241032
-0.236058
-0.230724
-0.225034
-0.219311
-0.213251
-0.207734
-0.288482
-0.285508
-0.28206
-0.278101
-0.274067
-0.270199
-0.266567
-0.263119
-0.259714
-0.256163
-0.252284
-0.247946
-0.243095
-0.237769
-0.232041
-0.226067
-0.219884
-0.21377
-0.207466
-0.201818
-0.293578
-0.28992
-0.285961
-0.281508
-0.27701
-0.272696
-0.268592
-0.264595
-0.260525
-0.256179
-0.251398
-0.246111
-0.240336
-0.234172
-0.227736
-0.221192
-0.214585
-0.208155
-0.20167
-0.195891
-0.29927
-0.294834
-0.290324
-0.285349
-0.280358
-0.275551
-0.270893
-0.266229
-0.261347
-0.256057
-0.250258
-0.243957
-0.237248
-0.23028
-0.223195
-0.216146
-0.209175
-0.202477
-0.195828
-0.189946
-0.305593
-0.300284
-0.295189
-0.289664
-0.284139
-0.27877
-0.273449
-0.267968
-0.26211
-0.255733
-0.248822
-0.241475
-0.233851
-0.226129
-0.218455
-0.210956
-0.203663
-0.196724
-0.189928
-0.183929
-0.312572
-0.306299
-0.300588
-0.294481
-0.288369
-0.28234
-0.276212
-0.269739
-0.262733
-0.255143
-0.247059
-0.238664
-0.230164
-0.221742
-0.213532
-0.205627
-0.198042
-0.19088
-0.183942
-0.17782
-0.320218
-0.312901
-0.306547
-0.299821
-0.293044
-0.286227
-0.279112
-0.27145
-0.263133
-0.254231
-0.244945
-0.235526
-0.226198
-0.217131
-0.20843
-0.200151
-0.192296
-0.184921
-0.177849
-0.171599
-0.328531
-0.320099
-0.31308
-0.305684
-0.298137
-0.290364
-0.282052
-0.272999
-0.263227
-0.252948
-0.242463
-0.232058
-0.221955
-0.212291
-0.203135
-0.194511
-0.186401
-0.178824
-0.171625
-0.165245
-0.337489
-0.32789
-0.320182
-0.312049
-0.303594
-0.294657
-0.284914
-0.274275
-0.262937
-0.251252
-0.239593
-0.228253
-0.217426
-0.207207
-0.197629
-0.188681
-0.180331
-0.172563
-0.165248
-0.158741
-0.347049
-0.336247
-0.327825
-0.318863
-0.309322
-0.298977
-0.28756
-0.275168
-0.262191
-0.249105
-0.236315
-0.224095
-0.212592
-0.201858
-0.191885
-0.182635
-0.17406
-0.166115
-0.158695
-0.152068
-0.357142
-0.345119
-0.33595
-0.32604
-0.315192
-0.303167
-0.289848
-0.275573
-0.260926
-0.246468
-0.232602
-0.219557
-0.207426
-0.196212
-0.185872
-0.176343
-0.167559
-0.159454
-0.151945
-0.145207
-0.367666
-0.354427
-0.344464
-0.33345
-0.321036
-0.307052
-0.291631
-0.275389
-0.259078
-0.2433
-0.228421
-0.214609
-0.201894
-0.190236
-0.179558
-0.169774
-0.160803
-0.152559
-0.144978
-0.138142
-0.378486
-0.364055
-0.353234
-0.340925
-0.326656
-0.310444
-0.292766
-0.274523
-0.256589
-0.239558
-0.223735
-0.209212
-0.19596
-0.183895
-0.17291
-0.162899
-0.153764
-0.145408
-0.137773
-0.130858
-0.389433
-0.37385
-0.362086
-0.348253
-0.331826
-0.313153
-0.293121
-0.272889
-0.253398
-0.235195
-0.218499
-0.203325
-0.189585
-0.177153
-0.165896
-0.15569
-0.146419
-0.137979
-0.130313
-0.123339
-0.4003
-0.383624
-0.370806
-0.355188
-0.33631
-0.314993
-0.292567
-0.270401
-0.249445
-0.23016
-0.212668
-0.196904
-0.182728
-0.169974
-0.158485
-0.148119
-0.138746
-0.130253
-0.122579
-0.115571
-0.410845
-0.393149
-0.379141
-0.361459
-0.339867
-0.315788
-0.290989
-0.266982
-0.244667
-0.224399
-0.206192
-0.189907
-0.17535
-0.162324
-0.150649
-0.140163
-0.130723
-0.122213
-0.114555
-0.107543
-0.420796
-0.402162
-0.386804
-0.366778
-0.342261
-0.315374
-0.288278
-0.262553
-0.239005
-0.217858
-0.199024
-0.18229
-0.167415
-0.154172
-0.142359
-0.131799
-0.122335
-0.113845
-0.106229
-0.0992497
-0.429855
-0.410373
-0.393486
-0.370852
-0.343272
-0.313603
-0.284334
-0.257042
-0.232397
-0.210486
-0.191117
-0.174012
-0.158888
-0.145489
-0.133593
-0.123008
-0.113565
-0.105137
-0.0975972
-0.0906971
-0.437703
-0.41747
-0.398862
-0.3734
-0.342694
-0.310339
-0.279067
-0.250379
-0.224786
-0.202231
-0.182429
-0.165038
-0.149738
-0.136249
-0.124329
-0.113772
-0.1044
-0.0960805
-0.0886618
-0.0819025
-0.444012
-0.423125
-0.402608
-0.374156
-0.340346
-0.305466
-0.272394
-0.242501
-0.216117
-0.193049
-0.172919
-0.155335
-0.13994
-0.126431
-0.11455
-0.104076
-0.0948244
-0.0866598
-0.0794155
-0.0728679
-0.448454
-0.427007
-0.40441
-0.372878
-0.33607
-0.298883
-0.264245
-0.233351
-0.206345
-0.182899
-0.162557
-0.144877
-0.129473
-0.116019
-0.104243
-0.0939097
-0.0848274
-0.0768605
-0.0698316
-0.0635431
-0.450705
-0.428792
-0.403976
-0.369358
-0.329735
-0.290506
-0.25456
-0.222883
-0.195429
-0.171749
-0.151315
-0.133644
-0.118321
-0.105003
-0.0933998
-0.083267
-0.0744073
-0.0666817
-0.059879
-0.0538025
-0.450464
-0.428172
-0.401047
-0.363418
-0.321237
-0.280269
-0.243292
-0.211058
-0.183339
-0.159575
-0.139176
-0.121622
-0.106475
-0.0933747
-0.0820176
-0.0721477
-0.0635694
-0.056142
-0.0495683
-0.0435839
-0.447452
-0.424865
-0.395403
-0.354923
-0.310498
-0.268128
-0.230408
-0.19785
-0.170053
-0.146361
-0.126128
-0.108805
-0.0939319
-0.0811356
-0.070102
-0.06056
-0.0523205
-0.0452504
-0.0389267
-0.0331738
-0.441427
-0.418627
-0.38687
-0.343775
-0.297469
-0.254054
-0.215889
-0.183245
-0.155561
-0.132098
-0.112167
-0.0951918
-0.0807007
-0.0682943
-0.0576666
-0.0485228
-0.0406912
-0.0339866
-0.0279513
-0.0226343
-0.432186
-0.409259
-0.375321
-0.329915
-0.282129
-0.23804
-0.199732
-0.167238
-0.139861
-0.116791
-0.0973074
-0.0807971
-0.0668036
-0.0548774
-0.0447172
-0.0360442
-0.0286773
-0.0223822
-0.016697
-0.0118949
-0.419575
-0.396616
-0.360672
-0.313322
-0.264482
-0.220097
-0.181944
-0.149839
-0.122972
-0.10046
-0.0815829
-0.0656595
-0.052238
-0.0408881
-0.0312787
-0.023144
-0.0162971
-0.0104636
-0.00518185
-0.000935758
-0.403489
-0.380607
-0.342883
-0.294008
-0.244563
-0.200256
-0.162549
-0.13108
-0.104948
-0.0831598
-0.0649897
-0.0497819
-0.0370428
-0.0263551
-0.0173768
-0.00984754
-0.00357687
0.00174477
0.00657803
0.0102318
-0.383878
-0.361193
-0.321963
-0.272021
-0.222431
-0.178568
-0.141602
-0.111053
-0.0857939
-0.0648967
-0.0475805
-0.0332023
-0.021252
-0.0113132
-0.00304304
0.00381438
0.00945324
0.0142169
0.0185607
0.0215836
-0.360744
-0.338391
-0.297974
-0.247456
-0.198159
-0.155111
-0.119213
-0.0897435
-0.0655724
-0.0457236
-0.0294019
-0.0159674
-0.00490651
0.00419766
0.011685
0.0178057
0.0227586
0.0269201
0.0307337
0.0330886
-0.334141
-0.312277
-0.271057
-0.220472
-0.171806
-0.129967
-0.0954041
-0.0672514
-0.0443514
-0.0257044
-0.0105099
0.00186966
0.0119454
0.0201323
0.0267649
0.0320861
0.0363009
0.0398161
0.0430561
0.0447071
-0.304173
-0.282978
-0.241402
-0.1912
-0.143456
-0.103225
-0.0702835
-0.0436671
-0.022212
-0.0049126
0.00903019
0.0202487
0.0292487
0.03644
0.0421493
0.0466119
0.0500398
0.0528655
0.0554855
0.0563961
-0.271004
-0.250695
-0.209098
-0.159469
-0.113521
-0.0750661
-0.0439708
-0.0190926
0.000754456
0.0165696
0.0291443
0.0391026
0.046942
0.0530643
0.0577855
0.061334
0.0639326
0.0660325
0.0679877
0.0681265
-0.234848
-0.21572
-0.173979
-0.125888
-0.0819843
-0.0456329
-0.0166002
0.00635849
0.0244462
0.0386508
0.0497507
0.0583578
0.0649586
0.069943
0.0736138
0.0761958
0.0779304
0.0792772
0.0805255
0.0798758
-0.195911
-0.178297
-0.136391
-0.0905931
-0.0490546
-0.0150861
0.0116832
0.0325597
0.0487519
0.0612318
0.0707607
0.077935
0.083227
0.0870101
0.0895712
0.0911374
0.0919758
0.0925297
0.0929839
0.0914836
-0.154412
-0.138066
-0.0974609
-0.0538252
-0.0149416
0.0163998
0.0407253
0.0593749
0.073551
0.0842056
0.0920793
0.0977501
0.101673
0.104199
0.1056
0.106112
0.106021
0.105679
0.105073
0.102458
-0.11074
-0.095854
-0.0570495
-0.0158481
0.0201323
0.0486387
0.070362
0.0866591
0.0987153
0.107459
0.113606
0.117714
0.120216
0.121443
0.121652
0.121099
0.120052
0.118631
0.116493
0.112377
-0.065336
-0.0519258
-0.0153395
0.0230801
0.0559336
0.0814327
0.10042
0.114259
0.12411
0.130871
0.135234
0.137732
0.138775
0.138672
0.137679
0.136071
0.134051
0.131395
0.127505
0.122273
-0.0184626
-0.0067119
0.0273701
0.0626928
0.0922221
0.114575
0.13072
0.142017
0.149593
0.154318
0.156852
0.157705
0.157261
0.15581
0.153612
0.150948
0.147913
0.143983
0.138728
0.135347
0.0294906
0.0393962
0.0707402
0.102709
0.128752
0.14785
0.161074
0.169766
0.175021
0.177671
0.178347
0.177531
0.175584
0.172779
0.169374
0.16562
0.161496
0.156428
0.150556
0.147952
0.0781101
0.0860169
0.11442
0.142836
0.165272
0.181042
0.191291
0.19734
0.200244
0.200798
0.199602
0.197107
0.193652
0.189495
0.184884
0.180028
0.174834
0.168816
0.16248
0.159658
0.126978
0.132764
0.158058
0.182778
0.201527
0.213927
0.221177
0.224568
0.225112
0.223567
0.220497
0.216327
0.21137
0.20587
0.200055
0.194095
0.187874
0.181015
0.174178
0.170778
0.175673
0.179247
0.201304
0.222237
0.237262
0.246284
0.250537
0.251279
0.249475
0.245842
0.240914
0.235085
0.228644
0.221818
0.214811
0.207764
0.200558
0.192894
0.185472
0.181342
0.223775
0.225076
0.243811
0.260916
0.272223
0.277892
0.27918
0.277302
0.273181
0.267493
0.260736
0.253275
0.245378
0.237251
0.229076
0.220969
0.212814
0.204365
0.196316
0.191394
0.270868
0.269867
0.28524
0.298525
0.306159
0.308533
0.306913
0.302471
0.296083
0.288386
0.279844
0.270795
0.26148
0.252086
0.242774
0.23364
0.224569
0.215354
0.206663
0.200925
0.316544
0.313242
0.325262
0.334782
0.338827
0.337995
0.33355
0.326621
0.318036
0.308395
0.298127
0.287542
0.276858
0.266242
0.255834
0.245711
0.235761
0.225806
0.216476
0.209914
0.360408
0.354838
0.363558
0.369413
0.369992
0.366073
0.358912
0.349593
0.338901
0.327395
0.315474
0.303419
0.291426
0.279641
0.268186
0.257119
0.24633
0.23567
0.225716
0.218335
0.402082
0.394305
0.399825
0.402158
0.399426
0.392568
0.382826
0.371237
0.358544
0.345269
0.33178
0.318332
0.3051
0.292209
0.279763
0.267802
0.256223
0.244897
0.234344
0.22616
0.441206
0.431315
0.433775
0.43277
0.426917
0.417296
0.405128
0.391408
0.376837
0.361904
0.346946
0.332193
0.317801
0.303875
0.290501
0.277705
0.265389
0.253443
0.242323
0.233363
0.477442
0.465557
0.465141
0.461018
0.452265
0.44008
0.425664
0.409971
0.393662
0.377194
0.360878
0.34492
0.329455
0.314574
0.300343
0.286776
0.273782
0.261267
0.249615
0.239918
0.51048
0.496748
0.493675
0.48669
0.475286
0.460761
0.444295
0.426801
0.408909
0.391043
0.37349
0.356435
0.339994
0.324244
0.309233
0.294966
0.281357
0.268328
0.256188
0.245801
0.540034
0.524628
0.519152
0.509592
0.49581
0.479191
0.460889
0.441786
0.422478
0.403363
0.384704
0.366669
0.349358
0.332831
0.317124
0.302231
0.288076
0.27459
0.26201
0.250992
0.565853
0.548966
0.541373
0.529552
0.51369
0.495238
0.475334
0.454825
0.434279
0.414074
0.39445
0.37556
0.357489
0.340285
0.323971
0.308533
0.293903
0.280021
0.267053
0.255472
0.587714
0.569562
0.560162
0.54642
0.528793
0.50879
0.487528
0.465828
0.444236
0.423107
0.402667
0.383053
0.36434
0.346564
0.329736
0.313837
0.298808
0.284592
0.271294
0.259227
0.605431
0.586246
0.575374
0.560069
0.541011
0.51975
0.497386
0.474722
0.452281
0.430405
0.409304
0.389104
0.369871
0.351632
0.334388
0.318116
0.302764
0.28828
0.274711
0.262245
0.618852
0.598881
0.586887
0.570397
0.550253
0.528038
0.504841
0.481446
0.458363
0.43592
0.414318
0.393675
0.374048
0.355458
0.337899
0.321346
0.30575
0.291063
0.277289
0.264517
0.627864
0.607362
0.594614
0.577325
0.556452
0.533597
0.50984
0.485954
0.462439
0.439616
0.417679
0.396738
0.376847
0.358021
0.340251
0.323508
0.307749
0.292926
0.279014
0.266035
0.632389
0.61162
0.598492
0.580802
0.559563
0.536386
0.512348
0.488215
0.464485
0.44147
0.419365
0.398274
0.37825
0.359307
0.341431
0.324593
0.308752
0.293861
0.279879
0.266795
0.632389
0.61162
0.598492
0.580802
0.559563
0.536386
0.512348
0.488215
0.464485
0.44147
0.419365
0.398274
0.37825
0.359307
0.341431
0.324593
0.308752
0.293861
0.279879
0.266795
0.627864
0.607362
0.594614
0.577325
0.556452
0.533597
0.50984
0.485954
0.462439
0.439616
0.417679
0.396738
0.376847
0.358021
0.340251
0.323508
0.307749
0.292926
0.279014
0.266035
0.618852
0.598881
0.586887
0.570397
0.550253
0.528038
0.504841
0.481446
0.458363
0.43592
0.414318
0.393675
0.374048
0.355458
0.337899
0.321345
0.30575
0.291062
0.277288
0.264517
0.605431
0.586246
0.575373
0.560069
0.541011
0.519749
0.497386
0.474722
0.452281
0.430405
0.409304
0.389104
0.369871
0.351631
0.334388
0.318116
0.302764
0.288279
0.274711
0.262245
0.587713
0.569562
0.560162
0.54642
0.528793
0.50879
0.487528
0.465828
0.444236
0.423107
0.402667
0.383053
0.36434
0.346564
0.329736
0.313837
0.298808
0.284592
0.271293
0.259227
0.565852
0.548966
0.541372
0.529552
0.513689
0.495238
0.475334
0.454824
0.434279
0.414073
0.39445
0.375559
0.357489
0.340285
0.323971
0.308532
0.293903
0.280021
0.267053
0.255472
0.540034
0.524627
0.519152
0.509592
0.49581
0.47919
0.460889
0.441786
0.422477
0.403363
0.384704
0.366668
0.349357
0.332831
0.317124
0.30223
0.288076
0.27459
0.262009
0.250991
0.510479
0.496747
0.493674
0.486689
0.475285
0.460761
0.444294
0.426801
0.408909
0.391043
0.37349
0.356434
0.339994
0.324244
0.309233
0.294965
0.281357
0.268327
0.256188
0.245801
0.477442
0.465557
0.465141
0.461017
0.452265
0.44008
0.425664
0.40997
0.393662
0.377194
0.360878
0.344919
0.329455
0.314574
0.300342
0.286776
0.273781
0.261266
0.249615
0.239918
0.441205
0.431314
0.433775
0.432769
0.426917
0.417295
0.405127
0.391407
0.376837
0.361903
0.346946
0.332193
0.3178
0.303875
0.290501
0.277705
0.265389
0.253443
0.242322
0.233363
0.402082
0.394305
0.399824
0.402157
0.399425
0.392568
0.382825
0.371236
0.358543
0.345269
0.33178
0.318332
0.305099
0.292209
0.279762
0.267802
0.256223
0.244896
0.234344
0.22616
0.360408
0.354837
0.363557
0.369412
0.369991
0.366072
0.358912
0.349593
0.338901
0.327395
0.315474
0.303418
0.291425
0.279641
0.268186
0.257119
0.24633
0.235669
0.225716
0.218334
0.316543
0.313241
0.325261
0.334781
0.338827
0.337995
0.33355
0.32662
0.318036
0.308394
0.298127
0.287541
0.276858
0.266242
0.255834
0.245711
0.235761
0.225806
0.216476
0.209913
0.270867
0.269866
0.285239
0.298524
0.306158
0.308533
0.306912
0.30247
0.296082
0.288385
0.279844
0.270794
0.261479
0.252085
0.242774
0.23364
0.224569
0.215354
0.206662
0.200925
0.223774
0.225075
0.24381
0.260915
0.272222
0.277891
0.279179
0.277302
0.27318
0.267492
0.260735
0.253275
0.245378
0.23725
0.229075
0.220968
0.212813
0.204365
0.196315
0.191394
0.175672
0.179246
0.201303
0.222236
0.237261
0.246283
0.250537
0.251278
0.249474
0.245842
0.240914
0.235084
0.228643
0.221817
0.214811
0.207764
0.200557
0.192893
0.185471
0.181341
0.126977
0.132763
0.158057
0.182777
0.201526
0.213926
0.221176
0.224567
0.225112
0.223566
0.220497
0.216326
0.211369
0.20587
0.200054
0.194094
0.187874
0.181015
0.174178
0.170778
0.0781089
0.0860157
0.114419
0.142835
0.165271
0.181041
0.19129
0.197339
0.200243
0.200798
0.199601
0.197107
0.193651
0.189495
0.184883
0.180027
0.174834
0.168815
0.16248
0.159658
0.0294893
0.0393949
0.070739
0.102708
0.128751
0.147849
0.161073
0.169765
0.17502
0.17767
0.178347
0.177531
0.175583
0.172778
0.169373
0.165619
0.161496
0.156428
0.150556
0.147952
-0.018464
-0.00671328
0.0273688
0.0626917
0.092221
0.114574
0.130719
0.142016
0.149593
0.154317
0.156852
0.157704
0.15726
0.15581
0.153612
0.150947
0.147912
0.143982
0.138728
0.135347
-0.0653374
-0.0519272
-0.0153409
0.0230789
0.0559324
0.0814317
0.100419
0.114258
0.124109
0.13087
0.135233
0.137731
0.138774
0.138671
0.137678
0.13607
0.13405
0.131395
0.127505
0.122272
-0.110742
-0.0958555
-0.0570509
-0.0158494
0.0201311
0.0486376
0.0703609
0.0866581
0.0987144
0.107458
0.113605
0.117713
0.120216
0.121442
0.121652
0.121098
0.120051
0.11863
0.116492
0.112376
-0.154414
-0.138067
-0.0974624
-0.0538266
-0.0149429
0.0163986
0.0407242
0.0593739
0.07355
0.0842047
0.0920784
0.0977492
0.101672
0.104198
0.105599
0.106111
0.10602
0.105678
0.105072
0.102457
-0.195913
-0.178298
-0.136392
-0.0905946
-0.049056
-0.0150873
0.0116821
0.0325586
0.0487508
0.0612308
0.0707598
0.0779341
0.0832262
0.0870093
0.0895704
0.0911367
0.0919751
0.092529
0.0929832
0.091483
-0.23485
-0.215722
-0.173981
-0.12589
-0.0819857
-0.0456342
-0.0166014
0.00635733
0.0244451
0.0386498
0.0497498
0.0583569
0.0649577
0.0699421
0.073613
0.076195
0.0779296
0.0792765
0.0805248
0.0798752
-0.271006
-0.250697
-0.2091
-0.159471
-0.113523
-0.0750675
-0.0439721
-0.0190938
0.000753319
0.0165685
0.0291433
0.0391017
0.0469411
0.0530634
0.0577847
0.0613332
0.0639318
0.0660318
0.067987
0.0681258
-0.304175
-0.28298
-0.241403
-0.191201
-0.143458
-0.103227
-0.0702849
-0.0436684
-0.0222131
-0.00491372
0.00902912
0.0202477
0.0292477
0.036439
0.0421485
0.046611
0.050039
0.0528648
0.0554848
0.0563954
-0.334143
-0.312279
-0.271059
-0.220474
-0.171807
-0.129969
-0.0954055
-0.0672527
-0.0443527
-0.0257056
-0.010511
0.00186862
0.0119444
0.0201313
0.026764
0.0320853
0.0363001
0.0398153
0.0430554
0.0447065
-0.360746
-0.338393
-0.297976
-0.247458
-0.19816
-0.155112
-0.119214
-0.0897448
-0.0655737
-0.0457248
-0.0294031
-0.0159685
-0.00490754
0.00419668
0.0116841
0.0178048
0.0227578
0.0269193
0.0307329
0.0330878
-0.38388
-0.361195
-0.321965
-0.272023
-0.222432
-0.17857
-0.141604
-0.111054
-0.0857953
-0.0648979
-0.0475817
-0.0332034
-0.0212531
-0.0113142
-0.003044
0.00381346
0.00945237
0.0142161
0.0185599
0.0215829
-0.403491
-0.380609
-0.342885
-0.29401
-0.244565
-0.200257
-0.162551
-0.131082
-0.104949
-0.0831611
-0.0649909
-0.0497831
-0.037044
-0.0263561
-0.0173778
-0.00984849
-0.00357777
0.00174392
0.00657722
0.010231
-0.419577
-0.396618
-0.360674
-0.313324
-0.264484
-0.220099
-0.181946
-0.14984
-0.122974
-0.100461
-0.0815842
-0.0656607
-0.0522391
-0.0408892
-0.0312797
-0.023145
-0.0162981
-0.0104645
-0.00518268
-0.00093654
-0.432188
-0.409262
-0.375324
-0.329917
-0.282131
-0.238042
-0.199734
-0.16724
-0.139862
-0.116792
-0.0973087
-0.0807984
-0.0668048
-0.0548785
-0.0447182
-0.0360452
-0.0286783
-0.0223831
-0.0166978
-0.0118957
-0.441429
-0.41863
-0.386873
-0.343777
-0.297471
-0.254055
-0.215891
-0.183246
-0.155563
-0.1321
-0.112169
-0.095193
-0.0807019
-0.0682955
-0.0576677
-0.0485238
-0.0406922
-0.0339875
-0.0279522
-0.0226352
-0.447454
-0.424867
-0.395405
-0.354925
-0.3105
-0.26813
-0.230409
-0.197852
-0.170055
-0.146362
-0.12613
-0.108806
-0.0939332
-0.0811368
-0.0701032
-0.0605611
-0.0523216
-0.0452513
-0.0389276
-0.0331747
-0.450466
-0.428174
-0.401049
-0.36342
-0.321239
-0.280271
-0.243294
-0.211059
-0.18334
-0.159576
-0.139178
-0.121623
-0.106476
-0.093376
-0.0820188
-0.0721488
-0.0635704
-0.056143
-0.0495692
-0.0435847
-0.450708
-0.428795
-0.403978
-0.36936
-0.329738
-0.290508
-0.254562
-0.222885
-0.195431
-0.17175
-0.151317
-0.133645
-0.118322
-0.105004
-0.093401
-0.0832681
-0.0744084
-0.0666827
-0.0598799
-0.0538034
-0.448456
-0.42701
-0.404412
-0.372881
-0.336072
-0.298885
-0.264247
-0.233353
-0.206347
-0.1829
-0.162558
-0.144878
-0.129474
-0.116021
-0.104244
-0.0939108
-0.0848285
-0.0768616
-0.0698326
-0.063544
-0.444015
-0.423127
-0.40261
-0.374158
-0.340348
-0.305468
-0.272396
-0.242503
-0.216119
-0.193051
-0.172921
-0.155336
-0.139942
-0.126432
-0.114551
-0.104077
-0.0948256
-0.0866609
-0.0794165
-0.0728688
-0.437705
-0.417472
-0.398865
-0.373403
-0.342696
-0.310341
-0.279069
-0.250381
-0.224787
-0.202233
-0.18243
-0.165039
-0.14974
-0.13625
-0.12433
-0.113773
-0.104401
-0.0960816
-0.0886628
-0.0819035
-0.429857
-0.410376
-0.393488
-0.370855
-0.343274
-0.313605
-0.284336
-0.257044
-0.232399
-0.210488
-0.191119
-0.174014
-0.15889
-0.14549
-0.133594
-0.123009
-0.113566
-0.105139
-0.0975982
-0.0906981
-0.420799
-0.402164
-0.386807
-0.36678
-0.342264
-0.315377
-0.28828
-0.262555
-0.239007
-0.21786
-0.199026
-0.182291
-0.167417
-0.154174
-0.142361
-0.1318
-0.122336
-0.113846
-0.10623
-0.0992507
-0.410847
-0.393151
-0.379143
-0.361462
-0.339869
-0.31579
-0.290991
-0.266984
-0.244669
-0.2244
-0.206194
-0.189909
-0.175352
-0.162326
-0.15065
-0.140164
-0.130725
-0.122215
-0.114556
-0.107545
-0.400302
-0.383627
-0.370809
-0.355191
-0.336313
-0.314995
-0.292569
-0.270403
-0.249447
-0.230162
-0.212669
-0.196906
-0.182729
-0.169976
-0.158487
-0.148121
-0.138747
-0.130254
-0.12258
-0.115572
-0.389435
-0.373853
-0.362089
-0.348255
-0.331829
-0.313155
-0.293123
-0.272891
-0.2534
-0.235197
-0.218501
-0.203327
-0.189587
-0.177155
-0.165898
-0.155691
-0.146421
-0.13798
-0.130314
-0.12334
-0.378489
-0.364057
-0.353236
-0.340927
-0.326658
-0.310447
-0.292768
-0.274525
-0.256591
-0.23956
-0.223737
-0.209213
-0.195962
-0.183897
-0.172911
-0.162901
-0.153766
-0.145409
-0.137775
-0.130859
-0.367668
-0.354429
-0.344466
-0.333453
-0.321039
-0.307055
-0.291633
-0.275391
-0.25908
-0.243302
-0.228423
-0.21461
-0.201896
-0.190238
-0.179559
-0.169776
-0.160804
-0.152561
-0.144979
-0.138144
-0.357144
-0.345122
-0.335953
-0.326042
-0.315194
-0.30317
-0.28985
-0.275575
-0.260928
-0.24647
-0.232604
-0.219559
-0.207428
-0.196213
-0.185873
-0.176344
-0.167561
-0.159456
-0.151947
-0.145208
-0.347052
-0.336249
-0.327828
-0.318866
-0.309324
-0.298979
-0.287563
-0.275171
-0.262194
-0.249107
-0.236317
-0.224097
-0.212594
-0.201859
-0.191887
-0.182637
-0.174062
-0.166116
-0.158696
-0.152069
-0.337492
-0.327892
-0.320185
-0.312051
-0.303596
-0.294659
-0.284916
-0.274277
-0.262939
-0.251255
-0.239595
-0.228256
-0.217428
-0.207209
-0.197631
-0.188683
-0.180333
-0.172565
-0.16525
-0.158742
-0.328533
-0.320102
-0.313083
-0.305686
-0.29814
-0.290367
-0.282055
-0.273001
-0.263229
-0.25295
-0.242465
-0.23206
-0.221957
-0.212293
-0.203137
-0.194513
-0.186403
-0.178826
-0.171627
-0.165247
-0.320221
-0.312903
-0.30655
-0.299823
-0.293046
-0.286229
-0.279114
-0.271453
-0.263135
-0.254233
-0.244948
-0.235528
-0.2262
-0.217133
-0.208432
-0.200153
-0.192298
-0.184923
-0.177851
-0.1716
-0.312574
-0.306301
-0.30059
-0.294483
-0.288371
-0.282343
-0.276214
-0.269741
-0.262735
-0.255145
-0.247061
-0.238666
-0.230166
-0.221744
-0.213535
-0.205629
-0.198044
-0.190882
-0.183944
-0.177822
-0.305596
-0.300286
-0.295191
-0.289666
-0.284142
-0.278772
-0.273451
-0.267971
-0.262112
-0.255735
-0.248825
-0.241477
-0.233854
-0.226131
-0.218457
-0.210958
-0.203665
-0.196726
-0.18993
-0.183931
-0.299273
-0.294836
-0.290326
-0.285352
-0.28036
-0.275553
-0.270896
-0.266232
-0.261349
-0.25606
-0.250261
-0.243959
-0.237251
-0.230282
-0.223198
-0.216149
-0.209177
-0.20248
-0.19583
-0.189948
-0.29358
-0.289923
-0.285963
-0.28151
-0.277012
-0.272698
-0.268594
-0.264598
-0.260527
-0.256182
-0.251401
-0.246114
-0.240339
-0.234174
-0.227738
-0.221195
-0.214588
-0.208158
-0.201673
-0.195893
-0.288485
-0.28551
-0.282062
-0.278104
-0.274069
-0.270201
-0.266569
-0.263121
-0.259716
-0.256166
-0.252287
-0.247948
-0.243098
-0.237772
-0.232044
-0.22607
-0.219887
-0.213773
-0.207468
-0.20182
-0.283944
-0.281558
-0.278582
-0.275091
-0.271496
-0.268042
-0.264826
-0.261835
-0.258972
-0.256076
-0.252967
-0.249482
-0.245514
-0.241035
-0.236061
-0.230727
-0.225037
-0.219314
-0.213254
-0.207736
-0.27991
-0.278025
-0.275481
-0.272431
-0.269255
-0.266191
-0.263352
-0.260754
-0.258335
-0.255969
-0.253495
-0.250748
-0.247585
-0.243927
-0.239732
-0.235091
-0.229982
-0.224731
-0.218991
-0.213887
-0.276328
-0.274865
-0.272713
-0.270077
-0.267302
-0.264611
-0.262124
-0.259874
-0.257826
-0.255888
-0.253927
-0.25179
-0.249327
-0.246427
-0.242996
-0.239084
-0.234596
-0.229988
-0.224571
-0.220112
-0.27314
-0.272033
-0.270234
-0.267986
-0.265593
-0.263261
-0.261108
-0.259175
-0.257448
-0.255859
-0.254306
-0.252659
-0.250778
-0.248537
-0.245815
-0.242615
-0.238818
-0.234731
-0.230397
-0.225731
-0.270285
-0.269484
-0.268001
-0.266113
-0.264083
-0.262097
-0.260263
-0.258628
-0.257187
-0.255892
-0.254665
-0.253403
-0.251984
-0.250286
-0.248189
-0.24561
-0.242589
-0.238824
-0.235839
-0.230272
-0.267716
-0.267166
-0.265969
-0.264417
-0.262729
-0.261073
-0.259547
-0.258194
-0.257015
-0.255975
-0.255015
-0.254054
-0.252994
-0.251722
-0.250149
-0.248057
-0.245826
-0.242141
-0.240384
-0.233857
-0.265373
-0.265039
-0.2641
-0.262858
-0.261491
-0.260147
-0.258914
-0.25783
-0.256895
-0.256084
-0.255351
-0.254632
-0.253848
-0.252898
-0.251741
-0.250008
-0.248495
-0.244725
-0.24417
-0.23655
-0.263204
-0.263065
-0.262363
-0.261401
-0.260332
-0.25928
-0.258323
-0.257491
-0.256786
-0.256185
-0.255651
-0.255132
-0.254566
-0.253863
-0.253013
-0.251562
-0.250609
-0.246762
-0.247323
-0.238498
-0.261169
-0.261209
-0.260726
-0.260017
-0.259221
-0.258439
-0.257738
-0.257142
-0.256651
-0.256243
-0.255886
-0.25554
-0.255149
-0.254642
-0.25401
-0.252814
-0.252197
-0.248465
-0.249784
-0.239964
-0.259232
-0.25945
-0.259163
-0.258687
-0.258136
-0.257599
-0.257131
-0.256751
-0.256455
-0.256224
-0.256028
-0.255831
-0.255588
-0.255239
-0.254762
-0.253814
-0.253309
-0.249974
-0.251458
-0.241276
-0.257369
-0.257768
-0.25766
-0.257391
-0.257061
-0.256743
-0.256483
-0.256296
-0.256176
-0.256103
-0.25605
-0.255985
-0.255868
-0.255649
-0.255288
-0.254562
-0.254032
-0.251293
-0.252387
-0.242689
-0.255567
-0.256152
-0.256207
-0.256124
-0.255987
-0.255862
-0.255785
-0.255768
-0.255801
-0.255866
-0.255938
-0.255986
-0.255975
-0.255862
-0.255597
-0.255044
-0.254454
-0.252335
-0.252756
-0.244229
-0.25382
-0.254598
-0.254803
-0.254882
-0.254916
-0.254956
-0.255037
-0.255165
-0.255329
-0.255512
-0.255689
-0.255832
-0.255908
-0.255878
-0.255691
-0.25526
-0.254635
-0.253021
-0.252789
-0.245736
-0.252131
-0.253107
-0.253449
-0.253673
-0.253853
-0.254034
-0.254247
-0.254496
-0.25477
-0.25505
-0.255313
-0.255532
-0.255677
-0.25571
-0.255582
-0.255232
-0.254609
-0.25334
-0.252664
-0.247028
-0.250514
-0.251689