/*--------------------------------*- C++ -*----------------------------------*\
  =========                 |
  \\      /  F ield         | OpenFOAM: The Open Source CFD Toolbox
   \\    /   O peration     | Website:  https://openfoam.org
    \\  /    A nd           | Version:  7
     \\/     M anipulation  |
\*---------------------------------------------------------------------------*/
FoamFile
{
    version     2.0;
    format      ascii;
    class       volScalarField;
    location    "40";
    object      p;
}
// * * * * * * * * * * * * * * * * * * * * * * * * * * * * * * * * * * * * * //

dimensions      [0 2 -2 0 0 0 0];

internalField   nonuniform List<scalar> 
10880
(
-0.310667
-0.315435
-0.317763
-0.318028
-0.316994
-0.314917
-0.311925
-0.308136
-0.303656
-0.298573
-0.292966
-0.286912
-0.280483
-0.27376
-0.266825
-0.259771
-0.252693
-0.245667
-0.238782
-0.23238
-0.316035
-0.320028
-0.321763
-0.321587
-0.320186
-0.317798
-0.314542
-0.310529
-0.305855
-0.300598
-0.29483
-0.288615
-0.282018
-0.275106
-0.267955
-0.260655
-0.253299
-0.245906
-0.238494
-0.23202
-0.326432
-0.328934
-0.329517
-0.328474
-0.326347
-0.323338
-0.319556
-0.315094
-0.31003
-0.304428
-0.298338
-0.29181
-0.28489
-0.277624
-0.27007
-0.262312
-0.254441
-0.246381
-0.237982
-0.231294
-0.341257
-0.341658
-0.340591
-0.338287
-0.33509
-0.33116
-0.326592
-0.321457
-0.315809
-0.309689
-0.303126
-0.296146
-0.28877
-0.28102
-0.272926
-0.264559
-0.256009
-0.247089
-0.237382
-0.230226
-0.359785
-0.357597
-0.354462
-0.350547
-0.345966
-0.340834
-0.335232
-0.329206
-0.322785
-0.315982
-0.308802
-0.301245
-0.293306
-0.284978
-0.276261
-0.267206
-0.2579
-0.248061
-0.236907
-0.228919
-0.381296
-0.376152
-0.370615
-0.364796
-0.358562
-0.351981
-0.345121
-0.338007
-0.330636
-0.322995
-0.315062
-0.306811
-0.298211
-0.289229
-0.279838
-0.270063
-0.259987
-0.249258
-0.236684
-0.22742
-0.405164
-0.396791
-0.388605
-0.380659
-0.372562
-0.364336
-0.356039
-0.347668
-0.33919
-0.330563
-0.321739
-0.312667
-0.303292
-0.29356
-0.283417
-0.272856
-0.261924
-0.250191
-0.236107
-0.225099
-0.430857
-0.419064
-0.408055
-0.39784
-0.387746
-0.377742
-0.367875
-0.358112
-0.348389
-0.338638
-0.328787
-0.318771
-0.308526
-0.297994
-0.287123
-0.275889
-0.264258
-0.251716
-0.236886
-0.225358
-0.457832
-0.442485
-0.428579
-0.41604
-0.403891
-0.392037
-0.380504
-0.369227
-0.358111
-0.347064
-0.336004
-0.324869
-0.313618
-0.302245
-0.290789
-0.279342
-0.26803
-0.257094
-0.247767
-0.242366
-0.485399
-0.466459
-0.449668
-0.434838
-0.420641
-0.406898
-0.393605
-0.380657
-0.367925
-0.355293
-0.342669
-0.329989
-0.317221
-0.304369
-0.291477
-0.278621
-0.265894
-0.25357
-0.242567
-0.232134
-0.512554
-0.4901
-0.470552
-0.453541
-0.437348
-0.421689
-0.406516
-0.391688
-0.37705
-0.362477
-0.347887
-0.333236
-0.318519
-0.30377
-0.289053
-0.274449
-0.260049
-0.246042
-0.232843
-0.219321
-0.537846
-0.512133
-0.490078
-0.471062
-0.452943
-0.435312
-0.418083
-0.40109
-0.384177
-0.367245
-0.350251
-0.333203
-0.316151
-0.299176
-0.282378
-0.265861
-0.249722
-0.234112
-0.219233
-0.204105
-0.559335
-0.530827
-0.506648
-0.485854
-0.465872
-0.446174
-0.426655
-0.407166
-0.387595
-0.367915
-0.348169
-0.328455
-0.3089
-0.289652
-0.270854
-0.252636
-0.235106
-0.218394
-0.202604
-0.186964
-0.57463
-0.544025
-0.518228
-0.495914
-0.47412
-0.452232
-0.430177
-0.407882
-0.385346
-0.362668
-0.340021
-0.31761
-0.295652
-0.274348
-0.25387
-0.234348
-0.215876
-0.198541
-0.182362
-0.166739
-0.581021
-0.549236
-0.522437
-0.498888
-0.475336
-0.451156
-0.426383
-0.401102
-0.375488
-0.349816
-0.324407
-0.299577
-0.275608
-0.25273
-0.231104
-0.21083
-0.191956
-0.174498
-0.158386
-0.143226
-0.575684
-0.543816
-0.516715
-0.492251
-0.467043
-0.440568
-0.413064
-0.384852
-0.356342
-0.328005
-0.300302
-0.273631
-0.248302
-0.224524
-0.202416
-0.182015
-0.163303
-0.146202
-0.130568
-0.116306
-0.555943
-0.525209
-0.498566
-0.47356
-0.44691
-0.418324
-0.388338
-0.357575
-0.326701
-0.29637
-0.267149
-0.239468
-0.213614
-0.189738
-0.167883
-0.148012
-0.130029
-0.113758
-0.0990126
-0.0861015
-0.519557
-0.49122
-0.465835
-0.440749
-0.413042
-0.382792
-0.3509
-0.318317
-0.285954
-0.254604
-0.22488
-0.197188
-0.171747
-0.148621
-0.127763
-0.109058
-0.0923358
-0.0773233
-0.0638083
-0.0525586
-0.464995
-0.440293
-0.416987
-0.392403
-0.364245
-0.333073
-0.300184
-0.266843
-0.234149
-0.20297
-0.1739
-0.147276
-0.123217
-0.101685
-0.0825444
-0.0656134
-0.0506548
-0.0373016
-0.0253098
-0.0160256
-0.391682
-0.371757
-0.351358
-0.327985
-0.300214
-0.269146
-0.236456
-0.203659
-0.171971
-0.142261
-0.115051
-0.0905687
-0.0688252
-0.0496855
-0.0329405
-0.0183578
-0.00564225
0.00568006
0.0157596
0.0225325
-0.300158
-0.285999
-0.269318
-0.247991
-0.221634
-0.191914
-0.160805
-0.129985
-0.10069
-0.0737459
-0.0495475
-0.0282046
-0.00962236
0.00641495
0.0201691
0.0319033
0.0419585
0.0508967
0.05878
0.0628048
-0.192129
-0.184553
-0.172358
-0.153997
-0.130166
-0.103152
-0.0750709
-0.047655
-0.0221036
0.000893298
0.0210582
0.0383993
0.053102
0.0654407
0.0757075
0.0841802
0.0912337
0.09749
0.102891
0.103951
-0.0703185
-0.0701583
-0.0630543
-0.048509
-0.0284703
-0.00547373
0.01823
0.0409473
0.0615999
0.0796454
0.0949365
0.107581
0.117827
0.125979
0.132337
0.137182
0.140886
0.144016
0.146369
0.144441
0.060916
0.0537311
0.0550908
0.0649311
0.0801497
0.0979458
0.116109
0.133075
0.147929
0.160282
0.170106
0.177582
0.182987
0.186624
0.188778
0.189707
0.189654
0.188833
0.187086
0.182519
0.19718
0.182443
0.177734
0.182214
0.191761
0.203447
0.21522
0.225712
0.234195
0.240436
0.244509
0.246652
0.247165
0.246353
0.244514
0.241926
0.238641
0.234214
0.229032
0.22884
0.333083
0.310958
0.300063
0.298771
0.302096
0.307115
0.312015
0.315664
0.317524
0.317498
0.31574
0.312517
0.30813
0.302867
0.297004
0.290778
0.284201
0.276988
0.269856
0.267151
0.463027
0.433965
0.417029
0.409867
0.406796
0.405007
0.402974
0.399813
0.395169
0.389057
0.381686
0.373336
0.364293
0.354814
0.345135
0.335437
0.325728
0.315846
0.306444
0.300619
0.581485
0.546191
0.523642
0.510857
0.501627
0.49332
0.484716
0.475167
0.464479
0.452757
0.440243
0.427217
0.413937
0.400628
0.387479
0.374628
0.36208
0.349728
0.338059
0.329209
0.683295
0.642705
0.615253
0.597448
0.582702
0.568589
0.554178
0.539029
0.523081
0.506505
0.489564
0.472524
0.455619
0.439036
0.422924
0.407384
0.392419
0.377959
0.364321
0.352856
0.763948
0.719197
0.68781
0.665913
0.646665
0.627835
0.608732
0.589086
0.568936
0.548499
0.528047
0.507833
0.488065
0.4689
0.450452
0.432793
0.415926
0.39981
0.384611
0.371058
0.81983
0.772212
0.738072
0.713283
0.690853
0.668698
0.646302
0.623514
0.600437
0.577318
0.554434
0.532025
0.510279
0.489331
0.469272
0.450152
0.431978
0.414723
0.398445
0.383438
0.848419
0.799338
0.763783
0.737497
0.713419
0.689547
0.665455
0.64105
0.616471
0.59198
0.567851
0.54432
0.521564
0.499706
0.478825
0.45896
0.440119
0.422286
0.405456
0.389703
0.848419
0.799338
0.763783
0.737497
0.713419
0.689547
0.665455
0.64105
0.616471
0.59198
0.567851
0.54432
0.521564
0.499706
0.478825
0.45896
0.440119
0.422286
0.405456
0.389703
0.81983
0.772212
0.738072
0.713283
0.690853
0.668698
0.646302
0.623514
0.600437
0.577318
0.554434
0.532025
0.510279
0.489331
0.469272
0.450152
0.431978
0.414723
0.398445
0.383438
0.763948
0.719197
0.68781
0.665913
0.646665
0.627835
0.608732
0.589086
0.568936
0.548499
0.528047
0.507833
0.488065
0.4689
0.450452
0.432793
0.415926
0.39981
0.384611
0.371058
0.683295
0.642705
0.615253
0.597448
0.582702
0.568589
0.554178
0.539029
0.523081
0.506505
0.489564
0.472524
0.455619
0.439036
0.422924
0.407384
0.392419
0.377959
0.364321
0.352856
0.581485
0.546191
0.523642
0.510857
0.501627
0.49332
0.484716
0.475167
0.464479
0.452757
0.440243
0.427217
0.413937
0.400628
0.387479
0.374628
0.36208
0.349728
0.338059
0.329209
0.463027
0.433965
0.417029
0.409867
0.406796
0.405007
0.402974
0.399813
0.395169
0.389057
0.381686
0.373336
0.364293
0.354814
0.345135
0.335437
0.325728
0.315846
0.306444
0.300619
0.333083
0.310958
0.300063
0.298771
0.302096
0.307115
0.312015
0.315664
0.317524
0.317498
0.31574
0.312517
0.30813
0.302867
0.297004
0.290778
0.284201
0.276988
0.269856
0.267151
0.19718
0.182443
0.177734
0.182214
0.191761
0.203447
0.21522
0.225712
0.234195
0.240436
0.244509
0.246652
0.247165
0.246353
0.244514
0.241926
0.238641
0.234214
0.229032
0.22884
0.060916
0.0537311
0.0550908
0.0649311
0.0801497
0.0979458
0.116109
0.133075
0.147929
0.160282
0.170106
0.177582
0.182987
0.186624
0.188778
0.189707
0.189654
0.188833
0.187086
0.182519
-0.0703185
-0.0701583
-0.0630543
-0.048509
-0.0284703
-0.00547373
0.01823
0.0409473
0.0615999
0.0796454
0.0949365
0.107581
0.117827
0.125979
0.132337
0.137182
0.140886
0.144016
0.146369
0.144441
-0.192129
-0.184553
-0.172358
-0.153997
-0.130166
-0.103152
-0.0750709
-0.047655
-0.0221036
0.000893299
0.0210582
0.0383993
0.053102
0.0654407
0.0757075
0.0841802
0.0912337
0.09749
0.102891
0.103951
-0.300158
-0.285999
-0.269318
-0.247991
-0.221634
-0.191914
-0.160805
-0.129985
-0.10069
-0.0737459
-0.0495475
-0.0282046
-0.00962236
0.00641495
0.0201691
0.0319033
0.0419585
0.0508967
0.05878
0.0628048
-0.391682
-0.371757
-0.351358
-0.327985
-0.300214
-0.269146
-0.236456
-0.203659
-0.171971
-0.142261
-0.115051
-0.0905687
-0.0688252
-0.0496855
-0.0329405
-0.0183578
-0.00564225
0.00568006
0.0157596
0.0225325
-0.464995
-0.440293
-0.416987
-0.392403
-0.364245
-0.333073
-0.300184
-0.266843
-0.234149
-0.20297
-0.1739
-0.147276
-0.123217
-0.101685
-0.0825444
-0.0656134
-0.0506548
-0.0373016
-0.0253098
-0.0160256
-0.519557
-0.49122
-0.465835
-0.440749
-0.413042
-0.382792
-0.3509
-0.318317
-0.285954
-0.254604
-0.22488
-0.197188
-0.171747
-0.148621
-0.127763
-0.109058
-0.0923358
-0.0773233
-0.0638083
-0.0525586
-0.555943
-0.525209
-0.498566
-0.47356
-0.44691
-0.418324
-0.388338
-0.357575
-0.326701
-0.29637
-0.267149
-0.239468
-0.213614
-0.189738
-0.167883
-0.148012
-0.130029
-0.113758
-0.0990126
-0.0861014
-0.575684
-0.543816
-0.516715
-0.492251
-0.467043
-0.440568
-0.413064
-0.384852
-0.356342
-0.328005
-0.300302
-0.273631
-0.248302
-0.224524
-0.202416
-0.182015
-0.163303
-0.146202
-0.130568
-0.116306
-0.581021
-0.549236
-0.522437
-0.498888
-0.475336
-0.451156
-0.426383
-0.401102
-0.375488
-0.349816
-0.324407
-0.299577
-0.275608
-0.25273
-0.231104
-0.21083
-0.191956
-0.174498
-0.158386
-0.143226
-0.57463
-0.544025
-0.518228
-0.495914
-0.47412
-0.452232
-0.430177
-0.407882
-0.385346
-0.362668
-0.340021
-0.31761
-0.295652
-0.274348
-0.25387
-0.234348
-0.215876
-0.198541
-0.182362
-0.166739
-0.559335
-0.530827
-0.506648
-0.485854
-0.465872
-0.446174
-0.426655
-0.407166
-0.387595
-0.367915
-0.348169
-0.328455
-0.3089
-0.289652
-0.270854
-0.252636
-0.235106
-0.218394
-0.202604
-0.186964
-0.537846
-0.512133
-0.490078
-0.471062
-0.452943
-0.435312
-0.418083
-0.40109
-0.384177
-0.367245
-0.350251
-0.333203
-0.316151
-0.299176
-0.282378
-0.265861
-0.249722
-0.234112
-0.219233
-0.204105
-0.512554
-0.4901
-0.470552
-0.453541
-0.437348
-0.421689
-0.406516
-0.391688
-0.37705
-0.362477
-0.347887
-0.333236
-0.318519
-0.30377
-0.289053
-0.274449
-0.260049
-0.246042
-0.232843
-0.219321
-0.485399
-0.466459
-0.449668
-0.434838
-0.420641
-0.406898
-0.393605
-0.380657
-0.367925
-0.355293
-0.342669
-0.329989
-0.317221
-0.304369
-0.291477
-0.278621
-0.265894
-0.25357
-0.242567
-0.232134
-0.457832
-0.442485
-0.428579
-0.41604
-0.403891
-0.392037
-0.380504
-0.369227
-0.358111
-0.347064
-0.336004
-0.324869
-0.313618
-0.302245
-0.290789
-0.279342
-0.26803
-0.257094
-0.247767
-0.242366
-0.430857
-0.419064
-0.408055
-0.39784
-0.387746
-0.377742
-0.367875
-0.358112
-0.348389
-0.338638
-0.328787
-0.318771
-0.308526
-0.297994
-0.287123
-0.275889
-0.264258
-0.251716
-0.236886
-0.225358
-0.405164
-0.396791
-0.388605
-0.380659
-0.372562
-0.364336
-0.356039
-0.347668
-0.33919
-0.330563
-0.321739
-0.312667
-0.303292
-0.29356
-0.283417
-0.272856
-0.261924
-0.250191
-0.236107
-0.225099
-0.381296
-0.376152
-0.370615
-0.364796
-0.358562
-0.351981
-0.345121
-0.338007
-0.330636
-0.322995
-0.315062
-0.306811
-0.298211
-0.289229
-0.279838
-0.270063
-0.259987
-0.249258
-0.236684
-0.22742
-0.359785
-0.357597
-0.354462
-0.350547
-0.345966
-0.340834
-0.335232
-0.329206
-0.322785
-0.315982
-0.308802
-0.301245
-0.293306
-0.284978
-0.276261
-0.267206
-0.2579
-0.248061
-0.236907
-0.228919
-0.341257
-0.341658
-0.340591
-0.338287
-0.33509
-0.33116
-0.326592
-0.321457
-0.315809
-0.309689
-0.303126
-0.296146
-0.28877
-0.28102
-0.272926
-0.264559
-0.256009
-0.247089
-0.237382
-0.230226
-0.326432
-0.328934
-0.329517
-0.328474
-0.326347
-0.323338
-0.319556
-0.315094
-0.31003
-0.304428
-0.298338
-0.29181
-0.28489
-0.277624
-0.27007
-0.262312
-0.254441
-0.246381
-0.237982
-0.231294
-0.316035
-0.320028
-0.321763
-0.321587
-0.320186
-0.317798
-0.314542
-0.310529
-0.305855
-0.300598
-0.29483
-0.288614
-0.282018
-0.275106
-0.267955
-0.260655
-0.253299
-0.245906
-0.238494
-0.23202
-0.310667
-0.315435
-0.317763
-0.318028
-0.316994
-0.314917
-0.311925
-0.308136
-0.303656
-0.298573
-0.292966
-0.286912
-0.280483
-0.27376
-0.266825
-0.259771
-0.252693
-0.245667
-0.238782
-0.23238
-0.227016
-0.220893
-0.214529
-0.208252
-0.202079
-0.195984
-0.189966
-0.184036
-0.178204
-0.172476
-0.166856
-0.16135
-0.155963
-0.150699
-0.14556
-0.140551
-0.135673
-0.130928
-0.126316
-0.12184
-0.117498
-0.11329
-0.109215
-0.105272
-0.10146
-0.0977759
-0.0942179
-0.0907835
-0.0874698
-0.0842742
-0.0811935
-0.0782246
-0.0753645
-0.0726097
-0.069957
-0.0674031
-0.0649448
-0.0625786
-0.0603014
-0.05811
-0.0560012
-0.0539719
-0.052019
-0.0501397
-0.0483309
-0.0465899
-0.044914
-0.0433004
-0.0417467
-0.0402504
-0.0388091
-0.0374204
-0.0360822
-0.0347923
-0.0335486
-0.0323492
-0.0311922
-0.0300758
-0.0289982
-0.0279577
-0.0269528
-0.0259819
-0.0250435
-0.0241363
-0.023259
-0.0224101
-0.0215886
-0.0207933
-0.020023
-0.0192766
-0.0185533
-0.017852
-0.0171717
-0.0165117
-0.0158711
-0.0152491
-0.0146449
-0.0140578
-0.0134872
-0.0129324
-0.0123927
-0.0118676
-0.0113565
-0.0108589
-0.0103743
-0.00990214
-0.00944204
-0.00899354
-0.00855622
-0.00812968
-0.00771356
-0.00730748
-0.00691111
-0.00652413
-0.00614621
-0.00577706
-0.00541639
-0.00506392
-0.00471939
-0.00438254
-0.0040531
-0.00373083
-0.00341548
-0.0031068
-0.00280452
-0.0025084
-0.00221814
-0.00193347
-0.00165406
-0.00137956
-0.0011096
-0.000843717
-0.000581431
-0.000322073
-6.46375e-05
0.000190518
0.00043736
0.000696736
0.00113072
0.00145186
-0.228951
-0.222935
-0.216126
-0.209614
-0.203347
-0.197183
-0.191101
-0.185117
-0.179238
-0.173468
-0.167812
-0.162272
-0.156853
-0.151558
-0.146391
-0.141354
-0.13645
-0.131679
-0.127043
-0.122543
-0.118178
-0.113948
-0.109853
-0.105889
-0.102057
-0.0983534
-0.0947766
-0.0913239
-0.0879926
-0.0847798
-0.0816825
-0.0786975
-0.0758217
-0.0730517
-0.0703844
-0.0678163
-0.0653441
-0.0629646
-0.0606745
-0.0584706
-0.0563497
-0.0543087
-0.0523445
-0.0504541
-0.0486348
-0.0468836
-0.0451977
-0.0435746
-0.0420117
-0.0405065
-0.0390565
-0.0376595
-0.0363133
-0.0350156
-0.0337644
-0.0325578
-0.0313938
-0.0302706
-0.0291864
-0.0281397
-0.0271286
-0.0261519
-0.0252078
-0.0242951
-0.0234124
-0.0225585
-0.021732
-0.0209318
-0.0201569
-0.019406
-0.0186784
-0.0179728
-0.0172885
-0.0166246
-0.0159801
-0.0153544
-0.0147466
-0.0141561
-0.0135821
-0.013024
-0.0124812
-0.011953
-0.011439
-0.0109385
-0.0104511
-0.00997623
-0.0095135
-0.00906246
-0.00862267
-0.00819374
-0.0077753
-0.00736698
-0.00696844
-0.00657934
-0.00619939
-0.00582827
-0.00546571
-0.00511142
-0.00476514
-0.0044266
-0.00409557
-0.00377178
-0.003455
-0.00314499
-0.00284149
-0.00254425
-0.00225302
-0.00196752
-0.00168747
-0.00141253
-0.00114238
-0.000876606
-0.000614785
-0.000356339
-0.000100384
0.000152704
0.000397165
0.000652016
0.00107026
0.00138379
-0.232621
-0.226908
-0.219226
-0.212232
-0.205774
-0.199473
-0.193261
-0.187164
-0.181192
-0.175343
-0.169616
-0.164012
-0.158533
-0.153184
-0.147965
-0.142879
-0.137928
-0.133113
-0.128434
-0.123892
-0.119487
-0.115218
-0.111084
-0.107084
-0.103215
-0.0994768
-0.0958657
-0.0923796
-0.0890157
-0.0857711
-0.0826428
-0.0796276
-0.0767224
-0.0739238
-0.0712285
-0.0686333
-0.0661348
-0.0637297
-0.0614147
-0.0591867
-0.0570423
-0.0549786
-0.0529924
-0.0510807
-0.0492406
-0.0474693
-0.0457641
-0.0441222
-0.0425411
-0.0410183
-0.0395513
-0.0381379
-0.0367757
-0.0354626
-0.0341965
-0.0329755
-0.0317976
-0.0306609
-0.0295638
-0.0285044
-0.0274812
-0.0264927
-0.0255373
-0.0246136
-0.0237203
-0.022856
-0.0220196
-0.0212098
-0.0204255
-0.0196657
-0.0189293
-0.0182153
-0.0175228
-0.016851
-0.0161989
-0.0155657
-0.0149508
-0.0143533
-0.0137726
-0.0132079
-0.0126587
-0.0121244
-0.0116044
-0.0110982
-0.0106052
-0.0101249
-0.00965694
-0.00920079
-0.00875606
-0.00832234
-0.00789924
-0.00748642
-0.00708352
-0.0066902
-0.00630617
-0.00593111
-0.00556474
-0.00520679
-0.00485699
-0.00451508
-0.00418083
-0.00385399
-0.00353433
-0.00322162
-0.00291563
-0.00261614
-0.00232291
-0.0020357
-0.00175427
-0.00147836
-0.00120769
-0.000941961
-0.000680856
-0.000423955
-0.000170598
7.88034e-05
0.000318996
0.000565726
0.000955075
0.00125435
-0.237588
-0.232482
-0.223569
-0.215864
-0.209133
-0.202634
-0.196226
-0.189961
-0.183854
-0.177893
-0.17207
-0.166381
-0.160827
-0.155409
-0.150127
-0.144982
-0.139975
-0.135106
-0.130376
-0.125784
-0.12133
-0.117014
-0.112833
-0.108787
-0.104873
-0.10109
-0.0974349
-0.0939054
-0.0904987
-0.0872121
-0.0840424
-0.0809865
-0.0780414
-0.0752036
-0.07247
-0.0698371
-0.0673019
-0.0648608
-0.0625108
-0.0602485
-0.0580708
-0.0559745
-0.0539566
-0.0520142
-0.0501442
-0.0483438
-0.0466104
-0.0449411
-0.0433334
-0.0417847
-0.0402927
-0.038855
-0.0374693
-0.0361335
-0.0348453
-0.033603
-0.0324044
-0.0312477
-0.0301311
-0.029053
-0.0280117
-0.0270055
-0.0260331
-0.025093
-0.0241837
-0.023304
-0.0224527
-0.0216284
-0.0208302
-0.0200568
-0.0193073
-0.0185807
-0.0178759
-0.0171921
-0.0165285
-0.0158842
-0.0152584
-0.0146505
-0.0140596
-0.0134851
-0.0129264
-0.0123829
-0.0118539
-0.011339
-0.0108375
-0.0103491
-0.00987319
-0.00940936
-0.00895718
-0.00851624
-0.00808615
-0.00766655
-0.00725708
-0.00685741
-0.00646723
-0.00608623
-0.00571413
-0.00535065
-0.00499554
-0.00464855
-0.00430943
-0.00397796
-0.00365393
-0.00333711
-0.00302731
-0.00272432
-0.00242796
-0.00213803
-0.00185434
-0.00157671
-0.00130496
-0.00103889
-0.000778347
-0.000523099
-0.000272773
-2.7841e-05
0.000207128
0.00044381
0.000795734
0.00107594
-0.243131
-0.238938
-0.228602
-0.220069
-0.213042
-0.20631
-0.199656
-0.193186
-0.186921
-0.180836
-0.174908
-0.169132
-0.163504
-0.158021
-0.152681
-0.147483
-0.142426
-0.137509
-0.132733
-0.128095
-0.123596
-0.119234
-0.115008
-0.110915
-0.106955
-0.103126
-0.0994238
-0.0958472
-0.0923935
-0.0890597
-0.085843
-0.0827403
-0.0797486
-0.0768646
-0.0740852
-0.0714072
-0.0688273
-0.0663423
-0.063949
-0.0616442
-0.0594248
-0.0572878
-0.0552299
-0.0532484
-0.0513403
-0.0495027
-0.047733
-0.0460283
-0.0443862
-0.0428041
-0.0412795
-0.0398101
-0.0383937
-0.037028
-0.0357109
-0.0344404
-0.0332145
-0.0320314
-0.0308892
-0.0297863
-0.0287208
-0.0276914
-0.0266963
-0.0257343
-0.0248038
-0.0239036
-0.0230324
-0.0221889
-0.021372
-0.0205805
-0.0198135
-0.0190699
-0.0183487
-0.017649
-0.01697
-0.0163107
-0.0156705
-0.0150485
-0.0144441
-0.0138564
-0.013285
-0.012729
-0.0121881
-0.0116615
-0.0111488
-0.0106495
-0.010163
-0.00968886
-0.00922671
-0.00877612
-0.00833667
-0.007908
-0.00748975
-0.00708158
-0.00668317
-0.00629423
-0.00591445
-0.00554357
-0.00518134
-0.0048275
-0.00448183
-0.00414412
-0.00381415
-0.00349175
-0.00317672
-0.0028689
-0.00256814
-0.00227431
-0.00198727
-0.00170692
-0.00143317
-0.00116597
-0.000905284
-0.000651105
-0.00040335
-0.000162564
6.74654e-05
0.000294283
0.000606028
0.000864922
-0.248049
-0.244914
-0.233305
-0.2241
-0.216868
-0.209909
-0.203004
-0.196335
-0.189927
-0.183733
-0.177723
-0.171885
-0.16621
-0.160692
-0.155324
-0.150101
-0.145022
-0.140083
-0.135284
-0.130622
-0.126096
-0.121704
-0.117446
-0.11332
-0.109323
-0.105455
-0.101713
-0.0980936
-0.094596
-0.091217
-0.087954
-0.0848043
-0.0817648
-0.0788326
-0.0760048
-0.0732782
-0.0706499
-0.0681166
-0.0656754
-0.0633231
-0.0610568
-0.0588734
-0.0567699
-0.0547435
-0.0527913
-0.0509105
-0.0490984
-0.0473523
-0.0456697
-0.044048
-0.0424849
-0.040978
-0.0395249
-0.0381236
-0.0367718
-0.0354676
-0.0342089
-0.0329939
-0.0318208
-0.0306878
-0.0295933
-0.0285355
-0.0275131
-0.0265244
-0.0255682
-0.0246429
-0.0237475
-0.0228804
-0.0220408
-0.0212272
-0.0204388
-0.0196744
-0.0189332
-0.018214
-0.0175161
-0.0168386
-0.0161806
-0.0155414
-0.0149202
-0.0143164
-0.0137293
-0.0131582
-0.0126025
-0.0120617
-0.0115351
-0.0110223
-0.0105228
-0.010036
-0.00956164
-0.00909915
-0.00864819
-0.00820834
-0.00777927
-0.00736061
-0.00695206
-0.00655329
-0.00616402
-0.00578398
-0.00541291
-0.00505057
-0.00469675
-0.00435123
-0.00401383
-0.00368436
-0.00336269
-0.00304867
-0.00274219
-0.00244316
-0.00215151
-0.00186721
-0.00159025
-0.00132069
-0.00105864
-0.000804248
-0.00055769
-0.000319574
-9.28856e-05
0.000126366
0.000400982
0.000639349
-0.250355
-0.248084
-0.236102
-0.227069
-0.220027
-0.21305
-0.206087
-0.199386
-0.192951
-0.186726
-0.180689
-0.17483
-0.169141
-0.163611
-0.158232
-0.153001
-0.147912
-0.142962
-0.138149
-0.133471
-0.128926
-0.124512
-0.120227
-0.116071
-0.112042
-0.108137
-0.104356
-0.100695
-0.0971539
-0.0937289
-0.0904181
-0.087219
-0.084129
-0.0811453
-0.0782652
-0.0754858
-0.0728042
-0.0702176
-0.0677231
-0.0653177
-0.0629985
-0.0607627
-0.0586073
-0.0565296
-0.0545269
-0.0525963
-0.0507353
-0.0489412
-0.0472115
-0.0455437
-0.0439354
-0.0423843
-0.0408882
-0.0394448
-0.038052
-0.0367078
-0.0354102
-0.0341574
-0.0329474
-0.0317785
-0.0306491
-0.0295575
-0.0285022
-0.0274816
-0.0264943
-0.025539
-0.0246142
-0.0237189
-0.0228517
-0.0220115
-0.0211972
-0.0204077
-0.0196421
-0.0188994
-0.0181786
-0.0174788
-0.0167994
-0.0161393
-0.0154979
-0.0148745
-0.0142684
-0.0136788
-0.0131052
-0.012547
-0.0120036
-0.0114745
-0.0109591
-0.010457
-0.00996775
-0.00949082
-0.00902584
-0.00857242
-0.00813018
-0.00769877
-0.00727785
-0.00686711
-0.00646626
-0.00607503
-0.00569315
-0.0053204
-0.00495654
-0.00460139
-0.00425476
-0.0039165
-0.00358648
-0.00326457
-0.0029507
-0.00264482
-0.0023469
-0.00205697
-0.00177508
-0.00150138
-0.00123604
-0.000979346
-0.000731622
-0.000493489
-0.000267145
-5.11438e-05
0.000194568
0.000416544
-0.249131
-0.245222
-0.23455
-0.226721
-0.220032
-0.213254
-0.206594
-0.200206
-0.194041
-0.188057
-0.182243
-0.176592
-0.171092
-0.165733
-0.160511
-0.155418
-0.150453
-0.145611
-0.14089
-0.13629
-0.131809
-0.127446
-0.123201
-0.119072
-0.115059
-0.111161
-0.107376
-0.103705
-0.100144
-0.096694
-0.0933517
-0.0901158
-0.0869842
-0.0839549
-0.0810257
-0.0781943
-0.0754583
-0.0728152
-0.0702625
-0.0677978
-0.0654184
-0.0631218
-0.0609054
-0.0587666
-0.0567029
-0.0547117
-0.0527905
-0.0509369
-0.0491484
-0.0474228
-0.0457577
-0.0441507
-0.0425999
-0.0411029
-0.0396577
-0.0382624
-0.0369149
-0.0356134
-0.034356
-0.0331411
-0.0319668
-0.0308316
-0.0297339
-0.0286722
-0.027645
-0.0266509
-0.0256887
-0.0247569
-0.0238545
-0.0229801
-0.0221327
-0.0213111
-0.0205144
-0.0197416
-0.0189917
-0.0182638
-0.017557
-0.0168705
-0.0162035
-0.0155554
-0.0149252
-0.0143125
-0.0137164
-0.0131365
-0.012572
-0.0120225
-0.0114874
-0.0109662
-0.0104584
-0.0099635
-0.00948116
-0.00901092
-0.0085524
-0.00810522
-0.00766905
-0.00724355
-0.00682842
-0.00642338
-0.00602817
-0.00564254
-0.00526628
-0.00489918
-0.00454107
-0.0041918
-0.00385125
-0.00351931
-0.00319594
-0.00288108
-0.00257476
-0.00227702
-0.00198797
-0.00170777
-0.00143665
-0.00117492
-0.000922936
-0.000681253
-0.000451249
-0.000232658
-3.76838e-06
0.000208896
-0.219133
-0.219072
-0.218604
-0.215845
-0.21155
-0.206626
-0.201461
-0.196165
-0.190801
-0.185432
-0.180105
-0.174844
-0.169664
-0.164575
-0.159582
-0.154688
-0.149898
-0.145211
-0.14063
-0.136154
-0.131786
-0.127526
-0.123373
-0.119328
-0.115391
-0.111562
-0.107839
-0.104223
-0.100713
-0.0973073
-0.0940047
-0.0908038
-0.087703
-0.0847005
-0.0817943
-0.0789826
-0.0762631
-0.0736337
-0.071092
-0.0686358
-0.0662627
-0.0639703
-0.0617562
-0.059618
-0.0575533
-0.0555597
-0.0536349
-0.0517765
-0.0499822
-0.0482497
-0.046577
-0.0449617
-0.0434018
-0.0418952
-0.0404399
-0.039034
-0.0376755
-0.0363627
-0.0350938
-0.033867
-0.0326808
-0.0315334
-0.0304234
-0.0293494
-0.0283098
-0.0273033
-0.0263286
-0.0253844
-0.0244695
-0.0235827
-0.022723
-0.0218893
-0.0210804
-0.0202956
-0.0195337
-0.018794
-0.0180755
-0.0173775
-0.0166991
-0.0160396
-0.0153984
-0.0147746
-0.0141677
-0.013577
-0.013002
-0.0124421
-0.0118967
-0.0113654
-0.0108477
-0.010343
-0.00985103
-0.0093713
-0.00890345
-0.00844709
-0.0080019
-0.00756753
-0.00714371
-0.00673013
-0.00632655
-0.00593273
-0.00554846
-0.00517354
-0.00480782
-0.00445115
-0.00410342
-0.00376455
-0.0034345
-0.00311325
-0.00280083
-0.00249733
-0.00220285
-0.00191759
-0.00164177
-0.00137572
-0.00111979
-0.000874448
-0.000640405
-0.000417923
-0.000200936
2.12443e-06
-0.206897
-0.206005
-0.20368
-0.200148
-0.196136
-0.191967
-0.187683
-0.183295
-0.178841
-0.174361
-0.169883
-0.165423
-0.160995
-0.156607
-0.152269
-0.147986
-0.143765
-0.139611
-0.135526
-0.131515
-0.12758
-0.123724
-0.119949
-0.116256
-0.112648
-0.109125
-0.105688
-0.102337
-0.0990729
-0.0958956
-0.0928046
-0.0897994
-0.0868794
-0.0840435
-0.0812908
-0.07862
-0.0760298
-0.0735186
-0.0710849
-0.068727
-0.0664432
-0.0642317
-0.0620906
-0.0600182
-0.0580125
-0.0560715
-0.0541935
-0.0523764
-0.0506184
-0.0489177
-0.0472722
-0.0456804
-0.0441402
-0.04265
-0.041208
-0.0398126
-0.038462
-0.0371547
-0.0358891
-0.0346638
-0.0334771
-0.0323278
-0.0312143
-0.0301354
-0.0290898
-0.0280762
-0.0270935
-0.0261404
-0.0252159
-0.0243189
-0.0234483
-0.0226032
-0.0217825
-0.0209855
-0.0202111
-0.0194586
-0.0187271
-0.0180159
-0.0173242
-0.0166513
-0.0159966
-0.0153593
-0.0147389
-0.0141348
-0.0135463
-0.012973
-0.0124143
-0.0118698
-0.0113389
-0.0108213
-0.0103164
-0.009824
-0.00934357
-0.0088748
-0.00841735
-0.00797091
-0.00753519
-0.0071099
-0.0066948
-0.00628965
-0.00589425
-0.00550842
-0.005132
-0.00476485
-0.00440686
-0.00405798
-0.00371814
-0.00338735
-0.00306564
-0.00275307
-0.00244978
-0.00215593
-0.00187175
-0.00159753
-0.00133362
-0.00108045
-0.000838356
-0.000608133
-0.000396445
-0.000197678
-0.188168
-0.188794
-0.186396
-0.183348
-0.18041
-0.177433
-0.174269
-0.170921
-0.167444
-0.163866
-0.160228
-0.156547
-0.152839
-0.149119
-0.145399
-0.141692
-0.138006
-0.134349
-0.130729
-0.127151
-0.123621
-0.120142
-0.11672
-0.113357
-0.110056
-0.10682
-0.10365
-0.100548
-0.0975151
-0.0945527
-0.0916612
-0.0888409
-0.086092
-0.0834143
-0.0808074
-0.078271
-0.0758043
-0.0734064
-0.0710765
-0.0688135
-0.0666161
-0.0644832
-0.0624134
-0.0604054
-0.0584576
-0.0565686
-0.054737
-0.0529613
-0.0512398
-0.049571
-0.0479535
-0.0463857
-0.0448661
-0.0433932
-0.0419655
-0.0405816
-0.03924
-0.0379394
-0.0366783
-0.0354555
-0.0342696
-0.0331194
-0.0320036
-0.030921
-0.0298705
-0.0288509
-0.0278612
-0.0269002
-0.025967
-0.0250606
-0.02418
-0.0233243
-0.0224926
-0.021684
-0.0208978
-0.0201332
-0.0193893
-0.0186654
-0.0179609
-0.0172751
-0.0166073
-0.0159569
-0.0153233
-0.014706
-0.0141043
-0.0135178
-0.0129459
-0.0123883
-0.0118443
-0.0113137
-0.010796
-0.0102908
-0.00979765
-0.00931631
-0.00884642
-0.00838766
-0.00793974
-0.00750239
-0.00707537
-0.00665844
-0.00625139
-0.00585406
-0.00546626
-0.00508788
-0.0047188
-0.00435894
-0.00400825
-0.00366672
-0.00333436
-0.00301124
-0.00269744
-0.00239311
-0.00209844
-0.00181368
-0.00153914
-0.00127519
-0.00102189
-0.000780076
-0.00056469
-0.000364006
-0.168736
-0.171077
-0.169408
-0.167111
-0.165102
-0.163086
-0.160839
-0.158365
-0.155724
-0.152971
-0.15011
-0.147159
-0.144142
-0.141074
-0.13797
-0.134843
-0.131702
-0.128559
-0.12542
-0.122296
-0.119191
-0.116111
-0.113063
-0.110051
-0.107079
-0.10415
-0.101267
-0.0984341
-0.0956521
-0.0929233
-0.0902493
-0.0876313
-0.0850702
-0.0825666
-0.080121
-0.0777337
-0.0754045
-0.0731335
-0.0709201
-0.0687641
-0.0666647
-0.0646213
-0.062633
-0.0606991
-0.0588186
-0.0569903
-0.0552134
-0.0534866
-0.0518088
-0.0501788
-0.0485956
-0.0470577
-0.0455642
-0.0441137
-0.0427051
-0.0413371
-0.0400086
-0.0387184
-0.0374653
-0.0362482
-0.035066
-0.0339176
-0.0328019
-0.0317178
-0.0306644
-0.0296406
-0.0286455
-0.0276781
-0.0267375
-0.0258228
-0.0249332
-0.0240678
-0.0232257
-0.0224063
-0.0216088
-0.0208323
-0.0200763
-0.0193401
-0.0186229
-0.0179242
-0.0172433
-0.0165797
-0.0159327
-0.0153019
-0.0146868
-0.0140868
-0.0135014
-0.0129302
-0.0123728
-0.0118287
-0.0112975
-0.0107789
-0.0102725
-0.00977789
-0.00929484
-0.00882301
-0.0083621
-0.00791186
-0.00747202
-0.00704237
-0.00662269
-0.00621279
-0.0058125
-0.00542169
-0.00504023
-0.00466803
-0.00430502
-0.00395115
-0.00360643
-0.00327088
-0.00294454
-0.00262753
-0.00231997
-0.00202203
-0.00173396
-0.00145603
-0.00118812
-0.000930807
-0.000703597
-0.000494451
-0.150347
-0.153663
-0.15289
-0.151452
-0.150289
-0.14911
-0.147682
-0.146005
-0.144139
-0.142122
-0.139971
-0.137705
-0.13534
-0.132891
-0.130375
-0.127805
-0.125193
-0.122549
-0.119883
-0.117204
-0.114521
-0.111838
-0.109165
-0.106505
-0.103864
-0.101246
-0.0986556
-0.0960963
-0.093571
-0.0910824
-0.0886328
-0.0862243
-0.0838584
-0.0815367
-0.0792601
-0.0770296
-0.0748459
-0.0727093
-0.0706202
-0.0685787
-0.0665847
-0.0646381
-0.0627386
-0.0608857
-0.0590791
-0.0573181
-0.055602
-0.0539302
-0.0523019
-0.0507163
-0.0491726
-0.0476699
-0.0462072
-0.0447838
-0.0433986
-0.0420507
-0.0407392
-0.0394631
-0.0382215
-0.0370134
-0.035838
-0.0346943
-0.0335815
-0.0324985
-0.0314445
-0.0304188
-0.0294204
-0.0284485
-0.0275022
-0.0265809
-0.0256838
-0.02481
-0.023959
-0.0231298
-0.022322
-0.0215348
-0.0207675
-0.0200196
-0.0192904
-0.0185794
-0.017886
-0.0172096
-0.0165497
-0.0159058
-0.0152774
-0.014664
-0.0140652
-0.0134806
-0.0129096
-0.012352
-0.0118073
-0.0112752
-0.0107553
-0.0102472
-0.00975074
-0.00926549
-0.0087912
-0.0083276
-0.00787445
-0.0074315
-0.00699854
-0.00657537
-0.00616182
-0.00575773
-0.00536295
-0.00497736
-0.00460089
-0.00423344