/*--------------------------------*- C++ -*----------------------------------*\
  =========                 |
  \\      /  F ield         | OpenFOAM: The Open Source CFD Toolbox
   \\    /   O peration     | Website:  https://openfoam.org
    \\  /    A nd           | Version:  7
     \\/     M anipulation  |
\*---------------------------------------------------------------------------*/
FoamFile
{
    version     2.0;
    format      ascii;
    class       volVectorField;
    location    "5.001";
    object      U;
}
// * * * * * * * * * * * * * * * * * * * * * * * * * * * * * * * * * * * * * //

dimensions      [0 1 -1 0 0 0 0];

internalField   nonuniform List<vector> 
3700
(
(1.22117 0.195601 0)
(1.21502 0.185776 0)
(1.20765 0.161563 0)
(1.1997 0.144855 0)
(1.19192 0.129586 0)
(1.18449 0.11597 0)
(1.17751 0.103967 0)
(1.17104 0.0933445 0)
(1.16505 0.0838929 0)
(1.15952 0.0754533 0)
(1.15439 0.0678942 0)
(1.14963 0.0611023 0)
(1.14522 0.0549806 0)
(1.14113 0.0494458 0)
(1.13735 0.0444255 0)
(1.13387 0.0398568 0)
(1.13067 0.0356846 0)
(1.12776 0.0318603 0)
(1.1251 0.0283409 0)
(1.12271 0.0250882 0)
(1.12055 0.0220678 0)
(1.11864 0.0192491 0)
(1.11696 0.016604 0)
(1.1155 0.014107 0)
(1.11426 0.0117348 0)
(1.11323 0.00946536 0)
(1.11242 0.00727826 0)
(1.11181 0.00515435 0)
(1.1114 0.00307535 0)
(1.1112 0.0010213 0)
(1.19351 0.204627 0)
(1.1905 0.193757 0)
(1.18603 0.169348 0)
(1.18067 0.152547 0)
(1.17516 0.136898 0)
(1.16969 0.12293 0)
(1.16439 0.110577 0)
(1.15937 0.0995932 0)
(1.15464 0.0897777 0)
(1.15019 0.0809792 0)
(1.14601 0.0730688 0)
(1.14207 0.0659342 0)
(1.13838 0.059479 0)
(1.13492 0.0536206 0)
(1.1317 0.0482869 0)
(1.12871 0.0434152 0)
(1.12595 0.0389501 0)
(1.12341 0.0348427 0)
(1.12108 0.0310495 0)
(1.11898 0.0275316 0)
(1.11708 0.0242541 0)
(1.11538 0.0211855 0)
(1.11388 0.0182972 0)
(1.11258 0.0155628 0)
(1.11148 0.0129581 0)
(1.11056 0.0104605 0)
(1.10983 0.00804872 0)
(1.10928 0.00570278 0)
(1.10891 0.00340354 0)
(1.10873 0.00113086 0)
(1.16631 0.209417 0)
(1.16612 0.197737 0)
(1.16433 0.173882 0)
(1.16144 0.157393 0)
(1.15812 0.141765 0)
(1.15455 0.127805 0)
(1.15091 0.115397 0)
(1.14733 0.104297 0)
(1.14385 0.0943238 0)
(1.14049 0.0853411 0)
(1.13725 0.0772275 0)
(1.13415 0.0698766 0)
(1.13119 0.0631971 0)
(1.12838 0.0571098 0)
(1.12572 0.0515457 0)
(1.12323 0.0464437 0)
(1.12091 0.0417499 0)
(1.11876 0.0374163 0)
(1.11677 0.0334001 0)
(1.11496 0.0296626 0)
(1.11332 0.0261691 0)
(1.11185 0.0228881 0)
(1.11055 0.0197907 0)
(1.10942 0.0168503 0)
(1.10845 0.0140425 0)
(1.10764 0.0113443 0)
(1.10699 0.00873398 0)
(1.10651 0.00619109 0)
(1.10619 0.00369596 0)
(1.10603 0.00122845 0)
(1.14033 0.210237 0)
(1.14263 0.198095 0)
(1.14326 0.175452 0)
(1.14263 0.15961 0)
(1.14132 0.144361 0)
(1.13952 0.130718 0)
(1.13744 0.11851 0)
(1.13523 0.10751 0)
(1.13295 0.0975673 0)
(1.13064 0.0885618 0)
(1.12832 0.0803838 0)
(1.12603 0.0729366 0)
(1.12379 0.0661372 0)
(1.12161 0.0599126 0)
(1.11952 0.0541984 0)
(1.11752 0.0489373 0)
(1.11564 0.0440781 0)
(1.11387 0.0395747 0)
(1.11223 0.035386 0)
(1.11072 0.0314746 0)
(1.10935 0.0278065 0)
(1.1081 0.0243507 0)
(1.107 0.0210789 0)
(1.10603 0.0179648 0)
(1.1052 0.0149839 0)
(1.10451 0.0121133 0)
(1.10395 0.00933127 0)
(1.10353 0.00661727 0)
(1.10326 0.00395141 0)
(1.10312 0.00131369 0)
(1.11617 0.207661 0)
(1.12059 0.195332 0)
(1.12331 0.174418 0)
(1.12468 0.159499 0)
(1.12516 0.144935 0)
(1.12495 0.131858 0)
(1.12429 0.120058 0)
(1.12333 0.10934 0)
(1.12216 0.0995884 0)
(1.12082 0.0907002 0)
(1.11938 0.0825805 0)
(1.11786 0.0751454 0)
(1.1163 0.0683218 0)
(1.11473 0.0620449 0)
(1.11318 0.0562562 0)
(1.11167 0.0509034 0)
(1.11021 0.0459391 0)
(1.10883 0.0413203 0)
(1.10752 0.0370082 0)
(1.10631 0.0329673 0)
(1.10519 0.0291652 0)
(1.10418 0.025572 0)
(1.10326 0.0221603 0)
(1.10246 0.0189044 0)
(1.10177 0.0157805 0)
(1.10119 0.012766 0)
(1.10073 0.00983942 0)
(1.10038 0.00698046 0)
(1.10014 0.00416936 0)
(1.10002 0.00138643 0)
(1.09424 0.202345 0)
(1.10038 0.190067 0)
(1.10482 0.17122 0)
(1.10788 0.157412 0)
(1.10989 0.143767 0)
(1.11106 0.131443 0)
(1.11164 0.12021 0)
(1.1118 0.10992 0)
(1.11163 0.100489 0)
(1.11119 0.0918348 0)
(1.11054 0.083878 0)
(1.10974 0.0765492 0)
(1.10882 0.0697866 0)
(1.10783 0.0635338 0)
(1.10679 0.0577398 0)
(1.10574 0.0523577 0)
(1.1047 0.0473447 0)
(1.10368 0.0426617 0)
(1.1027 0.038273 0)
(1.10177 0.0341454 0)
(1.10091 0.0302485 0)
(1.10011 0.0265543 0)
(1.09939 0.0230363 0)
(1.09875 0.0196703 0)
(1.09819 0.016433 0)
(1.09773 0.0133027 0)
(1.09735 0.0102586 0)
(1.09707 0.00728076 0)
(1.09688 0.00434984 0)
(1.09678 0.0014467 0)
(1.07477 0.194861 0)
(1.08223 0.182934 0)
(1.08801 0.166308 0)
(1.09242 0.153718 0)
(1.09567 0.141144 0)
(1.098 0.129694 0)
(1.09965 0.119142 0)
(1.10078 0.109389 0)
(1.10148 0.10038 0)
(1.10184 0.0920532 0)
(1.10191 0.0843462 0)
(1.10176 0.077204 0)
(1.10143 0.0705761 0)
(1.10097 0.0644152 0)
(1.10042 0.0586777 0)
(1.0998 0.053323 0)
(1.09915 0.0483133 0)
(1.09847 0.0436138 0)
(1.0978 0.0391922 0)
(1.09715 0.0350183 0)
(1.09653 0.0310641 0)
(1.09595 0.0273034 0)
(1.09541 0.0237117 0)
(1.09493 0.020266 0)
(1.09451 0.0169442 0)
(1.09415 0.0137257 0)
(1.09386 0.0105904 0)
(1.09363 0.00751922 0)
(1.09349 0.00449346 0)
(1.09341 0.00149471 0)
(1.0578 0.185823 0)
(1.06621 0.174504 0)
(1.07296 0.160087 0)
(1.07839 0.148758 0)
(1.08261 0.137332 0)
(1.08588 0.126823 0)
(1.08841 0.117025 0)
(1.09036 0.107886 0)
(1.09182 0.0993759 0)
(1.09286 0.09145 0)
(1.09357 0.0840635 0)
(1.09401 0.0771748 0)
(1.09421 0.0707444 0)
(1.09424 0.064734 0)
(1.09413 0.0591074 0)
(1.09391 0.0538304 0)
(1.09361 0.0488708 0)
(1.09327 0.0441981 0)
(1.09289 0.0397837 0)
(1.0925 0.0356008 0)
(1.0921 0.0316241 0)
(1.09172 0.0278296 0)
(1.09136 0.0241948 0)
(1.09103 0.0206982 0)
(1.09073 0.0173195 0)
(1.09048 0.014039 0)
(1.09027 0.0108379 0)
(1.09011 0.00769801 0)
(1.09 0.0046015 0)
(1.08995 0.00153087 0)
(1.04327 0.175747 0)
(1.05231 0.16522 0)
(1.05969 0.152909 0)
(1.06582 0.14283 0)
(1.07076 0.132572 0)
(1.07475 0.123029 0)
(1.07799 0.114029 0)
(1.08061 0.105555 0)
(1.0827 0.0975981 0)
(1.08434 0.090129 0)
(1.0856 0.0831185 0)
(1.08654 0.0765372 0)
(1.08722 0.0703557 0)
(1.08768 0.0645446 0)
(1.08797 0.0590751 0)
(1.08811 0.0539193 0)
(1.08815 0.0490504 0)
(1.0881 0.0444426 0)
(1.08799 0.0400713 0)
(1.08784 0.0359129 0)
(1.08766 0.0319452 0)
(1.08747 0.0281467 0)
(1.08727 0.024497 0)
(1.08708 0.0209765 0)
(1.08691 0.0175665 0)
(1.08675 0.0142487 0)
(1.08662 0.0110056 0)
(1.08652 0.00782024 0)
(1.08645 0.00467579 0)
(1.08641 0.00155581 0)
(1.03103 0.165025 0)
(1.0404 0.155418 0)
(1.04811 0.145058 0)
(1.05468 0.136189 0)
(1.06012 0.127083 0)
(1.06465 0.118506 0)
(1.06843 0.110323 0)
(1.07158 0.102545 0)
(1.07418 0.0951762 0)
(1.07632 0.0882028 0)
(1.07804 0.0816085 0)
(1.07942 0.075375 0)
(1.08051 0.0694822 0)
(1.08135 0.063909 0)
(1.08199 0.0586337 0)
(1.08246 0.0536348 0)
(1.08279 0.0488905 0)
(1.08302 0.04438 0)
(1.08315 0.0400825 0)
(1.08322 0.035978 0)
(1.08324 0.0320472 0)
(1.08322 0.0282713 0)
(1.08318 0.0246321 0)
(1.08312 0.021112 0)
(1.08306 0.0176941 0)
(1.08299 0.0143617 0)
(1.08294 0.0110988 0)
(1.08289 0.00788959 0)
(1.08285 0.00471849 0)
(1.08284 0.00157024 0)
(1.02091 0.153967 0)
(1.03033 0.145371 0)
(1.03813 0.136774 0)
(1.04493 0.129058 0)
(1.05068 0.121068 0)
(1.05557 0.113441 0)
(1.05975 0.106076 0)
(1.0633 0.0990044 0)
(1.06631 0.0922417 0)
(1.06883 0.0857863 0)
(1.07094 0.0796334 0)
(1.07269 0.0737745 0)
(1.07412 0.0681981 0)
(1.07529 0.0628909 0)
(1.07623 0.0578379 0)
(1.07699 0.0530234 0)
(1.07758 0.048431 0)
(1.07804 0.0440441 0)
(1.0784 0.039846 0)
(1.07867 0.0358203 0)
(1.07886 0.0319504 0)
(1.079 0.0282202 0)
(1.0791 0.024614 0)
(1.07916 0.0211162 0)
(1.0792 0.0177117 0)
(1.07923 0.0143855 0)
(1.07924 0.011123 0)
(1.07924 0.00790989 0)
(1.07924 0.00473186 0)
(1.07924 0.0015749 0)
(1.01269 0.142859 0)
(1.02193 0.135323 0)
(1.02965 0.128284 0)
(1.03649 0.121652 0)
(1.04239 0.114725 0)
(1.0475 0.108013 0)
(1.05194 0.101448 0)
(1.05578 0.0950758 0)
(1.05908 0.0889192 0)
(1.06191 0.082988 0)
(1.06432 0.077287 0)
(1.06636 0.0718166 0)
(1.06808 0.0665731 0)
(1.06952 0.06155 0)
(1.07072 0.0567387 0)
(1.07172 0.0521289 0)
(1.07254 0.0477091 0)
(1.07321 0.0434667 0)
(1.07376 0.039389 0)
(1.07421 0.0354626 0)
(1.07456 0.031674 0)
(1.07485 0.0280098 0)
(1.07507 0.0244564 0)
(1.07524 0.0210003 0)
(1.07537 0.0176282 0)
(1.07547 0.014327 0)
(1.07555 0.0110835 0)
(1.0756 0.00788486 0)
(1.07563 0.0047181 0)
(1.07564 0.00157053 0)
(1.00611 0.131991 -2.71192e-13)
(1.01502 0.125511 -1.00755e-12)
(1.02254 0.11981 0)
(1.02928 0.114179 -2.19957e-12)
(1.03519 0.108238 -2.6889e-12)
(1.0404 0.102385 -8.97497e-29)
(1.04498 0.0965837 3.48149e-12)
(1.04899 0.0908843 3.79815e-12)
(1.0525 0.0853176 0)
(1.05555 0.0799022 0)
(1.05819 0.074651 0)
(1.06045 0.0695719 0)
(1.0624 0.0646681 0)
(1.06406 0.0599391 0)
(1.06548 0.0553818 0)
(1.06668 0.0509907 0)
(1.06769 0.0467586 0)
(1.06855 0.042677 0)
(1.06926 0.0387363 0)
(1.06986 0.0349263 0)
(1.07036 0.0312364 5.28701e-12)
(1.07077 0.0276554 1.06091e-11)
(1.0711 0.024172 5.3175e-12)
(1.07137 0.0207749 0)
(1.07159 0.0174524 -5.33331e-12)
(1.07176 0.0141932 -5.33771e-12)
(1.07188 0.0109856 0)
(1.07198 0.00781813 -5.34236e-12)
(1.07203 0.00467935 -5.34336e-12)
(1.07206 0.00155783 -1.54175e-28)
(1.00092 0.121629 2.71175e-13)
(1.0094 0.116144 1.00755e-12)
(1.01663 0.111558 0)
(1.02318 0.106821 2.19957e-12)
(1.029 0.101765 2.6889e-12)
(1.03419 0.0966978 8.97497e-29)
(1.03881 0.091603 -3.48149e-12)
(1.04292 0.0865344 -3.79815e-12)
(1.04655 0.0815276 0)
(1.04974 0.0766078 0)
(1.05253 0.0717942 0)
(1.05497 0.0671006 0)
(1.05708 0.0625357 0)
(1.05892 0.0581042 0)
(1.06051 0.0538074 0)
(1.06187 0.049644 0)
(1.06305 0.0456105 0)
(1.06406 0.0417017 0)
(1.06492 0.0379113 0)
(1.06565 0.0342318 0)
(1.06626 0.030655 -5.28701e-12)
(1.06678 0.027172 -1.06091e-11)
(1.06722 0.0237737 -5.3175e-12)
(1.06757 0.0204507 0)
(1.06786 0.017193 5.33331e-12)
(1.06809 0.0139909 5.33771e-12)
(1.06827 0.0108344 0)
(1.0684 0.00771342 5.34236e-12)
(1.06848 0.00461781 5.34336e-12)
(1.06852 0.00153754 1.54175e-28)
(0.996865 0.111962 0)
(1.00487 0.107368 0)
(1.01177 0.103682 0)
(1.01805 0.0997166 0)
(1.0237 0.0954308 0)
(1.0288 0.0910594 0)
(1.03338 0.0866013 0)
(1.0375 0.08211 0)
(1.04117 0.0776235 0)
(1.04444 0.0731709 0)
(1.04733 0.0687756 0)
(1.04989 0.0644555 0)
(1.05213 0.0602233 0)
(1.0541 0.0560876 0)
(1.05582 0.0520533 0)
(1.05732 0.0481224 0)
(1.05863 0.0442946 0)
(1.05976 0.0405676 0)
(1.06074 0.0369376 0)
(1.06158 0.0333996 0)
(1.0623 0.0299477 0)
(1.06291 0.0265752 0)
(1.06343 0.0232748 0)
(1.06386 0.0200388 0)
(1.06422 0.0168593 0)
(1.0645 0.0137277 0)
(1.06472 0.0106358 0)
(1.06488 0.00757476 0)
(1.06499 0.0045359 0)
(1.06504 0.00151045 0)
(0.993702 0.103078 0)
(1.00121 0.0992486 0)
(1.00776 0.0962696 0)
(1.01374 0.0929512 0)
(1.01917 0.0893177 0)
(1.02412 0.0855479 0)
(1.02861 0.0816514 0)
(1.03268 0.0776786 0)
(1.03635 0.0736678 0)
(1.03964 0.0696492 0)
(1.04258 0.0656484 0)
(1.04521 0.0616854 0)
(1.04753 0.0577757 0)
(1.0496 0.0539303 0)
(1.05142 0.0501568 0)
(1.05302 0.0464598 0)
(1.05443 0.0428414 0)
(1.05566 0.0393017 0)
(1.05674 0.0358393 0)
(1.05767 0.0324511 0)
(1.05848 0.0291334 0)
(1.05917 0.0258814 0)
(1.05976 0.0226894 0)
(1.06025 0.0195515 0)
(1.06066 0.0164612 0)
(1.06099 0.0134117 0)
(1.06125 0.0103959 0)
(1.06144 0.00740655 0)
(1.06156 0.00443623 0)
(1.06162 0.00147744 0)
(0.991244 0.0949676 0)
(0.998266 0.0917675 0)
(1.00444 0.0893411 0)
(1.01011 0.0865598 0)
(1.01529 0.0834709 0)
(1.02005 0.0802142 0)
(1.02441 0.0768067 0)
(1.0284 0.0732948 0)
(1.03202 0.0697143 0)
(1.03529 0.0660949 0)
(1.03825 0.0624622 0)
(1.0409 0.0588373 0)
(1.04328 0.0552366 0)
(1.0454 0.0516727 0)
(1.04729 0.0481551 0)
(1.04897 0.04469 0)
(1.05046 0.0412817 0)
(1.05177 0.037932 0)
(1.05292 0.0346414 0)
(1.05393 0.0314087 0)
(1.0548 0.0282319 0)
(1.05556 0.0251077 0)
(1.05621 0.0220323 0)
(1.05676 0.0190012 0)
(1.05721 0.0160093 0)
(1.05758 0.0130512 0)
(1.05787 0.0101212 0)
(1.05808 0.00721342 0)
(1.05822 0.00432156 0)
(1.05829 0.00143942 0)
(0.989354 0.0875483 0)
(0.995889 0.084858 0)
(1.00169 0.082874 0)
(1.00704 0.0805406 0)
(1.01196 0.0779067 0)
(1.01652 0.0750876 0)
(1.02073 0.0721056 0)
(1.02459 0.0690017 0)
(1.02814 0.0658085 0)
(1.03137 0.0625538 0)
(1.0343 0.0592623 0)
(1.03696 0.0559545 0)
(1.03936 0.0526471 0)
(1.04152 0.0493534 0)
(1.04345 0.0460837 0)
(1.04518 0.0428459 0)
(1.04672 0.0396453 0)
(1.04808 0.0364855 0)
(1.04929 0.0333682 0)
(1.05036 0.030294 0)
(1.05129 0.0272622 0)
(1.05209 0.024271 0)
(1.05279 0.0213181 0)
(1.05338 0.0184003 0)
(1.05387 0.0155139 0)
(1.05427 0.0126547 0)
(1.05459 0.00981827 0)
(1.05482 0.00699991 0)
(1.05497 0.00419462 0)
(1.05505 0.0013973 0)
(0.987932 0.0807061 0)
(0.993981 0.0784404 0)
(0.999409 0.0768253 0)
(1.00443 0.0748721 0)
(1.0091 0.0726244 0)
(1.01345 0.0701832 0)
(1.01748 0.0675738 0)
(1.02122 0.064832 0)
(1.02467 0.0619871 0)
(1.02783 0.0590647 0)
(1.03072 0.0560874 0)
(1.03336 0.0530749 0)
(1.03575 0.0500435 0)
(1.03792 0.0470065 0)
(1.03987 0.0439748 0)
(1.04163 0.040957 0)
(1.0432 0.0379595 0)
(1.04461 0.0349868 0)
(1.04585 0.032042 0)
(1.04696 0.0291269 0)
(1.04793 0.026242 0)
(1.04878 0.0233869 0)
(1.04951 0.0205603 0)
(1.05013 0.0177603 0)
(1.05065 0.0149845 0)
(1.05108 0.0122298 0)
(1.05142 0.00949291 0)
(1.05167 0.00677026 0)
(1.05183 0.00405793 0)
(1.05191 0.00135193 0)
(0.986905 0.0743484 0)
(0.992468 0.0724506 0)
(0.997523 0.0711528 0)
(1.00223 0.0695292 0)
(1.00664 0.0676167 0)
(1.01077 0.0655072 0)
(1.01463 0.0632275 0)
(1.01823 0.0608088 0)
(1.02156 0.0582775 0)
(1.02464 0.055657 0)
(1.02748 0.0529681 0)
(1.03007 0.0502291 0)
(1.03244 0.0474554 0)
(1.03459 0.0446604 0)
(1.03655 0.0418551 0)
(1.03831 0.0390483 0)
(1.03991 0.0362471 0)
(1.04133 0.033457 0)
(1.04261 0.030682 0)
(1.04374 0.0279247 0)
(1.04474 0.0251867 0)
(1.04561 0.0224687 0)
(1.04637 0.0197705 0)
(1.04702 0.0170913 0)
(1.04756 0.0144295 0)
(1.04801 0.0117834 0)
(1.04836 0.00915044 0)
(1.04862 0.00652818 0)
(1.04879 0.00391371 0)
(1.04888 0.00130402 0)
(0.986207 0.0684216 0)
(0.991295 0.0668496 0)
(0.995983 0.0658279 0)
(1.00038 0.0644938 0)
(1.00454 0.0628771 0)
(1.00845 0.0610624 0)
(1.01213 0.0590765 0)
(1.01558 0.0569472 0)
(1.01879 0.0546986 0)
(1.02178 0.0523521 0)
(1.02453 0.0499269 0)
(1.02707 0.0474398 0)
(1.0294 0.0449057 0)
(1.03153 0.0423374 0)
(1.03347 0.0397457 0)
(1.03523 0.0371398 0)
(1.03682 0.0345271 0)
(1.03826 0.0319137 0)
(1.03954 0.0293041 0)
(1.04069 0.0267018 0)
(1.04171 0.0241094 0)
(1.0426 0.0215282 0)
(1.04337 0.018959 0)
(1.04404 0.016402 0)
(1.0446 0.0138564 0)
(1.04506 0.0113213 0)
(1.04542 0.00879542 0)
(1.04569 0.00627692 0)
(1.04587 0.00376389 0)
(1.04596 0.00125425 0)
(0.98578 0.0629031 0)
(0.990415 0.0616194 0)
(0.994748 0.0608362 0)
(0.998849 0.0597567 0)
(1.00275 0.0584021 0)
(1.00645 0.0568499 0)
(1.00995 0.0551263 0)
(1.01324 0.0532564 0)
(1.01633 0.0512624 0)
(1.01921 0.0491641 0)
(1.02188 0.0469792 0)
(1.02435 0.0447236 0)
(1.02662 0.0424111 0)
(1.02871 0.040054 0)
(1.03062 0.0376631 0)
(1.03236 0.0352473 0)
(1.03394 0.0328144 0)
(1.03537 0.0303707 0)
(1.03666 0.0279213 0)
(1.03781 0.0254703 0)
(1.03883 0.0230208 0)
(1.03974 0.020575 0)
(1.04052 0.0181344 0)
(1.0412 0.0156997 0)
(1.04177 0.0132712 0)
(1.04223 0.0108488 0)
(1.0426 0.0084318 0)
(1.04288 0.00601929 0)
(1.04306 0.00361016 0)
(1.04315 0.00120315 0)
(0.985573 0.0577841 0)
(0.989784 0.0567517 0)
(0.993778 0.0561708 0)
(0.997589 0.0553126 0)
(1.00124 0.0541882 0)
(1.00473 0.0528685 0)
(1.00804 0.0513783 0)
(1.01118 0.0497404 0)
(1.01413 0.0479752 0)
(1.0169 0.0461013 0)
(1.01947 0.0441352 0)
(1.02187 0.0420915 0)
(1.02408 0.0399834 0)
(1.02612 0.0378226 0)
(1.02799 0.0356195 0)
(1.0297 0.033383 0)
(1.03126 0.0311208 0)
(1.03268 0.0288395 0)
(1.03395 0.0265444 0)
(1.0351 0.0242402 0)
(1.03612 0.0219302 0)
(1.03702 0.0196174 0)
(1.03781 0.0173038 0)
(1.03849 0.0149909 0)
(1.03906 0.0126795 0)
(1.03954 0.0103702 0)
(1.03991 0.00806302 0)
(1.04019 0.00575775 0)
(1.04037 0.003454 0)
(1.04047 0.00115122 0)
(0.98554 0.0530523 0)
(0.989361 0.0522351 0)
(0.993034 0.0518223 0)
(0.996569 0.0511532 0)
(0.999976 0.0502287 0)
(1.00325 0.0491132 0)
(1.00639 0.0478297 0)
(1.00937 0.0463985 0)
(1.01218 0.0448387 0)
(1.01483 0.0431675 0)
(1.01731 0.0414001 0)
(1.01961 0.0395503 0)
(1.02175 0.0376306 0)
(1.02373 0.0356519 0)
(1.02556 0.0336243 0)
(1.02723 0.0315563 0)
(1.02876 0.0294558 0)
(1.03015 0.0273292 0)
(1.03141 0.0251822 0)
(1.03255 0.0230196 0)
(1.03356 0.0208453 0)
(1.03446 0.0186625 0)
(1.03524 0.0164738 0)
(1.03592 0.0142811 0)
(1.03649 0.012086 0)
(1.03697 0.00988942 0)
(1.03734 0.00769211 0)
(1.03762 0.00549446 0)
(1.03781 0.00329669 0)
(1.0379 0.0010989 0)
(0.985643 0.0486821 0)
(0.989106 0.0480469 0)
(0.992479 0.0477723 0)
(0.995752 0.047263 0)
(0.998927 0.0465106 0)
(1.002 0.0455734 0)
(1.00495 0.0444724 0)
(1.00778 0.0432255 0)
(1.01045 0.0418501 0)
(1.01298 0.0403621 0)
(1.01535 0.0387757 0)
(1.01757 0.0371036 0)
(1.01963 0.0353574 0)
(1.02155 0.0335476 0)
(1.02332 0.0316838 0)
(1.02495 0.0297742 0)
(1.02644 0.0278264 0)
(1.0278 0.025847 0)
(1.02904 0.0238417 0)
(1.03015 0.0218154 0)
(1.03115 0.0197724 0)
(1.03204 0.0177161 0)
(1.03281 0.0156495 0)
(1.03349 0.013575 0)
(1.03405 0.0114946 0)
(1.03452 0.00940973 0)
(1.0349 0.00732165 0)
(1.03518 0.00523127 0)
(1.03536 0.00313936 0)
(1.03545 0.00104655 0)
(0.985852 0.0446348 0)
(0.988991 0.0441534 0)
(0.992083 0.0439936 0)
(0.995108 0.0436196 0)
(0.998063 0.0430154 0)
(1.00094 0.0422343 0)
(1.00372 0.041295 0)
(1.00638 0.0402129 0)
(1.00892 0.0390038 0)
(1.01133 0.0376822 0)
(1.01359 0.0362609 0)
(1.01572 0.0347519 0)
(1.0177 0.0331661 0)
(1.01955 0.0315132 0)
(1.02126 0.0298023 0)
(1.02283 0.0280415 0)
(1.02428 0.0262381 0)
(1.02561 0.0243985 0)
(1.02682 0.0225284 0)
(1.02791 0.020633 0)
(1.02889 0.0187166 0)
(1.02976 0.016783 0)
(1.03052 0.0148354 0)
(1.03118 0.0128765 0)
(1.03174 0.0109087 0)
(1.03221 0.00893398 0)
(1.03258 0.00695386 0)
(1.03285 0.00496977 0)
(1.03303 0.00298295 0)
(1.03312 0.000994499 0)
(0.986148 0.0408671 0)
(0.98899 0.0405179 0)
(0.99182 0.0404557 0)
(0.994614 0.0401977 0)
(0.99736 0.0397228 0)
(1.00005 0.0390798 0)
(1.00265 0.0382849 0)
(1.00517 0.0373514 0)
(1.00757 0.0362932 0)
(1.00986 0.0351233 0)
(1.01201 0.0338536 0)
(1.01404 0.032495 0)
(1.01594 0.0310576 0)
(1.01771 0.0295507 0)
(1.01936 0.0279829 0)
(1.02088 0.0263619 0)
(1.02229 0.0246947 0)
(1.02357 0.0229878 0)
(1.02474 0.0212468 0)
(1.02581 0.0194768 0)
(1.02676 0.0176823 0)
(1.02761 0.0158673 0)
(1.02836 0.0140351 0)
(1.02901 0.0121889 0)
(1.02956 0.0103313 0)
(1.03001 0.00846453 0)
(1.03038 0.0065906 0)
(1.03065 0.00471131 0)
(1.03082 0.00282827 0)
(1.03091 0.000943009 0)
(0.986517 0.0373417 0)
(0.989087 0.0371087 0)
(0.991674 0.0371321 0)
(0.99425 0.036976 0)
(0.996799 0.0366158 0)
(0.999305 0.0360965 0)
(1.00175 0.035432 0)
(1.00412 0.0346333 0)
(1.00639 0.0337128 0)
(1.00855 0.0326821 0)
(1.0106 0.0315519 0)
(1.01253 0.0303323 0)
(1.01434 0.0290327 0)
(1.01604 0.0276618 0)
(1.01762 0.0262279 0)
(1.01908 0.0247382 0)
(1.02044 0.0231998 0)
(1.02168 0.0216186 0)
(1.02281 0.0200005 0)
(1.02384 0.0183505 0)
(1.02477 0.016673 0)
(1.0256 0.0149723 0)
(1.02632 0.0132519 0)
(1.02696 0.0115151 0)
(1.0275 0.00976477 0)
(1.02794 0.00800348 0)
(1.02829 0.00623355 0)
(1.02856 0.00445708 0)
(1.02873 0.00267606 0)
(1.02882 0.000892327 0)
(0.986949 0.0340352 0)
(0.98927 0.0339066 0)
(0.99163 0.0340066 0)
(0.994003 0.0339412 0)
(0.996366 0.0336842 0)
(0.998702 0.0332767 0)
(1.00099 0.0327305 0)
(1.00321 0.0320548 0)
(1.00535 0.0312603 0)
(1.00739 0.0303573 0)
(1.00934 0.0293556 0)
(1.01117 0.0282645 0)
(1.0129 0.0270927 0)
(1.01452 0.0258486 0)
(1.01603 0.0245398 0)
(1.01743 0.0231735 0)
(1.01873 0.0217563 0)
(1.01992 0.0202943 0)
(1.02102 0.018793 0)
(1.02201 0.0172573 0)
(1.02291 0.015692 0)
(1.02371 0.0141012 0)
(1.02442 0.0124886 0)
(1.02503 0.0108577 0)
(1.02555 0.00921145 0)
(1.02599 0.00755278 0)
(1.02633 0.00588424 0)
(1.02659 0.00420823 0)
(1.02676 0.00252701 0)
(1.02684 0.000842684 0)
(0.987435 0.0309401 0)
(0.989529 0.0309058 0)
(0.991678 0.0310743 0)
(0.993861 0.0310898 0)
(0.996049 0.0309257 0)
(0.998223 0.0306191 0)
(1.00036 0.03018 0)
(1.00244 0.0296161 0)
(1.00445 0.0289364 0)
(1.00638 0.0281503 0)
(1.00821 0.0272665 0)
(1.00995 0.0262938 0)
(1.01159 0.0252403 0)
(1.01313 0.0241139 0)
(1.01457 0.0229218 0)
(1.01591 0.021671 0)
(1.01715 0.0203679 0)
(1.0183 0.0190183 0)
(1.01935 0.0176276 0)
(1.02031 0.0162008 0)
(1.02117 0.0147426 0)
(1.02194 0.013257 0)
(1.02263 0.011748 0)
(1.02322 0.0102191 0)
(1.02373 0.00867352 0)
(1.02415 0.00711426 0)
(1.02448 0.00554415 0)
(1.02473 0.00396582 0)
(1.0249 0.00238176 0)
(1.02498 0.000794304 0)
(0.987969 0.0280611 0)
(0.989855 0.028111 0)
(0.991809 0.0283389 0)
(0.993813 0.0284252 0)
(0.995837 0.0283435 0)
(0.997856 0.0281269 0)
(0.999849 0.0277837 0)
(1.0018 0.0273201 0)
(1.00368 0.0267442 0)
(1.00549 0.026064 0)
(1.00722 0.0252878 0)
(1.00886 0.0244234 0)
(1.01041 0.0234787 0)
(1.01187 0.022461 0)
(1.01324 0.0213773 0)
(1.01452 0.0202342 0)
(1.0157 0.0190378 0)
(1.0168 0.0177939 0)
(1.0178 0.0165076 0)
(1.01872 0.015184 0)
(1.01955 0.0138276 0)
(1.02029 0.0124425 0)
(1.02095 0.0110327 0)
(1.02152 0.00960173 0)
(1.02201 0.008153 0)
(1.02242 0.00668965 0)
(1.02274 0.00521467 0)
(1.02298 0.00373088 0)
(1.02314 0.00224096 0)
(1.02322 0.000747394 0)
(0.988538 0.0254075 0)
(0.990236 0.0255307 0)
(0.99201 0.0258076 0)
(0.993848 0.0259538 0)
(0.995716 0.0259433 0)
(0.997588 0.0258049 0)
(0.999443 0.0255457 0)
(1.00126 0.0251708 0)
(1.00302 0.0246871 0)
(1.00472 0.0241019 0)
(1.00635 0.0234225 0)
(1.00789 0.0226565 0)
(1.00936 0.021811 0)
(1.01074 0.0208931 0)
(1.01203 0.0199094 0)
(1.01324 0.0188661 0)
(1.01437 0.0177692 0)
(1.01541 0.0166241 0)
(1.01637 0.0154361 0)
(1.01725 0.0142098 0)
(1.01804 0.0129497 0)
(1.01876 0.0116602 0)
(1.01939 0.0103449 0)
(1.01994 0.00900757 0)
(1.0204 0.00765168 0)
(1.02079 0.00628046 0)
(1.02111 0.00489701 0)
(1.02134 0.0035043 0)
(1.02149 0.00210513 0)
(1.02157 0.000702139 0)
(0.989132 0.0229867 0)
(0.990661 0.0231708 0)
(0.992269 0.0234854 0)
(0.993951 0.0236798 0)
(0.995672 0.0237282 0)
(0.997406 0.0236558 0)
(0.999128 0.0234684 0)
(1.00082 0.0231702 0)
(1.00246 0.0227671 0)
(1.00405 0.0222657 0)
(1.00558 0.0216727 0)
(1.00703 0.020995 0)
(1.0084 0.0202393 0)
(1.00971 0.0194123 0)
(1.01093 0.0185203 0)
(1.01208 0.017569 0)
(1.01315 0.0165643 0)
(1.01414 0.0155113 0)
(1.01505 0.0144151 0)
(1.01589 0.0132802 0)
(1.01664 0.0121111 0)
(1.01732 0.0109119 0)
(1.01793 0.00968637 0)
(1.01845 0.00843824 0)
(1.0189 0.00717097 0)
(1.01928 0.00588788 0)
(1.01957 0.00459213 0)
(1.0198 0.00328677 0)
(1.01995 0.00197471 0)
(1.02002 0.000658682 0)
(0.989741 0.0207983 0)
(0.991115 0.0210304 0)
(0.992572 0.0213712 0)
(0.994109 0.021602 0)
(0.995693 0.0216972 0)
(0.997295 0.0216783 0)
(0.998891 0.0215505 0)
(1.00046 0.0213172 0)
(1.00199 0.0209834 0)
(1.00348 0.020555 0)
(1.0049 0.020038 0)
(1.00626 0.0194389 0)
(1.00755 0.018764 0)
(1.00878 0.0180193 0)
(1.00993 0.0172107 0)
(1.01101 0.0163439 0)
(1.01203 0.0154242 0)
(1.01296 0.0144567 0)
(1.01383 0.013446 0)
(1.01462 0.0123966 0)
(1.01534 0.011313 0)
(1.01599 0.0101989 0)
(1.01656 0.00905833 0)
(1.01707 0.00789481 0)
(1.0175 0.00671183 0)
(1.01785 0.0055127 0)
(1.01814 0.00430065 0)
(1.01835 0.00307875 0)
(1.0185 0.00184998 0)
(1.01857 0.000617118 0)
(0.990352 0.018833 0)
(0.991588 0.0191003 0)
(0.992906 0.0194567 0)
(0.994308 0.0197128 0)
(0.995763 0.0198432 0)
(0.997241 0.0198664 0)
(0.998718 0.0197868 0)
(1.00017 0.0196072 0)
(1.0016 0.0193321 0)
(1.00298 0.0189664 0)
(1.0043 0.0185159 0)
(1.00558 0.0179863 0)
(1.00679 0.0173834 0)
(1.00794 0.0167128 0)
(1.00902 0.01598 0)
(1.01004 0.0151904 0)
(1.011 0.0143489 0)
(1.01188 0.0134602 0)
(1.0127 0.012529 0)
(1.01345 0.0115594 0)
(1.01414 0.0105558 0)
(1.01475 0.00952181 0)
(1.0153 0.00846129 0)
(1.01578 0.00737778 0)
(1.01618 0.0062747 0)
(1.01653 0.00515534 0)
(1.0168 0.00402291 0)
(1.017 0.00288049 0)
(1.01714 0.00173108 0)
(1.01721 0.000577494 0)
(0.990957 0.0170736 0)
(0.992068 0.0173643 0)
(0.993259 0.0177273 0)
(0.994537 0.0179991 0)
(0.995871 0.0181546 0)
(0.997233 0.0182097 0)
(0.998597 0.0181682 0)
(0.999945 0.0180324 0)
(1.00126 0.0178063 0)
(1.00255 0.0174944 0)
(1.00378 0.0171016 0)
(1.00497 0.0166331 0)
(1.0061 0.0160942 0)
(1.00718 0.0154902 0)
(1.0082 0.0148261 0)
(1.00916 0.0141067 0)
(1.01005 0.0133369 0)
(1.01089 0.012521 0)
(1.01166 0.0116634 0)
(1.01237 0.0107682 0)
(1.01302 0.00983924 0)
(1.0136 0.00888038 0)
(1.01412 0.0078952 0)
(1.01457 0.00688716 0)
(1.01496 0.00585962 0)
(1.01529 0.00481583 0)
(1.01554 0.00375894 0)
(1.01574 0.00269201 0)
(1.01587 0.00161802 0)
(1.01593 0.000539815 0)
(0.991547 0.0154979 0)
(0.992546 0.0158022 0)
(0.993621 0.0161645 0)
(0.994784 0.0164442 0)
(0.996006 0.0166166 0)
(0.997259 0.0166951 0)
(0.998517 0.0166832 0)
(0.999763 0.016583 0)
(1.00099 0.0163978 0)
(1.00217 0.0161315 0)
(1.00332 0.0157887 0)
(1.00443 0.0153739 0)
(1.00548 0.014892 0)
(1.00649 0.0143477 0)
(1.00745 0.0137456 0)
(1.00834 0.0130903 0)
(1.00919 0.0123862 0)
(1.00998 0.0116374 0)
(1.0107 0.0108479 0)
(1.01137 0.0100217 0)
(1.01198 0.00916255 0)
(1.01254 0.008274 0)
(1.01303 0.00735955 0)
(1.01345 0.00642257 0)
(1.01382 0.00546632 0)
(1.01413 0.00449396 0)
(1.01438 0.00350858 0)
(1.01456 0.00251319 0)
(1.01468 0.00151074 0)
(1.01475 0.000504057 0)
(0.992117 0.0140825 0)
(0.993015 0.0143923 0)
(0.993985 0.0147487 0)
(0.995041 0.0150306 0)
(0.99616 0.0152134 0)
(0.997311 0.0153087 0)
(0.99847 0.0153198 0)
(0.999621 0.0152482 0)
(1.00075 0.0150971 0)
(1.00185 0.0148698 0)
(1.00292 0.0145704 0)
(1.00395 0.0142029 0)
(1.00493 0.0137716 0)
(1.00587 0.013281 0)
(1.00676 0.0127351 0)
(1.00761 0.0121381 0)
(1.0084 0.0114942 0)
(1.00914 0.0108071 0)
(1.00982 0.0100807 0)
(1.01045 0.00931863 0)
(1.01103 0.00852448 0)
(1.01155 0.00770167 0)
(1.01201 0.00685356 0)
(1.01241 0.00598337 0)
(1.01276 0.00509427 0)
(1.01305 0.00418932 0)
(1.01329 0.00327152 0)
(1.01346 0.00234382 0)
(1.01358 0.0014091 0)
(1.01364 0.000470176 0)
(0.992663 0.0128052 0)
(0.993471 0.0131146 0)
(0.994344 0.0134617 0)
(0.995303 0.0137414 0)
(0.996325 0.01393 0)
(0.997382 0.0140373 0)
(0.998449 0.014066 0)
(0.99951 0.0140178 0)
(1.00055 0.0138952 0)
(1.00157 0.0137014 0)
(1.00256 0.0134397 0)
(1.00352 0.013114 0)
(1.00443 0.012728 0)
(1.00531 0.0122855 0)
(1.00614 0.0117906 0)
(1.00693 0.0112468 0)
(1.00767 0.010658 0)
(1.00836 0.0100278 0)
(1.00901 0.00935973 0)
(1.0096 0.00865721 0)
(1.01014 0.00792363 0)
(1.01063 0.00716226 0)
(1.01107 0.00637628 0)
(1.01145 0.0055688 0)
(1.01178 0.00474286 0)
(1.01205 0.00390142 0)
(1.01227 0.00304739 0)
(1.01244 0.00218363 0)
(1.01255 0.00131296 0)
(1.0126 0.000438122 0)
(0.993182 0.0116474 0)
(0.993909 0.0119522 0)
(0.994696 0.0122876 0)
(0.995566 0.0125623 0)
(0.996499 0.0127533 0)
(0.997467 0.0128688 0)
(0.998448 0.0129114 0)
(0.999427 0.0128823 0)
(1.00039 0.0127838 0)
(1.00133 0.0126188 0)
(1.00225 0.0123903 0)
(1.00314 0.0121016 0)
(1.00399 0.011756 0)
(1.0048 0.0113571 0)
(1.00558 0.0109083 0)
(1.00631 0.0104131 0)
(1.00701 0.00987497 0)
(1.00766 0.00929716 0)
(1.00826 0.00868301 0)
(1.00881 0.00803575 0)
(1.00932 0.00735856 0)
(1.00978 0.00665454 0)
(1.01019 0.0059267 0)
(1.01055 0.00517803 0)
(1.01086 0.00441143 0)
(1.01112 0.00362975 0)
(1.01133 0.00283581 0)
(1.01148 0.00203235 0)
(1.01159 0.00122213 0)
(1.01164 0.000407839 0)
(0.993674 0.0105941 0)
(0.994329 0.0108913 0)
(0.995038 0.0112136 0)
(0.995826 0.0114813 0)
(0.996676 0.0116724 0)
(0.997563 0.0117935 0)
(0.998465 0.0118469 0)
(0.999365 0.0118336 0)
(1.00025 0.0117557 0)
(1.00113 0.0116157 0)
(1.00197 0.0114164 0)
(1.0028 0.0111606 0)
(1.00359 0.0108513 0)
(1.00434 0.0104917 0)
(1.00507 0.0100849 0)
(1.00575 0.00963406 0)
(1.0064 0.00914233 0)
(1.00701 0.0086128 0)
(1.00757 0.00804854 0)
(1.00809 0.00745255 0)
(1.00857 0.00682783 0)
(1.009 0.00617729 0)
(1.00938 0.00550381 0)
(1.00972 0.00481022 0)
(1.01001 0.0040993 0)
(1.01025 0.00337378 0)
(1.01045 0.00263636 0)
(1.0106 0.00188971 0)
(1.01069 0.00113648 0)
(1.01074 0.000379274 0)
(0.994139 0.0096337 0)
(0.994729 0.00992139 0)
(0.995368 0.0102298 0)
(0.996082 0.0104891 0)
(0.996856 0.0106785 0)
(0.997667 0.0108032 0)
(0.998495 0.0108649 0)
(0.999323 0.0108648 0)
(1.00014 0.0108046 0)
(1.00095 0.0106864 0)
(1.00173 0.0105128 0)
(1.00249 0.0102863 0)
(1.00323 0.0100097 0)
(1.00393 0.00968561 0)
(1.0046 0.00931701 0)
(1.00524 0.00890672 0)
(1.00584 0.00845763 0)
(1.00641 0.00797258 0)
(1.00694 0.00745442 0)
(1.00742 0.00690597 0)
(1.00787 0.00633002 0)
(1.00827 0.00572933 0)
(1.00863 0.0051066 0)
(1.00895 0.00446454 0)
(1.00922 0.0038058 0)
(1.00945 0.00313297 0)
(1.00963 0.00244866 0)
(1.00977 0.00175542 0)
(1.00986 0.00105582 0)
(1.00991 0.000352375 0)
(0.994576 0.00875767 0)
(0.995109 0.00903452 0)
(0.995685 0.00932841 0)
(0.996331 0.00957836 0)
(0.997035 0.00976457 0)
(0.997777 0.00989115 0)
(0.998535 0.0099594 0)
(0.999297 0.00997016 0)
(1.00005 0.00992503 0)
(1.00079 0.00982598 0)
(1.00152 0.00967516 0)
(1.00222 0.00947486 0)
(1.0029 0.0092275 0)
(1.00355 0.0089356 0)
(1.00418 0.00860172 0)
(1.00477 0.00822848 0)
(1.00533 0.0078185 0)
(1.00586 0.00737441 0)
(1.00635 0.00689884 0)
(1.00681 0.00639443 0)
(1.00722 0.00586377 0)
(1.0076 0.00530947 0)
(1.00794 0.00473409 0)
(1.00824 0.00414018 0)
(1.00849 0.00353025 0)
(1.00871 0.0029068 0)
(1.00888 0.0022723 0)
(1.00901 0.00162922 0)
(1.00909 0.000980003 0)
(1.00914 0.000327086 0)
(0.994986 0.00795917 0)
(0.995468 0.00822428 0)
(0.995989 0.00850334 0)
(0.996573 0.00874307 0)
(0.997213 0.00892492 0)
(0.99789 0.00905193 0)
(0.998585 0.00912497 0)
(0.999284 0.00914466 0)
(0.999979 0.00911243 0)
(1.00066 0.00903001 0)
(1.00133 0.00889931 0)
(1.00198 0.00872237 0)
(1.00261 0.00850136 0)
(1.00322 0.00823854 0)
(1.0038 0.00793624 0)
(1.00435 0.00759682 0)
(1.00487 0.0072227 0)
(1.00536 0.00681629 0)
(1.00582 0.00638003 0)
(1.00624 0.00591636 0)
(1.00663 0.00542773 0)
(1.00698 0.00491657 0)
(1.0073 0.00438528 0)