/*--------------------------------*- C++ -*----------------------------------*\
  =========                 |
  \\      /  F ield         | OpenFOAM: The Open Source CFD Toolbox
   \\    /   O peration     | Website:  https://openfoam.org
    \\  /    A nd           | Version:  7
     \\/     M anipulation  |
\*---------------------------------------------------------------------------*/
FoamFile
{
    version     2.0;
    format      ascii;
    class       surfaceScalarField;
    location    "95";
    object      phi;
}
// * * * * * * * * * * * * * * * * * * * * * * * * * * * * * * * * * * * * * //

dimensions      [0 3 -1 0 0 0 0];

internalField   nonuniform List<scalar> 
6869
(
8.20706e-05
0.0143446
-7.39138e-05
8.11172e-05
0.0155631
7.2478e-05
0.0161433
6.05293e-05
0.0163526
4.87661e-05
0.0163864
3.88378e-05
0.0163483
3.1075e-05
0.0162846
2.52734e-05
0.0162136
2.10922e-05
0.0161416
1.8169e-05
0.0160705
1.6187e-05
0.0160008
1.48776e-05
0.0159328
1.40296e-05
0.0158667
1.34809e-05
0.015803
1.31027e-05
0.0157418
1.27996e-05
0.0156837
1.25008e-05
0.0156288
1.21538e-05
0.0155773
1.17222e-05
0.0155293
1.11842e-05
0.0154851
1.05256e-05
0.0154448
9.74241e-06
0.0154083
8.83593e-06
0.0153758
7.81296e-06
0.0153472
6.68415e-06
0.0153228
5.46325e-06
0.0153023
4.16612e-06
0.015286
2.81031e-06
0.0152737
1.41473e-06
0.0152655
0.0152614
7.64059e-05
0.0143439
-7.57254e-05
7.06832e-05
0.0155688
5.91859e-05
0.0161548
4.54847e-05
0.0163663
3.27186e-05
0.0163992
2.22937e-05
0.0163587
1.44123e-05
0.0162925
8.76584e-06
0.0162193
4.95174e-06
0.0161454
2.55351e-06
0.0160729
1.19602e-06
0.0160022
5.93175e-07
0.0159334
5.13065e-07
0.0158668
7.63963e-07
0.0158027
1.21268e-06
0.0157414
1.74936e-06
0.0156832
2.29167e-06
0.0156282
2.78467e-06
0.0155768
3.18887e-06
0.0155289
3.47563e-06
0.0154848
3.63201e-06
0.0154446
3.65169e-06
0.0154083
3.53651e-06
0.0153759
3.29371e-06
0.0153475
2.93494e-06
0.0153231
2.47508e-06
0.0153028
1.93166e-06
0.0152865
1.32387e-06
0.0152743
6.72526e-07
0.0152661
0.0152621
6.82359e-05
0.0143507
-7.50052e-05
5.8005e-05
0.015579
4.39805e-05
0.0161688
2.88661e-05
0.0163814
1.54295e-05
0.0164126
4.77288e-06
0.0163694
-3.09164e-06
0.0163004
-8.41434e-06
0.0162246
-1.17176e-05
0.0161488
-1.34788e-05
0.0160747
-1.40956e-05
0.0160028
-1.38972e-05
0.0159332
-1.31424e-05
0.0158661
-1.20285e-05
0.0158016
-1.07115e-05
0.0157401
-9.30599e-06
0.0156818
-7.8975e-06
0.0156268
-6.54871e-06
0.0155754
-5.30264e-06
0.0155277
-4.18597e-06
0.0154837
-3.21448e-06
0.0154436
-2.39329e-06
0.0154074
-1.72039e-06
0.0153752
-1.18747e-06
0.015347
-7.8166e-07
0.0153227
-4.86402e-07
0.0153025
-2.82502e-07
0.0152863
-1.48938e-07
0.0152742
-6.27501e-08
0.0152661
0.015262
5.71924e-05
0.0143647
-7.12653e-05
4.28116e-05
0.0155934
2.66489e-05
0.016185
1.05091e-05
0.0163975
-3.41011e-06
0.0164265
-1.40507e-05
0.01638
-2.14849e-05
0.0163078
-2.62397e-05
0.0162294
-2.88593e-05
0.0161514
-2.98459e-05
0.0160757
-2.96289e-05
0.0160026
-2.85575e-05
0.0159321
-2.69072e-05
0.0158644
-2.48901e-05
0.0157996
-2.26696e-05
0.0157379
-2.03681e-05
0.0156795
-1.80758e-05
0.0156245
-1.58579e-05
0.0155732
-1.37587e-05
0.0155256
-1.18065e-05
0.0154818
-1.00164e-05
0.0154418
-8.39325e-06
0.0154058
-6.93382e-06
0.0153737
-5.62847e-06
0.0153456
-4.46268e-06
0.0153215
-3.41806e-06
0.0153014
-2.47353e-06
0.0152854
-1.60585e-06
0.0152733
-7.90179e-07
0.0152652
0.0152612
4.2915e-05
0.0143858
-6.404e-05
2.48833e-05
0.0156114
7.06685e-06
0.0162028
-1.00376e-05
0.0164146
-2.38366e-05
0.0164403
-3.39951e-05
0.0163902
-4.07935e-05
0.0163146
-4.47773e-05
0.0162333
-4.65364e-05
0.0161531
-4.66075e-05
0.0160757
-4.54438e-05
0.0160014
-4.34111e-05
0.0159301
-4.07971e-05
0.0158618
-3.78236e-05
0.0157966
-3.46598e-05
0.0157347
-3.14326e-05
0.0156762
-2.82347e-05
0.0156213
-2.51327e-05
0.0155701
-2.21712e-05
0.0155226
-1.93782e-05
0.015479
-1.67676e-05
0.0154392
-1.43432e-05
0.0154034
-1.21e-05
0.0153715
-1.00267e-05
0.0153436
-8.10652e-06
0.0153196
-6.31913e-06
0.0152997
-4.64112e-06
0.0152837
-3.047e-06
0.0152717
-1.50954e-06
0.0152637
0.0152597
2.50626e-05
0.0144137
-5.28871e-05
4.24677e-06
0.0156322
-1.56518e-05
0.0162227
-3.26066e-05
0.0164316
-4.58455e-05
0.0164536
-5.52168e-05
0.0163996
-6.10861e-05
0.0163205
-6.40606e-05
0.0162363
-6.47691e-05
0.0161538
-6.37748e-05
0.0160748
-6.15461e-05
0.0159992
-5.84596e-05
0.015927
-5.48103e-05
0.0158581
-5.08253e-05
0.0157926
-4.66768e-05
0.0157305
-4.24932e-05
0.015672
-3.83678e-05
0.0156172
-3.43666e-05
0.0155661
-3.05334e-05
0.0155188
-2.68943e-05
0.0154753
-2.34617e-05
0.0154358
-2.02372e-05
0.0154002
-1.72137e-05
0.0153685
-1.43773e-05
0.0153407
-1.17091e-05
0.015317
-9.1861e-06
0.0152971
-6.78256e-06
0.0152813
-4.47044e-06
0.0152694
-2.21998e-06
0.0152615
0.0152575
3.19209e-06
0.0144479
-3.74092e-05
-2.08896e-05
0.0156563
-4.09322e-05
0.0162427
-5.73235e-05
0.016448
-6.95692e-05
0.0164658
-7.77639e-05
0.0164078
-8.23883e-05
0.0163251
-8.41027e-05
0.016238
-8.3564e-05
0.0161533
-8.13489e-05
0.0160725
-7.79331e-05
0.0159958
-7.36975e-05
0.0159228
-6.89395e-05
0.0158534
-6.3887e-05
0.0157876
-5.87117e-05
0.0157254
-5.3541e-05
0.0156669
-4.84662e-05
0.0156121
-4.35512e-05
0.0155612
-3.88371e-05
0.0155141
-3.43474e-05
0.0154709
-3.00919e-05
0.0154315
-2.60692e-05
0.0153961
-2.22693e-05
0.0153647
-1.86756e-05
0.0153371
-1.52663e-05
0.0153135
-1.20158e-05
0.0152939
-8.89549e-06
0.0152782
-5.8746e-06
0.0152664
-2.92072e-06
0.0152585
0.0152546
-2.27984e-05
0.014488
-1.73529e-05
-4.89032e-05
0.0156824
-6.89599e-05
0.0162628
-8.42571e-05
0.0164633
-9.50285e-05
0.0164766
-0.000101646
0.0164144
-0.000104703
0.0163282
-0.000104902
0.0162382
-0.000102914
0.0161513
-9.93199e-05
0.0160689
-9.4593e-05
0.015991
-8.91123e-05
0.0159173
-8.31718e-05
0.0158474
-7.69958e-05
0.0157814
-7.07523e-05
0.0157191
-6.45641e-05
0.0156607
-5.85188e-05
0.0156061
-5.2676e-05
0.0155553
-4.70729e-05
0.0155085
-4.1729e-05
0.0154655
-3.66505e-05
0.0154265
-3.18322e-05
0.0153913
-2.72608e-05
0.0153601
-2.29165e-05
0.0153328
-1.87741e-05
0.0153094
-1.48049e-05
0.0152899
-1.09774e-05
0.0152743
-7.25782e-06
0.0152626
-3.6109e-06
0.0152549
0.015251
-5.29258e-05
0.0145325
8.45725e-06
-8.03853e-05
0.0157099
-9.97796e-05
0.0162822
-0.000113404
0.0164769
-0.00012221
0.0164854
-0.000126847
0.016419
-0.000128011
0.0163293
-0.000126437
0.0162367
-0.000122799
0.0161477
-0.000117666
0.0160638
-0.000111505
0.0159849
-0.000104684
0.0159105
-9.74884e-05
0.0158402
-9.01344e-05
0.015774
-8.27822e-05
0.0157118
-7.55477e-05
0.0156534
-6.85121e-05
0.015599
-6.17289e-05
0.0155485
-5.52297e-05
0.015502
-4.90293e-05
0.0154593
-4.31287e-05
0.0154206
-3.75188e-05
0.0153857
-3.21819e-05
0.0153548
-2.70945e-05
0.0153277
-2.22278e-05
0.0153045
-1.75498e-05
0.0152852
-1.30256e-05
0.0152698
-8.61831e-06
0.0152582
-4.28965e-06
0.0152505
0.0152467
-8.71928e-05
0.0145802
3.95278e-05
-0.000115389
0.0157381
-0.000133389
0.0163002
-0.000144734
0.0164882
-0.000151077
0.0164917
-0.000153327
0.0164213
-0.000152273
0.0163283
-0.000148671
0.0162331
-0.000143181
0.0161422
-0.000136355
0.016057
-0.000128639
0.0159772
-0.000120385
0.0159022
-0.000111865
0.0158317
-0.00010328
0.0157655
-9.47816e-05
0.0157033
-8.64741e-05
0.0156451
-7.84303e-05
0.015591
-7.06957e-05
0.0155408
-6.32953e-05
0.0154946
-5.62372e-05
0.0154523
-4.95172e-05
0.0154138
-4.31206e-05
0.0153793
-3.70254e-05
0.0153487
-3.12037e-05
0.0153219
-2.56227e-05
0.015299
-2.02467e-05
0.0152799
-1.50372e-05
0.0152646
-9.95421e-06
0.0152531
-4.95603e-06
0.0152455
0.0152417
-0.00012584
0.0146302
7.57904e-05
-0.000153895
0.0157661
-0.000169719
0.016316
-0.000178177
0.0164967
-0.000181556
0.0164951
-0.000181014
0.0164207
-0.000177425
0.0163247
-0.000171546
0.0162272
-0.000164011
0.0161346
-0.000155341
0.0160483
-0.000145955
0.0159678
-0.000136181
0.0158924
-0.00012627
0.0158218
-0.000116407
0.0157556
-0.000106727
0.0156936
-9.73225e-05
0.0156357
-8.82551e-05
0.0155819
-7.95607e-05
0.0155321
-7.12556e-05
0.0154863
-6.33409e-05
0.0154443
-5.58053e-05
0.0154063
-4.86288e-05
0.0153721
-4.17838e-05
0.0153418
-3.52377e-05
0.0153153
-2.89536e-05
0.0152927
-2.28915e-05
0.0152738
-1.70093e-05
0.0152587
-1.12635e-05
0.0152474
-5.60907e-06
0.0152399
0.0152361
-0.000168959
0.0146818
0.000117405
-0.000195785
0.015793
-0.000208645
0.0163289
-0.00021361
0.0165017
-0.000213532
0.016495
-0.000209807
0.016417
-0.000203379
0.0163183
-0.000194986
0.0162188
-0.000185223
0.0161249
-0.000174568
0.0160377
-0.000163405
0.0159566
-0.00015203
0.0158811
-0.000140668
0.0158105
-0.000129483
0.0157444
-0.000118591
0.0156827
-0.000108069
0.0156252
-9.79662e-05
0.0155718
-8.83061e-05
0.0155225
-7.90956e-05
0.0154771
-7.0327e-05
0.0154356
-6.1982e-05
0.015398
-5.40337e-05
0.0153642
-4.6449e-05
0.0153342
-3.919e-05
0.0153081
-3.2215e-05
0.0152857
-2.548e-05
0.0152671
-1.89388e-05
0.0152522
-1.25443e-05
0.015241
-6.24775e-06
0.0152336
0.0152299
-0.000216253
0.0147339
0.00016417
-0.000240823
0.0158175
-0.000249967
0.016338
-0.000250852
0.0165026
-0.000246848
0.016491
-0.000239575
0.0164097
-0.000230024
0.0163087
-0.000218899
0.0162077
-0.000206738
0.0161127
-0.00019397
0.0160249
-0.000180932
0.0159436
-0.000167884
0.015868
-0.000155018
0.0157976
-0.000142473
0.0157319
-0.000130344
0.0156706
-0.000118689
0.0156136
-0.000107541
0.0155607
-9.69127e-05
0.0155118
-8.67985e-05
0.0154669
-7.71816e-05
0.015426
-6.80351e-05
0.0153888
-5.93253e-05
0.0153555
-5.10125e-05
0.0153259
-4.30534e-05
0.0153001
-3.54013e-05
0.015278
-2.80078e-05
0.0152597
-2.08225e-05
0.015245
-1.37943e-05
0.015234
-6.87102e-06
0.0152267
0.015223
-0.00026742
0.0147852
0.000216121
-0.000288719
0.0158388
-0.000293429
0.0163427
-0.00028968
0.0164988
-0.000281315
0.0164827
-0.000270159
0.0163986
-0.00025723
0.0162958
-0.000243174
0.0161936
-0.000228465
0.016098
-0.000213469
0.0160099
-0.000198471
0.0159286
-0.000183687
0.0158532
-0.000169273
0.0157832
-0.000155338
0.0157179
-0.000141951
0.0156572
-0.000129152
0.0156008
-0.000116956
0.0155485
-0.00010536
0.0155002
-9.43468e-05
0.0154559
-8.38895e-05
0.0154155
-7.39521e-05
0.0153789
-6.44928e-05
0.015346
-5.54654e-05
0.0153169
-4.68207e-05
0.0152915
-3.85067e-05
0.0152697
-3.04703e-05
0.0152516
-2.26569e-05
0.0152372
-1.50113e-05
0.0152263
-7.47778e-06
0.0152191
0.0152155
-0.000322074
0.0148344
0.000272876
-0.000339111
0.0158559
-0.000338714
0.0163423
-0.000329823
0.0164899
-0.000316708
0.0164695
-0.000301377
0.0163832
-0.000284843
0.0162792
-0.000267685
0.0161764
-0.000250298
0.0160806
-0.000232978
0.0159926
-0.00021595
0.0159116
-0.000199379
0.0158367
-0.000183381
0.0157672
-0.000168033
0.0157026
-0.000153377
0.0156425
-0.000139428
0.0155868
-0.000126184
0.0155352
-0.000113625
0.0154877
-0.000101722
0.015444
-9.04351e-05
0.0154042
-7.97194e-05
0.0153682
-6.9525e-05
0.0153358
-5.97985e-05
0.0153072
-5.04843e-05
0.0152822
-4.15251e-05
0.0152608
-3.28629e-05
0.015243
-2.44386e-05
0.0152287
-1.61932e-05
0.0152181
-8.06694e-06
0.015211
0.0152075
-0.000379682
0.0148802
0.000333819
-0.000391556
0.0158677
-0.000385455
0.0163362
-0.000370972
0.0164754
-0.000352774
0.0164514
-0.000333021
0.0163635
-0.000312695
0.0162589
-0.000292294
0.016156
-0.000272123
0.0160605
-0.000252402
0.0159729
-0.000233288
0.0158924
-0.000214893
0.0158183
-0.000197288
0.0157496
-0.000180513
0.0156858
-0.000164581
0.0156266
-0.000149484
0.0155717
-0.000135197
0.0155209
-0.000121685
0.0154742
-0.000108904
0.0154312
-9.68017e-05
0.0153921
-8.53235e-05
0.0153567
-7.44106e-05
0.0153249
-6.40023e-05
0.0152968
-5.40365e-05
0.0152722
-4.44503e-05
0.0152512
-3.51807e-05
0.0152337
-2.61642e-05
0.0152197
-1.73376e-05
0.0152093
-8.63736e-06
0.0152023
0.0151988
-0.000439635
0.0149215
0.000398372
-0.000445568
0.0158737
-0.000433238
0.0163239
-0.000412784
0.016455
-0.000389236
0.0164278
-0.000364863
0.0163391
-0.0003406
0.0162346
-0.000316847
0.0161323
-0.000293816
0.0160374
-0.000271638
0.0159507
-0.000250401
0.0158712
-0.000230158
0.015798
-0.000210934
0.0157303
-0.000192729
0.0156676
-0.000175525
0.0156094
-0.000159286
0.0155555
-0.000143968
0.0155056
-0.000129517
0.0154597
-0.000115873
0.0154176
-0.000102973
0.0153792
-9.07501e-05
0.0153445
-7.91377e-05
0.0153133
-6.8067e-05
0.0152857
-5.74693e-05
0.0152616
-4.72761e-05
0.015241
-3.7419e-05
0.0152238
-2.78302e-05
0.0152101
-1.84423e-05
0.0151999
-9.18791e-06
0.015193
0.0151896
-0.000501347
0.0149568
0.000465982
-0.000500638
0.015873
-0.000481621
0.0163049
-0.000454891
0.0164282
-0.000425793
0.0163987
-0.000396662
0.01631
-0.00036836
0.0162063
-0.000341184
0.0161051
-0.000315243
0.0160115
-0.000290578
0.015926
-0.0002672
0.0158478
-0.000245102
0.0157759
-0.000224258
0.0157095
-0.00020463
0.015648
-0.000186163
0.0155909
-0.000168798
0.0155381
-0.000152466
0.0154893
-0.000137094
0.0154443
-0.000122608
0.0154031
-0.00010893
0.0153655
-9.59848e-05
0.0153315
-8.36944e-05
0.015301
-7.19829e-05
0.015274
-6.07749e-05
0.0152504
-4.9996e-05
0.0152302
-3.95729e-05
0.0152134
-2.9433e-05
0.0152
-1.95049e-05
0.0151899
-9.71746e-06
0.0151833
0.0151799
-0.000564222
0.0149851
0.000535961
-0.000556219
0.015865
-0.000530133
0.0162788
-0.000496909
0.016395
-0.000462132
0.0163639
-0.000428161
0.016276
-0.000395768
0.016174
-0.000365136
0.0160745
-0.000336267
0.0159826
-0.000309107
0.0158988
-0.00028359
0.0158223
-0.000259646
0.015752
-0.000237197
0.0156871
-0.000216162
0.0156269
-0.000196454
0.0155712
-0.000177984
0.0155196
-0.000160661
0.015472
-0.000144392
0.0154281
-0.000129088
0.0153878
-0.000114657
0.0153511
-0.000101013
0.0153179
-8.80688e-05
0.0152881
-7.57403e-05
0.0152617
-6.39454e-05
0.0152386
-5.2604e-05
0.0152189
-4.16375e-05
0.0152025
-3.09691e-05
0.0151893
-2.05232e-05
0.0151795
-1.02249e-05
0.015173
0.0151697
-0.000627583
0.0150052
0.000607462
-0.000611724
0.0158491
-0.000578286
0.0162453
-0.000538436
0.0163552
-0.000497928
0.0163234
-0.000459098
0.0162372
-0.00042261
0.0161375
-0.000388529
0.0160404
-0.000356746
0.0159508
-0.00032711
0.0158692
-0.000299477
0.0157947
-0.000273712
0.0157262
-0.000249685
0.015663
-0.000227272
0.0156045
-0.000206352
0.0155503
-0.000186807
0.0155001
-0.000168522
0.0154537
-0.000151386
0.0154109
-0.000135292
0.0153717
-0.000120136
0.0153359
-0.000105821
0.0153036
-9.2249e-05
0.0152745
-7.93294e-05
0.0152487
-6.6973e-05
0.0152262
-5.50937e-05
0.015207
-4.36082e-05
0.015191
-3.24351e-05
0.0151782
-2.14949e-05
0.0151686
-1.07091e-05
0.0151622
0.015159
-0.000690686
0.0150163
0.00067957
-0.00066654
0.015825
-0.000625578
0.0162044
-0.000579065
0.0163087
-0.000532851
0.0162772
-0.000489205
0.0161935
-0.000448669
0.0160969
-0.000411187
0.0160029
-0.000376536
0.0159162
-0.00034447
0.0158371
-0.000314765
0.015765
-0.000287221
0.0156987
-0.000261658
0.0156375
-0.000237907
0.0155808
-0.000215814
0.0155282
-0.00019523
0.0154795
-0.000176019
0.0154345
-0.00015805
0.015393
-0.000141199
0.0153549
-0.00012535
0.0153201
-0.000110393
0.0152886
-9.62233e-05
0.0152603
-8.27407e-05
0.0152353
-6.98499e-05
0.0152134
-5.74592e-05
0.0151946
-4.54804e-05
0.015179
-3.38277e-05
0.0151665
-2.24179e-05
0.0151572
-1.1169e-05
0.0151509
0.0151478
-0.000752751
0.0150178
0.000751317
-0.000720045
0.0157923
-0.0006715
0.0161558
-0.000618386
0.0162555
-0.000566572
0.0162254
-0.000518216
0.0161452
-0.00047373
0.0160524
-0.000432935
0.0159621
-0.000395494
0.0158787
-0.000361069
0.0158027
-0.000329357
0.0157333
-0.000300094
0.0156694
-0.000273049
0.0156104
-0.000248013
0.0155557
-0.000224794
0.015505
-0.000203217
0.0154579
-0.000183122
0.0154144
-0.000164359
0.0153742
-0.000146788
0.0153373
-0.000130281
0.0153036
-0.000114717
0.015273
-9.99803e-05
0.0152456
-8.5965e-05
0.0152212
-7.25688e-05
0.0152
-5.96946e-05
0.0151817
-4.72495e-05
0.0151665
-3.51437e-05
0.0151544
-2.32901e-05
0.0151453
-1.16036e-05
0.0151392
0.0151362
-0.000812994
0.0150091
0.000821709
-0.00077161
0.0157509
-0.000715549
0.0160998
-0.000655998
0.016196
-0.000598767
0.0161682
-0.000545869
0.0160923
-0.000497581
0.0160042
-0.000453599
0.0159181
-0.00041348
0.0158386
-0.000376792
0.015766
-0.000343158
0.0156996
-0.000312254
0.0156385
-0.000283797
0.015582
-0.000257537
0.0155295
-0.000233249
0.0154807
-0.000210732
0.0154354
-0.000189801
0.0153935
-0.000170289
0.0153547
-0.00015204
0.015319
-0.000134914
0.0152865
-0.000118778
0.0152569
-0.000103509
0.0152303
-8.89935e-05
0.0152067
-7.51226e-05
0.0151861
-6.17944e-05
0.0151684
-4.89114e-05
0.0151537
-3.63799e-05
0.0151419
-2.41095e-05
0.015133
-1.20119e-05
0.0151271
0.0151242
-0.000870641
0.0149899
0.000889758
-0.000820624
0.0157009
-0.00075724
0.0160364
-0.000691515
0.0161303
-0.000629123
0.0161058
-0.000571911
0.0160351
-0.000520015
0.0159523
-0.000473014
0.0158711
-0.000430357
0.015796
-0.000391528
0.0157272
-0.000356079
0.0156642
-0.000323626
0.0156061
-0.000293839
0.0155522
-0.000266429
0.0155021
-0.000241139
0.0154554
-0.000217741
0.015412
-0.000196029
0.0153717
-0.000175817
0.0153345
-0.000156936
0.0153002
-0.000139233
0.0152688
-0.000122564
0.0152402
-0.000106799
0.0152146
-9.18177e-05
0.0151917
-7.75047e-05
0.0151718
-6.37534e-05
0.0151546
-5.04621e-05
0.0151404
-3.75336e-05
0.0151289
-2.48743e-05
0.0151204
-1.2393e-05
0.0151147
0.0151118
-0.000924956
0.0149604
0.000954508
-0.000866508
0.0156424
-0.000796117
0.015966
-0.00072457
0.0160587
-0.000657347
0.0160385
-0.000596103
0.0159738
-0.000540839
0.015897
-0.000491018
0.0158213
-0.000445994
0.0157509
-0.00040517
0.0156864
-0.00036803
0.015627
-0.000334138
0.0155722
-0.000303117
0.0155212
-0.000274641
0.0154736
-0.000248424
0.0154292
-0.000224212
0.0153878
-0.000201779
0.0153493
-0.000180922
0.0153136
-0.000161458
0.0152807
-0.000143222
0.0152505
-0.000126063
0.0152231
-0.000109842
0.0151983
-9.443e-05
0.0151763
-7.9709e-05
0.015157
-6.55668e-05
0.0151405
-5.1898e-05
0.0151267
-3.86022e-05
0.0151156
-2.55828e-05
0.0151073
-1.27461e-05
0.0151018
0.0150991
-0.000975256
0.0149206
0.00101506
-0.000908729
0.0155759
-0.000831758
0.015889
-0.000754828
0.0159818
-0.000683165
0.0159669
-0.000618223
0.0159089
-0.000559871
0.0158386
-0.000507465
0.0157689
-0.000460271
0.0157037
-0.000417618
0.0156437
-0.000378932
0.0155884
-0.000343723
0.015537
-0.000311575
0.015489
-0.000282128
0.0154441
-0.000255066
0.0154021
-0.000230113
0.0153629
-0.000207025
0.0153262
-0.000185582
0.0152922
-0.000165589
0.0152607
-0.00014687
0.0152318
-0.000129264
0.0152055
-0.000112627
0.0151817
-9.68233e-05
0.0151605
-8.17297e-05
0.015142
-6.72301e-05
0.015126
-5.32157e-05
0.0151127
-3.95832e-05
0.015102
-2.62335e-05
0.015094
-1.30704e-05
0.0150887
0.015086
-0.00102093
0.0148709
0.0010706
-0.000946808
0.0155018
-0.000863786
0.015806
-0.000781985
0.0159
-0.00070633
0.0158912
-0.000638068
0.0158406
-0.000576943
0.0157775
-0.000522217
0.0157142
-0.000473075
0.0156546
-0.000428781
0.0155994
-0.000388707
0.0155483
-0.000352319
0.0155006
-0.000319163
0.0154558
-0.000288847
0.0154138
-0.000261032
0.0153743
-0.000235419
0.0153372
-0.000211745
0.0153025
-0.00018978
0.0152702
-0.000169314
0.0152402
-0.000150163
0.0152127
-0.000132158
0.0151875
-0.000115147
0.0151647
-9.89913e-05
0.0151444
-8.35619e-05
0.0151265
-6.87396e-05
0.0151112
-5.44125e-05
0.0150984
-4.04747e-05
0.0150881
-2.68249e-05
0.0150803
-1.33653e-05
0.0150752
0.0150726
-0.00106143
0.0148119
0.00112042
-0.00098033
0.0154207
-0.000891874
0.0157175
-0.000805776
0.0158139
-0.000726624
0.0158121
-0.000655458
0.0157694
-0.000591909
0.015714
-0.000535152
0.0156574
-0.000484304
0.0156038
-0.000438575
0.0155537
-0.000397288
0.015507
-0.000359871
0.0154632
-0.000325835
0.0154218
-0.000294763
0.0153828
-0.00026629
0.0153458
-0.000240102
0.0153111
-0.00021592
0.0152784
-0.000193499
0.0152478
-0.00017262
0.0152194
-0.000153091
0.0151931
-0.000134735
0.0151691
-0.000117396
0.0151474
-0.000100929
0.0151279
-8.52015e-05
0.0151108
-7.0092e-05
0.0150961
-5.54858e-05
0.0150838
-4.12748e-05
0.0150739
-2.73561e-05
0.0150664
-1.36302e-05
0.0150615
0.015059
-0.00109632
0.0147443
0.00116392
-0.00100895
0.0153333
-0.000915748
0.0156243
-0.000825977
0.0157241
-0.000743861
0.01573
-0.000670239
0.0156958
-0.00060464
0.0156484
-0.000546163
0.015599
-0.000493872
0.0155515
-0.000446928
0.0155068
-0.000404615
0.0154647
-0.000366328
0.0154249
-0.000331551
0.015387
-0.000299841
0.015351
-0.000270816
0.0153168
-0.000244143
0.0152844
-0.000219531
0.0152538
-0.000196724
0.015225
-0.000175496
0.0151981
-0.000155644
0.0151733
-0.000136989
0.0151504
-0.000119367
0.0151297
-0.000102631
0.0151112
-8.66449e-05
0.0150948
-7.12847e-05
0.0150807
-5.64337e-05
0.0150689
-4.19823e-05
0.0150594
-2.78262e-05
0.0150523
-1.38648e-05
0.0150475
0.0150451
-0.00112524
0.0146689
0.00120062
-0.00103239
0.0152405
-0.000935188
0.0155271
-0.000842408
0.0156313
-0.000757888
0.0156454
-0.000682282
0.0156202
-0.000615027
0.0155811
-0.000555161
0.0155391
-0.000501703
0.015498
-0.000453777
0.0154588
-0.000410638
0.0154215
-0.00037165
0.0153859
-0.000336277
0.0153517
-0.000304054
0.0153188
-0.000274585
0.0152874
-0.000247522
0.0152573
-0.000222564
0.0152288
-0.000199446
0.0152019
-0.000177932
0.0151766
-0.000157817
0.0151532
-0.000138914
0.0151315
-0.000121056
0.0151119
-0.000104094
0.0150942
-8.78895e-05
0.0150786
-7.23156e-05
0.0150651
-5.72547e-05
0.0150538
-4.25961e-05
0.0150448
-2.82345e-05
0.0150379
-1.40687e-05
0.0150333
0.0150311
-0.00114793
0.0145867
0.00123017
-0.00105046
0.015143
-0.000950033
0.0154267
-0.00085493
0.0155362
-0.000768588
0.0155591
-0.000691486
0.0155431
-0.000622984
0.0155126
-0.000562072
0.0154782
-0.000507735
0.0154437
-0.000459073
0.0154102
-0.000415314
0.0153778
-0.000375803
0.0153464
-0.000339984
0.0153158
-0.000307381
0.0152862
-0.00027758
0.0152576
-0.000250226
0.01523
-0.000225008
0.0152036
-0.000201653
0.0151785
-0.000179922
0.0151549
-0.000159602
0.0151328
-0.000140505
0.0151124
-0.000122461
0.0150938
-0.000105317
0.0150771
-8.89336e-05
0.0150622
-7.31836e-05
0.0150494
-5.7948e-05
0.0150386
-4.31155e-05
0.0150299
-2.85806e-05
0.0150234
-1.42417e-05
0.015019
0.0150168
-0.00116422
0.0144986
0.00125235
-0.00106301
0.0150418
-0.000960175
0.0153239
-0.000863449
0.0154395
-0.000775875
0.0154715
-0.000697777
0.015465
-0.000628447
0.0154433
-0.000566841
0.0154166
-0.000511924
0.0153888
-0.000462776
0.015361
-0.000418611
0.0153336
-0.00037876
0.0153065
-0.000342654
0.0152797
-0.000309803
0.0152534
-0.000279789
0.0152275
-0.000252245
0.0152024
-0.000226855
0.0151782
-0.000203342
0.015155
-0.000181461
0.015133
-0.000160998
0.0151124
-0.00014176
0.0150932
-0.000123578
0.0150756
-0.000106297
0.0150598
-8.97763e-05
0.0150457
-7.3888e-05
0.0150335
-5.85132e-05
0.0150232
-4.35405e-05
0.0150149
-2.88645e-05
0.0150087
-1.43838e-05
0.0150045
0.0150024
-0.00117403
0.0144056
0.00126704
-0.00107
0.0149377
-0.000965561
0.0152194
-0.000867912
0.0153419
-0.0007797
0.0153833
-0.000701109
0.0153864
-0.000631375
0.0153735
-0.000569433
0.0153546
-0.000514238
0.0153336
-0.000464862
0.0153116
-0.00042051
0.0152893
-0.000380505
0.0152665
-0.000344271
0.0152435
-0.000311312
0.0152204
-0.000281202
0.0151974
-0.000253571
0.0151748
-0.0002281
0.0151527
-0.000204507
0.0151314
-0.000182546
0.015111
-0.000162001
0.0150918
-0.000142679
0.0150739
-0.000124409
0.0150574
-0.000107035
0.0150424
-9.04178e-05
0.0150291
-7.44292e-05
0.0150175
-5.89506e-05
0.0150077
-4.38712e-05
0.0149999
-2.90862e-05
0.0149939
-1.44951e-05
0.0149899
0.0149879
-0.00117737
0.0143087
0.00127424
-0.00107141
0.0148318
-0.000966186
0.0151142
-0.000868306
0.015244
-0.000780045
0.0152951
-0.00070146
0.0153078
-0.000631747
0.0153038
-0.000569829
0.0152927
-0.000514661
0.0152784
-0.000465316
0.0152623
-0.000420998
0.0152449
-0.000381029
0.0152265
-0.000344829
0.0152073
-0.000311901
0.0151875
-0.000281816
0.0151673
-0.000254204
0.0151472
-0.000228742
0.0151273
-0.000205149
0.0151078
-0.000183179
0.0150891
-0.000162614
0.0150713
-0.000143263
0.0150545
-0.000124953
0.0150391
-0.000107532
0.015025
-9.08593e-05
0.0150124
-7.48082e-05
0.0150015
-5.92611e-05
0.0149922
-4.41084e-05
0.0149847
-2.92464e-05
0.0149791
-1.45758e-05
0.0149753
0.0149734
-0.00117431
0.014209
0.00127404
-0.00106732
0.0147248
-0.000962092
0.015009
-0.000864657
0.0151465
-0.000776923
0.0152073
-0.000698838
0.0152298
-0.000629564
0.0152346
-0.000568027
0.0152312
-0.000513191
0.0152236
-0.000464137
0.0152133
-0.000420075
0.0152009
-0.000380332
0.0151868
-0.000344329
0.0151713
-0.000311573
0.0151547
-0.000281635
0.0151374
-0.000254146
0.0151197
-0.000228785
0.0151019
-0.000205272
0.0150843
-0.000183362
0.0150672
-0.000162839
0.0150507
-0.000143514
0.0150352
-0.000125215
0.0150208
-0.00010779
0.0150076
-9.11029e-05
0.0149957
-7.50268e-05
0.0149854
-5.94463e-05
0.0149766
-4.42532e-05
0.0149695
-2.93458e-05
0.0149641
-1.46263e-05
0.0149605
0.0149587
-0.00116498
0.0141073
0.00126661
-0.00105783
0.0146176
-0.000953363
0.0149045
-0.000857023
0.0150502
-0.000770376
0.0151207
-0.000693272
0.0151527
-0.00062485
0.0151661
-0.000564046
0.0151704
-0.000509842
0.0151694
-0.000461337
0.0151647
-0.000417752
0.0151573
-0.000378423
0.0151475
-0.00034278
0.0151357
-0.000310335
0.0151223
-0.000280664
0.0151077
-0.000253403
0.0150924
-0.000228234
0.0150767
-0.000204881
0.0150609
-0.000183101
0.0150454
-0.000162682
0.0150303
-0.000143437
0.015016
-0.000125197
0.0150025
-0.000107814
0.0149902
-9.11519e-05
0.0149791
-7.50878e-05
0.0149693
-5.95081e-05
0.014961
-4.43072e-05
0.0149543
-2.93854e-05
0.0149492
-1.46472e-05
0.0149458
0.0149441
-0.00114958
0.0140047
0.0012522
-0.00104309
0.0145111
-0.000940117
0.0148016
-0.000845495
0.0149556
-0.000760474
0.0150357
-0.000684815
0.015077
-0.000617645
0.015099
-0.000557918
0.0151106
-0.000504643
0.0151161
-0.000456939
0.015117
-0.000414047
0.0151144
-0.000375319
0.0151087
-0.000340197
0.0151005
-0.000308201
0.0150903
-0.000278917
0.0150785
-0.000251987
0.0150655
-0.0002271
0.0150518
-0.000203985
0.0150378
-0.000182404
0.0150238
-0.00016215
0.0150101
-0.000143038
0.0149969
-0.000124906
0.0149844
-0.000107608
0.0149729
-9.10104e-05
0.0149625
-7.49945e-05
0.0149533
-5.94495e-05
0.0149455
-4.42725e-05
0.0149391
-2.93667e-05
0.0149343
-1.46391e-05
0.0149311
0.0149294
-0.00112836
0.013902
0.0012311
-0.00102331
0.0144061
-0.000922508
0.0147008
-0.000830192
0.0148633
-0.000747309
0.0149528
-0.000673542
0.0150032
-0.00060801
0.0150334
-0.000549694
0.0150523
-0.000497633
0.015064
-0.000450977
0.0150704
-0.000408992
0.0150724
-0.000371048
0.0150708
-0.000336603
0.0150661
-0.000305192
0.0150589
-0.000276412
0.0150497
-0.000249915
0.015039
-0.000225397
0.0150273
-0.000202597
0.015015
-0.000181282
0.0150025
-0.000161252
0.01499
-0.000142327
0.0149779
-0.00012435
0.0149664
-0.000107178
0.0149557
-9.06837e-05
0.014946
-7.47513e-05
0.0149374
-5.92738e-05
0.01493
-4.41516e-05
0.014924
-2.92912e-05
0.0149195
-1.46029e-05
0.0149164
0.0149148
-0.00110158
0.0137999
0.00120365
-0.000998701
0.0143032
-0.000900714
0.0146028
-0.000811256
0.0147738
-0.000730997
0.0148725
-0.000659547
0.0149318
-0.000596023
0.0149699
-0.000539437
0.0149957
-0.000488868
0.0150134
-0.0004435
0.015025
-0.000402626
0.0150315
-0.000365643
0.0150338
-0.000332028
0.0150325
-0.000301334
0.0150282
-0.000273171
0.0150215
-0.000247205
0.015013
-0.000223143
0.0150033
-0.000200732
0.0149926
-0.000179749
0.0149815
-0.00016
0.0149703
-0.000141313
0.0149592
-0.000123536
0.0149486
-0.000106532
0.0149387
-9.01781e-05
0.0149296
-7.43634e-05
0.0149216
-5.8985e-05
0.0149146
-4.39475e-05
0.014909
-2.9161e-05
0.0149047
-1.45396e-05
0.0149018
0.0149003
-0.00106957
0.0136993
0.00117021
-0.00096952
0.0142032
-0.000874938
0.0145082
-0.000788853
0.0146877
-0.000711674
0.0147953
-0.000642942
0.014863
-0.000581776
0.0149087
-0.000527227
0.0149412
-0.000478415
0.0149646
-0.000434562
0.0149812
-0.000394998
0.014992
-0.000359146
0.014998
-0.000326509
0.0149998
-0.000296658
0.0149983
-0.000269223
0.0149941
-0.000243883
0.0149877
-0.000220359
0.0149797
-0.000198409
0.0149707
-0.000177821
0.0149609
-0.000158409
0.0149509
-0.000140009
0.0149408
-0.000122475
0.0149311
-0.000105678
0.0149219
-8.95008e-05
0.0149134
-7.38366e-05
0.0149059
-5.85878e-05
0.0148994
-4.36636e-05
0.0148941
-2.89783e-05
0.01489
-1.44502e-05
0.0148872
0.0148859
-0.00103264
0.0136007
0.00113119
-0.000936037
0.0141066
-0.000845402
0.0144175
-0.000763168
0.0146055
-0.000689494
0.0147217
-0.000623855
0.0147974
-0.000565379
0.0148503
-0.000513156
0.014889
-0.000466351
0.0149178
-0.000424233
0.014939
-0.000386167
0.0149539
-0.000351608
0.0149634
-0.000320088
0.0149683
-0.000291202
0.0149694
-0.000264599
0.0149675
-0.000239976
0.0149631
-0.000217069
0.0149568
-0.000195649
0.0149492
-0.000175516
0.0149408
-0.000156494
0.0149319
-0.000138427
0.0149228
-0.00012118
0.0149139
-0.000104627
0.0149054
-8.86601e-05
0.0148975
-7.31776e-05
0.0148904
-5.80874e-05
0.0148843
-4.33038e-05
0.0148793
-2.87457e-05
0.0148754
-1.43361e-05
0.0148728
0.0148715
-0.000991141
0.0135049
0.00108699
-0.000898539
0.014014
-0.000812347
0.0143314
-0.0007344
0.0145275
-0.000664625
0.0146519
-0.000602431
0.0147352
-0.000546954
0.0147948
-0.000497327
0.0148393
-0.000452767
0.0148733
-0.000412588
0.0148989
-0.000376197
0.0149175
-0.000343085
0.0149303
-0.000312816
0.014938
-0.000285008
0.0149416
-0.000259337
0.0149418
-0.000235516
0.0149393
-0.000213301
0.0149346
-0.000192477
0.0149284
-0.000172855
0.0149212
-0.000154273
0.0149133
-0.000136585
0.0149051
-0.000119662
0.0148969
-0.00010339
0.0148891
-8.76651e-05
0.0148818
-7.23938e-05
0.0148751
-5.74896e-05
0.0148694
-4.28722e-05
0.0148647
-2.84659e-05
0.014861
-1.41985e-05
0.0148586
0.0148573
-0.000945435
0.0134122
0.00103805
-0.000857327
0.0139259
-0.000776025
0.0142501
-0.000702765
0.0144543
-0.000637252
0.0145864
-0.000578826
0.0146768
-0.000526635
0.0147426
-0.000479857
0.0147926
-0.000437762
0.0148312
-0.000399713
0.0148608
-0.000365163
0.014883
-0.000333642
0.0148988
-0.000304747
0.0149092
-0.000278126
0.014915
-0.000253478
0.0149172
-0.000230541
0.0149163
-0.000209087
0.0149132
-0.000188918
0.0149083
-0.000169862
0.0149021
-0.000151766
0.0148952
-0.000134498
0.0148878
-0.000117937
0.0148804
-0.000101978
0.0148731
-8.65258e-05
0.0148663
-7.14933e-05
0.0148601
-5.68007e-05
0.0148547
-4.23736e-05
0.0148502
-2.81421e-05
0.0148468
-1.40391e-05
0.0148445
0.0148433
-0.000895886
0.0133233
0.000984798
-0.000812715
0.0138427
-0.000736703
0.014174