/*--------------------------------*- C++ -*----------------------------------*\
  =========                 |
  \\      /  F ield         | OpenFOAM: The Open Source CFD Toolbox
   \\    /   O peration     | Website:  https://openfoam.org
    \\  /    A nd           | Version:  7
     \\/     M anipulation  |
\*---------------------------------------------------------------------------*/
FoamFile
{
    version     2.0;
    format      ascii;
    class       volVectorField;
    location    "95";
    object      U;
}
// * * * * * * * * * * * * * * * * * * * * * * * * * * * * * * * * * * * * * //

dimensions      [0 1 -1 0 0 0 0];

internalField   nonuniform List<vector> 
3500
(
(1.09256 -0.0107368 0)
(1.18506 -0.0111955 0)
(1.22899 -0.0107005 0)
(1.24483 -0.00901306 0)
(1.24743 -0.00733228 0)
(1.24461 -0.0058451 0)
(1.23985 -0.00464533 0)
(1.23452 -0.00373886 0)
(1.22911 -0.00307764 0)
(1.22374 -0.00260913 0)
(1.21847 -0.00228704 0)
(1.21332 -0.00207194 0)
(1.20831 -0.0019317 0)
(1.20347 -0.00184141 0)
(1.19882 -0.00178176 0)
(1.19439 -0.00173795 0)
(1.19021 -0.00169895 0)
(1.18629 -0.00165656 0)
(1.18263 -0.00160497 0)
(1.17926 -0.00154028 0)
(1.17618 -0.00146013 0)
(1.1734 -0.00136339 0)
(1.17092 -0.00124985 0)
(1.16874 -0.00112013 0)
(1.16687 -0.000975416 0)
(1.16532 -0.000817335 0)
(1.16407 -0.000647906 0)
(1.16313 -0.000469507 0)
(1.1625 -0.000284165 0)
(1.16219 -9.54269e-05 0)
(1.09222 -0.0102456 0)
(1.18531 -0.0100993 0)
(1.22976 -0.00905238 0)
(1.24581 -0.00707072 0)
(1.24836 -0.00522247 0)
(1.24539 -0.00363679 0)
(1.24045 -0.00239879 0)
(1.23496 -0.00149842 0)
(1.22941 -0.000874598 0)
(1.22395 -0.000467265 0)
(1.2186 -0.00022421 0)
(1.2134 -0.000101063 0)
(1.20835 -6.14662e-05 0)
(1.20348 -7.78922e-05 0)
(1.19882 -0.000128819 0)
(1.19439 -0.000197537 0)
(1.1902 -0.000271977 0)
(1.18628 -0.000343002 0)
(1.18264 -0.000404031 0)
(1.17927 -0.000450818 0)
(1.1762 -0.000480767 0)
(1.17343 -0.000492551 0)
(1.17096 -0.000485966 0)
(1.16879 -0.000461647 0)
(1.16693 -0.000420899 0)
(1.16538 -0.000365502 0)
(1.16414 -0.000297659 0)
(1.1632 -0.000219961 0)
(1.16258 -0.000134723 0)
(1.16227 -4.56227e-05 0)
(1.09245 -0.00944071 0)
(1.18592 -0.00867598 0)
(1.23073 -0.00711362 0)
(1.24691 -0.00489415 0)
(1.24937 -0.00291989 0)
(1.24619 -0.00127228 0)
(1.24105 -3.09966e-05 0)
(1.23538 0.000835065 0)
(1.22969 0.0013998 0)
(1.22411 0.00172784 0)
(1.21868 0.00187755 0)
(1.21341 0.00189771 0)
(1.20832 0.00182767 0)
(1.20343 0.00169754 0)
(1.19875 0.00153077 0)
(1.19431 0.00134535 0)
(1.19013 0.00115444 0)
(1.18621 0.000967878 0)
(1.18257 0.000792733 0)
(1.17922 0.000633525 0)
(1.17616 0.000493015 0)
(1.1734 0.000372596 0)
(1.17094 0.000272396 0)
(1.16878 0.000191697 0)
(1.16693 0.000129033 0)
(1.16539 8.24242e-05 0)
(1.16415 4.94563e-05 0)
(1.16322 2.72981e-05 0)
(1.1626 1.33326e-05 0)
(1.16229 3.71361e-06 0)
(1.09324 -0.00826525 0)
(1.18686 -0.00687945 0)
(1.23189 -0.00485042 0)
(1.2481 -0.00245176 0)
(1.25041 -0.000399956 0)
(1.247 0.00126067 0)
(1.24164 0.00246802 0)
(1.23577 0.00327198 0)
(1.22992 0.0037525 0)
(1.22422 0.0039813 0)
(1.2187 0.00402195 0)
(1.21337 0.00392662 0)
(1.20823 0.00373711 0)
(1.20331 0.00348566 0)
(1.19862 0.00319718 0)
(1.19417 0.00289064 0)
(1.18999 0.00258004 0)
(1.18608 0.00227566 0)
(1.18245 0.00198483 0)
(1.1791 0.00171222 0)
(1.17606 0.00146067 0)
(1.17331 0.00123149 0)
(1.17086 0.0010247 0)
(1.16871 0.000839408 0)
(1.16687 0.000673942 0)
(1.16533 0.000526081 0)
(1.16411 0.000393155 0)
(1.16318 0.000272068 0)
(1.16257 0.000159877 0)
(1.16226 5.25361e-05 0)
(1.09458 -0.00666979 0)
(1.18811 -0.00466545 0)
(1.23318 -0.00222562 0)
(1.24936 0.00027779 0)
(1.25147 0.00234679 0)
(1.2478 0.003977 0)
(1.24218 0.00511179 0)
(1.23611 0.00581955 0)
(1.23008 0.00618845 0)
(1.22426 0.0062966 0)
(1.21865 0.00621113 0)
(1.21325 0.00598686 0)
(1.20807 0.00566745 0)
(1.20312 0.0052866 0)
(1.19841 0.00487024 0)
(1.19396 0.00443798 0)
(1.18978 0.00400427 0)
(1.18587 0.00357967 0)
(1.18225 0.00317154 0)
(1.17892 0.00278457 0)
(1.17589 0.00242151 0)
(1.17315 0.0020835 0)
(1.17072 0.00177035 0)
(1.16858 0.00148095 0)
(1.16675 0.00121336 0)
(1.16523 0.000965069 0)
(1.16401 0.000733119 0)
(1.16309 0.000514119 0)
(1.16248 0.000304771 0)
(1.16217 0.000100801 0)
(1.09645 -0.00460872 0)
(1.18959 -0.00198614 0)
(1.23462 0.000774908 0)
(1.25068 0.00330088 0)
(1.25251 0.00534677 0)
(1.24856 0.00689156 0)
(1.24267 0.00790709 0)
(1.23637 0.00848175 0)
(1.23018 0.00871057 0)
(1.22423 0.00867547 0)
(1.21852 0.00844602 0)
(1.21306 0.00807879 0)
(1.20783 0.0076186 0)
(1.20286 0.00709996 0)
(1.19813 0.00654932 0)
(1.19368 0.00598656 0)
(1.1895 0.00542629 0)
(1.1856 0.00487901 0)
(1.18199 0.00435196 0)
(1.17868 0.00384968 0)
(1.17566 0.00337469 0)
(1.17294 0.00292783 0)
(1.17052 0.00250865 0)
(1.1684 0.00211571 0)
(1.16658 0.00174676 0)
(1.16506 0.00139896 0)
(1.16385 0.00106901 0)
(1.16294 0.000753206 0)
(1.16233 0.000447868 0)
(1.16203 0.000148461 0)
(1.09881 -0.00201664 0)
(1.1913 0.00116396 0)
(1.23616 0.00415332 0)
(1.25197 0.00666041 0)
(1.25349 0.00861384 0)
(1.24923 0.0100087 0)
(1.24307 0.0108566 0)
(1.23656 0.0112608 0)
(1.23019 0.0113201 0)
(1.22411 0.0111183 0)
(1.21831 0.0107264 0)
(1.21278 0.0102018 0)
(1.20751 0.00958966 0)
(1.20251 0.00892466 0)
(1.19778 0.00823325 0)
(1.19332 0.00753519 0)
(1.18915 0.00684486 0)
(1.18526 0.0061725 0)
(1.18167 0.00552499 0)
(1.17837 0.00490653 0)
(1.17537 0.00431925 0)
(1.17266 0.00376363 0)
(1.17026 0.00323883 0)
(1.16815 0.00274302 0)
(1.16635 0.00227357 0)
(1.16484 0.00182728 0)
(1.16364 0.00140047 0)
(1.16274 0.00098907 0)
(1.16214 0.000589011 0)
(1.16184 0.000195464 0)
(1.10164 0.00114165 0)
(1.19322 0.00481659 0)
(1.23771 0.00794357 0)
(1.25318 0.0103637 0)
(1.25438 0.0121459 0)
(1.2498 0.0133286 0)
(1.24337 0.0139611 0)
(1.23664 0.0141569 0)
(1.2301 0.0140162 0)
(1.22389 0.0136238 0)
(1.218 0.0130508 0)
(1.21241 0.0123542 0)
(1.20711 0.0115789 0)
(1.20209 0.0107589 0)
(1.19735 0.00992032 0)
(1.19289 0.00908222 0)
(1.18873 0.00825845 0)
(1.18485 0.0074587 0)
(1.18128 0.00668929 0)
(1.17799 0.00595388 0)
(1.17501 0.00525409 0)
(1.17232 0.00458991 0)
(1.16994 0.00396001 0)
(1.16785 0.00336213 0)
(1.16606 0.00279317 0)
(1.16457 0.00224952 0)
(1.16337 0.0017271 0)
(1.16248 0.00122143 0)
(1.16188 0.000728034 0)
(1.16159 0.000241755 0)
(1.1049 0.00485549 0)
(1.19528 0.00901216 0)
(1.23921 0.012159 0)
(1.25429 0.0144051 0)
(1.25513 0.0159396 0)
(1.25024 0.0168495 0)
(1.24354 0.0172186 0)
(1.23659 0.0171673 0)
(1.22989 0.016796 0)
(1.22356 0.016189 0)
(1.21759 0.0154162 0)
(1.21194 0.0145333 0)
(1.20661 0.0135836 0)
(1.20157 0.0126003 0)
(1.19683 0.0116083 0)
(1.19238 0.0106256 0)
(1.18823 0.00966515 0)
(1.18437 0.00873588 0)
(1.18082 0.0078433 0)
(1.17756 0.00699035 0)
(1.17459 0.00617799 0)
(1.17193 0.00540559 0)
(1.16956 0.00467127 0)
(1.16749 0.00397223 0)
(1.16571 0.00330489 0)
(1.16424 0.00266514 0)
(1.16306 0.00204847 0)
(1.16217 0.00144999 0)
(1.16158 0.000864758 0)
(1.16129 0.000287275 0)
(1.10844 0.00915225 0)
(1.19741 0.0137534 0)
(1.24065 0.0167932 0)
(1.25525 0.0187803 0)
(1.25572 0.0199901 0)
(1.25051 0.0205662 0)
(1.24355 0.0206236 0)
(1.2364 0.0202866 0)
(1.22955 0.0196544 0)
(1.22311 0.0188093 0)
(1.21706 0.0178184 0)
(1.21137 0.016735 0)
(1.20601 0.0156004 0)
(1.20097 0.0144457 0)
(1.19623 0.0132942 0)
(1.19179 0.0121627 0)
(1.18766 0.0110627 0)
(1.18382 0.010002 0)
(1.18029 0.00898523 0)
(1.17705 0.00801435 0)
(1.17411 0.00708955 0)
(1.17147 0.00620947 0)
(1.16912 0.00537158 0)
(1.16707 0.00457246 0)
(1.16532 0.003808 0)
(1.16385 0.00307356 0)
(1.16269 0.00236415 0)
(1.16181 0.00167443 0)
(1.16123 0.000998995 0)
(1.16093 0.000331961 0)
(1.11218 0.0141715 0)
(1.19957 0.0190172 0)
(1.24195 0.0218399 0)
(1.25602 0.0234805 0)
(1.2561 0.024287 0)
(1.25058 0.0244688 0)
(1.24338 0.0241669 0)
(1.23604 0.0235066 0)
(1.22905 0.0225842 0)
(1.22252 0.0214782 0)
(1.21641 0.0202518 0)
(1.21069 0.0189546 0)
(1.20531 0.0176248 0)
(1.20026 0.0162912 0)
(1.19553 0.0149748 0)
(1.19112 0.0136906 0)
(1.187 0.0124485 0)
(1.1832 0.0112549 0)
(1.17969 0.0101131 0)
(1.17648 0.00902417 0)
(1.17357 0.00798728 0)
(1.17095 0.00700026 0)
(1.16863 0.00605983 0)
(1.1666 0.00516189 0)
(1.16486 0.00430173 0)
(1.16342 0.00347417 0)
(1.16226 0.00267367 0)
(1.1614 0.00189442 0)
(1.16082 0.00113055 0)
(1.16053 0.000375748 0)
(1.11606 0.0199042 0)
(1.20168 0.024781 0)
(1.24306 0.0272884 0)
(1.25654 0.0284873 0)
(1.25623 0.0288131 0)
(1.25043 0.0285427 0)
(1.24301 0.0278357 0)
(1.2355 0.0268161 0)
(1.2284 0.0255759 0)
(1.22179 0.0241877 0)
(1.21563 0.0227094 0)
(1.20988 0.0211859 0)
(1.2045 0.0196517 0)
(1.19946 0.0181323 0)
(1.19475 0.0166462 0)
(1.19036 0.0152059 0)
(1.18628 0.0138196 0)
(1.1825 0.0124919 0)
(1.17902 0.0112247 0)
(1.17584 0.0100179 0)
(1.17296 0.00886955 0)
(1.17038 0.00777656 0)
(1.16808 0.00673483 0)
(1.16608 0.00573953 0)
(1.16436 0.00478529 0)
(1.16293 0.00386631 0)
(1.16179 0.00297653 0)
(1.16093 0.00210962 0)
(1.16036 0.00125921 0)
(1.16008 0.000418568 0)
(1.12003 0.0262554 0)
(1.20366 0.0310198 0)
(1.24392 0.0331126 0)
(1.25678 0.0337729 0)
(1.25609 0.0335456 0)
(1.25001 0.0327688 0)
(1.2424 0.0316139 0)
(1.23476 0.0302016 0)
(1.22757 0.0286179 0)
(1.2209 0.026928 0)
(1.21471 0.0251827 0)
(1.20895 0.0234218 0)
(1.20358 0.0216749 0)
(1.19856 0.0199639 0)
(1.19388 0.0183039 0)
(1.18951 0.0167048 0)
(1.18547 0.0151727 0)
(1.18173 0.0137102 0)
(1.17829 0.0123177 0)
(1.17514 0.0109935 0)
(1.1723 0.0097346 0)
(1.16974 0.00853689 0)
(1.16748 0.00739535 0)
(1.1655 0.00630435 0)
(1.1638 0.00525781 0)
(1.16239 0.00424931 0)
(1.16127 0.00327222 0)
(1.16042 0.00231967 0)
(1.15986 0.00138477 0)
(1.15958 0.000460352 0)
(1.12399 0.033172 0)
(1.20543 0.0377045 0)
(1.24446 0.0392743 0)
(1.25668 0.0393028 0)
(1.25563 0.038457 0)
(1.24932 0.0371241 0)
(1.24155 0.0354818 0)
(1.23381 0.0336468 0)
(1.22655 0.0316968 0)
(1.21984 0.0296876 0)
(1.21365 0.0276624 0)
(1.2079 0.0256543 0)
(1.20254 0.0236878 0)
(1.19755 0.0217801 0)
(1.19291 0.019943 0)
(1.18858 0.0181832 0)
(1.18458 0.0165043 0)
(1.18088 0.0149069 0)
(1.17748 0.0133894 0)
(1.17438 0.0119487 0)
(1.17157 0.0105806 0)
(1.16905 0.00927969 0)
(1.16682 0.00804006 0)
(1.16486 0.00685525 0)
(1.16319 0.00571842 0)
(1.16181 0.00462249 0)
(1.1607 0.00356021 0)
(1.15986 0.00252419 0)
(1.15931 0.00150701 0)
(1.15903 0.000501025 0)
(1.12785 0.0405939 0)
(1.20691 0.0447914 0)
(1.24464 0.0457263 0)
(1.25621 0.045037 0)
(1.25482 0.0435148 0)
(1.24832 0.0415813 0)
(1.24044 0.0394171 0)
(1.23262 0.0371334 0)
(1.22533 0.0347973 0)
(1.21861 0.032454 0)
(1.21243 0.0301378 0)
(1.2067 0.0278746 0)
(1.20139 0.0256827 0)
(1.19644 0.0235748 0)
(1.19184 0.0215582 0)
(1.18757 0.0196366 0)
(1.18361 0.0178106 0)
(1.17996 0.0160786 0)
(1.17661 0.0144371 0)
(1.17355 0.0128813 0)
(1.17078 0.0114056 0)
(1.1683 0.0100033 0)
(1.1661 0.00866762 0)
(1.16418 0.00739112 0)
(1.16254 0.0061662 0)
(1.16117 0.00498511 0)
(1.16008 0.00383997 0)
(1.15926 0.00272282 0)
(1.15871 0.0016257 0)
(1.15844 0.000540515 0)
(1.13149 0.0484358 0)
(1.20804 0.0522235 0)
(1.24441 0.052412 0)
(1.25533 0.0509293 0)
(1.25363 0.0486817 0)
(1.24699 0.0461097 0)
(1.23904 0.0433946 0)
(1.2312 0.0406407 0)
(1.2239 0.0379023 0)
(1.21721 0.0352129 0)
(1.21105 0.0325972 0)
(1.20537 0.0300728 0)
(1.20011 0.0276517 0)
(1.19522 0.025341 0)
(1.19067 0.0231438 0)
(1.18646 0.0210602 0)
(1.18256 0.0190877 0)
(1.17897 0.0172221 0)
(1.17567 0.015458 0)
(1.17266 0.0137889 0)
(1.16994 0.0122075 0)
(1.1675 0.0107061 0)
(1.16533 0.00927661 0)
(1.16345 0.0079108 0)
(1.16183 0.00660024 0)
(1.16049 0.00533645 0)
(1.15941 0.00411093 0)
(1.15861 0.00291515 0)
(1.15807 0.00174062 0)
(1.1578 0.000578746 0)
(1.13484 0.0566103 0)
(1.20873 0.0599358 0)
(1.24372 0.059268 0)
(1.25401 0.0569294 0)
(1.25205 0.0539169 0)
(1.24531 0.0506755 0)
(1.23734 0.0473869 0)
(1.22952 0.0441463 0)
(1.22226 0.0409935 0)
(1.21561 0.0379494 0)
(1.20952 0.035028 0)
(1.2039 0.0322387 0)
(1.19871 0.0295861 0)
(1.19388 0.0270717 0)
(1.18941 0.0246939 0)
(1.18527 0.0224489 0)
(1.18143 0.0203311 0)
(1.1779 0.0183338 0)
(1.17466 0.0164492 0)
(1.17171 0.014669 0)
(1.16904 0.0129843 0)
(1.16664 0.0113863 0)
(1.16452 0.00986561 0)
(1.16266 0.00841313 0)
(1.16108 0.00701958 0)
(1.15976 0.00567576 0)
(1.1587 0.00437254 0)
(1.15791 0.00310081 0)
(1.15739 0.00185153 0)
(1.15713 0.000615642 0)
(1.13779 0.0650541 0)
(1.20895 0.0678558 0)
(1.24254 0.0662261 0)
(1.25222 0.0629836 0)
(1.25005 0.059176 0)
(1.24328 0.0552423 0)
(1.23534 0.0513645 0)
(1.22758 0.0476262 0)
(1.2204 0.0440514 0)
(1.21383 0.0406473 0)
(1.20782 0.0374172 0)
(1.20229 0.0343613 0)
(1.19718 0.0314768 0)
(1.19244 0.0287592 0)
(1.18805 0.0262021 0)
(1.18399 0.0237975 0)
(1.18023 0.0215367 0)
(1.17677 0.01941 0)
(1.17359 0.0174075 0)
(1.1707 0.015519 0)
(1.16808 0.0137339 0)
(1.16573 0.0120421 0)
(1.16365 0.0104332 0)
(1.16183 0.00889692 0)
(1.16028 0.00742327 0)
(1.15898 0.00600231 0)
(1.15795 0.00462425 0)
(1.15718 0.00327941 0)
(1.15666 0.00195822 0)
(1.15641 0.000651129 0)
(1.14025 0.0737036 0)
(1.20864 0.0759006 0)
(1.24083 0.0732158 0)
(1.24995 0.0690355 0)
(1.24762 0.0644123 0)
(1.24088 0.0597723 0)
(1.23304 0.0552969 0)
(1.22538 0.0510556 0)
(1.21831 0.0470554 0)
(1.21186 0.0432899 0)
(1.20596 0.039751 0)
(1.20054 0.0364293 0)
(1.19553 0.0333145 0)
(1.1909 0.030396 0)
(1.1866 0.0276621 0)
(1.18262 0.0251008 0)
(1.17895 0.0227 0)
(1.17556 0.0204471 0)
(1.17246 0.01833 0)
(1.16963 0.0163363 0)
(1.16706 0.0144542 0)
(1.16477 0.0126719 0)
(1.16273 0.0109778 0)
(1.16096 0.00936099 0)
(1.15943 0.00781038 0)
(1.15817 0.00631535 0)
(1.15716 0.00486549 0)
(1.1564 0.00345055 0)
(1.1559 0.00206044 0)
(1.15565 0.00068513 0)
(1.14212 0.0824698 0)
(1.20774 0.0839788 0)
(1.23858 0.0801638 0)
(1.24717 0.0750263 0)
(1.24476 0.0695777 0)
(1.23811 0.0642263 0)
(1.23041 0.0591523 0)
(1.22292 0.0544088 0)
(1.216 0.0499847 0)
(1.20969 0.0458601 0)
(1.20394 0.0420153 0)
(1.19865 0.0384311 0)
(1.19376 0.0350897 0)
(1.18924 0.031974 0)
(1.18505 0.0290672 0)
(1.18117 0.0263533 0)
(1.17759 0.0238164 0)
(1.17429 0.0214413 0)
(1.17126 0.0192134 0)
(1.1685 0.0171185 0)
(1.166 0.015143 0)
(1.16376 0.0132737 0)
(1.16177 0.0114982 0)
(1.16004 0.00980418 0)
(1.15855 0.00817996 0)
(1.15731 0.00661416 0)
(1.15633 0.00509573 0)
(1.15559 0.00361388 0)
(1.15509 0.00215798 0)
(1.15485 0.000717573 0)
(1.14333 0.0912496 0)
(1.20623 0.091995 0)
(1.23575 0.0869941 0)
(1.24389 0.0808961 0)
(1.24146 0.0746228 0)
(1.23497 0.0685645 0)
(1.22748 0.0628988 0)
(1.22019 0.0576595 0)
(1.21347 0.0528181 0)
(1.20734 0.0483406 0)
(1.20175 0.0441959 0)
(1.19661 0.0403552 0)
(1.19187 0.0367928 0)
(1.18748 0.0334854 0)
(1.18341 0.0304111 0)
(1.17965 0.0275495 0)
(1.17616 0.0248815 0)
(1.17295 0.0223889 0)
(1.17001 0.0200548 0)
(1.16732 0.0178629 0)
(1.16488 0.0157982 0)
(1.1627 0.013846 0)
(1.16076 0.0119928 0)
(1.15907 0.0102253 0)
(1.15763 0.0085311 0)
(1.15642 0.00689802 0)
(1.15546 0.00531444 0)
(1.15474 0.00376901 0)
(1.15425 0.00225063 0)
(1.15401 0.000748387 0)
(1.14383 0.0999338 0)
(1.20408 0.0998516 0)
(1.23235 0.0936307 0)
(1.24009 0.0865846 0)
(1.23773 0.0794986 0)
(1.23147 0.0727473 0)
(1.22424 0.0665043 0)
(1.21721 0.060782 0)
(1.21072 0.0555343 0)
(1.20481 0.0507141 0)
(1.19941 0.0462786 0)
(1.19445 0.0421897 0)
(1.18987 0.0384142 0)
(1.18562 0.0349223 0)
(1.18169 0.0316871 0)
(1.17804 0.0286842 0)
(1.17466 0.0258909 0)
(1.17155 0.0232863 0)
(1.16869 0.0208511 0)
(1.16609 0.0185671 0)
(1.16372 0.0164177 0)
(1.1616 0.0143871 0)
(1.15972 0.0124603 0)
(1.15807 0.0106234 0)
(1.15666 0.00886293 0)
(1.15549 0.00716626 0)
(1.15455 0.0055211 0)
(1.15385 0.00391559 0)
(1.15338 0.00233818 0)
(1.15315 0.000777504 0)
(1.14356 0.108411 0)
(1.20127 0.107451 0)
(1.22837 0.0999987 0)
(1.2358 0.0920326 0)
(1.23357 0.0841565 0)
(1.22761 0.076736 0)
(1.22071 0.0699375 0)
(1.21398 0.0637505 0)
(1.20777 0.0581125 0)
(1.2021 0.0529635 0)
(1.19692 0.0482496 0)
(1.19216 0.0439235 0)
(1.18775 0.0399445 0)
(1.18367 0.036277 0)
(1.17988 0.032889 0)
(1.17636 0.0297521 0)
(1.1731 0.0268403 0)
(1.17009 0.0241299 0)
(1.16733 0.0215993 0)
(1.1648 0.0192287 0)
(1.16251 0.0169997 0)
(1.16046 0.0148952 0)
(1.15863 0.0128994 0)
(1.15703 0.0109972 0)
(1.15566 0.00917461 0)
(1.15453 0.00741822 0)
(1.15361 0.00571523 0)
(1.15293 0.0040533 0)
(1.15247 0.00242042 0)
(1.15225 0.000804858 0)
(1.14251 0.11657 0)
(1.19779 0.114699 0)
(1.22382 0.106026 0)
(1.23103 0.0971828 0)
(1.22902 0.08855 0)
(1.22342 0.0804932 0)
(1.21689 0.073168 0)
(1.21052 0.0665405 0)
(1.20462 0.0605327 0)
(1.19923 0.0550725 0)
(1.19429 0.0500954 0)
(1.18975 0.0455453 0)
(1.18554 0.0413747 0)
(1.18163 0.037542 0)
(1.17799 0.0340106 0)
(1.17461 0.0307481 0)
(1.17148 0.0277254 0)
(1.16858 0.0249162 0)
(1.16591 0.0222968 0)
(1.16348 0.0198453 0)
(1.16126 0.0175422 0)
(1.15927 0.015369 0)
(1.15751 0.0133088 0)
(1.15596 0.0113458 0)
(1.15463 0.00946534 0)
(1.15353 0.00765329 0)
(1.15264 0.00589638 0)
(1.15198 0.00418181 0)
(1.15154 0.00249718 0)
(1.15132 0.000830391 0)
(1.14066 0.124304 0)
(1.19366 0.121505 0)
(1.21872 0.111646 0)
(1.2258 0.101981 0)
(1.22408 0.0926352 0)
(1.2189 0.0839837 0)
(1.21281 0.0761672 0)
(1.20683 0.0691284 0)
(1.20128 0.0627756 0)
(1.19619 0.0570254 0)
(1.19153 0.0518031 0)
(1.18722 0.0470448 0)
(1.18322 0.0426961 0)
(1.1795 0.0387102 0)
(1.17603 0.0350461 0)
(1.1728 0.0316676 0)
(1.16979 0.0285425 0)
(1.16702 0.0256422 0)
(1.16445 0.0229407 0)
(1.16211 0.0204149 0)
(1.15998 0.0180434 0)
(1.15806 0.0158069 0)
(1.15635 0.0136874 0)
(1.15485 0.0116684 0)
(1.15357 0.0097344 0)
(1.1525 0.00787092 0)
(1.15164 0.00606413 0)
(1.151 0.00430085 0)
(1.15057 0.0025683 0)
(1.15036 0.000854046 0)
(1.13802 0.131513 0)
(1.18889 0.127786 0)
(1.2131 0.116797 0)
(1.22014 0.106377 0)
(1.21878 0.0963715 0)
(1.21409 0.0871746 0)
(1.20848 0.0789082 0)
(1.20293 0.0714923 0)
(1.19776 0.0648233 0)
(1.19301 0.0588074 0)
(1.18864 0.0533607 0)
(1.18458 0.0484119 0)
(1.18081 0.0439007 0)
(1.17729 0.0397751 0)
(1.174 0.03599 0)
(1.17092 0.0325059 0)
(1.16806 0.0292878 0)
(1.1654 0.0263047 0)
(1.16295 0.0235288 0)
(1.1607 0.0209353 0)
(1.15865 0.0185018 0)
(1.1568 0.0162076 0)
(1.15516 0.0140341 0)
(1.15372 0.0119639 0)
(1.15248 0.00998112 0)
(1.15145 0.00807058 0)
(1.15062 0.00621811 0)
(1.15 0.00441015 0)
(1.14958 0.00263361 0)
(1.14938 0.000875774 0)
(1.13461 0.138105 0)
(1.18353 0.133468 0)
(1.207 0.121424 0)
(1.21409 0.110327 0)
(1.21316 0.0997223 0)
(1.20901 0.0900365 0)
(1.20392 0.0813667 0)
(1.19885 0.0736122 0)
(1.19409 0.0666594 0)
(1.1897 0.060405 0)
(1.18563 0.054757 0)
(1.18186 0.0496376 0)
(1.17832 0.0449809 0)
(1.17501 0.0407305 0)
(1.17191 0.0368374 0)
(1.169 0.0332591 0)
(1.16628 0.029958 0)
(1.16375 0.026901 0)
(1.16141 0.0240588 0)
(1.15926 0.0214049 0)
(1.15729 0.0189158 0)
(1.15552 0.01657 0)
(1.15394 0.014348 0)
(1.15255 0.0122318 0)
(1.15136 0.0102049 0)
(1.15037 0.00825185 0)
(1.14957 0.00635799 0)
(1.14897 0.0045095 0)
(1.14857 0.00269299 0)
(1.14837 0.000895533 0)
(1.13046 0.144002 0)
(1.17761 0.138484 0)
(1.20046 0.125479 0)
(1.20768 0.11379 0)
(1.20726 0.102656 0)
(1.2037 0.0925431 0)
(1.19917 0.0835208 0)
(1.1946 0.0754702 0)
(1.19028 0.068269 0)
(1.18626 0.061806 0)
(1.18253 0.0559821 0)
(1.17904 0.0507136 0)
(1.17576 0.04593 0)
(1.17267 0.0415708 0)
(1.16976 0.0375837 0)
(1.16702 0.0339233 0)
(1.16445 0.03055 0)
(1.16206 0.0274288 0)
(1.15983 0.0245286 0)
(1.15778 0.021822 0)
(1.15591 0.0192842 0)
(1.15421 0.016893 0)
(1.1527 0.0146282 0)
(1.15137 0.0124713 0)
(1.15022 0.0104053 0)
(1.14926 0.00841433 0)
(1.1485 0.0064835 0)
(1.14792 0.00459869 0)
(1.14753 0.00274633 0)
(1.14734 0.000913287 0)
(1.12563 0.149136 0)
(1.17118 0.14278 0)
(1.19353 0.128924 0)
(1.20097 0.116733 0)
(1.20111 0.105145 0)
(1.19818 0.0946718 0)
(1.19425 0.0853518 0)
(1.1902 0.0770505 0)
(1.18635 0.0696393 0)
(1.18273 0.0629998 0)
(1.17935 0.0570271 0)
(1.17616 0.0516327 0)
(1.17314 0.0467421 0)
(1.17028 0.0422912 0)
(1.16757 0.0382249 0)
(1.16501 0.0344956 0)
(1.1626 0.0310614 0)
(1.16033 0.0278859 0)
(1.15823 0.0249367 0)
(1.15628 0.0221853 0)
(1.1545 0.019606 0)
(1.15288 0.0171759 0)
(1.15143 0.0148742 0)
(1.15016 0.012682 0)
(1.14906 0.0105819 0)
(1.14814 0.00855773 0)
(1.1474 0.00659441 0)
(1.14685 0.00467759 0)
(1.14648 0.00279355 0)
(1.14629 0.000929006 0)
(1.12017 0.153453 0)
(1.1643 0.146313 0)
(1.18627 0.131728 0)
(1.19401 0.11913 0)
(1.19476 0.107167 0)
(1.19248 0.0964042 0)
(1.18918 0.086844 0)
(1.18569 0.0783401 0)
(1.18231 0.0707592 0)
(1.17912 0.0639773 0)
(1.17609 0.0578845 0)
(1.17321 0.0523889 0)
(1.17047 0.0474121 0)
(1.16784 0.0428876 0)
(1.16534 0.0387578 0)
(1.16296 0.0349731 0)
(1.16071 0.03149 0)
(1.15858 0.0282706 0)
(1.1566 0.0252817 0)
(1.15476 0.0224936 0)
(1.15307 0.0198802 0)
(1.15153 0.0174178 0)
(1.15015 0.0150853 0)
(1.14893 0.0128634 0)
(1.14788 0.0107343 0)
(1.147 0.00868182 0)
(1.14629 0.00669055 0)
(1.14576 0.00474609 0)
(1.14541 0.00283458 0)
(1.14523 0.000942672 0)
(1.11415 0.156911 0)
(1.15704 0.149052 0)
(1.17873 0.133869 0)
(1.18684 0.12096 0)
(1.18824 0.108705 0)
(1.18666 0.0977258 0)
(1.184 0.0879848 0)
(1.18109 0.0793283 0)
(1.1782 0.07162 0)
(1.17543 0.064731 0)
(1.17278 0.0585484 0)
(1.17022 0.0529769 0)
(1.16775 0.0479361 0)
(1.16537 0.0433568 0)
(1.16308 0.0391797 0)
(1.16089 0.0353537 0)
(1.15879 0.031834 0)
(1.15681 0.0285816 0)
(1.15495 0.0255625 0)
(1.15322 0.0227463 0)
(1.15162 0.0201062 0)
(1.15016 0.0176184 0)
(1.14885 0.0152613 0)
(1.14769 0.0130152 0)
(1.14669 0.0108625 0)
(1.14585 0.00878646 0)
(1.14517 0.00677185 0)
(1.14466 0.00480411 0)
(1.14432 0.00286938 0)
(1.14415 0.000954272 0)
(1.10764 0.159483 0)
(1.14946 0.150976 0)
(1.17097 0.135332 0)
(1.17953 0.122209 0)
(1.1816 0.109749 0)
(1.18074 0.098626 0)
(1.17875 0.0887651 0)
(1.17641 0.0800075 0)
(1.17404 0.0722149 0)
(1.1717 0.0652554 0)
(1.16942 0.0590139 0)
(1.16719 0.0533932 0)
(1.16501 0.0483108 0)
(1.16288 0.0436962 0)
(1.1608 0.0394887 0)
(1.15879 0.0356359 0)
(1.15687 0.0320922 0)
(1.15503 0.0288179 0)
(1.15329 0.0257783 0)
(1.15166 0.0229427 0)
(1.15016 0.0202837 0)
(1.14878 0.0177774 0)
(1.14754 0.0154018 0)
(1.14644 0.0131374 0)
(1.14548 0.0109662 0)
(1.14468 0.0088716 0)
(1.14404 0.00683825 0)
(1.14355 0.00485165 0)
(1.14322 0.00289795 0)
(1.14306 0.000963805 0)
(1.10072 0.161153 0)
(1.14162 0.152077 0)
(1.16306 0.136112 0)
(1.17211 0.12287 0)
(1.1749 0.110291 0)
(1.17477 0.0990984 0)
(1.17344 0.0891789 0)
(1.1717 0.0803722 0)
(1.16984 0.0725394 0)
(1.16795 0.0655468 0)
(1.16605 0.059278 0)
(1.16415 0.0536351 0)
(1.16225 0.0485343 0)
(1.16037 0.0439042 0)
(1.15851 0.0396834 0)
(1.15669 0.0358187 0)
(1.15493 0.032264 0)
(1.15323 0.0289791 0)
(1.15162 0.025929 0)
(1.1501 0.0230826 0)
(1.14869 0.0204126 0)
(1.14739 0.0178947 0)
(1.14622 0.015507 0)
(1.14517 0.01323 0)
(1.14427 0.0110455 0)
(1.14351 0.00893727 0)
(1.14289 0.00688981 0)
(1.14243 0.00488874 0)
(1.14212 0.00292031 0)
(1.14196 0.000971276 0)
(1.09347 0.16192 0)
(1.13361 0.152354 0)
(1.15506 0.136208 0)
(1.16465 0.12294 0)
(1.16817 0.110329 0)
(1.16877 0.0991404 0)
(1.16813 0.0892236 0)
(1.16698 0.08042 0)
(1.16563 0.0725913 0)
(1.16418 0.065603 0)
(1.16267 0.0593391 0)
(1.1611 0.0537013 0)
(1.15949 0.0486056 0)
(1.15786 0.0439802 0)
(1.15622 0.0397634 0)
(1.15459 0.0359018 0)
(1.15299 0.0323492 0)
(1.15143 0.0290651 0)
(1.14995 0.0260144 0)
(1.14854 0.0231661 0)
(1.14722 0.0204928 0)
(1.146 0.0179704 0)
(1.14489 0.015577 0)
(1.14391 0.013293 0)
(1.14305 0.0111007 0)
(1.14232 0.00898361 0)
(1.14174 0.00692662 0)
(1.1413 0.00491545 0)
(1.141 0.0029365 0)
(1.14085 0.000976703 0)
(1.08596 0.161788 0)
(1.12548 0.151819 0)
(1.14703 0.135629 0)
(1.1572 0.122424 0)
(1.16146 0.109866 0)
(1.1628 0.0987533 0)
(1.16283 0.0888995 0)
(1.16227 0.0801509 0)
(1.16144 0.0723703 0)
(1.16043 0.0654241 0)
(1.1593 0.0591971 0)
(1.15806 0.0535918 0)
(1.15674 0.0485247 0)
(1.15535 0.0439243 0)
(1.15393 0.039729 0)
(1.15249 0.0358856 0)
(1.15105 0.0323481 0)
(1.14964 0.0290762 0)
(1.14827 0.026035 0)
(1.14697 0.0231936 0)
(1.14574 0.020525 0)
(1.1446 0.018005 0)
(1.14356 0.015612 0)
(1.14264 0.0133269 0)
(1.14182 0.0111319 0)
(1.14114 0.00901083 0)
(1.14058 0.00694887 0)
(1.14016 0.00493192 0)
(1.13988 0.00294661 0)
(1.13974 0.000980112 0)
(1.07827 0.160775 0)
(1.11731 0.150489 0)
(1.13903 0.134386 0)
(1.14981 0.121331 0)
(1.1548 0.108909 0)
(1.15688 0.0979416 0)
(1.15757 0.0882101 0)
(1.15761 0.0795675 0)
(1.15728 0.0718787 0)
(1.15671 0.0650117 0)
(1.15596 0.0588535 0)
(1.15505 0.053308 0)
(1.15401 0.0482929 0)
(1.15287 0.0437376 0)
(1.15166 0.0395812 0)
(1.1504 0.0357711 0)
(1.14912 0.0322617 0)
(1.14785 0.0290134 0)
(1.14661 0.0259916 0)
(1.14541 0.023166 0)
(1.14427 0.0205096 0)
(1.14321 0.017999 0)
(1.14224 0.0156128 0)
(1.14136 0.013332 0)
(1.1406 0.0111395 0)
(1.13995 0.00901928 0)
(1.13942 0.0069568 0)
(1.13903 0.00493832 0)
(1.13876 0.00295074 0)
(1.13862 0.000981538 0)
(1.07048 0.158906 0)
(1.10916 0.148389 0)
(1.13112 0.1325 0)
(1.14253 0.119674 0)
(1.14826 0.107468 0)
(1.15105 0.0967134 0)
(1.1524 0.0871617 0)
(1.15301 0.0786748 0)
(1.15318 0.0711203 0)
(1.15304 0.0643691 0)
(1.15266 0.058311 0)
(1.15207 0.0528523 0)
(1.15131 0.0479124 0)
(1.15041 0.0434221 0)
(1.14941 0.0393217 0)
(1.14833 0.0355597 0)
(1.14722 0.0320914 0)
(1.14608 0.028878 0)
(1.14496 0.0258854 0)
(1.14386 0.0230841 0)
(1.14281 0.0204478 0)
(1.14182 0.0179532 0)
(1.14092 0.0155799 0)
(1.1401 0.0133091 0)
(1.13938 0.0111241 0)
(1.13877 0.00900936 0)
(1.13827 0.00695075 0)
(1.13789 0.00493488 0)
(1.13764 0.00294904 0)
(1.13751 0.000981029 0)
(1.06264 0.156211 0)
(1.10108 0.145552 0)
(1.12335 0.129991 0)
(1.1354 0.117472 0)
(1.14185 0.105559 0)
(1.14535 0.0950796 0)
(1.14734 0.0857631 0)
(1.14851 0.0774802 0)
(1.14916 0.0701013 0)
(1.14945 0.0635014 0)
(1.14943 0.0575741 0)
(1.14915 0.0522285 0)
(1.14866 0.0473864 0)
(1.14799 0.0429806 0)
(1.1472 0.0389531 0)
(1.1463 0.0352539 0)
(1.14533 0.0318393 0)
(1.14433 0.0286717 0)
(1.14332 0.025718 0)
(1.14232 0.0229494 0)
(1.14136 0.0203406 0)
(1.14045 0.0178688 0)
(1.1396 0.0155143 0)
(1.13884 0.0132588 0)
(1.13816 0.0110862 0)
(1.13758 0.0089816 0)
(1.13711 0.00693112 0)
(1.13676 0.0049219 0)
(1.13652 0.00294166 0)
(1.13639 0.000978639 0)
(1.05482 0.152728 0)
(1.09315 0.142012 0)
(1.11576 0.126886 0)
(1.12846 0.114745 0)
(1.13563 0.103198 0)
(1.13981 0.0930542 0)
(1.14242 0.0840259 0)
(1.14413 0.075993 0)
(1.14525 0.0688296 0)
(1.14594 0.0624154 0)
(1.14627 0.0566486 0)
(1.14629 0.0514416 0)
(1.14606 0.0467193 0)
(1.14563 0.042417 0)
(1.14502 0.0384788 0)
(1.1443 0.0348564 0)
(1.14348 0.0315078 0)
(1.14261 0.0283967 0)
(1.14171 0.0254913 0)
(1.14081 0.0227637 0)
(1.13993 0.0201895 0)
(1.13909 0.0177471 0)
(1.1383 0.015417 0)
(1.13758 0.0131822 0)
(1.13695 0.0110268 0)
(1.13641 0.00893661 0)
(1.13596 0.00689837 0)
(1.13563 0.00489969 0)
(1.1354 0.00292881 0)
(1.13528 0.000974435 0)
(1.04709 0.148498 0)
(1.08541 0.137808 0)
(1.10842 0.123214 0)
(1.12177 0.111518 0)
(1.12963 0.100404 0)
(1.13447 0.0906536 0)
(1.13767 0.0819637 0)
(1.13989 0.0742247 0)
(1.14146 0.0673149 0)
(1.14253 0.0611194 0)
(1.1432 0.0555414 0)
(1.14352 0.0504977 0)
(1.14354 0.0459164 0)
(1.14332 0.0417358 0)
(1.14291 0.0379026 0)
(1.14234 0.0343707 0)
(1.14167 0.0311 0)
(1.14092 0.0280557 0)
(1.14013 0.0252076 0)
(1.13932 0.0225289 0)
(1.13851 0.0199964 0)
(1.13774 0.0175894 0)
(1.13701 0.0152895 0)
(1.13635 0.0130802 0)
(1.13575 0.0109466 0)
(1.13524 0.0088751 0)
(1.13482 0.00685304 0)
(1.1345 0.00486864 0)
(1.13429 0.00291071 0)
(1.13418 0.000968491 0)
(1.03949 0.143567 0)
(1.07791 0.132984 0)
(1.10135 0.119007 0)
(1.11535 0.107818 0)
(1.12387 0.0972016 0)
(1.12934 0.0878964 0)
(1.1331 0.0795922 0)
(1.13582 0.0721887 0)
(1.13782 0.0655685 0)
(1.13926 0.0596231 0)
(1.14024 0.0542611 0)
(1.14083 0.0494039 0)
(1.14109 0.0449837 0)
(1.14108 0.0409424 0)
(1.14085 0.0372293 0)
(1.14044 0.033801 0)
(1.1399 0.0306195 0)
(1.13927 0.0276519 0)
(1.13857 0.0248695 0)
(1.13785 0.0222473 0)
(1.13713 0.0197631 0)
(1.13642 0.0173975 0)
(1.13574 0.015133 0)
(1.13512 0.0129541 0)
(1.13456 0.0108467 0)
(1.13409 0.00879786 0)
(1.13369 0.00679574 0)
(1.13339 0.00482918 0)
(1.13319 0.00288762 0)
(1.13308 0.000960891 0)
(1.03207 0.13798 0)
(1.07069 0.127583 0)
(1.09461 0.1143 0)
(1.10924 0.103675 0)
(1.1184 0.0936141 0)
(1.12447 0.0848034 0)
(1.12876 0.0769293 0)
(1.13193 0.0699001 0)
(1.13433 0.0636035 0)
(1.13612 0.0579375 0)
(1.1374 0.052817 0)
(1.13825 0.0481685 0)
(1.13874 0.0439286 0)
(1.13892 0.0400429 0)
(1.13885 0.0364642 0)
(1.13859 0.0331518 0)
(1.13818 0.0300701 0)
(1.13766 0.0271885 0)
(1.13706 0.0244802 0)
(1.13642 0.0219215 0)
(1.13576 0.019492 0)
(1.13511 0.0171733 0)
(1.13449 0.0149493 0)
(1.13391 0.0128052 0)
(1.13339 0.0107281 0)
(1.13294 0.00870576 0)
(1.13257 0.00672713 0)
(1.13229 0.00478178 0)
(1.13209 0.00285981 0)
(1.132 0.000951729 0)
(1.02488 0.131788 0)
(1.0638 0.121653 0)
(1.08822 0.109127 0)
(1.10347 0.0991201 0)
(1.11324 0.0896684 0)
(1.11987 0.0813973 0)
(1.12465 0.0739944 0)
(1.12826 0.0673756 0)
(1.13103 0.061434 0)
(1.13314 0.056075 0)
(1.1347 0.0512199 0)
(1.13579 0.0468007 0)
(1.13648 0.0427589 0)
(1.13684 0.0390443 0)
(1.13694 0.0356133 0)
(1.13681 0.0324283 0)
(1.13651 0.0294565 0)
(1.13609 0.0266696 0)
(1.13559 0.0240428 0)
(1.13502 0.0215545 0)
(1.13443 0.0191854 0)
(1.13384 0.016919 0)
(1.13326 0.01474 0)
(1.13273 0.0126351 0)
(1.13224 0.0105921 0)
(1.13181 0.00859978 0)
(1.13146 0.00664796 0)
(1.1312 0.00472695 0)
(1.13101 0.0028276 0)
(1.13092 0.000941105 0)
(1.01796 0.125042 0)
(1.05727 0.115238 0)
(1.08222 0.103527 0)
(1.09808 0.0941869 0)
(1.10842 0.0853927 0)
(1.11557 0.0777025 0)
(1.12081 0.0708085 0)
(1.12481 0.0646333 0)
(1.12792 0.0590759 0)
(1.13032 0.0540493 0)
(1.13214 0.0494815 0)
(1.13345 0.0453106 0)
(1.13434 0.0414834 0)
(1.13486 0.0379541 0)
(1.1351 0.0346831 0)
(1.1351 0.0316362 0)
(1.13491 0.0287835 0)
(1.13458 0.0260994 0)
(1.13416 0.0235612 0)
(1.13366 0.0211492 0)
(1.13313 0.0188462 0)
(1.13259 0.0166367 0)
(1.13206 0.0145071 0)
(1.13156 0.0124452 0)
(1.1311 0.0104399 0)
(1.1307 0.00848096 0)
(1.13037 0.00655901 0)
(1.13012 0.00466525 0)
(1.12995 0.00279131 0)
(1.12986 0.000929129 0)
(1.01134 0.117794 0)