/*--------------------------------*- C++ -*----------------------------------*\
  =========                 |
  \\      /  F ield         | OpenFOAM: The Open Source CFD Toolbox
   \\    /   O peration     | Website:  https://openfoam.org
    \\  /    A nd           | Version:  7
     \\/     M anipulation  |
\*---------------------------------------------------------------------------*/
FoamFile
{
    version     2.0;
    format      ascii;
    class       volScalarField;
    location    "105";
    object      p;
}
// * * * * * * * * * * * * * * * * * * * * * * * * * * * * * * * * * * * * * //

dimensions      [0 2 -2 0 0 0 0];

internalField   nonuniform List<scalar> 
3700
(
-0.341156
-0.34714
-0.357134
-0.368037
-0.373257
-0.369207
-0.353868
-0.327202
-0.292304
-0.253955
-0.217222
-0.185883
-0.161876
-0.1456
-0.136516
-0.133797
-0.136964
-0.146111
-0.161196
-0.180916
-0.202165
-0.220603
-0.232014
-0.233548
-0.224771
-0.207444
-0.184901
-0.160819
-0.138152
-0.118668
-0.103043
-0.0912579
-0.08298
-0.0778202
-0.0754288
-0.0755422
-0.0780711
-0.0831693
-0.0911168
-0.101947
-0.115014
-0.128825
-0.141305
-0.150353
-0.154388
-0.152755
-0.14595
-0.135261
-0.122387
-0.108948
-0.0961778
-0.0848295
-0.0752481
-0.067514
-0.06158
-0.057352
-0.0547297
-0.0536487
-0.0541352
-0.056319
-0.060345
-0.0661763
-0.0734255
-0.081286
-0.0887111
-0.0945569
-0.0979415
-0.098171
-0.0951601
-0.0890002
-0.0803475
-0.0695582
-0.0577013
-0.0448854
-0.0320608
-0.019006
-0.00604779
-0.328165
-0.325178
-0.328325
-0.334043
-0.337848
-0.333857
-0.320526
-0.297499
-0.267395
-0.234234
-0.202538
-0.175736
-0.155655
-0.142735
-0.136533
-0.136388
-0.142069
-0.153857
-0.171658
-0.193877
-0.217026
-0.236497
-0.247987
-0.248714
-0.23839
-0.219031
-0.194258
-0.168013
-0.143413
-0.122266
-0.105224
-0.0922111
-0.0828314
-0.0766397
-0.0732437
-0.0723422
-0.0737941
-0.0776897
-0.0842696
-0.0935953
-0.105127
-0.117532
-0.128907
-0.137299
-0.141233
-0.14007
-0.134244
-0.124883
-0.113515
-0.101606
-0.0902832
-0.0802441
-0.0718225
-0.0651154
-0.0601047
-0.0567264
-0.0549101
-0.0546248
-0.0559366
-0.0590138
-0.0640258
-0.0709314
-0.0793093
-0.0882897
-0.096747
-0.10344
-0.107397
-0.107836
-0.104639
-0.0979503
-0.0884361
-0.076527
-0.0634117
-0.0492699
-0.0351403
-0.0208106
-0.00664479
-0.314167
-0.301768
-0.297326
-0.297791
-0.298678
-0.295088
-0.284025
-0.264916
-0.2399
-0.212153
-0.185711
-0.163632
-0.147622
-0.138141
-0.13484
-0.137262
-0.145446
-0.159836
-0.180264
-0.204832
-0.229708
-0.250081
-0.261618
-0.261638
-0.249956
-0.22879
-0.202032
-0.173871
-0.14756
-0.12494
-0.106632
-0.092507
-0.0821151
-0.0749616
-0.0706165
-0.0687457
-0.0691633
-0.0718984
-0.0771488
-0.0849991
-0.0950158
-0.10603
-0.116316
-0.124066
-0.127904
-0.127205
-0.122335
-0.11426
-0.104355
-0.093938
-0.0840312
-0.0752801
-0.0680061
-0.0623215
-0.0582343
-0.0557086
-0.0547029
-0.0552199
-0.0573654
-0.0613463
-0.0673568
-0.0753526
-0.0848823
-0.0950155
-0.104549
-0.112139
-0.116719
-0.117411
-0.114047
-0.106864
-0.0964981
-0.0834615
-0.0690773
-0.0535994
-0.038167
-0.0225727
-0.0072281
-0.299385
-0.277608
-0.265208
-0.259966
-0.257779
-0.2537
-0.245252
-0.230045
-0.210205
-0.187926
-0.166815
-0.149528
-0.137637
-0.1316
-0.131165
-0.136102
-0.146749
-0.16368
-0.186618
-0.213369
-0.239807
-0.260981
-0.272579
-0.27206
-0.25926
-0.236569
-0.208126
-0.178339
-0.150578
-0.126702
-0.1073
-0.0921953
-0.0808935
-0.0728592
-0.067631
-0.0648471
-0.0642833
-0.065914
-0.0698913
-0.0763157
-0.0848569
-0.0945111
-0.103729
-0.110847
-0.114583
-0.114339
-0.110368
-0.103514
-0.0950058
-0.0860214
-0.0774817
-0.069981
-0.0638286
-0.0591496
-0.0559752
-0.0542949
-0.0540945
-0.0554101
-0.0583869
-0.0632695
-0.0702769
-0.0793643
-0.0900544
-0.10136
-0.112002
-0.120536
-0.12579
-0.126778
-0.123264
-0.115647
-0.104452
-0.0902934
-0.0746441
-0.0578337
-0.0411135
-0.0242767
-0.00779362
-0.284072
-0.253466
-0.233059
-0.221809
-0.216228
-0.211139
-0.205902
-0.19357
-0.178741
-0.161817
-0.145978
-0.133433
-0.125606
-0.122939
-0.125284
-0.132679
-0.145738
-0.165141
-0.19046
-0.219222
-0.247064
-0.268952
-0.280638
-0.279806
-0.266169
-0.242275
-0.212487
-0.181399
-0.152475
-0.127582
-0.107274
-0.0913336
-0.079233
-0.0704071
-0.0643698
-0.0607379
-0.059255
-0.0598479
-0.0626228
-0.0676881
-0.0748087
-0.0831438
-0.0913201
-0.0978161
-0.101439
-0.101645
-0.0984624
-0.0927513
-0.0855612
-0.0779333
-0.0706955
-0.0643935
-0.059324
-0.0556221
-0.0533391
-0.0524869
-0.0530768
-0.0551771
-0.0589715
-0.0647406
-0.0727286
-0.0828929
-0.0947358
-0.107218
-0.118991
-0.128504
-0.134482
-0.13582
-0.132157
-0.124202
-0.11221
-0.0969488
-0.0800536
-0.0619298
-0.0439507
-0.0259059
-0.00833698
-0.230243
-0.202026
-0.184692
-0.175219
-0.169066
-0.164203
-0.156117
-0.146011
-0.134192
-0.123411
-0.115422
-0.111492
-0.112043
-0.11706
-0.126865
-0.142307
-0.16411
-0.191674
-0.222263
-0.251352
-0.273888
-0.285662
-0.284778
-0.270613
-0.245867
-0.215099
-0.18306
-0.153281
-0.127625
-0.106609
-0.0899848
-0.0772022
-0.0676786
-0.0609121
-0.0565034
-0.054172
-0.0538013
-0.0554552
-0.0592413
-0.0650091
-0.0720751
-0.0792397
-0.0851212
-0.0886039
-0.0891402
-0.0867189
-0.0820759
-0.0761123
-0.0697501
-0.0637353
-0.0585676
-0.0545304
-0.0517665
-0.0503435
-0.0502924
-0.0516478
-0.0545088
-0.0590954
-0.0657227
-0.0746597
-0.0858693
-0.0988394
-0.112486
-0.125394
-0.135914
-0.142668
-0.144422
-0.140578
-0.132437
-0.11968
-0.103348
-0.0852438
-0.0658428
-0.0466487
-0.0274434
-0.00885355
-0.208769
-0.173199
-0.150084
-0.136001
-0.128257
-0.123131
-0.118703
-0.112509
-0.105429
-0.0993445
-0.0956043
-0.095327
-0.0988905
-0.106476
-0.118663
-0.136469
-0.160602
-0.190262
-0.222489
-0.252676
-0.275814
-0.287553
-0.286991
-0.2726
-0.247353
-0.215983
-0.183356
-0.153046
-0.126889
-0.105369
-0.0882152
-0.0748698
-0.0647447
-0.0573312
-0.0522214
-0.0491162
-0.0478633
-0.0484844
-0.0510812
-0.0555741
-0.0614278
-0.0676133
-0.0728851
-0.0761968
-0.0769931
-0.0752589
-0.0715871
-0.0667433
-0.0615454
-0.0566637
-0.0525551
-0.0494896
-0.0476148
-0.0470109
-0.0477248
-0.0498123
-0.0534002
-0.0587425
-0.0661861
-0.076025
-0.0882309
-0.102284
-0.117064
-0.131096
-0.142636
-0.150217
-0.152505
-0.14847
-0.140276
-0.126763
-0.109408
-0.0901498
-0.0695261
-0.0491768
-0.0288723
-0.00933855
-0.188683
-0.147113
-0.119243
-0.0998982
-0.0899537
-0.0842118
-0.0825403
-0.0787684
-0.0759084
-0.074013
-0.0741382
-0.0772086
-0.0835861
-0.0936605
-0.108217
-0.128374
-0.154752
-0.186338
-0.220004
-0.251156
-0.274895
-0.28623
-0.286604
-0.272198
-0.246777
-0.215186
-0.182352
-0.151839
-0.125445
-0.103622
-0.0860926
-0.0723032
-0.0616723
-0.0536945
-0.0479601
-0.0441583
-0.0421083
-0.0417901
-0.0432934
-0.046597
-0.0513006
-0.056541
-0.0612065
-0.0643191
-0.0653266
-0.0641802
-0.0613708
-0.057533
-0.0533892
-0.0495422
-0.0464092
-0.0442462
-0.043203
-0.0433689
-0.0448037
-0.0475817
-0.0518538
-0.0579043
-0.0661096
-0.0767884
-0.0899245
-0.104998
-0.12086
-0.135985
-0.148542
-0.156987
-0.160016
-0.157908
-0.147683
-0.133347
-0.115039
-0.0947055
-0.0729331
-0.0515045
-0.0301759
-0.00978718
-0.172046
-0.1262
-0.0921691
-0.0677527
-0.0554167
-0.0486727
-0.046591
-0.0453523
-0.0461005
-0.0477588
-0.0513075
-0.0573795
-0.0663949
-0.0788991
-0.0958242
-0.118308
-0.146822
-0.180139
-0.215025
-0.246995
-0.271541
-0.285793
-0.283982
-0.269525
-0.244235
-0.212804
-0.180137
-0.149744
-0.123369
-0.10144
-0.0836836
-0.069566
-0.0585234
-0.0500623
-0.0437787
-0.0393569
-0.0365937
-0.0354339
-0.0359439
-0.0381486
-0.0417689
-0.0461001
-0.0501638
-0.0530478
-0.0542134
-0.0535624
-0.0515034
-0.0485509
-0.0453463
-0.0424303
-0.040183
-0.0388465
-0.0385705
-0.0394499
-0.0415547
-0.0449738
-0.0498792
-0.0565811
-0.0654818
-0.0769244
-0.0909082
-0.106921
-0.123794
-0.13996
-0.153509
-0.162808
-0.166432
-0.16408
-0.154161
-0.139291
-0.120153
-0.098845
-0.0760176
-0.0536022
-0.0313379
-0.0101947
-0.159329
-0.110107
-0.0713077
-0.0429512
-0.0257578
-0.016551
-0.0134993
-0.0134093
-0.0167552
-0.02119
-0.0275802
-0.0362959
-0.0477697
-0.0626426
-0.081919
-0.106672
-0.137173
-0.171993
-0.207853
-0.240422
-0.265411
-0.279428
-0.278725
-0.264687
-0.239862
-0.208961
-0.176821
-0.146856
-0.120743
-0.0988926
-0.0810519
-0.0667171
-0.0553534
-0.0464873
-0.0397272
-0.0347593
-0.031365
-0.029458
-0.0290795
-0.0302794
-0.0328864
-0.0363455
-0.039811
-0.0424396
-0.0437048
-0.043464
-0.0420445
-0.0398569
-0.0374755
-0.0353843
-0.0339291
-0.0333385
-0.0337593
-0.0352906
-0.0380085
-0.0420134
-0.047494
-0.0547822
-0.0643019
-0.0764198
-0.0911535
-0.108007
-0.1258
-0.142937
-0.157434
-0.167563
-0.171762
-0.169439
-0.159727
-0.144496
-0.124667
-0.102506
-0.0787359
-0.0554416
-0.0323435
-0.0105567
-0.150776
-0.0991764
-0.0568166
-0.0246776
-0.00296214
0.00959641
0.0148727
0.0157201
0.010955
0.00477545
-0.00373548
-0.014665
-0.0283642
-0.0454954
-0.0670444
-0.0939385
-0.126216
-0.162271
-0.198837
-0.231776
-0.257023
-0.271144
-0.271256
-0.257884
-0.23383
-0.203806
-0.172527
-0.143275
-0.117649
-0.09605
-0.0782566
-0.0638089
-0.0522101
-0.043014
-0.0358468
-0.0304027
-0.0264547
-0.0238906
-0.0227256
-0.0230199
-0.024687
-0.0273131
-0.0301842
-0.0325321
-0.0338402
-0.0339247
-0.0330399
-0.0315009
-0.0298293
-0.0284569
-0.0276986
-0.0277699
-0.0288141
-0.0309311
-0.0342005
-0.0387309
-0.044723
-0.0525256
-0.0625794
-0.0752736
-0.0906466
-0.108225
-0.126831
-0.144849
-0.160233
-0.171167
-0.175959
-0.173883
-0.164342
-0.148886
-0.12851
-0.105632
-0.0810474
-0.056997
-0.0331791
-0.010869
-0.093361
-0.0485597
-0.0130807
0.0126888
0.0290623
0.037244
0.0377934
0.035546
0.0289442
0.0191599
0.00657687
-0.009003
-0.0281729
-0.051805
-0.0806119
-0.11438
-0.151357
-0.188338
-0.221418
-0.246779
-0.261101
-0.261892
-0.249348
-0.226335
-0.197502
-0.167389
-0.139107
-0.114169
-0.0929765
-0.0753509
-0.0608871
-0.049134
-0.0396787
-0.03217
-0.0263153
-0.0218856
-0.0187485
-0.0168932
-0.0163805
-0.0171862
-0.019021
-0.0213025
-0.0233436
-0.0246426
-0.0249983
-0.0245215
-0.0235219
-0.022453
-0.0216965
-0.0215406
-0.0221887
-0.0237803
-0.0264141
-0.0301703
-0.0351621
-0.041598
-0.0498378
-0.0603348
-0.0734983
-0.0893895
-0.107566
-0.126861
-0.145653
-0.161846
-0.17355
-0.178965
-0.177257
-0.167939
-0.152391
-0.131619
-0.108173
-0.0829172
-0.0582457
-0.0338333
-0.0111278
-0.0920268
-0.0458711
-0.0078322
0.0214045
0.041606
0.0534264
0.0574846
0.0562013
0.0500434
0.0399071
0.0263686
0.00940424
-0.0114295
-0.0368093
-0.0671798
-0.102069
-0.139613
-0.176707
-0.209698
-0.235018
-0.24952
-0.250923
-0.239324
-0.217586
-0.190226
-0.161547
-0.134458
-0.110384
-0.0897336
-0.0723838
-0.0579919
-0.0461596
-0.0365113
-0.0287225
-0.0225179
-0.0176724
-0.0140394
-0.0115836
-0.0103576
-0.0103817
-0.0114719
-0.013171
-0.01488
-0.0161202
-0.0167249
-0.0165008
-0.0159496
-0.0153854
-0.0151463
-0.0155007
-0.0166415
-0.018704
-0.0217842
-0.0259604
-0.0313473
-0.0381564
-0.0467535
-0.0575987
-0.0711192
-0.0874001
-0.106036
-0.125883
-0.145328
-0.16224
-0.174669
-0.180724
-0.179485
-0.170467
-0.154956
-0.133945
-0.110089
-0.0843162
-0.0591696
-0.0342973
-0.0113302
-0.0942452
-0.0477418
-0.00805321
0.0238908
0.0475367
0.0631114
0.0712649
0.0717839
0.0669447
0.0573941
0.0436972
0.0259916
0.00403148
-0.0226085
-0.0540744
-0.0896424
-0.127363
-0.164259
-0.196927
-0.222049
-0.236656
-0.238622
-0.228061
-0.207804
-0.182161
-0.155143
-0.129434
-0.106372
-0.0863805
-0.0694009
-0.0551597
-0.0433159
-0.0335355
-0.0255231
-0.019024
-0.0138224
-0.00976318
-0.00678901
-0.0049384
-0.00425922
-0.00465428
-0.00578264
-0.00713612
-0.00825717
-0.00890661
-0.00898103
-0.00880832
-0.00865829
-0.00884456
-0.00962114
-0.0111729
-0.0136307
-0.0170865
-0.0216153
-0.0273301
-0.0344408
-0.0433138
-0.0544109
-0.0681736
-0.0847116
-0.103662
-0.123915
-0.14388
-0.161407
-0.174505
-0.181201
-0.180511
-0.171885
-0.15654
-0.135448
-0.111347
-0.0852216
-0.0597537
-0.0345646
-0.0114739
-0.0989188
-0.0529305
-0.0124899
0.0212579
0.0476411
0.0665749
0.0789222
0.0817178
0.0789442
0.0708308
0.0577873
0.0400734
0.01765
-0.00963893
-0.0416376
-0.0773875
-0.114878
-0.151268
-0.183385
-0.208146
-0.222752
-0.22524
-0.2158
-0.197203
-0.173485
-0.148313
-0.124132
-0.102198
-0.0829613
-0.0664316
-0.0524096
-0.0406153
-0.0307586
-0.0225749
-0.0158326
-0.0103291
-0.00590659
-0.00248918
-9.73133e-05
0.00120819
0.0014564
0.000882596
-9.63171e-05
-0.00105155
-0.00171264
-0.00199656
-0.00211901
-0.00229641
-0.00282362
-0.0039401
-0.00582476
-0.00860423
-0.0123662
-0.0171805
-0.0231561
-0.0304971
-0.0395655
-0.0508189
-0.0647096
-0.0813716
-0.100489
-0.120995
-0.141338
-0.159366
-0.173066
-0.18039
-0.180301
-0.17216
-0.157114
-0.136102
-0.111926
-0.0856159
-0.0599856
-0.0346298
-0.0115561
-0.0604196
-0.0198704
0.0150279
0.0433316
0.0646576
0.0787513
0.0859369
0.0858999
0.0798956
0.0682331
0.0512447
0.0290723
0.00181008
-0.0301087
-0.0655196
-0.102372
-0.137957
-0.169311
-0.193536
-0.208032
-0.211006
-0.202764
-0.185981
-0.164349
-0.141155
-0.118607
-0.0978861
-0.0794784
-0.0634666
-0.0497263
-0.0380395
-0.0281612
-0.0198583
-0.012923
-0.00716937
-0.00244249
0.00134822
0.00420223
0.00605762
0.00689411
0.00685427
0.00626453
0.00551105
0.00486844
0.00444805
0.00410931
0.00368209
0.00288961
0.00150841
-0.000635804
-0.0036664
-0.00766682
-0.0127012
-0.0188719
-0.0263738
-0.0355591
-0.0468764
-0.0607844
-0.0774398
-0.0965771
-0.117182
-0.137755
-0.156163
-0.170384
-0.178309
-0.178855
-0.171287
-0.15667
-0.135898
-0.111813
-0.0854896
-0.0598578
-0.0344888
-0.0115732
-0.0692867
-0.0292727
0.00611387
0.0358334
0.059318
0.0759394
0.0856321
0.0882961
0.0847339
0.075009
0.0594115
0.0381868
0.0116275
-0.0196022
-0.0541691
-0.0899999
-0.124501
-0.154885
-0.178405
-0.192726
-0.196181
-0.189212
-0.174363
-0.154923
-0.133784
-0.112929
-0.0934808
-0.075963
-0.0605306
-0.0471315
-0.0356078
-0.0257602
-0.0173875
-0.0103059
-0.0043488
0.000630759
0.00473301
0.00797753
0.0103102
0.0116784
0.012147
0.0119558
0.011439
0.0108618
0.0103623
0.00987539
0.00926821
0.0082766
0.00669676
0.0043595
0.00114374
-0.0030305
-0.00822154
-0.014524
-0.0221199
-0.0313473
-0.0426406
-0.0564603
-0.072985
-0.0920009
-0.112555
-0.133208
-0.151867
-0.166517
-0.175011
-0.176211
-0.16929
-0.155224
-0.134849
-0.111024
-0.0848567
-0.0593823
-0.0341494
-0.0115242
-0.0785915
-0.03962
-0.00439714
0.0259486
0.0507461
0.0693422
0.0817914
0.087045
0.085949
0.0784232
0.0647066
0.0450248
0.0197862
-0.0101743
-0.0434105
-0.0778439
-0.111017
-0.140304
-0.16292
-0.177012
-0.181064
-0.175499
-0.162711
-0.145554
-0.126535
-0.107425
-0.089296
-0.0727112
-0.057896
-0.0448696
-0.0335354
-0.0237414
-0.0153206
-0.00811414
-0.00197598
0.00322767
0.00760128
0.0111847
0.0139396
0.0157957
0.0167511
0.0169595
0.0167041
0.0162473
0.0156873
0.0151646
0.0144428
0.0133179
0.0116038
0.00913495
0.00579388
0.00150501
-0.00378377
-0.0101581
-0.0177854
-0.0269857
-0.0381747
-0.0518091
-0.0680858
-0.0868422
-0.107196
-0.12778
-0.14656
-0.161543
-0.170563
-0.17243
-0.166218
-0.152821
-0.133001
-0.109608
-0.0837628
-0.0585989
-0.0336405
-0.0114165
-0.0882281
-0.0504283
-0.0154092
0.0156564
0.0418562
0.0622352
0.0756775
0.0828077
0.0842648
0.0792115
0.0676986
0.0500182
0.0265671
-0.00172676
-0.0333194
-0.0661196
-0.097766
-0.125704
-0.14774
-0.160825
-0.165414
-0.161472
-0.151022
-0.136359
-0.119596
-0.102311
-0.0855419
-0.0699055
-0.0557092
-0.0430511
-0.0319
-0.0221547
-0.0136849
-0.0063559
-4.15542e-05
0.00537443
0.00999289
0.0138742
0.017009
0.0193272
0.0207654
0.021375
0.0213662
0.021017
0.0205173
0.019934
0.0191427
0.0179442
0.0161703
0.0136436
0.0102462
0.00590622
0.000578785
-0.00580999
-0.0134093
-0.0225163
-0.0335256
-0.0468878
-0.0628196
-0.0812072
-0.10124
-0.121624
-0.140391
-0.155582
-0.165027
-0.167518
-0.162101
-0.149492
-0.130382
-0.107581
-0.0822216
-0.0575058
-0.032979
-0.0112439
-0.0630893
-0.0294895
0.000937037
0.0273556
0.0488204
0.0657957
0.0760502
0.0794292
0.076765
0.0678464
0.0527005
0.0317853
0.00603446
-0.0230719
-0.0535171
-0.0830094
-0.10943
-0.130837
-0.144146
-0.148687
-0.146305
-0.138127
-0.125818
-0.111178
-0.0956478
-0.0802527
-0.0656501
-0.0522055
-0.0400721
-0.0292667
-0.0197285
-0.0113587
-0.0040433
0.00232839
0.00785221
0.0126121
0.0166783
0.0200793
0.0227704
0.0246499
0.0256661
0.0259124
0.0256195
0.0250492
0.0243094
0.0235211
0.0222453
0.0204036
0.0178332
0.0144171
0.0100801
0.00477576
-0.00156523
-0.00907802
-0.018033
-0.028795
-0.0417943
-0.0572609
-0.0751293
-0.0946779
-0.114709
-0.133347
-0.14868
-0.158525
-0.1616
-0.156936
-0.145201
-0.126894
-0.10475
-0.0800594
-0.0559108
-0.0320795
-0.0109328
-0.0621223
-0.0305351
-0.00160676
0.0236674
0.0441517
0.0595587
0.0696495
0.0744398
0.0734834
0.0663338
0.0529609
0.0337104
0.00953701
-0.01787
-0.0463927
-0.0739432
-0.0982615
-0.1179
-0.128401
-0.131798
-0.129059
-0.121202
-0.109906
-0.096722
-0.082841
-0.0690979
-0.0560199
-0.0438966
-0.0328516
-0.0229068
-0.0140223
-0.0061264
0.000869199
0.00705371
0.012501
0.0172698
0.0214158
0.0249812
0.0279579
0.0302779
0.0318621
0.0327125
0.0329413
0.0326997
0.032363
0.0310028
0.0294328
0.0273383
0.024535
0.0209291
0.0164683
0.011127
0.004851
-0.00249139
-0.0111702
-0.0215563
-0.0340812
-0.0490068
-0.0663006
-0.0853242
-0.10495
-0.123427
-0.13888
-0.149177
-0.152856
-0.149151
-0.138088
-0.12075
-0.0995277
-0.0759837
-0.0528633
-0.0303522
-0.0102771
-0.06032
-0.0332243
-0.00854643
0.0131999
0.0311677
0.0454237
0.0550577
0.05984
0.0594828
0.0538106
0.0428929
0.027112
0.00734302
-0.0149437
-0.037794
-0.0591232
-0.0773021
-0.0900176
-0.0997489
-0.103057
-0.101141
-0.0953371
-0.0868401
-0.076723
-0.0658421
-0.0548212
-0.0440823
-0.0338881
-0.0243854
-0.0156378
-0.00766017
-0.000434622
0.00607966
0.0119316
0.0171633
0.0218119
0.0259233
0.0295404
0.03266
0.0352045
0.0370568
0.0381442
0.0385112
0.0382911
0.0374634
0.0366544
0.0352688
0.033284
0.0306
0.027129
0.0228279
0.0176817
0.0116506
0.00462655
-0.00362328
-0.013425
-0.0251702
-0.0391126
-0.0552552
-0.0730633
-0.0915252
-0.109009
-0.123731
-0.133784
-0.137914
-0.135056
-0.125568
-0.109951
-0.0906176
-0.0690999
-0.0480175
-0.0275042
-0.00941288
-0.0603573
-0.0367612
-0.0150301
0.00424505
0.020436
0.0331313
0.0418843
0.0464403
0.0466352
0.0423869
0.0338276
0.0214002
0.00595014
-0.0112809
-0.0288436
-0.0452621
-0.0592213
-0.0703339
-0.0776094
-0.0805046
-0.0795386
-0.0755028
-0.0691793
-0.0613237
-0.05259
-0.0434925
-0.03441
-0.0256033
-0.0172383
-0.00940782
-0.00215499
0.00451013
0.0106011
0.0161452
0.0211697
0.0256945
0.0297387
0.0333256
0.0364628
0.0391108
0.0411815
0.0425829
0.043279
0.0433117
0.0427555
0.041736
0.0402347
0.0382006
0.0355468
0.0321844
0.028057
0.0231402
0.0173974
0.0107434
0.00298755
-0.00613947
-0.016972
-0.0297293
-0.0444197
-0.0605772
-0.0773288
-0.0932834
-0.106972
-0.116741
-0.121345
-0.119606
-0.111585
-0.0978913
-0.0807264
-0.0614893
-0.0427134
-0.0244098
-0.00852228
-0.0599205
-0.0394032
-0.0203866
-0.00352704
0.0107603
0.0220847
0.0301094
0.0346202
0.0354929
0.0327061
0.0264321
0.0170853
0.00534623
-0.00785901
-0.021433
-0.034156
-0.0444314
-0.0538516
-0.0597037
-0.0623022
-0.0619075
-0.0590069
-0.0541691
-0.0479626
-0.0408924
-0.0333702
-0.0257117
-0.0181468
-0.0108337
-0.00387321
0.00267586
0.00878389
0.0144421
0.0196562
0.0244372
0.0287929
0.032728
0.0362493
0.0393601
0.0420396
0.0442276
0.0458363
0.0467926
0.0470699
0.0466985
0.0457767
0.0443222
0.0423328
0.039763
0.0365504
0.0326452
0.0280218
0.0226496
0.0164644
0.00931692
0.000992531
-0.00878446
-0.0201988
-0.0332774
-0.047667
-0.0626835
-0.0771839
-0.0898998
-0.0992889
-0.104123
-0.103234
-0.0966896
-0.084943
-0.0700583
-0.0532835
-0.0370167
-0.0211111
-0.00755517
-0.0594219
-0.0416262
-0.0250489
-0.0102469
0.00240129
0.0125592
0.0199659
0.0244417
0.0258962
0.0243483
0.0199687
0.0131032
0.00428901
-0.00575074
-0.016183
-0.0262271
-0.0355943
-0.0415001
-0.0458566
-0.0479706
-0.0478202
-0.0456878
-0.0419525
-0.037011
-0.0312363
-0.0249519
-0.0184226
-0.011854
-0.00539823
0.000838286
0.00678571
0.0124013
0.0176618
0.0225583
0.0270901
0.031257
0.035055
0.0384783
0.0415201
0.0441655
0.046377
0.0480904
0.0492362
0.0497655
0.0496508
0.0489241
0.0476179
0.0457579
0.0433395
0.0403357
0.0367154
0.0324595
0.027544
0.0219216
0.0154754
0.00803095
-0.00064844
-0.0107382
-0.0223
-0.0350678
-0.04848
-0.0615483
-0.073172
-0.0820003
-0.0869177
-0.0867819
-0.0816104
-0.0717911
-0.0592335
-0.0449961
-0.0312932
-0.0178279
-0.00658669
-0.0587929
-0.0433364
-0.0288547
-0.0158208
-0.00460204
0.00453237
0.0113689
0.0157645
0.0176574
0.0170823
0.0141964
0.00929863
0.00283358
-0.00463091
-0.0124674
-0.0200608
-0.0268498
-0.0317716
-0.0351603
-0.036824
-0.0367436
-0.0350771
-0.0320715
-0.0280097
-0.0231759
-0.0178291
-0.0121902
-0.00643773
-0.000709603
0.00489245
0.0102967
0.0154546
0.0203349
0.0249188
0.0291955
0.0331577
0.0367963
0.0400988
0.0430511
0.0456372
0.047831
0.0495889
0.0508542
0.0515756
0.0517081
0.0512343
0.0501686
0.0485356
0.0463517
0.0436195
0.0403324
0.0364838
0.0320589
0.0270217
0.0212772
0.0146767
0.00701156
-0.00188228
-0.0120715
-0.0233318
-0.0351966
-0.0468442
-0.0573813
-0.0656233
-0.0705132
-0.0709599
-0.0669969
-0.0589887
-0.0486774
-0.036923
-0.0257245
-0.014643
-0.00562079
-0.0579507
-0.0445025
-0.0318478
-0.0203621
-0.0103902
-0.00215842
0.00415759
0.00844565
0.0106645
0.0108567
0.00916634
0.00584586
0.00125055
-0.00418144
-0.00995428
-0.0155601
-0.0205547
-0.0243693
-0.0269422
-0.0281617
-0.0280102
-0.026583
-0.0240478
-0.0206094
-0.0164816
-0.0118666
-0.00694352
-0.00186312
0.00325292
0.00831
0.0132373
0.0179836
0.0225125
0.0267989
0.0308254
0.0345791
0.0380472
0.0412147
0.0440642
0.046576
0.0487274
0.0504885
0.0518201
0.0526741
0.0530075
0.0527872
0.0520079
0.050677
0.0488084
0.0464154
0.0435069
0.040088
0.0361523
0.0316727
0.0265714
0.0207241
0.0139543
0.0061227
-0.00282876
-0.0127185
-0.0231815
-0.0335531
-0.0430834
-0.0506846
-0.055389
-0.0562287
-0.0532919
-0.046945
-0.0387519
-0.0293567
-0.020519
-0.0116798
-0.00470383
-0.0569114
-0.0451908
-0.0340938
-0.0239769
-0.0150963
-0.00765908
-0.00181308
0.00235282
0.00481081
0.00560405
0.00485638
0.00277498
-0.00035559
-0.00418903
-0.00832695
-0.0123334
-0.0159633
-0.0187707
-0.020618
-0.021403
-0.021107
-0.0197872
-0.0175561
-0.0145592
-0.010956
-0.00690389
-0.00254793
0.00198508
0.00658897
0.011178
0.0156853
0.0200598
0.0242635
0.0282679
0.0320516
0.0355978
0.0388908
0.0419142
0.0446497
0.0470771
0.0491747
0.0509193
0.0522817
0.0532179
0.0536994
0.0536956
0.05319
0.0521784
0.0506653
0.0486594
0.0461691
0.0432009
0.0397507
0.0357965
0.0312748
0.0260854
0.0200838
0.0131579
0.00525808
-0.00346899
-0.0127339
-0.0219773
-0.0305358
-0.0374218
-0.0417971
-0.0428676
-0.0408066
-0.0359745
-0.02973
-0.0224994
-0.0158061
-0.00900159
-0.00384838
-0.0557066
-0.045477
-0.0357341
-0.0267873
-0.0188575
-0.0121205
-0.00669992
-0.0026686
-4.67883e-05
0.00120449
0.00118923
7.80863e-05
-0.00189871
-0.00446646
-0.00731597
-0.0101445
-0.0126149
-0.0145408
-0.0157436
-0.0161225
-0.0156489
-0.0143524
-0.0123071
-0.00961719
-0.00640215
-0.0027847
0.00111836
0.00520169
0.00937433
0.0135603
0.017698
0.0217386
0.025644
0.0293844
0.0329362
0.03628
0.0393985
0.0422748
0.0448906
0.0472264
0.0492612
0.050975
0.0523516
0.0533366
0.0539229
0.0540862
0.0538102
0.0530851
0.0519092
0.0502846
0.0482134
0.0456942
0.0427162
0.0392543
0.0352519
0.0306262
0.0252627
0.0190793
0.0120451
0.00429235
-0.00393404
-0.012143
-0.0197393
-0.0258529
-0.0298025
-0.031004
-0.0297233
-0.026269
-0.021778
-0.0164758
-0.0116679
-0.00665279
-0.0030732
-0.0543619
-0.0454217
-0.0368448
-0.0289112
-0.0218109
-0.0156923
-0.0106593
-0.00677276
-0.00404885
-0.00245388
-0.00190085
-0.0022506
-0.00331911
-0.00488482
-0.00669916
-0.00853567
-0.0101358
-0.0113319
-0.0119791
-0.0119882
-0.0113245
-0.00999955
-0.00806179
-0.00558554
-0.00266024
0.000619007
0.00415873
0.00787204
0.0116816
0.0155209
0.0193342
0.0230759
0.0267091
0.0302041
0.0335366
0.0366859
0.0396341
0.0423637
0.0448575
0.047097
0.0490622
0.0507347
0.0520927
0.0531199
0.0537844
0.0540744
0.0539776
0.0534846
0.0525913
0.0512958
0.0495938
0.0474758
0.0449212
0.0418973
0.0383483
0.0342049
0.0293804
0.0238253
0.0175332
0.0106336
0.0033489
-0.00387728
-0.0105176
-0.0158466
-0.0193718
-0.0207033
-0.0201502
-0.0179349
-0.0149789
-0.0113396
-0.0081347
-0.00464577
-0.00238507
-0.0529062
-0.0450611
-0.0375085
-0.0304577
-0.0240828
-0.0185117
-0.0138324
-0.0100967
-0.00731843
-0.00546981
-0.00447969
-0.00423597
-0.00459067
-0.00536346
-0.00635726
-0.00740065
-0.0082939
-0.0088873
-0.00906231
-0.00874271
-0.00789237
-0.00651168
-0.0046311
-0.00230323
0.000405139
0.0034203
0.0066675
0.0100753
0.0135783
0.0171189
0.0206474
0.024122
0.0275079
0.0307763
0.0339032
0.0368679
0.039652
0.0422385
0.0446108
0.0467515
0.0486434
0.0502695
0.0516088
0.0526494
0.0533679
0.053752
0.0537911
0.0534771
0.0528045
0.0517685
0.0503606
0.0485661
0.0463586
0.0437012
0.0405402
0.0368191
0.0324758
0.0274878
0.0218712
0.0157582
0.0093604
0.00307476
-0.00266051
-0.00728521
-0.0104832
-0.0119967
-0.0121253
-0.0109916
-0.00933104
-0.00707687
-0.00519208
-0.00296989
-0.00178668
-0.0513807
-0.0444873
-0.0378086
-0.0315253
-0.0257862
-0.0207006
-0.0163442
-0.012762
-0.00996662
-0.00793647
-0.00661443
-0.0059099
-0.00570309
-0.00585047
-0.00620536
-0.00661052
-0.00692425
-0.00701887
-0.00679636
-0.00619053
-0.00516616
-0.00371697
-0.00186116
0.000364221
0.00290924
0.0057167
0.00872686
0.0118811
0.0151245
0.0184073
0.0216858
0.0249221
0.0280842
0.0311447
0.0340805
0.0368713
0.0394992
0.0419478
0.0442011
0.046243
0.0480592
0.0496333
0.0509467
0.0519878
0.05274
0.0531913
0.0533319
0.0531534
0.052649
0.0518112
0.0506289
0.0490849
0.0471517
0.0447937
0.0419641
0.0386195
0.0347184
0.030259
0.0252755
0.0199004
0.0143287
0.00889681
0.00394018
-0.000129592
-0.00312755
-0.00486524
-0.00560333
-0.0053722
-0.00476078
-0.00362265
-0.00279352
-0.00159797
-0.00127562
-0.0498005
-0.0437352
-0.0378158
-0.0322018
-0.0270204
-0.022366
-0.0183047
-0.014876
-0.0120924
-0.00993752
-0.00836617
-0.00730598
-0.00666098
-0.00631658
-0.00615873
-0.00605888
-0.0059025
-0.00558743
-0.00503261
-0.00418086
-0.00299929
-0.00147803
0.00037285
0.0025274
0.00494827
0.00759098
0.0104078
0.0133506
0.0163733
0.0194334
0.0224925
0.0255168
0.0284769
0.0313475
0.0341065
0.036735
0.0392156
0.0415325
0.0436711
0.0456166
0.0473553
0.0488734
0.0501539
0.0511855
0.051955
0.052452
0.0526663
0.0525892
0.0522124
0.0515265
0.0505187
0.0491712
0.0474581
0.0453487
0.0428055
0.0397979
0.0363022
0.0323314
0.0279298
0.0232221
0.0183746
0.0136555
0.00931043
0.00564272
0.0027485
0.000787688
-0.000454966
-0.000938842
-0.00114396
-0.000878854
-0.000873015
-0.000493254
-0.000845926
-0.0482107
-0.0428563
-0.0375953
-0.0325639
-0.0278719
-0.0236012
-0.0198094
-0.016532
-0.0137815
-0.0115464
-0.00979145
-0.00845961
-0.0074746
-0.00674744
-0.00617925
-0.00567424
-0.0051382
-0.00448829
-0.00365742
-0.00259678
-0.00127663
0.00031447
0.00217176
0.00427716
0.00660265
0.00911355
0.0117715
0.0145372
0.0173719
0.0202392
0.0231057
0.0259414
0.0287198
0.0314176
0.0340144
0.0364922
0.0388348
0.0410274
0.0430564
0.0449083
0.0465708
0.0480304
0.0492717
0.0502852
0.0510597
0.0515847
0.0518506
0.0518478
0.0515673
0.0509981
0.050127
0.0489367
0.0474044
0.0455049
0.0432105
0.0405017
0.0373681
0.0338314
0.029938
0.0257974
0.0215434
0.0173867
0.0135013
0.0101139
0.00728157
0.00513918
0.00351182
0.0024867
0.00166742
0.00126568
0.000642447
0.00038415
-0.000489432
-0.0466311
-0.0418915
-0.0372014
-0.0326778
-0.0284156
-0.0244862
-0.0209403
-0.0178101
-0.0151083
-0.0128274
-0.0109407
-0.00940361
-0.00815529
-0.00712531
-0.00623542
-0.00540723
-0.00456535
-0.00364267
-0.00258383
-0.00134757
9.24317e-05
0.00174791
0.00361741
0.00568838
0.00793966
0.0103441
0.0128707
0.0154872
0.018161
0.0208612
0.0235586
0.0262269
0.0288423
0.0313836
0.0338321
0.036171
0.0383854
0.0404615
0.0423866
0.0441485
0.045736
0.0471384
0.048336
0.0493245
0.0500935
0.0506328
0.0509326
0.0509828
0.0507736
0.0502936
0.0495297
0.0484656
0.0470823
0.0453597
0.0432785
0.0408273
0.0380048
0.034836
0.0313649
0.0276846
0.0238998
0.0201758
0.0166361
0.0134583
0.0106766
0.00840874
0.00650935
0.00509145
0.00382225
0.00291994
0.00182387
0.00107286
-0.00019692
-0.0450831
-0.0408754
-0.0366806
-0.0325998
-0.0287153
-0.0250895
-0.0217676
-0.0187789
-0.0161363
-0.013836
-0.0118581
-0.0101681
-0.00871807
-0.00745213
-0.006308
-0.00522247
-0.00413497
-0.002991
-0.00174502
-0.000362428
0.00117966
0.00289244
0.00477639
0.00682275
0.00901541
0.0113329
0.0137501
0.0162403
0.0187762
0.0213313
0.0238804
0.0264003
0.0288699
0.0312699
0.0335834
0.0357952
0.0378912
0.0398587
0.0416862
0.0433624
0.0448772
0.0462258
0.0473742
0.0483337
0.0490902
0.0496334
0.0499533
0.0500397
0.0498824
0.0494698
0.0487892
0.047826
0.0465645
0.044989
0.0430863
0.0408511
0.0382873
0.0354206
0.032291
0.0289767
0.0255597
0.0221713
0.0189006
0.0158937
0.0131652
0.0108224
0.00874096
0.00704667
0.00545476
0.00418163
0.0027352
0.0016078
4.09425e-05
-0.0435852
-0.0398374
-0.0360725
-0.0323778
-0.0288251
-0.0254694
-0.0223509
-0.0194967
-0.0169198
-0.0146196
-0.0125822
-0.0107804
-0.00917748
-0.00772856
-0.00638453
-0.00509489
-0.00381081
-0.00248807
-0.00108936
0.000414158
0.00204202
0.00380443
0.00570284
0.00773106
0.00987664
0.0121224
0.0144478
0.0168307
0.0192481
0.0216771
0.0240962
0.0264848
0.0288242
0.0310973
0.0332887
0.0353844
0.0373717
0.039239
0.0409752
0.0425701
0.0440125
0.0452877
0.0464066
0.047338
0.0480777
0.0486172
0.048947
0.0490569
0.0489365
0.0485744
0.0479585
0.0470757
0.0459131
0.0444584
0.0427032
0.0406462
0.0382942
0.0356728
0.0328173
0.0297939
0.0266677
0.0235453
0.0204918
0.0176276
0.0149576
0.0125791
0.0103826
0.0084976
0.00667831
0.00513361
0.00343117
0.00201915
0.000232943
-0.0421525
-0.0388023
-0.0354103
-0.0320522
-0.0287908
-0.0256749
-0.0227406
-0.020013
-0.0175054
-0.0152195
-0.0131465
-0.0112648
-0.00954691
-0.00795735
-0.00645737
-0.00500663
-0.0035659
-0.00209944
-0.000576803
0.00102582
0.00272486
0.00452928
0.00644089
0.00845516
0.0105623
0.0127483
0.0149963
0.0172876
0.0196029
0.0219225
0.0242276
0.0265002
0.0287239
0.0308834
0.0329647
0.0349553
0.0368436
0.0386189
0.040271
0.0417905