/*--------------------------------*- C++ -*----------------------------------*\
  =========                 |
  \\      /  F ield         | OpenFOAM: The Open Source CFD Toolbox
   \\    /   O peration     | Website:  https://openfoam.org
    \\  /    A nd           | Version:  7
     \\/     M anipulation  |
\*---------------------------------------------------------------------------*/
FoamFile
{
    version     2.0;
    format      ascii;
    class       surfaceScalarField;
    location    "55";
    object      phi;
}
// * * * * * * * * * * * * * * * * * * * * * * * * * * * * * * * * * * * * * //

dimensions      [0 3 -1 0 0 0 0];

internalField   nonuniform List<scalar> 
6856
(
-0.000423692
0.000197785
-0.000652175
0.000228577
-0.000903953
0.000251882
-0.00117567
0.00027183
-0.00146229
0.000286733
-0.00174791
0.000285734
-0.0020596
0.00031178
0.000248558
-0.00230812
-6.9537e-05
0.000144438
-0.000210557
0.000292206
-0.000393921
0.000381149
-0.000602993
0.000437649
-0.000828529
0.000477418
-0.00106509
0.000508392
-0.00130994
0.000531583
-0.00152776
0.000503553
-0.00178056
0.000564584
0.000379532
-0.00191154
-5.98116e-05
0.000204249
-0.000181909
0.000414303
-0.000337906
0.000537145
-0.000509433
0.000609176
-0.000683879
0.000651864
-0.000849173
0.000673686
-0.0010092
0.000691607
-0.00109165
0.00058601
-0.00121476
0.000687689
0.000290884
-0.00112611
-4.73949e-05
0.000251644
-0.000144116
0.000511025
-0.000262207
0.000655236
-0.000380399
0.000727369
-0.000481879
0.000753344
-0.000541935
0.000733741
-0.000564076
0.000713748
-0.000454414
0.000476348
-0.000320391
0.000553666
-7.41497e-05
4.46425e-05
-3.44244e-05
0.000286069
-0.00010233
0.00057893
-0.000175176
0.000728083
-0.000226976
0.000779169
-0.000234155
0.000760523
-0.000166305
0.000665891
3.19983e-05
0.000515445
0.000377314
0.000131033
0.000872533
5.84464e-05
-0.000945915
0.0017443
-2.29848e-05
0.000309053
-6.15286e-05
0.000617474
-8.46271e-05
0.000751181
-5.96124e-05
0.000754154
5.32146e-05
0.000647696
0.000285417
0.000433688
0.000731264
6.95991e-05
0.00143539
-0.000573096
0.00239621
-0.000902373
-0.00247583
0.00392613
-1.4538e-05
0.000323591
-2.47876e-05
0.000627723
5.90642e-06
0.000720487
0.000121883
0.000638178
0.000379027
0.000390551
0.000839639
-2.69237e-05
0.0016217
-0.000712464
0.00273463
-0.00168603
0.00426582
-0.00243356
-0.00461598
0.00640597
-9.61795e-06
0.000333209
8.2231e-06
0.000609882
0.00010033
0.00062838
0.000331171
0.000407336
0.000784741
-6.30186e-05
0.0015553
-0.000797485
0.00273489
-0.00189205
0.00431842
-0.00326956
0.00639493
-0.00451007
-0.00698803
0.00876698
-6.49867e-06
0.000339708
4.17781e-05
0.000561605
0.000213285
0.000456873
0.000601306
1.93158e-05
0.00132074
-0.000782449
0.00248024
-0.00195699
0.00406053
-0.00347233
0.00602444
-0.00523347
0.00838358
-0.00686921
-0.00910808
0.0105036
-2.09386e-06
0.000341802
8.68231e-05
0.000472688
0.00036916
0.000174536
0.00097688
-0.000588404
0.00202926
-0.00183483
0.00356287
-0.0034906
0.00543397
-0.00534344
0.00748123
-0.00728073
0.00959087
-0.00897884
-0.0107512
0.011234
6.08652e-06
0.000335715
0.000155579
0.000323196
0.000595827
-0.000265712
0.0014848
-0.00147737
0.00287497
-0.00322501
0.00463393
-0.00524956
0.00652737
-0.00723688
0.00832025
-0.00907361
0.00985524
-0.0105138
-0.011892
0.010996
2.15997e-05
0.000314116
0.000260535
8.42613e-05
0.00091225
-0.000917427
0.00209973
-0.00266485
0.00370752
-0.0048328
0.00544794
-0.00698999
0.00707689
-0.00886582
0.00841531
-0.010412
0.00954008
-0.0116386
-0.012863
0.010511
4.7692e-05
0.000266424
0.000411401
-0.000279447
0.00131024
-0.00181627
0.0027212
-0.00407581
0.00433446
-0.00644605
0.00583702
-0.00849255
0.00708061
-0.0101094
0.00806814
-0.0113995
0.00892292
-0.0124934
-0.0135985
0.00965843
8.66432e-05
0.00017978
0.000611004
-0.000803808
0.0017377
-0.00294297
0.00321224
-0.00555034
0.00464226
-0.00787607
0.0058209
-0.00967119
0.00674244
-0.011031
0.00748513
-0.0121422
0.0081519
-0.0131602
-0.0142446
0.00879804
0.000141215
3.85652e-05
0.000845976
-0.00150857
0.00211004
-0.00420704
0.00348355
-0.00692385
0.0046451
-0.00903762
0.00553081
-0.0105569
0.0062114
-0.0117115
0.00678226
-0.0127131
0.00733243
-0.0137103
-0.0147803
0.0078681
0.000213784
-0.000175218
0.00108275
-0.00237754
0.00235491
-0.00547919
0.00352971
-0.00809865
0.00442428
-0.00993219
0.00507355
-0.0112062
0.00557823
-0.0122162
0.00602589
-0.0131607
0.00646652
-0.014151
-0.0152206
0.00690682
0.000301706
-0.000476924
0.00128045
-0.00335628
0.00244912
-0.00664786
0.00339455
-0.00904409
0.00405585
-0.0105935
0.00452197
-0.0116723
0.00489405
-0.0125883
0.0052369
-0.0135036
0.0055818
-0.0144959
-0.0155677
0.00592893
0.000393159
-0.000870083
0.00140589
-0.00436902
0.00240754
-0.0076495
0.00312943
-0.00976598
0.00359736
-0.0110614
0.00392011
-0.0119951
0.0041838
-0.012852
0.00443324
-0.013753
0.00468216
-0.0147448
-0.015815
0.0049295
0.000472833
-0.00134292
0.00144205
-0.00533823
0.00225722
-0.00846467
0.00277832
-0.0102871
0.00308776
-0.0113709
0.00329381
-0.0122011
0.0034625
-0.0130207
0.003621
-0.0139115
0.00377519
-0.014899
-0.0159652
0.00392531
0.000528443
-0.00187136
0.00139372
-0.00620351
0.00202629
-0.00909724
0.00237461
-0.0106354
0.00255289
-0.0115491
0.00265856
-0.0123068
0.00273793
-0.0131
0.00280667
-0.0139803
0.00286717
-0.0149595
-0.0160184
0.00292042
0.00055257
-0.00242393
0.00128378
-0.00693472
0.00174125
-0.00955471
0.00194181
-0.010836
0.00200885
-0.0116162
0.00202372
-0.0123217
0.0020165
-0.0130928
0.00199483
-0.0139586
0.00195936
-0.014924
-0.0159769
0.0019178
0.000542616
-0.00296654
0.00112711
-0.00751922
0.00142307
-0.00985067
0.00149587
-0.0109088
0.00146577
-0.0115861
0.00139552
-0.0122514
0.0013032
-0.0130005
0.00119128
-0.0138467
0.00105682
-0.0147896
-0.0158323
0.000912271
0.000501358
-0.0034679
0.00093767
-0.00795553
0.00108759
-0.0100006
0.00104873
-0.0108699
0.0009305
-0.0114678
0.000778015
-0.0120989
0.000601478
-0.012824
0.000400122
-0.0136453
0.000177713
-0.0145671
-0.0155605
-9.40621e-05
0.000435659
-0.00390356
0.000727846
-0.00824772
0.000747
-0.0100197
0.000608384
-0.0107313
0.00040704
-0.0112665
0.000172882
-0.0118648
-8.7514e-05
-0.0125636
-0.000370109
-0.0133627
-0.000688468
-0.0142488
-0.0152093
-0.0010397
0.000353549
-0.00425711
0.000507894
-0.00840206
0.000409521
-0.00992137
0.000178104
-0.0104999
-0.000101694
-0.0109867
-0.000407394
-0.0115591
-0.000743809
-0.0122272
-0.00111522
-0.0129913
-0.00152461
-0.0138394
-0.0147709
-0.00196298
0.000262103
-0.00451921
0.000286955
-0.00842691
7.79468e-05
-0.00971236
-0.000231544
-0.0101904
-0.000581303
-0.0106369
-0.000964344
-0.011176
-0.00137974
-0.0118118
-0.00183416
-0.0125369
-0.00232618
-0.0133474
-0.0142454
-0.00285169
0.00016684
-0.00468605
7.55253e-05
-0.0083356
-0.000233158
-0.00940368
-0.000619682
-0.00980386
-0.00104223
-0.0102144
-0.00149778
-0.0107205
-0.00198878
-0.0113208
-0.00252086
-0.0120048
-0.00309291
-0.0127753
-0.0136367
-0.00370159
7.32641e-05
-0.00475932
-0.000139366
-0.00812297
-0.000528967
-0.00901408
-0.000988473
-0.00934435
-0.00148019
-0.00972267
-0.00200537
-0.0101953
-0.00256805
-0.0107581
-0.00317256
-0.0114003
-0.00382053
-0.0121274
-0.0129521
-0.00450515
-1.2866e-05
-0.00474645
-0.00034141
-0.00779443
-0.000809521
-0.00854596
-0.00133514
-0.00881873
-0.00189268
-0.00916514
-0.00248521
-0.00960276
-0.00311704
-0.0101263
-0.00378968
-0.0107277
-0.00449833
-0.0114187
-0.0121993
-0.00525115
-0.000118971
-0.00462748
-0.00052844
-0.00738496
-0.00107036
-0.00800404
-0.00165805
-0.00823104
-0.00227771
-0.00854548
-0.00293447
-0.00894601
-0.00363309
-0.00942763
-0.00437639
-0.00998435
-0.00516826
-0.0106268
-0.0114261
-0.00594146
-0.000209165
-0.00441832
-0.000701284
-0.00689284
-0.00130936
-0.00739596
-0.00195546
-0.00758494
-0.00263328
-0.00786766
-0.00334955
-0.00822973
-0.00410952
-0.00866767
-0.00491594
-0.00917793
-0.00576977
-0.009773
-0.0104268
-0.00676904
-0.000290029
-0.00412829
-0.000858671
-0.0063242
-0.00152624
-0.00672839
-0.00222621
-0.00688497
-0.00295793
-0.00713595
-0.00372837
-0.00745929
-0.00454118
-0.00785485
-0.0054003
-0.00831881
-0.00632535
-0.00884795
-0.00939923
-0.00735294
-0.000362051
-0.00376624
-0.00099942
-0.00568683
-0.00172019
-0.00600762
-0.0024691
-0.00613606
-0.00324999
-0.00635506
-0.00407078
-0.0066385
-0.00493798
-0.00698765
-0.00586061
-0.00739619
-0.0068534
-0.00785516
-0.0083427
-0.00790993
-0.000424924
-0.00334131
-0.00112282
-0.00498893
-0.00189062
-0.00523982
-0.0026831
-0.00534358
-0.00350721
-0.00553096
-0.00437082
-0.00577489
-0.00528184
-0.00607662
-0.0062513
-0.00642673
-0.00729084
-0.00681563
-0.00723804
-0.00839549
-0.000477664
-0.00286365
-0.00122818
-0.00423842
-0.0020371
-0.0044309
-0.00286796
-0.00451272
-0.00373058
-0.00466834
-0.00463355
-0.00487192
-0.00558576
-0.00512442
-0.00659679
-0.0054157
-0.00767393
-0.00573849
-0.00609444
-0.00881753
-0.000518764
-0.00234488
-0.00131515
-0.00344204
-0.00215927
-0.00358677
-0.00302236
-0.00364964
-0.00391681
-0.00377389
-0.00485181
-0.00393692
-0.00583699
-0.00413923
-0.0068813
-0.00437138
-0.00799127
-0.00462853
-0.00491551
-0.00917019
-0.000554082
-0.0017908
-0.00138503
-0.00261109
-0.00225738
-0.00271442
-0.00314673
-0.00276028
-0.00406729
-0.00285332
-0.00502857
-0.00297565
-0.00604033
-0.00312747
-0.00711071
-0.003301
-0.00824612
-0.00349311
-0.00370921
-0.00945243
-0.000581501
-0.0012093
-0.00143779
-0.0017548
-0.00233105
-0.00182115
-0.00324014
-0.0018512
-0.00418029
-0.00191317
-0.00516123
-0.00199471
-0.00619281
-0.00209589
-0.00728262
-0.00221119
-0.00843691
-0.00233883
-0.00248301
-0.0096631
-0.0006
-0.00147317
-0.00238029
-0.00330258
-0.000928904
-0.00425588
-0.000959876
-0.00524995
-0.00100064
-0.00629465
-0.0010512
-0.00739711
-0.00110873
-0.00856357
-0.00117236
-0.00124436
-0.00980223
-0.00333384
-0.00429371
-0.00529434
-0.00634553
-0.00745426
-0.00862661
-0.00987097
-0.00234988
4.17486e-05
-0.00238837
3.84499e-05
-0.00242234
3.39106e-05
-0.00245219
2.97654e-05
-0.00247842
2.61077e-05
-0.00250146
2.2878e-05
-0.00252166
2.00109e-05
-0.00253931
1.74358e-05
-0.00255466
1.50856e-05
-0.00256786
1.29032e-05
-0.00257903
1.08427e-05
-0.00258826
8.867e-06
-0.0025956
6.94794e-06
-0.0026011
5.06935e-06
-0.00260478
3.23532e-06
-0.0026067
1.45006e-06
-0.00260685
-3.12331e-07
-0.00260555
-1.76003e-06
-0.00260273
-3.27691e-06
-0.00259836
-4.81074e-06
-0.00259244
-6.34984e-06
-0.00258497
-7.89037e-06
-0.00257593
-9.42913e-06
-0.00256532
-1.0964e-05
-0.00255313
-1.25058e-05
-0.00253934
-1.40564e-05
-0.00252393
-1.56178e-05
-0.00250689
-1.71918e-05
-1.878e-05
-0.00194616
7.6372e-05
-0.00197893
7.12232e-05
-0.00200823
6.32072e-05
-0.00203398
5.55139e-05
-0.00205653
4.86557e-05
-0.00207622
4.25668e-05
-0.00209334
3.7134e-05
-0.00210813
3.22312e-05
-0.00212078
2.77307e-05
-0.0021314
2.35245e-05
-0.00214009
1.95271e-05
-0.00214689
1.56685e-05
-0.00215183
1.18916e-05
-0.00215493
8.1644e-06
-0.00215618
4.4915e-06
-0.00215549
7.54808e-07
-0.00215346
-2.34299e-06
-0.00214983
-5.38308e-06
-0.00214464
-8.46789e-06
-0.00213788
-1.157e-05
-0.00212955
-1.46828e-05
-0.00211963
-1.78112e-05
-0.00210811
-2.09433e-05
-0.00209504
-2.40426e-05
-0.00208038
-2.71636e-05
-0.00206413
-3.03082e-05
-0.00204627
-3.34791e-05
-0.00202678
-3.66792e-05
-3.99102e-05
-0.00115234
0.000102596
-0.0011733
9.21912e-05
-0.00119467
8.45747e-05
-0.0012139
7.47417e-05
-0.00123097
6.5729e-05
-0.00124588
5.74794e-05
-0.0012587
4.99517e-05
-0.00126953
4.30565e-05
-0.00127844
3.66447e-05
-0.0012855
3.05807e-05
-0.00129073
2.47621e-05
-0.00129416
1.90987e-05
-0.00129577
1.35024e-05
-0.00129551
7.90043e-06
-0.00129319
2.17619e-06
-0.00128955
-2.8917e-06
-0.00128428
-7.60668e-06
-0.00127731
-1.23569e-05
-0.00126867
-1.71043e-05
-0.00125839
-2.18495e-05
-0.00124648
-2.65983e-05
-0.00123292
-3.13665e-05
-0.00121774
-3.6131e-05
-0.00120096
-4.08215e-05
-0.00118257
-4.5549e-05
-0.00116257
-5.03053e-05
-0.00114096
-5.50943e-05
-0.00111772
-5.99198e-05
-6.47837e-05
3.77273e-05
0.000109511
2.01735e-05
0.000109745
5.67173e-06
9.90764e-05
-8.60703e-06
8.90204e-05
-2.23274e-05
7.94494e-05
-3.49259e-05
7.00779e-05
-4.60559e-05
6.10817e-05
-5.55706e-05
5.25713e-05
-6.3356e-05
4.44301e-05
-6.93152e-05
3.65398e-05
-7.34003e-05
2.88472e-05
-7.55902e-05
2.12886e-05
-7.58339e-05
1.37461e-05
-7.39695e-05
6.03606e-06
-7.00733e-05
-1.71998e-06
-6.46955e-05
-8.26953e-06
-5.73866e-05
-1.49156e-05
-4.82438e-05
-2.14997e-05
-3.73082e-05
-2.80399e-05
-2.46026e-05
-3.45551e-05
-1.01453e-05
-4.10557e-05
6.00599e-06
-4.75178e-05
2.37608e-05
-5.38859e-05
4.32276e-05
-6.02882e-05
6.43892e-05
-6.67106e-05
8.72406e-05
-7.31568e-05
0.000111779
-7.96326e-05
0.000137999
-8.61402e-05
0.000165894
-9.26787e-05
-9.92479e-05
0.00168996
0.000163849
0.00165229
0.000147414
0.00161968
0.000131692
0.00159096
0.000117741
0.00156573
0.000104671
0.00154379
9.20253e-05
0.00152457
8.02975e-05
0.00150771
6.94319e-05
0.00149317
5.89724e-05
0.00148103
4.86822e-05
0.0014713
3.85709e-05
0.00146395
2.86364e-05
0.00145893
1.87673e-05
0.00145622
8.75124e-06
0.00145604
-1.54573e-06
0.00145793
-1.01585e-05
0.00146209
-1.90767e-05
0.0014686
-2.80064e-05
0.00147736
-3.67957e-05
0.00148826
-4.54607e-05
0.00150123
-5.40211e-05
0.0015162
-6.2495e-05
0.0015332
-7.08785e-05
0.00155214
-7.92359e-05
0.001573
-8.7571e-05
0.00159575
-9.58978e-05
0.00162034
-0.000104227
0.00164676
-0.000112561
0.00167498
-0.000120895
-0.000129228
0.00382908
0.000260896
0.00374776
0.00022874
0.00367221
0.000207235
0.0036022
0.000187752
0.00354028
0.000166599
0.00348649
0.000145808
0.00343937
0.000127422
0.00339771
0.000111086
0.00336103
9.56555e-05
0.00332901
8.07055e-05
0.00330128
6.63021e-05
0.00327748
5.24278e-05
0.00325734
3.89111e-05
0.00324054
2.55514e-05
0.00322692
1.20779e-05
0.00321849
-1.73133e-06
0.00321227
-1.28533e-05
0.00320876
-2.44997e-05
0.0032081
-3.61359e-05
0.00321037
-4.77329e-05
0.00321542
-5.90695e-05
0.0032231
-7.01738e-05
0.0032333
-8.10823e-05
0.00324591
-9.18407e-05
0.00326083
-0.000102493
0.00327801
-0.000113077
0.0032974
-0.000123614
0.00331894
-0.000134103
0.00334257
-0.000144532
-0.000154891
0.00626519
0.000401679
0.0061373
0.000356624
0.00601598
0.000328553
0.00589857
0.000305164
0.00579072
0.000274451
0.00569318
0.00024335
0.00560448
0.000216116
0.00552385
0.000191721
0.00545111
0.000168398
0.00538586
0.000145954
0.00532747
0.000124688
0.00527537
0.000104532
0.00522905
8.52292e-05
0.005188
6.66008e-05
0.00515154
4.85358e-05
0.0051189
3.09126e-05
0.0050926
1.3448e-05
0.00507182
-3.72663e-06
0.00505422
-1.85284e-05
0.00504013
-3.36445e-05
0.00502957
-4.85104e-05
0.00502268
-6.32861e-05
0.00501931
-7.77144e-05
0.00501923
-9.17542e-05
0.00502221
-0.000105475
0.00502809
-0.000118957
0.00503674
-0.000132268
0.00504806
-0.00014542
0.00506192
-0.000158388
0.00507819
-0.000171166
-0.000183775
0.00860162
0.000567038
0.00844414
0.000514106
0.00828636
0.000486333
0.00813473
0.000456785
0.00799387
0.000415318
0.00786239
0.000374831
0.00773899
0.00033951
0.007624
0.000306709
0.00751779
0.000274615
0.00742006
0.00024368
0.00733038
0.000214365
0.00724839
0.000186525
0.0071737
0.000159915
0.00710589
0.000134414
0.00704449
0.000109937
0.00698903
8.63697e-05
0.00693882
6.36615e-05
0.00689349
4.16003e-05
0.00685522
1.97397e-05
0.00682406
-2.47854e-06
0.00679572
-2.01686e-05
0.00677105
-3.86189e-05
0.00675011
-5.67715e-05
0.00673306
-7.47113e-05
0.00671982
-9.2232e-05
0.00671018
-0.000109321
0.00670401
-0.000126093
0.00670112
-0.000142534
0.00670132
-0.000158581
0.00670439
-0.000174243
0.00671019
-0.000189571
-0.000204598
0.0103431
0.000727593
0.0101841
0.000673042
0.0100209
0.000649587
0.00986637
0.000611299
0.00972018
0.000561511
0.00958053
0.00051448
0.00944751
0.000472529
0.00932159
0.000432635
0.00920283
0.000393372
0.00909119
0.000355325
0.0089867
0.00031885
0.00888938
0.000283844
0.00879908
0.000250212
0.00871557
0.00021793
0.00863856
0.000186946
0.00856777
0.000157162
0.00850294
0.000128492
0.00844367
0.000100864
0.00838913
7.42874e-05
0.0083381
4.85482e-05
0.00829476
2.31706e-05
0.00825877
-2.62689e-06
0.00822533
-2.3332e-05
0.00819541
-4.47868e-05
0.00816884
-6.56656e-05
0.00814572
-8.62044e-05
0.00812615
-0.000106526
0.00811002
-0.000126403
0.00809712
-0.000145679
0.00808727
-0.000164386
0.00808029
-0.000182599
-0.000200347
0.0111294
0.000832159
0.0110026
0.000799818
0.0108856
0.000766635
0.0107729
0.00072398
0.0106609
0.000673457
0.0105515
0.000623961
0.0104455
0.00057845
0.010343
0.000535165
0.0102437
0.000492639
0.010148
0.000451066
0.0100561
0.000410717
0.00996839
0.000371595
0.00988491
0.000333692
0.00980581
0.000297034
0.00973113
0.000261625
0.00966087
0.000227422
0.00959497
0.000194388
0.00953338
0.000162449
0.00947609
0.000131583
0.00942293
0.000101711
0.00937307
7.30295e-05
0.00932525
4.51921e-05
0.00928454
1.73738e-05
0.00924859
-8.83156e-06
0.00921478
-3.18614e-05
0.00918391
-5.53324e-05
0.00915602
-7.86364e-05
0.00913098
-0.000101364
0.00910871
-0.000123402
0.00908912
-0.000144804
0.00907215
-0.000165624
0.00905768
-0.000185874
-0.00020555
0.0165671
0.000938246
-0.0166732
0.0164859
0.000880986
0.0164163
0.000836223
0.0163498
0.000790553
0.0162803
0.000742926
0.0162084
0.000695806
0.016137
0.000649869
0.0160669
0.000605294
0.0159974
0.000562102
0.0159284
0.00052014
0.0158598
0.000479239
0.0157921
0.00043935
0.0157253
0.000400513
0.0156595
0.000362757
0.0155951
0.000326084
0.015532
0.000290469
0.0154705
0.000255895
0.0154106
0.000222324
0.0153525
0.000189756
0.015296
0.000158138
0.0152416
0.000127475
0.0151891
9.77052e-05
0.0151373
6.9157e-05
0.0150864
4.20815e-05
0.0150381
1.64409e-05
0.0149918
-9.03133e-06
0.0149486
-3.54876e-05
0.0149075
-6.02469e-05
0.0148682
-8.41245e-05
0.0148308
-0.000107359
0.0147951
-0.000129945
0.0147611
-0.000151847
-0.000173069
0.0166739
0.000949406
-0.0166851
0.0166607
0.000894242
0.0166537
0.000843183
0.0166472
0.000797032
0.016637
0.000753141
0.0166229
0.00070994
0.0166056
0.00066713
0.0165858
0.00062512
0.0165637
0.000584221
0.0165394
0.000544412
0.0165131
0.000505548
0.0164849
0.000467537
0.0164551
0.000430367
0.0164238
0.000394054
0.0163912
0.000358613
0.0163577
0.000324041
0.0163232
0.000290334
0.0162881
0.000257487
0.0162523
0.000225504
0.0162161
0.000194382
0.0161794
0.000164142
0.0161423
0.000134779
0.0161052
0.000106262
0.0160688
7.84708e-05
0.0160339
5.13353e-05
0.0160002
2.46655e-05
0.0159666
-1.85308e-06
0.0159321
-2.57766e-05
0.015898
-4.99972e-05
0.0158643
-7.36835e-05
0.015831
-9.66205e-05
0.015798
-0.000118861
-0.000140467
0.0165744
0.00092974
-0.0165547
0.0165917
0.000876875
0.0166071
0.000827797
0.0166211
0.000783049
0.0166331
0.000741155
0.0166425
0.000700563
0.016649
0.000660577
0.0166529
0.000621248
0.0166543
0.000582779
0.0166535
0.000545246
0.0166505
0.000508598
0.0166452
0.000472752
0.0166379
0.000437663
0.0166287
0.000403316
0.0166176
0.000369714
0.0166048
0.000336857
0.0165904
0.000304747
0.0165745
0.000273379
0.0165572
0.00024275
0.0165388
0.000212849
0.0165192
0.000183656
0.0164989
0.000155129
0.0164779
0.000127249
0.0164563
0.000100059
0.016434
7.3658e-05
0.0164106
4.80806e-05
0.0163854
2.33558e-05
0.0163596
-4.55625e-08
0.0163344
-2.47656e-05
0.0163087
-4.79371e-05
0.0162825
-7.04361e-05
0.016256
-9.23546e-05
-0.000113669
0.0164305
0.000891141
-0.0163919
0.0164605
0.000846877
0.0164858
0.000802493
0.0165086
0.000760267
0.0165294
0.000720385
0.0165479
0.000682055
0.0165639
0.000644596
0.0165773
0.000607772
0.0165885
0.00057163
0.0165975
0.000536254
0.0166044
0.000501661
0.0166094
0.000467817
0.0166123
0.000434677
0.0166134
0.000402215
0.0166127
0.00037042
0.0166103
0.000339292
0.0166062
0.000308827
0.0166006
0.000279021
0.0165935
0.000249866
0.016585
0.000221352
0.0165751
0.00019347
0.016564
0.000166222
0.0165517
0.000139625
0.016538
0.00011371
0.0165232
8.85066e-05
0.0165072
6.4052e-05
0.0164905
4.00793e-05
0.016474
1.64757e-05
0.0164558
-6.60684e-06
0.0164368
-2.89012e-05
0.016417
-5.06942e-05
0.0163965
-7.18723e-05
-9.24632e-05
0.0162768
0.000849943
-0.0162356
0.0163126
0.000811136
0.016344
0.000771014
0.0163723
0.000731985
0.016398
0.000694726
0.0164212
0.000658879
0.0164418
0.000623914
0.0164601
0.000589541
0.016476
0.000555717
0.0164897
0.000522505
0.0165014
0.000489951
0.0165112
0.000458058
0.0165191
0.000426802
0.0165251
0.000396159
0.0165294
0.000366117
0.0165321
0.000336671
0.0165331
0.000307819
0.0165325
0.000279559
0.0165305
0.000251889
0.0165271
0.000224808
0.0165222
0.000198316
0.016516
0.00017242
0.0165085
0.000147126
0.0164998
0.000122432
0.01649
9.83156e-05
0.0164793
7.47508e-05
0.0164677
5.16786e-05
0.016455
2.91239e-05
0.0164412
7.21896e-06
0.0164265
-1.41815e-05
0.0164108
-3.50497e-05
0.0163943
-5.53619e-05
-7.51297e-05
0.0161304
0.000807457
-0.0160879
0.0161696
0.000772007
0.0162047
0.000735826
0.0162364
0.000700334
0.016265
0.000666083
0.016291
0.000632906
0.0163145
0.000600453
0.0163355
0.000568494
0.0163543
0.000536977
0.0163708
0.000505944
0.0163853
0.000475448
0.0163979
0.00044551
0.0164085
0.000416126
0.0164174
0.000387281
0.0164246
0.000358967
0.0164301
0.000331182
0.016434
0.000303926
0.0164363
0.000277202
0.0164372
0.000251011
0.0164366
0.000225356
0.0164347
0.000200238
0.0164315
0.000175656
0.016427
0.000151606
0.0164214
0.000128082
0.0164146
0.000105073
0.0164068
8.25753e-05
0.0163978
6.0598e-05
0.0163878
3.9152e-05
0.0163768
1.82299e-05
0.0163648
-2.18798e-06
0.0163519
-2.21242e-05
0.0163381
-4.15407e-05
-6.04499e-05
0.0159986
0.000762789
-0.0159539
0.0160392
0.000731355
0.0160761
0.000698985
0.0161095
0.000666911
0.0161399
0.000635662
0.0161676
0.000605175
0.0161929
0.000575219
0.0162157
0.000545635
0.0162363
0.00051639
0.0162548
0.00048752
0.0162711
0.000459075
0.0162855
0.000431087
0.0162981
0.000403562
0.0163089
0.000376499
0.016318
0.000349896
0.0163254
0.000323755
0.0163312
0.00029808
0.0163356
0.000272876
0.0163384
0.000248147
0.0163399
0.000223898
0.01634
0.000200128
0.0163388
0.000176838
0.0163364
0.000154027
0.0163328
0.000131694
0.016328
0.000109841
0.0163221
8.84722e-05
0.0163151
6.75897e-05
0.0163071
4.71887e-05
0.0162981
2.72607e-05
0.0162881
7.80121e-06
0.0162771
-1.11872e-05
0.0162653
-2.96999e-05
-4.7738e-05
0.0158804
0.000718148
-0.0158358
0.0159213
0.000690475
0.0159587
0.000661555
0.015993
0.000632619
0.0160245
0.00060421
0.0160533
0.000576328
0.0160797
0.000548809
0.0161038
0.000521543
0.0161257
0.000494512
0.0161454
0.000467758
0.0161632
0.00044133
0.016179
0.000415263
0.016193
0.000389574
0.0162052
0.000364269
0.0162158
0.000339353
0.0162247
0.000314834
0.0162321
0.000290719
0.0162379
0.000267015
0.0162423
0.00024373
0.0162454
0.000220869
0.0162471
0.000198435
0.0162475
0.000176432
0.0162466
0.000154862
0.0162446
0.00013373
0.0162414
0.000113039
0.0162371
9.2789e-05
0.0162317
7.2981e-05
0.0162253
5.36125e-05
0.0162178
3.46827e-05
0.0162094
1.61925e-05
0.0162001
-1.86001e-06
0.0161899
-1.94626e-05
-3.66266e-05
0.0157732
0.00067466
-0.0157297
0.0158137
0.000649942
0.0158512
0.000624044
0.0158859
0.000597979
0.0159178
0.00057223
0.0159473
0.000546822
0.0159745
0.000521638
0.0159995
0.000496599
0.0160223
0.000471704
0.016043
0.000446996
0.0160618
0.000422528
0.0160788
0.000398335
0.0160939
0.000374441
0.0161073
0.000350858
0.0161191
0.000327598
0.0161292
0.000304673
0.0161378
0.000282092
0.016145
0.000259866
0.0161507
0.000238005
0.0161551
0.000216515
0.0161581
0.000195405
0.0161599
0.00017468
0.0161604
0.000154345
0.0161597
0.000134404
0.0161579
0.000114861
0.0161549
9.57192e-05
0.0161509
7.69792e-05
0.0161459
5.8643e-05
0.0161399
4.07127e-05
0.0161329
2.319e-05
0.016125
6.07588e-06
0.0161161
-1.06259e-05
-2.69166e-05
0.015675
0.000632164
-0.0156325
0.0157149
0.000610045
0.0157521
0.000586846
0.0157867
0.000563392
0.0158188
0.000540101
0.0158486
0.000517007
0.0158762
0.000494025
0.0159017
0.000471099
0.0159252
0.000448239
0.0159467
0.000425492
0.0159663
0.000402908
0.0159841
0.000380527
0.0160002
0.000358374
0.0160146
0.000336468
0.0160274
0.000314823
0.0160386
0.000293454
0.0160483
0.000272375
0.0160566
0.000251599
0.0160634
0.000231137
0.0160689
0.000211
0.0160732
0.000191195
0.0160761
0.000171731
0.0160778
0.000152615
0.0160784
0.000133852
0.0160778
0.000115446
0.0160761
9.74034e-05
0.0160734
7.97263e-05
0.0160696
6.24188e-05
0.0160648
4.54839e-05
0.0160591
2.89241e-05
0.0160524
1.27412e-05
0.0160449
-3.06366e-06
-1.84847e-05
0.0155845
0.000590741
-0.0155431
0.0156236
0.000571024
0.0156602
0.000550252
0.0156944
0.000529154
0.0157264
0.000508106
0.0157562
0.000487151
0.015784
0.000466224
0.0158099
0.000445284
0.0158338
0.000424348
0.0158558
0.000403463
0.015876
0.000382679
0.0158945
0.000362035
0.0159113
0.000341559
0.0159265
0.000321272
0.0159401
0.000301192
0.0159523
0.000281336
0.0159629
0.00026172
0.0159722
0.00024236
0.01598
0.000223267
0.0159866
0.000204454
0.0159918
0.000185932
0.0159959
0.000167708
0.0159987
0.000149792
0.0160003
0.00013219
0.0160009
0.000114909
0.0160003
9.79543e-05
0.0159987
8.1331e-05
0.0159961
6.50436e-05
0.0159925
4.90958e-05
0.0159879
3.34912e-05
0.0159824
1.82322e-05
0.015976
3.32032e-06
-1.12369e-05
0.0155009
0.000550645
-0.0154608
0.0155389
0.000533043
0.0155747
0.000514434
0.0156084
0.000495457
0.0156401
0.000476451
0.0156697
0.000457462
0.0156975
0.000438441
0.0157235
0.000419356
0.0157476
0.000400228
0.0157699
0.000381101
0.0157906
0.000362023
0.0158096
0.000343034
0.015827
0.000324163
0.0158428
0.000305432
0.0158572
0.00028686
0.01587
0.000268467
0.0158815
0.000250269
0.0158916
0.000232284
0.0159003
0.000214525
0.0159077
0.000197005
0.0159139
0.000179736
0.0159189
0.000162727
0.0159227
0.000145989
0.0159254
0.000129529
0.0159269
0.000113356
0.0159274
9.74742e-05
0.0159269
8.18911e-05
0.0159253
6.66117e-05
0.0159227
5.16406e-05
0.0159193
3.69818e-05
0.0159149
2.26386e-05
0.0159096
8.61368e-06
-5.08882e-06
0.0154235
0.000511934
-0.0153848
0.0154604
0.000496178
0.0154953
0.000479495
0.0155283
0.00046243
0.0155595
0.000445283
0.0155888
0.0004281
0.0156165
0.000410839
0.0156423
0.00039348
0.0156665
0.000376041
0.015689
0.000358566
0.01571
0.0003411
0.0157293
0.000323682
0.0157471
0.000306339
0.0157635
0.000289094
0.0157784
0.00027197
0.0157919
0.000254984
0.015804
0.000238155
0.0158148
0.0002215
0.0158242
0.000205035
0.0158325
0.000188772
0.0158395
0.000172724
0.0158453
0.000156902
0.01585
0.000141316
0.0158535
0.000125976
0.015856
0.000110889
0.0158574
9.6062e-05
0.0158578
8.15029e-05
0.0158572
6.72168e-05
0.0158556
5.32094e-05
0.0158531
3.94852e-05
0.0158497
2.60491e-05
0.0158454
1.29046e-05
3.9522e-08
0.0153519
0.000474554
-0.0153145
0.0153876
0.000460449
0.0154216
0.000445493
0.0154539
0.000430158
0.0154845
0.000414703
0.0155134
0.000399174
0.0155407
0.000383539
0.0155664
0.00036778
0.0155905
0.000351917
0.0156131
0.00033599
0.0156341
0.000320042
0.0156537
0.000304108
0.0156718
0.000288215
0.0156885
0.000272388
0.0157039
0.000256647
0.0157178
0.000241011
0.0157305
0.000225498
0.0157419
0.000210127
0.015752
0.000194912
0.0157609
0.000179867
0.0157686
0.000165006
0.0157752
0.000150339
0.0157806
0.000135877
0.015785
0.00012163
0.0157882
0.000107606
0.0157905
9.38142e-05
0.0157917
8.02602e-05
0.015792
6.6951e-05
0.0157913
5.38922e-05
0.0157897
4.1089e-05
0.0157872
2.85459e-05
0.0157839
1.62664e-05
4.25396e-06
0.0152857
0.000438466
-0.0152496
0.0153203
0.000425849
0.0153534
0.000412451
0.0153848
0.000398681
0.0154148
0.00038477
0.0154432
0.000370759
0.0154701
0.000356623
0.0154955
0.000342349
0.0155195
0.000327954
0.015542
0.000313475
0.0155631
0.000298953
0.0155828
0.000284419
0.0156011
0.000269902
0.0156181
0.000255421
0.0156337
0.000240999
0.0156481
0.000226655
0.0156612
0.000212406
0.015673
0.000198269
0.0156837
0.00018426
0.0156931
0.000170393
0.0157015
0.000156682
0.0157087
0.000143136
0.0157148
0.000129768
0.0157198
0.000116587
0.0157238
0.000103603
0.0157268
9.0822e-05
0.0157288
7.82529e-05
0.0157299
6.59021e-05
0.01573
5.37755e-05
0.0157292
4.18787e-05
0.0157275
3.02165e-05
0.015725
1.87933e-05
7.61228e-06
0.0152247
0.000403623
-0.0151898
0.0152582
0.000392347
0.0152903
0.000380356
0.015321
0.000368009
0.0153502
0.000355509
0.0153781
0.000342894
0.0154046
0.000330143
0.0154297
0.000317246
0.0154534
0.000304219
0.0154758
0.000291097
0.0154968
0.000277914
0.0155165
0.000264701
0.015535
0.000251484
0.0155521
0.000238283
0.015568
0.000225118
0.0155826
0.000212007
0.0155961
0.000198968
0.0156083
0.000186018
0.0156194
0.000173171
0.0156294
0.000160441
0.0156382
0.000147842
0.0156459
0.000135384
0.0156526
0.000123078
0.0156583
0.000110935
0.0156629
9.89632e-05
0.0156666
8.71706e-05
0.0156693
7.5565e-05
0.015671
6.41531e-05
0.0156718
5.29412e-05
0.0156718
4.1935e-05
0.0156709
3.11396e-05
0.0156691
2.05601e-05
1.02002e-05
0.0151686
0.000369954
-0.0151349
0.015201
0.00035989
0.0152322
0.000349178
0.0152621
0.00033813
0.0152907
0.000326925
0.015318
0.000315597
0.015344
0.000304128
0.0153687
0.000292511
0.0153922
0.000280761
0.0154144
0.000268908
0.0154353
0.000256984
0.015455
0.000245018
0.0154734
0.000233031
0.0154907
0.000221044
0.0155067
0.000209076
0.0155216
0.000197143
0.0155353
0.000185263
0.0155478
0.000173452
0.0155593
0.000161723
0.0155696
0.00015009
0.0155789
0.000138566
0.0155871
0.000127161
0.0155943
0.000115887
0.0156005
0.000104752
0.0156057
9.37669e-05
0.0156099
8.29383e-05
0.0156132
7.22742e-05
0.0156156
6.17813e-05
0.0156171
5.14659e-05
0.0156177
4.13337e-05
0.0156174
3.13896e-05
0.0156164
2.16384e-05
1.20835e-05
0.0151171
0.000337377
-0.0150845
0.0151486
0.000328416
0.0151789
0.000318874
0.015208
0.000309017
0.0152359
0.000299004
0.0152627
0.000288866
0.0152882
0.000278588
0.0153126
0.000268164
0.0153357
0.000257607
0.0153577
0.000246945
0.0153785
0.000236206
0.0153981
0.000225416
0.0154165
0.000214595
0.0154338
0.000203761
0.0154499
0.000192933
0.0154649
0.000182126
0.0154788
0.000171355
0.0154917
0.000160637
0.0155034
0.000149984
0.0155141
0.000139408
0.0155237
0.000128923
0.0155323
0.000118538
0.01554
0.000108264
0.0155466
9.81103e-05
0.0155523
8.80851e-05
0.015557
7.81966e-05
0.0155609
6.84519e-05
0.0155638
5.88578e-05
0.0155658
4.94205e-05
0.015567
4.01454e-05
0.0155674
3.10377e-05
0.0155669
2.21018e-05
1.33421e-05
0.0150702
0.000305805
-0.0150386
0.0151007
0.000297857
0.0151302
0.000289388
0.0151586
0.000280629
0.0151859
0.000271719