/*--------------------------------*- C++ -*----------------------------------*\
  =========                 |
  \\      /  F ield         | OpenFOAM: The Open Source CFD Toolbox
   \\    /   O peration     | Website:  https://openfoam.org
    \\  /    A nd           | Version:  7
     \\/     M anipulation  |
\*---------------------------------------------------------------------------*/
FoamFile
{
    version     2.0;
    format      ascii;
    class       volVectorField;
    location    "55";
    object      U;
}
// * * * * * * * * * * * * * * * * * * * * * * * * * * * * * * * * * * * * * //

dimensions      [0 1 -1 0 0 0 0];

internalField   nonuniform List<vector> 
3500
(
(-0.0612629 0.010058 6.26462e-20)
(-0.0905556 0.00979492 1.09234e-20)
(-0.116867 0.00906217 2.12567e-20)
(-0.140018 0.0081759 -1.22984e-20)
(-0.159742 0.00713778 -2.28021e-20)
(-0.17515 0.00560303 2.21326e-20)
(-0.188963 0.00519467 2.16774e-20)
(-0.194243 0.00211043 1.69241e-20)
(-0.00859343 0.0152066 -7.94098e-20)
(-0.03058 0.0267328 5.2563e-20)
(-0.0605706 0.0295308 -7.15417e-20)
(-0.0876255 0.0287844 3.83511e-21)
(-0.111162 0.0266313 -5.10401e-20)
(-0.131036 0.0240234 6.27203e-21)
(-0.147305 0.0211274 3.27617e-20)
(-0.157216 0.0162144 -1.44071e-19)
(-0.168127 0.0158173 3.55493e-20)
(-0.165103 0.0053706 1.50557e-22)
(-0.0106388 0.0239783 1.47829e-19)
(-0.0324106 0.0425079 -1.30887e-20)
(-0.0592819 0.0471568 9.94091e-20)
(-0.0819635 0.0460264 -9.30971e-21)
(-0.100002 0.0425703 -1.08823e-19)
(-0.113086 0.0383262 8.03557e-20)
(-0.122768 0.0341877 -3.45543e-20)
(-0.12017 0.0252681 3.46584e-20)
(-0.126086 0.0270134 -1.05213e-19)
(-0.104585 0.00685399 1.49333e-19)
(-0.013439 0.030936 1.74409e-20)
(-0.0350318 0.0554257 -2.35215e-19)
(-0.057549 0.0617849 -1.39974e-19)
(-0.0738874 0.0603404 7.36426e-20)
(-0.0838534 0.0557253 8.74786e-20)
(-0.0861453 0.0499372 -1.4561e-19)
(-0.0865477 0.0449228 6.23795e-20)
(-0.0623008 0.0324136 4.1483e-20)
(-0.0612351 0.0370926 1.66609e-19)
(-0.00590384 0.0107814 -2.15242e-19)
(-0.0167611 0.0357672 -7.43969e-20)
(-0.038295 0.0647344 1.15845e-19)
(-0.0554801 0.0724136 3.39018e-19)
(-0.0636034 0.0705885 -1.69093e-19)
(-0.0629975 0.0648568 1.56938e-19)
(-0.0501147 0.0579543 2.64651e-19)
(-0.0374664 0.0501146 -7.36634e-21)
(0.0174668 0.0387433 7.51997e-21)
(0.0280379 0.0425225 -2.45844e-19)
(0.139792 0.0213902 1.15997e-19)
(-0.0204091 0.0384669 -1.76356e-19)
(-0.0419663 0.070025 1.04441e-19)
(-0.0529417 0.0782972 -4.73137e-19)
(-0.0508366 0.0758293 2.30372e-19)
(-0.0364559 0.0687801 3.23278e-20)
(-0.0042221 0.0617288 -2.98526e-19)
(0.029314 0.0486511 -8.76344e-20)
(0.1276 0.0451486 8.75792e-20)
(0.143543 0.0376758 1.66307e-19)
(0.348777 0.0343004 -9.24776e-20)
(-0.02426 0.0392935 -1.93165e-20)
(-0.0456294 0.0712432 -3.28512e-19)
(-0.0492014 0.0790654 3.24561e-19)
(-0.0341982 0.0754991 -2.3334e-19)
(-0.000946362 0.0671637 5.78985e-20)
(0.0573808 0.061108 1.93985e-19)
(0.122734 0.0426261 -3.55603e-19)
(0.273586 0.0519393 -1.48911e-19)
(0.304323 0.0310558 1.26539e-19)
(0.608267 0.0467617 7.37965e-20)
(-0.0282579 0.0386623 1.93426e-19)
(-0.0485255 0.0686432 5.66899e-19)
(-0.0424524 0.0748316 -5.47131e-19)
(-0.0099683 0.0697714 1.33826e-19)
(0.0501785 0.0607919 3.34997e-19)
(0.144928 0.0566292 -1.70564e-19)
(0.260687 0.0401704 -5.4254e-20)
(0.453242 0.0568876 -2.01566e-19)
(0.535923 0.0401263 2.40111e-19)
(0.869437 0.0681426 -1.68553e-19)
(-0.0323103 0.0369597 -3.54674e-19)
(-0.0493838 0.0627436 9.80409e-20)
(-0.0292963 0.0662429 2.04627e-19)
(0.0286282 0.0598949 -1.01781e-19)
(0.12812 0.0524209 -3.43962e-19)
(0.272141 0.0516492 4.07427e-19)
(0.450599 0.0510821 2.58622e-19)
(0.660295 0.0648062 2.33171e-19)
(0.814373 0.0699711 -1.89946e-19)
(1.07778 0.0958301 1.43763e-19)
(-0.036072 0.0344172 -8.80393e-20)
(-0.0461828 0.0541684 -2.86568e-19)
(-0.00448623 0.0545204 -1.70055e-19)
(0.0914507 0.0486871 1.99745e-19)
(0.245464 0.0475724 3.83556e-20)
(0.447928 0.0555496 -2.40049e-19)
(0.672387 0.0742567 2.79802e-19)
(0.880086 0.0873017 -3.92877e-19)
(1.05295 0.11148 -2.20929e-19)
(1.19665 0.116348 7.69682e-20)
(-0.0388805 0.0311311 2.15141e-19)
(-0.0358957 0.0434979 3.01963e-19)
(0.0390301 0.0416043 1.25485e-19)
(0.189466 0.0409047 1.74867e-19)
(0.408092 0.0530322 -1.01385e-19)
(0.657999 0.0765517 -2.59344e-19)
(0.888197 0.1055 1.03409e-19)
(1.06836 0.122298 1.26887e-19)
(1.18836 0.144585 4.22321e-19)
(1.23276 0.120057 -2.48197e-19)
(-0.0397725 0.0270503 3.20661e-19)
(-0.0145382 0.0312928 -3.91383e-20)
(0.109403 0.0306037 2.89217e-19)
(0.329254 0.043118 -1.28547e-19)
(0.604042 0.0738592 3.92831e-19)
(0.863798 0.110657 1.55683e-19)
(1.05961 0.140095 1.92624e-19)
(1.18281 0.154501 -3.15171e-19)
(1.23542 0.157623 -1.28767e-19)
(1.26016 0.143182 1.2353e-19)
(-0.037415 0.0220028 2.29225e-20)
(0.0227242 0.0184572 -2.82522e-19)
(0.213809 0.026587 -2.68265e-19)
(0.504215 0.0607826 -6.77188e-20)
(0.801157 0.108095 -1.06958e-19)
(1.02824 0.147803 1.1662e-19)
(1.16649 0.170198 -4.82595e-19)
(1.2314 0.173681 3.22617e-19)
(1.25488 0.171723 -3.17343e-21)
(1.25883 0.153227 -3.80273e-19)
(-0.0300879 0.0158709 -4.57255e-19)
(0.0813174 0.00712624 -9.32393e-20)
(0.353512 0.0357602 -9.8907e-21)
(0.690603 0.0933574 2.88152e-20)
(0.96641 0.147257 1.51059e-19)
(1.13747 0.180526 -4.7146e-19)
(1.22032 0.191653 4.61323e-19)
(1.25091 0.189442 -1.01557e-19)
(1.25391 0.179986 5.95966e-20)
(1.24794 0.162622 9.78383e-20)
(-0.0156821 0.00882723 1.222e-20)
(0.165898 0.00192804 3.74876e-19)
(0.517296 0.0613388 9.51942e-20)
(0.859663 0.134254 -5.11018e-20)
(1.08613 0.184313 -4.28297e-20)
(1.20076 0.206731 2.7456e-19)
(1.24434 0.209141 -1.15945e-21)
(1.25199 0.201112 2.00607e-19)
(1.24604 0.188308 -6.25969e-20)
(1.23951 0.17262 -2.91358e-21)
(0.00857874 0.00166112 7.46927e-20)
(0.277183 0.0095478 -1.35999e-19)
(0.683042 0.100403 1.07021e-19)
(0.994919 0.176951 1.41319e-19)
(1.16452 0.217128 -9.27135e-20)
(1.23334 0.228744 -1.52638e-20)
(1.24969 0.223588 -2.68179e-19)
(1.24557 0.211995 -1.75785e-19)
(1.23611 0.196407 2.14924e-19)
(1.22596 0.181245 -1.353e-19)
(0.0455577 -0.00344657 9.66403e-20)
(0.408456 0.0347425 1.72314e-19)
(0.830924 0.14714 1.20994e-19)
(1.09397 0.218433 -1.82661e-19)
(1.21116 0.246372 2.1572e-19)
(1.24556 0.247852 -1.14439e-19)
(1.2455 0.237058 -2.86623e-20)
(1.23505 0.222214 -1.03228e-20)
(1.22339 0.204621 -6.08955e-20)
(1.21381 0.19045 1.93923e-20)
(0.0966141 -0.00296751 2.45164e-19)
(0.546283 0.0765673 -1.36181e-19)
(0.951817 0.19725 8.52509e-20)
(1.16099 0.257792 9.95547e-20)
(1.23457 0.272811 -7.10628e-20)
(1.2453 0.26553 1.0773e-19)
(1.23546 0.249962 3.92643e-20)
(1.222 0.232394 5.22465e-20)
(1.2103 0.21329 3.33325e-20)
(1.19952 0.198831 5.32533e-20)
(0.160531 0.00665952 -9.03147e-20)
(0.676332 0.130305 -1.32379e-19)
(1.04427 0.248405 -1.03685e-19)
(1.20174 0.294748 -9.83326e-20)
(1.24156 0.297271 -4.32686e-20)
(1.2368 0.28239 4.75378e-20)
(1.22183 0.262769 -2.34409e-20)
(1.20731 0.242541 -1.86486e-22)
(1.19532 0.221881 -2.16113e-20)
(1.18493 0.206777 3.95005e-21)
(0.233422 0.0274703 2.41745e-20)
(0.788488 0.191114 -5.25916e-21)
(1.10995 0.29922 2.34044e-20)
(1.22173 0.329444 1.83108e-20)
(1.23676 0.320269 1.3726e-20)
(1.22273 0.29882 -3.68061e-20)
(1.2054 0.275393 1.70379e-20)
(1.19072 0.252483 -1.66374e-20)
(1.17943 0.230283 -5.31875e-21)
(1.1693 0.213814 -8.6788e-21)
(0.3097 0.0594208 1.2528e-21)
(0.878153 0.255308 -7.38147e-22)
(1.15148 0.348674 -5.08132e-21)
(1.22539 0.36206 6.09997e-20)
(1.22331 0.342108 -1.65462e-20)
(1.20432 0.314752 -1.55527e-20)
(1.18645 0.287655 2.02773e-21)
(1.17243 0.261984 -1.68629e-21)
(1.16184 0.237953 -6.20468e-21)
(1.15263 0.219887 -1.29923e-20)
(0.383292 0.10089 -1.04018e-19)
(0.944389 0.320309 1.9703e-20)
(1.17191 0.395934 -1.67888e-19)
(1.21603 0.39255 -5.8846e-20)
(1.20309 0.362747 -1.79821e-20)
(1.18221 0.329947 -2.28936e-21)
(1.16505 0.299198 -1.19345e-20)
(1.15224 0.2707 -6.52313e-21)
(1.1429 0.244774 6.03307e-21)
(1.13439 0.224881 8.93559e-21)
(0.448651 0.14956 1.79474e-19)
(0.987625 0.384045 -9.16243e-20)
(1.17407 0.440093 1.27554e-19)
(1.19603 0.420655 5.08537e-20)
(1.17724 0.381911 -1.78363e-20)
(1.1567 0.34396 5.94342e-20)
(1.14125 0.309577 -1.49997e-20)
(1.13033 0.278337 1.72628e-20)
(1.12232 0.250694 3.34598e-21)
(1.11446 0.228715 6.17944e-21)
(0.501499 0.202843 -1.09954e-19)
(1.00917 0.444733 4.16713e-19)
(1.16049 0.480312 -7.67583e-20)
(1.16713 0.445933 -4.28889e-20)
(1.14653 0.399076 9.03913e-20)
(1.1281 0.356258 -3.76457e-20)
(1.11521 0.318313 -1.31997e-20)
(1.10666 0.284546 -8.42025e-21)
(1.10011 0.255636 -9.78616e-24)
(1.09363 0.231359 -1.0247e-20)
(0.53914 0.257969 -1.99492e-19)
(1.01072 0.500724 -2.22786e-19)
(1.13323 0.515669 1.36248e-19)
(1.1307 0.46773 3.75691e-20)
(1.11164 0.413566 -4.48335e-20)
(1.0968 0.366289 -6.72303e-21)
(1.08716 0.325035 1.91478e-20)
(1.08117 0.289094 5.73872e-21)
(1.07628 0.258975 -1.92492e-20)
(1.07218 0.23265 -2.72996e-21)
(0.560434 0.312047 6.90093e-20)
(0.994212 0.550458 2.86881e-19)
(1.09409 0.545138 -5.74337e-20)
(1.08817 0.485228 4.54011e-21)
(1.07325 0.424665 -3.52428e-21)
(1.06294 0.373441 2.83033e-21)
(1.05715 0.329444 1.57252e-20)
(1.05399 0.291653 -1.08518e-20)
(1.05137 0.260433 1.87286e-20)
(1.05013 0.232493 -1.89373e-20)
(0.565583 0.362296 -5.10001e-19)
(0.961408 0.592305 2.64006e-20)
(1.04512 0.567719 -1.06572e-19)
(1.04064 0.497394 1.43679e-20)
(1.03169 0.431726 -2.30311e-21)
(1.02679 0.377209 5.64172e-20)
(1.02546 0.331042 -4.65838e-20)
(1.02564 0.291894 2.73064e-20)
(1.02597 0.259723 -2.61498e-20)
(1.02823 0.230819 -8.76469e-20)
(0.55566 0.406432 2.58517e-19)
(0.913866 0.624186 -2.42542e-19)
(0.988638 0.582546 -1.71935e-20)
(0.989073 0.503433 -5.04279e-21)
(0.987571 0.433979 8.92645e-20)
(0.988905 0.377049 -7.50123e-21)
(0.992516 0.32942 7.02776e-20)
(0.996666 0.289421 8.13818e-21)
(1.00094 0.256665 5.46149e-21)
(1.0073 0.227722 1.22945e-19)
(0.531787 0.442761 1.43672e-19)
(0.854074 0.644521 -2.04645e-20)
(0.926658 0.588372 -7.29118e-21)
(0.934556 0.502888 7.09792e-20)
(0.941619 0.430883 -2.97172e-20)
(0.949752 0.372472 -1.07953e-19)
(0.958799 0.324047 -6.95643e-20)
(0.967691 0.283641 7.01424e-21)
(0.976961 0.250739 9.59892e-20)
(0.987715 0.223555 -7.82602e-20)
(0.495148 0.468726 -9.78761e-21)
(0.786074 0.652978 -2.53493e-20)
(0.861053 0.584283 -9.90933e-20)
(0.878235 0.495204 4.97521e-21)
(0.89463 0.422009 1.48776e-19)
(0.90998 0.363129 -4.75104e-20)
(0.924862 0.314588 1.7795e-19)
(0.939116 0.273986 -2.45736e-19)
(0.953958 0.240678 -1.65838e-19)
(0.968319 0.217136 -3.55278e-20)
(0.448077 0.481069 3.33227e-20)
(0.712404 0.648014 5.31303e-20)
(0.793358 0.570176 3.37202e-20)
(0.821305 0.479935 -5.29771e-20)
(0.847484 0.407073 -2.25023e-19)
(0.870316 0.348837 2.12763e-19)
(0.891353 0.30106 8.23858e-20)
(0.91117 0.26086 1.06876e-19)
(0.931252 0.226027 3.0567e-19)
(0.946473 0.199834 -7.41808e-20)
(0.394743 0.479437 1.29868e-19)
(0.636065 0.629202 -2.29897e-20)
(0.725458 0.545854 -5.7727e-20)
(0.765025 0.456829 1.11551e-19)
(0.801147 0.385883 1.99757e-19)
(0.831601 0.329452 -4.73585e-19)
(0.858984 0.28345 -7.38891e-20)
(0.884075 0.245247 -1.92444e-19)
(0.907257 0.212979 3.90002e-20)
(0.922004 0.188122 -1.39768e-19)
(0.338302 0.463446 -2.63836e-19)
(0.559714 0.596198 -1.19813e-19)
(0.659146 0.511381 3.98298e-19)
(0.710685 0.425886 -2.28616e-19)
(0.75662 0.358448 -3.29698e-19)
(0.794631 0.304926 3.09349e-19)
(0.828315 0.261271 -2.84034e-19)
(0.858526 0.224777 1.41082e-19)
(0.885047 0.19386 -1.75385e-19)
(0.901936 0.170283 2.77504e-19)
(0.281888 0.433523 -1.07947e-19)
(0.48615 0.549382 5.91468e-19)
(0.59623 0.467027 -6.16664e-19)
(0.659574 0.387324 2.57392e-20)
(0.71491 0.325013 2.01475e-19)
(0.760107 0.275763 -1.25768e-20)
(0.799509 0.235841 4.34297e-19)
(0.833877 0.20269 -3.78698e-19)
(0.863136 0.17459 2.75874e-19)
(0.883135 0.152524 -1.86515e-19)
(0.22832 0.390689 -1.76683e-19)
(0.417883 0.489485 9.66471e-20)
(0.538435 0.413304 2.65927e-19)
(0.612961 0.341543 3.0583e-19)
(0.677058 0.285794 -7.02404e-20)
(0.728985 0.24178 2.90031e-19)
(0.773709 0.206115 2.44651e-20)
(0.811902 0.17655 3.12709e-20)
(0.843851 0.151681 -1.11296e-19)
(0.866905 0.132259 -6.05467e-21)
(0.180003 0.336512 5.33265e-19)
(0.357173 0.417708 -3.70187e-19)
(0.487423 0.350999 -4.94654e-19)
(0.572007 0.28925 2.78011e-20)
(0.64387 0.241534 -1.45489e-19)
(0.701674 0.203974 1.21499e-19)
(0.750934 0.173621 -4.44179e-19)
(0.792384 0.148461 1.30953e-19)
(0.826925 0.127202 3.72619e-19)
(0.853085 0.110425 -1.80234e-19)
(0.138817 0.27267 7.25612e-20)
(0.306042 0.335805 4.60483e-19)
(0.444775 0.281183 3.32575e-19)
(0.537856 0.231234 -3.11099e-19)
(0.616296 0.192729 1.94034e-19)
(0.679054 0.162458 -8.79185e-20)
(0.732074 0.138044 -5.72433e-20)
(0.776198 0.117861 -2.72276e-20)
(0.812973 0.100806 -1.15272e-19)
(0.841914 0.0872213 2.12753e-19)
(0.10632 0.200801 -3.57332e-19)
(0.266153 0.245815 -4.16532e-19)
(0.411702 0.205311 -6.72014e-21)
(0.511391 0.168611 2.9657e-19)
(0.594948 0.140361 -5.44256e-20)
(0.661544 0.118177 -5.8777e-20)
(0.717448 0.100301 8.54061e-20)
(0.763632 0.0855229 -4.61553e-20)
(0.802214 0.0730048 -3.67853e-20)
(0.833468 0.062952 3.8258e-20)
(0.0838567 0.122943 5.19549e-20)
(0.238817 0.149905 -6.83356e-20)
(0.389134 0.124993 2.94851e-19)
(0.493345 0.102561 -7.23186e-20)
(0.580405 0.0853036 1.36387e-19)
(0.649622 0.0717626 -3.66411e-20)
(0.70748 0.0608619 -5.71321e-20)
(0.755059 0.0518543 9.14734e-20)
(0.794902 0.0442052 1.27429e-20)
(0.827823 0.0380166 -3.29069e-20)
(0.484199 0.0344222 -6.84915e-20)
(0.573037 0.0286182 3.14146e-20)
(0.643582 0.0240652 -1.66408e-20)
(0.702426 0.0204014 1.98344e-20)
(0.750707 0.0173744 -2.6037e-20)
(0.791197 0.0147997 -1.58603e-20)
(0.824996 0.0127079 5.67488e-24)
(-0.197971 0.00315926 -4.96369e-20)
(-0.201733 0.00289801 3.55198e-20)
(-0.204981 0.00256073 4.83254e-22)
(-0.207843 0.00225899 -6.15101e-21)
(-0.210388 0.00199371 -1.22762e-20)
(-0.212648 0.00176036 -1.41088e-20)
(-0.214657 0.00155396 -2.41257e-20)
(-0.216442 0.00136915 4.28981e-20)
(-0.218023 0.00120095 -2.43152e-20)
(-0.219418 0.00104518 4.98493e-20)
(-0.220638 0.000898505 -3.13896e-20)
(-0.22169 0.000758433 -4.52764e-21)
(-0.22258 0.000623184 -1.10717e-20)
(-0.223312 0.000491828 2.87028e-20)
(-0.223887 0.000364999 -1.89015e-20)
(-0.224307 0.000245494 1.92651e-20)
(-0.224577 0.000134622 -1.33963e-20)
(-0.224712 2.27357e-05 -1.12732e-20)
(-0.224718 -9.01262e-05 7.26048e-21)
(-0.224592 -0.000202784 -4.81944e-21)
(-0.224333 -0.000314931 1.79683e-20)
(-0.223938 -0.00042646 -8.18543e-21)
(-0.223408 -0.00053712 -1.21106e-20)
(-0.222741 -0.000646807 7.5088e-21)
(-0.221936 -0.000756184 -1.01824e-20)
(-0.220993 -0.000865575 1.19831e-20)
(-0.219908 -0.000975257 3.32159e-21)
(-0.21868 -0.00108546 -9.56971e-21)
(-0.217307 -0.00119636 1.71586e-20)
(-0.165412 0.00890235 5.10787e-21)
(-0.168861 0.00817653 4.23118e-20)
(-0.171618 0.0072427 -6.6376e-20)
(-0.173992 0.00639144 1.01689e-19)
(-0.176105 0.00564121 -8.36786e-20)
(-0.177974 0.00497896 -2.72531e-21)
(-0.179623 0.00439127 1.09228e-19)
(-0.181072 0.00386394 -3.56146e-20)
(-0.182337 0.0033834 1.31655e-20)
(-0.18343 0.00293817 -4.29924e-20)
(-0.184357 0.002519 -5.02198e-20)
(-0.185124 0.00211848 2.71564e-20)
(-0.185734 0.00173104 -3.49434e-20)
(-0.186186 0.00135411 7.01395e-20)
(-0.186477 0.000990436 -2.20212e-20)
(-0.186606 0.00064391 2.29544e-20)
(-0.1866 0.000299783 -1.1823e-20)
(-0.186467 -4.70858e-05 -2.69446e-20)
(-0.186197 -0.000393151 3.03261e-20)
(-0.185791 -0.000737956 -9.93581e-21)
(-0.185248 -0.00108147 -4.38564e-20)
(-0.184568 -0.00142385 4.09464e-20)
(-0.18375 -0.00176515 -2.64994e-20)
(-0.182793 -0.00210557 -6.03372e-21)
(-0.181699 -0.00244787 1.02536e-20)
(-0.180465 -0.00279234 2.94731e-20)
(-0.179089 -0.00313934 -8.06475e-21)
(-0.177571 -0.00348928 5.40489e-20)
(-0.175908 -0.00384244 -7.1016e-22)
(-0.099872 0.0136118 -1.32277e-19)
(-0.102866 0.0120587 5.30622e-20)
(-0.104692 0.0108121 -1.40149e-19)
(-0.106236 0.00949028 2.55447e-19)
(-0.107648 0.00832475 -1.72099e-19)
(-0.10891 0.00729376 2.08825e-19)
(-0.110009 0.00637597 -2.08219e-19)
(-0.110949 0.00554845 9.38009e-20)
(-0.111736 0.00478795 -2.11609e-20)
(-0.11237 0.00407573 1.13456e-19)
(-0.112853 0.00339782 -5.32978e-20)
(-0.113187 0.00274316 -6.72016e-20)
(-0.113368 0.00210344 -1.28644e-19)
(-0.113388 0.00147571 1.3284e-19)
(-0.113237 0.000865877 -1.79618e-21)
(-0.112948 0.000274012 -1.18761e-19)
(-0.112535 -0.000319012 2.77358e-20)
(-0.111977 -0.00090344 1.03739e-19)
(-0.111272 -0.00148176 -2.95962e-20)
(-0.110424 -0.00205718 5.41119e-21)
(-0.109433 -0.00263166 6.11351e-20)
(-0.108299 -0.00320915 -5.94058e-20)
(-0.107021 -0.00378807 9.49117e-20)
(-0.105602 -0.00435455 -1.49938e-20)
(-0.104043 -0.00492448 -1.24325e-19)
(-0.102341 -0.00549818 1.24835e-19)
(-0.100495 -0.00607631 -4.5512e-20)
(-0.0985054 -0.00665956 4.40224e-20)
(-0.0963701 -0.00724827 -1.28976e-19)
(0.00199917 0.0141941 6.54131e-21)
(-0.00185012 0.013483 -1.57868e-19)
(-0.00223048 0.0126022 1.40636e-19)
(-0.00319785 0.0112073 1.00879e-19)
(-0.00401887 0.00987743 -6.83321e-20)
(-0.00482134 0.00861996 -1.34301e-19)
(-0.00554012 0.00745266 5.6775e-21)
(-0.0061507 0.00637511 9.73529e-20)
(-0.00663848 0.00536979 -7.97171e-20)
(-0.00698784 0.00441817 1.33903e-19)
(-0.0071878 0.00350644 -1.70658e-19)
(-0.00723287 0.00262196 1.62578e-19)
(-0.00711795 0.00175188 -3.69666e-20)
(-0.00682656 0.000887876 2.47976e-20)
(-0.00634526 2.7493e-05 4.44863e-20)
(-0.00572752 -0.000831613 -3.87702e-20)
(-0.00496483 -0.0016795 -1.58278e-19)
(-0.00403816 -0.00251354 6.54908e-20)
(-0.00295683 -0.00333978 1.23505e-19)
(-0.00172371 -0.00416104 -3.82246e-20)
(-0.000345953 -0.00498021 -5.49457e-20)
(0.00117589 -0.00579792 -1.92757e-20)
(0.00287777 -0.00660569 -6.8061e-21)
(0.00474346 -0.00740969 -5.21487e-20)
(0.00674152 -0.00821969 1.41541e-19)
(0.0088878 -0.00903341 -1.76667e-21)
(0.0111829 -0.00985166 -4.52551e-20)
(0.0136271 -0.0106749 2.36028e-20)
(0.0162203 -0.0115033 -4.08245e-20)
(0.0189625 -0.0123369 -7.37896e-20)
(0.149383 0.0168578 6.0622e-20)
(0.146486 0.0150423 8.19739e-21)
(0.143117 0.0133693 -3.06738e-19)
(0.140775 0.0120915 1.32607e-19)
(0.138995 0.0108311 -1.11548e-19)
(0.137471 0.00951751 2.7322e-20)
(0.136165 0.00822025 -4.68842e-20)
(0.135058 0.00696765 1.09455e-19)
(0.134137 0.00574385 -2.97513e-21)
(0.13341 0.00453925 3.41586e-19)
(0.132886 0.00335758 -5.74648e-20)
(0.132565 0.00219839 -1.46684e-19)
(0.132444 0.00105074 -2.33097e-20)
(0.132527 -9.96881e-05 -6.99351e-21)
(0.132835 -0.00126533 -5.67037e-20)
(0.133324 -0.00245229 -5.17422e-20)
(0.134014 -0.00359652 3.54352e-21)
(0.134903 -0.00470697 6.57131e-20)
(0.135984 -0.00579838 8.8074e-20)
(0.137254 -0.0068798 -1.00648e-19)
(0.138707 -0.0079538 1.04806e-19)
(0.140335 -0.00901665 -1.39975e-19)
(0.142138 -0.0100634 4.6351e-20)
(0.144117 -0.0111143 -1.72834e-20)
(0.146265 -0.0121655 -1.20493e-19)
(0.148581 -0.0132188 1.04686e-19)
(0.151064 -0.0142756 2.77464e-20)
(0.15371 -0.0153363 -7.03614e-20)
(0.156518 -0.0164008 9.42693e-20)
(0.159485 -0.017469 4.56742e-20)
(0.346187 0.0275583 -1.3401e-20)
(0.342378 0.0230011 -7.62071e-20)
(0.336957 0.0195528 7.30697e-20)
(0.331453 0.0169706 1.75133e-19)
(0.326461 0.0146758 4.32743e-20)
(0.322149 0.0125628 -1.73405e-19)
(0.318451 0.0106972 2.9586e-20)
(0.31522 0.00902048 2.21306e-19)
(0.312382 0.00742241 -6.03166e-19)
(0.309935 0.00585558 2.13683e-19)
(0.307874 0.00432321 -1.80539e-19)
(0.306173 0.00282809 3.29543e-19)
(0.304799 0.00135909 9.6671e-20)
(0.30373 -9.98783e-05 -2.74716e-19)
(0.302959 -0.00156448 3.89438e-19)
(0.302544 -0.00303095 -8.38277e-20)
(0.30245 -0.00452685 -2.542e-19)
(0.302618 -0.00603338 -2.32497e-19)
(0.303024 -0.00749543 3.02677e-19)
(0.303675 -0.00891891 1.6896e-19)
(0.304566 -0.0103151 -2.29024e-19)
(0.305688 -0.0116958 2.30058e-19)
(0.307033 -0.0130647 -3.50297e-19)
(0.308593 -0.0144244 8.51813e-20)
(0.310359 -0.0157767 -3.51151e-20)
(0.312327 -0.017124 1.4271e-19)
(0.314492 -0.0184677 4.7473e-20)
(0.316849 -0.0198079 -2.43686e-19)
(0.319394 -0.0211437 -3.84184e-20)
(0.322121 -0.022475 1.46839e-19)
(0.588518 0.0405447 -1.15547e-19)
(0.579212 0.0361498 1.38044e-20)
(0.570469 0.0325055 2.0387e-19)
(0.561205 0.0289725 -2.27924e-19)
(0.552131 0.0252311 1.17005e-19)
(0.543973 0.0216812 1.07714e-19)
(0.536755 0.0185955 9.35328e-20)
(0.5302 0.015852 -2.8317e-19)
(0.524195 0.0132757 -1.66032e-19)
(0.518781 0.0108221 -3.12887e-20)
(0.513974 0.00849945 5.01126e-19)
(0.509733 0.00629326 7.86191e-21)
(0.506006 0.004174 -4.6829e-19)
(0.502751 0.00212012 1.64342e-19)
(0.499926 0.00011601 -1.28232e-20)
(0.497496 -0.00184929 1.00251e-19)
(0.495453 -0.00379942 5.59856e-20)
(0.493944 -0.00571111 -9.32707e-20)
(0.492853 -0.00763731 2.26723e-19)
(0.492103 -0.00957144 9.70056e-21)
(0.491662 -0.0114262 -4.38605e-19)
(0.491524 -0.0132124 2.13565e-19)
(0.491684 -0.0149461 1.05888e-19)
(0.492131 -0.0166432 -1.50131e-20)
(0.492849 -0.0183171 -4.83857e-20)
(0.493826 -0.0199771 6.21092e-20)
(0.495053 -0.0216278 1.13254e-19)
(0.49652 -0.0232689 -4.22326e-19)
(0.498217 -0.0248971 3.56818e-19)
(0.500132 -0.0265108 -2.23293e-19)
(0.502253 -0.0281111 -6.51396e-20)
(0.841101 0.0590172 1.17497e-19)
(0.827107 0.0541985 -2.9134e-19)
(0.815104 0.0507252 3.83238e-22)
(0.802445 0.0464759 2.75632e-19)
(0.789924 0.0414883 -7.79626e-20)
(0.778586 0.0367763 -1.88552e-19)
(0.768348 0.0326205 3.34129e-20)
(0.758763 0.0287484 7.02193e-20)
(0.749731 0.0250148 -8.51849e-20)
(0.741358 0.0214652 1.35278e-19)
(0.733687 0.0181316 7.34892e-20)
(0.726681 0.0149816 6.26001e-20)
(0.720295 0.0119757 -1.66974e-19)
(0.714506 0.00909378 5.9283e-20)
(0.709284 0.00632554 5.16717e-21)
(0.704602 0.00366136 -2.11739e-19)
(0.700402 0.00110451 2.83757e-19)
(0.696662 -0.00139103 -2.22361e-19)
(0.693367 -0.00385821 1.30925e-19)
(0.690709 -0.00625174 -1.46889e-19)
(0.688536 -0.00867047 9.5389e-20)
(0.686731 -0.0111273 -7.56913e-20)
(0.685264 -0.013498 -1.43165e-20)
(0.684123 -0.0157757 -1.51805e-19)
(0.683298 -0.0179769 3.18734e-20)
(0.682775 -0.0201193 2.10285e-19)
(0.682548 -0.0222197 8.51868e-20)
(0.682611 -0.0242827 -2.05606e-19)
(0.682952 -0.0263058 1.30599e-19)
(0.683549 -0.0282909 -1.00099e-19)
(0.684383 -0.0302426 1.24241e-19)
(0.68544 -0.0321638 -1.14642e-19)
(1.05135 0.0828871 5.5227e-21)
(1.03801 0.077791 1.64333e-19)
(1.02583 0.07376 1.43516e-19)
(1.01238 0.067951 -4.07251e-19)
(0.999148 0.0615302 1.41441e-19)
(0.987238 0.0557664 1.59395e-19)
(0.976277 0.0505201 3.53997e-20)
(0.965761 0.0453946 1.07689e-19)
(0.955671 0.0403857 -2.50454e-19)
(0.94614 0.0356197 -1.40281e-19)
(0.937202 0.03112 2.83512e-19)
(0.928829 0.0268507 -1.09725e-19)
(0.921005 0.0227901 -2.68338e-19)
(0.913729 0.0189292 3.53138e-19)
(0.906987 0.0152543 -2.02297e-19)
(0.900765 0.0117467 8.6675e-20)
(0.895037 0.00839368 2.07012e-19)
(0.88979 0.00518925 -2.29422e-19)
(0.884961 0.0021253 -2.79891e-19)
(0.880525 -0.000861522 1.47125e-20)
(0.876445 -0.00381815 3.07502e-19)
(0.873001 -0.00663121 2.37395e-19)
(0.870067 -0.00942946 -2.36806e-19)
(0.867488 -0.0122442 -2.39163e-19)
(0.865212 -0.0149773 1.37025e-19)
(0.863219 -0.0176264 1.55574e-19)
(0.861508 -0.0202117 7.3517e-20)
(0.860087 -0.0227254 -1.42998e-19)
(0.858948 -0.0251594 1.62177e-19)
(0.858067 -0.0275207 -3.205e-19)
(0.857423 -0.0298204 7.93451e-20)
(0.857003 -0.0320641 -1.0945e-19)
(1.18201 0.103289 -2.77258e-19)
(1.1748 0.0996859 4.02214e-19)
(1.1665 0.0951164 -5.11158e-20)
(1.15648 0.0884578 -2.15148e-19)
(1.14677 0.0818368 3.18185e-19)
(1.13801 0.0759044 -4.12997e-19)
(1.12967 0.0701843 -1.30569e-19)
(1.12142 0.0644498 -1.13379e-19)
(1.11332 0.0588056 3.27832e-19)
(1.10546 0.053333 -2.02932e-19)
(1.09785 0.048028 2.74247e-19)
(1.09051 0.0428852 1.23164e-19)
(1.08344 0.0379177 -1.69747e-19)
(1.07667 0.033134 -3.10749e-19)
(1.07021 0.0285328 3.64957e-19)
(1.06405 0.0241079 7.85547e-20)
(1.0582 0.0198557 -7.86634e-20)
(1.05266 0.0157693 -1.53874e-19)
(1.04744 0.0118542 3.0116e-19)
(1.04252 0.00811242 -3.57295e-19)
(1.03787 0.00456762 3.78213e-19)
(1.03342 0.00111649 -9.50553e-20)
(1.0292 -0.00231415 -2.6802e-19)
(1.02545 -0.0055818 -7.09328e-20)
(1.02208 -0.00873758 3.95205e-19)
(1.01894 -0.0118765 2.77692e-20)
(1.01602 -0.0149882 -1.8876e-19)
(1.01333 -0.018019 3.00902e-20)
(1.01089 -0.0209516 -2.3101e-19)
(1.00866 -0.0237951 -3.14352e-21)
(1.00663 -0.0265574 2.07517e-19)
(1.00478 -0.0292392 3.75325e-20)
(1.00312 -0.0318401 -1.61066e-19)
(1.26098 0.126074 0)
(1.26049 0.118832 0)
(1.25543 0.112242 0)
(1.24872 0.105751 0)
(1.24234 0.0993082 0)
(1.23668 0.0928576 0)
(1.2314 0.0864766 0)
(1.22618 0.0802896 0)
(1.22093 0.0743367 0)
(1.21566 0.0685867 0)
(1.21041 0.0630072 0)
(1.20521 0.0575882 0)
(1.20008 0.0523318 0)
(1.19503 0.0472383 0)
(1.19007 0.0423067 0)
(1.18522 0.0375318 0)
(1.18047 0.0329105 0)
(1.17585 0.0284341 0)
(1.17135 0.0241006 0)
(1.16699 0.0198952 0)
(1.16276 0.0158206 0)
(1.15867 0.0118694 0)
(1.15471 0.00810084 0)
(1.15084 0.00448042 0)
(1.14707 0.000929193 0)
(1.14344 -0.00254257 0)
(1.14001 -0.00589813 0)
(1.13678 -0.00912371 0)
(1.13373 -0.0122407 0)
(1.13083 -0.0152686 1.8509e-27)
(1.12805 -0.0182134 -1.85092e-27)
(1.1254 -0.0210745 0)
(1.12286 -0.0238518 0)
(1.2638 0.129187 0)
(1.27012 0.121451 0)
(1.2713 0.114556 0)
(1.2697 0.108198 0)
(1.26768 0.10203 0)
(1.26614 0.0959172 0)
(1.26494 0.0898918 0)
(1.26374 0.0840206 0)
(1.26229 0.0783224 0)
(1.26057 0.0727788 0)
(1.25863 0.0673668 0)
(1.25652 0.0620746 0)
(1.2543 0.0569006 0)
(1.25196 0.0518466 0)
(1.24953 0.0469143 0)
(1.24701 0.0421032 0)
(1.24442 0.0374124 0)
(1.24177 0.0328392 0)
(1.23906 0.0283827 0)
(1.23632 0.0240406 0)
(1.23355 0.019814 0)
(1.23074 0.0157014 0)
(1.22793 0.0117071 0)
(1.22513 0.00784344 0)
(1.22239 0.00413608 0)
(1.21973 0.000582821 0)
(1.21716 -0.00282631 0)
(1.21461 -0.00612862 0)
(1.21203 -0.00935484 0)
(1.20944 -0.0125043 5.58566e-27)
(1.20688 -0.0155689 -5.58566e-27)
(1.20435 -0.0185447 0)
(1.20185 -0.0214327 0)
(1.25572 0.126299 0)
(1.2635 0.119379 0)
(1.26663 0.112739 0)
(1.26696 0.106544 0)
(1.26669 0.100679 0)
(1.26682 0.0950053 0)
(1.26734 0.0894586 0)
(1.26792 0.0840316 0)
(1.26829 0.0787311 0)
(1.26838 0.0735563 0)
(1.26822 0.0684993 0)
(1.26787 0.0635525 0)
(1.26738 0.0587117 0)
(1.26674 0.0539759 0)
(1.26596 0.0493456 0)
(1.26506 0.0448212 0)
(1.26402 0.0404029 0)
(1.26286 0.0360908 0)
(1.2616 0.0318863 0)
(1.26024 0.0277904 0)
(1.25879 0.0238064 0)
(1.25727 0.0199368 0)
(1.25569 0.016186 0)
(1.25406 0.012552 0)
(1.25237 0.00902673 0)
(1.25063 0.00558419 0)
(1.24881 0.00220266 0)
(1.2469 -0.00113356 0)
(1.24493 -0.00439652 0)
(1.24296 -0.00756964 1.71868e-27)
(1.24098 -0.0106518 -1.71868e-27)
(1.23898 -0.0136468 0)
(1.23696 -0.0165571 0)
(1.24497 0.122242 0)
(1.2527 0.11601 0)
(1.25656 0.109803 0)
(1.25788 0.103916 0)
(1.25849 0.0983555 0)
(1.25936 0.0930212 0)
(1.26055 0.0878246 0)
(1.2618 0.0827294 0)
(1.26289 0.0777341 0)
(1.26373 0.0728454 0)
(1.26433 0.068065 0)
(1.26475 0.0633895 0)
(1.26503 0.0588141 0)
(1.26518 0.0543353 0)
(1.2652 0.0499517 0)
(1.26508 0.0456627 0)
(1.26484 0.0414679 0)
(1.26446 0.0373671 0)
(1.26398 0.0333599 0)
(1.26338 0.0294456 0)
(1.26268 0.0256232 0)
(1.26188 0.0218901 0)
(1.26098 0.018242 0)
(1.26 0.0146726 0)
(1.25891 0.0111756 0)
(1.25775 0.00774921 0)
(1.2565 0.00439923 0)
(1.25521 0.0011421 0)
(1.25388 -0.00200681 0)
(1.25248 -0.00505806 0)
(1.25101 -0.00802403 0)
(1.24948 -0.010911 0)
(1.24789 -0.0137207 0)
(1.23352 0.117065 0)
(1.24098 0.11147 0)
(1.24517 0.105814 0)
(1.24709 0.10036 0)
(1.24829 0.0951644 0)
(1.2496 0.0901675 0)
(1.25114 0.0852979 0)
(1.25272 0.0805173 0)
(1.25414 0.0758198 0)
(1.25533 0.0712125 0)
(1.2563 0.0667007 0)
(1.2571 0.062284 0)
(1.25775 0.0579591 0)
(1.25827 0.0537223 0)
(1.25867 0.0495716 0)
(1.25893 0.045506 0)
(1.25907 0.041525 0)
(1.25909 0.0376283 0)
(1.25899 0.033815 0)
(1.25878 0.0300843 0)
(1.25846 0.0264349 0)
(1.25804 0.0228656 0)
(1.25752 0.0193753 0)
(1.2569 0.0159652 0)
(1.25619 0.0126366 0)
(1.25541 0.00939391 0)
(1.25455 0.00623669 0)
(1.25362 0.00316722 0)
(1.25262 0.00016953 0)
(1.25154 -0.00276026 0)
(1.25038 -0.00561914 0)
(1.24916 -0.00840468 0)
(1.24787 -0.0111161 0)
(1.22278 0.111227 0)
(1.22989 0.106261 0)
(1.23417 0.101175 0)
(1.23644 0.0962004 0)
(1.23801 0.0914104 0)
(1.23962 0.0867765 0)
(1.24138 0.0822482 0)
(1.24315 0.0777945 0)
(1.24476 0.073409 0)
(1.24616 0.0690972 0)
(1.24734 0.0648652 0)
(1.24836 0.0607148 0)
(1.24922 0.0566446 0)
(1.24996 0.0526522 0)
(1.25057 0.0487361 0)
(1.25105 0.0448957 0)
(1.25141 0.0411308 0)
(1.25165 0.0374413 0)
(1.25177 0.033827 0)
(1.25178 0.0302877 0)
(1.25169 0.026823 0)
(1.25149 0.0234333 0)
(1.25119 0.0201188 0)
(1.25081 0.0168805 0)
(1.25033 0.0137187 0)
(1.24977 0.010633 0)
(1.24914 0.00761986 0)
(1.24842 0.0046757 0)
(1.24762 0.00179761 0)
(1.24674 -0.00101254 0)
(1.24579 -0.0037527 0)
(1.24477 -0.00642192 0)
(1.24368 -0.00902019 0)
(1.21322 0.10527 0)
(1.21985 0.100859 0)
(1.22407 0.0962928 0)
(1.22655 0.0917809 0)
(1.22837 0.087398 0)
(1.23018 0.0831309 5.16831e-28)
(1.23209 0.0789445 -5.16831e-28)
(1.23398 0.0748159 0)
(1.23571 0.0707401 0)
(1.23724 0.0667224 0)
(1.23857 0.0627688 0)
(1.23973 0.0588826 0)
(1.24074 0.0550643 0)
(1.24163 0.051313 0)
(1.24238 0.0476281 0)
(1.24301 0.0440097 0)
(1.24351 0.0404581 0)
(1.2439 0.0369736 0)
(1.24417 0.0335566 0)
(1.24434 0.0302074 0)
(1.2444 0.0269262 0)
(1.24435 0.0237135 0)
(1.24421 0.0205693 0)
(1.24398 0.0174936 0)
(1.24366 0.0144857 0)
(1.24326 0.0115446 0)
(1.24277 0.00866883 0)
(1.24219 0.00585778 0)
(1.24154 0.00311221 0)
(1.24082 0.000432775 0)
(1.24002 -0.00218013 0)
(1.23915 -0.00472646 0)
(1.23822 -0.00720646 0)
(1.20466 0.0993145 0)
(1.2108 0.095385 0)
(1.21491 0.0912908 0)
(1.2175 0.0872135 0)
(1.21949 0.0832227 0)
(1.22144 0.0793137 -8.23129e-28)
(1.22345 0.0754617 8.23129e-28)
(1.22542 0.0716502 0)
(1.22724 0.0678768 0)
(1.22886 0.0641469 0)
(1.23029 0.0604669 0)
(1.23156 0.0568412 0)
(1.23268 0.0532713 0)
(1.23368 0.0497578 0)
(1.23454 0.0463012 0)
(1.23528 0.042902 0)
(1.2359 0.0395611 0)
(1.23641 0.0362794 0)
(1.2368 0.0330575 0)
(1.23708 0.0298962 0)
(1.23726 0.0267959 0)
(1.23733 0.0237569 0)
(1.23732 0.0207794 0)
(1.23721 0.0178633 0)
(1.23701 0.0150085 0)
(1.23672 0.0122149 0)
(1.23635 0.0094825 0)
(1.2359 0.00681172 0)