/*--------------------------------*- C++ -*----------------------------------*\
  =========                 |
  \\      /  F ield         | OpenFOAM: The Open Source CFD Toolbox
   \\    /   O peration     | Website:  https://openfoam.org
    \\  /    A nd           | Version:  7
     \\/     M anipulation  |
\*---------------------------------------------------------------------------*/
FoamFile
{
    version     2.0;
    format      ascii;
    class       volScalarField;
    location    "10";
    object      p;
}
// * * * * * * * * * * * * * * * * * * * * * * * * * * * * * * * * * * * * * //

dimensions      [0 2 -2 0 0 0 0];

internalField   nonuniform List<scalar> 
3312
(
0.6015
0.587536
0.577498
0.567678
0.555553
0.541019
0.524534
0.50661
0.487717
0.468255
0.448537
0.428804
0.409231
0.389994
0.371351
0.593434
0.579703
0.570037
0.5607
0.5491
0.535082
0.519082
0.501606
0.483127
0.464044
0.444675
0.425258
0.405973
0.387027
0.368724
0.577419
0.564149
0.55522
0.546837
0.536277
0.523282
0.508246
0.49166
0.474
0.455671
0.436995
0.418206
0.399492
0.381123
0.36349
0.553689
0.541099
0.533253
0.526276
0.51725
0.50577
0.492159
0.476891
0.460445
0.443233
0.425583
0.407726
0.389857
0.372339
0.355694
0.522589
0.510884
0.504443
0.499292
0.492268
0.482766
0.47102
0.457479
0.442621
0.426872
0.410567
0.393932
0.377173
0.360761
0.345399
0.484575
0.473942
0.469194
0.466251
0.461656
0.454563
0.445091
0.433656
0.420739
0.406776
0.392114
0.376976
0.361574
0.346501
0.33269
0.440206
0.43081
0.428002
0.427599
0.425814
0.421517
0.414691
0.40571
0.395053
0.383172
0.370427
0.357038
0.34322
0.329694
0.317673
0.390136
0.38212
0.381453
0.383864
0.385213
0.38405
0.380197
0.373976
0.365863
0.356326
0.345741
0.334329
0.322298
0.310495
0.300469
0.335111
0.32859
0.330211
0.335645
0.340387
0.342637
0.342033
0.338833
0.333506
0.326536
0.318319
0.309075
0.299005
0.289071
0.281208
0.275956
0.271014
0.275014
0.283608
0.29193
0.297807
0.300671
0.300701
0.298355
0.294131
0.288448
0.281529
0.273556
0.265594
0.260024
0.213563
0.210256
0.216665
0.228478
0.24049
0.250138
0.256623
0.260035
0.260811
0.259463
0.25643
0.251937
0.246137
0.240193
0.23702
0.148882
0.147234
0.15602
0.171031
0.186759
0.200244
0.210438
0.217321
0.221304
0.222908
0.222598
0.220594
0.216987
0.213021
0.212281
0.0829031
0.0829057
0.0939785
0.112083
0.131467
0.148778
0.162699
0.173084
0.180302
0.18488
0.18731
0.187794
0.186265
0.183978
0.185598
0.0166456
0.0182569
0.031468
0.0524814
0.0753738
0.0964159
0.114008
0.127857
0.138273
0.14577
0.150881
0.153834
0.154335
0.153301
0.156719
-0.0488601
-0.0457245
-0.0305692
-0.00690894
0.0192569
0.0438571
0.0649994
0.0822277
0.0957756
0.10613
0.113856
0.119285
0.1219
0.121346
0.123798
-0.112587
-0.108063
-0.0911929
-0.0652221
-0.0361017
-0.00819436
0.0163095
0.0367699
0.0533267
0.0664017
0.0765037
0.084006
0.0885978
0.0894228
0.0870258
-0.17362
-0.167762
-0.149491
-0.121616
-0.0899342
-0.0590431
-0.0314268
-0.0079248
0.0115017
0.0272157
0.0396744
0.0493139
0.0561985
0.0596835
0.0592805
-0.231297
-0.223766
-0.204657
-0.175305
-0.141507
-0.108016
-0.0775896
-0.0512687
-0.0291155
-0.0108061
0.00409938
0.0161022
0.0256269
0.0324783
0.035245
-0.284344
-0.275519
-0.255822
-0.225641
-0.190153
-0.15449
-0.12162
-0.0927563
-0.0680737
-0.0472933
-0.0299904
-0.015653
-0.00367926
0.00607175
0.0118359
-0.332153
-0.322303
-0.302201
-0.271721
-0.235373
-0.197896
-0.163047
-0.131981
-0.105045
-0.0820313
-0.0625376
-0.0460775
-0.0320025
-0.019956
-0.0116247
-0.374224
-0.363516
-0.343353
-0.312988
-0.276242
-0.237921
-0.201477
-0.168595
-0.139753
-0.114811
-0.0934038
-0.0750754
-0.0591788
-0.0452341
-0.0347977
-0.410163
-0.398725
-0.378838
-0.349119
-0.312607
-0.273908
-0.236502
-0.202287
-0.171943
-0.145414
-0.122402
-0.102479
-0.085018
-0.0694483
-0.057216
-0.43971
-0.427668
-0.408339
-0.379756
-0.344109
-0.305633
-0.267851
-0.232825
-0.201396
-0.17365
-0.149368
-0.128145
-0.109415
-0.0924757
-0.0785826
-0.462779
-0.450265
-0.431718
-0.404682
-0.370491
-0.332893
-0.295337
-0.260024
-0.227973
-0.199412
-0.17418
-0.151975
-0.132324
-0.114344
-0.098839
-0.479465
-0.466613
-0.449013
-0.423852
-0.391639
-0.355543
-0.318825
-0.283767
-0.251559
-0.222583
-0.196779
-0.17392
-0.153615
-0.135072
-0.118321
-0.49004
-0.476984
-0.460438
-0.437381
-0.407574
-0.373542
-0.338252
-0.303989
-0.272093
-0.243109
-0.217096
-0.193905
-0.173263
-0.154627
-0.138122
-0.494935
-0.481816
-0.466374
-0.445538
-0.418446
-0.386952
-0.353632
-0.320689
-0.289567
-0.260969
-0.235089
-0.211863
-0.191103
-0.172388
-0.155795
-0.494723
-0.481686
-0.467348
-0.448744
-0.424541
-0.395944
-0.365062
-0.333923
-0.304013
-0.276175
-0.250735
-0.227723
-0.207003
-0.188211
-0.171382
-0.490089
-0.477283
-0.464016
-0.447556
-0.426274
-0.400798
-0.372723
-0.34381
-0.31552
-0.288792
-0.264083
-0.24152
-0.22104
-0.202337
-0.185382
-0.481791
-0.469373
-0.457121
-0.442639
-0.424178
-0.401898
-0.376876
-0.350536
-0.324228
-0.298943
-0.275248
-0.253376
-0.233355
-0.214956
-0.198054
-0.470629
-0.458751
-0.447455
-0.434735
-0.418884
-0.399724
-0.377863
-0.354343
-0.330324
-0.306787
-0.284378
-0.263433
-0.244075
-0.226173
-0.209506
-0.457396
-0.446204
-0.435812
-0.42462
-0.411085
-0.394839
-0.376101
-0.355528
-0.33403
-0.312502
-0.29163
-0.271832
-0.253322
-0.236082
-0.219832
-0.442844
-0.432469
-0.422943
-0.413053
-0.401501
-0.387857
-0.372067
-0.354438
-0.335594
-0.316282
-0.297167
-0.27872
-0.261232
-0.244803
-0.229142
-0.427655
-0.418202
-0.409519
-0.400734
-0.390832
-0.379418
-0.366284
-0.351463
-0.335298
-0.318333
-0.301153
-0.284242
-0.267942
-0.252464
-0.237549
-0.412409
-0.403954
-0.396104
-0.388271
-0.379715
-0.370141
-0.359294
-0.347031
-0.333449
-0.318874
-0.303755
-0.288538
-0.273583
-0.259185
-0.245153
-0.397577
-0.390161
-0.383139
-0.376145
-0.368686
-0.36059
-0.351632
-0.341588
-0.330384
-0.318139
-0.305136
-0.291733
-0.278263
-0.265071
-0.252037
-0.383513
-0.377142
-0.370943
-0.364712
-0.35816
-0.351232
-0.343779
-0.335576
-0.326455
-0.316378
-0.305462
-0.293939
-0.282074
-0.27021
-0.258269
-0.370462
-0.365106
-0.359715
-0.354199
-0.348419
-0.342421
-0.336138
-0.3294
-0.322018
-0.313861
-0.30491
-0.295264
-0.285084
-0.274673
-0.263922
-0.35857
-0.354172
-0.349561
-0.344722
-0.339626
-0.334383
-0.329007
-0.3234
-0.317404
-0.310863
-0.303671
-0.295817
-0.287347
-0.278511
-0.269044
-0.347903
-0.344382
-0.340507
-0.336312
-0.331838
-0.327235
-0.322574
-0.317829
-0.312899
-0.307649
-0.301948
-0.295718
-0.288911
-0.281747
-0.273737
-0.338464
-0.335723
-0.332527
-0.328936
-0.325037
-0.320998
-0.316924
-0.312843
-0.308718
-0.304456
-0.299947
-0.295102
-0.289818
-0.284357
-0.277983
-0.330215
-0.328148
-0.325559
-0.322526
-0.319161
-0.315631
-0.31206
-0.308512
-0.304996
-0.30147
-0.297862
-0.29411
-0.290119
-0.286225
-0.281941
-0.323087
-0.321581
-0.319523
-0.316994
-0.314121
-0.311059
-0.307937
-0.304838
-0.301799
-0.298818
-0.295857
-0.29289
-0.289875
-0.287157
-0.285315
-0.316991
-0.315937
-0.314328
-0.312248
-0.309821
-0.307191
-0.30448
-0.301777
-0.299135
-0.296568
-0.29406
-0.291595
-0.289185
-0.286902
-0.288308
-0.311823
-0.311115
-0.309879
-0.308188
-0.306164
-0.303932
-0.301603
-0.299263
-0.296968
-0.294736
-0.292548
-0.290372
-0.288146
-0.285392
-0.289624
-0.30746
-0.307007
-0.306072
-0.30472
-0.303056
-0.301189
-0.299216
-0.297216
-0.295238
-0.293294
-0.291347
-0.289318
-0.286983
-0.283023
-0.277925
-0.303771
-0.303498
-0.302804
-0.301743
-0.300402
-0.298871
-0.297234
-0.295557
-0.293883
-0.292217
-0.290516
-0.288693
-0.286584
-0.283242
-0.300616
-0.300467
-0.299968
-0.29916
-0.298111
-0.296894
-0.295576
-0.294213
-0.29284
-0.291461
-0.290043
-0.288531
-0.286853
-0.297852
-0.297795
-0.297463
-0.296879
-0.296097
-0.295173
-0.294162
-0.29311
-0.292042
-0.290964
-0.289854
-0.288695
-0.287452
-0.295347
-0.295376
-0.295194
-0.294813
-0.294278
-0.293632
-0.292919
-0.292175
-0.291421
-0.290663
-0.289893
-0.28912
-0.29299
-0.293119
-0.293083
-0.292892
-0.292587
-0.292203
-0.291777
-0.291337
-0.290902
-0.29048
-0.290075
-0.290699
-0.290958
-0.291073
-0.291063
-0.290972
-0.290832
-0.290674
-0.290525
-0.290402
-0.290316
-0.29028
-0.28843
-0.288855
-0.289132
-0.289295
-0.2894
-0.289482
-0.289568
-0.289685
-0.289851
-0.290079
-0.286182
-0.286809
-0.287257
-0.287583
-0.287866
-0.288141
-0.288439
-0.288787
-0.289204
-0.289709
-0.283994
-0.284848
-0.28547
-0.285948
-0.286386
-0.286825
-0.287298
-0.287835
-0.28846
-0.281937
-0.283028
-0.28382
-0.284433
-0.285001
-0.285573
-0.286184
-0.286869
-0.287653
-0.280109
-0.281425
-0.282371
-0.283099
-0.283772
-0.284445
-0.285159
-0.285951
-0.286852
-0.278615
-0.280125
-0.281198
-0.282015
-0.282766
-0.283513
-0.284298
-0.285163
-0.286142
-0.277554
-0.279205
-0.28037
-0.281248
-0.282052
-0.282845
-0.283674
-0.284584
-0.28561
-0.277003
-0.278729
-0.279941
-0.280851
-0.28168
-0.282495
-0.283346
-0.284277
0.311799
0.253951
0.204013
0.176769
0.149684
0.135747
0.119661
0.111919
0.101881
0.0975157
0.0913029
0.0890057
0.0854546
0.0847724
0.0831956
0.310292
0.253247
0.203628
0.176563
0.149556
0.135664
0.119604
0.111872
0.101852
0.0974793
0.0912769
0.0889743
0.085431
0.0847433
0.0831694
0.307286
0.251842
0.202862
0.176154
0.1493
0.135498
0.119492
0.111778
0.101793
0.0974067
0.0912249
0.0889118
0.0853837
0.0846854
0.0831171
0.302798
0.249742
0.201717
0.175544
0.14892
0.13525
0.119325
0.111635
0.101704
0.097298
0.0911468
0.0888187
0.085313
0.084599
0.0830387
0.296856
0.246958
0.200201
0.174736
0.148417
0.134922
0.119105
0.111444
0.101584
0.0971535
0.0910438
0.0886954
0.0852188
0.0844846
0.0829341
0.289497
0.243503
0.198321
0.173736
0.147795
0.134515
0.118835
0.111207
0.101433
0.0969741
0.0909152
0.0885429
0.0851016
0.0843429
0.0828034
0.280772
0.23939
0.196087
0.17255
0.147057
0.134032
0.118516
0.110925
0.10125
0.096757
0.090737
0.0883649
0.0849615
0.0841746
0.0826467
0.270741
0.234639
0.193509
0.171185
0.14621
0.133474
0.118152
0.110599
0.101035
0.0965017
0.0906105
0.0881642
0.0847987
0.0839806
0.082464
0.259478
0.229276
0.190597
0.169649
0.145258
0.132844
0.117743
0.110231
0.100784
0.0961932
0.0903919
0.0879338
0.0846138
0.0837619
0.0822555
0.247066
0.223331
0.187361
0.167948
0.144208
0.132147
0.117293
0.109823
0.100498
0.0959386
0.0901747
0.0876743
0.084406
0.0835196
0.0820212
0.233597
0.216842
0.183813
0.166091
0.143066
0.131384
0.116803
0.109379
0.100184
0.0955958
0.089929
0.0873846
0.0841748
0.0832557
0.0817613
0.219156
0.209843
0.179959
0.16407
0.141831
0.130553
0.116273
0.108897
0.0998462
0.095226
0.0896484
0.0870597
0.0839296
0.0829722
0.0814758
0.20383
0.202425
0.175828
0.161912
0.140527
0.12967
0.115713
0.108389
0.0994883
0.0948388
0.0893404
0.0867563
0.0836747
0.0826693
0.0811644
0.187581
0.19481
0.171506
0.159789
0.139243
0.128838
0.11518
0.107908
0.0991367
0.0944561
0.0890212
0.0864044
0.0833873
0.0823453
0.080827
0.17042
0.185994
0.166587
0.157089
0.13772
0.127745
0.114527
0.107287
0.0987176
0.0939875
0.0886644
0.0860023
0.0830805
0.0819974
0.0804701
0.108595
0.143259
0.143897
0.139585
0.128891
0.119921
0.110389
0.103161
0.0963323
0.0914001
0.0870232
0.0841984
0.0818706
0.080517
0.0791106
0.0661118
0.0931586
0.107306
0.110432
0.108385
0.104346
0.0991532
0.0943674
0.0896721
0.0859503
0.0826443
0.080375
0.0785312
0.0773655
0.0761934
0.038263
0.0634696
0.0795402
0.0865927
0.0896359
0.0892133
0.0874968
0.0849252
0.0822674
0.0797333
0.0775302
0.0757647
0.0744104
0.0734628
0.0728556
0.0197704
0.0429138
0.0589722
0.0679181
0.0734837
0.0755715
0.0762672
0.0755642
0.0745635
0.0731724
0.0719182
0.0707061
0.0698132
0.0691681
0.0689877
0.00820507
0.0286051
0.0436058
0.0532735
0.0599758
0.063665
0.0659298
0.0666885
0.0669379
0.0665432
0.0660788
0.0654266
0.0649617
0.064618
0.0646959
0.00103118
0.018699
0.0322476
0.0418191
0.0488959
0.0534827
0.0567057
0.058506
0.0596559
0.0600635
0.0602371
0.0600987
0.0600093
0.0599326
0.0601475
-0.00339268
0.0118199
0.0238654
0.0328999
0.0399058
0.0448906
0.0486352
0.0511099
0.0528783
0.053889
0.05456
0.0548511
0.0550719
0.0552123
0.0554984
-0.0060567
0.00702316
0.0176436
0.0259536
0.0326408
0.0376976
0.0416656
0.0445221
0.046684
0.0481187
0.0491573
0.0497805
0.0502429
0.0505486
0.0508723
-0.0075732
0.00367638
0.0129958
0.0205247
0.0267658
0.0316931
0.0356857
0.0387157
0.0410952
0.0428034
0.044094
0.0449557
0.0455948
0.0460189
0.0463625
-0.00833914
0.00134821
0.00950487
0.0162623
0.0220007
0.0266797
0.0305677
0.0336295
0.0360984
0.0379582
0.0394032
0.0404223
0.0411805
0.0416834
0.0420357
-0.00861767
-0.000261095
0.00686986
0.0128985
0.0181205
0.0224864
0.0261893
0.0291878
0.031656
0.0335758
0.0350962
0.0362063
0.0370353
0.0375848
0.0379375
-0.00858462
-0.001362
0.00487101
0.010229
0.0149463
0.0189701
0.0224412
0.0253145
0.0277192
0.0296334
0.03117
0.0323183
0.0331793
0.03375
0.0340962
-0.00835792
-0.00210299
0.003347
0.00809728
0.0123367
0.0160124
0.0192285
0.0219383
0.0242372
0.0260997
0.0276105
0.0287576
0.0296201
0.0301925
0.030527
-0.00801675
-0.00258932
0.00217907
0.00638409
0.0101799
0.0135159
0.0164698
0.0189948
0.0211613
0.0229409
0.0243966
0.025515
0.026357
0.0269161
0.0272348
-0.00761411
-0.00289592
0.00127939
0.00499814
0.00838762
0.0114008
0.0140958
0.016427
0.018446
0.0201228
0.0215042
0.0225749
0.0233818
0.0239179
0.0242178
-0.00718499
-0.00307644
0.00058234
0.00386931
0.00689029
0.00960218
0.0120481
0.014185
0.0160499
0.0176129
0.0189078
0.0199188
0.0206814
0.0211882
0.0214677
-0.00675244
-0.0031703
3.82676e-05
0.00294361
0.00563296
0.00806718
0.0102781
0.0122257
0.0139362
0.0153804
0.0165827
0.0175268
0.0182395
0.0187136
0.018972
-0.00633271
-0.00320793
-0.000389466
0.00218027
0.00457273
0.00675301
0.00874494
0.0105117
0.0120716
0.0133968
0.0145045
0.0153784
0.0160387
0.0164782
0.0167156
-0.00593839
-0.00320519
-0.000724093
0.00154918
0.00367573
0.00562465
0.00741435
0.0090108
0.0104269
0.011636
0.0126502
0.0134532
0.0140606
0.0144651
0.014682
-0.00555504
-0.00316154
-0.000981658
0.00102647
0.00291421
0.00465329
0.00625746
0.00769549
0.00897605
0.0100741
0.0109978
0.0117315
0.012287
0.012657
0.0128543
-0.00520285
-0.00309833
-0.00118148
0.00059161
0.0022655
0.00381505
0.00524997
0.00654191
0.00769613
0.00868961
0.00952722
0.0101945
0.0106999
0.0110367
0.0112154
-0.00488346
-0.00303
-0.00134049
0.000226698
0.00171063
0.0030899
0.00437132
0.00552946
0.00656702
0.00746297
0.00821984
0.00882422
0.00928222
0.00958761
0.00974893
-0.00459157
-0.0029592
-0.00146835
-8.18515e-05
0.00123402
0.00246099
0.00360398
0.00464032
0.00557096
0.00637679
0.00705867
0.00760428
0.00801794
0.00829386
0.00843907
-0.00432501
-0.0028869
-0.0015708
-0.000343669
0.000823346
0.00191441
0.00293302
0.00385904
0.00469227
0.00541544
0.00602824
0.00651944
0.00689198
0.00714056
0.00727096
-0.00408247
-0.0028146
-0.00165233
-0.000566085
0.000468856
0.00143869
0.00234578
0.00317227
0.00391719
0.00456498
0.00511456
0.00555576
0.00589047
0.00611387
0.00623073
-0.0038624
-0.0027437
-0.00171681
-0.000755156
0.000162546
0.00102428
0.00183153
0.00256847
0.0032336
0.00381299
0.00430503
0.00470053
0.00500067
0.00520103
0.00530558
-0.00366309
-0.00267521
-0.00176748
-0.000915986
-0.000102327
0.000663076
0.00138105
0.0020376
0.00263087
0.00314841
0.00358829
0.00394227
0.00421095
0.00439034
0.00448374
-0.00348273
-0.00260968
-0.00180694
-0.00105284
-0.000331478
0.000348161
0.000986409
0.00157091
0.00209961
0.00256141
0.00295418
0.00327057
0.00351075
0.00367115
0.00375449
-0.00331961
-0.00254746
-0.00183723
-0.00116928
-0.000529757
7.35802e-05
0.000640715
0.00116077
0.00163157
0.00204325
0.00239361
0.00267609
0.00289055
0.00303378
0.00310807
-0.00317215
-0.00248867
-0.00186001
-0.00126823
-0.000701281
-0.00016579
0.000337978
0.00080045
0.00121944
0.00158617
0.00189844
0.00215041
0.00234172
0.00246952
0.00253569
-0.00303889
-0.00243333
-0.00187655
-0.00135217
-0.000849565
-0.000374386
7.29666e-05
0.000484072
0.000856771
0.00118328
0.00146142
0.00168601
0.00185655
0.00197048
0.00202938
-0.00291848
-0.00238126
-0.00188787
-0.00142318
-0.000977668
-0.000556077
-0.000158896
0.000206452
0.000537868
0.00082844
0.00107607
0.00127615
0.00142809
0.00152961
0.00158202
-0.00280948
-0.00233209
-0.00189488
-0.00148318
-0.00108829
-0.000714244
-0.000361622
-3.69625e-05
0.000257695
0.000516231
0.000736637
0.000914826
0.00105014
0.00114057
0.00118719
-0.00271023
-0.00228607
-0.00189879
-0.00153393
-0.00118381
-0.000851829
-0.000538715
-0.000250176
1.18051e-05
0.000241834
0.000437993
0.000596671
0.000717173
0.000797714
0.00083918
-0.00262179
-0.00224461
-0.00190075
-0.0015769
-0.00126619
-0.000971385
-0.00069323
-0.000436714
-0.000203719
9.85007e-07
0.000175599
0.000316919
0.000424241
0.000495984
0.000532878
-0.00254246
-0.00220693
-0.00190106
-0.00161319
-0.00133712
-0.00107512
-0.000827844
-0.00059967
-0.000392339
-0.000210087
-5.45783e-05
7.13352e-05
0.000166961
0.000230894
0.000263737
-0.00247044
-0.00217171
-0.00189961
-0.00164355
-0.00139803
-0.00116494
-0.000944904
-0.000741755
-0.000557105
-0.000394709
-0.000256105
-0.000143831
-5.85616e-05
-1.54414e-06
2.77181e-05
-0.00240564
-0.00213891
-0.00189661
-0.00166865
-0.00145009
-0.00124248
-0.00104645
-0.000865353
-0.000700699
-0.000555818
-0.000432129
-0.000331897
-0.000255772
-0.00020486
-0.000178755
-0.00234769
-0.00210876
-0.00189251
-0.00168926
-0.0014944
-0.0013092
-0.00113426
-0.00097255
-0.000825474
-0.000695996
-0.000585427
-0.00049579
-0.000427712
-0.000382171
-0.000358841
-0.00229608
-0.00208132
-0.00188776
-0.00170607
-0.00153195
-0.00136638
-0.00120991
-0.00106518
-0.000933495
-0.00081751
-0.000718434
-0.000638083
-0.000577056
-0.000536223
-0.000515321
-0.00225036
-0.00205655
-0.00188267
-0.00171973
-0.00156365
-0.00141516
-0.00127478
-0.00114484
-0.00102657
-0.000922343
-0.000833284
-0.000761029
-0.000706149
-0.00066942
-0.000650633
-0.00221015
-0.00203439
-0.0018775
-0.00173074
-0.00159024
-0.00145652
-0.00133006
-0.00121292
-0.00110626
-0.00101222
-0.000931835
-0.000866591
-0.000817034
-0.000783858
-0.0007669
-0.00217514
-0.0020148
-0.00187244
-0.00173954
-0.00161239
-0.00149133
-0.00137681
-0.00127064
-0.00117395
-0.00108864
-0.0010157
-0.000956469
-0.000911481
-0.000881354
-0.000865965
-0.00214506
-0.00199774
-0.00186766
-0.00174649
-0.00163065
-0.00152031
-0.0014159
-0.00131904
-0.00123078
-0.00115288
-0.00108624
-0.00103212
-0.000991006
-0.000963466
-0.000949406
-0.00211967
-0.00198318
-0.00186331
-0.00175191
-0.00164548
-0.00154408
-0.00144808
-0.00135897
-0.00127775
-0.00120603
-0.00114465
-0.00109478
-0.0010569
-0.00103152
-0.00101856
-0.00209881
-0.00197109
-0.00185952
-0.00175606
-0.00165728
-0.00156314
-0.00147399
-0.00139118
-0.00131568
-0.00124898
-0.00119189
-0.00114548
-0.00111023
-0.0010866
-0.00107455
-0.00208232
-0.00196147
-0.0018564
-0.00175916
-0.00166637
-0.0015779
-0.0014941
-0.00141625
-0.00134524
-0.00128249
-0.00122875
-0.00118507
-0.00115188
-0.00112963
-0.00111829
-0.00207016
-0.00195426
-0.00185408
-0.00176137
-0.00167294
-0.00158865
-0.00150882
-0.00143463
-0.00136695
-0.00130711
-0.00125587
-0.00121419
-0.00118253
-0.0011613
-0.00115047
-0.00206191
-0.00195011
-0.00185266
-0.00176268
-0.00167711
-0.00159562
-0.00151845
-0.00144668
-0.0013812
-0.00132329
-0.00127369
-0.00123334
-0.00120269
-0.00118213
-0.00117165
-0.00205993
-0.00194732
-0.0018512
-0.00176299
-0.00167906
-0.00159904
-0.0015232
-0.00145265
-0.00138826
-0.00133131
-0.00128253
-0.00124285
-0.00121269
-0.00119246
-0.00118214
0.0724298
0.0375806
0.016108
0.00184078
-0.00667528
-0.011401
-0.0138192
-0.0148354
-0.014995
-0.0146401
-0.0139887
-0.0131802
-0.0123036
-0.0114151
-0.0105498
-0.00972765
-0.00896016
-0.00824849
-0.00759921
-0.00701061
-0.00648484
-0.00601172
-0.00558415
-0.00519878
-0.0048524
-0.00454156
-0.00426277
-0.00401276
-0.00378854
-0.00358741
-0.00340699
-0.00324516
-0.00310029
-0.00297
-0.00285295
-0.00274755
-0.00265307
-0.00256896
-0.00249424
-0.00242805
-0.00236968
-0.00231857
-0.00227425
-0.00223631
-0.00220439
-0.00217827
-0.00215756
-0.0021426
-0.00213162
-0.00212938
0.0541622
0.0218358
0.00545144
-0.00537137
-0.0113457
-0.0145246
-0.0159533
-0.0163193
-0.0160434
-0.0153942
-0.0145422
-0.0135959
-0.0126239
-0.0116688
-0.0107564
-0.00990031
-0.00910659
-0.00837272
-0.00770584
-0.00711175
-0.00658145
-0.00610071
-0.00566526
-0.0052728
-0.00492005
-0.00460335
-0.00431909
-0.00406396
-0.00383495
-0.00362935
-0.00344479
-0.00327921
-0.00313112
-0.00299801
-0.00287747
-0.00276853
-0.00267123
-0.0025848
-0.002508
-0.00243993
-0.00237988
-0.0023273
-0.00228169
-0.00224263
-0.00220977
-0.00218286
-0.00216155
-0.00214602
-0.00213498
-0.00213122
0.0320719
0.00138045
-0.00788694
-0.0138925
-0.0162317
-0.0172413
-0.0173773
-0.0169744
-0.0162445
-0.0153353
-0.0143435
-0.0133314
-0.0123386
-0.0113891
-0.0104968
-0.00966793
-0.00890256
-0.00819617
-0.00755622
-0.00699254
-0.00648814
-0.00602634
-0.00560612
-0.00522663
-0.00488476
-0.00457696
-0.00429986
-0.00405039
-0.00382577
-0.00362352
-0.00344147
-0.00327781
-0.0031312
-0.00299917
-0.00287865
-0.00276931
-0.00267183
-0.00258523
-0.00250816
-0.00243974
-0.00237931
-0.00232633
-0.00228031
-0.00224087
-0.00220767
-0.00218043
-0.00215888
-0.00214299
-0.00213214
-0.00212659
0.013644
-0.014068
-0.0180728
-0.0209609
-0.0209444
-0.0204109
-0.0195255
-0.0184514
-0.0172743
-0.0160641
-0.0148678
-0.0137159
-0.0126268
-0.0116108
-0.0106721
-0.00981061
-0.00902189
-0.00829951
-0.00764836
-0.00707586
-0.00656365
-0.00609499
-0.0056691
-0.00528474
-0.00493851
-0.00462669
-0.00434581
-0.00409275
-0.00386472
-0.00365924
-0.00347413
-0.00330758
-0.00315818
-0.0030235
-0.0029005
-0.00278892
-0.00268942
-0.00260093
-0.00252212
-0.00245212
-0.00239028
-0.00233603
-0.00228891
-0.0022485
-0.00221447
-0.00218654
-0.00216444
-0.00214807
-0.00213709
-0.00213075
-0.00271479
-0.0251335
-0.025014
-0.0262688
-0.0251006
-0.0237507
-0.022209
-0.0206233
-0.0190453
-0.0175189
-0.0160712
-0.0147177
-0.0134659
-0.0123176
-0.0112707
-0.0103201
-0.00945812
-0.00867628
-0.00797581
-0.00735881
-0.0068077
-0.00630703
-0.0058546
-0.00544756
-0.00508171
-0.00475287
-0.00445717
-0.00419117
-0.00395181
-0.00373639
-0.00354253
-0.00336823
-0.00321183
-0.00307092
-0.00294269
-0.00282669
-0.00272317
-0.00263104
-0.00254899
-0.00247616
-0.00241185
-0.00235547
-0.0023065
-0.00226454
-0.0022292
-0.00220021
-0.00217726
-0.00216025
-0.0021489
-0.00214248
-0.0194756
-0.0355926
-0.031174
-0.0309847
-0.0288633
-0.026912
-0.0248608
-0.0228513
-0.0209191
-0.0190986
-0.0174064
-0.0158496
-0.0144284
-0.0131385
-0.011973
-0.0109226
-0.00997704
-0.00912569
-0.00836667
-0.00769739
-0.00710034
-0.00656129
-0.00607672
-0.00564211
-0.00525236
-0.00490276
-0.00458901
-0.00430728
-0.00405419
-0.00382676
-0.00362238
-0.0034388
-0.00327412
-0.00312588
-0.00299147
-0.00287023
-0.00276202
-0.00266565
-0.00257988
-0.00250381
-0.00243668
-0.00237786
-0.00232682
-0.00228309
-0.00224629
-0.00221611
-0.00219223
-0.00217453
-0.00216273
-0.0021564
-0.0367373
-0.0468142
-0.0379276
-0.0359834
-0.0325977
-0.0299006
-0.0272906
-0.0248545
-0.0225835
-0.0204915
-0.0185794
-0.0168429
-0.0152739
-0.0138617
-0.012594
-0.0114581
-0.0104406
-0.00952901
-0.00871897
-0.00800474
-0.00736813
-0.00679548
-0.00628236
-0.00582305
-0.00541178
-0.00504337
-0.00471314
-0.00441697
-0.00415119
-0.00391259
-0.00369837
-0.00350607
-0.00333363
-0.0031785
-0.00303819
-0.00291187
-0.00279913
-0.0026987
-0.00260935
-0.00253015
-0.0024603
-0.00239913
-0.00234608
-0.00230065
-0.00226242
-0.00223109
-0.0022063
-0.00218794
-0.00217571
-0.00216937
-0.0537047
-0.0581235
-0.045105
-0.0413144
-0.0364521
-0.032856
-0.0296011
-0.0267031
-0.0240847
-0.0217267
-0.0196071
-0.0177063
-0.0160053
-0.0144859
-0.0131301
-0.0119211
-0.0108426
-0.00988
-0.00902658
-0.00827445
-0.00760467
-0.0070036
-0.00646604
-0.00598542
-0.00555548
-0.00517066
-0.00482598
-0.00451704
-0.00423996
-0.00399137
-0.00376829
-0.00356812
-0.00338862
-0.00322725
-0.00308149
-0.00295043
-0.00283346
-0.00272926
-0.00263657
-0.00255445
-0.00248205
-0.00241868
-0.00236373
-0.00231669
-0.00227712
-0.00224469
-0.00221905
-0.00220005
-0.00218741
-0.00218094
-0.0699621
-0.0687178
-0.0521203
-0.0466546
-0.0403472
-0.0358361
-0.0319087
-0.0285311
-0.0255553
-0.0229273
-0.0205996
-0.0185358
-0.0167053
-0.0150815
-0.0136406
-0.0123615
-0.0112248
-0.0102137
-0.00931897
-0.00853083
-0.00782977
-0.00720195
-0.0066413
-0.00614052
-0.0056929
-0.00529251
-0.00493409
-0.00461301
-0.00432518
-0.00406704
-0.00383548
-0.00362776
-0.00344152
-0.00327414
-0.00312315
-0.0029875
-0.00286644
-0.00275858
-0.00266268
-0.00257772
-0.00250286
-0.00243734
-0.00238055
-0.00233194
-0.00229107
-0.00225757
-0.00223109
-0.00221146
-0.00219842
-0.00219177
-0.0854926
-0.0783908
-0.0587242
-0.0517825
-0.0441683
-0.038814
-0.0342405
-0.0303921
-0.027059
-0.0241585
-0.021619
-0.0193882
-0.0174244
-0.0156929
-0.014164
-0.0128124
-0.0116156
-0.0105542
-0.00961679
-0.00879138
-0.0080581
-0.00740283
-0.00681854
-0.00629712
-0.00583144
-0.0054152
-0.00504282
-0.00470941
-0.00441068
-0.00414288
-0.00390276
-0.00368742
-0.00349437
-0.00332097
-0.00316472
-0.00302445
-0.00289928
-0.00278776
-0.00268862
-0.00260083
-0.00252349
-0.00245583
-0.00239719
-0.00234702
-0.00230483
-0.00227027
-0.00224295
-0.00222269
-0.00220924
-0.0022024
-0.100267
-0.0872751
-0.0650085
-0.056679
-0.0478789
-0.041754
-0.0365741
-0.0322744
-0.0285916
-0.0254205
-0.022668
-0.0202678
-0.0181677
-0.0163255
-0.0147057
-0.0132789
-0.0120195
-0.0109058
-0.00992382
-0.00905959
-0.00829279
-0.00760898
-0.00700011
-0.00645731
-0.00597294
-0.00554032
-0.00515353
-0.00480743
-0.0044975
-0.00421981
-0.00397091
-0.00374778
-0.00354779
-0.00336825
-0.00320665
-0.00306169
-0.00293234
-0.0028171
-0.00271469
-0.00262403
-0.00254419
-0.00247436
-0.00241385
-0.0023621
-0.00231859
-0.00228295
-0.00225478
-0.00223389
-0.00222003
-0.002213
-0.1146
-0.0955152
-0.0711573
-0.0614059
-0.0515076
-0.0446485
-0.0388896
-0.0341548
-0.03013
-0.0266924
-0.0237286
-0.0211592
-0.0189223
-0.0169683
-0.0152565
-0.0137535
-0.0124305
-0.0112634
-0.0102359
-0.0093321
-0.00853116
-0.00781824
-0.00718429
-0.00661965
-0.00611622
-0.0056669
-0.00526545
-0.00490644
-0.00458512
-0.00429736
-0.00403956
-0.00380853
-0.00360152
-0.00341577
-0.00324875
-0.00309904
-0.00296547
-0.00284648
-0.00274077
-0.00264722
-0.00256485
-0.00249283
-0.00243045
-0.00237711
-0.00233227
-0.00229554
-0.00226652
-0.002245
-0.00223073
-0.00222351
-0.128198
-0.103429
-0.0772978
-0.0660025
-0.0550971
-0.0475082
-0.0411852
-0.036023
-0.0316618
-0.0279613
-0.0247882
-0.0220509
-0.0196779
-0.0176126
-0.015809
-0.0142297
-0.012843
-0.0116223
-0.0105491
-0.0096056
-0.00877047
-0.00802832
-0.00736913
-0.00678254
-0.00625994
-0.00579383
-0.00537762
-0.00500562
-0.00467285
-0.00437498
-0.00410822
-0.00386926
-0.0036552
-0.00346322
-0.00329076
-0.00313628
-0.00299846
-0.00287571
-0.00276669
-0.00267024
-0.00258534
-0.00251114
-0.00244688
-0.00239194
-0.00234577
-0.00230795
-0.00227808
-0.00225593
-0.00224124
-0.00223383
-0.140746
-0.111248
-0.0834795
-0.0704925
-0.058676
-0.0503455
-0.0434693
-0.0378809
-0.0331869
-0.0292259
-0.0258449
-0.0229405
-0.0204321
-0.018256
-0.0163608
-0.0147056
-0.0132553
-0.011981
-0.0108621
-0.00987895
-0.0090097
-0.00823836
-0.00755392
-0.00694534
-0.00640355
-0.00592062
-0.00548965
-0.00510464
-0.0047604
-0.0044524
-0.00417668
-0.00392977
-0.00370866
-0.00351046
-0.00333256
-0.00317329
-0.00303121
-0.00290471
-0.00279237
-0.00269302
-0.0026056
-0.0025292
-0.00246307
-0.00240653
-0.00235904
-0.00232014
-0.00228941
-0.00226663
-0.00225152
-0.00224391
-0.152311
-0.118977
-0.089502
-0.0750018
-0.0622697
-0.0531838
-0.0457539
-0.0397311
-0.0347102
-0.03049
-0.0269016
-0.0238306
-0.0211868
-0.0189
-0.0169133
-0.0151819
-0.0136679
-0.01234
-0.0111752
-0.0101524
-0.00924907
-0.00844849
-0.00773874
-0.00710813
-0.00654711
-0.00604733
-0.00560155
-0.00520352
-0.00484779
-0.00452963
-0.00424494
-0.00399008
-0.00376192
-0.00355749
-0.00337413
-0.00321006
-0.00306373
-0.00293346
-0.00281782
-0.00271556
-0.00262561
-0.00254703
-0.00247902
-0.00242089
-0.00237207
-0.00233208
-0.00230051
-0.00227709
-0.00226156
-0.00225376
-0.163118
-0.126542
-0.0952957
-0.079554
-0.0658585
-0.0560247
-0.0480448
-0.0415899
-0.0362396
-0.0317588
-0.0279624
-0.0247241
-0.0219446
-0.0195465
-0.0174682
-0.01566
-0.0140818
-0.0127001
-0.0114892
-0.0104266
-0.00948904
-0.00865909
-0.00792391
-0.00727117
-0.00669082
-0.00617411
-0.00571347
-0.00530236
-0.0049351
-0.00460676
-0.00431306
-0.00405023
-0.003815
-0.00360434
-0.00341551
-0.00324662
-0.00309603
-0.00296199
-0.00284303
-0.00273788
-0.0026454
-0.00256463
-0.00249474
-0.00243502
-0.00238487
-0.0023438
-0.00231137
-0.00228732
-0.00227138
-0.00226337
-0.173396
-0.1339
-0.100899
-0.0841318
-0.0694316
-0.0588659
-0.0503432
-0.0434598
-0.0377773
-0.0330345
-0.029029
-0.0256227
-0.0227066
-0.0201966
-0.018026
-0.0161407
-0.0144978
-0.0130619
-0.0118046
-0.0107019
-0.0097299
-0.0088704
-0.00810962
-0.0074346
-0.00683481
-0.00630108
-0.0058255
-0.00540124
-0.00502239
-0.00468382
-0.00438109
-0.00411026
-0.00386794
-0.00365103
-0.00345671
-0.003283
-0.00312813
-0.00299031
-0.00286804
-0.00275998
-0.00266497
-0.00258201
-0.00251023
-0.00244892
-0.00239744
-0.00235529
-0.00232201
-0.00229733
-0.00228097
-0.00227275
-0.183339
-0.141038
-0.106385
-0.088725
-0.0729911
-0.0617088
-0.0526517
-0.0453395
-0.039324
-0.0343179
-0.0301021
-0.0265268
-0.0234733
-0.0208507
-0.018587
-0.0166241
-0.0149163
-0.0134256
-0.0121214
-0.0109784
-0.00997173
-0.00908247
-0.00829591
-0.00759847
-0.00697912
-0.00642827
-0.00593765
-0.00550018
-0.00510969
-0.00476084
-0.00444903
-0.00417017
-0.00392075
-0.00369756
-0.00349774
-0.00331918
-0.00316002
-0.00301842
-0.00289282
-0.00278185
-0.0026843
-0.00259915
-0.0025255
-0.00246259
-0.00240977
-0.00236654
-0.00233241
-0.0023071
-0.00229032
-0.00228189
-0.193095
-0.147934
-0.111809
-0.093339
-0.0765431
-0.0645614
-0.0549741
-0.0472296
-0.0408809
-0.03561
-0.0311827
-0.0274372
-0.0242452
-0.0215091
-0.0191515
-0.0171105
-0.0153373
-0.0137911
-0.0124397
-0.0112561
-0.0102146
-0.00929532
-0.00848279
-0.00776278
-0.00712374
-0.00655566
-0.00604993
-0.00559917
-0.00519698
-0.00483781
-0.00451688
-0.00422996
-0.00397341
-0.00374393