/*--------------------------------*- C++ -*----------------------------------*\
  =========                 |
  \\      /  F ield         | OpenFOAM: The Open Source CFD Toolbox
   \\    /   O peration     | Website:  https://openfoam.org
    \\  /    A nd           | Version:  7
     \\/     M anipulation  |
\*---------------------------------------------------------------------------*/
FoamFile
{
    version     2.0;
    format      ascii;
    class       volScalarField;
    location    "20.001";
    object      p;
}
// * * * * * * * * * * * * * * * * * * * * * * * * * * * * * * * * * * * * * //

dimensions      [0 2 -2 0 0 0 0];

internalField   nonuniform List<scalar> 
3700
(
0.616157
0.589172
0.568994
0.539599
0.507592
0.474728
0.44254
0.411735
0.382723
0.355663
0.330589
0.307456
0.286208
0.266777
0.249007
0.611566
0.585034
0.565403
0.536502
0.504909
0.472392
0.440496
0.409938
0.381135
0.354256
0.329336
0.306333
0.28519
0.26586
0.248226
0.602422
0.576791
0.558247
0.530331
0.499561
0.467735
0.43642
0.406355
0.377971
0.351449
0.326837
0.304093
0.283159
0.264029
0.246665
0.588803
0.564506
0.54758
0.521129
0.491585
0.460787
0.43034
0.401008
0.373247
0.347259
0.323106
0.300747
0.280127
0.261292
0.244326
0.570823
0.548276
0.533481
0.508962
0.481036
0.451596
0.422293
0.39393
0.366993
0.34171
0.318163
0.296315
0.276109
0.257663
0.241216
0.548633
0.528229
0.516053
0.493917
0.467987
0.440223
0.412332
0.385166
0.359246
0.334833
0.312035
0.290819
0.271128
0.253158
0.237339
0.522421
0.504521
0.495428
0.476101
0.452527
0.426743
0.400521
0.374768
0.350051
0.326668
0.304757
0.28429
0.265209
0.247798
0.232707
0.492408
0.477339
0.471757
0.45564
0.434763
0.411245
0.386934
0.362802
0.339464
0.317262
0.296367
0.276763
0.258385
0.241606
0.227333
0.458849
0.446898
0.445218
0.43268
0.414816
0.393832
0.371659
0.34934
0.327546
0.306666
0.286911
0.268277
0.25069
0.234613
0.22123
0.422026
0.413437
0.416007
0.407384
0.392823
0.374619
0.354793
0.334466
0.314369
0.294943
0.276442
0.258877
0.242164
0.226848
0.214419
0.382252
0.37722
0.384341
0.379932
0.368934
0.353731
0.336442
0.318269
0.300008
0.282157
0.265016
0.248613
0.232851
0.218349
0.206922
0.339866
0.338535
0.350457
0.350517
0.343312
0.331306
0.316722
0.300848
0.284549
0.26838
0.252693
0.237539
0.222799
0.209152
0.198764
0.295226
0.297688
0.314607
0.319348
0.316129
0.30749
0.295756
0.282308
0.268079
0.253689
0.239542
0.225713
0.212058
0.199301
0.189972
0.248713
0.255004
0.277057
0.286642
0.28757
0.282436
0.273674
0.262759
0.250695
0.238164
0.225632
0.213199
0.200684
0.188837
0.180577
0.200722
0.210823
0.238087
0.25263
0.257825
0.256306
0.250613
0.242317
0.232494
0.221891
0.211035
0.200062
0.18874
0.177808
0.170607
0.15166
0.165497
0.197987
0.217548
0.227091
0.229265
0.226713
0.221101
0.21358
0.204955
0.195827
0.186374
0.176293
0.16626
0.160083
0.101942
0.119389
0.157055
0.181639
0.195572
0.201484
0.202118
0.199235
0.194057
0.187448
0.180082
0.172205
0.163429
0.154267
0.149022
0.0519865
0.0728701
0.115596
0.145149
0.163472
0.173135
0.176974
0.176842
0.174033
0.169462
0.163875
0.157621
0.15024
0.141905
0.137374
0.00220549
0.0263149
0.0739143
0.108326
0.130997
0.144393
0.151428
0.154049
0.153615
0.151091
0.147278
0.142667
0.13682
0.129394
0.125121
-0.0469861
-0.0199097
0.0323175
0.0714142
0.0983516
0.11543
0.125627
0.130978
0.132911
0.132432
0.130377
0.127388
0.123239
0.117044
0.112004
-0.0951796
-0.0654472
-0.00889137
0.0346559
0.0657389
0.0864174
0.0997171
0.107754
0.112026
0.113579
0.113257
0.111801
0.109362
0.10509
0.0984928
-0.14198
-0.109955
-0.0494157
-0.00171716
0.033356
0.0575236
0.0738399
0.0844972
0.0910592
0.0946183
0.0960136
0.0960192
0.0951515
0.0930181
0.0878869
-0.186996
-0.153118
-0.0889754
-0.0374855
0.00139583
0.0289114
0.048134
0.061327
0.070112
0.0756326
0.0787316
0.0801697
0.0807199
0.0805904
0.0775212
-0.229787
-0.194612
-0.127338
-0.0724439
-0.0299531
0.000737879
0.0227328
0.0383576
0.0492815
0.0566997
0.0614723
0.0643272
0.0661463
0.0675691
0.0663454
-0.270145
-0.233899
-0.164397
-0.106386
-0.0605058
-0.0268484
-0.0022369
0.0156983
0.0286615
0.0378947
0.0442846
0.0485281
0.0515189
0.0541429
0.054369
-0.3078
-0.270185
-0.20034
-0.13907
-0.0900884
-0.0537088
-0.0266546
-0.00654752
0.00834101
0.0192922
0.0272222
0.0328088
0.0369207
0.0405847
0.0420072
-0.342549
-0.303922
-0.234257
-0.170183
-0.118546
-0.0797129
-0.0504067
-0.0282828
-0.011596
0.000966128
0.0103471
0.0172165
0.0224082
0.0270352
0.0295604
-0.374193
-0.335067
-0.26564
-0.199649
-0.145734
-0.104739
-0.0733871
-0.0494178
-0.0310712
-0.0170131
-0.00627753
0.00180338
0.00802259
0.0135445
0.017122
-0.402552
-0.363326
-0.294539
-0.227288
-0.171512
-0.128672
-0.0954982
-0.0698702
-0.0500124
-0.0345807
-0.0225926
-0.0133796
-0.00619615
0.000147554
0.00471523
-0.427498
-0.388463
-0.320929
-0.252992
-0.19579
-0.1514
-0.11665
-0.0895672
-0.068354
-0.0516781
-0.038545
-0.0282849
-0.0202059
-0.0131123
-0.00762174
-0.448961
-0.410345
-0.344692
-0.276669
-0.218646
-0.172715
-0.136767
-0.108442
-0.0860366
-0.0682531
-0.0540873
-0.0428682
-0.0339654
-0.0261911
-0.0198375
-0.466924
-0.428904
-0.365714
-0.298199
-0.23976
-0.192859
-0.155752
-0.126438
-0.103008
-0.0842596
-0.0691779
-0.0570888
-0.0474356
-0.0390524
-0.031888
-0.481412
-0.444122
-0.383923
-0.317514
-0.25907
-0.211632
-0.173725
-0.143492
-0.119226
-0.0996569
-0.0837806
-0.0709104
-0.0605788
-0.0516707
-0.0437426
-0.492501
-0.456031
-0.399292
-0.334587
-0.276582
-0.228944
-0.190547
-0.15965
-0.134687
-0.114407
-0.0978649
-0.0843048
-0.073359
-0.0640229
-0.0553866
-0.50031
-0.464717
-0.41183
-0.349404
-0.292298
-0.244787
-0.20616
-0.174845
-0.149365
-0.128529
-0.111401
-0.0972571
-0.0857468
-0.0760675
-0.0668405
-0.505001
-0.470325
-0.421583
-0.361966
-0.306216
-0.259171
-0.220568
-0.189046
-0.163224
-0.141974
-0.124391
-0.10978
-0.0977402
-0.0877115
-0.0781876
-0.506778
-0.47305
-0.428638
-0.372298
-0.318345
-0.272109
-0.233783
-0.202251
-0.176253
-0.154724
-0.136807
-0.121823
-0.109345
-0.0989506
-0.0895044
-0.505882
-0.473138
-0.433124
-0.380447
-0.328709
-0.283621
-0.245823
-0.214475
-0.188457
-0.16678
-0.148637
-0.133372
-0.120552
-0.109837
-0.100298
-0.502589
-0.470884
-0.435198
-0.386489
-0.337353
-0.293737
-0.256713
-0.225736
-0.199851
-0.17815
-0.159881
-0.144424
-0.131344
-0.120339
-0.110534
-0.4972
-0.466624
-0.435047
-0.39052
-0.344339
-0.3025
-0.266483
-0.23606
-0.210451
-0.188846
-0.17055
-0.154981
-0.14171
-0.130459
-0.120365
-0.490037
-0.460712
-0.432895
-0.39267
-0.349742
-0.309962
-0.275176
-0.245478
-0.220283
-0.198886
-0.180656
-0.165052
-0.151658
-0.140227
-0.129916
-0.481433
-0.453501
-0.429006
-0.393094
-0.353654
-0.316187
-0.28284
-0.254029
-0.229376
-0.208292
-0.190217
-0.174654
-0.161202
-0.149665
-0.139244
-0.471725
-0.445327
-0.423679
-0.391975
-0.356179
-0.321244
-0.289529
-0.261757
-0.237766
-0.217094
-0.199254
-0.183805
-0.170361
-0.158778
-0.148344
-0.461241
-0.4365
-0.417239
-0.389517
-0.357432
-0.325207
-0.295302
-0.268711
-0.245492
-0.225321
-0.207794
-0.192526
-0.179149
-0.167565
-0.157187
-0.450291
-0.427292
-0.410018
-0.385943
-0.357541
-0.328157
-0.300218
-0.27494
-0.252597
-0.233011
-0.215865
-0.200838
-0.187584
-0.176029
-0.165754
-0.439155
-0.417939
-0.402341
-0.381486
-0.356644
-0.330178
-0.304339
-0.280496
-0.259126
-0.2402
-0.223498
-0.208764
-0.195684
-0.184184
-0.174045
-0.428075
-0.408642
-0.394496
-0.37639
-0.354891
-0.331358
-0.307723
-0.285428
-0.265122
-0.246927
-0.230724
-0.21633
-0.20347
-0.19205
-0.182073
-0.41725
-0.399571
-0.38672
-0.370899
-0.352442
-0.331787
-0.31043
-0.289783
-0.270627
-0.253231
-0.237579
-0.223564
-0.210966
-0.19965
-0.189852
-0.406836
-0.390863
-0.37919
-0.365247
-0.349465
-0.331563
-0.312516
-0.293603
-0.275681
-0.259149
-0.244098
-0.230496
-0.218197
-0.207008
-0.197399
-0.396948
-0.382624
-0.372025
-0.359644
-0.346133
-0.330788
-0.314037
-0.296925
-0.280317
-0.264715
-0.250314
-0.237157
-0.225189
-0.214147
-0.204732
-0.387661
-0.374929
-0.365303
-0.354255
-0.342618
-0.329571
-0.315051
-0.299782
-0.284562
-0.269957
-0.256259
-0.243577
-0.231969
-0.221092
-0.211869
-0.37903
-0.367819
-0.359074
-0.349191
-0.33908
-0.32803
-0.315616
-0.302202
-0.288437
-0.274898
-0.26196
-0.249785
-0.238563
-0.227869
-0.21883
-0.371076
-0.361308
-0.353365
-0.344514
-0.335657
-0.326287
-0.315802
-0.304212
-0.291953
-0.27955
-0.267436
-0.255809
-0.244998
-0.234504
-0.225638
-0.363804
-0.355386
-0.348186
-0.34025
-0.332447
-0.324462
-0.315684
-0.305839
-0.295114
-0.283915
-0.272698
-0.261667
-0.251298
-0.241028
-0.232315
-0.357205
-0.350031
-0.34353
-0.336406
-0.329508
-0.322662
-0.315346
-0.307119
-0.297922
-0.287985
-0.277743
-0.267372
-0.257488
-0.247462
-0.238898
-0.351255
-0.34521
-0.339372
-0.332978
-0.326867
-0.320966
-0.314874
-0.308097
-0.300379
-0.29174
-0.282555
-0.27292
-0.263578
-0.253845
-0.245401
-0.345921
-0.340885
-0.335679
-0.329952
-0.324531
-0.319428
-0.31435
-0.308828
-0.302491
-0.295156
-0.287098
-0.278292
-0.269574
-0.260183
-0.251933
-0.341162
-0.337014
-0.33241
-0.327306
-0.322498
-0.318076
-0.313835
-0.309373
-0.304278
-0.29821
-0.291327
-0.283438
-0.275466
-0.266507
-0.258502
-0.336929
-0.333554
-0.32952
-0.325005
-0.320755
-0.316922
-0.313376
-0.30979
-0.30577
-0.30089
-0.295182
-0.288309
-0.281175
-0.272815
-0.265388
-0.333168
-0.330458
-0.326961
-0.323009
-0.319281
-0.315966
-0.313001
-0.310131
-0.307008
-0.303196
-0.298609
-0.292805
-0.286667
-0.278981
-0.272474
-0.329816
-0.327683
-0.324688
-0.321273
-0.31804
-0.315196
-0.312724
-0.310435
-0.308037
-0.305149
-0.30156
-0.29689
-0.291607
-0.285412
-0.278984
-0.326805
-0.325191
-0.322652
-0.319751
-0.316993
-0.314586
-0.312543
-0.310729
-0.308905
-0.306784
-0.304007
-0.30055
-0.295837
-0.29163
-0.284568
-0.324094
-0.32292
-0.320809
-0.318396
-0.316093
-0.314101
-0.312443
-0.311025
-0.309651
-0.308147
-0.305967
-0.303758
-0.299199
-0.296993
-0.289284
-0.321626
-0.32083
-0.319116
-0.317162
-0.315294
-0.313696
-0.312392
-0.311316
-0.310297
-0.309286
-0.307498
-0.306506
-0.301643
-0.301618
-0.293039
-0.319344
-0.318889
-0.317533
-0.31601
-0.314552
-0.313326
-0.312354
-0.31158
-0.310855
-0.31023
-0.308692
-0.308792
-0.303296
-0.305749
-0.2957
-0.317201
-0.317054
-0.31604
-0.314905
-0.313828
-0.312951
-0.312287
-0.311786
-0.311317
-0.310989
-0.309651
-0.31058
-0.304472
-0.309313
-0.297259
-0.315162
-0.315308
-0.314604
-0.313822
-0.313093
-0.312536
-0.312156
-0.311902
-0.311665
-0.311556
-0.310446
-0.31182
-0.305534
-0.311964
-0.298084
-0.313202
-0.313634
-0.313206
-0.312742
-0.312326
-0.312058
-0.311934
-0.311903
-0.311875
-0.311927
-0.311092
-0.312529
-0.306675
-0.313453
-0.298805
-0.311304
-0.312021
-0.311838
-0.311655
-0.311516
-0.311502
-0.311604
-0.311771
-0.311927
-0.312104
-0.311558
-0.312805
-0.307842
-0.313882
-0.29986
-0.309463
-0.310465
-0.310497
-0.310562
-0.310661
-0.310867
-0.311164
-0.3115
-0.31181
-0.312096
-0.311804
-0.312777
-0.30885
-0.313612
-0.301227
-0.307683
-0.308968
-0.30919
-0.309467
-0.30977
-0.31016
-0.310621
-0.311099
-0.311529
-0.311917
-0.311804
-0.312566
-0.309538
-0.313012
-0.302619
-0.305976
-0.307541
-0.307926
-0.308385
-0.308856
-0.3094
-0.309993
-0.310587
-0.311125
-0.311562
-0.311577
-0.312243
-0.309834
-0.312352
-0.303788
-0.304362
-0.306197
-0.306723
-0.307333
-0.307944
-0.308609
-0.309308
-0.309992
-0.310607
-0.311092
-0.311284
-0.311657
-0.309863
-0.31176
-0.304653
-0.302863
-0.304955
-0.305601
-0.306336
-0.307057
-0.307818
-0.308599
-0.30935
-0.310021
-0.310547
-0.310835
-0.311021
-0.309967
-0.310742
-0.305528
-0.301507
-0.303836
-0.30458
-0.305417
-0.306225
-0.30706
-0.307901
-0.308702
-0.309411
-0.309967
-0.310304
-0.310422
-0.309817
-0.309863
-0.306482
-0.300322
-0.30286
-0.303685
-0.304602
-0.305476
-0.306366
-0.307252
-0.308087
-0.308822
-0.3094
-0.309764
-0.309872
-0.309509
-0.309222
-0.307083
-0.299336
-0.302049
-0.302938
-0.303916
-0.304839
-0.305768
-0.306684
-0.307543
-0.308294
-0.308887
-0.309268
-0.309391
-0.309163
-0.30877
-0.307414
-0.298572
-0.301423
-0.302358
-0.303381
-0.304338
-0.305293
-0.30623
-0.307103
-0.307865
-0.308466
-0.308859
-0.309001
-0.308852
-0.308461
-0.307582
-0.298051
-0.300996
-0.301961
-0.303013
-0.303992
-0.304964
-0.305912
-0.306794
-0.307562
-0.308167
-0.308567
-0.308726
-0.308622
-0.308268
-0.307654
-0.297787
-0.30078
-0.30176
-0.302826
-0.303815
-0.304795
-0.305749
-0.306635
-0.307405
-0.308013
-0.308416
-0.308583
-0.3085
-0.308173
-0.307678
0.226069
0.203486
0.184202
0.169468
0.156645
0.146743
0.138004
0.131199
0.12512
0.120365
0.116116
0.112826
0.109899
0.107657
0.105696
0.104248
0.103036
0.102223
0.101629
0.101405
0.225502
0.203098
0.183906
0.169255
0.156476
0.146616
0.137898
0.131117
0.125052
0.120309
0.116066
0.112782
0.109859
0.107621
0.105663
0.104217
0.103008
0.102196
0.101602
0.101378
0.224368
0.202323
0.183316
0.168831
0.156138
0.146362
0.137688
0.130952
0.124916
0.120196
0.115965
0.112694
0.10978
0.10755
0.105598
0.104156
0.10295
0.102141
0.101549
0.101325
0.222665
0.201163
0.182432
0.168195
0.155633
0.145983
0.137375
0.130706
0.124712
0.120027
0.115815
0.112563
0.109663
0.107444
0.1055
0.104065
0.102864
0.102059
0.101469
0.101246
0.220392
0.199618
0.181255
0.167352
0.154963
0.145478
0.136958
0.130378
0.124439
0.119801
0.115616
0.11239
0.109507
0.107302
0.10537
0.103944
0.10275
0.101949
0.101364
0.101141
0.217549
0.197691
0.179789
0.166303
0.154129
0.144851
0.136441
0.129969
0.1241
0.119523
0.115371
0.112173
0.109313
0.107126
0.105208
0.103793
0.102608
0.101814
0.101232
0.101011
0.214135
0.195384
0.178037
0.16505
0.153135
0.144102
0.135825
0.12948
0.12369
0.119177
0.115074
0.111916
0.109082
0.106916
0.105015
0.103613
0.102439
0.101652
0.101076
0.100855
0.210154
0.192701
0.176
0.163596
0.151984
0.143233
0.135113
0.128912
0.123209
0.1188
0.114755
0.111619
0.108815
0.106674
0.104792
0.103404
0.102243
0.101464
0.100894
0.100675
0.205608
0.189644
0.173685
0.161945
0.15068
0.142247
0.134308
0.128266
0.122662
0.118358
0.114337
0.111281
0.108514
0.106399
0.10454
0.103168
0.102021
0.101252
0.100689
0.10047
0.200503
0.186219
0.171094
0.160098
0.149226
0.141145
0.133411
0.127546
0.122052
0.117841
0.113988
0.110924
0.108179
0.106093
0.104259
0.102905
0.101774
0.101015
0.100459
0.100242
0.194846
0.182429
0.168234
0.158058
0.147627
0.13993
0.132427
0.126754
0.121387
0.117276
0.113479
0.110511
0.107811
0.105757
0.10395
0.102616
0.101502
0.100754
0.100207
0.0999919
0.188648
0.178279
0.165111
0.155827
0.145889
0.138603
0.131359
0.12589
0.120667
0.11667
0.112973
0.110059
0.107411
0.105392
0.103615
0.102303
0.101207
0.100471
0.099933
0.0997195
0.181919
0.17377
0.161732
0.153406
0.144015
0.137167
0.130208
0.124957
0.119891
0.116011
0.112402
0.109564
0.106976
0.105
0.103254
0.101965
0.100889
0.100166
0.0996375
0.099426
0.174674
0.168906
0.158107
0.150798
0.14201
0.135624
0.128978
0.123958
0.119063
0.115305
0.111788
0.109066
0.106536
0.104587
0.10287
0.101604
0.100549
0.0998401
0.0993215
0.0991124
0.166929
0.163686
0.154244
0.148004
0.13988
0.133978
0.127671
0.122893
0.118184
0.114556
0.111137
0.10848
0.106059
0.104143
0.102464
0.101221
0.100189
0.0994942
0.098986
0.0987795
0.158705
0.158108
0.150155
0.145027
0.137629
0.132232
0.126292
0.121768
0.117255
0.113766
0.110457
0.10788
0.10552
0.103683
0.10202
0.10082
0.0998096
0.0991293
0.0986319
0.0984285
0.150012
0.152163
0.145846
0.14187
0.135258
0.130389
0.124839
0.120583
0.116278
0.112935
0.109742
0.107251
0.104958
0.103183
0.101616
0.100401
0.0994114
0.0987464
0.0982602
0.0980603
0.140893
0.145856
0.141331
0.138534
0.132768
0.128448
0.123313
0.119337
0.115252
0.112063
0.108994
0.106593
0.104373
0.102648
0.101119
0.0999751
0.0989979
0.0983477
0.0978719
0.0976761
0.131331
0.139208
0.136637
0.135084
0.130205
0.126464
0.121754
0.11807
0.114208
0.111177
0.108232
0.105923
0.103776
0.102108
0.100622
0.0995117
0.0985806
0.0979364
0.0974676
0.0972772
0.120859
0.13174
0.131501
0.131319
0.127438
0.124339
0.120082
0.116717
0.113088
0.110228
0.107414
0.105205
0.103139
0.101533
0.100098
0.0990219
0.0981207
0.0975038
0.0970508
0.0968647
0.105694
0.119509
0.123147
0.124205
0.122143
0.119892
0.116661
0.113838
0.110805
0.108284
0.105828
0.103832
0.101986
0.100517
0.0992187
0.0982263
0.0974034
0.0968317
0.0964231
0.0962567
0.0938313
0.105924
0.112604
0.115202
0.115085
0.114006
0.111948
0.109911
0.107605
0.105595
0.103594
0.101928
0.100371
0.099114
0.097997
0.097136
0.0964179
0.0959148
0.0955589
0.0954185
0.0829759
0.0947848
0.102865
0.106711
0.108183
0.108184
0.107206
0.105925
0.104322
0.102821
0.101277
0.0999472
0.0986842
0.0976469
0.096717
0.0959927
0.0953851
0.0949561
0.0946538
0.0945359
0.0729121
0.0850151
0.0939262
0.098799
0.101547
0.102518
0.102525
0.101953
0.101026
0.100014
0.0989193
0.0979195
0.096953
0.0961336
0.095394
0.0948066
0.0943128
0.09396
0.0937131
0.0936156
0.0638493
0.076247
0.085738
0.0914811
0.0952361
0.0970767
0.0979501
0.0980445
0.0977462
0.0972051
0.0965444
0.095868
0.095193
0.0945898
0.0940397
0.093589
0.0932097
0.0929337
0.0927425
0.0926648
0.055816
0.0683578
0.078252
0.0847202
0.0892758
0.0918865
0.0935127
0.0942275
0.0945065
0.0944179
0.0941687
0.0938086
0.0934164
0.0930271
0.0926635
0.0923491
0.0920835
0.0918843
0.0917482
0.09169
0.0487183
0.0612748
0.071431
0.0784765
0.083676
0.0869599
0.0892378
0.0905242
0.0913286
0.0916706
0.0918084
0.0917556
0.0916351
0.0914563
0.0912743
0.0910953
0.0909415
0.0908188
0.0907367
0.0906981
0.0424241
0.0549185
0.0652323
0.0727194
0.0784383
0.0823029
0.085145
0.0869518
0.0882322
0.0889799
0.0894792
0.0897223
0.0898609
0.0898877
0.0898813
0.0898357
0.0897909
0.0897439
0.0897142
0.0896955
0.0368267
0.0492092
0.0596057
0.0674217
0.0735584
0.0779175
0.0812478
0.0835234
0.0852335
0.0863599
0.087195
0.0877207
0.0881048
0.0883309
0.0884931
0.0885781
0.0886389
0.0886662
0.0886872
0.0886885
0.0318441
0.044078
0.0545001
0.0625558
0.0690267
0.0738025
0.0775547
0.0802489
0.0823459
0.0838223
0.0849683
0.0857614
0.0863771
0.0867947
0.0871181
0.08733
0.0874924
0.0875921
0.0876618
0.0876834
0.0274081
0.0394662
0.0498688
0.0580938
0.06483
0.0699545
0.0740701
0.0771353
0.0795795
0.0813772
0.0828098
0.0838541
0.0846873
0.0852876
0.0857641
0.0860985
0.0863581
0.086528
0.0866442
0.0866861
0.0234587
0.0353227
0.0456701
0.0540092
0.0609535
0.0663678
0.0707954
0.0741875
0.0769422
0.0790328
0.0807286
0.0820073
0.0830437
0.0838172
0.0844387
0.0848903
0.0852425
0.0854798
0.0856403
0.0857023
0.0199428
0.0316016
0.0418669
0.0502767
0.0573814
0.0630354
0.0677296
0.0714084
0.07444
0.0767961
0.0787326
0.0802285
0.0814541
0.0823905
0.0831485
0.0837116
0.0841515
0.0844532
0.0846559
0.0847375
0.0168134
0.028262
0.0384257
0.0468724
0.054098
0.0599492
0.0648703
0.0687995
0.0720768
0.0746724
0.0768282
0.0785242
0.0799251
0.081014
0.0818999
0.0825683
0.0830911
0.0834539
0.0836963
0.083797
0.0140291
0.0252675
0.0353165
0.0437741
0.0510881
0.0571005
0.0622138
0.0663608
0.0698554
0.0726662
0.0750207
0.0769003
0.0784628
0.0796935
0.0806987
0.0814661
0.0820665
0.082487
0.0827668
0.0828857
0.0115539
0.0225857
0.0325122
0.0409611
0.0483372
0.0544803
0.0597555
0.0640915
0.0677774
0.0707806
0.0733146
0.0753617
0.0770725
0.0784343
0.0795502
0.0804099
0.0810828
0.0815574
0.0818722
0.0820085
0.00935636
0.020188
0.0299887
0.0384142
0.0458313
0.0520798
0.0574906
0.0619899
0.0658437
0.0690183
0.0717135
0.0739126
0.0757587
0.0772411
0.0784591
0.0794045
0.0801447
0.0806696
0.0810171
0.0811698
0.00740888
0.0180493
0.0277243
0.0361162
0.0435575
0.0498902
0.0554141
0.0600539
0.0640542
0.0673808
0.0702202
0.0725565
0.0745256
0.0761182
0.0774299
0.0784541
0.0792564
0.079828
0.0802057
0.0803737
0.00568759
0.0161477
0.0256997
0.0340511
0.0415038
0.047903
0.0535206
0.058281
0.0624087
0.0658693
0.068837
0.0712965
0.0733765
0.0750692
0.0764663
0.0775628
0.078422
0.0790365
0.0794419
0.0796241
0.00417177
0.0144636
0.0238979
0.0322048
0.0396591
0.0461103
0.0518051
0.0566683
0.0609062
0.0644845
0.0675656
0.0701351
0.0723145
0.0740976
0.0755719
0.0767341
0.077645
0.0782986
0.0787294
0.0789246
0.00284348
0.0129804
0.0223038
0.0305644
0.0380134
0.0445046
0.0502627
0.0552131
0.0595458
0.0632268
0.0664075
0.0690744
0.0713423
0.0732061
0.0747497
0.0759711
0.0769287
0.0776176
0.0780713
0.0782784
0.00168733
0.0116834
0.0209041
0.0291187
0.0365575
0.0430792
0.0488886
0.0539127
0.0583262
0.0620961
0.0653636
0.068116
0.0704619
0.0723974
0.0740026
0.0752766
0.0762759
0.0769966
0.0774708
0.0776885
0.000690108
0.01056
0.0196872
0.0278577
0.0352834
0.0418278
0.0476786
0.0527642
0.0572462
0.0610923
0.0644346
0.0672613
0.0696752
0.0716735
0.0733328
0.0746533
0.0756894
0.076438
0.0769303
0.0771575
-0.000159354
0.00959944
0.0186432
0.0267728
0.0341839
0.040745
0.0466288
0.0517653
0.0563046
0.0602152
0.0636211
0.0665115
0.0689839
0.0710364
0.0727424
0.0741033
0.0751713
0.0759443
0.0764524
0.0766878
-0.000870441
0.00879257
0.0177637
0.0258563
0.0332529
0.039826
0.0457356
0.0509136
0.0555
0.0594643
0.0629235
0.0658675
0.0683891
0.0704875
0.0722333
0.0736285
0.0747237
0.0755174
0.0760389
0.0762815
-0.00145091
0.00813181
0.0170414
0.0251022
0.0324849
0.0390665
0.0449959
0.050207
0.0548313
0.0588393
0.0623419
0.0653298
0.0678919
0.0700283
0.0718068
0.0732304
0.0743481
0.0751591
0.0756918
0.0759402
-0.00190707
0.00761101
0.0164705
0.0245051
0.0318758
0.0384631
0.0444073
0.049644
0.0542977
0.0583399
0.0618765
0.0648991
0.0674933
0.0696596
0.0714642
0.0729104
0.074046
0.0748708
0.0754123
0.0756655
-0.00224389
0.00722532
0.0160465
0.0240611
0.0314219
0.038013
0.0439677
0.0492229
0.0538982
0.0579656
0.0615275
0.0645758
0.0671937
0.0693825
0.0712064
0.0726695
0.0738185
0.0746535
0.0752017
0.0754584
-0.00246513
0.0069712
0.0157658
0.0237669
0.0311206
0.0377141
0.0436753
0.0489429
0.0536321
0.0577163
0.0612947
0.0643601
0.0669938
0.0691974
0.0710341
0.0725085
0.0736664
0.0745083
0.0750609
0.0753199
-0.0025742
0.00684634
0.0156255
0.023621
0.0309698
0.0375655
0.043529
0.0488034
0.0534989
0.0575919
0.0611781
0.0642524
0.0668936
0.0691049
0.0709478
0.0724281
0.0735902
0.0744356
0.0749903
0.0752507
0.0909446
0.0818388
0.0721764
0.0628338
0.0542627
0.0465473
0.039653
0.0335153
0.0280663
0.0232372
0.0189612
0.0151761
0.011826
0.00886129
0.00623849
0.00391955
0.00187137
6.51666e-05
-0.00152399
-0.00291765
-0.00413435
-0.00518999
-0.00609811
-0.00687015
-0.00751565
-0.00804241
-0.00845665
-0.00876347
-0.00896598
-0.00906198
0.080677
0.0710285
0.0619343
0.0533762
0.0456192
0.0386463
0.0324047
0.0268417
0.0219026
0.017527
0.0136536
0.0102254
0.00719079
0.00450448
0.00212682
2.32746e-05
-0.00183616
-0.00347753
-0.00492337
-0.00619312
-0.00730353
-0.00826895
-0.00910161
-0.00981186
-0.0104083
-0.010898
-0.0112864
-0.0115784
-0.0117762
-0.0118728
0.0688383
0.0577765
0.0488527
0.0409426
0.0340842
0.0280626
0.0227496
0.0180547
0.0139071
0.0102418
0.00700014
0.00412983
0.00158576
-0.000670883
-0.00267339
-0.00445034
-0.00602631
-0.00742243
-0.00865689
-0.00974532
-0.0107012
-0.0115359
-0.0122594
-0.0128799
-0.0134044
-0.0138385
-0.0141866
-0.0144524
-0.0146386
-0.0147351
0.0581924
0.0471571
0.0386713
0.0311802
0.0248571
0.0194149
0.0147005
0.0105931
0.00700058
0.00384725
0.00107083
-0.00138038
-0.00354938
-0.00547207
-0.00717852
-0.00869408
-0.0100402
-0.011235
-0.012294
-0.0132303
-0.0140553
-0.0147785
-0.015408
-0.0159508
-0.0164125
-0.0167979
-0.0171103
-0.0173529
-0.0175296
-0.0176308
0.047407
0.0374791
0.0301608
0.0233825
0.0176293
0.0126462
0.00834082
0.00460876
0.0013627
-0.00147183
-0.00395619
-0.0061408
-0.00806719
-0.00976976
-0.0112772
-0.0126135
-0.0137987
-0.01485
-0.0157815
-0.0166055
-0.0173323
-0.0179705
-0.0185275
-0.0190096
-0.0194219
-0.0197686
-0.0200528
-0.020277
-0.0204468
-0.0205552
0.0360296
0.0271746
0.0211682
0.0153527
0.0104102
0.0060484
0.00224376
-0.00107565
-0.00397219
-0.00650458
-0.00872383
-0.0106735
-0.0123901
-0.0139048
-0.0152434
-0.016428
-0.0174771
-0.0184064
-0.0192292
-0.0199568
-0.0205987
-0.0211629
-0.0216565
-0.022085
-0.0224533
-0.0227654
-0.023024
-0.0232312
-0.0233937
-0.0235085
0.0245425
0.0165624
0.0115568
0.00659238
0.00248634
-0.0011636
-0.00435743
-0.00716241
-0.00962413
-0.0117862
-0.0136872
-0.015361
-0.016837
-0.0181404
-0.0192931
-0.0203133
-0.0212171
-0.0220178
-0.0227271
-0.0233547
-0.0239091
-0.0243975
-0.0248258
-0.0251993
-0.0255223
-0.0257983
-0.02603
-0.0262189
-0.0263717
-0.0264906
0.0131935
0.00615267
0.00197536
-0.00229702
-0.0056944
-0.00869891
-0.011298
-0.0135744
-0.015572
-0.0173291
-0.0188772
-0.0202434
-0.0214506
-0.0225188
-0.023465
-0.024304
-0.0250484
-0.025709
-0.0262953
-0.0268153
-0.0272759
-0.027683
-0.0280417
-0.0283564
-0.0286307
-0.0288678
-0.0290701
-0.0292382
-0.0293788
-0.0294991
0.00193685
-0.00404432
-0.00735959
-0.0109419
-0.0136958
-0.0161312
-0.018202
-0.0199987
-0.0215634
-0.0229336
-0.0241378
-0.0251993
-0.0261371
-0.0269673
-0.0277034
-0.0283569
-0.0289377
-0.0294542
-0.0299138
-0.0303226
-0.0306862
-0.0310092
-0.0312957
-0.0315492
-0.0317726
-0.0319687
-0.0321394
-0.0322849
-0.032411
-0.0325303
-0.00926492
-0.0141615
-0.0165726
-0.0193979
-0.0214861
-0.0233615
-0.0249342
-0.026289
-0.0274574
-0.0284719
-0.0293573
-0.0301337
-0.0308169
-0.0314202
-0.0319543
-0.0324282
-0.0328494
-0.0332245
-0.033559
-0.0338577
-0.0341247
-0.0343636
-0.0345776
-0.0347692
-0.0349409
-0.0350948
-0.0352327
-0.0353543
-0.0354642
-0.0355803
-0.020373
-0.0242215
-0.0257477
-0.0277914
-0.0291901
-0.0304864
-0.0315562
-0.0324764
-0.0332625
-0.0339382
-0.0345217
-0.0350284
-0.0354705
-0.0358581
-0.0361994
-0.0365009
-0.0367685
-0.0370066
-0.0372195
-0.0374105
-0.0375827
-0.0377386
-0.0378805
-0.0380105
-0.0381303
-0.0382415
-0.0383458
-0.0384425
-0.0385347
-0.0386454
-0.0313431
-0.0341819
-0.0348547
-0.0361383
-0.0368619
-0.0375793
-0.0381434
-0.0386278
-0.0390331
-0.0393736
-0.0396606
-0.0399037
-0.0401111
-0.040289
-0.0404428
-0.0405768
-0.0406944
-0.0407989
-0.0408926
-0.0409778
-0.0410565
-0.0411304
-0.0412008
-0.0412693
-0.041337
-0.0414051
-0.041475
-0.0415458
-0.0416191
-0.0417222
-0.0421627
-0.0440138
-0.0438417
-0.044396
-0.0444748
-0.0446351
-0.0447068
-0.0447647
-0.0447936
-0.0448014
-0.0447939
-0.044776
-0.0447511
-0.044722
-0.0446909
-0.0446595
-0.0446293
-0.0446017
-0.0445776
-0.0445581
-0.0445441
-0.0445363
-0.0445355
-0.0445424
-0.0445577
-0.0445821
-0.0446169
-0.0446608
-0.0447137
-0.0448074
-0.0528407
-0.0537111
-0.0526847
-0.0525374
-0.0519934
-0.0516224
-0.0512205
-0.0508715
-0.0505348
-0.0502167
-0.0499199
-0.0496447
-0.0493906
-0.049157
-0.048943
-0.048748
-0.0485715
-0.0484129
-0.048272
-0.0481485
-0.0480422
-0.047953
-0.047881
-0.0478261
-0.0477887
-0.0477688
-0.0477677
-0.0477839
-0.0478151
-0.0478976
-0.0633931
-0.0632525
-0.0613775
-0.0605559
-0.0594035
-0.058524
-0.057662
-0.0569307
-0.0562398
-0.0556052
-0.0550267
-0.0545003
-0.0540217
-0.0535872
-0.0531933
-0.0528371
-0.052516
-0.052228
-0.0519714
-0.0517446
-0.0515465
-0.0513763
-0.051233
-0.0511164
-0.0510259
-0.0509613
-0.0509235
-0.0509113
-0.0509194
-0.0509893
-0.073833
-0.0725714
-0.069926
-0.0684446
-0.0667074
-0.0653392
-0.0640252
-0.0629348
-0.0618969
-0.0609549
-0.0601032
-0.0593327
-0.0586356
-0.0580049
-0.0574348
-0.0569203
-0.056457
-0.0560413
-0.0556703
-0.0553413
-0.0550522
-0.0548014
-0.0545872
-0.0544087
-0.0542651
-0.0541555
-0.0540804
-0.0540395
-0.0540231
-0.0540787
-0.0841125
-0.0815662
-0.0783633
-0.0761851
-0.0739203
-0.0720729
-0.0703231
-0.0688789
-0.0674978
-0.0662585
-0.0651427
-0.0641355
-0.0632258
-0.0624039
-0.0616616
-0.0609919
-0.0603889
-0.0598476
-0.0593637
-0.0589337
-0.0585545
-0.0582236
-0.057939
-0.0576989
-0.057502
-0.0573472
-0.0572342
-0.0571645
-0.0571229
-0.0571618
-0.0941461
-0.0904652
-0.0867566
-0.083862
-0.0811109
-0.0787728
-0.0766304
-0.0747416
-0.0730292
-0.0715079
-0.0701392
-0.0689038
-0.0677881
-0.06678
-0.0658694
-0.0650477
-0.0643076
-0.0636426
-0.0630474
-0.0625176
-0.0620491
-0.0616389
-0.0612841
-0.0609825
-0.0607325
-0.0605324
-0.0603812
-0.0602817
-0.0602165
-0.0602336
-0.103799
-0.0992659
-0.0950228
-0.0914692
-0.0882256
-0.0854098
-0.0828733
-0.0805939
-0.0785588
-0.0767518
-0.0751281
-0.0736638
-0.0723418
-0.0711477
-0.0700692
-0.0690958
-0.0682186
-0.0674301
-0.0667238
-0.0660941
-0.0655363
-0.0650466
-0.0646214
-0.0642581
-0.0639545
-0.0637086
-0.0635191
-0.0633872
-0.0633026
-0.0632906
-0.113122
-0.107913
-0.103119
-0.0989631
-0.0952293
-0.0919596
-0.0890352
-0.0864123
-0.0840691
-0.0819793
-0.080101
-0.0784083
-0.0768809
-0.0755017
-0.074256
-0.0731316
-0.0721181
-0.0712067
-0.0703896
-0.0696605
-0.0690137
-0.0684446
-0.0679492
-0.0675243
-0.0671671
-0.0668755
-0.0666475
-0.0664834
-0.0663776
-0.0663431
-0.122218
-0.11641
-0.111037
-0.106316
-0.102107
-0.0984114
-0.0951142
-0.0921651
-0.0895254
-0.087162
-0.0850356
-0.0831191
-0.0813899
-0.0798283
-0.0784179
-0.0771445
-0.0759964
-0.0749634
-0.0740368
-0.0732092
-0.0724742
-0.0718265
-0.0712615
-0.0707754
-0.070365
-0.0700278
-0.0697617
-0.069566
-0.0694369
-0.0693865
-0.131155
-0.124769
-0.118786
-0.113522
-0.108861
-0.104763
-0.101107
-0.0978389
-0.0949101
-0.0922826
-0.0899163
-0.0877826
-0.0858567
-0.0841169
-0.082545
-0.0811254
-0.0798449
-0.0786922
-0.0776576
-0.0767328
-0.0759108
-0.0751854
-0.0745515
-0.0740048
-0.0735419
-0.0731596
-0.0728557
-0.0726291
-0.0724756
-0.07241
-0.139948
-0.132968
-0.126376
-0.120593
-0.115504
-0.11102
-0.107018
-0.103436
-0.100224
-0.0973398
-0.0947406
-0.0923956
-0.0902777
-0.0883635
-0.0866332
-0.0850699
-0.0836592
-0.0823886
-0.0812476
-0.0802269
-0.0793189
-0.0785167
-0.0778148
-0.0772083
-0.0766933
-0.0762665
-0.0759253
-0.0756681
-0.0754903
-0.0754075
-0.148566
-0.140998
-0.133819
-0.127545
-0.122046
-0.117189
-0.11285
-0.108963
-0.105474
-0.102338
-0.0995114
-0.0969594
-0.0946532
-0.0925676
-0.0906814
-0.0889765
-0.0874373
-0.0860503
-0.0848041
-0.0836887
-0.0826956
-0.0818176
-0.0810484
-0.0803828
-0.0798164
-0.0793456
-0.0789675
-0.0786804
-0.0784786
-0.0783772
-0.156986
-0.148865
-0.141123
-0.134382
-0.12849
-0.123273
-0.118606
-0.114421
-0.110663
-0.107281
-0.10423
-0.101475
-0.0989828
-0.0967282
-0.0946883
-0.0928435
-0.0911773
-0.0896752
-0.0883249
-0.0871157
-0.0860385
-0.0850854
-0.0842497
-0.0835256
-0.0829084
-0.0823942
-0.0819799
-0.0816634
-0.0814384
-0.0813182