/*--------------------------------*- C++ -*----------------------------------*\
  =========                 |
  \\      /  F ield         | OpenFOAM: The Open Source CFD Toolbox
   \\    /   O peration     | Website:  https://openfoam.org
    \\  /    A nd           | Version:  7
     \\/     M anipulation  |
\*---------------------------------------------------------------------------*/
FoamFile
{
    version     2.0;
    format      ascii;
    class       surfaceScalarField;
    location    "20.001";
    object      phi;
}
// * * * * * * * * * * * * * * * * * * * * * * * * * * * * * * * * * * * * * //

dimensions      [0 3 -1 0 0 0 0];

internalField   nonuniform List<scalar> 
7248
(
-0.000159513
0.000159513
-0.000436063
0.00027655
-0.000744234
0.000308171
-0.00105725
0.000313014
-0.00137236
0.000315114
-0.00169142
0.000319057
-0.00201627
0.000324852
-0.00234852
0.000332253
-0.00268963
0.000341107
-0.00304092
0.000351288
-0.00340364
0.000362719
-0.00377898
0.000375337
-0.00416798
0.000389002
-0.0045715
0.000403525
0.000419217
-0.00499072
-0.000158818
0.000318331
-0.000434567
0.000552298
-0.000742072
0.000615676
-0.00105451
0.00062545
-0.00136907
0.000629673
-0.00168758
0.000637568
-0.00201189
0.000649163
-0.0023436
0.000663966
-0.00268417
0.000681674
-0.00303491
0.000702033
-0.00339709
0.00072489
-0.00377187
0.000750119
-0.00416031
0.000777446
-0.00456328
0.000806493
0.000837863
-0.00498193
-0.000157429
0.000475761
-0.000431574
0.000826443
-0.000737748
0.00092185
-0.00104903
0.000936727
-0.00136248
0.000943126
-0.0016799
0.000954989
-0.00200313
0.000972393
-0.00233376
0.000994601
-0.00267325
0.00102116
-0.00302291
0.00105169
-0.00338398
0.00108596
-0.00375765
0.00112379
-0.00414498
0.00116477
-0.00454683
0.00120835
0.00125536
-0.00496433
-0.000155349
0.000631109
-0.000427086
0.00109818
-0.000731263
0.00122603
-0.0010408
0.00124627
-0.0013526
0.00125492
-0.00166839
0.00127078
-0.00198999
0.001294
-0.00231901
0.00132362
-0.00265688
0.00135903
-0.00300491
0.00139972
-0.00336434
0.00144539
-0.00373635
0.0014958
-0.004122
0.00155042
-0.00452217
0.00160852
0.00167113
-0.00493794
-0.000152579
0.000783688
-0.000421106
0.00136671
-0.000722618
0.00152754
-0.00102985
0.0015535
-0.00133943
0.0015645
-0.00165305
0.00158439
-0.0019725
0.00161346
-0.00229937
0.00165049
-0.00263508
0.00169474
-0.00298094
0.00174558
-0.00333817
0.00180263
-0.00370796
0.00186558
-0.00409137
0.00193384
-0.0044893
0.00200645
0.00208458
-0.00490275
-0.000149125
0.000932813
-0.000413638
0.00163122
-0.000711817
0.00182572
-0.00101616
0.00185784
-0.00132299
0.00187133
-0.00163389
0.00189529
-0.00195065
0.00193022
-0.00227483
0.00197467
-0.00260785
0.00202776
-0.002951
0.00208873
-0.0033055
0.00215712
-0.00367251
0.00223259
-0.00405312
0.00231445
-0.00444823
0.00240156
0.00249512
-0.00485876
-0.000144991
0.0010778
-0.000404685
0.00189092
-0.000698861
0.00211989
-0.000999743
0.00215872
-0.00130328
0.00217487
-0.00161093
0.00220294
-0.00192447
0.00224376
-0.00224544
0.00229564
-0.00257523
0.00235755
-0.00291513
0.00242863
-0.00326635
0.00250833
-0.00363003
0.00259627
-0.00400727
0.00269169
-0.00439899
0.00279327
0.00290214
-0.00480601
-0.000140185
0.00121799
-0.000394254
0.00214498
-0.000683755
0.00240939
-0.000980605
0.00245557
-0.0012803
0.00247456
-0.00158418
0.00250682
-0.00189397
0.00255355
-0.0022112
0.00261287
-0.00253724
0.0026836
-0.00287336
0.00276475
-0.00322075
0.00285572
-0.00358055
0.00295607
-0.00395386
0.00306501
-0.00434161
0.00318102
0.00330506
-0.00474453
-0.000134715
0.0013527
-0.00038235
0.00239262
-0.000666502
0.00269355
-0.000958751
0.00274782
-0.00125408
0.00276989
-0.00155366
0.0028064
-0.00185918
0.00285908
-0.00217215
0.00292584
-0.00249392
0.00300536
-0.00282572
0.00309656
-0.00316874
0.00319874
-0.00352411
0.00331144
-0.00389294
0.00343384
-0.00427615
0.00356424
0.00370329
-0.00467438
-0.00012859
0.00148129
-0.000368983
0.00263301
-0.000647108
0.00297167
-0.000934189
0.0030349
-0.00122462
0.00306032
-0.00151939
0.00310116
-0.00182013
0.00315982
-0.00212832
0.00323403
-0.00244529
0.00332233
-0.00277226
0.00342353
-0.00311037
0.00353685
-0.00346077
0.00366183
-0.00382456
0.00379763
-0.00420267
0.00394234
0.00409623
-0.00459561
-0.000121823
0.00160312
-0.000354162
0.00286535
-0.000625579
0.00324309
-0.000906928
0.00331625
-0.00119195
0.00334535
-0.00148139
0.0033906
-0.00177684
0.00345528
-0.00207975
0.00353693
-0.00239141
0.00363398
-0.00271301
0.00374513
-0.00304569
0.00386954
-0.00339057
0.00400671
-0.00374877
0.00415583
-0.00412122
0.0043148
0.00448332
-0.00450832
-0.000114426
0.00171754
-0.000337899
0.00308882
-0.000601923
0.00350711
-0.000876978
0.00359131
-0.00115607
0.00362444
-0.00143969
0.00367422
-0.00172936
0.00374495
-0.00202648
0.00383405
-0.00233232
0.00393982
-0.00264805
0.00406086
-0.00297476
0.00419625
-0.00331358
0.00434552
-0.00366564
0.0045079
-0.0040319
0.00468105
0.00486402
-0.00441259
-0.000106416
0.00182396
-0.00032021
0.00330262
-0.00057615
0.00376305
-0.000844351
0.00385951
-0.00111702
0.00389711
-0.00139432
0.00395152
-0.00167771
0.00402834
-0.00196855
0.00412489
-0.00226807
0.00423934
-0.00257742
0.00437021
-0.00289765
0.00451648
-0.00322985
0.00467773
-0.00357525
0.00485329
-0.00393478
0.00504059
0.00523778
-0.00430854
-9.78133e-05
0.00192177
-0.000301112
0.00350592
-0.000548268
0.00401021
-0.000809058
0.0041203
-0.0010748
0.00416285
-0.00134531
0.00422203
-0.00162195
0.00430498
-0.00190602
0.00440897
-0.00219874
0.00453206
-0.0025012
0.00467267
-0.00281443
0.00482971
-0.00313948
0.00500278
-0.00347765
0.00519146
-0.00382997
0.00539291
0.0056041
-0.0041963
-8.864e-05
0.00201041
-0.000280625
0.0036979
-0.000518293
0.00424788
-0.000771113
0.00437312
-0.00102945
0.00442119
-0.00129269
0.00448527
-0.00156211
0.00457439
-0.00183895
0.00468581
-0.00212438
0.00481749
-0.00241947
0.00496776
-0.00272518
0.00513541
-0.00304251
0.00532011
-0.00337287
0.00552181
-0.00371752
0.00573756
0.0059626
-0.00407602
-7.89245e-05
0.00208934
-0.000258776
0.00387775
-0.000486238
0.00447534
-0.000730533
0.00461741
-0.000980987
0.00467164
-0.00123652
0.0047408
-0.00149825
0.00483613
-0.00176741
0.00495496
-0.00204508
0.00509517
-0.00233233
0.00525501
-0.00263005
0.00543314
-0.00293912
0.00562918
-0.00326104
0.00584373
-0.00359761
0.00607412
0.00631296
-0.00394797
-6.87027e-05
0.00215804
-0.000235592
0.00404464
-0.000452122
0.00469187
-0.000687336
0.00485263
-0.000929442
0.00491375
-0.00117681
0.00498817
-0.00143044
0.00508975
-0.00169145
0.00521598
-0.00196091
0.00536463
-0.00223983
0.00553393
-0.00252907
0.00572238
-0.00282928
0.00592939
-0.00314186
0.00615631
-0.00346974
0.00640201
0.00665545
-0.00381223
-5.80134e-05
0.00221605
-0.000211106
0.00419773
-0.000415965
0.00489673
-0.00064154
0.0050782
-0.000874847
0.00514705
-0.00111363
0.00522696
-0.00135871
0.00533483
-0.00161116
0.00546842
-0.00187197
0.00562543
-0.00214212
0.00580408
-0.00242253
0.00600279
-0.00271365
0.00622051
-0.00301633
0.00645899
-0.00333477
0.00672045
0.00699091
-0.00367023
-4.68481e-05
0.0022629
-0.000185353
0.00433624
-0.000377793
0.00508917
-0.000593171
0.00529358
-0.000817233
0.00537111
-0.00104703
0.00545675
-0.00128316
0.00557096
-0.00152662
0.00571189
-0.00177834
0.00587716
-0.00203925
0.00606499
-0.00231025
0.00627379
-0.00259166
0.00650192
-0.00288284
0.00675017
-0.0031879
0.00702551
0.00732316
-0.00352015
-3.52446e-05
0.00229815
-0.000158379
0.00445937
-0.000337634
0.00526842
-0.000542254
0.0054982
-0.000756639
0.0055855
-0.000977043
0.00567716
-0.00120383
0.00579775
-0.00143792
0.00594597
-0.00168016
0.0061194
-0.00193141
0.00631624
-0.00219263
0.00653501
-0.00246465
0.00677394
-0.00274668
0.0070322
-0.00303687
0.0073157
0.00765872
-0.00337243
-2.32394e-05
0.00232139
-0.000130231
0.00456637
-0.00029552
0.00543371
-0.000488824
0.0056915
-0.000693105
0.00578978
-0.000903738
0.00588779
-0.0011208
0.00601481
-0.00134514
0.00617031
-0.00157753
0.0063518
-0.00181875
0.00655745
-0.00206966
0.00678593
-0.00233122
0.00703551
-0.00260386
0.00730483
-0.00288841
0.00760025
0.00793294
-0.00316263
-1.08241e-05
0.00233221
-0.000100951
0.00465649
-0.000251492
0.00558425
-0.000432926
0.00587294
-0.000626677
0.00598353
-0.000827172
0.00608828
-0.00103416
0.0062218
-0.00124838
0.00638452
-0.00147056
0.00657398
-0.00170138
0.00678827
-0.00194155
0.0070261
-0.00219199
0.00728594
-0.00245314
0.00756599
-0.00272307
0.00787018
0.00821292
-0.00300305
2.06949e-06
0.00233014
-7.05366e-05
0.0047291
-0.000205599
0.00571931
-0.000374621
0.00604196
-0.000557402
0.00616631
-0.000747407
0.00627829
-0.000943986
0.00641838
-0.00114774
0.00658828
-0.00135936
0.0067856
-0.00157945
0.00700836
-0.00180862
0.00725528
-0.00204773
0.00752505
-0.00229784
0.00781609
-0.00255924
0.00813158
0.00848129
-0.0028276
1.42913e-05
0.00231585
-3.87907e-05
0.00478218
-0.000157958
0.00583848
-0.000313991
0.00619799
-0.000485334
0.00633766
-0.000664512
0.00645747
-0.000850359
0.00660423
-0.00104333
0.00678125
-0.00124406
0.00698632
-0.00145312
0.00721742
-0.00167108
0.00747324
-0.00189879
0.00775275
-0.00213748
0.00805479
-0.00238737
0.00838148
0.00873889
-0.00264498
2.6798e-05
0.00228905
-3.84282e-06
0.00481282
-0.000108856
0.00594349
-0.000251087
0.00634022
-0.000410527
0.0064971
-0.00057856
0.0066255
-0.000753369
0.00677904
-0.000935251
0.00696313
-0.00112478
0.00717585
-0.00132252
0.00741515
-0.001529
0.00767973
-0.00174506
0.00796881
-0.00197187
0.0082816
-0.00220936
0.00861897
0.00898414
-0.0024546
3.88448e-05
0.00225021
2.57808e-05
0.00482589
-5.90037e-05
0.00602828
-0.000185975
0.0064672
-0.000333073
0.0066442
-0.000489632
0.00678206
-0.00065311
0.00694252
-0.000823612
0.00713364
-0.00100165
0.0073539
-0.00118776
0.00760125
-0.00138246
0.00787443
-0.00158653
0.00817288
-0.00180105
0.00849611
-0.002026
0.00884392
0.00921686
-0.00225872
5.0696e-05
0.00219951
5.73664e-05
0.00481922
-6.85513e-06
0.0060925
-0.000118814
0.00657915
-0.000253069
0.00677845
-0.000397812
0.0069268
-0.000549673
0.00709438
-0.000708523
0.00729249
-0.000874795
0.00752017
-0.00104897
0.00777543
-0.00123157
0.00805703
-0.0014233
0.00836461
-0.00162512
0.00869793
-0.0018371
0.0090559
0.00943697
-0.00205721
6.23379e-05
0.00213717
8.97643e-05
0.00479179
4.55478e-05
0.00613672
-4.98391e-05
0.00667454
-0.000170572
0.00689918
-0.00030319
0.00705942
-0.00044316
0.00723435
-0.0005901
0.00743943
-0.000744333
0.0076744
-0.000906297
0.00793739
-0.00107648
0.00822722
-0.00125553
0.00854365
-0.00144425
0.00888666
-0.00164274
0.00925439
0.00964379
-0.00184957
7.35578e-05
0.00206361
0.000122329
0.00474302
9.93039e-05
0.00615974
2.09744e-05
0.00675287
-8.57377e-05
0.0070059
-0.000205862
0.00717954
-0.000333667
0.00736215
-0.000468463
0.00757422
-0.000610404
0.00781634
-0.000759884
0.00808687
-0.000917353
0.00838469
-0.00108337
0.00870967
-0.00125865
0.00906193
-0.00144323
0.00943897
0.00983664
-0.00163608
8.41488e-05
0.00197947
0.000154724
0.00467244
0.000153868
0.0061606
9.34943e-05
0.00681324
2.37956e-08
0.00709937
-0.000105949
0.00728552
-0.00022133
0.00747753
-0.000343746
0.00769664
-0.000473151
0.00794575
-0.000609889
0.00822361
-0.000754356
0.00852915
-0.000907028
0.00886235
-0.00106852
0.00922342
-0.00123887
0.00960932
0.010015
-0.00141725
9.39294e-05
0.00188554
0.000186611
0.00457976
0.000208878
0.00613833
0.000167726
0.0068544
9.06535e-05
0.00717644
-4.1198e-06
0.00738029
-0.000106304
0.00757972
-0.000216101
0.00780644
-0.000332724
0.00806237
-0.000456482
0.00834737
-0.000587677
0.00866035
-0.000726683
0.00900135
-0.000874059
0.0093708
-0.00102991
0.00976517
0.0101786
-0.00119347
0.000102723
0.00178281
0.000217611
0.00446487
0.00026399
0.00609195
0.000243081
0.00687531
0.000181983
0.00723754
0.000101665
0.00746061
1.10048e-05
0.00767038
-8.57134e-05
0.00790315
-0.000189305
0.00816596
-0.000299842
0.00845791
-0.00041752
0.00877803
-0.000542567
0.0091264
-0.00067551
0.00950374
-0.000816639
0.0099063
0.010327
-0.000965031
0.000110353
0.00167246
0.000247314
0.00432791
0.000318766
0.0060205
0.000319267
0.0068748
0.000275096
0.00728171
0.000208922
0.00752678
0.000131927
0.00774737
4.74701e-05
0.00798761
-4.32188e-05
0.00825665
-0.000140183
0.00855487
-0.000244119
0.00888196
-0.000354936
0.00923721
-0.000473112
0.00962192
-0.000599354
0.0100325
0.0104599
-0.000732273
0.000116654
0.00155581
0.000275286
0.00416928
0.000372714
0.00592307
0.00039593
0.00685159
0.000369703
0.00730793
0.000318222
0.00757826
0.000254594
0.007811
0.000183479
0.00805873
0.00010597
0.00833416
2.2122e-05
0.00863872
-6.77449e-05
0.00897183
-0.000164131
0.0093336
-0.000267202
0.00972499
-0.000378254
0.0101436
0.0105772
-0.000495579
0.00012148
0.00143433
0.000301067
0.00398969
0.000425274
0.00579886
0.000472604
0.00680426
0.00046547
0.00731507
0.00042937
0.00761436
0.000379423
0.00786095
0.000321613
0.00811654
0.000257597
0.00839818
0.000187698
0.00870862
0.000111688
0.00904784
2.94363e-05
0.00941585
-5.85408e-05
0.00981296
-0.000153023
0.0102381
0.0106799
-0.000255699
0.000124717
0.00130961
0.000324172
0.00379024
0.000475806
0.00564723
0.000548722
0.00673134
0.000562003
0.00730179
0.000542102
0.00763426
0.000506239
0.00789681
0.000461893
0.00816088
0.000411431
0.00844864
0.000355385
0.00876466
0.000293763
0.00910946
0.000226569
0.00948305
0.000153755
0.00988578
7.5248e-05
0.0103166
0.0107704
-1.52938e-05
0.000126287
0.00118332
0.000344103
0.00357242
0.000523581
0.00546775
0.000623605
0.00663132
0.000658814
0.00726658
0.000656099
0.00763698
0.000634807
0.0079181
0.000604142
0.00819155
0.00056734
0.00848544
0.000525269
0.00880674
0.000478092
0.00915664
0.000425791
0.00953535
0.00036841
0.00994316
0.000305313
0.0103797
0.0108386
0.000237147
0.00012616
0.00105716
0.0003603
0.00333828
0.000567782
0.00526027
0.000696453
0.00650265
0.000755294
0.00720774
0.000770962
0.00762131
0.000764858
0.00792421
0.000748139
0.00820827
0.000725122
0.00850846
0.000697121
0.00883474
0.000664465
0.0091893
0.00062721
0.0095726
0.000585464
0.00998491
0.000539213
0.0104259
0.0108894
0.000488369
0.000124361
0.000932801
0.000372236
0.00309041
0.000607519
0.00502499
0.000766326
0.00634384
0.000850692
0.00712337
0.00088619
0.00758581
0.000896068
0.00791433
0.000893639
0.0082107
0.000884547
0.00851755
0.000870694
0.00884859
0.000852638
0.00920735
0.000830553
0.00959469
0.000804613
0.0100108
0.000774837
0.0104557
0.0109234
0.000740911
0.000120977
0.000811824
0.000379509
0.00283187
0.000641847
0.00476265
0.000832135
0.00615355
0.000944094
0.00701141
0.00100115
0.00752876
0.00102804
0.00788744
0.00104036
0.00819837
0.00104537
0.00851254
0.00104574
0.00884822
0.00104233
0.00921075
0.00103547
0.00960155
0.00102534
0.010021
0.00101184
0.0104692
0.0109404
0.000994769
0.000116142
0.000695682
0.000381801
0.00256622
0.000669776
0.00447467
0.000892632
0.0059307
0.00103439
0.00686966
0.00111504
0.0074481
0.00116025
0.00784223
0.00118796
0.00817066
0.00120731
0.00849319
0.00122198
0.00883355
0.00123326
0.00919947
0.00124162
0.0095932
0.00124729
0.0100153
0.00125009
0.0104664
0.0109409
0.0012496
0.00011004
0.000585642
0.00037893
0.00229732
0.000690307
0.0041633
0.000946416
0.00567459
0.00112024
0.00669584
0.00122686
0.00734148
0.00129205
0.00777704
0.00133603
0.00812668
0.00137008
0.00845915
0.00139916
0.00880447
0.00142514
0.00917348
0.0014487
0.00956964
0.00147018
0.00999383
0.0014894
0.0104472
0.0109247
0.00150559
0.00010289
0.000482752
0.00037089
0.00202933
0.000702482
0.0038317
0.000991944
0.00538513
0.00120007
0.00648771
0.00133534
0.00720621
0.0014226
0.00768978
0.00148403
0.00806525
0.00153329
0.00840988
0.00157696
0.00876081
0.00161769
0.00913275
0.00165645
0.00953088
0.00169373
0.00995655
0.00172948
0.0104114
0.0108916
0.00176262
9.49412e-05
0.000387811
0.000357881
0.00176639
0.000705465
0.00348412
0.00102757
0.00506302
0.00127204
0.00624325
0.00143893
0.00703932
0.00155079
0.00757792
0.00163127
0.00798476
0.00169653
0.00834463
0.00175506
0.00870228
0.00181059
0.00907722
0.00186456
0.00947692
0.00191762
0.00990348
0.00196998
0.0103591
0.0108414
0.00202016
8.64522e-05
0.000301359
0.000340321
0.00151252
0.000698643
0.0031258
0.00105161
0.00471005
0.00133403
0.00596083
0.00153571
0.00683765
0.00167521
0.00743841
0.00177685
0.00788313
0.00185921
0.00826226
0.00193306
0.00862842
0.00200353
0.00900675
0.00207271
0.00940774
0.00214151
0.00983468
0.00221046
0.0102901
0.0107741
0.00227772
7.76788e-05
0.00022368
0.00031884
0.00127136
0.000681742
0.0027629
0.00106245
0.00432934
0.00138373
0.00563956
0.00162337
0.00659801
0.00179405
0.00726773
0.00191954
0.00775764
0.0020206
0.0081612
0.0021105
0.00853852
0.00219614
0.00892111
0.00228057
0.00932331
0.00236506
0.00975019
0.00245054
0.0102047
0.0106898
0.00253484
6.88553e-05
0.000154824
0.000294246
0.00104596
0.000654953
0.00240219
0.00105868
0.00392561
0.00141861
0.00527963
0.00169918
0.00631743
0.001905
0.00706192
0.00205773
0.00760491
0.00217968
0.00803925
0.00228674
0.00843145
0.00238799
0.00881986
0.00248777
0.00922353
0.00258789
0.00965008
0.00268983
0.0101027
0.0105886
0.0027911
6.0184e-05
9.46405e-05
0.000267463
0.000838686
0.000619015
0.00205064
0.00103929
0.00350534
0.00143613
0.00488279
0.00176002
0.00599354
0.00200521
0.00681673
0.00218927
0.00742085
0.00233505
0.00789347
0.00246095
0.00830555
0.00257855
0.00870227
0.00269391
0.00910817
0.00280963
0.00953435
0.00292796
0.00998438
0.0104705
0.00304608
5.18313e-05
4.28092e-05
0.000239461
0.000651056
0.000575237
0.00171486
0.00100392
0.00307666
0.00143392
0.00445278
0.00180241
0.00562505
0.00209118
0.00652796
0.00231135
0.00720068
0.00248479
0.00772003
0.00263194
0.00815839
0.00276709
0.00856713
0.0028985
0.00897675
0.0030299
0.00940295
0.00316454
0.00984975
0.0103356
0.00329936
4.39295e-05
-1.12029e-06
0.000211175
0.000483811
0.000525421
0.00140061
0.000953094
0.00264899
0.00141007
0.00399581
0.00182271
0.0052124
0.0021588
0.00619188
0.00242036
0.00693911
0.00262626
0.00751413
0.00279803
0.00798663
0.00295261
0.00841255
0.00310092
0.00882844
0.00324823
0.00925564
0.00339914
0.00969883
0.0101842
0.00355054
3.65809e-05
-3.77012e-05
0.000183429
0.000336963
0.000471694
0.00111235
0.000888399
0.00223228
0.00136352
0.00352068
0.00181741
0.00475852
0.00220338
0.00580591
0.0025118
0.0066307
0.00275591
0.00727002
0.0029568
0.00778574
0.00313364
0.0082357
0.0033003
0.00866178
0.00346405
0.00909189
0.00363134
0.00953155
0.0100164
0.00379915
2.98563e-05
-6.75575e-05
0.000156899
0.00020992
0.000416281
0.000852968
0.000812487
0.00183608
0.00129453
0.00303864
0.00178354
0.0042695
0.00221993
0.00536953
0.00258019
0.00627043
0.00286902
0.00698119
0.00310484
0.00754992
0.00330801
0.00803253
0.00349536
0.00847443
0.0036766
0.00891065
0.00386055
0.0093476
0.00983218
0.0040448
2.38071e-05
-9.13646e-05
0.000132102
0.000101626
0.000361276
0.000623793
0.00072888
0.00146847
0.001205
0.00256252
0.00171938
0.00375513
0.00220356
0.00488534
0.00261927
0.00585472
0.00295959
0.00664087
0.0032374
0.00727211
0.00347249
0.00779744
0.00368413
0.00826279
0.00388473
0.00871004
0.0040861
0.00914624
0.00963143
0.00428684
1.84637e-05
-0.000109828
0.000109404
1.06859e-05
0.000308459
0.000424738
0.000641545
0.00113539
0.00109867
0.0021054
0.00162509
0.00322871
0.00215023
0.0043602
0.0026223
0.00538265
0.00302027
0.00624291
0.00334809
0.00694429
0.00362236
0.00752318
0.00386358
0.00802157
0.00408664
0.00848698
0.00430691
0.00892596
0.00941354
0.0045248
1.38386e-05
-0.000123667
8.90458e-05
-6.45213e-05
0.000259197
0.000254586
0.000554387
0.000840198
0.000980851
0.00167893
0.00150343
0.00270613
0.00205779
0.00380584
0.00258285
0.00485758
0.00304258
0.00578319
0.00342863
0.00655823
0.00375094
0.00720087
0.00402905
0.00774347
0.00427953
0.0082365
0.00452124
0.00868424
0.00917741
0.00475738
9.92877e-06
-0.000133596
7.11581e-05
-0.000125751
0.000214433
0.000111311
0.00047079
0.000583841
0.000857716
0.00129201
0.00135996
0.00220388
0.00192707
0.00323874
0.00249604
0.00428862
0.00301766
0.00526157
0.00346891
0.00610698
0.00384913
0.00682065
0.00417364
0.00741895
0.00445864
0.0079515
0.00472668
0.0084162
0.00892094
0.00498315
6.71577e-06
-0.000140311
5.57731e-05
-0.000174808
0.000174717
-7.63243e-06
0.000393323
0.000365235
0.000735402
0.000949926
0.00120255
0.00173673
0.00176285
0.00267844
0.00236016
0.0036913
0.00293766
0.00468406
0.0034576
0.00558705
0.00390514
0.00637311
0.00428745
0.00703664
0.00461707
0.00762188
0.00491775
0.00811552
0.00863879
0.00519991
4.16439e-06
-0.000144476
4.2833e-05
-0.000213477
0.000140263
-0.000105062
0.000323656
0.000181842
0.000619129
0.000654453
0.00104018
0.00131568
0.00157385
0.00214477
0.00217841
0.00308674
0.00279792
0.00406455
0.0033836
0.00500137
0.00390511
0.0058516
0.00435684
0.00658491
0.00474381
0.00723491
0.00508909
0.00777023
0.00832888
0.00539901
2.22202e-06
-0.000146698
3.21944e-05
-0.000243449
0.000110993
-0.000183861
0.000262611
3.02239e-05
0.000512672
0.000404393
0.000881407
0.000946943
0.00137159
0.00165459
0.00195963
0.0024987
0.00259948
0.0034247
0.00323893
0.00436191
0.00383433
0.00525621
0.00436554
0.0060537
0.0048229
0.00677755
0.00522633
0.0073668
0.00796896
0.00558624
8.22711e-07
-0.00014752
2.36365e-05
-0.000266263
8.6583e-05
-0.000246808
0.000210283
-9.34756e-05
0.000418198
0.000196478
0.000733047
0.000632094
0.00116823
0.00121941
0.0017175
0.00194944
0.00235089
0.0027913
0.00302204
0.00369076
0.00368148
0.00459677
0.00429344
0.00544174
0.00483885
0.00623215
0.00530799
0.00689766
0.00755406
0.00572289
-1.28341e-07
-0.000147392
1.68644e-05
-0.000283255
6.65048e-05
-0.000296448
0.000166182
-0.000193153
0.000336409
2.62504e-05
0.000599478
0.000369025
0.000974316
0.000844572
0.00146789
0.00145586
0.00206783
0.00219135
0.00274089
0.00301771
0.0034426
0.00389506
0.00412545
0.00475889
0.00476064
0.00559695
0.00532869
0.00632962
0.00708132
0.00580143
-8.63117e-07
-0.000146529
1.15298e-05
-0.000295648
5.00867e-05
-0.000335005
0.000129389
-0.000272455
0.000266829
-0.00011119
0.000482611
0.000153243
0.000797197
0.000529986
0.00122553
0.00102753
0.00176997
0.00164691
0.00241331
0.00237438
0.00312517
0.0031832
0.0038561
0.00402796
0.00457024
0.00488282
0.00525232
0.00564754
0.0065249
0.00580873
-1.28817e-06
-0.000145241
7.2803e-06
-0.000304217
3.65719e-05
-0.000364297
9.87085e-05
-0.000334591
0.000208145
-0.000220626
0.000382289
-2.09009e-05
0.000640595
0.00027168
0.00100135
0.000666778
0.00147645
0.0011718
0.00206349
0.00178734
0.00274921
0.00249747
0.0034938
0.00328337
0.00425815
0.00411847
0.00503674
0.00486895
0.00586786
0.00569378
-1.57419e-06
-0.000143667
3.75212e-06
-0.000309543
2.51875e-05
-0.000385732
7.28213e-05
-0.000382225
0.000158549
-0.000306354
0.000296902
-0.000159254
0.000505033
6.35488e-05
0.000801303
0.000370509
0.00120203
0.000771079
0.00171581
0.00127356
0.00234305
0.00187023
0.00306203
0.00256439
0.00383672
0.00334378
0.00467329
0.00403238
0.00511346
0.0054277
-1.85694e-06
-0.00014181
6.44536e-07
-0.000312045
1.52034e-05
-0.000400291
5.04244e-05
-0.000417446
0.000116057
-0.000371987
0.000224019
-0.000267215
0.00038875
-0.000101182
0.000626844
0.000132414
0.000955317
0.000442606
0.0013891
0.000839775
0.00193606
0.00132327
0.00259481
0.00190564
0.00333774
0.00260086
0.00417712
0.003193
0.00428579
0.00500478
-2.2278e-06
-0.000139582
-2.47854e-06
-0.000311794
5.97562e-06
-0.000408745
3.03483e-05
-0.000441819
7.87602e-05
-0.000420399
0.000160936
-0.000349391
0.000288713
-0.000228959
0.000476173
-5.50459e-05
0.000738981
0.000179798
0.00109399
0.000484771
0.00155187
0.000865381
0.00212699
0.00133052
0.00280266
0.00192518
0.00358944
0.00240622
0.00343076
0.00444447
-2.7394e-06
-0.000136843
-5.71373e-06
-0.00030882
-2.99125e-06
-0.000411468
1.16359e-05
-0.000456446
4.5014e-05
-0.000453777
0.00010511
-0.000409487
0.000201507
-0.000325356
0.000345725
-0.000199264
0.000551227
-2.5703e-05
0.000833633
0.000202365
0.00120463
0.000494381
0.00168512
0.000850041
0.00227074
0.00133956
0.00296455
0.00171241
0.00260623
0.00378908
-3.43001e-06
-0.000133413
-9.22163e-06
-0.000303028
-1.20491e-05
-0.00040864
-6.41472e-06
-0.00046208
1.35446e-05
-0.000473736
5.44253e-05
-0.000450368
0.000123966
-0.000394896
0.000231418
-0.000306717
0.000387853
-0.000182137
0.00060624
-1.60227e-05
0.000898666
0.000201955
0.00128396
0.000464748
0.00177079
0.000852729
0.00235125
0.00113194
0.00186533
0.00309216
-4.3166e-06
-0.000129096
-1.30867e-05
-0.000294258
-2.13899e-05
-0.000400337
-2.42423e-05
-0.000459228
-1.65133e-05
-0.000481465
7.32433e-06
-0.000474206
5.35486e-05
-0.000441121
0.000129526
-0.000382695
0.000244099
-0.00029671
0.000407449
-0.000179372
0.000631239
-2.18354e-05
0.000928333
0.000167653
0.00131816
0.000462906
0.00178166
0.000668438
0.001241
0.00240599
-5.39396e-06
-0.000123702
-1.73162e-05
-0.000282336
-3.10737e-05
-0.00038658
-4.20361e-05
-0.000448266
-4.56324e-05
-0.000477869
-3.71644e-05
-0.000482674
-1.15153e-05
-0.00046677
3.7167e-05
-0.000431377
0.000115831
-0.000375375
0.000232242
-0.000295783
0.000396712
-0.000186305
0.000616729
-5.23641e-05
0.000916822
0.000162813
0.00127126
0.000313996
0.000741905
0.00177036
-6.63713e-06
-0.000117065
-2.18556e-05
-0.000267117
-4.1036e-05
-0.000367399
-5.97796e-05
-0.000429522
-7.39462e-05
-0.000463702
-7.94963e-05
-0.000477123
-7.22331e-05
-0.000474033
-4.75451e-05
-0.000456065
-2.28641e-07
-0.000422691
7.6323e-05
-0.000372335
0.000189626
-0.000299608
0.0003446
-0.000207338
0.000564444
-5.70316e-05
0.000824545
5.38955e-05
0.000359493
0.00120696
-8.00499e-06
-0.00010906
-2.66013e-05
-0.000248521
-5.11159e-05
-0.000342885
-7.7289e-05
-0.000403349
-0.000101318
-0.000439673
-0.000119699
-0.000458743
-0.000128978
-0.000464753
-0.000125502
-0.000459541
-0.000105127
-0.000443067
-6.35084e-05
-0.000413953
4.50071e-06
-0.000367617
0.000107407
-0.000310245
0.000256648
-0.000206272
0.0004399
-0.000129357
7.89239e-05
0.000720469
-9.44441e-06
-9.96154e-05
-3.1414e-05
-0.000226551
-6.1083e-05
-0.000313216
-9.42625e-05
-0.000370169
-0.00012742
-0.000406516
-0.000157491
-0.000428671
-0.000181634
-0.00044061
-0.000196975
-0.0004442
-0.000200395
-0.000439647
-0.000188504
-0.000425844
-0.000156028
-0.000400092
-0.000101272
-0.000365001
-1.34296e-05
-0.000294114
0.000113483
-0.00025627
-0.000111651
0.000304058
-1.08946e-05
-8.87208e-05
-3.61317e-05
-0.000201314
-7.06643e-05
-0.000278683
-0.000110325
-0.000330508
-0.000151799
-0.000365042
-0.000192392
-0.000388078
-0.000229765
-0.000403237
-0.000261676
-0.00041229
-0.000285765
-0.000415558
-0.000299382
-0.000412228
-0.000298817
-0.000400656
-0.000282686
-0.000381132
-0.000236438
-0.000340362
-0.000171054
-0.000321653
-0.000229806
-5.28996e-05
-1.22914e-05
-7.64295e-05
-4.05834e-05
-0.000173022
-7.95685e-05
-0.000239698
-0.000125069
-0.000285008
-0.000173946
-0.000316165
-0.000223815
-0.000338209
-0.000272752
-0.0003543
-0.000319018
-0.000366024
-0.00036084
-0.000373736
-0.000396186
-0.000376882
-0.000422389
-0.000374453
-0.000437452
-0.00036607
-0.000431257
-0.000346557
-0.000413208
-0.000339703
-0.00029494
-0.000348074
-1.35712e-05
-6.28582e-05
-4.45997e-05
-0.000141994
-8.75078e-05
-0.00019679
-0.000138088
-0.000234428
-0.000193343
-0.00026091
-0.000251145
-0.000280407
-0.000309906
-0.00029554
-0.000368287
-0.000307642
-0.000424967
-0.000317056
-0.000478412
-0.000323438
-0.000526661
-0.000326204
-0.000567665
-0.000325065
-0.00059532
-0.000318901
-0.000614909
-0.000320113
-0.000306727
-0.000603122
-1.46752e-05
-4.81831e-05
-4.80238e-05
-0.000108645
-9.42158e-05
-0.000150598
-0.000149006
-0.000179638
-0.000209509
-0.000200406
-0.000273801
-0.000216116
-0.000340557
-0.000228784
-0.000408753
-0.000239446
-0.000477412
-0.000248396
-0.000545403
-0.000255448
-0.000611302
-0.000260305
-0.000673435
-0.000262932
-0.000728517
-0.000263819
-0.000779235
-0.000269394
-0.000272633
-0.00081333
-1.55518e-05
-3.26313e-05
-5.07199e-05
-7.34769e-05
-9.94624e-05
-0.000101855
-0.000157499
-0.000121602
-0.000222026
-0.000135879
-0.000291271
-0.00014687
-0.000364112
-0.000155943
-0.000439751
-0.000163807
-0.000517472
-0.000170675
-0.000596456
-0.000176464
-0.000675709
-0.000181052
-0.000754085
-0.000184556
-0.000830119
-0.000187786
-0.00090546
-0.000194053
-0.000202496
-0.000975597
-1.616e-05
-1.64712e-05
-5.25799e-05
-3.70571e-05
-0.000103066
-5.13695e-05
-0.000163309
-6.13587e-05
-0.000230561
-6.86271e-05
-0.000303153
-7.42777e-05
-0.000380093
-7.90028e-05
-0.000460739
-8.31614e-05
-0.000544547
-8.68669e-05
-0.00063092
-9.00902e-05
-0.000719176
-9.27965e-05
-0.000808638
-9.50943e-05
-0.000898917
-9.75071e-05
-0.000991492
-0.000101477
-0.000107564
-0.00108642
-1.64715e-05
-5.35291e-05
-0.000104899
-0.000166259
-0.000234887
-0.000309165
-0.000388169
-0.000471332
-0.000558199
-0.000648291
-0.000741088
-0.000836183
-0.000933691
-0.00103517
-0.00114273
-0.00515294
0.000162216
-0.00525745
0.000104515
-0.00534546
8.80099e-05
-0.00539988
5.4422e-05
-0.00544587
4.5981e-05
-0.0054711
2.52354e-05
-0.00549177
2.0669e-05
-0.00549907
7.30445e-06
-0.00550375
4.67178e-06
-0.00549948
-4.26673e-06
-0.00549338
-6.10104e-06
-0.005481
-1.23746e-05
-0.0054673
-1.3705e-05
-0.00544925
-1.80522e-05
-0.00543008
-1.91653e-05
-0.00540778
-2.23007e-05
-0.00538445
-2.33268e-05
-0.00535874
-2.57106e-05
-0.00533201
-2.67377e-05
-2.87052e-05
-0.00514452
0.000324814
-0.00524931
0.0002093
-0.00533776
0.000176466
-0.00539255
0.00010921
-0.00543901
9.24362e-05
-0.00546467
5.08938e-05
-0.00548581
4.18113e-05
-0.00549356
1.50553e-05
-0.00549868
9.79514e-06
-0.00549488
-8.06893e-06
-0.00548925
-1.17339e-05
-0.00547734
-2.42844e-05
-0.00546409
-2.69511e-05
-0.0054465
-3.56395e-05
-0.0054278
-3.78741e-05
-0.00540596
-4.41393e-05
-0.00538309
-4.61983e-05
-0.00535783
-5.09621e-05
-0.00533155
-5.30216e-05
-5.69546e-05
-0.00512769
0.000488168
-0.00523304
0.00031465
-0.00532237
0.000265798
-0.0053779
0.000164743
-0.0054253
0.000139833
-0.00545181
7.74035e-05
-0.00547389
6.38966e-05
-0.00548254
2.37019e-05
-0.00548856
1.58207e-05
-0.00548569
-1.09425e-05
-0.00548099
-1.64333e-05
-0.00547001
-3.5264e-05
-0.00545768
-3.92811e-05
-0.00544102
-5.22974e-05
-0.00542323
-5.56705e-05
-0.00540231
-6.50543e-05
-0.00538035
-6.816e-05
-0.00535602
-7.52962e-05
-0.00533064
-7.83986e-05
-8.4293e-05
-0.00510241
0.000652637
-0.00520865
0.000420891
-0.00529927
0.000356422
-0.00535595
0.000221417
-0.00540474
0.000188628