/*--------------------------------*- C++ -*----------------------------------*\
  =========                 |
  \\      /  F ield         | OpenFOAM: The Open Source CFD Toolbox
   \\    /   O peration     | Website:  https://openfoam.org
    \\  /    A nd           | Version:  7
     \\/     M anipulation  |
\*---------------------------------------------------------------------------*/
FoamFile
{
    version     2.0;
    format      ascii;
    class       volVectorField;
    location    "15";
    object      U;
}
// * * * * * * * * * * * * * * * * * * * * * * * * * * * * * * * * * * * * * //

dimensions      [0 1 -1 0 0 0 0];

internalField   nonuniform List<vector> 
1360
(
(1.11758 0.30737 3.60881e-20)
(1.11619 0.288332 -1.33004e-20)
(1.11515 0.269358 -1.33703e-19)
(1.07035 0.376917 2.69667e-20)
(1.07212 0.352304 3.63191e-20)
(1.07377 0.329196 -1.93915e-19)
(1.07528 0.307856 -9.57715e-20)
(1.0765 0.288442 4.4694e-19)
(1.07834 0.269151 -1.71308e-19)
(0.998639 0.456874 1.07132e-20)
(1.00644 0.427882 2.46547e-19)
(1.01272 0.399691 7.72416e-20)
(1.01814 0.37288 -1.57302e-19)
(1.02308 0.347715 1.39943e-19)
(1.02777 0.324302 7.28822e-20)
(1.03218 0.302818 -2.75797e-19)
(1.03633 0.283405 5.57739e-20)
(1.04137 0.264441 -1.35805e-19)
(0.903742 0.506303 1.10782e-19)
(0.921097 0.476868 2.01361e-19)
(0.934994 0.446503 -5.31438e-19)
(0.946599 0.416603 -3.29754e-19)
(0.956697 0.388 2.04032e-19)
(0.965796 0.361125 1.42577e-19)
(0.974212 0.336146 -1.91786e-19)
(0.982139 0.313078 1.93522e-19)
(0.989727 0.291941 -4.64997e-20)
(0.997263 0.272958 -3.80563e-19)
(1.00562 0.255792 5.14119e-19)
(0.773781 0.538148 5.57261e-19)
(0.806114 0.514786 -4.63412e-20)
(0.832052 0.486473 -1.79655e-19)
(0.853421 0.456018 7.55783e-19)
(0.871557 0.425325 -8.11741e-19)
(0.887399 0.395568 -4.5248e-20)
(0.90158 0.367384 7.44911e-19)
(0.91451 0.34105 -5.01108e-19)
(0.926434 0.316621 -6.70921e-20)
(0.937545 0.293972 8.71104e-20)
(0.948252 0.272705 7.72542e-19)
(0.959033 0.252466 -6.95625e-19)
(0.968103 0.234841 -1.52127e-19)
(0.59959 0.528738 1.13489e-19)
(0.652678 0.52397 1.54597e-19)
(0.696001 0.506814 -3.90036e-19)
(0.731803 0.482112 5.27901e-19)
(0.761914 0.453498 1.42854e-19)
(0.787756 0.423524 4.01697e-19)
(0.810379 0.393842 -1.37887e-18)
(0.830529 0.365419 4.81167e-19)
(0.848725 0.338736 -1.81835e-19)
(0.865311 0.313967 1.83901e-19)
(0.880506 0.291112 -6.3278e-19)
(0.89452 0.270032 6.43857e-19)
(0.907712 0.250396 -7.42607e-19)
(0.920202 0.231912 4.2815e-19)
(0.930185 0.215557 5.07982e-19)
(0.45674 0.475915 3.54199e-19)
(0.520962 0.485149 -5.88584e-19)
(0.575379 0.477807 8.56516e-19)
(0.621716 0.459704 -4.92511e-19)
(0.661523 0.435347 3.45557e-19)
(0.696124 0.408015 -8.95703e-19)
(0.726578 0.379935 7.70004e-19)
(0.753702 0.352494 -6.79586e-19)
(0.778104 0.326463 1.13935e-18)
(0.800228 0.302194 -2.97418e-19)
(0.820392 0.279783 -4.70298e-19)
(0.838825 0.259185 -3.80417e-19)
(0.855753 0.240258 -5.83771e-20)
(0.871494 0.222744 9.01971e-19)
(0.886107 0.206446 4.67075e-19)
(0.898238 0.192025 -6.34382e-19)
(0.38435 0.418255 2.02663e-19)
(0.448204 0.423987 5.88069e-19)
(0.504551 0.415516 -9.58702e-19)
(0.554229 0.398089 4.28387e-19)
(0.598136 0.375674 1.76695e-19)
(0.637137 0.351087 -1.10648e-18)
(0.671989 0.326185 4.01956e-19)
(0.703326 0.302091 -4.34642e-19)
(0.731657 0.279395 1.13538e-18)
(0.757385 0.258346 -7.5333e-19)
(0.780825 0.238984 -2.32491e-19)
(0.802227 0.221242 5.48168e-19)
(0.821834 0.204986 -7.7429e-19)
(0.839943 0.190014 5.36637e-19)
(0.856642 0.176165 4.8704e-19)
(0.871009 0.163807 -1.19739e-18)
(0.251766 0.323871 -1.71445e-19)
(0.321028 0.344075 -2.79089e-19)
(0.385078 0.347279 6.32616e-20)
(0.443549 0.339049 -3.17487e-20)
(0.496474 0.32378 4.2438e-19)
(0.544179 0.304732 1.05314e-19)
(0.587146 0.284176 -8.44724e-19)
(0.625892 0.263573 -8.5766e-20)
(0.660912 0.243781 3.17148e-19)
(0.692652 0.225237 3.95746e-19)
(0.721493 0.208104 -5.34808e-19)
(0.747761 0.192389 1.06253e-18)
(0.771728 0.178023 -7.91537e-19)
(0.793656 0.16489 9.46966e-19)
(0.813827 0.152838 -7.91077e-19)
(0.832369 0.141733 3.73584e-19)
(0.848744 0.13173 1.92186e-19)
(0.135167 0.209929 6.55371e-20)
(0.202933 0.241976 -6.49688e-20)
(0.270267 0.256162 1.19499e-19)
(0.334777 0.257729 -5.99465e-21)
(0.395197 0.250924 3.96461e-20)
(0.450904 0.239061 -5.05632e-19)
(0.501769 0.224564 1.79663e-19)
(0.547975 0.209092 4.69574e-19)
(0.589863 0.193698 -5.78169e-19)
(0.627831 0.178985 2.37184e-19)
(0.662283 0.16525 -2.23921e-19)
(0.693595 0.152594 6.42165e-19)
(0.722103 0.141009 -8.05102e-19)
(0.748102 0.130434 -6.17152e-20)
(0.771869 0.120782 7.88732e-19)
(0.793676 0.111948 -7.25182e-19)
(0.81369 0.103825 -1.29157e-19)
(0.831695 0.0964486 -2.56965e-19)
(0.104648 0.130078 -8.30536e-21)
(0.168691 0.149554 -1.01525e-19)
(0.23483 0.157954 2.4661e-19)
(0.299802 0.15859 -5.75323e-20)
(0.361699 0.154124 -1.01394e-19)
(0.419431 0.146613 2.2431e-20)
(0.472553 0.13755 -4.8923e-19)
(0.521048 0.127945 6.36849e-19)
(0.565137 0.118433 1.03835e-19)
(0.60516 0.109372 -2.21698e-19)
(0.641496 0.100932 -7.46794e-21)
(0.67452 0.0931681 2.48237e-19)
(0.704579 0.0860706 4.3024e-20)
(0.731987 0.079598 1.58225e-19)
(0.757027 0.0736966 1.2247e-19)
(0.779964 0.0683033 -3.73119e-19)
(0.800998 0.0633505 9.15477e-20)
(0.820149 0.0588257 -2.17676e-19)
(0.0888856 0.0440578 7.50594e-20)
(0.151053 0.0505907 1.10183e-20)
(0.216624 0.053371 1.39196e-19)
(0.281877 0.0535307 -1.13975e-19)
(0.344566 0.0519768 6.89021e-20)
(0.403362 0.0494067 -2.61974e-20)
(0.457659 0.0463239 -9.91902e-20)
(0.507337 0.0430681 1.55001e-19)
(0.55256 0.039851 -7.36624e-20)
(0.593637 0.0367911 -8.82339e-20)
(0.630938 0.0339443 2.13922e-20)
(0.664837 0.0313278 -7.0899e-20)
(0.69569 0.0289373 3.73581e-20)
(0.723817 0.0267582 -5.44048e-20)
(0.749507 0.0247724 2.13774e-19)
(0.773021 0.022959 -7.11937e-20)
(0.794577 0.0212945 -2.43441e-20)
(0.814318 0.0197693 1.1929e-19)
(1.1168 0.237823 8.2207e-20)
(1.12039 0.210985 1.86273e-20)
(1.12293 0.190214 1.74237e-20)
(1.12467 0.171183 -5.35957e-20)
(1.12523 0.154098 -1.15524e-20)
(1.12488 0.138638 5.30242e-20)
(1.12388 0.124523 -2.82914e-20)
(1.12243 0.111567 7.28833e-21)
(1.12069 0.0996079 -4.00349e-20)
(1.11878 0.088507 5.17148e-20)
(1.11683 0.0781419 3.75584e-22)
(1.1149 0.068406 -1.83211e-21)
(1.11307 0.059205 -1.3964e-20)
(1.11139 0.0504551 1.27686e-20)
(1.10989 0.0420807 -5.1162e-21)
(1.10862 0.0340132 -1.22871e-20)
(1.1076 0.0261907 -8.0596e-21)
(1.10685 0.0185527 7.90512e-21)
(1.10637 0.011029 2.86559e-21)
(1.10615 0.00359953 -2.03382e-21)
(1.08496 0.236694 5.99942e-20)
(1.09391 0.211098 -6.21489e-20)
(1.10011 0.191542 -2.54599e-20)
(1.10474 0.173081 1.69709e-20)
(1.10768 0.156231 -4.81271e-21)
(1.10929 0.140818 3.34085e-20)
(1.10991 0.126638 -9.24432e-21)
(1.10979 0.113554 9.26979e-21)
(1.10914 0.101435 -1.58532e-20)
(1.10813 0.0901577 2.32972e-20)
(1.1069 0.0796128 3.51543e-20)
(1.10556 0.0696993 -4.37836e-20)
(1.1042 0.0603264 5.72932e-21)
(1.1029 0.0514113 1.27482e-20)
(1.1017 0.0428786 -7.0409e-21)
(1.10066 0.0346591 -1.78274e-21)
(1.09981 0.0266894 1.3558e-21)
(1.09918 0.0189072 -6.26641e-21)
(1.09878 0.011243 3.1114e-21)
(1.09859 0.00367661 1.01637e-21)
(1.05255 0.233048 7.39437e-20)
(1.06591 0.209393 2.49073e-19)
(1.07554 0.191348 -3.11925e-19)
(1.08327 0.173713 1.77063e-19)
(1.08894 0.157284 -8.78842e-20)
(1.09286 0.142092 3.31044e-20)
(1.09539 0.128007 -1.4723e-20)
(1.09683 0.114933 2.92245e-20)
(1.09744 0.102768 -5.98978e-20)
(1.09743 0.0914098 8.18373e-20)
(1.097 0.0807623 -4.66372e-20)
(1.0963 0.0707341 1.87006e-20)
(1.09544 0.0612403 -7.01092e-20)
(1.09453 0.052202 6.04669e-20)
(1.09363 0.0435463 -2.212e-20)
(1.09281 0.0352053 -7.23219e-21)
(1.09213 0.0271157 3.28665e-21)
(1.0916 0.0192154 -4.42375e-21)
(1.09126 0.0114387 1.48266e-20)
(1.0911 0.00375882 -2.96022e-21)
(1.02014 0.229193 -1.78775e-19)
(1.038 0.206476 -4.43482e-21)
(1.05171 0.18933 4.0477e-19)
(1.06269 0.172609 -3.43631e-19)
(1.07105 0.156825 2.43678e-19)
(1.07718 0.142115 -1.33448e-19)
(1.08151 0.128365 6.70767e-20)
(1.08441 0.115504 -4.70084e-20)
(1.08619 0.103457 1.02691e-20)
(1.08714 0.0921488 3.34534e-20)
(1.08746 0.081502 -7.71122e-23)
(1.08736 0.0714407 -1.68003e-20)
(1.08697 0.0618912 -2.00928e-20)
(1.08643 0.0527828 1.56775e-20)
(1.08581 0.0440481 -1.96283e-20)
(1.0852 0.035623 9.92763e-21)
(1.08466 0.0274467 -1.8397e-11)
(1.08422 0.0194597 1.82452e-11)
(1.08392 0.0116027 -1.11187e-20)
(1.08376 0.00383803 6.44498e-21)
(1.003 0.226905 2.28967e-27)
(1.02446 0.203133 -2.29325e-27)
(1.04013 0.186366 0)
(1.05207 0.170715 0)
(1.0612 0.15569 0)
(1.06803 0.141521 0)
(1.07299 0.128153 0)
(1.07645 0.115545 0)
(1.07872 0.103659 0)
(1.08009 0.092443 0)
(1.08077 0.0818397 1.04643e-27)
(1.08097 0.0717881 -1.04616e-27)
(1.08084 0.0622253 1.96004e-11)
(1.08049 0.0530886 -1.9597e-11)
(1.08004 0.0443163 0)
(1.07955 0.0358483 0)
(1.0791 0.0276265 -1.82311e-11)
(1.07872 0.019594 1.82305e-11)
(1.07844 0.0116952 0)
(1.07829 0.00388567 0)
(0.996469 0.212878 -8.90925e-28)
(1.01721 0.193022 8.92984e-28)
(1.0328 0.17824 6.63065e-27)
(1.04495 0.164074 -6.73641e-27)
(1.05433 0.150245 -5.90701e-28)
(1.06144 0.137048 5.90701e-28)
(1.0667 0.124473 -2.74786e-27)
(1.07046 0.112516 -2.74665e-27)
(1.07304 0.101163 0)
(1.07469 0.0903869 0)
(1.07565 0.0801475 0)
(1.07609 0.070399 0)
(1.07618 0.0610908 2.08435e-11)
(1.07603 0.0521702 -2.08435e-11)
(1.07574 0.0435836 -3.66098e-28)
(1.07539 0.035278 3.66098e-28)
(1.07505 0.0272007 -1.93224e-11)
(1.07475 0.0193001 1.93224e-11)
(1.07453 0.0115255 -2.07387e-27)
(1.07441 0.00383167 -1.73416e-27)
(0.990375 0.197788 0)
(1.0104 0.181671 0)
(1.02592 0.169091 -6.03748e-27)
(1.03824 0.156564 6.14324e-27)
(1.04784 0.144058 2.59404e-28)
(1.0552 0.131929 -2.59404e-28)
(1.06073 0.120228 2.74786e-27)
(1.06477 0.108989 2.74665e-27)
(1.06762 0.098232 0)
(1.06953 0.0879507 0)
(1.07073 0.0781254 0)
(1.0714 0.0687258 0)
(1.07168 0.0597141 2.21343e-11)
(1.0717 0.0510482 -2.21343e-11)
(1.07156 0.0426833 -2.10976e-11)
(1.07134 0.0345735 2.10976e-11)
(1.07109 0.0266724 -2.04652e-11)
(1.07087 0.0189336 2.04652e-11)
(1.0707 0.0113111 1.09157e-27)
(1.07061 0.0037616 2.72265e-27)
(0.985773 0.183308 0)
(1.00484 0.170379 0)
(1.02006 0.159865 0)
(1.03232 0.148927 0)
(1.04199 0.137721 0)
(1.04949 0.12665 0)
(1.0552 0.115819 0)
(1.05944 0.105304 0)
(1.0625 0.0951491 0)
(1.06462 0.0853734 0)
(1.06602 0.0759748 0)
(1.06688 0.0669375 0)
(1.06733 0.0582363 2.33828e-11)
(1.06751 0.0498392 -2.33828e-11)
(1.0675 0.04171 -2.22648e-11)
(1.06739 0.0338097 2.22648e-11)
(1.06723 0.0260982 -2.15791e-11)
(1.06707 0.0185343 2.15791e-11)
(1.06695 0.0110764 0)
(1.06688 0.00368443 0)
(0.982424 0.169712 0)
(1.00037 0.159463 0)
(1.01509 0.150795 1.98516e-27)
(1.02712 0.141336 -1.98516e-27)
(1.03672 0.131364 0)
(1.04426 0.121311 0)
(1.05006 0.111329 0)
(1.05444 0.101525 0)
(1.05765 0.0919696 0)
(1.05995 0.0827007 0)
(1.06151 0.0737333 0)
(1.06253 0.0650653 0)
(1.06313 0.056683 2.45867e-11)
(1.06344 0.048564 -2.45867e-11)
(1.06355 0.0406802 0)
(1.06354 0.0329996 0)
(1.06346 0.0254878 -2.26624e-11)
(1.06336 0.0181089 2.26624e-11)
(1.06327 0.0108258 8.25944e-28)
(1.06323 0.00360177 -8.31152e-28)
(0.980073 0.157039 -1.33475e-27)
(0.996828 0.149031 7.79648e-27)
(1.0109 0.14198 4.57367e-27)
(1.02257 0.133868 -5.08026e-27)
(1.032 0.125048 0)
(1.03948 0.115964 -4.60184e-27)
(1.04531 0.106798 0)
(1.04976 0.0976866 -2.91458e-27)
(1.05309 0.0887202 -1.51236e-27)
(1.05551 0.0799545 1.51236e-27)
(1.05721 0.0714188 3.16532e-27)
(1.05835 0.0631238 -1.70348e-27)
(1.05908 0.0550661 2.57452e-11)
(1.05951 0.0472321 -2.57452e-11)
(1.05972 0.0396016 2.7355e-28)
(1.05979 0.032149 9.30355e-28)
(1.05978 0.0248457 -2.37141e-11)
(1.05974 0.0176606 2.37141e-11)
(1.05969 0.0105611 -2.94372e-27)
(1.05966 0.00351433 1.77136e-27)
(0.978529 0.145272 -2.82603e-27)
(0.994072 0.13913 -3.62708e-27)
(1.0074 0.133476 -1.27953e-27)
(1.01862 0.126577 1.78611e-27)
(1.02779 0.11882 0)
(1.03514 0.110644 4.60184e-27)
(1.04093 0.102258 0)
(1.0454 0.0938144 2.91458e-27)
(1.04879 0.0854229 0)
(1.0513 0.0771529 0)
(1.0531 0.0690466 -2.50233e-27)
(1.05436 0.0611255 1.04049e-27)
(1.05519 0.0533956 2.68576e-11)
(1.05571 0.0458517 -2.68576e-11)
(1.05601 0.0384806 -6.81078e-28)
(1.05616 0.031263 -5.22828e-28)
(1.05621 0.0241755 -2.47333e-11)
(1.05622 0.017192 2.47333e-11)
(1.0562 0.0102841 2.07965e-27)
(1.05619 0.00342269 -9.01849e-28)
(0.977634 0.134372 0)
(0.991981 0.129777 0)
(1.00452 0.125322 -4.84516e-11)
(1.01521 0.119501 4.84516e-11)
(1.02404 0.112713 0)
(1.0312 0.105384 0)
(1.0369 0.0977345 -1.349e-27)
(1.04135 0.089932 1.349e-27)
(1.04476 0.0820975 0)
(1.04732 0.0743128 0)
(1.0492 0.0666306 1.49607e-27)
(1.05053 0.0590818 -1.49607e-27)
(1.05145 0.0516811 2.79238e-11)
(1.05205 0.0444305 -2.79238e-11)
(1.05243 0.0373234 0)
(1.05264 0.0303463 0)
(1.05275 0.0234808 0)
(1.05279 0.0167055 0)
(1.05281 0.00999613 9.36933e-28)
(1.05281 0.00332737 -9.42841e-28)
(0.977258 0.12429 0)
(0.990449 0.120972 0)
(1.00217 0.117537 -4.93492e-11)
(1.01229 0.112669 4.93492e-11)
(1.02074 0.106758 0)
(1.02765 0.100211 0)
(1.0332 0.0932529 2.02132e-28)
(1.03759 0.08606 -2.02132e-28)
(1.04098 0.0787619 6.21292e-28)
(1.04357 0.0714493 -6.21292e-28)
(1.04549 0.0641835 0)
(1.04688 0.0570036 0)
(1.04786 0.0499314 0)
(1.04853 0.0429758 0)
(1.04897 0.0361359 5.06884e-28)
(1.04924 0.0294035 -5.06884e-28)
(1.04939 0.0227651 -2.66711e-11)
(1.04948 0.0162036 2.66711e-11)
(1.04951 0.00969874 -1.41243e-28)
(1.04953 0.00322887 1.42134e-28)
(0.977295 0.114972 -1.20291e-10)
(0.98938 0.112704 -1.124e-10)
(1.00028 0.110131 1.52992e-27)
(1.0098 0.106097 -1.52992e-27)
(1.01782 0.100975 0)
(1.02445 0.0951452 0)
(1.02982 0.0888325 0)
(1.0341 0.0822165 0)
(1.03746 0.075432 0)
(1.04003 0.0685762 0)
(1.04197 0.0617173 0)
(1.04341 0.0549009 0)
(1.04444 0.0481551 0)
(1.04516 0.0414945 0)
(1.04564 0.0349235 -2.1684e-28)
(1.04596 0.0284389 2.1684e-28)
(1.04615 0.0220317 -2.75887e-11)
(1.04626 0.0156887 2.75887e-11)
(1.04632 0.0093933 5.22979e-28)
(1.04635 0.00312765 -5.26277e-28)
(0.977657 0.106363 1.20295e-10)
(0.988696 0.104954 1.124e-10)
(0.998791 0.103104 -3.85817e-27)
(1.00769 0.0997969 3.85817e-27)
(1.01526 0.0953798 0)
(1.02158 0.0902041 0)
(1.02674 0.0844902 0)
(1.03089 0.078417 0)
(1.03416 0.0721218 0)
(1.03671 0.065706 0)
(1.03865 0.0592428 0)
(1.0401 0.0527829 0)
(1.04116 0.0463597 3.08455e-11)
(1.04192 0.0399929 -3.08455e-11)
(1.04244 0.0336916 5.40818e-28)
(1.04279 0.0274569 -5.40818e-28)
(1.04302 0.0212837 -5.2388e-28)
(1.04316 0.0151628 5.2388e-28)
(1.04323 0.00908112 0)
(1.04327 0.00302414 0)
(0.97827 0.0984094 0)
(0.988327 0.0976975 0)
(0.997635 0.0964523 0)
(1.00591 0.0937737 0)
(1.01303 0.0899824 0)
(1.01901 0.0854003 0)
(1.02393 0.0802392 0)
(1.02792 0.0746746 0)
(1.0311 0.0688435 0)
(1.03359 0.0628497 0)
(1.03551 0.0567695 -1.6924e-27)
(1.03697 0.050658 1.6924e-27)
(1.03804 0.0445526 6.34571e-11)
(1.03882 0.0384772 -6.34571e-11)
(1.03937 0.032445 -1.51391e-27)
(1.03975 0.0264611 1.51391e-27)
(1.04 0.0205241 -2.93195e-11)
(1.04016 0.0146281 2.93195e-11)
(1.04025 0.00876343 -1.06846e-27)
(1.04029 0.00291877 1.0752e-27)
(0.979076 0.0910593 0)
(0.988215 0.0909094 0)
(0.996765 0.0901646 3.92977e-27)
(1.00443 0.0880272 -3.92977e-27)
(1.01108 0.0847891 -8.43901e-28)
(1.01671 0.0807431 8.43901e-28)
(1.02138 0.0760901 -2.21577e-28)
(1.02519 0.0709999 2.21577e-28)
(1.02825 0.0656074 -6.89903e-28)
(1.03067 0.0600166 6.89903e-28)
(1.03256 0.0543062 0)
(1.03399 0.0485337 0)
(1.03507 0.0427401 3.25672e-11)
(1.03587 0.0369528 -3.25672e-11)
(1.03644 0.0311883 0)
(1.03683 0.0254553 0)
(1.0371 0.0197556 -3.01325e-11)
(1.03728 0.0140865 3.01325e-11)
(1.03738 0.0084414 0)
(1.03743 0.00281191 0)
(0.980026 0.0842631 3.28841e-27)
(0.988311 0.0845614 -1.23541e-26)
(0.996136 0.0842278 0)
(1.00321 0.0825536 -1.24849e-27)
(1.00939 0.0798023 6.54943e-29)
(1.01465 0.0762386 1.11592e-27)
(1.01906 0.072051 -5.18406e-28)
(1.02268 0.0674017 5.18406e-28)
(1.02561 0.062422 0)
(1.02794 0.0572151 2.64622e-28)
(1.02977 0.0518602 1.19889e-27)
(1.03118 0.0464168 8.52039e-28)
(1.03225 0.0409282 3.33623e-11)
(1.03305 0.0354246 -3.33623e-11)
(1.03363 0.0299257 -7.65644e-28)
(1.03404 0.0244427 -1.59883e-27)
(1.03432 0.0189808 -9.62664e-28)
(1.03451 0.0135398 7.42638e-28)
(1.03462 0.0081161 2.30589e-27)
(1.03467 0.00270392 1.88061e-28)
(0.981079 0.0779739 2.87348e-27)
(0.988571 0.0786253 6.18092e-27)
(0.995709 0.0786262 -6.6822e-28)
(1.00221 0.0773464 1.91671e-27)
(1.00792 0.0750216 -1.18141e-27)
(1.01283 0.0718901 0)
(1.01696 0.0681273 0)
(1.02038 0.0638866 0)
(1.02316 0.0592945 3.18419e-27)
(1.02539 0.054452 -3.44881e-27)
(1.02716 0.049438 -2.05093e-27)
(1.02853 0.044313 0)
(1.02958 0.0391219 3.41148e-11)
(1.03036 0.0338972 -3.41148e-11)
(1.03094 0.0286607 -2.66396e-27)
(1.03136 0.0234265 5.02843e-27)
(1.03165 0.0182019 -3.16538e-11)
(1.03185 0.0129897 3.16538e-11)
(1.03196 0.00778852 -2.15911e-28)
(1.03202 0.00259514 -2.29121e-27)
(0.982202 0.0721484 0)
(0.988961 0.073073 0)
(0.99545 0.0733431 -5.24973e-11)
(1.0014 0.0723969 5.24973e-11)
(1.00666 0.0704444 0)
(1.0112 0.067699 0)
(1.01506 0.0643226 0)
(1.01826 0.0604595 0)
(1.02089 0.0562303 -7.29584e-28)
(1.02301 0.0517329 7.29584e-28)
(1.0247 0.0470451 0)
(1.02603 0.0422275 0)
(1.02704 0.037326 0)
(1.02782 0.0323745 0)
(1.02839 0.0273969 6.13259e-28)
(1.02881 0.0224093 -6.13259e-28)
(1.0291 0.0174213 -3.23626e-11)
(1.0293 0.0124377 3.23626e-11)
(1.02942 0.00745956 0)
(1.02948 0.00248586 0)
(0.983369 0.0667459 0)
(0.98945 0.0678772 0)
(0.995329 0.0683607 -5.26588e-11)
(1.00075 0.0676949 5.26588e-11)
(1.00557 0.0660659 0)
(1.00976 0.0636643 0)
(1.01334 0.0606388 0)
(1.01633 0.0571238 0)
(1.0188 0.0532337 7.40878e-28)
(1.0208 0.0490625 -7.40878e-28)
(1.0224 0.0446861 0)
(1.02367 0.0401645 0)
(1.02465 0.0355442 3.54966e-11)
(1.0254 0.0308599 -3.54966e-11)
(1.02596 0.0261372 0)
(1.02637 0.0213936 0)
(1.02667 0.0166406 0)
(1.02687 0.0118851 0)
(1.02699 0.00713003 -1.75217e-28)
(1.02705 0.00237636 1.76321e-28)
(0.984557 0.0617292 0)
(0.990014 0.0630116 -6.43997e-27)
(0.995322 0.0636611 0)
(1.00024 0.0632291 0)
(1.00464 0.0618802 5.62367e-27)
(1.00849 0.0597839 0)
(1.01178 0.0570761 -7.56039e-27)
(1.01456 0.0538815 3.03067e-27)
(1.01686 0.0503076 -3.33481e-27)
(1.01874 0.0464441 3.33481e-27)
(1.02025 0.0423645 -7.80802e-11)
(1.02145 0.0381277 -7.57551e-11)
(1.02239 0.0337799 3.6128e-11)
(1.02311 0.0293566 3.58468e-11)
(1.02366 0.0248842 3.58544e-11)
(1.02406 0.0203815 3.4643e-11)
(1.02435 0.0158617 1.63993e-27)
(1.02454 0.0113332 -6.15896e-28)
(1.02467 0.00680068 3.35899e-27)
(1.02472 0.00226687 0)
(0.985749 0.0570637 0)
(0.990631 0.0584511 6.43997e-27)
(0.995405 0.0592261 1.36229e-27)
(0.99985 0.0589875 -1.36229e-27)
(1.00385 0.05788 -5.62367e-27)
(1.00736 0.0560542 0)
(1.01038 0.0536336 3.97801e-27)
(1.01294 0.0507333 5.51704e-28)
(1.01508 0.0474539 0)
(1.01683 0.0438803 0)
(1.01825 0.0400832 7.80802e-11)
(1.01938 0.0361199 7.57551e-11)
(1.02027 0.032036 0)
(1.02095 0.027867 -7.19748e-11)
(1.02148 0.02364 -1.05744e-10)
(1.02186 0.019375 3.52466e-11)
(1.02214 0.015086 0)
(1.02233 0.0107831 -1.02403e-27)
(1.02245 0.00647213 -3.17705e-27)
(1.02251 0.00215762 -1.8308e-28)
(0.98693 0.0527177 0)
(0.991284 0.0541718 0)
(0.995561 0.0550383 0)
(0.99956 0.0549578 0)
(1.00317 0.0540573 0)
(1.00636 0.0524705 0)
(1.00912 0.0503092 -2.42017e-28)
(1.01147 0.047679 2.42017e-28)
(1.01343 0.0446735 0)
(1.01505 0.0413728 0)
(1.01637 0.0378443 7.22636e-28)
(1.01743 0.0341434 -7.22636e-28)
(1.01827 0.0303146 0)
(1.01892 0.0263933 0)
(1.01941 0.0224067 -6.59011e-28)
(1.01978 0.0183755 6.59011e-28)
(1.02005 0.0143148 -3.48585e-11)
(1.02024 0.0102355 3.48585e-11)
(1.02035 0.00614496 -1.8503e-28)
(1.02041 0.00204878 1.86196e-28)
(0.988089 0.0486623 0)
(0.991956 0.0501512 0)
(0.995772 0.0510803 6.76639e-28)
(0.999354 0.0511273 -6.76639e-28)
(1.0026 0.0504037 0)
(1.00548 0.0490276 0)
(1.00799 0.0470998 3.11206e-27)
(1.01012 0.0447173 -3.11206e-27)
(1.01192 0.0419664 3.45263e-27)
(1.01341 0.0389224 -3.45263e-27)
(1.01463 0.0356492 0)
(1.01561 0.0321997 0)
(1.01639 0.0286175 3.77983e-11)
(1.017 0.024937 -3.77983e-11)
(1.01747 0.0211857 2.96887e-27)
(1.01782 0.0173845 -2.96887e-27)
(1.01807 0.0135491 -3.53999e-11)
(1.01825 0.0096914 3.53999e-11)
(1.01836 0.00581963 2.39795e-27)
(1.01841 0.00194053 -2.41307e-27)
(0.989216 0.0448706 5.21083e-27)
(0.992638 0.0463681 1.36873e-27)
(0.996026 0.0473354 -5.5154e-27)
(0.999217 0.0474836 4.57174e-27)
(1.00212 0.04691 0)
(1.00471 0.0457192 5.18854e-27)
(1.00696 0.0440019 -4.35917e-27)
(1.0089 0.0418462 0)
(1.01054 0.039332 1.31884e-27)
(1.0119 0.0365294 1.55266e-27)
(1.01301 0.0334985 0)
(1.01391 0.0302901 -1.46792e-27)
(1.01463 0.0269458 7.65686e-11)
(1.0152 0.0234996 -7.65686e-11)
(1.01564 0.0199782 0)
(1.01596 0.0164029 3.68194e-27)
(1.01621 0.0127899 -3.59092e-11)
(1.01637 0.00915135 3.59092e-11)
(1.01648 0.00549653 -3.34412e-27)
(1.01653 0.00183299 -3.58748e-27)
(0.990303 0.0413182 -7.62e-27)
(0.993317 0.0428025 1.04422e-27)
(0.996309 0.0437875 4.78053e-27)
(0.999137 0.0440142 -3.83687e-27)
(1.00172 0.0435672 0)
(1.00403 0.042539 -5.18854e-27)
(1.00605 0.0410109 4.35917e-27)
(1.00779 0.0390631 0)
(1.00926 0.0367688 -1.31884e-27)
(1.0105 0.0341932 -1.55266e-27)
(1.01151 0.0313926 0)
(1.01234 0.028415 1.46792e-27)
(1.013 0.0253005 3.87369e-11)
(1.01352 0.0220818 -3.87369e-11)
(1.01392 0.0187852 8.96668e-28)
(1.01422 0.0154317 -4.57861e-27)
(1.01445 0.0120377 -3.63869e-11)
(1.0146 0.00861589 3.63869e-11)
(1.0147 0.005176 3.34412e-27)
(1.01475 0.00172627 3.58748e-27)
(0.991345 0.0379825 0)
(0.993985 0.0394358 0)
(0.996613 0.0404214 -5.29292e-11)
(0.999103 0.0407068 5.29292e-11)
(1.00138 0.0403658 0)
(1.00343 0.03948 0)
(1.00523 0.0381222 0)
(1.00678 0.0363648 0)
(1.0081 0.034275 -7.98296e-28)
(1.00921 0.0319128 7.98296e-28)
(1.01012 0.029331 -7.5501e-28)
(1.01087 0.0265747 7.5501e-28)
(1.01147 0.023682 0)
(1.01194 0.0206843 0)
(1.01231 0.0176072 6.94779e-28)
(1.01259 0.0144714 -6.94779e-28)
(1.0128 0.0112931 0)
(1.01294 0.00808541 0)
(1.01303 0.00485827 0)
(1.01308 0.00162046 0)
(0.992337 0.0348427 0)
(0.994636 0.0362505 0)
(0.996929 0.0372221 -5.29013e-11)
(0.999105 0.0375494 5.29013e-11)
(1.00111 0.0372965 0)
(1.0029 0.0365352 0)
(1.00449 0.0353304 0)
(1.00586 0.0337477 0)
(1.00704 0.031848 3.56856e-27)
(1.00802 0.0296868 -3.56856e-27)
(1.00884 0.027313 0)
(1.00951 0.0247688 0)
(1.01005 0.0220902 3.95461e-11)
(1.01048 0.0193073 -3.95461e-11)
(1.01081 0.0164447 -3.11717e-27)
(1.01107 0.0135224 3.11717e-27)
(1.01125 0.0105566 0)
(1.01139 0.0075602 0)
(1.01147 0.00454353 -2.52589e-27)
(1.01151 0.00151561 2.54182e-27)
(0.993276 0.0318797 1.03118e-27)
(0.995263 0.0332301 -1.03277e-27)
(0.997249 0.0341758 0)
(0.999137 0.0345305 0)
(1.00088 0.0343499 0)
(1.00244 0.0336971 0)
(1.00383 0.0326301 -4.43759e-27)
(1.00504 0.0312076 0)
(1.00607 0.0294851 4.39724e-11)
(1.00694 0.0275133 -4.39724e-11)
(1.00766 0.0253373 -1.00231e-27)
(1.00826 0.0229966 -5.19893e-28)
(1.00874 0.020525 7.98095e-11)
(1.00912 0.0179508 -7.98095e-11)
(1.00942 0.0152976 -1.43515e-27)
(1.00965 0.0125848 0)
(1.00982 0.00982815 -3.76359e-11)
(1.00994 0.00704041 3.76359e-11)
(1.01001 0.00423188 0)
(1.01005 0.00141177 0)
(0.994158 0.029076 1.34194e-27)
(0.995863 0.0303593 -1.34397e-27)
(0.997567 0.0312689 0)
(0.99919 0.0316387 0)
(1.00069 0.0315167 0)
(1.00204 0.0309585 0)
(1.00324 0.0300155 4.43759e-27)
(1.00429 0.0287403 0)
(1.00519 0.027183 4.42254e-11)
(1.00595 0.0253899 -4.42254e-11)
(1.00658 0.0234025 0)
(1.0071 0.0212572 1.52221e-27)
(1.00753 0.0189856 4.02341e-11)
(1.00786 0.0166144 -4.02341e-11)
(1.00813 0.014166 5.00804e-28)
(1.00833 0.0116588 9.34344e-28)
(1.00848 0.00910796 -3.79927e-11)
(1.00859 0.00652612 3.79927e-11)
(1.00866 0.00392339 -4.64609e-28)
(1.00869 0.00130896 4.67538e-28)
(0.994982 0.0264152 0)
(0.99643 0.0276235 0)
(0.997878 0.0284888 0)
(0.999258 0.0288631 0)
(1.00054 0.0287879 0)
(1.00169 0.0283119 0)
(1.00272 0.0274807 0)
(1.00362 0.026341 0)
(1.00439 0.0249382 4.44534e-11)
(1.00505 0.0233141 -4.44534e-11)
(1.0056 0.0215066 0)
(1.00605 0.0195492 0)
(1.00642 0.0174713 4.0535e-11)
(1.00671 0.0152977 -4.0535e-11)
(1.00694 0.0130494 0)
(1.00712 0.010744 0)
(1.00725 0.00839593 -3.83204e-11)
(1.00734 0.00601731 3.83204e-11)
(1.0074 0.00361804 -2.60025e-27)
(1.00743 0.00120717 2.61665e-27)
(0.995746 0.0238821 0)
(0.996962 0.0250092 0)
(0.998177 0.0258232 0)
(0.999337 0.026193 0)
(1.00041 0.0261543 0)
(1.00139 0.0257498 0)
(1.00226 0.0250195 0)
(1.00302 0.0240051 0)
(1.00367 0.022747 4.4658e-11)
(1.00423 0.0212829 -4.4658e-11)
(1.0047 0.0196474 0)
(1.00509 0.0178712 0)
(1.0054 0.0159809 8.16167e-11)
(1.00565 0.0139998 -8.16167e-11)
(1.00585 0.0119475 0)
(1.006 0.00984022 0)
(1.00612 0.00769185 -3.86197e-11)
(1.0062 0.00551387 3.86197e-11)
(1.00625 0.00331579 2.05444e-28)
(1.00628 0.00110639 -2.0674e-28)
(0.996449 0.0214629 6.01077e-27)
(0.997455 0.0225036 6.23663e-27)
(0.998461 0.0232605 -5.34079e-27)
(0.999422 0.0236183 0)
(1.00031 0.0236073 0)
(1.00112 0.0232649 -9.85067e-11)
(1.00185 0.0226259 -9.58745e-11)
(1.00248 0.0217274 -9.3351e-11)
(1.00303 0.0206053 -9.09608e-11)
(1.0035 0.0192934 0)
(1.00389 0.0178227 8.66562e-11)
(1.00421 0.0162211 1.69541e-10)
(1.00448 0.0145131 1.24132e-10)
(1.00469 0.0127199 -4.1055e-11)
(1.00486 0.0108594 3.75654e-27)
(1.00499 0.00894697 3.96376e-27)
(1.00509 0.00699542 -1.17242e-10)
(1.00516 0.00501561 -3.88091e-11)
(1.0052 0.00301653 -7.72652e-11)
(1.00522 0.00100659 -7.75336e-11)
(0.99709 0.0191442 -6.01096e-27)
(0.997909 0.0200946 -6.23663e-27)
(0.998727 0.0207897 5.34079e-27)
(0.999509 0.0211291 0)
(1.00023 0.0211382 0)
(1.0009 0.0208496 9.85067e-11)
(1.00149 0.0202937 9.58745e-11)
(1.00201 0.0195029 9.3351e-11)
(1.00246 0.018509 9.09608e-11)
(1.00284 0.017342 -1.08119e-27)
(1.00316 0.0160298 -8.66562e-11)
(1.00343 0.0145972 -1.69541e-10)
(1.00365 0.0130664 -8.30773e-11)
(1.00383 0.0114567 1.23578e-27)
(1.00396 0.0097844 -2.79563e-27)
(1.00407 0.00806365 -4.92467e-27)
(1.00415 0.00630624 3.92164e-11)
(1.00421 0.00452227 1.16835e-10)
(1.00425 0.00272012 7.72652e-11)
(1.00426 0.000907717 7.75336e-11)
(0.997669 0.0169135 0)
(0.998321 0.0177706 0)
(0.998972 0.0184001 0)
(0.999594 0.0187156 0)
(1.00017 0.0187385 0)
(1.0007 0.0184966 0)
(1.00117 0.0180165 -3.25807e-27)
(1.00159 0.0173263 3.25807e-27)
(1.00195 0.0164538 0)
(1.00226 0.0154255 0)
(1.00252 0.0142658 3.52248e-27)
(1.00273 0.0129971 -3.52248e-27)
(1.00291 0.0116391 3.38705e-27)
(1.00305 0.0102089 -3.38705e-27)
(1.00316 0.00872152 3.28363e-27)
(1.00325 0.00718956 -3.28363e-27)
(1.00332 0.00562382 -3.93509e-11)
(1.00336 0.00403352 3.93509e-11)
(1.00339 0.00242637 0)
(1.00341 0.000809723 0)
(0.998184 0.0147595 0)
(0.99869 0.0155206 0)
(0.999195 0.0160814 6.25217e-28)
(0.999676 0.0163686 -6.25217e-28)
(1.00012 0.0163998 0)
(1.00053 0.0161987 0)
(1.0009 0.0157882 2.55815e-28)
(1.00122 0.0151924 -2.55815e-28)
(1.00151 0.0144353 0)
(1.00175 0.01354 0)
(1.00195 0.012528 0)
(1.00212 0.0114186 0)
(1.00226 0.0102292 4.1641e-11)
(1.00237 0.0089752 -4.1641e-11)
(1.00245 0.00766966 0)
(1.00252 0.0063239 0)
(1.00257 0.00494758 -7.90809e-11)
(1.00261 0.00354899 7.90809e-11)
(1.00263 0.00213508 2.10476e-28)
(1.00265 0.000712531 -2.11803e-28)
(0.998636 0.0126711 -1.10874e-10)
(0.999015 0.0133343 1.08723e-10)
(0.999392 0.0138238 1.06306e-10)
(0.999752 0.0140791 6.24828e-28)
(1.00009 0.014114 0)
(1.00039 0.0139487 0)
(1.00067 0.0136025 0)
(1.00091 0.0130958 0)
(1.00112 0.012449 0)
(1.0013 0.011682 -4.20009e-27)
(1.00146 0.0108131 0)
(1.00158 0.00985906 -1.58296e-27)
(1.00169 0.00883495 8.3574e-11)
(1.00177 0.00775398 -8.3574e-11)
(1.00184 0.00662763 0)
(1.00189 0.00546578 0)
(1.00193 0.00427688 -3.97034e-11)
(1.00196 0.00306825 -3.95244e-11)
(1.00197 0.00184599 -7.88053e-11)
(1.00198 0.000616063 2.12701e-28)
(0.999025 0.0106377 1.10878e-10)
(0.999295 0.0112013 -1.08723e-10)
(0.999563 0.0116178 -1.06306e-10)
(0.99982 0.0118381 0)
(1.00006 0.0118731 0)
(1.00028 0.0117394 0)
(1.00047 0.0114531 0)
(1.00065 0.011031 0)
(1.0008 0.0104903 -2.21351e-27)
(1.00093 0.00984752 6.41359e-27)
(1.00104 0.00911804 -3.55417e-27)
(1.00113 0.00831602 5.13714e-27)
(1.0012 0.00745414 4.19092e-11)
(1.00126 0.00654361 -4.19092e-11)
(1.00131 0.00559417 0)
(1.00135 0.00461423 0)
(1.00138 0.00361103 -3.98401e-11)
(1.0014 0.00259082 1.19068e-10)
(1.00141 0.00155883 7.88053e-11)
(1.00141 0.000520229 0)
(0.999349 0.00864885 -1.00765e-27)
(0.999529 0.00911203 1.00887e-27)
(0.999708 0.009454 0)
(0.999879 0.00963702 0)
(1.00004 0.00966912 0)
(1.00018 0.00956375 0)
(1.00031 0.0093337 0)
(1.00043 0.0089927 0)
(1.00053 0.00855456 0)
(1.00062 0.00803266 0)
(1.00069 0.00743955 0)
(1.00075 0.00678675 0)
(1.0008 0.00608464 4.20081e-11)
(1.00084 0.00534236 -4.20081e-11)
(1.00087 0.00456792 -7.50385e-28)
(1.0009 0.00376824 7.50385e-28)
(1.00092 0.00294927 -7.9902e-11)
(1.00093 0.0021162 7.9902e-11)
(1.00094 0.0012733 2.12724e-28)
(1.00094 0.000424937 -2.14065e-28)
(0.999609 0.00669517 0)
(0.999717 0.00705692 0)
(0.999824 0.00732348 0)
(0.999927 0.00746746 0)
(1.00002 0.00749441 0)
(1.00011 0.0074147 0)
(1.00019 0.00723819 0)
(1.00026 0.00697543 0)
(1.00032 0.00663708 0)
(1.00037 0.00623346 0)
(1.00041 0.0057743 8.03545e-28)
(1.00045 0.00526854 -8.03545e-28)
(1.00048 0.00472421 4.20839e-11)
(1.0005 0.00414845 -4.20839e-11)
(1.00052 0.00354749 7.51889e-28)
(1.00054 0.00292673 -7.51889e-28)
(1.00055 0.00229083 -8.00724e-11)
(1.00056 0.00164384 8.00724e-11)
(1.00056 0.000989118 -2.13191e-28)
(1.00056 0.000330091 2.14535e-28)
(0.999805 0.00476735 0)
(0.999859 0.00502684 0)
(0.999912 0.00521747 -5.24646e-11)
(0.999963 0.0053211 5.24646e-11)
(1.00001 0.00534125 0)
(1.00005 0.00528532 -6.60806e-27)
(1.00009 0.00516032 3.38096e-28)
(1.00013 0.00497375 3.49539e-27)
(1.00016 0.00473317 -2.59636e-27)
(1.00018 0.00444592 0)
(1.00021 0.00411893 2.48549e-27)
(1.00022 0.00375856 0)
(1.00024 0.00337057 0)
(1.00025 0.00296003 -2.35231e-27)
(1.00026 0.00253142 0)
(1.00027 0.00208858 3.01153e-27)
(1.00027 0.00163487 -4.00949e-11)
(1.00028 0.0011732 4.00949e-11)
(1.00028 0.000705936 2.94256e-27)
(1.00028 0.000235581 2.79007e-28)
(0.999932 0.00285628 -1.31339e-27)
(0.99995 0.00301262 1.31482e-27)