/*--------------------------------*- C++ -*----------------------------------*\
  =========                 |
  \\      /  F ield         | OpenFOAM: The Open Source CFD Toolbox
   \\    /   O peration     | Website:  https://openfoam.org
    \\  /    A nd           | Version:  7
     \\/     M anipulation  |
\*---------------------------------------------------------------------------*/
FoamFile
{
    version     2.0;
    format      ascii;
    class       volScalarField;
    location    "5";
    object      p;
}
// * * * * * * * * * * * * * * * * * * * * * * * * * * * * * * * * * * * * * //

dimensions      [0 2 -2 0 0 0 0];

internalField   nonuniform List<scalar> 
1360
(
-0.357457
-0.360063
-0.360399
-0.359314
-0.357084
-0.353843
-0.349713
-0.344797
-0.339182
-0.332941
-0.326144
-0.318859
-0.311155
-0.303113
-0.294822
-0.286377
-0.277849
-0.269332
-0.26123
-0.358153
-0.362552
-0.364484
-0.364334
-0.362854
-0.360298
-0.356792
-0.352446
-0.347354
-0.341592
-0.335227
-0.328313
-0.32091
-0.313076
-0.304878
-0.296403
-0.28774
-0.278895
-0.269864
-0.261755
-0.369682
-0.372371
-0.373007
-0.371906
-0.369645
-0.366439
-0.362397
-0.357612
-0.35216
-0.346098
-0.33947
-0.33232
-0.324684
-0.3166
-0.308113
-0.299298
-0.290239
-0.280836
-0.270891
-0.262674
-0.385953
-0.386276
-0.385081
-0.382607
-0.379202
-0.375028
-0.370179
-0.364726
-0.358716
-0.352184
-0.345155
-0.337644
-0.329664
-0.321224
-0.312342
-0.303075
-0.293504
-0.283415
-0.272323
-0.263755
-0.40604
-0.403513
-0.400066
-0.395858
-0.390981
-0.385548
-0.379635
-0.373285
-0.36652
-0.359348
-0.351766
-0.343764
-0.335328
-0.326438
-0.31708
-0.307288
-0.297134
-0.286325
-0.274022
-0.26473
-0.429074
-0.423373
-0.41736
-0.411133
-0.404517
-0.397573
-0.390367
-0.382916
-0.37521
-0.367229
-0.35894
-0.350306
-0.341287
-0.331836
-0.32191
-0.311516
-0.300717
-0.289168
-0.275671
-0.265196
-0.454352
-0.445264
-0.436475
-0.428029
-0.419479
-0.410837
-0.40216
-0.393434
-0.384619
-0.375659
-0.366495
-0.357062
-0.34729
-0.337111
-0.326456
-0.315299
-0.303669
-0.291162
-0.276317
-0.264273
-0.481323
-0.468715
-0.457024
-0.446248
-0.435651
-0.425194
-0.414916
-0.404776
-0.394693
-0.384584
-0.374359
-0.363933
-0.353225
-0.342158
-0.330663
-0.318698
-0.306214
-0.292733
-0.27701
-0.264191
-0.509454
-0.493243
-0.478616
-0.465487
-0.452809
-0.440475
-0.428501
-0.416806
-0.405275
-0.393793
-0.382256
-0.370577
-0.358691
-0.346571
-0.33423
-0.321739
-0.309197
-0.296819
-0.285743
-0.278054
-0.538047
-0.518234
-0.50072
-0.485296
-0.470559
-0.456312
-0.442534
-0.429099
-0.415852
-0.402653
-0.389385
-0.375962
-0.362331
-0.34848
-0.33444
-0.320275
-0.306072
-0.292097
-0.279225
-0.266641
-0.566062
-0.54276
-0.522514
-0.504923
-0.488184
-0.471982
-0.456252
-0.440825
-0.425521
-0.410192
-0.394737
-0.379099
-0.363264
-0.347263
-0.331162
-0.315049
-0.299023
-0.283291
-0.268272
-0.252816
-0.591983
-0.565478
-0.542771
-0.523195
-0.504512
-0.486277
-0.468381
-0.450634
-0.43286
-0.414946
-0.396844
-0.378564
-0.360162
-0.341732
-0.323391
-0.305261
-0.28746
-0.270161
-0.253591
-0.236747
-0.613791
-0.584577
-0.559805
-0.538466
-0.517883
-0.49749
-0.47716
-0.45673
-0.43608
-0.415188
-0.394108
-0.372956
-0.351883
-0.331058
-0.31065
-0.29081
-0.271665
-0.253366
-0.236035
-0.218865
-0.62902
-0.597821
-0.571498
-0.548643
-0.526188
-0.503487
-0.480457
-0.457024
-0.433202
-0.409113
-0.384959
-0.360977
-0.337415
-0.314503
-0.292435
-0.271357
-0.251377
-0.232592
-0.215027
-0.198048
-0.634903
-0.602656
-0.5754
-0.551301
-0.527012
-0.50189
-0.475977
-0.449382
-0.422315
-0.395094
-0.368081
-0.341632
-0.316062
-0.291623
-0.268494
-0.246784
-0.226543
-0.207789
-0.190449
-0.174107
-0.628593
-0.596407
-0.568915
-0.543879
-0.517853
-0.490314
-0.461531
-0.431876
-0.401812
-0.371865
-0.342545
-0.314289
-0.287433
-0.262203
-0.238724
-0.217035
-0.197114
-0.178877
-0.162173
-0.146903
-0.607425
-0.576517
-0.549542
-0.523942
-0.496401
-0.466657
-0.435302
-0.40303
-0.370575
-0.338655
-0.307879
-0.278713
-0.251458
-0.226275
-0.203204
-0.182203
-0.16317
-0.145917
-0.130249
-0.116489
-0.569202
-0.540827
-0.515164
-0.489467
-0.460821
-0.429361
-0.396071
-0.361987
-0.328093
-0.295242
-0.264085
-0.235052
-0.20837
-0.1841
-0.162188
-0.142511
-0.124886
-0.109025
-0.0947047
-0.0827153
-0.512468
-0.487848
-0.464314
-0.439116
-0.410005
-0.377627
-0.343376
-0.308607
-0.274494
-0.241957
-0.211618
-0.183827
-0.158701
-0.136196
-0.116168
-0.0984216
-0.0827107
-0.0686387
-0.0559851
-0.0461558
-0.43674
-0.416999
-0.396419
-0.372452
-0.343756
-0.311538
-0.277578
-0.243484
-0.210536
-0.179645
-0.15135
-0.125884
-0.103252
-0.0833063
-0.0658284
-0.0505747
-0.0372377
-0.0253263
-0.0146967
-0.00749028
-0.342663
-0.328767
-0.311955
-0.29008
-0.262861
-0.232097
-0.199858
-0.167903
-0.137544
-0.109611
-0.0845191
-0.0623755
-0.0430749
-0.0263897
-0.0120471
0.000225556
0.0107811
-0.232054
-0.224793
-0.212531
-0.193708
-0.169048
-0.141154
-0.112121
-0.0837677
-0.0573443
-0.0335576
-0.0126879
0.00527994
0.0205421
0.0333846
-0.107744
-0.107896
-0.10078
-0.0858371
-0.0651568
-0.0414163
-0.016943
0.00651224
0.027839
0.0464847
0.0623049
0.025914
0.0183375
0.0196708
0.0298203
0.0455352
0.0639063
0.0826506
0.100161
0.115501
0.164369
0.14922
0.144434
0.149124
0.159025
0.171116
0.18329
0.302214
0.279671
0.268651
0.26747
0.271011
0.433829
0.404348
0.387243
0.380099
0.553672
0.517964
0.495206
0.482361
0.656581
0.615582
0.58789
0.738048
0.692895
0.794468
0.746452
-0.254228
-0.246115
-0.237514
-0.228819
-0.220046
-0.21116
-0.202162
-0.19307
-0.183904
-0.174682
-0.165427
-0.156163
-0.146918
-0.137722
-0.128605
-0.119598
-0.110735
-0.102047
-0.0935639
-0.257533
-0.249658
-0.240635
-0.231763
-0.22298
-0.214114
-0.205137
-0.196072
-0.186936
-0.177745
-0.168516
-0.159274
-0.150043
-0.140854
-0.131735
-0.122719
-0.113838
-0.105123
-0.0966053
-0.263509
-0.25618
-0.246347
-0.237095
-0.228267
-0.219419
-0.210464
-0.201434
-0.192347
-0.18321
-0.174033
-0.164835
-0.15564
-0.146475
-0.137367
-0.128349
-0.11945
-0.110703
-0.102139
-0.271022
-0.264603
-0.253675
-0.243853
-0.234932
-0.22608
-0.217121
-0.208114
-0.19908
-0.190012
-0.18091
-0.171787
-0.16266
-0.153553
-0.144491
-0.135503
-0.126617
-0.117865
-0.109276
-0.100882
-0.278667
-0.273402
-0.261293
-0.250838
-0.241822
-0.232947
-0.223957
-0.214959
-0.205982
-0.197003
-0.188006
-0.178996
-0.169985
-0.16099
-0.152031
-0.143132
-0.13432
-0.125622
-0.117067
-0.108684
-0.284726
-0.280595
-0.267554
-0.256695
-0.247698
-0.238821
-0.22981
-0.220849
-0.211968
-0.203119
-0.194278
-0.185442
-0.176615
-0.167807
-0.15903
-0.150303
-0.141647
-0.133087
-0.124648
-0.116356
-0.108238
-0.287324
-0.28402
-0.270999
-0.26059
-0.251982
-0.243291
-0.234441
-0.225675
-0.217001
-0.208364
-0.199746
-0.191144
-0.18256
-0.173995
-0.165459
-0.156965
-0.14853
-0.140174
-0.131918
-0.123785
-0.115799
-0.107983
-0.284092
-0.279497
-0.268155
-0.259208
-0.25121
-0.242986
-0.234706
-0.226518
-0.218383
-0.210266
-0.202161
-0.194065
-0.185975
-0.177894
-0.169828
-0.161786
-0.153782
-0.145832
-0.137954
-0.130169
-0.122497
-0.114958
-0.107575
-0.256579
-0.256035
-0.25366
-0.249286
-0.243657
-0.237362
-0.230676
-0.223704
-0.216517
-0.209172
-0.201713
-0.194165
-0.186549
-0.178881
-0.171178
-0.163459
-0.155742
-0.148046
-0.140393
-0.132804
-0.125301
-0.117907
-0.110645
-0.103534
-0.237551
-0.237034
-0.233305
-0.22823
-0.222863
-0.217335
-0.211567
-0.205556
-0.199354
-0.193003
-0.186529
-0.179952
-0.173288
-0.166557
-0.159777
-0.152965
-0.146141
-0.139324
-0.132533
-0.12579
-0.119113
-0.112523
-0.106039
-0.0996791
-0.214235
-0.215424
-0.211862
-0.207355
-0.203097
-0.198817
-0.194246
-0.189368
-0.184252
-0.178943
-0.173467
-0.167845
-0.162099
-0.156252
-0.150325
-0.144338
-0.138313
-0.132269
-0.126226
-0.120204
-0.114223
-0.108301
-0.102456
-0.0967056
-0.191169
-0.193768
-0.19104
-0.187409
-0.184139
-0.180862
-0.177263
-0.173333
-0.169145
-0.164747
-0.160162
-0.155411
-0.150516
-0.145498
-0.140381
-0.135184
-0.129928
-0.124633
-0.119318
-0.114001
-0.108702
-0.103438
-0.0982251
-0.0930806
-0.169736
-0.173039
-0.171272
-0.168604
-0.166236
-0.163833
-0.1611
-0.158029
-0.154689
-0.151126
-0.147361
-0.143414
-0.139307
-0.135061
-0.130698
-0.126238
-0.121701
-0.117106
-0.112471
-0.107814
-0.103153
-0.0985053
-0.0938855
-0.0893093
-0.150404
-0.154028
-0.153168
-0.15142
-0.149861
-0.148217
-0.146241
-0.143924
-0.141332
-0.138504
-0.135465
-0.132232
-0.128826
-0.12527
-0.121583
-0.117785
-0.113896
-0.109932
-0.105913
-0.101855
-0.0977744
-0.0936869
-0.0896075
-0.0855505
-0.133505
-0.13718
-0.137042
-0.136072
-0.135185
-0.13417
-0.132826
-0.131149
-0.129195
-0.127001
-0.124589
-0.121978
-0.119187
-0.116237
-0.113148
-0.109937
-0.106623
-0.103223
-0.0997534
-0.0962307
-0.0926702
-0.0890865
-0.0854937
-0.0819052
-0.118983
-0.122521
-0.122913
-0.12256
-0.122211
-0.121702
-0.120875
-0.119729
-0.118311
-0.116655
-0.114779
-0.112702
-0.110443
-0.10802
-0.105451
-0.102754
-0.0999455
-0.0970413
-0.0940572
-0.0910082
-0.0879088
-0.0847726
-0.081613
-0.0784424
-0.106568
-0.109886
-0.110659
-0.110782
-0.110852
-0.110743
-0.110333
-0.109621
-0.108648
-0.107441
-0.106018
-0.104395
-0.10259
-0.10062
-0.098501
-0.096249
-0.0938798
-0.0914081
-0.0888484
-0.0862148
-0.0835207
-0.0807789
-0.0780017
-0.075201
-0.095982
-0.0990608
-0.100104
-0.100587
-0.100979
-0.101183
-0.101104
-0.100745
-0.100136
-0.0993008
-0.0982562
-0.0970164
-0.0955965
-0.0940121
-0.092278
-0.0904089
-0.0884189
-0.0863217
-0.0841306
-0.0818586
-0.0795182
-0.0771213
-0.0746796
-0.0722039
-0.0869791
-0.0898273
-0.0910604
-0.0918145
-0.0924518
-0.0928987
-0.0930823
-0.0930056
-0.0926931
-0.0921646
-0.0914339
-0.0905139
-0.0894181
-0.08816
-0.0867532
-0.0852108
-0.0835456
-0.0817702
-0.0798969
-0.0779375
-0.0759036
-0.0738064
-0.0716566
-0.0694646
-0.07935
-0.0819876
-0.0833551
-0.0843132
-0.0851372
-0.0857717
-0.086162
-0.0863105
-0.086238
-0.0859601
-0.0854883
-0.0848337
-0.0840083
-0.0830242
-0.0818934
-0.0806276
-0.0792385
-0.0777375
-0.0761359
-0.0744446
-0.0726743
-0.0708353
-0.0689377
-0.0669913
-0.0729215
-0.0753736
-0.0768365
-0.0779484
-0.0789142
-0.0796932
-0.0802456
-0.080574
-0.0806945
-0.0806196
-0.0803592
-0.079923
-0.0793216
-0.0785655
-0.0776653
-0.0766316
-0.075475
-0.0742059
-0.0728345
-0.0713709
-0.0698251
-0.0682065
-0.0665247
-0.0647887
-0.067554
-0.0698465
-0.0713774
-0.0726053
-0.0736787
-0.074569
-0.0752481
-0.0757185
-0.0759928
-0.0760811
-0.0759919
-0.0757338
-0.0753158
-0.0747473
-0.0740378
-0.0731967
-0.0722337
-0.0711581
-0.0699795
-0.068707
-0.06735
-0.0659173
-0.0644177
-0.0628599
-0.0631351
-0.0652937
-0.0668728
-0.0681879
-0.0693425
-0.0703178
-0.0710949
-0.0716766
-0.0720722
-0.0722902
-0.072338
-0.072223
-0.0719532
-0.071537
-0.0709827
-0.070299
-0.0694946
-0.068578
-0.0675582
-0.0664435
-0.0652427
-0.0639641
-0.0626159
-0.0612063
-0.059575
-0.0616244
-0.0632376
-0.0646176
-0.0658327
-0.066872
-0.0677239
-0.0683911
-0.0688809
-0.0692003
-0.0693557
-0.0693536
-0.0692011
-0.0689058
-0.0684753
-0.0679173
-0.06724
-0.0664512
-0.0655591
-0.0645718
-0.0634972
-0.0623433
-0.0611179
-0.0598287
-0.0568038
-0.0587673
-0.0604041
-0.0618315
-0.0630909
-0.0641773
-0.0650849
-0.0658163
-0.0663771
-0.0667734
-0.0670106
-0.0670947
-0.0670322
-0.0668298
-0.0664946
-0.0660339
-0.0654549
-0.0647652
-0.0639725
-0.0630842
-0.062108
-0.0610515
-0.0599221
-0.0587272
-0.0547686
-0.056669
-0.0583215
-0.0597818
-0.0610722
-0.0621918
-0.0631388
-0.063916
-0.0645278
-0.0649792
-0.0652754
-0.0654219
-0.0654246
-0.0652898
-0.065024
-0.0646341
-0.064127
-0.0635099
-0.0627899
-0.0619743
-0.0610705
-0.0600856
-0.0590269
-0.0579015
-0.0534255
-0.0552866
-0.0569504
-0.0584324
-0.0597429
-0.0608839
-0.0618564
-0.0626631
-0.0633079
-0.0637951
-0.0641295
-0.0643165
-0.0643617
-0.0642709
-0.0640504
-0.0637068
-0.0632468
-0.0626772
-0.0620049
-0.0612371
-0.0603807
-0.059443
-0.0584308
-0.0573511
-0.0527478
-0.0545915
-0.0562648
-0.0577599
-0.0590815
-0.0602337
-0.0612192
-0.0620407
-0.0627018
-0.0632068
-0.0635602
-0.0637672
-0.0638332
-0.0637641
-0.0635661
-0.0632454
-0.0628086
-0.0622624
-0.0616138
-0.0608696
-0.0600368
-0.0591223
-0.0581332
-0.0570763
-0.259585
-0.235731
-0.207232
-0.180893
-0.158764
-0.139921
-0.123916
-0.110449
-0.0990846
-0.089441
-0.0812493
-0.0743069
-0.0684534
-0.0635615
-0.0595302
-0.0562788
-0.0537444
-0.0518783
-0.0506381
-0.0500099
-0.234339
-0.212188
-0.188921
-0.165824
-0.146349
-0.129858
-0.115516
-0.103144
-0.0925586
-0.0835074
-0.0757795
-0.06921
-0.0636606
-0.0590158
-0.0551817
-0.0520832
-0.0496614
-0.0478695
-0.0466662
-0.0460496
-0.222426
-0.198569
-0.176814
-0.155019
-0.136009
-0.12013
-0.106576
-0.0949473
-0.0850307
-0.0765835
-0.0693849
-0.0632659
-0.0580936
-0.0537599
-0.0501778
-0.0472778
-0.0450057
-0.0433175
-0.0421755
-0.0415882
-0.208535
-0.182901
-0.161243
-0.1413
-0.123891
-0.109262
-0.0968432
-0.0861774
-0.0770315
-0.0692119
-0.0625358
-0.0568531
-0.0520441
-0.0480112
-0.0446746
-0.0419705
-0.0398487
-0.0382681
-0.0371947
-0.0366437
-0.192924
-0.167439
-0.146138
-0.127601
-0.111604
-0.098045
-0.0865496
-0.0767291
-0.0683235
-0.0611397
-0.0550098
-0.0497934
-0.0453783
-0.0416741
-0.0386079
-0.0361216
-0.0341693
-0.0327136
-0.0317255
-0.0312221
-0.174185
-0.149913
-0.129648
-0.112562
-0.0980883
-0.0858236
-0.0754127
-0.0665326
-0.058936
-0.0524377
-0.0468877
-0.0421622
-0.0381609
-0.0348028
-0.0320229
-0.0297689
-0.0279999
-0.0266824
-0.0257929
-0.0253462
-0.152548
-0.1304
-0.111998
-0.0966343
-0.0837313
-0.0728227
-0.0635552
-0.0556512
-0.0488936
-0.043113
-0.0381743
-0.0339681
-0.0304062
-0.0274169
-0.0249432
-0.0229392
-0.021369
-0.0202039
-0.0194261
-0.019044
-0.128123
-0.108743
-0.0928115
-0.0794924
-0.0683168
-0.0588977
-0.050898
-0.0440646
-0.0382138
-0.0332024
-0.0289156
-0.0252614
-0.0221653
-0.019567
-0.0174181
-0.0156802
-0.0143226
-0.0133218
-0.012666
-0.0123538
-0.101026
-0.084988
-0.0720457
-0.0611643
-0.0519651
-0.0441732
-0.037541
-0.0318545
-0.0269685
-0.0227721
-0.0191751
-0.0161042
-0.0134999
-0.0113141
-0.00950789
-0.00805053
-0.00691736
-0.00609049
-0.0055636
-0.00532571
-0.0709717
-0.0590426
-0.0496606
-0.0417419
-0.0348673
-0.028794
-0.0235952
-0.0191143
-0.0152451
-0.0119077
-0.00903665
-0.00657854
-0.00449
-0.00273577
-0.00128745
-0.000122424
0.00077759
0.00142484
0.00181933
0.00197963
-0.0388173
-0.031558
-0.0261255
-0.0210966
-0.0165802
-0.0125395
-0.00896751
-0.00582359
-0.00306487
-0.000653982
0.00144152
0.00324967
0.00479442
0.00609588
0.00717065
0.00803223
0.00869188
0.00915533
0.00941713
0.00950714
-0.00486805
-0.00246235
-0.00130937
0.000438372
0.00234062
0.00424366
0.0060864
0.00781771
0.00941023
0.0108517
0.012138
0.0132699
0.0142504
0.0150838
0.0157741
0.0163254
0.0167414
0.0170213
0.0171558
0.0171833
)
;

boundaryField
{
    inlet
    {
        type            zeroGradient;
    }
    outlet
    {
        type            fixedValue;
        value           nonuniform 0();
    }
    cylinder
    {
        type            zeroGradient;
    }
    top
    {
        type            symmetryPlane;
    }
    bottom
    {
        type            symmetryPlane;
    }
    defaultFaces
    {
        type            empty;
    }
    procBoundary5to1
    {
        type            processor;
        value           nonuniform List<scalar> 
42
(
-0.352159
-0.352159
-0.357457
-0.360063
-0.360399
-0.359314
-0.357084
-0.353843
-0.349713
-0.344797
-0.339182
-0.332941
-0.326144
-0.318859
-0.311155
-0.303113
-0.294822
-0.286377
-0.277849
-0.269332
-0.26123
0.823324
0.773848
-0.254228
-0.246115
-0.237514
-0.228819
-0.220046
-0.21116
-0.202162
-0.19307
-0.183904
-0.174682
-0.165427
-0.156163
-0.146918
-0.137722
-0.128605
-0.119598
-0.110735
-0.102047
-0.0935639
)
;
    }
    procBoundary5to4
    {
        type            processor;
        value           nonuniform List<scalar> 
49
(
0.0201975
0.0285291
0.0328855
0.0441093
0.0530023
0.0201975
0.0604489
0.0754162
0.0860778
0.0441093
0.0946046
0.12828
0.0754162
0.138474
0.194145
0.12828
0.202944
0.276277
0.194145
0.281413
0.276277
0.377121
0.377121
0.473116
0.569958
0.569958
0.661244
0.661244
0.712033
0.0304569
0.0276539
0.024329
0.0226311
0.0218023
0.0214926
0.0215281
0.0217721
0.0221327
0.0225498
0.0229829
0.0234046
0.0237961
0.0241441
0.0244391
0.0246746
0.0248461
0.0249461
0.0249627
0.0249389
)
;
    }
    procBoundary5to6
    {
        type            processor;
        value           nonuniform List<scalar> 
33
(
-0.0853157
-0.0883148
-0.0937873
-0.0937873
-0.0927094
-0.1005
-0.1005
-0.100319
-0.100319
-0.100361
-0.100361
-0.100368
-0.100368
-0.0965961
-0.0934615
-0.0910667
-0.0880194
-0.0847909
-0.0815293
-0.0783336
-0.0752728
-0.072388
-0.0697049
-0.0672402
-0.0650051
-0.0630073
-0.061252
-0.0597431
-0.0584832
-0.0574739
-0.0567163
-0.0562109
-0.0559583
)
;
    }
}


// ************************************************************************* //
