/*--------------------------------*- C++ -*----------------------------------*\
  =========                 |
  \\      /  F ield         | OpenFOAM: The Open Source CFD Toolbox
   \\    /   O peration     | Website:  https://openfoam.org
    \\  /    A nd           | Version:  7
     \\/     M anipulation  |
\*---------------------------------------------------------------------------*/
FoamFile
{
    version     2.0;
    format      ascii;
    class       volScalarField;
    location    "5";
    object      p;
}
// * * * * * * * * * * * * * * * * * * * * * * * * * * * * * * * * * * * * * //

dimensions      [0 2 -2 0 0 0 0];

internalField   nonuniform List<scalar> 
12150
(
-0.336503
-0.341532
-0.343506
-0.34389
-0.343163
-0.341408
-0.338748
-0.335303
-0.331175
-0.32646
-0.321255
-0.315661
-0.309765
-0.303592
-0.297388
-0.337946
-0.342755
-0.344584
-0.344847
-0.344013
-0.342163
-0.339418
-0.335894
-0.331691
-0.326904
-0.321627
-0.315963
-0.310011
-0.303761
-0.297336
-0.340808
-0.345183
-0.346723
-0.346748
-0.345699
-0.343659
-0.340743
-0.337062
-0.332711
-0.32778
-0.322359
-0.316559
-0.310509
-0.304187
-0.297155
-0.345044
-0.348778
-0.34989
-0.34956
-0.348193
-0.345869
-0.342698
-0.338782
-0.33421
-0.329063
-0.323428
-0.317426
-0.31117
-0.304462
-0.297547
-0.350589
-0.353488
-0.354039
-0.353243
-0.351454
-0.348756
-0.345248
-0.341021
-0.336156
-0.330722
-0.324804
-0.318534
-0.312017
-0.304889
-0.29782
-0.357362
-0.35925
-0.359116
-0.357746
-0.355437
-0.352275
-0.34835
-0.343739
-0.338512
-0.332725
-0.326455
-0.319847
-0.313005
-0.305385
-0.297961
-0.365277
-0.365995
-0.365054
-0.36301
-0.360088
-0.356379
-0.351961
-0.346899
-0.341244
-0.335042
-0.328355
-0.321338
-0.314101
-0.305895
-0.297959
-0.374238
-0.373649
-0.371781
-0.368975
-0.365354
-0.361019
-0.356038
-0.350461
-0.344321
-0.337648
-0.330486
-0.322994
-0.315291
-0.306398
-0.297762
-0.384151
-0.382103
-0.379255
-0.375586
-0.371183
-0.366151
-0.360545
-0.354396
-0.347722
-0.34053
-0.332843
-0.324817
-0.316577
-0.306886
-0.297322
-0.394921
-0.391314
-0.387382
-0.382779
-0.377526
-0.371734
-0.365449
-0.358683
-0.351435
-0.343688
-0.335437
-0.326826
-0.317977
-0.307368
-0.296582
-0.40646
-0.401198
-0.396103
-0.390502
-0.384338
-0.377733
-0.370725
-0.363306
-0.355455
-0.34713
-0.338292
-0.32906
-0.319544
-0.307904
-0.295548
-0.41868
-0.411679
-0.405359
-0.398705
-0.39158
-0.384121
-0.376354
-0.368257
-0.359787
-0.350875
-0.341444
-0.331577
-0.321357
-0.308591
-0.294266
-0.431494
-0.422683
-0.415089
-0.407338
-0.399214
-0.39087
-0.382322
-0.373531
-0.364437
-0.354944
-0.344934
-0.334435
-0.323443
-0.309286
-0.292358
-0.444815
-0.434137
-0.425229
-0.416352
-0.407205
-0.397955
-0.388612
-0.379125
-0.369417
-0.359376
-0.348855
-0.337806
-0.325926
-0.309721
-0.289289
-0.458549
-0.445958
-0.435714
-0.425696
-0.415512
-0.405346
-0.395203
-0.385023
-0.374727
-0.364213
-0.353371
-0.34214
-0.329899
-0.313043
-0.292781
-0.472593
-0.458061
-0.446471
-0.435308
-0.424085
-0.413
-0.402053
-0.391176
-0.380301
-0.369369
-0.358382
-0.347418
-0.336357
-0.326727
-0.330244
-0.486828
-0.470343
-0.457413
-0.445116
-0.43286
-0.420856
-0.409094
-0.397496
-0.385997
-0.374566
-0.363267
-0.352239
-0.341536
-0.333611
-0.338444
-0.501118
-0.482686
-0.468438
-0.455029
-0.441757
-0.428835
-0.416239
-0.403874
-0.391669
-0.379598
-0.367731
-0.356204
-0.345111
-0.336616
-0.337475
-0.515301
-0.49495
-0.479421
-0.464935
-0.450669
-0.436831
-0.423373
-0.41018
-0.397164
-0.384286
-0.371595
-0.359186
-0.34714
-0.337153
-0.333373
-0.529187
-0.506969
-0.490212
-0.474695
-0.459461
-0.444704
-0.430349
-0.416249
-0.402297
-0.388433
-0.374669
-0.361049
-0.347613
-0.335607
-0.32738
-0.542554
-0.518546
-0.500632
-0.484139
-0.467966
-0.452283
-0.436982
-0.421885
-0.406861
-0.391829
-0.376771
-0.361689
-0.346593
-0.332373
-0.320226
-0.555148
-0.529455
-0.51047
-0.493064
-0.475979
-0.459358
-0.443053
-0.426858
-0.410624
-0.394259
-0.377728
-0.361019
-0.344142
-0.327737
-0.312312
-0.566677
-0.539437
-0.519482
-0.501231
-0.483263
-0.465683
-0.448309
-0.430912
-0.413338
-0.395499
-0.377368
-0.358949
-0.340284
-0.32185
-0.303786
-0.57682
-0.548203
-0.527394
-0.508371
-0.489546
-0.470983
-0.452472
-0.433773
-0.414744
-0.395324
-0.37552
-0.355382
-0.335006
-0.314769
-0.294651
-0.585225
-0.555434
-0.533902
-0.514185
-0.494526
-0.474954
-0.455239
-0.43515
-0.414577
-0.393511
-0.372017
-0.350213
-0.328263
-0.306482
-0.284828
-0.591517
-0.560789
-0.538679
-0.518347
-0.49788
-0.477274
-0.456296
-0.434747
-0.412574
-0.389842
-0.366695
-0.343333
-0.31999
-0.296939
-0.274197
-0.595306
-0.563911
-0.541377
-0.520514
-0.499266
-0.477606
-0.455323
-0.432272
-0.408483
-0.384114
-0.359404
-0.334637
-0.310115
-0.286071
-0.262626
-0.596195
-0.564431
-0.541639
-0.520333
-0.498337
-0.475617
-0.452007
-0.427446
-0.402069
-0.376142
-0.350007
-0.32403
-0.298564
-0.273802
-0.249985
-0.593793
-0.561983
-0.539105
-0.517449
-0.494746
-0.470977
-0.44605
-0.420012
-0.393122
-0.365769
-0.33839
-0.31143
-0.285273
-0.260061
-0.236158
-0.58772
-0.556207
-0.533426
-0.511518
-0.488163
-0.463381
-0.437181
-0.409744
-0.381469
-0.352866
-0.324467
-0.296776
-0.270191
-0.244791
-0.221056
-0.577625
-0.546767
-0.524268
-0.502216
-0.478282
-0.452551
-0.425163
-0.396455
-0.366971
-0.337343
-0.308181
-0.280031
-0.253288
-0.227956
-0.204609
-0.563195
-0.533356
-0.511331
-0.489251
-0.464832
-0.438252
-0.409808
-0.380004
-0.349537
-0.319146
-0.289506
-0.261185
-0.234557
-0.209542
-0.18678
-0.544162
-0.515712
-0.494353
-0.472376
-0.447592
-0.420301
-0.390976
-0.360303
-0.329121
-0.298264
-0.268452
-0.240252
-0.21401
-0.189557
-0.167539
-0.520323
-0.493626
-0.473128
-0.451396
-0.426396
-0.39857
-0.368589
-0.337316
-0.305727
-0.27473
-0.245064
-0.217279
-0.191679
-0.168003
-0.146778
-0.49154
-0.46695
-0.44751
-0.426181
-0.401141
-0.373
-0.342628
-0.311069
-0.279412
-0.248622
-0.219433
-0.192357
-0.167657
-0.144933
-0.124235
-0.457755
-0.435609
-0.417422
-0.396671
-0.371798
-0.343596
-0.313141
-0.28164
-0.250283
-0.220061
-0.191689
-0.16563
-0.142125
-0.120609
-0.100119
-0.41899
-0.399606
-0.382867
-0.362883
-0.33841
-0.310436
-0.280236
-0.249168
-0.21849
-0.189207
-0.161991
-0.137247
-0.115182
-0.0948472
-0.0762762
-0.375358
-0.359028
-0.343927
-0.324912
-0.301097
-0.273669
-0.244088
-0.21384
-0.18423
-0.156253
-0.130537
-0.107439
-0.0869839
-0.0681709
-0.0515281
-0.327064
-0.314048
-0.30077
-0.282937
-0.260059
-0.233517
-0.204923
-0.175894
-0.147731
-0.121424
-0.0975285
-0.076342
-0.0577813
-0.0407536
-0.0259604
-0.274403
-0.264925
-0.253651
-0.237229
-0.215563
-0.19027
-0.163004
-0.135593
-0.109272
-0.0849703
-0.0631968
-0.044183
-0.0277709
-0.0127613
0.000144533
-0.217765
-0.211998
-0.20291
-0.188143
-0.167905
-0.144198
-0.118734
-0.0932801
-0.069136
-0.0471575
-0.0277853
-0.0111902
0.00284042
0.0155937
0.0264677
-0.157596
-0.155706
-0.148943
-0.135969
-0.117615
-0.0957851
-0.0724316
-0.049292
-0.0276416
-0.00826779
0.0084548
0.0224112
0.0338475
0.0440644
0.0526087
-0.0943478
-0.0966302
-0.0922552
-0.0813109
-0.0650579
-0.0454457
-0.0245208
-0.00400634
0.0148773
0.0314097
0.0452732
0.0564024
0.0650322
0.0722741
0.0779094
-0.0288412
-0.0352097
-0.0333968
-0.0246826
-0.0107669
0.00633515
0.0245461
0.0421771
0.058077
0.0715923
0.0824547
0.0906396
0.0962605
0.0998033
0.101399
0.0383301
0.0278616
0.0270156
0.0333334
0.04469
0.0590325
0.0742909
0.0888349
0.101599
0.112005
0.11985
0.125171
0.127842
0.12724
0.123935
0.106451
0.0918888
0.088323
0.0921062
0.100715
0.112092
0.124207
0.135511
0.145043
0.152319
0.15724
0.159976
0.160196
0.156317
0.153943
0.17475
0.15615
0.149833
0.150974
0.156686
0.164937
0.173764
0.18172
0.187953
0.192086
0.19412
0.194304
0.192396
0.187499
0.186072
0.242437
0.219899
0.210829
0.209259
0.211968
0.216981
0.222426
0.226967
0.229865
0.230844
0.229974
0.22753
0.223352
0.217066
0.214596
0.308712
0.282378
0.270586
0.266274
0.265926
0.267644
0.269666
0.270773
0.27034
0.268179
0.264416
0.259334
0.252843
0.244841
0.24047
0.372783
0.342829
0.328384
0.321343
0.317933
0.316357
0.314971
0.31268
0.308966
0.303721
0.297112
0.289428
0.280635
0.270783
0.264252
0.433873
0.400515
0.383515
0.373804
0.367384
0.362572
0.357854
0.352256
0.345362
0.337133
0.32777
0.317561
0.30652
0.294792
0.286048
0.491238
0.45472
0.435303
0.423025
0.413702
0.405774
0.397858
0.389099
0.379176
0.368112
0.356132
0.343523
0.330338
0.31678
0.305872
0.544173
0.504771
0.483106
0.46841
0.456345
0.445478
0.434557
0.422837
0.410088
0.396382
0.381966
0.367123
0.351943
0.33666
0.323696
0.592026
0.550041
0.52633
0.509409
0.494816
0.481244
0.467563
0.453135
0.437805
0.421694
0.405062
0.388189
0.371197
0.354333
0.339473
0.634205
0.589961
0.564436
0.545525
0.528666
0.512672
0.496528
0.479689
0.462068
0.443825
0.425231
0.406564
0.387972
0.369702
0.353145
0.670187
0.62403
0.596948
0.576318
0.5575
0.539415
0.521147
0.502235
0.482649
0.462579
0.442307
0.422106
0.402149
0.382673
0.364652
0.699526
0.651816
0.62346
0.601414
0.580981
0.561173
0.541161
0.520549
0.499353
0.47779
0.456146
0.434694
0.413625
0.393162
0.373936
0.721856
0.67297
0.64364
0.620508
0.598836
0.577707
0.556359
0.534447
0.512022
0.48932
0.466632
0.444227
0.422312
0.401096
0.380947
0.736899
0.687223
0.657235
0.633367
0.610856
0.588833
0.566581
0.54379
0.520536
0.497066
0.473673
0.450626
0.428142
0.406419
0.385644
0.744468
0.694395
0.664076
0.639837
0.616901
0.594427
0.571719
0.548485
0.524813
0.500957
0.477209
0.453839
0.431069
0.40909
0.388
0.744468
0.694395
0.664076
0.639837
0.616901
0.594427
0.571719
0.548485
0.524813
0.500957
0.477209
0.453839
0.431069
0.40909
0.388
0.736899
0.687223
0.657235
0.633367
0.610856
0.588833
0.566581
0.54379
0.520536
0.497066
0.473673
0.450626
0.428142
0.406419
0.385644
0.721856
0.67297
0.64364
0.620508
0.598836
0.577707
0.556359
0.534447
0.512022
0.48932
0.466632
0.444227
0.422312
0.401096
0.380947
0.699526
0.651816
0.62346
0.601414
0.580981
0.561173
0.541161
0.520549
0.499353
0.47779
0.456146
0.434694
0.413625
0.393162
0.373936
0.670187
0.62403
0.596948
0.576318
0.5575
0.539415
0.521147
0.502235
0.482649
0.462579
0.442307
0.422106
0.402149
0.382673
0.364652
0.634205
0.589961
0.564436
0.545525
0.528666
0.512672
0.496528
0.479689
0.462068
0.443825
0.425231
0.406564
0.387972
0.369702
0.353145
0.592026
0.550041
0.52633
0.509409
0.494816
0.481244
0.467563
0.453135
0.437805
0.421694
0.405062
0.388189
0.371197
0.354333
0.339473
0.544173
0.504771
0.483106
0.46841
0.456345
0.445478
0.434557
0.422837
0.410088
0.396382
0.381966
0.367123
0.351943
0.33666
0.323696
0.491238
0.45472
0.435303
0.423025
0.413701
0.405774
0.397858
0.389098
0.379176
0.368112
0.356132
0.343523
0.330338
0.31678
0.305872
0.433873
0.400515
0.383515
0.373804
0.367384
0.362572
0.357854
0.352256
0.345362
0.337133
0.32777
0.317561
0.30652
0.294792
0.286048
0.372783
0.342829
0.328383
0.321343
0.317933
0.316356
0.314971
0.31268
0.308966
0.303721
0.297112
0.289428
0.280635
0.270783
0.264252
0.308712
0.282378
0.270586
0.266274
0.265926
0.267644
0.269666
0.270773
0.27034
0.268179
0.264416
0.259334
0.252843
0.244841
0.24047
0.242437
0.219899
0.210829
0.209259
0.211968
0.216981
0.222426
0.226967
0.229865
0.230844
0.229974
0.22753
0.223352
0.217066
0.214596
0.17475
0.15615
0.149833
0.150974
0.156686
0.164937
0.173764
0.18172
0.187953
0.192086
0.19412
0.194304
0.192396
0.187499
0.186072
0.106451
0.0918888
0.088323
0.0921062
0.100715
0.112092
0.124207
0.135511
0.145042
0.152319
0.15724
0.159976
0.160196
0.156317
0.153943
0.03833
0.0278616
0.0270155
0.0333334
0.0446899
0.0590325
0.0742909
0.0888348
0.101599
0.112005
0.11985
0.125171
0.127842
0.12724
0.123935
-0.0288412
-0.0352098
-0.0333969
-0.0246826
-0.0107669
0.00633513
0.0245461
0.042177
0.058077
0.0715922
0.0824547
0.0906396
0.0962605
0.0998032
0.101399
-0.0943479
-0.0966302
-0.0922552
-0.0813109
-0.0650579
-0.0454457
-0.0245208
-0.00400636
0.0148773
0.0314096
0.0452732
0.0564024
0.0650321
0.0722741
0.0779094
-0.157597
-0.155706
-0.148943
-0.135969
-0.117615
-0.0957851
-0.0724317
-0.0492921
-0.0276416
-0.00826781
0.00845478
0.0224112
0.0338475
0.0440644
0.0526087
-0.217765
-0.211998
-0.20291
-0.188143
-0.167905
-0.144198
-0.118734
-0.0932801
-0.069136
-0.0471575
-0.0277853
-0.0111902
0.0028404
0.0155936
0.0264677
-0.274403
-0.264925
-0.253651
-0.237229
-0.215563
-0.19027
-0.163004
-0.135593
-0.109272
-0.0849703
-0.0631968
-0.0441831
-0.0277709
-0.0127613
0.000144515
-0.327064
-0.314048
-0.30077
-0.282937
-0.26006
-0.233517
-0.204923
-0.175894
-0.147731
-0.121424
-0.0975285
-0.0763421
-0.0577813
-0.0407536
-0.0259604
-0.375358
-0.359029
-0.343927
-0.324912
-0.301097
-0.273669
-0.244088
-0.21384
-0.18423
-0.156253
-0.130537
-0.107439
-0.0869839
-0.0681709
-0.0515281
-0.41899
-0.399606
-0.382867
-0.362883
-0.33841
-0.310436
-0.280236
-0.249168
-0.21849
-0.189207
-0.161991
-0.137247
-0.115182
-0.0948472
-0.0762762
-0.457755
-0.435609
-0.417422
-0.396671
-0.371798
-0.343596
-0.313141
-0.28164
-0.250283
-0.220061
-0.191689
-0.16563
-0.142125
-0.120609
-0.100119
-0.49154
-0.46695
-0.44751
-0.426181
-0.401141
-0.373
-0.342628
-0.311069
-0.279412
-0.248622
-0.219433
-0.192357
-0.167657
-0.144933
-0.124235
-0.520323
-0.493626
-0.473129
-0.451396
-0.426396
-0.39857
-0.368589
-0.337316
-0.305727
-0.27473
-0.245064
-0.217279
-0.191679
-0.168003
-0.146778
-0.544162
-0.515712
-0.494353
-0.472376
-0.447592
-0.420301
-0.390976
-0.360303
-0.329121
-0.298264
-0.268452
-0.240252
-0.21401
-0.189557
-0.167539
-0.563195
-0.533356
-0.511331
-0.489251
-0.464832
-0.438252
-0.409808
-0.380004
-0.349537
-0.319146
-0.289506
-0.261185
-0.234557
-0.209542
-0.18678
-0.577625
-0.546767
-0.524268
-0.502216
-0.478282
-0.452551
-0.425163
-0.396455
-0.366971
-0.337343
-0.308181
-0.280031
-0.253288
-0.227956
-0.204609
-0.58772
-0.556207
-0.533426
-0.511518
-0.488163
-0.463381
-0.437181
-0.409744
-0.381469
-0.352866
-0.324467
-0.296776
-0.270191
-0.244791
-0.221056
-0.593793
-0.561983
-0.539105
-0.517449
-0.494746
-0.470977
-0.44605
-0.420012
-0.393122
-0.365769
-0.33839
-0.31143
-0.285273
-0.260061
-0.236159
-0.596195
-0.564432
-0.541639
-0.520333
-0.498337
-0.475617
-0.452007
-0.427446
-0.402069
-0.376142
-0.350007
-0.32403
-0.298564
-0.273802
-0.249985
-0.595306
-0.563911
-0.541377
-0.520514
-0.499266
-0.477606
-0.455323
-0.432272
-0.408483
-0.384114
-0.359404
-0.334637
-0.310115
-0.286071
-0.262626
-0.591517
-0.560789
-0.538679
-0.518347
-0.49788
-0.477274
-0.456296
-0.434747
-0.412574
-0.389842
-0.366696
-0.343333
-0.319991
-0.296939
-0.274197
-0.585225
-0.555434
-0.533902
-0.514185
-0.494526
-0.474954
-0.455239
-0.43515
-0.414577
-0.393511
-0.372017
-0.350213
-0.328263
-0.306482
-0.284828
-0.57682
-0.548203
-0.527394
-0.508371
-0.489546
-0.470983
-0.452472
-0.433773
-0.414744
-0.395324
-0.37552
-0.355382
-0.335006
-0.314769
-0.294651
-0.566677
-0.539437
-0.519482
-0.501231
-0.483263
-0.465683
-0.448309
-0.430913
-0.413338
-0.395499
-0.377368
-0.358949
-0.340284
-0.32185
-0.303786
-0.555148
-0.529455
-0.51047
-0.493064
-0.475979
-0.459358
-0.443053
-0.426858
-0.410624
-0.394259
-0.377728
-0.361019
-0.344142
-0.327737
-0.312312
-0.542554
-0.518546
-0.500632
-0.48414
-0.467966
-0.452283
-0.436982
-0.421885
-0.406861
-0.391829
-0.376771
-0.361689
-0.346593
-0.332373
-0.320226
-0.529187
-0.506969
-0.490212
-0.474695
-0.459461
-0.444704
-0.430349
-0.416249
-0.402297
-0.388433
-0.374669
-0.361049
-0.347613
-0.335607
-0.32738
-0.515301
-0.49495
-0.479421
-0.464935
-0.450669
-0.436831
-0.423373
-0.41018
-0.397164
-0.384286
-0.371595
-0.359186
-0.347141
-0.337153
-0.333373
-0.501118
-0.482686
-0.468438
-0.455029
-0.441757
-0.428835
-0.416239
-0.403874
-0.391669
-0.379598
-0.367731
-0.356204
-0.345111
-0.336616
-0.337475
-0.486828
-0.470343
-0.457413
-0.445116
-0.43286
-0.420856
-0.409094
-0.397496
-0.385997
-0.374566
-0.363267
-0.352239
-0.341536
-0.333611
-0.338444
-0.472593
-0.458061
-0.446471
-0.435308
-0.424085
-0.413
-0.402053
-0.391176
-0.380302
-0.369369
-0.358382
-0.347418
-0.336357
-0.326727
-0.330244
-0.458549
-0.445958
-0.435714
-0.425696
-0.415512
-0.405346
-0.395203
-0.385023
-0.374727
-0.364213
-0.353371
-0.34214
-0.329899
-0.313044
-0.292781
-0.444815
-0.434137
-0.425229
-0.416352
-0.407205
-0.397955
-0.388612
-0.379125
-0.369417
-0.359376
-0.348855
-0.337806
-0.325926
-0.309721
-0.289289
-0.431494
-0.422683
-0.415089
-0.407338
-0.399214
-0.39087
-0.382322
-0.373531
-0.364437
-0.354944
-0.344934
-0.334435
-0.323443
-0.309286
-0.292358
-0.41868
-0.411679
-0.405359
-0.398705
-0.39158
-0.384121
-0.376354
-0.368257
-0.359787
-0.350875
-0.341444
-0.331577
-0.321357
-0.308592
-0.294266
-0.40646
-0.401198
-0.396103
-0.390502
-0.384338
-0.377734
-0.370725
-0.363306
-0.355455
-0.34713
-0.338292
-0.32906
-0.319544
-0.307904
-0.295548
-0.394922
-0.391314
-0.387382
-0.382779
-0.377526
-0.371734
-0.365449
-0.358683
-0.351435
-0.343688
-0.335437
-0.326826
-0.317977
-0.307368
-0.296582
-0.384151
-0.382103
-0.379255
-0.375586
-0.371183
-0.366151
-0.360545
-0.354396
-0.347722
-0.34053
-0.332843
-0.324817
-0.316577
-0.306886
-0.297322
-0.374238
-0.373649
-0.371781
-0.368975
-0.365354
-0.361019
-0.356038
-0.350461
-0.344321
-0.337648
-0.330486
-0.322994
-0.315291
-0.306398
-0.297762
-0.365277
-0.365995
-0.365054
-0.36301
-0.360088
-0.356379
-0.351961
-0.346899
-0.341244
-0.335042
-0.328355
-0.321338
-0.314101
-0.305895
-0.297959
-0.357363
-0.35925
-0.359116
-0.357746
-0.355437
-0.352275
-0.34835
-0.343739
-0.338512
-0.332725
-0.326455
-0.319847
-0.313005
-0.305385
-0.297961
-0.350589
-0.353488
-0.354039
-0.353243
-0.351454
-0.348756
-0.345248
-0.341021
-0.336156
-0.330722
-0.324804
-0.318534
-0.312017
-0.304889
-0.29782
-0.345044
-0.348778
-0.34989
-0.34956
-0.348193
-0.345869
-0.342698
-0.338782
-0.33421
-0.329063
-0.323428
-0.317426
-0.31117
-0.304462
-0.297547
-0.340808
-0.345183
-0.346723
-0.346748
-0.345699
-0.343659
-0.340743
-0.337062
-0.332711
-0.32778
-0.322359
-0.316559
-0.310509
-0.304187
-0.297155
-0.337946
-0.342755
-0.344584
-0.344847
-0.344013
-0.342163
-0.339418
-0.335894
-0.331691
-0.326904
-0.321627
-0.315963
-0.310011
-0.303761
-0.297336
-0.336503
-0.341532
-0.343506
-0.34389
-0.343163
-0.341408
-0.338748
-0.335303
-0.331175
-0.32646
-0.321255
-0.315661
-0.309765
-0.303592
-0.297388
-0.290265
-0.276183
-0.263318
-0.248788
-0.23363
-0.21781
-0.201497
-0.184893
-0.1682
-0.151619
-0.135343
-0.119546
-0.104381
-0.0899707
-0.0764142
-0.0637815
-0.0521177
-0.0414452
-0.031767
-0.0230696
-0.0153268
-0.00850178
-0.00255012
0.00257836
0.00693782
0.010585
0.0135783
0.0159763
0.0178377
0.0192202
0.02018
0.0207714
0.021046
0.0210526
0.0208366
0.0204396
0.0198995
0.0192499
0.0185202
0.017736
0.0169187
0.0160861
0.0152525
0.0144293
0.0136251
0.0128463
0.0120973
0.011381
0.0106987
0.0100511
0.00943795
0.0088584
0.00831125
0.007795
0.007308
0.00684849
0.00641468
0.00600481
0.00561714
0.00525
0.00490181
0.00457103
0.00425627
0.00395584
0.0036697
0.00339553
0.00313244
0.00287946
0.00263565
0.00240014
0.00217204
0.00195058
0.00173482
0.00152457
0.00131749
0.00111808
0.00090982
0.000741583
0.000459767
0.000536988
-0.291516
-0.276586
-0.264026
-0.249485
-0.234304
-0.218493
-0.202189
-0.18559
-0.1689
-0.152317
-0.136036
-0.120229
-0.10505
-0.0906225
-0.0770454
-0.0643894
-0.0526998
-0.0419998
-0.0322925
-0.0235652
-0.0157917
-0.00893589
-0.00295351
0.0022053
0.00659444
0.0102704
0.0132914
0.0157158
0.0176023
0.0190083
0.0199901
0.0206018
0.0208951
0.0209188
0.0207183
0.0203353
0.0198077
0.0191692
0.0184495
0.017674
0.0168644
0.0160386
0.0152109
0.0143929
0.0135932
0.0128184
0.0120729
0.0113595
0.0106798
0.0100345
0.0094233
0.00884547
0.00829982
0.00778488
0.00729901
0.0068405
0.00640757
0.00599846
0.00561147
0.00524493
0.00489727
0.00456697
0.00425266
0.00395323
0.00366659
0.00339284
0.00313004
0.0028773
0.0026337
0.00239841
0.00217051
0.00194923
0.00173363
0.00152352
0.00131657
0.00111729
0.00090913
0.000740992
0.0004593
0.000536324
-0.293798
-0.277808
-0.26521
-0.250795
-0.235614
-0.219823
-0.203537
-0.186951
-0.170266
-0.153683
-0.137392
-0.121569
-0.106364
-0.091904
-0.0782877
-0.0655866
-0.0538473
-0.0430936
-0.0333297
-0.0245438
-0.0167104
-0.00979415
-0.00375143
0.00146702
0.00591455
0.00964726
0.0127228
0.0151994
0.0171353
0.0185878
0.019613
0.020265
0.0205953
0.0206528
0.020483
0.0201277
0.0196249
0.0190086
0.0183086
0.0175505
0.0167562
0.0159438
0.015128
0.0143203
0.0135297
0.0127627
0.012024
0.0113166
0.0106421
0.0100013
0.00939406
0.00881966
0.00827699
0.00776466
0.00728107
0.00682455
0.00639336
0.00598579
0.00560014
0.00523479
0.00488819
0.00455884
0.00424536
0.00394644
0.00366009
0.00338744
0.00312526
0.00287298
0.00262982
0.00239496
0.00216744
0.00194652
0.00173125
0.00152144
0.00131475
0.00111571
0.000907754
0.000739811
0.000458369
0.000534996
-0.296673
-0.279608
-0.267009
-0.252677
-0.237493
-0.221731
-0.205474
-0.188909
-0.172239
-0.155659
-0.139359
-0.123515
-0.108277
-0.0937728
-0.080102
-0.0673377
-0.0555278
-0.0446974
-0.0348522
-0.0259816
-0.0180614
-0.0110573
-0.00492673
0.000378693
0.00491153
0.00872717
0.0118826
0.0144357
0.0164442
0.0179651
0.0190541
0.0197653
0.0201502
0.0202576
0.0201332
0.0198188
0.0193528
0.0187694
0.0180985
0.0173663
0.0165948
0.0158024
0.0150041
0.0142118
0.0134346
0.0126794
0.0119509
0.0112524
0.0105857
0.00995168
0.00935032
0.00878105
0.00824285
0.00773441
0.00725423
0.00680068
0.0063721
0.00596682
0.00558319
0.00521962
0.00487459
0.00454665
0.00423439
0.00393635
0.00364993
0.00337928
0.00311811
0.00286654
0.00262399
0.00238978
0.00216284
0.00194246
0.00172767
0.00151831
0.00131201
0.00111334
0.000905697
0.00073804
0.000456985
0.000533001
-0.300437
-0.281851
-0.269274
-0.25503
-0.239844
-0.224121
-0.207906
-0.191377
-0.174731
-0.158164
-0.141861
-0.125997
-0.110724
-0.0961694
-0.0824341
-0.069593
-0.0576959
-0.0467698
-0.0368224
-0.0278447
-0.0198142
-0.0126981
-0.00645509
-0.0010381
0.00360439
0.00752683
0.0107855
0.0134374
0.0155397
0.0171492
0.0183211
0.0191093
0.0195652
0.0197377
0.0196724
0.0194116
0.0189938
0.0184534
0.0178208
0.0171226
0.0163811
0.0156151
0.01484
0.014068
0.0133086
0.0125689
0.011854
0.0111673
0.0105109
0.00988578
0.00929223
0.00872976
0.00819749
0.00769423
0.00721857
0.00676898
0.00634386
0.00594161
0.00556066
0.00519945
0.00485651
0.00453044
0.00421987
0.00392369
0.00364199
0.00336859
0.00310847
0.00285796
0.00261626
0.00238291
0.00215673
0.00193706
0.00172293
0.00151415
0.00130838
0.0011102
0.000902972
0.000735682
0.000455161
0.000530333
-0.304879
-0.284481
-0.271888
-0.25774
-0.242554
-0.226878
-0.210721
-0.194245
-0.177642
-0.161102
-0.144808
-0.128933
-0.113628
-0.0990222
-0.0852179
-0.072292
-0.0602964
-0.0492607
-0.0391947
-0.0300917
-0.0219315
-0.0146829
-0.00830646
-0.00275664
0.00201675
0.00606699
0.0094493
0.0122199
0.0144354
0.0161516
0.0174237
0.0183051
0.0188471
0.0190986
0.0191055
0.01891
0.0185509
0.0180632
0.0174776
0.0168211
0.0161165
0.015383
0.0146365
0.0138896
0.0131522
0.0124317
0.0117335
0.0110614
0.0104178
0.00980384
0.00921998
0.00866597
0.00814108
0.00764425
0.00717421
0.00672953
0.00630872
0.00591025
0.00553261
0.00517434
0.004834
0.00451023
0.00420175
0.00390742
0.00362644
0.00335569
0.00309616
0.00284704
0.00260655
0.00237438
0.00214913
0.00193035
0.00171702
0.00150897
0.00130386
0.00110629
0.000899592
0.000732737
0.000452918
0.000526974
-0.309795
-0.287413
-0.274729
-0.260681
-0.245495
-0.229877
-0.213799
-0.197397
-0.18086
-0.164368
-0.148101
-0.132229
-0.116903
-0.102252
-0.0883802
-0.0753672
-0.0632675
-0.0521133
-0.0419174
-0.0326759
-0.0243708
-0.0169735
-0.0104466
-0.0047464
0.000175697
0.00437153
0.00789511
0.0108016
0.0131468
0.0149858
0.0163733
0.0173623
0.0180041
0.0183472
0.0184378
0.0183183
0.0180279
0.0176018
0.0170713
0.0164637
0.0158025
0.0151074
0.0143946
0.0136774
0.012966
0.0122682
0.01159
0.0109353
0.0103068
0.00970614
0.00913383
0.00858989
0.00807378
0.00758463
0.00712128
0.00668246
0.00626678
0.00587281
0.00549914
0.00514436
0.00480711
0.00448609
0.00418005
0.00388784
0.00360847
0.00334051
0.00308214
0.00283365
0.00259437
0.00236409
0.00214002
0.00192234
0.00171
0.00150281
0.00129848
0.00110162
0.000895578
0.000729204
0.000450288
0.000522892
-0.315027
-0.290548
-0.277667
-0.263722
-0.24854
-0.232992
-0.217015
-0.200715
-0.184271
-0.167855
-0.151639
-0.135791
-0.12046
-0.105776
-0.0918449
-0.0787485
-0.0665445
-0.0552684
-0.0449364
-0.0355476
-0.0270873
-0.0195294
-0.012839
-0.00697467
-0.00188966
0.00246621
0.00614552
0.00920229
0.0116911
0.0136666
0.0151826
0.0162918
0.017045
0.017491
0.0176757
0.0176419
0.017429
0.0170727
0.0166047
0.0160528
0.015441
0.0147897
0.0141156
0.0134324
0.0127508
0.0120793
0.011424
0.0107893
0.0101784
0.009593
0.00903405
0.00850176
0.00799582
0.00751554
0.00705995
0.00662791
0.00621817
0.00582941
0.00546033
0.00510959
0.00477591
0.00445806
0.00415484
0.00386513
0.00358785
0.00332185
0.00306645
0.00281975
0.00257937
0.00235184
0.00212911
0.00191295
0.00170186
0.00149566
0.00129224
0.00109622
0.000890966
0.00072508
0.000447314
0.000518024
-0.320491
-0.293805
-0.280576
-0.266729
-0.25156
-0.236098
-0.22025
-0.204086
-0.187768
-0.17146
-0.155326
-0.139528
-0.124214
-0.109515
-0.0955381
-0.0823675
-0.0700643
-0.0586681
-0.0481985
-0.0386586
-0.0300368
-0.0223105
-0.0154476
-0.00940905
-0.00415036
0.000376741
0.00422324
0.00744177
0.0100858
0.012209
0.0138645
0.0151044
0.0159793
0.0165377
0.0168256
0.0168861
0.0167587
0.0164794
0.0160806
0.0155906
0.015034
0.0144315
0.0138006
0.0131555
0.0125075
0.0118655
0.011236
0.010624
0.0100329
0.00946476
0.00892092
0.00840182
0.0079074
0.00743718
0.00699038
0.00656603
0.00616302
0.00578018
0.00541628
0.00507012
0.0047405
0.00442624
0.00412621
0.00383934
0.00356457
0.00330082
0.00304743
0.00280368
0.00256982
0.00233876
0.00211626
0.00190205
0.0016923
0.0014874
0.00128513
0.00109008
0.000885785
0.000720358
0.000444065
0.000512259
-0.325827
-0.297083
-0.283341
-0.269578
-0.254442
-0.239088
-0.223402
-0.20741
-0.191257
-0.175093
-0.159075
-0.143359
-0.12809
-0.113399
-0.0993935
-0.0861622
-0.0737696
-0.062259
-0.0516546
-0.0419634
-0.033178
-0.0252791
-0.0182379
-0.0120183
-0.00657823
-0.00187159
0.00215081
0.00554008
0.00834842
0.0106284
0.0124323
0.0138117
0.0148168
0.0154958
0.0158947
0.0160568
0.0160218
0.0158261
0.0155026
0.01508
0.0145835
0.0140346
0.0134512
0.0128481
0.0122371
0.0116276
0.0110267
0.0104398
0.0098707
0.00932183
0.0087948
0.0082904
0.00780881
0.0073498
0.00691279
0.00649701
0.0061015
0.00572524
0.00536714
0.00502608
0.00470097
0.0043907
0.00409424
0.00381054
0.00353862
0.00327748
0.00302633
0.00278453
0.00255147
0.00232454
0.00210534
0.00189036
0.00168123
0.00147789
0.00127709
0.00108314
0.000880002
0.000714998
0.000440644
0.0005054
-0.330708
-0.300284
-0.285856
-0.272147
-0.257073
-0.241857
-0.226372
-0.210593
-0.194646
-0.178668
-0.162803
-0.147202
-0.132008
-0.117349
-0.103338
-0.090063
-0.077594
-0.0659787
-0.0552458
-0.0454071
-0.0364594
-0.0283874
-0.021166
-0.0147621
-0.00913651
-0.0042454
-4.16121e-05
0.00352429
0.0065031
0.00894623
0.0109051
0.0124304
0.013572
0.0143778
0.0148939
0.0151633
0.0152263
0.0151195
0.0148762
0.0145258
0.0140939
0.0136025
0.0130703
0.0125125
0.0119416
0.0113675
0.0107977
0.0102382
0.00969301
0.00916515
0.00865649
0.00816815
0.00770061
0.00725387
0.00682759
0.00642119
0.00603391
0.00566486
0.0053131
0.00497763
0.00465746
0.00435158
0.00405902
0.00377881
0.00351003
0.00325175
0.00300317
0.00276353
0.00253211
0.00230751
0.00208981
0.00187756
0.00167077
0.00146821
0.0012684
0.00107544
0.000873621
0.000708948
0.000437192
0.000497147
-0.334721
-0.303232
-0.287962
-0.27428
-0.259313
-0.244283
-0.229044
-0.213526
-0.197829
-0.182076
-0.166404
-0.150954
-0.135866
-0.121268
-0.107274
-0.0939771
-0.0814493
-0.0697436
-0.058894
-0.0489168
-0.0398136
-0.0315734
-0.024175
-0.0175886
-0.0117782
-0.00670228
-0.00231599
0.00142833
0.00457994
0.00718899
0.00930585
0.0109805
0.0122622
0.0131987
0.0138358
0.0142166
0.0143815
0.0143676
0.0142084
0.0139337
0.0135698
0.0131393
0.0126613
0.0121517
0.0116235
0.0110871
0.0105506
0.0100204
0.00950094
0.00899566
0.00850679
0.00803577
0.00758337
0.00714987
0.00673518
0.00633892
0.00596052
0.00559927
0.00525436
0.00492494
0.00461012
0.00430899
0.00402065
0.00374422
0.00347884
0.00322365
0.00297786
0.00274072
0.00251149
0.00228906
0.00207318
0.00186289
0.00165752
0.00145694
0.00125909
0.00106765
0.000867632
0.00070237
0.000433798
0.000487168
-0.337158
-0.305603
-0.289604
-0.275979
-0.261187
-0.246404
-0.231465
-0.216256
-0.200854
-0.18537
-0.169929
-0.154668
-0.13972
-0.125215
-0.111265
-0.0979673
-0.0853987
-0.0736168
-0.0626607
-0.0525523
-0.043298
-0.0348915
-0.0273159
-0.0205454
-0.014547
-0.00928254
-0.00470925
-0.000781589
0.00254803
0.00532834
0.00760865
0.00943811
0.0108654
0.0119379
0.0127012
0.0131987
0.0134709
0.0135549
0.0134846
0.0132905
0.0129991
0.0126337
0.012214
0.0117565
0.0112745
0.0107792
0.0102791
0.00978099
0.00928985
0.00880944
0.0083424
0.0078905
0.00745485
0.007036
0.00663412
0.00624906
0.00588046
0.00552781
0.00519045
0.00486767
0.00455871
0.00426277
0.00397906
0.00370676
0.00344508
0.00319324
0.00295048
0.00271609
0.00248933
0.00226929
0.00205553
0.00184722
0.00164369
0.00144498
0.00124887
0.00105869
0.00086066
0.000694975
0.000430488
0.000474938
-0.337249
-0.307794
-0.291313
-0.277652
-0.263054
-0.248558
-0.233971
-0.21913
-0.204081
-0.188923
-0.173769
-0.158744
-0.143978
-0.129597
-0.115714
-0.10243
-0.0898267
-0.0779672
-0.066897
-0.0566442
-0.0472216
-0.0386284
-0.030853
-0.0238743
-0.0176635
-0.0121858
-0.0074013
-0.00326681
0.000263375
0.00323645
0.00570054
0.00770367
0.00929371
0.0105179
0.0114219
0.012049
0.01244
0.0126326
0.0126615
0.0125573
0.0123475
0.0120556
0.011702
0.0113037
0.0108747
0.0104266
0.00996846
0.00950745
0.00904912
0.00859762
0.00815598
0.00772635
0.00731017
0.00690834
0.00652131
0.00614921
0.00579191
0.00544912
0.00512038
0.00480516
0.00450284
0.00421275
0.00393421
0.00366651
0.00340893
0.00316077
0.00292134
0.00268994
0.0024659
0.00224843
0.00203699
0.00183089
0.00162948
0.0014326
0.00123836
0.0010495
0.000854075
0.000686724
0.000429585
0.00045737
-0.331904
-0.306826
-0.290457
-0.277083
-0.263006
-0.249025
-0.234978
-0.220663
-0.206094