/*--------------------------------*- C++ -*----------------------------------*\
  =========                 |
  \\      /  F ield         | OpenFOAM: The Open Source CFD Toolbox
   \\    /   O peration     | Website:  https://openfoam.org
    \\  /    A nd           | Version:  7
     \\/     M anipulation  |
\*---------------------------------------------------------------------------*/
FoamFile
{
    version     2.0;
    format      ascii;
    class       surfaceScalarField;
    location    "5";
    object      phi;
}
// * * * * * * * * * * * * * * * * * * * * * * * * * * * * * * * * * * * * * //

dimensions      [0 3 -1 0 0 0 0];

internalField   nonuniform List<scalar> 
24025
(
-5.00408e-06
5.00408e-06
5.87014e-12
-1.68278e-05
1.18237e-05
1.44292e-11
-3.33178e-05
1.64899e-05
2.06082e-11
-5.25863e-05
1.92685e-05
2.47084e-11
-7.294e-05
2.03537e-05
2.694e-11
-9.28549e-05
1.99149e-05
2.74542e-11
-0.000110959
1.81045e-05
2.61852e-11
-0.000126036
1.50765e-05
2.30654e-11
-0.000137049
1.10125e-05
1.80548e-11
-0.000143201
6.15208e-06
1.08605e-11
-0.00014403
8.29142e-07
1.39725e-12
-0.00013954
-4.48973e-06
-1.03462e-11
-0.000130342
-9.19753e-06
-2.45762e-11
-0.000117709
-1.26339e-05
-4.11457e-11
-1.38384e-05
-5.93832e-11
-0.00010387
-4.82636e-06
9.83044e-06
-1.61604e-05
2.31578e-05
-3.18545e-05
3.21841e-05
-5.00156e-05
3.74296e-05
-6.89353e-05
3.92733e-05
-8.70645e-05
3.80441e-05
-0.000102996
3.40357e-05
-0.000115462
2.75428e-05
-0.000123363
1.89131e-05
-0.000125819
8.60817e-06
-0.000122268
-2.72146e-06
-0.0001126
-1.41581e-05
-9.73274e-05
-2.44699e-05
-7.78286e-05
-3.21328e-05
-3.58742e-05
-5.57928e-05
-4.47605e-06
1.43065e-05
-1.48429e-05
3.35246e-05
-2.89632e-05
4.63044e-05
-4.49331e-05
5.33995e-05
-6.10148e-05
5.5355e-05
-7.56108e-05
5.26401e-05
-8.72437e-05
4.56686e-05
-9.45521e-05
3.48513e-05
-9.63104e-05
2.06715e-05
-9.14797e-05
3.77747e-06
-7.93032e-05
-1.4898e-05
-5.94417e-05
-3.40195e-05
-3.20812e-05
-5.18304e-05
1.92839e-06
-6.61423e-05
-7.24704e-05
3.85246e-05
-3.96292e-06
1.82694e-05
-1.2908e-05
4.24696e-05
-2.47107e-05
5.81072e-05
-3.74508e-05
6.61395e-05
-4.93477e-05
6.7252e-05
-5.87351e-05
6.20275e-05
-6.40372e-05
5.09707e-05
-6.37596e-05
3.45736e-05
-5.65017e-05
1.34136e-05
-4.10003e-05
-1.17239e-05
-1.62203e-05
-3.9678e-05
1.8493e-05
-6.87328e-05
6.31896e-05
-9.65271e-05
0.000116921
-0.000119873
-0.000133446
0.000177896
-3.30031e-06
2.15697e-05
-1.04006e-05
4.957e-05
-1.91892e-05
6.68958e-05
-2.7723e-05
7.46733e-05
-3.41678e-05
7.36967e-05
-3.67712e-05
6.46309e-05
-3.38369e-05
4.80364e-05
-2.37084e-05
2.44451e-05
-4.77307e-06
-5.52174e-06
2.4504e-05
-4.10009e-05
6.5503e-05
-8.06769e-05
0.000119284
-0.000122514
0.000186317
-0.00016356
0.000266119
-0.000199675
-0.000223949
0.000356622
-2.50378e-06
2.40735e-05
-7.37415e-06
5.44403e-05
-1.25078e-05
7.20294e-05
-1.59336e-05
7.80991e-05
-1.57528e-05
7.3516e-05
-1.01149e-05
5.8993e-05
2.81169e-06
3.51098e-05
2.48611e-05
2.39563e-06
5.78786e-05
-3.85392e-05
0.000103702
-8.68249e-05
0.000164094
-0.000141069
0.00024058
-0.000199
0.000334139
-0.000257119
0.000444712
-0.000310248
-0.000349441
0.000570204
-1.58941e-06
2.56629e-05
-3.88641e-06
5.67374e-05
-4.7829e-06
7.29259e-05
-2.27944e-06
7.55956e-05
5.59722e-06
6.56393e-05
2.08049e-05
4.37853e-05
4.53177e-05
1.0597e-05
8.11528e-05
-3.34395e-05
0.00013039
-8.77762e-05
0.000195167
-0.000151602
0.000277637
-0.000223538
0.000379818
-0.000301181
0.000503258
-0.000380559
0.0006484
-0.00045539
-0.000514257
0.000813217
-5.72736e-07
2.62356e-05
2.91215e-08
5.61355e-05
3.86964e-06
6.90854e-05
1.30381e-05
6.64272e-05
2.95784e-05
4.9099e-05
5.55566e-05
1.78071e-05
9.3089e-05
-2.69353e-05
0.000144369
-8.47196e-05
0.000211692
-0.000155099
0.00029747
-0.00023738
0.000404212
-0.00033028
0.000534412
-0.000431381
0.000690218
-0.000536365
0.000872688
-0.00063786
-0.000721573
0.00108
5.30019e-07
2.57056e-05
4.26201e-06
5.24035e-05
1.333e-05
6.00174e-05
2.98296e-05
4.99276e-05
5.58991e-05
2.30295e-05
9.37214e-05
-2.00152e-05
0.000145551
-7.87646e-05
0.00021374
-0.000152909
0.000300765
-0.000242125
0.000409255
-0.00034587
0.000541996
-0.000463021
0.000701881
-0.000591266
0.000891633
-0.000726118
0.00111304
-0.000859267
-0.000973357
0.00136482
1.70757e-06
2.39981e-05
8.82777e-06
4.52833e-05
2.35083e-05
4.53369e-05
4.79181e-05
2.55178e-05
8.42829e-05
-1.33353e-05
0.000134899
-7.06317e-05
0.000202152
-0.000146017
0.000288528
-0.000239285
0.000396641
-0.000350238
0.000529251
-0.000478479
0.0006893
-0.00062307
0.00087992
-0.000781886
0.00110429
-0.000950485
0.00136496
-0.00111994
-0.00127001
0.00166162
2.95163e-06
2.10464e-05
1.36608e-05
3.45741e-05
3.43101e-05
2.46876e-05
6.7138e-05
-7.31002e-06
0.000114465
-6.06619e-05
0.000178699
-0.000134866
0.000262345
-0.000229663
0.000368002
-0.000344942
0.000498364
-0.0004806
0.000656231
-0.000636347
0.000844538
-0.000811377
0.00106642
-0.00100377
0.00132525
-0.00120931
0.00162422
-0.00141891
-0.00161024
0.00196445
4.25356e-06
1.67929e-05
1.87289e-05
2.00988e-05
4.56506e-05
-2.23415e-06
8.73284e-05
-4.89878e-05
0.000146177
-0.000119511
0.000224713
-0.000213403
0.000325547
-0.000330497
0.000451363
-0.000470757
0.000604892
-0.000634129
0.000788881
-0.000820336
0.00100609
-0.00102859
0.00125937
-0.00125705
0.00155184
-0.00150178
0.0018869
-0.00175397
-0.00199091
0.00226756
5.60709e-06
1.11858e-05
2.40009e-05
1.70498e-06
5.74467e-05
-3.56799e-05
0.000108324
-9.98654e-05
0.000179134
-0.00019032
0.000272487
-0.000306755
0.000391082
-0.000449091
0.000537664
-0.000617339
0.000714964
-0.000811429
0.000925616
-0.00103099
0.00117207
-0.00127504
0.00145661
-0.00154159
0.00178152
-0.00182669
0.00214953
-0.00212198
-0.00240746
0.00256608
7.00682e-06
4.17895e-06
2.94441e-05
-2.07323e-05
6.96125e-05
-7.58483e-05
0.000129944
-0.000160197
0.000213007
-0.000273383
0.000321481
-0.000415229
0.000458122
-0.000585732
0.000625704
-0.000784922
0.000826939
-0.00101266
0.00106436
-0.00126841
0.00134014
-0.00155082
0.00165593
-0.00185738
0.00201263
-0.00218339
0.00241029
-0.00251964
-0.00285396
0.0028568
8.44629e-06
-4.26734e-06
3.50259e-05
-4.73118e-05
8.20514e-05
-0.000122874
0.000151982
-0.000230128
0.000247415
-0.000368816
0.00037105
-0.000538864
0.00052564
-0.000740322
0.000713932
-0.000973214
0.000938593
-0.00123732
0.00120212
-0.00153193
0.00150676
-0.00185546
0.00185439
-0.00220502
0.00224575
-0.00257475
0.00267554
-0.00294942
-0.00331543
0.003137
9.91928e-06
-1.41866e-05
4.07074e-05
-7.81e-05
9.4655e-05
-0.000176821
0.000174204
-0.000309677
0.000281919
-0.000476531
0.000420438
-0.000677383
0.000592408
-0.000912292
0.000800417
-0.00118122
0.00104695
-0.00148386
0.00133439
-0.00181938
0.0016652
-0.00218627
0.00204232
-0.00258214
0.00247094
-0.00300337
0.0029681
-0.00344658
-0.00392953
0.00358219
1.14181e-05
-2.56047e-05
4.64452e-05
-0.000113127
0.000107302
-0.000237678
0.000196348
-0.000398723
0.000316034
-0.000596217
0.00046882
-0.000830169
0.000657087
-0.00110056
0.000883049
-0.00140719
0.00114869
-0.00174949
0.00145575
-0.00212644
0.00180591
-0.00253642
0.00220104
-0.00297728
0.0026442
-0.00344653
0.00314137
-0.00394375
-0.00447846
0.00369031
1.29332e-05
-3.85379e-05
5.21897e-05
-0.000152384
0.000119857
-0.000305345
0.000218136
-0.000497003
0.000349256
-0.000727338
0.000515362
-0.000996275
0.000718386
-0.00130358
0.000959921
-0.00164872
0.00124111
-0.00203068
0.00156257
-0.00244791
0.0019244
-0.00289825
0.00232617
-0.00337904
0.00276688
-0.00388724
0.00324393
-0.0044208
-0.00497869
0.00374416
1.44531e-05
-5.2991e-05
5.78843e-05
-0.000195815
0.000132173
-0.000379633
0.000239268
-0.000604098
0.000381064
-0.000869133
0.000559242
-0.00117445
0.000775104
-0.00151945
0.00102941
-0.00190302
0.0013222
-0.00232348
0.0016527
-0.00277841
0.00201919
-0.00326474
0.00241886
-0.0037787
0.00284746
-0.00431584
0.003298
-0.00487134
-0.00543649
0.00375581
1.59638e-05
-6.89548e-05
6.34632e-05
-0.000243314
0.000144085
-0.000460255
0.000259427
-0.00071944
0.000410923
-0.00102063
0.000599648
-0.00136318
0.000826117
-0.00174591
0.00109008
-0.00216698
0.00139035
-0.00262375
0.00172467
-0.00311273
0.00208958
-0.00362965
0.00248031
-0.00416943
0.00289053
-0.00472606
0.00331152
-0.00529233
-0.00585499
0.00373002
1.74475e-05
-8.64023e-05
6.88503e-05
-0.000294717
0.00015541
-0.000546815
0.000278267
-0.000842297
0.000438275
-0.00118064
0.00063577
-0.00156067
0.000870344
-0.00198049
0.00114064
-0.00243728
0.00144418
-0.00292729
0.00177728
-0.00344583
0.00213501
-0.00398738
0.00251119
-0.00454561
0.00289838
-0.00511325
0.00328764
-0.00568159
-0.00623534
0.00366799
1.88828e-05
-0.000105285
7.39577e-05
-0.000349792
0.000165946
-0.000638803
0.000295422
-0.000971773
0.000462543
-0.00134776
0.000666794
-0.00176492
0.000906746
-0.00222044
0.00117988
-0.00271041
0.00148246
-0.00322987
0.00180954
-0.00377292
0.00215504
-0.00433287
0.00251189
-0.00490246
0.00287233
-0.00547369
0.00322802
-0.00603729
-0.0065778
0.00357048
2.02445e-05
-0.000125529
7.86868e-05
-0.000408234
0.000175471
-0.000735587
0.000310504
-0.00110681
0.000483141
-0.0015204
0.000691921
-0.0019737
0.00093434
-0.00246286
0.00120672
-0.00298279
0.00150416
-0.00352732
0.00182068
-0.00408943
0.00214938
-0.00466158
0.00248283
-0.00523592
0.00281351
-0.00580437
0.00313416
-0.00635794
-0.00688234
0.0034387
2.1504e-05
-0.000147033
8.29305e-05
-0.000469661
0.000183754
-0.000836411
0.000323117
-0.00124617
0.000499487
-0.00169677
0.000710394
-0.00218461
0.000952241
-0.00270471
0.00122024
-0.00325079
0.0015085
-0.00381558
0.00181023
-0.00439116
0.00211811
-0.00496946
0.00242477
-0.00554257
0.00272332
-0.00610291
0.00300788
-0.00664251
-0.00714905
0.0032746
2.26303e-05
-0.000169664
8.65762e-05
-0.000533607
0.000190558
-0.000940393
0.000332873
-0.00138848
0.000511035
-0.00187493
0.000721532
-0.00239511
0.000959706
-0.00294288
0.00121977
-0.00351086
0.00149502
-0.00409082
0.00177815
-0.00467429
0.00206176
-0.00525307
0.00233891
-0.00581972
0.00260364
-0.00636764
0.00285157
-0.00689044
-0.00737831
0.00308083
2.3591e-05
-0.000193255
8.95105e-05
-0.000599526
0.000195653
-0.00104654
0.000339408
-0.00153224
0.000517294
-0.00205281
0.00072477
-0.00260258
0.000956181
-0.00317429
0.00120489
-0.00375957
0.00146361
-0.00434954
0.00172482
-0.0049355
0.00198135
-0.0055096
0.00222695
-0.00606532
0.00245683
-0.00659752
0.00266809
-0.00710171
-0.00757079
0.00286057
2.43539e-05
-0.000217609
9.1624e-05
-0.000666796
0.000198825
-0.00115374
0.000342397
-0.00167581
0.000517859
-0.00222828
0.000719683
-0.00280441
0.000941331
-0.00339594
0.00117551
-0.00399374
0.00141457
-0.0045886
0.00165106
-0.00517199
0.00187833
-0.00573687
0.00209105
-0.00627803
0.00228564
-0.00679211
0.00246065
-0.00727672
-0.00772748
0.00261734
2.4888e-05
-0.000242497
9.28158e-05
-0.000734724
0.000199885
-0.00126081
0.000341574
-0.0018175
0.000512429
-0.00239913
0.000706016
-0.00299799
0.000915065
-0.00360499
0.00113182
-0.0042105
0.00134854
-0.00480532
0.00155811
-0.00538156
0.00175459
-0.00593334
0.00193368
-0.00645712
0.00209308
-0.00695152
0.00223264
-0.00741628
-0.00784955
0.00235471
2.51649e-05
-0.000267662
9.29978e-05
-0.000802557
0.00019868
-0.00136649
0.000336742
-0.00195556
0.000500822
-0.00256321
0.000683696
-0.00318087
0.000877537
-0.00379883
0.00107435
-0.00440731
0.00126655
-0.00499752
0.00144754
-0.00556256
0.00161226
-0.00609807
0.00175755
-0.00660241
0.00188228
-0.00707625
0.00198743
-0.00752143
-0.0079383
0.00207619
2.516e-05
-0.000292822
9.20989e-05
-0.000869496
0.000195095
-0.00146948
0.000327783
-0.00208825
0.000482983
-0.00271841
0.000652831
-0.00335072
0.000829136
-0.00397513
0.00100389
-0.00458206
0.00116986
-0.00516349
0.00132117
-0.00571386
0.00145372
-0.00623062
0.00156545
-0.00671414
0.00165635
-0.00716715
0.00172831
-0.0075934
-0.0079951
0.00178511
2.48535e-05
-0.000317675
9.00673e-05
-0.00093471
0.000189064
-0.00156848
0.000314662
-0.00221385
0.000458986
-0.00286274
0.000613706
-0.00350544
0.000770467
-0.00413189
0.000921453
-0.00473305
0.00105998
-0.00530201
0.00118099
-0.00583488
0.0012814
-0.00633103
0.00136019
-0.00679293
0.0014183
-0.00722526
0.00145836
-0.00763346
-0.00802127
0.00148453
2.42306e-05
-0.000341906
8.68723e-05
-0.000997351
0.000180568
-0.00166218
0.000297426
-0.0023307
0.000429029
-0.00299434
0.000566763
-0.00364317
0.000702314
-0.00426744
0.000828249
-0.00485899
0.000938567
-0.00541233
0.00102911
-0.00592542
0.00109778
-0.0063997
0.00114449
-0.00683964
0.00117096
-0.00725173
0.00118039
-0.00764288
-0.00801805
0.00117717
2.32829e-05
-0.000365189
8.25061e-05
-0.00105657
0.000169636
-0.00174931
0.000276205
-0.00243727
0.000393423
-0.00311156
0.000512585
-0.00376233
0.00062561
-0.00438047
0.000725609
-0.00495899
0.000807368
-0.00549409
0.000867649
-0.0059857
0.000905263
-0.00643731
0.000920932
-0.00685531
0.000916971
-0.00724777
0.000896966
-0.00762288
-0.00798653
0.000865445
2.20078e-05
-0.000387196
7.6983e-05
-0.00111155
0.000156343
-0.00182867
0.000251201
-0.00253213
0.000352576
-0.00321293
0.000451863
-0.00386162
0.000541391
-0.00447
0.000614944
-0.00503254
0.000668158
-0.00554731
0.000698689
-0.00601623
0.000706172
-0.00644479
0.000691964
-0.0068411
0.000658773
-0.00721458
0.000610366
-0.00757447
-0.00792764
0.000551472
2.04091e-05
-0.000407606
7.03391e-05
-0.00116148
0.000140807
-0.00189914
0.000222682
-0.00261401
0.000306977
-0.00329723
0.000385373
-0.00394001
0.00045076
-0.00453538
0.000497696
-0.00507947
0.000522689
-0.0055723
0.000524248
-0.00601779
0.000502712
-0.00642326
0.000459918
-0.0067983
0.000398771
-0.00715343
0.000322728
-0.00749843
-0.00784171
0.000236801
1.84965e-05
-0.000426102
6.26305e-05
-0.00120561
0.000123186
-0.00195969
0.000190969
-0.00268179
0.000257178
-0.00336344
0.000313944
-0.00399678
0.00035485
-0.00457629
0.00037529
-0.00509991
0.000372646
-0.00556965
0.000346206
-0.00599135
0.000296903
-0.00637395
0.000226953
-0.00672835
0.00013945
-0.00706593
3.81592e-05
-0.00739714
-0.00772697
-7.65881e-05
1.62852e-05
-0.000442387
5.39318e-05
-0.00124326
0.00010367
-0.00200943
0.000156429
-0.00273455
0.000203772
-0.00341078
0.000238435
-0.00403144
0.000254787
-0.00459264
0.000249102
-0.00509423
0.000219602
-0.00554015
0.000166271
-0.00593802
9.05047e-05
-0.00629819
-5.30207e-06
-0.00663255
-0.000117888
-0.00695334
-0.000244127
-0.0072709
-0.00759177
-0.00037932
1.3796e-05
-0.000456183
4.43339e-05
-0.0012738
8.24755e-05
-0.00204757
0.000119459
-0.00277153
0.000147382
-0.0034387
0.000159708
-0.00404377
0.000151673
-0.00458461
0.00012043
-0.00506299
6.50055e-05
-0.00548473
-1.4019e-05
-0.005859
-0.000114882
-0.00619732
-0.000235045
-0.00651239
-0.000371605
-0.00681678
-0.000521109
-0.00712139
-0.00743358
-0.000679304
1.10545e-05
-0.000467238
3.39417e-05
-0.00129669
5.98418e-05
-0.00207347
8.04816e-05
-0.00279217
8.86433e-05
-0.00344686
7.86121e-05
-0.00403374
4.65658e-05
-0.00455256
-9.4983e-06
-0.00500692
-8.98378e-05
-0.00540439
-0.00019332
-0.00575551
-0.000317956
-0.00607269
-0.000461271
-0.00636907
-0.000620539
-0.00665751
-0.000792581
-0.00694935
-0.00725269
-0.000973465
8.09128e-06
-0.000475329
2.2873e-05
-0.00131147
3.60277e-05
-0.00208663
3.99244e-05
-0.00279607
2.82101e-05
-0.00343515
-3.93787e-06
-0.00400159
-5.95506e-05
-0.00449695
-0.000139633
-0.00492684
-0.000243771
-0.00530025
-0.000370452
-0.00562883
-0.000517534
-0.00592561
-0.00068268
-0.00620392
-0.000863525
-0.00647667
-0.00105733
-0.00675555
-0.0070498
-0.00126022
4.94655e-06
-0.000480276
1.12547e-05
-0.00131778
1.13107e-05
-0.00208668
-1.66056e-06
-0.0027831
-3.33311e-05
-0.00340348
-8.7373e-05
-0.00394755
-0.000165775
-0.00441855
-0.000268914
-0.0048237
-0.000395755
-0.00517341
-0.000544408
-0.00548018
-0.000712641
-0.00575737
-0.000898318
-0.00601825
-0.00109956
-0.00627542
-0.00131426
-0.00654086
-0.00682557
-0.00153849
1.68042e-06
-0.000481956
-7.9183e-07
-0.0013153
-1.40829e-05
-0.00207339
-4.41325e-05
-0.00275305
-9.53801e-05
-0.00335223
-0.000170706
-0.00387222
-0.000271195
-0.00431806
-0.000396439
-0.00469846
-0.000544884
-0.00502497
-0.000714342
-0.00531072
-0.000902513
-0.0055692
-0.00110746
-0.0058133
-0.00132789
-0.006055
-0.00156258
-0.00630616
-0.00658047
-0.00180769
-1.82423e-06
-0.000480132
-1.31321e-05
-0.001304
-3.98341e-05
-0.00204669
-8.67426e-05
-0.00270614
-0.000157279
-0.0032817
-0.000253281
-0.00377622
-0.000374997
-0.00419634
-0.000521351
-0.0045521
-0.000690346
-0.00485597
-0.000879548
-0.00512152
-0.0010866
-0.00536215
-0.00130969
-0.00559021
-0.00154806
-0.00581662
-0.00180171
-0.00605252
-0.00631431
-0.00206786
-5.28204e-06
-0.00047485
-2.56016e-05
-0.00128368
-6.56618e-05
-0.00200663
-0.00012917
-0.00264263
-0.000218463
-0.0031924
-0.000334389
-0.0036603
-0.000476397
-0.00405433
-0.000642838
-0.00438566
-0.000831369
-0.00466744
-0.0010394
-0.00491349
-0.00126453
-0.00513702
-0.001505
-0.00534974
-0.0017603
-0.00556132
-0.00203156
-0.00578126
-0.00602535
-0.00232052
-8.80068e-06
-0.000466049
-3.80722e-05
-0.0012544
-9.12968e-05
-0.0019534
-0.000170988
-0.00256294
-0.000278375
-0.00308502
-0.000413348
-0.00352532
-0.000574624
-0.00389306
-0.000760075
-0.00420021
-0.00096713
-0.00446039
-0.00119318
-0.00468744
-0.00143593
-0.00489427
-0.00169374
-0.00509194
-0.00196627
-0.00528879
-0.00225655
-0.00549097
-0.00571339
-0.00256851
-1.23121e-05
-0.000453737
-5.04055e-05
-0.00121631
-0.000116473
-0.00188734
-0.000211793
-0.00246762
-0.000336481
-0.00296033
-0.00048951
-0.00337229
-0.000668926
-0.00371364
-0.000872202
-0.00399694
-0.00109663
-0.00423595
-0.00133972
-0.00444435
-0.00159951
-0.00463449
-0.00187486
-0.00481659
-0.00216535
-0.0049983
-0.00247125
-0.00518507
-0.00537583
-0.0028088
-1.57713e-05
-0.000437966
-6.24665e-05
-0.00116962
-0.000140937
-0.00180887
-0.000251208
-0.00235735
-0.000392293
-0.00281924
-0.000562284
-0.0032023
-0.000758608
-0.00351732
-0.000978384
-0.00377716
-0.00121881
-0.00399553
-0.00147748
-0.00418567
-0.0017527
-0.00435927
-0.00204354
-0.00452575
-0.00234981
-0.00469203
-0.00267258
-0.0048623
-0.00503435
-0.00301406
-1.91382e-05
-0.000418827
-7.41297e-05
-0.00111462
-0.00016446
-0.00171854
-0.000288896
-0.00223291
-0.00044538
-0.00266276
-0.000631164
-0.00301652
-0.000843099
-0.00330538
-0.00107798
-0.00354228
-0.00133288
-0.00374063
-0.00160544
-0.00391311
-0.00189403
-0.00407068
-0.00219775
-0.00422203
-0.00251635
-0.00437344
-0.00285014
-0.00452851
-0.00468638
-0.00319812
-2.23764e-05
-0.000396451
-8.52816e-05
-0.00105172
-0.000186834
-0.00161698
-0.000324565
-0.00209518
-0.00049538
-0.00249194
-0.000695745
-0.00281615
-0.000921977
-0.00307915
-0.00117057
-0.00329368
-0.0014385
-0.0034727
-0.00172339
-0.00362822
-0.00202361
-0.00377045
-0.00233826
-0.00390738
-0.00266697
-0.00404474
-0.00300962
-0.00418585
-0.0043309
-0.0033651
-2.54527e-05
-0.000370998
-9.58207e-05
-0.000981351
-0.000207879
-0.00150493
-0.000357963
-0.0019451
-0.000541996
-0.00230791
-0.00075571
-0.00260244
-0.000994942
-0.00283992
-0.00125593
-0.0030327
-0.00153553
-0.0031931
-0.00183138
-0.00333237
-0.00214189
-0.00345995
-0.00246614
-0.00358313
-0.00280373
-0.00370715
-0.00315447
-0.00383511
-0.00396773
-0.00351763
-2.83376e-05
-0.000342661
-0.000105658
-0.000904031
-0.000227439
-0.00138314
-0.00038888
-0.00178366
-0.000584984
-0.00211181
-0.000810813
-0.00237661
-0.00106178
-0.00258895
-0.00133388
-0.00276059
-0.00162393
-0.00290306
-0.00192956
-0.00302674
-0.00224923
-0.00314027
-0.0025821
-0.00325027
-0.00292779
-0.00336146
-0.00328619
-0.0034767
-0.00359696
-0.00365696
-3.10048e-05
-0.000311656
-0.000114715
-0.000820321
-0.000245382
-0.00125248
-0.00041714
-0.0016119
-0.000624147
-0.0019048
-0.000860862
-0.00213989
-0.00112232
-0.0023275
-0.00140434
-0.00247857
-0.00170368
-0.00260372
-0.00201802
-0.0027124
-0.0023459
-0.00281239
-0.00268655
-0.00290962
-0.0030397
-0.00300831
-0.00340537
-0.00311103
-0.00321883
-0.00378351
-3.34315e-05
-0.000278224
-0.000122925
-0.000730828
-0.000261593
-0.00111381
-0.000442594
-0.0014309
-0.000659321
-0.00168807
-0.000905699
-0.00189352
-0.00117644
-0.00205676
-0.00146722
-0.00218779
-0.00177477
-0.00229617
-0.00209683
-0.00239034
-0.00243202
-0.0024772
-0.00277968
-0.00256195
-0.00313967
-0.00264832
-0.00351215
-0.00273856
-0.00283369
-0.00389728
-3.55975e-05
-0.000242627
-0.00013023
-0.000636195
-0.000275977
-0.000968061
-0.000465118
-0.00124176
-0.000690371
-0.00146282
-0.000945196
-0.00163869
-0.00122403
-0.00177792
-0.00152244
-0.00188937
-0.00183716
-0.00198146
-0.00216597
-0.00206153
-0.00250761
-0.00213555
-0.00286153
-0.00220803
-0.0032277
-0.00228215
-0.00360642
-0.00235984
-0.00244206
-0.00399805
-3.74857e-05
-0.000205141
-0.00013658
-0.000537101
-0.00028845
-0.000816191
-0.000484608
-0.0010456
-0.000717186
-0.00123024
-0.000979247
-0.00137663
-0.00126501
-0.00149216
-0.00156994
-0.00158444
-0.00189079
-0.00166061
-0.00222542
-0.0017269
-0.00257265
-0.00178832
-0.00293203
-0.00184865
-0.00330367
-0.00191052
-0.00368796
-0.00197555
-0.00204459
-0.00408543
-3.90814e-05
-0.00016606
-0.000141934
-0.000434249
-0.000298946
-0.000659179
-0.000500979
-0.000843566
-0.000739672
-0.000991548
-0.00100776
-0.00110854
-0.00129928
-0.00120064
-0.00160965
-0.00127407
-0.00193562
-0.00133465
-0.00227511
-0.00138741
-0.00262704
-0.00143639
-0.00299107
-0.00148462
-0.00336738
-0.00153421
-0.00375648
-0.00158645
-0.00164205
-0.00415902
-4.03725e-05
-0.000125687
-0.000146258
-0.000328363
-0.000307409
-0.000498027
-0.000514158
-0.000636817
-0.000757751
-0.000747956
-0.00103066
-0.000835626
-0.00132679
-0.00090451
-0.00164151
-0.000959354
-0.00197157
-0.00100458
-0.00231498
-0.001044
-0.00267071
-0.00108066
-0.00303851
-0.00111682
-0.00341865
-0.00115408
-0.0038117
-0.0011934
-0.00123531
-0.00421843
-4.13493e-05
-8.4338e-05
-0.000149525
-0.000220187
-0.000313795
-0.000333757
-0.000524091
-0.00042652
-0.000771364
-0.000500684
-0.0010479
-0.000559094
-0.00134748
-0.000604925
-0.00166545
-0.000641381
-0.0019986
-0.000671436
-0.00234495
-0.000697646
-0.00270356
-0.000722046
-0.00307423
-0.000746154
-0.00345728
-0.000771031
-0.00385337
-0.00079731
-0.000825364
-0.00426331
-4.20046e-05
-4.23334e-05
-0.000151714
-0.000110478
-0.00031807
-0.000167401
-0.000530737
-0.000213853
-0.000780464
-0.000250956
-0.00105941
-0.00028015
-0.0013613
-0.000303038
-0.00168144
-0.000321234
-0.00201665
-0.000336233
-0.00236497
-0.000349317
-0.00272551
-0.000361507
-0.00309811
-0.000373562
-0.00348313
-0.000386012
-0.00388126
-0.000399172
-0.000413233
-0.00429339
-4.23334e-05
3.87003e-12
-0.000152812
1.03969e-11
-0.000320213
1.61562e-11
-0.000534066
2.09343e-11
-0.000785022
2.4626e-11
-0.00106517
2.72763e-11
-0.00136821
2.90279e-11
-0.00168944
3.00659e-11
-0.00202568
3.05783e-11
-0.002375
3.073e-11
-0.0027365
3.06467e-11
-0.00311006
3.04186e-11
-0.00349608
3.01056e-11
-0.00389525
2.97433e-11
2.93445e-11
-0.00430848
-4.23334e-05
4.23334e-05
-0.000152812
0.000110478
-0.000320213
0.000167401
-0.000534066
0.000213853
-0.000785022
0.000250956
-0.00106517
0.00028015
-0.00136821
0.000303038
-0.00168944
0.000321234
-0.00202568
0.000336233
-0.002375
0.000349318
-0.0027365
0.000361507
-0.00311006
0.000373562
-0.00349608
0.000386012
-0.00389525
0.000399172
0.000413233
-0.00430848
-4.20046e-05
8.4338e-05
-0.000151714
0.000220188
-0.00031807
0.000333757
-0.000530737
0.00042652
-0.000780464
0.000500684
-0.00105941
0.000559094
-0.0013613
0.000604925
-0.00168144
0.000641381
-0.00201665
0.000671436
-0.00236497
0.000697646
-0.00272551
0.000722046
-0.00309811
0.000746154
-0.00348313
0.000771031
-0.00388126
0.00079731
0.000825364
-0.00429339
-4.13493e-05
0.000125687
-0.000149525
0.000328363
-0.000313795
0.000498027
-0.000524091
0.000636817
-0.000771364
0.000747956
-0.0010479
0.000835626
-0.00134748
0.00090451
-0.00166545
0.000959354
-0.0019986
0.00100458
-0.00234495
0.001044
-0.00270356
0.00108066
-0.00307423
0.00111682
-0.00345728
0.00115408
-0.00385337
0.0011934
0.00123531
-0.00426331
-4.03725e-05
0.00016606
-0.000146258
0.000434249
-0.000307409
0.000659179
-0.000514158
0.000843566
-0.000757751
0.000991549
-0.00103066
0.00110854
-0.00132679
0.00120064
-0.00164151
0.00127407
-0.00197157
0.00133465
-0.00231498
0.00138741
-0.00267071
0.00143639
-0.00303851
0.00148462
-0.00341865
0.00153421
-0.0038117
0.00158645
0.00164205
-0.00421843
-3.90814e-05
0.000205141
-0.000141934
0.000537101
-0.000298946
0.000816191
-0.000500979
0.0010456
-0.000739672
0.00123024
-0.00100776
0.00137663
-0.00129928
0.00149216
-0.00160965
0.00158444
-0.00193562
0.00166061
-0.00227511
0.0017269
-0.00262704
0.00178832
-0.00299107
0.00184865
-0.00336738
0.00191052
-0.00375648
0.00197555
0.00204459
-0.00415902
-3.74857e-05
0.000242627
-0.00013658
0.000636195
-0.00028845
0.000968061
-0.000484608
0.00124176
-0.000717186
0.00146282
-0.000979247
0.00163869
-0.00126501
0.00177792
-0.00156994
0.00188937
-0.00189079
0.00198146
-0.00222542
0.00206153
-0.00257265
0.00213555
-0.00293203
0.00220803
-0.00330367
0.00228215
-0.00368796
0.00235984
0.00244206
-0.00408543
-3.55975e-05
0.000278224
-0.00013023
0.000730828
-0.000275977
0.00111381
-0.000465118
0.0014309
-0.000690371
0.00168807
-0.000945196
0.00189352
-0.00122403
0.00205676
-0.00152244
0.00218779
-0.00183716
0.00229617
-0.00216597
0.00239034
-0.00250761
0.0024772
-0.00286153
0.00256195
-0.0032277
0.00264832
-0.00360642
0.00273856
0.00283369
-0.00399805
-3.34315e-05
0.000311656
-0.000122925
0.000820321
-0.000261593
0.00125248
-0.000442594
0.0016119
-0.000659321
0.0019048
-0.000905699
0.00213989
-0.00117644
0.0023275
-0.00146722
0.00247857
-0.00177477
0.00260372
-0.00209683
0.0027124
-0.00243202
0.00281239
-0.00277968
0.00290962
-0.00313967
0.00300831
-0.00351215
0.00311103
0.00321883
-0.00389728
-3.10048e-05
0.000342661
-0.000114715
0.000904031
-0.000245382
0.00138314
-0.00041714
0.00178366
-0.000624147
0.00211181
-0.000860862
0.00237661
-0.00112232
0.00258895
-0.00140434
0.00276059
-0.00170368
0.00290306
-0.00201802
0.00302674
-0.0023459
0.00314027
-0.00268655
0.00325027
-0.0030397
0.00336146
-0.00340537
0.0034767
0.00359696
-0.00378351
-2.83376e-05
0.000370998
-0.000105658
0.000981351
-0.000227439
0.00150493
-0.00038888
0.0019451
-0.000584984
0.00230791
-0.000810813
0.00260244
-0.00106178
0.00283992
-0.00133388
0.0030327
-0.00162393
0.0031931
-0.00192956
0.00333237
-0.00224923
0.00345995
-0.0025821
0.00358313
-0.00292779
0.00370715
-0.00328619
0.00383511
0.00396773
-0.00365696
-2.54527e-05
0.000396451
-9.58207e-05
0.00105172
-0.000207879
0.00161698
-0.000357963
0.00209518
-0.000541996
0.00249194
-0.00075571
0.00281615
-0.000994942
0.00307915
-0.00125593
0.00329368
-0.00153553
0.0034727
-0.00183138
0.00362822
-0.00214189
0.00377045
-0.00246614
0.00390738
-0.00280373
0.00404474
-0.00315447
0.00418585
0.0043309
-0.00351763
-2.23764e-05
0.000418827
-8.52816e-05
0.00111462
-0.000186834
0.00171854
-0.000324565
0.00223291
-0.00049538
0.00266276
-0.000695745
0.00301652
-0.000921977
0.00330538
-0.00117057
0.00354228
-0.0014385
0.00374063
-0.00172339
0.00391311
-0.00202361
0.00407068
-0.00233826
0.00422203
-0.00266697
0.00437344
-0.00300962
0.00452851
0.00468638
-0.0033651
-1.91382e-05
0.000437966
-7.41297e-05
0.00116962
-0.00016446
0.00180887
-0.000288896
0.00235735
-0.00044538
0.00281924
-0.000631164
0.0032023
-0.000843099
0.00351732
-0.00107798
0.00377716
-0.00133288
0.00399553
-0.00160544
0.00418567
-0.00189403
0.00435927
-0.00219775
0.00452575
-0.00251635
0.00469203
-0.00285014
0.0048623
0.00503435
-0.00319812
-1.57713e-05
0.000453737
-6.24665e-05
0.00121631
-0.000140937
0.00188734
-0.000251208
0.00246762
-0.000392293
0.00296033
-0.000562284
0.00337229
-0.000758608
0.00371364
-0.000978384
0.00399694
-0.00121881
0.00423595
-0.00147748
0.00444435
-0.0017527
0.00463449
-0.00204354
0.00481659
-0.00234981
0.0049983
-0.00267258
0.00518507
0.00537583
-0.00301406
-1.23121e-05
0.000466049
-5.04055e-05
0.0012544
-0.000116473
0.0019534
-0.000211793
0.00256294
-0.000336481
0.00308502
-0.00048951
0.00352532
-0.000668926
0.00389306
-0.000872202
0.00420021
-0.00109663
0.00446039
-0.00133972
0.00468744
-0.00159951
0.00489427
-0.00187486
0.00509194
-0.00216535
0.00528879
-0.00247125
0.00549097
0.00571339
-0.0028088
-8.80068e-06
0.00047485
-3.80722e-05
0.00128368
-9.12968e-05
0.00200663
-0.000170988
0.00264263
-0.000278375
0.0031924
-0.000413348
0.0036603
-0.000574624
0.00405433
-0.000760075
0.00438566
-0.00096713
0.00466744
-0.00119318
0.00491349
-0.00143593
0.00513702
-0.00169374
0.00534974
-0.00196627
0.00556132
-0.00225655
0.00578126
0.00602535
-0.00256851
-5.28204e-06
0.000480132
-2.56016e-05
0.001304
-6.56618e-05
0.00204669
-0.00012917
0.00270614
-0.000218463
0.0032817
-0.000334389
0.00377622
-0.000476397
0.00419634
-0.000642838
0.0045521
-0.000831369
0.00485597
-0.0010394
0.00512152
-0.00126453
0.00536215
-0.001505
0.00559021
-0.0017603
0.00581662
-0.00203156
0.00605252
0.00631432
-0.00232052
-1.82423e-06
0.000481956
-1.31321e-05
0.0013153
-3.98341e-05
0.00207339
-8.67426e-05
0.00275305
-0.000157279
0.00335223
-0.000253281
0.00387222
-0.000374997
0.00431806
-0.000521351
0.00469846
-0.000690346
0.00502497
-0.000879548
0.00531072
-0.0010866
0.0055692
-0.00130969
0.0058133
-0.00154806
0.006055
-0.00180171
0.00630616
0.00658047
-0.00206786
1.68042e-06
0.000480276
-7.91831e-07
0.00131778
-1.40829e-05
0.00208668
-4.41325e-05
0.0027831
-9.53801e-05
0.00340348
-0.000170706
0.00394755
-0.000271195
0.00441855
-0.000396439
0.0048237
-0.000544885
0.00517341
-0.000714342
0.00548018
-0.000902513
0.00575737
-0.00110746
0.00601825
-0.00132789
0.00627542
-0.00156258
0.00654086
0.00682557
-0.00180769
4.94655e-06
0.000475329
1.12547e-05
0.00131147
1.13107e-05
0.00208663
-1.66056e-06
0.00279607
-3.33311e-05
0.00343515
-8.7373e-05
0.00400159
-0.000165775
0.00449695
-0.000268914
0.00492684
-0.000395755
0.00530025
-0.000544408
0.00562883
-0.000712641
0.00592561
-0.000898318
0.00620392
-0.00109956
0.00647667
-0.00131426
0.00675555
0.0070498
-0.00153849
8.09128e-06
0.000467238
2.2873e-05
0.00129669
3.60277e-05
0.00207347
3.99244e-05
0.00279217
2.82101e-05
0.00344686
-3.93788e-06
0.00403374
-5.95506e-05
0.00455256
-0.000139633
0.00500692
-0.000243771
0.00540439
-0.000370452
0.00575551
-0.000517534
0.00607269
-0.00068268
0.00636907
-0.000863525
0.00665751
-0.00105733
0.00694935
0.00725269
-0.00126022
1.10545e-05
0.000456183
3.39417e-05