/*--------------------------------*- C++ -*----------------------------------*\
  =========                 |
  \\      /  F ield         | OpenFOAM: The Open Source CFD Toolbox
   \\    /   O peration     | Website:  https://openfoam.org
    \\  /    A nd           | Version:  7
     \\/     M anipulation  |
\*---------------------------------------------------------------------------*/
FoamFile
{
    version     2.0;
    format      ascii;
    class       surfaceScalarField;
    location    "40";
    object      phi;
}
// * * * * * * * * * * * * * * * * * * * * * * * * * * * * * * * * * * * * * //

dimensions      [0 3 -1 0 0 0 0];

internalField   nonuniform List<scalar> 
6856
(
-0.000424628
0.000198145
-0.000653657
0.000229036
-0.000906113
0.000252464
-0.00117868
0.000272572
-0.00146634
0.000287669
-0.0017532
0.000286866
-0.00206647
0.000313278
0.000250257
-0.00231673
-6.96845e-05
0.000144729
-0.000210983
0.000292751
-0.00039471
0.000381872
-0.000604217
0.000438543
-0.000830261
0.000478509
-0.00106741
0.000509718
-0.00131294
0.000533199
-0.0015314
0.000505332
-0.00178504
0.000566918
0.000381808
-0.0019166
-5.99125e-05
0.000204641
-0.000182202
0.000415041
-0.000338432
0.000538102
-0.000510199
0.00061031
-0.000684859
0.000653168
-0.000850283
0.000675142
-0.00101036
0.000693274
-0.00109251
0.00058748
-0.00121519
0.0006896
0.000292019
-0.0011254
-4.74412e-05
0.000252082
-0.00014425
0.000511851
-0.000262418
0.000656269
-0.000380616
0.000728508
-0.000481967
0.00075452
-0.000541644
0.000734819
-0.000563025
0.000714655
-0.000452143
0.000476599
-0.000316134
0.00055359
-7.69319e-05
5.28168e-05
-3.44217e-05
0.000286504
-0.000102315
0.000579744
-0.000175086
0.00072904
-0.000226666
0.000780088
-0.000233374
0.000761228
-0.000164751
0.000666196
3.48506e-05
0.000515053
0.000382779
0.00012867
0.000881291
5.50787e-05
-0.000953764
0.00175812
-2.29492e-05
0.000309453
-6.14018e-05
0.000618196
-8.42976e-05
0.000751936
-5.88784e-05
0.000754669
5.4695e-05
0.000647654
0.000288225
0.000432666
0.00073623
6.70483e-05
0.00144337
-0.00057847
0.00240869
-0.000910245
-0.0024898
0.00394473
-1.44895e-05
0.000323943
-2.45939e-05
0.000628301
6.39982e-06
0.000720942
0.000122967
0.000638102
0.000381188
0.000389432
0.000843594
-2.97398e-05
0.00162843
-0.000717786
0.0027451
-0.00169514
0.0042813
-0.00244645
-0.00463473
0.00642623
-9.57488e-06
0.000333518
8.43556e-06
0.00061029
0.000100946
0.000628432
0.00033258
0.000406467
0.000787616
-6.56031e-05
0.00156064
-0.000802767
0.00274338
-0.00190053
0.00433097
-0.00328273
0.00641187
-0.00452735
-0.00700834
0.00878549
-6.46177e-06
0.000339979
4.2019e-05
0.000561809
0.000214056
0.000456395
0.00060318
1.7343e-05
0.00132456
-0.000786985
0.00248697
-0.00196517
0.00407044
-0.003484
0.00603717
-0.00524947
0.00839791
-0.00688809
-0.00912702
0.0105166
-2.05589e-06
0.000342035
8.71176e-05
0.000472636
0.000370187
0.000173326
0.000979446
-0.000591915
0.00203421
-0.00184175
0.00357043
-0.00350139
0.0054437
-0.00535727
0.00749124
-0.007297
0.00959859
-0.00899545
-0.0107683
0.0112399
6.1275e-06
0.000335908
0.000155988
0.000322775
0.000597272
-0.000267958
0.00148817
-0.00148281
0.00288064
-0.00323423
0.0046411
-0.00526185
0.00653464
-0.0072508
0.00832546
-0.00908783
0.00985739
-0.0105274
-0.0119057
0.0109948
2.16724e-05
0.000314235
0.000261137
8.33108e-05
0.000914229
-0.00092105
0.00210368
-0.00267226
0.00371288
-0.00484343
0.00545324
-0.0070022
0.00708058
-0.00887815
0.00841651
-0.0104238
0.00953902
-0.0116499
-0.0128743
0.0105076
4.78135e-05
0.000266422
0.000412266
-0.000281142
0.00131269
-0.00182148
0.00272509
-0.00408466
0.00433849
-0.00645683
0.00583983
-0.00850353
0.00708151
-0.0101198
0.00806718
-0.0114094
0.00892029
-0.012503
-0.0136083
0.00965428
8.68312e-05
0.000179591
0.00061216
-0.000806471
0.00174031
-0.00294962
0.00321535
-0.00555971
0.00464458
-0.00788605
0.00582174
-0.00968069
0.00674173
-0.0110398
0.00748302
-0.0121507
0.0081486
-0.0131686
-0.0142532
0.00879353
0.000141493
3.80981e-05
0.000847346
-0.00151232
0.00211234
-0.00421462
0.00348555
-0.00693292
0.00464598
-0.00904648
0.00553038
-0.0105651
0.00620975
-0.0117192
0.00677957
-0.0127205
0.00732876
-0.0137178
-0.0147877
0.0078633
0.000214167
-0.000176069
0.00108416
-0.00238231
0.00235659
-0.00548706
0.00353069
-0.00810702
0.00442415
-0.00993995
0.00507234
-0.0112133
0.00557609
-0.0122229
0.0060229
-0.0131673
0.00646265
-0.0141575
-0.0152271
0.00690201
0.000302184
-0.000478254
0.0012817
-0.00336183
0.00245014
-0.00665549
0.00339472
-0.0090516
0.00405506
-0.0106003
0.00452031
-0.0116785
0.00489163
-0.0125943
0.00523376
-0.0135095
0.00557789
-0.0145016
-0.0155733
0.00592412
0.000393673
-0.000871926
0.00140683
-0.00437499
0.00240798
-0.00765664
0.00312903
-0.00977265
0.00359615
-0.0110674
0.0039182
-0.0120006
0.00418125
-0.0128573
0.00443004
-0.0137583
0.00467826
-0.0147499
-0.0158199
0.00492482
0.000473317
-0.00134524
0.00144261
-0.00534428
0.0022572
-0.00847123
0.00277755
-0.010293
0.0030863
-0.0113761
0.00329177
-0.0122061
0.00345989
-0.0130255
0.00361781
-0.0139162
0.00377137
-0.0149034
-0.0159693
0.0039208
0.000528848
-0.00187409
0.00139396
-0.00620939
0.00202593
-0.00910321
0.00237359
-0.0106407
0.0025513
-0.0115539
0.00265646
-0.0123112
0.00273533
-0.0131043
0.00280353
-0.0139844
0.00286346
-0.0149633
-0.016022
0.00291613
0.000552861
-0.00242695
0.00128376
-0.00694029
0.00174065
-0.00956009
0.00194064
-0.0108406
0.00200719
-0.0116204
0.00202162
-0.0123257
0.00201394
-0.0130966
0.00199178
-0.0139622
0.00195579
-0.0149274
-0.0159799
0.0019137
0.000542778
-0.00296973
0.0011269
-0.00752441
0.00142232
-0.00985551
0.00149461
-0.0109129
0.00146409
-0.0115899
0.00139344
-0.012255
0.0013007
-0.0130039
0.00118835
-0.0138499
0.00105342
-0.0147924
-0.0158348
0.000908349
0.0005014
-0.00347113
0.000937312
-0.00796032
0.00108673
-0.0100049
0.00104744
-0.0108737
0.000928832
-0.0114713
0.000775981
-0.0121022
0.000599042
-0.012827
0.000397307
-0.0136481
0.000174581
-0.0145697
-0.0155627
-9.75376e-05
0.000435604
-0.00390674
0.000727387
-0.0082521
0.000746093
-0.0100236
0.000607094
-0.0107347
0.000405388
-0.0112696
0.000170891
-0.0118677
-8.97869e-05
-0.0125663
-0.000372754
-0.0133652
-0.000691512
-0.0142509
-0.0152111
-0.00104307
0.000353425
-0.00426016
0.000507373
-0.00840605
0.000408598
-0.00992486
0.000176818
-0.0105029
-0.000103248
-0.0109895
-0.000409266
-0.0115616
-0.000746019
-0.0122295
-0.00111774
-0.0129934
-0.00152745
-0.0138412
-0.0147725
-0.00196613
0.000261935
-0.0045221
0.000286405
-0.00843052
7.69953e-05
-0.00971545
-0.000232761
-0.0101931
-0.000582821
-0.0106394
-0.000966141
-0.0111783
-0.00138184
-0.0118138
-0.00183655
-0.0125387
-0.00232884
-0.0133489
-0.0142467
-0.00285462
0.000166652
-0.00468875
7.49956e-05
-0.00833886
-0.000234039
-0.00940642
-0.000620864
-0.00980629
-0.00104368
-0.0102166
-0.0014995
-0.0107225
-0.00199076
-0.0113226
-0.0025231
-0.0120064
-0.00309538
-0.0127767
-0.0136378
-0.0037043
7.30812e-05
-0.00476183
-0.000139955
-0.00812583
-0.000529834
-0.00901654
-0.000989607
-0.00934652
-0.00148157
-0.00972466
-0.002007
-0.0101971
-0.00256991
-0.0107597
-0.00317465
-0.0114016
-0.00382283
-0.0121285
-0.0129529
-0.00450765
-1.316e-05
-0.00474867
-0.000341974
-0.00779701
-0.000810358
-0.00854816
-0.00133622
-0.00882066
-0.00189399
-0.00916689
-0.00248674
-0.00960433
-0.00311879
-0.0101276
-0.00379163
-0.0107288
-0.00450047
-0.0114196
-0.0122
-0.00525345
-0.000119203
-0.00462947
-0.00052898
-0.00738723
-0.00107116
-0.00800597
-0.00165908
-0.00823274
-0.00227895
-0.00854701
-0.00293591
-0.00894737
-0.00363473
-0.0094288
-0.00437821
-0.00998532
-0.00517024
-0.0106276
-0.0114267
-0.00594355
-0.000209394
-0.00442007
-0.000701799
-0.00689483
-0.00131012
-0.00739765
-0.00195643
-0.00758643
-0.00263444
-0.007869
-0.00335091
-0.0082309
-0.00411105
-0.00866867
-0.00491762
-0.00917875
-0.0057716
-0.00977362
-0.0104272
-0.00677104
-0.000290253
-0.00412982
-0.000859161
-0.00632592
-0.00152696
-0.00672985
-0.00222713
-0.00688626
-0.00295903
-0.0071371
-0.00372964
-0.00746029
-0.00454261
-0.0078557
-0.00540186
-0.00831949
-0.00632703
-0.00884845
-0.00939952
-0.00735472
-0.000362268
-0.00376755
-0.000999887
-0.0056883
-0.00172087
-0.00600887
-0.00246997
-0.00613717
-0.00325103
-0.00635604
-0.00407198
-0.00663934
-0.00493932
-0.00698836
-0.00586207
-0.00739674
-0.00685496
-0.00785556
-0.00834292
-0.00791156
-0.000425133
-0.00334242
-0.00112327
-0.00499017
-0.00189127
-0.00524087
-0.00268393
-0.00534451
-0.0035082
-0.00553177
-0.00437195
-0.00577559
-0.0052831
-0.0060772
-0.00625266
-0.00642718
-0.00729228
-0.00681594
-0.0072382
-0.008397
-0.000477867
-0.00286455
-0.0012286
-0.00423943
-0.00203772
-0.00443176
-0.00286874
-0.00451348
-0.00373152
-0.004669
-0.00463462
-0.00487249
-0.00558695
-0.00512488
-0.00659807
-0.00541605
-0.00767528
-0.00573873
-0.00609456
-0.00881893
-0.000518957
-0.00234559
-0.00131555
-0.00344284
-0.00215986
-0.00358745
-0.00302311
-0.00365023
-0.00391771
-0.00377441
-0.00485283
-0.00393736
-0.00583811
-0.0041396
-0.00688252
-0.00437165
-0.00799254
-0.0046287
-0.0049156
-0.0091715
-0.000554266
-0.00179133
-0.00138542
-0.00261168
-0.00225795
-0.00271492
-0.00314746
-0.00276072
-0.00406816
-0.00285371
-0.00502955
-0.00297597
-0.00604141
-0.00312773
-0.00711187
-0.0033012
-0.00824733
-0.00349324
-0.00370927
-0.00945366
-0.00058168
-0.00120965
-0.00143817
-0.00175519
-0.00233161
-0.00182148
-0.00324084
-0.00185148
-0.00418113
-0.00191342
-0.00516218
-0.00199492
-0.00619385
-0.00209606
-0.00728373
-0.00221132
-0.00843807
-0.00233891
-0.00248305
-0.00966429
-0.000600177
-0.00147355
-0.00238083
-0.00330327
-0.000929044
-0.0042567
-0.000959998
-0.00525088
-0.00100074
-0.00629567
-0.00105128
-0.00739819
-0.00110879
-0.0085647
-0.0011724
-0.00124437
-0.00980338
-0.00333453
-0.00429452
-0.00529526
-0.00634654
-0.00745533
-0.00862773
-0.0098721
-0.00235911
4.2369e-05
-0.00239822
3.91083e-05
-0.00243281
3.45843e-05
-0.00246332
3.04957e-05
-0.00249021
2.68773e-05
-0.00251393
2.37e-05
-0.00253483
2.08846e-05
-0.00255321
1.83595e-05
-0.00256929
1.6057e-05
-0.00258323
1.39192e-05
-0.00259516
1.18994e-05
-0.00260515
9.96066e-06
-0.00261326
8.07495e-06
-0.00261952
6.22573e-06
-0.00262397
4.41443e-06
-0.00262666
2.65399e-06
-0.00262759
8.95602e-07
-0.00262688
-7.38057e-07
-0.00262468
-2.23078e-06
-0.00262094
-3.77699e-06
-0.00261562
-5.34823e-06
-0.00260872
-6.922e-06
-0.00260023
-8.51682e-06
-0.00259012
-1.01304e-05
-0.00257837
-1.17646e-05
-0.00256496
-1.34217e-05
-0.00254986
-1.51035e-05
-0.00253305
-1.68113e-05
-1.85461e-05
-0.00195151
7.72799e-05
-0.00198466
7.22599e-05
-0.00201427
6.41947e-05
-0.0020404
5.66278e-05
-0.0020633
4.9781e-05
-0.00208337
4.37625e-05
-0.00210088
3.83937e-05
-0.00211607
3.35491e-05
-0.00212911
2.91015e-05
-0.00214013
2.49414e-05
-0.00214922
2.09829e-05
-0.00215641
1.7156e-05
-0.00216174
1.34044e-05
-0.00216521
9.69488e-06
-0.00216683
6.0386e-06
-0.00216661
2.43263e-06
-0.00216466
-1.05774e-06
-0.00216134
-4.05762e-06
-0.0021564
-7.17339e-06
-0.00214984
-1.03324e-05
-0.00214163
-1.35623e-05
-0.00213183
-1.67199e-05
-0.00212042
-1.99238e-05
-0.00210739
-2.31628e-05
-0.00209271
-2.644e-05
-0.00207638
-2.97606e-05
-0.00205835
-3.31274e-05
-0.00203862
-3.65422e-05
-4.00065e-05
-0.00115136
0.000103245
-0.00117237
9.32683e-05
-0.00119352
8.5343e-05
-0.00121273
7.58375e-05
-0.00122967
6.67183e-05
-0.00124447
5.85663e-05
-0.00125717
5.10964e-05
-0.00126787
4.42504e-05
-0.00127665
3.78805e-05
-0.00128356
3.18484e-05
-0.00128863
2.60511e-05
-0.00129187
2.03984e-05
-0.00129327
1.48034e-05
-0.00129278
9.20019e-06
-0.00129027
3.53768e-06
-0.00128601
-1.82861e-06
-0.00128051
-6.55662e-06
-0.00127319
-1.13837e-05
-0.00126413
-1.6229e-05
-0.00125336
-2.11063e-05
-0.00124086
-2.60586e-05
-0.00122673
-3.08533e-05
-0.00121093
-3.57231e-05
-0.00119346
-4.06298e-05
-0.00117432
-4.55824e-05
-0.00115349
-5.05892e-05
-0.00113097
-5.5654e-05
-0.00110673
-6.07785e-05
-6.59639e-05
4.57774e-05
0.000110284
2.89559e-05
0.00011009
1.46529e-05
9.96461e-05
1.06093e-06
8.94295e-05
-1.21662e-05
7.99454e-05
-2.41956e-05
7.05957e-05
-3.47184e-05
6.16193e-05
-4.35911e-05
5.3123e-05
-5.06984e-05
4.49878e-05
-5.59413e-05
3.70914e-05
-5.92685e-05
2.93783e-05
-6.06531e-05
2.17829e-05
-6.00357e-05
1.41859e-05
-5.72513e-05
6.41582e-06
-5.22303e-05
-1.48333e-06
-4.59705e-05
-8.08836e-06
-3.7669e-05
-1.48582e-05
-2.74714e-05
-2.15813e-05
-1.54211e-05
-2.82792e-05
-1.49532e-06
-3.50321e-05
1.4041e-05
-4.15949e-05
3.13992e-05
-4.82115e-05
5.05351e-05
-5.4859e-05
7.14447e-05
-6.15393e-05
9.41261e-05
-6.82638e-05
0.000118578
-7.50413e-05
0.0001448
-8.18755e-05
0.000172787
-8.87659e-05
0.000202535
-9.57118e-05
-0.000102714
0.00170462
0.00016379
0.00166761
0.0001471
0.00163585
0.000131404
0.00160789
0.000117384
0.00158355
0.000104293
0.00156253
9.16096e-05
0.00154431
7.9841e-05
0.0015285
6.89358e-05
0.00151506
5.84293e-05
0.00150407
4.80787e-05
0.00149556
3.78889e-05
0.00148949
2.78519e-05
0.00148583
1.78457e-05
0.00148461
7.63096e-06
0.0014857
-2.57124e-06
0.00148908
-1.14701e-05
0.00149483
-2.06015e-05
0.00150295
-2.97001e-05
0.00151336
-3.86905e-05
0.00152594
-4.76116e-05
0.00154071
-5.63645e-05
0.00155759
-6.50958e-05
0.00157653
-7.38014e-05
0.00159749
-8.24979e-05
0.00162043
-9.12061e-05
0.00164534
-9.99429e-05
0.00167217
-0.000108713
0.00170092
-0.000117512
0.00173154
-0.000126334
-0.000135183
0.00384868
0.000259834
0.00376836
0.000227422
0.00369392
0.000205848
0.00362494
0.000186359
0.0035641
0.00016514
0.00351145
0.000144255
0.00346552
0.000125771
0.00342512
0.000109335
0.00338976
9.37951e-05
0.00335911
7.87207e-05
0.00333283
6.41749e-05
0.00331055
5.01325e-05
0.00329198
3.64083e-05
0.00327684
2.27706e-05
0.00326539
8.8843e-06
0.00325837
-4.45478e-06
0.00325389
-1.61172e-05
0.00325227
-2.80816e-05
0.00325364
-4.00551e-05
0.00325794
-5.19166e-05
0.00326512
-6.35416e-05
0.00327499
-7.49684e-05
0.00328743
-8.62427e-05
0.00330234
-9.74041e-05
0.00331963
-0.0001085
0.00333926
-0.000119574
0.00336119
-0.000130635
0.00338534
-0.000141665
0.00341165
-0.00015265
-0.000163595
0.00628678
0.000399286
0.00616011
0.000354092
0.00604004
0.000325923
0.00592387
0.00030252
0.00581731
0.000271708
0.00572108
0.000240481
0.00563373
0.000213117
0.00555449
0.00018858
0.00548319
0.000165099
0.00541943
0.00014248
0.00536258
0.000121022
0.00531206
0.000100654
0.00526735
8.11147e-05
0.0052279
6.22186e-05
0.00519295
4.38409e-05
0.00516267
2.58272e-05
0.00513882
7.7283e-06
0.00511956
-8.82548e-06
0.00510383
-2.43182e-05
0.00509176
-3.98509e-05
0.00508343
-5.52154e-05
0.00507884
-7.037e-05
0.00507778
-8.51877e-05
0.00508003
-9.96498e-05
0.00508538
-0.000113848
0.00509369
-0.000127892
0.00510487
-0.00014181
0.00511877
-0.000155566
0.00513526
-0.000169142
0.00515423
-0.000182562
-0.000195851
0.00862132
0.000563462
0.00846508
0.000510333
0.00830852
0.00048248
0.00815817
0.000452865
0.00801864
0.000411246
0.00788852
0.000370601
0.00776651
0.000335119
0.00765296
0.00030214
0.00754821
0.000269848
0.00745199
0.000238699
0.00736385
0.000209154
0.00728345
0.000181062
0.00721039
0.000154176
0.00714423
0.000128374
0.00708451
0.000103565
0.00703068
7.9649e-05
0.0069819
5.6511e-05
0.00693921
3.38675e-05
0.00690381
1.1079e-05
0.00687368
-9.71497e-06
0.00684704
-2.85803e-05
0.00682427
-4.76009e-05
0.0068055
-6.64128e-05
0.00679066
-8.48183e-05
0.00677963
-0.000102814
0.00677227
-0.000120533
0.00676843
-0.000137968
0.00676789
-0.000155028
0.00677044
-0.000171694
0.00677591
-0.000188026
0.00678413
-0.000204071
-0.000219841
0.0103571
0.000722938
0.0101993
0.000668184
0.0100371
0.000644641
0.00988375
0.000606218
0.00973875
0.00055624
0.00960034
0.000509019
0.00946859
0.000466869
0.00934397
0.000426758
0.00922655
0.000387263
0.00911628
0.000348971
0.0090132
0.000312233
0.00891732
0.000276945
0.00882849
0.000243008
0.00874646
0.000210401
0.00867096
0.000179066
0.0086017
0.000148908
0.00853838
0.000119831
0.00848045
9.18008e-05
0.00842678
6.47423e-05
0.00837874
3.83245e-05
0.00833835
1.18142e-05
0.00830304
-1.22899e-05
0.00827106
-3.44305e-05
0.00824256
-5.632e-05
0.00821761
-7.78611e-05
0.00819634
-9.92688e-05
0.00817871
-0.000120338
0.00816451
-0.00014083
0.00815355
-0.000160729
0.00814565
-0.000180124
0.00814064
-0.000199064
-0.000217555
0.0111361
0.00082674
0.01101
0.000794255
0.0108937
0.00076092
0.0107819
0.000718062
0.0106708
0.000667322
0.0105622
0.000617607
0.0104572
0.000571861
0.0103556
0.000528322
0.0102574
0.00048553
0.0101627
0.000443681
0.0100718
0.000403039
0.00998519
0.000363606
0.00990282
0.000325372
0.00982486
0.000288366
0.00975134
0.000252588
0.00968225
0.000217998
0.00961753
0.000184549
0.00955715
0.000152184
0.00950102
0.000120869
0.00944872
9.06232e-05
0.00939908
6.14607e-05
0.00935407
3.27195e-05
0.00931631
3.32591e-06
0.00928071
-2.07208e-05
0.00924795
-4.50977e-05
0.00921828
-6.96012e-05
0.00919159
-9.36536e-05
0.00916779
-0.000117022
0.00914678
-0.000139728
0.00912851
-0.000161846
0.00911285
-0.000183407
0.0090997
-0.000204406
-0.000224838
0.0165768
0.000932158
-0.0166822
0.0164964
0.000874615
0.0164278
0.000829585
0.0163622
0.000783654
0.0162937
0.000735771
0.0162229
0.000688382
0.0161526
0.000642157
0.0160837
0.000597279
0.0160154
0.000553774
0.0159476
0.000511488
0.0158804
0.000470248
0.015814
0.000430007
0.0157486
0.0003908
0.0156843
0.000352657
0.0156213
0.000315578
0.0155598
0.000279541
0.0154998
0.000244519
0.0154415
0.000210486
0.0153849
0.00017742
0.0153303
0.000145286
0.0152777
0.000114072
0.0152265
8.38942e-05
0.0151747
5.5113e-05
0.0151262
2.78234e-05
0.0150787
2.41717e-06
0.015035
-2.59895e-05
0.0149937
-5.2314e-05
0.0149542
-7.75668e-05
0.0149167
-0.000102141
0.0148809
-0.000126085
0.0148468
-0.000149359
0.0148144
-0.000171953
-0.000193889
0.0166805
0.000943179
-0.0166915
0.0166674
0.000887671
0.0166607
0.000836284
0.0166546
0.000789817
0.0166447
0.000745613
0.016631
0.000702094
0.0166142
0.000658954
0.0165949
0.000616602
0.0165733
0.000575351
0.0165496
0.000535181
0.0165239
0.000495945
0.0164964
0.000457549
0.0164672
0.000419981
0.0164366
0.000383258
0.0164048
0.000347392
0.0163719
0.00031238
0.0163382
0.00027822
0.0163038
0.000244915
0.0162688
0.000212465
0.0162332
0.00018089
0.0161971
0.000150188
0.0161606
0.00012035
0.0161245
9.12433e-05
0.0160895
6.28027e-05
0.016057
3.48987e-05
0.0160238
7.17652e-06
0.0159901
-1.85542e-05
0.0159564
-4.38922e-05
0.0159231
-6.88472e-05
0.0158901
-9.31129e-05
0.0158575
-0.000116684
0.0158251
-0.000139615
-0.000161926
0.0165793
0.00092344
-0.0165595
0.0165967
0.000870253
0.0166121
0.000820845
0.0166262
0.000775768
0.0166382
0.000733545
0.0166477
0.000692618
0.0166544
0.000652288
0.0166584
0.000612604
0.01666
0.000573771
0.0166593
0.000535863
0.0166564
0.000498829
0.0166514
0.000462588
0.0166442
0.000427091
0.0166352
0.000392325
0.0166243
0.000358291
0.0166117
0.000324993
0.0165975
0.00029243
0.0165818
0.000260601
0.0165647
0.000229498
0.0165465
0.000199102
0.0165273
0.000169372
0.0165074
0.000140268
0.0164868
0.000111824
0.0164655
8.41376e-05
0.0164431
5.73125e-05
0.0164189
3.13391e-05
0.0163941
6.30955e-06
0.0163692
-1.90783e-05
0.016344
-4.36314e-05
0.0163183
-6.74086e-05
0.0162922
-9.05806e-05
0.0162658
-0.000113154
-0.000135118
0.0164342
0.000884835
-0.0163956
0.0164642
0.000840268
0.0164895
0.000795565
0.0165123
0.000753014
0.016533
0.000712803
0.0165515
0.000674139
0.0165674
0.000636338
0.0165809
0.000599163
0.016592
0.000562659
0.0166009
0.000526911
0.0166078
0.000491936
0.0166127
0.000457699
0.0166157
0.000424156
0.0166167
0.00039128
0.0166159
0.00035906
0.0166134
0.000327496
0.0166093
0.000296583
0.0166036
0.000266315
0.0165964
0.000236683
0.0165878
0.000207673
0.0165779
0.000179284
0.0165666
0.000151529
0.016554
0.000124443
0.0165401
9.80516e-05
0.016525
7.24045e-05
0.016509
4.73224e-05
0.0164927
2.26113e-05
0.0164754
-1.75488e-06
0.0164569
-2.51159e-05
0.0164376
-4.81016e-05
0.0164175
-7.04816e-05
0.0163966
-9.22653e-05
-0.000113477
0.0162796
0.000843681
-0.0162384
0.0163153
0.000804579
0.0163467
0.000764149
0.0163749
0.000724805
0.0164005
0.000687226
0.0164235
0.000651051
0.0164441
0.000615754
0.0164623
0.000581038
0.0164781
0.000546861
0.0164917
0.000513287
0.0165033
0.000480361
0.0165129
0.000448087
0.0165206
0.000416439
0.0165265
0.000385395
0.0165306
0.00035494
0.016533
0.00032507
0.0165338
0.000295783
0.0165331
0.000267077
0.0165308
0.000238949
0.0165271
0.000211402
0.0165219
0.000184439
0.0165154
0.000158068
0.0165075
0.000132293
0.0164985
0.000107094
0.0164884
8.24472e-05
0.0164774
5.83061e-05
0.0164654
3.466e-05
0.016452
1.16061e-05
0.0164378
-1.08673e-05
0.0164225
-3.28406e-05
0.0164063
-5.42691e-05
0.0163892
-7.51559e-05
-9.55055e-05
0.0161323
0.000801265
-0.0160899
0.0161713
0.000765529
0.0162064
0.000729052
0.016238
0.000693256
0.0162665
0.000658696
0.0162924
0.000625204
0.0163157
0.000592428
0.0163366
0.000560138
0.0163552
0.00052828
0.0163716
0.000496898
0.0163859
0.000466044
0.0163982
0.000435739
0.0164087
0.000405977
0.0164173
0.000376746
0.0164242
0.000348036
0.0164295
0.000319844
0.0164331
0.000292172
0.0164351
0.000265023
0.0164357
0.000238398
0.0164348
0.000212301
0.0164325
0.000186732
0.0164289
0.000161688
0.016424
0.000137164
0.0164179
0.000113148
0.0164107
8.96373e-05
0.0164024
6.6636e-05
0.0163929
4.41573e-05
0.0163823
2.21963e-05
0.0163707
7.60021e-07
0.0163581
-2.02259e-05
0.0163445
-4.06811e-05
0.01633
-6.0636e-05
-8.00893e-05
0.0159996
0.000756688
-0.015955
0.0160402
0.00072498
0.0160769
0.000692326
0.0161102
0.000659962
0.0161405
0.000628416
0.0161681
0.000597625
0.0161931
0.000567358
0.0162158
0.000537456
0.0162362
0.000507883
0.0162544
0.000478678
0.0162706
0.00044989
0.0162848
0.000421549
0.0162971
0.000393664
0.0163076
0.000366231
0.0163164
0.00033925
0.0163235
0.000312721
0.016329
0.00028665
0.016333
0.000261042
0.0163355
0.000235901
0.0163366
0.000211229
0.0163363
0.000187028
0.0163347
0.000163296
0.0163318
0.000140034
0.0163277
0.000117243
0.0163224
9.49265e-05
0.016316
7.30891e-05
0.0163084
5.17294e-05
0.0162998
3.08396e-05
0.0162901
1.04136e-05
0.0162794
-9.54903e-06
0.0162678
-2.90367e-05
0.0162552
-4.80538e-05
-6.65994e-05
0.0158807
0.000712161
-0.0158361
0.0159214
0.000684226
0.0159587
0.000655033
0.0159928
0.000625819
0.0160241
0.000597126
0.0160528
0.000568953
0.016079
0.000541137
0.0161029
0.000513565
0.0161246
0.000486222
0.0161441
0.000459147
0.0161616
0.000432391
0.0161772
0.000405988
0.0161909
0.000379954
0.0162028
0.000354297
0.016213
0.000329021
0.0162216
0.000304134
0.0162286
0.000279642
0.0162341
0.000255555
0.0162381
0.000231877
0.0162408
0.000208615
0.016242
0.000185772
0.016242
0.000163353
0.0162406
0.00014136
0.0162381
0.000119799
0.0162343
9.86711e-05
0.0162294
7.79782e-05
0.0162235
5.77192e-05
0.0162164
3.78929e-05
0.0162083
1.85003e-05
0.0161992
-4.65952e-07
0.0161892
-1.89741e-05
0.0161782
-3.70538e-05
-5.46922e-05
0.0157727
0.000668807
-0.0157293
0.0158131
0.00064384
0.0158504
0.000617682
0.0158849
0.00059135
0.0159167
0.00056533
0.015946
0.000539645
0.0159729
0.000514177
0.0159977
0.000488847
0.0160202
0.000463653
0.0160407
0.00043864
0.0160593
0.000413859
0.0160759
0.000389346
0.0160907
0.000365124
0.0161038
0.000341207
0.0161152
0.000317605
0.016125
0.00029433
0.0161333
0.000271392
0.01614
0.000248802
0.0161454
0.00022657
0.0161493
0.000204702
0.0161518
0.000183207
0.0161531
0.00016209
0.0161531
0.000141357
0.0161519
0.000121012
0.0161495
0.000101058
0.016146
8.14987e-05
0.0161414
6.23358e-05
0.0161357
4.35717e-05
0.016129
2.52091e-05
0.0161213
7.24973e-06
0.0161126
-1.03002e-05
0.016103
-2.74431e-05
-4.41776e-05
0.0156738
0.000626467
-0.0156314
0.0157135
0.00060411
0.0157505
0.000580663
0.0157849
0.000556956
0.0158168
0.000533406
0.0158464
0.000510048
0.0158738
0.000486796
0.0158991
0.000463593
0.0159223
0.00044045
0.0159435
0.000417412
0.0159628
0.000394531
0.0159803
0.000371846
0.0159961
0.000349383
0.0160101
0.000327159
0.0160225
0.00030519
0.0160334
0.000283491
0.0160427
0.000262075
0.0160505
0.000240955
0.0160569
0.000220143
0.016062
0.000199649
0.0160657
0.000179482
0.0160682
0.00015965
0.0160694
0.000140159
0.0160694
0.000121015
0.0160682
0.000102225
0.0160659
8.37907e-05
0.0160625
6.57184e-05
0.0160581
4.80114e-05
0.0160526
3.06733e-05
0.0160462
1.37066e-05
0.0160387
-2.88736e-06
0.0160304
-1.91002e-05
-3.49364e-05
0.0155826
0.000585218
-0.0155414
0.0156214
0.000565275
0.0156578
0.000544268
0.0156919
0.000522929
0.0157236
0.000501636
0.0157532
0.00048043
0.0157808
0.000459247
0.0158063
0.000438045
0.01583
0.00041684
0.0158517
0.00039568
0.0158716
0.000374614
0.0158898
0.000353683
0.0159062
0.000332913
0.0159211
0.000312326
0.0159343
0.000291941
0.015946
0.000271773
0.0159563
0.000251839
0.0159651
0.000232155
0.0159725
0.000212733
0.0159785
0.000193585
0.0159833
0.000174722
0.0159868
0.000156152
0.0159891
0.000137885
0.0159902
0.000119927
0.0159901
0.000102285
0.0159889
8.49645e-05
0.0159867
6.79719e-05
0.0159834
5.13115e-05
0.0159791
3.49875e-05
0.0159738
1.90033e-05
0.0159675
3.36004e-06
0.0159604
-1.19311e-05
-2.68749e-05
0.0154983
0.000545315
-0.0154584
0.0155361
0.0005275
0.0155717
0.000508668
0.0156052
0.000489463
0.0156366
0.000470224
0.015666
0.000450999
0.0156935
0.000431735
0.0157192
0.000412403
0.015743
0.00039302
0.015765
0.000373633
0.0157853
0.00035429
0.015804
0.00033503
0.015821
0.000315882
0.0158365
0.000296868
0.0158504
0.000278009
0.0158629
0.000259322
0.0158739
0.000240826
0.0158835
0.000222537
0.0158918
0.000204468
0.0158987
0.000186634
0.0159044
0.000169045
0.0159088
0.000151713
0.0159121
0.000134646
0.0159141
0.000117853
0.0159151
0.000101342
0.0159149
8.51197e-05
0.0159137
6.91921e-05
0.0159115
5.35649e-05
0.0159082
3.82428e-05
0.015904
2.32303e-05
0.0158988
8.53074e-06
0.0158927
-5.8502e-06
-1.99078e-05
0.0154203
0.000506814
-0.0153818
0.0154569
0.000490858
0.0154916
0.000473964
0.0155244
0.000456684
0.0155553
0.000439318
0.0155844
0.000421911
0.0156117
0.000404422
0.0156373
0.000386829
0.0156612
0.000369151
0.0156834
0.000351431
0.0157039
0.000333716
0.0157229
0.000316042
0.0157404
0.00029844
0.0157563
0.00028093
0.0157708
0.000263536
0.0157838
0.000246275
0.0157955
0.000229166
0.0158058
0.000212226
0.0158148
0.000195471
0.0158225
0.000178914
0.015829
0.000162567
0.0158343
0.000146443
0.0158384
0.00013055
0.0158413
0.000114899
0.0158432
9.94978e-05
0.0158439
8.43536e-05
0.0158436
6.94736e-05
0.0158423
5.48639e-05
0.0158401
4.05301e-05
0.0158368
2.64774e-05
0.0158326
1.27101e-05
0.0158275
-7.73094e-07
-1.3951e-05
0.0153481
0.00046966
-0.0153109
0.0153836
0.000455367
0.0154173
0.000440214
0.0154493
0.000424675
0.0154796
0.000409015
0.0155083
0.000393276
0.0155353
0.000377427
0.0155607
0.000361449
0.0155844
0.000345361
0.0156067
0.000329205
0.0156274
0.000313022
0.0156466
0.00029685
0.0156643
0.000280714
0.0156806
0.000264639
0.0156955
0.000248645
0.015709
0.000232752
0.0157212
0.000216978
0.0157321
0.00020134
0.0157417
0.000185855
0.0157501
0.000170536
0.0157572
0.000155396
0.0157632
0.000140447
0.0157681
0.0001257
0.0157718
0.000111164
0.0157745
9.68486e-05
0.0157761
8.2761e-05
0.0157766
6.89091e-05
0.0157762
5.52993e-05
0.0157748
4.19377e-05
0.0157724
2.88299e-05
0.0157692
1.59802e-05
0.015765
3.39145e-06
-8.92453e-06
0.0152814
0.000433812
-0.0152455
0.0153157
0.00042102
0.0153485
0.000407437
0.0153797
0.000393477
0.0154094
0.000379373
0.0154375
0.000365166
0.0154641
0.00035083
0.0154892
0.00033635
0.0155128
0.000321746
0.0155349
0.000307054
0.0155556
0.000292313
0.0155749
0.000277556
0.0155928
0.000262812
0.0156094
0.0002481
0.0156246
0.000233443
0.0156385
0.000218859
0.0156511
0.000204366
0.0156624
0.000189982
0.0156726
0.000175722
0.0156815
0.000161601
0.0156893
0.000147631
0.0156959
0.000133824
0.0157014
0.000120191
0.0157058
0.000106742
0.0157092
9.34863e-05
0.0157115
8.04321e-05
0.0157128
6.75871e-05
0.0157132
5.49581e-05
0.0157126
4.25514e-05
0.015711
3.03727e-05
0.0157086
1.84271e-05
0.0157052
6.71849e-06
-4.74665e-06
0.0152199
0.000399223
-0.0151853
0.0152531
0.000387783
0.0152849
0.000375621
0.0153153
0.000363097
0.0153443
0.000350417
0.0153718
0.00033762
0.015398
0.000324682
0.0154227
0.000311594
0.0154461
0.000298373
0.0154681
0.000285051
0.0154887
0.000271665
0.015508
0.000258246
0.015526
0.000244818
0.0155427
0.000231402
0.0155582
0.000218019
0.0155723
0.000204686
0.0155853
0.000191422
0.015597
0.000178242
0.0156076
0.000165163
0.015617
0.000152197
0.0156253
0.000139359
0.0156324
0.000126659
0.0156385
0.000114109
0.0156435
0.000101718
0.0156475
8.94959e-05
0.0156505
7.74509e-05
0.0156525
6.55907e-05
0.0156535
5.39223e-05
0.0156536
4.24521e-05
0.0156528
3.1186e-05
0.0156511
2.01294e-05
0.0156485
9.28645e-06
-1.34064e-06
0.0151633
0.000365821
-0.0151299
0.0151955
0.000355605
0.0152264
0.000344734
0.0152559
0.000333522
0.0152842
0.00032215
0.0153112
0.000310653
0.0153368
0.000299012
0.0153612
0.000287218
0.0153843
0.000275288
0.0154061
0.000263251
0.0154266
0.000251139
0.0154459
0.000238981
0.0154639
0.0002268
0.0154807
0.000214615
0.0154963
0.000202445
0.0155106
0.000190308
0.0155238
0.00017822
0.0155359
0.000166197
0.0155468
0.000154254
0.0155566
0.000142404
0.0155653
0.000130659
0.0155729
0.000119032
0.0155795
0.000107533
0.015585
9.61706e-05
0.0155896
8.49552e-05
0.0155931
7.38946e-05
0.0155957
6.29965e-05
0.0155974
5.2268e-05
0.0155981
4.17154e-05
0.015598
3.13446e-05
0.0155969
2.11611e-05
0.0155951
1.11693e-05
1.36965e-06
0.0151114
0.000333522
-0.0150791
0.0151426
0.000324421
0.0151726
0.000314731
0.0152014
0.000304724
0.015229
0.000294557
0.0152554
0.000284263
0.0152806
0.000273827
0.0153046
0.00026324
0.0153273
0.000252518
0.0153489
0.000241686
0.0153693
0.000230775
0.0153884
0.000219809
0.0154064
0.000208809
0.0154232
0.000197794
0.0154389
0.00018678
0.0154534
0.000175785
0.0154668
0.000164824
0.0154791
0.000153912
0.0154903
0.000143062
0.0155004
0.000132288
0.0155095
0.000121601
0.0155175
0.000111012
0.0155245
0.000100532
0.0155305
9.01699e-05
0.0155355
7.99344e-05
0.0155396
6.98337e-05
0.0155427
5.98752e-05
0.0155449
5.00658e-05
0.0155462
4.04118e-05
0.0155466
3.09188e-05
0.0155462
2.15922e-05
0.0155449
1.24365e-05
3.45492e-06
0.0150641
0.000302238
-0.0150328
0.0150944
0.000294162
0.0151235
0.000285558
0.0151516