/*--------------------------------*- C++ -*----------------------------------*\
  =========                 |
  \\      /  F ield         | OpenFOAM: The Open Source CFD Toolbox
   \\    /   O peration     | Website:  https://openfoam.org
    \\  /    A nd           | Version:  7
     \\/     M anipulation  |
\*---------------------------------------------------------------------------*/
FoamFile
{
    version     2.0;
    format      ascii;
    class       volVectorField;
    location    "15";
    object      U;
}
// * * * * * * * * * * * * * * * * * * * * * * * * * * * * * * * * * * * * * //

dimensions      [0 1 -1 0 0 0 0];

internalField   nonuniform List<vector> 
1360
(
(0.0888856 -0.0440578 -6.27319e-20)
(0.151053 -0.0505907 8.15876e-20)
(0.216624 -0.053371 -5.3162e-20)
(0.281877 -0.0535308 9.51812e-21)
(0.344566 -0.0519768 -5.45529e-20)
(0.403362 -0.0494067 1.0842e-20)
(0.457659 -0.0463239 8.47911e-20)
(0.507337 -0.0430681 -2.21183e-19)
(0.55256 -0.039851 -2.54176e-20)
(0.593637 -0.0367911 4.80487e-20)
(0.630938 -0.0339443 9.16541e-20)
(0.664837 -0.0313278 -9.70846e-21)
(0.69569 -0.0289373 -8.63992e-20)
(0.723817 -0.0267582 7.35823e-20)
(0.749507 -0.0247724 -1.09793e-19)
(0.773021 -0.022959 8.43298e-20)
(0.794577 -0.0212945 8.73828e-20)
(0.814318 -0.0197693 -1.03136e-19)
(0.104648 -0.130078 -4.00435e-19)
(0.168691 -0.149554 -1.914e-19)
(0.23483 -0.157954 -2.06167e-19)
(0.299802 -0.15859 4.14119e-19)
(0.361699 -0.154124 1.12469e-19)
(0.419431 -0.146613 -9.33191e-20)
(0.472553 -0.13755 3.99152e-19)
(0.521048 -0.127945 -2.5916e-20)
(0.565137 -0.118433 -3.98119e-19)
(0.60516 -0.109372 5.57963e-20)
(0.641496 -0.100932 7.0747e-20)
(0.67452 -0.0931681 7.51932e-22)
(0.704579 -0.0860706 -7.62451e-20)
(0.731987 -0.079598 -2.01349e-19)
(0.757027 -0.0736966 -6.75976e-20)
(0.779964 -0.0683033 7.81636e-21)
(0.800998 -0.0633505 3.6282e-19)
(0.820149 -0.0588258 2.34679e-19)
(0.135167 -0.209929 3.30869e-19)
(0.202933 -0.241976 3.46211e-19)
(0.270267 -0.256162 -3.32409e-19)
(0.334777 -0.257729 -3.59251e-19)
(0.395197 -0.250924 -1.15309e-19)
(0.450904 -0.239061 1.83621e-19)
(0.501769 -0.224564 1.37399e-20)
(0.547975 -0.209092 -2.35702e-19)
(0.589863 -0.193698 2.06792e-19)
(0.627831 -0.178985 -1.50216e-19)
(0.662283 -0.16525 5.86028e-20)
(0.693595 -0.152594 -5.46866e-19)
(0.722103 -0.141009 7.88184e-19)
(0.748102 -0.130434 1.92092e-19)
(0.771869 -0.120782 -7.10581e-19)
(0.793676 -0.111948 6.29649e-19)
(0.81369 -0.103825 8.33653e-22)
(0.831695 -0.0964486 1.03567e-19)
(0.251766 -0.323871 9.05209e-20)
(0.321028 -0.344075 3.9025e-20)
(0.385078 -0.347279 -5.74444e-20)
(0.443549 -0.339049 -3.7113e-19)
(0.496474 -0.32378 4.38947e-19)
(0.544179 -0.304732 4.55956e-21)
(0.587146 -0.284176 7.21289e-19)
(0.625892 -0.263573 8.96114e-20)
(0.660912 -0.243781 -1.02568e-19)
(0.692652 -0.225237 -3.81362e-19)
(0.721493 -0.208104 2.03282e-19)
(0.747761 -0.192389 -6.43335e-19)
(0.771728 -0.178023 9.01013e-19)
(0.793656 -0.16489 -1.0894e-18)
(0.813827 -0.152838 7.5038e-19)
(0.832369 -0.141733 -4.65709e-19)
(0.848744 -0.13173 -2.18912e-19)
(0.38435 -0.418255 1.39456e-19)
(0.448204 -0.423987 -7.62475e-19)
(0.504551 -0.415516 1.26154e-18)
(0.554229 -0.398089 -1.00225e-18)
(0.598136 -0.375674 -4.53711e-19)
(0.637137 -0.351087 9.49158e-19)
(0.671989 -0.326185 -2.29798e-19)
(0.703326 -0.302091 -8.52567e-20)
(0.731657 -0.279395 -1.07069e-18)
(0.757385 -0.258346 1.1481e-18)
(0.780825 -0.238984 3.18257e-19)
(0.802227 -0.221242 -8.84938e-19)
(0.821834 -0.204986 7.30296e-19)
(0.839943 -0.190014 -4.97568e-19)
(0.856642 -0.176165 -4.39057e-19)
(0.871009 -0.163807 1.46033e-18)
(0.45674 -0.475915 -3.6984e-19)
(0.520962 -0.485149 1.0061e-18)
(0.575379 -0.477807 -8.89059e-19)
(0.621716 -0.459704 8.18005e-19)
(0.661523 -0.435347 -8.19353e-19)
(0.696124 -0.408015 7.60563e-19)
(0.726578 -0.379935 -4.23194e-19)
(0.753702 -0.352494 1.04414e-18)
(0.778104 -0.326463 -1.28548e-18)
(0.800228 -0.302194 -1.14805e-19)
(0.820392 -0.279783 3.04316e-19)
(0.838825 -0.259185 6.41205e-19)
(0.855753 -0.240258 3.6707e-20)
(0.871494 -0.222744 -7.29147e-19)
(0.886107 -0.206446 -3.76692e-19)
(0.898238 -0.192025 7.7984e-19)
(0.59959 -0.528738 -2.4932e-19)
(0.652678 -0.52397 2.81365e-20)
(0.696001 -0.506814 2.71119e-20)
(0.731803 -0.482112 3.75852e-19)
(0.761914 -0.453498 6.44994e-20)
(0.787756 -0.423524 1.22368e-19)
(0.810379 -0.393842 6.80917e-19)
(0.830529 -0.365419 -6.34436e-19)
(0.848725 -0.338736 5.67232e-19)
(0.865311 -0.313967 -3.60966e-19)
(0.880506 -0.291112 3.19293e-19)
(0.89452 -0.270032 -5.8145e-19)
(0.907712 -0.250396 4.48015e-19)
(0.920202 -0.231912 -1.67154e-19)
(0.930185 -0.215557 -8.21238e-19)
(0.773781 -0.538148 -4.01043e-19)
(0.806114 -0.514786 -3.05409e-19)
(0.832052 -0.486473 2.80477e-19)
(0.853421 -0.456018 -2.9183e-19)
(0.871557 -0.425325 7.29983e-19)
(0.887399 -0.395568 4.39083e-19)
(0.90158 -0.367384 -9.41467e-19)
(0.91451 -0.34105 3.75868e-19)
(0.926434 -0.316621 2.62717e-19)
(0.937545 -0.293972 -3.40037e-19)
(0.948252 -0.272705 -7.72682e-19)
(0.959033 -0.252466 4.48247e-19)
(0.968103 -0.234841 1.39394e-19)
(0.903742 -0.506303 -3.21389e-19)
(0.921097 -0.476868 -4.37913e-19)
(0.934994 -0.446503 5.47734e-19)
(0.946599 -0.416603 3.64785e-20)
(0.956697 -0.388 -1.42959e-19)
(0.965796 -0.361125 -4.40841e-20)
(0.974212 -0.336146 6.6581e-20)
(0.982139 -0.313078 -1.38126e-19)
(0.989727 -0.291941 1.12221e-19)
(0.997263 -0.272958 5.12882e-19)
(1.00562 -0.255792 -4.81412e-19)
(0.998639 -0.456874 -7.27648e-20)
(1.00644 -0.427882 -1.3779e-19)
(1.01272 -0.399691 -2.41675e-19)
(1.01814 -0.37288 1.92417e-19)
(1.02308 -0.347715 8.80486e-21)
(1.02777 -0.324302 4.35485e-20)
(1.03218 -0.302818 3.25495e-19)
(1.03633 -0.283405 -2.42221e-19)
(1.04137 -0.264441 8.25625e-20)
(1.07035 -0.376917 -9.79211e-20)
(1.07212 -0.352304 -8.19284e-20)
(1.07377 -0.329196 1.83715e-19)
(1.07528 -0.307856 1.48206e-19)
(1.0765 -0.288442 -1.41986e-19)
(1.07834 -0.269151 -3.74504e-20)
(1.11758 -0.30737 -2.51383e-20)
(1.11619 -0.288332 1.81238e-20)
(1.11515 -0.269358 1.05521e-19)
(0.831085 -0.0185176 1.40044e-19)
(0.845865 -0.016934 -5.90043e-20)
(0.859324 -0.0153749 5.13095e-20)
(0.871566 -0.0139476 -6.67874e-20)
(0.88271 -0.0126682 5.90089e-20)
(0.892872 -0.0115269 -6.38021e-20)
(0.902157 -0.0105081 -3.06263e-20)
(0.910656 -0.00959652 4.5171e-20)
(0.918449 -0.00877854 -1.76485e-21)
(0.925605 -0.00804234 2.07527e-20)
(0.932187 -0.00737777 3.50882e-20)
(0.938247 -0.00677609 -2.30826e-20)
(0.943834 -0.00622978 -4.76602e-20)
(0.948988 -0.00573236 5.12662e-20)
(0.953748 -0.00527819 -4.88309e-20)
(0.958146 -0.00486237 5.17877e-20)
(0.962211 -0.00448064 1.58129e-20)
(0.965969 -0.00412929 2.92312e-21)
(0.969444 -0.00380502 -5.73239e-20)
(0.972656 -0.00350499 -1.48666e-20)
(0.975624 -0.0032268 -3.82668e-21)
(0.978368 -0.00296876 3.69072e-20)
(0.980901 -0.00272915 -1.3185e-20)
(0.983232 -0.00250372 -1.84974e-20)
(0.985372 -0.0022918 4.37408e-20)
(0.987333 -0.00209244 -1.62789e-20)
(0.989128 -0.00190438 -2.57112e-20)
(0.990762 -0.0017264 3.541e-20)
(0.992246 -0.00155744 -9.46035e-22)
(0.993584 -0.00139652 -3.26698e-20)
(0.994784 -0.00124273 1.49982e-20)
(0.995851 -0.00109525 9.65281e-21)
(0.996788 -0.000953328 4.79412e-22)
(0.997601 -0.000816242 -2.37485e-22)
(0.998291 -0.000683327 -5.21612e-21)
(0.998864 -0.000553952 -2.37033e-22)
(0.99932 -0.000427523 3.25052e-21)
(0.99966 -0.000303491 -6.47184e-21)
(0.999881 -0.000181297 3.23062e-21)
(0.999985 -6.02702e-05 -4.93302e-22)
(0.836166 -0.0551486 -2.40575e-19)
(0.850283 -0.050461 -1.1298e-19)
(0.863135 -0.0458412 1.12834e-19)
(0.874848 -0.0416063 -1.89067e-19)
(0.885541 -0.037806 2.91083e-19)
(0.895318 -0.0344127 1.83844e-19)
(0.904274 -0.0313813 -2.64511e-19)
(0.912492 -0.0286671 1.85262e-20)
(0.920044 -0.0262301 5.99013e-20)
(0.926992 -0.0240355 -6.5756e-20)
(0.933394 -0.0220535 1.53297e-19)
(0.939299 -0.0202584 -2.08258e-19)
(0.944751 -0.0186279 2.44005e-19)
(0.949788 -0.0171428 -2.7899e-19)
(0.954446 -0.0157864 1.7393e-19)
(0.958754 -0.0145442 -1.3025e-20)
(0.96274 -0.0134035 -7.92819e-20)
(0.96643 -0.0123532 1.21742e-20)
(0.969843 -0.0113837 3.67693e-20)
(0.973001 -0.0104862 -3.92454e-20)
(0.97592 -0.0096534 6.82547e-20)
(0.978618 -0.00887906 4.87647e-21)
(0.981115 -0.00815881 1.69576e-20)
(0.983417 -0.00748822 -6.0489e-20)
(0.98553 -0.00685683 1.08477e-19)
(0.987466 -0.00626171 -1.7757e-19)
(0.989238 -0.00569959 6.94135e-20)
(0.990853 -0.00516742 -2.61632e-20)
(0.992319 -0.00466208 3.35548e-20)
(0.993643 -0.0041807 -1.89605e-20)
(0.99483 -0.0037206 4.55798e-20)
(0.995886 -0.00327933 -4.47361e-20)
(0.996814 -0.00285461 2.03622e-20)
(0.997618 -0.00244433 1.47336e-21)
(0.998303 -0.00204648 1.72029e-20)
(0.99887 -0.00165918 -9.7158e-21)
(0.999323 -0.00128063 -9.79329e-21)
(0.99966 -0.000909187 1.38937e-20)
(0.99988 -0.000543173 -8.53202e-21)
(0.999984 -0.000180579 -2.24231e-21)
(0.84626 -0.0905721 -3.85414e-21)
(0.859069 -0.0829694 -5.33502e-19)
(0.870717 -0.0754612 -1.39353e-19)
(0.881384 -0.0685596 2.87187e-19)
(0.89118 -0.0623521 -7.21841e-19)
(0.900193 -0.0567987 1.76869e-19)
(0.908496 -0.0518294 1.73338e-19)
(0.916154 -0.0473737 2.89787e-20)
(0.923225 -0.0433681 2.43925e-19)
(0.929761 -0.0397572 7.61171e-20)
(0.935806 -0.0364929 -4.32556e-19)
(0.941401 -0.0335338 1.4837e-19)
(0.946585 -0.0308441 1.67075e-19)
(0.951388 -0.0283926 2.42461e-21)
(0.955841 -0.0261524 6.95572e-20)
(0.959971 -0.0240998 -1.85253e-19)
(0.963801 -0.0222141 -1.25032e-20)
(0.967353 -0.0204773 5.04242e-20)
(0.970646 -0.0188734 -1.72308e-19)
(0.973698 -0.0173883 6.64549e-20)
(0.976524 -0.0160096 1.33494e-19)
(0.979135 -0.0147263 7.65836e-20)
(0.981545 -0.0135298 -1.45969e-19)
(0.983777 -0.012414 -6.98967e-20)
(0.985841 -0.0113706 9.08345e-20)
(0.987731 -0.0103883 -2.52277e-20)
(0.98946 -0.00945663 3.16069e-20)
(0.991036 -0.00857441 9.40239e-20)
(0.992468 -0.0077366 -1.13179e-19)
(0.993762 -0.0069385 -5.9447e-20)
(0.994924 -0.00617564 7.8693e-20)
(0.995957 -0.00544394 -1.67566e-20)
(0.996866 -0.00473958 7.90497e-20)
(0.997655 -0.00405903 -6.71632e-20)
(0.998327 -0.00339894 -3.51117e-20)
(0.998884 -0.00275617 4.64503e-20)
(0.999329 -0.00212775 2.35346e-20)
(0.999661 -0.0015109 -1.10156e-20)
(0.999878 -0.000902812 -6.10118e-21)
(0.999983 -0.000300162 -2.80783e-21)
(0.86124 -0.124007 2.92271e-19)
(0.87213 -0.113799 4.56788e-19)
(0.882001 -0.103686 -5.4952e-19)
(0.891123 -0.094349 9.92724e-20)
(0.899591 -0.0859209 4.33545e-19)
(0.907469 -0.0783582 -1.52998e-19)
(0.914801 -0.0715736 -2.75553e-19)
(0.921628 -0.065477 9.46187e-20)
(0.927984 -0.0599859 -6.82132e-20)
(0.933904 -0.0550275 3.45875e-19)
(0.939417 -0.0505385 6.11445e-20)
(0.944551 -0.0464641 1.39141e-19)
(0.949334 -0.0427564 -7.06773e-19)
(0.953788 -0.0393738 -3.76104e-20)
(0.957936 -0.03628 4.99113e-19)
(0.961799 -0.0334432 -5.44296e-19)
(0.965395 -0.0308355 4.65406e-19)
(0.968741 -0.0284324 -1.26804e-19)
(0.971853 -0.0262123 8.98847e-20)
(0.974745 -0.0241559 -4.02442e-20)
(0.97743 -0.0222464 8.35628e-20)
(0.979919 -0.0204684 -1.1363e-19)
(0.98222 -0.0188081 1.01543e-20)
(0.984341 -0.0172533 2.07848e-19)
(0.986304 -0.0157968 -6.06054e-20)
(0.988128 -0.0144271 7.89194e-20)
(0.9898 -0.0131395 -2.6861e-19)
(0.991318 -0.0119204 2.17915e-19)
(0.992698 -0.0107587 -2.06973e-19)
(0.993946 -0.00965084 3.25694e-20)
(0.995068 -0.00859164 7.38274e-20)
(0.996067 -0.00757532 1.54423e-21)
(0.996948 -0.00659666 -4.52024e-20)
(0.997713 -0.00565077 -5.77716e-21)
(0.998365 -0.00473299 3.74502e-20)
(0.998906 -0.00383894 5.94383e-22)
(0.999339 -0.00296446 -6.04512e-21)
(0.999663 -0.00210565 -6.43928e-21)
(0.999876 -0.00125851 1.35485e-20)
(0.999981 -0.000418464 -5.08292e-21)
(0.880952 -0.154685 -1.67025e-19)
(0.88936 -0.142289 -7.25047e-19)
(0.89692 -0.129962 -5.55832e-19)
(0.90402 -0.118512 3.34701e-19)
(0.910746 -0.108126 -1.24946e-20)
(0.91713 -0.0987669 -2.40379e-19)
(0.923182 -0.0903419 3.84044e-19)
(0.92891 -0.0827481 -2.39851e-19)
(0.934321 -0.07589 4.64991e-21)
(0.939425 -0.0696824 6.36358e-19)
(0.944233 -0.0640506 -3.24106e-19)
(0.948756 -0.0589291 -3.70011e-19)
(0.953007 -0.0542607 2.09731e-19)
(0.956998 -0.0499954 1.41839e-19)
(0.960741 -0.0460891 2.57254e-19)
(0.964249 -0.0425032 -3.35776e-19)
(0.967534 -0.0392038 -1.17751e-19)
(0.970606 -0.0361606 5.85408e-19)
(0.973477 -0.0333472 -3.62051e-19)
(0.976156 -0.0307398 -2.62405e-19)
(0.978653 -0.0283175 2.35586e-19)
(0.980976 -0.0260615 -2.19291e-19)
(0.983134 -0.0239546 1.26024e-19)
(0.985134 -0.0219802 1.13038e-19)
(0.986979 -0.0201238 -1.65664e-19)
(0.988673 -0.018379 9.06128e-20)
(0.990238 -0.0167361 1.77927e-19)
(0.991688 -0.015179 -3.05234e-19)
(0.993009 -0.0137031 2.7878e-19)
(0.994198 -0.0122976 -2.29183e-19)
(0.995267 -0.0109524 1.95412e-19)
(0.99622 -0.0096597 -6.83304e-20)
(0.997062 -0.00841399 -1.75457e-20)
(0.997794 -0.00720955 -2.03539e-20)
(0.998419 -0.00604043 7.20087e-20)
(0.998939 -0.00490094 -5.42246e-20)
(0.999355 -0.00378577 -1.79493e-20)
(0.999668 -0.0026899 1.71176e-20)
(0.999875 -0.00160815 1.14075e-20)
(0.99998 -0.00053478 -8.48426e-21)
(0.905275 -0.181995 -5.34866e-19)
(0.910686 -0.167928 1.78375e-19)
(0.915429 -0.153881 4.36005e-19)
(0.920053 -0.140723 -6.24129e-20)
(0.924636 -0.128703 5.46759e-20)
(0.929175 -0.117809 1.4898e-19)
(0.933645 -0.107952 2.28561e-19)
(0.938014 -0.0990277 -3.39397e-19)
(0.942255 -0.0909373 -1.84782e-19)
(0.946349 -0.0835902 -2.45094e-19)
(0.950283 -0.0769054 5.42285e-19)
(0.954047 -0.0708116 -2.92144e-19)
(0.957637 -0.0652453 1.71206e-19)
(0.961052 -0.0601505 -5.58052e-19)
(0.964291 -0.0554776 5.82319e-19)
(0.967356 -0.0511827 -1.75333e-19)
(0.970251 -0.0472266 2.05495e-19)
(0.97298 -0.0435747 -6.49489e-20)
(0.975547 -0.0401961 7.0809e-20)
(0.977958 -0.0370631 -2.44867e-19)
(0.980217 -0.0341512 -1.58124e-19)
(0.98233 -0.0314384 -1.43569e-19)
(0.984302 -0.0289046 1.26124e-19)
(0.986137 -0.0265318 2.3572e-19)
(0.98784 -0.0243034 -1.41075e-19)
(0.989414 -0.0222033 3.14368e-19)
(0.990864 -0.020216 -3.08763e-19)
(0.992192 -0.0183364 -2.51639e-21)
(0.993407 -0.0165548 -1.78533e-20)
(0.994519 -0.0148561 6.544e-20)
(0.995525 -0.0132312 -1.00346e-19)
(0.996424 -0.0116727 1.06608e-19)
(0.997215 -0.0101716 -2.96378e-21)
(0.997904 -0.00871922 1.84175e-20)
(0.998494 -0.0073083 9.99238e-21)
(0.998985 -0.00593183 4.6735e-20)
(0.99938 -0.00458377 -8.77241e-20)
(0.999677 -0.00325812 4.02716e-20)
(0.999877 -0.00194845 -2.64892e-20)
(0.999979 -0.000647971 1.48504e-20)
(0.934217 -0.204938 1.5885e-18)
(0.936155 -0.189645 -8.1388e-19)
(0.937606 -0.174334 -7.79704e-20)
(0.939331 -0.159878 -9.53407e-19)
(0.941396 -0.146596 9.3866e-19)
(0.943761 -0.134503 4.49751e-19)
(0.946357 -0.123514 -1.55341e-18)
(0.949108 -0.113526 1.67698e-18)
(0.95195 -0.104438 -1.4904e-19)
(0.954831 -0.0961558 -1.37175e-18)
(0.957711 -0.0885959 6.79434e-19)
(0.960557 -0.0816834 5.94198e-19)
(0.963346 -0.0753514 -2.56009e-19)
(0.966059 -0.0695408 -1.31325e-19)
(0.968682 -0.0641987 2.00561e-19)
(0.971207 -0.0592779 4.56252e-20)
(0.973625 -0.0547366 -2.26357e-20)
(0.975933 -0.050537 -3.23929e-20)
(0.978128 -0.0466456 -5.36903e-19)
(0.980209 -0.0430321 4.13225e-19)
(0.982176 -0.0396694 4.27031e-20)
(0.984028 -0.0365332 -1.78881e-19)
(0.985768 -0.0336012 -1.24777e-19)
(0.987398 -0.0308536 1.71817e-20)
(0.988918 -0.0282722 1.2827e-19)
(0.990331 -0.0258401 -6.60471e-20)
(0.991639 -0.0235418 9.70883e-20)
(0.992844 -0.0213634 7.48118e-20)
(0.993949 -0.01929 -9.89346e-20)
(0.994957 -0.0173129 -1.28645e-19)
(0.995868 -0.0154228 1.79925e-19)
(0.996684 -0.0136096 -1.2436e-19)
(0.997411 -0.0118621 9.05572e-21)
(0.998046 -0.0101709 1.53788e-19)
(0.998592 -0.00852786 -2.39758e-20)
(0.999048 -0.00692512 4.83135e-20)
(0.999415 -0.00535453 -1.0522e-19)
(0.999692 -0.00380818 2.05489e-20)
(0.999881 -0.00227846 1.06504e-20)
(0.99998 -0.000757843 2.86564e-21)
(0.969038 -0.224712 2.79348e-19)
(0.96667 -0.209438 2.13795e-19)
(0.964075 -0.193832 -8.6541e-20)
(0.962264 -0.178838 1.72804e-19)
(0.961283 -0.164849 1.12989e-19)
(0.961039 -0.15192 -1.46889e-18)
(0.961402 -0.140014 5.4367e-19)
(0.962237 -0.129067 -2.4191e-19)
(0.96343 -0.119009 -4.31258e-19)
(0.964888 -0.109769 1.37312e-18)
(0.966534 -0.101277 -3.62239e-19)
(0.968308 -0.0934696 -9.66053e-19)
(0.970161 -0.0862857 8.2601e-19)
(0.972055 -0.0796693 -2.11353e-19)
(0.97396 -0.0735688 4.52447e-19)
(0.975852 -0.067937 -2.12469e-19)
(0.977712 -0.0627306 -4.15923e-19)
(0.979526 -0.0579101 3.52614e-19)
(0.981282 -0.0534396 2.01744e-19)
(0.982974 -0.0492864 4.11989e-20)
(0.984593 -0.0454206 5.74141e-20)
(0.986136 -0.0418151 -6.36976e-20)
(0.9876 -0.0384452 -4.49775e-19)
(0.988982 -0.0352883 1.13204e-19)
(0.990281 -0.0323238 4.97116e-19)
(0.991496 -0.0295327 3.28419e-20)
(0.992628 -0.0268977 -5.17842e-19)
(0.993677 -0.0244026 2.24975e-19)
(0.994642 -0.0220323 6.64501e-20)
(0.995526 -0.0197736 -1.54531e-19)
(0.996327 -0.0176138 -3.7032e-20)
(0.997048 -0.0155402 -1.92777e-20)
(0.99769 -0.0135427 -1.24887e-19)
(0.998251 -0.0116111 -1.13623e-10)
(0.998734 -0.00973554 1.13171e-10)
(0.999138 -0.0079065 6.84152e-20)
(0.999466 -0.00611405 2.33307e-20)
(0.999717 -0.00434891 -1.01525e-20)
(0.99989 -0.00260253 -7.0184e-21)
(0.999983 -0.000866706 1.43857e-20)
(1.003 -0.226905 -2.28967e-27)
(0.996469 -0.212878 8.90925e-28)
(0.990375 -0.197788 0)
(0.985773 -0.183308 0)
(0.982424 -0.169712 0)
(0.980073 -0.157039 1.27615e-27)
(0.978529 -0.145272 -4.46163e-28)
(0.977634 -0.134372 0)
(0.977258 -0.12429 -1.06113e-27)
(0.977295 -0.114972 -3.55983e-27)
(0.977657 -0.106363 6.46275e-27)
(0.97827 -0.0984094 0)
(0.979076 -0.0910593 -1.07383e-27)
(0.980026 -0.0842631 0)
(0.981079 -0.0779739 4.75529e-27)
(0.982202 -0.0721484 0)
(0.983369 -0.0667459 0)
(0.984557 -0.0617292 0)
(0.985749 -0.0570637 0)
(0.98693 -0.0527177 0)
(0.988089 -0.0486623 0)
(0.989216 -0.0448706 6.20182e-27)
(0.990303 -0.0413182 -6.20197e-27)
(0.991345 -0.0379825 0)
(0.992337 -0.0348427 0)
(0.993276 -0.0318797 -1.03118e-27)
(0.994158 -0.029076 -1.34194e-27)
(0.994982 -0.0264152 0)
(0.995746 -0.0238821 0)
(0.996449 -0.0214629 -6.01077e-27)
(0.99709 -0.0191442 7.33785e-27)
(0.997669 -0.0169135 4.5007e-27)
(0.998184 -0.0147595 0)
(0.998636 -0.0126711 -2.21748e-10)
(0.999025 -0.0106377 2.21756e-10)
(0.999349 -0.00864885 0)
(0.999609 -0.00669517 0)
(0.999805 -0.00476735 -4.68505e-29)
(0.999932 -0.00285628 1.36068e-27)
(0.999992 -0.000953078 8.89896e-28)
(1.02446 -0.203133 2.29325e-27)
(1.01721 -0.193022 -8.92984e-28)
(1.0104 -0.181671 0)
(1.00484 -0.170379 0)
(1.00037 -0.159463 0)
(0.996828 -0.149031 9.2446e-27)
(0.994072 -0.13913 -1.00764e-26)
(0.991981 -0.129777 0)
(0.990449 -0.120972 1.06324e-27)
(0.98938 -0.112704 -9.31262e-27)
(0.988696 -0.104954 6.40421e-27)
(0.988327 -0.0976975 0)
(0.988215 -0.0909094 1.07583e-27)
(0.988311 -0.0845614 0)
(0.988571 -0.0786253 -4.76394e-27)
(0.988961 -0.073073 0)
(0.98945 -0.0678772 0)
(0.990014 -0.0630116 0)
(0.990631 -0.0584511 0)
(0.991284 -0.0541718 0)
(0.991956 -0.0501512 0)
(0.992638 -0.0463681 0)
(0.993317 -0.0428025 0)
(0.993985 -0.0394358 0)
(0.994636 -0.0362505 0)
(0.995263 -0.0332301 1.03277e-27)
(0.995863 -0.0303593 1.34397e-27)
(0.99643 -0.0276235 0)
(0.996962 -0.0250092 0)
(0.997455 -0.0225036 0)
(0.997909 -0.0200946 -1.32874e-27)
(0.998321 -0.0177706 -4.50681e-27)
(0.99869 -0.0155206 0)
(0.999015 -0.0133343 -2.17447e-10)
(0.999295 -0.0112013 2.17447e-10)
(0.999529 -0.00911203 0)
(0.999717 -0.00705692 0)
(0.999859 -0.00502684 -8.54914e-27)
(0.99995 -0.00301262 7.23388e-27)
(0.999994 -0.00100484 -8.90717e-28)
(1.04013 -0.186366 -1.62939e-27)
(1.0328 -0.17824 -2.37842e-27)
(1.02592 -0.169091 2.97159e-27)
(1.02006 -0.159865 0)
(1.01509 -0.150795 0)
(1.0109 -0.14198 2.86895e-27)
(1.0074 -0.133476 -2.10492e-27)
(1.00452 -0.125322 0)
(1.00217 -0.117537 3.75312e-27)
(1.00028 -0.110131 -1.52992e-27)
(0.998791 -0.103104 3.85817e-27)
(0.997635 -0.0964524 0)
(0.996765 -0.0901646 6.1441e-28)
(0.996136 -0.0842278 -1.34045e-27)
(0.995709 -0.0786262 0)
(0.99545 -0.0733431 6.24224e-28)
(0.995329 -0.0683607 0)
(0.995322 -0.0636611 5.40595e-27)
(0.995405 -0.0592261 -5.40595e-27)
(0.995561 -0.0550383 0)
(0.995772 -0.0510803 0)
(0.996026 -0.0473354 5.5154e-27)
(0.996309 -0.0437875 -6.14505e-27)
(0.996613 -0.0404214 6.29359e-28)
(0.996929 -0.0372221 6.76094e-28)
(0.997249 -0.0341758 0)
(0.997567 -0.0312689 1.36143e-27)
(0.997878 -0.0284888 6.7461e-28)
(0.998177 -0.0258232 0)
(0.998461 -0.0232605 -3.98268e-27)
(0.998727 -0.0207897 4.71467e-27)
(0.998972 -0.0184001 0)
(0.999195 -0.0160814 6.25217e-28)
(0.999392 -0.0138238 -2.12612e-10)
(0.999563 -0.0116178 2.12612e-10)
(0.999708 -0.009454 -6.2421e-28)
(0.999824 -0.00732348 0)
(0.999912 -0.00521748 -6.70512e-28)
(0.999969 -0.00312709 -1.3519e-27)
(0.999996 -0.00104306 0)
(1.05207 -0.170715 1.62828e-27)
(1.04495 -0.164074 1.37392e-27)
(1.03824 -0.156564 -1.96709e-27)
(1.03232 -0.148927 0)
(1.02712 -0.141336 0)
(1.02257 -0.133868 -8.93943e-11)
(1.01862 -0.126577 8.93943e-11)
(1.01521 -0.119501 0)
(1.01229 -0.112669 -3.75312e-27)
(1.0098 -0.106097 1.52992e-27)
(1.00769 -0.0997969 -3.85817e-27)
(1.00591 -0.0937737 0)
(1.00443 -0.0880272 -6.1441e-28)
(1.00321 -0.0825536 5.09144e-27)
(1.00221 -0.0773464 -3.75099e-27)
(1.0014 -0.0723969 -6.24224e-28)
(1.00075 -0.0676949 0)
(1.00024 -0.0632291 0)
(0.99985 -0.0589875 0)
(0.99956 -0.0549578 0)
(0.999354 -0.0511273 0)
(0.999217 -0.0474836 -4.57174e-27)
(0.999137 -0.0440142 5.20139e-27)
(0.999103 -0.0407068 -6.29359e-28)
(0.999105 -0.0375494 -6.76094e-28)
(0.999137 -0.0345305 0)
(0.99919 -0.0316387 -1.36143e-27)
(0.999258 -0.0288631 -6.7461e-28)
(0.999337 -0.026193 0)
(0.999422 -0.0236183 4.56604e-27)
(0.999509 -0.0211291 -5.29803e-27)
(0.999594 -0.0187156 0)
(0.999676 -0.0163686 -6.25217e-28)
(0.999752 -0.0140791 -1.0383e-10)
(0.99982 -0.0118381 1.0383e-10)
(0.999879 -0.00963702 6.2421e-28)
(0.999927 -0.00746746 0)
(0.999963 -0.0053211 -6.07723e-28)
(0.999987 -0.00318951 2.63013e-27)
(0.999999 -0.00106386 0)
(1.0612 -0.15569 0)
(1.05433 -0.150245 -3.21031e-11)
(1.04784 -0.144058 -3.40816e-11)
(1.04199 -0.137721 0)
(1.03672 -0.131364 0)
(1.032 -0.125048 -8.23823e-11)
(1.02779 -0.11882 8.23823e-11)
(1.02404 -0.112714 0)
(1.02074 -0.106758 0)
(1.01782 -0.100975 0)
(1.01526 -0.0953798 0)
(1.01303 -0.0899824 0)
(1.01108 -0.0847891 8.43901e-28)
(1.00939 -0.0798023 -6.54943e-29)
(1.00792 -0.0750216 1.18141e-27)
(1.00666 -0.0704444 0)
(1.00557 -0.0660659 0)
(1.00464 -0.0618802 -5.62367e-27)
(1.00385 -0.05788 5.62367e-27)
(1.00317 -0.0540573 0)
(1.0026 -0.0504037 0)
(1.00212 -0.04691 0)
(1.00172 -0.0435672 0)
(1.00138 -0.0403658 0)
(1.00111 -0.0372965 0)
(1.00088 -0.0343499 0)
(1.00069 -0.0315167 0)
(1.00054 -0.0287879 0)
(1.00041 -0.0261543 0)
(1.00031 -0.0236073 0)
(1.00023 -0.0211382 0)
(1.00017 -0.0187385 0)
(1.00012 -0.0163998 0)
(1.00009 -0.014114 -5.77392e-27)
(1.00006 -0.0118731 5.77392e-27)
(1.00004 -0.00966912 0)
(1.00002 -0.00749441 0)
(1.00001 -0.00534125 0)
(1 -0.00320182 0)
(1 -0.0010679 0)
(1.06803 -0.141521 0)
(1.06144 -0.137048 3.21031e-11)
(1.0552 -0.131929 3.40816e-11)
(1.04949 -0.12665 0)
(1.04426 -0.121311 0)
(1.03948 -0.115964 4.60184e-27)
(1.03514 -0.110644 -4.60184e-27)
(1.0312 -0.105384 0)
(1.02765 -0.100211 0)
(1.02445 -0.0951452 0)
(1.02158 -0.0902041 0)
(1.01901 -0.0854003 0)
(1.01671 -0.0807431 -8.43901e-28)
(1.01465 -0.0762386 -1.11592e-27)
(1.01283 -0.0718901 0)
(1.0112 -0.067699 0)
(1.00976 -0.0636643 0)
(1.00849 -0.0597839 0)
(1.00736 -0.0560542 0)
(1.00636 -0.0524705 0)
(1.00548 -0.0490276 0)
(1.00471 -0.0457192 -5.18854e-27)
(1.00403 -0.042539 5.18854e-27)
(1.00343 -0.03948 0)
(1.0029 -0.0365352 0)
(1.00244 -0.0336971 9.78139e-11)
(1.00204 -0.0309585 -9.78139e-11)
(1.00169 -0.0283119 0)
(1.00139 -0.0257498 0)
(1.00112 -0.0232649 0)
(1.0009 -0.0208496 0)
(1.0007 -0.0184966 0)
(1.00053 -0.0161987 0)
(1.00039 -0.0139487 -9.8865e-11)
(1.00028 -0.0117394 9.8865e-11)
(1.00018 -0.00956375 0)
(1.00011 -0.0074147 0)
(1.00005 -0.00528532 -6.60806e-27)
(1.00002 -0.00316848 6.60806e-27)
(1 -0.00105672 0)
(1.07299 -0.128153 9.5474e-28)
(1.0667 -0.124473 -2.93891e-27)
(1.06073 -0.120228 1.85474e-27)
(1.0552 -0.115819 0)
(1.05006 -0.111329 0)
(1.04531 -0.106798 1.34265e-27)
(1.04093 -0.102258 -1.34265e-27)
(1.0369 -0.0977345 1.349e-27)
(1.0332 -0.0932529 -2.02132e-28)
(1.02982 -0.0888325 0)
(1.02674 -0.0844902 0)
(1.02393 -0.0802392 0)
(1.02138 -0.0760901 2.21577e-28)
(1.01906 -0.072051 5.18406e-28)
(1.01696 -0.0681273 0)
(1.01506 -0.0643226 0)
(1.01334 -0.0606388 0)
(1.01178 -0.0570761 -4.23525e-27)
(1.01038 -0.0536336 4.23525e-27)
(1.00912 -0.0503092 2.42017e-28)
(1.00799 -0.0470998 -3.11206e-27)
(1.00696 -0.0440019 4.35917e-27)
(1.00605 -0.0410109 -4.35917e-27)
(1.00523 -0.0381222 0)
(1.00449 -0.0353304 0)
(1.00383 -0.0326301 1.89705e-10)
(1.00324 -0.0300155 -1.89705e-10)
(1.00272 -0.0274807 0)
(1.00226 -0.0250195 0)
(1.00185 -0.0226259 4.4854e-27)
(1.00149 -0.0202937 -4.4854e-27)
(1.00117 -0.0180165 3.25807e-27)
(1.0009 -0.0157882 -2.55815e-28)
(1.00067 -0.0136025 -9.64453e-11)
(1.00047 -0.0114531 9.64453e-11)
(1.00031 -0.0093337 0)
(1.00019 -0.00723819 0)
(1.00009 -0.00516032 -4.16998e-27)
(1.00003 -0.00309374 3.57881e-27)
(1 -0.00103174 -2.27469e-28)
(1.07645 -0.115545 -9.54307e-28)
(1.07046 -0.112516 -2.5681e-27)
(1.06477 -0.108989 3.65227e-27)
(1.05944 -0.105304 0)
(1.05444 -0.101525 0)
(1.04976 -0.0976866 -6.69608e-11)
(1.0454 -0.0938144 6.69608e-11)
(1.04135 -0.089932 -1.349e-27)
(1.03759 -0.08606 2.02132e-28)
(1.0341 -0.0822165 0)
(1.03089 -0.078417 0)
(1.02792 -0.0746746 0)
(1.02519 -0.0709999 -2.21577e-28)
(1.02268 -0.0674017 -5.18406e-28)
(1.02038 -0.0638866 0)
(1.01826 -0.0604595 0)
(1.01633 -0.0571238 0)
(1.01456 -0.0538815 0)
(1.01294 -0.0507333 0)
(1.01147 -0.047679 -2.42017e-28)
(1.01012 -0.0447173 3.11206e-27)
(1.0089 -0.0418462 0)
(1.00779 -0.0390631 0)
(1.00678 -0.0363648 0)
(1.00586 -0.0337477 0)
(1.00504 -0.0312076 9.20462e-11)
(1.00429 -0.0287403 -9.20462e-11)
(1.00362 -0.026341 0)
(1.00302 -0.0240051 0)
(1.00248 -0.0217274 0)
(1.00201 -0.0195029 0)
(1.00159 -0.0173263 -3.25807e-27)
(1.00122 -0.0151924 2.55815e-28)
(1.00091 -0.0130958 0)
(1.00065 -0.011031 0)
(1.00043 -0.0089927 0)
(1.00026 -0.00697543 0)
(1.00013 -0.00497375 5.9117e-28)
(1.00004 -0.00298205 0)
(1.00001 -0.000994439 2.27469e-28)
(1.07872 -0.103659 0)
(1.07304 -0.101163 0)
(1.06762 -0.098232 1.97751e-28)
(1.0625 -0.0951491 0)
(1.05765 -0.0919696 -2.88903e-11)
(1.05309 -0.0887202 -9.34966e-11)
(1.04879 -0.0854229 6.32717e-11)
(1.04476 -0.0820976 1.63423e-27)
(1.04098 -0.0787619 -6.21292e-28)
(1.03746 -0.075432 0)
(1.03416 -0.0721218 -3.57624e-11)
(1.0311 -0.0688435 -3.66599e-11)
(1.02825 -0.0656074 6.89903e-28)
(1.02561 -0.0624221 2.91837e-27)
(1.02316 -0.0592945 3.89868e-11)
(1.02089 -0.0562303 3.9651e-11)
(1.0188 -0.0532337 -7.40878e-28)
(1.01686 -0.0503076 3.33481e-27)
(1.01508 -0.0474539 0)
(1.01343 -0.0446735 0)
(1.01192 -0.0419664 0)
(1.01054 -0.039332 -4.26777e-11)
(1.00926 -0.0367688 -8.60951e-11)
(1.0081 -0.034275 -4.33853e-11)
(1.00704 -0.031848 -4.3693e-11)
(1.00607 -0.0294851 -4.39724e-11)
(1.00519 -0.027183 4.42254e-11)
(1.00439 -0.0249382 8.89068e-11)
(1.00367 -0.022747 8.9316e-11)
(1.00303 -0.0206053 -4.61204e-11)
(1.00246 -0.018509 9.09608e-11)
(1.00195 -0.0164538 -3.68702e-27)
(1.00151 -0.0144353 8.32898e-28)
(1.00112 -0.012449 -2.22652e-27)
(1.0008 -0.0104903 4.54567e-11)
(1.00053 -0.00855456 4.55264e-11)
(1.00032 -0.00663708 4.55797e-11)
(1.00016 -0.00473317 4.56163e-11)
(1.00006 -0.00283797 -2.59636e-27)
(1.00001 -0.000946344 0)
(1.08009 -0.092443 0)
(1.07469 -0.0903869 0)
(1.06953 -0.0879507 -1.97751e-28)
(1.06462 -0.0853734 0)
(1.05995 -0.0827007 2.88903e-11)
(1.05551 -0.0799545 3.02249e-11)
(1.0513 -0.0771529 3.14469e-27)
(1.04732 -0.0743128 -1.63423e-27)
(1.04357 -0.0714493 6.21292e-28)
(1.04003 -0.0685762 0)
(1.03671 -0.065706 3.57624e-11)
(1.03359 -0.0628497 3.66599e-11)
(1.03067 -0.0600166 -6.89903e-28)
(1.02794 -0.0572151 0)
(1.02539 -0.054452 -3.89868e-11)
(1.02301 -0.0517329 -3.9651e-11)
(1.0208 -0.0490625 7.40878e-28)
(1.01874 -0.0464441 -3.33481e-27)
(1.01683 -0.0438803 0)
(1.01505 -0.0413728 0)
(1.01341 -0.0389224 0)
(1.0119 -0.0365294 4.26777e-11)
(1.0105 -0.0341932 8.60951e-11)
(1.00921 -0.0319128 4.33853e-11)
(1.00802 -0.0296868 4.3693e-11)
(1.00694 -0.0275133 4.39724e-11)
(1.00595 -0.0253899 -4.42254e-11)
(1.00505 -0.0233141 -8.89068e-11)
(1.00423 -0.0212829 -8.9316e-11)
(1.0035 -0.0192934 -1.33564e-10)
(1.00284 -0.017342 8.87239e-11)
(1.00226 -0.0154255 3.68702e-27)
(1.00175 -0.01354 -8.32898e-28)
(1.0013 -0.011682 -8.9776e-11)
(1.00093 -0.00984752 4.43194e-11)
(1.00062 -0.00803266 -4.55264e-11)
(1.00037 -0.00623346 -4.55797e-11)
(1.00018 -0.00444592 -4.56163e-11)
(1.00006 -0.00266587 0)
(1.00001 -0.000888919 0)
(1.08077 -0.0818397 -1.04643e-27)
(1.07565 -0.0801475 7.1017e-28)
(1.07073 -0.0781254 4.75564e-28)
(1.06602 -0.0759748 -4.61021e-28)
(1.06151 -0.0737333 1.31871e-27)
(1.05721 -0.0714188 0)
(1.0531 -0.0690466 -1.43989e-27)
(1.0492 -0.0666306 0)
(1.04549 -0.0641835 5.69749e-28)
(1.04197 -0.0617173 -2.4335e-28)
(1.03865 -0.0592428 6.05822e-28)
(1.03551 -0.0567695 0)
(1.03256 -0.0543062 0)
(1.02977 -0.0518602 -1.19889e-27)
(1.02716 -0.049438 5.00835e-27)
(1.0247 -0.0470451 -6.79139e-28)
(1.0224 -0.0446861 6.91172e-28)
(1.02025 -0.0423645 -3.90688e-27)
(1.01825 -0.0400832 3.90688e-27)
(1.01637 -0.0378443 -7.22636e-28)
(1.01463 -0.0356492 3.24779e-27)
(1.01301 -0.0334985 9.66344e-28)
(1.01151 -0.0313926 7.47849e-28)
(1.01012 -0.029331 0)
(1.00884 -0.027313 -3.38053e-27)
(1.00766 -0.0253373 8.4747e-11)
(1.00658 -0.0234025 -8.4747e-11)
(1.0056 -0.0215066 0)
(1.0047 -0.0196474 0)
(1.00389 -0.0178227 -4.336e-27)
(1.00316 -0.0160298 3.54562e-27)
(1.00252 -0.0142658 0)
(1.00195 -0.012528 0)
(1.00146 -0.0108131 -1.75644e-10)
(1.00104 -0.00911804 1.75644e-10)
(1.00069 -0.00743955 0)
(1.00041 -0.0057743 -8.03545e-28)
(1.00021 -0.00411893 -2.48549e-27)
(1.00007 -0.00246991 2.48549e-27)
(1.00001 -0.000823546 7.12049e-28)
(1.08097 -0.0717881 1.04616e-27)
(1.07609 -0.070399 8.29406e-28)
(1.0714 -0.0687258 -2.01514e-27)
(1.06688 -0.0669375 4.61021e-28)
(1.06253 -0.0650653 -1.31871e-27)
(1.05835 -0.0631238 -5.52543e-11)
(1.05436 -0.0611255 5.52543e-11)
(1.05053 -0.0590818 0)