/*--------------------------------*- C++ -*----------------------------------*\
  =========                 |
  \\      /  F ield         | OpenFOAM: The Open Source CFD Toolbox
   \\    /   O peration     | Website:  https://openfoam.org
    \\  /    A nd           | Version:  7
     \\/     M anipulation  |
\*---------------------------------------------------------------------------*/
FoamFile
{
    version     2.0;
    format      ascii;
    class       volVectorField;
    location    "40";
    object      U;
}
// * * * * * * * * * * * * * * * * * * * * * * * * * * * * * * * * * * * * * //

dimensions      [0 1 -1 0 0 0 0];

internalField   nonuniform List<vector> 
1360
(
(1.22153 0.00140143 8.72934e-28)
(1.21831 0.000907939 -8.72934e-28)
(1.21569 0.000560189 0)
(1.2137 0.000323012 0)
(1.21236 0.000163158 9.20066e-28)
(1.21169 4.92359e-05 -9.25892e-28)
(0.955875 0.064929 0)
(1.04866 0.0579362 0)
(1.12174 0.0489056 3.0115e-11)
(1.17459 0.0399826 -3.0115e-11)
(1.20955 0.031924 0)
(1.23039 0.0251009 0)
(1.24104 0.0195594 1.22054e-27)
(1.24487 0.0151617 -1.22054e-27)
(1.24448 0.0117106 -1.02691e-27)
(1.2417 0.0090104 1.02691e-27)
(1.23774 0.00689435 0)
(1.23334 0.00523179 0)
(1.22896 0.00392457 -2.19001e-11)
(1.22487 0.00289958 2.19001e-11)
(1.2212 0.00210104 0)
(1.21807 0.00148415 0)
(1.21551 0.00101062 2.02549e-11)
(1.21356 0.000645898 -2.02549e-11)
(1.21225 0.000357329 0)
(1.2116 0.000114033 0)
(0.952731 0.0652252 0)
(1.04454 0.0585248 0)
(1.11728 0.0498265 0)
(1.17033 0.0411429 0)
(1.2058 0.033224 0)
(1.22726 0.0264575 0)
(1.23851 0.0209134 0)
(1.24287 0.0164749 0)
(1.24291 0.012959 0)
(1.24046 0.0101787 0)
(1.23675 0.00797241 0)
(1.23256 0.00621237 0)
(1.22834 0.00480195 -4.34143e-11)
(1.22437 0.00366901 4.34143e-11)
(1.22082 0.00275852 0)
(1.21776 0.00202636 0)
(1.21526 0.00143491 4.03255e-11)
(1.21337 0.000950287 -4.03255e-11)
(1.21209 0.000540475 -1.262e-27)
(1.21145 0.000175167 1.26999e-27)
(0.949739 0.0654197 0)
(1.04059 0.0589957 0)
(1.11297 0.050616 0)
(1.16617 0.0421681 0)
(1.20211 0.0343931 0)
(1.22415 0.0276912 0)
(1.23598 0.0221541 0)
(1.24084 0.0176846 0)
(1.24129 0.0141136 0)
(1.23917 0.0112627 0)
(1.23573 0.00897543 0)
(1.23173 0.00712683 0)
(1.22767 0.00562184 -2.14973e-11)
(1.22383 0.00438932 2.14973e-11)
(1.22037 0.00337497 -8.56584e-28)
(1.2174 0.0025354 8.56584e-28)
(1.21496 0.00183366 4.01019e-11)
(1.21311 0.00123658 -4.01019e-11)
(1.21186 0.000712829 0)
(1.21123 0.000232715 0)
(0.946891 0.0655199 0)
(1.03679 0.0593578 0)
(1.1088 0.0512833 0)
(1.16211 0.0430671 0)
(1.19846 0.0354388 0)
(1.22106 0.0288085 0)
(1.23344 0.023287 0)
(1.23879 0.0187956 0)
(1.23965 0.0151785 0)
(1.23785 0.0122658 0)
(1.23466 0.00990624 0)
(1.23086 0.00797748 0)
(1.22695 0.00638612 0)
(1.22324 0.00506199 0)
(1.21988 0.00395158 0)
(1.21698 0.00301216 0)
(1.21461 0.00220753 1.99208e-11)
(1.2128 0.00150523 -1.99208e-11)
(1.21158 0.000874646 0)
(1.21097 0.000286761 0)
(0.94418 0.0655329 0)
(1.03315 0.0596191 0)
(1.10475 0.0518371 0)
(1.15814 0.0438479 0)
(1.19488 0.0363684 0)
(1.21799 0.0298157 0)
(1.2309 0.0243175 0)
(1.23673 0.0198125 0)
(1.23798 0.0161577 0)
(1.2365 0.0131915 0)
(1.23355 0.0107677 0)
(1.22995 0.0087667 0)
(1.22619 0.00709673 -2.10329e-11)
(1.2226 0.0056886 2.10329e-11)
(1.21933 0.00448955 0)
(1.21651 0.00345758 0)
(1.2142 0.00255721 8.20815e-28)
(1.21243 0.0017567 -8.20815e-28)
(1.21124 0.0010262 8.98955e-28)
(1.21065 0.000337393 -9.04646e-28)
(0.941598 0.0654654 -2.80868e-27)
(1.02964 0.0597874 0)
(1.10084 0.0522857 -5.9199e-29)
(1.15427 0.0445185 -2.79649e-27)
(1.19135 0.0371892 4.91739e-11)
(1.21495 0.0307191 4.81502e-11)
(1.22837 0.0252511 4.708e-11)
(1.23465 0.02074 4.5994e-11)
(1.23629 0.0170551 0)
(1.23512 0.0140432 0)
(1.23241 0.0115626 0)
(1.229 0.00949685 0)
(1.22539 0.00775562 -2.07808e-11)
(1.22191 0.00627073 6.11394e-11)
(1.21874 0.00499017 2.69625e-19)
(1.216 0.00387265 -3.9137e-11)
(1.21374 0.00288342 -8.14039e-28)
(1.21202 0.0019915 8.14039e-28)
(1.21086 0.00116779 0)
(1.21028 0.000384709 -1.91325e-27)
(0.939139 0.0653236 2.80866e-27)
(1.02628 0.05987 0)
(1.09705 0.0526368 0)
(1.15049 0.0450864 2.85569e-27)
(1.18788 0.0379077 -4.91739e-11)
(1.21194 0.0315245 -4.81502e-11)
(1.22584 0.0260929 -4.708e-11)
(1.23257 0.0215826 -4.5994e-11)
(1.23459 0.0178747 1.92636e-27)
(1.23372 0.0148241 -1.92636e-27)
(1.23125 0.0122939 2.13371e-11)
(1.22802 0.0101703 -2.13371e-11)
(1.22456 0.00836478 -2.05171e-11)
(1.22119 0.00681 -1.98415e-11)
(1.21812 0.00545472 3.65213e-28)
(1.21544 0.00425837 3.9137e-11)
(1.21324 0.00318692 1.67915e-27)
(1.21156 0.00221013 -1.67915e-27)
(1.21043 0.00129971 -1.22124e-27)
(1.20986 0.000428807 3.14222e-27)
(0.936796 0.0651137 0)
(1.02304 0.0598736 0)
(1.09338 0.0528977 0)
(1.1468 0.0455586 0)
(1.18448 0.0385304 -4.07118e-28)
(1.20896 0.0322377 4.07118e-28)
(1.22333 0.0268478 0)
(1.23049 0.0223446 0)
(1.23287 0.0186203 0)
(1.23229 0.0155375 0)
(1.23005 0.0129643 4.19917e-11)
(1.22701 0.0107895 -4.19917e-11)
(1.22369 0.0089262 -4.0486e-11)
(1.22044 0.00730805 4.0486e-11)
(1.21745 0.00588454 -3.37498e-28)
(1.21485 0.00461578 3.37498e-28)
(1.2127 0.00346848 0)
(1.21106 0.00241315 0)
(1.20996 0.00142228 0)
(1.2094 0.000469793 0)
(0.934563 0.0648414 0)
(1.01993 0.0598046 0)
(1.08982 0.0530751 -8.48704e-28)
(1.1432 0.0459419 8.48704e-28)
(1.18113 0.0390636 0)
(1.20602 0.0328642 0)
(1.22083 0.0275209 0)
(1.2284 0.0230303 0)
(1.23114 0.0192956 -5.14453e-28)
(1.23085 0.0161867 5.14453e-28)
(1.22884 0.0135766 2.06482e-11)
(1.22597 0.0113568 -2.06482e-11)
(1.22279 0.00944188 -3.99191e-11)
(1.21965 0.00776653 3.99191e-11)
(1.21675 0.00628095 0)
(1.21422 0.00494593 0)
(1.21213 0.00372888 0)
(1.21053 0.00260109 0)
(1.20944 0.00153582 7.39474e-28)
(1.2089 0.000507772 -7.44156e-28)
(0.932435 0.064512 0)
(1.01693 0.0596691 0)
(1.08637 0.0531756 0)
(1.1397 0.0462425 0)
(1.17785 0.0395131 0)
(1.20311 0.0334093 0)
(1.21834 0.0281167 0)
(1.22632 0.023644 0)
(1.2294 0.0199042 3.60869e-28)
(1.22939 0.016775 -3.60869e-28)
(1.22761 0.0141336 0)
(1.22491 0.0118745 0)
(1.22187 0.00991381 -1.96678e-11)
(1.21884 0.00818709 1.96678e-11)
(1.21602 0.0066453 0)
(1.21355 0.00524988 0)
(1.21152 0.00396894 1.88203e-11)
(1.20995 0.00277452 -1.88203e-11)
(1.2089 0.00164066 0)
(1.20836 0.000542853 0)
(0.930405 0.0641306 -5.42041e-28)
(1.01405 0.0594727 5.42756e-28)
(1.08303 0.0532053 0)
(1.13628 0.0464667 0)
(1.17462 0.0398846 0)
(1.20024 0.0338781 0)
(1.21588 0.0286399 0)
(1.22424 0.0241894 0)
(1.22765 0.0204497 0)
(1.22792 0.0173052 0)
(1.22635 0.0146379 4.78423e-28)
(1.22383 0.012345 -4.78423e-28)
(1.22092 0.0103439 -1.93687e-11)
(1.21799 0.00857137 1.93687e-11)
(1.21526 0.00697892 4.53806e-28)
(1.21286 0.00552869 -4.53806e-28)
(1.21087 0.00418946 1.85939e-11)
(1.20935 0.00293399 -1.85939e-11)
(1.20831 0.00173713 -7.23271e-28)
(1.20779 0.000575146 7.2785e-28)
(0.92847 0.0637022 3.74947e-28)
(1.01127 0.0592208 -3.75443e-28)
(1.0798 0.0531699 0)
(1.13295 0.0466199 0)
(1.17147 0.0401835 0)
(1.19741 0.0342754 0)
(1.21343 0.0290947 0)
(1.22217 0.0246707 0)
(1.22591 0.0209355 -3.46103e-28)
(1.22645 0.0177806 3.46103e-28)
(1.22509 0.0150923 0)
(1.22273 0.0127705 0)
(1.21996 0.0107342 -3.81263e-11)
(1.21713 0.008921 3.81263e-11)
(1.21448 0.00728316 0)
(1.21214 0.00578342 0)
(1.2102 0.00439123 1.83577e-11)
(1.20871 0.00308008 -1.83577e-11)
(1.2077 0.00182558 0)
(1.20719 0.000604762 0)
(0.926625 0.0632311 -8.75627e-28)
(1.0086 0.0589183 8.7679e-28)
(1.07666 0.0530747 0)
(1.1297 0.0467077 0)
(1.16837 0.0404148 0)
(1.19462 0.034606 0)
(1.21101 0.0294854 0)
(1.2201 0.0250915 0)
(1.22416 0.021365 -1.97214e-11)
(1.22496 0.018204 1.97214e-11)
(1.22381 0.0154993 0)
(1.22162 0.0131533 0)
(1.21897 0.0110866 -3.75041e-11)
(1.21624 0.0092376 3.75041e-11)
(1.21367 0.00755934 -7.62832e-28)
(1.2114 0.00601513 7.62832e-28)
(1.2095 0.00457507 3.62258e-11)
(1.20805 0.00321334 -3.62258e-11)
(1.20706 0.00190632 0)
(1.20656 0.000631812 0)
(0.924864 0.0627216 1.7612e-27)
(1.00602 0.0585698 -1.76355e-27)
(1.07363 0.0529247 2.32009e-28)
(1.12653 0.0467352 -2.32009e-28)
(1.16533 0.0405833 0)
(1.19187 0.0348743 0)
(1.20861 0.0298161 0)
(1.21805 0.0254554 0)
(1.22242 0.0217413 -1.92942e-11)
(1.22347 0.0185783 1.92942e-11)
(1.22253 0.0158614 0)
(1.2205 0.0134955 0)
(1.21797 0.0114029 -1.84362e-11)
(1.21534 0.00952273 1.84362e-11)
(1.21285 0.00780876 0)
(1.21063 0.00622487 0)
(1.20878 0.00474177 3.57203e-11)
(1.20736 0.00333435 -3.57203e-11)
(1.20639 0.00197971 1.12771e-27)
(1.2059 0.000656405 -1.13485e-27)
(0.923184 0.0621778 0)
(1.00354 0.0581798 0)
(1.07068 0.0527249 0)
(1.12344 0.046707 0)
(1.16236 0.0406937 8.10705e-28)
(1.18916 0.0350845 -8.10705e-28)
(1.20623 0.0300904 -8.8617e-28)
(1.21601 0.0257659 8.8617e-28)
(1.22067 0.0220677 0)
(1.22198 0.0189063 0)
(1.22124 0.016181 0)
(1.21936 0.0137993 0)
(1.21696 0.0116849 0)
(1.21442 0.00977798 0)
(1.212 0.00803272 7.39509e-28)
(1.20984 0.00641366 -7.39509e-28)
(1.20804 0.00489213 1.76004e-11)
(1.20664 0.00344365 -1.76004e-11)
(1.2057 0.00204606 -8.05632e-28)
(1.20522 0.000678653 8.10733e-28)
(0.92158 0.0616034 0)
(1.00115 0.0577524 0)
(1.06782 0.0524795 0)
(1.12043 0.0466279 0)
(1.15944 0.0407504 -1.64007e-27)
(1.1865 0.0352407 1.64007e-27)
(1.20388 0.0303123 1.87533e-11)
(1.21398 0.0260263 -1.87533e-11)
(1.21894 0.022347 0)
(1.22049 0.0191906 0)
(1.21994 0.0164605 0)
(1.21822 0.0140669 0)
(1.21593 0.0119346 -1.77934e-11)
(1.21349 0.0100048 1.77934e-11)
(1.21114 0.00823249 0)
(1.20904 0.00658254 0)
(1.20727 0.00502692 0)
(1.20591 0.00354179 0)
(1.20499 0.0021057 0)
(1.20452 0.000698664 0)
(0.920049 0.0610018 0)
(0.998843 0.0572914 0)
(1.06505 0.0521928 4.20859e-29)
(1.1175 0.0465019 -4.20859e-29)
(1.15658 0.0407574 0)
(1.18387 0.0353467 0)
(1.20156 0.0304851 1.82763e-11)
(1.21197 0.02624 -1.82763e-11)
(1.21721 0.0225822 0)
(1.219 0.0194339 0)
(1.21864 0.0167023 -7.36575e-28)
(1.21707 0.0143001 7.36575e-28)
(1.2149 0.0121536 -3.49356e-11)
(1.21255 0.0102048 3.49356e-11)
(1.21027 0.00840929 0)
(1.20822 0.0067325 0)
(1.20649 0.00514691 0)
(1.20516 0.00362933 0)
(1.20426 0.00215896 0)
(1.2038 0.000716544 0)
(0.918588 0.0603764 1.22035e-27)
(0.996619 0.0568003 2.59505e-27)
(1.06236 0.0518686 2.04404e-28)
(1.11464 0.0463331 -2.04404e-28)
(1.15379 0.0407187 0)
(1.18129 0.0354063 0)
(1.19927 0.0306124 1.13214e-27)
(1.20998 0.0264099 -1.13214e-27)
(1.21549 0.0227761 0)
(1.21751 0.0196386 0)
(1.21734 0.0169086 0)
(1.21591 0.0145009 0)
(1.21386 0.0123436 -3.42805e-11)
(1.21159 0.0103794 3.42805e-11)
(1.20938 0.00856436 -1.46341e-27)
(1.20738 0.00686451 1.46341e-27)
(1.2057 0.00525286 -1.45051e-27)
(1.2044 0.00370678 1.45051e-27)
(1.20351 0.00220616 3.27137e-11)
(1.20306 0.000732399 3.28837e-11)
(0.917192 0.05973 -4.75207e-28)
(0.994472 0.0562825 -3.3412e-27)
(1.05975 0.0515106 0)
(1.11185 0.0461253 0)
(1.15105 0.040638 0)
(1.17875 0.0354229 0)
(1.197 0.0306972 -7.98982e-28)
(1.208 0.0265389 7.98982e-28)
(1.21378 0.0229314 0)
(1.21602 0.0198072 0)
(1.21604 0.0170814 0)
(1.21475 0.0146714 0)
(1.21281 0.0125063 -1.68114e-11)
(1.21063 0.01053 1.68114e-11)
(1.20848 0.00869886 0)
(1.20654 0.00697954 0)
(1.20489 0.0053455 1.65057e-11)
(1.20362 0.00377468 -1.65057e-11)
(1.20275 0.0022476 -3.27137e-11)
(1.20231 0.000746333 -3.28837e-11)
(0.915858 0.0590657 -6.87843e-28)
(0.9924 0.0557411 6.88777e-28)
(1.05722 0.0511223 -1.67963e-11)
(1.10913 0.045882 1.67963e-11)
(1.14836 0.0405187 0)
(1.17625 0.0353998 0)
(1.19477 0.0307428 7.7807e-28)
(1.20604 0.02663 -7.7807e-28)
(1.21208 0.0230505 -6.97123e-28)
(1.21454 0.019942 6.97123e-28)
(1.21474 0.017223 0)
(1.21359 0.0148132 0)
(1.21176 0.0126433 -1.64816e-11)
(1.20966 0.0106579 1.64816e-11)
(1.20758 0.00881395 0)
(1.20568 0.00707851 0)
(1.20408 0.00542554 3.24433e-11)
(1.20283 0.00383353 -3.24433e-11)
(1.20198 0.00228359 -7.44509e-28)
(1.20155 0.000758446 7.49223e-28)
(0.914584 0.0583859 1.38312e-27)
(0.990399 0.055179 -1.385e-27)
(1.05476 0.0507067 -1.62654e-11)
(1.10647 0.0456065 1.62654e-11)
(1.14573 0.0403641 0)
(1.1738 0.0353401 0)
(1.19256 0.0307519 0)
(1.2041 0.0266857 0)
(1.21039 0.023136 0)
(1.21307 0.0200451 0)
(1.21344 0.0173351 0)
(1.21243 0.0149281 0)
(1.2107 0.0127562 -1.61516e-11)
(1.20869 0.0107645 1.61516e-11)
(1.20667 0.00891074 1.38503e-27)
(1.20482 0.00716233 -1.38503e-27)
(1.20325 0.00549369 3.18691e-11)
(1.20203 0.00388382 -3.18691e-11)
(1.20119 0.00231442 1.0099e-27)
(1.20077 0.000768837 -1.01629e-27)
(0.913367 0.0576931 0)
(0.988467 0.0545988 0)
(1.05237 0.0502669 -3.58583e-29)
(1.10389 0.0453019 3.58583e-29)
(1.14316 0.0401773 0)
(1.17138 0.0352468 0)
(1.19038 0.0307273 0)
(1.20218 0.0267087 0)
(1.20871 0.0231902 6.63915e-28)
(1.2116 0.0201187 -6.63915e-28)
(1.21214 0.0174199 0)
(1.21127 0.015018 0)
(1.20965 0.0128463 0)
(1.20771 0.0108511 0)
(1.20575 0.00899031 -6.52664e-28)
(1.20395 0.00723188 6.52664e-28)
(1.20241 0.00555063 1.56451e-11)
(1.20122 0.00392604 -1.56451e-11)
(1.2004 0.00234039 -7.18738e-28)
(1.19998 0.000777601 7.23288e-28)
(0.912203 0.0569896 0)
(0.986599 0.0540031 0)
(1.05005 0.0498056 0)
(1.10136 0.0449712 0)
(1.14064 0.0399612 0)
(1.16901 0.0351227 0)
(1.18823 0.0306717 0)
(1.20028 0.0267013 0)
(1.20705 0.0232153 -1.56014e-11)
(1.21014 0.0201649 1.56014e-11)
(1.21085 0.0174791 0)
(1.21011 0.0150843 0)
(1.20859 0.0129153 0)
(1.20673 0.0109189 0)
(1.20483 0.00905371 0)
(1.20308 0.007288 0)
(1.20157 0.005597 1.32673e-27)
(1.2004 0.00396066 -1.32673e-27)
(1.1996 0.00236177 0)
(1.19919 0.000784833 0)
(0.91109 0.0562774 0)
(0.984794 0.0533941 0)
(1.04779 0.0493254 1.47635e-11)
(1.0989 0.0446169 -1.47635e-11)
(1.13817 0.0397185 0)
(1.16667 0.0349704 0)
(1.18611 0.0305876 0)
(1.1984 0.0266659 0)
(1.2054 0.0232134 -1.52144e-11)
(1.2087 0.0201856 1.52144e-11)
(1.20957 0.0175144 0)
(1.20896 0.0151287 0)
(1.20754 0.0129644 0)
(1.20576 0.0109691 0)
(1.20391 0.00910194 0)
(1.2022 0.00733152 0)
(1.20073 0.00563346 -6.25201e-28)
(1.19958 0.00398813 6.25201e-28)
(1.19879 0.00237884 6.92532e-28)
(1.19839 0.000790623 -6.96916e-28)
(0.910025 0.0555584 0)
(0.983048 0.052774 0)
(1.0456 0.0488288 1.42921e-11)
(1.09649 0.0442418 -1.42921e-11)
(1.13575 0.0394518 0)
(1.16438 0.0347925 0)
(1.18402 0.0304773 0)
(1.19654 0.0266047 0)
(1.20376 0.0231867 0)
(1.20726 0.0201826 0)
(1.20829 0.0175276 0)
(1.20781 0.0151526 0)
(1.20648 0.0129949 0)
(1.20478 0.0110029 0)
(1.20299 0.00913599 0)
(1.20132 0.00736324 0)
(1.19988 0.00566061 1.47675e-11)
(1.19875 0.00400889 -1.47675e-11)
(1.19798 0.00239186 0)
(1.19758 0.000795057 0)
(0.909007 0.0548344 0)
(0.981359 0.0521448 0)
(1.04347 0.0483178 1.57929e-28)
(1.09414 0.043848 -1.57929e-28)
(1.13338 0.0391634 0)
(1.16213 0.0345911 0)
(1.18196 0.0303431 0)
(1.19471 0.0265197 0)
(1.20214 0.0231369 -1.24925e-27)
(1.20583 0.0201577 1.24925e-27)
(1.20702 0.0175203 0)
(1.20666 0.0151576 0)
(1.20543 0.0130082 0)
(1.2038 0.0110213 0)
(1.20207 0.00915677 1.25252e-27)
(1.20044 0.00738391 -1.25252e-27)
(1.19903 0.00567905 2.89468e-11)
(1.19792 0.00402337 -2.89468e-11)
(1.19716 0.00240107 -9.19332e-28)
(1.19677 0.000798222 9.25153e-28)
(0.908033 0.054107 0)
(0.979725 0.0515082 0)
(1.0414 0.0477945 0)
(1.09185 0.0434379 0)
(1.13106 0.0388557 0)
(1.15991 0.0343687 0)
(1.17993 0.030187 0)
(1.19289 0.026413 0)
(1.20054 0.023066 0)
(1.20441 0.0201126 0)
(1.20575 0.0174939 0)
(1.20552 0.0151449 0)
(1.20439 0.0130055 -1.4189e-11)
(1.20282 0.0110255 1.4189e-11)
(1.20115 0.0091652 -5.88997e-28)
(1.19955 0.00739427 5.88997e-28)
(1.19818 0.00568935 1.41792e-11)
(1.19709 0.00403196 -1.41792e-11)
(1.19634 0.00240674 0)
(1.19596 0.000800197 0)
(0.9071 0.0533778 -1.0848e-27)
(0.978143 0.050866 1.0863e-27)
(1.03938 0.047261 -1.47944e-28)
(1.08962 0.0430135 1.47944e-28)
(1.12878 0.0385307 0)
(1.15773 0.0341271 0)
(1.17793 0.030011 0)
(1.1911 0.0262863 0)
(1.19895 0.0229756 0)
(1.203 0.0200488 0)
(1.2045 0.01745 0)
(1.20438 0.015116 0)
(1.20334 0.012988 -2.77363e-11)
(1.20185 0.0110164 2.77363e-11)
(1.20023 0.00916212 0)
(1.19867 0.00739503 0)
(1.19732 0.00569206 0)
(1.19626 0.00403507 0)
(1.19552 0.00240908 0)
(1.19515 0.000801061 0)
(0.906208 0.0526479 5.03307e-28)
(0.976611 0.0502197 -5.04002e-28)
(1.03742 0.0467188 0)
(1.08743 0.0425766 0)
(1.12655 0.0381904 0)
(1.15559 0.0338684 0)
(1.17596 0.029817 0)
(1.18932 0.0261416 0)
(1.19738 0.0228674 -1.33651e-11)
(1.20161 0.019968 1.33651e-11)
(1.20325 0.0173899 0)
(1.20326 0.015072 0)
(1.20231 0.0129567 -2.70997e-11)
(1.20088 0.010995 2.70997e-11)
(1.19931 0.00914838 0)
(1.1978 0.00738687 0)
(1.19647 0.00568771 5.64217e-28)
(1.19542 0.00403306 -5.64217e-28)
(1.1947 0.00240834 0)
(1.19433 0.000800891 0)
(0.905353 0.0519188 0)
(0.975126 0.0495706 0)
(1.03551 0.0461698 -2.76319e-29)
(1.08529 0.0421291 2.76319e-29)
(1.12437 0.0378366 0)
(1.15349 0.0335944 0)
(1.17401 0.0296068 -5.8968e-28)
(1.18757 0.0259803 5.8968e-28)
(1.19582 0.022743 -1.30131e-11)
(1.20023 0.0198715 1.30131e-11)
(1.20202 0.017315 5.45941e-28)
(1.20214 0.0150142 -5.45941e-28)
(1.20128 0.0129127 -1.32343e-11)
(1.19992 0.0109623 1.32343e-11)
(1.1984 0.00912475 1.32787e-11)
(1.19692 0.00737043 -1.32787e-11)
(1.19562 0.0056768 0)
(1.19459 0.00402631 0)
(1.19388 0.00240472 0)
(1.19352 0.000799758 0)
(0.904535 0.0511915 0)
(0.973688 0.0489202 0)
(1.03364 0.0456152 0)
(1.08321 0.0416725 0)
(1.12223 0.037471 0)
(1.15142 0.0333067 0)
(1.1721 0.0293819 1.24372e-11)
(1.18585 0.0258041 -1.24372e-11)
(1.19428 0.0226039 0)
(1.19886 0.0197607 0)
(1.20079 0.0172265 0)
(1.20102 0.0149437 0)
(1.20025 0.012857 0)
(1.19896 0.0109191 0)
(1.19749 0.009092 1.29788e-11)
(1.19605 0.00734634 -1.29788e-11)
(1.19478 0.00565982 0)
(1.19377 0.00401516 0)
(1.19307 0.00239843 0)
(1.19271 0.000797731 0)
(0.903751 0.050467 0)
(0.972293 0.0482695 0)
(1.03183 0.0450566 2.58673e-29)
(1.08117 0.0412085 -2.58673e-29)
(1.12013 0.0370952 0)
(1.14939 0.033007 0)
(1.17021 0.029144 1.20812e-11)
(1.18414 0.0256144 -1.20812e-11)
(1.19276 0.0224513 -5.11723e-28)
(1.1975 0.0196369 5.11723e-28)
(1.19958 0.0171255 0)
(1.19992 0.0148615 0)
(1.19924 0.0127906 0)
(1.19801 0.0108663 0)
(1.19659 0.00905083 -5.26403e-28)
(1.19518 0.00731518 5.26403e-28)
(1.19393 0.00563723 1.27189e-11)
(1.19294 0.00399994 -1.27189e-11)
(1.19225 0.00238967 0)
(1.1919 0.000794878 0)
(0.903001 0.0497462 0)
(0.97094 0.0476197 0)
(1.03006 0.0444952 0)
(1.07917 0.0407384 0)
(1.11807 0.0367106 0)
(1.14739 0.0326968 0)
(1.16835 0.0288945 0)
(1.18245 0.0254127 0)
(1.19125 0.0222867 1.03639e-27)
(1.19616 0.0195014 -1.03639e-27)
(1.19837 0.0170133 0)
(1.19883 0.0147687 0)
(1.19823 0.0127145 0)
(1.19707 0.0108047 0)
(1.19569 0.00900195 0)
(1.19432 0.00727753 0)
(1.1931 0.00560948 1.24311e-11)
(1.19212 0.00398097 -1.24311e-11)
(1.19144 0.00237864 7.91658e-28)
(1.1911 0.000791263 -7.9667e-28)
(0.902281 0.0490301 0)
(0.969628 0.0469717 0)
(1.02834 0.0439321 1.06319e-11)
(1.07722 0.0402634 -1.06319e-11)
(1.11605 0.0363187 0)
(1.14543 0.0323773 0)
(1.16652 0.0286348 0)
(1.18079 0.0252003 0)
(1.18976 0.0221113 -4.84276e-28)
(1.19483 0.0193552 4.84276e-28)
(1.19718 0.0168909 -4.9258e-28)
(1.19774 0.0146662 4.9258e-28)
(1.19723 0.0126294 -1.2004e-11)
(1.19613 0.010735 1.2004e-11)
(1.1948 0.00894599 0)
(1.19346 0.00723391 0)
(1.19226 0.00557697 -5.04159e-28)
(1.1913 0.00395855 5.04159e-28)
(1.19064 0.00236552 0)
(1.19029 0.000786944 0)
(0.901592 0.0483194 -8.49517e-28)
(0.968354 0.0463264 8.50696e-28)
(1.02666 0.0433685 1.02832e-11)
(1.07531 0.0397849 -1.02832e-11)
(1.11407 0.0359207 0)
(1.1435 0.0320501 0)
(1.16471 0.028366 0)
(1.17915 0.0249783 0)
(1.18829 0.0219262 0)
(1.19351 0.0191994 0)
(1.19599 0.0167592 0)
(1.19667 0.0145551 0)
(1.19624 0.0125362 -2.34104e-11)
(1.1952 0.0106579 2.34104e-11)
(1.19392 0.00888359 0)
(1.19261 0.00718485 0)
(1.19144 0.00554012 1.18615e-11)
(1.19049 0.00393296 -1.18615e-11)
(1.18983 0.00235047 0)
(1.1895 0.000781982 0)
(0.900932 0.0476147 3.94003e-28)
(0.967118 0.0456847 -3.9455e-28)
(1.02502 0.0428053 2.26418e-29)
(1.07345 0.0393038 -2.26418e-29)
(1.11213 0.0355178 0)
(1.1416 0.0317161 0)
(1.16293 0.0280895 -4.94473e-28)
(1.17753 0.024748 4.94473e-28)
(1.18683 0.0217325 4.57843e-28)
(1.19221 0.0190352 -4.57843e-28)
(1.19482 0.0166193 0)
(1.1956 0.014436 0)
(1.19525 0.0124357 -1.14101e-11)
(1.19428 0.0105742 1.14101e-11)
(1.19304 0.00881532 4.78042e-28)
(1.19177 0.00713083 -4.78042e-28)
(1.19061 0.00549931 2.31605e-11)
(1.18969 0.00390448 -2.31605e-11)
(1.18904 0.00233367 -5.34824e-28)
(1.18871 0.00077643 5.3821e-28)
(0.900298 0.0469167 -3.80361e-28)
(0.965917 0.0450473 3.80888e-28)
(1.02342 0.0422434 0)
(1.07162 0.0388212 0)
(1.11023 0.0351111 0)
(1.13973 0.0313766 0)
(1.16118 0.0278063 4.79826e-28)
(1.17593 0.0245103 -4.79826e-28)
(1.18539 0.0215312 -4.45005e-28)
(1.19092 0.0188634 4.45005e-28)
(1.19366 0.016472 0)
(1.19455 0.01431 0)
(1.19428 0.0123286 0)
(1.19337 0.0104845 0)
(1.19217 0.00874176 -4.66255e-28)
(1.19093 0.00707231 4.66255e-28)
(1.1898 0.0054549 2.2603e-11)
(1.18889 0.00387338 -2.2603e-11)
(1.18825 0.00231527 0)
(1.18792 0.000770341 0)
(0.899691 0.0462259 7.64285e-28)
(0.964751 0.0444148 -7.65345e-28)
(1.02186 0.0416835 0)
(1.06983 0.0383381 0)
(1.10836 0.0347015 0)
(1.1379 0.0310325 0)
(1.15945 0.0275175 0)
(1.17435 0.0242663 0)
(1.18397 0.0213234 9.00129e-28)
(1.18964 0.0186849 -9.00129e-28)
(1.19251 0.0163182 0)
(1.1935 0.0141776 0)
(1.19331 0.0122157 -1.08315e-11)
(1.19246 0.0103894 1.08315e-11)
(1.19131 0.00866342 0)
(1.1901 0.00700974 0)
(1.18899 0.00540723 1.10255e-11)
(1.18809 0.0038399 -1.10255e-11)
(1.18746 0.00229542 0)
(1.18714 0.000763765 0)
(0.89911 0.0455427 0)
(0.963618 0.0437879 0)
(1.02034 0.0411265 -2.04635e-29)
(1.06808 0.0378552 2.04635e-29)
(1.10652 0.03429 0)
(1.13609 0.0306849 0)
(1.15775 0.0272239 0)
(1.17279 0.024017 0)
(1.18256 0.0211098 -4.20072e-28)
(1.18838 0.0185006 4.20072e-28)
(1.19138 0.0161586 0)
(1.19247 0.0140397 0)
(1.19236 0.0120975 -2.10965e-11)
(1.19157 0.0102896 2.10965e-11)
(1.19046 0.00858081 0)
(1.18928 0.00694352 0)
(1.18819 0.00535664 0)
(1.18731 0.00380428 0)
(1.18669 0.00227426 4.97021e-28)
(1.18637 0.00075675 -5.00168e-28)
(0.898552 0.0448677 0)
(0.962516 0.043167 0)
(1.01885 0.0405731 0)
(1.06637 0.0373734 0)
(1.10472 0.0338775 0)
(1.13431 0.0303346 0)
(1.15607 0.0269266 0)
(1.17125 0.0237632 0)
(1.18117 0.0208913 0)
(1.18713 0.0183113 0)
(1.19025 0.015994 8.71116e-28)
(1.19144 0.013897 -8.71116e-28)
(1.19141 0.0119747 -2.0538e-11)
(1.19068 0.0101854 2.0538e-11)
(1.18961 0.0084944 0)
(1.18846 0.00687405 0)
(1.1874 0.00530342 -9.05755e-28)
(1.18653 0.00376673 9.05755e-28)
(1.18592 0.00225193 -6.68947e-28)
(1.18561 0.00074934 6.73182e-28)
(0.898017 0.0442011 0)
(0.961445 0.0425527 0)
(1.0174 0.0400237 0)
(1.06469 0.0368934 0)
(1.10296 0.0334647 0)
(1.13257 0.0299825 0)
(1.15442 0.0266263 0)
(1.16973 0.0235057 0)
(1.1798 0.0206688 0)
(1.1859 0.0181177 0)
(1.18914 0.0158252 -4.06837e-28)
(1.19043 0.01375 4.06837e-28)
(1.19048 0.0118479 -1.99877e-11)
(1.1898 0.0100776 1.99877e-11)
(1.18878 0.00840464 4.20479e-28)
(1.18766 0.0068017 -4.20479e-28)
(1.18662 0.00524788 1.02148e-11)
(1.18576 0.00372747 -1.02148e-11)
(1.18516 0.00222855 4.72438e-28)
(1.18485 0.000741577 -4.75429e-28)
(0.897504 0.0435433 -3.18394e-28)
(0.960403 0.0419453 3.18835e-28)
(1.01598 0.039479 1.84698e-29)
(1.06304 0.0364157 -1.84698e-29)
(1.10122 0.0330524 0)
(1.13085 0.0296293 0)
(1.15279 0.0263237 0)
(1.16823 0.0232452 0)
(1.17844 0.0204429 0)
(1.18468 0.0179205 0)
(1.18804 0.0156526 0)
(1.18943 0.0135995 0)
(1.18955 0.0117176 -1.94458e-11)
(1.18893 0.00996646 1.94458e-11)
(1.18795 0.00831195 -4.09397e-28)
(1.18686 0.00672683 4.09397e-28)
(1.18584 0.00519029 1.99016e-11)
(1.185 0.00368671 -1.99016e-11)
(1.18441 0.00220424 9.09926e-28)
(1.1841 0.000733503 9.80417e-28)
(0.897013 0.0428946 6.39355e-28)
(0.95939 0.0413453 -6.40237e-28)
(1.01459 0.0389394 8.94641e-29)
(1.06143 0.0359411 -8.94641e-29)
(1.09952 0.0326411 0)
(1.12916 0.0292756 0)
(1.15119 0.0260198 0)
(1.16675 0.0229826 0)
(1.1771 0.0202144 -8.98839e-12)
(1.18347 0.0177205 8.98839e-12)
(1.18695 0.0154771 0)
(1.18844 0.0134458 0)
(1.18864 0.0115843 -9.45607e-12)
(1.18808 0.00985256 9.45607e-12)
(1.18714 0.00821673 0)
(1.18608 0.00664976 0)
(1.18508 0.00513091 1.93801e-11)
(1.18425 0.00364462 -1.93801e-11)
(1.18366 0.00217913 -9.09926e-28)
(1.18336 0.000725156 -9.80417e-28)
(0.896542 0.0422552 0)
(0.958404 0.0407529 0)
(1.01324 0.0384054 0)
(1.05985 0.03547 0)
(1.09784 0.0322316 0)
(1.12749 0.0289223 0)
(1.1496 0.0257149 0)
(1.16528 0.0227184 0)
(1.17577 0.0199838 -8.71978e-12)
(1.18228 0.0175181 8.71978e-12)
(1.18587 0.0152991 0)
(1.18745 0.0132897 0)
(1.18773 0.0114486 0)
(1.18723 0.00973631 0)
(1.18633 0.00811936 0)
(1.1853 0.0065708 0)
(1.18432 0.00506998 9.43263e-12)
(1.1835 0.00360138 -9.43263e-12)
(1.18293 0.00215331 -4.36597e-28)
(1.18263 0.00071657 4.39361e-28)
(0.896091 0.0416254 0)
(0.957445 0.0401685 0)
(1.01191 0.0378773 0)
(1.0583 0.0350029 0)
(1.0962 0.0318243 0)
(1.12585 0.0285697 0)
(1.14804 0.0254099 0)
(1.16384 0.0224532 0)
(1.17446 0.0197518 0)
(1.1811 0.0173139 0)
(1.18481 0.0151191 0)
(1.18648 0.0131316 0)
(1.18683 0.0113108 0)
(1.18639 0.0096181 0)
(1.18553 0.00802018 7.84903e-28)
(1.18453 0.00649026 -7.84903e-28)
(1.18357 0.00500775 7.93124e-28)
(1.18277 0.00355717 -7.93124e-28)
(1.1822 0.00212688 5.86516e-28)
(1.18191 0.000707781 -5.90229e-28)
(0.895658 0.0410052 6.6345e-12)
(0.956511 0.0395922 -6.64361e-12)
(1.01062 0.0373556 1.60674e-29)
(1.05678 0.0345402 -1.60674e-29)
(1.09458 0.0314198 0)
(1.12424 0.0282186 0)
(1.1465 0.0251052 0)
(1.16242 0.0221877 0)
(1.17317 0.0195189 0)
(1.17993 0.0171086 0)
(1.18375 0.0149377 0)
(1.18552 0.0129719 0)
(1.18595 0.0111715 0)
(1.18556 0.00949833 0)
(1.18474 0.00791952 0)
(1.18377 0.0064084 0)
(1.18283 0.00494442 -3.70607e-28)
(1.18204 0.00351214 3.70607e-28)
(1.18148 0.00209995 -4.13436e-28)
(1.18119 0.000698819 4.16053e-28)
(0.895244 0.0403949 6.39486e-12)
(0.955602 0.0390244 -6.40363e-12)
(1.00935 0.0368405 7.77583e-29)
(1.0553 0.0340824 -7.77583e-29)
(1.09299 0.0310185 0)
(1.12265 0.0278693 0)
(1.14498 0.0248013 0)
(1.16101 0.0219223 0)
(1.17189 0.0192856 6.8667e-28)
(1.17878 0.0169025 -6.8667e-28)
(1.18271 0.0147554 7.10281e-28)
(1.18458 0.0128111 -7.10281e-28)
(1.18507 0.0110309 0)
(1.18474 0.00937735 0)
(1.18397 0.0078177 -7.41638e-28)
(1.18302 0.00632549 7.41638e-28)
(1.1821 0.00488021 8.68077e-12)
(1.18133 0.00346643 -8.68077e-12)
(1.18077 0.0020726 0)
(1.18049 0.000689716 0)
(0.894846 0.0397944 0)
(0.954716 0.0384651 0)
(1.00811 0.0363322 6.57293e-12)
(1.05383 0.0336298 -6.57293e-12)
(1.09143 0.0306208 0)
(1.12109 0.0275223 0)
(1.14349 0.0244988 0)
(1.15962 0.0216574 0)
(1.17063 0.0190524 0)
(1.17763 0.0166961 0)
(1.18168 0.0145725 0)
(1.18364 0.0126496 0)
(1.18421 0.0108896 0)
(1.18393 0.00925548 0)
(1.1832 0.00771501 0)
(1.18228 0.00624176 0)
(1.18138 0.0048153 8.43709e-12)
(1.18062 0.0034202 -8.43709e-12)
(1.18007 0.00204492 3.90885e-28)
(1.17979 0.000680499 -3.93359e-28)
(0.857257 0.0716674 -1.48791e-19)
(0.855394 0.071667 1.18843e-19)
(0.853648 0.0715792 1.09662e-20)
(0.852014 0.0714104 -2.36834e-19)
(0.850485 0.0711668 3.32028e-19)
(0.849056 0.0708543 3.37677e-19)
(0.847722 0.0704787 -9.50725e-20)
(0.846477 0.0700454 -4.14713e-19)
(0.845318 0.0695596 5.35683e-19)
(0.844239 0.0690262 -2.6706e-19)
(0.843236 0.06845 -3.3148e-20)
(0.842306 0.0678353 8.29853e-20)
(0.841444 0.0671863 -2.26088e-19)
(0.840646 0.0665068 -1.14303e-19)
(0.839909 0.0658006 2.46728e-19)
(0.839231 0.0650709 -5.11929e-21)
(0.838606 0.0643211 -5.3425e-20)
(0.838034 0.063554 9.14426e-20)
(0.83751 0.0627723 -9.41259e-20)
(0.837032 0.0619787 2.52299e-20)
(0.836597 0.0611754 1.26111e-19)
(0.836204 0.0603647 -3.75051e-20)
(0.835849 0.0595484 -1.12608e-19)
(0.835531 0.0587285 1.0637e-19)
(0.835247 0.0579066 -4.55378e-20)
(0.834996 0.0570843 5.10988e-20)
(0.834776 0.0562629 -3.10185e-20)
(0.834585 0.0554437 -1.01812e-19)
(0.83442 0.0546278 1.31898e-19)
(0.834282 0.0538164 -2.49724e-21)
(0.834168 0.0530104 -8.3384e-20)
(0.834077 0.0522105 6.27457e-20)
(0.834008 0.0514176 4.96052e-21)
(0.833959 0.0506324 -1.09618e-20)
(0.833929 0.0498554 -3.63993e-20)
(0.833918 0.0490871 4.20917e-20)
(0.833923 0.0483281 -1.7783e-21)
(0.833945 0.0475788 1.26019e-20)
(0.833983 0.0468394 -1.28519e-20)
(0.834035 0.0461104 -1.35781e-20)
(0.834101 0.0453919 -1.66004e-20)
(0.83418 0.0446843 2.14948e-20)
(0.834271 0.0439875 2.81049e-21)
(0.834373 0.0433019 -3.07466e-20)
(0.834487 0.0426274 9.55956e-21)
(0.834612 0.0419642 -2.89858e-20)
(0.834746 0.0413124 -4.76114e-21)
(0.83489 0.0406719 2.37969e-20)
(0.743022 0.0724917 4.28413e-19)
(0.743055 0.0723437 5.98254e-20)
(0.743146 0.0721191 -6.57506e-19)
(0.743293 0.0718237 6.07937e-19)
(0.743494 0.0714633 -3.96016e-20)
(0.743745 0.0710432 6.99781e-20)
(0.744044 0.0705686 -4.98258e-19)
(0.744388 0.0700445 2.65182e-19)
(0.744775 0.0694755 -1.76374e-19)
(0.745203 0.0688661 -1.68226e-19)
(0.745667 0.0682205 1.51257e-19)
(0.746167 0.0675427 1.62818e-19)
(0.7467 0.0668363 -1.06455e-19)
(0.747264 0.0661049 2.10063e-19)
(0.747856 0.0653517 -2.24547e-19)
(0.748475 0.0645797 3.32794e-20)
(0.749118 0.0637917 8.93843e-20)
(0.749784 0.0629905 -1.1218e-19)
(0.75047 0.0621783 1.58319e-19)
(0.751175 0.0613575 -3.87661e-20)
(0.751898 0.0605302 -5.44194e-21)
(0.752636 0.0596981 -2.27796e-20)
(0.753389 0.0588632 -5.48565e-20)
(0.754154 0.0580269 2.36477e-20)
(0.754931 0.0571908 2.87527e-20)
(0.755718 0.0563561 5.79196e-20)
(0.756515 0.0555242 6.10009e-21)
(0.757319 0.0546961 -1.21082e-19)
(0.75813 0.0538728 1.25218e-19)
(0.758947 0.0530553 -9.99904e-20)
(0.759769 0.0522442 -3.28578e-20)
(0.760595 0.0514404 2.4217e-20)
(0.761425 0.0506446 -8.80412e-21)
(0.762258 0.0498572 5.27448e-20)
(0.763092 0.0490787 -5.78462e-20)
(0.763928 0.0483098 2.55764e-21)
(0.764765 0.0475506 7.49585e-23)
(0.765602 0.0468016 8.47723e-20)
(0.766438 0.046063 -6.11241e-20)
(0.767275 0.0453351 1.17356e-20)
(0.76811 0.0446181 1.67467e-20)
(0.768943 0.0439121 9.27697e-21)
(0.769775 0.0432173 -6.08657e-20)
(0.770605 0.0425338 8.04131e-20)
(0.771432 0.0418616 -4.80846e-20)
(0.772256 0.0412007 -2.83419e-20)
(0.773078 0.0405513 2.63988e-21)
(0.773897 0.0399133 5.90761e-20)
(0.774712 0.0392866 -1.29162e-20)
(0.619028 0.0699548 -1.03315e-20)
(0.621128 0.0697898 6.90254e-20)