/*--------------------------------*- C++ -*----------------------------------*\
  =========                 |
  \\      /  F ield         | OpenFOAM: The Open Source CFD Toolbox
   \\    /   O peration     | Website:  https://openfoam.org
    \\  /    A nd           | Version:  7
     \\/     M anipulation  |
\*---------------------------------------------------------------------------*/
FoamFile
{
    version     2.0;
    format      ascii;
    class       volScalarField;
    location    "40";
    object      p;
}
// * * * * * * * * * * * * * * * * * * * * * * * * * * * * * * * * * * * * * //

dimensions      [0 2 -2 0 0 0 0];

internalField   nonuniform List<scalar> 
13250
(
-0.21387
-0.214961
-0.215738
-0.216309
-0.216791
-0.217207
-0.217574
-0.217907
-0.218215
-0.218507
-0.218789
-0.219068
-0.21935
-0.219645
-0.220012
-0.214153
-0.215225
-0.215987
-0.216545
-0.217013
-0.217416
-0.217769
-0.218087
-0.218381
-0.218657
-0.218922
-0.219184
-0.219448
-0.219724
-0.220086
-0.21471
-0.215745
-0.216478
-0.217011
-0.217453
-0.217829
-0.218153
-0.218442
-0.218704
-0.218946
-0.219176
-0.219402
-0.219629
-0.219865
-0.220217
-0.21553
-0.216512
-0.217203
-0.217697
-0.218099
-0.218433
-0.218714
-0.218956
-0.219168
-0.219357
-0.219531
-0.2197
-0.219867
-0.220038
-0.220371
-0.216596
-0.217512
-0.218148
-0.218591
-0.21894
-0.219216
-0.219435
-0.219612
-0.219754
-0.219868
-0.219961
-0.220046
-0.220126
-0.220199
-0.220498
-0.21789
-0.218731
-0.219301
-0.21968
-0.219959
-0.220161
-0.220301
-0.220392
-0.220442
-0.220454
-0.220437
-0.220406
-0.220364
-0.220299
-0.220525
-0.219397
-0.220155
-0.220649
-0.220951
-0.221145
-0.221255
-0.221295
-0.221278
-0.221211
-0.221094
-0.220932
-0.220744
-0.220541
-0.220279
-0.220297
-0.221107
-0.221776
-0.222183
-0.222394
-0.222487
-0.222485
-0.222405
-0.222259
-0.22205
-0.221775
-0.221432
-0.221042
-0.220622
-0.220087
-0.219559
-0.223017
-0.223591
-0.2239
-0.224004
-0.223977
-0.223845
-0.223625
-0.223328
-0.222955
-0.222496
-0.221943
-0.221308
-0.220597
-0.219702
-0.219122
-0.225135
-0.225605
-0.225804
-0.225783
-0.225616
-0.225332
-0.224951
-0.224484
-0.223929
-0.223267
-0.222478
-0.221559
-0.220485
-0.219083
-0.218122
-0.227478
-0.227835
-0.227905
-0.227738
-0.227408
-0.226948
-0.226385
-0.225731
-0.224979
-0.224104
-0.223065
-0.221838
-0.220365
-0.218343
-0.216595
-0.230078
-0.230305
-0.230224
-0.229886
-0.229364
-0.228702
-0.227932
-0.227071
-0.226112
-0.225018
-0.22373
-0.222193
-0.220315
-0.217622
-0.214679
-0.232979
-0.233054
-0.232795
-0.232251
-0.231503
-0.230607
-0.229601
-0.228509
-0.227325
-0.226007
-0.224475
-0.222638
-0.22036
-0.216956
-0.21246
-0.23624
-0.236134
-0.23566
-0.234873
-0.23386
-0.232688
-0.231411
-0.230058
-0.228628
-0.227076
-0.22531
-0.223206
-0.220533
-0.216249
-0.210187
-0.23994
-0.239611
-0.23888
-0.237805
-0.236481
-0.23499
-0.233401
-0.231752
-0.23005
-0.228264
-0.22631
-0.224083
-0.221298
-0.216578
-0.211488
-0.244174
-0.24357
-0.24253
-0.241118
-0.239434
-0.23758
-0.235638
-0.233658
-0.23166
-0.229627
-0.227518
-0.225305
-0.222942
-0.220171
-0.226209
-0.249052
-0.248109
-0.246702
-0.244899
-0.242808
-0.240549
-0.238216
-0.235872
-0.233543
-0.231224
-0.228899
-0.22659
-0.224403
-0.222493
-0.226076
-0.254697
-0.253334
-0.251495
-0.249249
-0.246707
-0.244006
-0.241253
-0.238513
-0.235814
-0.233151
-0.230512
-0.227925
-0.225474
-0.223578
-0.223776
-0.261229
-0.259356
-0.257016
-0.254278
-0.251245
-0.248071
-0.244867
-0.241695
-0.238567
-0.235464
-0.232352
-0.229235
-0.226112
-0.223427
-0.22101
-0.268763
-0.266279
-0.263368
-0.260091
-0.256533
-0.252854
-0.249162
-0.245498
-0.241846
-0.238152
-0.234349
-0.230403
-0.226257
-0.222263
-0.217635
-0.277391
-0.274192
-0.270645
-0.266788
-0.26267
-0.258448
-0.25421
-0.249957
-0.24563
-0.241135
-0.236376
-0.231302
-0.225864
-0.220317
-0.213984
-0.287171
-0.28316
-0.278919
-0.274445
-0.269732
-0.264912
-0.260031
-0.255038
-0.249822
-0.24426
-0.23826
-0.231797
-0.22488
-0.217743
-0.209934
-0.29812
-0.29321
-0.288227
-0.283106
-0.277752
-0.272246
-0.266575
-0.260623
-0.254243
-0.247317
-0.239802
-0.231748
-0.223256
-0.214587
-0.205499
-0.310193
-0.304318
-0.298561
-0.292761
-0.286696
-0.28037
-0.273694
-0.266501
-0.258639
-0.250049
-0.240788
-0.231017
-0.220931
-0.210832
-0.200567
-0.323272
-0.316391
-0.309842
-0.303325
-0.296443
-0.289101
-0.281139
-0.272368
-0.262695
-0.252177
-0.241012
-0.229476
-0.217842
-0.206425
-0.195078
-0.337147
-0.329255
-0.321906
-0.314612
-0.306761
-0.298142
-0.288553
-0.277849
-0.266062
-0.253422
-0.240278
-0.227003
-0.213913
-0.201292
-0.188951
-0.351509
-0.342632
-0.334483
-0.326324
-0.317292
-0.307078
-0.295492
-0.282516
-0.268382
-0.253517
-0.238406
-0.223478
-0.209053
-0.195346
-0.182115
-0.365936
-0.356139
-0.347185
-0.338034
-0.327559
-0.315392
-0.30145
-0.285928
-0.26931
-0.252214
-0.235223
-0.218776
-0.203156
-0.188486
-0.174488
-0.379899
-0.369276
-0.359505
-0.349196
-0.336976
-0.3225
-0.305895
-0.287653
-0.268524
-0.249285
-0.230562
-0.212761
-0.196102
-0.180599
-0.165979
-0.392768
-0.381442
-0.37083
-0.359163
-0.344885
-0.327784
-0.308305
-0.28729
-0.265733
-0.244518
-0.224257
-0.20529
-0.187758
-0.171563
-0.156483
-0.403837
-0.391949
-0.380456
-0.367217
-0.350593
-0.330634
-0.308196
-0.284479
-0.260679
-0.237717
-0.216146
-0.196219
-0.17799
-0.16126
-0.145893
-0.412348
-0.40005
-0.387629
-0.372613
-0.353416
-0.330483
-0.305137
-0.278911
-0.253133
-0.228701
-0.206076
-0.185411
-0.166672
-0.14958
-0.134103
-0.417532
-0.404977
-0.391583
-0.374619
-0.35272
-0.326835
-0.298767
-0.27033
-0.242905
-0.217314
-0.193904
-0.172733
-0.153686
-0.136419
-0.120996
-0.418641
-0.405983
-0.391582
-0.372566
-0.347956
-0.319281
-0.288806
-0.258537
-0.229843
-0.203429
-0.179518
-0.158076
-0.138922
-0.121651
-0.106404
-0.414991
-0.402379
-0.386966
-0.365881
-0.338681
-0.307518
-0.27505
-0.243395
-0.213846
-0.186967
-0.162854
-0.141387
-0.122312
-0.105142
-0.0900831
-0.405998
-0.393574
-0.377188
-0.354116
-0.32458
-0.291346
-0.257381
-0.224831
-0.194866
-0.167898
-0.143905
-0.12269
-0.103908
-0.0869253
-0.0719949
-0.391206
-0.379108
-0.361837
-0.336966
-0.305466
-0.27067
-0.235759
-0.20283
-0.1729
-0.146231
-0.122702
-0.102049
-0.0838363
-0.0673295
-0.053077
-0.370311
-0.358674
-0.340664
-0.314278
-0.281284
-0.245505
-0.210226
-0.17744
-0.147993
-0.122012
-0.0992953
-0.0795158
-0.0621334
-0.0464769
-0.0335656
-0.343179
-0.332132
-0.313582
-0.286052
-0.252116
-0.215967
-0.1809
-0.148766
-0.120244
-0.095337
-0.073767
-0.0551551
-0.0389151
-0.0244674
-0.0130786
-0.30985
-0.29952
-0.280677
-0.252451
-0.21817
-0.182253
-0.147961
-0.116972
-0.0897934
-0.0663198
-0.046219
-0.0290704
-0.0142652
-0.00131115
0.0083908
-0.270543
-0.26105
-0.242226
-0.213809
-0.17972
-0.144589
-0.111652
-0.0822796
-0.0568357
-0.0351348
-0.0168051
-0.00139153
0.011719
0.022897
0.0305999
-0.225619
-0.21711
-0.198666
-0.170564
-0.136958
-0.103409
-0.0723222
-0.0449755
-0.0216134
-0.00198949
0.0142946
0.0277208
0.0388601
0.0478706
0.0531174
-0.17554
-0.168249
-0.150409
-0.122804
-0.0908919
-0.0592177
-0.0303732
-0.00539533
0.0156047
0.032914
0.0469457
0.0581745
0.067004
0.0732618
0.0756428
-0.120899
-0.115129
-0.0980244
-0.0717796
-0.0418179
-0.0125128
0.01373
0.036068
0.0545038
0.0693667
0.0810875
0.0900815
0.09641
0.0994642
0.0988424
-0.0627074
-0.0583707
-0.0425069
-0.0180069
0.00958839
0.0361208
0.0594513
0.0789247
0.0946478
0.107011
0.116497
0.123463
0.127617
0.128146
0.125635
-0.00184275
0.00112764
0.0153961
0.03776
0.0626035
0.0860335
0.106193
0.122606
0.135472
0.145248
0.152472
0.157468
0.159751
0.158984
0.161081
0.0608831
0.062373
0.0748115
0.0947051
0.116476
0.136546
0.153338
0.166536
0.176415
0.183464
0.188192
0.190827
0.191091
0.189856
0.192865
0.124481
0.124408
0.134824
0.151983
0.170442
0.18697
0.200263
0.210152
0.216973
0.221226
0.223387
0.223655
0.221968
0.219524
0.220801
0.187945
0.186266
0.194512
0.208747
0.223736
0.236617
0.246347
0.252881
0.256598
0.257997
0.257526
0.255402
0.251712
0.247645
0.246651
0.250275
0.246982
0.252964
0.264164
0.275611
0.284823
0.290996
0.294195
0.294829
0.293388
0.290297
0.285774
0.279969
0.273993
0.270652
0.310497
0.305612
0.309294
0.317426
0.325347
0.330942
0.333634
0.333577
0.331204
0.326991
0.321344
0.31448
0.306575
0.29865
0.292994
0.367674
0.36125
0.362655
0.367768
0.372257
0.374366
0.373718
0.370547
0.365297
0.358433
0.350338
0.341228
0.331295
0.321463
0.313588
0.420923
0.413043
0.412253
0.414471
0.415701
0.414523
0.410741
0.404652
0.39671
0.387365
0.37698
0.365771
0.353941
0.342299
0.332329
0.469428
0.460202
0.457356
0.456873
0.455088
0.450887
0.444233
0.435475
0.425071
0.413458
0.400982
0.387859
0.374297
0.360985
0.349082
0.51245
0.502016
0.497303
0.494378
0.489886
0.482984
0.473771
0.462638
0.450046
0.436415
0.422082
0.407264
0.392166
0.377355
0.363715
0.549336
0.537856
0.531512
0.526462
0.519626
0.510396
0.498981
0.485807
0.471335
0.455973
0.440046
0.423776
0.407362
0.391251
0.376105
0.579531
0.567187
0.559488
0.552679
0.54391
0.532765
0.519544
0.504697
0.488683
0.471903
0.454671
0.437214
0.419724
0.402539
0.386146
0.602582
0.589574
0.58083
0.572665
0.562412
0.549802
0.535199
0.519073
0.501882
0.484017
0.46579
0.447429
0.429116
0.411106
0.393754
0.618143
0.604685
0.595229
0.586144
0.574886
0.561284
0.545747
0.528758
0.510771
0.492175
0.473275
0.454303
0.435436
0.416866
0.398861
0.625982
0.612296
0.602481
0.59293
0.581165
0.567063
0.551055
0.53363
0.515243
0.496278
0.477039
0.457761
0.438614
0.419761
0.401426
0.625982
0.612296
0.602481
0.59293
0.581165
0.567063
0.551055
0.53363
0.515243
0.496278
0.477039
0.457761
0.438614
0.419761
0.401426
0.618143
0.604685
0.595229
0.586144
0.574886
0.561284
0.545747
0.528758
0.510771
0.492175
0.473275
0.454304
0.435437
0.416866
0.398861
0.602582
0.589574
0.58083
0.572665
0.562413
0.549802
0.535199
0.519073
0.501882
0.484018
0.46579
0.447429
0.429117
0.411107
0.393754
0.579532
0.567188
0.559489
0.552679
0.54391
0.532766
0.519544
0.504697
0.488684
0.471903
0.454671
0.437215
0.419724
0.40254
0.386147
0.549337
0.537857
0.531512
0.526463
0.519626
0.510396
0.498981
0.485808
0.471335
0.455973
0.440046
0.423777
0.407363
0.391252
0.376105
0.512451
0.502017
0.497303
0.494379
0.489886
0.482985
0.473771
0.462639
0.450046
0.436416
0.422083
0.407265
0.392167
0.377355
0.363715
0.469429
0.460203
0.457357
0.456874
0.455088
0.450888
0.444234
0.435476
0.425072
0.413458
0.400982
0.38786
0.374298
0.360986
0.349083
0.420924
0.413044
0.412254
0.414472
0.415702
0.414523
0.410742
0.404653
0.396711
0.387365
0.376981
0.365772
0.353941
0.3423
0.33233
0.367675
0.361251
0.362656
0.367769
0.372258
0.374367
0.373719
0.370548
0.365298
0.358434
0.350339
0.341229
0.331296
0.321464
0.313588
0.310498
0.305613
0.309295
0.317427
0.325348
0.330943
0.333635
0.333578
0.331205
0.326992
0.321344
0.31448
0.306576
0.298651
0.292994
0.250276
0.246983
0.252965
0.264165
0.275612
0.284824
0.290997
0.294196
0.29483
0.293389
0.290298
0.285775
0.27997
0.273994
0.270653
0.187946
0.186267
0.194514
0.208749
0.223737
0.236618
0.246349
0.252882
0.256599
0.257998
0.257528
0.255403
0.251714
0.247646
0.246652
0.124483
0.124409
0.134826
0.151985
0.170443
0.186971
0.200265
0.210153
0.216974
0.221227
0.223388
0.223656
0.22197
0.219525
0.220802
0.060885
0.0623749
0.0748134
0.0947069
0.116478
0.136548
0.15334
0.166537
0.176417
0.183465
0.188194
0.190828
0.191092
0.189858
0.192866
-0.00184065
0.00112972
0.0153982
0.037762
0.0626054
0.0860353
0.106195
0.122607
0.135474
0.145249
0.152473
0.157469
0.159752
0.158985
0.161083
-0.0627051
-0.0583684
-0.0425047
-0.0180047
0.00959044
0.0361228
0.0594531
0.0789265
0.0946495
0.107013
0.116498
0.123464
0.127618
0.128147
0.125636
-0.120897
-0.115127
-0.0980219
-0.0717773
-0.0418157
-0.0125107
0.013732
0.03607
0.0545057
0.0693685
0.0810892
0.0900832
0.0964116
0.0994658
0.098844
-0.175537
-0.168246
-0.150406
-0.122801
-0.0908895
-0.0592154
-0.030371
-0.00539321
0.0156067
0.032916
0.0469476
0.0581763
0.0670058
0.0732635
0.0756444
-0.225616
-0.217107
-0.198663
-0.170561
-0.136956
-0.103407
-0.0723198
-0.0449732
-0.0216112
-0.00198739
0.0142966
0.0277228
0.0388619
0.0478724
0.0531191
-0.270539
-0.261047
-0.242223
-0.213806
-0.179718
-0.144587
-0.11165
-0.0822771
-0.0568334
-0.0351326
-0.0168029
-0.00138946
0.011721
0.0228989
0.0306017
-0.309847
-0.299516
-0.280674
-0.252447
-0.218167
-0.18225
-0.147958
-0.11697
-0.0897909
-0.0663174
-0.0462167
-0.0290682
-0.0142631
-0.00130913
0.00839274
-0.343175
-0.332129
-0.313578
-0.286049
-0.252112
-0.215964
-0.180898
-0.148764
-0.120241
-0.0953345
-0.0737646
-0.0551528
-0.0389128
-0.0244653
-0.0130765
-0.370307
-0.35867
-0.34066
-0.314274
-0.281281
-0.245501
-0.210223
-0.177437
-0.147991
-0.12201
-0.0992927
-0.0795134
-0.0621311
-0.0464747
-0.0335635
-0.391202
-0.379104
-0.361833
-0.336962
-0.305462
-0.270667
-0.235756
-0.202827
-0.172897
-0.146228
-0.122699
-0.102046
-0.0838338
-0.0673272
-0.0530748
-0.405994
-0.39357
-0.377183
-0.354112
-0.324576
-0.291342
-0.257377
-0.224828
-0.194863
-0.167895
-0.143902
-0.122688
-0.103906
-0.0869229
-0.0719926
-0.414987
-0.402374
-0.386962
-0.365877
-0.338677
-0.307515
-0.275047
-0.243392
-0.213843
-0.186964
-0.162851
-0.141384
-0.12231
-0.10514
-0.0900807
-0.418637
-0.405979
-0.391577
-0.372562
-0.347951
-0.319277
-0.288802
-0.258533
-0.229839
-0.203426
-0.179515
-0.158073
-0.138919
-0.121649
-0.106401
-0.417527
-0.404973
-0.391578
-0.374614
-0.352716
-0.32683
-0.298763
-0.270326
-0.242901
-0.217311
-0.193901
-0.172729
-0.153683
-0.136416
-0.120993
-0.412344
-0.400045
-0.387624
-0.372608
-0.353412
-0.330479
-0.305132
-0.278907
-0.25313
-0.228698
-0.206072
-0.185407
-0.166669
-0.149577
-0.1341
-0.403832
-0.391944
-0.380451
-0.367213
-0.350589
-0.33063
-0.308192
-0.284475
-0.260675
-0.237713
-0.216143
-0.196216
-0.177986
-0.161257
-0.14589
-0.392763
-0.381437
-0.370825
-0.359158
-0.34488
-0.32778
-0.308301
-0.287285
-0.265729
-0.244514
-0.224253
-0.205286
-0.187754
-0.17156
-0.15648
-0.379893
-0.369271
-0.3595
-0.349191
-0.336971
-0.322495
-0.30589
-0.287649
-0.26852
-0.249281
-0.230558
-0.212757
-0.196099
-0.180595
-0.165976
-0.365931
-0.356134
-0.34718
-0.338029
-0.327554
-0.315387
-0.301445
-0.285924
-0.269305
-0.25221
-0.235219
-0.218772
-0.203153
-0.188482
-0.174485
-0.351504
-0.342627
-0.334478
-0.326319
-0.317287
-0.307073
-0.295487
-0.282511
-0.268378
-0.253512
-0.238402
-0.223474
-0.209049
-0.195342
-0.182112
-0.337142
-0.32925
-0.321901
-0.314607
-0.306756
-0.298137
-0.288548
-0.277844
-0.266058
-0.253418
-0.240274
-0.226999
-0.213909
-0.201288
-0.188947
-0.323266
-0.316386
-0.309837
-0.30332
-0.296438
-0.289096
-0.281134
-0.272363
-0.262691
-0.252173
-0.241008
-0.229471
-0.217838
-0.206421
-0.195074
-0.310188
-0.304312
-0.298555
-0.292756
-0.286691
-0.280365
-0.273689
-0.266496
-0.258634
-0.250044
-0.240784
-0.231013
-0.220927
-0.210828
-0.200563
-0.298115
-0.293205
-0.288222
-0.283101
-0.277747
-0.272241
-0.26657
-0.260618
-0.254238
-0.247312
-0.239797
-0.231743
-0.223251
-0.214582
-0.205494
-0.287166
-0.283155
-0.278914
-0.27444
-0.269727
-0.264907
-0.260026
-0.255033
-0.249817
-0.244255
-0.238255
-0.231793
-0.224875
-0.217738
-0.20993
-0.277386
-0.274187
-0.27064
-0.266783
-0.262665
-0.258443
-0.254205
-0.249952
-0.245625
-0.24113
-0.236371
-0.231297
-0.225859
-0.220312
-0.213979
-0.268758
-0.266274
-0.263363
-0.260086
-0.256528
-0.252849
-0.249157
-0.245493
-0.241841
-0.238147
-0.234344
-0.230397
-0.226252
-0.222258
-0.21763
-0.261224
-0.259351
-0.257011
-0.254273
-0.25124
-0.248066
-0.244862
-0.241689
-0.238562
-0.235459
-0.232347
-0.229229
-0.226106
-0.223422
-0.221005
-0.254691
-0.253329
-0.25149
-0.249245
-0.246702
-0.244001
-0.241248
-0.238508
-0.235809
-0.233146
-0.230506
-0.227919
-0.225468
-0.223572
-0.223771
-0.249047
-0.248104
-0.246697
-0.244894
-0.242803
-0.240544
-0.238211
-0.235867
-0.233537
-0.231218
-0.228894
-0.226584
-0.224397
-0.222487
-0.22607
-0.244169
-0.243565
-0.242525
-0.241113
-0.239429
-0.237575
-0.235633
-0.233653
-0.231654
-0.229621
-0.227512
-0.225299
-0.222936
-0.220164
-0.226202
-0.239935
-0.239606
-0.238875
-0.2378
-0.236476
-0.234986
-0.233396
-0.231747
-0.230045
-0.228258
-0.226305
-0.224077
-0.221292
-0.216572
-0.211481
-0.236235
-0.236129
-0.235655
-0.234868
-0.233855
-0.232683
-0.231406
-0.230052
-0.228623
-0.22707
-0.225304
-0.223199
-0.220527
-0.216242
-0.21018
-0.232974
-0.233049
-0.23279
-0.232247
-0.231499
-0.230602
-0.229596
-0.228504
-0.22732
-0.226002
-0.224469
-0.222632
-0.220354
-0.216949
-0.212453
-0.230074
-0.230301
-0.23022
-0.229881
-0.229359
-0.228697
-0.227928
-0.227066
-0.226106
-0.225013
-0.223724
-0.222187
-0.220309
-0.217615
-0.214672
-0.227474
-0.227831
-0.227901
-0.227734
-0.227403
-0.226944
-0.226381
-0.225726
-0.224974
-0.224099
-0.22306
-0.221832
-0.220358
-0.218336
-0.216589
-0.225131
-0.225602
-0.2258
-0.225779
-0.225612
-0.225328
-0.224946
-0.224479
-0.223924
-0.223262
-0.222473
-0.221553
-0.220479
-0.219077
-0.218116
-0.223014
-0.223587
-0.223897
-0.224001
-0.223974
-0.223841
-0.223621
-0.223324
-0.22295
-0.222492
-0.221938
-0.221303
-0.220591
-0.219696
-0.219116
-0.221104
-0.221772
-0.22218
-0.222391
-0.222484
-0.222482
-0.222402
-0.222255
-0.222046
-0.22177
-0.221428
-0.221037
-0.220617
-0.220082
-0.219553
-0.219395
-0.220152
-0.220646
-0.220948
-0.221143
-0.221252
-0.221292
-0.221275
-0.221207
-0.22109
-0.220928
-0.22074
-0.220536
-0.220275
-0.220292
-0.217888
-0.218728
-0.219299
-0.219678
-0.219957
-0.220159
-0.220299
-0.220389
-0.220439
-0.220451
-0.220434
-0.220402
-0.22036
-0.220294
-0.220521
-0.216594
-0.21751
-0.218146
-0.218589
-0.218938
-0.219214
-0.219433
-0.21961
-0.219752
-0.219866
-0.219959
-0.220043
-0.220123
-0.220196
-0.220494
-0.215529
-0.216511
-0.217201
-0.217695
-0.218098
-0.218432
-0.218712
-0.218954
-0.219166
-0.219355
-0.219529
-0.219698
-0.219865
-0.220035
-0.220368
-0.214709
-0.215744
-0.216477
-0.21701
-0.217452
-0.217827
-0.218152
-0.21844
-0.218702
-0.218944
-0.219174
-0.219401
-0.219627
-0.219863
-0.220215
-0.214152
-0.215224
-0.215986
-0.216544
-0.217013
-0.217416
-0.217769
-0.218087
-0.21838
-0.218656
-0.218921
-0.219183
-0.219447
-0.219723
-0.220085
-0.21387
-0.214961
-0.215738
-0.216309
-0.216791
-0.217207
-0.217574
-0.217906
-0.218215
-0.218507
-0.218789
-0.219068
-0.21935
-0.219645
-0.220012
-0.220869
-0.221423
-0.222561
-0.223576
-0.224756
-0.225936
-0.227108
-0.228196
-0.229141
-0.229876
-0.230331
-0.230437
-0.230119
-0.229302
-0.227901
-0.225838
-0.223031
-0.219405
-0.214904
-0.20957
-0.203356
-0.19628
-0.188388
-0.179754
-0.170475
-0.160671
-0.150471
-0.140014
-0.129433
-0.118867
-0.108432
-0.0982375
-0.0883738
-0.0789156
-0.0699191
-0.0614305
-0.0534765
-0.0460754
-0.0392349
-0.0329529
-0.0272284
-0.022039
-0.0173966
-0.0132333
-0.00965031
-0.00638502
-0.00398063
-0.00122656
-0.000802194
0.00303174
-0.22102
-0.221493
-0.222643
-0.223653
-0.224836
-0.226019
-0.227196
-0.22829
-0.229241
-0.229982
-0.230445
-0.23056
-0.230253
-0.229447
-0.22806
-0.22601
-0.223217
-0.219603
-0.215135
-0.209803
-0.203598
-0.196529
-0.188642
-0.180009
-0.170729
-0.16092
-0.150712
-0.140245
-0.129653
-0.119075
-0.108628
-0.0984199
-0.0885432
-0.0790727
-0.0700642
-0.0615646
-0.0536004
-0.0461898
-0.0393407
-0.0330508
-0.0273194
-0.0221234
-0.017476
-0.0133067
-0.00972071
-0.00644909
-0.00404267
-0.0012836
-0.000841131
0.00296523
-0.221314
-0.221621
-0.222798
-0.223796
-0.224985
-0.226176
-0.227363
-0.228467
-0.229431
-0.230186
-0.230665
-0.230797
-0.230511
-0.229728
-0.228368
-0.226346
-0.22358
-0.219988
-0.215552
-0.210247
-0.204062
-0.197007
-0.189128
-0.180496
-0.171212
-0.161393
-0.151172
-0.140687
-0.130073
-0.119472
-0.109001
-0.0987692
-0.0888689
-0.0793758
-0.0703456
-0.0618259
-0.0538427
-0.0464148
-0.03955
-0.0332455
-0.0275014
-0.022293
-0.017636
-0.0134552
-0.00986333
-0.00657915
-0.00416808
-0.00139819
-0.000919647
0.00283508
-0.221737
-0.221787
-0.223009
-0.223992
-0.225187
-0.226389
-0.227589
-0.228709
-0.22969
-0.230465
-0.230965
-0.231123
-0.230867
-0.230118
-0.228796
-0.226814
-0.224088
-0.22053
-0.216142
-0.210871
-0.204713
-0.197679
-0.189812
-0.181184
-0.171894
-0.162064
-0.151823
-0.141315
-0.130671
-0.12004
-0.109537
-0.0992727
-0.0893402
-0.0798164
-0.0707552
-0.0622087
-0.0541981
-0.0467465
-0.0398596
-0.0335344
-0.0277722
-0.0225458
-0.017875
-0.0136772
-0.0100759
-0.00677294
-0.00435361
-0.00156639
-0.0010345
0.00264869
-0.222269
-0.221964
-0.223252
-0.224218
-0.225419
-0.226634
-0.227848
-0.228986
-0.229988
-0.230787
-0.231315
-0.231504
-0.231285
-0.230579
-0.229304
-0.227373
-0.224698
-0.221188
-0.216852
-0.211626
-0.205505
-0.198498
-0.190649
-0.182029
-0.172736
-0.162893
-0.152633
-0.142098
-0.131422
-0.120756
-0.110216
-0.0999128
-0.0899425
-0.0803839
-0.0712815
-0.062703
-0.0546618
-0.0471797
-0.0402652
-0.0339139
-0.0281286
-0.0228791
-0.0181899
-0.0139699
-0.0103553
-0.00702721
-0.00459461
-0.00178317
-0.00118087
0.00241611
-0.222899
-0.222117
-0.223502
-0.224451
-0.225655
-0.226882
-0.228111
-0.229268
-0.230292
-0.231117
-0.231676
-0.231902
-0.231724
-0.231068
-0.229847
-0.227975
-0.225349
-0.221848
-0.217625
-0.21246
-0.206384
-0.199413
-0.191588
-0.182982
-0.173691
-0.16384
-0.153562
-0.143005
-0.132292
-0.121593
-0.111015
-0.100668
-0.0906577
-0.0810569
-0.0719203
-0.0633015
-0.0552241
-0.0477076
-0.0407611
-0.0343792
-0.0285664
-0.0232892
-0.0185772
-0.0143298
-0.0106972
-0.00733782
-0.00488539
-0.00204306
-0.00135286
0.00214908
-0.223651
-0.222205
-0.223731
-0.224666
-0.225868
-0.227104
-0.228346
-0.22952
-0.230566
-0.231418
-0.23201
-0.232275
-0.232143
-0.23154
-0.230379
-0.228569
-0.22601
-0.222711
-0.218435
-0.213319
-0.207296
-0.200369
-0.192578
-0.183993
-0.174711
-0.16486
-0.154571
-0.144005
-0.133238
-0.122519
-0.111905
-0.101522
-0.0914707
-0.0818279
-0.072652
-0.0639925
-0.0558766
-0.0483228
-0.041341
-0.0349249
-0.0290807
-0.0237715
-0.0190324
-0.0147526
-0.0110967
-0.00769994
-0.00521951
-0.00234054
-0.00154429
0.00185977
-0.224557
-0.222209
-0.223917
-0.224841
-0.226033
-0.227273
-0.228523
-0.229711
-0.230777
-0.231656
-0.232281
-0.232585
-0.2325
-0.231953
-0.230855
-0.229112
-0.226602
-0.22335
-0.219193
-0.214151
-0.208189
-0.201315
-0.19357
-0.185014
-0.175746
-0.165907
-0.155617
-0.145029
-0.134268
-0.123513
-0.112867
-0.10245
-0.0923616
-0.0826798
-0.0734646
-0.0647651
-0.0566098
-0.049017
-0.0419977
-0.0355446
-0.0296656
-0.0243207
-0.01955
-0.0152331
-0.0115481
-0.0081083
-0.00559021
-0.00267024
-0.00174946
0.00155965
-0.225108
-0.222296
-0.224015
-0.22496
-0.226125
-0.22736
-0.228613
-0.229811
-0.230894
-0.231797
-0.232454
-0.232798
-0.232761
-0.232269
-0.231236
-0.229567
-0.227125
-0.22395
-0.219874
-0.214906
-0.209014
-0.202202
-0.194509
-0.185999
-0.17677
-0.16695
-0.15667
-0.146081
-0.135318
-0.124545
-0.113877
-0.103434
-0.0933139
-0.0835976
-0.0743461
-0.0656082
-0.0574139
-0.0497818
-0.0427236
-0.0362313
-0.0303148
-0.0249306
-0.0201243
-0.0157656
-0.0120452
-0.00855739
-0.00599071
-0.00302695
-0.0019636
0.00125844
-0.225727
-0.22241
-0.223979
-0.225005
-0.226125
-0.227343
-0.228589
-0.229791
-0.230886
-0.231811
-0.232498
-0.232881
-0.232891
-0.232456
-0.231485
-0.229871
-0.227596
-0.224432
-0.220436
-0.215548
-0.209733
-0.202994
-0.195366
-0.186913
-0.177733
-0.16795
-0.157698
-0.147124
-0.13637
-0.125593
-0.114915
-0.104455
-0.0943113
-0.0845666
-0.075283
-0.0665097
-0.0582782
-0.0506072
-0.0435095
-0.0369766
-0.0310202
-0.025594
-0.0207479
-0.0163435
-0.0125813
-0.00904121
-0.00641421
-0.00340549
-0.00218293
0.000963539
-0.226458
-0.222462
-0.223837
-0.224941
-0.226001
-0.227186
-0.228417
-0.229618
-0.230723
-0.231668
-0.232384
-0.232806
-0.232862
-0.232482
-0.231572
-0.230016
-0.227802
-0.224747
-0.220842
-0.21604
-0.210311
-0.203655
-0.196104
-0.187723
-0.178606
-0.168877
-0.158668
-0.148128
-0.137397
-0.126632
-0.115957
-0.10549
-0.0953319
-0.0855664
-0.0762566
-0.0674524
-0.0591866
-0.0514784
-0.044342
-0.0377682
-0.0317707
-0.0263004
-0.0214114
-0.0169582
-0.0131478
-0.00955271
-0.00685378
-0.00380018
-0.0024044
0.000679972
-0.227215
-0.222457
-0.223571
-0.224744
-0.225729
-0.226861
-0.228071
-0.229266
-0.230381
-0.231344
-0.232089
-0.232548
-0.232647
-0.232321
-0.231466
-0.230062
-0.227844
-0.224875
-0.22106
-0.216349
-0.210712
-0.204148
-0.196688
-0.188392
-0.179355
-0.169696
-0.159549
-0.14906
-0.13837
-0.127633
-0.116975
-0.106515
-0.0963541
-0.0865774
-0.0772492
-0.0684203
-0.060125
-0.052383
-0.0452098
-0.0385959
-0.0325571
-0.0270414
-0.0221071
-0.0176023
-0.0137383
-0.0100857
-0.00730445
-0.00420587
-0.00262682
0.000409894
-0.227882
-0.222478
-0.223293
-0.224498
-0.225367
-0.226407
-0.227572
-0.22875
-0.229864
-0.230839
-0.231605
-0.232093
-0.232233
-0.231952
-0.231141
-0.229779
-0.22767
-0.224795
-0.221074
-0.216461
-0.210928
-0.204471
-0.197118
-0.188929
-0.179993
-0.170429
-0.160367
-0.149951
-0.139323
-0.128633
-0.118008
-0.107569
-0.097417
-0.0876374
-0.0782968
-0.0694468
-0.0611236
-0.0533476
-0.0461363
-0.0394795
-0.0333959
-0.02783
-0.0228451
-0.0182831
-0.014358
-0.0106432
-0.00776879
-0.00462294
-0.00285231
0.000149602
-0.228401
-0.22258
-0.223008
-0.224184
-0.224862
-0.225748
-0.226835
-0.227984
-0.229093
-0.230074
-0.230858
-0.231382
-0.231577
-0.231361
-0.230674
-0.2293
-0.227284
-0.22451
-0.220902
-0.216412
-0.211011
-0.204691
-0.197479
-0.18943
-0.18063
-0.171191
-0.161243
-0.150925
-0.14038
-0.129752
-0.119173
-0.10876
-0.0986187
-0.0888351
-0.0794778
-0.0706004
-0.0622414
-0.0544224
-0.0471632
-0.0404532
-0.0343142
-0.0286882
-0.0236415
-0.0190138
-0.0150142
-0.0112331
-0.00824731
-0.00505794
-0.00307604
-0.000111631
-0.226957
-0.220547
-0.221243
-0.22265
-0.223288
-0.224103
-0.2252
-0.226427
-0.227637
-0.228715
-0.229586
-0.230193
-0.230486
-0.2304
-0.229759
-0.228485
-0.226569
-0.223899
-0.220405
-0.216038
-0.210766
-0.20458
-0.197504
-0.18959
-0.180922
-0.171609
-0.161776
-0.151561
-0.141104
-0.13055
-0.120028
-0.109658
-0.0995455
-0.0897781
-0.0804261
-0.0715441
-0.0631722
-0.0553333
-0.0480477
-0.0413068
-0.03513
-0.029465
-0.0243665
-0.019695
-0.0156186
-0.0117978
-0.00868109
-0.00548421
-0.00325963
-0.000367779
-0.194563
-0.19524
-0.202836
-0.208164
-0.210889
-0.212678
-0.214605
-0.216839
-0.219139
-0.221235
-0.222968
-0.224268
-0.225098
-0.225423
-0.225206
-0.224342
-0.222713
-0.22027
-0.216978
-0.212802
-0.20772
-0.20173
-0.194864
-0.187181
-0.178768
-0.169736
-0.160207
-0.150314
-0.140194
-0.129978
-0.119793
-0.10975
-0.0999484
-0.0904707
-0.0813835
-0.0727378
-0.0645709
-0.0569055
-0.0497559
-0.0431218
-0.0370032
-0.0313788
-0.0262447
-0.0215543
-0.0173134
-0.0134343
-0.0099546
-0.00671605
-0.0038278
-0.00104377
-0.16724
-0.17867
-0.184944
-0.188596
-0.191345
-0.194008
-0.196778
-0.199505
-0.20194
-0.203898
-0.205304
-0.206155
-0.206462
-0.206208
-0.20534
-0.203847
-0.201714
-0.198884
-0.195398
-0.191266
-0.186477
-0.181027
-0.174933
-0.168242
-0.161017
-0.153334
-0.145279
-0.136946
-0.128429
-0.11982
-0.111211
-0.102681
-0.0943061
-0.0861494
-0.0782645
-0.0706954
-0.0634735
-0.0566227
-0.0501553
-0.044079
-0.0383902
-0.0330834
-0.0281418
-0.0235491
-0.0192759
-0.015297
-0.0115693
-0.00806452
-0.0047268
-0.0015516
-0.143856
-0.152481
-0.157369
-0.1603
-0.162753
-0.165351
-0.16811
-0.170788
-0.173128
-0.174978
-0.176298
-0.177113
-0.177463
-0.177378
-0.176876
-0.175969
-0.174663
-0.172912
-0.170529
-0.167425
-0.163632
-0.159226
-0.154283
-0.148857
-0.143
-0.136766
-0.130215
-0.123414
-0.116433
-0.109339
-0.102201
-0.0950833
-0.088041
-0.081125
-0.0743757
-0.0678301
-0.0615135
-0.0554504
-0.0496506
-0.0441281
-0.0388771
-0.033904
-0.0291871
-0.0247295
-0.0204914
-0.0164795
-0.0126311
-0.008965
-0.00538055
-0.00190689
-0.115366
-0.124714
-0.130221
-0.133741
-0.136723
-0.139768
-0.142894
-0.145883
-0.148524
-0.150711
-0.152414
-0.153651
-0.154448
-0.154822
-0.154757
-0.154205
-0.153105
-0.151408
-0.149149
-0.146411
-0.143231
-0.139619
-0.135588
-0.131165
-0.126385
-0.12129
-0.115927
-0.110345
-0.104595
-0.098728
-0.0927932
-0.0868381
-0.0809042
-0.0750308
-0.0692497
-0.0635915
-0.0580769
-0.0527284
-0.0475545
-0.0425704
-0.0377715
-0.0331684
-0.0287423
-0.0245033
-0.0204153
-0.0164945
-0.0126805
-0.00900513
-0.00537333
-0.00185652
-0.0934073
-0.102017
-0.107794
-0.111886
-0.115337
-0.118651
-0.121899
-0.124944
-0.127627
-0.129855
-0.1316
-0.132874
-0.133691
-0.134051
-0.133952
-0.133401
-0.132429
-0.131081
-0.129389
-0.127315
-0.124837
-0.121964
-0.118724
-0.115151
-0.111277
-0.107138
-0.102768
-0.0982032
-0.0934805
-0.0886373
-0.0837097
-0.0787331
-0.0737387
-0.0687575
-0.0638144
-0.0589349
-0.0541357
-0.0494369
-0.0448456
-0.0403772
-0.0360282
-0.0318117
-0.0277117
-0.0237432
-0.0198742
-0.0161282
-0.0124509
-0.00888541
-0.005341
-0.00188882
-0.0767714
-0.0842815
-0.089807
-0.094012
-0.0975763
-0.10088
-0.104013
-0.106906
-0.109454
-0.111585
-0.113277
-0.114536
-0.115382
-0.115836
-0.115922
-0.115663
-0.115066
-0.114125
-0.112824
-0.111172
-0.109182
-0.106871
-0.104256
-0.101361
-0.0982099
-0.0948289
-0.0912436
-0.0874815
-0.08357
-0.0795379
-0.0754119
-0.0712193
-0.066984
-0.0627306
-0.0584787
-0.0542492
-0.0500555
-0.0459153
-0.0418347
-0.0378287
-0.033895
-0.0300478
-0.026274
-0.0225912
-0.0189718
-0.0154427
-0.011955
-0.00855385
-0.00515262
-0.0018226
-0.0635701
-0.0701091
-0.0751226
-0.0790979
-0.0825226
-0.0856731
-0.088622
-0.091328
-0.0937202
-0.0957487
-0.0973968
-0.0986734
-0.0995979
-0.10019
-0.100461
-0.100415
-0.100051
-0.0993689
-0.0983748
-0.0970856
-0.0955127
-0.0936665
-0.0915616
-0.0892155
-0.0866464
-0.0838736
-0.0809173
-0.0777988
-0.0745395
-0.0711612
-0.0676845
-0.0641309
-0.0605194
-0.0568701
-0.0531984
-0.049522
-0.0458517
-0.0422031
-0.0385814
-0.0350006
-0.0314589
-0.027971
-0.0245259
-0.0211418
-0.0177949
-0.0145129
-0.011252
-0.00805762
-0.00485196
-0.00170994
-0.0530941
-0.0586952
-0.0631316
-0.0667555
-0.0699296
-0.0728596
-0.0755979
-0.078112
-0.0803489
-0.0822716
-0.0838678
-0.085143
-0.0861097
-0.0867791
-0.0871586
-0.0872524
-0.0870644
-0.0866001
-0.0858658
-0.0848696
-0.0836289
-0.082157
-0.0804638
-0.0785596
-0.0764579
-0.0741742
-0.0717249
-0.0691272
-0.0663978
-0.0635539
-0.0606116
-0.0575881
-0.0544984
-0.0513586
-0.0481811
-0.0449808
-0.0417665
-0.0385518