/*--------------------------------*- C++ -*----------------------------------*\
  =========                 |
  \\      /  F ield         | OpenFOAM: The Open Source CFD Toolbox
   \\    /   O peration     | Website:  https://openfoam.org
    \\  /    A nd           | Version:  7
     \\/     M anipulation  |
\*---------------------------------------------------------------------------*/
FoamFile
{
    version     2.0;
    format      ascii;
    class       volVectorField;
    location    "40";
    object      U;
}
// * * * * * * * * * * * * * * * * * * * * * * * * * * * * * * * * * * * * * //

dimensions      [0 1 -1 0 0 0 0];

internalField   nonuniform List<vector> 
13250
(
(-0.000510043 0.000798538 -1.22158e-21)
(-0.00273688 0.00202454 1.45589e-20)
(-0.00713731 0.00293634 -2.88739e-20)
(-0.0129447 0.00358323 -1.9053e-20)
(-0.0196538 0.00400729 1.33708e-21)
(-0.0269365 0.00424747 1.16553e-20)
(-0.0345158 0.00434268 -1.75233e-21)
(-0.0421694 0.00433119 -2.57556e-21)
(-0.0497402 0.00425014 -3.50196e-21)
(-0.0571355 0.00413503 -1.53689e-20)
(-0.064324 0.00401902 -3.05562e-20)
(-0.0713317 0.0039314 1.64263e-20)
(-0.078226 0.00389551 -4.70739e-22)
(-0.0851045 0.00392806 -1.99585e-20)
(-0.0921791 0.00403721 2.04757e-20)
(-0.000668182 0.00237405 -4.2166e-20)
(-0.00311652 0.00602164 -5.25944e-20)
(-0.00764077 0.00873627 8.37509e-21)
(-0.0134931 0.0106626 1.66964e-21)
(-0.0201801 0.0119249 8.05342e-20)
(-0.027381 0.0126383 -1.03387e-20)
(-0.0348247 0.0129181 5.1341e-21)
(-0.0422934 0.0128783 1.70904e-20)
(-0.0496329 0.0126295 -1.93655e-20)
(-0.0567522 0.0122781 1.74832e-20)
(-0.0636222 0.0119243 6.74809e-20)
(-0.0702728 0.0116575 -3.70356e-20)
(-0.0767755 0.0115501 -1.70966e-20)
(-0.08323 0.0116558 1.4037e-20)
(-0.089879 0.0120005 1.13294e-20)
(-0.000978452 0.0038884 1.14596e-19)
(-0.00386277 0.00986945 -7.60779e-20)
(-0.00863224 0.0143249 -3.74734e-20)
(-0.0145745 0.0174863 -3.14259e-20)
(-0.0212185 0.0195543 6.65968e-21)
(-0.0282578 0.0207161 6.50749e-21)
(-0.0354327 0.0211597 -2.97037e-20)
(-0.0425338 0.0210716 -1.09317e-20)
(-0.0494124 0.0206339 -7.37123e-20)
(-0.0559806 0.0200235 -1.40697e-19)
(-0.0622127 0.0194093 1.33965e-20)
(-0.0681453 0.0189452 -1.0136e-19)
(-0.073858 0.0187607 1.87532e-19)
(-0.0794539 0.0189574 -2.70385e-20)
(-0.0852406 0.0195854 2.09424e-21)
(-0.00142958 0.00530596 2.06402e-20)
(-0.00495081 0.0134791 5.70689e-20)
(-0.0100816 0.0195742 1.35256e-19)
(-0.0161578 0.0238974 -1.75393e-19)
(-0.0227394 0.0267169 -9.12376e-20)
(-0.0295401 0.0282854 1.727e-19)
(-0.0363164 0.0288577 -8.33238e-20)
(-0.0428707 0.0286877 -7.20011e-20)
(-0.0490616 0.0280252 1.09518e-19)
(-0.0548046 0.027116 3.71301e-20)
(-0.0600768 0.0261998 4.22962e-20)
(-0.0649228 0.0255026 -7.10514e-20)
(-0.069433 0.0252247 9.24679e-20)
(-0.0737122 0.0255374 -1.97627e-20)
(-0.0781716 0.0265324 7.79115e-20)
(-0.00200624 0.00659804 6.78468e-20)
(-0.00634582 0.016776 -2.88569e-20)
(-0.011945 0.0243737 -9.33344e-21)
(-0.0181957 0.0297573 4.29879e-20)
(-0.0246947 0.0332527 -3.00149e-19)
(-0.0311806 0.0351698 2.03617e-19)
(-0.03743 0.0358223 6.47442e-20)
(-0.04326 0.0355239 -3.43356e-20)
(-0.0485374 0.034586 4.34844e-20)
(-0.0531799 0.0333197 -5.28019e-20)
(-0.0571645 0.0320367 5.25662e-20)
(-0.0605421 0.0310445 -5.42198e-20)
(-0.0634143 0.0306346 -2.15085e-19)
(-0.0658804 0.0310824 1.07913e-21)
(-0.0684876 0.0325592 1.53644e-19)
(-0.00269058 0.00774403 -1.05616e-19)
(-0.00800523 0.0197026 1.04116e-19)
(-0.0141654 0.028634 -1.46893e-20)
(-0.020622 0.0349506 8.04419e-20)
(-0.0270121 0.039026 -1.15112e-20)
(-0.033102 0.0412183 6.20094e-20)
(-0.0386916 0.0418906 -4.89223e-20)
(-0.0436152 0.0414073 -1.38127e-20)
(-0.0477475 0.0401319 1.98132e-20)
(-0.0510059 0.0384337 1.80258e-20)
(-0.0533621 0.0366945 -2.27622e-19)
(-0.0548673 0.0353106 1.97589e-19)
(-0.0556346 0.0346892 -1.881e-19)
(-0.0557418 0.0352547 2.44353e-19)
(-0.0558526 0.0373283 -1.31799e-19)
(-0.0034636 0.00873136 1.21985e-19)
(-0.00988048 0.0222185 -2.66701e-19)
(-0.0166729 0.0322874 1.82277e-19)
(-0.0233493 0.039386 3.40877e-20)
(-0.0295875 0.0439272 -2.12846e-19)
(-0.0351838 0.0463087 -6.04303e-20)
(-0.0399637 0.0469338 2.39277e-19)
(-0.0437795 0.0462056 -1.72707e-19)
(-0.0465141 0.0445279 7.4233e-21)
(-0.0480811 0.0423159 2.65656e-19)
(-0.0484385 0.0400138 3.30807e-19)
(-0.0476294 0.0381088 -1.9993e-19)
(-0.0457848 0.0371437 4.19273e-19)
(-0.0429569 0.0377533 -4.69063e-19)
(-0.0397358 0.0405418 -1.35946e-19)
(-0.00430616 0.00955429 -2.147e-19)
(-0.011918 0.0242979 2.93676e-21)
(-0.0193833 0.0352857 2.18275e-19)
(-0.0262632 0.0429948 -1.36046e-19)
(-0.0322754 0.0478722 4.00211e-19)
(-0.037246 0.0503489 1.53975e-19)
(-0.0410274 0.0508594 2.24075e-20)
(-0.0434906 0.0498341 8.96077e-20)
(-0.0445249 0.047702 -4.97507e-19)
(-0.044036 0.0449081 4.04198e-19)
(-0.0419594 0.041943 -3.97834e-19)
(-0.038316 0.0393772 5.04989e-19)
(-0.033258 0.0379049 -3.63547e-19)
(-0.0268803 0.0384992 3.43657e-19)
(-0.0194996 0.0425067 -3.55291e-19)
(-0.0051993 0.0102118 -7.20241e-20)
(-0.014059 0.025926 5.41804e-19)
(-0.0221957 0.0375953 9.08141e-20)
(-0.0292172 0.045726 -9.42982e-20)
(-0.0348771 0.0507979 -5.39826e-19)
(-0.0390308 0.0532728 8.9922e-20)
(-0.0415556 0.0536095 4.38997e-19)
(-0.0423395 0.052256 -2.70508e-19)
(-0.0412752 0.0496514 5.68344e-20)
(-0.0382533 0.0462496 -4.70259e-19)
(-0.033175 0.0425612 1.30851e-19)
(-0.0260151 0.0392126 2.31352e-19)
(-0.0168668 0.0370585 -9.2211e-20)
(-0.00569118 0.0375635 -1.19309e-19)
(0.00665166 0.0428496 -7.30194e-21)
(-0.00612392 0.0107053 -4.83359e-19)
(-0.0162379 0.0270938 -9.20294e-20)
(-0.0249892 0.0391916 -8.038e-19)
(-0.032025 0.0475401 5.56923e-19)
(-0.0371302 0.052656 1.26846e-20)
(-0.0401847 0.0550332 -8.9466e-20)
(-0.0410866 0.0551533 -6.08e-19)
(-0.0397353 0.0534756 3.50568e-19)
(-0.0360201 0.0504385 -7.95686e-20)
(-0.0298094 0.0464838 -2.09917e-19)
(-0.0209595 0.0421078 1.85188e-20)
(-0.00938753 0.0379394 -2.2729e-19)
(0.00489128 0.0349331 1.75566e-19)
(0.0221421 0.035021 -2.34341e-20)
(0.0412345 0.0413525 -1.73161e-19)
(-0.00706001 0.0110364 -3.31018e-19)
(-0.0183797 0.0277937 3.56939e-19)
(-0.027618 0.0400535 -3.39627e-20)
(-0.0344542 0.0484034 2.17109e-21)
(-0.0386976 0.0534062 1.01727e-19)
(-0.0402445 0.055594 -1.63358e-19)
(-0.0390038 0.0554759 7.75257e-20)
(-0.0348745 0.0535243 3.22252e-19)
(-0.0277312 0.050175 -5.57393e-19)
(-0.0174092 0.0458487 9.18967e-19)
(-0.00371144 0.0410016 -1.81923e-20)
(0.0135078 0.0362087 -6.35318e-19)
(0.0342818 0.0324116 -2.43364e-19)
(0.0591168 0.0319149 6.61041e-20)
(0.0871968 0.0393843 -3.67514e-19)
(-0.00798541 0.0112057 -2.76807e-20)
(-0.0203967 0.028017 7.35214e-19)
(-0.029906 0.0401603 -3.79532e-20)
(-0.0362186 0.0482855 2.0162e-19)
(-0.0391589 0.0530135 3.92144e-20)
(-0.0386267 0.0549268 4.33371e-20)
(-0.034525 0.0545712 4.65444e-20)
(-0.0267327 0.0524437 -2.98195e-19)
(-0.0150895 0.0489894 9.72913e-20)
(0.000616415 0.0446186 -7.05984e-19)
(0.0206407 0.0397481 -1.06589e-19)
(0.0451856 0.0348648 2.34441e-19)
(0.0742761 0.0307575 -4.0295e-19)
(0.108571 0.0298839 -3.35085e-19)
(0.148306 0.038935 2.28818e-19)
(-0.00887429 0.0112123 3.20888e-19)
(-0.0221839 0.0277526 -3.12501e-19)
(-0.0316403 0.0394928 -3.46293e-19)
(-0.0369704 0.0471621 4.45878e-22)
(-0.0380024 0.0514556 -4.15867e-20)
(-0.0346218 0.0530191 1.90383e-19)
(-0.0267024 0.0524501 -2.99293e-19)
(-0.014076 0.0502884 3.36895e-19)
(0.00347743 0.0470132 9.25006e-20)
(0.0262322 0.0430571 2.11518e-19)
(0.0544926 0.0388362 6.19874e-19)
(0.0884748 0.0347694 -7.30955e-19)
(0.128097 0.0314032 2.29518e-19)
(0.173972 0.031117 -3.06812e-19)
(0.227766 0.0432221 6.73421e-19)
(-0.00969496 0.011053 -3.22552e-20)
(-0.0236127 0.0269887 9.63867e-20)
(-0.0325617 0.0380379 3.09513e-19)
(-0.0362884 0.0450271 2.36213e-21)
(-0.0346136 0.0487399 -1.64667e-19)
(-0.0273874 0.0499005 1.7978e-19)
(-0.0144262 0.0491747 2.52229e-19)
(0.00451393 0.0471649 -3.1191e-19)
(0.0297366 0.0444145 6.92401e-20)
(0.0615823 0.0414261 -2.62364e-19)
(0.10037 0.038681 1.62417e-21)
(0.146217 0.0366144 2.04473e-19)
(0.198738 0.0356163 -4.67984e-19)
(0.258262 0.0382298 3.79096e-19)
(0.325447 0.0563765 -1.19303e-19)
(-0.0104066 0.0107231 1.78164e-19)
(-0.024522 0.0257153 8.36849e-20)
(-0.0323519 0.0357969 1.3568e-19)
(-0.0336654 0.0419064 -1.88093e-19)
(-0.0282644 0.0449298 3.94206e-19)
(-0.0159431 0.0456839 1.16468e-19)
(0.00356304 0.0449153 7.54344e-21)
(0.030594 0.0433054 -3.35215e-19)
(0.0655445 0.0414844 -4.16919e-19)
(0.108803 0.0400528 6.34e-20)
(0.160646 0.0396037 2.22018e-19)
(0.220997 0.0406835 3.41096e-19)
(0.289043 0.0437995 -7.62172e-19)
(0.365086 0.0528033 5.39126e-19)
(0.437851 0.0771898 -4.86342e-19)
(-0.0109539 0.0102149 -5.46311e-19)
(-0.0247081 0.0239261 -2.63077e-20)
(-0.030621 0.0327929 -2.30094e-19)
(-0.0284951 0.0378761 -3.09133e-19)
(-0.0181058 0.040175 3.03343e-19)
(0.000821362 0.0406094 -1.82083e-19)
(0.0286382 0.0400158 9.88953e-21)
(0.0657664 0.0391595 -6.57653e-20)
(0.112639 0.038752 1.41632e-19)
(0.169591 0.0394696 4.74014e-19)
(0.23671 0.0419735 -5.13509e-19)
(0.313617 0.0468909 8.11946e-19)
(0.3993 0.0549769 -5.57432e-19)
(0.495974 0.071984 4.56235e-19)
(0.566402 0.0884521 -1.07476e-20)
(-0.0112616 0.00951878 8.92584e-20)
(-0.023913 0.0216223 -1.16007e-19)
(-0.0268971 0.0290805 -1.79041e-19)
(-0.0200674 0.0330786 3.44791e-19)
(-0.00317583 0.0347339 -1.40186e-19)
(0.0241141 0.0350779 -1.19601e-19)
(0.0622094 0.0350403 6.57681e-19)
(0.111531 0.0354626 2.2235e-20)
(0.17239 0.0371075 1.58815e-19)
(0.244805 0.0406566 4.13375e-20)
(0.328291 0.0466945 2.92545e-19)
(0.421649 0.055654 -4.29692e-19)
(0.522864 0.0677967 4.13088e-19)
(0.631352 0.0858445 -2.35499e-19)
(0.726953 0.0988885 -3.1316e-20)
(-0.0112296 0.00862402 4.32651e-19)
(-0.0218181 0.0188183 4.5721e-19)
(-0.0206244 0.0247552 1.91176e-20)
(-0.00757999 0.0277323 -2.72526e-19)
(0.0175655 0.0289841 2.5807e-19)
(0.0551686 0.0296568 -4.94108e-19)
(0.105596 0.0307689 -4.40694e-19)
(0.169088 0.0332147 1.76759e-19)
(0.24554 0.0377539 -1.56077e-19)
(0.334237 0.0449734 -4.21825e-19)
(0.4336 0.0552282 -3.81066e-19)
(0.541012 0.0685342 -4.80094e-19)
(0.653064 0.0846965 6.15758e-19)
(0.76539 0.103264 -2.95612e-19)
(0.870822 0.120468 6.45377e-19)
(-0.0107301 0.00752344 -1.21076e-19)
(-0.0180446 0.0155525 1.56946e-19)
(-0.0111759 0.0199646 -3.33136e-19)
(0.00982619 0.0221408 3.94225e-20)
(0.0451633 0.0234207 -1.36479e-20)
(0.0951127 0.0250573 -1.56395e-19)
(0.159815 0.028133 -2.68883e-19)
(0.239028 0.0335389 -2.1846e-19)
(0.331803 0.0419304 8.2263e-21)
(0.436177 0.0536466 4.85033e-19)
(0.548968 0.068625 5.75554e-19)
(0.665796 0.0862765 -2.60665e-19)
(0.781733 0.10588 -6.50869e-19)
(0.890435 0.125075 1.67639e-19)
(0.990286 0.144278 5.52083e-19)
(-0.0096086 0.00622021 4.98073e-20)
(-0.012164 0.0119015 -2.79115e-19)
(0.00211708 0.014924 9.18329e-20)
(0.0330065 0.0167025 -1.58053e-19)
(0.0805589 0.0186521 -1.29001e-19)
(0.144791 0.0221013 8.21289e-20)
(0.225319 0.0281341 9.65714e-21)
(0.320985 0.0375279 5.01528e-19)
(0.429483 0.050666 -3.90006e-19)
(0.547104 0.0674304 -5.65868e-20)
(0.668784 0.0871366 -8.83683e-20)
(0.788515 0.108491 -4.60325e-20)
(0.900385 0.130176 7.16232e-20)
(0.998068 0.149126 6.41879e-19)
(1.083 0.167612 -5.54096e-19)
(-0.00768992 0.00473637 3.3916e-19)
(-0.00371892 0.00799779 -3.20118e-19)
(0.0199199 0.00993471 9.41391e-20)
(0.0627318 0.0119214 7.07356e-19)
(0.124458 0.0153917 2.1049e-20)
(0.204573 0.0216796 -9.20502e-20)
(0.301746 0.0317515 -3.97974e-19)
(0.413389 0.0460898 2.84223e-19)
(0.535339 0.0645754 -2.21026e-19)
(0.661874 0.0864043 2.78428e-19)
(0.786225 0.110131 -2.91569e-19)
(0.901513 0.133817 4.72888e-20)
(1.00203 0.155721 4.20981e-20)
(1.08337 0.173069 1.62747e-19)
(1.14799 0.188513 1.54614e-19)
(-0.00478671 0.00312105 -2.54518e-20)
(0.00774679 0.00404653 3.48624e-19)
(0.0428371 0.00539973 -1.43626e-19)
(0.0995925 0.00841119 -1.47725e-19)
(0.177192 0.0144377 1.44174e-19)
(0.274173 0.0246922 1.14125e-19)
(0.38775 0.0398332 -1.88027e-19)
(0.5134 0.0597989 3.23129e-19)
(0.644816 0.0837142 -6.69071e-20)
(0.774441 0.109927 -3.46444e-20)
(0.894573 0.136263 2.57803e-19)
(0.998724 0.160413 3.64231e-20)
(1.08284 0.180653 -4.02534e-19)
(1.14534 0.195018 1.20264e-19)
(1.19014 0.206299 -1.02176e-19)
(-0.000711408 0.00145687 -1.23712e-20)
(0.0226506 0.000336404 6.25094e-20)
(0.0713446 0.00182922 -6.54218e-20)
(0.143897 0.00688325 2.84466e-19)
(0.238584 0.01663 4.88384e-20)
(0.352523 0.031965 -7.42707e-20)
(0.480965 0.0529764 1.58101e-19)
(0.61712 0.0787785 -5.69557e-19)
(0.752662 0.107546 1.73829e-20)
(0.878944 0.13679 2.00854e-19)
(0.988595 0.163874 3.57236e-19)
(1.0769 0.186571 -3.33734e-19)
(1.14246 0.203672 6.11476e-20)
(1.18673 0.21425 -6.61817e-20)
(1.21466 0.22128 -2.82902e-19)
(0.00471021 -0.000136661 -1.218e-19)
(0.0413289 -0.00275805 -4.46008e-19)
(0.105718 -0.000169377 3.56535e-19)
(0.195575 0.00811299 1.00371e-19)
(0.307853 0.0227827 -4.01115e-19)
(0.437747 0.0441481 -4.16854e-19)
(0.578159 0.0714231 3.18199e-19)
(0.720065 0.102661 -1.27711e-19)
(0.853781 0.135055 2.8288e-19)
(0.970791 0.165528 -3.32792e-19)
(1.06544 0.191444 -4.85377e-19)
(1.13576 0.211148 3.80876e-19)
(1.18329 0.224274 -4.25167e-20)
(1.21185 0.230882 -6.16668e-20)
(1.22707 0.234197 -1.66378e-19)
(0.011623 -0.00150269 5.57319e-20)
(0.0639916 -0.00478469 1.75204e-20)
(0.145962 8.0956e-05 -3.27342e-20)
(0.254102 0.0128831 -2.29504e-19)
(0.383582 0.0335966 3.56677e-19)
(0.527252 0.0616195 1.91237e-19)
(0.675576 0.0950076 2.00682e-19)
(0.817819 0.130659 2.24659e-19)
(0.944071 0.164986 -2.6888e-20)
(1.04732 0.194778 1.3987e-19)
(1.12467 0.217918 3.54315e-20)
(1.17722 0.233671 -7.57475e-21)
(1.20896 0.242588 -8.12158e-21)
(1.22516 0.245511 2.36353e-19)
(1.23141 0.245839 2.02858e-19)
(0.0201254 -0.00245136 1.36214e-19)
(0.0906788 -0.00523461 -1.50473e-19)
(0.191758 0.00328188 -1.36267e-19)
(0.318465 0.0219107 -1.65505e-20)
(0.46377 0.0495706 -3.70002e-19)
(0.617966 0.0844213 2.08366e-19)
(0.76942 0.123185 -9.5167e-20)
(0.906669 0.161729 9.13541e-20)
(1.02094 0.196112 9.24083e-20)
(1.10785 0.223529 -3.72403e-19)
(1.16769 0.242784 1.96812e-19)
(1.20427 0.254189 -1.42469e-19)
(1.22321 0.259076 -3.85804e-20)
(1.23029 0.258811 -2.44548e-20)
(1.23058 0.256823 1.31086e-19)
(0.0302529 -0.00276742 8.61838e-20)
(0.121225 -0.00357221 -2.22214e-19)
(0.242434 0.0101031 -5.54609e-20)
(0.387187 0.0357708 2.18717e-19)
(0.545977 0.0709341 -1.28589e-19)
(0.706674 0.112254 -1.26301e-20)
(0.856325 0.155138 4.82896e-20)
(0.984029 0.194782 -4.66163e-20)
(1.08336 0.22744 3.19071e-20)
(1.1532 0.251189 4.48576e-19)
(1.19683 0.265961 -3.52561e-19)
(1.22004 0.273033 1.18097e-19)
(1.22921 0.27428 1.11814e-19)
(1.2299 0.271355 -1.24233e-20)
(1.22638 0.267554 -1.65682e-19)
(0.0419637 -0.00222198 1.12302e-19)
(0.155238 0.00072617 -4.05043e-20)
(0.296964 0.0211208 9.16238e-20)
(0.458408 0.0548297 -1.39696e-20)
(0.62755 0.0976157 5.86693e-20)
(0.790364 0.144532 -5.30073e-20)
(0.933712 0.18992 -5.97483e-20)
(1.04854 0.22884 -9.94473e-20)
(1.13161 0.258288 1.37655e-19)
(1.18508 0.277528 -1.1181e-19)
(1.21466 0.287625 -1.42458e-20)
(1.22727 0.290619 -3.03075e-20)
(1.22931 0.288668 8.60831e-20)
(1.22574 0.283541 7.37864e-20)
(1.21987 0.278245 -9.76271e-20)
(0.0551289 -0.000587614 9.42598e-20)
(0.192096 0.0081292 -1.57682e-19)
(0.354019 0.0367595 1.83794e-19)
(0.530028 0.0792009 -1.90951e-20)
(0.705869 0.129256 -5.01877e-20)
(0.866519 0.180472 -4.58165e-21)
(0.999929 0.226589 -2.61725e-21)
(1.09993 0.263127 8.37513e-22)
(1.16676 0.288256 1.06387e-20)
(1.20552 0.302544 -1.96264e-20)
(1.22353 0.308049 1.14512e-19)
(1.22811 0.307318 -6.09399e-20)
(1.22517 0.302578 -9.78562e-20)
(1.21885 0.295592 -7.873e-21)
(1.21161 0.28896 5.18072e-20)
(0.0695292 0.00234443 1.38741e-20)
(0.230964 0.0190077 4.63538e-20)
(0.412041 0.0572456 -2.42725e-20)
(0.599864 0.10873 1.9843e-20)
(0.778568 0.165256 2.72527e-20)
(0.933272 0.219196 -1.73267e-20)
(1.0542 0.264291 -3.05775e-20)
(1.13867 0.297075 4.61714e-21)
(1.19033 0.31715 -3.61557e-20)
(1.21649 0.326347 3.41246e-20)
(1.22538 0.327498 -1.951e-20)
(1.2241 0.323405 3.74746e-20)
(1.21783 0.316207 1.55035e-20)
(1.20985 0.307589 -1.71185e-20)
(1.20189 0.299668 -2.30772e-21)
(0.0848594 0.00674649 -6.08114e-20)
(0.270838 0.0335973 3.80337e-20)
(0.469345 0.0825787 5.1008e-20)
(0.665823 0.143006 -2.03313e-20)
(0.843699 0.204842 -1.50884e-21)
(0.98944 0.25981 -5.70818e-20)
(1.09644 0.302297 4.38964e-21)
(1.16573 0.33028 4.58013e-21)
(1.20386 0.344892 4.75929e-21)
(1.2197 0.349068 5.5954e-21)
(1.22167 0.346166 2.95357e-20)
(1.21631 0.339036 -1.52956e-20)
(1.20794 0.329627 2.63765e-20)
(1.19904 0.319504 -6.72569e-21)
(1.19079 0.31027 -3.05641e-20)
(0.10074 0.0127383 -1.56288e-20)
(0.310596 0.0519701 9.61759e-20)
(0.524231 0.112523 -1.33833e-19)
(0.726035 0.181401 5.14064e-20)
(0.899806 0.247134 -3.62202e-20)
(1.03445 0.301457 1.5767e-20)
(1.12707 0.339996 2.7066e-20)
(1.18225 0.362452 3.53116e-20)
(1.20883 0.371446 -7.89105e-20)
(1.21651 0.370799 8.22934e-20)
(1.21346 0.364158 -6.69271e-20)
(1.20541 0.354259 -2.31884e-20)
(1.19583 0.342809 3.64176e-20)
(1.18655 0.331236 -3.08316e-20)
(1.17835 0.32064 4.13795e-20)
(0.116737 0.0203737 -9.10202e-20)
(0.349068 0.0740198 1.29312e-20)
(0.57509 0.146617 -4.86538e-20)
(0.778952 0.223112 -4.71972e-20)
(0.945927 0.291198 8.95093e-20)
(1.06821 0.343334 1.55229e-19)
(1.14682 0.37687 -9.77637e-20)
(1.18942 0.393361 -1.01776e-19)
(1.2065 0.396771 1.2821e-19)
(1.208 0.391568 -2.49398e-20)
(1.20148 0.381482 -8.25275e-20)
(1.19181 0.369026 7.80169e-20)
(1.18171 0.355648 4.23492e-20)
(1.17243 0.342632 -8.94573e-20)
(1.16453 0.330644 2.97218e-20)
(0.132382 0.0296321 -1.67712e-19)
(0.385098 0.0994598 3.11593e-20)
(0.620492 0.184203 2.34267e-19)
(0.823389 0.267213 8.43418e-20)
(0.981553 0.336093 4.90951e-20)
(1.09101 0.384702 -9.767e-20)
(1.15653 0.412467 1.06079e-19)
(1.18834 0.422794 1.85558e-19)
(1.19791 0.420789 4.71823e-20)
(1.19495 0.411331 -9.62046e-20)
(1.18623 0.398066 9.05215e-20)
(1.17577 0.38322 3.68074e-20)
(1.16563 0.36798 -6.82066e-20)
(1.15666 0.353514 7.74287e-20)
(1.14924 0.340158 1.20983e-20)
(0.147198 0.0404146 -1.29121e-19)
(0.417612 0.127834 5.47409e-20)
(0.659245 0.224461 1.19894e-20)
(0.858539 0.312703 -2.84991e-19)
(1.00655 0.380889 2.69729e-19)
(1.10335 0.424875 -4.46617e-19)
(1.15713 0.446371 4.73353e-20)
(1.18002 0.450532 1.33585e-19)
(1.1839 0.443375 -2.14213e-19)
(1.17795 0.429977 5.45796e-20)
(1.16806 0.413778 -1.43636e-19)
(1.15745 0.396681 1.1723e-19)
(1.14765 0.379632 -1.01815e-19)
(1.13916 0.363709 -2.95396e-23)
(1.1323 0.349055 -5.43269e-20)
(0.160727 0.0525458 -5.8091e-20)
(0.445664 0.158538 6.88367e-20)
(0.690436 0.26645 2.44234e-20)
(0.88395 0.358545 2.59946e-19)
(1.02109 0.424693 -1.69729e-19)
(1.10592 0.463216 6.25088e-19)
(1.14952 0.478185 -1.93407e-19)
(1.16532 0.476332 -1.78273e-19)
(1.16516 0.464348 2.97337e-19)
(1.15746 0.447329 -4.01435e-20)
(1.14723 0.428433 1.54432e-19)
(1.13699 0.409234 -1.14243e-19)
(1.12783 0.390475 1.436e-19)
(1.11993 0.373147 -8.05474e-21)
(1.11357 0.357173 -2.18703e-20)
(0.172546 0.0657789 -2.1272e-19)
(0.468478 0.19085 4.51618e-19)
(0.713437 0.309157 -3.11067e-19)
(0.899483 0.403702 -5.33822e-20)
(1.02557 0.466651 -3.47234e-20)
(1.09947 0.499127 -2.27887e-19)
(1.13456 0.507518 -2.63683e-19)
(1.145 0.49992 -1.95863e-20)
(1.14224 0.483471 -2.67483e-19)
(1.13385 0.46315 -1.09276e-19)
(1.12397 0.441784 3.30417e-19)
(1.11456 0.420649 -2.94844e-19)
(1.10632 0.400368 3.85908e-20)
(1.09919 0.381867 6.29915e-20)
(1.09359 0.364459 3.08953e-20)
(0.182291 0.0798062 1.3095e-19)
(0.48547 0.223958 -2.60861e-21)
(0.727908 0.351529 -3.23949e-19)
(0.905272 0.447162 2.07917e-19)
(1.02057 0.505965 4.06793e-19)
(1.08479 0.532043 -1.57974e-19)
(1.11305 0.533981 -1.51483e-20)
(1.11972 0.520995 2.23347e-19)
(1.11562 0.500471 4.92692e-20)
(1.10741 0.477159 -1.41622e-19)
(1.09848 0.453538 -1.32361e-19)
(1.09029 0.430619 4.91712e-20)
(1.08326 0.408954 -5.43498e-20)
(1.07718 0.389406 -6.97787e-20)
(1.07291 0.370637 6.15575e-20)
(0.189669 0.094271 -3.11651e-19)
(0.496261 0.257 -1.54796e-19)
(0.733767 0.392518 2.61381e-19)
(0.901673 0.487964 -5.0739e-19)
(1.00677 0.54189 8.49378e-20)
(1.06273 0.56144 1.69376e-19)
(1.08575 0.557192 1.53823e-19)
(1.09009 0.539242 -6.59196e-20)
(1.08572 0.515047 -1.03194e-19)
(1.07843 0.489052 3.42585e-19)
(1.07095 0.463393 -5.82414e-20)
(1.06433 0.438866 4.17092e-20)
(1.05877 0.415936 -3.02554e-20)
(1.05406 0.395327 -3.16885e-20)
(1.05142 0.375364 1.4062e-20)
(0.19447 0.108785 9.63569e-20)
(0.500672 0.289102 2.84175e-19)
(0.731172 0.431114 2.70745e-19)
(0.889234 0.525208 -3.16144e-19)
(0.984986 0.573746 -2.88087e-21)
(1.03409 0.586832 2.65677e-19)
(1.05338 0.576783 1.04977e-19)
(1.05663 0.554338 -1.98507e-19)
(1.0529 0.526882 4.31208e-20)
(1.04716 0.498514 -7.39721e-20)
(1.04156 0.471044 -6.52257e-20)
(1.03685 0.44508 6.67631e-20)
(1.03303 0.421007 2.72435e-20)
(1.02994 0.399411 1.42385e-20)
(1.02906 0.378474 -2.57504e-21)
(0.196574 0.122949 3.88837e-19)
(0.498721 0.319408 -4.16815e-19)
(0.720504 0.466371 -2.75273e-19)
(0.868675 0.558081 2.60461e-19)
(0.956048 0.600923 7.87923e-20)
(0.999653 0.60777 -6.64173e-20)
(1.01659 0.592397 5.55537e-20)
(1.01985 0.56596 -1.0986e-19)
(1.01755 0.535667 2.28998e-19)
(1.01388 0.50524 -1.65271e-19)
(1.01054 0.476193 2.1633e-20)
(1.00801 0.448979 -1.96042e-20)
(1.00619 0.42389 -4.96596e-20)
(1.00497 0.40138 3.52579e-20)
(1.0061 0.379709 1.78701e-20)
(0.195954 0.136378 -1.25283e-19)
(0.490615 0.347106 -3.6598e-19)
(0.702358 0.497426 3.39531e-20)
(0.840829 0.5859 4.87866e-20)
(0.9207 0.622876 -1.65699e-19)
(0.960211 0.623866 -4.22217e-21)
(0.976082 0.603683 2.19979e-21)
(0.980281 0.573797 3.6565e-20)
(0.980028 0.541101 -4.83117e-20)
(0.978857 0.508938 -1.21839e-20)
(0.978106 0.478564 2.29069e-20)
(0.978041 0.45031 -5.71225e-20)
(0.978471 0.424348 -1.16982e-20)
(0.979471 0.40096 -2.68439e-21)
(0.983028 0.378719 7.88112e-21)
(0.192648 0.148695 -2.45423e-19)
(0.47673 0.371418 2.46012e-19)
(0.67743 0.52345 2.13866e-19)
(0.806362 0.608102 -1.4851e-19)
(0.879907 0.639273 -1.46663e-19)
(0.91671 0.63471 5.83346e-20)
(0.932518 0.610359 6.55133e-20)
(0.938392 0.577587 -2.78165e-20)
(0.940687 0.542914 2.34056e-21)
(0.942364 0.509324 8.46563e-20)
(0.944464 0.477863 7.69607e-21)
(0.947104 0.448779 -6.96307e-20)
(0.950122 0.422091 6.54426e-20)
(0.953888 0.397848 -6.03088e-20)
(0.960324 0.37519 6.88981e-20)
(0.186726 0.159481 -2.47486e-21)
(0.457566 0.391695 -3.20353e-19)
(0.646359 0.543878 1.90155e-19)
(0.7663 0.624065 -7.57667e-20)
(0.834789 0.649616 5.23072e-20)
(0.869889 0.640141 3.46787e-20)
(0.886506 0.612241 3.31583e-20)
(0.894659 0.577126 -1.87154e-19)
(0.899872 0.54089 1.11084e-19)
(0.904619 0.506158 -5.31689e-20)
(0.909715 0.473789 1.11043e-20)
(0.915216 0.443957 -1.52028e-19)
(0.921169 0.416514 2.41468e-19)
(0.92832 0.391395 -3.73089e-20)
(0.937791 0.368873 9.74698e-20)
(0.17844 0.168278 -2.5781e-20)
(0.433729 0.407276 1.11166e-19)
(0.610108 0.558134 -9.87074e-20)
(0.721797 0.633464 1.46493e-20)
(0.78616 0.653689 3.0727e-20)
(0.82053 0.639942 -9.07672e-20)
(0.83869 0.609171 -2.63236e-20)
(0.849579 0.572293 -6.05271e-20)
(0.857951 0.534945 -1.38272e-20)
(0.865854 0.499391 2.01428e-19)
(0.873912 0.466283 -2.63206e-20)
(0.882209 0.435634 1.75457e-19)
(0.89118 0.406965 -4.41666e-19)
(0.901877 0.380092 3.3198e-19)
(0.913752 0.357934 -1.79982e-19)
(0.168119 0.174861 2.35176e-20)
(0.405928 0.417668 1.72159e-20)
(0.56969 0.565827 1.57835e-20)
(0.673797 0.636007 -4.68071e-20)
(0.734969 0.651314 9.47972e-20)
(0.769444 0.633991 1.45679e-20)
(0.789735 0.601061 1.24486e-20)
(0.803704 0.563038 1.60208e-19)
(0.81539 0.525103 -1.16979e-19)
(0.82645 0.489195 9.12879e-20)
(0.83733 0.455772 -1.20519e-19)
(0.848165 0.424648 5.54786e-19)
(0.859796 0.39481 -4.03015e-19)
(0.87352 0.364514 3.41312e-19)
(0.884847 0.335794 -8.45876e-21)
(0.15605 0.179063 3.00717e-21)
(0.374932 0.422592 -5.15145e-20)
(0.526111 0.566662 3.64277e-20)
(0.623336 0.631523 4.50887e-20)
(0.682161 0.6424 -4.48521e-20)
(0.717438 0.622225 1.95641e-19)
(0.740323 0.587851 -5.68005e-21)
(0.757627 0.549306 4.74359e-20)
(0.772746 0.511327 -1.4627e-19)
(0.787 0.475599 5.94972e-20)
(0.80071 0.44248 2.51298e-19)
(0.814056 0.41179 1.19526e-19)
(0.827797 0.382836 -5.49916e-19)
(0.842059 0.354943 2.16225e-19)
(0.851473 0.330123 -4.07218e-19)
(0.142565 0.18068 2.05935e-19)
(0.341574 0.421817 2.44355e-19)
(0.480395 0.560489 -1.63077e-19)
(0.571441 0.619951 2.07957e-19)
(0.628662 0.62694 2.00328e-19)
(0.665307 0.604649 -1.80378e-19)
(0.691124 0.569536 1.8681e-19)
(0.711929 0.531067 -2.00877e-19)
(0.730555 0.493535 -1.50923e-19)
(0.748075 0.458372 -7.31746e-19)
(0.764769 0.425806 2.51208e-19)
(0.780861 0.395558 -4.7077e-19)
(0.796907 0.366931 6.11953e-19)
(0.812446 0.339533 -4.27747e-20)
(0.822887 0.315714 2.30401e-19)
(0.128053 0.179588 -1.99516e-19)
(0.306703 0.415222 -1.206e-19)
(0.433562 0.547281 -2.60857e-19)
(0.519121 0.601338 -1.76583e-19)
(0.575377 0.605009 2.46824e-19)
(0.613822 0.581338 -1.47681e-19)
(0.642793 0.546183 -2.61114e-19)
(0.667171 0.508389 -2.45451e-19)
(0.689289 0.47183 8.4022e-19)
(0.710023 0.437728 1.42024e-19)
(0.729624 0.406242 6.46127e-19)
(0.748328 0.377115 -6.20537e-19)
(0.766556 0.3498 -7.337e-19)
(0.7837 0.324104 -7.02208e-20)
(0.796018 0.3019 4.04764e-19)
(0.112919 0.175728 -2.71044e-19)
(0.271169 0.402795 1.11172e-20)
(0.386612 0.527124 -2.57707e-19)
(0.467352 0.575827 1.45605e-19)
(0.523173 0.576763 1.83113e-19)
(0.563731 0.552427 -2.07339e-19)
(0.59598 0.51789 -2.83718e-19)
(0.62394 0.48133 6.01625e-19)
(0.649518 0.446204 -9.23933e-19)
(0.673437 0.413546 -8.05112e-20)
(0.695927 0.383443 -9.54399e-20)
(0.717226 0.355638 -4.40447e-19)
(0.737688 0.329681 7.32117e-19)
(0.756713 0.305537 -6.94907e-19)
(0.771197 0.284815 4.07858e-19)
(0.0975735 0.169101 -2.00671e-19)
(0.235804 0.38464 6.24433e-19)
(0.340511 0.500216 1.04809e-19)
(0.417062 0.54366 4.72162e-19)
(0.472873 0.542441 -6.6023e-19)
(0.515739 0.518129 2.09501e-19)
(0.551285 0.484839 9.08387e-20)
(0.58275 0.450044 3.76814e-19)
(0.611677 0.416808 -2.87516e-19)
(0.638668 0.385999 8.55497e-19)
(0.663951 0.357662 5.86563e-20)
(0.687773 0.331555 4.62145e-19)
(0.710454 0.307308 4.28998e-20)
(0.731434 0.284913 -1.12747e-19)
(0.748144 0.265633 -6.96119e-19)
(0.0824178 0.159767 -4.79853e-19)
(0.201412 0.360962 6.99192e-19)
(0.296174 0.466858 -5.98578e-19)
(0.369127 0.50517 6.56571e-19)
(0.425251 0.502358 2.15359e-19)
(0.470512 0.478717 5.52914e-19)
(0.509289 0.44726 8.797e-20)
(0.544117 0.414722 -1.72024e-19)
(0.576232 0.383789 2.08608e-19)
(0.606143 0.355181 -5.68816e-19)
(0.63408 0.32891 -1.02313e-19)
(0.660304 0.304754 -3.71058e-19)
(0.685117 0.282406 -2.18362e-19)
(0.708026 0.261866 5.26336e-19)
(0.726936 0.244107 -1.69123e-19)
(0.0678398 0.147845 -1.24182e-20)
(0.168752 0.332063 9.23802e-20)
(0.254458 0.42745 4.06732e-19)
(0.324358 0.460773 -9.82969e-19)
(0.38102 0.456902 -3.63097e-19)
(0.428665 0.434536 -1.02214e-19)
(0.470523 0.405448 2.43258e-19)
(0.508508 0.375621 -1.93771e-19)
(0.543595 0.347374 -6.01979e-19)
(0.576227 0.321303 2.96062e-20)
(0.60664 0.297395 3.0858e-19)
(0.635105 0.275451 3.95269e-19)
(0.661909 0.255211 8.74876e-20)
(0.686645 0.236657 -1.1218e-19)
(0.707662 0.220517 -4.96415e-19)
(0.0542045 0.133504 -1.79305e-19)
(0.138527 0.298336 -6.75074e-19)
(0.216147 0.382481 5.42966e-19)
(0.283493 0.410968 1.55284e-19)
(0.340832 0.406533 -1.67531e-19)
(0.390761 0.385987 -2.16012e-19)
(0.435476 0.359756 5.18554e-19)
(0.476352 0.333046 1.73485e-19)
(0.514149 0.307832 -1.88028e-19)
(0.549258 0.284596 6.91212e-19)
(0.581926 0.263311 -5.43918e-19)
(0.612429 0.243804 6.26939e-19)
(0.641042 0.225856 -5.14357e-19)
(0.667463 0.209425 2.80313e-19)
(0.690445 0.195039 -3.16301e-19)
(0.0418469 0.116962 -2.33448e-19)
(0.111372 0.260252 3.53343e-19)
(0.181945 0.332522 -6.69339e-19)
(0.247194 0.356324 1.84393e-19)
(0.305267 0.351771 -2.08908e-19)
(0.357302 0.333531 7.71875e-20)
(0.404586 0.310586 -1.06527e-19)
(0.448036 0.287355 3.70502e-21)
(0.488238 0.265481 -3.88726e-19)
(0.525543 0.245348 2.52515e-19)
(0.560209 0.226922 6.66223e-20)
(0.592513 0.210056 -1.9414e-20)
(0.622724 0.194565 -2.56482e-19)
(0.650652 0.180392 2.95558e-20)
(0.675411 0.167904 3.75911e-20)
(0.0310663 0.0984807 2.21585e-19)
(0.0878506 0.218357 -2.44967e-19)
(0.152471 0.278217 4.09526e-19)
(0.216039 0.297474 -3.3256e-19)
(0.274834 0.293194 -3.5971e-19)
(0.328728 0.277681 6.07351e-19)
(0.378238 0.258392 -4.02098e-19)
(0.423902 0.23895 -4.00967e-20)
(0.466164 0.22068 -2.10247e-19)
(0.505351 0.203882 3.47137e-19)
(0.541727 0.188518 6.16613e-20)
(0.57557 0.174469 -1.17123e-20)
(0.607144 0.161584 1.5566e-19)
(0.636372 0.149793 -4.63864e-20)
(0.66268 0.139345 2.94517e-19)
(0.0221203 0.0783592 -3.11933e-20)
(0.0684415 0.173257 -1.83442e-19)
(0.128248 0.220268 2.44639e-19)
(0.190517 0.235105 5.1359e-20)
(0.249962 0.231426 -7.38548e-20)
(0.305412 0.21899 2.40217e-19)
(0.356758 0.203664 6.98057e-20)
(0.404237 0.18827 -7.45258e-19)
(0.448186 0.173827 4.35683e-19)
(0.488911 0.160556 -4.95809e-20)
(0.526685 0.148425 -6.74437e-19)
(0.561784 0.13734 2.2252e-19)
(0.594467 0.127185 2.22081e-19)
(0.624765 0.117888 1.91441e-19)
(0.652358 0.109611 -1.88473e-19)
(0.0152206 0.0569282 5.63928e-22)
(0.0535359 0.12561 1.20913e-19)
(0.109703 0.159432 -2.07934e-20)
(0.171024 0.169953 -1.81169e-19)
(0.231 0.167135 -3.88545e-20)
(0.287656 0.158052 1.8592e-19)
(0.340412 0.146931 1.39453e-19)
(0.389278 0.135788 4.13408e-20)
(0.434514 0.125345 -4.07072e-20)
(0.476413 0.115755 1.46852e-19)
(0.515252 0.106992 1.29682e-19)
(0.551306 0.0989887 2.17346e-19)
(0.584833 0.0916619 -8.4795e-20)
(0.61595 0.0849519 -3.90665e-19)
(0.644536 0.0789557 8.26547e-20)
(0.0105294 0.0345435 -8.76439e-20)
(0.0434316 0.0761137 -6.07814e-20)
(0.0971582 0.096504 1.24751e-19)
(0.157861 0.102785 -1.12667e-19)
(0.218211 0.101018 6.96617e-20)
(0.275691 0.095488 -8.32814e-21)
(0.329402 0.0887449 -6.92472e-20)
(0.379205 0.0820001 1.1224e-19)
(0.425309 0.0756836 1.80958e-20)
(0.468 0.0698848 -3.94268e-20)
(0.507558 0.0645874 7.35685e-20)
(0.544254 0.0597512 -2.68686e-19)
(0.578349 0.0553257 -2.44254e-20)
(0.610021 0.0512713 3.77535e-20)
(0.639281 0.0476389 -2.88314e-20)
(0.0081561 0.0115794 7.04526e-20)