# Probe 0 (2 -0.5 0)
# Probe 1 (2 0.5 0)
# Probe 2 (-0.087156 0.996195 0)
# Probe 3 (-0.087156 -0.996195 0)
# Probe 4 (4 -0.5 0)
# Probe 5 (4 0.5 0)
#       Probe             0             1             2             3             4             5
#        Time
         0.01       -8.1458       -8.1458       4.97911       4.97911       -2.8929       -2.8929
         0.02       0.42968       0.42968     -0.196943     -0.196946      0.158283      0.158283
         0.03     -0.200412     -0.200412     -0.119071     -0.119071    -0.0854772    -0.0854772
         0.04     -0.161483     -0.161483     -0.131621     -0.131622    -0.0662629    -0.0662629
         0.05     -0.134095     -0.134095     -0.139699     -0.139699    -0.0553502    -0.0553502
         0.06     -0.112962     -0.112962     -0.145935     -0.145935    -0.0469924    -0.0469924
         0.07    -0.0962732    -0.0962732      -0.15084      -0.15084    -0.0404655    -0.0404655
         0.08    -0.0828183    -0.0828183     -0.154752     -0.154751    -0.0353009    -0.0353009
         0.09    -0.0717712    -0.0717712     -0.157946     -0.157946    -0.0310872    -0.0310872
          0.1    -0.0625652    -0.0625653     -0.160605     -0.160605    -0.0275914    -0.0275914
         0.11    -0.0547918    -0.0547918      -0.16288      -0.16288     -0.024696     -0.024696
         0.12    -0.0481552    -0.0481552      -0.16485      -0.16485    -0.0222004    -0.0222004
         0.13    -0.0424311    -0.0424311     -0.166633     -0.166633    -0.0200787    -0.0200787
         0.14    -0.0374536    -0.0374536     -0.168194     -0.168194    -0.0181879    -0.0181879
         0.15    -0.0330868    -0.0330868     -0.169651     -0.169651    -0.0165252    -0.0165252
         0.16    -0.0292302    -0.0292302     -0.170966     -0.170966    -0.0150533    -0.0150533
         0.17    -0.0258014    -0.0258014     -0.172205     -0.172205    -0.0137422    -0.0137422
         0.18    -0.0227282    -0.0227282     -0.173526     -0.173526    -0.0125662    -0.0125663
         0.19    -0.0199661    -0.0199661     -0.174584     -0.174584     -0.011509     -0.011509
          0.2    -0.0174626    -0.0174626     -0.175533     -0.175533    -0.0105508    -0.0105508
         0.21    -0.0151924    -0.0151924     -0.176257     -0.176257   -0.00968535   -0.00968535
         0.22    -0.0131236    -0.0131236      -0.17679      -0.17679   -0.00890321   -0.00890321
         0.23    -0.0112221    -0.0112221      -0.17751      -0.17751   -0.00818584   -0.00818584
         0.24   -0.00948392   -0.00948393     -0.178199     -0.178199   -0.00752996   -0.00752996
         0.25   -0.00789547   -0.00789548     -0.178857     -0.178857   -0.00693088   -0.00693089
         0.26   -0.00644312   -0.00644311     -0.179481     -0.179481   -0.00638354   -0.00638353
         0.27   -0.00511391   -0.00511394     -0.180087     -0.180087     -0.005885   -0.00588502
         0.28   -0.00389354   -0.00389354     -0.180702     -0.180702   -0.00542727   -0.00542727
         0.29   -0.00277834   -0.00277834     -0.181252     -0.181252   -0.00500865   -0.00500865
          0.3   -0.00175407   -0.00175408     -0.181809     -0.181809   -0.00462511   -0.00462511
         0.31  -0.000812137  -0.000812145     -0.182371     -0.182371   -0.00427376   -0.00427376
         0.32   5.16327e-05   5.16268e-05     -0.182889     -0.182889   -0.00395322   -0.00395322
         0.33   0.000846848    0.00084684     -0.183415     -0.183415   -0.00366316   -0.00366317
         0.34    0.00157846    0.00157844      -0.18393      -0.18393    -0.0033933   -0.00339331
         0.35    0.00225326    0.00225325     -0.184446     -0.184446   -0.00312878   -0.00312878
         0.36    0.00287408    0.00287408     -0.184949     -0.184949   -0.00290175   -0.00290174
         0.37    0.00344864    0.00344862     -0.185456     -0.185456   -0.00269168    -0.0026917
         0.38    0.00397987    0.00397987     -0.185956     -0.185956   -0.00249848   -0.00249848
         0.39    0.00447196    0.00447195     -0.186479     -0.186479   -0.00232053   -0.00232053
          0.4    0.00493414    0.00493413     -0.187132     -0.187132   -0.00215479   -0.00215479
         0.41    0.00535393    0.00535393      -0.18751      -0.18751   -0.00200542   -0.00200542
         0.42    0.00574745    0.00574745     -0.187917     -0.187917   -0.00186661   -0.00186662
         0.43    0.00611695    0.00611694     -0.188335     -0.188335   -0.00173742   -0.00173742
         0.44    0.00646367    0.00646366     -0.188749     -0.188749   -0.00161782   -0.00161782
         0.45    0.00679003    0.00679002     -0.189153     -0.189153   -0.00150669   -0.00150669
         0.46    0.00709801      0.007098     -0.189536     -0.189536   -0.00140327   -0.00140327
         0.47    0.00738891     0.0073889     -0.189879     -0.189879   -0.00130696   -0.00130696
         0.48    0.00766308    0.00766307     -0.190205     -0.190204   -0.00121766   -0.00121766
         0.49    0.00792619    0.00792618     -0.190503     -0.190503   -0.00113335   -0.00113335
          0.5    0.00817424    0.00817423      -0.19077      -0.19077   -0.00105522   -0.00105523
         0.51    0.00841308    0.00841308     -0.191011     -0.191011  -0.000981626  -0.000981627
         0.52    0.00864299    0.00864298     -0.191231     -0.191231  -0.000911844  -0.000911846
         0.53    0.00886289    0.00886289     -0.191428     -0.191428  -0.000846528  -0.000846529
         0.54     0.0090742    0.00907419     -0.191607     -0.191607  -0.000784725  -0.000784727
         0.55    0.00927902    0.00927901      -0.19177      -0.19177  -0.000725473  -0.000725475
         0.56    0.00947736    0.00947736     -0.191915     -0.191915  -0.000668675  -0.000668677
         0.57    0.00966968    0.00966967     -0.192042     -0.192042  -0.000612225  -0.000612228
         0.58    0.00985702    0.00985701     -0.192151     -0.192151  -0.000556586  -0.000556591
         0.59     0.0100391     0.0100391     -0.192229     -0.192229  -0.000518878  -0.000518878
          0.6     0.0102169     0.0102169     -0.192287     -0.192287  -0.000472017  -0.000472021
         0.61     0.0103887     0.0103887     -0.192326     -0.192326  -0.000430393  -0.000430393
         0.62     0.0105597     0.0105597     -0.192349     -0.192349   -0.00038658  -0.000386582
         0.63     0.0107247     0.0107247     -0.192344     -0.192344  -0.000344885  -0.000344886
         0.64     0.0108883     0.0108883      -0.19232      -0.19232  -0.000303777   -0.00030378
         0.65      0.011049      0.011049     -0.192274     -0.192274  -0.000263499    -0.0002635
         0.66     0.0112078     0.0112078     -0.192207     -0.192207  -0.000223979  -0.000223982
         0.67     0.0113601     0.0113601     -0.192104     -0.192104    -0.0001867  -0.000186702
         0.68     0.0115113     0.0115113     -0.191976     -0.191976  -0.000149397  -0.000149399
         0.69     0.0116576     0.0116576     -0.191944     -0.191944  -0.000113111  -0.000113113
          0.7     0.0117978     0.0117978     -0.191902     -0.191902  -7.86978e-05  -7.87003e-05
         0.71     0.0119412     0.0119412     -0.191798     -0.191798  -4.45522e-05  -4.45535e-05
         0.72     0.0120831     0.0120831     -0.191694     -0.191694   -1.0673e-05  -1.06752e-05
         0.73     0.0122081     0.0122081     -0.191811     -0.191811   1.94383e-05    1.9436e-05
         0.74     0.0123613     0.0123613     -0.191636     -0.191636   5.86516e-05   5.86485e-05
         0.75     0.0124961     0.0124961     -0.191502     -0.191502   9.44573e-05   9.44524e-05
         0.76     0.0126338     0.0126337     -0.191371     -0.191371   0.000127099   0.000127097
         0.77     0.0127688     0.0127688     -0.191252     -0.191252    0.00016019   0.000160186
         0.78     0.0129019     0.0129019     -0.191149     -0.191149   0.000191555   0.000191554
         0.79      0.013037      0.013037     -0.191083     -0.191083   0.000218075   0.000218075
          0.8     0.0131779     0.0131779     -0.191106     -0.191106   0.000253766   0.000253761
         0.81     0.0133012     0.0133012     -0.190979     -0.190979   0.000284121   0.000284122
         0.82     0.0134192     0.0134192     -0.190552     -0.190552    0.00031311   0.000313108
         0.83     0.0135344     0.0135344     -0.189937     -0.189937   0.000342171    0.00034217
         0.84     0.0136687     0.0136687     -0.189779     -0.189779   0.000376713    0.00037671
         0.85     0.0137919     0.0137918     -0.189626     -0.189626   0.000409154   0.000409153
         0.86     0.0139209     0.0139209     -0.189493     -0.189493   0.000443843    0.00044384
         0.87     0.0140477     0.0140477     -0.189361     -0.189361   0.000477602     0.0004776
         0.88     0.0141736     0.0141736     -0.189235     -0.189235   0.000512497   0.000512494
         0.89     0.0143016     0.0143015     -0.189123     -0.189123   0.000546067   0.000546066
          0.9     0.0144225     0.0144225     -0.189008     -0.189008   0.000576931   0.000576929
         0.91     0.0145479     0.0145479     -0.188914     -0.188914   0.000611737   0.000611735
         0.92     0.0146719     0.0146719     -0.188807     -0.188807   0.000647137   0.000647135
         0.93     0.0147951     0.0147951      -0.18872      -0.18872   0.000683912   0.000683896
         0.94     0.0149167     0.0149167     -0.188639     -0.188639   0.000718721   0.000718718
         0.95     0.0150404     0.0150404     -0.188561     -0.188561   0.000750177   0.000750178
         0.96     0.0151709     0.0151709     -0.188581     -0.188581   0.000785889   0.000785893
         0.97     0.0152883     0.0152883     -0.188539     -0.188539   0.000817811   0.000817805
         0.98     0.0154096     0.0154096     -0.188474     -0.188474   0.000853956   0.000853954
         0.99     0.0155287     0.0155287      -0.18842      -0.18842   0.000889071   0.000889068
            1     0.0156502     0.0156502     -0.188383     -0.188383   0.000923713   0.000923711
         1.01     0.0157768     0.0157767     -0.188383     -0.188383   0.000961611   0.000961608
         1.02     0.0158951     0.0158951      -0.18839      -0.18839   0.000997813   0.000997813
         1.03     0.0160223     0.0160223     -0.188513     -0.188513    0.00103798    0.00103798
         1.04     0.0161301     0.0161301     -0.188223     -0.188223     0.0010721     0.0010721
         1.05     0.0162417     0.0162416      -0.18791      -0.18791     0.0011079    0.00110789
         1.06     0.0163617     0.0163617     -0.187769     -0.187769    0.00114779    0.00114778
         1.07     0.0164852     0.0164852     -0.187709     -0.187709    0.00118717    0.00118716
         1.08     0.0166062     0.0166062     -0.187655     -0.187655    0.00122196    0.00122196
         1.09     0.0167317     0.0167316      -0.18761      -0.18761    0.00126258    0.00126258
          1.1     0.0168526     0.0168526     -0.187557     -0.187557    0.00130281    0.00130281
         1.11     0.0169827     0.0169827     -0.187509     -0.187509    0.00134708    0.00134708
         1.12     0.0170984     0.0170984     -0.187479     -0.187479    0.00138707    0.00138706
         1.13     0.0172158     0.0172158      -0.18747      -0.18747    0.00142485    0.00142485
         1.14      0.017339      0.017339     -0.187491     -0.187491    0.00146527    0.00146526
         1.15     0.0174559     0.0174559     -0.187427     -0.187427    0.00150547    0.00150546
         1.16     0.0175877     0.0175877     -0.187382     -0.187382    0.00155154    0.00155154
         1.17     0.0177123     0.0177123     -0.187333     -0.187333    0.00159555    0.00159555
         1.18     0.0178548     0.0178547     -0.187302     -0.187301     0.0016422     0.0016422
         1.19     0.0179659     0.0179659      -0.18723     -0.187229    0.00168152    0.00168151
          1.2     0.0180963     0.0180963     -0.187177     -0.187177    0.00172886    0.00172886
         1.21     0.0182332     0.0182332     -0.187127     -0.187127    0.00177789    0.00177789
         1.22     0.0183599     0.0183598     -0.187052     -0.187052    0.00182421     0.0018242
         1.23     0.0184941     0.0184941     -0.186969     -0.186969     0.0018736    0.00187359
         1.24     0.0186299     0.0186299     -0.186863     -0.186863    0.00192425    0.00192425
         1.25     0.0187596     0.0187596     -0.186908     -0.186908    0.00197376    0.00197376
         1.26     0.0188804     0.0188804     -0.187198     -0.187198     0.0020168     0.0020168
         1.27     0.0190214     0.0190214     -0.187222     -0.187222    0.00206833    0.00206832
         1.28     0.0191265     0.0191265     -0.187769     -0.187769    0.00211105    0.00211105
         1.29     0.0192637     0.0192637     -0.187727     -0.187727    0.00216451    0.00216451
          1.3     0.0194118     0.0194118     -0.187653     -0.187653    0.00222167    0.00222167
         1.31     0.0195399     0.0195398     -0.187577     -0.187577    0.00227231     0.0022723
         1.32     0.0196678     0.0196678     -0.187514     -0.187513     0.0023231     0.0023231
         1.33     0.0198085     0.0198085     -0.187476     -0.187476     0.0023787     0.0023787
         1.34     0.0199359     0.0199359      -0.18743      -0.18743    0.00243159    0.00243158
         1.35     0.0200719     0.0200719     -0.187403     -0.187402    0.00248818    0.00248817
         1.36     0.0202084     0.0202084     -0.187366     -0.187366    0.00254328    0.00254328
         1.37     0.0203451     0.0203451     -0.187339     -0.187339     0.0025994     0.0025994
         1.38     0.0204824     0.0204824     -0.187316     -0.187316    0.00265789    0.00265789
         1.39     0.0206202     0.0206202     -0.187296     -0.187296    0.00271686    0.00271686
          1.4     0.0207519     0.0207519     -0.187268     -0.187268    0.00277469    0.00277469
         1.41       0.02089       0.02089     -0.187248     -0.187248    0.00283516    0.00283516
         1.42     0.0210291     0.0210291     -0.187231     -0.187231     0.0028968     0.0028968
         1.43     0.0211824     0.0211824     -0.187229     -0.187229    0.00296394    0.00296394
         1.44     0.0212944     0.0212944      -0.18718      -0.18718    0.00301799    0.00301799
         1.45     0.0214408     0.0214408     -0.187175     -0.187175    0.00308143    0.00308143
         1.46     0.0215688     0.0215688     -0.187147     -0.187147    0.00314216    0.00314217
         1.47     0.0216994     0.0216994     -0.187123     -0.187123    0.00320512    0.00320512
         1.48     0.0218365     0.0218365     -0.187106     -0.187106    0.00327072    0.00327072
         1.49     0.0219744     0.0219744     -0.187091     -0.187091    0.00333695    0.00333695
          1.5     0.0221117     0.0221117     -0.187076     -0.187076    0.00340361    0.00340361
         1.51     0.0222502     0.0222502     -0.187067     -0.187067    0.00347128    0.00347128
         1.52     0.0223879     0.0223879     -0.187052     -0.187052    0.00353987    0.00353987
         1.53     0.0225244     0.0225244     -0.187033     -0.187033    0.00360906    0.00360905
         1.54     0.0226611     0.0226611     -0.187022     -0.187022     0.0036794     0.0036794
         1.55     0.0228021     0.0228021     -0.187018     -0.187018    0.00375105    0.00375105
         1.56     0.0229441     0.0229441     -0.187014     -0.187014    0.00382489    0.00382489
         1.57     0.0230842     0.0230842     -0.187013     -0.187013    0.00389853    0.00389853
         1.58     0.0232358     0.0232358     -0.187025     -0.187025     0.0039767    0.00397669
         1.59     0.0233629     0.0233629     -0.186999     -0.186999    0.00404883    0.00404882
          1.6     0.0235205     0.0235205     -0.186977     -0.186977    0.00413065    0.00413064
         1.61     0.0237202     0.0237202     -0.187019     -0.187019    0.00422566    0.00422566
         1.62     0.0239194     0.0239194     -0.187066     -0.187066    0.00432168    0.00432168
         1.63     0.0238736     0.0238736     -0.186867     -0.186867     0.0043479     0.0043479
         1.64     0.0240205     0.0240205     -0.186865     -0.186865     0.0044302     0.0044302
         1.65     0.0242351     0.0242351     -0.186849     -0.186849    0.00453369    0.00453369
         1.66     0.0242578     0.0242578     -0.186747     -0.186747    0.00458318    0.00458317
         1.67     0.0242384     0.0242384     -0.186598     -0.186598    0.00462183    0.00462182
         1.68     0.0243554     0.0243554     -0.186575     -0.186575    0.00470091    0.00470091
         1.69      0.024475      0.024475     -0.186557     -0.186557    0.00478181    0.00478181
          1.7     0.0245981     0.0245981     -0.186544     -0.186544    0.00486469    0.00486468
         1.71     0.0247238     0.0247237     -0.186536     -0.186535    0.00494945    0.00494945
         1.72     0.0248539     0.0248539     -0.186537     -0.186537    0.00503607    0.00503606
         1.73     0.0250195     0.0250195     -0.186572     -0.186572    0.00513477    0.00513477
         1.74     0.0251101     0.0251101     -0.186531     -0.186531    0.00521315    0.00521315
         1.75      0.025047      0.025047     -0.186343     -0.186343    0.00524863    0.00524862
         1.76     0.0251047     0.0251047      -0.18628      -0.18628    0.00531982    0.00531982
         1.77     0.0251915     0.0251915     -0.186249     -0.186249    0.00540083    0.00540083
         1.78     0.0252827     0.0252827     -0.186223     -0.186223     0.0054844    0.00548439
         1.79     0.0253763     0.0253763     -0.186202     -0.186202    0.00556998    0.00556997
          1.8     0.0254664     0.0254664     -0.186178     -0.186178    0.00565579    0.00565579
         1.81     0.0255572     0.0255572     -0.186157     -0.186157    0.00574316    0.00574316
         1.82     0.0256442     0.0256442     -0.186135     -0.186135    0.00583067    0.00583067
         1.83     0.0257208     0.0257208     -0.186103     -0.186103    0.00591626    0.00591626
         1.84     0.0258031     0.0258031      -0.18608      -0.18608    0.00600556    0.00600556
         1.85     0.0258843     0.0258843     -0.186059     -0.186059     0.0060956     0.0060956
         1.86     0.0259644     0.0259644     -0.186042     -0.186042     0.0061862    0.00618619
         1.87     0.0260484     0.0260484      -0.18603     -0.186029    0.00627997    0.00627997
         1.88     0.0261391      0.026139     -0.186026     -0.186026    0.00637692    0.00637692
         1.89     0.0261719     0.0261719     -0.185971     -0.185971    0.00645856    0.00645855
          1.9     0.0261614     0.0261614      -0.18587      -0.18587    0.00652951     0.0065295
         1.91     0.0260876     0.0260876     -0.185714     -0.185714    0.00658393    0.00658392
         1.92     0.0261242     0.0261242     -0.185675     -0.185675    0.00667145    0.00667145
         1.93     0.0261836     0.0261836     -0.185664     -0.185664    0.00676677    0.00676677
         1.94     0.0262139     0.0262139      -0.18566      -0.18566    0.00685513    0.00685512
         1.95      0.026255      0.026255     -0.185567     -0.185567    0.00694837    0.00694837
         1.96     0.0262944     0.0262944     -0.185533     -0.185533    0.00704309    0.00704309
         1.97     0.0263213     0.0263213      -0.18552      -0.18552    0.00713328    0.00713328
         1.98     0.0263491     0.0263491     -0.185492     -0.185492     0.0072267    0.00722669
         1.99     0.0263753     0.0263753     -0.185463     -0.185463    0.00732116    0.00732116
            2     0.0264064     0.0264064     -0.185442     -0.185442    0.00741853    0.00741853
         2.01     0.0264438     0.0264438     -0.185429     -0.185429     0.0075192     0.0075192
         2.02     0.0265284     0.0265284     -0.185462     -0.185462    0.00763451    0.00763451
         2.03     0.0264952     0.0264952     -0.185387     -0.185387    0.00771853    0.00771852
         2.04     0.0263687     0.0263687     -0.185231     -0.185231    0.00777765    0.00777765
         2.05     0.0263621      0.026362       -0.1852       -0.1852    0.00787157    0.00787157
         2.06     0.0263593     0.0263593      -0.18517     -0.185169    0.00796874    0.00796874
         2.07     0.0263522     0.0263522     -0.185137     -0.185137    0.00806644    0.00806644
         2.08     0.0263369     0.0263369     -0.185101     -0.185101    0.00816351    0.00816351
         2.09     0.0263225     0.0263225      -0.18507     -0.185069    0.00826211    0.00826211
          2.1     0.0263011      0.026301     -0.185037     -0.185037    0.00835979    0.00835979
         2.11     0.0262777     0.0262777     -0.185004     -0.185004    0.00845921    0.00845921
         2.12     0.0262505     0.0262505     -0.184972     -0.184972    0.00855911    0.00855911
         2.13     0.0262245     0.0262245     -0.184947     -0.184947    0.00866066    0.00866066
         2.14     0.0261754     0.0261754     -0.184905     -0.184905     0.0087565    0.00875649
         2.15     0.0261408     0.0261408     -0.184879     -0.184879    0.00885882    0.00885881
         2.16     0.0261094     0.0261094      -0.18486      -0.18486    0.00896359    0.00896359
         2.17     0.0260738     0.0260738     -0.184841      -0.18484    0.00906883    0.00906883
         2.18     0.0260186     0.0260186     -0.184795     -0.184795    0.00916984    0.00916984
         2.19     0.0259176     0.0259176     -0.184726     -0.184725    0.00925993    0.00925993
          2.2     0.0255912     0.0255912      -0.18444      -0.18444     0.0092888    0.00928879
         2.21     0.0254568     0.0254568     -0.184361     -0.184361    0.00937249    0.00937249
         2.22     0.0254052     0.0254052     -0.184354     -0.184354    0.00948218    0.00948218
         2.23     0.0254604     0.0254604     -0.184442     -0.184442    0.00962338    0.00962338
         2.24     0.0251848     0.0251848     -0.184248     -0.184248    0.00967301      0.009673
         2.25     0.0250812     0.0250812     -0.184207     -0.184207    0.00977287    0.00977287
         2.26     0.0249841     0.0249841     -0.184172     -0.184172    0.00987714    0.00987714
         2.27     0.0248803     0.0248802     -0.184141      -0.18414    0.00998025    0.00998024
         2.28      0.024768      0.024768     -0.184093     -0.184093      0.010083      0.010083
         2.29     0.0246463     0.0246463     -0.184061     -0.184061      0.010184      0.010184
          2.3     0.0245253     0.0245253     -0.184023     -0.184023     0.0102876     0.0102876
         2.31     0.0244036     0.0244035     -0.183988     -0.183988     0.0103927     0.0103927
         2.32     0.0242795     0.0242795     -0.183955     -0.183955     0.0104989     0.0104989
         2.33     0.0241873     0.0241873     -0.183955     -0.183955     0.0106158     0.0106158
         2.34     0.0240892     0.0240892     -0.183951     -0.183951     0.0107326     0.0107326
         2.35     0.0237344     0.0237343     -0.183736     -0.183736     0.0107797     0.0107797
         2.36     0.0235596     0.0235596     -0.183681      -0.18368     0.0108792     0.0108792
         2.37     0.0233983     0.0233983     -0.183644     -0.183644      0.010984      0.010984
         2.38     0.0232251      0.023225     -0.183601     -0.183601     0.0110873     0.0110873
         2.39     0.0230441     0.0230441     -0.183553     -0.183553     0.0111906     0.0111906
          2.4     0.0228611      0.022861      -0.18351      -0.18351      0.011295      0.011295
         2.41     0.0226718     0.0226718     -0.183467     -0.183467     0.0113994     0.0113994
         2.42     0.0224812     0.0224811      -0.18342      -0.18342     0.0115063     0.0115063
         2.43     0.0222735     0.0222735     -0.183379     -0.183379     0.0116081     0.0116081
         2.44     0.0220764     0.0220763     -0.183343     -0.183343     0.0117157     0.0117157
         2.45     0.0218704     0.0218704     -0.183305     -0.183305     0.0118228     0.0118228
         2.46     0.0216652     0.0216652     -0.183275     -0.183275     0.0119327     0.0119327
         2.47     0.0214678     0.0214677     -0.183265     -0.183265     0.0120464     0.0120463
         2.48     0.0212019     0.0212019     -0.183188     -0.183187     0.0121427     0.0121427
         2.49     0.0209083     0.0209082     -0.183074     -0.183074      0.012233      0.012233
          2.5     0.0205894     0.0205894     -0.182938     -0.182938     0.0123186     0.0123186
         2.51     0.0203992     0.0203992     -0.182929     -0.182929     0.0124418     0.0124418
         2.52     0.0201742     0.0201742     -0.182891     -0.182891     0.0125573     0.0125573
         2.53     0.0198002     0.0198002     -0.182726     -0.182726     0.0126338     0.0126337
         2.54     0.0194078     0.0194078     -0.182627     -0.182627     0.0127072     0.0127072
         2.55     0.0192179     0.0192178     -0.182761     -0.182761     0.0128391     0.0128391
         2.56     0.0188555     0.0188555     -0.182656     -0.182656     0.0129243     0.0129243
         2.57     0.0185713     0.0185713     -0.182618     -0.182618     0.0130328     0.0130328
         2.58     0.0182787     0.0182787     -0.182578     -0.182577     0.0131411     0.0131411
         2.59     0.0179666     0.0179665     -0.182798     -0.182798     0.0132461     0.0132461
          2.6     0.0176619     0.0176619     -0.182728     -0.182728     0.0133556     0.0133556
         2.61     0.0173519     0.0173518     -0.182639     -0.182639     0.0134658     0.0134658
         2.62     0.0170378     0.0170377     -0.182562     -0.182562     0.0135769     0.0135769
         2.63     0.0167154     0.0167153     -0.182491     -0.182491     0.0136877     0.0136877
         2.64     0.0163992     0.0163992     -0.182436     -0.182436     0.0138026     0.0138026
         2.65       0.01607       0.01607     -0.182391     -0.182391     0.0139143     0.0139143
         2.66     0.0157568     0.0157567     -0.182356     -0.182356      0.014033      0.014033
         2.67     0.0154714     0.0154714     -0.182348     -0.182348     0.0141615     0.0141615
         2.68     0.0149313     0.0149312     -0.182145     -0.182145     0.0142216     0.0142216
         2.69     0.0145531      0.014553      -0.18208      -0.18208     0.0143281     0.0143281
          2.7     0.0141899     0.0141898     -0.182033     -0.182033     0.0144414     0.0144414
         2.71     0.0138111      0.013811     -0.181975     -0.181975     0.0145523     0.0145523
         2.72     0.0134267     0.0134267     -0.181919     -0.181919     0.0146636     0.0146636
         2.73     0.0130323     0.0130323      -0.18186     -0.181859     0.0147742     0.0147742
         2.74      0.012644      0.012644     -0.181812     -0.181812     0.0148882     0.0148882
         2.75     0.0122413     0.0122413     -0.181756     -0.181756     0.0150001     0.0150001
         2.76     0.0118385     0.0118385     -0.181708     -0.181708      0.015114      0.015114
         2.77     0.0114286     0.0114285     -0.181656     -0.181656     0.0152281     0.0152281
         2.78     0.0110131     0.0110131     -0.181607     -0.181607     0.0153418     0.0153418
         2.79     0.0105968     0.0105967     -0.181562     -0.181562     0.0154575     0.0154575
          2.8     0.0101837     0.0101836     -0.181523     -0.181523      0.015576      0.015576
         2.81    0.00977729    0.00977723     -0.181495     -0.181495     0.0156986     0.0156985
         2.82     0.0092853    0.00928525     -0.181404     -0.181404     0.0157992     0.0157992
         2.83    0.00878686     0.0087868     -0.181308     -0.181307     0.0159002     0.0159002
         2.84    0.00823577    0.00823573     -0.181169     -0.181169     0.0159893     0.0159893
         2.85     0.0078149    0.00781485     -0.181152     -0.181152     0.0161154     0.0161154
         2.86    0.00739674    0.00739669     -0.181168     -0.181168     0.0162414     0.0162414
         2.87    0.00677072    0.00677066     -0.181002     -0.181002     0.0163151     0.0163151
         2.88    0.00616389    0.00616383      -0.18086      -0.18086     0.0163964     0.0163964
         2.89    0.00571029    0.00571024     -0.180839     -0.180839     0.0165215     0.0165215
          2.9    0.00513518    0.00513511     -0.180729     -0.180729     0.0166129     0.0166129
         2.91    0.00463533    0.00463526     -0.180677     -0.180677     0.0167286     0.0167286
         2.92    0.00407063    0.00407056     -0.180599     -0.180599      0.016827      0.016827
         2.93    0.00358479    0.00358471     -0.180565     -0.180565     0.0169493     0.0169493
         2.94    0.00304748    0.00304742     -0.180497     -0.180497     0.0170593     0.0170593
         2.95    0.00257728    0.00257721     -0.180475     -0.180475     0.0171885     0.0171885
         2.96    0.00203976    0.00203969     -0.180408     -0.180408     0.0173017     0.0173017
         2.97    0.00148796    0.00148789     -0.180346     -0.180346     0.0174128     0.0174128
         2.98   0.000919136   0.000919069     -0.180307     -0.180307     0.0175207     0.0175207
         2.99   0.000422773   0.000422693     -0.180285     -0.180285     0.0176496     0.0176496
            3  -8.66307e-05  -8.66904e-05     -0.180275     -0.180275     0.0177749     0.0177749
         3.01  -0.000603628  -0.000603695     -0.180223     -0.180223     0.0179023     0.0179023
         3.02   -0.00118743   -0.00118749     -0.180133     -0.180133     0.0180125     0.0180125
         3.03   -0.00191111   -0.00191119     -0.179946     -0.179946     0.0180843     0.0180843