/*--------------------------------*- C++ -*----------------------------------*\
  =========                 |
  \\      /  F ield         | OpenFOAM: The Open Source CFD Toolbox
   \\    /   O peration     | Website:  https://openfoam.org
    \\  /    A nd           | Version:  7
     \\/     M anipulation  |
\*---------------------------------------------------------------------------*/
FoamFile
{
    version     2.0;
    format      ascii;
    class       surfaceScalarField;
    location    "50";
    object      phi;
}
// * * * * * * * * * * * * * * * * * * * * * * * * * * * * * * * * * * * * * //

dimensions      [0 3 -1 0 0 0 0];

internalField   nonuniform List<scalar> 
2641
(
0.00707107
-5.49037e-05
0.00712491
-5.38346e-05
0.00717769
-5.27855e-05
0.00722945
-5.17562e-05
0.0072802
-5.07466e-05
0.00732995
-4.97564e-05
0.00737874
-4.87853e-05
0.00742657
-4.78331e-05
0.00747347
-4.68996e-05
0.00751946
-4.59844e-05
0.00756454
-4.50874e-05
0.00760875
-4.42082e-05
0.0076521
-4.33465e-05
0.0076946
-4.25021e-05
0.00773627
-4.16746e-05
0.00777714
-4.08638e-05
0.00781721
-4.00693e-05
0.0078565
-3.92909e-05
0.00789503
-3.85282e-05
0.00793281
-3.7781e-05
0.00796986
-3.7049e-05
0.00800619
-3.63317e-05
0.00804182
-3.5629e-05
0.00807676
-3.49405e-05
0.00811102
-3.42659e-05
0.00814463
-3.36049e-05
0.00817759
-3.29571e-05
0.00820991
-3.23222e-05
0.00824161
-3.16998e-05
0.0082727
-3.10897e-05
0.00830319
-3.04913e-05
0.00833309
-2.99044e-05
0.00836242
-2.93285e-05
0.00839118
-2.87631e-05
0.00841939
-2.82077e-05
0.00844705
-2.76619e-05
0.00847418
-2.71249e-05
0.00850078
-2.65961e-05
0.00852685
-2.60747e-05
0.00855241
-2.55597e-05
0.00857746
-2.50502e-05
0.008602
-2.45449e-05
0.00862605
-2.40422e-05
0.00864959
-2.35404e-05
0.00867262
-2.30373e-05
0.00869516
-2.25305e-05
0.00871717
-2.20176e-05
0.00873867
-2.14968e-05
0.00875963
-2.09626e-05
0.00878005
-2.04188e-05
-1.99988e-05
0.00725256
0.0073037
-0.000104971
0.00735386
-0.000102942
0.00740305
-0.00010095
0.0074513
-9.89968e-05
0.00749863
-9.70808e-05
0.00754504
-9.52019e-05
0.00759057
-9.33596e-05
0.00763522
-9.15533e-05
0.00767902
-8.97825e-05
0.00772198
-8.80468e-05
0.00776412
-8.63455e-05
0.00780545
-8.46781e-05
0.00784599
-8.30442e-05
0.00788576
-8.1443e-05
0.00792477
-7.9874e-05
0.00796304
-7.83367e-05
0.00800058
-7.68304e-05
0.0080374
-7.53547e-05
0.00807353
-7.39088e-05
0.00810897
-7.24923e-05
0.00814375
-7.11045e-05
0.00817786
-6.97448e-05
0.00821133
-6.84126e-05
0.00824418
-6.71073e-05
0.0082764
-6.58284e-05
0.00830802
-6.45751e-05
0.00833904
-6.33468e-05
0.00836948
-6.21428e-05
0.00839936
-6.09626e-05
0.00842867
-5.98052e-05
0.00845744
-5.867e-05
0.00848566
-5.75562e-05
0.00851336
-5.64629e-05
0.00854055
-5.53892e-05
0.00856722
-5.43339e-05
0.00859339
-5.32961e-05
0.00861907
-5.22742e-05
0.00864426
-5.1267e-05
0.00866897
-5.02726e-05
0.00869321
-4.92891e-05
0.00871698
-4.83141e-05
0.00874028
-4.7345e-05
0.00876312
-4.63783e-05
0.00878549
-4.54102e-05
0.0088074
-4.44361e-05
0.00882883
-4.34518e-05
0.00884979
-4.24536e-05
0.00887026
-4.14319e-05
0.00889023
-4.03926e-05
-3.95854e-05
0.00764108
-0.000151198
0.00768646
-0.000148315
0.00773099
-0.000145486
0.00777471
-0.000142711
0.00781762
-0.000139989
0.00785973
-0.00013732
0.00790108
-0.000134702
0.00794166
-0.000132136
0.0079815
-0.00012962
0.0080206
-0.000127154
0.00805899
-0.000124736
0.00809668
-0.000122367
0.00813368
-0.000120045
0.00817001
-0.00011777
0.00820568
-0.00011554
0.0082407
-0.000113356
0.00827508
-0.000111215
0.00830885
-0.000109118
0.008342
-0.000107064
0.00837456
-0.000105051
0.00840653
-0.000103079
0.00843794
-0.000101147
0.00846878
-9.92546e-05
0.00849907
-9.74002e-05
0.00852883
-9.55833e-05
0.00855806
-9.38029e-05
0.00858677
-9.20582e-05
0.00861497
-9.03483e-05
0.00864268
-8.86722e-05
0.00866991
-8.70288e-05
0.00869665
-8.54172e-05
0.00872293
-8.38362e-05
0.00874875
-8.22846e-05
0.00877413
-8.07611e-05
0.00879906
-7.92642e-05
0.00882355
-7.77925e-05
0.00884762
-7.63441e-05
0.00887127
-7.49171e-05
0.00889451
-7.35091e-05
0.00891734
-7.21176e-05
0.00893976
-7.07394e-05
0.00896179
-6.9371e-05
0.00898342
-6.80079e-05
0.00900465
-6.66452e-05
0.00902549
-6.52769e-05
0.00904594
-6.38974e-05
0.00906599
-6.25023e-05
0.00908564
-6.1079e-05
0.00910488
-5.96338e-05
-5.85014e-05
0.00809949
-0.000191188
0.0081388
-0.00018762
0.00817743
-0.000184119
0.0082154
-0.000180684
0.00825273
-0.000177314
0.00828942
-0.000174009
0.00832548
-0.000170768
0.00836094
-0.00016759
0.00839579
-0.000164475
0.00843006
-0.000161421
0.00846375
-0.000158427
0.00849688
-0.000155492
0.00852945
-0.000152617
0.00856148
-0.000149799
0.00859297
-0.000147037
0.00862395
-0.000144332
0.00865441
-0.000141681
0.00868438
-0.000139083
0.00871385
-0.000136539
0.00874285
-0.000134046
0.00877137
-0.000131604
0.00879944
-0.000129212
0.00882705
-0.000126868
0.00885422
-0.000124572
0.00888096
-0.000122323
0.00890728
-0.000120119
0.00893318
-0.00011796
0.00895867
-0.000115843
0.00898377
-0.00011377
0.00900848
-0.000111737
0.00903281
-0.000109744
0.00905676
-0.000107789
0.00908035
-0.000105871
0.00910357
-0.000103988
0.00912645
-0.00010214
0.00914898
-0.000100323
0.00917117
-9.85361e-05
0.00919303
-9.67767e-05
0.00921456
-9.50424e-05
0.00923578
-9.33301e-05
0.00925667
-9.16364e-05
0.00927726
-8.99573e-05
0.00929754
-8.82881e-05
0.00931752
-8.66234e-05
0.0093372
-8.49567e-05
0.00935658
-8.32823e-05
0.00937568
-8.15953e-05
0.00939448
-7.98826e-05
0.00941299
-7.8149e-05
-7.67758e-05
0.00862917
-0.000224746
0.00866223
-0.00022068
0.00869481
-0.00021669
0.0087269
-0.000212774
0.00875851
-0.000208932
0.00878967
-0.000205163
0.00882037
-0.000201467
0.00885062
-0.000197842
0.00888043
-0.000194288
0.00890982
-0.000190804
0.00893878
-0.000187388
0.00896733
-0.00018404
0.00899547
-0.000180759
0.00902321
-0.000177544
0.00905057
-0.000174393
0.00907754
-0.000171305
0.00910414
-0.000168281
0.00913038
-0.000165317
0.00915625
-0.000162414
0.00918177
-0.00015957
0.00920695
-0.000156784
0.0092318
-0.000154055
0.00925631
-0.000151382
0.00928051
-0.000148764
0.00930438
-0.000146199
0.00932795
-0.000143687
0.00935122
-0.000141226
0.00937419
-0.000138815
0.00939687
-0.000136452
0.00941927
-0.000134137
0.0094414
-0.000131868
0.00946325
-0.000129643
0.00948484
-0.000127462
0.00950617
-0.000125322
0.00952726
-0.000123221
0.00954809
-0.000121158
0.00956869
-0.000119131
0.00958905
-0.000117137
0.00960918
-0.000115174
0.00962909
-0.000113238
0.00964878
-0.000111326
0.00966825
-0.000109435
0.00968752
-0.00010756
0.0097066
-0.000105695
0.00972548
-0.000103836
0.00974417
-0.000101976
0.00976268
-0.000100112
0.00978103
-9.82315e-05
0.00979922
-9.63384e-05
-9.48208e-05
0.0091748
0.0092026
-0.000248482
0.00923009
-0.000244181
0.00925728
-0.000239959
0.00928416
-0.000235816
0.00931075
-0.000231751
0.00933704
-0.000227763
0.00936305
-0.000223852
0.00938878
-0.000220016
0.00941423
-0.000216256
0.00943941
-0.000212569
0.00946433
-0.000208954
0.00948898
-0.000205412
0.00951338
-0.000201941
0.00953752
-0.000198539
0.00956143
-0.000195206
0.00958509
-0.000191941
0.00960851
-0.000188742
0.0096317
-0.000185608
0.00965467
-0.000182539
0.00967742
-0.000179533
0.00969995
-0.000176588
0.00972228
-0.000173705
0.00974439
-0.000170881
0.00976631
-0.000168116
0.00978803
-0.000165408
0.00980956
-0.000162755
0.0098309
-0.000160158
0.00985207
-0.000157614
0.00987305
-0.000155122
0.00989386
-0.000152681
0.00991451
-0.000150289
0.00993499
-0.000147944
0.00995531
-0.000145646
0.00997549
-0.000143393
0.00999551
-0.000141181
0.0100154
-0.000139011
0.0100351
-0.000136878
0.0100547
-0.000134781
0.0100742
-0.000132718
0.0100936
-0.000130685
0.0101128
-0.000128678
0.010132
-0.000126694
0.010151
-0.00012473
0.0101699
-0.000122779
0.0101888
-0.000120839
0.0102076
-0.000118907
0.0102263
-0.000116974
0.010245
-0.000115043
-0.000113477
0.00970685
-0.000273047
0.00973126
-0.00026859
0.00975552
-0.000264214
0.00977962
-0.000259918
0.00980357
-0.000255702
0.00982737
-0.000251565
0.00985103
-0.000247506
0.00987453
-0.000243525
0.0098979
-0.000239622
0.00992113
-0.000235794
0.00994421
-0.000232042
0.00996717
-0.000228364
0.00998998
-0.00022476
0.0100127
-0.000221228
0.0100352
-0.000217767
0.0100577
-0.000214377
0.01008
-0.000211057
0.0101022
-0.000207805
0.0101243
-0.00020462
0.0101462
-0.000201501
0.0101681
-0.000198447
0.0101898
-0.000195457
0.0102115
-0.00019253
0.010233
-0.000189664
0.0102545
-0.000186859
0.0102758
-0.000184113
0.0102971
-0.000181425
0.0103183
-0.000178794
0.0103394
-0.000176218
0.0103604
-0.000173697
0.0103813
-0.000171228
0.0104022
-0.00016881
0.010423
-0.000166443
0.0104437
-0.000164123
0.0104644
-0.00016185
0.010485
-0.000159622
0.0105056
-0.000157437
0.0105261
-0.000155292
0.0105466
-0.000153186
0.010567
-0.000151116
0.0105874
-0.00014908
0.0106078
-0.000147074
0.0106281
-0.000145095
0.0106485
-0.000143142
0.0106689
-0.00014121
0.0106893
-0.0001393
0.0107097
-0.000137409
0.0107302
-0.000135537
-0.000134002
0.0101291
0.0101532
-0.000292665
0.0101772
-0.00028825
0.0102012
-0.000283915
0.0102252
-0.000279659
0.0102491
-0.000275481
0.010273
-0.000271381
0.0102968
-0.000267359
0.0103206
-0.000263415
0.0103444
-0.000259547
0.0103681
-0.000255755
0.0103917
-0.000252039
0.0104154
-0.000248396
0.010439
-0.000244827
0.0104625
-0.000241331
0.0104861
-0.000237907
0.0105096
-0.000234553
0.010533
-0.000231269
0.0105565
-0.000228054
0.0105799
-0.000224907
0.0106032
-0.000221826
0.0106266
-0.000218811
0.0106499
-0.000215861
0.0106732
-0.000212974
0.0106965
-0.00021015
0.0107198
-0.000207387
0.0107431
-0.000204685
0.0107663
-0.000202041
0.0107896
-0.000199456
0.0108128
-0.000196927
0.010836
-0.000194453
0.0108592
-0.000192034
0.0108825
-0.000189668
0.0109057
-0.000187353
0.0109289
-0.000185088
0.0109522
-0.000182872
0.0109754
-0.000180702
0.0109987
-0.000178579
0.011022
-0.000176499
0.0110454
-0.00017446
0.0110688
-0.000172462
0.0110922
-0.000170502
0.0111157
-0.000168578
0.0111392
-0.000166688
0.0111628
-0.000164832
0.0111866
-0.000163009
0.0112104
-0.000161219
0.0112343
-0.000159461
-0.000157996
0.013143
-0.000287196
0.0131378
-0.000283016
0.0131328
-0.000278907
0.013128
-0.000274869
0.0131234
-0.000270904
0.013119
-0.000267009
0.0131149
-0.000263186
0.0131109
-0.000259435
0.0131071
-0.000255754
0.0131035
-0.000252144
0.0131
-0.000248604
0.0130968
-0.000245134
0.0130937
-0.000241733
0.0130907
-0.0002384
0.013088
-0.000235135
0.0130854
-0.000231938
0.0130829
-0.000228806
0.0130806
-0.00022574
0.0130784
-0.000222739
0.0130764
-0.000219802
0.0130745
-0.000216928
0.0130728
-0.000214116
0.0130712
-0.000211365
0.0130697
-0.000208675
0.0130683
-0.000206045
0.0130671
-0.000203473
0.013066
-0.000200958
0.0130651
-0.000198501
0.0130643
-0.0001961
0.0130636
-0.000193753
0.013063
-0.00019146
0.0130625
-0.00018922
0.0130622
-0.000187032
0.013062
-0.000184895
0.013062
-0.000182808
0.013062
-0.000180769
0.0130622
-0.000178778
0.0130626
-0.000176834
0.013063
-0.000174936
0.0130637
-0.000173082
0.0130644
-0.000171272
0.0130654
-0.000169505
0.0130664
-0.00016778
0.0130677
-0.000166096
0.0130692
-0.000164455
0.0130708
-0.000162856
0.0130726
-0.000161296
-0.000159983
0.0140123
-0.000274684
0.0140001
-0.000270827
0.0139882
-0.000267031
0.0139767
-0.000263296
0.0139654
-0.000259625
0.0139544
-0.000256016
0.0139437
-0.000252471
0.0139332
-0.000248989
0.0139231
-0.000245572
0.0139131
-0.000242218
0.0139035
-0.000238927
0.013894
-0.0002357
0.0138848
-0.000232536
0.0138759
-0.000229436
0.0138671
-0.000226397
0.0138586
-0.000223421
0.0138503
-0.000220507
0.0138422
-0.000217653
0.0138343
-0.00021486
0.0138267
-0.000212128
0.0138192
-0.000209454
0.0138119
-0.000206839
0.0138048
-0.000204283
0.0137979
-0.000201784
0.0137912
-0.000199342
0.0137847
-0.000196956
0.0137784
-0.000194626
0.0137722
-0.00019235
0.0137663
-0.000190129
0.0137605
-0.000187961
0.0137549
-0.000185847
0.0137494
-0.000183784
0.0137442
-0.000181773
0.0137391
-0.000179813
0.0137342
-0.000177904
0.0137295
-0.000176044
0.0137249
-0.000174234
0.0137206
-0.000172473
0.0137164
-0.000170761
0.0137124
-0.000169098
0.0137086
-0.000167482
0.013705
-0.000165916
0.0137016
-0.000164398
0.0136985
-0.000162929
0.0136955
-0.000161511
0.0136928
-0.000160146
0.0136903
-0.000158832
-0.000157721
0.0147893
-0.000257037
0.014772
-0.000253554
0.0147551
-0.00025012
0.0147386
-0.000246739
0.0147224
-0.00024341
0.0147065
-0.000240135
0.0146909
-0.000236914
0.0146757
-0.000233749
0.0146607
-0.000230639
0.0146461
-0.000227585
0.0146318
-0.000224587
0.0146177
-0.000221646
0.0146039
-0.000218762
0.0145904
-0.000215933
0.0145772
-0.000213162
0.0145642
-0.000210447
0.0145515
-0.000207788
0.0145391
-0.000205185
0.0145268
-0.000202638
0.0145148
-0.000200146
0.0145031
-0.00019771
0.0144916
-0.000195328
0.0144803
-0.000193001
0.0144693
-0.000190727
0.0144584
-0.000188508
0.0144478
-0.000186341
0.0144374
-0.000184227
0.0144272
-0.000182166
0.0144172
-0.000180157
0.0144075
-0.000178199
0.0143979
-0.000176293
0.0143886
-0.000174438
0.0143794
-0.000172634
0.0143705
-0.000170881
0.0143618
-0.000169178
0.0143533
-0.000167525
0.014345
-0.000165924
0.0143369
-0.000164373
0.014329
-0.000162873
0.0143213
-0.000161425
0.0143138
-0.000160029
0.0143066
-0.000158686
0.0142996
-0.000157397
0.0142928
-0.000156164
0.0142863
-0.00015499
0.0142801
-0.000153877
0.0142741
-0.000152827
-0.000151942
0.0154565
-0.000236167
0.015436
-0.000233073
0.0154159
-0.000230018
0.0153962
-0.000227005
0.0153768
-0.000224034
0.0153578
-0.000221108
0.0153391
-0.000218227
0.0153207
-0.000215393
0.0153027
-0.000212607
0.015285
-0.000209868
0.0152676
-0.000207179
0.0152505
-0.000204539
0.0152336
-0.000201948
0.0152171
-0.000199408
0.0152009
-0.000196919
0.0151849
-0.000194479
0.0151692
-0.000192091
0.0151538
-0.000189753
0.0151386
-0.000187466
0.0151237
-0.000185229
0.015109
-0.000183043
0.0150946
-0.000180908
0.0150804
-0.000178823
0.0150665
-0.000176788
0.0150528
-0.000174804
0.0150393
-0.000172869
0.0150261
-0.000170984
0.015013
-0.000169149
0.0150003
-0.000167364
0.0149877
-0.000165629
0.0149753
-0.000163943
0.0149632
-0.000162306
0.0149513
-0.00016072
0.0149396
-0.000159183
0.0149281
-0.000157697
0.0149168
-0.000156262
0.0149058
-0.000154877
0.014895
-0.000153544
0.0148844
-0.000152264
0.014874
-0.000151038
0.0148638
-0.000149867
0.0148539
-0.000148752
0.0148442
-0.000147696
0.0148347
-0.000146701
0.0148255
-0.000145769
0.0148165
-0.000144905
0.0148078
-0.000144115
-0.000143458
0.0160068
-0.000213804
0.0159848
-0.000211083
0.0159632
-0.000208392
0.0159419
-0.000205734
0.015921
-0.000203109
0.0159004
-0.000200521
0.0158802
-0.00019797
0.0158602
-0.000195457
0.0158406
-0.000192985
0.0158213
-0.000190554
0.0158023
-0.000188165
0.0157836
-0.000185818
0.0157651
-0.000183515
0.015747
-0.000181257
0.0157291
-0.000179042
0.0157115
-0.000176873
0.0156941
-0.000174749
0.0156771
-0.000172671
0.0156602
-0.000170638
0.0156437
-0.000168652
0.0156273
-0.000166712
0.0156112
-0.000164818
0.0155954
-0.000162971
0.0155798
-0.00016117
0.0155644
-0.000159417
0.0155492
-0.00015771
0.0155343
-0.00015605
0.0155196
-0.000154437
0.0155051
-0.000152871
0.0154908
-0.000151353
0.0154767
-0.000149882
0.0154629
-0.00014846
0.0154493
-0.000147086
0.0154358
-0.000145761
0.0154226
-0.000144486
0.0154096
-0.000143261
0.0153968
-0.000142087
0.0153843
-0.000140965
0.0153719
-0.000139897
0.0153597
-0.000138884
0.0153478
-0.000137927
0.0153361
-0.00013703
0.0153246
-0.000136193
0.0153133
-0.000135421
0.0153022
-0.000134715
0.0152914
-0.000134082
0.0152808
-0.000133529
-0.000133086
0.0164426
-0.000191349
0.0164204
-0.000188966
0.0163987
-0.000186605
0.0163772
-0.000184269
0.016356
-0.00018196
0.0163352
-0.00017968
0.0163147
-0.00017743
0.0162944
-0.000175213
0.0162745
-0.000173029
0.0162548
-0.00017088
0.0162354
-0.000168766
0.0162163
-0.00016669
0.0161974
-0.000164652
0.0161788
-0.000162653
0.0161604
-0.000160692
0.0161423
-0.000158772
0.0161245
-0.000156893
0.0161069
-0.000155055
0.0160895
-0.000153258
0.0160723
-0.000151503
0.0160554
-0.000149791
0.0160387
-0.000148121
0.0160223
-0.000146495
0.016006
-0.000144911
0.0159899
-0.000143371
0.0159741
-0.000141875
0.0159585
-0.000140423
0.0159431
-0.000139016
0.0159278
-0.000137653
0.0159128
-0.000136336
0.015898
-0.000135065
0.0158834
-0.00013384
0.015869
-0.000132662
0.0158547
-0.000131532
0.0158407
-0.00013045
0.0158269
-0.000129418
0.0158132
-0.000128437
0.0157998
-0.000127507
0.0157865
-0.000126632
0.0157734
-0.000125811
0.0157605
-0.000125048
0.0157478
-0.000124345
0.0157354
-0.000123704
0.0157231
-0.000123128
0.015711
-0.000122621
0.0156991
-0.000122188
0.0156874
-0.000121838
-0.000121582
0.0167731
-0.000169805
0.0167519
-0.000167716
0.0167309
-0.000165642
0.0167102
-0.000163588
0.0166898
-0.000161554
0.0166697
-0.000159543
0.0166498
-0.000157558
0.0166302
-0.000155599
0.0166108
-0.000153669
0.0165917
-0.000151768
0.0165729
-0.000149899
0.0165542
-0.000148061
0.0165358
-0.000146257
0.0165177
-0.000144487
0.0164997
-0.000142752
0.016482
-0.000141053
0.0164645
-0.000139391
0.0164472
-0.000137766
0.0164301
-0.000136178
0.0164133
-0.000134629
0.0163966
-0.000133119
0.0163801
-0.000131648
0.0163638
-0.000130217
0.0163478
-0.000128826
0.0163319
-0.000127475
0.0163162
-0.000126166
0.0163006
-0.000124899
0.0162853
-0.000123673
0.0162701
-0.000122491
0.0162551
-0.000121351
0.0162403
-0.000120256
0.0162257
-0.000119205
0.0162112
-0.000118199
0.0161969
-0.00011724
0.0161828
-0.000116328
0.0161689
-0.000115464
0.0161551
-0.00011465
0.0161415
-0.000113888
0.016128
-0.000113178
0.0161147
-0.000112523
0.0161016
-0.000111926
0.0160886
-0.000111387
0.0160758
-0.000110911
0.0160632
-0.0001105
0.0160508
-0.000110157
0.0160384
-0.000109888
0.0160263
-0.000109701
-0.000109596
0.0170125
-0.000149774
0.0169927
-0.000147933
0.0169732
-0.000146104
0.0169539
-0.00014429
0.0169348
-0.000142491
0.016916
-0.000140712
0.0168974
-0.000138953
0.016879
-0.000137216
0.0168608
-0.000135504
0.0168429
-0.000133817
0.0168252
-0.000132158
0.0168076
-0.000130526
0.0167903
-0.000128924
0.0167731
-0.000127352
0.0167562
-0.000125812
0.0167395
-0.000124304
0.0167229
-0.000122829
0.0167065
-0.000121388
0.0166903
-0.000119981
0.0166743
-0.00011861
0.0166585
-0.000117274
0.0166428
-0.000115975
0.0166273
-0.000114713
0.0166119
-0.000113488
0.0165968
-0.000112301
0.0165818
-0.000111153
0.0165669
-0.000110044
0.0165522
-0.000108975
0.0165377
-0.000107946
0.0165233
-0.000106958
0.016509
-0.000106012
0.0164949
-0.000105109
0.016481
-0.00010425
0.0164672
-0.000103435
0.0164535
-0.000102666
0.01644
-0.000101944
0.0164266
-0.00010127
0.0164134
-0.000100646
0.0164003
-0.000100074
0.0163873
-9.95545e-05
0.0163745
-9.90911e-05
0.0163618
-9.86856e-05
0.0163492
-9.83408e-05
0.0163367
-9.80595e-05
0.0163244
-9.78451e-05
0.0163123
-9.77014e-05
0.0163002
-9.76371e-05
-9.7646e-05
0.0171769
-0.000131511
0.0171588
-0.000129881
0.017141
-0.00012826
0.0171234
-0.000126649
0.0171059
-0.000125052
0.0170887
-0.000123469
0.0170716
-0.000121904
0.0170548
-0.000120358
0.0170381
-0.000118832
0.0170216
-0.000117329
0.0170053
-0.00011585
0.0169892
-0.000114395
0.0169732
-0.000112967
0.0169574
-0.000111565
0.0169418
-0.000110192
0.0169264
-0.000108848
0.0169111
-0.000107534
0.0168959
-0.000106251
0.0168809
-0.000105
0.0168661
-0.00010378
0.0168514
-0.000102594
0.0168369
-0.000101441
0.0168225
-0.000100323
0.0168083
-9.92397e-05
0.0167941
-9.8192e-05
0.0167802
-9.71801e-05
0.0167663
-9.62052e-05
0.0167526
-9.52676e-05
0.0167391
-9.43686e-05
0.0167256
-9.35081e-05
0.0167123
-9.26878e-05
0.0166991
-9.19077e-05
0.016686
-9.11694e-05
0.016673
-9.04736e-05
0.0166602
-8.98217e-05
0.0166475
-8.92146e-05
0.0166348
-8.86538e-05
0.0166223
-8.81409e-05
0.0166099
-8.76775e-05
0.0165977
-8.72655e-05
0.0165855
-8.69067e-05
0.0165734
-8.66035e-05
0.0165614
-8.63584e-05
0.0165495
-8.61738e-05
0.0165377
-8.60527e-05
0.016526
-8.59989e-05
0.0165144
-8.60194e-05
-8.61053e-05
0.0172826
-0.000115011
0.0172662
-0.000113564
0.0172501
-0.000112122
0.0172341
-0.000110689
0.0172184
-0.000109266
0.0172027
-0.000107855
0.0171873
-0.000106459
0.017172
-0.000105078
0.0171569
-0.000103716
0.0171419
-0.000102373
0.0171271
-0.000101051
0.0171125
-9.97502e-05
0.017098
-9.84731e-05
0.0170837
-9.72202e-05
0.0170695
-9.59928e-05
0.0170554
-9.47917e-05
0.0170415
-9.36177e-05
0.0170277
-9.24719e-05
0.0170141
-9.13548e-05
0.0170006
-9.02673e-05
0.0169872
-8.92102e-05
0.0169739
-8.8184e-05
0.0169608
-8.71895e-05
0.0169478
-8.62273e-05
0.0169349
-8.52981e-05
0.0169221
-8.44026e-05
0.0169094
-8.35414e-05
0.0168969
-8.27153e-05
0.0168844
-8.1925e-05
0.0168721
-8.11712e-05
0.0168599
-8.04548e-05
0.0168477
-7.97767e-05
0.0168357
-7.91378e-05
0.0168238
-7.85391e-05
0.0168119
-7.79817e-05
0.0168002
-7.74668e-05
0.0167885
-7.69958e-05
0.0167769
-7.657e-05
0.0167655
-7.6191e-05
0.0167541
-7.58604e-05
0.0167427
-7.55801e-05
0.0167315
-7.53521e-05
0.0167203
-7.51784e-05
0.0167092
-7.50615e-05
0.0166981
-7.50038e-05
0.0166871
-7.50081e-05
0.0166762
-7.5081e-05
-7.52121e-05
0.0173444
-0.000100105
0.0173297
-9.88213e-05
0.0173151
-9.75409e-05
0.0173007
-9.62667e-05
0.0172864
-9.50004e-05
0.0172723
-9.37441e-05
0.0172583
-9.24997e-05
0.0172445
-9.1269e-05
0.0172308
-9.00536e-05
0.0172173
-8.88547e-05
0.017204
-8.76738e-05
0.0171907
-8.65127e-05
0.0171776
-8.53717e-05
0.0171646
-8.42525e-05
0.0171518
-8.31559e-05
0.0171391
-8.20828e-05
0.0171265
-8.10345e-05
0.0171141
-8.00112e-05
0.0171017
-7.9014e-05
0.0170895
-7.8044e-05
0.0170774
-7.71012e-05
0.0170654
-7.6187e-05
0.0170535
-7.53017e-05
0.0170417
-7.44461e-05
0.01703
-7.36208e-05
0.0170185
-7.28265e-05
0.017007
-7.2064e-05
0.0169956
-7.13339e-05
0.0169843
-7.06367e-05
0.0169731
-6.99738e-05
0.016962
-6.93453e-05
0.016951
-6.87525e-05
0.01694
-6.81961e-05
0.0169292
-6.76771e-05
0.0169184
-6.71968e-05
0.0169077
-6.67561e-05
0.016897
-6.63557e-05
0.0168865
-6.59978e-05
0.016876
-6.56833e-05
0.0168655
-6.54136e-05
0.0168551
-6.51905e-05
0.0168448
-6.50156e-05
0.0168345
-6.48908e-05
0.0168243
-6.48179e-05
0.0168141
-6.47991e-05
0.0168039
-6.48366e-05
0.0167937
-6.49354e-05
-6.50861e-05
0.0173752
-8.65412e-05
0.0173618
-8.54093e-05
0.0173485
-8.42793e-05
0.0173354
-8.31533e-05
0.0173224
-8.20335e-05
0.0173096
-8.09215e-05
0.0172969
-7.98193e-05
0.0172844
-7.87285e-05
0.017272
-7.76506e-05
0.0172597
-7.65869e-05
0.0172476
-7.55388e-05
0.0172356
-7.45075e-05
0.0172237
-7.34942e-05
0.0172119
-7.24998e-05
0.0172003
-7.15254e-05
0.0171888
-7.05719e-05
0.0171774
-6.96401e-05
0.0171661
-6.8731e-05
0.017155
-6.78452e-05
0.0171439
-6.69835e-05
0.0171329
-6.61466e-05
0.0171221
-6.53352e-05
0.0171113
-6.45499e-05
0.0171007
-6.37915e-05
0.0170901
-6.30607e-05
0.0170797
-6.23579e-05
0.0170693
-6.1684e-05
0.017059
-6.10397e-05
0.0170488
-6.04255e-05
0.0170386
-5.98423e-05
0.0170286
-5.92908e-05
0.0170186
-5.87718e-05
0.0170087
-5.82861e-05
0.0169989
-5.78347e-05
0.0169891
-5.74185e-05
0.0169794
-5.70384e-05
0.0169697
-5.66956e-05
0.0169601
-5.63912e-05
0.0169505
-5.61264e-05
0.016941
-5.59024e-05
0.0169316
-5.57206e-05
0.0169221
-5.55824e-05
0.0169127
-5.54893e-05
0.0169033
-5.54429e-05
0.016894
-5.54447e-05
0.0168846
-5.54965e-05
0.0168753
-5.56025e-05
-5.57533e-05
0.0173852
-7.40468e-05
0.0173728
-7.30606e-05
0.0173606
-7.2075e-05
0.0173486
-7.10918e-05
0.0173367
-7.01133e-05
0.0173249
-6.91409e-05
0.0173132
-6.81763e-05
0.0173017
-6.72208e-05
0.0172903
-6.62761e-05
0.0172791
-6.53434e-05
0.017268
-6.44239e-05
0.017257
-6.35186e-05
0.0172461
-6.26291e-05
0.0172354
-6.17556e-05
0.0172248
-6.08994e-05
0.0172143
-6.00616e-05
0.0172039
-5.92427e-05
0.0171936
-5.84437e-05
0.0171834
-5.7665e-05
0.0171733
-5.69076e-05
0.0171633
-5.61721e-05
0.0171535
-5.54591e-05
0.0171437
-5.47694e-05
0.017134
-5.41036e-05
0.0171244
-5.34619e-05
0.0171149
-5.28458e-05
0.0171055
-5.22548e-05
0.0170961
-5.16907e-05
0.0170868
-5.11533e-05
0.0170776
-5.06436e-05
0.0170685
-5.01623e-05
0.0170594
-4.97101e-05
0.0170504
-4.92879e-05
0.0170415
-4.88962e-05
0.0170326
-4.85361e-05
0.0170238
-4.82082e-05
0.017015
-4.79137e-05
0.0170063
-4.76534e-05
0.0169976
-4.74286e-05
0.0169889
-4.72398e-05
0.0169803
-4.70886e-05
0.0169717
-4.6976e-05
0.0169631
-4.69029e-05
0.0169545
-4.68711e-05
0.016946
-4.68813e-05
0.0169374
-4.69349e-05
0.0169288
-4.7035e-05
-4.71735e-05
0.0173823
-6.23667e-05
0.0173708
-6.15234e-05
0.0173594
-6.06798e-05
0.0173481
-5.98375e-05
0.017337
-5.89982e-05
0.0173261
-5.81636e-05
0.0173152
-5.7335e-05
0.0173045
-5.65138e-05
0.0172939
-5.57013e-05
0.0172835
-5.48986e-05
0.0172732
-5.41069e-05
0.017263
-5.33271e-05
0.0172529
-5.25602e-05
0.017243
-5.18071e-05
0.0172331
-5.10687e-05
0.0172234
-5.03458e-05
0.0172138
-4.96391e-05
0.0172043
-4.89493e-05
0.0171949
-4.82771e-05
0.0171856
-4.76231e-05
0.0171765
-4.6988e-05
0.0171674
-4.63724e-05
0.0171584
-4.57768e-05
0.0171495
-4.52019e-05
0.0171407
-4.46482e-05
0.0171319
-4.41162e-05
0.0171233
-4.36067e-05
0.0171147
-4.31201e-05
0.0171062
-4.2657e-05
0.0170978
-4.2218e-05
0.0170894
-4.18038e-05
0.0170811
-4.1415e-05
0.0170729
-4.10523e-05
0.0170647
-4.07163e-05
0.0170566
-4.04077e-05
0.0170485
-4.01274e-05
0.0170405
-3.98761e-05
0.0170325
-3.96545e-05
0.0170245
-3.94636e-05
0.0170166
-3.93041e-05
0.0170087
-3.9177e-05
0.0170008
-3.90832e-05
0.0169929
-3.90234e-05
0.016985
-3.89987e-05
0.0169771
-3.90099e-05
0.0169693
-3.90577e-05
0.0169614
-3.91447e-05
-3.92639e-05
0.0173724
-5.12841e-05
0.0173615
-5.05824e-05
0.0173507
-4.98799e-05
0.01734
-4.91778e-05
0.0173295
-4.84776e-05
0.0173191
-4.7781e-05
0.0173089
-4.70886e-05
0.0172988
-4.64021e-05
0.0172888
-4.57223e-05
0.017279
-4.50504e-05
0.0172692
-4.43875e-05
0.0172596
-4.37338e-05
0.0172502
-4.30911e-05
0.0172408
-4.24593e-05
0.0172316
-4.18399e-05
0.0172225
-4.12332e-05
0.0172135
-4.06397e-05
0.0172046
-4.00605e-05
0.0171958
-3.94956e-05
0.0171871
-3.89463e-05
0.0171786
-3.84126e-05
0.0171701
-3.78951e-05
0.0171617
-3.73945e-05
0.0171534
-3.69111e-05
0.0171452
-3.64457e-05
0.0171371
-3.59987e-05
0.0171291
-3.55702e-05
0.0171211
-3.51614e-05
0.0171132
-3.47721e-05
0.0171054
-3.44035e-05
0.0170976
-3.40556e-05
0.01709
-3.37292e-05
0.0170823
-3.34248e-05
0.0170748
-3.31428e-05
0.0170672
-3.28843e-05
0.0170598
-3.26496e-05
0.0170523
-3.24389e-05
0.0170449
-3.22538e-05
0.0170376
-3.2094e-05
0.0170302
-3.19609e-05
0.0170229
-3.18547e-05
0.0170156
-3.17762e-05
0.0170083
-3.17262e-05
0.017001
-3.1705e-05
0.0169937
-3.17138e-05
0.0169864
-3.17525e-05
0.0169791
-3.18231e-05
-3.19197e-05
0.0173597
-4.06251e-05
0.0173492
-4.00646e-05
0.0173388
-3.95029e-05
0.0173285
-3.89411e-05
0.0173184
-3.83805e-05
0.0173085
-3.78221e-05
0.0172987
-3.7267e-05
0.017289
-3.67162e-05
0.0172794
-3.61705e-05
0.01727
-3.56308e-05
0.0172607
-3.50979e-05
0.0172516
-3.45725e-05
0.0172425
-3.40554e-05
0.0172336
-3.35471e-05
0.0172248
-3.30484e-05
0.0172161
-3.25597e-05
0.0172076
-3.20817e-05
0.0171991
-3.16149e-05
0.0171908
-3.11597e-05
0.0171826
-3.07167e-05
0.0171745
-3.02862e-05
0.0171664
-2.98688e-05
0.0171585
-2.9465e-05
0.0171507
-2.9075e-05
0.0171429
-2.86993e-05
0.0171353
-2.83385e-05
0.0171277
-2.79928e-05
0.0171202
-2.76626e-05
0.0171128
-2.73485e-05
0.0171054
-2.70509e-05
0.0170981
-2.67701e-05
0.0170909
-2.65066e-05
0.0170837
-2.62609e-05
0.0170766
-2.60334e-05
0.0170696
-2.58247e-05
0.0170625
-2.56351e-05
0.0170556
-2.54652e-05
0.0170486
-2.53155e-05
0.0170417
-2.51864e-05
0.0170348
-2.50786e-05
0.017028
-2.49924e-05
0.0170211
-2.49283e-05
0.0170143
-2.48869e-05
0.0170075
-2.48685e-05
0.0170006
-2.48736e-05
0.0169938
-2.49024e-05
0.0169869
-2.49562e-05
-2.50305e-05
0.0173469
-3.02563e-05
0.0173367
-2.98365e-05
0.0173266
-2.94156e-05
0.0173166
-2.89944e-05
0.0173068
-2.85735e-05
0.0172971
-2.81541e-05
0.0172876
-2.77373e-05
0.0172782
-2.73231e-05
0.017269
-2.69127e-05
0.0172598
-2.65066e-05
0.0172508
-2.61056e-05
0.017242
-2.57101e-05
0.0172332
-2.53204e-05
0.0172246
-2.49372e-05
0.0172162
-2.45615e-05
0.0172078
-2.41929e-05
0.0171995
-2.38323e-05
0.0171914
-2.348e-05
0.0171834
-2.31365e-05
0.0171755
-2.2802e-05
0.0171677
-2.2477e-05
0.0171599
-2.21616e-05
0.0171523
-2.18566e-05
0.0171448
-2.15621e-05
0.0171374
-2.12781e-05
0.0171301
-2.10052e-05
0.0171228
-2.07441e-05
0.0171157
-2.04943e-05
0.0171086
-2.0257e-05
0.0171015
-2.00317e-05
0.0170946
-1.98194e-05
0.0170877
-1.96202e-05
0.0170809
-1.94342e-05
0.0170741
-1.9262e-05
0.0170674
-1.91041e-05
0.0170607
-1.89605e-05
0.0170541
-1.88318e-05
0.0170475
-1.87181e-05
0.0170409
-1.862e-05
0.0170344
-1.85381e-05
0.0170279
-1.84721e-05
0.0170213
-1.84228e-05
0.0170149
-1.83903e-05
0.0170084
-1.83751e-05
0.0170019
-1.83772e-05
0.0169954
-1.83969e-05
0.0169888
-1.84348e-05
-1.84884e-05
0.017336
-2.00774e-05
0.0173259
-1.97979e-05
0.017316
-1.95175e-05
0.0173063
-1.92366e-05
0.0172966
-1.89561e-05
0.0172872
-1.86764e-05
0.0172778
-1.8398e-05
0.0172686
-1.81215e-05
0.0172596
-1.78474e-05
0.0172506
-1.75761e-05
0.0172418
-1.7308e-05
0.0172332
-1.70435e-05
0.0172246
-1.6783e-05
0.0172162
-1.65267e-05
0.0172079
-1.62752e-05
0.0171998
-1.60285e-05
0.0171917
-1.57871e-05
0.0171838
-1.55512e-05
0.017176
-1.53211e-05
0.0171683
-1.5097e-05
0.0171607
-1.48792e-05
0.0171532
-1.4668e-05
0.0171458
-1.44635e-05
0.0171385
-1.42659e-05
0.0171313
-1.40756e-05
0.0171242
-1.38926e-05
0.0171171
-1.37174e-05
0.0171102
-1.35499e-05
0.0171033
-1.33906e-05
0.0170965
-1.32395e-05
0.0170898
-1.3097e-05
0.0170832
-1.29632e-05
0.0170766
-1.28384e-05
0.01707
-1.27228e-05
0.0170635
-1.26166e-05
0.0170571
-1.25201e-05
0.0170507
-1.24335e-05
0.0170443
-1.2357e-05
0.017038
-1.22909e-05
0.0170317
-1.22354e-05
0.0170254
-1.21907e-05
0.0170192
-1.2157e-05
0.0170129
-1.21345e-05
0.0170067
-1.21233e-05
0.0170004
-1.21236e-05
0.0169941
-1.21356e-05
0.0169879
-1.21596e-05
-1.21942e-05
0.0173281
-1.00123e-05
0.0173182
-9.87257e-06
0.0173084
-9.7324e-06
0.0172987
-9.59189e-06
0.0172892
-9.45172e-06
0.0172799
-9.31181e-06
0.0172706
-9.17267e-06
0.0172616
-9.0342e-06
0.0172526
-8.897e-06
0.0172438
-8.76116e-06
0.0172351
-8.62691e-06
0.0172266
-8.49443e-06
0.0172181
-8.3638e-06
0.0172098
-8.23553e-06
0.0172017
-8.10946e-06
0.0171936
-7.98584e-06
0.0171857
-7.86495e-06
0.0171779
-7.74656e-06
0.0171702
-7.63107e-06
0.0171626
-7.51893e-06
0.0171552
-7.40958e-06
0.0171478
-7.30361e-06