/*--------------------------------*- C++ -*----------------------------------*\
  =========                 |
  \\      /  F ield         | OpenFOAM: The Open Source CFD Toolbox
   \\    /   O peration     | Website:  https://openfoam.org
    \\  /    A nd           | Version:  7
     \\/     M anipulation  |
\*---------------------------------------------------------------------------*/
FoamFile
{
    version     2.0;
    format      ascii;
    class       surfaceScalarField;
    location    "65.001";
    object      phi;
}
// * * * * * * * * * * * * * * * * * * * * * * * * * * * * * * * * * * * * * //

dimensions      [0 3 -1 0 0 0 0];

internalField   nonuniform List<scalar> 
7248
(
-0.000159366
0.000159484
-0.000435709
0.000276547
-0.000743687
0.000308199
-0.00105653
0.000313058
-0.00137149
0.000315164
-0.0016904
0.000319113
-0.00201513
0.000324915
-0.00234727
0.000332323
-0.00268827
0.000341184
-0.00303948
0.000351373
-0.00340213
0.000362813
-0.00377742
0.000375439
-0.00416639
0.000389113
-0.00456989
0.000403646
0.000419348
-0.0049891
-0.000158671
0.000318155
-0.000434212
0.000552088
-0.000741524
0.000615511
-0.00105379
0.000625322
-0.00136819
0.000629567
-0.00168656
0.000637482
-0.00201074
0.000649098
-0.00234234
0.000663923
-0.00268281
0.000681652
-0.00303347
0.000702035
-0.00339558
0.000724916
-0.00377031
0.00075017
-0.00415871
0.000777522
-0.00456166
0.000806594
0.000837989
-0.0049803
-0.000157281
0.000475436
-0.000431217
0.000826023
-0.000737197
0.000921491
-0.0010483
0.000936426
-0.0013616
0.000942862
-0.00167887
0.00095476
-0.00200197
0.000972199
-0.0023325
0.000994444
-0.00267188
0.00102104
-0.00302146
0.00105161
-0.00338246
0.00108592
-0.00375608
0.00112379
-0.00414337
0.00116481
-0.00454521
0.00120843
0.00125548
-0.0049627
-0.000155199
0.000630635
-0.000426726
0.00109755
-0.000730707
0.00122547
-0.00104007
0.00124579
-0.00135171
0.0012545
-0.00166735
0.0012704
-0.00198883
0.00129368
-0.00231774
0.00132335
-0.0026555
0.00135881
-0.00300345
0.00139955
-0.00336281
0.00144528
-0.00373476
0.00149574
-0.00412037
0.00155043
-0.00452052
0.00160858
0.00167125
-0.00493629
-0.000152428
0.000783063
-0.000420743
0.00136586
-0.000722056
0.00152679
-0.00102911
0.00155285
-0.00133853
0.00156392
-0.001652
0.00158387
-0.00197132
0.001613
-0.00229807
0.0016501
-0.00263368
0.00169442
-0.00297945
0.00174533
-0.00333662
0.00180244
-0.00370635
0.00186547
-0.00408972
0.0019338
-0.00448763
0.00200648
0.00208469
-0.00490107
-0.000148972
0.000932035
-0.000413269
0.00163016
-0.000711247
0.00182476
-0.00101541
0.00185701
-0.00132208
0.00187059
-0.00163283
0.00189462
-0.00194946
0.00192963
-0.00227352
0.00197416
-0.00260644
0.00202733
-0.0029495
0.00208839
-0.00330392
0.00215687
-0.00367087
0.00223242
-0.00405144
0.00231437
-0.00444653
0.00240157
0.00249522
-0.00485706
-0.000144836
0.00107687
-0.00040431
0.00188964
-0.000698281
0.00211873
-0.000998982
0.00215771
-0.00130235
0.00217395
-0.00160985
0.00220212
-0.00192325
0.00224303
-0.0022441
0.00229501
-0.00257379
0.00235702
-0.0029136
0.0024282
-0.00326474
0.002508
-0.00362836
0.00259605
-0.00400556
0.00269157
-0.00439725
0.00279326
0.00290224
-0.00480427
-0.000140028
0.0012169
-0.000393872
0.00214348
-0.000683164
0.00240803
-0.000979829
0.00245438
-0.00127936
0.00247348
-0.00158308
0.00250585
-0.00189273
0.00255268
-0.00220984
0.00261211
-0.00253577
0.00268295
-0.0028718
0.00276423
-0.0032191
0.00285531
-0.00357884
0.00295578
-0.00395211
0.00306484
-0.00433983
0.00318098
0.00330515
-0.00474274
-0.000134555
0.00135145
-0.00038196
0.00239089
-0.000665898
0.00269196
-0.000957958
0.00274644
-0.00125311
0.00276864
-0.00155254
0.00280527
-0.00185792
0.00285807
-0.00217076
0.00292495
-0.00249241
0.0030046
-0.00282412
0.00309593
-0.00316706
0.00319825
-0.00352236
0.00331109
-0.00389114
0.00343362
-0.00427432
0.00356416
0.00370335
-0.00467253
-0.000128427
0.00147988
-0.000368584
0.00263104
-0.000646489
0.00296987
-0.000933377
0.00303333
-0.00122364
0.0030589
-0.00151824
0.00309987
-0.00181884
0.00315866
-0.00212689
0.00323301
-0.00244374
0.00332145
-0.00277061
0.0034228
-0.00310864
0.00353628
-0.00345897
0.00366141
-0.0038227
0.00379736
-0.00420078
0.00394223
0.00409628
-0.0045937
-0.000121656
0.00160154
-0.000353753
0.00286314
-0.000624945
0.00324106
-0.000906095
0.00331448
-0.00119094
0.00334374
-0.00148021
0.00338914
-0.00177551
0.00345397
-0.00207828
0.00353578
-0.00238982
0.00363299
-0.00271132
0.0037443
-0.00304391
0.00386887
-0.00338871
0.00400621
-0.00374685
0.0041555
-0.00411927
0.00431465
0.00448335
-0.00450634
-0.000114256
0.00171579
-0.00033748
0.00308636
-0.000601272
0.00350485
-0.000876122
0.00358933
-0.00115503
0.00362265
-0.00143848
0.00367259
-0.00172799
0.00374348
-0.00202497
0.00383275
-0.00233068
0.0039387
-0.0026463
0.00405992
-0.00297292
0.00419549
-0.00331166
0.00434495
-0.00366366
0.00450751
-0.00402987
0.00468086
0.00486402
-0.00441054
-0.000106243
0.00182203
-0.000319779
0.0032999
-0.000575479
0.00376055
-0.00084347
0.00385732
-0.00111595
0.00389513
-0.00139307
0.00394971
-0.0016763
0.00402671
-0.00196699
0.00412345
-0.00226638
0.00423809
-0.00257561
0.00436915
-0.00289574
0.00451562
-0.00322786
0.00467707
-0.00357319
0.00485284
-0.00393267
0.00504034
0.00523774
-0.0043064
-9.76361e-05
0.00191967
-0.000300669
0.00350293
-0.000547578
0.00400746
-0.00080815
0.00411789
-0.0010737
0.00416067
-0.00134402
0.00422004
-0.00162049
0.00430318
-0.00190442
0.00440737
-0.002197
0.00453067
-0.00249934
0.00467149
-0.00281245
0.00482874
-0.00313741
0.00500203
-0.00347551
0.00519093
-0.00382778
0.00539261
0.00560404
-0.00419407
-8.84592e-05
0.00200813
-0.000280171
0.00369465
-0.000517581
0.00424487
-0.000770177
0.00437048
-0.00102831
0.00441881
-0.00129137
0.0044831
-0.00156061
0.00457242
-0.00183729
0.00468406
-0.00212258
0.00481596
-0.00241754
0.00496645
-0.00272313
0.00513433
-0.00304036
0.00531926
-0.00337064
0.00552121
-0.00371523
0.0057372
0.00596249
-0.00407368
-7.87404e-05
0.00208687
-0.000258309
0.00387421
-0.000485504
0.00447206
-0.000729566
0.00461455
-0.00097981
0.00466905
-0.00123514
0.00473843
-0.0014967
0.00483398
-0.00176569
0.00495304
-0.00204321
0.00509348
-0.00233032
0.00525356
-0.00262792
0.00543194
-0.00293689
0.00562823
-0.00325873
0.00584304
-0.00359522
0.00607369
0.0063128
-0.00394553
-6.85153e-05
0.00215539
-0.000235113
0.00404081
-0.000451364
0.00468832
-0.000686337
0.00484952
-0.000928226
0.00491094
-0.0011754
0.0049856
-0.00142883
0.00508741
-0.00168967
0.00521388
-0.00195897
0.00536278
-0.00223774
0.00553233
-0.00252686
0.00572105
-0.00282695
0.00592833
-0.00313944
0.00615553
-0.00346725
0.0064015
0.00665522
-0.00380967
-5.78232e-05
0.00221321
-0.000210615
0.0041936
-0.000415184
0.00489288
-0.000640508
0.00507484
-0.000873589
0.00514402
-0.00111217
0.00522418
-0.00135705
0.0053323
-0.00160931
0.00546614
-0.00186995
0.00562342
-0.00213995
0.00580234
-0.00242022
0.00600132
-0.00271123
0.00621933
-0.0030138
0.0064581
-0.00333216
0.00671986
0.00699062
-0.00366756
-4.66562e-05
0.00225986
-0.000184851
0.0043318
-0.000376988
0.00508502
-0.000592103
0.00528996
-0.000815933
0.00536785
-0.00104551
0.00545376
-0.00128143
0.00556822
-0.00152471
0.00570941
-0.00177625
0.00587496
-0.002037
0.00606308
-0.00230785
0.00627218
-0.00258913
0.00650061
-0.0028802
0.00674917
-0.00318517
0.00702483
0.0073228
-0.00351735
-3.50514e-05
0.00229492
-0.000157867
0.00445461
-0.000336804
0.00526396
-0.00054115
0.00549431
-0.000755294
0.00558199
-0.000975472
0.00567393
-0.00120204
0.0057948
-0.00143593
0.0059433
-0.00167799
0.00611702
-0.00192906
0.00631415
-0.00219013
0.00653324
-0.00246201
0.00677249
-0.00274393
0.00703109
-0.00303403
0.00731493
0.00765828
-0.00336951
-2.30452e-05
0.00231796
-0.000129711
0.00456128
-0.000294666
0.00542891
-0.000487684
0.00568732
-0.000691714
0.00578602
-0.000902113
0.00588433
-0.00111896
0.00601164
-0.00134308
0.00616743
-0.00157528
0.00634922
-0.00181631
0.00655518
-0.00206705
0.00678398
-0.00232846
0.0070339
-0.00260096
0.00730358
-0.00288541
0.00759937
0.00793246
-0.00315959
-1.0628e-05
0.00232859
-0.000100424
0.00465108
-0.000250612
0.0055791
-0.000431749
0.00586846
-0.000625238
0.00597951
-0.00082549
0.00608459
-0.00103225
0.0062184
-0.00124625
0.00638142
-0.00146822
0.00657119
-0.00169884
0.00678581
-0.00193884
0.00702398
-0.00218911
0.00728417
-0.00245011
0.00756459
-0.00271992
0.00786918
0.00821235
-0.00299981
2.24078e-06
0.00232635
-7.00046e-05
0.00472332
-0.000204693
0.00571379
-0.000373406
0.00603717
-0.000555916
0.00616202
-0.000745667
0.00627434
-0.000942004
0.00641474
-0.00114553
0.00658495
-0.00135693
0.00678259
-0.00157681
0.00700569
-0.00180579
0.00725296
-0.00204472
0.0075231
-0.00229467
0.00781454
-0.00255594
0.00813045
0.00848061
-0.0028242
1.44784e-05
0.00231187
-3.82485e-05
0.00477605
-0.000157027
0.00583257
-0.000312741
0.00619289
-0.0004838
0.00633308
-0.000662713
0.00645325
-0.000848306
0.00660033
-0.00104104
0.00677768
-0.00124153
0.00698309
-0.00145037
0.00721453
-0.00166813
0.00747072
-0.00189564
0.00775062
-0.00213417
0.00805307
-0.00238391
0.0083802
0.0087381
-0.0026414
2.69823e-05
0.00228489
-3.13714e-06
0.00480617
-0.000107901
0.00593733
-0.000249799
0.00633479
-0.000408945
0.00649223
-0.000576701
0.00662101
-0.000751246
0.00677487
-0.000932874
0.00695931
-0.00112216
0.00717237
-0.00131966
0.00741203
-0.00152593
0.00767698
-0.00174178
0.00796647
-0.0019684
0.00827969
-0.00220573
0.00861752
0.0089832
-0.00245083
3.90045e-05
0.00224588
2.62683e-05
0.0048189
-5.80598e-05
0.00602166
-0.00018465
0.00646138
-0.000331447
0.00663903
-0.000487714
0.00677727
-0.000650913
0.00693807
-0.000821151
0.00712954
-0.000998934
0.00735016
-0.00118479
0.00759788
-0.00137926
0.00787145
-0.00158311
0.00817032
-0.00179742
0.008494
-0.00202219
0.0088423
0.00921576
-0.00225475
5.08408e-05
0.00219504
5.78825e-05
0.00481186
-5.84117e-06
0.00608538
-0.000117455
0.00657299
-0.000251405
0.00677298
-0.00039583
0.0069217
-0.000547403
0.00708965
-0.000705978
0.00728812
-0.000871976
0.00751615
-0.00104589
0.0077718
-0.00122824
0.0080538
-0.00141973
0.00836181
-0.00162132
0.0086956
-0.00183311
0.00905408
0.00943569
-0.00205303
6.24691e-05
0.00213257
9.02774e-05
0.00478405
4.65137e-05
0.00612915
-4.84542e-05
0.00666796
-0.000168884
0.00689341
-0.000301138
0.00705395
-0.000440818
0.00722933
-0.000587469
0.00743477
-0.000741414
0.0076701
-0.000903098
0.00793348
-0.00107301
0.00822372
-0.0012518
0.00854059
-0.00144028
0.00888408
-0.00163855
0.00925234
0.00964231
-0.00184517
7.36709e-05
0.0020589
0.000122827
0.0047349
0.000100283
0.00615169
2.23976e-05
0.00674584
-8.40405e-05
0.00699984
-0.000203726
0.00717364
-0.000331261
0.00735686
-0.000465749
0.00756926
-0.000607383
0.00781173
-0.000756567
0.00808266
-0.000913747
0.0083809
-0.00107949
0.00870633
-0.0012545
0.00905909
-0.00143884
0.00943668
0.00983493
-0.00163146
8.42391e-05
0.00197466
0.0001552
0.00466394
0.000154846
0.00615205
9.49643e-05
0.00680573
2.14624e-06
0.00709266
-0.000103723
0.00727951
-0.000218865
0.007472
-0.000340944
0.00769133
-0.000470029
0.00794082
-0.000606454
0.00821909
-0.000750611
0.00852505
-0.000902983
0.0088587
-0.00106418
0.00922029
-0.00123427
0.00960676
0.0100131
-0.0014124
9.39925e-05
0.00188067
0.000187055
0.00457087
0.000209841
0.00612926
0.000169172
0.00684639
9.24317e-05
0.0071694
-2.04732e-06
0.00737399
-0.000103785
0.00757374
-0.000213211
0.00780076
-0.000329503
0.00805711
-0.00045293
0.00834252
-0.000583793
0.00865592
-0.000722474
0.00899738
-0.000869537
0.00936736
-0.00102509
0.00976232
0.0101763
-0.00118837
0.000102755
0.00177792
0.000218011
0.00445562
0.000264922
0.00608235
0.000244515
0.0068668
0.000183841
0.00723008
0.000103947
0.00745388
1.36783e-05
0.00766401
-8.27495e-05
0.00789719
-0.000185987
0.00816035
-0.000296175
0.0084527
-0.000413496
0.00877324
-0.000538194
0.00912208
-0.000670795
0.00949996
-0.000811599
0.00990312
0.0103244
-0.000959675
0.00011035
0.00166757
0.000247659
0.00431831
0.000319657
0.00601035
0.000320696
0.00686576
0.000276991
0.00727378
0.000211225
0.00751965
0.000134597
0.00774064
5.05213e-05
0.00798127
-3.98162e-05
0.00825069
-0.000136405
0.00854929
-0.000239953
0.00887679
-0.000350402
0.00923253
-0.000468197
0.00961775
-0.000594089
0.010029
0.010457
-0.000726649
0.000116614
0.00155095
0.000275565
0.00415936
0.000373551
0.00591236
0.000397341
0.00684197
0.000371609
0.00729951
0.000320559
0.0075707
0.000257322
0.00780387
0.000186591
0.008052
0.000109486
0.00832779
2.60516e-05
0.00863273
-6.34434e-05
0.00896628
-0.000159442
0.00932853
-0.000262088
0.0097204
-0.000372759
0.0101397
0.0105739
-0.000489674
0.000121401
0.00142955
0.000301267
0.00397949
0.00042604
0.00578759
0.00047398
0.00679403
0.000467376
0.00730612
0.000431737
0.00760633
0.000382201
0.00785341
0.000324794
0.0081094
0.00026119
0.00839139
0.000191707
0.00870221
0.000116135
0.00904185
3.4337e-05
0.00941033
-5.32691e-05
0.00980801
-0.00014726
0.0102337
0.0106762
-0.000249522
0.000124597
0.00130495
0.000324283
0.00377981
0.00047648
0.00563539
0.000550041
0.00672047
0.000563895
0.00729226
0.000544488
0.00762574
0.000509057
0.00788884
0.000465135
0.00815333
0.000415104
0.00844143
0.000359499
0.00875781
0.000298331
0.00910302
0.000231595
0.00947706
0.000159261
0.00988034
8.11233e-05
0.0103118
0.0107665
-9.2162e-06
0.000126127
0.00117883
0.000344111
0.00356182
0.000524141
0.00545536
0.000624844
0.00661977
0.000660674
0.00725643
0.000658488
0.00762793
0.000637656
0.00790967
0.000607436
0.00818355
0.000571086
0.00847778
0.000529481
0.00879942
0.000482784
0.00914972
0.000430977
0.00952887
0.0003741
0.00993722
0.000311531
0.0103744
0.010834
0.000244016
0.000125961
0.00105287
0.000360188
0.00332759
0.000568204
0.00524735
0.000697585
0.00649039
0.000757098
0.00719692
0.000773339
0.00761169
0.000767726
0.00791529
0.000751476
0.0081998
0.000728932
0.00850032
0.000701421
0.00882693
0.000669276
0.00918186
0.000632551
0.0095656
0.000591357
0.00997841
0.000545693
0.01042
0.0108843
0.000495445
0.000124126
0.00092874
0.000371997
0.00307972
0.000607777
0.00501157
0.00076732
0.00633084
0.000852412
0.00711183
0.000888534
0.00757556
0.000898942
0.00790488
0.000897008
0.00820173
0.000888412
0.00850892
0.000875073
0.00884027
0.000857558
0.00919938
0.00083604
0.00958711
0.000810695
0.0100038
0.000781539
0.0104492
0.0109176
0.000748237
0.00012071
0.00080803
0.000379135
0.0028213
0.000641914
0.00474879
0.000832954
0.0061398
0.000945695
0.00699909
0.00100343
0.00751783
0.0010309
0.00787741
0.00104375
0.00818888
0.00104927
0.00850339
0.00105018
0.00883936
0.00104735
0.00920221
0.00104109
0.00959338
0.00103159
0.0100132
0.00101875
0.010462
0.0109339
0.00100236
0.000115849
0.000692181
0.00038129
0.00255586
0.000669626
0.00446045
0.000893237
0.00591619
0.00103583
0.0068565
0.00111723
0.00743642
0.00116307
0.00783157
0.00119135
0.0081606
0.00121125
0.00848349
0.00122648
0.00882413
0.00123836
0.00919033
0.00124735
0.00958439
0.0012537
0.0100069
0.00125721
0.0104585
0.0109337
0.00125746
0.000109727
0.000582454
0.000378283
0.0022873
0.000689913
0.00414882
0.000946761
0.00565935
0.00112147
0.00668178
0.00122891
0.00732898
0.0012948
0.00776568
0.00133939
0.00811602
0.00137402
0.00844887
0.00140369
0.00879445
0.00143031
0.00916371
0.00145454
0.00956016
0.00147673
0.00998471
0.00149671
0.0104386
0.0109167
0.00151371
0.000102565
0.000479889
0.000370116
0.00201975
0.000701823
0.00381712
0.000991982
0.00536919
0.00120104
0.00647273
0.00133721
0.00719281
0.00142524
0.00767765
0.00148734
0.00805392
0.00153722
0.00839898
0.00158151
0.00875016
0.00162289
0.00912233
0.00166236
0.0095207
0.0017004
0.00994667
0.00173697
0.010402
0.0108827
0.00177097
9.461e-05
0.000385279
0.000356993
0.00175737
0.000704526
0.00346958
0.00102725
0.00504646
0.00127268
0.0062273
0.00144056
0.00702493
0.00155328
0.00756493
0.00163449
0.0079727
0.00170041
0.00833306
0.0017596
0.00869098
0.00181582
0.00906611
0.00187052
0.00946599
0.00192439
0.00989281
0.00197761
0.0103488
0.0108316
0.00202873
8.61226e-05
0.000299156
0.000339339
0.00150415
0.000697417
0.0031115
0.00105089
0.00469298
0.00133428
0.00594392
0.00153702
0.00682219
0.00167748
0.00742447
0.00177994
0.00787025
0.00186302
0.00824998
0.00193757
0.00861643
0.00200876
0.00899492
0.00207871
0.00939604
0.00214835
0.00982317
0.00221821
0.0102789
0.0107633
0.00228647
7.73571e-05
0.000221799
0.000317791
0.00126372
0.00068024
0.00274906
0.00106129
0.00431193
0.0013835
0.00562171
0.00162428
0.00658142
0.00179603
0.00725272
0.00192244
0.00774384
0.00202429
0.00814812
0.00211494
0.00852579
0.00220133
0.00890852
0.00228657
0.00931081
0.00237193
0.0097378
0.00245838
0.0101924
0.0106779
0.00254374
6.8547e-05
0.000153252
0.000293157
0.00103911
0.000653199
0.00238901
0.00105705
0.00390808
0.00141783
0.00526093
0.00169959
0.00629965
0.0019066
0.00704571
0.00206036
0.00759008
0.0021832
0.00802528
0.00229107
0.00841791
0.00239311
0.00880648
0.00249373
0.00921019
0.00259476
0.00963677
0.00269772
0.0100895
0.0105756
0.00280011
5.98933e-05
9.33587e-05
0.000266364
0.000832638
0.000617053
0.00203832
0.00103718
0.00348796
0.00143473
0.00486338
0.00175982
0.00597456
0.0020063
0.00679923
0.00219154
0.00740484
0.00233832
0.0078785
0.00246511
0.00829112
0.00258355
0.00868804
0.00269979
0.00909395
0.00281647
0.0095201
0.00293585
0.00997011
0.0104562
0.00305515
5.15616e-05
4.17971e-05
0.000238382
0.000645818
0.000573126
0.00170358
0.00100135
0.00305974
0.00143183
0.00443289
0.00180148
0.00560492
0.00209164
0.00650907
0.00231313
0.00718334
0.00248772
0.00770391
0.00263587
0.00814298
0.00277192
0.00855198
0.00290426
0.00896162
0.00303664
0.00938771
0.00317237
0.00983439
0.0103202
0.00330844
4.36832e-05
-1.88607e-06
0.00021014
0.000479361
0.00052323
0.00139049
0.000950119
0.00263285
0.00140727
0.00397574
0.00182094
0.00519124
0.00215847
0.00617155
0.00242151
0.0069203
0.00262873
0.0074967
0.00280162
0.00797008
0.00295721
0.0083964
0.0031065
0.00881232
0.00325483
0.00923938
0.00340687
0.00968236
0.0101675
0.00355956
3.6359e-05
-3.82451e-05
0.000182458
0.000333262
0.000469496
0.00110345
0.000885107
0.00221724
0.00136002
0.00350083
0.0018147
0.00473656
0.0022021
0.00578415
0.00251212
0.00661027
0.00275774
0.00725108
0.00295993
0.00776789
0.00313791
0.00821842
0.00330562
0.00864461
0.00347045
0.00907455
0.00363888
0.00951392
0.00999833
0.00380804
2.96605e-05
-6.79055e-05
0.000156007
0.000206915
0.000414146
0.000845312
0.000808998
0.00182239
0.00129039
0.00301944
0.00177984
0.00424711
0.00221753
0.00534646
0.00257949
0.00624832
0.00287001
0.00696055
0.00310734
0.00753056
0.00331181
0.00801395
0.00350032
0.0084561
0.00368271
0.00889217
0.00386785
0.00932878
0.0098127
0.00405347
2.36379e-05
-9.15434e-05
0.000131299
9.9254e-05
0.000359262
0.000617348
0.000725328
0.00145632
0.00120034
0.00254443
0.00171468
0.00373276
0.0021999
0.00486125
0.0026173
0.00583092
0.00295949
0.00661837
0.00323904
0.00725101
0.00347564
0.00777735
0.0036886
0.00824314
0.00389045
0.00869033
0.00409305
0.00912618
0.00961054
0.00429521
1.8321e-05
-0.000109864
0.000108696
8.87924e-06
0.00030661
0.000419434
0.000638066
0.00112487
0.00109368
0.00208881
0.00161949
0.00320695
0.00214524
0.0043355
0.00261884
0.00535731
0.00301877
0.00621844
0.00334858
0.0069212
0.00362462
0.0075013
0.00386738
0.00800038
0.00409182
0.00846588
0.00431341
0.00890459
0.00939118
0.00453277
1.37219e-05
-0.000123586
8.84347e-05
-6.58336e-05
0.000257542
0.000250327
0.0005511
0.000831309
0.000975745
0.00166417
0.00149712
0.00268558
0.00205147
0.00378115
0.00257771
0.00483107
0.00303936
0.00575679
0.0034276
0.00653296
0.00375198
0.00717692
0.0040319
0.00772046
0.00428397
0.00821381
0.00452713
0.00866144
0.00915351
0.0047648
9.83693e-06
-0.000133423
7.06425e-05
-0.000126639
0.000212984
0.000107985
0.000467782
0.000576511
0.000852719
0.00127923
0.00135322
0.00218508
0.00191958
0.00321479
0.00248913
0.00426152
0.00301244
0.00523348
0.00346595
0.00607945
0.00384851
0.00679435
0.00417518
0.0073938
0.00446206
0.00792693
0.00473174
0.00839176
0.00889537
0.00498987
6.64685e-06
-0.00014007
5.53483e-05
-0.000175341
0.000173477
-1.01439e-05
0.000390648
0.00035934
0.000730703
0.000939174
0.0011957
0.00172009
0.0017545
0.00265599
0.00235159
0.00366442
0.00293023
0.00465484
0.00345227
0.00555742
0.00390234
0.00634427
0.00428715
0.00700899
0.00461904
0.00759505
0.00492164
0.00808916
0.00861133
0.00520568
4.1156e-06
-0.000144186
4.24906e-05
-0.000213716
0.000139223
-0.000106876
0.000321336
0.000177227
0.000614867
0.000645643
0.00103355
0.00130141
0.00156506
0.00212447
0.00216847
0.00306102
0.00278827
0.00403504
0.00337557
0.00497012
0.00389957
0.00582028
0.00435406
0.0065545
0.00474371
0.0072054
0.00509134
0.00774152
0.0082992
0.00540348
2.18975e-06
-0.000146375
3.19231e-05
-0.000243449
0.000110134
-0.000185087
0.000260638
2.67225e-05
0.000508917
0.000397365
0.000875253
0.00093507
0.00136284
0.00163689
0.00194883
0.00247502
0.0025879
0.00339598
0.00322809
0.00432993
0.00382554
0.00522283
0.00435955
0.00602049
0.00481995
0.00674499
0.00522609
0.00733538
0.0079363
0.00558899
8.02797e-07
-0.000147178
2.34221e-05
-0.000266068
8.5877e-05
-0.000247541
0.000208626
-9.60268e-05
0.000414965
0.000191026
0.000727536
0.000622498
0.00115994
0.00120449
0.00170647
0.00192849
0.00233796
0.00276449
0.00300863
0.00365926
0.00366921
0.00456225
0.00428351
0.00540619
0.00483215
0.00619635
0.00530426
0.00686327
0.00751801
0.00572256
-1.46774e-07
-0.000147031
1.66911e-05
-0.000282906
6.59211e-05
-0.000296771
0.000164796
-0.000194902
0.000333664
2.21585e-05
0.000594675
0.000361487
0.000966769
0.000832393
0.00145723
0.00143803
0.00205434
0.00216738
0.00272557
0.00298804
0.00342708
0.00386074
0.00411122
0.00472205
0.0047492
0.00555837
0.0053208
0.00629166
0.0070438
0.00579501
-8.74865e-07
-0.000146157
1.13826e-05
-0.000295164
4.95926e-05
-0.000334981
0.00012822
-0.000273529
0.000264505
-0.000114127
0.000478491
0.000147502
0.000790541
0.000520342
0.0012157
0.00101287
0.00175673
0.00162635
0.00239706
0.0023477
0.00310717
0.00315063
0.00383783
0.00399139
0.00455345
0.00484276
0.00523873
0.00560638
0.00648517
0.00579736
-1.30147e-06
-0.000144855
7.14545e-06
-0.000303611
3.61374e-05
-0.000363973
9.77005e-05
-0.000335092
0.000206162
-0.000222589
0.000378772
-2.51087e-05
0.000634837
0.000264278
0.000992587
0.000655117
0.00146409
0.00115485
0.00204738
0.00176441
0.00272991
0.0024681
0.00347247
0.00324883
0.0042364
0.00407883
0.00501671
0.00482607
0.00582577
0.0056761
-1.5921e-06
-0.000143263
3.61963e-06
-0.000308822
2.47886e-05
-0.000385142
7.19273e-05
-0.000382231
0.000156828
-0.000307489
0.000293882
-0.000162163
0.000500086
5.80736e-05
0.00079367
0.000361533
0.00119093
0.000757593
0.00170069
0.00125464
0.00232375
0.00184504
0.00303916
0.00253342
0.00381136
0.00330663
0.00464713
0.0039903
0.00506981
0.00540309
-1.88182e-06
-0.000141381
5.15258e-07
-0.000311219
1.48259e-05
-0.000399453
4.96107e-05
-0.000417015
0.000114531
-0.000372409
0.000221389
-0.000269021
0.000384482
-0.00010502
0.00062025
0.000125765
0.000945588
0.000432255
0.00137548
0.000824753
0.00191783
0.00130269
0.002572
0.00187925
0.00331074
0.0025679
0.00414653
0.00315451
0.00424244
0.0049739
-2.25931e-06
-0.000139122
-2.62014e-06
-0.000310859
5.61453e-06
-0.000407688
2.9599e-05
-0.000441
7.7388e-05
-0.000420198
0.000158614
-0.000350248
0.000284995
-0.0002314
0.000470465
-5.97057e-05
0.000730544
0.000172176
0.00108198
0.000473313
0.00153538
0.000849285
0.0021055
0.00130914
0.0027759
0.00189749
0.00355701
0.0023734
0.00339028
0.00440917
-2.77479e-06
-0.000136347
-5.85109e-06
-0.000307782
-3.3286e-06
-0.00041021
1.0954e-05
-0.000455282
4.37834e-05
-0.000453027
0.000103051
-0.000409515
0.000198241
-0.00032659
0.000340752
-0.000202216
0.0005439
-3.09724e-05
0.000823155
0.000194058
0.0011901
0.000482344
0.00166561
0.000833622
0.00224558
0.00131753
0.0029327
0.00168628
0.00257124
0.00375174
-3.46515e-06
-0.000132882
-9.34521e-06
-0.000301902
-1.2344e-05
-0.000407211
-7.00822e-06
-0.000460618
1.2472e-05
-0.000472507
5.26263e-05
-0.00044967
0.000121111
-0.000395075
0.000227076
-0.000308181
0.000381463
-0.00018536
0.000597096
-2.15744e-05
0.00088595
0.00019349
0.0012666
0.000452975
0.00174788
0.000836244
0.00232151
0.00111265
0.00183765
0.0030551
-4.34613e-06
-0.000128536
-1.31821e-05
-0.000293066
-2.16173e-05
-0.000398776
-2.47116e-05
-0.000457524
-1.73868e-05
-0.000479832
5.82233e-06
-0.000472879
5.11213e-05
-0.000440374
0.000125787
-0.000382847
0.000238547
-0.00029812
0.000399471
-0.000182498
0.000620087
-2.7127e-05
0.000912971
0.000160091
0.00129754
0.000451671
0.00175456
0.000655633
0.0012214
0.00237081
-5.41168e-06
-0.000123124
-1.73665e-05
-0.000281111
-3.12033e-05
-0.000384939
-4.23365e-05
-0.000446391
-4.62478e-05
-0.000475921
-3.82997e-05
-0.000480827
-1.3445e-05
-0.000465229
3.40841e-05
-0.000430376
0.000111116
-0.000375151
0.000225367
-0.000296749
0.000386953
-0.000188713
0.000603161
-5.61175e-05
0.000898267
0.000156566
0.00124671
0.000307186
0.000730393
0.00173772
-6.63666e-06
-0.000116487
-2.18435e-05
-0.000265905
-4.10363e-05
-0.000365747
-5.98626e-05
-0.000427564
-7.42356e-05
-0.000461548
-8.01766e-05
-0.000474886
-7.35587e-05
-0.000471847
-4.98439e-05
-0.000454091
-3.85644e-06
-0.000421139
7.06451e-05
-0.000371251
0.000181288
-0.000299356
0.000332763
-0.000207593
0.000547799
-5.84699e-05
0.000802342
5.26425e-05
0.000355841
0.00117689
-7.98041e-06
-0.000108507
-2.65108e-05
-0.000247374
-5.09578e-05
-0.0003413
-7.71091e-05
-0.000401413
-0.000101215
-0.000437442
-0.00011983
-0.000456271
-0.000129572
-0.000462105
-0.00012687
-0.000456792
-0.000107706
-0.000440303
-6.78009e-05
-0.000411156
-2.29383e-06
-0.000364863
9.75969e-05
-0.000307483
0.000242089
-0.000202963
0.00042024
-0.000125508
8.29317e-05
0.000693149
-9.39094e-06
-9.91161e-05
-3.12325e-05
-0.000225533
-6.07437e-05
-0.000311788
-9.37829e-05
-0.000368374
-0.000126867
-0.000404358
-0.000156988
-0.00042615
-0.000181369
-0.000437724
-0.00019722
-0.000440941
-0.000201531
-0.000435992
-0.000191002
-0.000421685
-0.000160528
-0.000395337
-0.000108734
-0.000359278
-2.41051e-05
-0.000287591
9.74363e-05
-0.00024705
-0.00010003
0.000280398
-1.08092e-05
-8.83069e-05
-3.58518e-05
-0.00020049
-7.01304e-05
-0.00027751
-0.000109523
-0.000328981
-0.000150759
-0.000363123
-0.000191192
-0.000385718
-0.000228539
-0.000400376
-0.000260631
-0.000408848
-0.000285209
-0.000411415
-0.000299721
-0.000407173
-0.000300641
-0.000394417
-0.000286704
-0.000373215
-0.000243787
-0.000330508
-0.00018296
-0.000307876
-0.000213298
-6.96918e-05
-1.21731e-05
-7.61338e-05
-4.02038e-05
-0.000172459
-7.88384e-05
-0.000238875
-0.000123941
-0.000283878
-0.000172409
-0.000314655
-0.000221893
-0.000336234
-0.000270509
-0.00035176
-0.000316576
-0.000362781
-0.000358397
-0.000369594
-0.000394027
-0.000371543
-0.00042094
-0.000367504
-0.000437251
-0.000356904
-0.000433223
-0.000334537
-0.000418005
-0.000323094
-0.000274145
-0.000357158
-1.34217e-05
-6.27121e-05
-4.41261e-05
-0.000141755
-8.65929e-05
-0.000196408
-0.000136652
-0.000233819
-0.000191332
-0.000259975
-0.000248523
-0.000279043
-0.000306658
-0.000293625
-0.00036443
-0.000305009
-0.000420559
-0.000313465
-0.000473563
-0.000318539
-0.00052156
-0.000319507
-0.000562575
-0.000315889
-0.000590724
-0.000306387
-0.000611048
-0.00030277
-0.000284121
-0.000601072
-1.44985e-05
-4.82136e-05
-4.74692e-05
-0.000108784
-9.31413e-05
-0.000150736
-0.000147302
-0.000179658
-0.00020708
-0.000200197
-0.000270552
-0.000215572
-0.000336393
-0.000227784
-0.000403577
-0.000237824
-0.000471128
-0.000245914
-0.000537913
-0.000251755
-0.000602512
-0.000254908
-0.000663245
-0.000255155
-0.000716868
-0.000252764
-0.000765843
-0.000253795
-0.000251534
-0.00079843
-1.53545e-05
-3.28591e-05
-5.0104e-05
-7.40348e-05
-9.82663e-05
-0.000102574
-0.000155588
-0.000122336
-0.000219269
-0.000136517
-0.000287523
-0.000147318
-0.000359203
-0.000156104
-0.000433479
-0.000163548
-0.000509593
-0.000169801
-0.000586666
-0.000174681
-0.000663629
-0.000177945
-0.000739235
-0.000179549
-0.000811893
-0.000180107
-0.000882993
-0.000182695
-0.000186386
-0.000948141
-1.59507e-05
-1.69083e-05
-5.19279e-05
-3.80576e-05
-0.000101796
-5.27055e-05
-0.00016127
-6.28621e-05
-0.000227596
-7.0191e-05
-0.000299078
-7.58353e-05
-0.000374683
-8.04984e-05
-0.00045371
-8.45209e-05
-0.000535538
-8.79726e-05
-0.000619463
-9.07565e-05
-0.000704658
-9.27498e-05
-0.000790259
-9.39484e-05
-0.000875631
-9.47351e-05
-0.000961921
-9.64048e-05
-9.93461e-05
-0.00104896
-1.626e-05
-5.287e-05
-0.000103613
-0.000164185
-0.000231854
-0.000304972
-0.000382559
-0.000463978
-0.000548675
-0.000636034
-0.000725355
-0.000815989
-0.000907737
-0.00100177
-0.00109977
-0.00515153
0.000162648
-0.00525623
0.000104893
-0.00534442
8.83616e-05
-0.005399
5.47303e-05
-0.00544512
4.62644e-05
-0.00547048
2.54847e-05
-0.00549126
2.08966e-05
-0.00549866
7.50431e-06
-0.00550341
4.85034e-06
-0.00549921
-4.09863e-06
-0.00549317
-5.95329e-06
-0.00548085
-1.22449e-05
-0.00546718
-1.35922e-05
-0.00544916
-1.79546e-05
-0.00543003
-1.90838e-05
-0.00540775
-2.22336e-05
-0.00538443
-2.32753e-05
-0.00535874
-2.56733e-05
-0.005332
-2.67159e-05
-2.86976e-05
-0.00514311
0.000325457
-0.00524808
0.000209861
-0.00533672
0.000176999
-0.00539166
0.000109673
-0.00543826
9.2864e-05
-0.00546404
5.12657e-05
-0.0054853
4.21493e-05
-0.00549314
1.53484e-05
-0.00549834
1.00537e-05
-0.00549461
-7.8295e-06
-0.00548904
-1.15267e-05
-0.00547718
-2.41043e-05
-0.00546397
-2.67972e-05
-0.00544642
-3.55074e-05
-0.00542774
-3.77657e-05
-0.00540592
-4.40505e-05
-0.00538307
-4.61314e-05
-0.00535783
-5.09135e-05
-0.00533155
-5.29938e-05
-5.69445e-05
-0.00512627
0.000489025
-0.0052318
0.000315395
-0.00532132
0.000266514
-0.00537701
0.000165361
-0.00542455
0.000140406
-0.00545118
7.78987e-05
-0.00547338
6.43453e-05
-0.00548212
2.4089e-05
-0.00548822
1.61596e-05
-0.00548542
-1.06313e-05
-0.00548078
-1.61671e-05
-0.00546985
-3.50332e-05
-0.00545756
-3.9086e-05
-0.00544094
-5.21306e-05
-0.00542317
-5.55352e-05
-0.00540228
-6.49438e-05
-0.00538033
-6.80777e-05
-0.00535601
-7.52363e-05
-0.00533064
-7.83649e-05
-8.42805e-05
-0.00510098
0.000653713
-0.00520741
0.000421824
-0.00529821
0.000357323
-0.00535505
0.000222193
-0.00540399
0.000189348
-0.00543191