/*--------------------------------*- C++ -*----------------------------------*\
  =========                 |
  \\      /  F ield         | OpenFOAM: The Open Source CFD Toolbox
   \\    /   O peration     | Website:  https://openfoam.org
    \\  /    A nd           | Version:  7
     \\/     M anipulation  |
\*---------------------------------------------------------------------------*/
FoamFile
{
    version     2.0;
    format      ascii;
    class       surfaceScalarField;
    location    "54.999";
    object      phi;
}
// * * * * * * * * * * * * * * * * * * * * * * * * * * * * * * * * * * * * * //

dimensions      [0 3 -1 0 0 0 0];

internalField   nonuniform List<scalar> 
22580
(
-0.0010756
2.49883e-05
-0.00109754
2.28736e-05
-0.00111767
2.08835e-05
-0.00113609
1.89638e-05
-0.00115295
1.71273e-05
-0.00116835
1.53613e-05
-0.00118239
1.36517e-05
-0.00119515
1.19864e-05
-0.00120672
1.03545e-05
-0.00121715
8.74655e-06
-0.0012265
7.15489e-06
-0.00123479
5.57328e-06
-0.00124207
3.99785e-06
-0.00124836
2.42588e-06
-0.00125364
8.38155e-07
-0.00125797
-6.95906e-07
-0.00126136
-2.15164e-06
-0.00126384
-3.55045e-06
-0.00126544
-4.82087e-06
-0.00126619
-6.0247e-06
-0.00126609
-7.16537e-06
-0.00126514
-8.23963e-06
-0.00126336
-9.24278e-06
-0.00126074
-1.01702e-05
-0.0012573
-1.10103e-05
-0.00125301
-1.17621e-05
-0.00124789
-1.24108e-05
-0.00124192
-1.29528e-05
-0.00123509
-1.339e-05
-0.00122741
-1.37287e-05
-0.00121888
-1.39592e-05
-0.00120946
-1.40819e-05
-0.00119917
-1.41005e-05
-0.00118798
-1.40205e-05
-0.0011759
-1.38492e-05
-0.0011629
-1.35944e-05
-0.00114899
-1.32626e-05
-0.00113416
-1.28682e-05
-0.00111839
-1.2423e-05
-0.00110169
-1.19404e-05
-0.00108405
-1.14348e-05
-0.00106547
-1.09214e-05
-0.00104593
-1.04162e-05
-0.00102545
-9.93542e-06
-0.00100401
-9.49566e-06
-0.000981621
-9.11338e-06
-0.000958286
-8.80474e-06
-0.000934008
-8.58533e-06
-0.000908795
-8.47035e-06
-0.000882655
-8.47374e-06
-0.000855601
-8.60505e-06
-0.000827647
-8.87912e-06
-0.000798807
-9.30617e-06
-0.000769097
-9.89457e-06
-0.000738538
-1.06509e-05
-0.000707148
-1.15797e-05
-0.000674952
-1.26829e-05
-0.000641971
-1.39624e-05
-0.000608227
-1.5423e-05
-0.000573757
-1.70333e-05
-0.000538589
-1.88044e-05
-0.000502755
-2.07275e-05
-0.000466285
-2.27911e-05
-0.000429213
-2.49823e-05
-0.000391573
-2.72876e-05
-0.000353396
-2.96935e-05
-0.000314725
-3.2169e-05
-0.000275595
-3.47045e-05
-0.000236042
-3.72804e-05
-0.000196107
-3.98781e-05
-0.000155817
-4.24744e-05
-0.000115219
-4.50427e-05
-7.43491e-05
-4.75665e-05
-3.32376e-05
-5.00348e-05
8.07361e-06
-5.24093e-05
4.95496e-05
-5.46805e-05
9.11573e-05
-5.68299e-05
0.000132863
-5.88391e-05
0.000174634
-6.06919e-05
0.000216439
-6.23738e-05
0.000258247
-6.38719e-05
0.00030003
-6.51748e-05
0.000341759
-6.62732e-05
0.000383409
-6.71594e-05
0.000424955
-6.78276e-05
0.000466374
-6.82739e-05
0.000507642
-6.84966e-05
0.000548741
-6.84953e-05
0.000589651
-6.82719e-05
0.000630355
-6.78299e-05
0.000670836
-6.71745e-05
0.00071108
-6.63124e-05
0.000751074
-6.5252e-05
0.000790806
-6.40032e-05
0.000830265
-6.25768e-05
0.000869444
-6.09851e-05
0.000908333
-5.92415e-05
0.000946927
-5.73602e-05
0.00098522
-5.53561e-05
0.00102321
-5.32451e-05
0.00106089
-5.10433e-05
0.00109826
-4.87676e-05
0.00113533
-4.6435e-05
0.00117208
-4.40627e-05
0.00120854
-4.16684e-05
5.21577e-06
0.00124469
-3.92694e-05
3.11756e-06
0.00128055
-3.68833e-05
1.02497e-06
0.00131612
-3.45299e-05
-1.0381e-06
0.0013514
-3.22246e-05
-3.06427e-06
0.00138642
-2.9986e-05
-5.0339e-06
0.00142119
-2.78333e-05
-6.93097e-06
0.00145571
-2.5784e-05
-8.73908e-06
0.00149002
-2.38618e-05
-1.04415e-05
0.00152412
-2.20793e-05
-1.20207e-05
0.00155806
-2.04825e-05
-1.3458e-05
0.00159184
-1.90526e-05
-1.47341e-05
0.00162557
-1.79107e-05
-1.58161e-05
0.00165931
-1.70181e-05
-1.67261e-05
-1.61705e-05
-1.72395e-05
-0.00102911
4.80914e-05
-0.00105033
4.40891e-05
-0.00106981
4.03668e-05
-0.00108765
3.68001e-05
-0.00110395
3.34297e-05
-0.00111883
3.02365e-05
-0.00113237
2.71938e-05
-0.00114466
2.4277e-05
-0.00115577
2.14634e-05
-0.00116576
1.87323e-05
-0.00117467
1.60654e-05
-0.00118254
1.34469e-05
-0.00118941
1.08643e-05
-0.00119529
8.30921e-06
-0.00120023
5.78116e-06
-0.00120422
3.28759e-06
-0.00120715
7.81297e-07
-0.0012092
-1.50144e-06
-0.00121042
-3.60051e-06
-0.00121079
-5.64963e-06
-0.00121032
-7.63582e-06
-0.00120901
-9.552e-06
-0.00120686
-1.13931e-05
-0.00120388
-1.31546e-05
-0.00120006
-1.48294e-05
-0.0011954
-1.6414e-05
-0.00118991
-1.79014e-05
-0.00118358
-1.9289e-05
-0.00117639
-2.05781e-05
-0.00116835
-2.17706e-05
-0.00115944
-2.28635e-05
-0.00114967
-2.38582e-05
-0.00113901
-2.47583e-05
-0.00112746
-2.55689e-05
-0.00111501
-2.62974e-05
-0.00110166
-2.69516e-05
-0.00108739
-2.75323e-05
-0.0010722
-2.80588e-05
-0.00105608
-2.85418e-05
-0.00103902
-2.89938e-05
-0.00102103
-2.94282e-05
-0.00100209
-2.98592e-05
-0.000982206
-3.03014e-05
-0.000961372
-3.07696e-05
-0.000939589
-3.1279e-05
-0.000916858
-3.18445e-05
-0.000893182
-3.24805e-05
-0.000868567
-3.32006e-05
-0.000843019
-3.40184e-05
-0.000816546
-3.49465e-05
-0.000789165
-3.59861e-05
-0.000760888
-3.71555e-05
-0.000731732
-3.84626e-05
-0.000701713
-3.99135e-05
-0.000670851
-4.15125e-05
-0.000639169
-4.3262e-05
-0.000606691
-4.51612e-05
-0.000573443
-4.72107e-05
-0.000539434
-4.94311e-05
-0.00050472
-5.1748e-05
-0.000469326
-5.41983e-05
-0.000433283
-5.67698e-05
-0.000396626
-5.9448e-05
-0.00035939
-6.22185e-05
-0.00032161
-6.50677e-05
-0.000283317
-6.79862e-05
-0.000244559
-7.09277e-05
-0.000205372
-7.38916e-05
-0.000165795
-7.68575e-05
-0.000125868
-7.98049e-05
-8.56183e-05
-8.27239e-05
-4.50958e-05
-8.55653e-05
-4.33288e-06
-8.83294e-05
3.66161e-05
-9.09838e-05
7.7732e-05
-9.35252e-05
0.000118976
-9.5925e-05
0.000160313
-9.81667e-05
0.000201708
-0.000100234
0.00024313
-0.000102113
0.000284546
-0.00010379
0.000325927
-0.000105253
0.000367246
-0.000106494
0.000408476
-0.000107503
0.000449592
-0.000108275
0.000490572
-0.000108807
0.000531392
-0.000109095
0.000572035
-0.000109139
0.000612481
-0.000108941
0.000652714
-0.000108505
0.00069272
-0.000107835
0.000732484
-0.000106939
0.000771995
-0.000105824
0.000811244
-0.0001045
0.00085022
-0.000102979
0.000888917
-0.000101274
0.000927328
-9.93965e-05
0.000965449
-9.73626e-05
0.00100328
-9.51875e-05
0.00104081
-9.28873e-05
0.00107804
-9.04791e-05
0.00111498
-8.79802e-05
0.00115162
-8.54085e-05
0.00118797
-8.27822e-05
0.00122402
-8.01199e-05
0.0012598
-7.74401e-05
0.00129529
-7.47617e-05
0.00133051
-7.21038e-05
0.00136546
-6.94858e-05
0.00140017
-6.69268e-05
0.00143463
-6.44461e-05
0.00146886
-6.20655e-05
0.00150288
-5.9803e-05
0.00153671
-5.76898e-05
0.00157036
-5.5732e-05
0.00160388
-5.40025e-05
0.00163727
-5.2446e-05
0.00167062
-5.12559e-05
0.001704
-5.04023e-05
-4.92696e-05
-0.000936717
6.95856e-05
-0.000956512
6.38849e-05
-0.000974738
5.85926e-05
-0.000991422
5.34835e-05
-0.00100665
4.86549e-05
-0.0010205
4.40938e-05
-0.00103308
3.97656e-05
-0.00104444
3.56366e-05
-0.00105465
3.1674e-05
-0.00106376
2.78473e-05
-0.00107182
2.41287e-05
-0.00107887
2.04934e-05
-0.00108493
1.69203e-05
-0.00109001
1.33934e-05
-0.00109414
9.90557e-06
-0.00109731
6.46457e-06
-0.00109961
3.07987e-06
-0.00110082
-2.88139e-07
-0.00110128
-3.14068e-06
-0.00110091
-6.02354e-06
-0.0010997
-8.8498e-06
-0.00109764
-1.16047e-05
-0.00109476
-1.42815e-05
-0.00109103
-1.68758e-05
-0.00108648
-1.93834e-05
-0.00108109
-2.18012e-05
-0.00107487
-2.41258e-05
-0.0010678
-2.63557e-05
-0.00105989
-2.8492e-05
-0.00105112
-3.0536e-05
-0.0010415
-3.24879e-05
-0.00103101
-3.43501e-05
-0.00101964
-3.61263e-05
-0.00100739
-3.78218e-05
-0.000994239
-3.9444e-05
-0.000980187
-4.10034e-05
-0.000965232
-4.24874e-05
-0.000949364
-4.39263e-05
-0.000932577
-4.53288e-05
-0.000914865
-4.67059e-05
-0.000896223
-4.80703e-05
-0.000876648
-4.94348e-05
-0.000856136
-5.08127e-05
-0.000834688
-5.22174e-05
-0.000812305
-5.36626e-05
-0.000788988
-5.51614e-05
-0.000764742
-5.67266e-05
-0.000739573
-5.83699e-05
-0.000713487
-6.01036e-05
-0.000686492
-6.1942e-05
-0.000658609
-6.3869e-05
-0.000629852
-6.59126e-05
-0.000600237
-6.8078e-05
-0.000569782
-7.03681e-05
-0.00053851
-7.27849e-05
-0.000506443
-7.53285e-05
-0.000473611
-7.79938e-05
-0.000440042
-8.07794e-05
-0.000405728
-8.37447e-05
-0.000370747
-8.6729e-05
-0.000335123
-8.98222e-05
-0.000298887
-9.30059e-05
-0.000262075
-9.62605e-05
-0.000224724
-9.95692e-05
-0.000186874
-0.000102918
-0.000148543
-0.000106317
-0.000109796
-0.000109675
-7.06652e-05
-0.000113022
-3.11876e-05
-0.000116335
8.59692e-06
-0.000119589
4.8621e-05
-0.000122748
8.88776e-05
-0.000125822
0.000129322
-0.000128773
0.000169918
-0.00013158
0.000210624
-0.000134231
0.000251404
-0.000136705
0.000292224
-0.000138987
0.000333051
-0.000141061
0.000373853
-0.000142915
0.0004146
-0.000144537
0.000455263
-0.000145917
0.000495816
-0.000147047
0.000536235
-0.000147922
0.000576496
-0.000148536
0.000616578
-0.000148889
0.000656463
-0.000148979
0.000696132
-0.000148809
0.000735572
-0.000148381
0.000774767
-0.0001477
0.000813706
-0.000146775
0.000852379
-0.000145612
0.000890778
-0.000144222
0.000928894
-0.000142617
0.000966724
-0.000140809
0.00100426
-0.000138812
0.00104151
-0.00013664
0.00107845
-0.000134311
0.00111511
-0.00013184
0.00115146
-0.000129245
0.00118753
-0.000126544
0.0012233
-0.000123755
0.00125879
-0.000120897
0.001294
-0.00011799
0.00132893
-0.000115053
0.0013636
-0.000112106
0.00139801
-0.000109168
0.00143216
-0.00010626
0.00146608
-0.000103402
0.00149977
-0.000100615
0.00153324
-9.7919e-05
0.00156651
-9.53386e-05
0.0015996
-9.28913e-05
0.00163253
-9.0616e-05
0.00166531
-8.85108e-05
0.00169798
-8.66738e-05
0.00173055
-8.50196e-05
0.00176308
-8.37806e-05
0.00179566
-8.29858e-05
-8.16482e-05
-0.000799127
8.87783e-05
-0.000816902
8.16601e-05
-0.000833346
7.50366e-05
-0.000848407
6.85436e-05
-0.000862123
6.23714e-05
-0.00087456
5.65306e-05
-0.000885781
5.09871e-05
-0.000895848
4.57028e-05
-0.000904811
4.06379e-05
-0.000912718
3.57544e-05
-0.000919607
3.10169e-05
-0.000925506
2.63929e-05
-0.000930439
2.18531e-05
-0.00093442
1.73742e-05
-0.000937456
1.29418e-05
-0.00093955
8.55832e-06
-0.000940726
4.2556e-06
-0.000940919
-9.5074e-08
-0.000940349
-3.70983e-06
-0.000938941
-7.43243e-06
-0.000936693
-1.10978e-05
-0.000933608
-1.4689e-05
-0.000929691
-1.81988e-05
-0.000924943
-2.16239e-05
-0.000919364
-2.49618e-05
-0.000912955
-2.82108e-05
-0.000905711
-3.13692e-05
-0.00089763
-3.44371e-05
-0.000888706
-3.74156e-05
-0.000878936
-4.03064e-05
-0.000868313
-4.31113e-05
-0.000856829
-4.58334e-05
-0.000844478
-4.84772e-05
-0.000831253
-5.10476e-05
-0.000817145
-5.35519e-05
-0.000802135
-5.6013e-05
-0.000786239
-5.83833e-05
-0.000769446
-6.07198e-05
-0.000751748
-6.30264e-05
-0.000733142
-6.53121e-05
-0.000713624
-6.75884e-05
-0.000693192
-6.98671e-05
-0.000671844
-7.21599e-05
-0.000649583
-7.44789e-05
-0.000626409
-7.68359e-05
-0.000602328
-7.92425e-05
-0.000577345
-8.17097e-05
-0.000551468
-8.42469e-05
-0.000524705
-8.68667e-05
-0.000497057
-8.95903e-05
-0.000468556
-9.23698e-05
-0.000439216
-9.52526e-05
-0.000409054
-9.82402e-05
-0.00037809
-0.000101332
-0.000346347
-0.000104528
-0.000313851
-0.000107824
-0.000280635
-0.00011121
-0.000246755
-0.00011466
-0.000212116
-0.000118383
-0.000176886
-0.000121959
-0.000141063
-0.000125645
-0.000104678
-0.000129391
-6.77641e-05
-0.000133174
-3.03555e-05
-0.000136978
7.50907e-06
-0.000140782
4.57201e-05
-0.000144528
8.43159e-05
-0.000148271
0.000123244
-0.00015195
0.000162457
-0.000155548
0.000201912
-0.000159044
0.000241577
-0.000162413
0.000281401
-0.000165646
0.000321348
-0.00016872
0.00036138
-0.000171613
0.00040146
-0.000174311
0.000441553
-0.000176798
0.000481624
-0.000179058
0.000521641
-0.000181078
0.000561573
-0.000182847
0.000601392
-0.000184356
0.000641072
-0.000185596
0.000680587
-0.000186562
0.000719914
-0.000187249
0.000759034
-0.000187656
0.000797927
-0.000187782
0.000836577
-0.00018763
0.00087497
-0.000187202
0.000913093
-0.000186504
0.000950936
-0.000185543
0.000988489
-0.000184328
0.00102575
-0.00018287
0.0010627
-0.000181179
0.00109936
-0.000179269
0.0011357
-0.000177154
0.00117174
-0.00017485
0.00120747
-0.000172372
0.0012429
-0.000169739
0.00127803
-0.000166966
0.00131286
-0.000164074
0.00134739
-0.000161081
0.00138164
-0.000158007
0.00141562
-0.000154871
0.00144932
-0.000151694
0.00148276
-0.000148496
0.00151595
-0.000145297
0.0015489
-0.000142118
0.00158162
-0.00013898
0.00161413
-0.000135904
0.00164642
-0.000132913
0.00167853
-0.000130027
0.00171047
-0.000127274
0.00174224
-0.000124669
0.00177389
-0.000122259
0.00180541
-0.000120033
0.00183685
-0.000118111
0.00186821
-0.000116388
0.00189953
-0.000115093
0.00193091
-0.000114371
-0.000112923
-0.000617053
0.000105159
-0.000632378
9.69856e-05
-0.000646661
8.93198e-05
-0.000659773
8.16556e-05
-0.000671697
7.42945e-05
-0.000682456
6.72895e-05
-0.00069209
6.06214e-05
-0.000700641
5.42543e-05
-0.000708149
4.81454e-05
-0.000714647
4.22527e-05
-0.000720166
3.65357e-05
-0.000724729
3.09559e-05
-0.000728352
2.54767e-05
-0.000731045
2.00665e-05
-0.000732805
1.47021e-05
-0.000733623
9.37581e-06
-0.00073347
4.10349e-06
-0.000732569
-9.96178e-07
-0.000730775
-5.50412e-06
-0.000728148
-1.00591e-05
-0.000724688
-1.45585e-05
-0.000720395
-1.89822e-05
-0.000715271
-2.33222e-05
-0.000709319
-2.75757e-05
-0.00070254
-3.17415e-05
-0.000694932
-3.58189e-05
-0.000686493
-3.98079e-05
-0.000677221
-4.37092e-05
-0.000667112
-4.75246e-05
-0.000656162
-5.12561e-05
-0.000644367
-5.49066e-05
-0.000631721
-5.84794e-05
-0.000618218
-6.19795e-05
-0.000603855
-6.54109e-05
-0.000588625
-6.87815e-05
-0.000572497
-7.21416e-05
-0.000555504
-7.53764e-05
-0.000537633
-7.85906e-05
-0.000518879
-8.17807e-05
-0.000499238
-8.49526e-05
-0.00047871
-8.81167e-05
-0.000457293
-9.12834e-05
-0.00043499
-9.4463e-05
-0.000411803
-9.7666e-05
-0.000387737
-0.000100903
-0.000362797
-0.000104182
-0.000336993
-0.000107514
-0.000310335
-0.000110904
-0.000282837
-0.000114365
-0.000254477
-0.00011795
-0.000225316
-0.000121531
-0.000195363
-0.000125206
-0.000164633
-0.000128969
-0.00013315
-0.000132815
-0.000100936
-0.000136742
-6.80132e-05
-0.000140747
-3.43905e-05
-0.000144833
-1.91233e-08
-0.000149031
3.46524e-05
-0.000153055
7.00052e-05
-0.000157312
0.000105924
-0.000161563
0.000142349
-0.000165816
0.000179237
-0.000170063
0.000216545
-0.000174286
0.00025423
-0.000178467
0.000292271
-0.00018257
0.000330604
-0.000186604
0.00036919
-0.000190537
0.00040799
-0.000194348
0.000446962
-0.000198016
0.000486068
-0.000201519
0.000525266
-0.000204844
0.000564516
-0.00020797
0.000603782
-0.000210879
0.000643028
-0.000213557
0.000682218
-0.000215988
0.00072132
-0.000218159
0.000760302
-0.00022006
0.000799136
-0.000221681
0.000837795
-0.000223015
0.000876253
-0.000224055
0.000914488
-0.000224797
0.000952481
-0.000225241
0.000990212
-0.000225387
0.00102767
-0.000225236
0.00106483
-0.000224792
0.00110169
-0.000224062
0.00113824
-0.000223052
0.00117447
-0.000221773
0.00121037
-0.000220233
0.00124595
-0.000218447
0.0012812
-0.000216427
0.00131611
-0.000214187
0.0013507
-0.000211744
0.00138497
-0.000209114
0.00141891
-0.000206315
0.00145254
-0.000203366
0.00148586
-0.000200285
0.00151887
-0.000197091
0.0015516
-0.000193805
0.00158404
-0.000190448
0.00161621
-0.000187039
0.00164811
-0.000183599
0.00167976
-0.00018015
0.00171118
-0.000176713
0.00174237
-0.000173308
0.00177335
-0.000169959
0.00180413
-0.000166685
0.00183473
-0.000163512
0.00186516
-0.000160459
0.00189545
-0.000157558
0.0019256
-0.00015482
0.00195564
-0.0001523
0.00198559
-0.000149979
0.00201546
-0.000147989
0.0020453
-0.000146228
0.00207508
-0.000144868
0.00210493
-0.000144222
-0.000142756
-0.000390636
0.000118514
-0.000403464
0.000109814
-0.000415447
0.000101303
-0.000426503
9.27116e-05
-0.000436562
8.43543e-05
-0.000445594
7.63216e-05
-0.000453606
6.86331e-05
-0.000460617
6.12654e-05
-0.000466649
5.41771e-05
-0.000471722
4.73256e-05
-0.000475856
4.06694e-05
-0.000479066
3.41665e-05
-0.000481364
2.77745e-05
-0.00048275
2.14522e-05
-0.00048321
1.51624e-05
-0.000482727
8.89293e-06
-0.000481296
2.67245e-06
-0.000479188
-3.10432e-06
-0.000476168
-8.52413e-06
-0.000472303
-1.39242e-05
-0.000467601
-1.92607e-05
-0.000462066
-2.45171e-05
-0.000455701
-2.96868e-05
-0.000448509
-3.47683e-05
-0.000440489
-3.97612e-05
-0.000431642
-4.46661e-05
-0.000421966
-4.94837e-05
-0.00041146
-5.42155e-05
-0.000400121
-5.88635e-05
-0.000387946
-6.34304e-05
-0.000374934
-6.79193e-05
-0.000361079
-7.23337e-05
-0.000346381
-7.66777e-05
-0.000330838
-8.09544e-05
-0.000314451
-8.51683e-05
-0.000297159
-8.94339e-05
-0.00027903
-9.35046e-05
-0.000260047
-9.75744e-05
-0.000240203
-0.000101624
-0.0002195
-0.000105656
-0.000197937
-0.00010968
-0.000175516
-0.000113704
-0.000152241
-0.000117738
-0.000128117
-0.00012179
-0.000103149
-0.00012587
-7.73449e-05
-0.000129986
-5.07113e-05
-0.000134148
-2.32517e-05
-0.000138364
5.02219e-06
-0.000142639
3.39646e-05
-0.000146892
6.37004e-05
-0.000151267
9.4191e-05
-0.000155697
0.000125405
-0.000160184
0.000157316
-0.000164727
0.000189896
-0.000169322
0.000223115
-0.000173965
0.000256934
-0.000178653
0.000291286
-0.000183382
0.000326272
-0.000188041
0.000361727
-0.000192767
0.000397643
-0.000197479
0.000433986
-0.000202159
0.000470716
-0.000206793
0.000507794
-0.000211363
0.000545176
-0.000215849
0.00058283
-0.000220223
0.000620705
-0.000224479
0.000658761
-0.000228592
0.000696955
-0.000232542
0.000735247
-0.000236308
0.000773598
-0.00023987
0.000811968
-0.000243214
0.000850318
-0.00024632
0.000888612
-0.000249173
0.000926815
-0.000251759
0.000964892
-0.000254066
0.00100281
-0.000256081
0.00104055
-0.000257796
0.00107807
-0.000259205
0.00111536
-0.0002603
0.00115238
-0.00026108
0.00118913
-0.000261542
0.00122557
-0.000261688
0.00126171
-0.000261519
0.00129751
-0.000261041
0.00133298
-0.000260259
0.0013681
-0.000259182
0.00140287
-0.00025782
0.00143728
-0.000256183
0.00147133
-0.000254284
0.00150502
-0.000252138
0.00153835
-0.00024976
0.00157133
-0.000247165
0.00160396
-0.000244372
0.00163624
-0.000241399
0.00166819
-0.000238264
0.00169981
-0.000234987
0.00173112
-0.000231588
0.00176211
-0.000228087
0.00179281
-0.000224506
0.00182323
-0.000220865
0.00185338
-0.000217186
0.00188327
-0.00021349
0.00191292
-0.000209799
0.00194234
-0.000206135
0.00197155
-0.000202518
0.00200057
-0.000198973
0.0020294
-0.000195519
0.00205807
-0.000192183
0.00208659
-0.000188984
0.00211499
-0.000185955
0.00214328
-0.000183106
0.00217148
-0.000180498
0.0021996
-0.000178105
0.00222767
-0.000176058
0.00225573
-0.000174287
0.00228372
-0.000172858
0.00231178
-0.000172283
-0.000170874
-0.000119078
-0.000129907
0.000120643
-0.000139765
0.00011116
-0.000148985
0.000101932
-0.00015742
9.27903e-05
-0.000164967
8.38682e-05
-0.000171596
7.52616e-05
-0.000177302
6.69717e-05
-0.000182087
5.89624e-05
-0.000185957
5.11951e-05
-0.000188919
4.36316e-05
-0.000190982
3.62299e-05
-0.000192152
2.89447e-05
-0.000192426
2.17263e-05
-0.000191791
1.45268e-05
-0.000190244
7.34652e-06
-0.000187528
-4.44068e-08
-0.000184396
-6.23612e-06
-0.00018032
-1.26003e-05
-0.000175369
-1.88747e-05
-0.000169566
-2.50637e-05
-0.000162921
-3.11619e-05
-0.000155441
-3.71676e-05
-0.000147127
-4.30818e-05
-0.000137982
-4.89062e-05
-0.000128006
-5.46419e-05
-0.0001172
-6.02905e-05
-0.000105561
-6.58539e-05
-9.30901e-05
-7.13347e-05
-7.97845e-05
-7.6736e-05
-6.56424e-05
-8.20614e-05
-5.06606e-05
-8.73155e-05
-3.48352e-05
-9.25031e-05
-1.81542e-05
-9.76354e-05
-5.72415e-07
-0.00010275
1.76533e-05
-0.00010766
3.6778e-05
-0.000112629
5.67592e-05
-0.000117556
7.75835e-05
-0.000122448
9.92451e-05
-0.000127318
0.000121738
-0.000132173
0.000145056
-0.000137022
0.000169191
-0.000141873
0.000194135
-0.000146735
0.000219878
-0.000151613
0.000246408
-0.000156516
0.000273711
-0.00016145
0.000301768
-0.000166421
0.000330557
-0.000171428
0.000360103
-0.000176438
0.000390344
-0.000181507
0.000421263
-0.000186615
0.000452836
-0.000191757
0.000485037
-0.000196928
0.000517838
-0.000202123
0.000551207
-0.000207334
0.000585108
-0.000212554
0.000619499
-0.000217773
0.00065439
-0.000222932
0.000689705
-0.000228081
0.000725408
-0.000233182
0.000761462
-0.000238214
0.000797828
-0.000243159
0.000834464
-0.000247999
0.000871329
-0.000252714
0.000908385
-0.00025728
0.000945587
-0.000261682
0.000982894
-0.000265899
0.00102026
-0.000269912
0.00105766
-0.000273701
0.00109503
-0.000277248
0.00113236
-0.000280537
0.00116959
-0.000283552
0.0012067
-0.000286279
0.00124364
-0.000288705
0.0012804
-0.00029082
0.00131693
-0.000292615
0.00135322
-0.000294082
0.00138923
-0.000295217
0.00142494
-0.000296016
0.00146034
-0.000296479
0.00149541
-0.000296607
0.00153012
-0.000296404
0.00156448
-0.000295873
0.00159846
-0.000295022
0.00163206
-0.00029386
0.00166527
-0.000292396
0.0016981
-0.000290644
0.00173053
-0.000288616
0.00176257
-0.000286327
0.00179423
-0.000283794
0.0018255
-0.000281032
0.0018564
-0.000278061
0.00188692
-0.000274899
0.00191709
-0.000271565
0.00194691
-0.00026808
0.00197638
-0.000264465
0.00200554
-0.000260741
0.00203438
-0.000256928
0.00206292
-0.00025305
0.00209118
-0.000249126
0.00211918
-0.00024518
0.00214692
-0.000241233
0.00217443
-0.000237308
0.00220172
-0.000233425
0.00222881
-0.000229608
0.00225572
-0.00022588
0.00228246
-0.000222261
0.00230905
-0.000218779
0.00233552
-0.00021545
0.00236188
-0.000212312
0.00238814
-0.000209371
0.00241433
-0.00020669
0.00244048
-0.000204247
0.00246657
-0.000202152
0.00249268
-0.000200392
0.00251872
-0.000198899
0.00254481
-0.000198378
-0.000197078
0.000189797
0.000130199
0.000181258
0.000119698
0.000173195
0.000109995
0.000165727
0.000100259
0.000159035
9.05606e-05
0.000153189
8.11071e-05
0.000148216
7.19445e-05
0.000144133
6.30454e-05
0.000140949
5.43792e-05
0.000138666
4.59146e-05
0.000137283
3.76134e-05
0.000136799
2.94283e-05
0.000137227
2.12982e-05
0.000138608
1.31455e-05
0.000141061
4.89386e-06
0.000144002
-2.98522e-06
0.000148015
-1.02493e-05
0.000152885
-1.74705e-05
0.00015862
-2.46092e-05
0.000165214
-3.16579e-05
0.000172662
-3.86095e-05
0.000180958
-4.54639e-05
0.0001901
-5.22237e-05
0.000200085
-5.88912e-05
0.000210911
-6.54684e-05
0.000222578
-7.19569e-05
0.000235083
-7.83589e-05
0.000248425
-8.4677e-05
0.000262604
-9.09144e-05
0.000277617
-9.70747e-05
0.000293463
-0.000103162
0.00031014
-0.00010918
0.000327643
-0.000115138
0.00034595
-0.000121057
0.000365134
-0.000126844
0.000385129
-0.000132624
0.000405938
-0.000138364
0.000427556
-0.000144066
0.000449979
-0.000149741
0.000473201
-0.000155394
0.000497212
-0.000161033
0.000522003
-0.000166664
0.000547561
-0.000172293
0.000573875
-0.000177927
0.000600928
-0.00018357
0.000628704
-0.000189226
0.000657183
-0.0001949
0.000686344
-0.00020059
0.000716184
-0.000206278
0.000746666
-0.000211989
0.000777764
-0.000217713
0.000809451
-0.000223444
0.000841699
-0.000229176
0.000874477
-0.000234901
0.000907752
-0.000240609
0.000941488
-0.00024629
0.000975646
-0.000251931
0.00101021
-0.000257499
0.00104513
-0.000263001
0.00108037
-0.000268416
0.00111588
-0.000273723
0.00115162
-0.000278903
0.00118756
-0.000283937
0.00122365
-0.000288804
0.00125985
-0.000293484
0.00129613
-0.000297957
0.00133243
-0.000302205
0.00136873
-0.000306208
0.00140498
-0.000309949
0.00144114
-0.00031341
0.00147718
-0.000316576
0.00151306
-0.000319433
0.00154875
-0.000321969
0.00158422
-0.000324173
0.00161943
-0.000326036
0.00165437
-0.000327551
0.001689
-0.000328714
0.0017233
-0.000329522
0.00175726
-0.000329975
0.00179086
-0.000330074
0.00182407
-0.000329822
0.0018569
-0.000329226
0.00188932
-0.000328293
0.00192133
-0.000327032
0.00195292
-0.000325454
0.0019841
-0.000323573
0.00201485
-0.000321401
0.00204519
-0.000318956
0.00207512
-0.000316253
0.00210464
-0.00031331
0.00213375
-0.000310146
0.00216247
-0.000306782
0.00219081
-0.000303237
0.00221878
-0.000299532
0.00224638
-0.000295689
0.00227365
-0.000291729
0.00230058
-0.000287674
0.0023272
-0.000283548
0.00235352
-0.000279371
0.00237956
-0.000275167
0.00240534
-0.000270958
0.00243088
-0.000266766
0.00245618
-0.000262613
0.00248128
-0.000258523
0.00250619
-0.000254516
0.00253092
-0.000250617
0.00255551
-0.000246846
0.00257996
-0.000243231
0.0026043
-0.000239788
0.00262854
-0.000236555
0.00265271
-0.000233539
0.00267682
-0.000230798
0.00270089
-0.000228323
0.00272493
-0.000226185
0.00274899
-0.000224451
0.00277299
-0.000222907
0.00279703
-0.000222418
-0.000221255
0.000558716
0.000140019
0.000549924
0.000128491
0.000541607
0.000118311
0.000533842
0.000108024
0.000526838
9.75649e-05
0.000520691
8.72538e-05
0.00051544
7.71949e-05
0.000511113
6.73729e-05
0.000507725
5.7767e-05
0.000505283
4.83565e-05
0.000503786
3.91102e-05
0.000503232
2.99831e-05
0.000503621
2.09086e-05
0.000504985
1.17816e-05
0.000507489
2.39021e-06
0.000510652
-6.14853e-06
0.000514779
-1.43761e-05
0.000519834
-2.25255e-05
0.000525803
-3.05783e-05
0.000532672
-3.85263e-05
0.000540428
-4.63662e-05
0.000549065
-5.41009e-05
0.000558576
-6.17348e-05
0.000568957
-6.92719e-05
0.000580203
-7.67147e-05
0.000592311
-8.40647e-05
0.000605276
-9.1324e-05
0.000619095
-9.84955e-05
0.000633762
-0.000105582
0.000649274
-0.000112587
0.000665626
-0.000119514
0.000682812
-0.000126366
0.000700823
-0.00013315
0.000719646
-0.000139879
0.000739311
-0.000146509
0.000759784
-0.000153098
0.000781058
-0.000159637
0.000803123
-0.000166132
0.000825971
-0.000172589
0.000849589
-0.000179013
0.000873966
-0.00018541
0.000899088
-0.000191785
0.000924939
-0.000198144
0.000951502
-0.00020449
0.00097876
-0.000210828
0.00100669
-0.000217158
0.00103528
-0.000223484
0.00106449
-0.000229802
0.00109432
-0.000236105
0.00112472
-0.000242397
0.00115569
-0.000248675
0.00118717
-0.00025493
0.00121915
-0.000261155
0.00125159
-0.000267341
0.00128446
-0.000273476
0.00131771
-0.000279547
0.00135132
-0.000285541
0.00138526
-0.000291433
0.00141947
-0.000297216
0.00145393
-0.000302871
0.00148858
-0.000308379
0.0015234
-0.00031372
0.00155834
-0.000318875
0.00159336
-0.000323822
0.00162841
-0.000328542
0.00166347
-0.000333016
0.00169849
-0.000337225
0.00173344
-0.000341152
0.00176827
-0.000344779
0.00180295
-0.00034809
0.00183745
-0.000351073
0.00187173
-0.000353714
0.00190576
-0.000356002
0.00193952
-0.00035793
0.00197297
-0.00035949
0.0020061
-0.000360678
0.00203888
-0.000361491
0.00207128
-0.00036193
0.0021033
-0.000361996
0.00213492
-0.000361693
0.00216613
-0.000361028
0.00219691
-0.000360008
0.00222726
-0.000358644
0.00225718
-0.000356946
0.00228665
-0.00035493
0.00231569
-0.000352608
0.00234429
-0.000349999
0.00237245
-0.000347119
0.00240018
-0.000343988
0.0024275
-0.000340624
0.0024544
-0.000337049
0.0024809
-0.000333283
0.00250701
-0.000329349
0.00253275
-0.000325268
0.00255813
-0.000321064
0.00258316
-0.000316759
0.00260786
-0.000312376
0.00263225
-0.000307938
0.00265634
-0.000303468
0.00268016
-0.000298988
0.00270373
-0.000294522
0.00272706
-0.000290093
0.00275016
-0.000285723
0.00277308
-0.000281434
0.00279581
-0.000277249
0.00281838
-0.000273191
0.00284082
-0.00026928
0.00286313
-0.000265545
0.00288534
-0.000262002
0.00290748
-0.000258687
0.00292955
-0.00025561
0.00295157
-0.000252818
0.00297357
-0.000250325
0.00299554
-0.000248151
0.00301753
-0.00024645
0.0030395
-0.00024487
0.00306147
-0.000244393
-0.000243375
0.000980931
0.000153205
0.000969251
0.00014017
0.000958409
0.000129153
0.000948346
0.000118087
0.000939233
0.000106678
0.000931148
9.53389e-05
0.000924115
8.42276e-05
0.000918152
7.33359e-05
0.000913268
6.26516e-05
0.00090946
5.21642e-05
0.00090672
4.18498e-05
0.000905035
3.16679e-05
0.000904392
2.15522e-05
0.000904792
1.13814e-05
0.000906436
7.45845e-07
0.000908835
-8.54739e-06
0.000912313
-1.78538e-05
0.000916802
-2.70149e-05
0.000922276
-3.60519e-05
0.000928714
-4.49651e-05
0.000936102
-5.37542e-05
0.000944426
-6.24248e-05
0.000953676
-7.09843e-05
0.000963843
-7.94388e-05
0.000974919
-8.77912e-05
0.000986898
-9.60428e-05
0.000999769
-0.000104195
0.00101352
-0.000112252
0.00102816
-0.000120215
0.00104366
-0.000128087
0.00106002
-0.000135872
0.00107722
-0.000143574
0.00109527
-0.000151195
0.00111413
-0.000158745
0.00113383
-0.000166205
0.00115433
-0.000173601
0.00117563
-0.000180934
0.00119771
-0.000188209
0.00122055
-0.00019543
0.00124414
-0.000202604
0.00126846
-0.000209733
0.0012935
-0.000216823
0.00131923
-0.000223877
0.00134564
-0.000230898
0.0013727
-0.000237887
0.00140039
-0.000244847
0.00142868
-0.000251776
0.00145755
-0.000258672
0.00148698
-0.000265529
0.00151692
-0.000272345
0.00154736
-0.000279115
0.00157827
-0.000285832
0.0016096
-0.000292486
0.00164132
-0.000299066
0.00167341
-0.000305559
0.00170581
-0.000311953
0.0017385
-0.000318231
0.00177144
-0.000324374
0.0018046
-0.000330368
0.00183792
-0.000336194
0.00187137
-0.000341834
0.00190492
-0.000347267
0.00193852
-0.000352474
0.00197213
-0.000357435
0.00200572
-0.000362131
0.00203925
-0.000366543
0.00207267
-0.000370653
0.00210597
-0.000374444
0.00213909
-0.000377901
0.00217201
-0.00038101
0.00220469
-0.000383758
0.00223712
-0.000386135
0.00226924
-0.000388131
0.00230106
-0.000389741
0.00233253
-0.000390959
0.00236363
-0.000391784
0.00239436
-0.000392216
0.00242468
-0.000392256
0.0024546
-0.000391909
0.00248408
-0.000391181
0.00251314
-0.000390081
0.00254175
-0.000388619
0.00256991
-0.000386808
0.00259763
-0.000384662
0.00262489
-0.000382195
0.00265171
-0.000379426
0.00267808
-0.000376373
0.00270402
-0.000373055
0.00272952
-0.000369492
0.00275461
-0.000365707
0.00277928
-0.000361721
0.00280355
-0.000357556
0.00282744
-0.000353237
0.00285096
-0.000348786
0.00287412
-0.000344227
0.00289695
-0.000339584
0.00291945
-0.00033488
0.00294165
-0.00033014
0.00296357
-0.000325386
0.00298522
-0.000320642
0.00300663
-0.000315931
0.00302782
-0.000311276
0.00304879
-0.0003067
0.00306958
-0.000302225
0.00309021
-0.000297874
0.00311069
-0.00029367
0.00313104
-0.000289634
0.00315129
-0.000285792
0.00317145
-0.000282162
0.00319154
-0.000278775
0.00321158
-0.000275649
0.00323157
-0.000272815
0.00325156
-0.000270316
0.00327153
-0.000268112
0.00329152
-0.000266445
0.0033115
-0.000264849
0.00333147
-0.000264365
-0.000263483
0.00145966
0.00144156
0.00015827
0.00142507
0.000145644
0.00140997
0.00013318
0.00139632
0.000120334