/*--------------------------------*- C++ -*----------------------------------*\
  =========                 |
  \\      /  F ield         | OpenFOAM: The Open Source CFD Toolbox
   \\    /   O peration     | Website:  https://openfoam.org
    \\  /    A nd           | Version:  7
     \\/     M anipulation  |
\*---------------------------------------------------------------------------*/
FoamFile
{
    version     2.0;
    format      ascii;
    class       volVectorField;
    location    "54.999";
    object      U;
}
// * * * * * * * * * * * * * * * * * * * * * * * * * * * * * * * * * * * * * //

dimensions      [0 1 -1 0 0 0 0];

internalField   nonuniform List<vector> 
11400
(
(-0.180981 0.00189989 7.18437e-21)
(-0.185 0.00174019 1.19586e-21)
(-0.188728 0.00158653 -4.19492e-21)
(-0.192163 0.00143532 -3.91725e-21)
(-0.195325 0.00128716 4.36415e-21)
(-0.198233 0.00114107 6.41509e-22)
(-0.200907 0.000996084 -4.36281e-21)
(-0.203361 0.000851449 4.68381e-21)
(-0.205608 0.000706552 -2.29156e-21)
(-0.207659 0.000560958 4.91067e-21)
(-0.209524 0.00041441 -4.53477e-21)
(-0.211209 0.000266868 9.90965e-22)
(-0.21272 0.000118634 -3.85963e-22)
(-0.21406 -2.96887e-05 2.44671e-21)
(-0.215232 -0.000178299 -7.84182e-23)
(-0.216238 -0.00032926 -3.06052e-21)
(-0.217081 -0.000478742 2.95185e-21)
(-0.217765 -0.000613637 3.30821e-22)
(-0.218299 -0.000732651 -2.40189e-21)
(-0.218684 -0.000842861 -5.25791e-22)
(-0.218923 -0.000944578 -1.83817e-22)
(-0.219016 -0.00103729 -5.38578e-22)
(-0.218964 -0.0011201 9.28813e-22)
(-0.218767 -0.00119214 -5.75637e-22)
(-0.218425 -0.00125158 3.4589e-22)
(-0.217939 -0.00129967 7.73516e-22)
(-0.217307 -0.00133274 5.2877e-22)
(-0.216527 -0.00135 -1.65061e-21)
(-0.215598 -0.00135203 -7.49719e-22)
(-0.214519 -0.0013412 1.0381e-21)
(-0.213289 -0.001314 -1.3633e-21)
(-0.211906 -0.00127054 2.24842e-22)
(-0.210367 -0.00121155 8.68858e-22)
(-0.208671 -0.00113789 7.52415e-23)
(-0.206815 -0.00105065 1.67865e-21)
(-0.204797 -0.000951015 -2.20251e-21)
(-0.202617 -0.000839996 1.04331e-21)
(-0.200271 -0.000719511 2.15885e-22)
(-0.197759 -0.00059131 -1.56971e-21)
(-0.195079 -0.000457339 1.28602e-21)
(-0.192229 -0.00031971 -1.12223e-21)
(-0.189208 -0.000180665 8.96369e-22)
(-0.186015 -4.25549e-05 1.2171e-21)
(-0.182648 9.21909e-05 -1.41746e-22)
(-0.179108 0.000221102 -7.52862e-22)
(-0.175393 0.000341703 -1.51451e-22)
(-0.171504 0.000451551 -1.63787e-21)
(-0.167441 0.00054827 7.53518e-22)
(-0.163204 0.000629549 1.23578e-21)
(-0.158795 0.000693228 8.54193e-22)
(-0.154214 0.000737552 -2.65578e-21)
(-0.149464 0.000760523 1.30769e-21)
(-0.144546 0.000760568 -3.17504e-22)
(-0.139464 0.000736385 1.17682e-21)
(-0.13422 0.000686942 -1.7413e-21)
(-0.128816 0.000611508 1.61931e-21)
(-0.123257 0.000509682 -1.20024e-21)
(-0.117546 0.00038119 -2.10019e-22)
(-0.111686 0.000225843 6.61514e-22)
(-0.105683 4.64101e-05 5.78803e-22)
(-0.0995413 -0.000157682 -1.73872e-21)
(-0.0932669 -0.00038534 7.10227e-22)
(-0.0868646 -0.000635077 4.65613e-22)
(-0.0803401 -0.000905155 -2.28274e-24)
(-0.073699 -0.00119365 -2.57635e-22)
(-0.0669467 -0.0014985 -1.02284e-23)
(-0.0600899 -0.00181615 -6.94221e-23)
(-0.0531353 -0.00214472 5.66748e-26)
(-0.0460891 -0.00248143 2.98707e-22)
(-0.0389582 -0.00282347 -1.00835e-22)
(-0.0317481 -0.00316892 -8.68711e-23)
(-0.0244654 -0.00351269 -2.56253e-22)
(-0.017118 -0.00385278 2.35486e-22)
(-0.00971113 -0.00418724 -7.03525e-23)
(-0.0022514 -0.00451129 -1.17985e-22)
(0.00525425 -0.00482316 2.27943e-22)
(0.0127999 -0.00512017 -1.24179e-22)
(0.0203795 -0.00539975 -8.93621e-23)
(0.0279871 -0.00565953 3.26739e-23)
(0.0356169 -0.00589739 -2.64971e-22)
(0.0432634 -0.00611139 1.93766e-22)
(0.0509212 -0.00629985 -2.37511e-22)
(0.0585851 -0.00646134 6.98594e-23)
(0.0662503 -0.00659468 4.56012e-24)
(0.0739122 -0.00669895 2.1466e-23)
(0.0815662 -0.00677351 -5.79391e-23)
(0.0892084 -0.00681796 1.44293e-22)
(0.0968347 -0.00683219 -9.69525e-23)
(0.104441 -0.00681633 8.09973e-24)
(0.112025 -0.00677078 2.58345e-23)
(0.119583 -0.00669615 -7.18392e-24)
(0.127113 -0.00659331 -7.23731e-23)
(0.13461 -0.00646334 5.87291e-23)
(0.142074 -0.0063075 -5.69442e-23)
(0.149502 -0.00612727 1.4544e-23)
(0.156892 -0.00592428 6.03034e-23)
(0.164243 -0.0057003 -4.31773e-23)
(0.171553 -0.00545727 -3.1034e-23)
(0.178821 -0.0051972 3.77419e-23)
(0.186046 -0.00492224 -4.86089e-23)
(0.193228 -0.0046346 3.44902e-23)
(0.200365 -0.00433656 -6.67129e-24)
(0.207458 -0.00403044 -3.49029e-24)
(0.214507 -0.00371861 -2.32759e-23)
(0.221512 -0.00340346 4.85344e-25)
(0.228473 -0.0030874 -4.27436e-25)
(0.235391 -0.00277283 -1.11455e-24)
(0.242268 -0.00246186 4.79876e-24)
(0.249104 -0.00215725 5.99721e-26)
(0.255901 -0.00186137 3.01207e-24)
(0.262662 -0.00157668 -4.21554e-24)
(0.269388 -0.00130559 7.15078e-25)
(0.276085 -0.00105095 -2.23345e-25)
(0.282746 -0.000814921 2.38013e-25)
(0.289416 -0.000602068 -2.11862e-25)
(0.295957 -0.000412446 1.12098e-25)
(0.302896 -0.000257141 4.37246e-25)
(0.308389 -0.000131404 2.59312e-25)
(0.319119 -3.78259e-05 -2.58879e-25)
(-0.173678 0.00533089 -5.09901e-21)
(-0.177532 0.00489692 1.20617e-20)
(-0.181117 0.00449162 -4.78671e-21)
(-0.184424 0.00410387 -4.93789e-21)
(-0.187465 0.00373676 5.96963e-21)
(-0.190259 0.00338771 6.16948e-22)
(-0.192823 0.00305375 -1.05787e-20)
(-0.195172 0.00273223 9.76022e-21)
(-0.197317 0.00242078 -1.56659e-21)
(-0.199269 0.00211731 -1.12259e-20)
(-0.201037 0.00182007 6.1345e-21)
(-0.202628 0.00152767 -1.70493e-21)
(-0.204046 0.00123925 8.59696e-21)
(-0.205296 0.000954581 -9.6273e-21)
(-0.206384 0.000673522 1.00703e-20)
(-0.207309 0.000395047 -8.26989e-22)
(-0.208063 0.000119916 -6.1136e-22)
(-0.20865 -0.000150048 6.31472e-21)
(-0.209093 -0.00039718 -2.94988e-21)
(-0.209395 -0.000632992 -3.50915e-21)
(-0.20955 -0.000858665 -2.21376e-21)
(-0.209561 -0.00107406 4.38642e-21)
(-0.209426 -0.00127879 -1.49935e-21)
(-0.209147 -0.0014723 -4.55755e-21)
(-0.208724 -0.00165324 1.50849e-22)
(-0.208156 -0.00182097 -3.66701e-21)
(-0.207442 -0.00197444 6.19381e-21)
(-0.206582 -0.00211334 -8.0734e-21)
(-0.205572 -0.00223793 6.75382e-21)
(-0.204414 -0.00234879 8.93496e-22)
(-0.203104 -0.00244504 1.30407e-21)
(-0.201641 -0.00252675 4.8985e-21)
(-0.200023 -0.00259439 -6.53081e-21)
(-0.198248 -0.00264874 -1.52157e-21)
(-0.196313 -0.0026908 -2.89606e-21)
(-0.194217 -0.00272169 9.00456e-21)
(-0.191958 -0.0027421 -7.25536e-21)
(-0.189535 -0.00275425 2.97616e-21)
(-0.186945 -0.00275978 4.64172e-21)
(-0.184187 -0.00276054 3.22689e-21)
(-0.181259 -0.00275853 -1.15122e-20)
(-0.17816 -0.00275585 1.09712e-20)
(-0.174889 -0.00275466 -1.34008e-20)
(-0.171445 -0.00275722 4.50557e-21)
(-0.167827 -0.00276578 1.90196e-21)
(-0.164034 -0.0027826 1.50979e-21)
(-0.160068 -0.00280987 -2.49804e-21)
(-0.155927 -0.0028497 1.74981e-21)
(-0.151612 -0.00290415 -1.12946e-21)
(-0.147125 -0.00297506 1.21381e-21)
(-0.142467 -0.00306336 -1.26676e-21)
(-0.13764 -0.00317128 -2.25448e-21)
(-0.132646 -0.00330009 2.26051e-22)
(-0.127488 -0.00345081 1.81017e-21)
(-0.122168 -0.00362416 8.23368e-23)
(-0.116691 -0.00382059 4.26834e-23)
(-0.111059 -0.00404019 -2.3691e-21)
(-0.105278 -0.00428301 3.06558e-21)
(-0.0993485 -0.00455017 -4.5425e-22)
(-0.0932776 -0.00483547 -1.13304e-21)
(-0.0870723 -0.00514148 7.4099e-22)
(-0.080737 -0.00546671 5.6185e-22)
(-0.0742774 -0.00580936 7.78181e-22)
(-0.0676994 -0.00616748 -9.19314e-22)
(-0.0610095 -0.00653912 -1.27486e-21)
(-0.0542127 -0.00692279 9.42129e-22)
(-0.0473163 -0.00731281 4.21146e-22)
(-0.040328 -0.00770858 7.52567e-22)
(-0.0332541 -0.00810723 -7.66629e-22)
(-0.026102 -0.00850608 -9.06512e-23)
(-0.018877 -0.0089029 5.00142e-22)
(-0.0115861 -0.00929197 -1.08919e-21)
(-0.00423863 -0.00967233 -1.96355e-22)
(0.00316116 -0.010041 2.15385e-21)
(0.0106067 -0.0103949 -1.83482e-22)
(0.0180897 -0.0107316 -2.16117e-21)
(0.0256048 -0.0110484 4.84088e-22)
(0.0331459 -0.0113429 -6.28648e-22)
(0.0407069 -0.011613 1.06231e-21)
(0.0482821 -0.0118567 2.45348e-23)
(0.0558662 -0.0120724 -2.89317e-22)
(0.0634538 -0.0122584 2.51972e-22)
(0.07104 -0.0124136 -2.1488e-22)
(0.0786202 -0.0125371 3.00515e-23)
(0.0861901 -0.0126281 1.50515e-22)
(0.0937455 -0.0126862 9.00528e-23)
(0.101283 -0.0127112 -5.4307e-22)
(0.108798 -0.0127033 1.41772e-22)
(0.116289 -0.0126629 3.13341e-22)
(0.123752 -0.0125904 -2.86641e-22)
(0.131185 -0.0124869 3.04946e-22)
(0.138585 -0.0123532 -4.03444e-22)
(0.14595 -0.0121908 1.67962e-22)
(0.153279 -0.0120011 5.99609e-23)
(0.16057 -0.0117857 -1.08004e-22)
(0.167821 -0.0115466 1.35513e-22)
(0.175033 -0.0112856 -4.09073e-23)
(0.182203 -0.0110048 -1.4001e-22)
(0.189331 -0.0107065 -5.02671e-23)
(0.196417 -0.010393 6.38017e-23)
(0.203461 -0.0100666 -1.96721e-23)
(0.210463 -0.00972984 -1.99754e-23)
(0.217422 -0.00938517 3.27656e-23)
(0.22434 -0.00903512 -1.07193e-23)
(0.231217 -0.00868225 6.70774e-24)
(0.238055 -0.00832914 -1.39912e-23)
(0.244853 -0.00797835 1.14628e-23)
(0.251614 -0.00763268 -2.53414e-23)
(0.258339 -0.0072946 4.26916e-24)
(0.26503 -0.00696675 -1.13585e-23)
(0.27169 -0.00665204 6.81823e-24)
(0.278319 -0.00635301 -1.32841e-24)
(0.284926 -0.00607353 -4.64578e-25)
(0.291501 -0.00581498 -9.98155e-25)
(0.298093 -0.00558577 2.82739e-25)
(0.304552 -0.00538058 1.19824e-25)
(0.311434 -0.00522239 -6.10573e-25)
(0.31684 -0.00510465 -1.02964e-24)
(0.327488 -0.00497272 1.48843e-24)
(-0.159075 0.00855842 9.87659e-21)
(-0.162609 0.00787164 9.51811e-21)
(-0.165914 0.00723171 -2.31421e-20)
(-0.168972 0.00661817 1.46119e-20)
(-0.171777 0.00603991 -3.84625e-21)
(-0.174349 0.00549397 -9.95615e-22)
(-0.176701 0.0049758 1.85778e-20)
(-0.178846 0.0044812 -2.29442e-20)
(-0.180794 0.00400617 -9.69499e-23)
(-0.182555 0.0035471 2.14417e-20)
(-0.184136 0.00310076 -3.44456e-20)
(-0.185543 0.00266437 3.5165e-20)
(-0.186781 0.00223571 -6.37786e-21)
(-0.187854 0.00181346 -1.06824e-20)
(-0.188763 0.00139822 -5.0144e-21)
(-0.189512 0.000993463 5.96899e-21)
(-0.190103 0.000599444 -3.77707e-22)
(-0.190523 0.00021123 -1.40532e-20)
(-0.190792 -0.000161798 1.81589e-20)
(-0.190925 -0.0005232 1.20061e-20)
(-0.190914 -0.000873214 -1.86438e-20)
(-0.190759 -0.00121165 1.08955e-20)
(-0.190459 -0.00153826 -2.59246e-22)
(-0.190016 -0.00185278 -1.63115e-20)
(-0.189428 -0.00215467 2.2314e-21)
(-0.188696 -0.00244358 -4.74697e-21)
(-0.187819 -0.00271887 -5.84227e-21)
(-0.186795 -0.0029803 2.42142e-21)
(-0.185623 -0.00322802 1.66146e-20)
(-0.184302 -0.00346228 -7.20922e-21)
(-0.182831 -0.00368303 4.00512e-22)
(-0.181208 -0.00389056 4.24777e-21)
(-0.17943 -0.00408541 -1.70472e-21)
(-0.177496 -0.00426834 -4.12443e-24)
(-0.175404 -0.00444038 -3.82225e-21)
(-0.173151 -0.00460276 2.5571e-21)
(-0.170736 -0.00475497 -4.08598e-21)
(-0.168158 -0.00490027 8.04253e-21)
(-0.165415 -0.0050401 -2.67232e-23)
(-0.162505 -0.00517616 3.08777e-21)
(-0.159427 -0.0053103 4.07658e-22)
(-0.156179 -0.00544444 -4.52496e-21)
(-0.152761 -0.00558056 -2.55943e-21)
(-0.149172 -0.00572068 7.72838e-21)
(-0.14541 -0.00586681 -1.08508e-20)
(-0.141476 -0.00602097 5.08419e-21)
(-0.137371 -0.00618505 -6.10353e-21)
(-0.133093 -0.00636086 1.14707e-20)
(-0.128645 -0.00655017 -1.09172e-21)
(-0.124026 -0.00675463 -1.10693e-21)
(-0.119239 -0.00697377 -7.80461e-21)
(-0.114287 -0.00721049 -1.51177e-21)
(-0.109171 -0.00746572 3.66704e-21)
(-0.103895 -0.0077401 -1.47973e-21)
(-0.0984616 -0.00803409 1.49024e-21)
(-0.0928746 -0.00834785 3.15338e-21)
(-0.0871383 -0.00868097 -2.25134e-22)
(-0.0812588 -0.00903313 2.02872e-22)
(-0.075235 -0.00941038 -2.75267e-21)
(-0.0690743 -0.0097957 1.33793e-21)
(-0.0627871 -0.0101983 1.692e-21)
(-0.0563764 -0.0106159 -1.78696e-21)
(-0.0498482 -0.0110459 1.19102e-21)
(-0.0432093 -0.0114863 -3.49485e-21)
(-0.0364672 -0.0119353 3.11143e-21)
(-0.0296252 -0.0123931 1.73869e-22)
(-0.0226915 -0.012849 -1.00188e-21)
(-0.0156758 -0.0133055 7.1256e-23)
(-0.00858393 -0.0137598 3.56331e-21)
(-0.00142423 -0.0142087 -2.23011e-21)
(0.00579943 -0.0146486 2.38777e-22)
(0.0130795 -0.015077 2.32157e-21)
(0.0204054 -0.0154913 -4.56709e-21)
(0.0277726 -0.0158874 1.55784e-21)
(0.0351746 -0.0162644 -5.6161e-22)
(0.0426039 -0.016619 3.42371e-22)
(0.0500546 -0.0169487 7.1085e-22)
(0.0575205 -0.0172513 -2.32052e-22)
(0.0649958 -0.017525 -7.11622e-22)
(0.0724748 -0.0177679 1.3866e-21)
(0.0799523 -0.0179787 -1.24719e-21)
(0.0874233 -0.018156 8.89112e-22)
(0.0948833 -0.0182988 -9.38339e-22)
(0.102328 -0.0184065 9.11305e-22)
(0.109753 -0.0184786 1.83885e-22)
(0.117155 -0.018515 -5.15102e-22)
(0.124531 -0.0185157 3.89929e-22)
(0.131878 -0.018481 1.3791e-23)
(0.139192 -0.0184117 -1.75306e-22)
(0.146473 -0.0183085 -4.08526e-23)
(0.153717 -0.0181726 3.25515e-22)
(0.160924 -0.0180051 -6.55431e-22)
(0.168091 -0.0178077 2.50428e-22)
(0.175217 -0.017582 5.15312e-22)
(0.182303 -0.0173298 -3.01015e-22)
(0.189346 -0.0170533 7.8802e-23)
(0.196347 -0.0167544 -1.10874e-22)
(0.203306 -0.0164356 -7.61734e-23)
(0.210222 -0.0160992 1.63027e-22)
(0.217096 -0.0157476 -1.2439e-22)
(0.223928 -0.0153835 1.38576e-22)
(0.230719 -0.0150093 -2.51191e-23)
(0.23747 -0.0146278 1.36812e-22)
(0.244181 -0.0142416 -5.01851e-23)
(0.250854 -0.0138534 -1.92884e-23)
(0.25749 -0.013466 1.87079e-23)
(0.264091 -0.0130822 4.99086e-24)
(0.270658 -0.0127048 1.46149e-23)
(0.277194 -0.0123365 1.40292e-23)
(0.2837 -0.0119802 1.56937e-23)
(0.29018 -0.0116392 -1.34059e-23)
(0.296635 -0.011316 6.84507e-24)
(0.303072 -0.0110155 2.45883e-24)
(0.30948 -0.0107381 -1.91361e-24)
(0.315917 -0.010496 3.51992e-25)
(0.322207 -0.0102789 7.68175e-25)
(0.328964 -0.0101183 -2.2137e-24)
(0.334188 -0.0100111 9.96607e-25)
(0.344638 -0.00985 -4.02136e-24)
(-0.137118 0.0114566 2.36565e-20)
(-0.140194 0.0105533 -1.73733e-20)
(-0.143098 0.0097073 7.65865e-21)
(-0.145802 0.00888613 -2.33983e-21)
(-0.148276 0.00810992 -6.99665e-22)
(-0.150534 0.0073774 -2.04008e-20)
(-0.152588 0.00668333 1.90448e-20)
(-0.154446 0.00602246 2.26315e-21)
(-0.156118 0.00538959 -1.21933e-21)
(-0.15761 0.00477987 -1.39542e-20)
(-0.158929 0.00418888 1.86845e-20)
(-0.16008 0.00361267 2.8319e-22)
(-0.161066 0.00304793 1.67297e-20)
(-0.161891 0.00249222 -2.54505e-20)
(-0.162555 0.00194444 4.86763e-21)
(-0.16306 0.00140631 1.7967e-20)
(-0.163405 0.000885099 -3.06374e-20)
(-0.163586 0.00039003 2.66139e-20)
(-0.163623 -0.000110439 3.79887e-21)
(-0.163521 -0.000597803 9.82378e-22)
(-0.163277 -0.00107167 1.31686e-21)
(-0.162888 -0.00153262 -8.20735e-21)
(-0.162355 -0.00198076 -2.48656e-20)
(-0.161679 -0.00241612 -3.82488e-21)
(-0.160859 -0.00283854 3.68851e-20)
(-0.159895 -0.00324792 -1.72828e-20)
(-0.158787 -0.00364407 -4.33193e-21)
(-0.157532 -0.00402698 -3.55128e-21)
(-0.156131 -0.00439688 5.69456e-21)
(-0.154581 -0.00475404 -4.74435e-21)
(-0.152882 -0.00509866 -8.19798e-21)
(-0.151031 -0.00543116 1.82536e-20)
(-0.149028 -0.00575218 -1.66384e-20)
(-0.14687 -0.00606249 7.07356e-21)
(-0.144555 -0.00636315 -4.72914e-21)
(-0.14208 -0.00665594 1.6212e-20)
(-0.139446 -0.00693781 -1.24318e-20)
(-0.136651 -0.00721422 9.47986e-21)
(-0.133693 -0.00748613 8.31569e-21)
(-0.130571 -0.00775502 -1.60059e-20)
(-0.127284 -0.00802262 -5.95393e-21)
(-0.12383 -0.00829067 6.84866e-21)
(-0.120209 -0.00856095 1.54865e-21)
(-0.11642 -0.00883527 -3.4189e-22)
(-0.112463 -0.00911544 8.83013e-21)
(-0.108338 -0.00940321 -1.09827e-20)
(-0.104045 -0.00970026 -3.13487e-21)
(-0.0995852 -0.0100081 1.06211e-20)
(-0.09496 -0.0103282 4.18339e-21)
(-0.0901683 -0.0106634 -8.37037e-21)
(-0.0852139 -0.011009 1.08e-20)
(-0.0801008 -0.0113705 -1.79692e-20)
(-0.0748305 -0.0117482 1.19573e-20)
(-0.0694064 -0.0121422 -6.89745e-21)
(-0.0638319 -0.0125526 3.52057e-21)
(-0.058111 -0.0129791 3.36163e-21)
(-0.0522482 -0.0134202 -4.45811e-21)
(-0.0462557 -0.0138748 3.0044e-21)
(-0.0401226 -0.0143646 2.19916e-21)
(-0.0338576 -0.0148419 -8.4615e-22)
(-0.0274803 -0.0153347 -3.77963e-22)
(-0.0209888 -0.0158386 -3.96768e-21)
(-0.0143896 -0.0163501 3.83252e-21)
(-0.00769039 -0.0168669 5.96617e-22)
(-0.000901218 -0.0173866 -3.16733e-21)
(0.00597889 -0.0179056 3.52596e-21)
(0.0129416 -0.0184214 1.31277e-21)
(0.0199716 -0.0189319 6.11006e-22)
(0.0270659 -0.0194341 -3.171e-21)
(0.0342167 -0.0199248 2.74674e-21)
(0.0414178 -0.0203995 -1.0435e-21)
(0.0486618 -0.0208587 2.38219e-22)
(0.0559402 -0.0212979 1.4458e-22)
(0.0632467 -0.021714 1.04713e-21)
(0.0705748 -0.0221051 -1.42026e-22)
(0.0779175 -0.0224688 -1.39221e-21)
(0.0852686 -0.0228027 -2.32945e-23)
(0.0926222 -0.0231049 3.42539e-23)
(0.0999726 -0.0233737 -1.94946e-22)
(0.107314 -0.0236077 3.06833e-22)
(0.114643 -0.0238055 5.09195e-22)
(0.121953 -0.0239662 -8.59774e-22)
(0.12924 -0.0240892 -6.90869e-22)
(0.136501 -0.0241739 1.62594e-21)
(0.143733 -0.0242202 -1.32844e-22)
(0.150931 -0.0242283 -3.11034e-22)
(0.158094 -0.0241984 1.60979e-22)
(0.165218 -0.0241313 5.58669e-22)
(0.172302 -0.0240278 -9.39707e-22)
(0.179345 -0.023889 4.68429e-22)
(0.186344 -0.0237163 -5.07639e-23)
(0.193299 -0.0235111 9.05211e-23)
(0.200209 -0.0232752 -2.65551e-22)
(0.207074 -0.0230106 2.81533e-22)
(0.213893 -0.0227191 -3.75038e-22)
(0.220666 -0.0224032 4.0381e-22)
(0.227394 -0.0220651 -2.95489e-22)
(0.234078 -0.0217072 5.43097e-22)
(0.240717 -0.0213321 -3.44346e-22)
(0.247314 -0.0209424 1.60461e-22)
(0.253868 -0.0205408 -1.07651e-22)
(0.260382 -0.0201301 -7.13885e-23)
(0.266856 -0.0197129 5.3996e-23)
(0.273292 -0.0192921 -2.67943e-23)
(0.279693 -0.0188706 1.07858e-23)
(0.286059 -0.0184513 -6.67072e-23)
(0.292392 -0.0180369 2.3451e-23)
(0.298696 -0.0176305 -4.99745e-24)
(0.304971 -0.0172352 3.03905e-23)
(0.311221 -0.0168537 -2.42096e-24)
(0.31745 -0.0164898 -3.41927e-24)
(0.323656 -0.0161459 -1.97341e-24)
(0.329853 -0.0158281 -7.95674e-26)
(0.336018 -0.0155353 -1.22875e-24)
(0.342231 -0.0152832 -1.12302e-25)
(0.348269 -0.0150578 7.80908e-25)
(0.354838 -0.0148935 2.4054e-25)
(0.359795 -0.0147989 -5.59402e-25)
(0.369936 -0.0146207 2.80794e-24)
(-0.107672 0.0139149 -2.23554e-20)
(-0.110177 0.0128492 3.47197e-20)
(-0.112584 0.011837 -3.04834e-21)
(-0.114859 0.0108342 -1.71146e-20)
(-0.116931 0.00987898 -5.16515e-21)
(-0.118811 0.00897427 -7.13039e-21)
(-0.120506 0.00811569 -8.0959e-21)
(-0.122021 0.00729777 3.03286e-20)
(-0.123361 0.00651457 -1.208e-21)
(-0.124533 0.00576039 -1.18224e-20)
(-0.125539 0.00502992 1.38648e-20)
(-0.126384 0.00431828 -5.58976e-21)
(-0.12707 0.00362113 -3.10762e-20)
(-0.127599 0.00293521 2.22393e-20)
(-0.12797 0.00225904 -3.10258e-20)
(-0.12818 0.00159451 1.30946e-20)
(-0.128227 0.000949702 4.12577e-20)
(-0.128129 0.000331561 -1.73067e-20)
(-0.127895 -0.000294742 1.86293e-21)
(-0.127511 -0.000905856 3.44633e-22)
(-0.126984 -0.00150213 -1.24945e-20)
(-0.126314 -0.00208454 9.24422e-21)
(-0.125502 -0.00265341 -4.0505e-21)
(-0.124546 -0.00320901 -8.33853e-21)
(-0.123447 -0.00375149 -5.01203e-21)
(-0.122205 -0.00428095 7.04066e-21)
(-0.120818 -0.00479745 1.58456e-20)
(-0.119286 -0.00530118 -1.43164e-20)
(-0.117607 -0.00579244 6.55635e-21)
(-0.115782 -0.00627157 -6.57141e-21)
(-0.113808 -0.00673896 -5.22914e-21)
(-0.111684 -0.00719514 5.40671e-21)
(-0.109409 -0.00764086 1.18059e-20)
(-0.106981 -0.00807679 -1.91398e-20)
(-0.1044 -0.00850373 1.57258e-20)
(-0.10166 -0.00892659 -2.24127e-20)
(-0.0987611 -0.00933504 1.43721e-20)
(-0.0957067 -0.00973996 3.57892e-21)
(-0.0924926 -0.0101413 1.56484e-21)
(-0.0891178 -0.0105401 -2.84648e-21)
(-0.0855815 -0.010938 -6.36116e-21)
(-0.081883 -0.0113365 1.16048e-20)
(-0.078022 -0.0117373 -1.12084e-20)
(-0.0739981 -0.0121418 2.81178e-21)
(-0.0698116 -0.0125517 -8.39728e-21)
(-0.0654629 -0.0129685 -5.55099e-21)
(-0.0609527 -0.0133934 1.64136e-20)
(-0.0562827 -0.0138275 -1.04292e-20)
(-0.0514558 -0.0142732 3.29864e-21)
(-0.0464679 -0.0147367 -8.90391e-21)
(-0.0413236 -0.0152022 2.89058e-21)
(-0.0360306 -0.0156819 1.16187e-20)
(-0.0305891 -0.0161755 3.9605e-21)
(-0.0250026 -0.0166826 -5.47161e-21)
(-0.0192752 -0.017203 -3.79619e-21)
(-0.0134105 -0.0177359 1.33698e-21)
(-0.00741265 -0.018281 7.85341e-21)
(-0.00131031 -0.0188395 -1.11139e-20)
(0.0049313 -0.0194043 1.15041e-20)
(0.0113065 -0.0199743 -2.94699e-21)
(0.017768 -0.0205527 2.55513e-21)
(0.0243327 -0.0211354 -3.23501e-21)
(0.030993 -0.02172 -4.66035e-21)
(0.0377406 -0.0223045 5.65971e-21)
(0.0445671 -0.0228857 -7.14618e-21)
(0.0514678 -0.0234567 5.42557e-21)
(0.0584356 -0.0240229 -2.26623e-21)
(0.0654595 -0.0245776 6.18564e-22)
(0.0725332 -0.0251176 -1.04438e-21)
(0.0796491 -0.0256401 -2.56703e-21)
(0.0868002 -0.0261418 -2.08901e-22)
(0.0939793 -0.0266212 5.70509e-22)
(0.101179 -0.0270751 1.31862e-21)
(0.108391 -0.0275007 -3.7361e-22)
(0.115611 -0.0278961 -1.10741e-23)
(0.122831 -0.0282589 -2.1772e-21)
(0.130045 -0.0285873 4.46374e-21)
(0.137248 -0.0288795 -1.8072e-21)
(0.144433 -0.029134 2.19207e-23)
(0.151597 -0.0293498 -2.10761e-21)
(0.158733 -0.0295257 9.90486e-23)
(0.165839 -0.0296612 1.4273e-21)
(0.17291 -0.0297558 -1.59959e-21)
(0.179943 -0.0298095 1.68985e-21)
(0.186935 -0.0298224 -3.57583e-23)
(0.193882 -0.0297949 1.28595e-21)
(0.200784 -0.0297277 -1.97823e-21)
(0.207639 -0.0296217 6.80192e-22)
(0.214444 -0.029478 -2.92274e-23)
(0.221199 -0.0292981 4.00128e-22)
(0.227903 -0.0290835 -2.91161e-22)
(0.234555 -0.0288361 -5.45979e-22)
(0.241157 -0.0285577 5.25486e-22)
(0.247708 -0.0282505 -1.96342e-22)
(0.254208 -0.0279168 1.319e-23)
(0.260658 -0.0275589 7.96749e-23)
(0.26706 -0.0271794 -1.93744e-22)
(0.273414 -0.0267809 2.55797e-22)
(0.279722 -0.0263661 -6.20516e-25)
(0.285985 -0.0259377 -9.07878e-23)
(0.292206 -0.0254985 1.32602e-22)
(0.298386 -0.0250514 -8.63837e-23)
(0.304526 -0.0245993 4.8918e-23)
(0.31063 -0.0241451 -1.51071e-22)
(0.316698 -0.0236917 1.4277e-22)
(0.322735 -0.0232421 1.30975e-23)
(0.328742 -0.0227994 3.55621e-23)
(0.334721 -0.0223666 -3.49204e-23)
(0.340675 -0.0219468 9.48978e-24)
(0.346607 -0.021543 -1.65902e-23)
(0.352522 -0.0211594 5.06399e-24)
(0.358418 -0.0207979 2.39228e-24)
(0.36431 -0.0204657 -1.06237e-23)
(0.370168 -0.0201606 -6.22404e-25)
(0.376094 -0.0199007 -1.38691e-25)
(0.381811 -0.0196707 -9.48484e-25)
(0.388132 -0.0195008 1.96244e-25)
(0.392754 -0.0194191 3.92192e-25)
(0.402481 -0.0192368 -3.30771e-24)
(-0.0704496 0.0158548 1.51305e-20)
(-0.0722961 0.0147055 -3.60856e-20)
(-0.0741576 0.0135675 3.38317e-20)
(-0.0759687 0.0124164 -5.18333e-20)
(-0.0776105 0.011307 2.50295e-20)
(-0.0790871 0.0102483 1.66327e-21)
(-0.0804005 0.00923943 2.82746e-20)
(-0.0815516 0.00827581 -3.58157e-20)
(-0.0825425 0.00735138 2.42414e-22)
(-0.083375 0.00646015 1.1265e-21)
(-0.0840513 0.00559636 2.52517e-20)
(-0.0845731 0.00475448 -3.08598e-20)
(-0.0849412 0.0039293 5.11136e-20)
(-0.0851557 0.00311633 -7.79521e-20)
(-0.0852155 0.0023123 7.94021e-20)
(-0.0851155 0.00151674 -8.4033e-21)
(-0.0848493 0.000739115 -1.822e-20)
(-0.0844508 -5.54831e-06 -3.5264e-20)
(-0.0839225 -0.000746864 5.9626e-21)
(-0.0832387 -0.00147606 5.31276e-20)
(-0.0824114 -0.00219204 -4.56341e-20)
(-0.0814416 -0.00289429 3.37601e-20)
(-0.0803289 -0.00358277 -4.42726e-20)
(-0.0790735 -0.00425775 3.75163e-20)
(-0.0776749 -0.00491952 -1.8436e-20)
(-0.0761329 -0.00556832 1.18872e-20)
(-0.0744469 -0.0062044 -4.78113e-20)
(-0.0726162 -0.00682805 2.90954e-21)
(-0.07064 -0.00743962 1.10373e-20)
(-0.0685173 -0.00803954 2.25126e-20)
(-0.0662473 -0.00862826 -6.74139e-21)
(-0.0638289 -0.00920634 -5.02704e-21)
(-0.0612609 -0.00977439 4.62022e-20)
(-0.0585418 -0.0103326 -2.54382e-20)
(-0.0556757 -0.0108823 1.77511e-20)
(-0.0526494 -0.0114396 -4.6639e-20)
(-0.0494657 -0.01197 1.1414e-20)
(-0.0461331 -0.0124994 1.73854e-20)
(-0.0426442 -0.0130262 -1.25249e-20)
(-0.038999 -0.013551 1.68433e-20)
(-0.0351972 -0.014075 -2.47176e-20)
(-0.0312386 -0.0145996 1.33262e-20)
(-0.0271232 -0.0151261 1.58931e-20)
(-0.0228512 -0.0156559 -2.12829e-20)
(-0.0184234 -0.0161904 2.11893e-20)
(-0.0138406 -0.0167308 -8.95077e-21)
(-0.0091039 -0.0172783 -4.44503e-21)
(-0.00421619 -0.0178341 4.77895e-23)
(0.000814138 -0.0183997 -4.90238e-21)
(0.00600102 -0.0189724 6.21583e-21)
(0.0113399 -0.0195532 5.33276e-21)
(0.0168119 -0.0201453 7.35781e-22)
(0.0224218 -0.0207477 -5.8866e-21)
(0.0281657 -0.0213601 -1.26997e-21)
(0.0340388 -0.021982 -5.99365e-21)
(0.0400365 -0.0226129 6.12995e-21)
(0.0461533 -0.0232531 8.25615e-21)
(0.0523758 -0.0239044 -1.29229e-20)
(0.0587106 -0.0245349 3.30068e-21)
(0.0651552 -0.0251895 4.93402e-22)
(0.0716868 -0.0258431 -6.01759e-22)
(0.0783053 -0.026494 9.30427e-21)
(0.085004 -0.027141 -8.94389e-21)
(0.0917749 -0.0277816 1.29841e-21)
(0.0986103 -0.0284131 -6.40416e-21)
(0.105503 -0.0290309 8.10384e-21)
(0.112447 -0.0296354 -6.41493e-22)
(0.119432 -0.0302224 -8.33408e-22)
(0.126452 -0.030789 5.23009e-21)
(0.133497 -0.0313323 -1.13538e-20)
(0.140563 -0.0318495 1.2736e-20)
(0.14764 -0.0323382 -3.04611e-21)
(0.154721 -0.032796 -4.36727e-21)
(0.161801 -0.0332204 3.18327e-21)
(0.168872 -0.0336093 -6.37165e-21)
(0.175929 -0.0339609 6.97019e-21)
(0.182964 -0.0342734 -1.96086e-21)
(0.189974 -0.0345455 8.58246e-22)
(0.196952 -0.0347759 -2.57202e-21)
(0.203894 -0.0349638 7.14738e-22)
(0.210797 -0.0351086 -2.55872e-22)
(0.217655 -0.0352098 -1.85961e-22)
(0.224466 -0.0352675 2.10186e-21)
(0.231227 -0.0352819 -4.10699e-22)
(0.237935 -0.0352535 -1.04989e-21)
(0.244589 -0.0351829 1.9917e-22)
(0.251186 -0.0350712 -2.82484e-22)
(0.257726 -0.0349197 1.47454e-21)
(0.264208 -0.0347297 -1.3519e-21)
(0.270632 -0.0345029 8.80523e-23)
(0.276997 -0.0342413 1.16716e-21)
(0.283304 -0.0339468 -1.93678e-23)
(0.289553 -0.0336216 -4.86203e-22)
(0.295746 -0.0332681 7.00181e-23)
(0.301883 -0.0328888 -1.07316e-21)
(0.307966 -0.0324862 7.92299e-22)
(0.313996 -0.032063 2.49557e-22)
(0.319976 -0.031622 -6.37331e-22)
(0.325907 -0.031166 4.39491e-22)
(0.331793 -0.030698 -3.29484e-22)
(0.337634 -0.0302207 7.78633e-24)
(0.343433 -0.0297372 7.05863e-23)
(0.349193 -0.0292505 -1.05277e-22)
(0.354917 -0.0287635 -9.37897e-23)
(0.360607 -0.0282793 -1.42648e-23)
(0.366266 -0.027801 1.62179e-22)
(0.371897 -0.0273316 -1.83009e-22)
(0.377502 -0.0268742 1.06285e-22)
(0.383086 -0.0264323 -7.49869e-23)
(0.38865 -0.0260086 1.01979e-23)
(0.3942 -0.0256077 -5.05521e-24)
(0.399732 -0.0252312 -4.43995e-24)
(0.405269 -0.0248873 -6.91012e-24)
(0.410764 -0.0245727 6.13853e-24)
(0.416353 -0.0243062 1.45159e-24)
(0.421688 -0.0240748 3.71167e-25)
(0.42771 -0.0238978 2.92372e-24)
(0.431948 -0.0238278 -8.36976e-25)
(0.441166 -0.0236524 3.41812e-24)
(-0.024836 0.017395 3.26823e-20)
(-0.0260569 0.016154 -6.05622e-20)
(-0.027404 0.014888 4.08239e-20)
(-0.0287773 0.0136267 1.79726e-20)
(-0.0300208 0.0123931 -2.11484e-20)
(-0.0311249 0.011201 5.25701e-21)
(-0.0320868 0.0100575 2.40785e-20)
(-0.0329034 0.00896057 -2.33012e-20)
(-0.0335729 0.00790461 -3.73686e-20)
(-0.034094 0.00688392 5.2528e-20)
(-0.0344661 0.00589292 -4.53988e-20)
(-0.0346893 0.00492595 3.30952e-20)
(-0.034763 0.00397734 1.33879e-20)
(-0.0346868 0.00304174 8.6842e-21)
(-0.0344597 0.00211526 -3.39919e-20)
(-0.0340716 0.00120299 -5.33935e-21)
(-0.0335024 0.00032727 -2.17902e-20)
(-0.0328114 -0.00057054 2.76686e-20)
(-0.0320018 -0.001446 -1.29835e-20)
(-0.0310362 -0.00229951 -7.5581e-21)
(-0.0299233 -0.00313679 1.78357e-20)
(-0.0286659 -0.00395904 -3.0769e-22)
(-0.0272647 -0.00476685 3.74607e-20)
(-0.02572 -0.00556083 -4.99621e-20)
(-0.0240316 -0.00634147 3.2036e-20)
(-0.0221994 -0.00710915 -2.061e-20)
(-0.0202229 -0.00786423 -1.41901e-20)
(-0.0181016 -0.00860709 4.34087e-20)
(-0.0158349 -0.00933815 -2.87342e-20)
(-0.0134223 -0.0100579 3.94984e-20)
(-0.010863 -0.0107669 -1.37344e-20)
(-0.00815638 -0.0114658 -5.10266e-20)
(-0.0053011 -0.0121551 2.03711e-20)
(-0.00229574 -0.0128358 2.25592e-21)
(0.000842274 -0.0135124 -1.61477e-20)
(0.00414502 -0.0141773 1.54192e-20)
(0.00761374 -0.0148321 4.89774e-22)
(0.0112166 -0.0154853 5.30205e-21)
(0.0149719 -0.0161348 4.49385e-21)
(0.0188791 -0.0167818 3.22611e-21)
(0.0229373 -0.0174274 2.48447e-20)
(0.0271464 -0.018073 -5.89238e-20)
(0.0315056 -0.0187198 1.50809e-20)
(0.036014 -0.0193689 3.45741e-21)
(0.0406705 -0.0200215 2.02421e-20)
(0.0454735 -0.0206788 -1.48251e-20)
(0.050421 -0.0213417 1.3736e-20)
(0.0555106 -0.0220116 1.6535e-21)
(0.0607371 -0.0226881 -1.17827e-20)
(0.0661029 -0.0233619 -6.53143e-21)
(0.071606 -0.0240503 6.07589e-21)
(0.0772364 -0.0247457 5.17751e-21)
(0.0829921 -0.0254474 -7.9234e-21)
(0.0888687 -0.0261552 -3.3425e-21)
(0.0948612 -0.0268685 1.5297e-20)
(0.100964 -0.0275862 -6.42962e-21)
(0.107172 -0.0283075 8.66969e-21)
(0.113475 -0.029032 -9.0864e-21)
(0.119872 -0.029747 5.6674e-22)
(0.126359 -0.0304659 -2.22495e-21)
(0.132922 -0.0311803 3.12882e-21)
(0.139556 -0.0318873 -2.03862e-21)
(0.146254 -0.0325849 -2.75153e-21)
(0.153008 -0.0332702 9.40177e-21)
(0.15981 -0.0339405 -1.12001e-20)
(0.166653 -0.0345922 -1.96678e-21)
(0.17353 -0.0352237 8.16632e-21)
(0.180433 -0.0358317 -5.55737e-21)
(0.187352 -0.0364135 5.78428e-22)
(0.194282 -0.0369662 7.9793e-21)
(0.201215 -0.0374872 -3.00072e-21)
(0.208144 -0.0379742 -9.00353e-22)
(0.215061 -0.0384248 4.35589e-21)
(0.221961 -0.0388369 1.19391e-21)
(0.228836 -0.0392087 -6.34276e-21)
(0.235682 -0.0395385 3.37496e-21)
(0.242492 -0.039825 -5.76869e-21)
(0.249262 -0.0400669 6.87483e-21)
(0.255987 -0.0402636 -5.93857e-21)
(0.262662 -0.0404143 6.80062e-21)
(0.269285 -0.0405188 -5.39656e-21)
(0.275851 -0.0405771 2.0979e-21)
(0.282357 -0.0405896 3.23581e-22)
(0.288803 -0.0405568 3.81315e-22)
(0.295185 -0.0404794 -2.70301e-23)
(0.301502 -0.0403587 -1.58014e-21)
(0.307754 -0.0401958 2.23557e-21)
(0.313939 -0.0399924 -1.0133e-21)
(0.320058 -0.0397502 1.06412e-21)
(0.326111 -0.0394712 -9.80133e-22)
(0.332098 -0.0391576 2.35828e-22)
(0.33802 -0.0388115 1.14421e-21)
(0.343879 -0.0384355 -1.34515e-21)
(0.349676 -0.0380321 1.10302e-21)
(0.355413 -0.0376039 -7.47393e-22)
(0.361092 -0.0371539 4.34316e-22)
(0.366715 -0.0366847 -3.51697e-22)
(0.372285 -0.0361994 -1.78933e-22)
(0.377804 -0.0357008 3.02416e-22)
(0.383275 -0.035192 1.18329e-22)
(0.3887 -0.034676 3.85765e-22)
(0.394083 -0.0341559 -8.66291e-23)
(0.399427 -0.0336346 1.25262e-22)
(0.404735 -0.0331153 -1.07719e-22)
(0.410009 -0.0326011 1.19679e-22)
(0.415254 -0.032095 -5.73289e-23)
(0.420472 -0.0316004 -3.57903e-23)
(0.425666 -0.03112 1.38235e-23)
(0.430841 -0.0306577 -1.49045e-23)
(0.435997 -0.0302161 1.9542e-23)
(0.441144 -0.0298 4.14176e-24)
(0.446271 -0.0294106 -1.29087e-23)
(0.451413 -0.0290569 -8.2566e-24)