/*--------------------------------*- C++ -*----------------------------------*\
  =========                 |
  \\      /  F ield         | OpenFOAM: The Open Source CFD Toolbox
   \\    /   O peration     | Website:  https://openfoam.org
    \\  /    A nd           | Version:  7
     \\/     M anipulation  |
\*---------------------------------------------------------------------------*/
FoamFile
{
    version     2.0;
    format      ascii;
    class       surfaceScalarField;
    location    "40";
    object      phi;
}
// * * * * * * * * * * * * * * * * * * * * * * * * * * * * * * * * * * * * * //

dimensions      [0 3 -1 0 0 0 0];

internalField   nonuniform List<scalar> 
2641
(
-0.000287202
0.013143
0.000292671
-0.000274691
0.0140123
-0.000257044
0.0147893
-0.000236175
0.0154565
-0.000213811
0.0160068
-0.000191356
0.0164426
-0.000169812
0.0167731
-0.000149781
0.0170125
-0.000131517
0.0171769
-0.000115017
0.0172825
-0.000100111
0.0173444
-8.65464e-05
0.0173752
-7.40513e-05
0.0173852
-6.23707e-05
0.0173823
-5.12874e-05
0.0173724
-4.06277e-05
0.0173597
-3.02583e-05
0.0173469
-2.00788e-05
0.0173359
-1.0013e-05
0.0173281
0.017324
-0.000283022
0.0131378
0.000288256
-0.000270834
0.0140001
-0.000253561
0.0147721
-0.000233081
0.015436
-0.000211091
0.0159848
-0.000188974
0.0164204
-0.000167723
0.0167519
-0.000147941
0.0169927
-0.000129888
0.0171588
-0.00011357
0.0172662
-9.88272e-05
0.0173296
-8.54147e-05
0.0173618
-7.30653e-05
0.0173728
-6.15275e-05
0.0173708
-5.05859e-05
0.0173615
-4.00674e-05
0.0173491
-2.98387e-05
0.0173366
-1.97993e-05
0.0173259
-9.87315e-06
0.0173181
0.0173141
-0.000278914
0.0131328
0.000283921
-0.000267038
0.0139883
-0.000250128
0.0147551
-0.000230026
0.0154159
-0.0002084
0.0159632
-0.000186613
0.0163987
-0.00016565
0.0167309
-0.000146112
0.0169732
-0.000128267
0.017141
-0.000112129
0.0172501
-9.75471e-05
0.0173151
-8.42848e-05
0.0173485
-7.20799e-05
0.0173606
-6.0684e-05
0.0173594
-4.98835e-05
0.0173507
-3.95057e-05
0.0173388
-2.94177e-05
0.0173265
-1.95189e-05
0.017316
-9.73323e-06
0.0173084
0.0173044
-0.000274876
0.013128
0.000279665
-0.000263304
0.0139767
-0.000246747
0.0147386
-0.000227013
0.0153962
-0.000205742
0.0159419
-0.000184278
0.0163772
-0.000163596
0.0167102
-0.000144297
0.0169539
-0.000126656
0.0171233
-0.000110696
0.0172341
-9.62728e-05
0.0173006
-8.3159e-05
0.0173354
-7.1097e-05
0.0173486
-5.98418e-05
0.0173481
-4.91813e-05
0.01734
-3.8944e-05
0.0173285
-2.89963e-05
0.0173166
-1.92381e-05
0.0173062
-9.59263e-06
0.0172987
0.0172948
-0.000270911
0.0131234
0.000275487
-0.000259632
0.0139654
-0.000243418
0.0147224
-0.000224042
0.0153768
-0.000203118
0.015921
-0.000181969
0.016356
-0.000161562
0.0166898
-0.000142499
0.0169348
-0.000125059
0.0171059
-0.000109273
0.0172183
-9.50068e-05
0.0172864
-8.20393e-05
0.0173224
-7.01185e-05
0.0173366
-5.90027e-05
0.017337
-4.84815e-05
0.0173295
-3.83835e-05
0.0173184
-2.85758e-05
0.0173068
-1.89576e-05
0.0172966
-9.45248e-06
0.0172892
0.0172853
-0.000267016
0.0131191
0.000271388
-0.000256024
0.0139544
-0.000240143
0.0147065
-0.000221116
0.0153578
-0.000200529
0.0159004
-0.000179689
0.0163352
-0.000159552
0.0166697
-0.00014072
0.016916
-0.000123477
0.0170887
-0.000107862
0.0172027
-9.37507e-05
0.0172723
-8.09275e-05
0.0173096
-6.91462e-05
0.0173249
-5.81682e-05
0.017326
-4.77849e-05
0.0173191
-3.78252e-05
0.0173085
-2.81566e-05
0.0172971
-1.86779e-05
0.0172871
-9.31271e-06
0.0172798
0.017276
-0.000263194
0.0131149
0.000267366
-0.000252479
0.0139437
-0.000236923
0.0146909
-0.000218236
0.0153391
-0.000197979
0.0158802
-0.000177439
0.0163147
-0.000157567
0.0166498
-0.000138961
0.0168974
-0.000121912
0.0170716
-0.000106466
0.0171873
-9.25065e-05
0.0172583
-7.98255e-05
0.0172969
-6.81817e-05
0.0173132
-5.73397e-05
0.0173152
-4.70925e-05
0.0173089
-3.72702e-05
0.0172986
-2.77395e-05
0.0172876
-1.83996e-05
0.0172778
-9.17336e-06
0.0172706
0.0172668
-0.000259442
0.0131109
0.000263422
-0.000248998
0.0139333
-0.000233758
0.0146757
-0.000215402
0.0153207
-0.000195467
0.0158602
-0.000175222
0.0162944
-0.000155608
0.0166302
-0.000137225
0.016879
-0.000120366
0.0170548
-0.000105086
0.017172
-9.1276e-05
0.0172445
-7.87348e-05
0.0172844
-6.72264e-05
0.0173017
-5.65187e-05
0.0173045
-4.64062e-05
0.0172988
-3.67195e-05
0.017289
-2.73257e-05
0.0172782
-1.81232e-05
0.0172686
-9.03503e-06
0.0172615
0.0172578
-0.000255762
0.0131071
0.000259554
-0.00024558
0.0139231
-0.000230648
0.0146608
-0.000212616
0.0153027
-0.000192995
0.0158406
-0.000173038
0.0162745
-0.000153678
0.0166108
-0.000135513
0.0168608
-0.000118841
0.0170381
-0.000103724
0.0171569
-9.00607e-05
0.0172308
-7.76571e-05
0.017272
-6.62819e-05
0.0172903
-5.57063e-05
0.0172939
-4.57265e-05
0.0172888
-3.61739e-05
0.0172794
-2.69153e-05
0.0172689
-1.78491e-05
0.0172595
-8.89773e-06
0.0172526
0.0172489
-0.000252152
0.0131035
0.000255763
-0.000242226
0.0139132
-0.000227594
0.0146461
-0.000209878
0.015285
-0.000190564
0.0158213
-0.000170889
0.0162548
-0.000151778
0.0165917
-0.000133826
0.0168429
-0.000117338
0.0170216
-0.000102381
0.0171419
-8.88621e-05
0.0172173
-7.65936e-05
0.0172597
-6.53494e-05
0.0172791
-5.49038e-05
0.0172835
-4.50548e-05
0.0172789
-3.56343e-05
0.01727
-2.65092e-05
0.0172598
-1.75779e-05
0.0172506
-8.76216e-06
0.0172438
0.0172401
-0.000248612
0.0131001
0.000252046
-0.000238936
0.0139035
-0.000224597
0.0146318
-0.000207189
0.0152676
-0.000188175
0.0158023
-0.000168776
0.0162354
-0.000149908
0.0165729
-0.000132167
0.0168251
-0.000115859
0.0170053
-0.000101059
0.0171271
-8.76815e-05
0.0172039
-7.55457e-05
0.0172476
-6.443e-05
0.017268
-5.41121e-05
0.0172731
-4.43919e-05
0.0172692
-3.51015e-05
0.0172607
-2.61083e-05
0.0172508
-1.73098e-05
0.0172418
-8.62769e-06
0.0172351
0.0172315
-0.000245143
0.0130968
0.000248404
-0.000235709
0.013894
-0.000221656
0.0146177
-0.000204549
0.0152505
-0.000185829
0.0157836
-0.0001667
0.0162163
-0.000148071
0.0165542
-0.000130536
0.0168076
-0.000114404
0.0169892
-9.97587e-05
0.0171125
-8.65204e-05
0.0171907
-7.45146e-05
0.0172355
-6.3525e-05
0.017257
-5.33325e-05
0.0172629
-4.37384e-05
0.0172596
-3.45762e-05
0.0172515
-2.57127e-05
0.017242
-1.70454e-05
0.0172331
-8.49547e-06
0.0172265
0.017223
-0.000241742
0.0130937
0.000244835
-0.000232546
0.0138848
-0.000218771
0.014604
-0.000201959
0.0152336
-0.000183526
0.0157651
-0.000164662
0.0161974
-0.000146267
0.0165358
-0.000128934
0.0167903
-0.000112976
0.0169732
-9.84818e-05
0.017098
-8.53797e-05
0.0171776
-7.35014e-05
0.0172237
-6.26354e-05
0.0172461
-5.25658e-05
0.0172529
-4.30957e-05
0.0172501
-3.40592e-05
0.0172425
-2.53231e-05
0.0172332
-1.67849e-05
0.0172246
-8.36487e-06
0.0172181
0.0172147
-0.000238409
0.0130908
0.000241339
-0.000229445
0.0138759
-0.000215944
0.0145905
-0.000199419
0.0152171
-0.000181267
0.015747
-0.000162663
0.0161788
-0.000144498
0.0165177
-0.000127362
0.0167731
-0.000111575
0.0169574
-9.72292e-05
0.0170836
-8.42607e-05
0.0171646
-7.25073e-05
0.0172119
-6.17622e-05
0.0172354
-5.18129e-05
0.0172429
-4.24643e-05
0.0172408
-3.3551e-05
0.0172336
-2.49404e-05
0.0172246
-1.65287e-05
0.0172162
-8.2364e-06
0.0172098
0.0172064
-0.000235145
0.013088
0.000237915
-0.000226407
0.0138671
-0.000213173
0.0145772
-0.000196929
0.0152009
-0.000179053
0.0157291
-0.000160703
0.0161604
-0.000142763
0.0164997
-0.000125822
0.0167562
-0.000110202
0.0169418
-9.6002e-05
0.0170694
-8.31644e-05
0.0171518
-7.15331e-05
0.0172003
-6.09063e-05
0.0172247
-5.10746e-05
0.0172331
-4.18449e-05
0.0172316
-3.30524e-05
0.0172248
-2.45644e-05
0.0172161
-1.62772e-05
0.0172079
-8.11046e-06
0.0172016
0.0171983
-0.000231947
0.0130854
0.000234562
-0.000223431
0.0138586
-0.000210458
0.0145643
-0.00019449
0.0151849
-0.000176884
0.0157115
-0.000158784
0.0161423
-0.000141064
0.016482
-0.000124315
0.0167394
-0.000108858
0.0169263
-9.48011e-05
0.0170554
-8.20916e-05
0.0171391
-7.05798e-05
0.0171888
-6.00686e-05
0.0172142
-5.03519e-05
0.0172234
-4.12382e-05
0.0172225
-3.25638e-05
0.0172161
-2.4196e-05
0.0172078
-1.60306e-05
0.0171997
-7.98687e-06
0.0171936
0.0171903
-0.000228816
0.0130829
0.000231278
-0.000220517
0.0138503
-0.000207799
0.0145515
-0.000192102
0.0151692
-0.00017476
0.0156941
-0.000156905
0.0161245
-0.000139402
0.0164645
-0.00012284
0.0167229
-0.000107545
0.016911
-9.36275e-05
0.0170415
-8.10434e-05
0.0171265
-6.96482e-05
0.0171774
-5.92499e-05
0.0172038
-4.96453e-05
0.0172138
-4.0645e-05
0.0172135
-3.20859e-05
0.0172076
-2.38354e-05
0.0171995
-1.57892e-05
0.0171917
-7.86601e-06
0.0171857
0.0171825
-0.00022575
0.0130806
0.000228063
-0.000217664
0.0138422
-0.000205197
0.0145391
-0.000189765
0.0151538
-0.000172682
0.0156771
-0.000155067
0.0161069
-0.000137777
0.0164472
-0.000121399
0.0167065
-0.000106262
0.0168959
-9.24818e-05
0.0170277
-8.00204e-05
0.017114
-6.87393e-05
0.0171661
-5.84511e-05
0.0171935
-4.89557e-05
0.0172043
-4.00658e-05
0.0172046
-3.16192e-05
0.0171991
-2.34833e-05
0.0171914
-1.55534e-05
0.0171838
-7.74754e-06
0.0171779
0.0171747
-0.000222749
0.0130785
0.000224916
-0.000214871
0.0138344
-0.00020265
0.0145268
-0.000187478
0.0151386
-0.00017065
0.0156602
-0.00015327
0.0160895
-0.00013619
0.0164301
-0.000119993
0.0166903
-0.000105011
0.0168809
-9.13651e-05
0.017014
-7.90236e-05
0.0171017
-6.78537e-05
0.0171549
-5.76726e-05
0.0171834
-4.82836e-05
0.0171949
-3.95013e-05
0.0171958
-3.11641e-05
0.0171908
-2.31399e-05
0.0171833
-1.53233e-05
0.0171759
-7.6323e-06
0.0171702
0.0171671
-0.000219812
0.0130764
0.000221836
-0.000212139
0.0138267
-0.000200158
0.0145149
-0.000185241
0.0151237
-0.000168664
0.0156437
-0.000151516
0.0160723
-0.000134641
0.0164133
-0.000118622
0.0166743
-0.000103791
0.0168661
-9.02779e-05
0.0170005
-7.80536e-05
0.0170895
-6.69922e-05
0.0171439
-5.69154e-05
0.0171733
-4.76298e-05
0.0171856
-3.89519e-05
0.0171871
-3.07212e-05
0.0171825
-2.28054e-05
0.0171754
-1.50993e-05
0.0171682
-7.51997e-06
0.0171626
0.0171596
-0.000216938
0.0130745
0.000218821
-0.000209466
0.0138192
-0.000197722
0.0145031
-0.000183056
0.015109
-0.000166724
0.0156273
-0.000149804
0.0160554
-0.000133131
0.0163966
-0.000117286
0.0166584
-0.000102606
0.0168514
-8.9221e-05
0.0169871
-7.71113e-05
0.0170774
-6.61556e-05
0.0171329
-5.61801e-05
0.0171633
-4.69949e-05
0.0171764
-3.84185e-05
0.0171785
-3.02909e-05
0.0171744
-2.24806e-05
0.0171676
-1.48816e-05
0.0171606
-7.41088e-06
0.0171551
0.0171521
-0.000214127
0.0130728
0.000215871
-0.000206851
0.0138119
-0.000195341
0.0144916
-0.000180921
0.0150946
-0.000164831
0.0156112
-0.000148134
0.0160387
-0.000131661
0.0163801
-0.000115987
0.0166428
-0.000101453
0.0168369
-8.81951e-05
0.0169739
-7.61971e-05
0.0170654
-6.53444e-05
0.0171221
-5.54674e-05
0.0171534
-4.63795e-05
0.0171673
-3.79011e-05
0.01717
-2.98737e-05
0.0171664
-2.21654e-05
0.0171599
-1.46704e-05
0.0171531
-7.30482e-06
0.0171478
0.0171448
-0.000211376
0.0130712
0.000212985
-0.000204295
0.0138049
-0.000193014
0.0144803
-0.000178836
0.0150804
-0.000162984
0.0155954
-0.000146508
0.0160222
-0.00013023
0.0163638
-0.000114725
0.0166273
-0.000100335
0.0168225
-8.72009e-05
0.0169607
-7.53122e-05
0.0170535
-6.45594e-05
0.0171113
-5.47779e-05
0.0171436
-4.57841e-05
0.0171583
-3.74005e-05
0.0171617
-2.94699e-05
0.0171585
-2.18603e-05
0.0171523
-1.44659e-05
0.0171457
-7.20213e-06
0.0171405
0.0171376
-0.000208687
0.0130697
0.000210161
-0.000201797
0.013798
-0.000190741
0.0144693
-0.000176802
0.0150665
-0.000161184
0.0155798
-0.000144925
0.016006
-0.000128839
0.0163477
-0.000113501
0.0166119
-9.92522e-05
0.0168082
-8.6239e-05
0.0169477
-7.44569e-05
0.0170417
-6.38013e-05
0.0171006
-5.41121e-05
0.017134
-4.52094e-05
0.0171494
-3.69175e-05
0.0171534
-2.90801e-05
0.0171506
-2.15658e-05
0.0171448
-1.42685e-05
0.0171384
-7.10329e-06
0.0171333
0.0171305
-0.000206056
0.0130684
0.000207398
-0.000199355
0.0137913
-0.000188521
0.0144584
-0.000174818
0.0150528
-0.000159431
0.0155644
-0.000143385
0.0159899
-0.000127489
0.0163318
-0.000112314
0.0165968
-9.82045e-05
0.0167941
-8.53101e-05
0.0169348
-7.36319e-05
0.01703
-6.30707e-05
0.0170901
-5.34709e-05
0.0171244
-4.46559e-05
0.0171406
-3.64522e-05
0.0171452
-2.87046e-05
0.0171429
-2.12821e-05
0.0171374
-1.40782e-05
0.0171312
-7.00769e-06
0.0171263
0.0171235
-0.000203485
0.0130672
0.000204696
-0.000196969
0.0137848
-0.000186355
0.0144478
-0.000172883
0.0150393
-0.000157724
0.0155492
-0.000141889
0.0159741
-0.000126181
0.0163161
-0.000111167
0.0165817
-9.71932e-05
0.0167802
-8.44149e-05
0.0169221
-7.28379e-05
0.0170184
-6.23682e-05
0.0170796
-5.28548e-05
0.0171148
-4.41242e-05
0.0171319
-3.60053e-05
0.017137
-2.83438e-05
0.0171352
-2.10093e-05
0.01713
-1.38953e-05
0.0171241
-6.91593e-06
0.0171193
0.0171166
-0.000200971
0.0130661
0.000202053
-0.000194639
0.0137784
-0.000184241
0.0144374
-0.000170999
0.0150261
-0.000156064
0.0155343
-0.000140438
0.0159585
-0.000124913
0.0163006
-0.000110058
0.0165669
-9.62187e-05
0.0167663
-8.3554e-05
0.0169094
-7.20756e-05
0.017007
-6.16946e-05
0.0170692
-5.22643e-05
0.0171054
-4.36148e-05
0.0171232
-3.5577e-05
0.017129
-2.79982e-05
0.0171276
-2.07481e-05
0.0171228
-1.37201e-05
0.0171171
-6.82787e-06
0.0171124
0.0171098
-0.000198514
0.0130651
0.000199467
-0.000192364
0.0137723
-0.000182181
0.0144272
-0.000169164
0.0150131
-0.000154452
0.0155196
-0.000139031
0.0159431
-0.000123689
0.0162853
-0.000108989
0.0165522
-9.52814e-05
0.0167526
-8.27282e-05
0.0168968
-7.13457e-05
0.0169956
-6.10505e-05
0.0170589
-5.17002e-05
0.0170961
-4.31284e-05
0.0171147
-3.51683e-05
0.0171211
-2.76683e-05
0.0171201
-2.04987e-05
0.0171156
-1.35528e-05
0.0171102
-6.74399e-06
0.0171056
0.017103
-0.000196113
0.0130643
0.000196939
-0.000190143
0.0137663
-0.000180172
0.0144173
-0.00016738
0.0150003
-0.000152887
0.0155051
-0.000137669
0.0159278
-0.000122506
0.0162701
-0.000107961
0.0165376
-9.43827e-05
0.016739
-8.19382e-05
0.0168844
-7.0649e-05
0.0169843
-6.04366e-05
0.0170487
-5.11632e-05
0.0170868
-4.26655e-05
0.0171062
-3.47794e-05
0.0171132
-2.73543e-05
0.0171127
-2.02612e-05
0.0171085
-1.33935e-05
0.0171033
-6.66415e-06
0.0170989
0.0170964
-0.000193766
0.0130636
0.000194466
-0.000187976
0.0137605
-0.000178214
0.0144075
-0.000165644
0.0149877
-0.000151369
0.0154908
-0.000136352
0.0159128
-0.000121367
0.0162551
-0.000106973
0.0165232
-9.35227e-05
0.0167256
-8.11848e-05
0.0168721
-6.99862e-05
0.0169731
-5.98536e-05
0.0170386
-5.06537e-05
0.0170776
-4.22268e-05
0.0170977
-3.44108e-05
0.0171053
-2.70568e-05
0.0171053
-2.00361e-05
0.0171015
-1.32425e-05
0.0170965
-6.58823e-06
0.0170922
0.0170898
-0.000191474
0.013063
0.000192047
-0.000185861
0.0137549
-0.000176309
0.014398
-0.000163959
0.0149753
-0.000149899
0.0154767
-0.000135081
0.015898
-0.000120272
0.0162403
-0.000106028
0.016509
-9.27024e-05
0.0167123
-8.04687e-05
0.0168598
-6.93582e-05
0.016962
-5.93024e-05
0.0170285
-5.01727e-05
0.0170685
-4.18128e-05
0.0170894
-3.40631e-05
0.0170976
-2.67762e-05
0.0170981
-1.98241e-05
0.0170945
-1.31001e-05
0.0170898
-6.51669e-06
0.0170856
0.0170833
-0.000189234
0.0130626
0.00018968
-0.000183799
0.0137495
-0.000174454
0.0143886
-0.000162323
0.0149632
-0.000148477
0.0154629
-0.000133857
0.0158834
-0.000119221
0.0162257
-0.000105125
0.0164949
-9.1923e-05
0.016699
-7.9791e-05
0.0168477
-6.87657e-05
0.0169509
-5.87837e-05
0.0170186
-4.97208e-05
0.0170594
-4.14242e-05
0.0170811
-3.37369e-05
0.0170899
-2.65128e-05
0.0170908
-1.96248e-05
0.0170877
-1.29664e-05
0.0170831
-6.44943e-06
0.0170791
0.0170768
-0.000187047
0.0130623
0.000187366
-0.000181789
0.0137442
-0.00017265
0.0143795
-0.000160737
0.0149513
-0.000147103
0.0154493
-0.000132679
0.015869
-0.000118216
0.0162112
-0.000104266
0.016481
-9.1185e-05
0.016686
-7.91524e-05
0.0168357
-6.82098e-05
0.01694
-5.82983e-05
0.0170086
-4.92987e-05
0.0170504
-4.10617e-05
0.0170729
-3.34327e-05
0.0170823
-2.62673e-05
0.0170837
-1.9439e-05
0.0170808
-1.28416e-05
0.0170765
-6.387e-06
0.0170727
0.0170704
-0.00018491
0.0130621
0.000185101
-0.000179829
0.0137391
-0.000170897
0.0143705
-0.000159201
0.0149396
-0.000145779
0.0154358
-0.000131549
0.0158547
-0.000117257
0.0161969
-0.000103452
0.0164672
-9.04896e-05
0.016673
-7.85541e-05
0.0168237
-6.76909e-05
0.0169291
-5.78472e-05
0.0169988
-4.89073e-05
0.0170415
-4.07259e-05
0.0170647
-3.31511e-05
0.0170747
-2.604e-05
0.0170766
-1.92671e-05
0.0170741
-1.27261e-05
0.01707
-6.32872e-06
0.0170663
0.0170641
-0.000182823
0.013062
0.000182886
-0.00017792
0.0137342
-0.000169195
0.0143618
-0.000157715
0.0149281
-0.000144504
0.0154226
-0.000130468
0.0158407
-0.000116346
0.0161828
-0.000102683
0.0164535
-8.98381e-05
0.0166602
-7.7997e-05
0.0168119
-6.72111e-05
0.0169184
-5.74313e-05
0.016989
-4.85474e-05
0.0170326
-4.04176e-05
0.0170565
-3.28928e-05
0.0170672
-2.58314e-05
0.0170695
-1.9109e-05
0.0170673
-1.262e-05
0.0170635
-6.27563e-06
0.0170599
0.0170578
-0.000180785
0.0130621
0.000180717
-0.000176061
0.0137295
-0.000167543
0.0143533
-0.00015628
0.0149169
-0.000143279
0.0154096
-0.000129437
0.0158269
-0.000115482
0.0161688
-0.000101961
0.01644
-8.92312e-05
0.0166474
-7.74826e-05
0.0168001
-6.67704e-05
0.0169076
-5.70516e-05
0.0169793
-4.82199e-05
0.0170237
-4.01375e-05
0.0170485
-3.2658e-05
0.0170597
-2.5642e-05
0.0170625
-1.89656e-05
0.0170607
-1.25235e-05
0.017057
-6.22692e-06
0.0170536
0.0170516
-0.000178795
0.0130623
0.000178593
-0.000174252
0.013725
-0.000165942
0.014345
-0.000154896
0.0149058
-0.000142106
0.0153968
-0.000128456
0.0158132
-0.000114669
0.0161551
-0.000101288
0.0164266
-8.8671e-05
0.0166348
-7.70119e-05
0.0167885
-6.63707e-05
0.016897
-5.67091e-05
0.0169696
-4.79257e-05
0.017015
-3.98865e-05
0.0170404
-3.24477e-05
0.0170523
-2.54722e-05
0.0170555
-1.88371e-05
0.017054
-1.2437e-05
0.0170506
-6.18352e-06
0.0170474
0.0170454
-0.000176851
0.0130626
0.000176514
-0.000172491
0.0137206
-0.000164391
0.0143369
-0.000153564
0.014895
-0.000140985
0.0153843
-0.000127527
0.0157997
-0.000113907
0.0161414
-0.000100664
0.0164133
-8.81585e-05
0.0166223
-7.65865e-05
0.0167769
-6.60131e-05
0.0168864
-5.6405e-05
0.01696
-4.76657e-05
0.0170062
-3.96652e-05
0.0170324
-3.22626e-05
0.0170449
-2.53227e-05
0.0170486
-1.87235e-05
0.0170474
-1.23606e-05
0.0170443
-6.14506e-06
0.0170411
0.0170393
-0.000174953
0.0130631
0.000174476
-0.000170779
0.0137164
-0.000162892
0.014329
-0.000152284
0.0148844
-0.000139917
0.0153719
-0.000126651
0.0157865
-0.000113198
0.016128
-0.000100092
0.0164002
-8.76955e-05
0.0166099
-7.62079e-05
0.0167654
-6.56987e-05
0.0168759
-5.61405e-05
0.0169505
-4.74411e-05
0.0169975
-3.94745e-05
0.0170245
-3.21032e-05
0.0170375
-2.51938e-05
0.0170417
-1.86257e-05
0.0170409
-1.22946e-05
0.0170379
-6.11191e-06
0.017035
0.0170332
-0.0001731
0.0130637
0.000172478
-0.000169116
0.0137124
-0.000161444
0.0143213
-0.000151058
0.014874
-0.000138904
0.0153597
-0.000125831
0.0157734
-0.000112543
0.0161147
-9.95738e-05
0.0163873
-8.7284e-05
0.0165976
-7.58777e-05
0.016754
-6.54296e-05
0.0168655
-5.59168e-05
0.016941
-4.72527e-05
0.0169889
-3.93153e-05
0.0170165
-3.19702e-05
0.0170301
-2.50861e-05
0.0170348
-1.85437e-05
0.0170343
-1.22392e-05
0.0170316
-6.08381e-06
0.0170288
0.0170271
-0.00017129
0.0130645
0.000170518
-0.000167501
0.0137087
-0.000160049
0.0143139
-0.000149887
0.0148638
-0.000137948
0.0153478
-0.000125069
0.0157605
-0.000111946
0.0161016
-9.91108e-05
0.0163744
-8.69255e-05
0.0165854
-7.55978e-05
0.0167427
-6.52068e-05
0.0168551
-5.57353e-05
0.0169315
-4.71017e-05
0.0169802
-3.91884e-05
0.0170086
-3.18644e-05
0.0170228
-2.50001e-05
0.0170279
-1.84778e-05
0.0170278
-1.21946e-05
0.0170254
-6.06109e-06
0.0170227
0.017021
-0.000169523
0.0130654
0.000168595
-0.000165935
0.0137051
-0.000158706
0.0143067
-0.000148773
0.0148539
-0.000137051
0.0153361
-0.000124366
0.0157478
-0.000111408
0.0160886
-9.87058e-05
0.0163617
-8.66226e-05
0.0165734
-7.53701e-05
0.0167314
-6.50323e-05
0.0168447
-5.55975e-05
0.0169221
-4.69894e-05
0.0169716
-3.90948e-05
0.0170007
-3.17859e-05
0.0170155
-2.49362e-05
0.0170211
-1.84288e-05
0.0170213
-1.2161e-05
0.0170191
-6.04419e-06
0.0170166
0.017015
-0.000167799
0.0130665
0.000166706
-0.000164418
0.0137017
-0.000157418
0.0142997
-0.000147717
0.0148442
-0.000136215
0.0153246
-0.000123725
0.0157354
-0.000110932
0.0160758
-9.83614e-05
0.0163492
-8.6378e-05
0.0165614
-7.51969e-05
0.0167203
-6.49078e-05
0.0168345
-5.55048e-05
0.0169127
-4.69168e-05
0.016963
-3.90353e-05
0.0169928
-3.17362e-05
0.0170082
-2.4895e-05
0.0170142
-1.83964e-05
0.0170148
-1.21385e-05
0.0170128
-6.03247e-06
0.0170104
0.0170089
-0.000166116
0.0130678
0.00016485
-0.00016295
0.0136985
-0.000156186
0.0142929
-0.000146723
0.0148347
-0.000135443
0.0153133
-0.00012315
0.0157231
-0.000110521
0.0160632
-9.80806e-05
0.0163367
-8.61939e-05
0.0165495
-7.50804e-05
0.0167091
-6.48353e-05
0.0168242
-5.54587e-05
0.0169033
-4.68851e-05
0.0169545
-3.90109e-05
0.016985
-3.17154e-05
0.0170009
-2.48768e-05
0.0170074
-1.83812e-05
0.0170083
-1.21275e-05
0.0170066
-6.02645e-06
0.0170043
0.0170029
-0.000164475
0.0130692
0.000163028
-0.000161532
0.0136956
-0.000155012
0.0142864
-0.000145792
0.0148255
-0.000134738
0.0153022
-0.000122644
0.015711
-0.000110179
0.0160507
-9.78666e-05
0.0163244
-8.60733e-05
0.0165377
-7.50231e-05
0.0166981
-6.48168e-05
0.016814
-5.54608e-05
0.0168939
-4.68956e-05
0.0169459
-3.90223e-05
0.0169771
-3.17242e-05
0.0169936
-2.4882e-05
0.0170005
-1.83836e-05
0.0170018
-1.21279e-05
0.0170003
-6.02587e-06
0.0169982
0.0169969
-0.000162876
0.0130709
0.000161238
-0.000160167
0.0136929
-0.000153899
0.0142801
-0.000144928
0.0148165
-0.000134105
0.0152914
-0.000122212
0.0156991
-0.000109911
0.0160384
-9.77234e-05
0.0163122
-8.60198e-05
0.016526
-7.50278e-05
0.0166871
-6.48547e-05
0.0168038
-5.5513e-05
0.0168846
-4.69494e-05
0.0169373
-3.90705e-05
0.0169692
-3.17632e-05
0.0169863
-2.4911e-05
0.0169937
-1.84034e-05
0.0169953
-1.21399e-05
0.0169941
-6.03088e-06
0.0169921
0.0169909
-0.000161317
0.0130727
0.00015948
-0.000158854
0.0136904
-0.00015285
0.0142741
-0.000144138
0.0148078
-0.000133552
0.0152808
-0.000121861
0.0156874
-0.000109724
0.0160263
-9.76596e-05
0.0163002
-8.60407e-05
0.0165144
-7.51011e-05
0.0166762
-6.49539e-05
0.0167937
-5.56193e-05
0.0168752
-4.70499e-05
0.0169288
-3.91577e-05
0.0169613
-3.1834e-05
0.016979
-2.4965e-05
0.0169868
-1.84414e-05
0.0169888
-1.21641e-05
0.0169878
-6.04103e-06
0.016986
0.0169848
-0.000160004
0.000158016
-0.000157743
-0.000151965
-0.000143482
-0.00013311
-0.000121606
-0.00010962
-9.76688e-05
-8.61272e-05
-7.52326e-05
-6.51049e-05
-5.57704e-05
-4.71888e-05
-3.92771e-05
-3.1931e-05
-2.50395e-05
-1.84951e-05
-1.21987e-05
-6.06521e-06
0.0101291
0.000273052
0.0101532
0.000268595
0.0101772
0.000264219
0.0102012
0.000259924
0.0102252
0.000255708
0.0102491
0.000251571
0.010273
0.000247512
0.0102968
0.000243531
0.0103206
0.000239628
0.0103444
0.0002358
0.0103681
0.000232048
0.0103918
0.000228371
0.0104154
0.000224767
0.010439
0.000221235
0.0104626
0.000217775
0.0104861
0.000214385
0.0105096
0.000211065
0.0105331
0.000207813
0.0105565
0.000204628
0.0105799
0.000201509
0.0106033
0.000198456
0.0106266
0.000195466
0.01065
0.000192539
0.0106733
0.000189674
0.0106966
0.000186869
0.0107198
0.000184123
0.0107431
0.000181435
0.0107664
0.000178804
0.0107896
0.000176229
0.0108128
0.000173707
0.0108361
0.000171239
0.0108593
0.000168822
0.0108825
0.000166454
0.0109057
0.000164135
0.010929
0.000161862
0.0109522
0.000159635
0.0109755
0.00015745
0.0109988
0.000155305
0.0110221
0.0001532
0.0110454
0.00015113
0.0110688
0.000149094
0.0110923
0.000147088
0.0111157
0.00014511
0.0111393
0.000143157
0.0111629
0.000141226
0.0111866
0.000139316
0.0112104
0.000137425
0.0112344
0.000135554
0.00013402
0.00970687
0.000248486
0.00973128
0.000244185
0.00975554
0.000239963
0.00977964
0.00023582
0.00980359
0.000231756
0.00982739
0.000227768
0.00985105
0.000223857
0.00987456
0.000220022
0.00989793
0.000216261
0.00992115
0.000212574
0.00994424
0.00020896
0.00996719
0.000205418
0.00999001
0.000201947
0.0100127
0.000198545
0.0100353
0.000195212
0.0100577
0.000191947
0.01008
0.000188748
0.0101022
0.000185615
0.0101243
0.000182546
0.0101463
0.00017954
0.0101681
0.000176596
0.0101899
0.000173713
0.0102115
0.000170889
0.0102331
0.000168124
0.0102545
0.000165416
0.0102759
0.000162764
0.0102972
0.000160166
0.0103183
0.000157623
0.0103394
0.000155131
0.0103605
0.00015269
0.0103814
0.000150298
0.0104023
0.000147954
0.0104231
0.000145656
0.0104438
0.000143403
0.0104645
0.000141192
0.0104851
0.000139021
0.0105056
0.000136889
0.0105262
0.000134793
0.0105466
0.000132729
0.0105671
0.000130696
0.0105875
0.00012869
0.0106078
0.000126707
0.0106282
0.000124743
0.0106486
0.000122792
0.0106689
0.000120853
0.0106893
0.000118921
0.0107098
0.000116989
0.0107303
0.000115058
0.000113492
0.00917482
0.00022475
0.00920262
0.000220684
0.00923012
0.000216694
0.0092573
0.000212778
0.00928419
0.000208936
0.00931077
0.000205168
0.00933707
0.000201471
0.00936308
0.000197847
0.00938881
0.000194293
0.00941426
0.000190809
0.00943944
0.000187393
0.00946436
0.000184045
0.00948901
0.000180764
0.00951341
0.000177549
0.00953756
0.000174398
0.00956146
0.000171311
0.00958512
0.000168286
0.00960855
0.000165323
0.00963174
0.00016242
0.00965471
0.000159576
0.00967746
0.00015679
0.0097
0.000154062
0.00972232
0.000151389
0.00974444
0.000148771
0.00976636
0.000146206
0.00978808
0.000143694
0.00980961
0.000141233
0.00983095
0.000138822
0.00985212
0.00013646
0.0098731
0.000134145
0.00989392
0.000131876
0.00991456
0.000129651
0.00993505
0.00012747
0.00995537
0.00012533
0.00997555
0.00012323
0.00999557
0.000121167
0.0100155
0.00011914
0.0100352
0.000117146
0.0100548
0.000115183
0.0100743
0.000113247
0.0100936
0.000111336
0.0101129
0.000109445
0.010132
0.00010757
0.0101511
0.000105706
0.01017
0.000103847
0.0101889
0.000101987
0.0102077
0.000100123
0.0102264
9.82437e-05
0.0102451
9.63509e-05
9.48336e-05
0.0086292
0.000191191
0.00866226
0.000187623
0.00869483
0.000184122
0.00872692
0.000180687
0.00875854
0.000177317
0.00878969
0.000174013
0.00882039
0.000170772
0.00885065
0.000167594
0.00888046
0.000164478
0.00890985
0.000161424
0.00893881
0.00015843
0.00896736
0.000155496
0.0089955
0.000152621
0.00902325
0.000149803
0.0090506
0.000147041
0.00907758
0.000144336
0.00910418
0.000141685
0.00913041
0.000139088
0.00915629
0.000136543
0.00918182
0.000134051
0.009207
0.000131609
0.00923184
0.000129217
0.00925636
0.000126873
0.00928055
0.000124577
0.00930443
0.000122328
0.009328
0.000120124
0.00935127
0.000117965
0.00937424
0.000115849
0.00939692
0.000113776
0.00941932
0.000111743
0.00944145
0.00010975
0.00946331
0.000107795
0.0094849
0.000105877
0.00950623
0.000103995
0.00952732
0.000102147
0.00954815
0.00010033
0.00956875
9.85433e-05
0.00958911
9.67842e-05
0.00960925
9.50501e-05
0.00962916
9.3338e-05
0.00964885
9.16445e-05
0.00966833
8.99656e-05
0.0096876
8.82966e-05
0.00970667
8.66321e-05
0.00972556
8.49658e-05
0.00974425
8.32916e-05
0.00976277
8.16049e-05
0.00978112
7.98925e-05
0.00979931
7.81591e-05
7.67862e-05
0.00809952
0.0001512
0.00813882
0.000148317
0.00817746
0.000145488
0.00821543
0.000142713
0.00825276
0.000139992
0.00828945
0.000137322
0.00832551
0.000134705
0.00836097
0.000132139
0.00839582
0.000129623
0.00843009
0.000127156
0.00846378
0.000124739
0.00849691
0.00012237
0.00852948
0.000120048
0.00856151
0.000117773
0.00859301
0.000115544
0.00862399
0.000113359
0.00865445
0.000111219
0.00868442
0.000109122
0.00871389
0.000107067
0.00874289
0.000105055
0.00877142
0.000103083
0.00879948
0.000101151
0.0088271
9.92584e-05
0.00885427
9.74041e-05
0.00888101
9.55873e-05
0.00890733
9.38071e-05
0.00893323
9.20625e-05
0.00895873
9.03527e-05
0.00898383
8.86767e-05
0.00900854
8.70334e-05
0.00903286
8.54219e-05
0.00905682
8.3841e-05
0.00908041
8.22895e-05
0.00910363
8.07661e-05
0.00912651
7.92694e-05
0.00914904
7.77978e-05
0.00917124
7.63496e-05
0.0091931
7.49227e-05
0.00921463
7.35149e-05
0.00923585
7.21235e-05
0.00925675
7.07455e-05
0.00927734
6.93772e-05
0.00929762
6.80143e-05
0.0093176
6.66518e-05
0.00933728
6.52837e-05
0.00935667
6.39045e-05
0.00937576
6.25096e-05
0.00939457
6.10865e-05
0.00941309
5.96415e-05
5.85093e-05
0.00764111
0.000104973
0.00768648
0.000102943
0.00773102
0.000100952
0.00777473
9.89983e-05
0.00781764
9.70825e-05
0.00785976
9.52036e-05
0.00790111
9.33613e-05
0.00794169
9.1555e-05
0.00798153
8.97843e-05
0.00802064
8.80486e-05
0.00805903
8.63474e-05
0.00809672
8.46801e-05
0.00813372
8.30462e-05
0.00817005
8.1445e-05
0.00820571
7.98761e-05
0.00824073
7.83388e-05
0.00827512
7.68326e-05
0.00830889
7.53569e-05
0.00834204
7.39111e-05
0.0083746
7.24947e-05
0.00840658
7.11069e-05
0.00843798
6.97473e-05
0.00846882
6.84152e-05
0.00849912
6.711e-05
0.00852888
6.58311e-05
0.0085581
6.45778e-05
0.00858682
6.33496e-05
0.00861502
6.21457e-05
0.00864274
6.09655e-05
0.00866996
5.98083e-05
0.00869671
5.86732e-05
0.00872299
5.75594e-05
0.00874881
5.64662e-05
0.00877419
5.53926e-05
0.00879912
5.43374e-05
0.00882362
5.32996e-05
0.00884769
5.22779e-05
0.00887134
5.12707e-05
0.00889458
5.02764e-05
0.00891741
4.9293e-05
0.00893984
4.83182e-05
0.00896187
4.73492e-05
0.0089835
4.63826e-05
0.00900473
4.54147e-05
0.00902558
4.44407e-05
0.00904603
4.34565e-05
0.00906608
4.24585e-05
0.00908573
4.14369e-05
0.00910497
4.03978e-05
3.95907e-05
0.00725259
5.49044e-05
0.00730372
5.38353e-05
0.00735388
5.27862e-05
0.00740308
5.1757e-05
0.00745133
5.07474e-05
0.00749865
4.97572e-05
0.00754507
4.87861e-05
0.0075906
4.7834e-05
0.00763525
4.69005e-05
0.00767905
4.59853e-05
0.00772201
4.50883e-05
0.00776415
4.42091e-05
0.00780548
4.33475e-05
0.00784602
4.25031e-05
0.00788579
4.16756e-05
0.00792481
4.08648e-05
0.00796307
4.00704e-05
0.00800061
3.9292e-05
0.00803744
3.85294e-05
0.00807357
3.77822e-05
0.00810902
3.70502e-05
0.00814379
3.6333e-05
0.00817791
3.56303e-05
0.00821138
3.49418e-05
0.00824422
3.42672e-05
0.00827645
3.36062e-05
0.00830807
3.29585e-05
0.00833909
3.23236e-05
0.00836954
3.17013e-05
0.00839941
3.10912e-05
0.00842873
3.04929e-05
0.00845749
2.9906e-05
0.00848572
2.93301e-05
0.00851342
2.87647e-05
0.00854061
2.82094e-05
0.00856728
2.76636e-05
0.00859345
2.71267e-05
0.00861913
2.65979e-05
0.00864433
2.60765e-05
0.00866904
2.55617e-05
0.00869328
2.50522e-05
0.00871706
2.45469e-05
0.00874036
2.40443e-05
0.0087632
2.35426e-05
0.00878558