# Probe 0 (2 -0.5 0)
# Probe 1 (2 0.5 0)
# Probe 2 (-0.087156 0.996195 0)
# Probe 3 (-0.087156 -0.996195 0)
# Probe 4 (4 -0.5 0)
# Probe 5 (4 0.5 0)
#       Probe             0             1             2             3             4             5
#        Time
        0.003      -16.8164      -16.8164       39.3379       39.3379      -2.91048      -2.91048
        0.006       1.89156       1.89155     -0.302589     -0.302591       0.57397       0.57397
        0.009     0.0140772     0.0140772      0.012383     0.0123831    -0.0292983    -0.0292982
        0.012    -0.0133074    -0.0133075     0.0106342     0.0106341    -0.0200526    -0.0200527
        0.015    -0.0230659    -0.0230659   -0.00233523    -0.0023351    -0.0193115    -0.0193115
        0.018     -0.026766    -0.0267658     -0.015664    -0.0156644    -0.0184195    -0.0184194
        0.021    -0.0278472    -0.0278472    -0.0280371    -0.0280371    -0.0174509    -0.0174509
        0.024    -0.0276898    -0.0276898     -0.039147    -0.0391471    -0.0164498    -0.0164498
        0.027    -0.0269141    -0.0269142    -0.0492434    -0.0492434    -0.0154814    -0.0154814
         0.03    -0.0258411    -0.0258411    -0.0583593    -0.0583593    -0.0145987    -0.0145987
        0.033     -0.024618     -0.024618    -0.0667579    -0.0667579     -0.013807     -0.013807
        0.036    -0.0233315    -0.0233315    -0.0744442    -0.0744442    -0.0130618    -0.0130618
        0.039    -0.0220154    -0.0220154    -0.0816165    -0.0816165    -0.0123482    -0.0123482
        0.042     -0.020708     -0.020708    -0.0882566    -0.0882566     -0.011681     -0.011681
        0.045    -0.0194186    -0.0194186    -0.0945235    -0.0945235    -0.0110531    -0.0110531
        0.048     -0.018162     -0.018162     -0.100384     -0.100384    -0.0104668    -0.0104668
        0.051    -0.0169424    -0.0169424     -0.105933     -0.105933   -0.00993973   -0.00993973
        0.054    -0.0157613    -0.0157613     -0.111183     -0.111183   -0.00944492   -0.00944492
        0.057    -0.0146189    -0.0146189     -0.116162     -0.116162   -0.00895716   -0.00895716
         0.06    -0.0135187    -0.0135187     -0.120865     -0.120865   -0.00848626   -0.00848626
        0.063     -0.012457     -0.012457     -0.125397     -0.125397   -0.00805853   -0.00805853
        0.066    -0.0114357    -0.0114357     -0.129727     -0.129727   -0.00766569   -0.00766569
        0.069    -0.0104553    -0.0104553     -0.133833     -0.133833   -0.00727645   -0.00727644
        0.072   -0.00951165   -0.00951165     -0.137787     -0.137787   -0.00690008   -0.00690008
        0.075    -0.0086045    -0.0086045     -0.141587     -0.141587   -0.00653977   -0.00653977
        0.078   -0.00773296   -0.00773296     -0.145247     -0.145247   -0.00621033   -0.00621033
        0.081   -0.00689523   -0.00689524     -0.148777     -0.148777   -0.00590054   -0.00590054
        0.084   -0.00609315   -0.00609315     -0.152109     -0.152109   -0.00559596   -0.00559596
        0.087   -0.00532171   -0.00532171     -0.155322     -0.155322   -0.00530488   -0.00530488
         0.09    -0.0045778    -0.0045778     -0.158462     -0.158462   -0.00502719   -0.00502719
        0.093   -0.00386404   -0.00386404     -0.161471     -0.161471   -0.00476237   -0.00476237
        0.096   -0.00317913   -0.00317913      -0.16436      -0.16436   -0.00451134   -0.00451135
        0.099   -0.00251571   -0.00251571     -0.167221     -0.167221   -0.00427399   -0.00427399
        0.102   -0.00188472   -0.00188472     -0.169875     -0.169875   -0.00404595   -0.00404596
        0.105   -0.00127464   -0.00127464     -0.172481     -0.172481   -0.00382642   -0.00382642
        0.108   -0.00069175   -0.00069175     -0.174907     -0.174907   -0.00361584   -0.00361584
        0.111  -0.000127396  -0.000127396     -0.177326     -0.177326    -0.0034185    -0.0034185
        0.114   0.000417082   0.000417082     -0.179673     -0.179673   -0.00322718   -0.00322718
        0.117   0.000942479   0.000942479     -0.181949     -0.181949   -0.00304089   -0.00304089
         0.12     0.0014479     0.0014479     -0.184136     -0.184136   -0.00286268   -0.00286268
        0.123    0.00193869    0.00193869     -0.186311     -0.186311   -0.00270151   -0.00270151
        0.126    0.00241052    0.00241052      -0.18839      -0.18839   -0.00253918   -0.00253918
        0.129    0.00286878    0.00286878      -0.19045      -0.19045   -0.00238127   -0.00238127
        0.132    0.00330676    0.00330676     -0.192387     -0.192387   -0.00223003   -0.00223003
        0.135    0.00372806    0.00372806     -0.194196     -0.194196   -0.00208419   -0.00208419
        0.138    0.00413884    0.00413884     -0.196046     -0.196046   -0.00194164   -0.00194164
        0.141    0.00453236    0.00453236     -0.197798     -0.197798   -0.00180821   -0.00180821
        0.144    0.00491233    0.00491233     -0.199503     -0.199503    -0.0016797    -0.0016797
        0.147    0.00528202    0.00528202     -0.201196     -0.201196   -0.00154885   -0.00154885
         0.15    0.00563862    0.00563862     -0.202836     -0.202836   -0.00143537   -0.00143537
        0.153    0.00598211    0.00598211     -0.204408     -0.204408   -0.00131418   -0.00131418
        0.156    0.00631582    0.00631582     -0.205973     -0.205973   -0.00120975   -0.00120975
        0.159    0.00664154    0.00664154     -0.207535     -0.207535   -0.00109904   -0.00109904
        0.162    0.00695146    0.00695146     -0.208985     -0.208985   -0.00099577  -0.000995769
        0.165    0.00724979    0.00724979     -0.210341     -0.210341  -0.000893625  -0.000893625
        0.168    0.00754145    0.00754145     -0.211718     -0.211718  -0.000793901  -0.000793901
        0.171    0.00782367    0.00782367     -0.213058     -0.213058  -0.000697074  -0.000697074
        0.174    0.00809657    0.00809657      -0.21436      -0.21436  -0.000603567  -0.000603567
        0.177    0.00836031    0.00836031     -0.215622     -0.215622  -0.000514011  -0.000514011
         0.18    0.00861924    0.00861924     -0.216895     -0.216895  -0.000425855  -0.000425854
        0.183    0.00886956    0.00886956     -0.218126     -0.218126  -0.000340416  -0.000340416
        0.186    0.00911092    0.00911092     -0.219316     -0.219316  -0.000257844  -0.000257845
        0.189    0.00934376    0.00934376      -0.22044      -0.22044  -0.000177959  -0.000177959
        0.192    0.00956894    0.00956894     -0.221494     -0.221494  -0.000100577  -0.000100577
        0.195    0.00978917    0.00978918     -0.222529     -0.222529  -2.51661e-05   -2.5167e-05
        0.198    0.00999638    0.00999638     -0.223665     -0.223665    4.6943e-05   4.69429e-05
        0.201     0.0102015     0.0102015     -0.224687     -0.224687   0.000117597   0.000117597
        0.204      0.010403      0.010403     -0.225705     -0.225705   0.000186593   0.000186594
        0.207     0.0105995     0.0105995     -0.226712     -0.226712   0.000253714   0.000253714
         0.21      0.010787      0.010787     -0.227632     -0.227632   0.000318342   0.000318342
        0.213     0.0109712     0.0109712     -0.228561     -0.228561   0.000381454   0.000381454
        0.216     0.0111528     0.0111528     -0.229495     -0.229495   0.000443178   0.000443178
        0.219     0.0113289     0.0113289     -0.230397     -0.230397   0.000503002   0.000503002
        0.222     0.0114997     0.0114998     -0.231267     -0.231267   0.000560944   0.000560944
        0.225     0.0116663     0.0116663     -0.232112     -0.232112   0.000617242   0.000617242
        0.228     0.0118289     0.0118289     -0.232934     -0.232934   0.000671668   0.000671668
        0.231     0.0119901     0.0119901     -0.233749     -0.233749   0.000723324   0.000723325
        0.234     0.0121444     0.0121444     -0.234504     -0.234504   0.000776037   0.000776037
        0.237     0.0122926     0.0122926     -0.235382     -0.235382   0.000824512   0.000824512
         0.24     0.0124416     0.0124416     -0.236165     -0.236165   0.000876687   0.000876688
        0.243     0.0125858     0.0125858     -0.236883     -0.236883   0.000926205   0.000926206
        0.246     0.0127247     0.0127247     -0.237528     -0.237528   0.000972187   0.000972187
        0.249     0.0128603     0.0128603     -0.238194     -0.238194    0.00101669    0.00101669
        0.252      0.012995      0.012995     -0.238872     -0.238872    0.00106016    0.00106016
        0.255     0.0131273     0.0131273     -0.239542     -0.239542    0.00110234    0.00110234
        0.258     0.0132565     0.0132565     -0.240194     -0.240194    0.00114306    0.00114306
        0.261     0.0133851     0.0133851     -0.240854     -0.240854    0.00118258    0.00118258
        0.264     0.0135097     0.0135097     -0.241484     -0.241484    0.00121989    0.00121989
        0.267     0.0136319     0.0136319     -0.242094     -0.242094    0.00125783    0.00125782
         0.27     0.0137514     0.0137514     -0.242689     -0.242689    0.00129233    0.00129233
        0.273     0.0138687     0.0138687     -0.243266     -0.243266     0.0013244     0.0013244
        0.276     0.0139868     0.0139868     -0.243814     -0.243814    0.00136773    0.00136773
        0.279     0.0140973     0.0140973     -0.244469     -0.244469    0.00141125    0.00141125
        0.282     0.0142057     0.0142057     -0.245013     -0.245013    0.00144523    0.00144523
        0.285     0.0143128     0.0143128     -0.245533     -0.245533    0.00147458    0.00147458
        0.288     0.0144153     0.0144153     -0.245979     -0.245979    0.00151046    0.00151046
        0.291     0.0145192     0.0145192     -0.246484     -0.246484    0.00154991    0.00154991
        0.294     0.0146212     0.0146212     -0.246986     -0.246986    0.00158179    0.00158179
        0.297     0.0147221     0.0147221     -0.247482     -0.247482    0.00161215    0.00161215
          0.3     0.0148211     0.0148211     -0.247973     -0.247973    0.00164172    0.00164172
        0.303     0.0149165     0.0149165     -0.248465     -0.248465    0.00167034    0.00167034
        0.306     0.0150088     0.0150088     -0.248957     -0.248957    0.00169814    0.00169814
        0.309     0.0150943     0.0150943      -0.24922      -0.24922    0.00172451    0.00172451
        0.312     0.0151837     0.0151837     -0.249633     -0.249633    0.00175119    0.00175119
        0.315     0.0152729     0.0152729     -0.250057     -0.250057    0.00177756    0.00177756
        0.318     0.0153619     0.0153619     -0.250484     -0.250484    0.00180363    0.00180364
        0.321     0.0154482     0.0154482     -0.250888     -0.250888    0.00182898    0.00182898
        0.324     0.0155332     0.0155332     -0.251273     -0.251273    0.00185386    0.00185386
        0.327     0.0156172     0.0156172     -0.251655     -0.251655    0.00187827    0.00187827
         0.33     0.0156955     0.0156955      -0.25208      -0.25208     0.0019014     0.0019014
        0.333     0.0157749     0.0157749     -0.252449     -0.252449    0.00192433    0.00192433
        0.336     0.0158543     0.0158543     -0.252818     -0.252818    0.00194639    0.00194639
        0.339     0.0159325     0.0159325     -0.253173     -0.253173    0.00197069    0.00197069
        0.342      0.016009      0.016009     -0.253518     -0.253518    0.00199472    0.00199472
        0.345      0.016083      0.016083     -0.253854     -0.253854     0.0020167     0.0020167
        0.348     0.0161562     0.0161562     -0.254183     -0.254183     0.0020381     0.0020381
        0.351     0.0162283     0.0162283     -0.254506     -0.254506    0.00205907    0.00205907
        0.354     0.0162993     0.0162993     -0.254823     -0.254823    0.00207967    0.00207967
        0.357     0.0163695     0.0163695     -0.255135     -0.255135    0.00209992    0.00209992
         0.36      0.016438      0.016438     -0.255441     -0.255441    0.00211966    0.00211967
        0.363      0.016505      0.016505      -0.25574      -0.25574    0.00213885    0.00213885
        0.366     0.0165716     0.0165716     -0.256038     -0.256038    0.00215768    0.00215767
        0.369     0.0166375     0.0166375     -0.256341     -0.256341    0.00217591    0.00217591
        0.372     0.0167038     0.0167038     -0.256683     -0.256683    0.00219438    0.00219438
        0.375     0.0167644     0.0167644     -0.256883     -0.256883    0.00221367    0.00221367
        0.378     0.0168272     0.0168272     -0.257194     -0.257194    0.00223353    0.00223353
        0.381     0.0168875     0.0168875     -0.257331     -0.257331    0.00225069    0.00225069
        0.384     0.0169445     0.0169445     -0.257496     -0.257496    0.00226692    0.00226692
        0.387     0.0170013     0.0170013     -0.257784     -0.257784    0.00228271    0.00228271
         0.39     0.0170603     0.0170603     -0.258033     -0.258033    0.00229814    0.00229814
        0.393     0.0171147     0.0171147     -0.258198     -0.258198    0.00231172    0.00231172
        0.396      0.017172      0.017172     -0.258413     -0.258413    0.00233243    0.00233243
        0.399     0.0172282     0.0172282     -0.258636     -0.258636     0.0023537     0.0023537
        0.402     0.0172835     0.0172835     -0.258853     -0.258853    0.00236911    0.00236911
        0.405     0.0173379     0.0173379     -0.259062     -0.259062    0.00238421    0.00238421
        0.408     0.0173916     0.0173916     -0.259266     -0.259266    0.00239945    0.00239945
        0.411     0.0174442     0.0174442     -0.259465     -0.259465    0.00241376    0.00241376
        0.414     0.0174957     0.0174957     -0.259657     -0.259657    0.00242739    0.00242739
        0.417     0.0175473     0.0175473     -0.259846     -0.259846     0.0024406     0.0024406
         0.42     0.0175984     0.0175984     -0.260035     -0.260035    0.00245295    0.00245295
        0.423     0.0176481     0.0176481     -0.260214     -0.260214    0.00246366    0.00246366
        0.426     0.0176975     0.0176975     -0.260389     -0.260389    0.00247676    0.00247676
        0.429     0.0177469     0.0177469     -0.260561     -0.260561    0.00248973    0.00248973
        0.432     0.0177971     0.0177971     -0.260743     -0.260743    0.00251365    0.00251365
        0.435     0.0178475     0.0178475     -0.260907     -0.260907    0.00253585    0.00253585
        0.438     0.0178973     0.0178973     -0.261026     -0.261026    0.00254921    0.00254921
        0.441     0.0179353     0.0179353     -0.261158     -0.261158    0.00255783    0.00255783
        0.444     0.0179769     0.0179769     -0.261294     -0.261294    0.00257238    0.00257238
        0.447     0.0180173     0.0180173     -0.261423     -0.261423    0.00258827    0.00258828
         0.45     0.0180614     0.0180614     -0.261556     -0.261556    0.00260082    0.00260081
        0.453     0.0181066     0.0181067     -0.261687     -0.261687    0.00261248    0.00261249
        0.456      0.018146     0.0181459     -0.261794     -0.261794    0.00262286    0.00262286
        0.459     0.0181889     0.0181889      -0.26189      -0.26189     0.0026337     0.0026337
        0.462     0.0182345     0.0182345     -0.261901     -0.261901    0.00264518    0.00264518
        0.465     0.0182753     0.0182753     -0.262202     -0.262202    0.00265586    0.00265586
        0.468     0.0183109     0.0183109     -0.262385     -0.262385    0.00266571    0.00266571
        0.471     0.0183516     0.0183516      -0.26251      -0.26251    0.00267634    0.00267634
        0.474     0.0183928     0.0183928     -0.262636     -0.262636    0.00268697    0.00268698
        0.477     0.0184339     0.0184339     -0.262774     -0.262774    0.00269754    0.00269754
         0.48     0.0184758     0.0184758     -0.262944     -0.262944     0.0027082     0.0027082
        0.483     0.0185117     0.0185117     -0.262868     -0.262869    0.00271783    0.00271783
        0.486     0.0185475     0.0185475     -0.262947     -0.262947    0.00272722    0.00272722
        0.489     0.0185862     0.0185862     -0.263047     -0.263047    0.00273715    0.00273715
        0.492     0.0186247     0.0186247     -0.263145     -0.263145    0.00274694    0.00274694
        0.495     0.0186627     0.0186627     -0.263241     -0.263241    0.00275636    0.00275636
        0.498     0.0187005     0.0187005     -0.263334     -0.263334    0.00276495    0.00276495
        0.501      0.018738     0.0187381     -0.263424     -0.263424    0.00277321    0.00277321
        0.504     0.0187769     0.0187769     -0.263515     -0.263515    0.00278603    0.00278603
        0.507     0.0188105     0.0188105     -0.263589     -0.263589    0.00279852    0.00279851
         0.51     0.0188465     0.0188465     -0.263669     -0.263669    0.00280733    0.00280733
        0.513     0.0188829     0.0188829     -0.263745     -0.263745    0.00281682    0.00281682
        0.516     0.0189207     0.0189207     -0.263815     -0.263815    0.00282638    0.00282638
        0.519     0.0189541     0.0189541     -0.263918     -0.263918    0.00283499    0.00283499
        0.522     0.0189878     0.0189878     -0.264029     -0.264029    0.00284358    0.00284358
        0.525      0.019022      0.019022     -0.264089     -0.264089    0.00285203    0.00285203
        0.528     0.0190548     0.0190548      -0.26412      -0.26412    0.00285984    0.00285984
        0.531     0.0190864     0.0190864     -0.264102     -0.264102    0.00286841    0.00286841
        0.534     0.0191217     0.0191217     -0.264161     -0.264161    0.00287851    0.00287851
        0.537     0.0191548     0.0191548     -0.264219     -0.264219    0.00288739    0.00288739
         0.54      0.019188      0.019188     -0.264274     -0.264274    0.00289531    0.00289531
        0.543     0.0192221     0.0192221     -0.264329     -0.264329    0.00290326    0.00290326
        0.546     0.0192564     0.0192564      -0.26438      -0.26438    0.00291094    0.00291094
        0.549     0.0192916     0.0192916     -0.264428     -0.264428    0.00291836    0.00291836
        0.552     0.0193327     0.0193327     -0.264482     -0.264482    0.00292592    0.00292592
        0.555     0.0193672     0.0193672      -0.26448      -0.26448    0.00293104    0.00293104
        0.558     0.0193897     0.0193897     -0.264527     -0.264527     0.0029337    0.00293369
        0.561     0.0194104     0.0194104     -0.264651     -0.264651    0.00295149    0.00295149
        0.564     0.0194483     0.0194483     -0.264702     -0.264702    0.00297528    0.00297529
        0.567     0.0194677     0.0194677     -0.264713     -0.264713    0.00298081    0.00298081
         0.57     0.0194996     0.0194996     -0.264747     -0.264747    0.00298762    0.00298762
        0.573     0.0195347     0.0195347     -0.264788     -0.264788    0.00299401    0.00299401
        0.576     0.0195707     0.0195707     -0.264828     -0.264828     0.0030006     0.0030006
        0.579       0.01959       0.01959     -0.264836     -0.264836     0.0030041    0.00300409
        0.582     0.0196212     0.0196212     -0.264864     -0.264864    0.00301063    0.00301063
        0.585     0.0196529     0.0196529     -0.264894     -0.264894    0.00301758    0.00301758
        0.588     0.0196848     0.0196848     -0.264925     -0.264925    0.00302566    0.00302566
        0.591     0.0197174     0.0197174     -0.264957     -0.264957    0.00303376    0.00303376
        0.594     0.0197527     0.0197527     -0.264998     -0.264998    0.00304102    0.00304102
        0.597     0.0197744     0.0197744     -0.265009     -0.265009    0.00304922    0.00304921
          0.6      0.019806      0.019806     -0.265046     -0.265046    0.00305936    0.00305936
        0.603     0.0198369     0.0198369     -0.265109     -0.265109    0.00306546    0.00306546
        0.606     0.0198655     0.0198655     -0.265269     -0.265269    0.00307126    0.00307126
        0.609     0.0198957     0.0198957     -0.265256     -0.265256    0.00308002    0.00308002
        0.612     0.0199232     0.0199232     -0.264913     -0.264913    0.00308921    0.00308921
        0.615     0.0199545     0.0199545     -0.264918     -0.264918     0.0030958     0.0030958
        0.618      0.019988      0.019988     -0.264931     -0.264931    0.00310267    0.00310267
        0.621       0.02001       0.02001     -0.264919     -0.264919    0.00310794    0.00310794
        0.624     0.0200399     0.0200399     -0.264923     -0.264923    0.00311355    0.00311355
        0.627     0.0200699     0.0200699     -0.264925     -0.264925    0.00311894    0.00311894
         0.63     0.0201003     0.0201003     -0.264925     -0.264925    0.00312492    0.00312492
        0.633     0.0201293     0.0201293      -0.26492      -0.26492    0.00313089    0.00313089
        0.636     0.0201588     0.0201588     -0.264914     -0.264914    0.00313694    0.00313694
        0.639     0.0201884     0.0201884     -0.264907     -0.264907    0.00314293    0.00314293
        0.642     0.0202189     0.0202189     -0.264909     -0.264909    0.00314894    0.00314894
        0.645     0.0202488     0.0202488     -0.264902     -0.264902    0.00315473    0.00315473
        0.648      0.020281      0.020281     -0.264896     -0.264896    0.00316069    0.00316069
        0.651     0.0203139     0.0203139      -0.26489      -0.26489    0.00316654    0.00316654
        0.654     0.0203378     0.0203378     -0.264859     -0.264859    0.00317068    0.00317068
        0.657     0.0203683     0.0203683     -0.264841     -0.264841    0.00317533    0.00317533
         0.66     0.0203997     0.0203997     -0.264813     -0.264813    0.00317929    0.00317929
        0.663     0.0204329     0.0204329     -0.264772     -0.264772    0.00318181    0.00318181
        0.666     0.0204646     0.0204646     -0.264846     -0.264846    0.00317792    0.00317792
        0.669     0.0205053     0.0205053     -0.264853     -0.264853    0.00319514    0.00319514
        0.672     0.0205263     0.0205263     -0.264813     -0.264813    0.00321982    0.00321982
        0.675     0.0205453     0.0205453     -0.264767     -0.264767    0.00323277    0.00323277
        0.678     0.0205635     0.0205635     -0.264718     -0.264718    0.00323541    0.00323541
        0.681     0.0205972     0.0205972     -0.264699     -0.264699    0.00324286    0.00324286
        0.684     0.0206324     0.0206324     -0.264689     -0.264689    0.00325045    0.00325045
        0.687     0.0206434     0.0206434     -0.264625     -0.264625    0.00325427    0.00325428
         0.69     0.0206735     0.0206735     -0.264599     -0.264599    0.00326081     0.0032608
        0.693     0.0207047     0.0207047     -0.264574     -0.264574    0.00326774    0.00326774
        0.696     0.0207374     0.0207374     -0.264553     -0.264553    0.00327611    0.00327611
        0.699     0.0207775     0.0207775     -0.264547     -0.264547    0.00328539    0.00328539
        0.702     0.0207898     0.0207898     -0.264482     -0.264482    0.00328912    0.00328913
        0.705     0.0208176     0.0208176     -0.264458     -0.264458    0.00329543    0.00329542
        0.708      0.020849      0.020849     -0.264458     -0.264458     0.0033023     0.0033023
        0.711     0.0208772     0.0208772     -0.264334     -0.264334    0.00330868    0.00330868
        0.714      0.020907      0.020907     -0.264264     -0.264264    0.00331525    0.00331525
        0.717     0.0209391     0.0209391     -0.264246     -0.264246     0.0033218     0.0033218
         0.72     0.0209704     0.0209704     -0.264196     -0.264196    0.00332744    0.00332744
        0.723     0.0210076     0.0210076     -0.264158     -0.264158    0.00333291    0.00333291
        0.726     0.0210209     0.0210209     -0.264084     -0.264084     0.0033427     0.0033427
        0.729     0.0210516     0.0210516     -0.264049     -0.264049    0.00335543    0.00335542
        0.732      0.021082      0.021082     -0.264012     -0.264012    0.00336358    0.00336358
        0.735     0.0211127     0.0211127     -0.263974     -0.263974    0.00337158    0.00337158
        0.738     0.0211436     0.0211436     -0.263935     -0.263935    0.00337696    0.00337696
        0.741     0.0211748     0.0211748     -0.263895     -0.263895    0.00338154    0.00338154
        0.744     0.0212061     0.0212061     -0.263858     -0.263858    0.00338797    0.00338797
        0.747     0.0212381     0.0212381     -0.263832     -0.263832     0.0033968    0.00339681
         0.75     0.0212679     0.0212679     -0.263744     -0.263744    0.00340494    0.00340494
        0.753     0.0212996     0.0212996     -0.263667     -0.263667    0.00341542    0.00341542
        0.756     0.0213376     0.0213376     -0.263634     -0.263634    0.00342869    0.00342869
        0.759     0.0213542     0.0213542     -0.263547     -0.263547    0.00344293    0.00344293
        0.762     0.0213857     0.0213857     -0.263485     -0.263485    0.00343902    0.00343902
        0.765     0.0214142     0.0214142     -0.263439     -0.263439    0.00342981    0.00342981
        0.768     0.0214437     0.0214437     -0.263373     -0.263373    0.00343056    0.00343056
        0.771     0.0214794     0.0214794     -0.263311     -0.263312    0.00343724    0.00343724
        0.774     0.0215119     0.0215119     -0.263221     -0.263221    0.00344547    0.00344547
        0.777     0.0215466     0.0215466     -0.263064     -0.263064    0.00345478    0.00345478
         0.78     0.0215779     0.0215779     -0.263099     -0.263099    0.00346134    0.00346134
        0.783     0.0216121     0.0216121     -0.263293     -0.263293    0.00346835    0.00346835
        0.786     0.0216635     0.0216635      -0.26328      -0.26328    0.00347819    0.00347819
        0.789     0.0216755     0.0216755     -0.263183     -0.263183    0.00348229    0.00348229
        0.792     0.0217175     0.0217175     -0.263146     -0.263146    0.00348875    0.00348875
        0.795     0.0217292     0.0217292     -0.263045     -0.263045    0.00349048    0.00349048
        0.798     0.0217547     0.0217547     -0.262971     -0.262971    0.00349608    0.00349608
        0.801     0.0217925     0.0217925     -0.262925     -0.262925    0.00350367    0.00350367
        0.804     0.0218274     0.0218274     -0.262869     -0.262869     0.0035108     0.0035108
        0.807     0.0218613     0.0218613      -0.26281      -0.26281    0.00351778    0.00351778
         0.81     0.0218681     0.0218681     -0.262694     -0.262694    0.00352066    0.00352067
        0.813     0.0219012     0.0219012     -0.262633     -0.262633    0.00352752    0.00352751
        0.816     0.0219348     0.0219348     -0.262573     -0.262573    0.00353446    0.00353446
        0.819      0.021969     0.0219691     -0.262512     -0.262512     0.0035415     0.0035415
        0.822     0.0220043     0.0220043     -0.262453     -0.262453    0.00354871     0.0035487
        0.825      0.022043      0.022043     -0.262399     -0.262399    0.00355648    0.00355648
        0.828     0.0220858     0.0220858     -0.262348     -0.262348    0.00356492    0.00356492
        0.831     0.0220957     0.0220957     -0.262212     -0.262212    0.00356833    0.00356834
        0.834     0.0221249     0.0221249     -0.262189     -0.262189     0.0035753     0.0035753
        0.837      0.022158      0.022158     -0.262135     -0.262135    0.00358862    0.00358862
         0.84     0.0221923     0.0221923      -0.26207      -0.26207    0.00359014    0.00359014
        0.843     0.0222266     0.0222266     -0.262005     -0.262005    0.00358768    0.00358768
        0.846     0.0222611     0.0222611     -0.261939     -0.261939    0.00359338    0.00359338
        0.849     0.0222959     0.0222959     -0.261873     -0.261873    0.00360091    0.00360091
        0.852     0.0223314     0.0223314     -0.261808     -0.261808    0.00360863    0.00360863
        0.855     0.0223687     0.0223687     -0.261747     -0.261747    0.00361637    0.00361637
        0.858     0.0224164     0.0224164     -0.261705     -0.261705     0.0036266     0.0036266
        0.861     0.0224258     0.0224258     -0.261585     -0.261585    0.00363164    0.00363164
        0.864      0.022459      0.022459     -0.261513     -0.261513    0.00363932    0.00363932
        0.867     0.0224944     0.0224944     -0.261445     -0.261445    0.00364644    0.00364644
         0.87     0.0225337     0.0225337     -0.261386     -0.261386    0.00365397    0.00365397
        0.873     0.0225612     0.0225612     -0.261296     -0.261296    0.00366043    0.00366043
        0.876     0.0225959     0.0225959     -0.261224     -0.261224    0.00366789    0.00366789
        0.879     0.0226313     0.0226313     -0.261154     -0.261154    0.00367529    0.00367529
        0.882     0.0226668     0.0226668     -0.261082     -0.261082    0.00368253    0.00368253
        0.885     0.0227024     0.0227024     -0.261011     -0.261011    0.00368994    0.00368994
        0.888     0.0227383     0.0227383     -0.260939     -0.260939    0.00369652    0.00369652
        0.891     0.0227746     0.0227746     -0.260866     -0.260866    0.00370642    0.00370642
        0.894     0.0228108     0.0228108     -0.260792     -0.260792    0.00371695    0.00371695
        0.897     0.0228504     0.0228504     -0.260723     -0.260723    0.00372628    0.00372628
          0.9     0.0228947     0.0228947     -0.260671     -0.260671    0.00373656    0.00373656
        0.903     0.0229387     0.0229387      -0.26063      -0.26063    0.00374481    0.00374481
        0.906     0.0229576     0.0229576     -0.260518     -0.260518    0.00374573    0.00374573
        0.909     0.0230091     0.0230091     -0.260473     -0.260473    0.00375035    0.00375035