/*--------------------------------*- C++ -*----------------------------------*\
  =========                 |
  \\      /  F ield         | OpenFOAM: The Open Source CFD Toolbox
   \\    /   O peration     | Website:  https://openfoam.org
    \\  /    A nd           | Version:  7
     \\/     M anipulation  |
\*---------------------------------------------------------------------------*/
FoamFile
{
    version     2.0;
    format      ascii;
    class       surfaceScalarField;
    location    "90";
    object      phi;
}
// * * * * * * * * * * * * * * * * * * * * * * * * * * * * * * * * * * * * * //

dimensions      [0 3 -1 0 0 0 0];

internalField   nonuniform List<scalar> 
29280
(
-1.61346e-05
2.7426e-05
-1.12914e-05
-5.24175e-05
8.00793e-05
-4.37964e-05
-0.000102679
0.000129959
-7.96976e-05
-0.000162627
0.000174319
-0.000114371
-0.00022947
0.000214978
-0.000148135
-0.00030143
0.000255742
-0.000183782
-0.000377352
0.000300596
-0.000224675
-0.000456382
0.000352585
-0.000273555
-0.000537717
0.00041352
-0.000332184
-0.000620448
0.000484111
-0.000401381
-0.000703529
0.000564123
-0.000481042
-0.000785914
0.000652329
-0.000569943
-0.000866991
0.00074647
-0.000665393
-0.000947673
0.000843646
-0.000762964
0.000937416
-0.000855811
-0.00102928
-1.53103e-05
4.27362e-05
-4.98736e-05
0.000114643
-9.77717e-05
0.000177857
-0.000154804
0.000231351
-0.000218132
0.000278307
-0.000285839
0.000323449
-0.000356574
0.000371331
-0.000429265
0.000425276
-0.000502889
0.000487144
-0.000576306
0.000557529
-0.000648227
0.000636043
-0.000717294
0.000721396
-0.000782284
0.000811459
-0.000844041
0.000905403
0.000994775
-0.000901399
-1.42302e-05
5.69664e-05
-4.65281e-05
0.000146941
-9.12789e-05
0.000222608
-0.00014438
0.000284451
-0.000202923
0.00033685
-0.000264811
0.000385336
-0.000328439
0.000434959
-0.00039245
0.000489287
-0.000455515
0.000550209
-0.000516167
0.000618181
-0.00057272
0.000692596
-0.000623319
0.000771995
-0.00066546
0.000853601
-0.000700353
0.000940295
0.00101544
-0.000721022
-1.29452e-05
6.99116e-05
-4.25186e-05
0.000176514
-8.34372e-05
0.000263527
-0.000131695
0.000332709
-0.000184295
0.00038945
-0.000238916
0.000439958
-0.000293651
0.000489695
-0.000346785
0.000542421
-0.000396604
0.000600027
-0.00044121
0.000662787
-0.000478393
0.00072978
-0.000505775
0.000799376
-0.000518671
0.000866497
-0.000519762
0.000941386
0.000988716
-0.000493034
-1.1516e-05
8.14276e-05
-3.80097e-05
0.000203008
-7.45315e-05
0.000300048
-0.000117162
0.00037534
-0.000162791
0.000435079
-0.000208843
0.00048601
-0.000253055
0.000533906
-0.000293285
0.000582651
-0.000327345
0.000634088
-0.00035282
0.000688261
-0.000366823
0.000743784
-0.000366702
0.000799255
-0.00034448
0.000844274
-0.000305354
0.00090226
0.000907797
-0.000224434
-1.00098e-05
9.14374e-05
-3.31857e-05
0.000226184
-6.48831e-05
0.000331746
-0.000101248
0.000411705
-0.000139033
0.000472863
-0.000175376
0.000522352
-0.000207609
0.000566139
-0.000233095
0.000608137
-0.000249083
0.000650076
-0.000252544
0.000691722
-0.000239675
0.000730915
-0.000208013
0.000767593
-0.00014623
0.000782491
-5.72085e-05
0.000813239
0.000772354
7.82344e-05
-8.49754e-06
9.99349e-05
-2.82414e-05
0.000245927
-5.48344e-05
0.000358339
-8.44527e-05
0.000441324
-0.000113685
0.000502096
-0.000139353
0.000548021
-0.000158339
0.000585125
-0.000167436
0.000617234
-0.000163223
0.000645863
-0.000141987
0.000670487
-9.87579e-05
0.000687686
-2.99149e-05
0.00069875
7.41903e-05
0.000678386
0.000213097
0.000674332
0.000563518
0.000421934
-7.04925e-06
0.000106984
-2.33715e-05
0.00026225
-4.47301e-05
0.000379697
-6.72819e-05
0.000463876
-8.74207e-05
0.000522235
-0.000101618
0.000562218
-0.000106256
0.000589762
-9.74845e-05
0.000608463
-7.10773e-05
0.000619456
-2.23593e-05
0.000621769
5.4219e-05
0.000611107
0.000162927
0.000590042
0.000320832
0.000520481
0.000512596
0.000482568
0.000276514
0.0007996
-5.73032e-06
0.000112714
-1.87579e-05
0.000275277
-3.48936e-05
0.000395833
-5.02093e-05
0.000479191
-6.08614e-05
0.000532887
-6.2929e-05
0.000564286
-5.22336e-05
0.000579067
-2.41852e-05
0.000580414
2.63633e-05
0.000568907
0.000105079
0.000543054
0.000219646
0.00049654
0.000373352
0.000436336
0.000590487
0.000303346
0.000845479
0.000227576
-9.74248e-05
0.00121942
-4.59665e-06
0.000117311
-1.45561e-05
0.000285237
-2.55997e-05
0.000406877
-3.36311e-05
0.000487223
-3.4509e-05
0.000533765
-2.38556e-05
0.000553632
3.15922e-06
0.000552052
5.1985e-05
0.000531589
0.000128927
0.000491966
0.000240956
0.000431024
0.000397666
0.00033983
0.000603568
0.000230434
0.000887416
1.94974e-05
0.0012178
-0.000102811
-0.000571329
0.00169171
-3.69012e-06
0.000121001
-1.088e-05
0.000292427
-1.70447e-05
0.000413041
-1.78142e-05
0.000487992
-8.65903e-06
0.000524609
1.53551e-05
0.000529618
5.98525e-05
0.000507555
0.000131363
0.000460078
0.000237605
0.000385723
0.000387308
0.000281321
0.00059176
0.000135378
0.000859121
-3.69266e-05
0.0012183
-0.000339678
0.00163885
-0.000523368
-0.00115885
0.00222637
-3.03403e-06
0.000124035
-7.78711e-06
0.00029718
-9.31499e-06
0.000414569
-2.82679e-06
0.000481504
1.66884e-05
0.000505094
5.4929e-05
0.000491378
0.000118532
0.000443952
0.0002154
0.00036321
0.00035503
0.000246093
0.000548518
8.78333e-05
0.00080825
-0.000124355
0.00114871
-0.00037739
0.00159222
-0.000783187
0.00211806
-0.0010492
-0.0018663
0.00282551
-2.62933e-06
0.000126665
-5.2656e-06
0.000299816
-2.35158e-06
0.000411655
1.14545e-05
0.000467698
4.19262e-05
0.000474623
9.5708e-05
0.000437596
0.000180805
0.000358855
0.000306916
0.000237099
0.0004857
6.73087e-05
0.000731166
-0.000157633
0.00105608
-0.00044927
0.00148151
-0.000802815
0.00201759
-0.00131927
0.00265874
-0.00169035
-0.00268157
0.003474
-2.45172e-06
0.000129116
-3.22273e-06
0.000300587
4.042e-06
0.000404391
2.55087e-05
0.000446231
6.79172e-05
0.000432214
0.000139253
0.00036626
0.000249332
0.000248777
0.000410138
7.62927e-05
0.000635775
-0.000158328
0.000943012
-0.00046487
0.00134464
-0.000850898
0.00186335
-0.00132153
0.00249504
-0.00195095
0.00324882
-0.00244414
-0.00356724
0.0041345
-2.45016e-06
0.000131567
-1.47156e-06
0.000299608
1.02728e-05
0.000392646
4.00853e-05
0.000416419
9.60241e-05
0.000376275
0.000187873
0.00027441
0.000327768
0.000108882
0.000530371
-0.000126311
0.000812155
-0.000440111
0.00119101
-0.000843729
0.00167925
-0.00133914
0.00229171
-0.00193398
0.00301047
-0.00266972
0.00385356
-0.00328723
-0.00446681
0.00475314
-2.54957e-06
0.000134116
2.61018e-07
0.000296798
1.69066e-05
0.000376001
5.62492e-05
0.000377076
0.000128086
0.000304438
0.00024452
0.000157976
0.000420445
-6.70429e-05
0.000673194
-0.00037906
0.00102072
-0.000787639
0.00147858
-0.00130159
0.00205603
-0.00191658
0.00275079
-0.00262875
0.00353229
-0.00345122
0.00441791
-0.00417284
-0.00532196
0.00527306
-2.66004e-06
0.000136776
2.15326e-06
0.000291984
2.46497e-05
0.000353504
7.53241e-05
0.000326402
0.00016631
0.000213452
0.000312527
1.17596e-05
0.000531771
-0.000286287
0.000843203
-0.000690491
0.00126392
-0.00120835
0.00180238
-0.00184006
0.00245899
-0.00257319
0.00321032
-0.00338008
0.00401603
-0.00425694
0.00488286
-0.00503967
-0.00609018
0.00565108
-2.6661e-06
0.000139442
4.75798e-06
0.00028456
3.43403e-05
0.000323922
9.88009e-05
0.000261941
0.000213071
9.9182e-05
0.000395179
-0.000170348
0.000665335
-0.000556443
0.00104241
-0.00106757
0.00153842
-0.00170435
0.00214979
-0.00245142
0.00286125
-0.00328465
0.00363132
-0.00415015
0.00441612
-0.00504173
0.00520803
-0.00583158
-0.00675229
0.00587014
-2.43956e-06
0.000141882
8.44067e-06
0.00027368
4.6849e-05
0.000285513
0.000128205
0.000180585
0.000270638
-4.32504e-05
0.000495144
-0.000394854
0.000822838
-0.000884138
0.00126864
-0.00151337
0.00183381
-0.00226952
0.00249894
-0.00311656
0.00323031
-0.00401602
0.0039776
-0.00489744
0.0047004
-0.00576454
0.00538338
-0.00651455
-0.00731009
0.00594117
-1.8379e-06
0.00014372
1.35972e-05
0.000258245
6.30148e-05
0.000236096
0.000164941
7.86581e-05
0.000340852
-0.000219161
0.000613847
-0.00066785
0.00100305
-0.00127334
0.00151435
-0.00202467
0.00213299
-0.00288817
0.0028229
-0.00380647
0.00353641
-0.00472953
0.0042264
-0.00558743
0.00486027
-0.00639841
0.00542185
-0.00707613
-0.00778589
0.00589765
-7.03366e-07
0.000144423
2.05879e-05
0.000236954
8.3573e-05
0.000173111
0.000210133
-4.7902e-05
0.000424801
-0.000433829
0.000750857
-0.000993905
0.00120103
-0.00172351
0.00176676
-0.00259041
0.00241487
-0.00353627
0.00309643
-0.00448802
0.00376022
-0.00539332
0.00437194
-0.00619915
0.00491064
-0.00693711
0.00537316
-0.00753865
-0.00817978
0.00576705
9.56782e-07
0.000143466
2.96967e-05
0.000208214
0.000109094
9.37138e-05
0.00026449
-0.000203298
0.00052252
-0.000691859
0.000903389
-0.00137477
0.00140804
-0.00222815
0.00200961
-0.00319198
0.00265889
-0.00418556
0.00330234
-0.00513147
0.00389633
-0.00598731
0.00442264
-0.00672546
0.0048714
-0.00738586
0.00526574
-0.007933
-0.0085202
0.00560616
3.14585e-06
0.00014032
4.11299e-05
0.00017023
0.00013994
-5.09683e-06
0.000328192
-0.00039155
0.000632725
-0.000996393
0.00106609
-0.00180814
0.00161236
-0.00277442
0.00222627
-0.00380589
0.00284979
-0.00480908
0.00343433
-0.00571601
0.00395084
-0.00650381
0.00439561
-0.00717024
0.00477384
-0.00776409
0.00510917
-0.00826832
-0.00881536
0.00540433
6.01597e-06
0.000134304
5.50229e-05
0.000121223
0.000176248
-0.000126322
0.000400795
-0.000616096
0.000752633
-0.00134823
0.0012313
-0.0022868
0.00180117
-0.0033443
0.00240326
-0.00440798
0.00298021
-0.00538603
0.00349565
-0.00623146
0.00393651
-0.00694467
0.00431146
-0.00754518
0.00463271
-0.00808535
0.0049245
-0.00856011
-0.0090846
0.00519375
9.56848e-06
0.000124736
7.14235e-05
5.93677e-05
0.000217908
-0.000272807
0.000481138
-0.000879326
0.000877921
-0.00174501
0.00138989
-0.00279877
0.00196295
-0.00391736
0.00253257
-0.0049776
0.00305043
-0.00590389
0.00349547
-0.00667649
0.00386863
-0.00731783
0.00418609
-0.00786265
0.00446355
-0.00836281
0.00472331
-0.00881987
-0.00932948
0.00496819
1.38073e-05
0.000110929
9.03098e-05
-1.71349e-05
0.00026455
-0.000447047
0.000567257
-0.00118203
0.00100296
-0.00218072
0.00153274
-0.00332856
0.00208946
-0.00447408
0.00261202
-0.00550016
0.00306612
-0.00635799
0.00344541
-0.00705578
0.00376097
-0.00763339
0.00403265
-0.00813433
0.00427625
-0.00860641
0.00451029
-0.00905391
-0.00955502
0.00473582
1.87315e-05
9.21972e-05
0.000111594
-0.000109997
0.0003155
-0.000650953
0.000656349
-0.00152288
0.00112142
-0.00264579
0.0016522
-0.00385934
0.00217667
-0.00499854
0.00264416
-0.00596765
0.0030357
-0.00674953
0.0033569
-0.00737698
0.00362502
-0.00790151
0.0038604
-0.00836972
0.00407713
-0.00882313
0.0042901
-0.00926688
-0.00976292
0.004498
2.43352e-05
6.78619e-05
0.000135114
-0.000220776
0.000369732
-0.000885571
0.000744883
-0.00189803
0.00122713
-0.00312804
0.00174315
-0.00437536
0.00222439
-0.00547978
0.0026344
-0.00637766
0.00296822
-0.00708335
0.0032399
-0.00764866
0.00346945
-0.00813106
0.00367575
-0.00857602
0.00387039
-0.00901777
0.00406471
-0.0094612
-0.00995425
0.00425604
3.06055e-05
3.72564e-05
0.000160619
-0.00035079
0.000425817
-0.00115077
0.000828889
-0.0023011
0.001315
-0.00361415
0.00180335
-0.0048637
0.00223532
-0.00591175
0.00258947
-0.00673181
0.00287212
-0.007366
0.0031024
-0.00787894
0.00330059
-0.00832925
0.00348295
-0.00875838
0.00365848
-0.0091933
0.0038356
-0.00963831
-0.0101296
0.00401091
3.75165e-05
-2.60094e-07
0.000187738
-0.000501012
0.000481934
-0.00144496
0.000904427
-0.0027236
0.00138158
-0.00409131
0.00183305
-0.00531517
0.0022138
-0.0062925
0.00251615
-0.00703417
0.0027546
-0.00760444
0.00295053
-0.00807487
0.00312282
-0.00850154
0.00328474
-0.0089203
0.00344297
-0.00935152
0.00360361
-0.00979895
-0.0102889
0.00376297
4.50213e-05
-4.52814e-05
0.000215953
-0.000671943
0.000535967
-0.00176498
0.000968085
-0.00315572
0.00142528
-0.00454851
0.00183431
-0.00572419
0.00216486
-0.00662306
0.0024207
-0.00729001
0.00262149
-0.00780523
0.0027888
-0.00824218
0.00293914
-0.00865188
0.00308289
-0.00906405
0.00322483
-0.00949346
0.00336931
-0.00994344
-0.0104323
0.00351271
5.3061e-05
-9.83425e-05
0.000244584
-0.000863467
0.000585691
-0.00210608
0.00101737
-0.00358739
0.00144612
-0.00497726
0.00181028
-0.00608835
0.00209356
-0.00690633
0.00230845
-0.0075049
0.00247731
-0.00797409
0.00262041
-0.00838528
0.00275155
-0.00878302
0.00287853
-0.00919103
0.00300471
-0.00961964
0.00313315
-0.0100719
-0.0105596
0.00326046
6.15344e-05
-0.000159877
0.000272797
-0.00107473
0.00062901
-0.0024623
0.00105087
-0.00400926
0.00144537
-0.00537176
0.00176458
-0.00640755
0.00200453
-0.00714628
0.00218381
-0.00768418
0.00232547
-0.00811576
0.00244763
-0.00850743
0.00256138
-0.00889678
0.00267244
-0.00930208
0.00278311
-0.00973031
0.0028955
-0.0101843
-0.0106707
0.00300657
7.03097e-05
-0.000230187
0.000299648
-0.00130407
0.000664177
-0.00282683
0.00106824
-0.00441333
0.00142508
-0.0057286
0.0017009
-0.00668337
0.00190183
-0.00734721
0.00205025
-0.0078326
0.00216847
-0.00823398
0.00227202
-0.00861099
0.00236957
-0.00899433
0.00246516
-0.00939767
0.0025604
-0.00982556
0.00265669
-0.0102806
-0.0107654
0.00275139
7.92186e-05
-0.000309405
0.000324166
-0.00154901
0.00068996
-0.00319262
0.00106998
-0.00479334
0.00138769
-0.00604631
0.00162268
-0.00691836
0.00178888
-0.00751341
0.00191049
-0.00795421
0.00200813
-0.00833161
0.0020947
-0.00869756
0.00217676
-0.00907639
0.00225712
-0.00947803
0.00233693
-0.00990537
0.00241706
-0.0103607
-0.0108436
0.00249527
8.8055e-05
-0.00039746
0.000345429
-0.00180639
0.000705701
-0.00355289
0.00105717
-0.00514481
0.00133579
-0.00632493
0.00153303
-0.00711561
0.00166846
-0.00764884
0.00176658
-0.00805234
0.00184577
-0.0084108
0.00191644
-0.00876822
0.00198343
-0.00914338
0.00204869
-0.00954328
0.00211303
-0.00996971
0.00217693
-0.0104246
-0.0109053
0.00223856
9.65797e-05
-0.00049404
0.000362645
-0.00207245
0.000711292
-0.00390154
0.00103129
-0.00546481
0.00127189
-0.00656553
0.00143463
-0.00727835
0.0015428
-0.007757
0.00162008
-0.00812962
0.00168235
-0.00847308
0.00173782
-0.00882369
0.00178999
-0.00919556
0.00184019
-0.00959348
0.00188901
-0.0100185
0.00193664
-0.0104722
-0.0109503
0.00198164
0.000104534
-0.000598574
0.000375205
-0.00234312
0.00070707
-0.00423341
0.000994013
-0.00575175
0.00119832
-0.00676983
0.00132974
-0.00740978
0.00141364
-0.0078409
0.00147212
-0.0081881
0.00151857
-0.00851952
0.00155928
-0.0088644
0.00159677
-0.00923304
0.00163192
-0.00962864
0.00166519
-0.0100518
0.00169653
-0.0105035
-0.0109786
0.00172491
0.000111655
-0.000710229
0.000382717
-0.00261419
0.0006937
-0.00454439
0.000947024
-0.00600508
0.00111715
-0.00693996
0.00122023
-0.00751285
0.00128236
-0.00790303
0.00132359
-0.00822933
0.00135495
-0.00855088
0.00138119
-0.00889064
0.00140406
-0.00925592
0.00142418
-0.00964876
0.00144188
-0.0100695
0.001457
-0.0105187
-0.0109905
0.00146883
0.000117696
-0.000827925
0.000385009
-0.0028815
0.00067205
-0.00483143
0.000891975
-0.006225
0.00103021
-0.0070782
0.00110761
-0.00759025
0.00115
-0.00794543
0.00117514
-0.00825447
0.00119192
-0.00856765
0.00120385
-0.00890257
0.00121215
-0.00926421
0.00121724
-0.00965385
0.00121937
-0.0100716
0.00121837
-0.0105177
-0.010986
0.00121391
0.000122438
-0.000950363
0.000382115
-0.00314118
0.000643098
-0.00509241
0.000830399
-0.0064123
0.000939032
-0.00718683
0.000993098
-0.00764432
0.00101739
-0.00796972
0.00102728
-0.00826436
0.00102982
-0.00857019
0.00102756
-0.00890031
0.0010213
-0.00925796
0.00101135
-0.0096439
0.000997904
-0.0100582
0.000980895
-0.0105007
-0.0109653
0.000960201
0.000125703
-0.00107607
0.00037424
-0.00338971
0.000607854
-0.00532603
0.000763685
-0.00656813
0.000844929
-0.00726807
0.000877674
-0.00767706
0.000885135
-0.00797718
0.000880394
-0.00825962
0.000868933
-0.00855873
0.000852563
-0.00888394
0.000831795
-0.00923719
0.000806803
-0.00961891
0.000777759
-0.0100291
0.000744727
-0.0104676
-0.0109281
0.000707478
0.000127358
-0.00120342
0.000361719
-0.00362407
0.000567311
-0.00553162
0.000693063
-0.00669388
0.000748983
-0.00732399
0.000762107
-0.00769019
0.000753741
-0.00796881
0.000734815
-0.00824069
0.000709524
-0.00853344
0.000679117
-0.00885353
0.000643897
-0.00920197
0.000603916
-0.00957893
0.000559299
-0.00998452
0.000509985
-0.0104183
-0.0108741
0.000456034
0.000127323
-0.00133075
0.00034497
-0.00384172
0.000522412
-0.00570906
0.000619607
-0.00679108
0.000652086
-0.00735647
0.000647008
-0.00768511
0.000623588
-0.00794539
0.000590809
-0.00820792
0.000551827
-0.00849446
0.000507457
-0.00880916
0.000457865
-0.00915238
0.000403026
-0.00952409
0.000343018
-0.00992451
0.000277114
-0.0103524
-0.0108028
0.000205761
0.000125579
-0.00145633
0.000324545
-0.00404069
0.000474044
-0.00585856
0.000544238
-0.00686127
0.000554967
-0.0073672
0.000532862
-0.007663
0.000494982
-0.00790751
0.00044861
-0.00816154
0.00039606
-0.00844191
0.000337826
-0.00875093
0.000273909
-0.00908846
0.000204394
-0.00945458
0.000129062
-0.00984918
4.85559e-05
-0.0102719
-0.0107103
-4.3887e-05
0.000122164
-0.00157849
0.000300996
-0.00421952
0.000423014
-0.00598058
0.00046774
-0.006906
0.000458214
-0.00735767
0.000420052
-0.00762484
0.000368183
-0.00785564
0.000308433
-0.00810179
0.000242402
-0.00837588
0.000170464
-0.00867899
9.22036e-05
-0.0090102
7.51624e-06
-0.00936989
-8.23348e-05
-0.00975933
-0.000179334
-0.0101749
-0.0106056
-0.000284031
0.000117161
-0.00169565
0.000274825
-0.00437718
0.000370045
-0.0060758
0.000390774
-0.00692673
0.000362299
-0.0073292
0.00030888
-0.00757142
0.000243427
-0.00779019
0.000170451
-0.00802882
9.09497e-05
-0.00829638
4.94577e-06
-0.00859299
-8.67271e-05
-0.00891853
-0.000185042
-0.00927157
-0.000290333
-0.00965403
-0.000403422
-0.0100618
-0.0104863
-0.000522757
0.000110689
-0.00180634
0.000246514
-0.00451301
0.000315768
-0.00614505
0.000313896
-0.00692486
0.000267606
-0.00728291
0.000199566
-0.00750338
0.000120915
-0.00771154
3.4549e-05
-0.00794245
-5.78865e-05
-0.00820394
-0.000156668
-0.00849421
-0.000262592
-0.00881261
-0.00037527
-0.0091589
-0.000495426
-0.00953388
-0.00062352
-0.00993372
-0.0103515
-0.000758262
0.000102898
-0.00190924
0.000216524
-0.00462664
0.000260735
-0.00618926
0.000237567
-0.00690169
0.000174465
-0.00721981
9.22697e-05
-0.00742119
-4.58219e-07
-0.00761881
-9.83948e-05
-0.00784451
-0.000203699
-0.00809864
-0.000315965
-0.00838194
-0.000435459
-0.00869311
-0.000562285
-0.00903207
-0.000697004
-0.00939916
-0.000839836
-0.00979088
-0.0102015
-0.000989868
9.39557e-05
-0.00200319
0.000185284
-0.00471796
0.000205429
-0.00620941
0.000162144
-0.0068584
8.3101e-05
-0.00714076
-1.3041e-05
-0.00732505
-0.000116897
-0.00751496
-0.000228529
-0.00773288
-0.000346794
-0.00798037
-0.00047221
-0.00825652
-0.000605085
-0.00856024
-0.000745757
-0.0088914
-0.000894758
-0.00925016
-0.00105216
-0.00963348
-0.0100365
-0.0012172
8.404e-05
-0.00208723
0.0001532
-0.00478712
0.000150268
-0.00620648
8.79303e-05
-0.00679607
-6.85942e-06
-0.00704597
-0.000114963
-0.00721694
-0.000231828
-0.00739809
-0.000355901
-0.00760881
-0.000486891
-0.00784938
-0.0006252
-0.00811821
-0.000771236
-0.0084142
-0.000925455
-0.00873718
-0.00108843
-0.00908718
-0.00126021
-0.00946171
-0.00985677
-0.00143991
7.33289e-05
-0.00216056
0.000120645
-0.00483444
9.55984e-05
-0.00618143
1.53652e-05
-0.00671583
-9.31794e-05
-0.00693743
-0.000214742
-0.00709538
-0.000344018
-0.00726881
-0.000480343
-0.00747248
-0.000623797
-0.00770593
-0.000774767
-0.00796724
-0.000933705
-0.00825526
-0.00110116
-0.00856972
-0.00127781
-0.00891053
-0.00146368
-0.00927584
-0.00966273
-0.00165772
6.20071e-05
-0.00222257
8.79558e-05
-0.00486039
4.1804e-05
-0.00613528
-5.54605e-05
-0.00661857
-0.000177887
-0.006815
-0.000311925
-0.00696134
-0.000453317
-0.00712742
-0.000601703
-0.0073241
-0.000757373
-0.00755026
-0.000920747
-0.00780387
-0.00109231
-0.0080837
-0.00127268
-0.00838935
-0.00146267
-0.00872054
-0.00166233
-0.00907618
-0.00945483
-0.00187023
5.02833e-05
-0.00227285
5.5484e-05
-0.00486559
-1.08213e-05
-0.00606897
-0.000124432
-0.00650496
-0.000260243
-0.00667919
-0.000406385
-0.0068152
-0.000559621
-0.00697419
-0.000719847
-0.00716387
-0.00088748
-0.00738262
-0.00106299
-0.00762836
-0.00124688
-0.00789981
-0.00143984
-0.00819639
-0.00164282
-0.00851756
-0.00185586
-0.00886314
-0.00923375
-0.00207693
3.83511e-05
-0.0023112
2.39477e-05
-0.00485119
-6.28132e-05
-0.00598221
-0.000191533
-0.00637624
-0.000340112
-0.00653061
-0.000498031
-0.00665728
-0.000662834
-0.00680938
-0.000834651
-0.00699206
-0.00101398
-0.00720329
-0.00120134
-0.007441
-0.00139726
-0.0077039
-0.00160247
-0.00799117
-0.00181805
-0.00830198
-0.00204396
-0.00863723
-0.00900017
-0.00227754
2.6196e-05
-0.0023374
-6.37916e-06
-0.00481861
-0.000112739
-0.00587585
-0.00025656
-0.00623242
-0.000417426
-0.00636975
-0.000586775
-0.00648793
-0.000762865
-0.00663329
-0.000946003
-0.00680892
-0.00113676
-0.00701253
-0.00133568
-0.00724209
-0.0015433
-0.00749628
-0.00176042
-0.00777405
-0.00198821
-0.0080742
-0.00222657
-0.00839887
-0.00875417
-0.00247257
1.36446e-05
-0.00235104
-4.0948e-05
-0.00476402
-0.00016182
-0.00575498
-0.000319374
-0.00607486
-0.000492088
-0.00619703
-0.000672542
-0.00630748
-0.000859622
-0.00644621
-0.0010538
-0.00661474
-0.00125569
-0.00681064
-0.00146587
-0.00703191
-0.00168489
-0.00727726
-0.00191358
-0.00754535
-0.00215318
-0.0078346
-0.00240386
-0.00814819
-0.00849588
-0.00266214
1.46366e-06
-0.00235251
-7.26968e-05
-0.00468986
-0.000209421
-0.00561825
-0.000379911
-0.00590437
-0.00056401
-0.00601294
-0.00075525
-0.00611624
-0.000953019
-0.00624844
-0.00115793
-0.00640984
-0.00137065
-0.00659792
-0.00159179
-0.00681077
-0.00182196
-0.00704709
-0.00206198
-0.00730533
-0.00231292
-0.00758366
-0.00257503
-0.00788608
-0.0082269
-0.00284402
-1.15595e-05
-0.00234095
-0.000103128
-0.00459829
-0.000255266
-0.00546612
-0.000438117
-0.00572152
-0.000633139
-0.00581791
-0.000834829
-0.00591455
-0.00104297
-0.00604031
-0.00125829
-0.00619452
-0.00148152
-0.00637468
-0.00171333
-0.00657896
-0.00195444
-0.00680599
-0.00220572
-0.00705404
-0.00246764
-0.00732174
-0.00273825
-0.00761547
-0.00794639
-0.00301876
-2.39926e-05
-0.00231696
-0.000132419
-0.00448986
-0.000299241
-0.00529929
-0.000493912
-0.00552685
-0.000699424
-0.0056124
-0.000911214
-0.00570276
-0.00112939
-0.00582213
-0.00135478
-0.00596913
-0.00158817
-0.00614129
-0.00183032
-0.00633681
-0.00208211
-0.00655421
-0.00234446
-0.00679169
-0.00261779
-0.00704841
-0.00290295
-0.00733031
-0.00767185
-0.00317749
-3.60155e-05
-0.00228094
-0.000160566
-0.00436531
-0.000341299
-0.00511856
-0.000547239
-0.00532091
-0.000762817
-0.00539682
-0.000984341
-0.00548123
-0.00121219
-0.00559428
-0.00144729
-0.00573403
-0.00169049
-0.00589809
-0.00194263
-0.00608467
-0.00220466
-0.00629217
-0.00247742
-0.00651894
-0.00276005
-0.00676578
-0.00305067
-0.00703969
-0.00733587
-0.00338664
-4.76338e-05
-0.00223331
-0.000187532
-0.00422541
-0.0003814
-0.00492469
-0.000598055
-0.00510426
-0.000823274
-0.0051716
-0.00105415
-0.00525035
-0.00129131
-0.00535712
-0.00153575
-0.00548959
-0.00178838
-0.00564546
-0.00205013
-0.00582292
-0.0023219
-0.0060204
-0.00260398
-0.00623685
-0.00289573
-0.00647403
-0.00320126
-0.00673416
-0.00700324
-0.00353389
-5.88113e-05
-0.00217449
-0.000213272
-0.00407095
-0.000419514
-0.00471845
-0.000646326
-0.00487744
-0.000880756
-0.00493717
-0.0011206
-0.00501051
-0.00136667
-0.00511105
-0.00162005
-0.00523621
-0.00188173
-0.00538378
-0.00215268
-0.00555197
-0.00243381
-0.00573928
-0.00272556
-0.0059451
-0.00302877
-0.00617082
-0.00334765
-0.00641527
-0.00666743
-0.00368347
-6.95071e-05
-0.00210499
-0.00023774
-0.00390272
-0.000455612
-0.00450058
-0.000692026
-0.00464103
-0.000935227
-0.00469397
-0.00118362
-0.00476211
-0.00143821
-0.00485646
-0.00170012
-0.0049743
-0.00197041
-0.00511349
-0.00225009
-0.00527229
-0.00254001
-0.00544936
-0.0028408
-0.00564431
-0.00315388
-0.00585774
-0.00348217
-0.00608698
-0.00632462
-0.00382498
-7.97306e-05
-0.00202526
-0.000260904
-0.00372155
-0.000489671
-0.00427181
-0.000735135
-0.00439556
-0.000986654
-0.00444245
-0.00124318
-0.00450559
-0.00150585
-0.00459379
-0.00177587
-0.00470428
-0.00205434
-0.00483502
-0.00234231
-0.00498432
-0.00264067
-0.00515099
-0.0029503
-0.00533468
-0.00327268
-0.00553536
-0.00360961
-0.00575005
-0.00597398
-0.00396025
-8.94476e-05
-0.00193581
-0.000282732
-0.00352826
-0.000521671
-0.00403287
-0.000775631
-0.00414161
-0.00103501
-0.00418308
-0.00129922
-0.00424137
-0.00156954
-0.00432347
-0.00184723
-0.0044266
-0.00213342
-0.00454883
-0.0024292
-0.00468855
-0.00273551
-0.00484468
-0.00305336
-0.00501684
-0.00338414
-0.00520458
-0.00372913
-0.00540506
-0.00561524
-0.00408787
-9.86219e-05
-0.00183719
-0.000303197
-0.00332369
-0.000551596
-0.00378447
-0.000813498
-0.0038797
-0.00108026
-0.00391632
-0.00135172
-0.00396992
-0.00162923
-0.00404595
-0.00191412
-0.00414171
-0.00220757
-0.00425537
-0.00251069
-0.00438543
-0.00282449
-0.00453088
-0.00315003
-0.0046913
-0.00348859
-0.00486601
-0.00384122
-0.00505243
-0.00524871
-0.00420776
-0.000107225
-0.00172996
-0.000322275
-0.00310864
-0.000579431
-0.00352732
-0.000848722
-0.00361041
-0.00112239
-0.00364265
-0.00140061
-0.00369169
-0.00168486
-0.0037617
-0.00197649
-0.00385009
-0.00227672
-0.00395514
-0.0025867
-0.00407545
-0.00290747
-0.00421011
-0.00324014
-0.00435863
-0.0035859
-0.00452025
-0.00394571
-0.00469262
-0.00487478
-0.00431964
-0.000115235
-0.00161473
-0.000339947
-0.00288393
-0.000605164
-0.0032621
-0.000881289
-0.00333429
-0.00116136
-0.00336258
-0.00144589
-0.00340717
-0.00173639
-0.00347119
-0.00203428
-0.00355221
-0.0023408
-0.00364862
-0.00265713
-0.00375912
-0.00298437
-0.00388287
-0.00332362
-0.00401939
-0.00367603
-0.00416784
-0.00404253
-0.00432612
-0.00449394
-0.00442337
-0.000122633
-0.00149209
-0.000356195
-0.00265037
-0.000628785
-0.00298951
-0.000911187
-0.00305189
-0.00119717
-0.00307659
-0.0014875
-0.00311683
-0.00178378
-0.00317492
-0.00208743
-0.00324856
-0.00239975
-0.00333629
-0.00272194
-0.00343693
-0.00305512
-0.00354969
-0.0034004
-0.0036741
-0.00375893
-0.00380932
-0.00413161
-0.00395344
-0.00410672
-0.00451882
-0.000129402
-0.00136269
-0.000371004
-0.00240876
-0.000650286
-0.00271023
-0.000938405
-0.00276377
-0.00122979
-0.00278521
-0.00152543
-0.00282119
-0.00182698
-0.00287337
-0.0021359
-0.00293964
-0.00245351
-0.00301868
-0.00278104
-0.0031094
-0.00311964
-0.00321109
-0.00347042
-0.00332331
-0.00383452
-0.00344522
-0.00421283
-0.00357512
-0.00371367
-0.00460588
-0.000135529
-0.00122716
-0.000384364
-0.00215993
-0.000669659
-0.00242493
-0.000962934
-0.00247049
-0.0012592
-0.00248894
-0.00155965
-0.00252075
-0.00186596
-0.00256706
-0.00217964
-0.00262596
-0.00250204
-0.00269629
-0.00283439
-0.00277704
-0.00317787
-0.00286761
-0.00353362
-0.00296757
-0.00390274
-0.00307611
-0.00428614
-0.00319172
-0.00331536
-0.00468445
-0.000141003
-0.00108616
-0.000396264
-0.00190467
-0.000686898
-0.0021343
-0.000984765
-0.00217262
-0.00128539
-0.00218831
-0.00159013
-0.00221601
-0.0019007
-0.00225648
-0.00221863
-0.00230803
-0.00254529
-0.00236962
-0.00288194
-0.00244039
-0.00322978
-0.00251978
-0.00358994
-0.00260741
-0.00396352
-0.00270252
-0.00435145
-0.00280379
-0.00291236
-0.00475445
-0.000145814
-0.000940346
-0.000406698
-0.00164378
-0.000701999
-0.001839
-0.00100389
-0.00187073
-0.00130835
-0.00188385
-0.00161685
-0.00190751
-0.00193116
-0.00194217
-0.00225282
-0.00198638
-0.00258322
-0.00203922
-0.00292365
-0.00209996
-0.0032753
-0.00216813
-0.00363932
-0.00224338
-0.00401683
-0.00232502
-0.00440871
-0.00241191
-0.00250526
-0.00481581
-0.000149954
-0.000790392
-0.000415657
-0.00137808
-0.000714958
-0.0015397
-0.00102031
-0.00156538
-0.00132806
-0.0015761
-0.0016398
-0.00159577
-0.00195733
-0.00162465
-0.00228219
-0.00166151
-0.00261581
-0.0017056
-0.00295948
-0.0017563
-0.0033144
-0.00181321
-0.00368175
-0.00187603
-0.00406261
-0.00194416
-0.00445787
-0.00201664
-0.00209466
-0.00486848
-0.000153417
-0.000636976
-0.000423137
-0.00110836
-0.000725771
-0.00123706
-0.00103401
-0.00125714
-0.00134451
-0.0012656
-0.00165897
-0.00128132
-0.00197918
-0.00130443
-0.00230672
-0.00133396
-0.00264303
-0.0013693
-0.00298939
-0.00140993
-0.00334705
-0.00145555
-0.00371717
-0.00150592
-0.00410082
-0.0015605
-0.0044989
-0.00161856
-0.00168115
-0.00491241
-0.000156197
-0.000480779
-0.000429134
-0.000835422
-0.000734436
-0.000931762
-0.00104499
-0.000946594
-0.0013577
-0.000952881
-0.00167433
-0.000964688
-0.0019967
-0.000982066
-0.00232639
-0.00100427
-0.00266485
-0.00103084
-0.00301338
-0.0010614
-0.00337322
-0.00109571
-0.00374555
-0.00113358
-0.00413144
-0.00117462
-0.00453176
-0.00121824
-0.00126532
-0.00494759
-0.00015829
-0.000322489
-0.000433645
-0.000560068
-0.000740951
-0.000624455
-0.00105324
-0.000634302
-0.00136762
-0.000638504
-0.00168588
-0.000646424
-0.00200987
-0.000658077
-0.00234118
-0.000672962
-0.00268126
-0.00069077
-0.00303141
-0.000711244
-0.0033929
-0.000734227
-0.00376689
-0.000759591
-0.00415445
-0.000787055
-0.00455645
-0.000816242
-0.000847764
-0.004974
-0.000159694
-0.000162795
-0.000436667
-0.000283095
-0.000745315
-0.000315807
-0.00105877
-0.000320846
-0.00137426
-0.000323013
-0.00169362
-0.000327064
-0.0020187
-0.000333003
-0.00235109
-0.000340572
-0.00269224
-0.000349615
-0.00304348
-0.00036
-0.00340606
-0.000371647
-0.00378117
-0.000384488
-0.00416984
-0.000398381
-0.00457295
-0.000413132
-0.000429066
-0.00499165
-0.000160407
-2.38794e-06
-0.0004382
-5.30136e-06
-0.000747527
-6.48028e-06
-0.00106157
-6.7994e-06
-0.00137763
-6.95868e-06
-0.00169754
-7.15206e-06
-0.00202316
-7.38223e-06
-0.00235609
-7.63938e-06
-0.00269779
-7.91738e-06
-0.00304958
-8.21105e-06
-0.00341271
-8.51676e-06
-0.00378837
-8.83085e-06
-0.0041776
-9.14838e-06
-0.00458126
-9.4671e-06
-9.78163e-06
-0.00500055
-0.000160427
0.000158039
-0.000438243
0.000272514
-0.000747587
0.000302864
-0.00106165
0.00030726
-0.00137771
0.000309107
-0.00169763
0.00031277
-0.00202326
0.000318246
-0.0023562
0.0003253
-0.0026979
0.000333785
-0.0030497
0.000343581
-0.00341283
0.000354615
-0.00378849
0.000366826
-0.00417772
0.000380082
-0.00458138
0.000394196
0.000409469
-0.00500063
-0.000159755
0.000317793
-0.000436795
0.000549555
-0.000745495
0.000611565
-0.00105899
0.000620758
-0.00137452
0.000624632