/*--------------------------------*- C++ -*----------------------------------*\
  =========                 |
  \\      /  F ield         | OpenFOAM: The Open Source CFD Toolbox
   \\    /   O peration     | Website:  https://openfoam.org
    \\  /    A nd           | Version:  7
     \\/     M anipulation  |
\*---------------------------------------------------------------------------*/
FoamFile
{
    version     2.0;
    format      ascii;
    class       volVectorField;
    location    "90";
    object      U;
}
// * * * * * * * * * * * * * * * * * * * * * * * * * * * * * * * * * * * * * //

dimensions      [0 1 -1 0 0 0 0];

internalField   nonuniform List<vector> 
14800
(
(-0.00274455 0.0041817 -1.76431e-20)
(-0.0138474 0.0125907 2.31929e-21)
(-0.0319189 0.0200666 9.99599e-21)
(-0.0508005 0.0261032 -5.29294e-21)
(-0.0695595 0.0310647 -1.72541e-20)
(-0.0872486 0.0356409 1.62648e-20)
(-0.103499 0.0404516 6.70779e-22)
(-0.11818 0.0458758 1.90435e-21)
(-0.131241 0.0520501 -8.98942e-21)
(-0.142651 0.0589317 -1.1715e-21)
(-0.152366 0.0663498 6.7384e-21)
(-0.160349 0.0740221 5.75757e-21)
(-0.166632 0.0815602 2.15947e-20)
(-0.171372 0.0885035 -2.40893e-20)
(-0.174806 0.09415 9.88601e-21)
(-0.00296253 0.00749931 3.70002e-20)
(-0.0140854 0.0194087 -2.28464e-20)
(-0.0317427 0.0285533 -8.13198e-21)
(-0.0500387 0.0351941 1.75524e-21)
(-0.0680757 0.0401207 1.61319e-20)
(-0.084939 0.0443083 3.18159e-20)
(-0.100264 0.0485408 -2.7319e-20)
(-0.11391 0.0532821 4.84918e-21)
(-0.125815 0.058703 2.37701e-20)
(-0.135932 0.0647685 2.52911e-20)
(-0.144205 0.0713132 -3.16779e-20)
(-0.15058 0.0780775 3.4416e-20)
(-0.155032 0.0847324 -5.01216e-20)
(-0.157741 0.0910271 4.79486e-20)
(-0.158563 0.0961961 9.88818e-21)
(-0.00337991 0.0105976 5.90822e-20)
(-0.0146296 0.0258239 1.05637e-19)
(-0.0317526 0.0365745 5.72191e-21)
(-0.0492284 0.0438043 -2.8915e-20)
(-0.0662223 0.0486951 -1.422e-20)
(-0.0818727 0.0524885 -5.06226e-20)
(-0.095827 0.0561264 3.56225e-20)
(-0.107935 0.0601592 4.42773e-20)
(-0.118119 0.0647969 -5.01659e-20)
(-0.126312 0.0700155 -1.99277e-20)
(-0.132437 0.075655 6.62084e-20)
(-0.136409 0.081473 -2.30905e-20)
(-0.138076 0.0871549 2.1754e-20)
(-0.137754 0.0927781 2.55079e-20)
(-0.134274 0.0971501 4.06505e-20)
(-0.00397524 0.0134177 -5.02866e-20)
(-0.0154591 0.0317243 -1.74445e-19)
(-0.0319502 0.0439959 8.49492e-20)
(-0.0483943 0.0517916 -8.04983e-21)
(-0.064045 0.0566449 3.18778e-20)
(-0.0781125 0.0600413 -9.38852e-20)
(-0.0902643 0.0630727 3.202e-21)
(-0.100343 0.0663764 1.12007e-21)
(-0.10825 0.0702063 3.48129e-20)
(-0.113895 0.0745528 -4.03806e-20)
(-0.117168 0.0792579 -1.11149e-19)
(-0.117969 0.0840942 -3.95555e-20)
(-0.115871 0.0886543 -5.3495e-21)
(-0.111722 0.0936046 1.10755e-20)
(-0.102206 0.0966229 -4.54971e-20)
(-0.00472288 0.0159139 -1.11018e-19)
(-0.0165474 0.037016 8.22213e-20)
(-0.0323345 0.0506978 4.75933e-21)
(-0.047562 0.0590229 8.96807e-21)
(-0.0615931 0.0638322 -6.89844e-20)
(-0.0737276 0.0668285 5.19976e-20)
(-0.083661 0.0692434 -1.88738e-20)
(-0.0912296 0.0718004 2.94545e-20)
(-0.0963138 0.0748015 -1.6971e-20)
(-0.0987893 0.0782554 1.02942e-19)
(-0.098496 0.0820017 8.00835e-20)
(-0.0954003 0.085846 5.33391e-20)
(-0.0884726 0.0890867 -8.39423e-20)
(-0.0799452 0.0933631 2.25924e-20)
(-0.0627108 0.0944924 -2.41714e-20)
(-0.0055952 0.0180553 2.47979e-22)
(-0.0178644 0.0416263 1.42199e-19)
(-0.0329019 0.0565779 -1.06193e-19)
(-0.0467557 0.0653772 8.8109e-20)
(-0.0589165 0.0701255 7.65549e-20)
(-0.0687887 0.0727147 -4.31475e-20)
(-0.0761043 0.0745023 2.99079e-20)
(-0.0806944 0.0762956 -1.20371e-19)
(-0.0824131 0.078448 3.49716e-20)
(-0.0810991 0.0809927 -7.84568e-20)
(-0.0764974 0.0837584 4.07253e-20)
(-0.0688287 0.0866332 -9.53329e-20)
(-0.0558948 0.0884129 -2.28402e-20)
(-0.0424667 0.0917966 -4.74493e-20)
(-0.0161549 0.0910579 5.67488e-20)
(-0.0065648 0.0198276 -1.24404e-20)
(-0.0193785 0.0455056 -1.45821e-19)
(-0.0336455 0.0615539 1.34389e-20)
(-0.0459958 0.0707477 1.90313e-21)
(-0.0560604 0.0754029 2.147e-20)
(-0.0633609 0.0775696 1.91084e-19)
(-0.0676734 0.0787157 -1.50627e-20)
(-0.0688238 0.0797265 9.78997e-20)
(-0.0666343 0.0810095 1.22662e-20)
(-0.0609085 0.0826289 6.94836e-21)
(-0.0512011 0.0843977 -3.04951e-20)
(-0.0382689 0.0862918 7.21275e-20)
(-0.0181555 0.0867448 1.78376e-19)
(0.000961399 0.0889996 -2.00855e-19)
(0.0378499 0.0862126 -7.28312e-20)
(-0.00760685 0.0212321 8.2573e-20)
(-0.0210582 0.0486283 1.43562e-19)
(-0.0345544 0.0655652 -3.86553e-20)
(-0.0452939 0.0750452 -6.66093e-20)
(-0.0530571 0.0795548 -6.62631e-20)
(-0.0574916 0.081272 8.40445e-21)
(-0.0584226 0.0817566 6.05855e-20)
(-0.05567 0.0819641 -1.90019e-19)
(-0.0490125 0.0823543 -2.86177e-21)
(-0.0382294 0.0830267 -5.65324e-20)
(-0.0225746 0.0838216 -1.37888e-19)
(-0.00355069 0.0847305 1.40717e-19)
(0.0252388 0.0839444 -1.93393e-19)
(0.0502755 0.0854033 1.04532e-19)
(0.100899 0.0799101 7.65687e-20)
(-0.00870095 0.0222855 -4.52191e-20)
(-0.0228731 0.0509922 5.30244e-20)
(-0.0356105 0.0685752 -9.54128e-20)
(-0.0446466 0.0782007 8.11081e-20)
(-0.0499146 0.0824886 1.09473e-19)
(-0.0511922 0.0837152 1.29717e-19)
(-0.0483549 0.0835122 -5.2476e-20)
(-0.0412113 0.0828945 -4.01854e-20)
(-0.02948 0.0823725 1.86281e-19)
(-0.0129129 0.0820843 1.33745e-19)
(0.0096752 0.0819354 1.25462e-19)
(0.0355459 0.0819077 -1.85478e-19)
(0.0753291 0.0798472 5.44548e-20)
(0.105932 0.0810615 5.34837e-20)
(0.174939 0.0729082 -1.64026e-21)
(-0.00983267 0.0230174 -1.96757e-19)
(-0.0247941 0.0526176 -2.56203e-19)
(-0.0367857 0.070571 9.60714e-20)
(-0.0440261 0.0801688 1.28967e-19)
(-0.0466005 0.0841338 -2.66293e-19)
(-0.0444131 0.0848141 -1.23482e-20)
(-0.0373833 0.0838935 -1.03833e-19)
(-0.0252955 0.0824348 2.4663e-19)
(-0.00777856 0.0809958 -1.09231e-19)
(0.0154259 0.0797501 -1.36063e-20)
(0.0462222 0.0787133 8.40086e-20)
(0.0797585 0.0777293 2.10783e-19)
(0.133608 0.074777 9.35367e-20)
(0.169063 0.0756419 -7.61626e-20)
(0.262625 0.0661985 -1.52008e-20)
(-0.0109941 0.0234676 1.36644e-19)
(-0.0267925 0.0535435 1.83189e-19)
(-0.0380357 0.0715635 -1.25204e-19)
(-0.0433689 0.08093 -4.26606e-19)
(-0.0430222 0.0844482 -4.64988e-20)
(-0.0370117 0.0845153 1.3129e-21)
(-0.0252823 0.082849 1.39744e-19)
(-0.00756823 0.08055 -3.09188e-19)
(0.0166401 0.0782221 -1.3769e-20)
(0.047584 0.0760539 -1.6214e-19)
(0.0882275 0.0743398 -2.13938e-19)
(0.130586 0.0721802 -1.39036e-19)
(0.202132 0.0694687 1.33612e-20)
(0.241763 0.0689806 -4.70898e-20)
(0.366781 0.0606823 -1.49894e-19)
(-0.0121838 0.0236824 7.5168e-20)
(-0.0288375 0.0538237 1.31791e-19)
(-0.0392937 0.0715859 -6.02247e-20)
(-0.0425618 0.0804933 -5.42562e-20)
(-0.0390023 0.0834252 3.4592e-19)
(-0.0287135 0.0828074 -3.56043e-19)
(-0.0116294 0.080381 1.81475e-20)
(0.0126102 0.0772767 8.15318e-20)
(0.0447208 0.0741529 5.98103e-20)
(0.08491 0.0711642 4.15134e-20)
(0.137448 0.0692157 7.23104e-20)
(0.190513 0.0655543 -5.47758e-20)
(0.283124 0.0648467 1.6769e-19)
(0.327281 0.061597 1.3837e-19)
(0.488845 0.0571508 9.44508e-20)
(-0.0134048 0.0237102 3.21504e-20)
(-0.0308919 0.0535215 -2.66896e-19)
(-0.0404612 0.0706915 3.88475e-19)
(-0.0414264 0.0789006 4.80034e-19)
(-0.0342515 0.0810987 -1.61149e-19)
(-0.0190705 0.0797332 5.71265e-20)
(0.00425502 0.076564 -1.48094e-19)
(0.0362433 0.072752 -2.49687e-20)
(0.0778859 0.0690305 -2.77242e-19)
(0.12937 0.0654489 5.9514e-20)
(0.196149 0.0639277 2.32015e-19)
(0.262862 0.0587235 -3.12801e-20)
(0.378069 0.0616626 7.79317e-20)
(0.429453 0.0551194 -3.15098e-20)
(0.626559 0.0564408 1.03131e-20)
(-0.014663 0.023597 -1.5857e-19)
(-0.0329064 0.0527037 -1.78239e-19)
(-0.0413989 0.0689522 -4.24971e-19)
(-0.0397026 0.0762247 -3.03492e-19)
(-0.0283432 0.0775494 -2.38361e-19)
(-0.00742151 0.075403 2.69093e-19)
(0.0233575 0.0715664 5.32119e-20)
(0.0647456 0.0672412 1.15741e-19)
(0.118042 0.0632704 6.20171e-20)
(0.183443 0.0595408 -1.72741e-19)
(0.266783 0.0591573 -9.03948e-20)
(0.350968 0.053308 2.62616e-20)
(0.486763 0.060346 -3.30556e-19)
(0.550519 0.0518824 7.56677e-20)
(0.772447 0.0593254 -2.01353e-19)
(-0.0159631 0.0233818 8.11879e-20)
(-0.0348116 0.0514336 6.22029e-19)
(-0.0419175 0.0664545 3.14824e-19)
(-0.0370331 0.0725674 1.4648e-19)
(-0.0206912 0.0729118 3.71101e-19)
(0.00713401 0.0700066 -3.22732e-19)
(0.0469897 0.0656688 -1.33406e-19)
(0.0999205 0.0611644 -1.28187e-19)
(0.167448 0.0574765 6.12896e-19)
(0.249727 0.0543688 1.9838e-19)
(0.351433 0.0556456 -1.54052e-19)
(0.45643 0.0512405 8.39933e-20)
(0.606907 0.0612246 -1.12572e-19)
(0.687924 0.0537071 1.20756e-19)
(0.914903 0.065944 5.88825e-20)
(-0.017305 0.0230926 -7.78332e-21)
(-0.0365107 0.0497661 -3.31798e-19)
(-0.041768 0.0632939 -3.01217e-19)
(-0.0329542 0.0680603 -1.04272e-19)
(-0.0105383 0.0673762 -1.82637e-19)
(0.0257377 0.0638209 1.87605e-19)
(0.0767544 0.0592789 9.08151e-20)
(0.143828 0.0551116 -1.36269e-19)
(0.228407 0.0524351 2.10286e-21)
(0.33023 0.0510673 -1.04414e-19)
(0.450992 0.0543162 2.36945e-20)
(0.577217 0.0538221 3.27189e-20)
(0.734003 0.0648406 2.8721e-20)
(0.832357 0.0608809 7.48305e-20)
(1.04165 0.0751905 -2.07181e-19)
(-0.0186803 0.0227443 -1.62427e-19)
(-0.0378808 0.0477538 1.33639e-19)
(-0.0406286 0.0595611 1.25782e-19)
(-0.0268909 0.06286 1.57851e-20)
(0.00303757 0.0611872 1.26558e-19)
(0.0497377 0.0572138 -1.6919e-19)
(0.114436 0.0529344 1.75196e-19)
(0.198518 0.0498358 2.77087e-20)
(0.302737 0.0490818 -1.97184e-19)
(0.425486 0.0507253 5.74627e-21)
(0.564104 0.0562862 -1.98146e-19)
(0.707064 0.0611262 1.80654e-19)
(0.86125 0.0715715 2.49368e-20)
(0.969758 0.0721045 4.28578e-20)
(1.1436 0.0849832 2.09883e-19)
(-0.0200644 0.0223392 4.54955e-19)
(-0.0387643 0.0454281 -1.79509e-19)
(-0.0381147 0.0553438 -9.52154e-20)
(-0.0181603 0.0571477 -1.17085e-19)
(0.0210955 0.0546419 -3.16048e-19)
(0.0806065 0.0506413 -1.03753e-19)
(0.161806 0.0472932 2.04393e-19)
(0.265624 0.0462098 -1.36467e-19)
(0.391094 0.0484165 -5.25481e-19)
(0.533803 0.0541081 1.92665e-19)
(0.68627 0.0624145 4.43497e-20)
(0.836798 0.0722022 -1.19443e-19)
(0.980099 0.080985 7.03918e-20)
(1.08686 0.0852789 -6.88639e-20)
(1.21717 0.0932559 8.5761e-20)
(-0.0214164 0.0218619 -7.33365e-20)
(-0.0389555 0.042794 2.35677e-19)
(-0.0337823 0.0507366 2.63665e-19)
(-0.00599526 0.0511235 2.02718e-19)
(0.0447784 0.0480852 3.1165e-19)
(0.119812 0.0446385 2.74927e-19)
(0.22034 0.0431042 -3.09958e-19)
(0.345866 0.0451347 4.28942e-19)
(0.492292 0.0513148 3.36337e-19)
(0.650941 0.0614903 -3.1303e-19)
(0.81006 0.0726747 2.39473e-19)
(0.956849 0.0855348 -6.36002e-20)
(1.08241 0.0919194 -1.17903e-19)
(1.17612 0.0984688 -1.65505e-19)
(1.26407 0.0986876 -8.72626e-20)
(-0.022673 0.0212795 -2.03497e-19)
(-0.038211 0.0398469 4.05399e-19)
(-0.0271294 0.0458294 -2.19822e-20)
(0.0104285 0.0450027 4.19257e-20)
(0.0752377 0.0419043 -5.67133e-20)
(0.168642 0.0398043 -4.17137e-21)
(0.290874 0.0411558 2.64376e-19)
(0.438549 0.047399 -2.00557e-19)
(0.602917 0.0582533 2.03003e-19)
(0.770482 0.0725678 2.52733e-19)
(0.926865 0.0860071 -1.63376e-19)
(1.05976 0.0994487 1.3115e-19)
(1.16327 0.103217 -5.05229e-20)
(1.23687 0.110195 1.25014e-19)
(1.28924 0.100791 6.04733e-20)
(-0.0237425 0.0205467 -2.86319e-19)
(-0.0362524 0.0365792 3.1518e-20)
(-0.0176117 0.0407106 1.08235e-19)
(0.0319555 0.0390191 -1.74284e-19)
(0.11354 0.0365285 -1.98901e-19)
(0.227996 0.0367814 1.21898e-19)
(0.373239 0.0421899 -2.25765e-19)
(0.541216 0.0535024 1.77808e-19)
(0.717559 0.0690888 -7.2677e-20)
(0.885034 0.0864444 -2.77617e-19)
(1.02938 0.100762 -1.6043e-19)
(1.14176 0.112619 2.36357e-19)
(1.22201 0.114112 -1.00813e-19)
(1.27354 0.119002 -6.38038e-20)
(1.29904 0.099783 -1.10737e-19)
(-0.0245125 0.0196228 5.63373e-19)
(-0.0327612 0.0329819 -6.9333e-19)
(-0.00465907 0.035474 -1.58477e-19)
(0.0594071 0.033432 -9.32142e-20)
(0.160555 0.0324292 5.78661e-20)
(0.298149 0.0362199 -2.29497e-19)
(0.465956 0.0467757 1.3309e-19)
(0.649679 0.0634832 6.61236e-20)
(0.829772 0.0830434 -4.38607e-19)
(0.98801 0.10182 3.58724e-19)
(1.1134 0.115366 9.43048e-20)
(1.20276 0.124413 -2.5496e-19)
(1.26103 0.123822 1.49722e-19)
(1.29258 0.124026 9.75536e-20)
(1.31008 0.108656 2.12828e-20)
(-0.024866 0.0184784 -3.79693e-19)
(-0.0273819 0.0290446 6.3113e-19)
(0.0123113 0.0302332 6.14353e-20)
(0.0935342 0.0285393 -2.26178e-19)
(0.216833 0.0301214 2.78641e-19)
(0.378514 0.038712 -1.68258e-19)
(0.566128 0.0551579 1.7942e-20)
(0.758595 0.0768407 -2.14715e-19)
(0.933486 0.0989278 3.85854e-19)
(1.07512 0.117374 -1.7225e-19)
(1.17813 0.128814 4.7134e-20)
(1.24521 0.134686 -7.44635e-20)
(1.28433 0.131516 -7.70158e-21)
(1.30299 0.129764 1.07015e-20)
(1.31144 0.113772 2.40697e-20)
(-0.0246733 0.0170832 8.16057e-20)
(-0.0197434 0.0247769 -3.73874e-19)
(0.0338758 0.0251406 -3.27163e-19)
(0.13496 0.0246945 8.67405e-20)
(0.282448 0.0301488 -2.26196e-19)
(0.467465 0.0446866 -2.08304e-19)
(0.669672 0.0671436 6.57729e-20)
(0.862497 0.0926408 3.0724e-19)
(1.02428 0.115491 1.01987e-19)
(1.14487 0.132123 -1.99482e-19)
(1.22523 0.140716 -5.49781e-20)
(1.27265 0.143318 2.85876e-20)
(1.29715 0.138249 1.60555e-19)
(1.3061 0.13433 -3.58243e-20)
(1.30864 0.118898 -4.30892e-20)
(-0.0237842 0.0154151 -4.47823e-20)
(-0.009467 0.020229 4.91157e-19)
(0.0605794 0.020402 2.30495e-19)
(0.184107 0.0223189 8.15306e-20)
(0.356844 0.0330367 1.60379e-19)
(0.562319 0.0542853 3.09552e-19)
(0.771955 0.0821123 1.44502e-19)
(0.956883 0.109776 -3.18884e-19)
(1.09994 0.131722 -2.00632e-19)
(1.19799 0.145553 3.44633e-19)
(1.2576 0.151021 -3.40172e-20)
(1.28902 0.150711 -2.30993e-20)
(1.30258 0.144015 -2.04538e-19)
(1.30515 0.138703 -2.63343e-20)
(1.30452 0.123533 1.92277e-19)
(-0.0220382 0.0134725 -7.73196e-20)
(0.00383156 0.0154963 -6.20606e-19)
(0.092908 0.0162904 -4.67098e-20)
(0.241104 0.0219003 -1.31264e-19)
(0.438703 0.0392 -3.5498e-19)
(0.65959 0.0672844 1.18441e-19)
(0.868636 0.0991724 -2.89519e-19)
(1.03889 0.127241 1.31025e-19)
(1.16029 0.14699 -1.1379e-20)
(1.23659 0.157517 -1.96496e-19)
(1.27848 0.159953 1.27577e-19)
(1.29748 0.157134 -6.61388e-20)
(1.30336 0.149282 8.37467e-20)
(1.30186 0.142792 1.42165e-19)
(1.29877 0.127934 -2.75809e-20)
(-0.0192696 0.0112776 -4.04208e-22)
(0.0205305 0.0107282 1.02765e-19)
(0.131248 0.0131588 9.89092e-20)
(0.305669 0.0239599 -9.36025e-21)
(0.52593 0.0488318 4.9945e-20)
(0.75551 0.0831293 -3.74808e-19)
(0.956375 0.11739 8.84726e-20)
(1.10738 0.144302 -5.69971e-20)
(1.20651 0.161006 4.46676e-20)
(1.26327 0.168115 1.11476e-19)
(1.29078 0.167795 -1.35443e-19)
(1.30059 0.162933 3.43073e-20)
(1.30122 0.154227 3.01041e-20)
(1.29709 0.146796 -3.85475e-20)
(1.29277 0.132324 2.59467e-20)
(-0.015309 0.00887672 1.79339e-19)
(0.0409854 0.00613426 3.1695e-19)
(0.17583 0.011441 4.85351e-20)
(0.377009 0.0289795 -1.17133e-19)
(0.615822 0.0618294 3.40734e-19)
(0.846633 0.101078 2.27555e-19)
(1.03315 0.13597 -8.23409e-20)
(1.16258 0.160519 3.02494e-21)
(1.24052 0.173737 -7.80543e-20)
(1.28063 0.177566 2.2128e-20)
(1.29693 0.174855 1.81491e-20)
(1.30015 0.168353 -7.82709e-20)
(1.29729 0.159034 -1.62697e-19)
(1.29159 0.150798 1.02334e-19)
(1.28634 0.136705 -1.54809e-19)
(-0.0099886 0.00634129 -1.95931e-19)
(0.065509 0.00198657 -1.02977e-19)
(0.226662 0.011636 -2.75843e-19)
(0.453766 0.0373017 4.36074e-19)
(0.705422 0.0778143 -3.80192e-19)
(0.9303 0.120372 1.5539e-19)
(1.09819 0.15434 9.65371e-20)
(1.2056 0.175701 1.06924e-19)
(1.26447 0.185301 6.68918e-20)
(1.29093 0.186129 -1.34202e-20)
(1.2988 0.181396 -6.60144e-20)
(1.29742 0.173591 -1.56144e-19)
(1.29229 0.163805 8.19566e-20)
(1.28559 0.154847 7.76878e-20)
(1.2798 0.141144 1.66195e-19)
(-0.00314714 0.00376678 -1.75179e-19)
(0.094345 -0.00138152 8.54298e-20)
(0.28345 0.0142663 8.79002e-20)
(0.534086 0.0490471 -1.91129e-19)
(0.791937 0.0962347 7.40421e-20)
(1.00482 0.140363 -6.5553e-20)
(1.1517 0.172147 -1.00941e-19)
(1.238 0.189828 -1.14678e-19)
(1.28041 0.195889 4.29303e-20)
(1.29605 0.194058 1.3109e-19)
(1.29773 0.187632 1.8975e-19)
(1.2932 0.17878 7.30457e-20)
(1.28659 0.168604 -4.90364e-20)
(1.2793 0.158975 -5.26492e-20)
(1.27312 0.145638 -4.41998e-20)
(0.0053726 0.00126795 1.69045e-19)
(0.127638 -0.00358111 -8.45502e-20)
(0.345548 0.0198126 4.86531e-20)
(0.615802 0.0640937 2.76679e-19)
(0.873073 0.116494 2.65146e-19)
(1.06942 0.160559 -2.4666e-19)
(1.1945 0.189215 1.20851e-19)
(1.26149 0.20299 1.40467e-19)
(1.29013 0.205719 -2.39809e-19)
(1.29742 0.201571 4.96448e-20)
(1.29465 0.193722 -1.09629e-19)
(1.28801 0.184003 1.74501e-20)
(1.28045 0.173461 -5.55101e-20)
(1.27278 0.163191 1.00148e-19)
(1.26632 0.150188 -1.08656e-19)
(0.0157058 -0.00101308 -1.53179e-19)
(0.165398 -0.0041747 1.04144e-19)
(0.41194 0.0286389 1.4083e-19)
(0.696695 0.0821274 -3.65401e-20)
(0.947194 0.138045 -3.34471e-19)
(1.12403 0.180625 -1.19222e-19)
(1.22775 0.205495 -1.86792e-19)
(1.27767 0.21533 8.01415e-20)
(1.29511 0.215001 -1.1251e-20)
(1.2961 0.208844 -1.27667e-19)
(1.2902 0.199778 -1.18132e-19)
(1.28215 0.189309 2.19757e-20)
(1.27396 0.178386 4.4871e-20)
(1.26607 0.167494 -9.21864e-20)
(1.25939 0.154781 4.67276e-20)
(0.0279556 -0.0029132 6.54294e-20)
(0.207464 -0.00270494 1.51266e-21)
(0.481299 0.040935 -4.23421e-19)
(0.77474 0.102729 -3.05474e-20)
(1.01332 0.160437 2.39599e-19)
(1.16911 0.200354 2.42955e-19)
(1.25273 0.221021 1.66666e-19)
(1.28798 0.227015 -3.07749e-20)
(1.29652 0.223916 5.12821e-20)
(1.29285 0.216009 -1.80568e-21)
(1.28476 0.20587 9.38039e-20)
(1.27578 0.194716 3.68333e-20)
(1.26718 0.183375 8.01882e-20)
(1.25916 0.171878 -6.04626e-20)
(1.2523 0.159399 -4.55839e-20)
(0.0421985 -0.00425033 -1.15623e-20)
(0.253476 0.00127651 1.19865e-19)
(0.552092 0.0567027 2.22381e-19)
(0.848277 0.125452 7.49499e-20)
(1.07103 0.183316 -2.15299e-19)
(1.20538 0.219639 -2.70185e-19)
(1.27069 0.235877 1.10955e-19)
(1.29364 0.238207 -6.74327e-20)
(1.29524 0.232613 1.91756e-19)
(1.28817 0.223155 5.36675e-21)
(1.27859 0.212036 -4.88268e-20)
(1.26899 0.200225 -1.87184e-20)
(1.26012 0.188417 9.09539e-20)
(1.25203 0.17633 8.0558e-20)
(1.24502 0.164023 8.65498e-20)
(0.058466 -0.00482185 1.72205e-19)
(0.302872 0.00816759 -1.85261e-19)
(0.622725 0.075782 1.16893e-19)
(0.916072 0.149878 1.64822e-19)
(1.12033 0.206421 1.42882e-19)
(1.23374 0.238437 5.76952e-20)
(1.28278 0.250167 3.09451e-20)
(1.29562 0.249051 -1.21136e-20)
(1.29192 0.241203 -8.80383e-20)
(1.28241 0.230339 3.33412e-20)
(1.27181 0.21829 8.02425e-20)
(1.26181 0.205823 3.28558e-20)
(1.25278 0.193495 -3.15108e-20)
(1.24467 0.180833 -3.34505e-20)
(1.23754 0.168626 -4.08905e-20)
(0.0767346 -0.00440971 -9.25879e-20)
(0.354895 0.0182746 6.70633e-20)
(0.691675 0.0978999 -7.32813e-21)
(0.977314 0.175629 -1.73401e-19)
(1.16152 0.229561 -4.55405e-20)
(1.25511 0.25675 1.02204e-19)
(1.29001 0.263998 -9.14548e-20)
(1.29469 0.259664 6.25537e-21)
(1.28701 0.249759 -5.67345e-21)
(1.27579 0.237587 -3.05642e-20)
(1.26451 0.224628 -5.08263e-20)
(1.25426 0.211487 -7.26e-20)
(1.24514 0.198589 -2.81513e-20)
(1.23706 0.185368 4.88782e-20)
(1.22984 0.173184 1.18325e-20)
(0.0969165 -0.00278928 -1.19213e-19)
(0.408638 0.0317827 -1.52326e-20)
(0.757591 0.122718 -7.63284e-20)
(1.03155 0.202381 7.1755e-20)
(1.19507 0.252595 -8.45126e-20)
(1.27036 0.274603 -3.69509e-20)
(1.29322 0.277469 9.61813e-21)
(1.29143 0.270134 -1.45674e-20)
(1.28081 0.258326 2.93565e-20)
(1.26841 0.244902 3.37075e-22)
(1.25671 0.231032 2.06219e-20)
(1.24632 0.21719 3.6215e-20)
(1.23719 0.203676 4.2454e-20)
(1.22918 0.189913 -1.9082e-20)
(1.22188 0.17767 -1.4271e-20)
(0.118853 0.000258175 7.17726e-20)
(0.463096 0.0487447 7.59844e-20)
(0.819357 0.149868 2.66343e-20)
(1.07859 0.229847 -4.21035e-20)
(1.22155 0.275423 9.34326e-21)
(1.28032 0.29203 6.45694e-20)
(1.29309 0.290658 -4.44176e-20)
(1.28628 0.280519 -3.89063e-20)
(1.27354 0.26692 -1.25106e-20)
(1.26036 0.252272 7.97731e-21)
(1.24842 0.237474 -4.44975e-20)
(1.23799 0.222898 9.61063e-21)
(1.22891 0.208732 2.54562e-20)
(1.221 0.194441 -1.01585e-20)
(1.21367 0.182053 -8.20736e-21)
(0.14231 0.00493034 -4.71566e-20)
(0.517224 0.0690863 -3.23253e-20)
(0.876108 0.178975 -6.3062e-20)
(1.11849 0.257774 -1.02173e-20)
(1.24158 0.297965 -6.66217e-21)
(1.28568 0.309065 -7.02548e-20)
(1.29016 0.303623 2.2293e-20)
(1.27953 0.290848 1.35563e-20)
(1.26532 0.275534 -2.2637e-20)
(1.25167 0.259667 -1.37595e-20)
(1.23963 0.24392 -5.53131e-22)
(1.22925 0.228577 -1.33196e-20)
(1.22029 0.213729 -2.05854e-20)
(1.21253 0.19892 -1.8362e-20)
(1.20522 0.186303 1.30877e-20)
(0.166985 0.0113888 -2.1714e-20)
(0.57 0.0926232 7.94127e-21)
(0.92722 0.209667 1.07274e-20)
(1.15142 0.285934 1.1091e-20)
(1.25573 0.320155 1.89057e-20)
(1.28707 0.325729 1.33308e-20)
(1.28486 0.316396 -3.74068e-21)
(1.2714 0.301123 1.30238e-20)
(1.25622 0.284143 -6.75514e-22)
(1.24234 0.267051 -6.60119e-23)
(1.23034 0.250327 5.32433e-21)
(1.22009 0.234186 -2.48306e-21)
(1.21131 0.218634 1.72458e-21)
(1.20375 0.203308 7.11407e-21)
(1.19655 0.190385 -5.79756e-21)
(0.192514 0.0197464 -1.38467e-20)
(0.620467 0.119082 -3.57167e-21)
(0.972283 0.241584 1.58844e-20)
(1.17766 0.314113 6.94105e-21)
(1.26459 0.341931 1.92275e-20)
(1.285 0.342032 1.29062e-20)
(1.2775 0.328984 -4.29672e-22)
(1.26203 0.311326 1.51e-20)
(1.24629 0.292709 -7.48361e-21)
(1.23238 0.274377 8.13392e-22)
(1.22051 0.25665 4.82649e-21)
(1.21047 0.239684 -2.20205e-21)
(1.20195 0.223408 2.10193e-21)
(1.19466 0.207549 7.54968e-21)
(1.18768 0.194262 -2.74614e-21)
(0.218484 0.0300597 -2.00083e-20)
(0.667769 0.148118 -5.65462e-20)
(1.01107 0.274375 -6.33257e-20)
(1.19754 0.342115 -2.33077e-21)
(1.26867 0.36323 -9.2834e-21)
(1.27988 0.357964 -6.3547e-20)
(1.26833 0.341372 3.10485e-20)
(1.25152 0.321419 3.1692e-21)
(1.23555 0.30118 -1.93504e-20)
(1.22177 0.281592 -1.69445e-20)
(1.21016 0.262842 2.40574e-21)
(1.2004 0.245029 -9.49058e-21)
(1.19219 0.228009 -1.02018e-20)
(1.18524 0.211591 -1.41714e-20)
(1.17855 0.197906 8.5313e-21)
(0.244451 0.0423264 7.51328e-20)
(0.711177 0.179336 5.47544e-20)
(1.04349 0.307698 2.29907e-20)
(1.21145 0.369751 -3.22633e-20)
(1.26843 0.383982 1.48574e-20)
(1.27207 0.373498 3.37123e-20)
(1.25752 0.353523 -2.59182e-20)
(1.23993 0.331348 -4.95895e-20)
(1.22401 0.309496 -3.64055e-21)
(1.21052 0.28864 2.78872e-20)
(1.19925 0.268853 -3.22003e-20)
(1.18986 0.250181 1.36114e-20)
(1.18204 0.232399 6.25763e-21)
(1.17548 0.215397 1.14079e-21)
(1.16909 0.201298 1.13321e-22)
(0.269954 0.056487 -9.12543e-20)
(0.750093 0.212303 -5.73116e-20)
(1.06959 0.341217 -8.94339e-20)
(1.21975 0.396843 7.81175e-20)
(1.26429 0.404111 -8.11718e-20)
(1.26183 0.388589 -1.89687e-20)
(1.2452 0.365382 -1.49314e-21)
(1.22731 0.341047 1.26378e-21)
(1.21167 0.31759 3.60596e-20)
(1.1986 0.295461 -3.80484e-20)
(1.18778 0.274632 3.03751e-20)
(1.17885 0.255094 1.16781e-20)
(1.17149 0.236548 2.78893e-20)
(1.16538 0.218968 -6.25401e-22)
(1.15916 0.204425 -7.90009e-21)
(0.294532 0.0724298 1.29688e-20)
(0.784065 0.246564 1.66422e-20)
(1.08946 0.374605 -3.05112e-20)
(1.22283 0.423216 -1.18107e-19)
(1.25662 0.423532 -2.89496e-20)
(1.2494 0.403172 7.46613e-20)
(1.23148 0.376879 -5.69334e-20)
(1.21368 0.35044 -2.69442e-20)
(1.19853 0.32539 8.21558e-21)
(1.18603 0.301992 -7.93412e-21)
(1.17576 0.280123 -4.29617e-20)
(1.16736 0.259716 -2.08269e-20)
(1.16057 0.240415 -2.95165e-21)
(1.15495 0.22235 5.84313e-21)
(1.14876 0.207288 4.32593e-21)
(0.317739 0.0899939 1.75198e-19)
(0.812782 0.281657 -2.18469e-19)
(1.10327 0.407539 1.46788e-19)
(1.22106 0.448702 7.42673e-20)
(1.24573 0.442149 2.07233e-19)
(1.23497 0.417171 4.98798e-21)
(1.21644 0.387934 4.95827e-20)
(1.19905 0.359446 1.34884e-20)
(1.18459 0.33282 -8.05501e-20)
(1.17279 0.308167 2.84479e-20)
(1.16318 0.285275 2.1427e-20)
(1.1554 0.26399 2.75014e-20)
(1.14929 0.243952 -2.48235e-20)
(1.14413 0.225545 -5.17475e-21)
(1.1382 0.209889 1.25082e-23)
(0.339164 0.108974 -2.33464e-20)
(0.83605 0.317126 2.54648e-19)
(1.11126 0.439709 1.90461e-19)
(1.2148 0.473126 3.13541e-20)
(1.23191 0.459858 -1.93349e-19)
(1.21868 0.430494 -1.13672e-19)
(1.20012 0.398455 3.4565e-20)
(1.18345 0.367978 -1.9486e-20)
(1.16987 0.339801 4.42319e-20)
(1.15889 0.313911 9.67654e-21)
(1.15009 0.290031 9.39954e-21)
(1.14302 0.267878 -1.43043e-20)
(1.13762 0.247141 5.75679e-21)
(1.13292 0.228421 1.9192e-20)
(1.12755 0.212182 1.4603e-20)
(0.358433 0.129125 1.96653e-19)
(0.853779 0.352522 -2.1015e-19)
(1.11366 0.470813 -3.17778e-19)
(1.20437 0.49632 2.29509e-20)
(1.2154 0.476549 1.54339e-19)
(1.20066 0.44304 1.42193e-19)
(1.18256 0.408337 6.75422e-20)
(1.16693 0.375946 5.95753e-21)
(1.1544 0.346259 8.61096e-21)
(1.1444 0.31916 9.46391e-22)
(1.13647 0.294311 2.20803e-20)
(1.13023 0.271349 3.00776e-21)
(1.12555 0.249961 -1.86472e-21)
(1.1214 0.23093 -6.02904e-21)
(1.11671 0.214105 -6.84655e-21)
(0.375226 0.150173 -2.53891e-19)
(0.86597 0.387411 1.93608e-19)
(1.11078 0.50056 1.66075e-19)
(1.19012 0.518111 -1.09347e-19)
(1.19643 0.492105 -2.17337e-19)
(1.181 0.454706 -4.27076e-20)
(1.16381 0.417459 -9.48038e-20)
(1.14956 0.38325 3.66692e-20)
(1.13823 0.352111 -6.89286e-21)
(1.12932 0.323862 -2.06723e-20)
(1.12234 0.298078 -8.45635e-21)
(1.11701 0.27434 -3.74541e-21)
(1.11313 0.252364 -8.68831e-21)
(1.1096 0.233029 1.91289e-22)
(1.1057 0.215634 -4.1653e-21)
(0.389281 0.171818 3.61452e-19)
(0.872699 0.421375 -2.30111e-19)
(1.1029 0.528673 1.19913e-19)
(1.17233 0.538333 1.0947e-19)
(1.17517 0.506401 1.8409e-19)
(1.15984 0.465386 -1.06065e-19)
(1.14406 0.425724 3.63999e-20)
(1.13132 0.38977 3.40701e-20)
(1.12134 0.357296 -2.45118e-20)
(1.11364 0.327941 -2.177e-21)
(1.10775 0.301274 2.73654e-21)
(1.10341 0.276814 -4.93461e-21)
(1.10037 0.254308 -3.36353e-21)
(1.09754 0.234681 -3.7181e-21)
(1.0945 0.216744 1.38102e-20)
(0.400397 0.193743 -2.00271e-19)
(0.874108 0.454016 1.27505e-20)
(1.09037 0.554891 7.85563e-20)
(1.15131 0.556827 -1.62964e-19)
(1.15182 0.519298 6.14418e-20)
(1.13738 0.474939 1.43339e-20)
(1.12331 0.433047 -4.4756e-20)
(1.11221 0.395442 -1.71507e-20)
(1.10378 0.361703 8.83765e-21)
(1.09743 0.331329 1.13276e-20)
(1.09272 0.303845 3.21254e-21)
(1.08944 0.278726 -1.19515e-20)
(1.08732 0.255749 -4.87771e-21)
(1.08524 0.235853 1.80579e-20)
(1.08314 0.217424 7.8825e-21)
(0.408432 0.21562 3.77262e-20)
(0.870395 0.484955 -2.04083e-19)
(1.07352 0.57897 -2.57779e-19)
(1.12734 0.573441 1.89512e-19)
(1.12664 0.530671 -9.83976e-20)
(1.11365 0.483235 5.28227e-20)
(1.10156 0.439314 2.63053e-20)
(1.09235 0.40018 9.2651e-21)
(1.0856 0.365268 9.85969e-21)
(1.08072 0.333963 -4.89193e-21)
(1.0773 0.305738 1.7822e-21)
(1.07515 0.280033 8.04402e-21)
(1.07399 0.25665 -7.30652e-21)
(1.07274 0.236513 -4.9922e-21)
(1.07165 0.217664 -3.50416e-20)
(0.413311 0.23712 1.50694e-19)
(0.861822 0.513841 3.81021e-19)
(1.0527 0.600672 -6.36992e-20)
(1.10072 0.587999 -1.18363e-19)
(1.0998 0.540414 1.72985e-19)
(1.08871 0.490159 4.82005e-20)
(1.07892 0.444409 -2.48924e-21)
(1.07179 0.403894 -1.21578e-20)
(1.06686 0.367915 8.66493e-22)
(1.06357 0.33578 1.18869e-20)
(1.06153 0.306902 -1.00894e-20)
(1.06059 0.280695 -3.69646e-21)
(1.06043 0.256975 2.79035e-20)
(1.06005 0.236628 1.00235e-20)
(1.06007 0.217448 3.38338e-20)
(0.41503 0.257918 -6.70936e-20)
(0.848726 0.540376 1.42588e-19)
(1.02817 0.619751 1.20268e-19)
(1.07171 0.600344 -5.61088e-20)
(1.07145 0.548383 -3.19702e-20)
(1.06273 0.495618 -3.09653e-20)
(1.05547 0.448237 -1.00388e-20)
(1.0506 0.406498 -2.62878e-21)
(1.04762 0.369579 8.98771e-21)
(1.04602 0.336723 -2.36029e-20)
(1.04546 0.307289 2.99923e-20)
(1.04579 0.280673 -1.73537e-20)
(1.04669 0.256687 -4.41044e-20)
(1.04723 0.23616 6.00445e-20)
(1.04842 0.216754 -4.32994e-20)
(0.413662 0.277684 -1.31383e-19)
(0.831497 0.564351 -4.75031e-19)
(1.00015 0.635952 1.53827e-20)
(1.0406 0.610305 -6.23802e-20)
(1.04177 0.554462 -9.20453e-20)
(1.03583 0.499504 2.68494e-20)
(1.03133 0.450706 4.82127e-21)
(1.02887 0.407914 -1.5144e-20)
(1.02797 0.370197 -1.81648e-20)
(1.02816 0.336738 3.58263e-20)
(1.02916 0.306855 -1.7508e-20)
(1.03082 0.27993 -1.06755e-20)
(1.0328 0.255753 -4.70065e-21)
(1.0343 0.235068 -1.69885e-20)
(1.03672 0.215564 1.5601e-20)
(0.409348 0.296064 1.19191e-20)
(0.810412 0.585557 2.4777e-19)
(0.969025 0.649164 9.86125e-20)
(1.0077 0.617677 4.67798e-20)
(1.01096 0.558538 2.25774e-20)
(1.00814 0.501723 -1.14859e-20)
(1.00659 0.451733 -1.62171e-20)
(1.00667 0.408073 4.28027e-20)
(1.00796 0.369709 8.46725e-20)
(1.01004 0.335777 -8.91187e-20)
(1.01268 0.30556 -1.19422e-20)
(1.01573 0.278436 9.81302e-21)
(1.01881 0.254147 7.7263e-20)
(1.02131 0.233318 2.45485e-20)
(1.02501 0.213867 -7.1225e-20)
(0.402226 0.312725 7.45977e-20)
(0.785514 0.603538 -2.4482e-19)
(0.935465 0.659465 -2.66525e-20)
(0.973324 0.622359 -3.46285e-20)
(0.979221 0.560497 1.29947e-20)
(0.979794 0.502188 -1.61117e-20)
(0.98136 0.451245 5.61587e-21)
(0.984114 0.40691 -6.27471e-20)
(0.987678 0.368062 -4.48254e-20)
(0.991734 0.333793 6.4032e-20)
(0.996091 0.303366 -4.89129e-20)
(1.00057 0.276165 6.75379e-20)
(1.00477 0.251851 -6.34328e-20)
(1.00837 0.230889 1.92393e-20)
(1.01353 0.211647 6.90271e-20)
(0.392383 0.327486 -1.87581e-19)
(0.757081 0.617865 2.72769e-19)
(0.899876 0.666626 -4.27093e-21)
(0.937725 0.624379 3.06702e-21)
(0.946734 0.560263 -2.77991e-20)
(0.950945 0.500818 1.21756e-20)
(0.955764 0.449177 5.96131e-20)
(0.961288 0.404371 8.26565e-20)
(0.967218 0.36521 -1.73118e-19)
(0.973321 0.330748 5.1393e-20)
(0.979447 0.300237 1.36326e-20)
(0.985374 0.273076 -9.38293e-20)
(0.990775 0.248831 7.55051e-20)
(0.995731 0.227777 -2.5548e-20)
(1.00265 0.208923 3.27179e-20)
(0.37996 0.340144 2.2271e-19)
(0.725827 0.628532 -1.70213e-19)
(0.862529 0.670418 -7.16235e-21)
(0.901159 0.623666 6.81096e-21)
(0.913698 0.557769 -6.87731e-21)
(0.92174 0.497546 6.21864e-20)
(0.929925 0.445474 -8.54804e-20)
(0.9383 0.400411 7.49874e-20)
(0.946667 0.361115 1.0622e-19)
(0.954873 0.326608 -1.52244e-19)
(0.962798 0.296138 4.64149e-20)
(0.970198 0.269114 -2.37452e-20)
(0.976943 0.244993 -5.79126e-21)
(0.98368 0.22389 -8.0648e-20)
(0.992462 0.205898 -4.24631e-20)
(0.365155 0.350405 -6.48143e-20)
(0.692221 0.63538 5.15322e-20)
(0.823752 0.670732 2.71301e-20)
(0.863885 0.620155 1.60888e-20)
(0.880307 0.552963 9.38455e-20)
(0.892332 0.492321 -9.01871e-20)
(0.903969 0.44009 1.23163e-19)
(0.915262 0.394994 -9.88461e-20)
(0.926117 0.355748 1.1698e-19)
(0.936462 0.321354 1.31162e-19)
(0.946195 0.291054 -2.36255e-20)
(0.955094 0.264249 1.68694e-20)