/*--------------------------------*- C++ -*----------------------------------*\
  =========                 |
  \\      /  F ield         | OpenFOAM: The Open Source CFD Toolbox
   \\    /   O peration     | Website:  https://openfoam.org
    \\  /    A nd           | Version:  7
     \\/     M anipulation  |
\*---------------------------------------------------------------------------*/
FoamFile
{
    version     2.0;
    format      ascii;
    class       surfaceScalarField;
    location    "90";
    object      phi;
}
// * * * * * * * * * * * * * * * * * * * * * * * * * * * * * * * * * * * * * //

dimensions      [0 3 -1 0 0 0 0];

internalField   nonuniform List<scalar> 
11803
(
-3.87883e-06
6.86816e-05
-1.37918e-05
0.000163968
-2.86639e-05
0.000229739
-4.75773e-05
0.00027228
-6.97805e-05
0.000297705
-9.46793e-05
0.000311342
-0.000121825
0.000317432
-0.000150896
0.000319001
-0.000181677
0.000317875
-0.000214029
0.000314845
-0.000247872
0.0003099
-0.000283151
0.000302462
-0.000319826
0.000291595
-0.00035784
0.000276139
-0.00039711
0.000254797
-0.000437506
0.000226177
-0.00047884
0.000188819
-0.000520858
0.000141219
-0.000563258
8.18665e-05
9.24584e-06
-3.56486e-06
7.22465e-05
-1.28036e-05
0.000173206
-2.68022e-05
0.000243737
-4.47434e-05
0.000290221
-6.59303e-05
0.000318892
-8.97905e-05
0.000335202
-0.000115877
0.000343519
-0.000143861
0.000346984
-0.000173514
0.000347529
-0.000204695
0.000346025
-0.000237317
0.000342522
-0.000271335
0.00033648
-0.000306717
0.000326977
-0.000343424
0.000312846
-0.000381391
0.000292764
-0.000420507
0.000265293
-0.000460599
0.000228911
-0.000501419
0.000182039
-0.000542645
0.000123093
5.05272e-05
-3.21334e-06
7.54598e-05
-1.16867e-05
0.00018168
-2.46753e-05
0.000256726
-4.14684e-05
0.000307014
-6.14246e-05
0.000338848
-8.39924e-05
0.00035777
-0.000108723
0.000368249
-0.000135272
0.000373533
-0.000163395
0.000375652
-0.000192931
0.000375562
-0.000223783
0.000373375
-0.000255898
0.000368595
-0.000289239
0.000360318
-0.000323771
0.000347378
-0.000359432
0.000328424
-0.000396114
0.000301975
-0.000433643
0.00026644
-0.00047176
0.000220156
-0.000510115
0.000161448
8.8704e-05
-2.8283e-06
7.82881e-05
-1.04522e-05
0.000189304
-2.23024e-05
0.000268576
-3.77779e-05
0.00032249
-5.62947e-05
0.000357365
-7.73207e-05
0.000378796
-0.000100401
0.000391329
-0.000125172
0.000398304
-0.000151362
0.000401842
-0.000178782
0.000402982
-0.000207312
0.000401905
-0.000236876
0.000398158
-0.000267421
0.000390863
-0.000298896
0.000378852
-0.000331225
0.000360753
-0.000364287
0.000335037
-0.00039789
0.000300043
-0.000431749
0.000254016
-0.000465466
0.000195165
-0.000498534
0.000121772
3.23098e-05
-2.41482e-06
8.0703e-05
-9.1146e-06
0.000196003
-1.97086e-05
0.00027917
-3.37077e-05
0.000336489
-5.0586e-05
0.000374243
-6.98295e-05
0.000398039
-9.09743e-05
0.000412474
-0.000113631
0.000420961
-0.000137493
0.000425704
-0.000162335
0.000427824
-0.000187998
0.000427567
-0.00021437
0.000424531
-0.000241366
0.000417859
-0.0002689
0.000406386
-0.000296866
0.00038872
-0.000325111
0.000363282
-0.000353407
0.000328339
-0.000381427
0.000282035
-0.000408714
0.000222452
-0.000434665
0.000147722
5.61834e-05
-1.97893e-06
8.26819e-05
-7.69169e-06
0.000201716
-1.69254e-05
0.000288404
-2.93034e-05
0.000348867
-4.43575e-05
0.000389298
-6.15909e-05
0.000415272
-8.05277e-05
0.000431411
-0.000100747
0.00044118
-0.000121902
0.000446858
-0.000143718
0.00044964
-0.000165985
0.000449835
-0.000188543
0.000447088
-0.000211253
0.000440569
-0.000233981
0.000429114
-0.000256569
0.000411307
-0.000278809
0.000385523
-0.000300423
0.000349953
-0.000321026
0.000302638
-0.000340095
0.000241522
-0.000356939
0.000164566
6.99256e-05
-1.52753e-06
8.42094e-05
-6.20396e-06
0.000206393
-1.39901e-05
0.00029619
-2.46195e-05
0.000359496
-3.76811e-05
0.000402359
-5.26941e-05
0.000430285
-6.91682e-05
0.000447885
-8.66476e-05
0.00045866
-0.000104735
0.000464946
-0.000123099
0.000468004
-0.00014147
0.000468205
-0.000159618
0.000465236
-0.00017734
0.000458292
-0.000194431
0.000446205
-0.000210662
0.000427537
-0.000225751
0.000400612
-0.000239345
0.000363548
-0.000250987
0.000314279
-0.000260082
0.000250618
-0.000265855
0.000170339
7.13853e-05
-1.06822e-06
8.52776e-05
-4.67435e-06
0.000209999
-1.09446e-05
0.00030246
-1.97187e-05
0.00036827
-3.06406e-05
0.000413281
-4.32442e-05
0.000442889
-5.70231e-05
0.000461664
-7.14824e-05
0.000473119
-8.61699e-05
0.000479633
-0.000100689
0.000482523
-0.000114694
0.00048221
-0.00012788
0.000478422
-0.000139958
0.00047037
-0.000150635
0.000456882
-0.000159589
0.000436492
-0.000166447
0.00040747
-0.000170757
0.000367858
-0.000171969
0.000315491
-0.000169408
0.000248057
-0.000162215
0.000163146
5.84806e-05
-6.09186e-07
8.58868e-05
-3.12772e-06
0.000212517
-7.83527e-06
0.000307168
-1.46708e-05
0.000375106
-2.33301e-05
0.00042194
-3.33605e-05
0.000452919
-4.4238e-05
0.000472541
-5.54259e-05
0.000484307
-6.64125e-05
0.00049062
-7.67275e-05
0.000492838
-8.59435e-05
0.000491426
-9.3663e-05
0.000486142
-9.94997e-05
0.000476206
-0.000103055
0.000460437
-0.000103898
0.000437335
-0.000101538
0.00040511
-9.54077e-05
0.000361728
-8.4838e-05
0.000304921
-6.90654e-05
0.000232284
-4.71415e-05
0.000141222
2.9259e-05
-1.59809e-07
8.60466e-05
-1.5901e-06
0.000213948
-4.71109e-06
0.000310289
-9.55058e-06
0.000379945
-1.58518e-05
0.000428241
-2.31736e-05
0.000460241
-3.09734e-05
0.000480341
-3.86712e-05
0.000492005
-4.56919e-05
0.000497641
-5.14868e-05
0.000498633
-5.55374e-05
0.000495477
-5.73449e-05
0.000487949
-5.64123e-05
0.000475274
-5.22193e-05
0.000456244
-4.42145e-05
0.00042933
-3.17682e-05
0.000392663
-1.41831e-05
0.000344143
9.3234e-06
0.000281415
3.97237e-05
0.000201884
7.80061e-05
0.00010294
-1.8097e-05
2.78683e-07
8.5768e-05
-8.65675e-08
0.000214313
-1.62279e-06
0.000311825
-4.4369e-06
0.000382759
-8.31393e-06
0.000432119
-1.28229e-05
0.00046475
-1.74015e-05
0.00048492
-2.14255e-05
0.000496029
-2.42547e-05
0.00050047
-2.52576e-05
0.000499636
-2.38187e-05
0.000494038
-1.93299e-05
0.000483461
-1.11747e-05
0.000467118
1.28826e-06
0.000443781
1.87852e-05
0.000411833
4.20642e-05
0.000369384
7.19868e-05
0.00031422
0.000109512
0.000243889
0.000155676
0.000155721
0.000211644
4.69722e-05
-8.51525e-05
6.84927e-07
8.5083e-05
1.35113e-06
0.000213647
1.37775e-06
0.000311798
5.9258e-07
0.000383545
-8.27448e-07
0.000433539
-2.45222e-06
0.000466375
-3.70067e-06
0.000486168
-3.90431e-06
0.000496233
-2.35663e-06
0.000498922
1.65855e-06
0.000495621
8.85878e-06
0.000486838
1.99673e-05
0.000472352
3.57304e-05
0.000451355
5.69393e-05
0.000422572
8.44369e-05
0.000384336
0.000119162
0.00033466
0.000162135
0.000271247
0.000214476
0.000191547
0.000277395
9.28022e-05
0.000352171
-2.7804e-05
0.00044022
-0.000173201
-0.000345123
1.06026e-06
8.40228e-05
2.7025e-06
0.000212004
4.23895e-06
0.000310262
5.45129e-06
0.000382332
6.49549e-06
0.000432494
7.7938e-06
0.000465077
9.9495e-06
0.000484012
1.36759e-05
0.000492506
1.9746e-05
0.000492852
2.89626e-05
0.000486404
4.21469e-05
0.000473654
6.01429e-05
0.000454356
8.3831e-05
0.000427667
0.000114148
0.000392256
0.0001521
0.000346384
0.000198789
0.00028797
0.000255414
0.000214622
0.00032327
0.000123692
0.000403736
1.2336e-05
0.000498225
-0.000122293
0.000608279
-0.000283255
-0.000471763
1.39528e-06
8.26275e-05
3.94142e-06
0.000209458
6.91509e-06
0.000307288
1.00709e-05
0.000379177
1.35493e-05
0.000429016
1.77755e-05
0.00046085
2.33751e-05
0.000478413
3.11058e-05
0.000484775
4.18072e-05
0.000482151
5.63694e-05
0.000471842
7.57203e-05
0.000454303
0.000100828
0.000429249
0.000132712
0.000395783
0.000172462
0.000352505
0.000221255
0.000297591
0.000280366
0.000228859
0.000351175
0.000143813
0.000435156
3.9711e-05
0.000533866
-8.63735e-05
0.000648832
-0.000237259
0.00078169
-0.000416113
-0.000623484
1.68337e-06
8.09441e-05
5.04642e-06
0.000206095
9.36239e-06
0.000302972
1.43793e-05
0.00037416
2.02351e-05
0.00042316
2.73635e-05
0.000453722
3.64152e-05
0.000469361
4.81932e-05
0.000472997
6.36042e-05
0.00046674
8.3627e-05
0.000451819
0.000109299
0.000428631
0.000141716
0.000396831
0.000182045
0.000355454
0.000231537
0.000303013
0.000291544
0.000237585
0.000363524
0.000156878
0.000449047
5.82901e-05
0.000549766
-6.10077e-05
0.000667391
-0.000203999
0.00080355
-0.000373418
0.000959868
-0.000572432
-0.000800899
1.91909e-06
7.9025e-05
5.99923e-06
0.000202015
1.15437e-05
0.000297428
1.83166e-05
0.000367387
2.6467e-05
0.00041501
3.6445e-05
0.000443744
4.89305e-05
0.000456876
6.47741e-05
0.000457154
8.49516e-05
0.000446562
0.000110533
0.000426237
0.000142671
0.000396493
0.000182595
0.000356907
0.000231628
0.000306421
0.000291193
0.000243448
0.000362826
0.000165952
0.000448181
7.15235e-05
0.000549015
-4.25436e-05
0.000667149
-0.000179142
0.000804415
-0.000341265
0.000962483
-0.000531486
0.0011428
-0.000752745
0.0013462
-0.0010043
-0.00129247
2.09829e-06
7.69267e-05
6.78581e-06
0.000197327
1.34302e-05
0.000290783
2.18352e-05
0.000358982
3.21767e-05
0.000404668
4.49306e-05
0.00043099
6.08124e-05
0.000440994
8.07247e-05
0.000437241
0.000105717
0.00042157
0.000136957
0.000394998
0.000175718
0.000357733
0.000223376
0.000309248
0.000281421
0.000248376
0.000351461
0.000173409
0.000435229
8.21834e-05
0.000534578
-2.7825e-05
0.000651446
-0.000159412
0.000787792
-0.000315487
0.000945491
-0.000498964
0.00112616
-0.000712156
0.00133081
-0.000957391
0.00156001
-0.0012335
-0.00154511
2.2184e-06
7.47083e-05
7.39714e-06
0.000192149
1.50029e-05
0.000283177
2.49035e-05
0.000349081
3.73185e-05
0.000392253
5.27618e-05
0.000415547
7.1993e-05
0.000421763
9.59748e-05
0.00041326
0.000125838
0.000391707
0.000162858
0.000357978
0.000208441
0.000312149
0.000264126
0.000253563
0.000331582
0.00018092
0.000412618
9.2373e-05
0.000509176
-1.43741e-05
0.0006233
-0.000141949
0.00075708
-0.000293193
0.000912546
-0.000470953
0.00109148
-0.000677901
0.00129528
-0.000915948
0.00152419
-0.00118631
0.00177821
-0.00148752
-0.00182127
2.27857e-06
7.24298e-05
7.83011e-06
0.000186597
1.62544e-05
0.000274753
2.75086e-05
0.000337827
4.18745e-05
0.000377887
5.99182e-05
0.000397503
8.24556e-05
0.000399225
0.000110521
0.000385194
0.00014534
0.000356888
0.00018831
0.000315008
0.000240989
0.000259471
0.000305092
0.00018946
0.000382493
0.000103519
0.000475207
-3.41577e-07
0.000585389
-0.000124556
0.000715244
-0.000271803
0.000866946
-0.000444895
0.00104247
-0.000646476
0.0012433
-0.00087873
0.0014703
-0.00114295
0.00172269
-0.0014387
0.00199934
-0.00176417
0.00229523
-0.00211715
-0.00247195
2.27992e-06
7.01499e-05
8.08818e-06
0.000180789
1.71908e-05
0.000265651
2.96599e-05
0.000325358
4.58593e-05
0.000361688
6.64246e-05
0.000376938
9.22442e-05
0.000373406
0.000124441
0.000352998
0.000164353
0.000316976
0.000213519
0.000265841
0.000273672
0.000199318
0.000346725
0.000116407
0.000434767
1.54775e-05
0.000540037
-0.000105612
0.000664853
-0.000249372
0.00081153
-0.00041848
0.000982195
-0.00061556
0.00117856
-0.000842841
0.00140152
-0.00110169
0.00165103
-0.00139247
0.00192494
-0.0017126
0.00222055
-0.00205978
0.0025307
-0.0024273
-0.00279219
2.22573e-06
6.79241e-05
8.18208e-06
0.000174833
1.7833e-05
0.000256
3.1391e-05
0.0003118
4.93241e-05
0.000343755
7.23573e-05
0.000353905
0.000101472
0.000344291
0.000137902
0.000316568
0.000183122
0.000271756
0.000238838
0.000210125
0.000306979
0.000131177
0.000389679
3.37064e-05
0.00048925
-8.40927e-05
0.000608117
-0.000224479
0.000748718
-0.000389973
0.000913339
-0.000583102
0.00110385
-0.000806074
0.00132141
-0.0010604
0.00156596
-0.00134624
0.00183612
-0.00166263
0.00212811
-0.00200459
0.00243729
-0.00236896
0.00275473
-0.00274474
-0.00311336
2.12156e-06
6.58026e-05
8.13021e-06
0.000168824
1.82177e-05
0.000245912
3.27624e-05
0.000297255
5.23599e-05
0.000324157
7.78488e-05
0.000328416
0.000110329
0.00031181
0.000151172
0.000275725
0.000202017
0.000220911
0.000264768
0.000147374
0.000341573
5.43719e-05
0.000434794
-5.95148e-05
0.000546946
-0.000196244
0.000680587
-0.00035812
0.000838147
-0.000547534
0.00102168
-0.000766632
0.0012325
-0.0010169
0.00147084
-0.00129874
0.00173531
-0.0016107
0.00202278
-0.0019501
0.00232776
-0.00230957
0.00264359
-0.0026848
0.00296031
-0.00306146
0.00327335
-0.0034264
-0.00381066
1.97533e-06
6.38272e-05
7.95889e-06
0.00016284
1.83978e-05
0.000235473
3.38617e-05
0.000281791
5.50993e-05
0.00030292
8.30902e-05
0.000300425
0.000119083
0.000275818
0.000164618
0.00023019
0.000221533
0.000163996
0.000291953
7.69537e-05
0.000378263
-3.19377e-05
0.00048304
-0.000164292
0.000608947
-0.000322152
0.000758559
-0.000507732
0.000934098
-0.000723072
0.00113709
-0.000969624
0.00136795
-0.00124776
0.00162554
-0.00155634
0.00190682
-0.00189198
0.0022067
-0.00224997
0.00251808
-0.00262095
0.00283265
-0.00299937
0.00314041
-0.00336922
0.00343693
-0.00372292
-0.00407626
1.79731e-06
6.20299e-05
7.70219e-06
0.000156935
1.84422e-05
0.000224733
3.48035e-05
0.00026543
5.77156e-05
0.000280008
8.83296e-05
0.000269811
0.000128077
0.000236071
0.000178701
0.000179566
0.00024227
0.000100427
0.00032115
-1.92634e-06
0.000417956
-0.000128744
0.000535435
-0.00028177
0.000676293
-0.00046301
0.000842928
-0.000674367
0.00103707
-0.000917219
0.00125937
-0.00119192
0.00150892
-0.00149731
0.00178289
-0.00183031
0.00207637
-0.00218546
0.00238236
-0.00255596
0.0026926
-0.00293119
0.00299784
-0.00330461
0.00328916
-0.00366054
0.00356252
-0.00399628
-0.00431523
1.59994e-06
6.043e-05
7.40137e-06
0.000151134
1.84346e-05
0.0002137
3.57276e-05
0.000248137
6.04196e-05
0.000255316
9.38672e-05
0.000236363
0.00013772
0.000192218
0.000193961
0.000123325
0.00026491
2.94781e-05
0.000353181
-9.01974e-05
0.000461578
-0.000237142
0.000592928
-0.00041312
0.0007498
-0.000619883
0.000934153
-0.000858719
0.00114688
-0.00112995
0.00138734
-0.00143239
0.00165297
-0.00176293
0.00193902
-0.00211636
0.00223877
-0.00248521
0.00254371
-0.0028609
0.00284512
-0.00323261
0.00313375
-0.00359324
0.00340279
-0.00392958
0.00364887
-0.00424236
-0.00452721
0.00386085
1.39757e-06
5.90324e-05
7.10382e-06
0.000145428
1.84715e-05
0.000202332
3.67947e-05
0.000229813
6.34534e-05
0.000228657
0.000100045
0.000199772
0.000148472
0.000143791
0.000210986
6.08106e-05
0.00029017
-4.9706e-05
0.000388859
-0.000188886
0.000509973
-0.000358255
0.000656252
-0.000559399
0.000829888
-0.000793518
0.00103206
-0.00106089
0.00126243
-0.00136032
0.00151873
-0.00168869
0.00179649
-0.00204069
0.00208909
-0.00240896
0.00238835
-0.00278446
0.00268497
-0.00315753
0.00297062
-0.00351825
0.00323701
-0.00385963
0.00348016
-0.00417273
0.00369749
-0.00445969
-0.00471396
0.00388424
1.20598e-06
5.78265e-05
6.86152e-06
0.000139772
1.86583e-05
0.000190536
3.81809e-05
0.000210291
6.70809e-05
0.000199757
0.00010723
0.000159623
0.000160817
9.02035e-05
0.000230377
-8.74989e-06
0.000318746
-0.000138075
0.000428916
-0.000299056
0.000563783
-0.000493123
0.000725783
-0.000721398
0.000916406
-0.000984142
0.00113568
-0.00128016
0.00138169
-0.00160633
0.00165028
-0.00195727
0.00193508
-0.0023255
0.00222793
-0.00270181
0.0025198
-0.00307634
0.00280154
-0.00343927
0.00306597
-0.00378268
0.00330662
-0.00410028
0.00352262
-0.00438872
0.003712
-0.00464908
-0.00487861
0.00387666
1.04176e-06
5.67847e-05
6.72898e-06
0.000134085
1.91059e-05
0.000178159
4.00703e-05
0.000189326
7.1575e-05
0.000168252
0.000115797
0.0001154
0.000175234
3.07672e-05
0.000252703
-8.6219e-05
0.000351245
-0.000236617
0.000473898
-0.000421709
0.00062334
-0.000642564
0.000801404
-0.000899463
0.00100853
-0.00119127
0.00124323
-0.00151486
0.00150174
-0.00186484
0.00177798
-0.00223352
0.00206398
-0.0026115
0.00235063
-0.00298845
0.00262886
-0.00335457
0.00289057
-0.00370098
0.00313032
-0.00402243
0.00334393
-0.00431389
0.0035334
-0.00457819
0.00369718
-0.00481286
-0.00502476
0.00384332
9.21551e-07
5.58631e-05
6.76089e-06
0.000128246
1.99249e-05
0.000164995
4.26455e-05
0.000166606
7.72035e-05
0.000133694
0.000126105
6.64985e-05
0.000192162
-3.52892e-05
0.000278446
-0.000172503
0.000388116
-0.000346287
0.000524088
-0.000557681
0.000688558
-0.000807034
0.000882426
-0.00109333
0.00110472
-0.00141356
0.00135215
-0.00176229
0.00161902
-0.00213171
0.00189757
-0.00251207
0.00217873
-0.00289265
0.00245323
-0.00326295
0.00271284
-0.00361418
0.00295123
-0.00393937
0.00316495
-0.00423615
0.00335223
-0.00450116
0.00351688
-0.00474284
0.00365773
-0.00495371
-0.00515638
0.00378935
8.61156e-07
5.5002e-05
7.00945e-06
0.000122097
2.12209e-05
0.000150783
4.60788e-05
0.000141748
8.42132e-05
9.55597e-05
0.000138472
1.22398e-05
0.000211965
-0.000108782
0.000307956
-0.000268494
0.000429588
-0.000467918
0.000579427
-0.00070752
0.00075888
-0.000986488
0.000967562
-0.00130201
0.00120278
-0.00164877
0.00145933
-0.00201884
0.00172972
-0.00240211
0.00200496
-0.00278731
0.00227563
-0.00316333
0.00253316
-0.00352048
0.00277084
-0.00385186
0.00298453
-0.00415307
0.0031728
-0.00442442
0.00333619
-0.00466456
0.00347844
-0.00488508
0.00359729
-0.00507256
-0.00527719
0.0037181
8.74746e-07
5.41272e-05
7.52186e-06
0.00011545
2.30885e-05
0.000135217
5.05225e-05
0.000114314
9.28154e-05
5.32668e-05
0.000153152
-4.80969e-05
0.0002349
-0.000190531
0.000341412
-0.000375006
0.000475623
-0.000602129
0.000639479
-0.000871376
0.000833262
-0.00118027
0.00105498
-0.00152374
0.00130005
-0.00189384
0.0015614
-0.00228018
0.00183015
-0.00267086
0.00209674
-0.0030539
0.00235222
-0.00341881
0.0025894
-0.00375766
0.00280358
-0.00406603
0.00299286
-0.00434235
0.00315765
-0.00458921
0.00330054
-0.00480745
0.0034248
-0.00500934
0.00353068
-0.00517844
-0.00537143
0.00362492
9.74221e-07
5.3153e-05
8.33801e-06
0.000108087
2.5607e-05
0.000117948
5.61003e-05
8.38206e-05
0.000103172
6.19533e-06
0.000170319
-0.000115244
0.000261093
-0.000281304
0.000378784
-0.000492698
0.00052589
-0.000749235
0.000703423
-0.00104891
0.000910216
-0.00138707
0.00114245
-0.00175597
0.00139361
-0.002145
0.00165507
-0.00254164
0.00191716
-0.00293295
0.00217052
-0.00330726
0.00240736
-0.00365565
0.00262238
-0.00397268
0.00281305
-0.0042567
0.00297949
-0.00450879
0.00312364
-0.00473335
0.00324922
-0.00493303
0.00335871
-0.00511884
0.00345862
-0.00527835
-0.00546012
0.00354731
1.16875e-06
5.19843e-05
9.48873e-06
9.97665e-05
2.88366e-05
9.85999e-05
6.29017e-05
4.97555e-05
0.000115386
-4.62889e-05
0.00019005
-0.000189907
0.000290518
-0.000381772
0.000419828
-0.000622008
0.000579762
-0.000909169
0.000770081
-0.00123923
0.000987902
-0.00160489
0.00122747
-0.00199553
0.00148056
-0.00239809
0.00173747
-0.00279856
0.00198844
-0.00318392
0.00222504
-0.00354386
0.0024412
-0.00387181
0.0026337
-0.00416519
0.00280206
-0.00442506
0.00294804
-0.00465477
0.00307467
-0.00485998
0.00318603
-0.00504439
0.00328517
-0.00521798
0.00337729
-0.00537047
-0.00554407
0.00346124
1.4645e-06
5.05198e-05
1.09948e-05
9.02362e-05
3.28165e-05
7.67782e-05
7.09775e-05
1.15944e-05
0.000129497
-0.000104808
0.000212319
-0.00027273
0.000322997
-0.00049245
0.000464082
-0.000763093
0.000636341
-0.00108143
0.000837992
-0.00144088
0.00106426
-0.00183115
0.00130754
-0.00223882
0.00155828
-0.00264883
0.00180636
-0.00304664
0.00204264
-0.0034202
0.00226019
-0.0037614
0.00245494
-0.00406656
0.00262573
-0.00433598
0.00277379
-0.00457312
0.00290206
-0.00478304
0.00301417
-0.00497209
0.00311426
-0.00514448
0.00320521
-0.00530893
0.00329179
-0.00545705
-0.00562554
0.00337326
1.86452e-06
4.86552e-05
1.28668e-05
7.9234e-05
3.75636e-05
5.20814e-05
8.03389e-05
-3.11809e-05
0.000145476
-0.000169945
0.000237001
-0.000364254
0.000358202
-0.000613652
0.000510885
-0.000915775
0.000694503
-0.00126505
0.000905498
-0.00165187
0.00113717
-0.00206283
0.00138034
-0.00248199
0.00162468
-0.00289316
0.00186032
-0.00328228
0.00207938
-0.00363926
0.00227679
-0.00395881
0.00245052
-0.00424029
0.00260121
-0.00448667
0.00273141
-0.00470331
0.00284474
-0.00489637
0.00294504
-0.00507239
0.0030362
-0.00523564
0.00312084
-0.00539357
0.00320297
-0.00553918
-0.00570415
0.00328158
2.36899e-06
4.62863e-05
1.51055e-05
6.64974e-05
4.30741e-05
2.41129e-05
9.09589e-05
-7.90657e-05
0.000163235
-0.000242222
0.000263867
-0.000464887
0.000395668
-0.000745452
0.000559408
-0.00107952
0.000752961
-0.0014586
0.000970857
-0.00186977
0.00120462
-0.00229659
0.00144391
-0.00272128
0.00167827
-0.00312752
0.00189875
-0.00350276
0.00209914
-0.00383964
0.00227636
-0.00413604
0.00243029
-0.00439421
0.00256298
-0.00461937
0.00267784
-0.00481817
0.0027788
-0.00499733
0.00286958
-0.00516317
0.00295365
-0.00531971
0.00303323
-0.00547315
0.00311165
-0.0056176
-0.00578033
0.00318783
2.97566e-06
4.33106e-05
1.77033e-05
5.17698e-05
4.93252e-05
-7.50904e-06
0.000102776
-0.000132516
0.000182624
-0.00032207
0.000292606
-0.000574869
0.000434809
-0.000887655
0.000608693
-0.0012534
0.000810336
-0.00166024
0.00103236
-0.0020918
0.00126481
-0.00252903
0.00149676
-0.00295324
0.00171826
-0.00334902
0.00192179
-0.00370629
0.00210304
-0.00402089
0.00226087
-0.00429387
0.00239673
-0.00453007
0.0025137
-0.00473634
0.00261564
-0.00492011
0.00270645
-0.00508814
0.00278954
-0.00524626
0.00286788
-0.00539805
0.00294329
-0.00554855
0.00301846
-0.00569277
-0.00585405
0.00309219
3.68048e-06
3.96301e-05
2.06456e-05
3.48046e-05
5.62782e-05
-4.31416e-05
0.000115697
-0.000191935
0.000203443
-0.000409817
0.000322828
-0.000694254
0.000474949
-0.00103978
0.000657696
-0.00143615
0.00086524
-0.00186779
0.00108845
-0.002315
0.00131631
-0.0027569
0.00153796
-0.00317489
0.00174451
-0.00355557
0.00193019
-0.00389197
0.00209264
-0.00418334
0.00223244
-0.00443368
0.00235224
-0.00464986
0.00245574
-0.00483984
0.00254691
-0.00501129
0.00262941
-0.00517064
0.00270622
-0.00532308
0.00277981
-0.00547163
0.00285159
-0.00562034
0.00292376
-0.00576494
-0.00592534
0.00299505
4.47829e-06
3.51518e-05
2.39128e-05
1.53701e-05
6.38813e-05
-8.31101e-05
0.000129604
-0.000257657
0.00022545
-0.000505663
0.000354079
-0.000822883
0.000515337
-0.00120103
0.000705341
-0.00162615
0.000916348
-0.00207879
0.00113777
-0.00253642
0.00135811
-0.00297724
0.00156712
-0.0033839
0.00175741
-0.00374586
0.00192513
-0.00405969
0.00206974
-0.00432795
0.00219321
-0.00455715
0.002299
-0.00475565
0.0023911
-0.00493194
0.00247333
-0.00509352
0.00254897
-0.00524628
0.00262055
-0.00539465
0.00269004
-0.00554112
0.00275854
-0.00568884
0.00282782
-0.00583422
-0.00599409
0.00289657
5.36336e-06
2.97885e-05
2.74815e-05
-6.74807e-06
7.20721e-05
-0.000127701
0.000144357
-0.000329942
0.000248361
-0.000609667
0.000385857
-0.000960379
0.000555187
-0.00137036
0.000750566
-0.00182153
0.000962475
-0.0022907
0.0011793
-0.00275324
0.00138962
-0.00318756
0.00158433
-0.00357861
0.0017578
-0.00391934
0.00190808
-0.00420997
0.0020362
-0.00445607
0.00214517
-0.00466611
0.0022389
-0.00484939
0.00232141
-0.00501445
0.0023962
-0.00516831
0.00246609
-0.00531618
0.00253317
-0.00546173
0.00259899
-0.00560695
0.00266439
-0.00575424
0.00273078
-0.0059006
-0.00606021
0.0027969
6.32985e-06
2.34586e-05
3.13259e-05
-3.17441e-05
8.07803e-05
-0.000177155
0.000159797
-0.000408959
0.000271867
-0.000721737
0.000417625
-0.00110614
0.000593698
-0.00154644
0.000792375
-0.00202021
0.00100263
-0.00250095
0.00121231
-0.00296293
0.00141066
-0.00338591
0.00159007
-0.00375802
0.0017468
-0.00407607
0.00188061
-0.00434378
0.0019938
-0.00456926
0.00209008
-0.00476239
0.00217354
-0.00493285
0.00224797
-0.00508887
0.00231648
-0.00523682
0.00238145
-0.00538114
0.00244453
-0.00552481
0.00250694
-0.00566936
0.00256931
-0.00581662
0.00263277
-0.00596406
-0.00612355
0.00269611
7.37209e-06
1.60865e-05
3.54185e-05
-5.97905e-05
8.99283e-05
-0.000231665
0.000175751
-0.000494781
0.00029563
-0.000841616
0.000448823
-0.00125933
0.000630091
-0.00172771
0.000829883
-0.00222
0.00103604
-0.00270712
0.00123645
-0.00316334
0.00142144
-0.00357089
0.00158515
-0.00392174
0.00172568
-0.00421659
0.00184428
-0.00446237
0.00194418
-0.00466916
0.00202948
-0.00484769
0.00210419
-0.00500756
0.00217177
-0.00515646
0.0022349
-0.00529995
0.00229552
-0.00544176
0.00235492
-0.00558422
0.00241407
-0.0057285
0.00247341
-0.00587596
0.00253386
-0.00602451
-0.00618398
0.00259429
8.48456e-06
7.60198e-06
3.973e-05
-9.10359e-05
9.94317e-05
-0.000291367
0.000192027
-0.000587376
0.000319293
-0.000968882
0.000478887
-0.00141892
0.000663633
-0.00191245
0.000862351
-0.00241872
0.00106222
-0.00290698
0.00125165
-0.00335277
0.00142244
-0.00374168
0.00157056
-0.00406986
0.00169579
-0.00434182
0.00180058
-0.00456716
0.00188879
-0.00475738
0.00196462
-0.00492351
0.00203186
-0.0050748
0.00209356
-0.00521816
0.00215197
-0.00535836
0.00220863
-0.00549842
0.00226456
-0.00564015
0.00232049
-0.00578443
0.00237677
-0.00593224
0.00243411
-0.00608186
-0.00624136
0.0024915
9.66179e-06
-2.05981e-06
4.42293e-05
-0.000125603
0.000109199
-0.000356337
0.000208424
-0.000686601
0.000342486
-0.00110294
0.000507266
-0.0015837
0.000693674
-0.00209886
0.000889212
-0.00261425
0.00108089
-0.00309866
0.00125811
-0.00352999
0.00141435
-0.00389792
0.00154739
-0.0042029
0.00165844
-0.00445288
0.00175087
-0.00465959
0.00182887
-0.00483538
0.00189654
-0.00499119
0.00195735
-0.0051356
0.0020139
-0.00527472
0.00206805
-0.00541251
0.00212101
-0.00555138
0.00217358
-0.00569271
0.0022263
-0.00583715
0.00227944
-0.00598538
0.00233359
-0.006136
-0.00629558
0.0023878
1.08981e-05
-1.29579e-05
4.88827e-05
-0.000163588
0.000119133
-0.000426587
0.000224727
-0.000792196
0.000364837
-0.00124305
0.000533441
-0.00175231
0.000719662
-0.00228508
0.000910085
-0.00280468
0.00109204
-0.00328062
0.00125627
-0.00369422
0.00139803
-0.00403968
0.00151676
-0.00432163
0.00161487
-0.00455099
0.00169633
-0.00474104
0.00176543
-0.00490448
0.00182605
-0.0050518
0.00188123
-0.00519079
0.00193319
-0.00532668
0.00198341
-0.00546272
0.00203283
-0.0056008
0.00208207
-0.00574195
0.00213156
-0.00588663
0.00218149
-0.00603532
0.00223234
-0.00618685
-0.0063465
0.00228326
1.21872e-05
-2.51451e-05
5.36536e-05
-0.000205055
0.000129125
-0.000502058
0.000240712
-0.000903783
0.000385974
-0.00138832
0.000556939
-0.00192327
0.000741169
-0.00246931
0.000924773
-0.00298828
0.00109584
-0.00345169
0.0012467
-0.00384507
0.00137437
-0.00416736
0.00147976
-0.00442702
0.0015662
-0.00463742
0.00163797
-0.00481282
0.00169932
-0.00496582
0.00175377
-0.00510625
0.00180397
-0.00524099
0.00185173
-0.00537444
0.00189822
-0.00550922
0.0019442
-0.00564678
0.00199012
-0.00578787
0.00203632
-0.00593283
0.00208296
-0.00608196
0.00213041
-0.00623431
-0.00639402
0.00217793
1.35219e-05
-3.8667e-05
5.85014e-05
-0.000250034
0.000139064
-0.000582621
0.00025615
-0.00102087
0.000405544
-0.00153771
0.000577356
-0.00209508
0.000757895
-0.00264985
0.000933251
-0.00316364
0.00109264
-0.00361108
0.0012301
-0.00398253
0.00134432
-0.00428158
0.00143743
-0.00452013
0.0015134
-0.00471339
0.00157666
-0.00487607
0.00163121
-0.00502037
0.0016802
-0.00515525
0.00172588
-0.00528666
0.00176971
-0.00541827
0.00181262
-0.00555213
0.00185519
-0.00568934
0.00189777
-0.00583045
0.00194063
-0.0059757
0.0019839
-0.00612523
0.00202787
-0.00627828
-0.00643804
0.00207189
1.4894e-05
-5.35611e-05
6.33815e-05
-0.000298521
0.000148829
-0.000668068
0.000270811
-0.00114285
0.00042322
-0.00169012
0.000594365
-0.00226623
0.000769672
-0.00282516
0.000935646
-0.00332961
0.00108291
-0.00375834
0.00120722
-0.00410684
0.00130878
-0.00438314
0.0013907
-0.00460205
0.00145733
-0.00478003
0.00151308
-0.00493182
0.00156162
-0.00506892
0.00160571
-0.00519934
0.00164721
-0.00532817
0.0016873
-0.00545836
0.00172671
-0.00559154
0.00176587
-0.0057285
0.00180507
-0.00586966
0.00184453
-0.00601516
0.00188435
-0.00616505
0.00192476
-0.00631868
-0.00647847
0.00196518
1.62938e-05
-6.98549e-05
6.82456e-05
-0.000350473
0.000158295
-0.000758118
0.00028447
-0.00126903
0.000438712
-0.00184436
0.000607725
-0.00243524
0.000776457
-0.00299389
0.00093221
-0.00348536
0.00106718
-0.00389331
0.0011788
-0.00421846
0.0012686
-0.00447293
0.00134038
-0.00467384
0.00139871
-0.00483836
0.0014478
-0.0049809
0.00149096
-0.00511208
0.00153057
-0.00523894
0.00156814
-0.00536574
0.00160462
-0.00549484
0.00164055
-0.00562747
0.0016763
-0.00576425
0.00171208
-0.00590544
0.00174808
-0.00605115
0.00178437
-0.00620134
0.00182114
-0.00635545
-0.00651522
0.00185789
1.77102e-05
-8.7565e-05
7.30414e-05
-0.000405804
0.000167336
-0.000852413
0.000296916
-0.00139861
0.000451777
-0.00199922
0.000617286
-0.00260075
0.000778322
-0.00315493
0.000923292
-0.00363033
0.00104605
-0.00401607
0.00114561
-0.00431802
0.00122456
-0.00455188
0.00128721
-0.00473649
0.00133814
-0.00488929
0.00138127
-0.00502404
0.00141957
-0.00515037
0.001455
-0.00527437
0.00148881
-0.00539955
0.00152174
-0.00552777
0.00155422
-0.00565995
0.00158652
-0.00579655
0.00161884
-0.00593776
0.00165132
-0.00608363
0.00168402
-0.00623403
0.00171708
-0.00638851
-0.00654822
0.00175008
1.91307e-05
-0.000106696
7.77143e-05
-0.000464388
0.000175826
-0.000950524
0.000307955
-0.00153073
0.000462225
-0.00215349
0.000622985
-0.00276151
0.000775431
-0.00330737
0.00090931
-0.00376421
0.00102015
-0.00412691
0.00110835
-0.00440623
0.00117736
-0.00462089
0.00123179
-0.00479092
0.00127609
-0.00493359
0.00131386
-0.00506181
0.00134767
-0.00518418
0.00137915
-0.00530586
0.00140932
-0.00542972
0.00143874
-0.00555719
0.00146776
-0.00568897
0.00149659
-0.00582538
0.0015254
-0.00596657
0.00155429
-0.00611253
0.00158334
-0.00626308
0.00161263
-0.0064178
-0.00657741
0.00164182
2.05418e-05
-0.000127238
8.22075e-05
-0.000526054
0.000183642
-0.00105196
0.000317418
-0.00166451
0.000469925
-0.002306
0.000624843
-0.00291643
0.000768028
-0.00345056
0.000890724
-0.00388691
0.000990065
-0.00422625
0.00106767
-0.00448384
0.00112762
-0.00468084
0.00117464
-0.00483794
0.00121297
-0.00497192
0.00124585
-0.00509468
0.00127545
-0.00521379
0.00130316
-0.00533357
0.00132975
-0.00545631
0.00135568
-0.00558311
0.00138121
-0.0057145
0.00140654
-0.00585071
0.00143179
-0.00599182
0.00145706
-0.0061378
0.00148239
-0.00628841
0.00150786
-0.00644327
-0.00660273
0.00153318
2.19289e-05
-0.000149166
8.64642e-05
-0.000590589
0.000190671
-0.00115616
0.000325166
-0.00179901
0.000474803
-0.00245563
0.00062295
-0.00306458
0.000756415
-0.00358402
0.000868016
-0.00399851
0.000956389
-0.00431462
0.00102417
-0.00455162
0.00107587
-0.00473254
0.0011162
-0.00487827
0.0011491
-0.00500482
0.00117744
-0.00512302
0.00120308
-0.00523942
0.00122711
-0.0053576