/*--------------------------------*- C++ -*----------------------------------*\
  =========                 |
  \\      /  F ield         | OpenFOAM: The Open Source CFD Toolbox
   \\    /   O peration     | Website:  https://openfoam.org
    \\  /    A nd           | Version:  7
     \\/     M anipulation  |
\*---------------------------------------------------------------------------*/
FoamFile
{
    version     2.0;
    format      ascii;
    class       volScalarField;
    location    "10";
    object      p;
}
// * * * * * * * * * * * * * * * * * * * * * * * * * * * * * * * * * * * * * //

dimensions      [0 2 -2 0 0 0 0];

internalField   nonuniform List<scalar> 
3313
(
-0.286522
-0.287902
-0.289502
-0.291358
-0.293531
-0.296213
-0.286783
-0.288136
-0.289708
-0.291529
-0.293655
-0.296323
-0.287263
-0.288559
-0.290069
-0.291817
-0.293847
-0.296477
-0.287887
-0.289088
-0.290496
-0.292128
-0.294007
-0.296557
-0.288561
-0.289621
-0.290876
-0.292343
-0.294015
-0.29641
-0.289192
-0.290057
-0.291099
-0.292347
-0.293759
-0.295834
-0.290322
-0.291089
-0.29206
-0.293186
-0.294636
-0.290389
-0.290824
-0.291424
-0.292121
-0.293516
-0.290335
-0.290507
-0.290704
-0.291739
-0.289717
-0.289419
-0.289022
-0.289385
-0.288337
-0.287264
-0.286566
-0.285687
-0.283464
-0.284385
-0.280254
-0.277305
-0.302077
-0.311235
-0.322865
-0.335503
-0.348822
-0.361583
-0.372615
-0.380499
-0.383852
-0.381094
-0.370787
-0.352327
-0.325367
-0.290548
-0.249535
-0.204921
-0.159568
-0.116278
-0.0770618
-0.0431874
-0.0151028
0.00737143
0.0247805
0.0378285
0.0472513
0.0537333
0.0578712
0.0601655
0.061025
0.0607796
0.0596915
0.0579706
0.0557784
0.0532467
0.0504684
0.0475288
0.0444698
0.0413558
0.038183
0.035021
0.0318101
0.0286628
0.0254263
0.0223232
0.0190188
0.0159803
0.0124975
0.00956023
0.00566882
0.00286515
-0.302408
-0.311479
-0.323161
-0.335874
-0.349302
-0.362206
-0.373412
-0.381494
-0.385066
-0.382564
-0.372544
-0.354327
-0.327555
-0.292831
-0.251791
-0.207057
-0.161506
-0.117987
-0.0785373
-0.0444523
-0.0161867
0.00644004
0.0239767
0.0371326
0.0466473
0.053208
0.0574137
0.0597662
0.0606759
0.0604738
0.0594228
0.0577338
0.0555691
0.0530614
0.0503038
0.0473825
0.0443396
0.0412399
0.0380798
0.0349292
0.0317287
0.0285904
0.0253628
0.0222667
0.0189706
0.0159371
0.0124639
0.00952847
0.00565148
0.00284294
-0.302979
-0.311869
-0.323647
-0.336499
-0.350127
-0.363296
-0.374825
-0.383285
-0.38727
-0.385257
-0.37578
-0.358039
-0.331646
-0.29713
-0.256065
-0.211129
-0.165239
-0.121312
-0.0814318
-0.0469396
-0.0183336
0.00458184
0.022367
0.0357356
0.0454331
0.0521515
0.0564933
0.0589633
0.0599742
0.0598592
0.0588831
0.0572585
0.0551494
0.0526898
0.0499741
0.0470894
0.044079
0.0410079
0.0378736
0.0347456
0.0315661
0.0284457
0.0252359
0.0221539
0.0188746
0.0158512
0.012397
0.00946565
0.00561706
0.00279978
-0.303631
-0.312243
-0.324143
-0.337172
-0.351058
-0.364578
-0.376542
-0.38552
-0.390074
-0.388739
-0.380017
-0.362965
-0.337142
-0.302977
-0.261941
-0.216789
-0.170538
-0.126081
-0.0856189
-0.0505598
-0.0215165
0.00180998
0.0199529
0.0336329
0.0436017
0.0505563
0.0551031
0.0577506
0.0589148
0.0589319
0.0580694
0.0565425
0.0545177
0.0521308
0.0494786
0.0466494
0.0436879
0.0406599
0.0375644
0.0344706
0.0313227
0.0282295
0.0250465
0.0219856
0.0187315
0.0157235
0.0122977
0.00937306
0.00556613
0.00273802
-0.304172
-0.312407
-0.324433
-0.337648
-0.351813
-0.365725
-0.378187
-0.387774
-0.393027
-0.392494
-0.384687
-0.368509
-0.343442
-0.309808
-0.268933
-0.223653
-0.177068
-0.132015
-0.0908669
-0.0552888
-0.0256787
-0.00184753
0.0167462
0.0308279
0.0411523
0.0484196
0.05324
0.0561253
0.0574953
0.0576901
0.0569805
0.0555851
0.0536736
0.0513847
0.0488177
0.0460629
0.0431669
0.0401969
0.0371532
0.0341053
0.0309995
0.0279427
0.0247955
0.0217632
0.0185425
0.0155556
0.0121671
0.0092526
0.00549947
0.0026608
-0.304461
-0.312167
-0.324321
-0.337698
-0.352122
-0.366424
-0.379402
-0.38964
-0.39567
-0.396022
-0.389243
-0.374094
-0.349965
-0.317083
-0.276541
-0.231358
-0.184262
-0.13881
-0.0971502
-0.0609567
-0.030741
-0.00634262
0.0127773
0.0273397
0.0380974
0.0457504
0.0509104
0.0540923
0.0557198
0.0561371
0.0556194
0.054389
0.0526197
0.0504539
0.0479938
0.0453322
0.0425185
0.0396208
0.0366421
0.0336514
0.0305984
0.0275871
0.0244847
0.0214885
0.0183093
0.0153493
0.0120067
0.0091066
0.00541815
0.00257169
-0.304436
-0.31136
-0.323673
-0.337151
-0.351775
-0.366429
-0.379901
-0.39079
-0.397625
-0.398908
-0.393236
-0.379242
-0.356228
-0.324321
-0.284085
-0.239177
-0.192132
-0.146316
-0.104189
-0.0674252
-0.0366049
-0.0116036
0.00809833
0.0232075
0.0344672
0.0425722
0.0481331
0.0516667
0.0536006
0.0542833
0.0539948
0.0529619
0.0513628
0.0493442
0.0470121
0.0444621
0.0417467
0.0389355
0.0360344
0.0331121
0.0301221
0.0271656
0.0241166
0.0211638
0.0180342
0.0151072
0.0118185
0.00893772
0.00532346
0.00247432
-0.303512
-0.310308
-0.322367
-0.33591
-0.350655
-0.365591
-0.379504
-0.391006
-0.398632
-0.400849
-0.396304
-0.383519
-0.361693
-0.330782
-0.291625
-0.247124
-0.200185
-0.154232
-0.111789
-0.0745455
-0.0431531
-0.0175395
0.00278076
0.018488
0.0303072
0.0389219
0.0449382
0.0488734
0.0511582
0.0521458
0.0521213
0.051316
0.0499136
0.0480651
0.0458808
0.0434599
0.0408579
0.0381468
0.0353352
0.032492
0.0295749
0.0266816
0.0236945
0.0207923
0.0177198
0.0148319
0.0116048
0.00874885
0.00521691
0.00237202
-0.302398
-0.308698
-0.320437
-0.333985
-0.348735
-0.363852
-0.378131
-0.390191
-0.398554
-0.40167
-0.398244
-0.386727
-0.366216
-0.336518
-0.298482
-0.25471
-0.20819
-0.162348
-0.119769
-0.0821667
-0.050263
-0.0240505
-0.00309387
0.0132484
0.0256732
0.034846
0.0413645
0.0457446
0.0484196
0.0497472
0.0500178
0.0494679
0.0482861
0.0466288
0.0446107
0.042335
0.0398607
0.037262
0.0345511
0.0317969
0.0289617
0.0261399
0.0232225
0.0203779
0.0173697
0.0145269
0.0113682
0.00854301
0.00510023
0.00226766
-0.301218
-0.306667
-0.317985
-0.331439
-0.346069
-0.36125
-0.375795
-0.388332
-0.397374
-0.401337
-0.398983
-0.388707
-0.369552
-0.341211
-0.304475
-0.261721
-0.215933
-0.170466
-0.127952
-0.0901337
-0.0577989
-0.0310191
-0.00942479
0.00757455
0.0206379
0.0304058
0.0374633
0.0423232
0.0454206
0.0471175
0.0477094
0.0474382
0.046498
0.0450503
0.0432149
0.0410986
0.0387648
0.0362898
0.0336897
0.0310335
0.0282886
0.0255457
0.0227052
0.0199246
0.0169872
0.0141955
0.0111115
0.00832304
0.00497521
0.00216349
-0.300111
-0.304423
-0.315136
-0.328385
-0.342763
-0.357874
-0.372567
-0.385478
-0.395111
-0.399844
-0.398476
-0.389397
-0.371595
-0.344699
-0.309431
-0.267951
-0.223172
-0.178342
-0.136102
-0.0982187
-0.0655516
-0.0382598
-0.0160521
0.00160101
0.015313
0.025693
0.0333093
0.0386696
0.0422099
0.044296
0.0452281
0.0452534
0.0445708
0.0433475
0.0417082
0.0397635
0.0375811
0.0352395
0.032759
0.0302087
0.0275614
0.0249042
0.022147
0.0194363
0.0165758
0.0138406
0.0108371
0.0080914
0.00484335
0.0020609
-0.2992
-0.302126
-0.312022
-0.324945
-0.338943
-0.353839
-0.368546
-0.381711
-0.391821
-0.397232
-0.396735
-0.388766
-0.372291
-0.346873
-0.313174
-0.273178
-0.229656
-0.185715
-0.143966
-0.106194
-0.0733245
-0.0456099
-0.0228455
-0.00456937
0.00977921
0.020771
0.0289527
0.0348242
0.0388209
0.0413108
0.0425984
0.0429357
0.0425251
0.0415388
0.0401069
0.0383441
0.0363222
0.0341223
0.0317689
0.0293313
0.0267879
0.0242221
0.0215538
0.0189184
0.0161397
0.0134664
0.0105482
0.00785101
0.00470654
0.00196057
-0.29841
-0.299977
-0.308825
-0.321254
-0.334731
-0.349264
-0.363845
-0.377133
-0.387597
-0.393506
-0.393805
-0.386871
-0.371712
-0.347859
-0.315894
-0.277647
-0.235699
-0.19296
-0.151962
-0.114488
-0.0815295
-0.0534444
-0.0301303
-0.011207
0.00382061
0.0154734
0.0242694
0.0306982
0.0351931
0.0381242
0.0397993
0.0404766
0.0403624
0.0396329
0.0384243
0.0368561
0.0350052
0.0329556
0.0307365
0.0284177
0.0259835
0.023514
0.0209388
0.0183827
0.0156895
0.013082
0.0102524
0.0076085
0.00457043
0.00186449
-0.297584
-0.298047
-0.305841
-0.317489
-0.330187
-0.344113
-0.358358
-0.371608
-0.382491
-0.388465
-0.389548
-0.383727
-0.37009
-0.348134
-0.318327
-0.282266
-0.242312
-0.201108
-0.16107
-0.123985
-0.0909278
-0.0623905
-0.0384049
-0.0186953
-0.00284813
0.00959599
0.0191194
0.0261991
0.0312688
0.0347024
0.0368133
0.0378672
0.0380797
0.0376324
0.0366674
0.0353099
0.0336426
0.031753
0.0296761
0.0274822
0.0251622
0.0227928
0.0203142
0.0178402
0.0152356
0.0126958
0.00995812
0.00736883
0.00444289
0.00177582
-0.295653
-0.294532
-0.302363
-0.313343
-0.32519
-0.338301
-0.35194
-0.364795
-0.375863
-0.382255
-0.383696
-0.3787
-0.366349
-0.346071
-0.318216
-0.284166
-0.246046
-0.206318
-0.167301
-0.130806
-0.097944
-0.0692898
-0.0449826
-0.0248243
-0.00845527
0.00453087
0.0145755
0.0221362
0.0276426
0.0314693
0.0339308
0.0352966
0.035787
0.0355891
0.0348475
0.0336885
0.0321992
0.0304672
0.0285339
0.0264666
0.0242662
0.0220004
0.0196266
0.0172385
0.0147331
0.0122645
0.00963238
0.00710014
0.00430489
0.00168314
-0.263316
-0.266239
-0.278205
-0.291185
-0.304039
-0.317206
-0.33067
-0.343469
-0.354043
-0.360861
-0.362087
-0.357148
-0.345421
-0.326626
-0.30119
-0.270334
-0.235909
-0.200025
-0.164675
-0.131448
-0.101418
-0.0751503
-0.0527569
-0.0339979
-0.0184774
-0.00587247
0.00412504
0.0118655
0.0177124
0.0219983
0.0250053
0.0269637
0.0280626
0.0284636
0.0283032
0.0276974
0.0267369
0.0254985
0.0240373
0.0224041
0.0206283
0.0187455
0.0167657
0.0147188
0.0125991
0.0104377
0.00821259
0.005961
0.00363992
0.00129045
-0.230485
-0.246123
-0.25624
-0.263938
-0.271049
-0.278012
-0.284378
-0.289156
-0.291412
-0.29082
-0.28706
-0.279567
-0.267887
-0.252162
-0.233007
-0.211292
-0.188002
-0.164119
-0.140543
-0.118022
-0.0971108
-0.078156
-0.0613197
-0.0466666
-0.0341704
-0.0236155
-0.0147387
-0.00733987
-0.0012816
0.00356722
0.00736736
0.010283
0.0124515
0.0139838
0.0149743
0.0155092
0.0156608
0.0154902
0.015045
0.0143698
0.0134988
0.0124663
0.0112942
0.010008
0.00862185
0.00715506
0.00561826
0.0040275
0.00240152
0.000767946
-0.19554
-0.20721
-0.213598
-0.21734
-0.22039
-0.223498
-0.226582
-0.229145
-0.230601
-0.230272
-0.227293
-0.221504
-0.213265
-0.202849
-0.190444
-0.176336
-0.161012
-0.144985
-0.128712
-0.11262
-0.0971046
-0.0824971
-0.0690318
-0.0568432
-0.0459715
-0.0363763
-0.0279805
-0.0207043
-0.0144668
-0.00918446
-0.00478083
-0.00117266
0.00173115
0.00401752
0.00576318
0.00703948
0.00791375
0.00844576
0.00868329
0.0086658
0.00842773
0.00800254
0.00741784
0.00670037
0.00587103
0.00495282
0.00396136
0.00291547
0.00181795
0.000665758
-0.15826
-0.169412
-0.175494
-0.178948
-0.181741
-0.18456
-0.187207
-0.18907
-0.189531
-0.188258
-0.1853
-0.180698
-0.174519
-0.166871
-0.157892
-0.147747
-0.1366
-0.124727
-0.112508
-0.100328
-0.0885026
-0.0772557
-0.0667297
-0.0570086
-0.048139
-0.0401392
-0.0329972
-0.0266765
-0.0211298
-0.0163112
-0.0121744
-0.00866447
-0.00571815
-0.00327381
-0.00127798
0.00031596
0.00155184
0.00247222
0.00311805
0.003527
0.00373243
0.0037619
0.00364149
0.00339188
0.00303584
0.00258814
0.0020712
0.00149379
0.000885136
0.00025639
-0.129287
-0.138904
-0.144651
-0.148103
-0.150597
-0.1527
-0.154375
-0.155328
-0.155308
-0.154194
-0.151902
-0.14845
-0.143891
-0.13829
-0.131732
-0.124329
-0.116233
-0.107658
-0.0988533
-0.0900384
-0.0813766
-0.0729913
-0.0649756
-0.057399
-0.0503148
-0.0437584
-0.0377439
-0.0322692
-0.0273246
-0.0228963
-0.0189653
-0.0155061
-0.012488
-0.00987863
-0.00764607
-0.00575879
-0.00418371
-0.00288794
-0.0018397
-0.00101181
-0.00037779
8.47059e-05
0.000400597
0.000587556
0.000669603
0.000658119
0.000579983
0.000439226
0.000272075
7.18601e-05
-0.106979
-0.114892
-0.119881
-0.122983
-0.125156
-0.126877
-0.128214
-0.129017
-0.129094
-0.128305
-0.126624
-0.124073
-0.120698
-0.116561
-0.11174
-0.106326
-0.10043
-0.0941805
-0.0877117
-0.0811391
-0.0745516
-0.0680209
-0.0616273
-0.0554597
-0.049593
-0.0440746
-0.0389291
-0.0341681
-0.0297955
-0.02581
-0.0222055
-0.0189709
-0.0160894
-0.0135403
-0.0113006
-0.00934706
-0.00765586
-0.00620446
-0.00496925
-0.00392918
-0.00306135
-0.00234765
-0.00176585
-0.00130202
-0.000933124
-0.000650528
-0.000427377
-0.000264212
-0.00012941
-4.79459e-05
-0.0891612
-0.0956756
-0.0998737
-0.10257
-0.104505
-0.10605
-0.107256
-0.108014
-0.108183
-0.107678
-0.106485
-0.104629
-0.102154
-0.0991131
-0.0955667
-0.0915781
-0.0872151
-0.0825469
-0.0776423
-0.0725772
-0.0674333
-0.0622908
-0.0572242
-0.0522978
-0.0475601
-0.0430438
-0.0387721
-0.0347632
-0.0310301
-0.0275778
-0.0244039
-0.0215013
-0.0188604
-0.01647
-0.0143166
-0.0123865
-0.0106644
-0.00913576
-0.00778335
-0.00659288
-0.00554669
-0.00463259
-0.00383152
-0.00313466
-0.00252018
-0.00198555
-0.00150292
-0.00107926
-0.000669581
-0.000284535
-0.0750321
-0.0803564
-0.0838747
-0.086214
-0.0879445
-0.0893476
-0.0904586
-0.0911925
-0.0914495
-0.0911707
-0.0903536
-0.0890272
-0.0872272
-0.084991
-0.0823589
-0.079374
-0.076081
-0.0725268
-0.0687639
-0.0648533
-0.0608609
-0.0568476
-0.0528627
-0.0489437
-0.0451214
-0.0414239
-0.0378753
-0.0344946
-0.0312942
-0.0282814
-0.0254603
-0.0228331
-0.0203989
-0.018155
-0.0160952
-0.0142125
-0.0124969
-0.010939
-0.00952658
-0.00824986
-0.00709494
-0.00605317
-0.00510849
-0.00425482
-0.00347244
-0.00276013
-0.002091
-0.00147275
-0.000867304
-0.000305719
-0.063652
-0.0680344
-0.0709801
-0.0729897
-0.0745132
-0.0757705
-0.0767874
-0.0774975
-0.0778266
-0.0777333
-0.0772123
-0.0762861
-0.0749851
-0.073338
-0.0713739
-0.0691239
-0.0666223
-0.0639063
-0.0610172
-0.0579986
-0.0548931
-0.0517383
-0.0485653
-0.0454025
-0.0422781
-0.039219
-0.0362479
-0.0333822
-0.030635
-0.0280172
-0.0255365
-0.0231979
-0.0210031
-0.0189518
-0.0170407
-0.0152662
-0.0136219
-0.0121025
-0.0106993
-0.00940595
-0.00821111
-0.00710914
-0.006086
-0.00513877
-0.00424923
-0.00342002
-0.00262575
-0.00187927
-0.00113993
-0.000431517
-0.0544072
-0.0580323
-0.0605034
-0.0622267
-0.0635643
-0.064691
-0.0656244
-0.0663082
-0.0666825
-0.0667244
-0.0664191
-0.0657864
-0.064853
-0.0636425
-0.0621764
-0.060478
-0.0585732
-0.05649
-0.0542569
-0.0519024
-0.0494539
-0.0469377
-0.0443805
-0.0418089
-0.0392476
-0.036718
-0.0342379
-0.0318221
-0.0294827
-0.0272298
-0.0250705
-0.02301
-0.021051
-0.019195
-0.0174414
-0.0157893
-0.0142353
-0.0127767
-0.0114073
-0.0101235
-0.00891685
-0.00778446
-0.00671493
-0.00570777
-0.00474713
-0.00383745
-0.00295495
-0.00211276
-0.00127183
-0.000460689
-0.0468208
-0.0498388
-0.0519219
-0.0534035
-0.0545789
-0.0555889
-0.0564464
-0.0571041
-0.0575093
-0.0576207
-0.0574621
-0.0570459
-0.0563864
-0.0555011
-0.0544071
-0.0531217
-0.0516636
-0.0500522
-0.0483077
-0.0464504
-0.0445014
-0.0424831
-0.0404179
-0.038327
-0.0362282
-0.0341369
-0.0320665
-0.0300292
-0.0280356
-0.0260943
-0.0242126
-0.022396
-0.0206485
-0.0189735
-0.0173719
-0.0158446
-0.0143899
-0.0130071
-0.0116923
-0.0104439
-0.00925559
-0.00812641
-0.00704677
-0.0060179
-0.00502558
-0.00407575
-0.00314647
-0.00225271
-0.00135848
-0.000493224
-0.0405386
-0.043068
-0.0448331
-0.0461103
-0.0471421
-0.0480426
-0.0488194
-0.0494321
-0.0498384
-0.0500169
-0.0499692
-0.0497093
-0.0492519
-0.0486091
-0.047793
-0.0468164
-0.0456931
-0.0444378
-0.0430658
-0.0415934
-0.0400376
-0.0384157
-0.0367438
-0.0350366
-0.033307
-0.0315671
-0.029828
-0.0281007
-0.0263944
-0.0247175
-0.0230765
-0.0214773
-0.0199241
-0.0184204
-0.0169681
-0.0155688
-0.014222
-0.0129283
-0.0116849
-0.0104918
-0.00934391
-0.00824168
-0.00717703
-0.00615247
-0.00515547
-0.00419315
-0.00324552
-0.00232812
-0.0014066
-0.000508982
-0.0352939
-0.037427
-0.0389305
-0.0400353
-0.0409421
-0.0417442
-0.0424469
-0.0430161
-0.043417
-0.0436313
-0.0436595
-0.0435118
-0.0432008
-0.0427366
-0.0421279
-0.041384
-0.0405154
-0.0395337
-0.0384508
-0.0372791
-0.0360311
-0.0347191
-0.0333547
-0.0319489
-0.0305126
-0.0290563
-0.0275896
-0.0261214
-0.0246596
-0.0232111
-0.0217817
-0.0203765
-0.0189996
-0.0176544
-0.016343
-0.0150677
-0.0138287
-0.0126273
-0.0114618
-0.0103331
-0.00923722
-0.00817577
-0.007142
-0.00613937
-0.00515693
-0.0042024
-0.00325762
-0.00233818
-0.00141241
-0.000508244
-0.0308824
-0.0326917
-0.0339792
-0.0349385
-0.035737
-0.0364516
-0.0370859
-0.0376107
-0.0379969
-0.0382294
-0.0383078
-0.03824
-0.0380358
-0.0377038
-0.0372508
-0.0366837
-0.0360103
-0.0352394
-0.0343798
-0.0334408
-0.0324317
-0.0313617
-0.0302401
-0.029076
-0.0278785
-0.0266559
-0.0254158
-0.0241651
-0.02291
-0.0216563
-0.0204091
-0.0191731
-0.017952
-0.0167493
-0.0155671
-0.0144081
-0.0132729
-0.0121633
-0.0110782
-0.0100193
-0.00898362
-0.00797327
-0.00698264
-0.00601576
-0.005063
-0.00413241
-0.00320759
-0.002304
-0.00139262
-0.000500114
-0.0271465
-0.0286895
-0.0297974
-0.0306335
-0.031338
-0.0319748
-0.0325459
-0.0330264
-0.0333918
-0.0336302
-0.03374
-0.0337281
-0.0336018
-0.0333679
-0.033032
-0.0325991
-0.032075
-0.031466
-0.0307792
-0.0300215
-0.0292002
-0.0283227
-0.0273964
-0.0264285
-0.0254258
-0.0243946
-0.0233409
-0.0222704
-0.0211882
-0.0200994
-0.0190085
-0.0179197
-0.0168362
-0.0157614
-0.0146975
-0.0136469
-0.0126107
-0.0115908
-0.0105867
-0.00960028
-0.00862934
-0.00767638
-0.00673668
-0.00581458
-0.00490166
-0.00400603
-0.00311299
-0.00223748
-0.00135298
-0.000484677
-0.023963
-0.0252853
-0.0262429
-0.0269741
-0.0275969
-0.0281644
-0.0286781
-0.0291166
-0.0294588
-0.029693
-0.0298197
-0.0298445
-0.0297746
-0.0296143
-0.0293667
-0.0290357
-0.0286259
-0.0281423
-0.0275903
-0.0269755
-0.0263034
-0.0255799
-0.0248105
-0.0240007
-0.0231557
-0.0222807
-0.0213806
-0.0204601
-0.0195238
-0.0185757
-0.0176197
-0.0166593
-0.0156974
-0.0147372
-0.0137805
-0.0128299
-0.0118864
-0.0109522
-0.0100269
-0.00911272
-0.00820791
-0.00731524
-0.00643073
-0.00555888
-0.00469232
-0.00383903
-0.00298585
-0.00214706
-0.0012986
-0.000464132
-0.0212356
-0.0223735
-0.0232044
-0.0238457
-0.024397
-0.0249027
-0.0253636
-0.0257613
-0.026078
-0.0263047
-0.0264407
-0.0264907
-0.02646
-0.0263524
-0.0261704
-0.0259169
-0.0255951
-0.025209
-0.0247627
-0.0242606
-0.023707
-0.0231063
-0.0224628
-0.0217809
-0.0210647
-0.0203185
-0.0195462
-0.0187518
-0.0179388
-0.0171109
-0.016271
-0.0154223
-0.0145673
-0.0137088
-0.0128488
-0.0119894
-0.0111317
-0.010278
-0.00942809
-0.00858429
-0.0077452
-0.00691369
-0.00608643
-0.00526789
-0.00445163
-0.00364536
-0.00283734
-0.00204104
-0.00123477
-0.000440461
-0.0188869
-0.0198698
-0.0205932
-0.021157
-0.0216455
-0.0220962
-0.0225092
-0.0228689
-0.0231604
-0.0233759
-0.0235146
-0.0235802
-0.0235765
-0.0235071
-0.023374
-0.0231793
-0.0229253
-0.022615
-0.0222518
-0.0218387
-0.0213794
-0.0208772
-0.0203356
-0.019758
-0.0191477
-0.0185082
-0.0178425
-0.0171539
-0.0164453
-0.0157197
-0.0149798
-0.0142281
-0.0134671
-0.012699
-0.0119256
-0.0111491
-0.0103705
-0.00959183
-0.00881323
-0.00803692
-0.00726183
-0.00649082
-0.00572106
-0.00495692
-0.00419278
-0.00343595
-0.00267603
-0.00192558
-0.00116511
-0.000414821
-0.0168555
-0.0177071
-0.0183386
-0.0188352
-0.0192686
-0.0196701
-0.0200398
-0.0203642
-0.0206306
-0.0208324
-0.020969
-0.0210431
-0.021058
-0.0210162
-0.0209195
-0.0207694
-0.0205677
-0.0203166
-0.0200187
-0.0196765
-0.0192928
-0.0188701
-0.0184114
-0.0179192
-0.0173962
-0.0168452
-0.0162685
-0.015669
-0.015049
-0.014411
-0.0137573
-0.0130903
-0.0124117
-0.0117239
-0.0110282
-0.0103267
-0.00962043
-0.00891123
-0.00819935
-0.00748694
-0.00677317
-0.00606082
-0.0053475
-0.0046374
-0.00392561
-0.00321901
-0.00250839
-0.00180534
-0.00109247
-0.000388238
-0.0150917
-0.0158314
-0.0163839
-0.016822
-0.0172066
-0.0175643
-0.0178948
-0.0181866
-0.0184287
-0.0186155
-0.0187462
-0.0188241
-0.0188508
-0.0188287
-0.0187591
-0.0186429
-0.0184815
-0.0182767
-0.0180305
-0.0177449
-0.0174219
-0.0170638
-0.0166727
-0.0162507
-0.0157999
-0.0153226
-0.0148207
-0.0142965
-0.013752
-0.0131893
-0.0126102
-0.0120169
-0.0114109
-0.0107942
-0.0101681
-0.00953431
-0.00889387
-0.00824855
-0.00759864
-0.00694615
-0.00629046
-0.00563421
-0.00497541
-0.00431798
-0.00365766
-0.00300085
-0.00233941
-0.00168399
-0.0010191
-0.000361502
-0.0135543
-0.0141982
-0.0146825
-0.0150694
-0.0154108
-0.0157293
-0.0160244
-0.0162863
-0.0165056
-0.0166777
-0.0168018
-0.0168788
-0.0169119
-0.0169031
-0.0168531
-0.0167625
-0.0166322
-0.0164637
-0.0162585
-0.0160182
-0.0157443
-0.0154387
-0.015103
-0.014739
-0.0143483
-0.0139326
-0.0134938
-0.0130336
-0.0125536
-0.0120557
-0.0115414
-0.0110124
-0.0104703
-0.0099166
-0.00935259
-0.00877986
-0.00819923
-0.00761241
-0.0070197
-0.006423
-0.00582183
-0.00521868
-0.00461185
-0.00400501
-0.00339448
-0.00278613
-0.0021728
-0.00156422
-0.000946629
-0.000335176
-0.0122096
-0.0127712
-0.0131963
-0.0135382
-0.0138413
-0.0141246
-0.0143877
-0.014622
-0.0148196
-0.0149764
-0.0150917
-0.0151668
-0.0152037
-0.0152038
-0.0151679
-0.0150965
-0.0149903
-0.0148503
-0.0146776
-0.0144737
-0.0142397
-0.0139771
-0.013687
-0.0133711
-0.0130305
-0.0126668
-0.0122814
-0.0118757
-0.011451
-0.011009
-0.010551
-0.0100784
-0.00959243
-0.00909469
-0.00858617
-0.00806834
-0.00754193
-0.00700849
-0.00646835
-0.00592328
-0.00537291
-0.00481956
-0.0042618
-0.00370301
-0.00314002
-0.00257818
-0.00201124
-0.00144798
-0.000876252
-0.000309675
-0.0110299
-0.0115204
-0.0118939
-0.0121963
-0.0124652
-0.012717
-0.0129512
-0.0131604
-0.0133377
-0.0134797
-0.0135858
-0.0136572
-0.0136952
-0.0137009
-0.013675
-0.013618
-0.0135304
-0.0134127
-0.0132661
-0.0130915
-0.01289
-0.0126626
-0.0124105
-0.0121346
-0.0118361
-0.0115163
-0.0111762
-0.0108171
-0.0104401
-0.0100465
-0.00963749
-0.00921429
-0.008778
-0.0083299
-0.00787093
-0.00740242
-0.00692505
-0.0064402
-0.00594819
-0.00545067
-0.00494736
-0.00444041
-0.0039286
-0.00341505
-0.002897
-0.00237933
-0.00185657
-0.00133662
-0.000808803
-0.000285284
-0.00999205
-0.0104209
-0.0107494
-0.0110168
-0.0112554
-0.011479
-0.0116871
-0.0118733
-0.0120318
-0.0121597
-0.0122563
-0.0123227
-0.01236
-0.0123691
-0.0123502
-0.0123039
-0.0122305
-0.0121306
-0.0120049
-0.0118541
-0.0116792
-0.0114809
-0.0112601
-0.0110178
-0.0107549
-0.0104723
-0.0101709
-0.0098518
-0.00951597
-0.00916446
-0.00879826
-0.00841846
-0.00802601
-0.00762202
-0.00720732
-0.0067831
-0.00634998
-0.00590925
-0.00546119
-0.0050073
-0.00454738
-0.0040834
-0.00361436
-0.00314307
-0.00266718
-0.00219107
-0.00171
-0.00123104
-0.000744833
-0.000262192
-0.00907683
-0.00945214
-0.00974117
-0.00997758
-0.010189
-0.0103874
-0.010572
-0.0107375
-0.0108787
-0.0109932
-0.0110804
-0.0111409
-0.0111762
-0.0111865
-0.0111725
-0.0111343
-0.011072
-0.0109861
-0.0108771
-0.0107458
-0.0105927
-0.0104186
-0.0102242
-0.0100102
-0.00977726
-0.00952632
-0.00925811
-0.00897349
-0.0086733
-0.00835844
-0.00802973
-0.00768814
-0.00733445
-0.00696968
-0.00659455
-0.0062101
-0.0058169
-0.00541612
-0.00500806
-0.00459408
-0.00417402
-0.00374967
-0.0033202
-0.00288817
-0.00245155
-0.0020143
-0.00157227
-0.00113178
-0.000684674
-0.000240508
-0.00826803
-0.0085966
-0.00885095
-0.00905992
-0.00924722
-0.00942288
-0.00958639
-0.00973301
-0.00985842
-0.00996041
-0.0100386
-0.0100936
-0.0101258
-0.0101361
-0.010125
-0.0100925
-0.0100387
-0.00996378
-0.00986833
-0.00975285
-0.00961786
-0.00946392
-0.00929158
-0.00910144
-0.00889413
-0.00867031
-0.00843062
-0.00817581
-0.00790657
-0.00762371
-0.00732791
-0.00701999
-0.00670064
-0.00637076
-0.00603099
-0.00568225
-0.00532505
-0.00496042
-0.00458868
-0.00421107
-0.0038275
-0.00343956
-0.00304656
-0.00265081
-0.00225058
-0.00184941
-0.00144373
-0.00103911
-0.000628494
-0.000220286
-0.00755193
-0.00783964
-0.00806343
-0.00824805
-0.00841375
-0.00856909
-0.00871357
-0.00884311
-0.008954
-0.00904433
-0.00911378
-0.0091628
-0.00919188
-0.00920159
-0.00919213
-0.00916363
-0.00911623
-0.00905013
-0.00896564
-0.00886317
-0.00874317
-0.00860609
-0.00845239
-0.00828257
-0.00809711
-0.00789656
-0.00768152
-0.00745259
-0.00721035
-0.00695546
-0.00668856
-0.00641037
-0.00612148
-0.00582266
-0.00551448
-0.00519776
-0.00487298
-0.00454106
-0.00420226
-0.00385773
-0.00350744
-0.00315283
-0.00279332
-0.00243097
-0.00206431
-0.00169648
-0.00132444
-0.000953091
-0.000576337
-0.000201534
-0.00691691
-0.0071688
-0.00736562
-0.00752857
-0.00767497
-0.00781208
-0.00793944
-0.00805355
-0.00815119
-0.00823075
-0.00829194
-0.00833511
-0.00836071
-0.0083691
-0.00836045
-0.00833482
-0.00829234
-0.00823318
-0.00815759
-0.0080659
-0.00795844
-0.00783557
-0.00769765
-0.00754511
-0.00737839
-0.00719797
-0.00700429
-0.00679787
-0.0065792
-0.00634886
-0.0061074
-0.00585547
-0.00559359
-0.00532243
-0.00504249
-0.00475451
-0.00445889
-0.00415649
-0.00384755
-0.00353308
-0.00321308
-0.00288886
-0.00255998
-0.00222826
-0.00189246
-0.00155533
-0.00121429
-0.000873636
-0.000528153
-0.000184231
-0.00635301
-0.00657344
-0.00674644
-0.0068901
-0.00701924
-0.00714001
-0.00725199
-0.00735216
-0.00743778
-0.00750743
-0.00756085
-0.00759834
-0.00762031
-0.00762694
-0.00761845
-0.00759485
-0.00755617
-0.00750255
-0.00743421
-0.00735139
-0.0072544
-0.00714354
-0.00701911
-0.00688146
-0.00673092
-0.00656786
-0.00639269
-0.00620587
-0.00600786
-0.00579915
-0.00558021
-0.00535153
-0.0051136
-0.00486705
-0.00461233
-0.00435006
-0.00408066
-0.00380488
-0.00352294
-0.00323574
-0.0029433
-0.00264678
-0.00234584
-0.00204209
-0.00173454
-0.00142557
-0.001113
-0.000800566
-0.000483833
-0.000168332
-0.00585171
-0.00604448
-0.00619639
-0.00632288
-0.00643657
-0.0065427
-0.00664088
-0.00672849
-0.00680321
-0.0068638
-0.00691004
-0.00694214
-0.00696026
-0.0069649
-0.00695604
-0.00693377
-0.00689806
-0.00684895
-0.0067866
-0.00671125
-0.00662312
-0.00652246
-0.00640953
-0.00628459
-0.00614799
-0.00600005
-0.00584108
-0.00567145
-0.00549156
-0.00530184
-0.00510272
-0.00489465
-0.00467805
-0.00445343
-0.00422121
-0.00398199
-0.00373612
-0.00348426
-0.00322667
-0.00296414
-0.00269673
-0.00242544
-0.00214998
-0.00187176
-0.00158997
-0.00130673
-0.00102021
-0.000733622
-0.00044323
-0.00015378
-0.00540567
-0.00557409
-0.00570732
-0.00581851
-0.0059184
-0.00601142
-0.00609721
-0.00617354
-0.00623839
-0.00629072
-0.00633033
-0.00635737
-0.00637208
-0.00637459
-0.00636507
-0.0063435
-0.00630992
-0.00626438
-0.00620694
-0.0061378
-0.00605715
-0.00596521
-0.00586218
-0.00574829
-0.00562379
-0.00548895
-0.00534409
-0.00518954
-0.00502563
-0.00485272
-0.00467113
-0.00448132
-0.00428367
-0.00407862
-0.00386652
-0.0036479
-0.00342306
-0.00319261
-0.00295685
-0.00271666
-0.00247193
-0.00222352
-0.00197129
-0.00171639
-0.00145811
-0.00119831
-0.000935515
-0.000672505
-0.000406161
-0.000140509
-0.00500856
-0.00515553
-0.0052722
-0.00536976
-0.00545731
-0.00553859
-0.00561328
-0.00567946
-0.00573541
-0.00578023
-0.00581374
-0.00583608
-0.00584743
-0.00584787
-0.0058375
-0.00581635
-0.0057844
-0.00574169
-0.00568832
-0.00562441
-0.00555011
-0.0054656
-0.00537106
-0.00526671
-0.00515271
-0.00502934
-0.00489688
-0.00475559
-0.00460575
-0.00444768
-0.00428171
-0.00410818
-0.0039274
-0.00373975
-0.00354556
-0.0033453
-0.00313933
-0.00292786
-0.00271077
-0.00249171
-0.00226768
-0.00203971
-0.0018088
-0.0015751
-0.00133821
-0.00109974
-0.00085852
-0.000616936
-0.000372444
-0.000128443
-0.00465488
-0.00478294
-0.00488495
-0.00497037
-0.0050469
-0.00511768
-0.00518243
-0.00523951
-0.00528744
-0.00532547
-0.00535341
-0.00537139
-0.00537954
-0.00537794
-0.00536664
-0.00534564
-0.0053149
-0.00527448
-0.00522447
-0.00516497
-0.00509609
-0.00501799
-0.0049308
-0.00483471
-0.00472992
-0.00461663
-0.00449505
-0.00436543
-0.00422802
-0.0040831
-0.00393096
-0.0037719
-0.00360617
-0.00343409
-0.00325593
-0.00307194
-0.00288435
-0.00269186
-0.00249522
-0.00229207
-0.00208563
-0.00187637
-0.00166313
-0.00144778
-0.00122977
-0.00101042
-0.000788702
-0.000566557
-0.000341884
-0.000117515
-0.00433987
-0.00445126
-0.00454028
-0.0046149
-0.0046816
-0.00474302
-0.00479889
-0.00484782
-0.00488855
-0.00492044
-0.00494332
-0.00495727
-0.00496242
-0.00495886
-0.00494653
-0.00492545
-0.00489563
-0.00485711
-0.00480992
-0.00475414
-0.00468992
-0.00461738
-0.00453661
-0.00444776
-0.00435099
-0.0042465
-0.00413447
-0.00401513
-0.00388872
-0.00375544
-0.00361556
-0.00346942
-0.00331733
-0.00315959
-0.00299653
-0.0028288
-0.00265472
-0.00247664
-0.00229446
-0.00210838
-0.00191867
-0.00172594
-0.00153011
-0.00133205
-0.0011315
-0.000929559
-0.000725466
-0.000520871
-0.000314161
-0.000107621
-0.00405937
-0.00415609
-0.00423361
-0.00429863
-0.00435657
-0.00440964
-0.00445759
-0.00449924
-0.00453353
-0.0045599
-0.00457821
-0.00458852
-0.00459089
-0.00458531
-0.00457193
-0.00455069
-0.0045216
-0.00448465
-0.00443985
-0.0043873
-0.00432708
-0.00425928
-0.00418404
-0.00410151
-0.00401181
-0.00391507
-0.00381146
-0.00370117
-0.00358438
-0.00346133
-0.00333227
-0.00319751
-0.00305728
-0.00291178
-0.00276126
-0.002606
-0.00244615
-0.00228217
-0.00211427
-0.00194286
-0.00176809
-0.00159049
-0.00141007
-0.00122753
-0.00104268
-0.000856468
-0.000668344
-0.000479655
-0.000289156
-9.86907e-05
-0.0038098
-0.00389361
-0.00396097
-0.00401747
-0.00406763
-0.00411326
-0.00415417
-0.00418933
-0.00421786
-0.00423928
-0.00425347
-0.00426045
-0.00426029
-0.004253
-0.00423859
-0.00421709
-0.00418849
-0.00415279
-0.00411001
-0.00406018
-0.00400339
-0.00393974
-0.00386933
-0.00379226
-0.00370868
-0.0036187
-0.00352247
-0.00342016
-0.00331194
-0.00319802
-0.00307858
-0.00295379
-0.00282392
-0.00268934
-0.00255018
-0.0024067
-0.00225905
-0.00210759
-0.0019525
-0.00179418
-0.00163277
-0.00146872
-0.00130209
-0.00113346
-0.000962731
-0.000790673
-0.000616919
-0.00044254
-0.000266641
-9.06628e-05
-0.00358808
-0.00366053
-0.00371892
-0.00376787
-0.00381112
-0.00385016
-0.00388479
-0.00391419
-0.00393758
-0.00395458
-0.00396505
-0.00396904
-0.00396658
-0.00395769
-0.00394233
-0.00392055
-0.00389231
-0.00385762
-0.00381651
-0.00376902
-0.0037152
-0.00365515
-0.00358895
-0.00351665
-0.00343839
-0.00335432
-0.00326456
-0.00316927
-0.00306863
-0.00296277
-0.00285179
-0.00273587
-0.00261546
-0.00249061
-0.00236154
-0.0022285
-0.00209166
-0.00195133
-0.00180767
-0.00166102
-0.00151153
-0.00135959
-0.00120529
-0.00104911
-0.000891018
-0.000731645
-0.000570773
-0.000409234
-0.000246439
-8.34647e-05
-0.0033915
-0.00345397
-0.00350445
-0.00354673
-0.00358385
-0.00361704
-0.00364613
-0.0036704
-0.00368924
-0.00370229
-0.00370946
-0.00371076
-0.00370622
-0.00369583
-0.00367958
-0.00365748