/*--------------------------------*- C++ -*----------------------------------*\
  =========                 |
  \\      /  F ield         | OpenFOAM: The Open Source CFD Toolbox
   \\    /   O peration     | Website:  https://openfoam.org
    \\  /    A nd           | Version:  7
     \\/     M anipulation  |
\*---------------------------------------------------------------------------*/
FoamFile
{
    version     2.0;
    format      ascii;
    class       surfaceScalarField;
    location    "80.001";
    object      phi;
}
// * * * * * * * * * * * * * * * * * * * * * * * * * * * * * * * * * * * * * //

dimensions      [0 3 -1 0 0 0 0];

internalField   nonuniform List<scalar> 
7273
(
-0.00123818
-0.000126637
-0.00125895
-0.000100727
-0.00127579
-6.21334e-05
-0.00128872
-1.09553e-05
-0.00129861
5.32756e-05
-0.00130534
0.000127751
-0.00130896
0.000211068
-0.00130949
0.000300814
-0.00130693
0.000394062
-0.00130129
0.000487479
-0.00129258
0.000577446
-0.00128085
0.000660154
-0.00126612
0.000731717
-0.0012484
0.000788273
-0.00122769
0.000826133
-0.00120397
0.000841992
-0.00117722
0.000833099
-0.00114737
0.000797353
-0.00111446
0.000733625
-0.00107856
0.000641589
-0.00103977
0.000521743
-0.000998235
0.000375651
-0.000954192
0.000205916
-0.000907743
1.57923e-05
-0.000860283
-0.000188108
-0.000812173
-0.000403378
-0.000764024
-0.000623377
-0.000716454
-0.00084212
-0.000669985
-0.00105369
-0.000624983
-0.00125233
-0.000581482
-0.0014327
-0.000539281
-0.00158954
-0.000497804
-0.00171841
-0.000456069
-0.00181544
-0.000412799
-0.00187701
-0.000366515
-0.00190014
-0.000315818
-0.00188268
-0.000259285
-0.00182319
-0.000196094
-0.00172167
-0.000125412
-0.00157885
-4.74875e-05
-0.00139744
3.75612e-05
-0.00118142
0.000128145
-0.000934061
0.000222787
-0.000663583
0.000319665
-0.000376263
0.000416201
-7.92823e-05
0.000510153
0.000220153
0.000599138
0.000515383
0.000680994
0.00079999
0.000753916
0.00106863
0.000816623
0.00131692
0.000868515
0.00154136
0.000909788
0.00173915
0.000941509
0.00190794
0.000965607
0.00204552
0.000984783
0.00214964
0.0010023
0.00221785
0.00102168
0.00224769
0.00104635
0.00223692
0.00107924
0.00218398
0.00112252
0.00208841
0.00117739
0.00195123
0.00124399
0.00177519
0.00132152
0.00156465
0.00140828
0.00132564
0.00150202
0.00106499
0.00159996
0.000790758
0.00169922
0.000510161
0.00179671
0.000231888
0.00188966
-3.89385e-05
0.00197518
-0.00029287
0.00205146
-0.000531128
0.00211577
-0.000738791
0.00216744
-0.00093196
0.00220522
-0.0010761
0.00222764
-0.00121737
-0.0013004
-0.00119463
-0.000103316
-0.00121348
-8.18831e-05
-0.00122806
-4.75502e-05
-0.00123849
-5.28368e-07
-0.00124557
6.03543e-05
-0.00124917
0.00013135
-0.00124933
0.000211229
-0.00124606
0.000297551
-0.00123938
0.000387378
-0.00122927
0.000477374
-0.00121577
0.000563937
-0.0011989
0.000643285
-0.00117871
0.00071153
-0.00115526
0.000764821
-0.00112858
0.000799455
-0.0010987
0.000812118
-0.00106568
0.000800073
-0.00102953
0.000761208
-0.000990395
0.000694486
-0.000948506
0.0005997
-0.000904096
0.000477333
-0.000857441
0.000328996
-0.000808772
0.000157247
-0.000759217
-3.37633e-05
-0.000709051
-0.000238274
-0.000659521
-0.000452908
-0.00061135
-0.000671549
-0.000565342
-0.000888128
-0.000522216
-0.00109681
-0.000482535
-0.00129201
-0.000446382
-0.00146885
-0.000413764
-0.00162216
-0.000384152
-0.00174802
-0.00035652
-0.00184307
-0.000329455
-0.00190408
-0.000301234
-0.00192836
-0.000270044
-0.00191387
-0.000234064
-0.00185917
-0.000191863
-0.00176387
-0.000142248
-0.00162846
-8.47853e-05
-0.0014549
-1.97408e-05
-0.00124646
5.31438e-05
-0.00100695
0.000132061
-0.000742501
0.000215029
-0.00045923
0.000299959
-0.000164212
0.000384553
0.000135559
0.000466664
0.000433272
0.000544274
0.000722381
0.00061572
0.000997187
0.00067988
0.00125276
0.000736309
0.00148493
0.00078534
0.00169012
0.000828119
0.00186516
0.000866556
0.00200709
0.000903179
0.00211301
0.000940901
0.00218013
0.000982715
0.00220588
0.00103135
0.00218829
0.00108898
0.00212635
0.00115697
0.00202042
0.00123579
0.00187242
0.00132495
0.00168602
0.00142319
0.00146642
0.00152851
0.00122032
0.00163851
0.000954989
0.00175038
0.000678887
0.00186136
0.000399183
0.00196849
0.00012476
0.00206924
-0.00013969
0.0021609
-0.000384523
0.00224193
-0.000612165
0.00230978
-0.000806642
0.00236395
-0.000986121
0.00240327
-0.00111542
0.00242667
-0.00124077
-0.00130976
-0.00109585
-8.25617e-05
-0.00111189
-6.58439e-05
-0.00112335
-3.60884e-05
-0.00113073
6.84869e-06
-0.00113419
6.38171e-05
-0.00113395
0.000131106
-0.00112999
0.000207267
-0.00112231
0.000289874
-0.00111091
0.000375978
-0.00109578
0.000462245
-0.00107695
0.000545102
-0.00105447
0.000620807
-0.0010284
0.000685461
-0.000998825
0.000735249
-0.000965835
0.000766464
-0.000929518
0.000775801
-0.000889991
0.000760547
-0.00084737
0.000718587
-0.000801864
0.00064898
-0.000753897
0.000551733
-0.000703824
0.00042726
-0.000652037
0.000277209
-0.000598952
0.000104162
-0.000545712
-8.70033e-05
-0.000492887
-0.000291098
-0.000441695
-0.0005041
-0.000393123
-0.000720121
-0.000348154
-0.000933097
-0.000307703
-0.00113726
-0.000272596
-0.00132712
-0.000242857
-0.00149859
-0.000218831
-0.00164618
-0.000200086
-0.00176677
-0.000185708
-0.00185745
-0.000174212
-0.00191558
-0.000163674
-0.0019389
-0.000151933
-0.00192561
-0.000136765
-0.00187434
-0.000116198
-0.00178444
-8.85887e-05
-0.00165607
-5.2889e-05
-0.0014906
-9.01488e-06
-0.00129033
4.47341e-05
-0.00106069
0.000106079
-0.000803845
0.000173498
-0.000526649
0.000245222
-0.000235937
0.000319218
6.15633e-05
0.000393457
0.000359032
0.000466128
0.00064971
0.00053572
0.000927595
0.00060124
0.00118724
0.000662339
0.00142383
0.000719391
0.00163307
0.000773492
0.00181106
0.000826375
0.0019542
0.000880246
0.00205914
0.000937533
0.00212284
0.0010006
0.00214281
0.00107146
0.00211743
0.00115152
0.00204629
0.00124143
0.00193051
0.00134103
0.00177282
0.00144935
0.0015777
0.0015648
0.00135097
0.00168518
0.00109994
0.00180806
0.000832109
0.00193066
0.000556278
0.00205044
0.000279405
0.00216451
1.0697e-05
0.00227076
-0.000245949
0.00236661
-0.000480374
0.00245087
-0.00069642
0.00252117
-0.000876945
0.00257726
-0.00104221
0.00261799
-0.00115615
0.00264311
-0.00126589
-0.00131905
-0.000943602
-6.50169e-05
-0.000956314
-5.31324e-05
-0.000964305
-2.80969e-05
-0.000967929
1.04728e-05
-0.000967434
6.33216e-05
-0.00096293
0.000126602
-0.000954435
0.000198771
-0.000941948
0.000277387
-0.000925461
0.000359492
-0.000904967
0.00044175
-0.000880488
0.000520624
-0.000852139
0.000592458
-0.00081996
0.000653282
-0.000784093
0.000699382
-0.000744674
0.000727046
-0.000701862
0.000732988
-0.000655846
0.000714531
-0.000606821
0.000669562
-0.000555026
0.000597185
-0.000501092
0.000497799
-0.00044548
0.000371647
-0.000388697
0.000220426
-0.000331394
4.68596e-05
-0.000274458
-0.000143939
-0.000218792
-0.000346765
-0.000165661
-0.000557231
-0.000116222
-0.000769559
-7.15854e-05
-0.000977734
-3.28089e-05
-0.00117604
-6.00489e-07
-0.00135933
2.30435e-05
-0.00152223
3.90492e-05
-0.00166219
4.7956e-05
-0.00177567
5.03818e-05
-0.00185987
4.76014e-05
-0.00191279
4.15978e-05
-0.0019329
3.47793e-05
-0.00191879
2.97911e-05
-0.00186935
2.91866e-05
-0.00178383
3.52756e-05
-0.00166216
4.97565e-05
-0.00150508
7.36374e-05
-0.00131422
0.00010662
-0.00109368
0.000148811
-0.000846036
0.000199257
-0.000577095
0.000256466
-0.000293145
0.000318718
-6.89447e-07
0.00038411
0.00029364
0.000451068
0.000582753
0.000518211
0.000860452
0.000584632
0.00112082
0.000650009
0.00135846
0.000714655
0.00156842
0.000779498
0.00174622
0.000845975
0.00188772
0.000915859
0.00198926
0.000991017
0.00204768
0.00107315
0.00206067
0.00116356
0.00202702
0.00126296
0.00194689
0.00137138
0.0018221
0.00148814
0.00165605
0.00161191
0.00145393
0.00174086
0.00122202
0.00187271
0.000968098
0.00200506
0.000699757
0.00213526
0.000426077
0.00226097
0.000153699
0.00237933
-0.000107669
0.00248885
-0.000355464
0.00258696
-0.000578492
0.00267284
-0.000782299
0.00274436
-0.000948459
0.00280161
-0.00109946
0.00284328
-0.00119782
0.00287036
-0.00129297
-0.00132918
-0.000739833
-0.00074914
-4.38257e-05
-0.000753654
-2.35826e-05
-0.000753469
1.02875e-05
-0.000748966
5.88185e-05
-0.00074016
0.000117796
-0.000727073
0.000185685
-0.000709713
0.000260026
-0.000688075
0.000337854
-0.000662154
0.00041583
-0.000631974
0.000490443
-0.000597753
0.000558236
-0.000559483
0.000615013
-0.000517384
0.000657282
-0.000471645
0.000681306
-0.000422502
0.000683845
-0.000370233
0.000662262
-0.000315066
0.000614395
-0.000257158
0.000539277
-0.00019741
0.00043805
-0.000136259
0.000310497
-7.42245e-05
0.000158392
-1.20717e-05
-1.52932e-05
4.67889e-05
-0.0002028
0.000103715
-0.000403691
0.000157627
-0.000611143
0.000207217
-0.00081915
0.000251235
-0.00102175
0.000288445
-0.00121325
0.000317664
-0.00138855
0.000338465
-0.00154304
0.000350051
-0.00167377
0.000352273
-0.0017779
0.000345678
-0.00185328
0.000331595
-0.00189871
0.00031196
-0.00191326
0.000289241
-0.00189608
0.000266256
-0.00184637
0.000245903
-0.00176348
0.000230911
-0.00164717
0.000223595
-0.00149777
0.000225711
-0.00131633
0.000237828
-0.00110579
0.00026049
-0.000868698
0.000293252
-0.000609858
0.00033507
-0.000334963
0.000384695
-5.0314e-05
0.000440351
0.000237984
0.000500746
0.000522359
0.000564612
0.000796585
0.000631094
0.00105434
0.000699829
0.00128972
0.00077099
0.00149726
0.000845246
0.00167196
0.000923657
0.00180931
0.0010075
0.00190542
0.00109805
0.00195713
0.00119636
0.00196237
0.00130305
0.00192032
0.00141825
0.00183169
0.00154144
0.0016989
0.00167157
0.00152593
0.001807
0.0013185
0.00194579
0.00108323
0.00208563
0.000828259
0.00222422
0.000561171
0.00235905
0.000291249
0.00248788
2.48682e-05
0.00260827
-0.000228058
0.00271883
-0.000466027
0.00281733
-0.000676996
0.00290325
-0.000868213
0.00297463
-0.00101985
0.0030321
-0.00115693
0.00307399
-0.00123971
0.00310273
-0.00132171
-0.0013406
-0.000492486
-3.74264e-05
-0.000494098
-2.19706e-05
-0.000490625
6.81499e-06
-0.00048261
5.08037e-05
-0.000469962
0.000105148
-0.000452702
0.000168425
-0.000430841
0.000238166
-0.000404383
0.000311395
-0.00037333
0.000384776
-0.000337675
0.000454789
-0.000297916
0.000518478
-0.000253844
0.00057094
-0.000205761
0.000609199
-0.000153881
0.000629426
-9.84843e-05
0.000628448
-3.97482e-05
0.000603526
2.12755e-05
0.000553372
8.29929e-05
0.00047756
0.00014647
0.000374573
0.000210812
0.000246155
0.000275463
9.37409e-05
0.000338804
-7.8634e-05
0.000401247
-0.000265243
0.000461035
-0.000463479
0.000517021
-0.000667129
0.000567949
-0.000870077
0.000612543
-0.00106635
0.000649534
-0.00125024
0.000677719
-0.00141673
0.000696262
-0.00156158
0.000704282
-0.00168179
0.000701393
-0.00177501
0.00068798
-0.00183987
0.000665094
-0.00187583
0.000634471
-0.00188264
0.00059849
-0.00186009
0.000560033
-0.00180791
0.000522247
-0.00172569
0.000488262
-0.00161318
0.000460915
-0.00147042
0.000442576
-0.00129799
0.000434616
-0.00109783
0.000438082
-0.000872164
0.000453138
-0.000624913
0.000479277
-0.000361102
0.000515624
-8.6661e-05
0.000560877
0.000192731
0.000613865
0.00046937
0.000673472
0.000736979
0.000738873
0.00098894
0.000809629
0.00121896
0.000885716
0.00142117
0.000967495
0.00159018
0.0010556
0.00172121
0.00115079
0.00181022
0.00125376
0.00185417
0.00136494
0.00185119
0.00148438
0.00180088
0.00161167
0.00170441
0.00174587
0.0015647
0.00188561
0.00138619
0.00202908
0.00117502
0.00217427
0.000938045
0.00231889
0.000683644
0.00246074
0.000419315
0.00259751
0.000154487
0.00272693
-0.000104561
0.00284715
-0.000348268
0.00295679
-0.000575672
0.00305391
-0.000774112
0.00313832
-0.000952625
0.00320821
-0.00108974
0.00326479
-0.00121351
0.00330602
-0.00128095
0.00333566
-0.00135135
-0.00135328
-0.000187822
-3.27287e-05
-0.000187753
-2.20399e-05
-0.000182294
1.35683e-06
-0.000171957
4.04657e-05
-0.000156602
8.97928e-05
-0.000136234
0.000148057
-0.000110864
0.000212797
-8.04915e-05
0.000281023
-4.51134e-05
0.000349398
-4.96268e-06
0.000414638
4.05103e-05
0.000473005
8.9654e-05
0.000521797
0.000142656
0.000556198
0.000199182
0.0005729
0.000258815
0.000568816
0.000321106
0.000541235
0.000385684
0.000488794
0.000452347
0.000410897
0.000520117
0.000306803
0.000588292
0.00017798
0.000656216
2.58163e-05
0.000722416
-0.000144834
0.00078705
-0.000329877
0.000848569
-0.000524998
0.000905809
-0.000724369
0.000957533
-0.000921801
0.00100245
-0.00111126
0.00103927
-0.00128706
0.00106676
-0.00144422
0.00108386
-0.00157868
0.00108959
-0.00168753
0.00108346
-0.00176887
0.00106558
-0.00182199
0.0010367
-0.00184694
0.000998236
-0.00184417
0.000952323
-0.00181418
0.000901723
-0.00175731
0.000849648
-0.00167362
0.000799479
-0.00156302
0.000754488
-0.00142543
0.000717594
-0.0012611
0.00069093
-0.00107117
0.000676121
-0.000857355
0.000673968
-0.000622761
0.000684557
-0.000371691
0.000707408
-0.000109512
0.000741739
0.0001584
0.00078654
0.000424569
0.000840846
0.000682673
0.000903858
0.000925927
0.00097504
0.00114778
0.00105415
0.00134206
0.00114122
0.00150311
0.00123646
0.00162597
0.0013401
0.00170657
0.0014523
0.00174197
0.00157294
0.00173055
0.00170156
0.00167227
0.0018373
0.00156867
0.0019789
0.0014231
0.00212476
0.00124033
0.00227295
0.00102683
0.00242142
0.000789572
0.00256793
0.000537136
0.00271043
0.000276814
0.00284656
1.83518e-05
0.00297457
-0.000232566
0.00309254
-0.000466237
0.00319946
-0.000682597
0.00329355
-0.000868195
0.003375
-0.00103408
0.00344206
-0.0011568
0.00349658
-0.00126803
0.00353619
-0.00132056
0.00356569
-0.00138085
-0.00136679
0.000165915
-2.78555e-05
0.000165916
-2.20406e-05
0.000171416
-4.14337e-06
0.000182423
2.94594e-05
0.000198909
7.33066e-05
0.000220916
0.000126049
0.000248402
0.000185311
0.000281302
0.000248123
0.000319576
0.000311124
0.000363078
0.000371136
0.00041107
0.000425012
0.000463671
0.000469196
0.000520347
0.000499522
0.000580654
0.000512592
0.000644096
0.000505374
0.000710128
0.000475202
0.000778273
0.000420649
0.000848124
0.000341046
0.000918846
0.000236081
0.000989779
0.000107048
0.00105959
-4.39997e-05
0.00112783
-0.000213067
0.00119375
-0.000395799
0.00125616
-0.000587404
0.00131388
-0.000782098
0.00136575
-0.000973665
0.0014105
-0.00115601
0.00144687
-0.00132343
0.00147364
-0.00147099
0.00148968
-0.00159472
0.00149402
-0.00169187
0.0014861
-0.00176095
0.00146581
-0.0018017
0.00143357
-0.0018147
0.00139043
-0.00180104
0.00133818
-0.00176192
0.00127925
-0.00169838
0.0012167
-0.00161107
0.00115396
-0.00150027
0.00109455
-0.00136602
0.00104183
-0.00120838
0.000998598
-0.00102793
0.00096709
-0.000825847
0.000948777
-0.000604448
0.000944362
-0.000367276
0.000953848
-0.000118997
0.000976968
0.000135279
0.00101292
0.000388613
0.00106092
0.000634673
0.0011202
0.00086665
0.00119012
0.00107786
0.00127023
0.00126195
0.00136024
0.00141311
0.00145993
0.00152628
0.00156909
0.00159742
0.00168735
0.00162371
0.00181412
0.00160377
0.00194852
0.00153787
0.00208934
0.00142785
0.00223505
0.00127739
0.00238388
0.0010915
0.00253383
0.000876884
0.00268283
0.000640571
0.00282871
0.000391252
0.00296954
0.000135987
0.00310284
-0.000114946
0.0032275
-0.000357233
0.00334146
-0.000580192
0.00344404
-0.000785175
0.00353359
-0.000957748
0.00361072
-0.00111121
0.00367372
-0.00121979
0.00372501
-0.00131932
0.00376205
-0.00135759
0.00379025
-0.00140905
-0.00138042
0.000570072
-2.02609e-05
0.000567423
-1.9391e-05
0.000570055
-6.77543e-06
0.000579085
2.04297e-05
0.000593987
5.84039e-05
0.000614939
0.000105098
0.000641927
0.000158323
0.000674889
0.000215161
0.000713846
0.000272167
0.000758528
0.000326453
0.000808343
0.000375197
0.000863018
0.000414521
0.000922008
0.000440532
0.000984772
0.000449828
0.00105072
0.000439424
0.00111922
0.000406706
0.0011897
0.00035017
0.0012616
0.000269139
0.0013341
0.000163583
0.00140646
3.46888e-05
0.0014775
-0.000115041
0.0015465
-0.000282058
0.00161267
-0.000461977
0.00167495
-0.000649681
0.00173221
-0.000839356
0.00178331
-0.00102477
0.00182709
-0.00119979
0.00186237
-0.00135871
0.00188799
-0.00149661
0.00190289
-0.00160962
0.0019062
-0.00169518
0.00189737
-0.00175212
0.00187614
-0.00178047
0.00184268
-0.00178125
0.0017977
-0.00175607
0.00174254
-0.00170676
0.0016792
-0.00163505
0.00161038
-0.00154224
0.00153927
-0.00142917
0.00146943
-0.00129618
0.00140444
-0.00114339
0.0013476
-0.00097109
0.00130172
-0.000779968
0.00126893
-0.000571657
0.00125057
-0.000348919
0.00124726
-0.000115692
0.00125916
0.00012338
0.00128583
0.000361949
0.00132666
0.000593844
0.00138094
0.000812368
0.00144797
0.00101083
0.00152709
0.00118282
0.00161773
0.00132247
0.00171929
0.00142472
0.00183115
0.00148557
0.00195249
0.00150236
0.00208233
0.00147393
0.00221943
0.00140077
0.0023623
0.00128498
0.0025092
0.00113049
0.00265825
0.000942451
0.00280736
0.000727769
0.0029545
0.00049343
0.00309758
0.000248174
0.0032345
-9.28422e-07
0.00336335
-0.0002438
0.00348285
-0.000476729
0.00359119
-0.000688532
0.00368795
-0.000881944
0.00377164
-0.00104143
0.00384322
-0.00118279
0.00390106
-0.00127763
0.00394802
-0.00136628
0.0039816
-0.00139117
0.00400741
-0.00143487
-0.00139331
0.00102417
-6.73406e-06
0.00101543
-1.06551e-05
0.00101249
-3.83237e-06
0.00101599
1.69324e-05
0.00102626
4.81282e-05
0.00104331
8.80504e-05
0.00106711
0.000134519
0.00109761
0.000184668
0.00113482
0.000234955
0.0011784
0.000282868
0.00122781
0.000325797
0.00128254
0.000359785
0.00134198
0.00038109
0.00140547
0.00038634
0.0014723
0.000372593
0.00154173
0.000337276
0.00161309
0.000278813
0.00168573
0.0001965
0.00175854
9.07705e-05
0.00183132
-3.8094e-05
0.00190222
-0.000185938
0.00197073
-0.000350567
0.00203597
-0.000527222
0.00209694
-0.00071065
0.00215257
-0.000894985
0.0022018
-0.001074
0.00224355
-0.00124154
0.00227676
-0.00139192
0.00230043
-0.00152028
0.00231368
-0.00162287
0.00231582
-0.00169733
0.00230635
-0.00174264
0.00228498
-0.0017591
0.00225176
-0.00174803
0.00220711
-0.00171142
0.00215196
-0.00165161
0.00208782
-0.00157091
0.00201685
-0.00147127
0.00194183
-0.00135415
0.00186604
-0.00122039
0.00179303
-0.00107038
0.00172634
-0.000904403
0.00166923
-0.00072286
0.00162441
-0.000526829
0.00159385
-0.000318365
0.00157881
-0.000100654
0.00157993
0.000122265
0.00159719
0.000344688
0.00163024
0.000560792
0.00167848
0.00076413
0.00174117
0.000948143
0.00181751
0.00110648
0.00190667
0.00123332
0.00200774
0.00132365
0.00211973
0.00137358
0.00224148
0.00138062
0.00237166
0.00134375
0.00250874
0.00126369
0.00265102
0.0011427
0.00279658
0.000984926
0.00294345
0.000795581
0.00308951
0.000581708
0.00323273
0.000350212
0.00337098
0.00010993
0.0035023
-0.000132254
0.00362498
-0.000366481
0.00373778
-0.000589532
0.00383909
-0.000789834
0.00392875
-0.000971604
0.00400539
-0.00111808
0.00407034
-0.00124774
0.0041221
-0.00132938
0.00416376
-0.00140794
0.00419313
-0.00142054
0.0042156
-0.00145734
-0.00140463
0.00152743
0.00150916
7.60863e-06
0.00149668
8.65057e-06
0.00149171
2.19076e-05
0.00149418
4.56551e-05
0.00150419
7.8037e-05
0.00152178
0.000116936
0.00154687
0.000159577
0.00157946
0.000202362
0.00161921
0.000243112
0.00166558
0.00027943
0.00171794
0.000307426
0.00177557
0.000323463
0.00183767
0.000324233
0.00190342
0.000306846
0.00197195
0.00026875
0.00204244
0.000208316
0.00211423
0.000124715
0.002186
1.89981e-05
0.00225753
-0.000109624
0.00232691
-0.000255316
0.00239353
-0.000417184
0.00245648
-0.000590178
0.0025148
-0.000768969
0.00256747
-0.000947657
0.00261351
-0.00112003
0.00265195
-0.00127998
0.0026819
-0.00142188
0.0027026
-0.00154098
0.0027134
-0.00163367
0.0027138
-0.00169772
0.00270344
-0.00173228
0.00268213
-0.0017378
0.00264988
-0.00171577
0.00260695
-0.00166849
0.00255395
-0.00159861
0.00249193
-0.00150888
0.00242247
-0.00140181
0.00234777
-0.00127945
0.0022706
-0.00114322
0.00219421
-0.00099399
0.00212207
-0.000832266
0.00205764
-0.000658427
0.00200403
-0.000473216
0.00196377
-0.000278113
0.00193875
-7.56282e-05
0.00193011
0.000130907
0.00193834
0.000336452
0.00196342
0.000535716
0.00200491
0.000722638
0.00206212
0.000890931
0.00213417
0.00103443
0.00222004
0.00114745
0.00231857
0.00122511
0.00242847
0.00126368
0.0025483
0.00126079
0.00267646
0.00121558
0.0028112
0.00112895
0.00295062
0.00100328
0.00309269
0.000842863
0.00323533
0.000652939
0.0033764
0.000440637
0.00351388
0.000212736
0.00364553
-2.17201e-05
0.00376977
-0.000256495
0.00388475
-0.000481464
0.00398949
-0.000694276
0.00408252
-0.000882855
0.00416394
-0.00105303
0.00423258
-0.00118672
0.00428999
-0.00130515
0.00433494
-0.00137433
0.00437055
-0.00144356
0.00439511
-0.0014451
0.00441353
-0.00147576
-0.00141369
0.00204326
3.97646e-05
0.00201846
3.34557e-05
0.00200173
3.86345e-05
0.00199335
5.40405e-05
0.00199337
7.80149e-05
0.00200183
0.000108477
0.00201865
0.000142752
0.00204376
0.000177256
0.00207688
0.000209989
0.00211747
0.000238843
0.00216483
0.000260067
0.00221815
0.000270145
0.00227653
0.000265853
0.00233898
0.000244389
0.0024045
0.000203235
0.00247227
0.000140542
0.00254077
5.62198e-05
0.00261092
-5.11537e-05
0.002679
-0.000177699
0.0027452
-0.000321521
0.00280834
-0.000480327
0.00286747
-0.000649309
0.00292162
-0.000823116
0.00296983
-0.000995867
0.00301122
-0.00116142
0.00304499
-0.00131375
0.00307047
-0.00144735
0.00308708
-0.00155759
0.00309444
-0.00164103
0.00309227
-0.00169555
0.00308044
-0.00172045
0.00305891
-0.00171626
0.00302776
-0.00168463
0.00298722
-0.00162795
0.00293768
-0.00154907
0.00287983
-0.00145103
0.00281472
-0.00133671
0.00274393
-0.00120865
0.00266959
-0.00106887
0.00259438
-0.000918786
0.00252144
-0.000759325
0.00245411
-0.000591095
0.00239566
-0.000414764
0.002349
-0.000231457
0.00231649
-4.3118e-05
0.00229985
0.000147548
0.00230008
0.000336224
0.00231754
0.000518256
0.00235207
0.000688108
0.0024031
0.000839901
0.00246975
0.000967782
0.00255089
0.0010663
0.0026452
0.0011308
0.00275118
0.0011577
0.00286715
0.00114481
0.00299133
0.00109141
0.00312177
0.000998512
0.00325641
0.000868639
0.00339312
0.000706154
0.00352977
0.000516292
0.00366416
0.00030624
0.00379425
8.26556e-05
0.0039179
-0.000145379
0.0040336
-0.000372191
0.00413959
-0.000587455
0.00423509
-0.000789773
0.00431878
-0.000966552
0.00439104
-0.00112529
0.00445092
-0.0012466
0.00450011
-0.00135435
0.00453774
-0.00141196
0.00456679
-0.0014726
0.00458614
-0.00146446
0.00460003
-0.00148964
-0.00141996
0.00260645
8.79081e-05
0.00256681
7.30985e-05
0.00253615
6.9296e-05
0.00251469
7.54955e-05
0.00250252
9.01864e-05
0.00249963
0.000111365
0.00250592
0.000136458
0.0025212
0.000161982
0.00254528
0.000185906
0.00257764
0.000206483
0.00261756
0.000220152
0.00266416
0.000223541
0.00271648
0.000213537
0.0027734
0.00018747
0.00283373
0.000142905
0.00289652
7.77525e-05
0.00296091
-8.17678e-06
0.00302601
-0.00011625
0.00308935
-0.000241042
0.00315057
-0.000382735
0.0032085
-0.000538262
0.00326216
-0.000702965
0.00331057
-0.000871529
0.00335285
-0.00103815
0.00338822
-0.00119679
0.00341603
-0.00134156
0.00343578
-0.00146711
0.00344717
-0.00156898
0.00345005
-0.00164391
0.00344442
-0.00168992
0.00343038
-0.00170641
0.00340811
-0.001694
0.00337783
-0.00165435
0.0033398
-0.00158991
0.00329432
-0.0015036
0.00324183
-0.00139854
0.00318297
-0.00127785
0.00311876
-0.00114443
0.00305065
-0.00100076
0.00298066
-0.000848796
0.00291133
-0.000690002
0.00284563
-0.000525395
0.00278669
-0.000355816
0.00273751
-0.00018228
0.00270079
-6.40281e-06
0.00267865
0.000169686
0.00267264
0.00034224
0.00268352
0.000507372
0.00271149
0.000660143
0.00275619
0.000795204
0.00281683
0.000907139
0.00289228
0.00099085
0.00298113
0.00104195
0.00308175
0.00105708
0.00319234
0.00103423
0.00331093
0.000972816
0.00343543
0.000874003
0.0035637
0.000740371
0.00369349
0.000576371
0.00382261
0.000387169
0.00394886
0.000179992
0.00407018
-3.86685e-05
0.00418453
-0.000259731
0.00429046
-0.000478117
0.00438635
-0.000683347
0.00447162
-0.000875042
0.00454518
-0.00104011
0.00460759
-0.00118769
0.00465819
-0.00129721
0.00469875
-0.0013949
0.00472879
-0.001442
0.00475103
-0.00149484
0.00476499
-0.00147841
0.00477413
-0.00149878
-0.00142314
0.00317889
0.000152795
0.00312372
0.000128271
0.00307844
0.000114581
0.00304315
0.000110779
0.00301791
0.000115431
0.00300266
0.000126615
0.00299726
0.000141855
0.00300138
0.000157861
0.00301491
0.000172379
0.00303734
0.00018405
0.00306798
0.000189514
0.00310593
0.000185587
0.00315018
0.000169288
0.00319949
0.000138163
0.0032528
8.95896e-05
0.00330834
2.22148e-05
0.00336703
-6.68613e-05
0.00342503
-0.000174257
0.00348174
-0.000297752
0.00353626
-0.000437249
0.00358736
-0.000589366
0.003634
-0.000749602
0.00367521
-0.000912742
0.00371017
-0.00107311
0.00373819
-0.00122482
0.0037588
-0.00136217
0.0037717
-0.00148001
0.00377683
-0.00157411
0.00377431
-0.00164138
0.0037644
-0.00168001
0.00374747
-0.00168948
0.00372391
-0.00167044
0.00369412
-0.00162456
0.00365842
-0.00155422
0.00361712
-0.00146229
0.0035705
-0.00135192
0.00351893
-0.00122628
0.00346296
-0.00108847
0.00340348
-0.000941283
0.00334182
-0.000787135
0.00327984
-0.000628024
0.00321991
-0.000465467
0.00316475
-0.000300658
0.0031173
-0.000134822
0.00307993
3.09613e-05
0.00305555
0.000194072
0.00304577
0.000352017
0.00305185
0.000501293
0.00307434
0.000637651
0.00311318
0.000756361
0.00316778
0.000852541
0.0032371
0.000921536
0.00331973
0.000959315
0.00341402
0.000962792
0.00351808
0.000930174
0.00362985
0.000861046
0.00374715
0.000756704
0.00386773
0.000619788
0.00398928
0.000454822
0.00410958
0.000266873
0.00422645
6.31213e-05
0.00433784
-0.000150063
0.00444177
-0.000363659
0.00453692
-0.000573269
0.00462185
-0.000768278
0.00469617
-0.00094936
0.00475905
-0.00110299
0.0048112
-0.00123985
0.00485232
-0.00133832
0.00488411
-0.0014267
0.00490656
-0.00146445
0.00492201
-0.00151029
0.00493061
-0.00148701
0.00493504
-0.00150321
-0.00142317
0.00373367
0.00366452
0.000197424
0.00360595
0.000173154
0.00355794
0.000158791
0.00352046
0.000152904
0.00349344
0.000153639
0.00347666
0.000158629
0.00346971
0.000164817
0.00347244
0.000169645
0.00348442
0.000172075
0.00350496
0.000168972
0.0035332
0.000157345
0.00356813
0.000134358
0.00360843
9.7864e-05
0.00365265
4.53653e-05
0.00370109
-2.62245e-05
0.00375097
-0.000116743
0.00380061
-0.000223897
0.00384916
-0.000346301
0.00389547
-0.000483557
0.00393828
-0.000632178
0.0039765
-0.000787822
0.00400919
-0.000945432
0.00403559
-0.0010995
0.00405513
-0.00124436
0.0040675
-0.00137454
0.00407263
-0.00148515
0.0040707
-0.00157218
0.00406209
-0.00163277
0.00404734
-0.00166525
0.00402704
-0.00166918
0.00400181
-0.00164521
0.00397217
-0.00159492
0.00393857
-0.00152061
0.00390133
-0.00142505
0.00386067
-0.00131126
0.00381677
-0.00118238
0.00376988
-0.00104158
0.00372043
-0.000891825
0.00366914
-0.00073585
0.00361723
-0.000576111
0.00356639
-0.000414625
0.00351874
-0.000253012
0.00347681
-9.28918e-05
0.00344284
6.49351e-05
0.00341959
0.000217316
0.00340903
0.00036258
0.00341267
0.000497652
0.00343141
0.000618906
0.00346552
0.000722251
0.00351467
0.0008034
0.00357798
0.00085822
0.00365418
0.000883114
0.00374164
0.000875333
0.00383846
0.000833355
0.00394256
0.00075695
0.00405169
0.000647565
0.00416358
0.000507901
0.00427586
0.000342539
0.00438624
0.000156496
0.00449283
-4.34712e-05
0.0045933
-0.00025053
0.00468595
-0.000456313
0.0047696
-0.000656912
0.004843
-0.000841678
0.00490595
-0.00101231
0.00495793
-0.00115496
0.00499975
-0.00128167
0.00503147
-0.00137004
0.00505468
-0.0014499
0.0050698
-0.00147958
0.00507875
-0.00151924
0.00508227
-0.00149053
0.00508223
-0.00150317
-0.00142018
0.00416093
0.000276621
0.00409253
0.000241558
0.00403483
0.000216486
0.00398778
0.000199955
0.00395125
0.000190168
0.003925
0.000184887
0.00390855
0.000181265
0.00390166
0.000176529
0.00390402
0.000169719
0.00391492
0.000158076
0.00393353
0.00013873
0.00395885
0.000109037
0.00398991
6.6805e-05
0.00402482
1.04522e-05
0.00406406
-6.54579e-05
0.0041046
-0.000157282
0.00414482
-0.000264122
0.00418413
-0.000385613
0.00422112
-0.00052054
0.00425451
-0.000665574
0.00428323
-0.000816536
0.00430637
-0.000968571
0.00432326
-0.00111639
0.00433349
-0.00125459
0.00433692
-0.00137797
0.00433372
-0.00148194
0.00432431
-0.00156277
0.00430932
-0.00161778
0.00428952
-0.00164545
0.00426571
-0.00164538
0.00423868
-0.00161818
0.00420909
-0.00156533
0.00417747
-0.00148899
0.00414416
-0.00139174
0.00410934
-0.00127644
0.00407309
-0.00114613
0.00403546
-0.00100394
0.00399655
-0.000852913
0.00395665
-0.000695952
0.0039164
-0.00053586
0.00387687
-0.000375093
0.00383951
-0.000215656
0.00380633
-5.97165e-05
0.00377912
9.2144e-05
0.00376043
0.000236015
0.00375222
0.00037079
0.00375615
0.000493714
0.00377339
0.000601673
0.00380447
0.000691172
0.00384933
0.000758533
0.00390736
0.000800189
0.00397745
0.000813032
0.00405806
0.000794715
0.00414738
0.000744035
0.00424335
0.000660984
0.00434373
0.000547184
0.00444623
0.000405404
0.00454845
0.000240313
0.00464832
5.66302e-05
0.00474375
-0.000138899
0.00483269
-0.00033947
0.00491352
-0.000537151
0.00498526
-0.000728647
0.00504691
-0.000903328
0.00509845
-0.00106386
0.00513967
-0.00119618
0.00517145
-0.00131345
0.00519418
-0.00139278
0.00520929
-0.00146501
0.00521762
-0.00148791
0.0052206
-0.00152222
0.00521951
-0.00148943
0.00521544
-0.00149911
-0.00141446
0.00458627
0.000360027
0.00451319
0.000314632
0.00445041
0.000279268
0.00439787
0.000252491
0.00435547
0.000232568
0.00432295
0.000217411
0.00429985
0.000204362
0.00428571
0.000190672
0.0042805
0.000174934
0.00428341
0.000155166
0.00429365
0.000128482
0.00431027
9.24185e-05
0.00433209
4.49901e-05
0.00435891
-1.63718e-05
0.00438836
-9.49067e-05
0.00441903
-0.000187948
0.00444955
-0.000294643
0.00447907
-0.000415134
0.00450611
-0.000547585
0.00452944
-0.000688899
0.004548
-0.000835101
0.004561
-0.00098157
0.0045679
-0.00112328
0.00456844
-0.00125513
0.00456273
-0.00137226
0.00455113
-0.00147035
0.00453432
-0.00154595
0.00451313
-0.0015966
0.00448854
-0.00162086
0.00446151
-0.00161835
0.00443292
-0.0015896
0.00440356
-0.00153597
0.00437396
-0.0014594
0.00434449
-0.00136226
0.0043153
-0.00124725
0.00428642
-0.00111726
0.00425778
-0.000975305
0.00422929
-0.000824426
0.00420094
-0.0006676
0.00417294
-0.000507854
0.00414583
-0.000347983
0.00412045
-0.000190274
0.00409822
-3.74889e-05
0.00408044
0.000109925
0.00406918
0.000247267
0.00406625
0.000373726
0.00407325
0.000486711
0.00409144
0.000583487
0.00412155