/*--------------------------------*- C++ -*----------------------------------*\
  =========                 |
  \\      /  F ield         | OpenFOAM: The Open Source CFD Toolbox
   \\    /   O peration     | Website:  https://openfoam.org
    \\  /    A nd           | Version:  7
     \\/     M anipulation  |
\*---------------------------------------------------------------------------*/
FoamFile
{
    version     2.0;
    format      ascii;
    class       surfaceScalarField;
    location    "39.999";
    object      phi;
}
// * * * * * * * * * * * * * * * * * * * * * * * * * * * * * * * * * * * * * //

dimensions      [0 3 -1 0 0 0 0];

internalField   nonuniform List<scalar> 
29280
(
-1.62737e-05
1.62802e-05
-6.49587e-09
-5.29116e-05
3.66509e-05
-1.30669e-08
-0.000103692
5.0796e-05
-1.60597e-08
-0.000164307
6.06325e-05
-1.69249e-08
-0.000232027
6.77364e-05
-1.66716e-08
-0.000305201
7.31903e-05
-1.57973e-08
-0.000382855
7.76676e-05
-1.43802e-08
-0.000464349
8.15063e-05
-1.22203e-08
-0.000549132
8.47926e-05
-8.9635e-09
-0.000636589
8.74602e-05
-4.17522e-09
-0.000726019
8.94275e-05
2.6244e-09
-0.000816773
9.07429e-05
1.1947e-08
-0.000908656
9.18586e-05
2.43204e-08
-0.00100284
9.41422e-05
4.02457e-08
9.80967e-05
6.04187e-08
-0.001101
-1.59722e-05
3.22525e-05
-5.19918e-05
7.26705e-05
-0.000101915
0.000100719
-0.000161451
0.000120169
-0.000227846
0.000134132
-0.000299406
0.00014475
-0.000375098
0.00015336
-0.000454221
0.000160629
-0.000536155
0.000166726
-0.000620193
0.000171498
-0.000705507
0.000174742
-0.000791229
0.000176464
-0.000876721
0.000177351
-0.000963127
0.000180548
0.000185234
-0.00105026
-1.53831e-05
4.76356e-05
-5.01883e-05
0.000107476
-9.84212e-05
0.000148952
-0.000155822
0.00017757
-0.000219591
0.0001979
-0.000287941
0.0002131
-0.000359725
0.000225144
-0.000434116
0.00023502
-0.00051035
0.000242961
-0.000587549
0.000248697
-0.000664636
0.000251829
-0.000740356
0.000252184
-0.000813115
0.000250109
-0.000884288
0.000251722
0.000250409
-0.000949463
-1.45334e-05
6.2169e-05
-4.75719e-05
0.000140514
-9.33291e-05
0.000194709
-0.000147585
0.000231826
-0.000207466
0.000257781
-0.00027105
0.000276684
-0.000337012
0.000291107
-0.000404326
0.000302333
-0.000472011
0.000310647
-0.000538931
0.000315617
-0.000603659
0.000316557
-0.0006645
0.000313025
-0.000718204
0.000303814
-0.000767212
0.00030073
0.000282963
-0.000799766
-1.34619e-05
7.56309e-05
-4.42446e-05
0.000171297
-8.68094e-05
0.000237274
-0.000136978
0.000281995
-0.000191775
0.000312578
-0.000249092
0.000334001
-0.000307362
0.000349377
-0.000365277
0.000360249
-0.000421554
0.000366923
-0.000474703
0.000368766
-0.000522837
0.00036469
-0.000563956
0.000354144
-0.000592179
0.000332036
-0.00061251
0.000321061
0.000272919
-0.000602466
-1.22176e-05
8.78485e-05
-4.03353e-05
0.000199415
-7.9079e-05
0.000276017
-0.000124303
0.000327218
-0.0001729
0.000361176
-0.000222522
0.000383623
-0.000271286
0.000398141
-0.00031751
0.000406472
-0.00035949
0.000408904
-0.000395278
0.000404553
-0.000422341
0.000391754
-0.000438759
0.000370563
-0.00043481
0.000328087
-0.000419598
0.000305849
0.000211993
-0.000358672
-1.08569e-05
9.87054e-05
-3.59936e-05
0.000224551
-7.03902e-05
0.000310414
-0.000109914
0.000366742
-0.00015129
0.000402551
-0.000191872
0.000424204
-0.000229377
0.000435647
-0.000261637
0.000438731
-0.000286386
0.000433653
-0.000301067
0.000419235
-0.000302156
0.000392842
-0.000288335
0.000356742
-0.000245513
0.000285265
-0.000184743
0.000245078
9.85873e-05
-7.13371e-05
-9.44076e-06
0.000108146
-3.13813e-05
0.000246492
-6.10173e-05
0.00034005
-9.41952e-05
0.00039992
-0.000127427
0.000435784
-0.000157706
0.000454483
-0.000182254
0.000460195
-0.00019828
0.000454758
-0.000202772
0.000438145
-0.000192419
0.000408882
-0.000162141
0.000362564
-0.000110485
0.000305087
-2.58707e-05
0.000200651
9.55795e-05
0.000123628
-8.43148e-05
0.000278482
-8.03111e-06
0.000116177
-2.66633e-05
0.000265124
-5.12395e-05
0.000364626
-7.75348e-05
0.000426215
-0.000101795
0.000460043
-0.000120572
0.00047326
-0.000130486
0.000470108
-0.000127963
0.000452235
-0.000108986
0.000419168
-6.92582e-05
0.000369153
-3.81915e-06
0.000297125
9.58221e-05
0.000205445
0.000240124
5.63484e-05
0.00041822
-5.44678e-05
-0.000357192
0.000691098
-6.68704e-06
0.000122864
-2.19963e-05
0.000280433
-4.132e-05
0.00038395
-6.02927e-05
0.000445188
-7.48219e-05
0.000474573
-8.09272e-05
0.000479366
-7.44811e-05
0.000463662
-5.09433e-05
0.000428698
-5.12501e-06
0.00037335
6.91867e-05
0.000294842
0.000179622
0.000186689
0.000330974
5.40936e-05
0.000545857
-0.000158534
0.000800309
-0.000308921
-0.000731698
0.00117482
-5.46055e-06
0.000128325
-1.75162e-05
0.000292489
-3.14827e-05
0.000397916
-4.27615e-05
0.000456467
-4.68274e-05
0.000478638
-3.90404e-05
0.000471579
-1.4352e-05
0.000438974
3.30081e-05
0.000381338
0.000109869
0.00029649
0.00022396
0.00018075
0.000385383
2.52661e-05
0.000601475
-0.000161999
0.00089646
-0.000453518
0.00124483
-0.000657291
-0.00122265
0.00173579
-4.39234e-06
0.000132717
-1.33252e-05
0.000301422
-2.1886e-05
0.000406477
-2.51213e-05
0.000459702
-1.79453e-05
0.000471462
5.1111e-06
0.000448522
5.0257e-05
0.000393828
0.000124772
0.000306822
0.00023739
0.000183873
0.000398187
1.99534e-05
0.000618688
-0.000195235
0.000911497
-0.000454808
0.001296
-0.000838017
0.00175298
-0.00111427
-0.00183886
0.00236918
-3.50763e-06
0.000136225
-9.47856e-06
0.000307393
-1.25956e-05
0.000409594
-7.39247e-06
0.000454499
1.19497e-05
0.00045212
5.19663e-05
0.000408506
0.000120319
0.000325475
0.000226163
0.000200978
0.000380447
2.95886e-05
0.000596
-0.0001956
0.000884799
-0.000484034
0.00126542
-0.000835433
0.00174668
-0.00131927
0.00232031
-0.0016879
-0.0025724
0.00305386
-2.81258e-06
0.000139037
-5.97173e-06
0.000310552
-3.55718e-06
0.00040718
1.06054e-05
0.000440337
4.33123e-05
0.000419413
0.000102463
0.000349354
0.00019755
0.000230389
0.000339977
5.85507e-05
0.000543071
-0.000173505
0.000822302
-0.000474831
0.00118925
-0.00085098
0.00166479
-0.00131097
0.00224476
-0.00189925
0.00293189
-0.00237503
-0.00339137
0.00375085
-2.29154e-06
0.000141329
-2.72617e-06
0.000310986
5.41501e-06
0.000399038
2.92949e-05
0.000416457
7.69816e-05
0.000371727
0.000158118
0.000268218
0.000284429
0.000104078
0.00046986
-0.000126881
0.000729935
-0.000433579
0.0010814
-0.0008263
0.00153485
-0.00130443
0.002105
-0.00188112
0.00277541
-0.00256966
0.00355648
-0.00315609
-0.0042434
0.00440851
-1.90765e-06
0.000143237
4.33798e-07
0.000308645
1.46598e-05
0.000384812
4.93586e-05
0.000381758
0.0001142
0.000306885
0.000220998
0.00016142
0.000384061
-5.89851e-05
0.000619834
-0.000362654
0.000945213
-0.000758959
0.00137517
-0.00125625
0.00191759
-0.00184685
0.00257178
-0.00253531
0.00331048
-0.00330836
0.00414616
-0.00399178
-0.00507059
0.00497334
-1.61146e-06
0.000144848
3.55175e-06
0.000303482
2.46579e-05
0.000363706
7.17321e-05
0.000334684
0.00015658
0.000222037
0.000293607
2.43936e-05
0.000499817
-0.000265196
0.000793445
-0.000656282
0.00119077
-0.00115629
0.00170062
-0.0017661
0.00232372
-0.00246995
0.0030391
-0.00325068
0.0038112
-0.00408046
0.00464677
-0.00482735
-0.00582633
0.00540252
-1.31496e-06
0.000146163
7.0966e-06
0.00029507
3.60434e-05
0.000334759
9.75642e-05
0.000273163
0.000206
0.000113602
0.000378614
-0.00014822
0.000634717
-0.000521299
0.000992539
-0.0010141
0.00146412
-0.00162787
0.00204747
-0.00234945
0.00272999
-0.00315248
0.00347246
-0.00399315
0.00423621
-0.00484422
0.00501629
-0.00560743
-0.00648554
0.00567549
-8.8258e-07
0.000147046
1.13523e-05
0.000282835
4.95347e-05
0.000296577
0.000128141
0.000194556
0.000264427
-2.26842e-05
0.000478443
-0.000362236
0.000790556
-0.000833412
0.0012158
-0.00143934
0.00175689
-0.00216896
0.00239724
-0.0029898
0.00310727
-0.00386251
0.00383777
-0.00472365
0.00455318
-0.00555962
0.00523823
-0.00629248
-0.00704401
0.0057967
-1.49381e-07
0.000147195
1.6678e-05
0.000266008
6.58968e-05
0.000247358
0.000164771
9.56819e-05
0.000333662
-0.000191574
0.000594724
-0.000623299
0.000966894
-0.00120558
0.00145743
-0.00192988
0.00205457
-0.0027661
0.00272575
-0.00366098
0.00342712
-0.00456388
0.00411107
-0.0054076
0.00474883
-0.00619738
0.00532025
-0.00686391
-0.00751811
0.00579435
8.05246e-07
0.00014639
2.3424e-05
0.000243389
8.58822e-05
0.0001849
0.000208649
-2.70847e-05
0.000415028
-0.000397953
0.000727665
-0.000935936
0.00116014
-0.00163805
0.00170672
-0.00247646
0.00233819
-0.00339758
0.00300875
-0.00433154
0.00366916
-0.00522429
0.00428324
-0.00602168
0.0048317
-0.00674583
0.00530367
-0.00733588
-0.0079364
0.00572197
2.19568e-06
0.000144194
3.19372e-05
0.000213648
0.000110163
0.000106674
0.0002607
-0.000177621
0.000509032
-0.000646286
0.000875438
-0.00130234
0.00136308
-0.0021257
0.00194909
-0.00306246
0.00258808
-0.00403657
0.00322812
-0.00497158
0.00382538
-0.00582155
0.00435919
-0.00655549
0.00481944
-0.00720608
0.00522549
-0.00774193
-0.00829931
0.00558839
4.12402e-06
0.00014007
4.2514e-05
0.000175258
0.000139272
9.91612e-06
0.000321428
-0.000359777
0.00061502
-0.000939878
0.00103376
-0.00172109
0.00156531
-0.00265725
0.00216869
-0.00366584
0.00278838
-0.00465627
0.00337551
-0.00555871
0.00389932
-0.00634535
0.00435365
-0.00700982
0.00474318
-0.00759561
0.00509075
-0.0080895
-0.00861145
0.0054029
6.65681e-06
0.000133413
5.53783e-05
0.000126536
0.000173541
-0.000108246
0.000390762
-0.000576999
0.000730881
-0.00128
0.00119593
-0.00218613
0.00175473
-0.00321605
0.00235175
-0.00426286
0.00293025
-0.00523477
0.00345212
-0.00608058
0.00390203
-0.00679526
0.0042867
-0.00739449
0.0046185
-0.00792741
0.00492106
-0.00839206
-0.00889551
0.00520512
9.84767e-06
0.000123566
7.06769e-05
6.5707e-05
0.000213058
-0.000250627
0.000467911
-0.000831852
0.000852906
-0.00166499
0.00135343
-0.00268666
0.00191977
-0.00378238
0.00248922
-0.00483231
0.00301238
-0.00575792
0.00346573
-0.00653393
0.00384816
-0.00717769
0.00417471
-0.00772105
0.00446153
-0.00821422
0.00473118
-0.00866171
-0.00915366
0.00498933
1.37329e-05
0.000109833
8.84719e-05
-9.03198e-06
0.000257622
-0.000419777
0.000551236
-0.00112547
0.00097593
-0.00208969
0.00149731
-0.00320804
0.0020516
-0.00433667
0.00257772
-0.00535844
0.00303924
-0.00621943
0.00342733
-0.00692203
0.0037516
-0.00750196
0.00403144
-0.00800088
0.00428346
-0.00846625
0.0045266
-0.00890485
-0.00939134
0.00476427
1.8332e-05
9.15008e-05
0.000108735
-9.94347e-05
0.000306694
-0.000617737
0.000638204
-0.00145698
0.00109385
-0.00254533
0.00161964
-0.00373383
0.00214531
-0.00486233
0.00261879
-0.00583192
0.00301859
-0.00661923
0.00334828
-0.00725172
0.00362423
-0.00777791
0.00386692
-0.00824357
0.00409133
-0.00869065
0.00431289
-0.00912642
-0.0096107
0.00453226
2.36488e-05
6.7852e-05
0.000131339
-0.000207125
0.000359348
-0.000845747
0.000725461
-0.00182309
0.00120049
-0.00302036
0.00171479
-0.00424813
0.00219991
-0.00534746
0.0026172
-0.0062492
0.00295927
-0.00696131
0.00323872
-0.00753118
0.00347525
-0.00801444
0.00368816
-0.00845648
0.00388997
-0.00889247
0.00409256
-0.009329
-0.00981286
0.00429472
2.96713e-05
3.81806e-05
0.000156048
-0.000333502
0.000414232
-0.00110393
0.00080912
-0.00221798
0.0012905
-0.00350174
0.0017799
-0.00473752
0.00221749
-0.00578505
0.00257934
-0.00661105
0.00286977
-0.00725173
0.00310701
-0.00776842
0.00331142
-0.00821885
0.0034999
-0.00864495
0.00368225
-0.00907482
0.00386738
-0.00951413
-0.00999848
0.004053
3.637e-05
1.81064e-06
0.000182499
-0.000479631
0.00046958
-0.00139101
0.000885214
-0.00263361
0.00136011
-0.00397663
0.00181472
-0.00519213
0.00220202
-0.00617235
0.00251195
-0.00692098
0.00275748
-0.00749726
0.0029596
-0.00797055
0.00313753
-0.00839678
0.00330521
-0.00881263
0.00347001
-0.00923963
0.00363843
-0.00968255
-0.0101676
0.00380758
4.36943e-05
-4.18836e-05
0.000210181
-0.000646118
0.000523309
-0.00170414
0.000950207
-0.00306051
0.00140732
-0.00443375
0.00182092
-0.00560573
0.00215835
-0.00650978
0.00242131
-0.00718394
0.00262846
-0.00770441
0.0028013
-0.00814339
0.00295684
-0.00855232
0.0031061
-0.0089619
0.00325441
-0.00938794
0.00340643
-0.00983456
-0.0103203
0.00355911
5.1573e-05
-9.34566e-05
0.000238423
-0.000832968
0.000573196
-0.00203891
0.00100141
-0.00348873
0.00143185
-0.00486419
0.00180142
-0.0059753
0.0020915
-0.00679986
0.00231292
-0.00740537
0.00248745
-0.00787894
0.00263555
-0.00829149
0.00277157
-0.00868834
0.00290388
-0.0090942
0.00303624
-0.0095203
0.00317195
-0.00997027
-0.0104564
0.00330801
5.99049e-05
-0.000153362
0.000266403
-0.00103947
0.000617113
-0.00238962
0.00103722
-0.00390883
0.00143471
-0.00526168
0.00175973
-0.00630032
0.00200614
-0.00704627
0.00219132
-0.00759054
0.00233805
-0.00802567
0.0024648
-0.00841824
0.00258321
-0.00880675
0.00269943
-0.00921042
0.00281608
-0.00963696
0.00293544
-0.0100896
-0.0105757
0.00305473
6.85588e-05
-0.00022192
0.000293194
-0.0012641
0.000653247
-0.00274967
0.00105707
-0.00431265
0.00141779
-0.0056224
0.00169948
-0.00658201
0.00190642
-0.00725321
0.00206014
-0.00774425
0.00218293
-0.00814847
0.00229077
-0.00852608
0.00239279
-0.00890877
0.00249338
-0.00931101
0.00259439
-0.00973797
0.00269733
-0.0101926
-0.010678
0.00279971
7.7369e-05
-0.000299289
0.000317824
-0.00150456
0.000680275
-0.00311213
0.00106129
-0.00469367
0.00138344
-0.00594455
0.00162416
-0.00682273
0.00179585
-0.00742491
0.00192221
-0.00787061
0.00202403
-0.00825029
0.00211465
-0.00861669
0.00220102
-0.00899514
0.00228623
-0.00939622
0.00237157
-0.00982331
0.002458
-0.010279
-0.0107634
0.00254335
8.61342e-05
-0.000385424
0.000339368
-0.00175779
0.000697439
-0.0034702
0.00105088
-0.00504711
0.0013342
-0.00622788
0.00153689
-0.00702541
0.0016773
-0.00756532
0.00177971
-0.00797303
0.00186277
-0.00833334
0.00193729
-0.00869121
0.00200845
-0.0090663
0.00207838
-0.00946615
0.00214801
-0.00989294
0.00221785
-0.0103488
-0.0108316
0.0022861
9.46212e-05
-0.000480045
0.000357016
-0.00202018
0.000704534
-0.00381771
0.00102722
-0.00536979
0.00127259
-0.00647325
0.00144042
-0.00719324
0.00155309
-0.007678
0.00163428
-0.00805421
0.00170017
-0.00839923
0.00175933
-0.00875038
0.00181553
-0.0091225
0.00187021
-0.00952084
0.00192406
-0.00994678
0.00197726
-0.010402
-0.0108827
0.00202837
0.000102575
-0.00058262
0.000370133
-0.00228774
0.000701819
-0.0041494
0.000991934
-0.00565991
0.00120094
-0.00668226
0.00133707
-0.00732936
0.00142506
-0.00776599
0.00148713
-0.00811628
0.00153698
-0.00844909
0.00158125
-0.00879464
0.00162261
-0.00916387
0.00166206
-0.00956029
0.00170008
-0.0099848
0.00173664
-0.0104386
-0.0109167
0.00177063
0.000109737
-0.000692357
0.000378295
-0.0025563
0.000689899
-0.004461
0.000946702
-0.00591671
0.00112137
-0.00685692
0.00122877
-0.00743676
0.00129462
-0.00783185
0.00133918
-0.00816084
0.00137379
-0.00848369
0.00140344
-0.00882429
0.00143004
-0.00919047
0.00145425
-0.0095845
0.00147642
-0.010007
0.00149639
-0.0104586
-0.0109337
0.00151337
0.000115857
-0.000808214
0.000381295
-0.00282174
0.000669602
-0.00474931
0.000893169
-0.00614028
0.00103572
-0.00699947
0.00111708
-0.00751813
0.00116289
-0.00787766
0.00119115
-0.00818909
0.00121102
-0.00850357
0.00122624
-0.00883951
0.0012381
-0.00920233
0.00124707
-0.00959347
0.0012534
-0.0100133
0.0012569
-0.0104621
-0.0109339
0.00125714
0.000120716
-0.00092893
0.000379134
-0.00308016
0.000641882
-0.00501206
0.00083288
-0.00633128
0.000945581
-0.00711217
0.00100329
-0.00757583
0.00103072
-0.0079051
0.00104355
-0.00820192
0.00104906
-0.00850907
0.00104995
-0.0088404
0.0010471
-0.00919948
0.00104082
-0.00958719
0.00103131
-0.0100038
0.00101846
-0.0104492
-0.0109175
0.00100205
0.000124131
-0.00105306
0.00037199
-0.00332802
0.000607737
-0.00524781
0.000767241
-0.00649078
0.000852297
-0.00719723
0.000888389
-0.00761193
0.000898774
-0.00791548
0.00089682
-0.00819996
0.000888205
-0.00850046
0.000874849
-0.00882704
0.000857317
-0.00918195
0.000835784
-0.00956565
0.000810425
-0.00997844
0.000781256
-0.01042
-0.0108842
0.000747941
0.000125964
-0.00117902
0.000360176
-0.00356223
0.000568159
-0.00545579
0.000697503
-0.00662012
0.000756982
-0.00725671
0.000773197
-0.00762814
0.000767563
-0.00790985
0.000751294
-0.00818369
0.000728733
-0.0084779
0.000701206
-0.00879952
0.000669045
-0.00914979
0.000632306
-0.00952892
0.000591099
-0.00993723
0.000545422
-0.0103744
-0.010834
0.000495162
0.000126128
-0.00130515
0.000344094
-0.00378019
0.000524092
-0.00563579
0.00062476
-0.00672079
0.000660559
-0.00729251
0.00065835
-0.00762593
0.000637498
-0.007889
0.00060726
-0.00815346
0.000570894
-0.00844153
0.000529274
-0.0087579
0.000482563
-0.00910308
0.000430743
-0.0094771
0.000373853
-0.00988034
0.000311273
-0.0103118
-0.0107664
0.000243742
0.000124597
-0.00142975
0.000324262
-0.00397986
0.000476428
-0.00578795
0.000549955
-0.00679432
0.000563782
-0.00730633
0.000544353
-0.0076065
0.000508905
-0.00785355
0.000464966
-0.00810952
0.000414919
-0.00839149
0.0003593
-0.00870228
0.000298119
-0.0090419
0.00023137
-0.00941035
0.000159025
-0.009808
8.0881e-05
-0.0102336
-0.0106761
-9.45452e-06
0.000121399
-0.00155115
0.000301244
-0.0041597
0.000425985
-0.00591269
0.000473894
-0.00684223
0.000467265
-0.0072997
0.000431606
-0.00757084
0.000382053
-0.007804
0.000324631
-0.00805209
0.000261012
-0.00832787
0.000191516
-0.00863278
0.000115931
-0.00896631
3.41206e-05
-0.00932854
-5.34934e-05
-0.00972038
-0.000147496
-0.0101396
-0.0105738
-0.000249766
0.00011661
-0.00166776
0.000275539
-0.00431863
0.000373495
-0.00601065
0.000397257
-0.00686599
0.000371502
-0.00727395
0.000320432
-0.00751977
0.00025718
-0.00774074
0.000186435
-0.00798135
0.000109314
-0.00825075
2.5867e-05
-0.00854933
-6.36386e-05
-0.00887681
-0.000159647
-0.00923253
-0.000262304
-0.00961772
-0.000372983
-0.010029
-0.0104569
-0.000489907
0.000110345
-0.0017781
0.000247631
-0.00445592
0.0003196
-0.00608262
0.000320613
-0.006867
0.000276886
-0.00723022
0.000211103
-0.00745399
0.00013446
-0.0076641
5.03699e-05
-0.00789726
-3.99796e-05
-0.0081604
-0.000136581
-0.00845273
-0.00024014
-0.00877325
-0.000350599
-0.00912207
-0.000468404
-0.00949992
-0.000594303
-0.00990306
-0.0103243
-0.000726871
0.000102748
-0.00188085
0.000217981
-0.00457115
0.000264865
-0.0061295
0.000244434
-0.00684657
0.000183741
-0.00716953
0.000103828
-0.00737408
1.35437e-05
-0.00757382
-8.28945e-05
-0.00780082
-0.000186145
-0.00805715
-0.000296343
-0.00834253
-0.000413675
-0.00865591
-0.000538383
-0.00899736
-0.000670993
-0.00936731
-0.000811803
-0.00976225
-0.0101763
-0.000959886
9.39846e-05
-0.00197484
0.000187024
-0.00466419
0.000209784
-0.00615226
0.000169092
-0.00680588
9.23362e-05
-0.00709277
-2.15214e-06
-0.00727959
-0.00010391
-0.00747206
-0.000213351
-0.00769138
-0.000329654
-0.00794085
-0.000453092
-0.0082191
-0.000583965
-0.00852504
-0.000722655
-0.00885867
-0.000869725
-0.00922024
-0.00102528
-0.00960669
-0.010013
-0.00118857
8.42302e-05
-0.00205907
0.000155169
-0.00473513
0.000154789
-0.00615188
9.48854e-05
-0.00674598
2.04248e-06
-0.00699993
-0.000103835
-0.00717371
-0.000218986
-0.00735691
-0.000341078
-0.00756929
-0.000470174
-0.00781175
-0.00060661
-0.00808266
-0.000750776
-0.00838087
-0.000903156
-0.00870629
-0.00106436
-0.00905903
-0.00123445
-0.0094366
-0.00983483
-0.00141259
7.36614e-05
-0.00213273
0.000122796
-0.00478427
0.000100228
-0.00612931
2.2322e-05
-0.00666807
-8.41295e-05
-0.00689348
-0.000203833
-0.00705401
-0.000331378
-0.00722936
-0.000465877
-0.00743479
-0.000607523
-0.0076701
-0.000756716
-0.00793347
-0.000913905
-0.00822368
-0.00107966
-0.00854054
-0.00125467
-0.00888402
-0.00143902
-0.00925226
-0.0096422
-0.00163164
6.24591e-05
-0.00219519
9.02464e-05
-0.00481205
4.64603e-05
-0.00608553
-4.85271e-05
-0.00657308
-0.000168971
-0.00677304
-0.000301239
-0.00692174
-0.000440931
-0.00708967
-0.000587593
-0.00728813
-0.000741548
-0.00751615
-0.000903241
-0.00777177
-0.00107316
-0.00805376
-0.00125196
-0.00836175
-0.00144045
-0.00869552
-0.00163872
-0.00905399
-0.00943558
-0.00184535
5.08304e-05
-0.00224602
5.78521e-05
-0.00481908
-5.89644e-06
-0.00602178
-0.000117526
-0.00646145
-0.000251489
-0.00663907
-0.000395927
-0.0067773
-0.000547512
-0.00693809
-0.000706096
-0.00712954
-0.000872104
-0.00735014
-0.00104603
-0.00759785
-0.00122838
-0.00787141
-0.00141988
-0.00817026
-0.00162148
-0.00849392
-0.00183327
-0.0088422
-0.00921565
-0.0020532
3.89937e-05
-0.00228501
2.62402e-05
-0.00480632
-5.81104e-05
-0.00593743
-0.000184719
-0.00633484
-0.000331528
-0.00649226
-0.000487807
-0.00662102
-0.000651018
-0.00677488
-0.000821265
-0.00695929
-0.000999058
-0.00717235
-0.00118492
-0.00741199
-0.0013794
-0.00767693
-0.00158325
-0.0079664
-0.00179757
-0.0082796
-0.00202234
-0.00861742
-0.00898308
-0.00225491
2.69704e-05
-0.00231198
-3.17809e-06
-0.00477617
-0.000107952
-0.00583265
-0.000249865
-0.00619293
-0.000409024
-0.0063331
-0.000576791
-0.00645326
-0.000751346
-0.00660032
-0.000932983
-0.00677766
-0.00112228
-0.00698305
-0.00131979
-0.00721448
-0.00152606
-0.00747066
-0.00174192
-0.00775054
-0.00196854
-0.00805298
-0.00220587
-0.00838009
-0.00873798
-0.00245098
1.44668e-05
-0.00232645
-3.82784e-05
-0.00472343
-0.000157076
-0.00571386
-0.000312804
-0.0060372
-0.000483876
-0.00616203
-0.000662799
-0.00627433
-0.000848403
-0.00641472
-0.00104114
-0.00658492
-0.00124165
-0.00678255
-0.00145049
-0.00700563
-0.00166825
-0.00725289
-0.00189577
-0.00752302
-0.0021343
-0.00781445
-0.00238405
-0.00813034
-0.00848049
-0.00264154
2.23031e-06
-0.00232868
-7.00334e-05
-0.00465116
-0.00020474
-0.00557915
-0.000373467
-0.00586848
-0.000555989
-0.00597951
-0.000745751
-0.00608457
-0.000942097
-0.00621837
-0.00114563
-0.00638139
-0.00135704
-0.00657114
-0.00157693
-0.00678574
-0.00180591
-0.00702391
-0.00204484
-0.00728409
-0.0022948
-0.00756449
-0.00255607
-0.00786907
-0.00821223
-0.00282433
-1.06396e-05
-0.00231804
-0.000100452
-0.00456135
-0.000250657
-0.00542895
-0.000431807
-0.00568732
-0.000625308
-0.00578601
-0.00082557
-0.00588431
-0.00103234
-0.0060116
-0.00124634
-0.00616738
-0.00146832
-0.00634916
-0.00169895
-0.00655512
-0.00193895
-0.00678391
-0.00218923
-0.00703381
-0.00245024
-0.00730348
-0.00272005
-0.00759926
-0.00793233
-0.00299995
-2.30563e-05
-0.00229498
-0.000129738
-0.00445467
-0.000294709
-0.00526398
-0.00048774
-0.00549429
-0.000691782
-0.00558197
-0.00090219
-0.0056739
-0.00111904
-0.00579475
-0.00134317
-0.00594325
-0.00157538
-0.00611696
-0.00181642
-0.00631408
-0.00206717
-0.00653316
-0.00232858
-0.0067724
-0.00260108
-0.00703098
-0.00288553
-0.00731481
-0.00765815
-0.00315971
-3.50623e-05
-0.00225992
-0.000157893
-0.00433184
-0.000336846
-0.00508502
-0.000541205
-0.00528993
-0.000755359
-0.00536781
-0.000975547
-0.00545371
-0.00120213
-0.00556817
-0.00143602
-0.00570935
-0.00167809
-0.00587489
-0.00192917
-0.006063
-0.00219024
-0.00627209
-0.00246213
-0.00650051
-0.00274404
-0.00674906
-0.00303415
-0.00702471
-0.00732267
-0.00336963
-4.66669e-05
-0.00221325
-0.000184877
-0.00419363
-0.000377028
-0.00489287
-0.000592156
-0.00507481
-0.000815996
-0.00514397
-0.00104558
-0.00522413
-0.00128151
-0.00533224
-0.0015248
-0.00546607
-0.00177635
-0.00562334
-0.0020371
-0.00580225
-0.00230796
-0.00600123
-0.00258924
-0.00621923
-0.00288031
-0.00645799
-0.00318528
-0.00671974
-0.00699049
-0.00351747
-5.78336e-05
-0.00215542
-0.000210641
-0.00404082
-0.000415223
-0.00468829
-0.000640558
-0.00484947
-0.00087365
-0.00491088
-0.00111224
-0.00498554
-0.00135713
-0.00508735
-0.0016094
-0.0052138
-0.00187004
-0.0053627
-0.00214005
-0.00553224
-0.00242033
-0.00572095
-0.00271133
-0.00592822
-0.00301391
-0.00615541
-0.00333227
-0.00640137
-0.00665509
-0.00366767
-6.85254e-05
-0.00208689
-0.000235138
-0.00387421
-0.000451402
-0.00447203
-0.000686386
-0.00461449
-0.000928285
-0.00466898
-0.00117546
-0.00473836
-0.00142891
-0.0048339
-0.00168975
-0.00495296
-0.00195906
-0.00509339
-0.00223784
-0.00525346
-0.00252696
-0.00543183
-0.00282706
-0.00562812
-0.00313954
-0.00584292
-0.00346735
-0.00607357
-0.00631267
-0.00380978
-7.87503e-05
-0.00200814
-0.000258333
-0.00369463
-0.000485541
-0.00424482
-0.000729614
-0.00437042
-0.000979867
-0.00441873
-0.00123521
-0.00448302
-0.00149678
-0.00457234
-0.00176577
-0.00468397
-0.0020433
-0.00481586
-0.00233041
-0.00496635
-0.00262802
-0.00513423
-0.00293699
-0.00531915
-0.00325883
-0.00552109
-0.00359532
-0.00573707
-0.00596236
-0.00394563
-8.84689e-05
-0.00191967
-0.000280194
-0.0035029
-0.000517617
-0.0040074
-0.000770223
-0.00411781
-0.00102836
-0.00416059
-0.00129143
-0.00421995
-0.00156068
-0.00430309
-0.00183737
-0.00440728
-0.00212266
-0.00453057
-0.00241763
-0.00467138
-0.00272322
-0.00482863
-0.00304046
-0.00500192
-0.00337074
-0.00519081
-0.00371533
-0.00539248
-0.0056039
-0.00407378
-9.76455e-05
-0.00182203
-0.000300692
-0.00329985
-0.000547612
-0.00376048
-0.000808194
-0.00385723
-0.00107375
-0.00389503
-0.00134408
-0.00394962
-0.00162056
-0.00402661
-0.00190449
-0.00412334
-0.00219708
-0.00423798
-0.00249942
-0.00436904
-0.00281254
-0.00451551
-0.00313751
-0.00467695
-0.0034756
-0.00485271
-0.00382787
-0.00504021
-0.00523761
-0.00419417
-0.000106252
-0.00171578
-0.000319802
-0.0030863
-0.000575513
-0.00350476
-0.000843513
-0.00358923
-0.001116
-0.00362255
-0.00139313
-0.00367248
-0.00167637
-0.00374338
-0.00196707
-0.00383265
-0.00226646
-0.00393859
-0.0025757
-0.0040598
-0.00289583
-0.00419538
-0.00322795
-0.00434482
-0.00357328
-0.00450739
-0.00393277
-0.00468073
-0.00486388
-0.0043065
-0.000114265
-0.00160151
-0.000337501
-0.00286307
-0.000601305
-0.00324096
-0.000876165
-0.00331437
-0.00115508
-0.00334363
-0.00143854
-0.00338903
-0.00172806
-0.00345386
-0.00202504
-0.00353566
-0.00233076
-0.00363287
-0.00264638
-0.00374418
-0.00297301
-0.00386875
-0.00331174
-0.00400609
-0.00366375
-0.00415538
-0.00402996
-0.00431452
-0.00448322
-0.00441063
-0.000121665
-0.00147985
-0.000353774
-0.00263096
-0.000624977
-0.00296976
-0.000906137
-0.00303321
-0.00119099
-0.00305878
-0.00148027
-0.00309975
-0.00177558
-0.00315854
-0.00207835
-0.00323289
-0.00238989
-0.00332133
-0.0027114
-0.00342268
-0.00304399
-0.00353615
-0.0033888
-0.00366128
-0.00374694
-0.00379723
-0.00411936
-0.0039421
-0.00409615
-0.00450643
-0.000128435
-0.00135141
-0.000368604
-0.00239079
-0.000646521
-0.00269184
-0.000933418
-0.00274631
-0.00122369
-0.00276851
-0.0015183
-0.00280514
-0.0018189
-0.00285794
-0.00212696
-0.00292482
-0.00244382
-0.00300448
-0.00277069
-0.00309581
-0.00310872
-0.00319812
-0.00345905
-0.00331096
-0.00382279
-0.00343349
-0.00420086
-0.00356403
-0.00370322
-0.00459379
-0.000134563
-0.00121685
-0.000381981
-0.00214337
-0.000665929
-0.00240789
-0.000957998
-0.00245424
-0.00125316
-0.00247335
-0.00155259
-0.00250571
-0.00185798
-0.00255255
-0.00217083
-0.00261198
-0.00249248
-0.00268282
-0.0028242
-0.00276409
-0.00316714
-0.00285518
-0.00352244
-0.00295565
-0.00389123
-0.00306471
-0.00427441
-0.00318085
-0.00330501
-0.00467262
-0.000140036
-0.00107681
-0.000393892
-0.00188952
-0.000683195
-0.00211859
-0.000979869
-0.00215757
-0.00127941
-0.00217381
-0.00158314
-0.00220198
-0.0018928
-0.00224289
-0.00220991
-0.00229487
-0.00253584
-0.00235688
-0.00287187
-0.00242806
-0.00321918
-0.00250787
-0.00357892
-0.00259591
-0.0039522
-0.00269143
-0.00433992
-0.00279313
-0.0029021
-0.00474283
-0.000144845
-0.000931968
-0.00040433
-0.00163003
-0.000698312
-0.00182461
-0.000999022
-0.00185686
-0.0013024
-0.00187043
-0.00160991
-0.00189447
-0.00192332
-0.00192948
-0.00224417
-0.00197402
-0.00257386
-0.00202719
-0.00291368
-0.00208825
-0.00326482
-0.00215673
-0.00362844
-0.00223229
-0.00400564
-0.00231423
-0.00439734
-0.00240143
-0.00249509
-0.00480435
-0.00014898
-0.000782988
-0.000413289
-0.00136572
-0.000711277
-0.00152662
-0.00101545
-0.00155268
-0.00132213
-0.00156376
-0.00163289
-0.00158371
-0.00194952
-0.00161284
-0.00227359
-0.00164995
-0.00260651
-0.00169427
-0.00294957
-0.00174518
-0.003304
-0.0018023
-0.00367096
-0.00186533
-0.00405153
-0.00193366
-0.00444661
-0.00200635
-0.00208456
-0.00485714
-0.000152436
-0.000630551
-0.000420762
-0.0010974
-0.000722087
-0.0012253
-0.00102915
-0.00124562
-0.00133858
-0.00125433
-0.00165206
-0.00127024
-0.00197138
-0.00129352
-0.00229814
-0.00132319
-0.00263375
-0.00135865
-0.00297953
-0.00139941
-0.0033367
-0.00144514
-0.00370643
-0.0014956
-0.00408981
-0.00155029
-0.00448771
-0.00160844
-0.00167111
-0.00490116
-0.000155207
-0.000475344
-0.000426746
-0.000825857
-0.000730737
-0.000921305
-0.00104011
-0.000936242
-0.00135176
-0.000942683
-0.00166741
-0.000954587
-0.00198889
-0.000972031
-0.0023178
-0.000994281
-0.00265558
-0.00102088
-0.00300353
-0.00105146
-0.00336289
-0.00108577
-0.00373484
-0.00112364
-0.00412046
-0.00116467
-0.00452061
-0.00120829
-0.00125535
-0.00493637
-0.000157289
-0.000318055
-0.000431237
-0.00055191
-0.000737227
-0.000615315
-0.00104834
-0.000625127
-0.00136164
-0.00062938
-0.00167893
-0.000637301
-0.00200204
-0.000648923
-0.00233257
-0.000663754
-0.00267196
-0.00068149
-0.00302154
-0.000701878
-0.00338255
-0.000724764
-0.00375617
-0.000750023
-0.00414346
-0.00077738
-0.00454529
-0.000806457
-0.000837856
-0.00496279
-0.000158679
-0.000159376
-0.000434232
-0.000276357
-0.000741555
-0.000307991
-0.00105383
-0.000312855
-0.00136824
-0.000314968
-0.00168662
-0.000318925
-0.00201081
-0.000324733
-0.00234241
-0.000332148
-0.00268289
-0.000341016
-0.00303355
-0.000351212
-0.00339566
-0.000362657
-0.00377039
-0.00037529
-0.0041588
-0.00038897
-0.00456175
-0.000403508
-0.000419215
-0.00498039
-0.000159374
-1.2789e-09
-0.000435729
-2.10762e-09
-0.000743719
-2.23186e-09
-0.00105657
-2.14967e-09
-0.00137154
-2.03741e-09
-0.00169046
-1.92511e-09
-0.00201519
-1.81413e-09
-0.00234734
-1.70483e-09
-0.00268835
-1.59753e-09
-0.00303956
-1.4926e-09
-0.00340222
-1.39054e-09
-0.00377751
-1.29192e-09
-0.00416648
-1.19646e-09
-0.00456998
-1.1027e-09
-1.01245e-09
-0.0049892
-0.000159374
0.000159373
-0.000435729
0.000276353
-0.000743719
0.000307987
-0.00105657
0.00031285
-0.00137154
0.000314964
-0.00169046
0.000318921
-0.00201519
0.00032473
-0.00234734
0.000332144
-0.00268835
0.000341013
-0.00303956
0.000351209
-0.00340222
0.000362655
-0.00377751
0.000375287
-0.00416647
0.000388967
-0.00456998
0.000403505
0.000419213
-0.0049892
-0.000158679
0.000318052
-0.000434232
0.000551906
-0.000741555
0.00061531
-0.00105383
0.000625123