/*--------------------------------*- C++ -*----------------------------------*\
  =========                 |
  \\      /  F ield         | OpenFOAM: The Open Source CFD Toolbox
   \\    /   O peration     | Website:  https://openfoam.org
    \\  /    A nd           | Version:  7
     \\/     M anipulation  |
\*---------------------------------------------------------------------------*/
FoamFile
{
    version     2.0;
    format      ascii;
    class       surfaceScalarField;
    location    "80";
    object      phi;
}
// * * * * * * * * * * * * * * * * * * * * * * * * * * * * * * * * * * * * * //

dimensions      [0 3 -1 0 0 0 0];

internalField   nonuniform List<scalar> 
11803
(
-4.11532e-05
4.12422e-05
-0.000129344
8.807e-05
-0.000241612
0.000111852
-0.000364178
0.000121908
-0.000490264
0.000125266
-0.00061728
0.000126089
-0.000744613
0.000126318
-0.000872355
0.000126639
-0.00100077
0.000127223
-0.00113014
0.000128082
-0.00126073
0.000129198
-0.00139278
0.000130554
-0.00152651
0.000132132
-0.00166214
0.00013392
-0.00179987
0.000135906
-0.00193988
0.000138082
-0.00208236
0.000140437
-0.00222749
0.000142967
-0.00237542
0.000145664
-0.00252633
0.000148525
-0.00268037
0.000151547
-0.0028377
0.000154728
-0.00299848
0.000158059
-0.00316282
0.000161518
0.000165133
-0.00333089
-4.10679e-05
8.23101e-05
-0.000129119
0.000176121
-0.000241249
0.000223981
-0.000363691
0.00024435
-0.000489666
0.000251241
-0.00061658
0.000253004
-0.000743815
0.000253552
-0.00087146
0.000254285
-0.000999781
0.000255544
-0.00112906
0.000257358
-0.00125955
0.000259691
-0.0013915
0.000262506
-0.00152514
0.000265769
-0.00166067
0.000269454
-0.0017983
0.000273537
-0.00193822
0.000277998
-0.0020806
0.000282821
-0.00222563
0.000287992
-0.00237346
0.000293499
-0.00252427
0.000299333
-0.00267821
0.000305487
-0.00283544
0.000311959
-0.00299611
0.00031873
-0.00316035
0.000325756
0.000333092
-0.00332831
-4.08947e-05
0.000123205
-0.000128663
0.00026389
-0.000240509
0.000335827
-0.000362698
0.00036654
-0.000488449
0.000376992
-0.000615155
0.00037971
-0.000742189
0.000380587
-0.000869638
0.000381733
-0.000997764
0.000383671
-0.00112685
0.000386441
-0.00125715
0.000389992
-0.00138891
0.000394266
-0.00152235
0.000399214
-0.00165769
0.000404795
-0.00179513
0.000410973
-0.00193485
0.00041772
-0.00207704
0.000425009
-0.00222187
0.00043282
-0.0023695
0.000441134
-0.00252011
0.000449938
-0.00267384
0.000459222
-0.00283087
0.000468982
-0.00299133
0.00047919
-0.00315535
0.000489781
0.000500833
-0.00332309
-4.06336e-05
0.000163838
-0.000127975
0.000351231
-0.000239392
0.000447244
-0.000361201
0.000488349
-0.000486613
0.000502404
-0.000613006
0.000506102
-0.000739738
0.000507319
-0.00086689
0.000508885
-0.000994723
0.000511504
-0.00112351
0.000515233
-0.00125353
0.000520002
-0.001385
0.000525737
-0.00151815
0.00053237
-0.0016532
0.000539846
-0.00179035
0.000548119
-0.00192978
0.000557149
-0.00207167
0.000566902
-0.0022162
0.00057735
-0.00236354
0.000588469
-0.00251384
0.000600239
-0.00266727
0.00061265
-0.00282398
0.000625694
-0.00298412
0.000639335
-0.00314783
0.000653486
0.000668247
-0.00331524
-4.0285e-05
0.000204123
-0.000127055
0.000438002
-0.0002379
0.000558088
-0.0003592
0.000609649
-0.000484159
0.000627363
-0.000610132
0.000632075
-0.00073646
0.000633647
-0.000863216
0.000635641
-0.000990658
0.000638945
-0.00111906
0.000643636
-0.00124868
0.000649626
-0.00137977
0.000656822
-0.00151254
0.00066514
-0.00164721
0.000674511
-0.00178396
0.000684877
-0.001923
0.000696189
-0.0020645
0.000708403
-0.00220864
0.000721485
-0.00235557
0.000735405
-0.00250547
0.000750137
-0.00265849
0.000765668
-0.00281479
0.000781991
-0.00297451
0.00079906
-0.00313779
0.000816765
0.000835228
-0.00330477
-3.98493e-05
0.000243973
-0.000125905
0.000524058
-0.000236032
0.000668215
-0.000356694
0.000730311
-0.000481086
0.000751756
-0.000606534
0.000757522
-0.000732358
0.000759471
-0.000858618
0.000761902
-0.00098557
0.000765897
-0.00111349
0.000771553
-0.00124263
0.000778767
-0.00137323
0.000787424
-0.00150552
0.000797428
-0.0016397
0.000808693
-0.00177597
0.000821151
-0.00191453
0.000834741
-0.00205554
0.000849413
-0.00219918
0.000865125
-0.00234561
0.00088184
-0.002495
0.000899529
-0.00264751
0.000918175
-0.00280329
0.000937769
-0.00296249
0.000958259
-0.00312524
0.000979514
0.00100167
-0.00329168
-3.93272e-05
0.0002833
-0.000124526
0.000609256
-0.00023379
0.00077748
-0.000353684
0.000850205
-0.000477396
0.000875467
-0.000602213
0.00088234
-0.000727431
0.000884689
-0.000853097
0.000887569
-0.000979462
0.000892262
-0.0011068
0.000898888
-0.00123536
0.000907327
-0.00136538
0.000917449
-0.00149709
0.000929138
-0.00163069
0.000942296
-0.00176639
0.000956843
-0.00190435
0.000972709
-0.00204478
0.000989835
-0.00218782
0.00100817
-0.00233366
0.00102768
-0.00248245
0.00104832
-0.00263434
0.00107007
-0.00278949
0.00109293
-0.00294806
0.00111683
-0.00311017
0.00114162
0.00116746
-0.00327596
-3.87192e-05
0.000322019
-0.000122917
0.000693454
-0.000231174
0.000885737
-0.000350172
0.000969203
-0.000473087
0.000998382
-0.000597169
0.00100642
-0.00072168
0.0010092
-0.000846655
0.00101254
-0.000972335
0.00101794
-0.00109899
0.00102554
-0.00122687
0.00103521
-0.00135622
0.0010468
-0.00148726
0.00106017
-0.00162019
0.00107522
-0.0017552
0.00109186
-0.00189249
0.00111
-0.00203223
0.00112957
-0.00217458
0.00115053
-0.00231972
0.00117281
-0.0024678
0.0011964
-0.00261898
0.00122125
-0.00277341
0.00124736
-0.00293124
0.00127466
-0.00309261
0.00130299
0.00133249
-0.00325764
-3.80263e-05
0.000360045
-0.00012108
0.000776508
-0.000228185
0.000992842
-0.000346157
0.00108717
-0.000468163
0.00112039
-0.000591403
0.00112966
-0.000715108
0.0011329
-0.000839291
0.00113673
-0.00096419
0.00114284
-0.00109007
0.00115142
-0.00121718
0.00116232
-0.00134576
0.00117538
-0.00147603
0.00119044
-0.00160819
0.00120738
-0.00174243
0.0012261
-0.00187894
0.00124651
-0.00201789
0.00126852
-0.00215946
0.00129209
-0.0023038
0.00131716
-0.00245107
0.00134367
-0.00260144
0.00137161
-0.00275504
0.00140096
-0.00291203
0.00143165
-0.00307255
0.00146351
0.00149665
-0.00323671
-3.72493e-05
0.000397295
-0.000119018
0.000858276
-0.000224825
0.00109865
-0.000341641
0.00120399
-0.000462622
0.00124137
-0.000584917
0.00125196
-0.000707714
0.0012557
-0.000831009
0.00126002
-0.00095503
0.00126686
-0.00108004
0.00127643
-0.00120628
0.00128857
-0.001334
0.0013031
-0.0014634
0.00131984
-0.0015947
0.00133867
-0.00172807
0.00135947
-0.00186371
0.00138214
-0.00200178
0.0014066
-0.00214246
0.00143277
-0.00228591
0.0014606
-0.00243228
0.00149004
-0.00258172
0.00152105
-0.0027344
0.00155363
-0.00289045
0.00158771
-0.00305001
0.00162307
0.00165984
-0.00321319
-3.63892e-05
0.000433684
-0.00011673
0.000938617
-0.000221094
0.00120301
-0.000336624
0.00131952
-0.000456465
0.00136121
-0.00057771
0.0013732
-0.000699501
0.00137749
-0.000821811
0.00138233
-0.000944858
0.00138991
-0.0010689
0.00140047
-0.00119419
0.00141386
-0.00132094
0.00142985
-0.00144939
0.00144829
-0.00157972
0.00146901
-0.00171213
0.00149189
-0.0018468
0.00151681
-0.0019839
0.0015437
-0.0021236
0.00157247
-0.00226605
0.00160306
-0.00241142
0.0016354
-0.00255985
0.00166948
-0.00271149
0.00170527
-0.00286649
0.00174271
-0.00302499
0.00178157
0.00182194
-0.00318709
-3.54474e-05
0.000469131
-0.00011422
0.00101739
-0.000216994
0.00130579
-0.000331107
0.00143363
-0.000449694
0.0014798
-0.000569784
0.00149329
-0.00069047
0.00149818
-0.000811698
0.00150356
-0.000933677
0.00151189
-0.00105666
0.00152345
-0.00118089
0.00153809
-0.00130659
0.00155556
-0.00143399
0.00157568
-0.00156327
0.00159829
-0.00169462
0.00162324
-0.00182823
0.00165042
-0.00196426
0.00167973
-0.00210288
0.00171109
-0.00224424
0.00174442
-0.00238851
0.00177967
-0.00253582
0.00181679
-0.00268632
0.00185578
-0.00284018
0.00189656
-0.00299751
0.0019389
0.00198285
-0.00315843
-3.4425e-05
0.000503556
-0.000111488
0.00109445
-0.000212527
0.00140683
-0.000325091
0.0015462
-0.00044231
0.00159702
-0.000561141
0.00161212
-0.000680623
0.00161766
-0.000800674
0.00162361
-0.000921489
0.0016327
-0.00104332
0.00164528
-0.0011664
0.00166117
-0.00129096
0.00168012
-0.00141721
0.00170193
-0.00154534
0.00172642
-0.00167555
0.00175344
-0.001808
0.00178287
-0.00194287
0.0018146
-0.00208031
0.00184853
-0.00222049
0.0018846
-0.00236355
0.00192273
-0.00250965
0.00196289
-0.00265892
0.00200505
-0.00281152
0.00204917
-0.00296759
0.00209496
0.00214247
-0.00312721
-3.33235e-05
0.00053688
-0.000108537
0.00116967
-0.000207694
0.00150598
-0.000318578
0.00165708
-0.000434312
0.00171275
-0.000551781
0.00172959
-0.000669961
0.00173584
-0.000788739
0.00174239
-0.000908298
0.00175226
-0.00102888
0.00176586
-0.00115072
0.00178301
-0.00127405
0.00180344
-0.00139906
0.00182694
-0.00152595
0.00185332
-0.00165492
0.00188241
-0.00178612
0.00191407
-0.00191973
0.00194821
-0.0020559
0.00198471
-0.0021948
0.00202349
-0.00233657
0.0020645
-0.00248135
0.00210767
-0.00262929
0.002153
-0.00278054
0.00220042
-0.00293523
0.00224965
0.00230068
-0.00309345
-3.21446e-05
0.000569024
-0.00010537
0.00124289
-0.000202498
0.00160311
-0.00031157
0.00176615
-0.000425703
0.00182688
-0.000541705
0.00184559
-0.000658487
0.00185262
-0.000775899
0.0018598
-0.000894108
0.00187047
-0.00101335
0.00188511
-0.00113386
0.00190352
-0.00125586
0.00192544
-0.00137954
0.00195063
-0.00150511
0.00197888
-0.00163274
0.00201003
-0.0017626
0.00204393
-0.00189486
0.00208046
-0.00202967
0.00211952
-0.00216719
0.00216102
-0.00230757
0.00220487
-0.00245094
0.00225104
-0.00259745
0.00229951
-0.00274725
0.00235021
-0.00290047
0.00240287
0.00245739
-0.00305718
-3.08901e-05
0.000599914
-0.000101989
0.00131399
-0.000196941
0.00169806
-0.000304067
0.00187328
-0.000416484
0.0019393
-0.000530916
0.00196003
-0.000646202
0.00196791
-0.000762154
0.00197575
-0.000878923
0.00198724
-0.000996737
0.00200292
-0.00111583
0.00202261
-0.0012364
0.00204602
-0.00135867
0.0020729
-0.00148282
0.00210303
-0.00160902
0.00213624
-0.00173745
0.00217236
-0.00186826
0.00221128
-0.00200162
0.00225288
-0.00213767
0.00229707
-0.00227656
0.00234376
-0.00241843
0.00239291
-0.00256342
0.00244449
-0.00271166
0.00249846
-0.0028633
0.00255451
0.0026125
-0.00301841
-2.95618e-05
0.000629476
-9.83969e-05
0.00138283
-0.000191025
0.00179069
-0.000296071
0.00197833
-0.000406656
0.00204989
-0.000519415
0.00207278
-0.000633109
0.0020816
-0.000747509
0.00209015
-0.000862746
0.00210248
-0.000979041
0.00211922
-0.00109662
0.00214019
-0.00121569
0.00216509
-0.00133645
0.00219366
-0.00145909
0.00222567
-0.00158377
0.00226092
-0.00171068
0.00229927
-0.00183996
0.00234056
-0.00197177
0.00238469
-0.00210626
0.00243156
-0.00224357
0.00248107
-0.00238384
0.00253318
-0.0025272
0.00258786
-0.0026738
0.00264506
-0.00282377
0.00270448
0.00276589
-0.00297716
-2.81618e-05
0.000657638
-9.45973e-05
0.00144926
-0.000184754
0.00188085
-0.000287585
0.00208116
-0.00039622
0.00215852
-0.000507203
0.00218377
-0.000619211
0.00219361
-0.000731967
0.00220291
-0.000845583
0.00221609
-0.00096027
0.0022339
-0.00107625
0.00225616
-0.00119372
0.00228256
-0.00131289
0.00231282
-0.00143393
0.00234671
-0.00155701
0.00238401
-0.00168231
0.00242456
-0.00180996
0.00246822
-0.00194014
0.00251486
-0.00207297
0.00256439
-0.00220861
0.00261671
-0.00234719
0.00267175
-0.00248883
0.0027295
-0.00263369
0.00278991
-0.00278188
0.00285267
0.00291747
-0.00293346
-2.66925e-05
0.00068433
-9.05937e-05
0.00151316
-0.000178131
0.00196838
-0.00027861
0.00218164
-0.000385179
0.00226509
-0.000494282
0.00229287
-0.000604509
0.00230384
-0.000715531
0.00231393
-0.000827437
0.002328
-0.000940428
0.0023469
-0.00105472
0.00237046
-0.00117051
0.00239836
-0.001288
0.00243031
-0.00140735
0.00246606
-0.00152874
0.0025054
-0.00165234
0.00254815
-0.00177828
0.00259417
-0.00190673
0.00264331
-0.00203782
0.00269549
-0.0021717
0.00275059
-0.00230849
0.00280855
-0.00244832
0.00286934
-0.00259134
0.00293293
-0.00273767
0.002999
0.00306714
-0.00288735
-2.51563e-05
0.000709487
-8.63901e-05
0.0015744
-0.000171159
0.00205315
-0.00026915
0.00227963
-0.000373533
0.00236947
-0.000480654
0.00239999
-0.000589006
0.00241219
-0.000698206
0.00242313
-0.000808314
0.00243811
-0.000919524
0.0024581
-0.00103204
0.00248297
-0.00114607
0.00251238
-0.00126178
0.00254602
-0.00137937
0.00258364
-0.00149898
0.00262502
-0.00162079
0.00266996
-0.00174493
0.00271831
-0.00187156
0.00276994
-0.00200082
0.00282474
-0.00213285
0.00288261
-0.00226776
0.00294346
-0.0024057
0.00300727
-0.00254679
0.00307402
-0.00269116
0.00314337
0.00321482
-0.00283883
-2.35559e-05
0.000733043
-8.19909e-05
0.00163283
-0.000163842
0.002135
-0.000259207
0.00237499
-0.000361285
0.00247155
-0.000466321
0.00250503
-0.000572706
0.00251858
-0.000679994
0.00253042
-0.00078822
0.00254633
-0.000897562
0.00256745
-0.00100822
0.00259363
-0.00112039
0.00262455
-0.00123426
0.00265989
-0.00134999
0.00269937
-0.00146774
0.00274277
-0.00158767
0.00278989
-0.00170993
0.00284057
-0.00183466
0.00289467
-0.001962
0.00295208
-0.00209208
0.00301269
-0.00222503
0.00307641
-0.00236097
0.00314322
-0.00250005
0.0032131
-0.00264237
0.00328569
0.00336041
-0.00278796
-2.18943e-05
0.000754937
-7.7401e-05
0.00168834
-0.000156185
0.00221379
-0.000248784
0.00246759
-0.000348438
0.0025712
-0.000451286
0.00260787
-0.00055561
0.0026229
-0.0006609
0.00263571
-0.000767159
0.00265259
-0.000874551
0.00267484
-0.000983271
0.00270235
-0.00109351
0.00273479
-0.00120543
0.00277182
-0.00131922
0.00281316
-0.00143503
0.00285857
-0.001553
0.00290786
-0.00167329
0.00296086
-0.00179603
0.00301741
-0.00192136
0.00307741
-0.00204941
0.00314074
-0.00218031
0.00320731
-0.00231418
0.00327709
-0.00245115
0.00335007
-0.00259135
0.00342589
0.00350382
-0.00273477
-2.01744e-05
0.000775111
-7.26255e-05
0.00174079
-0.000148193
0.00228935
-0.000237885
0.00255728
-0.000334993
0.00266831
-0.00043555
0.00270843
-0.000537723
0.00272507
-0.000640929
0.00273891
-0.000745137
0.0027568
-0.000850496
0.0027802
-0.000957194
0.00280905
-0.00106541
0.00284301
-0.00117532
0.00288173
-0.00128709
0.00292492
-0.00140086
0.00297235
-0.00151679
0.00302379
-0.00163502
0.00307909
-0.00175569
0.00313808
-0.00187893
0.00320065
-0.00200486
0.00326668
-0.00213362
0.00333607
-0.00226533
0.0034088
-0.00240013
0.00348487
-0.00253813
0.0035639
0.00364499
-0.0026793
-1.83997e-05
0.000793511
-6.76704e-05
0.00179006
-0.000139871
0.00236156
-0.000226514
0.00264393
-0.000320955
0.00276275
-0.000419116
0.00280659
-0.000519047
0.00282501
-0.000620085
0.00283995
-0.00072216
0.00285887
-0.000825406
0.00288344
-0.000930001
0.00291365
-0.00103612
0.00294913
-0.00114393
0.00298954
-0.0012536
0.00303459
-0.00136526
0.00308401
-0.00147907
0.0031376
-0.00159516
0.00319518
-0.00171366
0.00325659
-0.00183472
0.00332171
-0.00195846
0.00339041
-0.00208499
0.0034626
-0.00221445
0.00353825
-0.00234699
0.00361741
-0.00248274
0.00369965
0.00378386
-0.00262161
-1.65738e-05
0.000810085
-6.2542e-05
0.00183603
-0.000131226
0.00243024
-0.000214676
0.00272738
-0.000306324
0.0028544
-0.000401988
0.00290226
-0.000499586
0.0029226
-0.000598373
0.00293874
-0.000698235
0.00295874
-0.000799289
0.0029845
-0.000901703
0.00301606
-0.00100565
0.00305307
-0.00111128
0.00309518
-0.00121876
0.00314207
-0.00132823
0.00319348
-0.00143984
0.0032492
-0.0015537
0.00330905
-0.00166997
0.00337285
-0.00178876
0.0034405
-0.00191021
0.00351186
-0.00203444
0.00358683
-0.00216156
0.00366538
-0.00229177
0.00374762
-0.00242522
0.0038331
0.00392041
-0.00256177
-1.47006e-05
0.000824786
-5.72474e-05
0.00187857
-0.000122265
0.00249526
-0.000202375
0.00280749
-0.000291107
0.00294313
-0.000384167
0.00299532
-0.000479343
0.00301778
-0.000575797
0.00303519
-0.000673368
0.00305631
-0.000772153
0.00308328
-0.000872308
0.00311621
-0.000973999
0.00315476
-0.00107738
0.00319856
-0.0011826
0.00324729
-0.0012898
0.00330068
-0.00139912
0.00335852
-0.00151069
0.00342061
-0.00162463
0.00348679
-0.00174107
0.00355695
-0.00186016
0.00363095
-0.00198199
0.00370866
-0.00210669
0.00379007
-0.00223446
0.00387539
-0.00236561
0.00396425
0.00405469
-0.00249989
-1.27844e-05
0.00083757
-5.17942e-05
0.00191758
-0.000112995
0.00255646
-0.000189619
0.00288411
-0.000275306
0.00302882
-0.000365658
0.00308567
-0.000458323
0.00311045
-0.000552362
0.00312923
-0.000647566
0.00315151
-0.000744005
0.00317972
-0.000841828
0.00321404
-0.00094119
0.00325412
-0.00104224
0.00329961
-0.00114513
0.00335017
-0.00124998
0.00340554
-0.00135694
0.00346548
-0.00146612
0.00352979
-0.00157766
0.00359833
-0.00169168
0.00367096
-0.00180831
0.00374758
-0.00192767
0.00382803
-0.00204985
0.00391225
-0.00217506
0.0040006
-0.00230387
0.00409306
0.00418688
-0.00243606
-1.083e-05
0.0008484
-4.61907e-05
0.00195294
-0.000103425
0.00261369
-0.000176412
0.0029571
-0.000258926
0.00311133
-0.000346464
0.00317321
-0.000436528
0.00320051
-0.000528075
0.00322078
-0.000620835
0.00324427
-0.000714856
0.00327374
-0.000810272
0.00330945
-0.000907233
0.00335108
-0.00100588
0.00339826
-0.00110636
0.00345065
-0.00120879
0.00350797
-0.00131331
0.00356999
-0.00142003
0.00363652
-0.00152909
0.00370738
-0.00164059
0.00378247
-0.00175468
0.00386167
-0.00187151
0.00394485
-0.00199111
0.00403185
-0.00211362
0.00412311
-0.00223998
0.00421942
0.00431743
-0.00237053
-8.84301e-06
0.000857243
-4.04459e-05
0.00198455
-9.35639e-05
0.00266681
-0.000162764
0.0030263
-0.000241972
0.00319054
-0.00032659
0.00325782
-0.000413965
0.00328788
-0.00050294
0.00330975
-0.000593184
0.00333452
-0.000684715
0.00336527
-0.000777653
0.00340239
-0.000872141
0.00344557
-0.000968315
0.00349443
-0.00106631
0.00354864
-0.00116625
0.00360791
-0.00126825
0.003672
-0.00137244
0.00374071
-0.00147893
0.00381388
-0.00158784
0.00389138
-0.0016993
0.00397313
-0.00181348
0.00405903
-0.00193044
0.00414881
-0.00204997
0.00424264
-0.00217307
0.00434253
0.00444741
-0.00230306
-6.83099e-06
0.000864074
-3.45691e-05
0.00201229
-8.34229e-05
0.00271566
-0.000148683
0.00309156
-0.000224452
0.00326631
-0.000306039
0.00333941
-0.000390637
0.00337248
-0.000476963
0.00339608
-0.00056462
0.00342217
-0.00065359
0.00345424
-0.000743982
0.00349278
-0.000835927
0.00353752
-0.000929558
0.00358806
-0.001025
0.00364408
-0.00112237
0.00370528
-0.00122179
0.00377142
-0.00132337
0.00384229
-0.00142723
0.00391773
-0.00153347
0.00399762
-0.00164223
0.00408189
-0.0017537
0.0041705
-0.00186811
0.00426323
-0.00198521
0.00435974
-0.00210409
0.00446141
0.00457926
-0.00223595
-4.80488e-06
0.000868879
-2.85694e-05
0.00203605
-7.30134e-05
0.00276011
-0.000134178
0.00315272
-0.000206371
0.0033385
-0.000284819
0.00341786
-0.000366549
0.00345421
-0.000450151
0.00347968
-0.00053515
0.00350717
-0.000621493
0.00354059
-0.000709271
0.00358056
-0.000798607
0.00362685
-0.000889625
0.00367908
-0.000982445
0.0037369
-0.00107718
0.00380002
-0.00117395
0.00386818
-0.00127285
0.00394119
-0.00137399
0.00401888
-0.00147749
0.00410112
-0.00158346
0.00418785
-0.00169204
0.00427908
-0.00180344
0.00437463
-0.00191787
0.00447417
-0.00203614
0.00457969
0.00469642
-0.0021533
-2.78507e-06
0.000871664
-2.24537e-05
0.00205572
-6.23477e-05
0.0028
-0.00011926
0.00320963
-0.000187738
0.00340698
-0.000262933
0.00349305
-0.000341708
0.00353299
-0.000422511
0.00356048
-0.000504784
0.00358945
-0.000588434
0.00362424
-0.000673533
0.00366566
-0.000760194
0.00371351
-0.000848535
0.00376742
-0.000938668
0.00382704
-0.0010307
0.00389205
-0.00112475
0.00396223
-0.0012209
0.00403734
-0.00131926
0.00411724
-0.00141994
0.00420179
-0.00152302
0.00429093
-0.00162861
0.00438467
-0.00173689
0.00448292
-0.00184812
0.0045854
-0.00196212
0.00469368
0.00481377
-0.00207946
-8.33321e-07
0.000872497
-1.62239e-05
0.00207111
-5.144e-05
0.00283522
-0.000103943
0.00326214
-0.000168562
0.0034716
-0.00024039
0.00356488
-0.000316119
0.00360872
-0.000394049
0.00363841
-0.000473529
0.00366893
-0.000554423
0.00370513
-0.00063678
0.00374802
-0.000720704
0.00379744
-0.000806304
0.00385302
-0.000893688
0.00391442
-0.000982957
0.00398132
-0.00107421
0.00405348
-0.00116755
0.00413068
-0.00126307
0.00421276
-0.00136085
0.00429958
-0.001461
0.00439107
-0.00156359
0.00448726
-0.00166884
0.00458816
-0.00177718
0.00469373
-0.00188889
0.0048054
0.00492706
-0.00200218
1.32823e-06
0.000871169
-9.86651e-06
0.0020823
-4.03053e-05
0.00286566
-8.82388e-05
0.00331007
-0.000148854
0.00353222
-0.000217198
0.00363323
-0.00028979
0.00368131
-0.000364772
0.0037134
-0.000441395
0.00374555
-0.000519471
0.00378321
-0.000599027
0.00382757
-0.000680153
0.00387856
-0.000762952
0.00393582
-0.000847523
0.00399899
-0.000933965
0.00406776
-0.00102237
0.00414189
-0.00111283
0.00422114
-0.00120544
0.00430537
-0.00130028
0.00439443
-0.00139746
0.00448825
-0.00149707
0.00458687
-0.00159935
0.00469044
-0.00170474
0.00479913
-0.00181338
0.00491404
0.00503726
-0.00192358
3.51808e-06
0.000867651
-3.33258e-06
0.00208916
-2.89606e-05
0.00289128
-7.21645e-05
0.00335327
-0.000128629
0.00358868
-0.000193367
0.00369797
-0.000262728
0.00375067
-0.000334689
0.00378536
-0.000408392
0.00381925
-0.00048359
0.0038584
-0.000560286
0.00390427
-0.000638556
0.00395683
-0.000718495
0.00401576
-0.000800196
0.00408069
-0.000883751
0.00415132
-0.000969248
0.00422738
-0.00105677
0.00430867
-0.00114642
0.00439501
-0.00123827
0.00448628
-0.00133243
0.00458241
-0.00142905
0.00468349
-0.00152835
0.00478974
-0.0016307
0.00490148
-0.00173602
0.00501935
0.00514405
-0.00184281
5.59817e-06
0.000862053
3.03842e-06
0.00209171
-1.74235e-05
0.00291175
-5.5741e-05
0.00339159
-0.000107902
0.00364084
-0.000168907
0.00375897
-0.000234943
0.00381671
-0.000303809
0.00385422
-0.000374529
0.00388997
-0.000446793
0.00393067
-0.000520572
0.00397805
-0.000595931
0.00403219
-0.000672954
0.00409278
-0.000751728
0.00415947
-0.000832339
0.00423193
-0.00091487
0.00430991
-0.000999406
0.00439321
-0.00108603
0.00448164
-0.00117484
0.00457509
-0.00126595
0.00467353
-0.00135953
0.00477706
-0.00145579
0.004886
-0.00155501
0.0050007
-0.00165698
0.00512132
0.00524742
-0.00176035
7.61923e-06
0.000854433
9.27927e-06
0.00209005
-5.58047e-06
0.00292661
-3.89971e-05
0.00342501
-8.66913e-05
0.00368854
-0.000143832
0.00381611
-0.000206443
0.00387932
-0.000272141
0.00391992
-0.000339817
0.00395765
-0.000409091
0.00399994
-0.000479901
0.00404886
-0.000552294
0.00410459
-0.000626347
0.00416684
-0.00070214
0.00423526
-0.000779752
0.00430954
-0.000859263
0.00438943
-0.000940753
0.0044747
-0.00102431
0.00456519
-0.00111003
0.00466081
-0.00119804
0.00476154
-0.00128851
0.00486753
-0.00138166
0.00497915
-0.00147763
0.00509667
-0.00157616
0.00521984
0.00534742
-0.00167616
9.60156e-06
0.000844832
1.56496e-05
0.00208401
6.1965e-06
0.00293606
-2.19684e-05
0.00345317
-6.50152e-05
0.00373158
-0.000118157
0.00386925
-0.000177242
0.0039384
-0.000239695
0.00398237
-0.000304266
0.00402222
-0.000370497
0.00406617
-0.000438286
0.00411665
-0.000507664
0.00417396
-0.000578696
0.00423787
-0.000651455
0.00430802
-0.000726016
0.0043841
-0.000802453
0.00446586
-0.000880845
0.00455309
-0.000961277
0.00464562
-0.00104385
0.00474338
-0.00112871
0.00484639
-0.00121601
0.00495484
-0.00130594
0.00506908
-0.00139855
0.00518929
-0.00149353
0.00531482
0.00544396
-0.00159007
1.15421e-05
0.00083329
2.20213e-05
0.00207353
1.79219e-05
0.00294016
-4.51821e-06
0.00347561
-4.29004e-05
0.00376996
-9.19004e-05
0.00391825
-0.000147351
0.00399385
-0.000206482
0.0040415
-0.00026789
0.00408363
-0.000331025
0.00412931
-0.000395745
0.00418137
-0.000462058
0.00424028
-0.000530019
0.00430583
-0.000599694
0.00437769
-0.000671153
0.00445556
-0.000744466
0.00453918
-0.000819709
0.00462833
-0.000896965
0.00472288
-0.000976344
0.00482276
-0.00105798
0.00492803
-0.00114204
0.0050389
-0.00122865
0.00515568
-0.00131779
0.00527843
-0.00140914
0.00540617
0.00553693
-0.00150211
1.34305e-05
0.000819859
2.83743e-05
0.00205858
2.98247e-05
0.00293871
1.28857e-05
0.00349255
-2.03983e-05
0.00380325
-6.50788e-05
0.00396293
-0.000116787
0.00404556
-0.000172516
0.00409723
-0.000230699
0.00414181
-0.00029069
0.0041893
-0.000352293
0.00424297
-0.000415494
0.00430348
-0.000480338
0.00437067
-0.000546882
0.00444424
-0.000615191
0.00452387
-0.00068533
0.00460931
-0.000757372
0.00470037
-0.000831402
0.00479691
-0.000907527
0.00489889
-0.000985884
0.00500639
-0.00106661
0.00511963
-0.0011498
0.00523887
-0.00123539
0.00536401
-0.00132304
0.00549382
0.00562625
-0.00141237
1.52705e-05
0.000804589
3.46802e-05
0.00203917
4.17863e-05
0.0029316
3.05574e-05
0.00350378
2.59735e-06
0.00383121
-3.77164e-05
0.00400325
-8.55663e-05
0.00409341
-0.000137809
0.00414948
-0.000192709
0.00419671
-0.000249505
0.00424609
-0.000307947
0.00430141
-0.000367993
0.00436353
-0.000429675
0.00443236
-0.000493042
0.00450761
-0.000558154
0.00458898
-0.00062507
0.00467623
-0.000693863
0.00476916
-0.000764614
0.00486766
-0.00083743
0.0049717
-0.000912439
0.0050814
-0.000989761
0.00519695
-0.00106944
0.00531855
-0.00115138
0.00544595
-0.0012353
0.00557775
0.00571189
-0.00132094
1.70601e-05
0.000787529
4.09073e-05
0.00201533
5.37616e-05
0.00291875
4.84282e-05
0.00350912
2.57411e-05
0.0038539
-9.86097e-06
0.00403885
-5.3708e-05
0.00413726
-0.000102377
0.00419814
-0.000153932
0.00424827
-0.000207487
0.00429965
-0.000262724
0.00435665
-0.000319574
0.00442037
-0.000378052
0.00449083
-0.000438199
0.00456775
-0.000500069
0.00465085
-0.000563717
0.00473988
-0.000629212
0.00483466
-0.000696633
0.00493508
-0.000766082
0.00504115
-0.000837677
0.00515299
-0.000911514
0.00527079
-0.000987606
0.00539465
-0.00106583
0.00552418
-0.00114597
0.00565789
0.00579379
-0.00122787
1.87825e-05
0.000768746
4.70239e-05
0.00198709
6.57015e-05
0.00290007
6.64299e-05
0.00350839
4.93026e-05
0.00387102
1.84892e-05
0.00406966
-2.12374e-05
0.00417698
-6.62395e-05
0.00424315
-0.000114386
0.00429641
-0.000164651
0.00434991
-0.000216644
0.00440864
-0.000270258
0.00447399
-0.000325491
0.00454607
-0.000382378
0.00462464
-0.000440963
0.00470944
-0.000501299
0.00480022
-0.000563449
0.00489681
-0.000627489
0.00499912
-0.000693516
0.00510718
-0.000761632
0.00522111
-0.000831912
0.00534107
-0.000904344
0.00546708
-0.000978803
0.00559864
-0.00105512
0.0057342
0.00587189
-0.00113322
2.04243e-05
0.000748322
5.29981e-05
0.00195451
7.75555e-05
0.00287551
8.4507e-05
0.00350144
7.3132e-05
0.0038824
4.72939e-05
0.0040955
1.18253e-05
0.00421245
-2.94175e-05
0.00428439
-7.40876e-05
0.00434108
-0.000121016
0.00439684
-0.000169725
0.00445735
-0.000220065
0.00452433
-0.000272018
0.00459802
-0.000325605
0.00467823
-0.000380865
0.0047647
-0.000437846
0.0048572
-0.000496606
0.00495557
-0.000557217
0.00505973
-0.000619766
0.00516973
-0.000684342
0.00528568
-0.000751
0.00540772
-0.000819709
0.00553579
-0.00089035
0.00566928
-0.000962801
0.00580665
0.00594615
-0.00103706
2.19731e-05
0.000726349
5.87962e-05
0.00191769
8.927e-05
0.00284504
0.000102597
0.00348811
9.71751e-05
0.00388782
7.6509e-05
0.00411617
4.5457e-05
0.00424351
8.05413e-06
0.00432179
-3.30599e-05
0.0043822
-7.66014e-05
0.00444038
-0.000121987
0.00450274
-0.000169019
0.00457136
-0.000217655
0.00464665
-0.000267906
0.00472848
-0.000319803
0.00481659
-0.000373389
0.00491078
-0.000428716
0.00501089
-0.00048585
0.00511687
-0.000544869
0.00522875
-0.000605848
0.00534666
-0.000668824
0.0054707
-0.000733755
0.00560072
-0.000800534
0.00573606
-0.000869087
0.0058752
0.00601651
-0.000939452
2.34179e-05
0.000702931
6.4379e-05
0.00187673
0.000100788
0.00280863
0.000120635
0.00346826
0.000121373
0.00388708
0.000106083
0.00413146
7.96125e-05
0.00426998
4.62077e-05
0.0043552
8.66373e-06
0.00441974
-3.14316e-05
0.00448048
-7.34529e-05
0.00454476
-0.000117142
0.00461505
-0.00016243
0.00469194
-0.000209311
0.00477536
-0.000257808
0.00486509
-0.00030796
0.00496093
-0.000359813
0.00506275
-0.000413426
0.00517048
-0.000468866
0.00528419
-0.000526194
0.00540399
-0.000585434
0.00552994
-0.000646538
0.00566182
-0.000709417
0.00579894
-0.000774034
0.00593982
0.00608294
-0.000840458
2.47483e-05
0.000678183
6.97132e-05
0.00183176
0.000112052
0.00276629
0.000138548
0.00344177
0.000145658
0.00387997
0.000135962
0.00414115
0.000114249
0.00429169
8.49509e-05
0.0043845
5.11272e-05
0.00445356
1.44768e-05
0.00451713
-2.41521e-05
0.00458339
-6.44602e-05
0.00465536
-0.000106368
0.00473385
-0.000149847
0.00481884
-0.000194911
0.00491016
-0.000241595
0.00500762
-0.000289934
0.00511109
-0.000339982
0.00522053
-0.000391797
0.005336
-0.000445426
0.00545762
-0.000500881
0.0055854
-0.000558116
0.00571906
-0.000617059
0.00585788
-0.000677704
0.00600046
0.00614537
-0.000740138
2.59551e-05
0.000652228
7.47644e-05
0.00178295
0.000122998
0.00271806
0.00015626
0.0034085
0.000169952
0.00386628
0.00016608
0.00414503
0.000149319
0.00430845
0.000124265
0.00440955
9.42255e-05
0.0044836
6.11307e-05
0.00455023
2.59156e-05
0.0046186
-1.10179e-05
0.00469229
-4.9499e-05
0.00477233
-8.95475e-05
0.00485889
-0.000131143
0.00495175
-0.000174327
0.0050508
-0.000219116
0.00515588
-0.00026556
0.00526697
-0.000313706
0.00538415
-0.00036359
0.0055075
-0.000415217
0.00563702
-0.000468544
0.00577238
-0.000523519
0.00591286
-0.000580158
0.0060571
0.00620377
-0.000638552
2.70296e-05
0.000625198
7.94976e-05
0.00173049
0.00013356
0.002664
0.000173686
0.00336838
0.000194171
0.0038458
0.000196363
0.00414283
0.000184764
0.00432005
0.000164108
0.00443021
0.000137952
0.00450976
0.000108456
0.00457972
7.67204e-05
0.00465034
4.3224e-05
0.00472579
8.13159e-06
0.00480742
-2.84491e-05
0.00489547
-6.65376e-05
0.00498984
-0.000106196
0.00509046
-0.000147395
0.00519707
-0.000190201
0.00530978
-0.000234639
0.00542859
-0.000280737
0.0055536
-0.000328495
0.00568478
-0.000377877
0.00582177
-0.000428853
0.00596383
-0.000481458
0.00610971
0.00625807
-0.000535761
2.7964e-05
0.000597234
8.38775e-05
0.00167457
0.000143668
0.00260421
0.000190735
0.00332131
0.000218218
0.00381831
0.000226727
0.00413432
0.00022052
0.00432626
0.000204433
0.00444629
0.000182271
0.00453192
0.00015644
0.00460555
0.000128215
0.00467856
9.81801e-05
0.00475582
6.65672e-05
0.00483904
3.3438e-05
0.0049286
-1.20443e-06
0.00502448
-3.72444e-05
0.0051265
-7.48114e-05
0.00523464
-0.000113951
0.00534892
-0.00015464
0.00546928
-0.000196917
0.00559588
-0.00024077
0.00572863
-0.00028617
0.00586717
-0.000333118
0.00601078
-0.000381669
0.00615826
0.00630822
-0.000431824
2.87511e-05
0.000568483