/*--------------------------------*- C++ -*----------------------------------*\
  =========                 |
  \\      /  F ield         | OpenFOAM: The Open Source CFD Toolbox
   \\    /   O peration     | Website:  https://openfoam.org
    \\  /    A nd           | Version:  7
     \\/     M anipulation  |
\*---------------------------------------------------------------------------*/
FoamFile
{
    version     2.0;
    format      ascii;
    class       volVectorField;
    location    "80";
    object      U;
}
// * * * * * * * * * * * * * * * * * * * * * * * * * * * * * * * * * * * * * //

dimensions      [0 1 -1 0 0 0 0];

internalField   nonuniform List<vector> 
6000
(
(0.0101184 -0.00733785 -1.46785e-21)
(0.0538521 -0.0147372 6.49927e-21)
(0.123809 -0.0173863 7.08228e-22)
(0.193779 -0.0175545 -4.25235e-21)
(0.260229 -0.0166266 2.91064e-21)
(0.320901 -0.0153733 -9.25998e-21)
(0.37573 -0.0141193 -2.75132e-21)
(0.425271 -0.0129633 2.84784e-21)
(0.47014 -0.0119189 -1.02418e-21)
(0.510894 -0.010977 8.16828e-21)
(0.548014 -0.0101256 -1.67052e-21)
(0.581911 -0.00935388 1.71508e-22)
(0.61294 -0.00865248 1.88522e-21)
(0.641408 -0.00801341 -4.20589e-21)
(0.667583 -0.00742973 -8.05558e-23)
(0.691697 -0.00689543 3.38953e-21)
(0.713953 -0.00640526 1.27416e-21)
(0.73453 -0.00595464 1.83809e-22)
(0.753584 -0.00553956 2.22542e-21)
(0.771254 -0.00515645 1.02056e-21)
(0.787667 -0.00480233 4.28832e-21)
(0.802929 -0.00447464 -2.85548e-21)
(0.817115 -0.0041705 5.07444e-21)
(0.830311 -0.00388598 -2.43107e-21)
(0.84272 -0.00362028 -2.32048e-21)
(0.0108686 -0.0219199 6.71378e-22)
(0.0553258 -0.0442453 1.31979e-20)
(0.12552 -0.05239 9.39691e-21)
(0.19549 -0.0530504 1.6765e-20)
(0.261837 -0.0503633 -1.38881e-20)
(0.322377 -0.0466612 8.48648e-21)
(0.377077 -0.0429403 -1.67681e-21)
(0.4265 -0.0395094 2.30161e-21)
(0.471264 -0.0364129 1.21663e-20)
(0.511924 -0.0336238 1.65069e-21)
(0.548959 -0.0311057 1.96999e-21)
(0.58278 -0.0288256 2.32478e-21)
(0.613742 -0.0267554 -1.17752e-20)
(0.642149 -0.0248706 -5.46635e-21)
(0.668269 -0.0231502 4.91815e-21)
(0.692332 -0.0215759 -1.04398e-20)
(0.714543 -0.0201321 -7.95979e-22)
(0.735078 -0.0188048 -5.18759e-21)
(0.754094 -0.017582 -7.21187e-21)
(0.77173 -0.0164529 5.08547e-22)
(0.788111 -0.0154086 -1.33598e-20)
(0.803344 -0.0144415 -4.42303e-21)
(0.817506 -0.0135427 4.31182e-21)
(0.830679 -0.0127006 2.6215e-21)
(0.843055 -0.011913 2.50046e-21)
(0.0123631 -0.0364125 -1.66341e-20)
(0.0582637 -0.0735987 -6.01682e-22)
(0.128932 -0.0872317 3.91641e-20)
(0.198902 -0.0883976 -3.26825e-20)
(0.265042 -0.0839682 -3.58332e-21)
(0.325319 -0.0778321 2.15086e-20)
(0.37976 -0.0716566 1.15576e-20)
(0.428948 -0.065961 1.08371e-20)
(0.4735 -0.0608213 2.22531e-22)
(0.513973 -0.056193 4.63024e-21)
(0.55084 -0.0520152 5.04627e-21)
(0.58451 -0.0482332 -6.10035e-21)
(0.615336 -0.0447997 2.40227e-20)
(0.643622 -0.0416742 2.16606e-20)
(0.669632 -0.0388216 -1.68353e-20)
(0.693596 -0.0362115 2.63361e-20)
(0.715716 -0.0338177 5.08501e-21)
(0.73617 -0.0316171 -2.36855e-20)
(0.755111 -0.0295895 -2.46331e-21)
(0.772679 -0.0277172 4.89884e-21)
(0.788997 -0.0259852 7.08878e-21)
(0.804173 -0.0243808 -3.20521e-21)
(0.818286 -0.0228893 -2.16484e-20)
(0.831413 -0.0214916 3.57965e-21)
(0.843724 -0.0201853 -3.59277e-22)
(0.0145935 -0.0507556 1.33666e-20)
(0.0626524 -0.102694 -4.65758e-20)
(0.134032 -0.121803 -6.37536e-20)
(0.204002 -0.123496 2.66545e-20)
(0.269834 -0.117353 4.07674e-21)
(0.329717 -0.108808 -5.82564e-20)
(0.383771 -0.100198 -3.48763e-21)
(0.432606 -0.0922554 -4.45378e-21)
(0.476844 -0.0850875 -2.2581e-20)
(0.517034 -0.0786331 4.12537e-20)
(0.55365 -0.0728075 1.10762e-20)
(0.587096 -0.067534 -6.42382e-21)
(0.61772 -0.0627466 6.0222e-21)
(0.645823 -0.0583888 -1.88488e-20)
(0.671669 -0.0544116 7.9855e-21)
(0.695484 -0.0507725 -3.69621e-20)
(0.71747 -0.0474348 -9.20318e-21)
(0.737801 -0.0443664 1.15589e-21)
(0.756631 -0.0415391 -1.27766e-20)
(0.774097 -0.0389281 1.1847e-20)
(0.790321 -0.0365126 4.07203e-21)
(0.805413 -0.0342747 5.20995e-21)
(0.819454 -0.0321935 7.65571e-21)
(0.832513 -0.0302431 -9.3654e-21)
(0.844727 -0.0284225 -1.3337e-20)
(0.0175471 -0.06489 -2.69213e-20)
(0.0684713 -0.131427 4.09336e-20)
(0.140798 -0.155996 -1.71295e-20)
(0.210773 -0.158248 -2.40312e-20)
(0.276198 -0.150431 8.10974e-20)
(0.335559 -0.139512 1.81709e-20)
(0.389099 -0.128497 -2.26814e-20)
(0.437465 -0.11833 2.08165e-21)
(0.481284 -0.109155 -4.04807e-20)
(0.521101 -0.100893 -3.16594e-21)
(0.557383 -0.0934361 -2.44737e-20)
(0.59053 -0.0866858 -2.29065e-20)
(0.620885 -0.0805578 -4.28196e-20)
(0.648747 -0.0749795 2.00206e-20)
(0.674374 -0.0698882 -5.95687e-21)
(0.697993 -0.0652296 7.41445e-21)
(0.7198 -0.0609566 1.96456e-20)
(0.739968 -0.0570281 7.51986e-21)
(0.758651 -0.053408 -3.2968e-21)
(0.775982 -0.0500647 1.59666e-20)
(0.792082 -0.0469715 -1.11308e-20)
(0.807062 -0.0441052 -1.94307e-20)
(0.821006 -0.0414388 6.20153e-21)
(0.833975 -0.0389397 2.08695e-20)
(0.846061 -0.0366113 5.59805e-21)
(0.0212072 -0.0787576 4.8001e-20)
(0.0756933 -0.159698 7.04567e-21)
(0.149205 -0.189705 4.42912e-20)
(0.21919 -0.192556 1.86908e-20)
(0.284114 -0.183116 -6.71399e-20)
(0.342826 -0.169867 4.42734e-21)
(0.395727 -0.156483 5.2383e-20)
(0.44351 -0.144124 -4.25527e-20)
(0.486808 -0.132969 1.96326e-20)
(0.526161 -0.122923 -6.56115e-20)
(0.562028 -0.113855 3.28722e-20)
(0.594803 -0.105647 5.40251e-20)
(0.624824 -0.0981952 -9.66471e-21)
(0.652386 -0.0914114 3.64008e-21)
(0.677742 -0.0852196 2.03088e-20)
(0.701115 -0.0795536 2.19355e-20)
(0.7227 -0.0743563 1.57187e-20)
(0.742666 -0.0695776 -1.48898e-20)
(0.761165 -0.0651737 -9.14058e-23)
(0.778328 -0.0611062 -7.72764e-21)
(0.794275 -0.0573427 1.86915e-20)
(0.809114 -0.0538546 -8.50799e-21)
(0.822939 -0.0506086 -1.61303e-20)
(0.835796 -0.0475663 -2.62519e-20)
(0.847725 -0.0447382 1.25272e-20)
(0.0255528 -0.0923015 -1.40171e-19)
(0.0842846 -0.187408 3.37191e-20)
(0.159217 -0.222826 3.98701e-20)
(0.229225 -0.226323 1.79323e-20)
(0.293555 -0.215322 5.16884e-20)
(0.351497 -0.199798 -2.48867e-20)
(0.403636 -0.18409 -3.83409e-20)
(0.450724 -0.169577 3.91484e-20)
(0.4934 -0.156473 -2.72261e-20)
(0.532199 -0.144672 5.03863e-20)
(0.567571 -0.13402 5.14888e-21)
(0.599902 -0.124377 1.92308e-20)
(0.629526 -0.115621 3.92503e-20)
(0.656729 -0.107651 4.18317e-20)
(0.681762 -0.100375 1.24192e-20)
(0.704842 -0.0937161 -2.34748e-20)
(0.726162 -0.0876077 1.31136e-20)
(0.745888 -0.0819909 3.11026e-20)
(0.764168 -0.076814 3.10015e-20)
(0.781131 -0.0720322 -2.98971e-20)
(0.796893 -0.0676074 2.41836e-20)
(0.811566 -0.0635056 5.67096e-21)
(0.825248 -0.0596867 3.47017e-20)
(0.837973 -0.0561079 5.17891e-20)
(0.849716 -0.0527896 -1.98458e-20)
(0.0305591 -0.105466 1.67905e-20)
(0.0942047 -0.214458 -9.4875e-20)
(0.170796 -0.255254 -4.89934e-20)
(0.240841 -0.259455 -3.27679e-20)
(0.304492 -0.246965 -6.85828e-20)
(0.361544 -0.229232 3.9397e-20)
(0.412802 -0.211252 2.88182e-21)
(0.459085 -0.194628 5.32003e-20)
(0.501042 -0.179615 5.27993e-20)
(0.539198 -0.166093 -3.22548e-20)
(0.573997 -0.153886 -4.49906e-20)
(0.605815 -0.142834 3.65095e-20)
(0.634977 -0.1328 2.19468e-20)
(0.661765 -0.123663 -1.1488e-19)
(0.686424 -0.115322 -4.66277e-21)
(0.709166 -0.107689 -1.09345e-20)
(0.730179 -0.100685 -8.74582e-21)
(0.749626 -0.0942442 -1.09427e-20)
(0.767653 -0.0883071 1.33725e-20)
(0.784384 -0.0828225 -4.63233e-21)
(0.799933 -0.077747 6.30492e-21)
(0.814412 -0.0730411 -9.42671e-21)
(0.827928 -0.0686574 -1.63878e-20)
(0.840499 -0.0645493 -8.58272e-20)
(0.852029 -0.060752 1.65181e-20)
(0.0361973 -0.118198 1.15306e-19)
(0.105407 -0.240754 6.75919e-20)
(0.183893 -0.286891 1.02783e-19)
(0.253998 -0.291858 -3.1974e-20)
(0.316888 -0.277965 1.13302e-19)
(0.372937 -0.258094 -8.35009e-21)
(0.423198 -0.237904 -8.11446e-20)
(0.468569 -0.219219 1.80046e-20)
(0.50971 -0.202341 -6.91482e-21)
(0.547139 -0.187136 5.64441e-20)
(0.581288 -0.17341 3.27295e-20)
(0.612524 -0.160981 -6.81352e-20)
(0.641164 -0.149694 -3.62803e-20)
(0.667481 -0.139417 5.54189e-20)
(0.691715 -0.130033 -1.40036e-20)
(0.714074 -0.121444 3.24284e-20)
(0.734738 -0.113563 6.7711e-21)
(0.75387 -0.106314 2.42714e-20)
(0.771609 -0.0996317 -5.13551e-20)
(0.788078 -0.0934576 -7.26685e-21)
(0.803385 -0.0877434 1.81685e-20)
(0.817645 -0.0824441 -3.55603e-20)
(0.830972 -0.0775048 2.59444e-20)
(0.84337 -0.0728761 5.72298e-20)
(0.854662 -0.0686119 -2.95989e-21)
(0.0424349 -0.130445 -4.69254e-20)
(0.117838 -0.266203 -8.48243e-21)
(0.198455 -0.317639 -7.7603e-20)
(0.268648 -0.323444 -3.26246e-20)
(0.330704 -0.30824 -1.15647e-19)
(0.385641 -0.286316 9.13554e-20)
(0.434793 -0.263983 2.77802e-20)
(0.479149 -0.243295 -6.15752e-20)
(0.519381 -0.2246 6.05385e-20)
(0.555999 -0.207757 4.79784e-21)
(0.589424 -0.192549 1.40815e-20)
(0.620011 -0.178777 2.46095e-20)
(0.648069 -0.16627 -3.01949e-20)
(0.673862 -0.154879 2.29484e-20)
(0.697623 -0.144478 1.10898e-20)
(0.719553 -0.134956 -6.01922e-21)
(0.73983 -0.126217 -1.43827e-20)
(0.75861 -0.118179 -4.76451e-20)
(0.776029 -0.110767 4.19238e-20)
(0.792205 -0.103918 8.68134e-21)
(0.807242 -0.0975788 -4.85293e-20)
(0.821257 -0.0916984 -3.2932e-20)
(0.834372 -0.0862139 2.33644e-20)
(0.846578 -0.0810738 2.98773e-20)
(0.857609 -0.0763558 -2.28784e-20)
(0.0492358 -0.142159 3.76611e-20)
(0.131438 -0.290718 -1.90362e-20)
(0.214424 -0.347402 2.40609e-21)
(0.284738 -0.354125 -4.99571e-20)
(0.345894 -0.337714 1.21667e-19)
(0.399617 -0.313828 -1.88368e-19)
(0.447553 -0.289428 -4.48059e-20)
(0.490792 -0.2668 -1.74485e-21)
(0.530025 -0.246344 -1.08511e-19)
(0.565753 -0.22791 -1.7975e-20)
(0.598382 -0.211263 -3.14966e-20)
(0.628256 -0.196187 9.01444e-20)
(0.655673 -0.182492 2.89871e-20)
(0.68089 -0.170019 -9.43959e-20)
(0.704131 -0.158627 1.26761e-20)
(0.725591 -0.148197 -1.39994e-20)
(0.745442 -0.138624 3.90471e-21)
(0.763834 -0.129815 1.04711e-19)
(0.7809 -0.121692 -3.08319e-20)
(0.796754 -0.114185 -2.25862e-20)
(0.811496 -0.107236 -1.3753e-20)
(0.82524 -0.100788 4.49316e-20)
(0.838121 -0.0947698 7.54692e-21)
(0.850116 -0.0891284 -2.99515e-20)
(0.860865 -0.0839708 2.42536e-20)
(0.0565603 -0.153293 -4.86213e-20)
(0.146142 -0.314213 -3.1547e-20)
(0.231733 -0.37609 1.03572e-19)
(0.302211 -0.383815 6.58009e-20)
(0.36241 -0.36631 5.51516e-21)
(0.414821 -0.340564 7.34196e-20)
(0.461439 -0.31418 8.67545e-20)
(0.503466 -0.289681 3.01096e-21)
(0.541613 -0.267522 1.16835e-19)
(0.576373 -0.247551 -9.3902e-21)
(0.608136 -0.229513 -3.973e-20)
(0.637235 -0.213173 -7.68222e-20)
(0.663956 -0.19833 2.15495e-20)
(0.688546 -0.184807 6.4941e-20)
(0.711222 -0.172455 3.21656e-20)
(0.732171 -0.161144 4.14805e-20)
(0.751558 -0.150759 5.63955e-20)
(0.769529 -0.141203 -1.03732e-19)
(0.786212 -0.132389 1.21966e-20)
(0.801716 -0.124241 5.9593e-20)
(0.816135 -0.116698 -1.02621e-20)
(0.829585 -0.109697 -1.0686e-20)
(0.842211 -0.103158 -2.33445e-21)
(0.853977 -0.0970264 -1.45811e-21)
(0.864424 -0.0914437 -2.0885e-20)
(0.0643656 -0.163802 -1.51582e-20)
(0.16188 -0.336607 -2.0686e-20)
(0.250311 -0.403614 -8.11955e-20)
(0.321004 -0.412432 -1.3923e-19)
(0.380196 -0.393958 -8.70785e-20)
(0.431208 -0.366461 -1.85881e-20)
(0.47641 -0.338181 -3.70943e-20)
(0.517134 -0.311887 -1.29862e-20)
(0.554112 -0.288091 -9.25833e-20)
(0.587828 -0.266639 3.34827e-21)
(0.618659 -0.24726 -2.45526e-20)
(0.646924 -0.229702 -5.47993e-20)
(0.672895 -0.21375 2.41644e-20)
(0.696811 -0.199214 -8.60049e-20)
(0.718877 -0.185934 -4.98365e-20)
(0.739275 -0.17377 -4.86548e-20)
(0.758163 -0.162602 -1.1057e-19)
(0.77568 -0.152322 4.55165e-20)
(0.791951 -0.142837 5.4974e-20)
(0.807077 -0.134069 -4.36454e-21)
(0.821149 -0.125949 -5.32174e-20)
(0.834282 -0.118412 3.83008e-20)
(0.846631 -0.111365 1.57306e-20)
(0.858152 -0.104755 7.97144e-22)
(0.86828 -0.0987621 1.99844e-20)
(0.0726058 -0.173647 6.10762e-20)
(0.178575 -0.357823 1.10065e-19)
(0.27008 -0.429892 -1.63597e-20)
(0.341047 -0.439899 1.27064e-19)
(0.399194 -0.420586 -1.22873e-20)
(0.448725 -0.391456 -2.56416e-21)
(0.492421 -0.361379 1.50724e-19)
(0.531754 -0.333368 -2.96166e-20)
(0.567484 -0.308005 -6.20185e-20)
(0.600087 -0.285133 5.53366e-21)
(0.629923 -0.264467 5.88521e-20)
(0.657296 -0.245741 2.92537e-20)
(0.682467 -0.228722 -3.12977e-20)
(0.705662 -0.213212 -3.89373e-21)
(0.727078 -0.199039 -4.98451e-20)
(0.746887 -0.186055 6.83856e-20)
(0.765242 -0.17413 5.38041e-20)
(0.782274 -0.163151 1.05279e-20)
(0.798103 -0.15302 -1.05562e-20)
(0.812827 -0.143651 9.10252e-21)
(0.826527 -0.134974 3.8038e-20)
(0.83932 -0.126917 -2.23064e-20)
(0.851372 -0.119378 2.81563e-20)
(0.862632 -0.112301 -3.03776e-20)
(0.872426 -0.105913 -3.09464e-20)
(0.081232 -0.182789 -1.48684e-20)
(0.196144 -0.37779 -1.88293e-19)
(0.290958 -0.454843 1.15839e-19)
(0.362269 -0.466141 5.94197e-20)
(0.419342 -0.44613 7.34509e-20)
(0.46732 -0.415493 6.1298e-20)
(0.509425 -0.38372 -9.52659e-20)
(0.547285 -0.35408 6.42374e-21)
(0.581693 -0.327223 3.78422e-20)
(0.613115 -0.302996 -4.62577e-20)
(0.641896 -0.281102 -6.64136e-21)
(0.668324 -0.261257 -5.94653e-21)
(0.692645 -0.243219 1.32548e-20)
(0.715076 -0.226776 7.74674e-20)
(0.735802 -0.211747 6.15753e-20)
(0.754987 -0.197975 -4.58814e-20)
(0.772775 -0.185323 4.22221e-20)
(0.789293 -0.173673 -6.03829e-21)
(0.804654 -0.162919 -3.51146e-20)
(0.81895 -0.152972 1.38694e-20)
(0.832257 -0.143758 -2.23624e-20)
(0.844688 -0.135199 9.57335e-21)
(0.856424 -0.127183 1.50989e-20)
(0.867407 -0.119652 3.0107e-20)
(0.876855 -0.112886 6.38498e-20)
(0.0901929 -0.191194 9.71393e-20)
(0.214502 -0.396439 5.04738e-20)
(0.312857 -0.478394 -1.4476e-19)
(0.38459 -0.491087 -5.22205e-20)
(0.440572 -0.470525 -2.32973e-20)
(0.486935 -0.438515 -3.40609e-20)
(0.527371 -0.405157 -3.72476e-20)
(0.563682 -0.373978 9.93215e-20)
(0.596697 -0.345705 -3.58152e-20)
(0.626875 -0.320192 1.0872e-19)
(0.654544 -0.29713 -6.03603e-21)
(0.679976 -0.276222 6.31958e-20)
(0.703403 -0.257212 -8.69324e-20)
(0.725028 -0.23988 -2.07763e-20)
(0.745027 -0.224033 9.62103e-21)
(0.763554 -0.209509 1.27024e-20)
(0.780745 -0.196163 -4.58149e-20)
(0.796721 -0.183869 1.09511e-20)
(0.811588 -0.172518 -5.97609e-20)
(0.825433 -0.162016 -2.04179e-20)
(0.838325 -0.152286 2.91611e-20)
(0.850374 -0.143246 2.46751e-20)
(0.861774 -0.13477 -6.25842e-20)
(0.872467 -0.126798 1.33602e-20)
(0.881558 -0.119668 -7.52302e-20)
(0.0994344 -0.198831 -1.15084e-19)
(0.233557 -0.413709 -1.61239e-20)
(0.335683 -0.500472 -5.8755e-20)
(0.407929 -0.51467 -7.75505e-20)
(0.462815 -0.493713 -6.66444e-22)
(0.507509 -0.460471 7.6264e-20)
(0.546207 -0.425643 2.56158e-20)
(0.580897 -0.393021 -4.12178e-20)
(0.612453 -0.363414 -5.14178e-21)
(0.641328 -0.336687 -8.25264e-20)
(0.667833 -0.312521 -5.43665e-20)
(0.692222 -0.290607 -6.30527e-20)
(0.714712 -0.270677 4.30521e-20)
(0.735492 -0.2525 -7.49895e-20)
(0.754729 -0.235878 2.34425e-20)
(0.772567 -0.220638 -2.30732e-20)
(0.789132 -0.20663 -5.46256e-20)
(0.804539 -0.193723 4.83354e-20)
(0.818888 -0.181803 1.84592e-20)
(0.83226 -0.17077 1.19544e-20)
(0.844717 -0.160546 7.11257e-21)
(0.856365 -0.151044 -3.83865e-20)
(0.867412 -0.142126 4.0621e-20)
(0.877802 -0.133726 -4.97486e-20)
(0.886526 -0.126248 -8.95947e-21)
(0.108901 -0.205675 9.9462e-21)
(0.253213 -0.429545 1.21617e-20)
(0.359337 -0.521015 1.4608e-19)
(0.432197 -0.536828 -1.49013e-20)
(0.485995 -0.515639 -2.6667e-20)
(0.528978 -0.481311 -4.35584e-20)
(0.565875 -0.445135 -1.2221e-20)
(0.59888 -0.41117 5.01325e-20)
(0.628917 -0.380316 -1.05498e-19)
(0.656435 -0.352451 9.81221e-20)
(0.681727 -0.327247 1.36691e-19)
(0.705028 -0.304387 3.0478e-21)
(0.726541 -0.283589 -1.03551e-21)
(0.746441 -0.264617 -1.01443e-20)
(0.764884 -0.247261 -5.15353e-20)
(0.782002 -0.231343 1.80841e-20)
(0.797916 -0.216709 7.35213e-20)
(0.812729 -0.20322 -6.14525e-20)
(0.826538 -0.190758 -2.43639e-20)
(0.839417 -0.179221 2.53684e-20)
(0.85142 -0.168526 4.14735e-20)
(0.862649 -0.158583 3.66713e-20)
(0.873325 -0.149242 3.30415e-23)
(0.8834 -0.140428 -8.04622e-20)
(0.891753 -0.132615 8.86226e-20)
(0.118534 -0.211702 3.39082e-20)
(0.27337 -0.443894 4.7705e-20)
(0.383718 -0.539962 -7.67564e-20)
(0.457303 -0.557504 1.50413e-19)
(0.510036 -0.53625 2.37912e-20)
(0.551275 -0.500992 3.88202e-20)
(0.586317 -0.463594 -7.69318e-21)
(0.61758 -0.428391 2.21077e-20)
(0.646043 -0.396378 2.30413e-19)
(0.672153 -0.367453 -6.29158e-20)
(0.696186 -0.341282 -1.23511e-19)
(0.71836 -0.317536 -1.60348e-20)
(0.738859 -0.295927 -4e-20)
(0.757847 -0.276208 2.1463e-20)
(0.775465 -0.258163 8.88461e-20)
(0.791837 -0.241608 6.25856e-20)
(0.807073 -0.226383 -7.46476e-20)
(0.821271 -0.212345 -3.22633e-22)
(0.834519 -0.199371 6.33622e-20)
(0.846886 -0.187355 -4.54853e-20)
(0.858418 -0.176213 4.66688e-20)
(0.869211 -0.165853 9.52452e-21)
(0.8795 -0.156107 1.42761e-20)
(0.889251 -0.146893 4.40974e-20)
(0.897227 -0.13876 3.86379e-20)
(0.128275 -0.216894 -3.06083e-20)
(0.293925 -0.456713 -8.13639e-20)
(0.408718 -0.55726 8.87379e-20)
(0.483152 -0.576645 -1.10337e-19)
(0.534854 -0.555499 -1.10051e-19)
(0.57433 -0.519472 -5.00446e-20)
(0.607474 -0.480984 5.04386e-20)
(0.636941 -0.444651 -6.46193e-20)
(0.663781 -0.411572 -1.48103e-19)
(0.688439 -0.381668 7.09041e-20)
(0.711173 -0.354601 -1.34972e-20)
(0.732181 -0.330034 7.95912e-20)
(0.751635 -0.307671 1.45354e-20)
(0.76968 -0.287255 9.43526e-20)
(0.786446 -0.268568 -9.78863e-20)
(0.802047 -0.251417 9.53115e-21)
(0.816583 -0.235638 1.43153e-20)
(0.830145 -0.221084 1.39539e-20)
(0.842813 -0.207629 -2.56214e-20)
(0.854651 -0.195161 4.01988e-20)
(0.865696 -0.183598 -3.42239e-20)
(0.876039 -0.172843 -8.0602e-21)
(0.885926 -0.162714 6.20919e-21)
(0.895342 -0.153113 2.75953e-20)
(0.90294 -0.144672 -3.3943e-20)
(0.138063 -0.221236 -5.02523e-21)
(0.314771 -0.467964 1.04302e-19)
(0.434227 -0.572861 -1.86523e-20)
(0.509644 -0.594202 9.18306e-20)
(0.560367 -0.573344 4.92355e-20)
(0.598073 -0.536713 -3.47111e-20)
(0.629281 -0.497271 1.27165e-20)
(0.65691 -0.459921 1.56567e-20)
(0.682082 -0.425871 4.88419e-20)
(0.705247 -0.395071 -5.38181e-20)
(0.726645 -0.367183 1.28455e-19)
(0.746457 -0.341861 -6.38784e-20)
(0.764834 -0.318801 -9.94475e-20)
(0.781909 -0.297743 -1.44638e-21)
(0.797799 -0.27846 -2.20278e-20)
(0.812607 -0.260756 -3.45797e-20)
(0.826423 -0.244461 -1.29654e-20)
(0.839329 -0.229427 -3.09972e-20)
(0.851401 -0.21552 2.24678e-20)
(0.862694 -0.20263 -1.06975e-19)
(0.873238 -0.190671 -1.15991e-19)
(0.883117 -0.179545 -7.50001e-20)
(0.89259 -0.169053 -4.37448e-20)
(0.901662 -0.159081 -6.83294e-20)
(0.908883 -0.150342 2.62126e-20)
(0.147835 -0.224719 -5.44899e-21)
(0.335798 -0.477616 -5.54355e-20)
(0.460128 -0.586723 -9.99178e-20)
(0.536678 -0.610133 -1.95117e-20)
(0.586486 -0.589745 -6.64384e-20)
(0.622428 -0.552682 1.07644e-19)
(0.651675 -0.512428 -6.51476e-20)
(0.677428 -0.474175 2.25587e-20)
(0.700895 -0.439253 -1.65327e-19)
(0.722531 -0.407643 1.0271e-19)
(0.742562 -0.379008 -2.99816e-20)
(0.761148 -0.352998 4.78516e-20)
(0.778422 -0.329303 1.27263e-19)
(0.794504 -0.307656 7.94187e-20)
(0.809496 -0.287825 3.23165e-20)
(0.82349 -0.269611 -1.01013e-20)
(0.836568 -0.25284 -1.07908e-20)
(0.848803 -0.23736 1.6327e-20)
(0.860262 -0.223036 2.9817e-20)
(0.870996 -0.209752 9.42139e-20)
(0.881027 -0.197424 7.30715e-20)
(0.89043 -0.185951 4.80053e-20)
(0.899477 -0.17512 2.60474e-20)
(0.9082 -0.164789 -5.71134e-20)
(0.915047 -0.155762 7.0671e-20)
(0.157531 -0.227336 -3.60733e-20)
(0.356894 -0.485644 -1.5744e-20)
(0.486304 -0.59881 3.24426e-20)
(0.564145 -0.624402 2.59955e-20)
(0.613122 -0.604669 4.23701e-20)
(0.647318 -0.567349 -3.88849e-20)
(0.674589 -0.526428 3.07417e-21)
(0.698437 -0.487392 -4.97498e-20)
(0.720166 -0.451698 1.01668e-19)
(0.740245 -0.419364 -1.07033e-19)
(0.758881 -0.390061 -1.56554e-20)
(0.776216 -0.363432 -2.78947e-21)
(0.792365 -0.339162 -7.6022e-20)
(0.807433 -0.31698 -4.86933e-20)
(0.821508 -0.296651 -1.4085e-20)
(0.834672 -0.277972 -2.54645e-20)
(0.846995 -0.260765 5.85178e-20)
(0.858543 -0.244876 -1.37565e-20)
(0.869377 -0.230167 7.03769e-20)
(0.87954 -0.216519 -1.05604e-19)
(0.889047 -0.203849 -1.07051e-21)
(0.897964 -0.192056 4.86676e-22)
(0.906575 -0.180907 2.04287e-20)
(0.914946 -0.170232 6.72825e-20)
(0.921425 -0.160924 3.58445e-20)
(0.167087 -0.229087 7.81964e-20)
(0.377944 -0.492031 1.64606e-20)
(0.512634 -0.609095 -3.96108e-21)
(0.591938 -0.636975 -2.31797e-20)
(0.64018 -0.618087 -1.67059e-20)
(0.672666 -0.58069 1.32976e-20)
(0.697955 -0.539251 1.2453e-20)
(0.719877 -0.499553 -7.08404e-20)
(0.739844 -0.463188 1.67322e-20)
(0.75834 -0.43022 1.83951e-20)
(0.775559 -0.400326 -3.03937e-20)
(0.791621 -0.373147 -2.25933e-20)
(0.806627 -0.348366 2.53097e-20)
(0.820663 -0.325705 9.51674e-20)
(0.833805 -0.304929 -1.50827e-20)
(0.846124 -0.285829 3.56014e-21)
(0.857679 -0.268227 9.52238e-21)
(0.868528 -0.251966 -1.4747e-20)
(0.878725 -0.236905 -1.10804e-19)
(0.888307 -0.222924 2.25991e-20)
(0.89728 -0.209939 4.37162e-20)
(0.905702 -0.197852 4.23555e-21)
(0.913869 -0.186412 -4.73647e-20)
(0.921889 -0.175409 -3.86969e-20)
(0.928012 -0.165822 -1.18099e-20)
(0.17644 -0.229976 -3.10385e-20)
(0.398833 -0.496765 2.76539e-20)
(0.538994 -0.617554 9.91896e-22)
(0.619943 -0.647828 -1.6247e-20)
(0.667567 -0.629972 -3.90683e-20)
(0.69839 -0.592683 -2.22576e-20)
(0.721705 -0.550877 2.77342e-20)
(0.741687 -0.510641 -9.47765e-22)
(0.759874 -0.47371 -4.95159e-20)
(0.776768 -0.440198 5.93126e-20)
(0.792551 -0.409792 -1.54573e-20)
(0.807325 -0.382135 5.17954e-20)
(0.821172 -0.356904 -7.51016e-20)
(0.834161 -0.333822 -4.42879e-20)
(0.846358 -0.312648 2.9634e-20)
(0.857819 -0.293174 4.4186e-21)
(0.868596 -0.275218 3.24233e-20)
(0.878735 -0.258622 -2.7569e-20)
(0.888284 -0.243244 -1.25672e-20)
(0.897277 -0.228961 -2.34849e-20)
(0.905709 -0.21569 8.22542e-20)
(0.913627 -0.203337 -6.32572e-20)
(0.921345 -0.191633 9.03893e-20)
(0.929021 -0.180318 -4.23633e-20)
(0.934806 -0.170451 -2.49887e-20)
(0.185529 -0.230011 1.65804e-20)
(0.419443 -0.499845 -4.56895e-20)
(0.565257 -0.624172 1.34282e-20)
(0.648047 -0.656939 6.87041e-20)
(0.695184 -0.640307 -2.83778e-20)
(0.724409 -0.603311 3.38821e-20)
(0.745768 -0.561295 3.19732e-20)
(0.763807 -0.520646 4.0555e-20)
(0.7802 -0.483254 -3.76062e-20)
(0.795478 -0.449288 -5.13748e-20)
(0.809813 -0.418451 4.33876e-20)
(0.823286 -0.390386 -3.76865e-20)
(0.835962 -0.36477 -3.91581e-21)
(0.847896 -0.341323 1.53321e-20)
(0.859137 -0.319803 -4.58475e-20)
(0.869731 -0.3 6.94457e-20)
(0.879719 -0.281732 -3.97318e-20)
(0.88914 -0.26484 2.72592e-20)
(0.898035 -0.249178 1.23056e-20)
(0.906431 -0.234625 -9.89309e-20)
(0.914316 -0.221096 -1.00736e-19)
(0.921721 -0.208503 -1.88128e-20)
(0.928984 -0.196566 4.48471e-20)
(0.936331 -0.184961 2.65539e-20)
(0.941814 -0.174811 -1.11597e-20)
(0.194293 -0.229205 -1.89981e-20)
(0.439658 -0.501274 3.31368e-20)
(0.591295 -0.628942 -1.26848e-20)
(0.676131 -0.664295 -4.23381e-20)
(0.722932 -0.649076 4.05212e-20)
(0.75064 -0.612563 -3.30859e-20)
(0.770073 -0.570493 4.15339e-20)
(0.786174 -0.529559 -2.78016e-22)
(0.800768 -0.491811 2.7431e-20)
(0.814423 -0.457484 3.14372e-20)
(0.8273 -0.426296 -8.73212e-21)
(0.839465 -0.397895 5.88161e-20)
(0.850963 -0.371958 -4.21656e-20)
(0.861832 -0.348203 3.68831e-22)
(0.87211 -0.326388 1.04168e-20)
(0.88183 -0.306303 2.29697e-21)
(0.891023 -0.287765 -4.60632e-21)
(0.89972 -0.270613 -7.2772e-20)
(0.907954 -0.254704 1.08721e-19)
(0.915749 -0.239912 -4.47649e-20)
(0.923084 -0.226155 1.04887e-19)
(0.929971 -0.213354 3.46021e-21)
(0.936768 -0.201221 -5.07218e-21)
(0.943811 -0.189361 -3.00419e-20)
(0.949057 -0.178924 -2.23463e-20)
(0.20267 -0.227575 3.89091e-22)
(0.459358 -0.501066 -1.20659e-20)
(0.616978 -0.631861 2.86135e-20)
(0.704077 -0.669887 7.03141e-21)
(0.750709 -0.656269 1.25972e-20)
(0.776997 -0.620429 1.28312e-20)
(0.794549 -0.578466 -1.11488e-19)
(0.808725 -0.537376 4.54324e-20)
(0.821523 -0.499379 9.14191e-21)
(0.833551 -0.464781 -2.72307e-20)
(0.844968 -0.433324 5.74226e-21)
(0.85582 -0.404658 -2.12248e-20)
(0.866136 -0.378463 1.3194e-20)
(0.875937 -0.354458 6.82731e-22)
(0.885248 -0.332399 2.55113e-20)
(0.89409 -0.312078 -8.25013e-21)
(0.902484 -0.293311 -1.78877e-20)
(0.910452 -0.275939 2.11282e-20)
(0.91802 -0.259817 -3.27494e-20)
(0.925211 -0.244818 3.65947e-20)
(0.931997 -0.23086 -2.10662e-20)
(0.938356 -0.217871 -2.85876e-20)
(0.944657 -0.205562 -2.15935e-21)
(0.951412 -0.193471 6.11151e-21)
(0.956554 -0.182767 3.90559e-20)
(0.210603 -0.225145 5.00239e-21)
(0.478428 -0.499238 -4.74277e-21)
(0.642175 -0.632936 -1.23996e-20)
(0.731763 -0.673712 -2.29179e-21)
(0.778414 -0.661883 -6.12191e-21)
(0.803396 -0.626907 5.90735e-21)
(0.819123 -0.585211 4.78807e-20)
(0.831398 -0.544095 9.64248e-21)
(0.842409 -0.505957 -1.21444e-20)
(0.852814 -0.47118 1.16581e-20)
(0.862771 -0.439533 -6.79933e-20)
(0.872312 -0.410675 7.54485e-21)
(0.881445 -0.384285 -3.38772e-20)
(0.890178 -0.360086 -5.69814e-20)
(0.89852 -0.337836 3.24126e-20)
(0.906483 -0.317325 -1.22247e-20)
(0.914076 -0.298371 -2.83598e-20)
(0.921312 -0.280816 9.45707e-21)
(0.928211 -0.264516 7.28468e-20)
(0.934794 -0.249344 5.63486e-22)
(0.941034 -0.235218 -2.75127e-20)
(0.946875 -0.222081 2.37282e-20)
(0.952647 -0.209669 -2.61368e-20)
(0.959103 -0.197503 2.21e-20)
(0.964404 -0.186724 2.52515e-20)
(0.218036 -0.221941 -4.50453e-21)
(0.49675 -0.495819 1.5036e-21)
(0.666756 -0.632181 -2.29675e-22)
(0.759067 -0.675776 6.69595e-21)
(0.805941 -0.665916 -9.65703e-21)
(0.82975 -0.631997 5.89603e-22)
(0.843722 -0.590732 1.79885e-20)
(0.854131 -0.549719 -2.77119e-20)
(0.86337 -0.511547 1.566e-20)
(0.872162 -0.476683 3.38926e-20)
(0.880666 -0.444926 9.51802e-20)
(0.888899 -0.415945 -3.67645e-20)
(0.896853 -0.389425 6.59059e-20)
(0.90452 -0.365089 3.81398e-21)
(0.911897 -0.342697 9.08029e-21)
(0.918981 -0.322042 -8.85525e-21)
(0.925774 -0.302943 2.27963e-20)
(0.932279 -0.285242 7.81472e-21)
(0.938507 -0.268798 -3.16195e-20)
(0.94448 -0.253484 3.3914e-20)
(0.950182 -0.239213 3.79388e-20)
(0.955529 -0.225924 -5.52412e-20)
(0.960725 -0.213344 3.67746e-20)
(0.966652 -0.200919 3.43719e-21)
(0.97244 -0.189748 8.63823e-21)
(0.224917 -0.217994 -1.10821e-20)
(0.514208 -0.49084 -8.021e-21)
(0.690587 -0.629616 7.56776e-21)
(0.785865 -0.676088 -4.17722e-21)
(0.833184 -0.668375 1.42479e-20)
(0.855971 -0.635704 3.06009e-20)
(0.868275 -0.595032 -1.67785e-20)
(0.876861 -0.554256 2.27799e-20)
(0.884352 -0.516156 -2.19681e-20)
(0.891546 -0.481294 2.03937e-20)
(0.898608 -0.449506 -5.23587e-20)
(0.905543 -0.420473 8.11625e-21)
(0.912325 -0.393885 -2.9813e-20)
(0.918933 -0.369468 -3.85924e-20)
(0.925347 -0.346985 4.43147e-20)
(0.931557 -0.326231 4.385e-20)
(0.937552 -0.307027 -2.01822e-21)
(0.943329 -0.289217 -1.05192e-20)
(0.948887 -0.272664 7.74311e-21)
(0.954246 -0.257242 -4.40633e-20)
(0.959405 -0.242863 -5.46741e-20)
(0.964282 -0.229466 6.03459e-20)
(0.968913 -0.216878 -7.54099e-21)
(0.973942 -0.205036 -1.57434e-20)
(0.980169 -0.19524 2.19817e-20)
(0.231205 -0.213343 3.12522e-20)
(0.530684 -0.48434 1.97275e-20)
(0.713538 -0.625272 -2.01287e-20)
(0.812033 -0.674665 4.75488e-21)
(0.860038 -0.669271 7.01172e-22)
(0.881972 -0.638038 -2.09515e-20)
(0.892707 -0.598123 -1.87356e-20)
(0.899526 -0.557713 -1.0168e-21)
(0.905301 -0.519792 1.3565e-20)
(0.910917 -0.485023 -3.90385e-20)
(0.916553 -0.453282 4.72698e-20)
(0.922203 -0.424266 -1.95575e-20)
(0.927825 -0.397671 -1.8194e-20)
(0.933382 -0.373228 4.96982e-20)
(0.938842 -0.350704 -3.05738e-21)
(0.944184 -0.329895 -5.82073e-20)
(0.949387 -0.310626 -5.83685e-21)
(0.954439 -0.292744 -8.56274e-21)
(0.959331 -0.276114 -3.80175e-20)
(0.964073 -0.260616 2.51771e-20)
(0.968675 -0.246158 4.56359e-20)
(0.973081 -0.232672 -3.85682e-20)
(0.977222 -0.22007 9.1808e-20)
(0.981457 -0.208487 -4.12916e-20)
(0.987166 -0.198236 1.12977e-20)
(0.236873 -0.208031 -4.70801e-20)
(0.546058 -0.476354 -4.64584e-20)
(0.735477 -0.61919 1.7785e-21)
(0.837446 -0.671529 8.05496e-21)
(0.886396 -0.668619 -1.96665e-21)
(0.907666 -0.639011 5.56586e-21)
(0.916948 -0.600017 1.2638e-20)
(0.922065 -0.560104 -1.98544e-20)
(0.926163 -0.522467 -4.39406e-22)
(0.930228 -0.487879 1.7024e-20)
(0.934459 -0.456262 -3.06269e-20)
(0.938841 -0.427331 7.74676e-21)
(0.943317 -0.40079 -5.98762e-20)
(0.947836 -0.376375 -1.32374e-20)
(0.952353 -0.353858 1.66948e-20)
(0.956835 -0.333038 2.13743e-20)
(0.961254 -0.313744 -1.98895e-21)
(0.965588 -0.295824 -1.32885e-20)
(0.96982 -0.279147 -2.56569e-20)
(0.973947 -0.263599 -4.14019e-21)
(0.977985 -0.249081 2.32542e-21)
(0.981923 -0.235504 1.32229e-20)
(0.985665 -0.222835 -4.29176e-20)
(0.989291 -0.211358 -5.30716e-21)
(0.994194 -0.20088 -3.67627e-20)
(0.24187 -0.202063 -8.31805e-21)
(0.56023 -0.466931 1.43167e-20)
(0.756276 -0.611426 2.10927e-20)
(0.861979 -0.666709 -2.14458e-20)
(0.912148 -0.666439 7.68297e-22)
(0.932963 -0.638642 -2.79661e-21)
(0.940925 -0.600731 3.99206e-21)
(0.944418 -0.561446 5.17565e-21)
(0.946886 -0.524197 -1.0819e-21)
(0.949432 -0.489877 1.15785e-20)
(0.952284 -0.458459 2.6207e-20)
(0.955419 -0.429679 1.51954e-20)
(0.958768 -0.403251 1.23859e-20)
(0.962264 -0.378917 3.43206e-20)
(0.965852 -0.356454 -1.03756e-20)
(0.969487 -0.335667 -6.69846e-22)
(0.973131 -0.316385 2.42633e-20)
(0.976755 -0.298461 -1.7325e-21)
(0.980335 -0.281767 -8.54097e-21)
(0.983858 -0.266193 -5.62244e-22)
(0.987343 -0.251633 -4.59467e-21)
(0.990823 -0.237982 -3.34443e-20)
(0.994225 -0.225249 3.65621e-20)
(0.997417 -0.213853 4.21762e-20)
(1.00152 -0.203261 9.2398e-21)
(0.246119 -0.195465 7.96671e-20)
(0.573102 -0.456154 6.43759e-20)
(0.775827 -0.602046 -3.98781e-20)
(0.885513 -0.660236 1.70749e-20)
(0.937188 -0.662757 -1.30442e-20)
(0.957776 -0.636952 8.48002e-21)
(0.964566 -0.600285 1.67457e-21)
(0.966524 -0.561757 3.3307e-21)
(0.967418 -0.525001 6.2404e-21)
(0.968484 -0.491033 -1.78453e-20)
(0.969986 -0.459887 -9.83021e-21)
(0.9719 -0.431323 -1.01475e-20)
(0.974143 -0.405065 1.49517e-20)
(0.976635 -0.380865 -3.84418e-20)
(0.97931 -0.358502 4.01035e-20)
(0.982112 -0.337788 7.4875e-21)
(0.984994 -0.318555 -9.30337e-21)
(0.987921 -0.300661 1.84005e-20)
(0.99086 -0.283979 6.05911e-20)
(0.993796 -0.268403 -1.83157e-20)
(0.996748 -0.253826 -9.65309e-21)
(0.999785 -0.24013 2.0456e-20)
(1.00286 -0.227359 -1.60344e-20)
(1.00569 -0.216012 -2.58209e-21)
(1.00911 -0.205296 1.30859e-20)
(0.249579 -0.188305 -1.31516e-19)
(0.584577 -0.444125 -2.09605e-20)