/*--------------------------------*- C++ -*----------------------------------*\
  =========                 |
  \\      /  F ield         | OpenFOAM: The Open Source CFD Toolbox
   \\    /   O peration     | Website:  https://openfoam.org
    \\  /    A nd           | Version:  7
     \\/     M anipulation  |
\*---------------------------------------------------------------------------*/
FoamFile
{
    version     2.0;
    format      ascii;
    class       volVectorField;
    location    "35";
    object      U;
}
// * * * * * * * * * * * * * * * * * * * * * * * * * * * * * * * * * * * * * //

dimensions      [0 1 -1 0 0 0 0];

internalField   nonuniform List<vector> 
10880
(
(-0.00106242 0.00164452 -5.57302e-20)
(-0.00433239 0.00353701 2.33387e-21)
(-0.00954498 0.00443853 -6.53086e-20)
(-0.015298 0.00465666 -3.70279e-20)
(-0.0207189 0.0043958 2.3274e-20)
(-0.0253717 0.00379501 -3.98439e-21)
(-0.0289877 0.00295459 2.58976e-20)
(-0.0313923 0.0019472 -5.03277e-21)
(-0.032484 0.000825198 -4.29695e-20)
(-0.0322134 -0.000373074 1.14156e-19)
(-0.0305663 -0.00161819 1.48768e-20)
(-0.0275538 -0.00288518 -2.52371e-20)
(-0.0232088 -0.00414934 -5.09703e-20)
(-0.0175857 -0.00538205 5.28414e-21)
(-0.0107665 -0.00654636 4.92293e-20)
(-0.0028722 -0.00759295 -4.30084e-20)
(0.00592677 -0.00845794 6.45759e-20)
(0.015414 -0.00906083 -4.99417e-20)
(0.0253103 -0.00928852 -5.31847e-20)
(0.0350457 -0.00898568 6.41429e-20)
(-0.00157565 0.00468911 -1.15196e-19)
(-0.00513677 0.0100401 1.41543e-19)
(-0.00988579 0.0125524 2.37529e-20)
(-0.0146501 0.0131042 8.99205e-20)
(-0.0187028 0.0122816 9.75555e-20)
(-0.0216921 0.0104859 -2.00484e-19)
(-0.0234085 0.00800728 -5.63224e-20)
(-0.0237225 0.00505576 4.76909e-20)
(-0.0225657 0.00178283 -2.0904e-19)
(-0.0199131 -0.00170087 8.75553e-21)
(-0.0157694 -0.00531086 2.15218e-19)
(-0.0101605 -0.00897601 -2.81567e-20)
(-0.00313021 -0.0126268 -4.19492e-20)
(0.00525816 -0.0161829 -1.1382e-21)
(0.014916 -0.0195401 4.64912e-20)
(0.0257133 -0.0225568 1.2165e-19)
(0.0374641 -0.0250453 4.20395e-20)
(0.0499671 -0.0267547 -2.43163e-21)
(0.0630455 -0.027312 -2.23308e-19)
(0.0758747 -0.0262425 -1.49261e-19)
(-0.0024475 0.0070401 -6.148e-20)
(-0.00638659 0.0149177 6.88256e-20)
(-0.0100967 0.0184887 -8.31285e-20)
(-0.0128286 0.0190788 -1.76446e-19)
(-0.0141263 0.0175795 1.68284e-19)
(-0.0137953 0.0146098 1.8749e-19)
(-0.0117394 0.0106185 6.32946e-20)
(-0.00791426 0.00593091 -9.35149e-20)
(-0.00231567 0.000781427 -9.69962e-21)
(0.00503268 -0.0046591 1.28973e-19)
(0.0140885 -0.0102613 -1.1484e-19)
(0.0247955 -0.0159183 9.09774e-20)
(0.0370841 -0.0215283 -3.692e-20)
(0.0508705 -0.0269749 3.28858e-19)
(0.0660485 -0.0321054 -4.823e-19)
(0.082466 -0.0367075 -1.23198e-19)
(0.0999009 -0.0404859 4.42974e-19)
(0.118162 -0.0430035 -3.9894e-19)
(0.137263 -0.043532 -3.20537e-21)
(0.155972 -0.0412237 -7.44202e-20)
(-0.00339501 0.00835769 3.66652e-20)
(-0.00741457 0.0173587 3.49519e-19)
(-0.00928982 0.021151 -3.98611e-19)
(-0.00882838 0.0213311 9.87431e-20)
(-0.00593568 0.0189853 -1.2368e-20)
(-0.000630607 0.0148837 3.854e-20)
(0.00702811 0.00958701 2.36028e-19)
(0.0169648 0.00350181 -2.706e-19)
(0.0290919 -0.00307863 -7.57947e-21)
(0.0433145 -0.00994097 -4.62344e-19)
(0.0595314 -0.0169256 -5.05928e-20)
(0.0776364 -0.0239043 6.13045e-20)
(0.0975154 -0.0307593 2.45651e-19)
(0.119044 -0.0373597 -1.37018e-19)
(0.142081 -0.0435336 4.22575e-19)
(0.166431 -0.0490356 -6.06408e-19)
(0.191809 -0.0535047 7.28112e-19)
(0.217996 -0.0563266 -5.03224e-19)
(0.245248 -0.0562951 3.14382e-19)
(0.271944 -0.0520369 1.61084e-19)
(-0.00405021 0.00845461 1.2029e-19)
(-0.00733142 0.0169027 4.62428e-20)
(-0.00625569 0.0199139 2.48807e-19)
(-0.00125451 0.0191579 -1.44257e-19)
(0.00735448 0.0157866 -6.63782e-20)
(0.0193036 0.0106423 5.556e-19)
(0.0343484 0.00434151 -8.75772e-19)
(0.0522663 -0.00266985 7.04417e-19)
(0.0728528 -0.0100697 3.22623e-19)
(0.0959164 -0.0176246 -6.85833e-19)
(0.121273 -0.0251617 1.76617e-19)
(0.14874 -0.0325465 7.11214e-20)
(0.178131 -0.0396618 7.78431e-19)
(0.209254 -0.0463849 -8.46831e-19)
(0.241898 -0.0525574 -2.50254e-19)
(0.2758 -0.0579508 6.49987e-19)
(0.310579 -0.0622108 -5.39517e-19)
(0.345926 -0.0646206 3.67755e-19)
(0.382324 -0.0634279 3.18308e-19)
(0.417987 -0.0564687 -1.08787e-18)
(-0.0040061 0.00730704 -3.80045e-19)
(-0.00512518 0.0134847 1.20703e-19)
(0.000415119 0.0147073 -1.69305e-19)
(0.0115493 0.0125229 4.9039e-22)
(0.0275317 0.0080184 4.60944e-19)
(0.0478278 0.0020251 -8.97555e-19)
(0.0719872 -0.00484648 8.03619e-19)
(0.0996162 -0.0121577 -7.22518e-19)
(0.130367 -0.0195932 7.39719e-19)
(0.163921 -0.0269252 -6.48264e-19)
(0.19998 -0.033988 3.57607e-19)
(0.238249 -0.0406575 -8.68819e-19)
(0.278431 -0.0468334 1.08675e-18)
(0.320223 -0.05242 8.88293e-20)
(0.363304 -0.0573014 -2.76019e-19)
(0.407308 -0.0613138 -5.34978e-19)
(0.451729 -0.0641992 -2.91375e-20)
(0.496112 -0.0652874 5.94432e-19)
(0.541087 -0.062365 2.92368e-19)
(0.585094 -0.05223 -6.33576e-19)
(-0.00285385 0.00503916 -1.24125e-19)
(0.000244471 0.00742492 -5.50076e-20)
(0.0121978 0.00602966 -8.46292e-20)
(0.0313341 0.00210304 4.48636e-20)
(0.056489 -0.00345871 -6.13121e-19)
(0.0868539 -0.00991798 1.17417e-18)
(0.121755 -0.016734 -1.40297e-20)
(0.160604 -0.0235266 -4.26409e-20)
(0.202876 -0.0300272 -4.2089e-19)
(0.24809 -0.0360466 -8.03635e-20)
(0.295787 -0.0414527 -1.25889e-19)
(0.345514 -0.0461536 -7.08612e-19)
(0.396816 -0.0500843 6.70644e-19)
(0.449229 -0.0531918 -5.82683e-19)
(0.502277 -0.0554187 3.48979e-19)
(0.555443 -0.0566916 -3.03526e-19)
(0.608086 -0.0569039 5.5758e-19)
(0.659594 -0.0555712 -4.12056e-19)
(0.71064 -0.0502928 1.48009e-19)
(0.76041 -0.037101 7.52316e-19)
(-0.000204972 0.00189468 1.46673e-19)
(0.00976694 -0.000619738 -1.43726e-20)
(0.0304907 -0.00509478 -2.42808e-19)
(0.05974 -0.0107429 3.2877e-20)
(0.0959528 -0.0169791 5.21044e-19)
(0.138043 -0.023241 -1.00457e-18)
(0.185095 -0.0291233 5.84418e-19)
(0.236294 -0.0343609 -3.14961e-20)
(0.290899 -0.0387811 4.2654e-19)
(0.348222 -0.0422767 -4.74704e-19)
(0.407596 -0.0447883 3.87137e-19)
(0.468368 -0.0462912 -1.01682e-18)
(0.529887 -0.0467838 -5.63514e-19)
(0.591504 -0.0462763 1.16789e-18)
(0.652569 -0.0447791 -4.67618e-19)
(0.712415 -0.0423013 -3.0073e-19)
(0.770304 -0.0388423 4.07642e-19)
(0.82553 -0.0340735 8.8175e-19)
(0.878489 -0.0260207 -5.28969e-19)
(0.929199 -0.0122678 -1.42786e-19)
(0.00428943 -0.00178746 2.98841e-19)
(0.0243007 -0.00970456 -2.85561e-19)
(0.0564598 -0.0171861 -2.29184e-19)
(0.0980511 -0.0240679 -6.5273e-19)
(0.147145 -0.0301925 5.71813e-19)
(0.202372 -0.0352552 7.94278e-19)
(0.26255 -0.0390581 -4.00682e-19)
(0.3266 -0.0415165 4.66451e-19)
(0.393524 -0.0426157 -1.63859e-19)
(0.462381 -0.0423892 4.99479e-20)
(0.532264 -0.0409077 8.22345e-19)
(0.6023 -0.038269 -1.11689e-18)
(0.67165 -0.0345872 -3.98812e-20)
(0.73952 -0.0299824 2.287e-19)
(0.805179 -0.0245692 8.36882e-20)
(0.867975 -0.0184438 -8.46835e-20)
(0.927386 -0.0116244 2.42635e-19)
(0.983083 -0.00390837 -1.33626e-19)
(1.03472 0.00469241 -7.5103e-19)
(1.08126 0.0114658 6.81973e-19)
(0.0109194 -0.00558342 2.34824e-19)
(0.0444827 -0.018646 7.69589e-20)
(0.0908581 -0.0284088 -2.31881e-19)
(0.146927 -0.035491 2.71943e-19)
(0.210427 -0.0402799 -6.18313e-19)
(0.279696 -0.0428169 1.30872e-18)
(0.353261 -0.0431895 -8.91044e-19)
(0.429743 -0.0415684 -4.84244e-19)
(0.507855 -0.0381675 1.28084e-18)
(0.586376 -0.0332287 -1.00893e-18)
(0.664153 -0.0270166 1.23713e-18)
(0.740107 -0.0198114 -1.51235e-18)
(0.813244 -0.0119005 5.08652e-19)
(0.882682 -0.00357113 5.95665e-19)
(0.947668 0.00489575 -5.13042e-19)
(1.0076 0.0132341 -1.04281e-20)
(1.06208 0.0212245 -7.93659e-20)
(1.11089 0.0286541 -5.85821e-19)
(1.15362 0.0346392 4.26946e-19)
(1.18944 0.0373224 -1.18418e-19)
(0.0198803 -0.00899349 -3.11817e-19)
(0.0706218 -0.026075 1.17703e-19)
(0.133848 -0.0366909 -5.25341e-21)
(0.206157 -0.0424007 -4.64385e-19)
(0.285004 -0.0442535 6.2357e-19)
(0.368439 -0.0427279 -8.5598e-19)
(0.454686 -0.038279 7.83862e-20)
(0.542068 -0.0314071 2.50477e-19)
(0.629015 -0.0226198 -3.44792e-19)
(0.714072 -0.0124185 6.35447e-19)
(0.795912 -0.00129532 1.75035e-19)
(0.873358 0.0102761 7.26603e-20)
(0.945408 0.0218512 -7.21176e-19)
(1.01126 0.033026 7.31048e-19)
(1.07033 0.0434454 -3.90732e-19)
(1.12227 0.052815 2.88069e-19)
(1.16692 0.0609182 -6.03156e-19)
(1.20433 0.0675644 -3.40968e-19)
(1.23442 0.0722283 4.05186e-19)
(1.25672 0.0746041 1.05211e-19)
(0.0312229 -0.0114506 -3.03898e-19)
(0.102576 -0.030504 4.1929e-19)
(0.184832 -0.0398792 8.82272e-20)
(0.274473 -0.0422132 -7.67558e-20)
(0.368756 -0.0393213 2.07548e-19)
(0.46548 -0.0322065 5.10631e-19)
(0.562606 -0.0217667 -2.63636e-19)
(0.658217 -0.00889257 -1.98326e-19)
(0.75056 0.00557429 -5.17185e-19)
(0.838082 0.0208562 4.54081e-19)
(0.919459 0.0362454 -2.38932e-19)
(0.993634 0.0511156 1.01398e-20)
(1.05984 0.0649355 1.10423e-18)
(1.11762 0.0772795 -7.70918e-19)
(1.1668 0.0878341 6.79152e-19)
(1.20751 0.096403 -7.01033e-20)
(1.2401 0.10291 9.52368e-20)
(1.26508 0.107346 -2.21135e-19)
(1.28292 0.109577 -7.67215e-20)
(1.29395 0.110018 -4.03071e-19)
(0.0447984 -0.0123481 1.74846e-19)
(0.13964 -0.0304351 1.12239e-19)
(0.242336 -0.0359403 -7.28238e-20)
(0.349476 -0.0326624 -9.71322e-19)
(0.458256 -0.0232549 2.93563e-19)
(0.566321 -0.00930854 -7.10451e-20)
(0.671485 0.00779126 -3.97662e-20)
(0.771744 0.0267456 -5.10002e-20)
(0.865361 0.046393 8.35722e-20)
(0.95092 0.0657287 -6.15152e-19)
(1.02737 0.0839126 3.27823e-19)
(1.09405 0.100279 -5.00441e-19)
(1.15069 0.114343 6.46982e-20)
(1.19741 0.125802 -2.63584e-19)
(1.23465 0.134524 -9.73528e-20)
(1.26312 0.140537 5.00002e-19)
(1.2837 0.144001 -5.37942e-19)
(1.29738 0.145152 8.23596e-20)
(1.30501 0.144181 2.11302e-19)
(1.30732 0.141843 -2.24131e-19)
(0.060214 -0.0110931 2.70745e-19)
(0.180488 -0.0245154 -4.20495e-20)
(0.304 -0.0231995 -3.46678e-19)
(0.427728 -0.0121033 -4.76561e-20)
(0.54901 0.00527508 6.08742e-19)
(0.665519 0.0267475 -2.53527e-19)
(0.77513 0.0504591 2.3935e-19)
(0.876004 0.0747593 -2.6779e-19)
(0.9667 0.0982626 1.26525e-19)
(1.04624 0.119869 -1.20533e-19)
(1.11413 0.138764 5.35004e-19)
(1.17037 0.154411 -3.29102e-19)
(1.21539 0.166542 -3.66916e-20)
(1.25 0.175122 -4.28606e-20)
(1.27527 0.180315 7.1143e-20)
(1.29246 0.182438 -1.0884e-19)
(1.30285 0.181913 2.44868e-19)
(1.30769 0.179192 7.41546e-21)
(1.30805 0.174688 -3.64795e-19)
(1.3047 0.169236 -1.10768e-19)
(0.0768178 -0.00718089 -2.10723e-19)
(0.223191 -0.0117232 1.66932e-19)
(0.366687 -0.00059424 5.85913e-20)
(0.505004 0.0202158 -7.4088e-20)
(0.635889 0.0464558 -2.00666e-20)
(0.757306 0.0754189 8.54649e-20)
(0.867483 0.104893 -6.72503e-20)
(0.965063 0.133029 2.90573e-19)
(1.04921 0.158403 -2.00521e-19)
(1.11968 0.180028 9.5806e-20)
(1.17677 0.19732 -2.1559e-19)
(1.22128 0.210063 2.08415e-19)
(1.25439 0.218353 8.45034e-20)
(1.27758 0.222528 -2.33044e-19)
(1.29242 0.223093 2.36057e-19)
(1.3005 0.220651 -9.47794e-20)
(1.3033 0.215834 4.14158e-20)
(1.30211 0.209236 3.71293e-20)
(1.29794 0.201392 1.97993e-21)
(1.29143 0.193013 3.71052e-20)
(0.0937203 -0.000279853 -9.70191e-20)
(0.265329 0.00844393 1.61177e-19)
(0.426732 0.0321063 -9.90947e-20)
(0.576687 0.0639608 7.96191e-20)
(0.71367 0.0992226 -1.02202e-19)
(0.836254 0.134859 -1.51227e-20)
(0.94335 0.168521 4.37089e-20)
(1.0344 0.198409 -1.65115e-20)
(1.10945 0.22332 -1.7352e-20)
(1.16917 0.242619 8.6335e-20)
(1.21477 0.256164 -1.29975e-20)
(1.24783 0.264208 -4.69173e-20)
(1.27023 0.267301 9.39104e-20)
(1.28388 0.266174 -7.06142e-20)
(1.29066 0.261644 1.60047e-20)
(1.29228 0.254526 -2.11163e-20)
(1.29016 0.245566 5.92448e-20)
(1.28546 0.235413 -4.65213e-20)
(1.27898 0.224629 -6.71679e-21)
(1.27118 0.213646 -1.10473e-20)
(0.109858 0.00969049 5.63382e-20)
(0.304197 0.0358189 -1.71506e-19)
(0.480278 0.0741591 1.03819e-19)
(0.638238 0.117642 -1.59818e-20)
(0.777597 0.161308 2.98277e-20)
(0.897856 0.202108 -5.03608e-20)
(0.998913 0.237872 -3.26152e-20)
(1.08125 0.267166 6.76932e-21)
(1.14595 0.289289 7.85802e-20)
(1.19468 0.304186 -1.11523e-19)
(1.22947 0.312307 1.61181e-20)
(1.25259 0.314455 2.35001e-20)
(1.26636 0.311634 -3.353e-20)
(1.27293 0.304919 8.88718e-20)
(1.27425 0.295344 -3.08249e-20)
(1.27192 0.283828 2.32519e-20)
(1.26719 0.271133 -4.96215e-20)
(1.26096 0.257889 1.28732e-20)
(1.25381 0.244614 2.04925e-20)
(1.24602 0.231359 1.16432e-20)
(0.12409 0.0225047 1.11432e-19)
(0.337063 0.0694861 9.82538e-20)
(0.523674 0.123819 -3.39835e-20)
(0.685666 0.178687 -1.18809e-19)
(0.823856 0.229433 -6.31154e-20)
(0.938932 0.273397 1.49375e-19)
(1.03197 0.308965 6.09476e-20)
(1.10462 0.335391 -1.21742e-19)
(1.15901 0.352727 4.85719e-20)
(1.19769 0.361661 -4.21131e-22)
(1.22337 0.363306 1.60983e-19)
(1.23876 0.359 -6.29273e-20)
(1.24637 0.350134 -1.42861e-19)
(1.24839 0.338017 1.64638e-19)
(1.24664 0.323789 -6.67497e-20)
(1.2425 0.308369 9.57874e-20)
(1.23697 0.292451 -3.2041e-20)
(1.2307 0.276591 8.09411e-21)
(1.22401 0.261234 -1.58658e-20)
(1.21709 0.246026 -1.13891e-20)
(0.135315 0.0376115 -1.12969e-19)
(0.361459 0.107792 -2.31051e-19)
(0.553853 0.178433 3.65729e-19)
(0.715921 0.243636 2.02493e-19)
(0.84991 0.299604 -5.86692e-19)
(0.957813 0.344514 3.44761e-19)
(1.04195 0.377676 7.95992e-20)
(1.10507 0.399314 1.33598e-19)
(1.15024 0.41041 -1.07842e-21)
(1.18066 0.412459 -1.02527e-20)
(1.19949 0.407218 -2.6373e-19)
(1.20961 0.396477 1.76339e-19)
(1.21354 0.381897 6.0593e-20)
(1.21332 0.364901 -3.11847e-20)
(1.21052 0.346624 -7.74946e-20)
(1.20626 0.327905 9.38601e-21)
(1.20129 0.309323 -2.01803e-20)
(1.19602 0.291341 -1.44477e-21)
(1.19055 0.274319 5.50624e-20)
(1.18508 0.257506 -8.67511e-22)
(0.142592 0.0541548 -2.57704e-19)
(0.375445 0.14845 -1.12841e-19)
(0.56864 0.23464 -1.14879e-19)
(0.727167 0.308439 2.97177e-19)
(0.854651 0.367464 2.59931e-20)
(0.954349 0.411151 -1.06263e-19)
(1.02971 0.440043 -1.8312e-19)
(1.08439 0.455522 -1.57245e-20)
(1.12213 0.459569 9.69014e-22)
(1.14656 0.454461 2.10959e-19)
(1.16099 0.442502 -2.06521e-19)
(1.16827 0.425807 4.25932e-20)
(1.17075 0.406176 -9.62151e-20)
(1.17021 0.385035 3.61024e-20)
(1.16796 0.363431 8.4466e-22)
(1.16488 0.342071 -4.81043e-20)
(1.16148 0.321406 1.34225e-20)
(1.15798 0.301823 -1.35932e-20)
(1.15432 0.283586 2.30728e-20)
(1.15084 0.26546 -1.36791e-20)
(0.145248 0.0710339 1.08371e-19)
(0.377818 0.188718 1.29299e-19)
(0.566966 0.288658 -1.58714e-19)
(0.718912 0.36879 2.24217e-19)
(0.838414 0.428636 5.56841e-20)
(0.929763 0.469213 -2.71474e-19)
(0.997273 0.492491 6.57218e-20)
(1.04523 0.501079 5.74819e-20)
(1.07775 0.497922 7.53343e-20)
(1.09858 0.485971 -4.72046e-20)
(1.11097 0.467932 7.30407e-20)
(1.11758 0.446105 1.76236e-20)
(1.12047 0.422307 1.19791e-20)
(1.12116 0.397874 2.23068e-21)
(1.12068 0.373719 1.16507e-20)
(1.11971 0.350392 1.02729e-20)
(1.11861 0.328218 -6.04986e-21)
(1.11745 0.307517 4.53702e-20)
(1.11607 0.288485 -1.67193e-20)
(1.11505 0.269516 -1.65534e-19)
(0.142961 0.0870012 3.16468e-19)
(0.368238 0.225641 -2.25784e-19)
(0.54896 0.336594 1.04877e-20)
(0.692011 0.420477 -1.80279e-19)
(0.802843 0.479038 -1.60988e-19)
(0.88643 0.515065 2.42243e-19)
(0.947588 0.531993 -2.62586e-20)
(0.990875 0.533606 -8.34721e-21)
(1.02046 0.52368 1.52811e-20)
(1.03997 0.505678 -2.9595e-20)
(1.05241 0.482555 -2.40149e-21)
(1.06016 0.456654 4.03024e-20)
(1.06495 0.429711 -9.84335e-20)
(1.06802 0.402917 1.60512e-19)
(1.07019 0.377017 3.26098e-20)
(1.07197 0.352412 4.40277e-20)
(1.07363 0.329312 -2.24709e-19)
(1.07516 0.307978 -1.09472e-19)
(1.07639 0.288568 5.1022e-19)
(1.07824 0.269282 -1.95592e-19)
(0.13577 0.100757 -2.46833e-20)
(0.347286 0.256306 -2.28106e-20)
(0.51593 0.374763 1.1919e-19)
(0.648534 0.459703 5.50447e-20)
(0.750703 0.515171 1.79197e-20)
(0.827638 0.545717 1.07398e-20)
(0.884225 0.556167 9.86649e-21)
(0.924941 0.551303 7.53619e-20)
(0.953732 0.535534 -5.52302e-20)
(0.973921 0.512648 -1.60456e-20)
(0.988162 0.485684 3.23799e-19)
(0.998464 0.456919 1.75031e-20)
(1.00627 0.42794 2.76195e-19)
(1.01257 0.39976 8.78526e-20)
(1.01799 0.372959 -1.72611e-19)
(1.02295 0.347802 1.53851e-19)
(1.02764 0.324395 7.92412e-20)
(1.03207 0.302917 -3.03426e-19)
(1.03623 0.283508 6.27504e-20)
(1.04128 0.264547 -1.50378e-19)
(0.124183 0.111024 1.00478e-19)
(0.31643 0.278013 -2.7896e-20)
(0.470209 0.399991 1.37383e-20)
(0.591574 0.483325 -1.79759e-19)
(0.685639 0.534273 3.8393e-20)
(0.757312 0.558959 1.47901e-19)
(0.811154 0.563354 -2.70324e-19)
(0.851244 0.552989 2.78132e-19)
(0.881091 0.532667 1.76484e-19)
(0.903573 0.506304 1.24892e-19)
(0.920936 0.476885 2.17544e-19)
(0.934841 0.446534 -5.71465e-19)
(0.946454 0.416646 -3.53474e-19)
(0.956561 0.388053 2.20949e-19)
(0.965668 0.361186 1.52785e-19)
(0.974092 0.336214 -2.05924e-19)
(0.982028 0.313152 2.05955e-19)
(0.989624 0.292019 -5.11633e-20)
(0.99717 0.273041 -4.07132e-19)
(1.00553 0.255879 5.51087e-19)
(0.109013 0.116816 2.51119e-20)
(0.277819 0.288668 -1.43804e-19)
(0.414999 0.409828 6.62903e-20)
(0.525016 0.489077 1.24194e-19)
(0.611884 0.534496 1.30756e-19)
(0.679762 0.55343 -4.48648e-19)
(0.732534 0.552647 6.3329e-19)
(0.773629 0.538109 5.91167e-19)
(0.805965 0.514765 -4.73264e-20)
(0.831908 0.486467 -1.88082e-19)
(0.853282 0.456027 7.97069e-19)
(0.871424 0.425346 -8.54845e-19)
(0.887272 0.395598 -4.75573e-20)
(0.901459 0.367423 7.86288e-19)
(0.914396 0.341096 -5.28275e-19)
(0.926326 0.316673 -7.12678e-20)
(0.937444 0.294029 9.15328e-20)
(0.948159 0.272766 8.15764e-19)
(0.958947 0.252531 -7.34397e-19)
(0.968025 0.234908 -1.61268e-19)
(0.0913662 0.117355 1.94248e-19)
(0.234216 0.286814 1.61922e-20)
(0.3541 0.402749 -5.05037e-19)
(0.453229 0.475697 7.83116e-21)
(0.534006 0.514978 -3.14901e-19)
(0.599467 0.528671 1.18598e-19)
(0.652551 0.523917 1.61093e-19)
(0.695874 0.506776 -4.06408e-19)
(0.731676 0.482088 5.49502e-19)
(0.761791 0.453489 1.48893e-19)
(0.787636 0.423526 4.18333e-19)
(0.810263 0.393854 -1.43642e-18)
(0.830418 0.365439 5.00803e-19)
(0.848619 0.338764 -1.89337e-19)
(0.865209 0.314002 1.92352e-19)
(0.88041 0.291151 -6.61837e-19)
(0.894429 0.270076 6.73598e-19)
(0.907627 0.250444 -7.78333e-19)
(0.920122 0.231963 4.49457e-19)
(0.930111 0.21561 5.33078e-19)
(0.0725727 0.112222 -5.05133e-19)
(0.188727 0.271777 3.94777e-19)
(0.291637 0.378222 2.56364e-19)
(0.380797 0.44297 6.34231e-20)
(0.456648 0.475845 3.65398e-19)
(0.520862 0.485089 -6.07565e-19)
(0.575275 0.477759 8.83484e-19)
(0.621609 0.459669 -5.08201e-19)
(0.661417 0.435324 3.55843e-19)
(0.696018 0.408003 -9.25711e-19)
(0.726475 0.379932 7.96262e-19)
(0.753601 0.3525 -7.04051e-19)
(0.778006 0.326476 1.18002e-18)
(0.800133 0.302214 -3.07561e-19)
(0.820301 0.279808 -4.86971e-19)
(0.838738 0.259214 -3.95383e-19)
(0.855671 0.240291 -6.11987e-20)
(0.871416 0.22278 9.3931e-19)
(0.886035 0.206486 4.87633e-19)
(0.898171 0.192066 -6.61228e-19)
(0.0540529 0.101389 3.80153e-20)
(0.144577 0.243731 1.03639e-19)
(0.231776 0.336754 1.15625e-19)
(0.312231 0.391735 -3.78154e-19)
(0.384278 0.418196 2.07571e-19)
(0.448124 0.423936 6.03102e-19)
(0.504465 0.415475 -9.84712e-19)
(0.55414 0.398058 4.40235e-19)
(0.598046 0.375653 1.81989e-19)
(0.637046 0.351074 -1.13776e-18)
(0.671899 0.326181 4.13073e-19)
(0.703238 0.302093 -4.4835e-19)
(0.73157 0.279403 1.17127e-18)
(0.757301 0.258359 -7.77049e-19)
(0.780744 0.239001 -2.39954e-19)
(0.80215 0.221263 5.67142e-19)
(0.82176 0.20501 -8.02056e-19)
(0.839873 0.190041 5.56237e-19)
(0.856575 0.176194 5.06073e-19)
(0.870947 0.163838 -1.2448e-18)
(0.0372091 0.0852217 -1.73063e-19)
(0.104874 0.203681 5.77469e-19)
(0.178455 0.279845 -6.37926e-19)
(0.251719 0.323821 -1.75097e-19)
(0.320971 0.344028 -2.85556e-19)
(0.385014 0.347238 6.44924e-20)
(0.443478 0.339016 -3.28416e-20)
(0.496399 0.323754 4.34693e-19)
(0.544102 0.304714 1.08203e-19)
(0.587067 0.284164 -8.6605e-19)
(0.625813 0.263567 -8.90249e-20)
(0.660834 0.243781 3.25258e-19)
(0.692575 0.225241 4.06739e-19)
(0.721418 0.208112 -5.50666e-19)
(0.747688 0.192401 1.09524e-18)
(0.771658 0.178037 -8.16414e-19)
(0.793588 0.164907 9.78589e-19)
(0.813762 0.152858 -8.17999e-19)
(0.832308 0.141754 3.86924e-19)
(0.848687 0.131753 1.99494e-19)
(0.0233168 0.064459 -1.93628e-19)
(0.072397 0.153399 2.11096e-19)
(0.135142 0.209895 6.67148e-20)
(0.202897 0.24194 -6.63907e-20)
(0.270222 0.256128 1.21711e-19)
(0.334724 0.257699 -6.10778e-21)
(0.395137 0.2509 4.05289e-20)
(0.45084 0.239042 -5.1687e-19)
(0.501702 0.22455 1.83582e-19)
(0.547906 0.209083 4.80781e-19)
(0.589793 0.193693 -5.92331e-19)
(0.627761 0.178984 2.43003e-19)
(0.662213 0.165252 -2.29801e-19)
(0.693526 0.152599 6.60193e-19)
(0.722035 0.141016 -8.28131e-19)
(0.748037 0.130443 -6.39721e-20)
(0.771807 0.120794 8.13349e-19)
(0.793616 0.111961 -7.48689e-19)
(0.813633 0.103839 -1.33931e-19)
(0.831641 0.0964639 -2.66559e-19)
(0.0134274 0.0401622 -2.38576e-19)
(0.0494083 0.095308 2.32775e-19)
(0.104629 0.130057 -8.64008e-21)
(0.168662 0.149532 -1.03362e-19)
(0.234793 0.157934 2.51306e-19)
(0.299757 0.158572 -5.84678e-20)
(0.361647 0.154109 -1.03402e-19)
(0.419374 0.146602 2.28278e-20)
(0.472493 0.137541 -4.99874e-19)
(0.520985 0.127939 6.50838e-19)
(0.565073 0.11843 1.06367e-19)
(0.605095 0.109371 -2.27027e-19)
(0.641431 0.100933 -7.60084e-21)
(0.674456 0.0931707 2.54834e-19)
(0.704516 0.0860746 4.43127e-20)
(0.731925 0.0796033 1.63029e-19)
(0.756967 0.073703 1.26628e-19)
(0.779907 0.0683106 -3.84501e-19)
(0.800944 0.0633586 9.45834e-20)
(0.820097 0.0588346 -2.25125e-19)
(0.00828848 0.0136405 -1.46998e-19)
(0.0375021 0.0323246 2.61822e-19)
(0.0888706 0.0440509 7.62523e-20)
(0.151029 0.0505834 1.11883e-20)
(0.216591 0.053364 1.41675e-19)
(0.281835 0.0535246 -1.16098e-19)
(0.344517 0.0519717 7.02202e-20)
(0.403309 0.0494027 -2.67081e-20)
(0.457602 0.0463209 -1.0128e-19)
(0.507277 0.0430661 1.58351e-19)
(0.552498 0.0398499 -7.52498e-20)
(0.593574 0.0367907 -9.0277e-20)
(0.630875 0.0339446 2.19201e-20)
(0.664775 0.0313286 -7.27837e-20)
(0.695629 0.0289386 3.83247e-20)
(0.723757 0.0267599 -5.59608e-20)
(0.74945 0.0247745 2.20086e-19)
(0.772966 0.0229614 -7.32892e-20)
(0.794525 0.0212972 -2.51197e-20)
(0.814268 0.0197721 1.23285e-19)
(0.00828848 -0.0136405 1.46998e-19)
(0.0375021 -0.0323246 -2.61822e-19)
(0.0888706 -0.0440509 -6.37164e-20)
(0.151029 -0.0505834 8.30395e-20)
(0.216591 -0.053364 -5.40827e-20)
(0.281835 -0.0535246 9.68236e-21)
(0.344517 -0.0519717 -5.55922e-20)
(0.403309 -0.0494027 1.10428e-20)
(0.457602 -0.0463209 8.65786e-20)
(0.507277 -0.0430661 -2.2598e-19)
(0.552498 -0.0398499 -2.60915e-20)
(0.593574 -0.0367907 4.91343e-20)
(0.630875 -0.0339446 9.39396e-20)
(0.664775 -0.0313286 -9.91947e-21)
(0.695629 -0.0289386 -8.86975e-20)
(0.723757 -0.0267599 7.56821e-20)
(0.74945 -0.0247745 -1.13027e-19)
(0.772966 -0.0229614 8.68309e-20)
(0.794525 -0.0212972 9.0188e-20)
(0.814268 -0.0197721 -1.06591e-19)
(0.0134274 -0.0401622 2.28899e-19)
(0.0494083 -0.095308 -3.36663e-19)
(0.104629 -0.130057 -4.07377e-19)
(0.168662 -0.149532 -1.94881e-19)
(0.234793 -0.157934 -2.10013e-19)
(0.299757 -0.158572 4.21971e-19)
(0.361647 -0.154109 1.14714e-19)
(0.419374 -0.146602 -9.52231e-20)
(0.472493 -0.137541 4.07813e-19)
(0.520985 -0.127939 -2.61279e-20)
(0.565073 -0.11843 -4.07242e-19)
(0.605095 -0.109371 5.69944e-20)
(0.641431 -0.100933 7.26067e-20)
(0.674456 -0.0931707 7.73715e-22)
(0.704516 -0.0860746 -7.85072e-20)
(0.731925 -0.0796033 -2.07397e-19)
(0.756967 -0.073703 -6.99918e-20)
(0.779907 -0.0683106 7.59169e-21)
(0.800944 -0.0633586 3.74402e-19)
(0.820097 -0.0588346 2.42727e-19)
(0.0233168 -0.064459 1.34734e-19)
(0.072397 -0.153399 -1.55532e-19)
(0.135142 -0.209895 3.3676e-19)
(0.202897 -0.24194 3.52964e-19)
(0.270222 -0.256128 -3.38826e-19)
(0.334724 -0.257699 -3.66512e-19)
(0.395137 -0.2509 -1.17814e-19)
(0.45084 -0.239042 1.87408e-19)
(0.501702 -0.22455 1.4193e-20)
(0.547906 -0.209083 -2.41087e-19)
(0.589793 -0.193693 2.1164e-19)
(0.627761 -0.178984 -1.54071e-19)
(0.662213 -0.165252 6.02426e-20)
(0.693526 -0.152599 -5.61928e-19)
(0.722035 -0.141016 8.10586e-19)
(0.748037 -0.130443 1.98324e-19)
(0.771807 -0.120794 -7.32449e-19)
(0.793616 -0.111961 6.50035e-19)
(0.813633 -0.103839 1.39624e-21)
(0.831641 -0.0964639 1.07706e-19)
(0.0372091 -0.0852217 -6.12238e-20)
(0.104874 -0.203681 -6.37572e-19)
(0.178455 -0.279845 5.20489e-19)
(0.251719 -0.323821 9.25385e-20)
(0.320971 -0.344028 3.95655e-20)
(0.385014 -0.347238 -5.88516e-20)
(0.443478 -0.339016 -3.80132e-19)
(0.496399 -0.323754 4.49433e-19)
(0.544102 -0.304714 4.7605e-21)
(0.587067 -0.284164 7.40102e-19)
(0.625813 -0.263567 9.21573e-20)
(0.660834 -0.243781 -1.04815e-19)
(0.692575 -0.225241 -3.91902e-19)
(0.721418 -0.208112 2.09562e-19)
(0.747688 -0.192401 -6.62889e-19)
(0.771658 -0.178037 9.29771e-19)
(0.793588 -0.164907 -1.12536e-18)
(0.813762 -0.152858 7.75717e-19)
(0.832308 -0.141754 -4.82408e-19)
(0.848687 -0.131753 -2.27515e-19)
(0.0540529 -0.101389 -1.56295e-19)
(0.144577 -0.243731 -5.68641e-20)
(0.231776 -0.336754 -3.35389e-19)
(0.312231 -0.391735 3.20607e-19)
(0.384278 -0.418196 1.42715e-19)
(0.448124 -0.423936 -7.83011e-19)
(0.504465 -0.415475 1.29438e-18)
(0.55414 -0.398058 -1.02914e-18)
(0.598046 -0.375653 -4.66536e-19)
(0.637046 -0.351074 9.76365e-19)
(0.671899 -0.326181 -2.36732e-19)
(0.703238 -0.302093 -8.80226e-20)
(0.73157 -0.279403 -1.10433e-18)
(0.757301 -0.258359 1.18514e-18)
(0.780744 -0.239001 3.29892e-19)
(0.80215 -0.221263 -9.15495e-19)
(0.82176 -0.20501 7.56725e-19)
(0.839873 -0.190041 -5.15971e-19)
(0.856575 -0.176194 -4.5639e-19)
(0.870947 -0.163838 1.51817e-18)
(0.0725727 -0.112222 5.11293e-19)
(0.188727 -0.271777 -1.61254e-19)
(0.291637 -0.378222 1.99591e-19)
(0.380797 -0.44297 2.62026e-21)
(0.456648 -0.475845 -3.81484e-19)
(0.520862 -0.485089 1.03815e-18)
(0.575275 -0.477759 -9.18318e-19)
(0.621609 -0.459669 8.44729e-19)
(0.661417 -0.435324 -8.47462e-19)
(0.696018 -0.408003 7.8582e-19)
(0.726475 -0.379932 -4.37408e-19)
(0.753601 -0.3525 1.08007e-18)
(0.778006 -0.326476 -1.33133e-18)
(0.800133 -0.302214 -1.19285e-19)
(0.820301 -0.279808 3.16354e-19)
(0.838738 -0.259214 6.66445e-19)
(0.855671 -0.240291 3.8854e-20)
(0.871416 -0.22278 -7.59132e-19)
(0.886035 -0.206486 -3.93244e-19)
(0.898171 -0.192066 8.13963e-19)
(0.0913662 -0.117355 1.426e-19)
(0.234216 -0.286814 1.26299e-20)
(0.3541 -0.402749 9.82469e-20)
(0.453229 -0.475697 -3.35045e-20)
(0.534006 -0.514978 5.37132e-19)
(0.599467 -0.528671 -2.59402e-19)
(0.652551 -0.523917 2.82996e-20)
(0.695874 -0.506776 2.83367e-20)
(0.731676 -0.482088 3.91241e-19)
(0.761791 -0.453489 6.72428e-20)
(0.787636 -0.423526 1.27175e-19)
(0.810263 -0.393854 7.09855e-19)
(0.830418 -0.365439 -6.61824e-19)
(0.848619 -0.338764 5.92513e-19)
(0.865209 -0.314002 -3.76124e-19)
(0.88041 -0.291151 3.33914e-19)
(0.894429 -0.270076 -6.07824e-19)
(0.907627 -0.250444 4.69384e-19)
(0.920122 -0.231963 -1.7412e-19)
(0.930111 -0.21561 -8.61185e-19)
(0.109013 -0.116816 -5.2604e-20)
(0.277819 -0.288668 -2.02345e-20)
(0.414999 -0.409828 1.62734e-19)
(0.525016 -0.489077 -3.25125e-20)
(0.611884 -0.534496 -3.0682e-19)
(0.679762 -0.55343 4.98035e-19)
(0.732534 -0.552647 -5.42491e-19)
(0.773629 -0.538109 -4.27327e-19)
(0.805965 -0.514765 -3.21239e-19)
(0.831908 -0.486467 2.97856e-19)
(0.853282 -0.456027 -3.07124e-19)
(0.871424 -0.425346 7.6997e-19)
(0.887272 -0.395598 4.62786e-19)
(0.901459 -0.367423 -9.90852e-19)
(0.914396 -0.341096 3.96129e-19)
(0.926326 -0.316673 2.76848e-19)
(0.937444 -0.294029 -3.59142e-19)
(0.948159 -0.272766 -8.17964e-19)
(0.958947 -0.252531 4.74831e-19)
(0.968025 -0.234908 1.47101e-19)
(0.124183 -0.111024 -6.66316e-20)
(0.31643 -0.278013 9.45125e-21)
(0.470209 -0.399991 4.50793e-20)
(0.591574 -0.483325 1.0467e-19)
(0.685639 -0.534273 -9.0104e-20)
(0.757312 -0.558959 -2.03978e-19)
(0.811154 -0.563354 1.26818e-19)
(0.851244 -0.552989 -3.30784e-19)
(0.881091 -0.532667 -3.65471e-20)
(0.903573 -0.506304 -3.49636e-19)
(0.920936 -0.476885 -4.69398e-19)
(0.934841 -0.446534 5.90894e-19)
(0.946454 -0.416646 3.87872e-20)
(0.956561 -0.388053 -1.51844e-19)
(0.965668 -0.361186 -4.73817e-20)
(0.974092 -0.336214 7.07549e-20)
(0.982028 -0.313152 -1.49231e-19)
(0.989624 -0.292019 1.18936e-19)
(0.99717 -0.273041 5.51645e-19)
(1.00553 -0.255879 -5.16886e-19)
(0.13577 -0.100757 -1.01768e-20)
(0.347286 -0.256306 -2.1835e-20)
(0.51593 -0.374763 -1.12034e-20)
(0.648534 -0.459703 6.26037e-20)
(0.750703 -0.515171 -2.69679e-20)
(0.827638 -0.545717 3.17011e-20)
(0.884225 -0.556167 5.78997e-20)
(0.924941 -0.551303 7.07779e-20)
(0.953732 -0.535534 -2.06302e-19)
(0.973921 -0.512648 7.13786e-20)
(0.988162 -0.485684 -2.90898e-19)
(0.998464 -0.456919 -8.55737e-20)
(1.00627 -0.42794 -1.57495e-19)
(1.01257 -0.39976 -2.66695e-19)
(1.01799 -0.372959 2.14456e-19)
(1.02295 -0.347802 9.35046e-21)
(1.02764 -0.324395 4.71769e-20)
(1.03207 -0.302917 3.54992e-19)
(1.03623 -0.283508 -2.63535e-19)
(1.04128 -0.264547 9.01281e-20)
(0.142961 -0.0870012 -1.09059e-19)
(0.368238 -0.225641 7.68416e-21)
(0.54896 -0.336594 3.99871e-20)
(0.692011 -0.420477 -1.48827e-19)
(0.802843 -0.479038 1.6938e-19)
(0.88643 -0.515065 -1.82863e-19)
(0.947588 -0.531993 5.22539e-20)
(0.990875 -0.533606 3.51675e-20)
(1.02046 -0.52368 2.78863e-20)
(1.03997 -0.505678 -2.90777e-20)
(1.05241 -0.482555 -2.4918e-20)
(1.06016 -0.456654 -3.8404e-20)
(1.06495 -0.429711 1.03624e-19)
(1.06802 -0.402917 -1.74784e-19)
(1.07019 -0.377017 -1.13342e-19)
(1.07197 -0.352412 -9.54909e-20)
(1.07363 -0.329312 2.13269e-19)
(1.07516 -0.307978 1.67037e-19)
(1.07639 -0.288568 -1.62573e-19)
(1.07824 -0.269282 -4.32044e-20)
(0.145248 -0.0710339 -1.46221e-19)
(0.377818 -0.188718 2.12633e-19)
(0.566966 -0.288658 6.44123e-20)
(0.718912 -0.36879 -6.91868e-20)
(0.838414 -0.428636 1.11267e-19)
(0.929763 -0.469213 2.24037e-19)
(0.997273 -0.492491 -1.2674e-19)
(1.04523 -0.501079 -7.93916e-20)
(1.07775 -0.497922 -1.43072e-19)
(1.09858 -0.485971 9.51652e-20)
(1.11097 -0.467932 -1.89984e-20)
(1.11758 -0.446105 1.10667e-20)
(1.12047 -0.422307 3.94996e-20)
(1.12116 -0.397874 1.09211e-20)
(1.12068 -0.373719 -9.11443e-21)
(1.11971 -0.350392 -1.40903e-20)
(1.11861 -0.328218 -8.52063e-21)
(1.11745 -0.307517 -3.21844e-20)
(1.11607 -0.288485 2.2431e-20)
(1.11505 -0.269516 1.32351e-19)
(0.142592 -0.0541548 1.29645e-19)
(0.375445 -0.14845 8.27078e-20)
(0.56864 -0.23464 -5.69045e-20)