/*--------------------------------*- C++ -*----------------------------------*\
  =========                 |
  \\      /  F ield         | OpenFOAM: The Open Source CFD Toolbox
   \\    /   O peration     | Website:  https://openfoam.org
    \\  /    A nd           | Version:  7
     \\/     M anipulation  |
\*---------------------------------------------------------------------------*/
FoamFile
{
    version     2.0;
    format      ascii;
    class       volScalarField;
    location    "40";
    object      p;
}
// * * * * * * * * * * * * * * * * * * * * * * * * * * * * * * * * * * * * * //

dimensions      [0 2 -2 0 0 0 0];

internalField   nonuniform List<scalar> 
3500
(
-0.238385
-0.241995
0.623985
0.588276
0.54873
0.623985
0.588276
0.54873
0.502122
0.456408
0.413382
0.374195
0.339083
0.308034
0.280688
0.607102
0.574363
0.537513
0.493014
0.448939
0.407192
0.368977
0.334605
0.304243
0.277757
0.573928
0.546955
0.515405
0.475051
0.4342
0.394968
0.358669
0.325755
0.296725
0.271871
0.525622
0.506874
0.483057
0.448734
0.412573
0.377015
0.343527
0.312742
0.285609
0.263024
0.46385
0.455342
0.441433
0.414801
0.38463
0.35379
0.323938
0.295883
0.271089
0.251254
0.390635
0.394034
0.391801
0.374199
0.351091
0.325849
0.300353
0.275548
0.253414
0.236666
0.30812
0.325122
0.335647
0.328037
0.3128
0.293857
0.273358
0.252287
0.232972
0.219433
0.219136
0.250763
0.274557
0.277557
0.270733
0.258583
0.243581
0.226636
0.210099
0.199631
0.126918
0.173166
0.210171
0.224056
0.225888
0.220748
0.211569
0.19924
0.185615
0.177572
0.03481
0.0945652
0.14418
0.168872
0.179339
0.181223
0.17803
0.170842
0.160558
0.152925
-0.053828
0.0170674
0.0782833
0.113325
0.13214
0.140819
0.143387
0.141498
0.135736
0.127113
-0.135867
-0.057703
0.0141509
0.0586615
0.0852875
0.100386
0.108334
0.111565
0.111034
0.106248
-0.207813
-0.128479
-0.0466539
0.00598822
0.0397064
0.0607291
0.073607
0.0814469
0.0859212
0.0856811
-0.269182
-0.191614
-0.103004
-0.0436869
-0.00376829
0.0225057
0.0397749
0.0514203
0.0598166
0.0636483
-0.319431
-0.244934
-0.154174
-0.0893701
-0.0444246
-0.0137702
0.00729189
0.0219473
0.0332175
0.0404064
-0.358123
-0.288551
-0.198776
-0.13038
-0.0817178
-0.0476553
-0.0234296
-0.00638573
0.00699146
0.0169535
-0.385486
-0.322427
-0.235792
-0.16647
-0.115484
-0.0787519
-0.0520878
-0.0330559
-0.0181838
-0.00597601
-0.402453
-0.346433
-0.265135
-0.197098
-0.145348
-0.107056
-0.0786345
-0.057738
-0.0418032
-0.0281785
-0.41038
-0.360697
-0.287037
-0.222137
-0.171038
-0.132257
-0.102831
-0.0805923
-0.0636221
-0.0496562
-0.410658
-0.365731
-0.30182
-0.241796
-0.192585
-0.154234
-0.124542
-0.101587
-0.0838465
-0.0693357
-0.40446
-0.362593
-0.31
-0.256435
-0.210201
-0.173089
-0.143798
-0.120675
-0.10245
-0.0872019
-0.392762
-0.3532
-0.312448
-0.266481
-0.224152
-0.189055
-0.160755
-0.137903
-0.119525
-0.103813
-0.376686
-0.340201
-0.310343
-0.272328
-0.234753
-0.202434
-0.175663
-0.153463
-0.135234
-0.119564
-0.357898
-0.326492
-0.304569
-0.274375
-0.242386
-0.213568
-0.188808
-0.167594
-0.149774
-0.134493
-0.338574
-0.313748
-0.296231
-0.273312
-0.247509
-0.222775
-0.200475
-0.180579
-0.163265
-0.148594
-0.320743
-0.302157
-0.287211
-0.270276
-0.250609
-0.230351
-0.210879
-0.192649
-0.176014
-0.161853
-0.305594
-0.291663
-0.279232
-0.266522
-0.252211
-0.236483
-0.220215
-0.20402
-0.188158
-0.174616
-0.293156
-0.282608
-0.272782
-0.262973
-0.252831
-0.241392
-0.22846
-0.214847
-0.200092
-0.186895
-0.283161
-0.275255
-0.267617
-0.260069
-0.252967
-0.24519
-0.235719
-0.224931
-0.211817
-0.199711
-0.275206
-0.269465
-0.263555
-0.257881
-0.252971
-0.248031
-0.241765
-0.234311
-0.223
-0.21299
-0.268821
-0.264909
-0.260455
-0.256329
-0.253034
-0.250114
-0.246702
-0.241546
-0.234443
-0.227468
-0.263556
-0.261208
-0.25804
-0.255271
-0.253248
-0.251543
-0.251031
-0.245593
-0.244899
-0.238471
-0.259051
-0.257984
-0.255963
-0.254402
-0.253497
-0.252394
-0.254743
-0.246316
-0.253958
-0.2444
-0.254981
-0.254959
-0.253968
-0.253431
-0.25347
-0.252812
-0.256876
-0.246604
-0.26063
-0.245091
-0.251146
-0.252043
-0.251888
-0.252168
-0.252948
-0.252747
-0.257166
-0.248164
-0.262642
-0.244537
-0.247526
-0.249241
-0.249717
-0.2506
-0.251756
-0.252338
-0.256283
-0.249557
-0.26076
-0.245834
-0.244232
-0.246655
-0.247575
-0.248843
-0.250257
-0.251531
-0.253975
-0.250933
-0.257726
-0.247237
-0.241464
-0.244459
-0.245669
-0.247165
-0.248761
-0.25032
-0.251921
-0.251228
-0.254134
-0.248594
-0.239449
-0.242848
-0.24423
-0.245849
-0.247541
-0.249158
-0.250466
-0.250768
-0.251787
-0.248807
-0.238385
-0.241995
-0.243455
-0.245127
-0.246856
-0.248473
-0.249713
-0.2503
-0.250679
-0.248724
0.259547
0.242946
0.22833
0.215626
0.204394
0.194551
0.185826
0.178129
0.171284
0.165215
0.159803
0.154982
0.150665
0.146794
0.14332
0.140227
0.137476
0.135031
0.132863
0.130947
0.129261
0.127787
0.126511
0.125419
0.124499
0.123744
0.123145
0.1227
0.122406
0.122262
0.257408
0.241275
0.226945
0.214483
0.203435
0.193749
0.185146
0.177552
0.170788
0.164785
0.159425
0.154648
0.150369
0.146538
0.143098
0.140023
0.137282
0.134849
0.13269
0.130783
0.129104
0.127637
0.126366
0.125278
0.124363
0.123611
0.123015
0.12257
0.122276
0.122131
0.253069
0.237894
0.224162
0.212206
0.201531
0.192162
0.183802
0.176411
0.169806
0.163935
0.158679
0.15399
0.149787
0.146027
0.142645
0.139603
0.136892
0.134484
0.132347
0.130457
0.128793
0.127339
0.126079
0.125
0.124093
0.123348
0.122756
0.122314
0.122018
0.121872
0.246468
0.232781
0.219989
0.208823
0.198717
0.189828
0.181828
0.174739
0.168366
0.162689
0.157585
0.153023
0.148925
0.14526
0.141967
0.138999
0.136328
0.133951
0.131841
0.129977
0.128335
0.126899
0.125654
0.124589
0.123693
0.122957
0.122373
0.121934
0.121636
0.121487
0.237561
0.225902
0.214398
0.204322
0.194988
0.186749
0.179232
0.172544
0.16648
0.161058
0.156156
0.15176
0.147795
0.144244
0.141056
0.138193
0.135589
0.133257
0.131185
0.129351
0.127736
0.126323
0.125098
0.12405
0.123169
0.122446
0.121871
0.121436
0.121135
0.120983
0.226363
0.217295
0.207449
0.198787
0.190432
0.18301
0.176089
0.169894
0.164203
0.159091
0.154431
0.150236
0.14643
0.143009
0.139928
0.137173
0.134692
0.132427
0.130384
0.12859
0.127007
0.125621
0.12442
0.123393
0.122528
0.12182
0.121256
0.120825
0.120523
0.120368
0.212908
0.206964
0.199082
0.192124
0.184941
0.178512
0.172315
0.166723
0.161489
0.156754
0.152388
0.148437
0.144825
0.141564
0.138606
0.135949
0.133561
0.131426
0.129489
0.127719
0.126158
0.12481
0.123635
0.122625
0.121779
0.121087
0.120536
0.120111
0.119808
0.119651
0.197181
0.194931
0.189425
0.184575
0.178813
0.173559
0.168188
0.163272
0.158537
0.154212
0.15016
0.146469
0.143064
0.139974
0.137153
0.134606
0.1323
0.130232
0.128382
0.12674
0.125256
0.123911
0.122727
0.121748
0.120933
0.12026
0.119719
0.119301
0.118999
0.118842
0.179521
0.181357
0.178457
0.175803
0.171579
0.167606
0.163201
0.15908
0.154961
0.151141
0.147488
0.144126
0.140985
0.138114
0.13547
0.13307
0.130882
0.128909
0.12713
0.125541
0.124128
0.122888
0.121809
0.120847
0.120022
0.119343
0.118814
0.118406
0.118108
0.117955
0.158915
0.165717
0.166031
0.166395
0.164178
0.16187
0.158527
0.155285
0.151754
0.148422
0.145112
0.142035
0.139103
0.136406
0.133895
0.131605
0.129506
0.127608
0.125889
0.124347
0.122968
0.121755
0.120699
0.119787
0.119012
0.118373
0.11785
0.117441
0.117148
0.117003
0.132792
0.144355
0.149814
0.152355
0.152502
0.15169
0.149919
0.147814
0.145353
0.142844
0.140269
0.13778
0.13536
0.133082
0.130933
0.128945
0.127106
0.125426
0.123896
0.122515
0.121274
0.120174
0.119208
0.118375
0.11767
0.11709
0.11662
0.116257
0.116007
0.115881
0.116863
0.126169
0.133261
0.137436
0.139618
0.140316
0.140028
0.139107
0.137737
0.13613
0.134359
0.132546
0.130721
0.128948
0.127239
0.125627
0.124113
0.122713
0.121423
0.120251
0.11919
0.118242
0.117404
0.116677
0.116058
0.115546
0.115134
0.114823
0.114614
0.114511
0.103709
0.112307
0.119443
0.12439
0.127763
0.129633
0.130516
0.130612
0.130193
0.129403
0.128374
0.127198
0.125942
0.124659
0.123384
0.122145
0.120959
0.119842
0.1188
0.117841
0.116965
0.116177
0.115476
0.114864
0.114339
0.113901
0.11355
0.113287
0.113113
0.113028
0.0922524
0.100597
0.107707
0.113093
0.117133
0.119844
0.121605
0.122545
0.122924
0.122853
0.122483
0.121891
0.121159
0.120338
0.119473
0.118594
0.117725
0.116885
0.116086
0.115337
0.114646
0.114017
0.113453
0.112956
0.112528
0.112169
0.11188
0.111664
0.111522
0.111452
0.0823612
0.0904615
0.0975437
0.103207
0.107669
0.110966
0.11337
0.114982
0.116012
0.11656
0.116763
0.116693
0.116437
0.116041
0.115558
0.115019
0.114453
0.113879
0.113315
0.112773
0.112262
0.111789
0.111359
0.110977
0.110644
0.110364
0.110138
0.109968
0.109856
0.109802
0.0738458
0.0816736
0.0886743
0.0944832
0.099227
0.102936
0.105814
0.107948
0.109505
0.11057
0.111263
0.111654
0.111821
0.111813
0.111681
0.111458
0.111176
0.110855
0.110517
0.110173
0.109836
0.109515
0.109216
0.108946
0.108707
0.108504
0.108339
0.108215
0.108133
0.108093
0.0664907
0.0740469
0.0809161
0.0867667
0.0916849
0.0956799
0.0989106
0.101446
0.103423
0.104915
0.106024
0.106812
0.107352
0.107691
0.107878
0.107945
0.107926
0.107843
0.107716
0.107561
0.107391
0.107216
0.107044
0.106881
0.106734
0.106606
0.1065
0.10642
0.106366
0.10634
0.060115
0.0674088
0.0741154
0.0799377
0.0849461
0.0891302
0.0926184
0.0954607
0.0977716
0.0996105
0.101067
0.102195
0.10306
0.103705
0.104178
0.104509
0.104731
0.104867
0.104938
0.10496
0.104947
0.104911
0.104859
0.104801
0.104741
0.104685
0.104636
0.104598
0.104572
0.104559
0.0545749
0.0616131
0.0681389
0.0738884
0.0789253
0.0832252
0.0868953
0.0899683
0.0925413
0.094661
0.0964057
0.0978208
0.098966
0.0998795
0.100605
0.101173
0.101614
0.10195
0.102204
0.10239
0.102524
0.102618
0.102681
0.102721
0.102744
0.102756
0.102762
0.102764
0.102764
0.102764
0.0497524
0.0565405
0.062875
0.0685234
0.0735448
0.0779062
0.0816987
0.0849416
0.0877173
0.0900618
0.0920431
0.0936991
0.0950832
0.0962292
0.0971774
0.0979555
0.0985929
0.099111
0.0995311
0.099869
0.10014
0.100354
0.100524
0.100656
0.100758
0.100835
0.100891
0.100931
0.100956
0.100968
0.0455486
0.0520929
0.0582312
0.0637601
0.068735
0.0731179
0.076987
0.0803511
0.0832811
0.0858033
0.087977
0.0898333
0.0914197
0.0927656
0.0939077
0.0948711
0.0956837
0.0963652
0.0969363
0.0974123
0.097808
0.0981346
0.0984028
0.0986207
0.0987955
0.0989329
0.0990375
0.0991127
0.0991611
0.0991844
0.041879
0.0481876
0.0541294
0.0595277
0.0644348
0.0688098
0.0727202
0.0761674
0.0792119
0.0818727
0.0842012
0.0862227
0.087979
0.0894954
0.0908052
0.0919309
0.0928981
0.0937255
0.0944323
0.0950333
0.0955428
0.0959718
0.0963308
0.0966279
0.0968704
0.0970639
0.0972131
0.0973214
0.0973915
0.0974253
0.0386718
0.0447541
0.050503
0.0557652
0.0605901
0.0649359
0.068861
0.0723611
0.0754882
0.0782554
0.0807071
0.0828634
0.0847613
0.0864222
0.087876
0.0891426
0.0902456
0.091202
0.09203
0.0927433
0.0933556
0.0938777
0.0943195
0.0946892
0.0949938
0.095239
0.0954294
0.0955682
0.0956584
0.095702
0.0358656
0.0417328
0.0472948
0.0524196
0.0571535
0.0614551
0.0653748
0.0689045
0.0720887
0.0749359
0.0774843
0.0797497
0.0817645
0.0835469
0.0851234
0.0865116
0.087733
0.0888029
0.0897382
0.0905518
0.0912564
0.0918624
0.0923794
0.092815
0.0931764
0.0934688
0.0936969
0.0938638
0.0939723
0.0940249
0.0334086
0.0390724
0.0444559
0.0494452
0.0540835
0.0583306
0.0622302
0.0657716
0.0689927
0.0718983
0.0745213
0.0768741
0.0789847
0.0808685
0.082549
0.0840415
0.0853654
0.0865345
0.0875643
0.0884667
0.0892537
0.0899348
0.0905194
0.0910146
0.0914274
0.0917628
0.0920251
0.0922176
0.092343
0.0924037
0.0312564
0.0367296
0.0419441
0.0468021
0.0513434
0.0555298
0.0593988
0.0629382
0.0661803
0.0691271
0.0718066
0.0742285
0.0764169
0.0783847
0.0801527
0.081734
0.0831461
0.0844013
0.0855139
0.0864945
0.0873545
0.0881026
0.0887476
0.0892963
0.0897553
0.0901295
0.0904229
0.0906385
0.090779
0.0908472
0.0293714
0.0346671
0.0397232
0.0444558
0.0489012
0.0530235
0.056855
0.0603824
0.0636333
0.0666073
0.0693287
0.0718043
0.0740554
0.0760923
0.0779332
0.0795898
0.0810774
0.082407
0.0835915
0.0846407
0.0855648
0.0863722
0.0870708
0.0876673
0.0881677
0.0885766
0.0888978
0.0891342
0.0892885
0.0893633
0.0277216
0.0328534
0.0377623
0.0423764
0.0467289
0.0507862
0.0545758
0.0580842
0.0613345
0.064325
0.0670762
0.0695932
0.0718939
0.0739872
0.0758887
0.0776086
0.0791603
0.0805538
0.0818005
0.0829093
0.0838897
0.0847491
0.0854952
0.0861339
0.0866711
0.0871109
0.087457
0.087712
0.0878784
0.0879593
0.0262799
0.0312613
0.0360346
0.0405382
0.0448021
0.0487951
0.0525408
0.0560253
0.0592684
0.0622671
0.0650386
0.0675866
0.0699264
0.0720652
0.0740167
0.0757894
0.0773954
0.0788433
0.0801435
0.0813039
0.0823331
0.0832381
0.0840257
0.0847017
0.0852712
0.0857384
0.0861066
0.0863781
0.0865554
0.0866415
0.0250233
0.0298678
0.0345173
0.0389189
0.0430996
0.0470306
0.0507318
0.0541898
0.0574209
0.0604214
0.0632059
0.0657766
0.0681467
0.070322
0.0723142
0.0741308
0.0757823
0.0772764
0.0786222
0.0798269
0.0808984
0.0818429
0.0826668
0.0833753
0.0839733
0.0844645
0.084852
0.085138
0.0853249
0.0854157
0.0239321
0.0286533
0.0331908
0.0374993
0.041603
0.0454753
0.0491331
0.0525632
0.0557793
0.0587771
0.0615688
0.0641557
0.0665489
0.0687531
0.0707784
0.0726311
0.0743206
0.0758535
0.077238
0.0784806
0.0795883
0.0805668
0.081422
0.0821587
0.0827815
0.0832936
0.0836981
0.0839968
0.084192
0.0842869
0.0229901
0.0276012
0.0320384
0.036263
0.0402964
0.0441142
0.0477306
0.0511329
0.0543323
0.0573244
0.0601191
0.062717
0.0651275
0.0673543
0.0694062
0.0712885
0.0730093
0.0745746
0.0759917
0.0772663
0.0784048
0.0794125
0.0802945
0.0810555
0.0816996
0.0822299
0.0826489
0.0829586
0.0831611
0.0832596
0.0221834
0.0266975
0.031046
0.0351959
0.0391662
0.0429344
0.0465123
0.0498877
0.05307
0.0560544
0.0588491
0.0614541
0.0638773
0.0661216
0.0681946
0.0701008
0.0718475
0.0734396
0.0748838
0.0761853
0.0773498
0.078382
0.0792869
0.0800686
0.0807308
0.0812766
0.0817082
0.0820273
0.082236
0.0823375
0.0215006
0.0259303
0.0302017
0.0342863
0.0382009
0.0419247
0.0454677
0.0488182
0.0519838
0.0549595
0.0577522
0.0603614
0.0627937
0.0650514
0.067141
0.0690664
0.0708339
0.072448
0.0739146
0.0752383
0.0764244
0.0774772
0.0784013
0.0792003
0.0798779
0.0804367
0.0808789
0.0812059
0.0814199
0.081524
0.020932
0.02529
0.0294956
0.0335241
0.0373906
0.0410759
0.0445881
0.0479161
0.0510661
0.0540331
0.0568227
0.059434
0.0618727
0.0641404
0.0662429
0.0681834
0.0699675
0.0715993
0.0730841
0.074426
0.0756298
0.0766995
0.0776393
0.0784527
0.0791429
0.0797126
0.0801636
0.0804972
0.0807156
0.0808218
0.0204701
0.0247685
0.0289194
0.0329013
0.0367275
0.0403801
0.043866
0.0471746
0.0503108
0.0532695
0.0560556
0.0586676
0.0611106
0.0633857
0.0654979
0.0674502
0.0692473
0.0708931
0.0723923
0.0737487
0.0749666
0.0760499
0.0770024
0.0778273
0.0785279
0.0791063
0.0795644
0.0799034
0.0801253
0.0802332
0.0201085
0.0243596
0.0284667
0.0324111
0.0362048
0.039831
0.0432955
0.046588
0.0497126
0.0526642
0.0554467
0.0580588
0.0605045
0.0627849
0.0649043
0.0668653
0.0686724
0.0703288
0.071839
0.0732066
0.0744355
0.0755293
0.0764917
0.0773256
0.0780342
0.0786194
0.0790831
0.0794263
0.0796509
0.0797602
0.0198431
0.0240585
0.0281325
0.0320483
0.0358173
0.0394235
0.0428717
0.0461519
0.0492674
0.0522133
0.0549929
0.0576046
0.0600521
0.062336
0.0644605
0.0664277
0.0682419
0.069906
0.0714243
0.0727999
0.0740369
0.0751384
0.0761079
0.0769485
0.0776629
0.0782532
0.0787209
0.0790672
0.0792939
0.0794042
0.0196712
0.0238615
0.0279124
0.0318089
0.0355612
0.0391539
0.0425911
0.0458629
0.0489723
0.0519143
0.0546917
0.057303
0.0597514
0.0620376
0.0641653
0.0661365
0.0679552
0.0696244
0.0711478
0.0725288
0.0737709
0.0748775
0.0758518
0.0766967
0.077415
0.0780085
0.0784789
0.0788273
0.0790553
0.0791663
0.0195897
0.0237648
0.0278032
0.03169
0.0354338
0.0390198
0.0424514
0.045719
0.0488253
0.0517652
0.0545415
0.0571526
0.0596014
0.0618887
0.0640179
0.0659911
0.067812
0.0694836
0.0710096
0.0723932
0.0736379
0.074747
0.0757236
0.0765707
0.0772909
0.0778861
0.0783578
0.0787071
0.0789359
0.0790472
0.118031
0.106911
0.0953884
0.0847487
0.0753388
0.0671303
0.0599992
0.0538143
0.0484534
0.0438064
0.0397762
0.0362783
0.0332395
0.0305975
0.0282987
0.0262977
0.0245556
0.0230395
0.0217216
0.0205783
0.0195897
0.0187391
0.0180125
0.0173985
0.0168875
0.0164719
0.0161454
0.0159034
0.0157441
0.0156708
0.0988295
0.0884418
0.0793038
0.0707463
0.0630356
0.0561799
0.0501429
0.0448629
0.0402627
0.036263
0.0327883
0.0297703
0.0271489
0.0248713
0.0228921
0.0211717
0.0196765
0.0183774
0.0172496
0.0162723
0.0154275
0.0147005
0.0140786
0.0135516
0.0131107
0.0127494
0.0124621
0.0122441
0.0120936
0.0120202
0.0779578
0.0664946
0.0586356
0.0516811
0.0458268
0.0407575
0.0363546
0.0325264
0.0291959
0.0262972
0.0237722
0.0215708
0.0196505
0.0179747
0.016512
0.0152352
0.0141211
0.0131492
0.0123022
0.0115653
0.0109256
0.0103725
0.00989668
0.00949061
0.00914794
0.00886366
0.00863391
0.00845487
0.00832343
0.0082506
0.0578956
0.0472297
0.0405923
0.0346141
0.0299766
0.0261722
0.0230328
0.0204038
0.0181776
0.0162757
0.0146386
0.0132204
0.0119863
0.0109091
0.00996694
0.00914171
0.00841818
0.00778355
0.00722704
0.00673952
0.00631319
0.00594144
0.00561862
0.00533996
0.0051014
0.00489974
0.00473278
0.00459796
0.00449015
0.00441716
0.0373873
0.0291328
0.0247312
0.0201415
0.0167096
0.0139231
0.0117199
0.00995525
0.00852585
0.00735305
0.00637789
0.00555561
0.00485455
0.00425236
0.00373208
0.0032801
0.00288532
0.00253908
0.00223459
0.00196635
0.00172988
0.00152142
0.00133783
0.00117643
0.00103489
0.000911248
0.000804416
0.000713207
0.00063118
0.000559764
0.0163819
0.01075
0.00896947
0.00629572
0.00447525
0.00290176
0.00167841
0.000718538
-2.84974e-05
-0.00061026
-0.00106539
-0.00142656
-0.00171815
-0.00195352
-0.00214332
-0.00229871
-0.00242846
-0.00253861
-0.00263361
-0.00271681
-0.00279077
-0.0028575
-0.00291863
-0.00297551
-0.00302936
-0.00308137
-0.00313216
-0.00318156
-0.00323572
-0.00330143
-0.00433339
-0.00748769
-0.0069726
-0.00775476
-0.00784568
-0.00806031
-0.00817644
-0.00824911
-0.00827129
-0.00825121
-0.00819741
-0.00812117
-0.00803755
-0.00794265
-0.00783598
-0.00772724
-0.00762153
-0.00752164
-0.00742951
-0.00734647
-0.00727338
-0.00721086
-0.00715935
-0.00711921
-0.00709077
-0.00707464
-0.00707125
-0.00707938
-0.00710298
-0.00715773
-0.0242315
-0.0247647
-0.0224077
-0.0215873
-0.0201855
-0.0191429
-0.0181704
-0.0173347
-0.0165953
-0.0159367
-0.015344
-0.0148057
-0.0143353
-0.0139034
-0.0134943
-0.0131213
-0.0127828
-0.0124769
-0.0122022
-0.0119575
-0.0117416
-0.0115535
-0.0113923
-0.0112574
-0.0111481
-0.0110644
-0.0110065
-0.0109727
-0.0109631
-0.0110015
-0.0431775
-0.0407012
-0.0370284
-0.0346271
-0.0320434
-0.0299297
-0.0280275
-0.0263797
-0.0249315
-0.0236574
-0.0225324
-0.0215269
-0.0206592
-0.0198778
-0.0191571
-0.0185153
-0.0179402
-0.0174257
-0.0169668
-0.0165594
-0.0162002
-0.0158862
-0.0156151
-0.015385
-0.0151944
-0.0150423
-0.0149284
-0.0148514
-0.0148077
-0.0148233
-0.0609559
-0.0559543
-0.0510322
-0.0470627
-0.0434183
-0.0403202
-0.0375996
-0.0352219
-0.0331294
-0.0312864
-0.0296608
-0.0282166
-0.0269328
-0.0257885
-0.0247707
-0.023867
-0.0230604
-0.0223406
-0.0216998
-0.0211315
-0.0206302
-0.0201913
-0.019811
-0.0194862
-0.0192145
-0.0189939
-0.0188234
-0.0187017
-0.0186263
-0.0186121
-0.0774575
-0.070721
-0.0643551
-0.0589327
-0.0542109
-0.0502193
-0.0467612
-0.0437341
-0.0410646
-0.0387084
-0.0366259
-0.0347741
-0.0331162
-0.0316395
-0.0303332
-0.0291737
-0.0281395
-0.0272173
-0.0263968
-0.0256691
-0.0250268
-0.0244637
-0.0239747
-0.0235555
-0.0232028
-0.0229137
-0.0226863
-0.0225191
-0.0224104
-0.0223704
-0.0930846
-0.0849518
-0.0770363
-0.0702982
-0.0645712
-0.0597575
-0.0555895
-0.0519317
-0.0487095
-0.045872
-0.0433653
-0.0411362
-0.0391431
-0.0373666
-0.0357896
-0.0343856
-0.0331326
-0.0320153
-0.0310211
-0.030139
-0.0293598
-0.028676
-0.0280811
-0.0275699
-0.027138
-0.0267819
-0.026499
-0.0262869
-0.0261434
-0.0260817
-0.10827
-0.0986562
-0.0891115
-0.0810937
-0.0744652
-0.0689258
-0.0641072
-0.0598557
-0.0561147
-0.0528274
-0.0499203
-0.0473329
-0.0450234
-0.042964
-0.0411289
-0.0394906
-0.0380269
-0.0367213
-0.0355591
-0.0345273
-0.0336154
-0.0328144
-0.0321166
-0.031516
-0.0310072
-0.030586
-0.0302492
-0.0299939
-0.0298164
-0.0297318
-0.122963
-0.111924
-0.100854
-0.0916857
-0.0842463
-0.0779906
-0.072478
-0.0676013
-0.063341
-0.0596122
-0.0563103
-0.05337
-0.0507504
-0.0484148
-0.0463296
-0.0444655
-0.0427996
-0.0413131
-0.0399893
-0.0388135
-0.0377739
-0.0368602
-0.0360637
-0.0353773
-0.034795
-0.0343117
-0.0339238
-0.0336278
-0.0334185
-0.0333104
-0.137228
-0.124796
-0.112056
-0.101776
-0.0936801
-0.0868106
-0.0806408
-0.07518
-0.0704412
-0.0662863
-0.0625894
-0.0592965
-0.0563675
-0.0537557
-0.0514215
-0.0493342
-0.0474692
-0.0458047
-0.0443218
-0.0430047
-0.0418398
-0.0408159
-0.0399231
-0.0391534
-0.0384999
-0.037957
-0.0375203
-0.0371859
-0.0369473
-0.0368167
-0.150819
-0.137377
-0.123174
-0.111923
-0.1032
-0.0955954
-0.0886626
-0.0826102
-0.0774055
-0.0728169
-0.0687195
-0.0650784
-0.0618445
-0.0589586
-0.0563782
-0.0540721
-0.0520122
-0.0501737
-0.0485359
-0.0470814
-0.0457952
-0.0446649
-0.0436795
-0.0428302
-0.0421091
-0.0415101
-0.041028
-0.0406587
-0.0403943
-0.0402441
-0.163952
-0.149174
-0.133378
-0.121499
-0.112413
-0.104117
-0.0964925
-0.0899423
-0.0842927
-0.0792551
-0.0747562
-0.0707724
-0.0672324
-0.0640688
-0.0612405
-0.0587143
-0.0564583
-0.054445
-0.0526519
-0.0510601
-0.0496533
-0.0484175
-0.0473409
-0.0464135
-0.0456269
-0.0449741
-0.0444494
-0.0440483
-0.0437618
-0.0435953
-0.176637
-0.160965
-0.143924
-0.131512
-0.121755
-0.112508
-0.104207
-0.0971907
-0.0910586
-0.0855531
-0.0806628
-0.0763404
-0.0724906
-0.0690479
-0.0659731
-0.0632284
-0.0607774
-0.0585908
-0.0566445
-0.0549179
-0.0533931
-0.0520547
-0.0508899
-0.0498878
-0.0490392
-0.0483364
-0.047773
-0.0473443
-0.0470405
-0.0468623
-0.18851
-0.171166
-0.153731
-0.141432
-0.130942
-0.120846
-0.112042
-0.10454
-0.0978607
-0.09188
-0.0865964
-0.081915
-0.077735
-0.0739999
-0.0706671
-0.0676923
-0.0650363
-0.0626684
-0.0605624
-0.0586957
-0.0570486
-0.0556045
-0.0543496
-0.0532718
-0.0523611
-0.0516091
-0.0510089
-0.0505555
-0.0502387
-0.0500539
-0.201624
-0.182826
-0.165304
-0.152277
-0.140486
-0.129635
-0.120303
-0.112157
-0.104865
-0.0983876
-0.0926651
-0.0875753
-0.0830308
-0.078977
-0.0753618
-0.0721356
-0.0692575
-0.0666941
-0.0644167
-0.0624003
-0.0606234
-0.059068
-0.0577187
-0.0565624
-0.0555881
-0.0547867
-0.0541507
-0.0536749
-0.0533496
-0.0531661
-0.214392
-0.195664
-0.178846
-0.16453
-0.151519
-0.139866
-0.129663
-0.12064
-0.112607
-0.105486
-0.0991717
-0.0935499
-0.0885377
-0.0840701
-0.0800865
-0.0765336
-0.0733668
-0.0705487
-0.0680471
-0.0658341
-0.0638858
-0.062182
-0.0607057
-0.0594421
-0.0583791
-0.0575065
-0.0568163
-0.0563028
-0.0559573
-0.0557689
-0.221397
-0.204941
-0.188818
-0.173998
-0.160441
-0.148279
-0.137466
-0.127832
-0.119251
-0.11162
-0.104826
-0.0987665
-0.0933603
-0.0885364
-0.0842309
-0.0803887
-0.0769631
-0.0739141
-0.071207
-0.0688119
-0.0667033
-0.0648594
-0.0632617
-0.0618943
-0.0607441
-0.0598
-0.0590532
-0.0584984
-0.0581277
-0.0579277
-0.222392
-0.20797
-0.192968
-0.178631
-0.165317
-0.153224
-0.142341
-0.132569
-0.123818
-0.115994
-0.108995
-0.102731
-0.097127
-0.0921139
-0.0876297
-0.0836211
-0.0800418
-0.0768519
-0.0740166
-0.0715057
-0.0692935
-0.0673576
-0.0656792
-0.0642421
-0.0630329
-0.0620401
-0.0612547
-0.0606715
-0.0602839
-0.0600781
-0.220994
-0.207415
-0.193379
-0.179887
-0.167214
-0.155552
-0.144945
-0.135346
-0.126691
-0.118904
-0.111903
-0.105611
-0.0999626
-0.0948933
-0.0903466
-0.0862726
-0.0826278
-0.0793738
-0.076477
-0.0739084
-0.0716427
-0.0696582
-0.0679362
-0.0664608
-0.0652186
-0.0641985
-0.0633914
-0.062792
-0.0623949
-0.0621875
-0.219909
-0.206417
-0.192959
-0.180174
-0.168122
-0.156935
-0.146681
-0.137336
-0.128856
-0.121183
-0.114251
-0.107998
-0.102362
-0.0972889
-0.0927263
-0.0886285
-0.0849548
-0.0816691
-0.0787396
-0.0761384
-0.0738413
-0.0718273
-0.0700781
-0.0685785
-0.0673153
-0.0662775
-0.0654562
-0.0648462
-0.0644428
-0.0642347
-0.219701
-0.206215
-0.19312
-0.1808
-0.169188
-0.158369
-0.148401
-0.13927
-0.130941
-0.12337
-0.116502
-0.110284
-0.104662
-0.0995859
-0.0950099
-0.0908912
-0.0871918
-0.0838776
-0.0809184
-0.0782875
-0.0759616
-0.0739205
-0.0721464
-0.0706243
-0.0693416
-0.0682876
-0.0674533
-0.0668334
-0.0664237
-0.0662141
-0.21995
-0.206708
-0.193943
-0.181938
-0.170616
-0.160052
-0.15029
-0.141316
-0.133097
-0.125597
-0.118771
-0.11257
-0.106949
-0.101861
-0.0972634
-0.0931174
-0.089387
-0.08604
-0.0830475
-0.0803839
-0.0780269
-0.0759565
-0.0741557
-0.0726098
-0.0713064
-0.0702351
-0.0693869
-0.0687565
-0.0683399
-0.0681279
-0.22023
-0.207404
-0.194994
-0.18326
-0.172167
-0.161802
-0.152205
-0.143356
-0.135226
-0.127784
-0.12099
-0.114802
-0.109177
-0.104074
-0.0994545
-0.0952805
-0.0915188
-0.0881389
-0.0851132
-0.0824172
-0.080029
-0.0779296
-0.0761024
-0.0745328
-0.0732089
-0.0721202
-0.0712583
-0.0706174
-0.0701937
-0.0699791
-0.220373
-0.207963
-0.195909
-0.184448
-0.173582
-0.163411
-0.153972
-0.145245
-0.137206
-0.129827
-0.123071
-0.116902
-0.111281
-0.106172
-0.101536
-0.0973407
-0.0935539
-0.0901467
-0.0870928
-0.0843687
-0.0819535
-0.0798285
-0.0779777
-0.076387
-0.0750445
-0.0739403
-0.0730658
-0.0724154
-0.0719853
-0.0717681
-0.220357
-0.208287
-0.196561
-0.185375
-0.174749
-0.164783
-0.155511
-0.146917
-0.13898
-0.131675
-0.12497
-0.118833
-0.113229
-0.108124
-0.103484
-0.0992773
-0.0954745
-0.0920482
-0.0889735
-0.0862279
-0.0837912
-0.0816457
-0.0797756
-0.0781674
-0.0768095
-0.0756921
-0.0748071
-0.0741486
-0.0737131
-0.0734937
-0.220202
-0.20841
-0.196979
-0.186061
-0.175677
-0.165922
-0.156826
-0.148374
-0.140549
-0.13333
-0.126689
-0.120596
-0.11502
-0.109931
-0.105297
-0.101089
-0.0972788
-0.0938415
-0.0907532
-0.0879925
-0.0855402
-0.083379
-0.081494
-0.079872
-0.0785018
-0.0773739
-0.0764802
-0.0758152
-0.0753751
-0.0751539
-0.219925
-0.208387
-0.19723
-0.186567
-0.176417
-0.166871
-0.157952
-0.149647
-0.141941
-0.134815
-0.128245
-0.122206
-0.116667
-0.111603
-0.106983
-0.102781
-0.0989719
-0.0955305
-0.0924348
-0.0896646
-0.0872015
-0.0850292
-0.0831331
-0.0815005
-0.0801207
-0.0789844
-0.078084
-0.0774136
-0.0769699
-0.0767472
-0.219538
-0.208246
-0.197357
-0.186937
-0.177012
-0.167667
-0.158921
-0.150763
-0.143178
-0.13615
-0.129657
-0.123677
-0.118183
-0.113149
-0.108551
-0.104362
-0.100559
-0.0971192
-0.0940213
-0.0912464
-0.0887768
-0.0865971
-0.0846931
-0.0830529
-0.0816659
-0.0805232
-0.0796175
-0.078943
-0.0784964
-0.0782726
-0.219038
-0.207992
-0.19737
-0.187187
-0.177477
-0.168325
-0.159749
-0.151735
-0.144272
-0.137345
-0.130934
-0.125017
-0.119573
-0.114576
-0.110005
-0.105834
-0.102043
-0.0986097
-0.0955144
-0.0927389
-0.0902668
-0.088083
-0.0861744
-0.0845291
-0.0831371
-0.0819899
-0.0810803
-0.0804027
-0.079954
-0.0797292
-0.218423
-0.207617
-0.197261
-0.187312
-0.177813
-0.16885
-0.16044
-0.15257
-0.14523
-0.138405
-0.132078
-0.12623
-0.12084
-0.115886
-0.111346
-0.1072
-0.103425
-0.100003
-0.0969145
-0.0941426
-0.0916715
-0.0894871
-0.0875765
-0.0859287
-0.0845338
-0.0833838
-0.0824718
-0.0817922
-0.081342
-0.0811167
-0.217693
-0.207117
-0.197027
-0.18731
-0.178018
-0.169241
-0.160994
-0.153268
-0.146052
-0.139332
-0.133094
-0.127318
-0.121987
-0.11708
-0.112577
-0.108459
-0.104706
-0.101299
-0.0982219
-0.0954574
-0.0929909
-0.0908089
-0.0888993
-0.0872514
-0.0858558
-0.0847048
-0.0837916
-0.083111
-0.08266
-0.0824344
-0.216851
-0.20649
-0.196666
-0.187179
-0.178092
-0.169498
-0.161415
-0.153833
-0.146742
-0.14013
-0.133982
-0.128283
-0.123015
-0.118159
-0.113698
-0.109613
-0.105886
-0.102499
-0.0994369
-0.0966836
-0.0942251
-0.0920487
-0.0901427
-0.088497
-0.0871027
-0.0859523
-0.0850393
-0.0843588
-0.0839076
-0.0836821
-0.215901
-0.205739
-0.196182
-0.186925
-0.178039
-0.169626
-0.161705
-0.154268
-0.147304
-0.140801
-0.134748
-0.129128
-0.123926
-0.119127
-0.114711
-0.110664
-0.106967
-0.103604
-0.10056
-0.0978218
-0.0953745
-0.0932065
-0.0913068
-0.0896656
-0.0882745
-0.0871263
-0.0862148
-0.0855353
-0.0850846
-0.0848594
-0.214849
-0.204864
-0.195582
-0.186553
-0.177864
-0.16963
-0.161871
-0.154578
-0.147742
-0.141351
-0.135394
-0.129857
-0.124726
-0.119985
-0.11562
-0.111613
-0.10795
-0.104615
-0.101594
-0.0988728
-0.0964397
-0.0942828
-0.0923918
-0.0907573
-0.0893712
-0.0882267
-0.0873179
-0.0866403
-0.0861907
-0.0859661
-0.213697
-0.203866
-0.194874
-0.18607
-0.177572
-0.169514
-0.161917
-0.154769
-0.148061
-0.141783
-0.135924
-0.130473
-0.125415
-0.120737
-0.116425
-0.112463
-0.108837
-0.105533
-0.102537
-0.0998375
-0.0974214
-0.0952783
-0.0933982
-0.0917723
-0.090393
-0.0892537
-0.0883487
-0.0876738
-0.0872259
-0.0870022
-0.21245
-0.202742
-0.194068
-0.185481
-0.177166
-0.169284
-0.161849
-0.154846
-0.148266
-0.142102
-0.136343
-0.13098
-0.125998
-0.121386
-0.11713
-0.113216
-0.10963
-0.10636
-0.103393
-0.100717
-0.0983205
-0.0961934
-0.0943264
-0.0927111
-0.0913401
-0.0902073
-0.0893074
-0.0886359
-0.0881903
-0.0879678
-0.211107
-0.201497
-0.193176
-0.184786
-0.176648
-0.168943
-0.16167
-0.154811
-0.14836
-0.142311
-0.136654
-0.13138
-0.126477
-0.121933
-0.117736
-0.113873
-0.110331
-0.107098
-0.104162
-0.101512
-0.0991377
-0.0970289
-0.095177
-0.093574
-0.092213
-0.091088
-0.090194
-0.0895269
-0.0890841
-0.0888629
-0.209632
-0.200146
-0.192212
-0.183983
-0.176022
-0.168496
-0.161385
-0.154669
-0.148347
-0.142413
-0.13686
-0.131678
-0.126855
-0.122382
-0.118247
-0.114437
-0.110941
-0.107747
-0.104845
-0.102224
-0.0998741
-0.0977857
-0.0959508
-0.0943618
-0.0930121
-0.0918962
-0.0910091
-0.090347
-0.0899074
-0.0896879
-0.207966
-0.198737
-0.191176
-0.18307
-0.175293
-0.16795
-0.160997
-0.154423
-0.148229
-0.142412
-0.136964
-0.131875
-0.127135
-0.122735
-0.118663
-0.114909
-0.111462
-0.10831
-0.105445
-0.102854
-0.100531
-0.0984646
-0.0966484
-0.095075
-0.093738
-0.0926322
-0.091753
-0.0910967
-0.0906608
-0.0904431
-0.206193
-0.19733
-0.190055
-0.182049
-0.174471
-0.16731
-0.160511
-0.154076
-0.148011
-0.142312
-0.136969
-0.131975
-0.127319
-0.122994
-0.118988