/*--------------------------------*- C++ -*----------------------------------*\
  =========                 |
  \\      /  F ield         | OpenFOAM: The Open Source CFD Toolbox
   \\    /   O peration     | Website:  https://openfoam.org
    \\  /    A nd           | Version:  7
     \\/     M anipulation  |
\*---------------------------------------------------------------------------*/
FoamFile
{
    version     2.0;
    format      ascii;
    class       surfaceScalarField;
    location    "40";
    object      phi;
}
// * * * * * * * * * * * * * * * * * * * * * * * * * * * * * * * * * * * * * //

dimensions      [0 3 -1 0 0 0 0];

internalField   nonuniform List<scalar> 
6855
(
-7.50415e-05
-2.76335e-09
-5.25656e-09
-0.00060947
-5.04432e-10
-0.00149129
-7.00497e-10
-6.81462e-10
-0.00060947
0.00060947
-0.00149129
0.00088182
-0.00240548
0.000914191
-0.00333453
0.000929043
-0.00429452
0.000959997
-0.00529526
0.00100074
-0.00634654
0.00105128
-0.00745533
0.00110879
-0.00862773
0.0011724
0.00124437
-0.0098721
-0.000600177
0.00120965
-0.00147355
0.00175519
-0.00238083
0.00182148
-0.00330327
0.00185148
-0.0042567
0.00191342
-0.00525088
0.00199492
-0.00629567
0.00209606
-0.00739819
0.00221132
-0.0085647
0.0023389
0.00248304
-0.00980338
-0.00058168
0.00179133
-0.00143817
0.00261168
-0.00233161
0.00271492
-0.00324084
0.00276072
-0.00418113
0.00285371
-0.00516218
0.00297597
-0.00619385
0.00312773
-0.00728373
0.0033012
-0.00843807
0.00349324
0.00370926
-0.00966429
-0.000554266
0.00234559
-0.00138542
0.00344283
-0.00225795
0.00358745
-0.00314746
0.00365023
-0.00406816
0.00377441
-0.00502955
0.00393736
-0.00604141
0.00413959
-0.00711187
0.00437165
-0.00824733
0.0046287
0.0049156
-0.00945366
-0.000518957
0.00286455
-0.00131555
0.00423943
-0.00215986
0.00443175
-0.00302311
0.00451348
-0.00391771
0.004669
-0.00485283
0.00487248
-0.00583811
0.00512488
-0.00688252
0.00541605
-0.00799254
0.00573873
0.00609456
-0.0091715
-0.000477867
0.00334242
-0.0012286
0.00499017
-0.00203772
0.00524087
-0.00286874
0.0053445
-0.00373152
0.00553177
-0.00463462
0.00577559
-0.00558695
0.0060772
-0.00659807
0.00642718
-0.00767528
0.00681594
0.0072382
-0.00881893
-0.000425133
0.00376755
-0.00112327
0.0056883
-0.00189127
0.00600887
-0.00268393
0.00613717
-0.0035082
0.00635604
-0.00437195
0.00663934
-0.0052831
0.00698835
-0.00625266
0.00739674
-0.00729228
0.00785556
0.00834292
-0.008397
-0.000362268
0.00412982
-0.000999887
0.00632592
-0.00172087
0.00672985
-0.00246997
0.00688626
-0.00325103
0.0071371
-0.00407198
0.00746029
-0.00493932
0.0078557
-0.00586207
0.00831949
-0.00685496
0.00884845
0.00939952
-0.00791156
-0.000290253
0.00442007
-0.000859161
0.00689483
-0.00152696
0.00739765
-0.00222713
0.00758643
-0.00295903
0.007869
-0.00372964
0.0082309
-0.00454261
0.00866867
-0.00540186
0.00917874
-0.00632703
0.00977362
0.0104272
-0.00735472
-0.000209394
0.00462946
-0.000701799
0.00738723
-0.00131012
0.00800597
-0.00195643
0.00823274
-0.00263444
0.00854701
-0.00335091
0.00894737
-0.00411104
0.0094288
-0.00491762
0.00998532
-0.0057716
0.0106276
0.0114266
-0.00677104
-0.000119203
0.00474867
-0.00052898
0.00779701
-0.00107116
0.00854815
-0.00165908
0.00882066
-0.00227895
0.00916689
-0.00293591
0.00960432
-0.00363473
0.0101276
-0.00437821
0.0107288
-0.00517024
0.0114196
0.0122
-0.00594355
-1.316e-05
0.00476183
-0.000341974
0.00812582
-0.000810358
0.00901654
-0.00133622
0.00934652
-0.00189399
0.00972465
-0.00248674
0.0101971
-0.00311878
0.0107597
-0.00379163
0.0114016
-0.00450047
0.0121285
0.0129529
-0.00525345
7.30812e-05
0.00468875
-0.000139955
0.00833886
-0.000529834
0.00940642
-0.000989606
0.00980629
-0.00148157
0.0102166
-0.002007
0.0107225
-0.00256991
0.0113226
-0.00317465
0.0120064
-0.00382283
0.0127767
0.0136378
-0.00450765
0.000166652
0.00452209
7.49956e-05
0.00843052
-0.000234039
0.00971545
-0.000620864
0.0101931
-0.00104368
0.0106394
-0.0014995
0.0111783
-0.00199075
0.0118138
-0.0025231
0.0125387
-0.00309538
0.0133489
0.0142467
-0.0037043
0.000261935
0.00426016
0.000286405
0.00840605
7.69954e-05
0.00992486
-0.000232761
0.0105029
-0.000582821
0.0109895
-0.000966141
0.0115616
-0.00138183
0.0122295
-0.00183655
0.0129934
-0.00232884
0.0138412
0.0147725
-0.00285462
0.000353425
0.00390673
0.000507373
0.0082521
0.000408598
0.0100236
0.000176818
0.0107347
-0.000103248
0.0112696
-0.000409266
0.0118677
-0.000746019
0.0125663
-0.00111774
0.0133652
-0.00152745
0.0142509
0.0152111
-0.00196613
0.000435604
0.00347113
0.000727387
0.00796032
0.000746093
0.0100049
0.000607094
0.0108737
0.000405389
0.0114713
0.000170891
0.0121021
-8.97865e-05
0.012827
-0.000372753
0.0136481
-0.000691511
0.0145697
0.0155627
-0.00104307
0.0005014
0.00296973
0.000937312
0.00752441
0.00108673
0.00985551
0.00104744
0.0109129
0.000928832
0.0115899
0.000775981
0.012255
0.000599043
0.0130039
0.000397307
0.0138499
0.000174582
0.0147924
0.0158348
-9.75367e-05
0.000542778
0.00242695
0.0011269
0.00694029
0.00142232
0.00956009
0.00149461
0.0108406
0.00146409
0.0116204
0.00139344
0.0123256
0.0013007
0.0130966
0.00118835
0.0139622
0.00105342
0.0149274
0.0159799
0.00090835
0.000552861
0.00187409
0.00128376
0.00620939
0.00174065
0.00910321
0.00194064
0.0106407
0.00200719
0.0115538
0.00202162
0.0123112
0.00201394
0.0131043
0.00199178
0.0139844
0.00195579
0.0149633
0.016022
0.0019137
0.000528847
0.00134524
0.00139396
0.00534428
0.00202593
0.00847123
0.00237359
0.010293
0.0025513
0.0113761
0.00265646
0.0122061
0.00273533
0.0130254
0.00280353
0.0139162
0.00286346
0.0149034
0.0159693
0.00291613
0.000473317
0.000871926
0.00144261
0.00437499
0.0022572
0.00765664
0.00277754
0.00977265
0.0030863
0.0110674
0.00329177
0.0120006
0.00345989
0.0128573
0.00361781
0.0137583
0.00377137
0.0147499
0.0158199
0.0039208
0.000393673
0.000478253
0.00140683
0.00336183
0.00240798
0.00665549
0.00312903
0.0090516
0.00359615
0.0106003
0.0039182
0.0116785
0.00418125
0.0125943
0.00443004
0.0135095
0.00467826
0.0145016
0.0155733
0.00492482
0.000302184
0.000176069
0.0012817
0.00238231
0.00245014
0.00548705
0.00339472
0.00810701
0.00405505
0.00993994
0.00452031
0.0112133
0.00489163
0.0122229
0.00523376
0.0131673
0.00557789
0.0141575
0.0152271
0.00592412
0.000214167
-3.8098e-05
0.00108415
0.00151232
0.00235659
0.00421462
0.00353068
0.00693292
0.00442415
0.00904648
0.00507234
0.0105651
0.00557609
0.0117192
0.0060229
0.0127205
0.00646265
0.0137178
0.0147877
0.00690201
0.000141493
-0.000179591
0.000847345
0.00080647
0.00211234
0.00294962
0.00348555
0.00555971
0.00464598
0.00788605
0.00553038
0.00968069
0.00620975
0.0110398
0.00677957
0.0121507
0.00732876
0.0131686
0.0142532
0.0078633
8.68312e-05
-0.000266422
0.00061216
0.000281142
0.0017403
0.00182148
0.00321535
0.00408466
0.00464458
0.00645683
0.00582173
0.00850353
0.00674173
0.0101198
0.00748302
0.0114094
0.0081486
0.012503
0.0136082
0.00879353
4.78135e-05
-0.000314235
0.000412266
-8.33105e-05
0.00131269
0.00092105
0.00272509
0.00267226
0.00433849
0.00484343
0.00583982
0.0070022
0.00708151
0.00887814
0.00806718
0.0104238
0.00892029
0.0116499
0.0128743
0.00965429
2.16724e-05
-0.000335908
0.000261136
-0.000322774
0.000914228
0.000267958
0.00210368
0.00148281
0.00371288
0.00323422
0.00545323
0.00526185
0.00708058
0.0072508
0.00841651
0.00908782
0.00953902
0.0105274
0.0119057
0.0105076
6.12745e-06
-0.000342035
0.000155988
-0.000472635
0.000597271
-0.000173324
0.00148817
0.000591916
0.00288064
0.00184175
0.0046411
0.00350139
0.00653463
0.00535727
0.00832546
0.007297
0.00985739
0.00899544
0.0107683
0.0109948
-2.05615e-06
-0.000339979
8.71168e-05
-0.000561808
0.000370186
-0.000456393
0.000979443
-1.73409e-05
0.00203421
0.000786987
0.00357042
0.00196517
0.0054437
0.00348399
0.00749123
0.00524946
0.00959858
0.00688808
0.009127
0.0112398
-6.4622e-06
-0.000333517
4.20176e-05
-0.000610288
0.000214053
-0.000628429
0.000603176
-0.000406464
0.00132456
6.56064e-05
0.00248696
0.000802769
0.00407043
0.00190053
0.00603716
0.00328273
0.0083979
0.00452734
0.00700833
0.0105166
-9.57547e-06
-0.000323941
8.43378e-06
-0.000628297
0.000100942
-0.000720938
0.000332575
-0.000638097
0.000787609
-0.000389427
0.00156063
2.97443e-05
0.00274337
0.00071779
0.00433096
0.00169515
0.00641186
0.00244644
0.00463471
0.00878547
-1.44903e-05
-0.000309451
-2.45961e-05
-0.000618191
6.39592e-06
-0.00075193
0.000122961
-0.000754662
0.00038118
-0.000647647
0.000843584
-0.000432659
0.00162842
-6.70415e-05
0.00274509
0.000578474
0.00428128
0.000910245
0.00248979
0.00642621
-2.295e-05
-0.000286501
-6.14041e-05
-0.000579737
-8.43016e-05
-0.000729032
-5.88844e-05
-0.000780079
5.46868e-05
-0.000761218
0.000288214
-0.000666186
0.000736216
-0.000515043
0.00144335
-0.000128663
0.00240867
-5.50753e-05
0.00095376
0.0039447
-3.44226e-05
-0.000252079
-0.000102317
-0.000511843
-0.000175089
-0.00065626
-0.000226671
-0.000728497
-0.000233381
-0.000754508
-0.000164761
-0.000734807
3.48389e-05
-0.000714643
0.000382763
-0.000476588
0.000881272
-0.000553584
7.69308e-05
0.0017581
-4.74419e-05
-0.000204637
-0.000144252
-0.000415032
-0.000262421
-0.000538091
-0.00038062
-0.000610297
-0.000481974
-0.000653155
-0.000541652
-0.000675128
-0.000563035
-0.00069326
-0.000452155
-0.000587468
-0.000316147
-0.000689592
-0.000292018
5.28026e-05
-5.9913e-05
-0.000144724
-0.000182204
-0.000292742
-0.000338435
-0.00038186
-0.000510203
-0.000438529
-0.000684863
-0.000478494
-0.000850289
-0.000509703
-0.00101036
-0.000533185
-0.00109251
-0.000505319
-0.00121519
-0.000566911
-0.00038181
-0.0011254
-6.96848e-05
-7.50388e-05
-0.000210984
-0.000151442
-0.000394712
-0.000198133
-0.000604219
-0.000229022
-0.000830264
-0.000252449
-0.00106741
-0.000272557
-0.00131294
-0.000287654
-0.00153141
-0.000286853
-0.00178505
-0.000313271
-0.00025026
-0.0019166
-7.50416e-05
-0.000226489
-0.000424628
-0.000653657
-0.000906114
-0.00117868
-0.00146634
-0.0017532
-0.00206647
-0.00231673
-0.0100957
0.000223651
-0.0102674
0.000171635
-0.0104179
0.000150498
-0.010536
0.000118137
-0.0106372
0.000101175
-0.010717
7.9803e-05
-0.0107837
6.67041e-05
-0.0108357
5.20361e-05
-0.0108778
4.2016e-05
-0.0109094
3.16024e-05
-0.0109333
2.3901e-05
-0.0109495
1.62673e-05
-0.0109598
1.02882e-05
-0.0109644
4.62839e-06
-0.0109647
2.78051e-07
-0.0109602
-4.53611e-06
-0.0109517
-8.50178e-06
-0.0109396
-1.21269e-05
-0.0109243
-1.52876e-05
-0.0109061
-1.82114e-05
-0.0108852
-2.08174e-05
-0.010862
-2.32427e-05
-0.0108366
-2.54473e-05
-0.010809
-2.75165e-05
-0.0107796
-2.94335e-05
-0.0107483
-3.12515e-05
-0.0107154
-3.29676e-05
-0.0106808
-3.46266e-05
-0.0106445
-3.62533e-05
-3.78996e-05
-0.0100298
0.00045006
-0.0102033
0.000345185
-0.0103557
0.000302872
-0.0104755
0.00023792
-0.0105785
0.000204175
-0.0106601
0.000161458
-0.0107289
0.000135435
-0.010783
0.000106159
-0.0108272
8.62334e-05
-0.0108611
6.54473e-05
-0.0108873
5.01084e-05
-0.0109059
3.48667e-05
-0.0109185
2.2946e-05
-0.0109255
1.16057e-05
-0.0109279
2.67271e-06
-0.0109259
-6.54746e-06
-0.0109199
-1.44823e-05
-0.0109102
-2.17858e-05
-0.0108974
-2.81032e-05
-0.0108817
-3.39676e-05
-0.0108633
-3.91761e-05
-0.0108425
-4.40335e-05
-0.0108195
-4.84436e-05
-0.0107945
-5.25877e-05
-0.0107675
-5.64251e-05
-0.0107387
-6.00664e-05
-0.0107081
-6.35039e-05
-0.0106759
-6.68285e-05
-0.0106421
-7.00867e-05
-7.33809e-05
-0.00989574
0.000681516
-0.0100732
0.000522614
-0.0102296
0.000459317
-0.0103531
0.000361418
-0.0104601
0.00031121
-0.0105458
0.000247139
-0.0106189
0.00020846
-0.0106773
0.000164635
-0.0107261
0.000134976
-0.0107645
0.000103865
-0.0107954
8.09886e-05
-0.0108187
5.81732e-05
-0.0108361
4.03561e-05
-0.0108477
2.32572e-05
-0.0108546
9.53305e-06
-0.0108576
-3.5003e-06
-0.0108566
-1.55451e-05
-0.0108518
-2.65491e-05
-0.0108439
-3.60069e-05
-0.0108331
-4.48187e-05
-0.0108196
-5.26318e-05
-0.0108037
-5.99309e-05
-0.0107856
-6.65537e-05
-0.0107654
-7.27824e-05
-0.0107433
-7.85481e-05
-0.0107193
-8.4024e-05
-0.0106936
-8.91939e-05
-0.0106663
-9.41967e-05
-0.0106373
-9.90956e-05
-0.000104041
-0.00969194
0.000919791
-0.00987515
0.000705829
-0.0100381
0.000622251
-0.0101677
0.000491033
-0.0102813
0.000424836
-0.0103735
0.000339331
-0.0104534
0.000288297
-0.0105187
0.000229932
-0.0105744
0.000190721
-0.0106198
0.000149308
-0.0106579
0.000118997
-0.0106883
8.86245e-05
-0.0107129
6.49597e-05
-0.0107317
4.2077e-05
-0.0107457
2.34954e-05
-0.0107555
6.29785e-06
-0.0107619
-9.09357e-06
-0.0107646
-2.38967e-05
-0.010764
-3.65518e-05
-0.0107605
-4.83396e-05
-0.0107544
-5.87685e-05
-0.0107458
-6.85229e-05
-0.010735
-7.73708e-05
-0.0107221
-8.56976e-05
-0.0107072
-9.3407e-05
-0.0106905
-0.000100735
-0.010672
-0.000107654
-0.0106519
-0.000114353
-0.0106301
-0.000120906
-0.000127506
-0.00941817
0.00116646
-0.00960909
0.000896747
-0.00978103
0.000794189
-0.00991927
0.000629273
-0.0100421
0.000547697
-0.0101434
0.000440621
-0.0102327
0.000377545
-0.0103073
0.000304607
-0.0103726
0.000256005
-0.0104276
0.000204287
-0.0104752
0.000166619
-0.0105153
0.000128683
-0.0105495
9.92092e-05
-0.010578
7.05767e-05
-0.0106018
4.72373e-05
-0.0106206
2.51274e-05
-0.0106366
6.85475e-06
-0.0106491
-1.13547e-05
-0.0106583
-2.73765e-05
-0.0106645
-4.21081e-05
-0.0106681
-5.52159e-05
-0.0106691
-6.74374e-05
-0.010668
-7.85235e-05
-0.0106647
-8.89807e-05
-0.0106595
-9.86543e-05
-0.0106523
-0.000107853
-0.0106434
-0.000116546
-0.0106328
-0.000124968
-0.0106205
-0.000133191
-0.000141448
-0.00907538
0.00142291
-0.00927573
0.0010971
-0.00945894
0.000977398
-0.00960825
0.000778589
-0.00974302
0.000682458
-0.0098561
0.000553709
-0.00995745
0.000478892
-0.0100442
0.000391309
-0.0101216
0.000333413
-0.0101886
0.000271347
-0.0102484
0.00022635
-0.0103005
0.000180819
-0.0103468
0.000145534
-0.0103874
0.000111141
-0.0104233
8.31334e-05
-0.0104546
5.64127e-05
-0.0104815
3.38072e-05
-0.0105056
1.27628e-05
-0.0105274
-5.61648e-06
-0.0105456
-2.39253e-05
-0.0105611
-3.96623e-05
-0.0105742
-5.43265e-05
-0.010585
-6.77179e-05
-0.0105937
-8.03484e-05
-0.0106003
-9.19845e-05
-0.0106051
-0.000103089
-0.0106081
-0.0001136
-0.0106092
-0.000123775
-0.0106088
-0.000133685
-0.0001436
-0.00866557
0.00169149
-0.00887716
0.00130869
-0.00907426
0.00117449
-0.00923722
0.000941546
-0.00938627
0.000831517
-0.00951366
0.000681099
-0.00962948
0.000594706
-0.0097307
0.000492532
-0.00982264
0.000425356
-0.00990425
0.000352949
-0.00997849
0.000300589
-0.0100451
0.000247439
-0.0101059
0.000206304
-0.0101609
0.000166119
-0.0102111
0.000133426
-0.0102569
0.000102181
-0.0102988
7.572e-05
-0.0103368
5.07225e-05
-0.0103714
2.89995e-05
-0.0104043
8.93217e-06
-0.0104344
-9.47956e-06
-0.0104616
-2.71443e-05
-0.0104866
-4.27281e-05
-0.0105095
-5.747e-05
-0.0105303
-7.11959e-05
-0.0105491
-8.4261e-05
-0.0105661
-9.66238e-05
-0.0105813
-0.000108575
-0.0105948
-0.000120201
-0.000131768
-0.00819193
0.00197185
-0.00841628
0.00153304
-0.0086279
0.00138612
-0.0088064
0.00112004
-0.00897196
0.000997078
-0.00911647
0.000825602
-0.00924956
0.000727796
-0.0093681
0.000611074
-0.00947726
0.000534521
-0.00957598
0.000451665
-0.00966721
0.000391823
-0.00975071
0.000330935
-0.00982826
0.000283852
-0.00989992
0.000237776
-0.00996682
0.000200328
-0.0100291
0.000164506
-0.0100876
0.000134226
-0.0101425
0.000105566
-0.0101941
8.05944e-05
-0.0102423
5.71551e-05
-0.010288
3.62253e-05
-0.0103317
1.65204e-05
-0.0103737
-6.62315e-07
-0.0104127
-1.84946e-05
-0.0104496
-3.43161e-05
-0.0104847
-4.92008e-05
-0.0105179
-6.34343e-05
-0.0105491
-7.72809e-05
-0.0105787
-9.06575e-05
-0.000103854
-0.00765564
0.00227278
-0.00789656
0.00177396
-0.00812598
0.00161554
-0.00832436
0.00131842
-0.00850814
0.00118085
-0.00867191
0.000989377
-0.00882353
0.000879419
-0.00896117
0.000748708
-0.00908915
0.000662504
-0.00920688
0.000569395
-0.009317
0.000501936
-0.0094194
0.000433339
-0.00951577
0.000380223
-0.00960622
0.000328222
-0.00969183
0.000285945
-0.0097728
0.000245475
-0.00984988
0.000211304
-0.00992329
0.000178979
-0.00999355
0.00015085
-0.0100607
0.000124323
-0.0101251
0.00010061
-0.0101869
7.83503e-05
-0.0102458
5.82266e-05
-0.0103033
3.8997e-05
-0.0103588
2.11559e-05
-0.0104124
4.37543e-06
-0.0104637
-1.21037e-05
-0.010513
-2.79614e-05
-0.0105606
-4.30544e-05
-5.78649e-05
-0.00708399
0.00258572
-0.00733383
0.0020238
-0.00757409
0.0018558
-0.00778734
0.00153168
-0.0079901
0.00138361
-0.00817429
0.00117357
-0.00834866
0.00105378
-0.00850832
0.000908376
-0.00865895
0.000813127
-0.00879853
0.000708978
-0.00893055
0.000633959
-0.0090543
0.000557085
-0.00917193
0.000497851
-0.00928327
0.000439561
-0.00938968
0.000392359
-0.00949122
0.000347018
-0.00958878
0.000308863
-0.0096825
0.000272696
-0.00977296
0.000241312
-0.00986033
0.000211693
-0.00994503
0.000185314
-0.0100271
0.000160462
-0.0101067
0.000137808
-0.010184
0.000116303
-0.0102593
9.64467e-05
-0.0103324
7.74938e-05
-0.0104038
5.92672e-05
-0.0104732
4.14703e-05
-0.0105407
2.44055e-05
8.03251e-06
-0.0126709
0.00237605
0.0128805
-0.0125772
0.00193013
-0.0125709
0.00184954
-0.0125689
0.00152966
-0.0126007
0.00141538
-0.0126256
0.00119849
-0.0126656
0.00109382
-0.0127006
0.000943343
-0.0127414
0.000853919
-0.0127779
0.000745511
-0.0128158
0.000671802
-0.01285
0.000591272
-0.0128834
0.000531287
-0.0129137
0.000469817
-0.0129423
0.000420993
-0.0129681
0.000372872
-0.0129921
0.000332812
-0.0130136
0.000294208
-0.0130332
0.000260896
-0.0130506
0.000229148
-0.0130663
0.000200971
-0.01308
0.000174201
-0.013092
0.000149811
-0.0131023
0.000126603
-0.013111
0.000105103
-0.0131179
8.44262e-05
-0.0131234
6.47304e-05
-0.0131275
4.55597e-05
-0.0131302
2.71119e-05
8.97543e-06
-0.0128897
0.00221226
0.0130535
-0.0128269
0.00186737
-0.0127578
0.00178039
-0.0127409
0.0015128
-0.0127356
0.00141007
-0.0127476
0.00121046
-0.0127656
0.00111183
-0.0127885
0.000966261
-0.0128147
0.00088007
-0.0128414
0.000772209
-0.0128691
0.000699493
-0.0128957
0.000617847
-0.0129218
0.000557467
-0.0129463
0.000494293
-0.0129697
0.000444344
-0.0129912
0.000394373
-0.0130112
0.00035287
-0.0130295
0.000312454
-0.0130462
0.000277606
-0.0130612
0.000244162
-0.0130747
0.000214469
-0.0130866
0.000186116
-0.0130971
0.000160298
-0.0131061
0.000135626
-0.0131137
0.000112684
-0.0131198
9.05691e-05
-0.0131246
6.95427e-05
-0.0131282
4.90917e-05
-0.0131304
2.93135e-05
9.72628e-06
-0.0130726
0.00206672
0.0132182
-0.013
0.00179473
-0.012925
0.00170541
-0.0128936
0.00148142
-0.0128669
0.00138339
-0.0128637
0.00120725
-0.0128646
0.00111269
-0.0128755
0.000977208
-0.0128887
0.000893234
-0.0129058
0.000789334
-0.0129238
0.000717466
-0.0129428
0.000636895
-0.0129617
0.000576394
-0.0129804
0.000512932
-0.0129983
0.000462269
-0.0130153
0.000411392
-0.0130313
0.000368859
-0.0130462
0.000327285
-0.0130598
0.000291273
-0.0130723
0.000256595
-0.0130835
0.000225695
-0.0130935
0.000196112
-0.0131023
0.000169114
-0.0131099
0.000143246
-0.0131163
0.000119118
-0.0131216
9.58297e-05
-0.0131257
7.36667e-05
-0.0131287
5.20753e-05
-0.0131305
3.11279e-05
1.03329e-05
-0.0132267
0.00193743
0.013356
-0.0131424
0.00171043
-0.0130667
0.00162977
-0.0130234
0.00143809
-0.0129863
0.00134626
-0.0129697
0.00119064
-0.0129579
0.00110096
-0.0129575
0.000976802
-0.0129599
0.000895617
-0.0129679
0.000797322
-0.0129772
0.000726791
-0.012989
0.00064869
-0.0130012
0.000588566
-0.0130141
0.000525881
-0.0130269
0.000474983
-0.0130395
0.00042399
-0.0130515
0.000380859
-0.0130629
0.000338712
-0.0130735
0.000301907
-0.0130834
0.000266436
-0.0130923
0.000234645
-0.0131004
0.000204173
-0.0131075
0.00017625
-0.0131137
0.000149453
-0.013119
0.000124384
-0.0131233
0.000100163
-0.0131267
7.70654e-05
-0.0131292
5.45251e-05
-0.0131306
3.26048e-05
1.08247e-05
-0.0133522
0.00181858
0.0134711
-0.0132638
0.00162204
-0.013187
0.00155298
-0.0131348
0.00138582
-0.0130911
0.00130254
-0.0130642
0.00116374
-0.0130433
0.0010801
-0.0130331
0.000966566
-0.0130267
0.00088923
-0.0130263
0.000797006
-0.0130282
0.00072863
-0.0130332
0.000653728
-0.0130393
0.000594635
-0.0130468
0.000533434
-0.0130547
0.000482841
-0.013063
0.000432332
-0.0130712
0.000389054
-0.0130793
0.000346822
-0.013087
0.000309597
-0.0130943
0.000273726
-0.013101
0.000241359
-0.0131072
0.000210316
-0.0131127
0.000181729
-0.0131175
0.000154268
-0.0131216
0.00012849
-0.013125
0.000103565
-0.0131277
7.97353e-05
-0.0131296
5.64517e-05
-0.0131307
3.37642e-05
1.12119e-05
-0.0134547
0.00170633
0.0135669
-0.0133664
0.00153378
-0.0132888
0.00147535
-0.0132309
0.00132791
-0.0131821
0.00125376
-0.0131476
0.00112923
-0.0131198
0.00105232
-0.0131016
0.000948397
-0.0130881
0.000875674
-0.0130806
0.000789505
-0.013076
0.00072402
-0.0130749
0.000652681
-0.0130755
0.000595246
-0.0130781
0.000535994
-0.0130815
0.000486231
-0.0130858
0.000436659
-0.0130904
0.000393669
-0.0130953
0.000351754
-0.0131002
0.000314473
-0.013105
0.000278544
-0.0131096
0.000245907
-0.0131138
0.000214583
-0.0131177
0.000185594
-0.0131212
0.000157719
-0.0131241
0.000131462
-0.0131266
0.000106049
-0.0131286
8.16918e-05
-0.01313
5.78692e-05
-0.0131308
3.46176e-05
1.14981e-05
-0.0135389
0.00159922
0.013646
-0.0134522
0.0014471
-0.0133745
0.0013976
-0.0133134
0.00126684
-0.0132609
0.0012012
-0.0132208
0.00108922
-0.0131876
0.0010191
-0.0131632
0.000924005
-0.0131438
0.000856243
-0.0131303
0.000775981
-0.0131201
0.000713872
-0.0131137
0.000646294
-0.0131095
0.000591009
-0.0131076
0.000534034
-0.0131069
0.000485547
-0.0131075
0.000437266
-0.0131088
0.000394954
-0.0131107
0.00035369
-0.0131129
0.000316688
-0.0131154
0.000281
-0.0131178
0.000248382
-0.0131203
0.000217041
-0.0131226
0.0001879
-0.0131247
0.000159846
-0.0131266
0.000133331
-0.0131282
0.000107641
-0.0131295
8.29578e-05
-0.0131304
5.87951e-05
-0.0131309
3.51763e-05
1.16865e-05
-0.0136084
0.0014968
0.0137109
-0.0135238
0.00136247
-0.0134466
0.00132038
-0.0133839
0.00120415
-0.0133288
0.00114606
-0.0132848
0.0010453
-0.0132474
0.000981666
-0.0132182
0.000894764
-0.0131939
0.00083201
-0.0131754
0.000757487
-0.0131606
0.000699006
-0.0131496
0.000635299
-0.0131411
0.000582502
-0.0131351
0.000528044
-0.0131307
0.000481183
-0.0131279
0.000434476
-0.0131261
0.000393171
-0.0131253
0.00035284
-0.013125
0.000316413
-0.0131252
0.000281231
-0.0131258
0.000248893
-0.0131265
0.000217775
-0.0131273
0.000188717
-0.0131282
0.000160704
-0.013129
0.000134141
-0.0131297
0.000108374
-0.0131303
8.35609e-05
-0.0131308
5.92491e-05
-0.013131
3.54526e-05
1.17809e-05
-0.0136656
0.00139891
0.0137635
-0.0135833
0.00128015
-0.0135071
0.00124419
-0.0134438
0.00114079
-0.013387
0.00108932
-0.0133404
0.00099868
-0.0132997
0.000941029
-0.0132667
0.000861769
-0.0132386
0.000803892
-0.0132161
0.000734924
-0.0131972
0.000680158
-0.0131823
0.00062037
-0.0131701
0.000570272
-0.0131605
0.000518503
-0.0131529
0.000473527
-0.013147
0.000428619
-0.0131424
0.000388587
-0.013139
0.000349429
-0.0131364
0.00031383
-0.0131346
0.000279387
-0.0131333
0.000247562
-0.0131324
0.000216887
-0.0131318
0.000188125
-0.0131314
0.000160355
-0.0131312
0.000133944
-0.0131311
0.000108289
-0.0131311
8.3532e-05
-0.0131311
5.92534e-05
-0.0131311
3.54598e-05
1.17856e-05
-0.0137124
0.00130536
0.0138059
-0.0136325
0.00120029
-0.0135577
0.00116942
-0.0134944
0.0010774
-0.0134368
0.00103171
-0.0133883
0.00095023
-0.0133453
0.000898048
-0.0133095
0.000825897
-0.0132782
0.000772675
-0.0132524
0.000709049
-0.0132302
0.000657986
-0.0132119
0.00060211
-0.0131965
0.000554826
-0.0131838
0.000505862
-0.0131733
0.000462954
-0.0131647
0.000420022
-0.0131576
0.000381472
-0.0131518
0.000343686
-0.0131471
0.000309129
-0.0131434
0.000275626
-0.0131403
0.000244522
-0.0131379
0.000214484
-0.013136
0.000186214
-0.0131345
0.000158873
-0.0131334
0.000132795
-0.0131325
0.000107432
-0.0131319
8.29056e-05
-0.0131315
5.88321e-05
-0.0131312
3.52123e-05
1.17054e-05
-0.0137504
0.00121596
0.0138397
-0.013673
0.00112294
-0.0135999
0.00109634
-0.0135369
0.00101443
-0.013479
0.000973812
-0.0134294
0.000900613
-0.0133848
0.00085341
-0.0133467
0.00078785
-0.0133131
0.000739023
-0.0132845
0.0006805
-0.0132596
0.000633064
-0.0132386
0.000581049
-0.0132204
0.000536628
-0.013205
0.000490535
-0.0131919
0.000449819
-0.0131809
0.000408995
-0.0131715
0.00037209
-0.0131636
0.000335838
-0.013157
0.000302501
-0.0131515
0.000270112
-0.0131469
0.000239907
-0.0131431
0.00021068
-0.0131399
0.000183076
-0.0131374
0.000156333
-0.0131354
0.000130759
-0.0131338
0.00010585
-0.0131326
8.17188e-05
-0.0131318
5.80113e-05
-0.0131313
3.47257e-05
1.15454e-05
-0.0137809
0.00113049
0.0138664
-0.0137061
0.00104811
-0.0136348
0.00102509
-0.0135726
0.000952187
-0.0135148
0.000916032
-0.0134645
0.000850328
-0.0134188
0.000807658
-0.0133791
0.000748192
-0.0133436
0.000703493
-0.0133129
0.000649812
-0.0132857
0.000605893
-0.0132623
0.000557649
-0.0132418
0.000516096
-0.0132242
0.000472897
-0.0132088
0.000434454
-0.0131956
0.00039583
-0.0131842
0.000360693
-0.0131745
0.000326106
-0.0131661
0.000294133
-0.013159
0.000263004
-0.013153
0.000233853
-0.0131479
0.00020559
-0.0131436
0.000178808
-0.0131401
0.000152817
-0.0131372
0.000127899
-0.013135
0.000103596
-0.0131333
8.00105e-05
-0.0131321
5.68184e-05
-0.0131314
3.4016e-05
1.13111e-05
-0.0138052
0.0010487
0.013887
-0.0137329
0.000975754
-0.0136635
0.000955758
-0.0136022
0.000890888
-0.0135449
0.000858677
-0.0134943
0.000799756
-0.0134479
0.000761213
-0.0134071
0.000707372
-0.0133701
0.00066654
-0.0133377
0.000617432
-0.0133087
0.0005769
-0.0132834
0.000532312
-0.0132609
0.000493599
-0.0132413
0.000453286
-0.013224
0.00041716
-0.013209
0.000380795
-0.0131958
0.000347519
-0.0131844
0.000314696
-0.0131744
0.000284206
-0.0131659
0.000254462
-0.0131585
0.000226495
-0.0131523
0.00019933
-0.013147
0.000173506
-0.0131426
0.000148405
-0.013139
0.000124281
-0.0131361
0.000100722
-0.0131339
7.78203e-05
-0.0131324
5.52812e-05
-0.0131314
3.30999e-05
1.1008e-05
-0.0138243
0.000970363
0.0139027
-0.0137544
0.00090578
-0.013687
0.000888363
-0.0136268
0.000830673
-0.01357
0.000801962
-0.0135195
0.000749184
-0.0134727
0.000714407
-0.013431
0.000665751
-0.013393
0.000628535
-0.0133593
0.000583734
-0.0133289
0.000546447
-0.013302
0.000505383
-0.0132778
0.000469462
-0.0132565
0.000432
-0.0132376
0.000398212
-0.0132209
0.000364139
-0.0132062
0.000332789
-0.0131933
0.000301806
-0.013182
0.000272894
-0.0131722
0.000244634
-0.0131636
0.000217964
-0.0131563
0.00019201
-0.0131501
0.000167266
-0.0131448
0.000143175
-0.0131405
0.00011997
-0.0131371
9.72802e-05
-0.0131345
7.51881e-05
-0.0131326
5.34279e-05
-0.0131315
3.19941e-05
1.06415e-05
-0.0138391
0.000895221
0.0139142
-0.0137714
0.000838084
-0.0137059
0.000822878
-0.0136469
0.000771619
-0.0135909
0.00074603
-0.0135406
0.000698822
-0.0134936
0.000667489
-0.0134515
0.000623613
-0.0134127
0.000589777
-0.013378
0.000549024
-0.0133464
0.000514839
-0.0133182
0.000477159
-0.0132927
0.000443966
-0.01327
0.000409305
-0.0132497
0.000377853
-0.0132316
0.000346084
-0.0132155
0.000316704
-0.0132013
0.000287616
-0.0131888
0.000260357
-0.0131778
0.000233663
-0.0131682
0.000208383
-0.01316
0.00018374
-0.0131529
0.00016018
-0.0131469
0.000137206
-0.013142
0.000115031
-0.013138
9.33217e-05
-0.013135
7.21533e-05
-0.0131328
5.12862e-05
-0.0131316
3.07151e-05
1.02173e-05
-0.0138502
0.000823033
0.0139224
-0.0137847
0.000772542
-0.0137211
0.000759243
-0.0136632
0.000713762
-0.0136081
0.000690971
-0.0135581
0.000648825
-0.0135113
0.000620648
-0.0134689
0.000581182
-0.0134296
0.000550508
-0.0133941
0.000513556
-0.0133616
0.000482331
-0.0133324
0.000447891
-0.0133057
0.000417354
-0.0132819
0.000385429
-0.0132603
0.000356298
-0.0132411
0.00032683
-0.0132238
0.000299449
-0.0132085
0.000272294
-0.0131949
0.000246745
-0.0131829
0.000221682
-0.0131724
0.000197871
-0.0131633
0.000174621
-0.0131554
0.000152335
-0.0131488
0.000130573
-0.0131433
0.000109526
-0.0131388
8.88966e-05
-0.0131354
6.8754e-05
-0.013133
4.88832e-05
-0.0131316
2.92791e-05
9.74064e-06
-0.0138584
0.000753557
0.0139279
-0.0137949
0.000709017
-0.013733
0.000697376
-0.0136764
0.000657102
-0.0136222
0.000636831
-0.0135727
0.000599295
-0.0135261
0.000574021
-0.0134835
0.000538629
-0.0134439
0.000510917
-0.0134079
0.000477534
-0.0133747
0.000449132
-0.0133446
0.00041779
-0.0133171
0.000389832
-0.0132922
0.000360575
-0.0132697
0.000333739
-0.0132494
0.000306556
-0.0132311
0.000281188
-0.0132148
0.000255989
-0.0132003
0.000232195
-0.0131874
0.000208815
-0.0131761
0.000186537
-0.0131662
0.00016475
-0.0131577
0.000143816
-0.0131505
0.000123346
-0.0131444
0.000103513
-0.0131396
8.40526e-05
-0.0131359
6.50271e-05
-0.0131332
4.6245e-05
-0.0131317
2.77017e-05
9.21677e-06
-0.0138642
0.000686556
0.0139312
-0.0138025
0.000647365
-0.0137423
0.000637177
-0.0136869
0.000601612
-0.0136336
0.000583624
-0.0135847
0.000550299
-0.0135383
0.000527705
-0.0134958
0.000496084
-0.013456
0.000471152
-0.0134196
0.000441124
-0.0133859
0.000415415
-0.0133551
0.000387034
-0.0133269
0.000361577
-0.0133012
0.000334913
-0.0132778
0.00031034
-0.0132567
0.000285418
-0.0132376
0.000262067
-0.0132204
0.000238838
-0.0132051
0.000216831
-0.0131914
0.000195175
-0.0131794
0.000174482
-0.0131688
0.000154215
-0.0131597
0.0001347
-0.013152
0.000115593
-0.0131455
9.70487e-05
-0.0131403
7.88352e-05
-0.0131363
6.10076e-05
-0.0131334
4.33965e-05
-0.0131317
2.59978e-05
8.65064e-06
-0.013868
0.000621803
0.0139328
-0.0138081
0.00058744
-0.0137495
0.000578536
-0.0136951
0.000547245
-0.0136428
0.000531337
-0.0135944
0.000501873
-0.0135485
0.000481763
-0.013506
0.000453642
-0.0134662
0.000431325
-0.0134295
0.000404458
-0.0133954
0.000381318
-0.0133642
0.000355769
-0.0133353
0.000332735
-0.013309
0.000308591
-0.0132849
0.000286245
-0.013263
0.000263554
-0.0132432
0.000242217
-0.0132253
0.000220963
-0.0132092
0.000200766
-0.0131949
0.000180863
-0.0131823
0.000161797
-0.0131711
0.0001431
-0.0131615
0.000125059
-0.0131533
0.000107375
-0.0131464
9.01858e-05
-0.0131409
7.32872e-05
-0.0131366
5.67287e-05
-0.0131336
4.03613e-05
-0.0131317
2.41816e-05
8.04695e-06
-0.0138704
0.000559076
0.0139331
-0.013812
0.000529091
-0.0137548
0.000521331
-0.0137015
0.000493939
-0.0136501
0.000479938
-0.0136023
0.000454027
-0.0135567
0.00043623
-0.0135145
0.00041137
-0.0134747
0.000391519
-0.0134378
0.000367635
-0.0134035
0.000346954
-0.0133718
0.000324116
-0.0133425
0.000303431
-0.0133157
0.000281735
-0.013291
0.000261575
-0.0132685
0.000241085
-0.0132481
0.000221753
-0.0132296
0.000202473