/*--------------------------------*- C++ -*----------------------------------*\
  =========                 |
  \\      /  F ield         | OpenFOAM: The Open Source CFD Toolbox
   \\    /   O peration     | Website:  https://openfoam.org
    \\  /    A nd           | Version:  7
     \\/     M anipulation  |
\*---------------------------------------------------------------------------*/
FoamFile
{
    version     2.0;
    format      ascii;
    class       volScalarField;
    location    "35";
    object      p;
}
// * * * * * * * * * * * * * * * * * * * * * * * * * * * * * * * * * * * * * //

dimensions      [0 2 -2 0 0 0 0];

internalField   nonuniform List<scalar> 
3312
(
-0.214653
-0.221505
-0.216929
-0.222161
-0.219156
-0.224924
-0.222875
-0.221083
-0.226124
-0.225037
-0.223612
-0.222624
-0.225867
-0.225144
-0.224231
-0.223638
-0.225992
-0.225595
-0.225167
-0.224624
-0.224096
-0.225486
-0.225294
-0.225083
-0.224813
-0.224825
-0.225004
-0.224985
-0.224951
-0.224905
-0.224833
-0.225055
-0.224412
-0.224504
-0.224588
-0.224664
-0.224734
-0.22503
-0.223896
-0.22407
-0.224238
-0.224403
-0.224572
-0.224903
-0.22348
-0.22371
-0.223937
-0.224163
-0.224398
-0.224748
-0.223188
-0.223454
-0.223716
-0.22398
-0.224255
-0.224617
-0.222744
-0.223037
-0.22332
-0.2236
-0.223881
-0.224176
-0.224543
-0.199241
-0.171214
-0.147314
-0.118491
-0.0962564
-0.0793943
-0.0659998
-0.0553578
-0.0467139
-0.0396214
-0.0337343
-0.028798
-0.0246232
-0.0210672
-0.0180201
-0.0153959
-0.0131268
-0.0111579
-0.00944508
-0.00795262
-0.00664892
-0.00550821
-0.00450904
-0.00363279
-0.00286406
-0.00218934
-0.00159709
-0.00107729
-0.000621193
-0.00022119
0.000129413
0.000436448
0.00070512
0.00093995
0.00114496
0.0013238
0.00147938
0.00161437
0.00173116
0.00183177
0.00191806
0.0019916
0.00205378
0.00210578
0.00214858
0.00218303
0.0022098
0.0022294
0.00224227
0.00224873
-0.19984
-0.182679
-0.156009
-0.127887
-0.104901
-0.0869276
-0.0725524
-0.0609653
-0.0515215
-0.0437487
-0.0372872
-0.0318665
-0.0272823
-0.0233793
-0.020037
-0.0171606
-0.0146753
-0.0125203
-0.0106467
-0.00901454
-0.00758949
-0.00634309
-0.00525157
-0.00429458
-0.00345501
-0.00271808
-0.00207111
-0.00150309
-0.00100448
-0.000566937
-0.000183184
0.000153155
0.000447716
0.000705423
0.000930635
0.00112723
0.00129847
0.00144724
0.00157611
0.0016873
0.0017828
0.00186431
0.00193332
0.0019911
0.00203873
0.0020771
0.00210695
0.00212883
0.00214321
0.00215038
-0.207333
-0.188902
-0.160884
-0.133388
-0.11067
-0.0924403
-0.077549
-0.065382
-0.0553885
-0.0471212
-0.040225
-0.0344267
-0.0295168
-0.0253338
-0.0217507
-0.0186672
-0.016003
-0.0136935
-0.0116858
-0.00993678
-0.00840983
-0.00707438
-0.00590488
-0.00487948
-0.00397978
-0.00318988
-0.00249619
-0.00188689
-0.00135176
-0.000881885
-0.000469476
-0.000107725
0.000209371
0.000487062
0.000729977
0.000942225
0.0011273
0.00128827
0.0014279
0.00154853
0.00165227
0.00174094
0.00181611
0.00187912
0.00193112
0.00197306
0.00200571
0.00202967
0.00204541
0.00205325
-0.212608
-0.192484
-0.163768
-0.136874
-0.114732
-0.0966134
-0.0814911
-0.0689725
-0.0586008
-0.0499684
-0.0427356
-0.0366355
-0.0314596
-0.027044
-0.0232586
-0.0199991
-0.0171821
-0.0147395
-0.0126158
-0.0107654
-0.00914964
-0.00773628
-0.00649832
-0.00541268
-0.00445987
-0.00362308
-0.00288791
-0.00224187
-0.00167417
-0.00117537
-0.000737268
-0.000352676
-1.52702e-05
0.000280474
0.000539422
0.00076589
0.000963556
0.00113568
0.00128514
0.00141442
0.00152574
0.00162099
0.00170184
0.00176968
0.00182573
0.00187097
0.00190622
0.00193211
0.00194911
0.00195757
-0.215307
-0.195175
-0.166171
-0.139814
-0.118144
-0.10014
-0.084878
-0.0721093
-0.0614488
-0.0525218
-0.0450075
-0.0386488
-0.033241
-0.0286201
-0.0246541
-0.0212363
-0.0182808
-0.015717
-0.013487
-0.0115434
-0.00984571
-0.00836027
-0.00705884
-0.0059172
-0.00491493
-0.00403439
-0.00326045
-0.00258004
-0.00198181
-0.00145589
-0.000993658
-0.000587598
-0.000231089
8.16496e-05
0.000355704
0.000595582
0.000805137
0.000987783
0.00114654
0.001284
0.00140248
0.00150397
0.00159018
0.00166261
0.00172248
0.00177085
0.00180857
0.00183627
0.00185448
0.00186354
-0.217069
-0.197796
-0.168728
-0.142819
-0.121421
-0.103405
-0.0879907
-0.0750025
-0.0640924
-0.0549064
-0.0471405
-0.0405479
-0.0349282
-0.0301181
-0.0259842
-0.0224185
-0.0193326
-0.0166543
-0.0143237
-0.0122914
-0.0105156
-0.00896136
-0.00759919
-0.0064039
-0.00535417
-0.00443161
-0.00362042
-0.00290695
-0.00227936
-0.00172734
-0.0012419
-0.000815188
-0.000440305
-0.000111223
0.000177355
0.000430124
0.000651105
0.000843864
0.00101154
0.00115686
0.00128222
0.00138968
0.00148105
0.00155786
0.0016214
0.00167277
0.00171284
0.0017423
0.00176166
0.00177128
-0.218962
-0.200533
-0.171453
-0.145908
-0.124631
-0.1065
-0.0909018
-0.0777043
-0.0665675
-0.0571466
-0.0491515
-0.0423449
-0.03653
-0.0315442
-0.0272536
-0.0235489
-0.0203402
-0.0175534
-0.0151271
-0.0130104
-0.0111601
-0.00954008
-0.00811975
-0.00687302
-0.00577775
-0.00481483
-0.00396785
-0.00322261
-0.00256679
-0.00198968
-0.00148192
-0.00103536
-0.000642823
-0.000298044
4.48093e-06
0.000269623
0.000501569
0.000704029
0.000880268
0.00103311
0.00116505
0.00127824
0.00137454
0.00145554
0.0015226
0.00157683
0.00161916
0.00165028
0.00167074
0.00168091
-0.22116
-0.203231
-0.174095
-0.14886
-0.127637
-0.109353
-0.0935682
-0.0801807
-0.0688426
-0.0592133
-0.0510141
-0.0440159
-0.038025
-0.0328796
-0.0284457
-0.024613
-0.0212907
-0.0184032
-0.0158877
-0.0136921
-0.011772
-0.0100901
-0.00861501
-0.0073198
-0.00618156
-0.00518052
-0.0042997
-0.00352439
-0.00284185
-0.00224098
-0.00171209
-0.00124673
-0.000837467
-0.000477814
-0.000162074
0.000114792
0.000357129
0.000568782
0.000753132
0.000913105
0.00105128
0.00116989
0.00127086
0.00135583
0.00142621
0.00148316
0.00152762
0.00156032
0.00158182
0.00159251
-0.223424
-0.205635
-0.176393
-0.151461
-0.130278
-0.111856
-0.0959171
-0.0823768
-0.0708723
-0.0610672
-0.0526946
-0.0455318
-0.0393879
-0.0341022
-0.0295412
-0.0255943
-0.0221699
-0.0191913
-0.0165948
-0.0143272
-0.0123431
-0.0106045
-0.00907907
-0.00773916
-0.00656122
-0.00552491
-0.00461273
-0.00380955
-0.0031022
-0.00247925
-0.0019307
-0.00144784
-0.00102299
-0.000649482
-0.000321421
-3.36177e-05
0.000218417
0.000438653
0.000630578
0.000797213
0.00094122
0.0010649
0.00117023
0.00125892
0.00133241
0.00139189
0.00143835
0.00147253
0.00149501
0.00150617
-0.225485
-0.207557
-0.178189
-0.153602
-0.132457
-0.113937
-0.0978974
-0.0842549
-0.0726259
-0.0626826
-0.0541708
-0.0468735
-0.0406021
-0.0351978
-0.0305279
-0.0264821
-0.0229684
-0.0199097
-0.0172414
-0.0149097
-0.0128684
-0.0110789
-0.00950811
-0.0081278
-0.0069139
-0.00584556
-0.00490486
-0.00407626
-0.00334627
-0.00270313
-0.0021366
-0.0016377
-0.00119857
-0.00081233
-0.000472946
-0.000175081
8.58814e-05
0.000314025
0.000512933
0.000685713
0.000835101
0.000963456
0.00107282
0.00116495
0.00124131
0.00130314
0.00135145
0.001387
0.00141038
0.00142199
-0.227182
-0.208921
-0.179444
-0.155254
-0.134146
-0.115571
-0.0994927
-0.0858026
-0.0740927
-0.0640508
-0.0554354
-0.0480344
-0.0416617
-0.0361609
-0.0314009
-0.0272721
-0.0236825
-0.0205551
-0.0178248
-0.0154372
-0.0133459
-0.0115114
-0.0099005
-0.00848432
-0.00723836
-0.00614139
-0.00517514
-0.00432372
-0.00357335
-0.00291202
-0.00232923
-0.00181583
-0.00136376
-0.000965986
-0.000616321
-0.000309311
-4.0223e-05
0.000195124
0.000400398
0.000578786
0.000733087
0.000865719
0.000978775
0.00107404
0.00115304
0.00121702
0.00126702
0.00130382
0.00132803
0.00134005
-0.228442
-0.209719
-0.180187
-0.156435
-0.135353
-0.116765
-0.100712
-0.0870253
-0.0752762
-0.0651746
-0.0564907
-0.0490158
-0.0425674
-0.0369919
-0.0321604
-0.0279642
-0.0243122
-0.0211273
-0.0183446
-0.0159094
-0.013775
-0.0119018
-0.0102559
-0.00880841
-0.00753433
-0.00641216
-0.00542332
-0.00455169
-0.00378322
-0.00310569
-0.00250842
-0.00198206
-0.00151841
-0.00111029
-0.000751391
-0.000436159
-0.000159759
8.20789e-05
0.000293096
0.000476547
0.000635289
0.000771789
0.000888184
0.0009863
0.00106768
0.00113361
0.00118514
0.00122309
0.00124805
0.00126044
-0.229223
-0.209958
-0.180462
-0.157169
-0.136091
-0.11754
-0.101576
-0.0879357
-0.0761857
-0.0660617
-0.0573424
-0.0498222
-0.0433224
-0.0376932
-0.032808
-0.0285597
-0.0248582
-0.0216269
-0.0188012
-0.0163266
-0.0141561
-0.0122501
-0.0105745
-0.00910009
-0.00780179
-0.00665781
-0.00564935
-0.00476009
-0.00397579
-0.00328406
-0.00267405
-0.00213628
-0.0016624
-0.00124513
-0.000878055
-0.000555528
-0.000272628
-2.50138e-05
0.000191121
0.000379088
0.000541795
0.000681752
0.000801134
0.000901799
0.000985317
0.001053
0.00110591
0.00114487
0.0011705
0.00118323
-0.229488
-0.209616
-0.180305
-0.15747
-0.136359
-0.117921
-0.102104
-0.0885449
-0.07683
-0.0667195
-0.0579964
-0.0504576
-0.0439298
-0.038267
-0.0333453
-0.0290598
-0.0253213
-0.0220545
-0.0191951
-0.0166889
-0.0144892
-0.0125563
-0.0108561
-0.0093593
-0.00804064
-0.00687823
-0.00585311
-0.0049488
-0.00415095
-0.00344701
-0.00282601
-0.00227836
-0.00179562
-0.0013704
-0.000996206
-0.000667312
-0.000378731
-0.00012606
9.4562e-05
0.000286495
0.000452687
0.000595689
0.000717703
0.000820616
0.000906021
0.000975245
0.00102937
0.00106924
0.00109547
0.00110849
-0.229197
-0.208644
-0.179738
-0.157312
-0.136161
-0.117933
-0.102308
-0.08886
-0.077216
-0.067154
-0.0584566
-0.0509249
-0.0443916
-0.0387147
-0.0337733
-0.0294648
-0.0257018
-0.02241
-0.0195261
-0.0169962
-0.0147741
-0.0128202
-0.0111005
-0.00958577
-0.00825064
-0.00707318
-0.00603436
-0.00511761
-0.00430848
-0.00359434
-0.00296413
-0.00240816
-0.00191793
-0.00148597
-0.00110572
-0.000771396
-0.00047796
-0.000220959
3.51305e-06
0.000198854
0.000368049
0.000513675
0.000637963
0.00074282
0.000829859
0.000900422
0.000955604
0.000996254
0.00102301
0.00103629
-0.228232
-0.207033
-0.178776
-0.156638
-0.135514
-0.117595
-0.10219
-0.0888853
-0.0773492
-0.0673697
-0.0587261
-0.0512262
-0.0447094
-0.0390372
-0.0340924
-0.029775
-0.0259996
-0.0226933
-0.0197939
-0.0172482
-0.0150105
-0.0130415
-0.0113074
-0.00977917
-0.00843147
-0.00724237
-0.00619283
-0.00526627
-0.00444816
-0.00372585
-0.0030882
-0.0025255
-0.00202916
-0.00159168
-0.00120646
-0.000867662
-0.000570209
-0.000309613
-8.1937e-05
0.000116248
0.000287954
0.00043578
0.000561978
0.000668473
0.000756888
0.000828581
0.000884655
0.000925969
0.000953159
0.000966657
-0.226487
-0.204736
-0.17741
-0.155382
-0.134457
-0.116912
-0.101749
-0.0886249
-0.0772348
-0.0673706
-0.0588076
-0.0513634
-0.0448848
-0.0392356
-0.0343031
-0.0299907
-0.0262148
-0.0229044
-0.0199983
-0.0174447
-0.0151981
-0.0132198
-0.0114765
-0.00993923
-0.00858285
-0.00738554
-0.00632829
-0.00539455
-0.00456979
-0.00384135
-0.00319808
-0.00263022
-0.00212918
-0.00168742
-0.00129832
-0.000956006
-0.000655384
-0.000391937
-0.00016171
3.87481e-05
0.000212467
0.000362066
0.000489806
0.000597626
0.000687159
0.000759771
0.000816572
0.000858426
0.000885974
0.00089965
-0.223904
-0.201755
-0.175516
-0.153515
-0.133032
-0.115871
-0.100985
-0.0880847
-0.0768788
-0.0671611
-0.0587043
-0.0513392
-0.0449202
-0.0393113
-0.0344065
-0.0301125
-0.026348
-0.0230434
-0.0201396
-0.0175856
-0.0153368
-0.0133551
-0.0116077
-0.0100658
-0.00870465
-0.00750254
-0.00644059
-0.00550231
-0.00467323
-0.00394071
-0.00329362
-0.00272222
-0.00221789
-0.0017731
-0.00138121
-0.00103635
-0.000733413
-0.000467867
-0.000235748
-3.35919e-05
0.000141641
0.000292578
0.000421491
0.000530322
0.000620712
0.00069403
0.00075139
0.000793662
0.000821487
0.0008353
-0.220435
-0.198111
-0.172925
-0.15112
-0.131232
-0.114473
-0.0999009
-0.0872732
-0.0762893
-0.0667451
-0.0584206
-0.0511572
-0.0448182
-0.0392661
-0.0344041
-0.0301417
-0.0263998
-0.0231109
-0.0202179
-0.0176713
-0.0154268
-0.0134474
-0.0117009
-0.0101588
-0.0087968
-0.00759331
-0.00652965
-0.00558948
-0.00475842
-0.00402387
-0.00337478
-0.00280143
-0.00229523
-0.00184865
-0.00145508
-0.00110865
-0.000804251
-0.000537357
-0.000304007
-0.000100732
7.55105e-05
0.000227353
0.000357066
0.000466593
0.000557577
0.000631387
0.00068914
0.000731705
0.000759725
0.000773635
-0.216043
-0.193797
-0.169598
-0.148254
-0.129026
-0.112719
-0.0985193
-0.086205
-0.075476
-0.0661287
-0.0579628
-0.0508226
-0.0445818
-0.0391027
-0.0342981
-0.0300799
-0.0263715
-0.0231079
-0.020234
-0.0177023
-0.0154685
-0.013497
-0.0117563
-0.0102185
-0.00885941
-0.0076579
-0.00659553
-0.00565609
-0.00482535
-0.00409082
-0.00344155
-0.00286784
-0.00236117
-0.00191406
-0.00151991
-0.00117288
-0.000867872
-0.000600385
-0.000366465
-0.000162652
1.40979e-05
0.00016641
0.000296552
0.00040646
0.000497774
0.000571863
0.00062984
0.000672574
0.000700708
0.000714674
-0.210704
-0.188795
-0.165591
-0.144935
-0.126407
-0.11062
-0.096853
-0.0848906
-0.0744479
-0.065323
-0.0573395
-0.0503445
-0.0442116
-0.0388245
-0.0340911
-0.029929
-0.0262645
-0.0230354
-0.0201888
-0.0176794
-0.0154624
-0.0135043
-0.0117744
-0.0102451
-0.00889264
-0.00769644
-0.00663832
-0.0057022
-0.00487408
-0.00414161
-0.00349393
-0.00292146
-0.00241574
-0.00196934
-0.00157569
-0.00122903
-0.000924275
-0.000656944
-0.000423115
-0.000219342
-4.25889e-05
0.00010976
0.000239958
0.000349933
0.000441316
0.00051547
0.000573503
0.000616283
0.000644449
0.000658431
-0.204423
-0.183108
-0.160983
-0.141168
-0.123394
-0.108197
-0.0949135
-0.08334
-0.0732119
-0.0643378
-0.0565569
-0.0497245
-0.0437186
-0.0384367
-0.0337872
-0.0296912
-0.0260804
-0.0228951
-0.0200836
-0.0176032
-0.015409
-0.0134698
-0.0117554
-0.0102389
-0.00889673
-0.00770916
-0.00665823
-0.00572794
-0.00490471
-0.00417633
-0.00353202
-0.00296237
-0.00245898
-0.00201451
-0.00162247
-0.00127714
-0.000973477
-0.000707049
-0.000473966
-0.000270814
-9.4556e-05
5.73992e-05
0.000187285
0.000297012
0.000388202
0.000462208
0.000520131
0.000562833
0.00059095
0.000604907
-0.197237
-0.17676
-0.155836
-0.136975
-0.120017
-0.105471
-0.0927148
-0.0815645
-0.0717779
-0.0631802
-0.0556212
-0.0489682
-0.0431072
-0.0379428
-0.0333888
-0.0293704
-0.0258221
-0.0226892
-0.0199207
-0.0174738
-0.0153092
-0.0133942
-0.0117002
-0.0102001
-0.00887205
-0.00769634
-0.00665544
-0.00573347
-0.0049174
-0.0041951
-0.00355589
-0.00299063
-0.00249096
-0.00204964
-0.00166029
-0.00131724
-0.00101551
-0.000750725
-0.000519042
-0.000317088
-0.000141822
9.31255e-06
0.000138519
0.000247688
0.000338426
0.000412072
0.000469719
0.000512221
0.000540207
0.0005541
-0.189213
-0.169803
-0.150204
-0.132387
-0.116308
-0.102464
-0.0902741
-0.0795777
-0.0701577
-0.0618577
-0.0545391
-0.0480818
-0.0423809
-0.0373463
-0.0328991
-0.0289687
-0.0254923
-0.0224193
-0.0197006
-0.0172945
-0.0151644
-0.0132788
-0.011609
-0.0101294
-0.00881911
-0.00765856
-0.00663005
-0.00571906
-0.00491237
-0.0041981
-0.00356569
-0.00300639
-0.00251178
-0.00207482
-0.00168923
-0.00134939
-0.00105044
-0.000788022
-0.00055838
-0.000358203
-0.00018442
-3.4527e-05
9.36376e-05
0.000201941
0.000291968
0.000365046
0.000422253
0.000464432
0.000492209
0.000505997
-0.180445
-0.162306
-0.144136
-0.127442
-0.112302
-0.0992025
-0.0876106
-0.0773945
-0.0683632
-0.0603796
-0.0533183
-0.0470715
-0.0415439
-0.0366513
-0.0323212
-0.028488
-0.025093
-0.022087
-0.0194248
-0.0170662
-0.0149759
-0.0131242
-0.0114831
-0.0100278
-0.00873859
-0.00759594
-0.00658261
-0.00568503
-0.00489
-0.00418541
-0.00356158
-0.0030098
-0.0025216
-0.00209013
-0.00170938
-0.00137368
-0.00107832
-0.000818998
-0.000592027
-0.000394216
-0.000222394
-7.4155e-05
5.26099e-05
0.000159742
0.000248805
0.000321106
0.00037771
0.000419447
0.000446934
0.000460579
-0.171052
-0.154351
-0.137692
-0.122185
-0.108031
-0.095712
-0.0847449
-0.075031
-0.0664074
-0.0587565
-0.0519673
-0.0459443
-0.0406016
-0.035862
-0.031659
-0.0279316
-0.0246259
-0.0216943
-0.0190948
-0.0167896
-0.0147446
-0.0129313
-0.0113231
-0.00989621
-0.00863105
-0.00750927
-0.00651396
-0.00563196
-0.00485037
-0.0041574
-0.00354383
-0.00300111
-0.00252051
-0.00209576
-0.00172087
-0.00139022
-0.00109926
-0.000843737
-0.000620037
-0.000425205
-0.000255803
-0.000109623
1.53882e-05
0.000121049
0.000208898
0.000280219
0.000336058
0.000377236
0.000404355
0.000417818
-0.161165
-0.146029
-0.130935
-0.116663
-0.103532
-0.0920197
-0.081698
-0.072504
-0.0643034
-0.056999
-0.0504949
-0.0447072
-0.0395597
-0.0349829
-0.030916
-0.0273027
-0.0240933
-0.0212432
-0.0187126
-0.0164661
-0.0144715
-0.012701
-0.0111297
-0.00973486
-0.00849706
-0.00739892
-0.00642444
-0.0055602
-0.00479411
-0.00411465
-0.00351291
-0.00298029
-0.00250871
-0.00209195
-0.00172377
-0.00139909
-0.00111338
-0.000862335
-0.000642461
-0.000451277
-0.000284711
-0.000140981
-1.80759e-05
8.58174e-05
0.000172206
0.000242344
0.000297262
0.000337762
0.000364437
0.00037768
-0.150925
-0.137438
-0.123937
-0.110928
-0.0988421
-0.088154
-0.0784919
-0.0698306
-0.0620653
-0.0551187
-0.0489099
-0.0433675
-0.0384245
-0.0340191
-0.0300963
-0.0266046
-0.0234983
-0.0207359
-0.0182801
-0.0160974
-0.0141578
-0.0124346
-0.0109039
-0.00954442
-0.00833722
-0.00726552
-0.00631427
-0.00547013
-0.00472147
-0.00405746
-0.00346903
-0.00294801
-0.00248664
-0.00207879
-0.00171833
-0.00140049
-0.00112086
-0.00087488
-0.000659356
-0.000472579
-0.000309198
-0.000168301
-4.78553e-05
5.39852e-05
0.000138673
0.000207429
0.000261269
0.000300979
0.000327135
0.00034012
-0.140475
-0.128677
-0.11677
-0.105032
-0.0939999
-0.0841432
-0.075148
-0.067028
-0.0597066
-0.0531263
-0.0472214
-0.0419325
-0.0372019
-0.0329755
-0.029204
-0.0258408
-0.0228438
-0.0201748
-0.0177991
-0.0156852
-0.0138049
-0.012133
-0.0106467
-0.00932581
-0.00815217
-0.00710967
-0.00618392
-0.00536208
-0.00463283
-0.00398594
-0.00341242
-0.00290439
-0.0024545
-0.0020566
-0.00170493
-0.00139473
-0.0011217
-0.000881546
-0.000670739
-0.000489303
-0.000329302
-0.000191659
-7.40134e-05
2.54909e-05
0.000108239
0.000175421
0.00022803
0.00026684
0.000292403
0.000305094
-0.129955
-0.119845
-0.109505
-0.0990292
-0.0890442
-0.0800164
-0.0716888
-0.0641138
-0.0572415
-0.0510332
-0.0454384
-0.0404097
-0.0358983
-0.0318575
-0.0282436
-0.0250148
-0.0221329
-0.0195626
-0.0172719
-0.0152315
-0.0134147
-0.0117978
-0.0103594
-0.00908013
-0.00794283
-0.00693208
-0.00603411
-0.0052366
-0.00452865
-0.00390047
-0.00334336
-0.00284968
-0.00241245
-0.00202558
-0.00168369
-0.00138197
-0.00111631
-0.000882682
-0.000677947
-0.000500394
-0.000345086
-0.000211171
-9.6629e-05
2.68512e-07
8.08315e-05
0.000146242
0.000197478
0.00023528
0.000260178
0.000272539
-0.119494
-0.111032
-0.102213
-0.0929696
-0.0840117
-0.0758015
-0.0681356
-0.0611047
-0.054683
-0.04885
-0.0435698
-0.0388062
-0.0345194
-0.0306698
-0.027219
-0.0241301
-0.0213684
-0.0189018
-0.0167007
-0.0147378
-0.0129884
-0.0114302
-0.0100429
-0.00880831
-0.00771005
-0.00673349
-0.00586548
-0.00509426
-0.00440939
-0.00380149
-0.00326221
-0.00278417
-0.00236071
-0.00198594
-0.00165468
-0.0013623
-0.00110475
-0.000878319
-0.000679929
-0.00050729
-0.000356805
-0.000226935
-0.000115781
-2.17784e-05
5.63744e-05
0.000119814
0.000169559
0.000206247
0.000230405
0.000242399
-0.109208
-0.102324
-0.0949582
-0.0869015
-0.078939
-0.0715267
-0.0645105
-0.0580182
-0.0520452
-0.0465881
-0.0416247
-0.0371298
-0.0330717
-0.0294178
-0.0261349
-0.0231905
-0.0205537
-0.0181951
-0.0160877
-0.0142064
-0.012528
-0.0110318
-0.00969869
-0.00851155
-0.00745488
-0.0065148
-0.00567884
-0.00493579
-0.00427567
-0.00368956
-0.00316946
-0.00270828
-0.00229966
-0.00193796
-0.0016182
-0.00133591
-0.0010872
-0.000868546
-0.000676948
-0.000509951
-0.000364599
-0.000239102
-0.000131671
-4.08073e-05
3.47395e-05
9.60833e-05
0.000144175
0.000179645
0.000203
0.000214595
-0.0991986
-0.093795
-0.0877969
-0.0808672
-0.0738581
-0.0672165
-0.0608331
-0.0548696
-0.0493401
-0.0442571
-0.0396112
-0.0353869
-0.0315607
-0.0281061
-0.024995
-0.0221993
-0.0196914
-0.0174449
-0.0154351
-0.0136389
-0.0120349
-0.0106039
-0.00932785
-0.00819079
-0.00717814
-0.00627674
-0.00547482
-0.00476173
-0.004128
-0.00356514
-0.00306552
-0.00262237
-0.00222965
-0.00188194
-0.00157449
-0.00130303
-0.00106381
-0.0008535
-0.000669184
-0.000508387
-0.000368533
-0.00024775
-0.000144357
-5.6892e-05
1.58504e-05
7.49308e-05
0.000121234
0.000155391
0.000177884
0.00018905
-0.0895494
-0.0855117
-0.0807801
-0.0749066
-0.0688005
-0.0628958
-0.0571235
-0.0516752
-0.0465812
-0.0418682
-0.0375385
-0.0335855
-0.0299929
-0.0267402
-0.0238042
-0.0211607
-0.0187852
-0.0166543
-0.0147454
-0.0130376
-0.0115112
-0.0101481
-0.0089319
-0.00784741
-0.00688101
-0.00602036
-0.00525433
-0.00457291
-0.00396709
-0.00342885
-0.00295094
-0.00252694
-0.0021511
-0.00181827
-0.00152392
-0.00126399
-0.00103489
-0.000833453
-0.000656887
-0.000502769
-0.000368766
-0.00025303
-0.000153951
-7.01295e-05
-3.97632e-07
5.62489e-05
0.000100633
0.00013338
0.00015495
0.000165657
-0.0803269
-0.0775271
-0.0739486
-0.0690518
-0.0637913
-0.0585842
-0.0533974
-0.0484477
-0.0437787
-0.0394298
-0.0354135
-0.0317311
-0.0283732
-0.0253244
-0.022566
-0.0200775
-0.0178376
-0.0158254
-0.0140207
-0.0124043
-0.0109582
-0.00966589
-0.00851191
-0.0074823
-0.0065643
-0.00574634
-0.005018
-0.00436984
-0.00379341
-0.0032811
-0.00282611
-0.00242233
-0.00206432
-0.00174723
-0.00146674
-0.00121901
-0.00100063
-0.000808592
-0.000640237
-0.000493236
-0.000365436
-0.000255055
-0.000160555
-8.06026e-05
-1.40785e-05
3.99676e-05
8.23111e-05
0.000113554
0.000134136
0.000144353
-0.0715813
-0.0698844
-0.0673392
-0.0633337
-0.0588562
-0.054303
-0.0496727
-0.0452021
-0.0409452
-0.0369525
-0.0332452
-0.0298317
-0.0267083
-0.0238644
-0.0212854
-0.0189542
-0.0168524
-0.0149616
-0.0132637
-0.0117414
-0.0103783
-0.00915911
-0.00806968
-0.00709706
-0.0062294
-0.00545593
-0.00476691
-0.00415351
-0.00360781
-0.00312266
-0.00269167
-0.0023091
-0.00196983
-0.00166927
-0.00140336
-0.00116846
-0.000961365
-0.000779221
-0.000619516
-0.000480032
-0.000358771
-0.000254033
-0.000164358
-8.84851e-05
-2.53483e-05
2.59493e-05
6.61385e-05
9.57922e-05
0.000115329
0.000125027
-0.0633483
-0.0626138
-0.0609766
-0.0577729
-0.0540118
-0.0500655
-0.0459601
-0.0419472
-0.0380881
-0.0344425
-0.0310389
-0.0278916
-0.0250019
-0.0223634
-0.0199652
-0.0177932
-0.0158317
-0.0140648
-0.0124762
-0.0110505
-0.00977265
-0.00862885
-0.00760611
-0.00669248
-0.00587702
-0.00514974
-0.0045016
-0.00392439
-0.0034107
-0.00295389
-0.00254797
-0.00218756
-0.00186788
-0.00158462
-0.00133397
-0.00111252
-0.00091725
-0.000745485
-0.000594856
-0.000463275
-0.000348879
-0.000250068
-0.000165461
-9.38708e-05
-3.42935e-05
1.41148e-05
5.2041e-05
8.00248e-05
9.8462e-05
0.000107615
-0.0556487
-0.0557381
-0.054885
-0.0523913
-0.0492779
-0.0458892
-0.0422751
-0.0386965
-0.0352193
-0.0319102
-0.0288038
-0.025919
-0.0232612
-0.0208278
-0.018611
-0.0165994
-0.01478
-0.0131388
-0.0116616
-0.0103344
-0.00914394
-0.00807752
-0.00712334
-0.00627046
-0.00550884
-0.00482927
-0.0042234
-0.00368365
-0.00320315
-0.00277573
-0.00239582
-0.00205844
-0.00175912
-0.00149386
-0.00125909
-0.00105164
-0.000868696
-0.000707747
-0.000566585
-0.000443254
-0.000336025
-0.000243399
-0.000164082
-9.69646e-05
-4.11049e-05
4.2853e-06
3.98483e-05
6.60887e-05
8.33778e-05
9.19619e-05
-0.0484949
-0.0492676
-0.049073
-0.047197
-0.0446613
-0.04178
-0.0386229
-0.0354543
-0.0323424
-0.0293589
-0.0265426
-0.0239161
-0.0214883
-0.0192594
-0.0172243
-0.0153743
-0.0136984
-0.0121847
-0.0108207
-0.00959412
-0.00849292
-0.00750576
-0.00662193
-0.0058315
-0.0051253
-0.00449491
-0.00393267
-0.00343161
-0.00298543
-0.00258842
-0.00223546
-0.00192194
-0.00164374
-0.00139714
-0.00117887
-0.000985963
-0.000815817
-0.000666113
-0.000534796
-0.000420053
-0.000320283
-0.000234094
-0.000160286
-9.78268e-05
-4.58401e-05
-3.59473e-06
2.95057e-05
5.39298e-05
7.00222e-05
7.80121e-05
-0.0418835
-0.0432085
-0.0435534
-0.0422043
-0.0401769
-0.0377526
-0.0350172
-0.0322335
-0.0294692
-0.0267994
-0.0242653
-0.0218921
-0.0196913
-0.0176654
-0.0158118
-0.0141237
-0.0125923
-0.0112073
-0.00995793
-0.00883337
-0.00782298
-0.00691659
-0.0061046
-0.00537801
-0.00472855
-0.00414857
-0.0036311
-0.00316979
-0.00275888
-0.00239316
-0.00206794
-0.00177901
-0.00152257
-0.00129523
-0.00109397
-0.000916076
-0.000759151
-0.000621062
-0.000499919
-0.000394054
-0.000301997
-0.000222468
-0.000154358
-9.67173e-05
-4.87388e-05
-9.74887e-06
2.0802e-05
4.33455e-05
5.8199e-05
6.55746e-05
-0.0358131
-0.0375551
-0.0383192
-0.0374078
-0.0358204
-0.0338043
-0.0314561
-0.0290325
-0.0265986
-0.0242307
-0.021971
-0.0198463
-0.0178696
-0.0160455
-0.0143731
-0.0128474
-0.0114613
-0.0102063
-0.009073
-0.00805202
-0.007134
-0.00630992
-0.00557123
-0.00490991
-0.00431852
-0.00379019
-0.00331864
-0.00289813
-0.00252347
-0.00218992
-0.00189326
-0.00162963
-0.00139561
-0.00118812
-0.0010044
-0.000841985
-0.000698701
-0.0005726
-0.000461963
-0.000365269
-0.000281181
-0.000208531
-0.00014631
-9.36507e-05
-4.9816e-05
-1.41922e-05
1.3722e-05
3.43204e-05
4.78925e-05
5.46309e-05
-0.0302584
-0.0323002
-0.0333754
-0.032817
-0.0316044
-0.0299488
-0.0279538
-0.0258654
-0.0237441
-0.0216655
-0.0196718
-0.0177898
-0.0160336
-0.014409
-0.0129166
-0.011553
-0.0103125
-0.009188
-0.00817158
-0.00725513
-0.00643049
-0.00568979
-0.00502547
-0.00443044
-0.0038981
-0.00342236
-0.0029976
-0.0026187
-0.00228102
-0.00198034
-0.00171284
-0.00147509
-0.00126401
-0.00107682
-0.000911056
-0.000764501
-0.000635191
-0.000521376
-0.000421507
-0.000334217
-0.000258301
-0.000192708
-0.000136527
-8.8978e-05
-4.93954e-05
-1.72257e-05
7.98246e-06
2.65845e-05
3.88413e-05
4.49278e-05
-0.0252147
-0.0274245
-0.0286984
-0.0284119
-0.0275119
-0.0261724
-0.0244988
-0.0227224
-0.0208973
-0.0190969
-0.0173614
-0.0157172
-0.0141785
-0.0127519
-0.011439
-0.0102375
-0.00914312
-0.00815001
-0.00725155
-0.00644083
-0.00571084
-0.00505475
-0.00446602
-0.00393847
-0.00346631
-0.00304419
-0.00266719
-0.00233081
-0.00203095
-0.00176388
-0.00152624
-0.00131499
-0.0011274
-0.000961028
-0.000813675
-0.000683384
-0.00056841
-0.000467205
-0.000378392
-0.000300758
-0.000233236
-0.000174892
-0.000124918
-8.26196e-05
-4.74067e-05
-1.87873e-05
3.63949e-06
2.01893e-05
3.1094e-05
3.65076e-05
-0.0206307
-0.0229101
-0.0242903
-0.0242018
-0.0235573
-0.0224923
-0.0211092
-0.0196218
-0.0180764
-0.0165422
-0.0150564
-0.013644
-0.0123186
-0.0110872
-0.00995195
-0.00891166
-0.00796298
-0.00710122
-0.00632094
-0.00561634
-0.00498151
-0.00441063
-0.00389812
-0.00343866
-0.00302729
-0.00265941
-0.00233075
-0.00203742
-0.00177588
-0.00154289
-0.00133553
-0.00115118
-0.000987446
-0.00084221
-0.000713562
-0.000599797
-0.000499398
-0.000411012
-0.000333443
-0.000265632
-0.000206649
-0.000155682
-0.000112023
-7.50684e-05
-4.43031e-05
-1.92975e-05
2.97938e-07
1.47586e-05
2.42869e-05
2.9019e-05
-0.0165124
-0.0187247
-0.0201091
-0.0201491
-0.0197076
-0.01888
-0.0177605
-0.0165423
-0.0152627
-0.013985
-0.0127423
-0.0115572
-0.0104425
-0.00940487
-0.00844678
-0.00756769
-0.00676514
-0.00603547
-0.00537428
-0.00477682
-0.0042382
-0.0037536
-0.00331835
-0.002928
-0.0025784
-0.00226565
-0.00198617
-0.00173668
-0.00151417
-0.00131592
-0.00113945
-0.000982527
-0.000843142
-0.000719486
-0.000609942
-0.00051306
-0.000427553
-0.00035227
-0.000286195
-0.000228429
-0.00017818
-0.000134757
-9.7559e-05
-6.60719e-05
-3.98574e-05
-1.85501e-05
-1.85227e-06
1.04703e-05
1.85897e-05
2.26193e-05
-0.0127663
-0.0148417
-0.0161602
-0.016269
-0.0159857
-0.0153621
-0.0144801
-0.0135118
-0.0124835
-0.0114515
-0.0104439
-0.00948027
-0.00857184
-0.00772476
-0.00694152
-0.00622202
-0.00556454
-0.00496626
-0.00442374
-0.00393321
-0.00349075
-0.00309248
-0.00273463
-0.00241358
-0.00212595
-0.00186856
-0.0016385
-0.00143307
-0.00124983
-0.00108653
-0.00094115
-0.000811855
-0.000696993
-0.000595082
-0.00050479
-0.000424928
-0.000354435
-0.000292366
-0.000237885
-0.000190251
-0.000148813
-0.000113003
-8.23247e-05
-5.63552e-05
-3.47336e-05
-1.7159e-05
-3.38588e-06
6.7785e-06
1.3476e-05
1.68029e-05
-0.00943031
-0.0112146
-0.0123792
-0.0124999
-0.0123363
-0.0118888
-0.0112233
-0.0104904
-0.00970327
-0.00890987
-0.00813265
-0.00738757
-0.00668374
-0.00602646
-0.00541797
-0.00485843
-0.00434666
-0.00388064
-0.00345778
-0.00307524
-0.00273002
-0.00241915
-0.00213972
-0.00188895
-0.00166421
-0.00146306
-0.00128322
-0.0011226
-0.000979305
-0.000851583
-0.000737857
-0.000636701
-0.000546827
-0.000467077
-0.000396414
-0.000333906
-0.000278727
-0.000230139
-0.000187488
-0.000150194
-0.00011775
-8.97098e-05
-6.5688e-05
-4.53522e-05
-2.84206e-05
-1.46578e-05
-3.87168e-06
4.08853e-06
9.33361e-06
1.19347e-05
-0.00634037
-0.00781437
-0.00878358
-0.00887263
-0.00880199
-0.00850476
-0.00803562
-0.00752419
-0.00696607
-0.00640217
-0.00584811
-0.00531581
-0.00481209
-0.00434105
-0.00390449
-0.00350268
-0.00313488
-0.00279974
-0.00249546
-0.00222004
-0.00197139
-0.00174739
-0.00154598
-0.00136516
-0.00120307
-0.00105796
-0.000928186
-0.000812266
-0.000708824
-0.000616611
-0.000534491
-0.000461438
-0.000396523
-0.000338914
-0.000287864
-0.000242701
-0.00020283
-0.000167718
-0.000136893
-0.000109939
-8.64881e-05
-6.62195e-05
-4.88544e-05
-3.41533e-05
-2.19127e-05
-1.19625e-05
-4.16419e-06
1.59119e-06
5.38394e-06
7.27023e-06
-0.00360304
-0.00458051
-0.00527118
-0.00529154
-0.00529094
-0.0051223
-0.0048381
-0.00454058
-0.00420557
-0.00386827
-0.00353575
-0.00321573
-0.00291242
-0.00262848
-0.00236508
-0.00212244
-0.00190021
-0.00169758
-0.00151352
-0.00134685
-0.00119631
-0.00106065
-0.000938636
-0.000829066
-0.000730822
-0.000642844
-0.000564155
-0.000493851
-0.000431105
-0.000375161
-0.000325333
-0.000281001
-0.000241604
-0.000206636
-0.000175647
-0.000148229
-0.000124021
-0.000102701
-8.39828e-05
-6.7614e-05
-5.33716e-05
-4.10613e-05
-3.05139e-05
-2.15842e-05
-1.41486e-05
-8.10429e-06
-3.36698e-06
1.29481e-07
2.43359e-06
3.57438e-06
-0.000970697
-0.00150793
-0.00187101
-0.00182779
-0.00187352
-0.00181268
-0.00170606
-0.00161072
-0.00149004
-0.00137264
-0.00125556
-0.00114282
-0.00103574
-0.000935399
-0.000842212
-0.000756288
-0.000677522
-0.000605656
-0.000540331
-0.000481147
-0.000427663
-0.000379442
-0.000336052
-0.000297071
-0.000262107
-0.000230785
-0.000202762
-0.000177716
-0.000155356
-0.000135414
-0.000117647
-0.000101836
-8.77809e-05
-7.53029e-05
-6.42418e-05
-5.44528e-05
-4.58082e-05
-3.8193e-05
-3.15056e-05
-2.56564e-05
-2.05659e-05