/*--------------------------------*- C++ -*----------------------------------*\
  =========                 |
  \\      /  F ield         | OpenFOAM: The Open Source CFD Toolbox
   \\    /   O peration     | Website:  https://openfoam.org
    \\  /    A nd           | Version:  7
     \\/     M anipulation  |
\*---------------------------------------------------------------------------*/
FoamFile
{
    version     2.0;
    format      ascii;
    class       volVectorField;
    location    "35";
    object      U;
}
// * * * * * * * * * * * * * * * * * * * * * * * * * * * * * * * * * * * * * //

dimensions      [0 1 -1 0 0 0 0];

internalField   nonuniform List<vector> 
3312
(
(0.329501 -0.0557522 -2.22018e-19)
(0.176494 -0.0306667 -4.74984e-20)
(0.231068 -0.042644 -2.13328e-19)
(0.110505 -0.0294726 7.02678e-19)
(0.150862 -0.0383997 -3.47263e-19)
(0.0353509 -0.0322051 2.93686e-19)
(0.0605483 -0.0315554 5.59726e-19)
(0.089104 -0.038923 -3.10029e-19)
(-0.0088694 -0.037893 -1.87587e-19)
(0.00563217 -0.0347679 -3.80685e-20)
(0.0231693 -0.0347327 7.54341e-20)
(0.0426172 -0.0409889 5.07953e-19)
(-0.025703 -0.0391971 2.39719e-19)
(-0.0163821 -0.0369455 1.42115e-19)
(-0.00498239 -0.037357 -3.68274e-19)
(0.00761958 -0.0425883 1.12547e-19)
(-0.0419094 -0.0420315 3.03305e-19)
(-0.0381681 -0.0393955 -2.5155e-19)
(-0.0329782 -0.037851 -6.21132e-20)
(-0.0264317 -0.0383843 6.44975e-20)
(-0.0188742 -0.0423584 3.17512e-19)
(-0.0484957 -0.0401142 -1.88903e-19)
(-0.0476195 -0.0381542 -3.72375e-19)
(-0.0456839 -0.0371363 3.01088e-19)
(-0.0427406 -0.0377073 -1.77903e-19)
(-0.0393903 -0.0404814 1.97418e-19)
(-0.0511777 -0.0385785 6.94498e-21)
(-0.0535078 -0.036799 -3.42086e-20)
(-0.0549712 -0.0353728 7.1008e-21)
(-0.055679 -0.034712 1.42002e-19)
(-0.055708 -0.0352486 -1.2621e-20)
(-0.055728 -0.0373101 -2.0931e-20)
(-0.0534079 -0.033451 -2.13236e-20)
(-0.057384 -0.0321371 -3.00026e-20)
(-0.0607406 -0.0311134 -6.78095e-22)
(-0.0635786 -0.0306752 -8.79094e-20)
(-0.0659967 -0.0311025 2.7847e-20)
(-0.0685471 -0.0325707 -1.67169e-19)
(-0.0550783 -0.0272268 -4.80711e-21)
(-0.0603563 -0.0262879 3.33774e-19)
(-0.0651985 -0.0255684 -1.10445e-19)
(-0.069695 -0.0252711 -1.14904e-19)
(-0.0739507 -0.0255702 -1.06504e-19)
(-0.0783808 -0.0265598 1.0329e-19)
(-0.0562894 -0.0201074 1.43352e-20)
(-0.0625385 -0.0194778 -6.14716e-20)
(-0.0684805 -0.0189991 -1.09745e-19)
(-0.0741953 -0.0188021 4.15855e-20)
(-0.0797863 -0.0189903 2.12516e-19)
(-0.0855645 -0.0196155 -4.32203e-20)
(-0.057085 -0.0123302 -1.87169e-21)
(-0.0639796 -0.0119677 -3.56085e-20)
(-0.0706487 -0.0116926 1.31803e-19)
(-0.0771641 -0.0115785 1.44118e-20)
(-0.0836264 -0.0116798 -1.87066e-20)
(-0.0902809 -0.0120233 1.67763e-20)
(-0.0500513 -0.00426965 -1.91059e-20)
(-0.0574806 -0.00415209 -3.11302e-20)
(-0.0646976 -0.00403354 7.44594e-22)
(-0.0717285 -0.00394359 -2.25977e-20)
(-0.0786409 -0.00390587 1.42656e-20)
(-0.0855335 -0.00393743 -8.35549e-21)
(-0.0926208 -0.00404667 -2.65992e-20)
(1.03732 -0.136499 0)
(1.19889 -0.149779 0)
(1.21032 -0.14849 0)
(1.1894 -0.134055 0)
(1.16914 -0.117839 0)
(1.15152 -0.104438 0)
(1.13613 -0.0917769 0)
(1.1225 -0.0807756 0)
(1.11029 -0.071147 0)
(1.09931 -0.0627745 0)
(1.08943 -0.05549 0)
(1.08051 -0.0491519 0)
(1.07247 -0.0436223 0)
(1.06521 -0.0387908 0)
(1.05866 -0.0345574 0)
(1.05277 -0.0308406 0)
(1.04746 -0.027567 0)
(1.04269 -0.0246803 0)
(1.0384 -0.0221251 0)
(1.03454 -0.0198609 0)
(1.03108 -0.0178525 0)
(1.02798 -0.016064 0)
(1.02519 -0.0144714 0)
(1.02269 -0.0130483 0)
(1.02045 -0.0117755 0)
(1.01844 -0.0106345 0)
(1.01664 -0.00960995 0)
(1.01503 -0.00868819 0)
(1.01358 -0.00785741 0)
(1.01229 -0.0071071 0)
(1.01113 -0.00642826 0)
(1.0101 -0.00581254 0)
(1.00918 -0.00525323 0)
(1.00836 -0.0047434 0)
(1.00762 -0.00427802 0)
(1.00697 -0.0038517 0)
(1.00639 -0.00345955 0)
(1.00587 -0.00309821 0)
(1.00542 -0.00276349 0)
(1.00502 -0.00245256 0)
(1.00467 -0.00216226 0)
(1.00437 -0.00189003 0)
(1.00411 -0.00163336 0)
(1.00389 -0.00139005 0)
(1.0037 -0.00115792 0)
(1.00355 -0.00093515 0)
(1.00343 -0.000719771 0)
(1.00334 -0.000510076 0)
(1.00328 -0.000304531 0)
(1.00325 -0.000101363 0)
(1.00831 -0.118594 0)
(1.20104 -0.141121 0)
(1.21705 -0.138835 0)
(1.19801 -0.1252 0)
(1.17723 -0.110776 0)
(1.15864 -0.0988106 0)
(1.14234 -0.0872432 0)
(1.12785 -0.0770534 0)
(1.1149 -0.0680536 0)
(1.10329 -0.0601749 0)
(1.09287 -0.0532839 0)
(1.08349 -0.0472637 0)
(1.07506 -0.0419948 0)
(1.06747 -0.03738 0)
(1.06064 -0.0333287 0)
(1.0545 -0.0297663 0)
(1.04898 -0.0266248 0)
(1.04403 -0.0238519 0)
(1.03958 -0.0213955 0)
(1.03559 -0.0192173 0)
(1.032 -0.0172837 0)
(1.02879 -0.0155608 0)
(1.02592 -0.0140257 0)
(1.02334 -0.0126533 0)
(1.02102 -0.0114253 0)
(1.01895 -0.0103239 0)
(1.0171 -0.00933444 0)
(1.01544 -0.00844381 0)
(1.01395 -0.00764068 0)
(1.01262 -0.00691496 0)
(1.01143 -0.00625799 0)
(1.01037 -0.00566175 0)
(1.00942 -0.00511977 0)
(1.00858 -0.00462541 0)
(1.00782 -0.00417379 0)
(1.00715 -0.00375977 0)
(1.00656 -0.00337867 0)
(1.00603 -0.00302724 0)
(1.00557 -0.00270143 0)
(1.00516 -0.00239854 0)
(1.0048 -0.0021155 0)
(1.00449 -0.00184986 0)
(1.00422 -0.00159919 0)
(1.00399 -0.00136139 0)
(1.0038 -0.00113435 0)
(1.00364 -0.000916319 0)
(1.00352 -0.000705409 0)
(1.00343 -0.000499967 0)
(1.00337 -0.000298508 0)
(1.00334 -9.93525e-05 0)
(0.987309 -0.103907 0)
(1.19868 -0.131917 0)
(1.22047 -0.12901 0)
(1.2033 -0.116407 0)
(1.18285 -0.10355 0)
(1.16399 -0.0929024 0)
(1.14719 -0.0824016 0)
(1.13214 -0.0730401 0)
(1.11867 -0.0647021 0)
(1.10659 -0.0573511 0)
(1.09575 -0.0508845 0)
(1.08601 -0.0452096 0)
(1.07726 -0.0402252 0)
(1.06939 -0.0358472 0)
(1.06233 -0.0319951 0)
(1.05598 -0.0286016 0)
(1.05029 -0.0256045 0)
(1.04518 -0.0229557 0)
(1.0406 -0.0206068 0)
(1.03649 -0.018522 0)
(1.03281 -0.0166697 0)
(1.02951 -0.015018 0)
(1.02656 -0.0135453 0)
(1.02391 -0.0122278 0)
(1.02154 -0.0110481 0)
(1.01941 -0.00998947 0)
(1.01751 -0.00903785 0)
(1.01581 -0.00818077 0)
(1.01429 -0.0074074 0)
(1.01293 -0.00670813 0)
(1.01171 -0.00607467 0)
(1.01062 -0.00549937 0)
(1.00965 -0.00497602 0)
(1.00879 -0.00449827 0)
(1.00801 -0.00406146 0)
(1.00733 -0.00366067 0)
(1.00672 -0.00329145 0)
(1.00618 -0.00295066 0)
(1.0057 -0.00263444 0)
(1.00528 -0.00234018 0)
(1.00492 -0.00206496 0)
(1.0046 -0.00180642 0)
(1.00432 -0.00156223 0)
(1.00409 -0.00133036 0)
(1.0039 -0.00110883 0)
(1.00374 -0.00089592 0)
(1.00361 -0.000689845 0)
(1.00352 -0.00048901 0)
(1.00346 -0.000291984 0)
(1.00343 -9.71785e-05 0)
(0.965316 -0.090741 0)
(1.19413 -0.121982 0)
(1.22213 -0.119119 0)
(1.20686 -0.107777 0)
(1.18699 -0.0963863 0)
(1.16817 -0.0869055 0)
(1.15111 -0.077388 0)
(1.13571 -0.0688368 0)
(1.12186 -0.0611669 0)
(1.10942 -0.054359 0)
(1.09824 -0.048335 0)
(1.0882 -0.0430233 0)
(1.07919 -0.0383402 0)
(1.07109 -0.0342141 0)
(1.06383 -0.0305743 0)
(1.05731 -0.0273611 0)
(1.05146 -0.0245183 0)
(1.04622 -0.022002 0)
(1.04152 -0.0197679 0)
(1.03731 -0.0177827 0)
(1.03354 -0.0160171 0)
(1.03016 -0.0144411 0)
(1.02714 -0.0130348 0)
(1.02443 -0.0117757 0)
(1.02201 -0.0106475 0)
(1.01983 -0.00963428 0)
(1.01789 -0.00872284 0)
(1.01615 -0.00790135 0)
(1.0146 -0.00715957 0)
(1.01321 -0.00648834 0)
(1.01197 -0.00587981 0)
(1.01085 -0.00532669 0)
(1.00986 -0.00482309 0)
(1.00898 -0.00436296 0)
(1.00819 -0.00394186 0)
(1.00749 -0.00355511 0)
(1.00687 -0.00319849 0)
(1.00632 -0.002869 0)
(1.00583 -0.00256297 0)
(1.00541 -0.00227789 0)
(1.00503 -0.00201098 0)
(1.00471 -0.00175998 0)
(1.00443 -0.00152269 0)
(1.00419 -0.00129717 0)
(1.00399 -0.0010815 0)
(1.00383 -0.000874073 0)
(1.0037 -0.00067317 0)
(1.00361 -0.000477268 0)
(1.00355 -0.000284995 0)
(1.00351 -9.48508e-05 0)
(0.942427 -0.0787689 0)
(1.1888 -0.111812 0)
(1.22325 -0.109228 0)
(1.20988 -0.099294 0)
(1.19054 -0.0893048 0)
(1.17177 -0.0808754 0)
(1.15453 -0.072265 0)
(1.13886 -0.064497 0)
(1.12471 -0.0574905 0)
(1.11197 -0.0512317 0)
(1.10051 -0.0456608 0)
(1.09022 -0.0407248 0)
(1.08097 -0.0363556 0)
(1.07267 -0.0324934 0)
(1.06522 -0.0290767 0)
(1.05854 -0.0260533 0)
(1.05256 -0.0233731 0)
(1.04719 -0.0209966 0)
(1.04239 -0.0188836 0)
(1.03808 -0.0170034 0)
(1.03423 -0.0153292 0)
(1.03078 -0.0138332 0)
(1.02769 -0.0124969 0)
(1.02492 -0.0112993 0)
(1.02245 -0.0102253 0)
(1.02023 -0.00925996 0)
(1.01825 -0.00839082 0)
(1.01648 -0.0076068 0)
(1.01489 -0.00689824 0)
(1.01348 -0.00625651 0)
(1.01221 -0.0056742 0)
(1.01108 -0.00514442 0)
(1.01007 -0.0046616 0)
(1.00917 -0.00422002 0)
(1.00836 -0.00381545 0)
(1.00765 -0.00344349 0)
(1.00702 -0.00310015 0)
(1.00646 -0.00278257 0)
(1.00596 -0.00248727 0)
(1.00553 -0.00221188 0)
(1.00514 -0.00195374 0)
(1.00481 -0.00171073 0)
(1.00453 -0.00148073 0)
(1.00429 -0.00126192 0)
(1.00408 -0.00105248 0)
(1.00392 -0.000850858 0)
(1.00379 -0.000655445 0)
(1.00369 -0.000464784 0)
(1.00363 -0.000277565 0)
(1.0036 -9.23773e-05 0)
(0.920724 -0.0676299 0)
(1.18344 -0.101744 0)
(1.22433 -0.099377 0)
(1.21285 -0.0909066 0)
(1.19391 -0.0822509 0)
(1.1751 -0.0747966 0)
(1.15768 -0.0670466 0)
(1.14177 -0.060042 0)
(1.12737 -0.0536933 0)
(1.11436 -0.0479858 0)
(1.10265 -0.0428753 0)
(1.09212 -0.0383249 0)
(1.08266 -0.0342801 0)
(1.07417 -0.0306919 0)
(1.06655 -0.0275077 0)
(1.05972 -0.0246827 0)
(1.0536 -0.0221725 0)
(1.04812 -0.0199425 0)
(1.04322 -0.0179562 0)
(1.03882 -0.0161862 0)
(1.03489 -0.0146078 0)
(1.03137 -0.0131956 0)
(1.02822 -0.0119327 0)
(1.0254 -0.0107997 0)
(1.02288 -0.00978253 0)
(1.02062 -0.00886729 0)
(1.0186 -0.00804248 0)
(1.01679 -0.0072977 0)
(1.01518 -0.00662394 0)
(1.01374 -0.00601312 0)
(1.01245 -0.00545828 0)
(1.01129 -0.00495294 0)
(1.01026 -0.00449189 0)
(1.00935 -0.00406974 0)
(1.00853 -0.00368251 0)
(1.0078 -0.00332605 0)
(1.00716 -0.00299664 0)
(1.00659 -0.00269156 0)
(1.00608 -0.00240752 0)
(1.00564 -0.0021423 0)
(1.00525 -0.00189338 0)
(1.00492 -0.00165876 0)
(1.00463 -0.00143644 0)
(1.00438 -0.0012247 0)
(1.00417 -0.00102181 0)
(1.004 -0.000826327 0)
(1.00387 -0.00063671 0)
(1.00377 -0.000451586 0)
(1.00371 -0.000269712 0)
(1.00368 -8.97639e-05 0)
(0.901442 -0.057202 0)
(1.17827 -0.0918533 0)
(1.22539 -0.0895764 0)
(1.21577 -0.0825674 0)
(1.19716 -0.0751702 0)
(1.17824 -0.0686405 0)
(1.16062 -0.0617299 0)
(1.14449 -0.0554801 0)
(1.12985 -0.049786 0)
(1.1166 -0.0446314 0)
(1.10466 -0.0399874 0)
(1.09391 -0.0358311 0)
(1.08426 -0.03212 0)
(1.07559 -0.0288147 0)
(1.06781 -0.0258715 0)
(1.06085 -0.0232524 0)
(1.0546 -0.0209192 0)
(1.04902 -0.0188417 0)
(1.04401 -0.0169877 0)
(1.03953 -0.0153326 0)
(1.03553 -0.0138541 0)
(1.03194 -0.0125295 0)
(1.02873 -0.0113432 0)
(1.02586 -0.0102776 0)
(1.02329 -0.00931976 0)
(1.02099 -0.00845686 0)
(1.01894 -0.00767833 0)
(1.0171 -0.00697453 0)
(1.01545 -0.0063371 0)
(1.01398 -0.00575853 0)
(1.01267 -0.00523235 0)
(1.0115 -0.00475254 0)
(1.01045 -0.00431421 0)
(1.00952 -0.00391236 0)
(1.00869 -0.00354323 0)
(1.00795 -0.00320299 0)
(1.0073 -0.00288813 0)
(1.00671 -0.00259611 0)
(1.0062 -0.00232386 0)
(1.00575 -0.00206928 0)
(1.00536 -0.00183001 0)
(1.00501 -0.00160418 0)
(1.00472 -0.00138991 0)
(1.00447 -0.00118558 0)
(1.00426 -0.000989579 0)
(1.00409 -0.000800531 0)
(1.00395 -0.000617005 0)
(1.00385 -0.000437703 0)
(1.00379 -0.000261451 0)
(1.00376 -8.7016e-05 0)
(0.884751 -0.0474779 0)
(1.17329 -0.082094 0)
(1.22627 -0.0798117 0)
(1.21847 -0.0742511 0)
(1.20015 -0.0680375 0)
(1.18111 -0.0623942 0)
(1.1633 -0.0563154 0)
(1.14697 -0.0508194 0)
(1.13212 -0.0457786 0)
(1.11867 -0.0411787 0)
(1.10652 -0.0370065 0)
(1.09558 -0.0332515 0)
(1.08575 -0.0298819 0)
(1.07692 -0.0268674 0)
(1.069 -0.0241726 0)
(1.0619 -0.0217664 0)
(1.05555 -0.0196164 0)
(1.04986 -0.0176971 0)
(1.04476 -0.0159803 0)
(1.0402 -0.0144444 0)
(1.03613 -0.0130699 0)
(1.03248 -0.0118362 0)
(1.02921 -0.0107296 0)
(1.02629 -0.00973407 0)
(1.02368 -0.00883793 0)
(1.02134 -0.00802948 0)
(1.01925 -0.00729907 0)
(1.01739 -0.00663789 0)
(1.01572 -0.00603824 0)
(1.01422 -0.00549322 0)
(1.01289 -0.00499686 0)
(1.0117 -0.0045436 0)
(1.01063 -0.00412892 0)
(1.00969 -0.00374818 0)
(1.00884 -0.00339791 0)
(1.00809 -0.00307454 0)
(1.00743 -0.00277484 0)
(1.00684 -0.00249642 0)
(1.00632 -0.00223645 0)
(1.00586 -0.00199296 0)
(1.00546 -0.00176376 0)
(1.00511 -0.0015471 0)
(1.00481 -0.00134123 0)
(1.00455 -0.00114465 0)
(1.00434 -0.000955839 0)
(1.00417 -0.000773525 0)
(1.00403 -0.000596371 0)
(1.00393 -0.000423163 0)
(1.00386 -0.0002528 0)
(1.00383 -8.41395e-05 0)
(0.870331 -0.0384366 0)
(1.16839 -0.0723941 0)
(1.2268 -0.0700705 0)
(1.22078 -0.0659522 0)
(1.20277 -0.060853 0)
(1.18364 -0.0560641 0)
(1.16567 -0.0508143 0)
(1.14918 -0.0460728 0)
(1.13416 -0.0416841 0)
(1.12053 -0.03764 0)
(1.1082 -0.0339437 0)
(1.09709 -0.0305959 0)
(1.08711 -0.0275742 0)
(1.07814 -0.024857 0)
(1.07009 -0.0224169 0)
(1.06288 -0.0202295 0)
(1.05642 -0.0182683 0)
(1.05063 -0.0165121 0)
(1.04546 -0.0149369 0)
(1.04083 -0.0135243 0)
(1.03668 -0.0122572 0)
(1.03298 -0.0111177 0)
(1.02966 -0.0100936 0)
(1.0267 -0.00917052 0)
(1.02405 -0.00833826 0)
(1.02167 -0.00758619 0)
(1.01955 -0.00690564 0)
(1.01766 -0.0062886 0)
(1.01596 -0.00572809 0)
(1.01445 -0.00521783 0)
(1.01309 -0.00475237 0)
(1.01188 -0.00432662 0)
(1.01081 -0.00393645 0)
(1.00984 -0.0035776 0)
(1.00899 -0.00324688 0)
(1.00823 -0.00294101 0)
(1.00755 -0.00265703 0)
(1.00695 -0.00239273 0)
(1.00642 -0.0021455 0)
(1.00596 -0.00191353 0)
(1.00555 -0.00169479 0)
(1.0052 -0.00148766 0)
(1.0049 -0.00129053 0)
(1.00464 -0.001102 0)
(1.00442 -0.000920676 0)
(1.00425 -0.000745375 0)
(1.00411 -0.00057486 0)
(1.00401 -0.000408003 0)
(1.00394 -0.00024378 0)
(1.0039 -8.11412e-05 0)
(0.857855 -0.0299652 0)
(1.16351 -0.0626979 0)
(1.22688 -0.0603498 0)
(1.22263 -0.0576807 0)
(1.20494 -0.0536277 0)
(1.18576 -0.0496687 0)
(1.16768 -0.0452465 0)
(1.15108 -0.0412585 0)
(1.13592 -0.0375184 0)
(1.12215 -0.0340297 0)
(1.10968 -0.0308121 0)
(1.09844 -0.0278756 0)
(1.08832 -0.0252066 0)
(1.07923 -0.0227916 0)
(1.07107 -0.0206113 0)
(1.06376 -0.0186477 0)
(1.05721 -0.0168797 0)
(1.05134 -0.0152909 0)
(1.04609 -0.0138611 0)
(1.0414 -0.0125752 0)
(1.0372 -0.0114187 0)
(1.03344 -0.010376 0)
(1.03008 -0.00943691 0)
(1.02707 -0.00858862 0)
(1.02438 -0.00782222 0)
(1.02198 -0.00712829 0)
(1.01983 -0.00649915 0)
(1.01791 -0.00592764 0)
(1.01619 -0.00540751 0)
(1.01465 -0.00493311 0)
(1.01328 -0.00449954 0)
(1.01206 -0.00410218 0)
(1.01097 -0.00373731 0)
(1.00999 -0.00340106 0)
(1.00912 -0.00309053 0)
(1.00835 -0.00280275 0)
(1.00767 -0.00253501 0)
(1.00706 -0.00228531 0)
(1.00653 -0.00205125 0)
(1.00606 -0.00183119 0)
(1.00564 -0.00162327 0)
(1.00529 -0.001426 0)
(1.00498 -0.00123792 0)
(1.00472 -0.00105774 0)
(1.0045 -0.000884181 0)
(1.00432 -0.000716154 0)
(1.00418 -0.000552526 0)
(1.00408 -0.000392261 0)
(1.00401 -0.000234415 0)
(1.00397 -7.80286e-05 0)
(0.847114 -0.0219469 0)
(1.15865 -0.0529669 0)
(1.22653 -0.0506635 0)
(1.22402 -0.0494508 0)
(1.20665 -0.0463734 0)
(1.18745 -0.0432298 0)
(1.16933 -0.0396355 0)
(1.15266 -0.0363969 0)
(1.13741 -0.0332992 0)
(1.12353 -0.0303637 0)
(1.11095 -0.0276256 0)
(1.0996 -0.0251026 0)
(1.08938 -0.0227891 0)
(1.08018 -0.02068 0)
(1.07194 -0.0187631 0)
(1.06454 -0.017027 0)
(1.05791 -0.015456 0)
(1.05198 -0.0140379 0)
(1.04666 -0.0127568 0)
(1.04191 -0.0116005 0)
(1.03766 -0.0105572 0)
(1.03386 -0.00961381 0)
(1.03046 -0.0087618 0)
(1.02741 -0.0079902 0)
(1.02469 -0.00729139 0)
(1.02226 -0.00665715 0)
(1.02008 -0.00608081 0)
(1.01814 -0.00555606 0)
(1.0164 -0.00507742 0)
(1.01485 -0.00463987 0)
(1.01346 -0.00423908 0)
(1.01222 -0.00387091 0)
(1.01112 -0.00353206 0)
(1.01013 -0.00321905 0)
(1.00925 -0.0029293 0)
(1.00847 -0.00266014 0)
(1.00778 -0.00240911 0)
(1.00717 -0.00217444 0)
(1.00662 -0.00195395 0)
(1.00615 -0.00174616 0)
(1.00573 -0.00154939 0)
(1.00537 -0.00136231 0)
(1.00506 -0.00118356 0)
(1.00479 -0.001012 0)
(1.00457 -0.000846451 0)
(1.00439 -0.000685939 0)
(1.00425 -0.000529429 0)
(1.00415 -0.000375979 0)
(1.00408 -0.000224729 0)
(1.00404 -7.48098e-05 0)
(0.838021 -0.014214 0)
(1.15388 -0.0431849 0)
(1.22578 -0.0410236 0)
(1.22495 -0.0412747 0)
(1.20789 -0.0391012 0)
(1.18873 -0.0367691 0)
(1.17061 -0.0340055 0)
(1.15392 -0.0315082 0)
(1.13862 -0.0290434 0)
(1.12467 -0.0266574 0)
(1.11202 -0.024398 0)
(1.10059 -0.0222887 0)
(1.09028 -0.0203321 0)
(1.08101 -0.0185307 0)
(1.07269 -0.0168797 0)
(1.06522 -0.0153738 0)
(1.05853 -0.0140024 0)
(1.05254 -0.0127577 0)
(1.04717 -0.0116278 0)
(1.04237 -0.0106034 0)
(1.03808 -0.00967552 0)
(1.03423 -0.00883341 0)
(1.0308 -0.00807035 0)
(1.02772 -0.00737708 0)
(1.02497 -0.00674735 0)
(1.02251 -0.00617415 0)
(1.02032 -0.00565182 0)
(1.01835 -0.00517493 0)
(1.01659 -0.00473876 0)
(1.01502 -0.00433894 0)
(1.01362 -0.00397171 0)
(1.01237 -0.00363344 0)
(1.01125 -0.00332126 0)
(1.01026 -0.00303207 0)
(1.00937 -0.00276362 0)
(1.00858 -0.00251354 0)
(1.00788 -0.00227967 0)
(1.00726 -0.00206042 0)
(1.00672 -0.00185386 0)
(1.00623 -0.00165867 0)
(1.00581 -0.00147336 0)
(1.00545 -0.00129673 0)
(1.00513 -0.00112758 0)
(1.00487 -0.000964881 0)
(1.00464 -0.000807584 0)
(1.00446 -0.000654808 0)
(1.00432 -0.000505629 0)
(1.00421 -0.0003592 0)
(1.00414 -0.000214746 0)
(1.00411 -7.14929e-05 0)
(0.830497 -0.00668509 0)
(1.14923 -0.0333417 0)
(1.22473 -0.0314541 0)
(1.22546 -0.0331589 0)
(1.20869 -0.0318186 0)
(1.18961 -0.0303078 0)
(1.17155 -0.0283787 0)
(1.15489 -0.0266104 0)
(1.13957 -0.0247676 0)
(1.12558 -0.022926 0)
(1.11289 -0.0211425 0)
(1.1014 -0.0194453 0)
(1.09104 -0.017845 0)
(1.08171 -0.016352 0)
(1.07333 -0.0149683 0)
(1.06581 -0.0136941 0)
(1.05907 -0.0125241 0)
(1.05303 -0.0114548 0)
(1.04762 -0.0104778 0)
(1.04277 -0.00958721 0)
(1.03844 -0.00877649 0)
(1.03457 -0.00803727 0)
(1.0311 -0.00736466 0)
(1.028 -0.00675111 0)
(1.02522 -0.00619172 0)
(1.02274 -0.0056807 0)
(1.02053 -0.0052134 0)
(1.01854 -0.00478531 0)
(1.01677 -0.00439245 0)
(1.01519 -0.00403113 0)
(1.01377 -0.00369815 0)
(1.01251 -0.00339042 0)
(1.01138 -0.00310546 0)
(1.01038 -0.00284061 0)
(1.00948 -0.00259392 0)
(1.00869 -0.00236336 0)
(1.00798 -0.00214701 0)
(1.00735 -0.00194355 0)
(1.0068 -0.00175123 0)
(1.00632 -0.00156895 0)
(1.00589 -0.00139536 0)
(1.00552 -0.00122944 0)
(1.00521 -0.00107013 0)
(1.00494 -0.000916517 0)
(1.00471 -0.000767679 0)
(1.00453 -0.000622841 0)
(1.00438 -0.000481186 0)
(1.00427 -0.000341966 0)
(1.0042 -0.000204493 0)
(1.00417 -6.80865e-05 0)
(0.8245 0.000805227 0)
(1.14477 -0.023453 0)
(1.22339 -0.021972 0)
(1.22558 -0.0251044 0)
(1.20905 -0.0245347 0)
(1.1901 -0.0238709 0)
(1.17217 -0.0227763 0)
(1.15555 -0.0217192 0)
(1.14026 -0.0204866 0)
(1.12627 -0.0191835 0)
(1.11356 -0.0178715 0)
(1.10204 -0.0165831 0)
(1.09165 -0.0153373 0)
(1.08229 -0.014152 0)
(1.07386 -0.0130356 0)
(1.0663 -0.0119938 0)
(1.05952 -0.0110262 0)
(1.05344 -0.0101334 0)
(1.048 -0.00931067 0)
(1.04312 -0.00855515 0)
(1.03876 -0.00786287 0)
(1.03486 -0.00722779 0)
(1.03136 -0.0066468 0)
(1.02824 -0.00611407 0)
(1.02545 -0.00562604 0)
(1.02295 -0.00517815 0)
(1.02071 -0.00476677 0)
(1.01871 -0.00438826 0)
(1.01693 -0.00403943 0)
(1.01533 -0.00371726 0)
(1.01391 -0.00341913 0)
(1.01263 -0.00314246 0)
(1.0115 -0.00288522 0)
(1.01048 -0.00264515 0)
(1.00958 -0.00242064 0)
(1.00878 -0.00220996 0)
(1.00807 -0.00201149 0)
(1.00744 -0.00182411 0)
(1.00688 -0.00164632 0)
(1.00639 -0.0014772 0)
(1.00596 -0.00131559 0)
(1.00559 -0.00116061 0)
(1.00527 -0.00101135 0)
(1.005 -0.000867023 0)
(1.00477 -0.000726835 0)
(1.00459 -0.000590117 0)
(1.00444 -0.000456162 0)
(1.00433 -0.00032432 0)
(1.00426 -0.000193994 0)
(1.00423 -6.45988e-05 0)
(0.819864 0.00824769 0)
(1.14045 -0.0135269 0)
(1.22184 -0.0126188 0)
(1.22527 -0.0171047 0)
(1.20898 -0.0172604 0)
(1.19025 -0.0174863 0)
(1.17246 -0.0172149 0)
(1.15594 -0.0168488 0)
(1.14069 -0.0162159 0)
(1.12674 -0.0154441 0)
(1.11404 -0.0145968 0)
(1.10252 -0.0137123 0)
(1.09212 -0.012818 0)
(1.08273 -0.0119385 0)
(1.07429 -0.0110884 0)
(1.0667 -0.0102787 0)
(1.05989 -0.00951365 0)
(1.05378 -0.00879774 0)
(1.04831 -0.00813001 0)
(1.04341 -0.00751038 0)
(1.03903 -0.0069374 0)
(1.0351 -0.00640734 0)
(1.03159 -0.00591886 0)
(1.02845 -0.00546779 0)
(1.02564 -0.00505193 0)
(1.02312 -0.0046679 0)
(1.02087 -0.00431312 0)
(1.01886 -0.00398484 0)
(1.01707 -0.00368063 0)
(1.01546 -0.00339816 0)
(1.01402 -0.00313538 0)
(1.01274 -0.00289022 0)
(1.0116 -0.00266112 0)
(1.01058 -0.00244621 0)
(1.00967 -0.00224422 0)
(1.00887 -0.00205374 0)
(1.00815 -0.00187343 0)
(1.00751 -0.00170241 0)
(1.00695 -0.0015394 0)
(1.00646 -0.00138368 0)
(1.00603 -0.00123426 0)
(1.00566 -0.00109041 0)
(1.00533 -0.000951387 0)
(1.00506 -0.000816524 0)
(1.00483 -0.000685154 0)
(1.00464 -0.000556718 0)
(1.0045 -0.000430618 0)
(1.00439 -0.000306306 0)
(1.00432 -0.000183276 0)
(1.00428 -6.10385e-05 0)
(0.816448 0.0156768 0)
(1.13626 -0.00360424 0)
(1.22006 -0.00341543 0)
(1.22451 -0.00915411 0)
(1.20848 -0.0100253 0)
(1.19005 -0.0111817 0)
(1.17245 -0.0117088 0)
(1.15604 -0.0120132 0)
(1.14087 -0.0119693 0)
(1.12699 -0.0117204 0)
(1.11433 -0.0113299 0)
(1.10284 -0.0108431 0)
(1.09244 -0.0102957 0)
(1.08305 -0.00971891 0)
(1.0746 -0.00913315 0)
(1.067 -0.0085543 0)
(1.06018 -0.00799123 0)
(1.05405 -0.00745214 0)
(1.04857 -0.00693949 0)
(1.04365 -0.00645607 0)
(1.03925 -0.00600284 0)
(1.03531 -0.00557832 0)
(1.03178 -0.00518289 0)
(1.02862 -0.00481405 0)
(1.0258 -0.00447092 0)
(1.02327 -0.00415132 0)
(1.02101 -0.00385367 0)
(1.01899 -0.00357612 0)
(1.01719 -0.00331699 0)
(1.01557 -0.00307464 0)
(1.01413 -0.0028476 0)
(1.01284 -0.00263434 0)
(1.01169 -0.00243371 0)
(1.01067 -0.00224427 0)
(1.00975 -0.0020651 0)
(1.00894 -0.00189508 0)
(1.00822 -0.00173318 0)
(1.00758 -0.00157874 0)
(1.00702 -0.00143073 0)
(1.00653 -0.0012886 0)
(1.00609 -0.00115155 0)
(1.00572 -0.00101902 0)
(1.00539 -0.000890386 0)
(1.00512 -0.000765142 0)
(1.00489 -0.000642737 0)
(1.0047 -0.000522725 0)
(1.00455 -0.000404617 0)
(1.00444 -0.000287967 0)
(1.00437 -0.000172364 0)
(1.00433 -5.74141e-05 0)
(0.814113 0.0231521 0)
(1.13222 0.00624822 0)
(1.21809 0.00560816 0)
(1.22325 -0.00124718 0)
(1.2076 -0.00286656 0)
(1.18952 -0.00497877 0)
(1.17212 -0.00626946 0)
(1.15586 -0.00722776 0)
(1.14082 -0.00776272 0)
(1.12703 -0.0080258 0)
(1.11444 -0.00808121 0)
(1.10299 -0.00798469 0)
(1.09262 -0.00777891 0)
(1.08325 -0.00750073 0)
(1.07481 -0.00717627 0)
(1.06721 -0.00682636 0)
(1.06038 -0.00646388 0)
(1.05425 -0.00610069 0)
(1.04876 -0.00574272 0)
(1.04383 -0.00539533 0)
(1.03942 -0.0050619 0)
(1.03547 -0.00474311 0)
(1.03193 -0.00444101 0)
(1.02876 -0.00415472 0)
(1.02593 -0.00388467 0)
(1.0234 -0.00362983 0)
(1.02113 -0.00338967 0)
(1.0191 -0.00316318 0)
(1.01729 -0.00294948 0)
(1.01567 -0.00274757 0)
(1.01422 -0.00255657 0)
(1.01293 -0.00237548 0)
(1.01177 -0.00220358 0)
(1.01074 -0.00203986 0)
(1.00983 -0.00188373 0)
(1.00901 -0.00173439 0)
(1.00829 -0.0015911 0)
(1.00765 -0.00145343 0)
(1.00708 -0.00132058 0)
(1.00659 -0.0011922 0)
(1.00615 -0.00106767 0)
(1.00577 -0.000946594 0)
(1.00545 -0.0008285 0)
(1.00517 -0.000713006 0)
(1.00494 -0.000599691 0)
(1.00475 -0.000488222 0)
(1.0046 -0.000378223 0)
(1.00449 -0.00026935 0)
(1.00442 -0.000161287 0)
(1.00438 -5.37347e-05 0)
(0.812725 0.0306782 0)
(1.12833 0.0159584 0)
(1.21581 0.0144423 0)
(1.22147 0.00660365 0)
(1.20637 0.00416005 0)
(1.18864 0.00110968 0)
(1.17147 -0.000912569 0)
(1.1554 -0.00250839 0)
(1.14052 -0.0036094 0)
(1.12686 -0.00437157 0)
(1.11436 -0.00486178 0)
(1.10298 -0.00514715 0)
(1.09266 -0.00527609 0)
(1.08333 -0.00529085 0)
(1.0749 -0.005224 0)
(1.06732 -0.00510007 0)
(1.0605 -0.00493618 0)
(1.05438 -0.00474756 0)
(1.04888 -0.00454324 0)
(1.04395 -0.00433134 0)
(1.03954 -0.00411732 0)
(1.03558 -0.00390404 0)
(1.03204 -0.00369525 0)
(1.02887 -0.00349157 0)
(1.02603 -0.00329471 0)
(1.02349 -0.00310483 0)
(1.02122 -0.00292233 0)
(1.01919 -0.00274711 0)
(1.01737 -0.00257903 0)
(1.01575 -0.00241776 0)
(1.01429 -0.00226301 0)
(1.013 -0.00211428 0)
(1.01184 -0.00197131 0)
(1.01081 -0.00183349 0)
(1.00989 -0.00170056 0)
(1.00907 -0.00157206 0)
(1.00835 -0.00144753 0)
(1.0077 -0.00132676 0)
(1.00714 -0.00120922 0)
(1.00664 -0.00109471 0)
(1.0062 -0.000982831 0)
(1.00582 -0.000873326 0)
(1.0055 -0.000765877 0)
(1.00522 -0.000660238 0)
(1.00499 -0.000556116 0)
(1.0048 -0.000453291 0)
(1.00465 -0.000351499 0)
(1.00454 -0.000250498 0)
(1.00446 -0.000150068 0)
(1.00443 -5.00089e-05 0)
(0.812155 0.0382186 0)
(1.12461 0.025489 0)
(1.21311 0.0230681 0)
(1.21925 0.0143383 0)
(1.20478 0.0110157 0)
(1.18742 0.00707728 0)
(1.17052 0.00434552 0)
(1.15469 0.00212652 0)
(1.14 0.000475029 0)
(1.12649 -0.000770358 0)
(1.1141 -0.00168115 0)
(1.10281 -0.00233905 0)
(1.09256 -0.0027949 0)
(1.08328 -0.0030965 0)
(1.0749 -0.00328237 0)
(1.06734 -0.00338108 0)
(1.06054 -0.00341292 0)
(1.05443 -0.0033966 0)
(1.04894 -0.00334463 0)
(1.04402 -0.00326709 0)
(1.03961 -0.00317177 0)
(1.03565 -0.00306356 0)
(1.03211 -0.00294773 0)
(1.02894 -0.00282647 0)
(1.0261 -0.00270269 0)
(1.02356 -0.00257771 0)
(1.02129 -0.0024529 0)
(1.01925 -0.002329 0)
(1.01743 -0.00220663 0)
(1.01581 -0.0020861 0)
(1.01435 -0.0019677 0)
(1.01306 -0.00185143 0)
(1.0119 -0.00173749 0)
(1.01086 -0.00162567 0)
(1.00994 -0.00151605 0)
(1.00912 -0.0014085 0)
(1.0084 -0.00130283 0)
(1.00775 -0.00119907 0)
(1.00718 -0.00109692 0)
(1.00669 -0.00099639 0)
(1.00625 -0.000897241 0)
(1.00587 -0.000799392 0)
(1.00554 -0.000702673 0)
(1.00526 -0.000606972 0)
(1.00503 -0.000512123 0)
(1.00484 -0.00041802 0)
(1.00469 -0.000324511 0)
(1.00458 -0.000231458 0)
(1.00451 -0.000138738 0)
(1.00447 -4.62459e-05 0)
(0.812262 0.0457153 0)
(1.121 0.0348118 0)
(1.20994 0.0314501 0)
(1.21663 0.0218891 0)
(1.20281 0.0176772 0)
(1.18585 0.0129037 0)
(1.16928 0.00948437 0)
(1.15372 0.00666128 0)
(1.13925 0.00447927 0)
(1.12591 0.00276794 0)
(1.11367 0.00145015 0)
(1.10249 0.000429987 0)
(1.09233 -0.000343429 0)
(1.08312 -0.000923763 0)
(1.07478 -0.00135723 0)
(1.06727 -0.00167408 0)
(1.0605 -0.00189838 0)
(1.05441 -0.00205191 0)
(1.04894 -0.00215029 0)
(1.04403 -0.00220575 0)
(1.03963 -0.00222788 0)
(1.03568 -0.00222385 0)
(1.03215 -0.00220043 0)
(1.02898 -0.00216114 0)
(1.02614 -0.00211014 0)
(1.0236 -0.00204988 0)
(1.02133 -0.00198262 0)
(1.0193 -0.00190994 0)
(1.01748 -0.00183321 0)
(1.01585 -0.00175339 0)
(1.0144 -0.00167134 0)
(1.0131 -0.00158757 0)
(1.01194 -0.00150269 0)
(1.01091 -0.00141692 0)
(1.00999 -0.00133067 0)
(1.00917 -0.00124411 0)
(1.00844 -0.00115734 0)
(1.0078 -0.00107066 0)
(1.00723 -0.000983959 0)
(1.00673 -0.000897457 0)
(1.00629 -0.0008111 0)
(1.00591 -0.000724966 0)
(1.00558 -0.000639035 0)
(1.0053 -0.00055333 0)
(1.00507 -0.000467812 0)
(1.00488 -0.00038249 0)
(1.00473 -0.000297321 0)
(1.00462 -0.000212274 0)
(1.00455 -0.000127322 0)
(1.00451 -4.24544e-05 0)
(0.812913 0.0531008 0)
(1.11747 0.0438844 0)
(1.20636 0.0395441 0)
(1.21363 0.0291992 0)
(1.20045 0.0241234 0)
(1.18395 0.0185629 0)
(1.16776 0.0144837 0)
(1.15251 0.0110806 0)
(1.1383 0.00839193 0)
(1.12516 0.00623339 0)
(1.11308 0.00452136 0)
(1.10203 0.00315343 0)
(1.09197 0.00207235 0)
(1.08284 0.00121983 0)
(1.07457 0.000545573 0)
(1.0671 1.55239e-05 0)
(1.06038 -0.00039702 0)
(1.05432 -0.000717157 0)
(1.04888 -0.000963583 0)
(1.04399 -0.00115011 0)
(1.0396 -0.0012883 0)
(1.03567 -0.00138731 0)
(1.03214 -0.00145548 0)
(1.02898 -0.00149748 0)
(1.02615 -0.00151864 0)
(1.02362 -0.0015227 0)
(1.02135 -0.00151269 0)
(1.01932 -0.001491 0)
(1.0175 -0.00145977 0)
(1.01588 -0.00142055 0)
(1.01443 -0.00137474 0)
(1.01313 -0.00132338 0)
(1.01197 -0.00126752 0)
(1.01094 -0.00120777 0)
(1.01002 -0.00114486 0)
(1.0092 -0.0010793 0)
(1.00847 -0.00101146 0)
(1.00783 -0.000941842 0)
(1.00726 -0.000870615 0)
(1.00676 -0.000798164 0)
(1.00632 -0.000724626 0)
(1.00594 -0.000650236 0)
(1.00562 -0.000575125 0)
(1.00534 -0.000499449 0)
(1.00511 -0.000423296 0)
(1.00492 -0.00034679 0)
(1.00477 -0.00027 0)
(1.00466 -0.000192995 0)
(1.00458 -0.000115848 0)
(1.00455 -3.86439e-05 0)
(0.813989 0.0603007 0)
(1.11396 0.0526446 0)
(1.20243 0.0473026 0)
(1.21025 0.036225 0)
(1.19773 0.0303301 0)
(1.18175 0.0240293 0)
(1.16598 0.0193245 0)
(1.15107 0.0153709 0)
(1.13714 0.0122007 0)
(1.12422 0.00961533 0)
(1.11232 0.00752477 0)
(1.10143 0.00582349 0)
(1.09148 0.00444536 0)
(1.08245 0.00332869 0)
(1.07426 0.00242141 0)
(1.06685 0.00168358 0)
(1.06018 0.00108696 0)
(1.05416 0.000604062 0)
(1.04875 0.000212071 0)
(1.04389 -0.000103151 0)
(1.03953 -0.000355316 0)
(1.03561 -0.000556096 0)
(1.0321 -0.000714664 0)
(1.02895 -0.000837064 0)
(1.02613 -0.000929736 0)
(1.02361 -0.000997562 0)
(1.02135 -0.00104435 0)
(1.01932 -0.00107322 0)
(1.01751 -0.00108717 0)
(1.01589 -0.00108831 0)
(1.01444 -0.00107858 0)
(1.01315 -0.0010595 0)
(1.01199 -0.00103254 0)
(1.01096 -0.000998709 0)
(1.01004 -0.000959077 0)
(1.00923 -0.000914447 0)
(1.0085 -0.000865483 0)
(1.00786 -0.000812922 0)
(1.00729 -0.000757148 0)
(1.00679 -0.000698739 0)
(1.00635 -0.000638013 0)
(1.00597 -0.000575368 0)
(1.00565 -0.000511082 0)
(1.00537 -0.000445445 0)
(1.00514 -0.000378672 0)
(1.00495 -0.000310999 0)
(1.0048 -0.000242604 0)
(1.00469 -0.000173663 0)
(1.00461 -0.000104342 0)
(1.00458 -3.48226e-05 0)
(0.815401 0.0672394 0)
(1.11046 0.0610201 0)
(1.1982 0.0546793 0)
(1.20652 0.0429313 0)
(1.19467 0.0362724 0)
(1.17925 0.0292804 0)
(1.16395 0.0239899 0)
(1.14941 0.019519 0)
(1.13578 0.0158938 0)
(1.12311 0.0129037 0)
(1.11142 0.0104527 0)
(1.10069 0.0084324 0)
(1.09087 0.00676887 0)
(1.08195 0.00539755 0)
(1.07385 0.00426483 0)
(1.06652 0.00332583 0)
(1.0599 0.00254991 0)
(1.05394 0.00190765 0)
(1.04857 0.00137413 0)
(1.04374 0.00093257 0)
(1.0394 0.000568088 0)
(1.03551 0.000267624 0)
(1.03202 1.97489e-05 0)
(1.02889 -0.000181776 0)
(1.02608 -0.000344841 0)
(1.02357 -0.000475811 0)
(1.02132 -0.000578761 0)
(1.0193 -0.000657717 0)
(1.0175 -0.000716485 0)
(1.01588 -0.000757637 0)
(1.01444 -0.000783636 0)
(1.01315 -0.000796594 0)
(1.012 -0.000798347 0)
(1.01097 -0.000790286 0)
(1.01006 -0.000773806 0)
(1.00924 -0.00075 0)
(1.00852 -0.000719819 0)
(1.00788 -0.000684231 0)
(1.00731 -0.000643848 0)
(1.00681 -0.000599434 0)
(1.00638 -0.000551485 0)
(1.006 -0.000500559 0)
(1.00567 -0.000447077 0)
(1.0054 -0.000391463 0)
(1.00516 -0.000334057 0)
(1.00498 -0.00027521 0)
(1.00483 -0.000215208 0)
(1.00472 -0.000154328 0)