/*--------------------------------*- C++ -*----------------------------------*\
  =========                 |
  \\      /  F ield         | OpenFOAM: The Open Source CFD Toolbox
   \\    /   O peration     | Website:  https://openfoam.org
    \\  /    A nd           | Version:  7
     \\/     M anipulation  |
\*---------------------------------------------------------------------------*/
FoamFile
{
    version     2.0;
    format      ascii;
    class       volScalarField;
    location    "9.999";
    object      p;
}
// * * * * * * * * * * * * * * * * * * * * * * * * * * * * * * * * * * * * * //

dimensions      [0 2 -2 0 0 0 0];

internalField   nonuniform List<scalar> 
11400
(
-0.307214
-0.309569
-0.312209
-0.315139
-0.318362
-0.321882
-0.325704
-0.32983
-0.334267
-0.339017
-0.344064
-0.349447
-0.355367
-0.294771
-0.297864
-0.299289
-0.30061
-0.302011
-0.303576
-0.305379
-0.307448
-0.309797
-0.312432
-0.315357
-0.318576
-0.322096
-0.325917
-0.330043
-0.33448
-0.339234
-0.34428
-0.349618
-0.355547
-0.295562
-0.298496
-0.299865
-0.301147
-0.302518
-0.30406
-0.305842
-0.307894
-0.310228
-0.312848
-0.315761
-0.318971
-0.322482
-0.326297
-0.330418
-0.334849
-0.339601
-0.344643
-0.349897
-0.355784
-0.296703
-0.29941
-0.300695
-0.301917
-0.30324
-0.304742
-0.306491
-0.308511
-0.310814
-0.313407
-0.316293
-0.319479
-0.322968
-0.326763
-0.330864
-0.335271
-0.339999
-0.345026
-0.350178
-0.355864
-0.298144
-0.300567
-0.301743
-0.302882
-0.304136
-0.305579
-0.307273
-0.309242
-0.311495
-0.314038
-0.316876
-0.320014
-0.323457
-0.327208
-0.331263
-0.335619
-0.340284
-0.34527
-0.350353
-0.355517
-0.299825
-0.301921
-0.302964
-0.303998
-0.305158
-0.306517
-0.308131
-0.310021
-0.312196
-0.314662
-0.317422
-0.320481
-0.323846
-0.327518
-0.331494
-0.335763
-0.340317
-0.345203
-0.35035
-0.354486
-0.301682
-0.303425
-0.304313
-0.305217
-0.306256
-0.307501
-0.309003
-0.310782
-0.312846
-0.315199
-0.317845
-0.320789
-0.324037
-0.32759
-0.331446
-0.335592
-0.339993
-0.344665
-0.35008
-0.352833
-0.303649
-0.30503
-0.305746
-0.306493
-0.307382
-0.308479
-0.309833
-0.311463
-0.313378
-0.315579
-0.318072
-0.320861
-0.323951
-0.327345
-0.33104
-0.335021
-0.339261
-0.343679
-0.348893
-0.351244
-0.30567
-0.306695
-0.307223
-0.307789
-0.308494
-0.309406
-0.310572
-0.312014
-0.313739
-0.315749
-0.318049
-0.320645
-0.32354
-0.326739
-0.330236
-0.334014
-0.338085
-0.34216
-0.347375
-0.348929
-0.307696
-0.308385
-0.308714
-0.309074
-0.309562
-0.31025
-0.311189
-0.312402
-0.313897
-0.315678
-0.317751
-0.32012
-0.322791
-0.325766
-0.329043
-0.332582
-0.336501
-0.340106
-0.345563
-0.345939
-0.309691
-0.310079
-0.310198
-0.310329
-0.310566
-0.310994
-0.311666
-0.312612
-0.313842
-0.315363
-0.317181
-0.319301
-0.321727
-0.324462
-0.327509
-0.330776
-0.334584
-0.337577
-0.343459
-0.342444
-0.311637
-0.311764
-0.311667
-0.311545
-0.311503
-0.311635
-0.312006
-0.312652
-0.313588
-0.314826
-0.316371
-0.318229
-0.320404
-0.322893
-0.325714
-0.328678
-0.332431
-0.334685
-0.341051
-0.338633
-0.313539
-0.313434
-0.313122
-0.312729
-0.31238
-0.312188
-0.312229
-0.312549
-0.313173
-0.314114
-0.315379
-0.316974
-0.318899
-0.321143
-0.323749
-0.326385
-0.330083
-0.331565
-0.338218
-0.334706
-0.315405
-0.315114
-0.314578
-0.313896
-0.313219
-0.312679
-0.312369
-0.312349
-0.31265
-0.31329
-0.314278
-0.315614
-0.317298
-0.319299
-0.321683
-0.323973
-0.327508
-0.328332
-0.334746
-0.330734
-0.317271
-0.316827
-0.316058
-0.315073
-0.314051
-0.313148
-0.312477
-0.312109
-0.312086
-0.312429
-0.313144
-0.314231
-0.315675
-0.317422
-0.319542
-0.321476
-0.324613
-0.324993
-0.330468
-0.326543
-0.319189
-0.318608
-0.317599
-0.316297
-0.314918
-0.313644
-0.312607
-0.311894
-0.311553
-0.311607
-0.312059
-0.312893
-0.314078
-0.315538
-0.317303
-0.318848
-0.321292
-0.321388
-0.325377
-0.321816
-0.321221
-0.320501
-0.31924
-0.317612
-0.315869
-0.314222
-0.312824
-0.311772
-0.311122
-0.310893
-0.311076
-0.311638
-0.31252
-0.313619
-0.314896
-0.31595
-0.317447
-0.317245
-0.31956
-0.316302
-0.323438
-0.322562
-0.321032
-0.319065
-0.316955
-0.314939
-0.313187
-0.311806
-0.310852
-0.310336
-0.31023
-0.310472
-0.310967
-0.311588
-0.312214
-0.312601
-0.312967
-0.312293
-0.312996
-0.309866
-0.325916
-0.324844
-0.323026
-0.320708
-0.318228
-0.315848
-0.31375
-0.312047
-0.310787
-0.309963
-0.309521
-0.309363
-0.309353
-0.30934
-0.309146
-0.308657
-0.307771
-0.306356
-0.305408
-0.302391
-0.328736
-0.327403
-0.325272
-0.32259
-0.319739
-0.316999
-0.314561
-0.312533
-0.310949
-0.309775
-0.30892
-0.308247
-0.307585
-0.306768
-0.305607
-0.304065
-0.301906
-0.299486
-0.296584
-0.293601
-0.331965
-0.330299
-0.327823
-0.32476
-0.32153
-0.318432
-0.315652
-0.313285
-0.31134
-0.309745
-0.308369
-0.30704
-0.305567
-0.303793
-0.301558
-0.298872
-0.295535
-0.291997
-0.287351
-0.283192
-0.335664
-0.333586
-0.330723
-0.327259
-0.323642
-0.320179
-0.317044
-0.314307
-0.311937
-0.309822
-0.307791
-0.305651
-0.303221
-0.300378
-0.29702
-0.293199
-0.288799
-0.284119
-0.278601
-0.273385
-0.339896
-0.337307
-0.334017
-0.330126
-0.326108
-0.322265
-0.318748
-0.315586
-0.312702
-0.309939
-0.307101
-0.304002
-0.300499
-0.296529
-0.29206
-0.287189
-0.281836
-0.276298
-0.270091
-0.264207
-0.34471
-0.341505
-0.337742
-0.333397
-0.328956
-0.324708
-0.320763
-0.317095
-0.313577
-0.310017
-0.306219
-0.302033
-0.297386
-0.292285
-0.286769
-0.280956
-0.274811
-0.268587
-0.261876
-0.255704
-0.350146
-0.346216
-0.341937
-0.337107
-0.332213
-0.32752
-0.323076
-0.318793
-0.314494
-0.309974
-0.305072
-0.299708
-0.293893
-0.287704
-0.28123
-0.274597
-0.26779
-0.261023
-0.253949
-0.247504
-0.356235
-0.351475
-0.346636
-0.341288
-0.335905
-0.330705
-0.325662
-0.320621
-0.315371
-0.30973
-0.303606
-0.297014
-0.290049
-0.282843
-0.275511
-0.268167
-0.260804
-0.253592
-0.246215
-0.239551
-0.363001
-0.35731
-0.351872
-0.345972
-0.340049
-0.334257
-0.328481
-0.322506
-0.316122
-0.30921
-0.301782
-0.293953
-0.285888
-0.277748
-0.269652
-0.26169
-0.253851
-0.246258
-0.238629
-0.231748
-0.37046
-0.363747
-0.357677
-0.351184
-0.344651
-0.338149
-0.331469
-0.324361
-0.316659
-0.308354
-0.299578
-0.290537
-0.28144
-0.272451
-0.263674
-0.255167
-0.246911
-0.238982
-0.231131
-0.224048
-0.378616
-0.370802
-0.364071
-0.35694
-0.349702
-0.342332
-0.33454
-0.326081
-0.316894
-0.30711
-0.296981
-0.286778
-0.276723
-0.266963
-0.257575
-0.248582
-0.239954
-0.231724
-0.223677
-0.216405
-0.38746
-0.37848
-0.371065
-0.363233
-0.355164
-0.346729
-0.337585
-0.32756
-0.316748
-0.30544
-0.293984
-0.282682
-0.271743
-0.261284
-0.251342
-0.24191
-0.232946
-0.224444
-0.216225
-0.208778
-0.396966
-0.386772
-0.378647
-0.370033
-0.360966
-0.351226
-0.340474
-0.328685
-0.316153
-0.303313
-0.290577
-0.278246
-0.266495
-0.255395
-0.244948
-0.235118
-0.22585
-0.217105
-0.208737
-0.201132
-0.407078
-0.395645
-0.386779
-0.377275
-0.367003
-0.355681
-0.343065
-0.329352
-0.315046
-0.300699
-0.286747
-0.273458
-0.260959
-0.249272
-0.238365
-0.228174
-0.21863
-0.20967
-0.201177
-0.193432
-0.417719
-0.405036
-0.395391
-0.384854
-0.373125
-0.359927
-0.345214
-0.329461
-0.313371
-0.297568
-0.282471
-0.268295
-0.255107
-0.242884
-0.231557
-0.221041
-0.211252
-0.202106
-0.193513
-0.185648
-0.428775
-0.414855
-0.404373
-0.392625
-0.379148
-0.363779
-0.346777
-0.32892
-0.311073
-0.293884
-0.277719
-0.262725
-0.248906
-0.236194
-0.224488
-0.213683
-0.203681
-0.194382
-0.185714
-0.177751
-0.440097
-0.42497
-0.413576
-0.400398
-0.384858
-0.367046
-0.347617
-0.327645
-0.308101
-0.289607
-0.272455
-0.256711
-0.242318
-0.229164
-0.217122
-0.206068
-0.195886
-0.186469
-0.177752
-0.169716
-0.451499
-0.435213
-0.422806
-0.407941
-0.39002
-0.369537
-0.347605
-0.325553
-0.304397
-0.284693
-0.266636
-0.250211
-0.235302
-0.221757
-0.209424
-0.198161
-0.187837
-0.178337
-0.169599
-0.161518
-0.462758
-0.445377
-0.431829
-0.414993
-0.394388
-0.37107
-0.346621
-0.322566
-0.299905
-0.279091
-0.260216
-0.243181
-0.227817
-0.213935
-0.20136
-0.189931
-0.179506
-0.169962
-0.16123
-0.153135
-0.473615
-0.455214
-0.440371
-0.421265
-0.39772
-0.371472
-0.344554
-0.318609
-0.294564
-0.27275
-0.253146
-0.235578
-0.219823
-0.205663
-0.192898
-0.181352
-0.170868
-0.161321
-0.152623
-0.144549
-0.483782
-0.464447
-0.448131
-0.42646
-0.399781
-0.370586
-0.3413
-0.313607
-0.288316
-0.265616
-0.245379
-0.227357
-0.211283
-0.196906
-0.184008
-0.172397
-0.161902
-0.152394
-0.143761
-0.135749
-0.492946
-0.472768
-0.454781
-0.430284
-0.400352
-0.368267
-0.336764
-0.307489
-0.2811
-0.257637
-0.236868
-0.218478
-0.20216
-0.187635
-0.174666
-0.163043
-0.152589
-0.143166
-0.134637
-0.126739
-0.500777
-0.47985
-0.459988
-0.432451
-0.399236
-0.364388
-0.330857
-0.300189
-0.272859
-0.248763
-0.22757
-0.208906
-0.192424
-0.177823
-0.164846
-0.153271
-0.14291
-0.13362
-0.125246
-0.11753
-0.506935
-0.485355
-0.463422
-0.4327
-0.396257
-0.358836
-0.323504
-0.291644
-0.263542
-0.23895
-0.217447
-0.198606
-0.182048
-0.167448
-0.154532
-0.143063
-0.132846
-0.12374
-0.115574
-0.108107
-0.511084
-0.488943
-0.464766
-0.430794
-0.391264
-0.351517
-0.314634
-0.281801
-0.253103
-0.228158
-0.206466
-0.187554
-0.171011
-0.156492
-0.143707
-0.132406
-0.122387
-0.113511
-0.105591
-0.0983963
-0.5129
-0.490286
-0.463732
-0.426533
-0.384134
-0.342351
-0.304193
-0.270613
-0.241503
-0.216356
-0.194604
-0.17573
-0.159298
-0.144944
-0.132363
-0.121294
-0.111531
-0.102936
-0.0952711
-0.0882642
-0.512078
-0.489074
-0.460068
-0.41975
-0.37477
-0.331279
-0.292136
-0.258046
-0.228713
-0.203522
-0.181841
-0.163119
-0.146897
-0.132795
-0.120494
-0.109723
-0.100283
-0.0920257
-0.0846258
-0.0776896
-0.508344
-0.48503
-0.453564
-0.410319
-0.363104
-0.31826
-0.278434
-0.244076
-0.214715
-0.189639
-0.168167
-0.149715
-0.133807
-0.120049
-0.108106
-0.0976991
-0.0886482
-0.080769
-0.073627
-0.0670886
-0.50146
-0.477917
-0.444057
-0.398155
-0.349095
-0.303272
-0.263071
-0.228691
-0.199497
-0.174701
-0.153578
-0.135525
-0.120034
-0.106716
-0.0952121
-0.0852445
-0.0766338
-0.0691567
-0.0623457
-0.0563269
-0.491234
-0.467545
-0.431431
-0.38321
-0.332729
-0.286312
-0.246047
-0.211888
-0.183062
-0.158719
-0.138086
-0.120571
-0.105605
-0.0928059
-0.0818175
-0.0723618
-0.0642501
-0.0572225
-0.0508068
-0.0453486
-0.477519
-0.453783
-0.415614
-0.365473
-0.314019
-0.267397
-0.227374
-0.193681
-0.165433
-0.141727
-0.121739
-0.104851
-0.0905217
-0.0783372
-0.0679447
-0.0590692
-0.0515159
-0.0449899
-0.039019
-0.0341532
-0.460226
-0.436554
-0.396582
-0.34497
-0.293005
-0.246562
-0.207085
-0.174109
-0.146673
-0.123741
-0.104534
-0.0884027
-0.0748131
-0.0633365
-0.0536195
-0.045392
-0.0384552
-0.0324801
-0.0269955
-0.0227599
-0.439316
-0.415834
-0.374359
-0.321764
-0.269752
-0.223865
-0.185247
-0.153252
-0.126773
-0.104797
-0.0865139
-0.0712642
-0.0585164
-0.0478373
-0.0388735
-0.0313609
-0.0250967
-0.0197177
-0.014759
-0.0111933
-0.414805
-0.391654
-0.349022
-0.295959
-0.244346
-0.199391
-0.161936
-0.131128
-0.10581
-0.0849516
-0.0677286
-0.0534799
-0.0416744
-0.0318794
-0.0237441
-0.0170114
-0.0114738
-0.00673441
-0.00234202
0.000516504
-0.386762
-0.364104
-0.320717
-0.267671
-0.216877
-0.173233
-0.137213
-0.107822
-0.0838528
-0.0642678
-0.0482375
-0.0351029
-0.0243361
-0.015508
-0.00827361
-0.00238352
0.00237574
0.00643173
0.0102148
0.0123314
-0.35531
-0.333342
-0.289653
-0.236954
-0.187469
-0.145498
-0.111187
-0.0834275
-0.0609851
-0.0428205
-0.0281079
-0.0161941
-0.00655722
0.00122561
0.00749077
0.0124792
0.0164119
0.0197418
0.0228694
0.0242088
-0.320624
-0.299586
-0.255939
-0.203905
-0.156324
-0.116336
-0.0839788
-0.0580505
-0.0373001
-0.0206938
-0.00741544
0.0031783
0.0116004
0.0182646
0.023496
0.027528
0.0305926
0.0331605
0.0355883
0.0361206
-0.282917
-0.263087
-0.219308
-0.169139
-0.123626
-0.0859024
-0.0557248
-0.0318095
-0.012902
0.0020195
0.0137566
0.0229395
0.0300691
0.0355464
0.0396821
0.0427063
0.0448689
0.0466483
0.048335
0.0480459
-0.242401
-0.224006
-0.180437
-0.132646
-0.0895784
-0.0543695
-0.0265715
-0.00483351
0.0120953
0.0252181
0.0353183
0.0430095
0.048777
0.0530044
0.0559859
0.0579538
0.0591838
0.0601354
0.0609939
0.0598243
-0.199338
-0.182322
-0.140086
-0.0946711
-0.054379
-0.0219198
0.00332251
0.0227388
0.037569
0.0487934
0.0571734
0.0633029
0.0676485
0.0705717
0.0723494
0.0732245
0.0734898
0.0735096
0.073271
0.070953
-0.154153
-0.13862
-0.0982776
-0.0554958
-0.0182463
0.0112573
0.0337895
0.0507599
0.0633889
0.0726302
0.0792198
0.0837297
0.0866043
0.0881812
0.0887253
0.0884976
0.0877733
0.0866776
0.0848609
0.0809962
-0.10723
-0.0932371
-0.0552181
-0.0153939
0.0185848
0.0449611
0.0646532
0.0790745
0.089418
0.0966071
0.10135
0.104194
0.10556
0.105762
0.105064
0.103747
0.102017
0.0996465
0.0960274
0.0910182
-0.0588724
-0.0466039
-0.0112085
0.0253572
0.0558705
0.0789823
0.0957306
0.107521
0.115514
0.120598
0.123452
0.124597
0.124427
0.123239
0.121298
0.118891
0.116113
0.112427
0.107405
0.104303
-0.00948027
0.00088186
0.0334109
0.0664699
0.0933609
0.113104
0.126832
0.135933
0.141529
0.144473
0.145411
0.144836
0.143115
0.140531
0.137346
0.133816
0.129915
0.125057
0.119398
0.11709
0.040528
0.0488307
0.0782876
0.107648
0.130801
0.147106
0.157765
0.164141
0.167315
0.168099
0.167109
0.164805
0.161532
0.157557
0.15313
0.148465
0.143462
0.137626
0.131487
0.128944
0.0907286
0.0968499
0.123067
0.148592
0.167934
0.180764
0.188334
0.191973
0.192718
0.191343
0.188425
0.184399
0.179582
0.174226
0.168561
0.16276
0.156701
0.150001
0.143344
0.140198
0.140695
0.144544
0.167396
0.189
0.204502
0.213854
0.218342
0.219257
0.217588
0.214068
0.209242
0.203511
0.19717
0.190452
0.183563
0.176645
0.169573
0.162046
0.154786
0.150884
0.190002
0.19152
0.210925
0.228576
0.240249
0.246153
0.247595
0.24582
0.241773
0.236143
0.22944
0.222035
0.214201
0.206147
0.198059
0.190053
0.182007
0.173675
0.165768
0.16105
0.238231
0.237388
0.253315
0.267026
0.274922
0.277444
0.275901
0.271496
0.265124
0.257434
0.248901
0.239867
0.23058
0.221227
0.211974
0.202914
0.19393
0.184812
0.176244
0.170685
0.284969
0.281769
0.294232
0.304067
0.308278
0.307511
0.303073
0.296118
0.287496
0.277814
0.267513
0.256906
0.246217
0.235613
0.225237
0.215164
0.205278
0.195401
0.186176
0.179771
0.329821
0.324298
0.333357
0.339425
0.340079
0.336149
0.32893
0.319529
0.308748
0.297158
0.285165
0.273054
0.261024
0.249224
0.237775
0.226736
0.215992
0.205391
0.195527
0.188281
0.372404
0.364624
0.370386
0.372837
0.370099
0.36316
0.353298
0.341575
0.328747
0.315348
0.301751
0.288215
0.274918
0.261987
0.249524
0.23757
0.226018
0.214736
0.204256
0.196189
0.412357
0.402415
0.405031
0.404056
0.398123
0.388357
0.376015
0.362112
0.347365
0.332271
0.317172
0.302303
0.28782
0.273831
0.260419
0.247611
0.235305
0.223389
0.212327
0.203466
0.449342
0.437363
0.437022
0.432852
0.423952
0.411565
0.396925
0.381006
0.364483
0.347821
0.331334
0.315234
0.299655
0.284689
0.270402
0.256806
0.243807
0.231308
0.219702
0.210088
0.483046
0.469181
0.466112
0.459011
0.4474
0.432622
0.415888
0.398131
0.37999
0.361901
0.344151
0.32693
0.310356
0.294502
0.279419
0.265107
0.251479
0.238455
0.226349
0.216031
0.513185
0.497611
0.492076
0.48234
0.468299
0.451381
0.432774
0.413373
0.393787
0.374423
0.355545
0.337323
0.31986
0.303214
0.28742
0.272469
0.258284
0.244793
0.232236
0.221274
0.539505
0.52242
0.514715
0.502666
0.486499
0.467712
0.447468
0.426633
0.405785
0.385307
0.365445
0.346351
0.328113
0.310776
0.294362
0.278855
0.264185
0.250289
0.237335
0.225799
0.561785
0.543409
0.533852
0.519838
0.50187
0.4815
0.45987
0.43782
0.415905
0.394485
0.373791
0.353959
0.335065
0.317144
0.300206
0.284229
0.269151
0.254915
0.241622
0.229591
0.579836
0.560407
0.549342
0.533731
0.514302
0.492648
0.469895
0.446861
0.424081
0.401899
0.38053
0.360101
0.340677
0.322283
0.304921
0.288563
0.273156
0.258645
0.245077
0.232639
0.593509
0.573277
0.561065
0.544241
0.523704
0.501078
0.477475
0.453696
0.43026
0.4075
0.385622
0.36474
0.344915
0.326164
0.30848
0.291835
0.276179
0.261461
0.247683
0.234933
0.602689
0.581915
0.56893
0.551292
0.53001
0.506731
0.482557
0.458278
0.434402
0.411255
0.389034
0.367849
0.347754
0.328763
0.310864
0.294026
0.278203
0.263346
0.249427
0.236466
0.43648
0.413138
0.390745
0.369408
0.349178
0.330066
0.312059
0.295124
0.279218
0.264291
0.250301
0.237233
-0.361687
-0.362259
-0.363247
-0.364378
-0.365348
-0.365976
-0.365817
-0.364199
-0.37062
-0.362022
-0.368877
-0.359214
-0.366393
-0.355834
-0.363246
-0.351864
-0.35943
-0.364956
-0.347257
-0.354806
-0.360187
-0.341946
-0.349173
-0.354518
-0.360063
-0.335822
-0.342377
-0.347805
-0.353239
-0.328777
-0.334431
-0.340021
-0.345372
-0.32088
-0.325636
-0.33135
-0.336536
-0.341169
-0.312345
-0.316546
-0.322149
-0.326973
-0.33142
-0.303678
-0.307685
-0.312633
-0.316816
-0.321124
-0.325404
-0.295677
-0.299585
-0.303188
-0.30661
-0.310568
-0.314483
-0.287903
-0.293418
-0.296125
-0.299106
-0.302796
-0.306551
-0.310002
-0.27903
-0.285763
-0.288225
-0.290695
-0.294017
-0.297495
-0.300546
-0.270374
-0.277706
-0.280066
-0.282135
-0.285109
-0.288283
-0.290989
-0.262088
-0.269503
-0.27185
-0.273677
-0.276363
-0.279272
-0.28173
-0.25388
-0.261299
-0.263696
-0.265388
-0.267845
-0.270526
-0.272775
-0.245849
-0.253233
-0.255672
-0.257288
-0.259566
-0.262047
-0.264106
-0.2381
-0.245359
-0.24782
-0.249391
-0.251529
-0.253838
-0.255731
-0.230604
-0.237695
-0.240165
-0.24171
-0.24374
-0.245904
-0.247656
-0.223346
-0.230261
-0.232728
-0.234258
-0.236202
-0.238245
-0.239879
-0.21634
-0.223066
-0.225521
-0.227042
-0.228918
-0.230859
-0.232392
-0.209586
-0.216114
-0.218551
-0.220065
-0.221886
-0.223741
-0.22519
-0.203075
-0.209405
-0.211821
-0.213331
-0.215104
-0.216887
-0.218264
-0.196807
-0.202938
-0.205331
-0.206838
-0.20857
-0.21029
-0.211608
-0.190779
-0.196712
-0.19908
-0.200584
-0.20228
-0.203945
-0.205213
-0.184988
-0.190722
-0.193063
-0.194565
-0.196229
-0.197845
-0.19907
-0.179426
-0.184966
-0.187277
-0.188776
-0.190411
-0.191984
-0.193172
-0.174087
-0.179436
-0.181717
-0.183211
-0.184819
-0.186353
-0.18751
-0.168964
-0.174127
-0.176374
-0.177864
-0.179446
-0.180944
-0.182074
-0.16405
-0.169031
-0.171244
-0.172727
-0.174285
-0.175751
-0.176857
-0.159337
-0.164141
-0.166318
-0.167794
-0.169329
-0.170766
-0.171851
-0.154816
-0.159449
-0.161591
-0.163058
-0.164571
-0.16598
-0.167048
-0.150482
-0.15495
-0.157054
-0.158512
-0.160003
-0.161386
-0.162437
-0.146326
-0.150634
-0.152701
-0.154149
-0.155619
-0.156977
-0.158013
-0.142341
-0.146495
-0.148525
-0.149962
-0.151411
-0.152746
-0.153768
-0.138521
-0.142527
-0.14452
-0.145945
-0.147373
-0.148686
-0.149695
-0.134859
-0.138722
-0.140679
-0.142092
-0.1435
-0.144791
-0.145788
-0.131348
-0.135075
-0.136995
-0.138395
-0.139783
-0.141053
-0.142039
-0.127984
-0.131578
-0.133462
-0.134849
-0.136218
-0.137468
-0.138443
-0.124759
-0.128226
-0.130075
-0.131448
-0.132798
-0.134029
-0.134994
-0.121667
-0.125013
-0.126827
-0.128187
-0.129518
-0.13073
-0.131685
-0.118705
-0.121933
-0.123713
-0.125059
-0.126372
-0.127566
-0.128512
-0.115865
-0.118982
-0.120728
-0.122061
-0.123355
-0.124532
-0.125468
-0.113144
-0.116153
-0.117867
-0.119185
-0.120462
-0.121622
-0.122549
-0.110535
-0.113442
-0.115124
-0.116428
-0.117688
-0.118831
-0.119749
-0.108036
-0.110843
-0.112495
-0.113786
-0.115028
-0.116155
-0.117065
-0.105641
-0.108354
-0.109975
-0.111252
-0.112478
-0.113589
-0.114491
-0.103346
-0.105969
-0.107561
-0.108824
-0.110033
-0.111129
-0.112023
-0.101147
-0.103683
-0.105247
-0.106497
-0.10769
-0.108772
-0.109657
-0.0990404
-0.101494
-0.103031
-0.104267
-0.105444
-0.106512
-0.107389
-0.0970225
-0.0993972
-0.100907
-0.10213
-0.103293
-0.104346
-0.105216
-0.0950899
-0.0973891
-0.0988734
-0.100083
-0.101231
-0.102271
-0.103133
-0.0932392
-0.0954664
-0.0969258
-0.0981229
-0.0992566
-0.100283
-0.101138
-0.0914674
-0.0936257
-0.0950612
-0.0962459
-0.0973656
-0.0983795
-0.099227
-0.0897715
-0.0918641
-0.0932765
-0.094449
-0.0955552
-0.0965567
-0.0973972
-0.0881488
-0.0901787
-0.0915687
-0.0927294
-0.0938224
-0.0948121
-0.0956457
-0.0865964
-0.0885665
-0.0899351
-0.0910843
-0.0921646
-0.0931427
-0.0939696
-0.085112
-0.0870251
-0.0883731
-0.089511
-0.090579
-0.0915459
-0.0923662
-0.0836932
-0.0855519
-0.08688
-0.0880071
-0.0890631
-0.0900193
-0.0908332
-0.0823375
-0.0841445
-0.0854536
-0.0865701
-0.0876146
-0.0885604
-0.0893681
-0.081043
-0.0828007
-0.0840915
-0.0851978
-0.0862312
-0.087167
-0.0879686
-0.0798076
-0.0815184
-0.0827916
-0.083888
-0.0849107
-0.0858369
-0.0866326
-0.0786293
-0.0802955
-0.081552
-0.0826388
-0.0836512
-0.0845681
-0.0853581
-0.0775063
-0.0791302
-0.0803706
-0.0814482
-0.0824507
-0.0833586
-0.0841432
-0.0764369
-0.0780205
-0.0792456
-0.0803144
-0.0813074
-0.0822067
-0.082986
-0.0754194
-0.0769649
-0.0781754
-0.0792356
-0.0802195
-0.0811107
-0.0818848
-0.0744524
-0.0759618
-0.0771582
-0.0782103
-0.0791855
-0.0800688
-0.080838
-0.0735343
-0.0750095
-0.0761926
-0.0772369
-0.0782037
-0.0790795
-0.079844
-0.0726638
-0.0741067
-0.0752772
-0.076314
-0.0772728
-0.0781415
-0.0789014
-0.0718397
-0.073252
-0.0744105
-0.0754402
-0.0763914
-0.0772532
-0.0780088
-0.0710606
-0.0724441
-0.0735913
-0.0746142
-0.0755582
-0.0764135
-0.0771649
-0.0703255
-0.0716819
-0.0728184
-0.0738348
-0.074772
-0.0756211
-0.0763686
-0.0696333
-0.0709643
-0.0720906
-0.0731009
-0.0740316
-0.074875
-0.0756186
-0.0689829
-0.0702901
-0.0714069
-0.0724114
-0.073336
-0.0741739
-0.074914
-0.0683736
-0.0696585
-0.0707663
-0.0717654
-0.0726843
-0.0735169
-0.0742537
-0.0678043
-0.0690685
-0.0701679
-0.0711618
-0.0720754
-0.0729032
-0.0736367
-0.0672743
-0.0685192
-0.0696108
-0.0706
-0.0715085
-0.0723318
-0.0730624
-0.0667828
-0.0680099
-0.0690943
-0.070079
-0.0709829
-0.071802
-0.0725298
-0.0663292
-0.0675398
-0.0686175
-0.0695982
-0.0704977
-0.0713129
-0.0720381
-0.0659127
-0.0671083
-0.06818
-0.0691568
-0.0700524
-0.070864
-0.0715869
-0.0655329
-0.0667148
-0.0677809
-0.0687543
-0.0696462
-0.0704546
-0.0711753
-0.0651892
-0.0663588
-0.0674198
-0.06839
-0.0692787
-0.0700841
-0.0708029
-0.064881
-0.0660396
-0.0670961
-0.0680636
-0.0689493
-0.0697521
-0.0704691
-0.0646081
-0.065757
-0.0668095
-0.0677745
-0.0686577
-0.0694581
-0.0701735
-0.0643699
-0.0655104
-0.0665595
-0.0675224
-0.0684033
-0.0692017
-0.0699158
-0.0641662
-0.0652995
-0.0663457
-0.0673069
-0.0681859
-0.0689825
-0.0696954
-0.0639967
-0.0651241
-0.066168
-0.0671277
-0.0680051
-0.0688003
-0.0695123
-0.0638612
-0.064984
-0.066026
-0.0669846
-0.0678607
-0.0686548
-0.069366
-0.0637595
-0.0648789
-0.0659197
-0.0668774
-0.0677526
-0.0685459
-0.0692565
-0.0636911
-0.0648087
-0.0658488
-0.066806
-0.0676806
-0.0684733
-0.0691836
-0.0636559
-0.0647732
-0.0658132
-0.0667703
-0.0676447
-0.0684371
-0.0691471
-0.278054
-0.269108
-0.25925
-0.251127
-0.243338
-0.235517
-0.228042
-0.220907
-0.213984
-0.207294
-0.200866
-0.194685
-0.188738
-0.183027
-0.177549
-0.172292
-0.167247
-0.162409
-0.157767
-0.153315
-0.149045
-0.14495
-0.141024
-0.137259
-0.133649
-0.130188
-0.126871
-0.12369
-0.120641
-0.117719
-0.114917
-0.11223
-0.109656
-0.107187
-0.104821
-0.102554
-0.10038
-0.0982968
-0.0963006
-0.094388
-0.0925556
-0.0908005
-0.0891197
-0.0875105
-0.0859702
-0.0844965
-0.0830868
-0.0817389
-0.0804509
-0.0792205
-0.078046
-0.0769255
-0.0758574
-0.0748399
-0.0738717
-0.0729512
-0.0720771
-0.0712481
-0.070463
-0.0697207
-0.0690201
-0.0683603
-0.0677402
-0.067159
-0.066616
-0.0661103
-0.0656412
-0.0652081
-0.0648104
-0.0644475
-0.064119
-0.0638244
-0.0635633
-0.0633353
-0.0631401
-0.0629774
-0.0628472
-0.062749
-0.0626821
-0.062647
-0.268396
-0.260047
-0.250136
-0.242311
-0.235183
-0.227763
-0.220511
-0.213661
-0.207047
-0.200624
-0.194452
-0.188534
-0.182845
-0.177376
-0.17213
-0.167097
-0.162267
-0.157633
-0.153188
-0.148925
-0.144837
-0.140916
-0.137157
-0.133552
-0.130095
-0.12678
-0.123602
-0.120554
-0.117632
-0.11483
-0.112143
-0.109567
-0.107096
-0.104727
-0.102455
-0.100277
-0.0981891
-0.0961872
-0.0942683
-0.0924291
-0.0906665
-0.0889778
-0.08736
-0.0858107
-0.0843272
-0.0829074
-0.0815489
-0.0802497
-0.0790076
-0.0778209
-0.0766877
-0.0756063
-0.0745752
-0.0735927
-0.0726574
-0.071768
-0.0709232
-0.0701218
-0.0693626
-0.0686446
-0.0679667
-0.067328
-0.0667277
-0.0661648
-0.0656387
-0.0651485
-0.0646937
-0.0642736
-0.0638877
-0.0635353
-0.0632161
-0.0629296
-0.0626755
-0.0624533
-0.0622628
-0.0621036
-0.0619757
-0.0618787
-0.0618116
-0.0617758
-0.259754
-0.252213
-0.242476
-0.234491
-0.227598
-0.220508
-0.213414
-0.206732
-0.200377
-0.194213
-0.188269
-0.18258
-0.177124
-0.171881
-0.166849
-0.162025
-0.157398
-0.15296
-0.148703
-0.144621
-0.140706
-0.136952
-0.133351
-0.129899
-0.126587
-0.123412
-0.120367
-0.117446
-0.114645
-0.111958
-0.109381
-0.10691
-0.104539
-0.102266
-0.100085
-0.0979936
-0.095988
-0.0940647
-0.0922206
-0.0904526
-0.0887579
-0.0871336
-0.0855771
-0.0840861
-0.0826581
-0.0812909
-0.0799825
-0.0787307
-0.0775338
-0.0763898
-0.0752972
-0.0742542
-0.0732594
-0.0723113
-0.0714085
-0.0705498
-0.0697339
-0.0689597
-0.0682261
-0.0675321
-0.0668767
-0.066259
-0.0656783
-0.0651336
-0.0646243
-0.0641496
-0.063709
-0.0633019
-0.0629276
-0.0625858
-0.062276
-0.0619977
-0.0617505
-0.0615342
-0.0613484
-0.0611929
-0.0610675
-0.0609718
-0.0609048
-0.0608688
-0.251177
-0.243972
-0.234593
-0.226648
-0.219952
-0.213277
-0.206501
-0.200029
-0.193915
-0.188019
-0.182314
-0.176845
-0.171609
-0.166583
-0.161758
-0.157132
-0.152696
-0.148442
-0.144361
-0.140449
-0.136697
-0.133099
-0.129649
-0.126339
-0.123166
-0.120122
-0.117202
-0.114402
-0.111715
-0.109138
-0.106666
-0.104294
-0.102019
-0.0998362
-0.097742
-0.0957331
-0.093806
-0.0919576
-0.0901847
-0.0884846
-0.0868544
-0.0852916
-0.0837937
-0.0823583
-0.0809833
-0.0796664
-0.0784058
-0.0771995
-0.0760457
-0.0749427
-0.0738889
-0.0728827
-0.0719228
-0.0710077
-0.0701361
-0.0693068
-0.0685187
-0.0677707
-0.0670617
-0.0663908
-0.0657571
-0.0651596
-0.0645977
-0.0640706
-0.0635775
-0.0631178
-0.062691
-0.0622964
-0.0619335
-0.0616019
-0.0613011
-0.0610308
-0.0607905
-0.0605799
-0.0603988
-0.0602469
-0.0601241
-0.0600299
-0.0599633
-0.0599273
-0.242828
-0.235974
-0.227112
-0.219335
-0.212714
-0.206285
-0.199783
-0.193497
-0.187565
-0.181894
-0.17642
-0.171161
-0.166131
-0.161312
-0.156688
-0.152253
-0.148003
-0.143928
-0.140021
-0.136275
-0.132683
-0.129239
-0.125936
-0.122768
-0.119729
-0.116814
-0.114018
-0.111336
-0.108762
-0.106293
-0.103923
-0.10165
-0.0994682
-0.0973748
-0.095366
-0.0934385
-0.091589
-0.0898146
-0.0881123
-0.0864794
-0.0849133
-0.0834116
-0.0819718
-0.0805918
-0.0792694
-0.0780027
-0.0767898
-0.0756288
-0.074518
-0.0734559
-0.0724409
-0.0714716
-0.0705465
-0.0696644
-0.0688241
-0.0680244
-0.0672642
-0.0665424
-0.0658582
-0.0652105
-0.0645986
-0.0640215
-0.0634787
-0.0629692
-0.0624926
-0.0620481
-0.0616351
-0.0612533
-0.060902
-0.0605808
-0.0602893
-0.0600271
-0.0597938
-0.0595893
-0.0594131
-0.0592651
-0.059145
-0.0590526
-0.0589867
-0.0589509
-0.234649
-0.227993
-0.219562
-0.212003
-0.205473
-0.199254
-0.193053
-0.187021
-0.1813
-0.175853
-0.170612
-0.165572
-0.160745
-0.156126
-0.151696
-0.147449
-0.143379
-0.139478
-0.135738
-0.132152
-0.128714
-0.125418
-0.122257
-0.119225
-0.116317
-0.113527
-0.11085
-0.108282
-0.105817
-0.103453
-0.101183
-0.0990049
-0.0969144
-0.0949079
-0.0929821
-0.0911337
-0.0893599
-0.0876575
-0.086024
-0.0844567
-0.0829531
-0.0815109
-0.0801279
-0.078802
-0.0775311
-0.0763135
-0.0751472
-0.0740306
-0.072962
-0.07194
-0.0709631
-0.0700299
-0.0691391
-0.0682896
-0.06748
-0.0667094
-0.0659766
-0.0652808
-0.064621
-0.0639962
-0.0634058
-0.062849
-0.0623249
-0.061833
-0.0613727
-0.0609432
-0.0605441
-0.060175
-0.0598352
-0.0595244
-0.0592422
-0.0589882
-0.0587621
-0.0585636
-0.0583925
-0.0582485
-0.0581314
-0.0580409
-0.0579761
-0.0579406
-0.226601
-0.220114
-0.212117
-0.204845
-0.198453
-0.192406
-0.186451
-0.180659
-0.175137
-0.169885
-0.164854
-0.160022
-0.155394
-0.150965
-0.146725
-0.142661
-0.138766
-0.135035
-0.131459
-0.128031
-0.124744
-0.121593
-0.118572
-0.115673
-0.112893
-0.110226
-0.107667
-0.105211
-0.102854
-0.100592
-0.0984208
-0.0963365
-0.0943356
-0.0924148
-0.0905709
-0.0888007
-0.0871014
-0.0854703
-0.0839047
-0.0824023
-0.0809605
-0.0795773
-0.0782506
-0.0769783
-0.0757585
-0.0745895
-0.0734695
-0.072397
-0.0713705
-0.0703883
-0.0694493
-0.0685521
-0.0676955
-0.0668783
-0.0660994
-0.0653578
-0.0646525
-0.0639826
-0.0633472
-0.0627455
-0.0621766
-0.06164
-0.0611349
-0.0606606
-0.0602166
-0.0598023
-0.0594172
-0.0590608
-0.0587327
-0.0584324
-0.0581597
-0.0579141
-0.0576953
-0.0575031
-0.0573372
-0.0571974
-0.0570836
-0.0569953
-0.0569317
-0.0568969
-0.218664
-0.212313
-0.204691
-0.197697
-0.19146
-0.185577
-0.17985
-0.174305
-0.169005
-0.16396
-0.159139
-0.154517
-0.150088
-0.145851
-0.141795
-0.13791
-0.134188
-0.130623
-0.127206
-0.123932
-0.120793
-0.117784
-0.114898
-0.11213
-0.109475
-0.106928
-0.104483
-0.102137
-0.0998852
-0.0977236
-0.0956483
-0.0936559
-0.0917428
-0.089906
-0.0881422
-0.0864486
-0.0848225
-0.0832613
-0.0817625
-0.0803237
-0.0789428
-0.0776176
-0.0763462
-0.0751267
-0.0739572
-0.0728362
-0.0717619
-0.0707329
-0.0697478
-0.0688051
-0.0679035
-0.0670419
-0.0662191
-0.065434
-0.0646855
-0.0639727
-0.0632946
-0.0626504
-0.0620393
-0.0614604
-0.060913
-0.0603965
-0.0599102
-0.0594535
-0.0590259
-0.0586268
-0.0582556
-0.0579121
-0.0575957
-0.0573061
-0.0570429
-0.0568058
-0.0565945
-0.0564087
-0.0562482
-0.0561129
-0.0560025
-0.0559166
-0.0558546
-0.0558205
-0.210802
-0.204573
-0.197303
-0.190595
-0.184548
-0.178842
-0.17333
-0.168015
-0.162933
-0.158089
-0.153466
-0.149042
-0.144807
-0.140756
-0.13688
-0.133171
-0.129619
-0.126216
-0.122957
-0.119834
-0.11684
-0.113971
-0.111219
-0.108579
-0.106047
-0.103617
-0.101286
-0.0990475
-0.0968991
-0.0948364
-0.0928558
-0.0909539
-0.0891274
-0.0873733
-0.0856887
-0.0840707
-0.0825169
-0.0810247
-0.0795918
-0.0782161
-0.0768953
-0.0756275
-0.0744109
-0.0732437
-0.0721241
-0.0710506
-0.0700217
-0.0690359
-0.0680919
-0.0671883
-0.066324
-0.0654978
-0.0647087
-0.0639555
-0.0632373
-0.0625531
-0.0619022
-0.0612837
-0.0606968
-0.0601407
-0.0596148
-0.0591185
-0.058651
-0.058212
-0.0578008
-0.0574169
-0.0570598
-0.0567293
-0.0564247
-0.0561459
-0.0558924
-0.0556639
-0.0554602
-0.0552811
-0.0551262
-0.0549955