/*--------------------------------*- C++ -*----------------------------------*\
  =========                 |
  \\      /  F ield         | OpenFOAM: The Open Source CFD Toolbox
   \\    /   O peration     | Website:  https://openfoam.org
    \\  /    A nd           | Version:  7
     \\/     M anipulation  |
\*---------------------------------------------------------------------------*/
FoamFile
{
    version     2.0;
    format      ascii;
    class       volScalarField;
    location    "20.001";
    object      p;
}
// * * * * * * * * * * * * * * * * * * * * * * * * * * * * * * * * * * * * * //

dimensions      [0 2 -2 0 0 0 0];

internalField   nonuniform List<scalar> 
11400
(
-0.107685
-0.106635
-0.105632
-0.104674
-0.103761
-0.102891
-0.102064
-0.101278
-0.100533
-0.0998286
-0.0991635
-0.0985372
-0.0979491
-0.0973985
-0.0968849
-0.0964078
-0.0959667
-0.0955612
-0.0951909
-0.0948554
-0.0945543
-0.0942875
-0.0940545
-0.0938552
-0.0936894
-0.093557
-0.0934578
-0.0933917
-0.0933586
-0.258017
-0.253412
-0.248549
-0.243683
-0.238851
-0.234064
-0.229343
-0.224701
-0.220146
-0.215684
-0.211317
-0.207049
-0.202881
-0.198815
-0.194852
-0.190993
-0.187236
-0.183582
-0.18003
-0.176579
-0.173228
-0.169975
-0.166818
-0.163757
-0.160789
-0.157914
-0.155128
-0.15243
-0.149819
-0.147292
-0.144848
-0.142484
-0.140199
-0.137991
-0.135857
-0.133797
-0.131808
-0.129889
-0.128037
-0.126251
-0.124529
-0.12287
-0.121272
-0.119734
-0.118253
-0.116829
-0.115461
-0.114146
-0.112884
-0.111673
-0.110512
-0.1094
-0.108336
-0.107319
-0.106347
-0.105421
-0.104538
-0.103699
-0.102901
-0.102145
-0.10143
-0.100754
-0.100118
-0.0995209
-0.0989616
-0.0984398
-0.097955
-0.0975068
-0.0970948
-0.0967184
-0.0963774
-0.0960714
-0.0958001
-0.0955633
-0.0953608
-0.0951923
-0.0950576
-0.0949568
-0.0948896
-0.094856
-0.258558
-0.254077
-0.249333
-0.244575
-0.239841
-0.235144
-0.230507
-0.225944
-0.221462
-0.217068
-0.212765
-0.208555
-0.20444
-0.200423
-0.196503
-0.192683
-0.188961
-0.185338
-0.181812
-0.178384
-0.175051
-0.171814
-0.16867
-0.165618
-0.162658
-0.159786
-0.157003
-0.154305
-0.151692
-0.149161
-0.146712
-0.144342
-0.142049
-0.139832
-0.137689
-0.135619
-0.133618
-0.131687
-0.129823
-0.128024
-0.126289
-0.124617
-0.123006
-0.121454
-0.11996
-0.118522
-0.11714
-0.115812
-0.114536
-0.113312
-0.112138
-0.111014
-0.109937
-0.108908
-0.107925
-0.106987
-0.106093
-0.105243
-0.104435
-0.103669
-0.102945
-0.10226
-0.101616
-0.10101
-0.100443
-0.099914
-0.0994225
-0.098968
-0.0985501
-0.0981684
-0.0978226
-0.0975122
-0.097237
-0.0969968
-0.0967914
-0.0966204
-0.0964839
-0.0963816
-0.0963134
-0.0962794
-0.259016
-0.254653
-0.250024
-0.24537
-0.240727
-0.236113
-0.231551
-0.227059
-0.222644
-0.218311
-0.214065
-0.209908
-0.205843
-0.20187
-0.197992
-0.194208
-0.190519
-0.186925
-0.183426
-0.18002
-0.176707
-0.173486
-0.170356
-0.167315
-0.164363
-0.161498
-0.158719
-0.156023
-0.153411
-0.150879
-0.148427
-0.146053
-0.143755
-0.141532
-0.139382
-0.137304
-0.135295
-0.133354
-0.13148
-0.129672
-0.127926
-0.126243
-0.124621
-0.123057
-0.121552
-0.120103
-0.11871
-0.11737
-0.116083
-0.114848
-0.113663
-0.112528
-0.111441
-0.110401
-0.109408
-0.10846
-0.107557
-0.106697
-0.105881
-0.105106
-0.104373
-0.103681
-0.103029
-0.102416
-0.101842
-0.101307
-0.100809
-0.100349
-0.0999263
-0.0995399
-0.0991897
-0.0988755
-0.0985969
-0.0983537
-0.0981457
-0.0979726
-0.0978343
-0.0977307
-0.0976617
-0.0976272
-0.259406
-0.255154
-0.250633
-0.246075
-0.241517
-0.236979
-0.232487
-0.228058
-0.223703
-0.219426
-0.215231
-0.211123
-0.207102
-0.20317
-0.19933
-0.19558
-0.191922
-0.188356
-0.184882
-0.181498
-0.178204
-0.175
-0.171884
-0.168855
-0.165912
-0.163055
-0.160281
-0.15759
-0.15498
-0.152449
-0.149997
-0.147621
-0.145321
-0.143094
-0.140939
-0.138855
-0.13684
-0.134892
-0.133011
-0.131194
-0.129441
-0.127749
-0.126118
-0.124546
-0.123031
-0.121573
-0.12017
-0.118821
-0.117525
-0.11628
-0.115086
-0.113942
-0.112846
-0.111797
-0.110795
-0.109839
-0.108928
-0.10806
-0.107236
-0.106454
-0.105714
-0.105015
-0.104356
-0.103737
-0.103158
-0.102617
-0.102114
-0.10165
-0.101222
-0.100832
-0.100478
-0.10016
-0.0998785
-0.0996327
-0.0994224
-0.0992474
-0.0991077
-0.0990029
-0.0989332
-0.0988983
-0.259737
-0.255584
-0.25116
-0.24669
-0.242208
-0.237739
-0.23331
-0.228939
-0.224637
-0.22041
-0.216263
-0.212197
-0.208217
-0.204323
-0.200517
-0.196799
-0.193171
-0.189631
-0.18618
-0.182818
-0.179543
-0.176355
-0.173254
-0.170238
-0.167306
-0.164458
-0.161691
-0.159005
-0.156399
-0.153872
-0.151421
-0.149046
-0.146744
-0.144516
-0.142359
-0.140271
-0.138252
-0.1363
-0.134414
-0.132592
-0.130832
-0.129134
-0.127496
-0.125917
-0.124395
-0.12293
-0.12152
-0.120163
-0.11886
-0.117608
-0.116406
-0.115254
-0.114151
-0.113095
-0.112086
-0.111123
-0.110205
-0.109331
-0.1085
-0.107712
-0.106966
-0.106261
-0.105597
-0.104973
-0.104389
-0.103843
-0.103336
-0.102868
-0.102436
-0.102042
-0.101685
-0.101365
-0.101081
-0.100833
-0.10062
-0.100444
-0.100303
-0.100197
-0.100127
-0.100092
-0.260018
-0.25595
-0.251612
-0.247218
-0.242804
-0.238396
-0.234022
-0.229702
-0.225448
-0.221265
-0.217159
-0.213133
-0.20919
-0.20533
-0.201556
-0.197868
-0.194266
-0.190752
-0.187324
-0.183982
-0.180726
-0.177556
-0.174469
-0.171466
-0.168546
-0.165708
-0.16295
-0.160271
-0.157671
-0.155148
-0.1527
-0.150327
-0.148028
-0.1458
-0.143642
-0.141554
-0.139533
-0.137579
-0.135689
-0.133863
-0.1321
-0.130398
-0.128755
-0.127171
-0.125645
-0.124174
-0.122758
-0.121396
-0.120087
-0.118829
-0.117622
-0.116465
-0.115356
-0.114294
-0.11328
-0.112311
-0.111388
-0.110508
-0.109673
-0.10888
-0.108129
-0.107419
-0.106751
-0.106123
-0.105534
-0.104985
-0.104474
-0.104002
-0.103568
-0.103171
-0.102811
-0.102489
-0.102202
-0.101953
-0.101739
-0.101561
-0.101419
-0.101312
-0.101241
-0.101206
-0.260256
-0.25626
-0.251994
-0.247666
-0.24331
-0.238954
-0.234628
-0.230352
-0.226139
-0.221995
-0.217926
-0.213935
-0.210024
-0.206196
-0.20245
-0.198789
-0.195213
-0.191722
-0.188316
-0.184995
-0.181757
-0.178603
-0.175532
-0.172543
-0.169635
-0.166808
-0.164059
-0.161389
-0.158796
-0.156279
-0.153837
-0.151468
-0.149172
-0.146946
-0.14479
-0.142703
-0.140682
-0.138728
-0.136837
-0.13501
-0.133245
-0.131541
-0.129896
-0.128309
-0.126779
-0.125305
-0.123886
-0.12252
-0.121207
-0.119945
-0.118734
-0.117573
-0.11646
-0.115394
-0.114375
-0.113403
-0.112475
-0.111592
-0.110752
-0.109956
-0.109201
-0.108488
-0.107816
-0.107185
-0.106593
-0.106041
-0.105528
-0.105053
-0.104616
-0.104217
-0.103855
-0.103531
-0.103243
-0.102992
-0.102776
-0.102598
-0.102455
-0.102347
-0.102276
-0.10224
-0.260457
-0.256518
-0.252312
-0.248038
-0.243731
-0.239418
-0.235132
-0.230894
-0.226715
-0.222605
-0.218568
-0.214607
-0.210725
-0.206923
-0.203204
-0.199568
-0.196016
-0.192546
-0.189161
-0.185859
-0.182639
-0.179502
-0.176446
-0.173471
-0.170576
-0.167761
-0.165023
-0.162362
-0.159778
-0.157269
-0.154833
-0.15247
-0.150178
-0.147957
-0.145805
-0.14372
-0.141702
-0.139749
-0.13786
-0.136033
-0.134268
-0.132563
-0.130918
-0.12933
-0.127799
-0.126323
-0.124902
-0.123535
-0.122219
-0.120956
-0.119742
-0.118578
-0.117462
-0.116394
-0.115373
-0.114397
-0.113467
-0.112581
-0.111739
-0.11094
-0.110183
-0.109467
-0.108793
-0.108159
-0.107565
-0.107011
-0.106496
-0.106019
-0.10558
-0.10518
-0.104817
-0.10449
-0.104201
-0.103949
-0.103733
-0.103553
-0.10341
-0.103302
-0.10323
-0.103195
-0.260624
-0.256725
-0.252566
-0.248336
-0.244067
-0.23979
-0.235536
-0.231328
-0.227179
-0.223096
-0.219085
-0.21515
-0.211294
-0.207517
-0.203821
-0.200207
-0.196676
-0.193227
-0.189861
-0.186577
-0.183375
-0.180254
-0.177214
-0.174253
-0.171372
-0.168569
-0.165842
-0.163193
-0.160618
-0.158117
-0.15569
-0.153334
-0.151049
-0.148834
-0.146687
-0.144607
-0.142592
-0.140643
-0.138757
-0.136933
-0.13517
-0.133467
-0.131822
-0.130235
-0.128705
-0.127229
-0.125808
-0.12444
-0.123125
-0.12186
-0.120646
-0.119481
-0.118364
-0.117295
-0.116272
-0.115295
-0.114363
-0.113476
-0.112632
-0.111832
-0.111073
-0.110356
-0.10968
-0.109045
-0.10845
-0.107894
-0.107378
-0.1069
-0.10646
-0.106058
-0.105694
-0.105367
-0.105077
-0.104824
-0.104607
-0.104427
-0.104283
-0.104175
-0.104103
-0.104068
-0.260759
-0.256883
-0.252755
-0.248558
-0.244319
-0.240069
-0.235841
-0.231657
-0.22753
-0.22347
-0.219481
-0.215568
-0.211732
-0.207976
-0.204301
-0.200707
-0.197195
-0.193765
-0.190417
-0.187151
-0.183966
-0.180861
-0.177836
-0.174891
-0.172023
-0.169233
-0.16652
-0.163881
-0.161318
-0.158827
-0.156409
-0.154063
-0.151786
-0.149578
-0.147437
-0.145364
-0.143355
-0.141411
-0.139529
-0.13771
-0.13595
-0.134251
-0.132609
-0.131025
-0.129496
-0.128023
-0.126604
-0.125237
-0.123922
-0.122659
-0.121445
-0.120281
-0.119164
-0.118095
-0.117073
-0.116096
-0.115164
-0.114276
-0.113432
-0.112631
-0.111872
-0.111155
-0.110478
-0.109843
-0.109247
-0.108691
-0.108173
-0.107695
-0.107255
-0.106853
-0.106488
-0.10616
-0.10587
-0.105617
-0.1054
-0.105219
-0.105075
-0.104967
-0.104895
-0.104859
-0.260864
-0.256983
-0.252872
-0.2487
-0.244485
-0.240255
-0.236045
-0.231878
-0.227768
-0.223725
-0.219754
-0.215858
-0.21204
-0.208302
-0.204645
-0.201069
-0.197575
-0.194162
-0.190832
-0.187582
-0.184414
-0.181325
-0.178316
-0.175385
-0.172532
-0.169756
-0.167055
-0.16443
-0.161878
-0.159399
-0.156992
-0.154656
-0.152388
-0.15019
-0.148058
-0.145992
-0.143991
-0.142053
-0.140178
-0.138365
-0.136611
-0.134916
-0.133279
-0.131699
-0.130175
-0.128705
-0.127289
-0.125925
-0.124613
-0.123352
-0.122141
-0.120978
-0.119863
-0.118796
-0.117775
-0.116799
-0.115868
-0.114982
-0.114138
-0.113338
-0.112579
-0.111862
-0.111187
-0.110551
-0.109956
-0.1094
-0.108883
-0.108404
-0.107964
-0.107562
-0.107197
-0.10687
-0.10658
-0.106326
-0.106109
-0.105929
-0.105785
-0.105677
-0.105605
-0.105569
-0.260943
-0.257008
-0.252907
-0.248758
-0.24456
-0.240343
-0.236144
-0.231988
-0.227891
-0.22386
-0.219902
-0.21602
-0.212217
-0.208494
-0.204852
-0.201292
-0.197814
-0.194418
-0.191104
-0.187871
-0.184719
-0.181646
-0.178652
-0.175737
-0.172899
-0.170137
-0.167451
-0.164839
-0.162301
-0.159835
-0.15744
-0.155115
-0.152859
-0.15067
-0.148549
-0.146492
-0.1445
-0.142572
-0.140705
-0.138898
-0.137152
-0.135464
-0.133833
-0.132259
-0.130741
-0.129276
-0.127865
-0.126506
-0.125198
-0.123941
-0.122733
-0.121573
-0.120462
-0.119397
-0.118379
-0.117406
-0.116477
-0.115592
-0.114751
-0.113952
-0.113195
-0.11248
-0.111805
-0.111171
-0.110577
-0.110022
-0.109505
-0.109028
-0.108589
-0.108187
-0.107823
-0.107496
-0.107206
-0.106953
-0.106736
-0.106556
-0.106412
-0.106304
-0.106232
-0.106196
-0.260973
-0.256925
-0.252854
-0.248733
-0.244542
-0.240329
-0.236135
-0.231986
-0.227895
-0.223873
-0.219924
-0.216052
-0.212261
-0.208551
-0.204922
-0.201377
-0.197914
-0.194533
-0.191235
-0.188017
-0.184881
-0.181824
-0.178847
-0.175947
-0.173125
-0.170378
-0.167707
-0.16511
-0.162586
-0.160134
-0.157753
-0.155441
-0.153197
-0.151021
-0.148911
-0.146866
-0.144885
-0.142966
-0.141109
-0.139312
-0.137574
-0.135895
-0.134272
-0.132706
-0.131194
-0.129736
-0.128331
-0.126978
-0.125676
-0.124424
-0.123222
-0.122067
-0.12096
-0.119899
-0.118885
-0.117915
-0.11699
-0.116109
-0.11527
-0.114474
-0.11372
-0.113007
-0.112334
-0.111702
-0.11111
-0.110556
-0.110042
-0.109566
-0.109128
-0.108727
-0.108364
-0.108038
-0.107749
-0.107497
-0.107281
-0.107101
-0.106957
-0.10685
-0.106778
-0.106742
-0.260866
-0.256725
-0.252737
-0.248622
-0.244424
-0.240208
-0.236015
-0.231866
-0.227778
-0.223759
-0.219816
-0.215952
-0.212169
-0.20847
-0.204853
-0.201321
-0.197871
-0.194505
-0.191222
-0.188021
-0.1849
-0.18186
-0.178899
-0.176016
-0.17321
-0.17048
-0.167825
-0.165244
-0.162735
-0.160298
-0.157932
-0.155634
-0.153405
-0.151243
-0.149146
-0.147113
-0.145145
-0.143238
-0.141392
-0.139606
-0.137879
-0.136209
-0.134597
-0.133039
-0.131536
-0.130087
-0.12869
-0.127344
-0.12605
-0.124804
-0.123608
-0.12246
-0.121358
-0.120303
-0.119294
-0.118329
-0.117408
-0.116531
-0.115697
-0.114904
-0.114153
-0.113444
-0.112774
-0.112145
-0.111555
-0.111004
-0.110492
-0.110018
-0.109581
-0.109183
-0.108821
-0.108497
-0.108209
-0.107957
-0.107742
-0.107563
-0.10742
-0.107313
-0.107241
-0.107206
-0.260502
-0.256579
-0.252553
-0.248411
-0.244199
-0.239976
-0.235777
-0.231624
-0.227532
-0.223514
-0.219573
-0.215714
-0.211939
-0.208248
-0.204642
-0.201121
-0.197686
-0.194334
-0.191066
-0.18788
-0.184776
-0.181752
-0.178808
-0.175943
-0.173154
-0.170441
-0.167804
-0.16524
-0.162748
-0.160328
-0.157978
-0.155696
-0.153483
-0.151336
-0.149254
-0.147236
-0.145281
-0.143388
-0.141555
-0.139782
-0.138066
-0.136409
-0.134807
-0.13326
-0.131768
-0.130328
-0.128941
-0.127604
-0.126318
-0.125081
-0.123892
-0.122751
-0.121657
-0.120609
-0.119605
-0.118647
-0.117732
-0.11686
-0.11603
-0.115243
-0.114497
-0.113791
-0.113125
-0.1125
-0.111913
-0.111365
-0.110856
-0.110385
-0.109951
-0.109554
-0.109195
-0.108872
-0.108586
-0.108335
-0.108121
-0.107943
-0.107801
-0.107694
-0.107623
-0.107588
-0.260207
-0.256329
-0.252262
-0.24809
-0.243861
-0.239624
-0.235413
-0.231251
-0.227154
-0.223132
-0.219192
-0.215335
-0.211565
-0.207882
-0.204286
-0.200777
-0.197354
-0.194016
-0.190763
-0.187594
-0.184507
-0.181501
-0.178575
-0.175727
-0.172957
-0.170263
-0.167644
-0.165099
-0.162626
-0.160224
-0.157891
-0.155628
-0.153431
-0.151301
-0.149235
-0.147234
-0.145294
-0.143416
-0.141598
-0.139839
-0.138138
-0.136493
-0.134905
-0.13337
-0.13189
-0.130461
-0.129085
-0.127759
-0.126483
-0.125255
-0.124076
-0.122943
-0.121857
-0.120817
-0.119821
-0.11887
-0.117961
-0.117096
-0.116272
-0.115491
-0.11475
-0.114049
-0.113388
-0.112767
-0.112185
-0.111641
-0.111135
-0.110666
-0.110236
-0.109842
-0.109485
-0.109164
-0.10888
-0.108631
-0.108419
-0.108242
-0.108101
-0.107995
-0.107924
-0.107889
-0.259879
-0.255974
-0.251855
-0.24765
-0.243398
-0.239141
-0.234913
-0.230738
-0.226633
-0.222606
-0.218664
-0.214809
-0.211043
-0.207367
-0.20378
-0.200283
-0.196873
-0.19355
-0.190313
-0.187161
-0.184092
-0.181104
-0.178197
-0.17537
-0.172619
-0.169945
-0.167346
-0.164821
-0.162368
-0.159986
-0.157673
-0.155429
-0.153251
-0.151139
-0.149092
-0.147108
-0.145186
-0.143325
-0.141523
-0.13978
-0.138094
-0.136465
-0.13489
-0.13337
-0.131903
-0.130487
-0.129123
-0.127809
-0.126544
-0.125328
-0.124159
-0.123036
-0.12196
-0.120928
-0.119941
-0.118998
-0.118098
-0.11724
-0.116423
-0.115648
-0.114913
-0.114219
-0.113564
-0.112947
-0.11237
-0.11183
-0.111329
-0.110864
-0.110437
-0.110046
-0.109692
-0.109374
-0.109092
-0.108846
-0.108635
-0.108459
-0.108319
-0.108214
-0.108144
-0.108109
-0.25943
-0.255489
-0.25132
-0.247077
-0.242796
-0.238514
-0.234266
-0.230076
-0.22596
-0.221926
-0.217982
-0.214128
-0.210367
-0.206698
-0.203121
-0.199636
-0.19624
-0.192933
-0.189713
-0.186579
-0.183529
-0.180561
-0.177675
-0.174868
-0.17214
-0.169487
-0.16691
-0.164407
-0.161975
-0.159614
-0.157323
-0.1551
-0.152943
-0.150852
-0.148825
-0.14686
-0.144957
-0.143115
-0.141331
-0.139606
-0.137937
-0.136324
-0.134765
-0.13326
-0.131808
-0.130407
-0.129057
-0.127756
-0.126504
-0.1253
-0.124142
-0.123031
-0.121966
-0.120944
-0.119967
-0.119033
-0.118142
-0.117292
-0.116484
-0.115716
-0.114989
-0.114301
-0.113652
-0.113042
-0.11247
-0.111935
-0.111438
-0.110978
-0.110555
-0.110168
-0.109817
-0.109502
-0.109223
-0.108979
-0.10877
-0.108596
-0.108457
-0.108353
-0.108284
-0.108249
-0.258831
-0.25485
-0.250632
-0.24635
-0.242036
-0.237728
-0.233458
-0.229252
-0.225125
-0.221085
-0.217138
-0.213286
-0.20953
-0.20587
-0.202304
-0.198831
-0.195451
-0.192161
-0.18896
-0.185845
-0.182816
-0.179871
-0.177007
-0.174223
-0.171518
-0.168889
-0.166335
-0.163856
-0.161448
-0.15911
-0.156842
-0.154642
-0.152508
-0.150439
-0.148434
-0.14649
-0.144608
-0.142786
-0.141022
-0.139316
-0.137666
-0.136071
-0.13453
-0.133042
-0.131606
-0.130221
-0.128886
-0.1276
-0.126363
-0.125172
-0.124028
-0.122929
-0.121876
-0.120866
-0.1199
-0.118976
-0.118095
-0.117255
-0.116455
-0.115696
-0.114976
-0.114296
-0.113654
-0.113051
-0.112485
-0.111956
-0.111465
-0.11101
-0.110591
-0.110208
-0.109861
-0.10955
-0.109273
-0.109032
-0.108825
-0.108653
-0.108516
-0.108413
-0.108344
-0.10831
-0.258065
-0.25404
-0.249771
-0.245448
-0.241102
-0.236767
-0.232476
-0.228255
-0.224117
-0.220072
-0.216125
-0.212276
-0.208526
-0.204876
-0.201322
-0.197865
-0.194502
-0.191231
-0.188051
-0.184959
-0.181953
-0.179031
-0.176192
-0.173433
-0.170753
-0.16815
-0.165622
-0.163168
-0.160786
-0.158474
-0.156231
-0.154056
-0.151947
-0.149902
-0.14792
-0.146
-0.144141
-0.142341
-0.140599
-0.138913
-0.137284
-0.135709
-0.134187
-0.132718
-0.1313
-0.129932
-0.128614
-0.127344
-0.126122
-0.124946
-0.123816
-0.122732
-0.121691
-0.120694
-0.11974
-0.118828
-0.117957
-0.117128
-0.116338
-0.115588
-0.114878
-0.114206
-0.113572
-0.112976
-0.112417
-0.111895
-0.111409
-0.110959
-0.110546
-0.110168
-0.109825
-0.109517
-0.109244
-0.109005
-0.108801
-0.108631
-0.108495
-0.108394
-0.108326
-0.108292
-0.257109
-0.253036
-0.248717
-0.244354
-0.239976
-0.235616
-0.231306
-0.227071
-0.222926
-0.218878
-0.214932
-0.211088
-0.207348
-0.20371
-0.200173
-0.196733
-0.19339
-0.190141
-0.186984
-0.183916
-0.180936
-0.178041
-0.175228
-0.172497
-0.169845
-0.16727
-0.16477
-0.162344
-0.15999
-0.157706
-0.155491
-0.153343
-0.15126
-0.149241
-0.147285
-0.145391
-0.143556
-0.14178
-0.140061
-0.138399
-0.136791
-0.135238
-0.133737
-0.132288
-0.130889
-0.129541
-0.128241
-0.126988
-0.125783
-0.124624
-0.123509
-0.12244
-0.121414
-0.12043
-0.119489
-0.11859
-0.117731
-0.116913
-0.116134
-0.115395
-0.114694
-0.114031
-0.113405
-0.112817
-0.112266
-0.111751
-0.111272
-0.110828
-0.11042
-0.110047
-0.109709
-0.109405
-0.109136
-0.1089
-0.108699
-0.108531
-0.108397
-0.108297
-0.10823
-0.108197
-0.255938
-0.251817
-0.247449
-0.243049
-0.238641
-0.234258
-0.229933
-0.225689
-0.221539
-0.217492
-0.213551
-0.209717
-0.20599
-0.202368
-0.198849
-0.19543
-0.192111
-0.188887
-0.185756
-0.182716
-0.179764
-0.176898
-0.174116
-0.171415
-0.168793
-0.166249
-0.16378
-0.161385
-0.159061
-0.156807
-0.154621
-0.152502
-0.150449
-0.148458
-0.14653
-0.144663
-0.142855
-0.141104
-0.139411
-0.137773
-0.13619
-0.134659
-0.133181
-0.131754
-0.130376
-0.129048
-0.127768
-0.126534
-0.125347
-0.124206
-0.123108
-0.122055
-0.121044
-0.120076
-0.119149
-0.118263
-0.117417
-0.116611
-0.115844
-0.115116
-0.114426
-0.113773
-0.113157
-0.112577
-0.112034
-0.111527
-0.111055
-0.110618
-0.110216
-0.109848
-0.109515
-0.109216
-0.10895
-0.108718
-0.10852
-0.108355
-0.108223
-0.108124
-0.108058
-0.108025
-0.254527
-0.25036
-0.245947
-0.241512
-0.23708
-0.23268
-0.228344
-0.224095
-0.219946
-0.215904
-0.211973
-0.208153
-0.204443
-0.200842
-0.197346
-0.193953
-0.19066
-0.187465
-0.184364
-0.181355
-0.178436
-0.175602
-0.172853
-0.170186
-0.167598
-0.165087
-0.162652
-0.160289
-0.157999
-0.155777
-0.153624
-0.151537
-0.149514
-0.147554
-0.145656
-0.143818
-0.142038
-0.140316
-0.13865
-0.137039
-0.135481
-0.133975
-0.132521
-0.131117
-0.129763
-0.128456
-0.127197
-0.125984
-0.124817
-0.123694
-0.122615
-0.121578
-0.120585
-0.119632
-0.118721
-0.117849
-0.117018
-0.116225
-0.115471
-0.114754
-0.114075
-0.113433
-0.112827
-0.112257
-0.111722
-0.111223
-0.110759
-0.110329
-0.109934
-0.109572
-0.109244
-0.10895
-0.108689
-0.10846
-0.108265
-0.108103
-0.107973
-0.107875
-0.10781
-0.107778
-0.252849
-0.24864
-0.244187
-0.239726
-0.235275
-0.230864
-0.226524
-0.222277
-0.218135
-0.214105
-0.21019
-0.20639
-0.202703
-0.199127
-0.195659
-0.192297
-0.189036
-0.185874
-0.182807
-0.179834
-0.17695
-0.174153
-0.17144
-0.16881
-0.166258
-0.163784
-0.161385
-0.159059
-0.156804
-0.154618
-0.1525
-0.150447
-0.148458
-0.146531
-0.144665
-0.142858
-0.141109
-0.139417
-0.13778
-0.136197
-0.134667
-0.133188
-0.131759
-0.130381
-0.12905
-0.127767
-0.12653
-0.125339
-0.124193
-0.12309
-0.12203
-0.121013
-0.120037
-0.119101
-0.118206
-0.11735
-0.116533
-0.115755
-0.115014
-0.11431
-0.113643
-0.113012
-0.112417
-0.111857
-0.111332
-0.110842
-0.110386
-0.109964
-0.109575
-0.10922
-0.108898
-0.108609
-0.108352
-0.108128
-0.107936
-0.107776
-0.107649
-0.107553
-0.107489
-0.107457
-0.25088
-0.246635
-0.242152
-0.237671
-0.233211
-0.228798
-0.224462
-0.220224
-0.216097
-0.212087
-0.208195
-0.204421
-0.200764
-0.197219
-0.193785
-0.190458
-0.187234
-0.18411
-0.181083
-0.178149
-0.175305
-0.172549
-0.169877
-0.167286
-0.164775
-0.162341
-0.159982
-0.157695
-0.155479
-0.153331
-0.15125
-0.149234
-0.147281
-0.145389
-0.143558
-0.141785
-0.140069
-0.138408
-0.136802
-0.13525
-0.133748
-0.132298
-0.130897
-0.129545
-0.12824
-0.126982
-0.125769
-0.124601
-0.123477
-0.122396
-0.121357
-0.120359
-0.119402
-0.118485
-0.117607
-0.116768
-0.115967
-0.115203
-0.114476
-0.113786
-0.113132
-0.112513
-0.11193
-0.11138
-0.110866
-0.110385
-0.109937
-0.109523
-0.109142
-0.108794
-0.108478
-0.108194
-0.107942
-0.107722
-0.107534
-0.107377
-0.107252
-0.107158
-0.107096
-0.107064
-0.248596
-0.244325
-0.239821
-0.235331
-0.230872
-0.226466
-0.222145
-0.217927
-0.213824
-0.209841
-0.20598
-0.202241
-0.19862
-0.195114
-0.191721
-0.188435
-0.185254
-0.182174
-0.17919
-0.176301
-0.173502
-0.17079
-0.168162
-0.165617
-0.16315
-0.160759
-0.158443
-0.156199
-0.154024
-0.151918
-0.149877
-0.1479
-0.145986
-0.144132
-0.142337
-0.1406
-0.138919
-0.137293
-0.13572
-0.134199
-0.132729
-0.131309
-0.129937
-0.128613
-0.127336
-0.126104
-0.124916
-0.123773
-0.122672
-0.121613
-0.120596
-0.119619
-0.118682
-0.117784
-0.116925
-0.116103
-0.115319
-0.114571
-0.11386
-0.113184
-0.112543
-0.111937
-0.111366
-0.110828
-0.110324
-0.109853
-0.109415
-0.109009
-0.108636
-0.108294
-0.107985
-0.107707
-0.10746
-0.107245
-0.10706
-0.106907
-0.106784
-0.106692
-0.106631
-0.1066
-0.245975
-0.241689
-0.237177
-0.232692
-0.228245
-0.223859
-0.219563
-0.215375
-0.211306
-0.207361
-0.203541
-0.199844
-0.196268
-0.192808
-0.189462
-0.186225
-0.183093
-0.180062
-0.177129
-0.174289
-0.171539
-0.168877
-0.166299
-0.163801
-0.161383
-0.15904
-0.15677
-0.154572
-0.152442
-0.15038
-0.148382
-0.146447
-0.144574
-0.142761
-0.141005
-0.139306
-0.137662
-0.136072
-0.134534
-0.133047
-0.13161
-0.130222
-0.128881
-0.127587
-0.126338
-0.125134
-0.123973
-0.122856
-0.12178
-0.120745
-0.119751
-0.118796
-0.11788
-0.117002
-0.116162
-0.115359
-0.114592
-0.113861
-0.113166
-0.112505
-0.111879
-0.111286
-0.110727
-0.110201
-0.109708
-0.109248
-0.108819
-0.108423
-0.108058
-0.107724
-0.107421
-0.107149
-0.106908
-0.106697
-0.106517
-0.106367
-0.106247
-0.106157
-0.106097
-0.106067
-0.242999
-0.238712
-0.234206
-0.229739
-0.225319
-0.220966
-0.216708
-0.212562
-0.208539
-0.204643
-0.200873
-0.197228
-0.193705
-0.1903
-0.187009
-0.183827
-0.180751
-0.177776
-0.174898
-0.172114
-0.169419
-0.166811
-0.164286
-0.161842
-0.159475
-0.157184
-0.154964
-0.152815
-0.150734
-0.148719
-0.146767
-0.144878
-0.143048
-0.141278
-0.139564
-0.137905
-0.1363
-0.134748
-0.133247
-0.131796
-0.130394
-0.129039
-0.127731
-0.126468
-0.12525
-0.124075
-0.122943
-0.121852
-0.120803
-0.119793
-0.118823
-0.117891
-0.116997
-0.116141
-0.115321
-0.114537
-0.113789
-0.113075
-0.112396
-0.111751
-0.11114
-0.110562
-0.110016
-0.109503
-0.109022
-0.108572
-0.108154
-0.107767
-0.10741
-0.107084
-0.106789
-0.106523
-0.106288
-0.106082
-0.105906
-0.105759
-0.105642
-0.105554
-0.105496
-0.105467
-0.239651
-0.235378
-0.230895
-0.226462
-0.222084
-0.217779
-0.213573
-0.209483
-0.205518
-0.201681
-0.197972
-0.19439
-0.19093
-0.187588
-0.18436
-0.181242
-0.178228
-0.175316
-0.1725
-0.169776
-0.167142
-0.164594
-0.162128
-0.159741
-0.15743
-0.155194
-0.153029
-0.150933
-0.148903
-0.146938
-0.145036
-0.143194
-0.141411
-0.139686
-0.138016
-0.1364
-0.134837
-0.133325
-0.131863
-0.13045
-0.129084
-0.127765
-0.126491
-0.125261
-0.124074
-0.12293
-0.121827
-0.120765
-0.119743
-0.118759
-0.117814
-0.116907
-0.116036
-0.115202
-0.114403
-0.113639
-0.11291
-0.112215
-0.111554
-0.110926
-0.11033
-0.109766
-0.109235
-0.108735
-0.108266
-0.107827
-0.10742
-0.107042
-0.106695
-0.106377
-0.106089
-0.10583
-0.105601
-0.1054
-0.105228
-0.105086
-0.104971
-0.104886
-0.104829
-0.1048
-0.235918
-0.231677
-0.227236
-0.222855
-0.218535
-0.214293
-0.210154
-0.206134
-0.20224
-0.198475
-0.194839
-0.19133
-0.187942
-0.184673
-0.181517
-0.17847
-0.175527
-0.172683
-0.169936
-0.167279
-0.164711
-0.162227
-0.159825
-0.1575
-0.15525
-0.153073
-0.150966
-0.148926
-0.146952
-0.14504
-0.14319
-0.141399
-0.139666
-0.137988
-0.136365
-0.134794
-0.133274
-0.131805
-0.130384
-0.12901
-0.127683
-0.1264
-0.125162
-0.123967
-0.122813
-0.121701
-0.120629
-0.119597
-0.118603
-0.117647
-0.116728
-0.115846
-0.114999
-0.114188
-0.113411
-0.112669
-0.11196
-0.111284
-0.110641
-0.11003
-0.10945
-0.108902
-0.108385
-0.107898
-0.107442
-0.107016
-0.106619
-0.106252
-0.105914
-0.105605
-0.105324
-0.105072
-0.104849
-0.104654
-0.104487
-0.104348
-0.104237
-0.104153
-0.104098
-0.10407
-0.231793
-0.227603
-0.223223
-0.218912
-0.214668
-0.210507
-0.20645
-0.202514
-0.198705
-0.195026
-0.191474
-0.188048
-0.184744
-0.181556
-0.178481
-0.175513
-0.172648
-0.169881
-0.167208
-0.164626
-0.162129
-0.159715
-0.157381
-0.155123
-0.152939
-0.150825
-0.148779
-0.1468
-0.144884
-0.143029
-0.141234
-0.139497
-0.137815
-0.136188
-0.134613
-0.13309
-0.131616
-0.130191
-0.128813
-0.12748
-0.126193
-0.124949
-0.123748
-0.122589
-0.12147
-0.120391
-0.119351
-0.11835
-0.117386
-0.116458
-0.115567
-0.11471
-0.113889
-0.113102
-0.112348
-0.111627
-0.110939
-0.110283
-0.109659
-0.109065
-0.108503
-0.107971
-0.107469
-0.106996
-0.106553
-0.106139
-0.105754
-0.105397
-0.105069
-0.104769
-0.104496
-0.104252
-0.104035
-0.103845
-0.103683
-0.103548
-0.10344
-0.103359
-0.103305
-0.103278
-0.227271
-0.223153
-0.218855
-0.214634
-0.210485
-0.20642
-0.202463
-0.198627
-0.194917
-0.191335
-0.18788
-0.184549
-0.181338
-0.178242
-0.175256
-0.172376
-0.169597
-0.166913
-0.164322
-0.161819
-0.1594
-0.157061
-0.154801
-0.152614
-0.150499
-0.148453
-0.146473
-0.144557
-0.142702
-0.140908
-0.139171
-0.13749
-0.135863
-0.134289
-0.132765
-0.131291
-0.129865
-0.128486
-0.127153
-0.125864
-0.124618
-0.123415
-0.122252
-0.12113
-0.120048
-0.119003
-0.117997
-0.117027
-0.116094
-0.115196
-0.114333
-0.113504
-0.112708
-0.111946
-0.111216
-0.110518
-0.109851
-0.109216
-0.108611
-0.108036
-0.107491
-0.106975
-0.106489
-0.106031
-0.105601
-0.1052
-0.104827
-0.104481
-0.104163
-0.103872
-0.103608
-0.10337
-0.10316
-0.102976
-0.102819
-0.102688
-0.102583
-0.102505
-0.102452
-0.102426
-0.222354
-0.218329
-0.214134
-0.210023
-0.205987
-0.202038
-0.198196
-0.194475
-0.190878
-0.187407
-0.184061
-0.180837
-0.17773
-0.174735
-0.171848
-0.169063
-0.166377
-0.163785
-0.161281
-0.158864
-0.156528
-0.15427
-0.152088
-0.149977
-0.147936
-0.145961
-0.144051
-0.142202
-0.140413
-0.138681
-0.137005
-0.135383
-0.133814
-0.132294
-0.130824
-0.129402
-0.128026
-0.126695
-0.125408
-0.124164
-0.122962
-0.1218
-0.120678
-0.119595
-0.118549
-0.117541
-0.116569
-0.115632
-0.114731
-0.113863
-0.113029
-0.112228
-0.11146
-0.110723
-0.110017
-0.109343
-0.108698
-0.108084
-0.107499
-0.106943
-0.106416
-0.105918
-0.105447
-0.105004
-0.104589
-0.104201
-0.103839
-0.103505
-0.103197
-0.102915
-0.10266
-0.10243
-0.102227
-0.102049
-0.101897
-0.10177
-0.101669
-0.101593
-0.101542
-0.101517
-0.217048
-0.213137
-0.209067
-0.205087
-0.201183
-0.197367
-0.193658
-0.190066
-0.186597
-0.18325
-0.180026
-0.176919
-0.173926
-0.171041
-0.168262
-0.165581
-0.162996
-0.160501
-0.158092
-0.155766
-0.153519
-0.151348
-0.149248
-0.147218
-0.145255
-0.143356
-0.141518
-0.13974
-0.138019
-0.136353
-0.134741
-0.133181
-0.131671
-0.130209
-0.128795
-0.127426
-0.126102
-0.124821
-0.123583
-0.122385
-0.121227
-0.120109
-0.119028
-0.117985
-0.116978
-0.116007
-0.11507
-0.114168
-0.113299
-0.112463
-0.111659
-0.110887
-0.110146
-0.109436
-0.108755
-0.108105
-0.107483
-0.106891
-0.106326
-0.10579
-0.105282
-0.1048
-0.104346
-0.103919
-0.103518
-0.103143
-0.102794
-0.102471
-0.102174
-0.101902
-0.101656
-0.101434
-0.101237
-0.101066
-0.100919
-0.100796
-0.100698
-0.100625
-0.100576
-0.100552
-0.211363
-0.20759
-0.203667
-0.199837
-0.196084
-0.192418
-0.188857
-0.18541
-0.182082
-0.178873
-0.175781
-0.172803
-0.169934
-0.16717
-0.164506
-0.161937
-0.15946
-0.15707
-0.154762
-0.152534
-0.150381
-0.1483
-0.146288
-0.144343
-0.142462
-0.140642
-0.138881
-0.137176
-0.135527
-0.13393
-0.132384
-0.130888
-0.12944
-0.128038
-0.126681
-0.125368
-0.124098
-0.122869
-0.12168
-0.12053
-0.119419
-0.118345
-0.117307
-0.116305
-0.115338
-0.114405
-0.113505
-0.112637
-0.111802
-0.110999
-0.110226
-0.109483
-0.108771
-0.108087
-0.107433
-0.106807
-0.106209
-0.105638
-0.105095
-0.104579
-0.104089
-0.103626
-0.103189
-0.102777
-0.102391
-0.10203
-0.101694
-0.101383
-0.101097
-0.100835
-0.100597
-0.100384
-0.100194
-0.100029
-0.0998868
-0.0997688
-0.0996745
-0.0996038
-0.0995567
-0.0995332
-0.205316
-0.201703
-0.197948
-0.194288
-0.190704
-0.187205
-0.183808
-0.180521
-0.177347
-0.174288
-0.17134
-0.1685
-0.165765
-0.16313
-0.16059
-0.158141
-0.155779
-0.153499
-0.151298
-0.149173
-0.147119
-0.145134
-0.143215
-0.141358
-0.139563
-0.137825
-0.136144
-0.134517
-0.132941
-0.131416
-0.129939
-0.12851
-0.127126
-0.125786
-0.124488
-0.123233
-0.122018
-0.120842
-0.119704
-0.118604
-0.11754
-0.116512
-0.115518
-0.114559
-0.113632
-0.112738
-0.111875
-0.111044
-0.110244
-0.109473
-0.108732
-0.10802
-0.107336
-0.106681
-0.106052
-0.105452
-0.104878
-0.10433
-0.103809
-0.103313
-0.102843
-0.102398
-0.101977
-0.101582
-0.101211
-0.100864
-0.100541
-0.100242
-0.099967
-0.0997152
-0.0994867
-0.0992814
-0.0990992
-0.09894
-0.0988038
-0.0986903
-0.0985996
-0.0985317
-0.0984864
-0.0984638
-0.198929
-0.195496
-0.19193
-0.188458
-0.185061
-0.181745
-0.178526
-0.175412
-0.172406
-0.169507
-0.166714
-0.164023
-0.16143
-0.158932
-0.156524
-0.154202
-0.151961
-0.149798
-0.14771
-0.145692
-0.143743
-0.141858
-0.140035
-0.138271
-0.136565
-0.134913
-0.133315
-0.131767
-0.130269
-0.128817
-0.127412
-0.126051
-0.124733
-0.123457
-0.122221
-0.121025
-0.119866
-0.118745
-0.11766
-0.116611
-0.115596
-0.114614
-0.113666
-0.112749
-0.111864
-0.11101
-0.110186
-0.109392
-0.108627
-0.10789