/*--------------------------------*- C++ -*----------------------------------*\
  =========                 |
  \\      /  F ield         | OpenFOAM: The Open Source CFD Toolbox
   \\    /   O peration     | Website:  https://openfoam.org
    \\  /    A nd           | Version:  7
     \\/     M anipulation  |
\*---------------------------------------------------------------------------*/
FoamFile
{
    version     2.0;
    format      ascii;
    class       surfaceScalarField;
    location    "20.001";
    object      phi;
}
// * * * * * * * * * * * * * * * * * * * * * * * * * * * * * * * * * * * * * //

dimensions      [0 3 -1 0 0 0 0];

internalField   nonuniform List<scalar> 
22580
(
0.000186937
0.00566458
0.000179529
0.00565761
0.000172199
0.00565091
0.000164945
0.00564447
0.000157764
0.0056383
0.000150654
0.00563238
0.000143612
0.00562672
0.000136635
0.00562132
0.00012972
0.00561618
0.000122865
0.00561129
0.000116067
0.00560665
0.000109322
0.00560227
0.000102628
0.00559813
9.59817e-05
0.00559425
8.93804e-05
0.00559061
8.28212e-05
0.00558722
7.63008e-05
0.00558407
6.98165e-05
0.00558118
6.33651e-05
0.00557852
5.69437e-05
0.00557611
5.05493e-05
0.00557394
4.41787e-05
0.00557201
3.78288e-05
0.00557033
3.14966e-05
0.00556888
2.51788e-05
0.00556768
1.88727e-05
0.00556672
1.25758e-05
0.00556601
6.28581e-06
0.00556554
0.0055653
0.000522382
0.00600937
-0.000496032
0.000540429
0.00614725
0.000550547
0.00622947
0.000554269
0.00627108
0.000553543
0.00628634
0.00055001
0.006286
0.00054478
0.00627697
0.000538519
0.00626331
0.000531607
0.00624722
0.00052425
0.00622985
0.00051656
0.00621177
0.000508596
0.00619327
0.000500396
0.00617452
0.000491989
0.00615567
0.000483407
0.00613687
0.000474684
0.00611826
0.000465853
0.00609996
0.000456944
0.00608205
0.000447983
0.00606458
0.00043899
0.00604755
0.00042998
0.00603096
0.000420965
0.00601478
0.000411954
0.00599898
0.000402956
0.00598352
0.000393978
0.0059684
0.000385028
0.00595359
0.000376113
0.00593909
0.00036724
0.00592489
0.000358416
0.00591099
0.000349647
0.00589738
0.000340939
0.00588407
0.000332296
0.00587105
0.000323723
0.00585833
0.000315223
0.00584591
0.0003068
0.00583378
0.000298456
0.00582195
0.000290193
0.00581041
0.000282013
0.00579916
0.000273918
0.0057882
0.000265907
0.00577754
0.000257981
0.00576716
0.000250142
0.00575707
0.000242387
0.00574727
0.000234718
0.00573774
0.000227133
0.00572851
0.000219631
0.00571955
0.000212212
0.00571087
0.000204874
0.00570247
0.000197615
0.00569435
0.000190435
0.0056865
0.000183331
0.00567892
0.000176301
0.00567161
0.000169343
0.00566457
0.000162456
0.0056578
0.000155637
0.00565129
0.000148884
0.00564505
0.000142194
0.00563907
0.000135566
0.00563335
0.000128996
0.00562789
0.000122483
0.00562269
0.000116024
0.00561775
0.000109616
0.00561306
0.000103256
0.00560863
9.6943e-05
0.00560445
9.06731e-05
0.00560052
8.4444e-05
0.00559684
7.8253e-05
0.00559341
7.20974e-05
0.00559023
6.59745e-05
0.0055873
5.98817e-05
0.00558461
5.38161e-05
0.00558218
4.7775e-05
0.00557998
4.17557e-05
0.00557803
3.57553e-05
0.00557633
2.97709e-05
0.00557487
2.37998e-05
0.00557365
1.78394e-05
0.00557268
1.18875e-05
0.00557196
5.94189e-06
0.00557148
0.00557125
0.000476421
0.00598338
-0.000450431
0.000494744
0.00612892
0.000505664
0.00621855
0.000510421
0.00626633
0.000510719
0.00628605
0.000508106
0.00628861
0.000503703
0.00628137
0.000498212
0.0062688
0.000492045
0.00625338
0.000485429
0.00623646
0.000478487
0.00621871
0.000471285
0.00620047
0.00046386
0.00618194
0.000456241
0.00616329
0.000448456
0.00614465
0.000440536
0.00612618
0.00043251
0.00610798
0.000424406
0.00609015
0.000416246
0.00607273
0.00040805
0.00605575
0.000399833
0.00603918
0.000391604
0.00602301
0.000383372
0.00600721
0.000375145
0.00599175
0.00036693
0.00597662
0.000358733
0.00596179
0.00035056
0.00594726
0.00034242
0.00593303
0.000334316
0.00591909
0.000326256
0.00590544
0.000318244
0.00589208
0.000310286
0.00587901
0.000302384
0.00586624
0.000294544
0.00585375
0.000286767
0.00584156
0.000279057
0.00582966
0.000271415
0.00581805
0.000263845
0.00580673
0.000256346
0.0057957
0.00024892
0.00578496
0.000241569
0.00577451
0.000234291
0.00576435
0.000227087
0.00575447
0.000219957
0.00574487
0.000212902
0.00573556
0.000205919
0.00572653
0.000199009
0.00571778
0.000192169
0.00570931
0.000185401
0.00570112
0.000178701
0.0056932
0.000172068
0.00568555
0.000165501
0.00567818
0.000158999
0.00567107
0.000152559
0.00566424
0.00014618
0.00565767
0.000139859
0.00565137
0.000133596
0.00564534
0.000127387
0.00563956
0.000121231
0.00563405
0.000115125
0.0056288
0.000109067
0.00562381
0.000103055
0.00561907
9.70872e-05
0.0056146
9.11605e-05
0.00561037
8.52729e-05
0.0056064
7.9422e-05
0.00560269
7.36053e-05
0.00559923
6.78205e-05
0.00559602
6.20653e-05
0.00559305
5.6337e-05
0.00559034
5.06334e-05
0.00558788
4.49519e-05
0.00558566
3.929e-05
0.00558369
3.36451e-05
0.00558197
2.80148e-05
0.0055805
2.23965e-05
0.00557927
1.67879e-05
0.00557829
1.11871e-05
0.00557756
5.59191e-06
0.00557708
0.00557684
0.00043179
0.00595799
-0.0004064
0.00045017
0.00611055
0.000461675
0.00620704
0.0004673
0.0062607
0.000468521
0.00628483
0.000466774
0.00629036
0.00046316
0.00628499
0.000458407
0.00627355
0.000452951
0.00625884
0.00044704
0.00624237
0.000440808
0.00622494
0.000434328
0.00620695
0.000427639
0.00618863
0.00042077
0.00617016
0.000413745
0.00615168
0.000406592
0.00613333
0.000399337
0.00611524
0.000392004
0.00609748
0.000384616
0.00608012
0.000377189
0.00606317
0.000369737
0.00604663
0.000362269
0.00603048
0.000354793
0.00601469
0.000347316
0.00599923
0.000339843
0.00598409
0.000332381
0.00596925
0.000324935
0.00595471
0.000317512
0.00594045
0.000310116
0.00592649
0.000302752
0.0059128
0.000295427
0.00589941
0.000288143
0.0058863
0.000280905
0.00587347
0.000273717
0.00586094
0.000266581
0.0058487
0.0002595
0.00583674
0.000252476
0.00582507
0.000245512
0.0058137
0.000238608
0.00580261
0.000231767
0.0057918
0.000224987
0.00578129
0.000218271
0.00577106
0.000211619
0.00576112
0.00020503
0.00575146
0.000198505
0.00574209
0.000192043
0.00573299
0.000185644
0.00572418
0.000179306
0.00571565
0.00017303
0.00570739
0.000166814
0.00569941
0.000160657
0.00569171
0.000154557
0.00568428
0.000148514
0.00567712
0.000142526
0.00567023
0.000136591
0.00566361
0.000130708
0.00565725
0.000124874
0.00565117
0.00011909
0.00564535
0.000113351
0.00563979
0.000107658
0.00563449
0.000102007
0.00562946
9.63964e-05
0.00562468
9.0825e-05
0.00562017
8.52903e-05
0.00561591
7.97902e-05
0.0056119
7.43228e-05
0.00560816
6.88859e-05
0.00560466
6.34774e-05
0.00560142
5.80952e-05
0.00559844
5.27371e-05
0.0055957
4.74009e-05
0.00559322
4.20844e-05
0.00559098
3.67855e-05
0.00558899
3.15018e-05
0.00558726
2.62311e-05
0.00558577
2.09711e-05
0.00558453
1.57199e-05
0.00558354
1.04756e-05
0.00558281
5.23638e-06
0.00558232
0.00558207
0.000388435
0.00593341
-0.000363855
0.000406668
0.00609231
0.000418555
0.00619516
0.000424881
0.00625438
0.000426912
0.00628279
0.000425963
0.0062913
0.000423095
0.00628785
0.000419045
0.0062776
0.000414268
0.00626362
0.00040903
0.00624761
0.000403477
0.00623049
0.000397687
0.00621274
0.000391701
0.00619462
0.000385548
0.00617631
0.000379252
0.00615798
0.000372835
0.00613975
0.000366321
0.00612175
0.000359733
0.00610407
0.000353089
0.00608677
0.000346407
0.00606986
0.000339697
0.00605334
0.000332968
0.00603721
0.000326228
0.00602143
0.000319481
0.00600598
0.000312734
0.00599084
0.000305991
0.005976
0.000299257
0.00596144
0.000292537
0.00594717
0.000285836
0.00593319
0.000279158
0.00591948
0.000272509
0.00590606
0.000265891
0.00589291
0.00025931
0.00588006
0.000252767
0.00586748
0.000246267
0.0058552
0.00023981
0.0058432
0.000233401
0.00583148
0.00022704
0.00582006
0.000220729
0.00580892
0.000214469
0.00579806
0.000208261
0.0057875
0.000202107
0.00577722
0.000196006
0.00576722
0.000189958
0.00575751
0.000183965
0.00574808
0.000178025
0.00573893
0.000172138
0.00573007
0.000166304
0.00572148
0.000160523
0.00571317
0.000154793
0.00570514
0.000149114
0.00569739
0.000143485
0.00568991
0.000137904
0.0056827
0.000132371
0.00567576
0.000126884
0.00566909
0.000121442
0.0056627
0.000116044
0.00565657
0.000110687
0.0056507
0.000105371
0.00564511
0.000100094
0.00563977
9.48541e-05
0.0056347
8.965e-05
0.00562989
8.44797e-05
0.00562534
7.93416e-05
0.00562105
7.42338e-05
0.00561701
6.91547e-05
0.00561324
6.41024e-05
0.00560972
5.9075e-05
0.00560645
5.40707e-05
0.00560344
4.90876e-05
0.00560068
4.41238e-05
0.00559818
3.91774e-05
0.00559593
3.42463e-05
0.00559392
2.93287e-05
0.00559217
2.44225e-05
0.00559068
1.95258e-05
0.00558943
1.46369e-05
0.00558843
9.75414e-06
0.00558769
4.87584e-06
0.0055872
0.00558695
0.000346254
0.00590982
-0.000322668
0.000364158
0.00607441
0.000376248
0.00618307
0.000383118
0.00624751
0.000385848
0.00628006
0.000385624
0.00629153
0.000383457
0.00629002
0.000380074
0.00628098
0.000375947
0.00626774
0.000371355
0.00625221
0.000366452
0.0062354
0.000361323
0.00621787
0.000356013
0.00619993
0.00035055
0.00618177
0.000344955
0.00616357
0.000339248
0.00614546
0.000333451
0.00612755
0.000327584
0.00610994
0.000321663
0.00609269
0.000315703
0.00607582
0.000309716
0.00605933
0.000303707
0.00604322
0.000297685
0.00602745
0.000291653
0.00601201
0.000285615
0.00599687
0.000279577
0.00598203
0.000273541
0.00596748
0.000267513
0.0059532
0.000261496
0.0059392
0.000255494
0.00592548
0.000249512
0.00591204
0.000243554
0.00589887
0.000237621
0.00588599
0.000231718
0.00587339
0.000225847
0.00586107
0.000220011
0.00584903
0.000214212
0.00583728
0.000208451
0.00582582
0.00020273
0.00581464
0.00019705
0.00580374
0.000191413
0.00579314
0.000185819
0.00578281
0.000180268
0.00577277
0.000174762
0.00576302
0.000169301
0.00575354
0.000163884
0.00574435
0.000158511
0.00573544
0.000153183
0.00572681
0.000147898
0.00571846
0.000142657
0.00571038
0.000137458
0.00570259
0.000132302
0.00569506
0.000127187
0.00568781
0.000122111
0.00568084
0.000117076
0.00567413
0.000112078
0.00566769
0.000107117
0.00566153
0.000102193
0.00565563
9.73024e-05
0.00565
9.24455e-05
0.00564463
8.76208e-05
0.00563952
8.28265e-05
0.00563468
7.80614e-05
0.0056301
7.33239e-05
0.00562578
6.86126e-05
0.00562172
6.39259e-05
0.00561792
5.92623e-05
0.00561438
5.46203e-05
0.00561109
4.99982e-05
0.00560806
4.53944e-05
0.00560529
4.08073e-05
0.00560277
3.62352e-05
0.0056005
3.16764e-05
0.00559848
2.71293e-05
0.00559672
2.2592e-05
0.00559521
1.8063e-05
0.00559396
1.35408e-05
0.00559296
9.02389e-06
0.00559221
4.51088e-06
0.00559171
0.00559146
0.000305118
0.00588739
-0.000282682
0.000322534
0.00605699
0.000334668
0.00617093
0.000341945
0.00624023
0.00034527
0.00627674
0.000345702
0.0062911
0.00034419
0.00629153
0.000341444
0.00628373
0.000337941
0.00627125
0.000333969
0.00625618
0.000329693
0.00623967
0.000325203
0.00622236
0.000320546
0.00620458
0.000315749
0.00618657
0.000310833
0.00616849
0.000305816
0.00615047
0.000300715
0.00613265
0.000295549
0.00611511
0.000290333
0.0060979
0.000285079
0.00608107
0.000279796
0.00606461
0.000274493
0.00604852
0.000269173
0.00603277
0.000263841
0.00601734
0.0002585
0.00600222
0.000253154
0.00598738
0.000247805
0.00597283
0.000242458
0.00595855
0.000237115
0.00594455
0.000231781
0.00593082
0.000226458
0.00591736
0.000221151
0.00590418
0.000215861
0.00589128
0.000210592
0.00587865
0.000205346
0.00586631
0.000200125
0.00585425
0.000194932
0.00584248
0.000189768
0.00583098
0.000184634
0.00581977
0.000179533
0.00580885
0.000174464
0.0057982
0.000169429
0.00578785
0.000164429
0.00577777
0.000159464
0.00576798
0.000154535
0.00575847
0.000149641
0.00574925
0.000144783
0.0057403
0.000139961
0.00573163
0.000135174
0.00572324
0.000130423
0.00571513
0.000125707
0.0057073
0.000121025
0.00569974
0.000116377
0.00569246
0.000111762
0.00568545
0.00010718
0.00567871
0.000102629
0.00567225
9.81092e-05
0.00566605
9.36192e-05
0.00566012
8.91579e-05
0.00565446
8.47247e-05
0.00564906
8.03179e-05
0.00564393
7.59368e-05
0.00563906
7.15801e-05
0.00563446
6.72467e-05
0.00563012
6.29353e-05
0.00562604
5.86446e-05
0.00562221
5.43734e-05
0.00561865
5.01203e-05
0.00561535
4.5884e-05
0.0056123
4.16632e-05
0.00560951
3.74566e-05
0.00560697
3.32626e-05
0.00560469
2.90799e-05
0.00560267
2.4907e-05
0.00560089
2.07424e-05
0.00559938
1.65849e-05
0.00559811
1.24332e-05
0.00559711
8.28598e-06
0.00559635
4.14209e-06
0.00559585
0.0055956
0.000264897
0.00586623
-0.000243741
0.000281685
0.0060402
0.000293722
0.0061589
0.000301282
0.00623267
0.000305108
0.00627291
0.000306133
0.00629007
0.000305234
0.00629243
0.000303097
0.00628587
0.000300196
0.00627415
0.000296827
0.00625955
0.00029316
0.00624334
0.000289291
0.00622623
0.000285269
0.00620861
0.000281121
0.00619072
0.000276867
0.00617274
0.000272521
0.00615482
0.000268101
0.00613707
0.000263621
0.00611959
0.000259093
0.00610243
0.00025453
0.00608563
0.00024994
0.0060692
0.000245328
0.00605313
0.000240699
0.0060374
0.000236055
0.00602198
0.000231399
0.00600687
0.000226735
0.00599205
0.000222063
0.0059775
0.000217387
0.00596323
0.000212711
0.00594922
0.000208036
0.00593549
0.000203365
0.00592203
0.000198702
0.00590884
0.000194049
0.00589593
0.000189409
0.0058833
0.000184783
0.00587094
0.000180174
0.00585886
0.000175583
0.00584707
0.000171013
0.00583555
0.000166464
0.00582432
0.000161938
0.00581337
0.000157436
0.00580271
0.000152959
0.00579232
0.000148508
0.00578222
0.000144084
0.00577241
0.000139686
0.00576287
0.000135315
0.00575362
0.000130972
0.00574464
0.000126657
0.00573595
0.000122369
0.00572753
0.000118109
0.0057194
0.000113876
0.00571153
0.00010967
0.00570395
0.000105491
0.00569664
0.000101339
0.0056896
9.72116e-05
0.00568284
9.311e-05
0.00567635
8.9033e-05
0.00567012
8.49799e-05
0.00566417
8.095e-05
0.00565849
7.69425e-05
0.00565307
7.29566e-05
0.00564792
6.89914e-05
0.00564303
6.5046e-05
0.0056384
6.11194e-05
0.00563404
5.72108e-05
0.00562994
5.3319e-05
0.00562611
4.94431e-05
0.00562253
4.5582e-05
0.00561921
4.17347e-05
0.00561615
3.79e-05
0.00561334
3.40769e-05
0.0056108
3.02642e-05
0.00560851
2.64607e-05
0.00560647
2.26653e-05
0.00560469
1.88767e-05
0.00560317
1.50939e-05
0.0056019
1.13158e-05
0.00560088
7.54156e-06
0.00560013
3.77003e-06
0.00559962
0.00559937
0.000225445
0.00584646
-0.000205672
0.000241488
0.00602416
0.000253312
0.00614707
0.000261048
0.00622493
0.00026529
0.00626867
0.000266849
0.00628851
0.000266527
0.00629276
0.000264976
0.00628742
0.000262661
0.00627646
0.00025988
0.00626233
0.00025681
0.00624641
0.000253549
0.00622949
0.000250149
0.00621201
0.000246637
0.00619423
0.000243032
0.00617635
0.000239346
0.0061585
0.000235594
0.00614082
0.000231787
0.00612339
0.000227938
0.00610628
0.000224055
0.00608952
0.000220145
0.00607311
0.000216215
0.00605706
0.000212266
0.00604135
0.000208301
0.00602595
0.000204322
0.00601085
0.00020033
0.00599604
0.000196327
0.0059815
0.000192316
0.00596724
0.000188297
0.00595324
0.000184275
0.00593951
0.000180251
0.00592605
0.000176227
0.00591287
0.000172205
0.00589995
0.000168188
0.00588731
0.000164178
0.00587495
0.000160177
0.00586286
0.000156185
0.00585106
0.000152205
0.00583953
0.000148239
0.00582829
0.000144286
0.00581732
0.000140349
0.00580664
0.000136429
0.00579624
0.000132526
0.00578613
0.00012864
0.00577629
0.000124773
0.00576674
0.000120926
0.00575746
0.000117097
0.00574847
0.000113289
0.00573976
0.0001095
0.00573132
0.000105731
0.00572316
0.000101983
0.00571528
9.8254e-05
0.00570768
9.4545e-05
0.00570035
9.08556e-05
0.00569329
8.71855e-05
0.00568651
8.35343e-05
0.00568
7.99018e-05
0.00567376
7.62874e-05
0.00566779
7.26906e-05
0.00566208
6.9111e-05
0.00565665
6.55478e-05
0.00565148
6.20006e-05
0.00564658
5.84686e-05
0.00564194
5.49512e-05
0.00563756
5.14476e-05
0.00563345
4.79571e-05
0.0056296
4.44789e-05
0.00562601
4.10123e-05
0.00562267
3.75564e-05
0.0056196
3.41104e-05
0.00561679
3.06734e-05
0.00561423
2.72445e-05
0.00561193
2.38229e-05
0.00560989
2.04075e-05
0.00560811
1.69976e-05
0.00560658
1.35921e-05
0.0056053
1.01904e-05
0.00560429
6.79176e-06
0.00560353
3.39528e-06
0.00560302
0.00560277
0.000186623
0.00582816
-0.000168322
0.00020182
0.00600896
0.000213331
0.00613556
0.000221153
0.00621711
0.000225739
0.00626409
0.000227782
0.00628647
0.000228006
0.00629253
0.000227022
0.0062884
0.000225281
0.0062782
0.00022308
0.00626453
0.000220599
0.00624889
0.000217939
0.00623215
0.000215153
0.00621479
0.00021227
0.00619711
0.000209305
0.00617931
0.000206271
0.00616154
0.000203178
0.00614391
0.000200037
0.00612653
0.000196857
0.00610946
0.000193647
0.00609273
0.000190411
0.00607635
0.000187154
0.00606032
0.000183878
0.00604462
0.000180584
0.00602924
0.000177274
0.00601416
0.000173949
0.00599936
0.000170608
0.00598484
0.000167255
0.00597059
0.000163889
0.00595661
0.000160514
0.00594289
0.00015713
0.00592944
0.00015374
0.00591626
0.000150346
0.00590335
0.000146949
0.00589071
0.00014355
0.00587835
0.000140153
0.00586626
0.000136757
0.00585445
0.000133365
0.00584292
0.000129978
0.00583167
0.000126597
0.00582071
0.000123223
0.00581002
0.000119857
0.00579961
0.0001165
0.00578948
0.000113153
0.00577964
0.000109816
0.00577007
0.00010649
0.00576079
0.000103176
0.00575178
9.98742e-05
0.00574306
9.65844e-05
0.00573461
9.33073e-05
0.00572644
9.0043e-05
0.00571855
8.67915e-05
0.00571093
8.35531e-05
0.00570359
8.03277e-05
0.00569652
7.71152e-05
0.00568972
7.39156e-05
0.0056832
7.07286e-05
0.00567694
6.75541e-05
0.00567096
6.43917e-05
0.00566525
6.12411e-05
0.0056598
5.81023e-05
0.00565462
5.49746e-05
0.0056497
5.18576e-05
0.00564505
4.8751e-05
0.00564067
4.56542e-05
0.00563654
4.25668e-05
0.00563268
3.94882e-05
0.00562908
3.64179e-05
0.00562574
3.33553e-05
0.00562266
3.02999e-05
0.00561984
2.72511e-05
0.00561728
2.42081e-05
0.00561498
2.11703e-05
0.00561293
1.81371e-05
0.00561114
1.51078e-05
0.00560961
1.20819e-05
0.00560833
9.05864e-06
0.00560731
6.03769e-06
0.00560655
3.01838e-06
0.00560604
0.00560579
0.000148259
0.00581138
-0.000131488
0.000162548
0.00599468
0.00017368
0.00612443
0.000181518
0.00620927
0.000186384
0.00625922
0.000188866
0.00628399
0.000189608
0.00629179
0.000189177
0.00628883
0.000188003
0.00627938
0.000186379
0.00626615
0.000184485
0.00625078
0.000182424
0.00623421
0.00018025
0.00621697
0.000177991
0.00619937
0.000175664
0.00618164
0.000173276
0.00616393
0.000170839
0.00614635
0.000168359
0.00612901
0.000165844
0.00611197
0.000163301
0.00609527
0.000160734
0.00607892
0.000158146
0.00606291
0.000155538
0.00604723
0.000152911
0.00603187
0.000150265
0.00601681
0.0001476
0.00600203
0.000144918
0.00598753
0.000142217
0.00597329
0.0001395
0.00595932
0.000136767
0.00594562
0.00013402
0.00593219
0.00013126
0.00591902
0.000128488
0.00590612
0.000125707
0.00589349
0.000122917
0.00588114
0.00012012
0.00586906
0.000117318
0.00585726
0.000114511
0.00584573
0.0001117
0.00583448
0.000108888
0.00582352
0.000106075
0.00581283
0.000103262
0.00580242
0.00010045
0.0057923
9.76392e-05
0.00578245
9.48313e-05
0.00577288
9.20267e-05
0.00576359
8.9226e-05
0.00575459
8.64297e-05
0.00574585
8.36384e-05
0.0057374
8.08525e-05
0.00572923
7.80723e-05
0.00572133
7.52983e-05
0.0057137
7.25304e-05
0.00570635
6.97692e-05
0.00569928
6.70147e-05
0.00569248
6.42669e-05
0.00568595
6.1526e-05
0.00567968
5.8792e-05
0.00567369
5.60648e-05
0.00566797
5.33445e-05
0.00566252
5.06306e-05
0.00565733
4.79234e-05
0.00565241
4.52225e-05
0.00564775
4.25277e-05
0.00564336
3.98389e-05
0.00563923
3.71558e-05
0.00563537
3.44781e-05
0.00563176
3.18054e-05
0.00562842
2.91376e-05
0.00562533
2.64742e-05
0.00562251
2.38149e-05
0.00561994
2.11593e-05
0.00561763
1.85069e-05
0.00561558
1.58574e-05
0.00561379
1.32103e-05
0.00561225
1.05652e-05
0.00561097
7.92214e-06
0.00560995
5.28046e-06
0.00560919
2.63991e-06
0.00560868
0.00560843
0.000110182
0.00579624
-9.50407e-05
0.000123528
0.00598133
0.000134245
0.00611371
0.000142045
0.00620147
0.000147143
0.00625412
0.000150029
0.0062811
0.00015127
0.00629055
0.000151384
0.00628872
0.000150776
0.00627999
0.000149731
0.0062672
0.000148426
0.00625209
0.000146966
0.00623567
0.000145407
0.00621853
0.000143775
0.006201
0.000142085
0.00618333
0.000140345
0.00616567
0.000138562
0.00614814
0.000136742
0.00613083
0.000134891
0.00611383
0.000133013
0.00609715
0.000131113
0.00608082
0.000129191
0.00606483
0.000127248
0.00604917
0.000125285
0.00603383
0.0001233
0.00601879
0.000121294
0.00600403
0.000119265
0.00598955
0.000117214
0.00597534
0.000115141
0.0059614
0.000113048
0.00594772
0.000110933
0.0059343
0.0001088
0.00592115
0.000106648
0.00590827
0.00010448
0.00589566
0.000102296
0.00588332
0.000100097
0.00587126
9.78843e-05
0.00585947
9.56598e-05
0.00584796
9.34243e-05
0.00583672
9.11787e-05
0.00582576
8.89243e-05
0.00581508
8.6662e-05
0.00580469
8.43927e-05
0.00579457
8.21172e-05
0.00578472
7.98368e-05
0.00577516
7.75519e-05
0.00576588
7.52634e-05
0.00575687
7.29719e-05
0.00574815
7.06781e-05
0.0057397
6.83827e-05
0.00573152
6.60861e-05
0.00572362
6.37888e-05
0.005716
6.14913e-05
0.00570865
5.9194e-05
0.00570158
5.68973e-05
0.00569477
5.46014e-05
0.00568824
5.23066e-05
0.00568198
5.00132e-05
0.00567599
4.77214e-05
0.00567026
4.54313e-05
0.00566481
4.3143e-05
0.00565962
4.08567e-05
0.0056547
3.85724e-05
0.00565004
3.62901e-05
0.00564564
3.40099e-05
0.00564151
3.17318e-05
0.00563764
2.94557e-05
0.00563404
2.71815e-05
0.00563069
2.49092e-05
0.0056276
2.26387e-05
0.00562478
2.03698e-05
0.00562221
1.81024e-05
0.0056199
1.58364e-05
0.00561785
1.35715e-05
0.00561605
1.13077e-05
0.00561452
9.0448e-06
0.00561324
6.78255e-06
0.00561222
4.52116e-06
0.00561145
2.26039e-06
0.00561094
0.00561069
7.22002e-05
0.00578269
-5.86434e-05
8.47146e-05
0.00596882
9.49849e-05
0.00610344
0.00010267
0.00619379
0.000107949
0.00624884
0.000111212
0.00627784
0.000112937
0.00628882
0.000113591
0.00628806
0.000113551
0.00628002
0.000113091
0.00626766
0.000112384
0.0062528
0.000111533
0.00623652
0.000110595
0.00621947
0.000109595
0.006202
0.000108547
0.00618438
0.000107458
0.00616675
0.000106333
0.00614926
0.000105176
0.00613199
0.00010399
0.00611501
0.000102779
0.00609836
0.000101546
0.00608205
0.000100291
0.00606608
9.90129e-05
0.00605045
9.77123e-05
0.00603513
9.63875e-05
0.00602012
9.50372e-05
0.00600539
9.36608e-05
0.00599093
9.22575e-05
0.00597675
9.08272e-05
0.00596283
8.937e-05
0.00594917
8.78864e-05
0.00593578
8.63771e-05
0.00592266
8.48428e-05
0.0059098
8.32844e-05
0.00589722
8.1703e-05
0.0058849
8.00996e-05
0.00587286
7.8475e-05
0.00586109
7.68306e-05
0.0058496
7.51673e-05
0.00583838
7.34862e-05
0.00582744
7.17884e-05
0.00581678
7.00748e-05
0.0058064
6.83465e-05
0.00579629
6.66045e-05
0.00578647
6.48496e-05
0.00577692
6.30829e-05
0.00576765
6.1305e-05
0.00575865
5.9517e-05
0.00574993
5.77195e-05
0.00574149
5.59134e-05
0.00573333
5.40993e-05
0.00572544
5.22779e-05
0.00571782
5.04499e-05
0.00571048
4.86158e-05
0.00570341
4.67762e-05
0.00569661
4.49316e-05
0.00569009
4.30825e-05
0.00568383
4.12294e-05
0.00567784
3.93727e-05
0.00567212
3.75127e-05
0.00566667
3.56498e-05
0.00566148
3.37843e-05
0.00565656
3.19166e-05
0.00565191
3.00468e-05
0.00564751
2.81754e-05
0.00564338
2.63023e-05
0.00563952
2.4428e-05
0.00563591
2.25524e-05
0.00563257
2.0676e-05
0.00562948
1.87987e-05
0.00562666
1.69206e-05
0.00562409
1.50419e-05
0.00562178
1.31626e-05
0.00561973
1.12828e-05
0.00561793
9.40261e-06
0.0056164
7.52211e-06
0.00561512
5.64148e-06
0.0056141
3.76087e-06
0.00561333
1.88038e-06
0.00561282
0.00561257
3.43643e-05
0.00577021
-2.18915e-05
4.61027e-05
0.00595708
5.57509e-05
0.00609379
6.32804e-05
0.00618626
6.87289e-05
0.00624339
7.2351e-05
0.00627422
7.45508e-05
0.00628662
7.57448e-05
0.00628687
7.62821e-05
0.00627949
7.64183e-05
0.00626752
7.63216e-05
0.00625289
7.60928e-05
0.00623675
7.57865e-05
0.00621977
7.54293e-05
0.00620236
7.50331e-05
0.00618477
7.4603e-05
0.00616718
7.4142e-05
0.00614972
7.36526e-05
0.00613248
7.3137e-05
0.00611553
7.25972e-05
0.0060989
7.20339e-05
0.00608261
7.14472e-05
0.00606667
7.08362e-05
0.00605106
7.01992e-05
0.00603577
6.95346e-05
0.00602078
6.88406e-05
0.00600608
6.81158e-05
0.00599166
6.73592e-05
0.0059775
6.657e-05
0.00596362
6.57481e-05
0.00594999
6.48934e-05
0.00593664
6.40063e-05
0.00592355
6.30872e-05
0.00591072
6.2137e-05
0.00589817
6.11562e-05
0.00588588
6.01458e-05
0.00587387
5.9107e-05
0.00586213
5.80403e-05
0.00585067
5.69471e-05
0.00583948
5.58282e-05
0.00582856
5.46848e-05
0.00581793
5.35179e-05
0.00580757
5.23285e-05
0.00579748
5.11178e-05
0.00578768
4.98866e-05
0.00577815
4.86361e-05
0.0057689
4.73672e-05
0.00575992
4.6081e-05
0.00575122
4.47782e-05
0.0057428
4.34599e-05
0.00573465
4.21268e-05
0.00572677
4.078e-05
0.00571917
3.94201e-05
0.00571184
3.80481e-05
0.00570478
3.66645e-05
0.005698
3.52702e-05
0.00569148
3.38659e-05
0.00568523
3.24521e-05
0.00567925
3.10297e-05
0.00567354
2.95991e-05
0.0056681
2.81609e-05
0.00566292
2.67157e-05
0.00565801
2.5264e-05
0.00565336
2.38063e-05
0.00564897
2.23431e-05
0.00564485
2.08749e-05
0.00564099
1.9402e-05
0.00563738
1.79249e-05
0.00563404
1.6444e-05
0.00563096
1.49596e-05
0.00562814
1.34722e-05
0.00562558
1.1982e-05
0.00562327
1.04893e-05
0.00562122
8.99446e-06
0.00561943
7.49781e-06
0.00561789
5.99971e-06
0.00561662
4.50053e-06
0.00561559
3.00065e-06
0.00561483
1.50039e-06
0.00561432
0.00561407
-2.50676e-06
0.0057585
1.42154e-05
7.4452e-06
0.00594712
1.64782e-05
0.00608476
2.38636e-05
0.00617887
2.94378e-05
0.00623782
3.33914e-05
0.00627026
3.60588e-05
0.00628396
3.77992e-05
0.00628513
3.89255e-05
0.00627836
3.9675e-05
0.00626677
4.0206e-05
0.00625236
4.06162e-05
0.00623634
4.09582e-05
0.00621943
4.12581e-05
0.00620206
4.15262e-05
0.00618451
4.17663e-05
0.00616694
4.19796e-05
0.00614951
4.21669e-05
0.00613229
4.23289e-05
0.00611536
4.2466e-05
0.00609876
4.25783e-05
0.0060825
4.26648e-05
0.00606658
4.27237e-05
0.006051
4.27532e-05
0.00603574
4.27507e-05
0.00602078
4.27143e-05
0.00600612
4.26419e-05
0.00599173
4.25321e-05
0.00597761
4.23838e-05
0.00596376
4.21964e-05
0.00595018
4.19696e-05
0.00593686
4.17034e-05
0.00592381
4.13981e-05
0.00591103
4.10542e-05
0.00589851
4.06723e-05
0.00588627
4.02532e-05
0.00587429
3.97977e-05
0.00586259
3.93067e-05
0.00585116
3.87812e-05
0.00584
3.82223e-05
0.00582912
3.7631e-05
0.00581852
3.70085e-05
0.00580819
3.63558e-05
0.00579814
3.56741e-05
0.00578836
3.49645e-05
0.00577886
3.42281e-05
0.00576963
3.34661e-05
0.00576068
3.26795e-05
0.00575201
3.18694e-05
0.00574361
3.1037e-05
0.00573548
3.01832e-05
0.00572763
2.93091e-05
0.00572004
2.84158e-05
0.00571273
2.75041e-05
0.00570569
2.6575e-05
0.00569893
2.56295e-05
0.00569243
2.46685e-05
0.00568619
2.36928e-05
0.00568023
2.27034e-05
0.00567453
2.17008e-05
0.0056691
2.06863e-05
0.00566394
1.96602e-05
0.00565903
1.86235e-05
0.00565439
1.75769e-05
0.00565002
1.6521e-05
0.0056459
1.54566e-05
0.00564205
1.43844e-05
0.00563846
1.3305e-05
0.00563512
1.22188e-05
0.00563205
1.11267e-05
0.00562923
1.00292e-05
0.00562667
8.92676e-06
0.00562437
7.82005e-06
0.00562233
6.70956e-06
0.00562054
5.59588e-06
0.00561901
4.47957e-06
0.00561773
3.36127e-06
0.00561671
2.24155e-06
0.00561595
1.12096e-06
0.00561544
0.00561519
-4.09413e-05
0.00574971
4.974e-05
-3.14734e-05
0.00593766
-2.29292e-05
0.00607622
-1.5723e-05
0.00617167
-1.00253e-05
0.00623212
-5.7324e-06
0.00626597
-2.58599e-06
0.00628081
-2.83338e-07
0.00628283
1.45043e-06
0.00627663
2.8308e-06
0.00626539
4.00984e-06
0.00625118
5.07946e-06
0.00623527
6.09021e-06
0.00621842
7.06553e-06
0.00620109
8.01462e-06
0.00618356
8.93962e-06
0.00616602
9.84023e-06
0.00614861
1.07156e-05
0.00613142
1.15652e-05
0.00611452
1.23881e-05
0.00609794
1.31833e-05
0.00608171
1.39491e-05
0.00606582
1.46833e-05
0.00605027
1.53833e-05
0.00603504
1.60464e-05
0.00602012
1.667e-05
0.00600549
1.72517e-05
0.00599115
1.77897e-05
0.00597707
1.8283e-05
0.00596327
1.87301e-05
0.00594974
1.91308e-05
0.00593646
1.94847e-05
0.00592346
1.97921e-05
0.00591072
2.00532e-05
0.00589825
2.02685e-05
0.00588605
2.04388e-05
0.00587412
2.05647e-05
0.00586246
2.06471e-05
0.00585107
2.06872e-05
0.00583996
2.06859e-05
0.00582912
2.06444e-05
0.00581856
2.05638e-05
0.00580827
2.04454e-05
0.00579825
2.02903e-05
0.00578851
2.00998e-05
0.00577905
1.98751e-05
0.00576986
1.96175e-05
0.00576094
1.93282e-05
0.0057523
1.90085e-05
0.00574393
1.86597e-05
0.00573583
1.82829e-05
0.005728
1.78794e-05
0.00572045
1.74504e-05
0.00571316
1.6997e-05
0.00570615
1.65204e-05
0.0056994
1.60218e-05
0.00569292
1.55022e-05
0.00568671
1.49627e-05
0.00568077
1.44045e-05
0.00567509
1.38286e-05
0.00566968
1.32357e-05
0.00566453
1.26272e-05
0.00565964
1.20039e-05
0.00565502
1.13669e-05
0.00565066
1.07169e-05
0.00564655
1.0055e-05
0.00564271
9.38194e-06
0.00563913
8.69871e-06
0.00563581
8.00613e-06
0.00563274
7.30501e-06
0.00562993
6.59618e-06
0.00562738
5.88042e-06
0.00562509
5.15851e-06
0.00562305
4.43123e-06
0.00562127
3.69938e-06
0.00561974
2.96377e-06
0.00561847
2.22524e-06
0.00561745
1.4846e-06
0.00561669
7.42607e-07
0.00561618
0.00561593
-7.88578e-05
0.00574215
8.64085e-05
-7.05829e-05
0.00592938
-6.26112e-05
0.00606825
-5.55835e-05
0.00616464
-4.97551e-05
0.00622629
-4.5109e-05
0.00626132
-4.14644e-05
0.00627717
-3.8576e-05
0.00627994
-3.62048e-05
0.00627426
-3.41571e-05
0.00626335
-3.22971e-05
0.00624932
-3.05385e-05
0.00623351
-2.88337e-05
0.00621671
-2.71601e-05
0.00619941
-2.55097e-05
0.00618191
-2.38817e-05
0.00616439
-2.22779e-05
0.006147
-2.07003e-05
0.00612984
-1.91509e-05
0.00611297
-1.76316e-05
0.00609642
-1.61442e-05
0.00608022
-1.46911e-05
0.00606437
-1.3275e-05
0.00604885
-1.1899e-05
0.00603366
-1.0566e-05
0.00601879
-9.27891e-06
0.0060042
-8.04035e-06
0.00598991
-6.85228e-06
0.00597589
-5.71669e-06
0.00596214
-4.63439e-06
0.00594865
-3.60624e-06
0.00593544
-2.63258e-06
0.00592249
-1.71347e-06
0.0059098
-8.48716e-07
0.00589739
-3.79199e-08
0.00588524
7.19736e-07
0.00587336
1.42487e-06
0.00586176
2.07893e-06
0.00585042
2.68238e-06
0.00583936
3.23641e-06
0.00582857
3.74225e-06
0.00581805
4.20109e-06
0.00580781
4.61424e-06
0.00579784
4.98305e-06
0.00578815
5.30888e-06
0.00577872
5.59313e-06
0.00576957
5.83722e-06
0.0057607
6.04256e-06
0.00575209
6.21056e-06
0.00574376
6.34263e-06
0.0057357
6.44019e-06
0.0057279
6.50465e-06
0.00572038
6.53739e-06
0.00571313
6.53979e-06
0.00570615
6.51321e-06
0.00569943
6.45898e-06