/*--------------------------------*- C++ -*----------------------------------*\
  =========                 |
  \\      /  F ield         | OpenFOAM: The Open Source CFD Toolbox
   \\    /   O peration     | Website:  https://openfoam.org
    \\  /    A nd           | Version:  7
     \\/     M anipulation  |
\*---------------------------------------------------------------------------*/
FoamFile
{
    version     2.0;
    format      ascii;
    class       volScalarField;
    location    "120";
    object      p;
}
// * * * * * * * * * * * * * * * * * * * * * * * * * * * * * * * * * * * * * //

dimensions      [0 2 -2 0 0 0 0];

internalField   nonuniform List<scalar> 
3700
(
-0.176648
-0.151794
-0.13334
-0.116764
-0.102593
-0.0903728
-0.0797152
-0.0703741
-0.0621494
-0.0548733
-0.0484106
-0.0426525
-0.0375101
-0.0329097
-0.0287902
-0.0251005
-0.0217975
-0.0188449
-0.0162121
-0.0138729
-0.0118053
-0.00999055
-0.00841274
-0.00705857
-0.00591693
-0.00497871
-0.00423655
-0.00368475
-0.00331918
-0.00313699
-0.152259
-0.130945
-0.11518
-0.100831
-0.0886146
-0.0780263
-0.0687637
-0.0606341
-0.0534672
-0.0471188
-0.0414735
-0.0364374
-0.0319334
-0.0278977
-0.0242776
-0.0210291
-0.0181156
-0.0155061
-0.0131746
-0.0110993
-0.00926166
-0.00764593
-0.00623896
-0.00502969
-0.00400892
-0.00316911
-0.00250421
-0.00200951
-0.0016816
-0.00151817
-0.126969
-0.109186
-0.0960452
-0.0839693
-0.0737494
-0.0648489
-0.0570502
-0.0501986
-0.044149
-0.0387815
-0.0340009
-0.0297288
-0.0259006
-0.0224631
-0.0193725
-0.0165923
-0.0140925
-0.0118479
-0.00983727
-0.00804313
-0.00645061
-0.0050473
-0.00382277
-0.00276832
-0.00187677
-0.00114223
-0.000559992
-0.000126401
0.000161192
0.000304564
-0.101862
-0.0874133
-0.0767198
-0.066842
-0.0585411
-0.0512897
-0.0449439
-0.0393714
-0.0344479
-0.0300752
-0.0261753
-0.0226838
-0.0195479
-0.0167246
-0.0141786
-0.0118812
-0.00980843
-0.00794091
-0.00626245
-0.00475971
-0.0034216
-0.00223893
-0.00120407
-0.000310726
0.00044629
0.00107117
0.00156727
0.00193716
0.00218272
0.00230519
-0.077661
-0.0662185
-0.0577365
-0.0499047
-0.0433852
-0.0376946
-0.0327408
-0.0284041
-0.0245786
-0.021184
-0.0181556
-0.0154403
-0.0129957
-0.0107878
-0.00878923
-0.00697799
-0.00533646
-0.00385045
-0.00250855
-0.00130153
-0.000221949
0.000736236
0.00157792
0.00230705
0.00292682
0.00343976
0.00384789
0.00415271
0.00435532
0.00445643
-0.0547899
-0.0459874
-0.0394363
-0.033447
-0.0285439
-0.024301
-0.0206514
-0.0174828
-0.0147061
-0.0122536
-0.01007
-0.00811155
-0.00634442
-0.00474209
-0.003284
-0.00195433
-0.000740945
0.000365413
0.00137178
0.00228347
0.00310449
0.00383788
0.00448591
0.00505026
0.00553219
0.00593265
0.00625232
0.00649169
0.00665109
0.00673072
-0.0335178
-0.02697
-0.0220499
-0.0176744
-0.0142101
-0.0112858
-0.00883618
-0.00675509
-0.00496512
-0.00340559
-0.00202819
-0.000796518
0.000316776
0.00133213
0.00226439
0.00312408
0.00391847
0.00465242
0.00532898
0.00594986
0.00651591
0.00702732
0.0074839
0.00788518
0.0082306
0.00851957
0.00875152
0.00892596
0.00904248
0.00910079
-0.0140329
-0.00932393
-0.00574913
-0.00275218
-0.00054537
0.00120162
0.00256613
0.00364931
0.00452437
0.00524961
0.00586848
0.00641229
0.00690365
0.00735829
0.0077863
0.00819385
0.00858405
0.00895787
0.00931479
0.00965336
0.00997148
0.0102668
0.0105367
0.0107788
0.0109909
0.0111709
0.0113171
0.011428
0.0115025
0.01154
0.00358518
0.00683565
0.00933573
0.0111837
0.0123132
0.0130315
0.0134311
0.0136124
0.0136525
0.0136099
0.0135255
0.0134279
0.0133364
0.0132633
0.013215
0.013194
0.0132
0.0132306
0.0132824
0.0133509
0.0134315
0.0135194
0.01361
0.0136991
0.0137828
0.0138579
0.0139214
0.013971
0.0140051
0.0140223
0.0193104
0.0214465
0.0231236
0.0240352
0.0242618
0.0240992
0.0236535
0.0230316
0.0223211
0.0215827
0.0208567
0.0201707
0.0195417
0.0189794
0.018488
0.0180672
0.0177137
0.0174224
0.0171873
0.0170015
0.016858
0.0167499
0.016671
0.0166152
0.0165773
0.0165528
0.0165378
0.0165293
0.0165248
0.016523
0.0331367
0.0344963
0.0355712
0.0357447
0.0352323
0.0343293
0.0331521
0.0318217
0.0304455
0.0290871
0.0277865
0.0265699
0.0254537
0.0244459
0.0235491
0.0227613
0.0220768
0.0214886
0.0209883
0.0205669
0.0202154
0.0199254
0.0196888
0.019498
0.0193467
0.0192294
0.0191412
0.0190783
0.0190379
0.0190182
0.0451001
0.0459946
0.0466688
0.0462787
0.0451801
0.0436692
0.0418712
0.0399076
0.0379508
0.0360538
0.0342497
0.0325645
0.0310149
0.0296091
0.0283481
0.0272293
0.0262458
0.0253889
0.0246479
0.0240121
0.0234713
0.0230155
0.0226347
0.0223205
0.0220656
0.0218632
0.0217077
0.021595
0.0215217
0.0214855
0.055255
0.0559451
0.0564032
0.0556139
0.0540693
0.0520851
0.0497941
0.0471985
0.044766
0.0424233
0.0401918
0.0381024
0.0361754
0.0344207
0.0328401
0.0314298
0.030182
0.0290867
0.028132
0.0273059
0.0265965
0.0259923
0.0254827
0.0250583
0.0247103
0.0244315
0.0242158
0.0240583
0.0239553
0.0239044
0.0635643
0.0643268
0.0647628
0.0637162
0.0618442
0.0595316
0.0570508
0.0534535
0.0508229
0.0481497
0.0455679
0.0431388
0.0408912
0.0388392
0.0369856
0.0353256
0.0338509
0.0325502
0.031411
0.0304203
0.0295647
0.0288315
0.0282098
0.0276892
0.02726
0.0269144
0.0266459
0.0264491
0.0263202
0.0262563
0.069848
0.0709521
0.0718969
0.0704281
0.0683412
0.0657049
0.062727
0.059425
0.0562817
0.0532444
0.0503508
0.0476365
0.0451252
0.0428291
0.0407505
0.0388846
0.0372223
0.0357515
0.0344589
0.0333306
0.0323526
0.0315115
0.0307955
0.0301936
0.0296957
0.0292935
0.0289802
0.0287501
0.028599
0.0285241
0.0748931
0.0755017
0.0767051
0.075632
0.0735207
0.0707589
0.0676073
0.0642412
0.060877
0.0576046
0.0544836
0.0515545
0.0488419
0.0463583
0.0441059
0.04208
0.0402711
0.0386669
0.0372534
0.0360162
0.0349407
0.0340135
0.0332219
0.0325544
0.032001
0.0315531
0.0312033
0.030946
0.0307769
0.030693
0.0755565
0.0781427
0.0798419
0.0792446
0.0773275
0.0746235
0.0714555
0.0680479
0.0645848
0.0611848
0.057926
0.0548583
0.0520116
0.0494002
0.0470277
0.0448898
0.0429773
0.0412777
0.039777
0.0384605
0.0373136
0.0363225
0.0354745
0.0347579
0.0341626
0.0336799
0.0333024
0.0330243
0.0328414
0.0327506
0.0743379
0.0785739
0.0811209
0.0812298
0.079723
0.0772446
0.0741955
0.0708444
0.0673865
0.0639575
0.0606494
0.057522
0.0546111
0.0519346
0.0494978
0.0472979
0.045326
0.0435704
0.042017
0.0406515
0.0394596
0.0384275
0.0375426
0.0367935
0.0361701
0.0356638
0.0352673
0.034975
0.0347824
0.0346869
0.0711316
0.0769756
0.0805813
0.0816034
0.0806903
0.0785849
0.075784
0.0726034
0.0692582
0.0658997
0.0626326
0.0595268
0.0566246
0.0539479
0.0515048
0.049294
0.0473083
0.0455365
0.0439657
0.0425819
0.0413716
0.0403214
0.0394193
0.0386543
0.0380165
0.0374977
0.037091
0.0367908
0.0365929
0.0364947
0.0661527
0.0735318
0.0783229
0.0803977
0.0802174
0.0786108
0.0761817
0.0732924
0.0701748
0.0669917
0.0638604
0.0608613
0.0580436
0.055434
0.0530441
0.050875
0.0489215
0.0471739
0.0456208
0.0442493
0.043047
0.0420015
0.0411015
0.0403367
0.0396981
0.0391777
0.0387693
0.0384674
0.0382684
0.0381695
0.0596348
0.0684415
0.0744332
0.0776167
0.0782644
0.0772676
0.0753368
0.0728722
0.0701095
0.067217
0.0643239
0.0615219
0.0588681
0.0563952
0.0541192
0.052045
0.0501698
0.0484866
0.0469858
0.0456566
0.044488
0.0434692
0.0425899
0.0418411
0.0412145
0.0407031
0.0403011
0.0400036
0.0398073
0.0397097
0.0517541
0.0618711
0.0689686
0.0732172
0.0747458
0.0744693
0.0731815
0.0712985
0.0690382
0.0665656
0.0640231
0.0615149
0.0591081
0.0568434
0.054743
0.0528164
0.051065
0.0494852
0.0480704
0.0468122
0.0457019
0.0447305
0.0438897
0.0431715
0.0425691
0.0420764
0.0416884
0.0414009
0.0412109
0.0411165
0.042617
0.0538896
0.0619118
0.067101
0.0695369
0.0701107
0.0696471
0.0685367
0.06695
0.065043
0.0629733
0.0608611
0.0587869
0.0568025
0.0549385
0.0532111
0.0516272
0.050188
0.0488906
0.0477302
0.0467008
0.0457961
0.0450098
0.0443357
0.0437685
0.0433034
0.0429362
0.0426638
0.0424835
0.0423938
0.0321445
0.0443683
0.0531067
0.0591075
0.0624973
0.0640986
0.064694
0.0645853
0.0638648
0.0626813
0.0612129
0.0596008
0.0579446
0.0563106
0.054741
0.0532612
0.0518853
0.0506204
0.0494689
0.0484301
0.0475019
0.0466808
0.0459631
0.0453449
0.0448226
0.0443927
0.0440525
0.0437994
0.0436318
0.0435483
0.0199172
0.0328874
0.0422185
0.0490195
0.0535015
0.0563918
0.0583492
0.0595028
0.0598525
0.0595534
0.0588124
0.0577998
0.0566411
0.0554219
0.054199
0.0530095
0.0518767
0.0508153
0.0498338
0.048937
0.0481268
0.0474034
0.0467661
0.0462135
0.0457439
0.0453558
0.0450474
0.0448174
0.0446647
0.0445885
0.00519355
0.018807
0.0288204
0.0366345
0.042502
0.0470669
0.0507519
0.0534375
0.0550527
0.0557837
0.0558805
0.0555532
0.0549591
0.0542081
0.0533745
0.0525095
0.0516477
0.0508124
0.0500197
0.0492802
0.048601
0.0479861
0.0474381
0.0469584
0.0465477
0.046206
0.0459333
0.0457291
0.0455931
0.0455253
-0.0127175
0.00158358
0.0126544
0.0219425
0.0296755
0.036425
0.0422138
0.0466591
0.0496892
0.0515557
0.0525679
0.0529862
0.0530038
0.0527573
0.0523418
0.0518243
0.0512516
0.0506572
0.0500653
0.0494932
0.0489532
0.0484536
0.0480006
0.0475986
0.0472506
0.0469587
0.046724
0.0465474
0.0464295
0.0463705
-0.0339399
-0.0187982
-0.00599799
0.00540157
0.0156429
0.0251042
0.0332615
0.0395747
0.0440735
0.0471094
0.0490639
0.0502506
0.0508989
0.0511716
0.0511857
0.0510242
0.0507472
0.0503991
0.0500123
0.0496115
0.0492138
0.0488322
0.0484766
0.0481541
0.0478705
0.0476298
0.0474344
0.0472863
0.0471869
0.047137
-0.0577889
-0.0413417
-0.0259674
-0.011786
0.00161141
0.014086
0.0246284
0.0327084
0.0385805
0.0427235
0.045584
0.0475169
0.0487811
0.0495622
0.0499966
0.050183
0.0501956
0.050089
0.0499044
0.049672
0.0494143
0.049149
0.048889
0.0486451
0.0484256
0.0482356
0.0480792
0.0479595
0.0478785
0.0478377
-0.08244
-0.063557
-0.045046
-0.0276307
-0.0107977
0.00451966
0.0171773
0.026601
0.0335851
0.0386769
0.0423457
0.0449589
0.0467894
0.0480403
0.0488636
0.0493737
0.0496567
0.0497771
0.0497827
0.049709
0.0495842
0.0494304
0.0492605
0.0490905
0.0489328
0.0487916
0.0486728
0.0485804
0.0485172
0.0484852
-0.104405
-0.0818345
-0.0604855
-0.0398723
-0.0200477
-0.002568
0.0119211
0.0215983
0.0293346
0.0351798
0.0395284
0.0427286
0.0450485
0.0467052
0.0478672
0.0486617
0.0491844
0.049507
0.0496827
0.0497523
0.0497482
0.0496948
0.0496107
0.0495117
0.0494097
0.0493132
0.0492289
0.0491617
0.049115
0.0490912
-0.118679
-0.0923388
-0.0707465
-0.0467316
-0.0252428
-0.0070254
0.00753502
0.0184332
0.026689
0.0329186
0.0376088
0.0411262
0.0437465
0.0456823
0.0470961
0.0481134
0.0488301
0.0493199
0.0496392
0.0498318
0.0499322
0.0499672
0.0499577
0.0499205
0.0498687
0.0498123
0.0497589
0.0497143
0.0496824
0.0496658
-0.124133
-0.0957392
-0.0712907
-0.0474443
-0.0261689
-0.00840834
0.00576571
0.0167027
0.0250647
0.0314481
0.0363189
0.0400302
0.0428485
0.0449771
0.0465724
0.0477557
0.0486212
0.0492423
0.0496765
0.0499689
0.0501552
0.0502635
0.0503162
0.0503309
0.0503216
0.0502994
0.0502724
0.0502471
0.0502279
0.0502175
-0.1181
-0.0906724
-0.066459
-0.0436829
-0.0237796
-0.00728797
0.00598096
0.0164048
0.0245167
0.0308126
0.0356908
0.0394647
0.042376
0.0446119
0.0463186
0.0476107
0.0485785
0.0492934
0.0498119
0.0501791
0.0504309
0.0505959
0.0506971
0.0507527
0.0507773
0.0507823
0.0507766
0.0507669
0.0507578
0.0507526
-0.105523
-0.0797921
-0.0576226
-0.0369636
-0.0191671
-0.0043647
0.00768858
0.0173151
0.0249445
0.0309655
0.0357022
0.039419
0.0423256
0.0445885
0.0463402
0.0476863
0.0487111
0.0494824
0.0500545
0.050471
0.0507672
0.0509716
0.051107
0.051192
0.0512411
0.0512661
0.0512761
0.0512779
0.0512765
0.051275
-0.0891143
-0.0662028
-0.0467883
-0.0287025
-0.0132487
-0.000251131
0.0104678
0.0191683
0.0261817
0.031802
0.036286
0.0398496
0.0426695
0.0448897
0.0466274
0.0479775
0.0490174
0.0498098
0.0504058
0.0508469
0.0511669
0.0513935
0.0515489
0.0516515
0.0517157
0.0517532
0.051773
0.0517822
0.0517856
0.0517866
-0.0715826
-0.0519625
-0.0353874
-0.0199089
-0.0066995
0.00456573
0.0139671
0.0217146
0.0280522
0.0331991
0.037356
0.0406958
0.0433648
0.0454853
0.047159
0.0484699
0.0494875
0.050269
0.0508616
0.051304
0.0516282
0.0518604
0.0520221
0.0521308
0.0522007
0.0522432
0.0522672
0.0522795
0.052285
0.0522871
-0.0547436
-0.0382958
-0.0242783
-0.0111856
3.75574e-05
0.00973372
0.0179108
0.024739
0.0303918
0.0350333
0.0388196
0.0418886
0.04436
0.0463368
0.0479063
0.0491419
0.0501052
0.0508478
0.0514125
0.0518352
0.0521454
0.0523678
0.0525227
0.0526267
0.0526933
0.0527336
0.0527562
0.0527675
0.0527725
0.0527743
-0.0394554
-0.0257604
-0.0138956
-0.00285162
0.00668865
0.0150118
0.0220923
0.0280669
0.0330579
0.0371907
0.0405871
0.0433574
0.0456001
0.0474014
0.0488358
0.0499672
0.0508498
0.0515297
0.0520455
0.0524298
0.0527099
0.0529085
0.0530445
0.0531337
0.0531887
0.05322
0.0532358
0.0532424
0.0532443
0.0532445
-0.0259701
-0.0145096
-0.00439956
0.00495041
0.0130949
0.0202416
0.026361
0.0315617
0.0359325
0.0395718
0.0425763
0.0450353
0.0470306
0.0486349
0.0499119
0.050917
0.051698
0.0522956
0.0527447
0.0530747
0.0533104
0.0534728
0.0535793
0.0536445
0.0536803
0.0536964
0.0537006
0.0536987
0.0536951
0.0536926
-0.014226
-0.00450887
0.00419374
0.0121738
0.0191712
0.0253227
0.0306101
0.0351201
0.0389209
0.0420931
0.044715
0.0468613
0.0486005
0.0499947
0.051099
0.0519618
0.052625
0.053125
0.0534929
0.0537552
0.0539345
0.05405
0.0541176
0.0541507
0.0541604
0.0541557
0.0541437
0.0541301
0.0541188
0.0541126
-0.00403595
0.00435227
0.0119344
0.01882
0.0248782
0.0301939
0.0347661
0.0386653
0.0419492
0.044686
0.0469422
0.0487815
0.0502631
0.051441
0.0523633
0.0530726
0.0536063
0.0539968
0.0542719
0.0544557
0.0545686
0.0546281
0.0546487
0.0546427
0.0546203
0.0545898
0.0545579
0.0545296
0.0545087
0.0544977
0.00481833
0.0122049
0.0188991
0.0249144
0.0302035
0.0348202
0.0387793
0.0421418
0.0449603
0.0472956
0.0492066
0.0507497
0.0519773
0.0529374
0.0536729
0.0542219
0.0546179
0.0548901
0.0550637
0.0551604
0.0551989
0.0551948
0.0551617
0.0551107
0.0550511
0.0549906
0.0549352
0.0548897
0.0548575
0.0548408
0.0125412
0.0191766
0.0251707
0.0304943
0.0351524
0.0391839
0.0426176
0.0455093
0.0479106
0.0498781
0.0514661
0.0527264
0.053707
0.0544514
0.0549988
0.0553839
0.0556371
0.055785
0.0558507
0.0558538
0.0558114
0.0557379
0.0556456
0.0555446
0.0554436
0.0553494
0.0552677
0.0552027
0.0551577
0.0551347
0.0193022
0.0253767
0.0308248
0.0355986
0.0397381
0.0432786
0.0462607
0.0487393
0.050767
0.0523984
0.0536858
0.0546782
0.0554207
0.0559541
0.0563148
0.0565349
0.0566426
0.0566626
0.0566159
0.0565207
0.0563927
0.0562452
0.0560893
0.0559345
0.0557885
0.0556577
0.0555473
0.0554611
0.0554021
0.0553721
0.0252362
0.0308958
0.0359236
0.0402615
0.0439756
0.0471034
0.0496963
0.0518116
0.0535041
0.0548288
0.0558371
0.0565769
0.0570916
0.0574202
0.0575973
0.0576534
0.057615
0.057505
0.0573433
0.0571468
0.0569299
0.0567049
0.0564823
0.0562705
0.0560769
0.0559072
0.0557661
0.0556573
0.0555833
0.0555458
0.0304517
0.0358123
0.0405179
0.044511
0.0478765
0.0506573
0.0529146
0.0547097
0.0561014
0.057146
0.0578957
0.0583979
0.0586956
0.0588268
0.0588251
0.0587196
0.0585359
0.0582957
0.0580178
0.0577181
0.0574103
0.0571057
0.056814
0.0565432
0.0562999
0.0560896
0.0559164
0.0557838
0.055694
0.0556488
0.035038
0.0401964
0.0446543
0.0483735
0.0514514
0.0539395
0.0559071
0.0574203
0.0585418
0.0593308
0.0598409
0.0601204
0.0602122
0.060154
0.059979
0.0597157
0.0593888
0.0590194
0.0586254
0.058222
0.0578222
0.0574367
0.0570746
0.0567434
0.0564492
0.056197
0.0559907
0.0558335
0.0557275
0.0556742
0.039051
0.044093
0.0483672
0.0518701
0.0547091
0.0569481
0.0586646
0.059929
0.0608083
0.0613644
0.0616533
0.0617245
0.0616216
0.0613828
0.0610409
0.0606244
0.0601575
0.0596609
0.0591521
0.0586456
0.0581538
0.0576872
0.0572541
0.0568618
0.056516
0.0562213
0.0559814
0.0557991
0.0556765
0.0556149
0.0425055
0.0475076
0.0516671
0.0550104
0.057655
0.0596824
0.0611799
0.0622242
0.0628862
0.0632306
0.0633158
0.063193
0.0629069
0.0624964
0.0619948
0.0614305
0.0608278
0.060207
0.0595854
0.0589772
0.0583944
0.057847
0.0573433
0.0568899
0.0564922
0.0561548
0.055881
0.0556735
0.0555342
0.0554642
0.0453851
0.0504098
0.0545307
0.0577775
0.0602775
0.0621321
0.0634416
0.0642915
0.0647587
0.0649114
0.0648097
0.0645071
0.0640497
0.0634772
0.0628235
0.0621177
0.061384
0.0606431
0.0599118
0.0592043
0.0585323
0.0579054
0.0573318
0.0568179
0.056369
0.0559891
0.0556816
0.055449
0.0552929
0.0552146
0.0476968
0.0527767
0.0569247
0.0601413
0.062553
0.0642799
0.065436
0.0661183
0.0664125
0.066392
0.0661201
0.065652
0.0650353
0.0643106
0.0635126
0.062672
0.0618133
0.0609569
0.0601197
0.0593159
0.058557
0.0578526
0.0572106
0.0566373
0.0561378
0.0557161
0.0553755
0.055118
0.0549455
0.054859
0.0494993
0.0546239
0.0588319
0.0620688
0.0644449
0.0660934
0.0671358
0.0676814
0.0678264
0.0676518
0.0672265
0.0666078
0.0658446
0.0649782
0.0640436
0.0630758
0.0620991
0.0611332
0.0601947
0.0592984
0.058456
0.0576766
0.0569683
0.0563372
0.0557887
0.0553264
0.0549533
0.0546717
0.0544831
0.0543886
0.0509035
0.0560232
0.0602885
0.063564
0.0659376
0.0675501
0.0685193
0.0689619
0.0689837
0.0686763
0.0681148
0.0673602
0.066465
0.0654694
0.0644023
0.0633169
0.0622296
0.0611599
0.0601254
0.0591408
0.0582183
0.0573676
0.0565954
0.0559081
0.0553123
0.0548109
0.0544066
0.0541015
0.0538974
0.0537951
0.0519616
0.0570574
0.0613689
0.0646597
0.0670323
0.0686284
0.0695556
0.0699284
0.0698551
0.0694382
0.0687592
0.0678856
0.066874
0.065776
0.0645567
0.0633732
0.0621853
0.0610191
0.0598946
0.0588269
0.0578286
0.0569097
0.0560773
0.0553379
0.0546968
0.0541579
0.0537237
0.0533964
0.0531774
0.0530678
0.0526244
0.0578179
0.0621825
0.0654257
0.0677733
0.0693455
0.0702423
0.0705719
0.070431
0.0699252
0.0691467
0.0681677
0.0670459
0.0658284
0.0645433
0.0632469
0.0619592
0.0607013
0.0594918
0.0583459
0.0572764
0.0562931
0.0554039
0.054615
0.0539315
0.0533572
0.0528949
0.0525465
0.0523136
0.0521969
0.0536688
0.0585849
0.0627618
0.0659038
0.0681889
0.0697113
0.0705686
0.0708584
0.0706732
0.0701055
0.0692483
0.068181
0.0669656
0.0656534
0.0642843
0.062898
0.0615229
0.0601822
0.0588952
0.0576777
0.0565426
0.0555001
0.0545584
0.0537237
0.053001
0.0523942
0.0519058
0.0515381
0.0512922
0.051169
0.0542334
0.0591156
0.0630831
0.0661175
0.068314
0.0697652
0.0705689
0.0708149
0.0705878
0.0699728
0.0690566
0.0679187
0.066626
0.0652332
0.0637853
0.0623198
0.0608669
0.0594516
0.0580942
0.0568112
0.055616
0.0545193
0.0535292
0.0526524
0.0518938
0.0512571
0.050745
0.0503595
0.0501018
0.0499727
0.0544395
0.059254
0.0630827
0.0660186
0.0681245
0.0694947
0.0702302
0.0704217
0.0701506
0.0694955
0.0685344
0.0673427
0.0659889
0.0645304
0.0630149
0.0614812
0.0599611
0.0584807
0.0570616
0.055721
0.0544728
0.0533281
0.0522956
0.0513816
0.0505914
0.0499284
0.0493954
0.0489943
0.0487262
0.0485921
0.0542464
0.059
0.0627309
0.0655841
0.0676139
0.0689105
0.0695764
0.0697073
0.0693881
0.0686936
0.0676943
0.0664594
0.0650558
0.0635425
0.0619692
0.0603766
0.0587979
0.0572607
0.0557873
0.0543959
0.0531011
0.0519143
0.0508444
0.049898
0.0490802
0.0483945
0.0478435
0.047429
0.0471521
0.0470135
0.0536559
0.0583385
0.0619901
0.0647733
0.0667411
0.0679742
0.0685717
0.0686353
0.0682593
0.0675216
0.0664878
0.0652198
0.0637794
0.0622246
0.060606
0.0589661
0.0573399
0.0557562
0.0542384
0.0528057
0.051473
0.0502521
0.0491522
0.0481799
0.0473401
0.0466365
0.0460714
0.0456464
0.0453625
0.0452205
0.0526645
0.0572496
0.0608221
0.0635416
0.0654633
0.0666551
0.0672049
0.067215
0.0667871
0.0660061
0.0649374
0.0636381
0.0621655
0.0605759
0.0589202
0.057242
0.0555774
0.0539562
0.0524028
0.0509367
0.0495738
0.0483262
0.0472029
0.0462107
0.0453545
0.0446376
0.0440622
0.0436297
0.0433409
0.0431964
0.0513096
0.0557853
0.0592722
0.0619225
0.0637938
0.0649402
0.0654372
0.0653867
0.0649001
0.0640723
0.0629717
0.061651
0.0601599
0.0585494
0.0568693
0.0551644
0.0534726
0.0518251
0.0502472
0.0487592
0.047377
0.0461127
0.0449755
0.043972
0.0431068
0.0423829
0.0418022
0.041366
0.041075
0.0409294
0.0494483
0.0537868
0.057172
0.059753
0.0615887
0.062717
0.0631962
0.0631204
0.0626018
0.0617402
0.0606089
0.0592629
0.0577508
0.0561217
0.0544241
0.0527028
0.050996
0.0493349
0.047745
0.0462466
0.0448561
0.0435856
0.0424442
0.0414381
0.0405717
0.0398475
0.0392672
0.0388316
0.0385411
0.0383958
0.0471254
0.0513343
0.0546244
0.0571351
0.0589256
0.0600196
0.0604635
0.0603487
0.0597923
0.0589007
0.0577532
0.0564045
0.0548967
0.0532707
0.051572
0.0498471
0.0481365
0.0464734
0.044884
0.0433886
0.0420032
0.0407393
0.0396057
0.0386079
0.0377499
0.0370335
0.0364601
0.0360301
0.0357434
0.0356
0.0438864
0.0479748
0.051192
0.0536785
0.0554813
0.0566003
0.057066
0.0569659
0.0564165
0.055524
0.0543705
0.0530167
0.0515077
0.0498857
0.0481967
0.0464867
0.0447952
0.0431539
0.0415877
0.0401163
0.0387551
0.0375155
0.0364055
0.0354302
0.0345929
0.0338949
0.033337
0.0329189
0.0326405
0.0325015
0.0398264
0.0438111
0.0469882
0.0494767
0.0513104
0.0524705
0.0529774
0.052918
0.0524064
0.0515461
0.0504244
0.0491074
0.0476387
0.0460549
0.0443995
0.0427199
0.0410591
0.0394508
0.0379206
0.0364875
0.0351656
0.0339651
0.0328928
0.031953
0.0311478
0.030478
0.0299433
0.0295432
0.0292769
0.0291436
0.0343448
0.038301
0.0415305
0.0441298
0.0460926
0.0473669
0.047965
0.0479812
0.047533
0.0467255
0.0456513
0.0443812
0.0429613
0.041432
0.03984
0.038233
0.0366515
0.0351255
0.0336774
0.0323238
0.0310778
0.0299485
0.0289421
0.0280621
0.0273097
0.026685
0.0261872
0.0258154
0.0255682
0.0254454
0.0277469
0.0316158
0.034887
0.0376168
0.0397533
0.0412122
0.0420006
0.04221
0.0419423
0.0412898
0.0403439
0.0391806
0.0378558
0.0364178
0.0349161
0.0333986
0.0319066
0.0304713
0.0291146
0.0278521
0.0266951
0.0256509
0.0247242
0.0239168
0.0232288
0.0226592
0.0222065
0.0218688
0.0216446
0.0215319
0.0201102
0.0239003
0.0272271
0.0300744
0.0323368
0.0339133
0.0348241
0.0351626
0.0350207
0.03449
0.0336659
0.0326288
0.0314411
0.0301556
0.0288219
0.0274844
0.0261787
0.0249289
0.0237512
0.0226575
0.0216569
0.0207558
0.0199579
0.0192645
0.0186753
0.0181886
0.0178026
0.0175152
0.0173251
0.0172319
0.0118249
0.0153614
0.0186104
0.0215188
0.0239054
0.0256508
0.0267781
0.0273603
0.0274659
0.0271759
0.0265771
0.0257476
0.0247581
0.0236704
0.022536
0.0213966
0.0202842
0.0192216
0.0182238
0.0173017
0.016463
0.0157125
0.0150521
0.0144815
0.0139991
0.0136025
0.0132889
0.0130561
0.0129018
0.0128231
0.00493077
0.00765918
0.0102948
0.0126717
0.0146167
0.0160672
0.0170572
0.0176274
0.0178217
0.0176971
0.0173137
0.0167364
0.0160343
0.0152662
0.0144742
0.0136885
0.0129298
0.0122104
0.0115377
0.0109173
0.010354
0.00985098
0.00940952
0.00902928
0.0087088
0.00844606
0.00823889
0.00808535
0.00798462
0.00793809
-0.000830668
0.000988822
0.00267778
0.00418437
0.00543498
0.00642477
0.00715952
0.00763942
0.00788034
0.00790914
0.00776184
0.00748944
0.00714474
0.00676459
0.00637015
0.00597552
0.00559089
0.00522329
0.00487828
0.0045609
0.00427499
0.00402253
0.00380376
0.00361765
0.00346255
0.00333662
0.00323808
0.00316519
0.0031156
0.00308628
-0.193519
-0.167315
-0.140143
-0.113147
-0.0871521
-0.0627292
-0.0402418
-0.0198813
-0.00169943
0.0143298
0.0282502
0.0400826
0.0498085
0.0572411
0.0620517
0.062989
0.0654384
0.0638361
0.0600782
0.0546368
0.0476155
0.0391333
0.0293259
0.0182224
0.00555448
-0.00934251
-0.0272594
-0.0483865
-0.0718014
-0.09557
-0.116309
-0.130239
-0.135385
-0.131591
-0.119759
-0.103165
-0.0847466
-0.0666028
-0.0498953
-0.0350807
-0.0221955
-0.0110766
-0.00149378
0.00678113
0.0139441
0.0201581
0.0255583
0.0302476
0.0342743
0.0376374
0.0403221
0.0423719
0.0439164
0.0451406
0.0461157
0.0460492
0.0480303
0.0488158
0.0492015
0.0492268
0.0488495
0.0480752
0.0469157
0.0452471
0.0430972
0.0400069
0.0361111
0.0307351
0.0243291
0.0169159
0.0089229
0.00289373
-0.0023075
-0.22642
-0.199434
-0.170536
-0.141245
-0.112703
-0.0856824
-0.0606778
-0.0379646
-0.0176461
0.000299705
0.0159546
0.0293695
0.0405041
0.0492614
0.0555563
0.0593769
0.0612559
0.0604878
0.0580797
0.05398
0.0481628
0.0406822
0.0316678
0.0212821
0.00954351
-0.00388309
-0.0197306
-0.0387757
-0.061109
-0.0856361
-0.110166
-0.131342
-0.14541
-0.150091
-0.144435
-0.130521
-0.112014
-0.0920358
-0.0726762
-0.0550407
-0.0395266
-0.0261214
-0.0146233
-0.00477397
0.00367556
0.0109398
0.0172
0.0226008
0.0272395
0.0311505
0.034332
0.036799
0.0386538
0.0400852
0.0413253
0.0425666
0.0445889
0.0446168
0.0452808
0.045719
0.0458273
0.0455439
0.0448775
0.0438289
0.0422816
0.040249
0.0372698
0.0334795
0.0281953
0.0219105
0.0146808
0.00693234
0.00148021
-0.00323711
-0.233358
-0.203059
-0.171457
-0.140156
-0.110278
-0.0825115
-0.0572391
-0.034625
-0.0146759
0.00270698
0.017641
0.0301658
0.0402169
0.0477006
0.052609
0.0551529
0.0557836
0.0543803
0.0515296
0.047039
0.040827
0.0329133
0.023426
0.0125244
0.000195288
-0.0139413
-0.0306316
-0.0506081
-0.0738704
-0.0991897
-0.124232
-0.145682
-0.159644
-0.163203
-0.155903
-0.13999
-0.119501
-0.0978809
-0.0773152
-0.058855
-0.0428012
-0.0290555
-0.0173549
-0.00740124
0.00108028
0.00832339
0.0145221
0.019823
0.0243144
0.0280239
0.0309614
0.0331807
0.0348347
0.0361467
0.0373511
0.0386135
0.0401577
0.0407063
0.0414185
0.0419247
0.0421255
0.0419536
0.0414168
0.0405053
0.0391082
0.0372163
0.0343867
0.0307263
0.0255941
0.0194699
0.01249
0.00504138
0.00016247
-0.00405756
-0.241954
-0.208241
-0.173912
-0.14063
-0.109459
-0.0809835
-0.0554692
-0.0329721
-0.0134045
0.00339824
0.0175699
0.0291268
0.0379901
0.044116
0.0476385
0.0490541
0.0489187
0.0471167
0.0440148
0.039342
0.0329176
0.0247226
0.01489
0.0035748
-0.00927201
-0.0240846
-0.0416356
-0.0626079
-0.086879
-0.113042
-0.138525
-0.159859
-0.17318
-0.175531
-0.166565
-0.148886
-0.126716
-0.103689
-0.0820556
-0.0628402
-0.0462782
-0.0322074
-0.0203147
-0.0102669
-0.00176461
0.00544384
0.0115625
0.0167387
0.0210546
0.0245367
0.0272107
0.0291662
0.0305973
0.0317529
0.0328681
0.03408
0.0354327
0.0362954
0.0371266
0.0377522
0.0380906
0.0380729
0.0377038
0.0369646
0.0357514
0.034032
0.031392
0.0278969
0.0229706
0.0170522
0.0103749
0.00327605
-0.00103944
-0.00477048
-0.251332
-0.213923
-0.176715
-0.141421
-0.109016
-0.0799481
-0.0543377
-0.0321104
-0.0130715
0.0029993
0.0162303
0.0266073
0.0340675
0.0387058
0.0408737
0.0412542
0.0407225
0.0388468
0.0357339
0.0310433
0.0245303
0.0161653
0.00609063
-0.00554996
-0.0188496
-0.0342962
-0.0526775
-0.074612
-0.0998375
-0.126758
-0.152581
-0.173705
-0.186222
-0.187207
-0.176598
-0.157266
-0.133594
-0.109335
-0.086773
-0.0668982
-0.0498915
-0.0355381
-0.0234844
-0.0133675
-0.00486673
0.00228454
0.00829799
0.01332
0.0174274
0.0206474
0.0230242
0.0246848
0.0258664
0.0268473
0.0278699
0.0290455
0.0303589
0.0314354
0.0324312
0.0332232
0.0337417
0.0339186
0.0337544
0.0332236
0.0322287
0.0307167
0.0283056
0.025017
0.0203485
0.0146874
0.00836526
0.0016622
-0.0020981
-0.00536363
-0.300973
-0.261267
-0.219919
-0.179719
-0.142409
-0.108851
-0.0793279
-0.053791
-0.0320143
-0.0136929
0.00143322
0.0134725
0.0223956
0.0282311
0.0313336
0.0323366
0.0319938
0.031324
0.0296544
0.0267362
0.0221732
0.0157073
0.00730951
-0.00287661
-0.014729
-0.0283897
-0.0443998
-0.0635585
-0.0864098
-0.112536
-0.14013
-0.166178
-0.186929
-0.198487
-0.198002
-0.185773
-0.164896
-0.139874
-0.114537
-0.0911819
-0.0707611
-0.0534022
-0.0388423
-0.0266907
-0.0165586
-0.00810711
-0.0010575
0.00480648
0.00962796
0.0134777
0.0163855
0.0184186
0.0197472
0.0206546
0.0214497
0.0223785
0.0235278
0.0248726
0.0261413
0.0273364
0.0283391
0.0290826
0.0294984
0.0295807
0.0292984
0.0285595
0.0272937
0.0251526
0.0221163
0.0177572
0.0124064
0.00648893
0.000221414
-0.00299552
-0.00582896
-0.316369
-0.271793
-0.22635
-0.183114
-0.143836
-0.10924
-0.0794149
-0.0541235
-0.0329743
-0.0155614
-0.00160723
0.00897329
0.0161788
0.0202437
0.0218765
0.02203
0.0217218
0.0209165
0.019608
0.0170645
0.0127959
0.00653726
-0.00173886
-0.0118955
-0.0238379
-0.0377576
-0.0542447
-0.0741007
-0.0977847
-0.124709
-0.152849
-0.178979
-0.19922
-0.209734
-0.20769
-0.193899
-0.171623
-0.145436
-0.119201
-0.0952049
-0.0743626
-0.0567524
-0.0420686
-0.0298886
-0.0198012
-0.0114525
-0.00455499
0.00110904
0.00567718
0.00921366
0.011754
0.0133937
0.0143507
0.0149562
0.0155492
0.0163767
0.0175147
0.0189403
0.0204088
0.0218396
0.0231013
0.0241201
0.0248241
0.025199
0.0252086
0.024766
0.0237881
0.0219591
0.0192232
0.0152239
0.0102363
0.00476939
-0.00102916
-0.00371885
-0.00616039
-0.332368
-0.282767
-0.233165
-0.186919
-0.145774
-0.11029
-0.0803441
-0.0554858
-0.0351558
-0.0188679
-0.00634554
0.00248536
0.00773613
0.00998259
0.0103114
0.00989134
0.00985648
0.009517
0.00878765
0.00680826
0.00301676
-0.00286037
-0.0108521
-0.0208324
-0.0327348
-0.0467971
-0.0636519
-0.0840944
-0.108492
-0.136078
-0.164608
-0.190657
-0.210265
-0.219734
-0.216073
-0.200821
-0.177333
-0.150202
-0.123277
-0.0988146
-0.0776878
-0.0599339
-0.0452122
-0.0330745
-0.0230923
-0.0149008
-0.00820736
-0.00279577
0.00146369
0.00462873
0.00674344
0.00793681
0.00847872
0.00875126
0.00912422
0.00984566
0.0109872
0.0125378
0.0142318
0.0159415
0.0175155
0.0188652
0.0199111
0.0206285
0.0209764
0.0208728
0.0202263
0.0187522
0.0163655
0.0127747
0.008201
0.00322542
-0.00207755
-0.0042613
-0.00635572
-0.348577
-0.293954
-0.240248
-0.191108
-0.148259
-0.11208
-0.0822155
-0.0579931
-0.0386962
-0.0237843
-0.0129901
-0.00621091
-0.00309151
-0.00259242
-0.00329571
-0.00404928
-0.00338133
-0.00282011
-0.00270253
-0.00390524
-0.00702554
-0.0123409
-0.0198838
-0.0295394
-0.0412673
-0.0553444
-0.072437
-0.0933252
-0.118279
-0.146351
-0.175087
-0.200874
-0.21973
-0.228305
-0.222948
-0.206386
-0.181915
-0.154089
-0.126702
-0.101962
-0.0806998
-0.062918
-0.04825
-0.0362291
-0.0264158
-0.0184389
-0.0120043
-0.00690076
-0.00300882
-0.000277489
0.00134906
0.00203875
0.00211839
0.00202459
0.00216107
0.00277785
0.00392186
0.0056443
0.00760679
0.00964649
0.0115913
0.0133323
0.0147781
0.0158913
0.0166266
0.0169064
0.0166357
0.015559
0.0135695
0.0104329
0.00632007
0.00187048
-0.00291739
-0.00462181
-0.00641667
-0.419642
-0.3645
-0.305054
-0.247452
-0.195642
-0.151324
-0.114685
-0.0851308
-0.0617652
-0.0437419
-0.0304888
-0.0217436
-0.017297
-0.0163927
-0.0174619
-0.0187899
-0.0188564
-0.0177244
-0.0159646
-0.0147177
-0.0149157
-0.0171668
-0.0217429
-0.0286768
-0.0378624
-0.0492788
-0.0632327
-0.0804129