/*--------------------------------*- C++ -*----------------------------------*\
  =========                 |
  \\      /  F ield         | OpenFOAM: The Open Source CFD Toolbox
   \\    /   O peration     | Website:  https://openfoam.org
    \\  /    A nd           | Version:  7
     \\/     M anipulation  |
\*---------------------------------------------------------------------------*/
FoamFile
{
    version     2.0;
    format      ascii;
    class       surfaceScalarField;
    location    "120";
    object      phi;
}
// * * * * * * * * * * * * * * * * * * * * * * * * * * * * * * * * * * * * * //

dimensions      [0 3 -1 0 0 0 0];

internalField   nonuniform List<scalar> 
7273
(
-0.00300831
0.011764
0.00339103
-0.00265989
0.0116239
-0.00235274
0.0115312
-0.00208133
0.0114389
-0.00184196
0.0113579
-0.00163031
0.0112858
-0.00144295
0.0112222
-0.0012769
0.0111666
-0.00112959
0.011118
-0.000998766
0.0110752
-0.000882525
0.0110373
-0.00077919
0.0110036
-0.000687285
0.0109735
-0.000605502
0.0109465
-0.000532676
0.0109223
-0.000467764
0.0109005
-0.000409835
0.0108808
-0.000358051
0.0108632
-0.000311661
0.0108474
-0.000269984
0.0108332
-0.000232407
0.0108206
-0.000198373
0.0108095
-0.000167374
0.0107997
-0.000138943
0.0107913
-0.000112651
0.0107841
-8.80956e-05
0.0107782
-6.49026e-05
0.0107735
-4.27161e-05
0.01077
-2.1194e-05
0.0107676
0.0107664
-0.0031501
0.0113621
0.00355202
-0.00278305
0.0112569
-0.00245953
0.0112076
-0.00217393
0.0111533
-0.00192188
0.0111059
-0.001699
0.0110629
-0.00150183
0.011025
-0.0013273
0.0109921
-0.00117267
0.0109633
-0.00103558
0.0109381
-0.000913977
0.0109157
-0.000806061
0.0108957
-0.000710245
0.0108777
-0.000625124
0.0108614
-0.000549447
0.0108466
-0.0004821
0.0108331
-0.000422086
0.0108208
-0.000368513
0.0108096
-0.000320582
0.0107994
-0.000277573
0.0107902
-0.000238837
0.0107819
-0.000203787
0.0107744
-0.00017189
0.0107678
-0.000142657
0.010762
-0.000115639
0.0107571
-9.0419e-05
0.010753
-6.66072e-05
0.0107497
-4.38348e-05
0.0107472
-2.1748e-05
0.0107455
0.0107447
-0.00322144
0.0109508
0.00363273
-0.0028457
0.0108811
-0.00251414
0.0108761
-0.00222131
0.0108604
-0.00196242
0.010847
-0.00173334
0.0108338
-0.00153068
0.0108224
-0.00135135
0.0108127
-0.00119257
0.0108046
-0.00105194
0.0107975
-0.000927368
0.0107911
-0.000816974
0.0107853
-0.000719106
0.0107798
-0.000632297
0.0107746
-0.00055524
0.0107695
-0.000486768
0.0107646
-0.000425843
0.0107599
-0.000371533
0.0107553
-0.000323008
0.0107509
-0.00027952
0.0107467
-0.000240398
0.0107428
-0.000205036
0.0107391
-0.000172885
0.0107357
-0.000143442
0.0107326
-0.000116249
0.0107299
-9.08796e-05
0.0107276
-6.69375e-05
0.0107257
-4.40481e-05
0.0107243
-2.18524e-05
0.0107233
0.0107228
-0.00322369
0.0105385
0.00363604
-0.00284878
0.0105062
-0.0025169
0.0105442
-0.0022232
0.0105667
-0.00196295
0.0105867
-0.00173249
0.0106034
-0.00152856
0.0106184
-0.0013481
0.0106323
-0.0011884
0.0106448
-0.00104708
0.0106562
-0.000922028
0.0106661
-0.000811356
0.0106746
-0.000713385
0.0106819
-0.000626618
0.0106878
-0.000549717
0.0106926
-0.000481492
0.0106964
-0.000420879
0.0106993
-0.000366929
0.0107014
-0.000318792
0.0107028
-0.00027571
0.0107036
-0.000237
0.010704
-0.000202049
0.0107041
-0.000170302
0.0107039
-0.000141256
0.0107035
-0.000114449
0.0107031
-8.94548e-05
0.0107026
-6.58786e-05
0.0107021
-4.33468e-05
0.0107018
-2.15029e-05
0.0107015
0.0107013
-0.00316061
0.0101318
0.00356726
-0.00279494
0.0101405
-0.00246939
0.0102186
-0.00218051
0.0102779
-0.00192399
0.0103302
-0.00169668
0.0103761
-0.00149547
0.0104172
-0.00131743
0.0104542
-0.00115998
0.0104874
-0.00102078
0.010517
-0.000897757
0.0105431
-0.000789034
0.0105659
-0.000692941
0.0105858
-0.000607976
0.0106029
-0.000532801
0.0106175
-0.00046622
0.0106298
-0.000407167
0.0106402
-0.000354688
0.0106489
-0.000307936
0.010656
-0.000266154
0.0106619
-0.000228661
0.0106666
-0.000194849
0.0106703
-0.000164169
0.0106732
-0.000136125
0.0106755
-0.000110263
0.0106772
-8.6166e-05
0.0106785
-6.34468e-05
0.0106794
-4.17423e-05
0.0106801
-2.07054e-05
0.0106804
0.0106806
-0.00303853
0.00973707
0.00343329
-0.00268806
0.00979007
-0.00237409
0.00990468
-0.00209492
0.0099987
-0.00184671
0.010082
-0.00162672
0.0101561
-0.00143197
0.0102225
-0.00125975
0.010282
-0.0011076
0.0103352
-0.000973277
0.0103826
-0.000854746
0.0104245
-0.000750179
0.0104614
-0.000657931
0.0104935
-0.000576528
0.0105215
-0.000504644
0.0105456
-0.000441103
0.0105663
-0.000384853
0.010584
-0.000334957
0.010599
-0.000290581
0.0106117
-0.000250985
0.0106223
-0.000215504
0.0106311
-0.000183549
0.0106383
-0.000154587
0.0106443
-0.000128138
0.0106491
-0.000103767
0.0106529
-8.1073e-05
0.0106558
-5.96881e-05
0.010658
-3.92654e-05
0.0106596
-1.94756e-05
0.0106606
0.0106611
-0.0028629
0.0093589
0.00324107
-0.00253201
0.00945918
-0.00223385
0.00960652
-0.00196852
0.00973337
-0.00173271
0.00984619
-0.00152381
0.00994716
-0.00133904
0.0100377
-0.00117586
0.0101188
-0.00103195
0.0101913
-0.000905155
0.0102558
-0.00079351
0.0103129
-0.000695254
0.0103631
-0.000608786
0.0104071
-0.000532666
0.0104453
-0.000465615
0.0104785
-0.000406485
0.0105072
-0.000354257
0.0105318
-0.000308029
0.0105528
-0.000266997
0.0105706
-0.00023045
0.0105857
-0.000197754
0.0105984
-0.000168348
0.0106089
-0.000141729
0.0106176
-0.000117443
0.0106248
-9.50831e-05
0.0106305
-7.42753e-05
0.010635
-5.46764e-05
0.0106384
-3.59654e-05
0.0106409
-1.78377e-05
0.0106425
0.0106433
-0.00263819
0.00900057
0.00299652
-0.00233005
0.00915104
-0.00205141
0.00932788
-0.00180358
0.00948555
-0.00158381
0.00962641
-0.00138947
0.00975283
-0.00121796
0.00986619
-0.00106689
0.00996776
-0.000934026
0.0100585
-0.00081731
0.0101391
-0.000714872
0.0102105
-0.000625007
0.0102732
-0.000546182
0.0103282
-0.000477025
0.0103762
-0.000416294
0.0104178
-0.000362898
0.0104538
-0.000315869
0.0104847
-0.000274351
0.0105113
-0.000237586
0.0105339
-0.00020491
0.010553
-0.000175732
0.0105692
-0.000149529
0.0105827
-0.000125839
0.010594
-0.000104249
0.0106032
-8.43843e-05
0.0106106
-6.59092e-05
0.0106165
-4.85135e-05
0.010621
-3.19098e-05
0.0106243
-1.58258e-05
0.0106264
0.0106275
-0.00236848
0.00866478
0.00270426
-0.00208472
0.00886728
-0.00182916
0.00907232
-0.00160235
0.00925873
-0.00140199
0.00942605
-0.00122546
0.0095763
-0.00107031
0.00971103
-0.000934246
0.0098317
-0.000815109
0.00993934
-0.000710932
0.0100349
-0.000619918
0.0101194
-0.00054045
0.0101938
-0.000471066
0.0102588
-0.000410457
0.0103156
-0.000357468
0.0103648
-0.000311064
0.0104074
-0.000270345
0.010444
-0.000234518
0.0104754
-0.000202889
0.0105022
-0.000174845
0.010525
-0.000149858
0.0105442
-0.000127461
0.0105603
-0.000107237
0.0105737
-8.88216e-05
0.0105848
-7.18905e-05
0.0105937
-5.61488e-05
0.0106008
-4.13293e-05
0.0106062
-2.71848e-05
0.0106102
-1.34824e-05
0.0106127
0.010614
-0.00205766
0.0083557
0.00236674
-0.00179928
0.00860889
-0.0015696
0.00884265
-0.00136708
0.0090562
-0.00118936
0.00924834
-0.00103372
0.00942066
-0.000897933
0.00957524
-0.000779642
0.00971341
-0.0006768
0.00983649
-0.000587497
0.00994564
-0.000510038
0.010042
-0.00044287
0.0101266
-0.000384622
0.0102006
-0.000334071
0.010265
-0.000290145
0.0103209
-0.000251898
0.0103691
-0.000218515
0.0104106
-0.000189272
0.0104462
-0.000163562
0.0104765
-0.000140845
0.0105023
-0.000120658
0.010524
-0.000102596
0.0105423
-8.6309e-05
0.0105574
-7.14925e-05
0.0105699
-5.78736e-05
0.0105801
-4.52085e-05
0.0105881
-3.32818e-05
0.0105943
-2.18943e-05
0.0105988
-1.08595e-05
0.0106017
0.0106031
-0.0017079
0.00807643
0.00198717
-0.00147742
0.00837841
-0.00127573
0.00864096
-0.00110038
0.00888085
-0.000948183
0.00909614
-0.000816515
0.009289
-0.000702913
0.00946164
-0.000605087
0.00961558
-0.00052099
0.0097524
-0.000448803
0.00987345
-0.000386886
0.00998006
-0.000333814
0.0100735
-0.000288284
0.0101551
-0.000249171
0.0102259
-0.000215525
0.0102872
-0.000186494
0.0103401
-0.000161356
0.0103855
-0.000139509
0.0104243
-0.000120401
0.0104574
-0.000103606
0.0104855
-8.87378e-05
0.0105092
-7.54608e-05
0.010529
-6.35106e-05
0.0105455
-5.26397e-05
0.0105591
-4.26373e-05
0.0105701
-3.33308e-05
0.0105788
-2.45525e-05
0.0105855
-1.61596e-05
0.0105904
-8.01709e-06
0.0105936
0.0105951
-0.00132138
0.00781933
0.00157848
-0.00112119
0.00817823
-0.000950174
0.00846994
-0.000804957
0.00873563
-0.000681028
0.00897221
-0.000576229
0.0091842
-0.000487527
0.00937294
-0.000412782
0.00954084
-0.000349822
0.00968944
-0.000296881
0.00982051
-0.000252425
0.00993561
-0.00021508
0.0100362
-0.000183702
0.0101237
-0.000157308
0.0101995
-0.000135016
0.0102649
-0.00011613
0.0103212
-0.000100051
0.0103694
-8.62397e-05
0.0104105
-7.43288e-05
0.0104455
-6.39427e-05
0.0104751
-5.48039e-05
0.0105
-4.66746e-05
0.0105209
-3.93598e-05
0.0105382
-3.26909e-05
0.0105524
-2.65449e-05
0.0105639
-2.07908e-05
0.0105731
-1.53449e-05
0.0105801
-1.0114e-05
0.0105852
-5.02148e-06
0.0105885
0.0105901
-0.000908878
0.00756223
0.00116598
-0.000732472
0.00800182
-0.000594342
0.00833181
-0.00048253
0.00862382
-0.000390381
0.00888006
-0.00031533
0.00910915
-0.000254485
0.00931209
-0.000205348
0.0094917
-0.00016579
0.00964988
-0.000134118
0.00978883
-0.000108848
0.00991034
-8.87732e-05
0.0100161
-7.28692e-05
0.0101078
-6.02633e-05
0.0101869
-5.02587e-05
0.0102549
-4.22793e-05
0.0103132
-3.5857e-05
0.010363
-3.06642e-05
0.0104053
-2.63665e-05
0.0104412
-2.27501e-05
0.0104715
-1.96311e-05
0.0104969
-1.68974e-05
0.0105181
-1.44191e-05
0.0105357
-1.2133e-05
0.0105501
-9.96823e-06
0.0105618
-7.89999e-06
0.010571
-5.88324e-06
0.0105781
-3.90335e-06
0.0105832
-1.94672e-06
0.0105865
0.0105881
-0.000493588
0.00728671
0.000769108
-0.000319809
0.00782804
-0.000212169
0.00822417
-0.000134626
0.00854628
-7.84151e-05
0.00882385
-3.65273e-05
0.00906726
-6.46292e-06
0.00928203
1.46477e-05
0.00947059
2.85179e-05
0.00963601
3.69551e-05
0.0097804
4.13366e-05
0.00990595
4.27538e-05
0.0100147
4.20725e-05
0.0101085
3.996e-05
0.010189
3.69407e-05
0.010258
3.34076e-05
0.0103168
2.96567e-05
0.0103667
2.59097e-05
0.0104091
2.23009e-05
0.0104448
1.89261e-05
0.0104749
1.58405e-05
0.0105
1.30777e-05
0.0105209
1.06297e-05
0.0105382
8.48699e-06
0.0105523
6.61893e-06
0.0105636
4.99505e-06
0.0105726
3.56805e-06
0.0105795
2.29324e-06
0.0105845
1.12185e-06
0.0105877
0.0105893
-0.000101172
0.00700647
0.000381411
9.40079e-05
0.00763286
0.000190953
0.00812723
0.000235499
0.00850173
0.000254101
0.00880525
0.000258581
0.00906278
0.000254361
0.00928625
0.000244055
0.0094809
0.000229833
0.00965023
0.00021318
0.00979705
0.000195244
0.00992389
0.000176882
0.0100331
0.000158725
0.0101266
0.000141219
0.0102065
0.000124666
0.0102745
0.000109257
0.0103322
9.50912e-05
0.0103809
8.22016e-05
0.010422
7.05705e-05
0.0104564
6.0144e-05
0.0104853
5.08433e-05
0.0105093
4.25734e-05
0.0105292
3.52276e-05
0.0105455
2.86931e-05
0.0105588
2.2854e-05
0.0105695
1.75934e-05
0.0105779
1.27939e-05
0.0105843
8.33891e-06
0.0105889
4.11313e-06
0.0105919
0.0105934
0.000292316
0.00674781
-3.36557e-05
0.000492176
0.007433
0.000591636
0.00802777
0.000614631
0.00847874
0.000597736
0.00882214
0.000563504
0.00909701
0.000522305
0.00932745
0.000478484
0.00952472
0.000434264
0.00969445
0.000390997
0.00984032
0.000349576
0.00996531
0.000310578
0.010072
0.000274346
0.0101629
0.000241049
0.0102398
0.000210723
0.0103048
0.000183314
0.0103596
0.000158698
0.0104055
0.000136704
0.010444
0.000117133
0.010476
9.97679e-05
0.0105026
8.43851e-05
0.0105247
7.0762e-05
0.0105428
5.86764e-05
0.0105576
4.79142e-05
0.0105696
3.82676e-05
0.0105791
2.95372e-05
0.0105866
2.15297e-05
0.0105923
1.40583e-05
0.0105964
6.94174e-06
0.010599
0.0106003
0.000680682
0.0065699
-0.000502775
0.000867343
0.00724634
0.000973457
0.00792165
0.000987698
0.0084645
0.000943079
0.00886676
0.000871792
0.0091683
0.000792457
0.00940678
0.000713245
0.00960393
0.00063742
0.00977028
0.000566349
0.00991139
0.000500637
0.010031
0.00044051
0.0101322
0.000385958
0.0102174
0.000336807
0.010289
0.000292783
0.0103489
0.000253543
0.0103988
0.000218707
0.0104404
0.000187881
0.0104748
0.000160663
0.0105032
0.000136663
0.0105266
0.000115504
0.0105458
9.68276e-05
0.0105615
8.02958e-05
0.0105741
6.55902e-05
0.0105843
5.24113e-05
0.0105923
4.0477e-05
0.0105985
2.95197e-05
0.0106033
1.92841e-05
0.0106066
9.52462e-06
0.0106088
0.0106098
0.0010972
0.00652135
-0.00104865
0.00122903
0.00711451
0.00132966
0.00782102
0.00134187
0.00845229
0.00127846
0.00893017
0.00117469
0.00927207
0.00105802
0.00952345
0.000942631
0.00971932
0.000834225
0.00987868
0.000734655
0.010011
0.000644316
0.0101214
0.000563026
0.0102135
0.000490341
0.0102901
0.000425679
0.0103536
0.000368396
0.0104061
0.000317824
0.0104494
0.000273296
0.0104849
0.000234168
0.0105139
0.000199826
0.0105376
0.000169696
0.0105568
0.000143241
0.0105723
0.000119968
0.0105847
9.94204e-05
0.0105947
8.11772e-05
0.0106025
6.48496e-05
0.0106086
5.00761e-05
0.0106133
3.65181e-05
0.0106168
2.38555e-05
0.0106193
1.17823e-05
0.0106209
0.0106216
0.0015588
0.00660941
-0.00164687
0.00160031
0.007073
0.00166891
0.00775242
0.00167308
0.00844812
0.0015951
0.00900815
0.00146342
0.00940376
0.00131141
0.00967546
0.00116012
0.00987061
0.00101892
0.0100199
0.000890806
0.0101391
0.000776098
0.0102361
0.000674173
0.0103154
0.000584065
0.0103802
0.000504709
0.010433
0.000435035
0.0104758
0.000374002
0.0105104
0.000320631
0.0105383
0.000274013
0.0105605
0.000233312
0.0105783
0.000197764
0.0105923
0.000166674
0.0106034
0.000139415
0.010612
0.000115416
0.0106187
9.41598e-05
0.0106238
7.51721e-05
0.0106276
5.80184e-05
0.0106305
4.22947e-05
0.0106325
2.76222e-05
0.010634
1.36405e-05
0.0106348
0.0106353
0.00206111
0.00680894
-0.00226063
0.00199871
0.0071354
0.00200699
0.00774414
0.00198557
0.00846955
0.00188864
0.00910508
0.00173025
0.00956214
0.00154459
0.00986112
0.00135835
0.0100568
0.00118501
0.0101932
0.00102912
0.010295
0.000891073
0.0103741
0.000769741
0.0104367
0.000663555
0.0104864
0.000570879
0.0105257
0.000490154
0.0105565
0.00041994
0.0105806
0.000358925
0.0105993
0.000305924
0.0106135
0.000259875
0.0106243
0.00021983
0.0106324
0.000184943
0.0106383
0.00015446
0.0106425
0.000127704
0.0106454
0.00010407
0.0106474
8.30079e-05
0.0106487
6.40191e-05
0.0106495
4.6643e-05
0.0106499
3.04499e-05
0.0106501
1.50332e-05
0.0106503
0.0106503
0.00258692
0.00708032
-0.0028583
0.00242835
0.00729396
0.00235613
0.00781636
0.00228578
0.0085399
0.00215691
0.00923394
0.00196786
0.0097512
0.00174869
0.0100803
0.00152885
0.0102767
0.00132505
0.010397
0.00114327
0.0104767
0.000983936
0.0105335
0.000845329
0.0105753
0.000725166
0.0106066
0.000621178
0.0106297
0.000531283
0.0106464
0.000453609
0.0106583
0.000386508
0.0106664
0.000328526
0.0106715
0.000278386
0.0106745
0.000234968
0.0106758
0.000197289
0.0106759
0.000164482
0.0106753
0.000135781
0.0106741
0.000110504
0.0106727
8.80397e-05
0.0106711
6.78364e-05
0.0106697
4.93879e-05
0.0106684
3.22248e-05
0.0106673
1.59043e-05
0.0106666
0.0106662
0.0031171
0.00738892
-0.0034257
0.00287919
0.00753187
0.00271622
0.00797933
0.0025741
0.00868202
0.00239531
0.00941272
0.00216733
0.00997918
0.0019133
0.0103343
0.0016618
0.0105282
0.00143063
0.0106282
0.00122637
0.010681
0.00104913
0.0107107
0.000896476
0.010728
0.000765334
0.0107377
0.000652765
0.0107422
0.000556141
0.0107431
0.000473179
0.0107413
0.00040191
0.0107376
0.000340633
0.0107328
0.000287888
0.0107272
0.000242405
0.0107213
0.000203088
0.0107153
0.000168979
0.0107094
0.000139243
0.0107039
0.000113142
0.0106988
9.00181e-05
0.0106943
6.92813e-05
0.0106904
5.03938e-05
0.0106872
3.28592e-05
0.0106848
1.62106e-05
0.0106832
0.0106824
0.00363267
0.00771769
-0.00396144
0.0033277
0.00783684
0.00306989
0.00823714
0.00283857
0.00891335
0.00259256
0.00965873
0.00231646
0.0102553
0.00202628
0.0106245
0.00174636
0.0108081
0.00149279
0.0108818
0.00127132
0.0109025
0.00108116
0.0109008
0.000918958
0.0108902
0.000780813
0.0108758
0.00066313
0.0108599
0.000562783
0.0108434
0.000477139
0.0108269
0.000403948
0.0108108
0.000341326
0.0107954
0.000287654
0.0107809
0.000241568
0.0107674
0.000201886
0.0107549
0.000167595
0.0107437
0.000137814
0.0107336
0.000111767
0.0107248
8.87752e-05
0.0107173
6.82273e-05
0.010711
4.95708e-05
0.0107059
3.22956e-05
0.0107021
1.59244e-05
0.0106996
0.0106983
0.00410615
0.00807083
-0.00445929
0.00373618
0.00820681
0.00338318
0.00859015
0.00305411
0.00924241
0.00272985
0.009983
0.00239967
0.0105855
0.00207427
0.0109499
0.00177138
0.011111
0.00150276
0.0111504
0.00127148
0.0111338
0.00107513
0.0110972
0.000909191
0.0110561
0.000768979
0.0110161
0.000650346
0.0109785
0.000549812
0.0109439
0.000464449
0.0109123
0.000391862
0.0108834
0.000330024
0.0108573
0.000277262
0.0108336
0.000232136
0.0108125
0.000193444
0.0107936
0.000160148
0.010777
0.000131351
0.0107624
0.000106275
0.0107499
8.42341e-05
0.0107393
6.46202e-05
0.0107306
4.68804e-05
0.0107236
3.05096e-05
0.0107185
1.50336e-05
0.0107151
0.0107134
0.00449187
0.00846574
-0.00488678
0.00405475
0.00864393
0.00361166
0.00903324
0.00318666
0.00966741
0.00278228
0.0103874
0.00239848
0.0109693
0.00204318
0.0113052
0.00172638
0.0114278
0.00145295
0.0114238
0.0012216
0.0113651
0.00102745
0.0112913
0.000864762
0.0112188
0.000728232
0.0111526
0.000613378
0.0110934
0.000516515
0.0110408
0.000434666
0.0109941
0.000365358
0.0109527
0.00030657
0.010916
0.000256608
0.0108836
0.000214067
0.010855
0.000177751
0.0108299
0.000146645
0.0108081
0.000119874
0.0107892
9.6686e-05
0.0107731
7.64196e-05
0.0107596
5.84814e-05
0.0107485
4.23417e-05
0.0107398
2.75144e-05
0.0107333
1.3545e-05
0.010729
0.0107269
0.00473014
0.00891356
-0.00517796
0.0042305
0.00914356
0.00370827
0.00955547
0.00319673
0.0101789
0.00271983
0.0108643
0.00229181
0.0113973
0.00191926
0.0116778
0.00160282
0.0117442
0.00133838
0.0116883
0.00111884
0.0115847
0.000936631
0.0114735
0.000784968
0.0113705
0.000658342
0.0112792
0.000552244
0.0111995
0.000463112
0.0111299
0.000388068
0.0110692
0.000324761
0.011016
0.000271269
0.0109695
0.000226001
0.0109289
0.00018763
0.0108934
0.000155045
0.0108625
0.000127294
0.0108358
0.000103569
0.0108129
8.31633e-05
0.0107935
6.54579e-05
0.0107773
4.99098e-05
0.0107641
3.60273e-05
0.0107537
2.33583e-05
0.010746
1.14828e-05
0.0107409
0.0107384
0.00476481
0.00940538
-0.00525662
0.00421234
0.00969604
0.00362246
0.0101453
0.00303892
0.0107625
0.00250901
0.0113942
0.00205937
0.0118469
0.00169238
0.0120447
0.00139696
0.0120396
0.00115852
0.0119267
0.000964121
0.0117791
0.000804022
0.0116336
0.000671332
0.0115032
0.000560727
0.0113898
0.000468264
0.011292
0.000390778
0.0112074
0.000325693
0.0111343
0.000270968
0.0110708
0.000224905
0.0110156
0.000186109
0.0109677
0.000153412
0.0109261
0.000125831
0.0108901
0.000102531
0.0108591
8.27904e-05
0.0108327
6.59901e-05
0.0108103
5.15821e-05
0.0107917
3.90888e-05
0.0107765
2.80705e-05
0.0107647
1.81278e-05
0.0107559
8.8898e-06
0.0107502
0.0107473
0.00454316
0.0099315
-0.00506929
0.00394131
0.0102979
0.00329559
0.0107911
0.00266759
0.0113905
0.00212329
0.0119385
0.00169136
0.0122789
0.00136321
0.0123729
0.00111402
0.0122888
0.000919445
0.0121213
0.000762885
0.0119356
0.000634387
0.0117621
0.000527687
0.0116099
0.000438669
0.0114788
0.000364179
0.0113664
0.000301742
0.0112699
0.000249397
0.0111866
0.000205525
0.0111146
0.000168765
0.0110524
0.000138003
0.0109984
0.000112303
0.0109518
9.08467e-05
0.0109116
7.29529e-05
0.010877
5.80376e-05
0.0108476
4.55732e-05
0.0108228
3.51173e-05
0.0108021
2.62642e-05
0.0107854
1.86501e-05
0.0107723
1.19433e-05
0.0107626
5.82513e-06
0.0107563
0.0107531
0.00399475
0.0105055
-0.00456871
0.00335195
0.0109407
0.00268149
0.0114615
0.00206361
0.0120084
0.00156541
0.0124367
0.00120251
0.0126418
0.000950061
0.0126254
0.000770341
0.0124685
0.0006343
0.0122573
0.000525537
0.0120444
0.000435651
0.011852
0.000360351
0.0116852
0.000297046
0.0115421
0.00024379
0.0114197
0.000199102
0.0113146
0.000161694
0.011224
0.000130475
0.0111458
0.000104528
0.0110783
8.30965e-05
0.0110199
6.54592e-05
0.0109694
5.10444e-05
0.010926
3.93539e-05
0.0108887
2.99363e-05
0.010857
2.24298e-05
0.0108303
1.64793e-05
0.0108081
1.1764e-05
0.0107901
8.00981e-06
0.0107761
4.95624e-06
0.0107657
2.36386e-06
0.0107589
0.0107555
0.00306216
0.0111241
-0.00368082
0.00242265
0.0115802
0.00179558
0.0120886
0.00126751
0.0125364
0.00088324
0.012821
0.000636894
0.0128881
0.000487004
0.0127752
0.000390861
0.0125647
0.000321466
0.0123267
0.000265463
0.0121004
0.000217893
0.0118996
0.000176965
0.0117261
0.0001418
0.0115773
0.000111903
0.0114496
8.6691e-05
0.0113398
6.56712e-05
0.011245
4.8343e-05
0.0111632
3.42927e-05
0.0110924
2.30409e-05
0.0110311
1.4245e-05
0.0109782
7.56346e-06
0.0109327
2.67607e-06
0.0108936
-6.7998e-07
0.0108604
-2.77571e-06
0.0108324
-3.82768e-06
0.0108091
-4.03346e-06
0.0107903
-3.5831e-06
0.0107756
-2.6514e-06
0.0107648
-1.40439e-06
0.0107576
0.0107541
0.00179606
0.0117075
-0.00237938
0.00123762
0.0121386
0.000745314
0.0125809
0.000379035
0.0129027
0.000158672
0.0130413
5.33757e-05
0.0129934
1.47258e-05
0.0128139
4.41661e-06
0.012575
1.30288e-06
0.0123298
-2.08177e-06
0.0121038
-7.15599e-06
0.0119047
-1.33748e-05
0.0117323
-1.98243e-05
0.0115837
-2.58426e-05
0.0114556
-3.09871e-05
0.0113449
-3.50377e-05
0.0112491
-3.79029e-05
0.011166
-3.96037e-05
0.0110941
-4.01702e-05
0.0110317
-3.96962e-05
0.0109777
-3.82803e-05
0.0109312
-3.60247e-05
0.0108914
-3.30423e-05
0.0108574
-2.94326e-05
0.0108288
-2.52989e-05
0.010805
-2.07376e-05
0.0107858
-1.5841e-05
0.0107707
-1.06968e-05
0.0107596
-5.3894e-06
0.0107523
0.0107487
0.000385999
0.012129
-0.000807591
-2.48265e-05
0.0125494
-0.000320132
0.0128762
-0.000482221
0.0130648
-0.000525211
0.0130843
-0.000492434
0.0129606
-0.000428646
0.0127501
-0.000362988
0.0125093
-0.000307128
0.012274
-0.000263098
0.0120597
-0.000229154
0.0118707
-0.000202802
0.011706
-0.000181872
0.0115628
-0.000164726
0.0114385
-0.000150187
0.0113304
-0.000137428
0.0112363
-0.000125872
0.0111545
-0.000115122
0.0110833
-0.0001049
0.0110215
-9.50141e-05
0.0109679
-8.53363e-05
0.0109216
-7.57799e-05
0.0108818
-6.6289e-05
0.0108479
-5.6827e-05
0.0108193
-4.7373e-05
0.0107956
-3.7915e-05
0.0107763
-2.84485e-05
0.0107612
-1.89725e-05
0.0107501
-9.48881e-06
0.0107428
0.0107392
-0.000994987
0.0123836
0.000740404
-0.00117693
0.0127314
-0.00125347
0.0129527
-0.00122089
0.0130322
-0.00111157
0.012975
-0.000968003
0.0128171
-0.000824267
0.0126064
-0.000697919
0.012383
-0.00059338
0.0121694
-0.000508814
0.0119752
-0.00044052
0.0118024
-0.000384846
0.0116503
-0.000338801
0.0115168
-0.000300092
0.0113998
-0.000266992
0.0112973
-0.000238211
0.0112075
-0.000212779
0.0111291
-0.000189966
0.0110605
-0.000169213
0.0110007
-0.000150092
0.0109487
-0.00013227
0.0109037
-0.000115485
0.010865
-9.95321e-05
0.0108319
-8.42424e-05
0.010804
-6.94789e-05
0.0107808
-5.5126e-05
0.0107619
-4.10853e-05
0.0107472
-2.72695e-05
0.0107363
-1.35994e-05
0.0107292
0.0107256
-0.00211741
0.0124417
0.00205936
-0.00209587
0.0127098
-0.00198199
0.0128389
-0.00179724
0.0128475
-0.00157836
0.0127561
-0.00135843
0.0125971
-0.00115935
0.0124073
-0.000989258
0.0122129
-0.000847761
0.0120279
-0.000730967
0.0118584
-0.000634311
0.0117058
-0.000553683
0.0115697
-0.00048574
0.0114488
-0.000427851
0.0113419
-0.000377965
0.0112474
-0.000334492
0.0111641
-0.000296187
0.0110908
-0.000262074
0.0110264
-0.000231374
0.01097
-0.000203467
0.0109208
-0.000177851
0.0108781
-0.000154116
0.0108413
-0.000131922
0.0108097
-0.000110985
0.0107831
-9.10612e-05
0.0107609
-7.1941e-05
0.0107428
-5.34376e-05
0.0107287
-3.53825e-05
0.0107183
-1.76195e-05
0.0107114
0.010708
-0.0029305
0.0123336
0.00303858
-0.0027436
0.0125229
-0.0024949
0.0125902
-0.00221344
0.012566
-0.00192935
0.012472
-0.00166495
0.0123327
-0.00143228
0.0121746
-0.00123353
0.0120142
-0.00106596
0.0118604
-0.000925045
0.0117175
-0.000806174
0.0115869
-0.000705302
0.0114688
-0.000619084
0.0113626
-0.000544812
0.0112676
-0.000480313
0.0111829
-0.000423844
0.0111076
-0.000373998
0.0110409
-0.000329637
0.010982
-0.00028983
0.0109302
-0.000253813
0.0108848
-0.000220953
0.0108453
-0.00019072
0.010811
-0.000162664
0.0107817
-0.0001364
0.0107568
-0.000111594
0.0107361
-8.79511e-05
0.0107192
-6.52056e-05
0.0107059
-4.31148e-05
0.0106962
-2.14519e-05
0.0106897
0.0106865
-0.00344512
0.0121044
0.00367432
-0.00315002
0.0122278
-0.00282507
0.0122652
-0.00249523
0.0122362
-0.00218111
0.0121579
-0.00189644
0.0120481
-0.00164676
0.0119249
-0.00143136
0.0117988
-0.00124689
0.0116759
-0.00108906
0.0115596
-0.000953718
0.0114516
-0.000837193
0.0113523
-0.000736372
0.0112618
-0.00064866
0.0111799
-0.00057191
0.0111061
-0.000504346
0.01104
-0.000444498
0.0109811
-0.000391141
0.0109287
-0.000343254
0.0108823
-0.000299977
0.0108415
-0.000260582
0.0108059
-0.000224449
0.0107749
-0.000191042
0.0107483
-0.000159895
0.0107257
-0.000130597
0.0107068
-0.000102781
0.0106914
-7.61131e-05
0.0106793
-5.02848e-05
0.0106703
-2.50065e-05
0.0106644
0.0106615
-0.00372175
0.011801
0.00402518
-0.00337261
0.0118787
-0.00301797
0.0119106
-0.00267373
0.0118919
-0.00235306
0.0118372
-0.0020641
0.0117591
-0.00180883
0.0116697
-0.00158566
0.0115756
-0.00139153
0.0114817
-0.00122281
0.0113909
-0.00107604
0.0113048
-0.00094806
0.0112243
-0.000836121
0.0111499
-0.000737853
0.0110816
-0.000651239
0.0110195
-0.000574559
0.0109634
-0.000506351
0.0109128
-0.000445371
0.0108677
-0.000390554
0.0108275
-0.000340989
0.010792
-0.000295889
0.0107608
-0.000254568
0.0107336
-0.00021643
0.0107101
-0.000180945
0.0106902
-0.000147642
0.0106735
-0.000116095
0.0106598
-8.59113e-05
0.0106491
-5.67284e-05
0.0106412
-2.82018e-05
0.0106359
0.0106333
-0.00383251
0.0114634
0.00417008
-0.00346974
0.0115159
-0.00311484
0.0115557
-0.0027762
0.0115533
-0.00246258
0.0115236
-0.00217874
0.0114753
-0.00192517
0.0114161
-0.00170043
0.0113509
-0.00150208
0.0112834
-0.0013273
0.0112161
-0.00117332
0.0111508
-0.00103755
0.0110885
-0.000917649
0.0110299
-0.000811522
0.0109755
-0.00071734
0.0109253
-0.000633498
0.0108795
-0.000558596
0.0108379
-0.000491413
0.0108005
-0.000430886
0.010767
-0.000376082
0.0107372
-0.000326184
0.0107109
-0.000280472
0.0106879
-0.000238304
0.010668
-0.000199107
0.010651
-0.000162365
0.0106367
-0.000127603
0.0106251
-9.43859e-05
0.0106159
-6.23036e-05
0.0106091
-3.09671e-05
0.0106046
0.0106023
-0.00383897
0.0111201
0.00418226
-0.00348652
0.0111635
-0.00314642
0.0112156
-0.0028233
0.0112302
-0.00252339
0.0112237
-0.00224961
0.0112015
-0.00200212
0.0111686
-0.00177993
0.0111287
-0.00158131
0.0110848
-0.00140418
0.011039
-0.00124642
0.0109931
-0.00110597
0.0109481
-0.000980857
0.0109048
-0.000869307
0.0108639
-0.000769693
0.0108257
-0.000680554
0.0107904
-0.000600583
0.010758
-0.000528616
0.0107285
-0.000463616
0.010702
-0.000404661
0.0106782
-0.000350925
0.0106571
-0.000301672
0.0106386
-0.000256235
0.0106225
-0.000214014
0.0106088
-0.000174459
0.0105972
-0.000137063
0.0105877
-0.000101355
0.0105802
-6.68895e-05
0.0105746
-3.32419e-05
0.0105709
0.0105691
-0.00378489
0.0107876
0.00411743
-0.00345321
0.0108318
-0.00313356
0.0108959
-0.00282954
0.0109262
-0.00254579
0.0109399
-0.00228427
0.01094
-0.00204525
0.0109296
-0.00182825
0.0109117
-0.00163213
0.0108886
-0.00145546
0.0108623
-0.00129663
0.0108342
-0.00115404
0.0108055
-0.00102608
0.0107769
-0.000911257
0.0107491
-0.000808147
0.0107226
-0.000715443
0.0106977
-0.000631949
0.0106745
-0.000556574
0.0106532
-0.000488328
0.0106337
-0.000426315
0.0106162
-0.000369722
0.0106005
-0.000317808
0.0105867
-0.000269902
0.0105746
-0.000225385
0.0105642
-0.000183688
0.0105555
-0.000144284
0.0105483
-0.000106675
0.0105426
-7.03902e-05
0.0105383
-3.49785e-05
0.0105355
0.0105341
-0.00369716
0.0104732
0.00401155
-0.00338847
0.0105231
-0.00308977
0.0105972
-0.00280491
0.0106413
-0.00253737
0.0106724
-0.00228865
0.0106912
-0.00205924
0.0107002
-0.00184902
0.0107015
-0.00165731
0.0106969
-0.00148315
0.0106882
-0.00132537
0.0106765
-0.00118271
0.0106628
-0.0010539
0.0106481
-0.000937667
0.0106329
-0.000832788
0.0106177
-0.000738106
0.010603
-0.000652534
0.0105889
-0.000575063
0.0105757
-0.000504762
0.0105634
-0.00044077
0.0105522
-0.000382299
0.0105421
-0.000328619
0.010533
-0.000279062
0.0105251
-0.000233005
0.0105182
-0.00018987
0.0105123
-0.000149117
0.0105075
-0.000110232
0.0105037
-7.27298e-05
0.0105008
-3.61385e-05
0.0104989
0.010498
-0.00358997
0.0101785
0.00388462
-0.00330273
0.0102359
-0.00302338
0.0103179
-0.00275618
0.0103741
-0.00250376
0.01042
-0.00226749
0.010455
-0.00204801
0.0104807
-0.00184542
0.0104989
-0.00165938
0.0105109
-0.00148923
0.010518
-0.00133412
0.0105213
-0.00119308
0.0105218
-0.00106508
0.0105201
-0.00094904
0.0105168
-0.000843921
0.0105126
-0.000748693
0.0105078
-0.000662377
0.0105026
-0.000584045
0.0104973
-0.000512824
0.0104922
-0.0004479
0.0104873
-0.000388514
0.0104827
-0.000333958
0.0104785
-0.000283573
0.0104747
-0.000236743
0.0104713
-0.000192888
0.0104685
-0.000151465
0.0104661
-0.000111954
0.0104642
-7.3858e-05
0.0104627
-3.66967e-05
0.0104618
0.0104613
-0.00347023
0.00990137
0.00374739
-0.00320127
0.00996691
-0.00293891
0.0100555
-0.00268745
0.0101226
-0.0024488
0.0101813
-0.00222426
0.0102304
-0.0020146
0.010271
-0.00182006
0.0103043
-0.00164048
0.0103313
-0.00147542
0.010353
-0.00132424
0.0103702
-0.00118618
0.0103837
-0.00106038
0.0103943
-0.000945932
0.0104024
-0.000841924
0.0104086
-0.000747446
0.0104133
-0.000661612
0.0104168
-0.000583571
0.0104193
-0.000512511
0.0104211
-0.000447662
0.0104224
-0.0003883
0.0104233
-0.000333743
0.0104239
-0.000283349
0.0104243
-0.000236514
0.0104245
-0.000192666
0.0104246
-0.000151263
0.0104247
-0.000111787
0.0104247
-7.37393e-05
0.0104247
-3.6635e-05
0.0104247
0.0104247
-0.00334219
0.0096376
0.00360596
-0.00308738
0.0097121
-0.00283908
0.00980723
-0.00260119
0.00988474
-0.00237494
0.00995507
-0.00216142
0.0100169
-0.00196135
0.010071
-0.00177505
0.010118
-0.00160246
0.0101587
-0.0014433
0.0101938
-0.00129705
0.0102239
-0.00116308
0.0102497
-0.00104066
0.0102718
-0.000929003
0.0102907
-0.000827303
0.0103069
-0.000734742
0.0103207
-0.000650515
0.0103325
-0.000573838
0.0103426
-0.000503953
0.0103513
-0.000440137
0.0103586
-0.000381702
0.0103649
-0.000327994
0.0103702
-0.000278393
0.0103747
-0.000232311
0.0103784
-0.000189191
0.0103815
-0.000148498
0.010384
-0.00010972