/*--------------------------------*- C++ -*----------------------------------*\
  =========                 |
  \\      /  F ield         | OpenFOAM: The Open Source CFD Toolbox
   \\    /   O peration     | Website:  https://openfoam.org
    \\  /    A nd           | Version:  7
     \\/     M anipulation  |
\*---------------------------------------------------------------------------*/
FoamFile
{
    version     2.0;
    format      ascii;
    class       volVectorField;
    location    "120";
    object      U;
}
// * * * * * * * * * * * * * * * * * * * * * * * * * * * * * * * * * * * * * //

dimensions      [0 1 -1 0 0 0 0];

internalField   nonuniform List<vector> 
3700
(
(1.22177 0.275286 0)
(1.2055 0.257551 0)
(1.1937 0.2223 0)
(1.18224 0.197963 0)
(1.17217 0.175175 0)
(1.16326 0.154951 0)
(1.15543 0.137137 0)
(1.14859 0.121369 0)
(1.14261 0.107379 0)
(1.13735 0.0949611 0)
(1.1327 0.0839327 0)
(1.12857 0.074132 0)
(1.12488 0.0654183 0)
(1.12159 0.0576673 0)
(1.11863 0.0507683 0)
(1.11598 0.0446227 0)
(1.11361 0.0391421 0)
(1.11148 0.0342477 0)
(1.10958 0.0298682 0)
(1.10788 0.0259398 0)
(1.10638 0.0224048 0)
(1.10505 0.0192108 0)
(1.10389 0.0163103 0)
(1.1029 0.0136598 0)
(1.10205 0.0112194 0)
(1.10136 0.00895181 0)
(1.10081 0.00682249 0)
(1.10039 0.00479884 0)
(1.10012 0.00284994 0)
(1.09998 0.00094466 0)
(1.18128 0.289949 0)
(1.16862 0.269308 0)
(1.16127 0.23232 0)
(1.15366 0.206952 0)
(1.14701 0.182797 0)
(1.14104 0.161526 0)
(1.13578 0.142794 0)
(1.13119 0.126213 0)
(1.12718 0.111522 0)
(1.12366 0.0985025 0)
(1.12055 0.0869588 0)
(1.11777 0.0767173 0)
(1.11529 0.0676271 0)
(1.11305 0.0595547 0)
(1.11104 0.0523814 0)
(1.10922 0.0460014 0)
(1.10757 0.0403205 0)
(1.10609 0.0352543 0)
(1.10475 0.0307273 0)
(1.10355 0.0266716 0)
(1.10247 0.0230262 0)
(1.10151 0.0197358 0)
(1.10067 0.0167506 0)
(1.09994 0.0140247 0)
(1.09932 0.0115166 0)
(1.09881 0.00918738 0)
(1.0984 0.00700115 0)
(1.09809 0.00492408 0)
(1.09788 0.0029241 0)
(1.09778 0.00096937 0)
(1.13926 0.298336 0)
(1.13023 0.274965 0)
(1.12744 0.237473 0)
(1.12382 0.211585 0)
(1.12069 0.186648 0)
(1.11778 0.164835 0)
(1.11522 0.145591 0)
(1.113 0.128547 0)
(1.11108 0.113458 0)
(1.1094 0.1001 0)
(1.10791 0.0882685 0)
(1.10656 0.077786 0)
(1.10534 0.0684958 0)
(1.10423 0.0602584 0)
(1.1032 0.0529498 0)
(1.10225 0.0464595 0)
(1.10137 0.040689 0)
(1.10055 0.0355504 0)
(1.0998 0.0309649 0)
(1.09911 0.0268622 0)
(1.09848 0.0231789 0)
(1.0979 0.0198581 0)
(1.09739 0.0168481 0)
(1.09693 0.014102 0)
(1.09654 0.0115771 0)
(1.09621 0.00923381 0)
(1.09595 0.00703546 0)
(1.09575 0.00494767 0)
(1.09561 0.00293784 0)
(1.09554 0.000973983 0)
(1.09684 0.300493 0)
(1.09153 0.274688 0)
(1.09324 0.23781 0)
(1.0936 0.211835 0)
(1.09395 0.186698 0)
(1.09412 0.16481 0)
(1.09429 0.145444 0)
(1.0945 0.128289 0)
(1.09471 0.11311 0)
(1.09491 0.0996808 0)
(1.09508 0.0877983 0)
(1.0952 0.0772837 0)
(1.09528 0.0679781 0)
(1.09531 0.0597394 0)
(1.09529 0.052441 0)
(1.09523 0.0459699 0)
(1.09513 0.0402255 0)
(1.09499 0.0351178 0)
(1.09484 0.0305666 0)
(1.09466 0.0265001 0)
(1.09448 0.0228539 0)
(1.09429 0.0195703 0)
(1.09411 0.0165973 0)
(1.09393 0.0138874 0)
(1.09377 0.0113978 0)
(1.09363 0.00908878 0)
(1.09351 0.00692379 0)
(1.09342 0.00486855 0)
(1.09335 0.00289059 0)
(1.09332 0.000958328 0)
(1.0548 0.296636 0)
(1.05346 0.268842 0)
(1.05946 0.233474 0)
(1.06367 0.207811 0)
(1.0674 0.183023 0)
(1.0706 0.161473 0)
(1.07348 0.142357 0)
(1.07608 0.125429 0)
(1.07841 0.11046 0)
(1.0805 0.0972269 0)
(1.08234 0.08553 0)
(1.08394 0.075194 0)
(1.08532 0.0660603 0)
(1.08649 0.0579869 0)
(1.08748 0.050847 0)
(1.08831 0.0445273 0)
(1.08898 0.0389267 0)
(1.08953 0.0339551 0)
(1.08997 0.0295321 0)
(1.09031 0.025586 0)
(1.09057 0.0220528 0)
(1.09076 0.0188748 0)
(1.09091 0.0160006 0)
(1.091 0.0133834 0)
(1.09107 0.010981 0)
(1.09111 0.00875441 0)
(1.09113 0.0066679 0)
(1.09115 0.00468802 0)
(1.09115 0.00278315 0)
(1.09115 0.000922696 0)
(1.0137 0.287088 0)
(1.01675 0.257856 0)
(1.02669 0.224698 0)
(1.03455 0.199707 0)
(1.04151 0.175749 0)
(1.04765 0.154904 0)
(1.05316 0.136392 0)
(1.0581 0.120013 0)
(1.06253 0.105541 0)
(1.06646 0.0927609 0)
(1.06994 0.0814822 0)
(1.07299 0.0715328 0)
(1.07565 0.062757 0)
(1.07795 0.0550149 0)
(1.07993 0.0481816 0)
(1.08163 0.0421453 0)
(1.08306 0.0368062 0)
(1.08428 0.0320756 0)
(1.08529 0.0278745 0)
(1.08613 0.0241325 0)
(1.08682 0.020787 0)
(1.08739 0.0177821 0)
(1.08784 0.0150677 0)
(1.08821 0.0125986 0)
(1.08849 0.010334 0)
(1.08871 0.00823676 0)
(1.08887 0.00627256 0)
(1.08898 0.00440953 0)
(1.08906 0.0026176 0)
(1.08909 0.000867793 0)
(0.974095 0.272275 0)
(0.981861 0.242204 0)
(0.995335 0.211747 0)
(1.00666 0.187759 0)
(1.0167 0.165029 0)
(1.02567 0.145224 0)
(1.0337 0.127646 0)
(1.0409 0.112117 0)
(1.04734 0.0984155 0)
(1.05306 0.0863383 0)
(1.05813 0.0757036 0)
(1.06258 0.0663439 0)
(1.06648 0.0581079 0)
(1.06987 0.0508602 0)
(1.0728 0.0444791 0)
(1.07533 0.0388558 0)
(1.0775 0.0338937 0)
(1.07934 0.0295068 0)
(1.08091 0.025619 0)
(1.08222 0.0221626 0)
(1.08332 0.0190778 0)
(1.08424 0.0163111 0)
(1.08499 0.0138151 0)
(1.0856 0.0115472 0)
(1.08609 0.00946909 0)
(1.08648 0.00754582 0)
(1.08677 0.00574552 0)
(1.08698 0.00403861 0)
(1.08711 0.00239723 0)
(1.08718 0.00079472 0)
(0.936408 0.252647 0)
(0.94915 0.22231 0)
(0.965777 0.194861 0)
(0.980359 0.172204 0)
(0.993345 0.151032 0)
(1.00499 0.132578 0)
(1.01543 0.116244 0)
(1.02478 0.101848 0)
(1.03314 0.0891774 0)
(1.04057 0.0780435 0)
(1.04714 0.0682703 0)
(1.05292 0.0596963 0)
(1.05799 0.0521769 0)
(1.06241 0.0455815 0)
(1.06624 0.0397935 0)
(1.06955 0.0347087 0)
(1.0724 0.0302349 0)
(1.07484 0.0262906 0)
(1.07691 0.0228037 0)
(1.07867 0.0197107 0)
(1.08015 0.0169556 0)
(1.08138 0.014489 0)
(1.08241 0.0122667 0)
(1.08325 0.0102498 0)
(1.08392 0.00840326 0)
(1.08446 0.00669541 0)
(1.08487 0.00509749 0)
(1.08516 0.00358286 0)
(1.08535 0.00212662 0)
(1.08545 0.000704999 0)
(0.900892 0.228641 0)
(0.918897 0.198526 0)
(0.938403 0.174239 0)
(0.956023 0.153255 0)
(0.9718 0.13394 0)
(0.985966 0.117137 0)
(0.998666 0.102334 0)
(1.01004 0.089336 0)
(1.0202 0.0779477 0)
(1.02922 0.0679874 0)
(1.0372 0.0592841 0)
(1.04423 0.0516846 0)
(1.05038 0.0450509 0)
(1.05574 0.0392592 0)
(1.0604 0.0341987 0)
(1.06442 0.0297716 0)
(1.06789 0.0258917 0)
(1.07086 0.0224829 0)
(1.0734 0.019479 0)
(1.07555 0.0168221 0)
(1.07736 0.0144609 0)
(1.07889 0.0123511 0)
(1.08015 0.0104531 0)
(1.08119 0.00873248 0)
(1.08204 0.00715841 0)
(1.0827 0.00570327 0)
(1.08321 0.00434207 0)
(1.08358 0.00305193 0)
(1.08383 0.00181151 0)
(1.08394 0.000600543 0)
(0.867831 0.200553 0)
(0.891196 0.171254 0)
(0.913572 0.150093 0)
(0.934022 0.131115 0)
(0.952415 0.113941 0)
(0.968925 0.099084 0)
(0.983731 0.086082 0)
(0.996984 0.0747401 0)
(1.0088 0.0648746 0)
(1.01928 0.0563067 0)
(1.02855 0.0488728 0)
(1.03669 0.0424275 0)
(1.04382 0.0368405 0)
(1.05003 0.0319951 0)
(1.05541 0.0277883 0)
(1.06007 0.0241302 0)
(1.06408 0.0209415 0)
(1.06752 0.0181541 0)
(1.07045 0.0157085 0)
(1.07294 0.013553 0)
(1.07504 0.0116435 0)
(1.07681 0.00994084 0)
(1.07828 0.00841186 0)
(1.07949 0.00702727 0)
(1.08047 0.00576114 0)
(1.08124 0.00459079 0)
(1.08184 0.00349579 0)
(1.08227 0.0024575 0)
(1.08256 0.00145885 0)
(1.08269 0.000483659 0)
(0.837793 0.168398 0)
(0.866165 0.140864 0)
(0.891511 0.122703 0)
(0.914671 0.106036 0)
(0.935507 0.0912502 0)
(0.954184 0.0786166 0)
(0.970926 0.0676756 0)
(0.98588 0.0582404 0)
(0.999188 0.05013 0)
(1.01098 0.0431647 0)
(1.02138 0.0371905 0)
(1.0305 0.032069 0)
(1.03848 0.0276781 0)
(1.04541 0.0239119 0)
(1.05142 0.0206757 0)
(1.05661 0.0178874 0)
(1.06107 0.0154783 0)
(1.06489 0.0133883 0)
(1.06814 0.0115669 0)
(1.07091 0.00997051 0)
(1.07324 0.00856177 0)
(1.0752 0.00730967 0)
(1.07682 0.00618728 0)
(1.07816 0.00517137 0)
(1.07925 0.00424246 0)
(1.08011 0.00338299 0)
(1.08078 0.00257768 0)
(1.08126 0.0018131 0)
(1.08157 0.00107672 0)
(1.08172 0.000357032 0)
(0.81088 0.132479 0)
(0.844195 0.107471 0)
(0.872427 0.0922878 0)
(0.898238 0.0782502 0)
(0.921348 0.0661052 0)
(0.942041 0.0559489 0)
(0.960533 0.0473219 0)
(0.977004 0.0400429 0)
(0.991619 0.0339095 0)
(1.00453 0.0287501 0)
(1.0159 0.024415 0)
(1.02584 0.020776 0)
(1.03451 0.0177214 0)
(1.04203 0.0151538 0)
(1.04854 0.0129918 0)
(1.05414 0.0111637 0)
(1.05894 0.00960987 0)
(1.06305 0.00828299 0)
(1.06654 0.00714139 0)
(1.0695 0.00615063 0)
(1.072 0.00528335 0)
(1.07409 0.00451609 0)
(1.07583 0.0038291 0)
(1.07726 0.00320729 0)
(1.07842 0.00263741 0)
(1.07934 0.00210791 0)
(1.08005 0.00160936 0)
(1.08056 0.00113377 0)
(1.08089 0.000674098 0)
(1.08105 0.00022367 0)
(0.785415 0.0945404 7.89273e-12)
(0.825362 0.0712738 7.99221e-12)
(0.856648 0.0589775 0)
(0.88505 0.0478483 7.92963e-12)
(0.910227 0.0387103 7.70259e-12)
(0.932785 0.0312982 2.1379e-28)
(0.952825 0.0252544 -7.09997e-12)
(0.970613 0.0203698 -6.68844e-12)
(0.986324 0.0164385 0)
(1.00016 0.0132781 0)
(1.01229 0.0107513 0)
(1.02287 0.00874213 0)
(1.03206 0.00714893 0)
(1.04001 0.00588622 0)
(1.04686 0.00488747 0)
(1.05274 0.00409431 0)
(1.05777 0.00345994 0)
(1.06206 0.00294819 0)
(1.0657 0.00252842 0)
(1.06878 0.00217912 0)
(1.07137 0.00188332 -3.73198e-12)
(1.07353 0.00162474 -7.28621e-12)
(1.07533 0.00139286 -3.56793e-12)
(1.0768 0.00118181 0)
(1.07799 0.000984489 3.45349e-12)
(1.07894 0.000796407 3.412e-12)
(1.07966 0.000614184 0)
(1.08019 0.000436364 3.35628e-12)
(1.08053 0.000260914 3.34087e-12)
(1.0807 8.6763e-05 9.61676e-29)
(0.758525 0.0576215 -7.89115e-12)
(0.808156 0.0333236 -7.99221e-12)
(0.844365 0.0232786 0)
(0.87539 0.0149443 -7.92963e-12)
(0.902553 0.00923108 -7.70259e-12)
(0.926715 0.00487473 -2.1379e-28)
(0.948095 0.00172137 7.09997e-12)
(0.966952 -0.000520548 6.68844e-12)
(0.983532 -0.00202988 0)
(0.998057 -0.0030081 0)
(1.01073 -0.00356774 0)
(1.02173 -0.00381559 0)
(1.03125 -0.00383831 0)
(1.03945 -0.00370478 0)
(1.04648 -0.00346711 0)
(1.0525 -0.00316722 0)
(1.05762 -0.00283623 0)
(1.06198 -0.00249624 0)
(1.06566 -0.00216395 0)
(1.06876 -0.00184911 0)
(1.07136 -0.00155787 3.73198e-12)
(1.07353 -0.00129481 7.28621e-12)
(1.07532 -0.00106104 3.56793e-12)
(1.07679 -0.000854905 0)
(1.07798 -0.000675109 -3.45349e-12)
(1.07891 -0.000518732 -3.412e-12)
(1.07963 -0.000382367 0)
(1.08015 -0.000261599 -3.35628e-12)
(1.08049 -0.000152384 -3.34087e-12)
(1.08065 -5.00809e-05 -9.61676e-29)
(0.729404 0.0236044 0)
(0.789614 -0.00439184 0)
(0.834398 -0.0135442 0)
(0.869314 -0.0196728 0)
(0.898709 -0.0220967 0)
(0.924253 -0.0230418 0)
(0.946684 -0.0230057 0)
(0.966322 -0.0223354 0)
(0.983487 -0.021223 0)
(0.998426 -0.0198314 0)
(1.01138 -0.0182769 0)
(1.02257 -0.0166478 0)
(1.03219 -0.0150099 0)
(1.04043 -0.013411 0)
(1.04747 -0.0118845 0)
(1.05345 -0.0104526 0)
(1.05853 -0.00912838 0)
(1.06282 -0.00791736 0)
(1.06643 -0.00682045 0)
(1.06946 -0.00583412 0)
(1.07199 -0.00495226 0)
(1.07409 -0.00416717 0)
(1.07582 -0.00346985 0)
(1.07723 -0.00285013 0)
(1.07837 -0.00229794 0)
(1.07926 -0.0018028 0)
(1.07995 -0.00135424 0)
(1.08044 -0.000941686 0)
(1.08076 -0.000554836 0)
(1.08092 -0.000183283 0)
(0.700388 -0.00973384 0)
(0.768934 -0.039181 0)
(0.824662 -0.0500463 0)
(0.866179 -0.054852 0)
(0.898747 -0.0545589 0)
(0.925755 -0.0520213 0)
(0.948937 -0.0485502 0)
(0.969018 -0.0447195 0)
(0.986415 -0.0407727 0)
(1.00144 -0.036856 0)
(1.01438 -0.0330678 0)
(1.02547 -0.0294725 0)
(1.03495 -0.0261098 0)
(1.04301 -0.0230023 0)
(1.04985 -0.0201591 0)
(1.05563 -0.0175796 0)
(1.06051 -0.0152559 0)
(1.0646 -0.0131743 0)
(1.06802 -0.0113187 0)
(1.07088 -0.00967001 0)
(1.07325 -0.00820868 0)
(1.07521 -0.00691463 0)
(1.07682 -0.00576803 0)
(1.07812 -0.00474923 0)
(1.07916 -0.00383942 0)
(1.07998 -0.0030204 0)
(1.08061 -0.0022746 0)
(1.08105 -0.00158504 0)
(1.08135 -0.000935279 0)
(1.08149 -0.000309168 0)
(0.676581 -0.0464933 0)
(0.748152 -0.0713841 0)
(0.814023 -0.0841723 0)
(0.864567 -0.0890511 0)
(0.902121 -0.0869898 0)
(0.931222 -0.0813295 0)
(0.955074 -0.0743755 0)
(0.975253 -0.067217 0)
(0.992498 -0.0602701 0)
(1.00724 -0.0537027 0)
(1.01982 -0.0475932 0)
(1.03051 -0.0419753 0)
(1.03957 -0.0368562 0)
(1.04722 -0.0322277 0)
(1.05365 -0.0280695 0)
(1.05904 -0.0243542 0)
(1.06354 -0.0210493 0)
(1.0673 -0.0181202 0)
(1.07042 -0.0155315 0)
(1.073 -0.0132475 0)
(1.07512 -0.0112341 0)
(1.07687 -0.00945837 0)
(1.07828 -0.00788921 0)
(1.07942 -0.00649724 0)
(1.08033 -0.00525491 0)
(1.08104 -0.00413623 0)
(1.08158 -0.0031167 0)
(1.08196 -0.00217295 0)
(1.08221 -0.00128265 0)
(1.08233 -0.000424062 0)
(0.664281 -0.0883024 0)
(0.730778 -0.10385 0)
(0.802896 -0.115885 0)
(0.863233 -0.121107 0)
(0.907828 -0.118206 0)
(0.940286 -0.110066 0)
(0.965112 -0.099814 0)
(0.985169 -0.0892826 0)
(1.00187 -0.0792372 0)
(1.01593 -0.0699401 0)
(1.02777 -0.0614645 0)
(1.03773 -0.053809 0)
(1.04607 -0.0469422 0)
(1.05303 -0.0408179 0)
(1.05883 -0.0353809 0)
(1.06363 -0.0305725 0)
(1.06761 -0.0263331 0)
(1.07088 -0.0226043 0)
(1.07357 -0.01933 0)
(1.07577 -0.0164569 0)
(1.07756 -0.0139356 0)
(1.07902 -0.0117202 0)
(1.08018 -0.00976818 0)
(1.08112 -0.00804043 0)
(1.08185 -0.00650085 0)
(1.08241 -0.00511599 0)
(1.08284 -0.00385461 0)
(1.08314 -0.00268734 0)
(1.08333 -0.00158626 0)
(1.08343 -0.000524433 0)
(0.666659 -0.135708 0)
(0.721264 -0.139096 0)
(0.793478 -0.146744 0)
(0.86207 -0.151019 0)
(0.91505 -0.147485 0)
(0.952387 -0.137395 0)
(0.97887 -0.124136 0)
(0.998785 -0.110295 0)
(1.01461 -0.0971292 0)
(1.02755 -0.0850838 0)
(1.03824 -0.0742516 0)
(1.04709 -0.0645958 0)
(1.05439 -0.0560386 0)
(1.0604 -0.0484883 0)
(1.06533 -0.041849 0)
(1.06935 -0.0360261 0)
(1.07262 -0.0309298 0)
(1.07528 -0.026476 0)
(1.07742 -0.0225868 0)
(1.07914 -0.0191908 0)
(1.08052 -0.0162232 0)
(1.08161 -0.0136249 0)
(1.08247 -0.0113426 0)
(1.08314 -0.00932772 0)
(1.08366 -0.00753615 0)
(1.08405 -0.00592739 0)
(1.08434 -0.00446407 0)
(1.08455 -0.0031113 0)
(1.08467 -0.00183615 0)
(1.08474 -0.000606983 0)
(0.682355 -0.186693 0)
(0.722342 -0.178247 0)
(0.788901 -0.178666 0)
(0.862379 -0.179693 0)
(0.92373 -0.174694 0)
(0.967143 -0.162683 0)
(0.996112 -0.146602 0)
(1.01602 -0.129558 0)
(1.03067 -0.113326 0)
(1.04206 -0.0985895 0)
(1.05116 -0.0854813 0)
(1.05851 -0.0739285 0)
(1.06444 -0.0637984 0)
(1.06921 -0.0549455 0)
(1.07304 -0.0472264 0)
(1.07608 -0.0405071 0)
(1.07849 -0.0346653 0)
(1.08039 -0.0295897 0)
(1.08187 -0.0251804 0)
(1.08302 -0.0213479 0)
(1.0839 -0.0180125 0)
(1.08458 -0.0151029 0)
(1.08508 -0.0125553 0)
(1.08545 -0.0103126 0)
(1.08572 -0.00832352 0)
(1.08591 -0.00654133 0)
(1.08604 -0.00492327 0)
(1.08613 -0.00342971 0)
(1.08618 -0.00202341 0)
(1.08621 -0.000668774 0)
(0.707498 -0.238545 0)
(0.734074 -0.220796 0)
(0.791797 -0.212805 0)
(0.866418 -0.208155 0)
(0.934798 -0.199985 0)
(0.984671 -0.185413 0)
(1.01672 -0.166427 0)
(1.03676 -0.146272 0)
(1.04995 -0.127111 0)
(1.05934 -0.109843 0)
(1.06639 -0.0946364 0)
(1.07183 -0.0813758 0)
(1.07605 -0.0698644 0)
(1.0793 -0.0598944 0)
(1.08179 -0.0512702 0)
(1.08367 -0.043816 0)
(1.08507 -0.0373753 0)
(1.08609 -0.0318103 0)
(1.08681 -0.0269998 0)
(1.08731 -0.0228372 0)
(1.08763 -0.019229 0)
(1.08783 -0.0160929 0)
(1.08793 -0.0133564 0)
(1.08796 -0.0109549 0)
(1.08796 -0.00883104 0)
(1.08793 -0.00693301 0)
(1.08789 -0.00521372 0)
(1.08785 -0.00362976 0)
(1.08782 -0.00214051 0)
(1.0878 -0.000707322 0)
(0.737877 -0.289343 0)
(0.754791 -0.265183 0)
(0.803646 -0.248883 0)
(0.876685 -0.236636 0)
(0.949958 -0.223215 0)
(1.00565 -0.204922 0)
(1.04078 -0.182688 0)
(1.06084 -0.159502 0)
(1.07222 -0.13766 0)
(1.07912 -0.118161 0)
(1.08366 -0.101164 0)
(1.08678 -0.0864945 0)
(1.08895 -0.0738821 0)
(1.09042 -0.0630516 0)
(1.09137 -0.053754 0)
(1.09192 -0.045771 0)
(1.09218 -0.0389141 0)
(1.09222 -0.0330207 0)
(1.0921 -0.0279504 0)
(1.09188 -0.0235821 0)
(1.09159 -0.0198108 0)
(1.09127 -0.0165453 0)
(1.09093 -0.0137059 0)
(1.09061 -0.0112226 0)
(1.0903 -0.00903351 0)
(1.09003 -0.00708303 0)
(1.08981 -0.00532104 0)
(1.08963 -0.00370155 0)
(1.08951 -0.00218167 0)
(1.08945 -0.00072072 0)
(0.770611 -0.337951 0)
(0.782678 -0.309137 0)
(0.825029 -0.284977 0)
(0.895332 -0.263943 0)
(0.971174 -0.243429 0)
(1.03109 -0.220156 0)
(1.06848 -0.194259 0)
(1.08802 -0.168193 0)
(1.09708 -0.144083 0)
(1.10099 -0.12283 0)
(1.10254 -0.104509 0)
(1.10297 -0.0888567 0)
(1.1028 -0.0755226 0)
(1.10226 -0.0641646 0)
(1.1015 -0.0544825 0)
(1.1006 -0.046221 0)
(1.09961 -0.0391639 0)
(1.09859 -0.0331286 0)
(1.09757 -0.0279599 0)
(1.09659 -0.0235257 0)
(1.09565 -0.0197129 0)
(1.09479 -0.0164244 0)
(1.09399 -0.0135758 0)
(1.09329 -0.0110939 0)
(1.09267 -0.0089139 0)
(1.09216 -0.00697837 0)
(1.09174 -0.00523568 0)
(1.09142 -0.00363857 0)
(1.09121 -0.0021431 0)
(1.09111 -0.00070773 0)
(0.805008 -0.382751 0)
(0.816947 -0.34941 0)
(0.85613 -0.317655 0)
(0.923741 -0.287434 0)
(1.00001 -0.258754 0)
(1.06187 -0.229621 0)
(1.0999 -0.199838 0)
(1.11789 -0.17124 0)
(1.12392 -0.145489 0)
(1.12429 -0.12317 0)
(1.12244 -0.104165 0)
(1.11987 -0.0880926 0)
(1.11713 -0.0745165 0)
(1.11443 -0.0630352 0)
(1.11184 -0.0533104 0)
(1.1094 -0.0450587 0)
(1.10711 -0.0380453 0)
(1.105 -0.0320749 0)
(1.10305 -0.0269841 0)
(1.10128 -0.022635 0)
(1.09969 -0.0189106 0)
(1.09826 -0.0157116 0)
(1.09701 -0.0129522 0)
(1.09592 -0.0105581 0)
(1.09499 -0.0084643 0)
(1.09423 -0.00661337 0)
(1.09361 -0.00495365 0)
(1.09316 -0.00343813 0)
(1.09285 -0.00202324 0)
(1.0927 -0.000667841 0)
(0.842478 -0.420102 0)
(0.857873 -0.381544 0)
(0.896786 -0.342556 0)
(0.962238 -0.303551 0)
(1.03714 -0.26661 0)
(1.09832 -0.231425 0)
(1.13478 -0.197979 0)
(1.14976 -0.167552 0)
(1.15186 -0.141086 0)
(1.14816 -0.118621 0)
(1.14259 -0.0997505 0)
(1.13682 -0.0839444 0)
(1.1314 -0.0706904 0)
(1.12647 -0.0595504 0)
(1.12202 -0.0501633 0)
(1.11801 -0.0422359 0)
(1.11442 -0.0355279 0)
(1.11121 -0.0298415 0)
(1.10834 -0.0250128 0)
(1.1058 -0.0209047 0)
(1.10355 -0.0174021 0)
(1.10158 -0.0144071 0)
(1.09987 -0.0118363 0)
(1.09841 -0.00961732 0)
(1.09717 -0.00768707 0)
(1.09616 -0.0059901 0)
(1.09536 -0.0044767 0)
(1.09476 -0.00310161 0)
(1.09437 -0.00182296 0)
(1.09418 -0.000601345 0)
(0.885121 -0.44428 0)
(0.905608 -0.400616 0)
(0.946125 -0.355203 0)
(1.01015 -0.30833 0)
(1.08229 -0.263867 0)
(1.14004 -0.223287 0)
(1.17232 -0.187152 0)
(1.1825 -0.156176 0)
(1.17969 -0.130304 0)
(1.17149 -0.10886 0)
(1.16205 -0.0910898 0)
(1.15307 -0.0763249 0)
(1.145 -0.0640106 0)
(1.13787 -0.0537047 0)
(1.13161 -0.045054 0)
(1.12611 -0.0377754 0)
(1.12126 -0.0316385 0)
(1.117 -0.0264561 0)
(1.11325 -0.0220731 0)
(1.10997 -0.0183604 0)
(1.1071 -0.0152103 0)
(1.10461 -0.0125316 0)
(1.10247 -0.0102463 0)
(1.10065 -0.00828693 0)
(1.09913 -0.00659485 0)
(1.09789 -0.00511886 0)
(1.09691 -0.00381277 0)
(1.09618 -0.00263456 0)
(1.0957 -0.00154555 0)
(1.09547 -0.000509342 0)
(0.933228 -0.449724 0)
(0.959196 -0.402182 0)
(1.00287 -0.350962 0)
(1.06631 -0.297291 0)
(1.13426 -0.246899 0)
(1.18558 -0.20279 0)
(1.21079 -0.166078 0)
(1.21433 -0.136587 0)
(1.20583 -0.113014 0)
(1.19297 -0.0939338 0)
(1.17979 -0.0782981 0)
(1.16778 -0.0653694 0)
(1.15726 -0.0546117 0)
(1.14813 -0.0456255 0)
(1.14022 -0.0380979 0)
(1.13334 -0.0317781 0)
(1.12735 -0.026466 0)
(1.12213 -0.0219961 0)
(1.11759 -0.0182313 0)
(1.11363 -0.0150589 0)
(1.1102 -0.0123838 0)
(1.10725 -0.0101262 0)
(1.10472 -0.00821658 0)
(1.10257 -0.00659523 0)
(1.10079 -0.00521085 0)
(1.09933 -0.00401801 0)
(1.09819 -0.00297563 0)
(1.09735 -0.00204668 0)
(1.0968 -0.0011968 0)
(1.09652 -0.000393742 0)
(0.984848 -0.432215 0)
(1.01781 -0.381171 0)
(1.0662 -0.324167 0)
(1.12907 -0.265595 0)
(1.19042 -0.21241 0)
(1.23187 -0.168399 0)
(1.24728 -0.134533 0)
(1.24284 -0.109175 0)
(1.2284 -0.0897726 0)
(1.2112 -0.0743818 0)
(1.19475 -0.0618413 0)
(1.18017 -0.0514647 0)
(1.16758 -0.042814 0)
(1.15676 -0.0355767 0)
(1.14744 -0.0295107 0)
(1.1394 -0.0244246 0)
(1.13244 -0.0201603 0)
(1.1264 -0.0165859 0)
(1.12117 -0.0135923 0)
(1.11665 -0.0110874 0)
(1.11273 -0.00899528 0)
(1.10937 -0.00725114 0)
(1.10651 -0.00579668 0)
(1.10408 -0.00458316 0)
(1.10207 -0.00356807 0)
(1.10044 -0.00271324 0)
(1.09916 -0.00198494 0)
(1.09821 -0.00135158 0)
(1.09759 -0.00078462 0)
(1.09728 -0.000257191 0)
(1.04009 -0.386107 0)
(1.08193 -0.330756 0)
(1.13477 -0.269435 0)
(1.19469 -0.2104 0)
(1.24565 -0.159766 0)
(1.27399 -0.12115 0)
(1.27793 -0.094187 0)
(1.26533 -0.0755424 0)
(1.24564 -0.0619096 0)
(1.22498 -0.0512475 0)
(1.20607 -0.0425215 0)
(1.18959 -0.0352324 0)
(1.17546 -0.0291042 0)
(1.16336 -0.0239428 0)
(1.15297 -0.019604 0)
(1.14403 -0.0159662 0)
(1.13631 -0.0129256 0)
(1.12964 -0.0103942 0)
(1.12387 -0.00829303 0)
(1.11888 -0.00655878 0)
(1.11459 -0.00513876 0)
(1.1109 -0.0039835 0)
(1.10776 -0.00305059 0)
(1.10512 -0.00230308 0)
(1.10292 -0.00170776 0)
(1.10114 -0.0012369 0)
(1.09975 -0.000864758 0)
(1.09872 -0.000566133 0)
(1.09805 -0.000319192 0)
(1.09771 -0.000103003 0)
(1.10204 -0.305035 0)
(1.14974 -0.246742 0)
(1.20372 -0.186929 0)
(1.25584 -0.134486 0)
(1.29269 -0.0931652 0)
(1.30632 -0.0653809 0)
(1.2991 -0.0485642 0)
(1.27971 -0.0383284 0)
(1.25628 -0.0313435 0)
(1.23349 -0.0259186 0)
(1.21316 -0.021377 0)
(1.19559 -0.0174618 0)
(1.18054 -0.01409 0)
(1.16765 -0.0112027 0)
(1.15658 -0.00875608 0)
(1.14705 -0.00670592 0)
(1.13882 -0.00500793 0)
(1.13171 -0.00361844 0)
(1.12556 -0.00249582 0)
(1.12025 -0.00160934 0)
(1.11568 -0.000925316 0)
(1.11176 -0.000415083 0)
(1.10843 -5.24319e-05 0)
(1.10562 0.000186163 0)
(1.10329 0.000321405 0)
(1.1014 0.000372331 0)
(1.09993 0.000356222 0)
(1.09884 0.000289778 0)
(1.09812 0.000187923 0)
(1.09777 6.49854e-05 0)
(1.16748 -0.191279 0)
(1.2139 -0.134796 0)
(1.2638 -0.0862026 0)
(1.30356 -0.0472536 0)
(1.32472 -0.0211228 0)
(1.32472 -0.00740368 0)
(1.3088 -0.00200192 0)
(1.28511 -0.000465347 0)
(1.25993 -0.000118074 0)
(1.23649 0.000101542 0)
(1.21583 0.000473618 0)
(1.19799 0.000990867 0)
(1.18267 0.00156292 0)
(1.16949 0.00212152 0)
(1.15814 0.00261729 0)
(1.14834 0.00302248 0)
(1.13986 0.00332482 0)
(1.13252 0.00352152 0)
(1.12617 0.00361659 0)
(1.12069 0.00361431 0)
(1.11596 0.00352381 0)
(1.11191 0.00335424 0)
(1.10846 0.00311509 0)
(1.10555 0.00281582 0)
(1.10314 0.00246555 0)
(1.10119 0.00207303 0)
(1.09966 0.00164658 0)
(1.09853 0.00119434 0)
(1.09779 0.000723905 0)
(1.09743 0.000242535 0)
(1.22237 -0.0600942 0)
(1.26578 -0.0111964 0)
(1.30563 0.0172816 0)
(1.3312 0.0384801 0)
(1.3381 0.0472886 0)
(1.32805 0.0468532 0)
(1.30713 0.0417501 0)
(1.28199 0.0355459 0)
(1.25704 0.029952 0)
(1.23429 0.0254566 0)
(1.21427 0.0219824 0)
(1.19691 0.0193065 0)
(1.18189 0.0172072 0)
(1.1689 0.0155148 0)
(1.15765 0.0141033 0)
(1.14789 0.012885 0)
(1.13942 0.0117981 0)
(1.13206 0.0107997 0)
(1.12568 0.00986052 0)
(1.12016 0.00895943 0)
(1.1154 0.0080825 0)
(1.11131 0.00722025 0)
(1.10782 0.00636638 0)
(1.10489 0.00551681 0)
(1.10245 0.00466899 0)
(1.10048 0.00382144 0)
(1.09893 0.00297339 0)
(1.09779 0.00212463 0)
(1.09704 0.00127519 0)
(1.09667 0.000425159 0)
(1.25752 0.0689035 0)
(1.29704 0.102481 0)
(1.32449 0.11034 0)
(1.33705 0.112605 0)
(1.33371 0.105702 0)
(1.31819 0.0935421 0)
(1.29592 0.0801818 0)
(1.27177 0.0678908 0)
(1.24858 0.0575188 0)
(1.22754 0.0490943 0)
(1.20893 0.0423057 0)
(1.19264 0.0368038 0)
(1.17842 0.0322869 0)
(1.16601 0.0285201 0)
(1.15519 0.0253252 0)
(1.14575 0.0225693 0)
(1.13752 0.0201528 0)
(1.13034 0.0180008 0)
(1.1241 0.0160563 0)
(1.11868 0.0142757 0)
(1.11399 0.0126253 0)
(1.10996 0.0110788 0)
(1.10652 0.00961541 0)
(1.10362 0.0082186 0)
(1.10121 0.00687481 0)
(1.09926 0.00557279 0)
(1.09773 0.00430299 0)
(1.0966 0.00305717 0)
(1.09586 0.00182791 0)
(1.09549 0.000608274 0)
(1.27276 0.17808 0)
(1.30434 0.194083 0)
(1.3212 0.183118 0)
(1.3244 0.170246 0)
(1.31566 0.151536 0)
(1.29869 0.131263 0)
(1.27779 0.112276 0)
(1.25622 0.095691 0)
(1.23573 0.0817841 0)
(1.21706 0.0703009 0)
(1.20036 0.0608205 0)
(1.18557 0.0529468 0)
(1.17252 0.046345 0)
(1.16102 0.0407499 0)
(1.15091 0.0359543 0)
(1.14203 0.0317975 0)
(1.13424 0.0281543 0)
(1.12742 0.0249263 0)
(1.12145 0.0220359 0)
(1.11626 0.0194214 0)
(1.11176 0.0170327 0)
(1.10789 0.0148297 0)
(1.10457 0.0127789 0)
(1.10177 0.0108526 0)
(1.09944 0.00902747 0)
(1.09755 0.00728327 0)
(1.09607 0.00560233 0)
(1.09497 0.00396886 0)
(1.09425 0.00236842 0)
(1.0939 0.000787365 0)
(1.26898 0.259293 0)
(1.29187 0.259239 0)
(1.30083 0.233961 0)
(1.29902 0.21127 0)
(1.28884 0.185218 0)
(1.27319 0.160316 0)
(1.25523 0.13801 0)
(1.23703 0.118714 0)
(1.21969 0.102397 0)
(1.20371 0.0886805 0)
(1.18921 0.0771324 0)
(1.17619 0.0673636 0)
(1.16456 0.0590432 0)
(1.15421 0.0519024 0)
(1.14502 0.0457251 0)
(1.13689 0.0403379 0)
(1.12971 0.0356013 0)
(1.12338 0.0314025 0)
(1.11784 0.0276499 0)
(1.11298 0.0242683 0)
(1.10877 0.0211958 0)
(1.10512 0.0183805 0)
(1.102 0.0157791 0)
(1.09935 0.0133544 0)
(1.09715 0.0110745 0)
(1.09536 0.00891128 0)
(1.09396 0.00683986 0)
(1.09292 0.00483761 0)
(1.09224 0.00288364 0)
(1.0919 0.000958101 0)
(1.25011 0.312589 0)
(1.26543 0.299591 0)
(1.26992 0.266146 0)
(1.26661 0.238325 0)
(1.25747 0.208693 0)
(1.24461 0.181799 0)
(1.23022 0.157897 0)
(1.21561 0.137127 0)
(1.20151 0.11932 0)
(1.18829 0.104086 0)
(1.1761 0.0910404 0)
(1.16499 0.0798324 0)
(1.15492 0.070158 0)
(1.14587 0.0617637 0)
(1.13775 0.054439 0)
(1.13051 0.0480097 0)
(1.12407 0.0423318 0)
(1.11837 0.0372857 0)
(1.11333 0.0327717 0)
(1.10892 0.0287063 0)
(1.10506 0.0250188 0)
(1.10172 0.0216493 0)
(1.09885 0.0185465 0)
(1.09641 0.0156657 0)
(1.09438 0.012968 0)
(1.09272 0.0104187 0)
(1.09143 0.00798659 0)
(1.09047 0.00564304 0)
(1.08983 0.00336146 0)
(1.08952 0.00111647 0)
(1.22143 0.342635 0)
(1.23108 0.320702 0)
(1.23413 0.284466 0)
(1.23144 0.254757 0)
(1.22456 0.224198 0)
(1.21498 0.196996 0)
(1.20419 0.172659 0)
(1.19302 0.151301 0)
(1.18201 0.132706 0)
(1.17148 0.116541 0)
(1.16158 0.102488 0)
(1.15241 0.0902504 0)
(1.14398 0.0795626 0)
(1.13631 0.0701969 0)
(1.12936 0.0619582 0)
(1.1231 0.0546802 0)
(1.11749 0.0482216 0)
(1.1125 0.0424618 0)
(1.10806 0.0372983 0)
(1.10415 0.032643 0)
(1.10073 0.0284205 0)
(1.09775 0.0245653 0)
(1.09518 0.0210202 0)
(1.093 0.0177352 0)
(1.09117 0.0146656 0)
(1.08968 0.0117715 0)
(1.08851 0.00901641 0)
(1.08765 0.00636673 0)
(1.08708 0.00379093 0)
(1.0868 0.00125884 0)
(1.18764 0.355718 0)
(1.19382 0.328814 0)
(1.1973 0.293262 0)
(1.19618 0.263559 0)
(1.19191 0.233669 0)
(1.18554 0.207092 0)
(1.17806 0.183042 0)
(1.17002 0.161689 0)
(1.16185 0.142819 0)
(1.15383 0.126179 0)
(1.14613 0.111522 0)
(1.13886 0.0986055 0)
(1.13207 0.0872074 0)
(1.12581 0.0771303 0)
(1.12007 0.0681995 0)
(1.11486 0.0602617 0)
(1.11015 0.0531829 0)
(1.10592 0.0468465 0)
(1.10215 0.0411506 0)
(1.0988 0.0360064 0)
(1.09586 0.0313359 0)
(1.09329 0.0270706 0)
(1.09106 0.0231499 0)
(1.08917 0.0195196 0)
(1.08758 0.0161311 0)
(1.08629 0.0129404 0)
(1.08527 0.00990687 0)
(1.08451 0.00699278 0)
(1.08401 0.00416257 0)
(1.08376 0.00138205 0)
(1.15225 0.357712 0)
(1.15686 0.328937 0)
(1.16155 0.295719 0)
(1.16222 0.266998 0)
(1.16047 0.238574 0)
(1.15698 0.213067 0)
(1.15239 0.189721 0)
(1.14711 0.168746 0)
(1.1415 0.149961 0)
(1.13578 0.133191 0)
(1.13014 0.118249 0)
(1.12468 0.104945 0)
(1.1195 0.0930979 0)
(1.11464 0.0825411 0)
(1.11013 0.0731218 0)
(1.10598 0.0647022 0)
(1.1022 0.0571586 0)
(1.09878 0.050381 0)
(1.09571 0.044271 0)
(1.09297 0.0387413 0)
(1.09054 0.0337139 0)
(1.08842 0.0291191 0)
(1.08657 0.0248944 0)
(1.085 0.0209834 0)
(1.08367 0.0173346 0)
(1.08259 0.013901 0)
(1.08173 0.010639 0)
(1.0811 0.00750765 0)
(1.08068 0.00446826 0)
(1.08047 0.00148341 0)
(1.11746 0.353129 0)
(1.1218 0.32442 0)
(1.12781 0.293963 0)
(1.13017 0.266648 0)
(1.13064 0.239966 0)
(1.12962 0.215698 0)
(1.12751 0.193269 0)
(1.12464 0.172896 0)
(1.12129 0.15444 0)
(1.11766 0.13779 0)
(1.11392 0.122811 0)
(1.11018 0.109355 0)
(1.10653 0.0972795 0)
(1.10303 0.0864444 0)
(1.09974 0.0767189 0)
(1.09666 0.0679811 0)
(1.09382 0.060119 0)
(1.09123 0.0530303 0)
(1.08888 0.0466222 0)
(1.08677 0.0408103 0)
(1.08489 0.0355184 0)
(1.08323 0.030677 0)
(1.08179 0.0262232 0)
(1.08055 0.0220994 0)
(1.07951 0.0182527 0)
(1.07865 0.0146341 0)
(1.07798 0.0111978 0)
(1.07748 0.00790065 0)
(1.07714 0.00470159 0)
(1.07698 0.00156077 0)
(1.08435 0.344918 0)
(1.08914 0.317238 0)
(1.09628 0.289359 0)
(1.10014 0.263558 0)
(1.10252 0.238596 0)
(1.10357 0.215581 0)
(1.10358 0.194154 0)
(1.1028 0.174505 0)
(1.10145 0.156537 0)
(1.0997 0.140188 0)
(1.09771 0.125359 0)
(1.09557 0.11194 0)
(1.09338 0.099818 0)
(1.0912 0.0888774 0)
(1.08908 0.0790065 0)
(1.08706 0.0700986 0)
(1.08516 0.0620533 0)
(1.0834 0.0547767 0)
(1.08178 0.048182 0)
(1.08031 0.0421892 0)
(1.07899 0.0367245 0)
(1.07782 0.0317202 0)
(1.0768 0.0271137 0)
(1.07591 0.0228474 0)
(1.07516 0.0188677 0)
(1.07455 0.0151248 0)
(1.07406 0.0115715 0)
(1.0737 0.0081633 0)
(1.07345 0.00485744 0)
(1.07334 0.00161243 0)
(1.0533 0.334713 0)
(1.0588 0.308411 0)
(1.06683 0.28273 0)
(1.07201 0.258398 0)
(1.07601 0.235001 0)
(1.07883 0.21318 0)
(1.08066 0.192758 0)
(1.08171 0.173885 0)
(1.08214 0.156505 0)
(1.0821 0.140582 0)
(1.0817 0.126045 0)
(1.08105 0.112813 0)
(1.08023 0.100795 0)
(1.0793 0.0898951 0)
(1.07833 0.0800193 0)
(1.07733 0.071074 0)
(1.07635 0.0629692 0)
(1.07541 0.0556194 0)
(1.07453 0.0489441 0)
(1.0737 0.0428678 0)
(1.07295 0.0373201 0)
(1.07227 0.0322354 0)
(1.07167 0.0275526 0)
(1.07115 0.0232148 0)
(1.0707 0.0191685 0)
(1.07033 0.0153635 0)
(1.07004 0.0117525 0)
(1.06982 0.00829 0)
(1.06968 0.00493241 0)
(1.0696 0.00163724 0)
(1.02424 0.323363 0)
(1.03052 0.298405 0)
(1.03926 0.274524 0)
(1.04559 0.251549 0)
(1.05098 0.229536 0)
(1.05533 0.208826 0)
(1.05876 0.189373 0)
(1.06143 0.171292 0)
(1.06346 0.154555 0)
(1.06496 0.139144 0)
(1.06604 0.125007 0)
(1.06677 0.11208 0)
(1.06724 0.100289 0)
(1.06751 0.0895559 0)
(1.06762 0.0797982 0)
(1.06762 0.070934 0)
(1.06754 0.0628827 0)
(1.06741 0.0555663 0)
(1.06724 0.0489102 0)
(1.06706 0.0428437 0)
(1.06687 0.0372999 0)
(1.06668 0.0322158 0)
(1.06651 0.0275324 0)
(1.06635 0.0231938 0)
(1.06621 0.0191476 0)
(1.06609 0.015344 0)
(1.06599 0.0117355 0)
(1.06592 0.00827684 0)
(1.06587 0.00492409 0)
(1.06584 0.00163439 0)
(0.996763 0.311395 0)
(1.00391 0.287503 0)
(1.01329 0.26502 0)
(1.02068 0.243227 0)
(1.0273 0.222418 0)
(1.03299 0.202738 0)
(1.03786 0.184212 0)