/*--------------------------------*- C++ -*----------------------------------*\
  =========                 |
  \\      /  F ield         | OpenFOAM: The Open Source CFD Toolbox
   \\    /   O peration     | Website:  https://openfoam.org
    \\  /    A nd           | Version:  7
     \\/     M anipulation  |
\*---------------------------------------------------------------------------*/
FoamFile
{
    version     2.0;
    format      ascii;
    class       volScalarField;
    location    "39.999";
    object      p;
}
// * * * * * * * * * * * * * * * * * * * * * * * * * * * * * * * * * * * * * //

dimensions      [0 2 -2 0 0 0 0];

internalField   nonuniform List<scalar> 
3700
(
-0.252487
-0.250798
-0.248909
-0.246843
-0.244599
-0.242182
-0.239595
-0.23684
-0.233919
-0.230852
-0.227633
-0.224264
-0.220746
-0.217083
-0.213277
-0.209333
-0.205253
-0.201042
-0.196706
-0.192248
-0.187676
-0.182996
-0.178215
-0.173343
-0.168387
-0.163358
-0.158266
-0.153122
-0.147939
-0.142727
-0.137499
-0.132268
-0.127045
-0.121845
-0.116679
-0.11156
-0.1065
-0.101509
-0.0965988
-0.0917792
-0.0870596
-0.0824482
-0.0779527
-0.0735793
-0.069334
-0.0652212
-0.0612446
-0.057407
-0.0537103
-0.0501556
-0.0467431
-0.0434723
-0.0403422
-0.037351
-0.0344965
-0.031776
-0.0291866
-0.0267248
-0.024387
-0.0221695
-0.0200684
-0.0180797
-0.0161995
-0.014424
-0.0127491
-0.0111718
-0.00968736
-0.00829498
-0.00698711
-0.00577067
-0.00462399
-0.00358669
-0.00257091
-0.00176287
-0.000765483
-0.000445712
0.00103204
-0.252592
-0.2509
-0.249009
-0.246941
-0.244697
-0.24228
-0.239693
-0.236938
-0.234019
-0.230952
-0.227733
-0.224365
-0.220849
-0.217187
-0.213382
-0.209439
-0.205361
-0.201151
-0.196816
-0.192359
-0.187788
-0.183109
-0.17833
-0.173458
-0.168503
-0.163473
-0.158382
-0.153238
-0.148053
-0.14284
-0.137611
-0.132378
-0.127153
-0.121951
-0.116782
-0.11166
-0.106596
-0.101602
-0.0966879
-0.0918646
-0.0871411
-0.0825258
-0.0780265
-0.073649
-0.0694
-0.0652835
-0.0613035
-0.0574625
-0.0537627
-0.0502051
-0.0467899
-0.0435167
-0.0403843
-0.0373911
-0.0345348
-0.0318128
-0.0292219
-0.0267589
-0.0244201
-0.0222017
-0.0200998
-0.0181105
-0.0162297
-0.0144538
-0.0127784
-0.0112007
-0.00971578
-0.00832304
-0.00701456
-0.00579778
-0.00465011
-0.00361251
-0.002595
-0.00178622
-0.000786938
-0.000460015
0.00100403
-0.252791
-0.251094
-0.2492
-0.247131
-0.244886
-0.242469
-0.239881
-0.237124
-0.234213
-0.231148
-0.227932
-0.224566
-0.221052
-0.217392
-0.21359
-0.209649
-0.205573
-0.201366
-0.197032
-0.192578
-0.188008
-0.18333
-0.178552
-0.17368
-0.168726
-0.163696
-0.158603
-0.153457
-0.148271
-0.143056
-0.137823
-0.132587
-0.127358
-0.122151
-0.116977
-0.111849
-0.10678
-0.101779
-0.0968595
-0.0920297
-0.0872997
-0.0826775
-0.0781717
-0.0737881
-0.0695327
-0.0654101
-0.0614241
-0.0575775
-0.0538723
-0.0503095
-0.0468895
-0.0436118
-0.0404752
-0.0374781
-0.0346182
-0.0318929
-0.029299
-0.0268332
-0.0244918
-0.0222711
-0.0201671
-0.0181758
-0.0162932
-0.0145155
-0.0128385
-0.0112592
-0.00977273
-0.00837862
-0.00706836
-0.00585036
-0.00470031
-0.0036617
-0.0026406
-0.00183008
-0.000827344
-0.000486617
0.000950392
-0.253067
-0.251363
-0.249467
-0.247396
-0.245153
-0.242738
-0.240155
-0.237404
-0.234495
-0.23143
-0.228216
-0.224854
-0.221344
-0.217688
-0.213889
-0.209952
-0.205879
-0.201675
-0.197344
-0.192893
-0.188325
-0.183649
-0.178872
-0.174001
-0.169046
-0.164015
-0.158921
-0.153773
-0.148584
-0.143365
-0.138127
-0.132886
-0.127651
-0.122438
-0.117257
-0.112123
-0.107047
-0.102034
-0.0971077
-0.0922695
-0.0875309
-0.0829003
-0.0783857
-0.0739935
-0.0697297
-0.0655988
-0.0616048
-0.0577505
-0.0540379
-0.0504681
-0.0470414
-0.0437573
-0.0406148
-0.0376121
-0.034747
-0.0320167
-0.0294182
-0.0269481
-0.0246028
-0.0223783
-0.0202707
-0.0182762
-0.0163904
-0.0146097
-0.0129298
-0.0113479
-0.00985854
-0.00846195
-0.00714861
-0.00592836
-0.00477443
-0.00373384
-0.00270725
-0.00189357
-0.000885969
-0.000524906
0.000874214
-0.253392
-0.251683
-0.249786
-0.247717
-0.245477
-0.243065
-0.240477
-0.237707
-0.234827
-0.231776
-0.22857
-0.225214
-0.221709
-0.218059
-0.214264
-0.210332
-0.206264
-0.202065
-0.197738
-0.19329
-0.188725
-0.184051
-0.179275
-0.174405
-0.16945
-0.164418
-0.159323
-0.154172
-0.148979
-0.143756
-0.138514
-0.13327
-0.128019
-0.122802
-0.117614
-0.11247
-0.107384
-0.102365
-0.0974272
-0.0925787
-0.0878297
-0.0831889
-0.0786639
-0.0742616
-0.0699877
-0.065847
-0.0618434
-0.0579799
-0.0542584
-0.05068
-0.047245
-0.0439531
-0.0408031
-0.0377933
-0.0349214
-0.0321848
-0.0295803
-0.0271045
-0.0247537
-0.0225241
-0.0204117
-0.0184124
-0.0165222
-0.0147373
-0.0130531
-0.0114672
-0.00997365
-0.00857329
-0.00725544
-0.00603168
-0.00487223
-0.00382834
-0.00279435
-0.00197547
-0.000961835
-0.000573939
0.000779677
-0.252024
-0.250132
-0.248068
-0.245834
-0.243431
-0.240858
-0.238141
-0.235228
-0.232174
-0.228974
-0.225624
-0.222127
-0.218485
-0.214698
-0.210773
-0.206711
-0.202517
-0.198195
-0.193751
-0.189191
-0.18452
-0.179746
-0.174878
-0.169927
-0.164884
-0.15979
-0.154638
-0.149441
-0.144213
-0.138966
-0.133712
-0.128462
-0.123234
-0.118036
-0.112883
-0.107787
-0.102758
-0.0978093
-0.09295
-0.0881899
-0.0835379
-0.0790017
-0.0745882
-0.0703033
-0.0661518
-0.0621376
-0.0582638
-0.0545322
-0.0509441
-0.0474997
-0.0441988
-0.0410401
-0.038022
-0.0351421
-0.0323979
-0.029786
-0.0273032
-0.0249457
-0.0227096
-0.0205909
-0.0185856
-0.0166895
-0.0148989
-0.013209
-0.0116177
-0.0101185
-0.00871288
-0.0073889
-0.0061601
-0.00499334
-0.0039444
-0.0029011
-0.00207431
-0.00105375
-0.00063248
0.000671572
-0.252355
-0.250472
-0.248418
-0.246196
-0.243802
-0.241221
-0.238511
-0.235629
-0.232594
-0.229406
-0.226067
-0.222581
-0.218955
-0.215157
-0.211248
-0.207195
-0.203009
-0.198694
-0.194256
-0.189701
-0.185034
-0.180263
-0.175397
-0.170443
-0.16541
-0.160312
-0.155157
-0.149958
-0.144725
-0.139472
-0.134212
-0.128956
-0.123719
-0.118513
-0.113351
-0.108245
-0.103206
-0.0982466
-0.0933764
-0.0886051
-0.0839418
-0.0793943
-0.0749694
-0.0706731
-0.0665104
-0.0624852
-0.0586004
-0.0548581
-0.0512596
-0.0478051
-0.0444943
-0.041326
-0.0382985
-0.0354096
-0.0326566
-0.0300362
-0.0275451
-0.0251795
-0.0229356
-0.0208093
-0.0187966
-0.016893
-0.0150953
-0.0133982
-0.0117998
-0.0102933
-0.00888081
-0.00754891
-0.00631325
-0.00513722
-0.00408105
-0.0030265
-0.00218841
-0.0011603
-0.000699125
0.000554805
-0.252642
-0.250774
-0.248738
-0.246534
-0.244158
-0.241616
-0.238907
-0.236035
-0.233011
-0.229836
-0.226511
-0.223036
-0.219416
-0.21565
-0.211745
-0.207701
-0.203523
-0.199217
-0.194786
-0.190237
-0.185576
-0.18081
-0.175947
-0.170996
-0.165965
-0.160867
-0.155711
-0.15051
-0.145274
-0.140018
-0.134753
-0.129491
-0.124247
-0.119034
-0.113864
-0.108749
-0.103701
-0.0987315
-0.0938511
-0.0890695
-0.0843955
-0.0798371
-0.0754012
-0.0710939
-0.0669202
-0.0628839
-0.0589882
-0.0552351
-0.0516258
-0.0481607
-0.0448394
-0.0416609
-0.0386233
-0.0357245
-0.0329616
-0.0303317
-0.0278311
-0.0254562
-0.0232032
-0.0210677
-0.0190461
-0.0171336
-0.015327
-0.013621
-0.012014
-0.0104982
-0.00907697
-0.00773517
-0.00649055
-0.00530315
-0.0042371
-0.00316943
-0.00231603
-0.00127989
-0.000772453
0.000433956
-0.252847
-0.251003
-0.248993
-0.246814
-0.24446
-0.241948
-0.23925
-0.236402
-0.2334
-0.230244
-0.226936
-0.223478
-0.219874
-0.216121
-0.212229
-0.208198
-0.204033
-0.199738
-0.195318
-0.190777
-0.186124
-0.181365
-0.176508
-0.171561
-0.166534
-0.161438
-0.156284
-0.151082
-0.145846
-0.140588
-0.13532
-0.130055
-0.124806
-0.119588
-0.114411
-0.10929
-0.104234
-0.0992568
-0.0943679
-0.0895773
-0.084894
-0.080326
-0.0758803
-0.0715628
-0.0673787
-0.063332
-0.0594258
-0.055662
-0.052042
-0.0485662
-0.0452342
-0.0420449
-0.0389966
-0.0360871
-0.0333136
-0.030673
-0.0281618
-0.0257764
-0.0235128
-0.0213668
-0.0193346
-0.0174116
-0.0155945
-0.0138777
-0.01226
-0.0107331
-0.00930099
-0.00794715
-0.00669116
-0.00549018
-0.00441123
-0.00332859
-0.00245539
-0.0014107
-0.000851155
0.000312935
-0.25293
-0.251122
-0.249147
-0.247002
-0.244677
-0.242188
-0.239525
-0.236704
-0.233728
-0.230596
-0.22731
-0.223874
-0.220289
-0.216555
-0.212681
-0.208667
-0.204517
-0.200236
-0.195828
-0.1913
-0.186658
-0.181908
-0.17706
-0.172121
-0.1671
-0.162009
-0.156859
-0.151661
-0.146427
-0.14117
-0.135902
-0.130636
-0.125386
-0.120165
-0.114985
-0.109859
-0.104799
-0.0998161
-0.0949211
-0.0901238
-0.0854332
-0.0808573
-0.0764033
-0.0720772
-0.067884
-0.0638278
-0.0599117
-0.0561379
-0.0525076
-0.0490212
-0.0456783
-0.042478
-0.0394185
-0.0364976
-0.0337126
-0.0310604
-0.0285375
-0.0261402
-0.0238646
-0.0217066
-0.0196623
-0.0177269
-0.0158974
-0.014168
-0.0125376
-0.0109974
-0.00955215
-0.008184
-0.00691399
-0.00569716
-0.00460193
-0.00350251
-0.00260479
-0.00155076
-0.000934095
0.000194804
-0.252842
-0.251088
-0.24916
-0.24706
-0.244771
-0.242303
-0.239683
-0.236903
-0.233962
-0.230862
-0.227605
-0.224196
-0.220635
-0.216926
-0.213074
-0.20908
-0.20495
-0.200687
-0.196296
-0.191784
-0.187156
-0.18242
-0.177584
-0.172656
-0.167646
-0.162564
-0.157422
-0.152231
-0.147003
-0.141751
-0.136487
-0.131225
-0.125977
-0.120757
-0.115577
-0.110451
-0.105389
-0.100404
-0.0955055
-0.0907043
-0.0860089
-0.0814276
-0.0769674
-0.0726344
-0.0684337
-0.0643694
-0.0604446
-0.0566615
-0.0530213
-0.0495246
-0.046171
-0.0429595
-0.0398884
-0.0369556
-0.0341583
-0.0314935
-0.0289578
-0.0265473
-0.0242584
-0.0220867
-0.0200285
-0.0180791
-0.0162353
-0.0144912
-0.0128459
-0.0112902
-0.00982935
-0.00844455
-0.00715769
-0.0059227
-0.00480761
-0.00368961
-0.00276263
-0.00169805
-0.00102031
8.17492e-05
-0.250848
-0.248984
-0.246944
-0.244714
-0.242285
-0.239703
-0.236966
-0.234068
-0.231008
-0.227788
-0.224412
-0.220884
-0.217205
-0.21338
-0.209413
-0.205307
-0.201067
-0.196699
-0.192207
-0.187599
-0.182882
-0.178063
-0.173151
-0.168156
-0.163089
-0.157959
-0.15278
-0.147563
-0.142321
-0.137066
-0.131811
-0.12657
-0.121355
-0.11618
-0.111057
-0.105998
-0.101014
-0.0961165
-0.0913146
-0.0866175
-0.0820335
-0.0775696
-0.0732319
-0.0690256
-0.0649547
-0.0610224
-0.057231
-0.0535818
-0.0500752
-0.046711
-0.0434882
-0.0404052
-0.0374599
-0.0346496
-0.0319713
-0.0294216
-0.0269967
-0.0246929
-0.022506
-0.0204323
-0.0184669
-0.0166068
-0.0148459
-0.0131835
-0.0116101
-0.0101311
-0.0087273
-0.00742064
-0.00616522
-0.0050266
-0.00388819
-0.00292745
-0.00185057
-0.00110898
-2.48333e-05
-0.250339
-0.248562
-0.246594
-0.244415
-0.241975
-0.239496
-0.236839
-0.234005
-0.230998
-0.227825
-0.224492
-0.221003
-0.217362
-0.213573
-0.209639
-0.205565
-0.201356
-0.197015
-0.192551
-0.187968
-0.183275
-0.178479
-0.17359
-0.168616
-0.163568
-0.158458
-0.153296
-0.148096
-0.142869
-0.137628
-0.132386
-0.127157
-0.121954
-0.116788
-0.111673
-0.106621
-0.101643
-0.0967496
-0.0919507
-0.0872554
-0.0826717
-0.0782068
-0.0738668
-0.0696569
-0.0655812
-0.0616429
-0.0578443
-0.0541867
-0.0506707
-0.0472962
-0.0440621
-0.040967
-0.0380087
-0.0351847
-0.0324919
-0.029927
-0.0274865
-0.0251664
-0.0229627
-0.0208717
-0.0188885
-0.0170101
-0.0152304
-0.0135487
-0.0119552
-0.0104556
-0.00903044
-0.007701
-0.00642293
-0.00525719
-0.00409648
-0.00309795
-0.00200647
-0.00119939
-0.000124181
-0.249487
-0.247828
-0.245966
-0.243911
-0.241635
-0.239064
-0.236467
-0.233722
-0.230789
-0.22768
-0.224402
-0.220964
-0.217371
-0.213627
-0.209735
-0.205701
-0.201529
-0.197226
-0.192796
-0.188246
-0.183585
-0.178819
-0.173959
-0.169013
-0.163992
-0.158907
-0.153769
-0.148592
-0.143387
-0.138166
-0.132944
-0.127733
-0.122546
-0.117395
-0.112294
-0.107254
-0.102286
-0.0974008
-0.0926089
-0.0879187
-0.0833386
-0.0788756
-0.0745358
-0.0703244
-0.0662457
-0.0623029
-0.0584982
-0.0548332
-0.0513085
-0.0479238
-0.0446785
-0.0415709
-0.0385992
-0.0357607
-0.0330526
-0.0304716
-0.0280141
-0.0256763
-0.0234543
-0.0213443
-0.0193414
-0.0174428
-0.0156422
-0.013939
-0.0123234
-0.0108006
-0.00935188
-0.00799678
-0.00669391
-0.00549767
-0.0043127
-0.00327295
-0.00216411
-0.0012909
-0.000216011
-0.248221
-0.246718
-0.244984
-0.243033
-0.240834
-0.23838
-0.235868
-0.233206
-0.230356
-0.227323
-0.224114
-0.220738
-0.217205
-0.213517
-0.209679
-0.205695
-0.201571
-0.197312
-0.192926
-0.188418
-0.183797
-0.17907
-0.174247
-0.169336
-0.16435
-0.159298
-0.154192
-0.149045
-0.143869
-0.138676
-0.133479
-0.128292
-0.123128
-0.117998
-0.112915
-0.107892
-0.102939
-0.0980668
-0.0932857
-0.0886044
-0.0840311
-0.0795728
-0.0752357
-0.071025
-0.0669451
-0.0629991
-0.0591896
-0.0555179
-0.0519849
-0.0485905
-0.0453338
-0.0422136
-0.039228
-0.0363744
-0.0336501
-0.0310518
-0.0285762
-0.0262195
-0.0239776
-0.021847
-0.0198228
-0.0179021
-0.0160787
-0.0143518
-0.0127121
-0.0111637
-0.00968931
-0.00830583
-0.00697614
-0.00574635
-0.00453511
-0.00345139
-0.00232208
-0.00138294
-0.000300371
-0.245177
-0.243612
-0.241818
-0.23979
-0.237482
-0.234812
-0.232334
-0.229637
-0.226719
-0.223599
-0.220304
-0.216844
-0.213226
-0.209454
-0.205532
-0.201466
-0.197264
-0.192932
-0.188476
-0.183904
-0.179225
-0.174448
-0.169582
-0.164638
-0.159627
-0.154561
-0.149452
-0.144311
-0.139153
-0.133989
-0.128832
-0.123696
-0.118593
-0.113534
-0.108533
-0.103599
-0.0987442
-0.0939778
-0.0893087
-0.0847452
-0.0802942
-0.0759622
-0.0717542
-0.0676747
-0.063727
-0.0599136
-0.056236
-0.0526952
-0.0492911
-0.0460232
-0.0428902
-0.0398902
-0.0370209
-0.0342796
-0.0316632
-0.0291684
-0.0267914
-0.0245284
-0.0223757
-0.0203286
-0.0183841
-0.0165363
-0.0147838
-0.013118
-0.011542
-0.01004
-0.00862572
-0.00726731
-0.00600143
-0.00476187
-0.00363218
-0.00247914
-0.00147492
-0.000377463
-0.243166
-0.241811
-0.240205
-0.238357
-0.236277
-0.233973
-0.231224
-0.228623
-0.22585
-0.222846
-0.219647
-0.216277
-0.212744
-0.20905
-0.205202
-0.201208
-0.197074
-0.192806
-0.188412
-0.1839
-0.179278
-0.174556
-0.169743
-0.164851
-0.159889
-0.15487
-0.149806
-0.144709
-0.139591
-0.134466
-0.129347
-0.124244
-0.119173
-0.114143
-0.109168
-0.104259
-0.0994248
-0.0946767
-0.0900232
-0.0854724
-0.0810315
-0.0767068
-0.0725035
-0.0684262
-0.0644781
-0.060662
-0.0569795
-0.0534315
-0.0500183
-0.0467394
-0.0435935
-0.040579
-0.0376937
-0.034935
-0.0322998
-0.0297849
-0.0273868
-0.0251016
-0.0229256
-0.0208544
-0.0188847
-0.017011
-0.0152314
-0.013538
-0.0119324
-0.0104012
-0.00895406
-0.00756525
-0.00626123
-0.00499137
-0.0038144
-0.00263437
-0.00156635
-0.000447525
-0.240702
-0.239584
-0.238185
-0.236521
-0.234588
-0.232355
-0.229888
-0.227338
-0.224687
-0.221822
-0.218748
-0.215489
-0.212058
-0.208459
-0.2047
-0.20079
-0.196736
-0.192544
-0.188223
-0.183781
-0.179227
-0.174569
-0.169819
-0.164987
-0.160083
-0.155119
-0.150108
-0.145062
-0.139992
-0.134913
-0.129836
-0.124774
-0.11974
-0.114745
-0.109801
-0.10492
-0.100111
-0.095385
-0.0907504
-0.0862153
-0.0817871
-0.077472
-0.0732754
-0.0692018
-0.0652548
-0.061437
-0.0577503
-0.0541958
-0.0507738
-0.0474839
-0.044325
-0.0412957
-0.0383939
-0.0356171
-0.0329623
-0.0304266
-0.0280062
-0.0256977
-0.0234971
-0.0214005
-0.019404
-0.0175029
-0.0156944
-0.0139718
-0.0123348
-0.0107727
-0.00929081
-0.0078698
-0.00652586
-0.00522359
-0.0039984
-0.0027881
-0.00165765
-0.000511253
-0.237923
-0.237096
-0.235951
-0.234518
-0.232815
-0.230847
-0.228543
-0.22585
-0.223347
-0.220636
-0.2177
-0.214564
-0.211246
-0.207754
-0.204095
-0.200281
-0.19632
-0.192217
-0.187981
-0.183621
-0.179145
-0.174564
-0.169886
-0.165123
-0.160287
-0.155387
-0.150437
-0.145448
-0.140433
-0.135405
-0.130376
-0.125359
-0.120365
-0.115408
-0.110498
-0.105647
-0.100865
-0.0961613
-0.091546
-0.0870266
-0.0826105
-0.0783042
-0.0741131
-0.0700419
-0.0660942
-0.0622729
-0.0585799
-0.0550166
-0.0515834
-0.0482801
-0.0451058
-0.0420592
-0.0391383
-0.0363408
-0.0336638
-0.0311045
-0.0286594
-0.0263249
-0.0240973
-0.0219727
-0.0199471
-0.0180162
-0.0161764
-0.0144223
-0.0127516
-0.0111564
-0.00963748
-0.00818217
-0.00679644
-0.00545946
-0.00418522
-0.0029414
-0.00175019
-0.000570166
-0.233651
-0.23281
-0.231657
-0.230217
-0.228496
-0.226529
-0.224292
-0.221554
-0.21897
-0.21623
-0.213272
-0.210115
-0.206767
-0.203241
-0.199548
-0.1957
-0.191705
-0.18757
-0.183306
-0.178921
-0.174426
-0.169831
-0.165146
-0.160383
-0.155553
-0.150669
-0.145743
-0.140787
-0.135814
-0.130836
-0.125866
-0.120917
-0.116
-0.111126
-0.106307
-0.101554
-0.0968759
-0.0922821
-0.0877807
-0.083379
-0.0790837
-0.0749003
-0.0708337
-0.0668875
-0.0630649
-0.059368
-0.0557981
-0.0523559
-0.0490414
-0.0458538
-0.042792
-0.039854
-0.0370378
-0.0343406
-0.0317596
-0.0292914
-0.0269327
-0.0246796
-0.0225285
-0.0204751
-0.0185157
-0.0166457
-0.0148611
-0.0131576
-0.0115302
-0.00997509
-0.00848599
-0.00705951
-0.00568771
-0.00436637
-0.00308754
-0.00184025
-0.000622776
-0.228947
-0.228413
-0.227543
-0.226379
-0.224936
-0.223216
-0.221191
-0.218905
-0.21634
-0.213605
-0.210736
-0.207697
-0.204472
-0.201067
-0.197495
-0.193766
-0.189888
-0.185869
-0.181718
-0.177445
-0.17306
-0.168574
-0.163997
-0.15934
-0.154616
-0.149836
-0.145013
-0.140158
-0.135284
-0.130404
-0.12553
-0.120673
-0.115845
-0.111058
-0.106323
-0.101649
-0.0970461
-0.0925233
-0.0880885
-0.0837488
-0.0795106
-0.0753794
-0.07136
-0.067456
-0.0636705
-0.0600056
-0.0564629
-0.053043
-0.0497461
-0.0465714
-0.0435181
-0.0405843
-0.0377683
-0.0350672
-0.0324787
-0.0299993
-0.027626
-0.025355
-0.023183
-0.0211054
-0.0191192
-0.0172191
-0.0154024
-0.0136627
-0.0119982
-0.0104004
-0.00886962
-0.00739335
-0.00597573
-0.00459637
-0.00326809
-0.00195278
-0.000679655
-0.220319
-0.220145
-0.219586
-0.218702
-0.217512
-0.216012
-0.214223
-0.212189
-0.210047
-0.207807
-0.205319
-0.202569
-0.199604
-0.19645
-0.193121
-0.189626
-0.185974
-0.182176
-0.178241
-0.17418
-0.170003
-0.165721
-0.161346
-0.156888
-0.15236
-0.147773
-0.143139
-0.138471
-0.133779
-0.129077
-0.124376
-0.119687
-0.115022
-0.110392
-0.105806
-0.101276
-0.0968088
-0.0924144
-0.0881
-0.0838727
-0.0797387
-0.0757032
-0.0717711
-0.067946
-0.0642311
-0.0606285
-0.05714
-0.0537665
-0.0505082
-0.0473648
-0.0443356
-0.0414192
-0.0386139
-0.0359175
-0.0333277
-0.0308413
-0.0284559
-0.0261675
-0.0239735
-0.0218691
-0.0198521
-0.0179164
-0.0160609
-0.0142771
-0.0125664
-0.0109164
-0.00933255
-0.00779547
-0.00631874
-0.00486974
-0.00347714
-0.00208262
-0.000739896
-0.211901
-0.212108
-0.211896
-0.21135
-0.210514
-0.209405
-0.208046
-0.206458
-0.204627
-0.202497
-0.20014
-0.197596
-0.194861
-0.191936
-0.18883
-0.185554
-0.182118
-0.178532
-0.174806
-0.170952
-0.166979
-0.162899
-0.158722
-0.154461
-0.150126
-0.145729
-0.141282
-0.136797
-0.132285
-0.127757
-0.123226
-0.118702
-0.114197
-0.109719
-0.105281
-0.10089
-0.0965556
-0.0922863
-0.0880894
-0.0839717
-0.0799391
-0.0759971
-0.0721502
-0.0684022
-0.0647563
-0.0612148
-0.0577795
-0.0544515
-0.0512314
-0.048119
-0.0451139
-0.0422149
-0.0394208
-0.0367293
-0.0341388
-0.031646
-0.0292492
-0.0269442
-0.0247291
-0.0225987
-0.0205519
-0.0185815
-0.0166881
-0.0148617
-0.0131058
-0.0114053
-0.00976945
-0.00817423
-0.00663954
-0.00512496
-0.00366958
-0.00220225
-0.000792369
-0.203797
-0.204353
-0.204468
-0.20424
-0.203718
-0.202918
-0.201838
-0.200471
-0.198831
-0.196961
-0.194891
-0.192608
-0.190116
-0.187424
-0.184544
-0.181489
-0.17827
-0.174898
-0.171383
-0.167735
-0.163966
-0.160087
-0.156109
-0.152043
-0.1479
-0.143692
-0.13943
-0.135125
-0.13079
-0.126435
-0.122071
-0.117709
-0.113359
-0.109032
-0.104737
-0.100483
-0.096279
-0.0921322
-0.0880502
-0.0840397
-0.0801065
-0.076256
-0.0724926
-0.0688203
-0.0652421
-0.0617607
-0.0583779
-0.055095
-0.0519127
-0.0488312
-0.0458502
-0.0429688
-0.0401861
-0.0375001
-0.0349094
-0.032411
-0.0300035
-0.0276828
-0.0254475
-0.0232922
-0.0212165
-0.0192129
-0.0172829
-0.0154154
-0.0136156
-0.0118666
-0.0101804
-0.00852986
-0.00693912
-0.00536285
-0.00384695
-0.002312
-0.000837344
-0.196005
-0.196878
-0.197298
-0.197359
-0.197114
-0.196575
-0.195745
-0.194629
-0.193253
-0.191645
-0.189814
-0.187761
-0.185491
-0.183018
-0.180353
-0.177511
-0.174502
-0.171336
-0.168025
-0.164579
-0.161008
-0.157324
-0.153539
-0.149662
-0.145705
-0.14168
-0.137598
-0.133469
-0.129305
-0.125117
-0.120915
-0.116709
-0.112511
-0.108329
-0.104173
-0.100052
-0.0959729
-0.0919447
-0.0879741
-0.0840676
-0.0802309
-0.0764693
-0.0727873
-0.0691888
-0.0656769
-0.0622544
-0.0589232
-0.0556847
-0.05254
-0.0494893
-0.0465327
-0.0436694
-0.0408987
-0.038219
-0.0356292
-0.0331264
-0.0307094
-0.0283744
-0.0261204
-0.023942
-0.0218392
-0.0198043
-0.0178395
-0.0159331
-0.0140916
-0.012297
-0.0105629
-0.00886032
-0.00721635
-0.00558251
-0.0040092
-0.00241165
-0.000875868
-0.188565
-0.189724
-0.190427
-0.190758
-0.190769
-0.19048
-0.189898
-0.189033
-0.187905
-0.18653
-0.184919
-0.183079
-0.181022
-0.178758
-0.176302
-0.173665
-0.170857
-0.16789
-0.164774
-0.161521
-0.158141
-0.154644
-0.151043
-0.147348
-0.14357
-0.13972
-0.13581
-0.131849
-0.127849
-0.12382
-0.119773
-0.115718
-0.111664
-0.107621
-0.103598
-0.0996034
-0.095645
-0.0917305
-0.0878667
-0.08406
-0.0803161
-0.0766401
-0.0730366
-0.0695093
-0.0660616
-0.0626962
-0.0594152
-0.0562203
-0.0531125
-0.0500922
-0.0471599
-0.0443149
-0.0415569
-0.0388842
-0.0362961
-0.03379
-0.031365
-0.0290172
-0.0267462
-0.0245464
-0.0224184
-0.0203543
-0.0183569
-0.0164143
-0.0145336
-0.0126962
-0.010917
-0.00916595
-0.00747199
-0.00578468
-0.00415755
-0.00250235
-0.000909733
-0.181505
-0.182921
-0.183884
-0.184465
-0.184718
-0.184666
-0.184318
-0.183686
-0.182782
-0.181622
-0.180218
-0.178584
-0.17673
-0.174669
-0.172411
-0.169969
-0.167354
-0.164576
-0.161647
-0.158578
-0.155379
-0.152061
-0.148636
-0.145114
-0.141507
-0.137824
-0.134077
-0.130276
-0.126432
-0.122555
-0.118655
-0.114742
-0.110826
-0.106915
-0.103019
-0.0991445
-0.0953007
-0.0914945
-0.0877326
-0.0840212
-0.0803659
-0.0767718
-0.0732435
-0.0697846
-0.0663987
-0.0630884
-0.0598561
-0.0567034
-0.0536316
-0.0506414
-0.0477331
-0.0449065
-0.0421614
-0.0394963
-0.0369109
-0.0344025
-0.0319707
-0.0296116
-0.0273251
-0.0251058
-0.0229546
-0.0208635
-0.0188359
-0.0168595
-0.0149423
-0.0130651
-0.0112439
-0.00944778
-0.00770725
-0.00597047
-0.00429333
-0.00258514
-0.000940029
-0.174831
-0.176477
-0.177675
-0.178489
-0.178967
-0.179135
-0.179004
-0.178585
-0.177889
-0.176931
-0.175726
-0.174288
-0.172628
-0.170758
-0.168689
-0.166432
-0.163999
-0.161401
-0.15865
-0.155755
-0.152729
-0.149581
-0.146323
-0.142966
-0.13952
-0.135995
-0.132403
-0.128754
-0.125058
-0.121325
-0.117565
-0.113787
-0.110001
-0.106215
-0.102439
-0.0986792
-0.0949441
-0.0912407
-0.0875756
-0.0839548
-0.080384
-0.076868
-0.0734114
-0.0700181
-0.0666914
-0.0634341
-0.0602487
-0.0571369
-0.0541001
-0.0511391
-0.0482545
-0.0454462
-0.0427142
-0.0400573
-0.0374752
-0.0349656
-0.0325281
-0.0301591
-0.0278588
-0.0256218
-0.0234493
-0.0213334
-0.0192778
-0.0172702
-0.0153191
-0.0134051
-0.0115449
-0.00970709
-0.00792339
-0.00614098
-0.00441763
-0.00266079
-0.000967423
-0.168541
-0.170391
-0.171801
-0.172827
-0.173513
-0.173884
-0.173953
-0.173731
-0.173229
-0.172463
-0.171447
-0.170194
-0.168717
-0.167027
-0.165136
-0.163054
-0.160795
-0.158367
-0.155784
-0.153056
-0.150193
-0.147206
-0.144107
-0.140905
-0.137612
-0.134238
-0.130793
-0.127287
-0.123731
-0.120134
-0.116506
-0.112856
-0.109193
-0.105526
-0.101862
-0.0982111
-0.0945789
-0.0909729
-0.0873996
-0.0838649
-0.0803742
-0.0769325
-0.0735443
-0.0702134
-0.0669433
-0.0637368
-0.0605965
-0.057524
-0.0545211
-0.0515885
-0.0487272
-0.045937
-0.0432183
-0.0405699
-0.0379917
-0.0354817
-0.0330396
-0.0306621
-0.0283494
-0.0260964
-0.0239044
-0.0217658
-0.0196845
-0.0176482
-0.0156658
-0.0137177
-0.0118215
-0.00994525
-0.00812171
-0.0062973
-0.00453143
-0.00272997
-0.000992378
-0.162628
-0.164658
-0.166258
-0.167476
-0.168353
-0.168911
-0.169165
-0.169126
-0.168805
-0.168219
-0.16738
-0.166302
-0.164997
-0.163477
-0.161753
-0.159838
-0.157741
-0.155476
-0.153051
-0.15048
-0.147772
-0.144937
-0.141988
-0.138934
-0.135785
-0.132553
-0.129246
-0.125876
-0.122452
-0.118984
-0.11548
-0.111951
-0.108404
-0.104849
-0.101293
-0.0977436
-0.0942087
-0.0906949
-0.0872083
-0.083755
-0.0803404
-0.0769692
-0.0736459
-0.0703745
-0.0671583
-0.0640004
-0.0609031
-0.0578684
-0.0548981
-0.0519931
-0.0491545
-0.0463822
-0.0436767
-0.041037
-0.0384633
-0.0359536
-0.0335079
-0.031123
-0.0287994
-0.0265319
-0.0243223
-0.0221629
-0.020058
-0.0179953
-0.0159841
-0.0140048
-0.0120753
-0.0101637
-0.00830349
-0.00644048
-0.00463559
-0.00279323
-0.00101521
-0.157082
-0.159271
-0.161042
-0.162433
-0.163483
-0.164213
-0.164638
-0.164768
-0.164617
-0.164197
-0.163524
-0.162609
-0.161466
-0.160106
-0.15854
-0.156781
-0.154839
-0.152725
-0.150452
-0.148028
-0.145466
-0.142776
-0.139968
-0.137052
-0.13404
-0.130942
-0.127766
-0.124524
-0.121224
-0.117877
-0.114491
-0.111075
-0.107638
-0.104188
-0.100733
-0.0972799
-0.0938368
-0.0904098
-0.0870053
-0.0836289
-0.0802861
-0.0769817
-0.07372
-0.070505
-0.0673402
-0.0642283
-0.0611722
-0.0581738
-0.0552348
-0.0523564
-0.0495397
-0.0467849
-0.0440925
-0.0414618
-0.038893
-0.0363842
-0.0339358
-0.0315446
-0.0292112
-0.0269308
-0.0247052
-0.0225269
-0.0204004
-0.0183135
-0.0162759
-0.0142678
-0.0123079
-0.0103638
-0.00846993
-0.00657152
-0.00473088
-0.00285107
-0.00103611
-0.151896
-0.154225
-0.156146
-0.157694
-0.158901
-0.159788
-0.160369
-0.160656
-0.16066
-0.160396
-0.159877
-0.159116
-0.158124
-0.156914
-0.155497
-0.153884
-0.152087
-0.150117
-0.147984
-0.1457
-0.143276
-0.140721
-0.138046
-0.135262
-0.132378
-0.129405
-0.126353
-0.123231
-0.120048
-0.116815
-0.113539
-0.11023
-0.106896
-0.103545
-0.100185
-0.0968229
-0.0934661
-0.090121
-0.0867937
-0.0834899
-0.080215
-0.0769736
-0.0737701
-0.0706085
-0.0674923
-0.0644244
-0.0614074
-0.0584435
-0.0555346
-0.0526817
-0.0498863
-0.0471484
-0.044469
-0.0418472
-0.0392836
-0.0367763
-0.0343259
-0.0319293
-0.0295874
-0.0272954
-0.0250555
-0.02286
-0.0207138
-0.0186048
-0.016543
-0.0145086
-0.0125207
-0.0105468
-0.00862213
-0.0066913
-0.00481797
-0.00290392
-0.00105525
-0.14706
-0.149511
-0.151565
-0.153252
-0.154601
-0.155631
-0.156355
-0.156786
-0.156935
-0.156815
-0.156439
-0.15582
-0.154969
-0.153899
-0.152621
-0.151146
-0.149485
-0.147649
-0.14565
-0.143497
-0.141201
-0.138773
-0.136224
-0.133562
-0.130799
-0.127944
-0.125008
-0.121998
-0.118926
-0.115799
-0.112627
-0.109418
-0.106181
-0.102923
-0.099652
-0.0963752
-0.0930995
-0.0898313
-0.0865767
-0.0833412
-0.08013
-0.076948
-0.0737995
-0.0706884
-0.0676181
-0.0645918
-0.061612
-0.0586809
-0.0558006
-0.0529722
-0.0501972
-0.0474758
-0.044809
-0.0421962
-0.0396379
-0.0371326
-0.0346809
-0.0322798
-0.0299304
-0.0276281
-0.0253752
-0.0231641
-0.021
-0.0188709
-0.016787
-0.0147286
-0.0127151
-0.010714
-0.00876112
-0.00680066
-0.00489748
-0.00295217
-0.00107274
-0.142563
-0.145121
-0.147292
-0.149103
-0.150579
-0.151738
-0.152594
-0.153156
-0.153437
-0.15345
-0.153207
-0.15272
-0.152001
-0.151061
-0.149913
-0.148566
-0.147032
-0.145322
-0.143447
-0.141417
-0.139242
-0.136933
-0.134501
-0.131955
-0.129305
-0.12656
-0.123732
-0.120828
-0.117858
-0.114832
-0.111757
-0.108642
-0.105495
-0.102324
-0.0991364
-0.0959395
-0.0927397
-0.0895436
-0.086357
-0.0831856
-0.0800344
-0.0769082
-0.0738114
-0.0707477
-0.0677208
-0.0647337
-0.061789
-0.0588891
-0.056036
-0.0532309
-0.0504754
-0.0477699
-0.0451154
-0.0425114
-0.0399586
-0.0374556
-0.0350031
-0.0325983
-0.0302425
-0.027931
-0.0256664
-0.0234413
-0.021261
-0.0191136
-0.0170095
-0.0149291
-0.0128924
-0.0108664
-0.00888783
-0.00690035
-0.00496995
-0.00299613
-0.0010887
-0.138397
-0.141047
-0.14332
-0.145241
-0.146831
-0.148107
-0.14908
-0.149763
-0.150166
-0.1503
-0.150179
-0.149815
-0.149217
-0.148399
-0.147371
-0.146144
-0.144729
-0.143136
-0.141376
-0.13946
-0.137399
-0.135201
-0.132878
-0.130439
-0.127895
-0.125254
-0.122526
-0.119721
-0.116847
-0.113914
-0.110929
-0.107902
-0.10484
-0.10175
-0.0986404
-0.0955179
-0.0923892
-0.0892604
-0.0861375
-0.0830259
-0.0799309
-0.0768569
-0.0738085
-0.0707894
-0.0678032
-0.064853
-0.0619415
-0.059071
-0.0562435
-0.0534606
-0.0507237
-0.0480334
-0.0453907
-0.0427954
-0.0402482
-0.0377478
-0.035295
-0.0328872
-0.0305257
-0.0282061
-0.025931
-0.0236933
-0.0214983
-0.0193343
-0.017212
-0.0151117
-0.0130537
-0.0110051
-0.00900312
-0.00699104
-0.00503587
-0.00303612
-0.00110323
-0.13455
-0.137279
-0.139642
-0.141659
-0.143351
-0.144731
-0.145812
-0.146604
-0.147117
-0.147364
-0.147355
-0.147103
-0.146618
-0.145912
-0.144995
-0.143879
-0.142573
-0.141089
-0.139437
-0.137628
-0.135671
-0.133577
-0.131355
-0.129017
-0.12657
-0.124025
-0.121392
-0.118678
-0.115894
-0.113047
-0.110147
-0.107201
-0.104217
-0.101203
-0.098166
-0.0951128
-0.0920501
-0.0889841
-0.0859205
-0.0828647
-0.079822
-0.0767968
-0.0737936
-0.0708162
-0.0678681
-0.0649524
-0.062072
-0.0592291
-0.0564259
-0.0536639
-0.0509446
-0.0482688
-0.0456375
-0.0430506
-0.040509
-0.0380113
-0.0355586
-0.0331484
-0.030782
-0.0284553
-0.0261709
-0.0239218
-0.0217137
-0.0195346
-0.0173957
-0.0152773
-0.0132002
-0.011131
-0.00910777
-0.00707335
-0.00509571
-0.00307242
-0.00111641
-0.131013
-0.133809
-0.136249
-0.138352
-0.140133
-0.141607
-0.142784
-0.143675
-0.144289
-0.144637
-0.144731
-0.144582
-0.144201
-0.143598
-0.142784
-0.14177
-0.140566
-0.139182
-0.13763
-0.135919
-0.134059
-0.132061
-0.129934
-0.127687
-0.125332
-0.122876
-0.120329
-0.117701
-0.114999
-0.112233
-0.10941
-0.10654
-0.103629
-0.100685
-0.097715
-0.0947262
-0.0917247
-0.0887168
-0.0857082
-0.0827043
-0.0797101
-0.0767303
-0.0737692
-0.0708305
-0.0679179
-0.0650345
-0.0621831
-0.0593661
-0.0565856
-0.0538432
-0.0511406
-0.0484784
-0.045858
-0.0432792
-0.040743
-0.0382483
-0.035796
-0.0333838
-0.0310133
-0.0286803
-0.0263877
-0.0241284
-0.0219084
-0.0197158
-0.017562
-0.0154273
-0.0133327
-0.0112449
-0.00920249
-0.00714786
-0.00514986
-0.00310526
-0.00112833
-0.127776
-0.130628
-0.133136
-0.135312
-0.137173
-0.13873
-0.139994
-0.140973
-0.141678
-0.142119
-0.142306
-0.142251
-0.141964
-0.141456
-0.140736
-0.139816
-0.138705
-0.137414
-0.135954
-0.134333
-0.132563
-0.130653
-0.128613
-0.126452
-0.12418
-0.121806
-0.119339
-0.116789
-0.114164
-0.111472
-0.108721
-0.10592
-0.103077
-0.100197
-0.0972894
-0.0943598
-0.0914149
-0.0884606