/*--------------------------------*- C++ -*----------------------------------*\
  =========                 |
  \\      /  F ield         | OpenFOAM: The Open Source CFD Toolbox
   \\    /   O peration     | Website:  https://openfoam.org
    \\  /    A nd           | Version:  7
     \\/     M anipulation  |
\*---------------------------------------------------------------------------*/
FoamFile
{
    version     2.0;
    format      ascii;
    class       surfaceScalarField;
    location    "39.999";
    object      phi;
}
// * * * * * * * * * * * * * * * * * * * * * * * * * * * * * * * * * * * * * //

dimensions      [0 3 -1 0 0 0 0];

internalField   nonuniform List<scalar> 
7273
(
-0.00123832
2.58121e-05
-0.00126031
2.17702e-05
-0.00127863
1.80822e-05
-0.00129357
1.46763e-05
-0.00130533
1.14862e-05
-0.00131405
8.45196e-06
-0.00131987
5.54925e-06
-0.0013229
2.78773e-06
-0.00132322
1.2372e-07
-0.00132116
-2.21371e-06
-0.00131669
-4.5607e-06
-0.00130983
-6.88538e-06
-0.0013006
-9.17682e-06
-0.00128901
-1.14397e-05
-0.00127509
-1.36817e-05
-0.00125887
-1.58855e-05
-0.00124035
-1.80833e-05
-0.00121954
-2.02707e-05
-0.00119646
-2.24531e-05
-0.00117112
-2.46318e-05
-0.00114353
-2.68075e-05
-0.00111371
-2.89801e-05
-0.00108169
-3.11487e-05
-0.0010475
-3.33106e-05
-0.00101116
-3.54606e-05
-0.000972715
-3.75982e-05
-0.000932239
-3.96856e-05
-0.000889783
-4.17456e-05
-0.000845412
-4.37637e-05
-0.000799197
-4.5732e-05
-0.000751215
-4.76415e-05
-0.000701554
-4.94804e-05
-0.000650292
-5.12551e-05
-0.000597561
-5.29016e-05
-0.000543459
-5.44578e-05
-0.000488092
-5.59047e-05
-0.000431576
-5.72319e-05
-0.000374012
-5.84491e-05
-0.000315542
-5.95091e-05
-0.000256279
-6.0438e-05
-0.000196342
-6.12274e-05
-0.000135848
-6.18748e-05
-7.49181e-05
-6.23743e-05
-1.36603e-05
-6.27368e-05
4.78082e-05
-6.29533e-05
0.000109383
-6.30352e-05
0.000170961
-6.29861e-05
0.000232447
-6.28122e-05
0.000293749
-6.2521e-05
0.000354783
-6.21212e-05
0.000415469
-6.16218e-05
0.000475737
-6.10329e-05
0.00053552
-6.03648e-05
0.00059476
-5.96281e-05
0.000653407
-5.88334e-05
0.000711413
-5.79917e-05
0.000768743
-5.71134e-05
0.000825362
-5.62089e-05
0.000881247
-5.52882e-05
0.000936376
-5.43606e-05
0.000990738
-5.34356e-05
0.00104432
-5.25207e-05
0.00109713
-5.16253e-05
0.00114916
-5.07543e-05
0.00120043
-4.99183e-05
0.00125094
-4.91171e-05
0.00130073
-4.83674e-05
0.0013498
-4.7657e-05
0.0013982
-4.70198e-05
0.00144594
-4.64188e-05
0.00149311
-4.59216e-05
0.00153972
-4.54629e-05
0.00158584
-4.51126e-05
0.00163164
-4.49384e-05
0.00167691
-4.45898e-05
0.00172267
-4.52541e-05
-4.46695e-05
-0.00118195
5.06278e-05
-0.00120283
4.26527e-05
-0.00122013
3.53806e-05
-0.0012341
2.86504e-05
-0.00124495
2.23318e-05
-0.0012528
1.63037e-05
-0.00125777
1.05216e-05
-0.00126
5.01038e-06
-0.00125957
-3.03918e-07
-0.00125677
-5.008e-06
-0.00125158
-9.75053e-06
-0.00124402
-1.44485e-05
-0.00123411
-1.90901e-05
-0.00122186
-2.3683e-05
-0.0012073
-2.82437e-05
-0.00119046
-3.27252e-05
-0.00117135
-3.71968e-05
-0.00114997
-4.16446e-05
-0.00112635
-4.6075e-05
-0.0011005
-5.04875e-05
-0.00107242
-5.48798e-05
-0.00104216
-5.92484e-05
-0.00100972
-6.35884e-05
-0.000975135
-6.78927e-05
-0.000938447
-7.21486e-05
-0.000899686
-7.6359e-05
-0.000858933
-8.04383e-05
-0.00081624
-8.44384e-05
-0.000771673
-8.83308e-05
-0.000725305
-9.21005e-05
-0.000677214
-9.57319e-05
-0.000627491
-9.92041e-05
-0.000576205
-0.000102541
-0.000523499
-0.000105608
-0.000469466
-0.00010849
-0.000414216
-0.000111155
-0.000357862
-0.000113586
-0.000300504
-0.000115808
-0.000242284
-0.000117729
-0.000183314
-0.000119407
-0.000123713
-0.000120829
-6.35925e-05
-0.000121995
-3.06964e-06
-0.000122897
5.77286e-05
-0.000123535
0.000118709
-0.000123934
0.000179764
-0.00012409
0.000240793
-0.000124014
0.0003017
-0.00012372
0.000362398
-0.000123219
0.000422804
-0.000122527
0.000482842
-0.00012166
0.000542443
-0.000120634
0.000601544
-0.000119465
0.000660088
-0.000118173
0.000718027
-0.000116772
0.000775318
-0.000115282
0.000831924
-0.00011372
0.000887816
-0.000112101
0.000942969
-0.000110442
0.000997367
-0.000108758
0.001051
-0.000107066
0.00110385
-0.000105376
0.00115593
-0.000103707
0.00120724
-0.000102064
0.0012578
-0.000100469
0.0013076
-9.89198e-05
0.00135668
-9.74483e-05
0.00140505
-9.6031e-05
0.00145277
-9.47338e-05
0.00149984
-9.34871e-05
0.00154633
-9.24171e-05
0.00159228
-9.14121e-05
0.00163775
-9.05779e-05
0.00168291
-9.01016e-05
0.00172753
-8.92128e-05
0.00177259
-9.03115e-05
-8.89144e-05
-0.00107012
7.3156e-05
-0.00108888
6.14139e-05
-0.00110421
5.07118e-05
-0.00111635
4.07826e-05
-0.00112545
3.14378e-05
-0.00113165
2.2499e-05
-0.00113503
1.39007e-05
-0.00113565
5.63506e-06
-0.00113386
-2.096e-06
-0.00112966
-9.2088e-06
-0.0011231
-1.63109e-05
-0.00111421
-2.33401e-05
-0.00110301
-3.02899e-05
-0.00108952
-3.71703e-05
-0.00107375
-4.40146e-05
-0.00105575
-5.07246e-05
-0.00103552
-5.74234e-05
-0.00101308
-6.40831e-05
-0.000988449
-7.07108e-05
-0.000961633
-7.73034e-05
-0.000932657
-8.38558e-05
-0.000901545
-9.03603e-05
-0.000868325
-9.68079e-05
-0.000833031
-0.000103187
-0.000795701
-0.000109478
-0.000756361
-0.0001157
-0.000715106
-0.000121693
-0.000671989
-0.000127555
-0.000627077
-0.000133243
-0.000580445
-0.000138732
-0.000532176
-0.000144
-0.000482361
-0.000149019
-0.000431062
-0.000153841
-0.000378429
-0.00015824
-0.000324558
-0.000162361
-0.000269556
-0.000166156
-0.000213541
-0.000169601
-0.000156596
-0.000172753
-9.88735e-05
-0.000175452
-4.04816e-05
-0.000177799
1.84642e-05
-0.000179775
7.78383e-05
-0.000181369
0.000137543
-0.000182602
0.000197469
-0.000183462
0.000257507
-0.000183972
0.000317557
-0.000184139
0.000377522
-0.00018398
0.000437313
-0.00018351
0.000496845
-0.000182751
0.00055604
-0.000181723
0.000614828
-0.000180447
0.000673142
-0.000178948
0.000730924
-0.000177248
0.000788124
-0.000175372
0.000844695
-0.000173343
0.000900599
-0.000171186
0.000955803
-0.000168924
0.00101028
-0.000166579
0.00106401
-0.000164175
0.00111699
-0.000161731
0.00116919
-0.000159269
0.00122062
-0.000156807
0.00127128
-0.000154367
0.00132118
-0.00015196
0.00137032
-0.000149615
0.00141873
-0.000147328
0.00146643
-0.000145146
0.00151344
-0.000143037
0.00155979
-0.000141093
0.00160553
-0.000139221
0.0016507
-0.000137587
0.00169535
-0.000136068
0.00173952
-0.000134741
0.00178342
-0.000134003
0.00182677
-0.000132568
0.00187047
-0.000134011
-0.000131983
-0.00090451
9.24642e-05
-0.000920318
7.72221e-05
-0.000932917
6.33107e-05
-0.000942499
5.03643e-05
-0.0009492
3.81396e-05
-0.000953097
2.63958e-05
-0.000954257
1.50606e-05
-0.000952826
4.20346e-06
-0.000949079
-5.84299e-06
-0.000942957
-1.53303e-05
-0.000934528
-2.47404e-05
-0.000923825
-3.40425e-05
-0.000910874
-4.32409e-05
-0.000895698
-5.23463e-05
-0.000878283
-6.14294e-05
-0.000858711
-7.02966e-05
-0.000836978
-7.91562e-05
-0.000813102
-8.79595e-05
-0.0007871
-9.67126e-05
-0.000758994
-0.00010541
-0.000728808
-0.000114042
-0.00069657
-0.000122598
-0.000662315
-0.000131063
-0.000626082
-0.000139421
-0.000587914
-0.000147646
-0.000547824
-0.000155789
-0.000505927
-0.00016359
-0.000462278
-0.000171205
-0.000416944
-0.000178577
-0.000370005
-0.000185671
-0.00032155
-0.000192455
-0.000271676
-0.000198893
-0.000220416
-0.000205101
-0.000167949
-0.000210707
-0.000114363
-0.000215947
-5.97562e-05
-0.000220764
-4.20515e-06
-0.000225152
5.202e-05
-0.000228978
0.000108959
-0.000232391
0.000166467
-0.000235306
0.000224422
-0.00023773
0.000282714
-0.000239662
0.000341232
-0.000241119
0.000399872
-0.000242102
0.000458534
-0.000242634
0.000517121
-0.000242727
0.000575545
-0.000242403
0.000633719
-0.000241685
0.000691568
-0.000240599
0.000749017
-0.000239173
0.000806003
-0.000237433
0.000862466
-0.000235411
0.000918354
-0.000233136
0.00097362
-0.000230639
0.00102823
-0.00022795
0.00108214
-0.000225099
0.00113533
-0.000222116
0.00118778
-0.000219029
0.00123947
-0.000215868
0.0012904
-0.000212657
0.00134056
-0.000209424
0.00138994
-0.000206191
0.00143856
-0.000202986
0.00148642
-0.000199824
0.00153355
-0.000196739
0.00157995
-0.00019373
0.00162566
-0.000190855
0.0016707
-0.000188076
0.0017151
-0.000185502
0.00175892
-0.000183035
0.00180218
-0.000180847
0.00184497
-0.000178858
0.00188726
-0.000177032
0.00192934
-0.000176079
0.00197087
-0.000174106
0.00201264
-0.000175774
-0.000173339
-0.000687156
-0.00069946
8.95262e-05
-0.000708832
7.26831e-05
-0.000715416
5.69483e-05
-0.000719305
4.20284e-05
-0.000720545
2.76355e-05
-0.000719246
1.37621e-05
-0.000715144
1.01023e-07
-0.000709226
-1.17607e-05
-0.000700908
-2.36481e-05
-0.000690322
-3.53263e-05
-0.000677529
-4.68355e-05
-0.000662562
-5.82081e-05
-0.00064545
-6.94587e-05
-0.000626147
-8.07321e-05
-0.000604773
-9.16712e-05
-0.000581319
-0.00010261
-0.000555804
-0.000113474
-0.000528252
-0.000124265
-0.000498687
-0.000134974
-0.00046714
-0.000145589
-0.000433645
-0.000156093
-0.000398242
-0.000166466
-0.00036098
-0.000176683
-0.000321909
-0.000186717
-0.000281023
-0.000196676
-0.000238457
-0.000206155
-0.000194274
-0.000215389
-0.000148539
-0.000224312
-0.000101331
-0.000232879
-5.27267e-05
-0.00024106
-2.74424e-06
-0.000248876
4.81729e-05
-0.000256018
0.000100265
-0.0002628
0.000153357
-0.000269039
0.000207321
-0.000274727
0.000262033
-0.000279865
0.000317418
-0.000284363
0.00037333
-0.000288302
0.000429662
-0.000291639
0.000486309
-0.000294377
0.000543165
-0.000296518
0.000600126
-0.00029808
0.000657094
-0.000299071
0.000713975
-0.000299514
0.000770679
-0.000299431
0.000827124
-0.000298848
0.000883233
-0.000297794
0.000938934
-0.000296301
0.000994164
-0.000294402
0.00104886
-0.000292133
0.00110298
-0.000289529
0.00115647
-0.000286627
0.0012093
-0.000283465
0.00126143
-0.000280078
0.00131283
-0.000276502
0.00136349
-0.000272775
0.00141339
-0.000268928
0.00146252
-0.000264997
0.00151087
-0.000261012
0.00155845
-0.000257006
0.00160527
-0.000253005
0.00165133
-0.000249043
0.00169664
-0.000245136
0.00174123
-0.000241328
0.00178511
-0.000237616
0.00182833
-0.000234068
0.00187089
-0.000230645
0.00191285
-0.000227462
0.00195426
-0.000224439
0.00199512
-0.000221709
0.00203557
-0.000219304
0.00207551
-0.000216975
0.00211529
-0.000215855
0.00215455
-0.000213372
0.00219391
-0.000215131
-0.000212512
-0.000428648
9.81692e-05
-0.000434677
7.87115e-05
-0.000438167
6.04392e-05
-0.000439155
4.30158e-05
-0.000437605
2.60856e-05
-0.000433464
9.62137e-06
-0.000427517
-5.84654e-06
-0.000419055
-2.02227e-05
-0.000408425
-3.42778e-05
-0.000395638
-4.81137e-05
-0.000380726
-6.17472e-05
-0.000363725
-7.52088e-05
-0.000344654
-8.85294e-05
-0.000323462
-0.000101924
-0.000300276
-0.000114857
-0.000275101
-0.000127786
-0.000247955
-0.00014062
-0.000218866
-0.000153354
-0.000187864
-0.000165976
-0.000154985
-0.000178468
-0.000120266
-0.000190812
-8.37467e-05
-0.000202985
-4.54672e-05
-0.000214962
-5.41061e-06
-0.000226774
3.5988e-05
-0.000238075
7.90137e-05
-0.000249181
0.000123547
-0.000259922
0.000169493
-0.000270257
0.000216758
-0.000280144
0.000265241
-0.000289543
0.000314825
-0.00029846
0.000365489
-0.000306681
0.000417061
-0.000314372
0.000469443
-0.000321421
0.00052253
-0.000327814
0.000576207
-0.000333542
0.000630386
-0.000338542
0.000684943
-0.000342859
0.000739774
-0.00034647
0.000794774
-0.000349377
0.000849846
-0.00035159
0.000904891
-0.000353124
0.000959818
-0.000353998
0.00101454
-0.000354236
0.00106897
-0.000353867
0.00112305
-0.000352922
0.00117669
-0.000351437
0.00122984
-0.000349451
0.00128244
-0.000347002
0.00133444
-0.000344133
0.0013858
-0.000340886
0.00143648
-0.000337305
0.00148644
-0.000333431
0.00153567
-0.000329308
0.00158415
-0.000324977
0.00163185
-0.00032048
0.00167878
-0.000315857
0.00172493
-0.000311145
0.0017703
-0.000306382
0.0018149
-0.000301603
0.00185873
-0.00029684
0.00190182
-0.000292131
0.00194418
-0.000287495
0.00198583
-0.000282981
0.00202681
-0.000278591
0.00206713
-0.000274392
0.00210685
-0.00027036
0.00214597
-0.000266591
0.00218459
-0.000263056
0.00222268
-0.000259799
0.00226041
-0.000257036
0.00229765
-0.000254209
0.00233475
-0.000252959
0.0023714
-0.000250022
0.00240801
-0.000251738
-0.000249127
-0.000109741
0.00010354
-0.000112817
8.1788e-05
-0.000113596
6.12182e-05
-0.000112059
4.14783e-05
-0.000108155
2.21824e-05
-0.000101738
3.20381e-06
-9.35418e-05
-1.40426e-05
-8.31133e-05
-3.06512e-05
-7.05006e-05
-4.68904e-05
-5.57715e-05
-6.28429e-05
-3.89628e-05
-7.85558e-05
-2.00995e-05
-9.40722e-05
8.99611e-07
-0.000109528
2.34609e-05
-0.000124486
4.81073e-05
-0.000139503
7.46941e-05
-0.000154373
0.00010318
-0.000169106
0.000133523
-0.000183697
0.00016568
-0.000198133
0.000199607
-0.000212395
0.000235254
-0.000226459
0.000272568
-0.000240298
0.000311482
-0.000253877
0.000351916
-0.000267208
0.000393884
-0.000280042
0.00043725
-0.000292547
0.000481935
-0.000304607
0.000527856
-0.000316179
0.000574926
-0.000327213
0.000623046
-0.000337663
0.000672104
-0.000347519
0.000722048
-0.000356625
0.000772737
-0.000365061
0.000824072
-0.000372756
0.000875943
-0.000379685
0.000928241
-0.00038584
0.000980875
-0.000391176
0.00103373
-0.000395715
0.00108671
-0.000399447
0.00113971
-0.000402379
0.00119264
-0.000404522
0.00124541
-0.000405897
0.00129794
-0.000406527
0.00135015
-0.000406442
0.00140196
-0.000405678
0.00145331
-0.000404271
0.00150414
-0.000402263
0.00155439
-0.0003997
0.00160401
-0.000396626
0.00165297
-0.000393092
0.00170122
-0.000389144
0.00174875
-0.000384832
0.00179553
-0.000380206
0.00184153
-0.000375313
0.00188676
-0.000370201
0.00193119
-0.000364916
0.00197484
-0.000359503
0.0020177
-0.000354005
0.00205978
-0.000348463
0.0021011
-0.000342918
0.00214166
-0.000337403
0.00218149
-0.000331962
0.00222061
-0.000326619
0.00225905
-0.000321421
0.00229684
-0.000316382
0.00233401
-0.000311559
0.00237061
-0.000306956
0.00240664
-0.000302627
0.00244222
-0.000298629
0.00247728
-0.000294866
0.00251205
-0.000291799
0.00254633
-0.000288496
0.00258051
-0.000287133
0.00261431
-0.000283824
0.00264795
-0.000285379
-0.000282914
0.000255899
0.000106706
0.000254732
8.29556e-05
0.000255694
6.02557e-05
0.000258865
3.83072e-05
0.000264402
1.66454e-05
0.000272025
-4.41888e-06
0.00028163
-2.36472e-05
0.000293437
-4.24586e-05
0.000307361
-6.08143e-05
0.000323345
-7.88274e-05
0.000341349
-9.65594e-05
0.000361329
-0.000114052
0.00038323
-0.00013143
0.000407128
-0.000148384
0.000432903
-0.000165278
0.000460516
-0.000181986
0.000489933
-0.000198523
0.000521113
-0.000214876
0.000554008
-0.000231028
0.000588567
-0.000246954
0.000624734
-0.000262627
0.000662449
-0.000278012
0.00070164
-0.000293068
0.000742222
-0.00030779
0.000784176
-0.000321996
0.000827385
-0.000335756
0.000871764
-0.000348987
0.000917225
-0.000361639
0.000963672
-0.000373661
0.00101101
-0.000384998
0.00105912
-0.00039563
0.00110794
-0.000405443
0.00115734
-0.000414461
0.00120722
-0.000422635
0.00125747
-0.00042994
0.00130799
-0.000436363
0.00135869
-0.000441874
0.00140946
-0.000446484
0.00146021
-0.000450192
0.00151083
-0.000453009
0.00156126
-0.00045495
0.00161141
-0.00045604
0.00166119
-0.00045631
0.00171054
-0.000455794
0.0017594
-0.000454534
0.0018077
-0.000452574
0.0018554
-0.000449961
0.00190245
-0.000446748
0.00194881
-0.000442985
0.00199444
-0.000438729
0.00203933
-0.000434033
0.00208345
-0.000428952
0.00212679
-0.000423542
0.00216933
-0.000417856
0.00221108
-0.000411946
0.00225202
-0.000405863
0.00229218
-0.000399658
0.00233155
-0.000393376
0.00237015
-0.000387064
0.002408
-0.000380764
0.00244511
-0.000374518
0.00248152
-0.000368366
0.00251724
-0.000362343
0.00255231
-0.00035649
0.00258676
-0.000350837
0.00262062
-0.000345421
0.00265396
-0.00034029
0.00268676
-0.000335431
0.00271915
-0.000331021
0.00275107
-0.000326778
0.00278272
-0.000323455
0.00281394
-0.000319716
0.00284505
-0.000318242
0.00287589
-0.000314657
0.00290646
-0.000315958
-0.000313726
0.000668127
0.000109785
0.000666986
8.40972e-05
0.000667972
5.92695e-05
0.000671195
3.50844e-05
0.000676883
1.09575e-05
0.000684461
-1.19968e-05
0.000694324
-3.351e-05
0.000706371
-5.45056e-05
0.000720561
-7.50043e-05
0.000736834
-9.51011e-05
0.000755141
-0.000114866
0.000775431
-0.000134343
0.000797638
-0.000153636
0.000821811
-0.000172556
0.000847832
-0.0001913
0.000875663
-0.000209817
0.000905252
-0.000228112
0.000936545
-0.000246169
0.000969483
-0.000263966
0.00100401
-0.000281476
0.00104005
-0.000298666
0.00107753
-0.000315499
0.00111639
-0.000331924
0.00115652
-0.000347921
0.00119788
-0.000363358
0.00124037
-0.000378242
0.00128389
-0.000392505
0.00132834
-0.000406093
0.00137363
-0.000418952
0.00141966
-0.000431026
0.00146631
-0.000442283
0.00151351
-0.000452638
0.00156113
-0.000462086
0.00160908
-0.000470586
0.00165726
-0.000478115
0.00170556
-0.00048466
0.00175388
-0.000490201
0.00180215
-0.000494746
0.00185025
-0.0004983
0.00189812
-0.000500877
0.00194567
-0.000502499
0.00199283
-0.000503197
0.00203953
-0.000503007
0.0020857
-0.000501969
0.0021313
-0.000500131
0.00217627
-0.000497544
0.00222057
-0.000494262
0.00226416
-0.000490342
0.00230702
-0.000485844
0.00234912
-0.000480826
0.00239044
-0.000475352
0.00243096
-0.000469479
0.00247069
-0.000463269
0.00250962
-0.000456781
0.00254774
-0.000450071
0.00258507
-0.000443195
0.00262162
-0.000436206
0.0026574
-0.000429155
0.00269243
-0.000422093
0.00272673
-0.000415063
0.00276032
-0.000408113
0.00279324
-0.000401281
0.00282551
-0.000394613
0.00285716
-0.000388139
0.00288824
-0.000381916
0.00291876
-0.000375943
0.0029488
-0.000370334
0.00297835
-0.000364979
0.00300754
-0.000360209
0.00303628
-0.000355522
0.00306481
-0.000351983
0.00309296
-0.000347862
0.00312098
-0.000346265
0.00314883
-0.000342507
0.00317636
-0.000343492
-0.000341532
0.00112669
0.000116015
0.00112277
8.80117e-05
0.00112129
6.07541e-05
0.0011223
3.40706e-05
0.00112597
7.29003e-06
0.00113185
-1.78754e-05
0.00114018
-4.18452e-05
0.0011509
-6.52273e-05
0.00116391
-8.80078e-05
0.00117911
-0.000110303
0.00119644
-0.000132195
0.00121583
-0.000153737
0.00123721
-0.000175015
0.00126057
-0.000195917
0.00128582
-0.000216546
0.00131289
-0.000236885
0.00134171
-0.000256934
0.00137222
-0.000276675
0.00140433
-0.000296084
0.00143799
-0.00031513
0.0014731
-0.000333776
0.00150958
-0.000351982
0.00154735
-0.000369693
0.0015863
-0.000386876
0.00162637
-0.000403429
0.00166746
-0.000419324
0.00170945
-0.000434499
0.00175225
-0.000448898
0.00179577
-0.000462464
0.00183988
-0.000475141
0.00188449
-0.000486892
0.0019295
-0.000497648
0.0019748
-0.000507389
0.0020203
-0.000516082
0.00206589
-0.000523705
0.00211148
-0.000530247
0.00215697
-0.000535696
0.00220228
-0.000540061
0.00224734
-0.000543352
0.00229205
-0.000545589
0.00233635
-0.0005468
0.00238017
-0.000547021
0.00242346
-0.000546295
0.00246616
-0.000544668
0.00250822
-0.000542194
0.00254961
-0.000538931
0.00259029
-0.000534939
0.00263023
-0.000530281
0.0026694
-0.000525022
0.0027078
-0.000519227
0.00274542
-0.000512964
0.00278224
-0.000506298
0.00281826
-0.000499293
0.00285349
-0.000492012
0.00288794
-0.000484518
0.00292161
-0.000476869
0.00295453
-0.000469124
0.00298671
-0.000461333
0.00301817
-0.000453554
0.00304894
-0.00044583
0.00307904
-0.000438216
0.0031085
-0.000430745
0.00313737
-0.000423479
0.00316566
-0.000416427
0.00319342
-0.000409683
0.00322068
-0.000403196
0.0032475
-0.00039716
0.00327388
-0.000391353
0.00329994
-0.000386272
0.00332561
-0.000381189
0.00335109
-0.000377462
0.00337626
-0.00037303
0.00340128
-0.000371292
0.00342623
-0.000367457
0.00345084
-0.000368099
-0.000366417
0.00163006
0.00161971
9.83664e-05
0.00161254
6.79245e-05
0.00160846
3.81508e-05
0.00160743
8.32139e-06
0.00160936
-1.98057e-05
0.00161407
-4.65543e-05
0.00162152
-7.26806e-05
0.00163155
-9.80339e-05
0.00164402
-0.000122774
0.00165882
-0.000147001
0.00167587
-0.000170785
0.00169506
-0.000194203
0.00171633
-0.000217193
0.00173959
-0.000239805
0.00176475
-0.00026204
0.00179171
-0.000283895
0.00182039
-0.000305351
0.00185069
-0.000326384
0.00188252
-0.00034696
0.00191578
-0.00036704
0.00195038
-0.000386581
0.00198622
-0.000405527
0.00202318
-0.000423837
0.00206117
-0.000441425
0.00210009
-0.000458245
0.00213983
-0.000474239
0.00218028
-0.000489348
0.00222134
-0.000503517
0.00226288
-0.00051669
0.00230482
-0.000528826
0.00234704
-0.000539871
0.00238945
-0.000549796
0.00243194
-0.000558575
0.00247442
-0.000566188
0.00251681
-0.00057263
0.002559
-0.000577894
0.00260094
-0.000581992
0.00264253
-0.000584941
0.0026837
-0.000586767
0.00272441
-0.000587505
0.00276458
-0.000587195
0.00280417
-0.000585887
0.00284314
-0.000583634
0.00288144
-0.000580496
0.00291905
-0.000576536
0.00295593
-0.000571822
0.00299207
-0.000566421
0.00302745
-0.000560404
0.00306207
-0.000553842
0.00309591
-0.000546807
0.00312898
-0.000539368
0.00316128
-0.000531596
0.00319283
-0.000523555
0.00322362
-0.000515314
0.00325368
-0.000506931
0.00328303
-0.000498472
0.00331169
-0.000489988
0.00333968
-0.000481542
0.00336702
-0.000473173
0.00339375
-0.000464949
0.0034199
-0.00045689
0.0034455
-0.000449081
0.00347057
-0.000441504
0.00349519
-0.000434295
0.00351934
-0.000427346
0.00354311
-0.000420939
0.00356649
-0.00041473
0.0035896
-0.000409384
0.00361238
-0.000403963
0.00363499
-0.000400071
0.00365736
-0.000395405
0.00367958
-0.000393509
0.0037018
-0.000389682
0.00372368
-0.000389979
-0.000388562
0.00215232
0.000119271
0.00213588
8.43651e-05
0.00212355
5.04821e-05
0.002115
1.68631e-05
0.00211029
-1.50886e-05
0.00210898
-4.52474e-05
0.00211102
-7.47192e-05
0.0021161
-0.000103119
0.00212403
-0.000130705
0.00213464
-0.000157603
0.00214777
-0.00018392
0.0021633
-0.000209736
0.00218113
-0.000235017
0.00220111
-0.00025979
0.00222314
-0.000284064
0.00224708
-0.00030784
0.00227283
-0.000331101
0.00230027
-0.000353822
0.00232928
-0.000375969
0.00235974
-0.000397503
0.00239154
-0.000418382
0.00242456
-0.000438549
0.00245868
-0.000457958
0.0024938
-0.000476536
0.00252978
-0.000494228
0.00256652
-0.000510979
0.0026039
-0.000526729
0.00264181
-0.000541426
0.00268014
-0.000555017
0.00271877
-0.000567462
0.00275761
-0.000578713
0.00279656
-0.000588745
0.00283552
-0.000597535
0.0028744
-0.000605069
0.00291312
-0.000611344
0.00295159
-0.000616364
0.00298974
-0.000620143
0.0030275
-0.000622706
0.00306482
-0.000624085
0.00310164
-0.00062432
0.0031379
-0.000623459
0.00317357
-0.000621558
0.00320861
-0.000618675
0.00324299
-0.000614878
0.00327669
-0.000610234
0.00330969
-0.000604816
0.00334196
-0.000598698
0.00337352
-0.000591956
0.00340434
-0.000584665
0.00343443
-0.0005769
0.0034638
-0.000568736
0.00349245
-0.000560247
0.0035204
-0.000551501
0.00354765
-0.000542569
0.00357423
-0.000533513
0.00360016
-0.000524402
0.00362546
-0.000515287
0.00365016
-0.000506237
0.00367427
-0.000497288
0.00369784
-0.000488518
0.00372089
-0.000479935
0.00374345
-0.000471647
0.00376556
-0.000463606
0.00378726
-0.000455995
0.00380855
-0.000448643
0.00382954
-0.000441921
0.00385018
-0.00043537
0.0038706
-0.000429803
0.00389074
-0.000424111
0.00391074
-0.00042007
0.00393059
-0.000415251
0.00395027
-0.000413188
0.00397002
-0.000409436
0.00398945
-0.00040941
-0.000408236
0.00270968
0.000154402
0.00268067
0.000113372
0.00265705
7.40971e-05
0.00263806
3.58539e-05
0.00262491
-1.93557e-06
0.00261525
-3.55882e-05
0.00260974
-6.92096e-05
0.00260796
-0.000101341
0.00260961
-0.000132353
0.00261441
-0.000162398
0.00262214
-0.000191655
0.00263263
-0.000220223
0.0026457
-0.000248091
0.00266119
-0.000275279
0.00267893
-0.000301806
0.00269877
-0.00032768
0.00272056
-0.00035289
0.00274415
-0.000377412
0.0027694
-0.000401216
0.00279616
-0.000424267
0.00282431
-0.000446523
0.00285369
-0.000467933
0.00288418
-0.000488447
0.00291565
-0.000508004
0.00294796
-0.000526547
0.00298101
-0.000544023
0.00301466
-0.000560377
0.00304879
-0.00057556
0.0030833
-0.000589524
0.00311807
-0.000602232
0.003153
-0.000613645
0.00318799
-0.00062374
0.00322296
-0.000632501
0.00325781
-0.00063992
0.00329247
-0.000646001
0.00332686
-0.000650754
0.00336092
-0.0006542
0.00339458
-0.00065637
0.0034278
-0.000657302
0.00346052
-0.000657044
0.00349271
-0.000655649
0.00352433
-0.000653178
0.00355535
-0.000649698
0.00358575
-0.000645279
0.00361552
-0.000639996
0.00364463
-0.000633926
0.00367308
-0.000627148
0.00370086
-0.000619741
0.00372798
-0.000611786
0.00375444
-0.000603361
0.00378025
-0.000594544
0.00380541
-0.000585412
0.00382995
-0.000576035
0.00385387
-0.000566491
0.0038772
-0.000556839
0.00389995
-0.000547154
0.00392215
-0.000537485
0.00394382
-0.00052791
0.00396499
-0.000518456
0.00398568
-0.000509216
0.00400593
-0.000500182
0.00402577
-0.000491487
0.00404522
-0.000483051
0.00406432
-0.000475104
0.0040831
-0.000467416
0.00410161
-0.000460436
0.00411985
-0.000453609
0.00413791
-0.000447861
0.00415577
-0.000441969
0.00417349
-0.000437796
0.00419114
-0.0004329
0.00420862
-0.000430669
0.00422623
-0.000427044
0.00424355
-0.000426729
-0.000425776
0.00327365
0.000205839
0.00323007
0.00015696
0.00319348
0.00011068
0.00316309
6.6248e-05
0.00313783
2.33224e-05
0.00311907
-1.68225e-05
0.00310461
-5.47528e-05
0.00309461
-9.13408e-05
0.00308869
-0.000126436
0.00308646
-0.00016017
0.00308765
-0.000192846
0.00309202
-0.000224586
0.00309933
-0.0002554
0.00310936
-0.000285311
0.0031219
-0.000314352
0.00313677
-0.000342544
0.00315376
-0.000369885
0.00317271
-0.000396356
0.00319343
-0.000421936
0.00321575
-0.000446595
0.00323953
-0.000470297
0.00326459
-0.000492996
0.00329079
-0.000514649
0.00331799
-0.000535201
0.00334604
-0.000554601
0.00337482
-0.0005728
0.0034042
-0.000589751
0.00343404
-0.000605409
0.00346425
-0.000619733
0.00349471
-0.000632691
0.00352532
-0.000644254
0.00355599
-0.000654405
0.00358662
-0.000663134
0.00361714
-0.000670442
0.00364748
-0.000676338
0.00367756
-0.00068084
0.00370734
-0.000683977
0.00373676
-0.000685784
0.00376576
-0.000686308
0.00379432
-0.000685602
0.0038224
-0.000683725
0.00384996
-0.000680745
0.003877
-0.000676733
0.00390348
-0.000671765
0.00392941
-0.000665919
0.00395476
-0.000659278
0.00397954
-0.000651924
0.00400374
-0.000643941
0.00402736
-0.000635411
0.00405042
-0.000626418
0.00407292
-0.00061704
0.00409486
-0.00060736
0.00411627
-0.000597447
0.00413717
-0.000587383
0.00415756
-0.000577227
0.00417746
-0.00056706
0.0041969
-0.000556927
0.00421591
-0.000546913
0.00423449
-0.00053704
0.00425269
-0.000527412
0.00427051
-0.000518007
0.00428801
-0.000508982
0.00430518
-0.000500226
0.00432209
-0.000492011
0.00433873
-0.000484057
0.00435517
-0.000476875
0.0043714
-0.000469842
0.00438749
-0.000463951
0.00440346
-0.00045793
0.0044193
-0.000453642
0.00443514
-0.000448737
0.00445082
-0.000446347
0.00446666
-0.000442888
0.00448225
-0.000442324
-0.000441574
0.00381903
0.00376107
0.000214923
0.00371134
0.000160402
0.00366878
0.000108809
0.00363261
5.94922e-05
0.00360363
1.21581e-05
0.00357982
-3.09386e-05
0.00356097
-7.2487e-05
0.00354692
-0.000112388
0.00353714
-0.000150395
0.00353127
-0.000186977
0.00352899
-0.000222308
0.00353002
-0.000256429
0.00353409
-0.000289374
0.00354093
-0.000321194
0.00355031
-0.000351928
0.00356201
-0.000381586
0.00357582
-0.000410161
0.00359152
-0.000437642
0.00360894
-0.000464009
0.00362788
-0.000489236
0.00364817
-0.000513287
0.00366964
-0.000536125
0.00369215
-0.000557707
0.00371554
-0.00057799
0.00373967
-0.000596933
0.00376442
-0.000614496
0.00378965
-0.000630643
0.00381526
-0.000645344
0.00384114
-0.000658572
0.0038672
-0.000670308
0.00389333
-0.000680542
0.00391947
-0.000689272
0.00394554
-0.000696507
0.00397146
-0.000702264
0.00399719
-0.000706569
0.00402267
-0.000709456
0.00404786
-0.000710968
0.00407271
-0.000711158
0.00409719
-0.000710085
0.00412128
-0.000707813
0.00414495
-0.000704415
0.00416818
-0.000699967
0.00419096
-0.000694549
0.00421329
-0.000688244
0.00423515
-0.000681138
0.00425654
-0.000673316
0.00427747
-0.000664866
0.00429793
-0.000655871
0.00431793
-0.00064642
0.00433748
-0.000636591
0.00435659
-0.000626469
0.00437527
-0.000616127
0.00439353
-0.000605647
0.0044114
-0.000595091
0.00442888
-0.000584541
0.00444599
-0.00057404
0.00446276
-0.000563681
0.0044792
-0.000553479
0.00449533
-0.00054355
0.00451118
-0.000533858
0.00452678
-0.000524578
0.00454213
-0.000515581
0.00455729
-0.000507164
0.00457225
-0.000499017
0.00458706
-0.000491685
0.00460173
-0.000484515
0.0046163
-0.000478517
0.0046308
-0.000472434
0.00464521
-0.000468048
0.00465966
-0.000463195
0.00467398
-0.000460659
0.00468848
-0.000457391
0.00470277
-0.000456619
-0.000456058
0.00424686
0.000284415
0.00418623
0.000221035
0.00413357
0.000161469
0.00408791
0.000105159
0.00404828
5.17803e-05
0.00401769
-3.42662e-07
0.00399068
-4.54806e-05
0.00396891
-9.06139e-05
0.00395188
-0.000133369
0.0039392
-0.000174298
0.00393047
-0.000213576
0.00392534
-0.0002513
0.0039235
-0.000287529
0.00392464
-0.00032234
0.00392851
-0.000355795
0.00393484
-0.000387919
0.0039434
-0.000418721
0.00395397
-0.000448204
0.00396632
-0.000476362
0.00398027
-0.000503182
0.00399562
-0.00052864
0.00401221
-0.000552711
0.00402986
-0.000575364
0.00404844
-0.000596567
0.00406779
-0.000616288
0.0040878
-0.000634499
0.00410833
-0.000651174
0.00412928
-0.000666291
0.00415054
-0.000679835
0.00417203
-0.000691797
0.00419366
-0.000702172
0.00421536
-0.000710969
0.00423705
-0.000718204
0.00425869
-0.000723902
0.00428022
-0.000728095
0.00430159
-0.000730825
0.00432276
-0.000732141
0.0043437
-0.000732101
0.00436439
-0.000730769
0.00438479
-0.000728215
0.00440489
-0.000724516
0.00442468
-0.000719752
0.00444413
-0.000714006
0.00446325
-0.000707365
0.00448203
-0.000699918
0.00450047
-0.000691752
0.00451856
-0.000682957
0.00453631
-0.00067362
0.00455372
-0.00066383
0.0045708
-0.000653668
0.00458755
-0.000643221
0.00460398
-0.000632562
0.00462011
-0.000621777
0.00463595
-0.000610925
0.0046515
-0.000600094
0.00466679
-0.000589325
0.00468182
-0.000578715
0.00469662
-0.000568274
0.00471119
-0.000558128
0.00472557
-0.000548232
0.00473976
-0.000538774
0.00475379
-0.00052961
0.00476768
-0.000521054
0.00478145
-0.000512783
0.00479511
-0.00050535
0.00480871
-0.000498109
0.00482223
-0.000492034
0.00483574
-0.000485952
0.00484918
-0.000481485
0.00486272
-0.000476732
0.00487613
-0.000474067
0.00488974
-0.000471006
0.00490318
-0.000470063
-0.000469679
0.00466179
0.00036019
0.00459466
0.000288158
0.00453548
0.000220652
0.00448359
0.000157045
0.00443866
9.67188e-05
0.00439878