/*--------------------------------*- C++ -*----------------------------------*\
  =========                 |
  \\      /  F ield         | OpenFOAM: The Open Source CFD Toolbox
   \\    /   O peration     | Website:  https://openfoam.org
    \\  /    A nd           | Version:  7
     \\/     M anipulation  |
\*---------------------------------------------------------------------------*/
FoamFile
{
    version     2.0;
    format      ascii;
    class       volVectorField;
    location    "39.999";
    object      U;
}
// * * * * * * * * * * * * * * * * * * * * * * * * * * * * * * * * * * * * * //

dimensions      [0 1 -1 0 0 0 0];

internalField   nonuniform List<vector> 
3700
(
(-0.209224 0.0012693 2.11878e-22)
(-0.213499 0.0010784 -2.71796e-21)
(-0.217218 0.000904417 2.96063e-21)
(-0.220318 0.000744446 -3.66502e-21)
(-0.222875 0.000595424 1.94984e-21)
(-0.224904 0.00045475 -7.18557e-22)
(-0.22643 0.000321418 3.10782e-21)
(-0.227467 0.000195952 -1.74066e-21)
(-0.228032 8.07092e-05 1.58551e-21)
(-0.228165 -3.42408e-05 -7.36339e-22)
(-0.227888 -0.00014666 -1.21513e-21)
(-0.227194 -0.000256833 -6.36438e-22)
(-0.226086 -0.000364462 6.28284e-22)
(-0.224567 -0.00047007 -5.26791e-22)
(-0.222635 -0.000574236 7.4972e-22)
(-0.220297 -0.000676387 -2.67641e-22)
(-0.217552 -0.000778183 -9.32625e-22)
(-0.214401 -0.000879608 2.00734e-21)
(-0.210845 -0.000981088 -2.35041e-21)
(-0.206883 -0.00108286 -4.22751e-22)
(-0.202517 -0.00118513 2.12593e-21)
(-0.197747 -0.00128804 -3.22188e-22)
(-0.192577 -0.00139167 -3.38066e-22)
(-0.187008 -0.00149601 3.94181e-22)
(-0.181046 -0.00160089 -1.62968e-21)
(-0.174693 -0.00170631 1.23453e-21)
(-0.167959 -0.00181053 8.59907e-23)
(-0.160854 -0.00191461 -3.558e-22)
(-0.153386 -0.0020178 -1.50421e-21)
(-0.145566 -0.00211966 1.26059e-21)
(-0.137405 -0.00221965 6.75638e-22)
(-0.128918 -0.00231707 -1.20475e-21)
(-0.120116 -0.002412 -3.17963e-23)
(-0.111018 -0.00250125 -3.95014e-22)
(-0.101645 -0.00258641 1.06719e-21)
(-0.0920105 -0.00266637 -6.90231e-22)
(-0.0821367 -0.00274041 1.91317e-22)
(-0.0720395 -0.0028087 -3.61957e-22)
(-0.0617409 -0.00286895 -9.018e-23)
(-0.051264 -0.00292214 2.12316e-22)
(-0.0406276 -0.00296769 -9.92428e-23)
(-0.0298525 -0.00300538 5.03316e-23)
(-0.0189601 -0.00303476 -9.61505e-23)
(-0.00797036 -0.00305638 9.78316e-23)
(0.00309709 -0.00306964 -4.1481e-23)
(0.0142219 -0.00307513 -1.1985e-22)
(0.0253859 -0.00307306 9.60441e-24)
(0.0365713 -0.00306376 -3.21678e-22)
(0.047761 -0.00304768 3.15008e-22)
(0.0589391 -0.00302534 -1.0301e-22)
(0.0700906 -0.00299731 -1.72991e-22)
(0.0812019 -0.00296421 1.03925e-22)
(0.0922602 -0.00292671 -1.00616e-22)
(0.103254 -0.00288549 -1.09215e-23)
(0.114173 -0.00284124 -6.81738e-23)
(0.125008 -0.00279466 2.42963e-23)
(0.135751 -0.00274644 1.79647e-23)
(0.146395 -0.00269724 -3.4734e-23)
(0.156935 -0.00264772 9.05904e-24)
(0.167366 -0.00259848 2.69239e-24)
(0.177685 -0.00255009 -8.105e-24)
(0.187889 -0.00250305 -1.91417e-23)
(0.197976 -0.0024579 1.08462e-23)
(0.207947 -0.00241497 1.7767e-23)
(0.217803 -0.00237481 -2.303e-24)
(0.227542 -0.00233748 -2.91338e-23)
(0.237174 -0.00230376 -4.6927e-24)
(0.246688 -0.00227312 2.78205e-24)
(0.256119 -0.00224715 -1.7616e-24)
(0.26541 -0.00222404 2.97917e-24)
(0.2747 -0.00220708 3.11521e-24)
(0.283715 -0.00219292 -3.99611e-24)
(0.293082 -0.00218533 -2.40995e-24)
(0.301465 -0.00218661 -1.9847e-25)
(0.311825 -0.00218211 -1.0076e-25)
(0.317828 -0.0022244 -1.95899e-25)
(0.333236 -0.00221625 7.84647e-25)
(-0.200178 0.00377569 -1.57704e-21)
(-0.204219 0.00321204 4.90688e-21)
(-0.207718 0.00269844 -4.48739e-21)
(-0.210613 0.00222486 -2.97443e-21)
(-0.212975 0.00178197 -1.77087e-21)
(-0.214817 0.00136155 2.85541e-21)
(-0.216161 0.000960819 -3.99106e-21)
(-0.217021 0.000583732 1.143e-20)
(-0.217419 0.000237508 -5.09871e-21)
(-0.217392 -0.00012215 -8.80531e-22)
(-0.216955 -0.00047077 1.80703e-21)
(-0.216104 -0.000813282 -2.67743e-21)
(-0.214843 -0.00115019 3.15272e-21)
(-0.213173 -0.00148274 -2.10986e-21)
(-0.211095 -0.0018123 -3.3435e-21)
(-0.208613 -0.0021363 -1.23437e-21)
(-0.20573 -0.00245943 4.6596e-21)
(-0.202444 -0.00278095 -1.12032e-21)
(-0.198756 -0.00310146 7.11745e-21)
(-0.194668 -0.00342104 -7.48778e-21)
(-0.19018 -0.00373964 -9.12708e-22)
(-0.185294 -0.00405708 3.97013e-21)
(-0.180013 -0.0043731 -3.84187e-22)
(-0.17434 -0.00468721 1.37772e-21)
(-0.168279 -0.00499857 -3.64523e-21)
(-0.161833 -0.00530713 4.70396e-21)
(-0.155014 -0.00560733 -3.03434e-21)
(-0.147831 -0.00590251 1.70236e-21)
(-0.140292 -0.00619064 -5.02976e-22)
(-0.132409 -0.00647064 2.0117e-21)
(-0.124194 -0.00674137 3.28846e-23)
(-0.115662 -0.00700128 -1.1327e-21)
(-0.106822 -0.00725125 -1.39345e-21)
(-0.0976948 -0.00748281 3.4674e-21)
(-0.0883015 -0.00770132 -1.84631e-21)
(-0.0786567 -0.00790425 1.1e-22)
(-0.0687815 -0.00809036 5.33505e-22)
(-0.0586917 -0.00826156 -1.53549e-21)
(-0.0484091 -0.00841081 1.5502e-21)
(-0.0379574 -0.00854236 -8.05275e-22)
(-0.0273549 -0.0086552 -1.73101e-22)
(-0.0166219 -0.00874925 8.23546e-22)
(-0.00578001 -0.00882367 5.20148e-22)
(0.00515143 -0.00887913 -1.43636e-21)
(0.0161532 -0.00891634 1.04588e-21)
(0.027205 -0.00893569 -1.00948e-21)
(0.0382894 -0.0089379 1.93979e-21)
(0.0493887 -0.00892383 -9.24777e-22)
(0.0604866 -0.00889448 -6.16021e-22)
(0.0715675 -0.00885095 6.50654e-22)
(0.082617 -0.00879443 -2.29441e-22)
(0.0936217 -0.00872616 1.00033e-22)
(0.104569 -0.00864744 -5.53841e-24)
(0.115449 -0.00855959 -4.961e-23)
(0.126251 -0.00846394 4.76738e-22)
(0.136966 -0.00836182 -1.67668e-22)
(0.147588 -0.00825455 1.44007e-22)
(0.158109 -0.00814338 -7.47418e-23)
(0.168524 -0.00802957 -2.2685e-22)
(0.178828 -0.00791426 -1.02305e-22)
(0.18902 -0.00779863 2.01615e-22)
(0.199097 -0.00768365 -5.07713e-23)
(0.209057 -0.00757049 -1.23372e-23)
(0.2189 -0.00745978 8.49756e-23)
(0.228629 -0.00735294 4.05365e-24)
(0.238242 -0.00724988 8.00284e-24)
(0.247748 -0.00715292 1.40197e-23)
(0.257137 -0.00706037 -2.29818e-23)
(0.266445 -0.00697697 3.74984e-23)
(0.275611 -0.00689757 1.64263e-23)
(0.284783 -0.00683164 -3.55267e-23)
(0.29367 -0.00677018 6.71263e-24)
(0.302928 -0.00672278 1.54927e-23)
(0.311175 -0.00669923 -1.98201e-24)
(0.321436 -0.00665034 7.12394e-26)
(0.327313 -0.00674061 3.85811e-25)
(0.342538 -0.00665893 -1.5423e-24)
(-0.182139 0.00608342 8.7686e-21)
(-0.185726 0.0051582 -1.70025e-20)
(-0.188802 0.00431591 1.26228e-20)
(-0.191302 0.00353755 -9.1028e-22)
(-0.193287 0.00280817 -9.15226e-21)
(-0.19477 0.00211467 1.13306e-20)
(-0.195766 0.00145388 3.69941e-22)
(-0.196284 0.000830694 4.63493e-21)
(-0.196362 0.000245354 -4.22016e-21)
(-0.196031 -0.000353413 -2.36078e-21)
(-0.195286 -0.000935028 1.21298e-20)
(-0.194135 -0.0015065 -1.63557e-20)
(-0.192581 -0.00206946 1.10905e-20)
(-0.190625 -0.0026258 2.2486e-21)
(-0.188266 -0.00317813 -1.68231e-20)
(-0.185512 -0.00372038 1.04185e-20)
(-0.182363 -0.00426145 -9.83959e-22)
(-0.17882 -0.00479953 -2.21701e-21)
(-0.174883 -0.00533537 -5.25549e-22)
(-0.170555 -0.00586882 -6.2647e-21)
(-0.165837 -0.00639957 2.9474e-21)
(-0.160731 -0.00692711 -1.96195e-21)
(-0.155241 -0.00745077 5.53976e-21)
(-0.14937 -0.00796971 -2.24134e-21)
(-0.143125 -0.00848235 4.65998e-21)
(-0.136507 -0.00898909 -4.13129e-21)
(-0.129527 -0.00947944 4.00372e-21)
(-0.1222 -0.00995988 -5.67193e-21)
(-0.114531 -0.0104269 -3.14295e-21)
(-0.106533 -0.0108789 3.98333e-21)
(-0.0982185 -0.0113138 1.58229e-21)
(-0.0896045 -0.0117292 -2.68484e-21)
(-0.0806981 -0.0121292 -1.03935e-21)
(-0.071521 -0.0124959 4.21146e-21)
(-0.0620954 -0.0128409 -2.87859e-21)
(-0.0524351 -0.01316 8.56936e-22)
(-0.0425629 -0.0134512 -3.64314e-21)
(-0.0324922 -0.0137199 3.3041e-21)
(-0.0222446 -0.0139515 -2.2098e-21)
(-0.0118457 -0.014155 1.76535e-21)
(-0.0013124 -0.014329 -9.95429e-22)
(0.00933572 -0.0144727 -3.09532e-22)
(0.0200779 -0.0145868 -4.67248e-22)
(0.0308943 -0.0146706 -1.52506e-21)
(0.0417666 -0.0147267 2.44985e-21)
(0.0526759 -0.014755 2.23373e-22)
(0.0636048 -0.0147568 -8.6602e-22)
(0.0745368 -0.0147336 5.16204e-22)
(0.0854562 -0.014687 -1.1714e-22)
(0.0963483 -0.0146186 2.23422e-22)
(0.107199 -0.0145303 3.60112e-23)
(0.117997 -0.0144238 -2.24531e-23)
(0.12873 -0.0143012 -1.29641e-21)
(0.139389 -0.0141643 3.48584e-22)
(0.149963 -0.0140152 -2.09908e-22)
(0.160445 -0.0138558 3.74998e-22)
(0.170829 -0.0136879 -3.73895e-22)
(0.181109 -0.0135136 1.35117e-23)
(0.191279 -0.0133345 -2.93574e-22)
(0.201337 -0.0131524 4.51205e-22)
(0.21128 -0.012969 -7.94267e-23)
(0.221107 -0.0127858 -1.88539e-23)
(0.230817 -0.0126046 -1.50407e-23)
(0.240409 -0.0124261 4.28191e-23)
(0.249888 -0.0122528 2.9451e-23)
(0.25925 -0.0120844 7.35049e-23)
(0.268508 -0.0119247 -3.96213e-23)
(0.277648 -0.0117708 -3.96821e-23)
(0.286713 -0.0116306 5.45474e-23)
(0.29563 -0.0114959 -8.59138e-24)
(0.304569 -0.0113812 3.39703e-23)
(0.3132 -0.0112742 -8.25941e-24)
(0.322244 -0.0111859 3.23859e-24)
(0.33022 -0.0111401 1.25091e-24)
(0.340281 -0.0110456 -3.72043e-24)
(0.345915 -0.0111765 2.7115e-24)
(0.360775 -0.0110345 2.54191e-25)
(-0.155181 0.00807554 1.00059e-20)
(-0.158133 0.00680867 -1.52601e-20)
(-0.160612 0.00565539 1.72019e-20)
(-0.162557 0.00458678 -2.0741e-21)
(-0.164015 0.00358266 5.46985e-21)
(-0.164994 0.0026241 5.56864e-21)
(-0.165503 0.0017044 -1.09866e-20)
(-0.16555 0.0008305 5.24235e-21)
(-0.165186 1.08227e-05 -1.07533e-20)
(-0.164425 -0.000810603 -5.38323e-22)
(-0.163253 -0.00161748 2.39882e-20)
(-0.161686 -0.00241189 -2.05506e-20)
(-0.159724 -0.00319551 -2.66239e-21)
(-0.157373 -0.00397043 1.32546e-20)
(-0.154626 -0.00474125 -9.03783e-22)
(-0.151493 -0.00549581 -3.4521e-21)
(-0.147979 -0.00624922 1.98422e-21)
(-0.144081 -0.00699811 2.51109e-21)
(-0.139803 -0.00774323 2.05021e-21)
(-0.135145 -0.00848419 -7.12666e-22)
(-0.130111 -0.00922037 -8.27719e-21)
(-0.124704 -0.00995086 4.73128e-21)
(-0.118928 -0.0106746 5.4809e-21)
(-0.112789 -0.0113903 4.64372e-21)
(-0.106294 -0.0120955 -1.40512e-20)
(-0.0994431 -0.0127935 1.09717e-20)
(-0.0922497 -0.0134646 -5.36574e-21)
(-0.084729 -0.014121 3.10934e-21)
(-0.076888 -0.0147575 -6.04209e-21)
(-0.0687398 -0.0153714 6.9927e-21)
(-0.0602972 -0.0159599 -1.93164e-21)
(-0.0515812 -0.0165199 1.17435e-21)
(-0.0425943 -0.0170629 2.4651e-21)
(-0.0333578 -0.0175537 2.16167e-21)
(-0.0238995 -0.0180145 -1.58608e-21)
(-0.0142297 -0.0184399 5.92418e-23)
(-0.00437468 -0.0188286 9.7575e-22)
(0.00565567 -0.0191765 -3.51508e-21)
(0.0158421 -0.0194833 -4.88107e-22)
(0.0261542 -0.0197499 2.7594e-21)
(0.0365782 -0.0199755 -1.65561e-21)
(0.0470944 -0.0201596 2.95372e-21)
(0.0576834 -0.0203042 1.03336e-21)
(0.0683259 -0.0204087 -2.32022e-21)
(0.0790045 -0.0204751 1.69351e-21)
(0.0897012 -0.0205046 -3.24835e-22)
(0.1004 -0.0204988 1.02885e-21)
(0.111085 -0.0204598 -5.33595e-22)
(0.121742 -0.0203896 -2.4142e-22)
(0.132357 -0.0202905 -1.33805e-22)
(0.142918 -0.020165 2.62414e-22)
(0.153414 -0.0200156 9.01906e-22)
(0.163834 -0.0198447 -1.26269e-21)
(0.174169 -0.0196551 6.99813e-22)
(0.184412 -0.0194491 3.12163e-22)
(0.194556 -0.0192295 1.85247e-22)
(0.204594 -0.0189987 -2.08842e-22)
(0.214523 -0.0187591 7.11534e-22)
(0.224339 -0.0185132 -3.1558e-22)
(0.234038 -0.018263 -3.86407e-22)
(0.24362 -0.018011 4.53551e-23)
(0.253084 -0.017759 4.61639e-22)
(0.26243 -0.0175094 1.30009e-22)
(0.271657 -0.0172632 -2.27042e-22)
(0.280772 -0.0170237 1.40723e-23)
(0.28977 -0.0167905 -2.23049e-23)
(0.298668 -0.0165686 -2.08953e-24)
(0.307445 -0.0163545 5.50806e-23)
(0.316156 -0.0161581 -1.03257e-22)
(0.324709 -0.0159699 6.7671e-23)
(0.333309 -0.0158066 -1.67604e-23)
(0.341569 -0.0156571 -1.28875e-23)
(0.350298 -0.0155264 -6.65575e-24)
(0.357885 -0.0154618 -9.74345e-24)
(0.367647 -0.0153208 5.28126e-24)
(0.372938 -0.0154814 -1.66298e-24)
(0.387261 -0.0152979 -2.01253e-24)
(-0.119346 0.00965828 1.62359e-21)
(-0.121532 0.00807993 -1.34898e-20)
(-0.123292 0.00663942 2.44393e-20)
(-0.124569 0.00530045 -2.4997e-20)
(-0.125397 0.00403821 2.48969e-20)
(-0.125777 0.00283014 -9.61801e-21)
(-0.125709 0.00167844 -3.08837e-21)
(-0.125186 0.000611979 -2.82171e-20)
(-0.124287 -0.000488327 4.35752e-20)
(-0.123015 -0.0015434 -4.22323e-20)
(-0.121341 -0.0025723 3.10593e-20)
(-0.11928 -0.00358333 -6.13903e-21)
(-0.116837 -0.00458082 6.44559e-23)
(-0.114018 -0.00556677 -4.71179e-21)
(-0.110812 -0.0065506 -1.33467e-21)
(-0.107233 -0.00750949 1.01563e-20)
(-0.103288 -0.00846798 -4.99254e-21)
(-0.0989734 -0.00942013 -3.02131e-21)
(-0.0942928 -0.0103665 -4.59149e-21)
(-0.0892491 -0.0113066 -7.14476e-21)
(-0.0838463 -0.0122393 1.17506e-20)
(-0.078089 -0.0131632 -1.38716e-20)
(-0.0719826 -0.0140768 8.98939e-21)
(-0.0655329 -0.0149779 2.59713e-21)
(-0.0587535 -0.0158638 -8.73489e-21)
(-0.0516385 -0.0167467 7.98895e-21)
(-0.0442025 -0.0175863 -5.72976e-21)
(-0.0364668 -0.0184058 5.10078e-21)
(-0.0284368 -0.0191994 -4.21106e-21)
(-0.0201264 -0.019963 -5.88045e-21)
(-0.0115484 -0.0206936 -6.85536e-21)
(-0.0027318 -0.0213909 1.13163e-20)
(0.00632846 -0.0220447 9.99016e-22)
(0.0156164 -0.0226527 1.16121e-21)
(0.0250904 -0.023218 -6.85351e-21)
(0.0347463 -0.0237369 2.30751e-22)
(0.0445607 -0.0242095 4.25381e-21)
(0.0545176 -0.0246237 -6.36648e-21)
(0.0646001 -0.024993 3.86799e-21)
(0.0747825 -0.0253099 -2.52929e-21)
(0.0850486 -0.0255749 -2.16634e-21)
(0.0953794 -0.0257883 -1.92794e-21)
(0.105757 -0.0259517 4.64536e-21)
(0.116163 -0.0260656 -1.28852e-21)
(0.12658 -0.0261321 -1.59315e-21)
(0.136994 -0.0261528 1.02266e-21)
(0.147387 -0.0261302 -3.646e-23)
(0.157747 -0.0260666 -1.51474e-21)
(0.168061 -0.0259649 2.29333e-21)
(0.178315 -0.0258278 -2.47986e-21)
(0.188499 -0.0256584 -3.08347e-22)
(0.198603 -0.0254599 1.51841e-21)
(0.208619 -0.0252354 -1.82315e-21)
(0.218538 -0.024988 9.86927e-22)
(0.228355 -0.0247211 7.34183e-22)
(0.238063 -0.0244376 -1.36518e-21)
(0.247659 -0.0241407 2.58952e-22)
(0.257138 -0.0238333 -3.67326e-22)
(0.2665 -0.0235185 -2.57585e-22)
(0.275741 -0.0231987 3.7264e-22)
(0.284861 -0.022877 -2.47203e-22)
(0.293861 -0.0225554 -1.76394e-22)
(0.302742 -0.0222371 1.899e-22)
(0.311504 -0.0219234 1.00617e-22)
(0.320155 -0.021618 -1.336e-22)
(0.328688 -0.0213207 -1.62322e-22)
(0.337127 -0.0210375 -5.09194e-23)
(0.345441 -0.0207646 4.59854e-23)
(0.353701 -0.0205129 4.05864e-23)
(0.361791 -0.0202735 -7.12864e-23)
(0.369957 -0.0200618 -1.96414e-23)
(0.377744 -0.0198735 2.93027e-23)
(0.386069 -0.0196989 -2.18498e-23)
(0.393165 -0.0196192 -6.27282e-24)
(0.402534 -0.0194325 -7.71034e-24)
(0.407406 -0.0196093 -1.6044e-24)
(0.421034 -0.0194046 3.46215e-24)
(-0.0759303 0.00892334 2.87017e-20)
(-0.0769182 0.00722448 -3.47152e-20)
(-0.0774831 0.00563888 4.45693e-21)
(-0.0776375 0.00413753 1.54446e-20)
(-0.0773704 0.00269309 -1.57094e-20)
(-0.0766613 0.00131115 -2.46768e-20)
(-0.0755807 2.30868e-05 1.72049e-20)
(-0.0741484 -0.00131377 2.18801e-20)
(-0.072307 -0.0025853 -4.99321e-21)
(-0.0700913 -0.00382601 2.15028e-20)
(-0.0675062 -0.0050447 -3.02296e-20)
(-0.0645523 -0.00624641 -1.09214e-20)
(-0.0612408 -0.0074331 2.87713e-20)
(-0.0575539 -0.00863289 -7.75268e-21)
(-0.0535043 -0.0097853 7.3758e-21)
(-0.0491073 -0.010939 -3.04273e-20)
(-0.0443555 -0.012085 3.07314e-20)
(-0.0392551 -0.0132232 -2.25113e-20)
(-0.03381 -0.0143524 2.37988e-21)
(-0.0280253 -0.0154712 2.29778e-20)
(-0.0219069 -0.016578 -1.14949e-20)
(-0.0154616 -0.0176707 1.8845e-21)
(-0.00869587 -0.0187468 2.04024e-21)
(-0.00163308 -0.0198072 -1.51113e-20)
(0.00574063 -0.0208392 3.96199e-21)
(0.0134172 -0.0218389 2.69422e-21)
(0.0213581 -0.0228102 2.13338e-21)
(0.0295634 -0.0237475 4.66368e-21)
(0.0380181 -0.0246466 -8.16139e-22)
(0.0467076 -0.0255043 4.56491e-21)
(0.0556095 -0.0263224 -2.30087e-21)
(0.0647137 -0.0270718 2.57396e-21)
(0.0740092 -0.0277822 -7.56282e-21)
(0.0834636 -0.0284359 8.01264e-21)
(0.0930648 -0.0290319 -6.23794e-21)
(0.102792 -0.0295701 6.50403e-21)
(0.112627 -0.0300432 1.4878e-21)
(0.122553 -0.0304574 6.11151e-21)
(0.132549 -0.0308093 -7.83955e-21)
(0.142597 -0.0310994 -5.5255e-22)
(0.152679 -0.0313282 1.5511e-21)
(0.162779 -0.0314973 3.31004e-21)
(0.172879 -0.031608 5.79072e-21)
(0.182965 -0.0316627 -2.3505e-22)
(0.193021 -0.0316636 -5.63453e-21)
(0.203034 -0.0316136 3.15834e-21)
(0.212991 -0.0315158 2.1098e-21)
(0.222881 -0.0313734 -2.26173e-21)
(0.232693 -0.03119 -1.53967e-23)
(0.242418 -0.0309693 6.39831e-23)
(0.252047 -0.0307149 1.50189e-21)
(0.261574 -0.0304306 1.60088e-22)
(0.270992 -0.0301202 -8.35938e-22)
(0.280297 -0.0297875 4.72542e-22)
(0.289484 -0.0294362 2.62622e-22)
(0.29855 -0.0290699 -1.03418e-22)
(0.307494 -0.028692 1.06586e-21)
(0.316314 -0.028306 3.31408e-22)
(0.32501 -0.0279151 -4.91219e-22)
(0.333583 -0.0275225 -3.14776e-22)
(0.342032 -0.0271309 5.85612e-22)
(0.350363 -0.0267437 -3.20077e-23)
(0.358574 -0.0263626 -1.94737e-23)
(0.366676 -0.0259919 2.99071e-22)
(0.37466 -0.0256315 5.34512e-23)
(0.382555 -0.025288 2.73343e-23)
(0.390321 -0.0249581 1.47364e-22)
(0.39805 -0.0246523 1.79501e-23)
(0.405592 -0.0243645 1.40077e-22)
(0.413246 -0.0241047 4.26472e-24)
(0.420475 -0.023882 1.72947e-23)
(0.428319 -0.0236623 -4.77041e-24)
(0.434845 -0.0235704 4.7484e-23)
(0.443729 -0.023341 5.88115e-24)
(0.448134 -0.0235201 3.55977e-24)
(0.460926 -0.0233122 -4.37229e-24)
(-0.0211684 0.00933844 -2.4584e-20)
(-0.0214333 0.00741263 3.09261e-20)
(-0.0213308 0.00560568 -2.06414e-20)
(-0.0208585 0.00388564 -5.01049e-21)
(-0.019996 0.00222243 1.58754e-20)
(-0.0187027 0.000635608 2.14075e-20)
(-0.0170673 -0.000940072 -2.35832e-20)
(-0.0151012 -0.0024586 -2.28142e-20)
(-0.0127462 -0.00393122 4.54915e-20)
(-0.0100274 -0.00537493 -4.22507e-20)
(-0.00694923 -0.00679444 3.69929e-21)
(-0.00351263 -0.00819448 3.68349e-20)
(0.000255849 -0.00958533 -1.91779e-21)
(0.00439127 -0.0109544 -2.56224e-20)
(0.0088908 -0.0123032 -5.93481e-21)
(0.0137102 -0.0136461 3.50966e-21)
(0.0188693 -0.014978 1.38677e-20)
(0.0243596 -0.0162985 -3.17778e-20)
(0.0301754 -0.0176066 3.02357e-20)
(0.0363102 -0.0189006 -2.19606e-20)
(0.0427564 -0.0201784 -5.67372e-21)
(0.0495054 -0.0214375 1.73283e-20)
(0.0565487 -0.0226755 -8.12123e-25)
(0.0638693 -0.0238946 2.23721e-20)
(0.0714626 -0.0250615 -1.72011e-20)
(0.079325 -0.0262075 -1.16485e-20)
(0.087428 -0.0273149 2.57742e-20)
(0.0957624 -0.0283795 -1.4841e-20)
(0.104312 -0.0293971 -2.9481e-21)
(0.113062 -0.0303636 -1.15775e-20)
(0.121992 -0.031279 1.7583e-21)
(0.131085 -0.0321256 -8.02139e-22)
(0.140331 -0.032915 -2.92542e-21)
(0.149703 -0.0336385 4.86687e-21)
(0.159185 -0.0342943 5.43933e-22)
(0.168758 -0.0348816 -9.86584e-22)
(0.178403 -0.0353956 4.35279e-21)
(0.188104 -0.035839 -6.04927e-21)
(0.197841 -0.0362105 6.4847e-21)
(0.207598 -0.0365106 -9.21586e-21)
(0.217357 -0.0367403 5.72191e-21)
(0.227103 -0.0369014 -6.0222e-21)
(0.236821 -0.0369958 2.40163e-21)
(0.246497 -0.0370262 3.50298e-22)
(0.256118 -0.0369956 9.80144e-22)
(0.265671 -0.0369074 1.7279e-21)
(0.275147 -0.0367652 -3.95032e-21)
(0.284534 -0.036573 -1.81383e-21)
(0.293825 -0.0363349 4.84217e-21)
(0.303012 -0.0360551 -2.92196e-22)
(0.312088 -0.035738 -2.33547e-23)
(0.321048 -0.0353879 -2.40032e-21)
(0.329887 -0.0350092 -1.31207e-22)
(0.338603 -0.0346063 -1.30883e-21)
(0.347192 -0.0341833 1.30639e-21)
(0.355654 -0.0337444 6.26409e-23)
(0.363986 -0.0332935 -1.25193e-21)
(0.372191 -0.0328346 1.16142e-21)
(0.380268 -0.0323711 -1.00994e-21)
(0.388221 -0.0319069 1.57145e-22)
(0.396048 -0.0314449 2.68401e-23)
(0.403758 -0.0309889 -4.53691e-22)
(0.411347 -0.0305411 6.96157e-22)
(0.418832 -0.030106 -2.41517e-24)
(0.426197 -0.029684 -1.01924e-22)
(0.433482 -0.0292816 -1.7241e-22)
(0.440633 -0.028897 -3.78373e-23)
(0.447765 -0.0285383 -6.89608e-24)
(0.454691 -0.0282055 -9.8298e-24)
(0.461771 -0.0278981 -7.64802e-24)
(0.468377 -0.0276451 -5.99512e-23)
(0.475673 -0.0273808 -3.38801e-24)
(0.481574 -0.027278 -1.9226e-24)
(0.48989 -0.0270114 1.87231e-24)
(0.493803 -0.0271794 -6.90765e-24)
(0.505641 -0.0269821 2.29483e-24)
(0.0431314 0.00938167 3.49351e-20)
(0.0434059 0.0072629 -3.70233e-20)
(0.0440126 0.00525781 3.24189e-20)
(0.0449626 0.00333787 -3.87179e-20)
(0.046299 0.0014746 2.22635e-20)
(0.048027 -0.000302994 3.29908e-20)
(0.0500717 -0.00211818 -4.76596e-20)
(0.0524694 -0.00385146 5.62759e-20)
(0.0552391 -0.00552924 -4.1942e-20)
(0.0583628 -0.00717045 -1.81776e-20)
(0.0618365 -0.00878407 5.08175e-21)
(0.0656581 -0.0103757 3.69832e-20)
(0.0698143 -0.0119597 -3.66568e-20)
(0.0743104 -0.0134906 3.53127e-20)
(0.0791535 -0.0150304 -1.91974e-21)
(0.0843164 -0.0165531 5.09496e-21)
(0.089802 -0.018061 -1.3815e-20)
(0.0956021 -0.0195536 1.0258e-20)
(0.101709 -0.0210295 -1.35425e-21)
(0.108115 -0.0224867 -9.2027e-21)
(0.11481 -0.0239226 1.98085e-20)
(0.121785 -0.0253343 -1.95238e-20)
(0.129027 -0.0267181 2.02229e-20)
(0.136523 -0.0280743 -2.26054e-21)
(0.144259 -0.029383 -1.74892e-20)
(0.15223 -0.0306544 -1.00457e-20)
(0.160413 -0.0318794 1.28312e-20)
(0.168794 -0.0330536 -1.17731e-20)
(0.177356 -0.0341723 -1.34979e-20)
(0.186082 -0.0352305 3.08853e-20)
(0.194953 -0.0362268 -1.34859e-20)
(0.203951 -0.0371488 -7.39026e-21)
(0.213063 -0.0380007 -5.69207e-21)
(0.222265 -0.0387771 2.52663e-20)
(0.231541 -0.0394757 -1.49467e-20)
(0.240871 -0.0400954 -1.60034e-21)
(0.250238 -0.040633 6.78333e-21)
(0.259626 -0.0410897 4.75385e-21)
(0.269016 -0.0414653 -7.98034e-21)
(0.278393 -0.0417605 1.78082e-21)
(0.287742 -0.0419767 -5.71806e-21)
(0.297048 -0.0421162 7.63048e-21)
(0.306298 -0.0421814 -4.05356e-21)
(0.315479 -0.0421755 8.81965e-23)
(0.324581 -0.0421022 4.37008e-21)
(0.333592 -0.0419653 -6.94068e-21)
(0.342505 -0.0417693 4.58172e-21)
(0.351311 -0.0415185 -5.19129e-21)
(0.360003 -0.0412178 5.36197e-21)
(0.368575 -0.040872 -2.87752e-21)
(0.377023 -0.040486 -1.55643e-21)
(0.385343 -0.0400648 -6.45133e-22)
(0.393533 -0.0396133 1.20207e-21)
(0.40159 -0.0391363 -5.1539e-22)
(0.409514 -0.0386385 6.67223e-22)
(0.417305 -0.0381245 1.39746e-21)
(0.424963 -0.0375988 -6.37225e-22)
(0.43249 -0.0370657 -1.2139e-22)
(0.439887 -0.0365291 -3.11355e-22)
(0.44716 -0.035993 -7.07762e-22)
(0.454307 -0.035461 8.22743e-22)
(0.46134 -0.034937 -5.15857e-22)
(0.468252 -0.0344238 -8.33559e-22)
(0.475066 -0.0339256 2.46276e-22)
(0.481759 -0.0334441 8.08667e-23)
(0.488383 -0.0329844 -1.84357e-22)
(0.494867 -0.032548 2.9136e-23)
(0.501354 -0.032138 -3.72621e-23)
(0.507615 -0.031764 -1.62659e-22)
(0.514072 -0.0314102 7.30814e-23)
(0.520009 -0.0311307 -9.56522e-23)
(0.526703 -0.0308234 -2.69698e-23)
(0.531949 -0.0307096 -3.92666e-24)
(0.539622 -0.0304131 -1.13291e-23)
(0.54304 -0.0305593 1.05028e-24)
(0.55383 -0.0303808 3.61477e-24)
(0.117563 0.00919581 -8.897e-20)
(0.11802 0.00690832 -1.6462e-20)
(0.118816 0.00471918 5.83548e-20)
(0.119956 0.00260867 -1.43907e-20)
(0.121502 0.000545711 3.5437e-20)
(0.123424 -0.00148014 -2.82473e-20)
(0.125672 -0.00348948 1.68292e-21)
(0.1283 -0.0054173 2.11786e-20)
(0.131293 -0.00729032 -6.18181e-21)
(0.134641 -0.00912371 -2.49032e-20)
(0.138339 -0.0109257 2.75394e-20)
(0.142384 -0.0127015 1.07009e-21)
(0.146764 -0.0144626 -7.91176e-21)
(0.151476 -0.0161872 7.59249e-22)
(0.156525 -0.0178993 3.25671e-20)
(0.161889 -0.019592 -1.84284e-20)
(0.167565 -0.0212664 -2.48083e-20)
(0.173542 -0.0229213 -1.47265e-23)
(0.179812 -0.0245546 3.23623e-20)
(0.186362 -0.0261638 -2.07044e-20)
(0.193182 -0.0277461 1.83717e-20)
(0.200259 -0.029298 -2.65046e-20)
(0.20758 -0.0308149 7.90775e-22)
(0.21513 -0.0322956 3.34045e-20)
(0.222891 -0.0337259 -2.05558e-20)
(0.230855 -0.0351081 -2.01111e-21)
(0.239001 -0.0364357 2.89091e-21)
(0.247313 -0.0377036 1.04932e-20)
(0.255772 -0.0389068 -2.54068e-20)
(0.26436 -0.04004 6.86415e-23)
(0.273058 -0.0411007 -9.45929e-22)
(0.281848 -0.0420796 1.55389e-20)
(0.290714 -0.0429772 1.42963e-20)
(0.299635 -0.0437897 -6.74868e-21)
(0.308594 -0.0445145 7.82355e-21)
(0.317572 -0.0451505 -1.54719e-20)
(0.326554 -0.0456956 5.05568e-21)
(0.335522 -0.0461504 -1.12109e-20)
(0.344462 -0.0465153 1.26848e-20)
(0.353358 -0.0467916 -3.87289e-22)
(0.362197 -0.046981 -7.15792e-21)
(0.370965 -0.0470863 2.39224e-21)
(0.379652 -0.0471106 -1.40345e-21)
(0.388247 -0.0470577 3.54375e-21)
(0.396741 -0.0469316 2.11122e-21)
(0.405124 -0.0467371 -7.2294e-21)
(0.413391 -0.046479 5.29732e-21)
(0.421534 -0.0461624 -8.76617e-22)
(0.42955 -0.0457926 -4.93279e-23)
(0.437434 -0.0453752 -2.03128e-21)
(0.445183 -0.0449155 -1.02758e-21)
(0.452795 -0.0444191 2.03786e-21)
(0.46027 -0.0438915 1.26035e-21)
(0.467607 -0.0433378 -1.26034e-21)
(0.474806 -0.0427633 6.93127e-22)
(0.481869 -0.0421731 -2.50363e-22)
(0.488798 -0.0415719 -2.09291e-21)
(0.495596 -0.0409644 1.42557e-21)
(0.502265 -0.040355 7.26865e-22)
(0.508811 -0.039748 -2.0043e-22)
(0.515234 -0.0391473 2.64041e-22)
(0.521547 -0.0385569 6.20701e-22)
(0.527742 -0.0379803 -3.04781e-22)
(0.533845 -0.037421 -4.94409e-22)
(0.539828 -0.0368829 4.46994e-22)
(0.545756 -0.036368 2.15581e-24)
(0.551538 -0.0358834 2.55488e-22)
(0.557346 -0.0354242 -1.27369e-22)
(0.56291 -0.0350129 1.33972e-22)
(0.568707 -0.0346146 1.07351e-22)
(0.573952 -0.0343118 -3.24323e-23)
(0.58 -0.0339652 1.922e-23)
(0.584581 -0.0338387 3.3493e-23)
(0.591547 -0.0335208 -2.21932e-24)
(0.594482 -0.0336372 1.48247e-23)
(0.60416 -0.0334812 -7.41012e-25)
(0.202799 0.00903137 -4.19288e-21)
(0.202893 0.00656935 -8.60497e-20)
(0.203394 0.00419046 6.34109e-20)
(0.204292 0.00188332 3.95057e-20)
(0.20564 -0.000379292 -4.37348e-20)
(0.207405 -0.00266422 -1.79962e-20)
(0.209548 -0.00487357 -4.49075e-20)
(0.212099 -0.00700699 8.99341e-20)
(0.215038 -0.00908143 -1.71843e-20)
(0.218351 -0.0111105 -2.71933e-20)
(0.222029 -0.0131031 1.13233e-20)
(0.226064 -0.0150649 -3.01879e-23)
(0.230447 -0.0170051 -1.34693e-20)
(0.235165 -0.0189106 1.44906e-20)
(0.240219 -0.0207945 4.82688e-22)
(0.245591 -0.0226545 -1.39592e-20)
(0.25127 -0.0244907 2.20763e-20)
(0.257244 -0.0263015 -1.78515e-20)
(0.2635 -0.0280846 -1.85927e-20)
(0.270024 -0.0298373 3.22231e-20)
(0.276802 -0.0315562 -9.14238e-21)
(0.28382 -0.0332374 2.10008e-20)
(0.29106 -0.034876 -3.53606e-20)
(0.298506 -0.0364692 2.34258e-20)
(0.30614 -0.0380062 1.0773e-20)
(0.313947 -0.0394854 -2.01451e-20)
(0.321908 -0.040901 9.65301e-21)
(0.330003 -0.0422474 -3.19747e-21)
(0.338214 -0.0435196 -2.09402e-20)
(0.346522 -0.0447121 1.38996e-21)
(0.354908 -0.0458216 1.54378e-20)
(0.363352 -0.046841 -3.84284e-21)
(0.371837 -0.0477687 -7.00257e-22)
(0.380345 -0.0486016 -4.84788e-21)
(0.388857 -0.0493374 2.56098e-20)
(0.397357 -0.0499751 -1.5267e-20)
(0.40583 -0.0505132 1.06349e-21)
(0.414259 -0.0509525 1.16499e-20)
(0.422631 -0.0512938 -6.53991e-21)
(0.430933 -0.0515389 8.23463e-21)
(0.439152 -0.0516901 -1.03899e-20)
(0.447278 -0.0517507 3.44254e-21)
(0.4553 -0.0517244 -5.44698e-21)
(0.463212 -0.0516156 5.76351e-21)
(0.471004 -0.0514289 2.05929e-21)
(0.478671 -0.0511697 -7.3283e-23)
(0.486207 -0.0508433 -4.74417e-21)
(0.493609 -0.0504556 1.22567e-21)
(0.500873 -0.0500124 -1.31697e-21)
(0.507998 -0.0495197 1.39445e-21)
(0.514981 -0.0489835 2.97212e-21)
(0.521823 -0.0484098 -2.36011e-21)
(0.528524 -0.0478045 2.37714e-21)
(0.535086 -0.0471734 -1.59816e-21)
(0.54151 -0.0465221 -4.36418e-22)
(0.547799 -0.0458559 1.42625e-21)
(0.553955 -0.0451801 2.12181e-21)
(0.559983 -0.0444996 4.35909e-22)
(0.565886 -0.0438193 -2.16641e-21)
(0.571671 -0.0431433 4.06131e-22)
(0.577338 -0.0424765 5.51342e-23)
(0.5829 -0.0418222 -2.78001e-22)
(0.58835 -0.0411853 -2.90621e-23)
(0.593718 -0.040568 9.53965e-22)
(0.598968 -0.0399768 -7.45963e-23)
(0.604177 -0.03941 -3.60734e-22)
(0.609238 -0.0388811 3.44579e-22)
(0.614345 -0.0383756 -2.52783e-22)
(0.619197 -0.0379309 -1.93978e-22)
(0.624313 -0.0374915 4.27714e-23)
(0.628858 -0.0371677 8.20936e-23)
(0.634229 -0.0367869 1.83183e-23)
(0.638155 -0.0366454 2.2647e-23)
(0.644365 -0.0363144 -2.71127e-24)
(0.646842 -0.0363967 -1.23889e-25)
(0.655368 -0.036263 -1.83728e-24)
(0.29931 0.0092529 2.95247e-20)
(0.298317 0.00655931 -1.30403e-20)
(0.29788 0.00394934 5.70779e-20)
(0.297967 0.00141205 -1.37813e-21)
(0.29859 -0.00106963 -6.7605e-20)
(0.299729 -0.00360752 -4.64231e-20)
(0.301351 -0.0060595 3.97029e-20)
(0.303441 -0.00842815 -3.45195e-21)
(0.305968 -0.0107226 2.97204e-20)
(0.308912 -0.0129613 -6.03699e-20)
(0.312257 -0.0151551 2.3354e-20)
(0.315989 -0.0173111 3.90411e-21)
(0.320095 -0.0194374 1.44301e-20)
(0.324557 -0.0215265 3.09312e-20)
(0.329367 -0.0235851 -1.80736e-20)
(0.334506 -0.025613 -6.49791e-21)
(0.339958 -0.0276097 -6.06385e-21)
(0.345707 -0.0295737 3.85952e-20)
(0.351735 -0.0315025 2.25973e-21)
(0.358027 -0.033393 -6.51911e-21)
(0.364562 -0.0352414 -1.87207e-20)
(0.371324 -0.0370437 2.27277e-20)
(0.378293 -0.0387946 -3.7461e-20)
(0.38545 -0.0404905 2.69305e-20)
(0.392774 -0.0421223 -2.39212e-20)
(0.400247 -0.0436865 2.21742e-20)
(0.407848 -0.0451773 -1.71795e-20)
(0.415557 -0.0465891 2.026e-20)
(0.423354 -0.0479168 -2.58954e-20)
(0.431218 -0.0491548 1.16623e-20)
(0.439131 -0.0502995 -1.75823e-20)
(0.447073 -0.0513451 2.26427e-20)
(0.455025 -0.0522892 -1.93362e-20)
(0.462971 -0.0531291 8.63303e-21)
(0.470893 -0.0538629 4.85029e-21)
(0.478776 -0.0544898 2.63989e-21)
(0.486604 -0.055009 -1.3646e-20)
(0.494364 -0.0554215 1.23759e-21)
(0.502044 -0.0557288 1.49736e-20)
(0.509631 -0.0559331 -1.72436e-20)
(0.517116 -0.0560373 7.90443e-21)
(0.52449 -0.0560453 -9.51113e-21)
(0.531745 -0.0559614 1.19655e-20)
(0.538874 -0.0557906 -1.39136e-20)
(0.545873 -0.0555381 5.25592e-21)
(0.552736 -0.0552098 4.93728e-21)
(0.559462 -0.0548117 -6.12326e-21)
(0.566046 -0.0543502 7.27297e-21)
(0.572488 -0.0538316 -3.82507e-21)
(0.578788 -0.0532625 -1.31617e-21)
(0.584946 -0.0526494 -1.93746e-21)
(0.590963 -0.0519986 2.89928e-21)
(0.596841 -0.0513166 -1.57598e-21)
(0.602583 -0.0506094 -6.69613e-22)
(0.60819 -0.0498831 5.74967e-22)
(0.613667 -0.0491432 1.23155e-21)
(0.619018 -0.0483956 7.65813e-22)
(0.624248 -0.047645 -1.80995e-21)
(0.629358 -0.0468971 -8.12294e-22)
(0.63436 -0.0461558 1.89935e-21)
(0.639251 -0.0454267 -2.67781e-22)
(0.644047 -0.0447125 -2.74348e-22)
(0.648737 -0.0440197 4.79172e-22)
(0.653358 -0.0433483 -8.04912e-23)
(0.657866 -0.0427085 -3.70877e-22)
(0.662347 -0.0420936 2.06223e-22)
(0.66668 -0.041525 1.83842e-22)
(0.67108 -0.0409771 -2.62728e-22)
(0.67522 -0.0405031 -1.0066e-22)
(0.679645 -0.0400269 1.37867e-22)
(0.6835 -0.039684 6.81472e-25)
(0.688173 -0.0392752 -5.35989e-23)
(0.691469 -0.0391166 1.73312e-23)