/*--------------------------------*- C++ -*----------------------------------*\
  =========                 |
  \\      /  F ield         | OpenFOAM: The Open Source CFD Toolbox
   \\    /   O peration     | Website:  https://openfoam.org
    \\  /    A nd           | Version:  7
     \\/     M anipulation  |
\*---------------------------------------------------------------------------*/
FoamFile
{
    version     2.0;
    format      ascii;
    class       volScalarField;
    location    "50";
    object      p;
}
// * * * * * * * * * * * * * * * * * * * * * * * * * * * * * * * * * * * * * //

dimensions      [0 2 -2 0 0 0 0];

internalField   nonuniform List<scalar> 
3500
(
-0.192374
-0.189904
-0.187383
-0.184811
-0.182187
-0.179513
-0.176789
-0.174016
-0.171195
-0.168327
-0.165413
-0.162456
-0.159457
-0.156417
-0.15334
-0.150227
-0.147081
-0.143904
-0.140699
-0.13747
-0.13422
-0.130951
-0.127668
-0.124373
-0.12107
-0.117764
-0.114458
-0.111155
-0.107861
-0.104578
-0.10131
-0.0980604
-0.0948338
-0.0916333
-0.0884625
-0.0853248
-0.0822234
-0.0791616
-0.0761422
-0.0731682
-0.070242
-0.0673663
-0.0645434
-0.0617756
-0.059064
-0.0564115
-0.0538189
-0.0512875
-0.0488187
-0.0464135
-0.0440725
-0.0417965
-0.0395859
-0.0374409
-0.0353618
-0.0333485
-0.0314009
-0.0295188
-0.0277015
-0.0259487
-0.02426
-0.0226346
-0.0210718
-0.0195707
-0.0181305
-0.0167503
-0.0154291
-0.014166
-0.01296
-0.01181
-0.0107152
-0.00967432
-0.00868657
-0.00775094
-0.00686651
-0.00603238
-0.00524773
-0.00451177
-0.00382381
-0.00318323
-0.00258949
-0.0020422
-0.00154109
-0.00108605
-0.000677138
-0.000314937
8.42037e-07
0.00026495
0.000493167
0.000599833
0.000897269
-0.192757
-0.190291
-0.187774
-0.185205
-0.182584
-0.179913
-0.177191
-0.17442
-0.171601
-0.168734
-0.165822
-0.162866
-0.159867
-0.156827
-0.153749
-0.150635
-0.147488
-0.14431
-0.141103
-0.137872
-0.134619
-0.131347
-0.12806
-0.124762
-0.121456
-0.118146
-0.114836
-0.111529
-0.108229
-0.104941
-0.101667
-0.0984127
-0.0951805
-0.0919744
-0.0887978
-0.0856544
-0.0825474
-0.079479
-0.0764524
-0.0734727
-0.0705406
-0.0676589
-0.0648298
-0.0620557
-0.0593383
-0.0566796
-0.0540808
-0.0515434
-0.0490686
-0.0466574
-0.0443106
-0.0420288
-0.0398124
-0.0376618
-0.0355771
-0.0335582
-0.0316052
-0.0297176
-0.0278951
-0.0261372
-0.0244435
-0.0228131
-0.0212453
-0.0197395
-0.0182946
-0.0169098
-0.0155841
-0.0143166
-0.0131063
-0.0119521
-0.0108531
-0.00980828
-0.0088166
-0.00787712
-0.00698892
-0.00615111
-0.00536283
-0.00462331
-0.00393183
-0.00328775
-0.00269053
-0.00213973
-0.00163503
-0.0011763
-0.000763389
-0.000397062
-7.58772e-05
0.000192511
0.000431447
0.000536729
0.000823158
-0.19346
-0.191001
-0.18849
-0.185927
-0.183312
-0.180645
-0.177929
-0.175162
-0.172347
-0.169483
-0.166574
-0.163619
-0.160622
-0.157583
-0.154505
-0.151391
-0.148242
-0.145062
-0.141853
-0.138618
-0.135362
-0.132086
-0.128796
-0.125497
-0.122164
-0.118853
-0.115538
-0.112223
-0.108915
-0.105619
-0.102336
-0.0990722
-0.0958303
-0.092614
-0.0894271
-0.0862729
-0.0831548
-0.080076
-0.0770395
-0.0740483
-0.0711048
-0.0682118
-0.0653716
-0.0625862
-0.0598576
-0.0571877
-0.0545779
-0.0520296
-0.049544
-0.0471221
-0.0447647
-0.0424725
-0.0402458
-0.038085
-0.0359903
-0.0339616
-0.0319988
-0.0301017
-0.0282698
-0.0265028
-0.0248
-0.0231607
-0.0215843
-0.0200699
-0.0186166
-0.0172236
-0.0158899
-0.0146145
-0.0133964
-0.0122346
-0.0111281
-0.0100759
-0.00907689
-0.00813024
-0.00723494
-0.00639009
-0.00559483
-0.00484834
-0.00414987
-0.00349876
-0.00289438
-0.00233626
-0.00182393
-0.00135726
-0.000935574
-0.000560256
-0.00022725
5.05902e-05
0.000309578
0.000419994
0.000694707
-0.191895
-0.189395
-0.186842
-0.184237
-0.181579
-0.178871
-0.176111
-0.173302
-0.170445
-0.16754
-0.16459
-0.161595
-0.158559
-0.155483
-0.152369
-0.14922
-0.146039
-0.142828
-0.139591
-0.136331
-0.13305
-0.129753
-0.126443
-0.123124
-0.1198
-0.116475
-0.113151
-0.109835
-0.106528
-0.103236
-0.0999612
-0.0967084
-0.093481
-0.0902826
-0.0871167
-0.0839866
-0.0808955
-0.0778465
-0.0748426
-0.0718865
-0.0689807
-0.0661275
-0.0633292
-0.0605876
-0.0579047
-0.0552819
-0.0527206
-0.050222
-0.0477872
-0.045417
-0.0431119
-0.0408725
-0.0386991
-0.0365918
-0.0345507
-0.0325756
-0.0306663
-0.0288224
-0.0270433
-0.0253287
-0.0236777
-0.0220896
-0.0205636
-0.019099
-0.0176946
-0.0163497
-0.0150631
-0.013834
-0.0126612
-0.0115438
-0.0104807
-0.00947091
-0.00851344
-0.00760731
-0.0067516
-0.00594539
-0.00518784
-0.00447813
-0.00381555
-0.00319936
-0.00262904
-0.00210382
-0.00162373
-0.0011871
-0.00079664
-0.000444286
-0.00014998
0.000136206
0.000267314
0.000539603
-0.192849
-0.19036
-0.187818
-0.185223
-0.182576
-0.179876
-0.177126
-0.174326
-0.171476
-0.168579
-0.165635
-0.162647
-0.159616
-0.156544
-0.153434
-0.150288
-0.14711
-0.1439
-0.140664
-0.137404
-0.134123
-0.130825
-0.127513
-0.12419
-0.120862
-0.117533
-0.114205
-0.110884
-0.107572
-0.104273
-0.100992
-0.0977317
-0.0944967
-0.0912901
-0.0881156
-0.0849765
-0.0818761
-0.0788175
-0.0758035
-0.072837
-0.0699206
-0.0670565
-0.0642469
-0.061494
-0.0587993
-0.0561647
-0.0535913
-0.0510805
-0.0486333
-0.0462505
-0.0439327
-0.0416804
-0.039494
-0.0373736
-0.0353193
-0.0333309
-0.0314081
-0.0295507
-0.0277581
-0.0260297
-0.0243649
-0.022763
-0.0212232
-0.0197446
-0.0183262
-0.0169671
-0.0156664
-0.0144229
-0.0132358
-0.0121038
-0.0110261
-0.0100016
-0.00902917
-0.00810791
-0.00723681
-0.00641493
-0.00564137
-0.00491521
-0.00423568
-0.00360187
-0.00301325
-0.00246859
-0.00196827
-0.00150922
-0.00109596
-0.000716086
-0.000395719
-7.62962e-05
9.54734e-05
0.000380158
-0.193643
-0.191175
-0.188653
-0.186077
-0.183448
-0.180766
-0.178032
-0.175247
-0.172412
-0.169529
-0.166598
-0.163623
-0.160604
-0.157543
-0.154444
-0.151308
-0.148138
-0.144938
-0.14171
-0.138457
-0.135183
-0.131891
-0.128585
-0.125268
-0.121945
-0.118619
-0.115295
-0.111975
-0.108665
-0.105368
-0.102088
-0.0988277
-0.0955923
-0.0923848
-0.0892087
-0.0860675
-0.0829643
-0.0799023
-0.0768844
-0.0739134
-0.0709918
-0.068122
-0.0653061
-0.0625463
-0.0598442
-0.0572015
-0.0546196
-0.0520997
-0.0496428
-0.0472498
-0.0449213
-0.0426578
-0.0404598
-0.0383272
-0.0362602
-0.0342587
-0.0323225
-0.0304511
-0.0286441
-0.0269011
-0.0252212
-0.0236038
-0.0220481
-0.0205532
-0.0191183
-0.0177423
-0.0164243
-0.0151633
-0.0139582
-0.0128079
-0.0117115
-0.0106678
-0.0096759
-0.00873463
-0.00784302
-0.00700005
-0.00620476
-0.00545613
-0.00475333
-0.0040952
-0.00348124
-0.00290969
-0.00238131
-0.00189165
-0.00144672
-0.00103114
-0.000673405
-0.000314614
-8.40611e-05
0.000228994
-0.191698
-0.189199
-0.186647
-0.184041
-0.181382
-0.178671
-0.175909
-0.173097
-0.170236
-0.167327
-0.164373
-0.161376
-0.158337
-0.155258
-0.152143
-0.148994
-0.145814
-0.142605
-0.139372
-0.136117
-0.132844
-0.129556
-0.126257
-0.122951
-0.119641
-0.116333
-0.113028
-0.109732
-0.106449
-0.103181
-0.099933
-0.0967085
-0.0935111
-0.0903441
-0.0872111
-0.0841152
-0.0810594
-0.0780466
-0.0750797
-0.0721611
-0.0692933
-0.0664784
-0.0637183
-0.061015
-0.05837
-0.0557847
-0.0532604
-0.050798
-0.0483985
-0.0460626
-0.0437906
-0.0415831
-0.0394402
-0.037362
-0.0353483
-0.033399
-0.0315138
-0.0296922
-0.0279336
-0.0262375
-0.0246032
-0.0230299
-0.0215167
-0.0200627
-0.018667
-0.0173287
-0.0160466
-0.0148198
-0.0136473
-0.0125279
-0.0114606
-0.0104442
-0.00947782
-0.00856027
-0.00769048
-0.00686744
-0.00609
-0.00535725
-0.00466782
-0.0040212
-0.00341514
-0.0028506
-0.0023223
-0.00183654
-0.0013775
-0.000971269
-0.000566489
-0.000264314
9.13548e-05
-0.189215
-0.186713
-0.184156
-0.181544
-0.178879
-0.176162
-0.173393
-0.170574
-0.167707
-0.164793
-0.161835
-0.158835
-0.155795
-0.152717
-0.149605
-0.146461
-0.143288
-0.14009
-0.136869
-0.133629
-0.130374
-0.127108
-0.123833
-0.120554
-0.117275
-0.114
-0.110732
-0.107474
-0.104232
-0.101008
-0.0978069
-0.0946312
-0.0914846
-0.0883705
-0.0852921
-0.0822523
-0.0792542
-0.0763003
-0.0733932
-0.0705353
-0.0677287
-0.0649755
-0.0622774
-0.059636
-0.0570529
-0.0545291
-0.0520658
-0.0496639
-0.047324
-0.0450467
-0.0428324
-0.0406814
-0.0385937
-0.0365692
-0.0346078
-0.0327093
-0.0308732
-0.029099
-0.0273861
-0.0257339
-0.0241416
-0.0226084
-0.0211335
-0.0197159
-0.0183546
-0.0170486
-0.015797
-0.0145987
-0.0134525
-0.0123574
-0.0113124
-0.0103162
-0.00936776
-0.00846595
-0.00760965
-0.00679761
-0.00602883
-0.00530177
-0.0046158
-0.00396846
-0.00336044
-0.0027865
-0.00225177
-0.0017425
-0.00127856
-0.000820967
-0.000439459
-2.97905e-05
-0.188608
-0.186162
-0.183661
-0.181105
-0.178496
-0.175834
-0.173121
-0.170358
-0.167548
-0.164691
-0.161789
-0.158846
-0.155862
-0.152841
-0.149785
-0.146697
-0.143579
-0.140436
-0.13727
-0.134085
-0.130883
-0.127669
-0.124446
-0.121218
-0.117989
-0.114762
-0.111541
-0.108329
-0.105131
-0.10195
-0.0987886
-0.0956516
-0.0925418
-0.0894625
-0.0864168
-0.0834077
-0.080438
-0.0775103
-0.0746271
-0.0717908
-0.0690036
-0.0662675
-0.0635842
-0.0609554
-0.0583825
-0.0558669
-0.0534095
-0.0510113
-0.048673
-0.0463953
-0.0441786
-0.0420231
-0.039929
-0.0378963
-0.0359249
-0.0340146
-0.0321651
-0.0303758
-0.0286463
-0.0269759
-0.0253639
-0.0238096
-0.0223122
-0.0208707
-0.0194843
-0.0181519
-0.0168725
-0.0156452
-0.0144688
-0.0133422
-0.0122643
-0.011234
-0.0102502
-0.0093115
-0.00841688
-0.00756497
-0.00675466
-0.00598432
-0.00525307
-0.00455856
-0.00390075
-0.00327526
-0.00268493
-0.00211974
-0.0015914
-0.00107465
-0.000609194
-0.00013459
-0.185093
-0.182715
-0.180278
-0.177782
-0.17523
-0.172623
-0.169962
-0.16725
-0.164489
-0.161681
-0.158829
-0.155933
-0.152998
-0.150026
-0.147019
-0.143981
-0.140915
-0.137824
-0.134711
-0.131579
-0.128433
-0.125275
-0.12211
-0.11894
-0.115771
-0.112604
-0.109444
-0.106295
-0.10316
-0.100043
-0.0969467
-0.0938748
-0.0908305
-0.0878169
-0.0848371
-0.0818937
-0.0789895
-0.076127
-0.0733084
-0.0705362
-0.0678123
-0.0651386
-0.0625167
-0.0599482
-0.0574345
-0.0549766
-0.0525756
-0.0502323
-0.0479474
-0.0457213
-0.0435545
-0.0414472
-0.0393995
-0.0374113
-0.0354824
-0.0336127
-0.0318017
-0.030049
-0.028354
-0.0267161
-0.0251345
-0.0236084
-0.0221371
-0.0207196
-0.019355
-0.0180422
-0.0167803
-0.0155681
-0.0144046
-0.0132885
-0.0122189
-0.0111943
-0.0102136
-0.00927546
-0.0083786
-0.00752166
-0.00670309
-0.00592156
-0.00517511
-0.00446265
-0.00378118
-0.00313066
-0.00250551
-0.0019091
-0.00132936
-0.000780072
-0.000233978
-0.181931
-0.179659
-0.177326
-0.174933
-0.172483
-0.169977
-0.167418
-0.164807
-0.162146
-0.159438
-0.156685
-0.15389
-0.151054
-0.148182
-0.145275
-0.142337
-0.13937
-0.136379
-0.133365
-0.130333
-0.127286
-0.124227
-0.121159
-0.118088
-0.115014
-0.111944
-0.108879
-0.105823
-0.10278
-0.0997531
-0.0967453
-0.09376
-0.0908002
-0.0878689
-0.0849688
-0.0821027
-0.079273
-0.0764823
-0.0737328
-0.0710266
-0.0683656
-0.0657516
-0.0631862
-0.0606709
-0.058207
-0.0557956
-0.0534377
-0.0511341
-0.0488854
-0.0466922
-0.0445548
-0.0424736
-0.0404486
-0.0384798
-0.0365672
-0.0347104
-0.0329092
-0.0311632
-0.0294718
-0.0278345
-0.0262506
-0.0247194
-0.0232401
-0.0218118
-0.0204336
-0.0191046
-0.0178238
-0.0165901
-0.0154024
-0.0142597
-0.0131606
-0.0121041
-0.0110889
-0.0101135
-0.00917683
-0.00827722
-0.00741334
-0.0065834
-0.00578599
-0.00501891
-0.0042808
-0.00356865
-0.00288148
-0.0022147
-0.00156832
-0.000934294
-0.000315115
-0.175639
-0.173548
-0.171394
-0.169177
-0.166901
-0.164567
-0.162179
-0.159738
-0.157246
-0.154707
-0.152122
-0.149495
-0.146827
-0.144122
-0.141382
-0.138611
-0.135811
-0.132986
-0.130139
-0.127272
-0.12439
-0.121495
-0.11859
-0.11568
-0.112767
-0.109854
-0.106945
-0.104044
-0.101152
-0.0982744
-0.0954127
-0.0925702
-0.0897499
-0.0869545
-0.0841866
-0.0814487
-0.0787432
-0.0760723
-0.0734382
-0.0708429
-0.068288
-0.0657754
-0.0633066
-0.060883
-0.0585058
-0.0561761
-0.0538948
-0.0516629
-0.0494809
-0.0473494
-0.0452688
-0.0432395
-0.0412616
-0.0393352
-0.0374602
-0.0356365
-0.0338639
-0.0321419
-0.0304704
-0.0288486
-0.0272761
-0.0257522
-0.0242762
-0.0228474
-0.021465
-0.0201279
-0.0188354
-0.0175865
-0.0163801
-0.0152151
-0.0140904
-0.0130049
-0.0119573
-0.0109463
-0.00997058
-0.0090286
-0.00811917
-0.00724015
-0.00639071
-0.00556768
-0.00477125
-0.00399601
-0.0032448
-0.00250705
-0.00179214
-0.00107673
-0.000384634
-0.169637
-0.167716
-0.165731
-0.163684
-0.161578
-0.159414
-0.157194
-0.154922
-0.152599
-0.150228
-0.147811
-0.145351
-0.142851
-0.140313
-0.13774
-0.135134
-0.1325
-0.12984
-0.127156
-0.124452
-0.121731
-0.118996
-0.11625
-0.113496
-0.110738
-0.107978
-0.105219
-0.102465
-0.0997186
-0.0969823
-0.0942591
-0.0915518
-0.0888631
-0.0861955
-0.0835516
-0.0809336
-0.0783439
-0.0757845
-0.0732575
-0.0707646
-0.0683078
-0.0658886
-0.0635084
-0.0611687
-0.0588706
-0.0566153
-0.0544037
-0.0522366
-0.0501147
-0.0480387
-0.046009
-0.0440258
-0.0420896
-0.0402004
-0.0383582
-0.0365629
-0.0348145
-0.0331127
-0.0314571
-0.0298473
-0.0282829
-0.0267633
-0.0252879
-0.023856
-0.0224668
-0.0211196
-0.0198135
-0.0185476
-0.0173209
-0.0161323
-0.0149809
-0.0138655
-0.0127849
-0.0117378
-0.010723
-0.00973876
-0.00878425
-0.00785699
-0.00695666
-0.00607945
-0.00522667
-0.00439134
-0.00357898
-0.0027752
-0.00199552
-0.00120663
-0.000444272
-0.163524
-0.16178
-0.15997
-0.158097
-0.156164
-0.154171
-0.152122
-0.15002
-0.147866
-0.145663
-0.143414
-0.141122
-0.138788
-0.136416
-0.134008
-0.131568
-0.129097
-0.126599
-0.124077
-0.121534
-0.118972
-0.116394
-0.113804
-0.111205
-0.108598
-0.105988
-0.103377
-0.100768
-0.0981635
-0.0955664
-0.0929793
-0.0904049
-0.0878456
-0.0853039
-0.082782
-0.0802823
-0.0778068
-0.0753575
-0.0729364
-0.0705452
-0.0681856
-0.0658592
-0.0635673
-0.0613114
-0.0590926
-0.056912
-0.0547704
-0.0526689
-0.050608
-0.0485884
-0.0466106
-0.044675
-0.0427819
-0.0409315
-0.0391238
-0.0373588
-0.0356366
-0.0339568
-0.0323194
-0.0307238
-0.0291698
-0.0276568
-0.0261844
-0.0247518
-0.0233585
-0.0220037
-0.0206866
-0.0194064
-0.0181622
-0.016953
-0.0157779
-0.0146356
-0.0135252
-0.0124452
-0.0113947
-0.010372
-0.0093762
-0.00840484
-0.00745795
-0.00653134
-0.00562709
-0.00473733
-0.00386924
-0.00300614
-0.00216712
-0.00131307
-0.000487397
-0.157655
-0.156074
-0.154428
-0.152717
-0.150945
-0.149114
-0.147227
-0.145285
-0.143291
-0.141249
-0.139159
-0.137026
-0.134851
-0.132637
-0.130387
-0.128103
-0.125788
-0.123446
-0.121078
-0.118687
-0.116277
-0.113849
-0.111408
-0.108955
-0.106493
-0.104026
-0.101555
-0.0990836
-0.0966142
-0.0941495
-0.0916918
-0.0892437
-0.0868075
-0.0843854
-0.0819796
-0.0795923
-0.0772255
-0.0748811
-0.0725609
-0.0702665
-0.0679997
-0.0657618
-0.0635544
-0.0613785
-0.0592356
-0.0571265
-0.0550522
-0.0530136
-0.0510114
-0.0490463
-0.0471187
-0.0452292
-0.043378
-0.0415653
-0.0397914
-0.0380562
-0.0363599
-0.0347022
-0.033083
-0.031502
-0.0299589
-0.0284533
-0.0269847
-0.0255526
-0.0241565
-0.0227955
-0.0214691
-0.0201765
-0.0189168
-0.0176891
-0.0164925
-0.0153259
-0.0141884
-0.0130786
-0.0119957
-0.0109378
-0.00990448
-0.00889305
-0.00790384
-0.00693251
-0.00598166
-0.00504291
-0.00412452
-0.00320847
-0.00231624
-0.00140529
-0.000523727
-0.152021
-0.150597
-0.149106
-0.147551
-0.145933
-0.144256
-0.142522
-0.140734
-0.138893
-0.137003
-0.135065
-0.133083
-0.131058
-0.128994
-0.126893
-0.124758
-0.122591
-0.120395
-0.118172
-0.115926
-0.113659
-0.111373
-0.109071
-0.106757
-0.104431
-0.102098
-0.0997591
-0.0974174
-0.0950753
-0.0927351
-0.0903993
-0.0880701
-0.0857497
-0.0834403
-0.081144
-0.0788628
-0.0765986
-0.0743531
-0.0721282
-0.0699255
-0.0677465
-0.0655927
-0.0634653
-0.0613657
-0.0592949
-0.0572541
-0.0552441
-0.0532658
-0.05132
-0.0494073
-0.0475282
-0.0456832
-0.0438727
-0.0420969
-0.0403561
-0.0386504
-0.0369797
-0.0353442
-0.0337436
-0.0321777
-0.0306463
-0.029149
-0.0276855
-0.0262553
-0.0248578
-0.0234925
-0.0221587
-0.0208557
-0.0195828
-0.0183391
-0.0171238
-0.0159358
-0.0147743
-0.013638
-0.0125261
-0.011437
-0.01037
-0.00932282
-0.00829581
-0.0072846
-0.0062922
-0.00530993
-0.00434684
-0.00338411
-0.0024448
-0.00148417
-0.000553487
-0.146659
-0.145382
-0.144038
-0.142628
-0.141157
-0.139625
-0.138036
-0.136391
-0.134694
-0.132947
-0.131152
-0.129312
-0.127429
-0.125506
-0.123545
-0.121549
-0.119521
-0.117462
-0.115376
-0.113265
-0.111132
-0.108979
-0.106808
-0.104623
-0.102425
-0.100218
-0.0980028
-0.0957826
-0.0935596
-0.0913362
-0.0891145
-0.0868968
-0.0846851
-0.0824815
-0.080288
-0.0781064
-0.0759386
-0.0737863
-0.0716512
-0.0695348
-0.0674387
-0.0653642
-0.0633126
-0.061285
-0.0592828
-0.0573068
-0.0553579
-0.0534371
-0.0515451
-0.0496825
-0.0478499
-0.0460478
-0.0442766
-0.0425366
-0.0408281
-0.0391511
-0.0375059
-0.0358923
-0.0343104
-0.0327599
-0.0312407
-0.0297526
-0.0282951
-0.0268679
-0.0254704
-0.0241023
-0.0227629
-0.0214516
-0.0201676
-0.0189103
-0.0176788
-0.0164721
-0.0152896
-0.0141299
-0.0129925
-0.0118756
-0.010779
-0.00970003
-0.00863953
-0.00759303
-0.00656386
-0.00554319
-0.00454069
-0.00353696
-0.00255634
-0.00155242
-0.000578962
-0.14157
-0.140431
-0.139224
-0.137952
-0.136616
-0.13522
-0.133767
-0.132258
-0.130695
-0.129082
-0.127421
-0.125714
-0.123964
-0.122174
-0.120344
-0.118479
-0.116581
-0.114651
-0.112693
-0.110709
-0.108701
-0.106672
-0.104624
-0.10256
-0.100482
-0.0983916
-0.0962922
-0.0941857
-0.0920742
-0.08996
-0.0878452
-0.0857319
-0.0836219
-0.0815174
-0.0794202
-0.077332
-0.0752547
-0.0731899
-0.0711391
-0.0691039
-0.0670858
-0.065086
-0.0631058
-0.0611464
-0.0592088
-0.0572942
-0.0554033
-0.0535371
-0.0516963
-0.0498815
-0.0480934
-0.0463324
-0.044599
-0.0428935
-0.0412162
-0.0395673
-0.0379469
-0.0363551
-0.0347918
-0.0332569
-0.0317504
-0.0302719
-0.0288212
-0.027398
-0.0260019
-0.0246324
-0.023289
-0.0219711
-0.0206781
-0.0194093
-0.018164
-0.0169413
-0.0157405
-0.0145605
-0.0134007
-0.0122595
-0.0111367
-0.0100299
-0.00893993
-0.0078624
-0.00680091
-0.00574654
-0.00470948
-0.0036699
-0.00265318
-0.00161157
-0.000600917
-0.136751
-0.13574
-0.134661
-0.133516
-0.132308
-0.13104
-0.129713
-0.12833
-0.126894
-0.125407
-0.123872
-0.12229
-0.120664
-0.118997
-0.117291
-0.115548
-0.113771
-0.111962
-0.110123
-0.108258
-0.106367
-0.104454
-0.102521
-0.10057
-0.0986035
-0.0966235
-0.0946322
-0.0926319
-0.0906246
-0.0886125
-0.0865976
-0.0845818
-0.082567
-0.0805552
-0.0785481
-0.0765474
-0.0745548
-0.072572
-0.0706004
-0.0686414
-0.0666965
-0.064767
-0.0628541
-0.0609588
-0.0590824
-0.0572257
-0.0553898
-0.0535753
-0.0517831
-0.0500138
-0.0482681
-0.0465464
-0.0448492
-0.0431769
-0.0415298
-0.0399081
-0.0383119
-0.0367414
-0.0351965
-0.0336773
-0.0321837
-0.0307154
-0.0292722
-0.027854
-0.0264602
-0.0250906
-0.0237446
-0.0224218
-0.0211216
-0.0198433
-0.0185864
-0.0173501
-0.0161336
-0.014936
-0.0137568
-0.0125944
-0.0114488
-0.0103176
-0.00920186
-0.00809717
-0.00700741
-0.00592359
-0.00485633
-0.00378548
-0.00273732
-0.00166292
-0.000619981
-0.132196
-0.131304
-0.130344
-0.129319
-0.12823
-0.12708
-0.125872
-0.124607
-0.123289
-0.12192
-0.120501
-0.119036
-0.117527
-0.115975
-0.114384
-0.112756
-0.111092
-0.109396
-0.107669
-0.105914
-0.104133
-0.102329
-0.100502
-0.098657
-0.0967945
-0.094917
-0.0930266
-0.0911254
-0.0892154
-0.0872986
-0.0853769
-0.0834523
-0.0815264
-0.0796012
-0.0776784
-0.0757595
-0.0738463
-0.0719402
-0.0700427
-0.0681553
-0.0662791
-0.0644156
-0.0625659
-0.0607311
-0.0589122
-0.0571102
-0.0553261
-0.0535605
-0.0518144
-0.0500883
-0.0483829
-0.0466987
-0.0450362
-0.0433957
-0.0417776
-0.0401821
-0.0386095
-0.0370598
-0.0355332
-0.0340296
-0.0325489
-0.0310911
-0.029656
-0.0282434
-0.0268529
-0.0254842
-0.024137
-0.0228107
-0.0215049
-0.0202191
-0.0189526
-0.0177047
-0.016475
-0.0152623
-0.0140663
-0.0128856
-0.0117203
-0.0105679
-0.00942968
-0.00830135
-0.00718696
-0.00607748
-0.00498394
-0.00388588
-0.00281038
-0.0017075
-0.000636545
-0.127902
-0.12712
-0.126271
-0.125356
-0.124378
-0.123338
-0.12224
-0.121086
-0.119878
-0.118618
-0.117309
-0.115952
-0.114551
-0.113108
-0.111624
-0.110102
-0.108544
-0.106953
-0.10533
-0.103678
-0.102
-0.100296
-0.0985696
-0.0968227
-0.0950573
-0.0932754
-0.091479
-0.0896702
-0.0878509
-0.086023
-0.0841883
-0.0823486
-0.0805057
-0.0786614
-0.0768172
-0.0749748
-0.0731357
-0.0713014
-0.0694733
-0.0676528
-0.0658411
-0.0640394
-0.062249
-0.0604709
-0.0587062
-0.0569557
-0.0552204
-0.0535011
-0.0517985
-0.0501134
-0.0484462
-0.0467977
-0.0451681
-0.043558
-0.0419678
-0.0403976
-0.0388478
-0.0373184
-0.0358096
-0.0343214
-0.0328538
-0.0314067
-0.0299801
-0.0285736
-0.0271872
-0.0258204
-0.024473
-0.0231446
-0.0218347
-0.0205429
-0.0192686
-0.0180112
-0.0167702
-0.0155447
-0.0143345
-0.0131381
-0.0119556
-0.0107849
-0.0096273
-0.00847847
-0.00734272
-0.00621097
-0.00509462
-0.00397294
-0.00287372
-0.00174615
-0.000650912
-0.123864
-0.123185
-0.122438
-0.121625
-0.120749
-0.119812
-0.118816
-0.117764
-0.116658
-0.1155
-0.114292
-0.113037
-0.111736
-0.110393
-0.109009
-0.107586
-0.106127
-0.104633
-0.103108
-0.101552
-0.099968
-0.0983583
-0.0967248
-0.0950695
-0.0933944
-0.0917015
-0.0899927
-0.0882699
-0.086535
-0.0847898
-0.083036
-0.0812756
-0.07951
-0.077741
-0.0759702
-0.0741991
-0.0724292
-0.0706619
-0.0688986
-0.0671406
-0.0653892
-0.0636455
-0.0619107
-0.0601858
-0.0584718
-0.0567698
-0.0550804
-0.0534046
-0.0517431
-0.0500966
-0.0484657
-0.0468509
-0.0452528
-0.0436717
-0.042108
-0.0405621
-0.0390342
-0.0375245
-0.036033
-0.03456
-0.0331054
-0.0316692
-0.0302512
-0.0288515
-0.0274697
-0.0261056
-0.0247591
-0.0234296
-0.0221169
-0.0208205
-0.01954
-0.0182748
-0.0170245
-0.0157883
-0.0145659
-0.0133561
-0.012159
-0.0109726
-0.00979822
-0.0086317
-0.00747748
-0.00632648
-0.00519039
-0.00404828
-0.00292853
-0.00177959
-0.000663341
-0.120078
-0.119493
-0.11884
-0.118121
-0.117339
-0.116497
-0.115596
-0.114638
-0.113627
-0.112563
-0.111449
-0.110288
-0.109081
-0.107831
-0.106539
-0.105208
-0.10384
-0.102438
-0.101002
-0.099535
-0.0980395
-0.0965171
-0.0949698
-0.0933996
-0.0918084
-0.0901981
-0.0885706
-0.0869277
-0.0852712
-0.0836029
-0.0819245
-0.0802376
-0.078544
-0.0768451
-0.0751426
-0.0734379
-0.0717324
-0.0700276
-0.0683247
-0.0666251
-0.0649299
-0.0632403
-0.0615574
-0.0598823
-0.0582159
-0.0565592
-0.054913
-0.0532781
-0.0516553
-0.0500452
-0.0484484
-0.0468656
-0.0452972
-0.0437436
-0.0422053
-0.0406826
-0.0391757
-0.0376849
-0.0362104
-0.0347522
-0.0333103
-0.0318849
-0.0304759
-0.0290831
-0.0277065
-0.0263458
-0.0250009
-0.0236713
-0.0223569
-0.0210573
-0.019772
-0.0185005
-0.0172426
-0.0159974
-0.0147648
-0.0135436
-0.0123342
-0.0111343
-0.00994556
-0.00876385
-0.00759374
-0.00642616
-0.00527303
-0.0041133
-0.00297583
-0.00180844
-0.000674056
-0.11654
-0.11604
-0.115473
-0.114841
-0.114146
-0.113391
-0.112577
-0.111707
-0.110782
-0.109805
-0.108779
-0.107704
-0.106584
-0.105419
-0.104213
-0.102968
-0.101685
-0.100366
-0.0990132
-0.097629
-0.0962152
-0.0947736
-0.0933062
-0.0918148
-0.0903013
-0.0887676
-0.0872155
-0.0856467
-0.0840629
-0.0824659
-0.0808573
-0.0792388
-0.0776119
-0.0759781
-0.074339
-0.0726959
-0.0710504
-0.0694036
-0.0677569
-0.0661116
-0.0644688
-0.0628297
-0.0611953
-0.0595666
-0.0579447
-0.0563303
-0.0547245
-0.0531279
-0.0515413
-0.0499654
-0.0484009
-0.0468481
-0.0453078
-0.0437803
-0.0422661
-0.0407655
-0.0392787
-0.0378061
-0.0363478
-0.034904
-0.0334747
-0.03206
-0.0306599
-0.0292744
-0.0279033
-0.0265465
-0.0252038
-0.023875
-0.0225598
-0.021258
-0.0199691
-0.0186928
-0.0174287
-0.0161761
-0.0149351
-0.0137044
-0.0124844
-0.0112731
-0.0100721
-0.00887742
-0.0076937
-0.00651188
-0.00534413
-0.00416924
-0.00301653
-0.00183325
-0.000683261
-0.113244
-0.112822
-0.112334
-0.111781
-0.111166
-0.11049
-0.109756
-0.108966
-0.108122
-0.107225
-0.106279
-0.105284
-0.104243
-0.103158
-0.102031
-0.100864
-0.0996592
-0.0984178
-0.0971422
-0.0958343
-0.094496
-0.093129
-0.0917354
-0.0903169
-0.0888753
-0.0874124
-0.0859299
-0.0844296
-0.0829131
-0.081382
-0.0798381
-0.0782828
-0.0767176
-0.0751441
-0.0735637
-0.0719778
-0.0703877
-0.0687948
-0.0672003
-0.0656054
-0.0640113
-0.062419
-0.0608297
-0.0592442
-0.0576637
-0.0560889
-0.0545207
-0.0529599
-0.0514073
-0.0498634
-0.048329
-0.0468046
-0.0452907
-0.0437878
-0.0422963
-0.0408166
-0.039349
-0.0378937
-0.036451
-0.0350211
-0.033604
-0.0321998
-0.0308087
-0.0294304
-0.0280651
-0.0267126
-0.0253727
-0.0240453
-0.0227302
-0.0214271
-0.0201357
-0.0188556
-0.0175866
-0.0163281
-0.0150801
-0.0138414
-0.0126126
-0.0113917
-0.0101804
-0.00897465
-0.00777931
-0.00658534
-0.00540507
-0.0042172
-0.00305141
-0.00185453
-0.000691139
-0.110185
-0.109835
-0.109418
-0.108938
-0.108395
-0.107792
-0.107131
-0.106415
-0.105644
-0.104821
-0.103947
-0.103026
-0.102058
-0.101046
-0.0999921
-0.0988973
-0.097764
-0.096594
-0.0953892
-0.0941515
-0.0928826
-0.0915844
-0.0902588
-0.0889074
-0.087532
-0.0861343
-0.0847161
-0.0832789
-0.0818244
-0.0803542
-0.0788698
-0.0773728
-0.0758647
-0.0743468
-0.0728207
-0.0712875
-0.0697488
-0.0682057
-0.0666594
-0.0651111
-0.0635621
-0.0620132
-0.0604656
-0.0589203
-0.0573782
-0.0558401
-0.054307
-0.0527795
-0.0512585
-0.0497445
-0.0482382
-0.0467403
-0.0452512
-0.0437713
-0.0423013
-0.0408413
-0.0393918
-0.037953
-0.0365252
-0.0351086
-0.0337033
-0.0323094
-0.030927
-0.0295561
-0.0281967
-0.0268487
-0.0255121
-0.0241866
-0.0228722
-0.0215685
-0.0202755
-0.0189927
-0.0177199
-0.0164567
-0.015203
-0.0139578
-0.0127217
-0.0114927
-0.0102726
-0.00905754
-0.00785236
-0.00664805
-0.00545711
-0.00425817
-0.00308121
-0.0018727
-0.000697854
-0.107359
-0.107072
-0.106721
-0.106306
-0.105829
-0.105293
-0.104699
-0.104049
-0.103345
-0.102589
-0.101783
-0.100928
-0.100028
-0.0990826
-0.0980948
-0.0970662
-0.0959987
-0.0948941
-0.0937542
-0.0925808
-0.0913757
-0.0901406
-0.0888774
-0.0875876
-0.0862729
-0.0849352
-0.0835759
-0.0821967
-0.0807992
-0.0793849
-0.0779554
-0.076512
-0.0750563
-0.0735896
-0.0721133
-0.0706288
-0.0691373
-0.06764
-0.0661382
-0.064633
-0.0631255
-0.0616167
-0.0601077
-0.0585994
-0.0570929
-0.0555888
-0.0540881
-0.0525915
-0.0510998
-0.0496136
-0.0481335
-0.0466602
-0.0451942
-0.043736
-0.0422859
-0.0408445
-0.039412
-0.0379888
-0.0365751
-0.0351712
-0.0337772
-0.0323932
-0.0310193
-0.0296557
-0.0283022
-0.026959
-0.0256258
-0.0243027
-0.0229895
-0.021686
-0.020392
-0.0191073
-0.0178318
-0.0165648
-0.0153066
-0.014056
-0.0128139
-0.0115782
-0.0103508
-0.00912788
-0.00791439
-0.00670133
-0.00550135
-0.00429301
-0.00310655
-0.00188815
-0.000703552
-0.104759
-0.104531
-0.104238
-0.103882
-0.103465
-0.102988
-0.102455
-0.101866
-0.101223
-0.100528
-0.0997828
-0.0989895
-0.0981499
-0.0972655
-0.0963384
-0.0953702
-0.0943628
-0.0933179
-0.0922372
-0.0911226
-0.0899758
-0.0887983
-0.0875921
-0.0863586
-0.0850995
-0.0838165
-0.0825112
-0.0811851
-0.0798397
-0.0784766
-0.0770972
-0.0757029
-0.0742952
-0.0728754
-0.0714449
-0.0700049
-0.0685567
-0.0671015
-0.0656405
-0.0641747
-0.0627054
-0.0612334
-0.0597599
-0.0582858
-0.0568119
-0.0553391
-0.0538683
-0.0524002
-0.0509356
-0.0494751
-0.0480193
-0.0465689
-0.0451243
-0.0436861
-0.0422548
-0.0408306
-0.0394141
-0.0380055
-0.0366051
-0.0352132
-0.0338299
-0.0324554
-0.0310898
-0.0297332
-0.0283857
-0.0270472
-0.0257177
-0.0243972
-0.0230856
-0.0217827
-0.0204885
-0.0192026
-0.017925
-0.0166552
-0.0153933
-0.0141385
-0.0128914
-0.0116502
-0.0104168
-0.00918727
-0.00796681
-0.0067464
-0.00553879
-0.00432251
-0.00312801
-0.00190123
-0.000708365
-0.102381
-0.102205
-0.101964
-0.101662
-0.101298
-0.100876
-0.100397
-0.0998629
-0.099275
-0.0986353
-0.0979457
-0.0972077
-0.0964233
-0.0955942
-0.094722
-0.0938087
-0.0928558
-0.0918651
-0.0908383
-0.089777
-0.0886831
-0.0875581
-0.0864036
-0.0852214
-0.0840129
-0.0827797
-0.0815235
-0.0802457
-0.0789478
-0.0776312
-0.0762975
-0.074948
-0.073584
-0.072207
-0.0708181
-0.0694188
-0.0680101
-0.0665933
-0.0651695
-0.0637398
-0.0623053
-0.0608671
-0.059426
-0.057983
-0.0565391
-0.0550951
-0.0536517
-0.0522097
-0.05077
-0.0493331
-0.0478996
-0.0464702
-0.0450455
-0.0436258
-0.0422117
-0.0408037
-0.039402
-0.038007
-0.036619
-0.0352383
-0.0338651
-0.0324996
-0.0311419
-0.0297921
-0.0284504
-0.0271166
-0.0257909
-0.0244732
-0.0231635
-0.0218617
-0.0205676
-0.0192811
-0.0180021
-0.0167302
-0.0154655
-0.0142073
-0.0129562
-0.0117105
-0.0104721
-0.00923715
-0.00801089
-0.00678433
-0.0055703
-0.00434735
-0.00314608
-0.00191224
-0.000712409
-0.100221
-0.10009
-0.099897
-0.0996419
-0.0993268
-0.0989532
-0.098523
-0.0980379
-0.0974994
-0.0969094
-0.0962694
-0.0955813
-0.0948467
-0.0940672
-0.0932447
-0.0923808
-0.0914771
-0.0905353
-0.0895571
-0.0885441
-0.087498
-0.0864204
-0.0853128
-0.0841768
-0.083014
-0.0818259
-0.0806141
-0.07938
-0.078125
-0.0768507
-0.0755583
-0.0742493
-0.0729249
-0.0715866
-0.0702356
-0.068873
-0.0675002
-0.0661182
-0.0647282
-0.0633313
-0.0619285
-0.0605208
-0.0591092
-0.0576946
-0.056278
-0.05486
-0.0534416
-0.0520235
-0.0506065
-0.0491911
-0.0477781
-0.046368
-0.0449613
-0.0435587
-0.0421605
-0.0407672
-0.0393792
-0.0379968
-0.0366204
-0.0352501
-0.0338864
-0.0325293
-0.0311791
-0.0298358
-0.0284995
-0.0271704
-0.0258485
-0.0245337
-0.023226
-0.0219255
-0.0206319
-0.0193452
-0.0180654
-0.016792
-0.0155252
-0.0142644
-0.0130101
-0.0117607
-0.0105182
-0.0092788
-0.00804772
-0.00681605
-0.00559668
-0.00436816
-0.00316121
-0.00192147
-0.000715787
-0.0981831
-0.0980313
-0.0978185
-0.0975461
-0.0972157
-0.0968291
-0.0963878
-0.0958935
-0.0953477
-0.0947522
-0.0941086
-0.0934185
-0.0926836
-0.0919054
-0.0910858
-0.0902261
-0.0893282
-0.0883936
-0.0874239
-0.0864206
-0.0853855
-0.0843199
-0.0832255
-0.0821037
-0.0809562
-0.0797842
-0.0785893
-0.077373
-0.0761365
-0.0748813
-0.0736087
-0.07232
-0.0710165
-0.0696995
-0.0683701
-0.0670295
-0.0656789
-0.0643193
-0.0629519
-0.0615776
-0.0601975
-0.0588125
-0.0574236
-0.0560315
-0.0546371
-0.0532413
-0.0518448
-0.0504483
-0.0490525
-0.0476579
-0.0462653
-0.0448751
-0.043488
-0.0421043
-0.0407244
-0.0393489
-0.0379781
-0.0366122
-0.0352517
-0.0338966
-0.0325474
-0.0312041
-0.0298669
-0.0285359
-0.0272112
-0.0258929
-0.024581
-0.0232756
-0.0219765
-0.0206837
-0.0193972
-0.0181169
-0.0168425
-0.0155742
-0.0143113
-0.0130545
-0.0118022
-0.0105564
-0.00931333
-0.0080783
-0.00684241
-0.00561863
-0.00438547
-0.00317381