/*--------------------------------*- C++ -*----------------------------------*\
  =========                 |
  \\      /  F ield         | OpenFOAM: The Open Source CFD Toolbox
   \\    /   O peration     | Website:  https://openfoam.org
    \\  /    A nd           | Version:  7
     \\/     M anipulation  |
\*---------------------------------------------------------------------------*/
FoamFile
{
    version     2.0;
    format      ascii;
    class       surfaceScalarField;
    location    "50";
    object      phi;
}
// * * * * * * * * * * * * * * * * * * * * * * * * * * * * * * * * * * * * * //

dimensions      [0 3 -1 0 0 0 0];

internalField   nonuniform List<scalar> 
6868
(
-0.00247303
-2.06402e-05
-0.00245097
-2.2381e-05
-0.00242718
-2.41423e-05
-0.00240162
-2.5923e-05
-0.00237428
-2.77219e-05
-0.00234514
-2.95374e-05
-0.00231417
-3.13675e-05
-0.00228137
-3.32102e-05
-0.00224672
-3.5063e-05
-0.00221021
-3.69232e-05
-0.00217182
-3.87879e-05
-0.00213155
-4.0654e-05
-0.0020894
-4.25182e-05
-0.00204536
-4.43772e-05
-0.00199945
-4.62275e-05
-0.00195167
-4.80655e-05
-0.00190204
-4.98876e-05
-0.00185056
-5.16905e-05
-0.00179725
-5.34706e-05
-0.00174214
-5.52246e-05
-0.00168526
-5.69496e-05
-0.00162663
-5.86421e-05
-0.00156629
-6.0299e-05
-0.00150427
-6.19259e-05
-0.00144059
-6.35283e-05
-0.00137535
-6.50303e-05
-0.0013086
-6.64846e-05
-0.00124038
-6.78937e-05
-0.00117075
-6.92505e-05
-0.00109976
-7.05515e-05
-0.00102749
-7.17944e-05
-0.000953984
-7.29773e-05
-0.000879314
-7.40984e-05
-0.000803548
-7.51563e-05
-0.000726754
-7.61499e-05
-0.000649002
-7.70782e-05
-0.000570364
-7.79412e-05
-0.000490905
-7.87435e-05
-0.000410696
-7.94812e-05
-0.00032982
-8.01421e-05
-0.000248347
-8.07382e-05
-0.000166346
-8.12709e-05
-8.38876e-05
-8.17409e-05
-1.0391e-06
-8.21478e-05
8.21199e-05
-8.24829e-05
0.000165533
-8.27654e-05
0.000249135
-8.29884e-05
0.000332862
-8.31521e-05
0.000416651
-8.32586e-05
0.000500444
-8.33099e-05
0.000584183
-8.33078e-05
0.000667813
-8.32541e-05
0.000751281
-8.31508e-05
0.000834538
-8.29999e-05
0.000917537
-8.28034e-05
0.00100023
-8.25635e-05
0.00108258
-8.22823e-05
0.00116454
-8.19619e-05
0.00124608
-8.16043e-05
0.00132717
-8.12119e-05
0.00140777
-8.0787e-05
0.00148785
-8.03317e-05
0.00156739
-7.98483e-05
0.00164637
-7.93389e-05
0.00172475
-7.88057e-05
0.00180254
-7.8251e-05
0.0018797
-7.7677e-05
0.00195623
-7.70858e-05
0.00203212
-7.64797e-05
0.00210736
-7.58609e-05
0.00218193
-7.52317e-05
0.00225585
-7.45942e-05
0.0023291
-7.39507e-05
0.0024017
-7.33035e-05
0.00247363
-7.2655e-05
0.00254492
-7.20076e-05
0.00261556
-7.13637e-05
0.00268558
-7.0726e-05
0.00275497
-7.00972e-05
0.00282377
-6.94803e-05
0.00289199
-6.88786e-05
0.00295965
-6.82956e-05
0.00302679
-6.77359e-05
0.00309343
-6.72033e-05
0.00315962
-6.67065e-05
0.0032254
-6.62463e-05
0.00329084
-6.58497e-05
4.13793e-07
0.00335597
-6.54878e-05
3.53124e-07
0.00342095
-6.52669e-05
2.85108e-07
0.00348579
-6.50518e-05
2.11097e-07
-6.46502e-05
1.11933e-07
-0.00198511
-4.34738e-05
-0.00196059
-4.69069e-05
-0.00193435
-5.03779e-05
-0.00190639
-5.38852e-05
-0.00187669
-5.74264e-05
-0.00184522
-6.09987e-05
-0.00181199
-6.45986e-05
-0.00177698
-6.82221e-05
-0.00174018
-7.18645e-05
-0.00170158
-7.55208e-05
-0.00166118
-7.91853e-05
-0.00161899
-8.28522e-05
-0.00157499
-8.65149e-05
-0.0015292
-9.01669e-05
-0.00148163
-9.38012e-05
-0.00143228
-9.74108e-05
-0.00138118
-0.000100988
-0.00132834
-0.000104527
-0.00127379
-0.000108019
-0.00121756
-0.000111458
-0.00115967
-0.000114838
-0.00110016
-0.000118151
-0.00103907
-0.000121392
-0.000976439
-0.000124558
-0.00091223
-0.000127737
-0.00084661
-0.00013065
-0.000779611
-0.000133484
-0.000711279
-0.000136226
-0.000641669
-0.00013886
-0.00057084
-0.000141381
-0.000498852
-0.000143782
-0.00042577
-0.00014606
-0.000351656
-0.000148212
-0.000276578
-0.000150234
-0.000200604
-0.000152124
-0.0001238
-0.000153882
-4.62358e-05
-0.000155506
3.20073e-05
-0.000156987
0.000110851
-0.000158325
0.000190246
-0.000159537
0.000270122
-0.000160615
0.00035041
-0.000161559
0.00043104
-0.000162371
0.000511945
-0.000163053
0.000593066
-0.000163604
0.000674334
-0.000164033
0.000755687
-0.000164341
0.000837065
-0.00016453
0.000918411
-0.000164605
0.00099967
-0.000164569
0.00108079
-0.000164426
0.00116171
-0.000164181
0.0012424
-0.000163837
0.0013228
-0.000163401
0.00140287
-0.000162875
0.00148258
-0.000162265
0.00156187
-0.000161576
0.00164072
-0.000160813
0.00171909
-0.000159979
0.00179696
-0.000159081
0.0018743
-0.000158123
0.00195108
-0.00015711
0.00202728
-0.000156046
0.00210287
-0.000154938
0.00217786
-0.000153788
0.00225221
-0.000152603
0.00232592
-0.000151386
0.00239897
-0.000150142
0.00247137
-0.000148877
0.0025431
-0.000147593
0.00261417
-0.000146297
0.00268457
-0.000144993
0.0027543
-0.000143685
0.00282338
-0.000142377
0.0028918
-0.000141075
0.00295957
-0.000139783
0.00302671
-0.000138506
0.00309324
-0.00013725
0.00315916
-0.000136018
0.0032245
-0.000134818
0.00328927
-0.000133656
0.00335352
-0.000132537
0.00341725
-0.000131472
0.00348051
-0.000130466
0.00354335
-0.000129537
0.00360578
-0.000128683
0.00366789
-0.000127958
0.00372971
-0.000127305
0.00379132
-0.000126882
0.00385285
-0.000126573
-0.000126019
-0.00106392
-0.00103556
-7.52609e-05
-0.00100554
-8.04006e-05
-0.000973843
-8.55834e-05
-0.000940464
-9.08058e-05
-0.000905399
-9.60636e-05
-0.000868646
-0.000101352
-0.000830204
-0.000106664
-0.000790074
-0.000111994
-0.000748261
-0.000117335
-0.000704769
-0.000122677
-0.000659607
-0.000128014
-0.000612788
-0.000133334
-0.000564325
-0.00013863
-0.000514236
-0.00014389
-0.000462541
-0.000149106
-0.000409264
-0.000154266
-0.000354431
-0.000159359
-0.000298073
-0.000164378
-0.000240221
-0.00016931
-0.000180912
-0.000174147
-0.000120184
-0.00017888
-5.80643e-05
-0.000183511
5.41347e-06
-0.000188036
6.99292e-05
-0.000192252
0.000135711
-0.000196432
0.000202685
-0.000200458
0.000270779
-0.00020432
0.00033993
-0.000208011
0.000410075
-0.000211525
0.000481149
-0.000214857
0.000553089
-0.000218
0.000625827
-0.00022095
0.000699298
-0.000223705
0.000773435
-0.000226261
0.00084817
-0.000228617
0.000923435
-0.000230771
0.000999169
-0.00023272
0.00107531
-0.000234465
0.00115178
-0.00023601
0.00122852
-0.000237357
0.00130547
-0.000238507
0.00138256
-0.000239463
0.00145974
-0.000240228
0.00153694
-0.000240806
0.00161411
-0.000241203
0.00169119
-0.000241423
0.00176814
-0.000241472
0.00184489
-0.000241356
0.0019214
-0.000241081
0.00199762
-0.000240652
0.00207352
-0.000240078
0.00214905
-0.000239365
0.00222417
-0.000238519
0.00229884
-0.000237549
0.00237304
-0.000236462
0.00244673
-0.000235264
0.00251988
-0.000233964
0.00259247
-0.000232569
0.00266447
-0.000231086
0.00273587
-0.000229523
0.00280665
-0.000227886
0.00287679
-0.000226185
0.00294627
-0.000224425
0.0030151
-0.000222614
0.00308326
-0.000220758
0.00315074
-0.000218866
0.00321754
-0.000216943
0.00328366
-0.000214997
0.0033491
-0.000213034
0.00341386
-0.000211062
0.00347795
-0.000209086
0.00354138
-0.000207113
0.00360416
-0.000205151
0.00366629
-0.000203205
0.00372779
-0.000201283
0.00378867
-0.000199392
0.00384896
-0.000197539
0.00390867
-0.000195731
0.00396783
-0.000193977
0.00402646
-0.000192286
0.00408459
-0.000190666
0.00414225
-0.000189132
0.00419947
-0.000187689
0.0042563
-0.000186364
0.00431277
-0.000185149
0.00436892
-0.000184114
0.00442482
-0.000183204
0.00448047
-0.000182528
0.00453605
-0.000182156
-0.000181588
0.000234329
-0.000106815
0.000267544
-0.000113616
0.000302413
-0.000120452
0.000338923
-0.000127316
0.000377064
-0.000134205
0.000416823
-0.000141111
0.000458185
-0.000148026
0.000501134
-0.000154943
0.000545652
-0.000161852
0.000591718
-0.000168743
0.000639309
-0.000175605
0.000688401
-0.000182426
0.000738966
-0.000189195
0.000790974
-0.000195898
0.000844392
-0.000202524
0.000899185
-0.000209058
0.000955314
-0.000215489
0.00101274
-0.000221802
0.00107141
-0.000227986
0.00113129
-0.000234027
0.00119233
-0.000239914
0.00125446
-0.00024564
0.00131761
-0.000251188
0.00138185
-0.000256491
0.00144702
-0.000261608
0.00151309
-0.000266521
0.00157998
-0.000271211
0.00164764
-0.00027567
0.001716
-0.000279891
0.00178501
-0.000283867
0.0018546
-0.000287592
0.00192472
-0.000291062
0.00199528
-0.000294273
0.00206624
-0.000297222
0.00213753
-0.000299907
0.00220909
-0.000302329
0.00228086
-0.000304486
0.00235277
-0.00030638
0.00242478
-0.000308014
0.00249681
-0.000309391
0.00256882
-0.000310514
0.00264075
-0.00031139
0.00271254
-0.000312021
0.00278415
-0.000312416
0.00285553
-0.00031258
0.00292662
-0.000312521
0.0029974
-0.000312247
0.00306781
-0.000311765
0.00313781
-0.000311085
0.00320737
-0.000310215
0.00327646
-0.000309165
0.00334504
-0.000307943
0.00341308
-0.000306561
0.00348056
-0.000305026
0.00354745
-0.00030335
0.00361372
-0.000301542
0.00367937
-0.000299612
0.00374437
-0.00029757
0.00380871
-0.000295426
0.00387238
-0.00029319
0.00393537
-0.000290871
0.00399766
-0.000288479
0.00405926
-0.000286023
0.00412016
-0.000283513
0.00418036
-0.000280958
0.00423986
-0.000278367
0.00429866
-0.000275748
0.00435678
-0.000273112
0.00441421
-0.000270465
0.00447096
-0.000267818
0.00452706
-0.000265178
0.0045825
-0.000262555
0.0046373
-0.000259955
0.00469149
-0.000257389
0.00474507
-0.000254864
0.00479807
-0.00025239
0.0048505
-0.000249976
0.0049024
-0.000247631
0.00495379
-0.000245365
0.0050047
-0.00024319
0.00505514
-0.000241115
0.00510517
-0.000239158
0.00515481
-0.000237324
0.00520409
-0.000235646
0.00525306
-0.000234119
0.00530174
-0.000232794
0.00535021
-0.000231677
0.00539842
-0.000230742
0.00544656
-0.000230296
-0.00022975
0.00174843
-0.000138977
0.00178231
-0.000147492
0.00181787
-0.000156013
0.00185509
-0.000164533
0.00189393
-0.000173046
0.00193436
-0.000181544
0.00197635
-0.000190018
0.00201987
-0.000198459
0.00206487
-0.000206855
0.00211132
-0.000215195
0.00215918
-0.000223467
0.00220841
-0.000231656
0.00225897
-0.00023975
0.0023108
-0.000247734
0.00236387
-0.000255593
0.00241813
-0.000263312
0.00247352
-0.000270877
0.00252999
-0.000278273
0.00258749
-0.000285486
0.00264596
-0.0002925
0.00270535
-0.000299302
0.00276558
-0.000305878
0.00282661
-0.000312216
0.00288841
-0.000318289
0.0029509
-0.000324099
0.00301402
-0.000329636
0.00307769
-0.000334889
0.00314187
-0.00033985
0.00320649
-0.000344511
0.00327149
-0.000348866
0.00333681
-0.000352909
0.00340239
-0.000356637
0.00346816
-0.000360047
0.00353408
-0.000363136
0.00360007
-0.000365905
0.0036661
-0.000368353
0.00373209
-0.000370483
0.00379801
-0.000372297
0.0038638
-0.000373799
0.0039294
-0.000374994
0.00399477
-0.000375889
0.00405987
-0.000376489
0.00412465
-0.000376802
0.00418907
-0.000376837
0.0042531
-0.000376602
0.00431668
-0.000376107
0.0043798
-0.000375363
0.00444241
-0.000374379
0.00450449
-0.000373167
0.00456602
-0.000371738
0.00462696
-0.000370104
0.00468729
-0.000368277
0.004747
-0.000366268
0.00480606
-0.00036409
0.00486447
-0.000361755
0.0049222
-0.000359275
0.00497925
-0.000356663
0.00503561
-0.00035393
0.00509127
-0.000351088
0.00514623
-0.00034815
0.00520049
-0.000345127
0.00525404
-0.00034203
0.00530689
-0.000338871
0.00535904
-0.000335662
0.00541049
-0.000332413
0.00546126
-0.000329135
0.00551135
-0.000325838
0.00556077
-0.000322534
0.00560954
-0.000319231
0.00565766
-0.000315942
0.00570516
-0.000312675
0.00575204
-0.00030944
0.00579834
-0.000306248
0.00584406
-0.000303109
0.00588922
-0.000300032
0.00593386
-0.000297029
0.00597799
-0.000294109
0.00602165
-0.000291283
0.00606485
-0.000288564
0.00610762
-0.000285963
0.00615
-0.000283493
0.00619201
-0.00028117
0.00623369
-0.000279007
0.00627507
-0.000277023
0.00631619
-0.000275242
0.00635706
-0.00027366
0.00639776
-0.000272382
0.00643825
-0.000271231
0.00647864
-0.000270682
-0.000270128
0.0034102
0.00344025
-0.00017754
0.00347215
-0.000187912
0.00350584
-0.000198223
0.00354126
-0.000208465
0.00357834
-0.000218631
0.00361704
-0.000228713
0.00365728
-0.000238702
0.00369901
-0.000248585
0.00374217
-0.000258351
0.00378669
-0.000267987
0.00383251
-0.00027748
0.00387957
-0.000286814
0.00392782
-0.000295976
0.00397717
-0.00030495
0.00402758
-0.00031372
0.00407898
-0.000322273
0.0041313
-0.000330593
0.00418447
-0.000338664
0.00423845
-0.000346472
0.00429315
-0.000354003
0.00434851
-0.000361243
0.00440448
-0.00036818
0.00446099
-0.000374798
0.00451797
-0.000381087
0.00457538
-0.00038704
0.00463314
-0.000392647
0.00469119
-0.000397901
0.00474947
-0.000402796
0.00480793
-0.000407325
0.00486651
-0.000411487
0.00492515
-0.000415277
0.0049838
-0.000418695
0.0050424
-0.000421741
0.00510091
-0.000424415
0.00515928
-0.000426721
0.00521746
-0.000428661
0.0052754
-0.000430241
0.00533307
-0.000431467
0.00539042
-0.000432345
0.00544742
-0.000432885
0.00550402
-0.000433094
0.0055602
-0.000432983
0.00561593
-0.000432562
0.00567117
-0.000431843
0.0057259
-0.000430836
0.00578009
-0.000429556
0.00583373
-0.000428014
0.00588678
-0.000426223
0.00593924
-0.000424198
0.00599109
-0.000421952
0.00604231
-0.000419499
0.0060929
-0.000416854
0.00614284
-0.000414029
0.00619212
-0.000411041
0.00624075
-0.000407901
0.00628871
-0.000404626
0.00633601
-0.000401228
0.00638264
-0.000397722
0.00642861
-0.00039412
0.00647393
-0.000390437
0.00651858
-0.000386685
0.00656259
-0.000382878
0.00660595
-0.000379028
0.00664869
-0.000375147
0.0066908
-0.000371248
0.00673231
-0.000367343
0.00677322
-0.000363443
0.00681354
-0.00035956
0.00685331
-0.000355706
0.00689253
-0.000351891
0.00693121
-0.000348127
0.00696939
-0.000344424
0.00700707
-0.000340795
0.00704429
-0.00033725
0.00708106
-0.0003338
0.00711741
-0.000330458
0.00715336
-0.000327234
0.00718894
-0.000324143
0.00722417
-0.000321195
0.00725909
-0.000318408
0.00729371
-0.000315792
0.00732807
-0.000313371
0.00736219
-0.000311144
0.00739612
-0.000309172
0.00742985
-0.000307388
0.00746346
-0.000305988
0.00749691
-0.000304682
0.00753026
-0.000304028
-0.000303429
0.00513325
0.00515669
-0.000211352
0.00518216
-0.000223687
0.00520955
-0.000235857
0.00523878
-0.000247857
0.00526975
-0.000259682
0.00530237
-0.000271324
0.00533655
-0.000282772
0.00537222
-0.000294016
0.00540928
-0.000305044
0.00544764
-0.000315845
0.00548723
-0.000326405
0.00552797
-0.000336712
0.00556977
-0.000346752
0.00561256
-0.000356511
0.00565626
-0.000365974
0.0057008
-0.00037513
0.0057461
-0.000383963
0.00579209
-0.000392462
0.0058387
-0.000400613
0.00588586
-0.000408405
0.00593351
-0.000415825
0.00598157
-0.000422864
0.00603
-0.000429512
0.00607872
-0.000435762
0.00612768
-0.000441605
0.00617682
-0.000447038
0.00622608
-0.000452055
0.00627541
-0.000456655
0.00632475
-0.000460834
0.00637407
-0.000464594
0.00642331
-0.000467935
0.00647243
-0.000470859
0.00652138
-0.00047337
0.00657013
-0.000475472
0.00661864
-0.000477171
0.00666688
-0.000478474
0.0067148
-0.000479391
0.00676238
-0.000479929
0.0068096
-0.000480099
0.00685642
-0.000479913
0.00690282
-0.000479383
0.00694878
-0.00047852
0.00699427
-0.000477339
0.00703929
-0.000475854
0.00708381
-0.000474078
0.00712782
-0.000472026
0.00717132
-0.000469714
0.00721427
-0.000467157
0.00725669
-0.00046437
0.00729856
-0.00046137
0.00733988
-0.000458171
0.00738064
-0.00045479
0.00742084
-0.000451243
0.00746049
-0.000447544
0.00749957
-0.00044371
0.0075381
-0.000439756
0.00757607
-0.000435696
0.0076135
-0.000431547
0.00765038
-0.000427321
0.00768673
-0.000423034
0.00772255
-0.0004187
0.00775786
-0.000414332
0.00779266
-0.000409945
0.00782696
-0.00040555
0.00786078
-0.000401161
0.00789412
-0.000396791
0.00792702
-0.000392452
0.00795947
-0.000388157
0.00799149
-0.000383917
0.00802311
-0.000379745
0.00805434
-0.000375652
0.0080852
-0.000371651
0.0081157
-0.000367753
0.00814587
-0.00036397
0.00817573
-0.000360315
0.00820529
-0.0003568
0.00823459
-0.00035344
0.00826364
-0.000350244
0.00829247
-0.000347234
0.00832108
-0.000344411
0.00834953
-0.000341817
0.00837781
-0.000339422
0.00840596
-0.000337327
0.00843399
-0.000335411
0.00846193
-0.000333929
0.00848979
-0.000332538
0.00851756
-0.000331801
-0.000331145
0.00674449
-0.000222607
0.00675803
-0.000237231
0.00677373
-0.000251558
0.00679146
-0.000265589
0.00681111
-0.000279324
0.00683254
-0.000292758
0.00685565
-0.000305886
0.00688034
-0.000318701
0.00690649
-0.000331195
0.006934
-0.00034336
0.00696279
-0.000355186
0.00699274
-0.000366664
0.00702377
-0.000377783
0.00705579
-0.000388534
0.00708872
-0.000398905
0.00712248
-0.000408886
0.00715698
-0.000418466
0.00719216
-0.000427637
0.00722793
-0.000436388
0.00726424
-0.000444711
0.00730101
-0.000452596
0.00733818
-0.000460038
0.0073757
-0.00046703
0.0074135
-0.000473566
0.00745154
-0.000479642
0.00748976
-0.000485257
0.00752811
-0.000490406
0.00756655
-0.000495092
0.00760503
-0.000499315
0.00764351
-0.000503077
0.00768196
-0.000506381
0.00772033
-0.000509233
0.0077586
-0.000511637
0.00779673
-0.000513602
0.00783469
-0.000515134
0.00787246
-0.000516244
0.00791001
-0.000516942
0.00794732
-0.000517239
0.00798437
-0.000517147
0.00802114
-0.000516681
0.00805761
-0.000515852
0.00809376
-0.000514676
0.00812959
-0.000513169
0.00816508
-0.000511344
0.00820022
-0.000509218
0.00823501
-0.000506808
0.00826942
-0.00050413
0.00830347
-0.000501201
0.00833713
-0.000498036
0.00837042
-0.000494655
0.00840332
-0.000491072
0.00843583
-0.000487306
0.00846797
-0.000483373
0.00849971
-0.000479289
0.00853107
-0.000475072
0.00856205
-0.000470736
0.00859265
-0.000466299
0.00862288
-0.000461777
0.00865275
-0.000457183
0.00868225
-0.000452535
0.00871139
-0.000447845
0.00874019
-0.00044313
0.00876865
-0.000438403
0.00879678
-0.000433679
0.00882459
-0.00042897
0.00885208
-0.00042429
0.00887928
-0.000419652
0.0089062
-0.00041507
0.00893284
-0.000410556
0.00895921
-0.000406122
0.00898534
-0.000401781
0.00901124
-0.000397545
0.00903691
-0.000393428
0.00906238
-0.00038944
0.00908766
-0.000385597
0.00911277
-0.000381908
0.00913772
-0.000378391
0.00916253
-0.000375052
0.00918721
-0.00037192
0.00921179
-0.000368983
0.00923627
-0.0003663
0.00926067
-0.00036382
0.00928501
-0.000361666
0.00930929
-0.00035969
0.00933352
-0.000358167
0.00935773
-0.000356749
0.00938191
-0.000355973
-0.000355283
0.00808667
0.00808772
-0.000238281
0.00809101
-0.000254848
0.0080964
-0.00027098
0.00810376
-0.000286682
0.00811296
-0.000301957
0.00812387
-0.000316805
0.0081364
-0.000331226
0.00815042
-0.000345218
0.00816584
-0.000358777
0.00818255
-0.000371899
0.00820047
-0.000384579
0.0082195
-0.000396811
0.00823955
-0.000408589
0.00826056
-0.000419907
0.00828243
-0.000430758
0.0083051
-0.000441135
0.00832849
-0.000451033
0.00835255
-0.000460446
0.00837721
-0.000469369
0.00840241
-0.000477796
0.0084281
-0.000485725
0.00845422
-0.000493152
0.00848073
-0.000500074
0.00850757
-0.000506491
0.00853472
-0.000512403
0.00856213
-0.000517812
0.00858975
-0.000522719
0.00861757
-0.000527127
0.00864553
-0.00053104
0.00867361
-0.000534465
0.00870179
-0.000537408
0.00873003
-0.000539878
0.00875831
-0.000541882
0.0087866
-0.000543431
0.0088149
-0.000544535
0.00884316
-0.000545208
0.00887138
-0.000545461
0.00889955
-0.00054531
0.00892763
-0.000544768
0.00895563
-0.00054385
0.00898353
-0.000542572
0.00901131
-0.000540951
0.00903897
-0.000539002
0.00906649
-0.000536744
0.00909388
-0.000534192
0.00912111
-0.000531365
0.00914819
-0.00052828
0.00917511
-0.000524955
0.00920186
-0.000521408
0.00922845
-0.000517656
0.00925486
-0.000513717
0.00928109
-0.000509608
0.00930715
-0.000505348
0.00933303
-0.000500953
0.00935874
-0.00049644
0.00938426
-0.000491825
0.00940961
-0.000487126
0.00943479
-0.000482358
0.00945979
-0.000477536
0.00948462
-0.000472677
0.00950929
-0.000467796
0.00953379
-0.000462907
0.00955814
-0.000458025
0.00958233
-0.000453163
0.00960638
-0.000448337
0.00963028
-0.000443559
0.00965406
-0.000438843
0.0096777
-0.000434202
0.00970123
-0.000429649
0.00972465
-0.000425198
0.00974796
-0.00042086
0.00977118
-0.000416649
0.00979432
-0.000412577
0.00981738
-0.00040866
0.00984038
-0.000404905
0.00986332
-0.000401334
0.00988622
-0.000397947
0.00990907
-0.000394779
0.0099319
-0.000391813
0.00995472
-0.000389113
0.00997751
-0.000386617
0.0100003
-0.000384458
0.0100231
-0.000382479
0.0100459
-0.000380952
0.0100687
-0.000379533
0.0100914
-0.000378741
-0.000378081
0.00904433
-0.000228699
0.00903691
-0.000247423
0.00903153
-0.000265597
0.00902807
-0.00028323
0.00902645
-0.000300329
0.00902654
-0.000316898
0.00902825
-0.000332941
0.00903149
-0.000348459
0.00903617
-0.000363454
0.0090422
-0.000377926
0.00904949
-0.000391873
0.00905798
-0.000405295
0.00906757
-0.000418188
0.00907822
-0.000430551
0.00908984
-0.00044238
0.00910238
-0.000453673
0.00911577
-0.000464428
0.00912997
-0.000474641
0.00914491
-0.00048431
0.00916055
-0.000493435
0.00917684
-0.000502014
0.00919373
-0.000510047
0.00921119
-0.000517534
0.00922918
-0.000524478
0.00924766
-0.000530879
0.00926659
-0.000536741
0.00928594
-0.00054207
0.00930568
-0.000546869
0.00932579
-0.000551146
0.00934623
-0.000554908
0.00936698
-0.000558162
0.00938802
-0.000560919
0.00940933
-0.000563188
0.00943088
-0.000564982
0.00945266
-0.000566313
0.00947464
-0.000567194
0.00949682
-0.000567637
0.00951917
-0.000567659
0.00954168
-0.000567274
0.00956432
-0.000566498
0.0095871
-0.000565348
0.00960999
-0.000563841
0.00963298
-0.000561994
0.00965606
-0.000559824
0.00967922
-0.000557351
0.00970245
-0.000554591
0.00972573
-0.000551564
0.00974906
-0.000548288
0.00977244
-0.00054478
0.00979584
-0.000541061
0.00981927
-0.000537147
0.00984272
-0.000533057
0.00986618
-0.000528809
0.00988965
-0.000524421
0.00991312
-0.000519911
0.00993659
-0.000515294
0.00996005
-0.00051059
0.00998351
-0.000505813
0.010007
-0.000500981
0.0100304
-0.00049611
0.0100538
-0.000491214
0.0100772
-0.000486311
0.0101006
-0.000481413
0.010124
-0.000476537
0.0101473
-0.000471697
0.0101707
-0.000466906
0.010194
-0.000462179
0.0102173
-0.00045753
0.0102407
-0.00045297
0.010264
-0.000448516
0.0102873
-0.000444178
0.0103106
-0.000439971
0.0103339
-0.000435906
0.0103573
-0.000432
0.0103806
-0.000428259
0.010404
-0.000424707
0.0104274
-0.000421343
0.0104508
-0.000418202
0.0104743
-0.000415264
0.0104978
-0.000412594
0.0105213
-0.00041013
0.0105448
-0.000407999
0.0105684
-0.000406054
0.010592
-0.000404542
0.0106156
-0.000403157
0.0106392
-0.000402355
-0.00040157
0.0147086
-0.000197948
0.0146792
-0.000218051
0.0146512
-0.000237532
0.0146243
-0.000256398
0.0145987
-0.000274657
0.0145741
-0.000292314
0.0145505
-0.000309373
0.0145279
-0.000325839
0.0145062
-0.000341715
0.0144852
-0.000357003
0.0144651
-0.000371704
0.0144456
-0.000385821
0.0144268
-0.000399352
0.0144085
-0.0004123
0.0143908
-0.000424665
0.0143736
-0.000436448
0.0143568
-0.000447649
0.0143404
-0.000458269
0.0143244
-0.000468309
0.0143088
-0.000477772
0.0142934
-0.00048666
0.0142783
-0.000494976
0.0142635
-0.000502723
0.0142489
-0.000509905
0.0142346
-0.000516529
0.0142205
-0.000522599
0.0142065
-0.000528123
0.0141927
-0.000533108
0.0141792
-0.000537563
0.0141658
-0.000541498
0.0141525
-0.000544921
0.0141394
-0.000547845
0.0141265
-0.000550281
0.0141138
-0.000552242
0.0141012
-0.000553741
0.0140888
-0.000554792
0.0140766
-0.000555411
0.0140645
-0.000555611
0.0140527
-0.00055541
0.014041
-0.000554823
0.0140295
-0.000553868
0.0140182
-0.00055256
0.0140072
-0.000550918
0.0139963
-0.00054896
0.0139857
-0.000546703
0.0139752
-0.000544165
0.013965
-0.000541365
0.0139551
-0.00053832
0.0139453
-0.000535049
0.0139358
-0.00053157
0.0139266
-0.0005279
0.0139176
-0.000524058
0.0139088
-0.00052006
0.0139003
-0.000515925
0.0138921
-0.00051167
0.0138841
-0.000507311
0.0138764
-0.000502865
0.0138689
-0.000498348
0.0138617
-0.000493776
0.0138548
-0.000489165
0.0138481
-0.00048453
0.0138417
-0.000479887
0.0138355
-0.000475249
0.0138296
-0.000470632
0.013824
-0.000466049
0.0138186
-0.000461514
0.0138134
-0.000457041
0.0138085
-0.000452644
0.0138039
-0.000448334
0.0137995
-0.000444126
0.0137954
-0.000440031
0.0137915
-0.000436064
0.0137878
-0.000432235
0.0137843
-0.00042856
0.0137811
-0.000425045
0.0137781
-0.000421712
0.0137754
-0.000418561
0.0137728
-0.000415622
0.0137704
-0.00041288
0.0137682
-0.000410391
0.0137662
-0.000408102
0.0137643
-0.000406119
0.0137625
-0.000404321
0.0137609
-0.00040291
0.0137594
-0.000401629
0.0137579
-0.000400857
-0.000400095
0.0157389
-0.00016585
0.0157072
-0.000186367
0.0156759
-0.000206258
0.015645
-0.000225526
0.0156146
-0.000244176
0.0155845
-0.000262213
0.0155547
-0.000279639
0.0155253
-0.000296459
0.0154963
-0.000312673
0.0154676
-0.000328284
0.0154392
-0.000343294
0.015411
-0.000357704
0.0153832
-0.000371517
0.0153556
-0.000384733
0.0153283
-0.000397354
0.0153013
-0.000409382
0.0152744
-0.00042082
0.0152478
-0.000431669
0.0152215
-0.000441932
0.0151953
-0.000451613
0.0151694
-0.000460715
0.0151436
-0.000469244
0.0151181
-0.000477203
0.0150928
-0.000484599
0.0150677
-0.000491438
0.0150428
-0.000497727
0.0150182
-0.000503475
0.0149938
-0.000508689
0.0149696
-0.000513379
0.0149456
-0.000517556
0.014922
-0.000521229
0.0148985
-0.000524412
0.0148754
-0.000527116
0.0148525
-0.000529353
0.0148299
-0.000531138
0.0148076
-0.000532485
0.0147856
-0.000533409
0.0147639
-0.000533924
0.0147425
-0.000534046
0.0147215
-0.000533791
0.0147008
-0.000533177
0.0146804
-0.000532218
0.0146605
-0.000530933
0.0146408
-0.000529338
0.0146216
-0.000527452
0.0146027
-0.00052529
0.0145842
-0.000522872
0.0145661
-0.000520213
0.0145484
-0.000517332
0.0145311
-0.000514247
0.0145141
-0.000510973
0.0144976
-0.000507529
0.0144815
-0.000503931
0.0144657
-0.000500196
0.0144504
-0.000496341
0.0144355
-0.000492381
0.014421
-0.000488333
0.0144068
-0.000484213
0.0143931
-0.000480036
0.0143797
-0.000475816
0.0143668
-0.000471569
0.0143542
-0.00046731
0.014342
-0.000463052
0.0143302
-0.00045881
0.0143187
-0.000454596
0.0143076
-0.000450426
0.0142969
-0.000446311
0.0142865
-0.000442264
0.0142765
-0.000438299
0.0142668
-0.000434428
0.0142574
-0.000430662
0.0142484
-0.000427015
0.0142396
-0.000423497
0.0142312
-0.000420122
0.0142231
-0.000416898
0.0142152
-0.000413844
0.0142076
-0.000410959
0.0142002
-0.000408272
0.0141931
-0.00040577
0.0141862
-0.000403498
0.0141795
-0.000401417
0.014173
-0.000399611
0.0141667
-0.00039798
0.0141605
-0.000396694
0.0141544
-0.000395532
0.0141484
-0.00039483
-0.000394165
0.0162042
-0.00013871
0.0161767
-0.00015894
0.0161491
-0.000178566
0.0161211
-0.000197592
0.016093
-0.000216023
0.0160646
-0.00023386
0.0160361
-0.000251105
0.0160074
-0.00026776
0.0159785
-0.000283826
0.0159496
-0.000299304
0.0159205
-0.000314197
0.0158913
-0.000328505
0.015862
-0.000342229
0.0158326
-0.000355372
0.0158032
-0.000367935
0.0157737
-0.00037992
0.0157442
-0.000391329
0.0157147
-0.000402165
0.0156852
-0.000412432
0.0156558
-0.000422133
0.0156263
-0.000431272
0.0155969
-0.000439854
0.0155676
-0.000447885
0.0155384
-0.00045537
0.0155093
-0.000462317
0.0154803
-0.000468732
0.0154514
-0.000474623
0.0154227
-0.00048
0.0153942
-0.000484871
0.0153659
-0.000489247
0.0153378
-0.000493139
0.01531
-0.000496557
0.0152824
-0.000499514
0.015255
-0.000502022
0.015228
-0.000504094
0.0152012
-0.000505744
0.0151748
-0.000506986
0.0151487
-0.000507835
0.015123
-0.000508305
0.0150976
-0.000508412
0.0150726
-0.000508171
0.015048
-0.000507598
0.0150238
-0.000506709
0.0149999
-0.000505521
0.0149765
-0.000504049
0.0149536
-0.000502311
0.014931
-0.000500322
0.0149089
-0.0004981
0.0148872
-0.00049566
0.014866
-0.00049302
0.0148452
-0.000490196
0.0148249
-0.000487203
0.014805
-0.000484058
0.0147856
-0.000480777
0.0147666
-0.000477375
0.0147481
-0.000473867
0.0147301
-0.00047027
0.0147124
-0.000466598
0.0146953
-0.000462866
0.0146785
-0.000459088
0.0146622
-0.000455278
0.0146464
-0.00045145
0.014631
-0.000447618
0.0146159
-0.000443795
0.0146013
-0.000439994
0.0145871
-0.000436229
0.0145733
-0.000432511
0.0145599
-0.000428853
0.0145469
-0.000425267
0.0145342
-0.000421766
0.0145219
-0.000418359
0.01451
-0.00041506
0.0144984
-0.000411878
0.0144871
-0.000408827
0.0144761
-0.000405914
0.0144654
-0.000403155
0.014455
-0.000400553
0.0144448
-0.000398129
0.0144349
-0.000395876
0.0144253
-0.000393829
0.0144158
-0.000391959
0.0144065
-0.000390334
0.0143974
-0.000388874
0.0143885
-0.000387717
0.0143796
-0.000386683
0.0143708
-0.000386053
-0.000385417
0.0163534
-0.000116705
0.0163308
-0.000136291
0.0163075
-0.000155309
0.0162837
-0.000173761
0.0162593
-0.000191648
0.0162344
-0.000208971
0.0162091
-0.000225731
0.0161832
-0.00024193
0.016157
-0.000257569
0.0161303
-0.000272647
0.0161033
-0.000287167
0.0160759
-0.000301129
0.0160482
-0.000314535
0.0160202
-0.000327386
0.015992
-0.000339683
0.0159635
-0.000351429
0.0159348
-0.000362627
0.0159059
-0.000373278
0.0158769
-0.000383386
0.0158477
-0.000392955
0.0158184
-0.00040199
0.015789
-0.000410494
0.0157596
-0.000418473
0.0157302
-0.000425933
0.0157008
-0.000432881
0.0156713
-0.000439323
0.015642
-0.000445267
0.0156127
-0.000450723
0.0155835
-0.000455698
0.0155545
-0.000460202
0.0155256
-0.000464245
0.0154969
-0.000467838
0.0154684
-0.000470993
0.0154401
-0.000473721
0.015412
-0.000476034
0.0153842
-0.000477945
0.0153567
-0.000479467
0.0153295
-0.000480614
0.0153026
-0.0004814
0.015276
-0.000481839
0.0152498
-0.000481945
0.0152239
-0.000481734
0.0151984
-0.00048122
0.0151733
-0.000480418
0.0151486
-0.000479344
0.0151243
-0.000478013
0.0151004
-0.00047644
0.015077
-0.000474642
0.0150539
-0.000472633
0.0150313
-0.000470428
0.0150092
-0.000468044
0.0149875
-0.000465495
0.0149662
-0.000462796
0.0149454
-0.000459962
0.014925
-0.000457008
0.0149051
-0.000453949
0.0148856
-0.000450799
0.0148666
-0.000447571
0.014848
-0.000444281
0.0148299
-0.000440941
0.0148122
-0.000437565
0.0147949
-0.000434166
0.014778
-0.000430757
0.0147616
-0.000427351
0.0147456
-0.000423961
0.0147299
-0.000420597
0.0147147
-0.000417273
0.0146998
-0.000413999
0.0146854
-0.000410788
0.0146712
-0.000407651
0.0146575
-0.000404597
0.0146441
-0.00040164
0.014631
-0.000398787
0.0146182
-0.000396052
0.0146057
-0.000393441
0.0145935
-0.000390968
0.0145816
-0.000388636
0.0145699
-0.000386465
0.0145585
-0.000384448
0.0145473
-0.000382617
0.0145363
-0.000380944
0.0145255
-0.00037949
0.0145148
-0.000378185
0.0145042
-0.000377149
0.0144937
-0.000376218
0.0144833
-0.000375651
-0.000375075
0.0163578
-9.84206e-05
0.0163387
-0.000117237
0.0163189
-0.000135519
0.0162985