/*--------------------------------*- C++ -*----------------------------------*\
  =========                 |
  \\      /  F ield         | OpenFOAM: The Open Source CFD Toolbox
   \\    /   O peration     | Website:  https://openfoam.org
    \\  /    A nd           | Version:  7
     \\/     M anipulation  |
\*---------------------------------------------------------------------------*/
FoamFile
{
    version     2.0;
    format      ascii;
    class       volVectorField;
    location    "50";
    object      U;
}
// * * * * * * * * * * * * * * * * * * * * * * * * * * * * * * * * * * * * * //

dimensions      [0 1 -1 0 0 0 0];

internalField   nonuniform List<vector> 
3500
(
(-0.216236 -0.00134587 1.76362e-20)
(-0.214568 -0.00147466 -1.83397e-20)
(-0.212747 -0.0016049 7.72159e-21)
(-0.21077 -0.00173649 9.47307e-21)
(-0.208634 -0.00186932 -1.70041e-20)
(-0.206338 -0.00200323 1.98595e-20)
(-0.20388 -0.00213807 -1.94187e-20)
(-0.201257 -0.00227365 2.31196e-20)
(-0.198469 -0.00240977 -1.05362e-20)
(-0.195512 -0.00254623 -4.07715e-21)
(-0.192386 -0.0026828 7.34186e-22)
(-0.18909 -0.00281924 6.16681e-21)
(-0.185624 -0.00295532 3.58577e-21)
(-0.181985 -0.0030908 8.2059e-23)
(-0.178175 -0.00322542 -9.48955e-21)
(-0.174193 -0.00335895 -1.07496e-21)
(-0.170039 -0.00349114 -3.03808e-21)
(-0.165715 -0.00362177 6.40751e-21)
(-0.161222 -0.00375061 -5.46696e-22)
(-0.156561 -0.00387744 6.87269e-21)
(-0.151733 -0.00400207 -1.31486e-20)
(-0.146741 -0.00412421 6.64731e-21)
(-0.141587 -0.00424344 5.1262e-22)
(-0.136273 -0.00435965 -1.12628e-20)
(-0.130802 -0.00447337 5.41509e-21)
(-0.125178 -0.00458151 2.45829e-21)
(-0.119408 -0.00468662 1.40995e-21)
(-0.113496 -0.00478849 -3.31309e-21)
(-0.107445 -0.00488662 1.94614e-22)
(-0.10126 -0.00498085 1.03451e-20)
(-0.0949467 -0.00507108 -1.50941e-20)
(-0.0885096 -0.00515719 1.03981e-20)
(-0.0819544 -0.00523911 1.41863e-21)
(-0.0752866 -0.00531676 -1.42979e-21)
(-0.0685121 -0.0053901 -1.08529e-21)
(-0.0616369 -0.0054591 1.18059e-21)
(-0.0546671 -0.00552393 -2.24186e-21)
(-0.0476086 -0.00558513 -2.1091e-22)
(-0.040467 -0.0056421 -5.57227e-22)
(-0.0332493 -0.00569352 2.86799e-22)
(-0.0259623 -0.00574058 1.51652e-21)
(-0.0186119 -0.00578357 -2.84755e-21)
(-0.0112046 -0.00582254 -7.55416e-22)
(-0.00374783 -0.00585734 2.34166e-21)
(0.00375551 -0.00588731 1.63275e-21)
(0.0112995 -0.00591398 -1.94945e-21)
(0.0188749 -0.00593684 8.00634e-22)
(0.0264774 -0.00595577 -2.1279e-21)
(0.0341017 -0.0059709 1.40076e-21)
(0.0417423 -0.00598235 1.04283e-21)
(0.049394 -0.00599023 -7.91453e-22)
(0.0570516 -0.00599463 3.10862e-22)
(0.0647104 -0.00599566 5.3047e-22)
(0.0723656 -0.00599343 -1.66638e-21)
(0.0800128 -0.00598806 1.75757e-21)
(0.0876477 -0.00597965 -1.50942e-21)
(0.0952664 -0.00596833 1.36566e-21)
(0.102865 -0.00595423 -1.02035e-21)
(0.11044 -0.00593747 2.27866e-23)
(0.117989 -0.00591815 3.06223e-22)
(0.125507 -0.00589638 -1.9447e-22)
(0.132993 -0.00587231 -1.3066e-22)
(0.140443 -0.00584605 5.82876e-23)
(0.147855 -0.00581774 -4.55726e-22)
(0.155228 -0.00578751 1.22663e-22)
(0.162559 -0.00575548 -1.63543e-23)
(0.169847 -0.00572179 4.49975e-22)
(0.177089 -0.00568659 -1.89881e-22)
(0.184286 -0.00565001 -3.83094e-22)
(0.191436 -0.00561218 1.40102e-22)
(0.198538 -0.00557327 9.50745e-23)
(0.205591 -0.0055334 -1.30853e-22)
(0.212596 -0.00549275 1.16701e-22)
(0.219552 -0.00545147 8.08329e-23)
(0.226459 -0.00540971 -1.16659e-22)
(0.233318 -0.00536765 -2.41694e-23)
(0.240129 -0.00532547 8.33884e-23)
(0.246893 -0.00528336 -6.36221e-23)
(0.253611 -0.00524151 3.30131e-23)
(0.260285 -0.00520015 -1.55302e-23)
(0.266915 -0.00515952 -2.08278e-24)
(0.273505 -0.00511987 6.64126e-24)
(0.280056 -0.00508154 -3.78443e-24)
(0.286571 -0.00504483 -7.47379e-24)
(0.293053 -0.00501033 2.76203e-24)
(0.299505 -0.00497817 -1.20236e-24)
(0.305943 -0.00495024 -4.17085e-25)
(0.312317 -0.00492446 -2.68646e-25)
(0.318887 -0.0049088 -6.60558e-25)
(0.324592 -0.00489296 2.53085e-25)
(0.334657 -0.00486147 7.29972e-25)
(-0.174291 -0.00423534 -6.75278e-21)
(-0.172326 -0.00461431 5.13578e-20)
(-0.17021 -0.00499758 2.59934e-20)
(-0.16794 -0.00538502 -2.94785e-20)
(-0.165514 -0.00577639 4.81221e-20)
(-0.162932 -0.00617141 -5.365e-20)
(-0.160191 -0.0065697 5.22673e-20)
(-0.157289 -0.00697082 -3.78705e-20)
(-0.154227 -0.00737428 -2.84828e-20)
(-0.151002 -0.00777952 -6.14525e-21)
(-0.147614 -0.00818592 -1.84662e-21)
(-0.144063 -0.00859284 3.58743e-20)
(-0.140348 -0.00899956 1.60957e-20)
(-0.136469 -0.00940537 -3.51484e-20)
(-0.132426 -0.00980949 3.03679e-20)
(-0.128221 -0.0102112 3.10873e-21)
(-0.123853 -0.0106096 -2.70996e-20)
(-0.119325 -0.011004 2.45111e-21)
(-0.114637 -0.0113936 9.31831e-21)
(-0.109792 -0.0117776 3.85191e-21)
(-0.104792 -0.0121554 -1.23016e-22)
(-0.0996393 -0.0125263 -6.72739e-21)
(-0.0943369 -0.0128895 -1.77792e-20)
(-0.0888898 -0.0132467 1.00291e-20)
(-0.0832933 -0.0136065 -5.05562e-21)
(-0.0775555 -0.0139354 1.27798e-20)
(-0.0716874 -0.0142543 -3.33322e-22)
(-0.0656896 -0.0145639 6.25972e-21)
(-0.0595663 -0.0148623 -1.83951e-20)
(-0.0533225 -0.0151486 1.05396e-20)
(-0.0469633 -0.0154224 4.17289e-21)
(-0.0404941 -0.0156831 -1.61383e-20)
(-0.0339203 -0.0159303 2.64637e-20)
(-0.0272475 -0.0161637 -1.2717e-20)
(-0.0204815 -0.016383 -8.97639e-21)
(-0.0136285 -0.0165882 1.66386e-20)
(-0.00669583 -0.016779 -3.12592e-21)
(0.000311867 -0.0169552 -3.47974e-21)
(0.00739246 -0.0171165 -9.94702e-22)
(0.0145372 -0.0172632 5.81564e-21)
(0.0217367 -0.0173956 4.61111e-21)
(0.0289865 -0.0175138 -1.78955e-20)
(0.0362813 -0.0176181 2.7846e-21)
(0.043615 -0.0177084 9.58126e-22)
(0.0509822 -0.017784 -1.89141e-21)
(0.0583772 -0.0178472 9.61638e-21)
(0.0657941 -0.0178974 1.40326e-21)
(0.0732275 -0.0179348 -2.92014e-21)
(0.0806722 -0.0179598 -3.69976e-21)
(0.0881232 -0.0179729 5.49907e-21)
(0.0955755 -0.0179745 -2.40117e-21)
(0.103025 -0.017965 6.23825e-21)
(0.110466 -0.0179449 -5.73268e-21)
(0.117895 -0.0179146 -4.17724e-23)
(0.125308 -0.0178747 1.47695e-21)
(0.132701 -0.0178256 -1.10201e-21)
(0.140071 -0.0177679 -1.27985e-22)
(0.147413 -0.0177019 1.04299e-21)
(0.154726 -0.0176283 7.09972e-22)
(0.162005 -0.0175475 1.17731e-22)
(0.169249 -0.0174601 -5.35293e-22)
(0.176455 -0.0173665 4.97418e-22)
(0.18362 -0.0172673 -1.36515e-21)
(0.190744 -0.017163 -2.12262e-22)
(0.197823 -0.017054 4.26726e-22)
(0.204856 -0.0169409 -3.17593e-22)
(0.211843 -0.0168242 1.71698e-21)
(0.218781 -0.0167043 -1.05793e-21)
(0.225671 -0.0165817 3.07703e-22)
(0.232511 -0.0164569 7.79517e-22)
(0.239302 -0.0163305 -7.56845e-22)
(0.246042 -0.0162029 -1.64867e-24)
(0.252731 -0.0160745 -3.74474e-22)
(0.259371 -0.0159459 3.22134e-22)
(0.265962 -0.0158177 -8.55899e-24)
(0.272503 -0.0156902 -3.13125e-22)
(0.278996 -0.015564 1.47888e-22)
(0.285442 -0.0154397 1.09953e-22)
(0.291842 -0.0153179 -9.82358e-23)
(0.298198 -0.0151992 1.24091e-22)
(0.304511 -0.0150843 -1.41518e-22)
(0.310785 -0.0149739 7.65407e-23)
(0.31702 -0.014869 3.40903e-23)
(0.32322 -0.0147704 -1.85589e-23)
(0.32939 -0.01468 1.92944e-23)
(0.335526 -0.0145978 1.49957e-24)
(0.341659 -0.0145296 -8.03957e-25)
(0.3477 -0.0144691 -2.37668e-24)
(0.354014 -0.0144365 4.34467e-24)
(0.35931 -0.0144127 -1.70878e-25)
(0.368969 -0.0143578 -2.39531e-24)
(-0.0938715 -0.00789456 4.1877e-21)
(-0.0914229 -0.00851562 -6.3984e-20)
(-0.088825 -0.00914323 2.97983e-20)
(-0.0860766 -0.00977709 4.7328e-21)
(-0.0831771 -0.0104168 -4.68495e-20)
(-0.0801259 -0.0110618 1.0919e-21)
(-0.0769223 -0.0117114 4.68165e-20)
(-0.0735661 -0.012365 -4.70816e-20)
(-0.0700571 -0.0130217 1.98383e-20)
(-0.0663953 -0.0136806 -4.42782e-20)
(-0.062581 -0.0143407 8.58868e-20)
(-0.0586147 -0.015001 7.68012e-21)
(-0.0544971 -0.0156602 -7.21738e-20)
(-0.0502292 -0.0163172 2.82869e-20)
(-0.0458123 -0.0169707 -4.44507e-20)
(-0.0412479 -0.0176196 3.05014e-20)
(-0.0365379 -0.0182625 -2.81875e-21)
(-0.0316843 -0.0188981 3.85922e-20)
(-0.0266897 -0.0195252 -7.10714e-20)
(-0.0215569 -0.0201426 3.03245e-20)
(-0.0162888 -0.0207491 -2.48395e-20)
(-0.0108882 -0.0213435 1.14779e-20)
(-0.00536327 -0.0219254 3.97315e-20)
(0.000259431 -0.0224958 -2.03141e-20)
(0.00603496 -0.0230436 2.26194e-20)
(0.0119574 -0.0235686 -2.30034e-20)
(0.0179622 -0.0240786 -1.43269e-20)
(0.0240701 -0.0245699 3.40214e-20)
(0.0302806 -0.0250413 -6.49519e-21)
(0.0365879 -0.0254917 4.48857e-21)
(0.0429865 -0.0259206 6.35697e-21)
(0.049471 -0.026327 -1.08871e-20)
(0.0560359 -0.0267106 -1.31698e-20)
(0.0626756 -0.0270707 1.60589e-20)
(0.0693843 -0.0274071 -2.12986e-20)
(0.0761562 -0.0277197 -6.57945e-22)
(0.0829853 -0.028008 2.03699e-20)
(0.0898661 -0.0282711 7.79447e-21)
(0.0967932 -0.028509 -6.47854e-21)
(0.103761 -0.0287238 -1.62048e-20)
(0.110763 -0.0289149 2.40032e-20)
(0.117794 -0.0290821 -2.00257e-20)
(0.124848 -0.0292258 -4.82511e-21)
(0.13192 -0.0293465 1.89034e-20)
(0.139006 -0.0294445 -5.53765e-21)
(0.146099 -0.0295205 5.54053e-21)
(0.153194 -0.0295751 -5.05476e-21)
(0.160288 -0.0296088 -5.66717e-21)
(0.167375 -0.0296225 -2.44597e-21)
(0.174452 -0.0296168 8.13128e-21)
(0.181513 -0.0295924 -5.98414e-21)
(0.188555 -0.0295502 -3.61735e-21)
(0.195574 -0.029491 8.18189e-21)
(0.202566 -0.0294156 -6.81261e-21)
(0.209529 -0.0293249 -1.70413e-22)
(0.216459 -0.0292197 4.77404e-21)
(0.223353 -0.029101 1.38891e-21)
(0.230209 -0.0289696 5.05419e-22)
(0.237023 -0.0288263 -1.78306e-21)
(0.243795 -0.0286722 5.14273e-22)
(0.250522 -0.028508 -3.19273e-21)
(0.257202 -0.0283346 4.59237e-21)
(0.263833 -0.0281529 -3.59468e-21)
(0.270415 -0.0279638 2.75366e-22)
(0.276946 -0.0277682 4.62225e-22)
(0.283426 -0.0275668 3.17194e-21)
(0.289853 -0.0273605 -1.08458e-21)
(0.296227 -0.0271502 -2.64652e-22)
(0.302548 -0.0269366 -1.87544e-21)
(0.308816 -0.0267206 5.61131e-22)
(0.315031 -0.0265029 4.62183e-22)
(0.321193 -0.0262844 -4.2086e-23)
(0.327303 -0.0260659 -1.75105e-22)
(0.333361 -0.0258482 -8.60591e-23)
(0.339368 -0.0256321 -4.68757e-22)
(0.345325 -0.0254184 3.17062e-22)
(0.351234 -0.0252081 -4.01242e-23)
(0.357096 -0.0250019 4.43189e-22)
(0.362913 -0.0248008 5.3412e-25)
(0.368687 -0.0246059 -2.13394e-22)
(0.374419 -0.0244181 -7.65023e-23)
(0.380112 -0.0242387 1.1947e-22)
(0.385769 -0.0240693 -9.46978e-23)
(0.391391 -0.0239108 -1.34493e-23)
(0.396988 -0.0237664 3.59475e-23)
(0.402543 -0.0236353 -1.53681e-23)
(0.408121 -0.0235267 2.50267e-25)
(0.413546 -0.023432 -1.21694e-24)
(0.419383 -0.0233717 -1.99575e-24)
(0.423965 -0.0233414 4.74366e-24)
(0.432845 -0.0232837 -4.91359e-25)
(0.0225527 -0.0132895 1.43825e-20)
(0.0256272 -0.0141577 -1.44728e-19)
(0.0288504 -0.0150319 4.00269e-21)
(0.0322216 -0.0159114 4.85485e-20)
(0.0357399 -0.0167957 5.12438e-20)
(0.0394044 -0.0176838 4.17605e-21)
(0.0432137 -0.0185749 2.65124e-20)
(0.0471666 -0.0194679 -3.83874e-20)
(0.0512616 -0.0203615 6.44133e-21)
(0.0554968 -0.0212544 1.99696e-20)
(0.0598704 -0.0221451 5.19439e-22)
(0.0643801 -0.0230323 -6.16816e-20)
(0.0690235 -0.0239142 9.34557e-21)
(0.0737981 -0.0247894 1.97799e-20)
(0.0787009 -0.025656 2.63254e-21)
(0.0837288 -0.0265123 6.26228e-21)
(0.0888786 -0.0273568 -2.08496e-20)
(0.0941465 -0.0281877 5.18295e-20)
(0.0995288 -0.0290034 -8.15357e-20)
(0.105021 -0.0298022 2.03735e-20)
(0.11062 -0.0305828 -4.41252e-20)
(0.11632 -0.031345 1.1875e-19)
(0.122114 -0.0320862 -6.86763e-20)
(0.128001 -0.0327833 -2.16254e-20)
(0.133982 -0.0334677 -3.20883e-20)
(0.140043 -0.0341281 4.21299e-20)
(0.146182 -0.0347604 -3.10838e-21)
(0.152393 -0.0353638 -1.98384e-20)
(0.15867 -0.0359373 1.67185e-20)
(0.165009 -0.0364799 1.63253e-20)
(0.171403 -0.0369909 6.554e-21)
(0.177848 -0.0374696 -5.41317e-20)
(0.184337 -0.0379156 2.85469e-20)
(0.190865 -0.0383284 9.92759e-21)
(0.197427 -0.0387078 -2.43611e-21)
(0.204018 -0.0390537 -2.90378e-20)
(0.210631 -0.0393659 1.8809e-22)
(0.217262 -0.0396446 2.40576e-20)
(0.223906 -0.0398901 -9.4964e-21)
(0.230557 -0.0401028 2.19641e-20)
(0.237211 -0.0402831 3.32209e-22)
(0.243862 -0.0404316 -7.06519e-21)
(0.250507 -0.0405489 1.01447e-20)
(0.25714 -0.0406358 -2.27241e-20)
(0.263758 -0.0406931 9.85093e-21)
(0.270356 -0.0407217 4.73795e-21)
(0.276931 -0.0407226 -2.79167e-21)
(0.283479 -0.0406968 -1.30152e-20)
(0.289996 -0.0406453 1.14996e-20)
(0.296478 -0.0405693 1.09521e-20)
(0.302924 -0.04047 -7.83888e-21)
(0.30933 -0.0403484 -3.93627e-21)
(0.315694 -0.0402058 -2.75488e-21)
(0.322012 -0.0400435 9.91281e-21)
(0.328284 -0.0398627 -1.08597e-20)
(0.334507 -0.0396646 2.88693e-21)
(0.340679 -0.0394504 -2.77196e-21)
(0.346798 -0.0392215 1.13462e-21)
(0.352864 -0.0389791 1.86745e-21)
(0.358875 -0.0387244 9.22055e-22)
(0.364831 -0.0384586 -5.34579e-22)
(0.37073 -0.038183 -1.51202e-22)
(0.376572 -0.0378987 9.92981e-22)
(0.382357 -0.0376069 1.95054e-21)
(0.388084 -0.0373088 -1.81559e-21)
(0.393754 -0.0370056 8.35895e-22)
(0.399367 -0.0366983 -1.92276e-21)
(0.404923 -0.0363882 2.22615e-21)
(0.410423 -0.0360762 -1.49255e-21)
(0.415867 -0.0357635 -1.28939e-22)
(0.421257 -0.0354512 1.79191e-22)
(0.426593 -0.0351404 3.62083e-22)
(0.431876 -0.034832 -1.39379e-21)
(0.437109 -0.0345274 5.45658e-22)
(0.442292 -0.0342274 7.3603e-23)
(0.447427 -0.0339334 -4.27445e-22)
(0.452516 -0.0336464 5.25122e-22)
(0.457562 -0.0333677 -1.06148e-23)
(0.462565 -0.0330986 5.98182e-23)
(0.46753 -0.0328406 -8.5776e-23)
(0.472457 -0.0325949 -1.71956e-22)
(0.477352 -0.0323639 5.65035e-23)
(0.482211 -0.0321483 -4.57614e-23)
(0.487055 -0.0319525 7.37298e-23)
(0.49184 -0.0317752 3.61221e-24)
(0.496692 -0.0316258 -1.29824e-23)
(0.501304 -0.0314998 -5.31067e-25)
(0.506489 -0.0314044 -1.0251e-24)
(0.510207 -0.0313629 6.80478e-25)
(0.518002 -0.0313114 -1.49536e-24)
(0.163713 -0.0187139 8.07182e-20)
(0.167037 -0.0198149 -8.45064e-20)
(0.170513 -0.0209198 1.71723e-19)
(0.174138 -0.022028 -1.46927e-19)
(0.177909 -0.0231383 8.03151e-23)
(0.181823 -0.0242499 1.07692e-19)
(0.185876 -0.0253613 4.21942e-20)
(0.190067 -0.0264713 -8.28028e-20)
(0.19439 -0.0275783 -2.28374e-20)
(0.198843 -0.0286807 -6.16679e-22)
(0.203421 -0.0297768 -1.71173e-20)
(0.208121 -0.0308647 -8.47078e-21)
(0.212939 -0.0319425 7.244e-20)
(0.21787 -0.0330082 -7.21518e-20)
(0.222909 -0.0340597 2.22352e-21)
(0.228053 -0.0350951 4.81126e-20)
(0.233296 -0.0361123 1.02469e-20)
(0.238634 -0.0371092 2.29481e-20)
(0.244061 -0.0380837 -4.60647e-20)
(0.249572 -0.0390339 -6.75453e-21)
(0.255162 -0.0399579 4.01504e-20)
(0.260826 -0.040854 1.56598e-20)
(0.266557 -0.0417205 -5.16839e-20)
(0.27235 -0.0425526 1.3625e-20)
(0.278204 -0.0433512 -3.03542e-20)
(0.28411 -0.0441146 4.21184e-20)
(0.290062 -0.0448416 -1.00316e-19)
(0.296056 -0.045531 5.84866e-20)
(0.302085 -0.0461817 -1.67334e-20)
(0.308145 -0.0467928 3.97136e-20)
(0.314229 -0.0473635 -2.09764e-20)
(0.320333 -0.0478931 1.69959e-20)
(0.326451 -0.0483811 -6.46771e-20)
(0.332578 -0.0488273 8.92464e-20)
(0.338709 -0.0492315 -3.48291e-20)
(0.34484 -0.0495937 2.18646e-20)
(0.350966 -0.0499139 -2.38195e-20)
(0.357081 -0.0501926 1.20618e-20)
(0.363183 -0.0504302 -1.29896e-20)
(0.369265 -0.0506272 1.33085e-20)
(0.375326 -0.0507846 4.4789e-21)
(0.381359 -0.0509029 -1.98216e-20)
(0.387363 -0.0509833 -4.45888e-21)
(0.393334 -0.0510267 9.41333e-21)
(0.399267 -0.0510343 -7.39548e-21)
(0.405161 -0.0510073 -5.67165e-21)
(0.411012 -0.0509471 1.39929e-20)
(0.416818 -0.0508549 4.5729e-22)
(0.422576 -0.0507323 -1.08711e-20)
(0.428284 -0.0505806 -5.67518e-21)
(0.43394 -0.0504015 1.42879e-20)
(0.439543 -0.0501963 -2.62142e-21)
(0.44509 -0.0499668 -7.20634e-21)
(0.450581 -0.0497145 3.06611e-22)
(0.456014 -0.0494409 9.17085e-21)
(0.461388 -0.0491478 -1.44931e-21)
(0.466703 -0.0488365 -3.25331e-21)
(0.471957 -0.0485089 7.78035e-21)
(0.477151 -0.0481663 -3.66755e-21)
(0.482284 -0.0478104 -3.39e-21)
(0.487355 -0.0474427 -7.32318e-22)
(0.492366 -0.0470648 -5.85713e-21)
(0.497316 -0.046678 6.44006e-21)
(0.502206 -0.0462839 -1.13661e-21)
(0.507036 -0.045884 -1.01118e-22)
(0.511807 -0.0454796 9.25317e-22)
(0.51652 -0.0450722 7.81408e-22)
(0.521176 -0.044663 -2.19219e-21)
(0.525775 -0.0442535 1.58774e-21)
(0.53032 -0.043845 7.34633e-22)
(0.53481 -0.0434389 -2.60493e-21)
(0.539249 -0.0430364 3.96852e-23)
(0.543638 -0.0426388 1.47067e-21)
(0.547978 -0.0422475 -3.05788e-22)
(0.552271 -0.0418638 -1.0569e-22)
(0.556519 -0.0414891 3.1351e-22)
(0.560724 -0.0411248 -3.03558e-22)
(0.564889 -0.0407723 2.60015e-23)
(0.569015 -0.0404331 1.55317e-22)
(0.573107 -0.0401092 -1.40537e-22)
(0.577164 -0.0398017 -1.05513e-22)
(0.581195 -0.0395134 1.37317e-23)
(0.585187 -0.0392453 1.79796e-22)
(0.589182 -0.0390015 -1.20918e-22)
(0.593093 -0.0387826 -4.9878e-24)
(0.597125 -0.0385929 1.83395e-24)
(0.60083 -0.0384391 -1.26866e-23)
(0.605232 -0.0383088 -3.47161e-24)
(0.60808 -0.0382496 1.45795e-24)
(0.614584 -0.0381985 1.36617e-24)
(0.326426 -0.0240461 -3.74813e-20)
(0.329554 -0.025397 -4.99971e-20)
(0.332847 -0.0267453 -4.56188e-20)
(0.336299 -0.0280902 1.37317e-19)
(0.339904 -0.0294305 1.36433e-21)
(0.343657 -0.0307652 1.23257e-20)
(0.347551 -0.0320931 -7.68838e-20)
(0.35158 -0.0334126 7.60144e-20)
(0.355739 -0.0347222 -4.67518e-21)
(0.360021 -0.03602 6.89484e-21)
(0.364421 -0.0373041 -1.64731e-19)
(0.368931 -0.0385726 5.76433e-20)
(0.373546 -0.0398234 1.10302e-19)
(0.378259 -0.0410542 -1.03041e-19)
(0.383065 -0.0422631 -7.03606e-20)
(0.387956 -0.0434477 3.66708e-20)
(0.392928 -0.0446058 2.73397e-20)
(0.397972 -0.0457353 1.22756e-20)
(0.403084 -0.0468339 -3.01715e-20)
(0.408256 -0.0478996 1.18865e-19)
(0.413482 -0.0489302 -9.17535e-20)
(0.418757 -0.0499238 3.89924e-20)
(0.424074 -0.0508784 -6.01493e-20)
(0.429428 -0.0517915 2.87222e-20)
(0.434811 -0.0526619 2.35291e-20)
(0.44022 -0.0534885 1.50978e-21)
(0.445648 -0.05427 -1.35307e-20)
(0.45109 -0.0550052 -1.89874e-20)
(0.45654 -0.0556931 1.36802e-20)
(0.461993 -0.0563328 -3.69177e-20)
(0.467444 -0.0569236 3.43137e-20)
(0.472888 -0.0574653 2.51129e-21)
(0.478321 -0.0579573 -6.65996e-21)
(0.483737 -0.0583996 6.02484e-21)
(0.489134 -0.0587924 -3.85112e-20)
(0.494506 -0.0591357 -2.18382e-20)
(0.49985 -0.05943 7.95593e-20)
(0.505162 -0.059676 -8.02391e-20)
(0.51044 -0.0598742 9.85871e-20)
(0.515679 -0.0600257 -3.14772e-20)
(0.520876 -0.0601315 2.23012e-20)
(0.52603 -0.0601926 -6.47976e-20)
(0.531137 -0.0602105 -1.83137e-21)
(0.536195 -0.0601864 1.35091e-20)
(0.541203 -0.0601218 7.47492e-21)
(0.546157 -0.0600183 4.10918e-23)
(0.551057 -0.0598776 2.3443e-20)
(0.555901 -0.0597013 -2.26252e-20)
(0.560688 -0.0594912 1.39342e-20)
(0.565416 -0.0592491 1.34282e-21)
(0.570085 -0.0589769 -1.25195e-21)
(0.574694 -0.0586764 -1.67403e-20)
(0.579243 -0.0583494 9.39172e-21)
(0.58373 -0.057998 4.52662e-21)
(0.588156 -0.0576239 5.80508e-21)
(0.592521 -0.0572292 -8.04122e-21)
(0.596825 -0.0568156 -1.35978e-20)
(0.601067 -0.056385 3.54399e-21)
(0.605249 -0.0559393 9.35454e-21)
(0.609371 -0.0554803 -4.71226e-21)
(0.613433 -0.0550097 2.03484e-23)
(0.617436 -0.0545295 3.37996e-21)
(0.621381 -0.0540412 -1.74415e-21)
(0.625268 -0.0535466 -2.0322e-21)
(0.6291 -0.0530473 5.30174e-21)
(0.632877 -0.052545 -4.28087e-21)
(0.6366 -0.0520413 2.94021e-21)
(0.640272 -0.0515378 -6.48994e-22)
(0.643892 -0.051036 -1.93704e-21)
(0.647463 -0.0505374 1.7109e-22)
(0.650986 -0.0500435 -5.36558e-22)
(0.654463 -0.0495559 1.27382e-21)
(0.657897 -0.049076 1.0232e-21)
(0.661288 -0.0486053 -2.45243e-22)
(0.664638 -0.0481453 -7.54204e-22)
(0.667951 -0.0476976 -1.28848e-21)
(0.671227 -0.0472637 1.39464e-21)
(0.67447 -0.0468453 -6.45863e-22)
(0.67768 -0.046444 2.25168e-22)
(0.680863 -0.0460617 1.08396e-22)
(0.684014 -0.0457001 1.84014e-22)
(0.687151 -0.0453615 -2.73364e-22)
(0.690244 -0.0450482 3.27562e-23)
(0.693362 -0.0447617 4.80817e-23)
(0.696374 -0.0445076 -1.06614e-23)
(0.699551 -0.0442816 -4.05401e-24)
(0.702354 -0.0441035 2.26106e-23)
(0.705887 -0.0439437 -1.8025e-23)
(0.707952 -0.0438641 1.32987e-24)
(0.713073 -0.0438026 -1.4962e-24)
(0.506191 -0.0300438 -2.56274e-19)
(0.508753 -0.0316459 3.44023e-19)
(0.511493 -0.0332344 -3.39191e-19)
(0.514401 -0.0348083 1.7455e-19)
(0.517467 -0.0363665 -2.07986e-19)
(0.520682 -0.0379081 8.57282e-20)
(0.524038 -0.0394315 2.00432e-19)
(0.527525 -0.0409351 8.66646e-21)
(0.531135 -0.0424173 -3.40322e-20)
(0.534858 -0.0438761 -2.60372e-19)
(0.538686 -0.0453096 8.16335e-20)
(0.542611 -0.0467156 1.51057e-19)
(0.546624 -0.0480922 -1.28991e-19)
(0.550717 -0.049437 9.70654e-20)
(0.554883 -0.0507479 -9.55706e-20)
(0.559113 -0.0520228 1.1607e-19)
(0.563401 -0.0532594 -9.39356e-20)
(0.567737 -0.0544556 -4.90818e-20)
(0.572117 -0.0556094 3.72789e-20)
(0.576531 -0.0567188 9.51123e-21)
(0.580975 -0.0577819 -7.36535e-22)
(0.58544 -0.0587968 -5.44602e-20)
(0.589921 -0.0597619 7.00727e-20)
(0.594413 -0.0606756 1.03283e-21)
(0.598909 -0.0615366 8.57931e-21)
(0.603403 -0.062344 -9.51041e-21)
(0.607892 -0.0630966 -1.34595e-20)
(0.612369 -0.0637939 2.58911e-20)
(0.61683 -0.0644352 -2.9173e-20)
(0.621272 -0.0650201 -5.07664e-21)
(0.625688 -0.0655486 7.57031e-21)
(0.630077 -0.0660205 3.09614e-20)
(0.634434 -0.066436 8.53658e-21)
(0.638756 -0.0667956 -3.93579e-20)
(0.64304 -0.0670997 5.40123e-20)
(0.647284 -0.0673492 -1.51582e-20)
(0.651484 -0.0675447 7.75621e-21)
(0.655639 -0.0676876 -5.2275e-20)
(0.659746 -0.0677788 -6.09902e-21)
(0.663804 -0.0678199 3.97897e-20)
(0.667811 -0.0678123 1.96813e-20)
(0.671766 -0.0677575 7.07964e-21)
(0.675668 -0.0676573 -2.94263e-20)
(0.679515 -0.0675135 -2.07572e-22)
(0.683308 -0.0673279 -1.55084e-20)
(0.687045 -0.0671025 -1.37261e-20)
(0.690726 -0.0668393 2.99482e-21)
(0.69435 -0.0665403 4.56622e-20)
(0.697918 -0.0662077 -7.59682e-21)
(0.70143 -0.0658435 -3.96086e-20)
(0.704886 -0.0654499 2.92378e-20)
(0.708285 -0.0650291 -9.17244e-21)
(0.711629 -0.0645831 1.25155e-20)
(0.714918 -0.0641142 -1.11782e-20)
(0.718152 -0.0636244 2.45916e-21)
(0.721333 -0.0631159 1.26146e-20)
(0.724461 -0.0625908 -1.68056e-20)
(0.727536 -0.0620511 6.86656e-21)
(0.73056 -0.0614988 4.05496e-21)
(0.733535 -0.0609359 -6.32654e-21)
(0.73646 -0.0603644 5.88038e-22)
(0.739337 -0.0597862 -5.81444e-22)
(0.742168 -0.0592032 7.95814e-21)
(0.744953 -0.0586171 -5.10039e-21)
(0.747695 -0.0580298 -6.12447e-21)
(0.750394 -0.057443 1.02134e-20)
(0.753051 -0.0568585 -6.86369e-21)
(0.755669 -0.0562779 -2.69598e-21)
(0.75825 -0.0557029 6.80855e-21)
(0.760793 -0.0551351 -2.07618e-21)
(0.763302 -0.0545762 -6.93126e-22)
(0.765777 -0.0540277 2.06056e-21)
(0.768222 -0.0534913 -1.96498e-21)
(0.770636 -0.0529686 6.08755e-22)
(0.773023 -0.0524613 1.86753e-22)
(0.775384 -0.051971 -1.6243e-22)
(0.777721 -0.0514994 -4.43e-22)
(0.780035 -0.0510483 4.31442e-22)
(0.782332 -0.0506195 -2.42195e-22)
(0.784603 -0.0502154 4.89172e-22)
(0.786873 -0.049837 1.70193e-22)
(0.7891 -0.0494887 1.07264e-22)
(0.791368 -0.0491686 -2.30563e-22)
(0.793524 -0.0488877 1.31489e-22)
(0.795861 -0.0486333 -3.48217e-23)
(0.797835 -0.0484353 4.72418e-23)
(0.800473 -0.0482537 2.72393e-24)
(0.801879 -0.0481564 -6.30024e-24)
(0.805638 -0.0480788 5.81725e-25)
(0.688392 -0.0344926 -1.20746e-19)
(0.689913 -0.0363794 1.57161e-19)
(0.691618 -0.0382343 -3.95656e-19)
(0.693493 -0.0400567 4.51279e-19)
(0.695526 -0.041846 -1.81915e-19)
(0.697706 -0.0436009 -8.94291e-20)
(0.70002 -0.0453204 1.64536e-19)
(0.702458 -0.0470031 -2.35455e-19)
(0.705008 -0.0486476 3.89269e-19)
(0.70766 -0.0502524 -3.43972e-19)
(0.710404 -0.0518158 7.71669e-20)
(0.71323 -0.0533363 9.06026e-20)
(0.716129 -0.0548121 -1.38729e-19)
(0.719092 -0.0562415 -3.05273e-20)
(0.72211 -0.0576227 9.34256e-20)
(0.725174 -0.058954 -1.48365e-19)
(0.728278 -0.0602336 2.51095e-19)
(0.731413 -0.0614601 -1.35815e-19)
(0.734572 -0.0626318 2.43916e-20)
(0.737749 -0.0637472 5.65337e-20)
(0.740937 -0.0648049 -7.90753e-20)
(0.744131 -0.0658038 -7.43412e-22)
(0.747324 -0.0667426 7.40897e-20)
(0.750512 -0.0676205 -3.54509e-20)
(0.753689 -0.0684368 -3.63425e-20)
(0.756852 -0.0691909 2.22951e-20)
(0.759996 -0.0698824 4.5524e-20)
(0.763118 -0.0705112 2.26284e-20)
(0.766213 -0.0710774 -2.14314e-20)
(0.769279 -0.071581 -6.97879e-20)
(0.772314 -0.0720225 1.00055e-19)
(0.775314 -0.0724025 -6.40071e-20)
(0.778278 -0.0727216 4.86511e-20)
(0.781203 -0.0729809 -8.81899e-20)
(0.784089 -0.0731812 1.85198e-21)
(0.786933 -0.073324 -8.43421e-21)
(0.789734 -0.0734105 9.58393e-20)
(0.792492 -0.0734423 -3.44928e-20)
(0.795206 -0.0734212 3.49884e-20)
(0.797876 -0.0733488 -1.20934e-20)
(0.8005 -0.073227 -6.13244e-20)
(0.803079 -0.0730579 3.84423e-20)
(0.805614 -0.0728435 4.75117e-21)
(0.808103 -0.0725858 -3.69117e-20)
(0.810547 -0.0722872 1.10532e-20)
(0.812946 -0.0719497 2.85815e-20)
(0.815302 -0.0715758 -3.80411e-20)
(0.817614 -0.0711678 2.59823e-20)
(0.819883 -0.0707278 1.75723e-20)
(0.82211 -0.0702583 -2.99035e-20)
(0.824296 -0.0697616 1.31199e-20)
(0.826441 -0.06924 7.41976e-21)
(0.828546 -0.0686958 1.60191e-21)
(0.830613 -0.0681313 -7.69901e-21)
(0.832642 -0.0675488 2.72501e-21)
(0.834634 -0.0669505 -1.09358e-20)
(0.83659 -0.0663386 6.79656e-21)
(0.838511 -0.0657151 -3.74235e-21)
(0.840399 -0.0650823 6.89698e-21)
(0.842255 -0.0644422 -3.7141e-21)
(0.844079 -0.0637968 -2.31972e-21)
(0.845873 -0.0631481 7.9576e-21)
(0.847638 -0.062498 -8.92959e-21)
(0.849376 -0.0618485 3.04722e-21)
(0.851086 -0.0612012 3.20228e-21)
(0.852772 -0.0605581 -3.6026e-21)
(0.854434 -0.059921 -4.36261e-23)
(0.856073 -0.0592915 -1.24618e-22)
(0.85769 -0.0586714 -2.45284e-21)
(0.859288 -0.0580624 4.85429e-21)
(0.860867 -0.0574661 -1.98656e-21)
(0.862428 -0.0568843 5.49735e-22)
(0.863973 -0.0563186 -1.39878e-21)
(0.865504 -0.0557707 -8.12661e-22)
(0.867021 -0.0552425 8.80014e-22)
(0.868527 -0.0547354 8.23446e-22)
(0.870019 -0.0542517 -1.33323e-21)
(0.871508 -0.0537925 8.18033e-22)
(0.872979 -0.0533612 -8.4874e-22)
(0.87446 -0.0529572 6.01153e-22)
(0.875906 -0.0525873 8.7625e-23)
(0.8774 -0.0522459 -2.31178e-22)
(0.878797 -0.0519485 1.87755e-22)
(0.880357 -0.0516768 -4.54043e-23)
(0.881623 -0.051466 9.36426e-24)
(0.883408 -0.0512715 -3.44387e-23)
(0.884287 -0.0511623 -1.32969e-23)
(0.886799 -0.0510711 2.62209e-25)
(0.858308 -0.034745 -9.28232e-20)
(0.858344 -0.0369082 -9.7366e-21)
(0.858563 -0.0390204 -1.00136e-20)
(0.858949 -0.0410828 -3.28673e-19)
(0.859491 -0.0430959 7.33567e-20)
(0.860174 -0.0450594 2.53434e-20)
(0.860988 -0.0469731 3.66551e-19)
(0.86192 -0.0488362 -4.99199e-20)
(0.86296 -0.0506479 -1.0379e-19)
(0.864096 -0.0524073 1.18766e-19)
(0.865318 -0.0541133 -8.47065e-20)
(0.866617 -0.0557647 -8.39844e-20)
(0.867983 -0.0573603 -6.97772e-20)
(0.869408 -0.0588988 1.31329e-19)
(0.870884 -0.0603788 -2.77947e-19)
(0.872403 -0.0617993 2.65343e-19)
(0.873957 -0.0631589 6.31279e-21)
(0.875539 -0.0644564 -1.85398e-19)
(0.877144 -0.0656907 -7.47264e-20)
(0.878766 -0.0668608 2.26577e-19)
(0.880398 -0.0679659 -3.74415e-20)
(0.882037 -0.069005 -1.10473e-19)
(0.883677 -0.0699775 1.30919e-19)
(0.885314 -0.0708829 -1.61962e-20)
(0.886945 -0.071721 -1.33675e-20)
(0.888566 -0.0724914 3.37755e-20)
(0.890173 -0.0731942 -3.04387e-20)
(0.891765 -0.0738296 1.16081e-20)
(0.893339 -0.0743979 5.42672e-20)
(0.894893 -0.0748996 -6.10303e-20)
(0.896425 -0.0753353 2.6283e-20)
(0.897934 -0.0757059 -1.57129e-20)
(0.899418 -0.0760124 5.42723e-20)
(0.900877 -0.0762559 -2.74781e-21)
(0.90231 -0.0764378 -4.28129e-22)
(0.903716 -0.0765595 -8.3243e-20)
(0.905096 -0.0766226 3.88183e-21)
(0.906448 -0.076629 2.03145e-20)
(0.907772 -0.0765804 -2.88631e-20)
(0.90907 -0.0764789 3.2896e-20)
(0.910341 -0.0763266 -1.31174e-21)
(0.911586 -0.0761255 1.72081e-20)
(0.912804 -0.0758779 1.85961e-20)
(0.913997 -0.0755861 -2.50815e-20)
(0.915166 -0.0752524 -2.01453e-20)
(0.91631 -0.0748791 -1.71105e-20)
(0.917431 -0.0744688 4.88894e-20)
(0.918529 -0.0740237 -1.95802e-20)
(0.919605 -0.0735463 1.82688e-22)
(0.92066 -0.0730391 -3.50034e-20)
(0.921695 -0.0725045 3.31536e-20)
(0.92271 -0.0719449 -5.7904e-22)
(0.923706 -0.0713627 -2.66643e-20)
(0.924685 -0.0707603 4.25901e-20)
(0.925647 -0.07014 -2.53423e-20)
(0.926593 -0.0695042 5.32611e-21)
(0.927524 -0.068855 -6.03944e-21)
(0.92844 -0.0681948 5.16954e-21)
(0.929343 -0.0675257 5.48527e-21)
(0.930233 -0.0668499 2.00535e-21)
(0.931111 -0.0661694 -5.44721e-21)
(0.931978 -0.0654863 -3.88619e-21)
(0.932835 -0.0648027 2.13666e-21)
(0.933683 -0.0641204 4.22736e-21)
(0.934522 -0.0634414 2.55238e-21)
(0.935353 -0.0627675 -2.77788e-21)
(0.936177 -0.0621006 4.10255e-21)
(0.936996 -0.0614426 -9.68806e-21)
(0.937809 -0.0607951 7.01891e-21)
(0.938617 -0.0601599 -4.70838e-21)
(0.939422 -0.0595389 1.9563e-21)
(0.940224 -0.0589336 1.32564e-21)
(0.941023 -0.058346 -8.26615e-22)
(0.941821 -0.0577775 5.56522e-22)
(0.942618 -0.0572304 -1.14481e-21)
(0.943417 -0.0567056 -1.01025e-21)
(0.944214 -0.0562061 1.05314e-21)
(0.945016 -0.0557322 -3.60261e-22)
(0.945813 -0.0552883 7.58296e-23)
(0.946625 -0.0548723 1.94293e-22)
(0.947418 -0.0544927 -4.0061e-24)
(0.948253 -0.0541417 1.39127e-22)
(0.949025 -0.0538369 -1.22564e-22)
(0.949915 -0.0535575 8.1189e-23)
(0.950613 -0.05334 5.73525e-23)
(0.951647 -0.0531391 6.00565e-23)
(0.952124 -0.0530225 -1.26813e-23)
(0.953572 -0.0529201 -4.40793e-24)
(1.00286 -0.0349154 1.2629e-19)
(1.00155 -0.0373868 -3.31893e-19)
(1.0004 -0.0397841 2.20963e-19)
(0.999384 -0.0421087 -1.03229e-19)
(0.998496 -0.0443617 1.90306e-19)
(0.997727 -0.046544 -3.5684e-19)
(0.997067 -0.0486561 3.88063e-19)
(0.996507 -0.0506982 -2.87919e-19)
(0.996038 -0.0526706 2.32578e-19)
(0.995651 -0.0545731 -1.44245e-19)
(0.99534 -0.0564055 -8.99114e-20)
(0.995095 -0.0581673 2.61561e-19)
(0.994911 -0.0598582 -2.51861e-19)
(0.99478 -0.0614776 -1.53504e-19)
(0.994695 -0.063025 2.37249e-19)
(0.994652 -0.0644999 -1.03444e-21)
(0.994644 -0.0659017 8.6834e-20)
(0.994667 -0.0672299 -6.29892e-20)
(0.994716 -0.0684841 7.97184e-20)
(0.994786 -0.0696639 -1.71994e-19)
(0.994874 -0.0707692 -9.39459e-20)
(0.994977 -0.0717997 8.36662e-20)
(0.995091 -0.0727554 8.24893e-20)
(0.995212 -0.0736366 9.40097e-20)
(0.99534 -0.0744434 -7.0444e-20)
(0.995472 -0.0751763 -6.48825e-21)
(0.995605 -0.0758358 -4.56913e-20)
(0.995739 -0.0764227 -4.69787e-20)
(0.995871 -0.0769377 8.64225e-20)
(0.996002 -0.077382 7.24841e-23)
(0.996129 -0.0777567 -4.74102e-20)
(0.996253 -0.0780632 1.64856e-20)
(0.996372 -0.0783028 -3.31353e-20)
(0.996487 -0.0784773 1.33361e-20)
(0.996598 -0.0785885 3.7243e-20)
(0.996703 -0.0786381 -2.41823e-20)
(0.996804 -0.0786283 -2.78324e-20)
(0.9969 -0.0785611 2.585e-20)
(0.996992 -0.0784387 4.26144e-20)