/*--------------------------------*- C++ -*----------------------------------*\
  =========                 |
  \\      /  F ield         | OpenFOAM: The Open Source CFD Toolbox
   \\    /   O peration     | Website:  https://openfoam.org
    \\  /    A nd           | Version:  7
     \\/     M anipulation  |
\*---------------------------------------------------------------------------*/
FoamFile
{
    version     2.0;
    format      ascii;
    class       volScalarField;
    location    "70";
    object      p;
}
// * * * * * * * * * * * * * * * * * * * * * * * * * * * * * * * * * * * * * //

dimensions      [0 2 -2 0 0 0 0];

internalField   nonuniform List<scalar> 
3500
(
-0.233481
-0.235143
-0.236861
-0.238465
-0.239689
-0.240261
-0.240625
-0.238662
-0.22949
-0.232881
-0.234257
-0.235867
-0.237549
-0.239155
-0.240451
-0.240746
-0.241754
-0.23878
-0.231502
-0.234489
-0.235694
-0.237182
-0.238769
-0.24032
-0.24191
-0.241222
-0.244116
-0.238595
-0.234265
-0.236682
-0.237597
-0.238859
-0.240265
-0.241533
-0.243966
-0.240943
-0.247717
-0.237249
-0.237551
-0.239263
-0.239736
-0.240613
-0.241763
-0.242344
-0.246279
-0.239577
-0.250767
-0.235872
-0.241164
-0.242059
-0.241903
-0.242181
-0.242957
-0.242757
-0.247166
-0.238199
-0.252661
-0.234571
-0.244991
-0.244971
-0.24398
-0.243443
-0.243481
-0.242827
-0.246887
-0.236634
-0.250701
-0.235118
-0.249054
-0.247991
-0.245973
-0.244415
-0.243512
-0.242413
-0.244773
-0.236339
-0.244069
-0.234474
-0.253551
-0.251211
-0.248048
-0.245283
-0.243264
-0.241568
-0.241078
-0.235641
-0.23503
-0.228621
-0.258807
-0.254905
-0.250459
-0.246341
-0.243053
-0.240147
-0.236766
-0.231643
-0.224613
-0.217702
-0.265181
-0.259452
-0.253552
-0.247889
-0.242993
-0.238078
-0.231856
-0.22446
-0.213227
-0.20331
-0.273122
-0.265231
-0.257607
-0.250074
-0.242994
-0.235258
-0.225846
-0.21513
-0.202101
-0.190084
-0.283099
-0.27257
-0.262762
-0.252975
-0.24287
-0.231487
-0.218626
-0.205093
-0.190423
-0.177313
-0.295516
-0.28161
-0.269201
-0.256524
-0.242267
-0.226609
-0.21042
-0.194307
-0.178529
-0.165071
-0.31064
-0.29209
-0.277168
-0.260283
-0.240688
-0.220511
-0.201121
-0.182974
-0.166419
-0.152339
-0.328444
-0.303667
-0.28618
-0.263332
-0.237616
-0.212969
-0.190752
-0.170936
-0.1537
-0.139108
-0.347749
-0.316395
-0.294524
-0.264418
-0.232523
-0.203795
-0.179118
-0.157981
-0.140235
-0.12503
-0.366528
-0.330089
-0.300315
-0.262401
-0.224924
-0.192693
-0.166003
-0.143877
-0.12572
-0.11012
-0.382608
-0.343084
-0.302444
-0.256587
-0.214356
-0.179346
-0.151124
-0.128342
-0.110032
-0.0943848
-0.394318
-0.352492
-0.300026
-0.246577
-0.200441
-0.163411
-0.134194
-0.111139
-0.0929766
-0.0777883
-0.400536
-0.35566
-0.291884
-0.231976
-0.18286
-0.144588
-0.114966
-0.0920724
-0.0743908
-0.0599359
-0.400282
-0.350667
-0.277145
-0.212358
-0.161349
-0.122643
-0.0932812
-0.0710987
-0.0541814
-0.0402683
-0.392388
-0.336453
-0.25529
-0.187362
-0.135696
-0.0974729
-0.0691087
-0.0482645
-0.0323761
-0.0187983
-0.375462
-0.312503
-0.225998
-0.156777
-0.105869
-0.0691991
-0.0425843
-0.0236025
-0.00877325
0.00339611
-0.348151
-0.278688
-0.189037
-0.120732
-0.0721368
-0.0381326
-0.0139512
0.00304867
0.0163866
0.0263162
-0.309519
-0.235135
-0.144495
-0.0797642
-0.0348805
-0.00427623
0.0167455
0.0313629
0.0425984
0.049759
-0.259338
-0.181884
-0.0933796
-0.0341262
0.00573984
0.0319713
0.049205
0.0608179
0.0691841
0.0729913
-0.198043
-0.118821
-0.0370805
0.0155052
0.0491797
0.070167
0.0830147
0.0908273
0.0952763
0.0950156
-0.12618
-0.0481067
0.0236737
0.0681368
0.0947273
0.109797
0.11772
0.120929
0.120378
0.115575
-0.0442182
0.0265998
0.0877566
0.12276
0.141548
0.150205
0.152754
0.150847
0.145069
0.136432
0.0443441
0.104036
0.153606
0.17827
0.188718
0.190585
0.187379
0.180177
0.16988
0.162231
0.13638
0.18258
0.219553
0.233421
0.235239
0.23009
0.220902
0.208563
0.194927
0.186869
0.228533
0.260126
0.283899
0.286891
0.28006
0.267905
0.252898
0.235947
0.219402
0.208921
0.317459
0.33444
0.344955
0.337342
0.322105
0.303163
0.282662
0.261588
0.242267
0.228718
0.399922
0.403312
0.401078
0.383481
0.360378
0.33514
0.309645
0.28484
0.262702
0.245947
0.473095
0.464587
0.450685
0.424063
0.393902
0.363069
0.333222
0.305167
0.280371
0.260532
0.534834
0.516093
0.492288
0.45798
0.421832
0.386284
0.352803
0.32202
0.294887
0.272299
0.583115
0.556154
0.524622
0.484285
0.44345
0.40423
0.367939
0.335029
0.306
0.281144
0.616274
0.583549
0.546719
0.502241
0.458184
0.41645
0.378244
0.343877
0.313516
0.287029
0.511346
0.46565
0.422638
0.383461
0.348354
0.317306
0.28996
-0.237839
-0.237053
-0.236165
-0.235188
-0.234127
-0.23299
-0.231784
-0.230513
-0.229181
-0.227791
-0.226346
-0.224845
-0.223288
-0.221676
-0.220018
-0.21831
-0.216551
-0.214742
-0.212883
-0.210974
-0.209014
-0.207005
-0.204946
-0.202838
-0.200681
-0.198474
-0.196218
-0.193912
-0.191557
-0.23836
-0.237547
-0.236625
-0.235626
-0.234547
-0.233394
-0.232176
-0.230895
-0.229556
-0.22816
-0.226709
-0.225202
-0.223641
-0.222022
-0.220342
-0.218619
-0.216847
-0.215027
-0.213157
-0.211238
-0.209269
-0.20725
-0.205182
-0.203065
-0.200899
-0.198684
-0.196421
-0.19411
-0.19175
-0.239263
-0.238301
-0.237313
-0.236289
-0.235194
-0.234026
-0.232795
-0.231506
-0.23016
-0.22876
-0.227306
-0.225799
-0.224236
-0.222616
-0.220944
-0.219219
-0.217445
-0.215619
-0.213744
-0.211818
-0.209842
-0.207817
-0.205743
-0.20362
-0.201448
-0.199227
-0.196959
-0.194643
-0.19228
-0.241431
-0.239005
-0.238126
-0.236981
-0.235862
-0.234687
-0.233457
-0.232173
-0.230835
-0.229442
-0.227994
-0.226491
-0.224929
-0.223303
-0.221635
-0.219911
-0.218138
-0.216317
-0.214446
-0.212524
-0.210553
-0.208536
-0.20645
-0.204331
-0.202163
-0.199948
-0.197684
-0.195374
-0.193016
-0.190613
-0.240216
-0.239909
-0.238667
-0.237471
-0.236344
-0.23518
-0.233964
-0.232701
-0.231388
-0.230023
-0.228605
-0.227133
-0.225605
-0.224013
-0.222355
-0.220652
-0.218896
-0.217086
-0.215222
-0.213308
-0.211343
-0.209327
-0.207262
-0.205146
-0.202982
-0.200769
-0.19851
-0.196203
-0.193851
-0.191454
-0.237359
-0.238282
-0.237992
-0.237216
-0.236242
-0.235169
-0.234041
-0.232851
-0.231585
-0.230251
-0.228858
-0.227409
-0.225899
-0.22432
-0.222663
-0.220957
-0.219241
-0.217478
-0.215656
-0.213774
-0.211838
-0.209851
-0.207813
-0.205726
-0.203588
-0.201401
-0.199165
-0.196881
-0.19455
-0.192172
-0.233854
-0.234649
-0.235412
-0.235392
-0.234736
-0.233895
-0.233042
-0.232098
-0.231004
-0.229796
-0.228518
-0.22718
-0.225776
-0.224296
-0.222731
-0.221064
-0.219307
-0.217543
-0.215783
-0.213971
-0.21209
-0.21014
-0.208129
-0.206063
-0.203946
-0.201778
-0.199562
-0.197299
-0.19499
-0.192636
-0.190237
-0.230715
-0.230447
-0.231766
-0.232077
-0.231443
-0.230806
-0.230342
-0.229739
-0.228874
-0.227838
-0.226714
-0.225511
-0.22422
-0.222845
-0.221394
-0.219866
-0.218249
-0.216517
-0.214698
-0.212896
-0.211158
-0.20937
-0.207502
-0.205553
-0.203529
-0.201437
-0.199285
-0.197081
-0.19483
-0.192534
-0.190189
-0.187796
-0.225137
-0.225227
-0.227092
-0.227089
-0.226218
-0.225892
-0.225924
-0.225744
-0.225251
-0.224584
-0.223807
-0.222908
-0.221882
-0.220741
-0.219498
-0.218155
-0.216718
-0.215188
-0.213546
-0.211743
-0.20978
-0.207868
-0.206094
-0.204288
-0.202398
-0.200417
-0.198351
-0.196223
-0.194045
-0.191818
-0.189535
-0.1872
-0.217227
-0.219326
-0.220881
-0.219893
-0.218814
-0.218698
-0.2189
-0.218896
-0.218684
-0.218355
-0.217916
-0.217348
-0.216657
-0.21585
-0.214931
-0.213902
-0.212765
-0.211526
-0.210194
-0.208778
-0.207253
-0.205538
-0.203603
-0.20175
-0.200016
-0.198216
-0.196313
-0.194353
-0.192351
-0.190292
-0.188165
-0.185974
-0.183725
-0.20474
-0.211706
-0.212698
-0.211313
-0.210242
-0.210043
-0.210293
-0.210572
-0.210711
-0.210689
-0.210525
-0.210239
-0.209837
-0.20932
-0.208686
-0.207933
-0.207065
-0.206087
-0.205002
-0.203814
-0.202529
-0.201154
-0.199682
-0.198072
-0.196312
-0.194472
-0.192584
-0.190694
-0.188784
-0.186824
-0.184802
-0.182719
-0.180578
-0.186127
-0.195359
-0.198379
-0.197837
-0.196855
-0.196663
-0.197159
-0.197855
-0.198413
-0.198734
-0.198853
-0.198824
-0.198677
-0.198414
-0.198029
-0.197518
-0.196881
-0.19612
-0.195239
-0.19424
-0.193123
-0.191889
-0.190541
-0.189107
-0.187636
-0.18618
-0.184745
-0.18326
-0.181648
-0.179917
-0.178099
-0.176215
-0.174273
-0.169406
-0.179336
-0.183475
-0.183896
-0.183491
-0.183662
-0.18449
-0.185543
-0.186459
-0.187111
-0.187529
-0.18778
-0.187905
-0.187915
-0.187804
-0.187566
-0.187202
-0.186715
-0.186112
-0.1854
-0.184586
-0.183682
-0.182698
-0.181648
-0.180531
-0.179331
-0.178017
-0.176558
-0.174998
-0.173388
-0.171735
-0.170029
-0.168261
-0.155175
-0.164606
-0.169229
-0.170495
-0.170796
-0.171433
-0.172578
-0.173905
-0.175097
-0.176028
-0.176718
-0.177228
-0.177602
-0.177855
-0.177983
-0.177984
-0.177856
-0.177605
-0.177236
-0.176756
-0.17617
-0.175483
-0.174695
-0.173805
-0.172812
-0.171719
-0.170537
-0.169288
-0.167997
-0.166644
-0.16521
-0.163696
-0.162111
-0.142246
-0.151134
-0.156002
-0.157909
-0.158832
-0.159911
-0.161348
-0.162907
-0.164329
-0.165503
-0.166439
-0.167187
-0.16779
-0.168263
-0.168608
-0.168821
-0.168904
-0.168861
-0.168697
-0.168418
-0.168027
-0.167529
-0.166925
-0.166219
-0.165419
-0.164533
-0.163574
-0.162544
-0.161437
-0.160244
-0.158969
-0.15762
-0.156201
-0.130669
-0.139052
-0.143992
-0.14633
-0.14773
-0.149178
-0.150872
-0.152633
-0.154252
-0.155635
-0.156785
-0.157746
-0.158554
-0.159226
-0.159763
-0.160168
-0.16044
-0.160584
-0.160606
-0.16051
-0.160301
-0.159983
-0.159562
-0.159041
-0.158429
-0.157728
-0.156943
-0.156073
-0.155117
-0.154079
-0.152963
-0.151774
-0.150514
-0.120536
-0.128314
-0.133186
-0.135802
-0.137556
-0.139293
-0.141196
-0.143124
-0.144903
-0.146456
-0.147786
-0.148928
-0.149913
-0.150757
-0.151466
-0.152039
-0.152479
-0.152791
-0.15298
-0.15305
-0.153007
-0.152856
-0.152601
-0.152246
-0.151795
-0.151252
-0.150618
-0.149897
-0.149091
-0.148205
-0.147242
-0.146204
-0.145095
-0.11158
-0.11875
-0.123486
-0.126278
-0.128288
-0.13024
-0.132302
-0.134357
-0.136263
-0.137951
-0.139426
-0.140718
-0.141853
-0.142846
-0.143702
-0.144423
-0.145012
-0.145472
-0.14581
-0.146029
-0.146136
-0.146134
-0.146027
-0.145819
-0.145513
-0.145113
-0.144621
-0.144043
-0.14338
-0.142637
-0.141815
-0.140918
-0.139948
-0.10361
-0.110236
-0.114805
-0.117693
-0.119879
-0.121985
-0.12416
-0.126307
-0.128305
-0.130098
-0.131688
-0.133101
-0.134361
-0.135479
-0.136462
-0.13731
-0.138028
-0.138619
-0.139088
-0.139439
-0.139679
-0.139809
-0.139835
-0.139759
-0.139586
-0.139318
-0.138959
-0.138513
-0.137982
-0.13737
-0.136678
-0.135911
-0.135069
-0.0965474
-0.102667
-0.107045
-0.109973
-0.112274
-0.114484
-0.116732
-0.118939
-0.121002
-0.122872
-0.124551
-0.12606
-0.127421
-0.128643
-0.129731
-0.130687
-0.131516
-0.132219
-0.132803
-0.133271
-0.133627
-0.133876
-0.134021
-0.134065
-0.134011
-0.133864
-0.133626
-0.1333
-0.13289
-0.132398
-0.131826
-0.131178
-0.130456
-0.0902877
-0.0959319
-0.100107
-0.103034
-0.105407
-0.107682
-0.109974
-0.112215
-0.114319
-0.116242
-0.117986
-0.11957
-0.12101
-0.122316
-0.123491
-0.124538
-0.12546
-0.126261
-0.126944
-0.127513
-0.127973
-0.128326
-0.128577
-0.128728
-0.128782
-0.128744
-0.128615
-0.128399
-0.128098
-0.127716
-0.127254
-0.126717
-0.126105
-0.0847171
-0.0899274
-0.0939006
-0.0968021
-0.0992139
-0.101525
-0.103837
-0.106092
-0.108217
-0.110175
-0.111965
-0.113604
-0.115106
-0.116478
-0.117724
-0.118846
-0.119847
-0.120729
-0.121497
-0.122154
-0.122704
-0.12315
-0.123494
-0.12374
-0.123892
-0.123951
-0.12392
-0.123803
-0.123603
-0.12332
-0.12296
-0.122523
-0.122013
-0.0797528
-0.0845726
-0.0883503
-0.0912084
-0.0936348
-0.0959612
-0.0982745
-0.100529
-0.10266
-0.104636
-0.106457
-0.108135
-0.109682
-0.111106
-0.112408
-0.113591
-0.114657
-0.115609
-0.116449
-0.117182
-0.11781
-0.118336
-0.118763
-0.119093
-0.11933
-0.119477
-0.119535
-0.119508
-0.119397
-0.119206
-0.118937
-0.118593
-0.118175
-0.0753296
-0.0797967
-0.0833874
-0.0861905
-0.0886141
-0.0909394
-0.0932419
-0.0954832
-0.0976088
-0.0995912
-0.101429
-0.103134
-0.104715
-0.106177
-0.107524
-0.108755
-0.109875
-0.110884
-0.111785
-0.112582
-0.113277
-0.113873
-0.114372
-0.114777
-0.11509
-0.115315
-0.115452
-0.115505
-0.115476
-0.115368
-0.115182
-0.114921
-0.114588
-0.0713873
-0.0755357
-0.0789499
-0.0816917
-0.0841004
-0.0864135
-0.0886959
-0.0909161
-0.0930277
-0.0950071
-0.0968529
-0.0985734
-0.100177
-0.101668
-0.103048
-0.104318
-0.10548
-0.106537
-0.107489
-0.108341
-0.109094
-0.10975
-0.110312
-0.110782
-0.111162
-0.111455
-0.111663
-0.111788
-0.111833
-0.111798
-0.111688
-0.111503
-0.111247
-0.0678725
-0.0717349
-0.0749846
-0.0776623
-0.080048
-0.0823412
-0.0845975
-0.086791
-0.0888827
-0.0908521
-0.0926977
-0.0944261
-0.0960438
-0.0975544
-0.0989594
-0.10026
-0.101456
-0.102551
-0.103546
-0.104444
-0.105246
-0.105954
-0.10657
-0.107097
-0.107536
-0.10789
-0.108161
-0.10835
-0.10846
-0.108492
-0.108449
-0.108333
-0.108146
-0.0647408
-0.0683475
-0.0714454
-0.0740585
-0.0764162
-0.0786846
-0.080911
-0.0830744
-0.0851421
-0.0870968
-0.0889365
-0.0906664
-0.0922918
-0.0938154
-0.0952383
-0.0965612
-0.097785
-0.0989111
-0.0999412
-0.100877
-0.10172
-0.102473
-0.103136
-0.103712
-0.104203
-0.104611
-0.104936
-0.105182
-0.10535
-0.105442
-0.10546
-0.105406
-0.105281
-0.0619551
-0.0653335
-0.0682924
-0.0708423
-0.0731691
-0.0754096
-0.0776042
-0.0797358
-0.0817773
-0.0837139
-0.0855437
-0.0872705
-0.0888984
-0.0904295
-0.0918647
-0.0932043
-0.0944491
-0.0956001
-0.0966587
-0.0976264
-0.0985046
-0.0992949
-0.0999987
-0.100618
-0.101153
-0.101607
-0.101982
-0.102278
-0.102497
-0.102642
-0.102714
-0.102715
-0.102647
-0.0594829
-0.0626585
-0.0654908
-0.0679802
-0.0702748
-0.0724863
-0.0746484
-0.0767477
-0.078762
-0.0806788
-0.0824959
-0.0842162
-0.0858429
-0.0873774
-0.0888203
-0.0901719
-0.0914326
-0.0926033
-0.0936851
-0.094679
-0.0955865
-0.0964087
-0.0971469
-0.0978026
-0.0983772
-0.0988721
-0.0992888
-0.099629
-0.0998942
-0.100086
-0.100206
-0.100256
-0.100238
-0.0572965
-0.0602925
-0.0630106
-0.065443
-0.0677056
-0.069888
-0.0720182
-0.0740858
-0.0760729
-0.0779689
-0.0797718
-0.0814834
-0.0831061
-0.0846409
-0.0860881
-0.0874479
-0.0887205
-0.0899065
-0.0910068
-0.0920224
-0.0929541
-0.0938032
-0.0945707
-0.0952579
-0.0958659
-0.0963961
-0.0968499
-0.0972287
-0.0975339
-0.097767
-0.0979295
-0.0980229
-0.0980488
-0.0553722
-0.0582101
-0.060826
-0.0632057
-0.0654373
-0.0675915
-0.069691
-0.0717283
-0.0736891
-0.0755644
-0.0773523
-0.0790539
-0.0806708
-0.0822036
-0.0836526
-0.0850176
-0.0862988
-0.0874967
-0.0886117
-0.0896448
-0.0905967
-0.0914683
-0.0922605
-0.0929744
-0.0936111
-0.0941718
-0.0946577
-0.09507
-0.09541
-0.0956792
-0.0958789
-0.0960106
-0.0960757
-0.0960756
-0.0536898
-0.0563897
-0.0589148
-0.0612465
-0.063449
-0.0655765
-0.0676474
-0.0696563
-0.0715921
-0.0734475
-0.0752204
-0.0769114
-0.0785214
-0.0800508
-0.0814997
-0.0828677
-0.084155
-0.0853618
-0.0864885
-0.0875357
-0.0885041
-0.0893944
-0.0902073
-0.0909439
-0.091605
-0.0921918
-0.0927052
-0.0931464
-0.0935166
-0.0938172
-0.0940493
-0.0942143
-0.0943136
-0.0943486
-0.0522324
-0.0548126
-0.0572583
-0.0595469
-0.0617226
-0.0638255
-0.0658702
-0.0678532
-0.0697659
-0.0716026
-0.0733611
-0.0750415
-0.0766442
-0.0781693
-0.0796168
-0.0809862
-0.0822776
-0.083491
-0.0846268
-0.0856854
-0.0866672
-0.0875729
-0.0884032
-0.0891587
-0.0898404
-0.0904492
-0.0909861
-0.091452
-0.0918482
-0.0921757
-0.0924357
-0.0926296
-0.0927585
-0.0928238
-0.0509852
-0.0534632
-0.0558402
-0.058091
-0.0602427
-0.0623235
-0.0643448
-0.0663045
-0.0681966
-0.0700162
-0.0717613
-0.0734316
-0.0750271
-0.0765476
-0.0779929
-0.0793626
-0.0806566
-0.0818749
-0.0830177
-0.0840852
-0.0850779
-0.0859962
-0.0868406
-0.087612
-0.0883109
-0.0889382
-0.0894948
-0.0899816
-0.0903997
-0.09075
-0.0910339
-0.0912523
-0.0914065
-0.0914977
-0.0499362
-0.0523284
-0.0546472
-0.0568655
-0.0589963
-0.0610579
-0.0630588
-0.0649984
-0.0668723
-0.0686769
-0.07041
-0.0720711
-0.0736597
-0.0751756
-0.0766183
-0.0779876
-0.0792832
-0.080505
-0.0816531
-0.0827276
-0.0837289
-0.0846573
-0.0855134
-0.0862975
-0.0870106
-0.0876531
-0.0882261
-0.0887302
-0.0891666
-0.089536
-0.0898397
-0.0900787
-0.0902541
-0.0903672
-0.0490751
-0.0513969
-0.0536678
-0.0558591
-0.0579725
-0.060018
-0.0620019
-0.0639245
-0.0657832
-0.0675749
-0.0692978
-0.0709508
-0.0725333
-0.0740449
-0.0754851
-0.0768536
-0.0781501
-0.0793743
-0.0805263
-0.0816062
-0.0826142
-0.0835506
-0.0844158
-0.0852103
-0.0859346
-0.0865895
-0.0871757
-0.0876939
-0.088145
-0.08853
-0.0888499
-0.0891057
-0.0892985
-0.0894294
-0.0483941
-0.0506603
-0.0528931
-0.055063
-0.0571624
-0.059195
-0.0611653
-0.0630743
-0.0649207
-0.0667022
-0.0684167
-0.070063
-0.0716404
-0.0731484
-0.0745864
-0.075954
-0.0772508
-0.0784767
-0.0796316
-0.0807155
-0.0817286
-0.0826711
-0.0835433
-0.0843458
-0.0850789
-0.0857433
-0.0863398
-0.086869
-0.0873318
-0.087729
-0.0880616
-0.0883306
-0.0885371
-0.0886821
-0.0478875
-0.050113
-0.052318
-0.0544719
-0.0565607
-0.0585835
-0.0605434
-0.0624422
-0.0642792
-0.0660528
-0.0677609
-0.0694021
-0.0709756
-0.0724806
-0.0739168
-0.0752835
-0.0765805
-0.0778075
-0.0789644
-0.0800512
-0.0810679
-0.0820148
-0.0828921
-0.0837004
-0.0844399
-0.0851114
-0.0857155
-0.0862528
-0.0867241
-0.0871303
-0.0874724
-0.0877512
-0.0879678
-0.0881232
-0.0475466
-0.0497474
-0.0519356
-0.0540802
-0.0561628
-0.0581795
-0.0601325
-0.0620243
-0.0638551
-0.0656233
-0.067327
-0.0689647
-0.0705354
-0.0720384
-0.0734731
-0.0748392
-0.0761361
-0.0773637
-0.0785218
-0.0796103
-0.0806294
-0.0815791
-0.0824598
-0.0832718
-0.0840155
-0.0846916
-0.0853006
-0.0858432
-0.0863202
-0.0867323
-0.0870806
-0.0873658
-0.0875891
-0.0877515
-0.0473603
-0.0495498
-0.0517325
-0.0538755
-0.0559574
-0.0579726
-0.0599234
-0.0618126
-0.0636409
-0.0654069
-0.0671089
-0.0687452
-0.0703147
-0.0718169
-0.0732511
-0.0746169
-0.075914
-0.0771419
-0.0783007
-0.0793901
-0.0804104
-0.0813615
-0.0822438
-0.0830577
-0.0838036
-0.084482
-0.0850934
-0.0856387
-0.0861185
-0.0865336
-0.0868849
-0.0871734
-0.0874
-0.0875658
-0.192038
-0.173353
-0.155923
-0.142973
-0.131257
-0.120476
-0.11121
-0.103125
-0.0958896
-0.0894662
-0.0837937
-0.0787505
-0.0742494
-0.0702359
-0.066658
-0.0634662
-0.0606197
-0.0580853
-0.0558344
-0.0538418
-0.0520864
-0.0505501
-0.0492176
-0.0480759
-0.0471141
-0.0463229
-0.0456951
-0.0452253
-0.0449039
-0.0447221
-0.178971
-0.161733
-0.144385
-0.132156
-0.121735
-0.111705
-0.102961
-0.0955155
-0.0888889
-0.0829575
-0.07772
-0.0730814
-0.0689414
-0.0652434
-0.0619449
-0.0590018
-0.056375
-0.0540338
-0.0519522
-0.0501074
-0.0484801
-0.0470537
-0.0458143
-0.0447499
-0.0438506
-0.043108
-0.0425152
-0.0420672
-0.0417539
-0.0415704
-0.167139
-0.151562
-0.134602
-0.122256
-0.112562
-0.103376
-0.0951306
-0.0881663
-0.082083
-0.0766231
-0.0717754
-0.0674928
-0.0636801
-0.0602719
-0.057229
-0.0545138
-0.05209
-0.0499283
-0.0480048
-0.0462988
-0.0447925
-0.0434706
-0.0423204
-0.0413309
-0.040493
-0.0397989
-0.0392424
-0.0388187
-0.0385181
-0.0383411
-0.154486
-0.139794
-0.124072
-0.112256
-0.103228
-0.0949882
-0.0874151
-0.0809131
-0.0753087
-0.0703136
-0.0658544
-0.0619076
-0.0584025
-0.0552711
-0.0524726
-0.0499743
-0.0477438
-0.045754
-0.0439824
-0.0424101
-0.0410208
-0.0398007
-0.0387378
-0.0378224
-0.037046
-0.0364015
-0.0358833
-0.035487
-0.0352034
-0.035038
-0.141383
-0.128017
-0.113881
-0.102689
-0.0940194
-0.0864665
-0.0795816
-0.0735739
-0.0684112
-0.0638622
-0.0598017
-0.0561952
-0.0529941
-0.0501386
-0.0475862
-0.0453063
-0.0432706
-0.0414544
-0.0398369
-0.0384009
-0.0371315
-0.036016
-0.0350438
-0.0342059
-0.0334945
-0.0329034
-0.0324276
-0.0320629
-0.0318013
-0.0316523
-0.127814
-0.115452
-0.102773
-0.0925459
-0.0845004
-0.0776786
-0.0715534
-0.0661341
-0.0614345
-0.0573167
-0.0536543
-0.0503938
-0.0474958
-0.0449127
-0.042605
-0.0405427
-0.0387006
-0.0370572
-0.0355938
-0.0342944
-0.0331455
-0.0321359
-0.0312558
-0.030497
-0.0298529
-0.0293176
-0.028887
-0.028557
-0.0283212
-0.0281918
-0.113568
-0.102591
-0.0915765
-0.0824581
-0.0750651
-0.0688535
-0.0633824
-0.0585445
-0.0543208
-0.0506269
-0.0473574
-0.0444478
-0.0418576
-0.0395489
-0.0374887
-0.0356485
-0.0340045
-0.0325382
-0.0312329
-0.0300742
-0.0290499
-0.02815
-0.0273658
-0.02669
-0.0261167
-0.0256409
-0.0252589
-0.0249672
-0.0247607
-0.0246539
-0.0988878
-0.0893304
-0.079837
-0.071865
-0.0652794
-0.0597808
-0.0550009
-0.0507858
-0.0470794
-0.043825
-0.0409486
-0.0383909
-0.0361101
-0.0340756
-0.0322638
-0.0306483
-0.0292056
-0.0279194
-0.0267751
-0.0257598
-0.0248628
-0.0240751
-0.0233892
-0.0227989
-0.0222989
-0.021885
-0.0215541
-0.021303
-0.0211283
-0.0210451
-0.0837122
-0.0756296
-0.0677611
-0.0610657
-0.0553786
-0.0506029
-0.0464711
-0.0428477
-0.0396581
-0.0368517
-0.0343742
-0.0321745
-0.0302101
-0.0284563
-0.0269005
-0.0255183
-0.0242856
-0.0231871
-0.0222103
-0.0213442
-0.0205795
-0.0199087
-0.0193254
-0.0188243
-0.018401
-0.0180521
-0.0177749
-0.0175671
-0.0174264
-0.0173661
-0.0680927
-0.0614001
-0.0550769
-0.0496942
-0.0450097
-0.0410536
-0.0376296
-0.034635
-0.0319964
-0.0296697
-0.0276151
-0.0257923
-0.0241627
-0.0227073
-0.0214208
-0.0202821
-0.0192677
-0.0183639
-0.0175604
-0.0168482
-0.0162201
-0.0156697
-0.015192
-0.0147827
-0.0144384
-0.0141564
-0.0139347
-0.0137717
-0.0136659
-0.0136273
-0.0515981
-0.0466344
-0.0417512
-0.0378182
-0.0342087
-0.0311439
-0.0284553
-0.0261082
-0.0240451
-0.02223
-0.0206311
-0.0192153
-0.017954
-0.0168346
-0.015836
-0.0149526
-0.0141653
-0.0134633
-0.012839
-0.0122859
-0.0117984
-0.0113719
-0.0110026
-0.0106876
-0.0104242
-0.0102107
-0.0100457
-0.00992822
-0.00985569
-0.00984297
-0.033826
-0.0313826
-0.0277452
-0.0253771
-0.0228258
-0.020743
-0.0188709
-0.0172522
-0.0158319
-0.0145846
-0.0134851
-0.0125082
-0.0116479
-0.0109048
-0.0102018
-0.00957986
-0.00902328
-0.00852606
-0.00808321
-0.00769061
-0.00734482
-0.00704295
-0.00678269
-0.00656214
-0.00637978
-0.00623452
-0.00612617
-0.00605343
-0.00601252
-0.00602981
-0.0148836
-0.0154485
-0.0131211
-0.0123322
-0.0109599
-0.00994636
-0.00900214
-0.00819389
-0.00748113
-0.00684816
-0.00628046
-0.00576652
-0.00530964
-0.00490814
-0.00451924
-0.00416547
-0.00384509
-0.00355607
-0.00329705
-0.00306676
-0.00286402
-0.0026878
-0.00253725
-0.00241165
-0.00231044
-0.00223347
-0.00218102
-0.00215141
-0.00214463
-0.00218473
0.00501227
0.00182786
0.00231729
0.00150638
0.00138825
0.00114622
0.00100331
0.000904404
0.000856767
0.000852212
0.000881938
0.000936115
0.00100099
0.00107191
0.00115793
0.00124777
0.00133577
0.00141916
0.001496
0.00156497
0.00162519
0.00167607
0.00171716
0.00174813
0.00176864
0.00177811
0.00177609
0.00176384
0.00173744
0.00168096
0.025723
0.0200635
0.0182613
0.0155622
0.0137165
0.0121173
0.0108686
0.00988378
0.00911238
0.00850688
0.00802873
0.00764644
0.0073344
0.007078
0.00686823
0.00669442
0.00654741
0.00642116
0.00631123
0.00621426
0.0061277
0.00604954
0.00597817
0.00591226
0.0058506
0.005792
0.00573586
0.00568238
0.0056254
0.00555801
0.0467212
0.038444
0.0340234
0.0294112
0.0259562
0.0231459
0.020919
0.0191308
0.0176784
0.016483
0.015486
0.0146432
0.0139218
0.0133
0.0127607
0.0122909
0.0118793
0.0115173
0.0111982
0.0109164
0.0106675
0.0104477
0.010254
0.0100836
0.0099343
0.0098041
0.00969193
0.00959665
0.0095118
0.00943875
0.0672232
0.0565383
0.0498827
0.0438837
0.0392255
0.0353996
0.0322386
0.0295881
0.0273406
0.0254177
0.0237603
0.0223224
0.0210689
0.019973
0.0190127
0.0181702
0.0174302
0.0167801
0.0162091
0.0157081
0.0152693
0.0148863
0.0145533
0.0142656
0.0140192
0.0138109
0.0136386
0.0134997
0.0133891
0.0133145
0.0872801
0.0757999
0.0679237
0.0609505
0.0550778
0.0499895
0.0455675
0.0417199
0.0383701
0.035452
0.0329079
0.0306877
0.0287488
0.0270549
0.0255745
0.0242808
0.0231503
0.022163
0.0213016
0.0205511
0.019899
0.0193345
0.0188485
0.0184333
0.0180828
0.0177919
0.0175568
0.0173737
0.0172394
0.0171651
0.108147
0.0977443
0.0885917
0.0800182
0.0722911
0.0654184
0.0593638
0.0540657
0.0494472
0.045429
0.0419359
0.0388996
0.03626
0.0339646
0.031968
0.0302309
0.0287197
0.0274053
0.0262633
0.0252726
0.0244155
0.0236773
0.0230454
0.0225094
0.0220609
0.0216931
0.0214006
0.0211786
0.0210254
0.0209506
0.127339
0.116207
0.104671
0.0940168
0.0845914
0.0763667
0.0692188
0.0630167
0.0576381
0.0529735
0.0489257
0.0454102
0.0423541
0.0396952
0.03738
0.0353631
0.0336059
0.0320755
0.0307442
0.0295884
0.0285882
0.0277271
0.0269912
0.0263688
0.0258507
0.025429
0.0250978
0.0248521
0.0246903
0.0246158
0.142084
0.126142
0.112977
0.101507
0.0916014
0.0830709
0.0757002
0.0693085
0.0637521
0.0589133
0.0546933
0.0510077
0.0477847
0.0449632
0.0424912
0.0403247
0.0384261
0.0367634
0.0353096
0.0340417
0.0329402
0.0319888
0.0311737
0.0304833
0.0299084
0.029441
0.0290752
0.0288065
0.0286325
0.0285499
0.153632
0.135436
0.121563
0.109841
0.0996929
0.0908912
0.0832503
0.0765975
0.0707869
0.0656995
0.061237
0.057317
0.0538692
0.0508338
0.0481598
0.0458039
0.0437291
0.0419035
0.0403004
0.0388966
0.0376727
0.036612
0.0357005
0.0349265
0.0342803
0.0337539
0.0333409
0.0330369
0.0328379
0.0327402
0.159079
0.142518
0.128691
0.116944
0.106768
0.0978866
0.0901154
0.0833014
0.0773112
0.0720337
0.0673763
0.063261
0.0596213
0.0564003
0.0535488
0.051025
0.0487927
0.0468209
0.045083
0.0435562
0.0422209
0.0410606
0.0400611
0.0392104
0.0384988
0.0379181
0.0374617
0.0371247
0.0369028
0.0367926
0.161611
0.146685
0.13363
0.122323
0.112427
0.103691
0.095963
0.0891217
0.08306
0.0776824
0.0729066
0.0686618
0.064887
0.0615296
0.0585436
0.0558894
0.0535324
0.051443
0.0495954
0.0479672
0.0465395
0.0452957
0.044222
0.0433065
0.0425392
0.0419121
0.0414185
0.0410532
0.040812
0.0406922
0.16175
0.14886
0.136996
0.126357
0.116884
0.108431
0.100878
0.0941284
0.0880961
0.0827041
0.0778828
0.0735711
0.0697152
0.0662676
0.0631869
0.0604365
0.0579845
0.0558029
0.0538673
0.0521566
0.0506524
0.0493389
0.0482025
0.0472317
0.0464167
0.0457495
0.0452236
0.0448338
0.0445761
0.0444478
0.160931
0.14955
0.138861
0.129063
0.120177
0.112137
0.104871
0.0983109
0.0923954
0.0870658
0.0822669
0.0779482
0.0740639
0.070573
0.0674387
0.0646283
0.0621129
0.0598668
0.0578676
0.0560954
0.0545331
0.0531656
0.0519799
0.0509652
0.0501119
0.0494124
0.0488603
0.0484506
0.0481795
0.0480446
0.159154
0.149257
0.139738
0.13082
0.122576
0.115012
0.108099
0.101797
0.0960647
0.0908585
0.086137
0.0818605
0.0779916
0.074496
0.0713423
0.0685021
0.0659498
0.0636625
0.0616199
0.0598039
0.0581986
0.0567901
0.0555664
0.054517
0.0536333
0.0529078
0.0523344
0.0519085
0.0516265
0.0514861
0.157044
0.14833
0.13983
0.131755
0.124184
0.117143
0.110633
0.104638
0.0991371
0.0941013
0.0895019
0.0853092
0.081494
0.0780287
0.0748873
0.0720458
0.0694821
0.0671764
0.0651105
0.0632684
0.0616357
0.0601997
0.0589496
0.0578756
0.0569697
0.0562249
0.0556357
0.0551976
0.0549074
0.0547628
0.154577
0.146956
0.139406
0.13213
0.125212
0.118697
0.112608
0.106948
0.101709
0.096877
0.0924325
0.088355
0.0846232
0.0812156
0.0781117
0.0752917
0.0727374
0.0704317
0.068359
0.0665054
0.0648581
0.063406
0.062139
0.0610486
0.0601273
0.059369
0.0587683
0.0583214
0.0580251
0.0578774
0.152063
0.145344
0.138611
0.132056
0.125756
0.119759
0.114097
0.108785
0.103828
0.0992214
0.0949552
0.091017
0.0873921
0.0840651
0.0810202
0.078242
0.0757155
0.0734267
0.0713627
0.0695113
0.0678617
0.0664041
0.0651298
0.064031
0.0631013
0.0623349
0.0617273
0.0612747
0.0609746
0.0608249
0.149484
0.143569
0.137579
0.131683
0.125956
0.12045
0.115204
0.110241
0.105572
0.101203
0.0971293
0.0933465
0.0898454
0.0866156
0.0836459
0.0809247
0.0784404
0.076182
0.0741387
0.0723006
0.0706587
0.0692044
0.0679304
0.0668299
0.0658972
0.0651275
0.0645165
0.0640611
0.0637589
0.0636081
0.14699
0.141752
0.1364
0.131087
0.125884
0.120838
0.11599
0.111367
0.106987
0.102858
0.098986
0.0953688
0.092003
0.0888829
0.086001
0.0833493
0.0809193
0.0787026
0.0766907
0.0748758
0.0732503
0.0718074
0.0705407
0.0694446
0.0685143
0.0677455
0.0671347
0.066679
0.0663764
0.0662255
0.144567
0.139923
0.13514
0.130353
0.125625
0.121004
0.116529
0.112231
0.108131
0.104242
0.100573
0.0971258
0.0939021
0.0908993
0.0881137
0.0855403
0.0831733
0.0810066
0.0790342
0.0772499
0.0756478
0.0742225
0.0729687
0.071882
0.0709583
0.0701939
0.069586
0.0691321
0.0688306
0.0686801
0.142286
0.138148
0.133855
0.129529
0.125227
0.120994
0.116866
0.112876
0.109044
0.105388
0.101919
0.0986429
0.095564
0.0926831
0.0899994
0.0875103
0.0852128
0.0831029
0.0811763
0.0794288
0.0778559
0.0764534
0.0752174
0.0741443
0.0732308
0.0724739
0.0718714
0.0714212
0.0711219
0.0709726
0.140134
0.136436
0.132576
0.128661
0.124742
0.12086
0.117052
0.113347
0.109769
0.106336
0.103061
0.0999532
0.0970187
0.094261
0.0916815
0.0892803
0.0870561
0.0850071
0.0831308
0.0814243
0.0798847
0.0785091
0.0772945
0.0762381
0.0753376
0.0745907
0.0739954
0.0735504
0.0732543
0.0731065
0.138143
0.134821
0.131335
0.12778
0.124201
0.120636
0.117118
0.113677
0.110336
0.107114
0.104025
0.101079
0.0982862
0.0956504
0.0931755
0.0908634
0.0887148
0.0867294
0.0849062
0.0832439
0.0817407
0.0803948
0.0792043
0.0781673
0.077282
0.0765469
0.0759606
0.0755219
0.0752299
0.075084
0.1363
0.133304
0.130147
0.126909
0.123633
0.120352
0.117098
0.113898
0.110777
0.107751
0.104837
0.102047
0.0993899
0.0968728
0.0945007
0.0922772
0.0902043
0.0882833
0.0865146
0.084898
0.083433
0.0821187
0.0809542
0.0799382
0.0790697
0.0783478
0.0777714
0.0773398
0.0770524
0.0769089
0.134618
0.131902
0.129028
0.126067
0.123058
0.12003
0.117013
0.114033
0.111112
0.108269
0.105519
0.102875
0.100347
0.0979436
0.095671
0.0935339
0.0915356
0.0896787
0.0879647
0.0863945
0.0849685
0.0836868
0.0825492
0.0815554
0.0807047
0.0799968
0.0794312
0.0790074
0.0787251
0.078584
0.133085
0.13061
0.127984
0.125266
0.122492
0.11969
0.116886
0.114104
0.111365
0.108689
0.10609
0.103582
0.101175
0.0988797
0.0967019
0.0946477
0.0927217
0.0909272
0.0892668
0.0877424
0.0863553
0.0851064
0.0839961
0.0830247
0.0821923
0.0814989
0.0809444
0.0805287
0.0802516
0.0801131
0.131702
0.129436
0.127023
0.124516
0.121949
0.119345
0.116729
0.114125
0.111551
0.109026
0.106566
0.104183
0.101889
0.0996939
0.0976052
0.0956295
0.0937722
0.0920375
0.0904289
0.088949
0.0875999
0.0863832
0.0852999