/*--------------------------------*- C++ -*----------------------------------*\
  =========                 |
  \\      /  F ield         | OpenFOAM: The Open Source CFD Toolbox
   \\    /   O peration     | Website:  https://openfoam.org
    \\  /    A nd           | Version:  7
     \\/     M anipulation  |
\*---------------------------------------------------------------------------*/
FoamFile
{
    version     2.0;
    format      ascii;
    class       volVectorField;
    location    "70";
    object      U;
}
// * * * * * * * * * * * * * * * * * * * * * * * * * * * * * * * * * * * * * //

dimensions      [0 1 -1 0 0 0 0];

internalField   nonuniform List<vector> 
3500
(
(-0.0612332 0.0101704 6.21778e-20)
(-0.09051 0.00991673 1.08421e-20)
(-0.116805 0.00919083 2.10995e-20)
(-0.139938 0.00830992 -1.22079e-20)
(-0.159645 0.00727302 -2.26358e-20)
(-0.175034 0.00573138 2.19717e-20)
(-0.188827 0.00530072 2.15203e-20)
(-0.19409 0.00217961 1.67994e-20)
(-0.00859216 0.015248 -7.88087e-20)
(-0.0305678 0.0268145 5.21697e-20)
(-0.0605404 0.0296313 -7.10073e-20)
(-0.0875778 0.0288941 3.80889e-21)
(-0.111098 0.0267475 -5.06653e-20)
(-0.130955 0.0241444 6.22719e-21)
(-0.147208 0.0212494 3.25243e-20)
(-0.157108 0.0163308 -1.43033e-19)
(-0.168006 0.0159102 3.52972e-20)
(-0.164981 0.00543082 1.4996e-22)
(-0.0106385 0.024011 1.46722e-19)
(-0.0324 0.0425765 -1.2986e-20)
(-0.0592532 0.047244 9.86711e-20)
(-0.0819181 0.0461233 -9.24048e-21)
(-0.0999418 0.042674 -1.08032e-19)
(-0.113013 0.0384356 7.97749e-20)
(-0.122685 0.0342992 -3.43065e-20)
(-0.120089 0.0253788 3.44076e-20)
(-0.126001 0.0271011 -1.0447e-19)
(-0.104522 0.00691959 1.48281e-19)
(-0.0134388 0.0309598 1.73243e-20)
(-0.0350228 0.0554807 -2.3348e-19)
(-0.0575236 0.0618584 -1.3895e-19)
(-0.0738477 0.0604245 7.31058e-20)
(-0.0838028 0.0558174 8.68405e-20)
(-0.0860893 0.0500367 -1.44559e-19)
(-0.0864868 0.0450267 6.19353e-20)
(-0.0622599 0.0325248 4.11871e-20)
(-0.061193 0.0371821 1.6547e-19)
(-0.00591193 0.010859 -2.13729e-19)
(-0.0167604 0.0357825 -7.38477e-20)
(-0.0382871 0.064776 1.15e-19)
(-0.0554589 0.0724736 3.36552e-19)
(-0.0635718 0.0706605 -1.67866e-19)
(-0.0629604 0.0649384 1.55803e-19)
(-0.050082 0.0580456 2.62766e-19)
(-0.0374349 0.0502164 -7.29949e-21)
(0.017458 0.0388517 7.47398e-21)
(0.0280256 0.0426196 -2.44187e-19)
(0.139682 0.0214748 1.15178e-19)
(-0.0204072 0.0384748 -1.7509e-19)
(-0.0419594 0.0700545 1.03693e-19)
(-0.0529257 0.0783448 -4.69723e-19)
(-0.050816 0.0758902 2.28713e-19)
(-0.0364371 0.0688528 3.20984e-20)
(-0.00421925 0.0618123 -2.96387e-19)
(0.0292979 0.0487526 -8.70159e-20)
(0.127522 0.0452486 8.69672e-20)
(0.143456 0.0377894 1.65188e-19)
(0.348553 0.0344002 -9.18365e-20)
(-0.0242567 0.0392955 -1.91874e-20)
(-0.0456234 0.0712621 -3.2618e-19)
(-0.049192 0.0791021 3.22238e-19)
(-0.0341922 0.0755501 -2.31667e-19)
(-0.000954852 0.0672286 5.74835e-20)
(0.0573403 0.0611836 1.92606e-19)
(0.122647 0.0427227 -3.5311e-19)
(0.273428 0.0520382 -1.47886e-19)
(0.30412 0.0311676 1.25655e-19)
(0.60796 0.046872 7.32637e-20)
(-0.0282532 0.03866 1.92081e-19)
(-0.0485211 0.068654 5.62887e-19)
(-0.042452 0.0748592 -5.43246e-19)
(-0.00998303 0.069814 1.32867e-19)
(0.050131 0.0608496 3.32593e-19)
(0.144827 0.0567003 -1.69332e-19)
(0.260506 0.0402528 -5.38456e-20)
(0.453003 0.0569911 -2.00119e-19)
(0.535589 0.0402204 2.38445e-19)
(0.869121 0.0682511 -1.67345e-19)
(-0.0323048 0.0369548 -3.52213e-19)
(-0.0493825 0.0627491 9.7365e-20)
(-0.029309 0.0662638 2.03173e-19)
(0.0285837 0.0599312 -1.01059e-19)
(0.128018 0.052472 -3.41492e-19)
(0.271961 0.0517158 4.04486e-19)
(0.450332 0.0511512 2.56773e-19)
(0.659988 0.064903 2.31469e-19)
(0.813998 0.0700582 -1.886e-19)
(1.07753 0.0959469 1.42736e-19)
(-0.0360664 0.0344115 -8.74732e-20)
(-0.0461869 0.0541714 -2.84608e-19)
(-0.0045174 0.0545378 -1.68878e-19)
(0.0913659 0.0487191 1.98322e-19)
(0.245297 0.0476165 3.80797e-20)
(0.447671 0.0556063 -2.38312e-19)
(0.672074 0.0743236 2.77759e-19)
(0.879761 0.0873886 -3.8999e-19)
(1.05266 0.111581 -2.19219e-19)
(1.19648 0.11648 7.63524e-20)
(-0.038876 0.0311258 2.13699e-19)
(-0.035908 0.0435012 2.99924e-19)
(0.0389736 0.0416209 1.24601e-19)
(0.189331 0.0409329 1.73634e-19)
(0.407862 0.0530692 -1.00665e-19)
(0.657702 0.0766007 -2.57451e-19)
(0.887893 0.10557 1.02636e-19)
(1.0681 0.122391 1.25904e-19)
(1.18819 0.144706 4.19061e-19)
(1.23264 0.120197 -2.46205e-19)
(-0.03977 0.0270466 3.1863e-19)
(-0.0145627 0.0312987 -3.88639e-20)
(0.109313 0.0306209 2.87243e-19)
(0.329065 0.0431414 -1.2765e-19)
(0.603773 0.0738912 3.89987e-19)
(0.863512 0.110709 1.54507e-19)
(1.05936 0.140175 1.91127e-19)
(1.18264 0.15461 -3.12714e-19)
(1.2353 0.157751 -1.27682e-19)
(1.26009 0.143321 1.22429e-19)
(-0.0374158 0.0220012 2.28741e-20)
(0.0226823 0.0184673 -2.80719e-19)
(0.213678 0.026603 -2.66455e-19)
(0.503985 0.060801 -6.72413e-20)
(0.80089 0.108129 -1.06204e-19)
(1.028 0.147865 1.15698e-19)
(1.16632 0.17029 -4.78803e-19)
(1.23128 0.173795 3.19957e-19)
(1.2548 0.171848 -3.15355e-21)
(1.25877 0.153361 -3.76752e-19)
(-0.0300935 0.0158719 -4.54489e-19)
(0.0812519 0.00713971 -9.27134e-20)
(0.353338 0.0357714 -9.83339e-21)
(0.69036 0.0933752 2.86288e-20)
(0.966176 0.147299 1.49987e-19)
(1.13729 0.180599 -4.67875e-19)
(1.22019 0.19175 4.57582e-19)
(1.25082 0.189554 -1.00724e-19)
(1.25384 0.180105 5.90365e-20)
(1.24788 0.162747 9.69136e-20)
(-0.0156943 0.00883092 1.21351e-20)
(0.165803 0.00194084 3.72605e-19)
(0.517094 0.061345 9.45655e-20)
(0.859435 0.134277 -5.07582e-20)
(1.08594 0.184365 -4.25132e-20)
(1.20061 0.206809 2.72419e-19)
(1.24423 0.209236 -1.20394e-21)
(1.25191 0.201218 1.9873e-19)
(1.24598 0.188419 -6.19532e-20)
(1.23945 0.172736 -2.89489e-21)
(0.0085569 0.00166721 7.42557e-20)
(0.277057 0.00955419 -1.35235e-19)
(0.682834 0.100408 1.06331e-19)
(0.994717 0.176981 1.40359e-19)
(1.16436 0.217185 -9.20766e-20)
(1.23321 0.228822 -1.52353e-20)
(1.2496 0.223679 -2.65877e-19)
(1.24549 0.212094 -1.74057e-19)
(1.23605 0.19651 2.12649e-19)
(1.22591 0.181352 -1.33614e-19)
(0.0455228 -0.00343988 9.61013e-20)
(0.408305 0.0347395 1.71359e-19)
(0.830726 0.147147 1.20278e-19)
(1.0938 0.218467 -1.81459e-19)
(1.21102 0.246431 2.14131e-19)
(1.24546 0.247927 -1.13453e-19)
(1.24542 0.237143 -2.83756e-20)
(1.23498 0.222305 -1.01886e-20)
(1.22333 0.204715 -6.02261e-20)
(1.21376 0.190548 1.92103e-20)
(0.0965644 -0.00296316 2.43959e-19)
(0.546119 0.0765568 -1.35435e-19)
(0.951634 0.19726 8.47639e-20)
(1.16084 0.257828 9.89053e-20)
(1.23445 0.272868 -7.05241e-20)
(1.2452 0.265601 1.06805e-19)
(1.23538 0.25004 3.88621e-20)
(1.22193 0.232476 5.16344e-20)
(1.21024 0.213376 3.28623e-20)
(1.19947 0.19892 5.24671e-20)
(0.160466 0.00665887 -8.98934e-20)
(0.676166 0.13029 -1.31681e-19)
(1.04411 0.248416 -1.03062e-19)
(1.20161 0.294785 -9.76542e-20)
(1.24145 0.297325 -4.29036e-20)
(1.23671 0.282455 4.70864e-20)
(1.22176 0.26284 -2.31885e-20)
(1.20725 0.242616 -2.21985e-22)
(1.19527 0.221959 -2.13207e-20)
(1.18489 0.206858 3.8626e-21)
(0.233346 0.0274632 2.40633e-20)
(0.788329 0.191098 -5.23537e-21)
(1.1098 0.299232 2.32586e-20)
(1.22161 0.329478 1.81851e-20)
(1.23667 0.320319 1.36104e-20)
(1.22265 0.298877 -3.64447e-20)
(1.20533 0.275457 1.68295e-20)
(1.19066 0.252551 -1.64043e-20)
(1.17938 0.230353 -5.23326e-21)
(1.16926 0.213888 -8.53508e-21)
(0.309615 0.0594073 1.24893e-21)
(0.878004 0.25529 -7.31277e-22)
(1.15135 0.348685 -5.04077e-21)
(1.22528 0.362092 6.05411e-20)
(1.22322 0.342152 -1.63938e-20)
(1.20424 0.314804 -1.53451e-20)
(1.18638 0.287712 1.99159e-21)
(1.17238 0.262045 -1.63577e-21)
(1.16179 0.238016 -6.05605e-21)
(1.15259 0.219954 -1.25895e-20)
(0.383203 0.10087 -1.03549e-19)
(0.944251 0.32029 1.95891e-20)
(1.17179 0.395942 -1.6685e-19)
(1.21593 0.392578 -5.839e-20)
(1.20301 0.362786 -1.78123e-20)
(1.18214 0.329992 -2.24613e-21)
(1.16499 0.299248 -1.17078e-20)
(1.15218 0.270755 -6.29073e-21)
(1.14285 0.244831 5.93269e-21)
(1.13435 0.224941 8.65056e-21)
(0.448562 0.149536 1.78671e-19)
(0.987499 0.384025 -9.10962e-20)
(1.17396 0.440099 1.2672e-19)
(1.19594 0.420679 5.03597e-20)
(1.17717 0.381944 -1.75425e-20)
(1.15663 0.343999 5.8235e-20)
(1.14119 0.309621 -1.47471e-20)
(1.13027 0.278386 1.66846e-20)
(1.12228 0.250745 3.31109e-21)
(1.11442 0.228769 5.48948e-21)
(0.501412 0.202815 -1.09453e-19)
(1.00905 0.444712 4.14362e-19)
(1.16039 0.480315 -7.62104e-20)
(1.16704 0.445951 -4.2369e-20)
(1.14645 0.399104 8.88931e-20)
(1.12804 0.356292 -3.68975e-20)
(1.11515 0.318352 -1.27734e-20)
(1.10661 0.284589 -8.13586e-21)
(1.10006 0.255682 1.09776e-21)
(1.09359 0.231408 -1.05928e-20)
(0.539058 0.257937 -1.98519e-19)
(1.01062 0.500701 -2.21327e-19)
(1.13314 0.51567 1.35051e-19)
(1.13063 0.467744 3.7228e-20)
(1.11157 0.413589 -4.37433e-20)
(1.09674 0.366318 -5.50063e-21)
(1.0871 0.325069 1.90812e-20)
(1.08113 0.289132 6.59602e-21)
(1.07624 0.259015 -2.08541e-20)
(1.07214 0.232693 -2.48501e-21)
(0.56036 0.312013 6.85143e-20)
(0.99412 0.550434 2.84506e-19)
(1.09401 0.545136 -5.71557e-20)
(1.0881 0.485238 4.44825e-21)
(1.07319 0.424684 -3.30306e-21)
(1.06288 0.373466 1.36576e-21)
(1.0571 0.329473 1.513e-20)
(1.05394 0.291686 -1.18835e-20)
(1.05133 0.260469 1.98238e-20)
(1.0501 0.232532 -1.95669e-20)
(0.565516 0.36226 -5.06382e-19)
(0.961327 0.59228 2.53879e-20)
(1.04505 0.567715 -1.05345e-19)
(1.04058 0.497401 1.27689e-20)
(1.03164 0.431741 -1.90632e-21)
(1.02674 0.377229 5.88977e-20)
(1.02542 0.331068 -4.7993e-20)
(1.02559 0.291923 2.79324e-20)
(1.02593 0.259754 -2.66496e-20)
(1.0282 0.230854 -8.9398e-20)
(0.555601 0.406394 2.56835e-19)
(0.913795 0.62416 -2.39888e-19)
(0.988575 0.58254 -1.68633e-20)
(0.989017 0.503438 -3.28731e-21)
(0.987518 0.433991 9.15478e-20)
(0.988857 0.377066 -8.67508e-21)
(0.992472 0.329442 7.18221e-20)
(0.996627 0.289446 8.35379e-21)
(1.0009 0.256693 5.72458e-21)
(1.00727 0.227753 1.2517e-19)
(0.531737 0.442723 1.42026e-19)
(0.854012 0.644495 -1.98162e-20)
(0.926602 0.588364 -7.92144e-21)
(0.934505 0.502891 7.19599e-20)
(0.941571 0.430893 -3.06731e-20)
(0.949708 0.372486 -1.09794e-19)
(0.958758 0.324065 -7.06985e-20)
(0.967654 0.283663 7.04222e-21)
(0.976928 0.250764 9.73867e-20)
(0.987686 0.223582 -7.95323e-20)
(0.495106 0.468691 -1.17865e-20)
(0.786021 0.652953 -2.59965e-20)
(0.861003 0.584274 -1.00201e-19)
(0.878189 0.495204 4.65244e-21)
(0.894586 0.422016 1.50418e-19)
(0.909939 0.363141 -4.80047e-20)
(0.924824 0.314604 1.79903e-19)
(0.939082 0.274005 -2.48517e-19)
(0.953926 0.2407 -1.67507e-19)
(0.968291 0.21716 -3.6053e-20)
(0.448042 0.481036 3.61554e-20)
(0.712359 0.647991 5.38481e-20)
(0.793314 0.570167 3.45589e-20)
(0.821264 0.479935 -5.34742e-20)
(0.847444 0.407078 -2.2708e-19)
(0.870279 0.348847 2.14423e-19)
(0.891318 0.301074 8.31276e-20)
(0.911138 0.260877 1.07831e-19)
(0.931223 0.226046 3.08863e-19)
(0.946447 0.199855 -7.50085e-20)
(0.394715 0.479407 1.31053e-19)
(0.636027 0.62918 -2.32483e-20)
(0.72542 0.545845 -5.78615e-20)
(0.764988 0.456828 1.12364e-19)
(0.801111 0.385888 2.01061e-19)
(0.831567 0.329461 -4.77061e-19)
(0.858951 0.283462 -7.43703e-20)
(0.884045 0.245261 -1.94009e-19)
(0.90723 0.212995 3.929e-20)
(0.92198 0.18814 -1.40957e-19)
(0.33828 0.46342 -2.65955e-19)
(0.559683 0.59618 -1.20295e-19)
(0.659113 0.511374 4.0057e-19)
(0.710652 0.425885 -2.29888e-19)
(0.756587 0.358451 -3.31779e-19)
(0.794599 0.304934 3.11383e-19)
(0.828285 0.261281 -2.8575e-19)
(0.858497 0.22479 1.42051e-19)
(0.885021 0.193875 -1.76749e-19)
(0.901913 0.170299 2.79715e-19)
(0.281871 0.433501 -1.08366e-19)
(0.486124 0.549367 5.94558e-19)
(0.596201 0.467021 -6.19682e-19)
(0.659545 0.387324 2.5912e-20)
(0.71488 0.325016 2.02483e-19)
(0.760078 0.27577 -1.25469e-20)
(0.799481 0.23585 4.36933e-19)
(0.833851 0.202702 -3.8111e-19)
(0.863112 0.174603 2.77781e-19)
(0.883113 0.152538 -1.87871e-19)
(0.228307 0.390671 -1.77314e-19)
(0.417862 0.489473 9.69652e-20)
(0.53841 0.4133 2.67003e-19)
(0.612935 0.341543 3.0715e-19)
(0.677031 0.285798 -7.05392e-20)
(0.728957 0.241787 2.91499e-19)
(0.773682 0.206123 2.45106e-20)
(0.811877 0.17656 3.14896e-20)
(0.843828 0.151692 -1.11926e-19)
(0.866884 0.132271 -6.07086e-21)
(0.179994 0.336499 5.35084e-19)
(0.357155 0.417699 -3.71481e-19)
(0.4874 0.350997 -4.96472e-19)
(0.571983 0.289251 2.78813e-20)
(0.643844 0.241538 -1.46088e-19)
(0.701649 0.20398 1.22053e-19)
(0.750909 0.173629 -4.46396e-19)
(0.79236 0.14847 1.31679e-19)
(0.826902 0.127212 3.74851e-19)
(0.853064 0.110436 -1.81335e-19)
(0.13881 0.272661 7.26985e-20)
(0.306027 0.335801 4.6195e-19)
(0.444755 0.281183 3.3373e-19)
(0.537834 0.231237 -3.12224e-19)
(0.616272 0.192734 1.94856e-19)
(0.679029 0.162465 -8.82925e-20)
(0.732049 0.138052 -5.75217e-20)
(0.776174 0.117869 -2.73593e-20)
(0.812951 0.100815 -1.15929e-19)
(0.841894 0.0872302 2.14068e-19)
(0.106314 0.200797 -3.58354e-19)
(0.26614 0.245815 -4.17806e-19)
(0.411683 0.205314 -6.75922e-21)
(0.511369 0.168616 2.97587e-19)
(0.594924 0.140366 -5.45944e-20)
(0.66152 0.118184 -5.90342e-20)
(0.717425 0.100308 8.57962e-20)
(0.763609 0.08553 -4.63604e-20)
(0.802192 0.0730122 -3.69964e-20)
(0.833448 0.0629596 3.84699e-20)
(0.083852 0.122944 5.21009e-20)
(0.238804 0.149909 -6.85347e-20)
(0.389116 0.124999 2.95742e-19)
(0.493324 0.102567 -7.25492e-20)
(0.580382 0.08531 1.36892e-19)
(0.649598 0.0717691 -3.67779e-20)
(0.707457 0.0608683 -5.73769e-20)
(0.755036 0.0518607 9.19113e-20)
(0.79488 0.0442115 1.27948e-20)
(0.827803 0.0380227 -3.31044e-20)
(0.484178 0.0344302 -6.87146e-20)
(0.573014 0.0286256 3.1525e-20)
(0.643558 0.024072 -1.67033e-20)
(0.702402 0.0204076 1.99175e-20)
(0.750684 0.0173801 -2.61649e-20)
(0.791175 0.014805 -1.59448e-20)
(0.824975 0.0127127 5.63431e-24)
(-0.197801 0.00318399 -4.92716e-20)
(-0.201552 0.00288889 3.52573e-20)
(-0.204791 0.00251261 4.79045e-22)
(-0.207644 0.0021671 -6.10585e-21)
(-0.210178 0.00185374 -1.21847e-20)
(-0.212428 0.00156828 -1.40026e-20)
(-0.214426 0.00130622 -2.39422e-20)
(-0.2162 0.00106264 4.25723e-20)
(-0.217771 0.000833082 -2.41286e-20)
(-0.219154 0.000614002 4.94637e-20)
(-0.220362 0.000403014 -3.11463e-20)
(-0.221402 0.00019891 -4.49202e-21)
(-0.222273 1.47044e-06 -1.0983e-20)
(-0.222975 -0.000188528 2.84721e-20)
(-0.223527 -0.000367501 -1.87486e-20)
(-0.223943 -0.000526067 1.91074e-20)
(-0.224221 -0.000669802 -1.32866e-20)
(-0.224362 -0.000801601 -1.11794e-20)
(-0.224366 -0.000922871 7.20012e-21)
(-0.224234 -0.00103378 -4.77818e-21)
(-0.223965 -0.00113544 1.78141e-20)
(-0.223561 -0.00123048 -8.11514e-21)
(-0.223023 -0.00131489 -1.20039e-20)
(-0.222348 -0.00138657 7.44254e-21)
(-0.221538 -0.0014453 -1.00901e-20)
(-0.220589 -0.00149124 1.18745e-20)
(-0.219501 -0.00152471 3.29089e-21)
(-0.218271 -0.00154619 -9.48052e-21)
(-0.216896 -0.00155635 1.6997e-20)
(-0.165279 0.00891976 5.07111e-21)
(-0.168724 0.00816104 4.20076e-20)
(-0.171478 0.00718994 -6.58972e-20)
(-0.173849 0.0062956 1.00955e-19)
(-0.175959 0.00549858 -8.30717e-20)
(-0.177827 0.00478524 -2.70386e-21)
(-0.179474 0.00414307 1.08427e-19)
(-0.180922 0.0035584 -3.53546e-20)
(-0.182187 0.00301823 1.30652e-20)
(-0.183279 0.00251173 -4.26714e-20)
(-0.184207 0.00203052 -4.98367e-20)
(-0.184975 0.00156849 2.69513e-20)
(-0.185588 0.00112159 -3.4667e-20)
(-0.186042 0.000688247 6.95878e-20)
(-0.186329 0.000270601 -2.18444e-20)
(-0.186468 -0.000130671 2.27666e-20)
(-0.186476 -0.000516779 -1.17259e-20)
(-0.186351 -0.000889229 -2.67153e-20)
(-0.186091 -0.00124891 3.0067e-20)
(-0.185695 -0.00159623 -9.84885e-21)
(-0.185164 -0.00193164 -4.34608e-20)
(-0.184495 -0.00225538 4.05792e-20)
(-0.183689 -0.00256738 -2.62505e-20)
(-0.182747 -0.00286613 -5.97031e-21)
(-0.181667 -0.00315392 1.01613e-20)
(-0.180449 -0.00343141 2.91878e-20)
(-0.179092 -0.00369896 -7.98362e-21)
(-0.177592 -0.00395712 5.35004e-20)
(-0.175948 -0.00420658 -7.09279e-22)
(-0.0998106 0.0136408 -1.31348e-19)
(-0.102806 0.0120557 5.269e-20)
(-0.104636 0.0107752 -1.39165e-19)
(-0.106187 0.00940809 2.53652e-19)
(-0.107606 0.00819842 -1.70887e-19)
(-0.108877 0.00711713 2.07346e-19)
(-0.109987 0.00614543 -2.06739e-19)
(-0.110939 0.00526086 9.31288e-20)
(-0.111739 0.00444059 -2.10096e-20)
(-0.112388 0.00366636 1.12619e-19)
(-0.112887 0.00292481 -5.29135e-20)
(-0.113237 0.00220603 -6.67009e-20)
(-0.113432 0.00150405 -1.2765e-19)
(-0.113465 0.000821008 1.31811e-19)
(-0.113353 0.00016894 -1.78405e-21)
(-0.113107 -0.000471971 -1.17785e-19)
(-0.112715 -0.00109519 2.75223e-20)
(-0.112183 -0.00170179 1.02861e-19)
(-0.111509 -0.00229373 -2.93402e-20)
(-0.110695 -0.00287254 5.36352e-21)
(-0.10974 -0.0034393 6.0569e-20)
(-0.108645 -0.00399531 -5.88557e-20)
(-0.107407 -0.00454852 9.3988e-20)
(-0.106028 -0.00507768 -1.48668e-20)
(-0.10451 -0.00559428 -1.23077e-19)
(-0.102852 -0.00610209 1.23544e-19)
(-0.101051 -0.00660193 -4.50456e-20)
(-0.0991072 -0.00709465 4.35368e-20)
(-0.0970184 -0.00758107 -1.27566e-19)
(0.00197918 0.014244 6.49793e-21)
(-0.00187375 0.0135089 -1.56784e-19)
(-0.00226508 0.0125954 1.39671e-19)
(-0.00324578 0.0111624 1.00186e-19)
(-0.00407502 0.00979241 -6.78632e-20)
(-0.00489569 0.00848863 -1.33373e-19)
(-0.00563406 0.00727172 5.64161e-21)
(-0.00626738 0.00614135 9.66739e-20)
(-0.0067812 0.00508054 -7.91528e-20)
(-0.00715983 0.00407128 1.32945e-19)
(-0.00739242 0.00310019 -1.69418e-19)
(-0.00747417 0.00215494 1.61378e-19)
(-0.00739705 0.00122393 -3.66966e-20)
(-0.00712794 0.000303625 2.45978e-20)
(-0.00670884 -0.000613301 4.41191e-20)
(-0.00614937 -0.00151043 -3.84729e-20)
(-0.00542769 -0.00238349 -1.56955e-19)
(-0.00455247 -0.00323896 6.49446e-20)
(-0.00352679 -0.00407885 1.22409e-19)
(-0.00235117 -0.00490374 -3.78984e-20)
(-0.00102664 -0.00571448 -5.4441e-20)
(0.000427792 -0.00651643 -1.90891e-20)
(0.00204748 -0.00730024 -6.73335e-21)
(0.00384311 -0.0080644 -5.16047e-20)
(0.00577426 -0.00882072 1.40063e-19)
(0.00784785 -0.00956928 -1.76613e-21)
(0.0100684 -0.0103102 -4.47688e-20)
(0.0124368 -0.0110442 2.33285e-20)
(0.0149539 -0.0117719 -4.03605e-20)
(0.01762 -0.0124939 -7.29167e-20)
(0.149279 0.0169265 6.02165e-20)
(0.146378 0.0150962 8.14516e-21)
(0.143002 0.0133961 -3.04664e-19)
(0.140649 0.0120906 1.31711e-19)
(0.138856 0.0107947 -1.10793e-19)
(0.137315 0.00944171 2.71399e-20)
(0.135987 0.00810105 -4.65591e-20)
(0.134854 0.00680152 1.0871e-19)
(0.133903 0.00552793 -2.95036e-21)
(0.133141 0.0042713 3.39179e-19)
(0.132577 0.00303572 -5.70864e-20)
(0.132209 0.00182077 -1.45642e-19)
(0.132035 0.000616309 -2.31491e-20)
(0.132063 -0.000589787 -6.95175e-21)
(0.132288 -0.00181392 -5.62639e-20)
(0.13272 -0.00302292 -5.1317e-20)
(0.133348 -0.004187 3.52817e-21)
(0.134165 -0.00531552 6.51565e-20)
(0.135169 -0.00641898 8.72808e-20)
(0.136358 -0.00750368 -9.9744e-20)
(0.137725 -0.00857078 1.03804e-19)
(0.139265 -0.00962286 -1.38623e-19)
(0.140973 -0.010644 4.58901e-20)
(0.142854 -0.0116541 -1.71043e-20)
(0.144903 -0.0126541 -1.19184e-19)
(0.147117 -0.0136445 1.03558e-19)
(0.149496 -0.0146265 2.74358e-20)
(0.152037 -0.015601 -6.95361e-20)
(0.15474 -0.0165683 9.31549e-20)
(0.157602 -0.0175287 4.51075e-20)
(0.345981 0.0276449 -1.33069e-20)
(0.342172 0.0230742 -7.56914e-20)
(0.336748 0.0196068 7.25762e-20)
(0.331239 0.0170018 1.73956e-19)
(0.326238 0.01468 4.29831e-20)
(0.321914 0.0125361 -1.72241e-19)
(0.318199 0.0106358 2.93838e-20)
(0.314946 0.00892095 2.19791e-19)
(0.31208 0.00728172 -5.99026e-19)
(0.309599 0.00567143 2.12216e-19)
(0.307497 0.0040938 -1.79241e-19)
(0.305746 0.00255183 3.27183e-19)
(0.304314 0.00103439 9.59361e-20)
(0.303177 -0.00047413 -2.72633e-19)
(0.302346 -0.00197435 3.86376e-19)
(0.30187 -0.00347521 -8.3201e-20)
(0.301696 -0.00499942 -2.52118e-19)
(0.301773 -0.0065178 -2.30463e-19)
(0.302086 -0.00798509 3.00053e-19)
(0.302638 -0.00940753 1.67391e-19)
(0.303427 -0.0107945 -2.26881e-19)
(0.304441 -0.0121579 2.27793e-19)
(0.305673 -0.0134996 -3.46758e-19)
(0.307115 -0.0148211 8.43383e-20)
(0.308761 -0.0161238 -3.4699e-20)
(0.310604 -0.0174099 1.41142e-19)
(0.312642 -0.0186813 4.69176e-20)
(0.314871 -0.0199384 -2.40802e-19)
(0.317288 -0.0211808 -3.78978e-20)
(0.319887 -0.0224087 1.45068e-19)
(0.58822 0.0406438 -1.14746e-19)
(0.578917 0.0362376 1.37015e-20)
(0.570173 0.0325788 2.02479e-19)
(0.560905 0.0290273 -2.26379e-19)
(0.551825 0.0252647 1.16214e-19)
(0.54366 0.021691 1.06986e-19)
(0.536431 0.0185787 9.28955e-20)
(0.529859 0.0158057 -2.81245e-19)
(0.523833 0.0131978 -1.64882e-19)
(0.518392 0.0107107 -3.10482e-20)
(0.513551 0.00835359 4.976e-19)
(0.509269 0.00611237 7.77268e-21)
(0.50549 0.0039586 -4.64856e-19)
(0.502171 0.00187086 1.63138e-19)
(0.49927 -0.000159967 -1.27028e-20)
(0.496757 -0.00215179 9.94537e-20)
(0.494663 -0.00411377 5.55125e-20)
(0.493077 -0.00604104 -9.24844e-20)
(0.491889 -0.00797755 2.24705e-19)
(0.491034 -0.00990652 9.54393e-21)
(0.490481 -0.011748 -4.34477e-19)
(0.490228 -0.0135133 2.11522e-19)
(0.490268 -0.0152172 1.04804e-19)
(0.490589 -0.0168745 -1.48888e-20)
(0.491178 -0.0184984 -4.78855e-20)
(0.49202 -0.0200979 6.13956e-20)
(0.493109 -0.0216784 1.11906e-19)
(0.494435 -0.0232399 -4.17356e-19)
(0.495992 -0.0247793 3.5252e-19)
(0.497766 -0.0262953 -2.20545e-19)
(0.499747 -0.0277893 -6.42932e-20)
(0.840776 0.0591211 1.16667e-19)
(0.826779 0.0542971 -2.89291e-19)
(0.814771 0.0508132 3.70983e-22)
(0.802105 0.0465495 2.73726e-19)
(0.789576 0.0415459 -7.74241e-20)
(0.77823 0.036816 -1.87255e-19)
(0.76798 0.0326397 3.31839e-20)
(0.75838 0.0287449 6.97364e-20)
(0.749329 0.0249871 -8.45884e-20)
(0.740932 0.0214124 1.34332e-19)
(0.733231 0.0180529 7.29606e-20)
(0.72619 0.0148772 6.21313e-20)
(0.719763 0.0118468 -1.65754e-19)
(0.713923 0.00894302 5.88326e-20)
(0.708645 0.00615759 5.11687e-21)
(0.703894 0.00348668 -2.10039e-19)
(0.699616 0.000920028 2.81427e-19)
(0.695791 -0.00158579 -2.20472e-19)
(0.692425 -0.00404923 1.29784e-19)
(0.689678 -0.00643901 -1.45551e-19)
(0.687399 -0.00884801 9.45201e-20)
(0.685484 -0.0112843 -7.49424e-20)
(0.6839 -0.0136244 -1.41399e-20)
(0.682638 -0.0158626 -1.50178e-19)
(0.681686 -0.018014 3.16162e-20)
(0.681033 -0.0200961 2.08017e-19)
(0.680671 -0.0221273 8.42153e-20)
(0.680596 -0.0241129 -2.03205e-19)
(0.680797 -0.0260508 1.29063e-19)
(0.681256 -0.0279422 -9.88624e-20)
(0.681953 -0.0297929 1.22706e-19)
(0.682875 -0.031607 -1.13182e-19)
(1.05107 0.0830026 5.48123e-21)
(1.03773 0.0779026 1.63145e-19)
(1.02554 0.073863 1.42498e-19)
(1.01207 0.0680437 -4.04356e-19)
(0.99883 0.0616118 1.40436e-19)
(0.986908 0.0558346 1.58267e-19)
(0.975933 0.0505725 3.51505e-20)
(0.965401 0.0454296 1.06926e-19)
(0.955291 0.0404024 -2.48681e-19)
(0.945737 0.0356176 -1.39274e-19)
(0.936771 0.0310989 2.8147e-19)
(0.928366 0.0268113 -1.08932e-19)
(0.920504 0.0227336 -2.6633e-19)
(0.913183 0.0188577 3.50476e-19)
(0.90639 0.0151704 -2.00731e-19)
(0.90011 0.0116555 8.59974e-20)
(0.894319 0.0083008 2.05298e-19)
(0.889 0.00510433 -2.27511e-19)
(0.884089 0.00204901 -2.774e-19)
(0.879566 -0.000924726 1.46728e-20)
(0.875403 -0.00385524 3.0468e-19)
(0.871868 -0.00663662 2.35077e-19)
(0.868833 -0.00939877 -2.345e-19)
(0.866148 -0.0121746 -2.36687e-19)
(0.863764 -0.0148591 1.35633e-19)
(0.861658 -0.0174492 1.53895e-19)
(0.859828 -0.0199685 7.2668e-20)
(0.858285 -0.0224105 -1.41382e-19)
(0.857024 -0.0247651 1.60256e-19)
(0.856022 -0.027039 -3.16658e-19)
(0.855259 -0.0292446 7.84035e-20)
(0.85472 -0.0313892 -1.08062e-19)
(1.18183 0.103422 -2.7517e-19)
(1.1746 0.0998156 3.99223e-19)
(1.16629 0.0952401 -5.0729e-20)
(1.15626 0.0885752 -2.13562e-19)
(1.14654 0.081947 3.15841e-19)
(1.13777 0.0760051 -4.09955e-19)
(1.12941 0.0702734 -1.29612e-19)
(1.12115 0.0645258 -1.12546e-19)
(1.11303 0.0588675 3.25426e-19)
(1.10514 0.05338 -2.0143e-19)
(1.09751 0.0480597 2.72213e-19)
(1.09014 0.0429021 1.2223e-19)
(1.08304 0.0379207 -1.68469e-19)
(1.07623 0.0331253 -3.0834e-19)
(1.06972 0.0285149 3.62114e-19)
(1.06352 0.0240848 7.79075e-20)
(1.05761 0.0198311 -7.80423e-20)
(1.05202 0.0157488 -1.52585e-19)
(1.04673 0.0118439 2.9856e-19)
(1.04174 0.00812273 -3.54157e-19)
(1.03701 0.00460041 3.7477e-19)
(1.03248 0.00117548 -9.4226e-20)
(1.02817 -0.00222546 -2.65432e-19)
(1.02433 -0.0054526 -7.01781e-20)
(1.02088 -0.00855463 3.91145e-19)
(1.01765 -0.011632 2.74153e-20)
(1.01462 -0.0146804 -1.86755e-19)
(1.01185 -0.017644 2.97398e-20)
(1.00931 -0.0205018 -2.28371e-19)
(1.00699 -0.0232631 -3.06994e-21)
(1.00486 -0.0259374 2.05071e-19)
(1.00293 -0.0285269 3.70681e-20)
(1.00118 -0.0310318 -1.59098e-19)
(1.2609 0.126216 0)
(1.26039 0.118971 0)
(1.25533 0.112377 0)
(1.2486 0.105882 0)
(1.24222 0.0994345 0)
(1.23655 0.0929785 0)
(1.23125 0.0865915 0)
(1.22602 0.0803983 0)
(1.22075 0.074439 0)
(1.21546 0.0686826 0)
(1.21018 0.063097 0)
(1.20496 0.057673 0)
(1.19979 0.0524127 0)
(1.19471 0.0473171 0)
(1.18971 0.0423856 0)
(1.18482 0.0376136 0)
(1.18002 0.0329982 0)
(1.17535 0.0285317 0)
(1.1708 0.024212 0)
(1.16638 0.0200243 0)
(1.16209 0.015972 0)
(1.15794 0.0120494 0)
(1.15392 0.00831561 0)
(1.14999 0.00473849 0)
(1.14616 0.00123534 0)
(1.14246 -0.00218777 0)
(1.13896 -0.00549027 0)
(1.13566 -0.00865578 0)
(1.13255 -0.0117056 0)
(1.12958 -0.0146612 1.82956e-27)
(1.12675 -0.0175305 -1.82957e-27)
(1.12405 -0.020314 0)
(1.12147 -0.023012 0)
(1.26375 0.12933 0)
(1.27006 0.121595 0)
(1.27124 0.114701 0)
(1.26963 0.108342 0)
(1.26762 0.102173 0)
(1.26606 0.096058 0)
(1.26486 0.0900302 0)
(1.26364 0.0841561 0)
(1.26218 0.0784549 0)
(1.26045 0.0729084 0)
(1.25849 0.0674939 0)
(1.25636 0.0622001 0)
(1.25411 0.0570257 0)
(1.25175 0.0519731 0)
(1.24929 0.0470445 0)
(1.24674 0.0422399 0)
(1.24411 0.0375591 0)
(1.24142 0.0329998 0)
(1.23868 0.0285619 0)
(1.2359 0.024243 0)
(1.23308 0.0200447 0)
(1.23024 0.0159645 0)
(1.22738 0.0120071 0)
(1.22454 0.00818202 0)
(1.22175 0.00451777 0)
(1.21904 0.00100987 0)
(1.21644 -0.00234628 0)
(1.21385 -0.00558954 0)
(1.21125 -0.00874853 0)
(1.20864 -0.0118266 5.52236e-27)
(1.20605 -0.0148183 -5.52236e-27)
(1.2035 -0.0177204 0)
(1.20098 -0.0205339 0)
(1.25568 0.126441 0)
(1.26345 0.119524 0)
(1.26659 0.112886 0)
(1.26691 0.106693 0)
(1.26664 0.100828 0)
(1.26676 0.0951552 0)
(1.26728 0.0896088 0)
(1.26785 0.0841821 0)
(1.26821 0.0788822 0)
(1.26829 0.0737083 0)
(1.26812 0.0686531 0)
(1.26776 0.0637092 0)
(1.26724 0.0588727 0)
(1.26659 0.0541431 0)
(1.26579 0.0495212 0)
(1.26486 0.0450077 0)
(1.2638 0.0406034 0)
(1.26262 0.0363086 0)
(1.26133 0.0321246 0)
(1.25994 0.0280529 0)
(1.25847 0.0240964 0)
(1.25692 0.0202581 0)
(1.25531 0.016542 0)
(1.25365 0.0129479 0)
(1.25194 0.00946692 0)
(1.25018 0.00607694 0)
(1.24835 0.00275152 0)
(1.24642 -0.000524904 0)
(1.24445 -0.00373148 0)
(1.24247 -0.00684846 1.69958e-27)
(1.24049 -0.00987218 -1.69958e-27)
(1.23849 -0.0128062 0)
(1.23647 -0.0156543 0)
(1.24493 0.122384 0)
(1.25266 0.116155 0)
(1.25652 0.109952 0)
(1.25784 0.104067 0)
(1.25845 0.0985095 0)
(1.25931 0.0931778 0)
(1.2605 0.0879838 0)
(1.26175 0.0828916 0)
(1.26283 0.0778996 0)
(1.26366 0.073015 0)
(1.26425 0.0682395 0)
(1.26467 0.0635701 0)
(1.26493 0.0590021 0)
(1.26507 0.0545324 0)
(1.26507 0.0501599 0)
(1.26494 0.0458841 0)
(1.26468 0.041705 0)
(1.26429 0.0376224 0)
(1.26378 0.0336362 0)
(1.26317 0.029746 0)
(1.26245 0.0259507 0)
(1.26163 0.0222484 0)
(1.26072 0.0186348 0)
(1.25972 0.0151042 0)
(1.25863 0.0116494 0)
(1.25746 0.00826911 0)
(1.25621 0.00496616 0)
(1.25491 0.00175826 0)
(1.25357 -0.00134282 0)
(1.25218 -0.00434584 0)
(1.25072 -0.00726147 0)
(1.2492 -0.010096 0)
(1.24763 -0.012852 0)
(1.2335 0.117208 0)
(1.24095 0.111617 0)
(1.24514 0.105965 0)
(1.24706 0.100515 0)
(1.24825 0.0953227 0)
(1.24956 0.09033 0)
(1.2511 0.0854648 0)
(1.25267 0.080689 0)
(1.25409 0.0759968 0)
(1.25527 0.0713955 0)
(1.25624 0.0668906 0)
(1.25703 0.0624819 0)
(1.25767 0.0581662 0)
(1.25818 0.0539401 0)
(1.25857 0.0498018 0)
(1.25882 0.0457504 0)
(1.25895 0.0417857 0)
(1.25896 0.0379074 0)
(1.25885 0.0341151 0)
(1.25862 0.0304078 0)
(1.2583 0.0267845 0)
(1.25787 0.023244 0)
(1.25734 0.0197853 0)
(1.25672 0.0164089 0)
(1.25601 0.0131163 0)
(1.25522 0.00991044 0)
(1.25436 0.00679215 0)
(1.25344 0.00376149 0)
(1.25244 0.000808336 0)
(1.25137 -0.00207455 0)
(1.25023 -0.00488633 0)
(1.24902 -0.00762502 0)
(1.24775 -0.0102899 0)
(1.22277 0.11137 0)
(1.22987 0.106409 0)
(1.23414 0.101327 0)
(1.23641 0.0963574 0)
(1.23799 0.0915724 0)
(1.23959 0.0869438 0)
(1.24135 0.082421 0)
(1.24312 0.0779734 0)
(1.24473 0.0735945 0)
(1.24612 0.06929 0)
(1.2473 0.0650662 0)
(1.2483 0.0609249 0)
(1.24917 0.056865 0)
(1.2499 0.0528842 0)
(1.2505 0.0489812 0)
(1.25097 0.0451554 0)
(1.25132 0.0414069 0)
(1.25156 0.0377357 0)
(1.25167 0.0341417 0)
(1.25168 0.0306246 0)
(1.25158 0.0271844 0)
(1.25137 0.023821 0)
(1.25108 0.0205348 0)
(1.25069 0.0173265 0)
(1.25021 0.0141964 0)
(1.24966 0.0111441 0)
(1.24902 0.00816621 0)
(1.24831 0.00525935 0)
(1.24752 0.00241989 0)
(1.24666 -0.000350415 0)
(1.24573 -0.0030503 0)
(1.24473 -0.00567947 0)
(1.24367 -0.00823821 0)
(1.21321 0.105413 0)
(1.21983 0.101008 0)
(1.22406 0.0964464 0)
(1.22653 0.0919399 0)
(1.22835 0.0875627 0)
(1.23016 0.0833016 5.10976e-28)
(1.23207 0.0791217 -5.10976e-28)
(1.23396 0.0749999 0)
(1.23569 0.0709316 0)
(1.23721 0.066922 0)
(1.23854 0.0629774 0)
(1.23969 0.0591011 0)
(1.2407 0.0552937 0)
(1.24158 0.0515544 0)
(1.24233 0.0478829 0)
(1.24296 0.0442792 0)
(1.24346 0.0407436 0)
(1.24384 0.0372768 0)
(1.24411 0.0338791 0)
(1.24427 0.0305508 0)
(1.24433 0.0272922 0)
(1.24428 0.0241035 0)
(1.24415 0.020985 0)
(1.24392 0.0179365 0)
(1.2436 0.0149573 0)
(1.2432 0.0120464 0)
(1.24272 0.00920226 0)
(1.24216 0.00642394 0)
(1.24152 0.00371168 0)
(1.24081 0.00106619 0)
(1.24003 -0.00151245 0)
(1.23918 -0.00402461 0)
(1.23827 -0.00647086 0)
(1.20466 0.0994575 0)
(1.2108 0.0955335 0)
(1.21491 0.0914451 0)
(1.21749 0.0873736 0)
(1.21949 0.083389 0)
(1.22144 0.0794867 -8.1323e-28)
(1.22344 0.0756416 8.1323e-28)
(1.22541 0.0718375 0)
(1.22723 0.0680721 0)
(1.22885 0.0643509 0)
(1.23028 0.0606804 0)
(1.23154 0.0570648 0)
(1.23266 0.0535061 0)
(1.23365 0.0500048 0)
(1.23452 0.0465614 0)
(1.23526 0.0431766 0)
(1.23588 0.0398513 0)
(1.23638 0.0365864 0)
(1.23677 0.0333827 0)
(1.23705 0.0302409 0)
(1.23723 0.0271613 0)
(1.23731 0.0241444 0)
(1.23729 0.0211903 0)
(1.23719 0.0182988 0)
(1.23699 0.0154698 0)
(1.23672 0.0127031 0)
(1.23635 0.00999848 0)
(1.23592 0.00735613 0)
(1.2354 0.00477617 0)