/*--------------------------------*- C++ -*----------------------------------*\
  =========                 |
  \\      /  F ield         | OpenFOAM: The Open Source CFD Toolbox
   \\    /   O peration     | Website:  https://openfoam.org
    \\  /    A nd           | Version:  7
     \\/     M anipulation  |
\*---------------------------------------------------------------------------*/
FoamFile
{
    version     2.0;
    format      ascii;
    class       volScalarField;
    location    "75";
    object      p;
}
// * * * * * * * * * * * * * * * * * * * * * * * * * * * * * * * * * * * * * //

dimensions      [0 2 -2 0 0 0 0];

internalField   nonuniform List<scalar> 
3500
(
-0.177855
-0.171718
-0.165899
-0.159955
-0.154241
-0.148745
-0.143505
-0.138526
-0.133803
-0.129334
-0.125116
-0.121146
-0.117421
-0.113936
-0.110687
-0.10767
-0.104881
-0.102314
-0.099965
-0.0978298
-0.0959038
-0.094183
-0.0926637
-0.0913422
-0.0902155
-0.0892808
-0.0885359
-0.0879789
-0.0876083
-0.0874233
-0.175473
-0.169546
-0.163918
-0.158169
-0.152633
-0.147304
-0.142221
-0.137387
-0.132798
-0.128452
-0.124349
-0.120484
-0.116854
-0.113457
-0.110287
-0.107343
-0.104618
-0.10211
-0.0998137
-0.0977251
-0.0958403
-0.0941557
-0.0926676
-0.091373
-0.0902689
-0.0893527
-0.0886223
-0.0880761
-0.0877127
-0.0875312
-0.173039
-0.167317
-0.16188
-0.156323
-0.150963
-0.145801
-0.140874
-0.136183
-0.131728
-0.127506
-0.123516
-0.119755
-0.116222
-0.112912
-0.109823
-0.106951
-0.104292
-0.101843
-0.0995993
-0.0975579
-0.095715
-0.0940671
-0.0926109
-0.0913437
-0.0902626
-0.0893652
-0.0886498
-0.0881147
-0.0877586
-0.0875807
-0.170555
-0.165035
-0.159787
-0.15442
-0.149236
-0.14424
-0.139466
-0.134918
-0.130595
-0.126496
-0.12262
-0.118964
-0.115526
-0.112304
-0.109295
-0.106496
-0.103903
-0.101514
-0.0993237
-0.0973301
-0.0955296
-0.0939189
-0.0924951
-0.0912556
-0.0901979
-0.0893198
-0.0886196
-0.0880957
-0.0877471
-0.087573
-0.168026
-0.162705
-0.157645
-0.152465
-0.147455
-0.142622
-0.138001
-0.133595
-0.129403
-0.125427
-0.121663
-0.118111
-0.114769
-0.111635
-0.108707
-0.105981
-0.103454
-0.101125
-0.0989888
-0.0970433
-0.0952856
-0.0937125
-0.0923216
-0.0911102
-0.0900762
-0.0892177
-0.0885329
-0.0880205
-0.0876795
-0.0875092
-0.165455
-0.160329
-0.155455
-0.15046
-0.145621
-0.140951
-0.136481
-0.132216
-0.128155
-0.1243
-0.120648
-0.117201
-0.113954
-0.110908
-0.10806
-0.105407
-0.102947
-0.100678
-0.0985961
-0.0966992
-0.0949845
-0.0934495
-0.0920917
-0.0909088
-0.0898989
-0.0890602
-0.088391
-0.0878903
-0.087557
-0.0873905
-0.162847
-0.157913
-0.153222
-0.148409
-0.14374
-0.13923
-0.13491
-0.130784
-0.126853
-0.123118
-0.119579
-0.116234
-0.113083
-0.110124
-0.107356
-0.104777
-0.102384
-0.100175
-0.0981475
-0.0962994
-0.0946281
-0.0931314
-0.0918071
-0.090653
-0.0896674
-0.0888486
-0.0881953
-0.0877064
-0.0873809
-0.0872183
-0.160204
-0.155459
-0.150948
-0.146315
-0.141814
-0.137462
-0.133289
-0.129302
-0.125499
-0.121884
-0.118456
-0.115214
-0.112158
-0.109286
-0.106598
-0.104092
-0.101766
-0.0996174
-0.0976447
-0.0958456
-0.094218
-0.0927598
-0.0914691
-0.090344
-0.0893829
-0.0885844
-0.0879471
-0.08747
-0.0871524
-0.0869937
-0.157531
-0.152971
-0.148638
-0.144181
-0.139845
-0.135649
-0.131623
-0.127772
-0.124097
-0.1206
-0.117282
-0.114142
-0.111181
-0.108396
-0.105788
-0.103355
-0.101095
-0.0990075
-0.0970895
-0.0953395
-0.0937557
-0.0923362
-0.0910794
-0.0899835
-0.0890471
-0.0882688
-0.0876476
-0.0871826
-0.0868729
-0.0867182
-0.154831
-0.150452
-0.146294
-0.14201
-0.137837
-0.133796
-0.129914
-0.126198
-0.122649
-0.11927
-0.116061
-0.113022
-0.110154
-0.107456
-0.104928
-0.102568
-0.100374
-0.098347
-0.0964836
-0.0947828
-0.0932429
-0.0918622
-0.0906393
-0.0895727
-0.0886611
-0.0879033
-0.0872984
-0.0868453
-0.0865437
-0.086393
-0.152107
-0.147906
-0.143919
-0.139805
-0.135793
-0.131903
-0.128164
-0.124581
-0.121157
-0.117894
-0.114793
-0.111855
-0.10908
-0.106468
-0.104019
-0.101731
-0.0996047
-0.0976376
-0.0958289
-0.0941772
-0.0926812
-0.0913394
-0.0901505
-0.0891133
-0.0882266
-0.0874893
-0.0869006
-0.0864597
-0.0861661
-0.0860194
-0.149362
-0.145335
-0.141516
-0.137569
-0.133715
-0.129975
-0.126376
-0.122925
-0.119624
-0.116476
-0.113482
-0.110644
-0.107961
-0.105435
-0.103064
-0.100849
-0.0987881
-0.0968812
-0.095127
-0.0935244
-0.0920722
-0.0907693
-0.0896145
-0.0886067
-0.0877449
-0.0870282
-0.0864558
-0.0860271
-0.0857416
-0.0855989
-0.1466
-0.142743
-0.139088
-0.135305
-0.131606
-0.128013
-0.124553
-0.121231
-0.118052
-0.115018
-0.11213
-0.10939
-0.106799
-0.104358
-0.102065
-0.0999215
-0.0979265
-0.0960795
-0.0943796
-0.0928259
-0.0914175
-0.0901534
-0.0890327
-0.0880543
-0.0872174
-0.0865213
-0.0859653
-0.0855488
-0.0852713
-0.0851327
-0.143823
-0.140132
-0.136638
-0.133015
-0.129468
-0.12602
-0.122696
-0.119503
-0.116443
-0.113521
-0.110739
-0.108097
-0.105597
-0.103239
-0.101024
-0.0989514
-0.0970218
-0.0952344
-0.0935885
-0.0920836
-0.0907188
-0.0894935
-0.0884067
-0.0874576
-0.0866457
-0.0859702
-0.0854305
-0.0850262
-0.0847568
-0.0846222
-0.141034
-0.137505
-0.134168
-0.130702
-0.127305
-0.123999
-0.120809
-0.117741
-0.114801
-0.11199
-0.109311
-0.106765
-0.104355
-0.10208
-0.0999419
-0.0979404
-0.0960757
-0.0943475
-0.0927554
-0.091299
-0.0899777
-0.0887909
-0.087738
-0.0868182
-0.0860312
-0.0853762
-0.0848528
-0.0844606
-0.0841994
-0.0840688
-0.138235
-0.134864
-0.131681
-0.128368
-0.125118
-0.121952
-0.118894
-0.11595
-0.113126
-0.110424
-0.107848
-0.105398
-0.103076
-0.100884
-0.0988217
-0.0968904
-0.09509
-0.0934206
-0.0918819
-0.0904737
-0.0891957
-0.0880473
-0.0870281
-0.0861375
-0.0853752
-0.0847407
-0.0842336
-0.0838536
-0.0836004
-0.0834738
-0.135429
-0.132212
-0.129179
-0.126016
-0.122909
-0.119881
-0.116952
-0.114131
-0.111421
-0.108828
-0.106352
-0.103996
-0.101762
-0.0996515
-0.0976649
-0.0958031
-0.0940665
-0.0924554
-0.0909697
-0.0896095
-0.0883744
-0.0872641
-0.0862785
-0.085417
-0.0846794
-0.0840653
-0.0835744
-0.0832064
-0.0829612
-0.0828387
-0.132617
-0.12955
-0.126664
-0.123648
-0.120682
-0.117788
-0.114986
-0.112285
-0.109689
-0.107202
-0.104825
-0.102563
-0.100416
-0.0983854
-0.0964733
-0.0946803
-0.0930069
-0.0914536
-0.0900205
-0.0887078
-0.0875153
-0.086443
-0.0854907
-0.0846581
-0.083945
-0.0833512
-0.0828764
-0.0825205
-0.0822833
-0.0821648
-0.129802
-0.126882
-0.124138
-0.121265
-0.118437
-0.115675
-0.112999
-0.110416
-0.107931
-0.105548
-0.10327
-0.101099
-0.0990377
-0.0970871
-0.0952488
-0.0935238
-0.091913
-0.0904169
-0.0890359
-0.0877703
-0.0866201
-0.0855855
-0.0846662
-0.0838623
-0.0831735
-0.0825999
-0.0821411
-0.0817972
-0.081568
-0.0814534
-0.126984
-0.124207
-0.121603
-0.11887
-0.116178
-0.113545
-0.110991
-0.108524
-0.106149
-0.103869
-0.101688
-0.0996078
-0.0976306
-0.0957586
-0.0939931
-0.0923354
-0.0907864
-0.0893469
-0.0880175
-0.0867986
-0.0856903
-0.0846929
-0.0838065
-0.083031
-0.0823664
-0.0818128
-0.0813699
-0.0810379
-0.0808165
-0.0807059
-0.124167
-0.121529
-0.11906
-0.116465
-0.113905
-0.111399
-0.108966
-0.106613
-0.104345
-0.102167
-0.100081
-0.0980899
-0.0961961
-0.0944015
-0.0927079
-0.0911166
-0.0896288
-0.0882453
-0.0869669
-0.0857941
-0.0847273
-0.0837669
-0.0829129
-0.0821656
-0.081525
-0.0809912
-0.0805642
-0.0802439
-0.0800304
-0.0799236
-0.12135
-0.118848
-0.116512
-0.114051
-0.11162
-0.109239
-0.106924
-0.104683
-0.102522
-0.100443
-0.0984509
-0.0965477
-0.0947359
-0.0930177
-0.091395
-0.0898693
-0.0884418
-0.0871136
-0.0858856
-0.0847585
-0.0837328
-0.0828088
-0.0819871
-0.0812677
-0.0806508
-0.0801366
-0.0797252
-0.0794166
-0.0792109
-0.079108
-0.118536
-0.116166
-0.11396
-0.11163
-0.109326
-0.107067
-0.104868
-0.102737
-0.10068
-0.0986995
-0.0967995
-0.0949827
-0.0932518
-0.0916089
-0.0900561
-0.088595
-0.0872271
-0.0859535
-0.0847753
-0.0836932
-0.0827081
-0.0818203
-0.0810303
-0.0803385
-0.0797451
-0.0792504
-0.0788544
-0.0785574
-0.0783593
-0.0782603
-0.115725
-0.113484
-0.111405
-0.109203
-0.107024
-0.104884
-0.102799
-0.100777
-0.0988216
-0.0969378
-0.0951285
-0.0933968
-0.0917454
-0.0901767
-0.0886927
-0.0872954
-0.0859862
-0.0847664
-0.0836373
-0.0825998
-0.0816547
-0.0808025
-0.080044
-0.0793795
-0.0788093
-0.0783338
-0.0779532
-0.0776676
-0.0774771
-0.0773818
-0.112919
-0.110804
-0.10885
-0.106773
-0.104716
-0.102693
-0.10072
-0.0988035
-0.0969488
-0.0951597
-0.0934396
-0.0917916
-0.0902185
-0.0887228
-0.0873066
-0.085972
-0.0847206
-0.083554
-0.0824733
-0.0814797
-0.080574
-0.0797571
-0.0790296
-0.078392
-0.0778447
-0.0773882
-0.0770227
-0.0767484
-0.0765654
-0.0764739
-0.110118
-0.108127
-0.106294
-0.10434
-0.102403
-0.100495
-0.0986315
-0.0968192
-0.0950631
-0.0933671
-0.0917346
-0.0901689
-0.0886727
-0.0872487
-0.0858993
-0.0846264
-0.083432
-0.0823176
-0.0812847
-0.0803343
-0.0794676
-0.0786854
-0.0779884
-0.0773774
-0.0768528
-0.076415
-0.0760644
-0.0758012
-0.0756256
-0.0755378
-0.107324
-0.105454
-0.10374
-0.101907
-0.100087
-0.0982914
-0.0965354
-0.0948253
-0.0931661
-0.0915615
-0.0900151
-0.0885301
-0.0871096
-0.0857562
-0.0844723
-0.0832602
-0.0821218
-0.0810589
-0.0800728
-0.0791651
-0.0783367
-0.0775887
-0.0769219
-0.076337
-0.0758347
-0.0754154
-0.0750794
-0.0748273
-0.074659
-0.0745749
-0.104537
-0.102786
-0.101189
-0.0994735
-0.0977685
-0.0960838
-0.0944334
-0.0928237
-0.0912594
-0.0897446
-0.0882827
-0.086877
-0.0855307
-0.0842466
-0.0830272
-0.0818748
-0.0807915
-0.0797791
-0.0788393
-0.0779734
-0.0771827
-0.0764684
-0.0758312
-0.0752722
-0.0747918
-0.0743906
-0.0740692
-0.0738279
-0.0736668
-0.0735862
-0.101759
-0.100125
-0.0986414
-0.0970422
-0.09545
-0.0938739
-0.092327
-0.0908157
-0.0893447
-0.0879179
-0.0865389
-0.0852111
-0.0839377
-0.0827216
-0.0815655
-0.0804717
-0.0794425
-0.0784798
-0.0775853
-0.0767606
-0.0760071
-0.0753258
-0.0747179
-0.0741841
-0.0737253
-0.0733421
-0.0730349
-0.0728042
-0.0726502
-0.0725732
-0.0989901
-0.0974706
-0.0960996
-0.0946142
-0.0931327
-0.0916631
-0.0902178
-0.088803
-0.0874234
-0.0860829
-0.0847853
-0.0835339
-0.082332
-0.0811826
-0.0800886
-0.0790524
-0.0780763
-0.0771623
-0.0763124
-0.0755282
-0.074811
-0.0741623
-0.073583
-0.0730742
-0.0726366
-0.072271
-0.0719778
-0.0717576
-0.0716106
-0.071537
-0.0962318
-0.094825
-0.0935645
-0.0921908
-0.090818
-0.0894529
-0.0881073
-0.0867871
-0.0854971
-0.0842413
-0.0830234
-0.0818468
-0.080715
-0.0796311
-0.0785979
-0.0776181
-0.0766941
-0.075828
-0.0750218
-0.0742773
-0.0735959
-0.072979
-0.0724279
-0.0719436
-0.0715268
-0.0711785
-0.0708991
-0.0706891
-0.070549
-0.0704788
-0.0934851
-0.0921892
-0.0910373
-0.0897734
-0.0885074
-0.0872447
-0.0859968
-0.0847695
-0.0835674
-0.0823945
-0.0812546
-0.0801514
-0.0790883
-0.0780685
-0.077095
-0.0761705
-0.0752975
-0.0744783
-0.0737149
-0.0730093
-0.0723629
-0.0717774
-0.0712539
-0.0707935
-0.0703972
-0.0700658
-0.0697999
-0.0696
-0.0694666
-0.0693998
-0.090751
-0.0895645
-0.0885195
-0.0873634
-0.0862022
-0.0850401
-0.0838881
-0.0827517
-0.0816356
-0.0805439
-0.0794805
-0.0784491
-0.0774532
-0.0764962
-0.075581
-0.0747106
-0.0738876
-0.0731143
-0.072393
-0.0717254
-0.0711134
-0.0705585
-0.070062
-0.0696252
-0.0692489
-0.0689341
-0.0686815
-0.0684915
-0.0683646
-0.0683011
-0.0880309
-0.0869522
-0.0860123
-0.0849623
-0.0839039
-0.0828405
-0.0817823
-0.080735
-0.0797032
-0.0786911
-0.0777025
-0.0767413
-0.0758112
-0.0749155
-0.0740575
-0.07324
-0.0724659
-0.0717375
-0.0710572
-0.0704269
-0.0698485
-0.0693236
-0.0688536
-0.0684397
-0.0680831
-0.0677846
-0.0675449
-0.0673646
-0.0672442
-0.0671839
-0.085326
-0.0843536
-0.0835172
-0.0825714
-0.081614
-0.0806473
-0.0796812
-0.0787211
-0.0777717
-0.0768373
-0.0759219
-0.0750294
-0.0741635
-0.0733278
-0.0725256
-0.0717598
-0.0710335
-0.070349
-0.0697088
-0.0691149
-0.0685694
-0.0680738
-0.0676297
-0.0672384
-0.0669009
-0.0666183
-0.0663913
-0.0662205
-0.0661064
-0.0660493
-0.0826376
-0.0817701
-0.0810356
-0.0801921
-0.0793339
-0.078462
-0.077586
-0.0767112
-0.0758425
-0.074984
-0.0741401
-0.0733146
-0.0725115
-0.0717344
-0.0709866
-0.0702714
-0.0695916
-0.06895
-0.068349
-0.0677908
-0.0672773
-0.0668104
-0.0663915
-0.0660222
-0.0657035
-0.0654364
-0.0652218
-0.0650602
-0.0649523
-0.0648982
-0.0799673
-0.0792033
-0.078569
-0.0778261
-0.0770651
-0.0762861
-0.0754982
-0.0747068
-0.0739168
-0.0731326
-0.0723584
-0.0715984
-0.0708565
-0.0701365
-0.0694418
-0.0687759
-0.0681416
-0.0675418
-0.066979
-0.0664554
-0.0659733
-0.0655343
-0.0651401
-0.0647922
-0.0644918
-0.0642399
-0.0640374
-0.0638849
-0.063783
-0.0637319
-0.0773166
-0.0766548
-0.0761189
-0.0754747
-0.074809
-0.0741209
-0.0734192
-0.0727093
-0.0719962
-0.0712844
-0.0705782
-0.0698819
-0.0691997
-0.0685353
-0.0678925
-0.0672745
-0.0666845
-0.0661254
-0.0655998
-0.0651101
-0.0646585
-0.0642467
-0.0638766
-0.0635496
-0.063267
-0.0630299
-0.0628392
-0.0626955
-0.0625994
-0.0625513
-0.0746872
-0.074126
-0.0736869
-0.0731396
-0.0725671
-0.0719679
-0.0713504
-0.0707201
-0.0700819
-0.0694406
-0.0688007
-0.0681665
-0.0675423
-0.0669322
-0.0663397
-0.0657684
-0.0652215
-0.0647021
-0.0642127
-0.0637559
-0.0633339
-0.0629487
-0.062602
-0.0622953
-0.0620301
-0.0618074
-0.0616281
-0.061493
-0.0614027
-0.0613574
-0.0720808
-0.0716187
-0.0712745
-0.0708221
-0.070341
-0.0698285
-0.0692932
-0.0687404
-0.0681753
-0.0676026
-0.0670271
-0.0664534
-0.0658857
-0.0653281
-0.0647846
-0.0642587
-0.0637537
-0.0632728
-0.0628186
-0.0623938
-0.0620007
-0.0616412
-0.0613173
-0.0610304
-0.0607821
-0.0605734
-0.0604053
-0.0602785
-0.0601937
-0.0601512
-0.0694991
-0.0691346
-0.0688835
-0.068524
-0.068132
-0.0677043
-0.067249
-0.0667717
-0.0662775
-0.0657716
-0.0652588
-0.0647437
-0.0642308
-0.0637243
-0.0632283
-0.0627465
-0.0622822
-0.0618386
-0.0614186
-0.0610249
-0.0606597
-0.0603253
-0.0600234
-0.0597558
-0.0595239
-0.0593287
-0.0591715
-0.0590529
-0.0589734
-0.0589336
-0.0669442
-0.0666755
-0.0665155
-0.0662468
-0.0659417
-0.0655965
-0.0652191
-0.0648152
-0.06439
-0.0639489
-0.0634968
-0.0630385
-0.0625788
-0.0621219
-0.061672
-0.0612328
-0.0608079
-0.0604006
-0.0600137
-0.0596501
-0.0593121
-0.0590019
-0.0587215
-0.0584725
-0.0582564
-0.0580745
-0.0579277
-0.057817
-0.0577428
-0.0577056
-0.0644178
-0.0642431
-0.0641722
-0.0639919
-0.0637716
-0.0635067
-0.0632049
-0.0628722
-0.0625139
-0.0621356
-0.0617423
-0.0613392
-0.0609309
-0.060522
-0.0601166
-0.0597187
-0.059332
-0.0589597
-0.0586049
-0.0582703
-0.0579586
-0.0576719
-0.0574122
-0.0571813
-0.0569806
-0.0568115
-0.0566749
-0.0565718
-0.0565027
-0.056468
-0.0619221
-0.0618393
-0.0618552
-0.0617612
-0.0616232
-0.0614361
-0.0612077
-0.0609439
-0.0606504
-0.0603328
-0.0599965
-0.0596466
-0.059288
-0.0589254
-0.0585631
-0.0582052
-0.0578552
-0.0575168
-0.057193
-0.0568866
-0.0566003
-0.0563363
-0.0560967
-0.0558832
-0.0556974
-0.0555406
-0.0554139
-0.0553181
-0.0552539
-0.0552217
-0.0594589
-0.0594659
-0.0595662
-0.0595559
-0.0594978
-0.0593862
-0.0592288
-0.0590317
-0.0588008
-0.0585418
-0.0582604
-0.0579618
-0.0576512
-0.0573333
-0.0570126
-0.0566931
-0.0563787
-0.0560729
-0.055779
-0.0554998
-0.055238
-0.0549959
-0.0547756
-0.0545789
-0.0544075
-0.0542627
-0.0541455
-0.0540568
-0.0539973
-0.0539675
-0.0570302
-0.0571248
-0.0573069
-0.0573778
-0.057397
-0.0573583
-0.0572695
-0.0571367
-0.056966
-0.0567636
-0.056535
-0.056286
-0.0560215
-0.0557466
-0.0554658
-0.0551834
-0.0549032
-0.0546289
-0.0543637
-0.0541107
-0.0538725
-0.0536515
-0.0534498
-0.0532694
-0.0531118
-0.0529785
-0.0528705
-0.0527887
-0.0527338
-0.0527062
-0.0546382
-0.0548177
-0.055079
-0.0552284
-0.0553221
-0.0553537
-0.0553309
-0.05526
-0.0551473
-0.0549992
-0.0548215
-0.0546199
-0.0543998
-0.0541662
-0.0539238
-0.053677
-0.0534297
-0.0531856
-0.052948
-0.0527201
-0.0525046
-0.0523039
-0.0521202
-0.0519554
-0.0518111
-0.0516889
-0.0515897
-0.0515145
-0.051464
-0.0514386
-0.0522847
-0.0525465
-0.0528841
-0.0531091
-0.0532746
-0.0533737
-0.0534143
-0.0534028
-0.0533457
-0.0532496
-0.0531207
-0.0529646
-0.052787
-0.052593
-0.0523874
-0.0521747
-0.0519588
-0.0517437
-0.0515327
-0.0513289
-0.0511351
-0.0509539
-0.0507874
-0.0506376
-0.0505062
-0.0503945
-0.0503038
-0.0502349
-0.0501887
-0.0501654
-0.0499717
-0.0503129
-0.0507239
-0.0510214
-0.0512556
-0.0514195
-0.0515207
-0.051566
-0.0515622
-0.0515159
-0.0514335
-0.0513209
-0.051184
-0.0510278
-0.0508574
-0.0506772
-0.0504915
-0.0503041
-0.0501184
-0.0499377
-0.0497648
-0.0496022
-0.0494522
-0.0493168
-0.0491976
-0.0490961
-0.0490135
-0.0489508
-0.0489085
-0.0488873
-0.047701
-0.0481186
-0.0485997
-0.0489667
-0.0492666
-0.0494922
-0.0496514
-0.0497509
-0.0497977
-0.0497989
-0.0497608
-0.0496897
-0.0495915
-0.0494713
-0.0493344
-0.0491854
-0.0490284
-0.0488674
-0.048706
-0.0485473
-0.0483943
-0.0482496
-0.0481153
-0.0479936
-0.0478862
-0.0477944
-0.0477196
-0.0476627
-0.0476243
-0.047605
-0.0454746
-0.0459652
-0.0465132
-0.0469463
-0.0473087
-0.0475931
-0.0478072
-0.0479582
-0.0480533
-0.0480994
-0.0481035
-0.0480718
-0.0480103
-0.0479244
-0.0478194
-0.0476999
-0.0475702
-0.0474344
-0.047296
-0.0471584
-0.0470243
-0.0468965
-0.0467773
-0.0466687
-0.0465725
-0.04649
-0.0464226
-0.0463713
-0.0463366
-0.0463192
-0.0432941
-0.0438543
-0.0444657
-0.0449615
-0.0453832
-0.0457231
-0.0459893
-0.046189
-0.0463296
-0.0464184
-0.0464623
-0.0464679
-0.0464411
-0.0463877
-0.0463129
-0.0462214
-0.0461177
-0.0460057
-0.0458892
-0.0457715
-0.0456555
-0.0455438
-0.0454389
-0.0453428
-0.0452571
-0.0451836
-0.0451232
-0.0450772
-0.045046
-0.0450303
-0.0411613
-0.0417874
-0.0424585
-0.0430136
-0.043491
-0.0438833
-0.0441985
-0.0444441
-0.0446275
-0.0447565
-0.0448379
-0.0448786
-0.0448847
-0.0448619
-0.0448155
-0.0447505
-0.0446713
-0.0445819
-0.0444861
-0.0443872
-0.0442883
-0.044192
-0.0441006
-0.0440163
-0.0439408
-0.0438756
-0.043822
-0.043781
-0.0437532
-0.0437392
-0.0390777
-0.0397659
-0.040493
-0.0411035
-0.0416332
-0.0420746
-0.0424357
-0.0427242
-0.0429479
-0.0431144
-0.0432311
-0.0433047
-0.0433416
-0.0433475
-0.0433279
-0.0432878
-0.0432316
-0.0431635
-0.0430873
-0.0430062
-0.0429234
-0.0428415
-0.042763
-0.0426899
-0.0426239
-0.0425667
-0.0425195
-0.0424832
-0.0424586
-0.0424462
-0.0370446
-0.0377911
-0.0385703
-0.0392325
-0.0398108
-0.0402978
-0.0407017
-0.0410302
-0.0412912
-0.0414928
-0.0416423
-0.0417467
-0.0418123
-0.0418452
-0.0418507
-0.0418338
-0.0417993
-0.0417512
-0.0416932
-0.0416289
-0.0415613
-0.0414931
-0.0414266
-0.041364
-0.0413071
-0.0412574
-0.0412162
-0.0411844
-0.0411628
-0.0411519
-0.0350636
-0.0358641
-0.0366915
-0.0374014
-0.0380246
-0.0385537
-0.0389971
-0.0393626
-0.0396583
-0.0398923
-0.0400722
-0.0402051
-0.0402975
-0.0403553
-0.0403842
-0.0403891
-0.0403747
-0.0403452
-0.0403045
-0.0402559
-0.0402025
-0.040147
-0.0400919
-0.0400392
-0.0399908
-0.0399482
-0.0399126
-0.0398851
-0.0398663
-0.0398568
-0.0331357
-0.0339861
-0.0348574
-0.035611
-0.0362753
-0.0368431
-0.0373227
-0.037722
-0.0380495
-0.0383134
-0.0385213
-0.0386805
-0.0387975
-0.0388784
-0.0389289
-0.038954
-0.0389583
-0.0389462
-0.0389215
-0.0388875
-0.0388473
-0.0388038
-0.0387593
-0.0387159
-0.0386755
-0.0386395
-0.0386092
-0.0385856
-0.0385695
-0.0385613
-0.031262
-0.0321579
-0.033069
-0.0338623
-0.0345638
-0.0351665
-0.035679
-0.0361091
-0.0364655
-0.0367565
-0.03699
-0.0371732
-0.0373128
-0.0374149
-0.0374852
-0.0375289
-0.0375506
-0.0375545
-0.0375445
-0.0375241
-0.0374963
-0.0374639
-0.0374293
-0.0373946
-0.0373615
-0.0373317
-0.0373064
-0.0372866
-0.0372729
-0.037266
-0.0294436
-0.0303805
-0.0313269
-0.0321557
-0.0328904
-0.0335245
-0.0340663
-0.0345241
-0.0349065
-0.035222
-0.0354786
-0.0356836
-0.0358437
-0.0359651
-0.0360536
-0.0361142
-0.0361517
-0.0361704
-0.0361741
-0.0361662
-0.0361498
-0.0361277
-0.0361022
-0.0360755
-0.0360494
-0.0360253
-0.0360046
-0.0359882
-0.0359769
-0.0359711
-0.027681
-0.0286544
-0.0296319
-0.0304918
-0.0312558
-0.0319175
-0.0324853
-0.0329675
-0.033373
-0.0337103
-0.0339875
-0.0342119
-0.0343905
-0.0345293
-0.0346342
-0.0347102
-0.0347622
-0.0347943
-0.0348104
-0.034814
-0.0348081
-0.0347954
-0.0347784
-0.0347591
-0.0347394
-0.0347206
-0.0347042
-0.034691
-0.0346818
-0.0346771
-0.0259751
-0.0269802
-0.0279843
-0.0288711
-0.0296603
-0.0303458
-0.0309361
-0.0314395
-0.0318651
-0.0322215
-0.0325168
-0.0327585
-0.0329534
-0.0331078
-0.0332273
-0.0333172
-0.0333821
-0.0334264
-0.0334538
-0.0334678
-0.0334715
-0.0334675
-0.0334582
-0.0334457
-0.0334318
-0.033418
-0.0334055
-0.0333953
-0.033388
-0.0333843
-0.0243263
-0.0253585
-0.0263846
-0.0272939
-0.0281041
-0.0288097
-0.0294189
-0.0299404
-0.0303831
-0.0307559
-0.0310669
-0.0313235
-0.0315327
-0.0317006
-0.0318331
-0.0319353
-0.0320118
-0.032067
-0.0321046
-0.032128
-0.0321402
-0.0321441
-0.0321418
-0.0321355
-0.032127
-0.0321177
-0.0321088
-0.0321012
-0.0320958
-0.032093
-0.022735
-0.0237894
-0.024833
-0.0257604
-0.0265876
-0.0273093
-0.0279339
-0.0284702
-0.0289271
-0.0293136
-0.0296377
-0.029907
-0.0301284
-0.0303081
-0.0304518
-0.0305647
-0.0306514
-0.0307162
-0.0307628
-0.0307946
-0.0308146
-0.0308255
-0.0308296
-0.0308289
-0.0308252
-0.03082
-0.0308143
-0.0308093
-0.0308055
-0.0308036
-0.0212013
-0.0222732
-0.0233297
-0.0242706
-0.0251106
-0.0258446
-0.0264812
-0.027029
-0.0274971
-0.0278945
-0.0282293
-0.0285091
-0.0287406
-0.0289302
-0.0290834
-0.0292055
-0.0293011
-0.0293742
-0.0294287
-0.0294679
-0.0294948
-0.029512
-0.0295217
-0.0295261
-0.0295267
-0.0295251
-0.0295225
-0.0295197
-0.0295174
-0.0295162
-0.0197254
-0.0208099
-0.0218746
-0.0228247
-0.0236732
-0.0244157
-0.0250606
-0.0256166
-0.0260931
-0.0264987
-0.0268417
-0.0271297
-0.0273693
-0.0275669
-0.0277281
-0.0278578
-0.0279608
-0.0280411
-0.0281025
-0.0281481
-0.0281809
-0.0282036
-0.0282184
-0.0282272
-0.0282317
-0.0282334
-0.0282334
-0.0282325
-0.0282316
-0.028231
-0.0183072
-0.0193994
-0.0204676
-0.0214223
-0.0222752
-0.0230223
-0.023672
-0.0242331
-0.0247148
-0.025126
-0.0254748
-0.0257687
-0.0260145
-0.0262183
-0.0263857
-0.0265216
-0.0266307
-0.026717
-0.0267841
-0.0268351
-0.0268732
-0.0269006
-0.0269197
-0.0269324
-0.0269403
-0.0269449
-0.0269472
-0.0269482
-0.0269484
-0.0269485
-0.0169465
-0.0180414
-0.0191086
-0.0200633
-0.0209164
-0.0216642
-0.0223151
-0.0228781
-0.0233621
-0.0237762
-0.0241284
-0.0244261
-0.024676
-0.0248842
-0.0250562
-0.0251969
-0.0253108
-0.0254019
-0.0254736
-0.0255292
-0.0255715
-0.025603
-0.0256259
-0.0256419
-0.0256528
-0.0256598
-0.0256642
-0.0256667
-0.025668
-0.0256686
-0.0156429
-0.0167356
-0.017797
-0.0187473
-0.0195964
-0.020341
-0.0209897
-0.0215512
-0.0220347
-0.0224491
-0.0228022
-0.0231016
-0.0233537
-0.0235645
-0.0237396
-0.0238836
-0.024001
-0.0240957
-0.0241711
-0.0242303
-0.0242761
-0.024311
-0.0243369
-0.0243558
-0.0243691
-0.0243784
-0.0243844
-0.0243883
-0.0243905
-0.0243915
-0.0143959
-0.0154815
-0.0165324
-0.0174738
-0.0183146
-0.0190523
-0.0196952
-0.0202521
-0.0207323
-0.0211443
-0.021496
-0.0217949
-0.0220473
-0.0222591
-0.0224356
-0.0225816
-0.0227012
-0.0227984
-0.0228765
-0.0229384
-0.022987
-0.0230245
-0.0230529
-0.0230741
-0.0230896
-0.0231006
-0.0231081
-0.0231131
-0.0231161
-0.0231175
-0.0132051
-0.0142785
-0.0153142
-0.0162421
-0.0170706
-0.0177974
-0.0184311
-0.0189803
-0.0194542
-0.0198613
-0.0202094
-0.0205057
-0.0207565
-0.0209676
-0.0211441
-0.0212906
-0.0214113
-0.0215099
-0.0215897
-0.0216536
-0.0217041
-0.0217435
-0.0217739
-0.0217969
-0.0218141
-0.0218265
-0.0218353
-0.0218412
-0.0218448
-0.0218465
-0.0120695
-0.0131258
-0.0141416
-0.0150516
-0.0158635
-0.0165757
-0.0171967
-0.0177352
-0.0182
-0.0185997
-0.0189419
-0.0192336
-0.019481
-0.0196897
-0.0198648
-0.0200106
-0.0201312
-0.0202302
-0.0203107
-0.0203757
-0.0204274
-0.0204682
-0.0205
-0.0205244
-0.0205427
-0.0205563
-0.020566
-0.0205727
-0.0205768
-0.0205787
-0.0109885
-0.0120226
-0.0130137
-0.0139013
-0.0146925
-0.0153864
-0.0159913
-0.0165159
-0.016969
-0.0173589
-0.017693
-0.0179782
-0.0182204
-0.0184252
-0.0185973
-0.0187412
-0.0188606
-0.0189589
-0.0190394
-0.0191045
-0.0191569
-0.0191984
-0.019231
-0.0192563
-0.0192756
-0.0192899
-0.0193003
-0.0193075
-0.019312
-0.0193142
-0.00996084
-0.0109678
-0.0119296
-0.0127903
-0.0135567
-0.0142286
-0.0148141
-0.0153219
-0.0157606
-0.0161383
-0.0164622
-0.0167389
-0.0169743
-0.0171737
-0.0173416
-0.0174822
-0.0175993
-0.0176961
-0.0177755
-0.0178402
-0.0178924
-0.0179342
-0.0179671
-0.0179929
-0.0180126
-0.0180275
-0.0180384
-0.018046
-0.0180507
-0.018053
-0.00898557
-0.0099603
-0.010888
-0.0117173
-0.0124549
-0.0131011
-0.013664
-0.0141521
-0.0145738
-0.0149369
-0.0152486
-0.0155151
-0.015742
-0.0159345
-0.0160968
-0.0162331
-0.0163469
-0.0164412
-0.0165189
-0.0165824
-0.0166338
-0.0166752
-0.016708
-0.0167338
-0.0167538
-0.0167689
-0.01678
-0.0167878
-0.0167927
-0.0167951
-0.00806138
-0.00899881
-0.00988774
-0.0106813
-0.0113862
-0.0120031
-0.0125402
-0.0130058
-0.013408
-0.0137544
-0.0140518
-0.0143063
-0.0145233
-0.0147074
-0.0148631
-0.014994
-0.0151034
-0.0151944
-0.0152695
-0.0153311
-0.0153812
-0.0154217
-0.015454
-0.0154794
-0.0154992
-0.0155143
-0.0155255
-0.0155333
-0.0155383
-0.0155407
-0.00718685
-0.00808176
-0.00892713
-0.00968045
-0.0103486
-0.0109328
-0.011441
-0.0118814
-0.0122617
-0.0125893
-0.0128706
-0.0131115
-0.0133169
-0.0134915
-0.0136393
-0.0137637
-0.0138679
-0.0139547
-0.0140266
-0.0140857
-0.014134
-0.014173
-0.0142043
-0.0142291
-0.0142484
-0.0142633
-0.0142743
-0.014282
-0.014287
-0.0142894
-0.00636044
-0.00720778
-0.00800495
-0.00871385
-0.00934152
-0.00988956
-0.010366
-0.0107785
-0.0111346
-0.0114414
-0.0117049
-0.0119306
-0.0121232
-0.012287
-0.0124258
-0.0125428
-0.0126409
-0.0127229
-0.0127908
-0.0128468
-0.0128927
-0.0129299
-0.0129598
-0.0129836
-0.0130022
-0.0130165
-0.0130272
-0.0130347
-0.0130395
-0.0130419
-0.00558039
-0.0063747
-0.0071188
-0.00777888
-0.00836222
-0.00887083
-0.00931251
-0.00969467
-0.0100245
-0.0103085
-0.0105525
-0.0107615
-0.01094
-0.0110919
-0.0112207
-0.0113294
-0.0114207
-0.011497
-0.0115605
-0.0116128
-0.0116558
-0.0116908
-0.0117189
-0.0117414
-0.0117591
-0.0117727
-0.0117828
-0.01179
-0.0117946
-0.0117969
-0.00484481
-0.0055811
-0.00626768
-0.00687494
-0.00741042
-0.00787653
-0.00828084
-0.00863037
-0.0089319
-0.00919148
-0.00941445
-0.0096055
-0.00976871
-0.00990768
-0.0100256
-0.0101252
-0.0102089
-0.010279
-0.0103374
-0.0103856
-0.0104253
-0.0104576
-0.0104837
-0.0105046
-0.010521
-0.0105337
-0.0105432
-0.01055
-0.0105543
-0.0105564
-0.00415149
-0.00482389
-0.00544791
-0.00599801
-0.00648197
-0.00690247
-0.00726676
-0.0075814
-0.00785266
-0.00808612
-0.00828664
-0.00845846
-0.00860528
-0.00873035
-0.00883651
-0.00892627
-0.00900182
-0.00906511
-0.00911785
-0.00916154
-0.00919749
-0.00922685
-0.00925062
-0.00926965
-0.00928467
-0.00929629
-0.00930501
-0.00931121
-0.0093152
-0.00931718
-0.00349808
-0.00410199
-0.00465944
-0.00514882
-0.00557819
-0.00595047
-0.00627251
-0.00655039
-0.00678982
-0.0069958
-0.00717268
-0.00732425
-0.0074538
-0.00756418
-0.00765792
-0.00773722
-0.00780402
-0.00786003
-0.00790674
-0.00794548
-0.0079774
-0.00800351
-0.00802467
-0.00804164
-0.00805506
-0.00806546
-0.00807326
-0.00807883
-0.00808241
-0.00808412
-0.00288184
-0.00341053
-0.00389602
-0.00432032
-0.00469156
-0.00501271
-0.00529011
-0.00552923
-0.00573511
-0.00591217
-0.00606418
-0.00619444
-0.00630578
-0.00640068
-0.0064813
-0.00654953
-0.00660704
-0.00665529
-0.00669557
-0.00672901
-0.00675659
-0.00677917
-0.00679749
-0.00681221
-0.00682386
-0.0068329
-0.0068397
-0.00684455
-0.00684768
-0.00684929
-0.00229967
-0.00274973
-0.00316033
-0.00351687
-0.00382768
-0.00409579
-0.004327
-0.00452608
-0.00469738
-0.00484464
-0.00497105
-0.00507936
-0.00517195
-0.00525087
-0.00531793
-0.00537471
-0.00542259
-0.00546278
-0.00549635
-0.00552423
-0.00554724
-0.00556611
-0.00558143
-0.00559375
-0.00560351
-0.00561108
-0.00561679
-0.00562085
-0.00562347
-0.00562469
-0.00174818
-0.00211103
-0.00244047
-0.0027245
-0.00297126
-0.00318352
-0.00336627
-0.00352345
-0.00365861
-0.00377476
-0.00387445
-0.00395986
-0.00403287
-0.00409511
-0.00414801
-0.00419281
-0.0042306
-0.00426233
-0.00428885
-0.00431089
-0.00432909
-0.00434402
-0.00435616
-0.00436592
-0.00437367
-0.00437968
-0.00438421
-0.00438744
-0.00438953
-0.00439076
-0.00122312
-0.0014984
-0.00174604
-0.00195641
-0.00213815
-0.00229377
-0.0024275
-0.0025424
-0.00264119
-0.00272606
-0.00279891
-0.00286131
-0.00291466
-0.00296014
-0.0029988
-0.00303154
-0.00305915
-0.00308235
-0.00310174
-0.00311785
-0.00313117
-0.00314209
-0.00315098
-0.00315813
-0.0031638
-0.00316821
-0.00317153
-0.00317389
-0.00317537
-0.00317589
-0.000720542
-0.000894716
-0.0010512
-0.00118139
-0.00129363
-0.00138921
-0.00147122
-0.00154161
-0.00160211
-0.00165409
-0.00169869
-0.00173691
-0.00176958
-0.00179743
-0.00182109
-0.00184114
-0.00185805
-0.00187225
-0.00188413
-0.001894
-0.00190216
-0.00190885
-0.00191429
-0.00191867
-0.00192215
-0.00192486
-0.00192689
-0.00192833
-0.00192924
-0.00193001
-0.000234861
-0.000313062
-0.000380018
-0.000431086
-0.000474522
-0.000510635
-0.000541574
-0.000568147
-0.000591055
-0.000610789
-0.000627755
-0.000642303
-0.00065474
-0.00066534
-0.000674344
-0.000681965
-0.000688389
-0.000693781
-0.000698286
-0.000702028
-0.000705117
-0.000707651
-0.00070971
-0.000711366
-0.000712679
-0.000713699
-0.000714468
-0.000715015
-0.000715249
-0.000714602
-0.180891
-0.178389
-0.175835
-0.173233
-0.170587
-0.167901
-0.16518
-0.162426
-0.159644
-0.156837
-0.154009
-0.151162
-0.1483
-0.145425
-0.142541
-0.139649
-0.136753
-0.133853
-0.130952
-0.128051
-0.125152
-0.122256
-0.119365
-0.116479
-0.113599
-0.110727
-0.107863
-0.105007
-0.102162
-0.0993271
-0.096504
-0.0936934
-0.0908966
-0.0881145
-0.0853485
-0.0826
-0.0798704
-0.0771612
-0.0744741
-0.0718109
-0.0691733
-0.0665634
-0.0639831
-0.0614346
-0.05892
-0.0564412
-0.0540006
-0.0516001
-0.0492419
-0.046928
-0.0446604
-0.0424409
-0.0402714
-0.0381535
-0.0360888
-0.0340788
-0.0321248
-0.030228
-0.0283893
-0.0266097
-0.0248898
-0.0232304
-0.0216317
-0.0200941
-0.0186178
-0.0172025
-0.0158484
-0.0145549
-0.0133218
-0.0121484
-0.011034
-0.00997795
-0.00897922
-0.00803682
-0.00714954
-0.00631618
-0.00553515
-0.00480517
-0.00412399
-0.00349052
-0.00290112
-0.00235575
-0.00184753
-0.00138004
-0.000938683
-0.000538409
-0.000147595
-0.18435