/*--------------------------------*- C++ -*----------------------------------*\
  =========                 |
  \\      /  F ield         | OpenFOAM: The Open Source CFD Toolbox
   \\    /   O peration     | Website:  https://openfoam.org
    \\  /    A nd           | Version:  7
     \\/     M anipulation  |
\*---------------------------------------------------------------------------*/
FoamFile
{
    version     2.0;
    format      ascii;
    class       surfaceScalarField;
    location    "75";
    object      phi;
}
// * * * * * * * * * * * * * * * * * * * * * * * * * * * * * * * * * * * * * //

dimensions      [0 3 -1 0 0 0 0];

internalField   nonuniform List<scalar> 
6869
(
-0.000192662
0.0146741
0.000225918
-0.000158956
0.0157137
-0.00013086
0.0161866
-0.000108334
0.0163414
-8.9816e-05
0.0163497
-7.40881e-05
0.016301
-6.04405e-05
0.0162341
-4.8483e-05
0.0161635
-3.79974e-05
0.0160939
-2.88452e-05
0.0160264
-2.09198e-05
0.015961
-1.41259e-05
0.0158976
-8.37536e-06
0.0158363
-3.57944e-06
0.0157773
3.44589e-07
0.0157208
3.48575e-06
0.0156669
5.91147e-06
0.015616
7.69558e-06
0.0155682
8.90388e-06
0.0155237
9.60144e-06
0.0154825
9.84736e-06
0.0154449
9.69728e-06
0.0154108
9.2037e-06
0.0153803
8.41551e-06
0.0153536
7.38016e-06
0.0153306
6.14235e-06
0.0153114
4.74467e-06
0.015296
3.2282e-06
0.0152844
1.6332e-06
0.0152767
0.0152728
-0.00021153
0.0146422
0.000243377
-0.000178325
0.0156805
-0.000150055
0.0161583
-0.000127003
0.0163184
-0.000107827
0.0163305
-9.13902e-05
0.0162846
-7.70099e-05
0.0162197
-6.43076e-05
0.0161508
-5.30695e-05
0.0160826
-4.3159e-05
0.0160165
-3.44714e-05
0.0159523
-2.69145e-05
0.0158901
-2.04001e-05
0.0158298
-1.48427e-05
0.0157717
-1.01588e-05
0.0157161
-6.27234e-06
0.015663
-3.10571e-06
0.0156129
-5.89423e-07
0.0155657
1.34809e-06
0.0155218
2.76605e-06
0.0154811
3.72339e-06
0.0154439
4.27648e-06
0.0154102
4.47895e-06
0.0153801
4.3792e-06
0.0153537
4.02649e-06
0.0153309
3.46601e-06
0.0153119
2.74128e-06
0.0152967
1.89449e-06
0.0152853
9.6693e-07
0.0152776
0.0152738
-0.000229658
0.0146118
0.00026014
-0.000196976
0.0156479
-0.000168575
0.0161299
-0.000145049
0.0162948
-0.00012526
0.0163107
-0.000108155
0.0162675
-9.30805e-05
0.0162046
-7.96696e-05
0.0161373
-6.77134e-05
0.0160707
-5.70774e-05
0.0160058
-4.76592e-05
0.0159429
-3.93684e-05
0.0158818
-3.21192e-05
0.0158226
-2.58282e-05
0.0157654
-2.04146e-05
0.0157107
-1.58008e-05
0.0156584
-1.19127e-05
0.015609
-8.67965e-06
0.0155625
-6.0368e-06
0.0155191
-3.92024e-06
0.015479
-2.27079e-06
0.0154423
-1.03265e-06
0.015409
-1.53084e-07
0.0153792
4.22472e-07
0.0153531
7.38729e-07
0.0153306
8.41886e-07
0.0153118
7.76782e-07
0.0152968
5.86523e-07
0.0152854
3.13534e-07
0.0152779
0.0152741
-0.000247066
0.0145826
0.000276225
-0.000214922
0.0156157
-0.000186432
0.0161014
-0.00016248
0.0162709
-0.000142122
0.0162904
-0.000124389
0.0162497
-0.000108657
0.0161889
-9.45728e-05
0.0161233
-8.1932e-05
0.016058
-7.06024e-05
0.0159945
-6.04838e-05
0.0159328
-5.14882e-05
0.0158728
-4.35319e-05
0.0158146
-3.65338e-05
0.0157584
-3.04147e-05
0.0157045
-2.50982e-05
0.0156531
-2.05118e-05
0.0156044
-1.6586e-05
0.0155586
-1.32552e-05
0.0155158
-1.0457e-05
0.0154762
-8.13192e-06
0.0154399
-6.22376e-06
0.0154071
-4.67871e-06
0.0153777
-3.44705e-06
0.0153519
-2.47879e-06
0.0153297
-1.72718e-06
0.0153111
-1.14706e-06
0.0152962
-6.9458e-07
0.015285
-3.26566e-07
0.0152775
0.0152738
-0.00026377
0.0145547
0.000291649
-0.000232177
0.0155841
-0.000203638
0.0160729
-0.000179305
0.0162466
-0.000158421
0.0162695
-0.000140097
0.0162314
-0.000123745
0.0161725
-0.000109021
0.0161085
-9.57282e-05
0.0160448
-8.3736e-05
0.0159825
-7.29466e-05
0.015922
-6.32745e-05
0.0158631
-5.46383e-05
0.015806
-4.69587e-05
0.0157508
-4.01585e-05
0.0156977
-3.41629e-05
0.0156471
-2.89003e-05
0.0155991
-2.43025e-05
0.015554
-2.0304e-05
0.0155118
-1.68431e-05
0.0154727
-1.38607e-05
0.015437
-1.13003e-05
0.0154045
-9.10852e-06
0.0153755
-7.23404e-06
0.01535
-5.62756e-06
0.015328
-4.24151e-06
0.0153097
-3.03003e-06
0.015295
-1.94854e-06
0.0152839
-9.53146e-07
0.0152765
0.0152728
-0.000279791
0.0145281
0.000306431
-0.00024876
0.0155531
-0.000220207
0.0160443
-0.000195535
0.0162219
-0.000174164
0.0162481
-0.000155287
0.0162125
-0.000138349
0.0161556
-0.00012302
0.0160932
-0.000109106
0.0160308
-9.64808e-05
0.0159699
-8.50495e-05
0.0159106
-7.47284e-05
0.0158528
-6.54387e-05
0.0157967
-5.71029e-05
0.0157424
-4.96457e-05
0.0156903
-4.29939e-05
0.0156405
-3.7077e-05
0.0155932
-3.18277e-05
0.0155487
-2.71815e-05
0.0155071
-2.30768e-05
0.0154686
-1.94548e-05
0.0154333
-1.62595e-05
0.0154013
-1.3437e-05
0.0153727
-1.09357e-05
0.0153475
-8.70614e-06
0.0153258
-6.70027e-06
0.0153077
-4.87167e-06
0.0152931
-3.17513e-06
0.0152822
-1.56606e-06
0.0152749
0.0152713
-0.000295148
0.0145026
0.000320591
-0.000264686
0.0155226
-0.000236152
0.0160158
-0.000211181
0.0161969
-0.000189361
0.0162263
-0.000169967
0.0161931
-0.000152476
0.0161381
-0.000136573
0.0160773
-0.000122068
0.0160163
-0.00010884
0.0159567
-9.67947e-05
0.0158985
-8.58516e-05
0.0158418
-7.5934e-05
0.0157868
-6.69667e-05
0.0157335
-5.88761e-05
0.0156822
-5.15906e-05
0.0156332
-4.5041e-05
0.0155867
-3.91608e-05
0.0155428
-3.38863e-05
0.0155019
-2.91566e-05
0.0154639
-2.49131e-05
0.0154291
-2.10998e-05
0.0153975
-1.7663e-05
0.0153692
-1.45508e-05
0.0153444
-1.17134e-05
0.015323
-9.10255e-06
0.0153051
-6.67126e-06
0.0152907
-4.37383e-06
0.0152799
-2.16509e-06
0.0152727
0.0152691
-0.000309862
0.0144784
0.000334149
-0.000279974
0.0154927
-0.000251489
0.0159873
-0.000226255
0.0161717
-0.000204022
0.0162041
-0.000184145
0.0161733
-0.000166134
0.0161201
-0.000149686
0.0160609
-0.000134621
0.0160013
-0.000120817
0.0159429
-0.000108185
0.0158859
-9.66457e-05
0.0158303
-8.61254e-05
0.0157762
-7.65508e-05
0.0157239
-6.785e-05
0.0156735
-5.9953e-05
0.0156253
-5.27918e-05
0.0155795
-4.63011e-05
0.0155363
-4.04179e-05
0.015496
-3.50817e-05
0.0154586
-3.02345e-05
0.0154242
-2.58203e-05
0.0153931
-2.17856e-05
0.0153652
-1.80784e-05
0.0153407
-1.46486e-05
0.0153195
-1.14476e-05
0.0153019
-8.42827e-06
0.0152877
-5.54429e-06
0.015277
-2.75003e-06
0.0152699
0.0152664
-0.000323956
0.0144552
0.000347129
-0.000294642
0.0154634
-0.000266231
0.0159589
-0.000240769
0.0161462
-0.000218157
0.0161814
-0.000197829
0.0161529
-0.000179328
0.0161016
-0.000162366
0.0160439
-0.000146767
0.0159857
-0.000132415
0.0159285
-0.000119222
0.0158727
-0.000107113
0.0158182
-9.60145e-05
0.0157651
-8.58561e-05
0.0157137
-7.65678e-05
0.0156642
-6.80811e-05
0.0156168
-6.03293e-05
0.0155717
-5.32481e-05
0.0155293
-4.67754e-05
0.0154895
-4.08513e-05
0.0154526
-3.54181e-05
0.0154188
-3.04202e-05
0.0153881
-2.5804e-05
0.0153606
-2.15177e-05
0.0153364
-1.75109e-05
0.0153155
-1.3735e-05
0.0152981
-1.01423e-05
0.0152841
-6.68621e-06
0.0152736
-3.32075e-06
0.0152665
0.015263
-0.000337452
0.0144331
0.000359551
-0.00030871
0.0154347
-0.000280396
0.0159306
-0.000254736
0.0161206
-0.000231777
0.0161585
-0.000211028
0.0161322
-0.000192066
0.0160826
-0.000174618
0.0160264
-0.000158513
0.0159696
-0.000143639
0.0159136
-0.000129911
0.015859
-0.000117256
0.0158055
-0.000105603
0.0157535
-9.4884e-05
0.015703
-8.50304e-05
0.0156543
-7.59754e-05
0.0156077
-6.76537e-05
0.0155634
-6.00019e-05
0.0155216
-5.29587e-05
0.0154825
-4.6465e-05
0.0154462
-4.04635e-05
0.0154128
-3.48989e-05
0.0153825
-2.97177e-05
0.0153554
-2.48682e-05
0.0153315
-2.03e-05
0.015311
-1.59641e-05
0.0152938
-1.18129e-05
0.0152799
-7.79934e-06
0.0152696
-3.87712e-06
0.0152626
0.0152592
-0.000350372
0.014412
0.000371439
-0.000322198
0.0154065
-0.000293999
0.0159024
-0.000268169
0.0160947
-0.000244892
0.0161352
-0.000223751
0.016111
-0.000204356
0.0160632
-0.000186448
0.0160085
-0.000169863
0.015953
-0.000154493
0.0158983
-0.000140254
0.0158447
-0.000127077
0.0157924
-0.000114893
0.0157413
-0.000103636
0.0156918
-9.32389e-05
0.015644
-8.36367e-05
0.0155981
-7.47652e-05
0.0155546
-6.65624e-05
0.0155134
-5.89677e-05
0.0154749
-5.19225e-05
0.0154391
-4.53703e-05
0.0154063
-3.92559e-05
0.0153764
-3.35262e-05
0.0153497
-2.81294e-05
0.0153261
-2.30153e-05
0.0153059
-1.81348e-05
0.0152889
-1.34399e-05
0.0152753
-8.8835e-06
0.015265
-4.41903e-06
0.0152582
0.0152547
-0.000362739
0.0143919
0.000382816
-0.000335125
0.0153789
-0.000307058
0.0158743
-0.000281083
0.0160688
-0.000257515
0.0161116
-0.000236008
0.0160895
-0.000216206
0.0160434
-0.000197864
0.0159902
-0.000180824
0.0159359
-0.000164981
0.0158824
-0.000150256
0.01583
-0.00013658
0.0157787
-0.000123887
0.0157286
-0.000112114
0.01568
-0.000101195
0.015633
-9.10657e-05
0.015588
-8.16645e-05
0.0155452
-7.29299e-05
0.0155047
-6.48023e-05
0.0154667
-5.72238e-05
0.0154315
-5.01382e-05
0.0153992
-4.3491e-05
0.0153698
-3.72292e-05
0.0153434
-3.13011e-05
0.0153202
-2.56566e-05
0.0153002
-2.02466e-05
0.0152835
-1.5023e-05
0.01527
-9.93854e-06
0.0152599
-4.94643e-06
0.0152532
0.0152498
-0.000374575
0.0143728
0.000393706
-0.000347511
0.0153518
-0.000319588
0.0158464
-0.000293491
0.0160427
-0.000269656
0.0160878
-0.000247809
0.0160677
-0.000227624
0.0160232
-0.000208871
0.0159714
-0.0001914
0.0159185
-0.000175108
0.0158661
-0.000159919
0.0158148
-0.000145767
0.0157645
-0.000132588
0.0157154
-0.000120319
0.0156677
-0.000108899
0.0156216
-9.82636e-05
0.0155774
-8.83524e-05
0.0155352
-7.91051e-05
0.0154954
-7.04631e-05
0.0154581
-6.23691e-05
0.0154234
-5.47675e-05
0.0153916
-4.76042e-05
0.0153626
-4.08265e-05
0.0153366
-3.43831e-05
0.0153138
-2.82238e-05
0.0152941
-2.22995e-05
0.0152775
-1.65621e-05
0.0152643
-1.09644e-05
0.0152543
-5.45924e-06
0.0152477
0.0152443
-0.000385904
0.0143546
0.000404132
-0.000359376
0.0153253
-0.000331606
0.0158186
-0.000305406
0.0160165
-0.000281328
0.0160637
-0.000259163
0.0160455
-0.000238618
0.0160027
-0.000219478
0.0159523
-0.000201597
0.0159006
-0.000184879
0.0158494
-0.000169248
0.0157992
-0.000154641
0.0157499
-0.000140997
0.0157018
-0.000128255
0.015655
-0.000116353
0.0156097
-0.000105232
0.0155663
-9.48299e-05
0.0155248
-8.50887e-05
0.0154857
-7.59503e-05
0.015449
-6.73585e-05
0.0154148
-5.92581e-05
0.0153835
-5.15955e-05
0.0153549
-4.43183e-05
0.0153294
-3.73753e-05
0.0153068
-3.07167e-05
0.0152874
-2.42933e-05
0.0152711
-1.80572e-05
0.0152581
-1.19609e-05
0.0152482
-5.95745e-06
0.0152417
0.0152384
-0.000396746
0.0143372
0.000414116
-0.000370739
0.0152993
-0.000343129
0.015791
-0.000316843
0.0159902
-0.000292541
0.0160394
-0.000270079
0.0160231
-0.000249197
0.0159818
-0.00022969
0.0159328
-0.000211422
0.0158823
-0.000194299
0.0158323
-0.000178247
0.0157831
-0.000163207
0.0157349
-0.000149119
0.0156877
-0.000135923
0.0156418
-0.00012356
0.0155973
-0.000111972
0.0155547
-0.000101098
0.015514
-9.08814e-05
0.0154755
-8.12648e-05
0.0154393
-7.21927e-05
0.0154058
-6.36105e-05
0.0153749
-5.54651e-05
0.0153468
-4.77045e-05
0.0153216
-4.02778e-05
0.0152994
-3.31353e-05
0.0152803
-2.62281e-05
0.0152642
-1.95082e-05
0.0152513
-1.29281e-05
0.0152416
-6.44104e-06
0.0152352
0.0152319
-0.000407124
0.0143207
0.000423682
-0.00038162
0.0152738
-0.000354172
0.0157636
-0.000327814
0.0159638
-0.000303306
0.0160149
-0.000280568
0.0160003
-0.000259367
0.0159606
-0.000239515
0.0159129
-0.000220881
0.0158637
-0.000203372
0.0158148
-0.000186921
0.0157667
-0.000171468
0.0157194
-0.000156955
0.0156732
-0.000143326
0.0156281
-0.000130522
0.0155845
-0.000118485
0.0155426
-0.000107158
0.0155026
-9.64844e-05
0.0154648
-8.64073e-05
0.0154293
-7.68721e-05
0.0153962
-6.7825e-05
0.0153658
-5.92133e-05
0.0153382
-5.09854e-05
0.0153134
-4.30908e-05
0.0152915
-3.54798e-05
0.0152726
-2.81039e-05
0.0152568
-2.09151e-05
0.0152441
-1.38661e-05
0.0152346
-6.91002e-06
0.0152282
0.015225
-0.000417058
0.0143049
0.00043285
-0.000392036
0.0152488
-0.000364752
0.0157363
-0.000338332
0.0159374
-0.000313635
0.0159902
-0.000290638
0.0159773
-0.000269138
0.0159391
-0.00024896
0.0158928
-0.000229978
0.0158447
-0.000212104
0.0157969
-0.000195273
0.0157498
-0.000179427
0.0157036
-0.000164509
0.0156583
-0.000150466
0.0156141
-0.000137239
0.0155713
-0.000124774
0.0155302
-0.000113012
0.0154909
-0.000101899
0.0154537
-9.13788e-05
0.0154187
-8.13977e-05
0.0153863
-7.19024e-05
0.0153563
-6.28406e-05
0.0153291
-5.41614e-05
0.0153047
-4.58143e-05
0.0152832
-3.77503e-05
0.0152646
-2.99207e-05
0.015249
-2.2278e-05
0.0152365
-1.47748e-05
0.0152271
-7.3644e-06
0.0152208
0.0152177
-0.000426567
0.0142898
0.00044164
-0.000402005
0.0152242
-0.000374882
0.0157091
-0.000348411
0.0159109
-0.000323538
0.0159653
-0.000300298
0.0159541
-0.000278516
0.0159173
-0.00025803
0.0158723
-0.000238719
0.0158254
-0.0002205
0.0157787
-0.000203308
0.0157326
-0.000187088
0.0156874
-0.000171785
0.015643
-0.000157346
0.0155997
-0.000143716
0.0155577
-0.000130839
0.0155173
-0.000118661
0.0154787
-0.000107126
0.0154421
-9.61803e-05
0.0154078
-8.57702e-05
0.0153758
-7.58432e-05
0.0153464
-6.63476e-05
0.0153196
-5.72328e-05
0.0152956
-4.84489e-05
0.0152744
-3.99471e-05
0.0152561
-3.16789e-05
0.0152407
-2.3597e-05
0.0152284
-1.56544e-05
0.0152192
-7.80423e-06
0.015213
0.0152099
-0.000435669
0.0142754
0.000450073
-0.000411542
0.0152001
-0.000384576
0.0156822
-0.00035806
0.0158844
-0.000333025
0.0159403
-0.000309557
0.0159306
-0.00028751
0.0158953
-0.000266733
0.0158515
-0.000247112
0.0158058
-0.000228565
0.0157601
-0.00021103
0.0157151
-0.000194454
0.0156708
-0.000178785
0.0156273
-0.000163969
0.0155848
-0.000149953
0.0155437
-0.000136684
0.015504
-0.000124107
0.0154661
-0.000112168
0.0154302
-0.000100813
0.0153964
-8.99906e-05
0.015365
-7.96482e-05
0.0153361
-6.97349e-05
0.0153097
-6.02002e-05
0.015286
-5.0995e-05
0.0152652
-4.20704e-05
0.0152472
-3.33787e-05
0.0152321
-2.48724e-05
0.0152199
-1.65049e-05
0.0152108
-8.22956e-06
0.0152047
0.0152016
-0.000444381
0.0142616
0.000458164
-0.000420662
0.0151764
-0.000393847
0.0156554
-0.000367292
0.0158579
-0.000342105
0.0159151
-0.000318423
0.0159069
-0.000296126
0.015873
-0.000275075
0.0158304
-0.00025516
0.0157859
-0.000236303
0.0157413
-0.000218444
0.0156973
-0.00020153
0.0156539
-0.000185512
0.0156113
-0.000170337
0.0155697
-0.000155954
0.0155293
-0.00014231
0.0154904
-0.000129351
0.0154532
-0.000117025
0.0154179
-0.000105278
0.0153847
-9.40601e-05
0.0153538
-8.33185e-05
0.0153253
-7.30032e-05
0.0152994
-6.30643e-05
0.0152761
-5.34529e-05
0.0152556
-4.41208e-05
0.0152378
-3.50202e-05
0.015223
-2.61043e-05
0.015211
-1.73265e-05
0.015202
-8.64046e-06
0.015196
0.015193
-0.000452716
0.0142484
0.000465929
-0.000429379
0.015153
-0.000402707
0.0156287
-0.000376117
0.0158313
-0.000350787
0.0158898
-0.000326904
0.015883
-0.000304372
0.0158504
-0.000283061
0.0158091
-0.000262869
0.0157657
-0.000243719
0.0157221
-0.000225553
0.0156791
-0.00020832
0.0156366
-0.00019197
0.0155949
-0.000176454
0.0155542
-0.000161721
0.0155146
-0.000147719
0.0154764
-0.000134396
0.0154398
-0.000121699
0.0154052
-0.000109578
0.0153726
-9.79798e-05
0.0153422
-8.68551e-05
0.0153142
-7.61534e-05
0.0152887
-6.58257e-05
0.0152658
-5.58234e-05
0.0152456
-4.60986e-05
0.0152281
-3.6604e-05
0.0152135
-2.7293e-05
0.0152017
-1.81194e-05
0.0151928
-9.03701e-06
0.0151869
0.015184
-0.000460688
0.0142357
0.000473383
-0.000437704
0.01513
-0.000411165
0.0156022
-0.000384543
0.0158046
-0.00035908
0.0158643
-0.000335007
0.015859
-0.000312253
0.0158277
-0.000290698
0.0157876
-0.000270244
0.0157452
-0.000250818
0.0157027
-0.000232361
0.0156606
-0.000214826
0.0156191
-0.000198162
0.0155783
-0.000182323
0.0155383
-0.000167257
0.0154995
-0.000152914
0.015462
-0.000139243
0.0154262
-0.000126193
0.0153921
-0.000113712
0.0153601
-0.000101751
0.0153302
-9.02589e-05
0.0153027
-7.91865e-05
0.0152776
-6.84852e-05
0.0152551
-5.8107e-05
0.0152352
-4.80043e-05
0.015218
-3.81304e-05
0.0152036
-2.84388e-05
0.015192
-1.88837e-05
0.0151833
-9.41931e-06
0.0151775
0.0151745
-0.000468309
0.0142235
0.000480534
-0.000445648
0.0151074
-0.000419233
0.0155757
-0.000392579
0.015778
-0.000366989
0.0158387
-0.000342738
0.0158347
-0.000319775
0.0158047
-0.00029799
0.0157658
-0.00027729
0.0157245
-0.000257603
0.015683
-0.000238874
0.0156419
-0.000221052
0.0156013
-0.000204092
0.0155613
-0.000187945
0.0155222
-0.000172563
0.0154841
-0.000157897
0.0154474
-0.000143895
0.0154122
-0.000130508
0.0153787
-0.000117684
0.0153473
-0.000105375
0.0153179
-9.35312e-05
0.0152909
-8.21034e-05
0.0152662
-7.10437e-05
0.015244
-6.03044e-05
0.0152244
-4.98386e-05
0.0152075
-3.95997e-05
0.0151933
-2.9542e-05
0.0151819
-1.96197e-05
0.0151734
-9.78745e-06
0.0151676
0.0151647
-0.000475586
0.0142117
0.000487394
-0.000453218
0.015085
-0.000426916
0.0155494
-0.000400231
0.0157513
-0.000374523
0.015813
-0.000350104
0.0158103
-0.000326944
0.0157816
-0.000304944
0.0157438
-0.000284013
0.0157036
-0.000264081
0.0156631
-0.000245093
0.0156229
-0.000227002
0.0155832
-0.000209762
0.0155441
-0.000193325
0.0155057
-0.000177644
0.0154684
-0.00016267
0.0154324
-0.000148354
0.0153978
-0.000134645
0.015365
-0.000121495
0.0153341
-0.000108854
0.0153053
-9.66733e-05
0.0152787
-8.49053e-05
0.0152544
-7.3502e-05
0.0152326
-6.24164e-05
0.0152134
-5.1602e-05
0.0151967
-4.10126e-05
0.0151828
-3.06029e-05
0.0151715
-2.03276e-05
0.0151631
-1.01416e-05
0.0151574
0.0151546
-0.000482526
0.0142002
0.000493967
-0.000460423
0.0150629
-0.000434222
0.0155232
-0.000407507
0.0157246
-0.000381686
0.0157872
-0.00035711
0.0157857
-0.000333766
0.0157582
-0.000311563
0.0157216
-0.000290415
0.0156824
-0.000270254
0.0156429
-0.000251024
0.0156037
-0.00023268
0.0155648
-0.000215176
0.0155266
-0.000198465
0.015489
-0.000182501
0.0154525
-0.000167236
0.0154171
-0.000152621
0.0153832
-0.000138607
0.015351
-0.000125146
0.0153207
-0.000112188
0.0152923
-9.96865e-05
0.0152662
-8.75932e-05
0.0152423
-7.58612e-05
0.0152209
-6.44438e-05
0.0152019
-5.32952e-05
0.0151856
-4.23696e-05
0.0151718
-3.1622e-05
0.0151608
-2.10076e-05
0.0151525
-1.04818e-05
0.0151469
0.0151441
-0.000489136
0.0141891
0.000500258
-0.000467268
0.015041
-0.000441156
0.0154971
-0.00041441
0.0156978
-0.000388484
0.0157613
-0.00036376
0.015761
-0.000340244
0.0157347
-0.000317852
0.0156992
-0.000296502
0.0156611
-0.000276126
0.0156226
-0.00025667
0.0155842
-0.000238089
0.0155463
-0.000220336
0.0155088
-0.000203368
0.0154721
-0.000187137
0.0154362
-0.000171597
0.0154016
-0.000156699
0.0153683
-0.000142396
0.0153367
-0.000128639
0.0153069
-0.00011538
0.0152791
-0.000102572
0.0152534
-9.01684e-05
0.0152299
-7.81223e-05
0.0152088
-6.63876e-05
0.0151902
-5.49189e-05
0.0151741
-4.36711e-05
0.0151606
-3.25997e-05
0.0151497
-2.16601e-05
0.0151415
-1.08082e-05
0.0151361
0.0151333
-0.000495416
0.0141782
0.000506269
-0.000473755
0.0150194
-0.000447722
0.0154711
-0.000420946
0.0156711
-0.000394921
0.0157353
-0.000370059
0.0157361
-0.000346382
0.015711
-0.000323815
0.0156766
-0.000302277
0.0156395
-0.000281701
0.015602
-0.000262035
0.0155646
-0.000243232
0.0155275
-0.000225247
0.0154908
-0.000208037
0.0154548
-0.000191556
0.0154197
-0.000175756
0.0153858
-0.000160591
0.0153532
-0.000146014
0.0153221
-0.000131976
0.0152929
-0.000118431
0.0152655
-0.000105332
0.0152403
-9.26323e-05
0.0152172
-8.02863e-05
0.0151965
-6.82486e-05
0.0151782
-5.64739e-05
0.0151623
-4.49179e-05
0.015149
-3.35363e-05
0.0151383
-2.22853e-05
0.0151303
-1.1121e-05
0.0151249
0.0151222
-0.000501369
0.0141676
0.000512
-0.000479887
0.0149979
-0.000453922
0.0154451
-0.000427117
0.0156443
-0.000401
0.0157091
-0.00037601
0.0157112
-0.000352185
0.0156872
-0.000329456
0.0156539
-0.000307744
0.0156178
-0.000286984
0.0155812
-0.000267122
0.0155447
-0.000248112
0.0155085
-0.000229911
0.0154726
-0.000212475
0.0154374
-0.000195759
0.015403
-0.000179715
0.0153697
-0.000164299
0.0153378
-0.000149462
0.0153073
-0.000135159
0.0152786
-0.000121343
0.0152517
-0.000107967
0.0152269
-9.4986e-05
0.0152042
-8.23546e-05
0.0151839
-7.00277e-05
0.0151658
-5.79611e-05
0.0151503
-4.61105e-05
0.0151372
-3.44325e-05
0.0151267
-2.28835e-05
0.0151187
-1.14204e-05
0.0151134
0.0151108
-0.000506994
0.0141572
0.000517447
-0.000485665
0.0149766
-0.000459759
0.0154192
-0.000432926
0.0156174
-0.000406723
0.0156829
-0.000381616
0.015686
-0.000357656
0.0156632
-0.000334778
0.015631
-0.000312907
0.015596
-0.000291976
0.0155603
-0.000271934
0.0155247
-0.000252734
0.0154893
-0.000234332
0.0154542
-0.000216686
0.0154198
-0.000199749
0.0153861
-0.000183477
0.0153535
-0.000167824
0.0153221
-0.000152744
0.0152922
-0.00013819
0.015264
-0.000124117
0.0152376
-0.000110479
0.0152133
-9.72311e-05
0.015191
-8.43282e-05
0.015171
-7.17261e-05
0.0151532
-5.93811e-05
0.0151379
-4.72497e-05
0.015125
-3.52886e-05
0.0151147
-2.34551e-05
0.0151069
-1.17064e-05
0.0151017
0.0150991
-0.000512288
0.0141468
0.000522606
-0.000491087
0.0149554
-0.000465232
0.0153934
-0.000438373
0.0155906
-0.000412094
0.0156567
-0.000386881
0.0156608
-0.000362797
0.0156392
-0.000339785
0.015608
-0.000317768
0.0155739
-0.000296682
0.0155392
-0.000276475
0.0155044
-0.000257099
0.0154699
-0.000238513
0.0154356
-0.000220671
0.0154019
-0.00020353
0.015369
-0.000187045
0.015337
-0.000171171
0.0153062
-0.000155861
0.0152769
-0.000141072
0.0152492
-0.000126756
0.0152233
-0.00011287
0.0151994
-9.93689e-05
0.0151775
-8.62084e-05
0.0151578
-7.33449e-05
0.0151404
-6.07351e-05
0.0151253
-4.8336e-05
0.0151126
-3.61053e-05
0.0151025
-2.40004e-05
0.0150948
-1.19793e-05
0.0150897
0.0150871
-0.000517246
0.0141366
0.000527471
-0.000496153
0.0149343
-0.000470342
0.0153676
-0.000443461
0.0155637
-0.000417113
0.0156303
-0.000391805
0.0156355
-0.000367612
0.015615
-0.000344479
0.0155849
-0.000322332
0.0155518
-0.000301106
0.015518
-0.000280748
0.0154841
-0.000261213
0.0154503
-0.000242456
0.0154169
-0.000224434
0.0153839
-0.000207104
0.0153516
-0.000190421
0.0153203
-0.00017434
0.0152901
-0.000158816
0.0152614
-0.000143805
0.0152342
-0.000129262
0.0152088
-0.000115142
0.0151853
-0.000101401
0.0151638
-8.79966e-05
0.0151444
-7.4885e-05
0.0151273
-6.20237e-05
0.0151124
-4.93704e-05
0.0151
-3.6883e-05
0.01509
-2.45199e-05
0.0150824
-1.22393e-05
0.0150774
0.0150748
-0.000521864
0.0141265
0.000532032
-0.000500858
0.0149133
-0.000475086
0.0153418
-0.000448187
0.0155368
-0.000421781
0.0156039
-0.000396392
0.0156101
-0.000372103
0.0155907
-0.000348863
0.0155616
-0.0003266
0.0155295
-0.000305249
0.0154966
-0.000284757
0.0154636
-0.000265076
0.0154307
-0.000246165
0.015398
-0.000227978
0.0153657
-0.000210474
0.0153341
-0.000193608
0.0153034
-0.000177335
0.0152739
-0.000161611
0.0152457
-0.000146393
0.015219
-0.000131635
0.015194
-0.000117295
0.0151709
-0.000103329
0.0151498
-8.9694e-05
0.0151308
-7.63478e-05
0.0151139
-6.32481e-05
0.0150993
-5.03535e-05
0.0150871
-3.76224e-05
0.0150772
-2.50138e-05
0.0150698
-1.24866e-05
0.0150648
0.0150624
-0.000526135
0.0141163
0.00053628
-0.000505198
0.0148923
-0.000479463
0.015316
-0.000452554
0.0155099
-0.0004261
0.0155775
-0.000400642
0.0155847
-0.000376271
0.0155663
-0.00035294
0.0155383
-0.000330576
0.0155072
-0.000309116
0.0154752
-0.000288504
0.015443
-0.000268694
0.0154109
-0.000249643
0.0153789
-0.000231307
0.0153474
-0.000213643
0.0153165
-0.000196608
0.0152864
-0.000180158
0.0152574
-0.000164249
0.0152298
-0.000148837
0.0152036
-0.00013388
0.0151791
-0.000119333
0.0151564
-0.000105155
0.0151356
-9.13022e-05
0.0151169
-7.77343e-05
0.0151003
-6.44093e-05
0.015086
-5.12861e-05
0.015074
-3.8324e-05
0.0150643
-2.54825e-05
0.015057
-1.27213e-05
0.0150521
0.0150496
-0.000530051
0.0141061
0.000540206
-0.00050917
0.0148714
-0.000483471
0.0152903
-0.000456558
0.015483
-0.00043007
0.015551
-0.000404557
0.0155592
-0.000380119
0.0155419
-0.000356712
0.0155149
-0.000334263
0.0154847
-0.000312709
0.0154536
-0.000291993
0.0154223
-0.000272069
0.0153909
-0.000252893
0.0153597
-0.000234423
0.0153289
-0.000216615
0.0152986
-0.000199426
0.0152692
-0.000182812
0.0152408
-0.000166732
0.0152137
-0.000151141
0.015188
-0.000135996
0.0151639
-0.000121257
0.0151416
-0.000106879
0.0151212
-9.28226e-05
0.0151029
-7.90459e-05
0.0150866
-6.55082e-05
0.0150725
-5.21691e-05
0.0150606
-3.89885e-05
0.0150511
-2.59266e-05
0.0150439
-1.29436e-05
0.0150391
0.0150367
-0.000533604
0.014096
0.000543795
-0.000512768
0.0148506
-0.000487107
0.0152647
-0.000460199
0.0154561
-0.00043369
0.0155245
-0.000408138
0.0155336
-0.000383649
0.0155174
-0.000360182
0.0154914
-0.000337664
0.0154622
-0.000316031
0.015432
-0.000295227
0.0154015
-0.000275204
0.0153709
-0.000255919
0.0153405
-0.000237329
0.0153103
-0.000219391
0.0152807
-0.000202062
0.0152519
-0.0001853
0.015224
-0.000169062
0.0151974
-0.000153305
0.0151722
-0.000137988
0.0151486
-0.000123068
0.0151267
-0.000108505
0.0151067
-9.42567e-05
0.0150886
-8.02838e-05
0.0150726
-6.65459e-05
0.0150587
-5.30033e-05
0.0150471
-3.96165e-05
0.0150377
-2.63464e-05
0.0150306
-1.31538e-05
0.0150259
0.0150235
-0.000536787
0.0140857
0.000547038
-0.000515986
0.0148298
-0.000490367
0.0152391
-0.000463477
0.0154292
-0.000436961
0.0154979
-0.000411387
0.015508
-0.000386863
0.0154929
-0.000363352
0.0154679
-0.000340782
0.0154396
-0.000319086
0.0154103
-0.000298209
0.0153806
-0.000278103
0.0153508
-0.000258724
0.0153211
-0.000240029
0.0152916
-0.000221976
0.0152627
-0.000204522
0.0152344
-0.000187625
0.0152072
-0.000171243
0.0151811
-0.000155334
0.0151563
-0.000139856
0.0151331
-0.00012477
0.0151116
-0.000110033
0.0150919
-9.56061e-05
0.0150742
-8.14495e-05
0.0150584
-6.75236e-05
0.0150448
-5.37896e-05
0.0150334
-4.02087e-05
0.0150241
-2.67423e-05
0.0150172
-1.33521e-05
0.0150125
0.0150102
-0.00053959
0.0140754
0.000549921
-0.00051882
0.014809
-0.000493248
0.0152135
-0.00046639
0.0154023
-0.000439884
0.0154714
-0.000414303
0.0154825
-0.000389764
0.0154683
-0.000366226
0.0154444
-0.000343619
0.015417
-0.000321877
0.0153885
-0.000300943
0.0153597
-0.00028077
0.0153306
-0.000261311
0.0153016
-0.000242526
0.0152728
-0.000224372
0.0152445
-0.000206807
0.0152169
-0.000189789
0.0151901
-0.000173276
0.0151645
-0.000157228
0.0151403
-0.000141604
0.0151175
-0.000126363
0.0150964
-0.000111466
0.015077
-9.68724e-05
0.0150596
-8.25442e-05
0.0150441
-6.84425e-05
0.0150307
-5.4529e-05
0.0150194
-4.07657e-05
0.0150104
-2.71148e-05
0.0150035
-1.35388e-05
0.0149989
0.0149967
-0.000542005
0.014065
0.000552431
-0.000521264
0.0147883
-0.000495749
0.015188
-0.000468936
0.0153755
-0.000442458
0.015445
-0.00041689
0.0154569
-0.000392352
0.0154438
-0.000368805
0.0154208
-0.000346179
0.0153944
-0.000324408
0.0153668
-0.000303433
0.0153387
-0.000283207
0.0153104
-0.000263685
0.0152821
-0.000244824
0.015254
-0.000226584
0.0152263
-0.000208921
0.0151992
-0.000191795
0.015173
-0.000175166
0.0151479
-0.000158992
0.0151241
-0.000143233
0.0151017
-0.000127851
0.015081
-0.000112805
0.015062
-9.80572e-05
0.0150448
-8.35694e-05
0.0150296
-6.93037e-05
0.0150164
-5.52224e-05
0.0150054
-4.12883e-05
0.0149964
-2.74645e-05
0.0149897
-1.3714e-05
0.0149852
0.0149829
-0.000544024
0.0140544
0.000554557
-0.000523313
0.0147676
-0.000497866
0.0151625
-0.000471116
0.0153488
-0.000444685
0.0154185
-0.000419149
0.0154314
-0.00039463
0.0154193
-0.000371093
0.0153973
-0.000348466
0.0153718
-0.000326681
0.015345
-0.000305682
0.0153177
-0.000285419
0.0152901
-0.000265848
0.0152625
-0.000246926
0.0152351
-0.000228613
0.015208
-0.000210867
0.0151815
-0.000193648
0.0151558
-0.000176914
0.0151312
-0.000160627
0.0151078
-0.000144747
0.0150859
-0.000129235
0.0150655
-0.000114052
0.0150468
-9.91623e-05
0.0150299
-8.45266e-05
0.015015
-7.01084e-05
0.015002
-5.58707e-05
0.0149911
-4.17772e-05
0.0149823
-2.77917e-05
0.0149757
-1.38779e-05
0.0149713
0.0149691
-0.000545639
0.0140438
0.000556287
-0.000524963
0.0147469
-0.000499597
0.0151372
-0.000472929
0.0153221
-0.000446564
0.0153922
-0.000421081
0.0154059
-0.000396602
0.0153948
-0.000373093
0.0153738
-0.000350482
0.0153492
-0.000328701
0.0153232
-0.000307693
0.0152967
-0.000287409
0.0152699
-0.000267804
0.0152429
-0.000248837
0.0152161
-0.000230465
0.0151896
-0.000212649
0.0151636
-0.000195349
0.0151385
-0.000178524
0.0151144
-0.000162136
0.0150914
-0.000146147
0.0150699
-0.000130517
0.0150499
-0.000115211
0.0150315
-0.000100189
0.0150149
-8.54173e-05
0.0150002
-7.08578e-05
0.0149875
-5.6475e-05
0.0149767
-4.22332e-05
0.0149681
-2.8097e-05
0.0149616
-1.4031e-05
0.0149572
0.014955
-0.000546844
0.014033
0.00055761
-0.00052621
0.0147263
-0.000500942
0.0151119
-0.000474374
0.0152955
-0.000448099
0.0153659
-0.00042269
0.0153805
-0.000398271
0.0153704
-0.000374808
0.0153503
-0.000352231
0.0153266
-0.000330472
0.0153014
-0.000309472
0.0152757
-0.000289182
0.0152496
-0.000269558
0.0152233
-0.000250559
0.0151971
-0.000232143
0.0151712
-0.00021427
0.0151458
-0.000196902
0.0151211
-0.000179999
0.0150975
-0.000163523
0.015075
-0.000147436
0.0150538
-0.000131701
0.0150341
-0.000116281
0.0150161
-0.000101141
0.0149998
-8.62431e-05
0.0149853
-7.15534e-05
0.0149728
-5.70364e-05
0.0149622
-4.26571e-05
0.0149537
-2.83809e-05
0.0149473
-1.41733e-05
0.014943
0.0149409
-0.000547634
0.0140221
0.000558517
-0.000527052
0.0147057
-0.000501899
0.0150867
-0.000475455
0.0152691
-0.00044929
0.0153397
-0.000423977
0.0153551
-0.000399639
0.015346
-0.000376243
0.0153269
-0.000353719
0.0153041
-0.000331997
0.0152797
-0.000311022
0.0152547
-0.000290742
0.0152293
-0.000271114
0.0152037
-0.000252097
0.0151781
-0.00023365
0.0151527
-0.000215734
0.0151278
-0.000198311
0.0151037
-0.000181342
0.0150805
-0.000164789
0.0150584
-0.000148617
0.0150376
-0.000132788
0.0150183
-0.000117266
0.0150006
-0.000102017
0.0149845
-8.70055e-05
0.0149703
-7.21964e-05
0.014958
-5.75558e-05
0.0149476
-4.30496e-05
0.0149392
-2.8644e-05
0.0149329
-1.43053e-05
0.0149287
0.0149266
-0.000548003
0.0140111
0.000559
-0.000527487
0.0146852
-0.00050247
0.0150617
-0.000476171
0.0152428
-0.000450142
0.0153137
-0.000424947
0.01533
-0.000400711
0.0153218
-0.000377402
0.0153036
-0.000354948
0.0152816
-0.000333283
0.0152581
-0.000312347
0.0152338
-0.000292093
0.015209
-0.000272476
0.0151841
-0.000253455
0.0151591
-0.000234991
0.0151343
-0.000217045
0.0151099
-0.000199579
0.0150862
-0.000182556
0.0150635
-0.000165939
0.0150418
-0.000149692
0.0150214
-0.00013378
0.0150024
-0.000118168
0.014985
-0.000102822
0.0149692
-8.77062e-05
0.0149552
-7.27882e-05
0.0149431
-5.80344e-05
0.0149328
-4.34115e-05
0.0149246
-2.88867e-05
0.0149184
-1.44271e-05