/*--------------------------------*- C++ -*----------------------------------*\
  =========                 |
  \\      /  F ield         | OpenFOAM: The Open Source CFD Toolbox
   \\    /   O peration     | Website:  https://openfoam.org
    \\  /    A nd           | Version:  7
     \\/     M anipulation  |
\*---------------------------------------------------------------------------*/
FoamFile
{
    version     2.0;
    format      ascii;
    class       volScalarField;
    location    "10";
    object      p;
}
// * * * * * * * * * * * * * * * * * * * * * * * * * * * * * * * * * * * * * //

dimensions      [0 2 -2 0 0 0 0];

internalField   nonuniform List<scalar> 
1360
(
-0.34637
-0.34872
-0.348983
-0.347934
-0.34583
-0.342798
-0.338959
-0.334418
-0.329263
-0.323573
-0.317425
-0.310892
-0.304052
-0.296989
-0.289799
-0.282575
-0.275394
-0.268348
-0.261785
-0.34699
-0.351019
-0.352767
-0.352585
-0.351166
-0.348748
-0.345453
-0.34139
-0.336656
-0.33133
-0.325481
-0.319175
-0.312477
-0.305452
-0.298177
-0.290742
-0.28324
-0.275692
-0.268112
-0.261477
-0.357512
-0.360028
-0.360609
-0.359552
-0.3574
-0.354359
-0.350536
-0.346024
-0.340903
-0.335234
-0.329069
-0.322456
-0.31544
-0.308069
-0.300397
-0.292509
-0.284496
-0.276281
-0.267711
-0.260859
-0.372501
-0.372888
-0.371801
-0.36947
-0.36624
-0.362273
-0.357661
-0.352477
-0.346774
-0.340592
-0.333959
-0.326901
-0.319439
-0.311592
-0.303389
-0.294902
-0.286219
-0.277152
-0.267276
-0.259955
-0.391211
-0.388981
-0.385806
-0.38185
-0.377227
-0.372052
-0.366403
-0.360327
-0.353853
-0.346991
-0.339748
-0.332121
-0.324104
-0.315689
-0.306875
-0.297711
-0.288285
-0.278311
-0.267003
-0.258851
-0.412908
-0.407696
-0.4021
-0.396228
-0.389942
-0.383311
-0.376401
-0.369236
-0.361812
-0.354116
-0.346123
-0.337807
-0.329136
-0.320076
-0.310598
-0.300726
-0.290539
-0.27969
-0.266984
-0.257559
-0.436954
-0.428493
-0.420233
-0.412223
-0.404067
-0.395784
-0.387433
-0.379009
-0.370478
-0.361796
-0.352914
-0.343779
-0.334336
-0.324528
-0.3143
-0.303644
-0.292605
-0.280759
-0.266567
-0.255428
-0.462812
-0.450918
-0.439824
-0.429537
-0.419378
-0.409314
-0.399389
-0.38957
-0.379791
-0.369982
-0.36007
-0.349986
-0.339664
-0.329046
-0.318077
-0.306732
-0.294976
-0.282297
-0.267338
-0.25562
-0.489939
-0.474483
-0.460486
-0.447872
-0.435654
-0.423736
-0.412141
-0.400804
-0.389625
-0.378511
-0.367377
-0.356158
-0.344812
-0.333329
-0.321747
-0.310155
-0.298678
-0.287552
-0.278
-0.272317
-0.517642
-0.498589
-0.481706
-0.466799
-0.452531
-0.438721
-0.425361
-0.412344
-0.399537
-0.386822
-0.374105
-0.361318
-0.348427
-0.335436
-0.322387
-0.309354
-0.296432
-0.283893
-0.272649
-0.261944
-0.544908
-0.522345
-0.502706
-0.485619
-0.469354
-0.453622
-0.438373
-0.423462
-0.408731
-0.394052
-0.379342
-0.364554
-0.349684
-0.334765
-0.319861
-0.305056
-0.290441
-0.276208
-0.262771
-0.248997
-0.570281
-0.544464
-0.522323
-0.503234
-0.485041
-0.467329
-0.450009
-0.432913
-0.415883
-0.398816
-0.381672
-0.364457
-0.347222
-0.330051
-0.313046
-0.296314
-0.279953
-0.264118
-0.249014
-0.233658
-0.591807
-0.563207
-0.538949
-0.518083
-0.498022
-0.478231
-0.458603
-0.438987
-0.41927
-0.399427
-0.379502
-0.359593
-0.339834
-0.320373
-0.301359
-0.282923
-0.265175
-0.248249
-0.232252
-0.216405
-0.607088
-0.576405
-0.550538
-0.528153
-0.506271
-0.484274
-0.462089
-0.439642
-0.416933
-0.394066
-0.371216
-0.348594
-0.32642
-0.304898
-0.284205
-0.264472
-0.245796
-0.228263
-0.211894
-0.196085
-0.613405
-0.581559
-0.554699
-0.531078
-0.507428
-0.483123
-0.458198
-0.432741
-0.406933
-0.381053
-0.355428
-0.33038
-0.306195
-0.283104
-0.261274
-0.240804
-0.221743
-0.204106
-0.187824
-0.172501
-0.607932
-0.576022
-0.54887
-0.52433
-0.499013
-0.472397
-0.444722
-0.416317
-0.387599
-0.359046
-0.331125
-0.30424
-0.278703
-0.254728
-0.232432
-0.211854
-0.192975
-0.175716
-0.159933
-0.14553
-0.587995
-0.557238
-0.530551
-0.505467
-0.478698
-0.449958
-0.419789
-0.388824
-0.357738
-0.327194
-0.297762
-0.26988
-0.243835
-0.219781
-0.197758
-0.17773
-0.159601
-0.143193
-0.128318
-0.115286
-0.551357
-0.523015
-0.497594
-0.472427
-0.444596
-0.414184
-0.382105
-0.349321
-0.316752
-0.2852
-0.255281
-0.227407
-0.201797
-0.178514
-0.15751
-0.138669
-0.121821
-0.10669
-0.0930607
-0.0817059
-0.496499
-0.471808
-0.448473
-0.423807
-0.395522
-0.364189
-0.331118
-0.297585
-0.2647
-0.233337
-0.204096
-0.177312
-0.153106
-0.13144
-0.112177
-0.0951325
-0.0800694
-0.066611
-0.0545263
-0.0451644
-0.422858
-0.402958
-0.382535
-0.359083
-0.331188
-0.299967
-0.267106
-0.234135
-0.202277
-0.172407
-0.145049
-0.120433
-0.0985665
-0.0793152
-0.0624681
-0.0477913
-0.0349878
-0.0235812
-0.0134227
-0.00658676
-0.330987
-0.316863
-0.300165
-0.278765
-0.252293
-0.222433
-0.191172
-0.160199
-0.130762
-0.103682
-0.0793617
-0.0579087
-0.0392272
-0.0230996
-0.00926286
0.00254743
0.012674
-0.222607
-0.215074
-0.202871
-0.18445
-0.160504
-0.133373
-0.105165
-0.077622
-0.0519524
-0.0288477
-0.00858606
0.00884175
0.0236224
0.0360318
-0.10046
-0.100339
-0.093234
-0.078636
-0.0585109
-0.0354143
-0.0116069
0.0112104
0.0319549
0.0500827
0.065447
0.0311055
0.0238682
0.0252242
0.035106
0.0503913
0.068265
0.0865068
0.103547
0.118468
0.167667
0.152875
0.148155
0.152664
0.162259
0.174
0.185827
0.303834
0.281653
0.270741
0.269465
0.272819
0.434006
0.404887
0.387929
0.380769
0.552652
0.517303
0.494726
0.481933
0.654612
0.613968
0.586483
0.735377
0.690571
0.791332
0.74366
-0.256275
-0.24998
-0.24343
-0.23696
-0.230587
-0.224282
-0.218046
-0.211891
-0.205824
-0.199852
-0.19398
-0.188214
-0.182558
-0.177016
-0.171591
-0.166286
-0.161103
-0.156044
-0.15111
-0.258306
-0.252126
-0.245126
-0.23842
-0.231954
-0.225584
-0.219288
-0.213081
-0.206971
-0.200963
-0.195059
-0.189263
-0.183579
-0.178011
-0.172563
-0.167235
-0.162032
-0.156953
-0.152
-0.262146
-0.256284
-0.248406
-0.241217
-0.234564
-0.228063
-0.221642
-0.215329
-0.209133
-0.203053
-0.197086
-0.191234
-0.1855
-0.179886
-0.174395
-0.169028
-0.163787
-0.158674
-0.153688
-0.267319
-0.262086
-0.252976
-0.245076
-0.238155
-0.231463
-0.224854
-0.21838
-0.212059
-0.205877
-0.199824
-0.193898
-0.1881
-0.182429
-0.176887
-0.171474
-0.16619
-0.161037
-0.156013
-0.15112
-0.273051
-0.268752
-0.258232
-0.249508
-0.242299
-0.235382
-0.228537
-0.221868
-0.2154
-0.209103
-0.202958
-0.196957
-0.191097
-0.185375
-0.179788
-0.174336
-0.169017
-0.163831
-0.158777
-0.153853
-0.278082
-0.27485
-0.263083
-0.253704
-0.246301
-0.239171
-0.232087
-0.225232
-0.218634
-0.212242
-0.206027
-0.199978
-0.194086
-0.188342
-0.182742
-0.17728
-0.171954
-0.166761
-0.161699
-0.156767
-0.151963
-0.280451
-0.2781
-0.266001
-0.256807
-0.249599
-0.242456
-0.23532
-0.228441
-0.221824
-0.21541
-0.209179
-0.20312
-0.197225
-0.191482
-0.185885
-0.180427
-0.175105
-0.169916
-0.164855
-0.159922
-0.155113
-0.150428
-0.278847
-0.274976
-0.264285
-0.25635
-0.249535
-0.242621
-0.235815
-0.229271
-0.222942
-0.216786
-0.210795
-0.204958
-0.199267
-0.193711
-0.188283
-0.182979
-0.177794
-0.172727
-0.167774
-0.162933
-0.158204
-0.153585
-0.149076
-0.24938
-0.249124
-0.248404
-0.245518
-0.241109
-0.236055
-0.230752
-0.225311
-0.219798
-0.214274
-0.208785
-0.203356
-0.198002
-0.192731
-0.187551
-0.182463
-0.177471
-0.172576
-0.16778
-0.163082
-0.158484
-0.153985
-0.149587
-0.145288
-0.236314
-0.235481
-0.232987
-0.229262
-0.225121
-0.220837
-0.216428
-0.211905
-0.20731
-0.202683
-0.198051
-0.193431
-0.188835
-0.184273
-0.179754
-0.175284
-0.170869
-0.166512
-0.162219
-0.157991
-0.153833
-0.149745
-0.145731
-0.141791
-0.216969
-0.217682
-0.215151
-0.211948
-0.208888
-0.2058
-0.202515
-0.199036
-0.195419
-0.191706
-0.187922
-0.184086
-0.180216
-0.176327
-0.172432
-0.168543
-0.164668
-0.160815
-0.156991
-0.153203
-0.149455
-0.145751
-0.142095
-0.13849
-0.19704
-0.199445
-0.197664
-0.195228
-0.193096
-0.190965
-0.188597
-0.185994
-0.183221
-0.180317
-0.177303
-0.174198
-0.17102
-0.167784
-0.164506
-0.161197
-0.157868
-0.154529
-0.151189
-0.147855
-0.144534
-0.141231
-0.137951
-0.1347
-0.178207
-0.181557
-0.180679
-0.179108
-0.177823
-0.176524
-0.17497
-0.173159
-0.171151
-0.168988
-0.166686
-0.164259
-0.161728
-0.159109
-0.156416
-0.153662
-0.150859
-0.148018
-0.145148
-0.142258
-0.139356
-0.136449
-0.133543
-0.130643
-0.160857
-0.164725
-0.164738
-0.164031
-0.163516
-0.162944
-0.162102
-0.160987
-0.159655
-0.158143
-0.156468
-0.15465
-0.152701
-0.150639
-0.148479
-0.146234
-0.143917
-0.141538
-0.139109
-0.136637
-0.134132
-0.131601
-0.129051
-0.126489
-0.145461
-0.149544
-0.150284
-0.15032
-0.150448
-0.150476
-0.150226
-0.149698
-0.148941
-0.147989
-0.14686
-0.145568
-0.14413
-0.142562
-0.140878
-0.13909
-0.137212
-0.135254
-0.133227
-0.13114
-0.129002
-0.126821
-0.124604
-0.122358
-0.132111
-0.136176
-0.137449
-0.138073
-0.138712
-0.139218
-0.139448
-0.139404
-0.139127
-0.138647
-0.13798
-0.137141
-0.136145
-0.135007
-0.133739
-0.132356
-0.130868
-0.129286
-0.127621
-0.125882
-0.124077
-0.122215
-0.120303
-0.118348
-0.120626
-0.12455
-0.126199
-0.127274
-0.128307
-0.129184
-0.129796
-0.130142
-0.130258
-0.130169
-0.12989
-0.129434
-0.128815
-0.128046
-0.12714
-0.126108
-0.124962
-0.123712
-0.122367
-0.120938
-0.119431
-0.117857
-0.116221
-0.11453
-0.110783
-0.11452
-0.11643
-0.117839
-0.119169
-0.120331
-0.121241
-0.121898
-0.122332
-0.122564
-0.122605
-0.12247
-0.122168
-0.121713
-0.121116
-0.120388
-0.119538
-0.118577
-0.117514
-0.116357
-0.115115
-0.113796
-0.112406
-0.110953
-0.102379
-0.105919
-0.108006
-0.109662
-0.111211
-0.112589
-0.113729
-0.114632
-0.11532
-0.115811
-0.116117
-0.116246
-0.11621
-0.116019
-0.115684
-0.115215
-0.11462
-0.113908
-0.113089
-0.112171
-0.11116
-0.110065
-0.108893
-0.10765
-0.0952348
-0.0985858
-0.100792
-0.102626
-0.104338
-0.105877
-0.107194
-0.108289
-0.10918
-0.10988
-0.110399
-0.110746
-0.11093
-0.11096
-0.110845
-0.110595
-0.110216
-0.109718
-0.109109
-0.108396
-0.107586
-0.106686
-0.105704
-0.104645
-0.089198
-0.0923764
-0.0946615
-0.0966268
-0.0984577
-0.100117
-0.101569
-0.102813
-0.103863
-0.10473
-0.105422
-0.105946
-0.106311
-0.106523
-0.106592
-0.106524
-0.106328
-0.106011
-0.105579
-0.105041
-0.104404
-0.103672
-0.102854
-0.101955
-0.0841456
-0.0871717
-0.0895092
-0.0915695
-0.0934871
-0.0952359
-0.0967893
-0.0981484
-0.0993235
-0.100323
-0.101153
-0.10182
-0.102331
-0.102692
-0.102911
-0.102995
-0.102951
-0.102784
-0.102502
-0.102112
-0.101619
-0.10103
-0.100352
-0.0995883
-0.0799779
-0.0828736
-0.0852451
-0.0873741
-0.0893544
-0.0911687
-0.0927989
-0.094246
-0.0955176
-0.0966202
-0.0975591
-0.0983397
-0.0989679
-0.0994496
-0.099791
-0.0999981
-0.100077
-0.100035
-0.099876
-0.0996077
-0.0992355
-0.0987653
-0.0982028
-0.0975536
-0.0766146
-0.0794022
-0.0817954
-0.0839737
-0.0859989
-0.0878608
-0.089548
-0.0910614
-0.0924066
-0.0935885
-0.0946118
-0.0954811
-0.0962014
-0.0967779
-0.0972161
-0.0975215
-0.0976996
-0.0977562
-0.0976968
-0.097527
-0.0972525
-0.0968786
-0.0964109
-0.0958546
-0.0739931
-0.0766945
-0.0791012
-0.0813142
-0.0833711
-0.085267
-0.0869954
-0.0885576
-0.0899573
-0.0911987
-0.0922856
-0.093222
-0.0940123
-0.0946612
-0.0951737
-0.0955547
-0.0958093
-0.0959428
-0.0959604
-0.0958674
-0.0956691
-0.0953706
-0.0949771
-0.0944938
-0.0720659
-0.0747034
-0.0771179
-0.0793543
-0.0814326
-0.0833517
-0.0851088
-0.0867052
-0.0881436
-0.0894272
-0.0905595
-0.091544
-0.0923848
-0.0930862
-0.0936525
-0.0940885
-0.0943989
-0.0945886
-0.0946627
-0.094626
-0.0944837
-0.0942407
-0.0939021
-0.0934728
-0.0707914
-0.0733894
-0.0758102
-0.0780622
-0.0801543
-0.0820881
-0.0838636
-0.0854818
-0.086945
-0.0882558
-0.0894173
-0.090433
-0.0913065
-0.0920419
-0.0926433
-0.0931151
-0.0934619
-0.0936885
-0.0937995
-0.0937998
-0.0936944
-0.0934879
-0.0931854
-0.0927917
-0.0701442
-0.0727249
-0.0751537
-0.0774166
-0.079517
-0.0814589
-0.0832439
-0.0848733
-0.0863488
-0.087673
-0.0888491
-0.0898801
-0.0907697
-0.0915219
-0.0921405
-0.0926301
-0.0929949
-0.0932396
-0.093369
-0.0933876
-0.0933003
-0.093112
-0.0928275
-0.0924514
-0.256262
-0.237475
-0.212409
-0.188331
-0.168073
-0.150707
-0.135828
-0.123264
-0.112644
-0.103613
-0.0959255
-0.0893973
-0.0838832
-0.0792678
-0.0754589
-0.072383
-0.0699826
-0.0682124
-0.0670306
-0.0664274
-0.231697
-0.213625
-0.193493
-0.172432
-0.154627
-0.139559
-0.126343
-0.114864
-0.105009
-0.0965589
-0.0893238
-0.0831593
-0.0779423
-0.0735685
-0.0699523
-0.067025
-0.0647325
-0.0630309
-0.0618795
-0.0612824
-0.220657
-0.200184
-0.181262
-0.161364
-0.143789
-0.129124
-0.116562
-0.10573
-0.0964736
-0.0885805
-0.0818458
-0.0761136
-0.0712624
-0.0671929
-0.0638244
-0.0610927
-0.0589476
-0.0573476
-0.0562552
-0.0556866
-0.207471
-0.184553
-0.165215
-0.146969
-0.130858
-0.117328
-0.105837
-0.0959398
-0.0874337
-0.0801528
-0.0739302
-0.0686278
-0.064136
-0.060365
-0.0572411
-0.0547052
-0.0527107
-0.0512186
-0.0501959
-0.0496653
-0.192356
-0.169092
-0.149699
-0.132673
-0.117871
-0.105309
-0.0946598
-0.0855544
-0.0777527
-0.0710823
-0.0653897
-0.0605441
-0.0564411
-0.0529968
-0.0501432
-0.0478262
-0.0460031
-0.0446383
-0.0437039
-0.0432241
-0.173892
-0.151463
-0.132775
-0.117006
-0.103619
-0.0922709
-0.0826458
-0.0744422
-0.0674248
-0.0614234
-0.0563
-0.0519393
-0.0482472
-0.0451484
-0.042582
-0.0404994
-0.0388624
-0.0376391
-0.0368077
-0.0363885
-0.152349
-0.131754
-0.114703
-0.100508
-0.0885935
-0.0785162
-0.0699703
-0.0627038
-0.0565003
-0.0511995
-0.0466767
-0.0428294
-0.039574
-0.0368436
-0.0345847
-0.0327546
-0.0313196
-0.0302527
-0.0295379
-0.0291872
-0.12789
-0.10983
-0.0950894
-0.0828525
-0.072585
-0.0638896
-0.0565332
-0.0503023
-0.0449883
-0.0404453
-0.036567
-0.0332673
-0.030476
-0.0281366
-0.026204
-0.0246424
-0.0234233
-0.0225248
-0.0219364
-0.0216589
-0.100727
-0.0858081
-0.073922
-0.0640013
-0.055602
-0.0485263
-0.0424698
-0.0373518
-0.0329849
-0.0292443
-0.0260465
-0.0233241
-0.0210214
-0.0190933
-0.017504
-0.0162247
-0.0152326
-0.0145112
-0.0140555
-0.0138551
-0.0706763
-0.0596972
-0.0512426
-0.0439098
-0.0375355
-0.0326415
-0.0279519
-0.0239907
-0.0206044
-0.017698
-0.0152099
-0.0130897
-0.0112962
-0.00979619
-0.00856326
-0.0075764
-0.00681868
-0.00627863
-0.00595786
-0.00583986
-0.0383367
-0.0319874
-0.0273333
-0.022915
-0.0189991
-0.0157273
-0.0127319
-0.0100968
-0.00780276
-0.0058102
-0.0040883
-0.00261133
-0.00135722
-0.00030746
0.000553055
0.00123654
0.00175326
0.00210818
0.00229416
0.00234114
-0.00430048
-0.00267429
-0.00219983
-0.00105071
0.000259112
0.00155049
0.00284243
0.00408122
0.00522635
0.00626291
0.00718558
0.0079935
0.00868847
0.00927345
0.00975151
0.0101257
0.0103991
0.0105703
0.0106283
0.0106132
)
;

boundaryField
{
    inlet
    {
        type            zeroGradient;
    }
    outlet
    {
        type            fixedValue;
        value           nonuniform 0();
    }
    cylinder
    {
        type            zeroGradient;
    }
    top
    {
        type            symmetryPlane;
    }
    bottom
    {
        type            symmetryPlane;
    }
    defaultFaces
    {
        type            empty;
    }
    procBoundary5to1
    {
        type            processor;
        value           nonuniform List<scalar> 
42
(
-0.341553
-0.341553
-0.34637
-0.34872
-0.348983
-0.347934
-0.34583
-0.342798
-0.338959
-0.334418
-0.329263
-0.323573
-0.317425
-0.310892
-0.304052
-0.296989
-0.289799
-0.282575
-0.275394
-0.268348
-0.261785
0.819957
0.770823
-0.256275
-0.24998
-0.24343
-0.23696
-0.230587
-0.224282
-0.218046
-0.211891
-0.205824
-0.199852
-0.19398
-0.188214
-0.182558
-0.177016
-0.171591
-0.166286
-0.161103
-0.156044
-0.15111
)
;
    }
    procBoundary5to4
    {
        type            processor;
        value           nonuniform List<scalar> 
49
(
0.0216808
0.029629
0.0337028
0.0463634
0.0548961
0.0216808
0.0620061
0.0781565
0.0884608
0.0463634
0.0966658
0.13088
0.0781565
0.140756
0.196369
0.13088
0.204896
0.277872
0.196369
0.282805
0.277872
0.377712
0.377712
0.472702
0.568661
0.568661
0.659149
0.659149
0.709483
0.0310662
0.0276083
0.0236914
0.0214357
0.0200584
0.019212
0.01874
0.0185158
0.0184469
0.0184722
0.0185512
0.0186556
0.018766
0.0188687
0.0189533
0.0190129
0.0190425
0.019034
0.0189747
0.0189095
)
;
    }
    procBoundary5to6
    {
        type            processor;
        value           nonuniform List<scalar> 
33
(
-0.146301
-0.147174
-0.148831
-0.148831
-0.146356
-0.149059
-0.149059
-0.147285
-0.147285
-0.145865
-0.145865
-0.144674
-0.144674
-0.141089
-0.137927
-0.13494
-0.13148
-0.127754
-0.123919
-0.120089
-0.116357
-0.112792
-0.109443
-0.106343
-0.103516
-0.10098
-0.0987465
-0.096823
-0.0952149
-0.0939257
-0.0929576
-0.0923115
-0.0919886
)
;
    }
}


// ************************************************************************* //
