/*--------------------------------*- C++ -*----------------------------------*\
  =========                 |
  \\      /  F ield         | OpenFOAM: The Open Source CFD Toolbox
   \\    /   O peration     | Website:  https://openfoam.org
    \\  /    A nd           | Version:  7
     \\/     M anipulation  |
\*---------------------------------------------------------------------------*/
FoamFile
{
    version     2.0;
    format      ascii;
    class       volVectorField;
    location    "20";
    object      U;
}
// * * * * * * * * * * * * * * * * * * * * * * * * * * * * * * * * * * * * * //

dimensions      [0 1 -1 0 0 0 0];

internalField   nonuniform List<vector> 
1360
(
(0.896389 0.0403301 0)
(0.955374 0.0391477 0)
(1.00797 0.0371439 6.81452e-12)
(1.05301 0.0345511 -6.81452e-12)
(1.09006 0.031626 0)
(1.11931 0.028582 0)
(1.14141 0.025583 0)
(1.15734 0.0227379 0)
(1.16822 0.0201041 -3.27829e-28)
(1.17515 0.0176985 3.27829e-28)
(1.17915 0.0155092 -3.38675e-28)
(1.18108 0.0135082 3.38675e-28)
(1.18163 0.011661 -8.36129e-12)
(1.18134 0.00993317 8.36129e-12)
(1.1806 0.00829432 0)
(1.17968 0.00671939 0)
(1.17877 0.0051889 8.60311e-12)
(1.178 0.00368813 -8.60311e-12)
(1.17745 0.00220609 -3.98443e-28)
(1.17716 0.000734291 4.00966e-28)
(0.896083 0.0397807 0)
(0.954581 0.0386398 0)
(1.00682 0.0366861 7.51556e-29)
(1.05163 0.0341474 -7.51556e-29)
(1.08857 0.0312753 0)
(1.11779 0.02828 0)
(1.13994 0.0253233 0)
(1.15596 0.0225135 0)
(1.16695 0.0199089 6.61481e-28)
(1.17399 0.0175275 -6.61481e-28)
(1.17809 0.0153587 6.83981e-28)
(1.18011 0.0133759 -6.83981e-28)
(1.18073 0.0115455 -1.62361e-11)
(1.18049 0.0098338 1.62361e-11)
(1.17979 0.00821063 0)
(1.17889 0.00665116 0)
(1.17801 0.005136 8.36069e-12)
(1.17725 0.00365044 -8.36069e-12)
(1.1767 0.00218352 5.34549e-28)
(1.17642 0.000726776 -5.37933e-28)
(0.895793 0.0392422 0)
(0.95381 0.0381416 0)
(1.00569 0.0362367 0)
(1.05027 0.0337506 0)
(1.08709 0.0309303 0)
(1.11629 0.0279824 0)
(1.13848 0.025067 0)
(1.1546 0.0222919 0)
(1.16569 0.019716 -3.07912e-28)
(1.17284 0.0173582 3.07912e-28)
(1.17704 0.0152096 0)
(1.17914 0.0132447 0)
(1.17984 0.0114309 -1.57575e-11)
(1.17965 0.00973502 1.57575e-11)
(1.17899 0.00812734 3.33167e-28)
(1.17812 0.0065832 -3.33167e-28)
(1.17725 0.00508325 0)
(1.1765 0.00361283 0)
(1.17597 0.00216099 -3.76289e-28)
(1.17569 0.00071927 3.78671e-28)
(0.89552 0.0387146 0)
(0.953062 0.0376533 0)
(1.00459 0.0357958 0)
(1.04894 0.0333609 0)
(1.08564 0.0305911 0)
(1.11482 0.0276896 0)
(1.13705 0.0248146 0)
(1.15325 0.0220735 0)
(1.16444 0.0195256 0)
(1.1717 0.0171911 0)
(1.176 0.0150623 -6.43077e-28)
(1.17819 0.013115 6.43077e-28)
(1.17895 0.0113174 -1.52868e-11)
(1.17882 0.00963711 1.52868e-11)
(1.17819 0.00804469 -6.73174e-28)
(1.17735 0.00651568 6.73174e-28)
(1.1765 0.0050308 -6.81446e-28)
(1.17577 0.00357542 6.81446e-28)
(1.17524 0.00213856 5.04393e-28)
(1.17496 0.000711798 -5.07586e-28)
(0.895264 0.038198 0)
(0.952336 0.0371749 0)
(1.00351 0.0353637 1.34924e-29)
(1.04763 0.0329787 -1.34924e-29)
(1.08422 0.0302581 0)
(1.11336 0.0274019 0)
(1.13564 0.0245664 -3.06292e-28)
(1.15191 0.0218585 3.06292e-28)
(1.16321 0.0193381 0)
(1.17058 0.0170264 0)
(1.17498 0.0149171 0)
(1.17725 0.012987 0)
(1.17807 0.0112053 -1.48239e-11)
(1.17799 0.00954031 1.48239e-11)
(1.1774 0.0079629 0)
(1.17659 0.0064488 0)
(1.17576 0.00497881 7.65402e-12)
(1.17504 0.0035383 -7.65402e-12)
(1.17452 0.0021163 0)
(1.17424 0.000704379 0)
(0.895023 0.0376922 -2.22092e-28)
(0.95163 0.0367066 2.2239e-28)
(1.00246 0.0349403 -1.30186e-29)
(1.04635 0.032604 1.30186e-29)
(1.08281 0.0299314 0)
(1.11193 0.0271195 0)
(1.13424 0.0243227 2.96168e-28)
(1.1506 0.0216473 -2.96168e-28)
(1.162 0.0191538 -6.73313e-12)
(1.16946 0.0168645 6.73313e-12)
(1.17396 0.0147742 0)
(1.17631 0.0128609 0)
(1.1772 0.0110949 -1.43687e-11)
(1.17718 0.00944486 1.43687e-11)
(1.17662 0.00788217 3.04279e-28)
(1.17584 0.00638274 -3.04279e-28)
(1.17502 0.00492741 1.48506e-11)
(1.17432 0.00350158 -1.48506e-11)
(1.1738 0.00209427 -3.44204e-28)
(1.17353 0.000697036 3.46383e-28)
(0.894798 0.0371974 4.45412e-28)
(0.950946 0.0362483 -4.46008e-28)
(1.00143 0.0345259 0)
(1.0451 0.0322371 0)
(1.08144 0.0296114 0)
(1.11052 0.0268427 0)
(1.13286 0.0240837 -3.95108e-28)
(1.14929 0.0214402 3.95108e-28)
(1.16079 0.0189731 -6.51395e-12)
(1.16836 0.0167056 6.51395e-12)
(1.17295 0.0146339 0)
(1.17538 0.0127372 0)
(1.17634 0.0109864 -6.96058e-12)
(1.17636 0.00935097 6.96058e-12)
(1.17585 0.0078027 -6.1397e-28)
(1.17509 0.00631765 6.1397e-28)
(1.1743 0.00487673 7.19993e-12)
(1.1736 0.00346535 -7.19993e-12)
(1.17309 0.00207252 0)
(1.17283 0.000689786 0)
(0.894588 0.0367135 0)
(0.950281 0.0358 0)
(1.00042 0.0341205 0)
(1.04386 0.031878 0)
(1.08008 0.0292981 0)
(1.10913 0.0265716 0)
(1.1315 0.0238497 2.76569e-28)
(1.14801 0.0212374 -2.76569e-28)
(1.1596 0.0187961 0)
(1.16726 0.0165501 0)
(1.17195 0.0144966 0)
(1.17446 0.0126159 0)
(1.17549 0.01088 0)
(1.17556 0.00925885 0)
(1.17509 0.00772467 0)
(1.17436 0.00625368 0)
(1.17358 0.00482689 2.89661e-28)
(1.17289 0.00342971 -2.89661e-28)
(1.17239 0.00205112 0)
(1.17213 0.000682649 0)
(0.894392 0.0362405 0)
(0.949636 0.0353619 0)
(0.99944 0.0337241 0)
(1.04265 0.031527 0)
(1.07875 0.0289917 0)
(1.10776 0.0263066 0)
(1.13016 0.0236209 0)
(1.14673 0.0210392 0)
(1.15841 0.0186232 -5.26105e-28)
(1.16618 0.0163981 5.26105e-28)
(1.17095 0.0143623 0)
(1.17355 0.0124973 0)
(1.17464 0.0107759 0)
(1.17477 0.00916869 0)
(1.17433 0.00764823 0)
(1.17363 0.00619098 0)
(1.17287 0.00477801 0)
(1.17219 0.00339472 0)
(1.1717 0.0020301 4.32679e-28)
(1.17144 0.00067564 -4.35418e-28)
(0.894211 0.0357782 0)
(0.94901 0.0349338 0)
(0.998478 0.0333368 0)
(1.04146 0.031184 0)
(1.07743 0.0286925 0)
(1.10641 0.0260478 0)
(1.12883 0.0233975 0)
(1.14547 0.0208458 0)
(1.15724 0.0184545 0)
(1.1651 0.0162499 0)
(1.16997 0.0142314 0)
(1.17264 0.0123817 0)
(1.1738 0.0106743 0)
(1.17398 0.00908067 0)
(1.17358 0.00757356 0)
(1.1729 0.00612968 0)
(1.17216 0.00473019 -2.71643e-28)
(1.1715 0.00336049 2.71643e-28)
(1.17102 0.00200953 -3.03541e-28)
(1.17076 0.000668776 3.05463e-28)
(0.894044 0.0353267 -3.82028e-28)
(0.948403 0.0345157 3.82531e-28)
(0.997537 0.0329588 0)
(1.0403 0.0308491 0)
(1.07614 0.0284004 0)
(1.10507 0.0257953 0)
(1.12752 0.0231797 0)
(1.14423 0.0206573 0)
(1.15608 0.0182902 -5.67941e-12)
(1.16404 0.0161056 5.67941e-12)
(1.16899 0.0141041 0)
(1.17174 0.0122692 0)
(1.17297 0.0105755 0)
(1.17319 0.00899496 0)
(1.17283 0.0075008 5.39266e-28)
(1.17218 0.00606991 -5.39266e-28)
(1.17146 0.00468353 6.33179e-12)
(1.17082 0.00332706 -6.33179e-12)
(1.17034 0.00198944 4.05437e-28)
(1.17009 0.000662072 -4.08004e-28)
(0.89389 0.0348859 1.7638e-28)
(0.947814 0.0341077 -1.76611e-28)
(0.996618 0.0325898 0)
(1.03915 0.0305226 0)
(1.07487 0.0281157 0)
(1.10376 0.0255493 0)
(1.12623 0.0229677 0)
(1.143 0.020474 0)
(1.15494 0.0181306 -1.09616e-11)
(1.16298 0.0159655 1.09616e-11)
(1.16802 0.0139805 0)
(1.17085 0.01216 0)
(1.17214 0.0104796 -5.89663e-12)
(1.17242 0.0089117 5.89663e-12)
(1.17209 0.00743009 -2.50439e-28)
(1.17147 0.00601179 2.50439e-28)
(1.17077 0.00463813 1.22458e-11)
(1.17014 0.00329452 -1.22458e-11)
(1.16967 0.00196987 -2.84096e-28)
(1.16942 0.000655543 2.85895e-28)
(0.89375 0.0344558 2.92144e-29)
(0.947243 0.0337097 -2.92525e-29)
(0.995718 0.0322301 -1.57407e-28)
(1.03803 0.0302043 1.57407e-28)
(1.07362 0.0278384 0)
(1.10246 0.02531 0)
(1.12495 0.0227617 0)
(1.14178 0.020296 0)
(1.1538 0.0179758 -5.28605e-12)
(1.16193 0.0158298 5.28605e-12)
(1.16706 0.0138608 0)
(1.16997 0.0120543 0)
(1.17132 0.0103867 -1.13888e-11)
(1.17165 0.00883106 1.13888e-11)
(1.17136 0.00736155 0)
(1.17077 0.00595542 0)
(1.17009 0.00459408 5.91714e-12)
(1.16946 0.00326294 -5.91714e-12)
(1.169 0.00195087 0)
(1.16875 0.0006492 0)
(0.893623 0.0340362 1.89319e-28)
(0.946689 0.0333216 -1.89565e-28)
(0.994839 0.0318796 -1.12657e-28)
(1.03693 0.0298944 1.12657e-28)
(1.07239 0.0275687 0)
(1.10119 0.0250774 0)
(1.12369 0.0225617 0)
(1.14057 0.0201235 0)
(1.15267 0.017826 0)
(1.1609 0.0156986 0)
(1.16611 0.0137451 0)
(1.16909 0.0119522 0)
(1.17051 0.0102969 -1.09911e-11)
(1.17088 0.00875316 1.09911e-11)
(1.17064 0.00729531 0)
(1.17007 0.00590092 0)
(1.16941 0.00455146 2.76185e-28)
(1.1688 0.00323236 -2.76185e-28)
(1.16834 0.00193247 8.58164e-29)
(1.1681 0.000643058 -8.63597e-29)
(0.89351 0.033627 0)
(0.946153 0.0329435 0)
(0.99398 0.0315383 0)
(1.03585 0.0295929 0)
(1.07118 0.0273065 0)
(1.09993 0.0248516 0)
(1.12244 0.0223679 0)
(1.13938 0.0199567 0)
(1.15156 0.0176813 3.51309e-29)
(1.15987 0.0155721 -3.51309e-29)
(1.16516 0.0136337 0)
(1.16822 0.0118539 0)
(1.1697 0.0102106 -1.06e-11)
(1.17013 0.00867813 1.06e-11)
(1.16992 0.00723149 0)
(1.16938 0.00584837 0)
(1.16873 0.00451034 0)
(1.16814 0.00320285 0)
(1.16769 0.0019147 0)
(1.16745 0.000637127 0)
(0.893408 0.0332283 -3.11147e-28)
(0.945634 0.0325752 3.11547e-28)
(0.993139 0.0312061 0)
(1.03478 0.0292998 0)
(1.06999 0.027052 0)
(1.09868 0.0246329 0)
(1.12121 0.0221804 0)
(1.13819 0.0197956 0)
(1.15045 0.0175419 0)
(1.15884 0.0154504 0)
(1.16423 0.0135267 0)
(1.16736 0.0117595 0)
(1.1689 0.0101276 -1.02153e-11)
(1.16937 0.0086061 1.02153e-11)
(1.1692 0.00717019 0)
(1.16869 0.00579787 0)
(1.16807 0.00447081 0)
(1.16748 0.00317447 0)
(1.16704 0.00189761 0)
(1.16681 0.000631419 0)
(0.89332 0.0328398 1.43132e-28)
(0.945131 0.0322168 -1.43315e-28)
(0.992318 0.0308831 8.50161e-30)
(1.03374 0.0290152 -8.50161e-30)
(1.06882 0.0268053 0)
(1.09746 0.0244211 0)
(1.11999 0.0219994 0)
(1.13702 0.0196404 0)
(1.14935 0.0174079 -4.54321e-12)
(1.15783 0.0153336 4.54321e-12)
(1.16329 0.0134242 1.97246e-28)
(1.1665 0.0116692 -1.97246e-28)
(1.1681 0.0100483 -9.837e-12)
(1.16863 0.00853718 9.837e-12)
(1.16849 0.00711152 0)
(1.16801 0.00574952 0)
(1.1674 0.00443294 5.12477e-12)
(1.16683 0.00314726 -5.12477e-12)
(1.1664 0.00188122 -2.37947e-28)
(1.16617 0.000625945 2.39453e-28)
(0.893244 0.0324616 -3.34878e-28)
(0.944645 0.031868 0)
(0.991515 0.0305693 -2.97896e-28)
(1.03272 0.028739 3.60502e-28)
(1.06766 0.0265663 -4.16991e-28)
(1.09625 0.0242165 -4.07705e-28)
(1.11878 0.0218249 3.67271e-28)
(1.13587 0.0194912 4.05277e-28)
(1.14827 0.0172794 -4.36609e-12)
(1.15683 0.0152219 4.36609e-12)
(1.16237 0.0133263 0)
(1.16565 0.011583 4.17677e-28)
(1.16731 0.00997267 -4.73241e-12)
(1.16789 0.00847148 4.73241e-12)
(1.16779 0.00705557 4.37118e-28)
(1.16733 0.00570338 4.72419e-28)
(1.16675 0.00439679 9.86808e-12)
(1.16619 0.00312128 -9.86808e-12)
(1.16576 0.00186557 7.66153e-28)
(1.16553 0.000620715 -3.1824e-28)
(0.89318 0.0320935 3.34881e-28)
(0.944175 0.031529 0)
(0.99073 0.0302646 3.38735e-28)
(1.03171 0.0284713 -4.01341e-28)
(1.06652 0.0263351 4.16991e-28)
(1.09505 0.024019 4.07705e-28)
(1.11759 0.021657 -3.67271e-28)
(1.13472 0.0193482 -4.05277e-28)
(1.14719 0.0171566 3.62251e-28)
(1.15583 0.0151154 -3.62251e-28)
(1.16145 0.0132331 0)
(1.1648 0.0115012 -4.17677e-28)
(1.16652 0.00990085 -4.54661e-28)
(1.16715 0.0084091 0)
(1.16709 0.00700244 -4.37118e-28)
(1.16666 0.00565955 -4.72419e-28)
(1.16609 0.00436242 4.74613e-12)
(1.16555 0.00309657 -4.74613e-12)
(1.16513 0.00185067 -4.49915e-28)
(1.16491 0.000615738 0)
(0.893128 0.0317354 0)
(0.943721 0.0311996 0)
(0.989964 0.029969 0)
(1.03073 0.0282121 0)
(1.0654 0.0261117 0)
(1.09388 0.0238288 0)
(1.11642 0.0214958 0)
(1.13359 0.0192113 0)
(1.14612 0.0170395 -1.66936e-28)
(1.15484 0.0150142 1.66936e-28)
(1.16054 0.0131448 0)
(1.16396 0.0114237 0)
(1.16574 0.00983295 0)
(1.16642 0.00835014 0)
(1.1664 0.0069522 0)
(1.166 0.00561809 0)
(1.16545 0.0043299 4.56099e-12)
(1.16491 0.00307318 -4.56099e-12)
(1.1645 0.00183657 0)
(1.16428 0.000611023 0)
(0.893088 0.0313872 0)
(0.943282 0.0308798 0)
(0.989215 0.0296824 0)
(1.02976 0.0279613 0)
(1.0643 0.0258963 0)
(1.09272 0.0236459 0)
(1.11525 0.0213414 0)
(1.13246 0.0190807 0)
(1.14506 0.0169282 3.33015e-28)
(1.15385 0.0149184 -3.33015e-28)
(1.15963 0.0130615 0)
(1.16312 0.0113507 0)
(1.16497 0.00976908 0)
(1.16569 0.00829469 0)
(1.16571 0.00690496 3.71928e-28)
(1.16533 0.00557908 -3.71928e-28)
(1.1648 0.00429929 4.37854e-12)
(1.16428 0.00305114 -4.37854e-12)
(1.16388 0.00182328 -2.80735e-28)
(1.16367 0.00060658 2.82512e-28)
(0.89306 0.0310489 0)
(0.942859 0.0305695 0)
(0.988483 0.0294049 0)
(1.02881 0.027719 0)
(1.06322 0.0256887 1.34307e-28)
(1.09157 0.0234704 -1.34307e-28)
(1.1141 0.0211938 0)
(1.13135 0.0189565 0)
(1.14401 0.0168229 -1.53143e-28)
(1.15288 0.0148281 1.53143e-28)
(1.15873 0.0129832 -1.60701e-28)
(1.16229 0.0112824 1.60701e-28)
(1.16419 0.00970932 0)
(1.16496 0.00824284 0)
(1.16502 0.00686078 0)
(1.16467 0.00554259 0)
(1.16417 0.00427063 0)
(1.16366 0.00303051 0)
(1.16327 0.00181082 0)
(1.16305 0.000602417 0)
(0.893043 0.0307203 0)
(0.942451 0.0302685 0)
(0.987769 0.0291364 0)
(1.02787 0.0274852 0)
(1.06215 0.0254891 -2.66788e-28)
(1.09044 0.0233023 2.66788e-28)
(1.11297 0.0210532 0)
(1.13025 0.0188387 0)
(1.14297 0.0167236 3.0481e-28)
(1.15191 0.0147434 -3.0481e-28)
(1.15783 0.0129101 0)
(1.16146 0.0112187 0)
(1.16343 0.00965377 0)
(1.16424 0.00819468 0)
(1.16434 0.00681975 -3.4144e-28)
(1.16402 0.00550869 3.4144e-28)
(1.16353 0.00424399 4.02142e-12)
(1.16304 0.00301132 -4.02142e-12)
(1.16265 0.00179924 2.57895e-28)
(1.16244 0.000598543 -2.59527e-28)
(0.893038 0.0304014 0)
(0.942058 0.029977 0)
(0.987071 0.0288768 0)
(1.02696 0.0272599 0)
(1.0611 0.0252974 0)
(1.08932 0.0231416 0)
(1.11184 0.0209195 -1.45897e-28)
(1.12915 0.0187275 1.45897e-28)
(1.14194 0.0166305 0)
(1.15094 0.0146645 0)
(1.15694 0.0128423 0)
(1.16064 0.0111599 0)
(1.16266 0.00960252 -1.52612e-28)
(1.16353 0.0081503 1.52612e-28)
(1.16366 0.00678194 0)
(1.16337 0.00547743 0)
(1.1629 0.00421942 7.69323e-12)
(1.16242 0.00299361 -7.69323e-12)
(1.16204 0.00178854 -1.78746e-28)
(1.16184 0.000594964 1.79877e-28)
(0.893044 0.0300921 0)
(0.94168 0.0296947 0)
(0.986391 0.0286261 2.57025e-12)
(1.02606 0.027043 -2.57025e-12)
(1.06006 0.0251137 0)
(1.08822 0.0229884 0)
(1.11073 0.0207929 1.39009e-28)
(1.12807 0.018623 -1.39009e-28)
(1.14091 0.0165435 -1.33347e-28)
(1.14999 0.0145913 1.33347e-28)
(1.15606 0.0127798 0)
(1.15982 0.0111059 0)
(1.1619 0.00955566 0)
(1.16282 0.00810977 0)
(1.16298 0.00674742 0)
(1.16272 0.00544889 0)
(1.16227 0.00419697 3.67421e-12)
(1.16181 0.00297741 -3.67421e-12)
(1.16144 0.00177875 0)
(1.16123 0.000591688 0)
(0.893062 0.0297921 0)
(0.941317 0.0294216 0)
(0.985726 0.0283843 2.43787e-12)
(1.02518 0.0268346 -2.43787e-12)
(1.05904 0.024938 0)
(1.08713 0.0228428 0)
(1.10963 0.0206734 -1.82531e-28)
(1.127 0.0185251 1.82531e-28)
(1.13989 0.0164629 0)
(1.14904 0.014524 0)
(1.15517 0.0127228 0)
(1.159 0.0110569 0)
(1.16114 0.00951328 -3.34566e-12)
(1.1621 0.00807318 3.34566e-12)
(1.16231 0.00671627 2.97338e-28)
(1.16208 0.00542312 -2.97338e-28)
(1.16165 0.00417669 3.50414e-12)
(1.16119 0.00296277 -3.50414e-12)
(1.16083 0.0017699 0)
(1.16064 0.000588725 0)
(0.893091 0.0295016 0)
(0.940968 0.0291577 0)
(0.985079 0.0281513 5.25497e-30)
(1.02431 0.0266346 -5.25497e-30)
(1.05804 0.0247703 0)
(1.08606 0.0227047 0)
(1.10854 0.020561 1.25605e-28)
(1.12594 0.018434 -1.25605e-28)
(1.13888 0.0163886 1.20705e-28)
(1.14809 0.0144627 -1.20705e-28)
(1.1543 0.0126713 0)
(1.15819 0.011013 0)
(1.16039 0.00947546 -6.3678e-12)
(1.1614 0.00804061 6.3678e-12)
(1.16164 0.00668856 -1.35973e-28)
(1.16143 0.00540019 1.35973e-28)
(1.16102 0.00415862 6.67263e-12)
(1.16059 0.00294971 -6.67263e-12)
(1.16023 0.001762 1.55077e-28)
(1.16004 0.000586079 -1.56058e-28)
(0.893131 0.0292203 -1.70322e-28)
(0.940634 0.0289029 1.70524e-28)
(0.984447 0.0279271 2.48959e-29)
(1.02346 0.026443 -2.48959e-29)
(1.05705 0.0246107 0)
(1.085 0.0225743 0)
(1.10746 0.020456 -1.6436e-28)
(1.12489 0.0183498 1.6436e-28)
(1.13788 0.0163208 -2.38432e-28)
(1.14715 0.0144074 2.38432e-28)
(1.15343 0.0126254 0)
(1.15738 0.0109743 0)
(1.15964 0.00944229 -6.04889e-12)
(1.16069 0.00801213 6.04889e-12)
(1.16097 0.00666435 0)
(1.16079 0.00538016 0)
(1.16041 0.00414282 3.17066e-12)
(1.15998 0.00293828 -3.17066e-12)
(1.15963 0.00175507 0)
(1.15945 0.00058376 0)
(0.893183 0.0289482 7.69096e-29)
(0.940314 0.028657 -7.70001e-29)
(0.983831 0.0277117 0)
(1.02263 0.0262599 0)
(1.05608 0.0244591 0)
(1.08395 0.0224516 0)
(1.1064 0.0203582 1.12673e-28)
(1.12384 0.0182725 -1.12673e-28)
(1.13688 0.0162596 1.08477e-28)
(1.14622 0.0143583 -1.08477e-28)
(1.15256 0.0125853 0)
(1.15658 0.0109408 0)
(1.15889 0.00941385 -2.86722e-12)
(1.15999 0.00798782 2.86722e-12)
(1.1603 0.00664373 0)
(1.16016 0.00536308 0)
(1.15979 0.00412934 0)
(1.15938 0.00292851 0)
(1.15904 0.00174915 -1.39796e-28)
(1.15885 0.000581774 1.40681e-28)
(0.893246 0.0286851 -1.50074e-28)
(0.940008 0.0284201 1.50249e-28)
(0.983231 0.027505 0)
(1.02182 0.0260852 0)
(1.05512 0.0243156 0)
(1.08292 0.0223367 0)
(1.10535 0.0202678 0)
(1.12281 0.0182022 0)
(1.1359 0.016205 0)
(1.14529 0.0143155 0)
(1.15169 0.012551 0)
(1.15578 0.0109126 0)
(1.15814 0.00939024 -2.71215e-12)
(1.15929 0.00796777 2.71215e-12)
(1.15964 0.00662676 0)
(1.15952 0.00534902 0)
(1.15917 0.00411821 -2.45883e-28)
(1.15877 0.00292044 2.45883e-28)
(1.15845 0.00174424 0)
(1.15826 0.000580128 0)
(0.89332 0.0284311 6.73732e-29)
(0.939717 0.0281921 -6.74512e-29)
(0.982647 0.0273069 4.12965e-30)
(1.02102 0.0259189 -4.12965e-30)
(1.05418 0.0241803 0)
(1.0819 0.0222295 0)
(1.1043 0.0201849 0)
(1.12178 0.018139 0)
(1.13491 0.0161572 -9.66384e-29)
(1.14437 0.014279 9.66384e-29)
(1.15083 0.0125226 0)
(1.15498 0.0108899 0)
(1.15739 0.00937154 -5.11828e-12)
(1.15859 0.00795206 5.11828e-12)
(1.15898 0.0066135 0)
(1.15888 0.00533804 0)
(1.15856 0.0041095 2.68588e-12)
(1.15817 0.0029141 -2.68588e-12)
(1.15785 0.00174038 0)
(1.15768 0.000578829 0)
(0.893405 0.0281858 0)
(0.939439 0.0279729 0)
(0.982078 0.0271176 -3.86173e-30)
(1.02023 0.0257611 3.86173e-30)
(1.05325 0.024053 0)
(1.08089 0.0221301 0)
(1.10327 0.0201095 0)
(1.12077 0.0180831 0)
(1.13394 0.0161162 0)
(1.14345 0.014249 0)
(1.14998 0.0125003 0)
(1.15418 0.0108727 0)
(1.15665 0.00935784 -2.40811e-12)
(1.15789 0.00794077 2.40811e-12)
(1.15831 0.00660405 0)
(1.15825 0.00533019 0)
(1.15794 0.00410325 5.05615e-12)
(1.15757 0.00290952 -5.05615e-12)
(1.15726 0.00173758 1.17547e-28)
(1.15709 0.000577885 -1.18291e-28)
(0.893501 0.0279494 -1.2116e-28)
(0.939176 0.0277624 1.21298e-28)
(0.981525 0.0269369 0)
(1.01946 0.0256117 0)
(1.05234 0.023934 0)
(1.0799 0.0220387 0)
(1.10225 0.0200417 0)
(1.11976 0.0180344 0)
(1.13297 0.0160821 0)
(1.14253 0.0142255 0)
(1.14912 0.0124841 1.8727e-28)
(1.15338 0.0108612 -1.8727e-28)
(1.15591 0.00934924 0)
(1.15719 0.00793397 0)
(1.15765 0.00659845 0)
(1.15762 0.00532554 0)
(1.15733 0.0040995 4.74403e-12)
(1.15697 0.00290674 -4.74403e-12)
(1.15667 0.00173586 -1.52231e-28)
(1.1565 0.000577302 1.53195e-28)
(0.893608 0.0277216 5.37531e-29)
(0.938927 0.0275607 -5.38136e-29)
(0.980988 0.0267648 0)
(1.01871 0.0254708 0)
(1.05144 0.0238233 0)
(1.07892 0.0219553 0)
(1.10124 0.0199816 0)
(1.11876 0.0179932 0)
(1.13201 0.0160552 0)
(1.14162 0.0142087 0)
(1.14827 0.0124741 -8.40785e-29)
(1.15259 0.0108554 8.40785e-29)
(1.15517 0.00934582 0)
(1.1565 0.00793176 0)
(1.15699 0.0065968 0)
(1.15698 0.00532415 0)
(1.15672 0.00409831 2.21762e-12)
(1.15637 0.00290579 -2.21762e-12)
(1.15608 0.00173524 1.03116e-28)
(1.15592 0.000577088 -1.03769e-28)
(0.893727 0.0275024 0)
(0.938692 0.0273675 0)
(0.980466 0.0266013 0)
(1.01797 0.0253383 0)
(1.05055 0.0237208 0)
(1.07795 0.02188 0)
(1.10024 0.0199294 0)
(1.11777 0.0179594 0)
(1.13105 0.0160354 1.541e-28)
(1.14072 0.0141988 -1.541e-28)
(1.14742 0.0124705 1.6293e-28)
(1.1518 0.0108555 -1.6293e-28)
(1.15443 0.0093477 -1.96608e-12)
(1.1558 0.00793423 1.96608e-12)
(1.15633 0.00659917 1.75032e-28)
(1.15635 0.00532609 -1.75032e-28)
(1.1561 0.00409972 2.06478e-12)
(1.15577 0.00290671 -2.06478e-12)
(1.15549 0.00173575 -1.32514e-28)
(1.15533 0.000577249 1.33353e-28)
(0.893858 0.0272917 0)
(0.93847 0.027183 0)
(0.979959 0.0264464 0)
(1.01725 0.0252144 0)
(1.04969 0.0236267 0)
(1.077 0.0218128 0)
(1.09926 0.0198851 0)
(1.11679 0.0179334 0)
(1.1301 0.0160229 -6.85812e-29)
(1.13982 0.0141957 6.85812e-29)
(1.14658 0.0124733 0)
(1.15101 0.0108615 0)
(1.15369 0.00935498 -3.64425e-12)
(1.1551 0.00794147 3.64425e-12)
(1.15567 0.00660563 0)
(1.15572 0.00533141 0)
(1.15549 0.00410379 3.82685e-12)
(1.15518 0.00290954 -3.82685e-12)
(1.1549 0.00173741 8.8968e-29)
(1.15474 0.000577793 -8.95313e-29)
(0.893999 0.0270894 0)
(0.938263 0.0270069 0)
(0.979467 0.0263001 0)
(1.01654 0.025099 0)
(1.04883 0.0235411 0)
(1.07606 0.0217539 0)
(1.09828 0.0198489 0)
(1.11581 0.0179151 0)
(1.12916 0.0160179 0)
(1.13892 0.0141997 0)
(1.14573 0.0124828 0)
(1.15022 0.0108737 0)
(1.15295 0.00936775 -3.35944e-12)
(1.15441 0.00795357 3.35944e-12)
(1.15501 0.00661626 -7.18246e-29)
(1.15508 0.00534018 7.18246e-29)
(1.15488 0.00411056 1.76344e-12)
(1.15458 0.00291431 -1.76344e-12)
(1.15431 0.00174023 0)
(1.15416 0.000578725 0)
(0.894153 0.0268953 -7.66217e-29)
(0.938071 0.0268394 7.67046e-29)
(0.978992 0.0261623 0)
(1.01585 0.0249922 0)
(1.04799 0.023464 0)
(1.07513 0.0217035 0)
(1.09731 0.0198208 0)
(1.11484 0.0179047 0)
(1.12822 0.0160205 0)
(1.13802 0.014211 0)
(1.14489 0.012499 0)
(1.14943 0.010892 0)
(1.15221 0.00938614 -3.07755e-12)
(1.15371 0.00797063 3.07755e-12)
(1.15435 0.00663114 0)
(1.15445 0.00535247 0)
(1.15426 0.00412009 1.61474e-12)
(1.15397 0.00292105 -1.61474e-12)
(1.15372 0.00174424 0)
(1.15357 0.000580054 0)
(0.894318 0.0267093 3.27849e-29)
(0.937892 0.0266802 -3.28199e-29)
(0.978531 0.0260333 0)
(1.01518 0.0248942 0)
(1.04716 0.0233955 0)
(1.07421 0.0216615 0)
(1.09635 0.0198011 0)
(1.11389 0.0179025 0)
(1.12729 0.0160309 0)
(1.13713 0.0142296 0)
(1.14405 0.0125221 -5.57362e-29)
(1.14864 0.0109167 5.57362e-29)
(1.15146 0.00941027 -1.39918e-12)
(1.15301 0.00799274 1.39918e-12)
(1.15368 0.00665037 0)
(1.15381 0.00536834 0)
(1.15364 0.00413241 2.93446e-12)
(1.15337 0.00292981 -2.93446e-12)
(1.15312 0.00174946 -6.82004e-29)
(1.15298 0.000581785 6.86322e-29)
(0.894495 0.0265315 0)
(0.937728 0.0265296 0)
(0.978086 0.0259128 0)
(1.01451 0.0248048 0)
(1.04635 0.0233358 0)
(1.0733 0.0216283 0)
(1.0954 0.01979 0)
(1.11293 0.0179085 0)
(1.12636 0.0160492 9.89313e-29)
(1.13625 0.0142557 -9.89313e-29)
(1.14321 0.0125523 0)
(1.14785 0.0109479 0)
(1.15072 0.00944025 0)
(1.15231 0.00802001 0)
(1.15302 0.00667401 0)
(1.15317 0.00538785 0)
(1.15302 0.00414759 1.32079e-12)
(1.15277 0.0029406 -1.32079e-12)
(1.15253 0.0017559 0)
(1.15239 0.000583925 0)
(0.894685 0.0263617 0)
(0.937579 0.0263873 0)
(0.977657 0.0258011 0)
(1.01387 0.0247244 0)
(1.04555 0.0232851 0)
(1.07241 0.0216039 0)
(1.09447 0.0197875 0)
(1.11199 0.017923 0)
(1.12543 0.0160757 0)
(1.13536 0.0142896 0)
(1.14237 0.0125897 0)
(1.14706 0.0109857 0)
(1.14998 0.00947621 0)
(1.15161 0.00805255 0)
(1.15235 0.00670216 4.79446e-29)
(1.15253 0.00541108 -4.79446e-29)
(1.1524 0.00416567 -4.87895e-29)
(1.15216 0.00295347 4.87895e-29)
(1.15193 0.00176359 5.46051e-29)
(1.15179 0.000586479 -5.49508e-29)
(0.894887 0.0261997 0)
(0.937444 0.0262534 0)
(0.977243 0.0256981 6.38522e-13)
(1.01324 0.0246529 -6.38522e-13)
(1.04477 0.0232434 0)
(1.07153 0.0215886 0)
(1.09354 0.019794 0)
(1.11105 0.0179463 0)
(1.12452 0.0161106 -7.78474e-29)
(1.13448 0.0143315 7.78474e-29)
(1.14154 0.0126345 0)
(1.14627 0.0110303 0)
(1.14924 0.00951828 0)
(1.1509 0.00809047 0)
(1.15168 0.0067349 -8.76017e-29)
(1.15188 0.0054381 8.76017e-29)
(1.15178 0.0041867 8.90685e-29)
(1.15155 0.00296846 -8.90685e-29)
(1.15133 0.00177254 -6.60693e-29)
(1.1512 0.000589451 6.64875e-29)
(0.895102 0.0260456 0)
(0.937325 0.0261279 0)
(0.976845 0.0256039 5.44445e-13)
(1.01263 0.0245906 -5.44445e-13)
(1.044 0.023211 0)
(1.07066 0.0215826 0)
(1.09262 0.0198098 -3.3331e-29)
(1.11012 0.0179785 3.3331e-29)
(1.1236 0.0161541 0)
(1.1336 0.0143815 0)
(1.1407 0.0126869 0)
(1.14548 0.0110819 0)
(1.14849 0.00956661 0)
(1.1502 0.00813387 0)
(1.151 0.00677232 0)
(1.15124 0.00546895 0)
(1.15115 0.00421072 0)
(1.15094 0.00298558 0)
(1.15072 0.00178276 0)
(1.15059 0.000592845 0)
(0.89533 0.0258994 0)
(0.937221 0.0260108 0)
(0.976464 0.0255187 1.03037e-30)
(1.01203 0.0245375 -1.03037e-30)
(1.04325 0.0231881 0)
(1.06981 0.0215862 0)
(1.09171 0.0198349 0)
(1.1092 0.0180199 0)
(1.12269 0.0162065 0)
(1.13272 0.0144398 0)
(1.13986 0.0127472 0)
(1.14469 0.0111406 0)
(1.14774 0.00962134 0)
(1.14949 0.00818286 0)
(1.15033 0.0068145 0)
(1.15059 0.00550371 0)
(1.15052 0.00423779 -3.08755e-29)
(1.15032 0.00300486 3.08755e-29)
(1.15011 0.00179428 0)
(1.14999 0.00059666 0)
(0.895572 0.0257611 -2.18317e-29)
(0.937132 0.0259023 2.18535e-29)
(0.976099 0.0254426 0)
(1.01144 0.024494 0)
(1.0425 0.023175 0)
(1.06896 0.0215996 0)
(1.09081 0.0198698 0)
(1.10828 0.0180709 0)
(1.12179 0.016268 0)
(1.13185 0.0145069 0)
(1.13903 0.0128154 0)
(1.1439 0.0112067 0)
(1.14699 0.0096826 0)
(1.14877 0.00823756 0)
(1.14964 0.00686153 0)
(1.14993 0.00554243 0)
(1.14988 0.00426793 6.01144e-13)
(1.1497 0.00302635 -6.01144e-13)
(1.1495 0.00180708 3.84279e-29)
(1.14938 0.000600891 -3.86712e-29)
(0.895824 0.0256299 7.09949e-30)
(0.93706 0.0258016 -7.10648e-30)
(0.975753 0.0253753 0)
(1.01088 0.02446 0)
(1.04178 0.0231718 0)
(1.06814 0.0216231 0)
(1.08993 0.0199148 1.84666e-29)
(1.10738 0.0181316 -1.84666e-29)
(1.12089 0.0163389 1.78e-29)
(1.13098 0.0145828 -1.78e-29)
(1.1382 0.0128919 1.84108e-29)
(1.14311 0.0112802 -1.84108e-29)
(1.14624 0.00975051 -4.51328e-13)
(1.14806 0.00829806 4.51328e-13)
(1.14896 0.00691345 0)
(1.14927 0.00558516 0)
(1.14925 0.00430118 4.5877e-13)
(1.14907 0.00305004 -4.5877e-13)
(1.14889 0.00182115 -2.12041e-29)
(1.14877 0.000605499 2.13383e-29)
(0.896107 0.0255016 -7.78256e-30)
(0.937003 0.0257054 7.79012e-30)
(0.975413 0.0253141 0)
(1.01032 0.0244336 0)
(1.04106 0.0231774 0)
(1.06731 0.0216561 0)
(1.08904 0.0199697 -1.91943e-29)
(1.10647 0.0182023 1.91943e-29)
(1.11999 0.0164194 -2.75117e-29)
(1.1301 0.0146677 2.75117e-29)
(1.13735 0.0129767 -2.78909e-29)
(1.14231 0.0113613 2.78909e-29)
(1.14548 0.00982513 -6.44547e-13)
(1.14733 0.00836434 6.44547e-13)
(1.14827 0.00697023 0)
(1.14861 0.00563181 0)
(1.1486 0.00433745 -2.76387e-29)
(1.14844 0.00307589 2.76387e-29)
(1.14826 0.00183646 0)
(1.14815 0.000610489 0)
(0.896507 0.0253942 5.10322e-31)
(0.936953 0.0256248 -5.09668e-31)
(0.974979 0.025264 0)
(1.00957 0.0244146 0)
(1.04008 0.0231878 0)
(1.06617 0.0216924 0)
(1.08781 0.0200268 9.8432e-30)
(1.1052 0.0182747 -9.83371e-30)
(1.11872 0.0165014 0)
(1.12886 0.0147541 0)
(1.13616 0.0130629 0)
(1.14117 0.0114435 0)
(1.14439 0.00990073 -4.05714e-13)
(1.1463 0.00843143 4.05671e-13)
(1.14728 0.00702766 0)
(1.14765 0.00567896 0)
(1.14767 0.00437409 1.89401e-13)
(1.14753 0.0031021 -1.89403e-13)
(1.14737 0.00185289 8.58047e-30)
(1.14726 0.000616381 -8.63543e-30)
(0.837209 0.0410454 -2.60777e-20)
(0.837434 0.0404549 4.53544e-20)
(0.837669 0.0398764 -2.91055e-20)
(0.837913 0.0393099 3.2037e-20)
(0.838167 0.0387553 -4.77593e-20)
(0.83843 0.0382126 1.27898e-20)
(0.838701 0.0376816 3.42242e-20)
(0.838981 0.0371624 -4.43138e-20)
(0.839269 0.0366548 1.04878e-20)
(0.839565 0.0361587 -8.47299e-21)
(0.839869 0.0356741 -1.12303e-21)
(0.840181 0.0352007 1.31473e-20)
(0.8405 0.0347386 4.27887e-21)
(0.840827 0.0342876 -7.90575e-21)
(0.841161 0.0338476 -5.68454e-21)
(0.841502 0.0334184 1.19964e-20)
(0.84185 0.033 -5.48011e-21)
(0.842205 0.0325922 3.94174e-21)
(0.842567 0.0321949 -2.62528e-21)
(0.842935 0.0318079 2.03468e-21)
(0.843311 0.0314312 7.21079e-21)
(0.843693 0.0310646 -1.10008e-20)
(0.844083 0.030708 -5.09181e-21)
(0.844478 0.0303613 7.80986e-21)
(0.844881 0.0300243 -3.15788e-21)
(0.84529 0.029697 1.61332e-21)
(0.845707 0.0293791 7.0398e-22)
(0.846129 0.0290706 -5.97627e-21)
(0.846559 0.0287714 5.76349e-21)
(0.846996 0.0284813 -4.20667e-22)
(0.847439 0.0282002 1.4875e-21)
(0.84789 0.0279279 1.81021e-22)
(0.848347 0.0276644 -2.26345e-21)
(0.848812 0.0274095 -6.95859e-22)
(0.849284 0.0271631 1.39762e-21)
(0.849764 0.026925 7.43416e-22)
(0.850251 0.026695 -6.18711e-22)
(0.850746 0.0264731 2.5028e-22)
(0.851249 0.026259 1.48406e-22)
(0.851761 0.0260527 -1.95606e-23)
(0.85228 0.0258538 8.07016e-23)
(0.852809 0.0256624 -1.60008e-22)
(0.853347 0.0254781 -1.70883e-22)
(0.853895 0.0253009 2.80177e-22)
(0.854453 0.0251306 -9.12669e-23)
(0.855021 0.0249674 -3.99328e-24)
(0.855594 0.0248103 3.26896e-23)
(0.856213 0.0246549 1.83353e-25)
(0.857056 0.0245262 -1.41237e-25)
(0.777901 0.0395763 -1.14392e-20)
(0.778779 0.0389966 -1.02057e-21)
(0.779654 0.0384287 2.21361e-20)
(0.780528 0.0378725 -1.34758e-20)
(0.7814 0.037328 4.57755e-21)
(0.782269 0.0367951 2.83229e-20)
(0.783137 0.0362738 -1.59424e-20)
(0.784003 0.0357638 -1.93329e-20)
(0.784867 0.0352651 1.93728e-20)
(0.785728 0.0347776 -1.89722e-20)
(0.786588 0.0343011 8.07664e-21)
(0.787446 0.0338356 1.39874e-20)
(0.788303 0.0333809 -1.76662e-22)
(0.789157 0.0329369 -1.10727e-20)
(0.79001 0.0325034 1.17759e-20)
(0.790862 0.0320804 -4.45605e-21)
(0.791712 0.0316676 -5.5098e-21)
(0.79256 0.0312651 -6.20124e-22)
(0.793408 0.0308726 -4.60055e-21)
(0.794254 0.03049 3.4487e-21)
(0.795099 0.0301171 7.44234e-22)
(0.795944 0.0297539 2.44562e-21)
(0.796788 0.0294003 -7.56375e-22)
(0.797631 0.029056 6.17961e-21)
(0.798474 0.0287209 -5.62789e-21)
(0.799316 0.028395 -3.95784e-21)
(0.800159 0.0280781 9.48266e-21)
(0.801002 0.02777 -4.76539e-21)
(0.801844 0.0274706 -6.07678e-22)
(0.802688 0.0271799 1.24666e-22)
(0.803532 0.0268976 1.50917e-22)
(0.804377 0.0266236 -5.23394e-22)
(0.805223 0.0263577 -1.79414e-23)
(0.80607 0.0260999 -6.82772e-22)
(0.806919 0.0258498 1.81596e-21)
(0.807769 0.0256075 -9.88062e-22)
(0.808622 0.0253726 -1.49214e-21)
(0.809477 0.0251451 6.70067e-22)
(0.810335 0.0249246 2.66172e-22)
(0.811195 0.024711 -4.47799e-22)
(0.812059 0.0245039 3.39374e-22)
(0.812927 0.0243032 -9.12891e-23)
(0.813799 0.0241086 -1.60031e-22)
(0.814677 0.0239198 2.90207e-22)
(0.81556 0.0237364 -3.30855e-23)
(0.816447 0.0235585 -2.33514e-23)
(0.817332 0.0233845 2.66041e-24)
(0.818283 0.0232099 1.57399e-24)
(0.819549 0.0230675 1.7949e-24)
(0.716094 0.0374322 -2.58614e-20)
(0.71771 0.0368685 -7.46897e-21)
(0.71931 0.0363162 1.72248e-20)
(0.720895 0.0357753 -1.31207e-20)