/*--------------------------------*- C++ -*----------------------------------*\
  =========                 |
  \\      /  F ield         | OpenFOAM: The Open Source CFD Toolbox
   \\    /   O peration     | Website:  https://openfoam.org
    \\  /    A nd           | Version:  7
     \\/     M anipulation  |
\*---------------------------------------------------------------------------*/
FoamFile
{
    version     2.0;
    format      ascii;
    class       volScalarField;
    location    "80.001";
    object      p;
}
// * * * * * * * * * * * * * * * * * * * * * * * * * * * * * * * * * * * * * //

dimensions      [0 2 -2 0 0 0 0];

internalField   nonuniform List<scalar> 
3700
(
0.667892
0.640925
0.620768
0.5914
0.559422
0.526585
0.494422
0.463639
0.434644
0.4076
0.38254
0.359416
0.338175
0.31875
0.300982
0.663307
0.636794
0.617184
0.588312
0.556747
0.524257
0.492386
0.46185
0.433066
0.406201
0.381294
0.3583
0.337163
0.317838
0.300206
0.654174
0.628561
0.610039
0.582151
0.55141
0.51961
0.488321
0.458277
0.42991
0.403403
0.378803
0.356067
0.335139
0.316012
0.29865
0.640569
0.61629
0.599385
0.572962
0.543446
0.512675
0.482252
0.452941
0.425197
0.399223
0.375081
0.352729
0.332114
0.313282
0.296317
0.622607
0.600077
0.585302
0.560811
0.532912
0.503498
0.474218
0.445875
0.418954
0.393684
0.370147
0.348305
0.328104
0.30966
0.293211
0.60044
0.580051
0.567894
0.545784
0.519879
0.492141
0.464272
0.437124
0.411219
0.386819
0.36403
0.342819
0.323131
0.305162
0.289341
0.574255
0.556369
0.547291
0.527988
0.504439
0.478678
0.452476
0.426741
0.402038
0.378666
0.356762
0.3363
0.317221
0.299809
0.284716
0.544274
0.529216
0.523647
0.507551
0.486696
0.4632
0.438908
0.414791
0.391465
0.369272
0.348384
0.328783
0.310406
0.293626
0.279347
0.510751
0.498808
0.497137
0.484617
0.466773
0.445808
0.423652
0.401347
0.379563
0.358691
0.338941
0.320308
0.30272
0.28664
0.273252
0.473969
0.465385
0.467959
0.459351
0.444806
0.426618
0.406807
0.386492
0.366403
0.346983
0.328485
0.31092
0.294205
0.278885
0.266448
0.434242
0.42921
0.43633
0.431931
0.420946
0.405756
0.388479
0.370315
0.35206
0.334213
0.317072
0.300668
0.284903
0.270394
0.258958
0.391907
0.390572
0.402486
0.402551
0.395355
0.383359
0.368783
0.352916
0.33662
0.320453
0.304765
0.289607
0.274861
0.261207
0.250808
0.347324
0.349777
0.36668
0.37142
0.368206
0.359573
0.347843
0.334399
0.320171
0.30578
0.291629
0.277795
0.264132
0.251366
0.242024
0.300873
0.307149
0.329178
0.338757
0.339683
0.334551
0.32579
0.314874
0.302809
0.290274
0.277735
0.265294
0.25277
0.240912
0.232637
0.252949
0.263029
0.290261
0.30479
0.309977
0.308455
0.302759
0.294458
0.284631
0.27402
0.263156
0.252173
0.240839
0.229893
0.222675
0.20396
0.217769
0.250217
0.269756
0.279286
0.28145
0.27889
0.273271
0.26574
0.257106
0.247965
0.238499
0.228404
0.218356
0.21216
0.15432
0.171732
0.209346
0.233899
0.247811
0.253708
0.254329
0.251434
0.246242
0.23962
0.232239
0.224346
0.215554
0.206374
0.201108
0.104447
0.125288
0.167951
0.197464
0.215758
0.2254
0.22922
0.229072
0.226245
0.221657
0.216051
0.209779
0.202378
0.194023
0.189469
0.0547544
0.078813
0.126338
0.160699
0.183333
0.196701
0.203712
0.20631
0.205855
0.203309
0.199474
0.194841
0.188972
0.181523
0.177225
0.00565578
0.0326726
0.0848142
0.123849
0.150741
0.167784
0.17795
0.183273
0.18518
0.184675
0.182594
0.17958
0.175404
0.169183
0.164117
-0.0424402
-0.012777
0.0436825
0.0871558
0.118184
0.138819
0.152081
0.160084
0.164324
0.165847
0.165496
0.16401
0.161541
0.157239
0.150616
-0.0891387
-0.0571942
0.00324004
0.0508507
0.0858586
0.109975
0.126246
0.136864
0.143389
0.146913
0.148274
0.148247
0.147345
0.145178
0.140018
-0.134046
-0.100263
-0.0362329
0.0151529
0.0539585
0.0814141
0.100585
0.113731
0.122474
0.127954
0.131015
0.132416
0.132929
0.132762
0.12966
-0.17673
-0.141657
-0.0745046
-0.0197331
0.0226719
0.0532942
0.0752295
0.090801
0.101676
0.109049
0.113779
0.116592
0.11837
0.119752
0.118493
-0.216978
-0.180842
-0.111473
-0.0536016
-0.00781656
0.0257636
0.0503074
0.0681819
0.0810903
0.0902727
0.0966146
0.100812
0.103758
0.106338
0.106525
-0.25452
-0.216996
-0.14735
-0.086209
-0.0373333
-0.00103893
0.0259388
0.0459773
0.0608046
0.0716993
0.0795762
0.0851123
0.0891749
0.0927905
0.0941713
-0.289155
-0.250619
-0.181177
-0.117239
-0.0657252
-0.0269821
0.0022371
0.024284
0.0409032
0.053403
0.0627254
0.0695394
0.0746775
0.0792519
0.0817317
-0.320686
-0.281657
-0.212449
-0.146626
-0.0928495
-0.0519416
-0.0206924
0.0031917
0.0214645
0.035454
0.0461254
0.0541459
0.0603068
0.0657717
0.0692999
-0.348933
-0.309807
-0.241243
-0.174179
-0.118566
-0.0758009
-0.0427545
-0.0172172
0.00256075
0.0179171
0.0298352
0.0389826
0.0461029
0.052385
0.0568991
-0.373767
-0.334834
-0.267531
-0.199793
-0.142784
-0.0984493
-0.063862
-0.0368687
-0.0157426
0.000850664
0.0139078
0.024097
0.0321077
0.039135
0.0445675
-0.395121
-0.356606
-0.291192
-0.223375
-0.165534
-0.119724
-0.0839381
-0.0556953
-0.0333866
-0.0156933
-0.00160917
0.00953342
0.0183626
0.0260657
0.0323563
-0.412977
-0.375056
-0.312113
-0.244815
-0.186564
-0.139829
-0.102861
-0.0736397
-0.0503196
-0.0316686
-0.016674
-0.00466748
0.0049067
0.0132132
0.0203101
-0.427364
-0.390169
-0.330223
-0.264045
-0.205801
-0.158538
-0.120768
-0.0906507
-0.0664994
-0.0470344
-0.0312504
-0.0184698
-0.00822229
0.000603029
0.00845957
-0.438357
-0.401977
-0.345493
-0.281034
-0.22324
-0.175781
-0.137529
-0.106763
-0.0819218
-0.0617524
-0.045308
-0.0318457
-0.0209879
-0.0117421
-0.00318027
-0.446075
-0.410569
-0.357935
-0.295765
-0.238881
-0.191556
-0.153086
-0.121912
-0.0965598
-0.0758392
-0.0588193
-0.0447799
-0.0333613
-0.0237803
-0.0146311
-0.450683
-0.416089
-0.367596
-0.308243
-0.252724
-0.205874
-0.167437
-0.136063
-0.110378
-0.0892501
-0.0717834
-0.0572823
-0.0453451
-0.0354158
-0.02598
-0.452384
-0.418734
-0.374564
-0.318491
-0.264778
-0.218747
-0.180596
-0.14922
-0.123365
-0.101967
-0.0841736
-0.0693064
-0.0569393
-0.0466526
-0.0373103
-0.451422
-0.418752
-0.378968
-0.32656
-0.275068
-0.230194
-0.192579
-0.161394
-0.135527
-0.113988
-0.0959764
-0.0808356
-0.068134
-0.0575346
-0.0481066
-0.448072
-0.416437
-0.380966
-0.332524
-0.28364
-0.240244
-0.203411
-0.172606
-0.146878
-0.125323
-0.107194
-0.0918675
-0.0789132
-0.0680296
-0.0583397
-0.442635
-0.412128
-0.380747
-0.336481
-0.290555
-0.248942
-0.213124
-0.182879
-0.157436
-0.135984
-0.117835
-0.102405
-0.0892668
-0.0781428
-0.0681701
-0.435434
-0.406177
-0.378534
-0.338561
-0.295889
-0.25634
-0.221759
-0.192246
-0.167224
-0.145988
-0.127912
-0.112456
-0.0992014
-0.0879056
-0.0777242
-0.426802
-0.398939
-0.374595
-0.338921
-0.299734
-0.262501
-0.229364
-0.200745
-0.176272
-0.155357
-0.137443
-0.122037
-0.108734
-0.09734
-0.0870568
-0.417076
-0.390747
-0.369227
-0.337744
-0.302195
-0.267494
-0.235994
-0.208419
-0.184615
-0.16412
-0.146451
-0.131166
-0.11788
-0.10645
-0.0961631
-0.406583
-0.381911
-0.362756
-0.335236
-0.303387
-0.271394
-0.241706
-0.215318
-0.192292
-0.172307
-0.15496
-0.139865
-0.126657
-0.115235
-0.105013
-0.395632
-0.372701
-0.355517
-0.331618
-0.303438
-0.274281
-0.246561
-0.22149
-0.199347
-0.179954
-0.162997
-0.148154
-0.13508
-0.123697
-0.113589
-0.384502
-0.363352
-0.34783
-0.327126
-0.302487
-0.27624
-0.250618
-0.226987
-0.205822
-0.187098
-0.170594
-0.156056
-0.143167
-0.131851
-0.12189
-0.373434
-0.354066
-0.339984
-0.322003
-0.300685
-0.277358
-0.253937
-0.231856
-0.211761
-0.193777
-0.177783
-0.163596
-0.150939
-0.139716
-0.129929
-0.362626
-0.345009
-0.332214
-0.316493
-0.298192
-0.277727
-0.256577
-0.236144
-0.217205
-0.200029
-0.184598
-0.170803
-0.158422
-0.147317
-0.137722
-0.352232
-0.336319
-0.324694
-0.310831
-0.295176
-0.277444
-0.258593
-0.239892
-0.222193
-0.20589
-0.191072
-0.177705
-0.165638
-0.154675
-0.145285
-0.342365
-0.328101
-0.317543
-0.305224
-0.291811
-0.276611
-0.260043
-0.243138
-0.226756
-0.211393
-0.197239
-0.184332
-0.172615
-0.161816
-0.152637
-0.333102
-0.320428
-0.310837
-0.299836
-0.288269
-0.275339
-0.260982
-0.245914
-0.230922
-0.216566
-0.20313
-0.190716
-0.179378
-0.168765
-0.159796
-0.324493
-0.31334
-0.304625
-0.294776
-0.284711
-0.273747
-0.261472
-0.248246
-0.23471
-0.221428
-0.208769
-0.196883
-0.185953
-0.175547
-0.166785
-0.316561
-0.30685
-0.298933
-0.290103
-0.28127
-0.271955
-0.261581
-0.250163
-0.23813
-0.225993
-0.214175
-0.20286
-0.192368
-0.18219
-0.173626
-0.309309
-0.300948
-0.29377
-0.285844
-0.278045
-0.270085
-0.261387
-0.251693
-0.241186
-0.23026
-0.219358
-0.208665
-0.198645
-0.188724
-0.180343
-0.302729
-0.295612
-0.289128
-0.282003
-0.275091
-0.268243
-0.260974
-0.252872
-0.243881
-0.234221
-0.224312
-0.214308
-0.204808
-0.19517
-0.186976
-0.296798
-0.290809
-0.284983
-0.278578
-0.272435
-0.266507
-0.260431
-0.253748
-0.246217
-0.237855
-0.22902
-0.219784
-0.210868
-0.201569
-0.193541
-0.291483
-0.286501
-0.281301
-0.275553
-0.270084
-0.264931
-0.259838
-0.254379
-0.248205
-0.241141
-0.233446
-0.225072
-0.216828
-0.207927
-0.200153
-0.286745
-0.282648
-0.278043
-0.272907
-0.268036
-0.263543
-0.25926
-0.254827
-0.249868
-0.244057
-0.237547
-0.23012
-0.222674
-0.214272
-0.20682
-0.282537
-0.279208
-0.275164
-0.270606
-0.26628
-0.262356
-0.258744
-0.255155
-0.251239
-0.246596
-0.241261
-0.234879
-0.228325
-0.2206
-0.213827
-0.278804
-0.276137
-0.272621
-0.268614
-0.264795
-0.261373
-0.258319
-0.255417
-0.252365
-0.248764
-0.244542
-0.239248
-0.233743
-0.226769
-0.221058
-0.275482
-0.273397
-0.270368
-0.266887
-0.26355
-0.260584
-0.258003
-0.255656
-0.253298
-0.250589
-0.247346
-0.243196
-0.23859
-0.233173
-0.227664
-0.272518
-0.270939
-0.268359
-0.265381
-0.262508
-0.259966
-0.257797
-0.255903
-0.254088
-0.252113
-0.249655
-0.246717
-0.242705
-0.239345
-0.233285
-0.269865
-0.268711
-0.266552
-0.264052
-0.261624
-0.259486
-0.257688
-0.256171
-0.254779
-0.253391
-0.251494
-0.249797
-0.245937
-0.244648
-0.238024
-0.267462
-0.266674
-0.264903
-0.262856
-0.260854
-0.259102
-0.257649
-0.256458
-0.2554
-0.254474
-0.252932
-0.252437
-0.24825
-0.249208
-0.241778
-0.265254
-0.264797
-0.263376
-0.261753
-0.260155
-0.258771
-0.257643
-0.256744
-0.255961
-0.255398
-0.254071
-0.254645
-0.249794
-0.253275
-0.244398
-0.263195
-0.26303
-0.261951
-0.260709
-0.25949
-0.258452
-0.257629
-0.256997
-0.256459
-0.256172
-0.255017
-0.256388
-0.250905
-0.256775
-0.245923
-0.261248
-0.261363
-0.260591
-0.259699
-0.258828
-0.258111
-0.257572
-0.257185
-0.256872
-0.256789
-0.255844
-0.257621
-0.251958
-0.259365
-0.246752
-0.259387
-0.259776
-0.259277
-0.258704
-0.258147
-0.257722
-0.257443
-0.25728
-0.257175
-0.257243
-0.256562
-0.258361
-0.253138
-0.26081
-0.247517
-0.257593
-0.258255
-0.258001
-0.25771
-0.257435
-0.25727
-0.257223
-0.257262
-0.257342
-0.25753
-0.257132
-0.258707
-0.254378
-0.261232
-0.248632
-0.255861
-0.256796
-0.256758
-0.256718
-0.256687
-0.25675
-0.256905
-0.257121
-0.25736
-0.25765
-0.257507
-0.258777
-0.255482
-0.260993
-0.25005
-0.254191
-0.2554
-0.255553
-0.25573
-0.25591
-0.256166
-0.256494
-0.256859
-0.257231
-0.25761
-0.257656
-0.258675
-0.256277
-0.260442
-0.251466
-0.252593
-0.254075
-0.254395
-0.254758
-0.255116
-0.255534
-0.256005
-0.256494
-0.256972
-0.257416
-0.257593
-0.258452
-0.256677
-0.259815
-0.252619
-0.251085
-0.252834
-0.253298
-0.253819
-0.254324
-0.254876
-0.255462
-0.256049
-0.256607
-0.257099
-0.257415
-0.258031
-0.256757
-0.259233
-0.253368
-0.249688
-0.251692
-0.252279
-0.252934
-0.25356
-0.254217
-0.254895
-0.255558
-0.256173
-0.256701
-0.25709
-0.2575
-0.256867
-0.258299
-0.253915
-0.248428
-0.25067
-0.251361
-0.252126
-0.252848
-0.25359
-0.254337
-0.255056
-0.25571
-0.256262
-0.256676
-0.256979
-0.256722
-0.257338
-0.254703
-0.247333
-0.249787
-0.250565
-0.251418
-0.252217
-0.253024
-0.253824
-0.254583
-0.255262
-0.255824
-0.256238
-0.256485
-0.256391
-0.256547
-0.255034
-0.246428
-0.249065
-0.249913
-0.250836
-0.251694
-0.252549
-0.253389
-0.254175
-0.254868
-0.25543
-0.255829
-0.256036
-0.255989
-0.255905
-0.255006
-0.245739
-0.248522
-0.249423
-0.2504
-0.251301
-0.252193
-0.253061
-0.253865
-0.254564
-0.255118
-0.255493
-0.255659
-0.255594
-0.255371
-0.254753
-0.245284
-0.248173
-0.249112
-0.250127
-0.25106
-0.251978
-0.252865
-0.25368
-0.254379
-0.25492
-0.255265
-0.255382
-0.255262
-0.254927
-0.254365
-0.24508
-0.248031
-0.248992
-0.25003
-0.250984
-0.251919
-0.252819
-0.25364
-0.254336
-0.25486
-0.25517
-0.255231
-0.25503
-0.254571
-0.253915
0.278045
0.255461
0.236173
0.221434
0.208605
0.198698
0.189953
0.183144
0.177061
0.1723
0.168047
0.164754
0.161824
0.15958
0.157617
0.156167
0.154954
0.15414
0.153545
0.15332
0.277481
0.255075
0.235878
0.221222
0.208436
0.198571
0.189847
0.18306
0.176991
0.172244
0.167997
0.164709
0.161784
0.159543
0.157583
0.156135
0.154924
0.154111
0.153517
0.153293
0.276351
0.254303
0.23529
0.220798
0.208099
0.198317
0.189637
0.182896
0.176854
0.17213
0.167895
0.164621
0.161704
0.159471
0.157517
0.156073
0.154866
0.154056
0.153463
0.153239
0.274652
0.253145
0.234407
0.220164
0.207595
0.197937
0.189323
0.182649
0.176649
0.17196
0.167744
0.164489
0.161585
0.159364
0.157418
0.155981
0.154779
0.153972
0.153383
0.153159
0.272383
0.251603
0.233233
0.219322
0.206925
0.197433
0.188906
0.18232
0.176375
0.171732
0.167545
0.164315
0.161428
0.159221
0.157287
0.155859
0.154664
0.153862
0.153276
0.153053
0.269544
0.249679
0.231768
0.218273
0.206091
0.196806
0.188389
0.18191
0.176035
0.171456
0.167298
0.164097
0.161234
0.159044
0.157124
0.155707
0.154521
0.153725
0.153144
0.152922
0.266135
0.247375
0.230017
0.217021
0.205098
0.196057
0.187773
0.181421
0.175623
0.171102
0.167001
0.163839
0.161002
0.158834
0.15693
0.155526
0.154351
0.153563
0.152986
0.152765
0.262159
0.244694
0.227983
0.215569
0.203947
0.195188
0.18706
0.180851
0.175141
0.170737
0.166679
0.163542
0.160734
0.15859
0.156706
0.155316
0.154154
0.153374
0.152804
0.152583
0.257617
0.241641
0.225669
0.213919
0.202643
0.194202
0.186254
0.180205
0.174592
0.17028
0.166275
0.163205
0.160432
0.158314
0.156453
0.155079
0.153931
0.15316
0.152597
0.152378
0.252517
0.238219
0.22308
0.212073
0.20119
0.1931
0.185358
0.179485
0.173984
0.169769
0.1659
0.162843
0.160096
0.158007
0.15617
0.154815
0.153683
0.152922
0.152366
0.152149
0.246865
0.234432
0.220221
0.210033
0.199591
0.191884
0.184373
0.178692
0.173318
0.169203
0.165405
0.16243
0.159726
0.15767
0.155861
0.154525
0.15341
0.152661
0.152113
0.151897
0.240671
0.230284
0.2171
0.207803
0.197853
0.190557
0.183304
0.177827
0.172597
0.168595
0.164892
0.161975
0.159326
0.157304
0.155524
0.15421
0.153113
0.152376
0.151838
0.151624
0.233947
0.225779
0.213723
0.205383
0.195979
0.18912
0.182152
0.176894
0.171821
0.167935
0.16432
0.161483
0.158889
0.156911
0.155163
0.153871
0.152794
0.15207
0.151541
0.151329
0.226708
0.220918
0.2101
0.202775
0.193975
0.187577
0.180922
0.175893
0.170992
0.167228
0.163705
0.160977
0.15845
0.156497
0.154777
0.153509
0.152453
0.151743
0.151224
0.151014
0.218968
0.215701
0.206239
0.199981
0.191844
0.18593
0.179614
0.174828
0.170112
0.166478
0.163054
0.160392
0.157968
0.15605
0.15437
0.153125
0.152092
0.151396
0.150887
0.15068
0.210749
0.210126
0.202151
0.197005
0.189593
0.184184
0.178234
0.173701
0.169182
0.165687
0.162372
0.159792
0.157429
0.155591
0.153923
0.152722
0.151711
0.151029
0.150531
0.150328
0.202063
0.204183
0.197843
0.193848
0.187222
0.18234
0.17678
0.172515
0.168204
0.164854
0.161656
0.159161
0.156865
0.155087
0.153522
0.152302
0.151311
0.150645
0.150158
0.149958
0.192949
0.197878
0.19333
0.190513
0.184732
0.180399
0.175253
0.171268
0.167176
0.163981
0.160907
0.158502
0.156278
0.15455
0.15302
0.151876
0.150897
0.150245
0.149769
0.149573
0.183394
0.191234
0.188638
0.187063
0.182168
0.178413
0.173693
0.17
0.166131
0.163093
0.160143
0.15783
0.155681
0.15401
0.152522
0.15141
0.150478
0.149833
0.149363
0.149172
0.172929
0.183768
0.183503
0.183298
0.1794
0.176287
0.172019
0.168646
0.165009
0.162143
0.159324
0.157111
0.155042
0.153433
0.151996
0.150919
0.150016
0.149398
0.148945
0.148758
0.157767
0.171535
0.175144
0.176179
0.174101
0.171836
0.168594
0.165763
0.162723
0.160195
0.157735
0.155735
0.153886
0.152414
0.151115
0.150121
0.149297
0.148724
0.148315
0.148148
0.145883
0.157938
0.16459
0.167168
0.167035
0.165943
0.163876
0.16183
0.159517
0.157502
0.155497
0.153828
0.152267
0.151008
0.14989
0.149027
0.148308
0.147805
0.147448
0.147308
0.135007
0.146782
0.154838
0.158667
0.160124
0.160113
0.159126
0.157838
0.156229
0.154723
0.153175
0.151842
0.150577
0.149538
0.148606
0.147881
0.147273
0.146843
0.14654
0.146422
0.124921
0.136994
0.145884
0.150742
0.153477
0.154439
0.154437
0.15386
0.152927
0.15191
0.150813
0.14981
0.148842
0.148021
0.14728
0.146692
0.146197
0.145844
0.145597
0.145499
0.115834
0.128207
0.13768
0.14341
0.147155
0.148988
0.149854
0.149943
0.149641
0.149096
0.148433
0.147754
0.147078
0.146473
0.145922
0.145471
0.145091
0.144815
0.144623
0.144545
0.107775
0.120296
0.130176
0.136635
0.141183
0.143787
0.145408
0.146119
0.146394
0.146303
0.146052
0.14569
0.145297
0.144907
0.144542
0.144228
0.143962
0.143762
0.143626
0.143568
0.10065
0.113191
0.123337
0.130376
0.13557
0.13885
0.141124
0.142408
0.14321
0.14355
0.143686
0.143633
0.143511
0.143332
0.14315
0.142971
0.142817
0.142694
0.142612
0.142573
0.0943275
0.106812
0.117119
0.124603
0.130319
0.134182
0.137021
0.138827
0.140106
0.140853
0.141352
0.141594
0.141733
0.14176
0.141753
0.141708
0.141663
0.141616
0.141586
0.141568
0.0887015
0.101079
0.111473
0.119289
0.125426
0.129785
0.133115
0.13539
0.1371
0.138227
0.139062
0.139588
0.139972
0.140199
0.140361
0.140447
0.140508
0.140535
0.140556
0.140558
0.0836902
0.0959237
0.106348
0.114407
0.12088
0.125658
0.129411
0.132107
0.134205
0.135683
0.13683
0.137624
0.13824
0.138659
0.138983
0.139195
0.139358
0.139458
0.139528
0.13955
0.0792256
0.0912882
0.101697
0.109928
0.116669
0.121798
0.125917
0.128985
0.131431
0.133231
0.134665
0.135711
0.136546
0.137148
0.137625
0.13796
0.13822
0.138391
0.138507
0.13855
0.0752481
0.0871212
0.0974788
0.105827
0.112779
0.1182
0.122632
0.126028
0.128787
0.13088
0.132579
0.13386
0.134898
0.135673
0.136296
0.136749
0.137102
0.13734
0.137501
0.137563
0.0717046
0.0833771
0.0936563
0.102078
0.109193
0.114855
0.119556
0.123241
0.126277
0.128637
0.130577
0.132076
0.133304
0.134243
0.135002
0.135567
0.136008
0.13631
0.136513
0.136595
0.0685484
0.0800151
0.0901963
0.0986581
0.105896
0.111758
0.116687
0.120623
0.123907
0.126507
0.128667
0.130367
0.131771
0.132862
0.13375
0.13442
0.134944
0.135308
0.135551
0.135652
0.0657383
0.0769989
0.0870688
0.0955443
0.102873
0.108898
0.114021
0.118176
0.121678
0.124495
0.126854
0.128738
0.130304
0.131538
0.132546
0.133315
0.133917
0.134338
0.134619
0.134738
0.0632384
0.0742963
0.0842469
0.0927162
0.100109
0.106267
0.111553
0.115899
0.119593
0.122603
0.125143
0.127195
0.12891
0.130275
0.131394
0.132256
0.13293
0.133406
0.133722
0.133859
0.0610174
0.0718788
0.0817066
0.090155
0.0975911
0.103856
0.10928
0.11379
0.117653
0.120835
0.123537
0.125742
0.127592
0.129078
0.1303
0.131247
0.13199
0.132516
0.132864
0.133018
0.0590478
0.0697215
0.0794263
0.0878433
0.0953056
0.101656
0.107194
0.111846
0.115857
0.119192
0.122039
0.124381
0.126355
0.127952
0.129267
0.130294
0.131099
0.131672
0.132051
0.132219
0.0573058
0.0678023
0.0773868
0.0857653
0.0932409
0.0996591
0.105293
0.110066
0.114205
0.117676
0.120651
0.123117
0.125203
0.1269
0.128301
0.1294
0.130262
0.130878
0.131285
0.131467
0.0557707
0.066102
0.075571
0.0839069
0.0913859
0.0978575
0.10357
0.108447
0.112697
0.116286
0.119375
0.121952
0.124138
0.125926
0.127404
0.128569
0.129483
0.130138
0.13057
0.130766
0.0544248
0.0646038
0.073964
0.0822555
0.0897306
0.0962436
0.10202
0.106986
0.111332
0.115024
0.118213
0.120888
0.123162
0.125031
0.126579
0.127804
0.128764
0.129455
0.12991
0.130118
0.0532527
0.0632932
0.0725526
0.0807997
0.0882661
0.0948107
0.10064
0.10568
0.110107
0.113889
0.117166
0.119926
0.122279
0.12422
0.12583
0.127108
0.12811
0.128832
0.129308
0.129526
0.0522411
0.0621576
0.0713252
0.0795296
0.0869841
0.0935525
0.0994238
0.104526
0.109023
0.112881
0.116234
0.119069
0.12149
0.123494
0.125158
0.126482
0.127521
0.128272
0.128766
0.128994
0.051379
0.0611863
0.0702719
0.0784365
0.0858777
0.0924637
0.0983688
0.103523
0.108077
0.112001
0.115417
0.118316
0.120796
0.122855
0.124566
0.125931
0.127002
0.127777
0.128287
0.128523
0.0506571
0.0603701
0.0693844
0.0775132
0.0849406
0.0915395
0.0974711
0.102667
0.107269
0.111247
0.114717
0.11767
0.120199
0.122304
0.124055
0.125454
0.126553
0.127349
0.127872
0.128115
0.0500675
0.0597016
0.0686554
0.0767532
0.0841676
0.0907756
0.0967277
0.101958
0.106598
0.110619
0.114133
0.117131
0.119701
0.121843
0.123627
0.125055
0.126176
0.126989
0.127524
0.127773
0.0496041
0.0591746
0.0680791
0.0761514
0.0835544
0.0901687
0.096136
0.101392
0.106062
0.110118
0.113666
0.116698
0.119301
0.121474
0.123284
0.124734
0.125873
0.1267
0.127243
0.127497
0.0492618
0.0587842
0.0676511
0.0757038
0.0830975
0.0897159
0.0956941
0.100969
0.105661
0.109742
0.113316
0.116374
0.119
0.121196
0.123025
0.124493
0.125645
0.126482
0.127032
0.12729
0.0490369
0.058527
0.0673676
0.0754073
0.0827941
0.0894153
0.0954002
0.100687
0.105394
0.109492
0.113082
0.116157
0.1188
0.12101
0.122852
0.124331
0.125492
0.126337
0.126891
0.127151
0.0489259
0.0584005
0.0672259
0.0752603
0.0826423
0.0892658
0.0952531
0.100547
0.10526
0.109367
0.112965
0.116049
0.118699
0.120917
0.122766
0.12425
0.125416
0.126264
0.12682
0.127081
0.143055
0.133929
0.124245
0.114876
0.106277
0.0985313
0.0916057
0.0854359
0.0799543
0.0750924
0.0707837
0.0669664
0.0635848
0.0605895
0.0579372
0.05559
0.053515
0.0516835
0.0500707
0.0486551
0.0474182
0.0463443
0.0454198
0.0446333
0.0439754
0.0434382
0.0430156
0.0427025
0.0424958
0.0423977
0.132796
0.123125
0.114007
0.10542
0.0976318
0.0906267
0.084352
0.0787551
0.0737819
0.0693721
0.0654651
0.0620037
0.0589367
0.0562191
0.0538113
0.0516791
0.0497923
0.0481253
0.0466555
0.0453635
0.0442327
0.0432487
0.0423995
0.0416746
0.0410655
0.0405653
0.0401683
0.0398699
0.0396678
0.039569
0.12096
0.109871
0.100919
0.0929758
0.0860834
0.0800267
0.0746781
0.0699475
0.0657642
0.0620638
0.0587875
0.0558836
0.0533071
0.0510192
0.0489868
0.0471815
0.0455787
0.0441574
0.0428995
0.0417894
0.0408137
0.0399609
0.0392213
0.0385865
0.0380498
0.0376054
0.037249
0.0369769
0.0367864
0.0366877
0.110318
0.099252
0.0907344
0.0832077
0.076848
0.0713682
0.0666159
0.0624706
0.0588407
0.0556507
0.0528386
0.0503529
0.0481507
0.0461963
0.0444598
0.0429157
0.0415429
0.040323
0.0392408
0.038283
0.0374384
0.0366974
0.036052
0.0354952
0.0350214
0.0346259
0.0343053
0.0340564
0.0338754
0.0337719
0.0995383
0.0895759
0.0822228
0.0754067
0.069615
0.0645924
0.0602474
0.0564759
0.053191
0.0503184
0.0477971
0.0455769
0.0436164
0.0418814
0.0403432
0.0389778
0.0377653
0.0366887
0.0357336
0.0348879
0.0341413
0.0334852
0.0329121
0.032416
0.0319915
0.0316345
0.0313421
0.0311116
0.0309374
0.0308266
0.0881654
0.0792718
0.0732277
0.0673719
0.0623888
0.057986
0.0541404
0.0507803
0.0478438
0.0452724
0.0430153
0.0410292
0.0392776
0.0377298
0.0363597
0.0351455
0.0340686
0.0331134
0.0322666
0.0315169
0.0308549
0.0302724
0.0297626
0.0293197
0.028939
0.0286165
0.0283494
0.0281357
0.0279688
0.0278514
0.0766819
0.0686591
0.0636126
0.0586049
0.0544558
0.0507628
0.0475264
0.0446795
0.0421768
0.0399748
0.0380352
0.0363244
0.0348129
0.0334757
0.0322911
0.0312408
0.0303088
0.0294818
0.0287482
0.0280982
0.0275233
0.0270165
0.0265716
0.0261836
0.025848
0.0255614
0.025321
0.0251256
0.0249682
0.0248465
0.0653357
0.0582482
0.054027
0.0497083
0.0462653
0.0432154
0.0405719
0.0382519
0.0362121
0.034414
0.0328264
0.0314224
0.0301792
0.0290768
0.0280983
0.0272289
0.026456
0.0257688
0.025158
0.0246154
0.0241342
0.0237084
0.0233329
0.0230035
0.0227165
0.0224686
0.0222577
0.0220828
0.0219376
0.0218144
0.054081
0.0480489
0.0446868
0.0410554
0.0382534
0.0357704
0.0336533
0.0318114
0.0302029
0.0287905
0.0275459
0.0264458
0.0254713
0.0246064
0.0238376
0.0231533
0.0225437
0.0220005
0.0215162
0.0210845
0.0207002
0.0203583
0.020055
0.0197867
0.0195504
0.0193436
0.019164
0.0190117
0.0188809
0.0187586
0.0428804
0.0379283
0.0354672
0.0325899
0.0304511
0.028526
0.0269054
0.0255038
0.0242904
0.0232324
0.0223055
0.0214897
0.0207691
0.0201306
0.0195633
0.0190584
0.0186081
0.018206
0.0178465
0.0175248
0.0172369
0.016979
0.0167481
0.0165415
0.0163569
0.0161921
0.0160453
0.0159168
0.0158022
0.015683
0.0317719
0.0278634
0.0262839
0.0241852
0.0227335
0.0213855
0.0202663
0.0192981
0.0184656
0.0177453
0.0171193
0.0165724
0.0160923
0.0156689
0.0152941
0.014961
0.0146641
0.0143987
0.0141606
0.0139464
0.0137531
0.0135781
0.0134191
0.013274
0.0131412
0.013019
0.0129057
0.0128021
0.0127051
0.0125913
0.0207999
0.0178963
0.0171673
0.0158256
0.0150469
0.0142756
0.0136607
0.0131273
0.0126743
0.0122878
0.0119575
0.0116733
0.0114274
0.0112132
0.0110254
0.0108596
0.0107122
0.0105803
0.0104611
0.0103524
0.0102524
0.0101593
0.0100716
0.00998794
0.00990712
0.00982794
0.00974899
0.00967123
0.00959317
0.00948684
0.00997691
0.00805613
0.00816968
0.00755407
0.00741799
0.00720147
0.00707766
0.00697059
0.00689198
0.00683674
0.00679985
0.00677608
0.00676182
0.00675419
0.00675092
0.00675014
0.00675032
0.00675015
0.00674851
0.0067444
0.00673693
0.0067253
0.00670872
0.00668649
0.00665796
0.00662238
0.00657854
0.00652759
0.00646988
0.00637297
-0.000706787
-0.00165085
-0.000684904
-0.000602276
-0.000117548
0.000194792
0.000542473
0.00084439
0.00112748
0.00139665
0.00164837
0.00188121
0.00209561
0.0022921
0.00247129
0.00263375
0.00278001
0.00291046
0.00302542
0.00312514
0.00320976
0.00327935
0.00333389
0.00337328
0.0033974
0.00340599
0.00339803
0.00337476
0.00333878
0.00325305
-0.0112683
-0.0112023
-0.00938996
-0.00863652
-0.00754569
-0.00672697
-0.00592361
-0.00523187
-0.00460319
-0.00401793
-0.00348518
-0.00300171
-0.00256334
-0.00216644
-0.00180773
-0.00148433
-0.00119384
-0.000934193
-0.0007037
-0.000500945
-0.000324775
-0.000174267
-4.87071e-05
5.24065e-05
0.000129456
0.000182705
0.000211341
0.000216377
0.000203552
0.000130554
-0.0217195
-0.0205293
-0.0179518
-0.0165412
-0.0148689
-0.0135625
-0.0123157
-0.0112499
-0.0102897
-0.00939492
-0.00858969
-0.00786266
-0.00720611
-0.00661348
-0.00607896
-0.00559759
-0.00516518
-0.00477816
-0.00443354
-0.00412879
-0.00386182
-0.00363088
-0.00343456
-0.00327176
-0.00314165
-0.00304342
-0.00297754
-0.00294386
-0.00293221
-0.0029908
-0.0320018
-0.0295271
-0.0264036
-0.0242972
-0.0221024
-0.0203163
-0.0186443
-0.0172106
-0.0159239
-0.0147262
-0.013658
-0.0126948
-0.0118262
-0.0110428
-0.0103364
-0.00970029
-0.00912851
-0.00861613
-0.00815896
-0.00775343
-0.00739655
-0.0070858
-0.00681911
-0.00659481
-0.00641162
-0.00626826
-0.00616456
-0.00610197
-0.00606531
-0.00610679
-0.0420383
-0.0384365
-0.0348116
-0.0319925
-0.0293134
-0.0270386
-0.0249685
-0.0231318
-0.021482
-0.0200037
-0.0186835
-0.0174929
-0.0164189
-0.0154499
-0.0145758
-0.0137881
-0.0130795
-0.0124438
-0.0118756
-0.0113706
-0.0109247
-0.0105348
-0.0101982
-0.00991259
-0.00967635
-0.00948782
-0.00934599
-0.00925353
-0.00919346
-0.00921276
-0.051697
-0.0472523
-0.0430957
-0.0396214
-0.036452
-0.0337026
-0.0312353
-0.029025
-0.027041
-0.0252788
-0.0237037
-0.0222846
-0.0210049
-0.0198503
-0.0188087
-0.0178696
-0.0170244
-0.0162654
-0.0155864
-0.0149817
-0.0144468
-0.0139776
-0.0135708
-0.0132237
-0.012934
-0.0126999
-0.0125198
-0.012395
-0.0123154
-0.0123059
-0.0610293
-0.0559168
-0.0512126
-0.0471396
-0.0434824
-0.0402824
-0.0374264
-0.0348715
-0.0325813
-0.0305393
-0.0287099
-0.0270627
-0.0255779
-0.0242384
-0.0230299
-0.0219402
-0.0209589
-0.0200773
-0.0192879
-0.018584
-0.0179603
-0.0174121
-0.0169353
-0.0165267
-0.0161836
-0.0159038
-0.0156854
-0.0155285
-0.0154276
-0.0153959
-0.0701372
-0.0644318
-0.0591539
-0.0545186
-0.0503889
-0.0467652
-0.0435362
-0.0406521
-0.0380682
-0.0357556
-0.0336789
-0.0318082
-0.0301218
-0.0286004
-0.0272274
-0.025989
-0.0248734
-0.0238706
-0.0229718
-0.0221698
-0.0214582
-0.0208316
-0.0202854
-0.0198158
-0.0194197
-0.0190944
-0.0188379
-0.0186495
-0.0185252
-0.0184775
-0.0790887
-0.0728113
-0.066927
-0.0617518
-0.0571725
-0.0531484
-0.0495614
-0.0463571
-0.0434857
-0.0409106
-0.0385946
-0.0365071
-0.0346244
-0.0329251
-0.0313909
-0.0300066
-0.028759
-0.0276368
-0.0266304
-0.0257316
-0.0249332
-0.0242292
-0.0236144
-0.0230845
-0.0226359
-0.0222657
-0.0219715
-0.0217521
-0.0216034
-0.0215405
-0.0878972
-0.0810322
-0.0745435
-0.0688522
-0.0638461
-0.0594381
-0.0555049
-0.0519881
-0.0488345
-0.0460032
-0.0434546
-0.0411563
-0.0390819
-0.0372085
-0.0355164
-0.0339887
-0.0326112
-0.0313715
-0.0302591
-0.0292647
-0.0283807
-0.0276003
-0.0269177
-0.0263283
-0.0258279
-0.0254133
-0.0250819
-0.024832
-0.024659
-0.0245787
-0.0965323
-0.0890869
-0.0820142
-0.0758344
-0.0704205
-0.0656412
-0.0613716
-0.0575498
-0.0541201
-0.051038
-0.048262
-0.0457569
-0.0434946
-0.0414501
-0.0396025
-0.0379336
-0.0364281
-0.0350724
-0.0338553
-0.0327666
-0.031798
-0.0309421
-0.0301926
-0.0295443
-0.0289928
-0.0285344
-0.0281663
-0.0278865
-0.0276895
-0.0275904
-0.104971
-0.0969802
-0.0893489
-0.082705
-0.0768993
-0.0717607
-0.0671642
-0.063045
-0.0593453
-0.0560176
-0.0530181
-0.0503098
-0.0478621
-0.045649
-0.043648
-0.0418397
-0.0402076
-0.0387373
-0.0374166
-0.0362347
-0.0351824
-0.0342519
-0.0334363
-0.0327299
-0.0321279
-0.0316264
-0.0312221
-0.0309131
-0.0306928
-0.0305749
-0.113211
-0.104722
-0.0965542
-0.0894659
-0.0832834
-0.0777985
-0.0728844
-0.0684745
-0.0645101
-0.0609414
-0.0577222
-0.0548134
-0.0521829
-0.0498032
-0.0476505
-0.0457044
-0.0439471
-0.0423634
-0.0409402
-0.0396661
-0.0385311
-0.0375268
-0.0366459
-0.0358822
-0.0352306
-0.0346866
-0.0342469
-0.0339093
-0.0336667
-0.0335306
-0.12126
-0.112321
-0.103633
-0.0961155
-0.0895723
-0.0837551
-0.0785322
-0.0738373
-0.0696132
-0.0658079
-0.0623725
-0.0592659
-0.0564547
-0.0539103
-0.0516076
-0.049525
-0.0476438
-0.0459478
-0.0444232
-0.0430577
-0.041841
-0.0407638
-0.0398185
-0.0389984
-0.038298
-0.0377124
-0.0372381
-0.0368727
-0.0366088
-0.0364554
-0.129127
-0.119784
-0.110587
-0.102656
-0.0957699
-0.0896342
-0.0841092
-0.0791333
-0.0746537
-0.070616
-0.0669674
-0.0636651
-0.0606752
-0.0579679