/*--------------------------------*- C++ -*----------------------------------*\
  =========                 |
  \\      /  F ield         | OpenFOAM: The Open Source CFD Toolbox
   \\    /   O peration     | Website:  https://openfoam.org
    \\  /    A nd           | Version:  7
     \\/     M anipulation  |
\*---------------------------------------------------------------------------*/
FoamFile
{
    version     2.0;
    format      ascii;
    class       volVectorField;
    location    "25";
    object      U;
}
// * * * * * * * * * * * * * * * * * * * * * * * * * * * * * * * * * * * * * //

dimensions      [0 1 -1 0 0 0 0];

internalField   nonuniform List<vector> 
14000
(
(-0.00762224 0.00528655 -5.70172e-22)
(-0.0300532 0.00924313 1.12726e-21)
(-0.0621021 0.0101923 7.27189e-20)
(-0.0918253 0.00994463 1.26735e-20)
(-0.118592 0.00923257 2.46418e-20)
(-0.142242 0.00837549 -1.42505e-20)
(-0.16252 0.00737553 -2.64056e-20)
(-0.17854 0.00588198 2.56328e-20)
(-0.193081 0.00555424 2.51127e-20)
(-0.199135 0.00253275 1.96585e-20)
(-0.00870894 0.0154171 -9.23559e-20)
(-0.0309656 0.0270816 6.10312e-20)
(-0.0613194 0.0299348 -8.30377e-20)
(-0.0887237 0.0292312 4.41277e-21)
(-0.112603 0.0271324 -5.9136e-20)
(-0.132818 0.0245986 7.25239e-21)
(-0.149429 0.0218014 3.7926e-20)
(-0.159624 0.0169727 -1.66828e-19)
(-0.170904 0.0167976 4.11317e-20)
(-0.168054 0.00648158 1.54811e-22)
(-0.0107593 0.024293 1.71721e-19)
(-0.0327457 0.04304 -1.52867e-20)
(-0.0598713 0.0477759 1.15317e-19)
(-0.0827601 0.0467042 -1.07949e-20)
(-0.100949 0.0433148 -1.25972e-19)
(-0.114105 0.0391546 9.29821e-20)
(-0.123812 0.0351389 -3.99605e-20)
(-0.120954 0.0262822 4.01362e-20)
(-0.126749 0.0283336 -1.21817e-19)
(-0.104567 0.00822349 1.73255e-19)
(-0.0135641 0.031307 1.9984e-20)
(-0.0353066 0.05607 -2.72649e-19)
(-0.0579458 0.0625387 -1.62089e-19)
(-0.074319 0.0611527 8.52406e-20)
(-0.0842131 0.056591 1.01317e-19)
(-0.0862633 0.0508583 -1.68466e-19)
(-0.0863672 0.0459273 7.209e-20)
(-0.0612523 0.0334616 4.80025e-20)
(-0.0596579 0.0383466 1.92305e-19)
(-0.00294514 0.0119028 -2.49953e-19)
(-0.0168891 0.0361456 -8.62716e-20)
(-0.038512 0.0654117 1.34099e-19)
(-0.0556876 0.0732087 3.92275e-19)
(-0.0636719 0.0714252 -1.95622e-19)
(-0.0627794 0.0657087 1.81526e-19)
(-0.0493611 0.0588284 3.05772e-19)
(-0.036097 0.0509765 -8.79508e-21)
(0.0203633 0.0395346 8.52931e-21)
(0.0314325 0.0433126 -2.83033e-19)
(0.146545 0.0221751 1.35023e-19)
(-0.0205385 0.0388139 -2.0375e-19)
(-0.0421367 0.070662 1.20595e-19)
(-0.0529883 0.079042 -5.46856e-19)
(-0.0505846 0.0765838 2.66235e-19)
(-0.0356995 0.0694948 3.7336e-20)
(-0.00262924 0.06242 -3.45025e-19)
(0.0317448 0.0491666 -1.01217e-19)
(0.132392 0.0455796 1.01237e-19)
(0.148681 0.0377048 1.91738e-19)
(0.358652 0.0341726 -1.07164e-19)
(-0.0243917 0.0395866 -2.21052e-20)
(-0.0457653 0.071783 -3.78844e-19)
(-0.0491151 0.0796832 3.74674e-19)
(-0.0336569 0.0760772 -2.69432e-19)
(0.000335067 0.0676261 6.68597e-20)
(0.0598748 0.0614802 2.24039e-19)
(0.126555 0.0426986 -4.09969e-19)
(0.280083 0.0518087 -1.71722e-19)
(0.312073 0.0306228 1.4647e-19)
(0.619887 0.0456304 8.61968e-20)
(-0.0283962 0.0388965 2.22495e-19)
(-0.0486327 0.0690544 6.53466e-19)
(-0.0422304 0.075266 -6.30892e-19)
(-0.00909454 0.0701033 1.545e-19)
(0.0521357 0.0609331 3.86882e-19)
(0.148566 0.0565781 -1.97136e-19)
(0.266449 0.0400108 -6.31614e-20)
(0.461256 0.055953 -2.33801e-19)
(0.546824 0.0394683 2.77269e-19)
(0.880751 0.0663502 -1.96337e-19)
(-0.0324577 0.0371406 -4.07847e-19)
(-0.0494496 0.0630151 1.12621e-19)
(-0.0288747 0.0664642 2.35951e-19)
(0.0300184 0.0599498 -1.1731e-19)
(0.131114 0.0522587 -3.97174e-19)
(0.277389 0.0511944 4.70977e-19)
(0.458325 0.0507085 2.99008e-19)
(0.669697 0.0634654 2.70861e-19)
(0.826229 0.0688824 -2.20097e-19)
(1.08713 0.0932441 1.67118e-19)
(-0.0362242 0.0345542 -1.00261e-19)
(-0.0461619 0.0543035 -3.28806e-19)
(-0.00372163 0.0545263 -1.95358e-19)
(0.0936821 0.0484938 2.30332e-19)
(0.249942 0.0472076 4.42777e-20)
(0.454996 0.0549489 -2.77662e-19)
(0.681272 0.0734936 3.24337e-19)
(0.889904 0.0858273 -4.56329e-19)
(1.06232 0.109614 -2.58663e-19)
(1.20329 0.112924 9.08331e-20)
(-0.0390255 0.0312355 2.4627e-19)
(-0.0357004 0.0435054 3.45902e-19)
(0.040378 0.0414206 1.44506e-19)
(0.192941 0.0405615 2.01385e-19)
(0.414236 0.0525912 -1.16843e-19)
(0.66619 0.0758951 -3.00247e-19)
(0.896953 0.104358 1.20268e-19)
(1.07646 0.12042 1.48478e-19)
(1.19434 0.141832 4.94517e-19)
(1.23771 0.116093 -2.92542e-19)
(-0.0398897 0.0271251 3.64497e-19)
(-0.0140424 0.0311746 -4.504e-20)
(0.111642 0.0302914 3.31687e-19)
(0.334226 0.0427662 -1.47813e-19)
(0.611352 0.0734042 4.54101e-19)
(0.871826 0.109774 1.81163e-19)
(1.06687 0.138498 2.25186e-19)
(1.1884 0.152029 -3.68753e-19)
(1.2397 0.154401 -1.52531e-19)
(1.26344 0.139371 1.47645e-19)
(-0.0374699 0.0220405 2.40051e-20)
(0.0236854 0.0182166 -3.21391e-19)
(0.217225 0.0262676 -3.07235e-19)
(0.510434 0.0605086 -7.79986e-20)
(0.808555 0.107512 -1.23172e-19)
(1.03508 0.146536 1.36553e-19)
(1.17192 0.16812 -5.64749e-19)
(1.23558 0.170896 3.80485e-19)
(1.25814 0.168513 -3.48922e-21)
(1.2615 0.149468 -4.57193e-19)
(-0.0300342 0.0158581 -5.16987e-19)
(0.0829418 0.00679924 -1.04618e-19)
(0.358171 0.0355675 -1.1136e-20)
(0.697292 0.0930809 3.28189e-20)
(0.973023 0.146387 1.74166e-19)
(1.14292 0.178878 -5.48858e-19)
(1.22458 0.18933 5.4225e-19)
(1.25427 0.186649 -1.19591e-19)
(1.25668 0.176815 7.18168e-20)
(1.25038 0.159154 1.18046e-19)
(-0.0154611 0.00875252 1.40484e-20)
(0.168369 0.0016278 4.23917e-19)
(0.522836 0.0612912 1.08743e-19)
(0.866054 0.133828 -5.85105e-20)
(1.09173 0.183149 -4.96522e-20)
(1.20521 0.204871 3.20736e-19)
(1.24785 0.206779 -2.37836e-22)
(1.25489 0.198379 2.41158e-19)
(1.24855 0.185339 -7.64694e-20)
(1.24166 0.169388 -3.30799e-21)
(0.00906185 0.00152194 8.41383e-20)
(0.280562 0.00943172 -1.52525e-19)
(0.688843 0.100392 1.2192e-19)
(1.00067 0.17633 1.62013e-19)
(1.16926 0.215778 -1.06444e-19)
(1.23708 0.226824 -1.58858e-20)
(1.25275 0.221281 -3.1783e-19)
(1.2482 0.209428 -2.13078e-19)
(1.23841 0.193624 2.63983e-19)
(1.22798 0.178261 -1.71577e-19)
(0.0464073 -0.00360724 1.08305e-19)
(0.412588 0.0348946 1.92967e-19)
(0.836527 0.147077 1.3648e-19)
(1.09904 0.217667 -2.08597e-19)
(1.21523 0.244949 2.49965e-19)
(1.24885 0.245968 -1.35657e-19)
(1.24828 0.234886 -3.48301e-20)
(1.23748 0.219818 -1.32001e-20)
(1.22555 0.202057 -7.5316e-20)
(1.21568 0.187721 2.33447e-20)
(0.0978887 -0.00307003 2.7128e-19)
(0.550841 0.0769362 -1.5232e-19)
(0.957033 0.197119 9.57798e-20)
(1.16545 0.256948 1.13565e-19)
(1.23815 0.271397 -8.26664e-20)
(1.24827 0.263753 1.27619e-19)
(1.23803 0.247948 4.79082e-20)
(1.22429 0.230195 6.53924e-20)
(1.21232 0.21094 4.34128e-20)
(1.20127 0.196328 7.01082e-20)
(0.162232 0.0066921 -9.94538e-20)
(0.680984 0.130801 -1.4751e-19)
(1.04906 0.248231 -1.17139e-19)
(1.20571 0.293889 -1.12956e-19)
(1.24478 0.295928 -5.11205e-20)
(1.23954 0.280754 5.72346e-20)
(1.22426 0.260934 -2.88601e-20)
(1.20948 0.240535 5.6548e-22)
(1.19723 0.219742 -2.78409e-20)
(1.18658 0.204507 5.8163e-21)
(0.235494 0.0276819 2.65886e-20)
(0.793009 0.191677 -5.77575e-21)
(1.1143 0.299037 2.6551e-20)
(1.22529 0.328625 2.10214e-20)
(1.23971 0.319039 1.62114e-20)
(1.2253 0.297345 -4.45662e-20)
(1.20769 0.273738 2.15037e-20)
(1.19277 0.250671 -2.16295e-20)
(1.18123 0.228347 -7.14823e-21)
(1.17085 0.211752 -1.17542e-20)
(0.312044 0.0598167 1.33715e-21)
(0.882438 0.255913 -8.85809e-22)
(1.15544 0.348518 -5.95334e-21)
(1.22862 0.361322 7.08718e-20)
(1.22604 0.341013 -1.98193e-20)
(1.20673 0.313445 -1.99975e-20)
(1.18862 0.28618 2.80047e-21)
(1.17437 0.260358 -2.76396e-21)
(1.16354 0.23621 -9.37656e-21)
(1.1541 0.218027 -2.15753e-20)
(0.385792 0.101455 -1.14191e-19)
(0.948389 0.320951 2.21629e-20)
(1.17551 0.395829 -1.9029e-19)
(1.21899 0.391919 -6.86577e-20)
(1.20563 0.361801 -2.16279e-20)
(1.18448 0.328807 -3.21307e-21)
(1.1671 0.297893 -1.67814e-20)
(1.15408 0.269252 -1.14776e-20)
(1.14451 0.243219 8.17882e-21)
(1.13577 0.223206 1.5007e-20)
(0.451192 0.150275 1.96891e-19)
(0.991322 0.384727 -1.0303e-19)
(1.17734 0.440059 1.45527e-19)
(1.19875 0.420147 6.14604e-20)
(1.17962 0.381115 -2.41233e-20)
(1.15885 0.342981 8.50639e-20)
(1.14319 0.308435 -2.04035e-20)
(1.13207 0.277054 2.95947e-20)
(1.12385 0.249319 4.09624e-21)
(1.11578 0.227224 2.08569e-20)
(0.503983 0.203688 -1.20813e-19)
(1.01255 0.445459 4.67533e-19)
(1.16347 0.48036 -8.85606e-20)
(1.16963 0.445553 -5.40352e-20)
(1.14875 0.398425 1.22453e-19)
(1.13012 0.355426 -5.36413e-20)
(1.11704 0.317326 -2.22997e-20)
(1.1083 0.283416 -1.44855e-20)
(1.10155 0.254419 -2.35643e-20)
(1.09489 0.230034 -2.90922e-21)
(0.541498 0.258922 -2.20582e-19)
(1.01381 0.501497 -2.54245e-19)
(1.13592 0.515804 1.61967e-19)
(1.13301 0.467476 4.48965e-20)
(1.11372 0.413054 -6.8131e-20)
(1.09869 0.365591 -3.27707e-20)
(1.08888 0.324189 2.05938e-20)
(1.08272 0.288114 -1.25067e-20)
(1.07764 0.257902 1.48547e-20)
(1.07337 0.231473 -7.94635e-21)
(0.562624 0.313087 7.96858e-20)
(0.996993 0.551279 3.37989e-19)
(1.09652 0.545353 -6.3445e-20)
(1.09029 0.485088 6.50596e-21)
(1.07519 0.424278 -8.2478e-21)
(1.06471 0.372872 3.40457e-20)
(1.05876 0.328723 2.84213e-20)
(1.05544 0.290807 1.10932e-20)
(1.05265 0.259493 -4.53484e-21)
(1.05127 0.231452 -5.57651e-21)
(0.567579 0.363404 -5.88107e-19)
(0.963886 0.59317 4.80674e-20)
(1.04731 0.568005 -1.32903e-19)
(1.04259 0.49735 4.85047e-20)
(1.03349 0.431452 -1.07715e-20)
(1.02844 0.376754 3.6151e-21)
(1.02697 0.330439 -1.66214e-20)
(1.02699 0.291171 1.40242e-20)
(1.02718 0.258906 -1.55441e-20)
(1.0293 0.229906 -5.05274e-20)
(0.557441 0.407586 2.94825e-19)
(0.916045 0.625079 -2.99579e-19)
(0.990606 0.582896 -2.42743e-20)
(0.990853 0.503469 -4.25209e-20)
(0.989225 0.433801 4.0671e-20)
(0.990432 0.376696 1.75137e-20)
(0.993916 0.328921 3.74613e-20)
(0.997935 0.288806 3.5615e-21)
(1.00207 0.255961 -1.14271e-22)
(1.00831 0.226928 7.5794e-20)
(0.533327 0.443928 1.79072e-19)
(0.855989 0.645438 -3.43588e-20)
(0.928425 0.58877 6.16663e-21)
(0.936173 0.502996 5.01272e-20)
(0.943136 0.430786 -9.35096e-21)
(0.951161 0.372207 -6.88301e-20)
(0.960098 0.323641 -4.54748e-20)
(0.968875 0.283122 6.42063e-21)
(0.978029 0.250134 6.63619e-20)
(0.988672 0.22287 -5.13132e-20)
(0.496445 0.469848 3.30022e-20)
(0.787735 0.653882 -1.15431e-20)
(0.862623 0.584718 -7.55197e-20)
(0.879696 0.495367 1.18708e-20)
(0.896015 0.421978 1.13924e-19)
(0.911275 0.362938 -3.70223e-20)
(0.926064 0.314263 1.36543e-19)
(0.940219 0.273551 -1.86808e-19)
(0.95496 0.240158 -1.30503e-19)
(0.969222 0.216545 -2.44032e-20)
(0.449169 0.482145 -2.72986e-20)
(0.713834 0.648894 3.78476e-20)
(0.794745 0.570628 1.58409e-20)
(0.822619 0.48014 -4.24167e-20)
(0.848745 0.407094 -1.81388e-19)
(0.871504 0.348708 1.7759e-19)
(0.892463 0.300806 6.6674e-20)
(0.912196 0.260501 8.66703e-20)
(0.93219 0.225581 2.38069e-19)
(0.947309 0.199318 -5.66603e-20)
(0.395641 0.480442 1.0463e-19)
(0.63728 0.630036 -1.74912e-20)
(0.726676 0.546307 -5.49062e-20)
(0.766201 0.457058 9.43277e-20)
(0.802292 0.385942 1.72128e-19)
(0.832689 0.329373 -3.99977e-19)
(0.86001 0.283256 -6.37189e-20)
(0.885028 0.244959 -1.59316e-19)
(0.90813 0.212617 3.28765e-20)
(0.922783 0.187707 -1.14651e-19)
(0.339027 0.464364 -2.18737e-19)
(0.560739 0.596974 -1.0963e-19)
(0.660211 0.511819 3.50156e-19)
(0.711735 0.426125 -2.01695e-19)
(0.757657 0.358532 -2.8564e-19)
(0.795628 0.304884 2.66298e-19)
(0.829264 0.261123 -2.4778e-19)
(0.859413 0.224541 1.20572e-19)
(0.885861 0.193552 -1.4656e-19)
(0.902661 0.169922 2.30783e-19)
(0.282461 0.43434 -9.90793e-20)
(0.487005 0.550083 5.25977e-19)
(0.597159 0.467436 -5.52764e-19)
(0.660512 0.38756 2.20701e-20)
(0.715851 0.325111 1.80153e-19)
(0.761022 0.27575 -1.32192e-20)
(0.800388 0.235736 3.78581e-19)
(0.834705 0.20251 -3.27735e-19)
(0.863901 0.174349 2.35595e-19)
(0.883823 0.152237 -1.57873e-19)
(0.228763 0.391392 -1.63349e-19)
(0.418595 0.4901 8.99363e-20)
(0.539246 0.413672 2.4318e-19)
(0.613801 0.341763 2.77952e-19)
(0.677916 0.285895 -6.39226e-20)
(0.729829 0.241784 2.59023e-19)
(0.774527 0.206038 2.35185e-20)
(0.812676 0.176406 2.66491e-20)
(0.84457 0.151485 -9.80171e-20)
(0.867557 0.132025 -5.71186e-21)
(0.18034 0.337095 4.94839e-19)
(0.357764 0.418225 -3.42862e-19)
(0.488133 0.351316 -4.56286e-19)
(0.572762 0.289444 2.61132e-20)
(0.644656 0.241629 -1.32862e-19)
(0.702457 0.20399 1.09826e-19)
(0.7517 0.173571 -3.97396e-19)
(0.793115 0.148356 1.1562e-19)
(0.827607 0.127052 3.25525e-19)
(0.853708 0.110244 -1.57008e-19)
(0.139071 0.273128 6.96982e-20)
(0.306538 0.336215 4.29565e-19)
(0.445405 0.281438 3.08218e-19)
(0.538544 0.231394 -2.87384e-19)
(0.617024 0.192811 1.76697e-19)
(0.679788 0.162477 -8.00271e-20)
(0.732797 0.13801 -5.13722e-20)
(0.776891 0.117784 -2.44525e-20)
(0.813626 0.100695 -1.01407e-19)
(0.842514 0.0870845 1.85026e-19)
(0.106512 0.20113 -3.35821e-19)
(0.266578 0.246112 -3.89696e-19)
(0.41227 0.205498 -5.89704e-21)
(0.512027 0.16873 2.75138e-19)
(0.595632 0.140424 -5.08764e-20)
(0.66224 0.118195 -5.3353e-20)
(0.71814 0.100281 7.71818e-20)
(0.764298 0.0854713 -4.18376e-20)
(0.802844 0.0729285 -3.23349e-20)
(0.834051 0.0628572 3.37941e-20)
(0.084008 0.123142 4.88803e-20)
(0.239193 0.150084 -6.41435e-20)
(0.389662 0.125107 2.76097e-19)
(0.493946 0.102633 -6.74649e-20)
(0.58106 0.0853425 1.25753e-19)
(0.650293 0.071774 -3.37608e-20)
(0.70815 0.0608505 -5.19756e-20)
(0.755706 0.0518244 8.22461e-20)
(0.795516 0.0441604 1.16491e-20)
(0.828394 0.0379606 -2.87437e-20)
(0.0725119 0.0414624 -1.33207e-21)
(0.225275 0.0504346 1.70962e-21)
(0.378201 0.0420061 1.28534e-19)
(0.484784 0.0344462 -6.37971e-20)
(0.573677 0.028631 2.90908e-20)
(0.64424 0.0240689 -1.53256e-20)
(0.703085 0.0203975 1.80845e-20)
(0.751346 0.0173643 -2.33429e-20)
(0.791804 0.0147847 -1.40818e-20)
(0.825561 0.0126892 6.4796e-24)
(0.0725119 -0.0414624 1.33207e-21)
(0.225275 -0.0504345 -1.70962e-21)
(0.378201 -0.042006 -1.28534e-19)
(0.484784 -0.0344462 -2.28491e-20)
(0.573677 -0.028631 -3.83563e-20)
(0.64424 -0.0240689 2.03989e-20)
(0.703085 -0.0203975 3.18888e-20)
(0.751346 -0.0173643 -2.91371e-20)
(0.791804 -0.0147847 -2.52181e-20)
(0.825561 -0.0126892 -1.69827e-20)
(0.084008 -0.123142 1.56743e-19)
(0.239193 -0.150084 -1.11092e-19)
(0.389662 -0.125107 1.57853e-19)
(0.493946 -0.102633 -1.7901e-21)
(0.58106 -0.0853425 9.07557e-20)
(0.650293 -0.071774 -7.16894e-21)
(0.70815 -0.0608505 -4.49347e-20)
(0.755706 -0.0518244 1.79914e-19)
(0.795516 -0.0441604 -4.19934e-20)
(0.828394 -0.0379606 -1.23294e-21)
(0.106512 -0.20113 -3.35116e-19)
(0.266578 -0.246112 3.95755e-20)
(0.41227 -0.205498 -2.12231e-19)
(0.512027 -0.16873 1.96388e-20)
(0.595632 -0.140424 1.79786e-19)
(0.66224 -0.118195 -1.20572e-19)
(0.71814 -0.100281 4.75178e-20)
(0.764298 -0.0854713 -4.39559e-20)
(0.802844 -0.0729285 1.14814e-19)
(0.834051 -0.0628572 -1.51073e-19)
(0.139071 -0.273128 -3.26402e-21)
(0.306538 -0.336215 4.76982e-19)
(0.445405 -0.281438 2.58425e-19)
(0.538544 -0.231394 -1.25005e-19)
(0.617024 -0.192811 -1.46949e-19)
(0.679788 -0.162477 2.18183e-19)
(0.732797 -0.13801 -8.28393e-20)
(0.776891 -0.117784 -5.13987e-20)
(0.813626 -0.100695 -1.6781e-19)
(0.842514 -0.0870845 2.12401e-19)
(0.18034 -0.337095 1.45794e-19)
(0.357764 -0.418225 -2.0996e-19)
(0.488133 -0.351316 -5.76715e-19)
(0.572762 -0.289444 2.73145e-19)
(0.644656 -0.241629 -2.42532e-19)
(0.702457 -0.20399 -3.36859e-19)
(0.7517 -0.173571 2.76632e-20)
(0.793115 -0.148356 -1.12302e-20)
(0.827607 -0.127052 2.3859e-19)
(0.853708 -0.110244 -1.09814e-19)
(0.228763 -0.391392 2.39973e-19)
(0.418595 -0.4901 -1.36908e-19)
(0.539246 -0.413672 7.04261e-19)
(0.613801 -0.341763 -3.28063e-19)
(0.677916 -0.285895 -3.06915e-20)
(0.729829 -0.241784 3.6824e-19)
(0.774527 -0.206038 1.14081e-19)
(0.812676 -0.176406 -9.27682e-20)
(0.84457 -0.151485 -1.52826e-19)
(0.867557 -0.132025 8.11922e-20)
(0.282461 -0.43434 -7.5124e-21)
(0.487005 -0.550083 3.58025e-19)
(0.597159 -0.467436 -3.97218e-19)
(0.660512 -0.38756 2.71105e-19)
(0.715851 -0.325111 -6.67215e-20)
(0.761022 -0.27575 -2.18491e-19)
(0.800388 -0.235736 3.54472e-19)
(0.834705 -0.20251 1.34852e-19)
(0.863901 -0.174349 -1.17126e-19)
(0.883823 -0.152237 -5.69649e-20)
(0.339027 -0.464364 -1.08427e-19)
(0.560739 -0.596974 -5.5695e-19)
(0.660211 -0.511819 5.41305e-19)
(0.711735 -0.426125 -1.45476e-19)
(0.757657 -0.358532 -3.11352e-19)
(0.795628 -0.304884 1.48216e-19)
(0.829264 -0.261123 2.68617e-20)
(0.859413 -0.224541 1.59667e-19)
(0.885861 -0.193552 -1.84108e-19)
(0.902661 -0.169922 1.20578e-19)
(0.395641 -0.480442 1.84728e-19)
(0.63728 -0.630036 -3.51646e-20)
(0.726676 -0.546306 -1.90321e-19)
(0.766201 -0.457058 7.44569e-20)
(0.802292 -0.385942 2.93302e-19)
(0.832689 -0.329373 -3.20295e-19)
(0.86001 -0.283256 -2.06909e-19)
(0.885028 -0.244959 -1.63593e-19)
(0.90813 -0.212617 1.31941e-19)
(0.922783 -0.187707 -9.82391e-20)
(0.449169 -0.482145 -6.54856e-20)
(0.713834 -0.648894 5.19609e-20)
(0.794745 -0.570628 3.14539e-20)
(0.822619 -0.48014 -1.16454e-19)
(0.848745 -0.407094 -1.82483e-20)
(0.871504 -0.348708 1.75852e-19)
(0.892463 -0.300806 -1.75852e-19)
(0.912196 -0.260501 2.48237e-19)
(0.93219 -0.225581 1.17078e-19)
(0.947309 -0.199318 -3.94651e-20)
(0.496445 -0.469848 2.63128e-20)
(0.787735 -0.653882 1.4153e-20)
(0.862623 -0.584718 -7.16021e-20)
(0.879696 -0.495367 -3.57269e-20)
(0.896015 -0.421978 4.49034e-20)
(0.911275 -0.362938 1.16575e-19)
(0.926064 -0.314263 -5.08824e-20)
(0.940219 -0.273551 -6.01834e-20)
(0.95496 -0.240158 -2.27843e-19)
(0.969222 -0.216545 1.25341e-19)
(0.533327 -0.443928 2.29685e-19)
(0.855989 -0.645438 1.25186e-20)
(0.928425 -0.58877 1.23808e-20)
(0.936173 -0.502996 3.00973e-20)
(0.943136 -0.430786 -8.7033e-20)
(0.951161 -0.372206 -5.09812e-20)
(0.960098 -0.323641 -6.52151e-20)
(0.968875 -0.283122 1.24678e-19)
(0.978029 -0.250134 4.86906e-20)
(0.988672 -0.22287 -4.48618e-20)
(0.557441 -0.407586 1.00562e-19)
(0.916045 -0.625079 -1.81993e-19)
(0.990606 -0.582896 -5.84053e-20)
(0.990853 -0.503469 -3.65757e-21)
(0.989225 -0.433801 2.0218e-20)
(0.990432 -0.376696 1.04429e-20)
(0.993916 -0.328921 9.56264e-20)
(0.997935 -0.288806 -8.76684e-20)
(1.00207 -0.255961 -1.11397e-20)
(1.00831 -0.226928 1.20646e-19)
(0.567579 -0.363404 -4.31224e-19)
(0.963886 -0.59317 -1.19567e-19)
(1.04731 -0.568005 -1.1534e-20)
(1.04259 -0.49735 2.98898e-21)
(1.03349 -0.431452 2.88954e-20)
(1.02844 -0.376754 2.46864e-21)
(1.02697 -0.330439 -3.46731e-20)
(1.02699 -0.291171 8.85161e-21)
(1.02718 -0.258906 -2.04395e-20)
(1.0293 -0.229906 -3.31881e-20)
(0.562624 -0.313087 1.08073e-20)
(0.996993 -0.551279 3.42561e-19)
(1.09652 -0.545353 4.41704e-20)
(1.09029 -0.485088 -2.41941e-20)
(1.07519 -0.424278 -6.97753e-21)
(1.06471 -0.372872 4.90956e-20)
(1.05876 -0.328723 2.04935e-20)
(1.05544 -0.290807 1.26841e-20)
(1.05265 -0.259493 -1.01196e-20)
(1.05127 -0.231452 -2.22168e-21)
(0.541498 -0.258922 8.30618e-20)
(1.01381 -0.501497 -1.54109e-19)
(1.13592 -0.515804 6.32462e-20)
(1.13301 -0.467476 8.35027e-20)
(1.11372 -0.413054 -5.91293e-20)
(1.09869 -0.365591 -3.85803e-21)
(1.08888 -0.324189 -6.20307e-20)
(1.08272 -0.288114 -2.27944e-20)
(1.07764 -0.257902 2.85318e-20)
(1.07337 -0.231473 -1.61871e-20)
(0.503983 -0.203688 1.12942e-19)
(1.01255 -0.445459 1.94989e-19)
(1.16347 -0.48036 1.14718e-19)
(1.16963 -0.445553 -1.32897e-19)
(1.14875 -0.398425 1.32153e-19)
(1.13012 -0.355426 -6.3408e-20)
(1.11704 -0.317326 -1.21129e-20)
(1.1083 -0.283416 -8.28237e-21)
(1.10155 -0.254419 -1.29808e-20)
(1.09489 -0.230034 -7.87009e-21)
(0.451192 -0.150275 2.86927e-19)
(0.991322 -0.384727 -1.53292e-19)
(1.17734 -0.440059 8.90204e-20)
(1.19875 -0.420147 8.63596e-20)
(1.17962 -0.381115 -4.35368e-20)
(1.15885 -0.342981 6.91679e-20)
(1.14319 -0.308435 2.38253e-20)
(1.13207 -0.277054 2.91873e-20)
(1.12385 -0.249319 1.9133e-20)
(1.11578 -0.227224 2.11137e-20)
(0.385792 -0.101455 -1.04579e-19)
(0.948389 -0.320951 -1.47883e-19)
(1.17551 -0.395829 -1.01145e-19)
(1.21899 -0.391919 -9.50968e-20)
(1.20563 -0.361801 -3.60202e-20)
(1.18448 -0.328807 4.6461e-20)
(1.1671 -0.297893 -2.02613e-20)
(1.15408 -0.269252 3.78099e-21)
(1.14451 -0.243219 -1.43518e-20)
(1.13577 -0.223206 6.72882e-21)
(0.312044 -0.0598167 2.71269e-20)
(0.882438 -0.255913 -5.91442e-21)
(1.15544 -0.348518 2.53573e-20)
(1.22862 -0.361322 1.73103e-20)
(1.22604 -0.341013 1.52502e-20)
(1.20673 -0.313445 -3.73852e-20)
(1.18862 -0.28618 1.77204e-20)
(1.17437 -0.260358 -1.73512e-20)
(1.16354 -0.23621 -4.87921e-21)
(1.1541 -0.218027 -7.13825e-21)
(0.235494 -0.0276819 1.11522e-21)
(0.793009 -0.191677 -9.35928e-22)
(1.1143 -0.299037 -6.12681e-21)
(1.22529 -0.328625 7.72027e-20)
(1.23971 -0.319039 -2.15529e-20)
(1.2253 -0.297345 -2.55289e-20)
(1.20769 -0.273738 4.62616e-21)
(1.19277 -0.250671 -4.96777e-21)
(1.18123 -0.228347 -1.23601e-20)
(1.17085 -0.211752 -2.88857e-20)
(0.162232 -0.0066921 -1.0922e-19)
(0.680984 -0.130801 2.39498e-20)
(1.04905 -0.248231 -2.07137e-19)
(1.20571 -0.293889 -7.98752e-20)
(1.24478 -0.295928 -2.96258e-20)
(1.23954 -0.280754 -8.61045e-21)
(1.22426 -0.260934 -2.45989e-20)
(1.20948 -0.240535 -2.38057e-20)
(1.19723 -0.219742 7.87726e-21)
(1.18658 -0.204507 2.01743e-20)
(0.0978887 0.00307003 1.85016e-19)
(0.550841 -0.0769362 -1.05636e-19)
(0.957033 -0.197119 1.62805e-19)
(1.16545 -0.256948 8.49239e-20)
(1.23815 -0.271397 -5.00413e-20)
(1.24827 -0.263753 1.60791e-19)
(1.23803 -0.247948 -3.36842e-20)
(1.22429 -0.230195 6.42747e-20)
(1.21232 -0.21094 4.31756e-21)
(1.20127 -0.196328 6.62976e-20)
(0.0464073 0.00360724 -1.14378e-19)
(0.412588 -0.0348946 4.81409e-19)
(0.836527 -0.147077 -1.06474e-19)
(1.09904 -0.217667 -9.16958e-20)
(1.21523 -0.244949 2.37957e-19)
(1.24885 -0.245968 -1.07532e-19)
(1.24828 -0.234886 -5.65905e-20)
(1.23748 -0.219818 -3.16486e-20)
(1.22555 -0.202057 -1.20879e-19)
(1.21568 -0.187721 4.22264e-20)
(0.00906185 -0.00152195 -2.08679e-19)
(0.280562 -0.00943172 -2.87449e-19)
(0.688843 -0.100392 2.28315e-19)
(1.00067 -0.17633 6.42616e-20)
(1.16926 -0.215778 -1.70471e-19)
(1.23708 -0.226824 -1.75335e-19)
(1.25275 -0.221281 9.30186e-21)
(1.2482 -0.209428 -1.15468e-19)
(1.23841 -0.193624 1.82206e-19)
(1.22798 -0.178261 -2.65406e-20)
(-0.0154611 -0.00875252 9.43339e-20)
(0.168369 -0.0016278 4.51683e-19)
(0.522836 -0.0612912 -5.61519e-20)
(0.866054 -0.133828 1.61565e-20)
(1.09173 -0.183149 -3.8254e-20)
(1.20521 -0.204871 2.26898e-19)
(1.24785 -0.206779 7.8911e-20)
(1.25489 -0.198379 1.34837e-19)
(1.24855 -0.185339 -1.26523e-19)
(1.24166 -0.169388 7.55006e-20)
(-0.0300342 -0.0158581 -6.97199e-19)
(0.0829418 -0.00679924 1.79823e-19)
(0.358171 -0.0355675 -2.27778e-19)
(0.697292 -0.0930809 2.77648e-19)
(0.973023 -0.146387 -6.86106e-20)
(1.14292 -0.178878 -3.96451e-19)
(1.22458 -0.18933 2.1402e-19)
(1.25427 -0.186649 -8.21538e-20)
(1.25668 -0.176815 7.32326e-20)
(1.25038 -0.159154 2.24591e-19)
(-0.0374699 -0.0220405 3.26096e-19)
(0.0236854 -0.0182166 -4.93799e-19)
(0.217225 -0.0262676 -6.11962e-20)
(0.510434 -0.0605086 -3.07999e-19)
(0.808555 -0.107512 -3.83218e-19)
(1.03508 -0.146536 1.8966e-19)
(1.17192 -0.16812 -2.37796e-19)
(1.23558 -0.170896 -2.92289e-20)
(1.25814 -0.168513 -2.47663e-20)
(1.2615 -0.149468 -2.86776e-19)
(-0.0398897 -0.0271251 3.05158e-19)
(-0.0140424 -0.0311746 -1.17381e-19)
(0.111642 -0.0302914 1.12307e-19)
(0.334226 -0.0427662 -1.6776e-19)
(0.611352 -0.0734042 1.64733e-19)
(0.871826 -0.109774 3.06936e-19)
(1.06687 -0.138498 1.82856e-19)
(1.1884 -0.152029 -8.50134e-21)
(1.2397 -0.154401 -2.06614e-19)
(1.26344 -0.139371 1.69001e-19)
(-0.0390255 -0.0312354 3.57543e-19)
(-0.0357004 -0.0435054 1.1485e-19)
(0.040378 -0.0414206 1.93222e-19)
(0.192941 -0.0405615 5.66176e-20)
(0.414236 -0.0525911 -2.77485e-19)
(0.66619 -0.075895 8.32589e-20)
(0.896953 -0.104358 -3.18078e-19)
(1.07646 -0.12042 4.4189e-19)
(1.19434 -0.141832 2.65258e-19)
(1.23771 -0.116093 7.24357e-20)
(-0.0362242 -0.0345542 -5.06035e-19)
(-0.0461619 -0.0543035 -1.26368e-19)
(-0.00372164 -0.0545263 -1.47249e-19)
(0.093682 -0.0484938 8.59635e-20)
(0.249942 -0.0472075 3.50254e-19)
(0.454996 -0.0549489 -2.82157e-19)
(0.681272 -0.0734936 -1.22956e-19)
(0.889904 -0.0858273 -1.55639e-19)
(1.06232 -0.109614 -4.9972e-19)
(1.20329 -0.112924 1.27431e-19)
(-0.0324577 -0.0371406 -2.07458e-19)
(-0.0494496 -0.0630151 4.53632e-20)
(-0.0288747 -0.0664641 2.28814e-20)
(0.0300183 -0.0599498 -1.39334e-19)
(0.131114 -0.0522586 -2.2323e-19)
(0.277389 -0.0511943 5.90414e-19)
(0.458325 -0.0507085 8.2882e-20)
(0.669697 -0.0634654 2.59212e-19)
(0.826229 -0.0688824 -5.06e-20)
(1.08713 -0.0932441 1.95891e-19)
(-0.0283962 -0.0388964 3.70313e-19)
(-0.0486327 -0.0690544 8.3149e-20)
(-0.0422305 -0.075266 -3.92462e-19)
(-0.00909457 -0.0701033 2.18837e-19)
(0.0521357 -0.0609331 3.56412e-19)
(0.148566 -0.0565781 -3.47491e-19)
(0.266449 -0.0400108 2.96194e-19)
(0.461256 -0.055953 -1.61865e-19)
(0.546824 -0.0394683 2.34293e-19)
(0.880751 -0.0663503 -3.70503e-19)
(-0.0243917 -0.0395865 7.15954e-20)
(-0.0457653 -0.071783 -5.35117e-19)
(-0.0491152 -0.0796831 5.20534e-19)
(-0.0336569 -0.0760771 -2.97758e-20)
(0.000335017 -0.067626 -1.73318e-19)
(0.0598748 -0.0614801 -5.84765e-21)
(0.126555 -0.0426986 -4.56034e-19)
(0.280083 -0.0518087 4.11017e-19)
(0.312073 -0.0306228 -3.28235e-19)
(0.619887 -0.0456304 2.2995e-19)
(-0.0205385 -0.0388138 1.07443e-19)
(-0.0421366 -0.0706619 -5.39805e-20)
(-0.0529883 -0.0790419 -1.84509e-19)
(-0.0505846 -0.0765837 -2.26493e-19)
(-0.0356996 -0.0694947 5.13191e-20)
(-0.0026293 -0.0624199 -2.52074e-19)
(0.0317447 -0.0491665 -8.37646e-21)
(0.132392 -0.0455795 -3.8103e-20)
(0.148681 -0.0377048 1.12708e-19)
(0.358652 -0.0341727 4.91154e-21)
(-0.0168891 -0.0361455 -3.08373e-19)
(-0.0385119 -0.0654116 2.20538e-19)
(-0.0556876 -0.0732086 3.10184e-19)
(-0.0636719 -0.0714251 -1.34249e-20)
(-0.0627794 -0.0657086 1.02411e-19)
(-0.0493611 -0.0588283 -9.61001e-20)
(-0.0360971 -0.0509764 3.8426e-19)
(0.0203632 -0.0395346 -1.24088e-19)
(0.0314324 -0.0433126 -3.92845e-19)
(0.146545 -0.0221751 1.87061e-19)
(-0.0135641 -0.031307 -2.19958e-20)
(-0.0353066 -0.0560699 -2.48493e-19)
(-0.0579458 -0.0625386 -1.96376e-19)
(-0.0743191 -0.0611526 1.91335e-19)
(-0.0842131 -0.0565909 -1.40921e-19)
(-0.0862634 -0.0508582 6.41919e-20)
(-0.0863672 -0.0459272 4.80818e-20)
(-0.0612523 -0.0334616 2.25076e-20)
(-0.0596579 -0.0383466 1.16363e-19)
(-0.00294521 -0.0119029 -2.21528e-19)
(-0.0107593 -0.024293 1.70547e-19)
(-0.0327457 -0.0430399 2.14922e-19)
(-0.0598713 -0.0477758 6.67824e-21)
(-0.0827601 -0.0467041 -1.72203e-19)
(-0.100949 -0.0433147 2.81893e-20)
(-0.114105 -0.0391545 4.40981e-20)
(-0.123812 -0.0351388 -6.69452e-20)
(-0.120955 -0.0262821 3.49596e-20)
(-0.126749 -0.0283336 3.59258e-20)
(-0.104567 -0.00822359 -3.68239e-20)
(-0.00870894 -0.015417 -2.433e-20)
(-0.0309656 -0.0270815 3.35114e-20)
(-0.0613194 -0.0299347 -1.4964e-19)
(-0.0887237 -0.0292311 3.88635e-20)
(-0.112603 -0.0271323 -8.56009e-20)
(-0.132818 -0.0245985 2.31897e-20)
(-0.149429 -0.0218014 4.17482e-20)
(-0.159624 -0.0169727 -7.47317e-20)
(-0.170904 -0.0167977 -8.68651e-21)
(-0.168054 -0.0064817 3.34839e-20)
(-0.00762223 -0.00528648 -1.67764e-20)
(-0.0300532 -0.00924302 3.58171e-21)
(-0.0621021 -0.0101922 7.97804e-20)
(-0.0918253 -0.00994451 3.16482e-20)
(-0.118592 -0.00923247 -1.86229e-20)
(-0.142242 -0.00837541 1.05677e-20)
(-0.16252 -0.00737547 -1.4147e-20)
(-0.17854 -0.00588197 2.18263e-20)
(-0.193081 -0.00555429 1.44576e-20)
(-0.199135 -0.00253288 6.65839e-24)
(-0.203584 0.00366407 -5.76596e-20)
(-0.207908 0.00343061 4.13087e-20)
(-0.211738 0.00312865 5.87815e-22)
(-0.215226 0.00287276 -7.14285e-21)
(-0.218445 0.00265599 -1.43071e-20)
(-0.22143 0.0024734 -1.64849e-20)
(-0.224217 0.00231999 -2.82555e-20)
(-0.226837 0.00219028 5.02242e-20)
(-0.229312 0.00207923 -2.85344e-20)
(-0.231663 0.00198251 5.86006e-20)
(-0.233902 0.00189657 -3.69166e-20)
(-0.236041 0.00181841 -5.34135e-21)
(-0.238088 0.0017455 -1.31083e-20)
(-0.240047 0.00167575 3.40075e-20)
(-0.24192 0.00160745 -2.24298e-20)
(-0.243709 0.00153928 2.29545e-20)
(-0.245413 0.00147026 -1.59619e-20)
(-0.247029 0.00139965 -1.35052e-20)
(-0.248554 0.00132663 8.69653e-21)
(-0.249983 0.0012493 -5.81835e-21)
(-0.251306 0.00116512 2.17101e-20)
(-0.252516 0.00107159 -9.88895e-21)
(-0.253604 0.000967103 -1.47328e-20)
(-0.25456 0.000850607 9.13641e-21)
(-0.255372 0.000724119 -1.24888e-20)
(-0.256022 0.000593966 1.469e-20)
(-0.25649 0.000459553 4.10028e-21)
(-0.256759 0.000306815 -1.18358e-20)
(-0.256824 0.000127963 2.12939e-20)
(-0.256671 -7.12292e-05 2.17766e-20)
(-0.256274 -0.000288869 -2.27347e-20)
(-0.255613 -0.000524348 9.56742e-21)
(-0.254663 -0.000777452 1.18049e-20)
(-0.253405 -0.00104808 -2.12479e-20)
(-0.251815 -0.0013361 2.48523e-20)
(-0.249874 -0.00164125 -2.4351e-20)
(-0.247559 -0.00196317 2.90258e-20)
(-0.244851 -0.00230127 -1.32343e-20)
(-0.24173 -0.00265483 -5.12472e-21)
(-0.238177 -0.00302294 9.24076e-22)
(-0.234174 -0.0034045 7.73919e-21)
(-0.229705 -0.00379823 4.47753e-21)
(-0.224756 -0.00420268 7.43267e-23)
(-0.219313 -0.00461619 -1.18362e-20)
(-0.213366 -0.00503681 -1.32126e-21)
(-0.206906 -0.0054622 -3.71774e-21)
(-0.199926 -0.00588978 7.8758e-21)
(-0.192422 -0.00631766 -6.67705e-22)
(-0.18439 -0.00674585 8.24597e-21)
(-0.175837 -0.00716683 -1.56988e-20)
(-0.166771 -0.00758388 7.88034e-21)
(-0.157198 -0.00799406 5.80102e-22)
(-0.147125 -0.0083948 -1.28467e-20)
(-0.136563 -0.00878395 6.25403e-21)
(-0.125528 -0.00915943 2.79332e-21)
(-0.114034 -0.00951924 1.56003e-21)
(-0.102101 -0.00986137 -3.47391e-21)
(-0.0897516 -0.0101834 2.96698e-22)
(-0.0770104 -0.0104878 1.04234e-20)
(-0.0638875 -0.0107922 -1.48293e-20)
(-0.0504157 -0.0110447 1.00083e-20)
(-0.0366364 -0.0112746 1.20967e-21)
(-0.0225727 -0.0114833 -1.37473e-21)
(-0.00826209 -0.0116682 -9.89888e-22)
(0.00628677 -0.0118225 9.05032e-22)
(0.0210427 -0.0119578 -1.80231e-21)
(0.0359533 -0.0120683 -1.60995e-22)
(0.0509994 -0.0121537 -3.81188e-22)
(0.0661521 -0.0122146 2.09975e-22)
(0.0813818 -0.0122519 9.29659e-22)
(0.0966596 -0.0122664 -1.64363e-21)
(0.111958 -0.0122589 -3.18048e-22)
(0.12725 -0.0122305 1.20728e-21)
(0.142511 -0.0121823 6.91101e-22)
(0.157716 -0.0121156 -8.15056e-22)
(0.172844 -0.0120315 2.77002e-22)