/*--------------------------------*- C++ -*----------------------------------*\
  =========                 |
  \\      /  F ield         | OpenFOAM: The Open Source CFD Toolbox
   \\    /   O peration     | Website:  https://openfoam.org
    \\  /    A nd           | Version:  7
     \\/     M anipulation  |
\*---------------------------------------------------------------------------*/
FoamFile
{
    version     2.0;
    format      ascii;
    class       volScalarField;
    location    "50.001";
    object      p;
}
// * * * * * * * * * * * * * * * * * * * * * * * * * * * * * * * * * * * * * //

dimensions      [0 2 -2 0 0 0 0];

internalField   nonuniform List<scalar> 
45600
(
-0.227741
-0.229981
-0.230972
-0.231785
-0.232509
-0.233178
-0.233825
-0.234453
-0.23505
-0.235601
-0.236087
-0.236488
-0.236786
-0.236963
-0.237004
-0.236903
-0.236662
-0.236289
-0.235807
-0.23531
-0.227987
-0.23019
-0.231167
-0.231967
-0.232681
-0.233342
-0.233982
-0.234604
-0.235198
-0.235746
-0.236229
-0.236628
-0.236924
-0.237098
-0.237135
-0.237024
-0.236769
-0.236374
-0.235851
-0.23532
-0.228474
-0.230606
-0.231552
-0.232327
-0.23302
-0.233665
-0.234292
-0.234903
-0.235487
-0.236029
-0.236507
-0.236903
-0.237195
-0.237364
-0.237391
-0.237264
-0.236981
-0.236543
-0.235941
-0.235331
-0.22919
-0.231217
-0.232117
-0.232856
-0.233518
-0.234136
-0.234741
-0.235335
-0.235905
-0.236435
-0.236906
-0.237295
-0.237582
-0.237744
-0.237759
-0.237607
-0.237283
-0.236787
-0.236073
-0.235307
-0.230115
-0.232009
-0.232849
-0.233538
-0.234157
-0.234739
-0.235313
-0.235881
-0.23643
-0.236944
-0.237402
-0.237782
-0.23806
-0.238213
-0.238213
-0.238033
-0.237657
-0.237089
-0.236248
-0.235188
-0.231227
-0.232965
-0.233731
-0.234356
-0.234919
-0.235453
-0.235985
-0.236518
-0.237038
-0.237527
-0.237966
-0.238332
-0.238599
-0.238739
-0.238722
-0.238512
-0.238076
-0.237423
-0.236483
-0.234864
-0.232502
-0.234064
-0.234743
-0.235291
-0.235784
-0.236255
-0.236733
-0.237218
-0.237697
-0.238154
-0.238566
-0.23891
-0.239159
-0.239284
-0.239248
-0.239007
-0.238506
-0.237734
-0.23683
-0.234204
-0.233914
-0.235286
-0.235865
-0.236321
-0.236728
-0.237121
-0.237529
-0.237952
-0.238378
-0.238789
-0.239163
-0.239476
-0.2397
-0.239802
-0.239742
-0.239472
-0.238907
-0.237929
-0.237283
-0.233469
-0.235437
-0.236613
-0.237079
-0.237428
-0.23773
-0.238027
-0.238346
-0.238689
-0.239046
-0.239397
-0.23972
-0.23999
-0.240178
-0.240248
-0.240155
-0.239849
-0.239244
-0.238169
-0.237341
-0.232842
-0.237049
-0.238025
-0.238368
-0.238591
-0.23877
-0.238949
-0.239159
-0.239404
-0.239673
-0.239946
-0.240202
-0.240414
-0.240551
-0.240575
-0.240439
-0.24008
-0.239447
-0.238177
-0.237482
-0.23187
-0.238732
-0.239511
-0.239717
-0.239797
-0.23983
-0.239869
-0.239948
-0.240072
-0.240232
-0.240409
-0.240579
-0.240715
-0.240784
-0.240746
-0.24055
-0.240112
-0.239476
-0.237863
-0.237608
-0.230579
-0.240474
-0.241061
-0.241118
-0.241036
-0.2409
-0.240773
-0.240695
-0.240675
-0.240704
-0.240764
-0.240831
-0.240872
-0.240854
-0.240734
-0.24046
-0.239902
-0.2393
-0.237185
-0.237581
-0.229074
-0.242271
-0.242674
-0.242568
-0.242301
-0.241971
-0.241653
-0.241393
-0.241204
-0.241081
-0.241004
-0.240946
-0.240875
-0.240751
-0.240526
-0.240157
-0.239426
-0.238884
-0.236153
-0.237225
-0.227534
-0.244129
-0.244352
-0.244068
-0.243594
-0.243045
-0.242509
-0.242041
-0.24166
-0.241362
-0.241128
-0.240928
-0.240725
-0.240476
-0.240122
-0.239637
-0.238686
-0.238172
-0.234843
-0.236319
-0.226124
-0.246062
-0.246107
-0.245627
-0.244922
-0.244129
-0.24335
-0.242649
-0.242053
-0.24156
-0.24115
-0.24079
-0.240438
-0.240043
-0.23953
-0.238893
-0.237696
-0.237075
-0.233344
-0.234674
-0.224825
-0.248094
-0.247958
-0.247261
-0.246303
-0.245239
-0.24419
-0.243235
-0.242404
-0.241699
-0.241096
-0.240558
-0.240035
-0.239465
-0.238759
-0.237907
-0.236456
-0.235507
-0.231658
-0.232246
-0.223388
-0.250258
-0.249929
-0.248995
-0.247758
-0.246397
-0.245057
-0.243826
-0.242743
-0.241808
-0.240997
-0.240261
-0.239539
-0.238754
-0.237804
-0.236647
-0.234918
-0.233417
-0.229648
-0.229128
-0.221484
-0.252596
-0.252051
-0.25086
-0.249314
-0.247633
-0.245981
-0.244459
-0.243108
-0.24193
-0.240889
-0.239929
-0.238967
-0.237908
-0.236638
-0.235072
-0.23299
-0.230777
-0.227102
-0.225381
-0.218848
-0.25516
-0.254364
-0.252887
-0.251007
-0.248984
-0.247003
-0.245174
-0.243542
-0.242102
-0.240808
-0.239581
-0.238321
-0.236907
-0.235218
-0.233134
-0.230572
-0.227575
-0.223833
-0.220883
-0.215329
-0.258008
-0.256908
-0.255116
-0.252875
-0.25049
-0.248165
-0.246016
-0.244088
-0.242363
-0.240776
-0.239227
-0.237586
-0.235713
-0.233487
-0.230785
-0.227611
-0.223845
-0.219792
-0.215497
-0.210865
-0.261189
-0.259733
-0.257589
-0.254961
-0.252194
-0.249511
-0.247029
-0.244784
-0.24274
-0.240806
-0.238852
-0.236726
-0.234279
-0.2314
-0.227996
-0.224118
-0.219667
-0.215101
-0.20973
-0.205332
-0.264762
-0.262885
-0.26035
-0.257309
-0.254142
-0.251086
-0.248253
-0.245661
-0.243248
-0.24089
-0.238428
-0.235697
-0.232556
-0.228927
-0.224765
-0.220163
-0.215097
-0.209892
-0.204205
-0.199158
-0.268786
-0.26641
-0.263443
-0.259962
-0.256376
-0.25293
-0.249721
-0.246739
-0.243884
-0.241001
-0.237908
-0.234447
-0.230507
-0.226064
-0.221129
-0.215838
-0.210195
-0.204521
-0.198514
-0.193052
-0.273315
-0.270351
-0.266913
-0.262966
-0.258941
-0.255082
-0.251459
-0.248021
-0.244629
-0.241096
-0.23724
-0.232931
-0.228117
-0.222831
-0.217146
-0.211218
-0.205084
-0.19902
-0.19277
-0.187176
-0.278398
-0.274753
-0.270804
-0.266362
-0.261874
-0.257571
-0.253477
-0.249494
-0.245442
-0.241119
-0.236369
-0.231118
-0.225384
-0.219263
-0.212874
-0.206379
-0.199822
-0.193443
-0.187012
-0.181285
-0.284077
-0.279654
-0.275156
-0.270193
-0.265213
-0.260417
-0.255773
-0.251127
-0.246268
-0.241008
-0.235245
-0.228986
-0.222323
-0.215401
-0.208366
-0.201366
-0.194445
-0.187799
-0.181203
-0.175374
-0.290384
-0.28509
-0.280008
-0.274495
-0.268983
-0.263627
-0.258323
-0.252865
-0.247037
-0.240696
-0.233828
-0.226527
-0.218952
-0.211279
-0.203655
-0.196207
-0.188965
-0.182077
-0.175334
-0.169387
-0.297346
-0.291091
-0.285393
-0.279299
-0.273201
-0.267189
-0.261082
-0.254638
-0.247669
-0.240122
-0.232086
-0.22374
-0.215291
-0.20692
-0.198761
-0.190907
-0.183373
-0.176262
-0.169377
-0.163306
-0.304975
-0.297677
-0.291337
-0.284625
-0.277864
-0.271067
-0.26398
-0.256354
-0.24808
-0.239227
-0.229993
-0.220626
-0.211351
-0.202335
-0.193685
-0.185458
-0.177653
-0.170329
-0.16331
-0.15711
-0.31327
-0.304859
-0.297854
-0.290473
-0.282946
-0.275198
-0.26692
-0.25791
-0.248188
-0.237963
-0.227532
-0.217182
-0.207132
-0.19752
-0.188417
-0.179843
-0.171784
-0.164257
-0.15711
-0.15078
-0.32221
-0.312632
-0.30494
-0.296824
-0.288392
-0.279486
-0.269784
-0.259196
-0.247913
-0.236287
-0.224684
-0.213401
-0.202627
-0.192461
-0.182935
-0.174037
-0.165738
-0.158019
-0.150755
-0.144298
-0.331751
-0.320971
-0.312566
-0.303624
-0.294111
-0.283804
-0.272437
-0.260101
-0.247185
-0.234159
-0.221428
-0.209265
-0.197816
-0.187134
-0.177213
-0.168014
-0.159488
-0.151592
-0.144223
-0.137644
-0.341825
-0.329826
-0.320675
-0.310788
-0.299973
-0.287995
-0.274733
-0.26052
-0.245938
-0.231542
-0.217736
-0.204749
-0.192672
-0.181511
-0.171222
-0.161743
-0.153008
-0.144952
-0.137492
-0.130802
-0.352331
-0.339117
-0.329173
-0.318187
-0.305813
-0.291884
-0.276526
-0.260353
-0.24411
-0.228396
-0.213577
-0.199822
-0.187162
-0.175556
-0.164928
-0.155194
-0.146271
-0.138076
-0.130542
-0.123754
-0.363135
-0.348728
-0.337929
-0.325652
-0.311432
-0.295283
-0.277676
-0.259505
-0.24164
-0.224675
-0.208912
-0.194446
-0.181249
-0.169236
-0.158301
-0.148339
-0.139251
-0.130942
-0.123354
-0.116485
-0.374067
-0.35851
-0.346769
-0.332974
-0.316605
-0.298003
-0.278046
-0.25789
-0.23847
-0.220333
-0.203698
-0.188581
-0.174894
-0.162514
-0.151306
-0.141148
-0.131924
-0.12353
-0.115909
-0.10898
-0.384921
-0.368271
-0.35548
-0.339908
-0.321096
-0.299857
-0.277512
-0.255423
-0.234538
-0.215319
-0.197888
-0.182181
-0.168057
-0.155354
-0.143914
-0.133595
-0.124267
-0.11582
-0.108189
-0.101226
-0.395457
-0.377786
-0.363809
-0.346181
-0.324663
-0.300668
-0.275954
-0.252025
-0.229783
-0.20958
-0.191433
-0.175204
-0.1607
-0.147724
-0.136096
-0.125656
-0.116261
-0.107794
-0.100179
-0.0932099
-0.405403
-0.386793
-0.371471
-0.351506
-0.327072
-0.300275
-0.273265
-0.247619
-0.224143
-0.203061
-0.184286
-0.167607
-0.152784
-0.13959
-0.127824
-0.117308
-0.107888
-0.0994401
-0.0918651
-0.0849274
-0.41446
-0.395003
-0.378156
-0.355592
-0.328101
-0.298525
-0.269345
-0.242132
-0.217558
-0.195711
-0.176401
-0.15935
-0.144277
-0.130925
-0.119075
-0.108533
-0.0991326
-0.0907458
-0.0832456
-0.0763853
-0.422311
-0.402102
-0.383541
-0.358157
-0.327545
-0.295286
-0.264102
-0.235493
-0.20997
-0.187479
-0.167734
-0.150396
-0.135146
-0.121703
-0.109828
-0.0993126
-0.0899814
-0.0817013
-0.0743213
-0.0676001
-0.428628
-0.407765
-0.3873
-0.358933
-0.325222
-0.29044
-0.257456
-0.227641
-0.201327
-0.17832
-0.158246
-0.140714
-0.125367
-0.111903
-0.100065
-0.0896318
-0.0804194
-0.0722927
-0.0650853
-0.0585737
-0.433082
-0.411661
-0.389121
-0.357681
-0.320975
-0.283886
-0.249335
-0.218518
-0.191579
-0.168193
-0.147906
-0.130276
-0.114919
-0.101509
-0.0897739
-0.07948
-0.0704355
-0.0625052
-0.0555115
-0.0492566
-0.435352
-0.413464
-0.388711
-0.354189
-0.314671
-0.275539
-0.239679
-0.208077
-0.180688
-0.157067
-0.136686
-0.119063
-0.103786
-0.0905095
-0.0789465
-0.0688515
-0.0600282
-0.0523378
-0.0455692
-0.0395257
-0.435134
-0.412867
-0.385811
-0.348282
-0.306207
-0.265335
-0.228441
-0.196279
-0.168624
-0.144917
-0.12457
-0.107062
-0.0919584
-0.0788985
-0.0675799
-0.0577463
-0.0492029
-0.0418088
-0.0352686
-0.029319
-0.432151
-0.40959
-0.380201
-0.339824
-0.295503
-0.253227
-0.215588
-0.1831
-0.155365
-0.131727
-0.111544
-0.0942652
-0.0794338
-0.0666763
-0.0556794
-0.0461725
-0.0379667
-0.0309269
-0.0246367
-0.0189142
-0.426159
-0.403386
-0.371706
-0.328714
-0.282512
-0.239188
-0.201101
-0.168524
-0.1409
-0.11749
-0.0976052
-0.0806724
-0.0662214
-0.0538522
-0.0432585
-0.0341485
-0.0263486
-0.0196739
-0.0136695
-0.00838062
-0.416956
-0.394056
-0.360198
-0.314896
-0.267211
-0.22321
-0.184977
-0.152547
-0.125226
-0.102206
-0.0827676
-0.0662969
-0.0523435
-0.0404518
-0.0303242
-0.0216829
-0.0143459
-0.00807964
-0.00242318
0.00235253
-0.404387
-0.381456
-0.345593
-0.298346
-0.249605
-0.205304
-0.167222
-0.135178
-0.108364
-0.0858984
-0.0670661
-0.0511803
-0.0377955
-0.0264788
-0.0169003
-0.00879534
-0.00197672
0.00382932
0.00908398
0.0133054
-0.388347
-0.365493
-0.327851
-0.279077
-0.229727
-0.1855
-0.147861
-0.116451
-0.090366
-0.0686236
-0.0504946
-0.0353232
-0.0226181
-0.0119617
-0.00301274
0.00448863
0.0107327
0.0160284
0.020836
0.0244667
-0.368785
-0.346128
-0.306979
-0.257136
-0.207637
-0.16385
-0.126946
-0.0964535
-0.0712404
-0.0503852
-0.0331074
-0.0187635
-0.00684488
0.00306452
0.011307
0.0181383
0.0237522
0.0284914
0.032811
0.0358124
-0.345703
-0.323378
-0.283041
-0.232617
-0.183407
-0.140431
-0.104591
-0.0751739
-0.0510465
-0.0312368
-0.0149506
-0.0015482
0.00948314
0.0185598
0.0260213
0.0321176
0.0370472
0.0411857
0.0449765
0.0473113
-0.319154
-0.297317
-0.256176
-0.205683
-0.157095
-0.115325
-0.0808169
-0.0527116
-0.0298527
-0.011242
0.00391972
0.0162695
0.0263178
0.0344792
0.0410877
0.0463863
0.0505793
0.054073
0.0572916
0.058924
-0.289242
-0.268074
-0.226573
-0.176467
-0.128782
-0.0886195
-0.0557299
-0.0291571
-0.00773995
0.00952583
0.0234384
0.0346295
0.0436042
0.0507719
0.056459
0.0609005
0.0643081
0.0671138
0.0697137
0.0706071
-0.256129
-0.235846
-0.194323
-0.144783
-0.0988937
-0.0604973
-0.0294502
-0.00461215
0.0152001
0.0309844
0.0435316
0.0534647
0.061281
0.0673815
0.0720823
0.0756113
0.0781912
0.0802725
0.0822089
0.0823318
-0.22003
-0.200926
-0.159262
-0.111244
-0.0674006
-0.0311014
-0.00211233
0.0208098
0.0388658
0.0530425
0.0641174
0.0727016
0.0792813
0.0842459
0.087898
0.0904622
0.0921794
0.0935089
0.0947398
0.0940755
-0.181151
-0.163558
-0.121726
-0.0759951
-0.034513
-0.000591259
0.0261389
0.0469824
0.063146
0.0756008
0.0851072
0.0922609
0.0975339
0.101299
0.103843
0.105393
0.106216
0.106753
0.107191
0.105678
-0.13971
-0.123385
-0.0828459
-0.0392725
-0.000440575
0.0308588
0.0551494
0.0737696
0.0879203
0.0985526
0.106406
0.112059
0.115964
0.118474
0.11986
0.120357
0.120252
0.119895
0.119274
0.116647
-0.0960934
-0.0812296
-0.0424842
-0.00133981
0.0345939
0.0630629
0.0847554
0.101027
0.11306
0.121784
0.127913
0.132005
0.134493
0.135705
0.135901
0.135334
0.134274
0.13284
0.130688
0.126562
-0.0507453
-0.0373558
-0.000823119
0.0375451
0.070357
0.0958232
0.114784
0.1286
0.138431
0.145176
0.149523
0.152007
0.153037
0.152921
0.151916
0.150296
0.148264
0.145597
0.141695
0.136454
-0.00392666
0.00780547
0.0418389
0.0771159
0.106609
0.128932
0.145055
0.156332
0.163893
0.168603
0.171124
0.171964
0.171509
0.170047
0.167839
0.165163
0.162118
0.158177
0.152913
0.14952
0.0439736
0.0538627
0.0851631
0.117091
0.143103
0.162177
0.175381
0.184057
0.189298
0.191936
0.192602
0.191776
0.189818
0.187004
0.183589
0.179826
0.175693
0.170616
0.164735
0.162119
0.092542
0.100434
0.128799
0.15718
0.179589
0.195338
0.205571
0.211608
0.214501
0.215045
0.21384
0.211337
0.207874
0.203709
0.19909
0.194225
0.189024
0.182997
0.176653
0.17382
0.141361
0.147134
0.172395
0.197085
0.215811
0.228195
0.235432
0.238813
0.239349
0.237796
0.23472
0.230543
0.22558
0.220074
0.214251
0.208284
0.202056
0.19519
0.188346
0.184935
0.190009
0.193573
0.215601
0.236508
0.251516
0.260525
0.264769
0.265503
0.263693
0.260055
0.255122
0.249288
0.242842
0.236011
0.228999
0.221946
0.214733
0.207063
0.199634
0.195495
0.238067
0.23936
0.25807
0.275155
0.286447
0.292107
0.293389
0.291506
0.287381
0.28169
0.27493
0.267466
0.259565
0.251434
0.243255
0.235143
0.226983
0.218529
0.210473
0.205543
0.285118
0.284111
0.299464
0.312733
0.320357
0.322725
0.3211
0.316656
0.310266
0.302568
0.294025
0.284974
0.275657
0.26626
0.256945
0.247807
0.238732
0.229513
0.220815
0.21507
0.330755
0.327449
0.339453
0.348961
0.352999
0.352164
0.347718
0.340788
0.332204
0.322563
0.312296
0.30171
0.291025
0.280408
0.269998
0.259872
0.249918
0.239959
0.230624
0.224055
0.374583
0.369011
0.377718
0.383565
0.38414
0.380221
0.373062
0.363745
0.353055
0.341551
0.329631
0.317577
0.305584
0.293799
0.282343
0.271273
0.260482
0.249818
0.23986
0.232473
0.416224
0.408447
0.413957
0.416285
0.413553
0.406697
0.396958
0.385373
0.372684
0.359413
0.345927
0.332481
0.31925
0.30636
0.293913
0.281951
0.27037
0.259041
0.248485
0.240296
0.455317
0.445427
0.447882
0.446874
0.441024
0.431407
0.419245
0.40553
0.390965
0.376037
0.361083
0.346334
0.331943
0.318019
0.304645
0.291849
0.279532
0.267583
0.25646
0.247496
0.491526
0.479644
0.479225
0.475102
0.466354
0.454176
0.439767
0.424081
0.407779
0.391318
0.375006
0.359052
0.343591
0.328712
0.314482
0.300915
0.28792
0.275403
0.263749
0.254048
0.524539
0.510811
0.507738
0.500756
0.489359
0.474843
0.458385
0.440901
0.423016
0.405158
0.387611
0.370561
0.354124
0.338377
0.323367
0.3091
0.295492
0.282461
0.270319
0.259929
0.554071
0.538671
0.533197
0.523643
0.50987
0.49326
0.474969
0.455876
0.436577
0.41747
0.398818
0.380788
0.363482
0.346959
0.331254
0.316362
0.302207
0.288721
0.276138
0.265118
0.579871
0.562992
0.555402
0.543589
0.527737
0.509297
0.489404
0.468906
0.448371
0.428174
0.408558
0.389674
0.371609
0.354409
0.338097
0.322661
0.308032
0.294149
0.28118
0.269596
0.601717
0.583573
0.574179
0.560446
0.542831
0.52284
0.50159
0.479902
0.458321
0.437202
0.416771
0.397164
0.378456
0.360685
0.34386
0.327962
0.312934
0.298718
0.285418
0.27335
0.619421
0.600245
0.589379
0.574086
0.55504
0.533792
0.511443
0.488791
0.466362
0.444495
0.423403
0.403211
0.383984
0.365749
0.348508
0.332239
0.316888
0.302404
0.288834
0.276367
0.632833
0.612871
0.600885
0.584406
0.564276
0.542076
0.518892
0.49551
0.472439
0.450007
0.428415
0.407779
0.388159
0.369573
0.352018
0.335467
0.319872
0.305185
0.291411
0.278637
0.641839
0.621346
0.608606
0.59133
0.570471
0.547631
0.523888
0.500015
0.476513
0.453701
0.431773
0.41084
0.390956
0.372135
0.354369
0.337629
0.321871
0.307048
0.293135
0.280155
0.646361
0.625601
0.612482
0.594805
0.57358
0.550418
0.526394
0.502275
0.478557
0.455554
0.433458
0.412375
0.392358
0.37342
0.355548
0.338712
0.322873
0.307982
0.294
0.280914
0.64636
0.6256
0.612481
0.594804
0.573579
0.550418
0.526394
0.502275
0.478557
0.455554
0.433457
0.412375
0.392358
0.373419
0.355547
0.338712
0.322873
0.307982
0.294
0.280914
0.641838
0.621345
0.608605
0.591329
0.57047
0.54763
0.523887
0.500015
0.476513
0.4537
0.431773
0.41084
0.390955
0.372134
0.354368
0.337628
0.32187
0.307048
0.293135
0.280154
0.632831
0.612869
0.600884
0.584405
0.564275
0.542074
0.518891
0.495509
0.472438
0.450006
0.428414
0.407778
0.388158
0.369572
0.352017
0.335466
0.319871
0.305185
0.29141
0.278637
0.619418
0.600243
0.589377
0.574083
0.555038
0.53379
0.511441
0.488789
0.46636
0.444494
0.423402
0.403209
0.383982
0.365748
0.348507
0.332238
0.316887
0.302403
0.288833
0.276366
0.601713
0.58357
0.574175
0.560443
0.542828
0.522838
0.501588
0.4799
0.458319
0.4372
0.416769
0.397162
0.378454
0.360683
0.343858
0.327961
0.312932
0.298717
0.285417
0.273349
0.579867
0.562988
0.555398
0.543586
0.527734
0.509294
0.489401
0.468903
0.448368
0.428172
0.408556
0.389672
0.371606
0.354407
0.338095
0.322659
0.30803
0.294147
0.281178
0.269595
0.554066
0.538666
0.533192
0.523638
0.509866
0.493256
0.474966
0.455873
0.436574
0.417467
0.398815
0.380786
0.363479
0.346956
0.331252
0.31636
0.302205
0.288718
0.276136
0.265116
0.524533
0.510805
0.507732
0.500751
0.489354
0.474838
0.458381
0.440897
0.423013
0.405155
0.387608
0.370557
0.354121
0.338374
0.323365
0.309098
0.295489
0.282459
0.270317
0.259927
0.491519
0.479637
0.479218
0.475097
0.466349
0.454171
0.439763
0.424077
0.407775
0.391314
0.375003
0.359049
0.343587
0.328709
0.314479
0.300912
0.287917
0.275401
0.263747
0.254046
0.455309
0.44542
0.447875
0.446868
0.441018
0.431402
0.41924
0.405526
0.390961
0.376033
0.361079
0.34633
0.331939
0.318016
0.304642
0.291846
0.279529
0.26758
0.256457
0.247493
0.416215
0.408439
0.41395
0.416278
0.413546
0.406691
0.396953
0.385368
0.372679
0.359408
0.345923
0.332477
0.319246
0.306356
0.293909
0.281948
0.270367
0.259038
0.248482
0.240293
0.374574
0.369002
0.37771
0.383557
0.384133
0.380214
0.373056
0.363739
0.353049
0.341546
0.329626
0.317572
0.30558
0.293795
0.282339
0.271269
0.260478
0.249814
0.239857
0.23247
0.330745
0.32744
0.339444
0.348952
0.352992
0.352157
0.347711
0.340782
0.332198
0.322558
0.31229
0.301705
0.291021
0.280403
0.269993
0.259868
0.249914
0.239956
0.23062
0.224052
0.285107
0.2841
0.299454
0.312724
0.320348
0.322717
0.321093
0.316649
0.31026
0.302562
0.294019
0.284968
0.275651
0.266255
0.25694
0.247802
0.238727
0.229508
0.220811
0.215066
0.238055
0.239349
0.25806
0.275145
0.286438
0.292099
0.293381
0.291499
0.287374
0.281683
0.274923
0.26746
0.25956
0.251429
0.24325
0.235138
0.226978
0.218524
0.210469
0.205539
0.189996
0.193561
0.215589
0.236498
0.251506
0.260516
0.26476
0.265495
0.263685
0.260048
0.255116
0.249281
0.242836
0.236005
0.228993
0.221941
0.214728
0.207058
0.199629
0.19549
0.141347
0.147121
0.172383
0.197074
0.215801
0.228185
0.235423
0.238805
0.239341
0.237789
0.234713
0.230536
0.225573
0.220067
0.214246
0.208278
0.202051
0.195185
0.188341
0.18493
0.0925275
0.10042
0.128786
0.157168
0.179578
0.195328
0.205562
0.211599
0.214492
0.215037
0.213833
0.21133
0.207867
0.203703
0.199084
0.194219
0.189018
0.182992
0.176648
0.173815
0.0439582
0.0538478
0.0851493
0.117079
0.143091
0.162166
0.175371
0.184048
0.189289
0.191928
0.192594
0.191768
0.189811
0.186997
0.183583
0.17982
0.175687
0.17061
0.164729
0.162114
-0.00394292
0.00778972
0.0418243
0.0771025
0.106596
0.128921
0.145044
0.156322
0.163883
0.168594
0.171115
0.171956
0.171501
0.17004
0.167832
0.165157
0.162111
0.158171
0.152907
0.149515
-0.0507624
-0.0373724
-0.000838538
0.0375309
0.0703439
0.0958111
0.114773
0.12859
0.138421
0.145166
0.149514
0.151998
0.153029
0.152914
0.151909
0.150289
0.148257
0.14559
0.141689
0.136448
-0.0961115
-0.0812471
-0.0425004
-0.00135473
0.0345802
0.0630502
0.0847435
0.101015
0.11305
0.121774
0.127904
0.131996
0.134484
0.135697
0.135893
0.135326
0.134266
0.132833
0.130682
0.126555
-0.139729
-0.123403
-0.0828629
-0.0392882
-0.000455007
0.0308454
0.0551369
0.0737579
0.0879093
0.0985421
0.106396
0.112049
0.115955
0.118466
0.119852
0.12035
0.120244
0.119887
0.119267
0.11664
-0.181171
-0.163578
-0.121744
-0.0760115
-0.0345281
-0.000605268
0.0261259
0.0469701
0.0631345
0.0755899
0.0850969
0.0922511
0.0975245
0.10129
0.103835
0.105385
0.106208
0.106746
0.107184
0.105671
-0.220051
-0.200946
-0.15928
-0.111262
-0.0674164
-0.031116
-0.00212598
0.020797
0.0388538
0.0530311
0.0641066
0.0726913
0.0792715
0.0842366
0.0878892
0.0904537
0.0921714
0.0935012
0.0947325
0.0940685
-0.25615
-0.235867
-0.194342
-0.1448
-0.0989101
-0.0605126
-0.0294645
-0.0046255
0.0151875
0.0309725
0.0435203
0.0534541
0.0612708
0.0673718
0.0720731
0.0756025
0.0781828
0.0802645
0.0822013
0.0823245
-0.289264
-0.268095
-0.226594
-0.176486
-0.128799
-0.0886354
-0.0557447
-0.029171
-0.00775303
0.00951347
0.0234267
0.0346184
0.0435936
0.0507618
0.0564494
0.0608913
0.0642994
0.0671055
0.0697059
0.0705996
-0.319177
-0.29734
-0.256197
-0.205702
-0.157113
-0.115342
-0.0808323
-0.052726
-0.0298662
-0.0112549
0.00390756
0.0162579
0.0263068
0.0344687
0.0410778
0.0463768
0.0505702
0.0540643
0.0572834
0.0589162
-0.345726
-0.323401
-0.283063
-0.232637
-0.183426
-0.140448
-0.104607
-0.0751889
-0.0510606
-0.0312501
-0.0149632
-0.00156019
0.00947173
0.018549
0.026011
0.0321077
0.0370378
0.0411768
0.044968
0.0473032
-0.368809
-0.346152
-0.307002
-0.257156
-0.207656
-0.163868
-0.126963
-0.096469
-0.071255
-0.050399
-0.0331204
-0.018776
-0.00685671
0.00305325
0.0112963
0.0181281
0.0237425
0.0284822
0.0328022
0.035804
-0.388372
-0.365517
-0.327874
-0.279099
-0.229746
-0.185518
-0.147878
-0.116467
-0.0903811
-0.0686378
-0.0505082
-0.0353361
-0.0226303
-0.0119733
-0.00302386
0.00447803
0.0107226
0.0160188
0.0208269
0.0244581
-0.404412
-0.381481
-0.345617
-0.298368
-0.249625
-0.205323
-0.16724
-0.135194
-0.10838
-0.0859132
-0.0670801
-0.0511936
-0.0378082
-0.0264909
-0.0169119
-0.00880632
-0.00198717
0.00381938
0.00907456
0.0132965
-0.416982
-0.394082
-0.360222
-0.314918
-0.267232
-0.223229
-0.184995
-0.152564
-0.125242
-0.102222
-0.0827821
-0.0663107
-0.0523566
-0.0404643
-0.0303361
-0.0216942
-0.0143567
-0.00808991
-0.00243292
0.00234331
-0.426185
-0.403412
-0.371731
-0.328737
-0.282533
-0.239208
-0.20112
-0.168542
-0.140916
-0.117505
-0.0976202
-0.0806866
-0.0662349
-0.0538651
-0.0432709
-0.0341603
-0.0263598
-0.0196846
-0.0136796
-0.00839013
-0.432177
-0.409616
-0.380226
-0.339847
-0.295525
-0.253247
-0.215607
-0.183118
-0.155382
-0.131743
-0.111559
-0.0942799
-0.0794478
-0.0666897
-0.0556922
-0.0461846
-0.0379783
-0.0309379
-0.0246471
-0.018924
-0.435161
-0.412894
-0.385837
-0.348306
-0.306229
-0.265356
-0.228461
-0.196298
-0.168641
-0.144933
-0.124586
-0.107077
-0.0919728
-0.0789123
-0.067593
-0.0577589
-0.0492148
-0.0418201
-0.0352793
-0.0293291
-0.435379
-0.413491
-0.388737
-0.354213
-0.314694
-0.275561
-0.239699
-0.208096
-0.180706
-0.157084
-0.136703
-0.119079
-0.103801
-0.0905237
-0.0789601
-0.0688645
-0.0600406
-0.0523496
-0.0455804
-0.0395362
-0.43311
-0.411687
-0.389147
-0.357705
-0.320998
-0.283908
-0.249356
-0.218538
-0.191597
-0.168211
-0.147923
-0.130292
-0.114934
-0.101524
-0.089788
-0.0794934
-0.0704483
-0.0625174
-0.055523
-0.0492675
-0.428655
-0.407792
-0.387326
-0.358958
-0.325246
-0.290462
-0.257477
-0.227661
-0.201345
-0.178338
-0.158264
-0.14073
-0.125383
-0.111918
-0.100079
-0.0896458
-0.0804327
-0.0723054
-0.0650973
-0.0585849
-0.422338
-0.402129
-0.383567
-0.358182
-0.327568
-0.295309
-0.264124
-0.235514
-0.20999
-0.187498
-0.167752
-0.150413
-0.135163
-0.121719
-0.109843
-0.099327
-0.0899952
-0.0817144
-0.0743337
-0.0676118
-0.414487
-0.39503
-0.378182
-0.355617
-0.328125
-0.298548
-0.269367
-0.242152
-0.217578
-0.19573
-0.176419
-0.159368
-0.144294
-0.130942
-0.11909
-0.108548
-0.0991469
-0.0907594
-0.0832585
-0.0763974
-0.40543
-0.38682
-0.371497
-0.351531
-0.327096
-0.300298
-0.273287
-0.24764
-0.224163
-0.203081
-0.184305
-0.167625
-0.152802
-0.139607
-0.12784
-0.117324
-0.107902
-0.0994542
-0.0918785
-0.08494
-0.395484
-0.377812
-0.363835
-0.346206
-0.324687
-0.300692
-0.275976
-0.252047
-0.229804
-0.2096
-0.191452
-0.175223
-0.160718
-0.147741
-0.136113
-0.125672
-0.116276
-0.107809
-0.100193
-0.0932231
-0.384948
-0.368297
-0.355505
-0.339933
-0.32112
-0.29988
-0.277534
-0.255445
-0.234559
-0.215339
-0.197907
-0.1822
-0.168076
-0.155372
-0.143932
-0.133612
-0.124284
-0.115835
-0.108204
-0.101239
-0.374093
-0.358535
-0.346794
-0.332999
-0.316629
-0.298026
-0.278069
-0.257912
-0.238491
-0.220354
-0.203718
-0.1886
-0.174914
-0.162533
-0.151325
-0.141166
-0.131941
-0.123546
-0.115925
-0.108995
-0.36316
-0.348754
-0.337954
-0.325677
-0.311456
-0.295307
-0.277699
-0.259527
-0.241662
-0.224696
-0.208933
-0.194467
-0.181269
-0.169256
-0.15832
-0.148357
-0.139269
-0.130959
-0.12337
-0.1165
-0.352356
-0.339142
-0.329198
-0.318211
-0.305837
-0.291908
-0.276549
-0.260375
-0.244132
-0.228417
-0.213599
-0.199843
-0.187183
-0.175577
-0.164948
-0.155213
-0.14629
-0.138094
-0.130559
-0.12377
-0.34185
-0.329851
-0.320699
-0.310812
-0.299997
-0.288019
-0.274756
-0.260543
-0.24596
-0.231565
-0.217759
-0.204771
-0.192694
-0.181532
-0.171242
-0.161763
-0.153028
-0.144971
-0.13751
-0.130819
-0.331776
-0.320996
-0.31259
-0.303648
-0.294134
-0.283827
-0.27246
-0.260124
-0.247208
-0.234182
-0.221451
-0.209287
-0.197839
-0.187157
-0.177235
-0.168035
-0.159509
-0.151612
-0.144242
-0.137662
-0.322234
-0.312656
-0.304964
-0.296847
-0.288415
-0.279509
-0.269807
-0.259219
-0.247936
-0.23631
-0.224708
-0.213424
-0.202651
-0.192485
-0.182958
-0.17406
-0.16576
-0.158041
-0.150775
-0.144317
-0.313293
-0.304882
-0.297878
-0.290496
-0.282969
-0.275221
-0.266943
-0.257933
-0.248211
-0.237986
-0.227556
-0.217207
-0.207157
-0.197545
-0.188441
-0.179867
-0.171807
-0.16428
-0.157132
-0.150801
-0.304999
-0.2977
-0.29136
-0.284647
-0.277886
-0.27109
-0.264003
-0.256377
-0.248104
-0.239251
-0.230018
-0.220651
-0.211376
-0.202361
-0.193711
-0.185484
-0.177678
-0.170354
-0.163333
-0.157132
-0.297369
-0.291113
-0.285415
-0.279322
-0.273223
-0.267211
-0.261105
-0.254661
-0.247692
-0.240146
-0.232111
-0.223766
-0.215318
-0.206948
-0.198789
-0.190934
-0.1834
-0.176288
-0.169402
-0.16333
-0.290407
-0.285113
-0.28003
-0.274517
-0.269005
-0.263649
-0.258345
-0.252888
-0.24706
-0.240721
-0.233854
-0.226554
-0.21898
-0.211308
-0.203685
-0.196236
-0.188994
-0.182105
-0.175361
-0.169413
-0.284099
-0.279676
-0.275178
-0.270214
-0.265234
-0.260439
-0.255795
-0.251149
-0.246291
-0.241033
-0.235272
-0.229014
-0.222352
-0.215432
-0.208397
-0.201398
-0.194477
-0.18783
-0.181232
-0.175402
-0.278421
-0.274775
-0.270826
-0.266383
-0.261895
-0.257592
-0.253499
-0.249517
-0.245465
-0.241145
-0.236396
-0.231147
-0.225415
-0.219296
-0.212908
-0.206413
-0.199856
-0.193476
-0.187044
-0.181316
-0.273338
-0.270373
-0.266935
-0.262987
-0.258961
-0.255103
-0.25148
-0.248043
-0.244652
-0.241121
-0.237268
-0.232962
-0.228149
-0.222865
-0.217182
-0.211256
-0.205122
-0.199057
-0.192806
-0.18721
-0.268808
-0.266432
-0.263464
-0.259983
-0.256397
-0.252951
-0.249742
-0.246761
-0.243908
-0.241027
-0.237937
-0.234478
-0.230542
-0.2261
-0.221168
-0.215878
-0.210236
-0.204562
-0.198554
-0.19309
-0.264784
-0.262907
-0.260371
-0.25733
-0.254162
-0.251106
-0.248274
-0.245683
-0.243272
-0.240916
-0.238457
-0.235729
-0.232592
-0.228966
-0.224807
-0.220207
-0.215142
-0.209938
-0.204249
-0.199201
-0.261212
-0.259755
-0.25761
-0.254982
-0.252215
-0.249532
-0.24705
-0.244806
-0.242764
-0.240833
-0.238882
-0.23676
-0.234317
-0.231441
-0.228041
-0.224165
-0.219717
-0.215151
-0.20978
-0.20538
-0.258031
-0.25693
-0.255137
-0.252896
-0.250511
-0.248186
-0.246038
-0.24411
-0.242387
-0.240804
-0.239257
-0.23762
-0.235752
-0.233531
-0.230833
-0.227662
-0.223899
-0.219848
-0.215553
-0.21092
-0.255183
-0.254387
-0.252909
-0.251028
-0.249005
-0.247024
-0.245196
-0.243565
-0.242127
-0.240836
-0.239613
-0.238357
-0.236947
-0.235263
-0.233184
-0.230627
-0.227633
-0.223894
-0.220946
-0.215392
-0.25262
-0.252073
-0.250882
-0.249335
-0.247654
-0.246003
-0.244481
-0.243132
-0.241955
-0.240918
-0.239961
-0.239004
-0.23795
-0.236685
-0.235125
-0.233048
-0.230839
-0.227168
-0.22545
-0.218919
-0.250281
-0.249952
-0.249017
-0.247779
-0.246418
-0.245078
-0.243849
-0.242767
-0.241835
-0.241026
-0.240294
-0.239577
-0.238797
-0.237852
-0.236702
-0.234979
-0.233483
-0.229719
-0.229202
-0.221562
-0.248117
-0.247981
-0.247283
-0.246325
-0.24526
-0.244212
-0.243258
-0.242429
-0.241725
-0.241126
-0.240592
-0.240074
-0.239509
-0.238809
-0.237964
-0.236519
-0.235577
-0.231733
-0.232326
-0.223472
-0.246085
-0.246129
-0.245649
-0.244944
-0.24415
-0.243372
-0.242672
-0.242078
-0.241588
-0.241181
-0.240825
-0.240478
-0.240088
-0.239582
-0.238951
-0.237761
-0.237147
-0.233423
-0.234757
-0.224914
-0.244152
-0.244373
-0.244089
-0.243615
-0.243066
-0.242531
-0.242065
-0.241685
-0.24139
-0.241159
-0.240963
-0.240765
-0.240522
-0.240174
-0.239696
-0.238753
-0.238246
-0.234923
-0.236406
-0.226217
-0.242294
-0.242695
-0.242588
-0.242321
-0.241992
-0.241675
-0.241416
-0.241229
-0.241109
-0.241035
-0.240981
-0.240915
-0.240797
-0.240578
-0.240216
-0.239493
-0.238959
-0.236234
-0.237314
-0.227629
-0.240496
-0.241082
-0.241139
-0.241056
-0.24092
-0.240795
-0.240718
-0.2407
-0.240732
-0.240795
-0.240865
-0.240912
-0.2409
-0.240785
-0.240519
-0.239968
-0.239374
-0.237267
-0.237671
-0.22917
-0.238753
-0.239531
-0.239737
-0.239817
-0.23985
-0.23989
-0.23997
-0.240096
-0.240258
-0.240439
-0.240614
-0.240754
-0.240828
-0.240797
-0.240608
-0.240177
-0.239549
-0.237944
-0.237697
-0.230674
-0.237069
-0.238044
-0.238386
-0.23861
-0.238789
-0.238969
-0.23918
-0.239427
-0.239698
-0.239975
-0.240235
-0.240451
-0.240593
-0.240624
-0.240495
-0.240143
-0.239518
-0.238255
-0.237568
-0.231962