/*--------------------------------*- C++ -*----------------------------------*\
  =========                 |
  \\      /  F ield         | OpenFOAM: The Open Source CFD Toolbox
   \\    /   O peration     | Website:  https://openfoam.org
    \\  /    A nd           | Version:  7
     \\/     M anipulation  |
\*---------------------------------------------------------------------------*/
FoamFile
{
    version     2.0;
    format      ascii;
    class       volScalarField;
    location    "9.999";
    object      p;
}
// * * * * * * * * * * * * * * * * * * * * * * * * * * * * * * * * * * * * * //

dimensions      [0 2 -2 0 0 0 0];

internalField   nonuniform List<scalar> 
3700
(
0.613429
0.586246
0.565844
0.536149
0.503839
0.470688
0.438244
0.40722
0.378027
0.350825
0.325646
0.302441
0.28115
0.261705
0.243948
0.608794
0.58207
0.562221
0.533025
0.501133
0.468332
0.436183
0.405409
0.376428
0.349408
0.324385
0.30131
0.280126
0.260782
0.243163
0.599563
0.573749
0.555002
0.5268
0.49574
0.463637
0.432075
0.401798
0.37324
0.346582
0.321869
0.299056
0.278083
0.258942
0.241595
0.585814
0.561349
0.544238
0.517518
0.487696
0.456632
0.425946
0.39641
0.368481
0.342362
0.318113
0.295689
0.275033
0.256191
0.239246
0.567659
0.544966
0.530011
0.505244
0.477056
0.447365
0.417835
0.389277
0.362181
0.336774
0.313137
0.291229
0.270992
0.252543
0.236121
0.545252
0.524726
0.512423
0.490064
0.463894
0.435896
0.407793
0.380444
0.354375
0.329848
0.306968
0.285699
0.265982
0.248014
0.232227
0.518778
0.500787
0.491605
0.472087
0.448298
0.422301
0.395884
0.369964
0.345111
0.321624
0.299639
0.279128
0.260029
0.242626
0.227574
0.48846
0.473335
0.46771
0.451437
0.430375
0.406669
0.382184
0.357902
0.334442
0.312148
0.291192
0.271553
0.253164
0.236401
0.222174
0.454552
0.442585
0.440913
0.428262
0.410247
0.389102
0.36678
0.34433
0.322431
0.301475
0.281671
0.263012
0.245423
0.22937
0.216044
0.417337
0.408775
0.411412
0.402724
0.38805
0.369717
0.349767
0.329333
0.30915
0.289663
0.271128
0.25355
0.236846
0.221563
0.209201
0.377128
0.372172
0.379424
0.375003
0.363935
0.348638
0.331255
0.312999
0.294673
0.27678
0.259619
0.243218
0.227476
0.213017
0.201669
0.334263
0.333061
0.345186
0.345292
0.338063
0.326003
0.311357
0.295428
0.279087
0.262896
0.247208
0.23207
0.217362
0.20377
0.193472
0.289104
0.291749
0.308949
0.313799
0.310609
0.301957
0.290197
0.276723
0.262479
0.248088
0.233959
0.220163
0.206554
0.193862
0.184637
0.24203
0.248563
0.270981
0.280744
0.281756
0.276655
0.267906
0.256997
0.244945
0.232438
0.219943
0.207561
0.195108
0.183339
0.175196
0.193438
0.203842
0.231562
0.246357
0.251695
0.250259
0.24462
0.236365
0.226584
0.21603
0.205234
0.194332
0.183087
0.172246
0.165176
0.143736
0.15794
0.190982
0.210874
0.220624
0.222933
0.220479
0.214946
0.207498
0.19895
0.189906
0.180545
0.170559
0.160632
0.154599
0.0933412
0.111221
0.149541
0.174539
0.188747
0.19485
0.195629
0.192865
0.187793
0.18129
0.174034
0.166272
0.157611
0.148569
0.143482
0.0426729
0.0640585
0.107542
0.137599
0.156268
0.166182
0.170215
0.170244
0.167577
0.163142
0.157692
0.151579
0.144334
0.136136
0.131777
-0.00785343
0.0168299
0.0652941
0.100301
0.123395
0.137103
0.144385
0.14721
0.146957
0.144601
0.140953
0.136508
0.130823
0.123554
0.119467
-0.0578198
-0.0300956
0.0231027
0.0628935
0.0903325
0.107788
0.118286
0.123888
0.126041
0.125764
0.123903
0.121108
0.117148
0.111136
0.106292
-0.106814
-0.0763575
-0.0187275
0.0256178
0.0572849
0.0784078
0.0920647
0.1004
0.104933
0.106724
0.106627
0.105391
0.103171
0.0991178
0.0927149
-0.154439
-0.121608
-0.0598995
-0.011292
0.0244505
0.0491319
0.0658638
0.0768694
0.083735
0.0875682
0.0892199
0.0894734
0.0888532
0.0869706
0.0820517
-0.20031
-0.165528
-0.100132
-0.0476136
-0.00797667
0.0201241
0.0398226
0.0534146
0.0625468
0.0683797
0.0717678
0.0734821
0.0743066
0.0744551
0.0716216
-0.24393
-0.207834
-0.139186
-0.0831384
-0.0398072
-0.00845726
0.0140751
0.0301507
0.0414665
0.049236
0.0543318
0.0574922
0.059613
0.06134
0.0603729
-0.285126
-0.247933
-0.176927
-0.11766
-0.0708557
-0.036462
-0.0112506
0.00718749
0.020588
0.0302124
0.0369608
0.0415406
0.0448614
0.0478165
0.0483204
-0.323629
-0.285152
-0.213447
-0.150939
-0.100946
-0.0637492
-0.0360331
-0.015371
6.09626e-07
0.0113839
0.0197085
0.0256633
0.0301347
0.034158
0.0358818
-0.359208
-0.319705
-0.248068
-0.18268
-0.129921
-0.0901864
-0.0601575
-0.0374273
-0.0202113
-0.00717573
0.00263674
0.00990731
0.0154891
0.0205047
0.0233574
-0.391665
-0.351627
-0.280241
-0.212747
-0.157638
-0.115648
-0.083517
-0.0588912
-0.0399691
-0.0253958
-0.0141912
-0.00567549
0.000964941
0.00690599
0.0108397
-0.420816
-0.380661
-0.309888
-0.241
-0.183963
-0.140018
-0.106014
-0.0796804
-0.0592006
-0.0432115
-0.0307165
-0.0210345
-0.013398
-0.00660372
-0.00164884
-0.446528
-0.406566
-0.336991
-0.267314
-0.208794
-0.163189
-0.127558
-0.0997221
-0.0778401
-0.060564
-0.0468861
-0.0361226
-0.0275581
-0.0199817
-0.0140707
-0.468721
-0.429192
-0.361452
-0.291587
-0.232104
-0.185033
-0.148074
-0.11895
-0.0958284
-0.0774005
-0.062653
-0.050896
-0.041475
-0.0331844
-0.0263756
-0.487369
-0.448462
-0.383157
-0.313716
-0.253716
-0.205621
-0.167486
-0.137306
-0.113113
-0.093674
-0.0779768
-0.0653141
-0.0551109
-0.0461762
-0.0385213
-0.502491
-0.464348
-0.402029
-0.333628
-0.273551
-0.224837
-0.18587
-0.154706
-0.129652
-0.109343
-0.092823
-0.0793392
-0.0684312
-0.0589319
-0.0504787
-0.514157
-0.476874
-0.418031
-0.351282
-0.291586
-0.242601
-0.203092
-0.171225
-0.145419
-0.124374
-0.107162
-0.0929409
-0.0814026
-0.0714317
-0.062232
-0.522479
-0.486116
-0.431165
-0.366658
-0.307808
-0.258893
-0.219105
-0.186785
-0.160422
-0.138797
-0.120945
-0.106106
-0.0939925
-0.0836408
-0.073796
-0.527616
-0.492208
-0.44147
-0.379753
-0.322214
-0.273717
-0.233909
-0.20135
-0.174616
-0.152547
-0.134204
-0.118874
-0.106164
-0.0954788
-0.0852401
-0.529765
-0.495341
-0.449027
-0.390588
-0.334812
-0.287085
-0.247518
-0.21492
-0.187982
-0.165607
-0.146904
-0.131173
-0.117973
-0.106868
-0.0966598
-0.529164
-0.495753
-0.453956
-0.39921
-0.345627
-0.299016
-0.259948
-0.227509
-0.200528
-0.17798
-0.159027
-0.142988
-0.129412
-0.117944
-0.107648
-0.526087
-0.493732
-0.456414
-0.405687
-0.354699
-0.309538
-0.271222
-0.239135
-0.212268
-0.189676
-0.170577
-0.154323
-0.140465
-0.128684
-0.118112
-0.520833
-0.489615
-0.456581
-0.410112
-0.362088
-0.318692
-0.281369
-0.249823
-0.223221
-0.200711
-0.181568
-0.165184
-0.151117
-0.139068
-0.128176
-0.513726
-0.483759
-0.454674
-0.412607
-0.367867
-0.32653
-0.290432
-0.259605
-0.233411
-0.211101
-0.192013
-0.175581
-0.161372
-0.149119
-0.137967
-0.505101
-0.476525
-0.450952
-0.413323
-0.372122
-0.333112
-0.298456
-0.268517
-0.242867
-0.22087
-0.201932
-0.185531
-0.171248
-0.158864
-0.147561
-0.495301
-0.46826
-0.44571
-0.412438
-0.374955
-0.338506
-0.305495
-0.276605
-0.251625
-0.230046
-0.211347
-0.195056
-0.180768
-0.168318
-0.156969
-0.484661
-0.459283
-0.439272
-0.410154
-0.376479
-0.342784
-0.311606
-0.283916
-0.259725
-0.238663
-0.220287
-0.204179
-0.189953
-0.177487
-0.166167
-0.473498
-0.449879
-0.431976
-0.406689
-0.376816
-0.346024
-0.316847
-0.290498
-0.267211
-0.246757
-0.228781
-0.212926
-0.198824
-0.186378
-0.17514
-0.462105
-0.440294
-0.424156
-0.402278
-0.376103
-0.348306
-0.321277
-0.296403
-0.274125
-0.254366
-0.236864
-0.221324
-0.207404
-0.195011
-0.183896
-0.450735
-0.430739
-0.416116
-0.397163
-0.374485
-0.349715
-0.324953
-0.301677
-0.280511
-0.26153
-0.244568
-0.229401
-0.21572
-0.203412
-0.192452
-0.439598
-0.421389
-0.408108
-0.391592
-0.372117
-0.350339
-0.32793
-0.306366
-0.286411
-0.268288
-0.251933
-0.23719
-0.223802
-0.21161
-0.200833
-0.428859
-0.412391
-0.400326
-0.385805
-0.369165
-0.350267
-0.330261
-0.310508
-0.291863
-0.274679
-0.258994
-0.244726
-0.231681
-0.219638
-0.209066
-0.418641
-0.403859
-0.392901
-0.380022
-0.365802
-0.349597
-0.331996
-0.314139
-0.296898
-0.280736
-0.265789
-0.252043
-0.239392
-0.22753
-0.217179
-0.409028
-0.395873
-0.385918
-0.374422
-0.3622
-0.348434
-0.333186
-0.317284
-0.301542
-0.286487
-0.272352
-0.259179
-0.246969
-0.235321
-0.225202
-0.400077
-0.388482
-0.379429
-0.36913
-0.358526
-0.34689
-0.333884
-0.319967
-0.30581
-0.291955
-0.27871
-0.266168
-0.254448
-0.24305
-0.233172
-0.391816
-0.381702
-0.373464
-0.364217
-0.354926
-0.345088
-0.334153
-0.322206
-0.309709
-0.297149
-0.284888
-0.273041
-0.261868
-0.250758
-0.241128
-0.384255
-0.37553
-0.368037
-0.359714
-0.351509
-0.343151
-0.334063
-0.324025
-0.313238
-0.302068
-0.290894
-0.279826
-0.269263
-0.258493
-0.249112
-0.37739
-0.369945
-0.363142
-0.355631
-0.348346
-0.341195
-0.3337
-0.325452
-0.31639
-0.306697
-0.296727
-0.286539
-0.276672
-0.266299
-0.257189
-0.371207
-0.364919
-0.358763
-0.351968
-0.345474
-0.339314
-0.333156
-0.326529
-0.319161
-0.311012
-0.302366
-0.29318
-0.28412
-0.274242
-0.265403
-0.365683
-0.360419
-0.354873
-0.348719
-0.34291
-0.337578
-0.332526
-0.327317
-0.321555
-0.31498
-0.30777
-0.299731
-0.291624
-0.282357
-0.273914
-0.360785
-0.356409
-0.351438
-0.345874
-0.340665
-0.336035
-0.331895
-0.32789
-0.323592
-0.318569
-0.312883
-0.306133
-0.299182
-0.290716
-0.282787
-0.356475
-0.352853
-0.348424
-0.343415
-0.338747
-0.334719
-0.331332
-0.328328
-0.325312
-0.321762
-0.317631
-0.312318
-0.306712
-0.299328
-0.292452
-0.352703
-0.34971
-0.345794
-0.341317
-0.337155
-0.333656
-0.330898
-0.328711
-0.326773
-0.324565
-0.321945
-0.318157
-0.314157
-0.308078
-0.302855
-0.349399
-0.346942
-0.343506
-0.339549
-0.335877
-0.332862
-0.330637
-0.329115
-0.328052
-0.327015
-0.325766
-0.323579
-0.321111
-0.317274
-0.313566
-0.346505
-0.344495
-0.341516
-0.338072
-0.33489
-0.332339
-0.330584
-0.329606
-0.329233
-0.329175
-0.329064
-0.328546
-0.32738
-0.326304
-0.322921
-0.343954
-0.34231
-0.339773
-0.336842
-0.334155
-0.332066
-0.330748
-0.33023
-0.330397
-0.331131
-0.331873
-0.333013
-0.332724
-0.334193
-0.331158
-0.341666
-0.340336
-0.338226
-0.335806
-0.333625
-0.332007
-0.331116
-0.331012
-0.331612
-0.332974
-0.334288
-0.336991
-0.337044
-0.341037
-0.338378
-0.339561
-0.338521
-0.336821
-0.334908
-0.333241
-0.332106
-0.33165
-0.331939
-0.332912
-0.33478
-0.336451
-0.340559
-0.340438
-0.347247
-0.34447
-0.337574
-0.336813
-0.335509
-0.334094
-0.332943
-0.3323
-0.332289
-0.332973
-0.3343
-0.336584
-0.338519
-0.34377
-0.343224
-0.352953
-0.349318
-0.335643
-0.335168
-0.334243
-0.333312
-0.332668
-0.332519
-0.332961
-0.334048
-0.33574
-0.338377
-0.340607
-0.346612
-0.345853
-0.35792
-0.3531
-0.333714
-0.333556
-0.332987
-0.332518
-0.332363
-0.332696
-0.333591
-0.335087
-0.337162
-0.340116
-0.342738
-0.349073
-0.348665
-0.361855
-0.356382
-0.331754
-0.331953
-0.331712
-0.331676
-0.331979
-0.332771
-0.334106
-0.336011
-0.338478
-0.341738
-0.344841
-0.351191
-0.351695
-0.364766
-0.359742
-0.329754
-0.330333
-0.330409
-0.330764
-0.331484
-0.332699
-0.334448
-0.336746
-0.339601
-0.343167
-0.346789
-0.353017
-0.354736
-0.366943
-0.363333
-0.32771
-0.328705
-0.329068
-0.329772
-0.330862
-0.332452
-0.334574
-0.337238
-0.340457
-0.344334
-0.348448
-0.354568
-0.357532
-0.36868
-0.366906
-0.325641
-0.32708
-0.327697
-0.328705
-0.330111
-0.332024
-0.33447
-0.337457
-0.341
-0.345179
-0.349715
-0.355825
-0.35982
-0.370115
-0.370113
-0.323583
-0.325479
-0.326318
-0.327583
-0.329249
-0.331427
-0.334142
-0.337402
-0.341227
-0.345655
-0.350553
-0.356731
-0.361495
-0.371293
-0.372646
-0.321583
-0.323934
-0.324962
-0.326438
-0.328312
-0.330699
-0.333625
-0.337102
-0.34115
-0.345792
-0.351002
-0.357116
-0.362702
-0.372096
-0.374414
-0.319699
-0.322486
-0.323671
-0.325315
-0.327347
-0.329889
-0.332974
-0.336612
-0.340825
-0.345631
-0.351043
-0.357167
-0.36344
-0.37185
-0.376238
-0.317996
-0.321179
-0.322491
-0.324264
-0.326411
-0.329064
-0.332259
-0.336009
-0.340333
-0.345251
-0.350781
-0.356957
-0.363608
-0.371379
-0.377426
-0.316538
-0.320063
-0.321472
-0.323339
-0.325565
-0.328292
-0.331558
-0.335378
-0.33977
-0.344753
-0.350345
-0.356564
-0.363368
-0.370824
-0.377939
-0.315384
-0.319179
-0.320659
-0.322592
-0.32487
-0.327642
-0.33095
-0.334809
-0.339237
-0.344251
-0.349867
-0.356104
-0.362941
-0.370276
-0.377997
-0.314585
-0.318567
-0.320093
-0.322067
-0.324375
-0.327172
-0.330502
-0.33438
-0.338823
-0.343847
-0.349468
-0.355704
-0.362529
-0.369837
-0.377849
-0.314176
-0.318254
-0.319802
-0.321796
-0.324117
-0.326925
-0.330264
-0.33415
-0.338598
-0.343624
-0.349243
-0.355473
-0.362282
-0.369593
-0.377711
0.221056
0.198557
0.179383
0.164759
0.152051
0.142256
0.133619
0.126905
0.120907
0.116227
0.112046
0.108813
0.105935
0.103736
0.101809
0.10039
0.0991997
0.0984031
0.0978188
0.0976002
0.220488
0.198168
0.179087
0.164547
0.151882
0.14213
0.133514
0.126823
0.120839
0.116171
0.111996
0.10877
0.105896
0.103701
0.101777
0.10036
0.0991715
0.0983761
0.0977927
0.0975742
0.21935
0.197391
0.178496
0.164122
0.151546
0.141877
0.133306
0.12666
0.120705
0.11606
0.111897
0.108684
0.105819
0.103631
0.101713
0.1003
0.0991151
0.0983222
0.0977406
0.0975224
0.217642
0.196228
0.177611
0.163487
0.151042
0.141498
0.132993
0.126416
0.120502
0.115892
0.111748
0.108555
0.105703
0.103526
0.101616
0.10021
0.0990307
0.0982415
0.0976626
0.097445
0.215362
0.194679
0.176434
0.162644
0.150372
0.140996
0.132579
0.126091
0.120234
0.115671
0.111552
0.108383
0.105549
0.103387
0.101488
0.100091
0.0989186
0.0981344
0.097559
0.0973421
0.21251
0.192747
0.174967
0.161595
0.14954
0.140371
0.132064
0.125685
0.119896
0.115389
0.111308
0.10817
0.105358
0.103213
0.101329
0.0999425
0.0987793
0.0980013
0.0974302
0.0972141
0.209087
0.190434
0.173213
0.160342
0.148548
0.139625
0.131451
0.1252
0.119497
0.115068
0.111018
0.107916
0.10513
0.103007
0.10114
0.0997658
0.0986133
0.0978424
0.0972765
0.0970614
0.205094
0.187744
0.171175
0.15889
0.147399
0.13876
0.130742
0.124638
0.11902
0.114647
0.110683
0.107622
0.104867
0.102768
0.100921
0.0995611
0.098421
0.0976585
0.0970986
0.0968846
0.200534
0.18468
0.168857
0.157239
0.146097
0.137777
0.129941
0.123995
0.118477
0.114266
0.110311
0.107292
0.10457
0.102498
0.100672
0.0993294
0.0982032
0.09745
0.0968969
0.0966842
0.195414
0.181247
0.166264
0.155394
0.144646
0.13668
0.129049
0.123281
0.117868
0.113732
0.109915
0.106931
0.104239
0.102197
0.100396
0.0990712
0.0979606
0.0972177
0.096672
0.0964608
0.189741
0.177448
0.163401
0.153356
0.14305
0.13547
0.12807
0.122495
0.117212
0.113184
0.109451
0.106528
0.103876
0.101866
0.100092
0.0987875
0.097694
0.0969623
0.0964248
0.0962152
0.183523
0.173288
0.160274
0.151127
0.141314
0.134149
0.127007
0.121637
0.116496
0.112578
0.108943
0.10609
0.103481
0.101507
0.0997628
0.0984793
0.0974042
0.0966845
0.0961559
0.0959481
0.176773
0.168771
0.156891
0.148709
0.139443
0.132719
0.125862
0.120712
0.115727
0.111928
0.108381
0.105581
0.103054
0.101121
0.0994087
0.0981477
0.0970922
0.0963854
0.0958662
0.0956605
0.169505
0.163897
0.153261
0.146103
0.137443
0.131183
0.124639
0.11972
0.114907
0.111228
0.107774
0.10512
0.102614
0.100712
0.0990313
0.0977936
0.0967589
0.0960657
0.0955564
0.095353
0.161733
0.158668
0.149393
0.143312
0.135316
0.129544
0.12334
0.118664
0.114036
0.110487
0.107129
0.104529
0.102159
0.10028
0.0986315
0.097418
0.0964056
0.0957264
0.0952276
0.0950268
0.153477
0.153081
0.145297
0.140339
0.133069
0.127806
0.121968
0.117548
0.113116
0.109706
0.106458
0.10394
0.101624
0.099821
0.0981999
0.097024
0.0960333
0.0953685
0.0948805
0.0946828
0.144749
0.147127
0.140981
0.137186
0.130703
0.125972
0.120524
0.116372
0.112148
0.108884
0.105752
0.103319
0.101072
0.0993391
0.0977928
0.0966123
0.0956427
0.094993
0.0945163
0.094322
0.135589
0.140811
0.13646
0.133854
0.12822
0.12404
0.119007
0.115136
0.111132
0.108022
0.105014
0.10267
0.100495
0.098811
0.0973128
0.0961919
0.0952354
0.094602
0.0941357
0.0939456
0.125966
0.134152
0.131761
0.130408
0.125662
0.122064
0.117458
0.11388
0.110098
0.107146
0.104261
0.10201
0.0999081
0.0982802
0.0968244
0.09574
0.0948285
0.0941988
0.0937396
0.0935548
0.115443
0.126672
0.126612
0.126638
0.122899
0.119945
0.115795
0.112537
0.108989
0.106208
0.103455
0.101303
0.0992808
0.0977145
0.096309
0.0952591
0.0943772
0.0937754
0.0933312
0.0931507
0.100236
0.114447
0.118311
0.119573
0.117653
0.11554
0.112414
0.109692
0.106739
0.104291
0.101894
0.0999516
0.0981485
0.0967162
0.0954467
0.0944787
0.0936742
0.0931166
0.0927165
0.092555
0.0885635
0.100965
0.107867
0.110652
0.110675
0.109721
0.107764
0.105818
0.103586
0.101644
0.0996978
0.0980807
0.0965623
0.0953393
0.0942487
0.0934099
0.0927085
0.0922183
0.0918703
0.0917342
0.0778781
0.0899655
0.0982493
0.102259
0.103862
0.103975
0.10309
0.101891
0.100357
0.0989155
0.0974205
0.0961345
0.0949069
0.0938997
0.0929938
0.0922894
0.0916969
0.0912793
0.0909841
0.0908698
0.0679864
0.0803465
0.0894456
0.0944571
0.0973239
0.0983924
0.0984831
0.0979825
0.0971162
0.0961558
0.095106
0.0941437
0.0932089
0.0924155
0.0916974
0.0911271
0.0906469
0.0903039
0.0900634
0.0899687
0.0591136
0.0717417
0.0814014
0.0872593
0.0911186
0.0930393
0.0939871
0.0941401
0.0938956
0.0933978
0.0927761
0.0921309
0.0914835
0.090902
0.0903707
0.0899343
0.0895669
0.0892991
0.0891136
0.0890377
0.0512881
0.0640291
0.0740677
0.0806267
0.0852697
0.0879431
0.0896319
0.090393
0.0907175
0.0906632
0.0904469
0.0901117
0.0897429
0.0893708
0.0890231
0.08872
0.0884646
0.088272
0.0881408
0.0880836
0.0444132
0.0571342
0.0674067
0.0745181
0.0797861
0.0831151
0.0854425
0.0867626
0.0876034
0.0879705
0.0881347
0.0881003
0.0879985
0.0878325
0.0876633
0.0874926
0.0873471
0.0872294
0.0871514
0.0871129
0.0383524
0.0509755
0.0613745
0.0689021
0.0746688
0.0785606
0.081438
0.0832656
0.0845724
0.0853361
0.0858547
0.0861096
0.0862621
0.0862971
0.0863002
0.0862599
0.0862215
0.0861778
0.0861513
0.086132
0.0329969
0.0454707
0.0559194
0.0637501
0.0699125
0.0742805
0.0776311
0.0799146
0.0816405
0.0827735
0.0836206
0.0841515
0.0845444
0.0847741
0.0849424
0.0850298
0.0850948
0.0851238
0.085147
0.0851471
0.0282625
0.0405487
0.0509889
0.059033
0.0655066
0.0702731
0.0740296
0.0767187
0.0788204
0.0802943
0.0814445
0.0822363
0.0828555
0.0832722
0.083598
0.0838094
0.0839738
0.0840736
0.0841444
0.0841642
0.024079
0.0361488
0.0465349
0.0547217
0.0614372
0.0665339
0.0706375
0.0736846
0.0761221
0.077908
0.0793369
0.0803734
0.0812044
0.0817995
0.0822748
0.0826056
0.0828651
0.0830333
0.0831497
0.0831891
0.020384
0.0322182
0.0425142
0.0507885
0.0576883
0.0630564
0.0674554
0.0708165
0.073553
0.0756226
0.0773065
0.0785709
0.0795996
0.0803634
0.0809798
0.0814251
0.0817748
0.0820089
0.0821685
0.0822276
0.0171222
0.0287093
0.0388883
0.0472067
0.0542433
0.0598328
0.0644819
0.0681167
0.0711183
0.0734444
0.0753609
0.0768361
0.0780483
0.0789707
0.0797199
0.0802739
0.080709
0.0810059
0.0812064
0.0812848
0.0142443
0.0255794
0.0356224
0.0439515
0.0510856
0.0568541
0.0617137
0.0655862
0.0688219
0.0713786
0.0735061
0.0751754
0.0765572
0.0776278
0.0785011
0.0791577
0.0796732
0.0800297
0.0802689
0.080366
0.0117072
0.0227905
0.0326851
0.0409994
0.048199
0.054111
0.0591465
0.0632244
0.066666
0.069429
0.0717473
0.073594
0.0751319
0.0763401
0.0773291
0.0780819
0.0786728
0.0790854
0.0793609
0.079476
0.0094727
0.0203087
0.0300481
0.0383287
0.0455682
0.0515937
0.0567753
0.06103
0.0646518
0.0675987
0.0700886
0.0720968
0.0737775
0.0751128
0.0762088
0.0770514
0.0777125
0.0781777
0.0784872
0.0786194
0.00750765
0.018104
0.0276861
0.0359193
0.0431784
0.0492925
0.0545946
0.0590009
0.0627797
0.0658897
0.0685332
0.0706876
0.0724984
0.0739504
0.0751451
0.0760708
0.076797
0.0773112
0.0776522
0.0778006
0.00578283
0.01615
0.0255763
0.0337529
0.0410158
0.0471981
0.0525987
0.0571342
0.0610493
0.0643033
0.0670837
0.0693699
0.0712985
0.072857
0.0741419
0.0751442
0.0759304
0.0764898
0.07686
0.0770235
0.0042728
0.0144234
0.0236984
0.0318127
0.0390677
0.0453013
0.0507819
0.0554272
0.0594598
0.0628404
0.0657421
0.0681462
0.070181
0.071836
0.0732031
0.0742754
0.0751164
0.0757175
0.0761144
0.0762919
0.00295541
0.0129037
0.0220343
0.0300837
0.0373223
0.0435936
0.0491385
0.0538765
0.0580101
0.0615013
0.0645099
0.067019
0.0691487
0.0708907
0.072332
0.0734678
0.0743587
0.0749976
0.0754189
0.0756093
0.00181143
0.0115732
0.0205682
0.0285525
0.035769
0.0420671
0.0476632
0.0524791
0.0566988
0.060286
0.0633882
0.0659901
0.068204
0.0700238
0.0715316
0.0727245
0.0736603
0.0743334
0.0747768
0.0749789
0.000824294
0.0104161
0.0192859
0.0272069
0.034398
0.0407144
0.0463509
0.0512316
0.0555245
0.0591944
0.0623778
0.0650609
0.067349
0.0692375
0.0708043
0.0720482
0.073024
0.0737277
0.0741908
0.0744035
-2.02165e-05
0.00941916
0.0181752
0.0260365
0.0332007
0.0395288
0.0451968
0.0501312
0.0544854
0.058226
0.0614792
0.0642328
0.0665853
0.068534
0.0701525
0.0714412
0.0724523
0.0731831
0.0736636
0.0738856
-0.00073419
0.00857078
0.0172255
0.0250319
0.0321695
0.0385045
0.0441966
0.049175
0.0535801
0.0573803
0.0606927
0.0635065
0.0659144
0.067915
0.0695782
0.0709057
0.0719475
0.0727018
0.0731974
0.0734275
-0.00132778
0.00786122
0.0164278
0.0241853
0.0312977
0.0376362
0.0433466
0.0483603
0.0528072
0.0566567
0.0600185
0.0628829
0.0653374
0.0673818
0.069083
0.0704435
0.0715113
0.0722856
0.0727942
0.0730313
-0.00180942
0.00728235
0.0157744
0.02349
0.0305797
0.0369195
0.0426433
0.0476851
0.0521652
0.0560548
0.0594567
0.0623625
0.0648552
0.0669358
0.0686682
0.0700561
0.0711454
0.0719364
0.0724556
0.0726985
-0.00218593
0.00682757
0.0152592
0.0229404
0.0300108
0.0363506
0.0420841
0.0471473
0.0516531
0.0555739
0.0590073
0.0619457
0.0644686
0.0665779
0.0683351
0.0697447
0.0708512
0.0716554
0.0721831
0.0724307
-0.00246265
0.00649172
0.0148772
0.0225321
0.0295874
0.0359266
0.0416666
0.0467453
0.0512698
0.0552137
0.0586703
0.0616329
0.0641782
0.0663088
0.0680845
0.0695103
0.0706296
0.0714436
0.0719778
0.0722288
-0.00264359
0.00627092
0.0146246
0.022262
0.0293066
0.0356452
0.0413892
0.046478
0.0510147
0.0549738
0.0584456
0.0614242
0.0639844
0.0661291
0.067917
0.0693536
0.0704814
0.0713021
0.0718405
0.0720938
-0.00273233
0.00616261
0.0144983
0.022128
0.029166
0.0355053
0.0412503
0.0463449
0.050887
0.0548541
0.0583331
0.0613201
0.0638873
0.0660394
0.0678331
0.0692753
0.0704072
0.0712313
0.0717716
0.0720262
0.0852423
0.0762895
0.0667871
0.0576361
0.0492787
0.0417947
0.0351464
0.0292675
0.0240879
0.0195365
0.0155442
0.0120462
0.00898421
0.00630615
0.0039661
0.00192368
0.000143531
-0.00140524
-0.00274952
-0.00391268
-0.0049149
-0.00577354
-0.00650343
-0.00711715
-0.00762521
-0.00803619
-0.00835704
-0.00859338
-0.00874861
-0.00882069
0.0749095
0.0654307
0.0565056
0.048159
0.0406349
0.0339113
0.0279319
0.0226424
0.0179866
0.0139015
0.0103235
0.00719282
0.0044557
0.00206443
-2.29502e-05
-0.00184324
-0.00342861
-0.00480712
-0.00600319
-0.00703799
-0.00792986
-0.00869456
-0.00934557
-0.00989435
-0.0103505
-0.0107217
-0.0110145
-0.0112338
-0.0113827
-0.0114544
0.0630408
0.0521827
0.0434563
0.0357873
0.0291879
0.0234407
0.0184134
0.0140134
0.0101675
0.00680835
0.0038745
0.00131139
-0.000928388
-0.00288577
-0.00459606
-0.00608976
-0.00739322
-0.00852924
-0.00951754
-0.0103751
-0.0111168
-0.0117552
-0.0123011
-0.0127639
-0.0131512
-0.0134695
-0.0137237
-0.0139181
-0.0140558
-0.0141272
0.0523465
0.0415389
0.0332756
0.0260481
0.0200041
0.0148571
0.0104493
0.00665725
0.00338561
0.000555722
-0.00189749
-0.00402829
-0.005882
-0.00749658
-0.00890402
-0.0101314
-0.0112017
-0.0121345
-0.0129465
-0.0136521
-0.0142635
-0.0147913
-0.0152446
-0.0156308
-0.0159565
-0.016227
-0.0164461
-0.0166176
-0.0167456
-0.0168209
0.0415063
0.0318295
0.0247532
0.0182554
0.0127949
0.00812067
0.0041362
0.000734438
-0.00217566
-0.00467211
-0.00681925
-0.00867022
-0.010269
-0.0116521
-0.0128502
-0.0138891
-0.0147904
-0.0155725
-0.016251
-0.016839
-0.0173478
-0.0177868
-0.0181644
-0.0184872
-0.0187612
-0.0189911
-0.0191803
-0.0193319
-0.0194516
-0.0195323
0.0300752
0.0214991
0.0157572
0.0102418
0.00560702
0.0015675
-0.00190455
-0.00488274
-0.0074326
-0.00961592
-0.0114868
-0.0130918
-0.0144701
-0.0156548
-0.0166741
-0.0175517
-0.0183079
-0.0189597
-0.0195216
-0.0200061
-0.0204235
-0.0207828
-0.0210917
-0.0213564
-0.0215825
-0.0217743
-0.0219351
-0.0220674
-0.0221779
-0.0222631
0.0185347
0.0108608
0.00614378
0.00150261
-0.00227563
-0.00558507
-0.00843072
-0.010881
-0.0129842
-0.0147864
-0.0163289
-0.0176484
-0.0187765
-0.0197411
-0.0205656
-0.0212706
-0.0218736
-0.0223893
-0.0228307
-0.0232087
-0.0235327
-0.0238106
-0.0240492
-0.0242545
-0.0244313
-0.0245837
-0.0247147
-0.0248263
-0.0249253
-0.0250127
0.00713235
0.000424527
-0.00344251
-0.00736919
-0.0104174
-0.0130603
-0.0152917
-0.0171957
-0.0188189
-0.0202022
-0.0213796
-0.0223803
-0.0232297
-0.0239498
-0.0245596
-0.0250755
-0.025512
-0.025881
-0.0261934
-0.0264581
-0.026683
-0.026875
-0.0270398
-0.0271824
-0.0273072
-0.0274177
-0.0275167
-0.0276056
-0.0276908
-0.0277781
-0.00417811
-0.00979679
-0.0127807
-0.015996
-0.0183806
-0.0204341
-0.022117
-0.0235219
-0.024694
-0.0256739
-0.0264926
-0.0271756
-0.0277441
-0.0282159
-0.0286063
-0.0289286
-0.0291939
-0.0294122
-0.0295918
-0.02974
-0.029863
-0.0299664
-0.030055
-0.030133
-0.0302038
-0.0302706
-0.0303359
-0.0304004
-0.0304699
-0.0305548
-0.0154336
-0.0199364
-0.0219918
-0.0244276
-0.0261257
-0.0275997
-0.0287658
-0.0297101
-0.030468
-0.0310755
-0.0315601
-0.0319441
-0.0322454
-0.032479
-0.0326571
-0.0327905
-0.0328881
-0.0329577
-0.0330057
-0.0330379
-0.0330592
-0.0330739
-0.0330858
-0.0330984
-0.0331144
-0.0331366
-0.033167
-0.0332058
-0.0332581
-0.0333385
-0.0265933
-0.0300181
-0.0311618
-0.0327915
-0.0337795
-0.0346553
-0.0352996
-0.0357904
-0.0361481
-0.0364001
-0.0365673
-0.0366673
-0.0367144
-0.0367202
-0.0366945
-0.0366456
-0.0365805
-0.0365052
-0.0364245
-0.0363427
-0.0362635
-0.0361902
-0.0361258
-0.0360729
-0.0360339
-0.0360107
-0.0360053
-0.0360175
-0.0360512
-0.0361251
-0.0376163
-0.0399971
-0.0402641
-0.0411083
-0.0414009
-0.0416784
-0.041797
-0.041831
-0.0417882
-0.0416874
-0.0415421
-0.0413639
-0.0411625
-0.040946
-0.0407213
-0.0404942
-0.0402697
-0.0400522
-0.039845
-0.0396508
-0.039472
-0.0393113
-0.0391707
-0.0390524
-0.0389579
-0.0388889
-0.038847
-0.0388316
-0.0388455
-0.0389108
-0.0484916
-0.0498477
-0.0492504
-0.0493381
-0.0489663
-0.0486672
-0.0482716
-0.0478539
-0.0474129
-0.0469606
-0.0465039
-0.0460491
-0.045601
-0.0451642
-0.0447424
-0.0443387
-0.0439564
-0.0435981
-0.0432655
-0.0429596
-0.0426817
-0.0424337
-0.042217
-0.042033
-0.0418827
-0.0417673
-0.041688
-0.0416442
-0.0416369
-0.0416919
-0.0592266
-0.0595685
-0.0580996
-0.057455
-0.0564408
-0.0555919
-0.0546996
-0.0538434
-0.0530129
-0.052215
-0.051451
-0.0507223
-0.0500298
-0.0493743
-0.0487567
-0.0481776
-0.0476382
-0.0471399
-0.0466829
-0.0462658
-0.0458889
-0.0455536
-0.0452606
-0.0450106
-0.044804
-0.0446416
-0.0445243
-0.0444511
-0.0444216
-0.0444647
-0.0698338
-0.0691466
-0.0668063
-0.0654548
-0.0638104
-0.0624378
-0.0610606
-0.0597799
-0.0585714
-0.0574368
-0.0563721
-0.0553745
-0.0544412
-0.0535699
-0.0527586
-0.0520057
-0.05131
-0.0506725
-0.050093
-0.0495648
-0.0490888
-0.0486662
-0.0482968
-0.0479806
-0.0477175
-0.0475075
-0.0473515
-0.0472484
-0.0471955
-0.0472253
-0.0803295
-0.0785329
-0.0753753
-0.0733359
-0.0710755
-0.0692031
-0.0673462
-0.0656536
-0.0640773
-0.0626152
-0.0612573
-0.0599968
-0.0588272
-0.0577436
-0.0567413
-0.0558167
-0.0549662
-0.0541893
-0.0534912
-0.0528512
-0.0522763
-0.0517666
-0.0513209
-0.0509383
-0.0506184
-0.0503606
-0.0501654
-0.0500319
-0.0499546
-0.0499697
-0.0907015
-0.0876518
-0.083841
-0.081092
-0.0782489
-0.0758804
-0.0735527
-0.0714614
-0.069527
-0.0677457
-0.0661015
-0.0645836
-0.0631824
-0.0618899
-0.0606995
-0.0596054
-0.058602
-0.057684
-0.0568729
-0.0561193
-0.0554461
-0.0548496
-0.0543277
-0.0538789
-0.0535022
-0.0531963
-0.0529614
-0.0527973
-0.052695
-0.0526937
-0.100891
-0.0966491
-0.0923019
-0.0887925
-0.0853958
-0.0824281
-0.0796777
-0.0771991
-0.0749195
-0.0728273
-0.0709032
-0.0691329
-0.067504
-0.066006
-0.06463
-0.0633683
-0.0622147
-0.0611527
-0.0602322
-0.0593619
-0.0585924
-0.0579098
-0.0573122
-0.0567976
-0.0563641
-0.0560102
-0.0557353
-0.0555403
-0.0554134
-0.0553927
-0.110715
-0.105543
-0.100632
-0.096413
-0.0924785
-0.0889717
-0.085792
-0.0829207
-0.0802934
-0.0778889
-0.0756842
-0.0736612
-0.0718044
-0.0701008
-0.0685395
-0.0671109
-0.065807
-0.0646156
-0.0635436
-0.0625718
-0.0617077
-0.0609409
-0.0602688
-0.0596889
-0.0591991
-0.0587975
-0.0584829
-0.0582556
-0.0581075
-0.0580622
-0.12021
-0.114298
-0.108791
-0.103924
-0.0994679
-0.0954798
-0.0918743
-0.0886125
-0.0856375
-0.0829211
-0.0804361
-0.0781607
-0.0760763
-0.0741674
-0.0724207
-0.0708249
-0.0693699
-0.0680438
-0.0668406
-0.0657618
-0.064801
-0.0639485
-0.063201
-0.0625552
-0.0620085
-0.0615586
-0.0612039
-0.060944
-0.060774
-0.0607069
-0.129489
-0.122925
-0.116791
-0.111313
-0.106348
-0.101905
-0.0978856
-0.0942442
-0.0909278
-0.0879043
-0.0851427
-0.0826176
-0.0803077
-0.0781949
-0.0762639
-0.0745016
-0.072896
-0.0714351
-0.0701125
-0.0689255
-0.0678667
-0.0669274
-0.0661037
-0.0653915
-0.0647876
-0.0642892
-0.0638942
-0.0636017
-0.063408
-0.0633242
-0.138638
-0.131444
-0.124646
-0.118577
-0.113116
-0.10823
-0.103808
-0.0997984
-0.0961497
-0.0928258
-0.0897926
-0.0870218
-0.0844893
-0.082175
-0.0800616
-0.0781343
-0.0763799
-0.074786
-0.0733455
-0.0720509
-0.0708945
-0.0698688
-0.0689692
-0.0681908
-0.0675298
-0.066983
-0.066548
-0.0662233
-0.0660049
-0.0659058
-0.147684
-0.139839
-0.132375
-0.125732
-0.119788
-0.114466
-0.109647
-0.105278
-0.101304
-0.0976853
-0.0943847
-0.0913712
-0.0886188
-0.086105
-0.0838108
-0.08172
-0.0798182
-0.078092
-0.0765327
-0.0751308
-0.0738779
-0.0727668
-0.0717918
-0.0709477
-0.07023
-0.0696353
-0.0691607
-0.0688041
-0.0685613
-0.0684455
-0.156603
-0.148106
-0.139989
-0.132792
-0.126378
-0.120626
-0.115417
-0.110693
-0.106398
-0.102487
-0.0989215
-0.0956674
-0.0926965
-0.0899846
-0.0875107
-0.0852572
-0.0832084
-0.0813499
-0.0796714
-0.0781624
-0.0768138
-0.0756178
-0.0745681
-0.0736587
-0.0728849
-0.0722427
-0.0717288
-0.071341
-0.0710741
-0.0709409
-0.165378
-0.156256
-0.147505
-0.13977
-0.132895
-0.126719
-0.121125
-0.11605
-0.111435
-0.107234
-0.103405
-0.0999113
-0.0967226
-0.0938129
-0.0911597
-0.0887438
-0.0865482
-0.0845573
-0.0827597
-0.0811437
-0.0796998
-0.0784194