/*--------------------------------*- C++ -*----------------------------------*\
  =========                 |
  \\      /  F ield         | OpenFOAM: The Open Source CFD Toolbox
   \\    /   O peration     | Website:  https://openfoam.org
    \\  /    A nd           | Version:  7
     \\/     M anipulation  |
\*---------------------------------------------------------------------------*/
FoamFile
{
    version     2.0;
    format      ascii;
    class       volVectorField;
    location    "9.999";
    object      U;
}
// * * * * * * * * * * * * * * * * * * * * * * * * * * * * * * * * * * * * * //

dimensions      [0 1 -1 0 0 0 0];

internalField   nonuniform List<vector> 
3700
(
(0.0320585 -0.0168204 3.8567e-20)
(0.128316 -0.0262249 -4.82352e-21)
(0.24978 -0.0255446 -1.98213e-20)
(0.347648 -0.0225874 1.01201e-20)
(0.431678 -0.0196919 3.07038e-20)
(0.502728 -0.0172603 -2.65799e-20)
(0.563768 -0.0152089 -9.50404e-22)
(0.616383 -0.0134652 -2.85257e-21)
(0.662082 -0.0119706 1.18053e-20)
(0.701953 -0.0106807 1.67046e-21)
(0.736926 -0.0095603 -7.40972e-21)
(0.767732 -0.00858116 -5.85362e-21)
(0.794944 -0.00771527 -2.08208e-20)
(0.818996 -0.00693708 2.17114e-20)
(0.840341 -0.00625077 -8.49613e-21)
(0.0345641 -0.0503172 -8.06537e-20)
(0.132088 -0.0784951 4.62348e-20)
(0.253394 -0.0764816 1.58838e-20)
(0.350798 -0.0676377 -3.38353e-21)
(0.434379 -0.0589715 -2.84495e-20)
(0.505059 -0.0516927 -5.17362e-20)
(0.565791 -0.0455517 4.17326e-20)
(0.61815 -0.0403313 -6.72077e-21)
(0.663634 -0.0358566 -3.09669e-20)
(0.703323 -0.0319945 -3.00212e-20)
(0.738141 -0.0286398 3.54756e-20)
(0.768818 -0.0257077 -3.60364e-20)
(0.795927 -0.0231144 4.82536e-20)
(0.819886 -0.0207842 -4.33467e-20)
(0.841095 -0.0187313 -8.35694e-21)
(0.039546 -0.0833831 -1.24272e-19)
(0.1396 -0.130228 -2.13743e-19)
(0.260594 -0.126963 -1.15419e-20)
(0.357077 -0.112316 5.24996e-20)
(0.439764 -0.0979398 2.47026e-20)
(0.509704 -0.0858612 8.28162e-20)
(0.569824 -0.0756696 -5.44367e-20)
(0.621672 -0.0670049 -6.11159e-20)
(0.666729 -0.0595773 6.60887e-20)
(0.706055 -0.0531658 2.46718e-20)
(0.740565 -0.047596 -7.30238e-20)
(0.770984 -0.0427271 2.42372e-20)
(0.797889 -0.0384194 -2.0449e-20)
(0.821659 -0.0345502 -2.12295e-20)
(0.842603 -0.0311485 -3.20439e-20)
(0.0469458 -0.115735 1.08926e-19)
(0.150783 -0.181071 3.45492e-19)
(0.271327 -0.176689 -1.6177e-19)
(0.366441 -0.156376 1.26134e-20)
(0.447796 -0.136392 -5.5425e-20)
(0.516635 -0.119592 1.50316e-19)
(0.575842 -0.105415 -4.23501e-21)
(0.62693 -0.0933594 -5.40261e-22)
(0.671347 -0.0830237 -4.49714e-20)
(0.710134 -0.0741007 4.76822e-20)
(0.744183 -0.066348 1.22848e-19)
(0.774217 -0.0595688 4.11921e-20)
(0.800817 -0.0535683 5.92936e-21)
(0.824307 -0.0481813 -9.22753e-21)
(0.844859 -0.0434597 3.70896e-20)
(0.0566766 -0.147097 2.24873e-19)
(0.165538 -0.230675 -1.63455e-19)
(0.285513 -0.225364 -3.83974e-21)
(0.378826 -0.199577 -1.70725e-20)
(0.458423 -0.174126 1.15105e-19)
(0.525807 -0.152714 -8.42702e-20)
(0.583807 -0.134641 2.89045e-20)
(0.633889 -0.11927 -3.76831e-20)
(0.677462 -0.106089 2.21246e-20)
(0.715535 -0.0947069 -1.207e-19)
(0.748975 -0.0848157 -8.68538e-20)
(0.7785 -0.0761634 -5.28992e-20)
(0.804694 -0.0685002 7.65756e-20)
(0.827816 -0.0616242 -1.98362e-20)
(0.847857 -0.0556213 1.75676e-20)
(0.0686232 -0.177202 -2.75638e-21)
(0.183732 -0.278705 -2.60362e-19)
(0.303043 -0.272701 1.9548e-19)
(0.394148 -0.241686 -1.52384e-19)
(0.471575 -0.210947 -1.22788e-19)
(0.537161 -0.185062 6.38239e-20)
(0.593668 -0.163208 -4.27887e-20)
(0.642507 -0.144617 1.58543e-19)
(0.685037 -0.128669 -4.48225e-20)
(0.722227 -0.114894 9.23018e-20)
(0.754914 -0.102922 -4.26987e-20)
(0.783806 -0.0924432 9.3475e-20)
(0.809496 -0.0831557 1.85801e-20)
(0.832167 -0.0748265 3.98978e-20)
(0.851589 -0.0675891 -4.5298e-20)
(0.0826436 -0.205795 1.94561e-20)
(0.2052 -0.324833 2.6007e-19)
(0.323786 -0.318421 -2.48448e-20)
(0.412302 -0.282475 -4.82071e-21)
(0.487165 -0.246666 -3.02673e-20)
(0.550623 -0.216476 -2.86142e-19)
(0.605365 -0.190979 2.0851e-20)
(0.652732 -0.169281 -1.24906e-19)
(0.694027 -0.150662 -1.68016e-20)
(0.730172 -0.134576 -7.64781e-21)
(0.761965 -0.12059 3.30766e-20)
(0.790107 -0.108343 -7.145e-20)
(0.815197 -0.0974774 -1.57962e-19)
(0.837336 -0.0877367 1.6636e-19)
(0.856043 -0.0793182 5.64333e-20)
(0.0985696 -0.232633 -1.38839e-19)
(0.229747 -0.368748 -2.3891e-19)
(0.347584 -0.36226 6.31137e-20)
(0.433163 -0.321728 1.03108e-19)
(0.505092 -0.281103 1.02415e-19)
(0.566108 -0.246802 -6.75514e-21)
(0.618824 -0.217823 -8.22417e-20)
(0.664502 -0.193152 2.38621e-19)
(0.704379 -0.171974 8.5158e-22)
(0.739323 -0.153669 6.02511e-20)
(0.770091 -0.137749 1.37627e-19)
(0.797368 -0.1238 -1.31312e-19)
(0.821764 -0.111411 1.6975e-19)
(0.843297 -0.100305 -8.32637e-20)
(0.861204 -0.0907641 -5.43152e-20)
(0.116209 -0.257493 8.18012e-20)
(0.25715 -0.410157 -7.11265e-20)
(0.374257 -0.403962 1.37956e-19)
(0.456588 -0.359238 -1.1992e-19)
(0.525238 -0.314085 -1.49277e-19)
(0.583518 -0.275896 -1.68896e-19)
(0.633961 -0.243617 6.89051e-20)
(0.677746 -0.216123 4.38431e-20)
(0.71603 -0.192511 -2.08988e-19)
(0.749628 -0.172094 -1.39052e-19)
(0.779244 -0.154329 -1.22941e-19)
(0.805547 -0.138755 1.6938e-19)
(0.829159 -0.124903 -4.92275e-20)
(0.85002 -0.112485 -4.02379e-20)
(0.867056 -0.101883 3.07853e-21)
(0.135344 -0.280168 2.7913e-19)
(0.287154 -0.448782 3.66469e-19)
(0.403599 -0.44329 -1.51592e-19)
(0.482416 -0.394814 -1.72084e-19)
(0.547472 -0.345453 3.70058e-19)
(0.602741 -0.303621 2.93493e-20)
(0.650683 -0.268243 1.26375e-19)
(0.692382 -0.238094 -2.86713e-19)
(0.728914 -0.212187 1.2282e-19)
(0.761028 -0.189775 2.00377e-20)
(0.789376 -0.170266 -7.58027e-20)
(0.814601 -0.153151 -1.83547e-19)
(0.837344 -0.137907 -8.10437e-20)
(0.857471 -0.12423 5.59492e-20)
(0.873579 -0.112631 1.2228e-20)
(0.15574 -0.300474 -1.93905e-19)
(0.319481 -0.484371 -2.45793e-19)
(0.435386 -0.480022 1.52263e-19)
(0.510471 -0.428275 5.54883e-19)
(0.571649 -0.375059 5.03506e-20)
(0.623655 -0.329852 1.30974e-20)
(0.668887 -0.291596 -1.65894e-19)
(0.708325 -0.258974 3.38659e-19)
(0.742955 -0.230924 1.13998e-20)
(0.77346 -0.206644 1.59184e-19)
(0.800428 -0.185499 1.95786e-19)
(0.82448 -0.166937 1.22195e-19)
(0.846272 -0.150377 -1.05659e-20)
(0.865613 -0.135501 3.11866e-20)
(0.880749 -0.122969 1.03679e-19)
(0.177139 -0.31825 -8.58668e-20)
(0.353825 -0.516691 -1.39834e-19)
(0.46937 -0.513956 4.79977e-20)
(0.54056 -0.45946 3.58276e-20)
(0.597613 -0.402767 -4.09979e-19)
(0.646131 -0.354475 4.14749e-19)
(0.688462 -0.313576 -1.46597e-20)
(0.725479 -0.278677 -9.47778e-20)
(0.758073 -0.248648 -6.08179e-20)
(0.786852 -0.222636 -4.11454e-20)
(0.812342 -0.199972 -6.50791e-20)
(0.835131 -0.180064 4.41066e-20)
(0.855897 -0.162273 -1.26426e-19)
(0.874406 -0.14626 -9.6351e-20)
(0.888541 -0.132857 -6.13072e-20)
(0.199266 -0.333358 -1.88753e-20)
(0.38986 -0.545538 2.69124e-19)
(0.505287 -0.544908 -4.24837e-19)
(0.572475 -0.48822 -5.34294e-19)
(0.625195 -0.428459 1.84376e-19)
(0.670026 -0.377387 -6.97404e-20)
(0.709289 -0.334097 1.54136e-19)
(0.743743 -0.297128 2.00526e-20)
(0.77418 -0.265292 2.52112e-19)
(0.801131 -0.237694 -5.27057e-20)
(0.825053 -0.213635 -1.87956e-19)
(0.846496 -0.19249 2.42602e-20)
(0.866167 -0.173559 -5.19962e-20)
(0.883809 -0.156474 2.21537e-20)
(0.896927 -0.142259 -3.29193e-21)
(0.221836 -0.34569 1.35832e-19)
(0.427236 -0.570732 1.17309e-19)
(0.542854 -0.572717 3.84857e-19)
(0.605998 -0.514427 2.99143e-19)
(0.654219 -0.452027 2.24545e-19)
(0.695193 -0.3985 -2.57624e-19)
(0.731243 -0.353081 -5.41514e-20)
(0.763011 -0.314259 -1.09213e-19)
(0.791185 -0.280799 -7.08149e-20)
(0.816219 -0.251767 1.42076e-19)
(0.838492 -0.226441 7.91571e-20)
(0.858513 -0.204172 -1.71518e-20)
(0.877026 -0.184202 2.30063e-19)
(0.893774 -0.166114 -5.23807e-20)
(0.905878 -0.151144 1.23381e-19)
(0.244546 -0.355165 -5.65114e-20)
(0.465585 -0.592125 -4.38095e-19)
(0.581769 -0.597244 -2.74981e-19)
(0.640896 -0.537971 -1.30127e-19)
(0.684499 -0.473383 -3.33081e-19)
(0.721478 -0.417738 2.8648e-19)
(0.754192 -0.370463 1.1264e-19)
(0.783171 -0.330014 1.05104e-19)
(0.808994 -0.295118 -4.94727e-19)
(0.832034 -0.264811 -1.53333e-19)
(0.85259 -0.238352 1.15888e-19)
(0.871118 -0.215082 -5.89156e-20)
(0.888412 -0.194185 7.20738e-20)
(0.904256 -0.175174 -7.37243e-20)
(0.915366 -0.159492 -3.33071e-20)
(0.267089 -0.361732 1.05906e-20)
(0.504524 -0.609595 1.87381e-19)
(0.62172 -0.618372 1.82017e-19)
(0.676929 -0.558762 7.24356e-20)
(0.715844 -0.492453 1.47541e-19)
(0.74872 -0.435038 -1.54056e-19)
(0.778003 -0.386188 -7.86033e-20)
(0.804108 -0.344346 9.21221e-20)
(0.827507 -0.308207 1.85608e-20)
(0.848494 -0.276785 7.87243e-20)
(0.867277 -0.249327 -1.70482e-20)
(0.884247 -0.225169 -2.10296e-20)
(0.900257 -0.203449 -1.97413e-20)
(0.915201 -0.183596 -4.14718e-20)
(0.92537 -0.167262 1.11761e-19)
(0.289152 -0.365372 5.28357e-20)
(0.543652 -0.623052 -7.25774e-20)
(0.662379 -0.63601 -8.72625e-20)
(0.713847 -0.576727 -2.08611e-20)
(0.748055 -0.509183 -7.59091e-20)
(0.776755 -0.450354 1.14726e-19)
(0.802535 -0.400216 -1.26645e-19)
(0.825705 -0.357217 -3.15233e-20)
(0.846625 -0.320034 1.46831e-19)
(0.865509 -0.287664 -3.20978e-21)
(0.882477 -0.259351 1.22387e-19)
(0.897827 -0.234443 -1.07472e-19)
(0.912475 -0.212054 -1.5168e-20)
(0.926533 -0.191509 -2.03719e-20)
(0.935878 -0.174567 -1.12811e-19)
(0.310421 -0.366099 -4.14025e-20)
(0.582559 -0.632439 -4.31793e-21)
(0.703407 -0.650093 2.07849e-20)
(0.751393 -0.591819 3.99724e-20)
(0.780931 -0.523533 1.75084e-19)
(0.805418 -0.463653 4.67159e-20)
(0.827651 -0.412516 -1.2463e-19)
(0.847843 -0.3686 6.80532e-20)
(0.866244 -0.330572 3.11389e-19)
(0.882994 -0.297419 -1.11589e-19)
(0.89813 -0.26838 -2.85833e-20)
(0.911821 -0.242808 7.11284e-20)
(0.925011 -0.219796 -3.5982e-20)
(0.938186 -0.198567 3.59745e-20)
(0.946949 -0.181091 -4.3651e-20)
(0.330583 -0.363951 4.44061e-20)
(0.620825 -0.63773 -4.79637e-20)
(0.744454 -0.660582 -5.50208e-20)
(0.789304 -0.604008 -7.2108e-20)
(0.814269 -0.535483 -1.29985e-19)
(0.834539 -0.474917 -1.45811e-19)
(0.853207 -0.423072 1.54303e-19)
(0.870402 -0.378479 -2.31001e-19)
(0.886261 -0.339807 -1.88413e-19)
(0.900856 -0.306041 1.61097e-19)
(0.914151 -0.276425 -1.22938e-19)
(0.926154 -0.250346 3.2187e-20)
(0.937716 -0.226957 5.87814e-20)
(0.94985 -0.205506 7.5071e-20)
(0.958522 -0.188047 3.70828e-20)
(0.349323 -0.359001 -1.81696e-20)
(0.658029 -0.63894 4.52949e-20)
(0.785164 -0.667465 9.65781e-21)
(0.827316 -0.613287 7.18243e-21)
(0.847864 -0.545029 3.12959e-20)
(0.863953 -0.484144 3.81522e-21)
(0.879063 -0.431881 -1.10563e-19)
(0.893264 -0.386849 9.45779e-20)
(0.906576 -0.347732 -8.39594e-20)
(0.919005 -0.313519 -1.2256e-19)
(0.93047 -0.28345 7.83e-20)
(0.940834 -0.256914 -5.91082e-20)
(0.950701 -0.233035 2.24259e-20)
(0.961556 -0.210927 -5.54192e-20)
(0.971166 -0.192743 -2.64981e-20)
(0.366329 -0.351354 -1.14703e-19)
(0.693747 -0.636118 5.06916e-20)
(0.825176 -0.670754 2.21972e-20)
(0.865161 -0.61967 3.45516e-20)
(0.881512 -0.552185 4.09927e-20)
(0.893493 -0.491345 -1.86501e-20)
(0.905079 -0.43895 7.49339e-20)
(0.916308 -0.393714 -5.86289e-20)
(0.92709 -0.354348 3.67963e-20)
(0.937354 -0.319853 1.02959e-19)
(0.947001 -0.28947 5.97127e-20)
(0.95581 -0.262596 -8.86558e-20)
(0.963992 -0.238522 4.01452e-20)
(0.972729 -0.217123 2.2141e-20)
(0.982718 -0.200554 3.85888e-20)
(0.381292 -0.341148 2.88515e-19)
(0.727555 -0.629351 -2.77917e-19)
(0.864128 -0.670492 -2.90116e-20)
(0.902571 -0.623192 1.35475e-20)
(0.915013 -0.55698 -1.53831e-20)
(0.922995 -0.496546 5.31585e-20)
(0.931117 -0.444301 -3.30847e-20)
(0.93942 -0.399091 -6.77144e-21)
(0.947704 -0.359668 1.2442e-19)
(0.955821 -0.325056 -1.19924e-19)
(0.963652 -0.294497 -3.84941e-20)
(0.970955 -0.2674 9.43415e-20)
(0.977596 -0.243221 -5.09009e-20)
(0.984216 -0.222085 -3.55234e-20)
(0.992865 -0.204062 -9.91919e-21)
(0.39387 -0.328525 -2.2263e-19)
(0.759029 -0.618759 3.32508e-19)
(0.901663 -0.666749 1.31799e-20)
(0.939282 -0.623909 -3.25767e-20)
(0.948166 -0.559456 8.50476e-21)
(0.9523 -0.499787 9.16463e-21)
(0.957045 -0.447965 -4.10036e-21)
(0.962485 -0.403005 3.76327e-20)
(0.968324 -0.363712 -9.75396e-20)
(0.974329 -0.329138 4.6229e-20)
(0.980353 -0.298533 -1.77432e-20)
(0.986174 -0.271294 2.63014e-20)
(0.991463 -0.246989 4.31835e-21)
(0.996289 -0.225898 -8.83705e-22)
(1.00307 -0.207004 -8.84222e-21)
(0.403869 -0.313796 6.16762e-20)
(0.787703 -0.604511 -2.45291e-19)
(0.937454 -0.659628 -1.64745e-19)
(0.975037 -0.621886 1.51435e-20)
(0.980775 -0.559666 -2.92492e-20)
(0.981253 -0.50112 -1.78643e-20)
(0.982732 -0.449988 -5.00593e-21)
(0.985392 -0.405492 -3.17384e-20)
(0.988855 -0.366507 -1.31923e-21)
(0.992804 -0.332121 2.82779e-20)
(0.997051 -0.301596 1.11383e-20)
(1.00141 -0.274312 -2.97765e-21)
(1.00549 -0.249934 -3.62411e-20)
(1.00895 -0.228931 1.20084e-20)
(1.01396 -0.209642 7.80044e-21)
(0.411154 -0.297166 -3.47803e-20)
(0.812877 -0.586615 3.84239e-19)
(0.971216 -0.64935 1.07641e-19)
(1.00958 -0.617195 2.22437e-20)
(1.01265 -0.557677 4.51193e-20)
(1.0097 -0.500612 3.22633e-20)
(1.00805 -0.450425 6.30714e-21)
(1.00804 -0.406598 1.10891e-20)
(1.00921 -0.368091 2.57452e-20)
(1.01117 -0.334037 -4.6534e-20)
(1.0137 -0.303717 3.81955e-21)
(1.01662 -0.276507 3.86416e-21)
(1.01957 -0.252149 4.17032e-20)
(1.02192 -0.231274 6.18339e-21)
(1.02546 -0.21177 -4.58025e-20)
(0.415627 -0.278814 -7.8006e-20)
(0.834242 -0.565466 -5.50472e-19)
(1.00256 -0.636142 -3.01522e-20)
(1.04265 -0.609822 -6.59248e-20)
(1.04359 -0.553565 -1.26113e-19)
(1.03751 -0.498342 3.4215e-20)
(1.0329 -0.44934 -4.20357e-20)
(1.03032 -0.406376 2.01707e-21)
(1.02929 -0.368511 2.5594e-21)
(1.02936 -0.334925 9.91828e-21)
(1.03024 -0.304934 -6.10365e-21)
(1.03177 -0.277917 6.69274e-21)
(1.0336 -0.253669 -1.22743e-20)
(1.03494 -0.232934 -1.99353e-20)
(1.0372 -0.21337 4.94909e-21)
(0.41715 -0.259058 -9.5133e-21)
(0.851737 -0.541521 7.77101e-20)
(1.03084 -0.619964 8.9701e-20)
(1.07394 -0.599855 -1.18625e-20)
(1.07341 -0.547444 -1.89213e-21)
(1.06453 -0.494398 -1.08639e-19)
(1.05714 -0.446807 1.11538e-20)
(1.05214 -0.404891 -7.38901e-21)
(1.04903 -0.367819 7.22506e-21)
(1.0473 -0.334831 -4.151e-22)
(1.0466 -0.305285 2.77338e-21)
(1.04679 -0.278572 -1.85992e-21)
(1.04753 -0.25451 1.46258e-21)
(1.0479 -0.233928 6.50927e-21)
(1.04893 -0.214459 -2.12208e-21)
(0.415587 -0.238252 2.01105e-19)
(0.865103 -0.515014 3.35707e-19)
(1.05565 -0.60091 5.30428e-20)
(1.10315 -0.58749 -1.07258e-19)
(1.10191 -0.539426 1.63937e-19)
(1.09063 -0.488875 8.7682e-20)
(1.08069 -0.442909 -3.19991e-20)
(1.07342 -0.402211 -4.59182e-21)
(1.06835 -0.366075 -7.94182e-21)
(1.06491 -0.333805 1.68293e-21)
(1.06273 -0.304809 -1.88117e-21)
(1.06164 -0.278501 -1.08822e-21)
(1.06132 -0.254699 2.61824e-21)
(1.06076 -0.234293 -4.20881e-21)
(1.06061 -0.215046 8.11279e-21)
(0.410858 -0.216729 -2.30816e-19)
(0.87396 -0.486152 -1.06043e-19)
(1.07676 -0.579221 -2.60522e-19)
(1.12998 -0.572908 3.08029e-19)
(1.12891 -0.52963 -2.30701e-19)
(1.11569 -0.481879 8.38059e-20)
(1.10344 -0.437738 3.09668e-20)
(1.09408 -0.398415 2.80425e-20)
(1.08717 -0.363343 2.09055e-20)
(1.08214 -0.331899 -4.58385e-21)
(1.07857 -0.303551 -1.0844e-20)
(1.07626 -0.277739 -2.0321e-20)
(1.07493 -0.254269 3.01604e-21)
(1.07348 -0.23407 4.22939e-21)
(1.07222 -0.215149 2.10314e-21)
(0.402963 -0.194815 -2.19485e-19)
(0.877967 -0.455228 1.00211e-19)
(1.09389 -0.555149 7.62213e-20)
(1.15417 -0.556267 -1.6392e-19)
(1.15425 -0.518195 3.79882e-20)
(1.13955 -0.473509 -2.00979e-20)
(1.12531 -0.43139 -4.61309e-20)
(1.11403 -0.393587 -4.48605e-20)
(1.10544 -0.35969 2.31117e-20)
(1.09893 -0.329171 3.54223e-20)
(1.09406 -0.301558 4.0024e-20)
(1.09061 -0.276326 5.60743e-21)
(1.0883 -0.253257 -6.03888e-21)
(1.08603 -0.233295 -4.19303e-21)
(1.08374 -0.21479 2.03145e-21)
(0.391974 -0.172842 2.13005e-19)
(0.876859 -0.422592 -9.98997e-20)
(1.10673 -0.528933 5.17408e-20)
(1.17543 -0.53774 2.4056e-19)
(1.17776 -0.505234 1.96104e-19)
(1.16215 -0.46388 -1.46421e-19)
(1.14618 -0.423979 6.01542e-20)
(1.13323 -0.387814 6.02696e-20)
(1.12309 -0.355191 -8.86378e-20)
(1.11523 -0.325683 2.4252e-20)
(1.10916 -0.298881 -2.6209e-20)
(1.10464 -0.274304 1.77396e-21)
(1.10142 -0.251699 -1.63448e-20)
(1.09837 -0.232002 1.75152e-20)
(1.09513 -0.213984 -1.71173e-20)
(0.378027 -0.151135 -1.96884e-19)
(0.870432 -0.38862 1.26475e-19)
(1.11492 -0.500818 1.56403e-19)
(1.19347 -0.517482 -3.49269e-20)
(1.19919 -0.490872 -2.65035e-19)
(1.18343 -0.453122 -8.99866e-20)
(1.16605 -0.415611 -1.17138e-19)
(1.15158 -0.38119 4.68443e-20)
(1.14008 -0.349916 -1.08985e-20)
(1.13099 -0.321499 -5.07346e-20)
(1.12383 -0.295573 -4.38075e-20)
(1.11832 -0.271713 4.99132e-21)
(1.11423 -0.249633 5.71123e-21)
(1.11048 -0.230221 -2.39835e-20)
(1.10637 -0.212741 6.62516e-21)
(0.361321 -0.130013 8.48862e-20)
(0.85854 -0.35371 8.69519e-22)
(1.11814 -0.471065 -4.73705e-19)
(1.20799 -0.495655 -2.75821e-20)
(1.21836 -0.475247 2.05694e-19)
(1.20322 -0.441366 1.83055e-19)
(1.18488 -0.406383 1.05465e-19)
(1.16907 -0.373794 -8.30326e-21)
(1.15635 -0.34396 2.54501e-20)
(1.14617 -0.316684 -2.15338e-21)
(1.13804 -0.291689 4.30943e-20)
(1.1316 -0.2686 1.46042e-20)
(1.12672 -0.2471 2.53762e-20)
(1.12233 -0.227988 -2.58037e-20)
(1.11742 -0.211071 -2.05424e-20)
(0.342113 -0.109777 -1.43816e-20)
(0.841102 -0.31828 1.51497e-19)
(1.11608 -0.439952 2.55134e-19)
(1.2187 -0.472427 7.62966e-20)
(1.23507 -0.458487 -1.92115e-19)
(1.2214 -0.428724 -2.14565e-19)
(1.20256 -0.396402 8.28326e-20)
(1.1857 -0.365727 -3.83409e-20)
(1.17191 -0.337387 1.23151e-19)
(1.16075 -0.311316 8.64092e-22)
(1.15174 -0.287287 -2.29304e-20)
(1.14447 -0.265003 -1.06e-20)
(1.13885 -0.244144 4.25731e-20)
(1.13391 -0.225336 3.39718e-20)
(1.1283 -0.208998 3.33428e-20)
(0.320723 -0.0907041 2.16261e-19)
(0.818111 -0.282763 -2.30269e-19)
(1.10845 -0.407771 1.3369e-19)
(1.22527 -0.44797 1.70036e-19)
(1.24911 -0.44071 1.32401e-19)
(1.23784 -0.415307 4.58219e-20)
(1.219 -0.385781 2.96911e-20)
(1.20141 -0.357087 -3.95241e-21)
(1.18673 -0.330287 -5.67078e-20)
(1.17473 -0.30545 2.42476e-20)
(1.16492 -0.282405 5.60961e-20)
(1.15692 -0.260983 1.92618e-20)
(1.15059 -0.240813 -1.89616e-20)
(1.14519 -0.22231 -1.75178e-20)
(1.13899 -0.206545 -2.0463e-20)
(0.297518 -0.0730397 -1.16953e-19)
(0.789652 -0.247607 8.33087e-20)
(1.095 -0.374824 -7.37189e-21)
(1.22736 -0.422457 -1.81512e-19)
(1.26024 -0.42203 -4.01747e-20)
(1.25244 -0.401216 9.37794e-20)
(1.23418 -0.374623 -7.49798e-20)
(1.21614 -0.347968 8.78357e-21)
(1.20077 -0.322737 -5.0156e-21)
(1.18806 -0.299153 -1.95278e-20)
(1.17759 -0.277125 -3.30602e-20)
(1.16896 -0.25657 -5.19479e-20)
(1.16194 -0.237132 -2.42398e-20)
(1.15607 -0.218955 3.46779e-20)
(1.14959 -0.20377 8.46548e-21)
(0.272911 -0.0569918 -1.45347e-19)
(0.755907 -0.213268 -1.81568e-20)
(1.0755 -0.341422 -8.80521e-20)
(1.22463 -0.396063 7.68269e-20)
(1.26817 -0.402554 -8.50504e-20)
(1.26505 -0.386543 -3.45543e-20)
(1.24803 -0.36302 9.52554e-21)
(1.22988 -0.33846 -1.07535e-20)
(1.21402 -0.314814 2.76495e-20)
(1.20074 -0.292496 1.24136e-21)
(1.18971 -0.271499 1.96676e-20)
(1.18054 -0.251804 2.81843e-20)
(1.17294 -0.233111 3.09962e-20)
(1.16656 -0.215399 -1.21889e-20)
(1.16005 -0.200726 -1.07961e-20)
(0.247345 -0.0427237 8.4447e-20)
(0.71718 -0.180206 8.92095e-20)
(1.04978 -0.307886 2.97407e-20)
(1.21669 -0.368958 -4.60218e-20)
(1.27259 -0.382378 9.2684e-21)
(1.27547 -0.37137 6.74468e-20)
(1.26048 -0.351058 -4.52505e-20)
(1.24262 -0.328646 -3.84028e-20)
(1.22647 -0.306597 -9.07294e-21)
(1.21276 -0.285546 8.30495e-21)
(1.20127 -0.265583 -4.0598e-20)
(1.19165 -0.246742 1.0362e-20)
(1.18358 -0.228801 2.52253e-20)
(1.17674 -0.211653 -7.53e-21)
(1.17006 -0.197418 -8.95794e-21)
(0.221282 -0.0303498 -5.53836e-20)
(0.673911 -0.148876 -3.77927e-20)
(1.01772 -0.274547 -7.15521e-20)
(1.20319 -0.341319 -1.1403e-20)
(1.27313 -0.361592 -7.73827e-21)
(1.2835 -0.355762 -7.47015e-20)
(1.27144 -0.338807 2.30371e-20)
(1.25433 -0.318603 1.27864e-20)
(1.23812 -0.298157 -2.26299e-20)
(1.22412 -0.278368 -1.3836e-20)
(1.21228 -0.259431 -1.44739e-21)
(1.20229 -0.241438 -1.31858e-20)
(1.19383 -0.224244 -2.17039e-20)
(1.18659 -0.207671 -2.04197e-20)
(1.17961 -0.193841 1.45514e-20)
(0.195186 -0.0199325 -2.4578e-20)
(0.626686 -0.119714 8.94234e-21)
(0.979285 -0.241738 1.20911e-20)
(1.18372 -0.313326 1.2379e-20)
(1.26939 -0.340274 2.09437e-20)
(1.28886 -0.339768 1.47659e-20)
(1.28078 -0.326327 -4.20779e-21)
(1.26496 -0.308399 1.44574e-20)
(1.24898 -0.289563 -5.49357e-22)
(1.23484 -0.271021 -7.09537e-23)
(1.22275 -0.253096 6.1723e-21)
(1.21247 -0.235937 -2.88074e-21)
(1.20368 -0.219474 2.04336e-21)
(1.1961 -0.203448 8.53902e-21)
(1.18882 -0.190001 -7.36169e-21)
(0.169503 -0.0114776 -1.47591e-20)
(0.576229 -0.0931169 -3.95709e-21)
(0.934548 -0.209801 1.75487e-20)
(1.15791 -0.285166 7.90559e-21)
(1.26091 -0.318497 2.2698e-20)
(1.2912 -0.323419 1.5794e-20)
(1.28832 -0.313657 -6.36244e-22)
(1.27447 -0.298091 1.99285e-20)
(1.25903 -0.280877 -1.00565e-20)
(1.24492 -0.263565 1.06257e-21)
(1.23269 -0.246629 7.148e-21)
(1.2222 -0.230281 -3.47535e-21)
(1.21316 -0.214526 3.34506e-21)
(1.2053 -0.199017 1.27334e-20)
(1.19778 -0.185918 -5.01489e-21)
(0.14465 -0.00493183 -2.00739e-20)
(0.523385 -0.0694312 -5.99104e-20)
(0.883725 -0.179086 -6.97371e-20)
(1.12544 -0.25704 -2.58258e-21)
(1.24717 -0.296327 -1.04743e-20)
(1.29012 -0.30673 -8.12428e-20)
(1.29384 -0.300817 4.22209e-20)
(1.28276 -0.287719 6.71369e-21)
(1.26826 -0.272152 -2.9965e-20)
(1.25438 -0.256052 -2.70297e-20)
(1.24212 -0.240078 4.84108e-21)
(1.23149 -0.224513 -1.77737e-20)
(1.22226 -0.209443 -1.94138e-20)
(1.21419 -0.194433 -2.6477e-20)
(1.20655 -0.18162 1.73149e-20)
(0.120996 -0.000185163 7.7793e-20)
(0.469107 -0.0489351 5.73273e-20)
(0.827206 -0.149951 2.49031e-20)
(1.086 -0.229158 -3.84786e-20)
(1.22761 -0.273829 1.90269e-20)
(1.28511 -0.289696 4.27182e-20)
(1.29701 -0.287804 -3.6783e-20)
(1.28968 -0.277306 -7.5892e-20)
(1.27662 -0.26343 -1.14867e-20)
(1.26321 -0.24853 4.65254e-20)
(1.25104 -0.23349 -6.1925e-20)
(1.24037 -0.218673 2.50386e-20)
(1.23102 -0.204265 1.14837e-20)
(1.2228 -0.18975 -1.21597e-21)
(1.21512 -0.177144 2.49758e-21)
(0.0988506 0.00292186 -9.09426e-20)
(0.414418 -0.0318186 -5.87889e-20)
(0.765594 -0.122765 -9.8093e-20)
(1.0394 -0.20175 9.26566e-20)
(1.20163 -0.251071 -1.07354e-19)
(1.27557 -0.272299 -2.91757e-20)
(1.29743 -0.274592 -3.40456e-21)
(1.29504 -0.266854 -1.80493e-21)
(1.28406 -0.254738 6.3019e-20)
(1.27141 -0.241041 -7.66449e-20)
(1.25948 -0.226907 5.89637e-20)
(1.24885 -0.212803 2.93624e-20)
(1.23944 -0.199025 7.72648e-20)
(1.23112 -0.185013 -8.29111e-21)
(1.22346 -0.172525 -2.51157e-20)
(0.0784525 0.00458599 1.50044e-20)
(0.360364 -0.018163 1.66501e-20)
(0.699735 -0.0979008 -3.57036e-20)
(0.985596 -0.175066 -1.4567e-19)
(1.16863 -0.228135 -4.19099e-20)
(1.26078 -0.254511 1.15458e-19)
(1.29457 -0.261129 -9.89507e-20)
(1.29854 -0.256339 -5.53513e-20)
(1.29044 -0.246088 1.65847e-20)
(1.27894 -0.233614 -2.50232e-20)
(1.26744 -0.220366 -1.18651e-19)
(1.25694 -0.20694 -6.01433e-20)
(1.24755 -0.193752 3.41453e-21)
(1.23916 -0.180254 1.60819e-20)
(1.23156 -0.167795 1.41385e-20)
(0.0599671 0.00502621 1.70917e-19)
(0.30796 -0.00792379 -2.1977e-19)
(0.630725 -0.0757238 1.60652e-19)
(0.924735 -0.149389 8.84246e-20)
(1.12801 -0.205121 2.94719e-19)
(1.23996 -0.236302 1.6383e-20)
(1.28776 -0.247343 8.37928e-20)
(1.29977 -0.24571 2.34988e-20)
(1.29558 -0.237467 -1.97956e-19)
(1.28576 -0.226266 6.96973e-20)
(1.27492 -0.213898 4.90866e-20)
(1.26467 -0.201116 9.67878e-20)
(1.25537 -0.188471 -1.00298e-19)
(1.24694 -0.175501 -3.40696e-20)
(1.23944 -0.162983 -7.99525e-21)
(0.0434872 0.00446844 -2.27519e-20)
(0.258128 -0.000923599 2.58001e-19)
(0.559899 -0.056573 2.2146e-19)
(0.857241 -0.125038 4.71762e-20)
(1.07929 -0.182168 -2.91486e-19)
(1.21221 -0.217648 -1.9995e-19)
(1.27617 -0.233142 7.52615e-20)
(1.29815 -0.234887 -5.67061e-20)
(1.29917 -0.228838 1.11231e-19)
(1.29173 -0.218997 3.0546e-20)
(1.28189 -0.207521 2.43012e-20)
(1.27204 -0.195363 -5.73702e-20)
(1.2629 -0.183205 3.1958e-20)
(1.25449 -0.170776 1.40572e-19)
(1.2471 -0.158117 1.64805e-19)
(0.0290409 0.00313271 1.91593e-19)
(0.21164 0.00313787 -2.13473e-19)
(0.488773 -0.0407249 -3.6583e-19)
(0.783892 -0.102383 3.82736e-20)
(1.02215 -0.159462 2.58428e-19)
(1.17661 -0.198551 2.80354e-19)
(1.2588 -0.218424 1.74019e-19)
(1.29294 -0.223759 -2.10337e-21)
(1.30078 -0.220135 4.45288e-20)
(1.29667 -0.211786 1.69084e-20)
(1.28829 -0.201245 1.19261e-19)
(1.27905 -0.189704 3.36024e-20)
(1.27018 -0.177976 2.55259e-20)
(1.26183 -0.1661 -3.60972e-20)
(1.25459 -0.153222 -4.83769e-20)
(0.0166007 0.00122418 -2.47624e-19)
(0.169078 0.00465562 1.9756e-19)
(0.418949 -0.0283479 1.94517e-19)
(0.70588 -0.0818369 -1.59839e-19)
(0.956552 -0.137259 -3.98158e-19)
(1.13226 -0.179051 -8.54216e-20)
(1.23452 -0.203091 -2.43621e-19)
(1.28319 -0.212191 9.56621e-20)
(1.29978 -0.211254 -1.60019e-20)
(1.30024 -0.204586 -1.2875e-19)
(1.29399 -0.19506 -5.28763e-20)
(1.28567 -0.184154 2.44886e-21)
(1.2772 -0.172801 -3.8923e-20)
(1.26898 -0.161491 -3.92997e-20)
(1.26191 -0.148324 4.00448e-21)
(0.00609438 -0.00107175 3.6284e-19)
(0.130819 0.00407861 -2.40696e-19)
(0.351976 -0.0194527 1.55389e-19)
(0.624834 -0.0638403 1.76156e-19)
(0.882857 -0.115902 3.43933e-19)
(1.0784 -0.159253 -2.756e-19)
(1.20206 -0.187063 1.21877e-19)
(1.26769 -0.200029 1.43954e-19)
(1.29532 -0.202059 -1.50395e-19)
(1.30196 -0.197313 -6.39492e-20)
(1.29877 -0.188933 -1.83133e-20)
(1.29182 -0.178717 -2.51971e-20)
(1.28396 -0.167693 -1.20678e-19)
(1.27596 -0.156962 9.73456e-20)
(1.2691 -0.143441 -1.84683e-19)
(-0.002584 -0.00359082 -1.99509e-19)
(0.0970389 0.00186746 9.82822e-21)
(0.289212 -0.0138631 1.09778e-19)
(0.54276 -0.0488148 -2.75537e-19)
(0.801989 -0.0958317 1.43512e-19)
(1.01454 -0.139357 -1.10006e-21)
(1.16015 -0.170306 -1.64553e-19)
(1.24503 -0.187116 -7.38181e-20)
(1.28626 -0.192378 1.18074e-20)
(1.3011 -0.189848 1.62675e-19)
(1.30225 -0.182801 2.04778e-19)
(1.29735 -0.173378 1.82069e-19)
(1.29042 -0.162658 3.26575e-20)
(1.28278 -0.152521 -2.0263e-19)
(1.27619 -0.138593 -2.52983e-20)
(-0.00956775 -0.00619087 4.18686e-20)
(0.0677398 -0.00153957 -2.41047e-19)
(0.231707 -0.0112279 -3.6893e-19)
(0.461882 -0.037086 3.59775e-19)
(0.715525 -0.0775846 -2.66875e-19)
(0.940665 -0.119685 1.46446e-19)
(1.10759 -0.152866 1.63703e-19)
(1.21358 -0.173311 1.19871e-19)
(1.27115 -0.182013 1.14124e-19)
(1.29663 -0.182026 3.37334e-20)
(1.30383 -0.176565 -1.36931e-19)
(1.30198 -0.168097 -1.71588e-19)
(1.29647 -0.157689 4.26739e-20)
(1.28939 -0.148169 4.98774e-20)
(1.28319 -0.133791 2.07059e-19)
(-0.0150095 -0.00875339 1.72753e-19)
(0.0427858 -0.005751 4.79501e-19)
(0.180148 -0.0110754 -1.17311e-19)
(0.384397 -0.0287967 -2.30924e-19)
(0.625715 -0.0617552 5.33082e-19)
(0.857486 -0.100714 2.18537e-19)
(1.0435 -0.134909 5.05336e-20)
(1.17166 -0.158528 -7.81207e-20)
(1.24822 -0.170757 2.94996e-20)
(1.28716 -0.173643 -2.1908e-19)
(1.30261 -0.170076 1.02651e-19)
(1.30523 -0.162798 2.94023e-20)
(1.30191 -0.15276 -1.72804e-19)
(1.29578 -0.143899 -5.69393e-20)
(1.29009 -0.129032 -1.53269e-19)
(-0.0190729 -0.0111834 -7.41973e-20)
(0.0219385 -0.0104346 2.25641e-19)
(0.134859 -0.0128902 2.1678e-19)
(0.312216 -0.0238531 -9.43611e-20)
(0.535338 -0.0489061 -3.75667e-20)
(0.7666 -0.0830798 -2.54439e-19)
(0.967605 -0.116773 1.21313e-19)
(1.11766 -0.14278 -1.34299e-19)
(1.21542 -0.158424 -6.85756e-20)
(1.27086 -0.164461 1.87684e-19)
(1.2973 -0.163137 -1.80998e-19)
(1.30634 -0.157363 9.18332e-20)
(1.30638 -0.147813 2.09187e-19)
(1.30173 -0.139683 -2.45176e-19)
(1.29693 -0.124324 1.71563e-19)
(-0.0219284 -0.0134119 -1.75271e-19)
(0.00488873 -0.0153239 -7.30577e-19)
(0.0958629 -0.0161827 3.24622e-20)
(0.246766 -0.0219404 -1.82272e-19)
(0.447388 -0.0394441 -5.34694e-19)
(0.6706 -0.0675362 1.77093e-19)
(0.880555 -0.0990105 -3.36962e-19)
(1.05039 -0.126247 1.49617e-19)
(1.17059 -0.144897 1.46126e-19)
(1.24548 -0.154231 -2.19344e-19)
(1.2861 -0.155502 9.12649e-20)
(1.3041 -0.151609 3.42443e-20)
(1.30919 -0.142761 6.27099e-21)
(1.30705 -0.135472 6.68998e-20)
(1.30339 -0.119592 -5.14748e-20)
(-0.0237486 -0.0153968 1.09437e-20)
(-0.00871792 -0.0202204 4.16541e-19)
(0.0629519 -0.0205332 2.65735e-19)
(0.188912 -0.0226032 2.19975e-19)
(0.364648 -0.0335129 2.21463e-19)
(0.572916 -0.0548421 2.69928e-19)
(0.784261 -0.082401 2.02194e-19)
(0.969492 -0.109344 -2.73299e-19)
(1.11175 -0.130201 -3.8159e-19)
(1.20845 -0.142742 3.64623e-19)
(1.26662 -0.14688 4.63863e-20)
(1.29677 -0.145313 -3.41298e-20)
(1.30931 -0.137426 -2.44305e-19)
(1.31102 -0.131204 -7.24316e-20)
(1.3097 -0.114837 2.00559e-19)
(-0.0247046 -0.0171236 1.34488e-19)
(-0.0192606 -0.0249915 -5.81124e-19)
(0.0357586 -0.0256088 -5.10577e-20)
(0.139002 -0.0253467 -2.03471e-19)
(0.28933 -0.0309663 -1.50048e-19)
(0.477376 -0.0455922 -1.02318e-20)
(0.681988 -0.0678798 -8.46769e-20)
(0.875968 -0.0927829 2.92508e-19)
(1.03759 -0.114601 2.25943e-19)
(1.15711 -0.12989 -2.54205e-19)
(1.23598 -0.137002 1.46635e-19)
(1.28189 -0.13815 -1.98422e-19)
(1.30506 -0.131672 1.91729e-19)
(1.31288 -0.12666 -4.59588e-20)
(1.31453 -0.109853 -1.98371e-19)
(-0.0249627 -0.018604 -4.82855e-19)
(-0.0271284 -0.0295634 8.045e-19)
(0.0138111 -0.0311616 9.24855e-21)
(0.0969628 -0.0297107 -2.23823e-19)
(0.222875 -0.0314333 2.96583e-19)
(0.387597 -0.0400674 -8.71477e-20)
(0.578087 -0.0563681 -2.41314e-19)
(0.772545 -0.077555 -2.72964e-19)
(0.94813 -0.0986975 5.19484e-19)
(1.08925 -0.115803 -1.38466e-19)
(1.19093 -0.125644 -4.69989e-20)
(1.25635 -0.129877 2.59228e-19)
(1.29384 -0.125026 -1.92458e-19)
(1.31099 -0.122025 6.89157e-20)
(1.31824 -0.104298 -8.58414e-20)
(-0.0246821 -0.0198727 6.8222e-19)
(-0.0327081 -0.0339097 -7.49265e-19)
(-0.00342994 -0.0370122 -3.11042e-19)
(0.0624093 -0.0353002 1.22714e-19)
(0.165948 -0.0344256 -5.10614e-20)
(0.306436 -0.0381863 -1.85e-19)
(0.477313 -0.0485448 2.41576e-19)
(0.663677 -0.0647849 -1.79143e-19)
(0.845379 -0.0834761 -2.98208e-19)
(1.00392 -0.100959 3.67222e-19)
(1.12846 -0.112843 -1.26432e-19)
(1.21623 -0.120096 7.04607e-20)
(1.27261 -0.117573 1.60591e-20)
(1.30229 -0.116202 1.85584e-19)
(1.31821 -0.0989275 9.82632e-20)
(-0.0240093 -0.0209822 -2.81786e-19)
(-0.0363757 -0.0380374 1.09872e-19)
(-0.016545 -0.0430291 -7.4792e-20)