/*--------------------------------*- C++ -*----------------------------------*\
  =========                 |
  \\      /  F ield         | OpenFOAM: The Open Source CFD Toolbox
   \\    /   O peration     | Website:  https://openfoam.org
    \\  /    A nd           | Version:  7
     \\/     M anipulation  |
\*---------------------------------------------------------------------------*/
FoamFile
{
    version     2.0;
    format      ascii;
    class       surfaceScalarField;
    location    "20.001";
    object      phi;
}
// * * * * * * * * * * * * * * * * * * * * * * * * * * * * * * * * * * * * * //

dimensions      [0 3 -1 0 0 0 0];

internalField   nonuniform List<scalar> 
22551
(
-8.96086e-06
1.41246e-10
-3.05137e-05
2.51693e-10
-6.15504e-05
2.53824e-10
-9.97455e-05
1.87324e-10
-0.000143395
8.01066e-11
-0.000191289
-5.10169e-11
-1.99023e-10
-9.21798e-05
2.31739e-11
-0.000274445
3.66511e-11
-0.000493935
3.63039e-11
-0.000724976
3.13902e-11
-0.000958625
2.59973e-11
-0.00119328
2.10453e-11
-0.00142945
1.67639e-11
1.2972e-11
-9.21798e-05
9.21798e-05
-0.000274445
0.000182265
-0.000493935
0.00021949
-0.000724976
0.000231041
-0.000958625
0.000233649
-0.00119328
0.000234655
-0.00142945
0.000236174
-0.00166797
0.000238514
-0.00190959
0.000241624
-0.00215503
0.000245435
-0.00240492
0.000249891
-0.00265987
0.000254948
-0.00292043
0.000260568
-0.00318715
0.000266721
-0.00346054
0.000273387
-0.00374109
0.000280553
-0.0040293
0.000288204
-0.00432558
0.000296285
-0.00463031
0.000304724
0.000313663
-0.00494397
-9.17395e-05
0.000183919
-0.00027338
0.000363906
-0.000492297
0.000438407
-0.000722847
0.000461591
-0.00095605
0.000466853
-0.00119028
0.000468882
-0.00142603
0.000471928
-0.00166413
0.000476611
-0.00190534
0.000482833
-0.00215036
0.000490455
-0.00239983
0.000499367
-0.00265436
0.000509478
-0.00291451
0.000520715
-0.00318081
0.000533018
-0.00345376
0.000546342
-0.00373388
0.000560667
-0.00402164
0.000575963
-0.00431747
0.000592118
-0.00462174
0.00060899
0.000626854
-0.00493493
-9.08599e-05
0.000274779
-0.000271251
0.000544296
-0.000489023
0.00065618
-0.000718589
0.000691157
-0.000950902
0.000699166
-0.00118427
0.000702255
-0.00141919
0.000706842
-0.00165645
0.000713876
-0.00189683
0.000723213
-0.00214103
0.000734648
-0.00238967
0.000748013
-0.00264337
0.000763174
-0.00290267
0.000780022
-0.00316812
0.000798464
-0.00344022
0.000818437
-0.00371946
0.000839907
-0.00400632
0.000862832
-0.00430125
0.000887047
-0.0046046
0.000912339
0.000939102
-0.00491685
-8.95433e-05
0.000364323
-0.000268061
0.000722814
-0.000484114
0.000872233
-0.000712205
0.000919247
-0.000943181
0.000930142
-0.00117527
0.000934348
-0.00140893
0.000940497
-0.00164495
0.000949893
-0.00188409
0.000962352
-0.00212704
0.0009776
-0.00237444
0.000995416
-0.00262689
0.00101562
-0.00288493
0.00103807
-0.00314911
0.00106264
-0.00341991
0.00108924
-0.00369784
0.00111784
-0.00398338
0.00114837
-0.00427695
0.00118062
-0.00457892
0.00121431
0.00124994
-0.00488976
-8.77931e-05
0.000452116
-0.000263813
0.000898833
-0.000477574
0.00108599
-0.000703696
0.00114537
-0.000932893
0.00115934
-0.00116328
0.00116474
-0.00139526
0.00117248
-0.00162962
0.00118425
-0.00186711
0.00119984
-0.00210841
0.0012189
-0.00235416
0.00124116
-0.00260494
0.0012664
-0.00286131
0.00129444
-0.00312379
0.00132512
-0.00339288
0.00135833
-0.00366906
0.00139402
-0.00395282
0.00143213
-0.00424459
0.00147239
-0.00454473
0.00151446
0.00155888
-0.00485368
-8.56137e-05
0.000537729
-0.000258513
0.00107173
-0.000469405
0.00129689
-0.000693067
0.00136903
-0.000920041
0.00138631
-0.0011483
0.001393
-0.0013782
0.00140237
-0.00161048
0.00141654
-0.00184591
0.00143526
-0.00208515
0.00145814
-0.00232884
0.00148485
-0.00257754
0.00151511
-0.00283182
0.00154872
-0.00309219
0.00158548
-0.00335914
0.00162528
-0.00363315
0.00166803
-0.00391469
0.00171367
-0.00420421
0.00176191
-0.00450206
0.00181231
0.00186548
-0.00480866
-8.30109e-05
0.00062074
-0.000252169
0.00124089
-0.000459615
0.00150433
-0.000680321
0.00158974
-0.000904632
0.00161062
-0.00113035
0.00161872
-0.00135774
0.00162976
-0.00158755
0.00164635
-0.00182051
0.00166822
-0.00205729
0.00169492
-0.00229851
0.00172606
-0.00254473
0.00176134
-0.00279651
0.00180049
-0.00305435
0.00184332
-0.00331873
0.00188966
-0.00359014
0.00193944
-0.00386903
0.00199256
-0.00415586
0.00204873
-0.00445097
0.00210743
0.00216925
-0.00475475
-7.99918e-05
0.000700732
-0.000244788
0.00140569
-0.000448208
0.00170775
-0.000665464
0.00180699
-0.000886671
0.00183183
-0.00110943
0.00184147
-0.00133391
0.00185425
-0.00156085
0.00187328
-0.00179094
0.00189832
-0.00202485
0.00192884
-0.0022632
0.00196441
-0.00250654
0.00200468
-0.0027554
0.00204936
-0.0030103
0.00209822
-0.00327171
0.00215107
-0.00354009
0.00220782
-0.0038159
0.00226838
-0.00409959
0.00233242
-0.00439152
0.00239936
0.00246974
-0.00469201
-7.65649e-05
0.000777297
-0.00023638
0.0015655
-0.000435194
0.00190657
-0.000648502
0.0020203
-0.000866167
0.0020495
-0.00108555
0.00206086
-0.00130673
0.00207543
-0.00153038
0.00209693
-0.00175721
0.00212515
-0.00198787
0.00215949
-0.00222294
0.00219948
-0.002463
0.00224473
-0.00270855
0.00229491
-0.0029601
0.00234976
-0.00321811
0.00240909
-0.00348305
0.00247276
-0.00375536
0.00254069
-0.00403548
0.00261254
-0.00432378
0.00268765
0.0027665
-0.00462054
-7.274e-05
0.000850037
-0.000226959
0.00171972
-0.00042058
0.00210019
-0.000629442
0.00222916
-0.000843129
0.00226318
-0.00105873
0.00227646
-0.00127621
0.0022929
-0.00149619
0.00231691
-0.00171937
0.00234832
-0.00194637
0.0023865
-0.00217778
0.0024309
-0.00241415
0.0024811
-0.00265599
0.00253675
-0.00290379
0.00259756
-0.00315801
0.0026633
-0.00341909
0.00273384
-0.00368748
0.00280908
-0.00396361
0.00288868
-0.00424785
0.00297189
0.00305907
-0.00454042
-6.85288e-05
0.000918566
-0.000216538
0.00186773
-0.000404378
0.00228803
-0.000608293
0.00243308
-0.000817567
0.00247246
-0.00102899
0.00248788
-0.00124237
0.00250628
-0.00145829
0.00253284
-0.00167743
0.00256746
-0.0019004
0.00260946
-0.00212776
0.00265826
-0.00236006
0.0027134
-0.0025978
0.00277449
-0.00284144
0.00284121
-0.00309146
0.00291332
-0.00334828
0.00299066
-0.00361234
0.00307314
-0.00388407
0.00316041
-0.00416382
0.00325164
0.00334703
-0.00445178
-6.39446e-05
0.00098251
-0.000205135
0.00200892
-0.0003866
0.00246949
-0.000585065
0.00263154
-0.000789492
0.00267689
-0.000996334
0.00269473
-0.00120523
0.00271518
-0.00141672
0.00274433
-0.00163144
0.00278218
-0.00184999
0.00282801
-0.00207293
0.0028812
-0.00230077
0.00294124
-0.00253401
0.00300773
-0.00277312
0.00308031
-0.00301854
0.00315873
-0.00327069
0.00324282
-0.00353002
0.00333247
-0.00379695
0.00342733
-0.00407181
0.0035265
0.00362995
-0.00435474
-5.90028e-05
0.00104151
-0.000192769
0.00214269
-0.000367264
0.00264399
-0.000559769
0.00282405
-0.000758918
0.00287603
-0.000960788
0.0028966
-0.00116483
0.00291922
-0.00137151
0.00295101
-0.00158144
0.00299211
-0.0017952
0.00304177
-0.00201334
0.00309934
-0.00223635
0.00316425
-0.00246472
0.00323609
-0.00269889
0.00331449
-0.00293932
0.00339916
-0.00318642
0.00348991
-0.00344062
0.00358667
-0.00370235
0.00368907
-0.00397195
0.0037961
0.00390747
-0.00424946
-5.37209e-05
0.00109523
-0.000179464
0.00226843
-0.000346386
0.00281091
-0.000532419
0.00301008
-0.000725859
0.00306947
-0.00092237
0.00309311
-0.00112119
0.00311804
-0.00132269
0.00315251
-0.00152747
0.00319689
-0.00173608
0.00325039
-0.00194905
0.0033123
-0.00216686
0.00338206
-0.00238997
0.00345921
-0.00261885
0.00354337
-0.0028539
0.00363421
-0.00309554
0.00373156
-0.00334422
0.00383535
-0.00360039
0.00394524
-0.00386437
0.00406008
0.00417921
-0.00413612
-4.81185e-05
0.00114335
-0.000165247
0.00238556
-0.000323988
0.00296965
-0.00050303
0.00318912
-0.000690329
0.00325677
-0.000881101
0.00328388
-0.00107433
0.00331127
-0.00127031
0.00334849
-0.00146958
0.00339616
-0.00167269
0.00345349
-0.00188013
0.00351974
-0.00209237
0.00359431
-0.00230987
0.00367671
-0.00253306
0.00376656
-0.00276235
0.0038635
-0.00299814
0.00396735
-0.00324089
0.0040781
-0.00349114
0.00419549
-0.00374921
0.00431815
0.00444491
-0.00401491
-4.22179e-05
0.00118557
-0.00015015
0.00249349
-0.000300097
0.0031196
-0.00047162
0.00336065
-0.000652348
0.0034375
-0.000837006
0.00346854
-0.0010243
0.00349857
-0.00121441
0.0035386
-0.00140783
0.00358958
-0.00160508
0.00365074
-0.00180664
0.0037213
-0.00201297
0.00380063
-0.00222449
0.00388823
-0.00244164
0.0039837
-0.00266481
0.00408667
-0.00289437
0.00419691
-0.00313078
0.0043145
-0.00337471
0.00443943
-0.00362665
0.00457009
0.00470438
-0.00388612
-3.60442e-05
0.00122161
-0.00013421
0.00259166
-0.000274741
0.00326013
-0.000438211
0.00352412
-0.000611933
0.00361122
-0.000790108
0.00364671
-0.000971123
0.00367958
-0.00115502
0.0037225
-0.00134226
0.00377682
-0.00153333
0.00384181
-0.00172868
0.00391665
-0.00192874
0.00400069
-0.00213392
0.00409342
-0.00234465
0.00419443
-0.0025613
0.00430333
-0.00278422
0.00441982
-0.00301377
0.00454406
-0.00325086
0.00467653
-0.00349656
0.00481579
0.00495783
-0.00375001
-2.96253e-05
0.00125124
-0.000117471
0.0026795
-0.000247955
0.00339061
-0.000402826
0.00367899
-0.000569108
0.00377751
-0.000740436
0.00381804
-0.000914839
0.00385398
-0.00109221
0.00389987
-0.00127295
0.00395756
-0.0014575
0.00402636
-0.00164631
0.00410545
-0.00183977
0.00419415
-0.00203829
0.00429194
-0.00224226
0.0043984
-0.0024521
0.00451317
-0.00266813
0.00463585
-0.00289057
0.00476649
-0.00312024
0.0049062
-0.00335941
0.00505496
0.0052058
-0.00360738
-2.29938e-05
0.00127423
-9.99808e-05
0.00275649
-0.000219778
0.00351041
-0.000365496
0.00382471
-0.000523897
0.00393591
-0.000688019
0.00398216
-0.000855489
0.00402145
-0.00102602
0.00407041
-0.00119995
0.00413148
-0.00137768
0.0042041
-0.00155963
0.0042874
-0.00174618
0.0043807
-0.00193768
0.00448345
-0.00213452
0.00459523
-0.00233707
0.00471572
-0.00254566
0.00484445
-0.00276027
0.0049811
-0.00298096
0.0051269
-0.00321165
0.00528565
0.00545224
-0.00345809
-1.6191e-05
0.00129042
-8.17949e-05
0.00282209
-0.000190254
0.00361887
-0.000326253
0.0039607
-0.000476328
0.00408598
-0.000632889
0.00413872
-0.000793114
0.00418168
-0.000956511
0.0042338
-0.00112333
0.0042983
-0.00129394
0.00437471
-0.00146873
0.00446219
-0.00164806
0.00456003
-0.00183225
0.00466764
-0.00202164
0.00478462
-0.00221662
0.00491069
-0.00241769
0.00504552
-0.00262523
0.00518864
-0.00283867
0.00534033
-0.00305823
0.00550521
0.00570164
-0.00330763
-9.28509e-06
0.00129971
-6.2963e-05
0.00287577
-0.00015943
0.00371533
-0.000285143
0.00408642
-0.000426438
0.00422728
-0.000575082
0.00428737
-0.00072776
0.00433436
-0.000883736
0.00438978
-0.00104316
0.00445772
-0.00120638
0.00453792
-0.00137372
0.00462954
-0.00154554
0.00473184
-0.00172212
0.00484422
-0.00190378
0.00496628
-0.00209083
0.00509774
-0.00228368
0.00523837
-0.00248271
0.00538767
-0.0026882
0.00554582
-0.00290017
0.00571717
0.00590625
-0.00310478
-2.48556e-06
0.0013022
-4.34988e-05
0.00291678
-0.000127363
0.0037992
-0.00024222
0.00420127
-0.000374264
0.00435932
-0.000514636
0.00442774
-0.000659475
0.0044792
-0.000807759
0.00453806
-0.000959529
0.00460949
-0.00111507
0.00469347
-0.00127471
0.00478918
-0.00143873
0.00489586
-0.00160743
0.00501292
-0.00178106
0.00513991
-0.00195988
0.00527655
-0.00214416
0.00542266
-0.00233432
0.00557783
-0.00253068
0.00574218
-0.0027323
0.0059188
0.0061114
-0.00293746
4.89311e-06
0.0012973
-2.32928e-05
0.00294497
-9.41265e-05
0.00387003
-0.000197555
0.0043047
-0.000319855
0.00448162
-0.000451597
0.00455948
-0.000588311
0.00461591
-0.000728645
0.0046784
-0.000872508
0.00475336
-0.00102013
0.00484109
-0.0011718
0.00494084
-0.00132778
0.00505185
-0.00148834
0.00517348
-0.00165371
0.00530528
-0.00182412
0.00544696
-0.00199985
0.00559839
-0.00218139
0.00575937
-0.00236933
0.00593012
-0.00256344
0.0061129
0.0063087
-0.00276073
1.22016e-05
0.0012851
-9.98414e-07
0.00295817
-5.98642e-05
0.0039289
-0.000151204
0.00439604
-0.000263261
0.00459368
-0.000386016
0.00468224
-0.000514324
0.00474422
-0.000646462
0.00481054
-0.00078218
0.00488907
-0.00092165
0.00498056
-0.00106512
0.00508431
-0.00121282
0.00519955
-0.00136501
0.00532567
-0.00152192
0.00546218
-0.00168377
0.00560882
-0.00185091
0.00576552
-0.00202383
0.00593229
-0.00220305
0.00610934
-0.00238783
0.00629769
0.00649663
-0.00257577
1.8939e-05
0.00126616
1.75108e-05
0.0029596
-2.47889e-05
0.0039712
-0.000103292
0.00447455
-0.000204581
0.00469497
-0.000317956
0.00479561
-0.000437575
0.00486384
-0.00056128
0.00493424
-0.000688632
0.00501643
-0.000819727
0.00511166
-0.00095477
0.00521935
-0.00109398
0.00533877
-0.00123759
0.00546927
-0.00138582
0.00561042
-0.00153893
0.00576193
-0.00169725
0.00592384
-0.00186122
0.00609627
-0.00203121
0.00627933
-0.0022064
0.00647287
0.00667516
-0.00238492
2.54906e-05
0.00124067
3.77264e-05
0.00294736
1.13819e-05
0.00399754
-5.4062e-05
0.00453999
-0.0001439
0.00478481
-0.000247492
0.00489921
-0.000358133
0.00497448
-0.000473176
0.00504928
-0.000591953
0.0051352
-0.000714466
0.00523417
-0.000840881
0.00534577
-0.000971392
0.00546928
-0.00110621
0.00560409
-0.00124555
0.00574976
-0.00138968
0.00590606
-0.00153889
0.00607305
-0.00169357
0.00625095
-0.00185392
0.00643968
-0.00201929
0.00663824
0.00684435
-0.00218848
3.19509e-05
0.00120872
5.80632e-05
0.00292125
4.69243e-05
0.00400868
-2.98626e-06
0.0045899
-8.12882e-05
0.00486311
-0.000174701
0.00499262
-0.000276064
0.00507584
-0.000382227
0.00515545
-0.000492235
0.00524521
-0.000605975
0.00534791
-0.000723566
0.00546336
-0.000845178
0.00559089
-0.000970998
0.00572991
-0.00110124
0.00588
-0.00123615
0.00604097
-0.001376
0.0062129
-0.00152107
0.00639603
-0.00167147
0.00659008
-0.00182669
0.00679346
0.00700373
-0.00198607
3.81608e-05
0.00117056
7.82697e-05
0.00288114
8.34051e-05
0.00400355
4.80198e-05
0.00462529
-1.70994e-05
0.00492823
-9.96892e-05
0.00507521
-0.000191454
0.0051676
-0.000288519
0.00525251
-0.000389573
0.00534626
-0.000494363
0.0054527
-0.00060295
0.00557195
-0.000715477
0.00570342
-0.000832108
0.00584654
-0.000953041
0.00600093
-0.0010785
0.00616643
-0.00120873
0.00634313
-0.00134393
0.00653123
-0.00148413
0.00673027
-0.00162892
0.00693826
0.00715281
-0.00177801
4.40129e-05
0.00112655
9.81614e-05
0.00282699
0.000120132
0.00398157
0.000100603
0.00464481
4.88081e-05
0.00498002
-2.26164e-05
0.00514663
-0.000104404
0.00524939
-0.000192142
0.00534025
-0.000284071
0.00543819
-0.000379745
0.00554838
-0.000479162
0.00567137
-0.000582431
0.00580668
-0.000689691
0.0059538
-0.00080112
0.00611236
-0.000916919
0.00628223
-0.00103729
0.0064635
-0.00116236
0.0066563
-0.00129211
0.00686003
-0.00142629
0.00707243
0.00729129
-0.00156477
4.94266e-05
0.00107712
0.000117501
0.00275892
0.000156788
0.00394229
0.000153888
0.00464771
0.000116228
0.00501768
5.65875e-05
0.00520627
-1.51483e-05
0.00532113
-9.32031e-05
0.0054183
-0.000175846
0.00552084
-0.000262237
0.00563477
-0.000352336
0.00576146
-0.000446188
0.00590054
-0.000543907
0.00605152
-0.000645647
0.0062141
-0.00075158
0.00638816
-0.000861862
0.00657378
-0.000976577
0.00677102
-0.00109569
0.00697914
-0.00121905
0.0071958
0.00741893
-0.00134669
5.43151e-05
0.0010228
0.00013603
0.0026772
0.000193036
0.00388528
0.000207549
0.0046332
0.000184861
0.00504037
0.000137634
0.0052535
7.66376e-05
0.00538212
7.99414e-06
0.00548695
-6.50394e-05
0.00559387
-0.000141973
0.0057117
-0.000222621
0.00584211
-0.000306899
0.00598481
-0.000394923
0.00613954
-0.000486804
0.00630598
-0.000582682
0.00648404
-0.000682675
0.00667377
-0.00078683
0.00687517
-0.000895126
0.00708744
-0.00100751
0.00730818
0.00753549
-0.00112406
5.85941e-05
0.000964211
0.000153487
0.00258231
0.0002285
0.00381027
0.000261231
0.00460047
0.000254408
0.00504719
0.000220295
0.00528761
0.000170427
0.00543199
0.000112032
0.00554534
4.83598e-05
0.00565754
-1.92004e-05
0.00577926
-9.01813e-05
0.00591309
-0.000164733
0.00605937
-0.000242926
0.00621774
-0.000324777
0.00638783
-0.00041044
0.0065697
-0.000499964
0.0067633
-0.00059338
0.00696859
-0.000690713
0.00718477
-0.000791968
0.00740943
0.00764069
-0.000897174
6.21886e-05
0.000902022
0.000169606
0.00247489
0.000262763
0.00371711
0.0003145
0.00454873
0.000324511
0.00503718
0.000304319
0.0053078
0.00026609
0.00547022
0.000218003
0.00559343
0.000164201
0.00571135
0.000106334
0.00583713
4.48834e-05
0.00597454
-1.99601e-05
0.00612421
-8.81229e-05
0.0062859
-0.000159773
0.00645948
-0.000235087
0.00664502
-0.000313976
0.00684219
-0.000396466
0.00705108
-0.000482697
0.007271
-0.000572717
0.00749945
0.00773436
-0.000666389
6.5034e-05
0.000836988
0.000184106
0.00235582
0.000295367
0.00360585
0.00036685
0.00447725
0.000394731
0.0050093
0.00038938
0.00531315
0.000363415
0.00549619
0.000326018
0.00563083
0.000282191
0.00575517
0.000234093
0.00588523
0.000182486
0.00602615
0.000127581
0.00617912
6.93663e-05
0.00634411
7.81995e-06
0.00652103
-5.68733e-05
0.00670971
-0.00012499
0.0069103
-0.000196388
0.00712247
-0.000271373
0.00734599
-0.000350062
0.00757814
0.00781642
-0.000432122
6.70791e-05
0.000769909
0.000196691
0.00222621
0.000325809
0.00347673
0.000417696
0.00438536
0.000464539
0.00496246
0.000475072
0.00530262
0.000462122
0.00550914
0.000435859
0.00565709
0.000402232
0.0057888
0.00036402
0.00592344
0.000322285
0.00606789
0.000277371
0.00622403
0.000229372
0.00639211
0.000178319
0.00657208
0.000124107
0.00676392
6.67663e-05
0.00696765
6.20099e-06
0.00718304
-5.69953e-05
0.00740918
-0.000123792
0.00764494
0.00788766
-0.000195032
6.82917e-05
0.000701617
0.000207106
0.0020874
0.000353557
0.00333028
0.000466373
0.00427255
0.000533301
0.00489553
0.000560893
0.00527503
0.000561856
0.00550817
0.000547273
0.00567167
0.000524134
0.00581194
0.000495948
0.00595162
0.000464168
0.00609967
0.000429315
0.00625888
0.000391559
0.00642987
0.000350943
0.0066127
0.000307482
0.00680738
0.000261188
0.00701394
0.000212135
0.00723209
0.000160098
0.00746122
0.000104868
0.00770017
0.00794798
4.45533e-05
6.86579e-05
0.000632959
0.000215116
0.00194094
0.000378053
0.00316734
0.000512129
0.00413847
0.000600265
0.00480739
0.000646222
0.00522907
0.000662164
0.00549223
0.000659948
0.00567389
0.000647665
0.00582422
0.000629681
0.00596961
0.000607946
0.0061214
0.000583215
0.00628361
0.000555756
0.00645733
0.000525668
0.00664279
0.000493003
0.00684005
0.000457784
0.00704916
0.000420002
0.00726987
0.000379622
0.0075016
0.000336482
0.00774331
0.00799342
0.000291036
6.81834e-05
0.000564776
0.000220522
0.0017886
0.000398727
0.00298914
0.000554133
0.00398307
0.000664547
0.00469698
0.000730296
0.00516332
0.000762475
0.00546005
0.00077349
0.00566287
0.000772548
0.00582516
0.000764998
0.00597716
0.000753413
0.00613299
0.000738861
0.00629816
0.000721748
0.00647444
0.00070224
0.00666229
0.000680418
0.00686187
0.000656333
0.00707324
0.000630004
0.0072962
0.000601448
0.00753016
0.00057062
0.00777413
0.00802658
0.000537466
6.68955e-05
0.00049788
0.000223177
0.00163232
0.000415028
0.00279729
0.000591483
0.00380661
0.000725127
0.00456334
0.000812189
0.00507626
0.000862073
0.00541017
0.000887396
0.00563755
0.000898436
0.00581412
0.00090164
0.00597395
0.000900344
0.00613428
0.000896032
0.00630248
0.000889302
0.00648117
0.000880405
0.00667119
0.000869464
0.00687281
0.000856563
0.00708615
0.000841745
0.00731102
0.000825004
0.0075469
0.000806222
0.00779292
0.00804757
0.000785231
6.48431e-05
0.000433037
0.000223003
0.00147416
0.000426446
0.00259385
0.00062323
0.00360983
0.000780845
0.00440572
0.00089079
0.00496632
0.000960058
0.0053409
0.00100102
0.00559659
0.00102489
0.00579026
0.00103929
0.00595955
0.00104849
0.00612509
0.00105449
0.00629647
0.00105818
0.00647749
0.00105991
0.00666946
0.00105987
0.00687285
0.00105816
0.00708785
0.00105485
0.00731434
0.0010499
0.00755185
0.00104314
0.00779967
0.00805626
0.00103445
6.20959e-05
0.000370941
0.000220007
0.00131625
0.000432559
0.00238129
0.000648415
0.00339397
0.00083041
0.00422373
0.000964781
0.00483195
0.00105531
0.00525037
0.00111353
0.00553837
0.00115134
0.00575245
0.00117757
0.00593331
0.00119755
0.00610512
0.00121398
0.00628003
0.00122812
0.00646335
0.00124049
0.00665709
0.00125135
0.00686199
0.00126084
0.00707836
0.00126902
0.00730615
0.00127587
0.007545
0.00128123
0.00779432
0.00805262
0.00128486
5.87429e-05
0.000312198
0.000214286
0.0011607
0.000433073
0.00216251
0.000666117
0.00316093
0.000872431
0.00401741
0.00103263
0.00467174
0.00114646
0.00513654
0.00122386
0.00546097
0.00127704
0.00569928
0.00131597
0.00589438
0.00134717
0.00607391
0.00137423
0.00625298
0.00139887
0.0064387
0.00142189
0.00663407
0.00144364
0.00684024
0.00146431
0.00705769
0.00148399
0.00728648
0.00150267
0.00752632
0.0015202
0.00777678
0.00803657
0.00153625
5.4888e-05
0.00025731
0.000206031
0.00100956
0.000427864
0.00194067
0.000675523
0.00291327
0.000905462
0.00378747
0.00109261
0.0044846
0.00123184
0.00499731
0.00133067
0.00536215
0.00140101
0.00562893
0.00145383
0.00584156
0.00149691
0.00603083
0.00153488
0.00621501
0.00157014
0.00640344
0.00160383
0.00660039
0.00163646
0.00680761
0.00166829
0.00702585
0.00169945
0.00725532
0.00172996
0.00749582
0.00175971
0.00774703
0.00800805
0.00178823
5.06461e-05
0.000206664
0.000195525
0.00086468
0.000417017
0.00171918
0.000676007
0.00265428
0.000928075
0.0035354
0.00114279
0.00426988
0.00130949
0.00483061
0.00143224
0.0052394
0.00152197
0.0055392
0.00159027
0.00577327
0.00164618
0.00597492
0.00169554
0.00616564
0.00174161
0.00635737
0.00178601
0.00655599
0.00182951
0.00676411
0.00187249
0.00698288
0.0019151
0.0072127
0.00195742
0.00745351
0.00199938
0.00770507
0.00796705
0.00204038
4.61374e-05
0.000160527
0.000183125
0.000727692
0.000400847
0.00150146
0.000667221
0.0023879
0.000938968
0.00326366
0.00118116
0.00402769
0.00137711
0.00463465
0.00152648
0.00509002
0.00163826
0.00542742
0.0017241
0.00568742
0.00179419
0.00590484
0.00185569
0.00610414
0.0019129
0.00630016
0.00196813
0.00650076
0.00202251
0.00670974
0.00207659
0.0069288
0.00213062
0.00715867
0.0021847
0.00739943
0.00223885
0.00765091
0.0079136
0.00229231
4.1482e-05
0.000119045
0.000169246
0.000599928
0.000379901
0.00129081
0.000649182
0.00211862
0.000937101
0.00297574
0.00120567
0.00375912
0.00143216
0.00440816
0.00161085
0.00491133
0.00174772
0.00529055
0.00185373
0.00558142
0.00193985
0.00581872
0.00201459
0.0060294
0.00208352
0.00623123
0.00214981
0.00643447
0.00221512
0.00664442
0.00228028
0.00686363
0.00234568
0.00709327
0.00241146
0.00733365
0.00247777
0.0075846
0.00784774
0.00254363
3.67939e-05
8.2251e-05
0.00015433
0.000482393
0.000354927
0.00109021
0.000622329
0.00185122
0.000921853
0.00267622
0.00121445
0.00346652
0.00147189
0.00415073
0.00168236
0.00470085
0.00184765
0.00512526
0.00197702
0.00545205
0.00208165
0.00571408
0.00217127
0.00593978
0.00225281
0.00614969
0.00233059
0.00635669
0.00240698
0.00656803
0.00248324
0.00678738
0.00255996
0.00701654
0.00263737
0.00725624
0.00271578
0.00750619
0.00776954
0.00279397
3.21772e-05
5.00738e-05
0.000138826
0.000375744
0.000326834
0.000902201
0.000587551
0.0015905
0.00089318
0.00237059
0.00120601
0.00315369
0.00149355
0.00386319
0.00173764
0.00445677
0.00193473
0.00492816
0.00209117
0.00529561
0.00221751
0.00558774
0.00232429
0.005833
0.00241987
0.00605411
0.00250987
0.00626669
0.00259767
0.00648023
0.00268509
0.00669996
0.00277311
0.00692853
0.00286207
0.00716728
0.0029525
0.00741576
0.00767908
0.00304296
2.77217e-05
2.23521e-05
0.000123163
0.000280303
0.000296615
0.000728748
0.000546146
0.00134097
0.000851737
0.002065
0.00117948
0.00282595
0.00149464
0.00354804
0.00177306
0.00417834
0.00200503
0.0046962
0.00219261
0.00510804
0.00234457
0.00543578
0.00247163
0.00570594
0.00258334
0.0059424
0.0026868
0.00616324
0.0027866
0.00638044
0.00288542
0.00660113
0.00298477
0.00682919
0.00308521
0.00706683
0.00318758
0.00731339
0.00757646
0.00329021
2.35013e-05
-1.1492e-06
0.000107726
0.000196078
0.00026528
0.000571194
0.000499729
0.00110652
0.000798927
0.0017658
0.00113491
0.00248996
0.00147324
0.00320971
0.00178506
0.00386652
0.00205409
0.00442716
0.0022769
0.00488523
0.00245906
0.00525362
0.00261042
0.00555458
0.00274126
0.00581156
0.00286009
0.00604441
0.00297296
0.00626756
0.00308368
0.00649041
0.00319451
0.00671836
0.00330642
0.00695492
0.00342065
0.00719917
0.00746177
0.00353534
1.9574e-05
-2.07232e-05
9.28481e-05
0.000122804
0.000233786
0.000430256
0.000450091
0.000890219
0.000736844
0.00147904
0.00107341
0.0021534
0.00142844
0.00285469
0.0017705
0.00352445
0.00207726
0.00412041
0.00233881
0.00462368
0.00255608
0.00503635
0.00273667
0.00537399
0.0028907
0.00565752
0.0030278
0.00590731
0.00315552
0.00613984
0.00327908
0.00636685
0.00340181
0.00659564
0.00352527
0.00683146
0.00365129
0.00707314
0.00733509
0.00377797
1.5979e-05
-3.67023e-05
7.88007e-05
5.99826e-05
0.000202989
0.000306068
0.000399047
0.00069416
0.000668097
0.00120999
0.00099727
0.00182422
0.00136072
0.00249123
0.00172729
0.00315788
0.00207007
0.00377763
0.00237254
0.00432121
0.00262961
0.00477928
0.00284505
0.00515855
0.0030275
0.00547507
0.00318696
0.00574786
0.00333234
0.00599445
0.00347041
0.00622878
0.00360588
0.00646016
0.00374121
0.00669613
0.00387908
0.00693527
0.0071965
0.00401768
1.27448e-05
-4.94471e-05
6.57927e-05
6.93471e-06
0.000173604
0.000198257
0.000348294
0.00051947
0.000595553
0.000962736
0.00090978
0.00151
0.00127222
0.00212879
0.00165496
0.00277514
0.00202907
0.00340352
0.00237225
0.00397802
0.0026727
0.00447884
0.00292872
0.00490254
0.00314583
0.00525795
0.00333315
0.00556053
0.00350036
0.00582724
0.0036557
0.00607345
0.00380552
0.00631034
0.00395349
0.00654817
0.00410346
0.0067853
0.00704594
0.00425401
9.88753e-06
-5.93346e-05
5.39756e-05
-3.71533e-05
0.000146199
0.000106033
0.000299309
0.000366361
0.000522061
0.000739984
0.000814922
0.00121713
0.0011667
0.00177701
0.00155519
0.00238665
0.00195258
0.00300614
0.00233292
0.00359768
0.00267798
0.00413377
0.00297946
0.00460106
0.00323794
0.00499947
0.00345998
0.0053385
0.00365483
0.00563239
0.00383172
0.00589656
0.00399868
0.00614337
0.00416085
0.006386
0.0043236
0.00662256
0.00688315
0.00448639
7.41371e-06
-6.67483e-05
4.34477e-05
-7.31872e-05
0.000121192
2.82887e-05
0.000253285
0.000234269
0.000450202
0.000543067
0.000716922
0.000950413
0.00104922
0.00144471
0.00143201
0.00200387
0.00184161
0.00259654
0.00225151
0.00318778
0.00263874
0.00374655
0.00298826
0.00425155
0.00329423
0.0046935
0.00355865
0.00507407
0.00378866
0.00540239
0.00399331
0.00569191
0.00418191
0.00595477
0.00436114
0.00620677
0.00453823
0.00644546
0.00670747
0.00471391
5.32182e-06
-7.20701e-05
3.42593e-05
-0.000102125
9.88559e-05
-3.63079e-05
0.000211108
0.000122017
0.00038212
0.000372054
0.00061979
0.000712743
0.00092553
0.00113897
0.0012915
0.0016379
0.00170032
0.00218772
0.00212823
0.00275987
0.00255045
0.00332432
0.00294654
0.00385545
0.00330379
0.00433625
0.00361791
0.00475995
0.00389176
0.00512853
0.00413245
0.00545122
0.00434946
0.00573776
0.00455054
0.00600569
0.00474489
0.00625111
0.00651701
0.00493535
3.6022e-06
-7.56723e-05
2.64152e-05
-0.000124938
7.93272e-05
-8.92198e-05
0.000173357
2.79866e-05
0.000319431
0.000225981
0.000526957
0.000505217
0.000801327
0.000864597
0.00114102
0.00129821
0.00153579
0.00179295
0.0019673
0.00232836
0.00241244
0.00287918
0.00284818
0.00341972
0.00325602
0.00392841
0.0036247
0.00439127
0.0039509
0.00480233
0.00423744
0.00516467
0.00449207
0.00548313
0.00472258
0.00577518
0.0049393
0.00603439
0.00630877
0.00514754
2.2364e-06
-7.79087e-05
1.98764e-05
-0.000142578
6.26162e-05
-0.00013196
0.000140318
-4.97148e-05
0.000263186
0.000103112
0.000441042
0.000327361
0.000681639
0.000624
0.000988223
0.000991622
0.00135718
0.00142399
0.00177695
0.00190859
0.00222916
0.00242698
0.00269172
0.00295715
0.00314313
0.003477
0.00356617
0.00396823
0.00395049
0.00441801
0.00429262
0.00482255
0.00459601
0.00517974
0.00486623
0.00550496
0.00511437
0.00578625
0.00607762
0.00534553
1.19644e-06
-7.91052e-05
1.45604e-05
-0.000155942
4.86132e-05
-0.000166012
0.000112
-0.000113101
0.000213896
1.21574e-06
0.00036376
0.000177497
0.000570355
0.000417406
0.000839972
0.000722005
0.00117425
0.00108971
0.00156832
0.00151451
0.00201023
0.00198507
0.00248214
0.00248525
0.00296315
0.00299599
0.00343293
0.00349846
0.00387522
0.00397571
0.00427925
0.00441852
0.00464265
0.00481635
0.00496518
0.00518242
0.00525578
0.00549565
0.00580904
0.00552436
4.46217e-07
-7.95514e-05
1.03426e-05
-0.000165838
3.70997e-05
-0.00019277
8.81724e-05
-0.000164174
0.000171571
-8.21825e-05
0.000295927
5.31407e-05
0.000470012
0.00024332
0.000701632
0.000490385
0.000995939
0.000795405
0.00135355
0.0011569
0.00176911
0.00156951
0.00223093
0.00202344
0.00272211
0.0025048
0.00322297
0.0029976
0.00371428
0.0034844
0.00417975
0.00395305
0.00460876
0.00438733
0.00499878
0.0047924
0.00534298
0.00515145
0.00550129
0.00565073
-6.40447e-08
-7.94874e-05
7.06003e-06
-0.000172962
2.77647e-05
-0.000213474
6.83949e-05
-0.000204804
0.0001358
-0.000149588
0.000237549
-4.86082e-05
0.000381796
9.90734e-05
0.000576682
0.000295499
0.000829223
0.000542864
0.0011438
0.000842322
0.00152057
0.00119274
0.00195429
0.00158971
0.00243406
0.00202503
0.00294426
0.0024874
0.00346638
0.00296228
0.00398243
0.003437
0.00447482
0.00389493
0.00493484
0.00433239
0.00535906
0.00472723
0.00513858
0.00572177
-4.37744e-07
-7.90496e-05
4.52081e-06
-0.000177921
2.023e-05
-0.000229183
5.20775e-05
-0.000236652
0.00010584
-0.000203351
0.000187975
-0.000130743
0.000305687
-1.86381e-05
0.000466682
0.000134504
0.000678539
0.000331006
0.000947689
0.000573172
0.0012781
0.000862335
0.00166993
0.00119788
0.00211851
0.00157645
0.00261426
0.00199165
0.00314262
0.00243392
0.00368775
0.00289188
0.00423029
0.00335239
0.00475419
0.00380849
0.00526291
0.00421851
0.00470419
0.0056973
-6.45585e-07
-7.8404e-05
2.53194e-06
-0.000181098
1.40807e-05
-0.000240732
3.8536e-05
-0.000261107
8.07309e-05
-0.000245546
0.000146078
-0.00019609
0.000240726
-0.000113286
0.000371532
3.69745e-06
0.000545767
0.000156771
0.000770534
0.000348405
0.00105187
0.000581002
0.00139362
0.000856134
0.0017963
0.00117377
0.00225633
0.00153162
0.00276514
0.00192512
0.00331124
0.00234577
0.00387899
0.00278464
0.00444705
0.00324042
0.00502226
0.0036433
0.00418961
0.00553684
-8.00809e-07
-7.76032e-05
8.94314e-07
-0.000182793
8.89741e-06
-0.000248735