/*--------------------------------*- C++ -*----------------------------------*\
  =========                 |
  \\      /  F ield         | OpenFOAM: The Open Source CFD Toolbox
   \\    /   O peration     | Website:  https://openfoam.org
    \\  /    A nd           | Version:  7
     \\/     M anipulation  |
\*---------------------------------------------------------------------------*/
FoamFile
{
    version     2.0;
    format      ascii;
    class       volVectorField;
    location    "20.001";
    object      U;
}
// * * * * * * * * * * * * * * * * * * * * * * * * * * * * * * * * * * * * * //

dimensions      [0 1 -1 0 0 0 0];

internalField   nonuniform List<vector> 
11400
(
(-0.00146398 0.0012726 4.71853e-21)
(-0.00795849 0.00286099 -1.70593e-20)
(-0.0194632 0.00380624 -1.40808e-21)
(-0.0326469 0.00432822 -2.61769e-21)
(-0.0465404 0.0045616 -1.52179e-20)
(-0.0604679 0.00460586 -1.46042e-20)
(-0.0739901 0.00453132 -2.71665e-21)
(0.0173664 0.0130022 1.03765e-20)
(0.0781793 0.0238961 -3.64786e-20)
(0.16741 0.0262345 -2.95194e-21)
(0.250522 0.0250388 -5.27825e-21)
(0.324655 0.0228337 -2.91853e-20)
(0.390112 0.020622 -2.67637e-20)
(0.4479 0.0186499 -4.66719e-21)
(0.499175 0.0169214 1.64464e-20)
(0.0173664 -0.0130023 -1.03765e-20)
(0.0781793 -0.0238961 3.64786e-20)
(0.16741 -0.0262345 2.95194e-21)
(0.250522 -0.0250388 5.27825e-21)
(0.324655 -0.0228337 2.91853e-20)
(0.390112 -0.020622 2.67637e-20)
(0.4479 -0.0186499 4.66719e-21)
(0.499175 -0.0169214 -1.64464e-20)
(0.54487 -0.0154021 -3.93187e-21)
(0.585761 -0.0140606 -5.23374e-21)
(0.622492 -0.0128706 -1.28068e-20)
(0.655603 -0.0118107 -1.67246e-20)
(0.685546 -0.0108628 1.56497e-21)
(0.712704 -0.0100117 7.20541e-21)
(0.737403 -0.00924485 -2.52778e-20)
(0.759924 -0.0085521 -2.20093e-21)
(0.78051 -0.00792406 9.22229e-21)
(0.799368 -0.0073492 9.17689e-21)
(0.81667 -0.00681647 -8.60759e-22)
(0.83254 -0.00633251 -2.27667e-21)
(0.0193403 -0.0388873 9.45564e-20)
(0.0816802 -0.0715078 8.10412e-21)
(0.171168 -0.0785315 -3.95931e-20)
(0.254057 -0.0749677 2.6331e-20)
(0.327833 -0.0683736 -3.66077e-20)
(0.392942 -0.061755 -3.07694e-21)
(0.450423 -0.0558519 -3.15015e-20)
(0.501432 -0.0506778 2.48738e-20)
(0.546897 -0.0461299 -6.79045e-21)
(0.587587 -0.0421137 3.70107e-20)
(0.624143 -0.0385513 2.67989e-20)
(0.657099 -0.0353781 1.23111e-20)
(0.686906 -0.03254 4.24222e-20)
(0.713944 -0.0299917 -3.21798e-20)
(0.738536 -0.0276955 2.83814e-20)
(0.760961 -0.0256212 2.70425e-20)
(0.781464 -0.0237403 2.32768e-21)
(0.800255 -0.0220184 -2.32683e-20)
(0.817492 -0.0204229 5.34621e-21)
(0.833259 -0.0189756 2.59258e-20)
(0.023263 -0.0644153 -1.04024e-19)
(0.0886471 -0.118579 2.55823e-20)
(0.178653 -0.130314 1.14519e-19)
(0.261099 -0.124452 -5.01882e-20)
(0.334167 -0.113532 -4.70472e-20)
(0.398582 -0.102555 -1.99875e-20)
(0.455453 -0.0927615 2.95629e-20)
(0.505932 -0.0841758 -9.4923e-21)
(0.550937 -0.0766287 -8.1607e-20)
(0.591227 -0.0699635 -7.48256e-20)
(0.627433 -0.0640508 -6.486e-21)
(0.660081 -0.0587836 2.11151e-21)
(0.689618 -0.0540723 -9.82124e-21)
(0.716417 -0.0498416 2.0727e-20)
(0.740795 -0.0460293 8.31558e-21)
(0.76303 -0.042585 3.20671e-20)
(0.783368 -0.0394611 -4.61888e-20)
(0.802025 -0.0366 2.72385e-20)
(0.819131 -0.03395 -1.27233e-20)
(0.834696 -0.0315526 -4.43443e-20)
(0.0290845 -0.0893523 -5.09461e-20)
(0.09901 -0.164755 -3.10048e-20)
(0.189802 -0.181241 -1.96302e-19)
(0.271597 -0.173198 -4.33979e-20)
(0.343614 -0.158057 -1.01363e-19)
(0.406996 -0.142805 -3.48692e-20)
(0.462955 -0.129186 9.25234e-20)
(0.512645 -0.117245 5.25099e-20)
(0.556966 -0.106748 1.96749e-21)
(0.596659 -0.0974759 6.63337e-20)
(0.632342 -0.0892498 -1.44483e-20)
(0.664533 -0.0819207 1.70218e-21)
(0.693666 -0.0753643 -4.35677e-20)
(0.720108 -0.0694759 1.35164e-20)
(0.744168 -0.0641693 -1.07299e-19)
(0.766118 -0.0593742 -8.88289e-20)
(0.78621 -0.0550236 -4.18114e-20)
(0.804666 -0.0510364 1.21711e-20)
(0.821578 -0.0473452 3.01546e-20)
(0.836844 -0.0440198 2.42805e-20)
(0.0367304 -0.11347 1.22665e-19)
(0.112665 -0.209686 -1.10712e-19)
(0.20452 -0.230982 -8.93933e-20)
(0.285471 -0.220918 -1.46693e-20)
(0.356107 -0.201701 1.94426e-19)
(0.418125 -0.182288 5.5456e-20)
(0.472881 -0.164937 1.51129e-20)
(0.521528 -0.14972 -4.23764e-20)
(0.564943 -0.13634 -3.60137e-20)
(0.603848 -0.124519 5.08642e-20)
(0.638842 -0.114031 1.18973e-19)
(0.670426 -0.104685 -1.81103e-19)
(0.699026 -0.0963222 7.14386e-20)
(0.724996 -0.0888104 1.65583e-20)
(0.748636 -0.0820399 8.06946e-20)
(0.770209 -0.0759208 4.98341e-20)
(0.789976 -0.0703662 1.29647e-19)
(0.808166 -0.0652711 -2.55115e-20)
(0.824821 -0.0605571 1.06772e-20)
(0.839699 -0.0563331 6.67535e-20)
(0.0461027 -0.13655 -1.30929e-19)
(0.129474 -0.253036 4.51406e-20)
(0.222681 -0.279212 2.85333e-19)
(0.302618 -0.267332 1.52265e-19)
(0.371559 -0.244225 -1.38251e-19)
(0.431895 -0.220796 -9.08376e-20)
(0.485164 -0.199831 7.79345e-20)
(0.532523 -0.181437 7.1631e-20)
(0.57482 -0.16526 4.17157e-20)
(0.612749 -0.150966 -1.48043e-19)
(0.64689 -0.138281 1.40162e-20)
(0.677726 -0.126974 8.99593e-20)
(0.705667 -0.116855 -7.29534e-20)
(0.731054 -0.107763 -1.08644e-19)
(0.754174 -0.0995674 3.04292e-20)
(0.775281 -0.0921583 -1.13453e-19)
(0.794644 -0.0854287 -4.16922e-20)
(0.812502 -0.0792492 1.88884e-20)
(0.828844 -0.0735349 -5.32622e-20)
(0.843249 -0.0684486 -3.4397e-20)
(0.0570803 -0.158383 2.30285e-19)
(0.149267 -0.294478 -1.52245e-19)
(0.244131 -0.325616 -2.62959e-20)
(0.322909 -0.312169 -6.31649e-20)
(0.389861 -0.285397 -5.19362e-20)
(0.448213 -0.258126 8.79436e-20)
(0.499724 -0.23369 -1.43553e-19)
(0.545558 -0.212239 -3.75037e-21)
(0.586531 -0.19337 3.69302e-20)
(0.623307 -0.176693 2.39909e-20)
(0.656439 -0.161889 -3.27565e-20)
(0.686389 -0.14869 -8.03729e-20)
(0.713548 -0.136874 -3.0159e-20)
(0.738245 -0.126256 7.33571e-20)
(0.76075 -0.116681 -2.78632e-20)
(0.781306 -0.108023 8.14364e-20)
(0.800189 -0.100153 6.39722e-20)
(0.817653 -0.0929176 -2.08024e-20)
(0.833625 -0.0862299 -3.55306e-20)
(0.847483 -0.0803229 5.66005e-20)
(0.0695208 -0.178774 4.50046e-20)
(0.171841 -0.333703 -1.92271e-21)
(0.268686 -0.369895 4.93287e-20)
(0.346189 -0.355167 4.04711e-21)
(0.410888 -0.324992 -1.15147e-19)
(0.466969 -0.294087 -1.57594e-19)
(0.516464 -0.266344 -1.05508e-19)
(0.560549 -0.241978 -1.9267e-19)
(0.600003 -0.220537 -4.45178e-20)
(0.635456 -0.201582 7.03843e-20)
(0.667429 -0.18475 -5.962e-20)
(0.696362 -0.169739 1.092e-19)
(0.722625 -0.156296 1.59224e-19)
(0.74653 -0.144211 -1.5334e-19)
(0.768328 -0.133312 7.97694e-20)
(0.788251 -0.123453 -1.08058e-19)
(0.806581 -0.114485 -8.16034e-20)
(0.82359 -0.106226 -8.87925e-20)
(0.83914 -0.0985947 1.72176e-19)
(0.852387 -0.0919131 2.07972e-21)
(0.0832611 -0.197541 -2.29574e-19)
(0.196963 -0.370421 6.48367e-20)
(0.296134 -0.411764 2.53271e-19)
(0.372284 -0.396079 -3.44938e-20)
(0.43449 -0.362801 1.03853e-20)
(0.488037 -0.328495 -6.72807e-20)
(0.535275 -0.297634 1.02614e-19)
(0.577399 -0.27051 1.03589e-19)
(0.615151 -0.246635 2.3504e-20)
(0.64912 -0.22552 -8.00224e-20)
(0.679794 -0.206764 1.88257e-19)
(0.707586 -0.190031 -8.5808e-20)
(0.732845 -0.17504 -1.01785e-19)
(0.75586 -0.161559 -1.66684e-19)
(0.776866 -0.149395 -3.78562e-20)
(0.796079 -0.13839 -4.73403e-20)
(0.813787 -0.12837 2.56616e-21)
(0.830281 -0.119126 3.64342e-20)
(0.845362 -0.110585 -1.71386e-19)
(0.857942 -0.103177 4.67935e-20)
(0.0981196 -0.214523 -1.09469e-19)
(0.224373 -0.404359 -7.42175e-20)
(0.326234 -0.450956 -6.7986e-20)
(0.400993 -0.434674 -8.60874e-20)
(0.460503 -0.398626 1.22199e-19)
(0.511276 -0.36118 -4.3298e-20)
(0.556033 -0.327409 -2.25595e-19)
(0.595999 -0.297704 3.01319e-19)
(0.631878 -0.271546 9.29268e-20)
(0.664214 -0.248404 1.93055e-19)
(0.693459 -0.227838 -2.48815e-19)
(0.719995 -0.209482 2.25396e-19)
(0.744146 -0.193032 -2.96189e-20)
(0.766183 -0.178231 2.43538e-20)
(0.786317 -0.164871 2.80953e-19)
(0.804749 -0.152779 8.0301e-20)
(0.821768 -0.14176 1.21359e-19)
(0.837691 -0.131574 -5.59928e-21)
(0.85226 -0.122158 8.57114e-20)
(0.86413 -0.114075 -1.23026e-19)
(0.113898 -0.229575 1.69853e-19)
(0.25378 -0.435271 -9.0434e-20)
(0.358722 -0.487223 1.87e-19)
(0.432097 -0.470735 -1.37552e-19)
(0.488744 -0.432282 1.17053e-19)
(0.53653 -0.391982 6.66266e-20)
(0.578602 -0.35553 3.94326e-19)
(0.616232 -0.323438 -2.62605e-19)
(0.65008 -0.295162 -1.96359e-19)
(0.680646 -0.270135 2.11022e-20)
(0.708341 -0.247884 -2.61387e-20)
(0.733515 -0.228016 -1.02165e-19)
(0.756466 -0.210201 1.6093e-19)
(0.777441 -0.194164 5.77966e-20)
(0.796629 -0.179683 -9.34899e-20)
(0.814213 -0.166571 -1.7712e-19)
(0.830484 -0.154611 -1.44512e-20)
(0.845782 -0.143529 1.01418e-19)
(0.859802 -0.133275 -9.08059e-20)
(0.870927 -0.124567 8.85153e-20)
(0.130381 -0.242574 -1.42739e-19)
(0.284872 -0.462936 -4.69102e-20)
(0.393309 -0.520339 -1.2894e-19)
(0.465356 -0.504065 1.46532e-19)
(0.519014 -0.463601 2.28782e-19)
(0.56363 -0.420757 1.68124e-19)
(0.602835 -0.381872 -7.57167e-20)
(0.637966 -0.347598 -1.25677e-19)
(0.669643 -0.317383 2.40607e-19)
(0.698315 -0.290627 -1.05525e-19)
(0.724351 -0.266825 2.93367e-21)
(0.748067 -0.245561 1.07449e-19)
(0.769732 -0.226484 2.24086e-19)
(0.789569 -0.209302 -1.74943e-19)
(0.807746 -0.193779 -1.145e-19)
(0.824421 -0.179718 1.87573e-19)
(0.839888 -0.16688 -1.54014e-19)
(0.854513 -0.154954 3.47097e-21)
(0.867952 -0.143902 1.68343e-19)
(0.87831 -0.134617 4.79708e-20)
(0.147345 -0.25342 9.156e-20)
(0.317312 -0.487159 -9.16291e-20)
(0.429683 -0.550103 -2.89387e-20)
(0.500511 -0.534484 -1.20715e-20)
(0.551101 -0.492433 -3.49109e-19)
(0.592395 -0.447377 -2.3697e-19)
(0.628575 -0.406322 1.08553e-19)
(0.661065 -0.370086 9.72298e-20)
(0.690446 -0.338121 -1.55013e-19)
(0.717113 -0.309798 -1.91198e-19)
(0.741394 -0.284589 1.23017e-19)
(0.763566 -0.262054 -3.53841e-19)
(0.78387 -0.241824 -1.24196e-19)
(0.802502 -0.223592 2.3073e-19)
(0.819606 -0.207113 -2.48113e-20)
(0.83532 -0.192179 -4.36957e-20)
(0.849933 -0.178533 1.15443e-20)
(0.863842 -0.16582 -1.1865e-19)
(0.876673 -0.154008 -8.79711e-20)
(0.886253 -0.144193 -8.50929e-20)
(0.164551 -0.262037 -7.12998e-20)
(0.350742 -0.507777 2.4586e-19)
(0.467511 -0.576336 3.15547e-19)
(0.537285 -0.561835 -8.05104e-20)
(0.584777 -0.518645 2.01858e-19)
(0.622632 -0.471729 3.66478e-20)
(0.655657 -0.428781 -1.65396e-19)
(0.685383 -0.390816 2.78141e-20)
(0.712359 -0.357299 -1.9061e-19)
(0.736928 -0.327581 1.15397e-19)
(0.75937 -0.301113 -7.69611e-20)
(0.779924 -0.277437 3.14892e-19)
(0.798799 -0.25617 8.29518e-20)
(0.816168 -0.236989 8.43876e-20)
(0.832147 -0.219642 -1.36731e-19)
(0.84685 -0.203916 6.80828e-21)
(0.860565 -0.189534 1.05489e-19)
(0.873721 -0.176097 8.55652e-20)
(0.885928 -0.163569 7.35232e-20)
(0.894731 -0.153264 3.49693e-20)
(0.181757 -0.268374 -1.44792e-19)
(0.384787 -0.524657 -4.12414e-20)
(0.506441 -0.598888 -8.24043e-20)
(0.575387 -0.585982 2.4123e-20)
(0.619804 -0.542123 -2.39793e-20)
(0.654143 -0.493716 1.08891e-19)
(0.683906 -0.449166 -1.24963e-19)
(0.710768 -0.409712 1.78367e-19)
(0.73525 -0.37485 -1.98691e-19)
(0.757641 -0.343916 9.14812e-21)
(0.778173 -0.316345 2.43878e-19)
(0.797046 -0.291664 -6.72034e-20)
(0.814436 -0.269478 -1.45491e-19)
(0.830491 -0.249455 -9.97189e-20)
(0.8453 -0.231333 1.66233e-19)
(0.858952 -0.2149 8.94177e-20)
(0.871728 -0.199865 -1.25118e-20)
(0.8841 -0.185774 -8.85382e-20)
(0.895678 -0.172574 -8.93208e-20)
(0.903722 -0.16181 1.07564e-19)
(0.198711 -0.272406 1.74901e-19)
(0.419058 -0.537702 -1.09541e-19)
(0.546104 -0.617636 6.38199e-20)
(0.614509 -0.606813 -2.01147e-20)
(0.655931 -0.562773 -1.45111e-19)
(0.686717 -0.513261 -1.02199e-19)
(0.713143 -0.467411 1.56158e-19)
(0.737063 -0.426716 -1.16957e-19)
(0.75898 -0.39072 3.14415e-19)
(0.77913 -0.358754 -1.58239e-20)
(0.797695 -0.330239 -1.60097e-19)
(0.814836 -0.304693 2.20961e-20)
(0.830696 -0.281711 1.41853e-19)
(0.845396 -0.260952 5.75884e-20)
(0.858999 -0.24215 1.11545e-21)
(0.871563 -0.225093 -1.08387e-19)
(0.883363 -0.209482 -3.01546e-20)
(0.894924 -0.194814 -1.25776e-19)
(0.905884 -0.180996 -3.40395e-20)
(0.913211 -0.169811 4.12923e-20)
(0.215163 -0.274136 2.51385e-20)
(0.453152 -0.546847 1.21663e-19)
(0.586117 -0.632487 -1.08021e-19)
(0.654333 -0.624238 -1.27188e-20)
(0.6929 -0.580521 3.05226e-20)
(0.72014 -0.530303 2.04043e-20)
(0.743184 -0.483462 3.37568e-20)
(0.764107 -0.441781 -6.68804e-20)
(0.783407 -0.404868 1.45288e-19)
(0.801269 -0.372057 3.45563e-20)
(0.817826 -0.342762 1.74486e-19)
(0.833196 -0.316494 -1.74017e-19)
(0.847489 -0.292842 -9.46669e-20)
(0.860799 -0.27146 6.85737e-20)
(0.873168 -0.252079 8.07642e-21)
(0.884612 -0.234494 7.69729e-21)
(0.895392 -0.218409 2.30411e-20)
(0.906114 -0.203274 3.56119e-20)
(0.916498 -0.188916 -1.00323e-19)
(0.923194 -0.17731 -2.07073e-19)
(0.230864 -0.273595 -3.21466e-20)
(0.486659 -0.552065 -5.95374e-20)
(0.626082 -0.643375 -3.34679e-20)
(0.694528 -0.638193 -2.19496e-20)
(0.730445 -0.595314 5.75857e-20)
(0.754191 -0.5448 1.81966e-20)
(0.77384 -0.497286 -3.07757e-21)
(0.791735 -0.454877 5.39667e-20)
(0.808387 -0.417267 -2.80917e-21)
(0.823931 -0.3838 -1.16614e-19)
(0.838452 -0.353889 -1.39178e-19)
(0.852025 -0.327042 5.24535e-20)
(0.864726 -0.302845 8.08581e-20)
(0.876626 -0.280949 -1.56665e-19)
(0.887745 -0.26108 -1.43655e-19)
(0.898059 -0.243039 -7.96075e-20)
(0.907784 -0.226535 7.42801e-20)
(0.917618 -0.210984 -1.35678e-20)
(0.927483 -0.196149 1.24324e-20)
(0.933727 -0.184201 1.6463e-19)
(0.245565 -0.270842 -7.35135e-22)
(0.519164 -0.553368 2.12544e-20)
(0.665591 -0.650269 4.00078e-20)
(0.734751 -0.648639 4.2512e-20)
(0.768292 -0.607121 4.12312e-20)
(0.788648 -0.55673 -9.15487e-20)
(0.804922 -0.508865 -3.84946e-20)
(0.819783 -0.465987 1.00914e-19)
(0.833775 -0.4279 -9.68249e-20)
(0.846989 -0.393967 5.71123e-20)
(0.859461 -0.363604 7.72081e-20)
(0.871223 -0.336322 -2.79753e-20)
(0.882316 -0.311709 -2.80022e-20)
(0.892787 -0.289415 7.18638e-20)
(0.902641 -0.269167 7.39934e-20)
(0.911808 -0.25078 4.42265e-20)
(0.920415 -0.234 4.58728e-20)
(0.929207 -0.218265 -6.95885e-21)
(0.938535 -0.203259 -3.67857e-20)
(0.9448 -0.191191 -5.36277e-20)
(0.25903 -0.265964 5.23253e-21)
(0.550251 -0.550802 -1.67319e-20)
(0.704228 -0.653164 3.38257e-21)
(0.774654 -0.655565 1.07873e-20)
(0.806163 -0.615933 -3.9615e-20)
(0.823284 -0.566087 6.43138e-20)
(0.836239 -0.518197 7.7406e-20)
(0.848087 -0.475111 -2.11308e-19)
(0.859427 -0.436764 -1.21454e-20)
(0.870315 -0.402554 4.84989e-20)
(0.880739 -0.371904 9.89829e-20)
(0.89069 -0.34433 2.96241e-20)
(0.900171 -0.319424 1.35141e-19)
(0.909205 -0.29684 -4.39884e-20)
(0.917789 -0.276301 -1.52649e-20)
(0.925837 -0.257616 1.47269e-20)
(0.93337 -0.240535 -1.20897e-19)
(0.941052 -0.224478 3.6838e-20)
(0.949797 -0.209118 -2.87973e-20)
(0.957173 -0.19697 7.52473e-20)
(0.271041 -0.259082 5.36065e-20)
(0.5795 -0.544449 7.18825e-21)
(0.741569 -0.652093 9.15887e-21)
(0.813882 -0.658986 1.18875e-21)
(0.843777 -0.621759 -2.05892e-20)
(0.857875 -0.572887 -2.5036e-20)
(0.867603 -0.525296 -2.49612e-20)
(0.876483 -0.482261 5.62836e-20)
(0.8852 -0.443872 -1.74941e-22)
(0.893783 -0.409569 -1.38019e-20)
(0.902175 -0.378793 -6.39523e-20)
(0.910327 -0.351066 1.87143e-20)
(0.918205 -0.325991 -3.66678e-20)
(0.925804 -0.303226 -1.22298e-21)
(0.933114 -0.282498 9.8263e-20)
(0.940061 -0.263613 -9.0599e-21)
(0.94658 -0.24636 7.14347e-20)
(0.953019 -0.230425 1.31062e-20)
(0.960195 -0.21617 1.74416e-20)
(0.968322 -0.205188 -2.83644e-20)
(0.281429 -0.250351 -1.47304e-20)
(0.606486 -0.534415 2.23925e-20)
(0.777192 -0.647126 9.9391e-20)
(0.852077 -0.658945 -1.56269e-20)
(0.880851 -0.624631 -1.70048e-20)
(0.892193 -0.57716 1.99606e-20)
(0.898827 -0.530196 9.48843e-21)
(0.90481 -0.487465 1.74617e-20)
(0.910952 -0.449244 7.20393e-20)
(0.917268 -0.415032 -8.71735e-20)
(0.923659 -0.384286 -6.14792e-20)
(0.930037 -0.356545 -2.31859e-20)
(0.936333 -0.331419 -6.64653e-20)
(0.942508 -0.308579 4.04245e-20)
(0.948542 -0.287757 -1.24071e-20)
(0.954382 -0.268749 -8.13954e-20)
(0.959931 -0.251363 1.075e-20)
(0.965235 -0.235467 3.41374e-20)
(0.970767 -0.221459 -2.19708e-20)
(0.977825 -0.208894 1.22263e-19)
(0.289988 -0.239858 -1.89936e-19)
(0.630803 -0.520829 -1.00226e-19)
(0.810682 -0.638403 -1.84434e-19)
(0.888881 -0.655511 -1.07398e-20)
(0.917101 -0.624596 -3.04281e-20)
(0.926017 -0.578955 8.00415e-21)
(0.929728 -0.532941 -9.27284e-21)
(0.932912 -0.490765 -4.67996e-20)
(0.936548 -0.452918 6.11785e-20)
(0.940651 -0.418971 -3.22388e-20)
(0.945086 -0.388409 4.25592e-20)
(0.949726 -0.360785 2.88852e-20)
(0.954471 -0.335723 4.54364e-20)
(0.95925 -0.312906 5.06975e-21)
(0.964023 -0.292071 -3.39998e-20)
(0.968758 -0.272995 1.04182e-20)
(0.973382 -0.255478 4.11795e-21)
(0.977765 -0.239504 2.75343e-20)
(0.982003 -0.22546 -5.77321e-20)
(0.987612 -0.211982 -8.15187e-20)
(0.296488 -0.227741 4.73605e-21)
(0.651875 -0.503798 2.04536e-19)
(0.84174 -0.626143 1.7322e-19)
(0.923947 -0.648769 7.11379e-20)
(0.952241 -0.62172 3.32405e-20)
(0.959124 -0.578337 -5.25099e-21)
(0.960128 -0.533593 -1.04559e-21)
(0.960639 -0.492215 5.79134e-21)
(0.961857 -0.454941 -3.82289e-20)
(0.963816 -0.421428 -8.69961e-21)
(0.966352 -0.391196 -1.57722e-20)
(0.969304 -0.363816 3.98382e-21)
(0.972541 -0.338927 -3.60805e-20)
(0.975965 -0.316227 -1.38845e-20)
(0.979514 -0.295458 2.35225e-20)
(0.983172 -0.276384 -3.28986e-20)
(0.986908 -0.258802 -1.12911e-21)
(0.990518 -0.242793 3.38409e-20)
(0.993816 -0.228774 5.17449e-20)
(0.998198 -0.214852 1.99006e-20)
(0.300891 -0.214214 -5.9038e-20)
(0.669466 -0.483868 -1.40757e-19)
(0.869845 -0.610582 -2.15634e-20)
(0.956991 -0.638708 1.34093e-19)
(0.985997 -0.616077 -6.02657e-20)
(0.991295 -0.575387 5.34872e-20)
(0.989852 -0.532227 1.55005e-20)
(0.987844 -0.491883 -1.39056e-20)
(0.986751 -0.455371 1.15499e-20)
(0.986652 -0.422454 4.26952e-21)
(0.98736 -0.39269 1.71738e-20)
(0.988684 -0.365676 -1.93946e-20)
(0.990468 -0.341067 2.27326e-21)
(0.992587 -0.318575 -5.16066e-20)
(0.994965 -0.297955 3.44921e-20)
(0.997589 -0.278971 -1.14488e-20)
(1.00046 -0.261421 1.30429e-20)
(1.00334 -0.245451 8.17304e-21)
(1.00583 -0.231492 -6.77666e-20)
(1.00916 -0.217335 -1.57093e-20)
(0.303105 -0.199623 1.72882e-19)
(0.683474 -0.461359 2.07166e-19)
(0.89426 -0.591608 -9.36186e-20)
(0.987587 -0.625536 -1.0186e-19)
(1.01807 -0.607768 -4.97213e-20)
(1.02231 -0.570194 -4.85005e-20)
(1.01873 -0.528928 -4.3785e-20)
(1.01439 -0.489847 3.07476e-21)
(1.01111 -0.454279 -1.53999e-20)
(1.00905 -0.422108 -7.45456e-21)
(1.00802 -0.392945 -3.72984e-21)
(1.00779 -0.366411 4.05796e-21)
(1.00818 -0.342183 3.94494e-21)
(1.00905 -0.31999 -7.63193e-21)
(1.01031 -0.299603 -1.25325e-20)
(1.01195 -0.280791 -2.00146e-20)
(1.01396 -0.263357 1.37981e-20)
(1.0161 -0.247474 -5.87926e-21)
(1.01782 -0.233572 1.24029e-20)
(1.02015 -0.219329 1.90916e-21)
(0.30304 -0.184214 -1.63847e-19)
(0.693592 -0.436406 1.88822e-19)
(0.914745 -0.56955 8.39556e-20)
(1.01523 -0.609449 -6.41099e-20)
(1.0482 -0.596901 8.49155e-20)
(1.05196 -0.562869 -5.56945e-20)
(1.04661 -0.523794 7.48135e-20)
(1.04014 -0.486198 3.07706e-20)
(1.03483 -0.451744 -2.38191e-20)
(1.03092 -0.420461 2.55003e-20)
(1.02824 -0.39202 -1.35425e-20)
(1.02653 -0.366074 -1.69785e-21)
(1.0256 -0.342323 7.05959e-21)
(1.02529 -0.320514 7.59199e-21)
(1.02549 -0.300436 1.11215e-21)
(1.02618 -0.281871 2.18799e-20)
(1.02736 -0.264622 -1.8951e-20)
(1.02875 -0.248862 -3.7682e-22)
(1.02971 -0.235024 -2.14114e-20)
(1.03108 -0.220822 1.62408e-20)
(0.300647 -0.168217 1.10699e-19)
(0.699501 -0.409314 -1.75489e-19)
(0.931153 -0.54472 1.29025e-21)
(1.0395 -0.590617 -2.91115e-20)
(1.07604 -0.583656 -1.06757e-19)
(1.08004 -0.553497 1.30444e-19)
(1.07332 -0.516927 -2.19148e-20)
(1.06498 -0.481035 -6.10684e-20)
(1.0578 -0.447855 -1.03413e-20)
(1.05217 -0.417589 1.20324e-20)
(1.04794 -0.389982 3.66546e-20)
(1.04484 -0.364723 9.30409e-21)
(1.04267 -0.341537 1.84766e-21)
(1.04124 -0.320192 -3.04846e-21)
(1.04044 -0.300494 -5.78827e-22)
(1.04024 -0.282241 -4.35821e-21)
(1.0406 -0.265237 6.45059e-21)
(1.04124 -0.24964 7.95082e-21)
(1.04148 -0.235893 4.44272e-21)
(1.04196 -0.22184 -3.56719e-22)
(0.295933 -0.151873 1.23559e-20)
(0.700963 -0.380464 2.01167e-20)
(0.943137 -0.5174 -1.481e-19)
(1.06017 -0.569261 6.01098e-20)
(1.10125 -0.568146 1.26561e-19)
(1.1063 -0.542217 -1.34421e-19)
(1.0987 -0.508446 1.88538e-20)
(1.08879 -0.474467 6.36004e-20)
(1.07992 -0.442707 -1.25904e-20)
(1.07271 -0.413576 1.46957e-20)
(1.06705 -0.386904 -5.50801e-20)
(1.06266 -0.362423 -1.65763e-20)
(1.05932 -0.339882 -2.15217e-21)
(1.05685 -0.319071 -5.06476e-21)
(1.05511 -0.299817 -3.84219e-21)
(1.05405 -0.281936 -2.59494e-21)
(1.05364 -0.265235 3.99126e-22)
(1.05356 -0.249845 -6.6103e-24)
(1.0531 -0.236221 -4.65316e-21)
(1.05278 -0.222405 -9.43399e-24)
(0.288952 -0.135431 8.78306e-20)
(0.697813 -0.350255 -1.06799e-19)
(0.950331 -0.487892 1.37531e-19)
(1.0769 -0.545577 -5.8731e-20)
(1.12356 -0.550531 3.84517e-20)
(1.13053 -0.529169 6.48652e-20)
(1.12262 -0.49848 -2.2887e-20)
(1.11145 -0.466605 -6.8531e-20)
(1.10112 -0.436403 2.93022e-20)
(1.09248 -0.408511 2.8057e-20)
(1.0855 -0.382865 3.83022e-20)
(1.07992 -0.35924 9.1201e-21)
(1.07551 -0.337415 4.97154e-20)
(1.07206 -0.317203 8.39847e-21)
(1.06945 -0.298451 2.46113e-21)
(1.06759 -0.280997 8.54387e-21)
(1.06642 -0.264649 1.0828e-20)
(1.06565 -0.249507 -3.02345e-21)
(1.06456 -0.23604 -2.76861e-21)
(1.0635 -0.222529 2.60572e-21)
(0.279801 -0.119138 -1.16296e-19)
(0.689957 -0.3191 -1.8078e-19)
(0.952426 -0.456527 -7.92193e-20)
(1.08933 -0.519787 -2.17368e-21)
(1.14269 -0.530982 1.13791e-20)
(1.15252 -0.514498 -1.57604e-19)
(1.14494 -0.48715 8.124e-20)
(1.13288 -0.457569 -3.84552e-20)
(1.12129 -0.429053 -5.42038e-20)
(1.11139 -0.402486 4.60338e-21)
(1.10324 -0.377948 -4.16603e-20)
(1.09657 -0.355247 -3.98892e-20)
(1.09117 -0.3342 -4.6779e-20)
(1.08684 -0.314644 8.24077e-21)
(1.08341 -0.296445 1.70429e-20)
(1.0808 -0.279463 -1.49091e-20)
(1.07893 -0.263515 6.68469e-21)
(1.0775 -0.248661 1.70334e-20)
(1.07582 -0.235376 -8.12032e-21)
(1.07409 -0.222219 8.81849e-21)
(0.26862 -0.103231 5.91881e-20)
(0.677374 -0.287428 5.21656e-20)
(0.949174 -0.423668 -2.42246e-19)
(1.09711 -0.492136 8.36098e-20)
(1.15832 -0.509665 -1.71189e-19)
(1.17203 -0.498336 1.17476e-19)
(1.16549 -0.474588 -1.12163e-20)
(1.153 -0.447473 7.21849e-20)
(1.1404 -0.420752 9.88476e-20)
(1.12941 -0.395611 -5.24949e-21)
(1.1202 -0.372241 5.62535e-20)
(1.11257 -0.350516 5.53573e-20)
(1.10628 -0.330303 -1.73515e-20)
(1.10113 -0.31145 -2.98634e-20)
(1.09696 -0.293848 -1.79855e-20)
(1.09366 -0.277377 2.34624e-20)
(1.09113 -0.261868 -1.56971e-20)
(1.08909 -0.247338 -3.58174e-21)
(1.08687 -0.234257 3.51418e-21)
(1.08453 -0.221492 -2.76912e-21)
(0.255589 -0.087935 1.40444e-19)
(0.660122 -0.25568 1.51824e-19)
(0.940379 -0.389695 -5.04741e-20)
(1.0999 -0.462885 2.55221e-19)
(1.17014 -0.486754 5.13014e-20)
(1.18883 -0.480815 -1.86529e-19)
(1.18411 -0.460913 1.32347e-19)
(1.17168 -0.436435 -1.68003e-20)
(1.15839 -0.411624 -1.04904e-20)
(1.14649 -0.387976 -3.75772e-20)
(1.13636 -0.365825 1.63229e-20)
(1.12788 -0.345133 1.4874e-20)
(1.12079 -0.325791 -4.12737e-20)
(1.11491 -0.307677 -2.96847e-21)
(1.11007 -0.290711 -1.19698e-20)
(1.10613 -0.274785 -1.92179e-20)
(1.10298 -0.259749 1.91354e-20)
(1.10038 -0.245577 -1.67237e-20)
(1.09769 -0.232715 -1.73194e-20)
(1.0948 -0.220368 1.04543e-20)
(0.240927 -0.0734569 -2.92548e-19)
(0.638338 -0.224302 8.92354e-20)
(0.925905 -0.355011 1.66064e-21)
(1.0974 -0.432307 -1.56164e-19)
(1.17779 -0.462424 1.81965e-20)
(1.20265 -0.462061 -4.06422e-20)
(1.20065 -0.44624 -4.00517e-20)
(1.18883 -0.424574 -5.72403e-20)
(1.17519 -0.401778 -2.87754e-21)
(1.16259 -0.379681 -2.62262e-20)
(1.1517 -0.358793 -5.1282e-20)
(1.14247 -0.339166 -2.22518e-20)
(1.13468 -0.320727 5.36989e-20)
(1.12815 -0.303395 3.05016e-20)
(1.1227 -0.287089 1.0937e-20)
(1.11819 -0.271727 2.91514e-20)
(1.11448 -0.257195 -4.17276e-20)
(1.11137 -0.243414 1.29518e-20)
(1.10826 -0.230777 9.75156e-21)
(1.10489 -0.218854 -9.99204e-22)
(0.224886 -0.0599773 2.09223e-19)
(0.612258 -0.193734 -1.80296e-19)
(0.905684 -0.32003 -7.37417e-20)
(1.08933 -0.400688 1.74974e-19)
(1.18095 -0.436855 1.46432e-20)
(1.21322 -0.442198 1.98833e-21)
(1.21492 -0.430677 6.20459e-20)
(1.20436 -0.411997 -8.90909e-20)
(1.19074 -0.391317 1.47544e-20)
(1.17768 -0.370825 5.23642e-20)
(1.16618 -0.351235 -1.94942e-20)
(1.15632 -0.332697 -5.18143e-20)
(1.14794 -0.315188 4.74306e-22)
(1.14083 -0.298653 -2.10936e-20)
(1.13484 -0.283026 -2.10284e-20)
(1.12982 -0.268252 -4.97468e-20)
(1.12561 -0.254259 3.01624e-20)
(1.12203 -0.2409 -1.83049e-21)
(1.11856 -0.228487 1.347e-21)
(1.1148 -0.217 -1.26715e-20)
(0.207747 -0.0476482 -1.88298e-19)
(0.582209 -0.1644 1.71883e-19)
(0.87973 -0.285175 -2.64541e-20)
(1.07541 -0.368326 -1.59043e-20)
(1.17926 -0.41023 2.01522e-20)
(1.22023 -0.421344 -2.82783e-20)
(1.22671 -0.414319 -1.71644e-21)
(1.21815 -0.3988 9.28303e-20)
(1.20499 -0.380341 -4.4144e-21)
(1.19171 -0.361504 6.14385e-21)
(1.17977 -0.343237 2.88616e-21)
(1.16942 -0.325804 6.89933e-21)
(1.16053 -0.309238 -2.10644e-20)
(1.15294 -0.293513 4.94467e-20)
(1.14649 -0.278584 5.81133e-21)
(1.14102 -0.264417 2.74706e-20)
(1.13637 -0.250959 -1.00899e-20)
(1.13233 -0.238048 4.26151e-21)
(1.12856 -0.225898 -1.53831e-20)
(1.12461 -0.214756 1.43891e-20)
(0.189808 -0.0365892 8.09839e-20)
(0.548614 -0.136693 -7.05406e-20)
(0.848155 -0.250874 -2.5136e-20)
(1.05543 -0.335535 -2.59276e-20)
(1.17234 -0.382735 3.47955e-20)
(1.22331 -0.399607 8.7061e-21)
(1.23578 -0.39725 4.73281e-20)
(1.23005 -0.385067 -1.00191e-19)
(1.21787 -0.368938 5.57062e-20)
(1.20468 -0.351809 3.78857e-20)
(1.19248 -0.334883 -2.4673e-20)
(1.18175 -0.318563 5.00017e-20)
(1.17246 -0.302946 6.66206e-22)
(1.16447 -0.288037 1.25529e-20)
(1.15762 -0.273815 1.70218e-20)
(1.15176 -0.260261 -2.12949e-20)
(1.14673 -0.247339 1.62013e-20)
(1.14231 -0.234909 5.76351e-21)
(1.13824 -0.223138 3.63372e-22)
(1.13417 -0.212368 -7.67513e-21)
(0.17138 -0.0268832 -4.27909e-20)
(0.511982 -0.110968 1.24322e-20)
(0.811183 -0.217552 7.77429e-20)
(1.02924 -0.302637 -1.61188e-20)
(1.15983 -0.354561 1.89382e-20)
(1.2221 -0.37709 -1.14736e-20)
(1.24183 -0.379537 1.38672e-20)
(1.2399 -0.370865 -9.97528e-21)
(1.2293 -0.357187 -5.89028e-20)
(1.21655 -0.34182 3.35936e-21)
(1.20429 -0.326254 1.99941e-21)
(1.19331 -0.311048 -3.50478e-20)
(1.18372 -0.296377 1.27213e-20)
(1.17541 -0.282284 -2.60965e-21)
(1.16823 -0.268769 -2.19018e-20)
(1.16204 -0.25583 1.87807e-20)
(1.15668 -0.243448 -2.61394e-20)
(1.15194 -0.231513 -8.81075e-21)
(1.14758 -0.220149 6.25888e-21)
(1.14328 -0.20972 -2.52941e-21)
(0.152775 -0.0185753 4.80756e-20)
(0.472902 -0.0875292 1.57845e-20)
(0.769161 -0.185628 -2.19329e-20)
(0.996775 -0.269972 -8.80846e-21)
(1.14137 -0.325908 -3.57957e-20)
(1.21615 -0.353886 -3.36645e-21)
(1.24451 -0.361232 -8.00459e-21)
(1.24748 -0.356244 1.38831e-21)
(1.23917 -0.345148 -5.52538e-21)
(1.22727 -0.331611 -1.11155e-20)
(1.21519 -0.317424 -5.33206e-21)
(1.20412 -0.303328 1.29092e-20)
(1.19432 -0.289594 1.91799e-21)
(1.18576 -0.276309 -1.06087e-20)
(1.17832 -0.263497 3.89386e-21)
(1.17186 -0.251168 3.31149e-21)
(1.16623 -0.239324 1.27881e-20)
(1.16122 -0.227875 -4.50069e-21)
(1.15659 -0.216899 -4.3359e-21)
(1.15204 -0.206797 -1.32682e-21)
(0.1343 -0.0116726 -1.01723e-20)
(0.432031 -0.0666191 2.45521e-20)
(0.722573 -0.155504 8.30324e-21)
(0.958047 -0.237886 -3.75883e-21)
(1.11663 -0.296983 -9.13812e-21)
(1.20501 -0.330089 1.1401e-20)
(1.24341 -0.342368 9.31839e-21)
(1.25249 -0.34123 -1.55402e-20)
(1.24733 -0.332865 4.06412e-21)
(1.23679 -0.321239 -1.6534e-21)
(1.22517 -0.308456 4.99004e-22)
(1.21416 -0.295469 -5.03061e-21)
(1.20427 -0.282659 -5.95009e-21)
(1.19554 -0.270167 1.36585e-21)
(1.1879 -0.258045 4.83724e-22)
(1.18123 -0.246318 -7.09056e-21)
(1.17537 -0.235003 6.02153e-22)
(1.17013 -0.224027 4.3363e-21)
(1.1653 -0.213422 4.1611e-21)
(1.16055 -0.203642 -1.33193e-22)
(0.116244 -0.00614512 -1.00176e-21)
(0.390069 -0.0484108 2.09413e-20)
(0.672038 -0.127557 2.18123e-21)
(0.913218 -0.206742 3.80944e-21)
(1.08533 -0.268011 -1.60953e-20)
(1.18817 -0.305789 2.81788e-20)
(1.23804 -0.322965 -8.59133e-21)
(1.25459 -0.325828 -5.29682e-21)
(1.25357 -0.320356 -2.34823e-21)
(1.24501 -0.310744 -6.31613e-21)
(1.23419 -0.299406 1.021e-20)
(1.22344 -0.287529 -1.17307e-20)
(1.21357 -0.275627 -7.54934e-21)
(1.20476 -0.26391 3.54205e-22)
(1.19699 -0.252461 2.35917e-21)
(1.19015 -0.241321 -1.24451e-21)
(1.18412 -0.230521 -4.41424e-21)
(1.1787 -0.22001 4.65767e-21)
(1.17371 -0.20977 6.45533e-21)
(1.16884 -0.200292 4.77953e-21)
(0.0988707 -0.0019291 7.0657e-20)
(0.347743 -0.0329995 1.77893e-20)
(0.618316 -0.102123 -3.99189e-20)
(0.862599 -0.176906 1.88005e-20)
(1.04725 -0.239237 -5.79268e-20)
(1.16512 -0.281089 -1.86058e-21)
(1.22784 -0.30303 -2.06392e-20)
(1.25332 -0.310016 2.51942e-20)
(1.2576 -0.307614 3.24364e-21)
(1.25178 -0.300145 -2.10613e-20)
(1.24221 -0.290312 -2.02045e-20)
(1.23196 -0.279555 6.86417e-21)
(1.22224 -0.268549 6.3608e-21)
(1.21343 -0.257585 -1.01475e-20)
(1.20559 -0.246788 2.72982e-21)
(1.19865 -0.236218 3.55223e-21)
(1.19249 -0.225918 2.09267e-20)
(1.18694 -0.215863 -4.00901e-21)
(1.18182 -0.205991 -1.16145e-20)
(1.17689 -0.196777 7.56731e-21)
(0.0824109 0.00106847 -5.13154e-20)
(0.305773 -0.0203993 -5.5726e-21)
(0.562288 -0.0794845 1.04414e-19)
(0.80669 -0.148753 -5.49678e-20)
(1.00231 -0.210932 6.31202e-20)
(1.13537 -0.256106 -1.51191e-20)
(1.21215 -0.282569 -4.78999e-21)
(1.24811 -0.293752 -6.22888e-21)
(1.25903 -0.294604 -5.25702e-20)
(1.25689 -0.289435 -1.81114e-20)
(1.24913 -0.281195 2.05661e-20)
(1.23968 -0.271586 -4.14713e-20)
(1.23028 -0.261468 -2.36563e-20)
(1.22157 -0.251237 1.14906e-20)
(1.21373 -0.241069 -2.20142e-20)
(1.20673 -0.231047 7.12747e-21)
(1.20048 -0.221229 -3.5559e-20)
(1.19484 -0.211617 1.52904e-20)
(1.18965 -0.202118 -7.27097e-21)
(1.18468 -0.193128 1.52525e-20)
(0.0670562 0.00296437 3.93373e-20)
(0.264845 -0.0105435 8.87378e-22)
(0.504934 -0.0598562 -6.109e-20)
(0.746192 -0.12265 -3.14563e-20)
(0.950585 -0.183401 5.45085e-20)
(1.09845 -0.230985 -2.41643e-20)
(1.1903 -0.261588 1.74681e-20)
(1.23829 -0.276977 -4.67349e-21)
(1.25734 -0.28126 -4.75915e-22)
(1.26001 -0.278576 1.32968e-20)
(1.25478 -0.27205 -7.70769e-21)
(1.24654 -0.263641 6.66258e-20)
(1.23768 -0.254418 1.07923e-20)