/*--------------------------------*- C++ -*----------------------------------*\
  =========                 |
  \\      /  F ield         | OpenFOAM: The Open Source CFD Toolbox
   \\    /   O peration     | Website:  https://openfoam.org
    \\  /    A nd           | Version:  7
     \\/     M anipulation  |
\*---------------------------------------------------------------------------*/
FoamFile
{
    version     2.0;
    format      ascii;
    class       volScalarField;
    location    "39.999";
    object      p;
}
// * * * * * * * * * * * * * * * * * * * * * * * * * * * * * * * * * * * * * //

dimensions      [0 2 -2 0 0 0 0];

internalField   nonuniform List<scalar> 
11400
(
-0.240796
-0.24014
-0.239412
-0.238614
-0.237751
-0.236825
-0.235837
-0.23479
-0.233683
-0.23252
-0.231299
-0.230023
-0.22869
-0.227301
-0.225856
-0.224355
-0.222798
-0.221184
-0.219514
-0.217787
-0.216006
-0.214171
-0.212281
-0.210337
-0.208336
-0.20628
-0.204167
-0.201997
-0.19977
-0.197486
-0.195144
-0.192745
-0.190289
-0.187775
-0.185204
-0.182577
-0.179893
-0.177154
-0.174361
-0.171514
-0.168615
-0.165664
-0.162665
-0.159617
-0.156524
-0.153388
-0.150211
-0.146995
-0.143744
-0.14046
-0.137148
-0.13381
-0.130449
-0.127071
-0.123678
-0.120274
-0.116864
-0.113452
-0.110042
-0.106639
-0.103246
-0.0998674
-0.0965085
-0.0931728
-0.0898645
-0.0865877
-0.0833461
-0.0801435
-0.0769836
-0.0738696
-0.0708048
-0.0677923
-0.0648348
-0.0619349
-0.0590951
-0.0563174
-0.0536038
-0.0509559
-0.0483753
-0.0458632
-0.0434205
-0.0410481
-0.0387467
-0.0365165
-0.0343579
-0.0322708
-0.0302553
-0.0283109
-0.0264373
-0.0246339
-0.0229002
-0.0212353
-0.0196384
-0.0181085
-0.0166448
-0.0152462
-0.0139116
-0.01264
-0.0114301
-0.010281
-0.00919157
-0.00816069
-0.00718733
-0.00627061
-0.00540954
-0.00460331
-0.00385119
-0.00315257
-0.00250696
-0.00191411
-0.00137377
-0.000886511
-0.000451593
-7.36311e-05
0.000257437
0.000503339
0.0007739
0.000705255
0.00139267
-0.240893
-0.240232
-0.239501
-0.238701
-0.237836
-0.236908
-0.235919
-0.234871
-0.233764
-0.2326
-0.231379
-0.230103
-0.22877
-0.227382
-0.225937
-0.224436
-0.222879
-0.221266
-0.219596
-0.217869
-0.216087
-0.214252
-0.212363
-0.210419
-0.20842
-0.206364
-0.204251
-0.202082
-0.199856
-0.197573
-0.195232
-0.192834
-0.190378
-0.187866
-0.185296
-0.18267
-0.179987
-0.17725
-0.174458
-0.171612
-0.168714
-0.165765
-0.162766
-0.15972
-0.156629
-0.153494
-0.150318
-0.147103
-0.143853
-0.140571
-0.137259
-0.133921
-0.130562
-0.127184
-0.123791
-0.120387
-0.116977
-0.113565
-0.110154
-0.10675
-0.103356
-0.0999773
-0.0966171
-0.0932801
-0.0899702
-0.0866916
-0.0834482
-0.0802436
-0.0770815
-0.0739651
-0.070898
-0.0678831
-0.0649228
-0.0620204
-0.059178
-0.0563976
-0.0536813
-0.0510307
-0.0484474
-0.0459326
-0.0434874
-0.0411125
-0.0388085
-0.0365759
-0.034415
-0.0323257
-0.030308
-0.0283616
-0.0264861
-0.024681
-0.0229455
-0.0212791
-0.0196807
-0.0181496
-0.0166847
-0.0152849
-0.0139493
-0.0126768
-0.0114661
-0.0103163
-0.00922622
-0.00819479
-0.00722097
-0.0063038
-0.00544236
-0.0046358
-0.00388337
-0.00318447
-0.00253857
-0.00194542
-0.00140471
-0.000917057
-0.000481474
-0.000102976
0.000229701
0.000476124
0.00075084
0.000684735
0.0013629
-0.241076
-0.240406
-0.23967
-0.238865
-0.237996
-0.237066
-0.236075
-0.235025
-0.233917
-0.232753
-0.231532
-0.230256
-0.228924
-0.227536
-0.226092
-0.224592
-0.223036
-0.221423
-0.219752
-0.218025
-0.216249
-0.214417
-0.212529
-0.210587
-0.208589
-0.206534
-0.204423
-0.202256
-0.200032
-0.19775
-0.195412
-0.193015
-0.190562
-0.188051
-0.185483
-0.182859
-0.180179
-0.177444
-0.174653
-0.17181
-0.168914
-0.165967
-0.16297
-0.159926
-0.156836
-0.153702
-0.150527
-0.147314
-0.144065
-0.140783
-0.137472
-0.134135
-0.130775
-0.127397
-0.124003
-0.120599
-0.117188
-0.113775
-0.110363
-0.106957
-0.103561
-0.100179
-0.0968165
-0.0934768
-0.0901638
-0.0868821
-0.0836352
-0.0804272
-0.0772613
-0.0741409
-0.0710699
-0.068051
-0.0650868
-0.0621802
-0.0593335
-0.056549
-0.0538285
-0.0511738
-0.0485865
-0.0460676
-0.0436184
-0.0412397
-0.0389319
-0.0366957
-0.0345313
-0.0324386
-0.0304176
-0.0284681
-0.0265896
-0.0247816
-0.0230435
-0.0213745
-0.0197737
-0.0182403
-0.0167733
-0.0153715
-0.0140341
-0.0127597
-0.0115475
-0.0103961
-0.00930457
-0.00827178
-0.00729667
-0.00637828
-0.00551566
-0.00470795
-0.00395439
-0.00325435
-0.00260726
-0.00201288
-0.00147076
-0.000981654
-0.000544044
-0.000163784
0.000172766
0.000420983
0.000704206
0.000644037
0.00130513
-0.241328
-0.240642
-0.239902
-0.239092
-0.238219
-0.237285
-0.236292
-0.23524
-0.234132
-0.232967
-0.231747
-0.230472
-0.229141
-0.227755
-0.226313
-0.224815
-0.223261
-0.22165
-0.219981
-0.218258
-0.216484
-0.214654
-0.212769
-0.210829
-0.208833
-0.206782
-0.204674
-0.202509
-0.200288
-0.198009
-0.195674
-0.193281
-0.19083
-0.188323
-0.185758
-0.183136
-0.180459
-0.177727
-0.174939
-0.172098
-0.169205
-0.16626
-0.163266
-0.160224
-0.157136
-0.154004
-0.15083
-0.147618
-0.14437
-0.141089
-0.137778
-0.13444
-0.13108
-0.127701
-0.124307
-0.120901
-0.117489
-0.114072
-0.110659
-0.10725
-0.103851
-0.100466
-0.0970997
-0.0937562
-0.0904375
-0.0871521
-0.0839008
-0.0806879
-0.0775171
-0.0743919
-0.0713157
-0.0682914
-0.0653219
-0.06241
-0.0595579
-0.056768
-0.0540422
-0.0513822
-0.0487896
-0.0462657
-0.0438114
-0.0414277
-0.0391152
-0.0368743
-0.0347053
-0.0326083
-0.0305831
-0.0286295
-0.026747
-0.0249353
-0.0231936
-0.0215211
-0.0199171
-0.0183805
-0.0169105
-0.0155059
-0.0141657
-0.0128888
-0.0116741
-0.0105203
-0.00942653
-0.00839154
-0.0074143
-0.00649383
-0.00562915
-0.0048194
-0.00406378
-0.00336164
-0.00271236
-0.00211568
-0.00157097
-0.00107919
-0.000638005
-0.000254564
8.82555e-05
0.00033991
0.000635422
0.000585208
0.00122357
-0.241623
-0.24092
-0.240177
-0.239361
-0.238484
-0.237547
-0.236553
-0.235501
-0.234392
-0.233229
-0.23201
-0.230737
-0.229409
-0.228026
-0.226587
-0.225092
-0.223539
-0.221927
-0.220254
-0.218548
-0.216777
-0.214951
-0.213069
-0.211133
-0.209141
-0.207094
-0.20499
-0.202829
-0.200612
-0.198337
-0.196006
-0.193617
-0.19117
-0.188667
-0.186105
-0.183488
-0.180815
-0.178086
-0.175302
-0.172464
-0.169574
-0.166632
-0.163641
-0.160601
-0.157515
-0.154385
-0.151213
-0.148002
-0.144754
-0.141474
-0.138163
-0.134826
-0.131465
-0.128085
-0.124689
-0.121282
-0.11787
-0.114443
-0.111029
-0.107618
-0.104215
-0.100826
-0.0974555
-0.0941072
-0.090785
-0.0874938
-0.0842369
-0.0810184
-0.0778419
-0.0747108
-0.0716285
-0.0685981
-0.0656225
-0.0627043
-0.0598461
-0.05705
-0.0543181
-0.051652
-0.0490534
-0.0465235
-0.0440634
-0.041674
-0.0393559
-0.0371096
-0.0349353
-0.0328331
-0.0308029
-0.0288445
-0.0269574
-0.0251411
-0.0233951
-0.0217184
-0.0201103
-0.0185698
-0.017096
-0.0156878
-0.0143441
-0.0130638
-0.0118457
-0.0106888
-0.00959181
-0.00855373
-0.00757346
-0.00664997
-0.00578227
-0.00496948
-0.00421076
-0.00350542
-0.00285277
-0.00225256
-0.00170388
-0.00120799
-0.000761455
-0.000373163
-2.15567e-05
0.000235646
0.000546501
0.000511074
0.00112364
-0.241923
-0.241207
-0.240469
-0.239647
-0.238768
-0.237831
-0.236836
-0.235786
-0.234679
-0.233518
-0.232303
-0.231033
-0.229709
-0.228331
-0.226896
-0.225404
-0.223855
-0.222248
-0.2206
-0.218884
-0.217115
-0.215293
-0.213416
-0.211485
-0.209498
-0.207455
-0.205356
-0.2032
-0.200988
-0.198718
-0.196392
-0.194007
-0.191566
-0.189067
-0.186511
-0.183899
-0.18123
-0.178505
-0.175725
-0.172891
-0.170005
-0.167066
-0.164078
-0.161041
-0.157958
-0.15483
-0.151661
-0.148451
-0.1452
-0.141922
-0.138612
-0.135274
-0.131913
-0.128531
-0.125134
-0.121725
-0.118308
-0.114885
-0.111465
-0.108049
-0.104643
-0.101249
-0.097874
-0.0945206
-0.0911933
-0.0878965
-0.084634
-0.0814095
-0.0782269
-0.0750896
-0.072001
-0.0689642
-0.0659821
-0.0630574
-0.0601926
-0.05739
-0.0546515
-0.051979
-0.049374
-0.0468377
-0.0443714
-0.0419758
-0.0396517
-0.0373995
-0.0352194
-0.0331115
-0.0310758
-0.029112
-0.0272196
-0.0253983
-0.0236472
-0.0219656
-0.0203528
-0.0188077
-0.0173294
-0.0159168
-0.0145688
-0.0132842
-0.012062
-0.010901
-0.00979993
-0.00875782
-0.00777352
-0.00684597
-0.00597418
-0.00515721
-0.00439418
-0.0036844
-0.003027
-0.00242183
-0.00186757
-0.00136592
-0.000912032
-0.000516935
-0.000153961
0.000111411
0.000439896
0.000424888
0.00101115
-0.242164
-0.241472
-0.240747
-0.239925
-0.239045
-0.23811
-0.237119
-0.236072
-0.23497
-0.233814
-0.232604
-0.23134
-0.230023
-0.22865
-0.227222
-0.225738
-0.224193
-0.222591
-0.220945
-0.219238
-0.217477
-0.215661
-0.213791
-0.211866
-0.209885
-0.207848
-0.205755
-0.203606
-0.201399
-0.199136
-0.196816
-0.194438
-0.192003
-0.18951
-0.186951
-0.184347
-0.181684
-0.178964
-0.17619
-0.17336
-0.170478
-0.167544
-0.164559
-0.161525
-0.158444
-0.155319
-0.152151
-0.148943
-0.145698
-0.142419
-0.139108
-0.135771
-0.132409
-0.129027
-0.125628
-0.122217
-0.118797
-0.115373
-0.111949
-0.10853
-0.10512
-0.101723
-0.0983427
-0.0949846
-0.0916524
-0.0883503
-0.0850822
-0.0818521
-0.0786636
-0.0755203
-0.0724256
-0.0693825
-0.0663941
-0.063463
-0.0605918
-0.0577827
-0.0550378
-0.0523589
-0.0497474
-0.0472048
-0.0447322
-0.0423304
-0.04
-0.0377417
-0.0355556
-0.0334418
-0.0314002
-0.0294306
-0.0275326
-0.0257056
-0.0239491
-0.0222621
-0.0206439
-0.0190936
-0.0176101
-0.0161923
-0.0148392
-0.0135496
-0.0123223
-0.0111562
-0.0100502
-0.009003
-0.00801357
-0.00708083
-0.00620372
-0.00538131
-0.00461261
-0.00389693
-0.00323324
-0.00262148
-0.00205982
-0.00155052
-0.00108706
-0.000682922
-0.000306018
-2.9377e-05
0.000318336
0.000329927
0.000891592
-0.241699
-0.240974
-0.240163
-0.239287
-0.238357
-0.237373
-0.236334
-0.23524
-0.234092
-0.23289
-0.231635
-0.230326
-0.228961
-0.227541
-0.22606
-0.224513
-0.222947
-0.221299
-0.219598
-0.217845
-0.216037
-0.214174
-0.212256
-0.210282
-0.208253
-0.206167
-0.204025
-0.201825
-0.199569
-0.197254
-0.194883
-0.192453
-0.189967
-0.187422
-0.184821
-0.182162
-0.179448
-0.176678
-0.173854
-0.170976
-0.168046
-0.165065
-0.162035
-0.158958
-0.155836
-0.152671
-0.149465
-0.146221
-0.142944
-0.139635
-0.136297
-0.132936
-0.129553
-0.126154
-0.122742
-0.119321
-0.115895
-0.112469
-0.109047
-0.105634
-0.102233
-0.0988499
-0.0954879
-0.0921515
-0.088845
-0.0855723
-0.0823373
-0.0791437
-0.0759952
-0.072895
-0.0698464
-0.0668523
-0.0639155
-0.0610384
-0.0582234
-0.0554725
-0.0527876
-0.0501701
-0.0476214
-0.0451427
-0.0427349
-0.0403985
-0.0381341
-0.035942
-0.0338221
-0.0317746
-0.029799
-0.0278951
-0.0260622
-0.0242997
-0.0226069
-0.0209828
-0.0194266
-0.0179372
-0.0165136
-0.0151546
-0.013859
-0.0126258
-0.0114537
-0.0103415
-0.00928817
-0.00829242
-0.00735321
-0.00646945
-0.00564015
-0.00486427
-0.00414108
-0.00346938
-0.00284919
-0.0022781
-0.00175906
-0.0012837
-0.000868026
-0.000474733
-0.000183334
0.000184667
0.000229143
0.000769626
-0.241872
-0.241116
-0.240329
-0.239463
-0.238541
-0.237568
-0.236542
-0.23546
-0.234325
-0.233135
-0.231892
-0.230594
-0.229241
-0.227833
-0.226367
-0.224857
-0.223268
-0.221629
-0.219939
-0.218196
-0.216397
-0.214543
-0.212634
-0.21067
-0.208649
-0.206571
-0.204437
-0.202246
-0.199997
-0.197691
-0.195327
-0.192905
-0.190425
-0.187887
-0.185292
-0.182641
-0.179933
-0.177169
-0.17435
-0.171478
-0.168553
-0.165577
-0.162552
-0.159479
-0.156361
-0.153199
-0.149996
-0.146756
-0.14348
-0.140173
-0.136838
-0.133478
-0.130096
-0.126697
-0.123285
-0.119864
-0.116438
-0.113011
-0.109588
-0.106173
-0.10277
-0.0993847
-0.0960201
-0.0926809
-0.0893713
-0.0860953
-0.0828567
-0.0796593
-0.0765068
-0.0734024
-0.0703495
-0.0673508
-0.0644093
-0.0615274
-0.0587075
-0.0559515
-0.0532613
-0.0506385
-0.0480844
-0.0456002
-0.0431868
-0.0408447
-0.0385746
-0.0363766
-0.0342509
-0.0321974
-0.0302158
-0.0283057
-0.0264667
-0.024698
-0.0229988
-0.0213684
-0.0198057
-0.0183098
-0.0168795
-0.0155138
-0.0142114
-0.0129712
-0.0117921
-0.0106727
-0.00961186
-0.0086085
-0.00766144
-0.00676955
-0.00593181
-0.00514708
-0.00441464
-0.00373302
-0.00310242
-0.00251976
-0.00198872
-0.00149904
-0.00106915
-0.000657183
-0.000347297
4.171e-05
0.000124976
0.000648859
-0.241959
-0.241139
-0.240387
-0.239541
-0.23863
-0.237673
-0.236664
-0.235601
-0.234482
-0.233309
-0.232081
-0.230799
-0.22946
-0.228064
-0.226606
-0.225104
-0.223535
-0.221913
-0.220236
-0.218505
-0.216718
-0.214875
-0.212977
-0.211023
-0.209012
-0.206945
-0.20482
-0.202638
-0.200399
-0.198101
-0.195746
-0.193332
-0.190861
-0.188331
-0.185744
-0.1831
-0.180399
-0.177642
-0.17483
-0.171964
-0.169046
-0.166076
-0.163056
-0.159988
-0.156875
-0.153718
-0.15052
-0.147284
-0.144012
-0.140709
-0.137376
-0.134019
-0.13064
-0.127243
-0.123833
-0.120413
-0.116988
-0.113562
-0.11014
-0.106725
-0.103323
-0.0999367
-0.0965715
-0.0932314
-0.0899206
-0.0866431
-0.0834027
-0.0802034
-0.0770486
-0.0739417
-0.070886
-0.0678843
-0.0649396
-0.0620542
-0.0592306
-0.0564707
-0.0537764
-0.0511493
-0.0485907
-0.0461018
-0.0436834
-0.0413363
-0.0390609
-0.0368574
-0.0347261
-0.0326667
-0.0306791
-0.0287629
-0.0269175
-0.0251422
-0.0234364
-0.0217991
-0.0202294
-0.0187263
-0.0172886
-0.0159153
-0.0146051
-0.013357
-0.0121695
-0.0110417
-0.0099722
-0.00895983
-0.00800345
-0.00710186
-0.00625402
-0.00545866
-0.00471509
-0.00402157
-0.00337846
-0.00278201
-0.00223659
-0.00173022
-0.0012833
-0.000850586
-0.00051843
-0.000107851
1.93122e-05
0.000531833
-0.241939
-0.24101
-0.240298
-0.239482
-0.238587
-0.237649
-0.236664
-0.235625
-0.234529
-0.233378
-0.232172
-0.230909
-0.22959
-0.228212
-0.226767
-0.225273
-0.223723
-0.222119
-0.22046
-0.218744
-0.216972
-0.215143
-0.213258
-0.211316
-0.209318
-0.207262
-0.205149
-0.202978
-0.200749
-0.198462
-0.196117
-0.193713
-0.191251
-0.188731
-0.186153
-0.183517
-0.180825
-0.178077
-0.175273
-0.172415
-0.169504
-0.166541
-0.163529
-0.160468
-0.157361
-0.154211
-0.151019
-0.147789
-0.144523
-0.141225
-0.137898
-0.134545
-0.131171
-0.127779
-0.124372
-0.120957
-0.117535
-0.114112
-0.110693
-0.107281
-0.103881
-0.100497
-0.0971333
-0.0937947
-0.090485
-0.0872084
-0.0839686
-0.0807694
-0.0776145
-0.0745071
-0.0714506
-0.0684479
-0.0655017
-0.0626145
-0.0597888
-0.0570265
-0.0543294
-0.0516992
-0.0491372
-0.0466445
-0.0442221
-0.0418705
-0.0395904
-0.0373819
-0.0352453
-0.0331803
-0.0311868
-0.0292643
-0.0274124
-0.0256304
-0.0239175
-0.0222729
-0.0206956
-0.0191845
-0.0177387
-0.0163569
-0.015038
-0.0137807
-0.0125839
-0.0114464
-0.0103668
-0.00934399
-0.00837675
-0.00746382
-0.00660415
-0.00579634
-0.00503971
-0.00433225
-0.00367448
-0.00306201
-0.00249979
-0.00197443
-0.00150766
-0.00105235
-0.000694283
-0.000261561
-8.64414e-05
0.000420189
-0.240691
-0.240015
-0.239238
-0.238365
-0.237453
-0.236499
-0.235491
-0.234425
-0.233303
-0.232125
-0.230889
-0.229595
-0.228241
-0.226822
-0.22533
-0.2238
-0.222219
-0.22058
-0.218884
-0.21713
-0.215318
-0.21345
-0.211523
-0.209539
-0.207498
-0.205398
-0.203241
-0.201024
-0.19875
-0.196417
-0.194025
-0.191574
-0.189065
-0.186498
-0.183873
-0.181191
-0.178452
-0.175659
-0.17281
-0.169909
-0.166956
-0.163952
-0.1609
-0.157802
-0.15466
-0.151477
-0.148255
-0.144997
-0.141707
-0.138388
-0.135043
-0.131676
-0.128291
-0.124892
-0.121482
-0.118067
-0.114651
-0.111237
-0.107831
-0.104436
-0.101057
-0.0976979
-0.0943635
-0.0910578
-0.0877846
-0.0845479
-0.0813515
-0.0781989
-0.0750935
-0.0720384
-0.0690367
-0.0660911
-0.0632041
-0.060378
-0.0576149
-0.0549165
-0.0522846
-0.0497204
-0.047225
-0.0447995
-0.0424443
-0.0401602
-0.0379472
-0.0358056
-0.0337353
-0.031736
-0.0298074
-0.0279488
-0.0261598
-0.0244395
-0.022787
-0.0212015
-0.0196818
-0.018227
-0.0168358
-0.0155072
-0.0142398
-0.0130324
-0.0118838
-0.0107928
-0.0097581
-0.00877844
-0.00785252
-0.00697927
-0.00615717
-0.00538554
-0.00466211
-0.00398754
-0.00335688
-0.00277549
-0.002229
-0.00173965
-0.0012601
-0.000872784
-0.000417245
-0.000191244
0.000314888
-0.240128
-0.23948
-0.238746
-0.237906
-0.23703
-0.236116
-0.235147
-0.234121
-0.233037
-0.231895
-0.230693
-0.229431
-0.228104
-0.226702
-0.225204
-0.223712
-0.222167
-0.220559
-0.218889
-0.217159
-0.21537
-0.213521
-0.211613
-0.209647
-0.207623
-0.20554
-0.203399
-0.201198
-0.198939
-0.19662
-0.194242
-0.191806
-0.18931
-0.186756
-0.184144
-0.181475
-0.178749
-0.175968
-0.173132
-0.170242
-0.167301
-0.164309
-0.161269
-0.158183
-0.155052
-0.15188
-0.148669
-0.145423
-0.142143
-0.138835
-0.135501
-0.132144
-0.128769
-0.12538
-0.121981
-0.118576
-0.115169
-0.111764
-0.108366
-0.10498
-0.101609
-0.0982583
-0.0949313
-0.0916325
-0.0883659
-0.0851352
-0.0819444
-0.0787967
-0.0756958
-0.0726447
-0.0696463
-0.0667034
-0.0638186
-0.0609941
-0.0582319
-0.0555339
-0.0529017
-0.0503366
-0.0478397
-0.045412
-0.0430542
-0.0407667
-0.0385498
-0.0364037
-0.0343283
-0.0323234
-0.0303885
-0.0285233
-0.026727
-0.0249989
-0.0233381
-0.0217438
-0.0202149
-0.0187503
-0.0173488
-0.0160094
-0.0147307
-0.0135116
-0.0123508
-0.011247
-0.0101989
-0.00920523
-0.0082647
-0.00737616
-0.00653797
-0.00574945
-0.00500811
-0.00431467
-0.00366379
-0.00306096
-0.00249141
-0.00197692
-0.00147167
-0.00105221
-0.000573038
-0.000294312
0.00021643
-0.238617
-0.237929
-0.23714
-0.236315
-0.235453
-0.234536
-0.233561
-0.232527
-0.231432
-0.230275
-0.229055
-0.227771
-0.226418
-0.224976
-0.22344
-0.221922
-0.220356
-0.218722
-0.217024
-0.215263
-0.21344
-0.211556
-0.209613
-0.20761
-0.205548
-0.203427
-0.201245
-0.199004
-0.196704
-0.194343
-0.191924
-0.189445
-0.186908
-0.184312
-0.181659
-0.178949
-0.176183
-0.173362
-0.170487
-0.167561
-0.164584
-0.161559
-0.158488
-0.155372
-0.152215
-0.149019
-0.145787
-0.142522
-0.139228
-0.135908
-0.132566
-0.129205
-0.12583
-0.122444
-0.119053
-0.115659
-0.112267
-0.108882
-0.105508
-0.102149
-0.0988088
-0.0954926
-0.0922041
-0.0889471
-0.0857256
-0.0825432
-0.0794034
-0.0763096
-0.0732649
-0.0702723
-0.0673345
-0.0644539
-0.0616329
-0.0588735
-0.0561775
-0.0535464
-0.0509818
-0.0484846
-0.0460557
-0.043696
-0.0414059
-0.0391857
-0.0370355
-0.0349553
-0.0329448
-0.0310038
-0.0291317
-0.027328
-0.0255917
-0.0239222
-0.0223186
-0.0207797
-0.0193045
-0.0178919
-0.0165408
-0.0152498
-0.0140178
-0.0128435
-0.0117255
-0.0106627
-0.00965359
-0.00869688
-0.00779141
-0.00693544
-0.00612825
-0.00536719
-0.00465295
-0.00397999
-0.00335363
-0.00275928
-0.00221737
-0.00168515
-0.00123117
-0.000727395
-0.000395046
0.000125019
-0.23732
-0.236698
-0.235988
-0.235238
-0.234444
-0.233595
-0.232687
-0.231716
-0.230681
-0.229581
-0.228416
-0.227182
-0.225874
-0.224479
-0.222979
-0.221452
-0.219928
-0.218346
-0.216692
-0.214968
-0.213178
-0.211323
-0.209407
-0.207432
-0.205395
-0.203298
-0.201141
-0.198923
-0.196645
-0.194307
-0.191908
-0.189451
-0.186934
-0.184358
-0.181725
-0.179034
-0.176287
-0.173486
-0.170631
-0.167724
-0.164766
-0.16176
-0.158707
-0.15561
-0.152472
-0.149295
-0.146081
-0.142835
-0.13956
-0.136258
-0.132934
-0.129592
-0.126235
-0.122867
-0.119492
-0.116116
-0.112741
-0.109372
-0.106014
-0.10267
-0.0993451
-0.0960432
-0.0927682
-0.0895242
-0.0863149
-0.0831439
-0.0800148
-0.0769309
-0.0738952
-0.0709107
-0.0679801
-0.0651059
-0.0622903
-0.0595354
-0.0568429
-0.0542145
-0.0516516
-0.0491551
-0.0467262
-0.0443654
-0.0420733
-0.0398503
-0.0376964
-0.0356117
-0.0335959
-0.0316487
-0.0297697
-0.0279582
-0.0262135
-0.0245348
-0.0229212
-0.0213718
-0.0198853
-0.0184608
-0.017097
-0.0157928
-0.0145468
-0.0133578
-0.0122245
-0.0111456
-0.0101197
-0.00914541
-0.0082215
-0.0073462
-0.0065187
-0.00573629
-0.0049995
-0.00430283
-0.00365108
-0.00303045
-0.00245917
-0.00189884
-0.00140851
-0.000879079
-0.000492989
4.0662e-05
-0.235465
-0.23496
-0.234373
-0.233729
-0.233026
-0.232266
-0.231444
-0.230554
-0.229595
-0.228568
-0.227471
-0.226302
-0.22506
-0.223736
-0.222315
-0.220767
-0.21923
-0.217703
-0.216114
-0.214445
-0.2127
-0.210884
-0.209004
-0.207062
-0.205058
-0.202992
-0.200865
-0.198676
-0.196426
-0.194114
-0.191743
-0.189311
-0.186819
-0.184269
-0.18166
-0.178994
-0.176271
-0.173494
-0.170662
-0.167779
-0.164845
-0.161862
-0.158833
-0.155759
-0.152644
-0.14949
-0.1463
-0.143077
-0.139825
-0.136546
-0.133245
-0.129925
-0.12659
-0.123244
-0.119891
-0.116536
-0.113182
-0.109833
-0.106495
-0.10317
-0.0998635
-0.0965792
-0.0933212
-0.0900933
-0.0868992
-0.0837425
-0.0806268
-0.0775553
-0.0745311
-0.071557
-0.0686357
-0.0657698
-0.0629614
-0.0602126
-0.0575252
-0.0549008
-0.0523407
-0.0498461
-0.0474179
-0.0450568
-0.0427635
-0.0405381
-0.0383809
-0.0362919
-0.0342709
-0.0323176
-0.0304316
-0.0286122
-0.0268588
-0.0251705
-0.0235466
-0.021986
-0.0204876
-0.0190504
-0.0176732
-0.0163548
-0.0150939
-0.0138893
-0.0127396
-0.0116434
-0.0105995
-0.00960637
-0.00866272
-0.00776673
-0.00691751
-0.00611234
-0.0053515
-0.00462972
-0.00395103
-0.00330289
-0.00270067
-0.00211127
-0.00158328
-0.0010271
-0.000587762
-3.67503e-05
-0.232641
-0.232231
-0.231725
-0.231143
-0.230497
-0.229782
-0.228993
-0.22813
-0.227193
-0.226182
-0.225095
-0.223931
-0.222687
-0.221355
-0.219928
-0.218356
-0.216819
-0.215288
-0.213687
-0.211997
-0.210227
-0.208388
-0.206487
-0.204522
-0.202493
-0.200402
-0.198248
-0.196032
-0.193754
-0.191414
-0.189014
-0.186554
-0.184034
-0.181455
-0.178818
-0.176125
-0.173377
-0.170574
-0.167719
-0.164814
-0.161859
-0.158859
-0.155813
-0.152727
-0.149601
-0.146439
-0.143243
-0.140019
-0.136767
-0.133493
-0.1302
-0.126892
-0.123572
-0.120245
-0.116914
-0.113585
-0.110261
-0.106945
-0.103643
-0.100359
-0.0970954
-0.0938575
-0.0906487
-0.0874727
-0.0843332
-0.0812335
-0.0781769
-0.0751664
-0.0722049
-0.069295
-0.0664393
-0.0636399
-0.0608988
-0.0582179
-0.0555988
-0.0530427
-0.050551
-0.0481245
-0.0457639
-0.0434699
-0.0412428
-0.0390827
-0.0369898
-0.0349638
-0.0330045
-0.0311115
-0.0292841
-0.0275218
-0.0258237
-0.0241891
-0.0226169
-0.0211061
-0.0196557
-0.0182644
-0.0169311
-0.0156546
-0.0144334
-0.0132664
-0.0121521
-0.0110892
-0.0100761
-0.00911156
-0.00819375
-0.00732162
-0.00649252
-0.00570639
-0.00495838
-0.00425148
-0.00357485
-0.00294049
-0.00232124
-0.00175477
-0.00117076
-0.000679075
-0.000107386
-0.22975
-0.229565
-0.229233
-0.228802
-0.228293
-0.227702
-0.227029
-0.226276
-0.225441
-0.224526
-0.22353
-0.222451
-0.221287
-0.220035
-0.218685
-0.217232
-0.215626
-0.214124
-0.212611
-0.211006
-0.209305
-0.207526
-0.205681
-0.203767
-0.201786
-0.19974
-0.19763
-0.195456
-0.193219
-0.190919
-0.188557
-0.186134
-0.183651
-0.181109
-0.178508
-0.17585
-0.173137
-0.170369
-0.167548
-0.164677
-0.161756
-0.158789
-0.155778
-0.152724
-0.149631
-0.146502
-0.14334
-0.140147
-0.136928
-0.133686
-0.130424
-0.127146
-0.123857
-0.12056
-0.117259
-0.113958
-0.110661
-0.107373
-0.104097
-0.100838
-0.0975985
-0.0943837
-0.0911969
-0.0880418
-0.0849219
-0.0818406
-0.0788011
-0.0758064
-0.0728594
-0.0699627
-0.0671187
-0.0643297
-0.0615976
-0.0589244
-0.0563116
-0.0537605
-0.0512724
-0.0488482
-0.0464886
-0.0441943
-0.0419657
-0.039803
-0.0377062
-0.0356752
-0.0337097
-0.0318095
-0.0299739
-0.0282023
-0.026494
-0.0248481
-0.0232638
-0.02174
-0.0202756
-0.0188695
-0.0175205
-0.0162274
-0.0149888
-0.0138035
-0.0126701
-0.0115871
-0.0105531
-0.00956658
-0.00862587
-0.0077297
-0.0068756
-0.00606304
-0.0052878
-0.0045516
-0.00384562
-0.00317817
-0.00252836
-0.00192293
-0.00131004
-0.000767088
-0.000171656
-0.226398
-0.226296
-0.226065
-0.225729
-0.225293
-0.224763
-0.224142
-0.223432
-0.222634
-0.22175
-0.220779
-0.219722
-0.218577
-0.217342
-0.216008
-0.214556
-0.212885
-0.211391
-0.209859
-0.208226
-0.206509
-0.20472
-0.202859
-0.200929
-0.198933
-0.196871
-0.194745
-0.192554
-0.1903
-0.187983
-0.185605
-0.183165
-0.180665
-0.178107
-0.17549
-0.172818
-0.170091
-0.16731
-0.164479
-0.161598
-0.15867
-0.155698
-0.152683
-0.149628
-0.146537
-0.143412
-0.140257
-0.137074
-0.133868
-0.130641
-0.127398
-0.124143
-0.120879
-0.117611
-0.114341
-0.111075
-0.107816
-0.104569
-0.101337
-0.0981236
-0.0949335
-0.0917702
-0.0886373
-0.0855381
-0.0824761
-0.0794545
-0.0764762
-0.0735441
-0.0706608
-0.0678287
-0.0650501
-0.062327
-0.0596612
-0.0570543
-0.0545078
-0.0520228
-0.0496003
-0.0472412
-0.0449459
-0.0427151
-0.0405488
-0.0384473
-0.0364104
-0.0344379
-0.0325294
-0.0306846
-0.0289028
-0.0271832
-0.0255251
-0.0239275
-0.0223896
-0.0209102
-0.0194882
-0.0181224
-0.0168116
-0.0155546
-0.0143499
-0.0131962
-0.0120921
-0.011036
-0.0100265
-0.00906181
-0.00814055
-0.00726045
-0.00642047
-0.00561713
-0.00485074
-0.0041147
-0.0034135
-0.00273254
-0.00208801
-0.00144535
-0.000852479
-0.000230524
-0.222186
-0.222321
-0.222314
-0.222182
-0.221936
-0.221581
-0.221125
-0.220569
-0.219917
-0.219172
-0.218335
-0.217405
-0.216383
-0.215268
-0.214057
-0.212751
-0.211333
-0.209669
-0.208181
-0.206651
-0.205041
-0.20335
-0.201574
-0.199722
-0.197797
-0.195803
-0.193741
-0.191611
-0.189416
-0.187155
-0.184831
-0.182445
-0.179996
-0.177488
-0.174921
-0.172296
-0.169616
-0.166883
-0.164097
-0.161261
-0.158377
-0.155448
-0.152476
-0.149464
-0.146414
-0.143331
-0.140216
-0.137073
-0.133906
-0.130718
-0.127513
-0.124295
-0.121067
-0.117834
-0.114599
-0.111366
-0.108139
-0.104923
-0.101721
-0.0985367
-0.0953742
-0.0922372
-0.0891292
-0.0860536
-0.0830138
-0.080013
-0.077054
-0.0741397
-0.0712728
-0.0684555
-0.0656903
-0.0629791
-0.0603237
-0.0577258
-0.0551867
-0.0527077
-0.0502899
-0.0479339
-0.0456405
-0.0434102
-0.0412431
-0.0391395
-0.0370992
-0.0351222
-0.0332081
-0.0313564
-0.0295665
-0.0278379
-0.0261696
-0.0245609
-0.0230108
-0.0215182
-0.020082
-0.0187011
-0.0173742
-0.0161001
-0.0148774
-0.0137047
-0.0125806
-0.0115035
-0.010472
-0.00948428
-0.00853876
-0.00763347
-0.00676678
-0.00593604
-0.00514013
-0.00437471
-0.00364049
-0.00292899
-0.00224649
-0.00157431
-0.000934047
-0.000284447
-0.218962
-0.219104
-0.219113
-0.218999
-0.218768
-0.218427
-0.217981
-0.217433
-0.216787
-0.216044
-0.215207
-0.214277
-0.213257
-0.212147
-0.210953
-0.209667
-0.208277
-0.206671
-0.205062
-0.203465
-0.201807
-0.20007
-0.198257
-0.196373
-0.19442
-0.192398
-0.190309
-0.188153
-0.185932
-0.183647
-0.181299
-0.17889
-0.17642
-0.173891
-0.171305
-0.168663
-0.165967
-0.16322
-0.160422
-0.157578
-0.154687
-0.151755
-0.148782
-0.145773
-0.142729
-0.139654
-0.136552
-0.133426
-0.130279
-0.127115
-0.123938
-0.120751
-0.117558
-0.114364
-0.111171
-0.107985
-0.104808
-0.101645
-0.0984991
-0.0953743
-0.0922741
-0.089202
-0.0861615
-0.0831556
-0.0801875
-0.0772601
-0.0743761
-0.0715381
-0.0687484
-0.0660093
-0.0633227
-0.0606904
-0.0581139
-0.0555948
-0.0531342
-0.050733
-0.0483922
-0.0461123
-0.0438938
-0.041737
-0.039642
-0.0376089
-0.0356374
-0.0337273
-0.031878
-0.0300892
-0.0283601
-0.0266899
-0.0250779
-0.023523
-0.0220244
-0.0205808
-0.0191912
-0.0178543
-0.0165689
-0.0153336
-0.0141471
-0.0130078
-0.0119144
-0.0108651
-0.00985845
-0.00889255
-0.00796576
-0.00707589
-0.00622115
-0.00539901
-0.00460736
-0.00384337
-0.00310426
-0.00238731
-0.00168811
-0.00100523
-0.000330682
-0.21463
-0.214912
-0.21506
-0.21508
-0.214977
-0.214755
-0.214419
-0.213975
-0.213425
-0.212772
-0.212017
-0.211162
-0.210207
-0.20915
-0.207985
-0.206707
-0.205302
-0.203861
-0.202447
-0.200955
-0.199373
-0.197707
-0.195963
-0.194146
-0.192256
-0.190295
-0.188264
-0.186166
-0.184001
-0.18177
-0.179476
-0.17712
-0.174703
-0.172226
-0.169692
-0.167102
-0.164458
-0.161763
-0.159017
-0.156225
-0.153387
-0.150507
-0.147588
-0.144631
-0.141641
-0.138621
-0.135573
-0.132501
-0.129408
-0.126299
-0.123176
-0.120044
-0.116905
-0.113765
-0.110626
-0.107492
-0.104368
-0.101257
-0.0981617
-0.0950869
-0.0920356
-0.0890114
-0.0860173
-0.0830567
-0.0801323
-0.0772471
-0.0744038
-0.0716047
-0.0688523
-0.0661486
-0.0634956
-0.0608951
-0.0583485
-0.0558573
-0.0534226
-0.0510455
-0.0487267
-0.0464669
-0.0442666
-0.042126
-0.0400454
-0.0380247
-0.0360638
-0.0341625
-0.0323203
-0.0305367
-0.0288111
-0.0271428
-0.025531
-0.0239748
-0.0224733
-0.0210253
-0.0196297
-0.0182854
-0.0169912
-0.0157456
-0.0145475
-0.0133951
-0.0122873
-0.0112223
-0.0101986
-0.00921418
-0.00826774
-0.00735655
-0.00647968
-0.00563328
-0.00481737
-0.00402583
-0.00326118
-0.00251251
-0.00178841
-0.00106684
-0.00037019
-0.210034
-0.210454
-0.210737
-0.210891
-0.210915
-0.210814
-0.210593
-0.210258
-0.209812
-0.209258
-0.208598
-0.207833
-0.206964
-0.205992
-0.204913
-0.203732
-0.202465
-0.201148
-0.199773
-0.198324
-0.196794
-0.195185
-0.1935
-0.191741
-0.18991
-0.188007
-0.186034
-0.183992
-0.181884
-0.179709
-0.17747
-0.175169
-0.172806
-0.170384
-0.167905
-0.16537
-0.162781
-0.160141
-0.157451
-0.154714
-0.151932
-0.149109
-0.146246
-0.143346
-0.140414
-0.13745
-0.13446
-0.131446
-0.128411
-0.12536
-0.122295
-0.11922
-0.116139
-0.113056
-0.109974
-0.106897
-0.103828
-0.100771
-0.0977303
-0.0947084
-0.091709
-0.0887353
-0.0857906
-0.0828778
-0.0799999
-0.0771596
-0.0743594
-0.0716019
-0.0688892
-0.0662233
-0.0636063
-0.0610398
-0.0585254
-0.0560643
-0.0536577
-0.0513067
-0.049012
-0.0467744
-0.0445941
-0.0424717
-0.0404073
-0.0384009
-0.0364523
-0.0345614
-0.0327279
-0.0309511
-0.0292306
-0.0275657
-0.0259555
-0.0243993
-0.0228961
-0.0214449
-0.0200446
-0.0186941
-0.0173921
-0.0161373
-0.0149285
-0.0137641
-0.0126428
-0.0115629
-0.010523
-0.00952094
-0.00855568
-0.00762404
-0.00672589
-0.00585615
-0.00501685
-0.00419886
-0.00340953
-0.00263061
-0.00188234
-0.00112456
-0.000406112
-0.205449
-0.205997
-0.206407
-0.206685
-0.206829
-0.206843
-0.206732
-0.206502
-0.206157
-0.2057
-0.205134
-0.20446
-0.203681
-0.202797
-0.201811
-0.20073
-0.199564
-0.198321
-0.197003
-0.195613
-0.194145
-0.1926
-0.190979
-0.189282
-0.187512
-0.18567
-0.183756
-0.181774
-0.179723
-0.177607
-0.175425
-0.173181
-0.170876
-0.168511
-0.166088
-0.16361
-0.161078
-0.158495
-0.155862
-0.153183
-0.150459
-0.147693
-0.144888
-0.142047
-0.139173
-0.136269
-0.133337
-0.130382
-0.127406
-0.124414
-0.121408
-0.118391
-0.115369
-0.112343
-0.109318
-0.106297
-0.103284
-0.100282
-0.0972954
-0.0943264
-0.0913788
-0.0884556
-0.0855601
-0.0826951
-0.0798633
-0.0770676
-0.0743104
-0.0715941
-0.0689208
-0.0662925
-0.0637112
-0.0611784
-0.0586958
-0.0562645
-0.0538858
-0.0515606
-0.0492898
-0.047074
-0.0449137
-0.0428092
-0.0407607
-0.0387684
-0.036832
-0.0349514
-0.0331263
-0.0313563
-0.0296407
-0.027979
-0.0263704
-0.0248142
-0.0233093
-0.0218548
-0.0204498
-0.0190929
-0.0177832
-0.0165192
-0.0152998
-0.0141234
-0.0129888
-0.0118941