/*--------------------------------*- C++ -*----------------------------------*\
  =========                 |
  \\      /  F ield         | OpenFOAM: The Open Source CFD Toolbox
   \\    /   O peration     | Website:  https://openfoam.org
    \\  /    A nd           | Version:  7
     \\/     M anipulation  |
\*---------------------------------------------------------------------------*/
FoamFile
{
    version     2.0;
    format      ascii;
    class       surfaceScalarField;
    location    "39.999";
    object      phi;
}
// * * * * * * * * * * * * * * * * * * * * * * * * * * * * * * * * * * * * * //

dimensions      [0 3 -1 0 0 0 0];

internalField   nonuniform List<scalar> 
22580
(
-0.0010796
2.42288e-05
-0.00110183
2.22388e-05
-0.00112225
2.04135e-05
-0.00114097
1.86992e-05
-0.00115814
1.71091e-05
-0.00117385
1.56306e-05
-0.00118822
1.4249e-05
-0.00120132
1.29505e-05
-0.00121323
1.17226e-05
-0.00122401
1.05536e-05
-0.00123371
9.43259e-06
-0.00124236
8.35021e-06
-0.00125
7.29827e-06
-0.00125665
6.27042e-06
-0.00126232
5.26263e-06
-0.00126704
4.27331e-06
-0.00127083
3.30274e-06
-0.00127368
2.35088e-06
-0.00127563
1.4162e-06
-0.00127666
4.91788e-07
-0.00127682
-3.63011e-07
-0.00127617
-1.1641e-06
-0.00127468
-1.99149e-06
-0.00127235
-2.82307e-06
-0.00126917
-3.65413e-06
-0.00126513
-4.48385e-06
-0.00126022
-5.31266e-06
-0.00125443
-6.14149e-06
-0.00124776
-6.97147e-06
-0.00124019
-7.80376e-06
-0.00123171
-8.63949e-06
-0.00122232
-9.47967e-06
-0.00121199
-1.03252e-05
-0.00120072
-1.11769e-05
-0.00118849
-1.20349e-05
-0.0011753
-1.28992e-05
-0.00116114
-1.37721e-05
-0.00114598
-1.46543e-05
-0.00112983
-1.55465e-05
-0.00111267
-1.6449e-05
-0.0010945
-1.73623e-05
-0.0010753
-1.82863e-05
-0.00105507
-1.92211e-05
-0.00103382
-2.01664e-05
-0.00101152
-2.1122e-05
-0.00098819
-2.20871e-05
-0.000963825
-2.30609e-05
-0.000938428
-2.40426e-05
-0.000912006
-2.50296e-05
-0.000884569
-2.60194e-05
-0.000856127
-2.70126e-05
-0.000826693
-2.80076e-05
-0.000796281
-2.90025e-05
-0.000764908
-2.99954e-05
-0.000732594
-3.09839e-05
-0.000699359
-3.19657e-05
-0.000665227
-3.29387e-05
-0.00063022
-3.39028e-05
-0.000594373
-3.48455e-05
-0.000557714
-3.57714e-05
-0.000520275
-3.66776e-05
-0.000482087
-3.7561e-05
-0.000443187
-3.84189e-05
-0.000403608
-3.92491e-05
-0.000363387
-4.00495e-05
-0.000322564
-4.08133e-05
-0.000281177
-4.15411e-05
-0.000239266
-4.2231e-05
-0.000196869
-4.28812e-05
-0.000154027
-4.34898e-05
-0.000110781
-4.40529e-05
-6.7171e-05
-4.45703e-05
-2.32342e-05
-4.50437e-05
2.09875e-05
-4.54668e-05
6.54558e-05
-4.58422e-05
0.000110133
-4.6169e-05
0.000154981
-4.64467e-05
0.000199965
-4.66753e-05
0.000245049
-4.68552e-05
0.000290198
-4.69869e-05
0.000335381
-4.70712e-05
0.000380565
-4.7109e-05
0.000425721
-4.71017e-05
0.00047082
-4.70507e-05
0.000515835
-4.69575e-05
0.000560741
-4.68242e-05
0.000605513
-4.66525e-05
0.00065013
-4.64448e-05
0.000694571
-4.62032e-05
0.000738817
-4.59301e-05
0.000782851
-4.56281e-05
0.000826656
-4.52996e-05
0.00087022
-4.49473e-05
0.00091353
-4.4574e-05
0.000956574
-4.41823e-05
0.000999343
-4.37749e-05
0.00104183
-4.33547e-05
0.00108403
-4.29243e-05
0.00112594
-4.24866e-05
0.00116755
-4.20442e-05
0.00120886
-4.15999e-05
0.00124988
-4.11565e-05
0.0012906
-4.07166e-05
0.00133103
-4.02829e-05
0.00137118
-3.98582e-05
-2.84961e-07
0.00141104
-3.94452e-05
-4.1751e-07
0.00145063
-3.90467e-05
-5.43977e-07
0.00148996
-3.86657e-05
-6.63407e-07
0.00152904
-3.83056e-05
-7.7488e-07
0.00156789
-3.79692e-05
-8.77503e-07
0.00160652
-3.76618e-05
-9.70403e-07
0.00164496
-3.7385e-05
-1.0527e-06
0.00168323
-3.71512e-05
-1.1235e-06
0.00172137
-3.69525e-05
-1.18187e-06
0.00175942
-3.68297e-05
-1.2266e-06
0.00179742
-3.67397e-05
-1.25699e-06
0.00183546
-3.67766e-05
-1.26917e-06
0.0018737
-3.69674e-05
-1.27023e-06
-3.69389e-05
-1.22416e-06
-0.00103282
4.75714e-05
-0.00105428
4.3698e-05
-0.00107401
4.01456e-05
-0.0010921
3.67898e-05
-0.00110866
3.36714e-05
-0.0011238
3.07711e-05
-0.00113762
2.80614e-05
-0.00115018
2.55162e-05
-0.00116157
2.31107e-05
-0.00117184
2.08217e-05
-0.00118103
1.86279e-05
-0.00118919
1.65099e-05
-0.00119635
1.4451e-05
-0.00120251
1.24377e-05
-0.00120771
1.04612e-05
-0.00121196
8.51764e-06
-0.00121526
6.6072e-06
-0.00121764
4.73004e-06
-0.00121911
2.88487e-06
-0.00121968
1.0648e-06
-0.00121938
-6.63922e-07
-0.00121826
-2.28043e-06
-0.00121631
-3.94312e-06
-0.00121352
-5.61996e-06
-0.00120987
-7.30376e-06
-0.00120536
-8.99317e-06
-0.00119998
-1.06891e-05
-0.00119373
-1.23934e-05
-0.00118659
-1.4108e-05
-0.00117856
-1.58351e-05
-0.00116962
-1.75763e-05
-0.00115977
-1.93333e-05
-0.00114899
-2.11071e-05
-0.00113727
-2.28988e-05
-0.00112459
-2.47074e-05
-0.00111096
-2.6531e-05
-0.00109636
-2.83741e-05
-0.00108078
-3.02371e-05
-0.0010642
-3.21197e-05
-0.00104663
-3.40215e-05
-0.00102805
-3.59416e-05
-0.00100846
-3.7879e-05
-0.000987849
-3.98322e-05
-0.000966216
-4.17994e-05
-0.00094356
-4.37786e-05
-0.000919879
-4.57674e-05
-0.000895177
-4.77631e-05
-0.000869457
-4.97629e-05
-0.000842725
-5.17612e-05
-0.000814995
-5.37499e-05
-0.000786276
-5.57314e-05
-0.000756582
-5.77019e-05
-0.000725927
-5.96571e-05
-0.00069433
-6.15926e-05
-0.00066181
-6.3504e-05
-0.000628389
-6.53865e-05
-0.000594091
-6.72366e-05
-0.000558936
-6.90584e-05
-0.000522962
-7.08193e-05
-0.000486198
-7.25349e-05
-0.000448676
-7.42e-05
-0.000410428
-7.58093e-05
-0.000371488
-7.73583e-05
-0.000331893
-7.88445e-05
-0.000291676
-8.02662e-05
-0.000250881
-8.16088e-05
-0.000209545
-8.28773e-05
-0.000167707
-8.40689e-05
-0.000125406
-8.51817e-05
-8.26811e-05
-8.62149e-05
-3.95737e-05
-8.71602e-05
3.87758e-06
-8.80216e-05
4.76283e-05
-8.87944e-05
9.16451e-05
-8.94836e-05
0.000135889
-9.00858e-05
0.000180321
-9.06012e-05
0.000224905
-9.10309e-05
0.000269606
-9.13758e-05
0.000314388
-9.16374e-05
0.000359218
-9.18173e-05
0.000404065
-9.19178e-05
0.000448897
-9.19412e-05
0.000493686
-9.18902e-05
0.000538403
-9.17678e-05
0.000583022
-9.1577e-05
0.000627519
-9.13215e-05
0.000671872
-9.10046e-05
0.000716057
-9.06303e-05
0.000760056
-9.02024e-05
0.000803851
-8.9725e-05
0.000847425
-8.92022e-05
0.000890764
-8.86381e-05
0.000933854
-8.80371e-05
0.000976683
-8.74034e-05
0.00101924
-8.67413e-05
0.00106152
-8.60551e-05
0.00110352
-8.53492e-05
0.00114522
-8.46279e-05
0.00118663
-8.38953e-05
0.00122774
-8.31558e-05
0.00126855
-8.24137e-05
0.00130907
-8.1673e-05
0.00134929
-8.09381e-05
0.00138922
-8.02133e-05
0.00142887
-7.95028e-05
0.00146823
-7.88111e-05
0.00150733
-7.81429e-05
0.00154617
-7.75029e-05
0.00158476
-7.6897e-05
0.00162312
-7.63298e-05
0.00166127
-7.58112e-05
0.00169923
-7.53427e-05
0.00173702
-7.49489e-05
0.00177468
-7.46119e-05
0.00181226
-7.44103e-05
0.00184979
-7.42628e-05
0.00188734
-7.43311e-05
0.00192507
-7.47003e-05
-7.46281e-05
-0.000939738
6.92458e-05
-0.000959713
6.36733e-05
-0.000978119
5.85513e-05
-0.000994983
5.36536e-05
-0.00101039
4.90776e-05
-0.00102443
4.481e-05
-0.00103718
4.0815e-05
-0.00104872
3.70574e-05
-0.00105911
3.35021e-05
-0.00106841
3.0116e-05
-0.00107665
2.68683e-05
-0.00108387
2.37305e-05
-0.0010901
2.06774e-05
-0.00109535
1.76886e-05
-0.00109964
1.47499e-05
-0.00110297
1.18554e-05
-0.00110537
9.00611e-06
-0.00110685
6.20373e-06
-0.00110741
3.44882e-06
-0.00110705
7.00313e-07
-0.00110592
-1.79413e-06
-0.00110393
-4.26779e-06
-0.00110109
-6.77879e-06
-0.00109741
-9.30561e-06
-0.00109287
-1.18434e-05
-0.00108747
-1.43921e-05
-0.0010812
-1.69538e-05
-0.00107407
-1.95312e-05
-0.00106605
-2.21274e-05
-0.00105714
-2.47451e-05
-0.00104733
-2.73869e-05
-0.0010366
-3.00549e-05
-0.00102496
-3.27505e-05
-0.00101238
-3.5475e-05
-0.000998865
-3.82264e-05
-0.000984398
-4.09979e-05
-0.000968973
-4.37992e-05
-0.000952581
-4.66295e-05
-0.000935212
-4.94879e-05
-0.000916861
-5.23729e-05
-0.00089752
-5.52825e-05
-0.000877185
-5.82141e-05
-0.000855852
-6.1165e-05
-0.00083352
-6.41318e-05
-0.000810187
-6.7111e-05
-0.000785857
-7.00981e-05
-0.000760531
-7.30888e-05
-0.000734214
-7.60802e-05
-0.000706912
-7.90626e-05
-0.000678644
-8.20183e-05
-0.000649419
-8.49558e-05
-0.000619253
-8.78686e-05
-0.00058816
-9.07495e-05
-0.000556161
-9.35921e-05
-0.000523275
-9.63894e-05
-0.000489528
-9.9134e-05
-0.000454943
-0.000101822
-0.000419534
-0.000104467
-0.000383348
-0.000107004
-0.000346415
-0.000109468
-0.000308764
-0.000111851
-0.000270428
-0.000114145
-0.000231445
-0.000116342
-0.000191848
-0.000118441
-0.000151668
-0.000120447
-0.000110953
-0.000122324
-6.97386e-05
-0.000124091
-2.80631e-05
-0.000125744
1.40327e-05
-0.000127278
5.65039e-05
-0.000128686
9.93195e-05
-0.000129976
0.000142439
-0.000131141
0.000185824
-0.00013218
0.000229435
-0.000133095
0.000273234
-0.000133885
0.000317186
-0.000134553
0.000361254
-0.000135099
0.000405405
-0.000135526
0.000449603
-0.000135836
0.000493818
-0.000136033
0.000538019
-0.000136119
0.000582177
-0.000136099
0.000626263
-0.000135976
0.000670251
-0.000135756
0.000714116
-0.000135443
0.000757836
-0.000135041
0.000801389
-0.000134558
0.000844755
-0.000133996
0.000887916
-0.000133363
0.000930855
-0.000132664
0.000973557
-0.000131904
0.00101601
-0.00013109
0.0010582
-0.000130227
0.00110012
-0.000129321
0.00114175
-0.000128378
0.0011831
-0.000127404
0.00122416
-0.000126405
0.00126492
-0.000125386
0.00130538
-0.000124354
0.00134553
-0.000123313
0.00138539
-0.00012227
0.00142495
-0.00012123
0.00146421
-0.000120199
0.00150318
-0.000119183
0.00154186
-0.000118188
0.00158027
-0.000117219
0.00161841
-0.000116284
0.0016563
-0.000115388
0.00169394
-0.00011454
0.00173135
-0.000113745
0.00176856
-0.00011302
0.00180558
-0.000112364
0.00184245
-0.000111813
0.00187918
-0.000111341
0.00191582
-0.000111057
0.00195242
-0.000110855
0.00198901
-0.000110924
0.00202575
-0.000111444
-0.000111379
-0.000801154
8.85403e-05
-0.000819026
8.15451e-05
-0.000835561
7.50864e-05
-0.000850707
6.87999e-05
-0.000864505
6.28749e-05
-0.000877017
5.73219e-05
-0.000888307
5.21058e-05
-0.000898437
4.71867e-05
-0.000907457
4.25224e-05
-0.000915413
3.80722e-05
-0.000922342
3.37975e-05
-0.000928274
2.96621e-05
-0.000933229
2.56329e-05
-0.000937223
2.1682e-05
-0.000940262
1.77895e-05
-0.000942353
1.39462e-05
-0.000943502
1.01548e-05
-0.000943728
6.42929e-06
-0.000943046
2.76774e-06
-0.0009415
-8.45773e-07
-0.000939178
-4.11641e-06
-0.000935983
-7.46306e-06
-0.000931932
-1.08296e-05
-0.000927028
-1.42099e-05
-0.000921268
-1.76027e-05
-0.00091465
-2.10103e-05
-0.000907168
-2.4436e-05
-0.000898815
-2.78836e-05
-0.000889586
-3.1357e-05
-0.000879471
-3.48596e-05
-0.000868463
-3.83948e-05
-0.000856553
-4.19651e-05
-0.000843731
-4.55724e-05
-0.000829987
-4.92195e-05
-0.000815309
-5.29043e-05
-0.0007997
-5.66064e-05
-0.000783152
-6.0348e-05
-0.000765655
-6.41265e-05
-0.000747203
-6.79395e-05
-0.000727792
-7.17844e-05
-0.000707416
-7.5658e-05
-0.000686074
-7.95563e-05
-0.000663764
-8.34751e-05
-0.000640486
-8.74095e-05
-0.000616243
-9.1354e-05
-0.000591039
-9.53026e-05
-0.000564878
-9.92494e-05
-0.000537765
-0.000103193
-0.000509706
-0.000107122
-0.000480725
-0.000110999
-0.000450835
-0.000114846
-0.00042005
-0.000118653
-0.000388389
-0.000122411
-0.000355871
-0.00012611
-0.00032252
-0.000129741
-0.000288362
-0.000133292
-0.00025343
-0.000136754
-0.000217707
-0.000140191
-0.000181274
-0.000143437
-0.000144152
-0.000146591
-0.000106368
-0.000149635
-6.79567e-05
-0.000152556
-2.89494e-05
-0.000155349
1.06135e-05
-0.000158004
5.06672e-05
-0.0001605
9.12093e-05
-0.000162866
0.000132196
-0.000165078
0.000173586
-0.000167134
0.00021534
-0.000169032
0.000257421
-0.000170767
0.000299787
-0.000172342
0.000342402
-0.000173755
0.000385227
-0.000175005
0.000428225
-0.000176093
0.000471361
-0.000177021
0.000514599
-0.000177791
0.000557905
-0.000178405
0.000601246
-0.000178867
0.00064459
-0.000179181
0.000687908
-0.00017935
0.00073117
-0.000179381
0.000774349
-0.000179277
0.000817419
-0.000179046
0.000860355
-0.000178692
0.000903135
-0.000178223
0.000945738
-0.000177644
0.000988144
-0.000176964
0.00103034
-0.000176188
0.0010723
-0.000175324
0.00111401
-0.000174379
0.00115547
-0.000173361
0.00119665
-0.000172276
0.00123756
-0.000171133
0.00127818
-0.000169939
0.0013185
-0.000168702
0.00135852
-0.000167427
0.00139824
-0.000166124
0.00143765
-0.000164798
0.00147676
-0.000163458
0.00151556
-0.00016211
0.00155405
-0.000160761
0.00159224
-0.000159419
0.00163013
-0.000158091
0.00166773
-0.000156783
0.00170504
-0.000155503
0.00174208
-0.000154259
0.00177886
-0.000153059
0.00181538
-0.00015191
0.00185167
-0.000150824
0.00188773
-0.000149808
0.00192359
-0.000148881
0.00195927
-0.000148041
0.00199479
-0.000147338
0.00203018
-0.000146733
0.00206549
-0.00014636
0.00210074
-0.000146109
0.00213596
-0.000146142
0.00217129
-0.000146776
-0.000146771
-0.000617862
0.000104933
-0.000633191
9.68742e-05
-0.000647466
8.93612e-05
-0.000660558
8.18922e-05
-0.00067245
7.47665e-05
-0.000683165
6.8037e-05
-0.000692743
6.16836e-05
-0.000701225
5.56685e-05
-0.000708649
4.99467e-05
-0.00071505
4.4473e-05
-0.000720457
3.92039e-05
-0.000724892
3.40972e-05
-0.000728371
2.91128e-05
-0.000730905
2.42155e-05
-0.000732494
1.93786e-05
-0.000733136
1.45886e-05
-0.000732841
9.85909e-06
-0.000731646
5.23491e-06
-0.000729393
5.1459e-07
-0.000726599
-3.64003e-06
-0.000722862
-7.85316e-06
-0.000718254
-1.20717e-05
-0.000712785
-1.62987e-05
-0.000706459
-2.05355e-05
-0.000699277
-2.47849e-05
-0.000691236
-2.90512e-05
-0.000682332
-3.33394e-05
-0.000672562
-3.7654e-05
-0.000661919
-4.19997e-05
-0.000650398
-4.63807e-05
-0.000637993
-5.08004e-05
-0.000624696
-5.52619e-05
-0.000610501
-5.97674e-05
-0.000595396
-6.43245e-05
-0.000579367
-6.89329e-05
-0.00056243
-7.3544e-05
-0.000544574
-7.82036e-05
-0.000525794
-8.29063e-05
-0.000506086
-8.76474e-05
-0.000485447
-9.24233e-05
-0.000463876
-9.72292e-05
-0.000441373
-0.00010206
-0.000417938
-0.000106909
-0.000393577
-0.000111771
-0.000368293
-0.000116638
-0.000342094
-0.000121501
-0.00031499
-0.000126353
-0.000286983
-0.000131201
-0.000258071
-0.000136034
-0.000228297
-0.000140773
-0.000197672
-0.000145471
-0.00016621
-0.000150115
-0.000133932
-0.00015469
-0.000100857
-0.000159184
-6.70085e-05
-0.000163589
-3.24021e-05
-0.000167899
2.95432e-06
-0.00017211
3.88743e-05
-0.000176111
7.54899e-05
-0.000180053
0.000112743
-0.000183844
0.00015059
-0.000187482
0.000188994
-0.00019096
0.000227916
-0.000194271
0.00026732
-0.000197408
0.000307178
-0.000200358
0.000347441
-0.000203129
0.000388074
-0.00020571
0.000429037
-0.000208098
0.000470295
-0.000210289
0.00051181
-0.000212282
0.000553543
-0.000214076
0.000595459
-0.00021567
0.00063752
-0.000217066
0.000679692
-0.000218265
0.00072194
-0.000219269
0.000764231
-0.000220082
0.000806533
-0.000220707
0.000848815
-0.000221149
0.000891046
-0.000221412
0.0009332
-0.000221504
0.000975249
-0.00022143
0.00101717
-0.000221197
0.00105894
-0.000220812
0.00110053
-0.000220283
0.00114192
-0.000219618
0.0011831
-0.000218826
0.00122405
-0.000217913
0.00126476
-0.00021689
0.0013052
-0.000215766
0.00134537
-0.000214548
0.00138525
-0.000213246
0.00142484
-0.000211869
0.00146414
-0.000210425
0.00150312
-0.000208925
0.0015418
-0.000207375
0.00158015
-0.000205786
0.0016182
-0.000204166
0.00165592
-0.000202524
0.00169333
-0.000200867
0.00173043
-0.000199205
0.00176721
-0.000197546
0.00180369
-0.000195898
0.00183987
-0.00019427
0.00187576
-0.000192669
0.00191136
-0.000191106
0.00194669
-0.000189589
0.00198176
-0.000188127
0.00201658
-0.00018673
0.00205116
-0.000185411
0.00208553
-0.000184177
0.0021197
-0.000183053
0.0021537
-0.000182036
0.00218754
-0.000181183
0.00222126
-0.000180451
0.00225488
-0.00017998
0.00228845
-0.000179684
0.00232196
-0.000179648
0.00235553
-0.000180348
-0.000180446
-0.000390088
0.000118207
-0.000402827
0.000109613
-0.0004147
0.000101235
-0.000425629
9.28214e-05
-0.000435544
8.46813e-05
-0.000444412
7.69048e-05
-0.000452239
6.95111e-05
-0.000459046
6.2475e-05
-0.000464852
5.57526e-05
-0.000469677
4.92985e-05
-0.000473541
4.30676e-05
-0.000476459
3.70148e-05
-0.00047844
3.10945e-05
-0.000479489
2.52641e-05
-0.000479598
1.94873e-05
-0.000478751
1.37417e-05
-0.000476944
8.05297e-06
-0.000474148
2.43839e-06
-0.000470759
-2.87452e-06
-0.000466434
-7.96496e-06
-0.000461231
-1.30564e-05
-0.000455159
-1.81438e-05
-0.000448223
-2.32342e-05
-0.000440428
-2.83309e-05
-0.000431773
-3.34396e-05
-0.000422258
-3.85662e-05
-0.000411881
-4.37168e-05
-0.000400638
-4.88967e-05
-0.000388527
-5.4111e-05
-0.000375543
-5.93642e-05
-0.000361684
-6.46596e-05
-0.000346946
-6.99999e-05
-0.000331325
-7.53878e-05
-0.000314811
-8.0839e-05
-0.000297377
-8.63667e-05
-0.000279061
-9.18606e-05
-0.000259851
-9.74136e-05
-0.000239744
-0.000103013
-0.000218738
-0.000108653
-0.000196834
-0.000114327
-0.000174033
-0.00012003
-0.000150338
-0.000125755
-0.000125753
-0.000131494
-0.000100284
-0.000137241
-7.39354e-05
-0.000142986
-4.67139e-05
-0.000148723
-1.86229e-05
-0.000154444
1.02914e-05
-0.000160115
3.99578e-05
-0.0001657
7.04569e-05
-0.000171272
0.000101758
-0.000176773
0.000133834
-0.000182191
0.00016666
-0.000187515
0.000200209
-0.000192734
0.000234455
-0.000197835
0.000269367
-0.00020281
0.000304904
-0.000207647
0.000341086
-0.000212293
0.000377833
-0.0002168
0.000415121
-0.000221132
0.000452918
-0.000225278
0.000491188
-0.00022923
0.000529896
-0.000232979
0.000569006
-0.000236518
0.000608484
-0.000239836
0.000648289
-0.000242935
0.000688385
-0.000245807
0.000728735
-0.000248448
0.000769302
-0.000250856
0.00081005
-0.00025303
0.000850943
-0.000254968
0.000891945
-0.000256673
0.000933023
-0.000258144
0.000974143
-0.000259385
0.00101527
-0.000260398
0.00105638
-0.00026119
0.00109744
-0.000261763
0.00113841
-0.000262125
0.00117928
-0.000262282
0.00122002
-0.000262241
0.0012606
-0.000262011
0.001301
-0.000261598
0.0013412
-0.000261013
0.00138118
-0.000260265
0.00142093
-0.000259363
0.00146042
-0.000258317
0.00149964
-0.000257138
0.00153859
-0.000255834
0.00157724
-0.000254418
0.00161559
-0.000252899
0.00165363
-0.000251287
0.00169136
-0.000249594
0.00172876
-0.000247829
0.00176584
-0.000246003
0.00180259
-0.000244126
0.00183901
-0.000242208
0.00187511
-0.00024026
0.00191087
-0.00023829
0.00194632
-0.000236309
0.00198144
-0.000234327
0.00201624
-0.000232353
0.00205074
-0.000230396
0.00208494
-0.000228467
0.00211885
-0.000226575
0.00215247
-0.00022473
0.00218582
-0.000222942
0.00221892
-0.000221222
0.00225177
-0.000219581
0.00228439
-0.000218035
0.00231681
-0.00021659
0.00234903
-0.000215276
0.00238108
-0.000214086
0.00241298
-0.000213085
0.00244476
-0.000212233
0.00247644
-0.000211654
0.00250807
-0.000211316
0.00253961
-0.000211188
0.00257117
-0.000211905
-0.000212124
-0.000117106
-0.000127757
0.000120264
-0.000137411
0.000110889
-0.000146405
0.000101815
-0.000154591
9.28672e-05
-0.000161861
8.41755e-05
-0.000168187
7.58367e-05
-0.000173562
6.78506e-05
-0.000177988
6.01785e-05
-0.000181469
5.27789e-05
-0.000184011
4.561e-05
-0.000185623
3.86264e-05
-0.000186308
3.17796e-05
-0.000186063
2.50191e-05
-0.00018487
1.82942e-05
-0.000182704
1.15756e-05
-0.000179575
4.9245e-06
-0.000175542
-1.59506e-06
-0.000170851
-7.56483e-06
-0.000165229
-1.35869e-05
-0.000158713
-1.95724e-05
-0.000151314
-2.55435e-05
-0.00014304
-3.15079e-05
-0.000133897
-3.74737e-05
-0.000123887
-4.34496e-05
-0.00011301
-4.94432e-05
-0.000101266
-5.54612e-05
-8.86526e-05
-6.15099e-05
-7.51685e-05
-6.75951e-05
-6.08108e-05
-7.37219e-05
-4.55758e-05
-7.98946e-05
-2.94582e-05
-8.61176e-05
-1.24494e-05
-9.23966e-05
5.42385e-06
-9.87122e-05
2.40641e-05
-0.000105007
4.36087e-05
-0.000111405
6.40411e-05
-0.000117846
8.53523e-05
-0.000124324
0.000107536
-0.000130837
0.000130587
-0.000137378
0.000154497
-0.000143941
0.00017926
-0.000150518
0.000204867
-0.000157101
0.000231307
-0.000163681
0.000258568
-0.000170247
0.000286636
-0.000176791
0.000315492
-0.0001833
0.000345128
-0.00018975
0.000375545
-0.000196117
0.000406697
-0.000202423
0.000438565
-0.000208641
0.000471127
-0.000214754
0.000504361
-0.000220748
0.000538238
-0.000226612
0.000572732
-0.000232329
0.00060781
-0.000237889
0.000643441
-0.000243277
0.00067961
-0.000248462
0.00071627
-0.00025346
0.000753387
-0.000258249
0.000790928
-0.000262819
0.000828857
-0.000267159
0.000867138
-0.000271261
0.000905737
-0.000275116
0.000944617
-0.000278717
0.000983743
-0.00028206
0.00102308
-0.00028514
0.00106258
-0.000287954
0.00110223
-0.0002905
0.00114197
-0.000292776
0.00118179
-0.000294783
0.00122164
-0.000296523
0.00126149
-0.000297997
0.00130132
-0.00029921
0.00134108
-0.000300166
0.00138076
-0.000300871
0.00142033
-0.000301331
0.00145976
-0.000301553
0.00149902
-0.000301546
0.0015381
-0.000301319
0.00157697
-0.00030088
0.00161561
-0.000300241
0.00165401
-0.00029941
0.00169215
-0.0002984
0.00173001
-0.000297222
0.00176757
-0.000295886
0.00180484
-0.000294404
0.0018418
-0.000292789
0.00187843
-0.000291053
0.00191474
-0.000289206
0.00195071
-0.000287262
0.00198635
-0.000285231
0.00202165
-0.000283127
0.0020566
-0.000280959
0.00209122
-0.000278741
0.00212549
-0.000276482
0.00215943
-0.000274196
0.00219303
-0.000271892
0.0022263
-0.000269581
0.00225925
-0.000267275
0.00229188
-0.000264983
0.0023242
-0.000262718
0.00235622
-0.000260489
0.00238796
-0.000258307
0.00241941
-0.000256184
0.0024506
-0.00025413
0.00248153
-0.000252159
0.00251223
-0.00025028
0.00254271
-0.000248513
0.00257298
-0.000246864
0.00260307
-0.000245364
0.002633
-0.00024401
0.00266278
-0.000242864
0.00269244
-0.000241897
0.00272199
-0.000241203
0.00275149
-0.000240821
0.0027809
-0.000240592
0.00281027
-0.000241278
-0.000241614
0.00019349
0.000129563
0.000185231
0.000119148
0.000177476
0.00010957
0.000170346
9.99974e-05
0.000164023
9.04983e-05
0.00015858
8.12794e-05
0.000154045
7.23859e-05
0.000150435
6.37883e-05
0.000147761
5.54527e-05
0.000146026
4.73448e-05
0.00014523
3.94228e-05
0.000145372
3.1638e-05
0.000146458
2.39328e-05
0.000148509
1.6243e-05
0.000151547
8.5378e-06
0.000155814
6.5759e-07
0.000160449
-6.23041e-06
0.000166125
-1.32406e-05
0.000172716
-2.01781e-05
0.000180217
-2.70738e-05
0.000188618
-3.3944e-05
0.000197909
-4.07986e-05
0.000208085
-4.76495e-05
0.000219142
-5.45071e-05
0.000231079
-6.13798e-05
0.000243892
-6.8275e-05
0.000257581
-7.5199e-05
0.000272144
-8.21576e-05
0.000287578
-8.91559e-05
0.000303881
-9.61976e-05
0.000321049
-0.000103286
0.000339077
-0.000110424
0.000357965
-0.0001176
0.000377743
-0.000124785
0.00039837
-0.000132033
0.000419845
-0.000139321
0.000442162
-0.000146642
0.000465316
-0.00015399
0.000489298
-0.00016136
0.000514099
-0.000168742
0.000539709
-0.000176128
0.000566115
-0.000183507
0.000593304
-0.000190869
0.000621259
-0.000198203
0.000649965
-0.000205496
0.000679399
-0.000212735
0.000709549
-0.0002199
0.0007404
-0.000226969
0.000771922
-0.000233945
0.000804088
-0.000240807
0.000836874
-0.00024754
0.000870253
-0.000254127
0.000904197
-0.000260555
0.000938675
-0.000266807
0.000973656
-0.000272869
0.00100911
-0.000278728
0.001045
-0.00028436
0.00108131
-0.000289763
0.00111798
-0.000294925
0.00115499
-0.000299831
0.00119231
-0.000304474
0.00122989
-0.000308842
0.0012677
-0.000312929
0.00130571
-0.000316727
0.00134389
-0.000320231
0.00138218
-0.000323438
0.00142057
-0.000326345
0.00145902
-0.000328949
0.0014975
-0.000331252
0.00153597
-0.000333253
0.0015744
-0.000334956
0.00161277
-0.000336364
0.00165104
-0.000337483
0.00168919
-0.000338317
0.0017272
-0.000338874
0.00176503
-0.000339162
0.00180266
-0.00033919
0.00184008
-0.000338967
0.00187727
-0.000338503
0.0019142
-0.00033781
0.00195086
-0.0003369
0.00198723
-0.000335784
0.0020233
-0.000334474
0.00205907
-0.000332984
0.00209451
-0.000331327
0.00212962
-0.000329515
0.00216439
-0.000327563
0.00219882
-0.000325482
0.0022329
-0.000323288
0.00226663
-0.000320992
0.00230001
-0.000318609
0.00233304
-0.000316151
0.00236571
-0.000313631
0.00239803
-0.000311062
0.00243
-0.000308457
0.00246163
-0.000305827
0.00249293
-0.000303185
0.00252389
-0.000300544
0.00255453
-0.000297913
0.00258485
-0.000295307
0.00261487
-0.000292735
0.00264459
-0.000290211
0.00267403
-0.000287745
0.0027032
-0.00028535
0.00273211
-0.000283038
0.00276077
-0.000280823
0.0027892
-0.000278715
0.00281743
-0.000276735
0.00284545
-0.000274891
0.0028733
-0.000273215
0.002901
-0.000271704
0.00292855
-0.000270415
0.00295599
-0.000269342
0.00298332
-0.000268527
0.0030106
-0.000268099
0.00303777
-0.000267767
0.00306488
-0.000268383
-0.000268815
0.000563955
0.000139076
0.000555501
0.000127603
0.000547554
0.000117517
0.000540193
0.000107358
0.00053363
9.70615e-05
0.000527963
8.69466e-05
0.000523232
7.71164e-05
0.000519467
6.75539e-05
0.000516684
5.82351e-05
0.000514893
4.9136e-05
0.000514095
4.02211e-05
0.00051429
3.14424e-05
0.000515489
2.27341e-05
0.00051773
1.40028e-05
0.000521137
5.13019e-06
0.000525194
-3.39947e-06
0.000530317
-1.13532e-05
0.000536374
-1.92974e-05
0.000543378
-2.71828e-05
0.000551328
-3.50235e-05
0.000560211
-4.28267e-05
0.000570017
-5.06049e-05
0.00058074
-5.83723e-05
0.000592374
-6.61409e-05
0.000604913
-7.39193e-05
0.000618353
-8.17148e-05
0.000632688
-8.95337e-05
0.000647912
-9.73818e-05
0.00066402
-0.000105264
0.000681005
-0.000113183
0.00069886
-0.000121141
0.000717577
-0.00012914
0.000737151
-0.000137174
0.00075759
-0.000145225
0.000778872
-0.000153315
0.000800986
-0.000161434
0.000823921
-0.000169577
0.000847666
-0.000177736
0.000872208
-0.000185903
0.000897535
-0.000194068
0.00092363
-0.000202222
0.000950476
-0.000210354
0.000978058
-0.000218451
0.00100635
-0.000226499
0.00103534
-0.000234486
0.00106501
-0.000242396
0.00109532
-0.000250211
0.00112626
-0.000257912
0.0011578
-0.000265489
0.00118992
-0.000272924
0.00122258
-0.000280202
0.00125576
-0.000287306
0.00128943
-0.000294219
0.00132354
-0.000300925
0.00135808
-0.000307409
0.00139301
-0.000313655
0.0014283
-0.000319646
0.00146391
-0.000325372
0.0014998
-0.000330821
0.00153595
-0.000335981
0.00157232
-0.000340842
0.00160888
-0.000345395
0.00164558
-0.000349631
0.0016824
-0.000353545
0.0017193
-0.000357132
0.00175625
-0.000360388
0.00179321
-0.000363311
0.00183016
-0.000365902
0.00186707
-0.000368159
0.00190391
-0.000370087
0.00194064
-0.000371688
0.00197724
-0.000372967
0.00201369
-0.000373931
0.00204996
-0.000374587
0.00208603
-0.000374942
0.00212187
-0.000375008
0.00215747
-0.000374793
0.00219282
-0.000374309
0.00222788
-0.000373568
0.00226265
-0.000372583
0.00229712
-0.000371367
0.00233127
-0.000369933
0.00236509
-0.000368295
0.00239858
-0.000366468
0.00243171
-0.000364466
0.0024645
-0.000362303
0.00249693
-0.000359995
0.00252901
-0.000357556
0.00256072
-0.000355001
0.00259207
-0.000352344
0.00262306
-0.0003496
0.0026537
-0.000346783
0.00268397
-0.000343907
0.00271389
-0.000340985
0.00274347
-0.000338032
0.0027727
-0.000335061
0.0028016
-0.000332085
0.00283018
-0.000329116
0.00285843
-0.000326168
0.00288638
-0.000323254
0.00291403
-0.000320385
0.00294139
-0.000317574
0.00296848
-0.000314834
0.00299531
-0.000312178
0.00302189
-0.000309618
0.00304823
-0.00030717
0.00307436
-0.000304845
0.00310029
-0.000302664
0.00312604
-0.000300636
0.00315161
-0.000298792
0.00317705
-0.000297136
0.00320234
-0.000295708
0.00322753
-0.000294537
0.00325261
-0.000293601
0.00327763
-0.000293121
0.00330256
-0.000292694
0.00332739
-0.000293211
-0.000293707
0.000987708
0.000151918
0.0009764
0.000138911
0.000965965
0.000127952
0.000956348
0.000116975
0.000947722
0.000105687
0.000940167
9.45023e-05
0.000933708
8.35749e-05
0.000928366
7.28958e-05
0.000924151
6.245e-05
0.000921064
5.22236e-05
0.000919097
4.2188e-05
0.000918241
3.22981e-05
0.00091849
2.24853e-05
0.000919862
1.26309e-05
0.000922521
2.47141e-06
0.00092597
-6.84902e-06
0.000930527
-1.59103e-05
0.000936133
-2.49032e-05
0.000942773
-3.38223e-05
0.000950426
-4.26766e-05
0.000959075
-5.14762e-05
0.000968707
-6.02369e-05
0.00097931
-6.89754e-05
0.000990875
-7.77053e-05
0.00100339
-8.64355e-05
0.00101685
-9.51726e-05
0.00103124
-0.000103923
0.00104655
-0.000112692
0.00106277
-0.000121484
0.00107989
-0.000130302
0.00109789
-0.000139148
0.00111677
-0.00014802
0.00113652
-0.000156917
0.00115712
-0.000165826
0.00117856
-0.000174755
0.00120082
-0.000183698
0.00122389
-0.000192647
0.00124776
-0.000201596
0.00127239
-0.000210536
0.00129778
-0.000219455
0.0013239
-0.000228343
0.00135073
-0.000237187
0.00137825
-0.000245974
0.00140644
-0.000254689
0.00143527
-0.000263318
0.00146472
-0.000271844
0.00149476
-0.000280249
0.00152536
-0.000288515
0.0015565
-0.000296626
0.00158814
-0.000304567
0.00162026
-0.000312319
0.00165282
-0.000319865
0.00168579
-0.000327188
0.00171913
-0.000334271
0.00175282
-0.000341099
0.00178682
-0.000347655
0.0018211
-0.000353924
0.00185562
-0.000359893
0.00189035
-0.000365551
0.00192525
-0.000370886
0.0019603
-0.000375887
0.00199545
-0.000380547
0.00203068
-0.000384858
0.00206595
-0.000388814
0.00210123
-0.000392412
0.00213649
-0.000395648
0.0021717
-0.000398521
0.00220683
-0.000401033
0.00224185
-0.000403184
0.00227675
-0.000404979
0.00231148
-0.000406422
0.00234603
-0.00040752
0.00238038
-0.000408279
0.0024145
-0.00040871
0.00244838
-0.000408821
0.002482
-0.000408624
0.00251534
-0.00040813
0.00254838
-0.000407353
0.00258112
-0.000406305
0.00261353
-0.000405
0.00264562
-0.000403454
0.00267737
-0.000401682
0.00270877
-0.000399698
0.00273982
-0.000397518
0.00277052
-0.000395159
0.00280085
-0.000392636
0.00283082
-0.000389965
0.00286043
-0.000387162
0.00288967
-0.000384244
0.00291855
-0.000381225
0.00294707
-0.000378121
0.00297524
-0.000374948
0.00300305
-0.000371721
0.00303052
-0.000368454
0.00305765
-0.000365161
0.00308444
-0.000361858
0.00311092
-0.000358558
0.00313708
-0.000355274
0.00316293
-0.000352021
0.00318849
-0.000348812
0.00321376
-0.000345659
0.00323876
-0.000342576
0.00326351
-0.000339577
0.003288
-0.000336675
0.00331227
-0.000333884
0.00333632
-0.000331218
0.00336016
-0.000328692
0.00338382
-0.000326324
0.00340731
-0.000324127
0.00343065
-0.000322125
0.00345385
-0.000320338
0.00347692
-0.000318779
0.0034999
-0.000317517
0.00352277
-0.000316466
0.00354557
-0.000315928
0.0035683
-0.000315417
0.0035909
-0.00031582
-0.000316347
0.00146793
0.00145022
0.000156621
0.00143416
0.000144017
0.00141953
0.000131601
0.00140638
0.000118834
0.00139471
0.000106174
0.00138449
9.37951e-05
0.0013757
8.16825e-05
0.00136833
6.98244e-05
0.00136234