/*--------------------------------*- C++ -*----------------------------------*\
  =========                 |
  \\      /  F ield         | OpenFOAM: The Open Source CFD Toolbox
   \\    /   O peration     | Website:  https://openfoam.org
    \\  /    A nd           | Version:  7
     \\/     M anipulation  |
\*---------------------------------------------------------------------------*/
FoamFile
{
    version     2.0;
    format      ascii;
    class       volVectorField;
    location    "39.999";
    object      U;
}
// * * * * * * * * * * * * * * * * * * * * * * * * * * * * * * * * * * * * * //

dimensions      [0 1 -1 0 0 0 0];

internalField   nonuniform List<vector> 
11400
(
(-0.181638 0.00177454 7.42916e-21)
(-0.185704 0.00163204 1.23715e-21)
(-0.189482 0.00150112 -4.33859e-21)
(-0.192969 0.00137834 -4.05241e-21)
(-0.196183 0.00126438 4.51477e-21)
(-0.199147 0.00115827 6.63859e-22)
(-0.201877 0.00105892 -4.5152e-21)
(-0.20439 0.000965389 4.84777e-21)
(-0.206696 0.00087679 -2.37228e-21)
(-0.208809 0.000792319 5.0848e-21)
(-0.210735 0.000711256 -4.69597e-21)
(-0.212483 0.000632968 1.02637e-21)
(-0.214058 0.000556937 -3.99882e-22)
(-0.215463 0.00048278 2.53563e-21)
(-0.216702 0.000410295 -8.07703e-23)
(-0.217777 0.000339471 -3.17278e-21)
(-0.218691 0.000270445 3.06107e-21)
(-0.219446 0.000203365 3.43681e-22)
(-0.220043 0.000138406 -2.49153e-21)
(-0.220483 7.61076e-05 -5.45649e-22)
(-0.220771 1.68511e-05 -1.90922e-22)
(-0.220914 -4.18946e-05 -5.59402e-22)
(-0.220914 -0.000102366 9.64376e-22)
(-0.22077 -0.000162364 -5.98083e-22)
(-0.220478 -0.000221428 3.59218e-22)
(-0.220037 -0.000279583 8.03916e-22)
(-0.219446 -0.000336939 5.49881e-22)
(-0.218701 -0.000393621 -1.7164e-21)
(-0.217803 -0.000449753 -7.80119e-22)
(-0.216747 -0.000505459 1.07982e-21)
(-0.215533 -0.000560861 -1.41903e-21)
(-0.214156 -0.000616078 2.33631e-22)
(-0.212616 -0.000671227 9.0438e-22)
(-0.21091 -0.000726422 7.82218e-23)
(-0.209034 -0.000781751 1.74853e-21)
(-0.206987 -0.000837293 -2.29456e-21)
(-0.204767 -0.000893276 1.08701e-21)
(-0.202371 -0.000949839 2.24984e-22)
(-0.199796 -0.00100711 -1.63611e-21)
(-0.197041 -0.00106523 1.34046e-21)
(-0.194103 -0.00112429 -1.16996e-21)
(-0.19098 -0.00118442 9.34458e-22)
(-0.187672 -0.0012457 1.26892e-21)
(-0.184176 -0.00130821 -1.47786e-22)
(-0.180491 -0.00137201 -7.84958e-22)
(-0.176617 -0.00143716 -1.57914e-22)
(-0.172553 -0.00150366 -1.70727e-21)
(-0.168299 -0.00157152 7.85549e-22)
(-0.163856 -0.00164064 1.28784e-21)
(-0.159224 -0.00171092 8.89761e-22)
(-0.154405 -0.00178242 -2.76646e-21)
(-0.1494 -0.00185507 1.36197e-21)
(-0.144211 -0.00192877 -3.305e-22)
(-0.138841 -0.00200338 1.22449e-21)
(-0.133292 -0.00207875 -1.81135e-21)
(-0.127568 -0.00215469 1.68362e-21)
(-0.121672 -0.00223104 -1.24749e-21)
(-0.115607 -0.00230767 -2.17903e-22)
(-0.109378 -0.0023838 6.8674e-22)
(-0.10299 -0.00245959 6.00037e-22)
(-0.0964496 -0.00253478 -1.80237e-21)
(-0.0897604 -0.00260907 7.36168e-22)
(-0.0829285 -0.00268217 4.81936e-22)
(-0.0759599 -0.00275382 -2.61286e-24)
(-0.0688603 -0.00282374 -2.66362e-22)
(-0.0616365 -0.0028914 -1.06116e-23)
(-0.0542953 -0.00295676 -7.16619e-23)
(-0.0468433 -0.00301949 3.06601e-26)
(-0.0392873 -0.00307936 3.07264e-22)
(-0.031634 -0.00313615 -1.04051e-22)
(-0.0238906 -0.0031894 -8.95071e-23)
(-0.0160643 -0.00323907 -2.62991e-22)
(-0.0081617 -0.00328514 2.41158e-22)
(-0.000189853 -0.00332707 -7.22112e-23)
(0.00784409 -0.00336493 -1.20691e-22)
(0.0159335 -0.00339859 2.32501e-22)
(0.0240716 -0.00342795 -1.26897e-22)
(0.0322519 -0.00345295 -9.1134e-23)
(0.040468 -0.00347354 3.30743e-23)
(0.0487137 -0.00348973 -2.69021e-22)
(0.056983 -0.00350153 1.96448e-22)
(0.06527 -0.00350899 -2.40354e-22)
(0.0735693 -0.00351218 7.07562e-23)
(0.0818756 -0.00351122 4.6795e-24)
(0.0901836 -0.00350622 2.16797e-23)
(0.0984888 -0.00349732 -5.81738e-23)
(0.106786 -0.00348471 1.44852e-22)
(0.115072 -0.00346856 -9.71726e-23)
(0.123343 -0.00344909 8.13131e-24)
(0.131594 -0.00342651 2.57545e-23)
(0.139822 -0.00340105 -7.21562e-24)
(0.148025 -0.00337297 -7.19008e-23)
(0.156199 -0.00334252 5.82075e-23)
(0.164342 -0.00330997 -5.62582e-23)
(0.172451 -0.00327558 1.43938e-23)
(0.180526 -0.00323964 5.91636e-23)
(0.188563 -0.00320242 -4.23836e-23)
(0.196562 -0.00316419 -3.02887e-23)
(0.204522 -0.00312525 3.66244e-23)
(0.212442 -0.00308587 -4.70169e-23)
(0.220321 -0.00304632 3.31082e-23)
(0.228159 -0.00300689 -6.51421e-24)
(0.235956 -0.00296783 -3.43573e-24)
(0.243713 -0.00292941 -2.19151e-23)
(0.25143 -0.00289193 4.52338e-25)
(0.259108 -0.00285564 -3.47575e-25)
(0.266749 -0.00282081 -9.26259e-25)
(0.274353 -0.00278772 4.3316e-24)
(0.281924 -0.00275668 1.14437e-25)
(0.289463 -0.00272795 2.4358e-24)
(0.296975 -0.00270196 -3.32386e-24)
(0.30446 -0.00267891 5.8555e-25)
(0.311931 -0.00265973 -7.1381e-26)
(0.319367 -0.00264394 -1.93201e-26)
(0.326858 -0.00263455 -1.80024e-25)
(0.334154 -0.00262847 3.99449e-25)
(0.342085 -0.002633 6.71028e-25)
(0.348098 -0.00264889 3.13583e-25)
(0.360434 -0.00265349 -2.96568e-25)
(-0.174286 0.00524314 -5.27269e-21)
(-0.178182 0.00482725 1.2473e-20)
(-0.181811 0.00444571 -4.94998e-21)
(-0.185164 0.00408744 -5.10747e-21)
(-0.188251 0.00375554 6.17522e-21)
(-0.191093 0.00344742 6.38698e-22)
(-0.193706 0.00315993 -1.09466e-20)
(-0.196105 0.00289022 1.01005e-20)
(-0.198302 0.00263559 -1.62125e-21)
(-0.200307 0.00239354 -1.16226e-20)
(-0.202128 0.0021618 6.35051e-21)
(-0.203771 0.00193836 -1.76678e-21)
(-0.205243 0.00172149 8.90489e-21)
(-0.206547 0.00150987 -9.97523e-21)
(-0.207685 0.00130265 1.04357e-20)
(-0.208659 0.00109957 -8.56451e-22)
(-0.209472 0.000900791 -6.33295e-22)
(-0.210126 0.000706559 6.55076e-21)
(-0.210623 0.000517254 -3.05862e-21)
(-0.210963 0.000334185 -3.64066e-21)
(-0.211152 0.000156412 -2.29778e-21)
(-0.211196 -2.60437e-05 4.55481e-21)
(-0.211098 -0.000209583 -1.55636e-21)
(-0.210853 -0.000392961 -4.73503e-21)
(-0.210461 -0.000576068 1.55903e-22)
(-0.20992 -0.00075905 -3.81352e-21)
(-0.209228 -0.000942166 6.43984e-21)
(-0.208383 -0.00112571 -8.39929e-21)
(-0.207384 -0.00130999 7.02602e-21)
(-0.206227 -0.00149528 9.29735e-22)
(-0.204912 -0.00168182 1.35784e-21)
(-0.203436 -0.00186982 5.10243e-21)
(-0.201796 -0.00205944 -6.80258e-21)
(-0.19999 -0.00225081 -1.58583e-21)
(-0.198015 -0.00244391 -3.01922e-21)
(-0.19587 -0.00263866 9.38653e-21)
(-0.193551 -0.0028355 -7.56485e-21)
(-0.191058 -0.0030345 3.10323e-21)
(-0.188388 -0.0032357 4.8415e-21)
(-0.185538 -0.00343911 3.36671e-21)
(-0.182506 -0.0036447 -1.20094e-20)
(-0.179292 -0.00385238 1.14458e-20)
(-0.175893 -0.00406206 -1.39807e-20)
(-0.172308 -0.00427359 4.70051e-21)
(-0.168537 -0.0044868 1.98421e-21)
(-0.164579 -0.00470146 1.57473e-21)
(-0.160432 -0.00491732 -2.60512e-21)
(-0.156099 -0.0051341 1.82455e-21)
(-0.151578 -0.00535121 -1.17743e-21)
(-0.146871 -0.00556798 1.26489e-21)
(-0.14198 -0.00578454 -1.31977e-21)
(-0.136906 -0.00600051 -2.34706e-21)
(-0.131652 -0.00621544 2.36544e-22)
(-0.126219 -0.00642889 1.88406e-21)
(-0.120611 -0.0066404 8.58554e-23)
(-0.114832 -0.00684943 4.45698e-23)
(-0.108884 -0.00705557 -2.45946e-21)
(-0.102771 -0.00725883 3.18244e-21)
(-0.0964975 -0.00745661 -4.71243e-22)
(-0.0900703 -0.00764998 -1.1737e-21)
(-0.0834937 -0.00783837 7.67725e-22)
(-0.0767729 -0.00802119 5.81015e-22)
(-0.0699138 -0.00819794 8.03611e-22)
(-0.0629223 -0.00836828 -9.49887e-22)
(-0.0558042 -0.008532 -1.31434e-21)
(-0.0485662 -0.00868747 9.71657e-22)
(-0.0412154 -0.00883515 4.33402e-22)
(-0.0337583 -0.00897471 7.73217e-22)
(-0.0262018 -0.00910592 -7.87989e-22)
(-0.0185524 -0.00922856 -9.2896e-23)
(-0.0108172 -0.00934171 5.12272e-22)
(-0.00300388 -0.00944569 -1.11477e-21)
(0.00488148 -0.00954028 -1.99984e-22)
(0.0128319 -0.00962541 2.19857e-21)
(0.02084 -0.009701 -1.88781e-22)
(0.0288994 -0.00976703 -2.20151e-21)
(0.0370035 -0.00982351 4.93107e-22)
(0.0451458 -0.00987054 -6.37903e-22)
(0.0533201 -0.00990822 1.07834e-21)
(0.0615202 -0.00993674 2.4705e-23)
(0.0697402 -0.00995628 -2.92908e-22)
(0.0779746 -0.0099671 2.54627e-22)
(0.0862179 -0.00996947 -2.17077e-22)
(0.0944649 -0.0099637 3.02231e-23)
(0.102711 -0.00995015 1.51379e-22)
(0.110951 -0.00992918 9.01706e-23)
(0.119181 -0.00990118 -5.45426e-22)
(0.127397 -0.00986658 1.42253e-22)
(0.135594 -0.00982581 3.13563e-22)
(0.14377 -0.00977933 -2.86769e-22)
(0.151922 -0.0097276 3.04254e-22)
(0.160046 -0.0096711 -4.022e-22)
(0.168139 -0.00961033 1.67119e-22)
(0.1762 -0.00954576 5.93759e-23)
(0.184226 -0.00947791 -1.07157e-22)
(0.192216 -0.00940726 1.33826e-22)
(0.200168 -0.00933432 -4.07444e-23)
(0.20808 -0.00925958 -1.37985e-22)
(0.215953 -0.00918355 -4.91794e-23)
(0.223784 -0.00910671 6.23248e-23)
(0.231575 -0.00902956 -1.91564e-23)
(0.239324 -0.00895258 -1.9385e-23)
(0.247032 -0.00887628 3.15293e-23)
(0.254699 -0.00880114 -1.03567e-23)
(0.262326 -0.00872767 6.15643e-24)
(0.269915 -0.00865636 -1.32341e-23)
(0.277466 -0.00858777 1.04199e-23)
(0.284981 -0.00852241 -2.33115e-23)
(0.292462 -0.00846097 3.68323e-24)
(0.299912 -0.00840398 -9.97137e-24)
(0.307335 -0.0083525 5.73274e-24)
(0.314731 -0.00830677 -1.12073e-24)
(0.322115 -0.00826942 -4.26888e-25)
(0.329462 -0.00823865 -1.68496e-25)
(0.336868 -0.00822301 7.27234e-26)
(0.344066 -0.00821341 8.37792e-26)
(0.351925 -0.00822908 -9.92726e-25)
(0.357828 -0.00827592 -1.34064e-24)
(0.370032 -0.00827884 1.67099e-24)
(-0.159573 0.00850102 1.02114e-20)
(-0.16314 0.00783257 9.84261e-21)
(-0.166479 0.00721683 -2.39308e-20)
(-0.169571 0.00663324 1.51116e-20)
(-0.172411 0.00609067 -3.97774e-21)
(-0.175019 0.00558612 -1.02967e-21)
(-0.177407 0.00511489 1.92221e-20)
(-0.179589 0.00467252 -2.37402e-20)
(-0.181574 0.00425468 -1.00911e-22)
(-0.183371 0.00385737 2.21956e-20)
(-0.184989 0.00347687 -3.5661e-20)
(-0.186433 0.00310985 3.64135e-20)
(-0.187708 0.00275339 -6.60208e-21)
(-0.188816 0.00240521 -1.10647e-20)
(-0.18976 0.00206386 -5.19616e-21)
(-0.190541 0.00172888 6.18651e-21)
(-0.191161 0.00140072 -3.90857e-22)
(-0.191622 0.00108003 -1.45756e-20)
(-0.191924 0.000767759 1.88367e-20)
(-0.192069 0.000466314 1.24622e-20)
(-0.192069 0.00016558 -1.93491e-20)
(-0.191929 -0.000141123 1.13149e-20)
(-0.191641 -0.00044853 -2.65561e-22)
(-0.191204 -0.000755878 -1.69473e-20)
(-0.19062 -0.0010633 2.31766e-21)
(-0.189886 -0.00137118 -4.93789e-21)
(-0.189 -0.00168002 -6.08093e-21)
(-0.187962 -0.0019903 2.51464e-21)
(-0.186769 -0.00230251 1.72924e-20)
(-0.18542 -0.00261708 -7.50613e-21)
(-0.183912 -0.00293436 4.16369e-22)
(-0.182244 -0.00325465 4.4259e-21)
(-0.180412 -0.00357817 -1.77635e-21)
(-0.178415 -0.00390509 -4.09711e-24)
(-0.176251 -0.00423522 -3.98634e-21)
(-0.173917 -0.00456807 2.66676e-21)
(-0.171412 -0.00490455 -4.26369e-21)
(-0.168734 -0.00524464 8.39234e-21)
(-0.16588 -0.00558828 -2.75628e-23)
(-0.16285 -0.00593533 3.22367e-21)
(-0.159641 -0.0062856 4.25976e-22)
(-0.156252 -0.00663882 -4.72373e-21)
(-0.152682 -0.0069947 -2.672e-21)
(-0.148929 -0.00735287 8.06738e-21)
(-0.144994 -0.00771293 -1.13261e-20)
(-0.140876 -0.0080744 5.30626e-21)
(-0.136575 -0.00843673 -6.36804e-21)
(-0.132092 -0.00879944 1.19655e-20)
(-0.127425 -0.00916144 -1.1406e-21)
(-0.122579 -0.0095212 -1.1558e-21)
(-0.117554 -0.00987924 -8.13231e-21)
(-0.112352 -0.0102348 -1.57192e-21)
(-0.106977 -0.0105871 3.81921e-21)
(-0.101429 -0.0109354 -1.53755e-21)
(-0.0957134 -0.0112789 1.55126e-21)
(-0.0898328 -0.0116166 3.27634e-21)
(-0.0837919 -0.0119479 -2.34493e-22)
(-0.0775924 -0.0122745 2.09727e-22)
(-0.0712402 -0.0125889 -2.85198e-21)
(-0.0647424 -0.0128951 1.38654e-21)
(-0.0581031 -0.0131919 1.74999e-21)
(-0.0513277 -0.0134784 -1.84643e-21)
(-0.0444224 -0.0137539 1.22962e-21)
(-0.0373934 -0.0140181 -3.6019e-21)
(-0.0302456 -0.0142713 3.20632e-21)
(-0.022986 -0.0145094 1.78919e-22)
(-0.0156225 -0.0147346 -1.02898e-21)
(-0.00816128 -0.0149462 7.40857e-23)
(-0.000609189 -0.0151438 3.65117e-21)
(0.00702775 -0.0153269 -2.28516e-21)
(0.0147423 -0.0154954 2.43462e-22)
(0.0225267 -0.0156491 2.36895e-21)
(0.0303749 -0.0157876 -4.65968e-21)
(0.0382801 -0.0159115 1.58825e-21)
(0.0462353 -0.0160204 -5.71092e-22)
(0.0542341 -0.0161144 3.48703e-22)
(0.0622702 -0.0161938 7.21835e-22)
(0.0703372 -0.0162587 -2.35472e-22)
(0.0784291 -0.0163095 -7.20539e-22)
(0.08654 -0.0163466 1.40309e-21)
(0.0946644 -0.0163701 -1.26066e-21)
(0.102797 -0.0163808 8.97975e-22)
(0.110932 -0.0163789 -9.46219e-22)
(0.119065 -0.0163651 9.18614e-22)
(0.127191 -0.01634 1.84877e-22)
(0.135307 -0.016304 -5.1815e-22)
(0.143407 -0.0162579 3.91824e-22)
(0.151489 -0.0162023 1.36794e-23)
(0.159548 -0.0161378 -1.75841e-22)
(0.167581 -0.0160652 -4.09518e-23)
(0.175586 -0.0159851 3.25911e-22)
(0.18356 -0.0158983 -6.55634e-22)
(0.1915 -0.0158054 2.50487e-22)
(0.199404 -0.0157072 5.14337e-22)
(0.207272 -0.0156045 -3.00407e-22)
(0.2151 -0.0154978 7.83741e-23)
(0.222888 -0.015388 -1.10407e-22)
(0.230634 -0.0152757 -7.57126e-23)
(0.238339 -0.0151617 1.6181e-22)
(0.246002 -0.0150467 -1.23059e-22)
(0.253622 -0.0149313 1.37088e-22)
(0.2612 -0.0148163 -2.46628e-23)
(0.268735 -0.0147024 1.34251e-22)
(0.27623 -0.0145902 -4.91332e-23)
(0.283683 -0.0144806 -1.87174e-23)
(0.291098 -0.0143742 1.81799e-23)
(0.298475 -0.0142718 4.82938e-24)
(0.305816 -0.0141742 1.40824e-23)
(0.313123 -0.0140825 1.31066e-23)
(0.320399 -0.0139974 1.42768e-23)
(0.327648 -0.0139206 -1.1784e-23)
(0.33487 -0.0138523 5.67464e-24)
(0.342081 -0.0137969 1.47856e-24)
(0.349251 -0.0137511 -1.22453e-24)
(0.356492 -0.0137286 -6.79392e-25)
(0.363496 -0.0137154 1.28773e-24)
(0.371211 -0.0137382 -2.99701e-24)
(0.376901 -0.0138126 1.27309e-24)
(0.388842 -0.0138195 -4.50233e-24)
(-0.137456 0.0114192 2.44565e-20)
(-0.140552 0.0105338 -1.79617e-20)
(-0.143476 0.00971159 7.91897e-21)
(-0.1462 0.00892006 -2.41926e-21)
(-0.148693 0.00817922 -7.23461e-22)
(-0.150971 0.00748773 -2.11021e-20)
(-0.153044 0.0068402 1.96995e-20)
(-0.15492 0.00623109 2.34148e-21)
(-0.15661 0.00565486 -1.26157e-21)
(-0.158119 0.00510621 -1.44431e-20)
(-0.159454 0.00458022 1.93399e-20)
(-0.160619 0.00407234 2.94241e-22)
(-0.161619 0.00357856 1.73277e-20)
(-0.162455 0.00309564 -2.63596e-20)
(-0.163128 0.00262146 5.04268e-21)
(-0.163639 0.00215532 1.86228e-20)
(-0.16399 0.0016977 -3.17597e-20)
(-0.16418 0.0012497 2.75987e-20)
(-0.164212 0.000814902 3.94559e-21)
(-0.164092 0.000398647 1.02551e-21)
(-0.163834 -3.38037e-05 1.3739e-21)
(-0.16343 -0.00046612 -8.51639e-21)
(-0.162876 -0.000897244 -2.58297e-20)
(-0.162173 -0.00132811 -3.98085e-21)
(-0.16132 -0.00175936 3.83441e-20)
(-0.160317 -0.00219166 -1.79692e-20)
(-0.159163 -0.00262569 -4.50707e-21)
(-0.157856 -0.00306212 -3.69823e-21)
(-0.156394 -0.00350157 5.9276e-21)
(-0.154776 -0.00394459 -4.94312e-21)
(-0.153001 -0.00439167 -8.54636e-21)
(-0.151065 -0.00484317 1.90253e-20)
(-0.148967 -0.00529939 -1.73513e-20)
(-0.146706 -0.00576056 7.37525e-21)
(-0.144277 -0.00622628 -4.93706e-21)
(-0.141682 -0.00669517 1.69199e-20)
(-0.138918 -0.00716912 -1.29787e-20)
(-0.135983 -0.00764793 9.89822e-21)
(-0.132877 -0.00813139 8.68576e-21)
(-0.129597 -0.00861922 -1.6718e-20)
(-0.126143 -0.00911104 -6.22001e-21)
(-0.122513 -0.0096064 7.15438e-21)
(-0.118707 -0.0101048 1.61797e-21)
(-0.114724 -0.0106056 -3.56564e-22)
(-0.110564 -0.0111082 9.22226e-21)
(-0.106228 -0.0116119 -1.14679e-20)
(-0.101715 -0.0121159 -3.2699e-21)
(-0.0970269 -0.0126198 1.10859e-20)
(-0.092163 -0.013122 4.36286e-21)
(-0.0871268 -0.013619 -8.72818e-21)
(-0.0819211 -0.0141127 1.12547e-20)
(-0.0765475 -0.0146019 -1.8715e-20)
(-0.0710088 -0.0150854 1.24501e-20)
(-0.0653081 -0.015562 -7.17224e-21)
(-0.0594486 -0.0160307 3.66283e-21)
(-0.0534347 -0.0164899 3.49201e-21)
(-0.0472731 -0.016939 -4.62371e-21)
(-0.0409614 -0.0173847 3.11684e-21)
(-0.0345063 -0.0178077 2.2773e-21)
(-0.0279191 -0.018219 -8.75752e-22)
(-0.0212015 -0.0186169 -3.90382e-22)
(-0.0143592 -0.0189998 -4.09214e-21)
(-0.00739899 -0.0193669 3.95427e-21)
(-0.000327848 -0.0197173 6.1483e-22)
(0.00685151 -0.0200498 -3.25489e-21)
(0.0141317 -0.0203639 3.62378e-21)
(0.0215026 -0.0206594 1.3458e-21)
(0.0289596 -0.0209357 6.24041e-22)
(0.0364959 -0.0211922 -3.24514e-21)
(0.0441049 -0.0214284 2.80704e-21)
(0.0517799 -0.0216449 -1.06605e-21)
(0.0595138 -0.0218411 2.42498e-22)
(0.0673 -0.0220167 1.46535e-22)
(0.0751321 -0.0221722 1.06373e-21)
(0.0830035 -0.0223076 -1.46071e-22)
(0.090908 -0.022423 -1.41368e-21)
(0.0988393 -0.0225188 -2.35225e-23)
(0.106792 -0.0225954 3.46935e-23)
(0.114759 -0.0226533 -1.96953e-22)
(0.122736 -0.0226929 3.10271e-22)
(0.130718 -0.0227149 5.14043e-22)
(0.138699 -0.0227199 -8.67514e-22)
(0.146674 -0.0227087 -6.96044e-22)
(0.15464 -0.022682 1.63859e-21)
(0.162591 -0.0226405 -1.33966e-22)
(0.170524 -0.0225851 -3.13106e-22)
(0.178436 -0.0225166 1.62005e-22)
(0.186321 -0.022436 5.61633e-22)
(0.194179 -0.0223441 -9.44607e-22)
(0.202005 -0.0222419 4.70814e-22)
(0.209798 -0.0221302 -5.09447e-23)
(0.217554 -0.0220101 9.08649e-23)
(0.225273 -0.0218824 -2.66484e-22)
(0.232951 -0.0217481 2.82653e-22)
(0.240588 -0.0216081 -3.76322e-22)
(0.248183 -0.0214634 4.05263e-22)
(0.255735 -0.0213149 -2.96485e-22)
(0.263243 -0.0211634 5.44971e-22)
(0.270706 -0.02101 -3.45291e-22)
(0.278125 -0.0208555 1.60885e-22)
(0.2855 -0.0207009 -1.07588e-22)
(0.29283 -0.0205469 -7.1379e-23)
(0.300117 -0.0203946 5.4057e-23)
(0.307362 -0.0202449 -2.64737e-23)
(0.314566 -0.0200986 1.07849e-23)
(0.321729 -0.0199568 -6.62359e-23)
(0.328854 -0.0198204 2.35708e-23)
(0.335943 -0.0196906 -4.61929e-24)
(0.342999 -0.0195686 2.97301e-23)
(0.350023 -0.0194554 -2.18005e-24)
(0.357021 -0.0193534 -3.33463e-24)
(0.363989 -0.0192626 -1.77606e-24)
(0.370951 -0.0191891 -1.21446e-26)
(0.377863 -0.0191282 -8.46771e-25)
(0.384864 -0.0190973 -2.80065e-25)
(0.391587 -0.0190806 1.30036e-24)
(0.39909 -0.0191048 3.45506e-25)
(0.404478 -0.0192012 -5.75611e-25)
(0.416033 -0.0192191 3.12739e-24)
(-0.10781 0.0138848 -2.31087e-20)
(-0.11032 0.012836 3.58936e-20)
(-0.112731 0.0118464 -3.14946e-21)
(-0.115009 0.0108721 -1.76945e-20)
(-0.117083 0.00995097 -5.34087e-21)
(-0.118963 0.00908601 -7.37454e-21)
(-0.120657 0.00827264 -8.37503e-21)
(-0.12217 0.0075051 3.13736e-20)
(-0.123507 0.00677707 -1.24733e-21)
(-0.124672 0.00608241 -1.22319e-20)
(-0.12567 0.00541527 1.43519e-20)
(-0.126504 0.00477016 -5.78327e-21)
(-0.127176 0.00414206 -3.21775e-20)
(-0.127688 0.00352675 2.30303e-20)
(-0.128039 0.00292136 -3.2144e-20)
(-0.128229 0.00232493 1.35624e-20)
(-0.128259 0.00173941 4.27672e-20)
(-0.128128 0.00117175 -1.7939e-20)
(-0.12783 0.000627098 1.93579e-21)
(-0.127398 6.83901e-05 3.62141e-22)
(-0.126835 -0.000496001 -1.29669e-20)
(-0.126115 -0.00105327 9.60082e-21)
(-0.125243 -0.00160813 -4.20455e-21)
(-0.12422 -0.00216246 -8.66531e-21)
(-0.123048 -0.00271732 -5.21361e-21)
(-0.121725 -0.00327368 7.32083e-21)
(-0.120249 -0.00383242 1.64917e-20)
(-0.118621 -0.00439434 -1.49009e-20)
(-0.116838 -0.0049602 6.82979e-21)
(-0.1149 -0.00553064 -6.8453e-21)
(-0.112804 -0.00610624 -5.45183e-21)
(-0.11055 -0.00668744 5.63714e-21)
(-0.108135 -0.00727452 1.23185e-20)
(-0.105558 -0.00786803 -1.99734e-20)
(-0.102815 -0.00846789 1.64168e-20)
(-0.0999076 -0.0090698 -2.34056e-20)
(-0.0968357 -0.00967823 1.50108e-20)
(-0.0935969 -0.0102925 3.73969e-21)
(-0.0901903 -0.0109123 1.63604e-21)
(-0.0866148 -0.011537 -2.97453e-21)
(-0.0828699 -0.0121661 -6.64881e-21)
(-0.0789551 -0.0127989 1.21299e-20)
(-0.0748704 -0.0134348 -1.17155e-20)
(-0.0706159 -0.0140728 2.93892e-21)
(-0.066192 -0.0147121 -8.77447e-21)
(-0.0615996 -0.0153516 -5.79663e-21)
(-0.0568404 -0.0159903 1.7144e-20)
(-0.0519154 -0.0166294 -1.08878e-20)
(-0.0468225 -0.017267 3.44475e-21)
(-0.0415666 -0.0178932 -9.28248e-21)
(-0.0361533 -0.0185145 3.01974e-21)
(-0.0305832 -0.0191292 1.21053e-20)
(-0.0248594 -0.0197358 4.11881e-21)
(-0.0189856 -0.0203326 -5.69459e-21)
(-0.0129652 -0.0209183 -3.94454e-21)
(-0.00680304 -0.0214916 1.38965e-21)
(-0.00051205 -0.022052 8.14153e-21)
(0.00591971 -0.0225953 -1.1515e-20)
(0.0124866 -0.0231208 1.19039e-20)
(0.0191661 -0.0236295 -3.05404e-21)
(0.0259618 -0.0241194 2.63066e-21)
(0.0328682 -0.0245893 -3.34295e-21)
(0.0398783 -0.0250383 -4.80112e-21)
(0.0469855 -0.025465 5.81847e-21)
(0.0541848 -0.025867 -7.3423e-21)
(0.0614697 -0.0262472 5.56514e-21)
(0.068832 -0.0266033 -2.32447e-21)
(0.0762657 -0.0269344 6.30723e-22)
(0.0837642 -0.0272404 -1.06881e-21)
(0.091321 -0.0275207 -2.61936e-21)
(0.0989296 -0.0277756 -2.11342e-22)
(0.106583 -0.0280049 5.82072e-22)
(0.114276 -0.0282086 1.34103e-21)
(0.122 -0.0283869 -3.79464e-22)
(0.129751 -0.02854 -1.13661e-23)
(0.137523 -0.0286683 -2.20532e-21)
(0.145309 -0.0287724 4.51908e-21)
(0.153104 -0.0288527 -1.82923e-21)
(0.160902 -0.02891 2.18233e-23)
(0.168699 -0.0289449 -2.12811e-21)
(0.176489 -0.0289582 1.00861e-22)
(0.184269 -0.0289509 1.44022e-21)
(0.192033 -0.0289237 -1.61249e-21)
(0.199778 -0.0288778 1.70363e-21)
(0.207499 -0.0288141 -3.59451e-23)
(0.215194 -0.0287337 1.29559e-21)
(0.222859 -0.0286377 -1.99305e-21)
(0.230491 -0.0285271 6.85295e-22)
(0.238088 -0.0284032 -2.96269e-23)
(0.245647 -0.028267 4.03599e-22)
(0.253166 -0.0281198 -2.93467e-22)
(0.260643 -0.0279626 -5.50755e-22)
(0.268076 -0.0277966 5.30344e-22)
(0.275465 -0.0276231 -1.98204e-22)
(0.282809 -0.027443 1.31716e-23)
(0.290106 -0.0272576 8.04451e-23)
(0.297356 -0.027068 -1.96115e-22)
(0.304559 -0.0268753 2.59262e-22)
(0.311714 -0.0266807 -9.26748e-25)
(0.318823 -0.0264851 -9.20083e-23)
(0.325885 -0.0262898 1.34998e-22)
(0.332901 -0.0260957 -8.81789e-23)
(0.339872 -0.0259041 4.9856e-23)
(0.346799 -0.025716 -1.53541e-22)
(0.353684 -0.0255325 1.45677e-22)
(0.360529 -0.0253548 1.34128e-23)
(0.367334 -0.0251842 3.66098e-23)
(0.374103 -0.0250219 -3.56578e-23)
(0.380839 -0.0248696 9.79381e-24)
(0.387542 -0.0247283 -1.6519e-23)
(0.39422 -0.0246012 5.14754e-24)
(0.400866 -0.0244878 2.21547e-24)
(0.407512 -0.024396 -1.04394e-23)
(0.414093 -0.0243197 -6.26493e-25)
(0.42079 -0.0242788 1.72201e-25)
(0.427155 -0.0242582 -1.20079e-24)
(0.434383 -0.0242781 2.87754e-25)
(0.439401 -0.0243894 4.32635e-25)
(0.450455 -0.0244242 -3.59871e-24)
(-0.0703596 0.0158182 1.56411e-20)
(-0.0721943 0.0146848 -3.73008e-20)
(-0.0740431 0.0135671 3.49749e-20)
(-0.0758396 0.0124425 -5.3588e-20)
(-0.0774649 0.011365 2.58779e-20)
(-0.0789226 0.0103438 1.72006e-21)
(-0.0802145 0.0093778 2.92429e-20)
(-0.0813413 0.00846215 -3.70431e-20)
(-0.0823049 0.00759039 2.49562e-22)
(-0.083107 0.00675607 1.16461e-21)
(-0.0837492 0.00595289 2.61322e-20)
(-0.084233 0.00517474 -3.19399e-20)
(-0.0845593 0.00441581 5.29193e-20)
(-0.0847278 0.00367103 -8.07197e-20)
(-0.0847372 0.0029368 8.22441e-20)
(-0.084585 0.00221202 -8.69495e-21)
(-0.0842666 0.00150102 -1.88758e-20)
(-0.0837813 0.00081541 -3.65616e-20)
(-0.0831606 0.000138989 6.17681e-21)
(-0.082411 -0.000562826 5.51276e-20)
(-0.0815032 -0.00125043 -4.73608e-20)
(-0.0804407 -0.00193083 3.50597e-20)
(-0.0792275 -0.002609 -4.59917e-20)
(-0.0778634 -0.00328652 3.89901e-20)
(-0.076348 -0.0039647 -1.91656e-20)
(-0.0746808 -0.00464471 1.23683e-20)
(-0.0728611 -0.00532757 -4.97672e-20)
(-0.0708878 -0.00601419 3.01176e-21)
(-0.0687601 -0.00670539 1.14836e-20)
(-0.066477 -0.00740185 2.34579e-20)
(-0.0640373 -0.00810412 -7.03147e-21)
(-0.06144 -0.0088126 -5.24886e-21)
(-0.0586847 -0.00952772 4.82225e-20)
(-0.0557704 -0.0102521 -2.65502e-20)
(-0.0526906 -0.0109874 1.85457e-20)
(-0.0494482 -0.0117182 -4.87271e-20)
(-0.0460467 -0.0124569 1.19241e-20)
(-0.0424824 -0.0132025 1.81735e-20)
(-0.038755 -0.0139539 -1.30957e-20)
(-0.0348643 -0.0147107 1.76132e-20)
(-0.0308104 -0.0154719 -2.58499e-20)
(-0.0265934 -0.0162366 1.39368e-20)
(-0.022214 -0.0170041 1.66204e-20)
(-0.0176728 -0.0177731 -2.2255e-20)
(-0.0129711 -0.0185427 2.21521e-20)
(-0.00811019 -0.0193115 -9.35766e-21)
(-0.00309456 -0.0200788 -4.64486e-21)
(0.00207346 -0.0208426 4.97346e-23)
(0.00740284 -0.0215989 -5.11607e-21)
(0.0128857 -0.0223477 6.48559e-21)
(0.0185098 -0.023089 5.55702e-21)
(0.0242776 -0.0238206 7.61134e-22)
(0.0301856 -0.0245408 -6.13123e-21)
(0.0362294 -0.0252478 -1.32066e-21)
(0.042405 -0.0259403 -6.22322e-21)
(0.0487073 -0.0266171 6.36667e-21)
(0.0551284 -0.0272772 8.55584e-21)
(0.0616685 -0.0279074 -1.33838e-20)
(0.0683238 -0.0285248 3.41972e-21)
(0.0750816 -0.0291194 5.12888e-22)
(0.0819389 -0.0296897 -6.17693e-22)
(0.0888896 -0.0302348 9.58326e-21)
(0.0959275 -0.0307536 -9.20683e-21)
(0.103046 -0.0312451 1.33613e-21)
(0.110239 -0.0317077 -6.56621e-21)
(0.117501 -0.0321419 8.308e-21)
(0.124824 -0.0325466 -6.57486e-22)
(0.132203 -0.0329212 -8.52268e-22)
(0.139629 -0.0332652 5.33433e-21)
(0.147098 -0.0335786 -1.15702e-20)
(0.154602 -0.0338611 1.29644e-20)
(0.162137 -0.034113 -3.1026e-21)
(0.169694 -0.0343342 -4.43599e-21)
(0.177269 -0.0345251 3.22912e-21)
(0.184856 -0.0346862 -6.45521e-21)
(0.192449 -0.0348179 7.05796e-21)
(0.200043 -0.0349209 -1.98445e-21)
(0.207633 -0.034996 8.67215e-22)
(0.215213 -0.035044 -2.59797e-21)
(0.22278 -0.0350659 7.22268e-22)
(0.230329 -0.0350625 -2.57792e-22)
(0.237855 -0.0350352 -1.87271e-22)
(0.245355 -0.0349849 2.12011e-21)
(0.252826 -0.0349129 -4.14225e-22)
(0.260264 -0.0348205 -1.05893e-21)
(0.267666 -0.0347089 2.00917e-22)
(0.27503 -0.0345795 -2.85396e-22)
(0.282353 -0.0344335 1.48931e-21)
(0.289632 -0.0342724 -1.36618e-21)
(0.296867 -0.0340975 8.88573e-23)
(0.304055 -0.0339103 1.18164e-21)
(0.311196 -0.0337119 -1.84902e-23)
(0.318288 -0.033504 -4.9282e-22)
(0.325329 -0.0332877 7.18849e-23)
(0.332321 -0.0330644 -1.09253e-21)
(0.339262 -0.0328356 8.0757e-22)
(0.346153 -0.0326024 2.55426e-22)
(0.352993 -0.0323662 -6.51823e-22)
(0.359782 -0.0321283 4.50407e-22)
(0.366522 -0.03189 -3.38096e-22)
(0.373214 -0.0316525 7.87203e-24)
(0.379857 -0.0314172 7.27667e-23)
(0.386454 -0.0311852 -1.09135e-22)
(0.393006 -0.0309579 -9.75286e-23)
(0.399515 -0.0307366 -1.47928e-23)
(0.405982 -0.0305226 1.69796e-22)
(0.41241 -0.0303174 -1.91885e-22)
(0.418801 -0.0301225 1.11655e-22)
(0.425158 -0.0299398 -7.89542e-23)
(0.431483 -0.0297704 1.08966e-23)
(0.437784 -0.0296181 -5.50051e-24)
(0.444049 -0.0294822 -5.03033e-24)
(0.450321 -0.0293715 -7.57891e-24)
(0.456512 -0.0292797 6.63825e-24)
(0.462849 -0.0292265 1.32677e-24)
(0.468795 -0.0292017 2.73594e-25)
(0.475689 -0.0292126 3.2217e-24)
(0.48029 -0.0293305 -9.02526e-25)
(0.490744 -0.0293853 3.71477e-24)
(-0.0244951 0.0173423 3.3779e-20)
(-0.0256891 0.0161127 -6.2598e-20)
(-0.0270079 0.0148636 4.21976e-20)
(-0.0283497 0.0136259 1.85803e-20)
(-0.0295589 0.0124212 -2.18628e-20)
(-0.0306254 0.0112633 5.43585e-21)
(-0.031546 0.0101593 2.49004e-20)
(-0.0323173 0.00910689 -2.40951e-20)
(-0.0329373 0.00810003 -3.86531e-20)
(-0.0334043 0.00713256 5.43388e-20)
(-0.0337174 0.00619832 -4.69736e-20)
(-0.0338763 0.00529104 3.42481e-20)
(-0.03388 0.0044044 1.38618e-20)
(-0.0337271 0.00353241 8.99863e-21)
(-0.033415 0.0026699 -3.51999e-20)
(-0.0329391 0.00181414 -5.53369e-21)
(-0.0322909 0.000975351 -2.25892e-20)
(-0.0314831 0.000173206 2.86795e-20)
(-0.0305489 -0.000659196 -1.34685e-20)
(-0.0294752 -0.00148192 -7.84932e-21)
(-0.0282408 -0.00229147 1.85063e-20)
(-0.0268516 -0.00309588 -3.21429e-22)
(-0.0253092 -0.00389773 3.89239e-20)
(-0.0236139 -0.00469867 -5.19243e-20)
(-0.0217655 -0.0055003 3.33129e-20)
(-0.0197638 -0.00630394 -2.14395e-20)
(-0.0176083 -0.00711073 -1.47769e-20)
(-0.0152983 -0.00792168 4.52097e-20)
(-0.0128334 -0.00873766 -2.99355e-20)
(-0.0102129 -0.00955944 4.11846e-20)
(-0.00743616 -0.0103876 -1.43116e-20)
(-0.00450273 -0.0112228 -5.32496e-20)
(-0.00141477 -0.0120657 2.12581e-20)
(0.00182513 -0.0129165 2.35311e-21)
(0.00523463 -0.0137706 -1.6877e-20)
(0.00880844 -0.0146296 1.61108e-20)
(0.0125316 -0.0154969 5.10324e-22)
(0.0164127 -0.0163704 5.54427e-21)
(0.0204518 -0.0172494 4.7012e-21)
(0.024648 -0.0181331 3.37569e-21)
(0.0290007 -0.0190208 2.59961e-20)
(0.0335088 -0.0199112 -6.16528e-20)
(0.0381709 -0.0208035 1.57807e-20)
(0.0429856 -0.0216962 3.61881e-21)
(0.0479508 -0.0225882 2.11714e-20)
(0.0530645 -0.0234782 -1.5502e-20)
(0.0583231 -0.0243649 1.43561e-20)
(0.0637235 -0.0252433 1.72295e-21)
(0.069267 -0.0261092 -1.23043e-20)
(0.0749495 -0.0269711 -6.81084e-21)
(0.0807633 -0.0278219 6.34092e-21)
(0.0867061 -0.0286594 5.39529e-21)
(0.0927737 -0.0294819 -8.24553e-21)
(0.0989615 -0.0302875 -3.46775e-21)
(0.105265 -0.0310744 1.58938e-20)
(0.111678 -0.0318411 -6.67517e-21)
(0.118195 -0.0325859 8.98062e-21)
(0.124812 -0.0333027 -9.41237e-21)
(0.131524 -0.0339963 5.85558e-22)
(0.138324 -0.0346626 -2.29607e-21)
(0.145205 -0.0353001 3.22707e-21)
(0.152161 -0.0359074 -2.09841e-21)
(0.159186 -0.0364835 -2.82562e-21)
(0.166274 -0.037027 9.65213e-21)
(0.173419 -0.0375369 -1.14825e-20)
(0.180614 -0.0380127 -2.00315e-21)
(0.187852 -0.0384538 8.356e-21)
(0.195128 -0.0388596 -5.6685e-21)
(0.202435 -0.0392298 5.98051e-22)
(0.209767 -0.0395642 8.12703e-21)
(0.217118 -0.0398628 -3.05238e-21)
(0.224483 -0.0401259 -9.13135e-22)
(0.231854 -0.0403536 4.41914e-21)
(0.239228 -0.0405464 1.20692e-21)
(0.246598 -0.040705 -6.42401e-21)
(0.25396 -0.04083 3.41518e-21)
(0.261309 -0.0409223 -5.83185e-21)
(0.26864 -0.0409827 6.94762e-21)
(0.275948 -0.0410125 -5.99786e-21)
(0.283231 -0.0410126 6.86658e-21)
(0.290483 -0.0409845 -5.44778e-21)
(0.297702 -0.0409292 2.11764e-21)
(0.304884 -0.0408484 3.26631e-22)
(0.312027 -0.0407433 3.85099e-22)
(0.319127 -0.0406155 -2.72018e-23)
(0.326182 -0.0404665 -1.59744e-21)
(0.33319 -0.0402978 2.26095e-21)
(0.340149 -0.040111 -1.02573e-21)
(0.347059 -0.0399076 1.07887e-21)
(0.353916 -0.0396893 -9.94456e-22)
(0.360721 -0.0394577 2.39408e-22)
(0.367472 -0.0392143 1.16578e-21)
(0.37417 -0.0389607 -1.37201e-21)
(0.380812 -0.0386984 1.12741e-21)
(0.387401 -0.038429 -7.65586e-22)
(0.393935 -0.038154 4.45982e-22)
(0.400414 -0.0378748 -3.62519e-22)
(0.406841 -0.0375931 -1.86134e-22)
(0.413214 -0.0373102 3.11552e-22)
(0.419536 -0.0370276 1.21805e-22)
(0.425807 -0.0367467 4.02433e-22)
(0.432029 -0.0364689 -8.99801e-23)
(0.438204 -0.0361958 1.32254e-22)
(0.444332 -0.0359286 -1.13815e-22)
(0.450416 -0.035669 1.27717e-22)
(0.456458 -0.0354184 -6.0837e-23)
(0.462461 -0.0351786 -3.82975e-23)
(0.468426 -0.0349509 1.52171e-23)
(0.474359 -0.0347379 -1.61613e-23)
(0.480257 -0.0345404 2.16023e-23)
(0.486134 -0.0343629 4.85008e-24)
(0.491971 -0.0342045 -1.47466e-23)
(0.497824 -0.0340744 -9.81125e-24)