/*--------------------------------*- C++ -*----------------------------------*\
  =========                 |
  \\      /  F ield         | OpenFOAM: The Open Source CFD Toolbox
   \\    /   O peration     | Website:  https://openfoam.org
    \\  /    A nd           | Version:  7
     \\/     M anipulation  |
\*---------------------------------------------------------------------------*/
FoamFile
{
    version     2.0;
    format      ascii;
    class       volVectorField;
    location    "15";
    object      U;
}
// * * * * * * * * * * * * * * * * * * * * * * * * * * * * * * * * * * * * * //

dimensions      [0 1 -1 0 0 0 0];

internalField   nonuniform List<vector> 
3500
(
(-0.0684899 0.0113764 7.732e-20)
(-0.101829 0.0113442 1.34796e-20)
(-0.132661 0.0109054 2.63086e-20)
(-0.160988 0.0104139 -1.52527e-20)
(-0.186751 0.00989959 -2.84529e-20)
(-0.209332 0.0090141 2.77117e-20)
(-0.231718 0.00953098 2.7409e-20)
(-0.247373 0.00754545 2.18893e-20)
(-0.00950625 0.0169959 -9.81217e-20)
(-0.0336892 0.0298081 6.48555e-20)
(-0.0667857 0.0333031 -8.82727e-20)
(-0.0970448 0.0331983 4.74212e-21)
(-0.12393 0.0318321 -6.30722e-20)
(-0.147327 0.0302557 7.83023e-21)
(-0.167394 0.0287565 4.0858e-20)
(-0.181215 0.0254432 -1.80722e-19)
(-0.196774 0.0276852 4.46601e-20)
(-0.198211 0.0201328 -7.70682e-23)
(-0.011514 0.0265627 1.82507e-19)
(-0.0348757 0.0470757 -1.62643e-20)
(-0.0637544 0.0528167 1.22597e-19)
(-0.0882244 0.0526065 -1.14365e-20)
(-0.107722 0.0501968 -1.34413e-19)
(-0.121731 0.0472348 9.94869e-20)
(-0.132072 0.0449569 -4.29086e-20)
(-0.128543 0.0378697 4.36439e-20)
(-0.134126 0.0432938 -1.33062e-19)
(-0.109181 0.0267219 1.90716e-19)
(-0.0142413 0.0338393 2.12758e-20)
(-0.0367371 0.0607787 -2.89786e-19)
(-0.0600003 0.0685213 -1.72335e-19)
(-0.0765409 0.0681094 9.07456e-20)
(-0.0860181 0.0645372 1.08311e-19)
(-0.086602 0.0598862 -1.80215e-19)
(-0.0850747 0.0566044 7.73309e-20)
(-0.0557854 0.0457391 5.18619e-20)
(-0.0510921 0.0532819 2.08725e-19)
(0.0123168 0.0307291 -2.74073e-19)
(-0.0174529 0.0385263 -9.17152e-20)
(-0.0392903 0.0701175 1.42506e-19)
(-0.0560985 0.0793276 4.17051e-19)
(-0.0630418 0.0784904 -2.08252e-19)
(-0.0604501 0.073574 1.9349e-19)
(-0.0440281 0.0676103 3.267e-19)
(-0.0278598 0.0608578 -9.55164e-21)
(0.0347224 0.0499621 9.27252e-21)
(0.0486636 0.0550826 -3.05299e-19)
(0.17354 0.0375421 1.48878e-19)
(-0.0209694 0.0407451 -2.16524e-19)
(-0.0424272 0.0747884 1.28093e-19)
(-0.0522519 0.0845683 -5.81107e-19)
(-0.0480378 0.0829308 2.83091e-19)
(-0.0306732 0.0763207 3.98491e-20)
(0.00607638 0.0699389 -3.677e-19)
(0.0429828 0.05703 -1.0865e-19)
(0.15167 0.053204 1.08932e-19)
(0.168459 0.0461719 2.07532e-19)
(0.389898 0.0431579 -1.1638e-19)
(-0.0247047 0.040939 -2.34218e-20)
(-0.0457804 0.0749534 -4.02121e-19)
(-0.0478102 0.0840898 3.9776e-19)
(-0.0302288 0.0810667 -2.86116e-19)
(0.00652134 0.0726921 7.09984e-20)
(0.0701424 0.066918 2.38794e-19)
(0.139319 0.0480016 -4.36705e-19)
(0.301518 0.0562889 -1.83867e-19)
(0.334177 0.0365199 1.57976e-19)
(0.652413 0.0492596 9.45466e-20)
(-0.0286467 0.0397021 2.36098e-19)
(-0.0485746 0.0711611 6.9344e-19)
(-0.0407876 0.0782753 -6.69314e-19)
(-0.00540157 0.0733774 1.63977e-19)
(0.0589154 0.0639636 4.10657e-19)
(0.159915 0.0595941 -2.092e-19)
(0.281843 0.0433029 -6.71912e-20)
(0.484047 0.0570676 -2.50848e-19)
(0.574132 0.0427852 2.96745e-19)
(0.912039 0.0662146 -2.13825e-19)
(-0.0327057 0.037541 -4.32622e-19)
(-0.0494283 0.0641656 1.19366e-19)
(-0.0273781 0.0680793 2.50254e-19)
(0.0341474 0.0615486 -1.24337e-19)
(0.139279 0.0535122 -4.21367e-19)
(0.291172 0.0520598 5.00074e-19)
(0.477584 0.0523131 3.18473e-19)
(0.694393 0.0626574 2.90147e-19)
(0.856229 0.0697313 -2.36241e-19)
(1.11423 0.0896928 1.80873e-19)
(-0.036512 0.0347237 -1.06023e-19)
(-0.0460982 0.0547168 -3.48306e-19)
(-0.00178232 0.0549841 -2.06877e-19)
(0.0992831 0.0487518 2.44107e-19)
(0.261117 0.0472775 4.69165e-20)
(0.472653 0.0547567 -2.94937e-19)
(0.703512 0.0734124 3.4528e-19)
(0.915316 0.0840984 -4.87332e-19)
(1.0875 0.107632 -2.76933e-19)
(1.22414 0.10617 9.85468e-20)
(-0.0393588 0.0313206 2.60806e-19)
(-0.035333 0.0434171 3.66199e-19)
(0.0435663 0.0410582 1.53121e-19)
(0.201483 0.0400425 2.13359e-19)
(0.429527 0.0521322 -1.23772e-19)
(0.686761 0.0752497 -3.18725e-19)
(0.919313 0.102908 1.28113e-19)
(1.09801 0.11734 1.58683e-19)
(1.2117 0.136774 5.30404e-19)
(1.25388 0.107253 -3.15258e-19)
(-0.0402219 0.0271952 3.85173e-19)
(-0.0129738 0.0307473 -4.77248e-20)
(0.117093 0.0295024 3.5114e-19)
(0.34669 0.0421164 -1.56539e-19)
(0.629828 0.0727943 4.81595e-19)
(0.892334 0.108402 1.92555e-19)
(1.08592 0.135624 2.39798e-19)
(1.20397 0.147086 -3.93182e-19)
(1.25276 0.147487 -1.63275e-19)
(1.27487 0.130483 1.58334e-19)
(-0.0376984 0.0220865 2.48079e-20)
(0.025952 0.0175311 -3.3967e-19)
(0.225834 0.0254985 -3.25167e-19)
(0.526312 0.0600708 -8.26439e-20)
(0.82754 0.10653 -1.30501e-19)
(1.05288 0.144068 1.45132e-19)
(1.18658 0.163792 -6.0081e-19)
(1.24765 0.164793 4.05883e-19)
(1.26844 0.161218 -3.34533e-21)
(1.2709 0.140234 -4.90388e-19)
(-0.030018 0.0158254 -5.45539e-19)
(0.0869702 0.00595611 -1.10157e-19)
(0.370156 0.0351953 -1.17434e-20)
(0.714578 0.0926589 3.47071e-20)
(0.990239 0.144637 1.84545e-19)
(1.15743 0.175318 -5.82733e-19)
(1.23638 0.184143 5.77012e-19)
(1.26418 0.180242 -1.27324e-19)
(1.2655 0.169234 7.70021e-20)
(1.25874 0.150498 1.26701e-19)
(-0.0150276 0.00858338 1.48934e-20)
(0.17467 0.000905352 4.47315e-19)
(0.537238 0.0613391 1.15044e-19)
(0.882742 0.133029 -6.19019e-20)
(1.10652 0.180595 -5.26547e-20)
(1.21725 0.200644 3.40572e-19)
(1.25776 0.201301 -1.32851e-22)
(1.26352 0.191868 2.57502e-19)
(1.25648 0.178068 -8.18192e-20)
(1.24899 0.161114 -3.48296e-21)
(0.0101819 0.00118814 8.87179e-20)
(0.28932 0.00922353 -1.60567e-19)
(0.704029 0.100557 1.2888e-19)
(1.01582 0.175024 1.71329e-19)
(1.18194 0.212691 -1.12573e-19)
(1.24737 0.222324 -1.65029e-20)
(1.26148 0.215772 -3.38306e-19)
(1.25604 0.203175 -2.27762e-19)
(1.24562 0.186628 2.82766e-19)
(1.23468 0.170517 -1.84441e-19)
(0.0485077 -0.00400132 1.14045e-19)
(0.423401 0.0354069 2.0305e-19)
(0.851297 0.147114 1.43812e-19)
(1.11252 0.215968 -2.20349e-19)
(1.22624 0.241606 2.64764e-19)
(1.25795 0.241456 -1.44301e-19)
(1.25624 0.229598 -3.72242e-20)
(1.24473 0.213857 -1.42204e-20)
(1.23224 0.195519 -8.07463e-20)
(1.22176 0.180545 2.49067e-20)
(0.101138 -0.00331343 2.84386e-19)
(0.562848 0.0780269 -1.60223e-19)
(0.970874 0.196982 1.00706e-19)
(1.17742 0.255016 1.19847e-19)
(1.24792 0.268016 -8.76195e-20)
(1.25655 0.259427 1.35715e-19)
(1.24542 0.242962 5.12272e-20)
(1.23109 0.22465 7.02268e-20)
(1.21852 0.204858 4.68836e-20)
(1.20686 0.189683 7.57409e-20)
(0.166647 0.00680677 -1.04065e-19)
(0.693306 0.132234 -1.54889e-19)
(1.06182 0.247974 -1.23339e-19)
(1.2164 0.291882 -1.19301e-19)
(1.25361 0.292676 -5.43212e-20)
(1.24722 0.276719 6.10346e-20)
(1.2312 0.256337 -3.09107e-20)
(1.21585 0.235408 7.5573e-22)
(1.20302 0.214149 -3.00263e-20)
(1.19176 0.198435 6.4184e-21)
(0.240931 0.0282755 2.7796e-20)
(0.805044 0.193288 -6.03886e-21)
(1.12599 0.298744 2.79569e-20)
(1.23495 0.326689 2.21995e-20)
(1.24783 0.316028 1.72163e-20)
(1.23249 0.293674 -4.75791e-20)
(1.21424 0.269546 2.31369e-20)
(1.19876 0.245997 -2.33881e-20)
(1.18664 0.223239 -7.76381e-21)
(1.17566 0.206194 -1.27739e-20)
(0.318247 0.0609049 1.38007e-21)
(0.893901 0.257638 -9.44786e-22)
(1.1661 0.34828 -6.31124e-21)
(1.23742 0.359566 7.49733e-20)
(1.23358 0.338318 -2.11084e-20)
(1.2135 0.310165 -2.1614e-20)
(1.19479 0.282412 3.07088e-21)
(1.18001 0.256126 -3.11033e-21)
(1.1686 0.231578 -1.03963e-20)
(1.15858 0.212991 -2.41748e-20)
(0.39245 0.103 -1.19141e-19)
(0.959137 0.322774 2.32806e-20)
(1.18524 0.395711 -2.00093e-19)
(1.22707 0.390415 -7.26912e-20)
(1.21267 0.359458 -2.30594e-20)
(1.19086 0.325929 -3.53575e-21)
(1.17292 0.294539 -1.84389e-20)
(1.15939 0.26546 -1.30486e-20)
(1.14927 0.23906 8.89638e-21)
(1.13994 0.218651 1.68326e-20)
(0.457994 0.152227 2.05324e-19)
(1.00129 0.386653 -1.08041e-19)
(1.18623 0.440111 1.53246e-19)
(1.20619 0.418941 6.55883e-20)
(1.1862 0.379138 -2.63773e-20)
(1.16485 0.340493 9.39156e-20)
(1.14868 0.305482 -2.23003e-20)
(1.13707 0.273672 3.35855e-20)
(1.12834 0.245621 4.39416e-21)
(1.11971 0.223156 2.52292e-20)
(0.510666 0.205995 -1.26036e-19)
(1.02173 0.447499 4.90128e-19)
(1.17157 0.480617 -9.34711e-20)
(1.17648 0.444668 -5.82162e-20)
(1.15491 0.396808 1.33936e-19)
(1.13577 0.353304 -5.92105e-20)
(1.12224 0.314756 -2.53269e-20)
(1.11301 0.280422 -1.64428e-20)
(1.10575 0.251139 -3.0595e-20)
(1.0986 0.22641 -8.21618e-22)
(0.547868 0.261526 -2.30385e-19)
(1.02218 0.503659 -2.67582e-19)
(1.14328 0.516277 1.7216e-19)
(1.13932 0.466909 4.77815e-20)
(1.11949 0.411785 -7.61801e-20)
(1.10398 0.363805 -4.10959e-20)
(1.09376 0.321975 2.12853e-20)
(1.08712 0.285508 -1.81368e-20)
(1.08156 0.255003 2.48329e-20)
(1.07687 0.228251 -9.5586e-21)
(0.568555 0.315929 8.41243e-20)
(1.00457 0.553566 3.58469e-19)
(1.10315 0.546026 -6.61625e-20)
(1.09613 0.484811 7.20333e-21)
(1.08056 0.423325 -9.84191e-21)
(1.06965 0.371414 4.41085e-20)
(1.06331 0.326833 3.25753e-20)
(1.05956 0.288548 1.77608e-20)
(1.05634 0.256949 -1.12783e-20)
(1.05456 0.228594 -1.78595e-21)
(0.573002 0.36643 -6.20899e-19)
(0.970653 0.595576 5.54885e-20)
(1.05328 0.568858 -1.42856e-19)
(1.04795 0.497317 5.99378e-20)
(1.03846 0.430789 -1.35865e-20)
(1.03304 0.375588 -1.28496e-20)
(1.0312 0.328853 -7.56189e-21)
(1.03084 0.289234 1.02615e-20)
(1.03063 0.256691 -1.24963e-20)
(1.03239 0.227398 -4.02924e-20)
(0.562296 0.410742 3.10287e-19)
(0.922011 0.627557 -3.21469e-19)
(0.995999 0.583917 -2.68461e-20)
(0.995754 0.503637 -5.50254e-20)
(0.993807 0.433382 2.5636e-20)
(0.994688 0.375793 2.55306e-20)
(0.997849 0.327607 2.77208e-20)
(1.00152 0.287155 2.24648e-21)
(1.0053 0.254047 -1.62316e-21)
(1.01121 0.224743 6.29525e-20)
(0.537542 0.447127 1.92803e-19)
(0.861235 0.647971 -3.93076e-20)
(0.933275 0.589912 1.06218e-20)
(0.940631 0.503349 4.38772e-20)
(0.947339 0.430577 -2.88258e-21)
(0.955087 0.37153 -5.70943e-20)
(0.96374 0.32257 -3.83931e-20)
(0.972216 0.281728 6.23944e-21)
(0.981061 0.248489 5.8098e-20)
(0.991406 0.220988 -4.40211e-20)
(0.500008 0.472936 4.76403e-20)
(0.792296 0.656384 -7.1279e-21)
(0.866938 0.585952 -6.84715e-20)
(0.883727 0.495862 1.41985e-20)
(0.899856 0.421938 1.0384e-19)
(0.914883 0.362456 -3.40298e-20)
(0.929429 0.313404 1.24952e-19)
(0.943325 0.272379 -1.70501e-19)
(0.9578 0.23874 -1.21026e-19)
(0.971793 0.214923 -2.13938e-20)
(0.45217 0.485109 -4.78651e-20)
(0.717764 0.65133 3.31896e-20)
(0.798564 0.571902 1.0168e-20)
(0.826246 0.480739 -3.93409e-20)
(0.852241 0.407188 -1.68983e-19)
(0.874812 0.348387 1.67903e-19)
(0.895569 0.300135 6.23895e-20)
(0.915079 0.259534 8.12641e-20)
(0.93484 0.224364 2.19971e-19)
(0.949681 0.197898 -5.19678e-20)
(0.398114 0.483216 9.70304e-20)
(0.640626 0.632348 -1.58576e-20)
(0.730033 0.547576 -5.43894e-20)
(0.769452 0.457718 8.95486e-20)
(0.805466 0.386134 1.64661e-19)
(0.835719 0.329181 -3.79996e-19)
(0.862877 0.282743 -6.10753e-20)
(0.887705 0.244183 -1.50482e-19)
(0.910593 0.21163 3.12857e-20)
(0.924989 0.186564 -1.08227e-19)
(0.341024 0.466901 -2.05486e-19)
(0.563562 0.599122 -1.07126e-19)
(0.66315 0.513044 3.37212e-19)
(0.714641 0.426807 -1.94542e-19)
(0.760535 0.358788 -2.73814e-19)
(0.798404 0.30479 2.54799e-19)
(0.831915 0.260735 -2.38373e-19)
(0.861902 0.223905 1.15162e-19)
(0.888152 0.192711 -1.39118e-19)
(0.904709 0.168929 2.18818e-19)
(0.28404 0.436597 -9.68878e-20)
(0.489367 0.552028 5.0856e-19)
(0.599725 0.468579 -5.3613e-19)
(0.663108 0.388227 2.10438e-20)
(0.718464 0.3254 1.74664e-19)
(0.763569 0.275731 -1.34567e-20)
(0.802841 0.235461 3.64147e-19)
(0.837024 0.202025 -3.14601e-19)
(0.866049 0.17369 2.25244e-19)
(0.885759 0.151446 -1.50591e-19)
(0.229986 0.393339 -1.60158e-19)
(0.420561 0.491805 8.83834e-20)
(0.541486 0.414699 2.37544e-19)
(0.616125 0.342383 2.70984e-19)
(0.680296 0.286188 -6.2333e-20)
(0.732176 0.241808 2.51138e-19)
(0.776807 0.205838 2.33602e-20)
(0.81484 0.17602 2.54511e-20)
(0.846584 0.150948 -9.46668e-20)
(0.869387 0.131379 -5.61754e-21)
(0.181271 0.338709 4.85759e-19)
(0.3594 0.419659 -3.36398e-19)
(0.490098 0.352198 -4.47079e-19)
(0.574855 0.28999 2.5738e-20)
(0.646838 0.241905 -1.29773e-19)
(0.704636 0.204044 1.06944e-19)
(0.753836 0.17344 -3.85624e-19)
(0.795154 0.148072 1.11744e-19)
(0.829517 0.126644 3.13681e-19)
(0.855455 0.109742 -1.51198e-19)
(0.139773 0.274396 6.92331e-20)
(0.307911 0.337354 4.22512e-19)
(0.447147 0.282151 3.02485e-19)
(0.54045 0.231842 -2.81745e-19)
(0.619045 0.193045 1.72425e-19)
(0.681827 0.162535 -7.80857e-20)
(0.734812 0.137923 -4.99098e-20)
(0.778826 0.117577 -2.37685e-20)
(0.815448 0.10039 -9.79282e-20)
(0.844193 0.086707 1.78122e-19)
(0.107044 0.202044 -3.31107e-19)
(0.267753 0.246937 -3.8367e-19)
(0.413844 0.206021 -5.6758e-21)
(0.513791 0.169063 2.70129e-19)
(0.597532 0.140603 -5.00766e-20)
(0.664175 0.118248 -5.20148e-20)
(0.720064 0.100229 7.51533e-20)
(0.766156 0.0853328 -4.07824e-20)
(0.804602 0.0727198 -3.123e-20)
(0.835679 0.062596 3.26936e-20)
(0.0844265 0.123693 4.82119e-20)
(0.240237 0.150584 -6.32222e-20)
(0.391123 0.125426 2.71903e-19)
(0.495615 0.102839 -6.63572e-20)
(0.582878 0.0854545 1.2322e-19)
(0.652157 0.0718099 -3.30734e-20)
(0.710014 0.0608229 -5.07164e-20)
(0.757511 0.0517446 7.99645e-20)
(0.797231 0.0440383 1.13824e-20)
(0.829988 0.0378066 -2.77143e-20)
(0.486404 0.0345155 -6.27187e-20)
(0.575454 0.0286691 2.85457e-20)
(0.646069 0.0240815 -1.50123e-20)
(0.704918 0.020389 1.76585e-20)
(0.753124 0.0173384 -2.26774e-20)
(0.793497 0.0147447 -1.36413e-20)
(0.827138 0.0126385 6.5718e-24)
(-0.260599 0.00945794 -6.4234e-20)
(-0.271422 0.00927934 4.65086e-20)
(-0.281736 0.00907622 9.01327e-22)
(-0.291869 0.0088761 -7.95403e-21)
(-0.301779 0.00865437 -1.63873e-20)
(-0.311438 0.00840013 -1.9221e-20)
(-0.320803 0.00810409 -3.34318e-20)
(-0.329825 0.00775811 5.92928e-20)
(-0.338448 0.00735686 -3.41038e-20)
(-0.346605 0.00689851 7.05858e-20)
(-0.354222 0.0063806 -4.4555e-20)
(-0.36122 0.00579838 -6.51437e-21)
(-0.367514 0.00514803 -1.61266e-20)
(-0.373016 0.00442801 4.18715e-20)
(-0.377636 0.00363886 -2.76738e-20)
(-0.381275 0.00278374 2.83683e-20)
(-0.383834 0.00186557 -1.97334e-20)
(-0.385231 0.000886242 -1.66058e-20)
(-0.385438 -0.000136745 1.07022e-20)
(-0.384419 -0.00122573 -7.01556e-21)
(-0.382126 -0.00236509 2.60756e-20)
(-0.378501 -0.00354307 -1.1894e-20)
(-0.373497 -0.00474983 -1.71391e-20)
(-0.367082 -0.00597623 1.06243e-20)
(-0.35923 -0.0072132 -1.37591e-20)
(-0.349931 -0.00845149 1.62443e-20)
(-0.339183 -0.00968157 4.25808e-21)
(-0.326995 -0.0108935 -1.20403e-20)
(-0.313389 -0.012077 2.08022e-20)
(-0.204099 0.0259051 6.24213e-21)
(-0.212828 0.0256124 5.51733e-20)
(-0.220744 0.0250141 -8.78426e-20)
(-0.228448 0.0244616 1.35344e-19)
(-0.235996 0.0238593 -1.12511e-19)
(-0.243341 0.0231601 -4.26961e-21)
(-0.250438 0.0223369 1.50156e-19)
(-0.257233 0.0213648 -4.86968e-20)
(-0.263664 0.0202238 1.89955e-20)
(-0.269668 0.0189011 -6.05389e-20)
(-0.275183 0.0173897 -7.20727e-20)
(-0.28014 0.015689 3.872e-20)
(-0.284459 0.0137973 -5.12051e-20)
(-0.288056 0.0117062 1.02431e-19)
(-0.290841 0.00941188 -3.23909e-20)
(-0.292723 0.00692261 3.39288e-20)
(-0.293614 0.00426246 -1.74919e-20)
(-0.293419 0.00145146 -3.99101e-20)
(-0.292164 -0.00156268 4.48964e-20)
(-0.289799 -0.00474079 -1.46349e-20)
(-0.286239 -0.00805091 -6.38869e-20)
(-0.281443 -0.011468 5.98282e-20)
(-0.275377 -0.0149674 -3.75379e-20)
(-0.268014 -0.0185243 -7.59985e-21)
(-0.259336 -0.0221131 1.52175e-20)
(-0.249334 -0.0257073 4.04484e-20)
(-0.238011 -0.0292798 -1.04287e-20)
(-0.225375 -0.0328033 6.84752e-20)
(-0.211448 -0.0362499 -2.86359e-21)
(-0.104587 0.0356643 -1.70877e-19)
(-0.109594 0.035803 6.89007e-20)
(-0.113504 0.0350746 -1.85334e-19)
(-0.117103 0.0343268 3.39374e-19)
(-0.120719 0.0334879 -2.30697e-19)
(-0.124253 0.0324967 2.84098e-19)
(-0.127625 0.0313157 -2.84939e-19)
(-0.13078 0.0299032 1.29943e-19)
(-0.133659 0.0282184 -2.92753e-20)
(-0.136195 0.0262307 1.61789e-19)
(-0.138312 0.0239235 -7.48233e-20)
(-0.139944 0.021291 -9.65111e-20)
(-0.141053 0.0183331 -1.88133e-19)
(-0.141582 0.0150579 1.94528e-19)
(-0.141448 0.011469 -2.53876e-21)
(-0.140538 0.0075759 -1.76731e-19)
(-0.138748 0.00341166 4.10031e-20)
(-0.136172 -0.00105871 1.54845e-19)
(-0.132722 -0.00582455 -4.41747e-20)
(-0.128249 -0.0108153 8.07286e-21)
(-0.122757 -0.0160087 9.01586e-20)
(-0.116218 -0.0213713 -8.76096e-20)
(-0.108604 -0.0268665 1.36913e-19)
(-0.0998935 -0.0324557 -2.34357e-20)
(-0.0900754 -0.0380981 -1.7535e-19)
(-0.079146 -0.0437517 1.71382e-19)
(-0.0671116 -0.0493729 -6.32227e-20)
(-0.0539887 -0.0549174 5.51982e-20)
(-0.0397995 -0.0603398 -1.63568e-19)
(0.0251611 0.0360706 8.77598e-21)
(0.023323 0.0368367 -2.05513e-19)
(0.0232139 0.0369317 1.8376e-19)
(0.02373 0.036579 1.345e-19)
(0.0241792 0.0358673 -9.01464e-20)
(0.0246309 0.0348454 -1.81804e-19)
(0.0251859 0.0335307 6.56574e-21)
(0.0258919 0.0319026 1.34208e-19)
(0.0267982 0.0299188 -1.11759e-19)
(0.0279659 0.0275425 1.89519e-19)
(0.0294538 0.0247483 -2.44047e-19)
(0.0313195 0.0215146 2.34573e-19)
(0.0336251 0.0178305 -5.32139e-20)
(0.0364125 0.0137014 3.69791e-20)
(0.0397124 0.00914309 6.66737e-20)
(0.0436228 0.00419218 -5.71257e-20)
(0.0481098 -0.00117153 -2.36943e-19)
(0.0531826 -0.00694989 9.81101e-20)
(0.0590158 -0.0130401 1.85373e-19)
(0.0656354 -0.0194298 -5.76038e-20)
(0.0730503 -0.0260902 -8.22418e-20)
(0.0812861 -0.0329792 -2.84991e-20)
(0.090363 -0.0400503 -9.68196e-21)
(0.100295 -0.047253 -7.46248e-20)
(0.111089 -0.0545334 2.02117e-19)
(0.122744 -0.0618351 -4.43085e-21)
(0.135251 -0.0690998 -6.33825e-20)
(0.148594 -0.0762677 3.01959e-20)
(0.162745 -0.083279 -5.37516e-20)
(0.177672 -0.0900805 -9.04387e-20)
(0.186399 0.0345055 7.84858e-20)
(0.187654 0.0332219 1.21742e-20)
(0.188048 0.0327449 -3.99842e-19)
(0.189403 0.0324635 1.73198e-19)
(0.19138 0.0319088 -1.49626e-19)
(0.193781 0.030971 3.47827e-20)
(0.196565 0.0296869 -6.59138e-20)
(0.199686 0.0280354 1.48805e-19)
(0.203122 0.0259469 -5.00388e-21)
(0.206895 0.0233763 4.82318e-19)
(0.211035 0.0203092 -7.779e-20)
(0.215559 0.0167383 -2.08576e-19)
(0.220488 0.0126537 -3.28843e-20)
(0.225844 0.00803994 -9.56793e-21)
(0.231687 0.00290786 -8.34997e-20)
(0.237996 -0.00274125 -7.72368e-20)
(0.244701 -0.00890817 4.91627e-21)
(0.251911 -0.015506 9.8482e-20)
(0.259689 -0.0224932 1.32378e-19)
(0.268041 -0.02985 -1.51261e-19)
(0.27698 -0.0375369 1.56646e-19)
(0.286519 -0.0455061 -2.08816e-19)
(0.296665 -0.0537033 6.86902e-20)
(0.307423 -0.0620684 -2.52593e-20)
(0.31879 -0.0705367 -1.72069e-19)
(0.330759 -0.0790395 1.50319e-19)
(0.343315 -0.087505 3.87948e-20)
(0.356433 -0.0958581 -9.40256e-20)
(0.370084 -0.104022 1.24712e-19)
(0.384227 -0.111922 5.5828e-20)
(0.389865 0.037961 -1.70048e-20)
(0.39025 0.03441 -9.81845e-20)
(0.389497 0.0319386 9.43696e-20)
(0.388651 0.0300974 2.30333e-19)
(0.388485 0.0282419 5.99226e-20)
(0.389331 0.0262604 -2.2954e-19)
(0.391132 0.0242354 4.09285e-20)
(0.393678 0.0220573 3.04971e-19)
(0.396865 0.0195379 -8.32452e-19)
(0.400694 0.0165775 2.95211e-19)
(0.405167 0.0131478 -2.57494e-19)
(0.41025 0.00922844 4.68454e-19)
(0.415905 0.00479718 1.40815e-19)
(0.422117 -0.000151747 -3.9926e-19)
(0.428854 -0.00563129 5.72122e-19)
(0.436079 -0.0116709 -1.21594e-19)
(0.443787 -0.0182356 -3.77346e-19)
(0.451964 -0.0252888 -3.47882e-19)
(0.460604 -0.0328038 4.52462e-19)
(0.469705 -0.0407407 2.52758e-19)
(0.479258 -0.049054 -3.42369e-19)
(0.489252 -0.0576922 3.41752e-19)
(0.499674 -0.0665953 -5.17509e-19)
(0.51051 -0.075696 1.26844e-19)
(0.521739 -0.0849217 -4.84852e-20)
(0.533337 -0.0941957 2.04416e-19)
(0.545275 -0.103437 6.51624e-20)
(0.557521 -0.11256 -3.30463e-19)
(0.570037 -0.121479 -4.349e-20)
(0.582773 -0.130109 1.95453e-19)
(0.635571 0.0438777 -1.47721e-19)
(0.629747 0.0402321 1.68882e-20)
(0.625515 0.0374738 2.63242e-19)
(0.62092 0.0345386 -2.9671e-19)
(0.616641 0.0309742 1.52924e-19)
(0.613706 0.0272767 1.4346e-19)
(0.612187 0.0237924 1.27309e-19)
(0.611697 0.0203258 -3.82174e-19)
(0.612075 0.0166252 -2.29322e-19)
(0.613378 0.0126167 -4.70453e-20)
(0.615634 0.0082742 6.9912e-19)
(0.618793 0.00353968 1.43099e-20)
(0.622788 -0.00165447 -6.66873e-19)
(0.627578 -0.00730221 2.34239e-19)
(0.63307 -0.0133975 -1.94785e-20)
(0.639196 -0.0199529 1.46062e-19)
(0.645904 -0.0269821 8.26615e-20)
(0.653157 -0.0344807 -1.37568e-19)
(0.66092 -0.0424199 3.36037e-19)
(0.66915 -0.0507618 1.43715e-20)
(0.677797 -0.0594679 -6.49479e-19)
(0.686817 -0.0684915 3.15933e-19)
(0.696169 -0.0777738 1.54927e-19)
(0.705808 -0.0872469 -2.31539e-20)
(0.715684 -0.0968377 -7.07628e-20)
(0.72575 -0.106467 8.66332e-20)
(0.735952 -0.116053 1.53861e-19)
(0.746239 -0.125505 -5.77211e-19)
(0.756556 -0.134736 4.77042e-19)
(0.766848 -0.143654 -2.91088e-19)
(0.777059 -0.152167 -7.72785e-20)
(0.887618 0.0568991 1.50196e-19)
(0.877073 0.0524393 -3.7277e-19)
(0.869157 0.0494365 -7.06525e-22)
(0.860731 0.0452974 3.57133e-19)
(0.852547 0.0400171 -1.00845e-19)
(0.84604 0.0348653 -2.48659e-19)
(0.841127 0.0300875 4.29373e-20)
(0.837217 0.0252251 9.32818e-20)
(0.834176 0.0201005 -1.1621e-19)
(0.832122 0.0147916 1.84186e-19)
(0.831098 0.00931781 1.02118e-19)
(0.831028 0.00360159 8.87251e-20)
(0.831944 -0.00239447 -2.33672e-19)
(0.833853 -0.00872316 8.42048e-20)
(0.836627 -0.0154851 7.93001e-21)
(0.84014 -0.0226538 -3.0512e-19)
(0.844309 -0.0302377 4.10562e-19)
(0.849088 -0.0382457 -3.23363e-19)
(0.85443 -0.0466425 1.90989e-19)
(0.860263 -0.0553918 -2.14791e-19)
(0.866507 -0.0644656 1.39552e-19)
(0.87309 -0.0738224 -1.09962e-19)
(0.879946 -0.0834041 -1.98169e-20)
(0.887003 -0.0931436 -2.16087e-19)
(0.894188 -0.102968 4.93259e-20)
(0.901426 -0.1128 2.98207e-19)
(0.908645 -0.122553 1.1738e-19)
(0.915776 -0.132139 -2.78498e-19)
(0.922748 -0.141466 1.7596e-19)
(0.929495 -0.150443 -1.27788e-19)
(0.935956 -0.158977 1.58252e-19)
(0.942073 -0.166983 -1.3811e-19)
(1.09185 0.0761854 6.39624e-21)
(1.0818 0.071187 2.09623e-19)
(1.07325 0.0672525 1.84874e-19)
(1.06343 0.0610504 -5.25129e-19)
(1.05407 0.0540462 1.8236e-19)
(1.04651 0.0476925 2.08436e-19)
(1.04019 0.0415792 4.7678e-20)
(1.03456 0.0352135 1.44707e-19)
(1.0297 0.0286707 -3.33586e-19)
(1.02577 0.0220755 -1.90116e-19)
(1.02274 0.0153767 3.85468e-19)
(1.02054 0.00848245 -1.49673e-19)
(1.01912 0.00131843 -3.72471e-19)
(1.0184 -0.00618253 4.91585e-19)
(1.01844 -0.0140058 -2.84014e-19)
(1.01923 -0.0219695 1.22029e-19)
(1.02061 -0.0302307 2.9491e-19)
(1.02252 -0.0388123 -3.27089e-19)
(1.02495 -0.0476469 -4.01639e-19)
(1.0278 -0.0567139 2.03851e-20)
(1.03097 -0.0660081 4.41864e-19)
(1.0344 -0.0754964 3.40016e-19)
(1.03799 -0.0851263 -3.39308e-19)
(1.04168 -0.094839 -3.38111e-19)
(1.04538 -0.10457 1.94991e-19)
(1.049 -0.114249 2.16505e-19)
(1.05246 -0.123798 9.86432e-20)
(1.05569 -0.133136 -1.94276e-19)
(1.05862 -0.14218 2.12113e-19)
(1.06118 -0.150844 -4.13582e-19)
(1.06333 -0.159048 1.04152e-19)
(1.06501 -0.166712 -1.28332e-19)
(1.21288 0.0926687 -3.52417e-19)
(1.20831 0.0892773 5.12836e-19)
(1.2028 0.0846454 -6.40823e-20)
(1.19553 0.0775085 -2.75628e-19)
(1.18895 0.0704178 4.12385e-19)
(1.18367 0.0638999 -5.35845e-19)
(1.17898 0.0572868 -1.71847e-19)
(1.17461 0.050412 -1.51396e-19)
(1.17067 0.043389 4.32522e-19)
(1.1672 0.0362188 -2.71423e-19)
(1.16417 0.0288346 3.67399e-19)
(1.16156 0.0212094 1.67499e-19)
(1.15943 0.0133856 -2.29849e-19)
(1.15773 0.00537056 -4.26131e-19)
(1.15666 -0.00268825 5.01311e-19)
(1.15605 -0.0110054 1.09564e-19)
(1.15566 -0.0198003 -1.08689e-19)
(1.15555 -0.0289032 -2.14856e-19)
(1.15575 -0.0382064 4.22007e-19)
(1.15614 -0.0477111 -5.01211e-19)
(1.15663 -0.0574107 5.30865e-19)
(1.15717 -0.0672651 -1.33694e-19)
(1.15769 -0.0772225 -3.75148e-19)
(1.15814 -0.087228 -9.75071e-20)
(1.15843 -0.0972206 5.46448e-19)
(1.15849 -0.107132 3.47758e-20)
(1.15828 -0.116891 -2.57853e-19)
(1.15772 -0.126418 3.89033e-20)
(1.15676 -0.135637 -3.01667e-19)
(1.15537 -0.144467 3.89472e-22)
(1.15352 -0.152833 2.62272e-19)
(1.15117 -0.160661 4.37494e-20)
(1.14834 -0.167885 -1.9154e-19)
(1.28037 0.111974 0)
(1.2822 0.104015 0)
(1.27921 0.0966274 0)
(1.2746 0.0892854 0)
(1.27059 0.0818749 0)
(1.26753 0.0742564 0)
(1.26503 0.0665314 0)
(1.26275 0.0588345 0)
(1.26062 0.0511812 0)
(1.25864 0.0435136 0)
(1.25684 0.0357914 0)
(1.25524 0.0279964 0)
(1.2538 0.0201413 0)
(1.25246 0.0121764 0)
(1.25104 0.00413569 0)
(1.24941 -0.00413234 0)
(1.24786 -0.0125422 0)
(1.2465 -0.0210461 0)
(1.24521 -0.0296558 0)
(1.24388 -0.0383718 0)
(1.24242 -0.0471673 0)
(1.24078 -0.0560064 0)
(1.23893 -0.0648526 0)
(1.23684 -0.0736666 0)
(1.23445 -0.0824038 0)
(1.23174 -0.0910156 0)
(1.22867 -0.0994508 0)
(1.22522 -0.107656 0)
(1.22136 -0.115579 0)
(1.2171 -0.123165 2.30424e-27)
(1.21242 -0.130363 -2.30429e-27)
(1.20734 -0.137126 0)
(1.20187 -0.143409 0)
(1.27843 0.113102 0)
(1.28639 0.104237 0)
(1.28888 0.096258 0)
(1.28842 0.0887951 0)
(1.28765 0.0814239 0)
(1.28753 0.0739609 0)
(1.28794 0.0664337 0)
(1.28846 0.0589064 0)
(1.28884 0.0513768 0)
(1.289 0.0437996 0)
(1.28898 0.0361174 0)
(1.2888 0.0282902 0)
(1.28844 0.0202828 0)
(1.28791 0.0121078 0)
(1.28723 0.00377782 0)
(1.28647 -0.00458158 0)
(1.28558 -0.0129524 0)
(1.28445 -0.0213778 0)
(1.28301 -0.0298921 0)
(1.28127 -0.038495 0)
(1.27923 -0.0471582 0)
(1.27686 -0.0558439 0)
(1.27414 -0.0645135 0)
(1.27104 -0.0731268 0)
(1.26757 -0.0816406 0)
(1.26369 -0.0900084 0)
(1.25941 -0.0981812 0)
(1.25472 -0.106109 0)
(1.24963 -0.11374 0)
(1.24414 -0.121027 6.72036e-27)
(1.23828 -0.127922 -6.72036e-27)
(1.23205 -0.13438 0)
(1.22549 -0.140362 0)
(1.26762 0.108815 0)
(1.2768 0.100786 0)
(1.28089 0.0929718 0)
(1.28192 0.0855306 0)
(1.28232 0.0783209 0)
(1.28322 0.0711809 0)
(1.28463 0.0640288 0)
(1.28616 0.0568444 0)
(1.28751 0.0496225 0)
(1.28856 0.0423475 0)
(1.28933 0.0350028 0)
(1.28987 0.027575 0)
(1.29021 0.0200682 0)
(1.29035 0.0124969 0)
(1.29029 0.00487079 0)
(1.28995 -0.00282126 0)
(1.2893 -0.0106163 0)
(1.28832 -0.0185068 0)
(1.28701 -0.0264608 0)
(1.28536 -0.0344448 0)
(1.28335 -0.0424301 0)
(1.28097 -0.0503879 0)
(1.2782 -0.058285 0)
(1.27504 -0.0660855 0)
(1.27147 -0.0737523 0)
(1.2675 -0.0812467 0)
(1.26313 -0.0885294 0)
(1.25836 -0.095561 0)
(1.2532 -0.102303 0)
(1.24766 -0.108718 2.01699e-27)
(1.24178 -0.114773 -2.01699e-27)
(1.23556 -0.120434 0)
(1.22905 -0.125676 0)
(1.25478 0.103883 0)
(1.26366 0.0965076 0)
(1.26825 0.0890655 0)
(1.27001 0.081858 0)
(1.271 0.0748875 0)
(1.27229 0.068038 0)
(1.27397 0.0612061 0)
(1.27575 0.054344 0)
(1.27734 0.047442 0)
(1.27862 0.0405023 0)
(1.27963 0.0335239 0)
(1.28039 0.0265024 0)
(1.28092 0.0194331 0)
(1.28123 0.0123065 0)
(1.28128 0.00511318 0)
(1.28104 -0.00215068 0)
(1.28048 -0.00946355 0)
(1.27961 -0.0168093 0)
(1.27842 -0.0241682 0)
(1.27688 -0.0315204 0)
(1.27499 -0.0388467 0)
(1.27274 -0.0461252 0)
(1.27012 -0.0533301 0)
(1.26712 -0.0604334 0)
(1.26374 -0.0674055 0)
(1.25997 -0.0742157 0)
(1.25584 -0.080833 0)
(1.25133 -0.0872262 0)
(1.24648 -0.0933647 0)
(1.24128 -0.0992191 0)
(1.23577 -0.104762 0)
(1.22996 -0.109966 0)
(1.22388 -0.114811 0)
(1.24138 0.0980285 0)
(1.24981 0.09127 0)
(1.25456 0.0843665 0)
(1.25674 0.0775846 0)
(1.25811 0.0709777 0)
(1.25962 0.0644787 0)
(1.2614 0.0580059 0)
(1.26323 0.0515121 0)
(1.26486 0.044986 0)
(1.2662 0.0384311 0)
(1.26725 0.0318502 0)
(1.26805 0.0252405 0)
(1.2686 0.0185956 0)
(1.26891 0.0119103 0)
(1.26896 0.00518537 0)
(1.26874 -0.0015687 0)
(1.26823 -0.00834036 0)
(1.26742 -0.0151164 0)
(1.2663 -0.0218843 0)
(1.26486 -0.0286302 0)
(1.26308 -0.0353369 0)
(1.26098 -0.0419848 0)
(1.25853 -0.0485522 0)
(1.25573 -0.0550158 0)
(1.2526 -0.0613509 0)
(1.24912 -0.0675319 0)
(1.2453 -0.0735329 0)
(1.24116 -0.0793283 0)
(1.23671 -0.0848926 0)
(1.23196 -0.0902014 0)
(1.22692 -0.0952316 0)
(1.22163 -0.0999619 0)
(1.2161 -0.104373 0)
(1.22877 0.0917189 0)
(1.23672 0.0856052 0)
(1.24141 0.0792925 0)
(1.24379 0.0730183 0)
(1.24538 0.0668541 0)
(1.24702 0.0607656 0)
(1.24884 0.054696 0)
(1.25066 0.0486081 0)
(1.25227 0.042491 0)
(1.2536 0.0363475 0)
(1.25465 0.0301819 0)
(1.25543 0.0239953 0)
(1.25597 0.017787 0)
(1.25626 0.0115584 0)
(1.25631 0.00531385 0)
(1.2561 -0.000939329 0)
(1.25562 -0.00719394 0)
(1.25485 -0.0134413 0)
(1.25379 -0.0196697 0)
(1.25243 -0.0258647 0)
(1.25077 -0.0320104 0)
(1.24881 -0.03809 0)
(1.24654 -0.0440852 0)
(1.24395 -0.0499765 0)
(1.24107 -0.0557431 0)
(1.23788 -0.0613639 0)
(1.23439 -0.0668177 0)
(1.23061 -0.0720834 0)
(1.22656 -0.0771404 0)
(1.22224 -0.0819688 0)
(1.21768 -0.0865499 0)
(1.21288 -0.0908667 0)
(1.20787 -0.0949036 0)
(1.21742 0.0855265 0)
(1.22476 0.0799981 0)
(1.22927 0.0742389 0)
(1.23173 0.0684686 0)
(1.23344 0.0627617 0)
(1.23514 0.0571011 6.80747e-28)
(1.23696 0.0514464 -6.80747e-28)
(1.23874 0.0457702 0)
(1.24031 0.0400649 0)
(1.24161 0.0343342 0)
(1.24263 0.0285844 0)
(1.24339 0.0228199 0)
(1.24391 0.0170437 0)
(1.2442 0.011259 0)
(1.24425 0.00546986 0)
(1.24405 -0.00031841 0)
(1.24359 -0.00609895 0)
(1.24287 -0.0118613 0)
(1.24187 -0.0175944 0)
(1.2406 -0.0232858 0)
(1.23906 -0.028922 0)
(1.23724 -0.0344882 0)
(1.23514 -0.0399688 0)
(1.23276 -0.0453474 0)
(1.23012 -0.0506068 0)
(1.22719 -0.0557297 0)
(1.22401 -0.0606986 0)
(1.22057 -0.0654962 0)
(1.21688 -0.0701056 0)
(1.21296 -0.0745107 0)
(1.20882 -0.0786962 0)
(1.20448 -0.0826481 0)
(1.19994 -0.0863537 0)
(1.20712 0.0795257 0)
(1.21383 0.0745154 0)
(1.21812 0.0692709 0)
(1.22059 0.063985 0)
(1.22236 0.0587292 0)
(1.22408 0.0534956 -1.08682e-27)
(1.22588 0.048255 1.08682e-27)
(1.22761 0.0429881 0)
(1.22914 0.0376909 0)
(1.2304 0.0323688 0)
(1.23139 0.0270294 0)
(1.23214 0.0216787 0)
(1.23265 0.0163213 0)
(1.23294 0.0109611 0)
(1.23299 0.00560281 0)
(1.23281 0.000253115 0)
(1.23238 -0.00508213 0)
(1.23171 -0.0103923 0)
(1.23078 -0.0156668 0)
(1.22961 -0.0208951 0)
(1.22818 -0.0260653 0)
(1.2265 -0.0311647 0)
(1.22457 -0.0361799 0)
(1.22239 -0.0410971 0)
(1.21996 -0.045902 0)
(1.21729 -0.0505802 0)
(1.21438 -0.055117 0)
(1.21124 -0.0594981 0)
(1.20789 -0.0637096 0)
(1.20432 -0.0677379 4.79472e-27)
(1.20056 -0.0715706 -4.79472e-27)
(1.19661 -0.075196 0)
(1.19249 -0.0786034 0)
(1.19766 0.0737239 0)