/*--------------------------------*- C++ -*----------------------------------*\
  =========                 |
  \\      /  F ield         | OpenFOAM: The Open Source CFD Toolbox
   \\    /   O peration     | Website:  https://openfoam.org
    \\  /    A nd           | Version:  7
     \\/     M anipulation  |
\*---------------------------------------------------------------------------*/
FoamFile
{
    version     2.0;
    format      ascii;
    class       volVectorField;
    location    "45";
    object      U;
}
// * * * * * * * * * * * * * * * * * * * * * * * * * * * * * * * * * * * * * //

dimensions      [0 1 -1 0 0 0 0];

internalField   nonuniform List<vector> 
1360
(
(0.50809 -0.00437214 -1.6661e-21)
(0.512452 -0.00429893 -3.32271e-22)
(0.516745 -0.00422711 1.53521e-21)
(0.520971 -0.00415668 4.81986e-22)
(0.52513 -0.00408761 -1.29099e-21)
(0.529224 -0.00401989 -1.99646e-21)
(0.533255 -0.00395351 2.68825e-21)
(0.537222 -0.00388844 -2.33471e-22)
(0.541129 -0.00382467 -1.44122e-21)
(0.544975 -0.00376217 7.10033e-22)
(0.548761 -0.00370094 -1.00208e-21)
(0.55249 -0.00364094 1.78813e-21)
(0.556162 -0.00358216 2.20705e-22)
(0.559779 -0.00352458 -1.45986e-21)
(0.563341 -0.00346818 -3.77172e-22)
(0.566849 -0.00341293 5.18615e-22)
(0.570305 -0.00335882 3.80608e-22)
(0.573709 -0.00330582 -5.13248e-22)
(0.577063 -0.00325392 2.1481e-22)
(0.580368 -0.00320308 2.02825e-22)
(0.583624 -0.0031533 -4.36181e-22)
(0.586833 -0.00310454 4.5196e-22)
(0.589996 -0.00305679 -2.60219e-22)
(0.593113 -0.00301003 1.88351e-22)
(0.596185 -0.00296422 1.55861e-22)
(0.599214 -0.00291936 -2.67776e-22)
(0.602199 -0.00287541 -2.89372e-22)
(0.605143 -0.00283235 2.01167e-22)
(0.608046 -0.00279016 1.49736e-22)
(0.610908 -0.00274881 -1.9878e-22)
(0.61373 -0.00270828 -7.04946e-23)
(0.616514 -0.00266853 1.47616e-22)
(0.61926 -0.00262954 -6.00393e-23)
(0.621968 -0.00259128 2.90577e-22)
(0.62464 -0.0025537 -2.61515e-22)
(0.627275 -0.00251678 3.51274e-23)
(0.629875 -0.00248045 7.38252e-23)
(0.63244 -0.00244469 1.94927e-23)
(0.63497 -0.00240942 -2.88809e-23)
(0.637466 -0.00237459 -3.78294e-23)
(0.639929 -0.0023401 5.07274e-23)
(0.642358 -0.00230589 -3.65417e-23)
(0.644754 -0.00227182 2.10075e-23)
(0.647116 -0.00223778 1.88437e-24)
(0.649445 -0.0022036 -5.67953e-24)
(0.651741 -0.0021691 6.25873e-25)
(0.654004 -0.00213412 -1.45861e-25)
(0.656222 -0.00209849 1.69599e-24)
(0.658383 -0.00206193 1.50511e-24)
(0.660692 -0.00202478 1.40109e-25)
(0.663553 -0.00199611 1.53621e-24)
(0.524282 -0.0128903 -6.20948e-21)
(0.528406 -0.0126751 -4.54291e-21)
(0.532466 -0.012464 9.36312e-21)
(0.536463 -0.012257 -3.3433e-21)
(0.540397 -0.012054 3.70319e-21)
(0.544271 -0.011855 -1.03768e-20)
(0.548084 -0.0116599 1.27658e-20)
(0.551839 -0.0114687 2.18525e-22)
(0.555536 -0.0112812 -3.70148e-21)
(0.559177 -0.0110975 -1.92486e-21)
(0.562763 -0.0109176 6.05458e-23)
(0.566294 -0.0107412 -9.87866e-22)
(0.569772 -0.0105684 2.57423e-21)
(0.573197 -0.0103992 -1.39167e-21)
(0.576572 -0.0102334 7.48654e-22)
(0.579896 -0.010071 -4.61421e-22)
(0.583171 -0.00991194 1.96292e-22)
(0.586398 -0.00975616 -2.04855e-22)
(0.589578 -0.00960359 -1.7268e-21)
(0.592712 -0.00945416 1.34047e-22)
(0.5958 -0.00930782 1.07386e-21)
(0.598843 -0.0091645 -1.83339e-21)
(0.601844 -0.00902414 1.76462e-21)
(0.604801 -0.00888667 -1.09628e-21)
(0.607717 -0.00875203 6.78262e-22)
(0.610591 -0.00862015 4.14135e-22)
(0.613426 -0.00849096 4.41249e-22)
(0.616221 -0.0083644 -3.10314e-22)
(0.618977 -0.00824039 -1.54051e-21)
(0.621696 -0.00811886 1.4844e-21)
(0.624378 -0.00799973 -6.53408e-22)
(0.627023 -0.00788292 -9.7401e-23)
(0.629632 -0.00776834 8.61756e-23)
(0.632207 -0.0076559 1.47713e-22)
(0.634747 -0.00754549 -1.70455e-22)
(0.637253 -0.007437 -8.72197e-23)
(0.639726 -0.0073303 4.9906e-22)
(0.642166 -0.00722525 -1.81464e-22)
(0.644574 -0.00712169 -1.47322e-23)
(0.64695 -0.00701942 -1.68311e-22)
(0.649294 -0.00691823 1.37205e-22)
(0.651608 -0.00681786 3.1594e-23)
(0.65389 -0.00671798 -1.43368e-23)
(0.656142 -0.00661824 -6.6211e-24)
(0.658362 -0.00651818 1.18162e-23)
(0.660552 -0.00641728 -1.52659e-24)
(0.662712 -0.00631506 -2.00421e-24)
(0.66483 -0.00621112 2.66744e-24)
(0.666895 -0.00610458 -4.82328e-24)
(0.6691 -0.00599636 1.7668e-24)
(0.671842 -0.00591257 -8.75329e-24)
(0.559118 -0.020408 9.44985e-21)
(0.562736 -0.0200704 -7.94338e-21)
(0.566298 -0.0197392 -4.04284e-21)
(0.569806 -0.0194145 2.82898e-21)
(0.57326 -0.019096 -2.14868e-21)
(0.576663 -0.0187839 -2.70901e-21)
(0.580014 -0.0184779 3.48688e-21)
(0.583315 -0.0181779 -5.65449e-21)
(0.586567 -0.017884 3.04753e-22)
(0.58977 -0.017596 4.75301e-21)
(0.592926 -0.0173138 -8.14486e-22)
(0.596036 -0.0170373 -5.23791e-22)
(0.5991 -0.0167665 -5.8719e-21)
(0.602119 -0.0165012 3.93615e-21)
(0.605094 -0.0162413 1.12542e-21)
(0.608026 -0.0159867 2.78453e-22)
(0.610917 -0.0157374 -2.20832e-21)
(0.613766 -0.0154932 1.98038e-21)
(0.616574 -0.0152541 -4.64531e-22)
(0.619343 -0.0150198 2.22222e-21)
(0.622073 -0.0147905 -6.94144e-22)
(0.624765 -0.0145658 -2.00902e-21)
(0.62742 -0.0143458 1.5487e-21)
(0.630038 -0.0141303 -7.40874e-22)
(0.632621 -0.0139193 -2.1683e-21)
(0.635168 -0.0137125 1.09485e-21)
(0.637681 -0.01351 -2.43929e-22)
(0.64016 -0.0133116 7.54117e-22)
(0.642606 -0.0131171 -1.47864e-21)
(0.64502 -0.0129265 1.72741e-21)
(0.647402 -0.0127396 -3.85978e-22)
(0.649753 -0.0125564 -3.58522e-22)
(0.652073 -0.0123765 5.29656e-22)
(0.654363 -0.0122 -1.04805e-21)
(0.656624 -0.0120265 1.12978e-21)
(0.658856 -0.011856 -7.51572e-22)
(0.661059 -0.0116882 1.21555e-22)
(0.663234 -0.0115228 4.07095e-23)
(0.665382 -0.0113595 -1.49335e-22)
(0.667502 -0.0111981 7.42931e-23)
(0.669596 -0.0110381 -6.18888e-23)
(0.671663 -0.0108791 1.06056e-22)
(0.673703 -0.0107205 4.55465e-23)
(0.675717 -0.0105617 -6.54286e-23)
(0.677705 -0.0104018 1.16829e-23)
(0.679667 -0.0102402 2.52199e-24)
(0.681595 -0.0100763 -9.85863e-25)
(0.683476 -0.00990873 -3.79542e-24)
(0.685485 -0.00973873 -7.54149e-24)
(0.687997 -0.00960618 1.57089e-23)
(0.602336 -0.0271393 -1.15218e-20)
(0.605346 -0.0266946 1.35134e-21)
(0.608312 -0.0262584 -1.29266e-21)
(0.611235 -0.0258305 5.88048e-21)
(0.614115 -0.025411 -5.47299e-22)
(0.616954 -0.0249997 1.76865e-20)
(0.619752 -0.0245965 -1.8871e-20)
(0.622509 -0.0242013 -5.37972e-21)
(0.625227 -0.023814 1.3069e-20)
(0.627906 -0.0234345 -6.88041e-21)
(0.630548 -0.0230625 6.17804e-21)
(0.633151 -0.0226982 3.53212e-21)
(0.635719 -0.0223412 -6.59525e-21)
(0.638251 -0.0219914 -2.77432e-21)
(0.640747 -0.0216489 2.76565e-21)
(0.643209 -0.0213133 7.32662e-21)
(0.645637 -0.0209847 -4.55298e-21)
(0.648032 -0.0206628 -7.7679e-22)
(0.650395 -0.0203475 9.95736e-22)
(0.652726 -0.0200388 -1.27323e-21)
(0.655025 -0.0197364 4.47494e-22)
(0.657294 -0.0194403 -4.04456e-22)
(0.659533 -0.0191503 2.69499e-22)
(0.661743 -0.0188663 -1.72745e-22)
(0.663924 -0.0185881 1.82871e-21)
(0.666077 -0.0183156 -1.65528e-21)
(0.668202 -0.0180487 1.0388e-21)
(0.6703 -0.0177872 -7.11522e-22)
(0.672372 -0.017531 -1.08091e-22)
(0.674417 -0.0172799 1.78994e-22)
(0.676437 -0.0170337 9.47219e-22)
(0.678432 -0.0167923 -4.5659e-22)
(0.680403 -0.0165556 -6.71764e-22)
(0.68235 -0.0163232 -5.34551e-22)
(0.684273 -0.0160949 3.86544e-23)
(0.686173 -0.0158707 7.31815e-24)
(0.688051 -0.01565 1.71414e-22)
(0.689906 -0.0154328 3.48998e-22)
(0.691739 -0.0152185 1.40739e-22)
(0.693551 -0.0150068 1.14523e-22)
(0.695342 -0.0147973 -2.40855e-22)
(0.697112 -0.0145893 2.91724e-23)
(0.698861 -0.0143823 -3.2105e-23)
(0.70059 -0.0141755 -4.47373e-23)
(0.702299 -0.0139679 1.90948e-23)
(0.70399 -0.0137588 -4.6423e-24)
(0.705654 -0.0135475 1.58811e-24)
(0.707282 -0.0133324 4.72689e-24)
(0.709019 -0.0131146 -5.34113e-24)
(0.711211 -0.0129432 8.14034e-24)
(0.655014 -0.0326079 1.63362e-21)
(0.657311 -0.0320802 -5.67473e-21)
(0.659578 -0.0315624 1.08652e-20)
(0.661814 -0.0310546 -1.91123e-20)
(0.66402 -0.0305566 1.69077e-20)
(0.666197 -0.0300683 -6.85523e-21)
(0.668344 -0.0295896 -9.15447e-21)
(0.670464 -0.0291203 1.2263e-20)
(0.672555 -0.0286603 -5.50412e-21)
(0.674619 -0.0282095 -8.42067e-22)
(0.676656 -0.0277678 -4.03039e-21)
(0.678666 -0.0273349 1.27267e-20)
(0.680651 -0.0269109 -2.92959e-21)
(0.68261 -0.0264954 -3.85466e-21)
(0.684544 -0.0260884 2.32276e-21)
(0.686453 -0.0256898 -5.42677e-21)
(0.688338 -0.0252993 2.69645e-22)
(0.6902 -0.0249168 4.72823e-21)
(0.692039 -0.0245423 3.44471e-21)
(0.693854 -0.0241755 -3.02304e-21)
(0.695648 -0.0238162 -2.22589e-21)
(0.69742 -0.0234644 1.76599e-21)
(0.69917 -0.0231199 -2.1878e-21)
(0.7009 -0.0227825 3.82801e-21)
(0.702608 -0.0224521 -5.08587e-22)
(0.704297 -0.0221285 -2.42192e-21)
(0.705966 -0.0218115 3.703e-21)
(0.707616 -0.0215011 -2.41256e-21)
(0.709247 -0.0211969 -1.00261e-21)
(0.710859 -0.0208989 2.73914e-21)
(0.712454 -0.0206068 -9.21933e-22)
(0.71403 -0.0203205 -1.7144e-21)
(0.71559 -0.0200397 1.57616e-21)
(0.717132 -0.0197643 -1.432e-21)
(0.718658 -0.0194939 1.42212e-21)
(0.720167 -0.0192284 -2.8592e-22)
(0.721661 -0.0189673 5.66575e-22)
(0.723139 -0.0187105 -3.73747e-22)
(0.724602 -0.0184574 -3.51727e-22)
(0.72605 -0.0182078 4.95349e-22)
(0.727483 -0.0179611 -1.2756e-22)
(0.728903 -0.0177168 -1.88917e-22)
(0.730309 -0.0174741 2.39774e-22)
(0.731701 -0.0172324 -4.41409e-23)
(0.733081 -0.0169908 -2.62388e-23)
(0.734449 -0.0167485 4.80234e-24)
(0.735801 -0.0165048 7.3729e-24)
(0.737127 -0.0162582 -1.47326e-23)
(0.738543 -0.0160096 2.89627e-24)
(0.740351 -0.0158116 -7.84743e-24)
(0.71366 -0.0366609 2.41683e-20)
(0.715204 -0.0360767 6.84862e-21)
(0.716731 -0.0355034 -1.56729e-20)
(0.718241 -0.0349409 1.21221e-20)
(0.719734 -0.0343892 7.35805e-21)
(0.721211 -0.0338481 -2.10386e-20)
(0.722672 -0.0333175 -1.44907e-21)
(0.724116 -0.0327973 -3.6567e-21)
(0.725545 -0.0322874 2.37565e-20)
(0.726959 -0.0317875 -1.03757e-20)
(0.728356 -0.0312977 2.43381e-21)
(0.729739 -0.0308176 -1.75491e-21)
(0.731107 -0.0303473 -7.0745e-21)
(0.732461 -0.0298864 8.27298e-21)
(0.7338 -0.029435 -2.26863e-21)
(0.735124 -0.0289927 1.57073e-21)
(0.736435 -0.0285596 4.40464e-21)
(0.737733 -0.0281353 -3.54013e-22)
(0.739017 -0.0277198 -8.86789e-21)
(0.740287 -0.0273129 3.81582e-22)
(0.741545 -0.0269145 4.11514e-21)
(0.742791 -0.0265243 4.73152e-21)
(0.744024 -0.0261422 -1.57248e-21)
(0.745244 -0.025768 -8.63976e-21)
(0.746453 -0.0254017 -3.07027e-23)
(0.747651 -0.0250429 5.85076e-21)
(0.748837 -0.0246916 1.53663e-21)
(0.750011 -0.0243476 -3.31047e-21)
(0.751175 -0.0240106 1.36389e-21)
(0.752329 -0.0236806 2.28602e-22)
(0.753472 -0.0233572 1.8425e-21)
(0.754605 -0.0230404 -4.82792e-22)
(0.755728 -0.0227298 -1.67891e-21)
(0.756841 -0.0224253 4.99938e-22)
(0.757945 -0.0221266 -2.5693e-22)
(0.75904 -0.0218335 -4.67444e-22)
(0.760126 -0.0215456 7.93261e-22)
(0.761204 -0.0212627 -2.82193e-22)
(0.762274 -0.0209843 2.19204e-22)
(0.763335 -0.0207101 1.57463e-22)
(0.76439 -0.0204397 3.51682e-22)
(0.765437 -0.0201725 -4.11711e-22)
(0.766477 -0.019908 9.29132e-23)
(0.767512 -0.0196455 8.56013e-23)
(0.768541 -0.0193842 -3.93595e-23)
(0.769565 -0.0191236 5.77465e-24)
(0.770583 -0.0188631 -1.25008e-23)
(0.771586 -0.0186017 -2.20437e-25)
(0.772659 -0.0183397 7.90001e-25)
(0.774051 -0.0181286 -1.69105e-25)
(0.775523 -0.0386708 1.03519e-20)
(0.776331 -0.0380667 9.13989e-22)
(0.777136 -0.0374739 -2.05695e-20)
(0.777937 -0.0368922 1.23986e-20)
(0.778734 -0.0363215 -4.42742e-21)
(0.779527 -0.0357618 -2.5826e-20)
(0.780316 -0.0352129 1.44882e-20)
(0.781101 -0.0346747 1.76113e-20)
(0.781882 -0.0341471 -1.7832e-20)
(0.782659 -0.0336299 1.72586e-20)
(0.783432 -0.033123 -7.41328e-21)
(0.784201 -0.0326263 -1.25298e-20)
(0.784965 -0.0321397 1.4637e-22)
(0.785726 -0.0316629 9.91975e-21)
(0.786483 -0.0311958 -1.05366e-20)
(0.787235 -0.0307384 3.94592e-21)
(0.787984 -0.0302903 4.86936e-21)
(0.788728 -0.0298515 4.89617e-22)
(0.789469 -0.0294218 3.9256e-21)
(0.790206 -0.0290011 -3.0593e-21)
(0.79094 -0.0285892 -7.52467e-22)
(0.791669 -0.0281859 -2.11967e-21)
(0.792395 -0.027791 5.57892e-22)
(0.793118 -0.0274045 -5.37255e-21)
(0.793837 -0.027026 4.80923e-21)
(0.794553 -0.0266556 3.40534e-21)
(0.795265 -0.0262929 -8.20216e-21)
(0.795975 -0.0259379 4.06569e-21)
(0.796681 -0.0255902 4.66317e-22)
(0.797385 -0.0252498 -1.32579e-22)
(0.798086 -0.0249165 -1.81194e-22)
(0.798784 -0.02459 4.52699e-22)
(0.79948 -0.0242701 3.10107e-23)
(0.800174 -0.0239565 5.66876e-22)
(0.800865 -0.0236492 -1.52394e-21)
(0.801555 -0.0233477 8.34707e-22)
(0.802243 -0.0230518 1.19061e-21)
(0.802929 -0.0227611 -5.54294e-22)
(0.803615 -0.0224754 -2.37156e-22)
(0.804299 -0.0221943 3.56683e-22)
(0.804983 -0.0219173 -2.85502e-22)
(0.805667 -0.0216441 6.96461e-23)
(0.806352 -0.021374 1.0921e-22)
(0.807038 -0.0211066 -2.20318e-22)
(0.807726 -0.0208415 2.33496e-23)
(0.808415 -0.0205785 1.68854e-23)
(0.8091 -0.020317 -1.49938e-24)
(0.809836 -0.0200572 -1.80009e-24)
(0.810811 -0.0198454 4.07587e-24)
(0.835042 -0.0400422 2.42153e-20)
(0.835204 -0.0394243 -4.18441e-20)
(0.835374 -0.0388178 2.68093e-20)
(0.835551 -0.0382226 -2.93722e-20)
(0.835736 -0.0376385 4.39009e-20)
(0.835929 -0.0370656 -1.16695e-20)
(0.836128 -0.0365037 -3.13135e-20)
(0.836333 -0.0359527 4.04797e-20)
(0.836545 -0.0354125 -9.49963e-21)
(0.836763 -0.0348831 7.61578e-21)
(0.836987 -0.0343642 9.96361e-22)
(0.837217 -0.0338558 -1.19064e-20)
(0.837452 -0.0333577 -3.88041e-21)
(0.837692 -0.0328698 7.10917e-21)
(0.837937 -0.0323919 5.05789e-21)
(0.838187 -0.0319239 -1.06782e-20)
(0.838442 -0.0314657 4.80618e-21)
(0.838701 -0.031017 -3.50441e-21)
(0.838965 -0.0305778 2.33119e-21)
(0.839234 -0.0301479 -1.82959e-21)
(0.839506 -0.0297271 1.7916e-21)
(0.839783 -0.0293153 1.53547e-21)
(0.840064 -0.0289123 4.44059e-21)
(0.840349 -0.028518 -6.7943e-21)
(0.840638 -0.0281322 2.73786e-21)
(0.840932 -0.0277547 -1.39932e-21)
(0.841229 -0.0273854 -5.98254e-22)
(0.84153 -0.0270241 5.12256e-21)
(0.841834 -0.0266706 -4.93181e-21)
(0.842143 -0.0263247 3.27411e-22)
(0.842456 -0.0259863 -1.25879e-21)
(0.842773 -0.0256552 -1.46951e-22)
(0.843093 -0.0253311 1.88012e-21)
(0.843418 -0.025014 5.75499e-22)
(0.843747 -0.0247034 -1.16534e-21)
(0.84408 -0.0243994 -6.31377e-22)
(0.844418 -0.0241015 5.08634e-22)
(0.84476 -0.0238095 -2.02297e-22)
(0.845107 -0.0235232 -1.1727e-22)
(0.84546 -0.0232423 1.60277e-23)
(0.845817 -0.0229664 -6.39988e-23)
(0.846181 -0.0226953 1.28962e-22)
(0.846551 -0.0224287 1.34814e-22)
(0.846927 -0.0221661 -2.18728e-22)
(0.847312 -0.0219074 6.74326e-23)
(0.847704 -0.0216527 2.9825e-24)
(0.8481 -0.0214017 -2.50403e-23)
(0.848531 -0.0211544 2.69876e-25)
(0.849118 -0.0209499 -1.90052e-26)
(0.894465 -0.0392033 0)
(0.894101 -0.0386229 0)
(0.893753 -0.0380526 0)
(0.89342 -0.0374924 4.57793e-28)
(0.893101 -0.0369424 -2.11585e-28)
(0.892797 -0.0364023 2.03483e-28)
(0.892506 -0.0358724 -4.07182e-28)
(0.892229 -0.0353524 0)
(0.891965 -0.0348424 0)
(0.891713 -0.0343423 0)
(0.891473 -0.0338519 -4.00359e-12)
(0.891245 -0.0333713 -3.83812e-12)
(0.891029 -0.0329003 0)
(0.890824 -0.0324387 0)
(0.89063 -0.0319866 0)
(0.890447 -0.0315438 0)
(0.890275 -0.0311102 0)
(0.890112 -0.0306856 0)
(0.88996 -0.03027 0)
(0.889817 -0.0298632 0)
(0.889684 -0.0294651 2.18389e-28)
(0.889561 -0.0290755 -9.95941e-29)
(0.889447 -0.0286944 0)
(0.889342 -0.0283216 0)
(0.889246 -0.0279569 0)
(0.889159 -0.0276002 0)
(0.889081 -0.0272515 0)
(0.889012 -0.0269104 1.4629e-28)
(0.888951 -0.026577 -6.57939e-29)
(0.888899 -0.026251 1.27854e-28)
(0.888856 -0.0259323 -5.71533e-29)
(0.888821 -0.0256207 0)
(0.888795 -0.0253161 0)
(0.888778 -0.0250184 0)
(0.888769 -0.0247272 0)
(0.888769 -0.0244426 0)
(0.888778 -0.0241642 0)
(0.888796 -0.0238919 6.28466e-29)
(0.888824 -0.0236255 -2.67539e-29)
(0.888861 -0.0233649 0)
(0.888908 -0.0231098 0)
(0.888966 -0.02286 3.55906e-29)
(0.889034 -0.0226154 -1.41083e-29)
(0.889114 -0.0223758 0)
(0.889206 -0.0221414 1.77019e-29)
(0.889309 -0.0219121 -5.90069e-30)
(0.889433 -0.0216875 7.15195e-30)
(0.889619 -0.0214992 -1.15372e-30)
(0.953853 -0.0379138 0)
(0.953013 -0.0373721 0)
(0.952194 -0.0368393 0)
(0.951396 -0.0363155 -4.58413e-28)
(0.950619 -0.0358008 2.1187e-28)
(0.949862 -0.0352951 -7.23231e-28)
(0.949123 -0.0347986 9.27202e-28)
(0.948403 -0.0343111 0)
(0.947702 -0.0338328 0)
(0.947018 -0.0333635 0)
(0.946351 -0.0329032 4.00887e-12)
(0.945701 -0.0324519 3.84317e-12)
(0.945067 -0.0320096 0)
(0.944449 -0.0315761 0)
(0.943847 -0.0311513 0)
(0.94326 -0.0307353 0)
(0.942688 -0.0303279 0)
(0.942131 -0.029929 -3.29514e-28)
(0.941588 -0.0295386 3.29514e-28)
(0.941059 -0.0291565 0)
(0.940543 -0.0287827 -2.18663e-28)
(0.940042 -0.028417 9.97179e-29)
(0.939553 -0.0280593 0)
(0.939078 -0.0277096 0)
(0.938616 -0.0273678 0)
(0.938166 -0.0270337 0)
(0.937729 -0.0267072 0)
(0.937304 -0.0263882 -1.46464e-28)
(0.936892 -0.0260766 6.58716e-29)
(0.936492 -0.0257723 -1.28004e-28)
(0.936104 -0.0254752 5.72197e-29)
(0.935728 -0.0251851 0)
(0.935364 -0.0249021 0)
(0.935012 -0.0246259 0)
(0.934672 -0.0243564 0)
(0.934345 -0.0240936 0)
(0.934029 -0.0238373 0)
(0.933726 -0.0235875 -6.29149e-29)
(0.933436 -0.0233441 2.67827e-29)
(0.933158 -0.0231069 0)
(0.932894 -0.0228759 0)
(0.932643 -0.0226511 -3.56276e-29)
(0.932405 -0.0224324 1.41228e-29)
(0.932182 -0.0222199 0)
(0.931974 -0.0220136 -1.77197e-29)
(0.931784 -0.0218137 5.90654e-30)
(0.931602 -0.0216198 -7.15894e-30)
(0.931383 -0.021456 1.15216e-30)
(1.0069 -0.0358303 0)
(1.00571 -0.0353365 0)
(1.00455 -0.0348501 -1.34216e-29)
(1.00341 -0.0343714 0)
(1.00229 -0.0339004 1.24613e-29)
(1.0012 -0.0334373 -5.82979e-28)
(1.00013 -0.0329821 5.70979e-28)
(0.999083 -0.0325349 1.11142e-29)
(0.998057 -0.0320958 0)
(0.997051 -0.0316646 0)
(0.996066 -0.0312416 4.9483e-29)
(0.9951 -0.0308266 0)
(0.994153 -0.0304197 -1.42946e-28)
(0.993225 -0.0300208 -1.02069e-28)
(0.992316 -0.0296299 0)
(0.991424 -0.029247 -4.00826e-29)
(0.99055 -0.028872 0)
(0.989693 -0.0285049 0)
(0.988853 -0.0281456 0)
(0.98803 -0.027794 -6.65262e-30)
(0.987223 -0.0274502 0)
(0.986432 -0.027114 0)
(0.985656 -0.0267854 0)
(0.984897 -0.0264643 0)
(0.984152 -0.0261506 5.14716e-30)
(0.983422 -0.0258442 0)
(0.982707 -0.0255452 0)
(0.982007 -0.0252534 2.16897e-29)
(0.981321 -0.0249687 1.78537e-12)
(0.98065 -0.0246911 1.67342e-12)
(0.979993 -0.0244205 0)
(0.97935 -0.0241569 3.31825e-30)
(0.978721 -0.0239001 0)
(0.978106 -0.0236502 0)
(0.977506 -0.0234071 0)
(0.976919 -0.0231708 -2.40521e-30)
(0.976346 -0.0229412 0)
(0.975788 -0.0227183 8.7118e-13)
(0.975244 -0.0225022 7.82407e-13)
(0.974715 -0.0222928 0)
(0.9742 -0.0220901 1.39502e-30)
(0.9737 -0.0218944 0)
(0.973216 -0.0217056 0)
(0.972748 -0.0215239 -8.62327e-31)
(0.972296 -0.0213496 0)
(0.971864 -0.0211829 0)
(0.971435 -0.021024 0)
(0.970879 -0.0208895 0)
(1.0524 -0.0331817 0)
(1.05099 -0.0327403 0)
(1.04961 -0.0323049 1.34216e-29)
(1.04826 -0.0318757 0)
(1.04693 -0.0314528 -1.24613e-29)
(1.04562 -0.0310366 1.20003e-29)
(1.04434 -0.030627 0)
(1.04308 -0.0302243 -1.11142e-29)
(1.04184 -0.0298284 0)
(1.04062 -0.0294396 0)
(1.03943 -0.0290578 -4.9483e-29)
(1.03826 -0.0286831 0)
(1.0371 -0.0283155 1.42946e-28)
(1.03597 -0.0279551 1.02069e-28)
(1.03485 -0.0276018 0)
(1.03376 -0.0272557 4.00826e-29)
(1.03268 -0.0269168 0)
(1.03162 -0.0265851 0)
(1.03058 -0.0262605 0)
(1.02956 -0.025943 6.65262e-30)
(1.02855 -0.0256326 0)
(1.02756 -0.0253293 0)
(1.02659 -0.025033 0)
(1.02563 -0.0247437 0)
(1.02469 -0.0244614 -5.14716e-30)
(1.02377 -0.024186 0)
(1.02286 -0.0239175 0)
(1.02196 -0.0236559 -2.16897e-29)
(1.02109 -0.0234011 -1.78537e-12)
(1.02022 -0.0231531 -1.67342e-12)
(1.01938 -0.022912 0)
(1.01854 -0.0226775 -3.31825e-30)
(1.01772 -0.0224499 0)
(1.01692 -0.022229 0)
(1.01613 -0.0220149 0)
(1.01536 -0.0218076 2.40521e-30)
(1.0146 -0.0216072 0)
(1.01386 -0.0214136 -8.7118e-13)
(1.01313 -0.021227 -7.82407e-13)
(1.01241 -0.0210476 0)
(1.01171 -0.0208753 -1.39502e-30)
(1.01103 -0.0207105 0)
(1.01036 -0.0205533 0)
(1.00971 -0.020404 8.62327e-31)
(1.00907 -0.0202629 0)
(1.00846 -0.0201305 0)
(1.00784 -0.0200074 0)
(1.00703 -0.0199041 0)
(1.0899 -0.0302263 0)
(1.08839 -0.0298369 0)
(1.08691 -0.0294521 0)
(1.08545 -0.0290723 0)
(1.08401 -0.0286975 0)
(1.0826 -0.0283282 0)
(1.08121 -0.0279643 0)
(1.07984 -0.0276061 0)
(1.0785 -0.0272538 0)
(1.07717 -0.0269075 0)
(1.07587 -0.0265672 0)
(1.07458 -0.0262331 0)
(1.07332 -0.0259052 0)
(1.07208 -0.0255836 0)
(1.07085 -0.0252684 0)
(1.06964 -0.0249595 0)
(1.06845 -0.0246571 0)
(1.06728 -0.0243612 3.76622e-28)
(1.06613 -0.0240717 -3.76622e-28)
(1.06499 -0.0237887 0)
(1.06387 -0.0235122 0)
(1.06277 -0.0232421 0)
(1.06168 -0.0229786 0)
(1.06061 -0.0227216 0)
(1.05956 -0.0224711 0)
(1.05852 -0.022227 0)
(1.0575 -0.0219895 0)
(1.05649 -0.0217585 0)
(1.05549 -0.0215339 0)
(1.05451 -0.0213159 0)
(1.05355 -0.0211044 0)
(1.0526 -0.0208995 0)
(1.05167 -0.0207012 0)
(1.05075 -0.0205096 0)
(1.04984 -0.0203246 0)
(1.04895 -0.0201465 0)
(1.04807 -0.0199752 0)
(1.04721 -0.0198109 0)
(1.04636 -0.0196538 0)
(1.04552 -0.0195039 0)
(1.0447 -0.0193617 0)
(1.0439 -0.0192272 0)
(1.04311 -0.0191007 0)
(1.04233 -0.0189828 0)
(1.04157 -0.0188736 0)
(1.04084 -0.018774 0)
(1.04009 -0.0186846 0)
(1.03909 -0.0186115 0)
(1.11955 -0.0271773 0)
(1.11803 -0.0268361 0)
(1.11654 -0.0264985 0)
(1.11507 -0.0261646 0)
(1.11362 -0.0258347 0)
(1.11219 -0.0255091 -5.9736e-28)
(1.11078 -0.0251881 5.9736e-28)
(1.1094 -0.0248717 0)
(1.10803 -0.0245603 0)
(1.10668 -0.0242539 0)
(1.10535 -0.0239527 0)
(1.10404 -0.0236569 0)
(1.10275 -0.0233664 0)
(1.10147 -0.0230815 0)
(1.10022 -0.0228022 0)
(1.09898 -0.0225286 0)
(1.09775 -0.0222608 0)
(1.09655 -0.0219987 3.70239e-28)
(1.09536 -0.0217425 -3.70239e-28)
(1.09418 -0.0214922 0)
(1.09302 -0.0212478 0)
(1.09188 -0.0210094 0)
(1.09075 -0.020777 0)
(1.08964 -0.0205506 0)
(1.08854 -0.0203302 0)
(1.08745 -0.0201159 0)
(1.08638 -0.0199078 0)
(1.08533 -0.0197058 0)
(1.08428 -0.0195099 0)
(1.08326 -0.0193203 0)
(1.08224 -0.019137 0)
(1.08124 -0.01896 0)
(1.08025 -0.0187894 0)
(1.07928 -0.0186253 0)
(1.07832 -0.0184679 0)
(1.07737 -0.0183171 0)
(1.07643 -0.0181732 0)
(1.07551 -0.0180363 0)
(1.0746 -0.0179066 0)
(1.0737 -0.0177843 0)
(1.07282 -0.0176697 0)
(1.07195 -0.0175631 0)
(1.07109 -0.0174649 0)
(1.07025 -0.0173754 0)
(1.06942 -0.017295 0)
(1.06861 -0.0172246 0)
(1.0678 -0.017165 0)
(1.06668 -0.0171191 0)
(1.14201 -0.0241972 0)
(1.14056 -0.0238986 0)
(1.13912 -0.0236025 0)
(1.1377 -0.0233093 0)
(1.13631 -0.0230192 2.86403e-28)
(1.13493 -0.0227326 2.60094e-28)
(1.13357 -0.0224496 -1.68247e-28)
(1.13222 -0.0221706 -2.57484e-28)
(1.1309 -0.0218957 0)
(1.12959 -0.0216251 0)
(1.1283 -0.0213589 0)
(1.12702 -0.0210974 0)
(1.12576 -0.0208406 0)
(1.12452 -0.0205886 0)
(1.12329 -0.0203417 0)
(1.12208 -0.0200998 0)
(1.12088 -0.0198631 0)
(1.11969 -0.0196316 0)
(1.11852 -0.0194054 0)
(1.11737 -0.0191846 0)
(1.11623 -0.0189692 0)
(1.1151 -0.0187593 0)
(1.11399 -0.018555 3.01257e-12)
(1.11289 -0.0183562 2.86879e-12)
(1.1118 -0.0181631 2.72802e-12)
(1.11072 -0.0179757 2.59016e-12)
(1.10966 -0.017794 -1.13095e-28)
(1.10861 -0.0176181 0)
(1.10757 -0.0174482 0)
(1.10655 -0.0172841 0)
(1.10553 -0.0171261 0)
(1.10453 -0.0169742 0)
(1.10354 -0.0168285 0)
(1.10256 -0.0166891 0)
(1.1016 -0.0165562 0)
(1.10064 -0.0164298 0)
(1.0997 -0.0163102 0)
(1.09877 -0.0161976 0)
(1.09784 -0.0160921 0)
(1.09693 -0.015994 0)
(1.09604 -0.0159037 3.82119e-29)
(1.09515 -0.0158214 0)
(1.09427 -0.0157474 0)
(1.09341 -0.0156823 -2.47775e-29)
(1.09255 -0.0156265 2.82633e-29)
(1.09172 -0.0155806 -1.62556e-29)
(1.09087 -0.0155458 0)
(1.08972 -0.0155227 0)
(1.15825 -0.0213928 0)
(1.1569 -0.0211305 0)
(1.15556 -0.0208699 0)
(1.15424 -0.0206116 0)
(1.15293 -0.0203557 -2.86403e-28)
(1.15164 -0.0201025 2.76541e-28)
(1.15037 -0.0198524 -3.68388e-28)
(1.14911 -0.0196056 2.57484e-28)
(1.14787 -0.0193623 0)
(1.14664 -0.0191226 0)
(1.14543 -0.0188868 0)
(1.14423 -0.0186551 0)
(1.14304 -0.0184275 0)
(1.14187 -0.0182042 0)
(1.14071 -0.0179854 0)
(1.13956 -0.0177712 0)
(1.13843 -0.0175615 0)
(1.13731 -0.0173567 3.71772e-28)
(1.1362 -0.0171567 -3.71772e-28)
(1.1351 -0.0169616 0)
(1.13402 -0.0167715 0)
(1.13295 -0.0165864 0)
(1.13189 -0.0164065 -3.01257e-12)
(1.13084 -0.0162318 -2.86879e-12)
(1.1298 -0.0160624 -2.72802e-12)
(1.12877 -0.0158983 -2.59016e-12)
(1.12776 -0.0157397 1.13095e-28)
(1.12675 -0.0155866 0)
(1.12576 -0.015439 0)
(1.12477 -0.0152971 0)
(1.1238 -0.0151609 0)
(1.12283 -0.0150306 0)
(1.12188 -0.0149063 0)
(1.12093 -0.0147881 0)
(1.12 -0.0146762 0)
(1.11908 -0.0145707 0)
(1.11816 -0.0144717 0)
(1.11725 -0.0143796 0)
(1.11636 -0.0142945 0)
(1.11547 -0.0142167 0)
(1.11459 -0.0141465 -3.82119e-29)
(1.11372 -0.0140842 0)
(1.11286 -0.0140301 0)
(1.11201 -0.0139848 2.47775e-29)
(1.11117 -0.0139486 -2.82633e-29)
(1.11034 -0.0139221 1.62556e-29)
(1.10951 -0.0139065 0)
(1.10835 -0.0139012 0)
(1.16938 -0.0188189 0)
(1.16814 -0.0185872 7.22024e-12)
(1.16692 -0.0183567 1.39765e-11)
(1.16571 -0.0181278 6.76106e-12)
(1.16452 -0.017901 0)
(1.16334 -0.0176763 -2.62384e-28)
(1.16217 -0.0174542 0)
(1.16102 -0.0172349 0)
(1.15988 -0.0170185 -5.69438e-12)
(1.15875 -0.0168053 -5.49419e-12)
(1.15763 -0.0165955 0)
(1.15653 -0.0163892 -5.10615e-12)
(1.15544 -0.0161867 -4.91812e-12)
(1.15436 -0.015988 0)
(1.15329 -0.0157933 -4.55355e-12)
(1.15223 -0.0156027 -4.37682e-12)
(1.15119 -0.0154163 0)
(1.15015 -0.0152343 -3.48583e-28)
(1.14913 -0.0150567 0)
(1.14811 -0.0148836 1.53793e-28)
(1.14711 -0.0147151 -3.06342e-28)
(1.14612 -0.0145513 1.40667e-28)
(1.14513 -0.0143923 3.2352e-12)
(1.14416 -0.0142381 3.08472e-12)
(1.14319 -0.0140889 -1.21924e-28)
(1.14224 -0.0139447 2.79241e-12)
(1.14129 -0.0138055 2.65042e-12)
(1.14035 -0.0136716 2.16986e-28)
(1.13943 -0.013543 2.3744e-12)
(1.13851 -0.0134197 2.24022e-12)
(1.1376 -0.0133019 -8.75254e-29)
(1.13669 -0.0131898 1.97915e-12)
(1.1358 -0.0130833 8.00216e-29)
(1.13491 -0.0129827 -1.72735e-12)
(1.13404 -0.0128882 1.60475e-12)
(1.13317 -0.0127998 1.48425e-12)
(1.1323 -0.0127177 0)
(1.13145 -0.0126423 -1.2493e-12)
(1.1306 -0.0125736 -2.26939e-12)
(1.12976 -0.0125121 -1.02191e-12)
(1.12893 -0.0124578 -9.10857e-13)
(1.1281 -0.0124112 -8.01466e-13)
(1.12728 -0.0123726 -2.87939e-29)
(1.12647 -0.0123424 0)
(1.12567 -0.0123209 4.16748e-29)
(1.12487 -0.0123088 -1.57058e-29)
(1.12407 -0.012307 0)
(1.12295 -0.0123144 7.92501e-30)
(1.17651 -0.0164892 0)
(1.17539 -0.0162835 -7.22024e-12)
(1.17429 -0.0160787 -1.39765e-11)
(1.17319 -0.0158752 -6.76106e-12)
(1.17211 -0.0156732 0)
(1.17105 -0.015473 2.62384e-28)
(1.16999 -0.0152749 0)
(1.16894 -0.0150792 0)
(1.16791 -0.0148861 5.69438e-12)
(1.16689 -0.0146957 5.49419e-12)
(1.16587 -0.0145083 0)
(1.16487 -0.014324 5.10615e-12)
(1.16388 -0.014143 4.91812e-12)
(1.1629 -0.0139655 0)
(1.16193 -0.0137916 4.55355e-12)
(1.16097 -0.0136214 4.37682e-12)
(1.16002 -0.013455 0)
(1.15907 -0.0132925 7.18659e-28)
(1.15814 -0.0131342 -3.70076e-28)
(1.15722 -0.0129799 -1.53793e-28)
(1.1563 -0.0128299 3.06342e-28)
(1.1554 -0.0126843 -1.40667e-28)
(1.1545 -0.0125431 -3.2352e-12)
(1.15361 -0.0124064 -3.08472e-12)
(1.15273 -0.0122742 1.21924e-28)
(1.15185 -0.0121468 -2.79241e-12)
(1.15099 -0.0120242 -2.65042e-12)
(1.15013 -0.0119064 -2.16986e-28)
(1.14928 -0.0117936 -2.3744e-12)
(1.14844 -0.0116859 -2.24022e-12)
(1.1476 -0.0115834 8.75254e-29)
(1.14677 -0.0114861 -1.97915e-12)
(1.14595 -0.0113943 -8.00216e-29)
(1.14513 -0.0113081 1.72735e-12)
(1.14433 -0.0112276 -1.60475e-12)
(1.14352 -0.011153 -1.48425e-12)
(1.14273 -0.0110845 0)
(1.14194 -0.0110222 1.2493e-12)
(1.14115 -0.0109664 2.26939e-12)
(1.14037 -0.0109173 1.02191e-12)
(1.1396 -0.0108752 9.10857e-13)
(1.13883 -0.0108403 8.01466e-13)
(1.13807 -0.0108131 2.87939e-29)
(1.13731 -0.0107937 0)
(1.13656 -0.0107826 -4.16748e-29)
(1.13581 -0.0107802 1.57058e-29)
(1.13506 -0.0107874 0)
(1.134 -0.0108029 -7.92016e-30)
(1.18066 -0.0143888 3.20897e-28)
(1.17965 -0.014206 -6.47448e-28)
(1.17865 -0.0140239 3.01348e-28)
(1.17767 -0.0138426 0)
(1.17669 -0.0136626 0)
(1.17573 -0.013484 0)
(1.17477 -0.0133072 0)
(1.17383 -0.0131324 0)
(1.17289 -0.0129598 -5.14197e-28)
(1.17197 -0.0127896 0)
(1.17105 -0.012622 4.79325e-28)
(1.17015 -0.0124572 -2.22128e-28)
(1.16925 -0.0122953 0)
(1.16836 -0.0121365 0)
(1.16749 -0.0119809 0)
(1.16662 -0.0118287 3.97821e-28)
(1.16576 -0.0116799 -1.83721e-28)
(1.1649 -0.0115347 4.06412e-28)
(1.16406 -0.0113932 -2.37056e-28)
(1.16323 -0.0112555 -1.62373e-28)
(1.1624 -0.0111216 3.23735e-28)
(1.16158 -0.0109918 0)
(1.16076 -0.010866 0)
(1.15996 -0.0107444 0)
(1.15916 -0.010627 0)
(1.15837 -0.010514 0)
(1.15759 -0.0104055 0)
(1.15681 -0.0103014 -2.30825e-28)
(1.15604 -0.010202 1.04948e-28)
(1.15527 -0.0101074 -2.06306e-28)
(1.15451 -0.0100176 0)
(1.15376 -0.00993272 0)
(1.15301 -0.00985297 0)
(1.15227 -0.00977844 7.66755e-29)
(1.15153 -0.00970929 0)
(1.1508 -0.00964566 -6.59668e-29)
(1.15008 -0.00958773 6.07268e-29)
(1.14936 -0.00953567 0)
(1.14864 -0.00948969 0)
(1.14793 -0.00944999 0)
(1.14722 -0.00941682 0)
(1.14651 -0.00939041 0)
(1.14581 -0.00937103 0)
(1.14511 -0.00935897 0)
(1.14442 -0.00935453 0)
(1.14373 -0.00935805 -1.62487e-29)
(1.14303 -0.00937034 2.42394e-29)
(1.14205 -0.00938994 -7.39924e-30)
(1.18271 -0.0124871 -3.20897e-28)
(1.18179 -0.0123253 6.47448e-28)
(1.18088 -0.0121638 -3.01348e-28)
(1.17999 -0.0120029 0)
(1.1791 -0.011843 0)
(1.17822 -0.0116843 0)
(1.17735 -0.0115271 0)
(1.1765 -0.0113715 0)
(1.17565 -0.0112178 5.14197e-28)
(1.17481 -0.0110662 0)
(1.17398 -0.0109168 -4.79325e-28)
(1.17316 -0.0107698 2.22128e-28)
(1.17234 -0.0106254 0)
(1.17154 -0.0104838 0)
(1.17075 -0.010345 0)
(1.16996 -0.0102092 -3.97821e-28)
(1.16918 -0.0100765 1.83721e-28)
(1.16841 -0.00994697 3.8894e-28)
(1.16764 -0.0098208 -5.58295e-28)
(1.16689 -0.00969806 1.62373e-28)
(1.16614 -0.00957884 -3.23735e-28)
(1.1654 -0.00946323 0)
(1.16466 -0.00935133 0)
(1.16393 -0.00924323 0)
(1.16321 -0.00913901 0)
(1.1625 -0.00903878 0)
(1.16179 -0.00894262 0)
(1.16108 -0.00885062 2.30825e-28)
(1.16039 -0.00876288 -1.04948e-28)
(1.15969 -0.00867951 2.06306e-28)
(1.15901 -0.00860061 0)
(1.15833 -0.00852628 0)
(1.15765 -0.00845666 0)
(1.15698 -0.00839186 -7.66755e-29)
(1.15631 -0.00833201 0)
(1.15565 -0.00827727 6.59668e-29)
(1.15499 -0.00822778 -6.07268e-29)
(1.15433 -0.0081837 0)
(1.15368 -0.00814522 0)
(1.15303 -0.0081125 0)
(1.15239 -0.00808576 0)
(1.15174 -0.0080652 0)