/*--------------------------------*- C++ -*----------------------------------*\
  =========                 |
  \\      /  F ield         | OpenFOAM: The Open Source CFD Toolbox
   \\    /   O peration     | Website:  https://openfoam.org
    \\  /    A nd           | Version:  7
     \\/     M anipulation  |
\*---------------------------------------------------------------------------*/
FoamFile
{
    version     2.0;
    format      ascii;
    class       surfaceScalarField;
    location    "15";
    object      phi;
}
// * * * * * * * * * * * * * * * * * * * * * * * * * * * * * * * * * * * * * //

dimensions      [0 3 -1 0 0 0 0];

internalField   nonuniform List<scalar> 
2641
(
0.00726695
-6.15848e-05
0.00732766
-6.0715e-05
0.00738753
-5.98711e-05
0.00744658
-5.90528e-05
0.00750484
-5.82602e-05
0.00756234
-5.74929e-05
0.00761909
-5.67508e-05
0.00767512
-5.60338e-05
0.00773046
-5.53415e-05
0.00778513
-5.46736e-05
0.00783916
-5.40299e-05
0.00789257
-5.34101e-05
0.00794539
-5.28138e-05
0.00799763
-5.22406e-05
0.00804932
-5.16901e-05
0.00810048
-5.11619e-05
0.00815114
-5.06556e-05
0.00820131
-5.01708e-05
0.00825101
-4.97069e-05
0.00830028
-4.92633e-05
0.00834912
-4.88397e-05
0.00839755
-4.84355e-05
0.0084456
-4.805e-05
0.00849328
-4.76827e-05
0.00854062
-4.7333e-05
0.00858762
-4.70003e-05
0.0086343
-4.66839e-05
0.00868069
-4.63831e-05
0.00872678
-4.60974e-05
0.00877261
-4.5826e-05
0.00881818
-4.55683e-05
0.0088635
-4.53234e-05
0.00890859
-4.50907e-05
0.00895346
-4.48695e-05
0.00899812
-4.46591e-05
0.00904258
-4.44586e-05
0.00908685
-4.42673e-05
0.00913093
-4.40844e-05
0.00917484
-4.39092e-05
0.00921858
-4.37408e-05
0.00926216
-4.35784e-05
0.00930558
-4.34211e-05
0.00934885
-4.32679e-05
0.00939197
-4.3118e-05
0.00943494
-4.29701e-05
0.00947776
-4.28229e-05
0.00952044
-4.26752e-05
0.00956296
-4.25248e-05
0.00960532
-4.23575e-05
0.00964746
-4.21441e-05
-4.19705e-05
0.00745017
0.00750811
-0.000118656
0.00756527
-0.000117033
0.00762168
-0.000115459
0.00767736
-0.000113935
0.00773232
-0.000112461
0.00778661
-0.000111035
0.00784023
-0.000109658
0.00789322
-0.000108329
0.00794559
-0.000107048
0.00799738
-0.000105814
0.00804859
-0.000104625
0.00809926
-0.000103483
0.00814941
-0.000102386
0.00819905
-0.000101333
0.00824821
-0.000100323
0.00829691
-9.93559e-05
0.00834517
-9.84305e-05
0.00839301
-9.75459e-05
0.00844045
-9.6701e-05
0.0084875
-9.58949e-05
0.00853419
-9.51265e-05
0.00858054
-9.43947e-05
0.00862656
-9.36983e-05
0.00867226
-9.30363e-05
0.00871767
-9.24073e-05
0.00876279
-9.18102e-05
0.00880765
-9.12437e-05
0.00885226
-9.07064e-05
0.00889663
-9.01971e-05
0.00894078
-8.97144e-05
0.00898471
-8.92569e-05
0.00902844
-8.88232e-05
0.00907199
-8.84119e-05
0.00911535
-8.80216e-05
0.00915854
-8.76507e-05
0.00920157
-8.72979e-05
0.00924445
-8.69615e-05
0.00928718
-8.66401e-05
0.00932977
-8.63321e-05
0.00937223
-8.60358e-05
0.00941456
-8.57497e-05
0.00945676
-8.54718e-05
0.00949884
-8.52005e-05
0.00954081
-8.49334e-05
0.00958265
-8.46683e-05
0.00962438
-8.44028e-05
0.00966599
-8.41329e-05
0.00970746
-8.38326e-05
0.00974876
-8.34454e-05
-8.31272e-05
0.00784718
-0.000171536
0.0078994
-0.000169253
0.00795098
-0.000167041
0.00800195
-0.000164901
0.00805232
-0.00016283
0.00810211
-0.00016083
0.00815135
-0.000158898
0.00820006
-0.000157036
0.00824825
-0.000155242
0.00829595
-0.000153515
0.00834318
-0.000151854
0.00838996
-0.000150259
0.0084363
-0.000148728
0.00848223
-0.000147261
0.00852776
-0.000145856
0.00857292
-0.000144512
0.00861772
-0.000143228
0.00866218
-0.000142003
0.00870631
-0.000140834
0.00875014
-0.000139722
0.00879367
-0.000138663
0.00883694
-0.000137658
0.00887994
-0.000136703
0.0089227
-0.000135797
0.00896523
-0.000134939
0.00900755
-0.000134127
0.00904967
-0.000133359
0.00909159
-0.000132634
0.00913334
-0.000131948
0.00917493
-0.000131301
0.00921636
-0.00013069
0.00925765
-0.000130114
0.00929881
-0.00012957
0.00933985
-0.000129056
0.00938077
-0.00012857
0.00942158
-0.00012811
0.00946229
-0.000127674
0.00950291
-0.00012726
0.00954344
-0.000126865
0.0095839
-0.000126488
0.00962427
-0.000126125
0.00966458
-0.000125775
0.00970481
-0.000125435
0.00974498
-0.000125101
0.00978508
-0.000124772
0.00982512
-0.000124443
0.0098651
-0.00012411
0.009905
-0.000123739
0.00994481
-0.00012325
-0.000122841
0.00830464
-0.000217952
0.00835056
-0.000215168
0.00839599
-0.000212473
0.00844095
-0.000209865
0.00848547
-0.000207346
0.00852955
-0.000204913
0.00857322
-0.000202568
0.00861649
-0.000200308
0.00865938
-0.000198134
0.00870191
-0.000196043
0.00874409
-0.000194036
0.00878594
-0.00019211
0.00882748
-0.000190266
0.00886872
-0.0001885
0.00890968
-0.000186814
0.00895037
-0.000185203
0.00899081
-0.000183668
0.00903101
-0.000182207
0.009071
-0.000180817
0.00911077
-0.000179497
0.00915035
-0.000178246
0.00918976
-0.000177061
0.00922899
-0.00017594
0.00926808
-0.000174881
0.00930702
-0.000173882
0.00934583
-0.000172942
0.00938453
-0.000172056
0.00942312
-0.000171224
0.00946162
-0.000170443
0.00950003
-0.000169711
0.00953836
-0.000169024
0.00957663
-0.000168381
0.00961484
-0.000167778
0.00965299
-0.000167214
0.00969111
-0.000166686
0.00972919
-0.00016619
0.00976724
-0.000165725
0.00980527
-0.000165288
0.00984328
-0.000164875
0.00988127
-0.000164484
0.00991926
-0.000164113
0.00995725
-0.000163758
0.00999523
-0.000163416
0.0100332
-0.000163085
0.0100712
-0.000162759
0.0101092
-0.000162438
0.0101472
-0.000162114
0.0101852
-0.000161751
0.0102232
-0.000161253
-0.000160825
0.00882802
-0.000257626
0.00886737
-0.000254516
0.0089064
-0.000251508
0.00894514
-0.000248601
0.00898359
-0.000245795
0.00902176
-0.000243089
0.00905968
-0.000240483
0.00909735
-0.000237976
0.00913478
-0.000235567
0.00917199
-0.000233255
0.009209
-0.00023104
0.0092458
-0.000228919
0.00928243
-0.000226892
0.00931889
-0.000224957
0.00935519
-0.000223112
0.00939134
-0.000221357
0.00942736
-0.000219688
0.00946326
-0.000218106
0.00949905
-0.000216606
0.00953474
-0.000215189
0.00957034
-0.000213851
0.00960587
-0.00021259
0.00964134
-0.000211404
0.00967675
-0.000210291
0.00971211
-0.000209247
0.00974744
-0.000208272
0.00978275
-0.000207361
0.00981804
-0.000206513
0.00985332
-0.000205724
0.0098886
-0.000204992
0.00992389
-0.000204314
0.00995919
-0.000203686
0.00999452
-0.000203107
0.0100299
-0.000202572
0.0100653
-0.000202079
0.0101007
-0.000201625
0.0101362
-0.000201207
0.0101717
-0.000200821
0.0102073
-0.000200464
0.010243
-0.000200134
0.0102787
-0.000199827
0.0103145
-0.00019954
0.0103503
-0.00019927
0.0103862
-0.000199013
0.0104222
-0.000198765
0.0104583
-0.000198525
0.0104945
-0.000198287
0.0105308
-0.000198015
0.0105671
-0.000197605
-0.000197235
0.00936014
0.00939382
-0.000288189
0.00942734
-0.000285034
0.00946073
-0.000281988
0.00949399
-0.000279053
0.00952712
-0.000276227
0.00956015
-0.000273509
0.00959307
-0.0002709
0.00962591
-0.000268398
0.00965865
-0.000266002
0.00969132
-0.000263711
0.00972393
-0.000261525
0.00975648
-0.000259441
0.00978898
-0.000257459
0.00982145
-0.000255576
0.00985388
-0.000253792
0.0098863
-0.000252104
0.0099187
-0.00025051
0.0099511
-0.000249008
0.00998351
-0.000247597
0.0100159
-0.000246274
0.0100484
-0.000245036
0.0100809
-0.000243882
0.0101134
-0.000242808
0.0101459
-0.000241812
0.0101786
-0.000240891
0.0102112
-0.000240042
0.010244
-0.000239262
0.0102768
-0.000238549
0.0103097
-0.000237899
0.0103427
-0.000237308
0.0103758
-0.000236775
0.010409
-0.000236295
0.0104423
-0.000235864
0.0104757
-0.000235481
0.0105092
-0.000235141
0.0105428
-0.000234841
0.0105766
-0.000234577
0.0106105
-0.000234346
0.0106445
-0.000234145
0.0106786
-0.00023397
0.0107129
-0.000233819
0.0107473
-0.000233686
0.0107819
-0.000233571
0.0108166
-0.000233468
0.0108514
-0.000233376
0.0108864
-0.000233292
0.0109216
-0.000233183
0.0109569
-0.000232945
-0.000232708
0.00987644
-0.000318104
0.00990635
-0.000314944
0.00993626
-0.000311899
0.00996617
-0.000308968
0.0099961
-0.000306151
0.010026
-0.000303449
0.010056
-0.00030086
0.010086
-0.000298384
0.010116
-0.00029602
0.0101461
-0.000293768
0.0101762
-0.000291625
0.0102063
-0.000289592
0.0102365
-0.000287666
0.0102668
-0.000285846
0.0102971
-0.000284131
0.0103275
-0.000282517
0.010358
-0.000281005
0.0103886
-0.000279591
0.0104193
-0.000278274
0.0104501
-0.00027705
0.010481
-0.000275919
0.0105119
-0.000274876
0.0105431
-0.000273919
0.0105743
-0.000273046
0.0106057
-0.000272254
0.0106372
-0.000271539
0.0106688
-0.000270899
0.0107006
-0.00027033
0.0107325
-0.000269829
0.0107646
-0.000269392
0.0107968
-0.000269016
0.0108292
-0.000268698
0.0108618
-0.000268434
0.0108945
-0.00026822
0.0109275
-0.000268053
0.0109605
-0.000267929
0.0109938
-0.000267844
0.0110273
-0.000267795
0.0110609
-0.000267778
0.0110947
-0.00026779
0.0111287
-0.000267827
0.0111629
-0.000267886
0.0111973
-0.000267963
0.0112319
-0.000268057
0.0112667
-0.000268164
0.0113017
-0.000268282
0.0113369
-0.000268388
0.0113723
-0.000268381
-0.000268328
0.0102705
0.0102994
-0.00034388
0.0103284
-0.000340935
0.0103576
-0.000338107
0.0103868
-0.000335395
0.0104162
-0.0003328
0.0104456
-0.000330322
0.0104752
-0.000327959
0.0105049
-0.000325712
0.0105347
-0.00032358
0.0105646
-0.000321561
0.0105947
-0.000319655
0.0106249
-0.00031786
0.0106552
-0.000316176
0.0106857
-0.0003146
0.0107163
-0.00031313
0.0107471
-0.000311765
0.010778
-0.000310503
0.010809
-0.000309342
0.0108403
-0.000308279
0.0108717
-0.000307312
0.0109032
-0.000306438
0.010935
-0.000305654
0.0109669
-0.000304958
0.010999
-0.000304347
0.0110312
-0.000303816
0.0110637
-0.000303364
0.0110964
-0.000302987
0.0111292
-0.000302681
0.0111623
-0.000302443
0.0111955
-0.000302269
0.011229
-0.000302156
0.0112626
-0.000302099
0.0112965
-0.000302096
0.0113306
-0.000302141
0.0113649
-0.000302231
0.0113994
-0.000302363
0.0114342
-0.000302533
0.0114691
-0.000302736
0.0115043
-0.000302969
0.0115397
-0.000303229
0.0115753
-0.000303511
0.0116112
-0.000303814
0.0116473
-0.000304133
0.0116836
-0.000304466
0.0117201
-0.000304811
0.0117569
-0.00030515
0.0117939
-0.000305392
-0.000305529
0.0133185
-0.000343283
0.0133183
-0.000340681
0.0133183
-0.000338187
0.0133188
-0.000335804
0.0133195
-0.000333531
0.0133205
-0.000331368
0.0133219
-0.000329316
0.0133235
-0.000327373
0.0133255
-0.00032554
0.0133278
-0.000323816
0.0133303
-0.0003222
0.0133331
-0.00032069
0.0133362
-0.000319287
0.0133396
-0.000317987
0.0133433
-0.000316791
0.0133472
-0.000315695
0.0133514
-0.000314699
0.0133559
-0.0003138
0.0133606
-0.000312996
0.0133656
-0.000312284
0.0133708
-0.000311663
0.0133763
-0.000311129
0.013382
-0.00031068
0.013388
-0.000310312
0.0133942
-0.000310024
0.0134006
-0.000309811
0.0134073
-0.00030967
0.0134142
-0.000309598
0.0134214
-0.000309592
0.0134287
-0.000309648
0.0134363
-0.000309762
0.0134442
-0.000309931
0.0134522
-0.00031015
0.0134605
-0.000310417
0.013469
-0.000310727
0.0134777
-0.000311076
0.0134866
-0.000311461
0.0134958
-0.000311878
0.0135051
-0.000312323
0.0135147
-0.000312792
0.0135245
-0.000313282
0.0135344
-0.000313789
0.0135446
-0.000314311
0.013555
-0.000314844
0.0135656
-0.000315384
0.0135763
-0.000315915
0.0135873
-0.000316358
-0.000316683
0.0141492
-0.000334617
0.0141409
-0.000332418
0.014133
-0.000330319
0.0141256
-0.00032832
0.0141184
-0.000326423
0.0141117
-0.000324627
0.0141053
-0.000322933
0.0140993
-0.000321341
0.0140936
-0.000319852
0.0140883
-0.000318463
0.0140832
-0.000317176
0.0140785
-0.000315989
0.0140741
-0.000314901
0.0140701
-0.000313911
0.0140663
-0.000313018
0.0140628
-0.000312221
0.0140596
-0.000311517
0.0140567
-0.000310905
0.0140541
-0.000310382
0.0140518
-0.000309948
0.0140497
-0.000309599
0.0140479
-0.000309333
0.0140464
-0.000309147
0.0140451
-0.000309038
0.0140441
-0.000309005
0.0140433
-0.000309043
0.0140428
-0.00030915
0.0140425
-0.000309322
0.0140425
-0.000309556
0.0140427
-0.000309849
0.0140431
-0.000310197
0.0140438
-0.000310597
0.0140447
-0.000311045
0.0140458
-0.000311537
0.0140472
-0.00031207
0.0140487
-0.000312639
0.0140505
-0.000313242
0.0140525
-0.000313875
0.0140547
-0.000314533
0.0140571
-0.000315213
0.0140598
-0.000315912
0.0140626
-0.000316625
0.0140656
-0.00031735
0.0140689
-0.000318083
0.0140723
-0.00031882
0.0140759
-0.000319548
0.0140798
-0.000320202
-0.000320716
0.0148839
-0.000319689
0.0148694
-0.000317918
0.0148553
-0.000316235
0.0148417
-0.000314642
0.0148284
-0.00031314
0.0148155
-0.000311729
0.014803
-0.000310411
0.0147908
-0.000309185
0.014779
-0.000308052
0.0147675
-0.000307012
0.0147564
-0.000306065
0.0147457
-0.000305209
0.0147352
-0.000304446
0.0147251
-0.000303772
0.0147152
-0.000303189
0.0147057
-0.000302694
0.0146965
-0.000302285
0.0146875
-0.000301962
0.0146789
-0.000301723
0.0146705
-0.000301565
0.0146624
-0.000301487
0.0146545
-0.000301486
0.0146469
-0.00030156
0.0146396
-0.000301707
0.0146325
-0.000301923
0.0146257
-0.000302206
0.0146191
-0.000302554
0.0146127
-0.000302963
0.0146066
-0.000303429
0.0146007
-0.000303951
0.014595
-0.000304524
0.0145896
-0.000305145
0.0145844
-0.000305811
0.0145793
-0.000306518
0.0145745
-0.000307263
0.0145699
-0.000308042
0.0145655
-0.000308852
0.0145614
-0.000309689
0.0145574
-0.000310549
0.0145536
-0.000311429
0.01455
-0.000312326
0.0145466
-0.000313235
0.0145434
-0.000314153
0.0145404
-0.000315077
0.0145376
-0.000316003
0.014535
-0.000316921
0.0145325
-0.000317778
-0.00031848
0.0155081
-0.000300368
0.0154892
-0.000299013
0.0154706
-0.000297734
0.0154525
-0.000296533
0.0154348
-0.000295413
0.0154175
-0.000294374
0.0154005
-0.000293416
0.0153838
-0.000292542
0.0153675
-0.000291752
0.0153516
-0.000291045
0.0153359
-0.000290422
0.0153206
-0.000289882
0.0153056
-0.000289426
0.0152908
-0.000289052
0.0152764
-0.00028876
0.0152623
-0.000288549
0.0152484
-0.000288417
0.0152348
-0.000288364
0.0152215
-0.000288388
0.0152084
-0.000288487
0.0151956
-0.000288659
0.015183
-0.000288903
0.0151706
-0.000289215
0.0151585
-0.000289595
0.0151466
-0.000290039
0.015135
-0.000290546
0.0151235
-0.000291111
0.0151123
-0.000291734
0.0151013
-0.00029241
0.0150905
-0.000293137
0.0150799
-0.000293911
0.0150694
-0.00029473
0.0150592
-0.000295591
0.0150492
-0.000296489
0.0150394
-0.000297423
0.0150297
-0.000298388
0.0150202
-0.000299381
0.0150109
-0.000300399
0.0150018
-0.000301439
0.0149929
-0.000302497
0.0149841
-0.000303569
0.0149756
-0.000304652
0.0149671
-0.000305744
0.0149589
-0.00030684
0.0149508
-0.000307937
0.014943
-0.000309027
0.0149352
-0.00031007
-0.000310949
0.0160171
-0.000278394
0.0159955
-0.000277412
0.0159742
-0.000276496
0.0159534
-0.000275647
0.0159328
-0.000274869
0.0159126
-0.000274162
0.0158927
-0.000273527
0.0158731
-0.000272967
0.0158539
-0.00027248
0.0158349
-0.000272069
0.0158162
-0.000271732
0.0157978
-0.000271471
0.0157796
-0.000271285
0.0157618
-0.000271174
0.0157441
-0.000271137
0.0157268
-0.000271173
0.0157096
-0.000271282
0.0156927
-0.000271463
0.0156761
-0.000271713
0.0156596
-0.000272033
0.0156434
-0.000272419
0.0156273
-0.000272871
0.0156115
-0.000273387
0.0155959
-0.000273964
0.0155804
-0.000274601
0.0155652
-0.000275294
0.0155501
-0.000276042
0.0155352
-0.000276843
0.0155205
-0.000277693
0.015506
-0.00027859
0.0154916
-0.000279531
0.0154774
-0.000280513
0.0154633
-0.000281534
0.0154494
-0.00028259
0.0154357
-0.000283678
0.0154221
-0.000284796
0.0154086
-0.00028594
0.0153953
-0.000287106
0.0153822
-0.000288293
0.0153692
-0.000289496
0.0153563
-0.000290714
0.0153436
-0.000291941
0.0153311
-0.000293176
0.0153186
-0.000294416
0.0153064
-0.000295657
0.0152942
-0.000296893
0.0152822
-0.000298093
-0.000299128
0.0164152
-0.000255229
0.0163923
-0.000254559
0.0163697
-0.000253946
0.0163475
-0.000253392
0.0163255
-0.000252898
0.0163038
-0.000252467
0.0162824
-0.000252101
0.0162612
-0.000251799
0.0162403
-0.000251563
0.0162196
-0.000251395
0.0161992
-0.000251293
0.016179
-0.00025126
0.016159
-0.000251294
0.0161392
-0.000251395
0.0161197
-0.000251564
0.0161003
-0.000251799
0.0160811
-0.0002521
0.0160621
-0.000252467
0.0160433
-0.000252897
0.0160246
-0.00025339
0.0160062
-0.000253945
0.0159879
-0.000254559
0.0159697
-0.000255232
0.0159517
-0.000255962
0.0159338
-0.000256745
0.0159161
-0.000257582
0.0158986
-0.000258469
0.0158811
-0.000259404
0.0158638
-0.000260385
0.0158466
-0.000261409
0.0158296
-0.000262474
0.0158126
-0.000263577
0.0157958
-0.000264716
0.0157791
-0.000265888
0.0157625
-0.000267091
0.0157461
-0.00026832
0.0157297
-0.000269574
0.0157134
-0.00027085
0.0156973
-0.000272145
0.0156812
-0.000273456
0.0156653
-0.000274781
0.0156495
-0.000276116
0.0156338
-0.000277458
0.0156182
-0.000278806
0.0156027
-0.000280156
0.0155873
-0.000281505
0.015572
-0.000282826
-0.000283987
0.0167129
-0.000231975
0.0166898
-0.000231549
0.0166671
-0.000231172
0.0166445
-0.000230847
0.0166222
-0.000230574
0.0166001
-0.000230356
0.0165782
-0.000230195
0.0165565
-0.000230092
0.016535
-0.000230048
0.0165136
-0.000230064
0.0164925
-0.00023014
0.0164715
-0.000230277
0.0164507
-0.000230475
0.01643
-0.000230734
0.0164095
-0.000231054
0.0163891
-0.000231434
0.0163689
-0.000231875
0.0163488
-0.000232374
0.0163289
-0.000232932
0.016309
-0.000233548
0.0162893
-0.00023422
0.0162697
-0.000234947
0.0162502
-0.000235727
0.0162308
-0.000236559
0.0162115
-0.000237442
0.0161923
-0.000238373
0.0161731
-0.00023935
0.0161541
-0.000240372
0.0161352
-0.000241437
0.0161163
-0.000242542
0.0160975
-0.000243685
0.0160788
-0.000244864
0.0160601
-0.000246077
0.0160416
-0.00024732
0.0160231
-0.000248592
0.0160046
-0.00024989
0.0159863
-0.000251211
0.015968
-0.000252553
0.0159498
-0.000253914
0.0159316
-0.000255291
0.0159135
-0.000256682
0.0158955
-0.000258083
0.0158775
-0.000259493
0.0158596
-0.000260909
0.0158418
-0.00026233
0.015824
-0.000263751
0.0158063
-0.000265154
-0.000266404
0.0169247
-0.000209357
0.0169023
-0.00020911
0.01688
-0.000208905
0.0168579
-0.000208745
0.0168359
-0.000208631
0.0168141
-0.000208566
0.0167925
-0.000208551
0.016771
-0.000208588
0.0167496
-0.000208677
0.0167284
-0.00020882
0.0167073
-0.000209017
0.0166863
-0.00020927
0.0166654
-0.000209577
0.0166446
-0.00020994
0.0166239
-0.000210357
0.0166033
-0.00021083
0.0165827
-0.000211358
0.0165623
-0.00021194
0.016542
-0.000212575
0.0165217
-0.000213262
0.0165014
-0.000214001
0.0164813
-0.000214791
0.0164612
-0.00021563
0.0164412
-0.000216517
0.0164212
-0.00021745
0.0164012
-0.000218428
0.0163813
-0.00021945
0.0163615
-0.000220512
0.0163416
-0.000221615
0.0163218
-0.000222755
0.0163021
-0.000223931
0.0162824
-0.00022514
0.0162627
-0.000226381
0.016243
-0.000227652
0.0162234
-0.000228949
0.0162037
-0.000230272
0.0161842
-0.000231617
0.0161646
-0.000232983
0.016145
-0.000234368
0.0161255
-0.000235768
0.016106
-0.000237183
0.0160865
-0.000238609
0.0160671
-0.000240045
0.0160477
-0.00024149
0.0160283
-0.00024294
0.0160089
-0.000244394
0.0159896
-0.000245835
-0.000247134
0.0170668
-0.000187768
0.0170453
-0.000187643
0.0170239
-0.000187554
0.0170027
-0.000187505
0.0169816
-0.000187497
0.0169605
-0.000187532
0.0169396
-0.000187611
0.0169187
-0.000187736
0.016898
-0.000187908
0.0168773
-0.000188129
0.0168567
-0.000188398
0.0168361
-0.000188717
0.0168156
-0.000189085
0.0167952
-0.000189504
0.0167748
-0.000189972
0.0167545
-0.000190491
0.0167342
-0.00019106
0.0167139
-0.000191678
0.0166937
-0.000192344
0.0166735
-0.000193059
0.0166533
-0.000193821
0.0166331
-0.00019463
0.016613
-0.000195484
0.0165928
-0.000196381
0.0165727
-0.000197322
0.0165526
-0.000198305
0.0165325
-0.000199327
0.0165123
-0.000200388
0.0164922
-0.000201487
0.0164721
-0.00020262
0.0164519
-0.000203787
0.0164318
-0.000204986
0.0164116
-0.000206215
0.0163914
-0.000207471
0.0163712
-0.000208754
0.016351
-0.000210061
0.0163308
-0.00021139
0.0163106
-0.00021274
0.0162903
-0.000214108
0.01627
-0.000215492
0.0162497
-0.000216891
0.0162294
-0.000218303
0.0162091
-0.000219726
0.0161888
-0.000221158
0.0161684
-0.000222599
0.0161481
-0.000224045
0.0161277
-0.000225484
-0.000226792
0.0171549
-0.000167341
0.0171345
-0.000167294
0.0171142
-0.000167279
0.017094
-0.000167298
0.0170739
-0.000167352
0.0170538
-0.000167445
0.0170338
-0.000167577
0.0170138
-0.00016775
0.0169938
-0.000167965
0.0169739
-0.000168223
0.0169541
-0.000168524
0.0169342
-0.00016887
0.0169144
-0.000169261
0.0168946
-0.000169698
0.0168748
-0.000170179
0.016855
-0.000170706
0.0168352
-0.000171278
0.0168154
-0.000171894
0.0167956
-0.000172556
0.0167758
-0.000173261
0.016756
-0.000174009
0.0167362
-0.0001748
0.0167164
-0.000175632
0.0166965
-0.000176505
0.0166766
-0.000177418
0.0166566
-0.000178369
0.0166367
-0.000179357
0.0166167
-0.000180381
0.0165966
-0.000181439
0.0165765
-0.00018253
0.0165564
-0.000183653
0.0165362
-0.000184806
0.016516
-0.000185987
0.0164957
-0.000187195
0.0164754
-0.000188428
0.016455
-0.000189684
0.0164346
-0.000190962
0.0164141
-0.00019226
0.0163936
-0.000193576
0.016373
-0.000194909
0.0163523
-0.000196258
0.0163317
-0.000197619
0.0163109
-0.000198993
0.0162901
-0.000200378
0.0162693
-0.000201772
0.0162484
-0.000203174
0.0162275
-0.000204573
-0.000205852
0.0172032
-0.000148036
0.0171839
-0.000148036
0.0171647
-0.000148062
0.0171455
-0.000148118
0.0171264
-0.000148205
0.0171073
-0.000148325
0.0170882
-0.00014848
0.0170691
-0.00014867
0.01705
-0.000148899
0.017031
-0.000149165
0.0170119
-0.000149469
0.0169929
-0.000149814
0.0169738
-0.000150199
0.0169547
-0.000150624
0.0169356
-0.00015109
0.0169165
-0.000151596
0.0168974
-0.000152143
0.0168782
-0.000152731
0.016859
-0.000153358
0.0168398
-0.000154026
0.0168205
-0.000154732
0.0168012
-0.000155478
0.0167818
-0.000156261
0.0167624
-0.000157081
0.0167429
-0.000157938
0.0167234
-0.000158829
0.0167038
-0.000159755
0.0166841
-0.000160714
0.0166644
-0.000161704
0.0166446
-0.000162726
0.0166247
-0.000163776
0.0166047
-0.000164855
0.0165847
-0.00016596
0.0165646
-0.000167091
0.0165444
-0.000168245
0.0165242
-0.000169422
0.0165038
-0.00017062
0.0164834
-0.000171837
0.0164629
-0.000173073
0.0164423
-0.000174325
0.0164217
-0.000175592
0.0164009
-0.000176874
0.0163801
-0.000178168
0.0163592
-0.000179474
0.0163382
-0.000180791
0.0163171
-0.000182116
0.016296
-0.000183441
-0.00018466
0.0172238
-0.000129715
0.0172055
-0.000129739
0.0171872
-0.000129785
0.0171689
-0.000129857
0.0171507
-0.000129956
0.0171325
-0.000130083
0.0171142
-0.000130241
0.017096
-0.000130429
0.0170777
-0.000130651
0.0170595
-0.000130905
0.0170412
-0.000131194
0.0170229
-0.000131517
0.0170046
-0.000131876
0.0169862
-0.000132271
0.0169678
-0.000132702
0.0169494
-0.000133169
0.0169309
-0.000133671
0.0169124
-0.000134211
0.0168938
-0.000134785
0.0168752
-0.000135396
0.0168565
-0.000136041
0.0168378
-0.000136721
0.0168189
-0.000137436
0.0168
-0.000138183
0.0167811
-0.000138964
0.016762
-0.000139776
0.0167429
-0.000140619
0.0167237
-0.000141493
0.0167043
-0.000142395
0.0166849
-0.000143326
0.0166655
-0.000144284
0.0166459
-0.000145267
0.0166262
-0.000146275
0.0166064
-0.000147307
0.0165865
-0.000148361
0.0165665
-0.000149437
0.0165464
-0.000150532
0.0165262
-0.000151646
0.016506
-0.000152777
0.0164856
-0.000153925
0.0164651
-0.000155088
0.0164444
-0.000156265
0.0164237
-0.000157455
0.0164029
-0.000158657
0.016382
-0.000159871
0.016361
-0.000161093
0.0163398
-0.000162318
-0.000163447
0.0172262
-0.000112198
0.0172087
-0.000112233
0.0171912
-0.000112286
0.0171737
-0.000112361
0.0171562
-0.000112459
0.0171387
-0.000112581
0.0171212
-0.000112728
0.0171036
-0.000112903
0.0170861
-0.000113105
0.0170685
-0.000113336
0.0170509
-0.000113596
0.0170333
-0.000113887
0.0170156
-0.000114208
0.0169979
-0.000114561
0.0169802
-0.000114944
0.0169623
-0.000115359
0.0169445
-0.000115806
0.0169266
-0.000116285
0.0169086
-0.000116795
0.0168905
-0.000117336
0.0168724
-0.000117908
0.0168542
-0.00011851
0.0168359
-0.000119143
0.0168175
-0.000119806
0.016799
-0.000120497
0.0167805
-0.000121217
0.0167618
-0.000121965
0.0167431
-0.00012274
0.0167242
-0.00012354
0.0167052
-0.000124366
0.0166862
-0.000125217
0.016667
-0.00012609
0.0166477
-0.000126987
0.0166283
-0.000127905
0.0166088
-0.000128843
0.0165892
-0.000129801
0.0165694
-0.000130778
0.0165495
-0.000131772
0.0165295
-0.000132782
0.0165094
-0.000133808
0.0164892
-0.000134849
0.0164688
-0.000135903
0.0164483
-0.000136969
0.0164277
-0.000138048
0.016407
-0.000139138
0.0163861
-0.000140238
0.0163651
-0.000141339
-0.000142358
0.0172177
-9.53051e-05
0.0172008
-9.53426e-05
0.0171839
-9.53958e-05
0.017167
-9.54662e-05
0.0171501
-9.55554e-05
0.0171332
-9.56647e-05
0.0171162
-9.57955e-05
0.0170993
-9.59486e-05
0.0170823
-9.61251e-05
0.0170653
-9.63259e-05
0.0170483
-9.65516e-05
0.0170312
-9.68028e-05
0.017014
-9.708e-05
0.0169969
-9.73837e-05
0.0169796
-9.7714e-05
0.0169624
-9.80713e-05
0.016945
-9.84556e-05
0.0169276
-9.8867e-05
0.0169101
-9.93054e-05
0.0168925
-9.97706e-05
0.0168749
-0.000100263
0.0168572
-0.000100781
0.0168393
-0.000101325
0.0168214
-0.000101895
0.0168034
-0.00010249
0.0167853
-0.00010311
0.0167671
-0.000103755
0.0167488
-0.000104422
0.0167304
-0.000105113
0.0167118
-0.000105825
0.0166932
-0.00010656
0.0166744
-0.000107315
0.0166555
-0.00010809
0.0166365
-0.000108884
0.0166173
-0.000109696
0.016598
-0.000110527
0.0165786
-0.000111373
0.0165591
-0.000112236
0.0165394
-0.000113114
0.0165196
-0.000114006
0.0164997
-0.000114911
0.0164796
-0.000115829
0.0164594
-0.000116759
0.0164391
-0.0001177
0.0164186
-0.000118651
0.0163979
-0.000119612
0.0163772
-0.000120575
-0.000121467
0.0172036
-7.88769e-05
0.0171872
-7.89124e-05
0.0171708
-7.89605e-05
0.0171543
-7.90222e-05
0.0171379
-7.9099e-05
0.0171214
-7.91923e-05
0.0171049
-7.93026e-05
0.0170884
-7.94313e-05
0.0170718
-7.95791e-05
0.0170553
-7.97466e-05
0.0170386
-7.99348e-05
0.017022
-8.01436e-05
0.0170053
-8.03743e-05
0.0169885
-8.06263e-05
0.0169717
-8.09008e-05
0.0169548
-8.11976e-05
0.0169379
-8.15166e-05
0.0169209
-8.18583e-05
0.0169038
-8.22222e-05
0.0168866
-8.26089e-05
0.0168694
-8.30178e-05
0.0168521
-8.34486e-05
0.0168346
-8.39013e-05
0.0168171
-8.43755e-05
0.0167995
-8.48712e-05
0.0167818
-8.53876e-05
0.0167639
-8.59242e-05
0.016746
-8.64811e-05
0.016728
-8.70569e-05
0.0167098
-8.76521e-05
0.0166915
-8.82654e-05
0.0166731
-8.88965e-05
0.0166545
-8.95447e-05
0.0166358
-9.02093e-05
0.016617
-9.089e-05
0.0165981
-9.15859e-05
0.016579
-9.22959e-05
0.0165598
-9.30203e-05
0.0165405
-9.37574e-05
0.016521
-9.45074e-05
0.0165013
-9.52691e-05
0.0164815
-9.60418e-05
0.0164616
-9.68254e-05
0.0164415
-9.76186e-05
0.0164213
-9.84215e-05
0.0164009
-9.92325e-05
0.0163804
-0.000100047
-0.000100801
0.0171878
-6.27815e-05
0.0171717
-6.28125e-05
0.0171556
-6.28528e-05
0.0171395
-6.29038e-05
0.0171234
-6.29664e-05
0.0171072
-6.30416e-05
0.017091
-6.31302e-05
0.0170749
-6.32332e-05
0.0170586
-6.33511e-05
0.0170424
-6.34845e-05
0.0170261
-6.36341e-05
0.0170097
-6.38003e-05
0.0169933
-6.39834e-05
0.0169769
-6.41839e-05
0.0169604
-6.44018e-05
0.0169438
-6.46375e-05
0.0169272
-6.48911e-05
0.0169105
-6.51625e-05
0.0168937
-6.5452e-05
0.0168769
-6.57594e-05
0.0168599
-6.60846e-05
0.0168429
-6.64275e-05
0.0168258
-6.6788e-05
0.0168086
-6.71658e-05
0.0167913
-6.75607e-05
0.0167739
-6.79724e-05
0.0167564
-6.84006e-05
0.0167387
-6.88449e-05
0.016721
-6.9305e-05
0.0167031
-6.97804e-05
0.0166851
-7.02708e-05
0.016667
-7.07757e-05
0.0166487
-7.12946e-05
0.0166303
-7.1827e-05
0.0166118
-7.23725e-05
0.0165932
-7.29305e-05
0.0165744
-7.35005e-05
0.0165554
-7.40819e-05
0.0165364
-7.46744e-05
0.0165171
-7.52773e-05
0.0164977
-7.58901e-05
0.0164782
-7.65122e-05
0.0164585
-7.71433e-05
0.0164387
-7.77828e-05
0.0164187
-7.84301e-05
0.0163986
-7.90845e-05
0.0163783
-7.97416e-05
-8.03509e-05
0.0171729
-4.69163e-05
0.017157
-4.69407e-05
0.0171411
-4.69721e-05
0.0171252
-4.70112e-05
0.0171093
-4.70584e-05
0.0170934
-4.71149e-05
0.0170774
-4.71816e-05
0.0170614
-4.72585e-05
0.0170454
-4.73464e-05
0.0170294
-4.74458e-05
0.0170133
-4.75573e-05
0.0169972
-4.76811e-05
0.016981
-4.78173e-05
0.0169648
-4.79663e-05
0.0169486
-4.81287e-05
0.0169322
-4.8304e-05
0.0169158
-4.84927e-05
0.0168994
-4.86949e-05
0.0168828
-4.89104e-05
0.0168662
-4.91394e-05
0.0168495
-4.93818e-05
0.0168327
-4.96373e-05
0.0168158
-4.99063e-05
0.0167988
-5.01883e-05
0.0167818
-5.04829e-05
0.0167646
-5.07903e-05
0.0167473
-5.11104e-05
0.0167299
-5.14423e-05
0.0167124
-5.17866e-05
0.0166947
-5.2142e-05
0.016677
-5.25092e-05
0.0166591
-5.28874e-05
0.0166411
-5.32761e-05
0.0166229
-5.36751e-05
0.0166046
-5.40844e-05
0.0165862
-5.4503e-05
0.0165676
-5.4931e-05
0.0165489
-5.53677e-05
0.0165301
-5.58129e-05
0.016511
-5.62664e-05
0.0164919
-5.67273e-05
0.0164726
-5.71955e-05
0.0164531
-5.76706e-05
0.0164335
-5.81524e-05
0.0164137
-5.86402e-05
0.0163937
-5.91335e-05
0.0163736
-5.96289e-05
-6.00894e-05
0.0171604
-3.12025e-05
0.0171447
-3.12195e-05
0.017129
-3.12408e-05
0.0171132
-3.12671e-05
0.0170975
-3.12989e-05
0.0170817
-3.13366e-05
0.0170659
-3.13809e-05
0.0170501
-3.1432e-05
0.0170342
-3.14904e-05
0.0170183
-3.15563e-05
0.0170024
-3.16301e-05
0.0169864
-3.1712e-05
0.0169704
-3.18023e-05
0.0169543
-3.1901e-05
0.0169382
-3.20084e-05
0.016922
-3.21245e-05
0.0169058
-3.22495e-05
0.0168895
-3.23834e-05
0.0168731
-3.25263e-05
0.0168566
-3.2678e-05
0.0168401
-3.28387e-05
0.0168235
-3.30083e-05
0.0168067
-3.31866e-05
0.0167899
-3.33737e-05
0.016773
-3.35694e-05
0.016756
-3.37735e-05
0.0167389
-3.3986e-05
0.0167216
-3.42067e-05
0.0167043
-3.44354e-05
0.0166868
-3.46719e-05
0.0166692
-3.49161e-05
0.0166515
-3.51677e-05
0.0166337
-3.54265e-05
0.0166157
-3.56923e-05
0.0165975
-3.59648e-05
0.0165793
-3.62438e-05
0.0165609
-3.65291e-05
0.0165423
-3.68204e-05
0.0165236
-3.71174e-05
0.0165048
-3.74199e-05
0.0164858
-3.77276e-05
0.0164666
-3.80403e-05
0.0164473
-3.83576e-05
0.0164279
-3.86793e-05
0.0164082
-3.90051e-05
0.0163884
-3.93348e-05
0.0163685
-3.96664e-05
-3.99757e-05
0.0171516
-1.55801e-05
0.017136
-1.55886e-05
0.0171203
-1.55994e-05
0.0171047
-1.56125e-05
0.017089
-1.56286e-05
0.0170733
-1.56474e-05
0.0170576
-1.56697e-05
0.0170419
-1.5695e-05
0.0170261
-1.57241e-05
0.0170103
-1.5757e-05
0.0169945
-1.57937e-05
0.0169786
-1.58345e-05
0.0169627
-1.58793e-05
0.0169467
-1.59285e-05
0.0169307
-1.5982e-05
0.0169146
-1.60398e-05
0.0168984
-1.61022e-05
0.0168822
-1.61687e-05
0.0168659
-1.62397e-05
0.0168496
-1.63156e-05
0.0168331
-1.63955e-05
0.0168166
-1.648e-05
0.0168
-1.65687e-05
0.0167833
-1.66621e-05