/*--------------------------------*- C++ -*----------------------------------*\
  =========                 |
  \\      /  F ield         | OpenFOAM: The Open Source CFD Toolbox
   \\    /   O peration     | Website:  https://openfoam.org
    \\  /    A nd           | Version:  7
     \\/     M anipulation  |
\*---------------------------------------------------------------------------*/
FoamFile
{
    version     2.0;
    format      ascii;
    class       volScalarField;
    location    "10";
    object      p;
}
// * * * * * * * * * * * * * * * * * * * * * * * * * * * * * * * * * * * * * //

dimensions      [0 2 -2 0 0 0 0];

internalField   nonuniform List<scalar> 
1360
(
-0.146301
-0.141618
-0.137059
-0.132624
-0.128311
-0.124119
-0.120044
-0.116086
-0.112241
-0.108507
-0.10488
-0.101358
-0.097937
-0.0946144
-0.0913867
-0.0882508
-0.0852035
-0.0822417
-0.0793623
-0.0765624
-0.073839
-0.0711893
-0.0686108
-0.0661009
-0.0636571
-0.0612771
-0.0589589
-0.0567004
-0.0544997
-0.052355
-0.0502647
-0.0482274
-0.0462416
-0.044306
-0.0424196
-0.0405811
-0.0387898
-0.0370446
-0.0353449
-0.0336897
-0.0320786
-0.0305108
-0.0289859
-0.0275032
-0.0260623
-0.0246628
-0.0233042
-0.0219861
-0.020708
-0.0194697
-0.147174
-0.142473
-0.137899
-0.133448
-0.129121
-0.124915
-0.120828
-0.116857
-0.113001
-0.109255
-0.105618
-0.102085
-0.098655
-0.0953232
-0.0920867
-0.0889424
-0.085887
-0.0829173
-0.0800304
-0.0772231
-0.0744925
-0.0718358
-0.0692503
-0.0667335
-0.0642829
-0.0618962
-0.0595712
-0.0573059
-0.0550984
-0.0529468
-0.0508496
-0.0488052
-0.0468123
-0.0448695
-0.0429757
-0.0411298
-0.0393309
-0.037578
-0.0358704
-0.0342074
-0.0325882
-0.0310123
-0.0294792
-0.0279882
-0.0265389
-0.0251309
-0.0237638
-0.0224371
-0.0211505
-0.0199035
-0.148831
-0.144101
-0.139498
-0.135021
-0.130669
-0.126438
-0.122328
-0.118335
-0.114457
-0.110691
-0.107034
-0.103483
-0.100034
-0.0966846
-0.0934312
-0.0902706
-0.0871995
-0.0842145
-0.0813127
-0.0784909
-0.0757461
-0.0730755
-0.0704763
-0.067946
-0.0654819
-0.0630819
-0.0607435
-0.0584649
-0.056244
-0.0540789
-0.0519682
-0.0499101
-0.0479033
-0.0459465
-0.0440385
-0.0421783
-0.0403648
-0.0385972
-0.0368747
-0.0351965
-0.0335621
-0.0319707
-0.0304219
-0.0289151
-0.0274499
-0.0260259
-0.0246426
-0.0232997
-0.0219968
-0.0207334
-0.0195093
-0.146356
-0.14172
-0.137211
-0.132827
-0.128567
-0.124427
-0.120406
-0.1165
-0.112707
-0.109024
-0.105447
-0.101973
-0.0985999
-0.0953229
-0.0921392
-0.0890455
-0.0860385
-0.0831151
-0.0802722
-0.0775067
-0.0748157
-0.0721964
-0.0696461
-0.0671624
-0.0647428
-0.062385
-0.0600869
-0.0578465
-0.055662
-0.0535317
-0.051454
-0.0494274
-0.0474507
-0.0455226
-0.0436421
-0.0418081
-0.0400198
-0.0382763
-0.0365771
-0.0349213
-0.0333084
-0.0317378
-0.0302092
-0.028722
-0.0272758
-0.0258702
-0.0245049
-0.0231794
-0.0218935
-0.0206467
-0.149059
-0.144394
-0.139856
-0.135443
-0.131153
-0.126984
-0.122934
-0.118998
-0.115176
-0.111463
-0.107857
-0.104355
-0.100952
-0.0976464
-0.0944344
-0.0913126
-0.088278
-0.0853273
-0.0824574
-0.0796652
-0.0769479
-0.0743026
-0.0717266
-0.0692173
-0.0667724
-0.0643895
-0.0620663
-0.0598011
-0.0575917
-0.0554366
-0.053334
-0.0512825
-0.0492808
-0.0473277
-0.0454219
-0.0435626
-0.0417488
-0.0399797
-0.0382546
-0.0365729
-0.0349338
-0.033337
-0.0317819
-0.0302681
-0.0287952
-0.0273628
-0.0259706
-0.0246181
-0.0233051
-0.0220313
-0.147285
-0.142732
-0.138302
-0.133993
-0.129802
-0.125729
-0.121769
-0.11792
-0.114181
-0.110546
-0.107015
-0.103583
-0.100247
-0.0970047
-0.0938525
-0.0907873
-0.0878061
-0.0849057
-0.0820831
-0.0793356
-0.0766603
-0.0740545
-0.0715157
-0.0690414
-0.0666292
-0.0642772
-0.061983
-0.059745
-0.0575613
-0.0554302
-0.0533503
-0.0513202
-0.0493386
-0.0474044
-0.0455166
-0.0436742
-0.0418765
-0.0401227
-0.038412
-0.0367441
-0.0351182
-0.0335339
-0.0319908
-0.0304885
-0.0290266
-0.0276048
-0.0262228
-0.0248801
-0.0235766
-0.145865
-0.141421
-0.137095
-0.132885
-0.128789
-0.124805
-0.120929
-0.117161
-0.113496
-0.109933
-0.106468
-0.103099
-0.099822
-0.0966349
-0.0935345
-0.0905178
-0.0875819
-0.0847239
-0.081941
-0.0792305
-0.0765897
-0.0740162
-0.0715075
-0.0690613
-0.0666755
-0.0643479
-0.0620767
-0.0598601
-0.0576964
-0.0555841
-0.0535218
-0.0515082
-0.0495421
-0.0476226
-0.0457485
-0.0439191
-0.0421337
-0.0403915
-0.0386919
-0.0370345
-0.0354186
-0.0338439
-0.0323099
-0.0308163
-0.0293628
-0.027949
-0.0265746
-0.0252394
-0.0239428
-0.144674
-0.140381
-0.136193
-0.13211
-0.12813
-0.124253
-0.120475
-0.116796
-0.113213
-0.109723
-0.106326
-0.103017
-0.0997956
-0.0966583
-0.0936028
-0.0906267
-0.0877272
-0.084902
-0.0821486
-0.0794646
-0.0768477
-0.0742955
-0.0718059
-0.0693769
-0.0670065
-0.0646929
-0.0624342
-0.0602289
-0.0580755
-0.0559725
-0.0539187
-0.0519128
-0.0499539
-0.0480409
-0.046173
-0.0443494
-0.0425693
-0.0408322
-0.0391374
-0.0374845
-0.0358729
-0.0343023
-0.0327722
-0.0312824
-0.0298324
-0.028422
-0.0270508
-0.0257186
-0.141089
-0.136988
-0.132986
-0.129081
-0.125272
-0.121558
-0.117938
-0.114408
-0.110968
-0.107616
-0.104349
-0.101165
-0.0980626
-0.0950383
-0.0920903
-0.089216
-0.0864133
-0.0836797
-0.0810131
-0.078411
-0.0758715
-0.0733924
-0.0709718
-0.0686078
-0.0662985
-0.0640424
-0.0618378
-0.0596834
-0.0575778
-0.0555198
-0.0535082
-0.0515421
-0.0496205
-0.0477427
-0.0459079
-0.0441155
-0.0423649
-0.0406557
-0.0389874
-0.0373596
-0.0357719
-0.0342241
-0.0327158
-0.0312469
-0.0298169
-0.0284258
-0.0270732
-0.0257588
-0.137927
-0.13414
-0.130429
-0.126797
-0.123241
-0.119763
-0.116361
-0.113036
-0.109785
-0.106608
-0.103504
-0.100471
-0.0975081
-0.0946131
-0.0917847
-0.0890213
-0.086321
-0.0836823
-0.0811035
-0.0785827
-0.0761186
-0.0737093
-0.0713534
-0.0690495
-0.0667961
-0.0645919
-0.0624356
-0.0603261
-0.0582624
-0.0562433
-0.0542681
-0.0523359
-0.0504459
-0.0485976
-0.0467901
-0.0450232
-0.0432962
-0.0416087
-0.0399605
-0.0383511
-0.0367803
-0.0352477
-0.0337532
-0.0322965
-0.0308774
-0.0294956
-0.0281509
-0.0268431
-0.13494
-0.131445
-0.128008
-0.124631
-0.121314
-0.118057
-0.114863
-0.11173
-0.108658
-0.105648
-0.102699
-0.0998099
-0.0969803
-0.0942094
-0.091496
-0.0888392
-0.0862378
-0.0836908
-0.0811969
-0.0787549
-0.0763637
-0.0740221
-0.0717289
-0.0694831
-0.0672836
-0.0651294
-0.0630195
-0.060953
-0.0589292
-0.0569471
-0.0550062
-0.0531057
-0.051245
-0.0494238
-0.0476414
-0.0458974
-0.0441915
-0.0425234
-0.0408927
-0.0392993
-0.0377428
-0.036223
-0.0347398
-0.033293
-0.0318824
-0.0305078
-0.029169
-0.0278658
-0.13148
-0.128296
-0.12515
-0.122045
-0.118982
-0.115964
-0.112992
-0.110066
-0.107189
-0.104359
-0.101578
-0.0988455
-0.0961617
-0.0935263
-0.090939
-0.0883994
-0.085907
-0.0834611
-0.0810612
-0.0787066
-0.0763966
-0.0741304
-0.0719073
-0.0697266
-0.0675877
-0.0654898
-0.0634322
-0.0614145
-0.0594359
-0.0574959
-0.0555941
-0.05373
-0.0519032
-0.0501133
-0.04836
-0.046643
-0.044962
-0.0433168
-0.0417071
-0.040133
-0.038594
-0.0370902
-0.0356214
-0.0341873
-0.032788
-0.0314233
-0.0300929
-0.0287969
-0.127754
-0.124881
-0.122028
-0.119197
-0.116393
-0.113616
-0.110871
-0.108158
-0.105478
-0.102835
-0.100227
-0.0976568
-0.0951244
-0.0926303
-0.0901748
-0.0877581
-0.0853802
-0.0830411
-0.0807407
-0.0784787
-0.076255
-0.0740693
-0.0719211
-0.0698103
-0.0677365
-0.0656992
-0.0636982
-0.0617332
-0.0598038
-0.0579097
-0.0560507
-0.0542265
-0.0524368
-0.0506815
-0.0489603
-0.0472731
-0.0456198
-0.0440003
-0.0424143
-0.040862
-0.039343
-0.0378575
-0.0364052
-0.0349862
-0.0336003
-0.0322475
-0.0309276
-0.0296405
-0.123919
-0.121347
-0.118778
-0.116216
-0.113664
-0.111126
-0.108604
-0.106101
-0.103619
-0.10116
-0.0987265
-0.096319
-0.0939391
-0.0915877
-0.0892657
-0.0869738
-0.0847127
-0.0824827
-0.0802842
-0.0781175
-0.0759827
-0.0738801
-0.0718096
-0.0697712
-0.0677651
-0.0657911
-0.0638493
-0.0619394
-0.0600616
-0.0582157
-0.0564017
-0.0546195
-0.052869
-0.0511503
-0.0494632
-0.0478078
-0.046184
-0.0445918
-0.0430312
-0.0415023
-0.0400049
-0.0385391
-0.0371049
-0.0357023
-0.0343312
-0.0329916
-0.0316835
-0.0304067
-0.120089
-0.117802
-0.115503
-0.113197
-0.110886
-0.108576
-0.10627
-0.10397
-0.10168
-0.0994022
-0.0971382
-0.0948904
-0.0926604
-0.0904497
-0.0882599
-0.086092
-0.083947
-0.0818259
-0.0797295
-0.0776583
-0.075613
-0.0735942
-0.0716021
-0.0696372
-0.0676998
-0.0657901
-0.0639085
-0.062055
-0.0602299
-0.0584334
-0.0566655
-0.0549265
-0.0532164
-0.0515353
-0.0498834
-0.0482608
-0.0466676
-0.0451038
-0.0435696
-0.042065
-0.0405902
-0.0391451
-0.0377299
-0.0363446
-0.0349892
-0.0336638
-0.0323683
-0.0311027
-0.116357
-0.114335
-0.112288
-0.110221
-0.108137
-0.106043
-0.10394
-0.101834
-0.0997258
-0.0976199
-0.0955185
-0.093424
-0.0913385
-0.089264
-0.0872022
-0.0851548
-0.083123
-0.0811084
-0.0791118
-0.0771345
-0.0751774
-0.0732411
-0.0713266
-0.0694345
-0.0675653
-0.0657196
-0.0638979
-0.0621007
-0.0603283
-0.0585811
-0.0568595
-0.0551638
-0.0534942
-0.051851
-0.0502346
-0.048645
-0.0470826
-0.0455475
-0.04404
-0.0425602
-0.0411082
-0.0396843
-0.0382885
-0.0369209
-0.0355817
-0.0342708
-0.0329884
-0.0317345
-0.112792
-0.111012
-0.109196
-0.107349
-0.105476
-0.103581
-0.101668
-0.0997416
-0.0978048
-0.0958607
-0.0939125
-0.0919629
-0.0900143
-0.0880691
-0.0861293
-0.0841969
-0.0822736
-0.0803611
-0.0784607
-0.0765739
-0.0747018
-0.0728457
-0.0710064
-0.0691849
-0.0673822
-0.0655989
-0.0638358
-0.0620935
-0.0603727
-0.058674
-0.0569978
-0.0553446
-0.0537149
-0.0521091
-0.0505276
-0.0489707
-0.0474387
-0.0459321
-0.044451
-0.0429957
-0.0415665
-0.0401635
-0.038787
-0.0374372
-0.0361141
-0.0348179
-0.0335488
-0.0323067
-0.109443
-0.107881
-0.106275
-0.104628
-0.102946
-0.101234
-0.0994957
-0.097735
-0.0959559
-0.0941618
-0.0923558
-0.0905411
-0.0887203
-0.0868961
-0.0850708
-0.0832465
-0.0814254
-0.0796094
-0.0778
-0.075999
-0.0742078
-0.0724279
-0.0706603
-0.0689064
-0.0671672
-0.0654437
-0.0637369
-0.0620475
-0.0603763
-0.0587242
-0.0570918
-0.0554797
-0.0538886
-0.0523189
-0.0507711
-0.0492459
-0.0477435
-0.0462644
-0.044809
-0.0433776
-0.0419705
-0.040588
-0.0392304
-0.0378979
-0.0365907
-0.035309
-0.0340528
-0.0328224
-0.106343
-0.104977
-0.103558
-0.102091
-0.100582
-0.099035
-0.0974545
-0.0958447
-0.0942093
-0.0925521
-0.0908765
-0.0891856
-0.0874825
-0.0857699
-0.0840504
-0.0823264
-0.0806001
-0.0788738
-0.0771493
-0.0754284
-0.0737129
-0.0720044
-0.0703042
-0.0686138
-0.0669344
-0.0652673
-0.0636135
-0.061974
-0.0603498
-0.0587419
-0.057151
-0.0555779
-0.0540233
-0.0524879
-0.0509724
-0.0494772
-0.048003
-0.0465502
-0.0451193
-0.0437107
-0.0423248
-0.0409619
-0.0396224
-0.0383065
-0.0370146
-0.0357467
-0.0345032
-0.0332842
-0.103516
-0.102322
-0.10107
-0.099763
-0.0984076
-0.0970081
-0.095569
-0.0940944
-0.0925883
-0.0910546
-0.0894967
-0.087918
-0.0863216
-0.0847105
-0.0830874
-0.0814549
-0.0798154
-0.0781713
-0.0765246
-0.0748774
-0.0732316
-0.0715889
-0.0699509
-0.0683192
-0.0666952
-0.0650803
-0.0634758
-0.0618827
-0.0603022
-0.0587354
-0.0571832
-0.0556464
-0.054126
-0.0526227
-0.0511372
-0.0496702
-0.0482223
-0.0467941
-0.0453861
-0.0439989
-0.0426329
-0.0412885
-0.039966
-0.0386658
-0.0373883
-0.0361336
-0.034902
-0.0336938
-0.10098
-0.0999366
-0.0988289
-0.0976624
-0.0964419
-0.0951722
-0.0938578
-0.0925028
-0.0911114
-0.0896873
-0.0882343
-0.0867556
-0.0852545
-0.0837342
-0.0821976
-0.0806472
-0.0790858
-0.0775158
-0.0759394
-0.0743588
-0.072776
-0.0711929
-0.0696114
-0.0680331
-0.0664595
-0.0648922
-0.0633325
-0.0617818
-0.0602412
-0.058712
-0.0571951
-0.0556916
-0.0542025
-0.0527285
-0.0512706
-0.0498294
-0.0484057
-0.0470002
-0.0456134
-0.0442458
-0.0428981
-0.0415707
-0.0402639
-0.0389783
-0.0377141
-0.0364716
-0.0352511
-0.0340529
-0.0987465
-0.0978316
-0.0968486
-0.0958029
-0.094699
-0.0935418
-0.0923356
-0.0910847
-0.0897931
-0.0884648
-0.0871033
-0.0857123
-0.0842949
-0.0828545
-0.0813939
-0.079916
-0.0784235
-0.076919
-0.0754048
-0.0738832
-0.0723564
-0.0708264
-0.069295
-0.0677642
-0.0662356
-0.0647107
-0.0631911
-0.0616782
-0.0601734
-0.0586778
-0.0571926
-0.055719
-0.0542579
-0.0528103
-0.0513771
-0.0499592
-0.0485573
-0.0471721
-0.0458043
-0.0444545
-0.0431233
-0.0418112
-0.0405186
-0.0392461
-0.0379939
-0.0367625
-0.0355521
-0.0343631
-0.096823
-0.0960163
-0.0951386
-0.0941948
-0.0931897
-0.0921279
-0.0910137
-0.0898514
-0.088645
-0.0873984
-0.0861154
-0.0847994
-0.0834539
-0.0820821
-0.080687
-0.0792715
-0.0778385
-0.0763906
-0.0749302
-0.0734597
-0.0719814
-0.0704974
-0.0690097
-0.0675202
-0.0660306
-0.0645427
-0.0630581
-0.0615782
-0.0601045
-0.0586383
-0.0571808
-0.0557333
-0.0542967
-0.0528722
-0.0514608
-0.0500632
-0.0486803
-0.047313
-0.0459619
-0.0446277
-0.043311
-0.0420123
-0.0407323
-0.0394713
-0.0382298
-0.0370082
-0.0358067
-0.0346258
-0.0952149
-0.0944969
-0.0937056
-0.0928457
-0.091922
-0.0909389
-0.0899008
-0.0888118
-0.0876761
-0.0864974
-0.0852796
-0.0840261
-0.0827405
-0.0814259
-0.0800855
-0.0787223
-0.0773391
-0.0759386
-0.0745234
-0.0730958
-0.0716583
-0.070213
-0.068762
-0.0673073
-0.0658507
-0.064394
-0.0629389
-0.0614869
-0.0600395
-0.0585982
-0.0571642
-0.0557387
-0.054323
-0.052918
-0.0515249
-0.0501446
-0.048778
-0.0474258
-0.0460889
-0.0447679
-0.0434635
-0.0421764
-0.040907
-0.0396559
-0.0384234
-0.0372101
-0.0360163
-0.0348423
-0.0939257
-0.0932777
-0.0925546
-0.0917611
-0.0909018
-0.0899812
-0.0890034
-0.0879728
-0.0868933
-0.0857688
-0.084603
-0.0833995
-0.0821617
-0.080893
-0.0795965
-0.0782752
-0.0769319
-0.0755695
-0.0741906
-0.0727976
-0.0713929
-0.0699788
-0.0685574
-0.0671308
-0.0657008
-0.0642693
-0.0628381
-0.0614086
-0.0599826
-0.0585614
-0.0571463
-0.0557388
-0.0543399
-0.0529508
-0.0515727
-0.0502063
-0.0488528
-0.047513
-0.0461876
-0.0448774
-0.043583
-0.0423052
-0.0410445
-0.0398014
-0.0385763
-0.0373698
-0.0361822
-0.0350139
-0.0929576
-0.0923614
-0.0916889
-0.0909448
-0.0901334
-0.0892593
-0.0883266
-0.0873395
-0.086302
-0.085218
-0.0840911
-0.082925
-0.0817231
-0.0804888
-0.0792252
-0.0779353
-0.0766222
-0.0752884
-0.0739368
-0.0725698
-0.0711899
-0.0697993
-0.0684003
-0.0669948
-0.065585
-0.0641725
-0.0627593
-0.0613469
-0.059937
-0.058531
-0.0571303
-0.0557363
-0.0543502
-0.0529732
-0.0516063
-0.0502506
-0.048907
-0.0475765
-0.0462599
-0.0449578
-0.0436711
-0.0424004
-0.0411462
-0.0399092
-0.0386898
-0.0374885
-0.0363056
-0.0351416
-0.0923115
-0.0917496
-0.0911106
-0.0903991
-0.0896196
-0.0887763
-0.0878735
-0.0869153
-0.0859057
-0.0848486
-0.0837477
-0.0826065
-0.0814285
-0.0802171
-0.0789755
-0.0777066
-0.0764135
-0.075099
-0.0737656
-0.072416
-0.0710526
-0.0696778
-0.0682937
-0.0669025
-0.0655061
-0.0641064
-0.0627052
-0.0613043
-0.0599052
-0.0585094
-0.0571184
-0.0557334
-0.0543559
-0.052987
-0.0516277
-0.0502791
-0.0489423
-0.047618
-0.0463072
-0.0450107
-0.0437291
-0.0424631
-0.0412134
-0.0399805
-0.0387649
-0.0375671
-0.0363874
-0.0352263
-0.0919886
-0.0914437
-0.0908214
-0.0901261
-0.0893624
-0.0885345
-0.0876466
-0.0867028
-0.0857072
-0.0846635
-0.0835755
-0.0824467
-0.0812807
-0.0800808
-0.0788501
-0.0775918
-0.0763087
-0.0750037
-0.0736795
-0.0723386
-0.0709835
-0.0696166
-0.06824
-0.0668558
-0.0654662
-0.0640729
-0.0626778
-0.0612826
-0.0598889
-0.0584982
-0.057112
-0.0557317
-0.0543584
-0.0529935
-0.051638
-0.0502931
-0.0489596
-0.0476385
-0.0463307
-0.0450369
-0.0437579
-0.0424943
-0.0412468
-0.0400159
-0.0388022
-0.0376062
-0.0364281
-0.0352685
-0.0219861
-0.0207081
-0.0194697
)
;

boundaryField
{
    inlet
    {
        type            zeroGradient;
    }
    outlet
    {
        type            fixedValue;
        value           nonuniform 0();
    }
    cylinder
    {
        type            zeroGradient;
    }
    top
    {
        type            symmetryPlane;
    }
    bottom
    {
        type            symmetryPlane;
    }
    defaultFaces
    {
        type            empty;
    }
    procBoundary6to2
    {
        type            processor;
        value           nonuniform List<scalar> 
51
(
-0.146301
-0.141618
-0.137059
-0.132624
-0.128311
-0.124119
-0.120044
-0.116086
-0.112241
-0.108507
-0.10488
-0.101358
-0.097937
-0.0946144
-0.0913867
-0.0882508
-0.0852035
-0.0822417
-0.0793623
-0.0765624
-0.073839
-0.0711893
-0.0686108
-0.0661009
-0.0636571
-0.0612771
-0.0589589
-0.0567004
-0.0544997
-0.052355
-0.0502647
-0.0482274
-0.0462416
-0.044306
-0.0424196
-0.0405811
-0.0387898
-0.0370446
-0.0353449
-0.0336897
-0.0320786
-0.0305109
-0.0289859
-0.0275032
-0.0260624
-0.0246629
-0.0233043
-0.0224371
-0.0211505
-0.0199035
-0.0233043
)
;
    }
    procBoundary6to3
    {
        type            processor;
        value           uniform -0.0182706;
    }
    procBoundary6to5
    {
        type            processor;
        value           nonuniform List<scalar> 
33
(
-0.15111
-0.152
-0.153688
-0.15112
-0.15112
-0.153853
-0.151963
-0.151963
-0.150428
-0.150428
-0.149076
-0.149076
-0.145288
-0.145288
-0.141791
-0.13849
-0.1347
-0.130643
-0.126489
-0.122358
-0.118348
-0.11453
-0.110953
-0.10765
-0.104645
-0.101955
-0.0995883
-0.0975536
-0.0958546
-0.0944938
-0.0934728
-0.0927917
-0.0924514
)
;
    }
    procBoundary6to7
    {
        type            processor;
        value           nonuniform List<scalar> 
31
(
-0.0182706
-0.0186958
-0.0186958
-0.0183239
-0.0194388
-0.0207962
-0.0223118
-0.0223118
-0.0226847
-0.0244249
-0.0244249
-0.0244823
-0.025572
-0.026598
-0.0275349
-0.0283862
-0.0291613
-0.029867
-0.0305091
-0.0310917
-0.0316178
-0.0320897
-0.032509
-0.0328772
-0.0331956
-0.0334656
-0.0336884
-0.0338651
-0.0339967
-0.0340841
-0.0341276
)
;
    }
}


// ************************************************************************* //
