/*--------------------------------*- C++ -*----------------------------------*\
  =========                 |
  \\      /  F ield         | OpenFOAM: The Open Source CFD Toolbox
   \\    /   O peration     | Website:  https://openfoam.org
    \\  /    A nd           | Version:  7
     \\/     M anipulation  |
\*---------------------------------------------------------------------------*/
FoamFile
{
    version     2.0;
    format      ascii;
    class       surfaceScalarField;
    location    "10";
    object      phi;
}
// * * * * * * * * * * * * * * * * * * * * * * * * * * * * * * * * * * * * * //

dimensions      [0 3 -1 0 0 0 0];

internalField   nonuniform List<scalar> 
2638
(
0.00284632
-0.000123528
0.0029703
-0.000123979
0.0030946
-0.000124297
0.00321909
-0.000124489
0.00334365
-0.000124568
0.0034682
-0.000124544
0.00359263
-0.000124427
0.00371685
-0.000124228
0.00384081
-0.000123957
0.00396443
-0.000123625
0.00408767
-0.000123239
0.00421048
-0.00012281
0.00433283
-0.000122343
0.00445468
-0.000121848
0.00457601
-0.00012133
0.0046968
-0.000120795
0.00481705
-0.000120249
0.00493675
-0.000119695
0.00505588
-0.000119138
0.00517447
-0.000118582
0.00529249
-0.000118027
0.00540997
-0.000117478
0.00552691
-0.000116934
0.0056433
-0.000116398
0.00575918
-0.00011587
0.00587453
-0.00011535
0.00598936
-0.000114838
0.0061037
-0.000114334
0.00621754
-0.000113837
0.00633088
-0.000113345
0.00644374
-0.000112858
0.00655611
-0.000112374
0.00666801
-0.000111891
0.00677941
-0.000111408
0.00689034
-0.000110924
0.00700077
-0.000110435
0.00711071
-0.000109941
0.00722015
-0.00010944
0.00732908
-0.000108929
0.00743749
-0.000108408
0.00754537
-0.000107874
0.00765269
-0.000107326
0.00775945
-0.000106763
0.00786564
-0.000106182
0.00797122
-0.000105584
0.00807618
-0.000104966
0.00818051
-0.000104328
0.00828418
-0.000103669
9.89786e-10
0.00838717
-0.000102988
7.66137e-10
-0.000102285
3.53325e-10
0.0032878
-0.000241009
0.00340569
-0.00024186
0.00352384
-0.000242449
0.00364214
-0.000242795
0.0037605
-0.000242922
0.0038788
-0.000242849
0.00399697
-0.000242598
0.00411494
-0.000242191
0.00423262
-0.000241646
0.00434998
-0.000240983
0.00446696
-0.000240219
0.00458352
-0.000239371
0.00469963
-0.000238454
0.00481527
-0.000237483
0.00493041
-0.000236469
0.00504504
-0.000235424
0.00515915
-0.000234358
0.00527273
-0.000233279
0.00538579
-0.000232195
0.00549832
-0.000231112
0.00561033
-0.000230036
0.00572182
-0.000228969
0.0058328
-0.000227916
0.00594328
-0.000226878
0.00605327
-0.000225857
0.00616277
-0.000224852
0.00627179
-0.000223865
0.00638035
-0.000222893
0.00648845
-0.000221935
0.00659609
-0.000220989
0.00670329
-0.000220053
0.00681004
-0.000219124
0.00691635
-0.000218199
0.00702221
-0.000217274
0.00712764
-0.000216347
0.00723262
-0.000215413
0.00733714
-0.00021447
0.00744122
-0.000213513
0.00754483
-0.000212538
0.00764796
-0.000211544
0.00775061
-0.000210526
0.00785277
-0.000209481
0.00795441
-0.000208407
0.00805553
-0.0002073
0.00815611
-0.000206159
0.00825612
-0.000204982
0.00835556
-0.000203765
0.0084544
-0.000202508
0.00855262
-0.00020121
-0.000199868
0.00410923
0.00421516
-0.000347789
0.00432131
-0.000348599
0.00442758
-0.000349064
0.00453387
-0.000349216
0.00464011
-0.000349088
0.00474622
-0.000348709
0.00485214
-0.00034811
0.00495781
-0.000347319
0.00506319
-0.000346362
0.00516824
-0.000345266
0.00527292
-0.000344053
0.00537721
-0.000342745
0.00548109
-0.000341361
0.00558454
-0.000339919
0.00568755
-0.000338435
0.00579012
-0.000336923
0.00589223
-0.000335394
0.0059939
-0.00033386
0.00609511
-0.000332329
0.00619588
-0.000330808
0.00629622
-0.000329303
0.00639612
-0.000327819
0.0064956
-0.000326357
0.00659466
-0.000324921
0.00669332
-0.000323511
0.00679158
-0.000322125
0.00688945
-0.000320764
0.00698694
-0.000319424
0.00708406
-0.000318104
0.0071808
-0.000316799
0.00727719
-0.000315505
0.00737321
-0.000314219
0.00746887
-0.000312935
0.00756417
-0.000311649
0.00765911
-0.000310355
0.00775369
-0.000309049
0.0078479
-0.000307725
0.00794174
-0.000306378
0.0080352
-0.000305003
0.00812827
-0.000303596
0.00822094
-0.000302152
0.0083132
-0.000300666
0.00840504
-0.000299136
0.00849643
-0.000297558
0.00858738
-0.000295927
0.00867786
-0.000294243
0.00876785
-0.000292501
0.00885734
-0.0002907
0.00894631
-0.000288839
-0.000286915
0.00528748
-0.000436466
0.0053764
-0.000437522
0.00546548
-0.00043815
0.00555466
-0.000438391
0.00564386
-0.000438287
0.00573303
-0.000437875
0.00582211
-0.000437192
0.00591106
-0.000436274
0.00599985
-0.000435153
0.00608845
-0.00043386
0.00617682
-0.000432423
0.00626494
-0.000430869
0.0063528
-0.000429221
0.00644039
-0.000427501
0.00652768
-0.000425729
0.00661468
-0.00042392
0.00670137
-0.000422092
0.00678777
-0.000420255
0.00687386
-0.000418422
0.00695966
-0.000416601
0.00704515
-0.000414799
0.00713035
-0.000413022
0.00721527
-0.000411274
0.00729991
-0.000409557
0.00738427
-0.000407872
0.00746836
-0.000406218
0.00755219
-0.000404595
0.00763577
-0.000403
0.00771909
-0.000401429
0.00780217
-0.000399879
0.00788501
-0.000398344
0.00796761
-0.000396819
0.00804997
-0.000395298
0.0081321
-0.000393776
0.00821399
-0.000392246
0.00829564
-0.000390701
0.00837705
-0.000389135
0.00845822
-0.000387542
0.00853913
-0.000385916
0.00861979
-0.000384251
0.00870018
-0.000382541
0.00878029
-0.00038078
0.00886012
-0.000378964
0.00893965
-0.000377089
0.00901887
-0.000375149
0.00909777
-0.000373143
0.00917634
-0.000371066
0.00925455
-0.000368916
0.0093324
-0.00036669
-0.000364388
0.00648
0.00654759
-0.000505108
0.00661556
-0.000506121
0.00668386
-0.000506689
0.00675243
-0.000506859
0.00682123
-0.000506673
0.00689021
-0.000506173
0.00695934
-0.000505399
0.00702857
-0.000504386
0.00709788
-0.00050317
0.00716724
-0.000501782
0.00723662
-0.000500251
0.007306
-0.000498605
0.00737537
-0.000496869
0.00744471
-0.000495063
0.00751399
-0.000493208
0.00758322
-0.000491321
0.00765239
-0.000489418
0.00772148
-0.000487511
0.00779049
-0.00048561
0.00785941
-0.000483726
0.00792825
-0.000481863
0.00799701
-0.000480028
0.00806567
-0.000478224
0.00813425
-0.000476451
0.00820275
-0.000474712
0.00827116
-0.000473004
0.00833948
-0.000471324
0.00840772
-0.000469671
0.00847588
-0.000468039
0.00854396
-0.000466423
0.00861196
-0.000464817
0.00867988
-0.000463216
0.00874771
-0.000461612
0.00881546
-0.000459998
0.00888313
-0.000458367
0.00895071
-0.000456712
0.00901819
-0.000455025
0.00908557
-0.0004533
0.00915285
-0.00045153
0.00922002
-0.000449708
0.00928707
-0.000447828
0.00935399
-0.000445884
0.00942077
-0.000443871
0.00948741
-0.000441784
0.00955388
-0.00043962
0.00962019
-0.000437374
0.00968632
-0.000435043
0.00975225
-0.000432624
-0.000430117
0.00768347
0.00772829
-0.00055094
0.00777392
-0.000552317
0.0078203
-0.000553239
0.00786737
-0.00055375
0.0079151
-0.000553896
0.00796341
-0.000553717
0.00801228
-0.000553254
0.00806165
-0.000552542
0.00811149
-0.000551617
0.00816175
-0.00055051
0.00821239
-0.000549252
0.00826339
-0.00054787
0.00831472
-0.000546388
0.00836634
-0.000544829
0.00841823
-0.000543213
0.00847037
-0.000541557
0.00852274
-0.000539876
0.00857531
-0.000538184
0.00862808
-0.000536491
0.00868102
-0.000534805
0.00873413
-0.000533135
0.00878738
-0.000531483
0.00884079
-0.000529854
0.00889432
-0.000528249
0.00894799
-0.000526668
0.00900177
-0.000525109
0.00905567
-0.000523569
0.00910968
-0.000522045
0.00916379
-0.000520533
0.009218
-0.000519026
0.0092723
-0.000517518
0.00932669
-0.000516002
0.00938116
-0.000514472
0.00943572
-0.00051292
0.00949034
-0.000511338
0.00954503
-0.000509718
0.00959979
-0.000508054
0.00965459
-0.000506337
0.00970945
-0.000504561
0.00976434
-0.00050272
0.00981926
-0.000500806
0.00987421
-0.000498815
0.00992916
-0.000496741
0.00998412
-0.000494579
0.0100391
-0.000492326
0.010094
-0.000489978
0.0101489
-0.000487532
-0.000484986
0.00866335
0.00868729
-0.000576257
0.00871266
-0.000578614
0.00873939
-0.000580474
0.00876738
-0.000581887
0.00879656
-0.000582896
0.00882685
-0.000583544
0.00885818
-0.000583873
0.00889048
-0.00058392
0.00892369
-0.000583722
0.00895775
-0.000583311
0.0089926
-0.000582719
0.00902819
-0.000581974
0.00906446
-0.000581102
0.00910137
-0.000580127
0.00913889
-0.00057907
0.00917696
-0.000577948
0.00921555
-0.000576779
0.00925464
-0.000575575
0.00929418
-0.00057435
0.00933416
-0.000573111
0.00937454
-0.000571866
0.00941531
-0.000570622
0.00945644
-0.00056938
0.00949792
-0.000568144
0.00953972
-0.000566913
0.00958184
-0.000565687
0.00962426
-0.000564462
0.00966696
-0.000563236
0.00970994
-0.000562003
0.00975318
-0.000560759
0.00979667
-0.000559496
0.00984041
-0.00055821
0.00988438
-0.000556892
0.00992858
-0.000555535
0.00997299
-0.000554131
0.0100176
-0.000552674
0.0100624
-0.000551156
0.0101074
-0.000549569
0.0101526
-0.000547908
0.010198
-0.000546165
0.0102435
-0.000544336
0.0102892
-0.000542413
0.010335
-0.000540394
0.0103809
-0.000538273
0.010427
-0.000536048
0.0104732
-0.000533715
0.0105195
-0.000531272
-0.000528718
0.00931772
0.00932599
-0.000586879
0.00933635
-0.000590836
0.00934867
-0.000594212
0.00936284
-0.000597059
0.00937872
-0.000599427
0.00939621
-0.000601364
0.0094152
-0.000602914
0.0094356
-0.00060412
0.00945731
-0.000605021
0.00948025
-0.000605654
0.00950433
-0.000606054
0.00952948
-0.00060625
0.00955562
-0.000606274
0.0095827
-0.000606149
0.00961065
-0.0006059
0.00963942
-0.000605547
0.00966896
-0.000605109
0.00969921
-0.000604602
0.00973014
-0.000604038
0.0097617
-0.000603428
0.00979386
-0.000602782
0.00982658
-0.000602106
0.00985984
-0.000601406
0.00989361
-0.000600683
0.00992787
-0.00059994
0.00996258
-0.000599176
0.00999774
-0.00059839
0.0100333
-0.000597579
0.0100693
-0.000596739
0.0101057
-0.000595865
0.0101424
-0.000594952
0.0101795
-0.000593993
0.010217
-0.000592983
0.0102547
-0.000591914
0.0102928
-0.000590779
0.0103313
-0.000589572
0.01037
-0.000588285
0.010409
-0.000586913
0.0104483
-0.000585448
0.0104878
-0.000583885
0.0105276
-0.000582219
0.0105677
-0.000580445
0.010608
-0.000578559
0.0106485
-0.000576558
0.0106892
-0.00057444
0.0107301
-0.000572202
-0.000569842
0.0142721
-0.000548076
0.0142358
-0.000554531
0.0142019
-0.000560274
0.0141702
-0.000565365
0.0141406
-0.000569863
0.0141131
-0.000573821
0.0140875
-0.000577291
0.0140637
-0.000580321
0.0140416
-0.000582954
0.0140212
-0.000585231
0.0140023
-0.000587192
0.0139849
-0.000588871
0.013969
-0.000590301
0.0139543
-0.00059151
0.0139409
-0.000592525
0.0139288
-0.000593371
0.0139177
-0.000594068
0.0139078
-0.000594634
0.0138988
-0.000595087
0.0138908
-0.000595439
0.0138837
-0.000595702
0.0138775
-0.000595885
0.0138721
-0.000595996
0.0138675
-0.000596041
0.0138635
-0.000596022
0.0138603
-0.000595942
0.0138577
-0.000595802
0.0138557
-0.0005956
0.0138543
-0.000595336
0.0138535
-0.000595005
0.0138531
-0.000594606
0.0138533
-0.000594132
0.0138539
-0.00059358
0.0138549
-0.000592944
0.0138563
-0.000592219
0.0138582
-0.000591399
0.0138604
-0.000590479
0.0138629
-0.000589454
0.0138658
-0.000588318
0.013869
-0.000587068
0.0138724
-0.000585699
0.0138762
-0.000584208
0.0138802
-0.000582593
0.0138845
-0.00058085
0.0138891
-0.000578979
0.0138938
-0.000576978
0.0138988
-0.000574848
-0.000572589
0.0155632
-0.000492687
0.0155104
-0.00050174
0.0154601
-0.000509958
0.0154122
-0.000517407
0.0153665
-0.000524153
0.0153229
-0.000530255
0.0152814
-0.000535767
0.0152418
-0.000540744
0.0152041
-0.000545232
0.0151681
-0.000549276
0.0151338
-0.00055292
0.0151012
-0.0005562
0.01507
-0.000559153
0.0150403
-0.00056181
0.015012
-0.000564201
0.014985
-0.000566354
0.0149592
-0.00056829
0.0149346
-0.000570033
0.0149111
-0.000571601
0.0148887
-0.00057301
0.0148673
-0.000574274
0.0148468
-0.000575404
0.0148272
-0.000576412
0.0148085
-0.000577305
0.0147905
-0.000578088
0.0147734
-0.000578767
0.0147569
-0.000579344
0.0147411
-0.00057982
0.014726
-0.000580197
0.0147114
-0.000580473
0.0146975
-0.000580647
0.0146841
-0.000580717
0.0146712
-0.000580678
0.0146588
-0.000580529
0.0146468
-0.000580266
0.0146353
-0.000579883
0.0146242
-0.000579379
0.0146135
-0.000578749
0.0146031
-0.000577989
0.0145932
-0.000577097
0.0145835
-0.000576071
0.0145742
-0.000574908
0.0145653
-0.000573606
0.0145566
-0.000572166
0.0145482
-0.000570586
0.0145401
-0.000568869
0.0145322
-0.000567014
-0.000565023
0.0165668
-0.000430228
0.0165065
-0.000441431
0.0164482
-0.00045173
0.016392
-0.000461194
0.0163378
-0.000469885
0.0162854
-0.000477864
0.0162348
-0.000485186
0.0161859
-0.000491905
0.0161388
-0.000498068
0.0160932
-0.000503723
0.0160492
-0.000508911
0.0160067
-0.000513672
0.0159656
-0.000518043
0.0159258
-0.000522057
0.0158874
-0.000525746
0.0158502
-0.000529137
0.0158141
-0.000532255
0.0157792
-0.000535125
0.0157454
-0.000537766
0.0157126
-0.000540196
0.0156807
-0.000542431
0.0156498
-0.000544485
0.0156198
-0.00054637
0.0155905
-0.000548095
0.0155621
-0.000549669
0.0155345
-0.000551098
0.0155075
-0.000552386
0.0154812
-0.000553538
0.0154556
-0.000554555
0.0154305
-0.000555438
0.0154061
-0.000556188
0.0153822
-0.000556805
0.0153588
-0.000557286
0.0153359
-0.00055763
0.0153134
-0.000557836
0.0152915
-0.0005579
0.0152699
-0.000557821
0.0152488
-0.000557597
0.015228
-0.000557225
0.0152076
-0.000556704
0.0151876
-0.000556033
0.0151679
-0.000555212
0.0151485
-0.00055424
0.0151295
-0.000553117
0.0151107
-0.000551847
0.0150923
-0.000550429
0.0150741
-0.000548868
-0.000547166
0.0172812
-0.000368621
0.017221
-0.000381237
0.0171622
-0.000392945
0.0171048
-0.000403807
0.0170488
-0.000413881
0.0169942
-0.000423222
0.0169409
-0.000431882
0.0168889
-0.00043991
0.0168382
-0.000447352
0.0167887
-0.000454252
0.0167404
-0.000460651
0.0166934
-0.000466588
0.0166474
-0.000472096
0.0166026
-0.00047721
0.0165588
-0.000481959
0.016516
-0.000486372
0.0164742
-0.000490473
0.0164334
-0.000494287
0.0163935
-0.000497833
0.0163544
-0.000501131
0.0163162
-0.000504197
0.0162787
-0.000507045
0.016242
-0.000509689
0.0162061
-0.000512138
0.0161708
-0.000514403
0.0161362
-0.000516491
0.0161022
-0.000518408
0.0160689
-0.000520158
0.0160361
-0.000521746
0.0160038
-0.000523173
0.015972
-0.000524442
0.0159408
-0.000525552
0.01591
-0.000526505
0.0158797
-0.000527299
0.0158498
-0.000527934
0.0158203
-0.000528409
0.0157912
-0.000528723
0.0157625
-0.000528875
0.0157341
-0.000528864
0.0157061
-0.00052869
0.0156784
-0.000528353
0.015651
-0.000527855
0.015624
-0.000527195
0.0155973
-0.000526376
0.0155708
-0.000525401
0.0155447
-0.000524274
0.0155188
-0.000522997
-0.000521575
0.017744
-0.000312608
0.0176886
-0.000325906
0.017634
-0.000338335
0.0175802
-0.000349949
0.0175271
-0.000360798
0.0174748
-0.00037093
0.0174233
-0.000380392
0.0173726
-0.000389228
0.0173227
-0.000397478
0.0172737
-0.000405184
0.0172254
-0.000412382
0.0171779
-0.000419107
0.0171312
-0.000425392
0.0170853
-0.000431267
0.0170401
-0.000436761
0.0169956
-0.0004419
0.0169518
-0.000446708
0.0169088
-0.000451208
0.0168663
-0.000455419
0.0168246
-0.000459359
0.0167834
-0.000463045
0.0167429
-0.000466492
0.0167029
-0.000469711
0.0166635
-0.000472715
0.0166246
-0.000475512
0.0165862
-0.00047811
0.0165483
-0.000480517
0.0165109
-0.000482738
0.0164739
-0.000484776
0.0164374
-0.000486636
0.0164013
-0.000488318
0.0163655
-0.000489826
0.0163302
-0.00049116
0.0162952
-0.00049232
0.0162606
-0.000493306
0.0162263
-0.000494119
0.0161923
-0.000494759
0.0161587
-0.000495224
0.0161253
-0.000495517
0.0160923
-0.000495636
0.0160595
-0.000495584
0.016027
-0.000495361
0.0159948
-0.000494971
0.0159628
-0.000494416
0.0159311
-0.0004937
0.0158997
-0.000492827
0.0158685
-0.000491802
-0.000490631
0.0180106
-0.00026405
0.0179622
-0.000277451
0.0179139
-0.000290044
0.0178658
-0.000301872
0.017818
-0.00031298
0.0177705
-0.00032341
0.0177233
-0.000333201
0.0176764
-0.000342392
0.01763
-0.00035102
0.0175839
-0.00035912
0.0175383
-0.000366725
0.017493
-0.000373867
0.0174482
-0.000380574
0.0174038
-0.000386874
0.0173598
-0.000392794
0.0173163
-0.000398357
0.0172732
-0.000403586
0.0172305
-0.0004085
0.0171882
-0.00041312
0.0171463
-0.00041746
0.0171048
-0.000421538
0.0170636
-0.000425366
0.0170229
-0.000428958
0.0169825
-0.000432323
0.0169425
-0.00043547
0.0169027
-0.000438409
0.0168634
-0.000441144
0.0168243
-0.000443683
0.0167856
-0.000446029
0.0167471
-0.000448186
0.016709
-0.000450157
0.0166711
-0.000451943
0.0166335
-0.000453547
0.0165961
-0.000454968
0.016559
-0.000456207
0.0165222
-0.000457266
0.0164855
-0.000458144
0.0164492
-0.000458841
0.016413
-0.00045936
0.0163771
-0.000459701
0.0163414
-0.000459866
0.0163058
-0.000459857
0.0162706
-0.000459676
0.0162355
-0.000459329
0.0162006
-0.000458819
0.0161659
-0.000458152
0.0161314
-0.000457333
-0.000456369
0.0181375
-0.000222974
0.0180961
-0.000236071
0.0180545
-0.000248426
0.0180127
-0.000260076
0.0179708
-0.00027106
0.0179288
-0.000281413
0.0178867
-0.00029117
0.0178447
-0.000300364
0.0178027
-0.000309028
0.0177608
-0.000317191
0.017719
-0.000324884
0.0176772
-0.000332135
0.0176356
-0.000338968
0.0175942
-0.000345409
0.0175528
-0.000351482
0.0175117
-0.000357207
0.0174707
-0.000362605
0.0174299
-0.000367694
0.0173893
-0.000372491
0.0173488
-0.000377013
0.0173086
-0.000381273
0.0172685
-0.000385283
0.0172286
-0.000389056
0.0171889
-0.000392601
0.0171493
-0.000395926
0.0171099
-0.00039904
0.0170707
-0.000401949
0.0170317
-0.000404659
0.0169929
-0.000407172
0.0169542
-0.000409494
0.0169156
-0.000411626
0.0168773
-0.000413571
0.0168391
-0.000415331
0.016801
-0.000416906
0.0167631
-0.000418297
0.0167253
-0.000419505
0.0166877
-0.000420531
0.0166502
-0.000421376
0.0166129
-0.000422041
0.0165758
-0.000422528
0.0165387
-0.000422838
0.0165018
-0.000422974
0.0164651
-0.00042294
0.0164285
-0.000422741
0.0163921
-0.00042238
0.0163558
-0.000421864
0.0163197
-0.0004212
-0.000420395
0.0181722
-0.000188521
0.0181371
-0.000201041
0.0181016
-0.000212888
0.0180656
-0.000224093
0.0180292
-0.000234687
0.0179925
-0.000244701
0.0179555
-0.000254166
0.0179183
-0.00026311
0.0178808
-0.000271561
0.0178431
-0.000279545
0.0178053
-0.000287089
0.0177674
-0.000294217
0.0177294
-0.000300952
0.0176913
-0.000307316
0.0176532
-0.00031333
0.017615
-0.000319012
0.0175768
-0.000324381
0.0175385
-0.000329454
0.0175003
-0.000334246
0.017462
-0.000338771
0.0174238
-0.000343041
0.0173856
-0.00034707
0.0173474
-0.000350866
0.0173092
-0.00035444
0.0172711
-0.000357799
0.017233
-0.00036095
0.017195
-0.000363899
0.017157
-0.000366652
0.017119
-0.000369212
0.0170811
-0.000371582
0.0170432
-0.000373766
0.0170054
-0.000375765
0.0169677
-0.00037758
0.01693
-0.000379214
0.0168923
-0.000380667
0.0168548
-0.000381939
0.0168173
-0.000383032
0.0167799
-0.000383947
0.0167425
-0.000384685
0.0167052
-0.000385248
0.016668
-0.000385638
0.0166309
-0.000385858
0.0165939
-0.000385912
0.0165569
-0.000385805
0.0165201
-0.000385541
0.0164834
-0.000385127
0.0164467
-0.000384571
-0.000383879
0.0181506
-0.000159553
0.0181209
-0.000171322
0.0180905
-0.000182484
0.0180595
-0.000193064
0.0180279
-0.00020309
0.0179957
-0.000212589
0.0179632
-0.000221585
0.0179302
-0.000230104
0.0178968
-0.000238169
0.017863
-0.000245804
0.017829
-0.000253032
0.0177946
-0.000259874
0.01776
-0.000266349
0.0177252
-0.000272478
0.0176901
-0.000278279
0.0176549
-0.000283769
0.0176195
-0.000288964
0.0175839
-0.000293879
0.0175482
-0.000298527
0.0175123
-0.000302922
0.0174764
-0.000307076
0.0174403
-0.000310998
0.0174041
-0.000314698
0.0173679
-0.000318184
0.0173315
-0.000321465
0.0172951
-0.000324546
0.0172587
-0.000327432
0.0172221
-0.000330129
0.0171856
-0.00033264
0.017149
-0.000334968
0.0171123
-0.000337116
0.0170756
-0.000339085
0.0170389
-0.000340877
0.0170022
-0.000342494
0.0169655
-0.000343935
0.0169287
-0.000345203
0.016892
-0.000346297
0.0168553
-0.00034722
0.0168186
-0.000347972
0.0167819
-0.000348555
0.0167452
-0.000348972
0.0167086
-0.000349226
0.016672
-0.000349321
0.0166354
-0.000349261
0.0165989
-0.000349052
0.0165625
-0.000348701
0.0165262
-0.000348214
-0.000347599
0.018098
-0.000134981
0.0180726
-0.000145883
0.0180463
-0.000156241
0.0180193
-0.000166079
0.0179917
-0.000175417
0.0179634
-0.000184279
0.0179345
-0.000192687
0.017905
-0.00020066
0.0178751
-0.000208221
0.0178446
-0.00021539
0.0178138
-0.000222185
0.0177826
-0.000228625
0.0177509
-0.000234729
0.017719
-0.000240512
0.0176867
-0.000245992
0.0176541
-0.000251184
0.0176212
-0.000256101
0.0175881
-0.000260757
0.0175547
-0.000265164
0.0175212
-0.000269335
0.0174874
-0.000273278
0.0174534
-0.000277004
0.0174192
-0.000280521
0.0173848
-0.000283837
0.0173503
-0.000286958
0.0173157
-0.00028989
0.0172809
-0.000292639
0.017246
-0.000295207
0.0172109
-0.0002976
0.0171758
-0.000299819
0.0171405
-0.000301867
0.0171052
-0.000303746
0.0170698
-0.000305456
0.0170343
-0.000307
0.0169987
-0.000308377
0.0169631
-0.000309589
0.0169274
-0.000310637
0.0168917
-0.000311522
0.016856
-0.000312245
0.0168203
-0.000312809
0.0167845
-0.000313215
0.0167488
-0.000313467
0.016713
-0.000313569
0.0166773
-0.000313526
0.0166416
-0.000313342
0.0166059
-0.000313025
0.0165702
-0.000312581
-0.000312018
0.0180308
-0.000113884
0.0180088
-0.000123841
0.0179858
-0.000133316
0.0179621
-0.000142328
0.0179376
-0.000150896
0.0179123
-0.000159038
0.0178864
-0.000166773
0.0178599
-0.000174117
0.0178327
-0.00018109
0.017805
-0.000187708
0.0177768
-0.000193989
0.0177482
-0.000199947
0.017719
-0.000205599
0.0176895
-0.000210958
0.0176595
-0.000216041
0.0176292
-0.000220859
0.0175985
-0.000225425
0.0175675
-0.000229752
0.0175362
-0.000233849
0.0175046
-0.000237727
0.0174727
-0.000241395
0.0174406
-0.000244862
0.0174082
-0.000248135
0.0173756
-0.000251221
0.0173427
-0.000254126
0.0173097
-0.000256856
0.0172765
-0.000259414
0.0172431
-0.000261804
0.0172095
-0.00026403
0.0171758
-0.000266094
0.0171419
-0.000267998
0.0171079
-0.000269744
0.0170738
-0.000271333
0.0170396
-0.000272766
0.0170052
-0.000274043
0.0169708
-0.000275167
0.0169363
-0.000276137
0.0169017
-0.000276954
0.0168671
-0.000277621
0.0168324
-0.000278139
0.0167977
-0.00027851
0.016763
-0.000278739
0.0167283
-0.000278827
0.0166935
-0.000278781
0.0166588
-0.000278605
0.0166241
-0.000278305
0.0165894
-0.00027789
-0.000277365
0.0179592
-9.55416e-05
0.0179399
-0.000104497
0.0179196
-0.000113031
0.0178984
-0.000121159
0.0178764
-0.000128895
0.0178536
-0.000136255
0.0178301
-0.000143255
0.0178059
-0.000149909
0.017781
-0.000156232
0.0177556
-0.000162239
0.0177295
-0.000167944
0.0177029
-0.00017336
0.0176758
-0.000178502
0.0176483
-0.000183381
0.0176202
-0.00018801
0.0175918
-0.0001924
0.0175629
-0.000196563
0.0175337
-0.000200508
0.0175041
-0.000204245
0.0174741
-0.000207783
0.0174439
-0.00021113
0.0174133
-0.000214293
0.0173824
-0.000217279
0.0173513
-0.000220095
0.0173199
-0.000222744
0.0172883
-0.000225233
0.0172565
-0.000227565
0.0172244
-0.000229743
0.0171921
-0.000231769
0.0171597
-0.000233648
0.0171271
-0.000235379
0.0170943
-0.000236965
0.0170614
-0.000238406
0.0170283
-0.000239704
0.0169951
-0.00024086
0.0169618
-0.000241874
0.0169284
-0.000242747
0.016895
-0.00024348
0.0168614
-0.000244074
0.0168278
-0.000244532
0.0167942
-0.000244857
0.0167605
-0.000245049
0.0167267
-0.000245115
0.016693
-0.000245057
0.0166593
-0.000244881
0.0166256
-0.000244594
0.0165919
-0.000244201
-0.00024371
0.0178893
-7.94016e-05
0.0178721
-8.73136e-05
0.017854
-9.48623e-05
0.0178349
-0.00010206
0.0178149
-0.000108917
0.0177941
-0.000115448
0.0177725
-0.000121665
0.0177502
-0.000127581
0.0177271
-0.000133206
0.0177035
-0.000138555
0.0176792
-0.000143637
0.0176543
-0.000148467
0.0176288
-0.000153053
0.0176028
-0.000157407
0.0175764
-0.00016154
0.0175494
-0.000165461
0.017522
-0.00016918
0.0174942
-0.000172705
0.017466
-0.000176045
0.0174375
-0.000179207
0.0174085
-0.000182198
0.0173793
-0.000185025
0.0173497
-0.000187694
0.0173198
-0.000190209
0.0172896
-0.000192575
0.0172592
-0.000194797
0.0172285
-0.000196877
0.0171976
-0.000198819
0.0171664
-0.000200624
0.0171351
-0.000202296
0.0171035
-0.000203836
0.0170718
-0.000205245
0.0170399
-0.000206523
0.0170079
-0.000207672
0.0169757
-0.000208693
0.0169434
-0.000209585
0.0169111
-0.000210351
0.0168786
-0.000210992
0.016846
-0.000211507
0.0168134
-0.0002119
0.0167807
-0.000212172
0.016748
-0.000212327
0.0167152
-0.000212367
0.0166825
-0.000212297
0.0166497
-0.000212122
0.0166169
-0.000211846
0.0165842
-0.000211478
-0.000211022
0.0178247
-6.5041e-05
0.0178092
-7.18765e-05
0.0177928
-7.84045e-05
0.0177753
-8.46346e-05
0.017757
-9.05766e-05
0.0177378
-9.62403e-05
0.0177178
-0.000101636
0.017697
-0.000106773
0.0176754
-0.000111663
0.0176532
-0.000116314
0.0176303
-0.000120737
0.0176067
-0.000124942
0.0175826
-0.000128937
0.017558
-0.000132731
0.0175327
-0.000136334
0.017507
-0.000139753
0.0174809
-0.000142997
0.0174542
-0.000146071
0.0174272
-0.000148985
0.0173997
-0.000151743
0.0173719
-0.000154352
0.0173436
-0.000156818
0.0173151
-0.000159145
0.0172862
-0.000161337
0.017257
-0.000163399
0.0172276
-0.000165334
0.0171979
-0.000167145
0.0171679
-0.000168835
0.0171377
-0.000170404
0.0171072
-0.000171856
0.0170766
-0.000173192
0.0170457
-0.000174412
0.0170147
-0.000175518
0.0169836
-0.00017651
0.0169523
-0.000177389
0.0169208
-0.000178155
0.0168893
-0.00017881
0.0168577
-0.000179354
0.0168259
-0.000179789
0.0167942
-0.000180116
0.0167623
-0.000180338
0.0167304
-0.000180456
0.0166986
-0.000180474
0.0166667
-0.000180396
0.0166348
-0.000180226
0.0166029
-0.000179969
0.016571
-0.00017963
-0.000179217
0.0177672
-5.21219e-05
0.0177532
-5.78543e-05
0.0177381
-6.33336e-05
0.0177221
-6.85671e-05
0.0177051
-7.35625e-05
0.0176871
-7.83276e-05
0.0176684
-8.287e-05
0.0176488
-8.71981e-05
0.0176285
-9.13196e-05
0.0176074
-9.52426e-05
0.0175856
-9.89751e-05
0.0175632
-0.000102524
0.0175402
-0.000105898
0.0175165
-0.000109104
0.0174923
-0.000112148
0.0174676
-0.000115038
0.0174424
-0.00011778
0.0174167
-0.00012038
0.0173906
-0.000122843
0.017364
-0.000125176
0.017337
-0.000127381
0.0173097
-0.000129466
0.017282
-0.000131432
0.0172539
-0.000133285
0.0172256
-0.000135027
0.0171969
-0.00013666
0.0171679
-0.000138188
0.0171387
-0.000139613
0.0171092
-0.000140936
0.0170795
-0.000142159
0.0170496
-0.000143282
0.0170195
-0.000144307
0.0169892
-0.000145234
0.0169588
-0.000146064
0.0169282
-0.000146798
0.0168975
-0.000147436
0.0168667
-0.000147979
0.0168357
-0.000148428
0.0168047
-0.000148784
0.0167737
-0.000149048
0.0167425
-0.000149222
0.0167114
-0.000149308
0.0166802
-0.00014931
0.0166491
-0.00014923
0.0166179
-0.000149072
0.0165868
-0.000148841
0.0165557
-0.000148541
-0.000148178
0.0177182
-4.03592e-05
0.0177053
-4.49677e-05
0.0176914
-4.93759e-05
0.0176764
-5.35893e-05
0.0176604
-5.76135e-05
0.0176436
-6.14545e-05
0.0176258
-6.51183e-05
0.0176072
-6.8611e-05
0.0175879
-7.19386e-05
0.0175677
-7.51075e-05
0.0175469
-7.81235e-05
0.0175253
-8.09927e-05
0.0175032
-8.3721e-05
0.0174804
-8.6314e-05
0.017457
-8.87771e-05
0.0174331
-9.11158e-05
0.0174086
-9.33349e-05
0.0173837
-9.54392e-05
0.0173583
-9.74332e-05
0.0173324
-9.93211e-05
0.0173061
-0.000101107
0.0172795
-0.000102794
0.0172524
-0.000104385
0.017225
-0.000105884
0.0171973
-0.000107292
0.0171692
-0.000108613
0.0171409
-0.000109848
0.0171123
-0.000110998
0.0170834
-0.000112066
0.0170543
-0.000113052
0.017025
-0.000113957
0.0169955
-0.000114782
0.0169658
-0.000115527
0.0169359
-0.000116193
0.0169059
-0.000116781
0.0168757
-0.00011729
0.0168455
-0.000117722
0.0168151
-0.000118077
0.0167847
-0.000118357
0.0167542
-0.000118562
0.0167237
-0.000118693
0.0166931
-0.000118754
0.0166626
-0.000118745
0.016632
-0.000118671
0.0166015
-0.000118533
0.0165709
-0.000118336
0.0165405
-0.000118083
-0.00011778
0.0176784
-2.94982e-05
0.0176664
-3.29673e-05
0.0176533
-3.62873e-05
0.0176392
-3.94623e-05
0.017624
-4.24964e-05
0.017608
-4.53937e-05
0.017591
-4.81585e-05
0.0175732
-5.07956e-05
0.0175546
-5.33088e-05
0.0175352
-5.5703e-05
0.017515
-5.79825e-05
0.0174942
-6.01518e-05
0.0174727
-6.22148e-05
0.0174505
-6.41764e-05
0.0174278
-6.60398e-05
0.0174045
-6.78093e-05
0.0173806
-6.94887e-05
0.0173563
-7.10812e-05
0.0173314
-7.25904e-05
0.0173061
-7.40193e-05
0.0172804
-7.53705e-05
0.0172543
-7.66473e-05
0.0172277
-7.78513e-05
0.0172008
-7.89851e-05
0.0171736
-8.00505e-05
0.017146
-8.1049e-05
0.0171182
-8.19825e-05
0.01709
-8.28517e-05
0.0170616
-8.3658e-05
0.017033
-8.44019e-05
0.0170041
-8.50842e-05
0.016975
-8.57055e-05
0.0169457
-8.62665e-05
0.0169163
-8.67669e-05
0.0168867
-8.72079e-05
0.016857
-8.7589e-05
0.0168272
-8.79116e-05
0.0167973
-8.81753e-05
0.0167674
-8.83818e-05
0.0167373
-8.85312e-05
0.0167073
-8.86253e-05
0.0166772
-8.86652e-05
0.0166471
-8.86529e-05
0.016617
-8.85901e-05
0.0165869
-8.848e-05
0.0165569
-8.83246e-05
0.016527
-8.81275e-05
-8.7892e-05
0.0176481
-1.93019e-05
0.0176368
-2.16201e-05
0.0176244
-2.38398e-05
0.0176109
-2.59634e-05
0.0175964
-2.79935e-05
0.0175809
-2.99328e-05
0.0175645
-3.17841e-05
0.0175473
-3.35502e-05
0.0175292
-3.5234e-05
0.0175103
-3.68384e-05
0.0174907
-3.83664e-05
0.0174704
-3.98207e-05
0.0174494
-4.12043e-05
0.0174277
-4.25197e-05
0.0174054
-4.37697e-05
0.0173826
-4.49569e-05
0.0173592
-4.60836e-05
0.0173353
-4.71521e-05
0.0173108
-4.81648e-05
0.0172859
-4.91236e-05
0.0172606
-5.00303e-05
0.0172348
-5.08868e-05
0.0172087
-5.16946e-05
0.0171822
-5.24552e-05
0.0171553
-5.31697e-05
0.0171281
-5.38393e-05
0.0171005
-5.4465e-05
0.0170727
-5.50476e-05
0.0170447
-5.55876e-05
0.0170164
-5.60857e-05
0.0169878
-5.65424e-05
0.0169591
-5.69579e-05
0.0169301
-5.73326e-05
0.016901
-5.76668e-05
0.0168718
-5.79606e-05
0.0168424
-5.82144e-05
0.0168129
-5.84285e-05
0.0167834
-5.86032e-05
0.0167537
-5.87391e-05
0.016724
-5.88368e-05
0.0166943
-5.88971e-05
0.0166645
-5.89211e-05
0.0166348
-5.89098e-05
0.0166051
-5.88648e-05
0.0165754
-5.87878e-05
0.0165457
-5.86806e-05
0.0165162
-5.85454e-05
-5.83845e-05
0.0176279
-9.54245e-06
0.0176169
-1.07034e-05
0.0176049
-1.1815e-05
0.0175918
-1.28788e-05
0.0175777
-1.38959e-05
0.0175627
-1.48681e-05
0.0175467
-1.57959e-05
0.0175298
-1.66814e-05
0.0175121
-1.75258e-05
0.0174936
-1.83304e-05
0.0174743
-1.9097e-05
0.0174543
-1.98264e-05
0.0174336
-2.05208e-05
0.0174123
-2.11808e-05
0.0173903
-2.18081e-05
0.0173678
-2.24039e-05
0.0173447
-2.29694e-05
0.017321
-2.35058e-05
0.0172969
-2.4014e-05
0.0172723
-2.44953e-05
0.0172472
-2.49506e-05
0.0172217
-2.53804e-05
0.0171958
-2.57858e-05