/*--------------------------------*- C++ -*----------------------------------*\
  =========                 |
  \\      /  F ield         | OpenFOAM: The Open Source CFD Toolbox
   \\    /   O peration     | Website:  https://openfoam.org
    \\  /    A nd           | Version:  7
     \\/     M anipulation  |
\*---------------------------------------------------------------------------*/
FoamFile
{
    version     2.0;
    format      ascii;
    class       surfaceScalarField;
    location    "25";
    object      phi;
}
// * * * * * * * * * * * * * * * * * * * * * * * * * * * * * * * * * * * * * //

dimensions      [0 3 -1 0 0 0 0];

internalField   nonuniform List<scalar> 
2638
(
-8.76336e-06
0.0179494
-5.59776e-06
0.0179026
-3.38672e-06
0.0178645
-1.87592e-06
0.0178356
-8.24282e-07
0.0178161
0.0178064
-0.000459776
0.0140261
0.00050715
-0.00039803
0.0153823
-0.000331558
0.0164536
-0.000268301
0.0172315
-0.000212856
0.0177489
-0.000166788
0.0180595
-0.000129744
0.0182203
-0.000100482
0.0182803
-7.75405e-05
0.0182777
-5.95705e-05
0.0182392
-4.54647e-05
0.0181828
-3.43711e-05
0.0181196
-2.56516e-05
0.0180564
-1.88267e-05
0.0179972
-1.35216e-05
0.0179441
-9.42674e-06
0.0178985
-6.27084e-06
0.0178614
-3.80433e-06
0.0178331
-1.79021e-06
0.0178141
0.0178046
-0.000462949
0.013981
0.000508008
-0.000403688
0.015323
-0.000339314
0.0163892
-0.000277472
0.0171697
-0.000222761
0.0176942
-0.000176896
0.0180137
-0.00013969
0.0181831
-0.000110035
0.0182507
-8.65537e-05
0.0182542
-6.79488e-05
0.0182206
-5.31432e-05
0.018168
-4.13011e-05
0.0181078
-3.17942e-05
0.0180469
-2.41491e-05
0.0179895
-1.79964e-05
0.0179379
-1.30318e-05
0.0178936
-8.98888e-06
0.0178573
-5.62283e-06
0.0178298
-2.70146e-06
0.0178112
0.0178019
-0.000465314
0.0139382
0.000508187
-0.000408417
0.0152661
-0.000346078
0.0163269
-0.000285653
0.0171092
-0.000231721
0.0176402
-0.000186123
0.0179681
-0.000148829
0.0181458
-0.000118854
0.0182207
-9.4904e-05
0.0182303
-7.5734e-05
0.0182014
-6.02961e-05
0.0181525
-4.77709e-05
0.0180952
-3.75399e-05
0.0180367
-2.91358e-05
0.0179811
-2.21948e-05
0.017931
-1.64182e-05
0.0178878
-1.15444e-05
0.0178525
-7.33378e-06
0.0178256
-3.55892e-06
0.0178074
0.0177983
-0.000466929
0.0138974
0.000507737
-0.000412284
0.0152115
-0.000351918
0.0162665
-0.000292905
0.0170502
-0.000239788
0.0175871
-0.000194516
0.0179228
-0.000157199
0.0181085
-0.000126971
0.0181905
-0.000102619
0.0182059
-8.29493e-05
0.0181818
-6.69425e-05
0.0181365
-5.37961e-05
0.0180821
-4.2901e-05
0.0180258
-3.37967e-05
0.017972
-2.61249e-05
0.0179233
-1.95918e-05
0.0178813
-1.39415e-05
0.0178468
-8.93978e-06
0.0178206
-4.36424e-06
0.0178029
0.017794
-0.000467852
0.0138585
0.000506705
-0.000415353
0.015159
-0.000356896
0.016208
-0.000299286
0.0169926
-0.000247014
0.0175349
-0.000202118
0.0178779
-0.000164838
0.0180712
-0.000134419
0.0181601
-0.000109727
0.0181812
-8.96179e-05
0.0181617
-7.31019e-05
0.01812
-5.93927e-05
0.0180684
-4.78908e-05
0.0180143
-3.81424e-05
0.0179623
-2.97945e-05
0.017915
-2.25587e-05
0.017874
-1.61849e-05
0.0178404
-1.04436e-05
0.0178148
-5.11852e-06
0.0177975
0.0177888
-0.000468135
0.0138215
0.000505137
-0.000417682
0.0151085
-0.000361072
0.0161514
-0.00030485
0.0169364
-0.000253447
0.0174834
-0.000208973
0.0178334
-0.000171783
0.018034
-0.000141229
0.0181295
-0.000116255
0.0181562
-9.57632e-05
0.0181412
-7.87938e-05
0.0181031
-6.45769e-05
0.0180542
-5.25226e-05
0.0180022
-4.21833e-05
0.0179519
-3.3212e-05
0.017906
-2.53253e-05
0.0178661
-1.82783e-05
0.0178334
-1.18483e-05
0.0178084
-5.82359e-06
0.0177915
0.017783
-0.00046783
0.0137863
0.000503077
-0.000419329
0.01506
-0.000364504
0.0160966
-0.000309653
0.0168815
-0.000259136
0.0174329
-0.000215121
0.0177894
-0.000178071
0.0179969
-0.000147434
0.0180989
-0.00012223
0.018131
-0.000101408
0.0181204
-8.40378e-05
0.0180857
-6.9365e-05
0.0180395
-5.68095e-05
0.0179897
-4.59305e-05
0.017941
-3.63859e-05
0.0178964
-2.7898e-05
0.0178577
-2.02276e-05
0.0178257
-1.31568e-05
0.0178013
-6.4807e-06
0.0177848
0.0177765
-0.000466984
0.0137527
0.000500566
-0.000420344
0.0150134
-0.000367244
0.0160435
-0.000313743
0.016828
-0.000264124
0.0173833
-0.000220603
0.0177459
-0.000183735
0.0179601
-0.000153063
0.0180682
-0.000127677
0.0181057
-0.000106575
0.0180993
-8.8853e-05
0.018068
-7.37733e-05
0.0180244
-6.07655e-05
0.0179767
-4.93949e-05
0.0179297
-3.9325e-05
0.0178864
-3.02837e-05
0.0178486
-2.20367e-05
0.0178175
-1.43724e-05
0.0177936
-7.09117e-06
0.0177776
0.0177694
-0.000465641
0.0137207
0.000497645
-0.000420778
0.0149685
-0.000369342
0.0159921
-0.000317169
0.0167759
-0.000268457
0.0173346
-0.000225458
0.0177029
-0.00018881
0.0179234
-0.000158147
0.0180375
-0.000132625
0.0180801
-0.000111287
0.0180779
-9.32588e-05
0.0180499
-7.78181e-05
0.018009
-6.44038e-05
0.0179633
-5.25877e-05
0.0179178
-4.20386e-05
0.0178758
-3.24891e-05
0.0178391
-2.3711e-05
0.0178087
-1.54983e-05
0.0177854
-7.65686e-06
0.0177697
0.0177618
-0.000463843
0.0136902
0.00049435
-0.000420676
0.0149254
-0.000370848
0.0159422
-0.000319976
0.016725
-0.000272176
0.0172868
-0.000229722
0.0176604
-0.00019333
0.017887
-0.000162714
0.0180069
-0.000137097
0.0180545
-0.000115566
0.0180564
-9.72744e-05
0.0180316
-8.15156e-05
0.0179932
-6.77383e-05
0.0179495
-5.55201e-05
0.0179056
-4.45352e-05
0.0178648
-3.45214e-05
0.0178291
-2.52556e-05
0.0177994
-1.65377e-05
0.0177767
-8.17962e-06
0.0177614
0.0177536
-0.000461631
0.0136611
0.000490716
-0.000420084
0.0148838
-0.000371806
0.015894
-0.000322208
0.0166754
-0.000275321
0.0172399
-0.000233431
0.0176186
-0.000197325
0.0178509
-0.000166793
0.0179764
-0.000141118
0.0180288
-0.000119434
0.0180347
-0.000100918
0.0180131
-8.48817e-05
0.0179772
-7.07819e-05
0.0179354
-5.82031e-05
0.0178931
-4.6824e-05
0.0178535
-3.63873e-05
0.0178186
-2.66757e-05
0.0177897
-1.74941e-05
0.0177675
-8.66088e-06
0.0177525
0.0177449
-0.000459043
0.0136333
0.000486777
-0.000419041
0.0148438
-0.000372258
0.0158472
-0.000323907
0.0166271
-0.000277929
0.0171939
-0.000236621
0.0175772
-0.000200828
0.0178151
-0.00017041
0.017946
-0.000144713
0.0180031
-0.000122911
0.0180129
-0.000104209
0.0179944
-8.79322e-05
0.0179609
-7.35486e-05
0.017921
-6.06478e-05
0.0178801
-4.89137e-05
0.0178417
-3.80939e-05
0.0178078
-2.79759e-05
0.0177796
-1.83708e-05
0.0177579
-9.10204e-06
0.0177432
0.0177358
-0.000456112
0.0136069
0.000482564
-0.000417587
0.0148053
-0.000372244
0.0158018
-0.00032511
0.0165799
-0.000280038
0.0171489
-0.000239324
0.0175365
-0.000203867
0.0177797
-0.000173593
0.0179157
-0.000147905
0.0179775
-0.000126018
0.017991
-0.000107164
0.0179756
-9.06826e-05
0.0179444
-7.60511e-05
0.0179064
-6.28651e-05
0.017867
-5.08132e-05
0.0178297
-3.96481e-05
0.0177966
-2.9162e-05
0.0177691
-1.91712e-05
0.0177479
-9.50514e-06
0.0177336
0.0177263
-0.000452873
0.0135817
0.000478107
-0.000415758
0.0147682
-0.000371802
0.0157579
-0.000325856
0.016534
-0.000281681
0.0171047
-0.000241571
0.0174964
-0.00020647
0.0177446
-0.000176367
0.0178856
-0.000150717
0.0179518
-0.000128776
0.0179691
-0.000109801
0.0179566
-9.3148e-05
0.0179278
-7.83025e-05
0.0178915
-6.48659e-05
0.0178535
-5.25318e-05
0.0178173
-4.10568e-05
0.0177852
-3.02385e-05
0.0177583
-1.98985e-05
0.0177376
-9.87158e-06
0.0177236
0.0177165
-0.000449355
0.0135576
0.000473433
-0.000413588
0.0147324
-0.000370968
0.0157153
-0.000326179
0.0164892
-0.000282893
0.0170614
-0.000243393
0.0174569
-0.000208666
0.0177099
-0.000178756
0.0178557
-0.000153171
0.0179262
-0.000131204
0.0179471
-0.000112137
0.0179375
-9.53432e-05
0.017911
-8.03152e-05
0.0178765
-6.66608e-05
0.0178399
-5.40777e-05
0.0178048
-4.23268e-05
0.0177734
-3.12108e-05
0.0177472
-2.05562e-05
0.0177269
-1.02035e-05
0.0177132
0.0177063
-0.000445588
0.0135346
0.000468567
-0.000411108
0.0146979
-0.000369776
0.0156739
-0.000326112
0.0164455
-0.000283703
0.017019
-0.000244819
0.017418
-0.00021048
0.0176755
-0.000180784
0.017826
-0.000155287
0.0179007
-0.00013332
0.0179251
-0.000114189
0.0179184
-9.72828e-05
0.0178941
-8.21019e-05
0.0178613
-6.82601e-05
0.017826
-5.54592e-05
0.017792
-4.34648e-05
0.0177614
-3.20836e-05
0.0177358
-2.11474e-05
0.017716
-1.05018e-05
0.0177026
0.0176958
-0.0004416
0.0135127
0.000463534
-0.000408349
0.0146647
-0.000368255
0.0156338
-0.000325687
0.0164029
-0.000284143
0.0169774
-0.000245876
0.0173798
-0.000211938
0.0176416
-0.000182473
0.0177965
-0.000157086
0.0178753
-0.000135143
0.0179032
-0.000115974
0.0178992
-9.89807e-05
0.0178771
-8.36746e-05
0.017846
-6.96741e-05
0.017812
-5.66852e-05
0.017779
-4.44774e-05
0.0177492
-3.2862e-05
0.0177242
-2.16754e-05
0.0177048
-1.07685e-05
0.0176917
0.017685
-0.000437414
0.0134917
0.000458356
-0.000405339
0.0146326
-0.000366437
0.0155949
-0.000324932
0.0163614
-0.000284239
0.0169368
-0.000246591
0.0173421
-0.000213064
0.017608
-0.000183847
0.0177673
-0.000158589
0.0178501
-0.00013669
0.0178813
-0.000117506
0.01788
-0.000100451
0.01786
-8.50451e-05
0.0178306
-7.09126e-05
0.0177979
-5.77634e-05
0.0177658
-4.5371e-05
0.0177368
-3.35505e-05
0.0177124
-2.21433e-05
0.0176934
-1.10051e-05
0.0176805
0.017674
-0.000433056
0.0134717
0.000453054
-0.000402102
0.0146016
-0.000364347
0.0155572
-0.000323877
0.016321
-0.00028402
0.0168969
-0.000246989
0.0173051
-0.00021388
0.0175749
-0.000184925
0.0177384
-0.000159813
0.017825
-0.000137979
0.0178595
-0.0001188
0.0178609
-0.000101706
0.0178429
-8.62246e-05
0.0178151
-7.19855e-05
0.0177837
-5.87022e-05
0.0177525
-4.6152e-05
0.0177243
-3.41542e-05
0.0177004
-2.25543e-05
0.0176818
-1.12133e-05
0.0176692
0.0176628
-0.000428546
0.0134526
0.000447647
-0.000398665
0.0145718
-0.000362014
0.0155205
-0.000322546
0.0162815
-0.00028351
0.0168579
-0.000247092
0.0172687
-0.000214409
0.0175423
-0.000185727
0.0177097
-0.000160777
0.0178
-0.000139026
0.0178377
-0.000119872
0.0178417
-0.000102759
0.0178258
-8.72246e-05
0.0177996
-7.2902e-05
0.0177693
-5.95091e-05
0.0177391
-4.68265e-05
0.0177116
-3.46773e-05
0.0176882
-2.29115e-05
0.01767
-1.13945e-05
0.0176577
0.0176514
-0.000423904
0.0134344
0.000442153
-0.000395049
0.0145429
-0.000359459
0.0154849
-0.000320964
0.016243
-0.000282733
0.0168196
-0.000246925
0.0172329
-0.000214671
0.01751
-0.000186273
0.0176813
-0.000161499
0.0177752
-0.000139846
0.0178161
-0.000120734
0.0178226
-0.000103623
0.0178087
-8.80555e-05
0.017784
-7.36713e-05
0.017755
-6.01918e-05
0.0177257
-4.74005e-05
0.0176988
-3.51245e-05
0.0176759
-2.32176e-05
0.0176581
-1.15498e-05
0.017646
0.0176398
-0.000419151
0.0134169
0.000436588
-0.000391276
0.014515
-0.000356707
0.0154504
-0.000319155
0.0162055
-0.000281711
0.0167822
-0.000246508
0.0171977
-0.000214686
0.0174782
-0.000186582
0.0176532
-0.000161995
0.0177507
-0.000140455
0.0177945
-0.000121402
0.0178035
-0.000104309
0.0177916
-8.87277e-05
0.0177684
-7.43022e-05
0.0177405
-6.07571e-05
0.0177121
-4.78797e-05
0.0176859
-3.54999e-05
0.0176636
-2.34757e-05
0.0176461
-1.16815e-05
0.0176342
0.0176282
-0.000414302
0.0134003
0.000430969
-0.000387365
0.0144881
-0.000353778
0.0154168
-0.00031714
0.0161688
-0.000280466
0.0167455
-0.000245861
0.0171631
-0.000214474
0.0174468
-0.000186669
0.0176254
-0.000162281
0.0177263
-0.000140866
0.0177731
-0.000121887
0.0177846
-0.000104829
0.0177746
-8.92513e-05
0.0177529
-7.48032e-05
0.0177261
-6.12128e-05
0.0176985
-4.82699e-05
0.017673
-3.5808e-05
0.0176511
-2.36885e-05
0.017634
-1.179e-05
0.0176223
0.0176164
-0.000409375
0.0133843
0.000425308
-0.000383334
0.0144621
-0.000350692
0.0153841
-0.00031494
0.0161331
-0.000279018
0.0167096
-0.000245003
0.017129
-0.000214051
0.0174158
-0.000186552
0.0175979
-0.000162372
0.0177021
-0.000141094
0.0177518
-0.000122202
0.0177657
-0.000105193
0.0177575
-8.96358e-05
0.0177373
-7.51827e-05
0.0177116
-6.15652e-05
0.0176849
-4.85764e-05
0.01766
-3.60524e-05
0.0176386
-2.38587e-05
0.0176218
-1.18772e-05
0.0176103
0.0176045
-0.000404384
0.0133691
0.000419618
-0.0003792
0.0144369
-0.000347467
0.0153524
-0.000312572
0.0160982
-0.000277386
0.0166744
-0.000243953
0.0170956
-0.000213436
0.0173853
-0.000186247
0.0175707
-0.000162283
0.0176781
-0.000141153
0.0177307
-0.000122359
0.0177469
-0.000105413
0.0177406
-8.98906e-05
0.0177218
-7.54483e-05
0.0176972
-6.18212e-05
0.0176713
-4.88045e-05
0.017647
-3.62377e-05
0.017626
-2.3989e-05
0.0176096
-1.19445e-05
0.0175983
0.0175925
-0.000399342
0.0133545
0.000413912
-0.00037498
0.0144125
-0.000344121
0.0153215
-0.000310056
0.0160641
-0.000275586
0.0166399
-0.000242728
0.0170628
-0.000212643
0.0173552
-0.000185769
0.0175438
-0.000162027
0.0176544
-0.000141053
0.0177097
-0.00012237
0.0177282
-0.000105499
0.0177237
-9.00244e-05
0.0177063
-7.56079e-05
0.0176828
-6.1987e-05
0.0176577
-4.89592e-05
0.0176339
-3.63671e-05
0.0176134
-2.40818e-05
0.0175973
-1.1993e-05
0.0175862
0.0175805
-0.000394264
0.0133406
0.000408201
-0.000370686
0.0143889
-0.000340668
0.0152915
-0.000307407
0.0160308
-0.000273637
0.0166062
-0.000241343
0.0170305
-0.000211689
0.0173256
-0.000185131
0.0175173
-0.000161618
0.0176309
-0.000140809
0.0176889
-0.000122244
0.0177096
-0.00010546
0.0177069
-9.00458e-05
0.0176909
-7.56687e-05
0.0176684
-6.20684e-05
0.0176441
-4.90456e-05
0.0176209
-3.64445e-05
0.0176008
-2.41396e-05
0.017585
-1.20237e-05
0.0175741
0.0175685
-0.000389159
0.0133273
0.000402493
-0.000366333
0.0143661
-0.000337125
0.0152623
-0.000304641
0.0159984
-0.000271552
0.0165731
-0.000239813
0.0169987
-0.000210587
0.0172964
-0.000184347
0.017491
-0.000161067
0.0176076
-0.00014043
0.0176683
-0.000121993
0.0176912
-0.000105305
0.0176903
-8.9963e-05
0.0176755
-7.56376e-05
0.0176541
-6.20718e-05
0.0176305
-4.90681e-05
0.0176079
-3.64734e-05
0.0175882
-2.41648e-05
0.0175727
-1.20381e-05
0.0175619
0.0175565
-0.00038404
0.0133145
0.000396799
-0.000361934
0.014344
-0.000333504
0.0152339
-0.000301772
0.0159666
-0.000269348
0.0165407
-0.000238154
0.0169675
-0.000209352
0.0172676
-0.00018343
0.0174651
-0.000160387
0.0175845
-0.000139928
0.0176478
-0.000121627
0.0176729
-0.000105044
0.0176737
-8.97836e-05
0.0176603
-7.55215e-05
0.0176398
-6.20025e-05
0.017617
-4.90314e-05
0.0175949
-3.64573e-05
0.0175756
-2.41595e-05
0.0175604
-1.20371e-05
0.0175498
0.0175444
-0.000378915
0.0133023
0.000391127
-0.000357499
0.0143226
-0.000329818
0.0152062
-0.000298814
0.0159356
-0.000267037
0.0165089
-0.000236377
0.0169369
-0.000207995
0.0172392
-0.000182392
0.0174395
-0.00015959
0.0175617
-0.000139313
0.0176275
-0.000121154
0.0176547
-0.000104684
0.0176572
-8.95153e-05
0.0176451
-7.53266e-05
0.0176256
-6.1866e-05
0.0176035
-4.89397e-05
0.017582
-3.63991e-05
0.0175631
-2.4126e-05
0.0175481
-1.2022e-05
0.0175377
0.0175324
-0.000373793
0.0132906
0.000385483
-0.000353038
0.0143018
-0.000326079
0.0151792
-0.00029578
0.0159053
-0.000264632
0.0164777
-0.000234497
0.0169067
-0.000206529
0.0172112
-0.000181244
0.0174142
-0.000158684
0.0175392
-0.000138594
0.0176074
-0.000120583
0.0176367
-0.000104234
0.0176409
-8.91649e-05
0.01763
-7.50592e-05
0.0176115
-6.16672e-05
0.0175901
-4.87972e-05
0.0175691
-3.63022e-05
0.0175506
-2.40663e-05
0.0175358
-1.19936e-05
0.0175256
0.0175204
-0.000368683
0.0132794
0.000379875
-0.000348562
0.0142817
-0.000322298
0.015153
-0.00029268
0.0158757
-0.000262145
0.0164472
-0.000232523
0.0168771
-0.000204965
0.0171836
-0.000179997
0.0173892
-0.000157681
0.0175169
-0.000137782
0.0175875
-0.000119924
0.0176189
-0.000103701
0.0176246
-8.87393e-05
0.0176151
-7.4725e-05
0.0175975
-6.1411e-05
0.0175768
-4.86077e-05
0.0175563
-3.61694e-05
0.0175382
-2.39824e-05
0.0175237
-1.19531e-05
0.0175136
0.0175085
-0.000363593
0.0132687
0.000374309
-0.000344079
0.0142622
-0.000318484
0.0151274
-0.000289526
0.0158468
-0.000259587
0.0164173
-0.000230468
0.016848
-0.000203313
0.0171565
-0.000178661
0.0173646
-0.00015659
0.0174948
-0.000136884
0.0175678
-0.000119184
0.0176012
-0.000103093
0.0176085
-8.82448e-05
0.0176002
-7.43297e-05
0.0175836
-6.11025e-05
0.0175636
-4.83752e-05
0.0175436
-3.60038e-05
0.0175258
-2.38762e-05
0.0175115
-1.19012e-05
0.0175016
0.0174966
-0.000358528
0.0132584
0.00036879
-0.000339598
0.0142433
-0.000314647
0.0151024
-0.000286328
0.0158184
-0.000256968
0.0163879
-0.000228341
0.0168194
-0.000201585
0.0171297
-0.000177246
0.0173402
-0.00015542
0.017473
-0.00013591
0.0175483
-0.00011837
0.0175836
-0.000102417
0.0175926
-8.76876e-05
0.0175855
-7.38784e-05
0.0175698
-6.07458e-05
0.0175505
-4.8103e-05
0.017531
-3.58076e-05
0.0175135
-2.37495e-05
0.0174995
-1.18392e-05
0.0174897
0.0174847
-0.000353495
0.0132486
0.000363323
-0.000335125
0.0142249
-0.000310795
0.0150781
-0.000283094
0.0157907
-0.000254298
0.0163591
-0.000226153
0.0167912
-0.000199788
0.0171034
-0.000175759
0.0173162
-0.000154179
0.0174514
-0.000134866
0.017529
-0.000117491
0.0175663
-0.000101678
0.0175768
-8.70735e-05
0.0175709
-7.33763e-05
0.0175561
-6.03451e-05
0.0175374
-4.77947e-05
0.0175184
-3.5584e-05
0.0175013
-2.36041e-05
0.0174875
-1.17676e-05
0.0174779
0.017473
-0.0003485
0.0132392
0.000357913
-0.000330667
0.0142071
-0.000306936
0.0150544
-0.000279833
0.0157636
-0.000251586
0.0163308
-0.000223911
0.0167635
-0.000197932
0.0170774
-0.000174211
0.0172925
-0.000152875
0.0174301
-0.000133761
0.0175099
-0.000116552
0.017549
-0.000100883
0.0175611
-8.6408e-05
0.0175564
-7.2828e-05
0.0175425
-5.99047e-05
0.0175245
-4.74535e-05
0.017506
-3.53349e-05
0.0174892
-2.34415e-05
0.0174756
-1.16875e-05
0.0174661
0.0174613
-0.000343546
0.0132302
0.000352562
-0.000326231
0.0141897
-0.000303078
0.0150312
-0.000276553
0.0157371
-0.000248839
0.0163031
-0.000221625
0.0167363
-0.000196024
0.0170518
-0.000172607
0.0172691
-0.000151515
0.017409
-0.0001326
0.017491
-0.000115559
0.017532
-0.000100038
0.0175456
-8.56961e-05
0.0175421
-7.22382e-05
0.017529
-5.94278e-05
0.0175117
-4.70824e-05
0.0174936
-3.5063e-05
0.0174772
-2.32633e-05
0.0174638
-1.15993e-05
0.0174545
0.0174497
-0.00033864
0.0132215
0.000347276
-0.000321821
0.0141729
-0.000299226
0.0150086
-0.000273262
0.0157111
-0.000246066
0.0162759
-0.000219302
0.0167096
-0.000194073
0.0170266
-0.000170957
0.017246
-0.000150107
0.0173881
-0.000131391
0.0174723
-0.00011452
0.0175151
-9.9149e-05
0.0175302
-8.49427e-05
0.0175279
-7.1611e-05
0.0175157
-5.89188e-05
0.017499
-4.66845e-05
0.0174814
-3.47703e-05
0.0174652
-2.3071e-05
0.0174521
-1.1504e-05
0.0174429
0.0174382
-0.000333784
0.0132133
0.000342056
-0.000317444
0.0141566
-0.000295386
0.0149866
-0.000269965
0.0156857
-0.000243274
0.0162492
-0.000216948
0.0166832
-0.000192085
0.0170017
-0.000169266
0.0172231
-0.000148657
0.0173675
-0.000130141
0.0174538
-0.00011344
0.0174984
-9.82202e-05
0.017515
-8.41527e-05
0.0175138
-7.09505e-05
0.0175025
-5.83806e-05
0.0174864
-4.62624e-05
0.0174693
-3.4459e-05
0.0174534
-2.28661e-05
0.0174405
-1.14023e-05
0.0174314
0.0174268
-0.000328982
0.0132053
0.000336905
-0.000313103
0.0141407
-0.000291564
0.014965
-0.000266669
0.0156608
-0.000240469
0.016223
-0.000214572
0.0166573
-0.000190068
0.0169772
-0.000167541
0.0172006
-0.000147171
0.0173471
-0.000128853
0.0174354
-0.000112324
0.0174819
-9.72568e-05
0.0174999
-8.33303e-05
0.0174999
-7.02606e-05
0.0174894
-5.78167e-05
0.017474
-4.58189e-05
0.0174573
-3.41309e-05
0.0174418
-2.26498e-05
0.017429
-1.12951e-05
0.0174201
0.0174155
-0.000324238
0.0131978
0.000331827
-0.000308802
0.0141253
-0.000287765
0.014944
-0.00026338
0.0156364
-0.000237657
0.0161973
-0.000212179
0.0166319
-0.000188026
0.016953
-0.000165788
0.0171784
-0.000145655
0.017327
-0.000127535
0.0174173
-0.000111176
0.0174655
-9.62634e-05
0.017485
-8.24796e-05
0.0174861
-6.95449e-05
0.0174765
-5.72301e-05
0.0174617
-4.53563e-05
0.0174454
-3.37883e-05
0.0174302
-2.24235e-05
0.0174177
-1.11823e-05
0.0174088
0.0174043
-0.000319554
0.0131905
0.000326821
-0.000304545
0.0141103
-0.000283993
0.0149234
-0.000260103
0.0156126
-0.000234843
0.0161721
-0.000209774
0.0166068
-0.000185967
0.0169292
-0.000164013
0.0171564
-0.000144114
0.0173071
-0.00012619
0.0173994
-0.000110003
0.0174494
-9.52444e-05
0.0174703
-8.16045e-05
0.0174725
-6.88067e-05
0.0174637
-5.66233e-05
0.0174495
-4.4877e-05
0.0174336
-3.34325e-05
0.0174187
-2.21882e-05
0.0174064
-1.10654e-05
0.0173977
0.0173932
-0.000314932
0.0131835
0.000321891
-0.000300335
0.0140957
-0.000280253
0.0149034
-0.000256841
0.0155891
-0.000232033
0.0161473
-0.000207364
0.0165821
-0.000183895
0.0169058
-0.000162221
0.0171348
-0.000142552
0.0172874
-0.000124824
0.0173817
-0.000108807
0.0174333
-9.42037e-05
0.0174557
-8.07087e-05
0.017459
-6.80492e-05
0.017451
-5.59997e-05
0.0174374
-4.43833e-05
0.017422
-3.30655e-05
0.0174074
-2.19452e-05
0.0173953
-1.09444e-05
0.0173867
0.0173823
-0.000310375
0.0131769
0.000317037
-0.000296176
0.0140815
-0.000276547
0.0148837
-0.0002536
0.0155662
-0.000229231
0.0161229
-0.000204952
0.0165578
-0.000181814
0.0168826
-0.000160416
0.0171134
-0.000140976
0.017268
-0.000123441
0.0173641
-0.000107594
0.0174175
-9.31452e-05
0.0174412
-7.97955e-05
0.0174456
-6.72755e-05
0.0174385
-5.53615e-05
0.0174255
-4.38772e-05
0.0174105
-3.26887e-05
0.0173962
-2.16955e-05
0.0173843
-1.08202e-05
0.0173758
0.0173715
-0.000305884
0.0131705
0.00031226
-0.000292069
0.0140676
-0.000272879
0.0148645
-0.000250384
0.0155437
-0.000226442
0.0160989
-0.000202544
0.016534
-0.000179731
0.0168598
-0.000158603
0.0170922
-0.000139389
0.0172488
-0.000122046
0.0173468
-0.000106367
0.0174018
-9.20724e-05
0.0174269
-7.88682e-05
0.0174324
-6.64885e-05
0.0174261
-5.47112e-05
0.0174137
-4.33607e-05
0.0173992
-3.2304e-05
0.0173852
-2.14401e-05
0.0173734
-1.06926e-05
0.0173651
0.0173608
-0.000301461
0.0131644
0.000307562
-0.000288017
0.0140542
-0.000269252
0.0148458
-0.000247195
0.0155216
-0.000223669
0.0160754
-0.000200143
0.0165104
-0.000177648
0.0168373
-0.000156787
0.0170714
-0.000137795
0.0172298
-0.000120641
0.0173296
-0.00010513
0.0173863
-9.09887e-05
0.0174128
-7.79298e-05
0.0174194
-6.56907e-05
0.0174139
-5.40508e-05
0.0174021
-4.28357e-05
0.017388
-3.1912e-05
0.0173743
-2.118e-05
0.0173627
-1.05631e-05
0.0173545
0.0173502
-0.000297107
0.0131586
0.000302943
-0.000284021
0.0140411
-0.000265669
0.0148274
-0.000244037
0.0155
-0.000220917
0.0160523
-0.000197753
0.0164873
-0.00017557
0.0168151
-0.00015497
0.0170508
-0.000136197
0.017211
-0.000119231
0.0173127
-0.000103886
0.017371
-8.98972e-05
0.0173988
-7.69832e-05
0.0174064
-6.48846e-05
0.0174018
-5.33827e-05
0.0173906
-4.23038e-05
0.0173769
-3.15149e-05
0.0173635
-2.0916e-05
0.0173521
-1.04313e-05
0.017344
0.0173398
-0.000292823
-0.000280085
-0.000262132
-0.000240913
-0.000218187
-0.000195378
-0.0001735
-0.000153157
-0.0001346
-0.000117819
-0.000102638
-8.88008e-05
-7.60309e-05
-6.40727e-05
-5.2709e-05
-4.17668e-05
-3.11135e-05
-2.06491e-05
-1.02979e-05
0.00917833
0.000505469
0.00918048
0.000505004
0.00918454
0.000503949
0.00919037
0.000502348
0.00919787
0.000500245
0.00920689
0.000497679
0.00921734
0.000494691
0.0092291
0.000491316
0.00924207
0.000487591
0.00925617
0.000483549
0.0092713
0.000479221
0.00928738
0.000474638
0.00930433
0.000469827
0.00932207
0.000464815
0.00934055
0.000459627
0.0093597
0.000454285
0.00937946
0.000448811
0.00939977
0.000443225
0.00942058
0.000437545
0.00944184
0.000431788
0.00946352
0.000425971
0.00948557
0.000420108
0.00950794
0.000414212
0.00953061
0.000408296
0.00955355
0.000402372
0.00957672
0.000396448
0.0096001
0.000390536
0.00962365
0.000384643
0.00964737
0.000378777
0.00967122
0.000372946
0.00969519
0.000367156
0.00971926
0.000361412
0.00974342
0.00035572
0.00976764
0.000350085
0.00979192
0.00034451
0.00981625
0.000338999
0.00984061
0.000333555
0.00986499
0.000328181
0.00988938
0.000322879
0.00991379
0.000317653
0.00993819
0.000312502
0.00996259
0.000307429
0.00998698
0.000302435
0.0100113
0.000297521
0.0100357
0.000292687
0.01006
0.000287934
0.0100843
0.000283263
0.000278673
0.00847553
0.000490497
0.00849163
0.000489372
0.00850893
0.000487702
0.00852735
0.000485531
0.0085468
0.000482898
0.0085672
0.000479845
0.00858847
0.000476407
0.00861054
0.000472621
0.00863334
0.000468519
0.00865679
0.000464135
0.00868084
0.000459498
0.00870543
0.000454636
0.00873049
0.000449574
0.00875598
0.000444339
0.00878184
0.000438953
0.00880803
0.000433438
0.00883451
0.000427812
0.00886122
0.000422095
0.00888814
0.000416305
0.00891523
0.000410455
0.00894246
0.000404562
0.00896979
0.000398639
0.0089972
0.000392697
0.00902467
0.000386748
0.00905216
0.000380802
0.00907966
0.000374869
0.00910715
0.000368957
0.00913462
0.000363074
0.00916203
0.000357227
0.00918939
0.000351421
0.00921667
0.000345664
0.00924387
0.000339959
0.00927097
0.000334311
0.00929796
0.000328724
0.00932485
0.000323203
0.00935161
0.000317749
0.00937824
0.000312365
0.00940474
0.000307055
0.0094311
0.000301819
0.00945732
0.000296659
0.0094834
0.000291578
0.00950933
0.000286575
0.0095351
0.000281652
0.00956073
0.00027681
0.0095862
0.000272048
0.00961152
0.000267368
0.00963668
0.000262769
0.00966169
0.000258252
0.00746872
0.000455939
0.0075044
0.000454808
0.00754062
0.000453151
0.00757731
0.000451012
0.00761442
0.000448429
0.00765187
0.000445443
0.00768963
0.000442091
0.00772763
0.000438406
0.00776582
0.000434423
0.00780417
0.000430173
0.00784262
0.000425685
0.00788113
0.000420986
0.00791967
0.000416101
0.00795819
0.000411055
0.00799666
0.00040587
0.00803504
0.000400566
0.00807332
0.000395162
0.00811145
0.000389677
0.00814942
0.000384125
0.0081872
0.000378523
0.00822478
0.000372884
0.00826212
0.00036722
0.00829922
0.000361543
0.00833605
0.000355863
0.00837261
0.00035019
0.00840888
0.000344534
0.00844484
0.0003389
0.0084805
0.000333298
0.00851584
0.000327733
0.00855086
0.000322211
0.00858555
0.000316736
0.00861989
0.000311315
0.0086539
0.00030595
0.00868757
0.000300645
0.00872089
0.000295404
0.00875386
0.00029023
0.00878649
0.000285123
0.00881876
0.000280088
0.00885069
0.000275125
0.00888228
0.000270235
0.00891352
0.000265421
0.00894441
0.000260682
0.00897496
0.00025602
0.00900518
0.000251436
0.00903506
0.000246928
0.00906461
0.000242498
0.00909384
0.000238146
0.00912273
0.000233871
0.000229673
0.00626391
0.000398839
0.0063217
0.000398146
0.00637955
0.000396955
0.0064374
0.000395305
0.00649518
0.000393231
0.00655284
0.000390772
0.00661032
0.000387961
0.00666758
0.000384831
0.00672457
0.000381415
0.00678125
0.000377741
0.00683759
0.000373839
0.00689354
0.000369733
0.00694908
0.000365448
0.00700417
0.000361008
0.00705879
0.000356433
0.00711292
0.000351742
0.00716653
0.000346955
0.00721961
0.000342088
0.00727213
0.000337155
0.00732408
0.000332172
0.00737545
0.000327152
0.00742623
0.000322105
0.00747641
0.000317043
0.00752597
0.000311977
0.00757492
0.000306914
0.00762325
0.000301863
0.00767095
0.000296831
0.00771803
0.000291826
0.00776447
0.000286852
0.00781029
0.000281916
0.00785548
0.000277022
0.00790004
0.000272175
0.00794398
0.000267377
0.00798729
0.000262633
0.00802999
0.000257946
0.00807208
0.000253317
0.00811356
0.00024875
0.00815444
0.000244246
0.00819472
0.000239806
0.00823441
0.000235432
0.00827352
0.000231125
0.00831205
0.000226886
0.00835002
0.000222716
0.00838743
0.000218614
0.00842428
0.000214582
0.00846059
0.000210619
0.00849636
0.000206725
0.00853161
0.0002029
0.00856633
0.000199145
0.000195458
0.0050835
0.000319935
0.00516228
0.000319368
0.00524084
0.000318396
0.0053191
0.00031705
0.00539697
0.000315359
0.00547439
0.000313352
0.00555129
0.000311057
0.00562762
0.000308501
0.00570333
0.000305711
0.00577836
0.00030271
0.00585267
0.000299523
0.00592624
0.000296169
0.00599902
0.00029267
0.00607098
0.000289044
0.0061421
0.000285309
0.00621236
0.000281482
0.00628174
0.000277576
0.00635023
0.000273606
0.0064178
0.000269585
0.00648445
0.000265523
0.00655017
0.000261433
0.00661495
0.000257323
0.00667879
0.000253202
0.00674169
0.000249079
0.00680364
0.00024496
0.00686465
0.000240852
0.00692472
0.000236762
0.00698385
0.000232694
0.00704205
0.000228654
0.00709932
0.000224646
0.00715567
0.000220673
0.00721111
0.000216738
0.00726564
0.000212846
0.00731927
0.000208999
0.00737202
0.000205198
0.00742389
0.000201446
0.0074749
0.000197744
0.00752505
0.000194095
0.00757436
0.000190498
0.00762283
0.000186956
0.00767049
0.000183469
0.00771734
0.000180038
0.00776339
0.000176662
0.00780866
0.000173343
0.00785316
0.000170081
0.00789691
0.000166875
0.00793991
0.000163726
0.00798218
0.000160633
0.00802372
0.000157596
0.000154615
0.00394205
0.00022368
0.00403837
0.000223618
0.00413448
0.000223252
0.00423028
0.000222601
0.00432564
0.000221684
0.00442048
0.000220521
0.0045147
0.000219134
0.00460821
0.00021754
0.00470096
0.00021576
0.00479286
0.000213811
0.00488386
0.000211711
0.0049739
0.000209476
0.00506295
0.000207123
0.00515095
0.000204664
0.00523788
0.000202115
0.00532371
0.000199487
0.0054084
0.000196792
0.00549193
0.00019404
0.00557429
0.000191243
0.00565547
0.000188409
0.00573545
0.000185545
0.00581422
0.000182661
0.00589178
0.000179762
0.00596813
0.000176856
0.00604326
0.000173948
0.00611717
0.000171043
0.00618988
0.000168146
0.00626138
0.000165261
0.00633169
0.000162392
0.0064008
0.000159542
0.00646873
0.000156715
0.00653549
0.000153913
0.00660109
0.000151139
0.00666554
0.000148394
0.00672886
0.000145681
0.00679105
0.000143002
0.00685214
0.000140357
0.00691214
0.000137747
0.00697106
0.000135175
0.00702892
0.00013264
0.00708573
0.000130144
0.00714151
0.000127687
0.00719628
0.000125269
0.00725005
0.000122891
0.00730284
0.000120552
0.00735467
0.000118254
0.00740555
0.000115996
0.0074555
0.000113777
0.00750453
0.000111599
0.00755267
0.00010946
0.00315011
0.000115009
0.00325874
0.000114993
0.00336717
0.000114821
0.00347527
0.000114501
0.00358291
0.000114043
0.00368997
0.000113458
0.00379635
0.000112755
0.00390195
0.000111944
0.00400667
0.000111036
0.00411044
0.00011004
0.00421319
0.000108964
0.00431485
0.000107817
0.00441536
0.000106608
0.00451469
0.000105343
0.00461277
0.000104031
0.00470958
0.000102677
0.00480508
0.000101288
0.00489925
9.98688e-05
0.00499207
9.84254e-05
0.00508352
9.69623e-05
0.00517358
9.54839e-05
0.00526225
9.39942e-05
0.00534951
9.24968e-05
0.00543537
9.09951e-05
0.00551983
8.94922e-05
0.00560288
8.79907e-05
0.00568453
8.64931e-05
0.00576479
8.50017e-05
0.00584367
8.35184e-05
0.00592116
8.20451e-05
0.00599729
8.05834e-05
0.00607207
7.91346e-05
0.00614551
7.77001e-05
0.00621762
7.6281e-05
0.00628843
7.48781e-05
0.00635794
7.34925e-05
0.00642617
7.21248e-05
0.00649314
7.07756e-05
0.00655887
6.94455e-05