/*--------------------------------*- C++ -*----------------------------------*\
  =========                 |
  \\      /  F ield         | OpenFOAM: The Open Source CFD Toolbox
   \\    /   O peration     | Website:  https://openfoam.org
    \\  /    A nd           | Version:  7
     \\/     M anipulation  |
\*---------------------------------------------------------------------------*/
FoamFile
{
    version     2.0;
    format      ascii;
    class       volScalarField;
    location    "30";
    object      p;
}
// * * * * * * * * * * * * * * * * * * * * * * * * * * * * * * * * * * * * * //

dimensions      [0 2 -2 0 0 0 0];

internalField   nonuniform List<scalar> 
14000
(
-0.258021
-0.261646
-0.263118
-0.264807
-0.266561
-0.268208
-0.269483
-0.270108
-0.270533
-0.268616
-0.259092
-0.262505
-0.263898
-0.265535
-0.267251
-0.268899
-0.270243
-0.27058
-0.271649
-0.268696
-0.261119
-0.264125
-0.265346
-0.266859
-0.268479
-0.270068
-0.271708
-0.271037
-0.274007
-0.268484
-0.263904
-0.266333
-0.267262
-0.268546
-0.269982
-0.271281
-0.273769
-0.270729
-0.277607
-0.267147
-0.267213
-0.26893
-0.269411
-0.270306
-0.271481
-0.272081
-0.276068
-0.26935
-0.280617
-0.265712
-0.270847
-0.27174
-0.271586
-0.271873
-0.272666
-0.272482
-0.276941
-0.267927
-0.282479
-0.264428
-0.274694
-0.274663
-0.273667
-0.273131
-0.273177
-0.272529
-0.276628
-0.266368
-0.280369
-0.264987
-0.278773
-0.277693
-0.275662
-0.274096
-0.273192
-0.272095
-0.274454
-0.266084
-0.273619
-0.264195
-0.283289
-0.280923
-0.27774
-0.274961
-0.272934
-0.271229
-0.270706
-0.265306
-0.264513
-0.258107
-0.288567
-0.284632
-0.28016
-0.276018
-0.272715
-0.269783
-0.26634
-0.261164
-0.253971
-0.246928
-0.294969
-0.289202
-0.28327
-0.277575
-0.272646
-0.267675
-0.261351
-0.253828
-0.242407
-0.232264
-0.302948
-0.295013
-0.287348
-0.27977
-0.272631
-0.264797
-0.25524
-0.244349
-0.231107
-0.218862
-0.312975
-0.302393
-0.29253
-0.282682
-0.272478
-0.26095
-0.247909
-0.234173
-0.219283
-0.205944
-0.325452
-0.311477
-0.299002
-0.286235
-0.27183
-0.255986
-0.239591
-0.223263
-0.207264
-0.193584
-0.340647
-0.321997
-0.307007
-0.289982
-0.270189
-0.249794
-0.230184
-0.211819
-0.195048
-0.18075
-0.35853
-0.333614
-0.316041
-0.292996
-0.267041
-0.242157
-0.219715
-0.199684
-0.182237
-0.167432
-0.37789
-0.346388
-0.32437
-0.29402
-0.261863
-0.232891
-0.207987
-0.18664
-0.168691
-0.15328
-0.396693
-0.360126
-0.330116
-0.291921
-0.254173
-0.221697
-0.194785
-0.172455
-0.154103
-0.138308
-0.412764
-0.373132
-0.33218
-0.286014
-0.24351
-0.20826
-0.179823
-0.156845
-0.13835
-0.122522
-0.424441
-0.382502
-0.329678
-0.275904
-0.229496
-0.192235
-0.162812
-0.139571
-0.121235
-0.105879
-0.430608
-0.385587
-0.32143
-0.261196
-0.211815
-0.173322
-0.143506
-0.120439
-0.102595
-0.0879835
-0.430286
-0.380478
-0.306569
-0.241464
-0.190201
-0.151287
-0.121745
-0.0994048
-0.0823398
-0.0682785
-0.422302
-0.366125
-0.284582
-0.216348
-0.164443
-0.126029
-0.0975026
-0.076512
-0.0604934
-0.0467833
-0.40526
-0.342019
-0.255146
-0.185638
-0.134513
-0.0976668
-0.0709137
-0.0517913
-0.0368414
-0.0245634
-0.377804
-0.308034
-0.218029
-0.149468
-0.100683
-0.0665145
-0.042208
-0.0250845
-0.0116358
-0.00161461
-0.339004
-0.264299
-0.173321
-0.108381
-0.063322
-0.0325758
-0.0114401
0.00328444
0.0146181
0.0218585
-0.288635
-0.210854
-0.12205
-0.0626147
-0.0225993
0.0037528
0.0210871
0.0327921
0.0412433
0.0451198
-0.22713
-0.147588
-0.0656063
-0.0128592
0.0209399
0.0420277
0.0549611
0.0628514
0.0673719
0.0671696
-0.155032
-0.0766988
-0.00470838
0.0398909
0.0665827
0.081734
0.0897276
0.093
0.0925068
0.0877513
-0.072852
-0.00181136
0.0595151
0.0946272
0.113494
0.122214
0.124818
0.122961
0.11723
0.108634
0.0159248
0.075799
0.125498
0.150243
0.160748
0.162661
0.159496
0.152332
0.142073
0.134469
0.108164
0.154504
0.191571
0.205491
0.207347
0.202227
0.193066
0.180754
0.167149
0.159134
0.200504
0.232196
0.256031
0.25905
0.252238
0.240098
0.225106
0.208172
0.191651
0.181205
0.289597
0.30664
0.317187
0.309581
0.294345
0.275404
0.254908
0.233843
0.21454
0.201019
0.372207
0.375625
0.373397
0.355788
0.332672
0.307423
0.281925
0.257122
0.234995
0.218261
0.445501
0.436996
0.423078
0.396427
0.366241
0.335388
0.305529
0.277471
0.252682
0.232857
0.507336
0.488579
0.46474
0.430391
0.394207
0.358631
0.325133
0.294342
0.26721
0.244633
0.55569
0.528697
0.497118
0.456731
0.415852
0.376599
0.340286
0.307364
0.278333
0.253484
0.588896
0.55613
0.519245
0.474709
0.430604
0.388832
0.350601
0.31622
0.285856
0.259373
0.605795
0.570056
0.530472
0.483825
0.438078
0.395027
0.355823
0.320701
0.289649
0.262305
0.605795
0.570056
0.530472
0.483825
0.438078
0.395027
0.355823
0.320701
0.289649
0.262305
0.588896
0.55613
0.519245
0.474709
0.430604
0.388832
0.350601
0.31622
0.285856
0.259373
0.55569
0.528697
0.497118
0.456731
0.415852
0.376599
0.340286
0.307364
0.278333
0.253484
0.507336
0.488579
0.46474
0.430391
0.394207
0.358631
0.325133
0.294342
0.26721
0.244633
0.445501
0.436996
0.423078
0.396427
0.366241
0.335388
0.305529
0.277471
0.252682
0.232857
0.372207
0.375625
0.373397
0.355788
0.332672
0.307423
0.281925
0.257122
0.234995
0.218261
0.289597
0.30664
0.317187
0.309581
0.294345
0.275404
0.254908
0.233843
0.21454
0.201019
0.200504
0.232196
0.256031
0.25905
0.252238
0.240098
0.225106
0.208172
0.191651
0.181205
0.108164
0.154504
0.191571
0.205491
0.207347
0.202227
0.193066
0.180754
0.167149
0.159134
0.0159248
0.075799
0.125498
0.150243
0.160748
0.162661
0.159496
0.152332
0.142073
0.134469
-0.072852
-0.00181136
0.059515
0.0946272
0.113494
0.122214
0.124818
0.122961
0.11723
0.108634
-0.155032
-0.0766988
-0.00470839
0.0398909
0.0665827
0.081734
0.0897276
0.093
0.0925068
0.0877513
-0.22713
-0.147588
-0.0656063
-0.0128592
0.0209399
0.0420277
0.0549611
0.0628514
0.0673719
0.0671696
-0.288635
-0.210854
-0.12205
-0.0626147
-0.0225993
0.00375279
0.0210871
0.0327921
0.0412433
0.0451198
-0.339004
-0.264299
-0.173321
-0.108381
-0.063322
-0.0325758
-0.0114401
0.00328444
0.0146181
0.0218585
-0.377804
-0.308034
-0.218029
-0.149468
-0.100683
-0.0665145
-0.042208
-0.0250845
-0.0116358
-0.00161461
-0.40526
-0.342019
-0.255146
-0.185638
-0.134513
-0.0976668
-0.0709137
-0.0517913
-0.0368414
-0.0245634
-0.422302
-0.366125
-0.284582
-0.216348
-0.164443
-0.126029
-0.0975026
-0.076512
-0.0604934
-0.0467833
-0.430286
-0.380478
-0.306569
-0.241464
-0.190201
-0.151287
-0.121745
-0.0994048
-0.0823398
-0.0682785
-0.430608
-0.385587
-0.32143
-0.261196
-0.211815
-0.173322
-0.143506
-0.120439
-0.102595
-0.0879835
-0.424441
-0.382502
-0.329678
-0.275904
-0.229496
-0.192235
-0.162812
-0.139571
-0.121235
-0.105879
-0.412764
-0.373132
-0.33218
-0.286014
-0.24351
-0.20826
-0.179823
-0.156845
-0.13835
-0.122522
-0.396693
-0.360126
-0.330116
-0.291921
-0.254173
-0.221697
-0.194785
-0.172455
-0.154103
-0.138308
-0.37789
-0.346388
-0.32437
-0.29402
-0.261863
-0.232891
-0.207987
-0.18664
-0.168691
-0.15328
-0.35853
-0.333614
-0.316041
-0.292996
-0.267041
-0.242157
-0.219715
-0.199684
-0.182237
-0.167432
-0.340647
-0.321997
-0.307007
-0.289982
-0.270189
-0.249794
-0.230184
-0.211819
-0.195048
-0.18075
-0.325452
-0.311477
-0.299002
-0.286235
-0.27183
-0.255986
-0.239591
-0.223263
-0.207264
-0.193584
-0.312975
-0.302393
-0.29253
-0.282682
-0.272478
-0.26095
-0.247909
-0.234173
-0.219283
-0.205944
-0.302948
-0.295013
-0.287347
-0.27977
-0.272631
-0.264797
-0.25524
-0.244349
-0.231107
-0.218862
-0.294969
-0.289202
-0.28327
-0.277575
-0.272646
-0.267675
-0.261351
-0.253828
-0.242407
-0.232264
-0.288567
-0.284632
-0.28016
-0.276018
-0.272715
-0.269783
-0.26634
-0.261164
-0.253971
-0.246928
-0.283289
-0.280923
-0.27774
-0.274961
-0.272934
-0.271229
-0.270706
-0.265306
-0.264513
-0.258108
-0.278773
-0.277693
-0.275662
-0.274096
-0.273192
-0.272095
-0.274454
-0.266084
-0.273619
-0.264195
-0.274694
-0.274663
-0.273667
-0.273131
-0.273177
-0.272529
-0.276628
-0.266368
-0.280369
-0.264987
-0.270847
-0.27174
-0.271586
-0.271873
-0.272666
-0.272482
-0.276941
-0.267927
-0.282479
-0.264428
-0.267213
-0.26893
-0.269411
-0.270306
-0.271481
-0.272081
-0.276068
-0.26935
-0.280617
-0.265712
-0.263904
-0.266333
-0.267262
-0.268546
-0.269982
-0.271281
-0.273769
-0.27073
-0.277607
-0.267147
-0.261119
-0.264125
-0.265346
-0.266859
-0.268479
-0.270068
-0.271708
-0.271037
-0.274007
-0.268484
-0.259092
-0.262505
-0.263898
-0.265535
-0.267251
-0.268899
-0.270243
-0.27058
-0.271649
-0.268696
-0.258021
-0.261646
-0.263118
-0.264807
-0.266561
-0.268208
-0.269483
-0.270108
-0.270533
-0.268616
-0.267836
-0.267079
-0.266221
-0.265276
-0.264247
-0.263145
-0.261974
-0.260741
-0.259449
-0.258101
-0.256699
-0.255245
-0.253738
-0.25218
-0.25057
-0.248909
-0.247197
-0.245434
-0.243618
-0.24175
-0.239837
-0.237874
-0.235859
-0.233792
-0.231671
-0.229495
-0.227262
-0.224972
-0.222624
-0.220215
-0.217745
-0.215212
-0.212616
-0.209954
-0.207225
-0.204429
-0.201565
-0.198631
-0.195626
-0.19255
-0.189403
-0.186184
-0.182893
-0.17953
-0.176096
-0.172591
-0.169017
-0.165375
-0.161666
-0.157893
-0.154059
-0.150167
-0.146221
-0.142225
-0.138182
-0.134099
-0.129978
-0.125827
-0.121651
-0.117456
-0.113248
-0.109034
-0.104821
-0.100617
-0.0964274
-0.0922605
-0.0881232
-0.0840228
-0.0799665
-0.075961
-0.0720132
-0.0681299
-0.0643171
-0.0605807
-0.0569264
-0.0533594
-0.0498846
-0.0465063
-0.0432284
-0.0400545
-0.0369875
-0.0340301
-0.0311843
-0.0284518
-0.0258339
-0.0233313
-0.0209445
-0.0186735
-0.0165179
-0.0144772
-0.0125503
-0.0107361
-0.00903314
-0.00743975
-0.0059541
-0.00457423
-0.00329805
-0.00212339
-0.00104805
-6.9765e-05
0.000813688
0.00160452
0.00230487
0.00291679
0.00344223
0.00388299
0.00424067
0.00451671
0.00471228
0.00482831
0.00486528
0.00482375
0.00470259
0.0045034
0.00421882
0.00386209
0.00338954
0.00289598
0.00209152
0.00154546
-0.268316
-0.267528
-0.266631
-0.265661
-0.264612
-0.263493
-0.262309
-0.261066
-0.259768
-0.258416
-0.257012
-0.255557
-0.254051
-0.252493
-0.250884
-0.249224
-0.247511
-0.245744
-0.243932
-0.242079
-0.240173
-0.238216
-0.236208
-0.234147
-0.232032
-0.229863
-0.227638
-0.225356
-0.223015
-0.220615
-0.218153
-0.215629
-0.213041
-0.210388
-0.207669
-0.204883
-0.202028
-0.199104
-0.196109
-0.193044
-0.189907
-0.186698
-0.183417
-0.180064
-0.176639
-0.173144
-0.169579
-0.165946
-0.162246
-0.158482
-0.154657
-0.150773
-0.146834
-0.142843
-0.138806
-0.134726
-0.13061
-0.126462
-0.122288
-0.118094
-0.113887
-0.109673
-0.105461
-0.101253
-0.0970574
-0.0928883
-0.0887476
-0.0846427
-0.080581
-0.0765696
-0.0726153
-0.0687247
-0.0649041
-0.0611595
-0.0574967
-0.0539208
-0.0504367
-0.0470488
-0.0437612
-0.0405773
-0.0375002
-0.0345326
-0.0316765
-0.0289337
-0.0263053
-0.0237924
-0.0213952
-0.0191138
-0.016948
-0.0148971
-0.0129601
-0.0111359
-0.00942297
-0.00781974
-0.00632437
-0.00493486
-0.00364916
-0.00246507
-0.00138039
-0.000392858
0.00049977
0.00129971
0.00200912
0.00263007
0.00316452
0.00361431
0.00398106
0.00426627
0.00447111
0.00459666
0.00464335
0.00461203
0.00450137
0.00431388
0.00404097
0.00369901
0.00324008
0.00276559
0.00198447
0.00143996
-0.269195
-0.268253
-0.267277
-0.266278
-0.265208
-0.264072
-0.262875
-0.261624
-0.26032
-0.258967
-0.257565
-0.256115
-0.254615
-0.253066
-0.251462
-0.249803
-0.248097
-0.246353
-0.244557
-0.242706
-0.240806
-0.238856
-0.236855
-0.234803
-0.232697
-0.230538
-0.228323
-0.226052
-0.223723
-0.221335
-0.218886
-0.216376
-0.213802
-0.211165
-0.208461
-0.20569
-0.202852
-0.199944
-0.196966
-0.193918
-0.190798
-0.187607
-0.184343
-0.181008
-0.177601
-0.174123
-0.170576
-0.166959
-0.163277
-0.159532
-0.155707
-0.151835
-0.14791
-0.143932
-0.139906
-0.135837
-0.131729
-0.127589
-0.123421
-0.119232
-0.115028
-0.110817
-0.106604
-0.102397
-0.0982031
-0.0940298
-0.0898841
-0.0857734
-0.0817049
-0.0776856
-0.0737224
-0.0698219
-0.0659905
-0.0622344
-0.058559
-0.0549699
-0.051472
-0.0480697
-0.044767
-0.0415676
-0.0384746
-0.0354907
-0.0326179
-0.0298582
-0.0272127
-0.0246824
-0.0222677
-0.0199687
-0.0177851
-0.0157164
-0.0137615
-0.0119194
-0.0101886
-0.0085674
-0.0070541
-0.00564669
-0.00434308
-0.00314112
-0.00203857
-0.00103317
-0.000122668
0.000695172
0.00142253
0.00206151
0.00261411
0.0030822
0.00346749
0.00377154
0.0039956
0.00414094
0.00420797
0.00419813
0.00410959
0.00394664
0.00369856
0.00338678
0.00295747
0.00251962
0.00178952
0.00125891
-0.271159
-0.269006
-0.267977
-0.266934
-0.265829
-0.26469
-0.263474
-0.262236
-0.260941
-0.259597
-0.258203
-0.256761
-0.255268
-0.253723
-0.252109
-0.250487
-0.248789
-0.247045
-0.245255
-0.24342
-0.241536
-0.239602
-0.237618
-0.235583
-0.233495
-0.231352
-0.229155
-0.226901
-0.224589
-0.222219
-0.219788
-0.217296
-0.21474
-0.212121
-0.209436
-0.206685
-0.203866
-0.200978
-0.198021
-0.194993
-0.191894
-0.188723
-0.18548
-0.182166
-0.17878
-0.175323
-0.171796
-0.1682
-0.164537
-0.160808
-0.157015
-0.153164
-0.149255
-0.145294
-0.141283
-0.137229
-0.133136
-0.129008
-0.124852
-0.120674
-0.11648
-0.112277
-0.108071
-0.103869
-0.0996787
-0.0955078
-0.0913633
-0.0872524
-0.0831822
-0.0791599
-0.0751923
-0.0712861
-0.0674478
-0.0636834
-0.0599986
-0.0563989
-0.0528892
-0.0494742
-0.0461577
-0.0429436
-0.0398349
-0.0368345
-0.0339444
-0.0311666
-0.0285022
-0.0259524
-0.0235175
-0.0211978
-0.0189929
-0.0169023
-0.0149251
-0.0130602
-0.0113062
-0.00966143
-0.00812415
-0.00669241
-0.00536415
-0.0041372
-0.00300933
-0.00197831
-0.00104185
-0.000197721
0.000556292
0.00122233
0.00180242
0.00229853
0.00271241
0.00304578
0.00329994
0.0034765
0.0035758
0.00360009
0.00354695
0.00342285
0.00321487
0.00294931
0.0025688
0.00218393
0.00153521
0.00104213
-0.270012
-0.269752
-0.268537
-0.267366
-0.26626
-0.265124
-0.26394
-0.262714
-0.261444
-0.260126
-0.258763
-0.257353
-0.255894
-0.254384
-0.252822
-0.251198
-0.24952
-0.247795
-0.246023
-0.244203
-0.242332
-0.240411
-0.238439
-0.236415
-0.234339
-0.232209
-0.230024
-0.227784
-0.225487
-0.223131
-0.220716
-0.218239
-0.215701
-0.213099
-0.210432
-0.2077
-0.2049
-0.202032
-0.199094
-0.196087
-0.19301
-0.189861
-0.186641
-0.18335
-0.179987
-0.176554
-0.173051
-0.169479
-0.16584
-0.162136
-0.158367
-0.154539
-0.150654
-0.146716
-0.14273
-0.138699
-0.134627
-0.130522
-0.126387
-0.122229
-0.118054
-0.113869
-0.10968
-0.105494
-0.101319
-0.0971612
-0.0930286
-0.0889281
-0.084867
-0.0808522
-0.0768905
-0.0729887
-0.0691531
-0.0653899
-0.0617046
-0.0581029
-0.0545894
-0.051169
-0.0478456
-0.0446228
-0.041504
-0.0384918
-0.0355885
-0.0327959
-0.0301154
-0.0275479
-0.0250941
-0.0227541
-0.0205276
-0.0184142
-0.016413
-0.014523
-0.0127428
-0.0110709
-0.00950542
-0.00804455
-0.00668624
-0.00542837
-0.00426873
-0.00320509
-0.0022352
-0.00135679
-0.000567652
0.000134395
0.000751429
0.00128549
0.00173841
0.0021121
0.00240791
0.00262785
0.00277223
0.00284417
0.00284081
0.00277049
0.00261923
0.00241577
0.0021046
0.00178868
0.00124857
0.000820648
-0.267072
-0.268022
-0.267784
-0.267048
-0.266102
-0.265057
-0.263961
-0.262808
-0.261584
-0.260296
-0.258956
-0.257567
-0.256123
-0.254618
-0.253046
-0.251442
-0.249812
-0.248132
-0.246397
-0.24461
-0.242772
-0.240884
-0.238945
-0.236952
-0.234905
-0.232804
-0.230646
-0.228432
-0.22616
-0.223828
-0.221436
-0.218982
-0.216466
-0.213886
-0.211242
-0.208531
-0.205754
-0.202909
-0.199995
-0.197011
-0.193958
-0.190834
-0.187639
-0.184374
-0.181038
-0.177632
-0.174157
-0.170614
-0.167005
-0.16333
-0.159594
-0.155797
-0.151945
-0.14804
-0.144085
-0.140087
-0.136048
-0.131975
-0.127873
-0.123748
-0.119605
-0.115451
-0.111293
-0.107137
-0.102991
-0.0988611
-0.0947551
-0.0906799
-0.0866425
-0.0826497
-0.0787084
-0.0748251
-0.071006
-0.0672572
-0.0635843
-0.0599926
-0.056487
-0.0530721
-0.0497518
-0.0465299
-0.0434095
-0.0403934
-0.0374838
-0.0346825
-0.031991
-0.0294102
-0.0269409
-0.0245831
-0.0223368
-0.0202015
-0.0181764
-0.0162606
-0.0144528
-0.0127513
-0.0111547
-0.00966105
-0.00826836
-0.00697457
-0.00577755
-0.00467507
-0.00366492
-0.00274486
-0.00191265
-0.00116609
-0.000503069
7.85505e-05
0.000580666
0.00100538
0.00135416
0.00162938
0.00183142
0.0019641
0.00202461
0.0020222
0.0019437
0.00181689
0.0015938
0.00136178
0.000949852
0.000611503
-0.263542
-0.264308
-0.265117
-0.265141
-0.264511
-0.263694
-0.262876
-0.261972
-0.260921
-0.259758
-0.258532
-0.257252
-0.25591
-0.254496
-0.252994
-0.251384
-0.249735
-0.248114
-0.246452
-0.244722
-0.242924
-0.241063
-0.239145
-0.237171
-0.235142
-0.233059
-0.230922
-0.22873
-0.22648
-0.22417
-0.2218
-0.219368
-0.216875
-0.214318
-0.211697
-0.20901
-0.206257
-0.203437
-0.20055
-0.197594
-0.194568
-0.191474
-0.188309
-0.185076
-0.181773
-0.178402
-0.174962
-0.171456
-0.167885
-0.164251
-0.160556
-0.156802
-0.152993
-0.149132
-0.145223
-0.141271
-0.13728
-0.133254
-0.1292
-0.125122
-0.121027
-0.116921
-0.112811
-0.108702
-0.104602
-0.100517
-0.0964548
-0.0924218
-0.0884249
-0.0844707
-0.0805659
-0.0767167
-0.0729293
-0.0692096
-0.065563
-0.0619948
-0.0585097
-0.0551122
-0.0518062
-0.0485953
-0.0454827
-0.0424711
-0.0395627
-0.0367595
-0.0340628
-0.0314737
-0.0289928
-0.0266205
-0.0243567
-0.0222011
-0.0201529
-0.0182112
-0.0163749
-0.0146425
-0.0130126
-0.0114832
-0.0100527
-0.00871888
-0.00747977
-0.0063332
-0.00527699
-0.00430891
-0.00342676
-0.0026283
-0.0019114
-0.00127384
-0.000713632
-0.000228504
0.000183148
0.000523984
0.000794656
0.000999292
0.00113579
0.00121311
0.00122074
0.00118258
0.00106182
0.0009261
0.00065313
0.000421835
-0.260309
-0.259997
-0.261364
-0.26171
-0.261088
-0.26047
-0.260039
-0.259473
-0.258646
-0.257652
-0.256574
-0.255423
-0.254187
-0.252873
-0.251482
-0.250011
-0.248432
-0.246741
-0.245075
-0.243481
-0.24184
-0.240117
-0.238312
-0.236429
-0.234472
-0.232453
-0.230378
-0.228246
-0.226052
-0.223795
-0.221475
-0.219093
-0.216647
-0.214137
-0.211561
-0.208919
-0.20621
-0.203433
-0.200588
-0.197675
-0.194693
-0.191642
-0.188523
-0.185335
-0.182078
-0.178754
-0.175364
-0.171908
-0.168389
-0.164808
-0.161167
-0.15747
-0.153718
-0.149916
-0.146068
-0.142177
-0.138248
-0.134285
-0.130295
-0.126281
-0.122251
-0.11821
-0.114163
-0.110118
-0.10608
-0.102057
-0.0980546
-0.0940799
-0.0901393
-0.0862392
-0.0823858
-0.0785854
-0.0748438
-0.0711668
-0.0675596
-0.0640272
-0.0605743
-0.0572052
-0.0539238
-0.0507336
-0.0476377
-0.0446388
-0.0417391
-0.0389405
-0.0362445
-0.0336523
-0.0311644
-0.0287813
-0.0265031
-0.0243294
-0.0222597
-0.0202932
-0.0184289
-0.0166654
-0.0150013
-0.013435
-0.0119646
-0.0105884
-0.00930424
-0.00811011
-0.00700389
-0.00598339
-0.00504642
-0.00419076
-0.00341423
-0.00271455
-0.00208966
-0.00153716
-0.00105523
-0.000641094
-0.00029363
-8.80395e-06
0.00021251
0.000378077
0.000481112
0.00054004
0.00053047
0.000499847
0.000369373
0.000255259
-0.254507
-0.254591
-0.256519
-0.256539
-0.255672
-0.255366
-0.255432
-0.255287
-0.25483
-0.254205
-0.253473
-0.252624
-0.251651
-0.250569
-0.249387
-0.248106
-0.246725
-0.245228
-0.243569
-0.241765
-0.240033
-0.2384
-0.236723
-0.23495
-0.233078
-0.231132
-0.229127
-0.227062
-0.224928
-0.222724
-0.220455
-0.218123
-0.215727
-0.213267
-0.210742
-0.20815
-0.205493
-0.202769
-0.199977
-0.197119
-0.194193
-0.1912
-0.188139
-0.185011
-0.181817
-0.178557
-0.175233
-0.171845
-0.168395
-0.164886
-0.161319
-0.157696
-0.154022
-0.150299
-0.14653
-0.142721
-0.138874
-0.134995
-0.131089
-0.12716
-0.123215
-0.119258
-0.115296
-0.111334
-0.107379
-0.103436
-0.0995129
-0.0956149
-0.0917484
-0.0879195
-0.0841342
-0.0803983
-0.0767174
-0.0730971
-0.0695425
-0.0660585
-0.0626494
-0.0593196
-0.0560727
-0.0529123
-0.0498414
-0.0468626
-0.0439782
-0.0411902
-0.0385001
-0.0359089
-0.0334177
-0.0310267
-0.0287363
-0.0265462
-0.0244561
-0.0224653
-0.0205728
-0.0187775
-0.0170781
-0.0154732
-0.013961
-0.0125399
-0.0112078
-0.00996295
-0.00880315
-0.00772633
-0.00673034
-0.00581297
-0.00497202
-0.0042052
-0.00351033
-0.00288497
-0.00232706
-0.00183383
-0.00140356
-0.00103261
-0.000720382
-0.000460782
-0.000256566
-9.51575e-05
1.08427e-05
9.07512e-05
0.000102181
0.000111488
-0.246389
-0.248512
-0.250108
-0.249116
-0.248032
-0.247931
-0.248157
-0.248179
-0.247996
-0.2477
-0.247296
-0.246767
-0.246118
-0.245356
-0.244485
-0.243503
-0.242415
-0.241224
-0.239933
-0.238514
-0.236905
-0.23517
-0.233549
-0.231932
-0.230222
-0.228444
-0.226618
-0.224729
-0.222758
-0.220705
-0.218576
-0.216377
-0.214107
-0.211766
-0.209355
-0.206873
-0.204321
-0.2017
-0.19901
-0.19625
-0.193422
-0.190524
-0.187559
-0.184526
-0.181427
-0.178262
-0.175032
-0.171739
-0.168384
-0.164971
-0.161499
-0.157974
-0.154396
-0.15077
-0.147099
-0.143386
-0.139636
-0.135853
-0.132043
-0.128209
-0.124356
-0.120491
-0.116619
-0.112745
-0.108876
-0.105017
-0.101174
-0.0973533
-0.0935609
-0.0898025
-0.0860835
-0.0824096
-0.0787863
-0.0752189
-0.0717125
-0.0682717
-0.064901
-0.0616045
-0.058386
-0.0552488
-0.0521962
-0.0492307
-0.0463547
-0.0435703
-0.040879
-0.0382822
-0.0357808
-0.0333754
-0.0310663
-0.0288536
-0.0267369
-0.0247158
-0.0227895
-0.020957
-0.0192172
-0.0175686
-0.0160098
-0.0145391
-0.0131547
-0.0118548
-0.0106372
-0.00950005
-0.00844111
-0.00745821
-0.0065491
-0.00571147
-0.004943
-0.00424127
-0.00360388
-0.00302819
-0.00251184
-0.00205167
-0.00164559
-0.00128931
-0.000981734
-0.000715791
-0.000493805
-0.000301938
-0.000153297
-1.91517e-05
-0.233655
-0.240748
-0.241766
-0.240359
-0.239265
-0.23906
-0.239321
-0.239619
-0.239782
-0.239786
-0.23965
-0.239396
-0.239031
-0.238555
-0.237966
-0.237263
-0.236449
-0.235528
-0.234504
-0.233378
-0.23215
-0.230791
-0.229246
-0.22757
-0.225795
-0.224037
-0.222285
-0.220484
-0.218607
-0.21665
-0.214618
-0.212515
-0.21034
-0.208092
-0.205773
-0.203383
-0.200921
-0.198389
-0.195787
-0.193116
-0.190376
-0.187568
-0.184692
-0.18175
-0.178742
-0.175671
-0.172536
-0.169341
-0.166086
-0.162774
-0.159407
-0.155989
-0.152521
-0.149007
-0.14545
-0.141855
-0.138225
-0.134565
-0.130878
-0.12717
-0.123446
-0.11971
-0.115969
-0.112226
-0.108488
-0.10476
-0.101048
-0.0973573
-0.0936932
-0.0900611
-0.0864663
-0.0829142
-0.0794096
-0.0759574
-0.0725623
-0.0692285
-0.0659602
-0.0627612
-0.0596349
-0.0565845
-0.0536128
-0.0507224
-0.0479155
-0.045194
-0.0425593
-0.0400127
-0.0375551
-0.0351872
-0.0329093
-0.0307214
-0.0286234
-0.0266148
-0.024695
-0.0228631
-0.0211181
-0.0194587
-0.0178835
-0.0163911
-0.0149797
-0.0136476
-0.012393
-0.0112138
-0.010108
-0.00907351
-0.00810814
-0.00720962
-0.00637559
-0.0056037
-0.00489138
-0.00423616
-0.00363517
-0.00308587
-0.00258482
-0.00212956
-0.00171561
-0.0013409
-0.000998958
-0.000688968
-0.000400247
-0.000135541
-0.214694
-0.22407
-0.227133
-0.22657
-0.225557
-0.22535
-0.225848
-0.226556
-0.227128
-0.227464
-0.227598
-0.227585
-0.227454
-0.22721
-0.226844
-0.226351
-0.225728
-0.224975
-0.224091
-0.223076
-0.221932
-0.220677
-0.219357
-0.218045
-0.216804
-0.215515
-0.214065
-0.212466
-0.210766
-0.208986
-0.207131
-0.205199
-0.203189
-0.201101
-0.198939
-0.196702
-0.194392
-0.192009
-0.189556
-0.187033
-0.184441
-0.181781
-0.179055
-0.176263
-0.173407
-0.170489
-0.16751
-0.164473
-0.161379
-0.158231
-0.155031
-0.151783
-0.148488
-0.145151
-0.141774
-0.138361
-0.134917
-0.131445
-0.127948
-0.124433
-0.120903
-0.117363
-0.113818
-0.110272
-0.106731
-0.103199
-0.099682
-0.0961844
-0.0927111
-0.0892671
-0.0858571
-0.0824858
-0.0791575
-0.0758767
-0.0726474
-0.0694735
-0.0663586
-0.0633063
-0.0603195
-0.0574012
-0.054554
-0.0517801
-0.0490817
-0.0464604
-0.0439176
-0.0414547
-0.0390724
-0.0367714
-0.0345521
-0.0324146
-0.030359
-0.0283848
-0.0264915
-0.0246786
-0.022945
-0.0212897
-0.0197116
-0.0182093
-0.0167813
-0.0154261
-0.0141419
-0.012927
-0.0117794
-0.0106973
-0.0096784
-0.00872073
-0.00782191
-0.00697975
-0.00619158
-0.00545521
-0.00476739
-0.0041262
-0.00352724
-0.00296955
-0.00244623
-0.00195908
-0.00149539
-0.00106404
-0.00063772
-0.000241008
-0.197684
-0.20775
-0.211934
-0.212338
-0.211903
-0.212056
-0.212879
-0.213936
-0.214858
-0.215514
-0.215935
-0.216189
-0.216319
-0.216333
-0.216225
-0.215991
-0.21563
-0.215147
-0.21455
-0.213853
-0.213068
-0.21221
-0.21128
-0.210261
-0.20911
-0.207779
-0.206338
-0.204843
-0.203293
-0.201674
-0.199975
-0.198197
-0.196339
-0.194404
-0.192393
-0.190308
-0.188149
-0.185919
-0.183617
-0.181246
-0.178806
-0.1763
-0.173728
-0.171092
-0.168394
-0.165635
-0.162818
-0.159944
-0.157016
-0.154036
-0.151006
-0.14793
-0.144811
-0.14165
-0.138453
-0.135221
-0.13196
-0.128672
-0.125361
-0.122033
-0.11869
-0.115337
-0.111978
-0.108619
-0.105263
-0.101915
-0.0985792
-0.0952607
-0.0919635
-0.0886922
-0.085451
-0.0822441
-0.0790755
-0.0759492
-0.0728688
-0.069838
-0.0668599
-0.0639378
-0.0610745
-0.0582727
-0.0555347
-0.0528628
-0.0502588
-0.0477244
-0.045261
-0.0428697
-0.0405515
-0.038307
-0.0361368
-0.0340409
-0.0320195
-0.0300724
-0.0281992
-0.0263993
-0.024672
-0.0230164
-0.0214315
-0.0199162
-0.018469
-0.0170887
-0.0157735
-0.014522
-0.0133324
-0.0122027
-0.011131
-0.0101154
-0.00915354
-0.00824338
-0.00738221
-0.00656811
-0.00579761
-0.00506927
-0.00437811
-0.0037243
-0.0030994
-0.00250791
-0.00193317
-0.00139054
-0.000841976
-0.000326061
-0.183199
-0.192749
-0.197412
-0.198661
-0.198931
-0.199546
-0.200679
-0.202
-0.203187
-0.204113
-0.204794
-0.205296
-0.205661
-0.205905
-0.206025
-0.206017
-0.20588
-0.205621
-0.205245
-0.204758
-0.20416
-0.203448
-0.202619
-0.201675
-0.200628
-0.199506
-0.198332
-0.197074
-0.195718
-0.194271
-0.192737
-0.191121
-0.189424
-0.187649
-0.185796
-0.183868
-0.181865
-0.179789
-0.177643
-0.175426
-0.173142
-0.170791
-0.168375
-0.165896
-0.163356
-0.160757
-0.158101
-0.15539
-0.152626
-0.149812
-0.146951
-0.144045
-0.141096
-0.138109
-0.135086
-0.132031
-0.128946
-0.125837
-0.122705
-0.119556
-0.116392
-0.113219
-0.110039
-0.106858
-0.103678
-0.100506
-0.097343
-0.0941951
-0.0910657
-0.087959
-0.0848786
-0.0818285
-0.0788124
-0.0758337
-0.0728958
-0.070002
-0.0671553
-0.0643586
-0.0616144
-0.0589253
-0.0562935
-0.0537209
-0.0512093
-0.0487604
-0.0463754
-0.0440555
-0.0418016
-0.0396144
-0.0374944
-0.0354418
-0.0334568
-0.0315392
-0.0296888
-0.0279052
-0.0261878
-0.0245358
-0.0229483
-0.0214243
-0.0199626
-0.018562
-0.0172211
-0.0159383
-0.014712
-0.0135406
-0.0124221
-0.0113548
-0.0103363
-0.00936491
-0.00843787
-0.00755348
-0.00670821
-0.00590105
-0.00512669
-0.00438616
-0.00367009
-0.00298494
-0.00231149
-0.00166953
-0.00101421
-0.000393798
-0.170027
-0.179022
-0.183923
-0.185811
-0.186699
-0.187749
-0.189167
-0.190711
-0.192119
-0.193277
-0.194195
-0.194924
-0.195507
-0.195959
-0.196282
-0.196473
-0.196533
-0.196464
-0.196271
-0.195959
-0.195528
-0.194984
-0.194331
-0.19358
-0.192744
-0.191825
-0.190812
-0.189701
-0.188495
-0.187198
-0.185815
-0.184349
-0.182801
-0.181175
-0.17947
-0.17769
-0.175835
-0.173907
-0.171908
-0.16984
-0.167705
-0.165504
-0.163239
-0.160912
-0.158525
-0.15608
-0.153579
-0.151025
-0.14842
-0.145766
-0.143065
-0.140322
-0.137538
-0.134716
-0.13186
-0.128972
-0.126056
-0.123115
-0.120153
-0.117173
-0.114179
-0.111175
-0.108164
-0.105149
-0.102136
-0.0991272
-0.0961267
-0.0931382
-0.0901656
-0.0872123
-0.0842819
-0.0813779
-0.0785037
-0.0756624
-0.0728571
-0.0700909
-0.0673664
-0.0646864
-0.0620531
-0.059469
-0.056936
-0.054456
-0.0520308
-0.0496617
-0.0473502
-0.0450972
-0.0429036
-0.0407703
-0.0386977
-0.0366861
-0.0347357
-0.0328464
-0.0310182
-0.0292507
-0.0275434
-0.0258956
-0.0243066
-0.0227755
-0.0213013
-0.0198829
-0.0185189
-0.0172079
-0.0159486
-0.0147393
-0.0135783
-0.0124639
-0.0113939
-0.0103668
-0.0093798
-0.00843151
-0.00751841
-0.00663982
-0.00579031
-0.00497159
-0.00417372
-0.00340463
-0.00264346
-0.00191324
-0.0011644
-0.000451886
-0.158223
-0.166701
-0.171666
-0.17398
-0.17534
-0.176753
-0.178421
-0.180159
-0.181755
-0.183112
-0.184235
-0.185167
-0.185944
-0.186582
-0.187086
-0.187455
-0.187689
-0.187791
-0.187767
-0.187622
-0.187361
-0.186988
-0.186511
-0.185933
-0.185258
-0.184484
-0.183611
-0.182642
-0.18158
-0.180429
-0.179191
-0.17787
-0.176467
-0.174984
-0.173422
-0.171784
-0.170072
-0.168287
-0.166431
-0.164506
-0.162514
-0.160457
-0.158337
-0.156156
-0.153916
-0.151618
-0.149266
-0.146862
-0.144408
-0.141906
-0.139359
-0.13677
-0.134141
-0.131475
-0.128776
-0.126046
-0.123288
-0.120506
-0.117702
-0.114881
-0.112045
-0.109198
-0.106344
-0.103485
-0.100625
-0.0977687
-0.0949183
-0.0920775
-0.0892499
-0.0864386
-0.0836469
-0.080878
-0.0781351
-0.0754209
-0.0727384
-0.0700903
-0.067479
-0.0649072
-0.0623769
-0.0598904
-0.0574494
-0.0550559
-0.0527113
-0.0504171
-0.0481745
-0.0459845
-0.0438481
-0.041766
-0.0397386
-0.0377664
-0.0358496
-0.0339882
-0.0321821
-0.0304311
-0.0287348
-0.0270927
-0.025504
-0.0239681
-0.0224839
-0.0210506
-0.0196669
-0.0183316
-0.0170433
-0.0158006
-0.0146018
-0.0134455
-0.0123296
-0.0112526
-0.0102121
-0.00920659
-0.00823282
-0.00729039
-0.00637382
-0.0054854
-0.00461487
-0.0037713
-0.00293267
-0.0021245
-0.00129373
-0.000500495
-0.147879
-0.155739
-0.160628
-0.163214
-0.164923
-0.166618
-0.168487
-0.170384
-0.172133
-0.173652
-0.174944
-0.176046
-0.17699
-0.177791
-0.178453
-0.178978
-0.179367
-0.179624
-0.179755
-0.179764
-0.179657
-0.179438
-0.17911
-0.178677
-0.17814
-0.177502
-0.176766
-0.175935
-0.175013
-0.174002
-0.172903
-0.17172
-0.170453
-0.169106
-0.167681
-0.166178
-0.164602
-0.162952
-0.161232
-0.159443
-0.157588
-0.155668
-0.153686
-0.151643
-0.149542
-0.147385
-0.145174
-0.142912
-0.1406
-0.138242
-0.13584
-0.133396
-0.130913
-0.128394
-0.125842
-0.123259
-0.120649
-0.118015
-0.11536
-0.112686
-0.109997
-0.107296
-0.104587
-0.101873
-0.0991557
-0.09644
-0.0937285
-0.0910244
-0.0883309
-0.0856509
-0.0829875
-0.0803436
-0.077722
-0.0751254
-0.0725565
-0.0700177
-0.0675115
-0.0650399
-0.0626053
-0.0602094
-0.0578541
-0.0555411
-0.0532718
-0.0510476
-0.0488696
-0.0467389
-0.0446564
-0.0426226
-0.0406383
-0.0387038
-0.0368193
-0.0349849
-0.0332006
-0.0314663
-0.0297815
-0.028146
-0.026559
-0.02502
-0.0235281
-0.0220824
-0.0206819
-0.0193255
-0.0180118
-0.0167397
-0.0155076
-0.0143141
-0.0131574
-0.012036
-0.0109476
-0.00989117
-0.00886332
-0.00786401
-0.00688779
-0.00593745
-0.0050025
-0.004093
-0.00318603
-0.00230919
-0.00140666
-0.000542758
-0.138723
-0.145964
-0.150709
-0.153465
-0.155424
-0.157329
-0.159349
-0.161366
-0.163232
-0.164877
-0.166306
-0.167549
-0.168633
-0.169572
-0.170371
-0.171033
-0.171559