/*--------------------------------*- C++ -*----------------------------------*\
  =========                 |
  \\      /  F ield         | OpenFOAM: The Open Source CFD Toolbox
   \\    /   O peration     | Website:  https://openfoam.org
    \\  /    A nd           | Version:  7
     \\/     M anipulation  |
\*---------------------------------------------------------------------------*/
FoamFile
{
    version     2.0;
    format      ascii;
    class       surfaceScalarField;
    location    "30";
    object      phi;
}
// * * * * * * * * * * * * * * * * * * * * * * * * * * * * * * * * * * * * * //

dimensions      [0 3 -1 0 0 0 0];

internalField   nonuniform List<scalar> 
27710
(
-7.54274e-05
7.54271e-05
3.22041e-10
-0.000227603
0.000152175
7.5436e-10
-0.000426721
0.000199117
1.08498e-09
-0.000656985
0.000230263
1.37973e-09
-0.000910991
0.000254004
1.70938e-09
-0.00118551
0.000274514
2.1076e-09
-0.00147562
0.000290106
2.56458e-09
-0.00176543
0.000289813
3.03112e-09
-0.00208259
0.000317154
3.40015e-09
0.000254704
3.61103e-09
-0.0023373
-7.00068e-05
0.000145434
-0.000211918
0.000294086
-0.000396449
0.000383648
-0.000606924
0.000440737
-0.000834102
0.000481183
-0.00107256
0.000512968
-0.00131962
0.000537171
-0.00153956
0.000509748
-0.00179515
0.000572745
0.000387704
-0.00192815
-6.01251e-05
0.000205559
-0.000182825
0.000416786
-0.000339553
0.000540377
-0.000511828
0.000613012
-0.000686928
0.000656283
-0.000852587
0.000678628
-0.0010127
0.000697288
-0.00109404
0.000591088
-0.00121562
0.000694322
0.000295203
-0.00112312
-4.75276e-05
0.000253087
-0.000144505
0.000513763
-0.000262808
0.000658679
-0.000380976
0.00073118
-0.000481989
0.000757296
-0.000540754
0.000737392
-0.000560354
0.000716888
-0.000446662
0.000477397
-0.000305945
0.000553605
-8.20097e-05
7.12682e-05
-3.43971e-05
0.000287484
-0.000102231
0.000581597
-0.000174793
0.000731242
-0.00022584
0.000782227
-0.000231454
0.00076291
-0.000161086
0.000667024
4.14257e-05
0.000514377
0.000395104
0.000123719
0.000900772
4.79359e-05
-0.000970077
0.00178884
-2.28522e-05
0.000310336
-6.10713e-05
0.000619816
-8.34815e-05
0.000753652
-5.71319e-05
0.000755877
5.81195e-05
0.000647658
0.00029459
0.000430554
0.000747292
6.16748e-05
0.00146097
-0.00058996
0.00243592
-0.000927016
-0.00251939
0.00398523
-1.43681e-05
0.000324704
-2.41256e-05
0.000629574
7.55698e-06
0.00072197
0.000125446
0.000637988
0.000386039
0.000387065
0.000852353
-3.57605e-05
0.00164318
-0.000729154
0.00276794
-0.00171472
0.00431485
-0.00247392
-0.00467467
0.00647013
-9.47087e-06
0.000334175
8.928e-06
0.000611175
0.000102339
0.000628558
0.000335716
0.000404611
0.00079394
-7.11589e-05
0.0015723
-0.000814124
0.00276187
-0.00191872
0.00435818
-0.00331103
0.00644853
-0.00456427
-0.0070518
0.00882566
-6.37758e-06
0.000340552
4.25559e-05
0.000562241
0.000215755
0.00045536
0.000607276
1.30898e-05
0.00133289
-0.000796772
0.00250156
-0.00198279
0.00409192
-0.00350908
0.00606473
-0.00528384
0.00842902
-0.00692856
-0.00916767
0.0105449
-1.97523e-06
0.000342528
8.77561e-05
0.00047251
0.000372416
0.000170699
0.000985015
-0.000599509
0.00204494
-0.0018567
0.00358682
-0.00352467
0.0054648
-0.00538706
0.00751297
-0.00733201
0.00961558
-0.00903117
-0.0108052
0.0112531
6.21197e-06
0.000336316
0.000156869
0.000321853
0.000600398
-0.000272829
0.00149547
-0.00149459
0.00289293
-0.00325416
0.00465666
-0.0052884
0.00655043
-0.00728084
0.00833693
-0.00911851
0.00986242
-0.0105567
-0.0119355
0.0109927
2.1825e-05
0.000314491
0.000262434
8.12443e-05
0.000918514
-0.000928909
0.00211226
-0.00268833
0.00372454
-0.00486644
0.00546475
-0.00702861
0.00708871
-0.00890479
0.00841936
-0.0104492
0.00953711
-0.0116744
-0.012899
0.0105006
4.80729e-05
0.000266418
0.000414138
-0.000284821
0.00131801
-0.00183278
0.00273355
-0.00410387
0.00434728
-0.00648017
0.00584599
-0.00852733
0.00708361
-0.0101424
0.00806537
-0.0114309
0.00891492
-0.012524
-0.0136297
0.0096457
8.72366e-05
0.000179181
0.000614669
-0.000812253
0.00174596
-0.00296407
0.00322213
-0.00558004
0.00464967
-0.0079077
0.00582364
-0.00970131
0.00674034
-0.0110591
0.00747866
-0.0121692
0.00814171
-0.013187
-0.0142721
0.00878407
0.000142094
3.70868e-05
0.000850322
-0.00152048
0.00211734
-0.00423109
0.00348993
-0.00695262
0.00464796
-0.00906574
0.00552955
-0.0105829
0.00620633
-0.0117359
0.00677393
-0.0127368
0.00732102
-0.0137341
-0.0148042
0.00785312
0.000215002
-0.000177915
0.00108721
-0.00239269
0.00236027
-0.00550415
0.00353284
-0.00812519
0.00442394
-0.00995684
0.00506982
-0.0112288
0.00557157
-0.0122376
0.00601656
-0.0131818
0.00645443
-0.014172
-0.0152415
0.00689174
0.000303225
-0.000481141
0.00128442
-0.00337389
0.00245238
-0.00667211
0.00339515
-0.00906795
0.00405339
-0.0106151
0.0045168
-0.0116922
0.0048865
-0.0126074
0.00522706
-0.0135224
0.00556951
-0.0145144
-0.0155858
0.00591379
0.000394793
-0.000875934
0.00140889
-0.00438799
0.00240898
-0.00767219
0.00312822
-0.00978719
0.00359357
-0.0110804
0.00391411
-0.0120127
0.0041758
-0.012869
0.00442319
-0.0137698
0.00466985
-0.0147611
-0.0158307
0.00491472
0.000474375
-0.00135031
0.00144383
-0.00535744
0.00225718
-0.00848555
0.00277589
-0.0103059
0.00308318
-0.0113877
0.00328738
-0.0122169
0.0034543
-0.013036
0.00361094
-0.0139264
0.00376311
-0.0149133
-0.0159786
0.00391102
0.000529734
-0.00188004
0.00139448
-0.00622219
0.00202517
-0.00911623
0.0023714
-0.0106521
0.00254787
-0.0115642
0.00265194
-0.012321
0.00272972
-0.0131137
0.00279675
-0.0139934
0.00285541
-0.0149719
-0.0160299
0.00290678
0.000553501
-0.00243354
0.00128374
-0.00695243
0.00173936
-0.00957186
0.00193812
-0.0108509
0.00200361
-0.0116297
0.00201706
-0.0123344
0.0020084
-0.0131051
0.00198516
-0.0139702
0.00194802
-0.0149348
-0.0159867
0.00190475
0.000543138
-0.00297668
0.00112644
-0.00753574
0.00142068
-0.00986609
0.0014919
-0.0109221
0.00146046
-0.0115983
0.00138893
-0.0122629
0.00129528
-0.0130114
0.00118198
-0.0138569
0.00104601
-0.0147988
-0.0158404
0.000899784
0.000501497
-0.00347818
0.000936542
-0.00797078
0.00108488
-0.0100144
0.00104465
-0.0108819
0.000925217
-0.0114788
0.000771566
-0.0121093
0.000593747
-0.0128336
0.000391173
-0.0136543
0.000167746
-0.0145754
-0.0155676
-0.000105151
0.000435489
-0.00391367
0.000726397
-0.00826169
0.000744131
-0.0100322
0.000604296
-0.010742
0.000401802
-0.0112763
0.00016656
-0.011874
-9.47404e-05
-0.0125723
-0.000378525
-0.0133705
-0.000698167
-0.0142557
-0.0152153
-0.00105044
0.000353157
-0.00426683
0.000506243
-0.00841477
0.000406595
-0.00993252
0.000174023
-0.0105095
-0.000106628
-0.0109957
-0.000413344
-0.0115673
-0.00075084
-0.0122348
-0.00112324
-0.0129981
-0.00153367
-0.0138453
-0.0147759
-0.00197303
0.000261572
-0.0045284
0.000285212
-0.00843841
7.49262e-05
-0.00972223
-0.000235409
-0.0101991
-0.000586128
-0.010645
-0.000970061
-0.0111834
-0.00138642
-0.0118184
-0.00184176
-0.0125428
-0.00233465
-0.0133524
-0.0142495
-0.00286104
0.000166245
-0.00469464
7.38443e-05
-0.00834601
-0.000235955
-0.00941243
-0.00062344
-0.00981165
-0.00104685
-0.0102215
-0.00150324
-0.010727
-0.00199508
-0.0113266
-0.00252799
-0.0120099
-0.00310081
-0.0127796
-0.0136401
-0.00371026
7.26832e-05
-0.00476733
-0.000141239
-0.00813209
-0.000531724
-0.00902195
-0.000992078
-0.0093513
-0.00148459
-0.00972903
-0.00201055
-0.010201
-0.00257398
-0.0107632
-0.00317923
-0.0114047
-0.00382788
-0.0121309
-0.0129548
-0.00451314
-1.37959e-05
-0.00475353
-0.000343203
-0.00780268
-0.000812182
-0.00855297
-0.00133858
-0.0088249
-0.00189685
-0.00917076
-0.00249009
-0.00960778
-0.00312261
-0.0101306
-0.0037959
-0.0107314
-0.00450516
-0.0114217
-0.0122015
-0.0052585
-0.00011971
-0.00463382
-0.000530158
-0.00739223
-0.0010729
-0.00801023
-0.00166131
-0.00823649
-0.00228166
-0.00855041
-0.00293907
-0.00895037
-0.00363832
-0.0094314
-0.00438221
-0.00998748
-0.0051746
-0.0106293
-0.0114279
-0.00594815
-0.000209893
-0.00442393
-0.000702923
-0.0068992
-0.00131177
-0.00740138
-0.00195855
-0.00758972
-0.002637
-0.00787196
-0.00335388
-0.00823349
-0.0041144
-0.00867088
-0.00492132
-0.00918055
-0.00577562
-0.009775
-0.0104281
-0.00677544
-0.000290742
-0.00413319
-0.000860233
-0.00632971
-0.00152853
-0.00673308
-0.00222914
-0.00688911
-0.00296144
-0.00713965
-0.00373243
-0.00746251
-0.00454573
-0.00785758
-0.00540528
-0.00832101
-0.00633071
-0.00884957
-0.00940017
-0.00735863
-0.000362742
-0.00377044
-0.00100091
-0.00569155
-0.00172236
-0.00601163
-0.00247187
-0.0061396
-0.00325331
-0.00635821
-0.0040746
-0.00664121
-0.00494226
-0.00698992
-0.00586528
-0.00739799
-0.00685841
-0.00785645
-0.00834342
-0.00791516
-0.000425591
-0.00334485
-0.00112424
-0.00499289
-0.00189268
-0.00524319
-0.00268573
-0.00534655
-0.00351036
-0.00553359
-0.00437442
-0.00577715
-0.00528585
-0.0060785
-0.00625565
-0.00642819
-0.00729546
-0.00681664
-0.00723858
-0.0084003
-0.00047831
-0.00286654
-0.00122954
-0.00424167
-0.00203907
-0.00443365
-0.00287046
-0.00451516
-0.00373357
-0.00467048
-0.00463697
-0.00487375
-0.00558955
-0.00512592
-0.00660088
-0.00541685
-0.00767825
-0.00573927
-0.00609484
-0.00882199
-0.000519379
-0.00234716
-0.00131645
-0.0034446
-0.00216116
-0.00358894
-0.00302476
-0.00365155
-0.00391967
-0.00377557
-0.00485507
-0.00393835
-0.00584059
-0.0041404
-0.00688517
-0.00437226
-0.00799533
-0.00462911
-0.0049158
-0.00917437
-0.00055467
-0.00179249
-0.00138628
-0.00261299
-0.0022592
-0.00271603
-0.00314905
-0.0027617
-0.00407005
-0.00285457
-0.0050317
-0.0029767
-0.00604378
-0.00312833
-0.0071144
-0.00330164
-0.00824998
-0.00349353
-0.0037094
-0.00945638
-0.000582074
-0.00121042
-0.00143901
-0.00175605
-0.00233282
-0.00182222
-0.00324239
-0.00185213
-0.00418297
-0.00191399
-0.00516426
-0.0019954
-0.00619614
-0.00209645
-0.00728618
-0.0022116
-0.00844062
-0.00233909
-0.00248313
-0.00966689
-0.000600564
-0.000609854
-0.00147437
-0.00088225
-0.00238203
-0.000914557
-0.00330479
-0.000929366
-0.0042585
-0.000960279
-0.00525293
-0.00100098
-0.0062979
-0.00105147
-0.00740058
-0.00110893
-0.00856718
-0.00117249
-0.00124441
-0.0098059
-0.000609855
4.8649e-11
-0.0014921
7.36116e-11
-0.00240666
7.47623e-11
-0.00333603
7.3122e-11
-0.00429631
7.23469e-11
-0.00529728
7.16456e-11
-0.00634875
7.11986e-11
-0.00745768
7.06057e-11
-0.00863017
6.9991e-11
6.92112e-11
-0.00987459
-0.000609855
0.000609855
-0.0014921
0.00088225
-0.00240666
0.000914557
-0.00333603
0.000929366
-0.00429631
0.000960279
-0.00529728
0.00100098
-0.00634875
0.00105147
-0.00745768
0.00110893
-0.00863017
0.00117249
0.00124441
-0.00987459
-0.000600564
0.00121042
-0.00147437
0.00175605
-0.00238203
0.00182222
-0.00330479
0.00185213
-0.0042585
0.00191399
-0.00525293
0.0019954
-0.0062979
0.00209645
-0.00740058
0.0022116
-0.00856718
0.00233909
0.00248313
-0.0098059
-0.000582074
0.00179249
-0.00143901
0.00261299
-0.00233282
0.00271603
-0.00324239
0.0027617
-0.00418297
0.00285457
-0.00516426
0.0029767
-0.00619614
0.00312833
-0.00728618
0.00330164
-0.00844062
0.00349353
0.0037094
-0.00966689
-0.00055467
0.00234716
-0.00138628
0.0034446
-0.0022592
0.00358894
-0.00314905
0.00365155
-0.00407005
0.00377557
-0.0050317
0.00393835
-0.00604378
0.0041404
-0.0071144
0.00437226
-0.00824998
0.00462911
0.0049158
-0.00945638
-0.000519379
0.00286654
-0.00131645
0.00424167
-0.00216116
0.00443365
-0.00302476
0.00451516
-0.00391967
0.00467048
-0.00485507
0.00487375
-0.00584059
0.00512592
-0.00688517
0.00541685
-0.00799533
0.00573927
0.00609484
-0.00917437
-0.00047831
0.00334485
-0.00122954
0.00499289
-0.00203907
0.00524319
-0.00287046
0.00534655
-0.00373357
0.00553359
-0.00463697
0.00577715
-0.00558955
0.0060785
-0.00660088
0.00642819
-0.00767825
0.00681664
0.00723858
-0.00882199
-0.000425591
0.00377044
-0.00112424
0.00569155
-0.00189268
0.00601163
-0.00268573
0.0061396
-0.00351036
0.00635821
-0.00437442
0.00664121
-0.00528585
0.00698992
-0.00625565
0.00739799
-0.00729546
0.00785645
0.00834342
-0.0084003
-0.000362742
0.00413319
-0.00100091
0.00632971
-0.00172236
0.00673308
-0.00247187
0.00688911
-0.00325331
0.00713965
-0.0040746
0.00746251
-0.00494226
0.00785758
-0.00586528
0.00832101
-0.00685841
0.00884957
0.00940017
-0.00791516
-0.000290742
0.00442393
-0.000860233
0.0068992
-0.00152853
0.00740138
-0.00222914
0.00758972
-0.00296144
0.00787196
-0.00373243
0.00823349
-0.00454573
0.00867088
-0.00540528
0.00918055
-0.00633071
0.009775
0.0104281
-0.00735863
-0.000209893
0.00463382
-0.000702923
0.00739223
-0.00131177
0.00801023
-0.00195855
0.00823649
-0.002637
0.00855041
-0.00335388
0.00895037
-0.0041144
0.0094314
-0.00492132
0.00998748
-0.00577562
0.0106293
0.0114279
-0.00677544
-0.00011971
0.00475353
-0.000530158
0.00780268
-0.0010729
0.00855297
-0.00166131
0.0088249
-0.00228166
0.00917076
-0.00293907
0.00960778
-0.00363832
0.0101306
-0.0043822
0.0107314
-0.0051746
0.0114217
0.0122015
-0.00594815
-1.37959e-05
0.00476733
-0.000343203
0.00813209
-0.000812182
0.00902195
-0.00133858
0.0093513
-0.00189685
0.00972903
-0.00249009
0.010201
-0.00312261
0.0107632
-0.0037959
0.0114047
-0.00450516
0.0121309
0.0129548
-0.0052585
7.26832e-05
0.00469464
-0.000141239
0.00834601
-0.000531724
0.00941243
-0.000992078
0.00981165
-0.00148459
0.0102215
-0.00201055
0.010727
-0.00257398
0.0113266
-0.00317923
0.0120099
-0.00382788
0.0127796
0.0136401
-0.00451314
0.000166245
0.0045284
7.38444e-05
0.00843841
-0.000235955
0.00972223
-0.00062344
0.0101991
-0.00104685
0.010645
-0.00150324
0.0111834
-0.00199508
0.0118184
-0.00252799
0.0125428
-0.00310081
0.0133524
0.0142495
-0.00371026
0.000261572
0.00426683
0.000285212
0.00841477
7.49262e-05
0.00993252
-0.000235409
0.0105095
-0.000586128
0.0109957
-0.000970061
0.0115673
-0.00138642
0.0122348
-0.00184176
0.0129981
-0.00233465
0.0138453
0.0147759
-0.00286104
0.000353157
0.00391367
0.000506243
0.00826169
0.000406595
0.0100322
0.000174023
0.010742
-0.000106628
0.0112763
-0.000413344
0.011874
-0.00075084
0.0125723
-0.00112324
0.0133705
-0.00153367
0.0142557
0.0152153
-0.00197303
0.000435489
0.00347818
0.000726397
0.00797078
0.000744131
0.0100144
0.000604296
0.0108819
0.000401802
0.0114788
0.00016656
0.0121093
-9.47403e-05
0.0128336
-0.000378525
0.0136543
-0.000698167
0.0145754
0.0155676
-0.00105044
0.000501497
0.00297668
0.000936542
0.00753574
0.00108488
0.00986609
0.00104465
0.0109221
0.000925217
0.0115983
0.000771566
0.0122629
0.000593747
0.0130114
0.000391173
0.0138569
0.000167746
0.0147988
0.0158404
-0.000105151
0.000543138
0.00243354
0.00112644
0.00695243
0.00142068
0.00957186
0.0014919
0.0108509
0.00146046
0.0116297
0.00138893
0.0123344
0.00129528
0.0131051
0.00118198
0.0139702
0.00104601
0.0149348
0.0159867
0.000899784
0.000553501
0.00188004
0.00128374
0.00622219
0.00173936
0.00911623
0.00193812
0.0106521
0.00200361
0.0115642
0.00201706
0.012321
0.0020084
0.0131137
0.00198516
0.0139934
0.00194802
0.0149719
0.0160299
0.00190476
0.000529734
0.00135031
0.00139448
0.00535744
0.00202517
0.00848555
0.0023714
0.0103059
0.00254787
0.0113877
0.00265194
0.0122169
0.00272972
0.013036
0.00279675
0.0139264
0.00285541
0.0149133
0.0159786
0.00290678
0.000474375
0.000875934
0.00144383
0.00438799
0.00225719
0.00767219
0.00277589
0.00978719
0.00308318
0.0110804
0.00328738
0.0120127
0.0034543
0.012869
0.00361094
0.0137698
0.00376311
0.0147611
0.0158307
0.00391102
0.000394793
0.000481141
0.00140889
0.00337389
0.00240898
0.00667211
0.00312822
0.00906795
0.00359357
0.0106151
0.00391411
0.0116922
0.0041758
0.0126074
0.00442319
0.0135224
0.00466985
0.0145144
0.0155858
0.00491472
0.000303225
0.000177915
0.00128442
0.00239269
0.00245238
0.00550415
0.00339515
0.00812519
0.00405339
0.00995684
0.0045168
0.0112288
0.0048865
0.0122376
0.00522706
0.0131818
0.00556951
0.014172
0.0152415
0.00591379
0.000215002
-3.70869e-05
0.00108721
0.00152048
0.00236027
0.00423109
0.00353284
0.00695262
0.00442394
0.00906574
0.00506982
0.0105829
0.00557157
0.0117359
0.00601656
0.0127368
0.00645443
0.0137341
0.0148042
0.00689174
0.000142094
-0.000179181
0.000850322
0.000812253
0.00211734
0.00296407
0.00348993
0.00558004
0.00464796
0.0079077
0.00552955
0.00970131
0.00620633
0.0110591
0.00677394
0.0121692
0.00732102
0.013187
0.0142721
0.00785312
8.72366e-05
-0.000266418
0.000614669
0.000284821
0.00174596
0.00183278
0.00322213
0.00410387
0.00464967
0.00648017
0.00582364
0.00852733
0.00674034
0.0101424
0.00747866
0.0114309
0.00814171
0.012524
0.0136297
0.00878407
4.80728e-05
-0.000314491
0.000414138
-8.12445e-05
0.00131801
0.000928909
0.00273355
0.00268833
0.00434728
0.00486644
0.00584599
0.00702861
0.00708361
0.00890479
0.00806537
0.0104492
0.00891493
0.0116744
0.012899
0.0096457
2.18249e-05
-0.000336316
0.000262434
-0.000321853
0.000918513
0.000272829
0.00211226
0.00149459
0.00372454
0.00325416
0.00546475
0.0052884
0.00708871
0.00728084
0.00841937
0.00911851
0.00953711
0.0105567
0.0119355
0.0105006
6.21193e-06
-0.000342528
0.000156869
-0.00047251
0.000600397
-0.0001707
0.00149547
0.000599509
0.00289293
0.0018567
0.00465666
0.00352467
0.00655043
0.00538706
0.00833693
0.00733201
0.00986243
0.00903117
0.0108052
0.0109927
-1.97526e-06
-0.000340552
8.77561e-05
-0.000562241
0.000372416
-0.00045536
0.000985015
-1.30903e-05
0.00204494
0.000796771
0.00358682
0.00198279
0.0054648
0.00350908
0.00751297
0.00528384
0.00961558
0.00692856
0.00916767
0.0112531
-6.37757e-06
-0.000334175
4.2556e-05
-0.000611175
0.000215755
-0.000628559
0.000607276
-0.000404612
0.00133289
7.11581e-05
0.00250156
0.000814123
0.00409192
0.00191872
0.00606473
0.00331103
0.00842902
0.00456427
0.0070518
0.0105449
-9.47082e-06
-0.000324704
8.92817e-06
-0.000629574
0.00010234
-0.00072197
0.000335717
-0.000637989
0.000793941
-0.000387066
0.00157231
3.57592e-05
0.00276187
0.000729152
0.00435818
0.00171472
0.00644854
0.00247392
0.00467467
0.00882566
-1.4368e-05
-0.000310336
-2.41253e-05
-0.000619817
7.55752e-06
-0.000753653
0.000125447
-0.000755878
0.00038604
-0.00064766
0.000852355
-0.000430555
0.00164318
-6.16772e-05
0.00276794
0.000589958
0.00431485
0.000927013
0.00251939
0.00647013
-2.28521e-05
-0.000287484
-6.1071e-05
-0.000581598
-8.34808e-05
-0.000731243
-5.71309e-05
-0.000782228
5.81209e-05
-0.000762912
0.000294592
-0.000667026
0.000747295
-0.00051438
0.00146097
-0.000123722
0.00243593
-4.79399e-05
0.000970074
0.00398524
-3.4397e-05
-0.000253087
-0.00010223
-0.000513764
-0.000174793
-0.000658681
-0.000225839
-0.000731182
-0.000231452
-0.000757298
-0.000161084
-0.000737395
4.14284e-05
-0.000716892
0.000395108
-0.000477401
0.000900777
-0.000553609
8.20048e-05
0.00178885
-4.75275e-05
-0.000205559
-0.000144505
-0.000416787
-0.000262807
-0.000540378
-0.000380975
-0.000613014
-0.000481988
-0.000656285
-0.000540752
-0.000678631
-0.000560351
-0.000697292
-0.000446659
-0.000591093
-0.00030594
-0.000694327
-0.00029521
7.1274e-05
-6.0125e-05
-0.000145434
-0.000182824
-0.000294088
-0.000339552
-0.00038365
-0.000511827
-0.000440739
-0.000686927
-0.000481186
-0.000852586
-0.000512972
-0.0010127
-0.000537175
-0.00109404
-0.000509754
-0.00121562
-0.000572751
-0.00038771
-0.00112312
-7.00067e-05
-7.54277e-05
-0.000211918
-0.000152177
-0.000396449
-0.000199119
-0.000606923
-0.000230265
-0.000834101
-0.000254008
-0.00107256
-0.000274518
-0.00131962
-0.000290111
-0.00153955
-0.000289819
-0.00179515
-0.00031716
-0.000254711
-0.00192814
-7.54274e-05
-0.000227603
-0.000426721
-0.000656985
-0.000910991
-0.00118551
-0.00147562
-0.00176543
-0.00208259
-0.0023373
-0.0023814
4.41041e-05
1.64174e-09
-0.00242233
4.09304e-05
1.46203e-09
-0.0024588
3.64599e-05
1.22391e-09
-0.00249128
3.24876e-05
9.27784e-10
-0.00252027
2.89883e-05
5.71435e-10
-0.0025462
2.59221e-05
1.53907e-10
-0.00256942
2.32248e-05
-3.11386e-10
-0.00259025
2.08354e-05
-8.38391e-10
-0.00260893
1.86762e-05
-1.41508e-09
-0.00262562
1.66889e-05
-2.0355e-09
-0.00264044
1.48262e-05
-2.69272e-09
-0.00265349
1.30502e-05
-3.3785e-09
-0.00266481
1.13325e-05
-4.08293e-09
-0.00267446
9.65493e-06
-4.79317e-09
-0.00268247
8.01065e-06
-5.49112e-09
-0.00268887
6.40767e-06
-6.15623e-09
-0.00269371
4.84451e-06
-6.77586e-09
-0.00269704
3.33865e-06
-7.33744e-09
-0.00269887
1.84128e-06
-7.85624e-09
-0.00269909
2.25818e-07
-8.44945e-09
-0.00269796
-1.11831e-06
-8.55469e-09
-0.00269544
-2.5169e-06
-8.58681e-09
-0.00269145
-3.97815e-06
-8.63669e-09
-0.00268596
-5.48648e-06
-8.70078e-09
-0.00267891
-7.03873e-06
-8.68697e-09
-0.00267027
-8.63561e-06
-8.56807e-09
-0.00265998
-1.02794e-05
-8.33288e-09
-0.002648
-1.1973e-05
-7.97626e-09
-0.00263427
-1.37196e-05
-7.49646e-09
-0.00261874
-1.55222e-05
-6.89153e-09
-0.00260135
-1.73839e-05
-6.16834e-09
-0.00258204
-1.93071e-05
-5.32915e-09
-0.00256074
-2.1294e-05
-4.37994e-09
-0.00253739
-2.33467e-05
-3.32839e-09
-0.00251192
-2.54664e-05
-2.18225e-09
-0.00248427
-2.76542e-05
-9.46897e-10
-0.00245436
-2.99106e-05
3.48795e-10
-0.00242212
-3.22358e-05
1.69812e-09
-0.0023875
-3.46292e-05
3.09214e-09
-0.00235041
-3.70899e-05
4.51153e-09
-0.0023108
-3.96164e-05
5.93908e-09
-0.0022686
-4.22068e-05
7.3575e-09
-0.00222375
-4.48584e-05
8.74915e-09
-0.00217619
-4.75684e-05
1.00963e-08
-0.00212587
-5.03333e-05
1.13816e-08
-0.00207273
-5.31495e-05
1.25883e-08
-0.00201673
-5.6013e-05
1.37002e-08
-0.00195783
-5.89186e-05
1.4702e-08
-0.00189599
-6.18591e-05
1.55798e-08
-0.00183117
-6.48333e-05
1.63221e-08
-0.00176335
-6.78383e-05
1.69188e-08
-0.00169256
-7.08037e-05
1.7357e-08
-0.00161882
-7.37626e-05
1.76327e-08
-0.00154211
-7.6721e-05
1.77402e-08
-0.00146246
-7.96677e-05
1.76765e-08
-0.00137989
-8.25925e-05
1.74404e-08
-0.00129442
-8.5486e-05
1.70332e-08
-0.0012061
-8.83387e-05
1.64584e-08
-0.00111497
-9.11412e-05
1.57218e-08
-0.0010211
-9.38845e-05
1.48308e-08
-0.000924557
-9.656e-05
1.37949e-08
-0.00082541
-9.91589e-05
1.26246e-08
-0.000723748
-0.000101673
1.13293e-08
-0.000619652
-0.000104107
9.92789e-09
-0.000513223
-0.000106437
8.44264e-09
-0.0004046
-0.00010863
6.88629e-09
-0.000293895
-0.00011071
5.27174e-09
-0.000181224
-0.000112674
3.61591e-09
-6.67132e-05
-0.000114513
1.93324e-09
4.95057e-05
-0.000116219
2.24366e-10
0.000167298
-0.000117791
-1.40178e-09
0.000286527
-0.000119226
-3.03417e-09
0.000407052
-0.00012052
-4.62376e-09
0.00052873
-0.000121672
-6.15368e-09
0.000651418
-0.00012268
-7.60966e-09
0.000774971
-0.000123544
-8.97921e-09
0.000899247
-0.000124265
-1.02513e-08
0.0010241
-0.000124844
-1.14163e-08
0.0011494
-0.000125283
-1.24663e-08
0.00127499
-0.000125584
-1.33946e-08
0.00140076
-0.00012575
-1.41964e-08
0.00152656
-0.000125785
-1.48683e-08
0.00165227
-0.000125693
-1.54083e-08
0.00177776
-0.000125479
-1.58161e-08
0.00190293
-0.000125148
-1.60926e-08
0.00202765
-0.000124704
-1.62403e-08
0.00215182
-0.000124154
-1.62625e-08
0.00227534
-0.000123504
-1.61638e-08
0.00239811
-0.000122759
-1.59496e-08
0.00252005
-0.000121926
-1.56264e-08
0.00264108
-0.000121012
-1.52011e-08
0.00276112
-0.000120022
-1.46815e-08
0.0028801
-0.000118964
-1.40756e-08
0.00299795
-0.000117843
-1.3392e-08
0.00311463
-0.000116667
-1.26396e-08
0.00323008
-0.000115441
-1.18273e-08
0.00334427
-0.000114173
-1.0964e-08
0.00345715
-0.000112868
-1.00588e-08
0.00356869
-0.000111532
-9.12013e-09
0.00367887
-0.000110173
-8.15656e-09
0.00378767
-0.000108795
-7.17608e-09
0.00389508
-0.000107405
-6.18643e-09
0.0040011
-0.000106009
-5.19528e-09
0.00410571
-0.000104612
-4.21019e-09
0.00420894
-0.00010322
-3.23825e-09
0.00431078
-0.000101839
-2.28548e-09
0.00441125
-0.000100475
-1.35555e-09
0.00451039
-9.91337e-05
-4.49651e-10
0.00460821
-9.78206e-05
4.03634e-10
0.00470475
-9.6543e-05
1.22847e-09
0.00480005
-9.53061e-05
2.01337e-09
0.00489417
-9.41203e-05
2.75184e-09
0.00498716
-9.29882e-05
3.44329e-09
0.00507908
-9.19285e-05
4.09224e-09
0.00517001
-9.09382e-05
4.661e-09
0.00526006
-9.00463e-05
5.16871e-09
0.00534932
-8.92668e-05
5.7391e-09
0.00543787
-8.85586e-05
6.21701e-09
0.00552603
-8.81721e-05
6.55111e-09
-8.75812e-05
6.93038e-09
-0.00196391
7.98703e-05
-0.00199812
7.51368e-05
-0.00202873
6.70726e-05
-0.00205598
5.97337e-05
-0.0020801
5.31077e-05
-0.00210142
4.72436e-05
-0.00212022
4.20264e-05
-0.00213678
3.73959e-05
-0.00215128
3.31723e-05
-0.00216384
2.92477e-05
-0.00217455
2.55369e-05
-0.00218347
2.19703e-05
-0.00219063
1.84926e-05
-0.00219604
1.50647e-05
-0.0021997
1.16773e-05
-0.00220172
8.41969e-06
-0.00220203
5.16071e-06
-0.0022006
1.91098e-06
-0.00219757
-1.1891e-06
-0.0021934
-3.94446e-06
-0.00218769
-6.83636e-06
-0.0021804
-9.80439e-06
-0.00217154
-1.28395e-05
-0.00216108
-1.59425e-05
-0.002149
-1.91177e-05
-0.00213527
-2.23705e-05
-0.00211984
-2.5707e-05
-0.00210268
-2.91331e-05
-0.00208374
-3.26554e-05
-0.00206299
-3.62796e-05
-0.00204036
-4.00111e-05
-0.00201581
-4.38548e-05
-0.00198929
-4.78146e-05
-0.00196074
-5.18939e-05
-0.00193011
-5.60952e-05
-0.00189735
-6.04202e-05
-0.00186239
-6.48699e-05
-0.00182518
-6.94441e-05
-0.00178567
-7.41418e-05
-0.0017438
-7.89608e-05
-0.00169952
-8.38982e-05
-0.00165277
-8.89499e-05
-0.00160352
-9.41108e-05
-0.00155171
-9.93749e-05
-0.00149731
-0.000104735
-0.00144028
-0.000110185
-0.00138057
-0.000115715
-0.00131818
-0.000121316
-0.00125306
-0.00012698
-0.0011852
-0.000132694
-0.00111453
-0.000138501
-0.00104114
-0.000144196
-0.00096504
-0.000149863
-0.00088624
-0.000155521
-0.000804759
-0.000161149
-0.000720625
-0.000166726
-0.000633875
-0.000172236
-0.000544555
-0.000177659
-0.000452717
-0.000182978
-0.000358426
-0.000188176
-0.00026175
-0.000193236
-0.000162764
-0.000198145
-6.15517e-05
-0.000202886
4.17534e-05
-0.000207412
0.000147032
-0.000211716
0.00025423
-0.000215828
0.000363234
-0.000219714
0.000473922
-0.000223362
0.000586168
-0.000226759
0.000699848
-0.000229899
0.00081483
-0.000232773
0.000930981
-0.000235377
0.00104817
-0.000237705
0.00116625
-0.000239756
0.0012851
-0.000241528
0.00140457
-0.000243021
0.00152455
-0.000244236
0.00164488
-0.000245176
0.00176544
-0.000245846
0.00188611
-0.000246251
0.00200675
-0.000246396
0.00212726
-0.000246291
0.00224751
-0.000245942
0.00236739
-0.00024536
0.0024868
-0.000244554
0.00260563
-0.000243535
0.00272379
-0.000242314
0.00284119
-0.000240904
0.00295774
-0.000239316
0.00307338
-0.000237562
0.00318802
-0.000235655
0.00330161
-0.000233609
0.00341408
-0.000231435
0.00352538
-0.000229146
0.00363547
-0.000226755
0.00374431
-0.000224276
0.00385185
-0.000221719
0.00395808
-0.000219098
0.00406297
-0.000216424
0.00416651
-0.00021371
0.00426868
-0.000210966
0.00436948
-0.000208206
0.00446891
-0.000205439
0.00456698
-0.000202677
0.00466369
-0.000199932
0.00475906
-0.000197213
0.00485312
-0.000194533
0.00494589
-0.000191903
0.00503741
-0.000189334
0.0051277
-0.000186839
0.00521682
-0.000184429
0.00530483
-0.000182123
0.00539177
-0.000179927
0.00547771
-0.000177872
0.00556273
-0.000175964
0.00564692
-0.000174229
0.00573039
-0.000172744
0.00581318
-0.000171349
0.00589562
-0.000170607
-0.000169546
-0.00114857
0.000105323
-0.00116959
9.61488e-05
-0.0011904
8.78838e-05
-0.00120945
7.87845e-05
-0.00122629
6.99532e-05
-0.00124096
6.19123e-05
-0.00125346
5.45241e-05
-0.00126397
4.79093e-05
-0.00127255
4.17521e-05
-0.00127925
3.59438e-05
-0.0012841
3.03846e-05
-0.00128711
2.49873e-05
-0.00128829
1.96695e-05
-0.00128759
1.43647e-05
-0.00128499
9.0762e-06
-0.0012804
3.83331e-06
-0.00127384
-1.40014e-06
-0.00126613
-5.79852e-06
-0.00125695
-1.03695e-05
-0.00124591
-1.49911e-05
-0.0012331
-1.96433e-05
-0.00121856
-2.4342e-05
-0.0012023
-2.91016e-05
-0.00118431
-3.39357e-05
-0.00116457
-3.8856e-05
-0.00114307
-4.38726e-05
-0.00111978
-4.89944e-05
-0.00109468
-5.42298e-05
-0.00106775
-5.95875e-05
-0.00103895
-6.50759e-05
-0.00100826
-7.07022e-05
-0.000975645
-7.64724e-05
-0.000941068
-8.23915e-05
-0.000904498
-8.84637e-05
-0.000865901
-9.46922e-05
-0.000825242
-0.000101079
-0.000782488
-0.000107624
-0.000737604
-0.000114328
-0.000690557
-0.000121189
-0.000641315
-0.000128202
-0.000589849
-0.000135365
-0.000536129
-0.00014267
-0.00048013
-0.00015011
-0.000421829
-0.000157677
-0.000361204
-0.00016536
-0.00029824
-0.000173149
-0.000232924
-0.00018103
-0.000165249
-0.000188992
-9.51991e-05
-0.000197029
-2.27652e-05
-0.000205128
5.18303e-05
-0.000213097
0.000128722
-0.000221088
0.000207935
-0.000229076
0.000289433
-0.000237019
0.000373177
-0.000244893
0.000459124
-0.000252673
0.000547221
-0.000260333
0.000637412
-0.00026785
0.000729633
-0.000275199
0.000823813
-0.000282355
0.000919873
-0.000289296
0.00101773
-0.000296001
0.00111729
-0.000302446
0.00121848
-0.000308598
0.0013212
-0.000314441
0.00142534
-0.000319967
0.00153078
-0.00032516
0.00163742
-0.000330001
0.00174514
-0.000334479
0.00185383
-0.000338581
0.00196335
-0.0003423
0.0020736
-0.000345627
0.00218446
-0.000348558
0.00229579
-0.00035109
0.00240748
-0.000353222
0.00251942
-0.000354956
0.00263148
-0.000356294
0.00274354
-0.000357242
0.0028555
-0.000357807
0.00296725
-0.000357997
0.00307867
-0.000357823
0.00318968
-0.000357295
0.00330016
-0.000356428
0.00341004
-0.000355234
0.00351921
-0.00035373
0.00362761
-0.000351931
0.00373515
-0.000349854
0.00384176
-0.000347516
0.00394738
-0.000344935
0.00405195
-0.000342129
0.00415541
-0.000339117
0.00425772
-0.000335918
0.00435883
-0.000332549
0.00445872
-0.000329029
0.00455734
-0.000325376
0.00465467
-0.00032161
0.0047507
-0.000317746
0.00484541
-0.000313805
0.00493878
-0.000309801
0.00503083
-0.000305753
0.00512154
-0.000301677
0.00521092
-0.00029759
0.00529899
-0.000293507
0.00538576
-0.000289445
0.00547124
-0.000285418
0.00555547
-0.000281443
0.00563848
-0.000277536
0.00572029
-0.000273713
0.00580094
-0.000269989
0.00588048
-0.000266383
0.00595896
-0.00026291
0.00603644
-0.000259594
0.00611296
-0.000256451
0.0061886
-0.000253507
0.00626343
-0.000250802
0.00633751
-0.00024831
0.006411
-0.000246233
0.00648387
-0.000244217
0.00655641
-0.00024315
-0.000241735
6.42857e-05
0.000112306
4.89466e-05
0.000111488
3.55407e-05
0.00010129
2.31216e-05
9.12036e-05
1.13533e-05
8.17215e-05
8.6023e-07
7.24054e-05
-8.22056e-06
6.36049e-05
-1.55411e-05
5.52298e-05
-2.10069e-05
4.72179e-05
-2.451e-05
3.94468e-05
-2.59901e-05
3.18647e-05
-2.54163e-05
2.44135e-05
-2.27299e-05
1.6983e-05
-1.77919e-05
9.42678e-06
-1.01867e-05
1.471e-06
-1.11684e-06
-5.23659e-06
9.27492e-06
-1.17919e-05
2.18538e-05
-1.83774e-05
3.64518e-05
-2.49675e-05
5.30158e-05
-3.1555e-05
7.15304e-05
-3.8158e-05
9.19846e-05
-4.47961e-05
0.000114371
-5.14876e-05
0.000138686
-5.8251e-05
0.000164933