/*--------------------------------*- C++ -*----------------------------------*\
  =========                 |
  \\      /  F ield         | OpenFOAM: The Open Source CFD Toolbox
   \\    /   O peration     | Website:  https://openfoam.org
    \\  /    A nd           | Version:  7
     \\/     M anipulation  |
\*---------------------------------------------------------------------------*/
FoamFile
{
    version     2.0;
    format      ascii;
    class       volVectorField;
    location    "30";
    object      U;
}
// * * * * * * * * * * * * * * * * * * * * * * * * * * * * * * * * * * * * * //

dimensions      [0 1 -1 0 0 0 0];

internalField   nonuniform List<vector> 
14000
(
(-0.00756847 0.00524996 -5.48509e-22)
(-0.0298542 0.00918249 1.08703e-21)
(-0.0616969 0.0101213 7.00596e-20)
(-0.0912082 0.00986466 1.22113e-20)
(-0.117747 0.00914057 2.37452e-20)
(-0.141144 0.00826627 -1.37326e-20)
(-0.161134 0.00724288 -2.54453e-20)
(-0.176823 0.00572131 2.46982e-20)
(-0.19096 0.00534329 2.41901e-20)
(-0.196553 0.00227307 1.8916e-20)
(-0.00865397 0.0153139 -8.89421e-20)
(-0.0307816 0.0269088 5.87965e-20)
(-0.0609602 0.0297322 -8.00029e-20)
(-0.0881938 0.0290043 4.25847e-21)
(-0.111904 0.0268743 -5.69924e-20)
(-0.131948 0.0242972 6.99055e-21)
(-0.148384 0.0214399 3.65495e-20)
(-0.158426 0.0165497 -1.60744e-19)
(-0.169506 0.0162372 3.96365e-20)
(-0.166533 0.00580783 1.58512e-22)
(-0.0107026 0.0241408 1.65416e-19)
(-0.0325878 0.0427798 -1.47077e-20)
(-0.0595924 0.0474693 1.11116e-19)
(-0.0823814 0.0463644 -1.04035e-20)
(-0.100497 0.0429369 -1.21428e-19)
(-0.113617 0.0387278 8.96301e-20)
(-0.123312 0.034639 -3.85214e-20)
(-0.120575 0.0257295 3.86681e-20)
(-0.126431 0.0275994 -1.17356e-19)
(-0.104575 0.00740011 1.66807e-19)
(-0.0135061 0.0311294 1.93077e-20)
(-0.0351797 0.0557577 -2.62762e-19)
(-0.0577625 0.0621683 -1.56244e-19)
(-0.0741195 0.0607485 8.21719e-20)
(-0.084047 0.0561551 9.76472e-20)
(-0.0862109 0.0503884 -1.62399e-19)
(-0.0864527 0.0454055 6.9506e-20)
(-0.061738 0.0329046 4.62621e-20)
(-0.0603949 0.037665 1.85419e-19)
(-0.00432261 0.0112107 -2.40621e-19)
(-0.0168309 0.0359665 -8.31348e-20)
(-0.0384143 0.065086 1.29276e-19)
(-0.0555961 0.0728201 3.78194e-19)
(-0.0636456 0.0710103 -1.88601e-19)
(-0.0628843 0.0652801 1.75013e-19)
(-0.0497107 0.0583822 2.94856e-19)
(-0.0367175 0.050525 -8.41832e-21)
(0.0190687 0.0391055 8.2559e-21)
(0.0299137 0.0428634 -2.73093e-19)
(0.143593 0.0216758 1.29901e-19)
(-0.0204808 0.038652 -1.96504e-19)
(-0.042062 0.0703581 1.16323e-19)
(-0.052972 0.0786793 -5.27363e-19)
(-0.0507046 0.0762087 2.56747e-19)
(-0.0360446 0.0691313 3.60071e-20)
(-0.00334492 0.062059 -3.32704e-19)
(0.0306749 0.0488728 -9.76003e-20)
(0.130298 0.0453211 9.75988e-20)
(0.146458 0.0375906 1.8493e-19)
(0.354431 0.0341013 -1.0323e-19)
(-0.024334 0.0394522 -2.13658e-20)
(-0.0457066 0.0715276 -3.65533e-19)
(-0.0491569 0.0793824 3.61425e-19)
(-0.0339005 0.0757858 -2.59888e-19)
(-0.000230586 0.0673801 6.44902e-20)
(0.0587834 0.0612651 2.16072e-19)
(0.124914 0.042605 -3.95555e-19)
(0.277277 0.0518031 -1.65663e-19)
(0.308779 0.0307131 1.4115e-19)
(0.614937 0.046007 8.2864e-20)
(-0.0283361 0.0387913 2.14798e-19)
(-0.0485856 0.0688613 6.30571e-19)
(-0.0423273 0.0750526 -6.08747e-19)
(-0.00947347 0.0699271 1.49035e-19)
(0.0512928 0.0608353 3.73168e-19)
(0.147003 0.0565546 -1.90115e-19)
(0.263998 0.0400273 -6.08132e-20)
(0.457817 0.0562954 -2.25241e-19)
(0.542205 0.0396683 2.67426e-19)
(0.875908 0.0670226 -1.88906e-19)
(-0.0323937 0.0370611 -3.93771e-19)
(-0.049418 0.062888 1.08762e-19)
(-0.0290517 0.0663504 2.27671e-19)
(0.0294273 0.059902 -1.13207e-19)
(0.129839 0.0523 -3.83114e-19)
(0.275151 0.0513529 4.54184e-19)
(0.455037 0.0508253 2.88319e-19)
(0.665672 0.0639853 2.60872e-19)
(0.821182 0.0692756 -2.12111e-19)
(1.08309 0.0942669 1.60897e-19)
(-0.0361575 0.0344948 -9.70172e-20)
(-0.0461648 0.054239 -3.17626e-19)
(-0.00404005 0.0545114 -1.88666e-19)
(0.0927377 0.0485594 2.22252e-19)
(0.248037 0.0473414 4.2714e-20)
(0.451982 0.0551762 -2.67726e-19)
(0.677478 0.0737816 3.12579e-19)
(0.885698 0.0864086 -4.39563e-19)
(1.0583 0.110348 -2.48747e-19)
(1.20038 0.114316 8.71853e-20)
(-0.0389608 0.0311902 2.38021e-19)
(-0.0357757 0.0434978 3.34268e-19)
(0.0398128 0.0414907 1.39479e-19)
(0.191466 0.040695 1.94378e-19)
(0.411616 0.0527606 -1.12759e-19)
(0.662688 0.0761493 -2.89458e-19)
(0.893201 0.104811 1.15828e-19)
(1.07297 0.121178 1.42806e-19)
(1.19174 0.142957 4.75529e-19)
(1.23551 0.117719 -2.80904e-19)
(-0.0398356 0.027092 3.52859e-19)
(-0.014245 0.0312215 -4.34799e-20)
(0.110694 0.0304182 3.20448e-19)
(0.332105 0.0429049 -1.42719e-19)
(0.608224 0.0735807 4.37938e-19)
(0.868383 0.110126 1.74464e-19)
(1.06375 0.139148 2.16645e-19)
(1.18597 0.153048 -3.54696e-19)
(1.23782 0.155733 -1.46333e-19)
(1.26196 0.140961 1.41382e-19)
(-0.0374413 0.0220227 2.36957e-20)
(0.0232835 0.018316 -3.11075e-19)
(0.21577 0.0263974 -2.96918e-19)
(0.507772 0.0606138 -7.52833e-20)
(0.805381 0.107744 -1.18885e-19)
(1.03213 0.147054 1.31339e-19)
(1.16957 0.16898 -5.43225e-19)
(1.23375 0.172054 3.65376e-19)
(1.25669 0.169854 -3.40567e-21)
(1.26028 0.151048 -4.37266e-19)
(-0.0300513 0.0158616 -5.011e-19)
(0.0822545 0.00693566 -1.01584e-19)
(0.356177 0.0356424 -1.08042e-20)
(0.694421 0.0931867 3.17538e-20)
(0.970178 0.146742 1.68072e-19)
(1.14057 0.179562 -5.28542e-19)
(1.22273 0.190299 5.21104e-19)
(1.25279 0.18782 -1.14883e-19)
(1.25544 0.178148 6.86546e-20)
(1.24927 0.16062 1.1282e-19)
(-0.0155495 0.00878261 1.35641e-20)
(0.167316 0.00175264 4.10877e-19)
(0.520459 0.0613032 1.05152e-19)
(0.863305 0.133998 -5.65515e-20)
(1.08932 0.183631 -4.78585e-20)
(1.20328 0.205648 3.08645e-19)
(1.24632 0.20777 -4.58276e-22)
(1.25361 0.199529 2.30657e-19)
(1.24743 0.186594 -7.28935e-20)
(1.24068 0.170762 -3.20168e-21)
(0.00886096 0.00158004 8.16213e-20)
(0.279116 0.00947716 -1.48119e-19)
(0.686349 0.100388 1.17969e-19)
(0.998188 0.176584 1.56555e-19)
(1.16721 0.216341 -1.02826e-19)
(1.23545 0.227631 -1.56911e-20)
(1.25141 0.222253 -3.0491e-19)
(1.24703 0.210514 -2.03445e-19)
(1.23738 0.194806 2.51359e-19)
(1.22706 0.179534 -1.62326e-19)
(0.0460483 -0.0035395 1.0519e-19)
(0.410814 0.0348244 1.87459e-19)
(0.834114 0.147095 1.32367e-19)
(1.09685 0.217983 -2.0175e-19)
(1.21346 0.245546 2.40984e-19)
(1.24741 0.246762 -1.30137e-19)
(1.24706 0.235804 -3.32367e-20)
(1.23641 0.220835 -1.24638e-20)
(1.22458 0.20315 -7.16103e-20)
(1.21483 0.188889 2.23292e-20)
(0.0973458 -0.00302704 2.64288e-19)
(0.54888 0.0767723 -1.48014e-19)
(0.954783 0.197166 9.29883e-20)
(1.16352 0.257299 1.09872e-19)
(1.23659 0.271992 -7.96285e-20)
(1.24697 0.264504 1.22445e-19)
(1.2369 0.248802 4.56765e-20)
(1.22328 0.231131 6.20169e-20)
(1.21142 0.211945 4.08435e-20)
(1.20048 0.197403 6.58285e-20)
(0.161504 0.00667697 -9.70051e-20)
(0.678979 0.130582 -1.43476e-19)
(1.04699 0.248297 -1.13579e-19)
(1.20399 0.294248 -1.09118e-19)
(1.24338 0.296495 -4.90766e-20)
(1.23834 0.281447 5.47225e-20)
(1.22319 0.261714 -2.74625e-20)
(1.20852 0.241391 3.78519e-22)
(1.19638 0.220659 -2.62493e-20)
(1.18584 0.205485 5.34275e-21)
(0.234605 0.0275895 2.59426e-20)
(0.791058 0.191429 -5.63715e-21)
(1.11242 0.299108 2.5722e-20)
(1.22375 0.328968 2.03098e-20)
(1.23843 0.319559 1.55649e-20)
(1.22418 0.297971 -4.2558e-20)
(1.20668 0.274443 2.03562e-20)
(1.19186 0.251446 -2.03522e-20)
(1.18043 0.229179 -6.68261e-21)
(1.17016 0.212642 -1.09729e-20)
(0.311035 0.0596445 1.31454e-21)
(0.880586 0.255646 -8.47434e-22)
(1.15373 0.348578 -5.72604e-21)
(1.22722 0.361631 6.82946e-20)
(1.22485 0.341477 -1.89705e-20)
(1.20567 0.314001 -1.88552e-20)
(1.18766 0.286809 2.60265e-21)
(1.17352 0.261055 -2.49053e-21)
(1.16279 0.23696 -8.57206e-21)
(1.15344 0.218831 -1.94107e-20)
(0.384714 0.101209 -1.1148e-19)
(0.946658 0.320669 2.15134e-20)
(1.17395 0.395867 -1.84403e-19)
(1.2177 0.392184 -6.60995e-20)
(1.20452 0.362202 -2.06824e-20)
(1.18349 0.329293 -2.97642e-21)
(1.1662 0.298451 -1.5544e-20)
(1.15327 0.269874 -1.0222e-20)
(1.1438 0.24389 7.63258e-21)
(1.13515 0.223931 1.34767e-20)
(0.450094 0.149964 1.92253e-19)
(0.98972 0.384427 -1.00031e-19)
(1.17592 0.440067 1.40815e-19)
(1.19757 0.42036 5.87126e-20)
(1.17858 0.381452 -2.2509e-20)
(1.15791 0.343398 7.85113e-20)
(1.14233 0.308924 -1.90197e-20)
(1.1313 0.277605 2.64629e-20)
(1.12318 0.249913 3.90171e-21)
(1.11519 0.22787 1.71581e-20)
(0.502908 0.203321 -1.17924e-19)
(1.01109 0.44514 4.54151e-19)
(1.16217 0.480334 -8.54785e-20)
(1.16854 0.445711 -5.11593e-20)
(1.14778 0.398701 1.14222e-19)
(1.12924 0.355781 -4.95479e-20)
(1.11624 0.317749 -1.99818e-20)
(1.10758 0.283902 -1.29456e-20)
(1.10091 0.254945 -1.76262e-20)
(1.09433 0.230609 -4.75207e-21)
(0.540477 0.258508 -2.14997e-19)
(1.01247 0.501158 -2.4601e-19)
(1.13475 0.515741 1.55288e-19)
(1.132 0.467581 4.29954e-20)
(1.11282 0.413271 -6.21727e-20)
(1.09786 0.365889 -2.61604e-20)
(1.08813 0.324552 2.02098e-20)
(1.08204 0.288537 -7.89185e-21)
(1.07704 0.258366 6.27129e-21)
(1.07284 0.231984 -6.62717e-21)
(0.561675 0.312635 7.6898e-20)
(0.995786 0.55092 3.24701e-19)
(1.09546 0.545256 -6.1859e-20)
(1.08937 0.485144 6.0017e-21)
(1.07434 0.424441 -7.04234e-21)
(1.06394 0.373115 2.61164e-20)
(1.05805 0.329033 2.51925e-20)
(1.0548 0.291172 5.55061e-21)
(1.05209 0.2599 1.3158e-21)
(1.05077 0.231905 -8.93085e-21)
(0.566713 0.362922 -5.67688e-19)
(0.962809 0.592792 4.25291e-20)
(1.04636 0.567877 -1.26102e-19)
(1.04174 0.497365 3.97992e-20)
(1.0327 0.431568 -8.61355e-21)
(1.02772 0.376948 1.69871e-20)
(1.02631 0.330698 -2.41875e-20)
(1.0264 0.291483 1.73587e-20)
(1.02665 0.25926 -1.82104e-20)
(1.02883 0.230303 -5.98256e-20)
(0.556668 0.407084 2.85316e-19)
(0.915097 0.624689 -2.84823e-19)
(0.98975 0.582741 -2.24532e-20)
(0.990077 0.50345 -3.29664e-20)
(0.988503 0.433875 5.29698e-20)
(0.989765 0.376846 1.11624e-20)
(0.993303 0.329136 4.57347e-20)
(0.997378 0.289071 4.71198e-21)
(1.00157 0.256266 1.27991e-21)
(1.00786 0.227273 8.7593e-20)
(0.532658 0.44342 1.69903e-19)
(0.855156 0.645038 -3.07928e-20)
(0.927656 0.588594 2.73812e-21)
(0.935468 0.502947 5.53901e-20)
(0.942474 0.430826 -1.45184e-20)
(0.950546 0.372319 -7.87044e-20)
(0.959529 0.323815 -5.15435e-20)
(0.968356 0.283346 6.57076e-21)
(0.97756 0.250396 7.37916e-20)
(0.98825 0.223168 -5.80533e-20)
(0.49588 0.469359 2.20658e-20)
(0.787012 0.653488 -1.5049e-20)
(0.861939 0.584527 -8.14687e-20)
(0.87906 0.495294 1.01108e-20)
(0.895411 0.421989 1.22693e-19)
(0.910709 0.363019 -3.9658e-20)
(0.925538 0.314402 1.46931e-19)
(0.939736 0.273739 -2.01577e-19)
(0.95452 0.240383 -1.39336e-19)
(0.968825 0.216802 -2.71858e-20)
(0.448694 0.481676 -1.18176e-20)
(0.713211 0.64851 4.17113e-20)
(0.794141 0.57043 2.03773e-20)
(0.822046 0.480049 -4.50756e-20)
(0.848194 0.407083 -1.92351e-19)
(0.870985 0.348763 1.86404e-19)
(0.891978 0.300915 7.06074e-20)
(0.911746 0.260656 9.17206e-20)
(0.931778 0.225775 2.54966e-19)
(0.946941 0.199542 -6.10395e-20)
(0.39525 0.480004 1.11003e-19)
(0.636751 0.629672 -1.88781e-20)
(0.726145 0.546108 -5.55937e-20)
(0.765688 0.456957 9.86463e-20)
(0.801792 0.385915 1.7904e-19)
(0.832214 0.329406 -4.18399e-19)
(0.859561 0.283339 -6.62553e-20)
(0.884611 0.245083 -1.67594e-19)
(0.907747 0.212774 3.44036e-20)
(0.922441 0.187888 -1.20907e-19)
(0.338711 0.463964 -2.30101e-19)
(0.560292 0.596635 -1.1216e-19)
(0.659747 0.511627 3.62197e-19)
(0.711277 0.42602 -2.08422e-19)
(0.757204 0.358494 -2.96657e-19)
(0.795192 0.304901 2.77059e-19)
(0.828849 0.261186 -2.56821e-19)
(0.859025 0.224643 1.25693e-19)
(0.885504 0.193686 -1.53745e-19)
(0.902343 0.170079 2.42421e-19)
(0.282211 0.433984 -1.01283e-19)
(0.486632 0.549777 5.42343e-19)
(0.596754 0.467257 -5.68705e-19)
(0.660103 0.387456 2.29908e-20)
(0.71544 0.325067 1.85468e-19)
(0.760622 0.275755 -1.30538e-20)
(0.800004 0.235781 3.92473e-19)
(0.834343 0.202588 -3.40436e-19)
(0.863566 0.174453 2.45631e-19)
(0.883521 0.152362 -1.65003e-19)
(0.22857 0.391085 -1.66654e-19)
(0.418285 0.489831 9.1596e-20)
(0.538892 0.413511 2.48834e-19)
(0.613434 0.341666 2.84885e-19)
(0.677542 0.28585 -6.54946e-20)
(0.72946 0.241782 2.66744e-19)
(0.774169 0.206071 2.37481e-20)
(0.812337 0.176468 2.78015e-20)
(0.844255 0.15157 -1.01321e-19)
(0.867271 0.132127 -5.79778e-21)
(0.180193 0.336841 5.04357e-19)
(0.357506 0.417999 -3.49631e-19)
(0.487823 0.351177 -4.65799e-19)
(0.572433 0.289359 2.65295e-20)
(0.644313 0.241587 -1.35997e-19)
(0.702115 0.203982 1.12726e-19)
(0.751365 0.173592 -4.09036e-19)
(0.792795 0.148401 1.19436e-19)
(0.827309 0.127117 3.37241e-19)
(0.853435 0.110323 -1.62783e-19)
(0.138961 0.272928 7.03916e-20)
(0.306322 0.336036 4.37204e-19)
(0.44513 0.281326 3.14249e-19)
(0.538244 0.231324 -2.9326e-19)
(0.616706 0.192774 1.81004e-19)
(0.679467 0.162468 -8.19872e-20)
(0.732481 0.138025 -5.28317e-20)
(0.776588 0.117817 -2.51418e-20)
(0.81334 0.100743 -1.04856e-19)
(0.842252 0.0871439 1.91918e-19)
(0.106428 0.200986 -3.41122e-19)
(0.266393 0.245982 -3.96319e-19)
(0.412022 0.205416 -6.10286e-21)
(0.511749 0.168678 2.80442e-19)
(0.595333 0.140396 -5.17525e-20)
(0.661936 0.118187 -5.47005e-20)
(0.717838 0.100289 7.92249e-20)
(0.764007 0.0854935 -4.29095e-20)
(0.802569 0.0729615 -3.34409e-20)
(0.833796 0.0628984 3.49029e-20)
(0.083942 0.123055 4.96375e-20)
(0.239029 0.150005 -6.51766e-20)
(0.389432 0.125057 2.80724e-19)
(0.493684 0.102601 -6.86641e-20)
(0.580774 0.0853251 1.28388e-19)
(0.65 0.0717687 -3.44746e-20)
(0.707858 0.0608551 -5.32556e-20)
(0.755423 0.0518371 8.45387e-20)
(0.795248 0.0441797 1.19206e-20)
(0.828145 0.0379848 -2.9778e-20)
(0.0724548 0.0414333 -1.35032e-21)
(0.225121 0.0504082 1.74383e-21)
(0.37798 0.0419892 1.30639e-19)
(0.484529 0.0344353 -6.49575e-20)
(0.573398 0.0286251 2.96661e-20)
(0.643952 0.024067 -1.56515e-20)
(0.702797 0.0203989 1.85188e-20)
(0.751067 0.0173684 -2.40122e-20)
(0.791539 0.0147911 -1.45237e-20)
(0.825314 0.0126972 6.2878e-24)
(0.0724548 -0.0414333 1.35032e-21)
(0.225121 -0.0504082 -1.74383e-21)
(0.37798 -0.0419892 -1.30639e-19)
(0.484529 -0.0344353 -2.32412e-20)
(0.573398 -0.0286251 -3.91172e-20)
(0.643952 -0.024067 2.08382e-20)
(0.702797 -0.0203989 3.26994e-20)
(0.751067 -0.0173685 -2.99238e-20)
(0.791539 -0.0147911 -2.5987e-20)
(0.825314 -0.0126972 -1.75901e-20)
(0.083942 -0.123055 1.59079e-19)
(0.239029 -0.150005 -1.12833e-19)
(0.389432 -0.125057 1.60421e-19)
(0.493684 -0.102601 -1.92308e-21)
(0.580774 -0.0853251 9.25774e-20)
(0.65 -0.0717687 -7.39003e-21)
(0.707858 -0.0608551 -4.60967e-20)
(0.755423 -0.0518371 1.85026e-19)
(0.795248 -0.0441797 -4.32452e-20)
(0.828145 -0.0379848 -1.23666e-21)
(0.106428 -0.200986 -3.40447e-19)
(0.266393 -0.245982 4.00583e-20)
(0.412022 -0.205416 -2.1579e-19)
(0.511749 -0.168678 1.99726e-20)
(0.595333 -0.140396 1.83651e-19)
(0.661936 -0.118187 -1.2342e-19)
(0.717838 -0.100289 4.87357e-20)
(0.764007 -0.0854935 -4.51829e-20)
(0.802569 -0.0729615 1.1853e-19)
(0.833796 -0.0628984 -1.56407e-19)
(0.138961 -0.272928 -3.86113e-21)
(0.306322 -0.336036 4.85373e-19)
(0.44513 -0.281326 2.63404e-19)
(0.538244 -0.231324 -1.27623e-19)
(0.616706 -0.192774 -1.50062e-19)
(0.679467 -0.162468 2.23339e-19)
(0.732481 -0.138025 -8.50294e-20)
(0.776588 -0.117817 -5.28658e-20)
(0.81334 -0.100743 -1.73573e-19)
(0.842252 -0.0871439 2.20148e-19)
(0.180193 -0.336841 1.48464e-19)
(0.357506 -0.417999 -2.14073e-19)
(0.487823 -0.351177 -5.88745e-19)
(0.572433 -0.289359 2.79141e-19)
(0.644313 -0.241587 -2.48091e-19)
(0.702115 -0.203982 -3.46177e-19)
(0.751365 -0.173592 2.79796e-20)
(0.792795 -0.148401 -1.14502e-20)
(0.827309 -0.127117 2.46961e-19)
(0.853435 -0.110323 -1.14053e-19)
(0.22857 -0.391085 2.46233e-19)
(0.418285 -0.489831 -1.40601e-19)
(0.538892 -0.413511 7.21008e-19)
(0.613434 -0.341666 -3.36213e-19)
(0.677542 -0.28585 -3.18345e-20)
(0.72946 -0.241782 3.78819e-19)
(0.774169 -0.206071 1.17141e-19)
(0.812337 -0.176468 -9.58562e-20)
(0.844255 -0.15157 -1.58539e-19)
(0.867271 -0.132127 8.44777e-20)
(0.282211 -0.433984 -6.83494e-21)
(0.486632 -0.549777 3.69612e-19)
(0.596754 -0.467257 -4.08696e-19)
(0.660103 -0.387456 2.79374e-19)
(0.71544 -0.325067 -6.87745e-20)
(0.760622 -0.275755 -2.25336e-19)
(0.800004 -0.235781 3.66885e-19)
(0.834343 -0.202588 1.40045e-19)
(0.863566 -0.174453 -1.21626e-19)
(0.883521 -0.152362 -5.97297e-20)
(0.338711 -0.463964 -1.15266e-19)
(0.560292 -0.596635 -5.76947e-19)
(0.659747 -0.511627 5.60642e-19)
(0.711277 -0.42602 -1.50226e-19)
(0.757204 -0.358494 -3.2331e-19)
(0.795192 -0.304902 1.5435e-19)
(0.828849 -0.261186 2.89386e-20)
(0.859025 -0.224643 1.67033e-19)
(0.885504 -0.193686 -1.92633e-19)
(0.902343 -0.170079 1.2682e-19)
(0.39525 -0.480004 1.97245e-19)
(0.636751 -0.629672 -3.8614e-20)
(0.726145 -0.546108 -1.97563e-19)
(0.765688 -0.456957 7.80742e-20)
(0.801792 -0.385915 3.05607e-19)
(0.832214 -0.329406 -3.34993e-19)
(0.859561 -0.283339 -2.16203e-19)
(0.884611 -0.245083 -1.72262e-19)
(0.907747 -0.212774 1.38878e-19)
(0.922441 -0.187888 -1.03516e-19)
(0.448694 -0.481676 -6.24339e-20)
(0.713211 -0.64851 6.20238e-20)
(0.794141 -0.57043 3.74682e-20)
(0.822046 -0.480049 -1.23607e-19)
(0.848194 -0.407083 -1.96385e-20)
(0.870985 -0.348763 1.84563e-19)
(0.891978 -0.300915 -1.86198e-19)
(0.911746 -0.260656 2.62944e-19)
(0.931778 -0.225775 1.25925e-19)
(0.946941 -0.199542 -4.26866e-20)
(0.49588 -0.469359 1.87756e-20)
(0.787012 -0.653488 3.58546e-21)
(0.861939 -0.584527 -7.60556e-20)
(0.87906 -0.495294 -4.20159e-20)
(0.895411 -0.421989 4.85384e-20)
(0.910709 -0.363019 1.26174e-19)
(0.925538 -0.314402 -5.48323e-20)
(0.939736 -0.273739 -6.52591e-20)
(0.95452 -0.240383 -2.44748e-19)
(0.968825 -0.216802 1.35721e-19)
(0.532658 -0.44342 2.18736e-19)
(0.855156 -0.645038 1.39073e-20)
(0.927656 -0.588594 2.19242e-21)
(0.935468 -0.502947 3.46664e-20)
(0.942474 -0.430826 -1.01557e-19)
(0.950546 -0.372319 -5.7007e-20)
(0.959529 -0.323815 -7.29337e-20)
(0.968356 -0.283347 1.37345e-19)
(0.97756 -0.250396 5.43551e-20)
(0.98825 -0.223168 -5.06115e-20)
(0.556668 -0.407084 1.00089e-19)
(0.915098 -0.624689 -1.72385e-19)
(0.98975 -0.582741 -4.89883e-20)
(0.990077 -0.50345 -1.1917e-21)
(0.988503 -0.433875 2.40622e-20)
(0.989765 -0.376846 5.61272e-21)
(0.993303 -0.329136 1.15254e-19)
(0.997378 -0.289071 -1.015e-19)
(1.00157 -0.256266 -1.10464e-20)
(1.00786 -0.227273 1.39091e-19)
(0.566713 -0.362922 -4.16065e-19)
(0.962809 -0.592792 -1.16612e-19)
(1.04636 -0.567877 -1.12217e-20)
(1.04174 -0.497365 2.02979e-21)
(1.0327 -0.431568 2.33037e-20)
(1.02772 -0.376948 2.10913e-20)
(1.02631 -0.330698 -5.41675e-20)
(1.0264 -0.291483 1.3196e-20)
(1.02665 -0.25926 -2.33814e-20)
(1.02883 -0.230303 -3.80432e-20)
(0.561675 -0.312635 1.03456e-20)
(0.995786 -0.55092 3.30181e-19)
(1.09546 -0.545256 4.08598e-20)
(1.08937 -0.485144 -2.23761e-20)
(1.07434 -0.424441 -5.32485e-21)
(1.06394 -0.373115 3.7858e-20)
(1.05805 -0.329033 2.02084e-20)
(1.0548 -0.291172 2.78096e-21)
(1.05209 -0.2599 -6.71076e-21)
(1.05077 -0.231905 -2.12589e-21)
(0.540477 -0.258508 8.0638e-20)
(1.01247 -0.501158 -1.4984e-19)
(1.13475 -0.515741 5.9579e-20)
(1.132 -0.467581 7.83723e-20)
(1.11282 -0.413271 -5.57105e-20)
(1.09786 -0.365889 -3.73001e-21)
(1.08813 -0.324552 -4.9857e-20)
(1.08204 -0.288537 -1.36497e-20)
(1.07704 -0.258366 1.64736e-20)
(1.07284 -0.231984 -7.23992e-21)
(0.502908 -0.203321 1.09925e-19)
(1.01109 -0.44514 1.89636e-19)
(1.16217 -0.480334 1.10775e-19)
(1.16854 -0.445711 -1.26403e-19)
(1.14778 -0.398701 1.23616e-19)
(1.12924 -0.355781 -5.81187e-20)
(1.11624 -0.317749 -1.05806e-20)
(1.10758 -0.283902 -7.55731e-21)
(1.10091 -0.254945 -9.42459e-21)
(1.09433 -0.230609 -8.82389e-21)
(0.450094 -0.149964 2.80055e-19)
(0.98972 -0.384427 -1.49112e-19)
(1.17592 -0.440067 8.629e-20)
(1.19757 -0.42036 8.28019e-20)
(1.17858 -0.381452 -4.06449e-20)
(1.15791 -0.343398 6.41871e-20)
(1.14233 -0.308924 2.16615e-20)
(1.1313 -0.277605 2.59035e-20)
(1.12318 -0.249913 1.66142e-20)
(1.11519 -0.22787 1.69256e-20)
(0.384714 -0.101209 -1.02158e-19)
(0.946658 -0.320669 -1.43922e-19)
(1.17395 -0.395867 -9.76923e-20)
(1.2177 -0.392184 -9.13431e-20)
(1.20452 -0.362202 -3.40317e-20)
(1.18349 -0.329293 4.39855e-20)
(1.1662 -0.298451 -1.88892e-20)
(1.15327 -0.269874 3.5842e-21)
(1.1438 -0.24389 -1.27912e-20)
(1.13515 -0.223931 6.25514e-21)
(0.311035 -0.0596445 2.64843e-20)
(0.880586 -0.255646 -5.77676e-21)
(1.15373 -0.348578 2.45365e-20)
(1.22722 -0.361631 1.66167e-20)
(1.22485 -0.341477 1.46076e-20)
(1.20567 -0.314001 -3.54013e-20)
(1.18766 -0.286809 1.65839e-20)
(1.17352 -0.261055 -1.60851e-20)
(1.16279 -0.23696 -4.41873e-21)
(1.15344 -0.218831 -6.36679e-21)
(0.234605 -0.0275895 1.09164e-21)
(0.791058 -0.191429 -8.96618e-22)
(1.11242 -0.299108 -5.89983e-21)
(1.22375 -0.328968 7.45937e-20)
(1.23843 -0.319559 -2.06971e-20)
(1.22418 -0.297971 -2.43681e-20)
(1.20668 -0.274443 4.42281e-21)
(1.19186 -0.251446 -4.68865e-21)
(1.18043 -0.229179 -1.15487e-20)
(1.17016 -0.212642 -2.67064e-20)
(0.161504 -0.00667697 -1.06474e-19)
(0.678979 -0.130582 2.32951e-20)
(1.04699 -0.248297 -2.011e-19)
(1.20399 -0.294248 -7.72596e-20)
(1.24338 -0.296495 -2.86456e-20)
(1.23834 -0.281447 -8.35438e-21)
(1.22319 -0.261714 -2.33396e-20)
(1.20852 -0.241391 -2.25194e-20)
(1.19638 -0.220659 7.33129e-21)
(1.18584 -0.205485 1.86346e-20)
(0.0973458 0.00302704 1.80302e-19)
(0.54888 -0.0767723 -1.0253e-19)
(0.954783 -0.197166 1.57962e-19)
(1.16352 -0.257299 8.20697e-20)
(1.23659 -0.271992 -4.83256e-20)
(1.24697 -0.264504 1.53998e-19)
(1.2369 -0.248802 -3.2257e-20)
(1.22328 -0.231131 6.1052e-20)
(1.21142 -0.211945 4.11906e-21)
(1.20048 -0.197403 6.25015e-20)
(0.0460483 0.0035395 -1.11438e-19)
(0.410814 -0.0348244 4.67583e-19)
(0.834114 -0.147095 -1.03252e-19)
(1.09685 -0.217983 -8.86537e-20)
(1.21346 -0.245546 2.293e-19)
(1.24741 -0.246762 -1.0326e-19)
(1.24706 -0.235804 -5.41718e-20)
(1.23641 -0.220835 -3.00645e-20)
(1.22458 -0.20315 -1.14718e-19)
(1.21483 -0.188889 4.02836e-20)
(0.00886094 -0.00158004 -2.02945e-19)
(0.279116 -0.00947717 -2.78847e-19)
(0.686349 -0.100388 2.21225e-19)
(0.998188 -0.176584 6.22515e-20)
(1.16721 -0.216341 -1.64162e-19)
(1.23545 -0.227631 -1.683e-19)
(1.25141 -0.222253 8.9375e-21)
(1.24703 -0.210514 -1.10571e-19)
(1.23738 -0.194806 1.73239e-19)
(1.22706 -0.179534 -2.51631e-20)
(-0.0155495 -0.00878261 9.14091e-20)
(0.167316 -0.00175265 4.37613e-19)
(0.520459 -0.0613032 -5.45246e-20)
(0.863305 -0.133998 1.56124e-20)
(1.08932 -0.183631 -3.69406e-20)
(1.20328 -0.205648 2.18363e-19)
(1.24632 -0.20777 7.55396e-20)
(1.25361 -0.199529 1.28967e-19)
(1.24743 -0.186594 -1.20397e-19)
(1.24068 -0.170762 7.19533e-20)
(-0.0300514 -0.0158616 -6.7581e-19)
(0.0822545 -0.00693567 1.73758e-19)
(0.356177 -0.0356424 -2.20484e-19)
(0.694421 -0.0931868 2.68126e-19)
(0.970178 -0.146742 -6.62483e-20)
(1.14057 -0.179562 -3.81846e-19)
(1.22273 -0.190299 2.05786e-19)
(1.25279 -0.18782 -7.85798e-20)
(1.25544 -0.178148 7.0322e-20)
(1.24927 -0.16062 2.14612e-19)
(-0.0374413 -0.0220227 3.1617e-19)
(0.0232835 -0.018316 -4.7802e-19)
(0.21577 -0.0263975 -5.92231e-20)
(0.507772 -0.0606138 -2.97515e-19)
(0.805381 -0.107744 -3.69602e-19)
(1.03213 -0.147054 1.82754e-19)
(1.16957 -0.16898 -2.28731e-19)
(1.23375 -0.172055 -2.79963e-20)
(1.25669 -0.169854 -2.33458e-20)
(1.26028 -0.151048 -2.74069e-19)
(-0.0398356 -0.027092 2.95382e-19)
(-0.014245 -0.0312215 -1.13508e-19)
(0.110694 -0.0304182 1.08529e-19)
(0.332105 -0.0429049 -1.61867e-19)
(0.608224 -0.0735807 1.59014e-19)
(0.868383 -0.110127 2.95942e-19)
(1.06375 -0.139148 1.76123e-19)
(1.18597 -0.153048 -8.2968e-21)
(1.23782 -0.155733 -1.9844e-19)
(1.26196 -0.140961 1.61688e-19)
(-0.0389608 -0.0311902 3.45554e-19)
(-0.0357757 -0.0434978 1.10957e-19)
(0.0398127 -0.0414907 1.86538e-19)
(0.191466 -0.0406951 5.46908e-20)
(0.411616 -0.0527607 -2.6761e-19)
(0.662688 -0.0761494 8.0285e-20)
(0.893201 -0.104811 -3.06396e-19)
(1.07297 -0.121178 4.25329e-19)
(1.19174 -0.142957 2.55263e-19)
(1.23551 -0.117719 6.94012e-20)
(-0.0361575 -0.0344948 -4.89033e-19)
(-0.0461648 -0.054239 -1.22039e-19)
(-0.00404008 -0.0545114 -1.42213e-19)
(0.0927377 -0.0485595 8.29646e-20)
(0.248037 -0.0473414 3.37848e-19)
(0.451982 -0.0551763 -2.72116e-19)
(0.677478 -0.0737818 -1.18478e-19)
(0.885698 -0.0864087 -1.49856e-19)
(1.0583 -0.110348 -4.80667e-19)
(1.20038 -0.114316 1.22476e-19)
(-0.0323937 -0.0370611 -2.0028e-19)
(-0.049418 -0.062888 4.38029e-20)
(-0.0290517 -0.0663504 2.20438e-20)
(0.0294273 -0.0599021 -1.34418e-19)
(0.129839 -0.0523 -2.15318e-19)
(0.275151 -0.0513531 5.69355e-19)
(0.455037 -0.0508255 7.994e-20)
(0.665672 -0.0639854 2.49677e-19)
(0.821182 -0.0692758 -4.88476e-20)
(1.08309 -0.0942671 1.88503e-19)
(-0.0283361 -0.0387913 3.57458e-19)
(-0.0485856 -0.0688613 8.0198e-20)
(-0.0423273 -0.0750526 -3.78652e-19)
(-0.00947345 -0.0699272 2.11107e-19)
(0.0512928 -0.0608355 3.4378e-19)
(0.147003 -0.0565547 -3.35135e-19)
(0.263998 -0.0400275 2.85681e-19)
(0.457817 -0.0562956 -1.55918e-19)
(0.542205 -0.0396686 2.25967e-19)
(0.875908 -0.0670228 -3.56706e-19)
(-0.024334 -0.0394522 6.90257e-20)
(-0.0457066 -0.0715277 -5.16284e-19)
(-0.0491569 -0.0793825 5.02133e-19)
(-0.0339004 -0.0757859 -2.87324e-20)
(-0.000230517 -0.0673803 -1.67165e-19)
(0.0587835 -0.0612654 -5.66779e-21)
(0.124914 -0.0426052 -4.39862e-19)
(0.277277 -0.0518034 3.96191e-19)
(0.308779 -0.0307135 -3.16512e-19)
(0.614937 -0.0460073 2.2143e-19)
(-0.0204808 -0.038652 1.03571e-19)
(-0.042062 -0.0703582 -5.2027e-20)
(-0.052972 -0.0786794 -1.7793e-19)
(-0.0507045 -0.0762089 -2.18424e-19)
(-0.0360445 -0.0691315 4.94979e-20)
(-0.00334479 -0.0620592 -2.43076e-19)
(0.030675 -0.0488731 -8.07167e-21)
(0.130298 -0.0453215 -3.67556e-20)
(0.146458 -0.037591 1.08798e-19)
(0.354432 -0.0341017 4.82176e-21)
(-0.0168309 -0.0359665 -2.97211e-19)
(-0.0384143 -0.0650861 2.12603e-19)
(-0.0555961 -0.0728203 2.99051e-19)
(-0.0636455 -0.0710105 -1.29341e-20)
(-0.0628842 -0.0652804 9.87336e-20)
(-0.0497105 -0.0583825 -9.26754e-20)
(-0.0367173 -0.0505254 3.70593e-19)
(0.0190689 -0.0391059 -1.19598e-19)
(0.0299139 -0.0428639 -3.789e-19)
(0.143594 -0.0216763 1.80121e-19)
(-0.0135061 -0.0311295 -2.11509e-20)
(-0.0351797 -0.0557578 -2.39494e-19)
(-0.0577625 -0.0621685 -1.89296e-19)
(-0.0741194 -0.0607488 1.84438e-19)
(-0.0840469 -0.0561554 -1.35874e-19)
(-0.0862108 -0.0503888 6.1892e-20)
(-0.0864525 -0.0454059 4.63558e-20)
(-0.0617378 -0.0329051 2.16871e-20)
(-0.0603946 -0.0376655 1.12257e-19)
(-0.00432236 -0.0112112 -2.13221e-19)
(-0.0107026 -0.0241408 1.64276e-19)
(-0.0325878 -0.04278 2.07105e-19)
(-0.0595924 -0.0474696 6.43967e-21)
(-0.0823813 -0.0463647 -1.65962e-19)
(-0.100497 -0.0429372 2.71528e-20)
(-0.113617 -0.0387282 4.25131e-20)
(-0.123311 -0.0346395 -6.45275e-20)
(-0.120575 -0.02573 3.36831e-20)
(-0.126431 -0.0276 3.45953e-20)
(-0.104575 -0.00740065 -3.54739e-20)
(-0.00865398 -0.015314 -2.34334e-20)
(-0.0307816 -0.026909 3.22891e-20)
(-0.0609602 -0.0297324 -1.44177e-19)
(-0.0881937 -0.0290046 3.74503e-20)
(-0.111904 -0.0268747 -8.24987e-20)
(-0.131948 -0.0242976 2.23494e-20)
(-0.148384 -0.0214403 4.02348e-20)
(-0.158426 -0.0165502 -7.2013e-20)
(-0.169506 -0.0162377 -8.36702e-21)
(-0.166532 -0.00580835 3.2225e-20)
(-0.00756847 -0.00525005 -1.61544e-20)
(-0.0298542 -0.00918269 3.44913e-21)
(-0.0616969 -0.0101216 7.68631e-20)
(-0.0912082 -0.00986498 3.04955e-20)
(-0.117747 -0.00914093 -1.79451e-20)
(-0.141144 -0.00826668 1.01834e-20)
(-0.161134 -0.00724334 -1.3634e-20)
(-0.176823 -0.00572182 2.10282e-20)
(-0.19096 -0.00534382 1.39264e-20)
(-0.196553 -0.00227359 6.09989e-24)
(-0.200553 0.00334995 -5.54805e-20)
(-0.204526 0.00309569 3.97257e-20)
(-0.207985 0.00276796 5.53646e-22)
(-0.211068 0.00248113 -6.87405e-21)
(-0.213846 0.0022307 -1.37452e-20)
(-0.21635 0.00201249 -1.58179e-20)
(-0.218615 0.00182169 -2.70803e-20)
(-0.220668 0.00165338 4.81434e-20)
(-0.222532 0.00150213 -2.73194e-20)
(-0.224224 0.00136354 5.60545e-20)
(-0.225753 0.0012341 -3.53044e-20)
(-0.227131 0.00111107 -5.09958e-21)
(-0.228361 0.000992481 -1.24904e-20)
(-0.229447 0.000877277 3.2391e-20)
(-0.230392 0.00076509 -2.13449e-20)
(-0.231199 0.000655538 2.17938e-20)
(-0.231872 0.000547717 -1.51547e-20)
(-0.232415 0.000444334 -1.27821e-20)
(-0.232827 0.000349188 8.23172e-21)
(-0.233105 0.000258805 -5.48184e-21)
(-0.233258 0.000160441 2.0445e-20)
(-0.233293 5.69961e-05 -9.31321e-21)
(-0.233204 -4.97979e-05 -1.38195e-20)
(-0.232987 -0.000159524 8.56904e-21)
(-0.232636 -0.000272229 -1.16605e-20)
(-0.232148 -0.000388114 1.37195e-20)
(-0.231518 -0.000507438 3.81503e-21)
(-0.230743 -0.000630476 -1.10015e-20)
(-0.229816 -0.0007575 1.97588e-20)
(-0.228733 -0.000888763 2.01842e-20)
(-0.227489 -0.0010245 -2.10336e-20)
(-0.226078 -0.0011649 8.85284e-21)
(-0.224494 -0.00131015 1.08991e-20)
(-0.222731 -0.00146039 -1.96021e-20)
(-0.220782 -0.00161573 2.29214e-20)
(-0.218642 -0.00177626 -2.24582e-20)
(-0.216303 -0.001942 2.67795e-20)
(-0.21376 -0.00211299 -1.22121e-20)
(-0.211005 -0.00228919 -4.73972e-21)
(-0.208033 -0.00247052 8.50465e-22)
(-0.204836 -0.0026569 7.19169e-21)
(-0.201409 -0.00284819 4.19683e-21)
(-0.197745 -0.00304419 1.08325e-22)
(-0.193839 -0.0032447 -1.11055e-20)
(-0.189685 -0.00344946 -1.26279e-21)
(-0.185278 -0.00365821 -3.56958e-21)
(-0.180612 -0.00387059 7.5229e-21)
(-0.175683 -0.00408609 -6.42248e-22)
(-0.170487 -0.00430389 8.08354e-21)
(-0.16502 -0.00452333 -1.54668e-20)
(-0.159277 -0.00474424 7.81996e-21)
(-0.153261 -0.00496407 6.0243e-22)
(-0.146972 -0.00518443 -1.3237e-20)
(-0.140408 -0.00540495 6.36897e-21)
(-0.133571 -0.00562466 2.88925e-21)
(-0.12646 -0.00584281 1.65416e-21)
(-0.119078 -0.00605872 -3.86867e-21)
(-0.111428 -0.00627169 2.38181e-22)
(-0.103511 -0.00648107 1.20268e-20)
(-0.0953327 -0.00668618 -1.74952e-20)
(-0.0868981 -0.00688641 1.20213e-20)
(-0.0782129 -0.0070812 1.61389e-21)
(-0.0692841 -0.00727048 -1.65417e-21)
(-0.0601176 -0.00745492 -1.24636e-21)
(-0.0507207 -0.00763147 1.32078e-21)
(-0.0411048 -0.00779682 -2.52576e-21)
(-0.0312806 -0.00795387 -2.35741e-22)
(-0.0212574 -0.00810263 -6.11697e-22)
(-0.011046 -0.00824241 3.18559e-22)
(-0.000656685 -0.00837259 1.63523e-21)
(0.00989949 -0.00849312 -3.04028e-21)
(0.0206097 -0.00860387 -7.69558e-22)
(0.0314614 -0.00870446 2.4552e-21)
(0.0424426 -0.00879473 1.6606e-21)
(0.0535407 -0.00887461 -1.97898e-21)