/*--------------------------------*- C++ -*----------------------------------*\
  =========                 |
  \\      /  F ield         | OpenFOAM: The Open Source CFD Toolbox
   \\    /   O peration     | Website:  https://openfoam.org
    \\  /    A nd           | Version:  7
     \\/     M anipulation  |
\*---------------------------------------------------------------------------*/
FoamFile
{
    version     2.0;
    format      ascii;
    class       volVectorField;
    location    "10";
    object      U;
}
// * * * * * * * * * * * * * * * * * * * * * * * * * * * * * * * * * * * * * //

dimensions      [0 1 -1 0 0 0 0];

internalField   nonuniform List<vector> 
1360
(
(0.946249 0.0766015 0)
(0.988042 0.0764437 0)
(1.02386 0.074685 7.50784e-12)
(1.05333 0.0717217 -7.50784e-12)
(1.07658 0.0678885 0)
(1.09413 0.0634817 0)
(1.10676 0.0587462 0)
(1.11535 0.0538674 0)
(1.12078 0.0489748 -3.61035e-28)
(1.12385 0.0441501 3.61035e-28)
(1.12525 0.0394386 -3.71912e-28)
(1.12552 0.0348595 3.71912e-28)
(1.1251 0.0304147 -9.16382e-12)
(1.12429 0.0260961 9.16382e-12)
(1.12332 0.0218898 0)
(1.12235 0.0177795 0)
(1.12149 0.0137477 9.41195e-12)
(1.12079 0.00977662 -9.41195e-12)
(1.12031 0.00584877 -4.35791e-28)
(1.12006 0.00194674 4.3855e-28)
(0.946627 0.0762528 0)
(0.987554 0.0761218 0)
(1.02268 0.074401 8.18099e-29)
(1.05162 0.0714762 -8.18099e-29)
(1.0745 0.0676791 0)
(1.09182 0.0633038 0)
(1.10433 0.0585938 0)
(1.11288 0.0537346 0)
(1.11832 0.0488564 7.23182e-28)
(1.12144 0.0440423 -7.23182e-28)
(1.12289 0.039339 7.4625e-28)
(1.12323 0.034767 -7.4625e-28)
(1.12288 0.0303294 -1.769e-11)
(1.12213 0.0260187 1.769e-11)
(1.12122 0.0218215 0)
(1.12029 0.0177215 0)
(1.11946 0.0137011 9.09928e-12)
(1.11879 0.00974254 -9.09928e-12)
(1.11832 0.00582799 5.81695e-28)
(1.11808 0.00193976 -5.85378e-28)
(0.947019 0.0758871 0)
(0.987084 0.0757827 0)
(1.02151 0.0740998 0)
(1.04992 0.0712134 0)
(1.07243 0.0674527 0)
(1.08952 0.0631092 0)
(1.10191 0.0584255 0)
(1.11042 0.0535867 0)
(1.11587 0.048724 -3.34092e-28)
(1.11903 0.0439217 3.34092e-28)
(1.12054 0.0392279 0)
(1.12095 0.0346643 0)
(1.12066 0.0302352 -1.70647e-11)
(1.11998 0.0259336 1.70647e-11)
(1.11912 0.0217466 3.60693e-28)
(1.11824 0.0176581 -3.60693e-28)
(1.11744 0.0136504 0)
(1.1168 0.00970552 0)
(1.11635 0.00580546 -4.07353e-28)
(1.11612 0.00193219 4.09932e-28)
(0.947425 0.0755048 0)
(0.986631 0.075427 0)
(1.02036 0.0737818 0)
(1.04825 0.0709341 0)
(1.07039 0.0672101 0)
(1.08724 0.0628991 0)
(1.0995 0.0582424 0)
(1.10796 0.0534251 0)
(1.11342 0.0485789 0)
(1.11662 0.0437896 0)
(1.1182 0.0391065 -6.92127e-28)
(1.11868 0.0345526 6.92127e-28)
(1.11845 0.0301331 -1.64519e-11)
(1.11783 0.0258418 1.64519e-11)
(1.11702 0.0216662 -7.24597e-28)
(1.11619 0.0175902 7.24597e-28)
(1.11543 0.0135962 -7.33669e-28)
(1.11481 0.00966604 7.33669e-28)
(1.11438 0.00578146 5.43131e-28)
(1.11416 0.00192414 -5.4657e-28)
(0.947845 0.075106 0)
(0.986196 0.075055 0)
(1.01923 0.0734476 1.41148e-29)
(1.04659 0.0706389 -1.41148e-29)
(1.06836 0.0669521 0)
(1.08498 0.0626745 0)
(1.09711 0.0580457 -3.2655e-28)
(1.10552 0.053251 3.2655e-28)
(1.11098 0.0484226 0)
(1.11422 0.0436475 0)
(1.11586 0.0389763 0)
(1.1164 0.0344332 0)
(1.11625 0.0300244 -1.58516e-11)
(1.11568 0.0257445 1.58516e-11)
(1.11494 0.0215812 0)
(1.11415 0.0175186 0)
(1.11343 0.0135392 8.19452e-12)
(1.11284 0.00962463 -8.19452e-12)
(1.11243 0.00575631 0)
(1.11221 0.00191571 0)
(0.948279 0.0746909 -2.20888e-28)
(0.985778 0.074667 2.21166e-28)
(1.01812 0.0730977 -1.34234e-29)
(1.04496 0.0703285 1.34234e-29)
(1.06635 0.0666798 0)
(1.08273 0.0624364 0)
(1.09473 0.0578367 3.12677e-28)
(1.10308 0.0530657 -3.12677e-28)
(1.10855 0.0482564 -7.12983e-12)
(1.11183 0.0434966 7.12983e-12)
(1.11353 0.0388385 0)
(1.11414 0.0343075 0)
(1.11405 0.0299105 -1.52638e-11)
(1.11355 0.0256428 1.52638e-11)
(1.11285 0.0214927 3.23617e-28)
(1.11211 0.0174443 -3.23617e-28)
(1.11143 0.0134802 1.58083e-11)
(1.11087 0.00958176 -1.58083e-11)
(1.11048 0.0057303 -3.66575e-28)
(1.11027 0.00190699 3.68896e-28)
(0.948726 0.0742598 4.34521e-28)
(0.985378 0.0742634 -4.35066e-28)
(1.01704 0.0727327 0)
(1.04334 0.0700038 0)
(1.06436 0.066394 0)
(1.0805 0.0621858 0)
(1.09236 0.0576164 -4.12922e-28)
(1.10066 0.0528705 4.12922e-28)
(1.10613 0.0480815 -6.83832e-12)
(1.10945 0.0433385 6.83832e-12)
(1.11121 0.0386947 0)
(1.11188 0.0341766 0)
(1.11185 0.0297924 -7.34432e-12)
(1.11142 0.0255378 7.34432e-12)
(1.11078 0.0214016 -6.48946e-28)
(1.11009 0.0173681 6.48946e-28)
(1.10944 0.0134197 7.61948e-12)
(1.10891 0.00953793 -7.61948e-12)
(1.10854 0.00570374 0)
(1.10834 0.00189809 0)
(0.949187 0.0738128 0)
(0.984996 0.0738444 0)
(1.01597 0.0723529 0)
(1.04174 0.0696651 0)
(1.06239 0.0660954 0)
(1.07828 0.0619237 0)
(1.09 0.057386 2.86024e-28)
(1.09825 0.0526665 -2.86024e-28)
(1.10372 0.0478992 0)
(1.10708 0.0431742 0)
(1.10889 0.0385459 0)
(1.10963 0.034042 0)
(1.10967 0.0296714 0)
(1.10929 0.0254307 0)
(1.10871 0.0213089 0)
(1.10807 0.0172907 0)
(1.10746 0.0133585 3.0471e-28)
(1.10696 0.0094936 -3.0471e-28)
(1.1066 0.0056769 0)
(1.10642 0.0018891 0)
(0.949662 0.0733501 0)
(0.984631 0.0734104 0)
(1.01492 0.0719588 0)
(1.04017 0.0693132 0)
(1.06044 0.0657847 0)
(1.07608 0.061651 0)
(1.08767 0.0571464 0)
(1.09585 0.0524548 0)
(1.10132 0.0477107 -5.42409e-28)
(1.10471 0.043005 5.42409e-28)
(1.10658 0.0383934 0)
(1.10738 0.0339046 0)
(1.10749 0.0295485 0)
(1.10718 0.0253223 0)
(1.10665 0.0212155 0)
(1.10606 0.0172129 0)
(1.10549 0.0132971 0)
(1.10502 0.00944922 0)
(1.10468 0.00565006 4.52845e-28)
(1.10451 0.00188012 -4.55712e-28)
(0.95015 0.0728719 0)
(0.984286 0.0729616 0)
(1.01389 0.0715507 0)
(1.03861 0.0689484 0)
(1.05851 0.0654626 0)
(1.0739 0.0613683 0)
(1.08534 0.0568984 0)
(1.09347 0.0522363 0)
(1.09893 0.0475169 0)
(1.10235 0.042832 0)
(1.10427 0.0382383 0)
(1.10514 0.0337656 0)
(1.10532 0.0294247 0)
(1.10507 0.0252136 0)
(1.1046 0.0211221 0)
(1.10405 0.0171354 0)
(1.10353 0.0132361 -2.82258e-28)
(1.10308 0.00940518 2.82258e-28)
(1.10277 0.00562345 -3.15781e-28)
(1.1026 0.00187122 3.1778e-28)
(0.950653 0.0723782 -3.4165e-28)
(0.983959 0.0724981 3.42072e-28)
(1.01288 0.0711288 0)
(1.03708 0.0685711 0)
(1.05659 0.0651295 0)
(1.07174 0.0610763 0)
(1.08304 0.0566428 0)
(1.0911 0.0520119 0)
(1.09655 0.0473188 -5.74474e-12)
(1.10001 0.0426561 5.74474e-12)
(1.10198 0.0380814 0)
(1.10291 0.0336258 0)
(1.10315 0.0293009 0)
(1.10297 0.0251054 0)
(1.10256 0.0210296 5.55249e-28)
(1.10206 0.0170589 -5.55249e-28)
(1.10157 0.0131759 6.53772e-12)
(1.10116 0.00936185 -6.53772e-12)
(1.10086 0.0055973 4.19211e-28)
(1.10071 0.00186248 -4.21865e-28)
(0.95117 0.0718692 1.53941e-28)
(0.983651 0.0720199 -1.5413e-28)
(1.0119 0.0706932 0)
(1.03557 0.0681815 0)
(1.05471 0.0647857 0)
(1.0696 0.0607754 0)
(1.08075 0.0563801 0)
(1.08874 0.0517822 0)
(1.09419 0.047117 -1.09784e-11)
(1.09767 0.0424779 1.09784e-11)
(1.0997 0.0379236 0)
(1.10069 0.0334861 0)
(1.101 0.0291779 -6.00044e-12)
(1.10088 0.0249984 6.00044e-12)
(1.10052 0.0209384 -2.56099e-28)
(1.10007 0.0169837 2.56099e-28)
(1.09962 0.013117 1.25631e-11)
(1.09924 0.00931951 -1.25631e-11)
(1.09897 0.00557179 -2.91927e-28)
(1.09882 0.00185395 2.93775e-28)
(0.951701 0.0713446 2.48555e-29)
(0.983363 0.0715271 -2.4886e-29)
(1.01094 0.0702441 -1.44008e-28)
(1.03409 0.0677798 1.44008e-28)
(1.05284 0.0644314 0)
(1.06748 0.0604659 0)
(1.07848 0.0561107 0)
(1.0864 0.0515477 0)
(1.09184 0.0469121 -5.24074e-12)
(1.09535 0.0422981 5.24074e-12)
(1.09742 0.0377654 0)
(1.09848 0.0333469 0)
(1.09885 0.0290561 -1.15007e-11)
(1.09879 0.024893 1.15007e-11)
(1.0985 0.0208491 0)
(1.0981 0.0169104 0)
(1.09769 0.0130597 6.03101e-12)
(1.09733 0.00927842 -6.03101e-12)
(1.09708 0.00554706 0)
(1.09694 0.0018457 0)
(0.952247 0.0708045 1.56824e-28)
(0.983095 0.0710196 -1.57016e-28)
(1.01 0.0697813 -1.01038e-28)
(1.03263 0.0673659 1.01038e-28)
(1.051 0.0640668 0)
(1.06538 0.0601478 0)
(1.07623 0.0558348 0)
(1.08408 0.0513085 0)
(1.0895 0.0467044 0)
(1.09303 0.0421171 0)
(1.09516 0.0376072 0)
(1.09628 0.0332087 0)
(1.09671 0.028936 -1.10128e-11)
(1.09672 0.0247898 1.10128e-11)
(1.09648 0.020762 0)
(1.09612 0.0168391 0)
(1.09576 0.0130042 2.79648e-28)
(1.09543 0.00923876 -2.79648e-28)
(1.0952 0.00552323 8.70705e-29)
(1.09508 0.00183775 -8.76218e-29)
(0.952807 0.0702488 0)
(0.982848 0.0704971 0)
(1.00908 0.0693046 0)
(1.03119 0.0669397 0)
(1.04918 0.0636916 0)
(1.06331 0.0598213 0)
(1.074 0.0555525 0)
(1.08177 0.0510648 0)
(1.08718 0.0464939 3.41078e-29)
(1.09074 0.0419349 -3.41078e-29)
(1.09291 0.0374493 0)
(1.09409 0.0330718 0)
(1.09459 0.0288178 -1.05372e-11)
(1.09465 0.0246888 1.05372e-11)
(1.09447 0.0206774 0)
(1.09416 0.0167702 0)
(1.09383 0.0129508 0)
(1.09354 0.00920062 0)
(1.09333 0.00550036 0)
(1.09321 0.00183012 0)
(0.953382 0.0696771 -2.43373e-28)
(0.982621 0.0699595 2.43667e-28)
(1.00819 0.0688139 0)
(1.02978 0.0665008 0)
(1.04739 0.0633057 0)
(1.06126 0.059486 0)
(1.07179 0.0552634 0)
(1.07949 0.0508165 0)
(1.08487 0.0462807 0)
(1.08845 0.0417517 0)
(1.09067 0.0372915 0)
(1.0919 0.0329361 0)
(1.09247 0.0287016 -1.00737e-11)
(1.09259 0.0245903 1.00737e-11)
(1.09246 0.0205952 0)
(1.09221 0.0167037 0)
(1.09192 0.0128994 0)
(1.09166 0.00916406 0)
(1.09146 0.00547847 0)
(1.09136 0.00182284 0)
(0.953971 0.0690893 1.08558e-28)
(0.982415 0.0694064 -1.08689e-28)
(1.00733 0.0683086 7.15024e-30)
(1.0284 0.066049 -7.15024e-30)
(1.04563 0.0629085 0)
(1.05923 0.0591416 0)
(1.0696 0.0549673 0)
(1.07722 0.0505633 0)
(1.08258 0.0460645 -4.31588e-12)
(1.08618 0.041567 4.31588e-12)
(1.08844 0.0371338 1.90586e-28)
(1.08973 0.0328015 -1.90586e-28)
(1.09035 0.0285872 -9.62225e-12)
(1.09054 0.024494 9.62225e-12)
(1.09047 0.0205155 0)
(1.09026 0.0166395 0)
(1.09001 0.01285 5.08515e-12)
(1.08978 0.00912905 -5.08515e-12)
(1.08961 0.00545757 -2.3676e-28)
(1.08951 0.00181588 2.38259e-28)
(0.954576 0.068485 -2.32391e-28)
(0.982232 0.0688373 0)
(1.00649 0.0677884 -2.35403e-28)
(1.02705 0.0655837 2.99554e-28)
(1.04389 0.0624997 -3.5812e-28)
(1.05723 0.0587875 -3.59562e-28)
(1.06744 0.0546636 3.30772e-28)
(1.07497 0.0503045 3.71222e-28)
(1.08031 0.0458447 -4.10156e-12)
(1.08392 0.0413806 4.10156e-12)
(1.08622 0.0369757 0)
(1.08757 0.0326677 3.99565e-28)
(1.08825 0.0284744 -4.59135e-12)
(1.0885 0.0243997 4.59135e-12)
(1.08848 0.020438 4.25734e-28)
(1.08832 0.0165774 4.61985e-28)
(1.08811 0.0128025 9.7251e-12)
(1.08791 0.0090955 -9.7251e-12)
(1.08776 0.00543758 7.55723e-28)
(1.08767 0.00180925 -3.14576e-28)
(0.955195 0.0678638 2.32392e-28)
(0.98207 0.0682519 0)
(1.00568 0.0672528 2.68968e-28)
(1.02572 0.0651043 -3.33119e-28)
(1.04218 0.0620786 3.5812e-28)
(1.05526 0.058423 3.59562e-28)
(1.0653 0.0543518 -3.30772e-28)
(1.07275 0.0500397 -3.71222e-28)
(1.07806 0.0456208 3.36467e-28)
(1.08168 0.0411918 -3.36467e-28)
(1.08402 0.0368167 0)
(1.08542 0.0325341 -3.99565e-28)
(1.08616 0.0283626 -4.38016e-28)
(1.08647 0.024307 0)
(1.0865 0.0203623 -4.25734e-28)
(1.08639 0.0165172 -4.61985e-28)
(1.08622 0.0127567 4.6454e-12)
(1.08605 0.00906326 -4.6454e-12)
(1.08591 0.00541842 -4.43126e-28)
(1.08584 0.00180289 0)
(0.955829 0.0672254 0)
(0.98193 0.0676496 0)
(1.00489 0.066701 0)
(1.02442 0.06461 0)
(1.0405 0.0616444 0)
(1.05332 0.0580475 0)
(1.06319 0.0540309 0)
(1.07055 0.0497679 0)
(1.07583 0.045392 -1.53282e-28)
(1.07946 0.0409998 1.53282e-28)
(1.08184 0.0366561 0)
(1.08329 0.0324001 0)
(1.08408 0.0282514 0)
(1.08445 0.0242154 0)
(1.08453 0.020288 0)
(1.08447 0.0164585 0)
(1.08433 0.0127122 4.43366e-12)
(1.08419 0.0090321 -4.43366e-12)
(1.08408 0.00539996 0)
(1.08401 0.00179677 0)
(0.956478 0.0665691 0)
(0.981813 0.0670298 0)
(1.00413 0.0661324 0)
(1.02316 0.0641002 0)
(1.03886 0.0611962 0)
(1.0514 0.0576598 0)
(1.06111 0.0537 0)
(1.06837 0.0494882 0)
(1.07362 0.0451572 3.02242e-28)
(1.07726 0.0408037 -3.02242e-28)
(1.07966 0.0364929 0)
(1.08116 0.0322648 0)
(1.08202 0.0281398 0)
(1.08243 0.0241243 0)
(1.08257 0.0202146 3.56295e-28)
(1.08255 0.0164008 -3.56295e-28)
(1.08245 0.0126687 4.22725e-12)
(1.08234 0.00900176 -4.22725e-12)
(1.08224 0.00538204 -2.72067e-28)
(1.08219 0.00179084 2.73789e-28)
(0.957141 0.0658947 0)
(0.981719 0.066392 0)
(1.00341 0.0655463 0)
(1.02192 0.0635741 0)
(1.03724 0.0607331 1.09491e-28)
(1.04952 0.0572592 -1.09491e-28)
(1.05905 0.0533581 0)
(1.06622 0.0491995 0)
(1.07143 0.0449155 -1.37369e-28)
(1.07507 0.0406025 1.37369e-28)
(1.07751 0.0363262 -1.48012e-28)
(1.07905 0.0321274 1.48012e-28)
(1.07996 0.0280272 0)
(1.08043 0.0240328 0)
(1.08062 0.0201414 0)
(1.08064 0.0163436 0)
(1.08058 0.0126258 0)
(1.0805 0.00897194 0)
(1.08042 0.00536447 0)
(1.08038 0.00178504 0)
(0.957818 0.0652016 0)
(0.981647 0.0657355 0)
(1.0027 0.0649421 0)
(1.02072 0.0630307 0)
(1.03565 0.0602543 -2.1323e-28)
(1.04766 0.0568446 2.1323e-28)
(1.05702 0.0530041 0)
(1.06409 0.0489008 0)
(1.06926 0.0446657 2.70201e-28)
(1.0729 0.040395 -2.70201e-28)
(1.07537 0.036155 0)
(1.07696 0.0319868 0)
(1.07791 0.0279125 0)
(1.07844 0.0239402 0)
(1.07867 0.0200676 -3.22308e-28)
(1.07874 0.0162862 3.22308e-28)
(1.07872 0.012583 3.83016e-12)
(1.07866 0.00894228 -3.83016e-12)
(1.0786 0.00534703 2.46701e-28)
(1.07857 0.00177929 -2.48263e-28)
(0.95851 0.0644893 0)
(0.981599 0.0650598 0)
(1.00203 0.0643188 0)
(1.01955 0.0624692 0)
(1.0341 0.0597588 0)
(1.04584 0.0564148 0)
(1.05502 0.0526369 -1.22252e-28)
(1.06199 0.0485908 1.22252e-28)
(1.06711 0.0444066 0)
(1.07075 0.0401802 0)
(1.07325 0.035978 0)
(1.07487 0.0318419 0)
(1.07588 0.0277948 -1.40885e-28)
(1.07645 0.0238454 1.40885e-28)
(1.07674 0.0199925 0)
(1.07685 0.0162281 0)
(1.07686 0.0125397 7.27868e-12)
(1.07683 0.00891241 -7.27868e-12)
(1.07679 0.00532951 -1.699e-28)
(1.07676 0.00177351 1.70976e-28)
(0.959215 0.0637574 0)
(0.981573 0.0643641 0)
(1.00139 0.0636759 1.75111e-12)
(1.01841 0.0618888 -1.75111e-12)
(1.03259 0.0592454 0)
(1.04405 0.0559688 0)
(1.05306 0.0522553 1.14708e-28)
(1.05992 0.0482684 -1.14708e-28)
(1.065 0.0441369 -1.15426e-28)
(1.06863 0.0399566 1.15426e-28)
(1.07114 0.035794 0)
(1.07281 0.0316916 0)
(1.07386 0.027673 0)
(1.07448 0.0237477 0)
(1.07481 0.0199153 0)
(1.07496 0.0161684 0)
(1.07501 0.0124955 3.45355e-12)
(1.075 0.00888193 -3.45355e-12)
(1.07498 0.00531166 0)
(1.07497 0.00176764 0)
(0.959934 0.0630053 0)
(0.981569 0.063648 0)
(1.00078 0.0630126 1.61012e-12)
(1.0173 0.0612887 -1.61012e-12)
(1.0311 0.0587134 0)
(1.0423 0.0555056 0)
(1.05112 0.0518581 -1.4831e-28)
(1.05788 0.0479322 1.4831e-28)
(1.0629 0.0438555 0)
(1.06653 0.0397232 0)
(1.06906 0.035602 0)
(1.07076 0.0315348 0)
(1.07185 0.027546 -3.03904e-12)
(1.07252 0.023646 3.03904e-12)
(1.0729 0.019835 2.74731e-28)
(1.07309 0.0161066 -2.74731e-28)
(1.07317 0.0124497 3.27272e-12)
(1.07319 0.00885044 -3.27272e-12)
(1.07318 0.00529324 0)
(1.07318 0.00176157 0)
(0.960666 0.0622326 0)
(0.981589 0.0629109 0)
(1.00019 0.0623282 3.36046e-30)
(1.01623 0.0606679 -3.36046e-30)
(1.02965 0.0581618 0)
(1.04058 0.0550241 0)
(1.04922 0.0514443 1.00481e-28)
(1.05586 0.0475813 -1.00481e-28)
(1.06083 0.0435612 1.02031e-28)
(1.06445 0.0394787 -1.02031e-28)
(1.06699 0.0354006 0)
(1.06872 0.0313703 0)
(1.06986 0.0274128 -5.73899e-12)
(1.07057 0.0235393 5.73899e-12)
(1.07099 0.0197509 -1.24781e-28)
(1.07122 0.0160419 1.24781e-28)
(1.07133 0.0124018 6.1935e-12)
(1.07138 0.00881752 -6.1935e-12)
(1.07139 0.005274 1.44737e-28)
(1.07139 0.00175524 -1.45653e-28)
(0.96141 0.061439 -8.00038e-29)
(0.981631 0.0621523 8.00939e-29)
(0.999636 0.0616221 1.53949e-29)
(1.01519 0.0600258 -1.53949e-29)
(1.02824 0.0575897 0)
(1.03889 0.0545234 0)
(1.04735 0.0510128 -1.29447e-28)
(1.05388 0.0472143 1.29447e-28)
(1.05879 0.0432527 -1.99194e-28)
(1.06239 0.0392219 1.99194e-28)
(1.06495 0.0351887 0)
(1.06671 0.0311969 0)
(1.06788 0.0272723 -5.41015e-12)
(1.06864 0.0234267 5.41015e-12)
(1.0691 0.0196621 0)
(1.06936 0.0159735 0)
(1.06951 0.0123513 2.92554e-12)
(1.06957 0.00878278 -2.92554e-12)
(1.0696 0.00525369 0)
(1.06961 0.00174856 0)
(0.962166 0.0606241 3.38946e-29)
(0.981695 0.0613717 -3.39326e-29)
(0.999111 0.0608938 0)
(1.01418 0.0593617 0)
(1.02687 0.0569963 0)
(1.03724 0.0540025 0)
(1.04551 0.0505626 8.73648e-29)
(1.05193 0.0468304 -8.73648e-29)
(1.05678 0.042929 8.9583e-29)
(1.06036 0.0389517 -8.9583e-29)
(1.06292 0.0349652 0)
(1.06471 0.0310138 0)
(1.06592 0.0271236 -2.54567e-12)
(1.06671 0.0233074 2.54567e-12)
(1.06721 0.0195679 0)
(1.06752 0.0159009 0)
(1.06769 0.0122975 0)
(1.06778 0.00874583 0)
(1.06782 0.00523209 -1.29047e-28)
(1.06784 0.00174145 1.29864e-28)
(0.962933 0.0597876 -6.16964e-29)
(0.98178 0.0605687 6.1765e-29)
(0.998615 0.0601427 0)
(1.01321 0.058675 0)
(1.02553 0.0563809 0)
(1.03563 0.0534607 0)
(1.04371 0.0500928 0)
(1.05001 0.0464284 0)
(1.0548 0.042589 0)
(1.05835 0.0386671 0)
(1.06092 0.0347292 0)
(1.06273 0.0308197 0)
(1.06398 0.0269657 -2.39116e-12)
(1.06481 0.0231804 2.39116e-12)
(1.06534 0.0194675 0)
(1.06568 0.0158234 0)
(1.06588 0.0122401 -2.24406e-28)
(1.06599 0.0087063 2.24406e-28)
(1.06605 0.00520896 0)
(1.06608 0.00173384 0)
(0.963711 0.0589293 2.56594e-29)
(0.981888 0.0597432 -2.56877e-29)
(0.998148 0.0593685 2.28954e-30)
(1.01228 0.0579652 -2.28954e-30)
(1.02422 0.055743 0)
(1.03406 0.0528972 0)
(1.04195 0.0496026 0)
(1.04813 0.0460076 0)
(1.05285 0.0422319 -7.80434e-29)
(1.05637 0.0383672 7.80434e-29)
(1.05895 0.0344796 0)
(1.06078 0.0306139 0)
(1.06205 0.0267977 -4.4829e-12)
(1.06291 0.023045 4.4829e-12)
(1.06348 0.0193601 0)
(1.06385 0.0157404 0)
(1.06408 0.0121785 2.4394e-12)
(1.06422 0.00866384 -2.4394e-12)
(1.06429 0.0051841 0)
(1.06432 0.00172566 0)
(0.964498 0.0580491 0)
(0.982016 0.0588948 0)
(0.997711 0.0585709 -2.0581e-30)
(1.01138 0.057232 2.0581e-30)
(1.02296 0.055082 0)
(1.03252 0.0523116 0)
(1.04022 0.0490914 0)
(1.04628 0.0455673 0)
(1.05093 0.0418569 0)
(1.05442 0.038051 0)
(1.05699 0.0342156 0)
(1.05884 0.0303956 0)
(1.06014 0.026619 -2.0964e-12)
(1.06104 0.0229005 2.0964e-12)
(1.06164 0.0192452 0)
(1.06204 0.0156514 0)
(1.06229 0.0121123 4.57228e-12)
(1.06245 0.00861816 -4.57228e-12)
(1.06254 0.00515732 1.07045e-28)
(1.06258 0.00171684 -1.07722e-28)
(0.965295 0.057147 -3.85332e-29)
(0.982165 0.0580234 3.8575e-29)
(0.997303 0.0577497 0)
(1.01051 0.056475 0)
(1.02173 0.0543976 0)
(1.03102 0.0517032 0)
(1.03853 0.0485587 0)
(1.04446 0.0451067 0)
(1.04904 0.0414633 0)
(1.0525 0.0377181 0)
(1.05506 0.0339366 1.56321e-28)
(1.05693 0.0301641 -1.56321e-28)
(1.05825 0.0264288 0)
(1.05918 0.0227462 0)
(1.05981 0.0191223 0)
(1.06024 0.0155559 0)
(1.06051 0.0120411 4.27413e-12)
(1.06069 0.00856898 -4.27413e-12)
(1.06079 0.00512847 -1.38157e-28)
(1.06084 0.00170732 1.39032e-28)
(0.966101 0.0562229 1.53313e-29)
(0.982334 0.0571291 -1.53478e-29)
(0.996924 0.0569048 0)
(1.00968 0.0556942 0)
(1.02054 0.0536896 0)
(1.02956 0.051072 0)
(1.03688 0.048004 0)
(1.04268 0.0446256 0)
(1.04718 0.0410507 0)
(1.05061 0.0373678 0)
(1.05316 0.0336421 -6.97316e-29)
(1.05503 0.0299187 6.97316e-29)
(1.05638 0.0262266 0)
(1.05733 0.0225818 0)
(1.058 0.0189909 0)
(1.05845 0.0154535 0)
(1.05875 0.0119647 1.99205e-12)
(1.05894 0.00851608 -1.99205e-12)
(1.05906 0.00509739 9.33328e-29)
(1.05911 0.00169708 -9.39237e-29)
(0.966914 0.0552772 0)
(0.982523 0.0562121 0)
(0.996574 0.0560364 0)
(1.00888 0.0548895 0)
(1.01939 0.0529579 0)
(1.02814 0.0504176 0)
(1.03526 0.0474273 0)
(1.04093 0.0441236 0)
(1.04536 0.0406187 1.19762e-28)
(1.04875 0.0369997 -1.19762e-28)
(1.05129 0.0333315 1.34383e-28)
(1.05317 0.0296592 -1.34383e-28)
(1.05453 0.026012 -1.68798e-12)
(1.05551 0.0224067 1.68798e-12)
(1.0562 0.0188506 1.54343e-28)
(1.05667 0.015344 -1.54343e-28)
(1.057 0.0118828 1.85095e-12)
(1.05721 0.00845927 -1.85095e-12)
(1.05734 0.00506399 -1.19729e-28)
(1.05739 0.00168605 1.20487e-28)
(0.967734 0.0543101 0)
(0.982731 0.0552725 0)
(0.996252 0.0551446 0)
(1.00812 0.0540611 0)
(1.01827 0.0522027 0)
(1.02676 0.0497402 0)
(1.03369 0.0468283 0)
(1.03923 0.0436006 0)
(1.04357 0.0401671 -5.29099e-29)
(1.04691 0.0366137 5.29099e-29)
(1.04944 0.0330046 0)
(1.05132 0.0293851 0)
(1.0527 0.0257847 -3.1206e-12)
(1.0537 0.0222207 3.1206e-12)
(1.05442 0.0187011 0)
(1.05492 0.0152271 0)
(1.05526 0.0117951 3.42724e-12)
(1.05549 0.00839839 -3.42724e-12)
(1.05562 0.00502815 8.03291e-29)
(1.05569 0.00167422 -8.08377e-29)
(0.968561 0.0533219 0)
(0.982958 0.0543108 0)
(0.995958 0.0542299 0)
(1.00739 0.0532093 0)
(1.0172 0.051424 0)
(1.02541 0.0490398 0)
(1.03215 0.0462072 0)
(1.03756 0.0430566 0)
(1.04182 0.0396958 0)
(1.04512 0.0362095 0)
(1.04762 0.0326614 0)
(1.04951 0.0290964 0)
(1.0509 0.0255446 -2.8732e-12)
(1.05192 0.0220237 2.8732e-12)
(1.05265 0.0185423 -6.32247e-29)
(1.05317 0.0151026 6.32247e-29)
(1.05354 0.0117016 1.57992e-12)
(1.05378 0.00833337 -1.57992e-12)
(1.05393 0.00498984 0)
(1.054 0.00166157 0)
(0.969393 0.0523134 -1.06623e-29)
(0.983202 0.0533275 1.06734e-29)
(0.995692 0.0532926 0)
(1.0067 0.0523345 0)
(1.01616 0.0506224 0)
(1.02411 0.0483169 0)
(1.03065 0.0455642 0)
(1.03593 0.0424918 0)
(1.0401 0.0392051 0)
(1.04335 0.0357874 0)
(1.04584 0.0323017 0)
(1.04772 0.028793 0)
(1.04912 0.0252915 -2.63348e-12)
(1.05015 0.0218154 2.63348e-12)
(1.05091 0.0183742 0)
(1.05145 0.0149704 0)
(1.05183 0.0116022 1.44968e-12)
(1.05209 0.00826414 -1.44968e-12)
(1.05224 0.00494901 0)
(1.05232 0.00164807 0)
(0.970229 0.0512851 3.17281e-30)
(0.983465 0.0523234 -3.17609e-30)
(0.995453 0.0523336 0)
(1.00604 0.0514375 0)
(1.01516 0.0497985 0)
(1.02285 0.0475719 0)
(1.0292 0.0448999 0)
(1.03434 0.0419066 0)
(1.03842 0.0386952 0)
(1.04162 0.0353475 0)
(1.04408 0.0319259 -4.56264e-29)
(1.04595 0.0284751 4.56264e-29)
(1.04736 0.0250256 -1.20055e-12)
(1.04841 0.0215961 1.20055e-12)
(1.04918 0.0181967 0)
(1.04974 0.0148306 0)
(1.05014 0.0114968 2.64551e-12)
(1.05041 0.00819069 -2.64551e-12)
(1.05057 0.00490565 -6.20316e-29)
(1.05065 0.00163374 6.24243e-29)
(0.97107 0.050238 0)
(0.983744 0.0512993 0)
(0.995241 0.0513536 0)
(1.00541 0.050519 0)
(1.0142 0.0489529 0)
(1.02163 0.0468056 0)
(1.02778 0.0442148 0)
(1.03278 0.0413015 0)
(1.03678 0.0381665 7.5503e-29)
(1.03992 0.0348902 -7.5503e-29)
(1.04235 0.0315342 0)
(1.04422 0.0281429 0)
(1.04563 0.024747 0)
(1.04669 0.0213658 0)
(1.04748 0.0180099 0)
(1.04805 0.0146833 0)
(1.04846 0.0113856 1.19896e-12)
(1.04874 0.00811307 -1.19896e-12)
(1.04892 0.00485978 0)
(1.049 0.00161856 0)
(0.971914 0.0491731 0)
(0.984039 0.0502562 0)
(0.995056 0.0503537 0)
(1.00482 0.0495801 0)
(1.01328 0.0480867 0)
(1.02045 0.0460187 0)
(1.02641 0.0435098 0)
(1.03127 0.0406773 0)
(1.03517 0.0376198 0)
(1.03825 0.0344161 0)
(1.04066 0.031127 0)
(1.04251 0.0277968 0)
(1.04393 0.0244561 0)
(1.045 0.0211248 0)
(1.0458 0.017814 4.31293e-29)
(1.04638 0.0145286 -4.31293e-29)
(1.04681 0.0112687 -4.47542e-29)
(1.0471 0.00803134 4.47542e-29)
(1.04728 0.00481145 5.05514e-29)
(1.04737 0.00160256 -5.08714e-29)
(0.97276 0.0480916 0)
(0.984351 0.0491954 0)
(0.994897 0.0493352 2.06027e-13)
(1.00426 0.0486218 -2.06027e-13)
(1.01239 0.0472009 0)
(1.01931 0.0452124 0)
(1.02507 0.0427857 0)
(1.0298 0.0400348 0)
(1.0336 0.0370557 -6.03258e-29)
(1.03663 0.0339259 6.03258e-29)
(1.039 0.030705 0)
(1.04084 0.0274372 0)
(1.04225 0.0241533 0)
(1.04333 0.0208735 0)
(1.04413 0.0176094 -7.99938e-29)
(1.04474 0.0143667 7.99938e-29)
(1.04517 0.0111461 8.29612e-29)
(1.04547 0.00794562 -8.29612e-29)
(1.04566 0.00476071 -6.2114e-29)
(1.04575 0.00158576 6.25072e-29)
(0.973609 0.046995 0)
(0.984677 0.0481184 0)
(0.994764 0.0482994 1.65635e-13)
(1.00374 0.0476456 -1.65635e-13)
(1.01155 0.0462968 0)
(1.01821 0.0443879 0)
(1.02378 0.0420437 -2.30363e-29)
(1.02837 0.039375 2.30363e-29)
(1.03207 0.0364753 0)
(1.03504 0.0334203 0)
(1.03737 0.0302689 0)
(1.03919 0.0270649 0)
(1.0406 0.0238392 0)
(1.04168 0.0206122 0)
(1.0425 0.0173964 0)
(1.04311 0.0141979 0)
(1.04355 0.0110182 0)
(1.04386 0.00785606 0)
(1.04406 0.00470765 0)
(1.04415 0.00156817 0)
(0.974458 0.0458847 0)
(0.985019 0.0470268 0)
(0.994656 0.047248 2.96368e-31)
(1.00325 0.0466531 -2.96368e-31)
(1.01074 0.0453761 0)
(1.01715 0.0435466 0)
(1.02253 0.0412852 0)
(1.02697 0.0386992 0)
(1.03058 0.0358796 0)
(1.03348 0.0329004 0)
(1.03578 0.0298196 0)
(1.03758 0.0266806 0)
(1.03898 0.0235143 0)
(1.04006 0.0203417 0)
(1.04088 0.0171755 0)
(1.0415 0.0140225 0)
(1.04196 0.0108853 -3.03691e-29)
(1.04227 0.00776286 3.03691e-29)
(1.04247 0.00465238 0)
(1.04257 0.00154982 0)
(0.975308 0.0447633 7.87303e-30)
(0.985374 0.0459228 -7.88067e-30)
(0.994573 0.0461831 0)
(1.00279 0.0456463 0)
(1.00998 0.0444406 0)
(1.01614 0.0426903 0)
(1.02133 0.0405119 0)
(1.02563 0.038009 0)
(1.02914 0.0352701 0)
(1.03196 0.0323675 0)
(1.03422 0.0293583 0)
(1.036 0.0262853 0)
(1.03739 0.0231796 0)
(1.03847 0.0200625 0)
(1.03929 0.0169471 0)
(1.03992 0.0138411 0)
(1.04038 0.0107475 6.20508e-13)
(1.0407 0.00766626 -6.20508e-13)
(1.04091 0.00459501 4.00375e-29)
(1.04101 0.00153074 -4.0291e-29)
(0.97615 0.0436351 -4.17727e-30)
(0.985739 0.0448106 4.18127e-30)
(0.994515 0.0451088 0)
(1.00237 0.0446292 0)
(1.00925 0.043494 0)
(1.01517 0.0418226 0)
(1.02017 0.0397269 1.4542e-29)
(1.02433 0.0373072 -1.4542e-29)
(1.02774 0.0346493 1.61721e-29)
(1.0305 0.0318239 -1.61721e-29)
(1.03271 0.0288869 1.82924e-29)
(1.03446 0.0258808 -1.82924e-29)
(1.03584 0.0228366 -4.75116e-13)
(1.03691 0.0197759 4.75116e-13)
(1.03774 0.0167125 0)
(1.03837 0.0136545 0)
(1.03884 0.0106057 5.11138e-13)
(1.03917 0.00756673 -5.11138e-13)
(1.03938 0.00453569 -2.385e-29)
(1.03948 0.00151089 2.4001e-29)
(0.977024 0.0425152 9.62855e-30)
(0.986132 0.0437056 -9.63768e-30)
(0.994481 0.0440401 0)
(1.00197 0.043616 0)
(1.00854 0.04255 0)
(1.01421 0.0409561 0)
(1.01902 0.0389421 -1.72497e-29)
(1.02303 0.0366046 1.72497e-29)
(1.02634 0.0340271 -2.86628e-29)
(1.02902 0.0312783 2.86628e-29)
(1.03119 0.0284131 -3.1988e-29)
(1.03291 0.0254737 3.1988e-29)
(1.03427 0.022491 -7.87757e-13)
(1.03534 0.0194869 7.87757e-13)
(1.03617 0.0164756 0)
(1.03681 0.013466 0)
(1.03728 0.0104623 -3.59376e-29)
(1.03761 0.0074661 3.59376e-29)
(1.03782 0.00447571 0)
(1.03792 0.0014908 0)
(0.978212 0.0415358 -5.03404e-30)
(0.986687 0.042737 5.03649e-30)
(0.99447 0.0431003 0)
(1.00147 0.0427223 0)
(1.00763 0.0417147 0)
(1.01297 0.0401875 0)
(1.01751 0.0382443 1.10094e-29)
(1.02132 0.0359788 -1.10071e-29)
(1.02448 0.0334719 0)
(1.02706 0.0307907 0)
(1.02915 0.0279892 0)
(1.03083 0.025109 0)
(1.03217 0.0221811 -6.54109e-13)
(1.03322 0.0192274 6.54071e-13)
(1.03405 0.0162628 0)
(1.03468 0.0132964 0)
(1.03515 0.0103334 3.35009e-13)
(1.03549 0.00737582 -3.35003e-13)
(1.03571 0.00442399 1.53859e-29)
(1.03581 0.00147471 -1.54849e-29)
(0.901509 0.0756965 -2.76251e-20)
(0.902805 0.0753193 4.72084e-20)
(0.904112 0.0749264 -3.01198e-20)
(0.905428 0.074518 3.19258e-20)
(0.906754 0.0740941 -4.72985e-20)
(0.908088 0.0736549 1.25474e-20)
(0.909431 0.0732004 3.20606e-20)
(0.910783 0.0727309 -4.11612e-20)
(0.912143 0.0722464 9.62932e-21)
(0.913511 0.071747 -7.30062e-21)
(0.914887 0.0712329 -6.95386e-22)
(0.916271 0.070704 1.107e-20)
(0.917663 0.0701604 3.37192e-21)
(0.919062 0.069602 -6.23139e-21)
(0.920468 0.0690288 -4.17265e-21)
(0.921882 0.0684406 8.82467e-21)
(0.923303 0.0678372 -3.8951e-21)
(0.924731 0.0672185 2.656e-21)
(0.926165 0.0665841 -1.7397e-21)
(0.927606 0.0659339 1.23948e-21)
(0.929052 0.0652673 4.11322e-21)
(0.930504 0.0645841 -6.30587e-21)
(0.931961 0.063884 -2.58244e-21)
(0.933422 0.0631664 4.01986e-21)
(0.934887 0.0624311 -1.46592e-21)
(0.936356 0.0616777 7.57076e-22)
(0.937827 0.0609057 2.96973e-22)
(0.9393 0.0601149 -2.12779e-21)
(0.940774 0.059305 2.05796e-21)
(0.942248 0.0584757 -1.12114e-22)
(0.943722 0.0576268 3.89911e-22)
(0.945194 0.0567582 2.85595e-24)
(0.946663 0.0558697 -4.21827e-22)
(0.948129 0.0549615 -3.57841e-23)
(0.949591 0.0540335 1.95554e-22)
(0.951048 0.0530861 4.60683e-23)
(0.952498 0.0521195 -2.42384e-25)
(0.953941 0.051134 -5.52781e-25)
(0.955376 0.0501303 -1.59023e-23)
(0.956801 0.0491091 3.96772e-25)
(0.958216 0.048071 -2.84547e-23)
(0.959621 0.0470171 5.57197e-23)
(0.961013 0.0459485 1.06422e-22)
(0.962394 0.0448663 -1.76128e-22)
(0.963761 0.0437722 8.46343e-23)
(0.965114 0.0426684 2.9923e-23)
(0.96644 0.0415592 -6.40792e-23)
(0.967801 0.0404593 3.42441e-24)
(0.969633 0.039502 -5.73629e-25)
(0.855515 0.0722125 -1.14771e-20)
(0.857848 0.0718246 -6.29484e-22)
(0.860182 0.0714219 2.20503e-20)
(0.862517 0.0710045 -1.2913e-20)
(0.864853 0.0705724 4.53607e-21)
(0.867189 0.0701258 2.59685e-20)
(0.869526 0.0696647 -1.46428e-20)
(0.871862 0.0691891 -1.68289e-20)
(0.874197 0.0686993 1.66119e-20)
(0.876531 0.0681951 -1.55819e-20)
(0.878864 0.0676767 6.72285e-21)
(0.881195 0.0671442 1.08069e-20)
(0.883524 0.0665975 -3.54847e-22)
(0.885851 0.0660366 -8.05974e-21)
(0.888175 0.0654614 8.07883e-21)
(0.890496 0.0648719 -3.15637e-21)
(0.892813 0.064268 -3.54897e-21)
(0.895126 0.0636493 -3.34988e-22)
(0.897435 0.0630159 -2.52454e-21)
(0.899738 0.0623674 2.01612e-21)
(0.902036 0.0617037 4.56808e-22)
(0.904327 0.0610244 1.19345e-21)
(0.906612 0.0603293 -3.4276e-22)
(0.908888 0.0596182 2.44397e-21)
(0.911156 0.0588907 -2.23651e-21)
(0.913415 0.0581466 -1.29549e-21)
(0.915663 0.0573856 2.83811e-21)
(0.917901 0.0566076 -1.4094e-21)
(0.920125 0.0558122 -1.75876e-22)
(0.922337 0.0549994 -6.25006e-24)
(0.924535 0.0541691 -1.74165e-23)
(0.926717 0.0533211 -8.68985e-23)
(0.928882 0.0524555 -2.37188e-23)
(0.93103 0.0515723 -6.83227e-24)
(0.93316 0.0506717 -1.37471e-22)
(0.935269 0.049754 4.37587e-23)
(0.937358 0.0488193 2.75938e-22)
(0.939424 0.0478681 -1.28574e-22)
(0.941468 0.0469009 -8.49916e-23)
(0.943487 0.0459184 2.08647e-22)
(0.945481 0.0449212 -1.65106e-22)
(0.947448 0.0439102 7.27492e-23)
(0.949388 0.0428863 1.94737e-22)
(0.951301 0.0418505 -3.34465e-22)
(0.953185 0.0408042 3.6164e-23)
(0.955038 0.0397493 6.3033e-23)
(0.956845 0.0386898 -1.26267e-23)
(0.958692 0.0376398 7.88259e-24)
(0.961152 0.0367331 2.18351e-24)
(0.803383 0.0670966 -2.62935e-20)
(0.806856 0.0667266 -7.24424e-21)
(0.810321 0.0663431 1.66877e-20)
(0.813779 0.065946 -1.24035e-20)
(0.817228 0.0655353 -7.0873e-21)
(0.820668 0.065111 2.09618e-20)
(0.824099 0.0646732 1.2628e-21)
(0.827519 0.0642219 3.2941e-21)
(0.830928 0.0637573 -2.15403e-20)
(0.834326 0.0632793 9.48906e-21)
(0.837712 0.062788 -1.9423e-21)
(0.841085 0.0622835 1.59665e-21)