/*--------------------------------*- C++ -*----------------------------------*\
  =========                 |
  \\      /  F ield         | OpenFOAM: The Open Source CFD Toolbox
   \\    /   O peration     | Website:  https://openfoam.org
    \\  /    A nd           | Version:  7
     \\/     M anipulation  |
\*---------------------------------------------------------------------------*/
FoamFile
{
    version     2.0;
    format      ascii;
    class       volScalarField;
    location    "35.001";
    object      p;
}
// * * * * * * * * * * * * * * * * * * * * * * * * * * * * * * * * * * * * * //

dimensions      [0 2 -2 0 0 0 0];

internalField   nonuniform List<scalar> 
11400
(
-0.242777
-0.245024
-0.246019
-0.246834
-0.24756
-0.248233
-0.248885
0.632389
0.61162
0.598492
0.580802
0.559563
0.536386
0.512348
0.488215
0.632389
0.61162
0.598492
0.580802
0.559563
0.536386
0.512348
0.488215
0.464485
0.44147
0.419365
0.398274
0.37825
0.359307
0.341431
0.324593
0.308752
0.293861
0.279879
0.266795
0.627864
0.607362
0.594614
0.577325
0.556452
0.533597
0.50984
0.485954
0.462439
0.439616
0.417679
0.396738
0.376847
0.358021
0.340251
0.323508
0.307749
0.292926
0.279014
0.266035
0.618852
0.598881
0.586887
0.570397
0.550253
0.528038
0.504841
0.481446
0.458363
0.43592
0.414318
0.393675
0.374048
0.355458
0.337899
0.321345
0.30575
0.291062
0.277288
0.264517
0.605431
0.586246
0.575373
0.560069
0.541011
0.519749
0.497386
0.474722
0.452281
0.430405
0.409304
0.389104
0.369871
0.351631
0.334388
0.318116
0.302764
0.288279
0.274711
0.262245
0.587713
0.569562
0.560162
0.54642
0.528793
0.50879
0.487528
0.465828
0.444236
0.423107
0.402667
0.383053
0.36434
0.346564
0.329736
0.313837
0.298808
0.284592
0.271293
0.259227
0.565852
0.548966
0.541372
0.529552
0.513689
0.495238
0.475334
0.454824
0.434279
0.414073
0.39445
0.375559
0.357489
0.340285
0.323971
0.308532
0.293903
0.280021
0.267053
0.255472
0.540034
0.524627
0.519152
0.509592
0.49581
0.47919
0.460889
0.441786
0.422477
0.403363
0.384704
0.366668
0.349357
0.332831
0.317124
0.30223
0.288076
0.27459
0.262009
0.250991
0.510479
0.496747
0.493674
0.486689
0.475285
0.460761
0.444294
0.426801
0.408909
0.391043
0.37349
0.356434
0.339994
0.324244
0.309233
0.294965
0.281357
0.268327
0.256188
0.245801
0.477442
0.465557
0.465141
0.461017
0.452265
0.44008
0.425664
0.40997
0.393662
0.377194
0.360878
0.344919
0.329455
0.314574
0.300342
0.286776
0.273781
0.261266
0.249615
0.239918
0.441205
0.431314
0.433775
0.432769
0.426917
0.417295
0.405127
0.391407
0.376837
0.361903
0.346946
0.332193
0.3178
0.303875
0.290501
0.277705
0.265389
0.253443
0.242322
0.233363
0.402082
0.394305
0.399824
0.402157
0.399425
0.392568
0.382825
0.371236
0.358543
0.345269
0.33178
0.318332
0.305099
0.292209
0.279762
0.267802
0.256223
0.244896
0.234344
0.22616
0.360408
0.354837
0.363557
0.369412
0.369991
0.366072
0.358912
0.349593
0.338901
0.327395
0.315474
0.303418
0.291425
0.279641
0.268186
0.257119
0.24633
0.235669
0.225716
0.218334
0.316543
0.313241
0.325261
0.334781
0.338827
0.337995
0.33355
0.32662
0.318036
0.308394
0.298127
0.287541
0.276858
0.266242
0.255834
0.245711
0.235761
0.225806
0.216476
0.209913
0.270867
0.269866
0.285239
0.298524
0.306158
0.308533
0.306912
0.30247
0.296082
0.288385
0.279844
0.270794
0.261479
0.252085
0.242774
0.23364
0.224569
0.215354
0.206662
0.200925
0.223774
0.225075
0.24381
0.260915
0.272222
0.277891
0.279179
0.277302
0.27318
0.267492
0.260735
0.253275
0.245378
0.23725
0.229075
0.220968
0.212813
0.204365
0.196315
0.191394
0.175672
0.179246
0.201303
0.222236
0.237261
0.246283
0.250537
0.251278
0.249474
0.245842
0.240914
0.235084
0.228643
0.221817
0.214811
0.207764
0.200557
0.192893
0.185471
0.181341
0.126977
0.132763
0.158057
0.182777
0.201526
0.213926
0.221176
0.224567
0.225112
0.223566
0.220497
0.216326
0.211369
0.20587
0.200054
0.194094
0.187874
0.181015
0.174178
0.170778
0.0781089
0.0860157
0.114419
0.142835
0.165271
0.181041
0.19129
0.197339
0.200243
0.200798
0.199601
0.197107
0.193651
0.189495
0.184883
0.180027
0.174834
0.168815
0.16248
0.159658
0.0294893
0.0393949
0.070739
0.102708
0.128751
0.147849
0.161073
0.169765
0.17502
0.17767
0.178347
0.177531
0.175583
0.172778
0.169373
0.165619
0.161496
0.156428
0.150556
0.147952
-0.018464
-0.00671328
0.0273688
0.0626917
0.092221
0.114574
0.130719
0.142016
0.149593
0.154317
0.156852
0.157704
0.15726
0.15581
0.153612
0.150947
0.147912
0.143982
0.138728
0.135347
-0.0653374
-0.0519272
-0.0153409
0.0230789
0.0559324
0.0814317
0.100419
0.114258
0.124109
0.13087
0.135233
0.137731
0.138774
0.138671
0.137678
0.13607
0.13405
0.131395
0.127505
0.122272
-0.110742
-0.0958555
-0.0570509
-0.0158494
0.0201311
0.0486376
0.0703609
0.0866581
0.0987144
0.107458
0.113605
0.117713
0.120216
0.121442
0.121652
0.121098
0.120051
0.11863
0.116492
0.112376
-0.154414
-0.138067
-0.0974624
-0.0538266
-0.0149429
0.0163986
0.0407242
0.0593739
0.07355
0.0842047
0.0920784
0.0977492
0.101672
0.104198
0.105599
0.106111
0.10602
0.105678
0.105072
0.102457
-0.195913
-0.178298
-0.136392
-0.0905946
-0.049056
-0.0150873
0.0116821
0.0325586
0.0487508
0.0612308
0.0707598
0.0779341
0.0832262
0.0870093
0.0895704
0.0911367
0.0919751
0.092529
0.0929832
0.091483
-0.23485
-0.215722
-0.173981
-0.12589
-0.0819857
-0.0456342
-0.0166014
0.00635733
0.0244451
0.0386498
0.0497498
0.0583569
0.0649577
0.0699421
0.073613
0.076195
0.0779296
0.0792765
0.0805248
0.0798752
-0.271006
-0.250697
-0.2091
-0.159471
-0.113523
-0.0750675
-0.0439721
-0.0190938
0.000753319
0.0165685
0.0291433
0.0391017
0.0469411
0.0530634
0.0577847
0.0613332
0.0639318
0.0660318
0.067987
0.0681258
-0.304175
-0.28298
-0.241403
-0.191201
-0.143458
-0.103227
-0.0702849
-0.0436684
-0.0222131
-0.00491372
0.00902912
0.0202477
0.0292477
0.036439
0.0421485
0.046611
0.050039
0.0528648
0.0554848
0.0563954
-0.334143
-0.312279
-0.271059
-0.220474
-0.171807
-0.129969
-0.0954055
-0.0672527
-0.0443527
-0.0257056
-0.010511
0.00186862
0.0119444
0.0201313
0.026764
0.0320853
0.0363001
0.0398153
0.0430554
0.0447065
-0.360746
-0.338393
-0.297976
-0.247458
-0.19816
-0.155112
-0.119214
-0.0897448
-0.0655737
-0.0457248
-0.0294031
-0.0159685
-0.00490754
0.00419668
0.0116841
0.0178048
0.0227578
0.0269193
0.0307329
0.0330878
-0.38388
-0.361195
-0.321965
-0.272023
-0.222432
-0.17857
-0.141604
-0.111054
-0.0857953
-0.0648979
-0.0475817
-0.0332034
-0.0212531
-0.0113142
-0.003044
0.00381346
0.00945237
0.0142161
0.0185599
0.0215829
-0.403491
-0.380609
-0.342885
-0.29401
-0.244565
-0.200257
-0.162551
-0.131082
-0.104949
-0.0831611
-0.0649909
-0.0497831
-0.037044
-0.0263561
-0.0173778
-0.00984849
-0.00357777
0.00174392
0.00657722
0.010231
-0.419577
-0.396618
-0.360674
-0.313324
-0.264484
-0.220099
-0.181946
-0.14984
-0.122974
-0.100461
-0.0815842
-0.0656607
-0.0522391
-0.0408892
-0.0312797
-0.023145
-0.0162981
-0.0104645
-0.00518268
-0.00093654
-0.432188
-0.409262
-0.375324
-0.329917
-0.282131
-0.238042
-0.199734
-0.16724
-0.139862
-0.116792
-0.0973087
-0.0807984
-0.0668048
-0.0548785
-0.0447182
-0.0360452
-0.0286783
-0.0223831
-0.0166978
-0.0118957
-0.441429
-0.41863
-0.386873
-0.343777
-0.297471
-0.254055
-0.215891
-0.183246
-0.155563
-0.1321
-0.112169
-0.095193
-0.0807019
-0.0682955
-0.0576677
-0.0485238
-0.0406922
-0.0339875
-0.0279522
-0.0226352
-0.447454
-0.424867
-0.395405
-0.354925
-0.3105
-0.26813
-0.230409
-0.197852
-0.170055
-0.146362
-0.12613
-0.108806
-0.0939332
-0.0811368
-0.0701032
-0.0605611
-0.0523216
-0.0452513
-0.0389276
-0.0331747
-0.450466
-0.428174
-0.401049
-0.36342
-0.321239
-0.280271
-0.243294
-0.211059
-0.18334
-0.159576
-0.139178
-0.121623
-0.106476
-0.093376
-0.0820188
-0.0721488
-0.0635704
-0.056143
-0.0495692
-0.0435847
-0.450708
-0.428795
-0.403978
-0.36936
-0.329738
-0.290508
-0.254562
-0.222885
-0.195431
-0.17175
-0.151317
-0.133645
-0.118322
-0.105004
-0.093401
-0.0832681
-0.0744084
-0.0666827
-0.0598799
-0.0538034
-0.448456
-0.42701
-0.404412
-0.372881
-0.336072
-0.298885
-0.264247
-0.233353
-0.206347
-0.1829
-0.162558
-0.144878
-0.129474
-0.116021
-0.104244
-0.0939108
-0.0848285
-0.0768616
-0.0698326
-0.063544
-0.444015
-0.423127
-0.40261
-0.374158
-0.340348
-0.305468
-0.272396
-0.242503
-0.216119
-0.193051
-0.172921
-0.155336
-0.139942
-0.126432
-0.114551
-0.104077
-0.0948256
-0.0866609
-0.0794165
-0.0728688
-0.437705
-0.417472
-0.398865
-0.373403
-0.342696
-0.310341
-0.279069
-0.250381
-0.224787
-0.202233
-0.18243
-0.165039
-0.14974
-0.13625
-0.12433
-0.113773
-0.104401
-0.0960816
-0.0886628
-0.0819035
-0.429857
-0.410376
-0.393488
-0.370855
-0.343274
-0.313605
-0.284336
-0.257044
-0.232399
-0.210488
-0.191119
-0.174014
-0.15889
-0.14549
-0.133594
-0.123009
-0.113566
-0.105139
-0.0975982
-0.0906981
-0.420799
-0.402164
-0.386807
-0.36678
-0.342264
-0.315377
-0.28828
-0.262555
-0.239007
-0.21786
-0.199026
-0.182291
-0.167417
-0.154174
-0.142361
-0.1318
-0.122336
-0.113846
-0.10623
-0.0992507
-0.410847
-0.393151
-0.379143
-0.361462
-0.339869
-0.31579
-0.290991
-0.266984
-0.244669
-0.2244
-0.206194
-0.189909
-0.175352
-0.162326
-0.15065
-0.140164
-0.130725
-0.122215
-0.114556
-0.107545
-0.400302
-0.383627
-0.370809
-0.355191
-0.336313
-0.314995
-0.292569
-0.270403
-0.249447
-0.230162
-0.212669
-0.196906
-0.182729
-0.169976
-0.158487
-0.148121
-0.138747
-0.130254
-0.12258
-0.115572
-0.389435
-0.373853
-0.362089
-0.348255
-0.331829
-0.313155
-0.293123
-0.272891
-0.2534
-0.235197
-0.218501
-0.203327
-0.189587
-0.177155
-0.165898
-0.155691
-0.146421
-0.13798
-0.130314
-0.12334
-0.378489
-0.364057
-0.353236
-0.340927
-0.326658
-0.310447
-0.292768
-0.274525
-0.256591
-0.23956
-0.223737
-0.209213
-0.195962
-0.183897
-0.172911
-0.162901
-0.153766
-0.145409
-0.137775
-0.130859
-0.367668
-0.354429
-0.344466
-0.333453
-0.321039
-0.307055
-0.291633
-0.275391
-0.25908
-0.243302
-0.228423
-0.21461
-0.201896
-0.190238
-0.179559
-0.169776
-0.160804
-0.152561
-0.144979
-0.138144
-0.357144
-0.345122
-0.335953
-0.326042
-0.315194
-0.30317
-0.28985
-0.275575
-0.260928
-0.24647
-0.232604
-0.219559
-0.207428
-0.196213
-0.185873
-0.176344
-0.167561
-0.159456
-0.151947
-0.145208
-0.347052
-0.336249
-0.327828
-0.318866
-0.309324
-0.298979
-0.287563
-0.275171
-0.262194
-0.249107
-0.236317
-0.224097
-0.212594
-0.201859
-0.191887
-0.182637
-0.174062
-0.166116
-0.158696
-0.152069
-0.337492
-0.327892
-0.320185
-0.312051
-0.303596
-0.294659
-0.284916
-0.274277
-0.262939
-0.251255
-0.239595
-0.228256
-0.217428
-0.207209
-0.197631
-0.188683
-0.180333
-0.172565
-0.16525
-0.158742
-0.328533
-0.320102
-0.313083
-0.305686
-0.29814
-0.290367
-0.282055
-0.273001
-0.263229
-0.25295
-0.242465
-0.23206
-0.221957
-0.212293
-0.203137
-0.194513
-0.186403
-0.178826
-0.171627
-0.165247
-0.320221
-0.312903
-0.30655
-0.299823
-0.293046
-0.286229
-0.279114
-0.271453
-0.263135
-0.254233
-0.244948
-0.235528
-0.2262
-0.217133
-0.208432
-0.200153
-0.192298
-0.184923
-0.177851
-0.1716
-0.312574
-0.306301
-0.30059
-0.294483
-0.288371
-0.282343
-0.276214
-0.269741
-0.262735
-0.255145
-0.247061
-0.238666
-0.230166
-0.221744
-0.213535
-0.205629
-0.198044
-0.190882
-0.183944
-0.177822
-0.305596
-0.300286
-0.295191
-0.289666
-0.284142
-0.278772
-0.273451
-0.267971
-0.262112
-0.255735
-0.248825
-0.241477
-0.233854
-0.226131
-0.218457
-0.210958
-0.203665
-0.196726
-0.18993
-0.183931
-0.299273
-0.294836
-0.290326
-0.285352
-0.28036
-0.275553
-0.270896
-0.266232
-0.261349
-0.25606
-0.250261
-0.243959
-0.237251
-0.230282
-0.223198
-0.216149
-0.209177
-0.20248
-0.19583
-0.189948
-0.29358
-0.289923
-0.285963
-0.28151
-0.277012
-0.272698
-0.268594
-0.264598
-0.260527
-0.256182
-0.251401
-0.246114
-0.240339
-0.234174
-0.227738
-0.221195
-0.214588
-0.208158
-0.201673
-0.195893
-0.288485
-0.28551
-0.282062
-0.278104
-0.274069
-0.270201
-0.266569
-0.263121
-0.259716
-0.256166
-0.252287
-0.247948
-0.243098
-0.237772
-0.232044
-0.22607
-0.219887
-0.213773
-0.207468
-0.20182
-0.283944
-0.281558
-0.278582
-0.275091
-0.271496
-0.268042
-0.264826
-0.261835
-0.258972
-0.256076
-0.252967
-0.249482
-0.245514
-0.241035
-0.236061
-0.230727
-0.225037
-0.219314
-0.213254
-0.207736
-0.27991
-0.278025
-0.275481
-0.272431
-0.269255
-0.266191
-0.263352
-0.260754
-0.258335
-0.255969
-0.253495
-0.250748
-0.247585
-0.243927
-0.239732
-0.235091
-0.229982
-0.224731
-0.218991
-0.213887
-0.276328
-0.274865
-0.272713
-0.270077
-0.267302
-0.264611
-0.262124
-0.259874
-0.257826
-0.255888
-0.253927
-0.25179
-0.249327
-0.246427
-0.242996
-0.239084
-0.234596
-0.229988
-0.224571
-0.220112
-0.27314
-0.272033
-0.270234
-0.267986
-0.265593
-0.263261
-0.261108
-0.259175
-0.257448
-0.255859
-0.254306
-0.252659
-0.250778
-0.248537
-0.245815
-0.242615
-0.238818
-0.234731
-0.230397
-0.225731
-0.270285
-0.269484
-0.268001
-0.266113
-0.264083
-0.262097
-0.260263
-0.258628
-0.257187
-0.255892
-0.254665
-0.253403
-0.251984
-0.250286
-0.248189
-0.24561
-0.242589
-0.238824
-0.235839
-0.230272
-0.267716
-0.267166
-0.265969
-0.264417
-0.262729
-0.261073
-0.259547
-0.258194
-0.257015
-0.255975
-0.255015
-0.254054
-0.252994
-0.251722
-0.250149
-0.248057
-0.245826
-0.242141
-0.240384
-0.233857
-0.265373
-0.265039
-0.2641
-0.262858
-0.261491
-0.260147
-0.258914
-0.25783
-0.256895
-0.256084
-0.255351
-0.254632
-0.253848
-0.252898
-0.251741
-0.250008
-0.248495
-0.244725
-0.24417
-0.23655
-0.263204
-0.263065
-0.262363
-0.261401
-0.260332
-0.25928
-0.258323
-0.257491
-0.256786
-0.256185
-0.255651
-0.255132
-0.254566
-0.253863
-0.253013
-0.251562
-0.250609
-0.246762
-0.247323
-0.238498
-0.261169
-0.261209
-0.260726
-0.260017
-0.259221
-0.258439
-0.257738
-0.257142
-0.256651
-0.256243
-0.255886
-0.25554
-0.255149
-0.254642
-0.25401
-0.252814
-0.252197
-0.248465
-0.249784
-0.239964
-0.259232
-0.25945
-0.259163
-0.258687
-0.258136
-0.257599
-0.257131
-0.256751
-0.256455
-0.256224
-0.256028
-0.255831
-0.255588
-0.255239
-0.254762
-0.253814
-0.253309
-0.249974
-0.251458
-0.241276
-0.257369
-0.257768
-0.25766
-0.257391
-0.257061
-0.256743
-0.256483
-0.256296
-0.256176
-0.256103
-0.25605
-0.255985
-0.255868
-0.255649
-0.255288
-0.254562
-0.254032
-0.251293
-0.252387
-0.242689
-0.255567
-0.256152
-0.256207
-0.256124
-0.255987
-0.255862
-0.255785
-0.255768
-0.255801
-0.255866
-0.255938
-0.255986
-0.255975
-0.255862
-0.255597
-0.255044
-0.254454
-0.252335
-0.252756
-0.244229
-0.25382
-0.254598
-0.254803
-0.254882
-0.254916
-0.254956
-0.255037
-0.255165
-0.255329
-0.255512
-0.255689
-0.255832
-0.255908
-0.255878
-0.255691
-0.25526
-0.254635
-0.253021
-0.252789
-0.245736
-0.252131
-0.253107
-0.253449
-0.253673
-0.253853
-0.254034
-0.254247
-0.254496
-0.25477
-0.25505
-0.255313
-0.255532
-0.255677
-0.25571
-0.255582
-0.255232
-0.254609
-0.25334
-0.252664
-0.247028
-0.250514
-0.251689
-0.252156
-0.252505
-0.25281
-0.253109
-0.253432
-0.25378
-0.254142
-0.2545
-0.25483
-0.255108
-0.255304
-0.255383
-0.255298
-0.255003
-0.254407
-0.253333
-0.252521
-0.248
-0.248985
-0.250358
-0.250938
-0.251395
-0.251804
-0.2522
-0.252612
-0.25304
-0.253472
-0.25389
-0.254272
-0.254593
-0.254825
-0.254936
-0.254885
-0.254625
-0.254068
-0.253073
-0.25248
-0.24863
-0.247567
-0.249131
-0.24981
-0.250361
-0.250856
-0.251331
-0.251813
-0.252303
-0.252789
-0.253252
-0.253672
-0.254024
-0.254282
-0.254415
-0.254388
-0.254157
-0.253663
-0.252891
-0.252005
-0.249352
-0.246285
-0.248026
-0.248794
-0.249422
-0.249987
-0.250525
-0.251062
-0.251599
-0.252125
-0.252622
-0.253068
-0.253442
-0.253717
-0.253866
-0.253858
-0.253656
-0.253227
-0.252579
-0.251646
-0.250017
-0.245167
-0.247066
-0.247908
-0.248599
-0.249221
-0.249807
-0.250386
-0.250959
-0.251514
-0.252034
-0.252499
-0.252887
-0.253174
-0.253335
-0.253343
-0.25317
-0.252801
-0.252239
-0.251403
-0.250341
-0.244236
-0.24627
-0.247172
-0.247913
-0.248578
-0.2492
-0.24981
-0.250408
-0.250985
-0.251521
-0.251999
-0.252396
-0.25269
-0.25286
-0.252882
-0.252738
-0.252421
-0.25193
-0.251221
-0.250457
-0.243517
-0.245655
-0.246603
-0.247381
-0.248077
-0.248726
-0.249357
-0.249973
-0.250563
-0.251111
-0.251596
-0.251999
-0.252298
-0.252474
-0.252509
-0.252388
-0.252111
-0.251679
-0.251082
-0.250476
-0.243026
-0.245236
-0.246215
-0.247018
-0.247735
-0.2484
-0.249044
-0.249672
-0.25027
-0.250824
-0.251314
-0.25172
-0.252022
-0.252203
-0.252246
-0.252143
-0.251893
-0.251503
-0.250985
-0.250459
-0.242777
-0.245024
-0.246019
-0.246834
-0.247561
-0.248233
-0.248885
-0.249517
-0.25012
-0.250677
-0.251169
-0.251576
-0.25188
-0.252063
-0.252111
-0.252016
-0.25178
-0.251411
-0.250934
-0.250442
0.255854
0.246666
0.238105
0.230165
0.222764
0.215873
0.209442
0.203439
0.197827
0.192577
0.18766
0.18305
0.178725
0.174664
0.170846
0.167255
0.163874
0.16069
0.157689
0.154858
0.152187
0.149665
0.147283
0.145033
0.142905
0.140894
0.138991
0.137187
0.135475
0.133859
0.132335
0.130896
0.129538
0.128256
0.127048
0.125908
0.124835
0.123825
0.122875
0.121983
0.121146
0.120363
0.119631
0.118949
0.118315
0.117727
0.117184
0.116685
0.116229
0.115814
0.115441
0.115107
0.114812
0.114556
0.114338
0.114157
0.114014
0.113909
0.113841
0.11381
0.255211
0.246106
0.237608
0.229723
0.22237
0.215521
0.209127
0.203156
0.197572
0.192346
0.187451
0.18286
0.178552
0.174505
0.1707
0.167121
0.163751
0.160576
0.157583
0.154759
0.152095
0.149579
0.147202
0.144956
0.142833
0.140826
0.138926
0.137126
0.13542
0.133805
0.132282
0.130845
0.129489
0.128209
0.127002
0.125864
0.124792
0.123783
0.122834
0.121943
0.121107
0.120325
0.119594
0.118913
0.118279
0.117692
0.11715
0.116651
0.116196
0.115781
0.115408
0.115074
0.11478
0.114524
0.114306
0.114126
0.113983
0.113878
0.11381
0.113779
0.253927
0.244986
0.236615
0.228842
0.221584
0.214818
0.208497
0.20259
0.197062
0.191886
0.187033
0.182481
0.178206
0.174188
0.17041
0.166854
0.163504
0.160347
0.15737
0.154562
0.15191
0.149406
0.14704
0.144803
0.142689
0.140689
0.138798
0.137007
0.135309
0.133699
0.132179
0.130745
0.129392
0.128115
0.126911
0.125776
0.124706
0.1237
0.122753
0.121864
0.12103
0.120249
0.11952
0.11884
0.118208
0.117622
0.117081
0.116583
0.116128
0.115715
0.115342
0.115009
0.114716
0.11446
0.114243
0.114063
0.113921
0.113816
0.113748
0.113718
0.252003
0.243307
0.235127
0.227521
0.220406
0.213766
0.207554
0.201743
0.196299
0.191196
0.186408
0.181912
0.177688
0.173714
0.169975
0.166454
0.163135
0.160006
0.157053
0.154266
0.151634
0.149147
0.146797
0.144575
0.142473
0.140485
0.138605
0.136827
0.13514
0.133534
0.132022
0.130594
0.129247
0.127975
0.126775
0.125644
0.124578
0.123575
0.122631
0.121745
0.120914
0.120136
0.119409
0.118731
0.118101
0.117517
0.116977
0.116482
0.116028
0.115616
0.115244
0.114913
0.11462
0.114365
0.114149
0.113969
0.113827
0.113723
0.113656
0.113625
0.249441
0.241073
0.233147
0.225764
0.21884
0.212368
0.206302
0.200618
0.195285
0.19028
0.185578
0.181158
0.176999
0.173085
0.169398
0.165922
0.162645
0.159552
0.156631
0.153873
0.151267
0.148804
0.146474
0.144271
0.142186
0.140214
0.138348
0.136584
0.134915
0.133328
0.13182
0.130397
0.129055
0.127789
0.126594
0.125469
0.124408
0.123409
0.12247
0.121588
0.12076
0.119985
0.119261
0.118586
0.117959
0.117377
0.11684
0.116346
0.115895
0.115484
0.115114
0.114784
0.114492
0.114239
0.114023
0.113845
0.113704
0.1136
0.113533
0.113502
0.246244
0.238286
0.230678
0.223575
0.216889
0.210627
0.204742
0.199217
0.194023
0.18914
0.184545
0.180218
0.176143
0.172302
0.168679
0.165261
0.162034
0.158987
0.156107
0.153385
0.150811
0.148376
0.146073
0.143893
0.14183
0.139876
0.138028
0.13628
0.134628
0.133062
0.131561
0.130148
0.128815
0.127557
0.12637
0.125251
0.124196
0.123203
0.122269
0.121392
0.120569
0.119798
0.119078
0.118407
0.117782
0.117204
0.116669
0.116178
0.115729
0.115321
0.114953
0.114624
0.114334
0.114082
0.113867
0.11369
0.113549
0.113446
0.113379
0.113348
0.242419
0.23495
0.227724
0.220957
0.214558
0.208546
0.202879
0.197544
0.192516
0.187779
0.183311
0.179097
0.175121
0.171367
0.167822
0.164473
0.161307
0.158313
0.155481
0.152802
0.150267
0.147867
0.145594
0.143443
0.141405
0.139474
0.137646
0.135916
0.134282
0.132738
0.131268
0.12986
0.128533
0.127282
0.126103
0.124991
0.123944
0.122958
0.12203
0.121158
0.120341
0.119575
0.118859
0.118192
0.117572
0.116997
0.116466
0.115977
0.115531
0.115125
0.114759
0.114433
0.114144
0.113894
0.113681
0.113505
0.113365
0.113263
0.113196
0.113165
0.237971
0.231072
0.224291
0.217917
0.211851
0.206131
0.200717
0.195603
0.190768
0.1862
0.181881
0.177798
0.173936
0.170284
0.166828
0.163558
0.160463
0.157532
0.154757
0.152128
0.149637
0.147277
0.14504
0.14292
0.140912
0.139008
0.137203
0.135494
0.133878
0.132355
0.13091
0.12952
0.128205
0.126964
0.125794
0.124691
0.123652
0.122673
0.121753
0.120888
0.120076
0.119316
0.118606
0.117944
0.117328
0.116757
0.116229
0.115745
0.115301
0.114899
0.114535
0.114211
0.113925
0.113676
0.113465
0.11329
0.113152
0.11305
0.112983
0.112952
0.232911
0.226659
0.220385
0.214459
0.208774
0.203387
0.198261
0.193399
0.188784
0.184408
0.180258
0.176323
0.172592
0.169055
0.165701
0.162521
0.159506
0.156647
0.153935
0.151362
0.148922
0.146607
0.144412
0.142329
0.140353
0.138479
0.136701
0.135016
0.133421
0.131914
0.130494
0.129146
0.127835
0.126605
0.125446
0.124352
0.123322
0.122352
0.121439
0.120581
0.119777
0.119023
0.118319
0.117662
0.117051
0.116485
0.115962
0.115481
0.115041
0.114642
0.114281
0.11396
0.113676
0.113429
0.113219
0.113046
0.112909
0.112808
0.112742
0.11271
0.227249
0.22172
0.216014
0.210592
0.205333
0.20032
0.195516
0.190937
0.186568
0.182407
0.178445
0.174676
0.171091
0.167683
0.164443
0.161364
0.158439
0.155659
0.153018
0.150509
0.148125
0.145861
0.143711
0.141669
0.13973
0.137889
0.136142
0.134484
0.132912
0.131423
0.130018
0.128695
0.12744
0.126212
0.125059
0.123976
0.122955
0.121994
0.12109
0.12024
0.119443
0.118697
0.117999
0.117348
0.116742
0.116181
0.115663
0.115186
0.114751
0.114355
0.113998
0.113679
0.113398
0.113153
0.112945
0.112774
0.112638
0.112538
0.112472
0.11244
0.221
0.216266
0.211186
0.206322
0.201535
0.196936
0.192489
0.188222
0.184124
0.180201
0.176448
0.172862
0.169438
0.166172
0.163058
0.160091
0.157264
0.154571
0.152009
0.149569
0.147248
0.14504
0.14294
0.140943
0.139045
0.13724
0.135526
0.133898
0.132353
0.130888
0.1295
0.128189
0.126956
0.125787
0.124647
0.123568
0.122556
0.121602
0.120707
0.119866
0.119077
0.118338
0.117647
0.117002
0.116403
0.115847
0.115334
0.114862
0.114431
0.114039
0.113685
0.11337
0.113091
0.112849
0.112644
0.112474
0.11234
0.11224
0.112174
0.112142
0.214178
0.210308
0.205911
0.201657
0.197388
0.193241
0.189185
0.185259
0.181459
0.177796
0.174271
0.170885
0.167637
0.164526
0.161549
0.158703
0.155984
0.153387
0.15091
0.148547
0.146294
0.144147
0.142101
0.140153
0.138299
0.136535
0.134857
0.133261
0.131746
0.130307
0.128942
0.127648
0.126426
0.125276
0.124189
0.123133
0.122109
0.121172
0.12029
0.119459
0.118679
0.117948
0.117264
0.116627
0.116034
0.115484
0.114977
0.11451
0.114083
0.113695
0.113345
0.113033
0.112758
0.112518
0.112315
0.112147
0.112014
0.111916
0.11185
0.111818
0.206801
0.203859
0.200199
0.196608
0.192898
0.189244
0.185611
0.182055
0.178577
0.175196
0.171918
0.168749
0.165691
0.162749
0.15992
0.157205
0.154603
0.15211
0.149724
0.147443
0.145264
0.143183
0.141196
0.139302
0.137495
0.135774
0.134135
0.132575
0.131091
0.12968
0.128341
0.12707
0.125866
0.124726
0.12365
0.122639
0.121683
0.120736
0.119845
0.119023
0.118252
0.117528
0.116853
0.116223
0.115636
0.115093
0.114591
0.11413
0.113708
0.113324
0.112979
0.11267
0.112398
0.112161
0.11196
0.111794
0.111663
0.111565
0.111499
0.111467
0.198888
0.196935
0.194061
0.191183
0.188075
0.18495
0.181774
0.178616
0.175485
0.172408
0.169394
0.166458
0.163606
0.160844
0.158175
0.155601
0.153123
0.150742
0.148455
0.146262
0.144162
0.142151
0.140228
0.13839
0.136635
0.13496
0.133363
0.13184
0.13039
0.129011
0.127699
0.126453
0.125271
0.124149
0.123085
0.122081
0.121137
0.120249
0.119396
0.118567
0.117793
0.117082
0.116414
0.11579
0.115211
0.114675
0.114179
0.113723
0.113306
0.112927
0.112586
0.112281
0.112012
0.111778
0.111579
0.111415
0.111286
0.111189
0.111123
0.11109
0.190454
0.189548
0.187509
0.185392
0.182927
0.180368
0.17768
0.174949
0.172188
0.169435
0.166705
0.164018
0.161385
0.158815
0.156316
0.153893
0.151549
0.149286
0.147105
0.145006
0.14299
0.141054
0.139199
0.137422
0.135721
0.134095
0.132542
0.13106
0.129646
0.128299
0.127017
0.125798
0.12464
0.12354
0.122497
0.121508
0.120574
0.119692
0.118863
0.118084
0.117341
0.11662
0.115939
0.115328
0.114761
0.114231
0.113741
0.113291
0.112879
0.112505
0.112168
0.111867
0.111601
0.111371
0.111174
0.111012
0.110884
0.110788
0.110723
0.11069
0.181515
0.181711
0.180552
0.179244
0.177463
0.175506
0.173337
0.17106
0.168693
0.166285
0.163857
0.161434
0.159033
0.156668
0.15435
0.152087
0.149884
0.147746
0.145677
0.143678
0.141751
0.139895
0.138111
0.136398
0.134755
0.133181
0.131675
0.130235
0.12886
0.127548
0.126297
0.125106
0.123974
0.122898
0.121876
0.120907
0.119989
0.11912
0.118299
0.117527
0.116802
0.116124
0.11549
0.114872
0.114289
0.113758
0.113278
0.112836
0.112429
0.112059
0.111727
0.11143
0.111167
0.11094
0.110746
0.110586
0.110459
0.110364
0.110299
0.110266
0.172069
0.173432
0.173197
0.172751
0.171691
0.170374
0.168753
0.166957
0.165007
0.162964
0.160854
0.158711
0.156556
0.154407
0.15228
0.150185
0.148131
0.146127
0.144175
0.142282
0.140448
0.138676
0.136967
0.135322
0.133739
0.13222
0.130764
0.129368
0.128033
0.126758
0.12554
0.124379
0.123274
0.122222
0.121223
0.120275
0.119376
0.118524
0.117719
0.116958
0.116241
0.115568
0.114941
0.114354
0.113808
0.113295
0.112809
0.112358
0.111951
0.11159
0.111264
0.11097
0.11071
0.110486
0.110295
0.110137
0.110012
0.109918
0.109852
0.109819
0.162099
0.164723
0.165455
0.165921
0.16562
0.164977
0.163933
0.162642
0.16113
0.15947
0.157696
0.155846
0.153949
0.152028
0.150101
0.148184
0.146288
0.144423
0.142596
0.140813
0.139078
0.137394
0.135765
0.134191
0.132672
0.131211
0.129806
0.128458
0.127166
0.125929
0.124746
0.123617
0.12254
0.121515
0.12054
0.119613
0.118734
0.117901
0.117113
0.116368
0.115665
0.115004
0.114384
0.113804
0.113264
0.112763
0.112298
0.111871
0.111478
0.111113
0.110782
0.110485
0.110231
0.110011
0.109823
0.109667
0.109543
0.10945
0.109384
0.109351
0.15156
0.15556
0.157312
0.15877
0.159276
0.159349
0.158912
0.158153
0.157102
0.155845
0.154422
0.152882
0.151255
0.149573
0.147856
0.146125
0.144393
0.142674
0.140976
0.139309
0.137676
0.136085
0.134537
0.133036
0.131584
0.130182
0.12883
0.12753
0.126281
0.125083
0.123936
0.122839
0.121791
0.120792
0.119841
0.118936
0.118076
0.117261
0.11649
0.11576
0.115072
0.114424
0.113816
0.113246
0.112714
0.112219
0.11176
0.111339
0.110953
0.110601
0.110283
0.11
0.109744
0.109521
0.109332
0.109176
0.109053
0.108961
0.108896
0.108864
0.139837
0.145703
0.148621
0.151206
0.15257
0.153417
0.153631
0.153447
0.152889
0.152063
0.151014
0.1498
0.148459
0.147027
0.14553
0.143991
0.142429
0.14086
0.139295
0.137745
0.136218
0.134719
0.133255
0.131829
0.130443
0.129101
0.127804
0.126552
0.125347
0.124189
0.123079
0.122014
0.120997
0.120025
0.119099
0.118216
0.117378
0.116582
0.115828
0.115115
0.114442
0.113808
0.113213
0.112655
0.112134
0.111649
0.111199
0.110785
0.110405
0.110059
0.109746
0.109468
0.10922
0.109004
0.10882
0.108668
0.108545
0.108453
0.108389
0.108358
0.126701
0.134602
0.139223
0.142672
0.144858
0.146361
0.14717
0.147511
0.147432
0.147041
0.146389
0.145536
0.144523
0.143389
0.142163
0.140872
0.139535
0.138171
0.136793
0.135414
0.134042
0.132686
0.131352
0.130045
0.128769
0.127527
0.126321
0.125154
0.124027
0.122941
0.121896
0.120892
0.11993
0.11901
0.118131
0.117292
0.116494
0.115735
0.115016
0.114334
0.113691
0.113084
0.112513
0.111979
0.111479
0.111013
0.110581
0.110183
0.109818
0.109484
0.109183
0.108914
0.108676
0.108469
0.108292
0.108146
0.108029
0.107941
0.107882
0.107854
0.119285
0.126092
0.131318
0.135248
0.137996
0.139969
0.141236
0.141991
0.1423
0.142267
0.141945
0.141399
0.14067
0.139798
0.138815
0.137747
0.136618
0.135444
0.134243
0.133026
0.131804
0.130587
0.129381
0.128193
0.127026
0.125886
0.124774
0.123694
0.122648
0.121636
0.12066
0.11972
0.118818
0.117952
0.117124
0.116333
0.115578
0.11486
0.114178
0.113531
0.11292
0.112342
0.111799
0.11129
0.110813
0.110369
0.109957
0.109577
0.109227
0.108909
0.108621
0.108363
0.108135
0.107936
0.107766
0.107626
0.107514
0.10743
0.107375
0.10735
0.113142
0.119279
0.124465
0.128554
0.131629
0.133928
0.135542
0.136631
0.137266
0.137543
0.137517
0.137249
0.136782
0.136157
0.135404
0.134551
0.133622
0.132636
0.131608
0.130553
0.129482
0.128405
0.127329
0.126261
0.125206
0.12417
0.123155
0.122165
0.121202
0.120268
0.119364
0.118491
0.117651
0.116843
0.116069
0.115327
0.114619
0.113944
0.113301
0.112692
0.112114
0.111569
0.111055
0.110573
0.110121
0.109699
0.109308
0.108947
0.108615
0.108312
0.108038
0.107793
0.107575
0.107386
0.107224
0.10709
0.106983
0.106904
0.106852
0.106828
0.107085
0.112999
0.118113
0.122282
0.125575
0.128131
0.130036
0.131417
0.132345
0.132906
0.133154
0.133148
0.13293
0.132539
0.132007
0.131362
0.130627
0.129822
0.128964
0.128068
0.127144
0.126204
0.125256
0.124308
0.123365
0.122432
0.121513
0.120613
0.119733
0.118876
0.118044
0.117239
0.116461
0.115711
0.114991
0.1143
0.113638
0.113006
0.112404
0.111832
0.111289
0.110776
0.110291
0.109836
0.10941
0.109012
0.108642
0.1083
0.107985
0.107698
0.107438
0.107205
0.106999
0.106819
0.106666
0.106539
0.106437
0.106362
0.106314
0.106291
0.101318
0.107101
0.11217
0.11641
0.119861
0.122623
0.12477
0.126404
0.127592
0.128408
0.128907
0.129142
0.129155
0.128984
0.12866
0.128212
0.127662
0.127031
0.126336
0.125592
0.124812
0.124005
0.123182
0.12235
0.121516
0.120684
0.11986
0.119048
0.11825
0.11747
0.11671
0.115971
0.115255
0.114563
0.113897
0.113255
0.11264
0.112052
0.11149
0.110955
0.110447
0.109966
0.109512
0.109084
0.108683
0.108308
0.107959
0.107637
0.10734
0.107069
0.106823
0.106603
0.106408
0.106238
0.106093
0.105973
0.105877
0.105806
0.10576
0.105739
0.0959503
0.101603
0.106622
0.110913
0.11448
0.117406
0.119752
0.121601
0.123014
0.124058
0.124782
0.125238
0.125463
0.125496
0.125367
0.125104
0.12473
0.124265
0.123726
0.123129
0.122486
0.121809
0.121107
0.120389
0.11966
0.118928
0.118197
0.117472
0.116755
0.116051
0.115361
0.114689
0.114034
0.1134
0.112787