/*--------------------------------*- C++ -*----------------------------------*\
  =========                 |
  \\      /  F ield         | OpenFOAM: The Open Source CFD Toolbox
   \\    /   O peration     | Website:  https://openfoam.org
    \\  /    A nd           | Version:  7
     \\/     M anipulation  |
\*---------------------------------------------------------------------------*/
FoamFile
{
    version     2.0;
    format      ascii;
    class       surfaceScalarField;
    location    "35.001";
    object      phi;
}
// * * * * * * * * * * * * * * * * * * * * * * * * * * * * * * * * * * * * * //

dimensions      [0 3 -1 0 0 0 0];

internalField   nonuniform List<scalar> 
22551
(
-8.76882e-06
2.66678e-09
-2.98857e-05
5.83024e-09
-6.03052e-05
7.59022e-09
-9.77368e-05
8.36518e-09
-0.000140492
8.49198e-09
-0.000187359
8.21213e-09
7.66937e-09
-9.19392e-05
6.01412e-10
-0.000273799
1.13964e-09
-0.000492866
1.31933e-09
-0.000723515
1.3366e-09
-0.000956801
1.30028e-09
-0.00119112
1.25236e-09
-0.00142697
1.20348e-09
1.15521e-09
-9.19392e-05
9.19398e-05
-0.000273799
0.00018186
-0.000492866
0.000219069
-0.000723515
0.00023065
-0.000956801
0.000233288
-0.00119112
0.000234316
-0.00142697
0.000235855
-0.00166518
0.000238215
-0.00190653
0.000241345
-0.0021517
0.000245176
-0.00240136
0.000249654
-0.00265609
0.000254732
-0.00291646
0.000260373
-0.00318301
0.000266549
-0.00345624
0.000273236
-0.00373667
0.000280425
-0.00402476
0.000288099
-0.00432097
0.000296204
-0.00462563
0.000304666
0.000313628
-0.00493926
-9.14984e-05
0.000183438
-0.000272732
0.000363094
-0.000491226
0.000437563
-0.000721382
0.000460805
-0.000954221
0.000466128
-0.00118811
0.000468202
-0.00142354
0.000471288
-0.00166134
0.000476011
-0.00190227
0.000482273
-0.00214703
0.000489937
-0.00239626
0.00049889
-0.00265057
0.000509044
-0.00291052
0.000520324
-0.00317665
0.000532671
-0.00344945
0.00054604
-0.00372944
0.00056041
-0.00401709
0.000575752
-0.00431284
0.000591954
-0.00461704
0.000608873
0.000626784
-0.0049302
-9.0618e-05
0.000274056
-0.0002706
0.000543076
-0.000487946
0.00065491
-0.000717116
0.000689975
-0.000949063
0.000698074
-0.00118209
0.000701233
-0.00141668
0.000705879
-0.00165365
0.000712973
-0.00189374
0.000722371
-0.00213767
0.000733867
-0.00238608
0.000747295
-0.00263956
0.00076252
-0.00289866
0.000779432
-0.00316393
0.000797941
-0.00343587
0.000817981
-0.00371498
0.000839519
-0.00400174
0.000862512
-0.00429659
0.000886797
-0.00459987
0.000912161
0.000938994
-0.00491208
-8.93e-05
0.000363356
-0.000267405
0.000721181
-0.000483029
0.000870534
-0.00071072
0.000917667
-0.000941329
0.000928683
-0.00117308
0.00093298
-0.00140641
0.00093921
-0.00164212
0.000948685
-0.00188097
0.000961224
-0.00212366
0.000976554
-0.00237082
0.000994454
-0.00262304
0.00101474
-0.00288089
0.00103728
-0.00314488
0.00106193
-0.00341553
0.00108863
-0.00369332
0.00111731
-0.00397875
0.00114793
-0.00427223
0.00118028
-0.00457414
0.00121407
0.00124979
-0.00488494
-8.75481e-05
0.000450904
-0.000263151
0.000896784
-0.000476478
0.00108386
-0.000702197
0.00114339
-0.000931021
0.00115751
-0.00116106
0.00116302
-0.00139271
0.00117086
-0.00162676
0.00118273
-0.00186396
0.00119842
-0.00210499
0.00121759
-0.00235049
0.00123995
-0.00260105
0.0012653
-0.00285721
0.00129344
-0.00311951
0.00132423
-0.00338844
0.00135756
-0.00366448
0.00139336
-0.00394813
0.00143158
-0.0042398
0.00147196
-0.00453988
0.00151415
0.00155869
-0.00484878
-8.53666e-05
0.000536271
-0.000257845
0.00106926
-0.000468296
0.00129431
-0.000691548
0.00136664
-0.000918146
0.0013841
-0.00114606
0.00139093
-0.00137561
0.00140042
-0.00160759
0.00141471
-0.00184272
0.00143355
-0.00208169
0.00145656
-0.00232512
0.00148339
-0.0025736
0.00151378
-0.00282767
0.00154751
-0.00308785
0.00158441
-0.00335463
0.00162434
-0.00362849
0.00166723
-0.00390992
0.001713
-0.00419934
0.00176138
-0.00449712
0.00181193
0.00186524
-0.00480367
-8.27614e-05
0.000619032
-0.000251491
0.00123799
-0.00045849
0.00150131
-0.00067878
0.00158693
-0.000902708
0.00160803
-0.00112807
0.00161629
-0.00135512
0.00162748
-0.00158461
0.0016442
-0.00181727
0.00166622
-0.00205378
0.00169306
-0.00229473
0.00172434
-0.00254072
0.00175977
-0.00279228
0.00179907
-0.00304993
0.00184205
-0.00331414
0.00188855
-0.0035854
0.00193848
-0.00386417
0.00199177
-0.00415089
0.0020481
-0.00444592
0.00210697
0.00216896
-0.00474964
-7.97397e-05
0.000698772
-0.000244101
0.00140235
-0.000447065
0.00170427
-0.000663897
0.00180376
-0.000884714
0.00182885
-0.00110711
0.00183868
-0.00133125
0.00185162
-0.00155786
0.00187081
-0.00178764
0.001896
-0.00202127
0.00192669
-0.00225935
0.00196242
-0.00250245
0.00200286
-0.00275109
0.00204771
-0.00300579
0.00209675
-0.00326702
0.00214978
-0.00353524
0.00220671
-0.00381092
0.00226745
-0.0040945
0.00233168
-0.00438635
0.00239881
0.00246939
-0.00468678
-7.63099e-05
0.000775082
-0.000235682
0.00156173
-0.00043403
0.00190262
-0.000646905
0.00201663
-0.000864173
0.00204612
-0.00108319
0.00205769
-0.00130401
0.00207245
-0.00152734
0.00209413
-0.00175385
0.00212252
-0.00198422
0.00215705
-0.00221902
0.00219723
-0.00245882
0.00224266
-0.00270414
0.00229304
-0.00295548
0.00234809
-0.00321331
0.00240761
-0.00347808
0.00247148
-0.00375025
0.00253962
-0.00403026
0.00261169
-0.00431847
0.00268701
0.00276607
-0.00461515
-7.24821e-05
0.000847564
-0.000226249
0.00171549
-0.000419393
0.00209577
-0.000627812
0.00222505
-0.000841093
0.0022594
-0.00105632
0.00227292
-0.00127343
0.00228956
-0.00149308
0.00231377
-0.00171593
0.00234538
-0.00194264
0.00238375
-0.00217377
0.00242836
-0.00240988
0.00247877
-0.00265148
0.00253464
-0.00289906
0.00259567
-0.00315308
0.00266163
-0.00341399
0.00273239
-0.00368223
0.00280787
-0.00395824
0.0028877
-0.00424237
0.00297115
0.00305857
-0.00453487
-6.82679e-05
0.000915832
-0.000215816
0.00186304
-0.000403166
0.00228312
-0.000606627
0.00242852
-0.000815485
0.00246826
-0.00102652
0.00248395
-0.00123953
0.00250257
-0.00145511
0.00252935
-0.00167392
0.00256419
-0.00189657
0.00260641
-0.00212365
0.00265544
-0.00235568
0.0027108
-0.00259317
0.00277212
-0.00283659
0.00283909
-0.00308639
0.00291144
-0.00334303
0.00298903
-0.00360693
0.00307176
-0.00387852
0.00315929
-0.00415816
0.00325078
0.00334644
-0.00444603
-6.36809e-05
0.000979513
-0.000204399
0.00200376
-0.000385362
0.00246408
-0.00058336
0.00262651
-0.000787361
0.00267226
-0.000993806
0.0026904
-0.00120233
0.0027111
-0.00141346
0.00274048
-0.00162784
0.00277857
-0.00184607
0.00282464
-0.00206871
0.00287807
-0.00229627
0.00293837
-0.00252925
0.0030051
-0.00276812
0.00307795
-0.00301332
0.00315664
-0.00326528
0.00324099
-0.00352444
0.00333092
-0.00379122
0.00342607
-0.00406596
0.00352552
0.00362927
-0.00434879
-5.87365e-05
0.00103825
-0.000192019
0.00213704
-0.000365997
0.00263806
-0.000558022
0.00281854
-0.000756733
0.00287097
-0.000958196
0.00289186
-0.00116185
0.00291476
-0.00136817
0.00294679
-0.00157775
0.00298815
-0.00179118
0.00303807
-0.002009
0.0030959
-0.00223172
0.00316109
-0.00245982
0.0032332
-0.00269375
0.00331188
-0.00293394
0.00339684
-0.00318083
0.00348788
-0.00343485
0.00358493
-0.00369642
0.00368764
-0.00396588
0.00379498
0.00390667
-0.00424328
-5.34523e-05
0.0010917
-0.000178701
0.00226229
-0.00034509
0.00280445
-0.000530627
0.00300407
-0.000723617
0.00306396
-0.000919709
0.00308795
-0.00111813
0.00311318
-0.00131926
0.00314792
-0.00152368
0.00319257
-0.00173195
0.00324634
-0.00194459
0.00330854
-0.00216209
0.00337859
-0.00238493
0.00345603
-0.00261353
0.00354049
-0.00284834
0.00363164
-0.00308976
0.0037293
-0.00333824
0.00383341
-0.00359424
0.00394364
-0.00385807
0.00405881
0.00417829
-0.00412969
-4.78483e-05
0.00113955
-0.000164471
0.00237891
-0.000322663
0.00296264
-0.000501192
0.0031826
-0.000688027
0.00325079
-0.000878368
0.00327829
-0.00107119
0.003306
-0.00126678
0.00334351
-0.00146568
0.00339147
-0.00166843
0.00344909
-0.00187553
0.00351564
-0.00208746
0.00359052
-0.00230466
0.00367324
-0.00252757
0.0037634
-0.00275661
0.00386068
-0.00299216
0.00396486
-0.0032347
0.00407595
-0.00348475
0.0041937
-0.00374266
0.00431672
0.00444385
-0.00400822
-4.19468e-05
0.0011815
-0.000149361
0.00248633
-0.000298741
0.00311202
-0.000469734
0.0033536
-0.000649982
0.00343104
-0.000834197
0.00346251
-0.00102107
0.00349288
-0.00121078
0.00353322
-0.00140381
0.0035845
-0.0016007
0.00364598
-0.00180191
0.00371685
-0.0020079
0.00379651
-0.00221911
0.00388444
-0.00243597
0.00398025
-0.00265886
0.00408357
-0.00288817
0.00419416
-0.00312434
0.00431212
-0.00336807
0.00443743
-0.00361983
0.00456847
0.00470316
-0.00387914
-3.57731e-05
0.00121727
-0.00013341
0.00258396
-0.000273354
0.00325196
-0.000436275
0.00351652
-0.000609502
0.00360427
-0.00078722
0.00364023
-0.000967802
0.00367346
-0.00115129
0.0037167
-0.00133813
0.00377135
-0.00152881
0.00383666
-0.0017238
0.00391184
-0.00192351
0.00399622
-0.00212836
0.0040893
-0.00233878
0.00419067
-0.00255514
0.00429994
-0.00277778
0.0044168
-0.00300709
0.00454143
-0.00324395
0.00467429
-0.00348944
0.00481396
0.00495644
-0.00374272
-2.93554e-05
0.00124663
-0.00011666
0.00267127
-0.000246538
0.00338184
-0.000400841
0.00367082
-0.000566609
0.00377004
-0.000737466
0.00381108
-0.000911423
0.00384741
-0.00108837
0.00389365
-0.00126869
0.00395167
-0.00145285
0.00402082
-0.00164127
0.00410026
-0.00183437
0.00418932
-0.00203254
0.00428747
-0.00223618
0.00439431
-0.00244571
0.00450946
-0.00266145
0.00463255
-0.00288362
0.0047636
-0.00311305
0.00490372
-0.00335198
0.0050529
0.00520421
-0.00359975
-2.27264e-05
0.00126935
-9.91627e-05
0.0027477
-0.000218333
0.00350101
-0.00036346
0.00381595
-0.000521328
0.00392791
-0.000684964
0.00397472
-0.000851973
0.00401442
-0.00102206
0.00406374
-0.00119556
0.00412517
-0.00137288
0.00419814
-0.00155443
0.00428181
-0.0017406
0.00437549
-0.00193174
0.00447861
-0.00212823
0.00459079
-0.00233045
0.00471168
-0.00253873
0.00484083
-0.00275305
0.00497791
-0.00297347
0.00512415
-0.00320391
0.00528334
0.0054504
-0.00345011
-1.59282e-05
0.00128528
-8.09716e-05
0.00281275
-0.000188783
0.00360882
-0.000324168
0.00395133
-0.00047369
0.00407743
-0.000629747
0.00413078
-0.000789497
0.00417417
-0.000952436
0.00422668
-0.00111881
0.00429154
-0.001289
0.00436833
-0.00146337
0.00445619
-0.0016423
0.00455441
-0.00182611
0.00466242
-0.00201513
0.00477982
-0.00220976
0.00490631
-0.00241049
0.00504157
-0.00261772
0.00518514
-0.00283086
0.00533729
-0.00305016
0.00550264
0.0056995
-0.00329927
-9.02996e-06
0.00129431
-6.21373e-05
0.00286586
-0.000157935
0.00370462
-0.000283009
0.00407641
-0.00042373
0.00421815
-0.000571852
0.0042789
-0.000724039
0.00432636
-0.000879542
0.00438218
-0.00103851
0.00445051
-0.00120128
0.00453109
-0.00136819
0.00462311
-0.00153959
0.0047258
-0.00171577
0.0048386
-0.00189703
0.00496108
-0.00208371
0.00509298
-0.0022762
0.00523406
-0.00247489
0.00538383
-0.00268006
0.00554247
-0.00289175
0.00571433
0.00590396
-0.00309621
-2.25329e-06
0.00129656
-4.26718e-05
0.00290627
-0.000125847
0.00378779
-0.000240042
0.0041906
-0.000371487
0.00434959
-0.000511317
0.00441873
-0.000655648
0.00447069
-0.000803444
0.00452998
-0.000954739
0.0046018
-0.00110982
0.00468618
-0.001269
0.00478229
-0.00143259
0.00488939
-0.00160086
0.00500688
-0.00177408
0.0051343
-0.0019525
0.0052714
-0.0021364
0.00541796
-0.0023262
0.00557363
-0.00252222
0.00573848
-0.00272355
0.00591566
0.00610886
-0.00292845
5.14847e-06
0.00129141
-2.24585e-05
0.00293388
-9.2595e-05
0.00385793
-0.000195338
0.00429334
-0.000317011
0.00447127
-0.000448188
0.0045499
-0.000584377
0.00460688
-0.000724208
0.00466981
-0.000867578
0.00474517
-0.00101472
0.00483332
-0.00116592
0.00493349
-0.00132144
0.00504491
-0.00148155
0.00516698
-0.00164648
0.00529923
-0.00181647
0.00544138
-0.0019918
0.00559329
-0.00217296
0.00575478
-0.00236054
0.00592607
-0.00255432
0.00610944
0.00630586
-0.00275132
1.24264e-05
0.00127899
-1.74553e-07
0.00294648
-5.83214e-05
0.00391608
-0.000148957
0.00438398
-0.000260354
0.00458266
-0.000382518
0.00467207
-0.000510284
0.00473465
-0.000641902
0.00480142
-0.000777111
0.00488038
-0.000916081
0.00497229
-0.00105906
0.00507646
-0.00120628
0.00519214
-0.001358
0.0053187
-0.00151444
0.00545568
-0.00167585
0.0056028
-0.00184255
0.00575999
-0.00201507
0.00592729
-0.0021939
0.00610491
-0.00237833
0.00629387
0.00649346
-0.00256593
1.91351e-05
0.00125985
1.82472e-05
0.00294737
-2.32156e-05
0.00395754
-0.000101039
0.0044618
-0.000201609
0.00468324
-0.00031437
0.00478483
-0.000433431
0.00485371
-0.000556598
0.00492459
-0.000683423
0.00500721
-0.000813998
0.00510287
-0.000948529
0.00521099
-0.00108724
0.00533085
-0.00123035
0.00546181
-0.00137809
0.00560342
-0.00153073
0.00575543
-0.00168859
0.00591785
-0.00185212
0.00609083
-0.0020217
0.00627448
-0.00219649
0.00646866
0.00667161
-0.00237464
2.56659e-05
0.00123419
3.84611e-05
0.00293457
1.28407e-05
0.00398316
-5.18364e-05
0.00452648
-0.000140856
0.00477225
-0.000243823
0.0048878
-0.000353886
0.00496377
-0.000468373
0.00503908
-0.000586605
0.00512544
-0.000708579
0.00522484
-0.00083446
0.00533687
-0.000964443
0.00546083
-0.00109874
0.0055961
-0.00123757
0.00574225
-0.00138119
0.00589906
-0.00152992
0.00606658
-0.00168413
0.00624504
-0.00184403
0.00643438
-0.00200897
0.0066336
0.00684038
-0.00217774
3.21084e-05
0.00120208
5.87769e-05
0.00290791
4.84611e-05
0.00399348
-3.45847e-07
0.00457529
-7.81531e-05
0.00485006
-0.000170953
0.0049806
-0.000271716
0.00506453
-0.000377306
0.00514467
-0.000486751
0.00523488
-0.000599931
0.00533802
-0.000716966
0.00545391
-0.000838026
0.00558189
-0.000963299
0.00572138
-0.001093
0.00587195
-0.00122737
0.00603343
-0.0013667
0.00620591
-0.00151127
0.00638961
-0.00166119
0.00658429
-0.00181593
0.00678835
0.0069993
-0.00197485
3.82911e-05
0.00116379
7.8939e-05
0.00286726
8.48761e-05
0.00398754
5.02691e-05
0.00460989
-1.39911e-05
0.00491432
-9.58731e-05
0.00506248
-0.000187009
0.00515567
-0.000283487
0.00524115
-0.000383958
0.00533535
-0.000488165
0.00544223
-0.000596174
0.00556192
-0.000708124
0.00569384
-0.000824181
0.00583743
-0.000944542
0.00599232
-0.00106944
0.00615833
-0.00119911
0.00633558
-0.00133377
0.00652427
-0.00147344
0.00672396
-0.00161772
0.00693263
0.00714788
-0.0017663
4.41092e-05
0.00111968
9.87651e-05
0.0028126
0.000121536
0.00396477
0.000102885
0.00462854
5.19277e-05
0.00496528
-1.8759e-05
0.00513317
-9.98742e-05
0.00523678
-0.000187012
0.00532828
-0.000278329
0.00542667
-0.000373398
0.0055373
-0.000472214
0.00566073
-0.00057488
0.00579651
-0.000681538
0.00594409
-0.000792365
0.00610314
-0.000907566
0.00627353
-0.00102734
0.00645536
-0.00115183
0.00664876
-0.00128102
0.00685314
-0.00141464
0.00706625
0.00728582
-0.00155258
4.94852e-05
0.00107019
0.000118028
0.00274406
0.00015812
0.00392468
0.00015614
0.00463052
0.000119361
0.00500206
6.04956e-05
0.00519203
-1.0586e-05
0.00530787
-8.79915e-05
0.00540569
-0.000169981
0.00550866
-0.000255746
0.00562306
-0.000345223
0.00575021
-0.000438445
0.00588973
-0.000535532
0.00604118
-0.000636639
0.00620425
-0.000741939
0.00637883
-0.000851592
0.00656501
-0.000965683
0.00676285
-0.00108418
0.00697164
-0.00120694
0.00718901
0.00741287
-0.00133399
5.43331e-05
0.00101586
0.000136468
0.00266192
0.000194274
0.00386687
0.000209738
0.00461506
0.000187983
0.00502381
0.000141576
0.00523844
8.13203e-05
0.00536812
1.33807e-05
0.00547363
-5.90621e-05
0.0055811
-0.000135344
0.00569934
-0.000215352
0.00583022
-0.000298968
0.00597334
-0.000386333
0.00612854
-0.00047755
0.00629547
-0.000572757
0.00647404
-0.00067208
0.00666433
-0.000775568
0.00686634
-0.000883204
0.00707928
-0.000994932
0.00730074
0.00752877
-0.00111084
5.85686e-05
0.000957291
0.000153821
0.00256667
0.000229617
0.00379107
0.000263329
0.00458135
0.00025749
0.00502965
0.000224248
0.00527168
0.00017514
0.00541723
0.000117427
0.00553134
5.44368e-05
0.00564409
-1.24903e-05
0.00576627
-8.27746e-05
0.0059005
-0.00015662
0.00604719
-0.000234132
0.00620606
-0.000315286
0.00637662
-0.000400234
0.00655899
-0.000489047
0.00675314
-0.000581752
0.00695904
-0.000678374
0.0071759
-0.000778925
0.00740129
0.00763329
-0.00088344
6.21166e-05
0.000895175
0.000169821
0.00245897
0.00026373
0.00369717
0.000316475
0.0045286
0.00032752
0.00501861
0.000308255
0.00529094
0.000270828
0.00545466
0.000223467
0.0055787
0.000170361
0.0056972
0.000113201
0.00582343
5.24423e-05
0.00596126
-1.17279e-05
0.00611136
-7.91391e-05
0.00627347
-0.000150061
0.00644754
-0.000224604
0.00663353
-0.000302744
0.00683128
-0.000384484
0.00704078
-0.000469939
0.00726136
-0.000559202
0.00749055
0.00772622
-0.000652129
6.49136e-05
0.000830261
0.000184185
0.0023397
0.000296153
0.0035852
0.000368661
0.0044561
0.00039763
0.00498964
0.000393267
0.00529531
0.00036816
0.00547976
0.000331528
0.00561533
0.000288427
0.0057403
0.000241046
0.00587081
0.000190165
0.00601214
0.000136014
0.00616551
7.85594e-05
0.00633092
1.78249e-05
0.00650828
-4.61259e-05
0.00669748
-0.000113447
0.00689861
-0.000184075
0.00711141
-0.000258184
0.00733547
-0.000336063
0.00756843
0.00780752
-0.000417369
6.69095e-05
0.000763352
0.00019662
0.00220999
0.000326381
0.00345544
0.000419298
0.00436318
0.000467283
0.00494165
0.000478873
0.00528372
0.000466844
0.00549179
0.000441391
0.00564079
0.000408521
0.00577317
0.000371053
0.00590828
0.000330072
0.00605312
0.000285928
0.00620965
0.000238718
0.00637813
0.000188462
0.00655853
0.0001351
0.00675084
7.86313e-05
0.00695507
1.90203e-05
0.00717102
-4.3405e-05
0.00739789
-0.000109284
0.00763431
0.00787799
-0.000179748
6.80733e-05
0.000695278
0.000206874
0.00207119
0.000353881
0.00330843
0.000467716
0.00424934
0.000535837
0.00487353
0.000564563
0.00525499
0.000566517
0.00548984
0.000552798
0.00565451
0.000530453
0.00579552
0.00050304
0.00593569
0.000472039
0.00608412
0.000437985
0.00624371
0.00040105
0.00641507
0.000361282
0.0065983
0.000318697
0.00679343
0.000273299
0.00700047
0.000225133
0.00721919
0.00017406
0.00744896
0.000119764
0.00768861
0.00793705
6.07025e-05
6.83924e-05
0.000626886
0.000214713
0.00192487
0.000378096
0.00314505
0.00051316
0.00411428
0.00060253
0.00478416
0.000649703
0.00520782
0.000666718
0.00547282
0.000665431
0.00565579
0.000653987
0.00580696
0.000636808
0.00595287
0.000615879
0.00610505
0.000591977
0.00626761
0.000565372
0.00644167
0.00053617
0.0066275
0.00050442
0.00682518
0.000470143
0.00703475
0.000433337
0.00725599
0.000393963
0.00748834
0.000351859
0.00773071
0.00798153
0.000307376
6.78739e-05
0.000559012
0.000219942
0.0017728
0.000398457
0.00296653
0.000554793
0.00395795
0.000666473
0.00467248
0.00073352
0.00514077
0.000766866
0.00543948
0.000778887
0.00564377
0.000778838
0.00580701
0.000772132
0.00595958
0.000761383
0.0061158
0.000747689
0.00628131
0.000731463
0.0064579
0.000712877
0.00664609
0.000692013
0.00684604
0.000668923
0.00705784
0.000643628
0.00728129
0.000616137
0.00751583
0.000586391
0.00776046
0.00801361
0.000554313
6.65462e-05
0.000492466
0.00022242
0.00161692
0.000414416
0.00277453
0.000591711
0.00378065
0.000726633
0.00453756
0.000815076
0.00505233
0.000866231
0.00538832
0.000892652
0.00561735
0.000904653
0.00579501
0.000908746
0.00595548
0.000908321
0.00611623
0.000904897
0.00628473
0.000899087
0.00646371
0.000891148
0.00665403
0.00088121
0.00685598
0.000869353
0.0070697
0.000855621
0.00729502
0.00084001
0.00753144
0.000822388
0.00777808
0.00803341
0.000802588
6.44595e-05
0.000428006
0.000222076
0.00145931
0.000425472
0.00257114
0.000622967
0.00358315
0.000781844
0.00437868
0.000893245
0.00494093
0.000963898
0.00531767
0.00100607
0.00557518
0.00103098
0.00577009
0.00104633
0.00594013
0.00105643
0.00610612
0.00106336
0.0062778
0.001068
0.00645907
0.00107073
0.0066513
0.00107173
0.00685498
0.00107112
0.00707031
0.00106895
0.00729719
0.00106519
0.0075352
0.00105968
0.00778359
0.00804083
0.00105226
6.16848e-05
0.000366321
0.000218919
0.00130207
0.00043121
0.00235885
0.000647605
0.00336676
0.00083081
0.00419548
0.000966696
0.00480504
0.00105873
0.00522564
0.00111828
0.00551563
0.00115724
0.00573114
0.00118449
0.00591288
0.00120542
0.00608519
0.00122282
0.00626041
0.00123794
0.00644395
0.00125135
0.00663789
0.00126329
0.00684303
0.00127392
0.00705968
0.0012833
0.00728781
0.00129141
0.00752709
0.00129808
0.00777692
0.00803583
0.00130308
5.83119e-05
0.00030801
0.000213055
0.00114733
0.00043135
0.00214055
0.000664714
0.0031334
0.000872137
0.00398806
0.00103389
0.00464329
0.00114934
0.00511019
0.00122822
0.00543675
0.00128266
0.00567669
0.0013227
0.00587284
0.00135493
0.00605296
0.00138298
0.00623235
0.00140865
0.00641828
0.00143274
0.00661381
0.00145561
0.00682016
0.00147747
0.00703781
0.0014984
0.00726688
0.0015184
0.00750708
0.00153733
0.00775799
0.00801833
0.00155483
5.44452e-05
0.000253564
0.000204681
0.000997093
0.000425782
0.00191945
0.000673493
0.00288569
0.000904381
0.00375717
0.00109307
0.0044546
0.00123403
0.00496922
0.00133449
0.0053363
0.00140626
0.00560493
0.0014603
0.0058188
0.00150448
0.00600878
0.00154351
0.00619333
0.00157983
0.00638196
0.00161462
0.00657902
0.00164841
0.00678636
0.00168148
0.00700474
0.00171395
0.00723441
0.00174584
0.00747519
0.00177706
0.00772678
0.00798827
0.00180712
5.01999e-05
0.000203364
0.000194084
0.000853209
0.000414608
0.00169893
0.000673339
0.00262695
0.000926126
0.00350438
0.00114232
0.00423841
0.00131082
0.00480071
0.00143537
0.00521175
0.00152671
0.00551359
0.00159637
0.00574913
0.00165349
0.00595167
0.00170397
0.00614284
0.00175115
0.00633478
0.00179669
0.00653348
0.00184139
0.00674166
0.00188564
0.00696049
0.00192962
0.00719044
0.00197338
0.00743143
0.00201688
0.00768327
0.00794564
0.00205951
4.56959e-05
0.000157669
0.000181624
0.000717281
0.00039816
0.00148239
0.000663931
0.00236118
0.00093609
0.00323222
0.00117961
0.00399489
0.00137741
0.00460291
0.00152874
0.00506043
0.00164231
0.00540002
0.0017297
0.00566173
0.00180113
0.00588024
0.00186384
0.00608013
0.00192222
0.00627639
0.00197864
0.00647707
0.00203426
0.00668604
0.00208965
0.0069051
0.00214509
0.00713499
0.00220067
0.00737585
0.00225644
0.00762751
0.00789048
0.00231161
4.10528e-05
0.000116616
0.000167718
0.000590616
0.000376995
0.00127311
0.000645316
0.00209286
0.000933267
0.00294427
0.00120293
0.00372523
0.00143123
0.00437461
0.001612
0.00487965
0.00175088
0.00526115
0.00185865
0.00555396
0.00194629
0.0057926
0.00202237
0.00600405
0.00209254
0.00620622
0.00216007
0.00640954
0.00222666
0.00661945
0.00229318
0.00683858
0.00236004
0.00706814
0.00242737
0.00730851
0.00249536
0.00755952
0.00782282
0.00256301
3.63839e-05
8.02318e-05
0.000152808
0.000474192
0.000351877
0.00107404
0.000617968
0.00182677
0.000917078
0.00264516
0.00121042
0.00343189
0.00146953
0.0041155
0.00168216
0.00466702
0.00184966
0.00509364
0.00198104
0.00542258
0.00208741
0.00568623
0.00217854
0.00591293
0.00226144
0.00612332
0.00234052
0.00633046
0.00241825
0.00654173
0.0024959
0.00676093
0.00257411
0.00698992
0.00265313
0.0072295
0.00273327
0.00747938
0.00774275
0.00281335
3.1792e-05
4.84398e-05
0.000137341
0.000368643
0.000323716
0.000887669
0.000582803
0.00156768
0.000887531
0.00234043
0.00120065
0.00311878
0.0014896
0.00382655
0.00173582
0.0044208
0.0019353
0.00489416
0.00209401
0.00526386
0.00222236
0.00555789
0.00233087
0.00580442
0.00242796
0.00602623
0.00251937
0.00623904
0.00260856
0.00645254
0.00269742
0.00667206
0.00278697
0.00690038
0.00287759
0.00713888
0.0029698
0.00738716
0.00765034
0.00306221
2.73658e-05
2.1074e-05
0.000121741
0.000274268
0.000293507
0.000715903
0.000541144
0.00132005
0.00084534
0.00203624
0.00117281
0.00279131
0.00148896
0.0035104
0.00176937
0.00414039
0.00200381
0.00465972
0.00219392
0.00507375
0.0023482
0.00540361
0.00247727
0.00567536
0.00259071
0.00591278
0.00269572
0.00613404
0.002797
0.00635126
0.00289732
0.00657174
0.00299824
0.00679946
0.00310038
0.00703674
0.00320458
0.00728296
0.0075457
0.00330922
2.3178e-05
-2.104e-06
0.00010639
0.000191056
0.000262253
0.000560039
0.000494617
0.00108768
0.00079196
0.0017389
0.00112703
0.00245623
0.00146578
0.00317165
0.00177926
0.00382692
0.00205074
0.00438824
0.00227628
0.00484821
0.00246108
0.00521881
0.00261479
0.00552165
0.00274764
0.00577993
0.00286824
0.00601344
0.00298273
0.00623677
0.00309503
0.00645944
0.00320748
0.00668701
0.00332112
0.0069231
0.00343722
0.00716686
0.00742894
0.00355398
1.92849e-05
-2.13889e-05
9.16159e-05
0.000118725
0.000230904
0.000420751
0.000445013
0.000873575
0.000729524
0.00145438
0.00106453
0.00212122
0.00141927
0.00281691
0.00176245
0.00348373
0.00207143
0.00407926
0.00233581
0.00458383
0.00255601
0.0049986
0.00273933
0.00533833
0.00289575
0.00562351
0.0030349
0.0058743
0.00316445
0.00610722
0.00328971
0.00633417
0.00341414
0.00656258
0.00353937
0.00679787
0.0036673
0.00703893
0.00730014
0.0037961
1.57257e-05
-3.71146e-05
7.76847e-05
5.6766e-05
0.000200301
0.000298134
0.000394135
0.000679741
0.000660661
0.00118786
0.000987673
0.00179421
0.00135003
0.00245455
0.00171697
0.00311679
0.00206151
0.00373472
0.0023667
0.00427865
0.00262691
0.00473839
0.00284545
0.00511979
0.00303073
0.00543823
0.00319263
0.0057124
0.00334013
0.00595972
0.0034801
0.0061942
0.00361739
0.00642529
0.00375457
0.00666069
0.00389438
0.00689913
0.00715938
0.00403514
1.25276e-05
-4.96422e-05
6.48009e-05
4.4927e-06
0.000171149
0.000191786
0.000343659
0.000507231
0.000588232
0.000943285
0.000899799
0.00148264
0.00126034
0.00209401
0.00164253
0.0027346
0.00201764
0.00335961
0.00236316
0.00393313
0.00266676
0.0044348
0.00292619
0.00486035
0.00314659
0.00521783
0.00333685
0.00552214
0.00350659
0.00578998
0.00366413
0.00603665
0.00381597
0.00627345
0.0039659
0.00651076
0.00411787
0.00674716
0.00700661
0.00427064
9.70574e-06
-5.93479e-05
5.31115e-05
-3.89131e-05
0.000144002
0.000100896
0.000295038
0.000356195
0.000515061
0.000723262
0.000804913
0.00119279
0.00115406
0.00174487
0.001541
0.00234766
0.00193839
0.00296222
0.00232033
0.00355119
0.00266824
0.00408689
0.00297326
0.00455533
0.00323545
0.00495565
0.00346096
0.00529663
0.00365888
0.00559206
0.00383842
0.00585711
0.00400772
0.00610415
0.00417206
0.00634642
0.0043369
0.00658232
0.00684154
0.00450197
7.26607e-06
-6.6614e-05
4.27106e-05
-7.43575e-05
0.000119265
2.43417e-05
0.000249436
0.000226023
0.000443688
0.00052901
0.000707217
0.000929264
0.00103631
0.00141577
0.00141658
0.00196739
0.00182502
0.00255378
0.00223545
0.00314076
0.00262482
0.00369752
0.00297765
0.0042025
0.00328754
0.00464575
0.00355596
0.00502821
0.00378966
0.00535835
0.00399757
0.00564921
0.00418899
0.00591273
0.00437073
0.00616469
0.00455013
0.00640292
0.00666348
0.00472819
5.20611e-06
-7.18201e-05
3.36441e-05
-0.000102796
9.71973e-05
-3.92115e-05
0.000207712
0.000115509
0.000376209
0.000360513
0.000610666
0.000694806
0.000912835
0.0011136
0.00127548
0.00160475
0.00168195
0.00214731
0.00210905
0.00271365
0.00253227
0.00327431
0.00293098
0.00380379
0.00329198
0.00428475
0.0036104
0.00470979
0.00388858
0.00508018
0.00413325
0.00540453
0.00435375
0.00569223
0.00455788
0.00596055
0.0047549
0.0062059
0.00647037
0.00494801
3.51522e-06
-7.53353e-05
2.59126e-05
-0.000125193
7.79258e-05
-9.12246e-05
0.000170416
2.30185e-05
0.000314183
0.000216746
0.000518614
0.000490375
0.000789275
0.000842944
0.00112508
0.00126894
0.00151645
0.00175595
0.00194574
0.00228436
0.00239037
0.00282967
0.00282749
0.00336668
0.00323836
0.00387388
0.00361122
0.00433692
0.00394214
0.00474926
0.00423338
0.00511329
0.00449234
0.00543328
0.00472669
0.0057262
0.00494668
0.0059859
0.00625907
0.00515798
2.17394e-06
-7.75093e-05
1.9473e-05
-0.000142492
6.14492e-05
-0.000133201
0.000137811
-5.33429e-05
0.000258616
9.59398e-05
0.000433596
0.000315396
0.000670544
0.000605996
0.000972961
0.000966521
0.00133774
0.00139117
0.00175401
0.00186809
0.00220406
0.00237962
0.00266631
0.00290443
0.00311937
0.00342081
0.0035458
0.0039105
0.0039347
0.00436036
0.00428199
0.004766
0.00459054
0.00512473
0.00486555
0.00545119
0.00511791
0.00573353
0.00602399
0.00535299
1.15335e-06
-7.86626e-05
1.42392e-05
-0.000155578
4.76485e-05
-0.00016661
0.000109884
-0.000115579
0.000209972
-4.14817e-06
0.000357243
0.000168125
0.000560402
0.000402837
0.00082584
0.000701083
0.00115551
0.0010615
0.0015451
0.0014785
0.00198333
0.00194139
0.00245303
0.00243473
0.00293378
0.00294006
0.00340537
0.00343892
0.00385131
0.00391442
0.0042603
0.00435701
0.00462931
0.00475572
0.00495764
0.00512287
0.0052534
0.00543777
0.00575002
0.00552737
4.17042e-07
-7.90797e-05
1.00838e-05
-0.000165245
3.62986e-05
-0.000192825
8.63889e-05
-0.000165669
0.000168226
-8.59852e-05
0.000290296
4.60549e-05
0.000461261
0.000231872
0.000688905
0.000473439
0.000978519
0.000771883
0.00133108
0.00112595
0.00174178
0.00153069
0.00219962
0.00197688
0.00268839
0.00245129
0.00318886
0.00293845
0.00368196
0.00342132
0.00415122
0.00388774
0.00458542
0.00432152
0.00498173
0.00472656
0.00533207
0.00508743
0.00543565
0.00564644
-9.33453e-08
-7.89863e-05
6.84232e-06
-0.00017218
2.70855e-05
-0.000213068
6.68766e-05
-0.00020546
0.000132942
-0.000152051
0.00023271
-5.3713e-05
0.000374198
9.03843e-05
0.000565452
0.000282185
0.000813492
0.000523842
0.00112286
0.000816575
0.00149409
0.00115946
0.0019225
0.00154848
0.00239785
0.00197593
0.00290521
0.00243108
0.00342655
0.00289998
0.00394418
0.00337012
0.0044402
0.0038255
0.00490563
0.00426113
0.00533692
0.00465614
0.00506901
0.00570356
-4.5979e-07
-7.85265e-05
4.32612e-06
-0.000176966
1.96323e-05
-0.000228374
5.07554e-05
-0.000236583
0.000103368
-0.000204663
0.0001838
-0.000134145
0.000299116
-2.49322e-05
0.000456893
0.000124408
0.000664627
0.000316109
0.000928762
0.000552439
0.00125344
0.000834789
0.00163918
0.00116274
0.00208186
0.00153325
0.00257257
0.00194038
0.00309741
0.00237514
0.00364112
0.00282641
0.00418459
0.00328203
0.00471153
0.00373419
0.00522606
0.00414161
0.00462929
0.00566579
-6.7149e-07
-7.7855e-05
2.34347e-06
-0.000179981
1.35295e-05
-0.00023956
3.73477e-05
-0.000260401
7.85459e-05
-0.000245861
0.000142429
-0.000198027
0.000235016
-0.00011752
0.000363028
-3.60362e-06
0.000533606
0.000145531
0.000753775
0.000332269
0.00102959
0.000558977
0.00136505
0.00082727
0.00176103
0.00113727
0.00221444
0.00148696
0.00271736
0.00187222
0.00325896
0.00228481
0.00382427
0.00271672
0.00439203
0.00316643
0.00496975
0.00356389
0.00410991
0.00548912
-8.35302e-07
-7.70197e-05
7.02918e-07
-0.000181519