/*--------------------------------*- C++ -*----------------------------------*\
  =========                 |
  \\      /  F ield         | OpenFOAM: The Open Source CFD Toolbox
   \\    /   O peration     | Website:  https://openfoam.org
    \\  /    A nd           | Version:  7
     \\/     M anipulation  |
\*---------------------------------------------------------------------------*/
FoamFile
{
    version     2.0;
    format      ascii;
    class       volVectorField;
    location    "35.001";
    object      U;
}
// * * * * * * * * * * * * * * * * * * * * * * * * * * * * * * * * * * * * * //

dimensions      [0 1 -1 0 0 0 0];

internalField   nonuniform List<vector> 
11400
(
(-0.00143063 0.00124448 4.20697e-21)
(-0.00779112 0.00280135 -1.52179e-20)
(-0.0190669 0.00372831 -1.25655e-21)
(-0.0319895 0.00423914 -2.33665e-21)
(-0.045603 0.00446505 -1.35884e-20)
(-0.059238 0.00450317 -1.30428e-20)
(-0.0724569 0.00442236 -2.42659e-21)
(0.0173168 0.0129683 1.07959e-20)
(0.0779824 0.0238431 -3.79889e-20)
(0.167029 0.0261849 -3.0763e-21)
(0.249998 0.0249979 -5.50951e-21)
(0.324019 0.0228005 -3.05301e-20)
(0.389388 0.020595 -2.80553e-20)
(0.447106 0.018628 -4.90768e-21)
(0.498325 0.0169042 1.7315e-20)
(0.0173168 -0.0129686 -1.07959e-20)
(0.0779824 -0.0238438 3.79889e-20)
(0.167029 -0.0261856 3.0763e-21)
(0.249998 -0.0249985 5.50951e-21)
(0.324019 -0.0228012 3.05301e-20)
(0.389388 -0.0205956 2.80552e-20)
(0.447106 -0.0186286 4.90768e-21)
(0.498325 -0.0169047 -1.7315e-20)
(0.543978 -0.0153897 -4.14974e-21)
(0.58484 -0.0140519 -5.54906e-21)
(0.621552 -0.0128654 -1.36192e-20)
(0.654652 -0.0118086 -1.78517e-20)
(0.684593 -0.0108635 1.66505e-21)
(0.711756 -0.0100149 7.74335e-21)
(0.736466 -0.00925029 -2.72802e-20)
(0.759003 -0.00855958 -2.38071e-21)
(0.77961 -0.00793335 1.00482e-20)
(0.798493 -0.00736011 1.00301e-20)
(0.815823 -0.00682882 -9.4657e-22)
(0.831724 -0.00634608 -2.49781e-21)
(0.0192852 -0.0387862 9.83855e-20)
(0.0814744 -0.0713502 8.46682e-21)
(0.170778 -0.0783843 -4.13001e-20)
(0.253524 -0.0748465 2.75078e-20)
(0.32719 -0.0682755 -3.82742e-20)
(0.39221 -0.0616752 -3.21468e-21)
(0.449622 -0.0557877 -3.31201e-20)
(0.500576 -0.0506274 2.6187e-20)
(0.545999 -0.0460921 -7.19542e-21)
(0.586661 -0.0420874 3.92338e-20)
(0.623197 -0.0385353 2.85174e-20)
(0.656143 -0.0353714 1.31141e-20)
(0.685949 -0.0325417 4.54454e-20)
(0.712992 -0.030001 -3.45842e-20)
(0.737595 -0.0277117 3.06243e-20)
(0.760037 -0.0256434 2.93394e-20)
(0.780561 -0.023768 2.58602e-21)
(0.799377 -0.022051 -2.54748e-20)
(0.816642 -0.0204598 5.82712e-21)
(0.832442 -0.0190162 2.86236e-20)
(0.0231969 -0.064247 -1.0827e-19)
(0.0884235 -0.118317 2.66846e-20)
(0.178245 -0.130068 1.19501e-19)
(0.260549 -0.12425 -5.24753e-20)
(0.333509 -0.113369 -4.92918e-20)
(0.397837 -0.102423 -2.10113e-20)
(0.454638 -0.0926549 3.10402e-20)
(0.505064 -0.0840923 -1.00043e-20)
(0.550029 -0.0765662 -8.62838e-20)
(0.59029 -0.0699199 -7.9338e-20)
(0.626477 -0.0640244 -6.8608e-21)
(0.659117 -0.0587728 2.32073e-21)
(0.688652 -0.0540755 -1.04892e-20)
(0.715457 -0.0498574 2.22503e-20)
(0.739848 -0.0460566 8.98112e-21)
(0.762099 -0.0426224 3.47943e-20)
(0.782459 -0.0395076 -5.03049e-20)
(0.801141 -0.0366546 2.98247e-20)
(0.818276 -0.0340118 -1.39487e-20)
(0.833873 -0.0316206 -4.90109e-20)
(0.029002 -0.0891173 -5.31064e-20)
(0.0987598 -0.164388 -3.22945e-20)
(0.189365 -0.180899 -2.05012e-19)
(0.271021 -0.172916 -4.54631e-20)
(0.342932 -0.157829 -1.06282e-19)
(0.406228 -0.14262 -3.66217e-20)
(0.46212 -0.129038 9.73785e-20)
(0.511758 -0.11713 5.54994e-20)
(0.55604 -0.106661 2.06564e-21)
(0.595706 -0.0974158 7.03841e-20)
(0.631372 -0.0892137 -1.53382e-20)
(0.663555 -0.0819064 1.86319e-21)
(0.692688 -0.0753696 -4.67434e-20)
(0.719136 -0.0694989 1.44762e-20)
(0.74321 -0.0642082 -1.16205e-19)
(0.765177 -0.0594274 -9.66452e-20)
(0.785292 -0.0550895 -4.57276e-20)
(0.803774 -0.0511137 1.33135e-20)
(0.820716 -0.0474325 3.31904e-20)
(0.836015 -0.0441157 2.68669e-20)
(0.036626 -0.113169 1.27971e-19)
(0.112379 -0.209216 -1.1574e-19)
(0.204046 -0.230544 -9.37288e-20)
(0.284862 -0.220558 -1.55006e-20)
(0.355393 -0.201411 2.03853e-19)
(0.417329 -0.182053 5.82677e-20)
(0.472019 -0.164749 1.58302e-20)
(0.520616 -0.149573 -4.4825e-20)
(0.563994 -0.13623 -3.82982e-20)
(0.602874 -0.124444 5.39528e-20)
(0.637852 -0.113986 1.26881e-19)
(0.66943 -0.104668 -1.93699e-19)
(0.698031 -0.0963306 7.6716e-20)
(0.724009 -0.0888415 1.78851e-20)
(0.747663 -0.0820914 8.72828e-20)
(0.769255 -0.0759905 5.41537e-20)
(0.789045 -0.0704523 1.41556e-19)
(0.807262 -0.0653718 -2.79463e-20)
(0.823949 -0.0606706 1.17173e-20)
(0.838861 -0.0564576 7.39015e-20)
(0.0459708 -0.136184 -1.36941e-19)
(0.129144 -0.252463 4.72022e-20)
(0.222161 -0.278678 2.98807e-19)
(0.301966 -0.266895 1.59588e-19)
(0.370806 -0.243874 -1.45158e-19)
(0.431063 -0.220511 -9.54833e-20)
(0.484269 -0.199603 8.22242e-20)
(0.53158 -0.18126 7.57273e-20)
(0.573842 -0.165129 4.41866e-20)
(0.611748 -0.150877 -1.5766e-19)
(0.645876 -0.138229 1.48817e-20)
(0.676707 -0.126956 9.64023e-20)
(0.704651 -0.116868 -7.82929e-20)
(0.730047 -0.107804 -1.17179e-19)
(0.753183 -0.0996326 3.28899e-20)
(0.774311 -0.0922458 -1.23623e-19)
(0.793698 -0.0855361 -4.56632e-20)
(0.811585 -0.0793743 2.07885e-20)
(0.827959 -0.0736758 -5.87189e-20)
(0.8424 -0.0686027 -3.81252e-20)
(0.0569156 -0.157953 2.41296e-19)
(0.148883 -0.293805 -1.59771e-19)
(0.243556 -0.324989 -2.75965e-20)
(0.322205 -0.311656 -6.63414e-20)
(0.389062 -0.284985 -5.48388e-20)
(0.447338 -0.257795 9.28738e-20)
(0.498789 -0.233425 -1.51773e-19)
(0.544578 -0.212034 -3.95292e-21)
(0.585519 -0.193219 3.92502e-20)
(0.622275 -0.176591 2.54709e-20)
(0.655395 -0.161831 -3.52388e-20)
(0.685342 -0.148672 -8.62759e-20)
(0.712507 -0.136893 -3.25966e-20)
(0.737216 -0.126307 7.936e-20)
(0.759737 -0.116761 -3.04617e-20)
(0.780316 -0.108129 8.86594e-20)
(0.799225 -0.100283 7.01202e-20)
(0.81672 -0.0930685 -2.28868e-20)
(0.832725 -0.0863992 -3.95853e-20)
(0.846621 -0.0805077 6.28462e-20)
(0.0693177 -0.178281 4.77762e-20)
(0.171394 -0.332931 -2.17084e-21)
(0.268046 -0.369177 5.15364e-20)
(0.345425 -0.354581 4.53977e-21)
(0.410034 -0.324524 -1.21847e-19)
(0.466044 -0.293711 -1.66595e-19)
(0.515483 -0.266045 -1.12135e-19)
(0.559526 -0.241747 -2.04755e-19)
(0.598951 -0.220368 -4.75892e-20)
(0.634386 -0.201469 7.53069e-20)
(0.666351 -0.184688 -6.40521e-20)
(0.695284 -0.169723 1.17532e-19)
(0.721555 -0.156322 1.72088e-19)
(0.745473 -0.144275 -1.66149e-19)
(0.767291 -0.133408 8.64609e-20)
(0.787238 -0.12358 -1.18404e-19)
(0.805596 -0.114639 -8.98267e-20)
(0.822637 -0.106404 -9.80776e-20)
(0.838222 -0.0987939 1.90902e-19)
(0.851509 -0.09213 2.36664e-21)
(0.0830143 -0.196988 -2.4184e-19)
(0.196445 -0.369552 6.82957e-20)
(0.295419 -0.410956 2.67505e-19)
(0.371451 -0.395422 -3.60052e-20)
(0.433574 -0.362278 1.04981e-20)
(0.487055 -0.328077 -7.16472e-20)
(0.534241 -0.297303 1.08586e-19)
(0.576327 -0.270256 1.09905e-19)
(0.614054 -0.246451 2.50207e-20)
(0.648008 -0.2254 -8.5821e-20)
(0.678677 -0.206701 2.02146e-19)
(0.706472 -0.190019 -9.25902e-20)
(0.731741 -0.175076 -1.10004e-19)
(0.754773 -0.161636 -1.81224e-19)
(0.775801 -0.149511 -4.16804e-20)
(0.795041 -0.138539 -5.23618e-20)
(0.812778 -0.12855 2.4256e-21)
(0.829306 -0.119333 4.02082e-20)
(0.844425 -0.110815 -1.9077e-19)
(0.857047 -0.103428 5.22573e-20)
(0.0978236 -0.213911 -1.16459e-19)
(0.223773 -0.403396 -7.90369e-20)
(0.325435 -0.450062 -7.20031e-20)
(0.400083 -0.433949 -9.10099e-20)
(0.459516 -0.398051 1.29226e-19)
(0.51023 -0.360722 -4.63642e-20)
(0.55494 -0.327048 -2.40923e-19)
(0.594873 -0.29743 3.21941e-19)
(0.63073 -0.271349 9.94643e-20)
(0.663055 -0.248278 2.07363e-19)
(0.692298 -0.227775 -2.68458e-19)
(0.718841 -0.209477 2.43857e-19)
(0.743006 -0.193079 -3.19748e-20)
(0.765062 -0.178325 2.649e-20)
(0.78522 -0.165007 3.07812e-19)
(0.803681 -0.152953 8.84212e-20)
(0.820733 -0.141968 1.33866e-19)
(0.836691 -0.131812 -6.30332e-21)
(0.851301 -0.122422 9.55999e-20)
(0.863215 -0.114361 -1.37692e-19)
(0.113547 -0.228907 1.80961e-19)
(0.25309 -0.434217 -9.70249e-20)
(0.35783 -0.486245 1.99498e-19)
(0.431101 -0.469945 -1.46621e-19)
(0.48768 -0.431658 1.24179e-19)
(0.535413 -0.391488 7.12562e-20)
(0.577443 -0.355144 4.22088e-19)
(0.615045 -0.323146 -2.81367e-19)
(0.648877 -0.294956 -2.11139e-19)
(0.679435 -0.270006 2.29594e-20)
(0.707132 -0.247825 -2.87501e-20)
(0.732316 -0.22802 -1.11126e-19)
(0.755284 -0.210262 1.75405e-19)
(0.776281 -0.194277 6.35132e-20)
(0.795498 -0.179842 -1.02313e-19)
(0.813113 -0.166771 -1.95532e-19)
(0.829419 -0.154848 -1.57906e-20)
(0.844756 -0.1438 1.13253e-19)
(0.858818 -0.133575 -1.01886e-19)
(0.86999 -0.124891 9.93504e-20)
(0.129971 -0.241852 -1.53432e-19)
(0.284083 -0.461793 -5.14419e-20)
(0.392314 -0.519281 -1.38789e-19)
(0.464266 -0.503213 1.57608e-19)
(0.517865 -0.462933 2.45787e-19)
(0.562435 -0.420232 1.81037e-19)
(0.601605 -0.381464 -8.05918e-20)
(0.636713 -0.347293 -1.35954e-19)
(0.668378 -0.317171 2.60046e-19)
(0.697048 -0.290498 -1.14206e-19)
(0.72309 -0.266773 2.26184e-21)
(0.74682 -0.245577 1.17422e-19)
(0.768506 -0.226562 2.45715e-19)
(0.788369 -0.209436 -1.9227e-19)
(0.806576 -0.193963 -1.26224e-19)
(0.823287 -0.179947 2.07847e-19)
(0.838791 -0.16715 -1.7165e-19)
(0.853458 -0.155261 3.67665e-21)
(0.866941 -0.14424 1.8946e-19)
(0.877349 -0.134981 5.42681e-20)
(0.14687 -0.252648 9.99772e-20)
(0.316414 -0.485932 -1.02282e-19)
(0.428575 -0.548968 -3.24909e-20)
(0.499317 -0.533574 -1.24092e-20)
(0.549859 -0.491724 -3.77249e-19)
(0.591115 -0.446824 -2.55796e-19)
(0.627268 -0.405895 1.18124e-19)
(0.65974 -0.369771 1.05135e-19)
(0.689114 -0.337906 -1.68017e-19)
(0.715785 -0.309674 -2.08342e-19)
(0.740077 -0.284546 1.33565e-19)
(0.762267 -0.262085 -3.88193e-19)
(0.782595 -0.241922 -1.36462e-19)
(0.801257 -0.223751 2.54496e-19)
(0.818396 -0.207325 -2.73428e-20)
(0.834148 -0.19244 -4.86741e-20)
(0.848801 -0.178837 1.26397e-20)
(0.862754 -0.166164 -1.33485e-19)
(0.875633 -0.154387 -9.94128e-20)
(0.885267 -0.144598 -9.64344e-20)
(0.164007 -0.261217 -7.81318e-20)
(0.349726 -0.506469 2.70224e-19)
(0.46628 -0.575128 3.47457e-19)
(0.535979 -0.560871 -8.77002e-20)
(0.583435 -0.5179 2.19224e-19)
(0.621263 -0.471152 3.95384e-20)
(0.654266 -0.42834 -1.79715e-19)
(0.683981 -0.390494 3.01089e-20)
(0.710957 -0.357085 -2.08877e-19)
(0.735534 -0.327464 1.25884e-19)
(0.757992 -0.301084 -8.5486e-20)
(0.778569 -0.277487 3.473e-19)
(0.797473 -0.256291 9.24318e-20)
(0.814875 -0.237175 9.41949e-20)
(0.830892 -0.219885 -1.52751e-19)
(0.845638 -0.204211 7.6176e-21)
(0.859397 -0.189876 1.19037e-19)
(0.872599 -0.176482 9.71568e-20)
(0.884856 -0.163991 8.38641e-20)
(0.893718 -0.153715 3.99868e-20)
(0.181138 -0.267511 -1.66075e-19)
(0.383645 -0.523273 -4.48822e-20)
(0.505078 -0.597611 -8.95816e-20)
(0.573961 -0.584969 2.6806e-20)
(0.618355 -0.541346 -2.63441e-20)
(0.652676 -0.49312 1.19992e-19)
(0.682426 -0.448716 -1.37802e-19)
(0.709284 -0.409389 1.96676e-19)
(0.733772 -0.374641 -2.20557e-19)
(0.756177 -0.34381 9.53216e-21)
(0.77673 -0.316332 2.69723e-19)
(0.795631 -0.291736 -7.43235e-20)
(0.813055 -0.269626 -1.61952e-19)
(0.829147 -0.249671 -1.11476e-19)
(0.843999 -0.231611 1.87184e-19)
(0.857697 -0.215233 1.01116e-19)
(0.870521 -0.200247 -1.36971e-20)
(0.882942 -0.186202 -1.00485e-19)
(0.894573 -0.173041 -1.02295e-19)
(0.902679 -0.162308 1.24027e-19)
(0.198014 -0.271503 2.03263e-19)
(0.41778 -0.536247 -1.28618e-19)
(0.5446 -0.616296 7.45499e-20)
(0.612954 -0.605755 -2.28175e-20)
(0.654367 -0.561969 -1.64091e-19)
(0.685147 -0.512651 -1.1356e-19)
(0.711569 -0.466956 1.73508e-19)
(0.735492 -0.426396 -1.29581e-19)
(0.757421 -0.390521 3.49062e-19)
(0.777591 -0.358664 -1.77629e-20)
(0.796184 -0.330247 -1.79256e-19)
(0.813358 -0.304791 2.51806e-20)
(0.829256 -0.281889 1.59827e-19)
(0.843998 -0.261203 6.55616e-20)
(0.857648 -0.242466 1.71361e-21)
(0.870262 -0.225467 -1.23147e-19)
(0.882113 -0.209908 -3.48461e-20)
(0.893727 -0.195288 -1.44801e-19)
(0.904744 -0.181513 -3.95218e-20)
(0.912136 -0.17036 4.89499e-20)
(0.214384 -0.273199 3.61495e-20)
(0.451729 -0.545327 1.52225e-19)
(0.584461 -0.631088 -1.2837e-19)
(0.65264 -0.62314 -1.51152e-20)
(0.691215 -0.579695 3.20396e-20)
(0.71846 -0.529684 2.35191e-20)
(0.74151 -0.483008 3.84712e-20)
(0.762444 -0.441469 -7.5329e-20)
(0.781763 -0.404684 1.6547e-19)
(0.799652 -0.371987 3.91414e-20)
(0.816242 -0.342796 1.96613e-19)
(0.831651 -0.316621 -1.97506e-19)
(0.845987 -0.293054 -1.07598e-19)
(0.859345 -0.271748 7.97178e-20)
(0.871764 -0.252435 9.68419e-21)
(0.883263 -0.234912 8.88764e-21)
(0.894098 -0.218883 2.60207e-20)
(0.904876 -0.203798 4.08386e-20)
(0.91532 -0.189485 -1.17638e-19)
(0.922085 -0.177913 -2.4297e-19)
(0.229999 -0.272629 -3.72126e-20)
(0.485084 -0.550487 -8.41984e-20)
(0.624265 -0.641924 -4.83345e-20)
(0.692688 -0.637061 -2.88811e-20)
(0.72863 -0.594473 6.66305e-20)
(0.752396 -0.544179 2.27604e-20)
(0.772061 -0.496839 -3.31846e-21)
(0.789976 -0.454579 6.33798e-20)
(0.806654 -0.417102 -4.40105e-23)
(0.822233 -0.383755 -1.34619e-19)
(0.836793 -0.353952 -1.6055e-19)
(0.85041 -0.327203 5.9617e-20)
(0.863159 -0.303095 9.28425e-20)
(0.875112 -0.281278 -1.80465e-19)
(0.886286 -0.261482 -1.66882e-19)
(0.896659 -0.243505 -9.30144e-20)
(0.906444 -0.227059 8.64419e-20)
(0.916338 -0.211562 -1.6709e-20)
(0.926266 -0.196773 1.46527e-20)
(0.932582 -0.184863 1.95179e-19)
(0.244611 -0.269852 -3.55117e-20)
(0.517428 -0.551738 3.12476e-20)
(0.663604 -0.64877 5.41185e-20)
(0.732757 -0.647479 5.6754e-20)
(0.766341 -0.60627 5.32543e-20)
(0.786732 -0.556112 -1.11116e-19)
(0.803033 -0.50843 -4.74058e-20)
(0.817924 -0.465708 1.22891e-19)
(0.83195 -0.427759 -1.11524e-19)
(0.845205 -0.393952 6.53415e-20)
(0.857723 -0.363702 8.90281e-20)
(0.869535 -0.336522 -3.29364e-20)
(0.880682 -0.312001 -3.34285e-20)
(0.891211 -0.28979 8.44286e-20)
(0.901124 -0.269617 8.61666e-20)
(0.910355 -0.251297 5.26492e-20)
(0.919027 -0.234578 5.49008e-20)
(0.927883 -0.218897 -9.28701e-21)
(0.937276 -0.20394 -4.37029e-20)
(0.943616 -0.191909 -6.53539e-20)
(0.257985 -0.264956 1.33043e-20)
(0.548347 -0.549128 1.47684e-21)
(0.702061 -0.651625 -1.8218e-20)
(0.772496 -0.654382 2.96501e-20)
(0.804069 -0.615078 -5.23274e-20)
(0.821242 -0.565479 8.16088e-20)
(0.834236 -0.517781 9.63862e-20)
(0.846122 -0.474857 -2.57321e-19)
(0.857505 -0.436655 -1.4469e-20)
(0.868442 -0.402574 5.95286e-20)
(0.878919 -0.372041 1.19843e-19)
(0.888926 -0.344572 3.5111e-20)
(0.898467 -0.319762 1.61764e-19)
(0.907564 -0.297264 -5.17717e-20)
(0.916213 -0.276804 -1.90362e-20)
(0.924329 -0.258189 1.80818e-20)
(0.931931 -0.241171 -1.46058e-19)
(0.939682 -0.225172 4.33957e-20)
(0.948495 -0.209863 -3.48111e-20)
(0.955949 -0.197755 9.13676e-20)
(0.269904 -0.258064 4.29983e-20)
(0.57742 -0.542739 6.66299e-21)
(0.739214 -0.65052 5.54785e-21)
(0.811553 -0.657787 -5.66215e-21)
(0.841534 -0.620906 -2.88266e-20)
(0.855701 -0.572295 -3.78281e-20)
(0.865482 -0.524905 -3.10226e-20)
(0.87441 -0.482038 7.03283e-20)
(0.883178 -0.443798 -3.38964e-21)
(0.891817 -0.409629 -1.30338e-20)
(0.90027 -0.378974 -7.74827e-20)
(0.908484 -0.351357 2.44774e-20)
(0.916429 -0.32638 -4.3246e-20)
(0.924095 -0.303704 -4.80393e-22)
(0.931476 -0.283057 1.21188e-19)
(0.938495 -0.264244 -1.06187e-20)
(0.945089 -0.247058 8.82923e-20)
(0.951602 -0.231181 1.47537e-20)
(0.958856 -0.216974 2.24573e-20)
(0.967062 -0.206034 -3.64916e-20)
(0.280202 -0.24933 -6.81853e-21)
(0.604224 -0.532677 2.11401e-20)
(0.774638 -0.645526 6.97347e-20)
(0.849567 -0.657737 -5.9228e-22)
(0.878452 -0.623787 -2.47248e-20)
(0.889883 -0.57659 3.28555e-20)
(0.896583 -0.529836 2.12636e-20)
(0.902625 -0.48728 2.83421e-20)
(0.908828 -0.449212 9.35001e-20)
(0.915208 -0.415138 -1.11041e-19)
(0.921666 -0.384517 -8.15807e-20)
(0.928113 -0.356887 -2.77334e-20)
(0.934482 -0.331863 -8.38219e-20)
(0.940731 -0.309116 5.2964e-20)
(0.94684 -0.288377 -1.47368e-20)
(0.952757 -0.269444 -1.02957e-19)
(0.958386 -0.252125 1.51479e-20)
(0.963772 -0.236289 4.20154e-20)
(0.969393 -0.222329 -2.74999e-20)
(0.976538 -0.209812 1.57708e-19)
(0.288669 -0.238837 -1.60503e-19)
(0.628352 -0.519068 -8.52454e-20)
(0.807922 -0.636788 -1.47722e-19)
(0.886183 -0.6543 -7.88408e-21)
(0.914539 -0.623765 -1.88737e-20)
(0.923565 -0.578414 1.16888e-20)
(0.927358 -0.53262 -1.707e-20)
(0.930613 -0.490623 -8.47932e-20)
(0.934319 -0.452934 9.99519e-20)
(0.938494 -0.419129 -4.4692e-20)
(0.943002 -0.388694 5.76913e-20)
(0.947719 -0.361185 4.09382e-20)
(0.952543 -0.336228 6.25421e-20)
(0.957402 -0.313506 9.76772e-21)
(0.962256 -0.292756 -4.54969e-20)
(0.967074 -0.273757 1.49143e-20)
(0.971782 -0.256309 5.98579e-21)
(0.976255 -0.240396 3.49275e-20)
(0.98059 -0.226402 -7.61177e-20)
(0.986292 -0.212978 -1.09222e-19)
(0.295078 -0.226727 2.50732e-21)
(0.649231 -0.502029 1.76037e-19)
(0.838769 -0.624521 1.4379e-19)
(0.921057 -0.647561 5.98892e-20)
(0.949509 -0.620907 1.96797e-20)
(0.956524 -0.577831 -3.97941e-21)
(0.957628 -0.533318 -6.10851e-21)
(0.958221 -0.492124 1.93491e-20)
(0.959519 -0.455011 -6.56935e-20)
(0.961559 -0.421643 -1.18962e-20)
(0.964176 -0.391541 -2.74522e-20)
(0.967212 -0.364279 9.13388e-21)
(0.970535 -0.339497 -4.8974e-20)
(0.974044 -0.316894 -1.51022e-20)
(0.97768 -0.296212 3.22045e-20)
(0.981427 -0.277218 -4.41074e-20)
(0.985253 -0.259708 -1.6405e-21)
(0.988959 -0.243762 4.53193e-20)
(0.99236 -0.229794 7.27561e-20)
(0.996839 -0.21593 2.56603e-20)
(0.299394 -0.213218 -5.34789e-20)
(0.666629 -0.482106 -1.2411e-19)
(0.866644 -0.608958 -1.50116e-20)
(0.953905 -0.637512 1.14021e-19)
(0.983088 -0.615286 -4.69894e-20)
(0.988543 -0.574924 3.53958e-20)
(0.987219 -0.532005 6.02625e-21)
(0.985307 -0.49185 -4.78529e-21)
(0.984303 -0.455502 -1.39467e-20)
(0.984293 -0.422732 3.08701e-20)
(0.985091 -0.393101 3.28892e-20)
(0.986506 -0.366207 -3.18925e-20)
(0.988381 -0.341707 4.41956e-21)
(0.990593 -0.319314 -8.01423e-20)
(0.993063 -0.298784 5.48132e-20)
(0.995781 -0.279881 -1.64442e-20)
(0.998746 -0.262405 1.98896e-20)
(1.00173 -0.246499 1.0305e-20)
(1.00433 -0.232594 -9.6733e-20)
(1.00776 -0.218497 -2.43651e-20)
(0.301527 -0.198654 1.55649e-19)
(0.68045 -0.459613 1.86334e-19)
(0.890822 -0.589994 -8.09083e-20)
(0.9843 -0.624362 -8.57233e-20)
(1.01497 -0.606995 -4.02339e-20)
(1.0194 -0.569781 -3.46444e-20)
(1.01596 -0.528766 -2.58187e-20)
(1.01173 -0.489878 -3.96399e-21)
(1.00855 -0.454477 1.58431e-20)
(1.00659 -0.422455 -2.43358e-20)
(1.00565 -0.393427 5.38409e-21)
(1.00552 -0.367015 1.5173e-20)
(1.00601 -0.342898 2.30962e-21)
(1.00698 -0.320806 -1.93598e-20)
(1.00834 -0.30051 -2.19231e-20)
(1.01008 -0.281782 -3.54443e-20)
(1.0122 -0.264424 2.42729e-20)
(1.01444 -0.248607 -1.16098e-20)
(1.01628 -0.23476 2.16398e-20)
(1.01871 -0.220579 1.19865e-21)
(0.301385 -0.183281 -1.49642e-19)
(0.690377 -0.434686 1.73254e-19)
(0.911069 -0.567961 7.47412e-20)
(1.0117 -0.608278 -5.73763e-20)
(1.04492 -0.596159 7.21501e-20)
(1.04889 -0.562525 -4.58767e-20)
(1.0437 -0.5237 5.49918e-20)
(1.03736 -0.4863 1.60835e-20)
(1.03216 -0.452015 -9.84841e-21)
(1.02836 -0.420883 1.03884e-21)
(1.02578 -0.392578 -2.60719e-21)
(1.02417 -0.366757 -9.1202e-21)
(1.02335 -0.343118 -9.80248e-21)
(1.02314 -0.321412 1.86239e-20)
(1.02345 -0.301427 1.9201e-21)
(1.02425 -0.282947 4.79295e-20)
(1.02554 -0.265776 -4.11058e-20)
(1.02703 -0.250083 -3.26477e-21)
(1.02811 -0.236302 -3.9191e-20)
(1.02959 -0.222163 3.01004e-20)
(0.298922 -0.167325 1.01552e-19)
(0.696097 -0.407629 -1.58908e-19)
(0.927238 -0.543146 2.43542e-21)
(1.03571 -0.589462 -2.57848e-20)
(1.07259 -0.582977 -8.9747e-20)
(1.07681 -0.553216 1.08041e-19)
(1.07027 -0.516904 -1.66572e-20)
(1.06208 -0.481214 -4.38167e-20)
(1.05501 -0.448204 -6.68644e-21)
(1.0495 -0.418091 7.63361e-21)
(1.04538 -0.390622 9.39785e-21)
(1.0424 -0.36549 -1.69383e-22)
(1.04033 -0.342418 1.01686e-20)
(1.03902 -0.321176 6.92357e-21)
(1.03833 -0.301573 -6.00966e-21)
(1.03823 -0.283407 -2.80001e-20)
(1.03871 -0.266483 1.87161e-20)
(1.03948 -0.250955 2.275e-20)
(1.03983 -0.237266 1.30679e-20)
(1.04043 -0.223277 -8.95917e-22)
(0.294147 -0.15103 1.17835e-20)
(0.697375 -0.378826 1.8825e-20)
(0.938987 -0.515851 -1.35175e-19)
(1.05614 -0.568146 5.32197e-20)
(1.09759 -0.567526 1.10578e-19)
(1.1029 -0.541998 -1.14609e-19)
(1.09551 -0.508498 1.51849e-20)
(1.08576 -0.474729 4.93016e-20)
(1.07702 -0.443141 -1.03553e-20)
(1.06994 -0.414164 8.94893e-21)
(1.06439 -0.387632 -2.85388e-20)
(1.06012 -0.363278 -4.95034e-21)
(1.0569 -0.340852 1.11839e-21)
(1.05454 -0.320146 -2.22251e-21)
(1.05293 -0.300988 2.26145e-21)
(1.05198 -0.283196 1.58848e-20)
(1.05169 -0.266577 -1.49948e-20)
(1.05173 -0.251258 6.66878e-21)
(1.0514 -0.237694 -2.2485e-20)
(1.0512 -0.223943 -5.34853e-21)
(0.287117 -0.134644 8.17718e-20)
(0.69405 -0.348677 -9.8477e-20)
(0.945944 -0.48638 1.25956e-19)
(1.07264 -0.544509 -5.35425e-20)
(1.11967 -0.549969 3.43634e-20)
(1.12696 -0.529017 5.49529e-20)
(1.11928 -0.498615 -2.04117e-20)
(1.10829 -0.466957 -5.4902e-20)
(1.0981 -0.436925 2.07905e-20)
(1.08959 -0.409192 1.94764e-20)
(1.08274 -0.383687 2.46135e-20)
(1.07729 -0.360188 5.81706e-21)
(1.073 -0.33848 2.44024e-20)
(1.06968 -0.318375 1.08576e-21)
(1.06719 -0.29972 4.07695e-22)
(1.06545 -0.282355 9.64104e-22)
(1.06441 -0.266091 -2.49142e-21)
(1.06377 -0.251023 6.51754e-22)
(1.06281 -0.237616 1.11499e-20)
(1.06187 -0.22417 -1.67622e-22)
(0.277929 -0.118412 -1.0804e-19)
(0.68603 -0.317596 -1.67837e-19)
(0.9478 -0.455064 -7.27243e-20)
(1.08481 -0.518767 -2.06384e-21)
(1.13857 -0.530478 1.08593e-20)
(1.14876 -0.514418 -1.37856e-19)
(1.14145 -0.487374 6.95751e-20)
(1.12959 -0.458011 -3.27475e-20)
(1.11816 -0.42967 -4.44421e-20)
(1.1084 -0.403266 4.40261e-21)
(1.10038 -0.378869 -2.94452e-20)
(1.09385 -0.356294 -2.63998e-20)
(1.08858 -0.335365 -2.50293e-20)
(1.08437 -0.315915 5.36965e-21)
(1.08108 -0.297815 9.49986e-21)
(1.0786 -0.280925 -3.77008e-21)
(1.07685 -0.265062 4.98562e-21)
(1.07556 -0.250283 -6.49769e-22)
(1.07402 -0.23706 3.10394e-21)
(1.07241 -0.22397 -2.0469e-21)
(0.266724 -0.102571 5.51617e-20)
(0.6733 -0.28601 4.78766e-20)
(0.944311 -0.422263 -2.236e-19)
(1.09233 -0.491167 7.6132e-20)
(1.15397 -0.509222 -1.54275e-19)
(1.16808 -0.498333 1.04143e-19)
(1.16184 -0.474903 -9.58736e-21)
(1.14957 -0.448013 6.12249e-20)
(1.13715 -0.421472 8.07841e-20)
(1.12631 -0.396495 -3.73011e-21)
(1.11724 -0.373265 4.26426e-20)
(1.10975 -0.351665 3.91154e-20)
(1.1036 -0.331571 -1.1495e-20)
(1.09858 -0.312826 -1.7649e-20)
(1.09455 -0.295324 -7.1543e-21)
(1.09138 -0.278947 9.89966e-21)
(1.08898 -0.263524 -4.18154e-21)
(1.08708 -0.249071 1.67442e-21)
(1.08502 -0.236053 8.68439e-22)
(1.08281 -0.223356 -2.67302e-22)
(0.253684 -0.0873465 1.31196e-19)
(0.655918 -0.254361 1.41118e-19)
(0.935285 -0.388358 -4.68815e-20)
(1.09487 -0.46197 2.34039e-19)
(1.16554 -0.486371 4.61874e-20)
(1.18468 -0.480889 -1.66578e-19)
(1.18031 -0.461321 1.15901e-19)
(1.16812 -0.437079 -1.38146e-20)
(1.15503 -0.412453 -8.2532e-21)
(1.14329 -0.388968 -3.00527e-20)
(1.13331 -0.366954 1.45565e-20)
(1.12496 -0.34639 1.1966e-20)
(1.11803 -0.32717 -2.97408e-20)
(1.11228 -0.309162 -2.74844e-21)
(1.10758 -0.292296 -7.49973e-21)
(1.10378 -0.276466 -1.20755e-20)
(1.10078 -0.261519 1.2099e-20)
(1.09832 -0.247425 -7.89214e-21)
(1.09577 -0.234629 -6.45057e-21)
(1.09302 -0.22235 2.8573e-21)
(0.23903 -0.072942 -2.73394e-19)
(0.63403 -0.223093 8.30201e-20)
(0.920591 -0.353751 1.599e-21)
(1.0921 -0.43145 -1.43468e-19)
(1.17294 -0.462102 1.63843e-20)
(1.1983 -0.462212 -3.68273e-20)
(1.19668 -0.446742 -3.5192e-20)
(1.18514 -0.425325 -4.90936e-20)
(1.17171 -0.402719 -2.45297e-21)
(1.15928 -0.380783 -2.21499e-20)
(1.14855 -0.360034 -4.07074e-20)
(1.13947 -0.340537 -1.69105e-20)
(1.13183 -0.322218 3.98927e-20)
(1.12544 -0.304991 2.18671e-20)
(1.12013 -0.288787 6.98972e-21)
(1.11577 -0.273525 1.87298e-20)
(1.11221 -0.259082 -2.47336e-20)
(1.10924 -0.245381 6.53471e-21)
(1.10629 -0.232814 4.79563e-21)
(1.10306 -0.220958 2.90855e-23)
(0.223013 -0.0595376 1.95669e-19)
(0.607872 -0.192646 -1.68017e-19)
(0.900165 -0.318857 -6.83033e-20)
(1.08375 -0.39989 1.61489e-19)
(1.17584 -0.436593 1.32851e-20)
(1.20865 -0.442426 1.58811e-21)
(1.21077 -0.431274 5.51434e-20)
(1.20053 -0.412857 -7.80607e-20)
(1.18714 -0.392373 1.27119e-20)
(1.17426 -0.372042 4.34317e-20)
(1.16292 -0.352591 -1.63834e-20)
(1.15323 -0.334183 -4.18482e-20)
(1.14499 -0.316794 1.04946e-21)
(1.13804 -0.300366 -1.56459e-20)
(1.1322 -0.284844 -1.59158e-20)
(1.12733 -0.270173 -3.4378e-20)
(1.12327 -0.256263 2.00306e-20)
(1.11983 -0.242989 -1.39899e-21)
(1.11653 -0.230654 9.87995e-22)
(1.11293 -0.219231 -6.82244e-21)
(0.205915 -0.0472839 -1.76121e-19)
(0.577779 -0.16344 1.60227e-19)
(0.874026 -0.284097 -2.46467e-20)
(1.06956 -0.367591 -1.46437e-20)
(1.17386 -0.410025 1.83437e-20)
(1.21541 -0.421644 -2.56014e-20)
(1.22238 -0.415009 -1.671e-21)
(1.21417 -0.399768 8.1719e-20)
(1.20126 -0.381513 -3.70029e-21)
(1.18819 -0.36284 5.22685e-21)
(1.17642 -0.344712 2.70605e-21)
(1.16623 -0.327408 5.72725e-21)
(1.1575 -0.310963 -1.61747e-20)
(1.15006 -0.295347 3.83841e-20)
(1.14376 -0.280524 4.06082e-21)
(1.13845 -0.266459 1.97651e-20)
(1.13395 -0.253088 -6.97769e-21)
(1.13008 -0.240265 2.72735e-21)
(1.12646 -0.228205 -1.00646e-20)
(1.12268 -0.217143 8.99979e-21)
(0.188033 -0.036299 7.57204e-20)
(0.544176 -0.135869 -6.57598e-20)
(0.842291 -0.249899 -2.33324e-20)
(1.04932 -0.334864 -2.39627e-20)
(1.16665 -0.382584 3.18961e-20)
(1.21825 -0.399974 7.86755e-21)
(1.23125 -0.398028 4.22741e-20)
(1.22592 -0.386141 -8.86955e-20)
(1.21402 -0.370227 4.90284e-20)
(1.20105 -0.353265 3.25225e-20)
(1.18903 -0.336481 -2.09858e-20)
(1.17847 -0.32029 4.14589e-20)
(1.16934 -0.304793 5.10077e-22)
(1.1615 -0.289996 9.92938e-21)
(1.15481 -0.27588 1.29711e-20)
(1.14911 -0.262428 -1.63819e-20)
(1.14424 -0.249597 1.20987e-20)
(1.13999 -0.237259 3.97795e-21)
(1.13607 -0.225578 1.95571e-22)
(1.13216 -0.214892 -5.26047e-21)
(0.169679 -0.0266642 -3.99734e-20)
(0.507575 -0.110284 1.16052e-20)
(0.805193 -0.216688 7.22402e-20)
(1.02288 -0.302033 -1.49028e-20)
(1.15385 -0.35446 1.74309e-20)
(1.21676 -0.377516 -1.037e-20)
(1.23708 -0.380398 1.25667e-20)
(1.23561 -0.372043 -8.86755e-21)
(1.22532 -0.358592 -5.15947e-20)
(1.21281 -0.343399 3.10622e-21)
(1.20074 -0.327977 1.77102e-21)
(1.18994 -0.3129 -2.91895e-20)
(1.18051 -0.298349 1.05646e-20)
(1.17236 -0.284369 -2.08143e-21)
(1.16533 -0.270962 -1.73073e-20)
(1.15931 -0.258126 1.45863e-20)
(1.15411 -0.245839 -1.99645e-20)
(1.14955 -0.233997 -6.55632e-21)
(1.14535 -0.222721 4.6526e-21)
(1.14121 -0.21238 -1.92866e-21)
(0.151162 -0.0184232 4.49293e-20)
(0.468568 -0.0869861 1.47424e-20)
(0.763086 -0.184882 -2.03661e-20)
(0.990169 -0.269435 -8.11955e-21)
(1.13508 -0.32585 -3.28421e-20)
(1.21052 -0.354363 -3.09109e-21)
(1.23953 -0.362165 -7.23999e-21)
(1.243 -0.357518 1.25345e-21)
(1.23506 -0.346667 -4.80412e-21)
(1.22342 -0.333312 -9.56081e-21)
(1.21154 -0.319272 -4.56137e-21)
(1.20065 -0.305307 1.09485e-20)
(1.19102 -0.291694 1.60341e-21)
(1.18263 -0.278523 -8.70418e-21)
(1.17534 -0.26582 3.09913e-21)
(1.16905 -0.253596 2.64654e-21)
(1.16358 -0.241851 9.87572e-21)
(1.15875 -0.230496 -3.48167e-21)
(1.15429 -0.219609 -3.29343e-21)
(1.14991 -0.209599 -1.05605e-21)
(0.132789 -0.0115816 -9.49119e-21)
(0.427811 -0.0662154 2.28558e-20)
(0.71646 -0.154881 7.70233e-21)
(0.951225 -0.237421 -3.47431e-21)
(1.11003 -0.296964 -8.39924e-21)
(1.19906 -0.330604 1.04118e-20)
(1.23816 -0.343362 8.4447e-21)
(1.24781 -0.342593 -1.39222e-20)
(1.24307 -0.334492 3.61154e-21)
(1.23282 -0.323061 -1.46119e-21)
(1.22141 -0.310431 4.11944e-22)
(1.21059 -0.297577 -4.27677e-21)
(1.20088 -0.284889 -5.01644e-21)
(1.19232 -0.272512 1.11365e-21)
(1.18484 -0.2605 3.72145e-22)
(1.17834 -0.24888 -5.70367e-21)
(1.17265 -0.237666 5.03658e-22)
(1.16758 -0.226789 3.35974e-21)
(1.16292 -0.216275 3.16272e-21)
(1.15836 -0.206588 -1.06054e-22)
(0.114845 -0.00610816 -9.32796e-22)
(0.386007 -0.0481413 1.944e-20)
(0.665943 -0.127061 2.02159e-21)
(0.906214 -0.206349 3.51849e-21)
(1.07842 -0.268024 -1.47857e-20)
(1.18188 -0.306331 2.57186e-20)
(1.2325 -0.324005 -7.7963e-21)
(1.24968 -0.327265 -4.76581e-21)
(1.24913 -0.322084 -2.09569e-21)
(1.24091 -0.312683 -5.5549e-21)
(1.23033 -0.301506 8.91934e-21)
(1.21978 -0.289765 -1.01386e-20)
(1.21009 -0.277987 -6.43973e-21)
(1.20145 -0.266387 3.20638e-22)
(1.19385 -0.25505 1.98355e-21)
(1.18718 -0.244019 -1.04926e-21)
(1.18131 -0.233324 -3.59419e-21)
(1.17607 -0.222915 3.75285e-21)
(1.17126 -0.212771 5.12247e-21)
(1.16657 -0.203387 3.71188e-21)
(0.0975936 -0.0019383 6.57094e-20)
(0.343879 -0.0328555 1.64482e-20)
(0.6123 -0.101756 -3.69393e-20)
(0.855459 -0.17659 1.73247e-20)
(1.04003 -0.239278 -5.32027e-20)
(1.15848 -0.281645 -1.69794e-21)
(1.22196 -0.304101 -1.87071e-20)
(1.24815 -0.311514 2.26687e-20)
(1.25297 -0.309432 2.8307e-21)
(1.24753 -0.302194 -1.87282e-20)
(1.23824 -0.292535 -1.77194e-20)
(1.2282 -0.28192 5.96373e-21)
(1.21866 -0.27104 5.46337e-21)
(1.21003 -0.260195 -8.62842e-21)
(1.20236 -0.249513 2.32941e-21)
(1.19559 -0.239054 2.94048e-21)
(1.1896 -0.228862 1.72385e-20)
(1.18423 -0.218912 -3.22594e-21)
(1.17929 -0.209141 -9.27264e-21)
(1.17454 -0.200026 6.03974e-21)
(0.0812615 0.0010217 -4.7724e-20)
(0.302142 -0.0203688 -5.21941e-21)
(0.556416 -0.0792471 9.64673e-20)
(0.799471 -0.148517 -5.06307e-20)
(0.994812 -0.210998 5.7951e-20)
(1.12835 -0.256661 -1.38641e-20)
(1.20591 -0.28365 -4.37946e-21)
(1.24264 -0.295291 -5.62272e-21)
(1.25417 -0.296496 -4.71124e-20)
(1.25247 -0.291584 -1.61675e-20)
(1.24503 -0.283535 1.80394e-20)
(1.23581 -0.274077 -3.62907e-20)
(1.22661 -0.26409 -2.0452e-20)
(1.21808 -0.253981 9.81338e-21)
(1.21041 -0.24393 -1.86445e-20)
(1.20358 -0.234022 6.04182e-21)
(1.19751 -0.224315 -2.94419e-20)
(1.19204 -0.214813 1.25401e-20)
(1.18703 -0.20542 -5.96886e-21)
(1.18226 -0.196534 1.23149e-20)
(0.0660376 0.00288892 3.64471e-20)
(0.26148 -0.0106116 7.86104e-22)
(0.499274 -0.0597436 -5.64482e-20)
(0.738967 -0.122499 -2.88709e-20)
(0.942846 -0.183489 4.99748e-20)
(1.09105 -0.231528 -2.20318e-20)
(1.18365 -0.262659 1.59716e-20)
(1.23246 -0.278534 -4.23624e-21)
(1.25221 -0.283206 -5.60804e-22)
(1.2554 -0.280812 1.18878e-20)
(1.25054 -0.274499 -6.70819e-21)
(1.24256 -0.266255 5.83231e-20)