/*--------------------------------*- C++ -*----------------------------------*\
  =========                 |
  \\      /  F ield         | OpenFOAM: The Open Source CFD Toolbox
   \\    /   O peration     | Website:  https://openfoam.org
    \\  /    A nd           | Version:  7
     \\/     M anipulation  |
\*---------------------------------------------------------------------------*/
FoamFile
{
    version     2.0;
    format      ascii;
    class       volScalarField;
    location    "35.001";
    object      p;
}
// * * * * * * * * * * * * * * * * * * * * * * * * * * * * * * * * * * * * * //

dimensions      [0 2 -2 0 0 0 0];

internalField   nonuniform List<scalar> 
3700
(
-0.237613
-0.228956
-0.220513
-0.212384
-0.20457
-0.197107
-0.190025
-0.183332
-0.177022
-0.17109
-0.165527
-0.160325
-0.155473
-0.150962
-0.146782
-0.142922
-0.139373
-0.136125
-0.133167
-0.13049
-0.128086
-0.125946
-0.124063
-0.122431
-0.121042
-0.119893
-0.118979
-0.118296
-0.117842
-0.117615
-0.237079
-0.22878
-0.220716
-0.212935
-0.205435
-0.198258
-0.191433
-0.184967
-0.17886
-0.173107
-0.167703
-0.162639
-0.157909
-0.153503
-0.149414
-0.145633
-0.14215
-0.138958
-0.136047
-0.13341
-0.131039
-0.128926
-0.127065
-0.12545
-0.124076
-0.122937
-0.122031
-0.121355
-0.120905
-0.12068
-0.236209
-0.228217
-0.220498
-0.213044
-0.205848
-0.198952
-0.192385
-0.186154
-0.180258
-0.174694
-0.169458
-0.164544
-0.159946
-0.155657
-0.151669
-0.147977
-0.144571
-0.141445
-0.138591
-0.136002
-0.133672
-0.131594
-0.129762
-0.12817
-0.126815
-0.125693
-0.124798
-0.12413
-0.123686
-0.123464
-0.235045
-0.227328
-0.219947
-0.212809
-0.205901
-0.199273
-0.192955
-0.186955
-0.18127
-0.175898
-0.170834
-0.166075
-0.161615
-0.157449
-0.15357
-0.149974
-0.146652
-0.1436
-0.14081
-0.138276
-0.135994
-0.133956
-0.132158
-0.130596
-0.129264
-0.128161
-0.127281
-0.126624
-0.126187
-0.125968
-0.233604
-0.22613
-0.219104
-0.21228
-0.205647
-0.199274
-0.193196
-0.187419
-0.181941
-0.176758
-0.171867
-0.167264
-0.162945
-0.158905
-0.15514
-0.151644
-0.148411
-0.145438
-0.142717
-0.140244
-0.138014
-0.136021
-0.134262
-0.132732
-0.131427
-0.130346
-0.129483
-0.128838
-0.128409
-0.128195
-0.23189
-0.224618
-0.217989
-0.211474
-0.205099
-0.198973
-0.19313
-0.187573
-0.182297
-0.177299
-0.172579
-0.168132
-0.163954
-0.160043
-0.156393
-0.153001
-0.149862
-0.14697
-0.144323
-0.141914
-0.13974
-0.137796
-0.136079
-0.134585
-0.13331
-0.132252
-0.131409
-0.130778
-0.130358
-0.130149
-0.229873
-0.22281
-0.216629
-0.210385
-0.204256
-0.198378
-0.192769
-0.187427
-0.182349
-0.177535
-0.172984
-0.168692
-0.164657
-0.160876
-0.157344
-0.154058
-0.151014
-0.148208
-0.145637
-0.143296
-0.141181
-0.139289
-0.137617
-0.13616
-0.134918
-0.133886
-0.133063
-0.132448
-0.132038
-0.131833
-0.227562
-0.22077
-0.215045
-0.209007
-0.203128
-0.1975
-0.192122
-0.186991
-0.182109
-0.177477
-0.173094
-0.168957
-0.165065
-0.161414
-0.158001
-0.154823
-0.151878
-0.14916
-0.146668
-0.144397
-0.142344
-0.140507
-0.138881
-0.137466
-0.136257
-0.135253
-0.134452
-0.133853
-0.133454
-0.133255
-0.224975
-0.21864
-0.213209
-0.207353
-0.201739
-0.196358
-0.191202
-0.186277
-0.181588
-0.177136
-0.17292
-0.168939
-0.16519
-0.16167
-0.158378
-0.15531
-0.152463
-0.149836
-0.147425
-0.145226
-0.143238
-0.141457
-0.139881
-0.138508
-0.137335
-0.13636
-0.135582
-0.135
-0.134613
-0.134419
-0.222236
-0.21641
-0.211048
-0.20547
-0.200118
-0.194968
-0.190024
-0.1853
-0.180801
-0.176527
-0.172478
-0.168651
-0.165044
-0.161656
-0.158485
-0.155528
-0.152782
-0.150247
-0.147918
-0.145794
-0.143871
-0.142149
-0.140624
-0.139294
-0.138158
-0.137214
-0.13646
-0.135896
-0.135521
-0.135333
-0.219363
-0.213908
-0.208674
-0.203385
-0.198272
-0.193338
-0.188601
-0.184075
-0.179762
-0.175664
-0.171779
-0.168105
-0.164641
-0.161385
-0.158334
-0.155489
-0.152845
-0.150402
-0.148157
-0.146108
-0.144254
-0.142591
-0.141118
-0.139833
-0.138735
-0.137822
-0.137094
-0.136548
-0.136185
-0.136003
-0.216314
-0.211142
-0.206118
-0.201087
-0.1962
-0.191479
-0.186946
-0.182614
-0.178486
-0.174561
-0.170838
-0.167316
-0.163993
-0.160868
-0.157939
-0.155204
-0.152663
-0.150313
-0.148153
-0.146181
-0.144394
-0.142792
-0.141372
-0.140133
-0.139074
-0.138193
-0.13749
-0.136963
-0.136613
-0.136437
-0.213074
-0.208159
-0.203369
-0.198579
-0.193911
-0.1894
-0.185069
-0.18093
-0.176984
-0.17323
-0.169667
-0.166295
-0.163112
-0.160117
-0.157309
-0.154686
-0.152247
-0.149991
-0.147916
-0.14602
-0.144302
-0.142761
-0.141395
-0.140203
-0.139183
-0.138335
-0.137658
-0.13715
-0.136813
-0.136644
-0.209654
-0.204989
-0.200426
-0.195867
-0.191416
-0.187114
-0.182984
-0.179034
-0.175266
-0.171681
-0.168277
-0.165054
-0.16201
-0.159144
-0.156456
-0.153944
-0.151608
-0.149445
-0.147455
-0.145637
-0.143988
-0.142508
-0.141196
-0.140051
-0.139071
-0.138256
-0.137605
-0.137118
-0.136793
-0.13663
-0.206065
-0.201641
-0.1973
-0.192966
-0.188729
-0.184633
-0.1807
-0.176937
-0.173346
-0.169927
-0.16668
-0.163604
-0.160698
-0.15796
-0.155392
-0.15299
-0.150756
-0.148686
-0.146782
-0.14504
-0.143461
-0.142043
-0.140785
-0.139687
-0.138748
-0.137966
-0.137341
-0.136873
-0.136561
-0.136406
-0.202317
-0.198125
-0.194002
-0.189887
-0.185862
-0.181969
-0.17823
-0.174651
-0.171234
-0.16798
-0.164887
-0.161957
-0.159187
-0.156577
-0.154127
-0.151835
-0.149701
-0.147725
-0.145905
-0.14424
-0.142731
-0.141374
-0.140171
-0.13912
-0.138221
-0.137472
-0.136874
-0.136426
-0.136127
-0.135978
-0.198418
-0.194451
-0.190542
-0.186643
-0.182826
-0.179134
-0.175585
-0.172187
-0.168942
-0.16585
-0.16291
-0.160123
-0.157488
-0.155004
-0.152671
-0.150488
-0.148455
-0.146571
-0.144836
-0.143248
-0.141807
-0.140512
-0.139363
-0.13836
-0.1375
-0.136785
-0.136214
-0.135785
-0.1355
-0.135357
-0.194375
-0.190628
-0.18693
-0.183244
-0.179632
-0.176137
-0.172776
-0.169557
-0.166481
-0.163549
-0.16076
-0.158115
-0.155613
-0.153254
-0.151037
-0.148962
-0.147028
-0.145235
-0.143584
-0.142072
-0.140699
-0.139466
-0.138371
-0.137414
-0.136595
-0.135913
-0.135368
-0.134959
-0.134687
-0.134551
-0.190198
-0.186666
-0.183176
-0.179699
-0.17629
-0.17299
-0.169814
-0.166771
-0.163862
-0.161087
-0.158448
-0.155943
-0.153572
-0.151336
-0.149233
-0.147265
-0.14543
-0.143728
-0.142159
-0.140722
-0.139418
-0.138245
-0.137204
-0.136294
-0.135515
-0.134866
-0.134347
-0.133958
-0.133699
-0.133569
-0.185897
-0.182576
-0.179292
-0.176021
-0.172812
-0.169703
-0.16671
-0.163841
-0.161096
-0.158477
-0.155984
-0.153617
-0.151376
-0.149261
-0.147272
-0.145408
-0.14367
-0.142058
-0.140571
-0.139209
-0.137972
-0.13686
-0.135872
-0.135008
-0.134268
-0.133652
-0.133159
-0.132789
-0.132543
-0.13242
-0.181482
-0.178369
-0.175288
-0.17222
-0.169208
-0.166288
-0.163475
-0.160776
-0.158193
-0.155728
-0.153379
-0.151149
-0.149035
-0.14704
-0.145162
-0.143402
-0.14176
-0.140236
-0.13883
-0.137542
-0.136372
-0.135319
-0.134383
-0.133565
-0.132864
-0.13228
-0.131813
-0.131463
-0.13123
-0.131113
-0.176965
-0.174055
-0.171176
-0.168308
-0.165489
-0.162755
-0.16012
-0.157589
-0.155166
-0.152851
-0.150645
-0.148548
-0.14656
-0.144683
-0.142915
-0.141257
-0.13971
-0.138273
-0.136946
-0.135731
-0.134626
-0.133632
-0.132748
-0.131975
-0.131313
-0.130761
-0.130319
-0.129988
-0.129768
-0.129657
-0.172355
-0.169647
-0.166966
-0.164295
-0.161667
-0.159116
-0.156656
-0.154291
-0.152024
-0.149857
-0.147791
-0.145826
-0.143962
-0.1422
-0.14054
-0.138982
-0.137528
-0.136176
-0.134929
-0.133785
-0.132744
-0.131808
-0.130975
-0.130247
-0.129622
-0.129102
-0.128685
-0.128373
-0.128165
-0.128061
-0.167666
-0.165156
-0.16267
-0.160193
-0.157753
-0.155382
-0.153093
-0.150891
-0.148778
-0.146757
-0.144828
-0.142992
-0.141249
-0.139601
-0.138047
-0.136588
-0.135225
-0.133957
-0.132787
-0.131713
-0.130736
-0.129856
-0.129074
-0.128389
-0.127802
-0.127312
-0.126921
-0.126627
-0.126431
-0.126333
-0.162908
-0.160594
-0.1583
-0.156013
-0.153758
-0.151564
-0.149443
-0.1474
-0.145439
-0.143561
-0.141766
-0.140057
-0.138433
-0.136896
-0.135446
-0.134083
-0.13281
-0.131625
-0.13053
-0.129525
-0.12861
-0.127786
-0.127053
-0.126411
-0.12586
-0.125401
-0.125034
-0.124758
-0.124574
-0.124483
-0.158095
-0.155972
-0.153867
-0.151767
-0.149694
-0.147673
-0.145717
-0.143831
-0.142017
-0.140279
-0.138616
-0.137031
-0.135523
-0.134095
-0.132746
-0.131478
-0.130292
-0.129188
-0.128167
-0.127229
-0.126375
-0.125606
-0.124921
-0.124321
-0.123806
-0.123377
-0.123033
-0.122775
-0.122604
-0.122518
-0.153238
-0.151304
-0.149384
-0.147467
-0.145571
-0.14372
-0.141925
-0.140192
-0.138523
-0.136921
-0.135387
-0.133923
-0.132529
-0.131207
-0.129957
-0.128782
-0.127681
-0.126656
-0.125707
-0.124835
-0.124041
-0.123324
-0.122686
-0.122128
-0.121648
-0.121248
-0.120927
-0.120687
-0.120527
-0.120447
-0.14835
-0.1466
-0.144862
-0.143124
-0.141401
-0.139716
-0.138078
-0.136494
-0.134967
-0.133498
-0.132089
-0.130743
-0.12946
-0.128241
-0.127089
-0.126003
-0.124986
-0.124037
-0.123159
-0.122351
-0.121615
-0.12095
-0.120358
-0.11984
-0.119394
-0.119022
-0.118725
-0.118501
-0.118352
-0.118278
-0.143444
-0.141875
-0.140313
-0.13875
-0.137195
-0.135671
-0.134187
-0.132748
-0.131358
-0.130018
-0.128732
-0.127501
-0.126325
-0.125208
-0.124149
-0.123151
-0.122215
-0.121341
-0.120531
-0.119786
-0.119106
-0.118492
-0.117945
-0.117465
-0.117053
-0.116708
-0.116433
-0.116226
-0.116088
-0.116019
-0.138531
-0.137138
-0.135749
-0.134355
-0.132964
-0.131597
-0.130261
-0.128963
-0.127706
-0.126493
-0.125325
-0.124205
-0.123134
-0.122114
-0.121147
-0.120234
-0.119376
-0.118575
-0.117832
-0.117147
-0.116522
-0.115957
-0.115453
-0.115011
-0.114631
-0.114314
-0.11406
-0.113869
-0.113741
-0.113678
-0.133625
-0.132403
-0.131181
-0.129951
-0.128719
-0.127503
-0.126311
-0.12515
-0.124022
-0.12293
-0.121877
-0.120865
-0.119895
-0.11897
-0.118091
-0.11726
-0.116479
-0.115748
-0.115069
-0.114443
-0.113871
-0.113353
-0.112891
-0.112486
-0.112137
-0.111846
-0.111613
-0.111437
-0.11132
-0.111262
-0.128738
-0.12768
-0.12662
-0.125548
-0.124469
-0.123399
-0.122346
-0.121317
-0.120313
-0.119339
-0.118397
-0.117488
-0.116617
-0.115783
-0.11499
-0.114238
-0.11353
-0.112867
-0.11225
-0.111681
-0.11116
-0.110688
-0.110267
-0.109897
-0.109579
-0.109313
-0.1091
-0.108939
-0.108832
-0.108779
-0.12388
-0.122981
-0.122076
-0.121156
-0.120224
-0.119295
-0.118376
-0.117473
-0.116589
-0.115728
-0.114892
-0.114084
-0.113307
-0.112561
-0.11185
-0.111175
-0.110538
-0.10994
-0.109383
-0.108868
-0.108397
-0.10797
-0.107588
-0.107252
-0.106963
-0.106721
-0.106527
-0.106381
-0.106284
-0.106235
-0.119062
-0.118316
-0.11756
-0.116786
-0.115995
-0.1152
-0.114409
-0.113628
-0.112859
-0.112106
-0.111372
-0.110661
-0.109973
-0.109312
-0.10868
-0.108078
-0.107509
-0.106974
-0.106475
-0.106012
-0.105588
-0.105204
-0.10486
-0.104557
-0.104296
-0.104077
-0.103902
-0.10377
-0.103682
-0.103638
-0.114296
-0.113696
-0.113081
-0.112446
-0.111789
-0.111123
-0.110454
-0.109788
-0.109129
-0.10848
-0.107844
-0.107224
-0.106623
-0.106043
-0.105486
-0.104955
-0.104451
-0.103976
-0.103532
-0.10312
-0.102742
-0.102398
-0.10209
-0.101818
-0.101584
-0.101388
-0.101231
-0.101112
-0.101033
-0.100993
-0.109591
-0.109129
-0.108649
-0.108145
-0.107616
-0.107071
-0.106519
-0.105963
-0.105408
-0.104858
-0.104315
-0.103783
-0.103264
-0.102761
-0.102276
-0.101812
-0.10137
-0.100953
-0.100561
-0.100197
-0.0998626
-0.0995579
-0.0992843
-0.099043
-0.0988346
-0.0986599
-0.0985195
-0.0984138
-0.0983431
-0.0983077
-0.104955
-0.104624
-0.104271
-0.103891
-0.103482
-0.103053
-0.102611
-0.102159
-0.101703
-0.101246
-0.100792
-0.100343
-0.0999017
-0.099472
-0.0990558
-0.0986554
-0.0982728
-0.0979101
-0.097569
-0.097251
-0.0969576
-0.09669
-0.0964494
-0.0962367
-0.0960529
-0.0958986
-0.0957745
-0.095681
-0.0956184
-0.0955871
-0.100397
-0.100188
-0.0999548
-0.0996921
-0.0993961
-0.0990756
-0.0987365
-0.0983834
-0.0980206
-0.0976519
-0.0972806
-0.0969101
-0.0965432
-0.0961829
-0.0958316
-0.0954916
-0.0951652
-0.0948544
-0.0945609
-0.0942863
-0.0940323
-0.0938
-0.0935907
-0.0934053
-0.0932448
-0.0931099
-0.0930013
-0.0929194
-0.0928646
-0.0928371
-0.095924
-0.0958299
-0.0957077
-0.0955539
-0.0953637
-0.0951446
-0.0949024
-0.0946416
-0.0943663
-0.0940805
-0.0937877
-0.0934912
-0.093194
-0.0928991
-0.092609
-0.0923261
-0.0920527
-0.0917909
-0.0915424
-0.091309
-0.0910922
-0.0908933
-0.0907136
-0.090554
-0.0904156
-0.0902991
-0.0902052
-0.0901343
-0.0900868
-0.090063
-0.0915423
-0.0915543
-0.0915355
-0.0914828
-0.0913908
-0.0912662
-0.0911142
-0.0909394
-0.090746
-0.0905378
-0.0903184
-0.0900912
-0.0898594
-0.0896259
-0.0893933
-0.0891641
-0.0889405
-0.0887248
-0.0885187
-0.088324
-0.0881423
-0.0879749
-0.0878231
-0.087688
-0.0875705
-0.0874713
-0.0873912
-0.0873307
-0.0872901
-0.0872697
-0.0872572
-0.0873671
-0.0874434
-0.087484
-0.0874827
-0.0874453
-0.087377
-0.0872821
-0.0871646
-0.0870286
-0.0868776
-0.0867152
-0.0865444
-0.0863682
-0.0861893
-0.0860104
-0.0858335
-0.085661
-0.0854947
-0.0853364
-0.0851876
-0.0850498
-0.0849242
-0.084812
-0.084714
-0.0846312
-0.0845641
-0.0845133
-0.0844793
-0.0844622
-0.0830733
-0.0832726
-0.0834359
-0.0835619
-0.0836438
-0.0836867
-0.0836954
-0.083674
-0.0836268
-0.0835575
-0.08347
-0.0833675
-0.0832534
-0.0831305
-0.0830017
-0.0828695
-0.0827362
-0.082604
-0.0824748
-0.0823504
-0.0822324
-0.0821222
-0.0820212
-0.0819304
-0.0818508
-0.0817832
-0.0817283
-0.0816867
-0.0816587
-0.0816447
-0.0789942
-0.0792746
-0.0795169
-0.0797204
-0.0798779
-0.0799941
-0.0800732
-0.0801193
-0.0801365
-0.0801286
-0.0800994
-0.0800523
-0.0799905
-0.0799169
-0.0798344
-0.0797455
-0.0796526
-0.0795578
-0.0794631
-0.0793702
-0.0792808
-0.0791964
-0.0791182
-0.0790474
-0.0789849
-0.0789315
-0.078888
-0.0788549
-0.0788326
-0.0788214
-0.0750227
-0.0753758
-0.0756891
-0.0759625
-0.0761884
-0.0763707
-0.0765137
-0.0766212
-0.0766971
-0.0767453
-0.0767695
-0.0767731
-0.0767593
-0.076731
-0.0766912
-0.0766422
-0.0765865
-0.0765262
-0.0764633
-0.0763996
-0.0763367
-0.0762761
-0.0762191
-0.0761668
-0.0761201
-0.0760799
-0.076047
-0.0760218
-0.0760048
-0.0759962
-0.0711607
-0.0715785
-0.071955
-0.0722906
-0.0725777
-0.0728195
-0.0730199
-0.0731827
-0.0733117
-0.0734108
-0.0734835
-0.0735332
-0.0735631
-0.0735762
-0.0735753
-0.0735629
-0.0735413
-0.0735127
-0.073479
-0.0734421
-0.0734036
-0.0733649
-0.0733274
-0.0732921
-0.07326
-0.073232
-0.0732088
-0.0731909
-0.0731788
-0.0731726
-0.0674093
-0.0678839
-0.068316
-0.0687066
-0.0690477
-0.0693423
-0.0695939
-0.0698062
-0.0699828
-0.0701275
-0.0702439
-0.0703352
-0.0704047
-0.0704553
-0.0704897
-0.0705105
-0.0705199
-0.0705202
-0.0705132
-0.0705008
-0.0704845
-0.0704659
-0.0704462
-0.0704265
-0.0704078
-0.070391
-0.0703767
-0.0703655
-0.0703578
-0.0703539
-0.0637691
-0.0642929
-0.0647733
-0.0652116
-0.0656
-0.0659409
-0.0662377
-0.0664936
-0.0667125
-0.0668978
-0.0670531
-0.0671817
-0.0672866
-0.0673709
-0.0674371
-0.0674877
-0.0675252
-0.0675515
-0.0675687
-0.0675784
-0.0675824
-0.067582
-0.0675784
-0.0675729
-0.0675664
-0.0675598
-0.0675536
-0.0675485
-0.0675449
-0.067543
-0.0602397
-0.0608054
-0.0613269
-0.0618062
-0.0622353
-0.0626163
-0.0629522
-0.0632463
-0.0635021
-0.0637231
-0.0639128
-0.0640743
-0.0642107
-0.0643249
-0.0644194
-0.0644968
-0.0645593
-0.064609
-0.0646479
-0.0646775
-0.0646996
-0.0647156
-0.0647267
-0.064734
-0.0647385
-0.064741
-0.0647422
-0.0647426
-0.0647427
-0.0647426
-0.0568205
-0.0574211
-0.0579771
-0.0584907
-0.0589542
-0.0593692
-0.0597386
-0.0600654
-0.0603532
-0.0606051
-0.0608247
-0.061015
-0.0611789
-0.0613194
-0.0614389
-0.0615398
-0.0616245
-0.0616949
-0.061753
-0.0618004
-0.0618387
-0.0618693
-0.0618934
-0.0619121
-0.0619265
-0.0619372
-0.0619449
-0.0619503
-0.0619537
-0.0619553
-0.0535101
-0.0541388
-0.0547228
-0.0552645
-0.0557563
-0.0561995
-0.0565969
-0.0569514
-0.0572661
-0.0575445
-0.0577896
-0.0580046
-0.0581923
-0.0583555
-0.0584967
-0.0586182
-0.0587222
-0.0588108
-0.0588857
-0.0589487
-0.0590012
-0.0590447
-0.0590803
-0.0591092
-0.0591322
-0.0591502
-0.0591638
-0.0591735
-0.0591798
-0.0591829
-0.0503069
-0.0509575
-0.0515633
-0.0521271
-0.0526415
-0.0531075
-0.0535276
-0.0539047
-0.0542418
-0.0545421
-0.0548086
-0.0550444
-0.0552522
-0.0554347
-0.0555944
-0.0557335
-0.0558542
-0.0559584
-0.0560479
-0.0561243
-0.0561892
-0.0562439
-0.0562896
-0.0563273
-0.0563579
-0.0563822
-0.0564009
-0.0564145
-0.0564233
-0.0564277
-0.0472084
-0.0478749
-0.0484968
-0.0490771
-0.0496086
-0.0500921
-0.05053
-0.0509249
-0.0512798
-0.0515978
-0.0518817
-0.0521345
-0.0523589
-0.0525575
-0.0527326
-0.0528864
-0.0530211
-0.0531385
-0.0532403
-0.0533283
-0.0534037
-0.053468
-0.0535222
-0.0535675
-0.0536046
-0.0536344
-0.0536575
-0.0536744
-0.0536855
-0.0536909
-0.0442126
-0.0448895
-0.045522
-0.0461135
-0.0466568
-0.0471529
-0.0476038
-0.0480121
-0.0483805
-0.0487121
-0.0490096
-0.0492758
-0.0495134
-0.0497248
-0.0499124
-0.0500782
-0.0502244
-0.0503526
-0.0504647
-0.0505621
-0.0506463
-0.0507186
-0.05078
-0.0508317
-0.0508743
-0.0509087
-0.0509355
-0.0509552
-0.0509681
-0.0509745
-0.0413164
-0.0419984
-0.0426364
-0.0432339
-0.0437843
-0.0442881
-0.0447475
-0.0451648
-0.0455426
-0.0458839
-0.0461913
-0.0464675
-0.0467151
-0.0469363
-0.0471335
-0.0473087
-0.0474638
-0.0476007
-0.0477209
-0.047826
-0.0479173
-0.047996
-0.0480633
-0.0481201
-0.0481673
-0.0482055
-0.0482353
-0.0482573
-0.0482718
-0.048279
-0.0385173
-0.0391996
-0.0398383
-0.0404373
-0.04099
-0.0414972
-0.0419608
-0.042383
-0.0427664
-0.0431137
-0.0434275
-0.0437104
-0.0439648
-0.0441929
-0.044397
-0.044579
-0.0447408
-0.0448841
-0.0450105
-0.0451214
-0.0452182
-0.045302
-0.0453738
-0.0454347
-0.0454854
-0.0455266
-0.0455588
-0.0455827
-0.0455983
-0.0456061
-0.0358119
-0.0364896
-0.0371245
-0.0377203
-0.0382711
-0.0387774
-0.039241
-0.0396643
-0.0400495
-0.0403993
-0.0407162
-0.0410026
-0.0412608
-0.0414931
-0.0417015
-0.0418879
-0.0420542
-0.0422019
-0.0423325
-0.0424476
-0.0425482
-0.0426356
-0.0427108
-0.0427747
-0.042828
-0.0428714
-0.0429055
-0.0429307
-0.0429473
-0.0429555
-0.0331975
-0.0338667
-0.0344936
-0.0350821
-0.0356268
-0.0361283
-0.0365883
-0.0370088
-0.0373924
-0.0377413
-0.0380581
-0.038345
-0.0386043
-0.0388381
-0.0390484
-0.0392369
-0.0394054
-0.0395556
-0.0396887
-0.0398062
-0.0399093
-0.039999
-0.0400763
-0.0401422
-0.0401972
-0.0402421
-0.0402774
-0.0403036
-0.0403208
-0.0403293
-0.0306703
-0.0313266
-0.0319413
-0.0325185
-0.0330532
-0.0335459
-0.0339985
-0.0344129
-0.0347914
-0.0351363
-0.03545
-0.0357346
-0.0359923
-0.0362251
-0.0364348
-0.0366232
-0.0367921
-0.0369427
-0.0370766
-0.037195
-0.0372991
-0.0373899
-0.0374683
-0.0375351
-0.0375911
-0.0376368
-0.0376728
-0.0376994
-0.037717
-0.0377258
-0.0282281
-0.0288679
-0.0294669
-0.0300292
-0.0305502
-0.0310308
-0.0314726
-0.0318776
-0.0322479
-0.0325858
-0.0328935
-0.0331731
-0.0334267
-0.033656
-0.033863
-0.0340494
-0.0342165
-0.034366
-0.034499
-0.0346169
-0.0347206
-0.0348112
-0.0348896
-0.0349565
-0.0350126
-0.0350585
-0.0350947
-0.0351214
-0.0351391
-0.0351479
-0.0258664
-0.0264855
-0.0270648
-0.0276083
-0.0281121
-0.028577
-0.0290047
-0.029397
-0.0297562
-0.0300842
-0.0303832
-0.0306553
-0.0309023
-0.031126
-0.0313282
-0.0315104
-0.0316742
-0.0318207
-0.0319514
-0.0320673
-0.0321694
-0.0322588
-0.0323361
-0.0324023
-0.0324578
-0.0325032
-0.032539
-0.0325655
-0.0325831
-0.0325919
-0.0235835
-0.0241791
-0.0247356
-0.0252573
-0.0257407
-0.0261868
-0.0265974
-0.0269742
-0.0273193
-0.0276348
-0.0279227
-0.0281848
-0.028423
-0.0286391
-0.0288345
-0.0290108
-0.0291694
-0.0293115
-0.0294384
-0.029551
-0.0296504
-0.0297374
-0.0298128
-0.0298773
-0.0299315
-0.0299759
-0.030011
-0.0300369
-0.0300541
-0.0300626
-0.0213742
-0.0219419
-0.0224717
-0.0229678
-0.0234273
-0.0238514
-0.0242417
-0.0246001
-0.0249285
-0.0252289
-0.0255032
-0.0257531
-0.0259804
-0.0261868
-0.0263735
-0.0265422
-0.0266941
-0.0268303
-0.026952
-0.0270602
-0.0271557
-0.0272394
-0.0273121
-0.0273742
-0.0274265
-0.0274693
-0.0275031
-0.0275282
-0.0275448
-0.0275531
-0.0192379
-0.0197755
-0.0202761
-0.020744
-0.0211769
-0.0215762
-0.0219437
-0.0222811
-0.0225904
-0.0228734
-0.0231319
-0.0233676
-0.0235821
-0.0237769
-0.0239534
-0.0241128
-0.0242565
-0.0243855
-0.0245009
-0.0246034
-0.0246941
-0.0247736
-0.0248426
-0.0249017
-0.0249515
-0.0249922
-0.0250244
-0.0250483
-0.0250641
-0.0250719
-0.0171677
-0.0176702
-0.0181371
-0.018573
-0.0189759
-0.0193473
-0.0196891
-0.020003
-0.0202907
-0.020554
-0.0207946
-0.021014
-0.0212138
-0.0213954
-0.0215599
-0.0217088
-0.0218429
-0.0219634
-0.0220712
-0.0221672
-0.022252
-0.0223265
-0.0223912
-0.0224466
-0.0224932
-0.0225315
-0.0225618
-0.0225842
-0.0225991
-0.0226066
-0.0151648
-0.0156309
-0.0160626
-0.0164643
-0.0168351
-0.0171764
-0.0174903
-0.0177784
-0.0180425
-0.0182841
-0.018505
-0.0187065
-0.01889
-0.0190568
-0.0192081
-0.0193449
-0.0194683
-0.0195793
-0.0196785
-0.0197669
-0.0198452
-0.0199138
-0.0199735
-0.0200247
-0.0200678
-0.0201031
-0.020131
-0.0201518
-0.0201655
-0.0201721
-0.0132192
-0.0136426
-0.0140339
-0.0143973
-0.0147323
-0.0150405
-0.0153238
-0.0155838
-0.0158221
-0.0160401
-0.0162394
-0.0164212
-0.0165869
-0.0167375
-0.0168741
-0.0169977
-0.0171093
-0.0172096
-0.0172994
-0.0173794
-0.0174502
-0.0175124
-0.0175665
-0.0176128
-0.0176519
-0.017684
-0.0177093
-0.0177281
-0.0177406
-0.0177471
-0.0113353
-0.0117165
-0.0120669
-0.012391
-0.0126888
-0.0129623
-0.0132134
-0.0134435
-0.0136544
-0.0138473
-0.0140236
-0.0141844
-0.0143309
-0.0144641
-0.014585
-0.0146945
-0.0147932
-0.014882
-0.0149616
-0.0150325
-0.0150953
-0.0151504
-0.0151984
-0.0152395
-0.0152742
-0.0153027
-0.0153252
-0.0153419
-0.0153529
-0.0153581
-0.00949689
-0.00982745
-0.0101307
-0.0104107
-0.0106677
-0.0109034
-0.0111197
-0.0113179
-0.0114994
-0.0116654
-0.0118171
-0.0119555
-0.0120816
-0.0121963
-0.0123004
-0.0123946
-0.0124796
-0.0125561
-0.0126247
-0.0126858
-0.0127399
-0.0127875
-0.0128288
-0.0128643
-0.0128942
-0.0129188
-0.0129382
-0.0129527
-0.0129624
-0.0129676
-0.00771478
-0.00799829
-0.00825608
-0.00849253
-0.00870841
-0.00890575
-0.00908633
-0.00925158
-0.00940273
-0.00954091
-0.0096671
-0.00978221
-0.00988707
-0.00998243
-0.010069
-0.0101473
-0.0102181
-0.0102817
-0.0103388
-0.0103896
-0.0104347
-0.0104743
-0.0105087
-0.0105383
-0.0105632
-0.0105836
-0.0105998
-0.0106118
-0.0106197
-0.0106231
-0.00596073
-0.00618562
-0.00638996
-0.00657723
-0.00674792
-0.00690375
-0.00704622
-0.00717649
-0.00729559
-0.00740442
-0.00750378
-0.0075944
-0.00767694
-0.007752
-0.00782012
-0.0078818
-0.0079375
-0.00798762
-0.00803254
-0.00807259
-0.00810808
-0.00813927
-0.00816641
-0.00818971
-0.00820935
-0.00822548
-0.00823823
-0.00824773
-0.00825419
-0.00825819
-0.00425857
-0.00443341
-0.00458976
-0.00473102
-0.00485813
-0.00497308
-0.00507754
-0.00517268
-0.00525945
-0.00533862
-0.00541086
-0.00547671
-0.00553667
-0.0055912
-0.00564068
-0.00568548
-0.00572594
-0.00576234
-0.00579496
-0.00582405
-0.00584982
-0.00587248
-0.00589219
-0.00590911
-0.00592337
-0.00593506
-0.00594429
-0.00595111
-0.00595544
-0.00595663
-0.00255484
-0.00266317
-0.00276066
-0.00284839
-0.00292661
-0.00299699
-0.00306074
-0.00311868
-0.00317142
-0.0032195
-0.00326334
-0.00330328
-0.00333965
-0.00337271
-0.00340271
-0.00342987
-0.0034544
-0.00347646
-0.00349624
-0.00351387
-0.0035295
-0.00354323
-0.00355518
-0.00356543
-0.00357407
-0.00358117
-0.00358675
-0.00359086
-0.00359383
-0.0035966
-0.000896985
-0.000953426
-0.00100181
-0.00104159
-0.00107419
-0.00110191
-0.00112606
-0.00114745
-0.00116666
-0.00118404
-0.00119985
-0.00121425
-0.00122735
-0.00123926
-0.00125006
-0.00125983
-0.00126865
-0.00127657
-0.00128367
-0.00128999
-0.00129558
-0.00130049
-0.00130476
-0.00130842
-0.0013115
-0.00131402
-0.00131601
-0.00131736
-0.00131763
-0.00131585
-0.242332
-0.241491
-0.240338
-0.238895
-0.237166
-0.235161
-0.232883
-0.230243
-0.227651
-0.224892
-0.221927
-0.21876
-0.215399
-0.211858
-0.208149
-0.204282
-0.200266
-0.196108
-0.191818
-0.187405
-0.182881
-0.178254
-0.173538
-0.168742
-0.163879
-0.158962
-0.154003
-0.149015
-0.14401
-0.139002
-0.134002
-0.129023
-0.124078
-0.119176
-0.11433
-0.109548
-0.10484
-0.100214
-0.0956787
-0.0912389
-0.0869007
-0.0826687
-0.0785464
-0.0745367
-0.0706414
-0.0668616
-0.0631975
-0.0596488
-0.0562147
-0.0528934
-0.0496832
-0.0465815
-0.0435859
-0.0406933
-0.0379009
-0.0352051
-0.032603
-0.0300909
-0.0276661
-0.0253244
-0.0230636
-0.0208794
-0.0187696
-0.0167299
-0.0147578
-0.0128488
-0.0109997
-0.00920508
-0.00746115
-0.00575881
-0.00409695
-0.00245366
-0.000839914
-0.246615
-0.24579
-0.244645
-0.243212
-0.241506
-0.239535
-0.237244
-0.234577
-0.232052
-0.229325
-0.226377
-0.223235
-0.219908
-0.216403
-0.212731
-0.208901
-0.20492
-0.200796
-0.196537
-0.192151
-0.187647
-0.183036
-0.178328
-0.173533
-0.168664
-0.163731
-0.158748
-0.153727
-0.148681
-0.143622
-0.138563
-0.133517
-0.128496
-0.123512
-0.118576
-0.113699
-0.10889
-0.104159
-0.0995146
-0.0949632
-0.0905113
-0.0861643
-0.0819268
-0.0778021
-0.0737928
-0.0699006
-0.0661263
-0.0624702
-0.0589316
-0.0555095
-0.052202
-0.0490072
-0.0459225
-0.0429452
-0.040072
-0.0373
-0.0346257
-0.032046
-0.0295573
-0.0271564
-0.0248399
-0.0226046
-0.0204476
-0.0183647
-0.0163548
-0.014411
-0.0125355
-0.010716
-0.00895988
-0.0072461
-0.00558911
-0.00395618
-0.00236722
-0.000782471
-0.249405
-0.248288
-0.246888
-0.245224
-0.243291
-0.241055
-0.238561
-0.236035
-0.233393
-0.230522
-0.22744
-0.224175
-0.220736
-0.217125
-0.213352
-0.209425
-0.205352
-0.201139
-0.196794
-0.192326
-0.187743
-0.183056
-0.178275
-0.17341
-0.168474
-0.163478
-0.158434
-0.153355
-0.148255
-0.143145
-0.138039
-0.13295
-0.127889
-0.122869
-0.117901
-0.112995
-0.108162
-0.10341
-0.0987477
-0.0941825
-0.0897204
-0.0853667
-0.0811255
-0.0770002
-0.0729933
-0.0691061
-0.0653394
-0.0616931
-0.0581665
-0.0547583
-0.0514666
-0.0482891
-0.0452231
-0.0422658
-0.0394138
-0.036664
-0.0340129
-0.0314572
-0.0289933
-0.026618
-0.0243281
-0.0221196
-0.0199912
-0.0179366
-0.0159579
-0.0140438
-0.0122032
-0.0104144
-0.00869897
-0.00701573
-0.00540793
-0.00380283
-0.00227585
-0.000716287
-0.25188
-0.250526
-0.248921
-0.24707
-0.244973
-0.242643
-0.239959
-0.237357
-0.234574
-0.231561
-0.228355
-0.224979
-0.221436
-0.217731
-0.213869
-0.209858
-0.205705
-0.201415
-0.196997
-0.192459
-0.187808
-0.183056
-0.178212
-0.173288
-0.168293
-0.163242
-0.158145
-0.153016
-0.147868
-0.142713
-0.137565
-0.132436
-0.127339
-0.122285
-0.117287
-0.112354
-0.107497
-0.102725
-0.0980456
-0.0934663
-0.0889932
-0.0846315
-0.0803852
-0.0762577
-0.0722511
-0.0683668
-0.0646053
-0.0609664
-0.0574493
-0.0540524
-0.0507737
-0.0476108
-0.0445608
-0.0416208
-0.0387873
-0.036057
-0.0334265
-0.0308921
-0.0284507
-0.0260983
-0.0238326
-0.0216487
-0.0195465
-0.017518
-0.0155683
-0.0136818
-0.0118743
-0.0101143
-0.00843841
-0.00678376
-0.00522554
-0.0036454
-0.00218411
-0.000643738
-0.2539
-0.252337
-0.250544
-0.248519
-0.246224
-0.243573
-0.241069
-0.238369
-0.235449
-0.232325
-0.229024
-0.225558
-0.221932
-0.218148
-0.214211
-0.21013
-0.205909
-0.201554
-0.197074
-0.192476
-0.187768
-0.18296
-0.178063
-0.173087
-0.168043
-0.162944
-0.157802
-0.15263
-0.147441
-0.142247
-0.137063
-0.131901
-0.126772
-0.121691
-0.116667
-0.111711
-0.106834
-0.102045
-0.0973513
-0.0927606
-0.0882788
-0.083911
-0.0796612
-0.0755327
-0.0715274
-0.0676467
-0.0638909
-0.0602596
-0.0567519
-0.0533662
-0.0501001
-0.0469513
-0.0439166
-0.040993
-0.0381771
-0.0354653
-0.0328542
-0.03034
-0.0279196
-0.0255889
-0.023346
-0.0211853
-0.0191077
-0.017104
-0.0151816
-0.0133214
-0.0115454
-0.00981285
-0.00817543
-0.00654774
-0.00503952
-0.00348165
-0.00208962
-0.000562796
-0.256951
-0.255449
-0.253718
-0.251768
-0.249569
-0.2471
-0.244601
-0.241944
-0.239098
-0.236064
-0.232851
-0.22947
-0.22593
-0.222233
-0.218384
-0.214385
-0.210245
-0.205967
-0.201559
-0.197027
-0.192378
-0.187623
-0.182769
-0.177827
-0.172807
-0.167722
-0.162584
-0.157404
-0.152196
-0.146972
-0.141747
-0.136532
-0.131342
-0.126187
-0.121082
-0.116037
-0.111063
-0.106169
-0.101366
-0.0966613
-0.0920616
-0.0875733
-0.0832012
-0.0789496
-0.0748213
-0.0708183
-0.0669419
-0.0631923
-0.059569
-0.0560708
-0.052696
-0.0494423
-0.0463071
-0.0432872
-0.0403794
-0.0375802
-0.034886
-0.0322933
-0.0297982
-0.0273977
-0.0250876
-0.022866
-0.0207272
-0.0186729
-0.0166926
-0.014796
-0.0129608
-0.0112148
-0.00950847
-0.00790829
-0.00630619
-0.00484817
-0.00331007
-0.00199109
-0.000472389
-0.258223
-0.256566
-0.254705
-0.252647
-0.25036
-0.247818
-0.245224
-0.242474
-0.23954
-0.236429
-0.233147
-0.229704
-0.226104
-0.222351
-0.218449
-0.2144
-0.210212
-0.205889
-0.201437
-0.196862
-0.192174
-0.187379
-0.182488
-0.17751
-0.172456
-0.167337
-0.162167
-0.156957
-0.15172
-0.146469
-0.141217
-0.135979
-0.130766
-0.125591
-0.120467
-0.115405
-0.110417
-0.105511
-0.100697
-0.0959838
-0.0913778
-0.086885
-0.0825106
-0.0782585
-0.0741316
-0.0701318
-0.0662602
-0.062517
-0.0589016
-0.0554128
-0.0520486
-0.0488067
-0.0456843
-0.0426783
-0.0397853
-0.0370017
-0.0343239
-0.0317482
-0.0292709
-0.0268889
-0.0245977
-0.022396
-0.0202776
-0.0182448
-0.0162863
-0.0144136
-0.012602
-0.010884
-0.00920252
-0.00763776
-0.00605991
-0.00465156
-0.00313079
-0.00188852
-0.000372032
-0.25908
-0.257305
-0.255339
-0.253165
-0.250736
-0.24825
-0.245593
-0.24276
-0.239753
-0.23658
-0.233243
-0.229749
-0.226102
-0.222304
-0.218359
-0.214271
-0.210044
-0.205684
-0.201197
-0.19659
-0.19187
-0.187045
-0.182124
-0.177118
-0.172037
-0.166893
-0.161698
-0.156464
-0.151205
-0.145934
-0.140663
-0.135406
-0.130177
-0.124987
-0.11985
-0.114776
-0.109777
-0.104862
-0.100042
-0.095323
-0.0907132
-0.0862184
-0.0818435
-0.0775925
-0.0734682
-0.0694725
-0.0656064
-0.0618699
-0.0582625
-0.0547827
-0.0514287
-0.048198
-0.0450877
-0.0420945
-0.0392151
-0.0364459
-0.0337831
-0.0312231
-0.028762
-0.0263967
-0.024123
-0.0219393
-0.0198395
-0.0178263
-0.0158879
-0.014037
-0.0122473
-0.0105548
-0.00889686
-0.00736509
-0.00581023
-0.00445015
-0.0029445
-0.00178208
-0.000261201
-0.259593
-0.25773
-0.255693
-0.253464
-0.251035
-0.248458
-0.245724
-0.242828
-0.239768
-0.236547
-0.233167
-0.229634
-0.225948
-0.222115
-0.218136
-0.214016
-0.20976
-0.205371
-0.200857
-0.196224