/*--------------------------------*- C++ -*----------------------------------*\
  =========                 |
  \\      /  F ield         | OpenFOAM: The Open Source CFD Toolbox
   \\    /   O peration     | Website:  https://openfoam.org
    \\  /    A nd           | Version:  7
     \\/     M anipulation  |
\*---------------------------------------------------------------------------*/
FoamFile
{
    version     2.0;
    format      ascii;
    class       volScalarField;
    location    "25";
    object      p;
}
// * * * * * * * * * * * * * * * * * * * * * * * * * * * * * * * * * * * * * //

dimensions      [0 2 -2 0 0 0 0];

internalField   nonuniform List<scalar> 
12150
(
-0.28892
-0.293349
-0.295123
-0.295518
-0.294954
-0.293507
-0.291291
-0.28842
-0.284995
-0.28111
-0.276856
-0.272332
-0.267618
-0.262741
-0.257937
-0.29015
-0.2944
-0.296051
-0.296342
-0.295681
-0.294146
-0.291848
-0.288901
-0.285402
-0.281444
-0.277118
-0.272526
-0.267755
-0.262791
-0.257808
-0.292597
-0.29649
-0.297896
-0.297977
-0.297124
-0.295413
-0.292953
-0.289853
-0.286207
-0.282105
-0.277635
-0.272906
-0.268025
-0.262894
-0.257362
-0.29623
-0.299595
-0.300636
-0.300405
-0.299264
-0.29729
-0.294588
-0.29126
-0.287395
-0.283076
-0.278392
-0.273458
-0.268389
-0.262999
-0.257404
-0.301008
-0.303679
-0.304239
-0.303596
-0.302074
-0.299752
-0.296729
-0.293098
-0.288942
-0.284337
-0.279367
-0.274163
-0.268829
-0.263055
-0.25733
-0.30688
-0.3087
-0.308667
-0.307513
-0.305518
-0.302765
-0.299345
-0.29534
-0.290824
-0.285864
-0.28054
-0.274994
-0.26933
-0.263077
-0.257031
-0.313786
-0.314607
-0.313873
-0.312115
-0.309561
-0.306296
-0.302406
-0.29796
-0.293018
-0.287639
-0.281893
-0.275933
-0.269869
-0.263039
-0.256498
-0.321665
-0.321348
-0.319809
-0.317357
-0.31416
-0.31031
-0.305881
-0.30093
-0.295505
-0.289647
-0.283416
-0.276974
-0.270438
-0.262921
-0.255697
-0.330449
-0.328857
-0.326427
-0.323197
-0.319278
-0.314772
-0.309742
-0.304231
-0.29827
-0.291885
-0.285115
-0.278126
-0.271043
-0.262721
-0.254585
-0.340067
-0.337086
-0.333671
-0.329584
-0.324875
-0.31965
-0.313965
-0.307846
-0.301309
-0.294357
-0.287006
-0.279416
-0.271713
-0.262459
-0.253113
-0.350451
-0.345971
-0.34149
-0.336476
-0.330914
-0.324917
-0.318531
-0.311768
-0.304625
-0.297082
-0.289126
-0.280897
-0.272517
-0.262211
-0.251303
-0.36153
-0.35545
-0.349833
-0.343839
-0.337363
-0.330547
-0.323426
-0.315993
-0.308228
-0.300087
-0.291522
-0.282645
-0.273558
-0.262108
-0.249219
-0.373229
-0.365459
-0.358646
-0.351613
-0.344188
-0.33652
-0.328638
-0.320521
-0.312132
-0.303405
-0.294252
-0.28474
-0.274894
-0.262058
-0.246623
-0.385468
-0.375932
-0.367872
-0.359764
-0.351357
-0.342814
-0.334156
-0.325354
-0.316359
-0.307087
-0.297427
-0.287374
-0.276662
-0.261789
-0.24266
-0.398158
-0.386794
-0.377451
-0.368244
-0.358834
-0.349401
-0.339964
-0.330486
-0.320919
-0.311194
-0.30124
-0.291035
-0.279994
-0.264483
-0.245657
-0.411203
-0.397963
-0.387317
-0.376996
-0.366575
-0.356246
-0.346027
-0.335878
-0.325763
-0.315664
-0.305622
-0.295756
-0.28598
-0.277975
-0.283429
-0.424487
-0.409345
-0.397388
-0.385956
-0.374524
-0.363298
-0.35229
-0.341455
-0.330765
-0.320233
-0.309967
-0.300149
-0.290851
-0.284699
-0.291887
-0.437883
-0.420829
-0.407572
-0.395042
-0.38261
-0.370489
-0.35868
-0.347127
-0.3358
-0.324718
-0.314
-0.303822
-0.294292
-0.287731
-0.291194
-0.451238
-0.432285
-0.417755
-0.404156
-0.390743
-0.377731
-0.365104
-0.352788
-0.340739
-0.328967
-0.317566
-0.306672
-0.296375
-0.288505
-0.287488
-0.464375
-0.443561
-0.427801
-0.413173
-0.398805
-0.384907
-0.371437
-0.358297
-0.345425
-0.332807
-0.320497
-0.308572
-0.297076
-0.287358
-0.281977
-0.477088
-0.454477
-0.437548
-0.421941
-0.406649
-0.391865
-0.37752
-0.363485
-0.349674
-0.336049
-0.322624
-0.309422
-0.296447
-0.284656
-0.275375
-0.48914
-0.464822
-0.446804
-0.430279
-0.414095
-0.398422
-0.383159
-0.368146
-0.353277
-0.338493
-0.323781
-0.309132
-0.294537
-0.280667
-0.268088
-0.50026
-0.474358
-0.455344
-0.437969
-0.420927
-0.404358
-0.388126
-0.372048
-0.356004
-0.339928
-0.323798
-0.307606
-0.291358
-0.275533
-0.260266
-0.510143
-0.482812
-0.462914
-0.444764
-0.426897
-0.409419
-0.392165
-0.374934
-0.357609
-0.340133
-0.322502
-0.304736
-0.286882
-0.269293
-0.251911
-0.518457
-0.489888
-0.469231
-0.450385
-0.431726
-0.413324
-0.394992
-0.376528
-0.357832
-0.338883
-0.319716
-0.300403
-0.281049
-0.261928
-0.242936
-0.524846
-0.49526
-0.473986
-0.454528
-0.435109
-0.415768
-0.396307
-0.376542
-0.356414
-0.335956
-0.315266
-0.294483
-0.273778
-0.253372
-0.233213
-0.528932
-0.498587
-0.476848
-0.456866
-0.436722
-0.416429
-0.395799
-0.374687
-0.353097
-0.331137
-0.308985
-0.286855
-0.264981
-0.243544
-0.222596
-0.530332
-0.499514
-0.477475
-0.457061
-0.436229
-0.41498
-0.393159
-0.370681
-0.347638
-0.32423
-0.300721
-0.277406
-0.254569
-0.232355
-0.210945
-0.52866
-0.497684
-0.475518
-0.454767
-0.433293
-0.411099
-0.388086
-0.36426
-0.339816
-0.315058
-0.290343
-0.266037
-0.242463
-0.219724
-0.198128
-0.523543
-0.492743
-0.470632
-0.449646
-0.427585
-0.404476
-0.380304
-0.355186
-0.329438
-0.303477
-0.277745
-0.252671
-0.2286
-0.205581
-0.184046
-0.514628
-0.484358
-0.462487
-0.441375
-0.418796
-0.394829
-0.369565
-0.343256
-0.316351
-0.289376
-0.262853
-0.237258
-0.212939
-0.189881
-0.168623
-0.501596
-0.472219
-0.450781
-0.429659
-0.406651
-0.38191
-0.355663
-0.328312
-0.300442
-0.272684
-0.245626
-0.219773
-0.195462
-0.172605
-0.151817
-0.484174
-0.456058
-0.435247
-0.414241
-0.390914
-0.36552
-0.338442
-0.310244
-0.281644
-0.253371
-0.226058
-0.200223
-0.17618
-0.153765
-0.133616
-0.462144
-0.435654
-0.415665
-0.394915
-0.371405
-0.345516
-0.317801
-0.288995
-0.259944
-0.231451
-0.204181
-0.178641
-0.155121
-0.133375
-0.113953
-0.435352
-0.410846
-0.391875
-0.371533
-0.348003
-0.321813
-0.293702
-0.264569
-0.235376
-0.206985
-0.180066
-0.1551
-0.132344
-0.111418
-0.092517
-0.403721
-0.381542
-0.363784
-0.344015
-0.320656
-0.294396
-0.266167
-0.237025
-0.20803
-0.180081
-0.153835
-0.129736
-0.107995
-0.0880122
-0.0691492
-0.367252
-0.347723
-0.331371
-0.312355
-0.289383
-0.263319
-0.235283
-0.206479
-0.178042
-0.150889
-0.12565
-0.102722
-0.0822439
-0.0634568
-0.0461011
-0.326034
-0.309454
-0.294697
-0.276626
-0.25428
-0.228706
-0.201203
-0.1731
-0.145591
-0.119589
-0.095685
-0.0742267
-0.0552437
-0.0378253
-0.0223056
-0.280245
-0.266883
-0.253905
-0.23698
-0.21552
-0.19075
-0.164132
-0.137107
-0.110895
-0.0863948
-0.0641447
-0.0444346
-0.0272048
-0.0114294
0.0023272
-0.230154
-0.220244
-0.209221
-0.193654
-0.173349
-0.149711
-0.124332
-0.0987574
-0.0742113
-0.0515467
-0.0312507
-0.0135544
0.00167159
0.0155585
0.0275299
-0.176127
-0.16985
-0.160957
-0.146964
-0.12807
-0.105886
-0.0821285
-0.0583638
-0.0358193
-0.0153024
0.00276061
0.0181947
0.0311812
0.0429354
0.0529814
-0.118596
-0.116104
-0.109497
-0.0972561
-0.0800891
-0.0596873
-0.037876
-0.0162555
0.00397528
0.0220645
0.0376445
0.0505929
0.0611229
0.0704599
0.07828
-0.0579532
-0.0595853
-0.0553058
-0.0450267
-0.0298388
-0.0115212
0.00802803
0.0272026
0.0448485
0.0602719
0.0731566
0.083426
0.0912807
0.0977546
0.102762
0.00496664
-0.000684131
0.00108627
0.00921544
0.0221855
0.0381414
0.0551485
0.0716213
0.0864648
0.0990443
0.109088
0.116555
0.121523
0.1244
0.125456
0.0696119
0.0599163
0.0590831
0.0649033
0.0754397
0.0887909
0.10302
0.116587
0.128473
0.138113
0.145294
0.150036
0.152177
0.151034
0.147286
0.135287
0.121543
0.118047
0.121425
0.129343
0.139886
0.151145
0.161652
0.170479
0.177152
0.181562
0.183854
0.183686
0.179497
0.176818
0.201238
0.183495
0.177305
0.178136
0.183288
0.190862
0.199005
0.206336
0.212032
0.215718
0.217381
0.217248
0.215073
0.209987
0.208334
0.266691
0.245043
0.236157
0.234371
0.236652
0.241144
0.24607
0.250152
0.252672
0.253349
0.252241
0.249601
0.245266
0.238883
0.236253
0.330862
0.305444
0.293893
0.289459
0.28881
0.290158
0.29182
0.292626
0.291963
0.289637
0.285759
0.280592
0.274044
0.266026
0.261562
0.392969
0.363956
0.349804
0.342733
0.339147
0.337343
0.335748
0.333303
0.329499
0.324215
0.317604
0.309937
0.301176
0.291381
0.284822
0.452248
0.419849
0.403196
0.393542
0.387063
0.382158
0.377372
0.371757
0.364899
0.356748
0.347487
0.337387
0.326459
0.314853
0.306144
0.507963
0.472421
0.453398
0.44126
0.431987
0.424092
0.416236
0.407585
0.397815
0.386934
0.37515
0.362733
0.349735
0.336359
0.325544
0.559418
0.521004
0.499777
0.485298
0.473384
0.462663
0.451919
0.440421
0.427927
0.414498
0.400362
0.385787
0.370858
0.35581
0.342994
0.605965
0.564978
0.541744
0.52511
0.510759
0.497434
0.484034
0.469926
0.454945
0.439193
0.422914
0.406375
0.389691
0.37311
0.358448
0.647018
0.603781
0.578767
0.560203
0.543665
0.528007
0.512234
0.495801
0.478608
0.460795
0.442618
0.42434
0.406106
0.38816
0.371845
0.682058
0.636912
0.610372
0.59014
0.57171
0.554036
0.536215
0.517781
0.498688
0.479109
0.459307
0.439542
0.419984
0.400867
0.383124
0.71064
0.663947
0.636155
0.614549
0.594559
0.575223
0.555718
0.535642
0.514993
0.493968
0.472836
0.451858
0.431221
0.411145
0.392227
0.7324
0.684534
0.655787
0.633127
0.611939
0.591327
0.570533
0.5492
0.527362
0.505234
0.48309
0.461187
0.439729
0.418921
0.399104
0.747063
0.698409
0.669017
0.645642
0.623642
0.602167
0.580499
0.558317
0.535677
0.512804
0.489976
0.467451
0.44544
0.424139
0.403711
0.754442
0.705391
0.675674
0.651939
0.629528
0.607618
0.58551
0.5629
0.539854
0.516607
0.493435
0.470596
0.448307
0.426757
0.406023
0.754442
0.705391
0.675674
0.651939
0.629528
0.607618
0.58551
0.5629
0.539854
0.516607
0.493435
0.470596
0.448307
0.426757
0.406023
0.747063
0.698409
0.669017
0.645642
0.623642
0.602167
0.580499
0.558317
0.535677
0.512804
0.489976
0.467451
0.44544
0.424139
0.403711
0.7324
0.684534
0.655787
0.633127
0.611939
0.591327
0.570533
0.5492
0.527362
0.505234
0.48309
0.461187
0.439729
0.418921
0.399104
0.71064
0.663947
0.636155
0.614549
0.594559
0.575223
0.555718
0.535642
0.514993
0.493968
0.472836
0.451858
0.431221
0.411145
0.392227
0.682058
0.636912
0.610372
0.59014
0.57171
0.554036
0.536215
0.517781
0.498688
0.479109
0.459307
0.439542
0.419984
0.400867
0.383124
0.647018
0.603781
0.578767
0.560203
0.543665
0.528007
0.512234
0.495801
0.478608
0.460795
0.442618
0.42434
0.406106
0.38816
0.371845
0.605965
0.564978
0.541744
0.52511
0.510759
0.497434
0.484034
0.469926
0.454945
0.439193
0.422914
0.406375
0.389691
0.37311
0.358448
0.559418
0.521004
0.499777
0.485298
0.473384
0.462663
0.451919
0.440421
0.427927
0.414498
0.400362
0.385787
0.370858
0.35581
0.342994
0.507963
0.472421
0.453398
0.44126
0.431987
0.424092
0.416236
0.407585
0.397815
0.386934
0.37515
0.362733
0.349735
0.336359
0.325544
0.452248
0.419849
0.403196
0.393542
0.387063
0.382158
0.377372
0.371757
0.364899
0.356748
0.347487
0.337387
0.326459
0.314853
0.306144
0.392969
0.363956
0.349804
0.342733
0.339147
0.337343
0.335748
0.333303
0.329499
0.324215
0.317604
0.309937
0.301176
0.291381
0.284822
0.330862
0.305444
0.293893
0.289459
0.28881
0.290157
0.29182
0.292626
0.291963
0.289637
0.285759
0.280592
0.274044
0.266026
0.261562
0.266691
0.245043
0.236157
0.234371
0.236652
0.241143
0.24607
0.250152
0.252672
0.253349
0.252241
0.2496
0.245266
0.238883
0.236253
0.201238
0.183495
0.177305
0.178135
0.183288
0.190862
0.199005
0.206336
0.212032
0.215718
0.217381
0.217248
0.215073
0.209987
0.208334
0.135287
0.121543
0.118047
0.121425
0.129343
0.139886
0.151145
0.161652
0.170479
0.177152
0.181561
0.183854
0.183686
0.179497
0.176818
0.0696118
0.0599162
0.0590831
0.0649033
0.0754397
0.0887909
0.10302
0.116587
0.128473
0.138113
0.145294
0.150036
0.152177
0.151034
0.147286
0.0049666
-0.000684164
0.00108623
0.00921541
0.0221855
0.0381414
0.0551485
0.0716213
0.0864647
0.0990443
0.109088
0.116555
0.121523
0.1244
0.125456
-0.0579533
-0.0595854
-0.0553058
-0.0450268
-0.0298389
-0.0115213
0.008028
0.0272025
0.0448484
0.0602719
0.0731566
0.083426
0.0912807
0.0977546
0.102762
-0.118596
-0.116104
-0.109497
-0.0972561
-0.0800891
-0.0596874
-0.037876
-0.0162556
0.00397525
0.0220644
0.0376445
0.0505928
0.0611228
0.0704598
0.07828
-0.176127
-0.16985
-0.160957
-0.146964
-0.12807
-0.105886
-0.0821286
-0.0583639
-0.0358193
-0.0153024
0.00276058
0.0181947
0.0311811
0.0429354
0.0529814
-0.230154
-0.220244
-0.209221
-0.193654
-0.173349
-0.149711
-0.124332
-0.0987574
-0.0742113
-0.0515467
-0.0312507
-0.0135545
0.00167155
0.0155584
0.0275299
-0.280245
-0.266883
-0.253905
-0.23698
-0.21552
-0.19075
-0.164132
-0.137108
-0.110895
-0.0863948
-0.0641448
-0.0444347
-0.0272048
-0.0114294
0.00232716
-0.326034
-0.309454
-0.294698
-0.276626
-0.25428
-0.228706
-0.201203
-0.1731
-0.145591
-0.119589
-0.0956851
-0.0742268
-0.0552437
-0.0378254
-0.0223056
-0.367252
-0.347723
-0.331371
-0.312355
-0.289383
-0.263319
-0.235283
-0.206479
-0.178042
-0.150889
-0.12565
-0.102723
-0.0822439
-0.0634569
-0.0461012
-0.403721
-0.381542
-0.363784
-0.344015
-0.320656
-0.294396
-0.266167
-0.237025
-0.20803
-0.180081
-0.153836
-0.129736
-0.107995
-0.0880122
-0.0691492
-0.435352
-0.410846
-0.391875
-0.371533
-0.348003
-0.321813
-0.293702
-0.264569
-0.235376
-0.206985
-0.180066
-0.1551
-0.132344
-0.111418
-0.092517
-0.462144
-0.435654
-0.415665
-0.394915
-0.371405
-0.345516
-0.317801
-0.288995
-0.259944
-0.231451
-0.204181
-0.178641
-0.155121
-0.133375
-0.113953
-0.484174
-0.456058
-0.435247
-0.414241
-0.390914
-0.365521
-0.338442
-0.310244
-0.281644
-0.253371
-0.226058
-0.200223
-0.17618
-0.153765
-0.133616
-0.501596
-0.472219
-0.450781
-0.429659
-0.406651
-0.38191
-0.355663
-0.328312
-0.300442
-0.272684
-0.245626
-0.219773
-0.195462
-0.172605
-0.151818
-0.514628
-0.484358
-0.462487
-0.441375
-0.418796
-0.394829
-0.369565
-0.343257
-0.316351
-0.289376
-0.262853
-0.237258
-0.212939
-0.189881
-0.168623
-0.523543
-0.492744
-0.470632
-0.449646
-0.427585
-0.404476
-0.380304
-0.355186
-0.329438
-0.303477
-0.277745
-0.252671
-0.2286
-0.205581
-0.184046
-0.52866
-0.497684
-0.475518
-0.454767
-0.433293
-0.411099
-0.388086
-0.36426
-0.339816
-0.315058
-0.290343
-0.266037
-0.242463
-0.219724
-0.198128
-0.530332
-0.499514
-0.477475
-0.457061
-0.436229
-0.414981
-0.393159
-0.370681
-0.347638
-0.32423
-0.300721
-0.277406
-0.254569
-0.232355
-0.210945
-0.528932
-0.498587
-0.476848
-0.456866
-0.436722
-0.416429
-0.395799
-0.374687
-0.353097
-0.331137
-0.308985
-0.286855
-0.264981
-0.243544
-0.222596
-0.524846
-0.49526
-0.473986
-0.454528
-0.43511
-0.415768
-0.396307
-0.376542
-0.356414
-0.335956
-0.315266
-0.294483
-0.273778
-0.253372
-0.233213
-0.518457
-0.489888
-0.469231
-0.450385
-0.431726
-0.413324
-0.394992
-0.376528
-0.357832
-0.338883
-0.319716
-0.300403
-0.281049
-0.261928
-0.242936
-0.510143
-0.482812
-0.462914
-0.444764
-0.426897
-0.409419
-0.392165
-0.374934
-0.357609
-0.340133
-0.322502
-0.304736
-0.286882
-0.269294
-0.251911
-0.50026
-0.474358
-0.455344
-0.437969
-0.420927
-0.404358
-0.388126
-0.372048
-0.356004
-0.339928
-0.323798
-0.307606
-0.291358
-0.275533
-0.260266
-0.48914
-0.464822
-0.446804
-0.430279
-0.414095
-0.398422
-0.383159
-0.368146
-0.353277
-0.338493
-0.323781
-0.309132
-0.294537
-0.280668
-0.268088
-0.477088
-0.454477
-0.437548
-0.421941
-0.406649
-0.391865
-0.37752
-0.363485
-0.349674
-0.336049
-0.322624
-0.309422
-0.296447
-0.284656
-0.275375
-0.464375
-0.443561
-0.427801
-0.413173
-0.398805
-0.384907
-0.371437
-0.358297
-0.345425
-0.332807
-0.320497
-0.308572
-0.297076
-0.287358
-0.281977
-0.451238
-0.432285
-0.417755
-0.404156
-0.390743
-0.377731
-0.365105
-0.352788
-0.340739
-0.328967
-0.317566
-0.306672
-0.296375
-0.288505
-0.287488
-0.437883
-0.420829
-0.407572
-0.395042
-0.38261
-0.370489
-0.35868
-0.347127
-0.3358
-0.324718
-0.314
-0.303822
-0.294292
-0.287731
-0.291194
-0.424487
-0.409345
-0.397388
-0.385956
-0.374524
-0.363298
-0.35229
-0.341455
-0.330765
-0.320233
-0.309967
-0.300149
-0.290851
-0.284699
-0.291887
-0.411203
-0.397963
-0.387317
-0.376996
-0.366575
-0.356246
-0.346027
-0.335878
-0.325764
-0.315664
-0.305622
-0.295756
-0.28598
-0.277975
-0.283429
-0.398158
-0.386794
-0.377451
-0.368244
-0.358834
-0.349401
-0.339964
-0.330486
-0.320919
-0.311194
-0.30124
-0.291035
-0.279994
-0.264483
-0.245657
-0.385468
-0.375932
-0.367872
-0.359764
-0.351357
-0.342814
-0.334156
-0.325354
-0.316359
-0.307087
-0.297427
-0.287374
-0.276662
-0.261789
-0.24266
-0.373229
-0.365459
-0.358646
-0.351613
-0.344188
-0.33652
-0.328638
-0.320521
-0.312132
-0.303405
-0.294252
-0.284741
-0.274894
-0.262058
-0.246623
-0.36153
-0.35545
-0.349833
-0.343839
-0.337364
-0.330547
-0.323426
-0.315993
-0.308228
-0.300087
-0.291522
-0.282645
-0.273558
-0.262108
-0.249219
-0.350451
-0.345971
-0.34149
-0.336476
-0.330914
-0.324917
-0.318531
-0.311768
-0.304625
-0.297082
-0.289126
-0.280897
-0.272517
-0.262211
-0.251303
-0.340067
-0.337086
-0.333672
-0.329584
-0.324875
-0.31965
-0.313965
-0.307846
-0.301309
-0.294357
-0.287006
-0.279416
-0.271713
-0.262459
-0.253113
-0.330449
-0.328857
-0.326427
-0.323197
-0.319278
-0.314772
-0.309742
-0.304231
-0.29827
-0.291885
-0.285115
-0.278126
-0.271043
-0.262721
-0.254585
-0.321665
-0.321348
-0.319809
-0.317357
-0.31416
-0.31031
-0.305881
-0.30093
-0.295505
-0.289647
-0.283416
-0.276974
-0.270438
-0.262921
-0.255697
-0.313786
-0.314607
-0.313873
-0.312115
-0.309561
-0.306296
-0.302406
-0.29796
-0.293018
-0.287639
-0.281893
-0.275933
-0.269869
-0.263039
-0.256498
-0.30688
-0.3087
-0.308667
-0.307513
-0.305518
-0.302765
-0.299345
-0.29534
-0.290824
-0.285864
-0.28054
-0.274994
-0.26933
-0.263077
-0.257031
-0.301008
-0.303679
-0.304239
-0.303596
-0.302074
-0.299752
-0.296729
-0.293098
-0.288942
-0.284337
-0.279367
-0.274163
-0.268829
-0.263055
-0.25733
-0.29623
-0.299595
-0.300636
-0.300405
-0.299264
-0.29729
-0.294588
-0.29126
-0.287395
-0.283076
-0.278392
-0.273458
-0.268389
-0.262999
-0.257404
-0.292597
-0.29649
-0.297896
-0.297977
-0.297124
-0.295413
-0.292953
-0.289853
-0.286207
-0.282105
-0.277635
-0.272906
-0.268025
-0.262894
-0.257362
-0.29015
-0.2944
-0.296051
-0.296342
-0.295681
-0.294146
-0.291848
-0.288901
-0.285402
-0.281444
-0.277118
-0.272526
-0.267755
-0.262791
-0.257808
-0.28892
-0.293349
-0.295123
-0.295518
-0.294954
-0.293507
-0.291291
-0.28842
-0.284995
-0.28111
-0.276856
-0.272332
-0.267618
-0.262741
-0.257937
-0.252534
-0.241722
-0.232365
-0.222086
-0.211669
-0.201169
-0.190687
-0.180339
-0.170218
-0.160399
-0.150941
-0.141883
-0.133252
-0.125061
-0.117311
-0.109998
-0.103111
-0.0966355
-0.0905529
-0.0848446
-0.0794905
-0.0744708
-0.0697653
-0.065355
-0.0612211
-0.057346
-0.0537129
-0.050306
-0.0471105
-0.0441124
-0.0412986
-0.0386571
-0.0361765
-0.0338462
-0.0316564
-0.029598
-0.0276624
-0.0258417
-0.0241285
-0.022516
-0.0209977
-0.0195678
-0.0182207
-0.0169512
-0.0157545
-0.0146263
-0.0135622
-0.0125585
-0.0116115
-0.0107178
-0.00987437
-0.00907817
-0.00832651
-0.00761683
-0.00694674
-0.00631403
-0.00571662
-0.00515257
-0.00462007
-0.00411743
-0.00364307
-0.00319552
-0.00277339
-0.00237538
-0.00200029
-0.00164698
-0.00131436
-0.00100141
-0.000707153
-0.000430641
-0.000170951
7.28713e-05
0.000301688
0.000517003
0.000717881
0.000915017
0.00106871
0.00136348
0.0010097
0.00331479
-0.253337
-0.241974
-0.232768
-0.222419
-0.211976
-0.201458
-0.190956
-0.18059
-0.170453
-0.16062
-0.151148
-0.142079
-0.133437
-0.125235
-0.117475
-0.110153
-0.103258
-0.0967732
-0.0906826
-0.0849667
-0.0796056
-0.074579
-0.0698671
-0.0654507
-0.0613111
-0.0574306
-0.0537925
-0.0503808
-0.0471808
-0.0441784
-0.0413607
-0.0387155
-0.0362314
-0.0338979
-0.0317051
-0.0296438
-0.0277055
-0.0258823
-0.0241668
-0.0225521
-0.0210318
-0.0196
-0.018251
-0.0169799
-0.0157816
-0.0146519
-0.0135865
-0.0125814
-0.0116332
-0.0107384
-0.00989384
-0.00909663
-0.00834402
-0.00763343
-0.0069625
-0.006329
-0.00573084
-0.00516608
-0.00463292
-0.00412965
-0.0036547
-0.00320659
-0.00278394
-0.00238544
-0.00200989
-0.00165614
-0.00132311
-0.00100979
-0.000715183
-0.000438355
-0.000178384
6.56793e-05
0.000294686
0.000510137
0.000711055
0.000908169
0.0010616
0.00135586
0.00100332
0.00329488
-0.255627
-0.242225
-0.233532
-0.223087
-0.212581
-0.202023
-0.191484
-0.181084
-0.170916
-0.161055
-0.151559
-0.142466
-0.133802
-0.12558
-0.117802
-0.110461
-0.103548
-0.0970473
-0.0909411
-0.0852102
-0.0798349
-0.0747948
-0.0700702
-0.0656417
-0.0614907
-0.0575995
-0.0539513
-0.0505301
-0.0473211
-0.0443104
-0.0414848
-0.0388322
-0.0363412
-0.0340012
-0.0318023
-0.0297353
-0.0277917
-0.0259635
-0.0242434
-0.0226243
-0.0210999
-0.0196642
-0.0183117
-0.0170371
-0.0158358
-0.0147031
-0.0136348
-0.0126272
-0.0116765
-0.0107794
-0.00993271
-0.00913347
-0.00837895
-0.00766657
-0.00699395
-0.00635886
-0.0057592
-0.00519304
-0.00465855
-0.00415403
-0.0036779
-0.00322868
-0.00280498
-0.0024055
-0.00202903
-0.00167441
-0.00134058
-0.0010265
-0.000731202
-0.000453744
-0.000193213
5.13318e-05
0.000280722
0.000496446
0.000697449
0.000894525
0.00104745
0.00134068
0.000990664
0.00325541
-0.257432
-0.243512
-0.234493
-0.224059
-0.21346
-0.202841
-0.19225
-0.181802
-0.171592
-0.161693
-0.152161
-0.143036
-0.134342
-0.126091
-0.118285
-0.110918
-0.10398
-0.0974554
-0.0913262
-0.0855734
-0.0801771
-0.0751171
-0.0703736
-0.0659272
-0.0617593
-0.057852
-0.0541887
-0.0507533
-0.047531
-0.0445077
-0.0416704
-0.0390068
-0.0365054
-0.0341557
-0.0319477
-0.0298722
-0.0279207
-0.026085
-0.0243578
-0.0227322
-0.0212017
-0.0197603
-0.0184024
-0.0171228
-0.0159167
-0.0147795
-0.0137071
-0.0126956
-0.0117413
-0.0108407
-0.00999079
-0.00918852
-0.00843114
-0.00771608
-0.00704094
-0.00640347
-0.00580158
-0.0052333
-0.00469683
-0.00419044
-0.00371256
-0.00326168
-0.00283642
-0.00243547
-0.00205761
-0.00170171
-0.00136666
-0.00105146
-0.00075513
-0.000476731
-0.000215361
2.99062e-05
0.000259873
0.000476011
0.000677153
0.000874184
0.00102638
0.00131809
0.000971923
0.00319705
-0.260272
-0.244864
-0.235756
-0.225294
-0.214575
-0.203879
-0.193224
-0.182719
-0.172459
-0.162515
-0.152941
-0.143777
-0.135046
-0.126759
-0.118919
-0.11152
-0.10455
-0.0979939
-0.091835
-0.0860537
-0.0806301
-0.0755441
-0.0707757
-0.0663058
-0.0621155
-0.0581871
-0.0545038
-0.0510497
-0.0478097
-0.0447698
-0.0419168
-0.0392386
-0.0367235
-0.0343609
-0.0321408
-0.030054
-0.0280919
-0.0262463
-0.0245098
-0.0228755
-0.0213368
-0.0198878
-0.0185227
-0.0172364
-0.016024
-0.014881
-0.0138031
-0.0127864
-0.0118272
-0.010922
-0.0100678
-0.00926151
-0.00850034
-0.00778172
-0.00710323
-0.00646261
-0.00585775
-0.00528668
-0.00474757
-0.00423871
-0.00375849
-0.00330541
-0.00287808
-0.00247519
-0.0020955
-0.00173788
-0.00140124
-0.00108455
-0.000786846
-0.000507198
-0.000244713
1.51522e-06
0.000232256
0.000448952
0.000650302
0.000847291
0.000998619
0.00128827
0.000947387
0.0031208
-0.263714
-0.246466
-0.237258
-0.226742
-0.21588
-0.205096
-0.194371
-0.183805
-0.173491
-0.163499
-0.153881
-0.144674
-0.135902
-0.127576
-0.119696
-0.112258
-0.105251
-0.0986582
-0.0924637
-0.086648
-0.0811912
-0.0760734
-0.0712746
-0.0667757
-0.0625579
-0.0586034
-0.0548955
-0.0514181
-0.0481561
-0.0450956
-0.0422233
-0.0395268
-0.0369946
-0.034616
-0.0323809
-0.0302801
-0.0283047
-0.0264468
-0.0246988
-0.0230536
-0.0215048
-0.0200462
-0.0186722
-0.0173776
-0.0161574
-0.015007
-0.0139222
-0.012899
-0.0119338
-0.011023
-0.0101634
-0.00935211
-0.00858623
-0.00786318
-0.00718052
-0.00653598
-0.00592744
-0.0053529
-0.00481053
-0.00429859
-0.00381547
-0.00335966
-0.00292976
-0.00252446
-0.00214251
-0.00178276
-0.00144413
-0.0011256
-0.000826191
-0.000544992
-0.000281121
-3.36924e-05
0.00019802
0.000415429
0.000617073
0.000814036
0.000964412
0.00125147
0.000917441
0.00302789
-0.267628
-0.248289
-0.238923
-0.228343
-0.217324
-0.206444
-0.195649
-0.185023
-0.174659
-0.164621
-0.154959
-0.145711
-0.136897
-0.128528
-0.120606
-0.113126
-0.106077
-0.0994429
-0.0932078
-0.0873523
-0.0818571
-0.0767021
-0.0718677
-0.0673347
-0.0630844
-0.0590991
-0.055362
-0.051857
-0.048569
-0.045484
-0.0425885
-0.0398704
-0.0373178
-0.0349201
-0.0326671
-0.0305495
-0.0285584
-0.0266857
-0.0249239
-0.0232658
-0.0217048
-0.0202349
-0.0188503
-0.0175457
-0.0163161
-0.015157
-0.014064
-0.0130332
-0.0120607
-0.0111431
-0.0102772
-0.00945987
-0.00868837
-0.00796005
-0.00727243
-0.00662323
-0.00601029
-0.00543163
-0.00488536
-0.00436976
-0.0038832
-0.00342415
-0.0029912
-0.00258303
-0.00219838
-0.00183611
-0.00149513
-0.0011744
-0.00087297
-0.000589924
-0.0003244
-7.55338e-05
0.000157353
0.000375636
0.000577684
0.000774653
0.00092409
0.00120798
0.000882562
0.00291971
-0.271959
-0.250287
-0.240678
-0.230033
-0.218848
-0.207871
-0.197013
-0.186336
-0.175929
-0.165853
-0.156154
-0.146868
-0.138014
-0.129604
-0.121639
-0.114115
-0.107021
-0.100342
-0.0940617
-0.0881621
-0.0826237
-0.0774268
-0.0725519
-0.06798
-0.0636927
-0.0596721
-0.0559014
-0.0523646
-0.0490466
-0.0459333
-0.0430112
-0.0402679
-0.0376919
-0.035272
-0.0329983
-0.0308612
-0.0288519
-0.0269621
-0.0251843
-0.0235112
-0.0219362
-0.0204531
-0.0190562
-0.01774
-0.0164996
-0.0153304
-0.0142278
-0.0131881
-0.0122072
-0.0112818
-0.0104085
-0.00958427
-0.00880629
-0.00807186
-0.0073785
-0.0067239
-0.0061059
-0.00552246
-0.00497171
-0.00445189
-0.00396135
-0.00349856
-0.00306209
-0.00265061
-0.00226286
-0.00189768
-0.00155397
-0.00123072
-0.000926952
-0.000641774
-0.000374334
-0.000123795
0.000110473
0.000329801
0.000532389
0.000729411
0.00087804
0.00115811
0.000843331
0.00279779
-0.276656
-0.252439
-0.242447
-0.231739
-0.22039
-0.209323
-0.198416
-0.187705
-0.177271
-0.16717
-0.157445
-0.148128
-0.139239
-0.130791
-0.122785
-0.115216
-0.108075
-0.101348
-0.0950202
-0.0890727
-0.0834869
-0.0782438
-0.0733241
-0.068709
-0.0643802
-0.06032
-0.0565116
-0.0529391
-0.0495873
-0.046442
-0.0434898
-0.0407182
-0.0381154
-0.0356706
-0.0333733
-0.0312142
-0.0291842
-0.027275
-0.025479
-0.0237889
-0.022198
-0.0206999
-0.019289
-0.0179598
-0.0167071
-0.0155263
-0.014413
-0.0133631
-0.0123728
-0.0114385
-0.0105568
-0.00972477
-0.00893943
-0.00819809
-0.00749825
-0.00683755
-0.00621381
-0.00562498
-0.00506916
-0.00454456
-0.00404953
-0.00358252
-0.00314208
-0.00272687
-0.00233562
-0.00196716
-0.00162039
-0.00129428
-0.000987882
-0.000700293
-0.000430682
-0.000178236
5.7624e-05
0.000278178
0.000481477
0.00067861
0.000826703
0.00110221
0.000800448
0.00266357
-0.281375
-0.2547
-0.244152
-0.233384
-0.221888
-0.210749
-0.199818
-0.189096
-0.178656
-0.168548
-0.15881
-0.149474
-0.14056
-0.132078
-0.124033
-0.116421
-0.109233
-0.102457
-0.0960784
-0.0900798
-0.0844433
-0.0791501
-0.0741815
-0.0695191
-0.0651447
-0.0610408
-0.0571908
-0.0535787
-0.0501893
-0.0470085
-0.0440228
-0.0412197
-0.0385872
-0.0361144
-0.0337909
-0.0316072
-0.0295541
-0.0276233
-0.025807
-0.0240979
-0.0224892
-0.0209745
-0.0195479
-0.018204
-0.0169377
-0.015744
-0.0146187
-0.0135575
-0.0125566
-0.0116124
-0.0107214
-0.00988068
-0.00908715
-0.00833813
-0.00763107
-0.00696359
-0.00633348
-0.00573866
-0.00517721
-0.00464732
-0.00414731
-0.00367562
-0.00323078
-0.00281144
-0.00241631
-0.00204421
-0.00169405
-0.00136479
-0.00105546
-0.000765197
-0.000493167
-0.000238586
-9.18992e-07
0.000221053
0.000425267
0.000622579
0.000770581
0.00104057
0.000754796
0.00251828
-0.285894
-0.257032
-0.245717
-0.234887
-0.223278
-0.212096
-0.201172
-0.190471
-0.180052
-0.169959
-0.160227
-0.150886
-0.141956
-0.133448
-0.125369
-0.117716
-0.110482
-0.103656
-0.0972256
-0.0911737
-0.0854834
-0.080137
-0.0751161
-0.0704028
-0.0659792
-0.061828
-0.0579328
-0.0542776
-0.0508474
-0.0476278
-0.0446056
-0.0417679
-0.0391029
-0.0365996
-0.0342474
-0.0320367
-0.0299583
-0.0280038
-0.0261653
-0.0244354
-0.0228071
-0.0212742
-0.0198305
-0.0184706
-0.0171893
-0.0159816
-0.0148431
-0.0137696
-0.0127571
-0.0118021
-0.010901
-0.0100507
-0.00924821
-0.0084908
-0.00777587
-0.007101
-0.00646395
-0.00586261
-0.00529503
-0.00475938
-0.00425396
-0.00377718
-0.00332756
-0.00290373
-0.00250439
-0.00212835
-0.00177449
-0.00144179
-0.0011293
-0.00083611
-0.000561434
-0.000304504
-6.48217e-05
0.00015876
0.000364126
0.000561685
0.000710238
0.00097351
0.000707389
0.00236289
-0.289613
-0.259269
-0.247023
-0.236124
-0.224454
-0.213276
-0.202407
-0.191767
-0.181403
-0.171353
-0.16165
-0.152321
-0.143389
-0.134866
-0.126759
-0.11907
-0.111793
-0.10492
-0.0984372
-0.0923316
-0.0865866
-0.0811853
-0.0761102
-0.0713437
-0.0668686
-0.0626678
-0.0587248
-0.0550241
-0.0515506
-0.04829
-0.0452288
-0.0423544
-0.0396549
-0.0371189
-0.0347361
-0.0324966
-0.0303913
-0.0284115
-0.0265492
-0.024797
-0.0231479
-0.0215954
-0.0201335
-0.0187564
-0.017459
-0.0162363
-0.0150837
-0.013997
-0.0129722
-0.0120055
-0.0110935
-0.0102331
-0.00942104
-0.00865467
-0.00793133
-0.00724856
-0.0066041
-0.00599579
-0.00542167
-0.00487987
-0.00436866
-0.00388645
-0.00343173
-0.0030031
-0.00259926
-0.002219
-0.00186121
-0.00152484
-0.00120894
-0.000912619
-0.000635094
-0.000375618
-0.00013372
9.1664e-05
0.000298451
0.000496324
0.000646307
0.000901238
0.000658779
0.00219842
-0.292893
-0.261436
-0.24799
-0.23705
-0.225423
-0.214327
-0.203571
-0.193041
-0.182768
-0.172789
-0.163135
-0.153835
-0.144912
-0.136382
-0.128254
-0.120532
-0.113213
-0.106291
-0.0997558
-0.093594
-0.0877913
-0.0823317
-0.0771985
-0.072375
-0.0678442
-0.0635894
-0.0595947
-0.0558443
-0.0523235
-0.0490179
-0.0459141
-0.0429994
-0.0402618
-0.03769
-0.0352734
-0.0330022
-0.030867
-0.0288592
-0.0269707
-0.0251939
-0.0235217
-0.0219476
-0.0204654
-0.0190694
-0.0177543
-0.0165149
-0.0153468
-0.0142455
-0.013207
-0.0122275
-0.0113035
-0.0104318
-0.00960927
-0.00883301
-0.0081004
-0.00740894
-0.00675631
-0.00614034
-0.00555902
-0.00501046
-0.00449291
-0.00400474
-0.00354441
-0.00311053
-0.00270176
-0.00231688
-0.00195477
-0.00161438
-0.00129475
-0.000994984
-0.000714312
-0.000452003
-0.000207602
1.9863e-05
0.000228448
0.00042678
0.000579438
0.000823674
0.000609545
0.00202488
-0.291459
-0.262876
-0.249077
-0.238122
-0.226582
-0.215599
-0.204986
-0.194591
-0.184431
-0.174538
-0.164946
-0.155683
-0.146773
-0.138235
-0.130082
-0.12232
-0.11495
-0.107969
-0.101369
-0.0951377
-0.0892637
-0.0837319
-0.0785269
-0.0736326
-0.0690327
-0.0647111
-0.060652
-0.05684
-0.0532603
-0.0498989
-0.0467421
-0.0437774
-0.0409925
-0.0383762
-0.0359178
-0.0336073
-0.0314352
-0.0293928
-0.0274719