/*--------------------------------*- C++ -*----------------------------------*\
  =========                 |
  \\      /  F ield         | OpenFOAM: The Open Source CFD Toolbox
   \\    /   O peration     | Website:  https://openfoam.org
    \\  /    A nd           | Version:  7
     \\/     M anipulation  |
\*---------------------------------------------------------------------------*/
FoamFile
{
    version     2.0;
    format      ascii;
    class       surfaceScalarField;
    location    "25";
    object      phi;
}
// * * * * * * * * * * * * * * * * * * * * * * * * * * * * * * * * * * * * * //

dimensions      [0 3 -1 0 0 0 0];

internalField   nonuniform List<scalar> 
24025
(
-4.36323e-06
4.36323e-06
-1.79172e-14
-1.47274e-05
1.03642e-05
1.69695e-13
-2.92326e-05
1.45052e-05
3.64961e-13
-4.62411e-05
1.70085e-05
5.77392e-13
-6.42893e-05
1.80482e-05
8.15658e-13
-8.20765e-05
1.77871e-05
1.08507e-12
-9.84585e-05
1.6382e-05
1.38623e-12
-0.000112458
1.39992e-05
1.71893e-12
-0.000123293
1.08351e-05
2.08553e-12
-0.000130432
7.13938e-06
2.49114e-12
-0.000133673
3.24113e-06
2.93099e-12
-0.000133245
-4.28089e-07
3.39888e-12
-0.000129903
-3.34263e-06
3.89448e-12
-0.000124946
-4.9566e-06
4.41055e-12
-4.38628e-06
4.93411e-12
-0.00012056
-4.22309e-06
8.58631e-06
-1.41932e-05
2.03343e-05
-2.80511e-05
2.83631e-05
-4.41527e-05
3.31101e-05
-6.10222e-05
3.49177e-05
-7.73389e-05
3.41038e-05
-9.1931e-05
3.09742e-05
-0.000103783
2.58516e-05
-0.000112066
1.91175e-05
-0.000116186
1.12594e-05
-0.00011587
2.92495e-06
-0.000111271
-5.02668e-06
-0.000103088
-1.15255e-05
-9.26326e-05
-1.54123e-05
-1.53208e-05
-8.16981e-05
-3.94549e-06
1.25318e-05
-1.31337e-05
2.95224e-05
-2.5706e-05
4.09355e-05
-4.0006e-05
4.74101e-05
-5.45329e-05
4.94445e-05
-6.79276e-05
4.74986e-05
-7.89642e-05
4.20107e-05
-8.65538e-05
3.34413e-05
-8.97706e-05
2.23343e-05
-8.79015e-05
9.39035e-06
-8.05306e-05
-4.44591e-06
-6.76527e-05
-1.79046e-05
-4.97966e-05
-2.93817e-05
-2.8255e-05
-3.69539e-05
-3.74964e-05
-6.07933e-06
-3.53555e-06
1.60674e-05
-1.15659e-05
3.75527e-05
-2.22319e-05
5.16015e-05
-3.38582e-05
5.90364e-05
-4.49075e-05
6.04938e-05
-5.39648e-05
5.65559e-05
-5.97257e-05
4.77716e-05
-6.0996e-05
3.47116e-05
-5.67113e-05
1.80496e-05
-4.59822e-05
-1.33873e-06
-2.81802e-05
-2.22479e-05
-3.06735e-06
-4.30174e-05
2.90583e-05
-6.15073e-05
6.71101e-05
-7.50057e-05
-7.91762e-05
0.00010879
-3.0002e-06
1.90676e-05
-9.51312e-06
4.40657e-05
-1.76764e-05
5.97648e-05
-2.57886e-05
6.71487e-05
-3.22649e-05
6.697e-05
-3.5619e-05
5.991e-05
-3.4448e-05
4.66006e-05
-2.74252e-05
2.76888e-05
-1.33124e-05
3.93674e-06
9.00157e-06
-2.36527e-05
4.04224e-05
-5.36687e-05
8.15085e-05
-8.41036e-05
0.000132245
-0.000112244
0.000191764
-0.000134525
-0.000145239
0.000257827
-2.34761e-06
2.14152e-05
-7.00304e-06
4.87211e-05
-1.2096e-05
6.48578e-05
-1.58915e-05
7.09442e-05
-1.6747e-05
6.78255e-05
-1.30915e-05
5.62546e-05
-3.40767e-06
3.69167e-05
1.3782e-05
1.04991e-05
3.99142e-05
-2.21955e-05
7.63576e-05
-6.00961e-05
0.000124343
-0.000101654
0.00018481
-0.000144571
0.000258146
-0.00018558
0.000343787
-0.000220167
-0.000240834
0.000439383
-1.58636e-06
2.30015e-05
-4.06526e-06
5.12e-05
-5.55151e-06
6.6344e-05
-4.26919e-06
6.96619e-05
1.49262e-06
6.20637e-05
1.33982e-05
4.4349e-05
3.30926e-05
1.72223e-05
6.22168e-05
-1.8625e-05
0.000102417
-6.23957e-05
0.000155335
-0.000113014
0.000222552
-0.000168872
0.00030545
-0.000227468
0.000404902
-0.000285032
0.000520751
-0.000336016
-0.000370715
0.000650633
-7.25368e-07
2.37269e-05
-7.26446e-07
5.12011e-05
1.89522e-06
6.37224e-05
8.97208e-06
6.2585e-05
2.2292e-05
4.87438e-05
4.36245e-05
2.30164e-05
7.47459e-05
-1.3899e-05
0.000117463
-6.13422e-05
0.000173631
-0.000118564
0.00024516
-0.000184542
0.000333983
-0.000257695
0.000441946
-0.000335431
0.000570492
-0.000413578
0.000720026
-0.00048555
-0.000539038
0.000888348
2.3059e-07
2.34963e-05
2.97537e-06
4.84563e-05
1.01798e-05
5.6518e-05
2.3728e-05
4.90368e-05
4.54941e-05
2.69777e-05
7.73604e-05
-8.84997e-06
0.000121241
-5.77792e-05
0.000179104
-0.000119206
0.000252998
-0.000192458
0.000345071
-0.000276615
0.000457573
-0.000370196
0.000592787
-0.000470646
0.000752773
-0.000573563
0.000938671
-0.000671448
-0.000749171
0.0011488
1.26892e-06
2.22274e-05
7.02493e-06
4.27003e-05
1.92474e-05
4.42955e-05
3.98946e-05
2.83895e-05
7.09348e-05
-4.06244e-06
0.000114371
-5.22857e-05
0.000172255
-0.000115663
0.000246711
-0.000193661
0.000339953
-0.000285701
0.000454315
-0.000390977
0.000592278
-0.00050816
0.000756476
-0.000634843
0.000949535
-0.000766622
0.00117346
-0.000895376
-0.00100325
0.00142754
2.38851e-06
1.98389e-05
1.13914e-05
3.36974e-05
2.90359e-05
2.6651e-05
5.73627e-05
6.27108e-08
9.84381e-05
-4.51378e-05
0.000154396
-0.000108244
0.000227429
-0.000188696
0.000319803
-0.000286036
0.000433872
-0.000399769
0.000572087
-0.000529192
0.000737043
-0.000673116
0.000931543
-0.000829343
0.0011586
-0.000993684
0.00142108
-0.00115786
-0.00130199
0.00171982
3.58215e-06
1.62567e-05
1.60498e-05
2.12298e-05
3.9486e-05
3.21482e-06
7.60048e-05
-3.64562e-05
0.000127801
-9.69336e-05
0.000197127
-0.00017757
0.00028632
-0.000277888
0.000397783
-0.000397499
0.000533979
-0.000535965
0.000697417
-0.00069263
0.000890667
-0.000866366
0.00111646
-0.00105514
0.00137786
-0.00125508
0.00167823
-0.00145823
-0.00164415
0.00202039
4.84363e-06
1.14131e-05
2.09708e-05
5.10265e-06
5.05171e-05
-2.63315e-05
9.56861e-05
-8.16252e-05
0.000158775
-0.000160023
0.000242172
-0.000260966
0.000348348
-0.000384065
0.00047984
-0.000528991
0.000639207
-0.000695332
0.000828977
-0.0008824
0.00105159
-0.00108898
0.00130946
-0.001313
0.00160512
-0.00155074
0.00194168
-0.00179479
-0.00202776
0.00232529
6.16664e-06
5.24645e-06
2.61218e-05
-1.48525e-05
6.20487e-05
-6.22584e-05
0.000116227
-0.000135803
0.000191051
-0.000234847
0.000289024
-0.000358939
0.000412741
-0.000507782
0.000564859
-0.000681109
0.000748039
-0.000878513
0.000964863
-0.00109922
0.0012177
-0.00134182
0.00150856
-0.00160386
0.00183892
-0.0018811
0.00220961
-0.00216549
-0.00244695
0.00262881
7.54357e-06
-2.29712e-06
3.14658e-05
-3.87748e-05
7.39792e-05
-0.000104772
0.000137417
-0.000199241
0.000224244
-0.000321674
0.000337042
-0.000471737
0.000478487
-0.000649227
0.000651318
-0.00085394
0.000858299
-0.00108549
0.00110217
-0.0013431
0.00138559
-0.00162524
0.0017111
-0.00192936
0.00208031
-0.00225032
0.00248906
-0.00257424
-0.002892
0.00293411
8.96571e-06
-1.12628e-05
3.69589e-05
-6.6768e-05
8.6191e-05
-0.000154004
0.000159012
-0.000272062
0.000257903
-0.000420566
0.000385456
-0.00059929
0.000544337
-0.000808107
0.000737258
-0.00104686
0.000966967
-0.0013152
0.00123631
-0.00161243
0.00154841
-0.00193735
0.00190719
-0.00228814
0.00231915
-0.00266228
0.00280342
-0.0030585
-0.00349946
0.00341088
1.04236e-05
-2.16864e-05
4.25523e-05
-9.88967e-05
9.85534e-05
-0.000210005
0.000180737
-0.000354245
0.000291527
-0.000531356
0.000433417
-0.000741181
0.000608917
-0.000983607
0.0008205
-0.00125844
0.00107059
-0.00156529
0.00136158
-0.00190343
0.00169606
-0.00227183
0.00207712
-0.0026692
0.0025093
-0.00309446
0.00300037
-0.00354957
-0.00404875
0.00354966
1.19063e-05
-3.35928e-05
4.81923e-05
-0.000135183
0.000110925
-0.000272738
0.000202301
-0.000445621
0.000324592
-0.000653647
0.000480063
-0.000896652
0.000670887
-0.00117443
0.000899053
-0.00148661
0.0011663
-0.00183253
0.00147407
-0.0022112
0.00182352
-0.00262128
0.00221552
-0.00306121
0.00265058
-0.00352952
0.00312754
-0.00402654
-0.00455529
0.00363408
1.34017e-05
-4.69944e-05
5.38201e-05
-0.000175601
0.000123153
-0.000342071
0.000223401
-0.000545869
0.000356569
-0.000786815
0.000524554
-0.00106464
0.00072901
-0.00137889
0.000971217
-0.00172882
0.00125195
-0.00211327
0.00157138
-0.00253062
0.00192891
-0.00297881
0.00232304
-0.00345534
0.00275087
-0.00395735
0.00320653
-0.00448219
-0.00502443
0.00367567
1.48956e-05
-6.189e-05
5.93701e-05
-0.000220076
0.000135074
-0.000417775
0.000243715
-0.00065451
0.000386917
-0.000930017
0.000566064
-0.00124378
0.000782127
-0.00159495
0.0010355
-0.00198219
0.00132582
-0.00240359
0.00165183
-0.00285664
0.00201124
-0.00333822
0.00240048
-0.00384458
0.00281436
-0.00437123
0.00324494
-0.00491278
-0.00545841
0.00367893
1.63711e-05
-7.82611e-05
6.4768e-05
-0.000268472
0.000146507
-0.000499515
0.000262903
-0.000770905
0.000415077
-0.00108219
0.000603768
-0.00143247
0.000829126
-0.00182031
0.00109052
-0.00224358
0.00138637
-0.00269944
0.00171403
-0.0031843
0.00206966
-0.00369384
0.00244813
-0.00422305
0.00284289
-0.00476599
0.00324546
-0.00531535
-0.00585751
0.00364456
1.7808e-05
-9.60691e-05
6.99288e-05
-0.000320593
0.000157254
-0.00058684
0.000280598
-0.000894249
0.000440469
-0.00124206
0.000636837
-0.00162884
0.000868919
-0.00205239
0.00113499
-0.00250965
0.00143224
-0.0029967
0.00175673
-0.00350879
0.00210335
-0.00404046
0.00246592
-0.00458561
0.00283727
-0.00513734
0.00320923
-0.00568731
-0.00622103
0.00357275
1.91823e-05
-0.000115251
7.47572e-05
-0.000376168
0.000167097
-0.000679179
0.000296416
-0.00102357
0.000462498
-0.00140814
0.000664444
-0.00183079
0.000900461
-0.00228841
0.0011677
-0.00277689
0.00146219
-0.00329119
0.00177886
-0.00382545
0.00211166
-0.00437326
0.0024538
-0.00492776
0.00279808
-0.00548161
0.00313715
-0.00602638
-0.00654809
0.00346421
2.04666e-05
-0.000135718
7.91483e-05
-0.00043485
0.000175806
-0.000775837
0.000309957
-0.00115772
0.000480566
-0.00157875
0.000685788
-0.00203601
0.000922782
-0.0025254
0.0011876
-0.00304171
0.00147522
-0.00357881
0.00177966
-0.00412989
0.00209426
-0.00468786
0.00241206
-0.00524555
0.00272623
-0.00579579
0.00303059
-0.00633074
-0.00683796
0.00332047
2.16307e-05
-0.000157349
8.29904e-05
-0.00049621
0.000183143
-0.00087599
0.000320822
-0.0012954
0.000494097
-0.00175203
0.000700132
-0.00224205
0.000935037
-0.0027603
0.00119384
-0.00330052
0.00147063
-0.00385559
0.00175876
-0.00441803
0.0020513
-0.0049804
0.00234148
-0.00553573
0.0026232
-0.00607751
0.00289161
-0.00659914
-0.00709032
0.00314397
2.26425e-05
-0.000179991
8.61696e-05
-0.000559737
0.000188872
-0.000978692
0.00032863
-0.00143516
0.000502566
-0.00192596
0.000706837
-0.00244632
0.000936552
-0.00299002
0.00118584
-0.00354981
0.00144807
-0.00411783
0.00171625
-0.00468621
0.00198347
-0.00524762
0.00224345
-0.00579571
0.00249108
-0.00632514
0.00272287
-0.00683094
-0.0073053
0.00293786
2.34696e-05
-0.000203461
8.85737e-05
-0.000624841
0.00019277
-0.00108289
0.000333034
-0.00157542
0.000505518
-0.00209845
0.0007054
-0.0026462
0.000926871
-0.00321149
0.00116331
-0.00378625
0.00140763
-0.00436214
0.00165271
-0.00493129
0.00189198
-0.00548689
0.0021199
-0.00602363
0.00233247
-0.00653771
0.00252759
-0.00702606
-0.00748348
0.00270577
2.40803e-05
-0.000227541
9.00975e-05
-0.000690858
0.000194635
-0.00118743
0.000333738
-0.00171452
0.000502601
-0.00226731
0.00069548
-0.00283908
0.000905776
-0.00342179
0.00112631
-0.00400678
0.00134976
-0.00458559
0.00156917
-0.0051507
0.00177851
-0.00569624
0.00197319
-0.00621831
0.00215037
-0.00671489
0.00230925
-0.00718495
-0.00762578
0.00245154
2.44449e-05
-0.000251986
9.0647e-05
-0.00075706
0.000194297
-0.00129108
0.000330514
-0.00185074
0.000493577
-0.00243037
0.000676918
-0.00302242
0.000873306
-0.00361817
0.00107521
-0.00420869
0.00127531
-0.00478569
0.00146705
-0.00534243
0.00164514
-0.00587433
0.00180601
-0.00637917
0.00194798
-0.00685687
0.00207143
-0.00730839
-0.00773333
0.00217898
2.45373e-05
-0.000276523
9.01439e-05
-0.000822667
0.000191626
-0.00139256
0.000323208
-0.00198232
0.000478334
-0.0025855
0.000649743
-0.00319383
0.000829748
-0.00379818
0.00101069
-0.00438963
0.00118546
-0.00496046
0.0013481
-0.00550507
0.00149419
-0.00602042
0.00162121
-0.00650619
0.00172858
-0.00696424
0.00181767
-0.00739748
-0.00780744
0.00189178
2.43358e-05
-0.000300859
8.85286e-05
-0.00088686
0.000186535
-0.00149056
0.000311752
-0.00210754
0.000456896
-0.00273064
0.000614167
-0.0033511
0.000775621
-0.00395963
0.000933672
-0.00454768
0.00108165
-0.00510844
0.00121429
-0.00563772
0.00132815
-0.00613428
0.0014217
-0.00659974
0.00149537
-0.00703791
0.00155133
-0.00745344
-0.00784947
0.00159336
2.38237e-05
-0.000324683
8.57623e-05
-0.000948798
0.000178987
-0.00158379
0.000296162
-0.00222472
0.00042941
-0.00286389
0.000570573
-0.00349226
0.000711645
-0.00410071
0.000845315
-0.00468135
0.00096549
-0.00522861
0.00106774
-0.00573996
0.00114954
-0.00621608
0.00121035
-0.00666055
0.00125141
-0.00707897
0.00127552
-0.00747755
-0.00786074
0.0012868
2.29902e-05
-0.000347673
8.1829e-05
-0.00100764
0.000168993
-0.00167095
0.000276536
-0.00233226
0.000396148
-0.0029835
0.000519495
-0.00361561
0.000638708
-0.00421992
0.000746918
-0.00478956
0.000838739
-0.00532044
0.000910603
-0.00581183
0.000960901
-0.00626638
0.000989909
-0.00668955
0.000999547
-0.00708861
0.000993084
-0.00747109
-0.00784247
0.000974809
2.18308e-05
-0.000369504
7.67352e-05
-0.00106254
0.000156613
-0.00175083
0.000253053
-0.0024287
0.000357486
-0.00308794
0.000461593
-0.00371971
0.000557821
-0.00431615
0.000639889
-0.00487162
0.000703197
-0.00538374
0.000745046
-0.00585368
0.000764652
-0.00628598
0.000762974
-0.00668788
0.000742408
-0.00706804
0.000706511
-0.0074352
-0.00779573
0.000659771
2.03472e-05
-0.000389851
7.05099e-05
-0.0011127
0.000141951
-0.00182227
0.000225959
-0.00251271
0.000313888
-0.00317587
0.00039762
-0.00380345
0.000470078
-0.00438861
0.000525686
-0.00492723
0.000560671
-0.00541873
0.000573169
-0.00586618
0.000563123
-0.00627594
0.000532007
-0.00665676
0.000482477
-0.00701851
0.000418026
-0.00737074
-0.00772147
0.000343766
1.85472e-05
-0.000408398
6.32031e-05
-0.00115736
0.000125152
-0.00188422
0.00019556
-0.00258312
0.000265889
-0.00324619
0.000328396
-0.00386595
0.00037662
-0.00443683
0.000405767
-0.00495638
0.000412909
-0.00542587
0.000396965
-0.00585023
0.000358494
-0.00623747
0.000299364
-0.00659763
0.0002224
-0.00694155
0.000130756
-0.0072791
-0.0076163
2.55908e-05
1.64444e-05
-0.000424843
5.4884e-05
-0.0011958
0.000106397
-0.00193573
0.00016221
-0.00263893
0.000214076
-0.00329806
0.00025478
-0.00390666
0.000278591
-0.00446064
0.000281549
-0.00495934
0.000261558
-0.00540588
0.000218251
-0.00580693
0.000152701
-0.00617192
6.70622e-05
-0.00651199
-3.57271e-05
-0.00683876
-0.000152281
-0.00716255
-0.00748972
-0.000278861
1.40582e-05
-0.000438901
4.5639e-05
-0.00122738
8.58971e-05
-0.00197599
0.000126302
-0.00267933
0.000159067
-0.00333083
0.000177646
-0.00392524
0.000177115
-0.00446011
0.000154376
-0.0049366
0.000108129
-0.00535963
3.86355e-05
-0.00573743
-5.26375e-05
-0.00608064
-0.000163388
-0.00640124
-0.000290776
-0.00671137
-0.000431517
-0.00702181
-0.00733995
-0.000581291
1.14127e-05
-0.000450313
3.55695e-05
-0.00125154
6.38857e-05
-0.00200431
8.8253e-05
-0.0027037
0.000101502
-0.00334407
9.78586e-05
-0.00392159
7.32774e-05
-0.00443553
2.5512e-05
-0.00488883
-4.60005e-05
-0.00528812
-0.000140445
-0.00564299
-0.000256075
-0.00596501
-0.000390588
-0.00626673
-0.000541346
-0.00656061
-0.000705234
-0.00685792
-0.00716691
-0.000878274
8.5371e-06
-0.000458851
2.47904e-05
-0.00126779
4.06175e-05
-0.00202013
4.84994e-05
-0.00271158
4.20272e-05
-0.0033376
1.62898e-05
-0.00389586
-3.18942e-05
-0.00438734
-0.000103906
-0.00481682
-0.000199607
-0.00519242
-0.000317739
-0.00552485
-0.000456367
-0.00582639
-0.000613288
-0.00610981
-0.000786203
-0.0063877
-0.000972401
-0.00667172
-0.0069713
-0.00116801
5.46715e-06
-0.000464318
1.34285e-05
-0.00127575
1.63631e-05
-0.00202307
7.51782e-06
-0.00270274
-1.8717e-05
-0.00331137
-6.63002e-05
-0.00384827
-0.000137459
-0.00431619
-0.000232806
-0.00472147
-0.000351597
-0.00507363
-0.000492173
-0.00538428
-0.000652474
-0.00566608
-0.000830459
-0.00593182
-0.0010243
-0.00619386
-0.00123189
-0.00646413
-0.00675386
-0.00144933
2.28664e-06
-0.000466604
1.61122e-06
-0.00127508
-8.61064e-06
-0.00201285
-3.43314e-05
-0.00267702
-8.01448e-05
-0.00326555
-0.000149074
-0.00377934
-0.000242481
-0.00422278
-0.000360224
-0.00460373
-0.000501008
-0.00493284
-0.000662844
-0.00522244
-0.000843573
-0.00548536
-0.00104133
-0.00573407
-0.00125483
-0.00598036
-0.00148286
-0.0062361
-0.00651512
-0.00172161
-1.16988e-06
-0.000465434
-1.0537e-05
-0.00126571
-3.40278e-05
-0.00198936
-7.65166e-05
-0.00263453
-0.000141584
-0.00320049
-0.000231278
-0.00368965
-0.000346109
-0.00410795
-0.000485263
-0.00446458
-0.000646976
-0.00477113
-0.000828993
-0.00504042
-0.00102906
-0.00528529
-0.00124542
-0.00551771
-0.00147731
-0.00574848
-0.0017247
-0.0059887
-0.00625494
-0.00198488
-4.56538e-06
-0.000460869
-2.28439e-05
-0.00124743
-5.95854e-05
-0.00195261
-0.000118613
-0.0025755
-0.000202452
-0.00311665
-0.000312184
-0.00357992
-0.000447522
-0.00397261
-0.000607066
-0.00430503
-0.000788686
-0.00458951
-0.000989947
-0.00483916
-0.00120854
-0.0050667
-0.00144271
-0.00528353
-0.00169196
-0.00549923
-0.00195736
-0.00572331
-0.0059716
-0.00224069
-8.03888e-06
-0.00045283
-3.51824e-05
-0.00122029
-8.50095e-05
-0.00190279
-0.000160191
-0.00250032
-0.000262169
-0.00301467
-0.000391085
-0.003451
-0.000545916
-0.00381778
-0.000724769
-0.00412618
-0.000925267
-0.00438901
-0.00114494
-0.00461949
-0.00138156
-0.00483008
-0.00163353
-0.00503156
-0.00190048
-0.00523228
-0.0021853
-0.00543849
-0.00566489
-0.00249201
-1.15128e-05
-0.000441317
-4.74108e-05
-0.00118439
-0.000110028
-0.00184017
-0.000200835
-0.00240951
-0.000320184
-0.00289532
-0.000467308
-0.00330388
-0.000640506
-0.00364458
-0.000837473
-0.00392921
-0.00105568
-0.0041708
-0.00129275
-0.00438242
-0.0015468
-0.00457603
-0.00181673
-0.00476163
-0.0021022
-0.00494681
-0.00240368
-0.00513701
-0.00533109
-0.00273748
-1.49415e-05
-0.000426376
-5.93913e-05
-0.00113994
-0.000134381
-0.00176518
-0.000240157
-0.00230373
-0.000375991
-0.00275949
-0.000540236
-0.00313963
-0.000730567
-0.00345425
-0.00094431
-0.00371547
-0.00117881
-0.0039363
-0.00143179
-0.00412944
-0.00170158
-0.00430623
-0.00198732
-0.00447589
-0.00228883
-0.00464529
-0.00260725
-0.00481859
-0.00499362
-0.00294472
-1.82845e-05
-0.000408091
-7.09956e-05
-0.00108723
-0.000157833
-0.00167834
-0.000277811
-0.00218376
-0.000429141
-0.00260816
-0.000609343
-0.00295943
-0.000815502
-0.00324809
-0.00104461
-0.00348636
-0.00129387
-0.00368703
-0.00156102
-0.00386229
-0.00184447
-0.00402279
-0.00214332
-0.00417704
-0.00245735
-0.00433127
-0.00278685
-0.00448909
-0.00464971
-0.00313076
-2.15046e-05
-0.000386587
-8.2107e-05
-0.00102663
-0.000180169
-0.00158028
-0.000313491
-0.00205043
-0.000479259
-0.00244239
-0.000674203
-0.00276449
-0.000894868
-0.00302743
-0.00113793
-0.0032433
-0.00140048
-0.00342449
-0.00168021
-0.00358256
-0.00197554
-0.00372746
-0.00228555
-0.00386703
-0.00260986
-0.00400696
-0.00294835
-0.0041506
-0.00429821
-0.00329984
-2.45678e-05
-0.000362019
-9.26214e-05
-0.000958572
-0.000201204
-0.0014717
-0.000346938
-0.0019047
-0.000526032
-0.00226329
-0.000734482
-0.00255604
-0.000968344
-0.00279357
-0.00122402
-0.00298763
-0.00149848
-0.00315003
-0.00178941
-0.00329163
-0.00209524
-0.00342163
-0.00241507
-0.0035472
-0.00274845
-0.00367357
-0.00309519
-0.00380386
-0.00393888
-0.00345453
-2.74438e-05
-0.000334575
-0.000102446
-0.00088357
-0.000220776
-0.00135337
-0.00037793
-0.00174755
-0.000569204
-0.00207202
-0.00078992
-0.00233532
-0.0010357
-0.00254779
-0.0013027
-0.00272063
-0.00158781
-0.00286492
-0.00188874
-0.0029907
-0.00220395
-0.00310641
-0.00253258
-0.00321857
-0.00287426
-0.0033319
-0.00322885
-0.00344927
-0.00357175
-0.00359598
-3.01057e-05
-0.00030447
-0.000111502
-0.000802174
-0.000238745
-0.00122613
-0.000406282
-0.00158001
-0.000608565
-0.00186974
-0.000840308
-0.00210358
-0.00109675
-0.00229135
-0.00137385
-0.00244353
-0.00166845
-0.00257031
-0.00197828
-0.00268087
-0.00230189
-0.0027828
-0.0026385
-0.00288196
-0.00298783
-0.00298257
-0.00334988
-0.00308722
-0.00319703
-0.00372459
-3.25298e-05
-0.00027194
-0.000119717
-0.000714987
-0.000254995
-0.00109085
-0.000431839
-0.00140316
-0.000643942
-0.00165763
-0.000885478
-0.00186204
-0.00115135
-0.00202548
-0.00143738
-0.0021575
-0.00174037
-0.00226733
-0.00205809
-0.00236315
-0.00238919
-0.00245171
-0.00273299
-0.00253816
-0.00308933
-0.00262622
-0.00345838
-0.00271817
-0.00281511
-0.0038403
-3.46953e-05
-0.000237245
-0.000127032
-0.00062265
-0.000269422
-0.000948459
-0.00045447
-0.00121812
-0.000675191
-0.00143691
-0.000925291
-0.00161194
-0.0011994
-0.00175137
-0.0014932
-0.00186369
-0.00180351
-0.00195702
-0.00212814
-0.00203851
-0.00246584
-0.002114
-0.00281606
-0.00218795
-0.00317875
-0.00226353
-0.00355421
-0.00234271
-0.00242651
-0.00394281
-3.65844e-05
-0.00020066
-0.000133396
-0.000525839
-0.000281941
-0.000799914
-0.000474063
-0.00102599
-0.000702191
-0.00120879
-0.000959631
-0.0013545
-0.00124078
-0.00147022
-0.00154124
-0.00156323
-0.00185781
-0.00164045
-0.00218839
-0.00170793
-0.00253182
-0.00177058
-0.00288764
-0.00183213
-0.00325594
-0.00189523
-0.00363713
-0.00196152
-0.00203189
-0.00403174
-3.81818e-05
-0.000162478
-0.000138764
-0.000425256
-0.000292481
-0.000646196
-0.000490528
-0.000827946
-0.000724841
-0.000974472
-0.000988398
-0.00109094
-0.00127541
-0.00118321
-0.00158141
-0.00125724
-0.00190321
-0.00131866
-0.00223877
-0.00137237
-0.00258701
-0.00142234
-0.00294759
-0.00147155
-0.00332069
-0.00152213
-0.00370682
-0.00157539
-0.00163206
-0.00410665
-3.94749e-05
-0.000123004
-0.000143101
-0.00032163
-0.000300983
-0.000488315
-0.000503789
-0.000625141
-0.00074306
-0.0007352
-0.00101151
-0.000822493
-0.00130321
-0.000891507
-0.00161364
-0.000946806
-0.00193963
-0.000992669
-0.0022792
-0.0010328
-0.00263134
-0.0010702
-0.00299578
-0.0011071
-0.00337281
-0.00114511
-0.003763
-0.0011852
-0.00122793
-0.00416713
-4.04535e-05
-8.255e-05
-0.000146379
-0.000215704
-0.0003074
-0.000327294
-0.000513786
-0.000418755
-0.000756781
-0.000492205
-0.0010289
-0.00055037
-0.00132412
-0.000596291
-0.00163788
-0.000633052
-0.00196701
-0.000663532
-0.0023096
-0.000690219
-0.00266468
-0.000715112
-0.00303207
-0.000739716
-0.00341208
-0.000765094
-0.00380539
-0.000791889
-0.00082049
-0.00421283
-4.11102e-05
-4.14398e-05
-0.000148576
-0.000108238
-0.000311697
-0.000164173
-0.000520475
-0.000209976
-0.000765956
-0.000246724
-0.00104053
-0.000275797
-0.00133809
-0.000298731
-0.00165406
-0.000317081
-0.0019853
-0.000332292
-0.0023299
-0.000345615
-0.00268696
-0.000358052
-0.00305632
-0.000370355
-0.00343836
-0.000383056
-0.00383378
-0.000396475
-0.000410811
-0.00424345
-4.14398e-05
4.28617e-14
-0.000149678
1.53602e-13
-0.000313851
2.64248e-13
-0.000523828
3.57468e-13
-0.000770552
4.33015e-13
-0.00104635
4.91849e-13
-0.00134508
5.3568e-13
-0.00166216
5.67148e-13
-0.00199445
5.89233e-13
-0.00234007
6.04699e-13
-0.00269812
6.15282e-13
-0.00306848
6.22576e-13
-0.00345153
6.28271e-13
-0.00384801
6.3239e-13
6.36099e-13
-0.00425882
-4.14398e-05
4.14398e-05
-0.000149678
0.000108238
-0.000313851
0.000164173
-0.000523828
0.000209976
-0.000770552
0.000246724
-0.00104635
0.000275797
-0.00134508
0.000298731
-0.00166216
0.000317081
-0.00199445
0.000332292
-0.00234007
0.000345615
-0.00269812
0.000358052
-0.00306848
0.000370355
-0.00345153
0.000383056
-0.00384801
0.000396475
0.000410811
-0.00425882
-4.11102e-05
8.255e-05
-0.000148576
0.000215704
-0.000311697
0.000327294
-0.000520475
0.000418755
-0.000765956
0.000492205
-0.00104053
0.00055037
-0.00133809
0.000596291
-0.00165406
0.000633052
-0.0019853
0.000663532
-0.0023299
0.000690219
-0.00268696
0.000715112
-0.00305632
0.000739716
-0.00343836
0.000765094
-0.00383378
0.000791889
0.00082049
-0.00424345
-4.04535e-05
0.000123004
-0.000146379
0.00032163
-0.0003074
0.000488315
-0.000513786
0.000625141
-0.000756781
0.0007352
-0.0010289
0.000822493
-0.00132412
0.000891507
-0.00163788
0.000946806
-0.00196701
0.000992669
-0.0023096
0.0010328
-0.00266468
0.0010702
-0.00303207
0.0011071
-0.00341208
0.00114511
-0.00380539
0.0011852
0.00122793
-0.00421283
-3.94749e-05
0.000162478
-0.000143101
0.000425256
-0.000300983
0.000646196
-0.000503789
0.000827946
-0.00074306
0.000974472
-0.00101151
0.00109094
-0.00130321
0.00118321
-0.00161364
0.00125724
-0.00193963
0.00131866
-0.0022792
0.00137237
-0.00263134
0.00142234
-0.00299578
0.00147155
-0.00337281
0.00152213
-0.003763
0.00157539
0.00163206
-0.00416713
-3.81818e-05
0.00020066
-0.000138764
0.000525839
-0.000292481
0.000799914
-0.000490528
0.00102599
-0.000724841
0.00120879
-0.000988398
0.0013545
-0.00127541
0.00147022
-0.00158141
0.00156323
-0.00190321
0.00164045
-0.00223877
0.00170793
-0.00258701
0.00177058
-0.00294759
0.00183213
-0.00332069
0.00189523
-0.00370682
0.00196152
0.00203189
-0.00410665
-3.65844e-05
0.000237245
-0.000133396
0.00062265
-0.000281941
0.000948459
-0.000474063
0.00121812
-0.000702191
0.00143691
-0.000959631
0.00161194
-0.00124078
0.00175137
-0.00154124
0.00186369
-0.00185781
0.00195702
-0.00218839
0.00203851
-0.00253182
0.002114
-0.00288764
0.00218795
-0.00325594
0.00226353
-0.00363713
0.00234271
0.00242651
-0.00403174
-3.46953e-05
0.00027194
-0.000127032
0.000714987
-0.000269422
0.00109085
-0.00045447
0.00140316
-0.000675191
0.00165763
-0.000925291
0.00186204
-0.0011994
0.00202548
-0.0014932
0.0021575
-0.00180351
0.00226733
-0.00212814
0.00236315
-0.00246584
0.00245171
-0.00281606
0.00253816
-0.00317875
0.00262622
-0.00355421
0.00271817
0.00281511
-0.00394281
-3.25298e-05
0.00030447
-0.000119717
0.000802174
-0.000254995
0.00122613
-0.000431839
0.00158001
-0.000643942
0.00186974
-0.000885478
0.00210358
-0.00115135
0.00229135
-0.00143738
0.00244353
-0.00174037
0.00257031
-0.00205809
0.00268087
-0.00238919
0.0027828
-0.00273299
0.00288196
-0.00308933
0.00298257
-0.00345838
0.00308722
0.00319703
-0.0038403
-3.01057e-05
0.000334575
-0.000111502
0.00088357
-0.000238745
0.00135337
-0.000406282
0.00174755
-0.000608565
0.00207202
-0.000840308
0.00233532
-0.00109675
0.00254779
-0.00137385
0.00272063
-0.00166845
0.00286492
-0.00197828
0.0029907
-0.00230189
0.00310641
-0.0026385
0.00321857
-0.00298783
0.0033319
-0.00334988
0.00344927
0.00357175
-0.00372459
-2.74438e-05
0.000362019
-0.000102446
0.000958572
-0.000220776
0.0014717
-0.00037793
0.0019047
-0.000569204
0.00226329
-0.00078992
0.00255604
-0.0010357
0.00279357
-0.0013027
0.00298763
-0.00158781
0.00315003
-0.00188874
0.00329163
-0.00220395
0.00342163
-0.00253258
0.0035472
-0.00287426
0.00367357
-0.00322885
0.00380386
0.00393888
-0.00359598
-2.45678e-05
0.000386587
-9.26214e-05
0.00102663
-0.000201204
0.00158028
-0.000346938
0.00205043
-0.000526032
0.00244239
-0.000734482
0.00276449
-0.000968344
0.00302743
-0.00122402
0.0032433
-0.00149848
0.00342449
-0.00178941
0.00358256
-0.00209524
0.00372746
-0.00241507
0.00386703
-0.00274845
0.00400696
-0.00309519
0.0041506
0.00429821
-0.00345453
-2.15046e-05
0.000408091
-8.2107e-05
0.00108723
-0.000180169
0.00167834
-0.000313491
0.00218376
-0.000479259
0.00260816
-0.000674203
0.00295943
-0.000894868
0.00324809
-0.00113793
0.00348636
-0.00140048
0.00368703
-0.00168021
0.00386229
-0.00197554
0.00402279
-0.00228555
0.00417704
-0.00260986
0.00433127
-0.00294835
0.00448909
0.00464971
-0.00329984
-1.82845e-05
0.000426376
-7.09956e-05
0.00113994
-0.000157833
0.00176518
-0.000277811
0.00230373
-0.000429141
0.00275949
-0.000609343
0.00313963
-0.000815502
0.00345425
-0.00104461
0.00371547
-0.00129387
0.0039363
-0.00156102
0.00412944
-0.00184447
0.00430623
-0.00214332
0.00447589
-0.00245735
0.00464529
-0.00278685
0.00481859
0.00499362
-0.00313076
-1.49415e-05
0.000441317
-5.93913e-05
0.00118439
-0.000134381
0.00184017
-0.000240157
0.00240951
-0.000375991
0.00289532
-0.000540236
0.00330388
-0.000730567
0.00364458
-0.00094431
0.00392921
-0.00117881
0.0041708
-0.00143179
0.00438242
-0.00170158
0.00457603
-0.00198732
0.00476163
-0.00228883
0.00494681
-0.00260725
0.00513701
0.00533109
-0.00294472
-1.15128e-05
0.00045283
-4.74108e-05
0.00122029
-0.000110028
0.00190279
-0.000200835
0.00250032
-0.000320184
0.00301467
-0.000467308
0.003451
-0.000640506
0.00381778
-0.000837473
0.00412618
-0.00105568
0.00438901
-0.00129275
0.00461949
-0.0015468
0.00483008
-0.00181673
0.00503156
-0.0021022
0.00523228
-0.00240368
0.00543849
0.00566489
-0.00273748
-8.03888e-06
0.000460869
-3.51824e-05
0.00124743
-8.50095e-05
0.00195261
-0.000160191
0.0025755
-0.000262169
0.00311665
-0.000391085
0.00357992
-0.000545916
0.00397261
-0.000724769
0.00430503
-0.000925267
0.00458951
-0.00114494
0.00483916
-0.00138156
0.0050667
-0.00163353
0.00528353
-0.00190048
0.00549923
-0.0021853
0.00572331
0.0059716
-0.00249201
-4.56538e-06
0.000465434
-2.28439e-05
0.00126571
-5.95854e-05
0.00198936
-0.000118613
0.00263453
-0.000202452
0.00320049
-0.000312184
0.00368965
-0.000447522
0.00410795
-0.000607066
0.00446458
-0.000788686
0.00477113
-0.000989947
0.00504042
-0.00120854
0.00528529
-0.00144271
0.00551771
-0.00169196
0.00574848
-0.00195736
0.0059887
0.00625494
-0.00224069
-1.16988e-06
0.000466604
-1.0537e-05
0.00127508
-3.40278e-05
0.00201285
-7.65166e-05
0.00267702
-0.000141584
0.00326555
-0.000231278
0.00377934
-0.000346109
0.00422278
-0.000485263
0.00460373
-0.000646976
0.00493284
-0.000828993
0.00522244
-0.00102906
0.00548536
-0.00124542
0.00573407
-0.00147731
0.00598036
-0.0017247
0.0062361
0.00651512
-0.00198488
2.28664e-06
0.000464318
1.61122e-06
0.00127575
-8.61064e-06
0.00202307
-3.43314e-05
0.00270274
-8.01448e-05
0.00331137
-0.000149074
0.00384827
-0.000242481
0.00431619
-0.000360224
0.00472147
-0.000501008
0.00507363
-0.000662844
0.00538428
-0.000843573
0.00566608
-0.00104133
0.00593182
-0.00125483
0.00619386
-0.00148286
0.00646413
0.00675386
-0.00172161
5.46715e-06
0.000458851
1.34285e-05
0.00126779
1.63631e-05
0.00202013
7.51782e-06
0.00271158
-1.8717e-05
0.0033376
-6.63002e-05
0.00389586
-0.000137459
0.00438734
-0.000232806
0.00481682
-0.000351597
0.00519242
-0.000492173
0.00552485
-0.000652474
0.00582639
-0.000830459
0.00610981
-0.0010243
0.0063877
-0.00123189
0.00667172
0.0069713
-0.00144933
8.5371e-06
0.000450313
2.47904e-05
0.00125154
4.06175e-05
0.00200431
4.84994e-05
0.0027037
4.20272e-05
0.00334407
1.62898e-05
0.00392159
-3.18942e-05
0.00443553
-0.000103906
0.00488883
-0.000199607
0.00528812
-0.000317739
0.00564299
-0.000456367
0.00596501
-0.000613288
0.00626673
-0.000786203
0.00656061
-0.000972401
0.00685792
0.00716691
-0.00116801