/*--------------------------------*- C++ -*----------------------------------*\
  =========                 |
  \\      /  F ield         | OpenFOAM: The Open Source CFD Toolbox
   \\    /   O peration     | Website:  https://openfoam.org
    \\  /    A nd           | Version:  7
     \\/     M anipulation  |
\*---------------------------------------------------------------------------*/
FoamFile
{
    version     2.0;
    format      ascii;
    class       volVectorField;
    location    "25";
    object      U;
}
// * * * * * * * * * * * * * * * * * * * * * * * * * * * * * * * * * * * * * //

dimensions      [0 1 -1 0 0 0 0];

internalField   nonuniform List<vector> 
12150
(
(-0.000608066 0.000665906 -6.81749e-22)
(-0.0029801 0.00146551 6.84995e-22)
(-0.00709168 0.0018729 -3.25502e-21)
(-0.0116958 0.00199471 3.74852e-21)
(-0.016198 0.00190469 -3.67758e-21)
(-0.0202299 0.0016615 -5.38081e-21)
(-0.0235213 0.00131404 -3.3109e-23)
(-0.0259039 0.000903817 8.76355e-22)
(-0.0272995 0.000467731 -8.11605e-22)
(-0.0277078 4.05431e-05 8.22411e-23)
(-0.0272011 -0.000343304 4.57473e-21)
(-0.025927 -0.000648837 3.90512e-21)
(-0.0241022 -0.000842865 -4.5056e-21)
(-0.0219658 -0.000899817 -4.20495e-21)
(-0.0198873 -0.000782566 -6.6377e-22)
(-0.000731279 0.00197167 1.95175e-21)
(-0.00319271 0.00433355 -1.9616e-21)
(-0.007231 0.00553219 -3.63777e-21)
(-0.0116455 0.00588346 1.25709e-20)
(-0.0158652 0.0056063 -1.48352e-21)
(-0.019538 0.00487507 -8.22211e-22)
(-0.0224066 0.00383498 1.14988e-20)
(-0.0243126 0.00260922 3.65289e-21)
(-0.0251849 0.00130744 1.53104e-21)
(-0.0250282 3.3133e-05 -2.00635e-21)
(-0.0239186 -0.00111068 -8.7988e-21)
(-0.0220089 -0.00201887 1.11785e-20)
(-0.0195284 -0.0025906 -3.82176e-21)
(-0.0167106 -0.00274449 -2.94512e-21)
(-0.0138469 -0.00236915 5.18715e-21)
(-0.000968514 0.00320027 1.80481e-20)
(-0.00359535 0.00701494 -1.31509e-20)
(-0.00747804 0.00893512 5.76487e-21)
(-0.0115072 0.00947389 -1.6957e-20)
(-0.015158 0.00898882 2.75636e-20)
(-0.01811 0.00776497 -1.11267e-20)
(-0.0201321 0.00603943 -1.07865e-20)
(-0.0210852 0.00401326 7.83563e-22)
(-0.0209122 0.00186561 -1.15663e-20)
(-0.0196277 -0.000233774 1.15458e-20)
(-0.0173151 -0.00211449 -1.59981e-20)
(-0.0141371 -0.00360106 -7.86255e-21)
(-0.0103462 -0.00452286 -1.73452e-21)
(-0.00617688 -0.0047197 4.7595e-21)
(-0.00173663 -0.00394448 3.77137e-21)
(-0.00130171 0.00430349 6.54354e-21)
(-0.00414344 0.00939274 2.72474e-21)
(-0.00777032 0.0119211 2.10971e-20)
(-0.0112061 0.0125794 2.81231e-20)
(-0.0139932 0.0118533 -1.545e-20)
(-0.0158582 0.0101305 1.62978e-21)
(-0.0166079 0.00773283 -5.7836e-21)
(-0.016132 0.00493285 3.72314e-21)
(-0.0143942 0.00197377 6.32873e-21)
(-0.0114235 -0.000912826 9.98925e-21)
(-0.00731467 -0.00349183 -2.48334e-20)
(-0.00224472 -0.00551753 1.24099e-20)
(0.00351352 -0.00674626 2.77854e-20)
(0.00975863 -0.00691037 -4.15004e-20)
(0.0163275 -0.00559982 -3.40998e-21)
(-0.00170456 0.0052377 -1.68122e-20)
(-0.00477172 0.0113608 -3.17178e-22)
(-0.00801587 0.0143444 -1.89452e-20)
(-0.0106315 0.0150313 -5.53045e-20)
(-0.0122477 0.0140212 3.75894e-20)
(-0.0126516 0.0117934 -4.2238e-20)
(-0.0116996 0.00874497 3.28214e-20)
(-0.0093187 0.00521142 2.99766e-21)
(-0.00549991 0.00149235 2.86591e-20)
(-0.00029191 -0.00212549 -1.16414e-20)
(0.00619613 -0.00534677 7.50798e-21)
(0.0137666 -0.00785721 1.41292e-20)
(0.0221223 -0.00933347 -3.17267e-20)
(0.0311172 -0.00938072 3.88579e-20)
(0.0405211 -0.00742191 8.41145e-21)
(-0.00214335 0.00596531 2.82968e-20)
(-0.00539596 0.0128276 -4.85558e-20)
(-0.00809526 0.0160795 1.03693e-20)
(-0.00963916 0.0166854 4.76021e-20)
(-0.00976017 0.0153414 -3.88163e-20)
(-0.00831812 0.0126059 3.76851e-20)
(-0.00522936 0.00893905 2.38636e-20)
(-0.000466782 0.00472916 -3.91387e-20)
(0.00594491 0.000322278 9.03156e-21)
(0.0139325 -0.00394848 2.60658e-20)
(0.0233682 -0.00773476 -3.38215e-20)
(0.0340298 -0.0106575 5.39511e-20)
(0.0455857 -0.0123068 -9.74484e-21)
(0.0579466 -0.0121312 -2.53696e-20)
(0.0708575 -0.00934027 -1.04454e-20)
(-0.00257798 0.00645587 -4.22166e-20)
(-0.0059151 0.0137184 6.14877e-21)
(-0.00786428 0.0170254 2.48491e-20)
(-0.00805365 0.0174271 -5.09166e-20)
(-0.00633346 0.0156971 2.45822e-20)
(-0.00264659 0.0124579 3.32944e-20)
(0.00302159 0.00821994 3.36833e-20)
(0.0106444 0.00341196 -6.67424e-22)
(0.0201567 -0.00158477 -3.85846e-20)
(0.0314552 -0.00640186 -5.59076e-20)
(0.0443892 -0.0106485 4.90435e-20)
(0.0587075 -0.0138881 6.17917e-21)
(0.0740349 -0.0156237 -1.09838e-20)
(0.0903362 -0.0151091 2.53956e-20)
(0.107372 -0.0112494 6.99511e-20)
(-0.0029631 0.00668672 2.17122e-20)
(-0.00621369 0.0139781 9.31554e-21)
(-0.00715716 0.0171093 -3.26067e-21)
(-0.00567255 0.0171768 1.61109e-20)
(-0.00173896 0.0150112 -2.08327e-20)
(0.00460898 0.0112838 -8.42912e-20)
(0.0133089 0.00654084 -2.29239e-20)
(0.0242734 0.00123882 -9.31251e-20)
(0.0373898 -0.00421812 7.22251e-20)
(0.0525182 -0.00943964 -2.46473e-20)
(0.0694791 -0.0140063 -9.2034e-22)
(0.0879881 -0.0174374 -2.99229e-20)
(0.107617 -0.0191566 -4.19704e-20)
(0.128385 -0.0181866 -2.90567e-20)
(0.150116 -0.0130105 -3.11206e-21)
(-0.00324923 0.0066433 3.21003e-20)
(-0.00616491 0.0135739 7.09264e-21)
(-0.00579002 0.0162893 6.27095e-20)
(-0.00227082 0.0158927 -1.75429e-20)
(0.00427794 0.0132508 5.26899e-20)
(0.0137231 0.0090668 2.72332e-20)
(0.0259186 0.00390845 3.84529e-20)
(0.0407094 -0.00175272 1.34303e-21)
(0.0579282 -0.00750256 2.73926e-21)
(0.0773905 -0.012943 1.10881e-20)
(0.0988804 -0.0176432 -1.47614e-20)
(0.122074 -0.0210994 3.80475e-20)
(0.14648 -0.0226764 9.10832e-21)
(0.172174 -0.0211428 -3.36031e-20)
(0.199108 -0.0144271 1.50127e-20)
(-0.00338302 0.00632027 -3.15396e-20)
(-0.00563319 0.0124945 -3.60572e-21)
(-0.00356691 0.0145559 -4.60709e-20)
(0.00239326 0.0135747 1.21922e-20)
(0.011991 0.0104308 -1.43776e-20)
(0.0249903 0.00584281 4.93167e-21)
(0.0411563 0.000386314 4.21379e-21)
(0.0602602 -0.00546442 -4.22128e-20)
(0.0820724 -0.0112971 3.83405e-20)
(0.106354 -0.0167199 2.31256e-20)
(0.132841 -0.0213095 -5.8528e-20)
(0.161161 -0.0245668 -5.75403e-20)
(0.19075 -0.0258367 3.25583e-20)
(0.221731 -0.0236378 -1.39797e-20)
(0.254275 -0.0152133 -6.13771e-21)
(-0.00331005 0.00572058 -8.50902e-20)
(-0.00447735 0.0107511 1.48938e-20)
(-0.000283258 0.011935 1.87713e-21)
(0.00857016 0.0102669 1.21995e-20)
(0.0216831 0.00661615 3.48098e-20)
(0.0387132 0.00170247 -9.78616e-20)
(0.0593335 -0.00390439 8.20836e-20)
(0.0832357 -0.00973849 -7.24229e-20)
(0.11012 -0.0153992 2.72333e-20)
(0.139681 -0.0205123 1.83099e-20)
(0.171593 -0.0246797 3.29735e-20)
(0.20542 -0.0274391 9.15409e-21)
(0.240511 -0.0281724 -1.67599e-21)
(0.277023 -0.0251973 -3.56006e-20)
(0.315457 -0.0149694 2.66589e-20)
(-0.00297461 0.00485555 2.66431e-20)
(-0.00255431 0.00837881 3.09192e-20)
(0.00426841 0.00848722 -1.32363e-19)
(0.0165126 0.00605555 4.20305e-20)
(0.0336352 0.00192221 2.22342e-20)
(0.0551885 -0.00320844 -4.80317e-20)
(0.0807491 -0.00878594 -3.48381e-20)
(0.109925 -0.0143619 -6.00203e-20)
(0.142337 -0.0195541 1.25811e-20)
(0.177603 -0.0240128 -4.42047e-21)
(0.215318 -0.0273767 4.37035e-20)
(0.25496 -0.0292497 1.82982e-20)
(0.295772 -0.0291242 3.28026e-20)
(0.337926 -0.0252229 3.13451e-21)
(0.382361 -0.0131897 2.25064e-20)
(-0.00232131 0.00374535 2.03527e-20)
(0.000276852 0.00543665 -7.79089e-20)
(0.0102893 0.00430869 7.51354e-20)
(0.0264636 0.00107389 -7.63369e-20)
(0.0481147 -0.00348234 4.82988e-20)
(0.0746891 -0.00868891 2.01224e-20)
(0.105667 -0.0140266 3.41522e-20)
(0.140568 -0.0190732 7.52995e-20)
(0.178928 -0.0234693 -3.5409e-20)
(0.220274 -0.0268894 -2.9812e-20)
(0.264103 -0.0290082 -2.30524e-20)
(0.309778 -0.0295086 -9.11914e-21)
(0.356409 -0.0280513 2.569e-20)
(0.404135 -0.0228838 -6.86929e-20)
(0.454477 -0.00903073 -1.79489e-20)
(-0.00129628 0.00241894 -2.44604e-20)
(0.00415151 0.00200741 -7.22475e-21)
(0.01797 -0.000467265 -5.75942e-20)
(0.0386461 -0.00449832 3.6817e-20)
(0.0653572 -0.00937815 -4.08982e-20)
(0.0974446 -0.0144847 -1.22775e-20)
(0.134291 -0.0193443 -1.49175e-21)
(0.175324 -0.0235711 3.52406e-20)
(0.219992 -0.0268324 2.0416e-19)
(0.267727 -0.0288218 -1.4528e-19)
(0.317911 -0.0292326 9.33431e-20)
(0.369766 -0.0277961 -7.62698e-20)
(0.422211 -0.0242686 3.20279e-20)
(0.475102 -0.016871 -1.02976e-20)
(0.530238 -0.000778429 4.70843e-20)
(0.000151414 0.000913821 5.04862e-20)
(0.00919492 -0.0018027 1.19158e-20)
(0.0274819 -0.00567268 -3.00812e-20)
(0.0532536 -0.010439 -3.93587e-20)
(0.0855546 -0.0154961 1.2751e-20)
(0.123621 -0.02029 8.46296e-20)
(0.166736 -0.0244101 2.79017e-20)
(0.214237 -0.0275217 -4.35367e-20)
(0.265481 -0.0293296 -6.38249e-20)
(0.319818 -0.0295492 4.32151e-20)
(0.37654 -0.027878 1.1867e-19)
(0.434794 -0.0240162 -8.54638e-20)
(0.493446 -0.0175106 -3.65207e-20)
(0.551717 -0.00627315 9.09792e-21)
(0.60988 0.0121267 9.2199e-22)
(0.0020685 -0.000724119 -5.51959e-20)
(0.0155177 -0.00586476 -1.67306e-20)
(0.0389697 -0.0111057 8.88908e-20)
(0.0704382 -0.0164832 -4.88236e-21)
(0.108839 -0.0215192 -8.79893e-20)
(0.153302 -0.0257496 4.46368e-20)
(0.203007 -0.0288485 1.23518e-19)
(0.257192 -0.0305558 -3.73141e-20)
(0.315127 -0.0306404 -3.82756e-20)
(0.376088 -0.0288729 -3.27365e-20)
(0.439341 -0.0249949 -2.39725e-20)
(0.504158 -0.0186661 -1.94993e-21)
(0.570051 -0.00905271 5.31024e-20)
(0.636907 0.00550578 -4.46589e-20)
(0.703081 0.0198468 2.14141e-20)
(0.00449599 -0.00244081 3.92599e-20)
(0.023212 -0.0100285 1.28867e-20)
(0.0525444 -0.0165333 2.08358e-20)
(0.0903009 -0.0223275 -4.72202e-20)
(0.135272 -0.0270874 -5.70924e-20)
(0.186476 -0.0304622 -4.66191e-20)
(0.242979 -0.0322363 -2.94838e-20)
(0.303905 -0.0322536 -7.86926e-20)
(0.368416 -0.0303867 8.77649e-21)
(0.435694 -0.0265221 5.10504e-20)
(0.50494 -0.0205492 3.71018e-20)
(0.575439 -0.01232 -1.9157e-20)
(0.646888 -0.00135763 4.03385e-20)
(0.719311 0.0124228 2.67436e-20)
(0.789371 0.0212724 1.11862e-19)
(0.00746772 -0.00417473 6.60522e-20)
(0.0323468 -0.0141246 1.90794e-20)
(0.0682771 -0.0216954 1.05219e-19)
(0.112884 -0.0276366 -1.30572e-19)
(0.164835 -0.031806 -1.07764e-21)
(0.223029 -0.0339905 -6.05163e-20)
(0.286403 -0.0341107 -6.69231e-20)
(0.353948 -0.032143 8.5037e-20)
(0.424683 -0.028098 2.02216e-20)
(0.49765 -0.0220192 5.28073e-20)
(0.571911 -0.0139908 -7.93741e-20)
(0.646603 -0.00411824 -7.756e-20)
(0.721171 0.0076559 -1.03514e-20)
(0.795082 0.0206101 -4.70363e-20)
(0.864163 0.0277586 1.00054e-22)
(0.0110091 -0.00585785 -3.39352e-20)
(0.0429645 -0.0179678 -3.64074e-20)
(0.086193 -0.0263111 -6.38302e-20)
(0.138165 -0.032053 -1.66135e-20)
(0.197426 -0.03526 2.79372e-20)
(0.262746 -0.0358809 5.43056e-20)
(0.33292 -0.0339969 1.1216e-19)
(0.406778 -0.029742 -1.13494e-19)
(0.483173 -0.0232887 -7.37821e-20)
(0.560966 -0.0148566 -2.93376e-20)
(0.639034 -0.00472706 1.01679e-19)
(0.716296 0.00677068 -2.47425e-20)
(0.791843 0.0193946 4.45127e-20)
(0.864563 0.0321572 -3.759e-20)
(0.9302 0.0396135 3.11847e-21)
(0.0151358 -0.00741653 -1.00195e-19)
(0.055077 -0.021361 -3.08208e-20)
(0.106266 -0.030086 1.14154e-19)
(0.16605 -0.035209 -1.94879e-20)
(0.232853 -0.037031 2.38165e-20)
(0.30531 -0.0356869 -3.71813e-20)
(0.382059 -0.0314419 -1.48566e-21)
(0.461754 -0.0246087 4.50499e-20)
(0.543063 -0.0155383 5.08708e-20)
(0.624657 -0.00463269 6.68284e-20)
(0.705221 0.00764205 -9.83289e-20)
(0.78347 0.0207767 1.26026e-20)
(0.858215 0.0343325 5.36022e-20)
(0.927999 0.0472907 -7.37022e-20)
(0.988914 0.0556929 2.17325e-20)
(0.0198517 -0.00877278 4.40611e-20)
(0.0686619 -0.0240994 9.33903e-20)
(0.128415 -0.0327214 -4.46163e-20)
(0.196368 -0.0367398 1.94753e-20)
(0.270832 -0.036716 -2.31343e-20)
(0.3503 -0.0329945 2.25273e-20)
(0.433244 -0.0260459 2.61723e-20)
(0.518139 -0.0163804 -9.50167e-20)
(0.603469 -0.00453852 5.25622e-20)
(0.687728 0.00889517 -7.94111e-20)
(0.769441 0.0232885 7.3696e-20)
(0.847186 0.0379927 -3.93429e-20)
(0.919623 0.0524462 6.65156e-20)
(0.985194 0.0656996 2.46536e-20)
(1.04054 0.0750365 -3.51916e-20)
(0.025148 -0.00984575 4.80348e-20)
(0.0836589 -0.0259757 -2.96285e-20)
(0.152497 -0.0339227 3.68925e-20)
(0.228872 -0.036297 -2.99791e-20)
(0.310987 -0.0339449 5.22307e-20)
(0.397196 -0.027443 -2.66699e-20)
(0.485805 -0.0174873 5.92147e-20)
(0.57512 -0.00480015 -6.61359e-20)
(0.663461 0.00988133 8.46134e-21)
(0.749182 0.025796 9.26952e-20)
(0.830712 0.0421668 -2.68027e-20)
(0.906584 0.0582429 1.00648e-20)
(0.975454 0.0733953 -4.84235e-20)
(1.03586 0.0867899 -4.99714e-20)
(1.08507 0.0966937 2.42919e-20)
(0.0310007 -0.0105533 -6.63056e-20)
(0.0999673 -0.0267861 -6.5447e-21)
(0.17831 -0.0334094 -5.43847e-21)
(0.263235 -0.0335621 2.50508e-21)
(0.352854 -0.0283971 4.96296e-20)
(0.445387 -0.0187438 -7.82446e-20)
(0.538992 -0.0055405 9.08002e-20)
(0.631826 0.010268 -6.77138e-20)
(0.722084 0.0277476 -4.31391e-20)
(0.808044 0.0459729 1.62783e-20)
(0.88812 0.064048 -3.41576e-20)
(0.960905 0.0811582 1.28683e-20)
(1.02519 0.0966554 4.09711e-20)
(1.07975 0.109851 3.42021e-20)
(1.12252 0.11977 1.20485e-20)
(0.0373701 -0.0108143 5.45226e-20)
(0.117444 -0.0263358 1.33303e-22)
(0.205587 -0.030925 -1.43476e-20)
(0.299053 -0.0282589 -3.14665e-20)
(0.395885 -0.0198157 -6.31844e-21)
(0.494188 -0.00669452 2.38665e-20)
(0.591994 0.00991229 -4.2593e-20)
(0.687355 0.0288341 -1.3074e-20)
(0.778398 0.0489476 1.35819e-20)
(0.8634 0.0691843 1.53753e-20)
(0.940855 0.0885634 1.89444e-20)
(1.00953 0.106249 7.48373e-21)
(1.06845 0.121622 -1.42535e-20)
(1.11677 0.134167 2.21911e-20)
(1.15306 0.14349 -4.79862e-21)
(0.0441987 -0.0105508 1.02895e-19)
(0.135901 -0.0244461 -3.12627e-20)
(0.234 -0.0262465 -2.93313e-20)
(0.335855 -0.0201656 -5.57395e-20)
(0.439467 -0.00801947 2.8951e-20)
(0.542854 0.00881132 1.20959e-20)
(0.643969 0.0288763 4.61313e-20)
(0.740807 0.050785 1.80421e-20)
(0.831505 0.0732434 -3.73668e-20)
(0.914425 0.0950723 -2.3265e-20)
(0.988243 0.115249 1.6981e-20)
(1.05199 0.132964 -3.4556e-20)
(1.10505 0.14768 -1.8052e-20)
(1.14698 0.159082 7.67298e-21)
(1.17696 0.167218 -2.67e-20)
(0.0514118 -0.00969076 -4.42804e-20)
(0.155109 -0.0209611 1.67788e-20)
(0.263165 -0.0191939 3.31621e-20)
(0.373106 -0.00912465 -2.8411e-20)
(0.482929 0.00708809 2.00676e-20)
(0.590608 0.0277786 -5.13101e-20)
(0.694066 0.0512445 2.06877e-20)
(0.791318 0.0758933 6.47896e-20)
(0.880588 0.100292 -1.51166e-20)
(0.960423 0.123193 4.75439e-20)
(1.02977 0.143585 -6.90192e-20)
(1.08801 0.160738 4.81757e-20)
(1.13494 0.174247 -1.54591e-20)
(1.17057 0.184025 -1.46974e-20)
(1.19463 0.190459 2.49929e-20)
(0.0589165 -0.00817147 4.03271e-20)
(0.1748 -0.0157552 4.32325e-20)
(0.292649 -0.00963976 -3.61656e-20)
(0.410225 0.00494808 2.31404e-20)
(0.525567 0.0255122 -1.00969e-20)
(0.636659 0.0501091 -9.45815e-21)
(0.741461 0.0768031 -1.94141e-20)
(0.838085 0.103831 2.10941e-20)
(0.924938 0.129665 -1.28952e-20)
(1.00084 0.153045 -2.87105e-21)
(1.06508 0.173029 -2.11154e-20)
(1.11748 0.189024 7.76695e-22)
(1.15825 0.200801 -2.32494e-20)
(1.18787 0.208525 1.36678e-20)
(1.20655 0.212845 1.15396e-20)
(0.0666038 -0.00594225 2.98179e-21)
(0.194668 -0.00873938 -2.29032e-20)
(0.321978 0.00248377 4.35716e-21)
(0.446596 0.0220568 3.04731e-20)
(0.566663 0.0471638 -2.70062e-20)
(0.680232 0.0756036 1.52962e-20)
(0.785379 0.10524 -1.91461e-20)
(0.8804 0.134186 -2.77732e-21)
(0.963969 0.160875 5.83531e-21)
(1.03526 0.184099 1.17163e-20)
(1.094 0.203045 -6.12569e-23)
(1.14043 0.217312 1.64162e-21)
(1.17524 0.226889 -9.17764e-22)
(1.19931 0.232206 -4.89677e-21)
(1.21326 0.234117 4.8028e-21)
(0.0743495 -0.00296764 3.72091e-21)
(0.214379 0.00013221 -4.48017e-21)
(0.350648 0.0171778 -3.87785e-20)
(0.481589 0.0421212 3.83012e-21)
(0.605505 0.0718591 1.41927e-21)
(0.720591 0.103968 2.4485e-21)
(0.825121 0.136158 -1.86782e-20)
(0.91766 0.166479 4.6885e-21)
(0.997238 0.193394 -8.42904e-21)
(1.06345 0.215814 7.33923e-21)
(1.11648 0.23312 -4.77337e-22)
(1.15705 0.245147 -1.96347e-21)
(1.18626 0.252135 3.181e-21)
(1.20536 0.254779 5.70813e-21)
(1.21528 0.254098 1.15404e-21)
(0.0820171 0.000769754 5.16996e-21)
(0.233579 0.0108571 -6.6779e-22)
(0.378142 0.0343723 1.09197e-21)
(0.514574 0.0649753 -5.83082e-21)
(0.641408 0.0993234 1.00379e-20)
(0.757059 0.13482 6.03443e-21)
(0.86008 0.169089 -9.71807e-22)
(0.949389 0.200185 -2.31802e-21)
(1.02444 0.226675 4.21142e-22)
(1.0853 0.247663 2.22477e-21)
(1.13263 0.262778 -6.07866e-21)
(1.16762 0.272131 1.73076e-21)
(1.19174 0.276227 3.6106e-21)
(1.20653 0.276024 -5.19942e-21)
(1.21315 0.272669 4.69378e-22)
(0.0894615 0.00526699 -6.52296e-21)
(0.251901 0.0233805 2.46161e-21)
(0.40394 0.0539237 5.07092e-21)
(0.544943 0.0903681 -5.55225e-21)
(0.673738 0.129196 5.12569e-21)
(0.78904 0.167706 7.18275e-21)
(0.889758 0.203507 7.41538e-23)
(0.975237 0.234745 -6.46466e-21)
(1.0454 0.260171 5.56235e-21)
(1.10083 0.279142 -1.11015e-22)
(1.14265 0.291588 -4.15941e-21)
(1.17247 0.29792 -3.27339e-21)
(1.1921 0.298915 3.62651e-21)
(1.20329 0.295776 1.40632e-21)
(1.20736 0.289755 -1.03264e-21)
(0.0965325 0.010499 -1.08481e-20)
(0.268977 0.0375935 -1.02008e-20)
(0.427537 0.0756149 -6.22015e-21)
(0.572122 0.117968 -1.81062e-20)
(0.701926 0.16104 1.03738e-20)
(0.816031 0.202105 -1.41183e-20)
(0.913775 0.238849 -7.14048e-21)
(0.994984 0.269591 1.35402e-21)
(1.06009 0.293343 2.62403e-21)
(1.11017 0.309779 1.50325e-21)
(1.14683 0.319165 7.70514e-21)
(1.17202 0.322224 -8.97681e-21)
(1.18782 0.319998 2.27598e-21)
(1.19613 0.313908 4.8577e-21)
(1.19833 0.305298 1.78681e-21)
(0.103079 0.0164175 -2.89094e-20)
(0.28445 0.0533323 -1.79243e-20)
(0.448459 0.0991579 2.63282e-20)
(0.595598 0.147368 4.11365e-21)
(0.725485 0.194353 -1.88881e-20)
(0.837635 0.237452 1.36168e-20)
(0.931871 0.274524 1.3021e-20)
(1.00853 0.30415 -2.09485e-20)
(1.06858 0.325676 -1.27302e-20)
(1.11357 0.339141 3.45772e-21)
(1.1455 0.345169 1.3392e-20)
(1.16667 0.344798 6.27506e-21)
(1.17933 0.339311 4.78621e-22)
(1.18547 0.330317 -3.05292e-21)
(1.18649 0.319257 -1.00962e-20)
(0.108954 0.0229509 4.59969e-20)
(0.297982 0.0703798 -2.49333e-21)
(0.466273 0.124198 -5.78558e-21)
(0.614922 0.178098 1.09285e-21)
(0.74402 0.228578 3.55968e-20)
(0.853567 0.273147 -4.25879e-20)
(0.943905 0.309932 7.82151e-21)
(1.01591 0.337865 -2.91377e-21)
(1.07104 0.356684 -3.85852e-21)
(1.1113 0.366833 -8.16314e-21)
(1.13907 0.369303 1.73692e-20)
(1.15685 0.365434 -2.29726e-20)
(1.16706 0.356718 8.0044e-21)
(1.17171 0.344908 -8.18984e-21)
(1.17215 0.331592 2.21988e-21)
(0.11402 0.0300049 -5.52348e-20)
(0.309267 0.0884695 -2.19502e-20)
(0.480605 0.150323 6.55689e-20)
(0.62973 0.209632 1.31043e-20)
(0.757242 0.263119 -7.22254e-20)
(0.863656 0.308569 4.63375e-20)
(0.949853 0.344476 -1.08057e-20)
(1.01723 0.370197 1.37227e-20)
(1.06773 0.385917 7.00691e-21)
(1.10375 0.392503 8.48058e-21)
(1.12794 0.391313 1.27402e-20)
(1.143 0.383962 -7.49099e-21)
(1.15141 0.372109 -4.71202e-21)
(1.15516 0.357596 2.5229e-22)
(1.15551 0.342256 2.33557e-21)
(0.118151 0.0374635 3.60443e-20)
(0.318041 0.10729 -3.8336e-21)
(0.491147 0.17707 -6.89045e-20)
(0.639749 0.241402 4.48818e-20)
(0.764967 0.297355 3.96053e-20)
(0.867847 0.343094 -3.61106e-20)
(0.949803 0.377572 3.55697e-20)
(1.01273 0.400638 -1.74308e-20)
(1.05899 0.41296 -3.44111e-21)
(1.09131 0.415838 -3.35216e-20)
(1.11256 0.41098 1.9712e-20)
(1.12554 0.400248 -1.039e-21)
(1.13274 0.385427 4.11236e-21)
(1.13607 0.368394 -4.08946e-21)
(1.13653 0.351202 -7.02796e-21)
(0.121239 0.0451921 -4.2805e-20)
(0.324087 0.126493 3.57791e-20)
(0.497669 0.203938 1.14468e-20)
(0.644801 0.272813 2.00795e-20)
(0.76712 0.330652 -2.35388e-20)
(0.866194 0.376105 3.43264e-20)
(0.943939 0.408661 -4.38126e-20)
(1.0027 0.428713 -2.79561e-20)
(1.0452 0.437436 2.40068e-20)
(1.07443 0.436558 1.48006e-20)
(1.09338 0.42811 -1.07737e-20)
(1.1049 0.414167 1.71765e-20)
(1.11146 0.39664 3.97328e-21)
(1.11483 0.377499 2.77221e-21)
(1.1158 0.358606 -1.24655e-21)
(0.123198 0.0530395 -4.38529e-20)
(0.327247 0.1457 2.60418e-20)
(0.500024 0.230398 5.11636e-21)
(0.644813 0.303254 9.56662e-21)
(0.763736 0.362381 -6.14935e-21)
(0.858854 0.407002 2.40816e-20)
(0.932537 0.437212 -4.13676e-20)
(0.987516 0.453985 9.45534e-21)
(1.02681 0.459005 -1.83854e-20)
(1.05356 0.45441 -2.23227e-21)
(1.07085 0.442522 -8.55854e-21)
(1.08151 0.425584 -4.49433e-21)
(1.08797 0.405596 8.80923e-21)
(1.09184 0.38462 8.62691e-21)
(1.0939 0.364324 -2.77562e-21)
(0.123965 0.0608421 -2.64716e-20)
(0.327423 0.164512 -3.37819e-20)
(0.498153 0.255908 3.32469e-20)
(0.639809 0.332114 1.11407e-20)
(0.754953 0.391927 7.33837e-23)
(0.84608 0.435218 1.47816e-20)
(0.915953 0.462738 -1.69205e-20)
(0.96761 0.476058 3.64459e-20)
(1.00427 0.477364 -2.14951e-22)
(1.02919 0.469175 3.16146e-21)
(1.04543 0.454059 1.04703e-20)
(1.05578 0.434385 -5.81562e-21)
(1.06256 0.412199 -2.64862e-21)
(1.06732 0.389595 -4.42808e-21)
(1.07082 0.368163 -7.2527e-22)
(0.123504 0.0684277 1.92688e-20)
(0.324584 0.182522 7.5053e-20)
(0.492086 0.279925 -5.59054e-20)
(0.629918 0.358799 8.01938e-21)
(0.741005 0.418704 3.27262e-21)
(0.828211 0.460225 -2.55701e-21)
(0.894605 0.484793 -1.57965e-20)
(0.94345 0.49458 1.50331e-20)
(0.978092 0.49225 -3.58607e-22)
(1.00179 0.48066 -1.57101e-20)
(1.01756 0.462583 3.79619e-21)
(1.02808 0.440469 3.18656e-21)
(1.03559 0.416369 8.07258e-22)
(1.04153 0.392362 2.49479e-21)
(1.04668 0.370045 -9.80775e-22)
(0.121809 0.0756214 -2.07951e-21)
(0.318763 0.199319 -1.62356e-20)
(0.48194 0.30192 3.45504e-20)
(0.615361 0.382738 -9.41188e-21)
(0.722217 0.442167 -1.65476e-20)
(0.805656 0.481543 5.09319e-22)
(0.868966 0.502984 1.5594e-20)
(0.915546 0.509245 -5.44946e-22)
(0.948774 0.503435 5.44077e-21)
(0.971861 0.488703 2.56818e-21)
(0.987704 0.467976 -7.25766e-22)
(0.99883 0.443747 1.23615e-21)
(1.00735 0.418029 1.99423e-22)
(1.01468 0.392848 -4.10551e-21)
(1.02164 0.369886 4.91676e-21)
(0.118904 0.0822538 7.33983e-21)
(0.310056 0.214506 -2.74751e-20)
(0.467918 0.321383 -2.64249e-20)
(0.596444 0.403403 1.14757e-20)
(0.698991 0.461824 1.7555e-21)
(0.778893 0.498746 6.27519e-21)
(0.839559 0.516969 -3.85262e-21)
(0.884426 0.519796 4.87872e-21)
(0.916836 0.51073 -3.19359e-21)
(0.939883 0.493165 4.32512e-21)
(0.956297 0.470135 2.49632e-22)
(0.968419 0.444136 -1.495e-20)
(0.97821 0.417109 5.29889e-21)
(0.987047 0.390963 -6.94347e-21)
(0.995945 0.36753 7.32564e-21)
(0.114822 0.0881543 -7.47664e-21)
(0.298634 0.227717 1.3568e-20)
(0.450307 0.337847 2.81996e-21)
(0.573557 0.420312 -1.61332e-21)
(0.671804 0.477239 -1.41012e-20)
(0.748455 0.511474 -2.10412e-21)
(0.806933 0.526469 -2.61507e-21)
(0.850632 0.526027 -3.67494e-21)
(0.882787 0.513988 -3.39726e-21)
(0.906328 0.493936 1.7861e-20)
(0.923783 0.46897 -5.64373e-21)
(0.937265 0.441564 1.19601e-20)
(0.94853 0.413549 2.27689e-20)
(0.958947 0.386617 -9.22472e-21)
(0.969878 0.362765 6.32556e-21)
(0.109653 0.0931445 -1.95328e-21)
(0.284735 0.238591 -1.01688e-20)
(0.429458 0.350897 3.09993e-21)
(0.547163 0.433052 -3.06502e-21)
(0.641191 0.488043 2.40096e-21)
(0.714909 0.519432 6.95198e-21)
(0.771659 0.531266 1.82191e-20)
(0.814707 0.527783 1.8721e-20)
(0.847124 0.513097 -5.63472e-21)
(0.871643 0.490928 -2.5718e-20)
(0.890572 0.464398 -9.43173e-21)
(0.905772 0.435939 -7.32849e-21)
(0.918752 0.407261 1.5423e-20)
(0.930894 0.379724 -2.24763e-20)
(0.94398 0.355474 -2.68333e-20)
(0.10351 0.0970932 7.07484e-21)
(0.26863 0.246821 -6.68558e-21)
(0.405794 0.360168 -1.89021e-20)
(0.517785 0.441275 4.66617e-21)
(0.607735 0.493945 -4.03169e-21)
(0.678859 0.5224 1.35094e-20)
(0.734322 0.531209 -4.2166e-21)
(0.777191 0.524969 1.03687e-20)
(0.810321 0.508 -1.10332e-20)
(0.836225 0.48409 1.75369e-20)
(0.856995 0.456337 5.93286e-20)
(0.874248 0.427105 -4.24426e-20)
(0.88925 0.397954 -2.04808e-20)
(0.90342 0.369787 3.70768e-21)
(0.918686 0.345038 -1.20067e-21)
(0.0965157 0.0998743 -1.99806e-20)
(0.250653 0.252151 -1.36056e-20)
(0.379793 0.365364 -5.80342e-21)
(0.485995 0.444708 2.63687e-20)
(0.572055 0.494731 -5.20538e-20)
(0.640931 0.520232 -2.76608e-21)
(0.695519 0.526217 3.06835e-20)
(0.738619 0.517559 -2.92216e-20)
(0.772826 0.498704 4.46433e-20)
(0.800417 0.473445 -1.99322e-20)
(0.823265 0.444798 -1.22632e-20)
(0.84278 0.414994 2.89966e-22)
(0.860063 0.385339 3.34902e-20)
(0.876549 0.355765 -3.01004e-20)
(0.892058 0.326602 1.18269e-20)
(0.0888195 0.101383 4.14166e-20)
(0.231176 0.254376 -2.56572e-20)
(0.351977 0.366263 5.57438e-21)
(0.452405 0.443162 -1.68787e-20)
(0.534801 0.490267 5.33134e-22)
(0.601768 0.512857 4.12224e-21)
(0.655854 0.516279 1.01586e-20)
(0.69953 0.505591 1.28065e-20)
(0.735095 0.485294 -4.42616e-20)
(0.764559 0.459134 -1.17619e-20)
(0.789573 0.430012 2.12651e-20)
(0.811372 0.400011 -4.93345e-20)
(0.830994 0.370321 3.13108e-20)
(0.849716 0.340986 1.80027e-20)
(0.866334 0.312669 -4.14298e-21)
(0.0805885 0.101539 1.11632e-20)
(0.210607 0.253348 3.50339e-20)
(0.322904 0.362716 8.15013e-21)
(0.417654 0.436527 -2.99077e-20)
(0.496641 0.480499 4.07868e-20)
(0.562026 0.500279 -4.07104e-20)
(0.615938 0.501446 -4.8833e-20)
(0.660477 0.489158 -6.92294e-20)
(0.697611 0.4679 1.00914e-19)
(0.729069 0.44133 1.76914e-20)
(0.756266 0.41222 -1.82528e-20)
(0.780263 0.38251 -1.67125e-20)
(0.801973 0.353299 3.26005e-20)
(0.8224 0.324755 -3.77911e-21)
(0.840151 0.297743 9.13213e-20)
(0.072003 0.100291 -1.07257e-19)
(0.189373 0.24898 8.25434e-20)
(0.29315 0.354654 1.713e-20)
(0.382397 0.424777 -3.83687e-20)
(0.45825 0.465451 7.40199e-20)
(0.522358 0.482566 -5.52563e-20)
(0.576382 0.481823 4.52592e-20)
(0.622015 0.468385 1.81386e-20)
(0.660877 0.446662 7.25046e-21)
(0.694414 0.420181 4.02145e-20)
(0.723815 0.391573 -2.12319e-20)
(0.749978 0.362644 -7.21827e-20)
(0.773695 0.334414 -4.53281e-20)
(0.795776 0.307136 6.77216e-21)
(0.814937 0.281683 3.55522e-21)
(0.0632516 0.0976145 9.42266e-21)
(0.167916 0.241249 -2.01194e-20)
(0.263304 0.342086 2.70739e-20)
(0.34729 0.407966 -1.96219e-20)
(0.420296 0.445221 2.56243e-20)
(0.483408 0.459852 -3.46868e-20)
(0.537782 0.457563 4.53185e-20)
(0.584683 0.443436 -4.38053e-20)
(0.625384 0.421736 1.09694e-20)
(0.661049 0.395827 -2.83294e-22)
(0.692657 0.368175 -3.98432e-20)
(0.720967 0.340452 8.20875e-21)
(0.746668 0.3136 5.40614e-20)
(0.770438 0.287915 -7.31395e-20)
(0.791164 0.264178 2.19189e-20)
(0.0545265 0.0935143 -6.6549e-20)
(0.14668 0.230193 4.07597e-20)
(0.233951 0.325098 -3.37485e-20)
(0.312978 0.386228 5.33722e-20)
(0.383431 0.419981 -1.78525e-20)
(0.445796 0.432331 2.20294e-20)
(0.500708 0.428868 8.00937e-20)
(0.548998 0.414504 -9.59606e-20)
(0.591593 0.3933 1.0612e-20)
(0.629392 0.368415 -4.93377e-21)
(0.663182 0.342135 7.7181e-20)
(0.693599 0.315986 7.36042e-20)
(0.721247 0.29083 2.06138e-20)
(0.746711 0.266972 -1.79106e-20)
(0.769057 0.245058 1.98434e-21)
(0.0460193 0.0880234 4.99037e-20)
(0.126103 0.215912 -8.24152e-20)
(0.20566 0.303851 -3.40109e-21)
(0.280086 0.359772 -3.23687e-20)
(0.34828 0.389972 -1.88078e-20)
(0.410113 0.400256 -9.7664e-20)
(0.465698 0.39599 -5.5238e-20)
(0.515439 0.381825 -2.13835e-20)
(0.55993 0.361562 5.5209e-20)
(0.599822 0.338119 -1.01846e-19)
(0.635729 0.313585 6.96825e-21)
(0.668181 0.289334 1.24913e-20)
(0.697711 0.26614 -5.87376e-20)
(0.724829 0.244297 -1.12367e-20)
(0.748785 0.22431 -1.14592e-20)
(0.0379159 0.0812026 -7.56491e-20)
(0.106606 0.198567 -6.97472e-20)
(0.178976 0.278579 -3.85812e-21)
(0.249207 0.32888 4.69659e-20)
(0.315428 0.355501 1.37305e-20)
(0.37691 0.363939 1.28496e-19)
(0.433252 0.359224 3.98231e-20)
(0.484449 0.345669 9.33219e-20)
(0.530784 0.326758 -1.52131e-21)
(0.57268 0.30514 -2.75655e-20)
(0.610596 0.282688 -1.92853e-21)
(0.644973 0.260619 8.61871e-20)
(0.676281 0.239618 5.19258e-20)
(0.704972 0.219953 -7.00943e-21)
(0.730482 0.201998 -2.81282e-20)
(0.030393 0.0731389 6.61797e-20)
(0.0885873 0.178372 6.37367e-20)
(0.154411 0.249582 -7.36409e-20)
(0.220891 0.293903 1.38595e-20)
(0.28542 0.316935 -7.78456e-21)
(0.346692 0.323742 -7.61047e-21)
(0.403824 0.318913 5.21607e-20)
(0.456429 0.306346 -7.64298e-20)
(0.504504 0.289162 1.74798e-20)
(0.548266 0.269711 6.71631e-20)
(0.588042 0.249638 -1.62092e-20)
(0.624196 0.230002 -5.88219e-20)
(0.657143 0.211394 -1.84169e-20)
(0.687288 0.19405 -7.61367e-20)
(0.714252 0.17823 3.96786e-20)
(0.0236141 0.0639438 -6.89773e-20)
(0.0724113 0.155595 -4.07344e-21)
(0.132429 0.217224 -5.91412e-21)
(0.195637 0.255251 -1.46047e-20)
(0.258744 0.2747 3.50313e-20)
(0.319914 0.280077 -6.88271e-20)
(0.37782 0.275438 2.40614e-20)
(0.431735 0.264199 -7.19335e-20)
(0.481397 0.249074 8.65658e-21)
(0.526846 0.232092 -2.94659e-20)
(0.568294 0.214659 2.55522e-20)
(0.606038 0.197673 2.73309e-20)
(0.640451 0.181631 -9.16363e-20)
(0.671902 0.166733 6.69285e-20)
(0.700184 0.153149 6.26249e-21)
(0.0177259 0.0537513 6.58578e-20)
(0.0584043 0.13055 -1.37876e-20)
(0.113447 0.181922 1.06762e-19)
(0.173887 0.213393 -8.84921e-21)
(0.235831 0.229271 -2.18532e-20)
(0.296972 0.233402 1.96834e-20)
(0.355596 0.22922 -1.04063e-20)
(0.410675 0.219605 2.19934e-20)
(0.461729 0.206828 -2.10344e-20)
(0.508646 0.192573 -6.0266e-20)
(0.551542 0.178002 -5.49895e-20)
(0.590661 0.16385 7.27476e-20)
(0.62634 0.150521 -2.30082e-20)
(0.658918 0.138179 -2.23885e-20)
(0.68835 0.126923 1.49091e-20)
(0.0128558 0.0427146 1.15334e-20)
(0.0468476 0.103591 -1.79524e-20)
(0.0978183 0.144143 -1.33696e-20)
(0.15602 0.168842 -2.6725e-20)
(0.21705 0.181168 1.18599e-20)
(0.278205 0.184208 -8.09147e-20)
(0.337451 0.180712 5.37247e-20)
(0.39351 0.172969 -3.90841e-20)
(0.445723 0.162778 -1.72544e-20)
(0.493856 0.151465 4.92471e-20)
(0.537947 0.13994 -3.31177e-20)
(0.578199 0.128773 -3.68589e-20)
(0.614917 0.11828 3.03374e-20)
(0.648424 0.108583 -7.33033e-21)
(0.678809 0.0997375 7.3476e-20)
(0.00910849 0.0310036 4.49852e-21)
(0.0379723 0.0751064 -1.12578e-20)
(0.0858359 0.104394 -1.08026e-20)
(0.142343 0.122155 1.26486e-20)
(0.202697 0.130944 -1.07003e-20)
(0.263887 0.133022 2.15659e-20)
(0.323627 0.130392 -2.72076e-20)
(0.38045 0.124719 4.88764e-20)
(0.433561 0.117303 3.9903e-20)
(0.482629 0.109101 -8.69547e-21)
(0.527637 0.100765 6.18124e-23)
(0.568757 0.0927029 3.29706e-21)
(0.606273 0.085139 -2.42683e-21)
(0.640491 0.0781606 -9.18548e-21)
(0.671611 0.071792 -1.56717e-20)
(0.0065647 0.0188014 -6.03361e-21)
(0.0319555 0.0455131 -2.58886e-20)
(0.0777222 0.0632153 -1.59945e-21)
(0.133094 0.0739195 5.69925e-21)
(0.193001 0.0791865 1.49602e-20)
(0.254225 0.0803948 -2.03613e-20)