/*--------------------------------*- C++ -*----------------------------------*\
  =========                 |
  \\      /  F ield         | OpenFOAM: The Open Source CFD Toolbox
   \\    /   O peration     | Website:  https://openfoam.org
    \\  /    A nd           | Version:  7
     \\/     M anipulation  |
\*---------------------------------------------------------------------------*/
FoamFile
{
    version     2.0;
    format      ascii;
    class       volScalarField;
    location    "45";
    object      p;
}
// * * * * * * * * * * * * * * * * * * * * * * * * * * * * * * * * * * * * * //

dimensions      [0 2 -2 0 0 0 0];

internalField   nonuniform List<scalar> 
6000
(
0.673309
0.653713
0.644473
0.631559
0.616097
0.598527
0.579574
0.559886
0.539939
0.520074
0.500534
0.481482
0.463029
0.445247
0.428177
0.411838
0.396235
0.381363
0.367207
0.353748
0.340959
0.328821
0.31733
0.306447
0.29601
0.671214
0.651703
0.64259
0.629825
0.61451
0.597076
0.578246
0.558668
0.53882
0.519045
0.499584
0.480604
0.462218
0.444495
0.427478
0.411188
0.39563
0.380798
0.36668
0.353254
0.340497
0.328387
0.31692
0.306062
0.295659
0.667032
0.647691
0.638829
0.626363
0.611342
0.59418
0.575595
0.556237
0.536586
0.516988
0.497687
0.478852
0.460596
0.442992
0.426083
0.409891
0.394422
0.379671
0.365626
0.352269
0.339574
0.327521
0.316102
0.305291
0.294957
0.660778
0.641691
0.633204
0.621184
0.606604
0.589848
0.571629
0.552599
0.533243
0.513911
0.494849
0.47623
0.45817
0.440743
0.423994
0.407948
0.392612
0.377983
0.364049
0.350794
0.338193
0.326224
0.314877
0.304138
0.293905
0.652477
0.633724
0.625735
0.614305
0.60031
0.584092
0.566359
0.547766
0.528802
0.509822
0.491078
0.472746
0.454945
0.437753
0.421218
0.405367
0.390207
0.375739
0.361953
0.348832
0.336356
0.324499
0.313248
0.302603
0.292505
0.642158
0.623821
0.616447
0.605751
0.592481
0.576933
0.559804
0.541753
0.523275
0.504734
0.486385
0.46841
0.450931
0.434032
0.417762
0.402152
0.387213
0.372945
0.359342
0.346389
0.334067
0.32235
0.311219
0.300691
0.290759
0.62986
0.612017
0.605374
0.595549
0.583143
0.568392
0.551983
0.534578
0.516681
0.498661
0.480783
0.463233
0.446139
0.429588
0.413636
0.398313
0.383636
0.369607
0.356222
0.34347
0.331332
0.319782
0.308795
0.298405
0.28867
0.615629
0.598356
0.592554
0.583735
0.572326
0.558498
0.542921
0.526263
0.509038
0.491622
0.474289
0.457231
0.440583
0.424435
0.408849
0.39386
0.379486
0.365735
0.352602
0.340082
0.328158
0.3168
0.30598
0.29575
0.286241
0.599519
0.582888
0.578033
0.570347
0.560067
0.547281
0.532646
0.516835
0.500369
0.483638
0.466922
0.450421
0.434277
0.418586
0.403415
0.388803
0.374774
0.361336
0.34849
0.336232
0.324551
0.313413
0.302782
0.292732
0.283475
0.58159
0.565669
0.561861
0.555433
0.546404
0.534779
0.521192
0.506321
0.490702
0.474732
0.458702
0.442821
0.427239
0.412058
0.397349
0.383158
0.369511
0.356423
0.343896
0.331931
0.32052
0.309627
0.299207
0.289357
0.280378
0.561908
0.546764
0.544096
0.539041
0.531384
0.52103
0.508593
0.494755
0.480064
0.46493
0.449654
0.434455
0.419489
0.404867
0.390666
0.376937
0.363711
0.351007
0.338832
0.327189
0.316074
0.305451
0.295264
0.285633
0.276954
0.540548
0.526242
0.5248
0.521227
0.515055
0.50608
0.494889
0.482172
0.468489
0.454262
0.439804
0.425344
0.411048
0.397033
0.383384
0.370157
0.357389
0.345102
0.333308
0.322015
0.311223
0.300893
0.290961
0.281566
0.273208
0.51759
0.504178
0.504041
0.502052
0.497472
0.489975
0.480124
0.468611
0.45601
0.442758
0.429181
0.415516
0.40194
0.388578
0.375522
0.362835
0.35056
0.338723
0.327339
0.316423
0.305978
0.295965
0.286308
0.277166
0.269148
0.493121
0.480654
0.481893
0.481582
0.478691
0.472768
0.464343
0.454113
0.442666
0.430454
0.417814
0.404997
0.392189
0.379524
0.367102
0.354991
0.343241
0.331884
0.320939
0.310425
0.300351
0.290678
0.281315
0.272441
0.26478
0.467232
0.455758
0.458434
0.459885
0.458775
0.454514
0.447596
0.438723
0.428497
0.417384
0.405736
0.393817
0.381822
0.369896
0.358144
0.346644
0.335451
0.324603
0.314123
0.304035
0.294355
0.285042
0.275993
0.267401
0.260111
0.440022
0.429583
0.433749
0.437036
0.437789
0.435271
0.429936
0.422488
0.413544
0.403587
0.392983
0.382008
0.370868
0.359718
0.348673
0.337816
0.32721
0.316896
0.306906
0.297267
0.288002
0.27907
0.270354
0.262057
0.25515
0.411593
0.402225
0.407924
0.413112
0.415803
0.415101
0.411417
0.405458
0.397853
0.389103
0.37959
0.369602
0.359357
0.349019
0.338712
0.328528
0.318536
0.308784
0.299307
0.290138
0.281308
0.272774
0.264408
0.256418
0.249905
0.382052
0.373787
0.381052
0.388196
0.392888
0.394069
0.392098
0.387683
0.38147
0.373975
0.365596
0.356634
0.347319
0.337827
0.328289
0.318805
0.309453
0.300285
0.291342
0.282664
0.274286
0.266169
0.258169
0.250497
0.244386
0.351513
0.344376
0.35323
0.362371
0.369121
0.372241
0.372039
0.36922
0.364444
0.358247
0.35104
0.34314
0.334788
0.32617
0.317429
0.308671
0.299981
0.291419
0.283031
0.27486
0.266952
0.259269
0.25165
0.244305
0.238601
0.320091
0.314101
0.324557
0.335728
0.344579
0.349687
0.351301
0.350123
0.346826
0.341964
0.335964
0.329157
0.321797
0.314081
0.30616
0.298151
0.290145
0.282208
0.274392
0.266746
0.259321
0.252086
0.244863
0.237854
0.232561
0.287906
0.283077
0.295135
0.308358
0.319344
0.32648
0.329951
0.33045
0.328667
0.325172
0.320409
0.314723
0.30838
0.30159
0.294511
0.287271
0.279967
0.272673
0.265445
0.258338
0.251411
0.244638
0.237823
0.231155
0.226275
0.25508
0.251419
0.265073
0.280353
0.293498
0.302693
0.308052
0.310261
0.310022
0.30792
0.304419
0.299877
0.294574
0.288729
0.282512
0.276059
0.269473
0.262836
0.25621
0.249656
0.243239
0.236938
0.230542
0.224221
0.219753
0.221738
0.219249
0.234477
0.251811
0.267127
0.278402
0.285674
0.289616
0.290943
0.290258
0.288039
0.284661
0.280415
0.275532
0.270193
0.26454
0.258687
0.252721
0.246709
0.240718
0.234821
0.229003
0.223035
0.217063
0.213004
0.188007
0.186686
0.203458
0.22283
0.240317
0.253684
0.262884
0.268578
0.271488
0.272235
0.271314
0.269114
0.26594
0.262033
0.257584
0.252744
0.247635
0.242351
0.236963
0.231544
0.226175
0.220849
0.215317
0.209692
0.206035
0.154017
0.153854
0.17213
0.19351
0.213157
0.228616
0.239754
0.247207
0.251711
0.253902
0.25429
0.253278
0.251186
0.248265
0.244716
0.240699
0.236343
0.231749
0.226994
0.222154
0.217321
0.212494
0.207403
0.202118
0.198851
0.119896
0.120876
0.140606
0.163951
0.185736
0.203279
0.216352
0.225569
0.231671
0.23531
0.237013
0.237196
0.236192
0.234263
0.231621
0.228433
0.224837
0.220939
0.216823
0.212568
0.208276
0.203957
0.199311
0.19435
0.191451
0.0857746
0.0878778
0.109
0.134256
0.158143
0.177752
0.192751
0.203726
0.211424
0.216511
0.219529
0.220909
0.220996
0.220063
0.21833
0.215976
0.213144
0.209947
0.206474
0.202807
0.199059
0.195258
0.191067
0.186403
0.183823
0.0517831
0.0549821
0.0774287
0.104527
0.130469
0.152114
0.169021
0.181743
0.191028
0.197557
0.201885
0.20446
0.205635
0.205698
0.204876
0.203356
0.201289
0.198796
0.195969
0.192892
0.189686
0.186411
0.1827
0.178296
0.175928
0.0180502
0.0223125
0.046006
0.0748655
0.102804
0.126445
0.145233
0.159682
0.170539
0.178498
0.184129
0.18789
0.19015
0.191203
0.19129
0.190603
0.1893
0.187511
0.185332
0.182845
0.180176
0.177429
0.174254
0.170133
0.167722
-0.0152965
-0.0100085
0.014847
0.0453744
0.0752382
0.100825
0.121458
0.137607
0.150015
0.159387
0.166305
0.171242
0.174577
0.176614
0.177603
0.177744
0.177203
0.176116
0.174586
0.172692
0.170553
0.168316
0.165737
0.162033
0.158982
-0.0481307
-0.0418598
-0.0159355
0.0161543
0.0478601
0.0753326
0.0977658
0.11558
0.129512
0.140274
0.148461
0.154558
0.158954
0.161964
0.163847
0.164809
0.165025
0.164635
0.163751
0.162453
0.160839
0.159065
0.157084
0.154274
0.150147
-0.0803259
-0.0731197
-0.0462316
-0.0126955
0.020758
0.0500444
0.0742251
0.0936631
0.109085
0.121208
0.130641
0.137877
0.143318
0.147288
0.150052
0.151826
0.15279
0.153091
0.152848
0.152148
0.151069
0.149752
0.148323
0.146497
0.14311
-0.111776
-0.103653
-0.0759378
-0.0410772
-0.00598175
0.025037
0.0509036
0.0719169
0.0887883
0.10224
0.112889
0.121241
0.127706
0.132618
0.136249
0.138823
0.140525
0.141508
0.1419
0.141797
0.141268
0.140427
0.139512
0.138601
0.13622
-0.142465
-0.133284
-0.10496
-0.0688947
-0.0322747
0.000384483
0.0278673
0.0504003
0.0686754
0.0834161
0.0952489
0.104688
0.112154
0.117987
0.122467
0.125826
0.128253
0.129908
0.130926
0.131413
0.131438
0.131089
0.130643
0.130412
0.128919
-0.172195
-0.161995
-0.133228
-0.0960526
-0.058039
-0.0238409
0.00518032
0.0291708
0.0487978
0.0647842
0.0777632
0.0882579
0.0966957
0.103426
0.108735
0.112861
0.115998
0.118313
0.119945
0.121009
0.12158
0.121725
0.121723
0.122004
0.12117
-0.20082
-0.189611
-0.16072
-0.122458
-0.0831957
-0.0475693
-0.0170952
0.00828389
0.0292055
0.046389
0.0604725
0.0719866
0.0813659
0.0889664
0.0950814
0.0999534
0.103784
0.106743
0.108974
0.1106
0.111702
0.112337
0.112771
0.113492
0.113156
-0.22825
-0.21611
-0.187212
-0.148036
-0.107667
-0.0707328
-0.0388994
-0.0122069
0.00994669
0.028274
0.0434163
0.0559102
0.0661967
0.0746378
0.0815325
0.0871284
0.0916322
0.0952168
0.0980312
0.100204
0.10182
0.102931
0.103794
0.104923
0.105027
-0.254404
-0.241449
-0.212438
-0.172813
-0.131371
-0.093267
-0.0601751
-0.0322503
-0.00893261
0.0104808
0.0266323
0.0400631
0.0512195
0.0604687
0.0681146
0.0744095
0.0795641
0.0837553
0.0871351
0.0898361
0.0919493
0.0935231
0.0947999
0.0963075
0.0968334
-0.279201
-0.265532
-0.236451
-0.196604
-0.154233
-0.115112
-0.0808671
-0.0517975
-0.0273886
-0.00695086
0.0101566
0.0244781
0.0364641
0.0464863
0.0548526
0.0618193
0.0676007
0.0723771
0.0763029
0.0795141
0.0821065
0.084127
0.0858017
0.0876615
0.0885887
-0.30257
-0.288265
-0.259249
-0.219148
-0.176314
-0.136209
-0.100923
-0.0708027
-0.04538
-0.0239836
-0.00597689
0.00918611
0.0219589
0.0327167
0.0417705
0.0493799
0.0557623
0.0611007
0.0655518
0.0692538
0.072307
0.0747585
0.0768163
0.0790066
0.0803156
-0.324458
-0.309569
-0.280762
-0.240581
-0.197389
-0.156488
-0.120294
-0.0892227
-0.0628678
-0.0405824
-0.0217361
-0.0057835
0.00773083
0.0191844
0.0288907
0.037112
0.0440681
0.049944
0.0548983
0.0590709
0.0625664
0.065433
0.0678605
0.0703644
0.0720411
-0.344815
-0.329385
-0.300914
-0.260856
-0.217394
-0.175917
-0.138935
-0.107017
-0.0798162
-0.0567144
-0.0370912
-0.0204034
-0.00619515
0.00591247
0.0162348
0.0250355
0.0325363
0.0389241
0.0443586
0.048981
0.0528997
0.0561653
0.0589494
0.0617532
0.0637868
-0.363594
-0.347668
-0.319645
-0.279896
-0.236336
-0.194434
-0.156805
-0.124148
-0.096192
-0.0723498
-0.0520148
-0.0346484
-0.0197957
-0.0070774
0.00382255
0.0131688
0.0211844
0.0280573
0.0339481
0.0389988
0.0433214
0.0469695
0.0500973
0.0531883
0.0555679
-0.38076
-0.364382
-0.336911
-0.297643
-0.254176
-0.212004
-0.173869
-0.140583
-0.111965
-0.0874612
-0.0664816
-0.0484952
-0.0330494
-0.0197654
-0.00832734
0.00152946
0.0100286
0.0173589
0.0236814
0.0291384
0.0338452
0.0378587
0.0413168
0.0446829
0.0473969
-0.396289
-0.379503
-0.352682
-0.314056
-0.270869
-0.228595
-0.190094
-0.156297
-0.127108
-0.102024
-0.0804691
-0.0619227
-0.0459369
-0.0321332
-0.0201978
-0.00986665
-0.000916017
0.00684316
0.013572
0.0194129
0.0244836
0.0288451
0.0326197
0.0362489
0.0392853
-0.410167
-0.393014
-0.366935
-0.329104
-0.286379
-0.244174
-0.205451
-0.171265
-0.141601
-0.116016
-0.093957
-0.0749118
-0.0584409
-0.0441643
-0.0317733
-0.0210048
-0.0116355
-0.00347666
0.00363265
0.00983444
0.0152484
0.0199398
0.0240167
0.0278968
0.0312433
-0.422391
-0.404913
-0.379655
-0.342764
-0.300679
-0.258715
-0.219915
-0.18546
-0.155427
-0.129421
-0.106926
-0.0874454
-0.0705466
-0.0558437
-0.0430399
-0.0318718
-0.0221173
-0.0135885
-0.00612512
0.000414094
0.00615033
0.011153
0.0155171
0.0196359
0.0232796
-0.432971
-0.415211
-0.390839
-0.35502
-0.313749
-0.272197
-0.233467
-0.198865
-0.168563
-0.142227
-0.119371
-0.0995057
-0.0822408
-0.0671577
-0.0539853
-0.0424558
-0.03235
-0.0234814
-0.0156908
-0.00883798
-0.00280086
0.00249386
0.00712931
0.011474
0.0154022
-0.441927
-0.423927
-0.400492
-0.365866
-0.325574
-0.284603
-0.246093
-0.211465
-0.180997
-0.154416
-0.131274
-0.111104
-0.0934987
-0.0780948
-0.064599
-0.0527463
-0.0423235
-0.0331456
-0.025055
-0.0179127
-0.0115964
-0.00602911
-0.00113938
0.00341724
0.00761834
-0.449289
-0.431093
-0.408634
-0.375306
-0.336149
-0.295922
-0.25778
-0.223253
-0.192719
-0.165979
-0.142623
-0.122209
-0.104333
-0.0886519
-0.0748697
-0.0627343
-0.0520291
-0.0425726
-0.0342094
-0.0268019
-0.0202286
-0.0144081
-0.00928222
-0.00453059
-6.45905e-05
-0.4551
-0.436754
-0.415294
-0.383353
-0.345473
-0.306151
-0.268524
-0.234221
-0.203724
-0.176909
-0.153412
-0.132814
-0.114729
-0.0988197
-0.0847968
-0.0724132
-0.0614584
-0.051755
-0.0431467
-0.0354983
-0.0286909
-0.0226361
-0.0172919
-0.012369
-0.00764114
-0.459412
-0.440961
-0.420511
-0.390028
-0.353557
-0.315289
-0.278321
-0.244366
-0.21401
-0.187206
-0.163638
-0.142919
-0.124679
-0.10859
-0.0943705
-0.0817787
-0.0706097
-0.0606875
-0.05186
-0.0439954
-0.0369777
-0.0307073
-0.0251593
-0.0200977
-0.0151129
-0.462287
-0.44378
-0.424337
-0.395365
-0.360415
-0.323344
-0.287174
-0.253689
-0.223576
-0.196867
-0.173301
-0.152523
-0.134181
-0.11796
-0.103586
-0.0908246
-0.0794754
-0.0693656
-0.0603472
-0.0522915
-0.0450813
-0.0386187
-0.0328758
-0.0277055
-0.0225047
-0.463796
-0.445281
-0.426831
-0.399405
-0.366072
-0.330328
-0.295091
-0.262196
-0.232425
-0.205896
-0.182403
-0.161626
-0.143235
-0.126928
-0.112442
-0.099548
-0.0880518
-0.0777848
-0.0686023
-0.0603788
-0.0530006
-0.0463705
-0.04045
-0.0351383
-0.0298835
-0.464017
-0.445545
-0.428064
-0.402198
-0.370559
-0.33626
-0.302082
-0.269893
-0.240565
-0.214297
-0.190946
-0.17023
-0.151842
-0.135496
-0.120938
-0.107948
-0.0963373
-0.0859423
-0.0766219
-0.0682542
-0.0607298
-0.0539518
-0.0478722
-0.0424209
-0.0372455
-0.463038
-0.444661
-0.428114
-0.403805
-0.373916
-0.341164
-0.308164
-0.276794
-0.248004
-0.222079
-0.198937
-0.17834
-0.160006
-0.143665
-0.129075
-0.116025
-0.104332
-0.0938373
-0.0844047
-0.0759155
-0.0682647
-0.0613577
-0.0551402
-0.0495573
-0.0443485
-0.460949
-0.442722
-0.427068
-0.404293
-0.376189
-0.345069
-0.313357
-0.282911
-0.254754
-0.229251
-0.206385
-0.185963
-0.167732
-0.151439
-0.136856
-0.12378
-0.112036
-0.10147
-0.0919501
-0.0833617
-0.0756036
-0.0685842
-0.0622448
-0.0565283
-0.0512022
-0.457848
-0.439824
-0.425018
-0.403739
-0.377432
-0.348013
-0.317683
-0.288264
-0.26083
-0.235825
-0.2133
-0.193107
-0.175026
-0.158824
-0.144285
-0.131217
-0.119451
-0.108841
-0.0992586
-0.0905927
-0.0827458
-0.0756293
-0.0691808
-0.0633399
-0.0578834
-0.453836
-0.436071
-0.422061
-0.402225
-0.377707
-0.350036
-0.321173
-0.292874
-0.266249
-0.241816
-0.219694
-0.199784
-0.181898
-0.165827
-0.151368
-0.138339
-0.126581
-0.115953
-0.106332
-0.0976095
-0.0896924
-0.0824943
-0.0759513
-0.0700048
-0.0644352
-0.449014
-0.431563
-0.418299
-0.39984
-0.377081
-0.351185
-0.323859
-0.296762
-0.271029
-0.24724
-0.225581
-0.206004
-0.188358
-0.172455
-0.15811
-0.145153
-0.13343
-0.122809
-0.113172
-0.104414
-0.0964456
-0.0891827
-0.0825615
-0.0765293
-0.0708684
-0.443486
-0.426403
-0.413834
-0.396677
-0.375628
-0.351514
-0.325775
-0.299957
-0.275191
-0.252115
-0.230976
-0.211781
-0.194416
-0.178719
-0.164522
-0.151664
-0.140004
-0.129414
-0.119783
-0.11101
-0.103008
-0.095698
-0.0890151
-0.082915
-0.0771838
-0.437355
-0.420695
-0.408771
-0.392831
-0.373426
-0.351079
-0.326964
-0.302487
-0.278758
-0.256459
-0.235896
-0.217131
-0.200087
-0.18463
-0.17061
-0.157881
-0.146309
-0.135773
-0.126169
-0.1174
-0.109384
-0.102043
-0.0953149
-0.0891628
-0.0833835
-0.430722
-0.414536
-0.40321
-0.388402
-0.370558
-0.349943
-0.327469
-0.304383
-0.281754
-0.260293
-0.24036
-0.222068
-0.205383
-0.1902
-0.176387
-0.163812
-0.152352
-0.141893
-0.132335
-0.12359
-0.115576
-0.108222
-0.101463
-0.0952738
-0.0894689
-0.423685
-0.408023
-0.397253
-0.383487
-0.36711
-0.348172
-0.327337
-0.305679
-0.284205
-0.263637
-0.244384
-0.226609
-0.21032
-0.195441
-0.181863
-0.169468
-0.158141
-0.14778
-0.138289
-0.129584
-0.121589
-0.114237
-0.107463
-0.101249
-0.0954364
-0.416338
-0.401245
-0.390995
-0.378183
-0.363169
-0.345837
-0.326619
-0.306411
-0.286136
-0.266513
-0.247987
-0.230771
-0.214912
-0.200368
-0.18705
-0.174857
-0.163686
-0.153441
-0.144035
-0.135387
-0.127427
-0.120091
-0.113317
-0.107088
-0.101283
-0.408771
-0.394289
-0.384525
-0.372584
-0.358824
-0.343009
-0.32537
-0.306619
-0.287577
-0.268944
-0.25119
-0.234571
-0.219175
-0.204993
-0.191961
-0.179992
-0.168996
-0.158886
-0.149581
-0.141006
-0.133096
-0.12579
-0.119028
-0.112793
-0.107007
-0.401066
-0.387232
-0.377928
-0.366778
-0.354161
-0.339764
-0.323648
-0.306342
-0.288557
-0.270951
-0.254011
-0.238026
-0.223126
-0.209333
-0.196608
-0.184884
-0.174081
-0.164123
-0.154934
-0.146447
-0.138599
-0.131336
-0.124599
-0.118368
-0.112611
-0.3933
-0.380145
-0.37128
-0.360849
-0.349265
-0.336178
-0.321511
-0.305625
-0.289107
-0.272559
-0.256469
-0.241153
-0.226779
-0.2134
-0.201005
-0.189544
-0.178952
-0.169161
-0.160103
-0.151717
-0.143945
-0.136736
-0.130036
-0.123817
-0.118096
-0.385542
-0.373092
-0.364649
-0.354873
-0.344217
-0.332326
-0.31902
-0.304512
-0.289258
-0.273791
-0.258583
-0.243969
-0.23015
-0.217211
-0.205166
-0.193986
-0.18362
-0.17401
-0.165097
-0.156824
-0.149138
-0.141994
-0.135341
-0.129142
-0.123467
-0.377855
-0.366129
-0.358096
-0.348917
-0.33909
-0.32828
-0.31624
-0.303052
-0.289045
-0.274671
-0.260371
-0.24649
-0.233253
-0.220778
-0.209103
-0.198221
-0.188096
-0.17868
-0.169923
-0.161774
-0.154186
-0.147116
-0.140521
-0.134348
-0.128726
-0.370293
-0.359303
-0.351671
-0.343042
-0.333954
-0.324111
-0.313232
-0.301292
-0.288502
-0.275222
-0.261851
-0.248731
-0.236104
-0.224115
-0.212831
-0.202262
-0.192392
-0.183182
-0.174592
-0.166578
-0.159096
-0.152108
-0.145579
-0.139441
-0.133876
-0.362903
-0.352656
-0.345419
-0.337299
-0.328869
-0.319885
-0.310058
-0.299284
-0.287666
-0.275471
-0.263043
-0.250706
-0.238715
-0.227236
-0.21636
-0.206121
-0.196518
-0.187526
-0.179113
-0.171242
-0.163875
-0.156977
-0.150523
-0.144424
-0.138922
-0.355724
-0.34622
-0.339373
-0.331729
-0.323887
-0.315662
-0.306777
-0.297079
-0.286576
-0.275444
-0.263963
-0.252429
-0.241097
-0.23015
-0.219702
-0.209809
-0.200485
-0.191722
-0.183495
-0.175775
-0.168531
-0.161729
-0.155356
-0.149304
-0.143868
-0.348789
-0.340022
-0.333562
-0.326366
-0.319051
-0.311494
-0.303447
-0.294727
-0.285271
-0.275169
-0.264631
-0.253913
-0.243261
-0.232869
-0.222869
-0.213337
-0.204306
-0.19578
-0.187748
-0.180187
-0.173072
-0.166372
-0.160086
-0.154086
-0.148719
-0.342124
-0.334082
-0.328006
-0.321236
-0.314398
-0.307428
-0.300118
-0.292277
-0.283791
-0.274674
-0.265064
-0.25517
-0.245217
-0.235401
-0.225869
-0.216714
-0.207988
-0.199711
-0.191881
-0.184485
-0.177506
-0.170912
-0.164719
-0.158774
-0.153478
-0.335749
-0.328413
-0.322717
-0.316356
-0.309953
-0.303501
-0.296836
-0.289778
-0.282179
-0.273991
-0.265283
-0.256212
-0.246973
-0.237753
-0.228708
-0.219948
-0.211542
-0.203524
-0.195904
-0.18868
-0.18184
-0.175357
-0.169261
-0.163376
-0.158151
-0.329678
-0.323025
-0.317704
-0.311736
-0.305735
-0.299742
-0.293642
-0.287272
-0.280473
-0.27315
-0.26531
-0.257053
-0.248535
-0.23993
-0.231393
-0.223047
-0.214974
-0.207226
-0.199825
-0.192778
-0.186084
-0.179715
-0.173718
-0.167896
-0.162743
-0.32392
-0.317923
-0.312971
-0.307384
-0.301757
-0.296174
-0.290567
-0.2848
-0.278714
-0.272185
-0.265167
-0.257705
-0.249912
-0.241936
-0.233927
-0.226013
-0.218291
-0.210825
-0.203653
-0.196789
-0.190245
-0.183993
-0.178098
-0.172342
-0.16726
-0.318479
-0.313107
-0.308517
-0.303298
-0.298024
-0.292812
-0.287637
-0.282395
-0.276939
-0.271128
-0.264878
-0.258183
-0.251109
-0.243773
-0.236311
-0.22885
-0.221496
-0.214327
-0.207393
-0.20072
-0.194331
-0.188199
-0.182407
-0.176718
-0.171705
-0.313357
-0.308576
-0.304337
-0.299475
-0.294536
-0.289664
-0.284871
-0.280086
-0.275181
-0.270012
-0.264469
-0.258503
-0.252135
-0.245444
-0.238544
-0.231556
-0.22459
-0.217734
-0.21105
-0.204577
-0.198349
-0.192339
-0.186653
-0.181032
-0.176085
-0.308551
-0.304324
-0.300425
-0.295909
-0.29129
-0.286733
-0.282281
-0.277895
-0.273469
-0.268869
-0.263968
-0.258684
-0.252998
-0.24695
-0.240625
-0.234129
-0.227572
-0.221046
-0.214628
-0.208364
-0.202304
-0.196421
-0.190841
-0.185289
-0.180406
-0.304056
-0.300344
-0.296772
-0.29259
-0.288279
-0.284018
-0.279874
-0.275838
-0.271829
-0.267726
-0.2634
-0.258747
-0.253711
-0.248294
-0.24255
-0.236564
-0.230436
-0.224262
-0.218127
-0.212085
-0.206202
-0.200451
-0.19498
-0.189497
-0.184673
-0.299864
-0.296628
-0.293368
-0.289508
-0.285494
-0.281512
-0.277651
-0.273926
-0.27028
-0.266611
-0.262793
-0.258712
-0.254286
-0.24948
-0.244316
-0.238852
-0.233175
-0.227376
-0.221543
-0.215739
-0.210044
-0.204433
-0.199074
-0.193662
-0.188893
-0.295966
-0.293165
-0.290203
-0.286651
-0.282923
-0.279208
-0.275611
-0.272165
-0.268837
-0.265544
-0.262172
-0.258604
-0.254738
-0.250516
-0.245922
-0.240988
-0.235779
-0.230376
-0.224868
-0.219323
-0.213831
-0.208371
-0.20313
-0.197792
-0.193076
-0.29235
-0.289944
-0.287262
-0.284006
-0.280554
-0.277097
-0.273748
-0.270557
-0.26751
-0.264543
-0.261559
-0.258443
-0.255087
-0.251409
-0.247367
-0.242962
-0.238235
-0.23325
-0.228092
-0.222827
-0.217558
-0.212263
-0.207152
-0.201892
-0.197234
-0.289003
-0.286953
-0.284535
-0.28156
-0.278375
-0.275166
-0.272054
-0.269098
-0.266303
-0.263622
-0.260974
-0.258253
-0.255352
-0.252174
-0.248656
-0.24477
-0.240531
-0.235983
-0.231199
-0.226239
-0.221215
-0.216106
-0.211142
-0.205971
-0.20138
-0.285911
-0.284178
-0.282007
-0.2793
-0.276371
-0.273403
-0.270518
-0.267785
-0.265218
-0.262789
-0.260432
-0.258054
-0.255552
-0.252826
-0.249795
-0.246408
-0.242656
-0.238556
-0.234168
-0.229539
-0.224788
-0.219888
-0.215096
-0.210029
-0.205553
-0.283057
-0.281605
-0.279665
-0.277212
-0.27453
-0.271796
-0.269131
-0.266608
-0.264253
-0.262049
-0.259945
-0.257862
-0.255707
-0.253381
-0.250793
-0.247878
-0.244599
-0.240953
-0.236977
-0.232706
-0.228255
-0.223592
-0.219004
-0.214071
-0.209755
-0.280426
-0.27922
-0.277495
-0.275282
-0.272837
-0.27033
-0.267879
-0.265559
-0.263402
-0.261402
-0.25952
-0.257693
-0.255836
-0.253858
-0.251666
-0.249184
-0.246357
-0.243158
-0.239604
-0.23571
-0.231586
-0.227191
-0.222839
-0.218087
-0.21407
-0.277999
-0.277008
-0.275482
-0.273496
-0.27128
-0.268992
-0.266749
-0.264626
-0.262658
-0.260845
-0.259162
-0.257555
-0.255954
-0.254275
-0.25243
-0.250336
-0.247929
-0.245161
-0.242028
-0.238524
-0.234748
-0.230649
-0.226573
-0.222033
-0.218362
-0.275758
-0.274955
-0.273612
-0.27184
-0.269842
-0.267768
-0.265728
-0.263796
-0.262009
-0.260373
-0.258868
-0.257455
-0.256073
-0.254649
-0.253102
-0.25135
-0.249322
-0.246958
-0.244232
-0.241124
-0.237701
-0.233942
-0.230063
-0.226154
-0.22189
-0.27368
-0.273047
-0.271871
-0.270301
-0.268512
-0.266644
-0.264802
-0.263057
-0.261444
-0.259975
-0.258636
-0.257394
-0.2562
-0.254993
-0.253699
-0.252242
-0.250549
-0.248552
-0.246208
-0.243489
-0.240407
-0.237044
-0.233269
-0.2302
-0.225047
-0.271754
-0.271266
-0.270245
-0.268865
-0.267275
-0.265606
-0.263957
-0.262393
-0.260951
-0.259641
-0.258456
-0.257369
-0.25634
-0.255317
-0.254237
-0.25303
-0.251625
-0.249953
-0.247956
-0.245609
-0.242839
-0.239904
-0.236141
-0.233797
-0.227804
-0.26996
-0.269597
-0.268721
-0.267519
-0.266119
-0.264642
-0.263179
-0.261792
-0.260514
-0.259359
-0.258319
-0.257375
-0.256493
-0.255628
-0.254727
-0.253729
-0.252568
-0.251177
-0.249485
-0.247483
-0.244989
-0.242483
-0.238666
-0.236977
-0.230096
-0.268279
-0.268028
-0.267284
-0.266251
-0.265031
-0.263737
-0.262454
-0.261238
-0.260121
-0.259115
-0.258214
-0.257403
-0.256652
-0.255925
-0.255177
-0.254354
-0.253396
-0.252242
-0.250812
-0.249117
-0.246864
-0.244771
-0.24087
-0.239855
-0.231976
-0.266694
-0.266547
-0.265924
-0.265049
-0.263999
-0.262881
-0.261771
-0.26072
-0.259758
-0.258895
-0.258128
-0.257441
-0.256812
-0.256207
-0.25559
-0.254913
-0.254124
-0.253168
-0.251958
-0.250528
-0.248487
-0.246772
-0.242789
-0.242479
-0.233533
-0.265189
-0.265135
-0.264633
-0.263902
-0.263014
-0.262062
-0.261117
-0.260225
-0.259412
-0.258687
-0.258047
-0.257479
-0.256962
-0.256468
-0.255965
-0.255413
-0.254764
-0.25397
-0.252945
-0.251736
-0.249887
-0.248496
-0.24447
-0.24483
-0.234848
-0.263752
-0.263788
-0.263397
-0.262802
-0.262065
-0.261271
-0.260482
-0.259741
-0.25907
-0.258478
-0.25796
-0.257504
-0.257092
-0.2567
-0.256298
-0.255853
-0.255322
-0.254663
-0.253792
-0.252761
-0.251095
-0.249951
-0.245962
-0.246867
-0.236017
-0.262369
-0.262496
-0.262207
-0.261741
-0.261146
-0.260499
-0.259858
-0.259259
-0.258723
-0.258256
-0.257854
-0.257505
-0.257191
-0.256893
-0.256583
-0.256232
-0.255802
-0.255255
-0.254514
-0.253622
-0.252134
-0.251151
-0.247311
-0.248549
-0.23715
-0.261032
-0.261249
-0.261057
-0.260712
-0.260249
-0.25974
-0.259237
-0.258772
-0.258363
-0.258014
-0.25772
-0.257471
-0.25725
-0.257039
-0.256813
-0.256545
-0.256203
-0.255749
-0.25512
-0.254337
-0.25302
-0.252118
-0.248546
-0.249858
-0.25973
-0.260042
-0.259941
-0.259708
-0.259369
-0.258989
-0.258613
-0.258273
-0.257982
-0.257743
-0.257551
-0.257396
-0.257261
-0.257129
-0.256979
-0.256786
-0.256521
-0.256148
-0.255613
-0.254916
-0.25376
-0.25288
-0.249666
-0.25081
-0.25846
-0.258869
-0.258855
-0.258728
-0.258504
-0.258241
-0.257984
-0.257759
-0.257576
-0.257439
-0.257341
-0.257272
-0.257216
-0.257158
-0.257078
-0.256952
-0.256753
-0.25645
-0.255994
-0.255369
-0.254357
-0.253464
-0.250651
-0.251451
-0.257216
-0.257728
-0.257797
-0.257768
-0.257649
-0.257496
-0.257347
-0.257226
-0.257144
-0.257099
-0.257087
-0.257096
-0.257113
-0.257122
-0.257103
-0.257037
-0.256898
-0.256654
-0.256265
-0.255701
-0.254809
-0.253895
-0.251476
-0.255996
-0.256617
-0.256764
-0.256828
-0.256807
-0.256752
-0.256702
-0.256676
-0.256683
-0.256723
-0.256788
-0.256868
-0.25695
-0.257018
-0.257055
-0.257042
-0.256953
-0.25676
-0.256427
-0.255914
-0.255118
-0.254188
-0.252119
-0.254802
-0.255535
-0.255758
-0.255908
-0.255976
-0.256011
-0.256049
-0.256109
-0.256197
-0.256312
-0.256446
-0.256589
-0.256729
-0.256849
-0.256935
-0.256966
-0.256921
-0.256771
-0.256482
-0.256014
-0.255291
-0.254357
-0.252575
-0.253634
-0.254484
-0.254778
-0.255009
-0.255158
-0.255275
-0.255393
-0.255529
-0.255689
-0.25587
-0.256065
-0.256263
-0.256453
-0.256619
-0.256746
-0.256815
-0.256806
-0.256691
-0.256438
-0.256006
-0.255339
-0.254415
-0.252496
-0.253466
-0.253829
-0.254135
-0.254358
-0.254548
-0.254737
-0.25494
-0.255162
-0.255401
-0.255649
-0.255896
-0.256128
-0.256333
-0.256494
-0.256595
-0.256615
-0.256528
-0.256304
-0.255902
-0.255277
-0.254378
-0.251394
-0.252485
-0.252913
-0.253288
-0.253579
-0.253834
-0.254085
-0.254347
-0.254624
-0.254914
-0.255207
-0.255494
-0.255763
-0.256
-0.25619
-0.256317
-0.25636
-0.256295
-0.256093
-0.255717
-0.255128
-0.254267
-0.250332
-0.251545
-0.252035
-0.252474
-0.252826
-0.253138
-0.253444
-0.253758
-0.254082
-0.254414
-0.254746
-0.255068
-0.255367
-0.25563
-0.255844
-0.25599
-0.256052
-0.256004
-0.255821
-0.255468
-0.254913
-0.2541
-0.24932
-0.250652
-0.2512
-0.251699
-0.252105
-0.252468
-0.252822
-0.253179
-0.253544
-0.253912
-0.254276
-0.254626
-0.25495
-0.255235
-0.255467
-0.255629
-0.255705
-0.255671
-0.255504
-0.255174
-0.254653
-0.248363
-0.249813
-0.250414
-0.250967
-0.251421
-0.251829
-0.252224
-0.252619
-0.253017
-0.253416
-0.253807
-0.254181
-0.254525
-0.254826
-0.255072
-0.255247
-0.255333
-0.255312
-0.255159
-0.254852
-0.254365
-0.247471
-0.249032
-0.249683
-0.250284
-0.250782
-0.251229
-0.251659
-0.252085
-0.252512
-0.252936
-0.253349
-0.253742
-0.254101
-0.254416
-0.254673
-0.254857
-0.254953
-0.254941
-0.254803
-0.254519
-0.254068
-0.246651
-0.248318
-0.249014
-0.249658
-0.250194
-0.250673
-0.251133
-0.251586
-0.252037
-0.252482
-0.252912
-0.25332
-0.253692
-0.254017
-0.254282
-0.254473
-0.254576
-0.254574
-0.254451
-0.25419
-0.253776
-0.245913
-0.247676
-0.248412
-0.249095
-0.249662
-0.25017
-0.250655
-0.25113
-0.2516
-0.252061
-0.252506
-0.252925
-0.253307
-0.25364
-0.253911
-0.254108
-0.254217
-0.254224
-0.254114
-0.253876
-0.2535
-0.245264
-0.247112
-0.247883
-0.248599
-0.249194
-0.249725
-0.25023
-0.250724
-0.251209
-0.251684
-0.25214
-0.252568
-0.252957
-0.253295
-0.253571
-0.253773
-0.253887
-0.253902
-0.253805
-0.253589
-0.253248
-0.24471
-0.246633
-0.247433
-0.248177
-0.248795
-0.249345
-0.249867
-0.250374
-0.250872
-0.251356
-0.251821
-0.252256
-0.25265
-0.252993
-0.253273
-0.253478
-0.253596
-0.253618
-0.253534
-0.253338
-0.253028
-0.24426
-0.246243
-0.247067
-0.247833
-0.248469
-0.249034
-0.249568
-0.250087
-0.250594
-0.251086
-0.251557
-0.251997
-0.252395
-0.252741
-0.253023
-0.253231
-0.253353
-0.253381
-0.253308
-0.253128
-0.252845
-0.243917
-0.245946
-0.246789
-0.247571
-0.24822
-0.248797
-0.249341
-0.249867
-0.250381
-0.250879
-0.251354
-0.251798
-0.252199
-0.252547
-0.252831
-0.25304
-0.253165
-0.253198
-0.253133
-0.252967
-0.243686
-0.245747
-0.246602
-0.247395
-0.248053
-0.248637
-0.249187
-0.249719
-0.250237
-0.250738
-0.251216
-0.251662
-0.252065
-0.252414
-0.2527
-0.25291
-0.253038
-0.253074
-0.253014
-0.252858
-0.24357
-0.245647
-0.246508
-0.247307
-0.247969
-0.248557
-0.24911
-0.249644
-0.250164
-0.250667
-0.251147
-0.251594
-0.251998
-0.252348
-0.252634
-0.252845
-0.252974
-0.253012
-0.252955
-0.252804
0.275405
0.253357
0.233438
0.219256
0.206017
0.196552
0.187515
0.181023
0.174743
0.170209
0.165819
0.162665
0.159634
0.157479
0.155446
0.154053
0.152795
0.152027
0.151404
0.151197
0.275139
0.253181
0.233306
0.219163
0.205943
0.196497
0.18747
0.180987
0.174713
0.170184
0.165797
0.162646
0.159617
0.157463
0.155432
0.15404
0.152782
0.152015
0.151392
0.151185
0.274608
0.252829
0.23304
0.218977
0.205796
0.196387
0.18738
0.180915
0.174654
0.170134
0.165753
0.162607
0.159583
0.157431
0.155403
0.154012
0.152757
0.15199
0.151369
0.151162
0.273811
0.252301
0.232643
0.218698
0.205575
0.196222
0.187245
0.180808
0.174565
0.170058
0.165688
0.162549
0.159532
0.157384
0.15536
0.153972
0.15272
0.151954
0.151334
0.151127
0.27275
0.251598
0.232113
0.218327
0.205281
0.196003
0.187066
0.180664
0.174447
0.169958
0.165602
0.162472
0.159464
0.157321
0.155303
0.153918
0.152669