/*--------------------------------*- C++ -*----------------------------------*\
  =========                 |
  \\      /  F ield         | OpenFOAM: The Open Source CFD Toolbox
   \\    /   O peration     | Website:  https://openfoam.org
    \\  /    A nd           | Version:  7
     \\/     M anipulation  |
\*---------------------------------------------------------------------------*/
FoamFile
{
    version     2.0;
    format      ascii;
    class       volVectorField;
    location    "45";
    object      U;
}
// * * * * * * * * * * * * * * * * * * * * * * * * * * * * * * * * * * * * * //

dimensions      [0 1 -1 0 0 0 0];

internalField   nonuniform List<vector> 
6000
(
(0.0100655 -0.0072704 -1.488e-21)
(0.0536086 -0.0147166 6.58978e-21)
(0.123298 -0.0174627 7.18197e-22)
(0.193039 -0.0177133 -4.31485e-21)
(0.259297 -0.0168394 2.95503e-21)
(0.319811 -0.0156201 -9.40669e-21)
(0.37451 -0.014391 -2.79765e-21)
(0.423944 -0.0132574 2.8962e-21)
(0.468724 -0.0122349 -1.04321e-21)
(0.509408 -0.0113146 8.32352e-21)
(0.546473 -0.0104843 -1.70381e-21)
(0.580328 -0.00973308 1.74437e-22)
(0.611329 -0.00905132 1.92637e-21)
(0.639781 -0.00843092 -4.30151e-21)
(0.665949 -0.00786484 -8.28054e-23)
(0.690064 -0.00734698 3.4741e-21)
(0.71233 -0.00687207 1.30775e-21)
(0.732923 -0.00643549 1.88935e-22)
(0.752 -0.0060332 2.28681e-21)
(0.769699 -0.00566166 1.04927e-21)
(0.786145 -0.00531786 4.41674e-21)
(0.801444 -0.00499927 -2.94486e-21)
(0.815671 -0.00470302 5.23762e-21)
(0.82891 -0.00442523 -2.5118e-21)
(0.841367 -0.00416505 -2.40057e-21)
(0.0108103 -0.021784 6.80108e-22)
(0.0550728 -0.0441042 1.33853e-20)
(0.124998 -0.0523418 9.53158e-21)
(0.194738 -0.0530986 1.70146e-20)
(0.260892 -0.0504827 -1.40992e-20)
(0.321275 -0.0468294 8.62333e-21)
(0.375844 -0.043146 -1.70288e-21)
(0.42516 -0.0397483 2.34293e-21)
(0.469835 -0.0366834 1.23875e-20)
(0.510425 -0.0339248 1.68216e-21)
(0.547406 -0.0314361 2.01025e-21)
(0.581187 -0.0291841 2.3729e-21)
(0.61212 -0.0271405 -1.2035e-20)
(0.640511 -0.0252807 -5.59158e-21)
(0.666625 -0.0235837 5.03584e-21)
(0.690691 -0.0220313 -1.07002e-20)
(0.712912 -0.0206075 -8.14319e-22)
(0.733465 -0.0192987 -5.3255e-21)
(0.752505 -0.0180926 -7.41523e-21)
(0.77017 -0.0169787 5.23516e-22)
(0.786585 -0.015948 -1.37643e-20)
(0.801856 -0.0149927 -4.5638e-21)
(0.816059 -0.0141044 4.45105e-21)
(0.829276 -0.0132715 2.70762e-21)
(0.841701 -0.0124917 2.58597e-21)
(0.0122956 -0.0362072 -1.68647e-20)
(0.0579945 -0.0733356 -6.04784e-22)
(0.128391 -0.0870575 3.97391e-20)
(0.198131 -0.0883341 -3.31707e-20)
(0.264078 -0.0839935 -3.64246e-21)
(0.324198 -0.0779215 2.18613e-20)
(0.378508 -0.0717962 1.17556e-20)
(0.427588 -0.0661447 1.10311e-20)
(0.472054 -0.0610465 2.28639e-22)
(0.512456 -0.0564577 4.7185e-21)
(0.54927 -0.0523177 5.14955e-21)
(0.582901 -0.0485714 -6.22981e-21)
(0.6137 -0.0451715 2.45501e-20)
(0.64197 -0.0420774 2.21604e-20)
(0.667975 -0.0392541 -1.72408e-20)
(0.691943 -0.0366712 2.69993e-20)
(0.714074 -0.0343023 5.22228e-21)
(0.734546 -0.0321245 -2.4331e-20)
(0.753513 -0.0301177 -2.53854e-21)
(0.771111 -0.0282641 5.04195e-21)
(0.787464 -0.0265489 7.30568e-21)
(0.80268 -0.0249593 -3.30693e-21)
(0.816835 -0.0234808 -2.23524e-20)
(0.830007 -0.0220944 3.69885e-21)
(0.842368 -0.0207976 -3.73784e-22)
(0.0145129 -0.0504802 1.35478e-20)
(0.0623599 -0.102307 -4.72576e-20)
(0.133464 -0.121502 -6.46961e-20)
(0.203204 -0.123321 2.70586e-20)
(0.268845 -0.117284 4.13351e-21)
(0.328571 -0.108819 -5.92081e-20)
(0.382494 -0.100272 -3.54505e-21)
(0.431222 -0.0923842 -4.5278e-21)
(0.475373 -0.0852677 -2.29997e-20)
(0.515495 -0.078862 4.20622e-20)
(0.552059 -0.0730825 1.13102e-20)
(0.585466 -0.0678524 -6.55779e-21)
(0.616064 -0.0631057 6.16205e-21)
(0.644154 -0.0587859 -1.92845e-20)
(0.669995 -0.0548438 8.17864e-21)
(0.693816 -0.0512372 -3.79018e-20)
(0.715814 -0.0479293 -9.44966e-21)
(0.736165 -0.0448881 1.18335e-21)
(0.755022 -0.0420855 -1.31464e-20)
(0.772519 -0.0394969 1.2195e-20)
(0.78878 -0.0371013 4.19706e-21)
(0.803913 -0.034881 5.37039e-21)
(0.817997 -0.0328154 7.90546e-21)
(0.831102 -0.0308784 -9.68256e-21)
(0.843367 -0.0290692 -1.38032e-20)
(0.0174495 -0.0645437 -2.73132e-20)
(0.0681484 -0.130916 4.15338e-20)
(0.140196 -0.155567 -1.73986e-20)
(0.20994 -0.15796 -2.44051e-20)
(0.275176 -0.150267 8.2404e-20)
(0.33438 -0.139444 1.84737e-20)
(0.387791 -0.128505 -2.30771e-20)
(0.436051 -0.118405 2.1237e-21)
(0.479784 -0.109291 -4.12491e-20)
(0.519534 -0.101087 -3.21977e-21)
(0.555765 -0.0936844 -2.49781e-20)
(0.588875 -0.0869853 -2.34032e-20)
(0.619206 -0.080905 -4.3793e-20)
(0.647056 -0.0753711 2.04944e-20)
(0.672681 -0.0703209 -6.09876e-21)
(0.696306 -0.0657002 7.59809e-21)
(0.718127 -0.0614619 2.01663e-20)
(0.738318 -0.057565 7.72436e-21)
(0.757028 -0.0539736 -3.39636e-21)
(0.774392 -0.0506562 1.6448e-20)
(0.790531 -0.0475861 -1.14677e-20)
(0.805552 -0.0447402 -2.00526e-20)
(0.819542 -0.0420918 6.4065e-21)
(0.832558 -0.0396084 2.15829e-20)
(0.844697 -0.0372931 5.79253e-21)
(0.0210886 -0.0783398 4.8709e-20)
(0.0753327 -0.159062 7.15244e-21)
(0.14856 -0.189147 4.49732e-20)
(0.218316 -0.192154 1.89817e-20)
(0.28305 -0.182857 -6.8242e-20)
(0.341608 -0.16972 4.50454e-21)
(0.394381 -0.156426 5.33167e-20)
(0.44206 -0.144145 -4.33509e-20)
(0.485273 -0.133061 2.00026e-20)
(0.524561 -0.123082 -6.69434e-20)
(0.560378 -0.114078 3.35606e-20)
(0.593118 -0.105929 5.5211e-20)
(0.623118 -0.0985315 -9.89677e-21)
(0.650669 -0.0917987 3.72354e-21)
(0.676024 -0.0856539 2.08161e-20)
(0.699406 -0.0800312 2.2506e-20)
(0.721008 -0.0748734 1.61486e-20)
(0.740998 -0.0701308 -1.53061e-20)
(0.759527 -0.0657595 -9.66281e-23)
(0.776725 -0.0617215 -7.95706e-21)
(0.79271 -0.0579842 1.92759e-20)
(0.807594 -0.0545193 -8.79309e-21)
(0.821465 -0.0512937 -1.66792e-20)
(0.834371 -0.0482693 -2.71584e-20)
(0.846355 -0.0454561 1.29733e-20)
(0.025409 -0.0918114 -1.42321e-19)
(0.0838786 -0.186645 3.42667e-20)
(0.158521 -0.222137 4.05207e-20)
(0.2283 -0.225807 1.82357e-20)
(0.292443 -0.214968 5.25549e-20)
(0.350233 -0.199573 -2.53262e-20)
(0.402246 -0.183968 -3.90255e-20)
(0.449232 -0.169544 3.98797e-20)
(0.491826 -0.156522 -2.77544e-20)
(0.530561 -0.144798 5.14299e-20)
(0.565885 -0.134218 5.26858e-21)
(0.598184 -0.124641 1.96769e-20)
(0.627788 -0.115948 4.01678e-20)
(0.654982 -0.108035 4.28684e-20)
(0.680017 -0.100812 1.27441e-20)
(0.703109 -0.0942018 -2.40902e-20)
(0.724447 -0.0881379 1.34813e-20)
(0.744199 -0.0825615 3.19899e-20)
(0.762511 -0.0774213 3.19311e-20)
(0.779511 -0.0726724 -3.08051e-20)
(0.795315 -0.0682769 2.49591e-20)
(0.810033 -0.0642011 5.85694e-21)
(0.823763 -0.0604051 3.58685e-20)
(0.836539 -0.0568461 5.35948e-20)
(0.848338 -0.0535445 -2.05482e-20)
(0.0303859 -0.104903 1.70039e-20)
(0.0937457 -0.213567 -9.64298e-20)
(0.17004 -0.254436 -4.98063e-20)
(0.239858 -0.258825 -3.33055e-20)
(0.303324 -0.246518 -6.97904e-20)
(0.360227 -0.228929 4.01065e-20)
(0.411362 -0.211067 2.94741e-21)
(0.457544 -0.194543 5.42326e-20)
(0.499421 -0.179622 5.38727e-20)
(0.537517 -0.166187 -3.29198e-20)
(0.572271 -0.15406 -4.59879e-20)
(0.604058 -0.143083 3.73692e-20)
(0.633203 -0.133118 2.2486e-20)
(0.659986 -0.124046 -1.17746e-19)
(0.684648 -0.115764 -4.78545e-21)
(0.707404 -0.108184 -1.12488e-20)
(0.728438 -0.10123 -8.99854e-21)
(0.747913 -0.0948337 -1.12681e-20)
(0.765974 -0.0889371 1.37943e-20)
(0.782745 -0.083489 -4.76832e-21)
(0.798337 -0.0784459 6.52284e-21)
(0.812865 -0.0737686 -9.73508e-21)
(0.826431 -0.0694101 -1.69466e-20)
(0.839054 -0.0653241 -8.88533e-20)
(0.850642 -0.0615451 1.71031e-20)
(0.0359903 -0.117562 1.17203e-19)
(0.104887 -0.239735 6.87387e-20)
(0.183068 -0.285942 1.04573e-19)
(0.252947 -0.291115 -3.25441e-20)
(0.315657 -0.277424 1.15347e-19)
(0.37156 -0.257716 -8.50111e-21)
(0.421701 -0.237656 -8.27263e-20)
(0.466974 -0.219084 1.83745e-20)
(0.508038 -0.202308 -7.0618e-21)
(0.545409 -0.1872 5.76891e-20)
(0.579516 -0.173562 3.34656e-20)
(0.610725 -0.161216 -6.9717e-20)
(0.63935 -0.150006 -3.71567e-20)
(0.665664 -0.139799 5.6814e-20)
(0.689906 -0.13048 -1.43643e-20)
(0.71228 -0.121951 3.33176e-20)
(0.732969 -0.114124 6.9697e-21)
(0.752131 -0.106924 2.49735e-20)
(0.769907 -0.100286 -5.2936e-20)
(0.786418 -0.0941517 -7.50787e-21)
(0.801771 -0.088473 1.87717e-20)
(0.816081 -0.0832051 -3.67697e-20)
(0.82946 -0.0782934 2.68213e-20)
(0.841913 -0.0736887 5.92675e-20)
(0.853265 -0.0694445 -3.07028e-21)
(0.0421898 -0.129737 -4.77085e-20)
(0.117249 -0.265056 -8.60354e-21)
(0.197553 -0.316559 -7.89774e-20)
(0.267521 -0.322588 -3.3259e-20)
(0.329402 -0.307606 -1.17815e-19)
(0.384196 -0.285862 9.3154e-20)
(0.433232 -0.263674 2.83086e-20)
(0.477493 -0.243111 -6.28135e-20)
(0.517651 -0.224529 6.18498e-20)
(0.554215 -0.207792 4.95524e-21)
(0.587601 -0.192681 1.44195e-20)
(0.618164 -0.179 2.52106e-20)
(0.64621 -0.166576 -3.09448e-20)
(0.672004 -0.155263 2.35427e-20)
(0.695775 -0.144932 1.13946e-20)
(0.717725 -0.135475 -6.16937e-21)
(0.738029 -0.126796 -1.47872e-20)
(0.756842 -0.118811 -4.9093e-20)
(0.774301 -0.111447 4.32388e-20)
(0.790521 -0.104642 8.96506e-21)
(0.805608 -0.0983409 -5.01375e-20)
(0.819675 -0.0924944 -3.40619e-20)
(0.832845 -0.0870398 2.42043e-20)
(0.845108 -0.0819258 3.09837e-20)
(0.856201 -0.0772294 -2.37285e-20)
(0.0489479 -0.141377 3.83774e-20)
(0.130772 -0.289442 -1.93647e-20)
(0.213435 -0.346191 2.44538e-21)
(0.283527 -0.353155 -5.09795e-20)
(0.344513 -0.336988 1.24035e-19)
(0.398098 -0.3133 -1.92145e-19)
(0.445921 -0.289059 -4.57976e-20)
(0.48907 -0.266568 -1.76812e-21)
(0.528233 -0.246236 -1.10916e-19)
(0.563909 -0.227917 -1.83448e-20)
(0.596502 -0.211378 -3.22337e-20)
(0.626356 -0.1964 9.23926e-20)
(0.653766 -0.182796 2.97589e-20)
(0.678987 -0.170407 -9.69177e-20)
(0.702242 -0.159092 1.30276e-20)
(0.723724 -0.148732 -1.4397e-20)
(0.743605 -0.139222 4.0218e-21)
(0.762035 -0.130472 1.07937e-19)
(0.779144 -0.122401 -3.18063e-20)
(0.795045 -0.11494 -2.33161e-20)
(0.809839 -0.108032 -1.42379e-20)
(0.823639 -0.101621 4.64953e-20)
(0.836578 -0.0956347 7.82763e-21)
(0.848631 -0.0900214 -3.10527e-20)
(0.859445 -0.0848868 2.51743e-20)
(0.0562252 -0.152438 -4.95423e-20)
(0.145391 -0.312808 -3.21909e-20)
(0.230649 -0.374748 1.05702e-19)
(0.300907 -0.382732 6.71026e-20)
(0.36094 -0.365494 5.64456e-21)
(0.41322 -0.339964 7.49365e-20)
(0.459729 -0.313753 8.85612e-20)
(0.501671 -0.289404 3.09868e-21)
(0.539752 -0.267381 1.19528e-19)
(0.574464 -0.247534 -9.59646e-21)
(0.606196 -0.229611 -4.06985e-20)
(0.635279 -0.213378 -7.87726e-20)
(0.661996 -0.198633 2.21289e-20)
(0.686594 -0.1852 6.67085e-20)
(0.709287 -0.172931 3.30884e-20)
(0.730263 -0.161695 4.27131e-20)
(0.749684 -0.151379 5.81414e-20)
(0.767695 -0.141885 -1.06999e-19)
(0.784424 -0.133127 1.25818e-20)
(0.799979 -0.12503 6.16019e-20)
(0.814453 -0.117531 -1.06484e-20)
(0.827962 -0.110569 -1.10692e-20)
(0.840649 -0.104064 -2.40493e-21)
(0.852477 -0.0979621 -1.50596e-21)
(0.862991 -0.092404 -2.16874e-20)
(0.0639785 -0.162874 -1.5475e-20)
(0.161034 -0.335072 -2.11949e-20)
(0.249121 -0.402142 -8.28647e-20)
(0.319597 -0.411238 -1.42276e-19)
(0.378631 -0.393052 -8.90041e-20)
(0.429517 -0.36579 -1.89896e-20)
(0.474616 -0.3377 -3.79849e-20)
(0.515259 -0.311567 -1.3256e-20)
(0.552175 -0.287917 -9.47602e-20)
(0.585849 -0.266599 3.4586e-21)
(0.616654 -0.247344 -2.5181e-20)
(0.644906 -0.229902 -5.62658e-20)
(0.670878 -0.214054 2.48711e-20)
(0.694806 -0.199616 -8.84421e-20)
(0.716895 -0.186424 -5.12618e-20)
(0.737323 -0.174341 -5.01145e-20)
(0.756248 -0.163246 -1.14054e-19)
(0.77381 -0.153032 4.69701e-20)
(0.79013 -0.143608 5.68397e-20)
(0.805311 -0.134892 -4.46558e-21)
(0.819442 -0.12682 -5.51364e-20)
(0.832636 -0.119324 3.96911e-20)
(0.845049 -0.112314 1.63187e-20)
(0.856634 -0.105735 8.43015e-22)
(0.866832 -0.0997685 2.07887e-20)
(0.0721619 -0.172646 6.24867e-20)
(0.177626 -0.35616 1.12641e-19)
(0.268775 -0.42829 -1.67402e-20)
(0.339529 -0.438595 1.29868e-19)
(0.397524 -0.419593 -1.26582e-20)
(0.446937 -0.390718 -2.64598e-21)
(0.490536 -0.360844 1.54299e-19)
(0.529793 -0.333008 -3.03194e-20)
(0.565467 -0.307802 -6.3621e-20)
(0.598032 -0.285074 5.67068e-21)
(0.627847 -0.264541 6.04306e-20)
(0.655213 -0.245938 3.00385e-20)
(0.680389 -0.229032 -3.21828e-20)
(0.7036 -0.213625 -4.06422e-21)
(0.725043 -0.199546 -5.13719e-20)
(0.744887 -0.186648 7.05418e-20)
(0.763283 -0.174801 5.55393e-20)
(0.780364 -0.163892 1.08926e-20)
(0.796247 -0.153824 -1.09037e-20)
(0.811029 -0.144512 9.43734e-21)
(0.824792 -0.135885 3.94125e-20)
(0.837649 -0.127872 -2.31287e-20)
(0.849769 -0.120371 2.92346e-20)
(0.861096 -0.113328 -3.15864e-20)
(0.870963 -0.106968 -3.21877e-20)
(0.0807265 -0.181715 -1.51564e-20)
(0.195083 -0.375998 -1.92946e-19)
(0.289527 -0.453112 1.18762e-19)
(0.360629 -0.464727 6.09165e-20)
(0.417559 -0.445051 7.51984e-20)
(0.465428 -0.414688 6.27911e-20)
(0.507442 -0.383136 -9.76138e-20)
(0.545232 -0.353683 6.58016e-21)
(0.579589 -0.326993 3.88115e-20)
(0.610978 -0.30292 -4.75447e-20)
(0.639743 -0.281168 -6.78955e-21)
(0.666169 -0.261454 -6.09007e-21)
(0.690502 -0.243536 1.36379e-20)
(0.712954 -0.227202 7.98029e-20)
(0.733711 -0.212273 6.35034e-20)
(0.752936 -0.198592 -4.73732e-20)
(0.770771 -0.186024 4.3644e-20)
(0.787341 -0.174448 -6.20433e-21)
(0.80276 -0.163761 -3.63151e-20)
(0.817118 -0.153873 1.43787e-20)
(0.830491 -0.144712 -2.31966e-20)
(0.842991 -0.136199 9.94872e-21)
(0.854797 -0.128224 1.57169e-20)
(0.865852 -0.120728 3.13059e-20)
(0.875375 -0.113991 6.64698e-20)
(0.0896208 -0.190049 9.98336e-20)
(0.21332 -0.39452 5.16755e-20)
(0.31129 -0.476534 -1.4848e-19)
(0.382819 -0.489566 -5.35358e-20)
(0.438668 -0.469362 -2.38911e-20)
(0.48493 -0.437647 -3.49836e-20)
(0.525284 -0.404525 -3.82719e-20)
(0.561531 -0.373546 1.01988e-19)
(0.5945 -0.345452 -3.67891e-20)
(0.624652 -0.320103 1.1179e-19)
(0.652311 -0.297191 -6.20955e-21)
(0.677746 -0.276422 6.51432e-20)
(0.70119 -0.25754 -8.9657e-20)
(0.722842 -0.240323 -2.14043e-20)
(0.742877 -0.224583 9.95887e-21)
(0.761449 -0.210155 1.3096e-20)
(0.778691 -0.196895 -4.73944e-20)
(0.794725 -0.18468 1.1359e-20)
(0.809654 -0.1734 -6.19257e-20)
(0.823565 -0.162961 -2.11763e-20)
(0.836527 -0.153286 3.02981e-20)
(0.848649 -0.144294 2.56733e-20)
(0.860124 -0.13586 -6.50987e-20)
(0.870891 -0.127925 1.39548e-20)
(0.880061 -0.120825 -7.84214e-20)
(0.0987909 -0.197616 -1.18312e-19)
(0.232243 -0.411663 -1.67451e-20)
(0.33397 -0.498485 -6.05439e-20)
(0.406016 -0.513043 -7.98934e-20)
(0.460781 -0.49247 -6.53443e-22)
(0.505383 -0.459543 7.8395e-20)
(0.544007 -0.424967 2.63633e-20)
(0.57864 -0.392558 -4.24415e-20)
(0.610158 -0.363141 -5.29381e-21)
(0.639013 -0.336588 -8.49838e-20)
(0.665514 -0.312582 -5.60801e-20)
(0.689912 -0.290814 -6.49819e-20)
(0.712424 -0.271018 4.43667e-20)
(0.733238 -0.252964 -7.74883e-20)
(0.752517 -0.236453 2.43221e-20)
(0.770404 -0.221315 -2.38982e-20)
(0.787026 -0.207398 -5.66215e-20)
(0.802496 -0.194574 5.01371e-20)
(0.816912 -0.182727 1.91283e-20)
(0.830355 -0.17176 1.24125e-20)
(0.842886 -0.161594 7.42429e-21)
(0.854611 -0.152143 -3.99224e-20)
(0.865736 -0.143269 4.23168e-20)
(0.876204 -0.134907 -5.18346e-20)
(0.885012 -0.12746 -9.40004e-21)
(0.108181 -0.20439 1.01865e-20)
(0.251759 -0.427373 1.23896e-20)
(0.357467 -0.518903 1.50738e-19)
(0.430133 -0.535098 -1.56069e-20)
(0.483822 -0.514317 -2.74544e-20)
(0.526723 -0.480326 -4.48318e-20)
(0.563555 -0.444419 -1.25354e-20)
(0.596512 -0.41068 5.16223e-20)
(0.626518 -0.380027 -1.08851e-19)
(0.654022 -0.352345 1.01254e-19)
(0.679317 -0.32731 1.41119e-19)
(0.702634 -0.304604 3.09714e-21)
(0.724175 -0.283948 -1.10635e-21)
(0.744115 -0.265104 -1.0576e-20)
(0.762605 -0.247866 -5.33279e-20)
(0.779779 -0.232054 1.87242e-20)
(0.795755 -0.217516 7.62629e-20)
(0.810636 -0.204113 -6.37847e-20)
(0.824517 -0.191729 -2.53333e-20)
(0.837472 -0.180259 2.6399e-20)
(0.849554 -0.169625 4.32064e-20)
(0.860865 -0.159735 3.82155e-20)
(0.871623 -0.150439 7.66246e-23)
(0.88178 -0.141666 -8.40104e-20)
(0.890218 -0.133885 9.25351e-20)
(0.117732 -0.210349 3.5185e-20)
(0.271765 -0.441599 4.93902e-20)
(0.38168 -0.537726 -7.92899e-20)
(0.455078 -0.555672 1.55451e-19)
(0.507713 -0.534853 2.46144e-20)
(0.548884 -0.499954 4.01395e-20)
(0.583871 -0.462841 -7.94245e-21)
(0.615093 -0.427878 2.28765e-20)
(0.643533 -0.396077 2.37996e-19)
(0.669638 -0.367345 -6.49224e-20)
(0.69368 -0.341352 -1.27656e-19)
(0.715877 -0.317768 -1.66418e-20)
(0.736412 -0.296307 -4.15203e-20)
(0.755445 -0.276723 2.21432e-20)
(0.773117 -0.258801 9.21537e-20)
(0.789551 -0.242357 6.49799e-20)
(0.804855 -0.227232 -7.74869e-20)
(0.819126 -0.213284 -3.87904e-22)
(0.832452 -0.20039 6.59668e-20)
(0.8449 -0.188445 -4.73512e-20)
(0.856515 -0.177367 4.87511e-20)
(0.867395 -0.167061 9.98923e-21)
(0.877771 -0.157363 1.49513e-20)
(0.887607 -0.14819 4.60651e-20)
(0.895673 -0.140091 4.04159e-20)
(0.127386 -0.215474 -3.17804e-20)
(0.29216 -0.454296 -8.48263e-20)
(0.406501 -0.554903 9.24664e-20)
(0.480755 -0.574714 -1.14618e-19)
(0.532374 -0.55403 -1.14072e-19)
(0.571795 -0.518384 -5.1792e-20)
(0.604894 -0.480199 5.22316e-20)
(0.63433 -0.444119 -6.68797e-20)
(0.661155 -0.411263 -1.53206e-19)
(0.685815 -0.381562 7.35531e-20)
(0.708566 -0.354681 -1.41351e-20)
(0.729606 -0.330285 8.25396e-20)
(0.749101 -0.308076 1.50154e-20)
(0.767198 -0.287802 9.7917e-20)
(0.784025 -0.269242 -1.01644e-19)
(0.799695 -0.252208 9.94451e-21)
(0.814305 -0.236533 1.49183e-20)
(0.827946 -0.222073 1.45034e-20)
(0.840697 -0.208701 -2.66675e-20)
(0.852621 -0.196307 4.19571e-20)
(0.863755 -0.184809 -3.56308e-20)
(0.87419 -0.17411 -8.37208e-21)
(0.884169 -0.16403 6.58529e-21)
(0.893673 -0.154472 2.89433e-20)
(0.901365 -0.146066 -3.55556e-20)
(0.137082 -0.219751 -5.32575e-21)
(0.312835 -0.465428 1.09388e-19)
(0.431819 -0.570385 -1.90881e-20)
(0.507064 -0.592175 9.55781e-20)
(0.557719 -0.571806 5.10928e-20)
(0.595384 -0.53558 -3.62116e-20)
(0.62656 -0.496459 1.32865e-20)
(0.654167 -0.459375 1.61628e-20)
(0.679334 -0.42556 5.07973e-20)
(0.702509 -0.394973 -5.57167e-20)
(0.723933 -0.367279 1.33368e-19)
(0.743783 -0.342134 -6.63505e-20)
(0.76221 -0.319237 -1.03456e-19)
(0.779345 -0.298325 -1.57961e-21)
(0.795303 -0.279175 -2.29508e-20)
(0.810185 -0.261592 -3.60179e-20)
(0.824082 -0.245406 -1.35127e-20)
(0.837074 -0.230469 -3.23484e-20)
(0.849234 -0.216649 2.34686e-20)
(0.860619 -0.203835 -1.11798e-19)
(0.871258 -0.191943 -1.21303e-19)
(0.881233 -0.180875 -7.85158e-20)
(0.890802 -0.170433 -4.57826e-20)
(0.899968 -0.160505 -7.15679e-20)
(0.907286 -0.151803 2.7437e-20)
(0.146758 -0.22317 -5.86579e-21)
(0.333681 -0.474963 -5.8162e-20)
(0.457517 -0.584131 -1.0505e-19)
(0.533903 -0.608014 -2.04884e-20)
(0.58366 -0.588143 -6.95758e-20)
(0.619578 -0.551508 1.12213e-19)
(0.648805 -0.511593 -6.78501e-20)
(0.674548 -0.47362 2.34525e-20)
(0.698018 -0.438944 -1.72113e-19)
(0.719675 -0.407556 1.07103e-19)
(0.73974 -0.379124 -3.10836e-20)
(0.758372 -0.353299 4.98396e-20)
(0.775705 -0.329773 1.32616e-19)
(0.791854 -0.308278 8.27544e-20)
(0.806921 -0.288586 3.36763e-20)
(0.820997 -0.270497 -1.0572e-20)
(0.834162 -0.253839 -1.13215e-20)
(0.846489 -0.23846 1.70677e-20)
(0.858043 -0.224225 3.12033e-20)
(0.868875 -0.21102 9.8605e-20)
(0.879007 -0.198761 7.64917e-20)
(0.888511 -0.187347 5.03153e-20)
(0.897659 -0.176567 2.72936e-20)
(0.906481 -0.166281 -5.99878e-20)
(0.913428 -0.157292 7.42156e-20)
(0.156351 -0.225727 -3.8787e-20)
(0.354585 -0.482877 -1.68158e-20)
(0.483479 -0.596105 3.40584e-20)
(0.561165 -0.622194 2.73345e-20)
(0.610108 -0.603006 4.43564e-20)
(0.644298 -0.566139 -4.07094e-20)
(0.671564 -0.525575 3.10811e-21)
(0.695412 -0.486834 -5.20317e-20)
(0.717156 -0.451396 1.06087e-19)
(0.737264 -0.419295 -1.11694e-19)
(0.755944 -0.390202 -1.62227e-20)
(0.773334 -0.363765 -2.84526e-21)
(0.78955 -0.339671 -7.93208e-20)
(0.804693 -0.317648 -5.08849e-20)
(0.818851 -0.297463 -1.47884e-20)
(0.832104 -0.278913 -2.67249e-20)
(0.844522 -0.261822 6.12393e-20)
(0.856168 -0.246037 -1.43531e-20)
(0.867104 -0.23142 7.38965e-20)
(0.877371 -0.217854 -1.10792e-19)
(0.886984 -0.205254 -1.1466e-21)
(0.896009 -0.193521 5.98353e-22)
(0.904726 -0.182425 2.14815e-20)
(0.9132 -0.171797 7.07719e-20)
(0.919784 -0.162527 3.77766e-20)
(0.1658 -0.22742 8.46195e-20)
(0.375434 -0.489154 1.7563e-20)
(0.509582 -0.60628 -4.51169e-21)
(0.58874 -0.634682 -2.47376e-20)
(0.63697 -0.616368 -1.77375e-20)
(0.669467 -0.579449 1.41351e-20)
(0.694767 -0.538385 1.28768e-20)
(0.716702 -0.498996 -7.46206e-20)
(0.736695 -0.462899 1.76377e-20)
(0.75523 -0.430173 1.91547e-20)
(0.772502 -0.400498 -3.17871e-20)
(0.788629 -0.373519 -2.367e-20)
(0.80371 -0.348919 2.66636e-20)
(0.81783 -0.326423 9.98344e-20)
(0.831063 -0.305795 -1.59079e-20)
(0.843479 -0.286829 3.62927e-21)
(0.855136 -0.269347 1.00064e-20)
(0.866091 -0.253193 -1.54434e-20)
(0.876396 -0.238226 -1.16373e-19)
(0.886089 -0.224329 2.36953e-20)
(0.895174 -0.211416 4.59494e-20)
(0.903709 -0.199391 4.56035e-21)
(0.911989 -0.188005 -4.99303e-20)
(0.920117 -0.177048 -4.08153e-20)
(0.926347 -0.1675 -1.23781e-20)
(0.175042 -0.228254 -3.35434e-20)
(0.39611 -0.493782 3.06412e-20)
(0.535703 -0.614634 7.56141e-22)
(0.616517 -0.645453 -1.79822e-20)
(0.664149 -0.628202 -4.19527e-20)
(0.695004 -0.591416 -2.35641e-20)
(0.718346 -0.550006 2.91559e-20)
(0.738356 -0.510092 -1.44421e-21)
(0.756579 -0.473441 -5.21653e-20)
(0.773523 -0.440179 6.24437e-20)
(0.789369 -0.410001 -1.63008e-20)
(0.804218 -0.38255 5.45656e-20)
(0.81815 -0.357507 -7.88971e-20)
(0.831232 -0.334595 -4.64893e-20)
(0.843528 -0.313574 3.11045e-20)
(0.855095 -0.294238 4.55046e-21)
(0.86598 -0.276406 3.41578e-20)
(0.876233 -0.25992 -2.90231e-20)
(0.885898 -0.244638 -1.33579e-20)
(0.895008 -0.230441 -2.47076e-20)
(0.903559 -0.217244 8.68227e-20)
(0.911596 -0.204953 -6.67023e-20)
(0.919433 -0.193304 9.53946e-20)
(0.927221 -0.182036 -4.48278e-20)
(0.933119 -0.172209 -2.63991e-20)
(0.184014 -0.228237 1.96772e-20)
(0.416497 -0.49676 -5.22592e-20)
(0.561714 -0.621151 1.47715e-20)
(0.644379 -0.654488 7.5031e-20)
(0.691547 -0.638491 -3.10931e-20)
(0.720828 -0.602025 3.6456e-20)
(0.742232 -0.560423 3.40169e-20)
(0.760312 -0.520111 4.26986e-20)
(0.776755 -0.483009 -4.00977e-20)
(0.792094 -0.449303 -5.44289e-20)
(0.806502 -0.418702 4.58932e-20)
(0.820061 -0.390851 -3.97134e-20)
(0.832831 -0.365429 -4.14063e-21)
(0.844867 -0.342157 1.62581e-20)
(0.856216 -0.320795 -4.85163e-20)
(0.866924 -0.301133 7.33368e-20)
(0.87703 -0.282992 -4.19679e-20)
(0.886571 -0.266212 2.8835e-20)
(0.895589 -0.25065 1.27976e-20)
(0.90411 -0.236184 -1.04631e-19)
(0.91212 -0.22273 -1.06545e-19)
(0.919652 -0.210202 -1.99241e-20)
(0.927038 -0.198319 4.7526e-20)
(0.934503 -0.186761 2.80537e-20)
(0.940103 -0.176651 -1.18522e-20)
(0.192656 -0.227382 -2.27822e-20)
(0.436478 -0.498093 4.0234e-20)
(0.587487 -0.625824 -1.51915e-20)
(0.67221 -0.661772 -4.72716e-20)
(0.719067 -0.647219 4.44538e-20)
(0.746854 -0.611262 -3.60157e-20)
(0.766352 -0.569628 4.49948e-20)
(0.782509 -0.529045 -6.17935e-22)
(0.797166 -0.491599 2.90526e-20)
(0.810894 -0.45754 3.33349e-20)
(0.823857 -0.426596 -9.16111e-21)
(0.836117 -0.398415 6.25606e-20)
(0.847719 -0.372677 -4.46948e-20)
(0.858701 -0.349103 4.48457e-22)
(0.869096 -0.32745 1.08988e-20)
(0.878939 -0.307511 2.49397e-21)
(0.888258 -0.289102 -4.93444e-21)
(0.897084 -0.272066 -7.71667e-20)
(0.905448 -0.256258 1.15219e-19)
(0.913375 -0.241555 -4.76788e-20)
(0.920843 -0.227874 1.1127e-19)
(0.927862 -0.215138 3.6857e-21)
(0.934789 -0.20306 -5.32767e-21)
(0.941957 -0.191248 -3.20152e-20)
(0.947323 -0.180851 -2.3776e-20)
(0.200907 -0.225709 -1.51295e-21)
(0.455934 -0.497793 -1.33751e-20)
(0.612893 -0.628652 3.60172e-20)
(0.69989 -0.667297 7.66981e-21)
(0.746605 -0.654377 1.452e-20)
(0.772998 -0.619122 1.34729e-20)
(0.790635 -0.577614 -1.21792e-19)
(0.804884 -0.53689 4.90138e-20)
(0.817759 -0.499206 9.82557e-21)
(0.829873 -0.464886 -2.93864e-20)
(0.841387 -0.433679 6.32748e-21)
(0.852347 -0.40524 -2.26142e-20)
(0.862777 -0.37925 1.41472e-20)
(0.8727 -0.35543 7.53103e-22)
(0.882139 -0.333538 2.709e-20)
(0.891112 -0.313366 -8.77153e-21)
(0.899642 -0.294732 -1.91241e-20)
(0.907746 -0.277478 2.24366e-20)
(0.915452 -0.261459 -3.48452e-20)
(0.922783 -0.24655 3.87479e-20)
(0.929708 -0.23267 -2.23103e-20)
(0.936207 -0.219747 -3.03976e-20)
(0.942645 -0.207492 -2.31119e-21)
(0.94953 -0.195448 6.40077e-21)
(0.954797 -0.184783 4.15678e-20)
(0.20871 -0.223239 5.67516e-21)
(0.474749 -0.49588 -6.94591e-21)
(0.6378 -0.629641 -1.77605e-20)
(0.727297 -0.671061 -3.37356e-21)
(0.774059 -0.659961 -6.74831e-21)
(0.799174 -0.625599 5.97096e-21)
(0.815009 -0.58438 5.27855e-20)
(0.827376 -0.543644 1.07221e-20)
(0.838478 -0.50583 -1.3292e-20)
(0.848982 -0.471339 1.22585e-20)
(0.859049 -0.43995 -7.35263e-20)
(0.868708 -0.411325 8.07461e-21)
(0.877967 -0.385146 -3.63721e-20)
(0.886833 -0.361137 -6.11666e-20)
(0.895313 -0.339057 3.4646e-20)
(0.903416 -0.318699 -1.30974e-20)
(0.911154 -0.29988 -3.04474e-20)
(0.918536 -0.282445 1.0156e-20)
(0.925581 -0.26625 7.79571e-20)
(0.932311 -0.25117 4.15563e-22)
(0.938698 -0.237122 -2.937e-20)
(0.944685 -0.224051 2.54397e-20)
(0.950603 -0.211694 -2.80091e-20)
(0.957196 -0.199575 2.36023e-20)
(0.96263 -0.188833 2.69608e-20)
(0.216009 -0.219999 -1.20398e-21)
(0.492806 -0.492382 3.11235e-22)
(0.662077 -0.628806 3.46172e-22)
(0.75431 -0.673069 1.10426e-20)
(0.801324 -0.663972 -1.28434e-20)
(0.825296 -0.630695 -6.29767e-22)
(0.839401 -0.589928 2.08446e-20)
(0.849921 -0.549312 -3.13316e-20)
(0.859267 -0.511474 1.73865e-20)
(0.868172 -0.476904 3.69236e-20)
(0.876799 -0.445412 1.03552e-19)
(0.885162 -0.416671 -3.98749e-20)
(0.893254 -0.390367 7.13723e-20)
(0.901065 -0.366225 4.00268e-21)
(0.908588 -0.344007 9.6354e-21)
(0.915824 -0.323508 -9.58376e-21)
(0.92277 -0.304546 2.44329e-20)
(0.92943 -0.286967 8.48839e-21)
(0.935813 -0.27063 -3.37951e-20)
(0.941941 -0.255409 3.63629e-20)
(0.947797 -0.241217 4.07989e-20)
(0.953297 -0.227995 -5.9272e-20)
(0.958647 -0.215471 3.93751e-20)
(0.964721 -0.203091 3.7461e-21)
(0.970643 -0.191955 9.27255e-21)
(0.222752 -0.216022 -9.05868e-21)
(0.509989 -0.487331 -5.824e-21)
(0.685592 -0.626168 4.12243e-21)
(0.780803 -0.673332 -4.35665e-21)
(0.828294 -0.666415 1.9978e-20)
(0.851276 -0.634415 3.84769e-20)
(0.863739 -0.594264 -1.91314e-20)
(0.872457 -0.553899 2.56413e-20)
(0.880072 -0.516144 -2.46183e-20)
(0.887393 -0.481586 2.2857e-20)
(0.894591 -0.45007 -5.79838e-20)
(0.901669 -0.421282 8.88599e-21)
(0.908601 -0.394914 -3.23041e-20)
(0.915363 -0.370696 -4.21237e-20)
(0.921936 -0.348391 4.79945e-20)
(0.928307 -0.327795 4.76508e-20)
(0.934466 -0.308731 -2.28744e-21)
(0.940406 -0.291045 -1.1286e-20)
(0.946129 -0.2746 8.55382e-21)
(0.951651 -0.259272 -4.76386e-20)
(0.956972 -0.244972 -5.89238e-20)
(0.962009 -0.231643 6.5105e-20)
(0.966802 -0.21911 -8.23289e-21)
(0.971994 -0.207309 -1.6915e-20)
(0.978376 -0.197554 2.3787e-20)
(0.228901 -0.211348 2.54646e-20)
(0.526178 -0.480766 1.60593e-20)
(0.708212 -0.621758 -1.48584e-20)
(0.806652 -0.671866 1.49473e-21)
(0.854863 -0.667301 -1.31015e-21)
(0.877028 -0.63677 -3.01892e-20)
(0.88795 -0.597398 -2.46522e-20)
(0.894922 -0.557415 -9.74517e-22)
(0.900839 -0.51985 1.55812e-20)
(0.906597 -0.485392 -4.44897e-20)
(0.912384 -0.45393 5.28361e-20)
(0.918189 -0.425164 -2.17467e-20)
(0.923974 -0.398795 -1.97925e-20)
(0.929697 -0.374554 5.46405e-20)
(0.935327 -0.352211 -3.43453e-21)
(0.94084 -0.331563 -6.36401e-20)
(0.946217 -0.312437 -6.49333e-21)
(0.951442 -0.29468 -9.25822e-21)
(0.956507 -0.278159 -4.12455e-20)
(0.961421 -0.262755 2.7293e-20)
(0.966192 -0.248377 4.95794e-20)
(0.970766 -0.234959 -4.17196e-20)
(0.975078 -0.222411 9.95072e-20)
(0.979494 -0.210867 -4.47599e-20)
(0.985383 -0.200661 1.23955e-20)
(0.234433 -0.206019 -4.04734e-20)
(0.541254 -0.472721 -3.97372e-20)
(0.729808 -0.615618 5.1766e-22)
(0.831733 -0.668694 6.20476e-21)
(0.880923 -0.666645 2.53335e-22)
(0.902461 -0.637772 1.4798e-20)
(0.911962 -0.599344 1.5017e-20)
(0.917256 -0.559874 -2.56998e-20)
(0.921514 -0.522604 -5.20184e-22)
(0.925738 -0.488335 1.95466e-20)
(0.930133 -0.457002 -3.5302e-20)
(0.934685 -0.428327 8.39225e-21)
(0.939336 -0.402016 -6.73533e-20)
(0.944033 -0.377807 -1.46722e-20)
(0.948732 -0.355474 1.83574e-20)
(0.953397 -0.334818 2.34271e-20)
(0.957999 -0.315667 -2.31669e-21)
(0.962516 -0.297874 -1.46754e-20)
(0.96693 -0.281307 -2.83086e-20)
(0.971237 -0.265854 -4.45544e-21)
(0.975454 -0.251415 2.712e-21)
(0.979569 -0.237906 1.44897e-20)
(0.983492 -0.22529 -4.66589e-20)
(0.987311 -0.213852 -5.91835e-21)
(0.992408 -0.203424 -3.99766e-20)
(0.239287 -0.20003 -7.9824e-21)
(0.555121 -0.463245 1.20197e-20)
(0.750252 -0.607808 1.79001e-20)
(0.855921 -0.663845 -1.68383e-20)
(0.906367 -0.66447 1.67679e-22)
(0.927489 -0.637439 -4.65113e-21)
(0.935703 -0.600118 5.23191e-21)
(0.939397 -0.561293 5.71931e-21)
(0.942045 -0.524422 -2.22458e-21)
(0.944767 -0.490428 1.42177e-20)
(0.947798 -0.4593 3.06729e-20)
(0.951117 -0.430781 1.7413e-20)
(0.954654 -0.404587 1.39451e-20)
(0.958341 -0.380463 3.90242e-20)
(0.962122 -0.358186 -1.19987e-20)
(0.965951 -0.337564 -6.5029e-22)
(0.969789 -0.318428 2.70955e-20)
(0.973607 -0.300631 -2.21628e-21)
(0.977379 -0.284048 -9.83297e-21)
(0.981092 -0.268568 -5.43545e-22)
(0.984765 -0.254088 -4.91046e-21)
(0.988431 -0.240504 -3.67173e-20)
(0.992025 -0.227825 4.02151e-20)
(0.995421 -0.216466 4.61421e-20)
(0.999718 -0.205926 1.00421e-20)
(0.243383 -0.193416 7.1578e-20)
(0.567679 -0.452428 5.75106e-20)
(0.769442 -0.598393 -3.52114e-20)
(0.879097 -0.65735 1.37893e-20)
(0.931085 -0.6608 -1.06359e-20)
(0.952023 -0.635793 5.18247e-21)
(0.9591 -0.599742 2.54511e-21)
(0.961287 -0.56169 5.51758e-21)
(0.962382 -0.525321 7.65141e-21)
(0.963641 -0.491688 -2.35786e-20)
(0.965338 -0.460838 -1.21203e-20)
(0.967449 -0.432539 -1.23293e-20)
(0.969894 -0.406519 1.80102e-20)
(0.972591 -0.382531 -4.4554e-20)
(0.975471 -0.360357 4.59739e-20)
(0.978478 -0.33981 8.75758e-21)
(0.981566 -0.320725 -1.03298e-20)
(0.984696 -0.302959 2.04315e-20)
(0.987838 -0.286388 6.75693e-20)
(0.990973 -0.270906 -2.05001e-20)
(0.994122 -0.256408 -1.05182e-20)
(0.997357 -0.242779 2.26555e-20)
(1.00063 -0.23006 -1.76545e-20)
(1.00368 -0.218751 -2.75985e-21)
(1.0073 -0.208086 1.44577e-20)
(0.246694 -0.186251 -1.19501e-19)
(0.578835 -0.440381 -1.86925e-20)
(0.787231 -0.587423 -7.63695e-21)