/*--------------------------------*- C++ -*----------------------------------*\
  =========                 |
  \\      /  F ield         | OpenFOAM: The Open Source CFD Toolbox
   \\    /   O peration     | Website:  https://openfoam.org
    \\  /    A nd           | Version:  7
     \\/     M anipulation  |
\*---------------------------------------------------------------------------*/
FoamFile
{
    version     2.0;
    format      ascii;
    class       volScalarField;
    location    "65.001";
    object      p;
}
// * * * * * * * * * * * * * * * * * * * * * * * * * * * * * * * * * * * * * //

dimensions      [0 2 -2 0 0 0 0];

internalField   nonuniform List<scalar> 
14800
(
-0.243751
-0.246711
-0.247678
-0.248723
-0.249683
-0.250624
-0.251529
-0.252353
-0.253047
-0.253562
-0.25385
-0.253873
-0.253611
-0.253061
-0.252279
-0.244001
-0.246916
-0.247868
-0.248898
-0.249848
-0.25078
-0.251677
-0.252495
-0.253184
-0.253692
-0.253972
-0.253981
-0.253692
-0.253107
-0.252205
-0.244504
-0.247329
-0.248251
-0.249253
-0.25018
-0.251095
-0.251979
-0.252786
-0.253467
-0.253967
-0.254237
-0.254227
-0.253891
-0.253268
-0.252111
-0.245247
-0.24794
-0.248816
-0.249774
-0.250667
-0.251555
-0.252417
-0.253209
-0.253878
-0.254369
-0.254627
-0.254597
-0.254185
-0.253557
-0.251948
-0.246211
-0.248733
-0.249547
-0.250445
-0.251289
-0.252138
-0.25297
-0.253739
-0.254391
-0.254868
-0.25511
-0.255067
-0.254529
-0.254001
-0.251645
-0.247372
-0.249691
-0.250426
-0.251245
-0.252024
-0.252819
-0.253608
-0.254343
-0.254971
-0.255429
-0.255648
-0.255616
-0.254852
-0.254642
-0.251094
-0.248705
-0.250793
-0.251431
-0.25215
-0.252844
-0.253568
-0.254298
-0.254986
-0.255579
-0.256009
-0.256186
-0.256221
-0.255039
-0.25553
-0.250202
-0.250181
-0.252019
-0.25254
-0.253136
-0.253722
-0.254353
-0.255005
-0.255628
-0.25617
-0.256564
-0.256654
-0.256871
-0.254993
-0.256585
-0.249313
-0.251776
-0.253348
-0.253731
-0.254179
-0.25463
-0.255142
-0.255692
-0.256229
-0.2567
-0.257048
-0.256975
-0.257489
-0.254961
-0.257243
-0.248484
-0.253465
-0.254763
-0.254985
-0.255255
-0.255541
-0.255905
-0.256326
-0.256753
-0.257126
-0.257421
-0.257225
-0.257847
-0.25471
-0.25794
-0.247355
-0.25523
-0.256249
-0.256285
-0.256347
-0.256435
-0.256618
-0.256881
-0.257171
-0.257424
-0.25763
-0.257257
-0.25809
-0.254069
-0.258579
-0.245994
-0.257059
-0.257797
-0.25762
-0.25744
-0.257294
-0.257264
-0.257337
-0.257462
-0.257564
-0.257667
-0.257046
-0.258151
-0.253099
-0.258898
-0.244642
-0.258948
-0.259403
-0.258986
-0.258529
-0.258112
-0.257832
-0.257685
-0.257617
-0.257539
-0.25752
-0.256612
-0.257913
-0.251957
-0.258537
-0.243593
-0.260902
-0.261072
-0.260382
-0.259612
-0.258888
-0.258325
-0.257926
-0.257639
-0.257356
-0.257178
-0.255995
-0.257247
-0.25083
-0.257133
-0.242891
-0.262937
-0.262815
-0.261818
-0.2607
-0.259632
-0.258753
-0.258075
-0.257545
-0.257032
-0.256638
-0.255225
-0.256052
-0.249785
-0.254565
-0.242127
-0.265076
-0.264648
-0.263309
-0.261808
-0.260364
-0.259141
-0.258158
-0.257358
-0.256591
-0.255905
-0.254292
-0.254309
-0.248643
-0.251069
-0.24067
-0.267355
-0.266584
-0.264891
-0.262963
-0.261113
-0.259521
-0.25821
-0.25711
-0.256052
-0.254985
-0.253127
-0.252067
-0.247051
-0.246997
-0.238139
-0.269817
-0.268668
-0.266583
-0.264197
-0.261916
-0.259932
-0.258269
-0.256831
-0.255422
-0.253871
-0.251631
-0.249369
-0.244691
-0.242443
-0.234527
-0.272521
-0.270933
-0.268421
-0.265551
-0.262816
-0.26042
-0.258374
-0.256544
-0.254692
-0.252534
-0.249713
-0.24622
-0.24143
-0.23718
-0.229966
-0.275522
-0.273417
-0.27045
-0.267067
-0.263859
-0.261028
-0.258556
-0.256256
-0.253839
-0.25093
-0.247317
-0.242632
-0.237311
-0.231092
-0.224572
-0.278862
-0.27618
-0.272713
-0.268794
-0.265091
-0.261792
-0.258832
-0.255958
-0.252828
-0.249014
-0.244425
-0.238628
-0.232485
-0.224804
-0.218296
-0.282607
-0.279261
-0.275258
-0.270777
-0.266554
-0.262739
-0.259204
-0.255624
-0.251614
-0.24675
-0.241063
-0.234219
-0.227108
-0.218785
-0.211393
-0.286819
-0.282704
-0.278132
-0.273061
-0.268282
-0.263882
-0.259659
-0.255217
-0.25015
-0.24412
-0.237279
-0.229438
-0.221511
-0.212613
-0.204668
-0.291554
-0.286554
-0.28138
-0.275688
-0.270297
-0.265222
-0.260172
-0.254687
-0.248397
-0.241119
-0.233121
-0.224381
-0.215727
-0.206416
-0.198242
-0.29686
-0.290854
-0.28505
-0.278691
-0.272614
-0.266748
-0.260698
-0.253976
-0.246324
-0.237759
-0.228651
-0.219095
-0.209833
-0.200194
-0.191838
-0.302779
-0.295648
-0.289181
-0.282095
-0.275236
-0.268433
-0.261175
-0.253023
-0.243911
-0.234063
-0.223911
-0.213631
-0.203838
-0.193917
-0.185452
-0.309344
-0.300973
-0.293809
-0.285913
-0.278155
-0.270227
-0.261525
-0.251773
-0.24115
-0.230052
-0.218936
-0.208006
-0.197738
-0.187581
-0.178975
-0.316578
-0.306862
-0.298956
-0.290151
-0.281347
-0.27205
-0.261661
-0.250181
-0.238036
-0.225746
-0.213742
-0.202222
-0.191521
-0.181146
-0.172396
-0.324493
-0.313338
-0.304632
-0.294801
-0.284755
-0.273797
-0.261499
-0.24821
-0.23457
-0.221151
-0.20833
-0.19627
-0.185163
-0.174593
-0.165675
-0.333083
-0.320411
-0.310828
-0.299838
-0.288281
-0.275348
-0.260961
-0.245831
-0.230745
-0.216267
-0.202691
-0.190128
-0.178641
-0.16789
-0.158794
-0.342326
-0.328067
-0.317516
-0.305202
-0.291792
-0.276581
-0.25998
-0.243017
-0.226549
-0.211079
-0.196805
-0.183771
-0.171929
-0.161014
-0.15173
-0.352172
-0.336267
-0.324647
-0.310785
-0.295126
-0.277379
-0.258495
-0.239738
-0.221962
-0.205567
-0.190646
-0.17717
-0.164998
-0.153939
-0.144462
-0.362544
-0.344937
-0.332145
-0.316422
-0.298113
-0.277631
-0.256447
-0.235963
-0.216957
-0.199701
-0.184181
-0.170295
-0.157825
-0.146639
-0.136974
-0.373328
-0.353972
-0.339892
-0.321905
-0.300578
-0.277233
-0.253781
-0.231653
-0.2115
-0.193447
-0.177378
-0.163114
-0.150382
-0.139092
-0.129248
-0.384371
-0.363235
-0.347712
-0.327002
-0.302354
-0.276089
-0.250438
-0.226767
-0.205551
-0.186768
-0.170201
-0.155598
-0.142646
-0.131275
-0.121268
-0.395474
-0.372558
-0.355373
-0.331468
-0.30328
-0.274108
-0.246362
-0.221256
-0.199069
-0.179626
-0.162616
-0.147719
-0.134592
-0.123164
-0.113019
-0.406397
-0.381742
-0.362585
-0.335061
-0.303206
-0.2712
-0.241491
-0.215073
-0.19201
-0.171983
-0.15459
-0.139451
-0.1262
-0.114741
-0.10449
-0.416862
-0.390551
-0.369029
-0.337545
-0.301993
-0.267282
-0.235765
-0.208165
-0.18433
-0.1638
-0.146094
-0.130772
-0.117451
-0.105991
-0.0956809
-0.42656
-0.398715
-0.37437
-0.338699
-0.299513
-0.262273
-0.229123
-0.200484
-0.175986
-0.155043
-0.137098
-0.121661
-0.108329
-0.0969111
-0.0866104
-0.435163
-0.405925
-0.378284
-0.338318
-0.29565
-0.256099
-0.221508
-0.19198
-0.166938
-0.145679
-0.127578
-0.112097
-0.0988193
-0.087504
-0.0773091
-0.442337
-0.411847
-0.380472
-0.336218
-0.2903
-0.248689
-0.212865
-0.18261
-0.157151
-0.13568
-0.117511
-0.102061
-0.0889048
-0.0777657
-0.0677826
-0.447746
-0.41613
-0.380669
-0.332242
-0.283371
-0.239981
-0.203146
-0.172333
-0.146594
-0.125025
-0.10688
-0.0915381
-0.0785694
-0.0676744
-0.057977
-0.451071
-0.418418
-0.378649
-0.326263
-0.274787
-0.229921
-0.192308
-0.16112
-0.135245
-0.113696
-0.0956717
-0.0805189
-0.0678063
-0.0571987
-0.0477662
-0.452009
-0.418376
-0.374227
-0.318179
-0.264485
-0.218467
-0.18032
-0.148944
-0.123084
-0.101679
-0.0838772
-0.069001
-0.0566256
-0.0463328
-0.0369882
-0.450284
-0.415708
-0.367242
-0.307918
-0.252423
-0.205587
-0.167158
-0.135787
-0.110099
-0.0889673
-0.0714947
-0.0569871
-0.0450434
-0.0351097
-0.025671
-0.445656
-0.410169
-0.357566
-0.295429
-0.238572
-0.191264
-0.152804
-0.121635
-0.0962837
-0.075561
-0.0585374
-0.0444938
-0.03307
-0.0234869
-0.0143357
-0.43792
-0.40156
-0.345112
-0.280689
-0.222925
-0.175485
-0.137245
-0.106487
-0.0816479
-0.0614786
-0.0450321
-0.0315673
-0.0207063
-0.0114596
-0.00289722
-0.426911
-0.389737
-0.329831
-0.263693
-0.20548
-0.158239
-0.120483
-0.0903742
-0.0662277
-0.0467645
-0.0309801
-0.0181983
-0.00794911
0.000876137
0.00873208
-0.412511
-0.374612
-0.311713
-0.244457
-0.186239
-0.139527
-0.102575
-0.0733638
-0.0500499
-0.0314022
-0.0164086
-0.00440199
0.00517259
0.0134782
0.0205738
-0.394644
-0.356152
-0.290786
-0.223013
-0.165207
-0.119421
-0.0836524
-0.0554205
-0.0331191
-0.0154301
-0.00134814
0.00979361
0.0186222
0.0263237
0.0326127
-0.373281
-0.334373
-0.267121
-0.199428
-0.142455
-0.0981453
-0.0635764
-0.0365951
-0.0154771
0.00111096
0.0141651
0.0243526
0.032362
0.039387
0.0448177
-0.348441
-0.309342
-0.24083
-0.173813
-0.118236
-0.0754971
-0.0424694
-0.016945
0.00282423
0.0181747
0.0300891
0.0392342
0.0463526
0.052632
0.0571442
-0.320191
-0.28119
-0.212036
-0.14626
-0.0925204
-0.0516385
-0.0204082
0.00346251
0.0217261
0.0357092
0.0463764
0.0543942
0.0605527
0.0660146
0.0695408
-0.288658
-0.250152
-0.180765
-0.116875
-0.0653973
-0.0266803
0.00251993
0.0245533
0.041163
0.0536561
0.062974
0.0697849
0.0749202
0.0794914
0.0819691
-0.254024
-0.216531
-0.146942
-0.0858471
-0.0370075
-0.000738934
0.02622
0.046245
0.0610627
0.0719506
0.0798227
0.0853554
0.0894151
0.0930272
0.0944059
-0.216486
-0.180379
-0.111071
-0.0532434
-0.00749337
0.0260614
0.0505867
0.0684479
0.0813467
0.0905223
0.0968594
0.101054
0.103996
0.106572
0.106758
-0.176244
-0.141201
-0.0741074
-0.0193795
0.0229917
0.0535894
0.0755068
0.0910653
0.101931
0.109297
0.114022
0.116832
0.118607
0.119985
0.118724
-0.133567
-0.0998144
-0.0358418
0.0155013
0.0542745
0.0817063
0.10086
0.113994
0.122727
0.128201
0.131257
0.132654
0.133164
0.132994
0.12989
-0.0886683
-0.0567552
0.00362408
0.0511933
0.0861703
0.110264
0.126519
0.137125
0.143641
0.147159
0.148516
0.148484
0.14758
0.14541
0.140247
-0.0419805
-0.0123485
0.0440585
0.0874922
0.118491
0.139104
0.152351
0.160343
0.164575
0.166093
0.165736
0.164247
0.161775
0.157471
0.150845
0.00610323
0.0330897
0.0851814
0.124179
0.151043
0.168066
0.178218
0.18353
0.18543
0.18492
0.182834
0.179817
0.175639
0.169416
0.164348
0.0551885
0.0792178
0.126696
0.161021
0.18363
0.19698
0.203977
0.206566
0.206104
0.203553
0.199714
0.195078
0.189206
0.181756
0.177456
0.104867
0.12568
0.168299
0.197779
0.21605
0.225675
0.229483
0.229326
0.226493
0.2219
0.216291
0.210016
0.202613
0.194257
0.1897
0.154725
0.172111
0.209684
0.234207
0.248097
0.253979
0.254589
0.251687
0.24649
0.239864
0.232479
0.224584
0.21579
0.206608
0.20134
0.204349
0.218134
0.250544
0.270056
0.279567
0.281718
0.279149
0.273522
0.265987
0.257349
0.248206
0.238738
0.228641
0.218592
0.212393
0.253323
0.26338
0.290578
0.305082
0.310253
0.308719
0.303015
0.294709
0.284877
0.274264
0.263397
0.252412
0.241077
0.23013
0.222908
0.301231
0.307486
0.329485
0.339042
0.339954
0.334812
0.326044
0.315124
0.303055
0.290518
0.277977
0.265535
0.25301
0.241149
0.232871
0.347666
0.3501
0.366976
0.371698
0.368472
0.35983
0.348096
0.334648
0.320418
0.306025
0.291873
0.278037
0.264373
0.251604
0.24226
0.392233
0.390882
0.402773
0.402822
0.395616
0.383614
0.369034
0.353165
0.336868
0.320699
0.30501
0.289851
0.275103
0.261448
0.251045
0.434552
0.429507
0.436607
0.432195
0.421203
0.406009
0.388729
0.370564
0.352309
0.33446
0.317319
0.300913
0.285146
0.270636
0.259197
0.474265
0.465669
0.468227
0.459609
0.445059
0.426869
0.407056
0.386741
0.366652
0.347232
0.328733
0.311167
0.294451
0.279128
0.266688
0.511032
0.499081
0.497396
0.48487
0.467022
0.446057
0.423901
0.401597
0.379814
0.358942
0.339191
0.320557
0.302968
0.286886
0.273494
0.544542
0.529478
0.523899
0.507798
0.486943
0.463447
0.439157
0.415042
0.391717
0.369525
0.348636
0.329035
0.310656
0.293874
0.279592
0.574511
0.556621
0.547537
0.528232
0.504683
0.478925
0.452727
0.426994
0.402292
0.378921
0.357017
0.336555
0.317474
0.30006
0.284962
0.600685
0.580295
0.568134
0.546024
0.520123
0.492388
0.464523
0.437378
0.411476
0.387077
0.364288
0.343077
0.323387
0.305415
0.28959
0.622842
0.600313
0.585537
0.561049
0.533155
0.503747
0.474471
0.446132
0.419214
0.393945
0.370409
0.348566
0.328363
0.309916
0.293463
0.640796
0.61652
0.599616
0.573199
0.54369
0.512926
0.482507
0.453201
0.425461
0.399488
0.375346
0.352994
0.332376
0.313541
0.296571
0.654394
0.628786
0.610268
0.582388
0.551655
0.519863
0.48858
0.458541
0.430178
0.403672
0.379073
0.356335
0.335405
0.316275
0.298907
0.663523
0.637016
0.617413
0.58855
0.556995
0.524513
0.492649
0.462119
0.433338
0.406475
0.381568
0.358573
0.337433
0.318103
0.300466
0.668105
0.641146
0.620997
0.591641
0.559673
0.526845
0.49469
0.463912
0.434922
0.40788
0.382819
0.359694
0.338449
0.319019
0.301246
0.668102
0.641143
0.620994
0.591638
0.559671
0.526843
0.494688
0.463911
0.43492
0.407878
0.382817
0.359692
0.338448
0.319018
0.301245
0.663513
0.637007
0.617405
0.588543
0.556988
0.524508
0.492644
0.462114
0.433333
0.406471
0.381564
0.358569
0.33743
0.3181
0.300463
0.654378
0.628771
0.610255
0.582376
0.551644
0.519854
0.488571
0.458533
0.43017
0.403665
0.379066
0.356329
0.335399
0.316269
0.298901
0.640772
0.616498
0.599598
0.573183
0.543675
0.512912
0.482495
0.45319
0.42545
0.399478
0.375336
0.352985
0.332368
0.313533
0.296563
0.622812
0.600286
0.585513
0.561028
0.533136
0.50373
0.474455
0.446118
0.4192
0.393933
0.370396
0.348555
0.328352
0.309905
0.293453
0.600648
0.580261
0.568104
0.545998
0.5201
0.492367
0.464504
0.43736
0.411459
0.387061
0.364273
0.343062
0.323373
0.305402
0.289578
0.574468
0.556581
0.547502
0.528201
0.504656
0.4789
0.452704
0.426972
0.402273
0.378903
0.357
0.336538
0.317458
0.300044
0.284948
0.544493
0.529433
0.523859
0.507763
0.486911
0.463419
0.439131
0.415018
0.391695
0.369504
0.348616
0.329015
0.310637
0.293856
0.279575
0.510976
0.499029
0.497351
0.48483
0.466986
0.446024
0.423871
0.401569
0.379788
0.358917
0.339168
0.320535
0.302947
0.286866
0.273475
0.474202
0.465612
0.468176
0.459564
0.445019
0.426832
0.407023
0.38671
0.366623
0.347204
0.328707
0.311143
0.294427
0.279106
0.266667
0.434483
0.429444
0.436551
0.432146
0.421158
0.405968
0.388692
0.37053
0.352276
0.33443
0.31729
0.300886
0.285121
0.270611
0.259174
0.392157
0.390812
0.402712
0.402768
0.395567
0.38357
0.368994
0.353127
0.336832
0.320666
0.304979
0.289821
0.275075
0.26142
0.251019
0.347584
0.350024
0.36691
0.371639
0.368419
0.359782
0.348052
0.334607
0.32038
0.305989
0.291839
0.278005
0.264342
0.251575
0.242232
0.301142
0.307405
0.329413
0.338978
0.339897
0.33476
0.325997
0.31508
0.303014
0.29048
0.277941
0.2655
0.252977
0.241117
0.232841
0.253228
0.263293
0.290501
0.305014
0.310192
0.308663
0.302964
0.294662
0.284833
0.274223
0.263358
0.252375
0.241041
0.230095
0.222876
0.204248
0.218041
0.250462
0.269984
0.279502
0.281659
0.279094
0.273472
0.26594
0.257305
0.248164
0.238698
0.228603
0.218556
0.212358
0.154618
0.172011
0.209596
0.234129
0.248028
0.253916
0.254531
0.251633
0.24644
0.239817
0.232435
0.224542
0.215749
0.20657
0.201303
0.104754
0.125575
0.168206
0.197697
0.215977
0.225609
0.229422
0.229269
0.22644
0.22185
0.216244
0.209971
0.20257
0.194216
0.189661
0.0550692
0.079107
0.126599
0.160935
0.183553
0.196909
0.203912
0.206506
0.206048
0.2035
0.199665
0.195031
0.189162
0.181713
0.177414
0.00597809
0.0329733
0.0850791
0.124088
0.150962
0.167992
0.17815
0.183467
0.185371
0.184864
0.182782
0.179767
0.175591
0.16937
0.164304
-0.0421113
-0.0124703
0.0439514
0.0873971
0.118405
0.139027
0.15228
0.160277
0.164513
0.166034
0.165681
0.164195
0.161725
0.157423
0.150799
-0.0888044
-0.0568823
0.00351219
0.051094
0.086081
0.110182
0.126444
0.137055
0.143576
0.147098
0.148458
0.148429
0.147528
0.14536
0.140199
-0.133708
-0.0999466
-0.0359583
0.0153977
0.0541814
0.0816216
0.100782
0.113922
0.12266
0.128138
0.131197
0.132597
0.133109
0.132942
0.12984
-0.17639
-0.141338
-0.0742283
-0.0194872
0.0228949
0.0535011
0.0754255
0.0909898
0.101861
0.109231
0.113959
0.116772
0.11855
0.119931
0.118672
-0.216636
-0.180521
-0.111196
-0.0533551
-0.00759389
0.0259698
0.0505022
0.0683694
0.0812731
0.0904529
0.0967936
0.100991
0.103937
0.106516
0.106704
-0.254179
-0.216677
-0.147071
-0.0859627
-0.0371115
-0.000833925
0.0261324
0.0461634
0.0609862
0.0718784
0.0797543
0.0852904
0.0893531
0.0929683
0.0943497
-0.288817
-0.250302
-0.180899
-0.116994
-0.0655048
-0.0267786
0.0024292
0.0244687
0.0410836
0.0535811
0.0629029
0.0697172
0.0748557
0.0794301
0.0819106
-0.320353
-0.281343
-0.212174
-0.146383
-0.0926312
-0.0517401
-0.020502
0.00337503
0.0216439
0.0356315
0.0463026
0.0543239
0.0604856
0.0659508
0.06948
-0.348605
-0.309499
-0.240971
-0.173939
-0.11835
-0.0756018
-0.0425661
-0.0170354
0.0027391
0.0180941
0.0300125
0.0391612
0.0462829
0.0525657
0.057081
-0.373448
-0.334533
-0.267265
-0.199557
-0.142572
-0.0982533
-0.0636759
-0.0366885
-0.0155651
0.00102752
0.0140856
0.0242768
0.0322895
0.0393181
0.0447519
-0.394813
-0.356314
-0.290933
-0.223145
-0.165327
-0.119532
-0.0837546
-0.0555167
-0.03321
-0.0155164
-0.00143044
0.00971493
0.018547
0.0262519
0.0325444
-0.412682
-0.374776
-0.311862
-0.244592
-0.186362
-0.13964
-0.102681
-0.073463
-0.0501437
-0.0314914
-0.0164939
-0.00448359
0.00509444
0.0134036
0.0205028
-0.427084
-0.389903
-0.329982
-0.26383
-0.205605
-0.158355
-0.120591
-0.0904762
-0.0663243
-0.0468567
-0.0310684
-0.0182829
-0.00803029
0.000798578
0.00865814
-0.438093
-0.401726
-0.345265
-0.280828
-0.223052
-0.175603
-0.137356
-0.106591
-0.0817475
-0.0615738
-0.0451235
-0.0316551
-0.0207907
-0.0115403
-0.00297426
-0.445829
-0.410336
-0.357721
-0.29557
-0.238702
-0.191384
-0.152918
-0.121742
-0.0963862
-0.0756594
-0.058632
-0.0445848
-0.0331577
-0.0235709
-0.014416
-0.450457
-0.415875
-0.367397
-0.30806
-0.252554
-0.20571
-0.167274
-0.135897
-0.110205
-0.0890689
-0.0715926
-0.0570816
-0.0451345
-0.0351972
-0.0257548
-0.45218
-0.418542
-0.374382
-0.318323
-0.264618
-0.218591
-0.180438
-0.149057
-0.123193
-0.101784
-0.0839787
-0.0690992
-0.0567204
-0.0464239
-0.037075
-0.451241
-0.418583
-0.378805
-0.326407
-0.274921
-0.230047
-0.192428
-0.161235
-0.135356
-0.113804
-0.0957769
-0.080621
-0.0679051
-0.0572937
-0.047857
-0.447914
-0.416292
-0.380824
-0.332387
-0.283506
-0.240109
-0.203268
-0.172452
-0.146709
-0.125137
-0.106989
-0.0916443
-0.0786725
-0.0677739
-0.0580724
-0.442501
-0.412008
-0.380626
-0.336362
-0.290436
-0.248818
-0.212989
-0.18273
-0.157269
-0.135796
-0.117624
-0.102172
-0.0890127
-0.0778701
-0.0678828
-0.435325
-0.406082
-0.378436
-0.338461
-0.295786
-0.256229
-0.221634
-0.192104
-0.167059
-0.145798
-0.127695
-0.112212
-0.0989323
-0.0876137
-0.0774145
-0.426718
-0.398869
-0.37452
-0.338842
-0.299649
-0.262405
-0.229251
-0.20061
-0.17611
-0.155166
-0.13722
-0.121781
-0.108448
-0.0970265
-0.0867215
-0.417017
-0.390702
-0.369176
-0.337687
-0.302129
-0.267414
-0.235894
-0.208294
-0.184458
-0.163928
-0.146221
-0.130898
-0.117575
-0.106112
-0.0957984
-0.406548
-0.381888
-0.362729
-0.3352
-0.303341
-0.271332
-0.241622
-0.215203
-0.192142
-0.172115
-0.154723
-0.139584
-0.126331
-0.114869
-0.104615
-0.39562
-0.372701
-0.355513
-0.331605
-0.303413
-0.274239
-0.246494
-0.221389
-0.199204
-0.179763
-0.162754
-0.147858
-0.134731
-0.123301
-0.113152
-0.384513
-0.363373
-0.347849
-0.327136
-0.302486
-0.27622
-0.250571
-0.226902
-0.20569
-0.18691
-0.170345
-0.155744
-0.142793
-0.13142
-0.12141
-0.373466
-0.354106
-0.340024
-0.322036
-0.300708
-0.277363
-0.253914
-0.231791
-0.211642
-0.193594
-0.177529
-0.163268
-0.150538
-0.139247
-0.129399
-0.362677
-0.345067
-0.332274
-0.316549
-0.298239
-0.277759
-0.25658
-0.236102
-0.217103
-0.199854
-0.18434
-0.170458
-0.157991
-0.146805
-0.137137
-0.352301
-0.336393
-0.324771
-0.310908
-0.29525
-0.277506
-0.258627
-0.239879
-0.222112
-0.205726
-0.190813
-0.177344
-0.165176
-0.154117
-0.144638
-0.342451
-0.328189
-0.317635
-0.305321
-0.291912
-0.276705
-0.260112
-0.243159
-0.226703
-0.211245
-0.196982
-0.183956
-0.172119
-0.161206
-0.15192
-0.333203
-0.320529
-0.310944
-0.299952
-0.288397
-0.275469
-0.261091
-0.245974
-0.230902
-0.216439
-0.202877
-0.190325
-0.178846
-0.168097
-0.159001
-0.324609
-0.313453
-0.304744
-0.29491
-0.284866
-0.273914
-0.261626
-0.248353
-0.234731
-0.221331
-0.208526
-0.19648
-0.185383
-0.174817
-0.165901
-0.316691
-0.306973
-0.299064
-0.290256
-0.281453
-0.272162
-0.261786
-0.250324
-0.238201
-0.225933
-0.213949
-0.202448
-0.191759
-0.181391
-0.172643
-0.309454
-0.301081
-0.293913
-0.286014
-0.278256
-0.270335
-0.261647
-0.251916
-0.241317
-0.230247
-0.219156
-0.208248
-0.197997
-0.187848
-0.179247
-0.302887
-0.295754
-0.289282
-0.282191
-0.275332
-0.268536
-0.261293
-0.253164
-0.244082
-0.234266
-0.224145
-0.213892
-0.20412
-0.194211
-0.185752
-0.296966
-0.290958
-0.285148
-0.278784
-0.272706
-0.266845
-0.260811
-0.254115
-0.246497
-0.23797
-0.228899
-0.219377
-0.210141
-0.200518
-0.19217
-0.29166
-0.286655
-0.281476
-0.275778
-0.270385
-0.265315
-0.260281
-0.254825
-0.248572
-0.241338
-0.233385
-0.224684
-0.216065
-0.206774
-0.198612
-0.286925
-0.282805
-0.278226
-0.273148
-0.268366
-0.263971
-0.259765
-0.255353
-0.250328
-0.244347
-0.237558
-0.229766
-0.221882
-0.213011
-0.205082
-0.282713
-0.279363
-0.275352
-0.270862
-0.266636
-0.262825
-0.259307
-0.255759
-0.251794
-0.246986
-0.241359
-0.234573
-0.227515
-0.219228
-0.211861
-0.278971
-0.276282
-0.272808
-0.268879
-0.265172
-0.261877
-0.258934
-0.256093
-0.253011
-0.249257
-0.244737
-0.239008
-0.232931
-0.225299
-0.218828
-0.275635
-0.273521
-0.270546
-0.267154
-0.263941
-0.261114
-0.25866
-0.256393
-0.254025
-0.251181
-0.247644
-0.243038
-0.237798
-0.231644
-0.225182
-0.272637
-0.27104
-0.26852
-0.265639
-0.2629
-0.26051
-0.258481
-0.256683
-0.254882
-0.252793
-0.250055
-0.246652
-0.241957
-0.23779
-0.230653
-0.269938
-0.268778
-0.266684
-0.26429
-0.262004
-0.260026
-0.258381
-0.256976
-0.255618
-0.254139
-0.251986
-0.249824
-0.245255
-0.243106
-0.235286
-0.26748
-0.266697
-0.264996
-0.26306
-0.261207
-0.259621
-0.258328
-0.257262
-0.256257
-0.255262
-0.253496
-0.252543
-0.247649
-0.247706
-0.238968
-0.265207
-0.264763
-0.263419
-0.261909
-0.260464
-0.259248
-0.258285
-0.257519
-0.256805
-0.256193
-0.254673
-0.254804
-0.24927
-0.251817
-0.241562
-0.263072
-0.262934
-0.26193
-0.260806
-0.259738
-0.258868
-0.25821
-0.257715
-0.257256
-0.256937
-0.255619
-0.256563
-0.250434
-0.255347
-0.243074
-0.261041
-0.261194
-0.260498
-0.259723
-0.258999
-0.258446
-0.25807
-0.257819
-0.25759
-0.257487
-0.256399
-0.257773
-0.251497
-0.257944
-0.243881
-0.259088
-0.259527
-0.259103
-0.258642
-0.258228
-0.25796
-0.257836
-0.257805
-0.257782
-0.257838
-0.257025
-0.25845
-0.252635
-0.259371
-0.244611
-0.2572
-0.25792
-0.257738
-0.257556
-0.257414
-0.257396
-0.257494
-0.257657
-0.257814
-0.257992
-0.257465
-0.258694
-0.253782
-0.259744
-0.245673
-0.255369
-0.256371
-0.256402
-0.256463
-0.256556
-0.256753
-0.257041
-0.257369
-0.257676
-0.257956
-0.257677
-0.258631
-0.25475
-0.259424
-0.247023
-0.2536
-0.254881
-0.2551
-0.255369
-0.255662
-0.25604
-0.256486
-0.256951
-0.257375
-0.257745
-0.257637
-0.258381
-0.255379
-0.25877
-0.248366
-0.251905
-0.253462
-0.253841
-0.254289
-0.254747
-0.255273
-0.255848
-0.256422
-0.256943
-0.257362
-0.257363
-0.258012
-0.255607
-0.258042
-0.249459
-0.250303
-0.252125
-0.252644
-0.253241
-0.253834
-0.254478
-0.255154
-0.255811
-0.256401
-0.25686
-0.257028
-0.257361
-0.255589
-0.257344
-0.250232
-0.248816
-0.25089
-0.251526
-0.252246
-0.252947
-0.253684
-0.254436
-0.255156
-0.255793
-0.256283
-0.256533
-0.256668
-0.255591
-0.256227
-0.251031
-0.24747
-0.249777
-0.25051
-0.25133
-0.252116
-0.252923
-0.253732
-0.254495
-0.255162
-0.255672
-0.255957
-0.256011
-0.255345
-0.255259
-0.251834
-0.246294
-0.248806
-0.249619
-0.250518
-0.251368
-0.252227
-0.253076
-0.253869
-0.254555
-0.255076
-0.255374
-0.255404
-0.25495
-0.254524
-0.252277
-0.245314
-0.247998
-0.248873
-0.249833
-0.25073
-0.251627
-0.252503
-0.253314
-0.25401
-0.254536
-0.254839
-0.254866
-0.254523
-0.253977
-0.252457
-0.244553
-0.247372
-0.248293
-0.249296
-0.250226
-0.251148
-0.252042
-0.252863
-0.253563
-0.25409
-0.254392
-0.254424
-0.254138
-0.253574
-0.252484
-0.24403
-0.246942
-0.247894
-0.248925
-0.249876
-0.250812
-0.251716
-0.252542
-0.253242
-0.253766
-0.254066
-0.254101
-0.253842
-0.253294
-0.252433
-0.243761
-0.24672
-0.247687
-0.248732
-0.249693
-0.250635
-0.251542
-0.252369
-0.253067
-0.253587
-0.253882
-0.253914
-0.253662
-0.253124
-0.252355
-0.251794
-0.250542
-0.249317
-0.247785
-0.246095
-0.244206
-0.242142
-0.239905
-0.2375
-0.234931
-0.232203
-0.229319
-0.22628
-0.22309
-0.219749
-0.216259
-0.212617
-0.208851
-0.204937
-0.200899
-0.196726
-0.19242
-0.187986
-0.183441
-0.178786
-0.174026
-0.169167
-0.164227
-0.159217
-0.154148
-0.149031
-0.14388
-0.138706
-0.133518
-0.128344
-0.123189
-0.118067
-0.112989
-0.107954
-0.102994
-0.0981114
-0.0933166
-0.0886169
-0.0840209
-0.079534
-0.0751741
-0.0709358
-0.0668244
-0.0628417
-0.0589987
-0.0552948
-0.0517307
-0.0483067
-0.0450227
-0.0418776
-0.0388695
-0.035996
-0.033253
-0.0306321
-0.02814
-0.025768
-0.0235109
-0.0213656
-0.0193296
-0.0173987
-0.0155657
-0.0138316
-0.0121927
-0.010647
-0.00919173
-0.00782643
-0.00654738
-0.00536008
-0.00425036
-0.0032484
-0.00228851
-0.00152014
-0.000617345
-0.000324746
0.000985715
-0.251875
-0.250551
-0.249324
-0.247782
-0.24609
-0.244207
-0.242156
-0.239939
-0.237563
-0.235029
-0.232341
-0.2295
-0.226509
-0.223368
-0.220075
-0.216627
-0.212996
-0.209303
-0.20545
-0.201427
-0.197262
-0.192954
-0.188508
-0.183934
-0.179237
-0.174424
-0.169503
-0.16449
-0.159396
-0.154238
-0.149027
-0.14378
-0.138512
-0.133237
-0.127978
-0.122749
-0.117562
-0.11243
-0.107361
-0.102376
-0.0974857
-0.0926989
-0.0880233
-0.0834674
-0.079038
-0.0747297
-0.0705575
-0.0665237
-0.0626302
-0.0588854
-0.055278
-0.0518085
-0.0484759
-0.0452784
-0.0422132
-0.0392768
-0.0364655
-0.0337754
-0.0311942
-0.028738
-0.0263878
-0.0241415
-0.0219937
-0.0199428
-0.0179876
-0.0161233
-0.0143495
-0.0126643
-0.0110669
-0.00955583
-0.00813231
-0.00679371
-0.00554701
-0.00437992
-0.00332382
-0.00231698
-0.00150702
-0.000583436
-0.000269044
0.000986409
-0.252119
-0.250655
-0.249433
-0.247878
-0.246181
-0.244303
-0.242265
-0.24007
-0.237722
-0.235223
-0.232575
-0.229777
-0.226833
-0.22374
-0.220494
-0.217086
-0.213613
-0.209893
-0.206045
-0.202045
-0.197891
-0.193583
-0.189126
-0.184526
-0.179789
-0.174925
-0.169942
-0.164857
-0.159681
-0.154435
-0.149132
-0.143791
-0.13843
-0.133067
-0.127724
-0.122418
-0.117165
-0.111979
-0.106874
-0.101866
-0.0969655
-0.0921849
-0.0875284
-0.0830058
-0.0786288
-0.0743892
-0.0702938
-0.0663443
-0.0625369
-0.0588655
-0.0553392
-0.0519536
-0.0487044
-0.0455874
-0.0425974
-0.0397291
-0.0369773
-0.0343357
-0.0318058
-0.0293656
-0.0270252
-0.0247798
-0.0226269
-0.0205609
-0.0185804
-0.0166831
-0.0148689
-0.0131372
-0.0114884
-0.00992244
-0.0084418
-0.00704503
-0.00574079
-0.00451811
-0.00341019
-0.00235811
-0.00150881
-0.000566012
-0.000227202
0.000961824
-0.252511
-0.250829
-0.249625
-0.248053
-0.246352
-0.244478
-0.242452
-0.240278
-0.237958
-0.235494
-0.232884
-0.230129
-0.227229
-0.22418
-0.220972
-0.21768
-0.214184
-0.210526
-0.206711
-0.202733
-0.19859
-0.194283
-0.189815
-0.185191
-0.180418
-0.175504
-0.170463
-0.165308
-0.160054
-0.154723
-0.149332
-0.143901
-0.138451
-0.133003
-0.12758
-0.122201
-0.116885
-0.111648
-0.106505
-0.101473
-0.0965607
-0.0917911
-0.0871509
-0.0826603
-0.078323
-0.0741366
-0.0701023
-0.0662203
-0.0624953
-0.0589146
-0.0554756
-0.0521738
-0.0490034
-0.0459583
-0.0430323
-0.0402192
-0.0375131
-0.0349088
-0.0324078
-0.0299929
-0.0276642
-0.0254194
-0.0232568
-0.0211723
-0.0191648
-0.0172333
-0.0153784
-0.0136006
-0.0119016
-0.0102823
-0.00874673
-0.0072944
-0.0059357
-0.00466062
-0.00350448
-0.00241037
-0.00152511
-0.000565929
-0.000201492
0.000913409
-0.253039
-0.25104
-0.249871
-0.248286
-0.24658
-0.244711
-0.242698
-0.240545
-0.238253
-0.235823
-0.233251
-0.230535
-0.22768
-0.224665
-0.22157
-0.218275
-0.214827
-0.211208
-0.207424
-0.203468
-0.199337
-0.195032
-0.190554
-0.185908
-0.181101
-0.176142
-0.171045
-0.165825
-0.160498
-0.155089
-0.149615
-0.1441
-0.138568
-0.13304
-0.127542
-0.122095
-0.116722
-0.111437
-0.10626
-0.101205
-0.0962862
-0.0915145
-0.0868939
-0.0824333
-0.0781351
-0.0739987
-0.0700232
-0.0662071
-0.0625488
-0.0590393
-0.0556726
-0.0524422
-0.0493406
-0.0463601
-0.043493
-0.0407316
-0.0380689
-0.0354993
-0.0330201
-0.0306206
-0.0282977
-0.0260493
-0.0238732
-0.0217674
-0.0197313
-0.0177649
-0.0158695
-0.0140467
-0.0122992
-0.010629
-0.00904159
-0.00753727
-0.00612808
-0.00480481
-0.00360488
-0.00247303
-0.00155576
-0.000583732
-0.00019311
0.000844156
-0.253736
-0.251238
-0.25014
-0.248545
-0.246837
-0.244976
-0.242978
-0.240847
-0.238584
-0.236187
-0.233655
-0.230981
-0.228146
-0.225246
-0.222145
-0.218902
-0.215495
-0.211916
-0.208162
-0.204227
-0.200109
-0.195806
-0.19132
-0.186655
-0.181817
-0.176818
-0.171671
-0.166396
-0.160991
-0.155514
-0.149968
-0.144377
-0.13877
-0.133171
-0.127605
-0.122098
-0.116671
-0.111344
-0.106136
-0.101062
-0.0961357
-0.0913676
-0.0867631
-0.0823288
-0.0780665
-0.0739751
-0.0700521
-0.066294
-0.0626954
-0.0592484
-0.0559449
-0.0527761
-0.0497332
-0.0468069
-0.0439883
-0.0412688
-0.0386406
-0.0360972
-0.0336335
-0.031242
-0.0289191
-0.0266622
-0.0244696
-0.0223403
-0.0202744
-0.0182727
-0.0163374
-0.014471
-0.0126774
-0.0109595
-0.00932387
-0.00777171
-0.00631659
-0.00494994
-0.00371105
-0.00254623
-0.00160092
-0.000619682
-0.000202145
0.000758232
-0.254581
-0.251326
-0.250402
-0.248798
-0.247093
-0.245245
-0.243265
-0.241158
-0.238926
-0.236565
-0.234065
-0.231381
-0.2287
-0.225784
-0.22274
-0.219543
-0.216164
-0.212615
-0.208892
-0.20498
-0.200877
-0.196578
-0.192087
-0.187406
-0.182543
-0.177508
-0.172317
-0.166987
-0.161535
-0.155992
-0.150378
-0.144721
-0.139047
-0.133385
-0.127761
-0.122202
-0.11673
-0.111367
-0.106133
-0.101043
-0.0961107
-0.0913471
-0.0867574
-0.0823469
-0.0781166
-0.0740645
-0.0701869
-0.0664784
-0.062932
-0.0595385
-0.0562882
-0.0531709
-0.0501762
-0.0472937
-0.0445134
-0.0418259
-0.0392228
-0.0366969
-0.0342423
-0.0318527
-0.0295244
-0.0272549
-0.0250429
-0.0228882
-0.0207915
-0.0187547
-0.0167807
-0.0148728
-0.0130359
-0.0112737
-0.00959386
-0.00799838
-0.00650207
-0.00509704
-0.00382398
-0.00263093
-0.00166103
-0.000673801
-0.000227813
0.00066043
-0.255023
-0.251658
-0.250541
-0.249012
-0.247316
-0.245486
-0.243529
-0.24145
-0.23925
-0.236922
-0.234464
-0.231936
-0.229171