/*--------------------------------*- C++ -*----------------------------------*\
  =========                 |
  \\      /  F ield         | OpenFOAM: The Open Source CFD Toolbox
   \\    /   O peration     | Website:  https://openfoam.org
    \\  /    A nd           | Version:  7
     \\/     M anipulation  |
\*---------------------------------------------------------------------------*/
FoamFile
{
    version     2.0;
    format      ascii;
    class       surfaceScalarField;
    location    "65.001";
    object      phi;
}
// * * * * * * * * * * * * * * * * * * * * * * * * * * * * * * * * * * * * * //

dimensions      [0 3 -1 0 0 0 0];

internalField   nonuniform List<scalar> 
29280
(
-1.62683e-05
1.562e-05
6.48305e-07
-5.28939e-05
3.51779e-05
1.44761e-06
-0.000103656
4.87994e-05
1.96242e-06
-0.000164248
5.83018e-05
2.29027e-06
-0.000231939
6.51694e-05
2.52149e-06
-0.000305078
7.04214e-05
2.71829e-06
-0.00038269
7.47004e-05
2.91097e-06
-0.000464133
7.83412e-05
3.10221e-06
-0.000548855
8.14474e-05
3.27482e-06
-0.000636237
8.39834e-05
3.39775e-06
-0.000725575
8.59101e-05
3.42882e-06
-0.000816219
8.73289e-05
3.31468e-06
-0.000907968
8.87621e-05
2.98652e-06
-0.00100199
9.16477e-05
2.37056e-06
9.66079e-05
1.34799e-06
-0.00109994
-1.59755e-05
3.15955e-05
-5.1999e-05
7.12014e-05
-0.000101923
9.87239e-05
-0.000161458
0.000117836
-0.000227848
0.000131559
-0.000299398
0.000141972
-0.000375075
0.000150378
-0.000454177
0.000157443
-0.00053608
0.00016335
-0.000620073
0.000167977
-0.000705325
0.000171162
-0.00079096
0.000172963
-0.000876337
0.000174139
-0.000962587
0.000177898
0.000183541
-0.00104952
-1.53951e-05
4.69907e-05
-5.02208e-05
0.000106027
-9.84757e-05
0.000146979
-0.000155898
0.000175258
-0.000219685
0.000195346
-0.000288053
0.000210339
-0.000359854
0.000222178
-0.000434257
0.000231846
-0.000510498
0.000239591
-0.000587693
0.000245172
-0.00066476
0.000248229
-0.000740434
0.000248637
-0.000813121
0.000246826
-0.000884174
0.000248951
0.000248555
-0.000949189
-1.4554e-05
6.15446e-05
-4.76294e-05
0.000139102
-9.34292e-05
0.000192779
-0.00014773
0.000229559
-0.000207656
0.000255273
-0.000271287
0.00027397
-0.000337299
0.000288191
-0.000404664
0.000299211
-0.000472401
0.000307329
-0.000539367
0.000312138
-0.000604132
0.000312994
-0.000664986
0.000309491
-0.000718687
0.000300527
-0.000767641
0.000297905
0.000281039
-0.000800125
-1.34906e-05
7.50353e-05
-4.43262e-05
0.000169938
-8.6954e-05
0.000235406
-0.00013719
0.000279795
-0.000192059
0.000310142
-0.000249455
0.000331365
-0.000307811
0.000346547
-0.000365821
0.000357221
-0.000422199
0.000363707
-0.000475454
0.000365393
-0.000523695
0.000361235
-0.000564903
0.000350698
-0.00059322
0.000328844
-0.000613591
0.000318277
0.00027106
-0.000603612
-1.22537e-05
8.7289e-05
-4.04393e-05
0.000198124
-7.92656e-05
0.000274233
-0.00012458
0.00032511
-0.000173277
0.000358839
-0.000223009
0.000381097
-0.000271896
0.000395435
-0.000318259
0.000403584
-0.000360397
0.000405844
-0.000396356
0.000401352
-0.00042361
0.000388489
-0.000440205
0.000367293
-0.00043647
0.000325109
-0.00042143
0.000303237
0.000210348
-0.000360718
-1.08995e-05
9.81885e-05
-3.61174e-05
0.000223341
-7.0615e-05
0.00030873
-0.000110252
0.000364747
-0.000151753
0.00040034
-0.000192475
0.000421819
-0.000230141
0.000433101
-0.000262585
0.000436029
-0.000287547
0.000430806
-0.000302469
0.000416274
-0.000303841
0.000389862
-0.000290294
0.000353746
-0.000247811
0.000282626
-0.00018742
0.000242847
9.71777e-05
-7.42503e-05
-9.48852e-06
0.000107677
-3.15218e-05
0.000245375
-6.1275e-05
0.000338484
-9.45861e-05
0.000398058
-0.000127967
0.000433721
-0.000158415
0.000452267
-0.000183159
0.000457844
-0.000199413
0.000452283
-0.00020417
0.000435564
-0.00019412
0.000406224
-0.000164223
0.000359965
-0.000112962
0.000302485
-2.86535e-05
0.000198317
9.22533e-05
0.00012194
-8.49978e-05
0.000274429
-8.08261e-06
0.00011576
-2.68167e-05
0.000264109
-5.15235e-05
0.00036319
-7.79694e-05
0.000424504
-0.000102399
0.000458151
-0.000121372
0.000471239
-0.000131511
0.000467984
-0.000129253
0.000450025
-0.000110591
0.000416901
-7.12201e-05
0.000366853
-6.08498e-06
0.000294829
9.29618e-05
0.000203439
0.000236584
5.46955e-05
0.000414084
-5.5561e-05
-0.000357055
0.000686142
-6.74066e-06
0.0001225
-2.21581e-05
0.000279526
-4.16226e-05
0.000382655
-6.07596e-05
0.000443641
-7.5476e-05
0.000472867
-8.17964e-05
0.000477559
-7.56009e-05
0.000461788
-5.23563e-05
0.00042678
-6.8733e-06
0.000371418
6.70165e-05
0.000292963
0.000176921
0.000184925
0.000327732
5.26283e-05
0.000541887
-0.00015946
0.000795561
-0.000309235
-0.000730581
0.00116909
-5.51456e-06
0.000128015
-1.76815e-05
0.000291693
-3.17951e-05
0.000396769
-4.32476e-05
0.000455093
-4.75128e-05
0.000477132
-3.99554e-05
0.000470002
-1.55345e-05
0.000437367
3.15105e-05
0.000379735
0.000107995
0.000294934
0.000221644
0.000179314
0.000382522
2.40465e-05
0.000597991
-0.000162841
0.000892199
-0.000453669
0.00123967
-0.000656708
-0.00122043
0.00172952
-4.44497e-06
0.00013246
-1.34891e-05
0.000300737
-2.2199e-05
0.000405478
-2.56125e-05
0.000458507
-1.86423e-05
0.000470162
4.17642e-06
0.000447183
4.90462e-05
0.000392498
0.000123236
0.000305545
0.000235467
0.000182704
0.000395804
1.89775e-05
0.000615748
-0.000195898
0.000907891
-0.000454984
0.00129159
-0.000837369
0.00174762
-0.00111273
-0.0018355
0.00236269
-3.5572e-06
0.000136017
-9.6361e-06
0.000306816
-1.28999e-05
0.000408742
-7.87471e-06
0.000453481
1.12613e-05
0.000451026
5.10397e-05
0.000407405
0.000119115
0.000324423
0.000224632
0.000200027
0.000378529
2.88074e-05
0.000593616
-0.00019611
0.000881852
-0.000484134
0.0012618
-0.000834927
0.00174225
-0.00131783
0.00231493
-0.0016854
-0.00256803
0.00304745
-2.85754e-06
0.000138875
-6.11857e-06
0.000310077
-3.84462e-06
0.000406468
1.01459e-05
0.000439491
4.26513e-05
0.000418521
0.000101569
0.000348487
0.000196383
0.000229608
0.000338489
5.79214e-05
0.000541198
-0.000173901
0.000819962
-0.000474874
0.00118634
-0.000850514
0.00166121
-0.00130979
0.00224041
-0.00189703
0.00292662
-0.00237162
-0.00338624
0.00374484
-2.33052e-06
0.000141205
-2.85943e-06
0.000310606
5.15273e-06
0.000398456
2.88695e-05
0.000415774
7.63636e-05
0.000371027
0.000157275
0.000267576
0.000283322
0.000103561
0.000468437
-0.000127194
0.000728129
-0.000433593
0.00107913
-0.000825877
0.00153202
-0.0013034
0.00210152
-0.0018793
0.00277123
-0.00256674
0.00355153
-0.00315191
-0.00423787
0.00440315
-1.93938e-06
0.000143144
3.28542e-07
0.000308338
1.44282e-05
0.000384356
4.89753e-05
0.000381227
0.000113636
0.000306366
0.000220219
0.000160992
0.000383024
-5.92438e-05
0.000618484
-0.000362653
0.000943478
-0.000758588
0.00137297
-0.00125537
0.00191484
-0.00184526
0.00256844
-0.0025329
0.00330656
-0.00330487
0.00414173
-0.00398707
-0.00506497
0.00496883
-1.63588e-06
0.00014478
3.45759e-06
0.000303245
2.44586e-05
0.000363355
7.1395e-05
0.000334291
0.000156073
0.000221688
0.000292893
2.41726e-05
0.000498848
-0.000265199
0.000792159
-0.000655964
0.0011891
-0.00115552
0.00169849
-0.00176476
0.00232108
-0.00246786
0.00303598
-0.0032478
0.00380769
-0.00407658
0.00464307
-0.00482246
-0.00582087
0.00539898
-1.33285e-06
0.000146113
7.0215e-06
0.00029489
3.58767e-05
0.0003345
9.72723e-05
0.000272895
0.000205547
0.000113413
0.000377957
-0.000148237
0.000633801
-0.000521043
0.000991297
-0.00101346
0.00146249
-0.00162672
0.00204541
-0.00234768
0.00272752
-0.00314997
0.00346966
-0.00398994
0.00423324
-0.00484015
0.00501344
-0.00560267
-0.00648034
0.00567292
-8.94351e-07
0.000147008
1.1295e-05
0.000282701
4.93979e-05
0.000296397
0.000127889
0.000194404
0.000264018
-2.27163e-05
0.000477826
-0.000362046
0.00078967
-0.000832887
0.00121458
-0.00143837
0.0017553
-0.00216744
0.00239528
-0.00298766
0.00310503
-0.00385972
0.00383539
-0.00472029
0.00455084
-0.00555561
0.00523623
-0.00628806
-0.00703909
0.00579497
-1.56989e-07
0.000147165
1.66354e-05
0.000265909
6.57841e-05
0.000247249
0.000164549
9.56396e-05
0.000333281
-0.000191449
0.000594127
-0.000622891
0.000966017
-0.00120478
0.00145622
-0.00192857
0.00205303
-0.00276425
0.00272395
-0.00365857
0.00342519
-0.00456096
0.00410916
-0.00540426
0.00474714
-0.00619359
0.00531899
-0.00685991
-0.00751338
0.00579328
8.03549e-07
0.000146361
2.33926e-05
0.00024332
8.57859e-05
0.000184855
0.000208443
-2.70175e-05
0.000414657
-0.000397663
0.000727066
-0.0009353
0.00115926
-0.00163697
0.00170554
-0.00247486
0.00233676
-0.00339547
0.00300717
-0.00432899
0.00366759
-0.00522137
0.00428182
-0.00601849
0.00483057
-0.00674235
0.00530291
-0.00733225
-0.00793225
0.00572179
2.19627e-06
0.000144165
3.19121e-05
0.000213604
0.000110075
0.000106692
0.000260498
-0.00017744
0.000508655
-0.00064582
0.000874824
-0.00130147
0.0013622
-0.00212434
0.00194796
-0.00306062
0.0025868
-0.00403431
0.00322681
-0.004969
0.00382418
-0.00581874
0.0043582
-0.00655252
0.00481877
-0.00720291
0.00522515
-0.00773863
-0.00829565
0.00558855
4.12539e-06
0.000140039
4.24905e-05
0.000175239
0.000139183
1.00005e-05
0.000321217
-0.000359474
0.000614623
-0.000939226
0.00103313
-0.00171998
0.00156445
-0.00265566
0.00216765
-0.00366382
0.00278729
-0.00465394
0.00337448
-0.0055562
0.00389846
-0.00634271
0.00435302
-0.00700708
0.00474283
-0.00759273
0.00509071
-0.00808651
-0.00860818
0.00540324
6.65753e-06
0.000133382
5.53523e-05
0.000126544
0.000173443
-0.00010809
0.000390533
-0.000576564
0.000730459
-0.00127915
0.00119529
-0.0021848
0.0017539
-0.00321427
0.00235084
-0.00426075
0.00292936
-0.00523247
0.00345136
-0.00607819
0.00390146
-0.00679281
0.00428635
-0.00739198
0.00461841
-0.00792478
0.00492123
-0.00838933
-0.00889255
0.00520559
9.84656e-06
0.000123535
7.06449e-05
6.57455e-05
0.000212946
-0.000250391
0.000467657
-0.000831275
0.000852462
-0.00166396
0.0013528
-0.00268514
0.00191902
-0.00378049
0.00248846
-0.00483019
0.0030117
-0.00575571
0.0034652
-0.00653169
0.00384782
-0.00717543
0.00417458
-0.00771874
0.00446161
-0.00821181
0.00473149
-0.0086592
-0.00915097
0.0049899
1.37291e-05
0.000109806
8.84314e-05
-8.95673e-06
0.000257492
-0.000419452
0.000550959
-0.00112474
0.000975474
-0.00208847
0.00149671
-0.00320638
0.00205094
-0.00433472
0.00257712
-0.00535637
0.00303875
-0.00621734
0.00342701
-0.00691995
0.00375145
-0.00749987
0.00403146
-0.00799875
0.00428367
-0.00846402
0.004527
-0.00890253
-0.00938887
0.00476491
1.8325e-05
9.14811e-05
0.000108684
-9.9316e-05
0.000306546
-0.000617314
0.000637906
-0.0014561
0.0010934
-0.00254397
0.0016191
-0.00373208
0.00214477
-0.00486039
0.00261833
-0.00582994
0.00301827
-0.00661728
0.00334811
-0.00724979
0.00362422
-0.00777598
0.00386706
-0.00824159
0.00409163
-0.00868859
0.00431337
-0.00912428
-0.00960845
0.00453295
2.36385e-05
6.78426e-05
0.000131278
-0.000206956
0.000359183
-0.000845219
0.000725152
-0.00182207
0.00120006
-0.00301887
0.00171432
-0.00424634
0.00219949
-0.00534557
0.00261688
-0.00624733
0.00295909
-0.00695948
0.00323868
-0.00752939
0.00347534
-0.00801264
0.00368839
-0.00845464
0.00389035
-0.00889055
0.00409309
-0.00932702
-0.0098108
0.00429544
2.96577e-05
3.81849e-05
0.000155978
-0.000333276
0.000414052
-0.00110329
0.000808811
-0.00221683
0.00129011
-0.00350017
0.00177951
-0.00473574
0.00221718
-0.00578323
0.00257914
-0.00660929
0.00286969
-0.00725003
0.00310706
-0.00776676
0.00331159
-0.00821717
0.00350019
-0.00864323
0.00368268
-0.00907304
0.00386795
-0.00951229
-0.00999659
0.00405374
3.63532e-05
1.83172e-06
0.00018242
-0.000479342
0.000469391
-0.00139026
0.000884916
-0.00263236
0.00135976
-0.00397502
0.00181441
-0.00519039
0.0022018
-0.00617062
0.00251185
-0.00691934
0.00275749
-0.00749568
0.00295973
-0.00796899
0.00313776
-0.0083952
0.00330555
-0.00881102
0.00347047
-0.00923797
0.00363903
-0.00968085
-0.0101659
0.00380834
4.36746e-05
-4.18429e-05
0.000210094
-0.000645762
0.000523116
-0.00170329
0.000949931
-0.00305917
0.00140703
-0.00443212
0.00182069
-0.00560405
0.00215823
-0.00650816
0.00242129
-0.0071824
0.00262854
-0.00770293
0.00280148
-0.00814193
0.00295711
-0.00855084
0.00310648
-0.00896038
0.0032549
-0.00938639
0.00340705
-0.00983299
-0.0103187
0.00355987
5.15508e-05
-9.33937e-05
0.00023833
-0.000832541
0.000573007
-0.00203796
0.00100117
-0.00348733
0.00143162
-0.00486258
0.00180127
-0.00597369
0.00209144
-0.00679833
0.00231297
-0.00740392
0.00248759
-0.00787755
0.00263577
-0.00829011
0.00277188
-0.00868695
0.00290428
-0.00909278
0.00303675
-0.00951886
0.00317258
-0.00996882
-0.0104549
0.00330877
5.98805e-05
-0.000153274
0.000266308
-0.00103897
0.000616933
-0.00238859
0.00103701
-0.00390741
0.00143454
-0.00526011
0.00175964
-0.00629879
0.00200615
-0.00704484
0.00219141
-0.00758919
0.00233823
-0.00802436
0.00246506
-0.00841694
0.00258354
-0.00880544
0.00269985
-0.00920909
0.0028166
-0.00963561
0.00293607
-0.0100883
-0.0105743
0.00305549
6.85325e-05
-0.000221807
0.000293097
-0.00126353
0.000653082
-0.00274857
0.00105689
-0.00431122
0.00141767
-0.00562089
0.00169945
-0.00658057
0.00190648
-0.00725187
0.00206027
-0.00774298
0.00218314
-0.00814723
0.00229105
-0.00852485
0.00239314
-0.00890753
0.00249381
-0.00930977
0.00259492
-0.00973672
0.00269796
-0.0101913
-0.0106768
0.00280045
7.73412e-05
-0.000299148
0.000317729
-0.00150392
0.000680129
-0.00311097
0.00106116
-0.00469225
0.00138337
-0.0059431
0.00162416
-0.00682136
0.00179594
-0.00742364
0.00192238
-0.00786941
0.00202426
-0.00824912
0.00211494
-0.00861553
0.00220138
-0.00899397
0.00228667
-0.00939505
0.0023721
-0.00982215
0.00245863
-0.0102779
-0.0107623
0.00254408
8.61054e-05
-0.000385253
0.000339278
-0.00175709
0.000697315
-0.00346901
0.00105078
-0.00504571
0.00133417
-0.00622649
0.00153693
-0.00702412
0.00167742
-0.00756413
0.0017799
-0.00797189
0.00186301
-0.00833223
0.0019376
-0.00869011
0.00200883
-0.0090652
0.00207883
-0.00946506
0.00214854
-0.00989185
0.00221847
-0.0103478
-0.0108306
0.00228681
9.45919e-05
-0.000479845
0.000356932
-0.00201943
0.000704432
-0.00381651
0.00102715
-0.00536843
0.00127259
-0.00647193
0.00144049
-0.00719202
0.00155324
-0.00767687
0.00163448
-0.00805313
0.00170042
-0.00839818
0.00175964
-0.00874933
0.0018159
-0.00912146
0.00187066
-0.00951981
0.00192458
-0.00994578
0.00197787
-0.0104011
-0.0108818
0.00202906
0.000102546
-0.000582391
0.000370058
-0.00228695
0.00070174
-0.00414819
0.000991899
-0.00565859
0.00120097
-0.00668101
0.00133717
-0.00732822
0.00142522
-0.00776493
0.00148734
-0.00811525
0.00153725
-0.00844809
0.00158157
-0.00879365
0.00162299
-0.00916289
0.0016625
-0.00955932
0.00170059
-0.00998387
0.00173723
-0.0104377
-0.0109159
0.0017713
0.000109708
-0.000692099
0.000378229
-0.00255547
0.000689841
-0.00445981
0.000946694
-0.00591544
0.00112142
-0.00685574
0.00122888
-0.00743568
0.0012948
-0.00783084
0.00133941
-0.00815986
0.00137406
-0.00848274
0.00140376
-0.00882335
0.00143041
-0.00918954
0.00145469
-0.0095836
0.00147693
-0.0100061
0.00149696
-0.0104577
-0.0109329
0.00151402
0.00011583
-0.000807929
0.00038124
-0.00282088
0.000669564
-0.00474813
0.000893183
-0.00613906
0.00103579
-0.00699835
0.00111722
-0.0075171
0.00116308
-0.0078767
0.00119137
-0.00818816
0.0012113
-0.00850266
0.00122656
-0.00883862
0.00123848
-0.00920146
0.00124751
-0.00959262
0.0012539
-0.0100125
0.00125746
-0.0104613
-0.0109332
0.00125776
0.000120691
-0.00092862
0.00037909
-0.00307928
0.000641863
-0.0050109
0.000832914
-0.00633011
0.000945673
-0.00711111
0.00100343
-0.00757486
0.00103091
-0.00790418
0.00104378
-0.00820103
0.00104933
-0.00850821
0.00105027
-0.00883955
0.00104747
-0.00919866
0.00104124
-0.0095864
0.00103179
-0.010003
0.001019
-0.0104485
-0.0109169
0.00100265
0.000124108
-0.00105273
0.000371957
-0.00332712
0.000607734
-0.00524668
0.00076729
-0.00648967
0.0008524
-0.00719621
0.00088854
-0.007611
0.000898967
-0.00791461
0.000897053
-0.00819912
0.000888479
-0.00849964
0.000875167
-0.00882624
0.000857683
-0.00918117
0.0008362
-0.00956491
0.000810893
-0.00997774
0.000781778
-0.0104194
-0.0108836
0.000748517
0.000125943
-0.00117867
0.000360153
-0.00356133
0.00056817
-0.0054547
0.000697565
-0.00661907
0.000757095
-0.00725574
0.000773354
-0.00762726
0.000767758
-0.00790901
0.000751527
-0.00818289
0.000729006
-0.00847711
0.00070152
-0.00879876
0.000669403
-0.00914906
0.000632711
-0.00952822
0.000591551
-0.00993658
0.000545925
-0.0103738
-0.0108334
0.000495716
0.000126111
-0.00130478
0.000344081
-0.0037793
0.000524115
-0.00563473
0.000624832
-0.00671978
0.000660678
-0.00729159
0.00065851
-0.00762509
0.000637694
-0.0078882
0.000607493
-0.00815268
0.000571164
-0.00844079
0.000529582
-0.00875718
0.000482913
-0.00910239
0.000431136
-0.00947644
0.00037429
-0.00987974
0.000311754
-0.0103112
-0.010766
0.000244279
0.000124582
-0.00142936
0.000324258
-0.00397898
0.000476461
-0.00578694
0.000550036
-0.00679336
0.000563906
-0.00730546
0.000544514
-0.0076057
0.0005091
-0.00785278
0.000465196
-0.00810878
0.000415185
-0.00839077
0.000359603
-0.00870159
0.00029846
-0.00904125
0.000231751
-0.00940973
0.000159447
-0.00980743
8.13346e-05
-0.0102331
-0.0106756
-8.98603e-06
0.000121387
-0.00155075
0.000301247
-0.00415884
0.000426027
-0.00591172
0.000473981
-0.00684131
0.000467392
-0.00729887
0.000431768
-0.00757007
0.000382248
-0.00780326
0.000324857
-0.00805139
0.000261273
-0.00832719
0.000191811
-0.00863213
0.000116264
-0.0089657
3.44913e-05
-0.00932796
-5.30905e-05
-0.00971985
-0.000147052
-0.0101392
-0.0105734
-0.000249286
0.000116602
-0.00166735
0.000275548
-0.00431779
0.000373543
-0.00600971
0.000397347
-0.00686512
0.00037163
-0.00727316
0.000320594
-0.00751904
0.000257372
-0.00774004
0.000186658
-0.00798067
0.00010957
-0.0082501
2.61571e-05
-0.00854872
-6.3317e-05
-0.00887622
-0.000159293
-0.00923199
-0.000261914
-0.00961723
-0.00037256
-0.0100285
-0.0104565
-0.000489449
0.00011034
-0.00177769
0.000247646
-0.00445509
0.000319654
-0.00608172
0.000320706
-0.00686617
0.000277015
-0.00722946
0.000211263
-0.00745329
0.00013465
-0.00766343
5.05894e-05
-0.00789661
-3.97314e-05
-0.00815978
-0.000136301
-0.00845215
-0.000239829
-0.0087727
-0.000350256
-0.00912156
-0.000468029
-0.00949945
-0.000593898
-0.00990264
-0.010324
-0.000726437
0.000102746
-0.00188044
0.000218002
-0.00457035
0.000264923
-0.00612864
0.000244529
-0.00684577
0.000183868
-0.0071688
0.000103988
-0.00737341
1.37332e-05
-0.00757317
-8.26809e-05
-0.0078002
-0.000185902
-0.00805656
-0.000296072
-0.00834198
-0.000413374
-0.00865539
-0.000538053
-0.00899688
-0.000670634
-0.00936687
-0.000811417
-0.00976186
-0.0101759
-0.000959473
9.39848e-05
-0.00197442
0.000187049
-0.00466341
0.000209845
-0.00615143
0.000169189
-0.00680512
9.246e-05
-0.00709208
-2.00883e-06
-0.00727894
-0.000103731
-0.00747145
-0.000213142
-0.00769079
-0.000329418
-0.00794028
-0.000452829
-0.00821857
-0.000583674
-0.00852455
-0.000722337
-0.00885822
-0.000869382
-0.00921983
-0.00102492
-0.00960633
-0.0100126
-0.00118818
8.42327e-05
-0.00205866
0.000155197
-0.00473438
0.000154852
-0.00615109
9.49834e-05
-0.00674525
2.18017e-06
-0.00699927
-0.000103679
-0.00717308
-0.00021881
-0.00735632
-0.000340875
-0.00756872
-0.000469945
-0.00781121
-0.000606355
-0.00808216
-0.000750496
-0.00838041
-0.000902851
-0.00870586
-0.00106403
-0.00905865
-0.0012341
-0.00943626
-0.00983454
-0.00141221
7.36658e-05
-0.00213232
0.000122826
-0.00478354
0.000100292
-0.00612856
2.24182e-05
-0.00666738
-8.40094e-05
-0.00689284
-0.000203683
-0.00705341
-0.000331206
-0.0072288
-0.000465681
-0.00743425
-0.000607301
-0.00766959
-0.00075647
-0.00793299
-0.000913636
-0.00822324
-0.00107936
-0.00854014
-0.00125436
-0.00888365
-0.00143868
-0.00925194
-0.00964193
-0.00163128
6.24652e-05
-0.00219479
9.02777e-05
-0.00481135
4.6524e-05
-0.0060848
-4.84325e-05
-0.00657242
-0.000168852
-0.00677243
-0.000301094
-0.00692116
-0.000440763
-0.00708913
-0.000587402
-0.00728761
-0.000741333
-0.00751566
-0.000903004
-0.00777132
-0.00107291
-0.00805334
-0.00125168
-0.00836137
-0.00144015
-0.00869518
-0.0016384
-0.00905369
-0.00943532
-0.00184501
5.08377e-05
-0.00224562
5.78842e-05
-0.0048184
-5.82869e-06
-0.00602109
-0.000117432
-0.00646082
-0.000251372
-0.00663849
-0.000395786
-0.00677675
-0.000547349
-0.00693756
-0.000705911
-0.00712905
-0.000871898
-0.00734968
-0.0010458
-0.00759742
-0.00122813
-0.00787101
-0.00141961
-0.00816989
-0.00162119
-0.00849359
-0.00183296
-0.00884192
-0.00921541
-0.00205288
3.90023e-05
-0.00228463
2.62709e-05
-0.00480566
-5.80471e-05
-0.00593677
-0.000184627
-0.00633424
-0.000331414
-0.0064917
-0.00048767
-0.00662049
-0.00065086
-0.00677438
-0.000821086
-0.00695882
-0.000998858
-0.0071719
-0.0011847
-0.00741157
-0.00137916
-0.00767655
-0.00158299
-0.00796605
-0.00179729
-0.00827929
-0.00202205
-0.00861715
-0.00898286
-0.00225461
2.6981e-05
-0.00231161
-3.13234e-06
-0.00477555
-0.000107888
-0.00583202
-0.000249776
-0.00619235
-0.000408912
-0.00633256
-0.000576659
-0.00645275
-0.000751193
-0.00659984
-0.000932811
-0.0067772
-0.00112209
-0.00698263
-0.00131958
-0.00721409
-0.00152583
-0.00747029
-0.00174167
-0.00775021
-0.00196828
-0.00805268
-0.0022056
-0.00837984
-0.00873776
-0.0024507
1.44777e-05
-0.00232608
-3.82434e-05
-0.00472283
-0.000157013
-0.00571325
-0.000312717
-0.00603664
-0.000483767
-0.00616151
-0.000662671
-0.00627384
-0.000848255
-0.00641426
-0.00104097
-0.00658448
-0.00124146
-0.00678214
-0.00145029
-0.00700526
-0.00166804
-0.00725255
-0.00189554
-0.00752271
-0.00213406
-0.00781417
-0.00238379
-0.0081301
-0.00848028
-0.00264127
2.24049e-06
-0.00232833
-6.99987e-05
-0.00465059
-0.000204678
-0.00557857
-0.000373383
-0.00586794
-0.000555884
-0.00597901
-0.000745627
-0.0060841
-0.000941954
-0.00621793
-0.00114547
-0.00638097
-0.00135686
-0.00657075
-0.00157673
-0.00678538
-0.0018057
-0.00702358
-0.00204462
-0.00728379
-0.00229456
-0.00756423
-0.00255583
-0.00786884
-0.00821203
-0.00282408
-1.06277e-05
-0.0023177
-0.000100417
-0.0045608
-0.000250597
-0.00542839
-0.000431726
-0.00568681
-0.000625207
-0.00578553
-0.00082545
-0.00588386
-0.0010322
-0.00601118
-0.00124619
-0.00616698
-0.00146815
-0.00634879
-0.00169877
-0.00655477
-0.00193875
-0.00678359
-0.00218902
-0.00703353
-0.00245001
-0.00730323
-0.00271982
-0.00759903
-0.00793214
-0.0029997
-2.30443e-05
-0.00229465
-0.000129704
-0.00445414
-0.000294651
-0.00526344
-0.000487661
-0.0054938
-0.000691684
-0.00558151
-0.000902075
-0.00567346
-0.00111891
-0.00579434
-0.00134303
-0.00594286
-0.00157522
-0.0061166
-0.00181624
-0.00631375
-0.00206697
-0.00653285
-0.00232838
-0.00677212
-0.00260087
-0.00703073
-0.0028853
-0.0073146
-0.00765796
-0.00315949
-3.50501e-05
-0.0022596
-0.000157859
-0.00433133
-0.000336789
-0.00508451
-0.000541128
-0.00528946
-0.000755265
-0.00536737
-0.000975436
-0.00545329
-0.001202
-0.00556778
-0.00143588
-0.00570898
-0.00167793
-0.00587455
-0.001929
-0.00606268
-0.00219005
-0.0062718
-0.00246193
-0.00650025
-0.00274384
-0.00674883
-0.00303394
-0.0070245
-0.00732249
-0.00336941
-4.66547e-05
-0.00221295
-0.000184844
-0.00419314
-0.000376973
-0.00489238
-0.000592082
-0.00507435
-0.000815905
-0.00514355
-0.00104547
-0.00522372
-0.00128139
-0.00533186
-0.00152466
-0.00546572
-0.0017762
-0.00562301
-0.00203693
-0.00580195
-0.00230778
-0.00600095
-0.00258905
-0.00621898
-0.00288012
-0.00645776
-0.00318508
-0.00671954
-0.00699031
-0.00351726
-5.78215e-05
-0.00215513
-0.000210608
-0.00404036
-0.00041517
-0.00468782
-0.000640487
-0.00484903
-0.000873562
-0.00491047
-0.00111213
-0.00498515
-0.00135701
-0.00508698
-0.00160927
-0.00521346
-0.0018699
-0.00536238
-0.00213989
-0.00553195
-0.00242016
-0.00572068
-0.00271116
-0.00592798
-0.00301373
-0.00615519
-0.00333208
-0.00640118
-0.00665493
-0.00366747
-6.85134e-05
-0.00208661
-0.000235106
-0.00387376
-0.000451351
-0.00447158
-0.000686317
-0.00461407
-0.000928201
-0.00466859
-0.00117536
-0.00473799
-0.00142879
-0.00483355
-0.00168962
-0.00495263
-0.00195892
-0.00509309
-0.00223769
-0.00525318
-0.0025268
-0.00543158
-0.00282689
-0.00562789
-0.00313937
-0.00584271
-0.00346717
-0.00607338
-0.0063125
-0.00380959
-7.87385e-05
-0.00200788
-0.000258302
-0.0036942
-0.000485491
-0.00424439
-0.000729547
-0.00437001
-0.000979786
-0.00441835
-0.00123511
-0.00448266
-0.00149667
-0.004572
-0.00176565
-0.00468365
-0.00204316
-0.00481557
-0.00233027
-0.00496607
-0.00262787
-0.00513398
-0.00293683
-0.00531892
-0.00325866
-0.00552088
-0.00359515
-0.00573689
-0.0059622
-0.00394545
-8.84573e-05
-0.00191942
-0.000280164
-0.00350249
-0.000517569
-0.00400698
-0.000770159
-0.00411742
-0.00102829
-0.00416022
-0.00129134
-0.00421961
-0.00156057
-0.00430277
-0.00183725
-0.00440697
-0.00212253
-0.00453029
-0.00241749
-0.00467112
-0.00272308
-0.00482839
-0.00304031
-0.0050017
-0.00337058
-0.00519061
-0.00371516
-0.0053923
-0.00560375
-0.00407361
-9.76342e-05
-0.00182178
-0.000300663
-0.00329946
-0.000547566
-0.00376008
-0.000808133
-0.00385685
-0.00107368
-0.00389468
-0.001344
-0.00394929
-0.00162046
-0.0040263
-0.00190438
-0.00412305
-0.00219695
-0.00423771
-0.00249929
-0.00436878
-0.0028124
-0.00451527
-0.00313736
-0.00467674
-0.00347545
-0.00485252
-0.00382772
-0.00504004
-0.00523746
-0.00419401
-0.000106241
-0.00171554
-0.000319773
-0.00308593
-0.000575468
-0.00350438
-0.000843454
-0.00358887
-0.00111593
-0.00362221
-0.00139305
-0.00367217
-0.00167627
-0.00374308
-0.00196696
-0.00383236
-0.00226635
-0.00393833
-0.00257557
-0.00405956
-0.0028957
-0.00419515
-0.00322781
-0.00434462
-0.00357314
-0.0045072
-0.00393262
-0.00468056
-0.00486374
-0.00430634
-0.000114254
-0.00160129
-0.000337474
-0.00286271
-0.000601261
-0.0032406
-0.000876108
-0.00331402
-0.00115501
-0.0033433
-0.00143845
-0.00338872
-0.00172796
-0.00345357
-0.00202494
-0.00353539
-0.00233064
-0.00363262
-0.00264626
-0.00374395
-0.00297288
-0.00386853
-0.00331161
-0.00400589
-0.00366361
-0.0041552
-0.00402982
-0.00431435
-0.00448307
-0.00441048
-0.000121654
-0.00147963
-0.000353747
-0.00263062
-0.000624936
-0.00296941
-0.000906082
-0.00303288
-0.00119092
-0.00305847
-0.00148019
-0.00309945
-0.00177549
-0.00315827
-0.00207825
-0.00323263
-0.00238979
-0.00332109
-0.00271128
-0.00342245
-0.00304387
-0.00353594
-0.00338867
-0.00366109
-0.00374681
-0.00379705
-0.00411922
-0.00394194
-0.004096
-0.00450629
-0.000128425
-0.00135121
-0.000368579
-0.00239046
-0.000646481
-0.00269151
-0.000933365
-0.00274599
-0.00122362
-0.00276821
-0.00151822
-0.00280486
-0.00181881
-0.00285767
-0.00212687
-0.00292457
-0.00244371
-0.00300424
-0.00277058
-0.00309559
-0.00310861
-0.00319791
-0.00345893
-0.00331077
-0.00382266
-0.00343332
-0.00420074
-0.00356387
-0.00370308
-0.00459366
-0.000134553
-0.00121666
-0.000381956
-0.00214306
-0.00066589
-0.00240757
-0.000957947
-0.00245394
-0.0012531
-0.00247306
-0.00155252
-0.00250544
-0.0018579
-0.00255229
-0.00217073
-0.00261174
-0.00249238
-0.00268259
-0.00282409
-0.00276388
-0.00316703
-0.00285498
-0.00352233
-0.00295547
-0.00389111
-0.00306454
-0.00427429
-0.00318069
-0.00330487
-0.00467249
-0.000140026
-0.00107663
-0.000393868
-0.00188922
-0.000683157
-0.00211828
-0.000979819
-0.00215727
-0.00127934
-0.00217353
-0.00158307
-0.00220172
-0.00189272
-0.00224264
-0.00220982
-0.00229464
-0.00253575
-0.00235666
-0.00287177
-0.00242786
-0.00321908
-0.00250767
-0.00357881
-0.00259573
-0.00395208
-0.00269127
-0.0043398
-0.00279297
-0.00290197
-0.00474271
-0.000144835
-0.000931795
-0.000404307
-0.00162975
-0.000698275
-0.00182431
-0.000998974
-0.00185657
-0.00130234
-0.00187017
-0.00160984
-0.00189422
-0.00192324
-0.00192924
-0.00224408
-0.00197379
-0.00257377
-0.00202698
-0.00291358
-0.00208805
-0.00326471
-0.00215654
-0.00362833
-0.00223211
-0.00400553
-0.00231407
-0.00439722
-0.00240128
-0.00249495
-0.00480424
-0.000148971
-0.000782824
-0.000413266
-0.00136545
-0.000711242
-0.00152634
-0.0010154
-0.00155241
-0.00132207
-0.0015635
-0.00163282
-0.00158347
-0.00194944
-0.00161261
-0.00227351
-0.00164973
-0.00260642
-0.00169406
-0.00294948
-0.00174499
-0.0033039
-0.00180212
-0.00367085
-0.00186516
-0.00405142
-0.0019335
-0.0044465
-0.0020062
-0.00208442
-0.00485703
-0.000152427
-0.000630397
-0.00042074
-0.00109714
-0.000722052
-0.00122503
-0.0010291
-0.00124536
-0.00133853
-0.00125408
-0.00165199
-0.00127
-0.00197131
-0.00129329
-0.00229806
-0.00132298
-0.00263367
-0.00135845
-0.00297944
-0.00139922
-0.0033366
-0.00144496
-0.00370633
-0.00149543
-0.0040897
-0.00155013
-0.00448761
-0.0016083
-0.00167098
-0.00490105
-0.000155199
-0.000475198
-0.000426724
-0.000825615
-0.000730704
-0.000921048
-0.00104007
-0.000935994
-0.0013517
-0.000942446
-0.00166734
-0.000954361
-0.00198882
-0.000971816
-0.00231773
-0.000994076
-0.00265549
-0.00102069
-0.00300344
-0.00105127
-0.00336279
-0.0010856
-0.00373475
-0.00112348
-0.00412036
-0.00116452
-0.00452051
-0.00120814
-0.00125521
-0.00493627
-0.000157281
-0.000317918
-0.000431215
-0.00055168
-0.000737194
-0.000615069
-0.0010483
-0.00062489
-0.00136159
-0.000629152
-0.00167887
-0.000637084
-0.00200197
-0.000648716
-0.00233249
-0.000663556
-0.00267188
-0.000681301
-0.00302145
-0.000701699
-0.00338245
-0.000724595
-0.00375607
-0.000749862
-0.00414336
-0.000777227
-0.0045452
-0.000806313
-0.000837721
-0.00496269
-0.00015867
-0.000159247
-0.000434211
-0.00027614
-0.000741522
-0.000307758
-0.00105379
-0.000312627
-0.00136819
-0.00031475
-0.00168656
-0.000318716
-0.00201074
-0.000324533
-0.00234234
-0.000331957
-0.00268281
-0.000340834
-0.00303347
-0.000351038
-0.00339557
-0.000362492
-0.0037703
-0.000375132
-0.00415871
-0.000388819
-0.00456166
-0.000403365
-0.000419079
-0.0049803
-0.000159366
1.18453e-07
-0.000435709
2.03417e-07
-0.000743687
2.20549e-07
-0.00105653
2.15583e-07
-0.00137149
2.07103e-07
-0.0016904
1.9875e-07
-0.00201513
1.90664e-07
-0.00234726
1.8281e-07
-0.00268827
1.7518e-07
-0.00303948
1.67769e-07
-0.00340213
1.60592e-07
-0.00377742
1.53668e-07
-0.00416638
1.46946e-07
-0.00456989
1.40296e-07
1.33831e-07
-0.0049891
-0.000159366
0.000159484
-0.000435709
0.000276547
-0.000743687
0.000308199
-0.00105653
0.000313058
-0.00137149
0.000315164
-0.0016904
0.000319113
-0.00201513
0.000324915
-0.00234727
0.000332323
-0.00268827
0.000341184
-0.00303948
0.000351373
-0.00340213
0.000362813
-0.00377742
0.000375439
-0.00416639
0.000389113
-0.00456989
0.000403646
0.000419348
-0.0049891
-0.000158671
0.000318155
-0.000434212
0.000552088
-0.000741524
0.000615511
-0.00105379