/*--------------------------------*- C++ -*----------------------------------*\
  =========                 |
  \\      /  F ield         | OpenFOAM: The Open Source CFD Toolbox
   \\    /   O peration     | Website:  https://openfoam.org
    \\  /    A nd           | Version:  7
     \\/     M anipulation  |
\*---------------------------------------------------------------------------*/
FoamFile
{
    version     2.0;
    format      ascii;
    class       volVectorField;
    location    "65.001";
    object      U;
}
// * * * * * * * * * * * * * * * * * * * * * * * * * * * * * * * * * * * * * //

dimensions      [0 1 -1 0 0 0 0];

internalField   nonuniform List<vector> 
14800
(
(-0.00271081 0.00157877 -1.54159e-20)
(-0.0137819 0.00322738 2.02685e-21)
(-0.0318972 0.00399545 8.75918e-21)
(-0.0508581 0.0042616 -4.64167e-21)
(-0.069737 0.00423103 -1.51394e-20)
(-0.0876008 0.00404183 1.42854e-20)
(-0.104106 0.00377322 5.9218e-22)
(-0.119148 0.00346641 1.67746e-21)
(-0.132708 0.00313934 -7.91729e-21)
(-0.144784 0.00279866 -1.03025e-21)
(-0.155367 0.00245142 5.92542e-21)
(-0.164456 0.00211418 5.05422e-21)
(-0.172111 0.00182588 1.89124e-20)
(-0.178509 0.00166718 -2.10169e-20)
(-0.183962 0.00166286 8.57224e-21)
(-0.00292462 0.00498168 3.2365e-20)
(-0.0141018 0.0102164 -2.00448e-20)
(-0.0320842 0.0126863 -7.12998e-21)
(-0.0508026 0.0135698 1.53136e-21)
(-0.0693596 0.0135215 1.41489e-20)
(-0.0868426 0.0129805 2.80627e-20)
(-0.102915 0.0121958 -2.40805e-20)
(-0.117474 0.0112924 4.2997e-21)
(-0.130499 0.0103197 2.09228e-20)
(-0.141985 0.00928931 2.23112e-20)
(-0.151913 0.00821163 -2.78844e-20)
(-0.160268 0.00712277 3.02483e-20)
(-0.167068 0.00612023 -4.38602e-20)
(-0.172496 0.00546093 4.17609e-20)
(-0.176556 0.00512826 8.44645e-21)
(-0.00334873 0.00827466 5.18538e-20)
(-0.0147382 0.0170104 9.28014e-20)
(-0.032456 0.0211583 5.0351e-21)
(-0.0506896 0.0226578 -2.54985e-20)
(-0.0686014 0.0225996 -1.25514e-20)
(-0.0853198 0.021717 -4.4577e-20)
(-0.100523 0.0204269 3.14212e-20)
(-0.11411 0.0189387 3.91857e-20)
(-0.126057 0.0173336 -4.43775e-20)
(-0.13635 0.0156266 -1.75917e-20)
(-0.144959 0.0138266 5.84356e-20)
(-0.151841 0.011979 -2.02987e-20)
(-0.156919 0.010209 1.89852e-20)
(-0.160466 0.00903729 2.18779e-20)
(-0.16169 0.00815428 3.44038e-20)
(-0.00396862 0.0113888 -4.4026e-20)
(-0.0156742 0.0234844 -1.53518e-19)
(-0.0330057 0.0292683 7.4918e-20)
(-0.0505213 0.0313797 -7.19439e-21)
(-0.0674713 0.0313228 2.81148e-20)
(-0.0830447 0.030114 -8.31263e-20)
(-0.0969408 0.0283352 2.86476e-21)
(-0.109061 0.0262808 1.10037e-21)
(-0.119377 0.0240651 3.08134e-20)
(-0.127861 0.0217051 -3.58292e-20)
(-0.134464 0.0192011 -9.82541e-20)
(-0.139128 0.0165967 -3.49235e-20)
(-0.141571 0.0139716 -4.74507e-21)
(-0.142445 0.0122983 9.52839e-21)
(-0.139271 0.0104646 -3.8881e-20)
(-0.0047638 0.0142632 -9.76478e-20)
(-0.0168857 0.029524 7.23663e-20)
(-0.0337226 0.0368814 4.3895e-21)
(-0.0502999 0.039594 7.8459e-21)
(-0.0659809 0.0395497 -6.11668e-20)
(-0.0800335 0.0380329 4.59405e-20)
(-0.0921838 0.035786 -1.67502e-20)
(-0.102335 0.0331887 2.63536e-20)
(-0.110448 0.0303913 -1.51077e-20)
(-0.116477 0.0274128 9.15336e-20)
(-0.120346 0.0242381 7.08194e-20)
(-0.122029 0.0209072 4.6985e-20)
(-0.120808 0.0173059 -7.32361e-20)
(-0.118387 0.0152063 1.9764e-20)
(-0.109071 0.0118386 -2.00419e-20)
(-0.00570932 0.0168478 1.68274e-22)
(-0.0183426 0.035029 1.25785e-19)
(-0.0345922 0.043873 -9.38881e-20)
(-0.0500261 0.0471653 7.80828e-20)
(-0.0641418 0.0471412 6.80368e-20)
(-0.0763019 0.0453344 -3.85859e-20)
(-0.0862642 0.0426408 2.67091e-20)
(-0.0939299 0.0395261 -1.07377e-19)
(-0.0992439 0.0361802 3.11588e-20)
(-0.102133 0.0326269 -6.98878e-20)
(-0.102464 0.0288306 3.62433e-20)
(-0.100378 0.0248567 -8.41944e-20)
(-0.0942295 0.0201453 -1.9897e-20)
(-0.0880524 0.0177716 -4.05654e-20)
(-0.0706481 0.0122891 4.81799e-20)
(-0.0067776 0.0191051 -1.10772e-20)
(-0.0200101 0.039916 -1.29176e-19)
(-0.0355962 0.0501322 1.18811e-20)
(-0.0496967 0.0539667 1.64157e-21)
(-0.0619612 0.0539624 1.93085e-20)
(-0.0718598 0.0518793 1.70563e-19)
(-0.0791845 0.0487585 -1.3478e-20)
(-0.0838287 0.0451506 8.78292e-20)
(-0.0857101 0.0412896 1.09091e-20)
(-0.0847172 0.0372107 6.11734e-21)
(-0.080584 0.0328525 -2.697e-20)
(-0.0739114 0.0283841 6.39427e-20)
(-0.061242 0.0225475 1.56019e-19)
(-0.0507804 0.0199143 -1.74036e-19)
(-0.0233242 0.0124105 -6.14118e-20)
(-0.00794046 0.0210117 7.32172e-20)
(-0.0218505 0.0441211 1.27544e-19)
(-0.0367108 0.0555639 -3.43902e-20)
(-0.0493015 0.0598824 -5.94712e-20)
(-0.0594363 0.0598846 -5.90922e-20)
(-0.0667017 0.0575314 7.82165e-21)
(-0.0709243 0.0539977 5.43513e-20)
(-0.0719798 0.0499172 -1.70702e-19)
(-0.0697413 0.0455714 -2.77413e-21)
(-0.0640561 0.0410192 -5.08674e-20)
(-0.0543635 0.0361804 -1.2331e-19)
(-0.0421584 0.0313371 1.25164e-19)
(-0.0211861 0.0248048 -1.70304e-19)
(-0.00527262 0.0213295 8.95672e-20)
(0.0343565 0.012664 6.34606e-20)
(-0.00917109 0.0225583 -3.9981e-20)
(-0.0238241 0.0476008 4.74718e-20)
(-0.0379059 0.0600911 -8.53382e-20)
(-0.048818 0.0648102 7.25966e-20)
(-0.0565451 0.0647886 9.8433e-20)
(-0.0607942 0.0621611 1.16965e-19)
(-0.0614217 0.0582225 -4.7176e-20)
(-0.0582716 0.0536855 -3.6599e-20)
(-0.0511441 0.0488827 1.68253e-19)
(-0.0398542 0.0439117 1.20758e-19)
(-0.0233655 0.0387638 1.12633e-19)
(-0.00428686 0.0334331 -1.65472e-19)
(0.0268756 0.0267904 4.74617e-20)
(0.0492845 0.0225429 4.64852e-20)
(0.105591 0.0131407 -1.27524e-21)
(-0.0104458 0.0237497 -1.75472e-19)
(-0.0258902 0.0503325 -2.28806e-19)
(-0.0391421 0.0636565 8.5669e-20)
(-0.048205 0.0686647 1.15918e-19)
(-0.0532352 0.0685693 -2.39164e-19)
(-0.0540573 0.0656511 -1.05869e-20)
(-0.0505464 0.0613097 -9.39393e-20)
(-0.0424942 0.0563314 2.23307e-19)
(-0.0295868 0.0511048 -9.88755e-20)
(-0.0115809 0.0457573 -1.19688e-20)
(0.0130611 0.0404346 7.60249e-20)
(0.0404347 0.0346266 1.89118e-19)
(0.0849205 0.0282875 8.27834e-20)
(0.113595 0.0239454 -6.64993e-20)
(0.193087 0.0145259 -1.29169e-20)
(-0.0117455 0.0246028 1.21855e-19)
(-0.0280072 0.0523133 1.63907e-19)
(-0.0403672 0.0662239 -1.12577e-19)
(-0.0473939 0.0713802 -3.83744e-19)
(-0.0494087 0.0711406 -4.22089e-20)
(-0.0463413 0.0679045 1.72332e-21)
(-0.0380648 0.0631605 1.26625e-19)
(-0.0242881 0.0577623 -2.81202e-19)
(-0.00454407 0.0521549 -1.26661e-20)
(0.021489 0.046485 -1.47314e-19)
(0.0560861 0.0411346 -1.9383e-19)
(0.0931237 0.0349715 -1.24763e-19)
(0.154723 0.0296877 1.16942e-20)
(0.189131 0.0248487 -4.12458e-20)
(0.29877 0.0178548 -1.25842e-19)
(-0.0130561 0.0251446 6.73822e-20)
(-0.0301313 0.0535582 1.1851e-19)
(-0.0415108 0.0677781 -5.45723e-20)
(-0.0462781 0.0729143 -4.95227e-20)
(-0.0449038 0.0724417 3.12843e-19)
(-0.037398 0.0688543 -3.22692e-19)
(-0.0235986 0.0637144 1.67332e-20)
(-0.00309105 0.0579387 7.39147e-20)
(0.0248016 0.0520341 5.45806e-20)
(0.0604501 0.0461597 3.76867e-20)
(0.107129 0.0411341 6.56081e-20)
(0.155595 0.0344207 -4.91843e-20)
(0.237823 0.0317513 1.49388e-19)
(0.277835 0.0251348 1.20313e-19)
(0.422844 0.0234942 7.88387e-20)
(-0.0143686 0.0254094 2.90527e-20)
(-0.0322145 0.0540972 -2.40211e-19)
(-0.0424783 0.0683253 3.50115e-19)
(-0.0447004 0.0732511 4.33781e-19)
(-0.0394733 0.072445 -1.45798e-19)
(-0.0268485 0.068475 5.17447e-20)
(-0.00657859 0.0629677 -1.35017e-19)
(0.0219245 0.0569033 -2.30126e-20)
(0.0596009 0.0508671 -2.54349e-19)
(0.106835 0.0449835 5.44498e-20)
(0.167891 0.0408692 2.1184e-19)
(0.230199 0.033446 -2.80501e-20)
(0.33492 0.0350939 6.96271e-20)
(0.381985 0.0258732 -2.8818e-20)
(0.562303 0.0314358 7.86516e-21)
(-0.0156779 0.025435 -1.42793e-19)
(-0.0342007 0.053971 -1.61242e-19)
(-0.0431432 0.0678919 -3.84134e-19)
(-0.042439 0.0724046 -2.74834e-19)
(-0.0327628 0.0711629 -2.16767e-19)
(-0.0141495 0.0667966 2.45504e-19)
(0.0137975 0.0609945 4.85415e-20)
(0.051893 0.0548077 1.06033e-19)
(0.101355 0.0489295 5.63591e-20)
(0.162542 0.0433873 -1.58637e-19)
(0.240141 0.0408745 -8.24438e-20)
(0.319345 0.0332716 2.30301e-20)
(0.445135 0.0399172 -2.95086e-19)
(0.502917 0.0290661 6.68681e-20)
(0.709962 0.0417949 -1.70223e-19)
(-0.0169806 0.0252587 7.32681e-20)
(-0.03602 0.0532258 5.62271e-19)
(-0.0433393 0.0665252 2.84724e-19)
(-0.0391938 0.0704216 1.32837e-19)
(-0.0242888 0.0686567 3.3773e-19)
(0.00143317 0.06392 -2.94828e-19)
(0.0385906 0.0579689 -1.22312e-19)
(0.0882576 0.0519431 -1.17872e-19)
(0.151846 0.0466772 5.64137e-19)
(0.229586 0.0420909 1.82316e-19)
(0.325321 0.0417319 -1.40946e-19)
(0.424266 0.0356312 7.60259e-20)
(0.565781 0.0462491 -1.00711e-19)
(0.638604 0.036472 1.05906e-19)
(0.855148 0.0546281 4.91884e-20)
(-0.0182732 0.0249138 -6.96891e-21)
(-0.0375813 0.0519081 -3.00377e-19)
(-0.0428518 0.0642928 -2.73379e-19)
(-0.0345745 0.067383 -9.48908e-20)
(-0.0134228 0.0650446 -1.66513e-19)
(0.02084 0.060031 1.71511e-19)
(0.0691135 0.0541874 8.324e-20)
(0.132698 0.0487675 -1.25628e-19)
(0.212933 0.0447563 2.16172e-21)
(0.309594 0.0420714 -9.60219e-20)
(0.424003 0.0441634 2.17513e-20)
(0.543367 0.0419209 2.96739e-20)
(0.692521 0.0544137 2.55923e-20)
(0.781668 0.0485274 6.56113e-20)
(0.986313 0.0691896 -1.7765e-19)
(-0.0195497 0.0244273 -1.47364e-19)
(-0.038775 0.0500739 1.21136e-19)
(-0.0414012 0.0612685 1.14172e-19)
(-0.0280909 0.0634036 1.42786e-20)
(0.000615157 0.0605076 1.15529e-19)
(0.0452072 0.0554136 -1.55229e-19)
(0.106872 0.050086 1.60986e-19)
(0.186953 0.0459181 2.55481e-20)
(0.286177 0.0439892 -1.81756e-19)
(0.403092 0.0443698 5.19236e-21)
(0.535104 0.0491423 -1.81177e-19)
(0.671381 0.0524393 1.64389e-19)
(0.819405 0.064851 2.21973e-20)
(0.920133 0.0641922 3.76338e-20)
(1.09428 0.0837617 1.78748e-19)
(-0.0207932 0.0238188 4.13778e-19)
(-0.0394646 0.0477692 -1.63407e-19)
(-0.03865 0.0575354 -8.66309e-20)
(-0.0191467 0.0586384 -1.06812e-19)
(0.0187475 0.0552959 -2.88925e-19)
(0.0758222 0.0504587 -9.53049e-20)
(0.153433 0.0462459 1.87984e-19)
(0.252521 0.0441924 -1.25649e-19)
(0.3723 0.0453175 -4.84407e-19)
(0.508814 0.0498119 1.77262e-19)
(0.655001 0.0575955 4.01719e-20)
(0.800179 0.0664089 -1.0895e-19)
(0.939076 0.0774257 6.29654e-20)
(1.04141 0.0815436 -6.02075e-20)
(1.17452 0.0964424 7.38357e-20)
(-0.0219716 0.0230898 -6.63723e-20)
(-0.0394725 0.045026 2.14234e-19)
(-0.034202 0.0531997 2.40224e-19)
(-0.00705225 0.0532805 1.84894e-19)
(0.0420084 0.0497302 2.84947e-19)
(0.114034 0.0456655 2.5222e-19)
(0.210208 0.0433794 -2.84974e-19)
(0.330234 0.0444793 3.95119e-19)
(0.470541 0.0496502 3.10043e-19)
(0.623287 0.0588067 -2.87616e-19)
(0.777339 0.0697601 2.19123e-19)
(0.920862 0.082429 -5.76589e-20)
(1.04411 0.0912389 -1.05554e-19)
(1.13696 0.0986362 -1.45627e-19)
(1.22754 0.105819 -7.49539e-20)
(-0.0230285 0.0222275 -1.854e-19)
(-0.0385853 0.0418789 3.69498e-19)
(-0.0275983 0.0483763 -1.98822e-20)
(0.00895987 0.0475593 3.84124e-20)
(0.0714889 0.0442019 -5.18309e-20)
(0.16111 0.0416331 -3.88811e-21)
(0.27815 0.0422884 2.42927e-19)
(0.419771 0.0476302 -1.84686e-19)
(0.578182 0.0576012 1.86692e-19)
(0.740945 0.0712334 2.32101e-19)
(0.894216 0.0848526 -1.49422e-19)
(1.02605 0.0988856 1.18367e-19)
(1.12927 0.105189 -4.53005e-20)
(1.20441 0.113876 1.10132e-19)
(1.25755 0.111033 5.18829e-20)
(-0.0238935 0.0212234 -2.61499e-19)
(-0.0365414 0.0383541 2.90001e-20)
(-0.0183257 0.0431874 9.88632e-20)
(0.0297071 0.0417412 -1.59113e-19)
(0.108257 0.0391704 -1.81968e-19)
(0.218047 0.0390405 1.11638e-19)
(0.357387 0.0437809 -2.0743e-19)
(0.519248 0.0542751 1.63447e-19)
(0.690549 0.0692288 -6.69806e-20)
(0.854986 0.0863807 -2.54461e-19)
(0.998383 0.101365 -1.45951e-19)
(1.11148 0.114415 2.13841e-19)
(1.19293 0.11845 -9.03406e-20)
(1.24669 0.125633 -5.6201e-20)
(1.27126 0.112049 -9.64637e-20)
(-0.0244879 0.020063 5.14943e-19)
(-0.0330388 0.0344678 -6.33063e-19)
(-0.00582556 0.037773 -1.44648e-19)
(0.0560174 0.0361341 -8.5139e-20)
(0.153249 0.035159 5.29146e-20)
(0.285324 0.0386045 -2.1036e-19)
(0.446874 0.0485382 1.22133e-19)
(0.625084 0.0646234 6.05528e-20)
(0.801702 0.0839451 -4.02382e-19)
(0.958908 0.103058 3.28555e-19)
(1.08516 0.117707 8.57901e-20)
(1.17636 0.128289 -2.30525e-19)
(1.2365 0.13018 1.34487e-19)
(1.26968 0.132743 8.66135e-20)
(1.28752 0.12138 1.88003e-20)
(-0.0247071 0.0187198 -3.47243e-19)
(-0.0277484 0.0302472 5.76708e-19)
(0.0104855 0.0322967 5.60973e-20)
(0.0886775 0.0310912 -2.06635e-19)
(0.207137 0.032745 2.54813e-19)
(0.362649 0.0410058 -1.54075e-19)
(0.544191 0.0569459 1.64563e-20)
(0.732394 0.078339 -1.96987e-19)
(0.905688 0.100669 3.53692e-19)
(1.04806 0.119939 -1.57568e-19)
(1.1531 0.132765 4.29552e-20)
(1.22247 0.140293 -6.69687e-20)
(1.26342 0.139428 -6.51745e-21)
(1.28348 0.139628 9.74858e-21)
(1.29229 0.127352 2.11344e-20)
(-0.0244244 0.0171688 7.47226e-20)
(-0.0203141 0.0257361 -3.419e-19)
(0.0311935 0.0269539 -2.99099e-19)
(0.12837 0.0270176 7.9267e-20)
(0.270162 0.0325349 -2.06801e-19)
(0.448728 0.0467738 -1.90609e-19)
(0.645653 0.0689513 6.02631e-20)
(0.835875 0.0945932 2.81482e-19)
(0.997833 0.118156 9.31262e-20)
(1.1204 0.135958 -1.81819e-19)
(1.20332 0.146049 -4.96197e-20)
(1.253 0.150275 2.60352e-20)
(1.27908 0.147201 1.43922e-19)
(1.28905 0.14507 -3.18518e-20)
(1.29184 0.13255 -3.85046e-20)
(-0.0234972 0.0153943 -4.10104e-20)
(-0.0103587 0.0210024 4.49599e-19)
(0.0568624 0.0219815 2.10696e-19)
(0.17559 0.0243743 7.45024e-20)
(0.341962 0.0351122 1.46621e-19)
(0.541195 0.0561525 2.83214e-19)
(0.746839 0.0840355 1.32264e-19)
(0.930893 0.1123 -2.9186e-19)
(1.0755 0.135328 -1.83547e-19)
(1.17619 0.150512 3.14071e-19)
(1.23841 0.157456 -3.09433e-20)
(1.27182 0.158638 -2.08592e-20)
(1.28662 0.153675 -1.83411e-19)
(1.28993 0.149858 -2.34999e-20)
(1.2896 0.137234 1.70058e-19)
(-0.0217692 0.0133946 -7.09727e-20)
(0.0025041 0.0161484 -5.68566e-19)
(0.0880011 0.0176706 -4.27379e-20)
(0.230553 0.0236729 -1.20039e-19)
(0.421424 0.0409466 -3.24555e-19)
(0.636792 0.069004 1.08297e-19)
(0.843395 0.101346 -2.64812e-19)
(1.01427 0.13041 1.19823e-19)
(1.13808 0.151471 -1.03685e-20)
(1.21723 0.163396 -1.78677e-19)
(1.26151 0.167205 1.15706e-19)
(1.28215 0.165722 -5.94196e-20)
(1.28897 0.159335 7.52824e-20)
(1.28805 0.154181 1.26721e-19)
(1.28523 0.141465 -2.45748e-20)
(-0.0190747 0.0111857 -4.96874e-22)
(0.0186563 0.0113203 9.3986e-20)
(0.125021 0.0143761 9.06671e-20)
(0.293076 0.0254452 -8.60499e-21)
(0.506643 0.0502827 4.56178e-20)
(0.731838 0.0848243 -3.42718e-19)
(0.931792 0.119928 8.09696e-20)
(1.08452 0.148119 -5.201e-20)
(1.18649 0.166235 4.06432e-20)
(1.24599 0.174693 1.01314e-19)
(1.27555 0.175609 -1.22666e-19)
(1.28666 0.171918 3.08968e-20)
(1.28803 0.16447 2.7136e-20)
(1.28437 0.15822 -3.42086e-20)
(1.2804 0.145591 2.30763e-20)
(-0.0152419 0.00880501 1.64873e-19)
(0.0384586 0.00671585 2.90928e-19)
(0.168184 0.0125194 4.45956e-20)
(0.36247 0.0301796 -1.07414e-19)
(0.595053 0.0630616 3.11634e-19)
(0.822833 0.102876 2.08061e-19)
(1.00975 0.138935 -7.51979e-20)
(1.1416 0.164925 2.84481e-21)
(1.22246 0.179557 -7.10466e-20)
(1.26503 0.184632 2.0075e-20)
(1.28305 0.183013 1.63024e-20)
(1.28728 0.177537 -7.03914e-20)
(1.28502 0.169305 -1.45516e-19)
(1.27977 0.162139 9.12325e-20)
(1.27493 0.149637 -1.37479e-19)
(-0.0100989 0.006313 -1.80321e-19)
(0.0622306 0.00258908 -9.44563e-20)
(0.217533 0.0125779 -2.53092e-19)
(0.437492 0.0382301 3.99316e-19)
(0.683755 0.0789287 -3.47955e-19)
(0.906968 0.122374 1.42106e-19)
(1.07626 0.157736 8.81948e-20)
(1.18642 0.180599 9.75687e-20)
(1.24808 0.191547 6.08226e-20)
(1.27667 0.193498 -1.20055e-20)
(1.28593 0.189722 -5.94413e-20)
(1.28537 0.182822 -1.40136e-19)
(1.28076 0.173991 7.33585e-20)
(1.27452 0.16601 6.90811e-20)
(1.26922 0.153682 1.47341e-19)
(-0.00347887 0.00379451 -1.61624e-19)
(0.0902251 -0.000748104 7.863e-20)
(0.272825 0.0150529 8.05596e-20)
(0.516382 0.0497346 -1.75305e-19)
(0.76993 0.0973315 6.77075e-20)
(0.982368 0.142622 -5.99009e-20)
(1.13132 0.175933 -9.21718e-20)
(1.22046 0.195101 -1.04449e-19)
(1.26539 0.202409 3.89239e-20)
(1.28284 0.201574 1.18653e-19)
(1.28564 0.19599 1.71016e-19)
(1.28181 0.187943 6.57386e-20)
(1.27569 0.17862 -4.35748e-20)
(1.26889 0.169889 -4.66648e-20)
(1.26326 0.157749 -3.924e-20)
(0.00477517 0.00135747 1.5602e-19)
(0.1226 -0.00292855 -7.78017e-20)
(0.333471 0.020412 4.47146e-20)
(0.597039 0.064588 2.5385e-19)
(0.851195 0.117652 2.42975e-19)
(1.04809 0.163087 -2.25652e-19)
(1.17562 0.193323 1.10345e-19)
(1.24536 0.208518 1.27893e-19)
(1.27622 0.212378 -2.17619e-19)
(1.28502 0.20911 4.47802e-20)
(1.28318 0.202009 -9.86952e-20)
(1.27715 0.193016 1.57967e-20)
(1.27009 0.183245 -4.93505e-20)
(1.26295 0.173804 8.88095e-20)
(1.2571 0.161842 -9.6116e-20)
(0.0148012 -0.000865544 -1.41721e-19)
(0.159382 -0.00353781 9.59753e-20)
(0.398525 0.0290185 1.29715e-19)
(0.677264 0.0824837 -3.35747e-20)
(0.925798 0.139313 -3.06709e-19)
(1.10393 0.183401 -1.09179e-19)
(1.21026 0.209843 -1.70532e-19)
(1.26273 0.221002 7.27775e-20)
(1.28209 0.221685 -1.01897e-20)
(1.28434 0.216307 -1.15276e-19)
(1.27923 0.207915 -1.05987e-19)
(1.27175 0.198109 1.98185e-20)
(1.26408 0.187893 4.01078e-20)
(1.25676 0.177766 -8.16161e-20)
(1.25074 0.165963 4.13543e-20)
(0.0267102 -0.00271914 6.05274e-20)
(0.200437 -0.0021346 1.45051e-21)
(0.466719 0.0410736 -3.90214e-19)
(0.755006 0.102998 -2.80743e-20)
(0.992647 0.161833 2.19928e-19)
(1.15023 0.203334 2.22498e-19)
(1.23648 0.225522 1.52228e-19)
(1.27403 0.23273 -2.80045e-20)
(1.28422 0.230534 4.6561e-20)
(1.2816 0.223322 -1.48394e-21)
(1.27422 0.213798 8.4124e-20)
(1.26579 0.203257 3.29406e-20)
(1.25774 0.192571 7.12499e-20)
(1.25031 0.181779 -5.31968e-20)
(1.24415 0.170099 -3.97918e-20)
(0.0405809 -0.00402635 -1.07704e-20)
(0.245438 0.00171948 1.10929e-19)
(0.536566 0.0565943 2.05122e-19)
(0.828553 0.125672 6.89965e-20)
(1.05122 0.184834 -1.97715e-19)
(1.18769 0.222767 -2.47296e-19)
(1.25551 0.240448 1.01288e-19)
(1.2805 0.24388 -6.12406e-20)
(1.28351 0.239092 1.73106e-19)
(1.27735 0.230262 4.74078e-21)
(1.26842 0.219712 -4.37104e-20)
(1.25938 0.208474 -1.65144e-20)
(1.25107 0.197276 8.02663e-20)
(1.24361 0.185839 7.07216e-20)
(1.23733 0.174235 7.57754e-20)
(0.0564489 -0.00458978 1.59929e-19)
(0.293855 0.00842013 -1.71459e-19)
(0.606496 0.0754338 1.08039e-19)
(0.896606 0.150068 1.51892e-19)
(1.10146 0.208038 1.31266e-19)
(1.21714 0.241651 5.28518e-20)
(1.26853 0.254731 2.81841e-20)
(1.28316 0.25461 -1.09417e-20)
(1.28066 0.247485 -7.94215e-20)
(1.27196 0.237198 2.98244e-20)
(1.26198 0.225683 7.12528e-20)
(1.25254 0.213755 2.90359e-20)
(1.2441 0.201999 -2.76942e-20)
(1.23664 0.189935 -2.93612e-20)
(1.23025 0.17835 -3.56189e-20)
(0.0742972 -0.0041962 -8.59131e-20)
(0.344968 0.0182792 6.22073e-20)
(0.674987 0.0973259 -6.61881e-21)
(0.958287 0.175798 -1.59885e-19)
(1.14359 0.231242 -4.17802e-20)
(1.23949 0.25999 9.36213e-20)
(1.27655 0.268489 -8.32525e-20)
(1.28279 0.265052 5.60132e-21)
(1.27615 0.255803 -5.13168e-21)
(1.26566 0.244168 -2.74043e-20)
(1.25499 0.231716 -4.52669e-20)
(1.24531 0.219086 -6.39442e-20)
(1.2368 0.206724 -2.43292e-20)
(1.22938 0.194054 4.23563e-20)
(1.2229 0.182424 1.0125e-20)
(0.0940458 -0.00262475 -1.10937e-19)
(0.3979 0.0314929 -1.41206e-20)
(0.740672 0.121934 -7.06187e-20)
(1.01308 0.202522 6.62334e-20)
(1.17806 0.254301 -7.77139e-20)
(1.25562 0.27781 -3.38132e-20)
(1.28043 0.281828 8.72193e-21)
(1.28001 0.275306 -1.32348e-20)
(1.2703 0.264101 2.63164e-20)
(1.25859 0.251184 2.4255e-22)
(1.24749 0.237798 1.801e-20)
(1.23768 0.224443 3.17177e-20)
(1.22916 0.211434 3.69809e-20)
(1.22182 0.198177 -1.65921e-20)
(1.21526 0.186431 -1.22005e-20)
(0.115545 0.000341131 6.6941e-20)
(0.451668 0.0481275 7.06172e-20)
(0.802405 0.148887 2.47093e-20)
(1.06078 0.229946 -3.89129e-20)
(1.20541 0.277111 8.586e-21)
(1.26635 0.295152 5.89893e-20)
(1.28087 0.294839 -4.03867e-20)
(1.27526 0.28544 -3.51415e-20)
(1.26335 0.272404 -1.14018e-20)
(1.25082 0.258239 6.99707e-21)
(1.23947 0.243909 -3.913e-20)
(1.22963 0.229798 8.31493e-21)
(1.22118 0.216108 2.18671e-20)
(1.21394 0.202283 -8.80132e-21)
(1.20734 0.190346 -6.84163e-21)
(0.138573 0.00489896 -4.39692e-20)
(0.505245 0.0681222 -3.00407e-20)
(0.859288 0.177806 -5.85119e-20)
(1.10136 0.257813 -9.44738e-21)
(1.22625 0.299596 -6.12866e-21)
(1.27241 0.312055 -6.42127e-20)
(1.27844 0.307588 2.02597e-20)
(1.26887 0.295493 1.22767e-20)
(1.25542 0.280712 -2.01978e-20)
(1.2424 0.265311 -1.21725e-20)
(1.23095 0.250016 -4.55348e-22)
(1.22116 0.235119 -1.15587e-20)
(1.21283 0.220721 -1.75972e-20)
(1.20573 0.206342 -1.54623e-20)
(1.19915 0.194137 1.09327e-20)
(0.162837 0.0112122 -2.02801e-20)
(0.557611 0.0913042 7.39439e-21)
(0.910664 0.208318 9.95366e-21)
(1.13499 0.285892 1.0249e-20)
(1.24117 0.32169 1.73721e-20)
(1.27441 0.32855 1.21603e-20)
(1.27358 0.320114 -3.39047e-21)
(1.26107 0.305475 1.16972e-20)
(1.2466 0.289006 -6.08147e-22)
(1.23333 0.272365 -7.29581e-23)
(1.22191 0.256081 4.61249e-21)
(1.21225 0.240368 -2.14192e-21)
(1.2041 0.225244 1.45513e-21)
(1.1972 0.210315 5.95971e-21)
(1.19071 0.197772 -4.76641e-21)
(0.187982 0.0193975 -1.29643e-20)
(0.60781 0.117409 -3.32816e-21)
(0.956094 0.240056 1.4774e-20)
(1.16194 0.31397 6.42853e-21)
(1.25073 0.343337 1.76686e-20)
(1.27288 0.34465 1.17554e-20)
(1.26661 0.332434 -3.78859e-22)
(1.25201 0.315373 1.34233e-20)
(1.23693 0.297251 -6.57859e-21)
(1.22362 0.279359 7.23079e-22)
(1.21234 0.262061 4.12066e-21)
(1.20289 0.245508 -1.82918e-21)
(1.19498 0.229639 1.73663e-21)
(1.18835 0.214152 6.08183e-21)
(1.18205 0.201216 -2.16162e-21)
(0.213605 0.0295163 -1.87713e-20)
(0.654979 0.1461 -5.27732e-20)
(0.99532 0.272669 -5.88844e-20)
(1.18251 0.341851 -2.15916e-21)
(1.25545 0.364477 -8.56036e-21)
(1.26825 0.360355 -5.77243e-20)
(1.2578 0.344538 2.78166e-20)
(1.24179 0.325153 2.67084e-21)
(1.22645 0.3054 -1.68379e-20)
(1.21326 0.286242 -1.45034e-20)
(1.20222 0.267911 1.98924e-21)
(1.19305 0.250497 -7.75071e-21)
(1.18546 0.233864 -8.19635e-21)
(1.17916 0.217797 -1.1257e-20)
(1.17314 0.204444 6.54517e-21)
(0.239271 0.0415713 7.03694e-20)
(0.698376 0.176987 5.11034e-20)
(1.02824 0.305813 2.14177e-20)
(1.19709 0.369349 -2.97658e-20)
(1.25581 0.385047 1.36013e-20)
(1.26088 0.375643 3.06711e-20)
(1.24733 0.356395 -2.31139e-20)
(1.23048 0.334767 -4.35665e-20)
(1.21516 0.313395 -2.75391e-21)
(1.20224 0.29296 2.38122e-20)
(1.19155 0.273583 -2.66095e-20)
(1.18274 0.255295 1.11278e-20)
(1.17553 0.237881 5.04538e-21)
(1.16961 0.221211 1.15917e-21)
(1.16387 0.207435 -1.07572e-22)
(0.264521 0.0555084 -8.55652e-20)
(0.737391 0.209642 -5.35407e-20)
(1.05486 0.339155 -8.31174e-20)
(1.20604 0.396286 7.2146e-20)
(1.25222 0.404975 -7.40705e-20)
(1.25106 0.390474 -1.69751e-20)
(1.23533 0.367955 -1.25908e-21)
(1.21813 0.344151 1.31437e-21)
(1.20307 0.321171 3.09328e-20)
(1.19056 0.299456 -3.16672e-20)
(1.18031 0.279027 2.51537e-20)
(1.17194 0.259859 9.11173e-21)
(1.16519 0.241661 2.07663e-20)
(1.15969 0.224391 1.81205e-23)
(1.15412 0.21017 -5.40154e-21)
(0.288901 0.0712202 1.20949e-20)
(0.771553 0.243611 1.5496e-20)
(1.07528 0.372366 -2.81729e-20)
(1.20974 0.422493 -1.08771e-19)
(1.24507 0.42418 -2.63158e-20)
(1.23902 0.404791 6.68495e-20)
(1.22192 0.379152 -5.01434e-20)
(1.20476 0.353233 -2.30147e-20)
(1.19017 0.32866 6.98087e-21)
(1.17822 0.305666 -6.08625e-21)
(1.16851 0.284191 -3.32152e-20)
(1.16066 0.264141 -1.55297e-20)
(1.15445 0.245173 -3.01134e-21)
(1.14941 0.22739 4.24734e-21)
(1.14385 0.212634 2.95813e-21)
(0.311967 0.0885506 1.64231e-19)
(0.800535 0.278435 -2.03883e-19)
(1.08967 0.405126 1.36389e-19)
(1.20857 0.447801 6.86036e-20)
(1.23466 0.442572 1.88207e-19)
(1.22496 0.41852 3.99478e-21)
(1.20716 0.389906 4.36876e-20)
(1.19041 0.361931 1.16077e-20)
(1.17648 0.335786 -6.60949e-20)
(1.16521 0.311528 2.30331e-20)
(1.15615 0.289019 1.73212e-20)
(1.14891 0.268091 1.95141e-20)
(1.14334 0.248372 -1.61598e-20)
(1.13877 0.230233 -2.18593e-21)
(1.1334 0.214845 6.80405e-22)
(0.333304 0.107298 -2.18925e-20)
(0.824128 0.313657 2.37486e-19)
(1.09823 0.437126 1.76076e-19)
(1.20288 0.472043 2.83631e-20)
(1.2213 0.460052 -1.74719e-19)
(1.20902 0.431577 -1.00717e-19)
(1.19113 0.40013 2.94643e-20)
(1.17508 0.370159 -1.57841e-20)
(1.16201 0.342472 3.6132e-20)
(1.15156 0.316973 7.52846e-21)
(1.14326 0.293458 7.39104e-21)
(1.13673 0.271667 -9.7132e-21)
(1.13184 0.251231 3.19182e-21)
(1.12773 0.232761 7.46658e-21)
(1.12288 0.216781 4.63977e-22)
(0.352541 0.127223 1.83853e-19)
(0.842232 0.348828 -1.95833e-19)
(1.10121 0.468065 -2.93908e-19)
(1.19301 0.495049 2.05332e-20)
(1.20524 0.476512 1.37958e-19)
(1.19134 0.443864 1.24227e-19)
(1.17386 0.409726 5.63134e-20)
(1.15881 0.377826 5.8268e-21)
(1.14678 0.348639 5.56136e-21)
(1.13729 0.321935 -2.50194e-22)
(1.12985 0.297441 1.31733e-20)
(1.12412 0.274824 4.39983e-22)
(1.11996 0.253736 -3.63351e-21)
(1.11635 0.234942 -2.89752e-21)
(1.11217 0.218363 -2.55801e-21)
(0.369352 0.148054 -2.37338e-19)
(0.854833 0.383514 1.80226e-19)
(1.09889 0.497654 1.53351e-19)
(1.17929 0.516652 -9.91629e-20)
(1.18669 0.491838 -1.92314e-19)
(1.17202 0.455275 -3.72037e-20)
(1.15544 0.418586 -7.90377e-20)
(1.14168 0.384837 3.02528e-20)
(1.13084 0.354205 -5.63957e-21)
(1.12242 0.326351 -1.17638e-20)
(1.11593 0.300922 -4.66703e-21)
(1.11109 0.277518 -3.8633e-21)
(1.1077 0.255831 -5.41309e-21)
(1.1047 0.236723 3.22642e-21)
(1.10128 0.219567 -4.25502e-21)
(0.383473 0.169494 3.36901e-19)
(0.862 0.417296 -2.13752e-19)
(1.09159 0.525615 1.09762e-19)
(1.16201 0.536688 9.82992e-20)
(1.16583 0.505907 1.62523e-19)
(1.15118 0.465688 -8.88953e-20)
(1.136 0.426607 2.87724e-20)
(1.12369 0.391098 2.48524e-20)
(1.11419 0.359106 -1.47079e-20)
(1.10696 0.330153 1.90245e-21)
(1.10153 0.30384 3.81841e-21)
(1.09766 0.279704 -3.06396e-21)
(1.09511 0.257479 5.62037e-21)
(1.09278 0.238074 -1.09444e-20)
(1.0902 0.220367 2.79898e-20)
(0.394696 0.191229 -1.86774e-19)
(0.863867 0.449776 1.2045e-20)
(1.07961 0.551691 7.13308e-20)
(1.14148 0.555002 -1.45515e-19)
(1.14286 0.518586 5.25251e-20)
(1.12905 0.474991 1.4229e-20)
(1.11553 0.433672 -3.45274e-20)
(1.10486 0.396536 -1.24491e-20)
(1.09686 0.363251 7.83821e-21)
(1.09097 0.333276 5.88514e-22)
(1.0867 0.306143 -1.05569e-20)
(1.08387 0.281341 -2.42375e-20)
(1.08221 0.258637 -7.24025e-21)
(1.08062 0.238956 3.25687e-20)
(1.07896 0.220753 9.45081e-21)
(0.402875 0.212934 3.48711e-20)
(0.860623 0.480576 -1.87679e-19)
(1.06331 0.575638 -2.33707e-19)
(1.118 0.571449 1.66735e-19)
(1.11806 0.529747 -8.19517e-20)
(1.10565 0.483053 4.37497e-20)
(1.09404 0.439696 1.63324e-20)
(1.08526 0.40104 1.92194e-21)
(1.07892 0.366568 2.57787e-21)
(1.07447 0.335657 -6.99534e-21)
(1.07147 0.307779 1.07653e-20)
(1.06975 0.282384 1.96529e-20)
(1.06903 0.259267 -1.01224e-20)
(1.06824 0.23934 -8.51918e-21)
(1.06758 0.220712 -4.96942e-20)
(0.407929 0.234282 1.38925e-19)
(0.852522 0.50934 3.48531e-19)
(1.04303 0.597225 -5.61273e-20)
(1.09184 0.585849 -1.03844e-19)
(1.09161 0.539294 1.40206e-19)
(1.08104 0.489753 3.49487e-20)
(1.07168 0.444562 -5.4547e-21)
(1.06495 0.404527 -7.32018e-21)
(1.06042 0.368981 -1.02466e-21)
(1.05753 0.337233 2.55514e-20)
(1.05589 0.308697 -1.64999e-20)
(1.05536 0.282794 -5.63194e-21)
(1.05563 0.259332 3.9192e-20)
(1.05569 0.239191 1.38837e-20)
(1.05611 0.220227 4.43732e-20)
(0.409843 0.25495 -6.20302e-20)
(0.839896 0.535764 1.27502e-19)
(1.01907 0.616212 1.06351e-19)
(1.06327 0.598048 -5.00651e-20)
(1.06362 0.547078 -2.95431e-20)
(1.05537 0.495005 -1.57272e-20)
(1.04851 0.448177 -1.7139e-20)
(1.04402 0.406916 5.40693e-21)
(1.04141 0.370424 1.304e-20)
(1.04019 0.337947 -3.49294e-20)
(1.04002 0.308849 4.11193e-20)
(1.04073 0.28253 -2.31007e-20)
(1.04203 0.258798 -5.7605e-20)
(1.04299 0.238472 7.58646e-20)
(1.04457 0.219277 -5.4748e-20)
(0.408689 0.274614 -1.19511e-19)
(0.823148 0.559639 -4.26145e-19)
(0.991585 0.632323 1.33051e-20)
(1.03259 0.60789 -5.10286e-20)
(1.03431 0.552982 -5.96896e-20)
(1.02878 0.498699 1.61953e-20)
(1.02464 0.450446 2.46976e-20)
(1.02253 0.408129 -2.38835e-20)
(1.02198 0.370833 -2.68204e-20)
(1.02253 0.337746 4.8838e-20)
(1.0239 0.308193 -2.31018e-20)
(1.02593 0.281558 -1.27578e-20)
(1.02828 0.257629 -5.05479e-21)
(1.03018 0.237142 -2.1298e-20)
(1.03296 0.217841 1.89375e-20)
(0.404607 0.292922 1.11541e-20)
(0.802586 0.580798 2.20052e-19)
(0.960921 0.645419 8.16762e-20)
(1.0001 0.615155 3.32463e-20)
(1.00385 0.556902 9.27593e-21)
(1.00139 0.500741 -2.73486e-20)
(1.00017 0.451289 -2.80213e-20)
(1.00058 0.408097 5.86101e-20)
(1.0022 0.370148 1.06612e-19)
(1.00461 0.336581 -1.10194e-19)
(1.0076 0.306687 -1.46342e-20)
(1.01099 0.279847 1.18402e-20)
(1.01443 0.2558 9.18375e-20)
(1.0173 0.235164 2.89503e-20)
(1.02136 0.21591 -8.34189e-20)
(0.397743 0.309518 6.56362e-20)
(0.77821 0.598779 -2.07104e-19)
(0.927819 0.655646 -2.33741e-20)
(0.966139 0.619722 -2.21792e-20)
(0.972452 0.558719 2.18006e-20)
(0.973348 0.501045 -1.53861e-20)
(0.975212 0.450632 1.0576e-20)
(0.978267 0.406757 -7.94878e-20)
(0.982138 0.368316 -5.78929e-20)
(0.986508 0.334406 7.86941e-20)
(0.991185 0.304294 -5.72958e-20)
(0.995985 0.277369 7.8881e-20)
(1.00053 0.253292 -7.4743e-20)
(1.00448 0.23252 2.18444e-20)
(1.00998 0.213466 8.12178e-20)
(0.388159 0.324225 -1.56019e-19)
(0.75025 0.613098 2.21014e-19)
(0.892698 0.662767 -4.79975e-21)
(0.930938 0.621646 1.64522e-20)
(0.940302 0.558359 -4.52391e-20)
(0.944795 0.49953 1.72434e-20)
(0.949881 0.448408 7.337e-20)
(0.95568 0.404055 9.8029e-20)
(0.961894 0.365292 -2.0219e-19)
(0.968289 0.331181 5.90911e-20)
(0.974715 0.300977 1.63886e-20)
(0.980949 0.274085 -1.0854e-19)
(0.98667 0.250072 8.63263e-20)
(0.991958 0.229204 -2.96367e-20)
(0.999201 0.210526 3.7796e-20)
(0.376006 0.336841 1.78429e-19)
(0.719455 0.623769 -1.22695e-19)
(0.855802 0.666538 1.17333e-20)
(0.894759 0.620854 -6.00212e-22)
(0.907594 0.555754 -3.77812e-21)
(0.915879 0.496131 7.26876e-20)
(0.924301 0.444564 -9.90395e-20)
(0.932926 0.399945 8.48968e-20)
(0.941554 0.361038 1.22823e-19)
(0.95003 0.326873 -1.72378e-19)
(0.958236 0.296702 5.34891e-20)
(0.965926 0.269939 -2.77921e-20)
(0.97297 0.246044 -6.7403e-21)
(0.980018 0.225124 -9.09274e-20)
(0.989103 0.207293 -4.78824e-20)
(0.36148 0.347093 -4.67516e-20)
(0.686293 0.630639 4.43478e-20)
(0.817462 0.666844 3.14359e-20)
(0.857859 0.617281 1.34123e-20)
(0.874523 0.550853 1.12695e-19)
(0.886754 0.490792 -1.06296e-19)
(0.8986 0.439055 1.40554e-19)
(0.910117 0.394391 -1.1193e-19)
(0.921209 0.355524 1.30075e-19)
(0.931804 0.321462 1.47417e-19)