/*--------------------------------*- C++ -*----------------------------------*\
  =========                 |
  \\      /  F ield         | OpenFOAM: The Open Source CFD Toolbox
   \\    /   O peration     | Website:  https://openfoam.org
    \\  /    A nd           | Version:  7
     \\/     M anipulation  |
\*---------------------------------------------------------------------------*/
FoamFile
{
    version     2.0;
    format      ascii;
    class       volVectorField;
    location    "25";
    object      U;
}
// * * * * * * * * * * * * * * * * * * * * * * * * * * * * * * * * * * * * * //

dimensions      [0 1 -1 0 0 0 0];

internalField   nonuniform List<vector> 
3313
(
(-0.058505 0.00422118 -1.67717e-20)
(-0.0658309 0.00409914 -3.33417e-20)
(-0.0729645 0.004007 1.7923e-20)
(-0.079976 0.00396928 -5.14281e-22)
(-0.0869686 0.00400397 -2.17729e-20)
(-0.0941654 0.0041205 2.23358e-20)
(-0.0580621 0.0125248 1.90792e-20)
(-0.0650508 0.0121506 7.36291e-20)
(-0.0718047 0.0118675 -4.04095e-20)
(-0.0783977 0.0117517 -1.86487e-20)
(-0.0849336 0.0118606 1.53169e-20)
(-0.0916675 0.012224 1.2362e-20)
(-0.0571755 0.0204133 -1.53519e-19)
(-0.0634899 0.0197613 1.46181e-20)
(-0.0694823 0.0192653 -1.10583e-19)
(-0.0752331 0.019061 2.0458e-19)
(-0.0808475 0.0192573 -2.94973e-20)
(-0.0866471 0.0199107 2.28844e-21)
(-0.0558349 0.027622 4.05155e-20)
(-0.0611379 0.0266458 4.61465e-20)
(-0.0659817 0.0258944 -7.75e-20)
(-0.0704556 0.0255779 1.00869e-19)
(-0.0746639 0.0258786 -2.15622e-20)
(-0.079034 0.0268982 8.49685e-20)
(-0.0540032 0.0339076 -5.76061e-20)
(-0.0579542 0.0325366 5.73285e-20)
(-0.0612523 0.0314593 -5.91388e-20)
(-0.0639951 0.0309812 -2.34608e-19)
(-0.0662791 0.0313952 1.17732e-21)
(-0.0686696 0.0328875 1.67537e-19)
(-0.0515848 0.0390657 1.96597e-20)
(-0.0538325 0.037204 -2.48285e-19)
(-0.0551678 0.035695 2.15523e-19)
(-0.0556964 0.0349646 -2.05148e-19)
(-0.0554919 0.0354666 2.66495e-19)
(-0.0552402 0.0375436 -1.43721e-19)
(-0.0485414 0.0404893 3.60784e-19)
(-0.0474577 0.0384094 -2.18045e-19)
(-0.0452433 0.0372836 4.57267e-19)
(-0.0419499 0.0377954 -5.11567e-19)
(-0.0382204 0.0405814 -1.48185e-19)
(-0.0416357 0.0423434 -4.33836e-19)
(-0.0375937 0.0395393 5.50731e-19)
(-0.0319974 0.0378259 -3.96473e-19)
(-0.0249299 0.0382257 3.74866e-19)
(-0.0168645 0.0421284 -3.8749e-19)
(-0.0246634 0.0392013 2.52291e-19)
(-0.0148251 0.0366965 -1.00574e-19)
(-0.00275393 0.0368599 -1.30142e-19)
(0.0106123 0.041939 -7.93947e-21)
(-0.00725799 0.0377667 -2.47869e-19)
(0.00789645 0.0343223 1.91499e-19)
(0.0262698 0.0339502 -2.55766e-20)
(0.0467547 0.0400006 -1.88657e-19)
(0.0385278 0.0316013 -2.65415e-19)
(0.0647717 0.030527 7.21475e-20)
(0.094701 0.0376102 -4.00807e-19)
(0.11614 0.028262 -3.65652e-19)
(0.158291 0.0368385 2.49575e-19)
(0.183803 0.0293257 -3.3507e-19)
(0.240617 0.0409449 7.35004e-19)
(0.341208 0.0539217 -1.29759e-19)
(-0.107755 0.0044162 -1.05017e-20)
(-0.127234 0.00394762 3.8844e-21)
(-0.144642 0.00398372 5.00635e-22)
(-0.162945 0.00393102 4.66281e-21)
(-0.180691 0.0039065 -1.06434e-20)
(-0.198488 0.00385974 8.38926e-21)
(-0.215975 0.00379093 -7.96294e-22)
(-0.233149 0.00369832 4.67972e-21)
(-0.249862 0.00358167 -3.41536e-21)
(-0.266022 0.00344017 -2.12499e-21)
(-0.281506 0.00327106 2.26893e-21)
(-0.296183 0.00307 6.08845e-22)
(-0.309894 0.00283118 -1.13389e-21)
(-0.322456 0.00254812 -6.3441e-22)
(-0.333645 0.00221418 1.86818e-21)
(-0.343198 0.00182155 1.66363e-21)
(-0.350813 0.00136525 3.38444e-22)
(-0.356155 0.000847636 -3.75134e-21)
(-0.358842 0.000276872 5.91818e-21)
(-0.358706 -0.000355692 -2.38482e-21)
(-0.355566 -0.00103447 -5.66657e-22)
(-0.349186 -0.0017421 -1.70744e-21)
(-0.339474 -0.00245484 2.96891e-21)
(-0.326419 -0.00315458 -6.05373e-21)
(-0.31011 -0.00381979 5.16333e-21)
(-0.290734 -0.00443153 2.10953e-22)
(-0.268574 -0.00497269 2.36872e-21)
(-0.243958 -0.00543681 -3.95738e-21)
(-0.217251 -0.00581652 1.27054e-21)
(-0.188855 -0.00610972 -6.47383e-22)
(-0.15916 -0.00632172 1.04375e-21)
(-0.128523 -0.00646021 -9.65103e-22)
(-0.0972835 -0.00653024 3.92132e-22)
(-0.0657395 -0.00654443 6.3292e-22)
(-0.0341351 -0.00651219 -6.61958e-22)
(-0.00267461 -0.00644172 1.92518e-22)
(0.0284703 -0.00634261 1.70416e-22)
(0.0591908 -0.00622296 -1.66209e-22)
(0.0893661 -0.00608831 9.94048e-23)
(0.118998 -0.00594642 -6.84647e-24)
(0.147921 -0.00579894 -1.14743e-23)
(0.176387 -0.00565482 3.10924e-23)
(0.203869 -0.00551219 1.05559e-23)
(0.231451 -0.00537886 -1.02751e-23)
(0.257101 -0.00526078 5.20485e-24)
(0.284878 -0.00514113 -3.97449e-24)
(0.307273 -0.00508505 -1.95333e-23)
(0.338574 -0.00496916 -8.9749e-24)
(0.352998 -0.00503967 2.31544e-23)
(0.39762 -0.00500677 -1.25186e-23)
(-0.104652 0.0131327 1.71443e-20)
(-0.123792 0.0117085 6.64119e-21)
(-0.140581 0.011825 -1.07088e-20)
(-0.158389 0.0116666 2.08532e-21)
(-0.175585 0.0115872 -1.25553e-20)
(-0.192803 0.0114414 2.55848e-22)
(-0.209674 0.0112291 1.97965e-20)
(-0.226196 0.0109458 -1.46881e-20)
(-0.242225 0.0105909 -2.60455e-20)
(-0.257674 0.0101623 1.08556e-20)
(-0.272425 0.00965164 -2.64767e-21)
(-0.286351 0.00904613 4.00182e-21)
(-0.299302 0.00832844 -3.00358e-21)
(-0.311099 0.007479 -7.82799e-21)
(-0.321531 0.0064784 -2.07466e-20)
(-0.330341 0.00530332 1.27002e-20)
(-0.337238 0.0039385 1.72717e-20)
(-0.341895 0.00239097 -6.91086e-21)
(-0.343945 0.000687479 -1.41245e-20)
(-0.343237 -0.0011989 7.12841e-21)
(-0.33958 -0.00322113 -9.58654e-21)
(-0.33275 -0.00532872 5.84046e-21)
(-0.322663 -0.00744956 -7.29201e-21)
(-0.309316 -0.00953031 -2.24237e-21)
(-0.292798 -0.011507 2.89024e-21)
(-0.273295 -0.0133231 1.42228e-21)
(-0.251092 -0.0149275 -6.83277e-21)
(-0.226512 -0.0163016 8.67189e-22)
(-0.199913 -0.0174238 -1.4545e-21)
(-0.171692 -0.0182882 1.35317e-21)
(-0.142229 -0.0189105 4.81093e-21)
(-0.111873 -0.0193151 -5.46969e-21)
(-0.0809551 -0.0195157 -1.37996e-21)
(-0.0497652 -0.0195516 1.48981e-21)
(-0.0185383 -0.0194489 -1.64922e-21)
(0.0125285 -0.0192336 -3.13093e-22)
(0.0432684 -0.0189346 1.44848e-22)
(0.0735803 -0.0185749 4.07249e-23)
(0.103343 -0.0181715 -8.38401e-22)
(0.132571 -0.017747 2.39128e-22)
(0.161087 -0.017307 -2.78968e-22)
(0.189169 -0.0168768 1.0825e-23)
(0.216252 -0.016453 1.42129e-23)
(0.243484 -0.0160554 -1.34705e-23)
(0.268737 -0.0157064 9.15886e-23)
(0.296209 -0.0153498 -4.00638e-24)
(0.318212 -0.0151857 7.59423e-23)
(0.349221 -0.0148439 6.61411e-23)
(0.363341 -0.0150476 4.59483e-24)
(0.407428 -0.0149613 5.65627e-23)
(-0.0984488 0.0215064 -1.61461e-20)
(-0.116948 0.0190705 1.64302e-20)
(-0.132534 0.0192886 5.12585e-20)
(-0.149382 0.0190215 -3.95205e-20)
(-0.165516 0.0188675 -1.79905e-21)
(-0.181608 0.0186034 1.77585e-20)
(-0.197286 0.0182278 -3.71339e-20)
(-0.212544 0.0177358 -9.07057e-21)
(-0.22725 0.0171275 4.33998e-20)
(-0.241323 0.0163998 -1.35628e-20)
(-0.254656 0.0155399 1.25609e-20)
(-0.267133 0.0145269 2.37949e-20)
(-0.278615 0.0133328 -3.23845e-21)
(-0.288939 0.0119246 3.18276e-21)
(-0.29791 0.010271 -2.61411e-20)
(-0.305292 0.00833345 -1.22406e-20)
(-0.310807 0.00608684 3.92208e-20)
(-0.314146 0.00355353 -7.71182e-21)
(-0.314975 0.000813287 -9.39069e-21)
(-0.313173 -0.00235845 1.24941e-20)
(-0.308528 -0.00568383 -3.02726e-20)
(-0.300843 -0.00914164 2.11415e-20)
(-0.290049 -0.0126195 -7.7762e-23)
(-0.276153 -0.0160305 -3.32778e-21)
(-0.25925 -0.0192694 1.57437e-21)
(-0.239522 -0.0222429 -1.58153e-20)
(-0.217251 -0.0248654 9.31296e-21)
(-0.192757 -0.0271077 1.43943e-21)
(-0.166384 -0.0289359 4.73136e-21)
(-0.138511 -0.0303388 7.74696e-22)
(-0.10951 -0.0313429 -2.16851e-21)
(-0.0797065 -0.0319934 -1.42359e-21)
(-0.0494157 -0.0323055 1.48056e-21)
(-0.0189135 -0.0323504 6.45616e-23)
(0.0115823 -0.0321648 2.39722e-21)
(0.0418888 -0.0318 -2.20175e-21)
(0.071848 -0.0312987 3.13696e-21)
(0.101374 -0.0306985 -2.56083e-23)
(0.130345 -0.0300286 -5.19151e-22)
(0.158798 -0.0293243 4.36744e-22)
(0.186532 -0.0285978 -4.22297e-22)
(0.213879 -0.0278855 -1.27426e-23)
(0.240196 -0.0271894 7.08857e-23)
(0.266757 -0.0265307 2.21864e-23)
(0.291252 -0.0259621 4.46955e-23)
(0.318136 -0.0253711 -1.38544e-22)
(0.33939 -0.0251057 -9.65843e-23)
(0.36983 -0.0245497 9.57758e-23)
(0.383375 -0.0248604 -7.33572e-23)
(0.426423 -0.0247455 -4.11177e-23)
(-0.0891199 0.0293403 -5.04293e-20)
(-0.106758 0.0258033 4.9051e-21)
(-0.12062 0.0261531 3.43964e-20)
(-0.136103 0.0257743 -2.52315e-20)
(-0.15073 0.0255142 2.14432e-20)
(-0.165216 0.0251013 2.48503e-20)
(-0.179193 0.0245316 2.28482e-21)
(-0.192652 0.023803 -6.45244e-20)
(-0.205476 0.0229178 -2.27238e-20)
(-0.217595 0.0218731 8.72404e-20)
(-0.228916 0.0206524 -9.2698e-21)
(-0.23934 0.0192281 -2.97211e-20)
(-0.248746 0.017562 1.97892e-20)
(-0.256988 0.0156083 -1.1854e-20)
(-0.263897 0.0133241 -2.33035e-20)
(-0.269264 0.0106563 1.15961e-20)
(-0.27283 0.00756949 5.71956e-21)
(-0.274291 0.00409422 5.7208e-20)
(-0.273448 0.000318115 -8.66167e-20)
(-0.270141 -0.00401914 6.53277e-20)
(-0.264096 -0.00856845 -3.21784e-20)
(-0.255226 -0.0132952 2.72542e-20)
(-0.243463 -0.0180483 -2.23308e-20)
(-0.228826 -0.0227084 -1.754e-20)
(-0.211417 -0.027131 2.78953e-20)
(-0.19141 -0.0311878 8.08598e-21)
(-0.169085 -0.0347574 -9.38051e-21)
(-0.144752 -0.0378021 1.0971e-20)
(-0.118736 -0.0402807 2.06563e-21)
(-0.0913909 -0.0421734 -1.24322e-20)
(-0.0630724 -0.0435159 1.40688e-20)
(-0.0340755 -0.0443786 -7.25713e-21)
(-0.0046904 -0.0447755 5.98036e-21)
(0.0248255 -0.0448059 -9.13202e-21)
(0.0542778 -0.0445258 1.03073e-21)
(0.0835026 -0.0440045 3.09532e-21)
(0.112357 -0.0432977 -3.26947e-21)
(0.140774 -0.0424571 1.23297e-21)
(0.168629 -0.0415251 -9.65593e-22)
(0.195994 -0.040546 -1.54251e-22)
(0.22263 -0.0395426 7.31637e-22)
(0.248947 -0.0385548 -2.43847e-22)
(0.274189 -0.0376007 1.55456e-23)
(0.299812 -0.0366862 -1.30883e-23)
(0.323243 -0.035915 -1.13186e-22)
(0.349298 -0.0350942 1.36995e-22)
(0.369512 -0.0347368 9.65506e-23)
(0.399128 -0.0339852 -1.54886e-22)
(0.411891 -0.0343644 -1.76305e-23)
(0.45346 -0.0342538 -1.18738e-23)
(-0.0765535 0.0364817 -9.19414e-20)
(-0.0932371 0.031726 4.60165e-20)
(-0.104951 0.0322397 -6.0123e-20)
(-0.118743 0.0317479 -1.48546e-20)
(-0.131507 0.0313405 4.84209e-21)
(-0.143998 0.0307386 8.03069e-20)
(-0.15586 0.0299355 4.50626e-20)
(-0.167085 0.0289355 -4.85321e-21)
(-0.177576 0.0277445 2.1375e-20)
(-0.187277 0.0263612 -1.52655e-19)
(-0.196115 0.0247664 6.24699e-20)
(-0.20401 0.0229267 2.94811e-20)
(-0.210861 0.020796 -3.72724e-20)
(-0.216547 0.0183159 6.81896e-20)
(-0.220928 0.0154318 1.6597e-20)
(-0.223827 0.0120776 -3.68985e-20)
(-0.225016 0.00820668 -6.75201e-20)
(-0.224213 0.00384873 4.15305e-20)
(-0.221308 -0.000963444 3.25962e-20)
(-0.216144 -0.00629917 -3.00592e-20)
(-0.208443 -0.0119693 3.56783e-20)
(-0.198161 -0.0178591 -2.58507e-20)
(-0.185256 -0.0237796 2.44961e-20)
(-0.169764 -0.0295809 -1.27241e-20)
(-0.151796 -0.0350829 -1.92294e-20)
(-0.131516 -0.0401295 -5.33728e-22)
(-0.10919 -0.044556 -4.98014e-21)
(-0.0851242 -0.0483188 2.91688e-20)
(-0.0596171 -0.0513753 -2.0973e-20)
(-0.032982 -0.0536982 1.43943e-20)
(-0.00555934 -0.0553337 -2.9922e-21)
(0.0223938 -0.0563437 -1.40834e-21)
(0.0506269 -0.0568044 -1.34828e-21)
(0.0788961 -0.0567987 -7.05765e-22)
(0.107039 -0.0564131 8.2132e-22)
(0.134918 -0.0557265 3.49483e-21)
(0.162403 -0.0548123 -2.32157e-21)
(0.189453 -0.0537334 -1.39455e-21)
(0.215938 -0.0525466 -6.44242e-23)
(0.241969 -0.0513002 4.91755e-22)
(0.267263 -0.0500336 2.39237e-22)
(0.292323 -0.0487793 -1.77292e-22)
(0.316254 -0.0475857 -2.65953e-24)
(0.340733 -0.0464228 6.11123e-23)
(0.362871 -0.0454698 -2.06867e-23)
(0.387904 -0.0444271 -3.71515e-23)
(0.406867 -0.0439863 -4.4648e-23)
(0.435441 -0.043064 2.92175e-23)
(0.447288 -0.0434671 4.22974e-23)
(0.487015 -0.0433927 3.83627e-26)
(-0.0604657 0.042819 2.17773e-20)
(-0.0762849 0.0367322 5.42971e-20)
(-0.0855445 0.0374247 -5.37901e-20)
(-0.0974145 0.0368199 -2.83976e-20)
(-0.10807 0.0362165 6.6197e-20)
(-0.118277 0.0353773 -2.23668e-20)
(-0.127718 0.0342961 4.14919e-21)
(-0.136388 0.0329857 -8.62402e-20)
(-0.144217 0.0314581 3.64596e-20)
(-0.151167 0.0297136 5.05938e-20)
(-0.157188 0.0277317 3.55721e-20)
(-0.16222 0.0254745 -1.64334e-20)
(-0.166188 0.0228892 3.13326e-20)
(-0.168995 0.0199068 5.86091e-20)
(-0.170532 0.0164612 -1.84298e-19)
(-0.170662 0.0124746 9.5173e-20)
(-0.169185 0.00789224 -3.1367e-20)
(-0.165857 0.00277247 4.11347e-20)
(-0.160657 -0.00297265 1.27464e-20)
(-0.153421 -0.00924812 -5.42069e-21)
(-0.143902 -0.015925 -1.15962e-20)
(-0.132084 -0.0228569 -3.73291e-20)
(-0.117955 -0.0298156 3.94022e-20)
(-0.101575 -0.0366298 -4.72684e-22)
(-0.0830621 -0.0430882 3.54302e-20)
(-0.0625748 -0.0490114 -4.7734e-20)
(-0.0403484 -0.0541919 1.7977e-20)
(-0.0166864 -0.0585818 -8.77409e-21)
(0.00813963 -0.0621192 9.19789e-21)
(0.0338705 -0.0647966 -1.01683e-21)
(0.0602003 -0.0666747 1.20158e-20)
(0.0868909 -0.0677911 -2.4611e-20)
(0.11374 -0.0682845 1.53601e-20)
(0.140544 -0.0682248 3.56437e-21)
(0.167161 -0.06772 1.64446e-22)
(0.193483 -0.0668624 -3.11797e-22)
(0.219395 -0.0657428 1.26934e-21)
(0.244883 -0.064431 -1.29448e-21)
(0.269808 -0.0630007 1.50343e-21)
(0.294331 -0.0614978 -1.61611e-21)
(0.318108 -0.0599857 2.14623e-21)
(0.341755 -0.0584765 -3.47389e-22)
(0.364212 -0.0570654 -1.52964e-22)
(0.387403 -0.0556641 -2.82863e-23)
(0.408097 -0.0545516 -5.6388e-23)
(0.431964 -0.0532983 -8.78891e-23)
(0.449552 -0.0527809 1.58718e-23)
(0.476901 -0.0517165 9.74492e-23)
(0.487771 -0.0520997 -1.57582e-25)
(0.525386 -0.0520844 -1.3314e-22)
(-0.0403 0.0481589 8.00951e-20)
(-0.0555834 0.0408747 -2.6408e-20)
(-0.0622331 0.0416453 2.73565e-20)
(-0.072048 0.0409275 3.36307e-20)
(-0.0804616 0.0400738 4.87571e-20)
(-0.0882048 0.0389419 -3.48139e-21)
(-0.0950291 0.0375346 -1.82651e-19)
(-0.10094 0.0358743 1.37976e-21)
(-0.105901 0.0339798 1.7699e-19)
(-0.109901 0.0318539 -1.82944e-20)
(-0.112912 0.029475 1.92063e-20)
(-0.114897 0.0268012 -4.70354e-20)
(-0.115806 0.0237749 -1.50501e-19)
(-0.115566 0.0203181 1.67796e-19)
(-0.114102 0.0163551 -5.68617e-21)
(-0.111313 0.0117948 -1.91401e-19)
(-0.10702 0.00658492 7.29376e-20)
(-0.101065 0.000864399 -6.19533e-20)
(-0.0934758 -0.00577022 1.19373e-19)
(-0.0840686 -0.0128741 2.52402e-20)
(-0.0726832 -0.0204259 -1.04052e-19)
(-0.0593084 -0.0282659 5.75964e-20)
(-0.0439653 -0.0361212 -3.66883e-20)
(-0.0267405 -0.0438094 2.11479e-20)
(-0.00776545 -0.0510986 -8.27201e-21)
(0.0128051 -0.0577373 -2.73736e-20)
(0.0347846 -0.063553 3.52289e-20)
(0.0578803 -0.0684741 -3.93931e-20)
(0.0818428 -0.0724077 2.75833e-20)
(0.106461 -0.0753686 -1.24673e-20)
(0.131486 -0.0774267 -1.60236e-20)
(0.156714 -0.0786309 8.51585e-21)
(0.181983 -0.079119 5.45022e-21)
(0.207132 -0.0789862 1.82736e-22)
(0.232046 -0.0783545 -2.96486e-21)
(0.256646 -0.077326 -4.80041e-22)
(0.280832 -0.0760084 8.17303e-22)
(0.30462 -0.074474 -3.56294e-22)
(0.327857 -0.0728164 5.40283e-22)
(0.350756 -0.0710716 1.41646e-21)
(0.372906 -0.0693355 -6.92865e-22)
(0.395039 -0.0675862 2.92611e-22)
(0.415928 -0.0659822 -1.92227e-22)
(0.437739 -0.0643553 1.13137e-22)
(0.456911 -0.0631056 -3.40789e-23)
(0.479509 -0.0616565 2.81318e-23)
(0.495675 -0.0610668 1.74298e-22)
(0.521655 -0.0598895 -9.48823e-23)
(0.531545 -0.0602159 6.63201e-23)
(0.566867 -0.0602694 1.13114e-22)
(-0.0151969 0.0520167 1.39004e-19)
(-0.0304371 0.0444537 -7.8128e-20)
(-0.0345682 0.0448739 5.91553e-20)
(-0.0422649 0.0440679 -1.3618e-19)
(-0.0484152 0.0429044 1.26158e-20)
(-0.0536214 0.0414175 1.88253e-20)
(-0.0577392 0.0396346 -2.14089e-20)
(-0.0608002 0.0375864 -1.33923e-20)
(-0.0628107 0.0352995 2.71612e-20)
(-0.0637895 0.0327771 7.84994e-20)
(-0.0637367 0.0299964 -3.18294e-20)
(-0.0626356 0.0269117 2.30308e-20)
(-0.0604621 0.0234624 1.03023e-20)
(-0.0571635 0.0195623 -1.23454e-20)
(-0.0526949 0.0151293 5.06658e-20)
(-0.0469921 0.0100572 -3.97618e-20)
(-0.0398633 0.0043041 2.05391e-21)
(-0.0313441 -0.00205616 3.5916e-20)
(-0.0214198 -0.00934394 -5.53883e-20)
(-0.00985589 -0.0171439 4.06934e-20)
(0.00333587 -0.0254335 -7.7604e-20)
(0.018179 -0.0339979 -2.36888e-20)
(0.0346341 -0.0426094 1.3292e-19)
(0.0525717 -0.0510236 -3.68482e-20)
(0.0718728 -0.0589947 -1.69729e-20)
(0.092362 -0.066214 4.84961e-20)
(0.113886 -0.0725438 2.14219e-21)
(0.136205 -0.0778841 -3.36183e-20)
(0.159099 -0.0821387 -5.41513e-21)
(0.182399 -0.0853206 -4.03797e-20)
(0.205916 -0.087501 2.18963e-20)
(0.229491 -0.0887531 1.35584e-21)
(0.253003 -0.0892141 3.12039e-21)
(0.276338 -0.0889978 -1.73218e-20)
(0.299406 -0.0882394 6.46274e-21)
(0.32216 -0.0870472 -1.16531e-20)
(0.344511 -0.0855455 8.46002e-21)
(0.366505 -0.0838048 -2.73771e-22)
(0.387973 -0.0819415 -2.65796e-22)
(0.40918 -0.079974 -1.84946e-21)
(0.429644 -0.0780391 -4.61629e-22)
(0.450212 -0.0760679 -3.41771e-22)
(0.469491 -0.0742971 2.05769e-22)
(0.489873 -0.0724605 1.83189e-23)
(0.507501 -0.071095 1.51309e-23)
(0.528763 -0.0694682 1.16005e-22)
(0.543517 -0.0688092 -1.69211e-22)
(0.568023 -0.067545 2.25066e-22)
(0.576969 -0.0677885 -7.21322e-23)
(0.6099 -0.0679065 4.13168e-23)
(0.015882 0.0546624 -9.7412e-20)
(0.00043679 0.0474391 2.56109e-19)
(-0.0017143 0.047147 -1.1846e-19)
(-0.00723038 0.0462881 -8.17377e-20)
(-0.0112073 0.0447506 6.58172e-20)
(-0.013909 0.0428426 -3.57212e-20)
(-0.0153351 0.040634 1.47351e-19)
(-0.0155674 0.0381657 -1.81558e-19)
(-0.0146643 0.0354687 2.03263e-20)
(-0.0126814 0.032543 1.48225e-19)
(-0.00964775 0.0293627 -1.10188e-19)
(-0.00556649 0.02588 1.12516e-19)
(-0.000436408 0.0220314 -5.99449e-20)
(0.00577854 0.0177227 -3.97424e-20)
(0.013096 0.0128673 -4.51346e-20)
(0.0215491 0.00736587 1.55456e-19)
(0.0313121 0.00128974 -1.32216e-19)
(0.0422481 -0.00582945 4.32592e-20)
(0.054384 -0.0135841 1.05478e-19)
(0.0678911 -0.0219491 -4.83075e-20)
(0.0827172 -0.0308287 -7.80419e-20)
(0.0988305 -0.0399663 -7.30632e-20)
(0.116175 -0.049178 7.80206e-20)
(0.134609 -0.0581582 4.05404e-20)
(0.154005 -0.066647 -2.81405e-21)
(0.174185 -0.0743403 5.65387e-20)
(0.19502 -0.0810672 -1.11095e-19)
(0.216323 -0.0867157 4.31942e-20)
(0.237921 -0.0912034 1.16984e-21)
(0.259689 -0.0945404 1.59958e-20)
(0.281501 -0.0967996 -6.50311e-21)
(0.303247 -0.0980694 6.42476e-21)
(0.324851 -0.0984917 5.57842e-21)
(0.346239 -0.0981909 -6.21935e-21)
(0.367352 -0.0973146 1.633e-20)
(0.388171 -0.0959737 -5.79757e-21)
(0.408617 -0.094309 1.11991e-20)
(0.428764 -0.0923842 -3.69547e-21)
(0.448422 -0.0903418 -1.54133e-21)
(0.467905 -0.0881753 1.13406e-21)
(0.486665 -0.0860699 1.47382e-21)
(0.50565 -0.0838983 -8.55514e-22)
(0.523319 -0.0819874 3.05431e-22)
(0.54225 -0.0799603 9.54252e-23)
(0.55836 -0.0784988 -1.35635e-25)
(0.578242 -0.0767141 -1.19186e-22)
(0.591638 -0.0759891 -1.1413e-22)
(0.614597 -0.0746584 4.84968e-23)
(0.62266 -0.0748057 -2.29449e-22)
(0.653166 -0.0749715 3.05622e-23)
(0.0551111 0.0568971 -4.42875e-20)
(0.0387131 0.0496054 1.03537e-19)
(0.0379116 0.0486628 -5.80256e-20)
(0.034486 0.0476759 2.50638e-19)
(0.0325019 0.0457013 -2.03051e-19)
(0.0321602 0.0433067 5.3135e-20)
(0.0332972 0.0406254 7.64834e-20)
(0.0357507 0.0377108 -1.34943e-19)
(0.0393974 0.0345946 8.78998e-20)
(0.04414 0.0312695 -2.03026e-21)
(0.0499207 0.0277034 -3.98557e-20)
(0.0567199 0.0238448 8.70255e-20)
(0.0645178 0.0196278 2.31604e-20)
(0.0733405 0.0149486 -2.03168e-19)
(0.0831903 0.0097191 3.82753e-20)
(0.094124 0.00387755 2.5052e-20)
(0.106112 -0.00261688 -1.44597e-20)
(0.11908 -0.0101738 -1.2717e-20)
(0.13315 -0.0183307 5.48457e-20)
(0.148277 -0.0271318 1.76901e-20)
(0.164409 -0.0364545 3.33883e-20)
(0.181473 -0.0460507 -5.18542e-20)
(0.199385 -0.0556983 -8.34218e-20)
(0.217995 -0.0650902 -1.76854e-20)
(0.237167 -0.0739511 1.60949e-19)
(0.256739 -0.0819814 -9.20683e-20)
(0.276602 -0.088988 2.86864e-20)
(0.296623 -0.0948506 2.14885e-20)
(0.316684 -0.0994956 -5.43182e-20)
(0.336709 -0.102933 3.91145e-20)
(0.356633 -0.105238 -2.79447e-20)
(0.376397 -0.106508 5.76201e-21)
(0.395968 -0.106889 -1.2305e-21)
(0.415313 -0.106512 3.7878e-21)
(0.434399 -0.105536 5.85383e-21)
(0.453231 -0.104069 -1.56108e-20)
(0.471738 -0.102268 8.76625e-21)
(0.490017 -0.100187 -1.01873e-20)
(0.50786 -0.0979968 -2.31361e-21)
(0.525619 -0.095659 4.05079e-21)
(0.54269 -0.0934136 -8.18329e-22)
(0.560096 -0.0910664 1.20982e-22)
(0.576189 -0.0890424 -7.81797e-24)
(0.593667 -0.0868465 -4.2099e-22)
(0.608314 -0.0853079 5.36364e-23)
(0.626791 -0.0833855 -1.94373e-23)
(0.638909 -0.0826002 7.90743e-24)
(0.660276 -0.0812158 7.51686e-23)
(0.667529 -0.0812663 6.64728e-23)
(0.695622 -0.0814543 -1.48916e-22)
(0.105023 0.0588563 2.14432e-19)
(0.0868216 0.051245 -3.21008e-19)
(0.0866837 0.0496633 2.88594e-19)
(0.0850937 0.0484012 9.30469e-20)
(0.0848382 0.0459222 -1.2072e-19)
(0.0865732 0.0429748 -5.07836e-20)
(0.0899922 0.0397758 9.77491e-21)
(0.0948244 0.036393 5.54884e-21)
(0.100871 0.0328564 -9.02098e-21)
(0.107988 0.0291463 1.15225e-19)
(0.116093 0.0252189 -2.31004e-19)
(0.125155 0.0210149 6.19006e-20)
(0.135138 0.0164671 -1.8244e-20)
(0.146064 0.0114555 -4.09986e-21)
(0.157934 0.00591348 6.69428e-20)
(0.170771 -0.000199124 -3.43683e-20)
(0.184495 -0.00720771 -9.80748e-21)
(0.199053 -0.0149395 -3.19361e-20)
(0.214493 -0.0233926 9.9443e-20)
(0.230732 -0.0325076 -1.69075e-19)
(0.247682 -0.0421393 9.67951e-20)
(0.265229 -0.0520468 -6.69002e-20)
(0.283259 -0.0619845 8.91968e-20)
(0.301614 -0.071645 -5.90892e-20)
(0.320162 -0.0807428 9.2228e-21)
(0.338761 -0.0889832 -6.57387e-20)
(0.357327 -0.0961631 -4.9946e-21)
(0.375781 -0.102157 5.80309e-20)
(0.394062 -0.106897 -6.42254e-20)
(0.412147 -0.110393 1.56281e-20)
(0.430026 -0.112723 3.72289e-20)
(0.44769 -0.113988 3.99896e-21)
(0.465145 -0.114339 -1.28014e-20)
(0.482391 -0.113905 6.3549e-22)
(0.499418 -0.112855 8.18401e-21)
(0.51625 -0.111293 -1.44856e-20)
(0.532822 -0.109392 5.12257e-21)
(0.549247 -0.10719 5.30586e-21)
(0.565301 -0.104887 -3.31307e-21)
(0.581362 -0.102411 -1.10095e-21)
(0.596785 -0.100059 1.21941e-21)
(0.612639 -0.0975654 -1.14039e-21)
(0.627213 -0.0954557 6.91685e-22)
(0.643251 -0.0931164 4.00473e-22)
(0.656509 -0.0915196 -2.07124e-22)
(0.673572 -0.0894798 5.78109e-24)
(0.684504 -0.0886441 1.35085e-24)
(0.704257 -0.0872113 1.95379e-23)
(0.710774 -0.0871768 1.41284e-22)
(0.736502 -0.087355 3.60397e-23)
(0.168444 0.0611287 7.99153e-20)
(0.148024 0.0528187 -5.21184e-20)
(0.14795 0.0504285 -1.30248e-19)
(0.147815 0.0487231 2.37933e-19)
(0.148881 0.0456535 -9.88398e-20)
(0.152198 0.0420866 5.25898e-20)
(0.157377 0.0383261 -1.02344e-19)
(0.164025 0.0344604 -2.37192e-20)
(0.171862 0.0305114 -3.68806e-20)
(0.180703 0.0264388 1.22573e-19)
(0.190445 0.0221808 -2.06152e-19)
(0.201058 0.0176676 9.87815e-20)
(0.21249 0.0128292 -8.12188e-20)
(0.224778 0.00752587 1.04946e-19)
(0.237934 0.00178091 3.31334e-20)
(0.251899 -0.00463195 -1.24544e-19)
(0.266611 -0.0118875 1.62187e-19)
(0.282045 -0.0198304 -1.78526e-20)
(0.298145 -0.0284985 -1.93976e-20)
(0.314812 -0.0378121 4.38006e-20)
(0.331924 -0.0476261 2.16636e-20)
(0.349334 -0.0577059 -5.43584e-20)
(0.366905 -0.0677963 2.67393e-20)
(0.384478 -0.0775916 -7.20648e-20)
(0.401929 -0.0868032 6.38259e-20)
(0.419143 -0.0951444 1.37072e-20)
(0.436068 -0.102409 -1.9094e-20)
(0.452672 -0.108469 5.34537e-20)
(0.468954 -0.113261 -1.13273e-19)
(0.484937 -0.116796 2.97621e-20)
(0.50066 -0.119149 5.52062e-20)
(0.516154 -0.120423 -1.80049e-20)
(0.531459 -0.120768 -7.92459e-21)
(0.546599 -0.120312 1.38025e-21)
(0.561582 -0.119229 8.61485e-21)
(0.576444 -0.117615 -2.84222e-21)
(0.591123 -0.115657 4.08908e-21)
(0.60574 -0.113377 3.62325e-22)
(0.620061 -0.111003 3.28197e-21)
(0.634474 -0.108428 2.56865e-21)
(0.648314 -0.106004 -3.71123e-21)
(0.662657 -0.103398 1.07984e-21)
(0.675785 -0.101231 1.45549e-21)
(0.690408 -0.0987747 1.0332e-22)
(0.702365 -0.09714 -1.5002e-22)
(0.718015 -0.0950005 1.05054e-23)
(0.727859 -0.094131 -7.16023e-23)
(0.745994 -0.0926456 5.64983e-23)
(0.751851 -0.0925517 -7.52738e-23)
(0.775279 -0.0926813 1.80346e-23)
(0.248279 0.0648612 -5.76685e-20)
(0.226587 0.0544468 -6.4108e-22)
(0.226351 0.0508539 -3.17493e-20)
(0.227121 0.0485776 -2.61719e-19)
(0.228807 0.0448998 4.36684e-19)
(0.232834 0.0407147 -1.96956e-19)
(0.238833 0.0364054 8.03955e-20)
(0.24631 0.0320944 -8.21168e-21)
(0.254914 0.0277873 1.36762e-20)
(0.264429 0.0234125 -7.62781e-20)
(0.274746 0.018883 -1.31523e-19)
(0.285846 0.0141177 -1.35347e-19)
(0.297666 0.00904211 1.95131e-20)
(0.310288 0.00352269 2.52586e-19)
(0.323677 -0.00240948 -1.78645e-19)
(0.337756 -0.00908156 2.6908e-20)
(0.352507 -0.0164505 -3.14661e-20)
(0.367853 -0.0245383 -2.26612e-20)
(0.383706 -0.0333328 -1.49933e-20)
(0.399942 -0.0427489 7.54483e-20)
(0.41641 -0.0526433 3.30751e-20)
(0.43294 -0.0627889 -1.02238e-19)
(0.449384 -0.0729295 4.36499e-20)
(0.465584 -0.0827653 -3.24748e-20)
(0.481434 -0.0920112 1.02259e-19)
(0.496847 -0.100391 -1.76717e-20)
(0.511804 -0.107697 2.89087e-20)
(0.526317 -0.113802 -8.41546e-20)
(0.540432 -0.118644 2.15884e-20)
(0.554209 -0.122229 1.06689e-20)
(0.567727 -0.124631 -4.49542e-20)
(0.581046 -0.125946 2.94256e-20)
(0.594226 -0.126324 7.81972e-21)
(0.607309 -0.125885 5.72028e-21)
(0.620311 -0.124807 -1.62011e-20)
(0.633276 -0.123179 9.41732e-21)
(0.646142 -0.121199 -5.16578e-22)
(0.659027 -0.118872 -1.11512e-21)
(0.671698 -0.116455 5.49939e-22)
(0.684531 -0.113806 1.00625e-21)
(0.696871 -0.111333 -4.56641e-23)
(0.709759 -0.108633 -2.53924e-21)
(0.721527 -0.106426 -2.38185e-22)
(0.73477 -0.103868 -5.54767e-22)
(0.745518 -0.102209 3.51179e-22)
(0.759768 -0.0999751 -5.27269e-23)
(0.768621 -0.0990899 2.60545e-23)
(0.785147 -0.097533 -2.26082e-23)
(0.790419 -0.0974167 1.66304e-23)
(0.811623 -0.0974498 8.08132e-24)
(0.347768 0.0700785 3.71092e-19)
(0.328489 0.0547736 -4.08566e-19)
(0.328323 0.0500738 1.53726e-19)
(0.328995 0.0474696 -1.31794e-19)
(0.329944 0.0434715 6.19631e-20)
(0.333094 0.0388889 -5.29223e-20)
(0.338252 0.0341882 3.25776e-19)
(0.344888 0.0295682 -1.43825e-19)
(0.352602 0.0250326 -5.4603e-20)
(0.361171 0.0204745 -1.00233e-19)
(0.370491 0.0157767 3.21732e-19)
(0.380566 0.0108472 1.50795e-20)
(0.391323 0.00560466 -3.29535e-19)
(0.402884 -5.84457e-05 2.11447e-19)
(0.415171 -0.00621926 -2.09105e-20)
(0.428111 -0.0130235 -1.35781e-19)
(0.44169 -0.0205135 1.76903e-19)
(0.455805 -0.0287231 -5.42457e-20)
(0.470345 -0.0376229 1.24469e-20)
(0.485163 -0.0471282 -1.54158e-20)
(0.500087 -0.0570964 -2.56059e-20)
(0.514938 -0.0673075 -1.67073e-20)
(0.529559 -0.0775073 3.43094e-20)
(0.543806 -0.0874019 3.28944e-20)
(0.557585 -0.0967092 -9.32175e-20)
(0.570841 -0.105159 3.50132e-20)
(0.58358 -0.112545 -5.08857e-20)
(0.595845 -0.118733 6.53216e-20)
(0.607713 -0.123659 1.21494e-21)
(0.619272 -0.127324 2.32851e-20)
(0.63062 -0.129796 -7.45776e-20)
(0.641832 -0.131165 4.38522e-20)
(0.652981 -0.131578 3.94867e-21)
(0.664111 -0.131153 6.38103e-21)
(0.675247 -0.130071 -2.3656e-21)
(0.686425 -0.128413 -1.22165e-20)
(0.697589 -0.126393 1.15283e-20)
(0.708845 -0.123999 2.32839e-21)
(0.719969 -0.121519 1.06024e-21)
(0.73131 -0.118778 -6.38876e-21)
(0.742243 -0.116235 1.27212e-21)
(0.753741 -0.113428 -1.10024e-21)
(0.764239 -0.111161 9.34377e-22)
(0.776143 -0.108496 -5.36444e-22)
(0.785776 -0.106796 5.10227e-22)
(0.798646 -0.104464 -1.30868e-22)
(0.806603 -0.103557 -1.09509e-23)
(0.821536 -0.101913 -5.13852e-24)
(0.826293 -0.10179 6.35752e-24)
(0.845356 -0.101691 1.53026e-23)
(0.475721 0.0754099 -1.53543e-19)
(0.464051 0.0567271 1.7656e-19)
(0.462942 0.0516983 -2.50711e-20)
(0.460947 0.048641 -1.51951e-19)
(0.458425 0.0443006 1.24003e-19)
(0.457832 0.0392738 -8.78096e-20)
(0.459319 0.0340624 -1.53482e-19)
(0.462425 0.0289689 2.782e-19)
(0.466734 0.0240366 -2.98038e-19)
(0.47202 0.0191487 4.13025e-20)
(0.478175 0.0141609 6.29444e-20)
(0.485215 0.00896591 1.43982e-19)
(0.493057 0.003468 -1.72475e-19)
(0.501824 -0.0024238 -1.40619e-19)
(0.511416 -0.00884273 3.01871e-19)
(0.521758 -0.0158402 -6.46037e-20)
(0.532805 -0.02351 -6.05938e-20)
(0.544444 -0.0318769 5.99812e-20)
(0.556542 -0.0409095 -1.48276e-20)
(0.568932 -0.0505231 1.28206e-19)
(0.581433 -0.0605768 -1.52195e-19)
(0.593857 -0.070858 3.83221e-20)
(0.606048 -0.0811166 1.04474e-19)
(0.61787 -0.0910659 -1.06573e-19)
(0.629242 -0.100428 6.42598e-20)
(0.640125 -0.10894 -8.09414e-20)
(0.650538 -0.116396 -1.47657e-20)
(0.660535 -0.122661 -1.48722e-20)
(0.670207 -0.127669 1.02527e-19)
(0.679645 -0.131416 -7.15666e-20)
(0.688955 -0.133965 -1.57812e-20)
(0.69821 -0.135402 5.60355e-20)
(0.707485 -0.135872 -4.71522e-20)
(0.716821 -0.135486 2.37822e-20)
(0.726241 -0.134429 4.02205e-21)
(0.735775 -0.132777 -1.94209e-21)
(0.74537 -0.130751 -5.27727e-21)
(0.755115 -0.128334 1.65118e-21)
(0.764804 -0.125825 3.66731e-21)
(0.774744 -0.123039 -2.62634e-21)
(0.784369 -0.120453 -1.35118e-21)
(0.794545 -0.117593 2.03692e-21)
(0.80386 -0.115276 -8.76155e-24)
(0.814471 -0.112561 7.91429e-22)
(0.823072 -0.110806 3.43511e-23)
(0.83459 -0.108442 -3.59207e-22)
(0.841732 -0.107467 8.91494e-23)
(0.855098 -0.105808 1.9783e-23)
(0.8594 -0.105611 5.75319e-25)
(0.876412 -0.10543 -1.78477e-23)
(1.04869 0.133065 0)
(1.02049 0.115277 0)
(1.00025 0.100674 0)
(0.979268 0.0875107 0)
(0.957542 0.0754928 0)
(0.937049 0.0642938 0)
(0.918989 0.0537897 0)
(0.903555 0.0439817 0)
(0.890447 0.0348276 0)
(0.879381 0.0262347 0)
(0.870138 0.0180436 0)
(0.862692 0.0101222 0)
(0.856902 0.00231014 0)
(0.852818 -0.00548813 0)
(0.850224 -0.0134078 0)
(0.849014 -0.0215424 0)
(0.849034 -0.029959 0)
(0.850103 -0.0386611 0)
(0.852013 -0.0476147 0)
(0.854545 -0.056757 0)
(0.857485 -0.0659987 0)
(0.860635 -0.0752178 0)
(0.863835 -0.0842709 0)
(0.866958 -0.0929951 0)
(0.869934 -0.101228 0)
(0.872728 -0.108814 0)
(0.875361 -0.115629 0)
(0.877874 -0.121575 0)
(0.88035 -0.126605 0)
(0.882861 -0.130692 0)
(0.885499 -0.133861 0)
(0.888316 -0.136136 0)
(0.891381 -0.137605 0)
(0.894708 -0.138309 0)
(0.89833 -0.138385 0)
(0.902237 -0.137858 0)
(0.906415 -0.13691 0)
(0.910874 -0.135509 0)
(0.915513 -0.133907 0)
(0.920452 -0.131964 0)
(0.925394 -0.130049 0)
(0.930757 -0.127852 0)
(0.935792 -0.125928 0)
(0.941617 -0.123729 0)
(0.946453 -0.12207 0)
(0.952924 -0.120124 0)
(0.957057 -0.118962 0)
(0.964607 -0.117577 0)
(0.967163 -0.117047 0)
(0.976759 -0.116673 0)
(1.2054 0.145259 0)
(1.20805 0.136167 0)
(1.20607 0.126638 0)
(1.20193 0.116426 0)
(1.19713 0.105992 0)
(1.19239 0.095669 0)
(1.18794 0.0855373 0)
(1.18376 0.0755511 0)