/*--------------------------------*- C++ -*----------------------------------*\
  =========                 |
  \\      /  F ield         | OpenFOAM: The Open Source CFD Toolbox
   \\    /   O peration     | Website:  https://openfoam.org
    \\  /    A nd           | Version:  7
     \\/     M anipulation  |
\*---------------------------------------------------------------------------*/
FoamFile
{
    version     2.0;
    format      ascii;
    class       surfaceScalarField;
    location    "30";
    object      phi;
}
// * * * * * * * * * * * * * * * * * * * * * * * * * * * * * * * * * * * * * //

dimensions      [0 3 -1 0 0 0 0];

internalField   nonuniform List<scalar> 
26215
(
-3.78693e-06
3.78629e-06
6.35064e-10
-1.40516e-05
1.02631e-05
1.64939e-09
-3.01123e-05
1.60582e-05
2.48545e-09
-5.12926e-05
2.11771e-05
3.15648e-09
-7.69334e-05
2.56371e-05
3.68031e-09
-0.000106419
2.94813e-05
4.08039e-09
-0.000139205
3.27819e-05
4.38142e-09
-0.000174853
3.56432e-05
4.61046e-09
-0.000213063
3.82048e-05
4.78717e-09
-0.000253712
4.06446e-05
4.93485e-09
-0.000296896
4.31787e-05
5.06255e-09
-0.000342955
4.60541e-05
5.17871e-09
-0.00039249
4.95292e-05
5.28259e-09
-0.000446357
5.38619e-05
5.36459e-09
5.93029e-05
5.40341e-09
-0.000505665
-3.71607e-06
7.50236e-06
-1.37942e-05
2.03412e-05
-2.95606e-05
3.18246e-05
-5.03391e-05
4.19556e-05
-7.54636e-05
5.07616e-05
-0.000104304
5.83216e-05
-0.000136294
6.47717e-05
-0.000170962
7.03113e-05
-0.000207967
7.52102e-05
-0.000247139
7.98167e-05
-0.000288521
8.45604e-05
-0.000332408
8.99414e-05
-0.000379374
9.64947e-05
-0.000430279
0.000104767
0.000115304
-0.00048628
-3.58043e-06
1.10828e-05
-1.3299e-05
3.00598e-05
-2.84956e-05
4.70212e-05
-4.8493e-05
6.19529e-05
-7.26113e-05
7.48799e-05
-0.000100192
8.59022e-05
-0.000130624
9.52036e-05
-0.000163372
0.00010306
-0.000198014
0.000109852
-0.000234278
0.000116081
-0.000272099
0.000122381
-0.000311674
0.000129516
-0.000353513
0.000138334
-0.000398482
0.000149736
0.000164676
-0.000447854
-3.39125e-06
1.4474e-05
-1.26023e-05
3.92708e-05
-2.69878e-05
6.14067e-05
-4.58661e-05
8.08313e-05
-6.85358e-05
9.75495e-05
-9.42968e-05
0.000111663
-0.000122473
0.00012338
-0.000152437
0.000133024
-0.00018364
0.000141055
-0.000215656
0.000148096
-0.000248243
0.000154968
-0.000281429
0.000162703
-0.000315606
0.000172511
-0.000351626
0.000185756
0.000204024
-0.000390974
-3.1631e-06
1.76371e-05
-1.17507e-05
4.78584e-05
-2.51272e-05
7.47832e-05
-4.26002e-05
9.83044e-05
-6.34381e-05
0.000118387
-8.68878e-05
0.000135113
-0.000112191
0.000148683
-0.000138599
0.000159432
-0.000165399
0.000167855
-0.000191949
0.000174647
-0.000217752
0.000180771
-0.000242568
0.000187518
-0.000266575
0.000196518
-0.00029055
0.000209731
0.00022975
-0.000316276
-2.91148e-06
2.05486e-05
-1.07932e-05
5.57401e-05
-2.3007e-05
8.69971e-05
-3.88393e-05
0.000114137
-5.7518e-05
0.000137066
-7.82263e-05
0.000155821
-0.000100109
0.000170565
-0.000122277
0.0001816
-0.000143816
0.000189394
-0.000163814
0.000194645
-0.000181423
0.00019838
-0.000196009
0.000202104
-0.000207396
0.000207904
-0.000216148
0.000218484
0.000237809
-0.000224207
-2.65024e-06
2.31989e-05
-9.77217e-06
6.2862e-05
-2.07048e-05
9.79297e-05
-3.46967e-05
0.000128128
-5.09226e-05
0.000153292
-6.84904e-05
0.000173389
-8.64369e-05
0.000188512
-0.000103717
0.000198881
-0.000119191
0.000204868
-0.000131625
0.000207078
-0.000139735
0.000206491
-0.000142341
0.00020471
-0.000138721
0.000204284
-0.000129231
0.000208993
0.000223534
-0.000114956
-2.38922e-06
2.55881e-05
-8.71529e-06
6.91881e-05
-1.82647e-05
0.000107479
-3.02242e-05
0.000140088
-4.36953e-05
0.000166763
-5.76945e-05
0.000187388
-7.11377e-05
0.000201955
-8.28107e-05
0.000210554
-9.13292e-05
0.000213387
-9.51031e-05
0.000210852
-9.23392e-05
0.000203727
-8.11489e-05
0.00019352
-5.98796e-05
0.000183015
-2.82165e-05
0.00017733
0.000187075
8.24301e-06
-2.13281e-06
2.77209e-05
-7.62993e-06
7.46852e-05
-1.56855e-05
0.000115535
-2.53888e-05
0.000149791
-3.57364e-05
0.000177111
-4.56247e-05
0.000197276
-5.38233e-05
0.000210154
-5.89269e-05
0.000215657
-5.92876e-05
0.000213748
-5.29303e-05
0.000204495
-3.74813e-05
0.000188278
-1.01856e-05
0.000166224
3.17955e-05
0.000141034
9.02815e-05
0.000118844
0.000113785
0.000163571
-1.87964e-06
2.96005e-05
-6.50165e-06
7.93072e-05
-1.29158e-05
0.000121949
-2.00638e-05
0.000156939
-2.67867e-05
0.000183834
-3.18091e-05
0.000202299
-3.37027e-05
0.000212047
-3.08231e-05
0.000212778
-2.12198e-05
0.000204144
-2.51145e-06
0.000185787
2.82638e-05
0.000157503
7.47595e-05
0.000119728
0.000141185
7.46089e-05
0.000231502
2.85263e-05
1.75018e-07
0.000345113
-1.62334e-06
3.12239e-05
-5.29603e-06
8.29799e-05
-9.85819e-06
0.000126511
-1.40358e-05
0.000161117
-1.64387e-05
0.000186237
-1.55355e-05
0.000201396
-9.60525e-06
0.000206117
3.33521e-06
0.000199837
2.56323e-05
0.000181847
6.01333e-05
0.000151286
0.000110379
0.000107257
0.000180832
4.92749e-05
0.000276992
-2.15505e-05
0.000404931
-9.94133e-05
-0.000162005
0.000567111
-1.35346e-06
3.25773e-05
-3.96164e-06
8.55881e-05
-6.37619e-06
0.000128925
-7.01969e-06
0.00016176
-4.16833e-06
0.000183385
4.08779e-06
0.00019314
1.99096e-05
0.000190295
4.57885e-05
0.000173958
8.46428e-05
0.000142993
0.000139936
9.59923e-05
0.000215837
3.13564e-05
0.000317465
-5.23538e-05
0.0004512
-0.000155286
0.000624573
-0.000272786
-0.000379986
0.000842555
-1.05547e-06
3.36328e-05
-2.43061e-06
8.69633e-05
-2.29615e-06
0.000128791
1.33119e-06
0.000158133
1.06339e-05
0.000174083
2.80605e-05
0.000175713
5.64037e-05
0.000161952
9.88918e-05
0.00013147
0.00015927
8.26142e-05
0.000241859
1.3404e-05
0.000351582
-7.83665e-05
0.00049405
-0.000194822
0.000675877
-0.000337113
0.000904769
-0.000501678
-0.000658917
0.0011837
-7.08919e-07
3.43417e-05
-6.12143e-07
8.68665e-05
2.59598e-06
0.000125583
1.14246e-05
0.000149304
2.866e-05
0.000156847
5.74596e-05
0.000146913
0.000101462
0.00011795
0.000164884
6.80487e-05
0.000252572
-5.07467e-06
0.000369979
-0.000104003
0.000522983
-0.00023137
0.000717574
-0.000389413
0.000959596
-0.000579135
0.0012548
-0.000796884
-0.000997973
0.00159386
-2.84942e-07
3.46267e-05
1.60988e-06
8.49717e-05
8.57592e-06
0.000118617
2.37649e-05
0.000134116
5.0708e-05
0.000129904
9.34447e-05
0.000104177
0.000156648
5.47469e-05
0.000245712
-2.10153e-05
0.000366765
-0.000126128
0.000526537
-0.000263775
0.000732046
-0.00043688
0.000990022
-0.000647388
0.0013056
-0.000894712
0.00167839
-0.00116968
-0.00137407
0.00205449
2.60311e-07
3.43663e-05
4.39857e-06
8.08334e-05
1.59933e-05
0.000107022
3.89547e-05
0.000111154
7.76902e-05
9.11685e-05
0.00013725
4.46168e-05
0.000223436
-3.14389e-05
0.000342828
-0.000140408
0.000502672
-0.000285971
0.000710574
-0.000471678
0.000974023
-0.000700328
0.00129983
-0.000973192
0.00169403
-0.00128891
0.00216684
-0.0016425
-0.00198677
0.00277955
9.78903e-07
3.33874e-05
7.94668e-06
7.38656e-05
2.52563e-05
8.97125e-05
5.76778e-05
7.87326e-05
0.00011059
3.82561e-05
0.000190105
-3.48978e-05
0.00030309
-0.000144424
0.000457027
-0.000294345
0.000659622
-0.000488566
0.000918132
-0.000730187
0.00123845
-0.00102065
0.00162413
-0.00135887
0.00207614
-0.00174092
0.00259235
-0.00215871
-0.00259061
0.00319619
1.93324e-06
3.14542e-05
1.24648e-05
6.3334e-05
3.67922e-05
6.53851e-05
8.0614e-05
3.49108e-05
0.000150312
-3.14423e-05
0.000252988
-0.000137574
0.000396298
-0.000287734
0.000588004
-0.00048605
0.000835165
-0.000735727
0.001143
-0.00103802
0.00151355
-0.0013912
0.00194452
-0.00178985
0.00242866
-0.00222506
0.00295374
-0.00268379
-0.00315443
0.00351756
3.18248e-06
2.82717e-05
1.81481e-05
4.83684e-05
5.09726e-05
3.25606e-05
0.000108295
-2.2412e-05
0.000197429
-0.000120576
0.000326208
-0.000266353
0.000502511
-0.000464037
0.000733376
-0.000716916
0.00102371
-0.00102606
0.00137477
-0.00138907
0.00178278
-0.00179921
0.00223826
-0.00224533
0.00272618
-0.00271298
0.0032277
-0.00318532
-0.00365617
0.00372944
4.77523e-06
2.34965e-05
2.51417e-05
2.80019e-05
6.8033e-05
-1.03307e-05
0.000140952
-9.5331e-05
0.000251912
-0.000231536
0.000408979
-0.00042342
0.000619352
-0.00067441
0.00088798
-0.000985543
0.00121589
-0.00135397
0.00159868
-0.00177186
0.00202575
-0.00222628
0.00248092
-0.0027005
0.00294424
-0.0031763
0.00339567
-0.00363674
-0.00407806
0.00381755
6.74247e-06
1.6754e-05
3.35134e-05
1.23096e-06
8.80078e-05
-6.48251e-05
0.000178388
-0.000185711
0.000312937
-0.000366085
0.000499162
-0.000609645
0.000742367
-0.000917615
0.00104385
-0.00128703
0.00139924
-0.00170935
0.0017976
-0.00217023
0.00222217
-0.00265085
0.00265261
-0.00313094
0.00306858
-0.00359227
0.0034538
-0.00402196
-0.00441985
0.00379559
9.09416e-06
7.65987e-06
4.32362e-05
-3.29111e-05
0.000110689
-0.000132278
0.000219909
-0.000294931
0.000378783
-0.000524959
0.00059321
-0.000824072
0.000865201
-0.00118961
0.001191
-0.00161283
0.00156001
-0.00207837
0.00195539
-0.00256561
0.00235657
-0.00305202
0.00274306
-0.00351744
0.0030985
-0.00394771
0.00341363
-0.00433709
-0.00469018
0.00368397
1.18168e-05
-4.15694e-06
5.41803e-05
-7.52746e-05
0.000135604
-0.000213702
0.000264297
-0.000423623
0.000446864
-0.000707527
0.00068637
-0.00106358
0.000980231
-0.00148347
0.00131881
-0.00195141
0.00168573
-0.00244528
0.00206032
-0.0029402
0.00242173
-0.00341344
0.00275324
-0.00384895
0.00304519
-0.00423966
0.00329586
-0.00458776
-0.00490241
0.00350809
1.48721e-05
-1.9029e-05
6.61066e-05
-0.000126509
0.000162017
-0.000309612
0.000309843
-0.000571449
0.000513868
-0.000911552
0.000773127
-0.00132284
0.00107957
-0.00178991
0.00141785
-0.00228969
0.00176752
-0.00279495
0.0021072
-0.00327988
0.00241924
-0.00372548
0.00269305
-0.00412275
0.00292606
-0.00447267
0.00312247
-0.00478417
-0.00506943
0.00328949
1.81961e-05
-3.72251e-05
7.86664e-05
-0.000186979
0.000188943
-0.000419889
0.000354436
-0.000736942
0.000576043
-0.00113316
0.000847853
-0.00159465
0.00115624
-0.00209829
0.00148142
-0.00261487
0.00180152
-0.00311505
0.00209755
-0.00357591
0.00235732
-0.00398525
0.00257684
-0.00434228
0.00275927
-0.00465511
0.00291226
-0.00493716
-0.00520172
0.00304456
2.16953e-05
-5.89204e-05
9.14079e-05
-0.000256692
0.000215194
-0.000543675
0.000395723
-0.000917471
0.00062959
-0.00136702
0.000905564
-0.00187062
0.00120523
-0.00239795
0.00150649
-0.00291614
0.00178883
-0.00339739
0.00203787
-0.00382494
0.00224753
-0.00419491
0.00241943
-0.00451418
0.00256036
-0.00479603
0.00267916
-0.00505596
-0.00530683
0.00278427
2.52499e-05
-8.41703e-05
0.000103796
-0.000335238
0.000239465
-0.000679344
0.00043133
-0.00110934
0.000671115
-0.00160681
0.000942586
-0.00214209
0.0012241
-0.00267947
0.00149369
-0.00318572
0.00173435
-0.00363806
0.00193727
-0.00402786
0.00210188
-0.00435953
0.00223368
-0.00464598
0.0023411
-0.00490344
0.00243268
-0.00514754
-0.00538972
0.00251557
2.87179e-05
-0.000112888
0.000115245
-0.000421765
0.000260438
-0.000824537
0.000459112
-0.00130801
0.000698035
-0.00184573
0.000956964
-0.00240102
0.00121302
-0.00293552
0.00144646
-0.00341916
0.00164507
-0.00383667
0.00180537
-0.00418816
0.00193101
-0.00448516
0.00202961
-0.00474458
0.00210976
-0.0049836
0.0021789
-0.00521668
-0.00545346
0.00224264
3.19441e-05
-0.000144832
0.000125169
-0.00051499
0.000276914
-0.000976282
0.000477385
-0.00150848
0.000708849
-0.0020772
0.000948523
-0.0026407
0.00117425
-0.00316125
0.00136999
-0.00361491
0.00152856
-0.00399523
0.00165093
-0.00431054
0.00174346
-0.00457769
0.00181449
-0.00481561
0.00187189
-0.005041
0.00192164
-0.00526643
-0.00549976
0.00196794
3.47714e-05
-0.000179604
0.000133025
-0.000613244
0.000287922
-0.00113118
0.000485085
-0.00170564
0.000703201
-0.00229531
0.00091861
-0.00285611
0.00111147
-0.0033541
0.00127012
-0.00377357
0.00139196
-0.00411707
0.00148125
-0.00439982
0.00154569
-0.00464213
0.0015934
-0.00486332
0.00163105
-0.00507864
0.00166322
-0.00529861
-0.0055295
0.00169296
3.7053e-05
-0.000216657
0.000138366
-0.000714557
0.000292805
-0.00128562
0.000481828
-0.00189467
0.000681773
-0.00249526
0.000869656
-0.00304399
0.00102899
-0.00351344
0.00115254
-0.00389712
0.00124144
-0.00420596
0.00130203
-0.00446042
0.00134239
-0.00468249
0.00136979
-0.00489072
0.00138958
-0.00509844
0.00140515
-0.00531418
-0.005543
0.00141866
3.86638e-05
-0.000255321
0.000140869
-0.000816763
0.000291258
-0.00143601
0.000467871
-0.00207128
0.000646033
-0.00267342
0.000804692
-0.00320265
0.000931202
-0.00363995
0.00102233
-0.00398824
0.00108198
-0.00426562
0.00111759
-0.00449602
0.00113687
-0.00470177
0.00114599
-0.00489984
0.00114906
-0.00510151
0.00114848
-0.00531361
-0.00554026
0.00114575
3.95086e-05
-0.000294829
0.000140361
-0.000917615
0.000283324
-0.00157897
0.000443995
-0.00223195
0.000597956
-0.00282738
0.000726941
-0.00333163
0.000822183
-0.00373519
0.000883783
-0.00404984
0.000917506
-0.00429934
0.000931069
-0.00450958
0.000931433
-0.00470213
0.000923599
-0.00489201
0.000910602
-0.00508851
0.000894066
-0.00529707
-0.00552111
0.000874913
3.95277e-05
-0.000334357
0.000136812
-0.0010149
0.000269342
-0.0017115
0.000411351
-0.00237396
0.000539743
-0.00295577
0.000639514
-0.0034314
0.000705493
-0.00380117
0.000740373
-0.00408472
0.000750978
-0.00430995
0.000744772
-0.00450338
0.000727745
-0.00468511
0.000703795
-0.00486806
0.000675073
-0.00505979
0.000642643
-0.00526464
-0.00548553
0.000607058
3.86977e-05
-0.000373055
0.000130328
-0.00110653
0.000249881
-0.00183105
0.000371298
-0.00249538
0.000473614
-0.00305809
0.00054523
-0.00350302
0.00058411
-0.00384005
0.000594821
-0.00409543
0.00058462
-0.00429975
0.000560381
-0.00447914
0.000527074
-0.0046518
0.000487596
-0.00482858
0.000443329
-0.00501552
0.000394841
-0.00521615
-0.00543389
0.000343206
3.70294e-05
-0.000410084
0.000121122
-0.00119062
0.000225663
-0.00193559
0.00032527
-0.00259498
0.000401652
-0.00313447
0.00044652
-0.00354789
0.000460431
-0.00385396
0.00044919
-0.00408419
0.000420041
-0.0042706
0.000379098
-0.0044382
0.000330382
-0.00460308
0.000275988
-0.00477418
0.000216615
-0.00495615
0.000152004
-0.00515154
-0.00536247
8.05846e-05
3.45635e-05
-0.000444647
0.000109488
-0.00126555
0.000197484
-0.00202359
0.000274666
-0.00267217
0.000325722
-0.00318553
0.00034541
-0.00356758
0.000336332
-0.00384488
0.000305012
-0.00405287
0.000258368
-0.00422395
0.000201707
-0.00438154
0.000138217
-0.00453959
6.94162e-05
-0.00470538
-4.17719e-06
-0.00488256
-8.29445e-05
-0.00507277
-0.00527779
-0.000167622
3.13645e-05
-0.000476012
9.57706e-05
-0.00132995
0.000166161
-0.00209398
0.000220794
-0.0027268
0.000247439
-0.00321217
0.000243546
-0.00356368
0.00021326
-0.0038146
0.00016341
-0.00400302
0.000100383
-0.00416093
2.86728e-05
-0.00430982
-4.91775e-05
-0.00446174
-0.00013212
-0.00462244
-0.000220082
-0.00479459
-0.000313005
-0.00497985
-0.00518121
-0.000409589
2.75166e-05
-0.000503529
8.03428e-05
-0.00138278
0.000132491
-0.00214613
0.000164831
-0.00275914
0.000168156
-0.0032155
0.000142238
-0.00353777
9.2324e-05
-0.00376468
2.52101e-05
-0.00393591
-5.33235e-05
-0.00408239
-0.000139504
-0.00422364
-0.000231421
-0.00436983
-0.000328387
-0.00452548
-0.000430367
-0.00469261
-0.000537221
-0.004873
-0.00507015
-0.000648281
2.31226e-05
-0.000526651
6.35944e-05
-0.00142325
9.72315e-05
-0.00217976
0.000107809
-0.00276972
8.89745e-05
-0.00319666
4.25884e-05
-0.00349138
-2.55962e-05
-0.0036965
-0.000108936
-0.00385257
-0.00020232
-0.00398901
-0.000302666
-0.0041233
-0.000408502
-0.00426399
-0.000519366
-0.00441461
-0.00063529
-0.00457669
-0.0007562
-0.00475209
-0.00494472
-0.000881631
1.83115e-05
-0.000544963
4.59347e-05
-0.00145087
6.10985e-05
-0.00219493
5.06153e-05
-0.00275923
1.12499e-05
-0.0031573
-5.45368e-05
-0.00342559
-0.000139865
-0.00361117
-0.000238579
-0.00375385
-0.000346289
-0.0038813
-0.000460519
-0.00400907
-0.000580169
-0.00414434
-0.000704942
-0.00428984
-0.000834939
-0.00444669
-0.000970075
-0.00461695
-0.00480499
-0.00110981
1.32121e-05
-0.000558175
2.77252e-05
-0.00146539
2.48502e-05
-0.00219205
-5.21286e-06
-0.00272917
-6.506e-05
-0.00309745
-0.000148711
-0.00334194
-0.000250012
-0.00350987
-0.000363328
-0.00364054
-0.000484907
-0.00375972
-0.000612802
-0.00388117
-0.000746222
-0.00401092
-0.000885012
-0.00415105
-0.00102937
-0.00430234
-0.00117921
-0.00446711
-0.00465035
-0.00133385
7.886e-06
-0.000566061
9.22467e-06
-0.00146673
-1.12987e-05
-0.00217153
-6.14254e-05
-0.00267904
-0.000139043
-0.00301983
-0.000239249
-0.00324174
-0.000355539
-0.00339358
-0.000482768
-0.00351331
-0.000617825
-0.00362466
-0.00075925
-0.00373975
-0.000906527
-0.00386364
-0.00105959
-0.00399798
-0.0012186
-0.00414332
-0.00138357
-0.00430214
-0.00447888
-0.00155504
2.02995e-06
-0.000568091
-9.50785e-06
-0.00145519
-4.74422e-05
-0.00213359
-0.000115166
-0.00261132
-0.000209911
-0.00292509
-0.000325567
-0.00312608
-0.000455905
-0.00326324
-0.00059637
-0.00337284
-0.000744482
-0.00347655
-0.000899306
-0.00358492
-0.00106071
-0.00370224
-0.00122877
-0.00382992
-0.00140332
-0.00396877
-0.00158355
-0.00412191
-0.00428673
-0.0017757
-3.59031e-06
-0.000564501
-2.80391e-05
-0.00143074
-8.20843e-05
-0.00207955
-0.00016665
-0.00252675
-0.000277235
-0.0028145
-0.000407216
-0.0029961
-0.000550619
-0.00311984
-0.000703477
-0.00321999
-0.000863908
-0.00331612
-0.00103153
-0.0034173
-0.00120682
-0.00352696
-0.00139053
-0.00364621
-0.00158378
-0.00377552
-0.00178934
-0.00391635
-0.00409263
-0.00198345
-9.02976e-06
-0.000555471
-4.58692e-05
-0.0013939
-0.000115271
-0.00201015
-0.000215528
-0.0024265
-0.000340719
-0.00268931
-0.000483876
-0.00285294
-0.000639319
-0.00296439
-0.000803576
-0.00305573
-0.00097519
-0.00314451
-0.00115411
-0.00323838
-0.00134122
-0.00333985
-0.00153797
-0.00344945
-0.00174543
-0.00356806
-0.00196481
-0.00369697
-0.00382361
-0.00223383
-1.44635e-05
-0.000541007
-6.30016e-05
-0.00134536
-0.000146782
-0.00192637
-0.000261549
-0.00231173
-0.00040015
-0.00255071
-0.000555395
-0.0026977
-0.000721914
-0.00279787
-0.000896657
-0.00288099
-0.00107844
-0.00296272
-0.00126721
-0.00304961
-0.00146334
-0.00314373
-0.00166709
-0.0032457
-0.00187921
-0.00335594
-0.0021038
-0.00347238
-0.00358543
-0.00234199
-1.97057e-05
-0.000521301
-7.92956e-05
-0.00128577
-0.000176432
-0.00182923
-0.000304533
-0.00218363
-0.000455389
-0.00239986
-0.000621686
-0.0025314
-0.000798381
-0.00262118
-0.00098283
-0.00269654
-0.00117415
-0.0027714
-0.00137243
-0.00285132
-0.00157813
-0.00293803
-0.00179183
-0.003032
-0.00201457
-0.0031332
-0.00224729
-0.00323966
-0.00334814
-0.00248458
-2.46957e-05
-0.000496606
-9.46248e-05
-0.00121584
-0.000204078
-0.00171978
-0.000344357
-0.00204335
-0.00050636
-0.00223785
-0.000682713
-0.00235505
-0.000868682
-0.00243521
-0.00106195
-0.00250327
-0.00126182
-0.00257153
-0.00146841
-0.00264474
-0.00168211
-0.00272432
-0.00190346
-0.00281066
-0.00213308
-0.00290357
-0.00237091
-0.00300183
-0.00310445
-0.0026146
-2.93893e-05
-0.000467216
-0.000108893
-0.00113634
-0.000229617
-0.00159905
-0.000380953
-0.00189201
-0.000553051
-0.00206576
-0.000738535
-0.00216956
-0.00093298
-0.00224076
-0.00113438
-0.00230187
-0.00134221
-0.00236369
-0.00155668
-0.00243027
-0.00177822
-0.00250279
-0.00200731
-0.00258157
-0.00224436
-0.00266652
-0.00248924
-0.00275695
-0.00285298
-0.0027407
-3.375e-05
-0.000433466
-0.000122027
-0.00104806
-0.000252973
-0.00146811
-0.000414272
-0.00173071
-0.000595447
-0.00188458
-0.000789161
-0.00197585
-0.000991277
-0.00203865
-0.00120005
-0.0020931
-0.00141513
-0.00214861
-0.00163678
-0.00220862
-0.00186545
-0.00227412
-0.00210161
-0.00234541
-0.00234566
-0.00242247
-0.00259771
-0.00250489
-0.00259334
-0.00285735
-3.77476e-05
-0.000395719
-0.000133971
-0.000951839
-0.000274095
-0.00132798
-0.000444293
-0.00156052
-0.000633568
-0.00169531
-0.000834652
-0.00177476
-0.00104367
-0.00182963
-0.00125913
-0.00187764
-0.00148081
-0.00192693
-0.00170905
-0.00198038
-0.00194431
-0.00203885
-0.00218712
-0.0021026
-0.00243793
-0.00217166
-0.00269704
-0.00224579
-0.00232597
-0.00296441
-4.13571e-05
-0.000354362
-0.000144679
-0.000848517
-0.000292943
-0.00117972
-0.000470999
-0.00138246
-0.000667425
-0.00149888
-0.000875037
-0.00156715
-0.00109021
-0.00161446
-0.00131164
-0.00165621
-0.00153925
-0.00169932
-0.00177342
-0.00174621
-0.00201468
-0.00179759
-0.00226357
-0.00185371
-0.00252063
-0.0019146
-0.0027863
-0.00198012
-0.00205144
-0.00306083
-4.45575e-05
-0.000309804
-0.000154117
-0.000738958
-0.000309489
-0.00102435
-0.000494384
-0.00119756
-0.000697033
-0.00129623
-0.000910344
-0.00135384
-0.00113091
-0.00139389
-0.00135761
-0.00142951
-0.00159046
-0.00146647
-0.0018299
-0.00150677
-0.0020765
-0.00155099
-0.00233085
-0.00159936
-0.00259356
-0.0016519
-0.00286514
-0.00170854
-0.00177052
-0.00314606
-4.73314e-05
-0.000262473
-0.000162256
-0.000624033
-0.00032371
-0.000862894
-0.00051444
-0.00100683
-0.000722403
-0.00108827
-0.000940592
-0.00113565
-0.00116579
-0.00116869
-0.00139703
-0.00119827
-0.00163442
-0.00122908
-0.00187844
-0.00126275
-0.00212969
-0.00129974
-0.00238881
-0.00134024
-0.00265645
-0.00138427
-0.00293319
-0.00143179
-0.00148402
-0.00321968
-4.96644e-05
-0.000212808
-0.000169073
-0.000504624
-0.000335588
-0.000696378
-0.000531164
-0.000811259
-0.000743539
-0.000875894
-0.000965793
-0.000913397
-0.00119487
-0.000939623
-0.00142992
-0.000963214
-0.00167111
-0.000987883
-0.00191899
-0.00101488
-0.00217417
-0.00104456
-0.00243731
-0.00107709
-0.00270911
-0.00111247
-0.0029902
-0.0011507
-0.00119285
-0.00328137
-5.15448e-05
-0.000161264
-0.000174548
-0.000381621
-0.000345108
-0.000525819
-0.000544549
-0.000611818
-0.000760447
-0.000659996
-0.000985952
-0.000687893
-0.00121813
-0.000707443
-0.00145624
-0.000725102
-0.00170051
-0.000743615
-0.00195149
-0.000763897
-0.00220984
-0.000786218
-0.00247624
-0.000810686
-0.0027514
-0.000837312
-0.00303599
-0.000866105
-0.000897932
-0.00333092
-5.29631e-05
-0.000108301
-0.000178668
-0.000255917
-0.000352258
-0.000352228
-0.000554592
-0.000409483
-0.000773128
-0.000441461
-0.00100107
-0.00045995
-0.00123559
-0.000472928
-0.001476
-0.000484686
-0.00172258
-0.000497034
-0.00197591
-0.000510572
-0.00223665
-0.00052548
-0.0025055
-0.000541827
-0.0027832
-0.000559621
-0.00307043
-0.000578871
-0.000600189
-0.00336817
-5.39125e-05
-5.43881e-05
-0.00018142
-0.000128409
-0.00035703
-0.000176619
-0.00056129
-0.000205222
-0.000781582
-0.000221169
-0.00101115
-0.000230381
-0.00124723
-0.000236854
-0.00148918
-0.000242728
-0.00173731
-0.000248904
-0.00199221
-0.000255679
-0.00225454
-0.000263141
-0.00252505
-0.000271325
-0.00280443
-0.000280234
-0.00309343
-0.000289876
-0.000300564
-0.00339305
-5.43883e-05
1.51453e-10
-0.000182798
3.51624e-10
-0.000359417
4.78492e-10
-0.00056464
5.50221e-10
-0.000785809
5.86564e-10
-0.00101619
6.03739e-10
-0.00125305
6.11583e-10
-0.00149577
6.149e-10
-0.00174468
6.15458e-10
-0.00200036
6.13763e-10
-0.0022635
6.10153e-10
-0.00253483
6.04879e-10
-0.00281506
5.97957e-10
-0.00310494
5.89423e-10
5.79889e-10
-0.0034055
-5.43883e-05
5.43884e-05
-0.000182798
0.00012841
-0.000359417
0.00017662
-0.00056464
0.000205223
-0.000785809
0.00022117
-0.00101619
0.000230382
-0.00125305
0.000236855
-0.00149577
0.00024273
-0.00174468
0.000248906
-0.00200036
0.00025568
-0.0022635
0.000263142
-0.00253483
0.000271327
-0.00281506
0.000280236
-0.00310494
0.000289877
0.000300566
-0.0034055
-5.39125e-05
0.000108301
-0.00018142
0.000255917
-0.00035703
0.000352229
-0.00056129
0.000409484
-0.000781582
0.000441462
-0.00101115
0.000459951
-0.00124723
0.00047293
-0.00148918
0.000484687
-0.00173731
0.000497035
-0.00199221
0.000510574
-0.00225454
0.000525481
-0.00252505
0.000541829
-0.00280443
0.000559622
-0.00309343
0.000578873
0.00060019
-0.00339305
-5.29631e-05
0.000161264
-0.000178668
0.000381622
-0.000352258
0.00052582
-0.000554593
0.000611819
-0.000773128
0.000659998
-0.00100107
0.000687894
-0.00123559
0.000707444
-0.001476
0.000725104
-0.00172258
0.000743617
-0.00197591
0.000763898
-0.00223665
0.000786219
-0.0025055
0.000810687
-0.0027832
0.000837313
-0.00307043
0.000866107
0.000897933
-0.00336817
-5.15448e-05
0.000212809
-0.000174548
0.000504625
-0.000345108
0.000696379
-0.000544549
0.00081126
-0.000760447
0.000875896
-0.000985952
0.000913399
-0.00121813
0.000939624
-0.00145624
0.000963216
-0.00170051
0.000987885
-0.00195149
0.00101488
-0.00220984
0.00104456
-0.00247624
0.00107709
-0.0027514
0.00111247
-0.00303599
0.0011507
0.00119286
-0.00333092
-4.96644e-05
0.000262473
-0.000169073
0.000624033
-0.000335588
0.000862895
-0.000531164
0.00100684
-0.000743539
0.00108827
-0.000965793
0.00113565
-0.00119487
0.0011687
-0.00142992
0.00119827
-0.00167111
0.00122908
-0.00191899
0.00126275
-0.00217417
0.00129974
-0.00243731
0.00134024
-0.00270911
0.00138427
-0.0029902
0.0014318
0.00148402
-0.00328137
-4.73314e-05
0.000309805
-0.000162256
0.000738958
-0.00032371
0.00102435
-0.00051444
0.00119757
-0.000722403
0.00129623
-0.000940592
0.00135384
-0.00116579
0.00139389
-0.00139703
0.00142951
-0.00163442
0.00146647
-0.00187844
0.00150677
-0.00212969
0.001551
-0.00238881
0.00159936
-0.00265645
0.0016519
-0.00293319
0.00170854
0.00177052
-0.00321968
-4.45575e-05
0.000354362
-0.000154117
0.000848518
-0.000309489
0.00117972
-0.000494384
0.00138246
-0.000697033
0.00149888
-0.000910344
0.00156715
-0.00113091
0.00161446
-0.00135761
0.00165621
-0.00159046
0.00169932
-0.0018299
0.00174621
-0.0020765
0.0017976
-0.00233085
0.00185371
-0.00259356
0.0019146
-0.00286514
0.00198012
0.00205145
-0.00314606
-4.13571e-05
0.000395719
-0.000144679
0.00095184
-0.000292943
0.00132798
-0.000471
0.00156052
-0.000667425
0.00169531
-0.000875037
0.00177476
-0.00109021
0.00182963
-0.00131164
0.00187764
-0.00153925
0.00192693
-0.00177342
0.00198039
-0.00201468
0.00203885
-0.00226357
0.0021026
-0.00252063
0.00217166
-0.0027863
0.00224579
0.00232597
-0.00306083
-3.77476e-05
0.000433467
-0.000133971
0.00104806
-0.000274095
0.00146811
-0.000444293
0.00173072
-0.000633568
0.00188458
-0.000834652
0.00197585
-0.00104367
0.00203865
-0.00125913
0.0020931
-0.00148081
0.00214861
-0.00170905
0.00220862
-0.00194431
0.00227412
-0.00218712
0.00234541
-0.00243793
0.00242247
-0.00269704
0.0025049
0.00259334
-0.00296441
-3.375e-05
0.000467217
-0.000122027
0.00113634
-0.000252973
0.00159905
-0.000414273
0.00189202
-0.000595447
0.00206576
-0.000789162
0.00216956
-0.000991277
0.00224076
-0.00120005
0.00230188
-0.00141513
0.00236369
-0.00163678
0.00243027
-0.00186545
0.00250279
-0.00210161
0.00258157
-0.00234566
0.00266653
-0.00259771
0.00275695
0.00285298
-0.00285735
-2.93893e-05
0.000496606
-0.000108893
0.00121584
-0.000229617
0.00171978
-0.000380954
0.00204335
-0.000553051
0.00223785
-0.000738535
0.00235505
-0.00093298
0.00243521
-0.00113438
0.00250327
-0.00134221
0.00257153
-0.00155668
0.00264474
-0.00177822
0.00272432
-0.00200731
0.00281066
-0.00224436
0.00290358
-0.00248924
0.00300183
0.00310445
-0.0027407
-2.46957e-05
0.000521302
-9.46248e-05
0.00128577
-0.000204078
0.00182923
-0.000344357
0.00218363
-0.00050636
0.00239986
-0.000682713
0.0025314
-0.000868682
0.00262118
-0.00106195
0.00269654
-0.00126182
0.0027714
-0.00146841
0.00285133
-0.00168211
0.00293803
-0.00190346
0.003032
-0.00213308
0.0031332
-0.00237091
0.00323966
0.00334814
-0.0026146
-1.97058e-05
0.000541008
-7.92957e-05
0.00134536
-0.000176432
0.00192637
-0.000304533
0.00231173
-0.000455389
0.00255071
-0.000621686
0.0026977
-0.000798381
0.00279787
-0.00098283
0.00288099
-0.00117415
0.00296272
-0.00137244
0.00304961
-0.00157813
0.00314373
-0.00179183
0.0032457
-0.00201457
0.00335594
-0.00224729
0.00347238
0.00358543
-0.00248458
-1.44636e-05
0.000555471
-6.30016e-05
0.0013939
-0.000146783
0.00201015
-0.00026155
0.0024265
-0.00040015
0.00268931
-0.000555395
0.00285294
-0.000721914
0.00296439
-0.000896658
0.00305573
-0.00107845
0.00314451
-0.00126721
0.00323838
-0.00146334
0.00333985
-0.00166709
0.00344946
-0.00187921
0.00356806
-0.0021038
0.00369697
0.00382361
-0.00234199
-9.02977e-06
0.000564501
-4.58692e-05
0.00143074
-0.000115271
0.00207955
-0.000215528
0.00252676
-0.000340719
0.00281451
-0.000483876
0.0029961
-0.00063932
0.00311984
-0.000803576
0.00321999
-0.00097519
0.00331612
-0.00115411
0.0034173
-0.00134122
0.00352696
-0.00153797
0.00364621
-0.00174543
0.00377552
-0.00196481
0.00391635
0.00409263
-0.00223383
-3.59031e-06
0.000568091
-2.80392e-05
0.00145519
-8.20844e-05
0.0021336
-0.00016665
0.00261132
-0.000277235
0.00292509
-0.000407216
0.00312608
-0.000550619
0.00326324
-0.000703477
0.00337285
-0.000863909
0.00347655
-0.00103153
0.00358493
-0.00120682
0.00370224
-0.00139053
0.00382992
-0.00158378
0.00396878
-0.00178934
0.00412191
0.00428673
-0.00198345
2.02994e-06
0.000566061
-9.50789e-06
0.00146673
-4.74423e-05
0.00217153
-0.000115166
0.00267905
-0.000209911
0.00301983
-0.000325567
0.00324174
-0.000455906
0.00339358
-0.000596371
0.00351331
-0.000744483
0.00362467
-0.000899306
0.00373975
-0.00106071
0.00386364
-0.00122877
0.00399799
-0.00140332
0.00414332
-0.00158355
0.00430214
0.00447888
-0.0017757
7.88599e-06
0.000558175
9.22464e-06
0.00146539
-1.12988e-05
0.00219205
-6.14255e-05
0.00272917
-0.000139043
0.00309745
-0.000239249
0.00334194
-0.000355539
0.00350987
-0.000482768
0.00364054
-0.000617825
0.00375972
-0.00075925
0.00388117
-0.000906527
0.00401092
-0.00105959
0.00415105
-0.0012186
0.00430234
-0.00138357
0.00446711
0.00465035
-0.00155504
1.32121e-05
0.000544963
2.77252e-05
0.00145088
2.48501e-05
0.00219493
-5.21301e-06
0.00275924
-6.50602e-05
0.0031573
-0.000148711
0.00342559
-0.000250013
0.00361117
-0.000363328
0.00375386
-0.000484907
0.0038813
-0.000612803
0.00400907
-0.000746222
0.00414434
-0.000885013
0.00428984
-0.00102937
0.0044467
-0.00117921
0.00461695
0.00480499
-0.00133385
1.83115e-05
0.000526652
4.59347e-05
0.00142325
6.10984e-05
0.00217976
5.06151e-05
0.00276972
1.12497e-05
0.00319666
-5.4537e-05
0.00349138
-0.000139865
0.0036965
-0.000238579
0.00385257
-0.000346289
0.00398901
-0.000460519
0.0041233
-0.000580169
0.00426399
-0.000704942
0.00441461
-0.000834939
0.00457669
-0.000970076
0.00475209
0.00494472
-0.00110981
2.31226e-05
0.000503529
6.35944e-05
0.00138278
9.72315e-05
0.00214613
0.000107809
0.00275914
8.89743e-05
0.0032155
4.25881e-05
0.00353777
-2.55965e-05
0.00376468
-0.000108937
0.00393591
-0.00020232
0.00408239
-0.000302666
0.00422365
-0.000408502
0.00436983
-0.000519366
0.00452548
-0.00063529