/*--------------------------------*- C++ -*----------------------------------*\
  =========                 |
  \\      /  F ield         | OpenFOAM: The Open Source CFD Toolbox
   \\    /   O peration     | Website:  https://openfoam.org
    \\  /    A nd           | Version:  7
     \\/     M anipulation  |
\*---------------------------------------------------------------------------*/
FoamFile
{
    version     2.0;
    format      ascii;
    class       volScalarField;
    location    "100";
    object      p;
}
// * * * * * * * * * * * * * * * * * * * * * * * * * * * * * * * * * * * * * //

dimensions      [0 2 -2 0 0 0 0];

internalField   nonuniform List<scalar> 
14000
(
-0.23717
-0.240689
-0.242113
-0.243777
-0.245545
-0.247285
-0.248797
-0.249843
-0.25103
-0.25011
-0.238475
-0.241663
-0.242972
-0.244594
-0.246421
-0.248399
-0.250474
-0.251968
-0.255097
-0.254848
-0.240631
-0.243308
-0.244398
-0.245888
-0.247682
-0.249762
-0.252592
-0.253565
-0.259792
-0.258383
-0.243404
-0.245425
-0.246161
-0.247381
-0.249021
-0.250828
-0.25489
-0.253824
-0.264829
-0.259658
-0.246552
-0.24781
-0.24802
-0.248769
-0.250131
-0.25114
-0.256743
-0.252925
-0.26776
-0.259377
-0.249895
-0.250314
-0.249799
-0.249824
-0.250672
-0.251072
-0.256988
-0.250863
-0.269182
-0.258078
-0.253363
-0.252877
-0.251431
-0.250535
-0.250513
-0.250329
-0.255948
-0.248589
-0.266364
-0.257906
-0.257038
-0.255523
-0.253017
-0.250982
-0.249934
-0.249213
-0.253127
-0.247777
-0.258841
-0.255616
-0.261181
-0.258452
-0.254763
-0.251472
-0.249266
-0.247998
-0.248961
-0.246504
-0.248994
-0.247491
-0.26617
-0.261966
-0.257004
-0.252372
-0.248916
-0.246486
-0.244435
-0.241809
-0.237372
-0.233918
-0.27243
-0.266446
-0.260096
-0.25397
-0.24894
-0.24449
-0.2394
-0.233884
-0.224496
-0.216465
-0.280377
-0.27229
-0.264278
-0.256344
-0.249147
-0.241784
-0.233238
-0.223775
-0.211939
-0.200885
-0.290471
-0.279778
-0.269627
-0.259495
-0.249247
-0.238086
-0.225792
-0.213017
-0.199015
-0.186325
-0.303084
-0.288999
-0.276284
-0.263281
-0.248811
-0.233205
-0.217306
-0.201573
-0.186092
-0.172763
-0.31845
-0.29965
-0.284472
-0.267218
-0.247312
-0.227024
-0.207693
-0.189659
-0.173158
-0.158987
-0.336521
-0.311391
-0.293658
-0.270355
-0.244227
-0.219334
-0.197002
-0.177113
-0.159759
-0.144942
-0.356051
-0.324304
-0.302078
-0.271428
-0.239044
-0.209967
-0.185048
-0.163711
-0.145738
-0.130212
-0.374981
-0.338188
-0.307858
-0.269315
-0.231293
-0.198642
-0.171624
-0.149211
-0.130753
-0.114784
-0.391131
-0.351305
-0.30992
-0.263348
-0.22053
-0.185053
-0.156446
-0.133322
-0.114669
-0.0986316
-0.402851
-0.360722
-0.307372
-0.253145
-0.206389
-0.168863
-0.139228
-0.1158
-0.097271
-0.0816933
-0.409033
-0.363781
-0.299036
-0.238315
-0.18856
-0.149778
-0.119723
-0.0964463
-0.078392
-0.0635494
-0.408702
-0.358587
-0.28405
-0.218436
-0.166784
-0.127567
-0.0977738
-0.0752137
-0.0579355
-0.0436345
-0.400675
-0.344101
-0.261906
-0.193152
-0.140853
-0.102131
-0.073354
-0.05214
-0.0359149
-0.0219707
-0.383547
-0.319822
-0.232285
-0.162258
-0.110744
-0.0735929
-0.0466009
-0.0272498
-0.0120911
0.000395672
-0.355953
-0.28563
-0.194953
-0.125891
-0.0767375
-0.0422676
-0.0177274
-0.000384426
0.0132711
0.0234794
-0.316961
-0.241653
-0.150004
-0.0846058
-0.0391892
-0.00815986
0.0132032
0.0281353
0.039666
0.047077
-0.266351
-0.187932
-0.0984883
-0.0386245
0.00172275
0.0283365
0.0458859
0.057785
0.0664181
0.0704485
-0.204557
-0.124355
-0.0418013
0.0113491
0.045451
0.0667775
0.0799099
0.0879779
0.0926599
0.0925891
-0.132121
-0.0531576
0.0193503
0.0643168
0.0912811
0.106647
0.114821
0.118253
0.117897
0.113248
-0.0495814
0.0220464
0.0838329
0.119269
0.138376
0.147286
0.150051
0.148333
0.142719
0.134216
0.0395741
0.0999734
0.150075
0.175096
0.185808
0.187885
0.184858
0.177814
0.167659
0.160175
0.132199
0.17899
0.2164
0.23055
0.232578
0.227595
0.21855
0.206338
0.192828
0.184941
0.224921
0.256984
0.281102
0.284306
0.277632
0.265602
0.250705
0.233856
0.217422
0.207091
0.314384
0.331716
0.342487
0.335022
0.319891
0.301035
0.280614
0.25962
0.240396
0.226978
0.397342
0.400971
0.398911
0.381402
0.358359
0.333172
0.30773
0.282985
0.260928
0.244285
0.470956
0.462594
0.448789
0.422199
0.392057
0.361244
0.331426
0.303415
0.278686
0.258942
0.533077
0.514407
0.490629
0.456304
0.420139
0.384584
0.351112
0.320359
0.293279
0.270773
0.581683
0.554728
0.523163
0.482768
0.441885
0.402636
0.366339
0.333446
0.304461
0.279675
0.615106
0.582333
0.545423
0.500852
0.456722
0.414941
0.376717
0.34236
0.312036
0.285609
0.632184
0.5964
0.556758
0.510053
0.464266
0.421195
0.381992
0.34689
0.315875
0.288583
0.632321
0.596506
0.556838
0.510116
0.464318
0.42124
0.382034
0.346931
0.315916
0.28862
0.615515
0.582652
0.545664
0.50104
0.456877
0.415076
0.376842
0.342482
0.312156
0.28572
0.582356
0.555253
0.52356
0.483079
0.44214
0.402858
0.366544
0.333647
0.304659
0.279861
0.534
0.51513
0.491174
0.456732
0.420491
0.38489
0.351397
0.320638
0.293556
0.271035
0.472111
0.463502
0.449471
0.422735
0.392499
0.36163
0.331785
0.30377
0.279041
0.259283
0.398712
0.402041
0.399716
0.382037
0.358885
0.333633
0.308161
0.283413
0.261361
0.244706
0.315944
0.33292
0.343397
0.335743
0.320491
0.301565
0.281112
0.260116
0.240905
0.227481
0.226633
0.258296
0.282098
0.285099
0.278297
0.266193
0.251263
0.234417
0.218007
0.20768
0.134016
0.180378
0.217461
0.231399
0.233296
0.228241
0.219166
0.206962
0.193487
0.185618
0.041442
0.101401
0.151176
0.175984
0.186567
0.188578
0.185527
0.178495
0.168384
0.160945
-0.047725
0.0234719
0.0849485
0.120175
0.139163
0.148017
0.150769
0.149072
0.143508
0.135078
-0.130342
-0.051768
0.0204517
0.0652208
0.0920814
0.107409
0.115587
0.119051
0.118754
0.114185
-0.202964
-0.123016
-0.0407448
0.0122272
0.0462497
0.0675617
0.0807208
0.0888399
0.0935882
0.0936007
-0.26498
-0.186738
-0.0975088
-0.0377988
0.00250436
0.0291351
0.0467396
0.0587151
0.0674301
0.0715502
-0.315858
-0.240659
-0.149152
-0.0838617
-0.0384413
-0.0073541
0.0140981
0.0291415
0.0407799
0.0482953
-0.355171
-0.284883
-0.194281
-0.125242
-0.0760406
-0.0414604
-0.0167911
0.000708981
0.0145082
0.024843
-0.383127
-0.319368
-0.231825
-0.161736
-0.110104
-0.0727922
-0.0456197
-0.0260559
-0.0107084
0.00193668
-0.400644
-0.343981
-0.261693
-0.192792
-0.140294
-0.101342
-0.0723111
-0.0508325
-0.0343627
-0.0202126
-0.409065
-0.358838
-0.284123
-0.218269
-0.16633
-0.126796
-0.0966655
-0.073769
-0.0561764
-0.0416113
-0.409786
-0.364438
-0.299435
-0.238376
-0.188236
-0.149035
-0.118544
-0.0948372
-0.0763842
-0.0612073
-0.403984
-0.361809
-0.308134
-0.253474
-0.206228
-0.168166
-0.137973
-0.113994
-0.0949604
-0.0789618
-0.392635
-0.352825
-0.311072
-0.263993
-0.220578
-0.184428
-0.15511
-0.131283
-0.111984
-0.0954114
-0.376845
-0.340111
-0.309419
-0.270334
-0.231611
-0.198129
-0.170208
-0.146895
-0.12761
-0.110948
-0.358258
-0.326564
-0.304068
-0.272893
-0.239717
-0.209626
-0.183563
-0.16107
-0.142028
-0.125601
-0.33905
-0.313928
-0.296084
-0.27234
-0.24536
-0.219249
-0.195472
-0.174092
-0.155355
-0.139345
-0.321208
-0.302431
-0.287319
-0.269786
-0.24903
-0.227312
-0.206167
-0.186198
-0.167879
-0.152141
-0.306061
-0.292015
-0.279527
-0.266475
-0.251236
-0.234013
-0.215858
-0.197609
-0.179724
-0.164286
-0.293597
-0.283004
-0.273249
-0.263323
-0.252464
-0.239555
-0.224544
-0.208493
-0.191267
-0.175737
-0.283527
-0.275655
-0.268227
-0.260752
-0.253157
-0.244013
-0.232313
-0.218676
-0.202513
-0.187438
-0.275423
-0.269806
-0.264225
-0.258791
-0.253597
-0.247457
-0.238913
-0.228192
-0.213243
-0.199204
-0.268805
-0.265084
-0.26106
-0.257293
-0.253881
-0.249972
-0.244327
-0.235642
-0.224369
-0.212179
-0.263175
-0.261141
-0.258426
-0.256057
-0.254028
-0.251553
-0.248876
-0.239946
-0.234608
-0.222076
-0.258258
-0.257584
-0.255993
-0.25481
-0.253908
-0.252191
-0.252456
-0.24079
-0.243503
-0.22725
-0.253762
-0.254178
-0.253574
-0.253325
-0.253326
-0.252039
-0.25421
-0.24078
-0.250006
-0.227435
-0.249559
-0.250906
-0.251059
-0.25153
-0.252165
-0.25124
-0.254028
-0.24177
-0.251933
-0.226716
-0.245681
-0.247819
-0.248517
-0.249483
-0.250401
-0.250354
-0.252448
-0.242934
-0.250497
-0.228513
-0.242272
-0.245056
-0.24612
-0.247397
-0.248553
-0.249182
-0.250017
-0.244809
-0.247442
-0.232027
-0.239541
-0.242806
-0.244098
-0.245564
-0.246926
-0.247914
-0.248315
-0.245857
-0.245673
-0.236121
-0.237696
-0.241254
-0.24267
-0.24425
-0.245775
-0.247009
-0.247572
-0.2467
-0.245869
-0.240332
-0.236889
-0.240533
-0.241991
-0.243635
-0.245294
-0.246769
-0.247772
-0.247986
-0.247832
-0.245082
-0.250187
-0.249965
-0.249617
-0.249145
-0.248531
-0.247764
-0.246781
-0.245662
-0.244364
-0.242868
-0.241163
-0.239246
-0.237118
-0.234787
-0.23227
-0.229592
-0.226787
-0.223895
-0.220966
-0.218044
-0.215172
-0.212393
-0.209745
-0.207262
-0.204967
-0.202873
-0.200983
-0.199289
-0.197769
-0.196389
-0.195102
-0.193851
-0.192568
-0.191176
-0.189594
-0.187748
-0.185615
-0.183154
-0.180338
-0.177149
-0.173574
-0.169627
-0.165355
-0.160824
-0.156117
-0.151333
-0.146589
-0.142009
-0.137725
-0.133862
-0.13054
-0.127869
-0.125923
-0.124734
-0.124369
-0.124827
-0.12605
-0.127967
-0.130396
-0.133171
-0.136084
-0.139
-0.141739
-0.144104
-0.145908
-0.14699
-0.147227
-0.146538
-0.14491
-0.142295
-0.138728
-0.134266
-0.129008
-0.12308
-0.116618
-0.10977
-0.102679
-0.0954835
-0.0883091
-0.081268
-0.0744567
-0.0679567
-0.0618369
-0.0561561
-0.0509671
-0.0463194
-0.0422624
-0.0388456
-0.0361176
-0.0341226
-0.0328944
-0.0324489
-0.0327768
-0.033837
-0.0355535
-0.0378152
-0.0404816
-0.0433909
-0.0463708
-0.0492502
-0.0518693
-0.0540882
-0.0557927
-0.0568976
-0.0573471
-0.0571128
-0.0561927
-0.0546111
-0.0524031
-0.0496181
-0.0463147
-0.0425577
-0.038408
-0.0339331
-0.0291781
-0.0242153
-0.0190487
-0.0137779
-0.00833584
-0.00281855
-0.256789
-0.25737
-0.25782
-0.258132
-0.258245
-0.258119
-0.257703
-0.256983
-0.255919
-0.254484
-0.252655
-0.250413
-0.247753
-0.244675
-0.241193
-0.237332
-0.233122
-0.228605
-0.223871
-0.218964
-0.213945
-0.208882
-0.20384
-0.198884
-0.19407
-0.189447
-0.185054
-0.180919
-0.177054
-0.173461
-0.170129
-0.167036
-0.164149
-0.161425
-0.158804
-0.156222
-0.153647
-0.151155
-0.148667
-0.146155
-0.143604
-0.141025
-0.138464
-0.135971
-0.133589
-0.131385
-0.129444
-0.127853
-0.126727
-0.126134
-0.126146
-0.126882
-0.12839
-0.130444
-0.133309
-0.136798
-0.140821
-0.145238
-0.149861
-0.154503
-0.158972
-0.163063
-0.166579
-0.169332
-0.171152
-0.171898
-0.171471
-0.1699
-0.167077
-0.16306
-0.157915
-0.151746
-0.144689
-0.136904
-0.128563
-0.119841
-0.110908
-0.101923
-0.093028
-0.0843425
-0.0759668
-0.0679807
-0.0604457
-0.0534089
-0.0469071
-0.0409716
-0.0356324
-0.0309213
-0.0268739
-0.0235283
-0.0209209
-0.0190818
-0.018027
-0.0177516
-0.0182233
-0.0193781
-0.0211196
-0.0233228
-0.0258412
-0.0285167
-0.0311902
-0.0337116
-0.0359483
-0.0377908
-0.0391553
-0.0399852
-0.0402509
-0.0399437
-0.0390755
-0.0376658
-0.0357494
-0.0333713
-0.0305771
-0.0274172
-0.0239267
-0.0201607
-0.0161175
-0.0118879
-0.0073592
-0.00271401
-0.262855
-0.263968
-0.265082
-0.266096
-0.266868
-0.267358
-0.267502
-0.267178
-0.266385
-0.265071
-0.263193
-0.260722
-0.257639
-0.253939
-0.249634
-0.244751
-0.239297
-0.233175
-0.226786
-0.220058
-0.213058
-0.205876
-0.198606
-0.19134
-0.184167
-0.177167
-0.170413
-0.163965
-0.157869
-0.152162
-0.146865
-0.141988
-0.13753
-0.133478
-0.12981
-0.126489
-0.123471
-0.120784
-0.118543
-0.116601
-0.114937
-0.113524
-0.112485
-0.111911
-0.111695
-0.111902
-0.112598
-0.113782
-0.115619
-0.118191
-0.12125
-0.125073
-0.129615
-0.134767
-0.140464
-0.146591
-0.153008
-0.159539
-0.165989
-0.172152
-0.177814
-0.182763
-0.186798
-0.189737
-0.19143
-0.191754
-0.190748
-0.188241
-0.184313
-0.179019
-0.172461
-0.164777
-0.156139
-0.146738
-0.136776
-0.126453
-0.115961
-0.105474
-0.0951424
-0.0850923
-0.0754238
-0.0662126
-0.0575131
-0.0493625
-0.0417848
-0.0347961
-0.0284086
-0.0226356
-0.0174948
-0.0130104
-0.00921298
-0.00613632
-0.00381181
-0.00226035
-0.00148453
-0.00146282
-0.00214526
-0.00345226
-0.00527684
-0.00749036
-0.00995098
-0.0125133
-0.0150378
-0.0173988
-0.0194903
-0.0212291
-0.0225548
-0.0234365
-0.0238496
-0.0237807
-0.0232492
-0.022278
-0.0208977
-0.0191428
-0.0170403
-0.0146301
-0.0119139
-0.00896542
-0.0056762
-0.00226468
-0.267616
-0.269043
-0.270576
-0.272148
-0.273477
-0.274475
-0.275067
-0.275161
-0.274673
-0.273538
-0.2717
-0.269117
-0.265761
-0.26162
-0.256715
-0.251135
-0.245011
-0.236559
-0.229172
-0.221048
-0.212447
-0.203517
-0.194385
-0.185173
-0.175997
-0.166967
-0.158184
-0.149737
-0.141704
-0.13415
-0.127124
-0.120666
-0.114803
-0.109548
-0.104906
-0.100876
-0.0974244
-0.0944052
-0.092406
-0.0909157
-0.0900313
-0.0895298
-0.0894895
-0.0910378
-0.092638
-0.094873
-0.0977881
-0.101373
-0.105665
-0.110696
-0.116445
-0.122907
-0.129997
-0.137601
-0.145595
-0.15383
-0.162133
-0.170309
-0.178152
-0.185446
-0.191975
-0.197526
-0.201892
-0.204874
-0.206363
-0.206342
-0.204657
-0.201359
-0.196485
-0.190118
-0.182389
-0.173467
-0.163554
-0.152867
-0.141633
-0.130072
-0.118389
-0.106768
-0.0953631
-0.0842997
-0.073673
-0.0635521
-0.0539832
-0.044994
-0.0365987
-0.0288023
-0.0216044
-0.0150038
-0.009002
-0.00360653
0.00116667
0.00529264
0.00873978
0.0114744
0.0134677
0.0147042
0.0151904
0.0149598
0.0140732
0.012618
0.0107029
0.00845142
0.00599325
0.00345578
0.00095616
-0.00140405
-0.00354339
-0.00540131
-0.00696869
-0.00807337
-0.00881277
-0.00918825
-0.00920789
-0.00889132
-0.00825925
-0.00734286
-0.00615498
-0.004754
-0.00307899
-0.00131901
-0.26831
-0.271624
-0.273624
-0.27552
-0.27726
-0.27866
-0.279623
-0.280051
-0.279844
-0.27891
-0.277186
-0.274615
-0.271156
-0.266782
-0.26149
-0.25529
-0.248174
-0.240043
-0.231336
-0.22202
-0.212176
-0.201918
-0.191373
-0.180676
-0.169961
-0.159359
-0.148993
-0.138977
-0.129413
-0.120391
-0.111986
-0.104261
-0.0972666
-0.0910416
-0.0856166
-0.0810275
-0.0773284
-0.0745017
-0.0722096
-0.0709275
-0.0704843
-0.0708211
-0.0720087
-0.0741727
-0.0771717
-0.0810027
-0.0856633
-0.0911363
-0.0974051
-0.104444
-0.112207
-0.120631
-0.129606
-0.138995
-0.148644
-0.158379
-0.168005
-0.177316
-0.186096
-0.194132
-0.201221
-0.20717
-0.211768
-0.214624
-0.215839
-0.215363
-0.213153
-0.209213
-0.203596
-0.196408
-0.187806
-0.177984
-0.167165
-0.155588
-0.143495
-0.131119
-0.118669
-0.106331
-0.0942542
-0.0825587
-0.0713323
-0.0606356
-0.0505063
-0.0409645
-0.0320167
-0.0236602
-0.0158875
-0.00868852
-0.00205464
0.00401913
0.00953133
0.014472
0.0188216
0.0225511
0.0256258
0.0280117
0.0296823
0.0306267
0.0308567
0.0304121
0.0293585
0.0277834
0.0257899
0.0234898
0.0209951
0.0184109
0.0158279
0.01331
0.0108823
0.00888384
0.00707616
0.00549849
0.00416846
0.00307948
0.00221366
0.00154158
0.00103481
0.000643589
0.000362211
7.65951e-05
-0.265087
-0.269741
-0.2731
-0.275653
-0.277721
-0.279402
-0.280668
-0.281397
-0.281382
-0.28062
-0.279028
-0.276536
-0.273094
-0.268667
-0.263241
-0.256822
-0.24943
-0.24111
-0.231982
-0.222134
-0.211669
-0.200707
-0.18938
-0.17783
-0.166199
-0.154629
-0.14326
-0.132221
-0.121633
-0.111602
-0.102225
-0.0935822
-0.0857436
-0.0787662
-0.0726969
-0.0675746
-0.0634277
-0.060249
-0.0580535
-0.0569309
-0.0567945
-0.0576533
-0.0595167
-0.0624
-0.0662751
-0.07112
-0.0769092
-0.0836054
-0.0911606
-0.0995093
-0.108572
-0.118252
-0.128416
-0.138912
-0.149568
-0.160191
-0.170577
-0.180509
-0.189769
-0.198149
-0.205472
-0.211656
-0.216937
-0.218952
-0.219812
-0.218998
-0.216386
-0.211983
-0.205858
-0.19814
-0.189002
-0.17866
-0.167349
-0.155319
-0.142817
-0.130073
-0.117296
-0.10466
-0.0923084
-0.0803506
-0.0688659
-0.0579071
-0.0475057
-0.0376762
-0.0284208
-0.0197333
-0.0116025
-0.00401474
0.0030436
0.00958384
0.0156132
0.0211327
0.0261361
0.0306079
0.034524
0.0378522
0.0405563
0.0426029
0.043969
0.044648
0.0446545
0.0440288
0.042835
0.0411542
0.0390776
0.0366999
0.0341168
0.0314185
0.0286864
0.0259359
0.0232655
0.0206897
0.0182142
0.0158328
0.0135252
0.0112602
0.00899346
0.00668416
0.00425227
0.00171129
-0.260177
-0.26411
-0.268601
-0.271956
-0.274274
-0.276139
-0.277704
-0.278696
-0.278951
-0.278385
-0.277061
-0.274843
-0.27164
-0.267417
-0.262167
-0.255896
-0.248631
-0.240421
-0.231341
-0.221478
-0.210935
-0.199831
-0.188299
-0.176477
-0.164509
-0.15254
-0.140713
-0.129165
-0.118028
-0.107421
-0.0974509
-0.0882152
-0.0797971
-0.0722678
-0.0656868
-0.0601052
-0.0555694
-0.0521204
-0.0498108
-0.0487621
-0.0487472
-0.0498
-0.0519491
-0.0551898
-0.0595048
-0.0648671
-0.071238
-0.0785646
-0.0867789
-0.0957958
-0.105513
-0.115809
-0.126541
-0.137543
-0.148632
-0.159608
-0.170257
-0.180356
-0.189675
-0.19798
-0.20499
-0.210445
-0.213911
-0.217419
-0.218545
-0.217616
-0.214781
-0.210118
-0.203737
-0.195791
-0.186471
-0.175999
-0.164615
-0.152565
-0.140088
-0.127404
-0.114706
-0.102156
-0.0898834
-0.0779884
-0.0665416
-0.0555905
-0.0451633
-0.0352728
-0.0259207
-0.0171008
-0.00880193
-0.00101007
0.00628934
0.0131099
0.0194624
0.0253541
0.0307864
0.0357544
0.0402457
0.0442401
0.0477098
0.0506217
0.0529408
0.0546359
0.0556881
0.0560942
0.0558702
0.0550514
0.0536916
0.0518527
0.0496199
0.0470831
0.0443608
0.0412605
0.0380667
0.034785
0.0314131
0.0279462
0.0243627
0.0206347
0.0167048
0.0125553
0.00802508
0.00329889
-0.254752
-0.257165
-0.261815
-0.26517
-0.267188
-0.269052
-0.27086
-0.272041
-0.272356
-0.271861
-0.270635
-0.268806
-0.266065
-0.262318
-0.257553
-0.251781
-0.24504
-0.237382
-0.228863
-0.219552
-0.209535
-0.198924
-0.187839
-0.176409
-0.164767
-0.153051
-0.141395
-0.129934
-0.1188
-0.108117
-0.0980005
-0.088557
-0.0798803
-0.072053
-0.0651448
-0.059212
-0.0543036
-0.050489
-0.0479253
-0.0463494
-0.046092
-0.046993
-0.0490361
-0.0522182
-0.0565125
-0.0618835
-0.0682845
-0.0756538
-0.0839141
-0.0929702
-0.10271
-0.113002
-0.123696
-0.134623
-0.145596
-0.156414
-0.166859
-0.176707
-0.185726
-0.193685
-0.200529
-0.206135
-0.21018
-0.212631
-0.21325
-0.212065
-0.209064
-0.204311
-0.197922
-0.190054
-0.180899
-0.170673
-0.159606
-0.147928
-0.135859
-0.123597
-0.111317
-0.0991641
-0.0872545
-0.0756782
-0.0645008
-0.0537676
-0.0435066
-0.0337328
-0.0244504
-0.0156563
-0.0073422
0.000503344
0.00789322
0.0148402
0.0213557
0.0274487
0.0331244
0.0383836
0.0432215
0.047627
0.0515826
0.0550644
0.0580437
0.0604886
0.0623676
0.0636541
0.0643316
0.0643993
0.0638678
0.0627111
0.0610167
0.0588313
0.0562802
0.0532694
0.0499182
0.0462499
0.042278
0.0380063
0.0334154
0.0284914
0.0231667
0.0174691
0.0111554
0.00458738
-0.246157
-0.248569
-0.253135
-0.255477
-0.2568
-0.258782
-0.260972
-0.2626
-0.263484
-0.263574
-0.262712
-0.260897
-0.258579
-0.255507
-0.251475
-0.246424
-0.2404
-0.233479
-0.225708
-0.217131
-0.207829
-0.197904
-0.187471
-0.176652
-0.165573
-0.154364
-0.143154
-0.132069
-0.121218
-0.11072
-0.100692
-0.0912464
-0.0824857
-0.0745025
-0.0673758
-0.0611766
-0.0559503
-0.0516126
-0.0490439
-0.0475405
-0.0470261
-0.0475388
-0.0492294
-0.0520839
-0.0560684
-0.061144
-0.0672573
-0.0743394
-0.0823047
-0.0910511
-0.100463
-0.110407
-0.12073
-0.131263
-0.141824
-0.152213
-0.162224
-0.171634
-0.18015
-0.187575
-0.194132
-0.199039
-0.202396
-0.204312
-0.204688
-0.203366
-0.200356
-0.195732
-0.189605
-0.182125
-0.173469
-0.163836
-0.153431
-0.142456
-0.131104
-0.119547
-0.107937
-0.0964053
-0.0850554
-0.0739715
-0.063217
-0.0528382
-0.0428666
-0.0333217
-0.0242132
-0.0155432
-0.00730873
0.000497355
0.00788413
0.0148615
0.021439
0.0276248
0.0334246
0.0388411
0.0438727
0.0485136
0.0527524
0.0565721
0.0599511
0.0628636
0.0652821
0.0671786
0.0685284
0.069317
0.0696199
0.0689828
0.067843
0.0661771
0.0639536
0.0611865
0.0578945
0.0540995
0.0498117
0.0450408
0.0397674
0.0340034
0.0276715
0.020865
0.0132717
0.00540187
-0.23542
-0.23937
-0.242891
-0.243444
-0.24412
-0.245869
-0.247657
-0.248953
-0.249821
-0.25025
-0.250082
-0.249023
-0.246913
-0.244361
-0.241365
-0.237471
-0.232712
-0.227183
-0.220875
-0.213789
-0.205975
-0.197519
-0.18851
-0.179045
-0.16923
-0.159176
-0.149002
-0.138828
-0.128774
-0.118949
-0.109448
-0.100374
-0.0918357
-0.083931
-0.0767492
-0.0703735
-0.0648414
-0.0603193
-0.056315
-0.0537052
-0.0524198
-0.0522864
-0.0531835
-0.0551672
-0.0582453
-0.0623846
-0.0675385
-0.0736449
-0.080623
-0.0883739
-0.0967812
-0.105716
-0.115036
-0.124582
-0.134181
-0.143652
-0.152803
-0.161421
-0.169303
-0.176563
-0.182542
-0.187275
-0.190387
-0.192009
-0.192212
-0.190976
-0.188265
-0.184119
-0.178627
-0.171915
-0.164129
-0.155436
-0.146007
-0.136013
-0.125618
-0.114976
-0.104221
-0.0934715
-0.0828283
-0.0723731
-0.0621711
-0.0522721
-0.0427126
-0.0335175
-0.0247022
-0.0162747
-0.0082372
-0.000587601
0.00667894
0.0135687
0.0200886
0.0262446
0.0320414
0.0374813
0.0425639
0.0472852
0.051637
0.0556066
0.0591767
0.062325
0.0650274
0.0672638
0.0690078
0.0701372
0.0706021
0.0708013
0.0702699
0.0690861
0.0672735
0.0648236
0.0617344
0.0580151
0.0536629
0.048693
0.0430821
0.0368739
0.0299812
0.0225687
0.0142849
0.00572944
-0.220665
-0.229457
-0.231744
-0.231511
-0.2317
-0.232819
-0.234344
-0.235801
-0.236936
-0.237611
-0.237742
-0.237254
-0.236063
-0.233963
-0.230848
-0.226826
-0.222294
-0.217224
-0.211498
-0.205082
-0.198016
-0.190372
-0.182226
-0.173665
-0.164779
-0.155667
-0.146428
-0.137166
-0.127983
-0.118981
-0.11026
-0.10192
-0.0940531
-0.0867454
-0.080083
-0.0741397
-0.0689542
-0.0646882
-0.0613405
-0.058993
-0.0576177
-0.0572409
-0.0578888
-0.0595666
-0.0622583
-0.065935
-0.0705536
-0.0760544
-0.0823603
-0.0893773
-0.0969944
-0.105084
-0.113503
-0.1221
-0.130718
-0.139209
-0.147439
-0.155366
-0.161811
-0.16761
-0.172344
-0.175885
-0.178201
-0.179245
-0.17896
-0.177328
-0.17437
-0.170151
-0.164766
-0.158331
-0.150981
-0.142861
-0.134119
-0.124901
-0.115346
-0.105582
-0.0957215
-0.0858655
-0.076098
-0.0664886
-0.0570931
-0.0479546
-0.0391054
-0.0305678
-0.0223567
-0.0144804
-0.00694256
0.000256293
0.00711801
0.0136457
0.019843
0.0257128
0.0312573
0.0364766
0.0413688
0.0459294
0.0501506
0.0540213
0.0575267
0.0606418
0.0633434
0.0656396
0.0674282
0.0687866
0.0696095
0.0699166
0.0696436
0.0687609
0.067236
0.0650442
0.0621611
0.0585811
0.0542868
0.0493002
0.0435948
0.0372456
0.0301708
0.0225815
0.0141727
0.00550491
-0.198646
-0.209802
-0.214146
-0.214489
-0.214253
-0.214791
-0.215971
-0.217194
-0.217996
-0.218176
-0.217691
-0.216557
-0.214799
-0.212499
-0.209822
-0.206945
-0.203536
-0.199358
-0.194477
-0.188995
-0.182982
-0.176505
-0.16963
-0.162426
-0.154966
-0.14733
-0.139601
-0.131862
-0.1242
-0.116697
-0.109435
-0.102492
-0.0959482
-0.0898997
-0.0844261
-0.0795342
-0.0753144
-0.0717833
-0.0690184
-0.0670595
-0.0659507
-0.0657146
-0.0663492
-0.0678438
-0.0701812
-0.0733319
-0.0772521
-0.0818834
-0.0871527
-0.0929722
-0.0992401
-0.105841
-0.112648
-0.119523
-0.126304
-0.132806
-0.138893
-0.144061
-0.149451
-0.153829
-0.157214
-0.159592
-0.160892
-0.161073
-0.160134
-0.158098
-0.155005
-0.150914
-0.145907
-0.140078
-0.133533
-0.126382
-0.118737
-0.110709
-0.102402
-0.0939126
-0.0853275
-0.0767235
-0.0681668
-0.059713
-0.0514083
-0.0432896
-0.0353862
-0.0277204
-0.0203088
-0.0131633
-0.00629217
0.000299582
0.00660876
0.0126334
0.0183719
0.023823
0.0289844
0.0338529
0.0384237
0.04269
0.0466428
0.0502712
0.053562
0.0565068
0.0591062
0.0612278
0.0629751
0.0642612
0.0650639
0.0653629
0.0651193
0.0643002
0.0628738
0.0608193
0.0581066
0.0547307
0.050662
0.0459296
0.0404954
0.0344587
0.0277402
0.0205817
0.012752
0.0047688
-0.179417
-0.191059
-0.196267
-0.197243
-0.197182
-0.197645
-0.198709
-0.199859
-0.200649
-0.200906
-0.200652
-0.199957
-0.198866
-0.197377
-0.195422
-0.192875
-0.189614
-0.185787
-0.181511
-0.176832
-0.171773
-0.166349
-0.160597
-0.154572
-0.148333
-0.141946
-0.135478
-0.128997
-0.122574
-0.116278
-0.110177
-0.104339
-0.0988214
-0.0936685
-0.0889484
-0.084747
-0.0811303
-0.0781268
-0.0757606
-0.0740689
-0.0730752
-0.0727858
-0.0731997
-0.0743112
-0.0761054
-0.0785537
-0.0816155
-0.0852377
-0.0893553
-0.0938911
-0.098756
-0.10385
-0.109065
-0.114282
-0.119386
-0.124279
-0.12879
-0.133056
-0.136784
-0.139822
-0.142103
-0.143562
-0.144152
-0.14386
-0.142691
-0.140659
-0.137794
-0.134137
-0.129747
-0.12469
-0.119044
-0.112888
-0.106307
-0.0993834
-0.0921972
-0.084824
-0.0773339
-0.0697899
-0.0622481
-0.0547575
-0.04736
-0.040091
-0.0329797
-0.0260501
-0.0193212
-0.0128082
-0.00652257
-0.000473565
0.00533169
0.0108874
0.0161884
0.0212299
0.0260072
0.0305147
0.0347461
0.0386937
0.0423484
0.0456991
0.0487304
0.0514259
0.0537657
0.0557631
0.057346
0.0584987
0.0592038
0.0594349
0.0591604
0.0583549
0.0569877
0.0550425
0.0524898
0.0493336
0.0455445
0.0411665
0.03616
0.0306446
0.0245407
0.0181103
0.0111418
0.00414046
-0.163178
-0.173904
-0.179272
-0.180824
-0.181204
-0.18186
-0.182973
-0.184159
-0.185041
-0.185454
-0.185394
-0.184904
-0.183994
-0.182629
-0.180778
-0.178448
-0.175693
-0.172591
-0.169129
-0.16533
-0.161164
-0.156669
-0.15189
-0.14688
-0.141691
-0.136376
-0.130991
-0.125592
-0.120235
-0.114978
-0.109877
-0.10499
-0.100381
-0.0960906
-0.0921539
-0.0886357
-0.0855774
-0.0830143
-0.0809695
-0.0794646
-0.0785149
-0.078129
-0.078309
-0.0790481
-0.0803299
-0.0821281
-0.0844069
-0.0871211
-0.090216
-0.0936278
-0.0972849
-0.10111
-0.105016
-0.108914
-0.112721
-0.116329
-0.119669
-0.122644
-0.125168
-0.127172
-0.128589
-0.129367
-0.129472
-0.128884
-0.127595
-0.125614
-0.122958
-0.119662
-0.115767
-0.111325
-0.106395
-0.101039
-0.0953206
-0.089305
-0.083055
-0.0766304
-0.0700874
-0.0634774
-0.0568469
-0.0502372
-0.0436845
-0.0372202
-0.0308713
-0.0246605
-0.018607
-0.0127269
-0.00703362
-0.00153855
0.00374865
0.00881956
0.0136665
0.0182824
0.0226599
0.0267916
0.0306691
0.0342835
0.0376245
0.04068
0.0434379
0.0458871
0.0480032
0.0497855
0.0511908
0.0522055
0.0528088
0.0529782
0.0526876
0.0519175
0.0506416
0.0488498
0.0465168
0.0436542
0.0402346
0.0363118
0.0318435
0.0269629
0.021574
0.0159603
0.00985132
0.00378666
-0.14834
-0.158228
-0.163599
-0.165597
-0.166424
-0.167346
-0.168579
-0.169836
-0.170808
-0.171345
-0.171435
-0.171111
-0.170399
-0.169307
-0.167844
-0.166035
-0.163893
-0.161413
-0.158583
-0.155395
-0.151917
-0.148177
-0.144213
-0.14006
-0.135759
-0.131352
-0.126883
-0.122398
-0.117946
-0.113572
-0.109323
-0.105241
-0.101379
-0.0977756
-0.0944657
-0.0914858
-0.0888665
-0.0866395
-0.0848286
-0.0834513
-0.0825201
-0.0820409
-0.082012
-0.0824248
-0.0832636
-0.0845055
-0.0861201
-0.0880694
-0.0903085
-0.0927855
-0.0954426
-0.0982162
-0.10104
-0.103844
-0.106549
-0.109093
-0.111396
-0.113404
-0.115059
-0.116302
-0.11708
-0.117353
-0.117092
-0.116278
-0.114905
-0.11298
-0.110517
-0.10754
-0.104081
-0.100178
-0.0958731
-0.0912124
-0.0862437
-0.0810156
-0.0755762
-0.0699721
-0.0642477
-0.0584449
-0.0526024
-0.0467555
-0.0409361
-0.0351727
-0.0294906
-0.0239121
-0.0184566
-0.0131411
-0.00798034
-0.00298721
0.00182683
0.0064515
0.0108773
0.0150953
0.0190967
0.0228728
0.0264145
0.0297125
0.0327566
0.0355364
0.0380407
0.0402551
0.0421614
0.0437487
0.0449964
0.0458886
0.046407
0.0465344
0.0462508
0.0455424
0.0443891
0.0427867
0.0407149
0.0381902
0.0351874
0.0317644
0.0278727
0.0236516
0.0189766
0.0141488
0.0088098
0.00355307
-0.135054
-0.144222
-0.14948
-0.151761
-0.152936
-0.154101
-0.155466
-0.156809
-0.157876
-0.158544
-0.158806
-0.158699
-0.158254
-0.157491
-0.156414
-0.155023
-0.153317
-0.151298
-0.148975
-0.146368
-0.143511
-0.140436
-0.137172
-0.133747
-0.130198
-0.126554
-0.122853
-0.119131
-0.115429
-0.111784
-0.108236
-0.104823
-0.101573
-0.0985335
-0.0957293
-0.0931904
-0.0909414
-0.0890049
-0.0873993
-0.086138
-0.0852294
-0.0846764
-0.0844763
-0.0846214
-0.0850979
-0.0858863
-0.0869612
-0.0882911
-0.0898391
-0.0915633
-0.0934177
-0.0953527
-0.0973142
-0.099248
-0.101096
-0.102807
-0.104328
-0.105608
-0.106598
-0.107253
-0.107537
-0.107418
-0.106875
-0.105895
-0.104471
-0.102607
-0.100312
-0.097601
-0.0944973
-0.0910275
-0.0872227
-0.0831175
-0.0787481
-0.0741522
-0.0693676
-0.0644319
-0.0593813
-0.0542504
-0.049072
-0.0438762
-0.0386912
-0.0335424
-0.0284526
-0.0234428
-0.0185313
-0.0137347
-0.00906793
-0.00454418
-0.000175575
0.0040268
0.00805264
0.0118922
0.015536
0.0189747
0.022199
0.0251992
0.0279654
0.0304872
0.0327533
0.0347528
0.0364702
0.0378931
0.0390071
0.0398004
0.0402586
0.0403685
0.0401153
0.03949
0.0384781
0.0370797
0.0352792
0.0330958
0.0305058
0.0275674
0.0242264
0.0206212
0.0166045
0.0124819
0.00783644
0.00328866
-0.123448
-0.131817
-0.136856
-0.139303
-0.140735
-0.142099
-0.143587
-0.145021
-0.146193
-0.147004
-0.147449
-0.147563
-0.147375
-0.1469
-0.146139
-0.145092
-0.143762
-0.14216
-0.140302
-0.138207
-0.135899
-0.133401
-0.130736
-0.127931
-0.125008
-0.122
-0.118939
-0.115855
-0.112781
-0.109748
-0.106787
-0.103928
-0.101199
-0.0986278
-0.0962419
-0.0940652
-0.092118
-0.0904176
-0.0889778
-0.0878086
-0.0869161
-0.0863019
-0.0859636
-0.0858938
-0.0860808
-0.0865078
-0.0871538
-0.087993
-0.0889958
-0.0901289
-0.091355
-0.0926338
-0.0939248
-0.0951846
-0.096371
-0.0974401
-0.0983491
-0.0990582
-0.0995309
-0.0997344
-0.0996404
-0.0992259
-0.0984732
-0.0973705
-0.0959122
-0.0940985
-0.0919354
-0.0894341
-0.0866108
-0.0834855
-0.0800819
-0.0764262
-0.0725465
-0.0684722
-0.0642331
-0.0598593
-0.05538
-0.0508236
-0.0462173
-0.0415868
-0.0369561
-0.0323476
-0.0277818
-0.0232778
-0.0188529
-0.0145228
-0.0103021
-0.00620413
-0.00224101
0.00157587
0.00523586
0.00872884
0.012045
0.0151749
0.0181091
0.0208381
0.0233523
0.025642
0.0276978
0.0295094
0.0310642
0.0323511
0.0333593
0.0340796
0.0345009
0.0346139
0.0344078
0.0338774
0.0330125
0.0318161
0.0302763
0.0284131
0.0262049
0.0237069
0.0208635
0.0178052
0.0143778
0.0108738
0.00686564
0.00295725
-0.113197
-0.120794
-0.125581
-0.128121
-0.129743
-0.131265
-0.132859
-0.134379
-0.135653
-0.136598
-0.137211
-0.137524
-0.137562
-0.137338
-0.136855
-0.136116
-0.135129
-0.133905
-0.132458
-0.130806
-0.128964
-0.126953
-0.124793
-0.122506
-0.120114
-0.117644
-0.11512
-0.112568
-0.110016
-0.10749
-0.105014
-0.102615
-0.100315
-0.0981373
-0.096103
-0.0942307
-0.0925368
-0.091035
-0.0897362
-0.0886483
-0.0877757
-0.0871194
-0.0866767
-0.0864413
-0.086403
-0.0865482
-0.0868595
-0.0873159
-0.0878927
-0.0885642
-0.0893005
-0.09007
-0.0908404
-0.0915781
-0.0922486
-0.0928179
-0.0932535
-0.093525
-0.093604
-0.0934647
-0.0930849
-0.0924461