/*--------------------------------*- C++ -*----------------------------------*\
  =========                 |
  \\      /  F ield         | OpenFOAM: The Open Source CFD Toolbox
   \\    /   O peration     | Website:  https://openfoam.org
    \\  /    A nd           | Version:  7
     \\/     M anipulation  |
\*---------------------------------------------------------------------------*/
FoamFile
{
    version     2.0;
    format      ascii;
    class       volVectorField;
    location    "100";
    object      U;
}
// * * * * * * * * * * * * * * * * * * * * * * * * * * * * * * * * * * * * * //

dimensions      [0 1 -1 0 0 0 0];

internalField   nonuniform List<vector> 
14000
(
(-0.00756016 0.0117549 -5.07772e-22)
(-0.0294692 0.0229225 1.00256e-21)
(-0.0606309 0.028047 6.44845e-20)
(-0.0894334 0.0306169 1.12435e-20)
(-0.11521 0.0325938 2.18755e-20)
(-0.137766 0.0346703 -1.26605e-20)
(-0.15688 0.0365917 -2.35355e-20)
(-0.171608 0.0371983 2.29028e-20)
(-0.184872 0.0375625 2.2547e-20)
(-0.189505 0.0328065 1.76392e-20)
(-0.00878404 0.0212678 -8.18915e-20)
(-0.0303011 0.0398498 5.41396e-20)
(-0.0591493 0.0468616 -7.36393e-20)
(-0.0849777 0.0489724 3.94596e-21)
(-0.107196 0.0495168 -5.25411e-20)
(-0.125603 0.0498421 6.49582e-21)
(-0.140452 0.0500211 3.38967e-20)
(-0.148677 0.0471903 -1.49941e-19)
(-0.158107 0.0479729 3.73162e-20)
(-0.153633 0.0359672 6.80903e-23)
(-0.0108942 0.0291837 1.52455e-19)
(-0.0320001 0.0543771 -1.35117e-20)
(-0.057145 0.0632518 1.02337e-19)
(-0.0779194 0.0650134 -9.54621e-21)
(-0.0938896 0.0642306 -1.12021e-19)
(-0.104532 0.0628197 8.28691e-20)
(-0.112017 0.0619672 -3.57565e-20)
(-0.106385 0.0552234 3.60478e-20)
(-0.109538 0.0586909 -1.11459e-19)
(-0.0853801 0.0370207 1.61081e-19)
(-0.0136596 0.0350166 1.78691e-20)
(-0.0344786 0.0655736 -2.42127e-19)
(-0.0548591 0.0761006 -1.43873e-19)
(-0.068745 0.0775407 7.56514e-20)
(-0.0760749 0.0755037 9.02347e-20)
(-0.0749771 0.0723617 -1.5017e-19)
(-0.072435 0.0706041 6.45519e-20)
(-0.0440838 0.0609136 4.32708e-20)
(-0.0386091 0.0664828 1.77196e-19)
(0.0197785 0.0396114 -2.33355e-19)
(-0.0168549 0.0386001 -7.66969e-20)
(-0.0376211 0.0728351 1.19106e-19)
(-0.0525089 0.0844876 3.4812e-19)
(-0.057874 0.0854459 -1.73632e-19)
(-0.0543706 0.0820636 1.6126e-19)
(-0.0377503 0.0778665 2.726e-19)
(-0.021257 0.0728086 -7.67631e-21)
(0.0382984 0.0635094 7.901e-21)
(0.053095 0.0677249 -2.59444e-19)
(0.172143 0.0469262 1.27787e-19)
(-0.0203236 0.0400907 -1.81247e-19)
(-0.0412385 0.0759389 1.0713e-19)
(-0.050052 0.087814 -4.84997e-19)
(-0.045232 0.0879164 2.36002e-19)
(-0.0278668 0.0829364 3.31571e-20)
(0.00783629 0.0783674 -3.06241e-19)
(0.0441513 0.067424 -9.09618e-20)
(0.148897 0.0647061 9.19104e-20)
(0.166457 0.0584664 1.77616e-19)
(0.382144 0.0529383 -9.96848e-20)
(-0.0240086 0.0398927 -1.96914e-20)
(-0.0449474 0.0750322 -3.36558e-19)
(-0.0467612 0.0859299 3.31945e-19)
(-0.0294158 0.0845604 -2.38265e-19)
(0.00639439 0.077883 5.91164e-20)
(0.0679166 0.073647 1.99185e-19)
(0.134887 0.0568387 -3.6493e-19)
(0.29277 0.066182 -1.55526e-19)
(0.324718 0.0469962 1.34043e-19)
(0.638954 0.0580026 8.13149e-20)
(-0.0279262 0.0385246 1.9815e-19)
(-0.048021 0.0706207 5.80208e-19)
(-0.0407132 0.0791748 -5.59006e-19)
(-0.00642695 0.0757988 1.36518e-19)
(0.0557843 0.0680261 3.41269e-19)
(0.153359 0.0651517 -1.73568e-19)
(0.271133 0.0502361 -5.56854e-20)
(0.469707 0.0657078 -2.10946e-19)
(0.556573 0.0507477 2.5136e-19)
(0.896709 0.0734643 -1.83096e-19)
(-0.0320044 0.0364234 -3.62984e-19)
(-0.0491603 0.0633789 1.00186e-19)
(-0.0282748 0.0684358 2.08842e-19)
(0.031098 0.0632697 -1.03682e-19)
(0.132636 0.0566967 -3.50114e-19)
(0.279618 0.0567218 4.15142e-19)
(0.461183 0.0576665 2.65738e-19)
(0.675924 0.0696556 2.42914e-19)
(0.835721 0.0760842 -2.00108e-19)
(1.10114 0.0964506 1.54231e-19)
(-0.0359009 0.0337943 -8.9826e-20)
(-0.0461885 0.0539533 -2.92549e-19)
(-0.0038281 0.0551532 -1.7322e-19)
(0.0937583 0.0500939 2.03197e-19)
(0.250441 0.0497674 3.89363e-20)
(0.456463 0.0583695 -2.44888e-19)
(0.684209 0.0780323 2.87313e-19)
(0.896035 0.0897649 -4.06592e-19)
(1.0715 0.114122 -2.3036e-19)
(1.21525 0.113229 8.2644e-20)
(-0.0389027 0.0306166 2.19725e-19)
(-0.0359514 0.0428813 3.08044e-19)
(0.0400248 0.0413226 1.27841e-19)
(0.192948 0.0411795 1.77941e-19)
(0.415042 0.0540701 -1.02994e-19)
(0.668306 0.0781803 -2.64442e-19)
(0.900802 0.107319 1.06391e-19)
(1.08265 0.123077 1.31621e-19)
(1.202 0.144166 4.42278e-19)
(1.24724 0.114309 -2.62461e-19)
(-0.0399537 0.0267274 3.27031e-19)
(-0.014354 0.0305971 -3.99036e-20)
(0.111553 0.0299772 2.94671e-19)
(0.334956 0.0430483 -1.30807e-19)
(0.613177 0.0744275 4.0014e-19)
(0.874847 0.111425 1.59224e-19)
(1.07114 0.140443 1.97926e-19)
(1.19376 0.153653 -3.24905e-19)
(1.246 0.154868 -1.33774e-19)
(1.27036 0.138271 1.28707e-19)
(-0.0376758 0.0218583 2.32873e-20)
(0.0234998 0.0178176 -2.88125e-19)
(0.217791 0.0260555 -2.73387e-19)
(0.512189 0.0608169 -6.89782e-20)
(0.811269 0.108342 -1.08778e-19)
(1.03849 0.147687 1.19376e-19)
(1.17589 0.169298 -4.94564e-19)
(1.24015 0.171502 3.32457e-19)
(1.26321 0.168602 -2.4938e-21)
(1.26692 0.147798 -3.95728e-19)
(-0.0303144 0.0158234 -4.66186e-19)
(0.0830446 0.00657921 -9.50524e-20)
(0.359559 0.0355859 -1.01052e-20)
(0.699851 0.0934811 2.9315e-20)
(0.976121 0.147028 1.54031e-19)
(1.14626 0.179592 -4.81497e-19)
(1.22817 0.189861 4.72679e-19)
(1.2582 0.186857 -1.04156e-19)
(1.26093 0.176257 6.19257e-20)
(1.25486 0.157709 1.01931e-19)
(-0.0157417 0.00878112 1.24628e-20)
(0.168895 0.00155484 3.82252e-19)
(0.524951 0.0615241 9.70588e-20)
(0.869007 0.134243 -5.21135e-20)
(1.09485 0.18359 -4.3695e-20)
(1.20836 0.20523 2.80471e-19)
(1.25111 0.206975 -1.22651e-21)
(1.25835 0.198168 2.06018e-19)
(1.25221 0.184698 -6.42582e-20)
(1.24538 0.167988 -2.91054e-21)
(0.0088551 0.00155209 7.61558e-20)
(0.281602 0.00950964 -1.3862e-19)
(0.691415 0.100752 1.09156e-19)
(1.00372 0.176702 1.44133e-19)
(1.17228 0.216055 -9.45446e-20)
(1.24004 0.226974 -1.54242e-20)
(1.25575 0.221214 -2.74443e-19)
(1.25131 0.209098 -1.80505e-19)
(1.24161 0.192838 2.20969e-19)
(1.23118 0.176937 -1.39263e-19)
(0.0463507 -0.00359819 9.85158e-20)
(0.414141 0.0351368 1.75632e-19)
(0.839314 0.14749 1.23345e-19)
(1.10205 0.217991 -1.8627e-19)
(1.21811 0.245122 2.2011e-19)
(1.25163 0.245978 -1.16944e-19)
(1.25107 0.234719 -2.93578e-20)
(1.24032 0.219372 -1.0582e-20)
(1.22841 0.201281 -6.25786e-20)
(1.21846 0.186559 2.00279e-20)
(0.0980493 -0.00306282 2.49623e-19)
(0.552806 0.0773279 -1.38788e-19)
(0.95989 0.197557 8.68501e-20)
(1.16836 0.257238 1.01496e-19)
(1.2409 0.271511 -7.25266e-20)
(1.25091 0.263708 1.10062e-19)
(1.24064 0.247717 4.01926e-20)
(1.22691 0.229747 5.35748e-20)
(1.21489 0.210197 3.42239e-20)
(1.20373 0.195265 5.47041e-20)
(0.162649 0.00673848 -9.19043e-20)
(0.683219 0.13131 -1.34852e-19)
(1.0519 0.248689 -1.05659e-19)
(1.2085 0.294166 -1.00258e-19)
(1.2474 0.296027 -4.41835e-20)
(1.24205 0.280693 4.85848e-20)
(1.22672 0.26071 -2.39913e-20)
(1.2119 0.240099 -1.7343e-22)
(1.19958 0.219065 -2.21733e-20)
(1.1888 0.203601 4.06885e-21)
(0.236175 0.0278053 2.4593e-20)
(0.79539 0.192277 -5.35146e-21)
(1.11709 0.299523 2.38465e-20)
(1.22796 0.328914 1.86679e-20)
(1.24221 0.319152 1.40121e-20)
(1.22769 0.297309 -3.76272e-20)
(1.21001 0.273539 1.74549e-20)
(1.19502 0.250289 -1.70679e-20)
(1.18339 0.227757 -5.46289e-21)
(1.17288 0.210958 -8.91651e-21)
(0.31297 0.0600392 1.26937e-21)
(0.884884 0.256591 -7.55143e-22)
(1.15815 0.349043 -5.18442e-21)
(1.23117 0.361644 6.22112e-20)
(1.22843 0.341166 -1.69025e-20)
(1.20901 0.313452 -1.59519e-20)
(1.19081 0.286034 2.08947e-21)
(1.17648 0.26004 -1.75353e-21)
(1.16554 0.23571 -6.407e-21)
(1.15596 0.217366 -1.34348e-20)
(0.386922 0.101786 -1.0575e-19)
(0.950845 0.321704 2.00611e-20)
(1.17812 0.396406 -1.70992e-19)
(1.22142 0.392291 -6.00289e-20)
(1.20791 0.362009 -1.8379e-20)
(1.18665 0.328874 -2.363e-21)
(1.16917 0.297811 -1.23023e-20)
(1.15606 0.269012 -6.81417e-21)
(1.14638 0.242819 6.1917e-21)
(1.13749 0.222657 9.23865e-21)
(0.452472 0.15072 1.82442e-19)
(0.993747 0.385555 -9.3266e-20)
(1.17984 0.440698 1.29953e-19)
(1.20107 0.420582 5.19901e-20)
(1.18179 0.38139 -1.83849e-20)
(1.16091 0.343115 6.14184e-20)
(1.14515 0.308425 -1.54393e-20)
(1.13393 0.276893 1.80371e-20)
(1.1256 0.249017 3.43388e-21)
(1.11738 0.226794 6.83446e-21)
(0.505359 0.204248 -1.11772e-19)
(1.01492 0.446365 4.24166e-19)
(1.16585 0.48107 -7.82619e-20)
(1.17183 0.446062 -4.39905e-20)
(1.15082 0.398774 9.31652e-20)
(1.13208 0.355633 -3.89157e-20)
(1.1189 0.317391 -1.38227e-20)
(1.11005 0.283337 -8.797e-21)
(1.10318 0.254214 -1.04722e-21)
(1.09639 0.229708 -1.00178e-20)
(0.542919 0.259596 -2.02892e-19)
(1.01609 0.502486 -2.27026e-19)
(1.13819 0.51659 1.3924e-19)
(1.13509 0.468063 3.83941e-20)
(1.11569 0.413481 -4.66451e-20)
(1.10054 0.365872 -8.2679e-21)
(1.09064 0.324332 1.94023e-20)
(1.08436 0.28812 4.81131e-21)
(1.07916 0.257787 -1.79135e-20)
(1.07478 0.231244 -3.00935e-21)
(0.564048 0.313869 7.04464e-20)
(0.999178 0.552352 2.93122e-19)
(1.09865 0.546218 -5.8339e-20)
(1.09227 0.485754 4.71147e-21)
(1.07704 0.424782 -3.87383e-21)
(1.06646 0.37323 4.75417e-21)
(1.06041 0.328943 1.65455e-20)
(1.05698 0.290895 -9.81212e-21)
(1.05408 0.259467 1.78732e-20)
(1.05258 0.231311 -1.85163e-20)
(0.568975 0.364286 -5.2078e-19)
(0.965952 0.594328 2.82873e-20)
(1.04931 0.56895 -1.09358e-19)
(1.04445 0.498093 1.68712e-20)
(1.03523 0.432033 -2.90679e-21)
(1.03009 0.377186 5.35511e-20)
(1.02852 0.330734 -4.5191e-20)
(1.02844 0.29134 2.68941e-20)
(1.02851 0.258964 -2.57865e-20)
(1.03053 0.229853 -8.67352e-20)
(0.558781 0.408561 2.63623e-19)
(0.917976 0.626315 -2.4901e-19)
(0.992474 0.58392 -1.79049e-20)
(0.99259 0.504285 -7.80614e-21)
(0.99086 0.434453 8.66421e-20)
(0.991972 0.3772 -5.97038e-21)
(0.995364 0.329289 6.88895e-20)
(0.999286 0.28905 7.98065e-21)
(1.00332 0.256098 5.349e-21)
(1.00947 0.22696 1.21924e-19)
(0.534589 0.444987 1.47884e-19)
(0.857773 0.646745 -2.1821e-20)
(0.930157 0.589865 -6.27463e-21)
(0.937787 0.503883 6.99568e-20)
(0.944658 0.431506 -2.84604e-20)
(0.952595 0.372777 -1.0613e-19)
(0.961445 0.324076 -6.8581e-20)
(0.970133 0.283435 6.98479e-21)
(0.979199 0.25034 9.51774e-20)
(0.989764 0.222979 -7.77182e-20)
(0.497607 0.470977 -5.90311e-21)
(0.789369 0.655254 -2.43778e-20)
(0.864216 0.585875 -9.78302e-20)
(0.881186 0.496317 5.51269e-21)
(0.897423 0.42276 1.47407e-19)
(0.912602 0.363571 -4.71347e-20)
(0.92731 0.314761 1.7674e-19)
(0.941386 0.273925 -2.44212e-19)
(0.956052 0.24042 -1.65206e-19)
(0.970244 0.216713 -3.53036e-20)
(0.450219 0.483327 2.79346e-20)
(0.715312 0.650321 5.22345e-20)
(0.796198 0.571838 3.25457e-20)
(0.823982 0.481146 -5.24998e-20)
(0.850038 0.407931 -2.23437e-19)
(0.872724 0.349398 2.11777e-19)
(0.893611 0.301364 8.20202e-20)
(0.913273 0.260937 1.06522e-19)
(0.933202 0.225898 3.0449e-19)
(0.948239 0.199518 -7.38695e-20)
(0.396571 0.481661 1.2824e-19)
(0.638601 0.631506 -2.27096e-20)
(0.727988 0.547561 -5.78047e-20)
(0.767439 0.458112 1.10991e-19)
(0.803471 0.386828 1.99052e-19)
(0.833804 0.330113 -4.71803e-19)
(0.861062 0.283867 -7.37682e-20)
(0.886019 0.245456 -1.91875e-19)
(0.90906 0.213016 3.89389e-20)
(0.923629 0.188024 -1.39626e-19)
(0.339834 0.465602 -2.6123e-19)
(0.561901 0.598475 -1.19604e-19)
(0.661383 0.513108 3.96839e-19)
(0.712847 0.427217 -2.27928e-19)
(0.758722 0.359459 -3.28638e-19)
(0.796639 0.305668 3.08444e-19)
(0.830223 0.261778 -2.83583e-19)
(0.86032 0.225078 1.40764e-19)
(0.88671 0.19398 -1.75149e-19)
(0.903428 0.170264 2.77227e-19)
(0.283145 0.43558 -1.07736e-19)
(0.488013 0.551603 5.89298e-19)
(0.598192 0.46875 -6.15055e-19)
(0.661501 0.388682 2.55847e-20)
(0.716804 0.326072 2.01125e-19)
(0.761931 0.276572 -1.26275e-20)
(0.801254 0.236437 4.33656e-19)
(0.835527 0.203103 -3.78233e-19)
(0.864673 0.174845 2.75574e-19)
(0.884521 0.152649 -1.86404e-19)
(0.229329 0.392619 -1.76477e-19)
(0.419452 0.491625 9.66039e-20)
(0.540144 0.415002 2.65569e-19)
(0.614669 0.342905 3.05468e-19)
(0.67876 0.286881 -7.01343e-20)
(0.730639 0.242634 2.89741e-19)
(0.775303 0.206767 2.45391e-20)
(0.813415 0.177027 3.12233e-20)
(0.845264 0.152012 -1.1126e-19)
(0.868186 0.132476 -6.04131e-21)
(0.180795 0.338293 5.32762e-19)
(0.358479 0.419742 -3.69923e-19)
(0.488898 0.352651 -4.94345e-19)
(0.573514 0.290598 2.78138e-20)
(0.645394 0.242634 -1.45454e-19)
(0.703172 0.204865 1.21487e-19)
(0.752389 0.174332 -4.4392e-19)
(0.793774 0.149015 1.30887e-19)
(0.828228 0.127621 3.7257e-19)
(0.854273 0.110736 -1.80266e-19)
(0.139425 0.274289 7.27365e-20)
(0.307117 0.337712 4.60447e-19)
(0.446042 0.282769 3.32497e-19)
(0.539183 0.232551 -3.11056e-19)
(0.61766 0.193825 1.93943e-19)
(0.680409 0.163366 -8.78846e-20)
(0.733401 0.138791 -5.7237e-20)
(0.777472 0.118467 -2.72388e-20)
(0.814174 0.101292 -1.15262e-19)
(0.843015 0.0876098 2.12845e-19)
(0.106773 0.202248 -3.57398e-19)
(0.267029 0.247574 -4.16598e-19)
(0.412786 0.206815 -6.72361e-21)
(0.512558 0.169882 2.96638e-19)
(0.59617 0.141442 -5.44764e-20)
(0.662773 0.119095 -5.87659e-20)
(0.718662 0.101078 8.54138e-20)
(0.764803 0.0861755 -4.61809e-20)
(0.803323 0.07355 -3.68024e-20)
(0.834492 0.0634091 3.82902e-20)
(0.0841842 0.124208 5.19651e-20)
(0.239526 0.151503 -6.83667e-20)
(0.390065 0.1264 2.95033e-19)
(0.494376 0.103773 -7.2346e-20)
(0.581506 0.0863571 1.36426e-19)
(0.650741 0.0726786 -3.66524e-20)
(0.708593 0.0616585 -5.71491e-20)
(0.756137 0.0525451 9.14957e-20)
(0.795927 0.0448028 1.27503e-20)
(0.828775 0.0385368 -3.29363e-20)
(0.0726119 0.0424692 -1.40531e-21)
(0.2255 0.0518017 1.84809e-21)
(0.378501 0.0432669 1.37168e-19)
(0.48512 0.0355667 -6.85332e-20)
(0.574037 0.0296363 3.14329e-20)
(0.644609 0.0249722 -1.66495e-20)
(0.703454 0.0212107 1.98412e-20)
(0.751706 0.018095 -2.60491e-20)
(0.79215 0.0154398 -1.58697e-20)
(0.825887 0.0132784 5.39096e-24)
(0.0725454 -0.0405228 1.41026e-21)
(0.225403 -0.0491274 -1.84907e-21)
(0.378406 -0.0407842 -1.3721e-19)
(0.485034 -0.0333509 -2.446e-20)
(0.573958 -0.0276398 -4.14585e-20)
(0.644534 -0.0231708 2.21848e-20)
(0.703382 -0.0195822 3.51748e-20)
(0.751636 -0.0166258 -3.23254e-20)
(0.792083 -0.0141174 -2.83364e-20)
(0.825826 -0.0120844 -1.94517e-20)
(0.083986 -0.122277 1.66476e-19)
(0.239237 -0.148844 -1.18315e-19)
(0.389783 -0.12393 1.68449e-19)
(0.494119 -0.101568 -2.31671e-21)
(0.581268 -0.0843695 9.8187e-20)
(0.650519 -0.0708844 -8.0613e-21)
(0.708382 -0.0600358 -4.96453e-20)
(0.755934 -0.0510797 2.00641e-19)
(0.795736 -0.0434806 -4.70716e-20)
(0.828607 -0.0373372 -1.24468e-21)
(0.106447 -0.200346 -3.57267e-19)
(0.26655 -0.244944 4.15902e-20)
(0.412318 -0.204371 -2.26921e-19)
(0.512132 -0.167698 2.10097e-20)
(0.595776 -0.139472 1.95526e-19)
(0.662404 -0.117316 -1.32134e-19)
(0.718311 -0.0994697 5.2455e-20)
(0.764466 -0.0847249 -4.89331e-20)
(0.803005 -0.0722428 1.299e-19)
(0.83421 -0.0622252 -1.72764e-19)
(0.138976 -0.27243 -5.61193e-21)
(0.306454 -0.335127 5.11619e-19)
(0.445392 -0.280365 2.7883e-19)
(0.538591 -0.230399 -1.35669e-19)
(0.617112 -0.191882 -1.59636e-19)
(0.679897 -0.161612 2.39116e-19)
(0.732914 -0.137205 -9.17125e-20)
(0.777004 -0.117037 -5.73473e-20)
(0.813731 -0.100004 -1.91199e-19)
(0.842621 -0.0864428 2.43898e-19)
(0.180229 -0.336487 1.5681e-19)
(0.357639 -0.417219 -2.26836e-19)
(0.488072 -0.350299 -6.25807e-19)
(0.572762 -0.288486 2.97536e-19)
(0.644696 -0.240725 -2.65104e-19)
(0.702518 -0.203137 -3.74525e-19)
(0.751768 -0.17277 2.8983e-20)
(0.793176 -0.147607 -1.21326e-20)
(0.827661 -0.126356 2.7252e-19)
(0.853763 -0.109595 -1.27074e-19)
(0.228649 -0.390876 2.65305e-19)
(0.418446 -0.489182 -1.51813e-19)
(0.539151 -0.412713 7.72148e-19)
(0.613765 -0.340842 -3.61036e-19)
(0.677917 -0.285014 -3.5271e-20)
(0.729848 -0.240946 4.10893e-19)
(0.77455 -0.205245 1.26492e-19)
(0.812691 -0.175661 -1.0527e-19)
(0.844574 -0.150787 -1.76016e-19)
(0.867561 -0.131372 9.45321e-20)
(0.282361 -0.433923 -4.96552e-21)
(0.48685 -0.549256 4.04381e-19)
(0.597047 -0.466531 -4.43284e-19)
(0.660452 -0.386673 3.04245e-19)
(0.715822 -0.32425 -7.49536e-20)
(0.761006 -0.274921 -2.46055e-19)
(0.800373 -0.234943 4.04336e-19)
(0.83468 -0.201759 1.55816e-19)
(0.863858 -0.173641 -1.35342e-19)
(0.883775 -0.151576 -6.82206e-20)
(0.338961 -0.464052 -1.35135e-19)
(0.560597 -0.596235 -6.36568e-19)
(0.660097 -0.510965 6.18209e-19)
(0.711661 -0.425268 -1.6445e-19)
(0.757606 -0.357687 -3.58953e-19)
(0.795583 -0.304062 1.72608e-19)
(0.829215 -0.260332 3.50887e-20)
(0.859349 -0.223789 1.89329e-19)
(0.885774 -0.192846 -2.18483e-19)
(0.902563 -0.169258 1.45945e-19)
(0.395633 -0.480237 2.33507e-19)
(0.637174 -0.629384 -4.84901e-20)
(0.726575 -0.545496 -2.19062e-19)
(0.766126 -0.456224 8.86681e-20)
(0.802227 -0.385108 3.42096e-19)
(0.832621 -0.328553 -3.78632e-19)
(0.859929 -0.282461 -2.44063e-19)
(0.884928 -0.244199 -1.98364e-19)
(0.908004 -0.2119 1.59927e-19)
(0.922639 -0.187029 -1.19613e-19)
(0.449244 -0.482049 -5.45212e-20)
(0.713788 -0.648325 9.04039e-20)
(0.794673 -0.569853 5.44198e-20)
(0.822552 -0.47932 -1.44399e-19)
(0.848675 -0.406262 -2.36491e-20)
(0.871418 -0.347883 2.10425e-19)
(0.892355 -0.300001 -2.16955e-19)
(0.912062 -0.259728 3.0695e-19)
(0.932029 -0.22485 1.52518e-19)
(0.947127 -0.198617 -5.25693e-20)
(0.496627 -0.469854 -1.95959e-21)
(0.787772 -0.653384 -2.56118e-20)
(0.862596 -0.583968 -8.89858e-20)
(0.879649 -0.494551 -5.98036e-20)
(0.895947 -0.421139 5.89861e-20)
(0.911176 -0.362099 1.54126e-19)
(0.92593 -0.313442 -6.65153e-20)
(0.940051 -0.272765 -8.04016e-20)
(0.954761 -0.239418 -2.95714e-19)
(0.969007 -0.215837 1.67273e-19)
(0.533677 -0.444054 1.90686e-19)
(0.856138 -0.645004 1.78835e-20)
(0.928461 -0.588028 -2.59298e-20)
(0.936155 -0.502172 4.75842e-20)
(0.943076 -0.429928 -1.42959e-19)
(0.951052 -0.371343 -7.45343e-20)
(0.959938 -0.322796 -9.55738e-20)
(0.968669 -0.282315 1.74772e-19)
(0.977783 -0.249377 7.13083e-20)
(0.988402 -0.222157 -6.79523e-20)
(0.557985 -0.407785 1.00189e-19)
(0.91633 -0.624677 -1.47583e-19)
(0.990711 -0.582156 -2.3439e-20)
(0.990873 -0.502621 5.61671e-21)
(0.989179 -0.432908 3.49198e-20)
(0.990315 -0.375794 -8.03647e-21)
(0.993729 -0.328039 1.72092e-19)
(0.997686 -0.287967 -1.42224e-19)
(1.00177 -0.255179 -1.09838e-20)
(1.00798 -0.226203 1.94738e-19)
(0.568323 -0.363648 -3.78947e-19)
(0.964359 -0.592797 -1.0996e-19)
(1.0475 -0.567248 -1.05055e-20)
(1.04266 -0.496468 -5.71494e-22)
(1.03346 -0.430508 7.98763e-21)
(1.02832 -0.375797 7.36898e-20)
(1.02675 -0.329508 -1.10219e-19)
(1.0267 -0.29029 2.57246e-20)
(1.02682 -0.258093 -3.22787e-20)
(1.0289 -0.229165 -5.27697e-20)
(0.563588 -0.313363 9.13755e-21)
(0.997681 -0.550916 2.99817e-19)
(1.09684 -0.544568 3.20808e-20)
(1.09042 -0.484149 -1.7588e-20)
(1.07519 -0.42326 -7.5703e-22)
(1.06458 -0.371843 6.57794e-21)
(1.05851 -0.327726 1.95597e-20)
(1.05509 -0.289869 -2.59308e-20)
(1.05222 -0.25864 3.22284e-21)
(1.05078 -0.230688 -1.91087e-21)
(0.54271 -0.259214 7.49132e-20)
(1.01474 -0.501137 -1.40047e-19)
(1.1364 -0.514971 5.00942e-20)
(1.13319 -0.466451 6.50685e-20)
(1.11374 -0.411941 -4.68996e-20)
(1.09855 -0.364467 -3.57787e-21)
(1.0886 -0.323109 -1.56506e-20)
(1.0823 -0.287105 1.28891e-20)
(1.07712 -0.256996 -1.89189e-20)
(1.07279 -0.230678 1.9752e-20)
(0.50546 -0.203975 1.03022e-19)
(1.01376 -0.445092 1.77566e-19)
(1.16412 -0.479457 1.01385e-19)
(1.1699 -0.444416 -1.1e-19)
(1.14879 -0.397191 1.01284e-19)
(1.12996 -0.35419 -4.38059e-20)
(1.11671 -0.316137 -6.27232e-21)
(1.10781 -0.28231 -5.4972e-21)
(1.10093 -0.253447 9.89856e-22)
(1.09417 -0.229197 -1.17442e-20)
(0.452933 -0.15053 2.65394e-19)
(0.992852 -0.384344 -1.39685e-19)
(1.1782 -0.439069 8.00946e-20)
(1.19912 -0.418874 7.40843e-20)
(1.17969 -0.379734 -3.30248e-20)
(1.15867 -0.341601 5.08692e-20)
(1.14279 -0.307111 1.56696e-20)
(1.13148 -0.275837 1.65314e-20)
(1.12311 -0.248259 9.18664e-21)
(1.11491 -0.22632 4.25693e-21)
(0.387774 -0.101651 -9.71289e-20)
(0.950286 -0.320547 -1.35312e-19)
(1.17662 -0.394743 -8.95806e-20)
(1.21949 -0.390492 -8.22616e-20)
(1.20573 -0.360244 -2.88765e-20)
(1.18428 -0.327251 3.75571e-20)
(1.16663 -0.296406 -1.5176e-20)
(1.15338 -0.267894 2.99787e-21)
(1.14362 -0.242043 -8.26756e-21)
(1.13473 -0.222228 4.86945e-21)
(0.314214 -0.0599251 2.51758e-20)
(0.884753 -0.255485 -5.50022e-21)
(1.15686 -0.347331 2.26671e-20)
(1.22927 -0.359722 1.49292e-20)
(1.22619 -0.339252 1.30247e-20)
(1.2065 -0.311678 -3.02506e-20)
(1.18806 -0.284491 1.34938e-20)
(1.17354 -0.258825 -1.25391e-20)
(1.16247 -0.234895 -3.07231e-21)
(1.15285 -0.216949 -4.08181e-21)
(0.237773 -0.0276714 1.05439e-21)
(0.79579 -0.191227 -8.09504e-22)
(1.11611 -0.297751 -5.35702e-21)
(1.22615 -0.326842 6.86795e-20)
(1.23993 -0.317045 -1.86306e-20)
(1.22504 -0.295326 -2.14293e-20)
(1.20704 -0.271811 3.90645e-21)
(1.19178 -0.248921 -3.90744e-21)
(1.17995 -0.226858 -9.20666e-21)
(1.16936 -0.210562 -2.01123e-20)
(0.164519 -0.00653505 -1.01162e-19)
(0.684263 -0.130324 2.18893e-20)
(1.05133 -0.246861 -1.88671e-19)
(1.20686 -0.291923 -7.14833e-20)
(1.24511 -0.293677 -2.64933e-20)
(1.23927 -0.278446 -7.80397e-21)
(1.2235 -0.258713 -1.99797e-20)
(1.2083 -0.238525 -1.8908e-20)
(1.1957 -0.218041 5.78672e-21)
(1.18478 -0.203155 1.39452e-20)
(0.100082 0.0033829 1.71305e-19)
(0.554571 -0.0764031 -9.65186e-20)
(0.95989 -0.195692 1.47896e-19)
(1.16702 -0.254816 7.58046e-20)
(1.23867 -0.268874 -4.45875e-20)
(1.24801 -0.261106 1.37096e-19)
(1.23716 -0.245383 -2.87002e-20)
(1.2229 -0.227853 5.22664e-20)
(1.21048 -0.20897 3.68149e-21)
(1.19909 -0.194808 5.1186e-20)
(0.0484213 0.00405408 -1.05794e-19)
(0.416606 -0.0342449 4.4078e-19)
(0.840079 -0.145631 -9.68364e-20)
(1.10119 -0.215402 -8.22382e-20)
(1.21607 -0.242145 2.09704e-19)
(1.24867 -0.242943 -9.29972e-20)
(1.2473 -0.231891 -4.80543e-20)
(1.23584 -0.217088 -2.57408e-20)
(1.22334 -0.199744 -9.68139e-20)
(1.21303 -0.185942 3.44132e-20)
(0.0108191 -0.00100881 -1.92097e-19)
(0.2846 -0.00859903 -2.62197e-19)
(0.69315 -0.0989604 2.07446e-19)
(1.00364 -0.173986 5.82299e-20)
(1.17064 -0.21271 -1.49747e-19)
(1.23712 -0.223367 -1.51108e-19)
(1.25171 -0.2178 8.21805e-21)
(1.24627 -0.206174 -9.77339e-20)
(1.23577 -0.190897 1.4691e-19)
(1.22474 -0.176216 -2.14894e-20)
(-0.0139572 -0.00826011 8.58275e-20)
(0.172172 -0.000654213 4.10568e-19)
(0.527785 -0.0598752 -5.1254e-20)
(0.870083 -0.131477 1.45106e-20)
(1.09398 -0.179852 -3.42942e-20)
(1.20568 -0.200966 1.98824e-19)
(1.24684 -0.202678 6.68899e-20)
(1.25266 -0.194552 1.13207e-19)
(1.24537 -0.182016 -1.02243e-19)
(1.23772 -0.166959 6.12287e-20)
(-0.0287708 -0.0154502 -6.35146e-19)
(0.0863556 -0.00580862 1.62156e-19)
(0.363405 -0.0341236 -2.06386e-19)
(0.702516 -0.090764 2.493e-19)
(0.976561 -0.142941 -6.15406e-20)
(1.14423 -0.174502 -3.49615e-19)
(1.22382 -0.184564 1.86095e-19)
(1.25181 -0.181991 -6.81782e-20)
(1.25287 -0.172876 6.2449e-20)
(1.24546 -0.156213 1.8323e-19)
(-0.03649 -0.021806 2.97342e-19)
(0.0266514 -0.0173553 -4.4782e-19)
(0.222307 -0.0247624 -5.54902e-20)
(0.51662 -0.058148 -2.77265e-19)
(0.813786 -0.103947 -3.42201e-19)
(1.03785 -0.141759 1.67836e-19)
(1.17186 -0.16254 -2.07178e-19)
(1.23301 -0.16539 -2.44639e-20)
(1.25368 -0.16348 -1.80058e-20)
(1.25545 -0.146098 -2.32619e-19)
(-0.0392206 -0.027116 2.76686e-19)
(-0.0115604 -0.0304682 -1.06061e-19)
(0.116226 -0.0286572 1.01341e-19)
(0.340687 -0.0401294 -1.50734e-19)
(0.61814 -0.0695526 1.48232e-19)
(0.876715 -0.10457 2.73771e-19)
(1.0684 -0.132151 1.6138e-19)
(1.18622 -0.145321 -8.48809e-21)
(1.23455 -0.148344 -1.7577e-19)
(1.25589 -0.134894 1.37377e-19)
(-0.0386702 -0.0314257 3.22234e-19)
(-0.0337704 -0.042784 1.03435e-19)
(0.0441562 -0.0393975 1.73832e-19)
(0.198775 -0.0372523 5.10342e-20)
(0.421542 -0.0479804 -2.48497e-19)
(0.673019 -0.069945 7.43064e-20)
(0.900987 -0.0970252 -2.79371e-19)
(1.07581 -0.112615 3.83047e-19)
(1.18929 -0.133824 2.26137e-19)
(1.22824 -0.110964 5.9399e-20)
(-0.0361553 -0.0348225 -4.55921e-19)
(-0.0448391 -0.0531856 -1.13687e-19)
(-0.00108867 -0.0516154 -1.32723e-19)
(0.0979583 -0.0439494 7.73433e-20)
(0.256106 -0.0411673 3.14304e-19)
(0.46211 -0.0474787 -2.52782e-19)
(0.687432 -0.0644662 -1.07944e-19)
(0.891606 -0.0766491 -1.34375e-19)
(1.05906 -0.0992981 -4.22933e-19)
(1.19301 -0.10603 1.06841e-19)
(-0.0325613 -0.0372555 -1.85726e-19)
(-0.0487234 -0.0610069 4.08344e-20)
(-0.0276506 -0.0620296 2.02149e-20)
(0.0320234 -0.0534927 -1.2519e-19)
(0.134555 -0.0440736 -2.0027e-19)
(0.282165 -0.0411798 5.27532e-19)
(0.464423 -0.0390723 7.30375e-20)
(0.671891 -0.0516796 2.25706e-19)
(0.826201 -0.0557366 -4.37954e-20)
(1.07746 -0.0833793 1.60988e-19)
(-0.0285316 -0.0385244 3.31467e-19)
(-0.0484085 -0.0656425 7.39917e-20)
(-0.0423948 -0.0687452 -3.5168e-19)
(-0.0095775 -0.0611458 1.96125e-19)
(0.0519861 -0.0499514 3.19551e-19)
(0.148913 -0.0433175 -3.10578e-19)
(0.269295 -0.024804 2.62254e-19)
(0.460525 -0.0403294 -1.42589e-19)
(0.54755 -0.0218797 1.99122e-19)
(0.871812 -0.0524914 -3.07619e-19)
(-0.0244319 -0.038396 6.35344e-20)
(-0.0458423 -0.0665365 -4.78123e-19)
(-0.0503702 -0.0707317 4.6532e-19)
(-0.0362403 -0.0643231 -2.68016e-20)
(-0.00320385 -0.0535148 -1.54951e-19)
(0.0555056 -0.0447565 -5.1332e-21)
(0.123847 -0.0233379 -4.02981e-19)
(0.274065 -0.0316267 3.57995e-19)
(0.308193 -0.00745097 -2.81751e-19)
(0.609126 -0.026116 1.91425e-19)
(-0.0204001 -0.0365299 9.53069e-20)
(-0.0423144 -0.0633326 -4.7856e-20)
(-0.0548608 -0.0675899 -1.64455e-19)
(-0.0544372 -0.0620792 -2.02026e-19)
(-0.041443 -0.052326 4.59798e-20)
(-0.0101906 -0.0422597 -2.24046e-19)
(0.0236464 -0.026073 -7.04176e-21)
(0.121647 -0.02078 -3.30804e-20)
(0.137795 -0.00933098 9.86359e-20)
(0.343944 -0.00799546 5.57875e-21)
(-0.0165692 -0.0326295 -2.7325e-19)
(-0.0386372 -0.0559939 1.9588e-19)
(-0.057662 -0.0594287 2.75929e-19)
(-0.0677853 -0.0544886 -1.19035e-20)
(-0.0690308 -0.0459017 9.09232e-20)
(-0.058118 -0.035777 -8.46659e-20)
(-0.0465456 -0.0246601 3.3942e-19)
(0.00818467 -0.010735 -1.07953e-19)
(0.0156486 -0.0121925 -3.36784e-19)
(0.128498 0.00998723 1.57111e-19)
(-0.0131249 -0.0265865 -1.93186e-20)
(-0.0352849 -0.0447814 -2.2043e-19)
(-0.0595734 -0.046814 -1.74451e-19)
(-0.0778057 -0.0422777 1.69958e-19)
(-0.0896298 -0.0347649 -1.25167e-19)
(-0.093946 -0.0258281 5.69162e-20)
(-0.0956488 -0.0171963 4.22398e-20)
(-0.0729426 -0.00202825 1.96783e-20)
(-0.0745369 -0.00541634 1.00584e-19)
(-0.0192435 0.0224496 -1.8437e-19)
(-0.0102991 -0.0185628 1.50725e-19)
(-0.0325463 -0.0302862 1.90459e-19)
(-0.0608481 -0.0306272 5.95336e-21)
(-0.0850305 -0.0264898 -1.52721e-19)
(-0.104568 -0.0201816 2.49113e-20)
(-0.119195 -0.01283 3.90324e-20)
(-0.130063 -0.00529406 -5.89282e-20)
(-0.128783 0.0060228 3.0978e-20)
(-0.136198 0.00591882 3.04579e-20)
(-0.114774 0.0256444 -3.18112e-20)
(-0.0083275 -0.0090097 -2.14859e-20)
(-0.030604 -0.0134017 2.96872e-20)
(-0.0614896 -0.0119492 -1.32599e-19)
(-0.0894689 -0.0082898 3.44511e-20)
(-0.113919 -0.00334975 -7.58616e-20)
(-0.134693 0.00231142 2.05511e-20)
(-0.151719 0.0083432 3.68994e-20)
(-0.162331 0.0155407 -6.56191e-20)
(-0.174001 0.0170489 -7.97796e-21)
(-0.170809 0.0263491 2.85812e-20)
(-0.00738991 0.00137689 -1.48312e-20)
(-0.0295647 0.00475101 3.16752e-21)
(-0.061429 0.00802502 7.06865e-20)
(-0.0909646 0.0111379 2.80566e-20)
(-0.117495 0.0146072 -1.65126e-20)
(-0.140827 0.0184885 9.37062e-21)
(-0.160671 0.0225163 -1.25092e-20)
(-0.176128 0.026267 1.92235e-20)
(-0.190081 0.0274628 1.26497e-20)
(-0.19508 0.0289945 2.34167e-23)
(-0.192211 0.029876 -5.1802e-20)
(-0.195772 0.0260294 3.71882e-20)
(-0.198812 0.0211141 5.59613e-22)
(-0.201484 0.0152248 -6.42713e-21)
(-0.203858 0.0083496 -1.29128e-20)
(-0.205929 0.000503519 -1.48908e-20)
(-0.207756 -0.00826278 -2.55147e-20)
(-0.209396 -0.0178456 4.53541e-20)
(-0.210837 -0.0281562 -2.57256e-20)
(-0.212076 -0.0390831 5.2727e-20)
(-0.213113 -0.0504959 -3.31976e-20)
(-0.213948 -0.0622462 -4.77757e-21)
(-0.214581 -0.0741703 -1.16409e-20)
(-0.215012 -0.0860908 3.01513e-20)
(-0.215241 -0.0978203 -1.98164e-20)
(-0.215273 -0.109165 2.00669e-20)
(-0.21511 -0.119926 -1.39538e-20)
(-0.214756 -0.129905 -1.164e-20)
(-0.214212 -0.138901 7.49912e-21)
(-0.213478 -0.146717 -4.92078e-21)
(-0.212553 -0.153156 1.83331e-20)
(-0.211435 -0.158037 -8.34916e-21)
(-0.210119 -0.161193 -1.22827e-20)
(-0.208593 -0.162475 7.60897e-21)
(-0.206842 -0.161755 -1.03109e-20)
(-0.204841 -0.158926 1.21295e-20)
(-0.202566 -0.153914 3.38561e-21)
(-0.199995 -0.146671 -9.75292e-21)
(-0.197104 -0.137171 1.75698e-20)
(-0.193868 -0.125418 1.79974e-20)
(-0.190264 -0.111446 -1.88601e-20)
(-0.186271 -0.0953262 7.92675e-21)
(-0.181869 -0.077163 9.86225e-21)
(-0.177044 -0.0570982 -1.78587e-20)
(-0.171787 -0.0353104 2.09539e-20)
(-0.166086 -0.0120085 -2.06429e-20)
(-0.160065 0.0126523 2.46694e-20)
(-0.153802 0.038341 -1.1247e-20)
(-0.147275 0.0647401 -4.34931e-21)
(-0.140532 0.0915492 8.0363e-22)
(-0.133646 0.118415 6.56516e-21)
(-0.126704 0.145035 3.78017e-21)
(-0.119775 0.171099 1.42221e-23)
(-0.112911 0.19629 -9.96411e-21)
(-0.106147 0.220308 -1.08407e-21)
(-0.0994905 0.242869 -3.09475e-21)
(-0.0929229 0.263698 6.55166e-21)
(-0.0863921 0.282539 -5.62526e-22)
(-0.0798086 0.299141 6.87622e-21)
(-0.0730407 0.313233 -1.31238e-20)
(-0.0659244 0.324582 6.63078e-21)
(-0.0582786 0.332935 5.23049e-22)
(-0.0499045 0.338029 -1.14831e-20)
(-0.0405828 0.33965 5.42794e-21)
(-0.0301358 0.337668 2.49994e-21)
(-0.0184842 0.331907 1.49026e-21)
(-0.00536366 0.32227 -3.87049e-21)
(0.0093228 0.308767 3.4985e-23)
(0.0255006 0.291445 1.30063e-20)
(0.043052 0.270302 -1.99059e-20)
(0.0619 0.245768 1.4202e-20)
(0.082026 0.218053 2.31137e-21)
(0.103226 0.187562 -1.9451e-21)
(0.125329 0.154671 -1.62241e-21)
(0.148112 0.119856 2.16989e-21)
(0.171351 0.0836343 -3.92484e-21)
(0.194819 0.0465432 -3.98817e-22)
(0.218258 0.00909726 -1.07598e-21)
(0.241435 -0.0281709 5.42474e-22)
(0.264159 -0.0647091 3.09415e-21)
(0.28621 -0.100054 -5.87072e-21)
(0.307367 -0.133776 -1.60794e-21)
(0.327413 -0.165495 4.87778e-21)
(0.346135 -0.194899 3.38116e-21)
(0.363319 -0.221756 -4.03426e-21)
(0.378758 -0.245924 1.62171e-21)
(0.392252 -0.267353 -4.2412e-21)
(0.403606 -0.286085 2.77753e-21)
(0.412639 -0.302257 1.95616e-21)
(0.419176 -0.316086 -1.49256e-21)
(0.423059 -0.327864 5.32127e-22)
(0.42415 -0.337936 8.60106e-22)