/*--------------------------------*- C++ -*----------------------------------*\
  =========                 |
  \\      /  F ield         | OpenFOAM: The Open Source CFD Toolbox
   \\    /   O peration     | Website:  https://openfoam.org
    \\  /    A nd           | Version:  7
     \\/     M anipulation  |
\*---------------------------------------------------------------------------*/
FoamFile
{
    version     2.0;
    format      ascii;
    class       volScalarField;
    location    "25";
    object      p;
}
// * * * * * * * * * * * * * * * * * * * * * * * * * * * * * * * * * * * * * //

dimensions      [0 2 -2 0 0 0 0];

internalField   nonuniform List<scalar> 
3312
(
-0.229832
-0.236929
-0.23212
-0.237563
-0.234378
-0.240385
-0.238261
-0.236345
-0.241611
-0.240484
-0.238994
-0.237929
-0.24134
-0.240584
-0.239621
-0.239001
-0.241474
-0.241062
-0.24061
-0.240051
-0.239563
-0.240955
-0.240752
-0.240525
-0.240234
-0.240237
-0.240465
-0.240443
-0.240403
-0.240348
-0.240264
-0.240479
-0.239858
-0.239951
-0.240033
-0.240106
-0.240171
-0.240468
-0.239329
-0.239505
-0.239675
-0.239842
-0.24001
-0.240347
-0.238902
-0.239137
-0.239367
-0.239597
-0.239835
-0.240194
-0.238601
-0.238873
-0.239141
-0.23941
-0.239691
-0.240063
-0.238146
-0.238446
-0.238735
-0.239021
-0.239309
-0.239611
-0.239988
-0.214997
-0.185108
-0.159807
-0.130041
-0.10698
-0.0894019
-0.075369
-0.0641559
-0.0549986
-0.0474451
-0.0411412
-0.0358262
-0.0313072
-0.0274369
-0.0241022
-0.021214
-0.0187017
-0.0165084
-0.0145878
-0.0129023
-0.0114191
-0.0101112
-0.00895609
-0.0079342
-0.00702929
-0.00622715
-0.00551563
-0.00488416
-0.00432354
-0.00382573
-0.00338369
-0.00299125
-0.00264296
-0.00233403
-0.00206023
-0.00181778
-0.00160351
-0.00141461
-0.00124853
-0.00110312
-0.000976405
-0.000866728
-0.000772624
-0.000692843
-0.00062633
-0.0005722
-0.00052973
-0.000498374
-0.000477682
-0.000467345
-0.215374
-0.196712
-0.168772
-0.139652
-0.115806
-0.0970755
-0.0820252
-0.0698368
-0.059855
-0.0516008
-0.0447062
-0.0388939
-0.0339551
-0.0297297
-0.0260934
-0.022948
-0.0202157
-0.0178333
-0.0157496
-0.0139227
-0.0123169
-0.0109024
-0.00965424
-0.00855115
-0.00757512
-0.00671062
-0.00594433
-0.00526468
-0.00466164
-0.00412646
-0.00365145
-0.00322993
-0.00285598
-0.00252441
-0.00223067
-0.00197068
-0.00174099
-0.00153853
-0.00136058
-0.00120479
-0.00106906
-0.000951587
-0.000850811
-0.000765383
-0.000694168
-0.000636215
-0.000590751
-0.000557178
-0.000535029
-0.000523991
-0.222585
-0.202869
-0.173706
-0.145231
-0.121638
-0.102625
-0.087033
-0.0742438
-0.063696
-0.0549346
-0.0475956
-0.0413988
-0.0361295
-0.0316209
-0.0277419
-0.0243882
-0.0214768
-0.0189399
-0.0167226
-0.0147798
-0.0130731
-0.0115706
-0.0102457
-0.00907542
-0.00804049
-0.00712425
-0.00631245
-0.00559271
-0.0049543
-0.00438788
-0.00388528
-0.00343936
-0.00304383
-0.00269319
-0.00238259
-0.00210774
-0.00186495
-0.00165096
-0.00146288
-0.00129821
-0.00115475
-0.00103059
-0.000924068
-0.000833767
-0.000758488
-0.000697227
-0.000649165
-0.000613672
-0.00059026
-0.000578603
-0.227743
-0.206358
-0.176569
-0.148727
-0.125704
-0.106783
-0.0909394
-0.0777823
-0.0668444
-0.057709
-0.0500273
-0.0435248
-0.0379874
-0.0332457
-0.0291646
-0.0256361
-0.0225732
-0.019905
-0.0175737
-0.0155315
-0.0137381
-0.0121599
-0.0107686
-0.0095401
-0.00845403
-0.0074928
-0.00664132
-0.00588657
-0.00521722
-0.00462344
-0.00409661
-0.00362923
-0.0032147
-0.00284722
-0.00252172
-0.00223371
-0.0019793
-0.00175505
-0.00155796
-0.00138538
-0.00123502
-0.00110487
-0.000993207
-0.000898539
-0.000819614
-0.000755381
-0.000704986
-0.000667767
-0.00064322
-0.000631002
-0.230425
-0.209022
-0.178967
-0.15167
-0.12911
-0.110282
-0.0942797
-0.0808571
-0.0696191
-0.0601812
-0.0522126
-0.0454486
-0.0396782
-0.0347312
-0.0304704
-0.0267851
-0.0235856
-0.0207984
-0.0183631
-0.0162301
-0.0143571
-0.0127091
-0.0112566
-0.00997433
-0.00884089
-0.00783789
-0.00694957
-0.00616224
-0.00546408
-0.00484479
-0.00429537
-0.00380795
-0.00337566
-0.00299244
-0.00265301
-0.00235268
-0.00208739
-0.00185355
-0.001648
-0.00146802
-0.00131118
-0.00117543
-0.00105894
-0.000960172
-0.000877827
-0.000810808
-0.000758224
-0.000719388
-0.000693775
-0.000681029
-0.232201
-0.211698
-0.181567
-0.1547
-0.132391
-0.113528
-0.09735
-0.0836918
-0.0721926
-0.0624871
-0.0542613
-0.0472604
-0.0412768
-0.0361405
-0.0317127
-0.0278808
-0.0245528
-0.0216531
-0.0191193
-0.0168999
-0.0149511
-0.0132365
-0.0117254
-0.0103915
-0.00921254
-0.00816941
-0.00724563
-0.00642695
-0.00570105
-0.00505718
-0.00448598
-0.00397927
-0.00352987
-0.0031315
-0.00277865
-0.00246646
-0.0021907
-0.00194762
-0.00173395
-0.00154684
-0.00138379
-0.00124264
-0.00112152
-0.00101883
-0.000933205
-0.000863516
-0.000808835
-0.000768447
-0.000741813
-0.000728562
-0.234131
-0.214562
-0.184377
-0.157838
-0.13562
-0.11661
-0.100223
-0.0863385
-0.0746002
-0.0646509
-0.05619
-0.0489718
-0.0427917
-0.0374795
-0.0328958
-0.0289263
-0.0254771
-0.022471
-0.0198436
-0.0175418
-0.0155206
-0.0137423
-0.012175
-0.0107916
-0.00956905
-0.00848735
-0.00752947
-0.00668063
-0.00592802
-0.00526051
-0.00466836
-0.00414308
-0.00367722
-0.00326427
-0.00289852
-0.00257493
-0.00228912
-0.00203718
-0.0018157
-0.00162176
-0.00145274
-0.00130643
-0.00118087
-0.00107442
-0.000985651
-0.000913407
-0.00085672
-0.00081485
-0.000787238
-0.000773504
-0.236414
-0.217445
-0.187128
-0.160859
-0.138654
-0.11945
-0.102849
-0.0887573
-0.0768052
-0.066638
-0.0579676
-0.0505551
-0.0441979
-0.0387262
-0.0340002
-0.0299043
-0.0263434
-0.0232386
-0.0205242
-0.0181457
-0.0160568
-0.0142188
-0.0125989
-0.011169
-0.00990528
-0.00878724
-0.00779722
-0.00691992
-0.00614212
-0.00545229
-0.00484035
-0.00429753
-0.00381613
-0.00338941
-0.00301147
-0.00267712
-0.00238183
-0.00212152
-0.00189268
-0.00169228
-0.00151764
-0.00136646
-0.00123672
-0.00112671
-0.00103499
-0.000960337
-0.000901761
-0.000858493
-0.00082996
-0.000815771
-0.238839
-0.220088
-0.189543
-0.163544
-0.141324
-0.121934
-0.105148
-0.0908873
-0.0787561
-0.0684044
-0.0595559
-0.0519769
-0.0454664
-0.0398554
-0.0350038
-0.0307957
-0.027135
-0.0239416
-0.0211487
-0.0187007
-0.0165503
-0.0146578
-0.0129898
-0.0115173
-0.0102159
-0.00906449
-0.00804489
-0.0071414
-0.00634037
-0.00562996
-0.00499977
-0.00444076
-0.003945
-0.00350555
-0.00311635
-0.00277205
-0.002468
-0.00219996
-0.00196431
-0.00175794
-0.00157809
-0.0014224
-0.00128879
-0.00117549
-0.00108103
-0.00100416
-0.000943839
-0.000899277
-0.000869891
-0.00085528
-0.241157
-0.2223
-0.191459
-0.16578
-0.143525
-0.12398
-0.107065
-0.092687
-0.0804184
-0.0699209
-0.0609302
-0.053216
-0.0465789
-0.0408509
-0.0358929
-0.0315887
-0.0278417
-0.0245711
-0.0217093
-0.0192
-0.0169952
-0.0150544
-0.0133434
-0.0118328
-0.0104976
-0.00931624
-0.00827004
-0.00734293
-0.00652095
-0.00579194
-0.00514524
-0.00457158
-0.00406281
-0.00361182
-0.0032124
-0.00285907
-0.0025471
-0.00227204
-0.00203019
-0.00181839
-0.00163381
-0.00147401
-0.00133688
-0.0012206
-0.00112365
-0.00104476
-0.000982851
-0.000937111
-0.000906949
-0.000891954
-0.243224
-0.224002
-0.192845
-0.167537
-0.145218
-0.125559
-0.108583
-0.094142
-0.0817797
-0.0711777
-0.0620823
-0.0542652
-0.0475287
-0.0417071
-0.0366624
-0.0322787
-0.0284595
-0.0251236
-0.0222032
-0.0196413
-0.0173893
-0.0154065
-0.0136581
-0.0121141
-0.0107493
-0.00954142
-0.0084717
-0.00752368
-0.00668311
-0.0059376
-0.00527622
-0.0046895
-0.00416914
-0.00370785
-0.00329929
-0.00293789
-0.00261889
-0.00233754
-0.00209013
-0.00187346
-0.00168464
-0.00152117
-0.00138089
-0.00126193
-0.00116274
-0.00108205
-0.00101871
-0.000971914
-0.000941055
-0.000925714
-0.244973
-0.22518
-0.193742
-0.168828
-0.146403
-0.126677
-0.109711
-0.0952565
-0.0828429
-0.0721779
-0.0630146
-0.0551259
-0.0483169
-0.0424246
-0.0373126
-0.032866
-0.0289885
-0.0255993
-0.0226302
-0.0200243
-0.0177326
-0.0157142
-0.0139337
-0.0123611
-0.0109706
-0.00973991
-0.00864977
-0.00768355
-0.00682677
-0.00606684
-0.00539261
-0.00479444
-0.00426389
-0.00379355
-0.00337692
-0.00300839
-0.0026833
-0.00239637
-0.00214405
-0.00192308
-0.00173052
-0.0015638
-0.00142072
-0.00129939
-0.00119822
-0.00111595
-0.00105135
-0.00100361
-0.000972137
-0.00095649
-0.246365
-0.225826
-0.194209
-0.169669
-0.147076
-0.12736
-0.110469
-0.0960413
-0.083617
-0.0729294
-0.0637335
-0.055803
-0.0489472
-0.0430064
-0.0378459
-0.0333523
-0.0294301
-0.0259991
-0.0229913
-0.0203498
-0.0180257
-0.0159777
-0.0141706
-0.012574
-0.0111619
-0.00991186
-0.00880437
-0.0078226
-0.00695194
-0.00617969
-0.00549442
-0.0048864
-0.00434706
-0.00386889
-0.00344526
-0.00307048
-0.00274031
-0.00244849
-0.00219189
-0.00196719
-0.00177137
-0.00160183
-0.00145633
-0.00133293
-0.00123001
-0.00114642
-0.0010807
-0.00103215
-0.00100013
-0.000984221
-0.247344
-0.225897
-0.194299
-0.170034
-0.147246
-0.127642
-0.110873
-0.0965057
-0.0841109
-0.07344
-0.0642446
-0.0563008
-0.049423
-0.0434549
-0.0382641
-0.033739
-0.0297854
-0.0263238
-0.0232869
-0.0206181
-0.0182686
-0.0161973
-0.0143689
-0.0127529
-0.0113232
-0.0100573
-0.00893547
-0.0079408
-0.00705859
-0.00627611
-0.00558159
-0.0049653
-0.00441858
-0.00393382
-0.00350428
-0.00312403
-0.00278994
-0.00249383
-0.00223359
-0.00200572
-0.00180714
-0.00163522
-0.00148766
-0.0013625
-0.00125804
-0.00117339
-0.00110671
-0.00105746
-0.00102499
-0.00100885
-0.247823
-0.225312
-0.194038
-0.169853
-0.146939
-0.127546
-0.110927
-0.0966548
-0.0843317
-0.0737152
-0.0645518
-0.0566223
-0.0497465
-0.0437717
-0.0385683
-0.0340268
-0.0300547
-0.0265736
-0.0235172
-0.0208292
-0.0184614
-0.0163729
-0.0145284
-0.0128976
-0.0114543
-0.010176
-0.00904291
-0.00803801
-0.00714653
-0.00635595
-0.00565399
-0.00503103
-0.00447836
-0.00398827
-0.00355393
-0.00316877
-0.00283223
-0.00253227
-0.00226905
-0.0020386
-0.00183777
-0.00166389
-0.00151464
-0.00138805
-0.00128246
-0.0011967
-0.0011293
-0.0010795
-0.00104665
-0.00103033
-0.247678
-0.224017
-0.193404
-0.169042
-0.146197
-0.127071
-0.110626
-0.0964926
-0.0842848
-0.0737589
-0.0646579
-0.0567695
-0.0499192
-0.0439577
-0.038759
-0.0342159
-0.030238
-0.0267484
-0.0236818
-0.0209828
-0.0186037
-0.016504
-0.0146488
-0.0130078
-0.0115549
-0.0102677
-0.00912652
-0.00811411
-0.00721537
-0.006419
-0.00571141
-0.00508342
-0.00452623
-0.00403208
-0.00359415
-0.00320635
-0.0028655
-0.00256356
-0.00229817
-0.00206574
-0.00186317
-0.00168777
-0.00153722
-0.00140953
-0.00130304
-0.00121646
-0.00114848
-0.00109824
-0.00106511
-0.00104865
-0.246786
-0.222015
-0.192201
-0.167584
-0.145053
-0.126195
-0.109969
-0.096024
-0.0839755
-0.0735745
-0.0645657
-0.0567449
-0.0499428
-0.0440142
-0.0388368
-0.0343067
-0.0303355
-0.0268481
-0.0237806
-0.0210786
-0.0186953
-0.0165905
-0.0147298
-0.0130831
-0.0116248
-0.0103323
-0.00918597
-0.00816874
-0.00726567
-0.00646481
-0.00575361
-0.00512226
-0.00456199
-0.00406506
-0.00362467
-0.00323489
-0.00289137
-0.00258784
-0.00232091
-0.0020871
-0.00188331
-0.00170684
-0.00155538
-0.00142692
-0.00131979
-0.00123263
-0.00116422
-0.00111367
-0.00108034
-0.00106377
-0.245005
-0.219302
-0.190217
-0.165545
-0.14345
-0.124917
-0.108966
-0.0952573
-0.0834106
-0.0731673
-0.06428
-0.0565522
-0.04982
-0.0439432
-0.0388034
-0.0343
-0.0303474
-0.0268727
-0.0238135
-0.0211166
-0.0187359
-0.0166321
-0.0147712
-0.0131236
-0.0116638
-0.0103693
-0.009221
-0.0082017
-0.00729674
-0.00649372
-0.00578064
-0.00514752
-0.00458562
-0.0040872
-0.00364549
-0.00325457
-0.0029096
-0.0026051
-0.0023373
-0.00210269
-0.00189819
-0.00172111
-0.0015691
-0.00144018
-0.00133267
-0.00124517
-0.0011765
-0.00112577
-0.0010923
-0.00107568
-0.242189
-0.215811
-0.187377
-0.162949
-0.14136
-0.12323
-0.107625
-0.0942017
-0.0825958
-0.072543
-0.0638056
-0.0561954
-0.0495542
-0.0437472
-0.0386607
-0.0341977
-0.0302756
-0.0268239
-0.0237818
-0.0210976
-0.0187264
-0.0166295
-0.0147735
-0.0131293
-0.0116719
-0.0103791
-0.00923176
-0.00821317
-0.00730869
-0.00650567
-0.00579251
-0.00515925
-0.00459716
-0.00409854
-0.00365661
-0.00326548
-0.00292007
-0.00261533
-0.0023473
-0.00211249
-0.00190779
-0.00173053
-0.00157836
-0.0014493
-0.00134167
-0.00125405
-0.0011853
-0.0011345
-0.001101
-0.00108435
-0.238194
-0.211451
-0.183706
-0.159784
-0.138781
-0.121143
-0.105952
-0.0928663
-0.0815388
-0.0717085
-0.0631487
-0.0556795
-0.0491494
-0.0434297
-0.0384115
-0.034002
-0.0301218
-0.0267029
-0.0236866
-0.0210226
-0.0186673
-0.0165829
-0.0147368
-0.0131006
-0.0116494
-0.0103617
-0.00921854
-0.00820329
-0.00730155
-0.00650066
-0.00578927
-0.00515751
-0.00459666
-0.00409907
-0.00365804
-0.00326764
-0.00292275
-0.00261851
-0.00235092
-0.00211648
-0.00191209
-0.00173509
-0.00158314
-0.00145426
-0.00134677
-0.00125927
-0.0011906
-0.00113987
-0.00110641
-0.00108979
-0.232904
-0.206152
-0.17925
-0.156043
-0.135731
-0.118669
-0.103955
-0.0912596
-0.0802483
-0.0706717
-0.0623157
-0.0550098
-0.0486099
-0.042994
-0.0380585
-0.0337151
-0.0298877
-0.0265111
-0.0235288
-0.0208923
-0.0185592
-0.016493
-0.0146618
-0.0130378
-0.0115968
-0.0103176
-0.00918144
-0.00817214
-0.00727543
-0.00647876
-0.00577098
-0.0051423
-0.0045841
-0.00408882
-0.00364976
-0.00326108
-0.0029176
-0.00261462
-0.00234814
-0.00211465
-0.00191109
-0.00173479
-0.00158345
-0.00145507
-0.001348
-0.00126083
-0.00119242
-0.00114188
-0.00110855
-0.00109199
-0.226246
-0.199879
-0.174047
-0.151735
-0.132231
-0.115829
-0.101651
-0.0893921
-0.0787339
-0.0694411
-0.0613138
-0.0541921
-0.0479405
-0.042444
-0.0376049
-0.0333393
-0.0295751
-0.0262499
-0.0233096
-0.0207076
-0.018403
-0.0163604
-0.014549
-0.0129415
-0.0115143
-0.0102468
-0.00912063
-0.00811987
-0.00723047
-0.00644006
-0.00573768
-0.00511368
-0.00455955
-0.00406781
-0.00363184
-0.00324583
-0.00290466
-0.00260371
-0.002339
-0.00210705
-0.00190482
-0.00172967
-0.0015793
-0.00145175
-0.00134536
-0.00125875
-0.00119077
-0.00114054
-0.00110742
-0.00109097
-0.2182
-0.192641
-0.168133
-0.146888
-0.128308
-0.112642
-0.0990568
-0.0872775
-0.0770066
-0.0680259
-0.0601507
-0.0532328
-0.0471462
-0.0417837
-0.0370537
-0.0328772
-0.029186
-0.0259209
-0.0230304
-0.0204697
-0.0181996
-0.0161859
-0.0143987
-0.0128118
-0.0114022
-0.0101497
-0.00903637
-0.00804668
-0.00716685
-0.00638471
-0.00568951
-0.00507176
-0.0045231
-0.00403613
-0.00360434
-0.00322198
-0.00288398
-0.00258581
-0.00232353
-0.00209371
-0.00189332
-0.00171975
-0.00157073
-0.00144433
-0.00133889
-0.00125304
-0.00118567
-0.00113589
-0.00110306
-0.00108675
-0.208813
-0.184487
-0.161548
-0.14154
-0.123991
-0.109134
-0.0961933
-0.0849328
-0.0750798
-0.0664365
-0.0588346
-0.0521385
-0.0462326
-0.0410176
-0.0364086
-0.0323318
-0.0287229
-0.0255262
-0.0226927
-0.0201797
-0.0179498
-0.0159701
-0.0142118
-0.0126496
-0.011261
-0.0100266
-0.00892899
-0.00795287
-0.00708481
-0.00631291
-0.00562664
-0.00501671
-0.00447488
-0.00399391
-0.00356738
-0.00318962
-0.00285564
-0.002561
-0.00230182
-0.00207469
-0.00187664
-0.00170508
-0.00155779
-0.00143284
-0.00132862
-0.00124375
-0.00117715
-0.00112794
-0.00109548
-0.00107936
-0.198194
-0.175503
-0.154355
-0.135737
-0.119315
-0.10533
-0.0930819
-0.0823757
-0.072968
-0.0646843
-0.0573746
-0.0509166
-0.0452054
-0.0401506
-0.0356736
-0.0317062
-0.0281884
-0.0250677
-0.0222982
-0.0198391
-0.0176549
-0.0157141
-0.013989
-0.0124553
-0.0110913
-0.00987813
-0.00879889
-0.00783876
-0.00698464
-0.00622491
-0.0055493
-0.0049487
-0.00441507
-0.00394129
-0.00352108
-0.00314887
-0.00281975
-0.00252938
-0.00227393
-0.00205005
-0.00185483
-0.00168572
-0.00154052
-0.00141734
-0.00131459
-0.00123092
-0.00116525
-0.00111673
-0.00108473
-0.00106883
-0.186512
-0.165809
-0.146634
-0.129536
-0.11432
-0.101262
-0.0897465
-0.0796249
-0.0706865
-0.062782
-0.0557806
-0.049575
-0.0440712
-0.0391877
-0.0348528
-0.0310038
-0.0275851
-0.0245479
-0.0218487
-0.0194494
-0.0173161
-0.0154189
-0.0137313
-0.0122298
-0.0108937
-0.00970473
-0.00864655
-0.00770479
-0.00686672
-0.00612104
-0.00545775
-0.00486797
-0.00434386
-0.00387845
-0.0034656
-0.00309987
-0.00277643
-0.00249104
-0.00223996
-0.0020199
-0.00182799
-0.00166174
-0.00151899
-0.00139789
-0.00129686
-0.00121459
-0.00115002
-0.00110231
-0.00107085
-0.00105521
-0.173983
-0.155546
-0.138485
-0.123003
-0.109051
-0.0969635
-0.0862128
-0.0767004
-0.0682508
-0.0607417
-0.0540628
-0.0481218
-0.0428365
-0.0381342
-0.0339505
-0.0302281
-0.0269161
-0.023969
-0.0213464
-0.0190124
-0.016935
-0.0150858
-0.0134395
-0.0119739
-0.010669
-0.00950703
-0.00847248
-0.00755138
-0.00673141
-0.00600161
-0.00535227
-0.00477477
-0.00426147
-0.00380558
-0.00340111
-0.00304275
-0.0027258
-0.0024461
-0.00220001
-0.0019843
-0.00179619
-0.00163321
-0.00149327
-0.00137454
-0.00127548
-0.00119483
-0.00113152
-0.00108474
-0.00105388
-0.00103856
-0.160857
-0.144874
-0.130021
-0.11621
-0.103559
-0.0924714
-0.082509
-0.0736236
-0.0656774
-0.0585765
-0.0522315
-0.0465656
-0.0415083
-0.036996
-0.0329715
-0.0293831
-0.0261845
-0.0233337
-0.0207933
-0.0185297
-0.0165129
-0.0147159
-0.013115
-0.0116886
-0.0104178
-0.00928573
-0.00827727
-0.00737905
-0.00657916
-0.00586701
-0.00523321
-0.0046694
-0.00416816
-0.0037229
-0.00332781
-0.0029777
-0.00266802
-0.00239471
-0.00215421
-0.0019434
-0.00175953
-0.00160024
-0.00146344
-0.00134738
-0.00125055
-0.0011717
-0.00110981
-0.00106407
-0.00103391
-0.00101893
-0.147399
-0.133966
-0.121361
-0.109232
-0.097896
-0.0878246
-0.0786637
-0.0704161
-0.062983
-0.0562994
-0.0502971
-0.0449146
-0.0400932
-0.0357784
-0.0319201
-0.0284724
-0.0253934
-0.0226446
-0.0201917
-0.0180034
-0.0160514
-0.0143107
-0.0127586
-0.0113747
-0.0101411
-0.00904149
-0.00806151
-0.0071883
-0.00641041
-0.00571763
-0.0051009
-0.00455214
-0.00406418
-0.00363065
-0.00324589
-0.00290491
-0.00260325
-0.00233699
-0.00210269
-0.00189729
-0.00171813
-0.00156291
-0.0014296
-0.00131649
-0.00122213
-0.00114528
-0.00108496
-0.00104038
-0.00101098
-0.000996378
-0.13387
-0.122995
-0.112615
-0.102144
-0.0921166
-0.0830641
-0.0747068
-0.0671004
-0.060185
-0.0539242
-0.0482706
-0.0431778
-0.0385985
-0.0344874
-0.0308014
-0.0275002
-0.0245462
-0.0219046
-0.019544
-0.0174353
-0.0155523
-0.0138716
-0.0123717
-0.0110334
-0.00983973
-0.00877514
-0.00782592
-0.00697977
-0.0062257
-0.00555394
-0.00495575
-0.00442337
-0.00394987
-0.00352911
-0.00315563
-0.00282459
-0.0025317
-0.00227316
-0.00204561
-0.00184613
-0.00167212
-0.00152135
-0.00139186
-0.00128199
-0.00119031
-0.00111566
-0.00105706
-0.00101375
-0.000985191
-0.000971001
-0.120511
-0.112124
-0.103888
-0.0950184
-0.0862759
-0.0782298
-0.0706668
-0.0636979
-0.0572998
-0.0514638
-0.0461623
-0.0413633
-0.0370309
-0.0331285
-0.0296198
-0.0264701
-0.023646
-0.0211163
-0.0188522
-0.0168273
-0.0150172
-0.0133999
-0.0119554
-0.0106657
-0.0095146
-0.00848743
-0.00757114
-0.006754
-0.00602553
-0.00537637
-0.00479815
-0.00428341
-0.00382551
-0.00341854
-0.00305725
-0.00273696
-0.00245355
-0.00220335
-0.00198313
-0.00179005
-0.00162162
-0.00147567
-0.00135032
-0.00124395
-0.0011552
-0.00108292
-0.00102618
-0.000984253
-0.000956599
-0.00094286
-0.107532
-0.101496
-0.0952757
-0.0879282
-0.0804281
-0.073361
-0.0665729
-0.0602307
-0.0543447
-0.0489321
-0.0439833
-0.0394802
-0.0353978
-0.0317077
-0.0283805
-0.0253865
-0.0226964
-0.0202827
-0.0181192
-0.0161818
-0.014448
-0.0128973
-0.0115113
-0.0102729
-0.0091668
-0.00817931
-0.00729801
-0.00651175
-0.00581055
-0.0051855
-0.0046286
-0.00413273
-0.00369152
-0.00329931
-0.00295107
-0.00264231
-0.00236906
-0.00212781
-0.00191544
-0.00172924
-0.0015668
-0.00142603
-0.00130512
-0.00120252
-0.0011169
-0.00104718
-0.000992443
-0.000951997
-0.000925318
-0.000912064
-0.0951037
-0.091232
-0.0868635
-0.0809396
-0.0746217
-0.0684922
-0.0624511
-0.0567186
-0.0513351
-0.0463411
-0.0417432
-0.0375362
-0.0337054
-0.0302303
-0.0270878
-0.0242529
-0.0217006
-0.0194065
-0.0173471
-0.0155005
-0.0138462
-0.0123653
-0.0110404
-0.00985583
-0.0087972
-0.00785156
-0.00700719
-0.00625358
-0.00558127
-0.00498177
-0.0044475
-0.00397166
-0.00354819
-0.00317168
-0.00283732
-0.00254083
-0.00227841
-0.0020467
-0.00184271
-0.00166384
-0.00150778
-0.00137253
-0.00125636
-0.00115778
-0.00107552
-0.00100852
-0.000955922
-0.000917055
-0.000891418
-0.000878681
-0.0833606
-0.0814305
-0.0787278
-0.0741132
-0.0689021
-0.0636569
-0.0583273
-0.0531822
-0.0482878
-0.0437042
-0.0394527
-0.0355402
-0.0319612
-0.0287026
-0.0257469
-0.0230739
-0.0206624
-0.0184909
-0.0165387
-0.014786
-0.0132141
-0.0118056
-0.0105445
-0.00941611
-0.0084071
-0.00750529
-0.00669969
-0.0059804
-0.00533847
-0.00476588
-0.00425546
-0.00380075
-0.00339601
-0.00303608
-0.0027164
-0.00243289
-0.00218193
-0.0019603
-0.00176518
-0.00159407
-0.00144478
-0.00131538
-0.00120424
-0.00110991
-0.0010312
-0.000967089
-0.000916761
-0.000879569
-0.000855037
-0.000842848
-0.0723984
-0.0721655
-0.0709287
-0.0674979
-0.0633052
-0.0588815
-0.0542221
-0.0496381
-0.0452156
-0.0410314
-0.0371199
-0.0334987
-0.0301706
-0.027129
-0.0243617
-0.0218527
-0.0195844
-0.0175383
-0.0156961
-0.01404
-0.0125531
-0.0112195
-0.0100246
-0.00895464
-0.0079973
-0.00714123
-0.00637614
-0.00569273
-0.00508262
-0.00453825
-0.00405285
-0.00362034
-0.00323527
-0.00289278
-0.00258854
-0.00231868
-0.00207978
-0.00186879
-0.00168301
-0.00152008
-0.00137791
-0.00125468
-0.00114883
-0.001059
-0.000984028
-0.000922966
-0.000875029
-0.000839604
-0.000816237
-0.000804627
-0.0622784
-0.0634914
-0.0635164
-0.0611357
-0.0578642
-0.0541922
-0.0501574
-0.0461042
-0.0421334
-0.0383353
-0.0347554
-0.0314207
-0.0283411
-0.025516
-0.0229377
-0.0205941
-0.0184709
-0.0165523
-0.0148223
-0.0132652
-0.0118657
-0.0106093
-0.00948262
-0.00847313
-0.00756933
-0.00676072
-0.00603771
-0.00539165
-0.00481468
-0.00429972
-0.00384043
-0.00343109
-0.00306657
-0.00274231
-0.00245422
-0.00219865
-0.00197237
-0.0017725
-0.00159651
-0.00144214
-0.00130744
-0.00119069
-0.00109038
-0.00100525
-0.000934209
-0.000876342
-0.000830913
-0.00079734
-0.000775194
-0.000764191
-0.0530342
-0.0554412
-0.0565227
-0.0550541
-0.0526007
-0.0496062
-0.0461474
-0.0425922
-0.0390504
-0.0356231
-0.032365
-0.029311
-0.0264769
-0.023867
-0.0214778
-0.0193006
-0.0173239
-0.0155347
-0.0139191
-0.0124631
-0.011153
-0.00997593
-0.00891952
-0.00797234
-0.00712385
-0.00636433
-0.00568493
-0.00507759
-0.00453502
-0.00405063
-0.00361849
-0.00323326
-0.00289015
-0.00258488
-0.00231361
-0.00207294
-0.00185983
-0.00167157
-0.00150579
-0.00136037
-0.00123346
-0.00112346
-0.00102895
-0.000948736
-0.000881792
-0.000827264
-0.000784455
-0.000752817
-0.000731948
-0.000721579
-0.0446719
-0.0480331
-0.0499729
-0.0492771
-0.0475362
-0.0451432
-0.0422096
-0.039117
-0.0359796
-0.0329061
-0.0299588
-0.0271785
-0.0245857
-0.0221889
-0.019988
-0.0179774
-0.0161483
-0.0144898
-0.0129901
-0.0116369
-0.0104181
-0.009322
-0.00833757
-0.00745436
-0.00666271
-0.00595372
-0.00531926
-0.00475187
-0.00424484
-0.00379204
-0.00338798
-0.0030277
-0.00270676
-0.00242116
-0.00216734
-0.00194212
-0.00174267
-0.00156646
-0.00141127
-0.00127513
-0.00115632
-0.00105333
-0.000964842
-0.000889734
-0.00082705
-0.00077599
-0.000735902
-0.000706275
-0.000686732
-0.000677022
-0.0371834
-0.0412675
-0.0438732
-0.0438122
-0.0426777
-0.0408102
-0.0383504
-0.035684
-0.0329251
-0.0301879
-0.0275397
-0.0250256
-0.0226696
-0.0204834
-0.0184698
-0.0166259
-0.014945
-0.0134184
-0.012036
-0.0107873
-0.00966139
-0.00864803
-0.00773722
-0.00691954
-0.00618623
-0.00552918
-0.00494094
-0.0044147
-0.00394429
-0.00352409
-0.00314902
-0.00281453
-0.00251649
-0.00225124
-0.00201547
-0.00180624
-0.00162092
-0.00145718
-0.00131297
-0.00118645
-0.00107603
-0.000980305
-0.000898057
-0.000828242
-0.000769973
-0.000722508
-0.000685243
-0.000657701
-0.000639533
-0.000630508
-0.0305367
-0.0351371
-0.0382295
-0.0386694
-0.0380379
-0.0366214
-0.0345838
-0.0323063
-0.0298993
-0.0274797
-0.0251181
-0.0228618
-0.0207372
-0.0187583
-0.0169303
-0.0152523
-0.0137198
-0.0123257
-0.0110616
-0.00991837
-0.00888669
-0.00795734
-0.00712145
-0.00637056
-0.0056968
-0.00509283
-0.00455189
-0.00406781
-0.00363495
-0.00324818
-0.00290287
-0.00259486
-0.00232037
-0.00207604
-0.00185883
-0.00166604
-0.00149528
-0.00134439
-0.00121147
-0.00109486
-0.000993082
-0.000904839
-0.000829019
-0.000764658
-0.000710939
-0.000667179
-0.000632822
-0.00060743
-0.000590679
-0.000582356
-0.0247029
-0.0296207
-0.033026
-0.0338379
-0.0336095
-0.0325726
-0.0309069
-0.0289815
-0.0269
-0.0247801
-0.0226928
-0.0206861
-0.0187875
-0.0170128
-0.0153687
-0.0138561
-0.012472
-0.0112111
-0.0100662
-0.00902976
-0.00809355
-0.00724954
-0.00648988
-0.00580709
-0.00519411
-0.00464439
-0.00415185
-0.00371094
-0.00331655
-0.00296408
-0.00264932
-0.0023685
-0.00211821
-0.00189537
-0.00169725
-0.00152138
-0.00136559
-0.00122791
-0.00110663
-0.00100022
-0.000907334
-0.0008268
-0.0007576
-0.000698857
-0.000649825
-0.000609882
-0.000578521
-0.000555343
-0.000540053
-0.000532458
-0.0196229
-0.024695
-0.0282551
-0.0293184
-0.0294
-0.0286748
-0.0273322
-0.0257226
-0.0239406
-0.022102
-0.020276
-0.0185098
-0.0168311
-0.0152566
-0.0137939
-0.0124453
-0.0112092
-0.0100813
-0.00905611
-0.00812696
-0.00728696
-0.00652912
-0.00584659
-0.00523277
-0.00468146
-0.00418683
-0.00374349
-0.00334649
-0.00299129
-0.00267376
-0.00239014
-0.00213706
-0.00191144
-0.00171055
-0.00153192
-0.00137334
-0.00123284
-0.00110867
-0.000999276
-0.000903289
-0.000819498
-0.000746847
-0.000684417
-0.000631419
-0.000587181
-0.000551143
-0.000522847
-0.000501934
-0.000488138
-0.000481282
-0.0152703
-0.0203192
-0.0238796
-0.0250829
-0.0253869
-0.0249107
-0.0238453
-0.0225176
-0.021011
-0.0194367
-0.0178603
-0.0163265
-0.0148625
-0.0134847
-0.0122016
-0.0110162
-0.0099278
-0.0089334
-0.00802843
-0.00720748
-0.00646469
-0.00579409
-0.00518976
-0.00464599
-0.00415736
-0.0037188
-0.00332559
-0.00297337
-0.00265814
-0.00237629
-0.00212448
-0.00189975
-0.00169937
-0.00152093
-0.00136224
-0.00122135
-0.00109651
-0.000986168
-0.000888954
-0.000803647
-0.000729175
-0.0006646
-0.000609109
-0.000561999
-0.000522675
-0.000490639
-0.000465485
-0.000446894
-0.00043463
-0.000428539
-0.0115645
-0.0164531
-0.0198849
-0.0211286
-0.0215774
-0.0212926
-0.0204614
-0.0193833
-0.0181286
-0.0168017
-0.0154624
-0.0141522
-0.0128965
-0.0117111
-0.0106046
-0.0095804
-0.00863859
-0.00777701
-0.00699207
-0.00627938
-0.00563404
-0.00505104
-0.00452535
-0.00405211
-0.00362669
-0.00324471
-0.00290212
-0.00259515
-0.00232036
-0.0020746
-0.001855
-0.00165897
-0.00148417
-0.00132848
-0.00119001
-0.00106705
-0.000958096
-0.000861788
-0.00077693
-0.000702461
-0.000637446
-0.000581069
-0.00053262
-0.000491488
-0.000457153
-0.000429181
-0.000407217
-0.000390983
-0.000380274
-0.000374951
-0.00849609
-0.0130421
-0.0162147
-0.0174085
-0.0179316
-0.0177869
-0.0171514
-0.0162945
-0.0152717
-0.0141777
-0.0130655
-0.0119719
-0.0109199
-0.00992403
-0.00899242
-0.00812863
-0.0073332
-0.00660468
-0.00594033
-0.00533662
-0.00478959
-0.00429509
-0.00384898
-0.00344719
-0.00308586
-0.00276132
-0.00247015
-0.00220918
-0.00197552
-0.00176651
-0.00157971
-0.00141293
-0.00126419
-0.0011317
-0.00101384
-0.00090918
-0.00081643
-0.000734441
-0.000662194
-0.000598788
-0.000543429
-0.000495423
-0.000454166
-0.000419139
-0.000389899
-0.000366077
-0.000347372
-0.000333546
-0.000324427
-0.0003199
-0.00594356
-0.0100419
-0.0128584
-0.0139243
-0.0144642
-0.0144141
-0.0139392
-0.0132776
-0.0124671
-0.0115915
-0.0106952
-0.00980994
-0.00895552
-0.00814469
-0.00738468
-0.00667889
-0.00602813
-0.00543148
-0.0048869
-0.00439165
-0.00394261
-0.00353646
-0.00316988
-0.00283959
-0.00254244
-0.00227545
-0.00203586
-0.00182106
-0.0016287
-0.00145659
-0.00130275
-0.00116537
-0.00104284
-0.000933675
-0.000836561
-0.000750313
-0.000673872
-0.000606295
-0.000546744
-0.000494476
-0.00044884
-0.000409264
-0.00037525
-0.000346371
-0.000322263
-0.000302621
-0.000287198
-0.000275798
-0.000268278
-0.000264538
-0.00393144
-0.00738817
-0.00973858
-0.0106051
-0.011112
-0.0111173
-0.010774
-0.0102877
-0.00967474
-0.00900678
-0.00831923
-0.00763739
-0.00697737
-0.00634965
-0.00576029
-0.00521222
-0.00470632
-0.00424204
-0.00381795
-0.00343202
-0.00308189
-0.00276505
-0.00247896
-0.00222108
-0.001989
-0.00178042
-0.00159319
-0.00142531
-0.00127492
-0.00114035
-0.00102003
-0.000912587
-0.000816734
-0.00073133
-0.000655347
-0.000587858
-0.000528039
-0.000475153
-0.000428544
-0.000387635
-0.000351914
-0.000320934
-0.000294308
-0.000271701
-0.000252827
-0.000237451
-0.000225376
-0.000216451
-0.000210563
-0.000207646
-0.00227594
-0.00503643
-0.00685672
-0.00746847
-0.00790923
-0.00793449
-0.00769871
-0.00737018
-0.00693899
-0.00646713
-0.00597909
-0.00549338
-0.005022
-0.00457286
-0.00415054
-0.00375733
-0.003394
-0.0030603
-0.00275525
-0.00247749
-0.00222535
-0.00199709
-0.00179088
-0.00160495
-0.00143757
-0.00128709
-0.00115198
-0.0010308
-0.000922235
-0.000825061
-0.000738174
-0.000660565
-0.000591321
-0.000529619
-0.000474716
-0.000425946
-0.000382715
-0.00034449
-0.000310801
-0.000281228
-0.000255405
-0.000233008
-0.000213758
-0.000197412
-0.000183766
-0.000172648
-0.000163917
-0.000157463
-0.000153204
-0.000151079
-0.00107362
-0.0029068
-0.0040969
-0.0044144
-0.00475434
-0.00476926
-0.0046273
-0.00444499
-0.00418629
-0.00390566
-0.00361376
-0.00332241
-0.00303904
-0.00276863
-0.00251406
-0.00227679
-0.00205736
-0.00185568
-0.00167121
-0.00150314
-0.00135052
-0.00121228
-0.00108736
-0.000974682
-0.000873219
-0.000781979
-0.000700038
-0.000626531
-0.000560661
-0.000501695
-0.000448962
-0.000401854
-0.000359818
-0.000322356
-0.000289019
-0.000259403
-0.000233147
-0.000209931
-0.000189468
-0.000171504
-0.000155817
-0.00014221
-0.000130515
-0.000120583
-0.000112292
-0.000105536
-0.000100231
-9.6309e-05
-9.37211e-05
-9.24431e-05
-7.62975e-05
-0.000967446
-0.0014725
-0.00150881
-0.00170572
-0.00168974
-0.00163616
-0.00158429
-0.00148795
-0.00139091
-0.00128784
-0.00118493
-0.00108461
-0.000988767
-0.000898436
-0.000814149
-0.000736136
-0.000664376
-0.000598691
-0.000538813
-0.000484403
-0.000435098
-0.000390521
-0.000350294
-0.000314057
-0.000281457
-0.00025217
-0.000225888
-0.000202329
-0.000181232
-0.000162359
-0.000145495
-0.000130443
-0.000117024
-0.00010508
-9.44666e-05
-8.50555e-05
-7.67317e-05
-6.93932e-05
-6.295e-05
-5.7322e-05
-5.24398e-05
-4.82425e-05