/*--------------------------------*- C++ -*----------------------------------*\
  =========                 |
  \\      /  F ield         | OpenFOAM: The Open Source CFD Toolbox
   \\    /   O peration     | Website:  https://openfoam.org
    \\  /    A nd           | Version:  7
     \\/     M anipulation  |
\*---------------------------------------------------------------------------*/
FoamFile
{
    version     2.0;
    format      ascii;
    class       volVectorField;
    location    "35";
    object      U;
}
// * * * * * * * * * * * * * * * * * * * * * * * * * * * * * * * * * * * * * //

dimensions      [0 1 -1 0 0 0 0];

internalField   nonuniform List<vector> 
1360
(
(-0.00433239 0.00353701 2.33387e-21)
(-0.00954498 0.00443853 -6.53086e-20)
(-0.015298 0.00465666 -3.70279e-20)
(-0.0207189 0.0043958 2.3274e-20)
(-0.0253717 0.00379501 -3.98439e-21)
(-0.0289877 0.00295459 2.58976e-20)
(-0.0313923 0.0019472 -5.03277e-21)
(-0.032484 0.000825198 -4.29695e-20)
(-0.0322134 -0.000373074 1.14156e-19)
(-0.0305663 -0.00161819 1.48768e-20)
(-0.0275538 -0.00288518 -2.52371e-20)
(-0.0232088 -0.00414934 -5.09703e-20)
(-0.0175857 -0.00538205 5.28414e-21)
(-0.0107665 -0.00654636 4.92293e-20)
(-0.0028722 -0.00759295 -4.30084e-20)
(0.00592677 -0.00845794 6.45759e-20)
(0.015414 -0.00906083 -4.99417e-20)
(0.0253103 -0.00928852 -5.31847e-20)
(0.0350457 -0.00898568 6.41429e-20)
(-0.00157565 0.00468911 -1.15196e-19)
(-0.00513677 0.0100401 1.41543e-19)
(-0.00988579 0.0125524 2.37529e-20)
(-0.0146501 0.0131042 8.99205e-20)
(-0.0187028 0.0122816 9.75555e-20)
(-0.0216921 0.0104859 -2.00484e-19)
(-0.0234085 0.00800728 -5.63224e-20)
(-0.0237225 0.00505576 4.76909e-20)
(-0.0225657 0.00178283 -2.0904e-19)
(-0.0199131 -0.00170087 8.75553e-21)
(-0.0157694 -0.00531086 2.15218e-19)
(-0.0101605 -0.00897601 -2.81567e-20)
(-0.00313021 -0.0126268 -4.19492e-20)
(0.00525816 -0.0161829 -1.1382e-21)
(0.014916 -0.0195401 4.64912e-20)
(0.0257133 -0.0225568 1.2165e-19)
(0.0374641 -0.0250453 4.20395e-20)
(0.0499671 -0.0267547 -2.43163e-21)
(0.0630455 -0.027312 -2.23308e-19)
(0.0758747 -0.0262425 -1.49261e-19)
(-0.0024475 0.0070401 -6.148e-20)
(-0.00638659 0.0149177 6.88256e-20)
(-0.0100967 0.0184887 -8.31285e-20)
(-0.0128286 0.0190788 -1.76446e-19)
(-0.0141263 0.0175795 1.68284e-19)
(-0.0137953 0.0146098 1.8749e-19)
(-0.0117394 0.0106185 6.32946e-20)
(-0.00791426 0.00593091 -9.35149e-20)
(-0.00231567 0.000781427 -9.69962e-21)
(0.00503268 -0.0046591 1.28973e-19)
(0.0140885 -0.0102613 -1.1484e-19)
(0.0247955 -0.0159183 9.09774e-20)
(0.0370841 -0.0215283 -3.692e-20)
(0.0508705 -0.0269749 3.28858e-19)
(0.0660485 -0.0321054 -4.823e-19)
(0.082466 -0.0367075 -1.23198e-19)
(0.0999009 -0.0404859 4.42974e-19)
(0.118162 -0.0430035 -3.9894e-19)
(0.137263 -0.043532 -3.20537e-21)
(0.155972 -0.0412237 -7.44202e-20)
(-0.00339501 0.00835769 3.66652e-20)
(-0.00741457 0.0173587 3.49519e-19)
(-0.00928982 0.021151 -3.98611e-19)
(-0.00882838 0.0213311 9.87431e-20)
(-0.00593568 0.0189853 -1.2368e-20)
(-0.000630607 0.0148837 3.854e-20)
(0.00702811 0.00958701 2.36028e-19)
(0.0169648 0.00350181 -2.706e-19)
(0.0290919 -0.00307863 -7.57947e-21)
(0.0433145 -0.00994097 -4.62344e-19)
(0.0595314 -0.0169256 -5.05928e-20)
(0.0776364 -0.0239043 6.13045e-20)
(0.0975154 -0.0307593 2.45651e-19)
(0.119044 -0.0373597 -1.37018e-19)
(0.142081 -0.0435336 4.22575e-19)
(0.166431 -0.0490356 -6.06408e-19)
(0.191809 -0.0535047 7.28112e-19)
(0.217996 -0.0563266 -5.03224e-19)
(0.245248 -0.0562951 3.14382e-19)
(0.271944 -0.0520369 1.61084e-19)
(-0.00405021 0.00845461 1.2029e-19)
(-0.00733142 0.0169027 4.62428e-20)
(-0.00625569 0.0199139 2.48807e-19)
(-0.00125451 0.0191579 -1.44257e-19)
(0.00735448 0.0157866 -6.63782e-20)
(0.0193036 0.0106423 5.556e-19)
(0.0343484 0.00434151 -8.75772e-19)
(0.0522663 -0.00266985 7.04417e-19)
(0.0728528 -0.0100697 3.22623e-19)
(0.0959164 -0.0176246 -6.85833e-19)
(0.121273 -0.0251617 1.76617e-19)
(0.14874 -0.0325465 7.11214e-20)
(0.178131 -0.0396618 7.78431e-19)
(0.209254 -0.0463849 -8.46831e-19)
(0.241898 -0.0525574 -2.50254e-19)
(0.2758 -0.0579508 6.49987e-19)
(0.310579 -0.0622108 -5.39517e-19)
(0.345926 -0.0646206 3.67755e-19)
(0.382324 -0.0634279 3.18308e-19)
(0.417987 -0.0564687 -1.08787e-18)
(-0.0040061 0.00730704 -3.80045e-19)
(-0.00512518 0.0134847 1.20703e-19)
(0.000415119 0.0147073 -1.69305e-19)
(0.0115493 0.0125229 4.9039e-22)
(0.0275317 0.0080184 4.60944e-19)
(0.0478278 0.0020251 -8.97555e-19)
(0.0719872 -0.00484648 8.03619e-19)
(0.0996162 -0.0121577 -7.22518e-19)
(0.130367 -0.0195932 7.39719e-19)
(0.163921 -0.0269252 -6.48264e-19)
(0.19998 -0.033988 3.57607e-19)
(0.238249 -0.0406575 -8.68819e-19)
(0.278431 -0.0468334 1.08675e-18)
(0.320223 -0.05242 8.88293e-20)
(0.363304 -0.0573014 -2.76019e-19)
(0.407308 -0.0613138 -5.34978e-19)
(0.451729 -0.0641992 -2.91375e-20)
(0.496112 -0.0652874 5.94432e-19)
(0.541087 -0.062365 2.92368e-19)
(0.585094 -0.05223 -6.33576e-19)
(-0.00285385 0.00503916 -1.24125e-19)
(0.000244471 0.00742492 -5.50076e-20)
(0.0121978 0.00602966 -8.46292e-20)
(0.0313341 0.00210304 4.48636e-20)
(0.056489 -0.00345871 -6.13121e-19)
(0.0868539 -0.00991798 1.17417e-18)
(0.121755 -0.016734 -1.40297e-20)
(0.160604 -0.0235266 -4.26409e-20)
(0.202876 -0.0300272 -4.2089e-19)
(0.24809 -0.0360466 -8.03635e-20)
(0.295787 -0.0414527 -1.25889e-19)
(0.345514 -0.0461536 -7.08612e-19)
(0.396816 -0.0500843 6.70644e-19)
(0.449229 -0.0531918 -5.82683e-19)
(0.502277 -0.0554187 3.48979e-19)
(0.555443 -0.0566916 -3.03526e-19)
(0.608086 -0.0569039 5.5758e-19)
(0.659594 -0.0555712 -4.12056e-19)
(0.71064 -0.0502928 1.48009e-19)
(0.76041 -0.037101 7.52316e-19)
(-0.000204972 0.00189468 1.46673e-19)
(0.00976694 -0.000619738 -1.43726e-20)
(0.0304907 -0.00509478 -2.42808e-19)
(0.05974 -0.0107429 3.2877e-20)
(0.0959528 -0.0169791 5.21044e-19)
(0.138043 -0.023241 -1.00457e-18)
(0.185095 -0.0291233 5.84418e-19)
(0.236294 -0.0343609 -3.14961e-20)
(0.290899 -0.0387811 4.2654e-19)
(0.348222 -0.0422767 -4.74704e-19)
(0.407596 -0.0447883 3.87137e-19)
(0.468368 -0.0462912 -1.01682e-18)
(0.529887 -0.0467838 -5.63514e-19)
(0.591504 -0.0462763 1.16789e-18)
(0.652569 -0.0447791 -4.67618e-19)
(0.712415 -0.0423013 -3.0073e-19)
(0.770304 -0.0388423 4.07642e-19)
(0.82553 -0.0340735 8.8175e-19)
(0.878489 -0.0260207 -5.28969e-19)
(0.929199 -0.0122678 -1.42786e-19)
(0.00428943 -0.00178746 2.98841e-19)
(0.0243007 -0.00970456 -2.85561e-19)
(0.0564598 -0.0171861 -2.29184e-19)
(0.0980511 -0.0240679 -6.5273e-19)
(0.147145 -0.0301925 5.71813e-19)
(0.202372 -0.0352552 7.94278e-19)
(0.26255 -0.0390581 -4.00682e-19)
(0.3266 -0.0415165 4.66451e-19)
(0.393524 -0.0426157 -1.63859e-19)
(0.462381 -0.0423892 4.99479e-20)
(0.532264 -0.0409077 8.22345e-19)
(0.6023 -0.038269 -1.11689e-18)
(0.67165 -0.0345872 -3.98812e-20)
(0.73952 -0.0299824 2.287e-19)
(0.805179 -0.0245692 8.36882e-20)
(0.867975 -0.0184438 -8.46835e-20)
(0.927386 -0.0116244 2.42635e-19)
(0.983083 -0.00390837 -1.33626e-19)
(1.03472 0.00469241 -7.5103e-19)
(1.08126 0.0114658 6.81973e-19)
(0.0109194 -0.00558342 2.34824e-19)
(0.0444827 -0.018646 7.69589e-20)
(0.0908581 -0.0284088 -2.31881e-19)
(0.146927 -0.035491 2.71943e-19)
(0.210427 -0.0402799 -6.18313e-19)
(0.279696 -0.0428169 1.30872e-18)
(0.353261 -0.0431895 -8.91044e-19)
(0.429743 -0.0415684 -4.84244e-19)
(0.507855 -0.0381675 1.28084e-18)
(0.586376 -0.0332287 -1.00893e-18)
(0.664153 -0.0270166 1.23713e-18)
(0.740107 -0.0198114 -1.51235e-18)
(0.813244 -0.0119005 5.08652e-19)
(0.882682 -0.00357113 5.95665e-19)
(0.947668 0.00489575 -5.13042e-19)
(1.0076 0.0132341 -1.04281e-20)
(1.06208 0.0212245 -7.93659e-20)
(1.11089 0.0286541 -5.85821e-19)
(1.15362 0.0346392 4.26946e-19)
(1.18944 0.0373224 -1.18418e-19)
(0.0198803 -0.00899349 -3.11817e-19)
(0.0706218 -0.026075 1.17703e-19)
(0.133848 -0.0366909 -5.25341e-21)
(0.206157 -0.0424007 -4.64385e-19)
(0.285004 -0.0442535 6.2357e-19)
(0.368439 -0.0427279 -8.5598e-19)
(0.454686 -0.038279 7.83862e-20)
(0.542068 -0.0314071 2.50477e-19)
(0.629015 -0.0226198 -3.44792e-19)
(0.714072 -0.0124185 6.35447e-19)
(0.795912 -0.00129532 1.75035e-19)
(0.873358 0.0102761 7.26603e-20)
(0.945408 0.0218512 -7.21176e-19)
(1.01126 0.033026 7.31048e-19)
(1.07033 0.0434454 -3.90732e-19)
(1.12227 0.052815 2.88069e-19)
(1.16692 0.0609182 -6.03156e-19)
(1.20433 0.0675644 -3.40968e-19)
(1.23442 0.0722283 4.05186e-19)
(1.25672 0.0746041 1.05211e-19)
(0.0312229 -0.0114506 -3.03898e-19)
(0.102576 -0.030504 4.1929e-19)
(0.184832 -0.0398792 8.82272e-20)
(0.274473 -0.0422132 -7.67558e-20)
(0.368756 -0.0393213 2.07548e-19)
(0.46548 -0.0322065 5.10631e-19)
(0.562606 -0.0217667 -2.63636e-19)
(0.658217 -0.00889257 -1.98326e-19)
(0.75056 0.00557429 -5.17185e-19)
(0.838082 0.0208562 4.54081e-19)
(0.919459 0.0362454 -2.38932e-19)
(0.993634 0.0511156 1.01398e-20)
(1.05984 0.0649355 1.10423e-18)
(1.11762 0.0772795 -7.70918e-19)
(1.1668 0.0878341 6.79152e-19)
(1.20751 0.096403 -7.01033e-20)
(1.2401 0.10291 9.52368e-20)
(1.26508 0.107346 -2.21135e-19)
(1.28292 0.109577 -7.67215e-20)
(1.29395 0.110018 -4.03071e-19)
(0.0447984 -0.0123481 1.74846e-19)
(0.13964 -0.0304351 1.12239e-19)
(0.242336 -0.0359403 -7.28238e-20)
(0.349476 -0.0326624 -9.71322e-19)
(0.458256 -0.0232549 2.93563e-19)
(0.566321 -0.00930854 -7.10451e-20)
(0.671485 0.00779126 -3.97662e-20)
(0.771744 0.0267456 -5.10002e-20)
(0.865361 0.046393 8.35722e-20)
(0.95092 0.0657287 -6.15152e-19)
(1.02737 0.0839126 3.27823e-19)
(1.09405 0.100279 -5.00441e-19)
(1.15069 0.114343 6.46982e-20)
(1.19741 0.125802 -2.63584e-19)
(1.23465 0.134524 -9.73528e-20)
(1.26312 0.140537 5.00002e-19)
(1.2837 0.144001 -5.37942e-19)
(1.29738 0.145152 8.23596e-20)
(1.30501 0.144181 2.11302e-19)
(1.30732 0.141843 -2.24131e-19)
(0.060214 -0.0110931 2.70745e-19)
(0.180488 -0.0245154 -4.20495e-20)
(0.304 -0.0231995 -3.46678e-19)
(0.427728 -0.0121033 -4.76561e-20)
(0.54901 0.00527508 6.08742e-19)
(0.665519 0.0267475 -2.53527e-19)
(0.77513 0.0504591 2.3935e-19)
(0.876004 0.0747593 -2.6779e-19)
(0.9667 0.0982626 1.26525e-19)
(1.04624 0.119869 -1.20533e-19)
(1.11413 0.138764 5.35004e-19)
(1.17037 0.154411 -3.29102e-19)
(1.21539 0.166542 -3.66916e-20)
(1.25 0.175122 -4.28606e-20)
(1.27527 0.180315 7.1143e-20)
(1.29246 0.182438 -1.0884e-19)
(1.30285 0.181913 2.44868e-19)
(1.30769 0.179192 7.41546e-21)
(1.30805 0.174688 -3.64795e-19)
(1.3047 0.169236 -1.10768e-19)
(0.0768178 -0.00718089 -2.10723e-19)
(0.223191 -0.0117232 1.66932e-19)
(0.366687 -0.00059424 5.85913e-20)
(0.505004 0.0202158 -7.4088e-20)
(0.635889 0.0464558 -2.00666e-20)
(0.757306 0.0754189 8.54649e-20)
(0.867483 0.104893 -6.72503e-20)
(0.965063 0.133029 2.90573e-19)
(1.04921 0.158403 -2.00521e-19)
(1.11968 0.180028 9.5806e-20)
(1.17677 0.19732 -2.1559e-19)
(1.22128 0.210063 2.08415e-19)
(1.25439 0.218353 8.45034e-20)
(1.27758 0.222528 -2.33044e-19)
(1.29242 0.223093 2.36057e-19)
(1.3005 0.220651 -9.47794e-20)
(1.3033 0.215834 4.14158e-20)
(1.30211 0.209236 3.71293e-20)
(1.29794 0.201392 1.97993e-21)
(1.29143 0.193013 3.71052e-20)
(0.0937203 -0.000279853 -9.70191e-20)
(0.265329 0.00844393 1.61177e-19)
(0.426732 0.0321063 -9.90947e-20)
(0.576687 0.0639608 7.96191e-20)
(0.71367 0.0992226 -1.02202e-19)
(0.836254 0.134859 -1.51227e-20)
(0.94335 0.168521 4.37089e-20)
(1.0344 0.198409 -1.65115e-20)
(1.10945 0.22332 -1.7352e-20)
(1.16917 0.242619 8.6335e-20)
(1.21477 0.256164 -1.29975e-20)
(1.24783 0.264208 -4.69173e-20)
(1.27023 0.267301 9.39104e-20)
(1.28388 0.266174 -7.06142e-20)
(1.29066 0.261644 1.60047e-20)
(1.29228 0.254526 -2.11163e-20)
(1.29016 0.245566 5.92448e-20)
(1.28546 0.235413 -4.65213e-20)
(1.27898 0.224629 -6.71679e-21)
(1.27118 0.213646 -1.10473e-20)
(0.109858 0.00969049 5.63382e-20)
(0.304197 0.0358189 -1.71506e-19)
(0.480278 0.0741591 1.03819e-19)
(0.638238 0.117642 -1.59818e-20)
(0.777597 0.161308 2.98277e-20)
(0.897856 0.202108 -5.03608e-20)
(0.998913 0.237872 -3.26152e-20)
(1.08125 0.267166 6.76932e-21)
(1.14595 0.289289 7.85802e-20)
(1.19468 0.304186 -1.11523e-19)
(1.22947 0.312307 1.61181e-20)
(1.25259 0.314455 2.35001e-20)
(1.26636 0.311634 -3.353e-20)
(1.27293 0.304919 8.88718e-20)
(1.27425 0.295344 -3.08249e-20)
(1.27192 0.283828 2.32519e-20)
(1.26719 0.271133 -4.96215e-20)
(1.26096 0.257889 1.28732e-20)
(1.25381 0.244614 2.04925e-20)
(1.24602 0.231359 1.16432e-20)
(0.12409 0.0225047 1.11432e-19)
(0.337063 0.0694861 9.82538e-20)
(0.523674 0.123819 -3.39835e-20)
(0.685666 0.178687 -1.18809e-19)
(0.823856 0.229433 -6.31154e-20)
(0.938932 0.273397 1.49375e-19)
(1.03197 0.308965 6.09476e-20)
(1.10462 0.335391 -1.21742e-19)
(1.15901 0.352727 4.85719e-20)
(1.19769 0.361661 -4.21131e-22)
(1.22337 0.363306 1.60983e-19)
(1.23876 0.359 -6.29273e-20)
(1.24637 0.350134 -1.42861e-19)
(1.24839 0.338017 1.64638e-19)
(1.24664 0.323789 -6.67497e-20)
(1.2425 0.308369 9.57874e-20)
(1.23697 0.292451 -3.2041e-20)
(1.2307 0.276591 8.09411e-21)
(1.22401 0.261234 -1.58658e-20)
(1.21709 0.246026 -1.13891e-20)
(0.135315 0.0376115 -1.12969e-19)
(0.361459 0.107792 -2.31051e-19)
(0.553853 0.178433 3.65729e-19)
(0.715921 0.243636 2.02493e-19)
(0.84991 0.299604 -5.86692e-19)
(0.957813 0.344514 3.44761e-19)
(1.04195 0.377676 7.95992e-20)
(1.10507 0.399314 1.33598e-19)
(1.15024 0.41041 -1.07842e-21)
(1.18066 0.412459 -1.02527e-20)
(1.19949 0.407218 -2.6373e-19)
(1.20961 0.396477 1.76339e-19)
(1.21354 0.381897 6.0593e-20)
(1.21332 0.364901 -3.11847e-20)
(1.21052 0.346624 -7.74946e-20)
(1.20626 0.327905 9.38601e-21)
(1.20129 0.309323 -2.01803e-20)
(1.19602 0.291341 -1.44477e-21)
(1.19055 0.274319 5.50624e-20)
(1.18508 0.257506 -8.67511e-22)
(0.142592 0.0541548 -2.57704e-19)
(0.375445 0.14845 -1.12841e-19)
(0.56864 0.23464 -1.14879e-19)
(0.727167 0.308439 2.97177e-19)
(0.854651 0.367464 2.59931e-20)
(0.954349 0.411151 -1.06263e-19)
(1.02971 0.440043 -1.8312e-19)
(1.08439 0.455522 -1.57245e-20)
(1.12213 0.459569 9.69014e-22)
(1.14656 0.454461 2.10959e-19)
(1.16099 0.442502 -2.06521e-19)
(1.16827 0.425807 4.25932e-20)
(1.17075 0.406176 -9.62151e-20)
(1.17021 0.385035 3.61024e-20)
(1.16796 0.363431 8.4466e-22)
(1.16488 0.342071 -4.81043e-20)
(1.16148 0.321406 1.34225e-20)
(1.15798 0.301823 -1.35932e-20)
(1.15432 0.283586 2.30728e-20)
(1.15084 0.26546 -1.36791e-20)
(0.145248 0.0710339 1.08371e-19)
(0.377818 0.188718 1.29299e-19)
(0.566966 0.288658 -1.58714e-19)
(0.718912 0.36879 2.24217e-19)
(0.838414 0.428636 5.56841e-20)
(0.929763 0.469213 -2.71474e-19)
(0.997273 0.492491 6.57218e-20)
(1.04523 0.501079 5.74819e-20)
(1.07775 0.497922 7.53343e-20)
(1.09858 0.485971 -4.72046e-20)
(1.11097 0.467932 7.30407e-20)
(1.11758 0.446105 1.76236e-20)
(1.12047 0.422307 1.19791e-20)
(1.12116 0.397874 2.23068e-21)
(1.12068 0.373719 1.16507e-20)
(1.11971 0.350392 1.02729e-20)
(1.11861 0.328218 -6.04986e-21)
(0.142961 0.0870012 3.16468e-19)
(0.368238 0.225641 -2.25784e-19)
(0.54896 0.336594 1.04877e-20)
(0.692011 0.420477 -1.80279e-19)
(0.802843 0.479038 -1.60988e-19)
(0.88643 0.515065 2.42243e-19)
(0.947588 0.531993 -2.62586e-20)
(0.990875 0.533606 -8.34721e-21)
(1.02046 0.52368 1.52811e-20)
(1.03997 0.505678 -2.9595e-20)
(1.05241 0.482555 -2.40149e-21)
(1.06016 0.456654 4.03024e-20)
(1.06495 0.429711 -9.84335e-20)
(1.06802 0.402917 1.60512e-19)
(0.13577 0.100757 -2.46833e-20)
(0.347286 0.256306 -2.28106e-20)
(0.51593 0.374763 1.1919e-19)
(0.648534 0.459703 5.50447e-20)
(0.750703 0.515171 1.79197e-20)
(0.827638 0.545717 1.07398e-20)
(0.884225 0.556167 9.86649e-21)
(0.924941 0.551303 7.53619e-20)
(0.953732 0.535534 -5.52302e-20)
(0.973921 0.512648 -1.60456e-20)
(0.988162 0.485684 3.23799e-19)
(0.124183 0.111024 1.00478e-19)
(0.31643 0.278013 -2.7896e-20)
(0.470209 0.399991 1.37383e-20)
(0.591574 0.483325 -1.79759e-19)
(0.685639 0.534273 3.8393e-20)
(0.757312 0.558959 1.47901e-19)
(0.811154 0.563354 -2.70324e-19)
(0.851244 0.552989 2.78132e-19)
(0.881091 0.532667 1.76484e-19)
(0.109013 0.116816 2.51119e-20)
(0.277819 0.288668 -1.43804e-19)
(0.414999 0.409828 6.62903e-20)
(0.525016 0.489077 1.24194e-19)
(0.611884 0.534496 1.30756e-19)
(0.679762 0.55343 -4.48648e-19)
(0.732534 0.552647 6.3329e-19)
(0.0913662 0.117355 1.94248e-19)
(0.234216 0.286814 1.61922e-20)
(0.3541 0.402749 -5.05037e-19)
(0.453229 0.475697 7.83116e-21)
(0.534006 0.514978 -3.14901e-19)
(0.0725727 0.112222 -5.05133e-19)
(0.188727 0.271777 3.94777e-19)
(0.291637 0.378222 2.56364e-19)
(0.380797 0.44297 6.34231e-20)
(0.0540529 0.101389 3.80153e-20)
(0.144577 0.243731 1.03639e-19)
(0.231776 0.336754 1.15625e-19)
(0.312231 0.391735 -3.78154e-19)
(0.0372091 0.0852217 -1.73063e-19)
(0.104874 0.203681 5.77469e-19)
(0.178455 0.279845 -6.37926e-19)
(0.0233168 0.064459 -1.93628e-19)
(0.072397 0.153399 2.11096e-19)
(0.0134274 0.0401622 -2.38576e-19)
(0.0494083 0.095308 2.32775e-19)
(0.0434114 -0.00818246 4.50401e-20)
(0.0506686 -0.00766729 -1.53025e-19)
(0.0575503 -0.00745288 6.28797e-20)
(0.0644066 -0.00737878 5.33128e-20)
(0.0712768 -0.00737356 -9.36176e-21)
(0.0781804 -0.00741542 -4.3311e-20)
(0.0851531 -0.00749056 1.67953e-20)
(0.0922226 -0.00758634 -2.02016e-20)
(0.0994032 -0.00769295 -1.30362e-20)
(0.106701 -0.00780345 3.11326e-20)
(0.114116 -0.00791282 -1.51289e-20)
(0.121644 -0.0080173 6.97724e-21)
(0.129281 -0.00811412 8.19495e-21)
(0.137016 -0.00820126 -4.637e-20)
(0.144839 -0.00827733 6.48536e-21)
(0.15274 -0.00834145 1.3412e-20)
(0.160705 -0.00839315 2.64978e-21)
(0.168724 -0.00843227 -3.41851e-21)
(0.176784 -0.00845893 1.60254e-20)
(0.0851602 -0.0238314 -2.55109e-20)
(0.0915573 -0.0224362 6.06409e-20)
(0.0976117 -0.0218948 1.47993e-19)
(0.103955 -0.0217153 -1.00687e-20)
(0.11043 -0.021718 1.08552e-19)
(0.116965 -0.0218549 -8.04693e-20)
(0.123588 -0.0220885 -2.15357e-20)
(0.130324 -0.0223809 -1.07914e-19)
(0.137184 -0.0227033 8.28908e-20)
(0.144165 -0.0230352 9.44137e-20)
(0.151264 -0.0233619 -9.02847e-20)
(0.158475 -0.0236725 -3.68778e-20)
(0.165787 -0.0239589 3.92919e-20)
(0.173192 -0.0242153 -1.26179e-19)
(0.180676 -0.0244379 1.31026e-19)
(0.188228 -0.0246243 -9.88084e-20)
(0.195835 -0.0247733 9.85387e-20)
(0.203486 -0.0248848 -2.58057e-20)
(0.211169 -0.0249592 -1.03986e-19)
(0.166714 -0.0372078 5.52829e-19)
(0.17145 -0.0353724 -2.94007e-19)
(0.175819 -0.0348284 -2.49618e-19)
(0.181064 -0.034695 5.72025e-19)
(0.186689 -0.0347805 -3.00148e-19)
(0.192439 -0.035063 4.85842e-20)
(0.198319 -0.0354917 -7.31536e-20)
(0.204355 -0.0360051 7.75803e-21)
(0.210542 -0.0365567 2.29262e-19)
(0.216864 -0.0371153 -1.78847e-19)
(0.223306 -0.0376581 1.8281e-19)
(0.229855 -0.0381685 -6.67223e-20)
(0.236496 -0.038634 -3.91472e-20)
(0.243215 -0.0390464 1.52269e-19)
(0.249998 -0.0394005 4.88169e-20)
(0.256832 -0.0396933 -3.97089e-19)
(0.263704 -0.0399239 1.15348e-19)
(0.270603 -0.0400926 1.18901e-19)
(0.277517 -0.0402008 -2.21047e-20)
(0.283979 -0.0464841 -6.35875e-19)
(0.28637 -0.0449081 6.3242e-19)
(0.288239 -0.0449365 -1.48361e-19)
(0.291755 -0.0451574 -5.3424e-19)
(0.296016 -0.0455039 3.62344e-19)
(0.300509 -0.0460624 -1.49509e-19)
(0.305205 -0.046783 1.32699e-19)
(0.310127 -0.0475814 -3.72537e-20)
(0.315245 -0.0484003 -1.05287e-19)
(0.320517 -0.0492045 2.33982e-19)
(0.325913 -0.0499687 -1.09718e-19)
(0.331408 -0.0506736 1.27411e-19)
(0.336982 -0.051306 -1.85027e-19)
(0.342615 -0.0518578 -4.04086e-20)
(0.348291 -0.0523244 1.90465e-20)
(0.353998 -0.0527041 -8.46532e-20)
(0.359722 -0.0529975 4.12105e-19)
(0.365454 -0.0532065 -1.39914e-19)
(0.371184 -0.0533342 -1.64213e-19)
(0.376906 -0.0533845 -6.57627e-20)
(0.430309 -0.0497119 6.79156e-19)
(0.429887 -0.0493208 1.62774e-20)
(0.428725 -0.0507149 -5.6507e-19)
(0.430014 -0.0517647 -6.06283e-20)
(0.432453 -0.0526868 1.22617e-18)
(0.435241 -0.053765 -6.73119e-19)
(0.438315 -0.0549553 4.51866e-19)
(0.441687 -0.0561541 -1.41037e-19)
(0.445296 -0.057309 -2.7935e-19)
(0.44907 -0.0583962 8.16289e-20)
(0.452963 -0.0593971 3.58289e-20)
(0.456941 -0.0602978 -2.77503e-20)
(0.460979 -0.0610895 -2.16971e-19)
(0.465058 -0.0617687 1.10678e-19)
(0.469161 -0.0623349 1.00978e-19)
(0.473277 -0.06279 -2.3727e-19)
(0.477397 -0.0631373 2.38632e-19)
(0.481515 -0.0633815 7.52004e-20)
(0.485625 -0.0635277 4.30464e-21)
(0.489722 -0.0635819 -1.3401e-19)
(0.596158 -0.0452269 -3.64292e-19)
(0.592977 -0.0471987 1.03327e-19)
(0.58897 -0.0508425 6.74638e-19)
(0.588003 -0.0532651 -7.53469e-19)
(0.588408 -0.0551655 5.8926e-19)
(0.589173 -0.0570724 1.06542e-20)
(0.590235 -0.0589335 -2.8007e-19)
(0.591606 -0.0606483 4.6382e-19)
(0.5932 -0.0622039 -9.99453e-20)
(0.594935 -0.0636092 -6.20514e-19)
(0.596766 -0.0648655 -2.47477e-19)
(0.598665 -0.0659723 8.47579e-19)
(0.600611 -0.0669326 -4.37375e-20)
(0.602592 -0.067751 1.09006e-19)
(0.604597 -0.0684334 -6.88262e-19)
(0.606622 -0.0689858 -1.00915e-19)
(0.608662 -0.069415 4.63609e-19)
(0.610714 -0.0697279 -1.60224e-19)
(0.612779 -0.0699314 3.71785e-19)
(0.614853 -0.0700326 -1.94788e-19)
(0.616937 -0.0700383 1.31524e-20)
(0.769563 -0.0320751 -9.23051e-19)
(0.765105 -0.0381535 1.16236e-18)
(0.759785 -0.0448339 -1.64199e-18)
(0.757219 -0.0491325 6.2344e-19)
(0.755581 -0.0524735 -3.43242e-19)
(0.753993 -0.0555245 4.43223e-19)
(0.752525 -0.0582187 5.09026e-20)
(0.75124 -0.0605309 1.24097e-19)
(0.750094 -0.0625336 -1.03197e-19)
(0.749051 -0.0642854 -2.57521e-19)
(0.748101 -0.0658176 -1.01038e-19)
(0.747243 -0.0671525 3.13486e-19)
(0.746472 -0.068309 3.13618e-19)
(0.745784 -0.0693026 1.77933e-19)
(0.745178 -0.0701452 -8.55438e-19)
(0.744652 -0.0708471 6.42707e-19)
(0.744203 -0.0714172 -5.47265e-19)
(0.743831 -0.0718636 1.07555e-19)
(0.743531 -0.0721938 1.38506e-19)
(0.743304 -0.072415 5.44359e-19)
(0.743145 -0.0725341 -3.97554e-19)
(0.743052 -0.0725578 -1.64349e-19)
(0.941399 -0.014745 9.86224e-19)
(0.939366 -0.0255687 -9.38853e-19)
(0.934678 -0.0338674 -2.6051e-19)
(0.930299 -0.0392235 1.42284e-19)
(0.925502 -0.0435847 -3.94587e-19)
(0.920311 -0.0474353 -1.61572e-19)
(0.91509 -0.0507555 8.12398e-19)
(0.910004 -0.0536329 3.68874e-19)
(0.905104 -0.056177 -5.81839e-19)
(0.900422 -0.0584473 7.87095e-19)
(0.895981 -0.0604763 -5.81631e-19)
(0.891785 -0.0622888 -5.82777e-19)
(0.88783 -0.0639044 5.46274e-19)
(0.884108 -0.0653376 -1.52535e-19)
(0.880608 -0.0665999 -4.24362e-19)
(0.877318 -0.0677011 1.04108e-18)
(0.874227 -0.06865 -7.71734e-19)
(0.871322 -0.0694545 -2.09326e-19)
(0.868594 -0.0701224 6.68866e-19)
(0.866032 -0.0706612 -6.64088e-20)
(0.863625 -0.071078 -9.18167e-20)
(0.861367 -0.0713801 1.63792e-19)
(0.859247 -0.0715746 -4.04701e-19)
(1.13281 0.0109299 2.53126e-27)
(1.11803 0.000943752 -5.08786e-27)
(1.10437 -0.00701618 2.42816e-27)
(1.0912 -0.013829 -4.97931e-27)
(1.0789 -0.0199021 0)
(1.06763 -0.0252974 0)
(1.05733 -0.0300885 0)
(1.04788 -0.0343704 0)
(1.03915 -0.0382161 0)
(1.03109 -0.0416777 -6.9933e-28)
(1.0236 -0.0447965 -4.18946e-27)
(1.01663 -0.0476067 0)
(1.01012 -0.0501367 0)
(1.00403 -0.0524103 0)
(0.998312 -0.0544475 0)
(0.99293 -0.0562661 0)
(0.987857 -0.0578812 0)
(0.983066 -0.0593069 1.63786e-27)
(0.978536 -0.0605557 -3.30568e-27)
(0.974247 -0.0616391 3.70799e-11)
(0.970181 -0.0625679 3.59296e-11)
(0.966324 -0.0633521 1.44479e-27)
(0.962663 -0.0640013 -2.91262e-27)
(0.959184 -0.0645244 0)
(1.2206 0.0346117 -2.53712e-27)
(1.21219 0.0264481 5.09454e-27)
(1.20272 0.0180629 -2.4313e-27)
(1.19276 0.00991877 4.98567e-27)
(1.18284 0.00234926 0)
(1.17314 -0.00455312 0)
(1.16374 -0.0108098 0)
(1.15466 -0.0164661 0)
(1.14593 -0.0215685 0)
(1.13757 -0.0261667 7.00196e-28)
(1.12958 -0.0303073 4.19463e-27)
(1.12195 -0.0340345 0)
(1.11467 -0.0373882 0)
(1.10771 -0.0404036 0)
(1.10107 -0.0431114 0)
(1.09473 -0.0455388 0)
(1.08867 -0.0477093 0)
(1.08287 -0.049644 -1.63989e-27)
(1.07733 -0.0513614 3.30979e-27)
(1.07203 -0.0528782 -3.71261e-11)
(1.06695 -0.0542095 -3.59746e-11)
(1.06208 -0.055369 -1.44661e-27)
(1.05742 -0.0563692 2.91629e-27)
(1.05295 -0.0572217 0)
(1.26624 0.0482338 0)
(1.2614 0.0403961 0)
(1.25506 0.0326603 1.12357e-28)
(1.24843 0.0251589 5.54891e-28)
(1.24176 0.0180626 0)
(1.23499 0.0114209 0)
(1.22811 0.0052282 9.1988e-28)
(1.22117 -0.000527375 1.32128e-27)
(1.21424 -0.00585761 8.87109e-28)
(1.20737 -0.0107761 -4.39454e-11)
(1.2006 -0.0153037 -8.60881e-11)
(1.19394 -0.019463 -4.21243e-11)
(1.18741 -0.0232757 -9.37825e-29)
(1.18104 -0.0267635 -4.025e-11)
(1.17482 -0.0299471 -3.93036e-11)
(1.16877 -0.0328466 0)
(1.16289 -0.0354808 -8.51705e-29)
(1.15718 -0.0378673 0)
(1.15163 -0.0400229 -3.55284e-11)
(1.14625 -0.041963 -3.45987e-11)
(1.14103 -0.0437021 0)
(1.13598 -0.0452537 0)
(1.13108 -0.0466305 0)
(1.12633 -0.0478445 0)
(1.28697 0.0572355 0)
(1.28462 0.049636 0)
(1.28046 0.0423522 -1.12357e-28)
(1.27611 0.035378 -5.54891e-28)
(1.27179 0.0287526 0)
(1.26733 0.022489 0)
(1.26266 0.0165835 -9.1988e-28)
(1.2578 0.0110301 -1.32128e-27)
(1.25282 0.00582272 -8.87109e-28)
(1.24776 0.000955642 4.39454e-11)
(1.24264 -0.00358273 8.60881e-11)
(1.23748 -0.00780467 4.21243e-11)
(1.23232 -0.0117234 9.37825e-29)
(1.22717 -0.0153529 4.025e-11)
(1.22205 -0.0187068 3.93036e-11)
(1.21697 -0.0217991 0)
(1.21194 -0.0246433 8.51705e-29)
(1.20698 -0.027253 0)
(1.2021 -0.029641 3.55284e-11)
(1.19729 -0.0318201 3.45987e-11)
(1.19257 -0.0338021 0)
(1.18793 -0.0355987 0)
(1.18339 -0.0372209 0)
(1.17894 -0.0386792 0)
(1.29117 0.0620579 4.07476e-11)
(1.29072 0.0548851 4.03479e-11)
(1.28839 0.0480736 0)
(1.28584 0.0416036 0)
(1.28332 0.0354554 0)
(1.28062 0.0296209 3.95374e-11)
(1.27768 0.0240958 3.92409e-11)
(1.27451 0.0188745 0)
(1.27117 0.0139504 0)
(1.26768 0.0093143 0)
(1.26407 0.00495899 0)
(1.26035 0.000876203 0)
(1.25655 -0.00294381 0)
(1.25268 -0.00651087 0)
(1.24877 -0.00983522 0)
(1.24482 -0.0129271 0)
(1.24085 -0.0157968 0)
(1.23687 -0.0184542 0)
(1.23289 -0.0209093 0)
(1.22893 -0.023172 0)
(1.22499 -0.0252519 0)
(1.22107 -0.0271582 0)
(1.21719 -0.0289 2.97289e-11)
(1.21335 -0.0304862 2.90383e-11)
(1.28554 0.0632136 -4.07513e-11)
(1.2865 0.0567133 -4.03479e-11)
(1.28567 0.0505292 0)
(1.28457 0.0446559 0)
(1.28343 0.0390582 0)
(1.28209 0.0337221 -3.95374e-11)
(1.28048 0.0286452 -3.92409e-11)
(1.27863 0.0238251 0)
(1.27658 0.0192571 0)
(1.27435 0.0149351 0)
(1.27197 0.0108534 0)
(1.26944 0.0070054 0)
(1.2668 0.00338433 0)
(1.26404 -1.66763e-05 0)
(1.2612 -0.00320522 0)
(1.25828 -0.00618899 0)
(1.2553 -0.00897576 0)
(1.25227 -0.0115733 0)
(1.24919 -0.0139894 0)
(1.24609 -0.0162317 0)
(1.24296 -0.0183081 0)
(1.23982 -0.0202259 0)
(1.23668 -0.0219927 -2.97289e-11)
(1.23353 -0.0236157 -2.90383e-11)
(1.27518 0.0617965 0)
(1.27705 0.0560729 0)
(1.27731 0.0505863 1.49483e-27)
(1.27727 0.0453507 -2.07145e-27)
(1.27715 0.0403353 1.50743e-27)
(1.27681 0.0355284 0)
(1.2762 0.0309313 -2.64173e-28)
(1.27534 0.0265455 0)
(1.27427 0.0223696 0)
(1.27301 0.0184007 0)
(1.27158 0.0146353 0)
(1.26999 0.0110693 0)
(1.26826 0.00769858 0)
(1.2664 0.00451789 0)
(1.26444 0.00152209 0)
(1.26237 -0.00129432 0)
(1.26022 -0.00393715 0)
(1.25799 -0.00641241 0)
(1.2557 -0.00872619 0)
(1.25335 -0.0108846 0)
(1.25095 -0.0128938 0)
(1.24851 -0.0147599 1.29152e-27)
(1.24604 -0.0164891 -1.75046e-27)
(1.24355 -0.0180873 1.24459e-27)
(1.26325 0.058791 0)
(1.26561 0.05382 0)
(1.2666 0.0490145 -1.49483e-27)
(1.26729 0.0444013 2.07145e-27)
(1.26787 0.0399576 -1.50743e-27)
(1.26824 0.0356755 0)
(1.26834 0.0315596 2.64173e-28)
(1.2682 0.0276144 0)
(1.26785 0.0238412 0)
(1.2673 0.0202396 0)
(1.26658 0.0168084 0)
(1.2657 0.0135457 0)
(1.26466 0.0104493 0)
(1.2635 0.0075161 0)
(1.26221 0.00474267 0)
(1.26082 0.00212515 0)
(1.25932 -0.000340574 0)
(1.25773 -0.00265893 0)
(1.25607 -0.00483455 0)
(1.25433 -0.0068722 0)
(1.25254 -0.00877675 0)
(1.25069 -0.0105531 -1.29152e-27)
(1.24879 -0.0122063 1.75046e-27)
(1.24685 -0.0137412 -1.24459e-27)
(1.25139 0.0548679 0)
(1.25398 0.0505788 -2.58065e-11)
(1.25543 0.0464021 -2.63372e-11)
(1.25661 0.0423683 2.67226e-11)
(1.25766 0.0384617 5.62291e-28)
(1.2585 0.0346784 -2.7416e-11)
(1.25909 0.0310248 -1.52748e-27)
(1.25945 0.0275072 -3.90831e-28)
(1.25961 0.024129 -1.54446e-27)
(1.25958 0.0208915 -3.93515e-28)
(1.25937 0.0177954 -2.42494e-27)
(1.25901 0.0148405 0)
(1.2585 0.012026 1.16057e-27)
(1.25785 0.00935063 0)
(1.25708 0.00681227 2.76915e-11)
(1.25619 0.00440856 1.18839e-27)
(1.25519 0.00213665 -2.72888e-11)
(1.2541 -6.56431e-06 0)
(1.25293 -0.00202446 -2.6773e-11)
(1.25168 -0.00392066 -2.64792e-11)
(1.25035 -0.00569892 2.2609e-27)
(1.24896 -0.00736314 0)
(1.24752 -0.0089173 -2.2019e-27)
(1.24602 -0.0103655 0)
(1.24036 0.0504491 0)
(1.24303 0.0467635 2.58065e-11)
(1.24477 0.0431524 2.63372e-11)
(1.24625 0.0396454 -2.67226e-11)
(1.24761 0.0362322 -5.62291e-28)
(1.24876 0.032912 2.7416e-11)
(1.24968 0.029692 1.52748e-27)
(1.25039 0.0265795 3.90831e-28)
(1.25091 0.0235787 1.54446e-27)
(1.25125 0.0206926 3.93515e-28)
(1.25142 0.0179228 2.42494e-27)
(1.25144 0.0152705 0)
(1.2513 0.0127361 -1.16057e-27)
(1.25104 0.0103193 0)
(1.25065 0.00801931 -2.76915e-11)
(1.25014 0.00583475 -1.18839e-27)
(1.24953 0.00376391 2.72888e-11)
(1.24881 0.0018047 0)
(1.24801 -4.52796e-05 2.6773e-11)
(1.24713 -0.00178865 2.64792e-11)
(1.24617 -0.00342828 -2.2609e-27)
(1.24514 -0.00496717 0)
(1.24405 -0.00640847 2.2019e-27)
(1.2429 -0.00775543 0)
(1.23042 0.0457806 0)
(1.23309 0.0426251 0)
(1.23501 0.039518 9.02845e-28)
(1.23669 0.036486 0)
(1.23824 0.0335225 0)
(1.2396 0.0306283 0)
(1.24075 0.0278111 0)
(1.24171 0.0250781 0)
(1.24248 0.0224342 -1.33611e-27)
(1.24308 0.019883 0)
(1.24353 0.0174269 2.1246e-27)
(1.24382 0.0150678 0)
(1.24397 0.012807 0)
(1.24399 0.010645 -2.1447e-27)
(1.24389 0.00858172 0)
(1.24367 0.00661677 2.14108e-27)
(1.24334 0.00474919 -1.02555e-27)
(1.24292 0.0029777 0)
(1.2424 0.00130071 0)
(1.2418 -0.000283655 0)
(1.24112 -0.00177748 2.08488e-27)
(1.24036 -0.00318305 0)
(1.23955 -0.0045028 0)
(1.23867 -0.00573932 0)
(1.22161 0.0409937 0)
(1.22424 0.0383056 0)
(1.22627 0.0356485 -9.02845e-28)
(1.22809 0.0330453 0)
(1.22977 0.0304917 0)
(1.23127 0.0279895 0)
(1.23258 0.0255459 0)
(1.23371 0.0231678 0)
(1.23467 0.0208603 1.33611e-27)
(1.23547 0.0186271 0)
(1.23611 0.0164711 -2.1246e-27)
(1.23661 0.0143946 0)
(1.23698 0.0123994 0)
(1.23721 0.0104865 2.1447e-27)
(1.23733 0.00865641 0)
(1.23733 0.00690928 -2.14108e-27)
(1.23722 0.00524479 1.02555e-27)
(1.23702 0.00366226 0)
(1.23672 0.00216071 0)
(1.23634 0.000738898 0)
(1.23587 -0.000604673 -2.08488e-27)