/*--------------------------------*- C++ -*----------------------------------*\
  =========                 |
  \\      /  F ield         | OpenFOAM: The Open Source CFD Toolbox
   \\    /   O peration     | Website:  https://openfoam.org
    \\  /    A nd           | Version:  7
     \\/     M anipulation  |
\*---------------------------------------------------------------------------*/
FoamFile
{
    version     2.0;
    format      ascii;
    class       volScalarField;
    location    "50.001";
    object      p;
}
// * * * * * * * * * * * * * * * * * * * * * * * * * * * * * * * * * * * * * //

dimensions      [0 2 -2 0 0 0 0];

internalField   nonuniform List<scalar> 
3700
(
-0.225363
-0.21676
-0.208365
-0.200283
-0.192513
-0.185092
-0.178051
-0.171395
-0.165122
-0.159225
-0.153695
-0.148522
-0.143699
-0.139215
-0.13506
-0.131224
-0.127696
-0.124467
-0.121528
-0.118868
-0.116478
-0.114352
-0.112481
-0.110859
-0.109479
-0.108337
-0.107429
-0.10675
-0.106299
-0.106074
-0.224819
-0.216581
-0.208569
-0.200838
-0.193386
-0.186255
-0.179472
-0.173048
-0.16698
-0.161264
-0.155893
-0.150862
-0.146162
-0.141785
-0.137723
-0.133966
-0.130506
-0.127335
-0.124443
-0.121824
-0.119468
-0.117369
-0.115521
-0.113917
-0.112551
-0.111421
-0.110521
-0.109849
-0.109402
-0.109178
-0.223941
-0.216017
-0.208355
-0.200954
-0.193809
-0.186962
-0.180441
-0.174253
-0.168399
-0.162874
-0.157675
-0.152795
-0.148229
-0.14397
-0.14001
-0.136343
-0.132962
-0.129858
-0.127024
-0.124454
-0.12214
-0.120076
-0.118258
-0.116678
-0.115332
-0.114218
-0.11333
-0.112667
-0.112226
-0.112005
-0.222768
-0.21513
-0.207809
-0.200726
-0.193873
-0.187298
-0.18103
-0.175075
-0.169434
-0.164103
-0.159079
-0.154356
-0.14993
-0.145795
-0.141946
-0.138377
-0.135081
-0.132051
-0.129283
-0.126769
-0.124503
-0.122481
-0.120697
-0.119146
-0.117825
-0.11673
-0.115857
-0.115205
-0.114771
-0.114554
-0.221318
-0.21394
-0.206973
-0.200207
-0.193632
-0.187316
-0.181291
-0.175564
-0.170132
-0.164992
-0.160142
-0.155577
-0.151294
-0.147287
-0.143553
-0.140086
-0.13688
-0.13393
-0.131232
-0.128779
-0.126567
-0.124591
-0.122846
-0.121328
-0.120035
-0.118961
-0.118106
-0.117467
-0.117041
-0.116829
-0.219596
-0.212445
-0.205865
-0.199411
-0.193101
-0.187036
-0.181249
-0.175743
-0.170516
-0.165565
-0.160887
-0.15648
-0.15234
-0.148464
-0.144847
-0.141484
-0.138373
-0.135507
-0.132882
-0.130495
-0.12834
-0.126413
-0.124711
-0.12323
-0.121966
-0.120917
-0.120081
-0.119456
-0.11904
-0.118832
-0.217579
-0.210661
-0.204507
-0.198337
-0.19228
-0.186464
-0.180913
-0.175626
-0.1706
-0.165834
-0.161328
-0.157079
-0.153083
-0.149338
-0.14584
-0.142585
-0.13957
-0.136791
-0.134244
-0.131925
-0.12983
-0.127956
-0.126299
-0.124856
-0.123625
-0.122603
-0.121788
-0.121178
-0.120772
-0.12057
-0.215307
-0.208629
-0.202922
-0.196982
-0.191177
-0.185613
-0.180295
-0.175222
-0.170394
-0.165813
-0.161477
-0.157384
-0.153533
-0.14992
-0.146543
-0.143398
-0.140482
-0.137792
-0.135325
-0.133077
-0.131045
-0.129226
-0.127617
-0.126216
-0.125019
-0.124025
-0.123232
-0.122639
-0.122244
-0.122047
-0.212747
-0.206481
-0.201103
-0.195356
-0.189814
-0.1845
-0.179409
-0.174544
-0.169911
-0.165512
-0.161346
-0.15741
-0.153703
-0.150223
-0.146968
-0.143934
-0.141119
-0.13852
-0.136135
-0.13396
-0.131994
-0.130232
-0.128673
-0.127314
-0.126154
-0.12519
-0.12442
-0.123844
-0.123461
-0.123269
-0.210011
-0.204248
-0.199
-0.193501
-0.188222
-0.183143
-0.178268
-0.173607
-0.169166
-0.164947
-0.160948
-0.157169
-0.153607
-0.15026
-0.147126
-0.144204
-0.141492
-0.138986
-0.136684
-0.134585
-0.132685
-0.130982
-0.129475
-0.12816
-0.127037
-0.126104
-0.125359
-0.124801
-0.12443
-0.124244
-0.207153
-0.201781
-0.196661
-0.191451
-0.186413
-0.181554
-0.176886
-0.172425
-0.168173
-0.164132
-0.160299
-0.156674
-0.153255
-0.150042
-0.147031
-0.144222
-0.141612
-0.1392
-0.136983
-0.13496
-0.133128
-0.131485
-0.130031
-0.128762
-0.127677
-0.126776
-0.126056
-0.125517
-0.125158
-0.124979
-0.204137
-0.199059
-0.194137
-0.189192
-0.184385
-0.179739
-0.175278
-0.171012
-0.166946
-0.16308
-0.159411
-0.155939
-0.152663
-0.149581
-0.146693
-0.143996
-0.14149
-0.139172
-0.137041
-0.135095
-0.133332
-0.131751
-0.13035
-0.129127
-0.128082
-0.127213
-0.126519
-0.125999
-0.125653
-0.12548
-0.20094
-0.196123
-0.191429
-0.186728
-0.182143
-0.17771
-0.173452
-0.169381
-0.165498
-0.161803
-0.158296
-0.154976
-0.151841
-0.148891
-0.146125
-0.14354
-0.141137
-0.138914
-0.136869
-0.135
-0.133307
-0.131788
-0.130441
-0.129266
-0.12826
-0.127424
-0.126757
-0.126256
-0.125923
-0.125757
-0.197569
-0.193003
-0.188537
-0.184067
-0.179701
-0.175478
-0.171422
-0.167541
-0.163838
-0.160313
-0.156966
-0.153796
-0.150801
-0.147982
-0.145337
-0.142865
-0.140565
-0.138436
-0.136477
-0.134686
-0.133063
-0.131606
-0.130314
-0.129186
-0.128221
-0.127418
-0.126777
-0.126297
-0.125977
-0.125817
-0.194036
-0.189712
-0.185468
-0.181223
-0.177071
-0.173056
-0.169197
-0.165505
-0.16198
-0.158622
-0.155433
-0.152411
-0.149555
-0.146865
-0.14434
-0.14198
-0.139783
-0.137748
-0.135875
-0.134162
-0.132609
-0.131214
-0.129977
-0.128897
-0.127973
-0.127203
-0.126589
-0.126128
-0.125822
-0.125668
-0.190352
-0.186259
-0.182232
-0.178208
-0.174267
-0.170455
-0.166792
-0.163283
-0.159933
-0.156741
-0.153708
-0.150832
-0.148114
-0.145552
-0.143146
-0.140896
-0.138801
-0.13686
-0.135073
-0.133438
-0.131955
-0.130623
-0.129441
-0.128408
-0.127524
-0.126789
-0.126201
-0.125761
-0.125467
-0.125321
-0.186522
-0.182654
-0.178841
-0.175031
-0.171299
-0.167688
-0.164215
-0.160888
-0.15771
-0.154682
-0.151802
-0.149071
-0.146488
-0.144053
-0.141766
-0.139626
-0.137632
-0.135784
-0.134082
-0.132524
-0.131111
-0.129841
-0.128714
-0.127729
-0.126886
-0.126184
-0.125623
-0.125203
-0.124923
-0.124783
-0.182556
-0.178907
-0.175302
-0.171705
-0.168178
-0.164763
-0.161478
-0.158331
-0.155322
-0.152454
-0.149726
-0.147138
-0.144689
-0.14238
-0.140209
-0.138177
-0.136284
-0.134529
-0.132911
-0.13143
-0.130086
-0.128878
-0.127806
-0.126868
-0.126066
-0.125397
-0.124863
-0.124463
-0.124196
-0.124063
-0.178462
-0.175025
-0.171627
-0.168238
-0.164912
-0.161692
-0.158592
-0.155621
-0.15278
-0.15007
-0.147491
-0.145044
-0.142727
-0.140542
-0.138487
-0.136563
-0.134769
-0.133105
-0.131571
-0.130166
-0.128891
-0.127744
-0.126726
-0.125836
-0.125073
-0.124439
-0.123931
-0.123551
-0.123297
-0.12317
-0.174248
-0.171019
-0.167825
-0.16464
-0.161514
-0.158484
-0.155567
-0.15277
-0.150093
-0.147539
-0.145108
-0.1428
-0.140614
-0.13855
-0.13661
-0.134791
-0.133096
-0.131522
-0.130071
-0.128742
-0.127534
-0.126449
-0.125484
-0.124641
-0.123918
-0.123317
-0.122836
-0.122475
-0.122235
-0.122114
-0.169924
-0.1669
-0.163907
-0.160923
-0.157993
-0.155151
-0.152414
-0.149788
-0.147274
-0.144874
-0.142588
-0.140416
-0.138359
-0.136416
-0.134588
-0.132874
-0.131275
-0.129791
-0.128421
-0.127167
-0.126027
-0.125001
-0.12409
-0.123293
-0.12261
-0.122041
-0.121586
-0.121245
-0.121017
-0.120904
-0.165499
-0.162676
-0.159881
-0.157097
-0.154359
-0.151703
-0.149144
-0.146685
-0.144332
-0.142083
-0.13994
-0.137903
-0.135972
-0.134148
-0.132431
-0.13082
-0.129317
-0.127921
-0.126632
-0.125451
-0.124377
-0.12341
-0.122552
-0.1218
-0.121157
-0.12062
-0.120191
-0.119869
-0.119655
-0.119547
-0.160984
-0.158359
-0.15576
-0.153171
-0.150624
-0.148151
-0.145766
-0.143474
-0.141277
-0.139178
-0.137176
-0.135271
-0.133465
-0.131758
-0.130149
-0.12864
-0.127231
-0.125921
-0.124712
-0.123603
-0.122594
-0.121687
-0.12088
-0.120173
-0.119568
-0.119063
-0.11866
-0.118357
-0.118155
-0.118054
-0.156389
-0.15396
-0.151554
-0.149158
-0.146798
-0.144505
-0.142292
-0.140163
-0.138121
-0.136168
-0.134304
-0.13253
-0.130847
-0.129254
-0.127753
-0.126343
-0.125026
-0.123802
-0.122671
-0.121633
-0.120689
-0.119838
-0.119082
-0.11842
-0.117853
-0.11738
-0.117001
-0.116717
-0.116528
-0.116433
-0.151724
-0.149488
-0.147274
-0.145067
-0.142892
-0.140777
-0.138732
-0.136764
-0.134874
-0.133065
-0.131337
-0.129691
-0.128127
-0.126647
-0.125251
-0.123939
-0.122713
-0.121572
-0.120518
-0.11955
-0.118669
-0.117875
-0.117169
-0.11655
-0.11602
-0.115578
-0.115224
-0.114959
-0.114781
-0.114693
-0.147002
-0.144957
-0.14293
-0.14091
-0.138917
-0.136975
-0.135097
-0.133286
-0.131546
-0.129878
-0.128283
-0.126763
-0.125317
-0.123947
-0.122654
-0.121438
-0.1203
-0.119241
-0.118262
-0.117362
-0.116543
-0.115805
-0.115148
-0.114572
-0.114078
-0.113666
-0.113337
-0.113089
-0.112924
-0.112842
-0.142234
-0.140376
-0.138535
-0.136698
-0.134883
-0.133113
-0.131397
-0.129741
-0.128147
-0.126617
-0.125153
-0.123755
-0.122425
-0.121163
-0.11997
-0.118848
-0.117797
-0.116819
-0.115913
-0.11508
-0.114321
-0.113637
-0.113028
-0.112494
-0.112036
-0.111654
-0.111348
-0.111118
-0.110965
-0.110888
-0.137432
-0.135759
-0.134099
-0.132443
-0.130803
-0.129199
-0.127643
-0.126138
-0.124687
-0.123293
-0.121956
-0.120678
-0.11946
-0.118304
-0.11721
-0.116179
-0.115213
-0.114313
-0.113478
-0.112711
-0.112012
-0.111381
-0.110818
-0.110325
-0.109902
-0.109549
-0.109266
-0.109053
-0.108912
-0.108841
-0.132609
-0.131116
-0.129635
-0.128155
-0.126685
-0.125246
-0.123845
-0.122488
-0.121177
-0.119914
-0.118702
-0.117541
-0.116433
-0.115379
-0.114381
-0.11344
-0.112556
-0.111732
-0.110968
-0.110264
-0.109623
-0.109043
-0.108526
-0.108073
-0.107684
-0.107358
-0.107098
-0.106902
-0.106772
-0.106707
-0.127775
-0.126459
-0.125153
-0.123845
-0.122543
-0.121263
-0.120014
-0.1188
-0.117625
-0.116491
-0.1154
-0.114352
-0.113351
-0.112398
-0.111493
-0.110639
-0.109836
-0.109086
-0.108389
-0.107748
-0.107162
-0.106632
-0.10616
-0.105745
-0.105389
-0.105092
-0.104853
-0.104674
-0.104554
-0.104494
-0.122944
-0.121802
-0.120666
-0.119525
-0.118385
-0.11726
-0.116159
-0.115085
-0.114042
-0.113033
-0.112059
-0.111122
-0.110225
-0.109368
-0.108554
-0.107784
-0.107059
-0.106381
-0.105751
-0.105169
-0.104638
-0.104157
-0.103728
-0.103351
-0.103026
-0.102755
-0.102538
-0.102375
-0.102266
-0.102211
-0.118129
-0.117155
-0.116184
-0.115206
-0.114223
-0.113248
-0.11229
-0.111352
-0.110437
-0.109549
-0.108688
-0.107859
-0.107062
-0.106299
-0.105573
-0.104884
-0.104235
-0.103626
-0.10306
-0.102537
-0.102058
-0.101624
-0.101236
-0.100896
-0.100603
-0.100357
-0.100161
-0.100013
-0.0999142
-0.0998648
-0.11334
-0.112529
-0.111718
-0.110898
-0.110067
-0.109238
-0.108417
-0.10761
-0.106819
-0.106047
-0.105297
-0.104571
-0.10387
-0.103199
-0.102557
-0.101947
-0.10137
-0.100829
-0.100324
-0.0998574
-0.0994293
-0.0990411
-0.0986939
-0.0983882
-0.098125
-0.0979048
-0.097728
-0.097595
-0.0975062
-0.0974618
-0.10859
-0.107937
-0.10728
-0.106611
-0.105926
-0.105237
-0.10455
-0.103868
-0.103196
-0.102537
-0.101892
-0.101266
-0.100659
-0.100074
-0.0995139
-0.0989797
-0.0984736
-0.0979971
-0.0975517
-0.0971388
-0.0967596
-0.0964153
-0.0961068
-0.095835
-0.0956006
-0.0954044
-0.0952467
-0.0951281
-0.0950489
-0.0950092
-0.10389
-0.103389
-0.10288
-0.102356
-0.101811
-0.101256
-0.100696
-0.100136
-0.0995777
-0.0990259
-0.098483
-0.0979516
-0.0974343
-0.0969336
-0.0964514
-0.0959901
-0.0955513
-0.095137
-0.0947486
-0.0943877
-0.0940555
-0.0937532
-0.093482
-0.0932427
-0.0930361
-0.0928629
-0.0927236
-0.0926188
-0.0925487
-0.0925137
-0.0992513
-0.0988943
-0.0985271
-0.098141
-0.0977304
-0.0973033
-0.0968651
-0.0964199
-0.0959711
-0.0955222
-0.0950763
-0.0946361
-0.0942045
-0.0937838
-0.0933765
-0.0929847
-0.0926105
-0.0922556
-0.0919218
-0.0916106
-0.0913234
-0.0910615
-0.0908259
-0.0906177
-0.0904376
-0.0902865
-0.0901649
-0.0900733
-0.090012
-0.0899813
-0.094683
-0.0944636
-0.0942307
-0.0939761
-0.0936926
-0.0933871
-0.0930646
-0.092729
-0.092384
-0.0920331
-0.0916795
-0.0913262
-0.0909761
-0.0906318
-0.0902958
-0.0899703
-0.0896575
-0.0893594
-0.0890776
-0.0888139
-0.0885696
-0.0883461
-0.0881446
-0.0879661
-0.0878114
-0.0876814
-0.0875766
-0.0874976
-0.0874447
-0.0874182
-0.090195
-0.0901055
-0.0899995
-0.089869
-0.0897056
-0.089515
-0.089302
-0.0890702
-0.0888234
-0.0885653
-0.0882993
-0.0880284
-0.0877556
-0.0874838
-0.0872154
-0.086953
-0.0866986
-0.0864544
-0.0862221
-0.0860035
-0.0858
-0.0856131
-0.085444
-0.0852937
-0.0851632
-0.0850532
-0.0849645
-0.0848974
-0.0848525
-0.08483
-0.0857956
-0.0858283
-0.0858414
-0.0858274
-0.0857768
-0.0856944
-0.0855843
-0.0854502
-0.0852961
-0.0851255
-0.084942
-0.0847489
-0.0845492
-0.0843459
-0.0841415
-0.0839387
-0.0837396
-0.0835464
-0.0833609
-0.083185
-0.0830202
-0.082868
-0.0827295
-0.082606
-0.0824984
-0.0824074
-0.0823339
-0.0822782
-0.0822409
-0.0822222
-0.0814927
-0.0816394
-0.0817636
-0.0818583
-0.081913
-0.0819316
-0.0819179
-0.0818754
-0.0818081
-0.0817196
-0.0816137
-0.0814936
-0.0813626
-0.0812237
-0.0810796
-0.0809328
-0.0807858
-0.0806406
-0.0804993
-0.0803637
-0.0802354
-0.0801159
-0.0800064
-0.0799081
-0.0798221
-0.0797491
-0.0796899
-0.079645
-0.0796149
-0.0795997
-0.0772931
-0.0775453
-0.0777725
-0.0779679
-0.0781203
-0.0782327
-0.0783086
-0.0783513
-0.0783649
-0.0783531
-0.0783195
-0.0782678
-0.0782011
-0.0781224
-0.0780347
-0.0779405
-0.0778423
-0.0777422
-0.0776424
-0.0775446
-0.0774505
-0.0773617
-0.0772795
-0.077205
-0.0771393
-0.0770832
-0.0770374
-0.0770027
-0.0769792
-0.0769674
-0.0732027
-0.0735519
-0.0738736
-0.0741616
-0.074404
-0.074603
-0.0747616
-0.0748832
-0.0749717
-0.0750309
-0.0750646
-0.0750763
-0.0750693
-0.0750468
-0.0750116
-0.0749664
-0.0749137
-0.0748558
-0.0747946
-0.0747322
-0.0746701
-0.07461
-0.0745532
-0.074501
-0.0744543
-0.074414
-0.0743809
-0.0743556
-0.0743384
-0.0743298
-0.0692264
-0.0696639
-0.0700718
-0.0704443
-0.0707689
-0.071047
-0.0712815
-0.0714756
-0.071633
-0.0717576
-0.0718533
-0.0719236
-0.0719718
-0.0720012
-0.0720147
-0.0720149
-0.0720044
-0.0719855
-0.0719603
-0.0719307
-0.0718984
-0.071865
-0.071832
-0.0718004
-0.0717714
-0.0717458
-0.0717245
-0.071708
-0.0716967
-0.071691
-0.0653683
-0.0658853
-0.0663711
-0.0668198
-0.0672189
-0.0675689
-0.0678724
-0.0681324
-0.0683527
-0.0685371
-0.0686896
-0.0688135
-0.0689125
-0.0689896
-0.0690478
-0.0690898
-0.0691183
-0.0691354
-0.0691433
-0.0691441
-0.0691393
-0.0691306
-0.0691194
-0.069107
-0.0690943
-0.0690824
-0.069072
-0.0690637
-0.0690579
-0.0690549
-0.0616315
-0.0622195
-0.0627747
-0.0632917
-0.0637574
-0.064172
-0.0645376
-0.0648571
-0.0651343
-0.065373
-0.0655769
-0.0657497
-0.0658949
-0.0660155
-0.0661145
-0.0661948
-0.0662588
-0.0663089
-0.0663473
-0.0663758
-0.0663963
-0.0664103
-0.0664192
-0.0664244
-0.0664268
-0.0664275
-0.0664271
-0.0664262
-0.0664254
-0.066425
-0.0580182
-0.0586687
-0.059285
-0.0598622
-0.060387
-0.060859
-0.0612799
-0.0616526
-0.0619808
-0.0622681
-0.0625184
-0.0627352
-0.0629219
-0.0630819
-0.0632179
-0.0633328
-0.0634292
-0.0635092
-0.0635752
-0.0636291
-0.0636725
-0.0637072
-0.0637346
-0.0637558
-0.063772
-0.0637841
-0.0637928
-0.0637989
-0.0638027
-0.0638045
-0.0545299
-0.0552344
-0.0559039
-0.0565335
-0.0571099
-0.0576321
-0.0581016
-0.0585213
-0.0588945
-0.059225
-0.0595164
-0.0597725
-0.0599965
-0.0601916
-0.0603608
-0.0605068
-0.0606322
-0.0607392
-0.0608301
-0.0609068
-0.060971
-0.0610244
-0.0610684
-0.0611041
-0.0611328
-0.0611552
-0.0611723
-0.0611846
-0.0611925
-0.0611964
-0.0511673
-0.0519176
-0.0526323
-0.0533067
-0.0539273
-0.0544927
-0.0550044
-0.0554648
-0.0558773
-0.0562456
-0.0565732
-0.0568637
-0.0571205
-0.0573468
-0.0575453
-0.0577189
-0.0578701
-0.0580012
-0.0581143
-0.0582114
-0.0582942
-0.0583643
-0.0584231
-0.0584719
-0.0585117
-0.0585435
-0.058568
-0.0585859
-0.0585975
-0.0586033
-0.0479302
-0.0487185
-0.0494708
-0.0501824
-0.0508401
-0.0514421
-0.0519895
-0.0524847
-0.0529309
-0.0533316
-0.0536904
-0.0540108
-0.0542961
-0.0545494
-0.0547736
-0.0549714
-0.0551452
-0.0552974
-0.0554301
-0.0555451
-0.0556443
-0.0557292
-0.0558012
-0.0558615
-0.0559112
-0.0559513
-0.0559824
-0.0560052
-0.0560202
-0.0560276
-0.0448178
-0.0456365
-0.0464189
-0.0471607
-0.0478486
-0.0484806
-0.0490575
-0.0495816
-0.0500559
-0.0504839
-0.0508691
-0.0512149
-0.0515245
-0.0518009
-0.0520471
-0.0522657
-0.052459
-0.0526295
-0.052779
-0.0529097
-0.0530231
-0.0531209
-0.0532043
-0.0532747
-0.0533331
-0.0533804
-0.0534173
-0.0534445
-0.0534624
-0.0534713
-0.0418288
-0.0426706
-0.0434761
-0.0442412
-0.0449527
-0.0456083
-0.0462087
-0.0467561
-0.0472532
-0.0477035
-0.0481103
-0.0484771
-0.0488068
-0.0491026
-0.0493672
-0.0496033
-0.0498131
-0.049999
-0.050163
-0.0503069
-0.0504325
-0.0505412
-0.0506345
-0.0507136
-0.0507794
-0.0508329
-0.0508748
-0.0509057
-0.0509261
-0.0509362
-0.0389614
-0.0398192
-0.0406411
-0.0414227
-0.0421514
-0.0428246
-0.0434428
-0.0440078
-0.0445226
-0.0449904
-0.0454143
-0.0457977
-0.0461436
-0.046455
-0.0467346
-0.0469849
-0.0472082
-0.0474068
-0.0475827
-0.0477376
-0.0478733
-0.0479913
-0.0480928
-0.048179
-0.0482511
-0.0483098
-0.0483559
-0.04839
-0.0484125
-0.0484237
-0.0362131
-0.0370805
-0.0379122
-0.0387042
-0.039444
-0.0401289
-0.0407593
-0.0413369
-0.0418643
-0.0423448
-0.0427814
-0.0431774
-0.0435356
-0.043859
-0.0441501
-0.0444115
-0.0446455
-0.0448542
-0.0450395
-0.0452033
-0.0453471
-0.0454724
-0.0455806
-0.0456727
-0.0457499
-0.0458129
-0.0458624
-0.0458991
-0.0459233
-0.0459353
-0.0335812
-0.0344518
-0.0352872
-0.0360835
-0.0368286
-0.0375196
-0.0381568
-0.0387419
-0.0392772
-0.0397659
-0.040211
-0.0406154
-0.0409822
-0.041314
-0.0416135
-0.0418831
-0.0421249
-0.0423411
-0.0425335
-0.0427039
-0.0428539
-0.0429849
-0.0430982
-0.0431949
-0.043276
-0.0433423
-0.0433946
-0.0434332
-0.0434588
-0.0434715
-0.0310628
-0.0319307
-0.0327641
-0.033559
-0.0343038
-0.0349957
-0.0356347
-0.0362224
-0.0367611
-0.0372536
-0.037703
-0.0381122
-0.0384839
-0.0388208
-0.0391255
-0.0394002
-0.0396472
-0.0398684
-0.0400657
-0.0402407
-0.040395
-0.0405301
-0.040647
-0.040747
-0.0408309
-0.0408997
-0.0409538
-0.040994
-0.0410206
-0.0410338
-0.0286541
-0.0295137
-0.0303395
-0.0311276
-0.031867
-0.0325546
-0.0331905
-0.0337761
-0.0343137
-0.034806
-0.0352558
-0.0356659
-0.0360391
-0.0363779
-0.0366847
-0.0369618
-0.0372113
-0.0374352
-0.0376351
-0.0378127
-0.0379696
-0.0381071
-0.0382263
-0.0383283
-0.038414
-0.0384843
-0.0385397
-0.0385809
-0.0386081
-0.0386216
-0.0263521
-0.0271981
-0.0280112
-0.0287876
-0.0295165
-0.030195
-0.0308233
-0.0314025
-0.0319348
-0.0324228
-0.0328693
-0.0332769
-0.0336482
-0.0339858
-0.0342919
-0.0345687
-0.0348182
-0.0350424
-0.0352429
-0.0354212
-0.0355789
-0.0357172
-0.0358373
-0.0359402
-0.0360267
-0.0360977
-0.0361537
-0.0361953
-0.0362229
-0.0362365
-0.0241524
-0.0249798
-0.0257752
-0.0265348
-0.0272484
-0.0279134
-0.0285295
-0.029098
-0.029621
-0.030101
-0.0305405
-0.0309422
-0.0313085
-0.0316418
-0.0319444
-0.0322183
-0.0324656
-0.0326879
-0.0328869
-0.0330641
-0.033221
-0.0333587
-0.0334784
-0.0335809
-0.0336673
-0.0337382
-0.0337942
-0.0338358
-0.0338633
-0.033877
-0.0220518
-0.0228562
-0.0236294
-0.0243677
-0.0250617
-0.0257087
-0.0263086
-0.0268625
-0.0273724
-0.0278407
-0.0282699
-0.0286624
-0.0290207
-0.029347
-0.0296434
-0.029912
-0.0301547
-0.030373
-0.0305687
-0.0307431
-0.0308975
-0.0310332
-0.0311512
-0.0312525
-0.0313378
-0.0314078
-0.0314631
-0.0315042
-0.0315314
-0.031545
-0.0200454
-0.020822
-0.0215684
-0.022281
-0.022951
-0.0235759
-0.0241554
-0.0246909
-0.025184
-0.0256372
-0.0260527
-0.026433
-0.0267804
-0.0270969
-0.0273847
-0.0276456
-0.0278815
-0.0280939
-0.0282844
-0.0284543
-0.0286048
-0.0287372
-0.0288524
-0.0289513
-0.0290346
-0.029103
-0.0291571
-0.0291973
-0.029224
-0.0292372
-0.0181305
-0.0188754
-0.0195911
-0.020274
-0.0209161
-0.021515
-0.0220705
-0.0225839
-0.0230569
-0.0234917
-0.0238906
-0.0242558
-0.0245895
-0.0248937
-0.0251705
-0.0254216
-0.0256487
-0.0258533
-0.0260369
-0.0262007
-0.026346
-0.0264738
-0.026585
-0.0266806
-0.0267611
-0.0268273
-0.0268796
-0.0269185
-0.0269443
-0.0269571
-0.0163011
-0.01701
-0.0176905
-0.0183395
-0.0189496
-0.0195186
-0.0200464
-0.0205342
-0.0209838
-0.021397
-0.0217762
-0.0221235
-0.022441
-0.0227305
-0.022994
-0.0232332
-0.0234495
-0.0236446
-0.0238196
-0.023976
-0.0241146
-0.0242367
-0.0243429
-0.0244342
-0.0245112
-0.0245745
-0.0246246
-0.0246618
-0.0246865
-0.0246988
-0.0145555
-0.0152249
-0.015867
-0.0164787
-0.0170533
-0.0175889
-0.0180858
-0.0185448
-0.0189678
-0.0193567
-0.0197135
-0.0200404
-0.0203392
-0.0206118
-0.02086
-0.0210853
-0.0212892
-0.021473
-0.0216381
-0.0217856
-0.0219165
-0.0220317
-0.022132
-0.0222182
-0.022291
-0.0223508
-0.0223981
-0.0224333
-0.0224566
-0.0224681
-0.0128865
-0.0135118
-0.0141109
-0.0146811
-0.0152163
-0.015715
-0.0161773
-0.0166044
-0.0169978
-0.0173594
-0.0176913
-0.0179952
-0.0182731
-0.0185266
-0.0187574
-0.018967
-0.0191567
-0.0193279
-0.0194816
-0.0196189
-0.0197408
-0.0198481
-0.0199416
-0.020022
-0.0200899
-0.0201456
-0.0201898
-0.0202226
-0.0202444
-0.0202553
-0.0112936
-0.0118723
-0.0124257
-0.0129514
-0.0134443
-0.0139029
-0.0143278
-0.0147201
-0.0150813
-0.0154132
-0.0157177
-0.0159965
-0.0162514
-0.016484
-0.0166958
-0.0168881
-0.0170622
-0.0172192
-0.0173603
-0.0174864
-0.0175983
-0.0176969
-0.0177828
-0.0178567
-0.017919
-0.0179703
-0.0180109
-0.018041
-0.018061
-0.0180708
-0.0097676
-0.0102942
-0.010797
-0.0112739
-0.0117205
-0.0121356
-0.0125198
-0.0128743
-0.0132005
-0.0135
-0.0137748
-0.0140263
-0.0142562
-0.014466
-0.0146569
-0.0148303
-0.0149874
-0.015129
-0.0152563
-0.01537
-0.015471
-0.01556
-0.0156376
-0.0157042
-0.0157605
-0.0158068
-0.0158435
-0.0158707
-0.0158888
-0.015898
-0.0083103
-0.00878354
-0.00923382
-0.0096596
-0.0100573
-0.0104263
-0.0107673
-0.0110816
-0.0113706
-0.0116358
-0.0118789
-0.0121014
-0.0123047
-0.0124902
-0.012659
-0.0128123
-0.0129511
-0.0130764
-0.0131889
-0.0132895
-0.0133788
-0.0134575
-0.0135261
-0.013585
-0.0136348
-0.0136758
-0.0137082
-0.0137323
-0.0137482
-0.013756
-0.00690865
-0.00732144
-0.00771335
-0.00808316
-0.00842788
-0.00874725
-0.00904202
-0.00931332
-0.00956252
-0.00979108
-0.0100004
-0.010192
-0.0103669
-0.0105265
-0.0106717
-0.0108035
-0.0109229
-0.0110306
-0.0111274
-0.0112139
-0.0112907
-0.0113584
-0.0114174
-0.0114682
-0.011511
-0.0115463
-0.0115742
-0.0115949
-0.0116087
-0.0116159
-0.005569
-0.00592181
-0.00625463
-0.00656699
-0.00685691
-0.00712465
-0.00737117
-0.00759766
-0.00780545
-0.00799586
-0.00817016
-0.00832954
-0.00847508
-0.00860777
-0.00872852
-0.00883814
-0.00893739
-0.00902693
-0.00910738
-0.00917929
-0.00924315
-0.00929941
-0.00934846
-0.00939064
-0.00942626
-0.00945555
-0.00947873
-0.00949596
-0.00950734
-0.00951262
-0.00427014
-0.00455322
-0.00481955
-0.00506881
-0.00529948
-0.00551195
-0.00570719
-0.00588627
-0.00605033
-0.00620053
-0.00633791
-0.00646345
-0.00657804
-0.00668249
-0.00677751
-0.00686377
-0.00694186
-0.0070123
-0.00707559
-0.00713216
-0.0071824
-0.00722666
-0.00726525
-0.00729844
-0.00732645
-0.0073495
-0.00736775
-0.00738133
-0.00739045
-0.00739558
-0.00302781
-0.00324423
-0.00344517
-0.00363114
-0.00380164
-0.00395767
-0.00410043
-0.00423103
-0.0043505
-0.00445977
-0.00455967
-0.00465094
-0.00473423
-0.00481014
-0.00487919
-0.00494186
-0.00499859
-0.00504976
-0.00509572
-0.00513681
-0.00517329
-0.00520543
-0.00523345
-0.00525754
-0.00527788
-0.0052946
-0.00530782
-0.00531762
-0.00532399
-0.00532644
-0.00180289
-0.00193852
-0.0020641
-0.00217961
-0.00228468
-0.00238032
-0.00246754
-0.00254714
-0.00261983
-0.00268624
-0.00274692
-0.00280232
-0.00285287
-0.00289892
-0.00294081
-0.00297882
-0.00301323
-0.00304425
-0.00307213
-0.00309703
-0.00311915
-0.00313863
-0.00315561
-0.00317022
-0.00318254
-0.00319268
-0.00320068
-0.00320661
-0.00321071
-0.0032137
-0.00062784
-0.000688553
-0.000741816
-0.000787774
-0.000827404
-0.000862384
-0.000893761
-0.000922185
-0.000948109
-0.000971839
-0.000993581
-0.00101349
-0.00103168
-0.00104828
-0.00106338
-0.00107709
-0.0010895
-0.00110068
-0.00111072
-0.00111968
-0.00112764
-0.00113465
-0.00114075
-0.001146
-0.00115042
-0.00115406
-0.00115693
-0.00115898
-0.00115987
-0.00115891
-0.230054
-0.229202
-0.228038
-0.22659
-0.224863
-0.222894
-0.220647
-0.217915
-0.215341
-0.212604
-0.209658
-0.206525
-0.203207
-0.199715
-0.196062
-0.192259
-0.188314
-0.184234
-0.180028
-0.175704
-0.171272
-0.16674
-0.16212
-0.15742
-0.152652
-0.147828
-0.142959
-0.138057
-0.133134
-0.128204
-0.123279
-0.11837
-0.113492
-0.108655
-0.103871
-0.0991516
-0.0945071
-0.0899469
-0.08548
-0.0811142
-0.0768565
-0.0727131
-0.0686889
-0.0647882
-0.0610139
-0.0573684
-0.053853
-0.0504683
-0.047214
-0.0440891
-0.0410923
-0.0382214
-0.0354739
-0.0328466
-0.0303366
-0.02794
-0.0256534
-0.0234723
-0.0213934
-0.0194117
-0.017524
-0.015725
-0.0140119
-0.0123788
-0.0108233
-0.00933916
-0.0079239
-0.00657087
-0.00527777
-0.00403562
-0.00284473
-0.00168717
-0.000572403
-0.234323
-0.233485
-0.232328
-0.230883
-0.229169
-0.227189
-0.224884
-0.222215
-0.219684
-0.216981
-0.214055
-0.210933
-0.207639
-0.204177
-0.200555
-0.196783
-0.192868
-0.188818
-0.184639
-0.180339
-0.175926
-0.171409
-0.166797
-0.1621
-0.157328
-0.152491
-0.147601
-0.14267
-0.137709
-0.132731
-0.12775
-0.122776
-0.117823
-0.112904
-0.10803
-0.103213
-0.0984638
-0.0937933
-0.0892109
-0.0847253
-0.0803445
-0.0760753
-0.0719238
-0.0678948
-0.0639923
-0.0602194
-0.056578
-0.0530694
-0.0496938
-0.0464511
-0.04334
-0.0403589
-0.0375054
-0.0347771
-0.0321706
-0.0296827
-0.0273095
-0.0250476
-0.0228922
-0.0208401
-0.0188863
-0.0170273
-0.0152584
-0.0135757
-0.0119751
-0.0104517
-0.00900302
-0.00762158
-0.00630814
-0.00505016
-0.00385369
-0.00269897
-0.00159624
-0.000521971
-0.23709
-0.235959
-0.234547
-0.232872
-0.230931
-0.228706
-0.226249
-0.223647
-0.220997
-0.218147
-0.215086
-0.211843
-0.208436
-0.20487
-0.201148
-0.197281
-0.193276
-0.189138
-0.184876
-0.180496
-0.176007
-0.171416
-0.166733
-0.161968
-0.157129
-0.15223
-0.14728
-0.142291
-0.137277
-0.132248
-0.127218
-0.1222
-0.117206
-0.112248
-0.10734
-0.102492
-0.0977155
-0.0930215
-0.0884193
-0.0839175
-0.079524
-0.0752457
-0.0710884
-0.0670569
-0.063155
-0.0593856
-0.0557506
-0.0522509
-0.0488868
-0.0456578
-0.0425624
-0.0395991
-0.0367651
-0.0340578
-0.0314738
-0.0290099
-0.0266618
-0.0244259
-0.0222979
-0.0202738
-0.0183492
-0.0165201
-0.0147822
-0.013131
-0.0115636
-0.0100732
-0.00866065
-0.00731336
-0.00604042
-0.00481721
-0.00366807
-0.00254765
-0.00150389
-0.000465662
-0.239543
-0.238174
-0.236554
-0.234692
-0.232592
-0.230262
-0.227521
-0.224922
-0.22215
-0.219156
-0.21597
-0.212617
-0.209109
-0.205448
-0.201639
-0.197689
-0.193605
-0.189393
-0.18506
-0.180611
-0.176056
-0.171402
-0.166659
-0.161834
-0.15694
-0.151986
-0.146984
-0.141945
-0.136883
-0.131809
-0.126736
-0.121678
-0.116646
-0.111654
-0.106714
-0.101837
-0.0970355
-0.0923191
-0.0876975
-0.0831796
-0.0787732
-0.074485
-0.0703208
-0.0662855
-0.0623825
-0.0586148
-0.054984
-0.0514911
-0.0481361
-0.0449183
-0.0418362
-0.0388879
-0.0360707
-0.0333819
-0.0308179
-0.0283751
-0.0260495
-0.0238373
-0.0217339
-0.0197355
-0.0178376
-0.016036
-0.0143268
-0.0127048
-0.0111684
-0.00970869
-0.00833015
-0.0070149
-0.00578056
-0.00458974
-0.00348687
-0.00239727
-0.00141358
-0.000404875
-0.241544
-0.239964
-0.238156
-0.236115
-0.233799
-0.231146
-0.22863
-0.225922
-0.223005
-0.219895
-0.216612
-0.213171
-0.209579
-0.20584
-0.201958
-0.197938
-0.193789
-0.189514
-0.185119
-0.180613
-0.176002
-0.171295
-0.166499
-0.161625
-0.156682
-0.151682
-0.146636
-0.141555
-0.136452
-0.13134
-0.126231
-0.121138
-0.116075
-0.111054
-0.106087
-0.101186
-0.0963631
-0.0916281
-0.0869908
-0.08246
-0.0780433
-0.0737477
-0.0695787
-0.0655411
-0.0616385
-0.0578736
-0.0542479
-0.0507622
-0.0474165
-0.0442099
-0.0411409
-0.0382073
-0.0354064
-0.0327353
-0.0301903
-0.0277677
-0.0254635
-0.0232736
-0.0211937
-0.0192195
-0.0173468
-0.0155711
-0.013889
-0.0122945
-0.0107873
-0.00935671
-0.00801027
-0.00672527
-0.0055277
-0.00436711
-0.00330932
-0.00224705
-0.00132419
-0.000338302
-0.244594
-0.243076
-0.241328
-0.23936
-0.237146
-0.234686
-0.232145
-0.229475
-0.226627
-0.223598
-0.220397
-0.217035
-0.21352
-0.20986
-0.206056
-0.202112
-0.198036
-0.193831
-0.189503
-0.185059
-0.180504
-0.175847
-0.171094
-0.166256
-0.16134
-0.156357
-0.151319
-0.146235
-0.141119
-0.135983
-0.130839
-0.1257
-0.120579
-0.11549
-0.110445
-0.105456
-0.100536
-0.0956964
-0.0909468
-0.0862973
-0.0817566
-0.0773326
-0.073032
-0.0688603
-0.0648224
-0.0609216
-0.0571605
-0.0535408
-0.050063
-0.0467269
-0.0435317
-0.0404757
-0.0375565
-0.0347715
-0.0321174
-0.0295906
-0.0271874
-0.0249035
-0.0227348
-0.020677
-0.0187258
-0.0168769
-0.0151256
-0.013469
-0.0119005
-0.0104207
-0.00901753
-0.00770122
-0.00644477
-0.00528196
-0.00414955
-0.00313532
-0.0020969
-0.00123551
-0.000265363
-0.245854
-0.24418
-0.242303
-0.240235
-0.23795
-0.23535
-0.232744
-0.22999
-0.227054
-0.223947
-0.220677
-0.217252
-0.213679
-0.209962
-0.206106
-0.202113
-0.197989
-0.19374
-0.189369
-0.184884
-0.180291
-0.175596
-0.170807
-0.165934
-0.160985
-0.15597
-0.150901
-0.145788
-0.140644
-0.135481
-0.130312
-0.12515
-0.120007
-0.114898
-0.109835
-0.10483
-0.0998959
-0.0950434
-0.0902833
-0.0856253
-0.0810781
-0.0766496
-0.0723464
-0.0681743
-0.0641376
-0.06024
-0.0564839
-0.0528709
-0.0494014
-0.0460751
-0.0428912
-0.0398478
-0.0369425
-0.0341725
-0.0315346
-0.029025
-0.0266398
-0.0243749
-0.022226
-0.0201887
-0.0182587
-0.0164319
-0.0147033
-0.0130703
-0.0115258
-0.0100714
-0.00869374
-0.00740527
-0.00617548
-0.00504495
-0.00393865
-0.00296586
-0.00194784
-0.00114813
-0.000185868
-0.246702
-0.244909
-0.242924
-0.240727
-0.238264
-0.235777
-0.23311
-0.230267
-0.227257
-0.224086
-0.220761
-0.217286
-0.213665
-0.209904
-0.206006
-0.201973
-0.197812
-0.193527
-0.189123
-0.184605
-0.179981
-0.175256
-0.17044
-0.165539
-0.160564
-0.155525
-0.150432
-0.145298
-0.140133
-0.13495
-0.129763
-0.124584
-0.119426
-0.114303
-0.109227
-0.104211
-0.0992676
-0.0944073
-0.0896409
-0.0849783
-0.0804282
-0.0759983
-0.0716953
-0.0675249
-0.0634915
-0.0595986
-0.0558486
-0.052243
-0.0487823
-0.0454661
-0.0422933
-0.0392621
-0.0363701
-0.0336143
-0.0309915
-0.0284978
-0.0261293
-0.0238818
-0.021751
-0.0197326
-0.017822
-0.0160153
-0.0143074
-0.0126958
-0.0111734
-0.00974192
-0.00838776
-0.00712455
-0.00591939
-0.00481826
-0.00373602
-0.00280192
-0.00180105
-0.00106264
-9.96475e-05
-0.247208
-0.245328
-0.243271
-0.241026
-0.23858
-0.235983