/*--------------------------------*- C++ -*----------------------------------*\
  =========                 |
  \\      /  F ield         | OpenFOAM: The Open Source CFD Toolbox
   \\    /   O peration     | Website:  https://openfoam.org
    \\  /    A nd           | Version:  7
     \\/     M anipulation  |
\*---------------------------------------------------------------------------*/
FoamFile
{
    version     2.0;
    format      ascii;
    class       surfaceScalarField;
    location    "50.001";
    object      phi;
}
// * * * * * * * * * * * * * * * * * * * * * * * * * * * * * * * * * * * * * //

dimensions      [0 3 -1 0 0 0 0];

internalField   nonuniform List<scalar> 
7273
(
0.000543828
0.0121996
-0.000478534
0.000576105
0.0125901
0.000585929
0.0127199
0.000583859
0.0127303
0.000575717
0.0126938
0.000563979
0.0126402
0.000549683
0.012581
0.000533393
0.0125214
0.000515499
0.0124639
0.000496276
0.0124094
0.000475919
0.0123582
0.000454573
0.01231
0.000432363
0.0122644
0.000409402
0.0122214
0.000385799
0.0121808
0.000361652
0.0121427
0.000337052
0.012107
0.000312079
0.0120737
0.000286799
0.012043
0.000261273
0.0120148
0.000235549
0.0119892
0.000209668
0.0119661
0.000183665
0.0119456
0.000157568
0.0119276
0.000131398
0.0119122
0.000105176
0.0118993
7.89132e-05
0.011889
5.26211e-05
0.0118813
2.63104e-05
0.0118762
0.0118737
0.000459088
0.0121347
-0.000394161
0.000494046
0.0125551
0.000507504
0.0127064
0.000509005
0.0127288
0.000504297
0.0126985
0.00049597
0.0126485
0.000485108
0.0125918
0.00047226
0.0125342
0.000457784
0.0124783
0.000441936
0.0124253
0.000424901
0.0123753
0.000406817
0.0123281
0.000387804
0.0122834
0.00036797
0.0122412
0.00034742
0.0122014
0.000326251
0.0121638
0.000304553
0.0121287
0.000282406
0.0120959
0.00025988
0.0120656
0.000237038
0.0120377
0.000213933
0.0120123
0.000190611
0.0119894
0.000167112
0.0119691
0.000143471
0.0119512
0.000119715
0.0119359
9.58713e-05
0.0119232
7.19592e-05
0.011913
4.79965e-05
0.0119053
2.40016e-05
0.0119002
0.0118977
0.000378209
0.0120708
-0.000314288
0.00041541
0.0125179
0.000432222
0.0126896
0.000437091
0.012724
0.000435608
0.0127
0.00043046
0.0126536
0.000422787
0.0125995
0.000413138
0.0125439
0.000401854
0.0124896
0.000389174
0.012438
0.000375273
0.0123892
0.000360281
0.0123431
0.000344309
0.0122994
0.000327461
0.0122581
0.000309838
0.012219
0.000291534
0.0121821
0.000272637
0.0121476
0.000253227
0.0121153
0.000233377
0.0120854
0.000213151
0.0120579
0.000192606
0.0120328
0.000171791
0.0120102
0.000150753
0.0119901
0.000129529
0.0119725
0.000108154
0.0119573
8.66597e-05
0.0119447
6.50723e-05
0.0119345
4.34156e-05
0.0119269
2.17147e-05
0.0119219
0.0119194
0.000301227
0.0120083
-0.000238759
0.000340188
0.0124789
0.000359973
0.0126698
0.000367963
0.012716
0.00036953
0.0126984
0.000367393
0.0126558
0.000362723
0.0126042
0.000356072
0.0125505
0.000347779
0.0124979
0.000338077
0.0124477
0.00032713
0.0124001
0.000315063
0.0123551
0.00030198
0.0123125
0.000287979
0.0122721
0.000273156
0.0122338
0.000257601
0.0121977
0.000241401
0.0121638
0.000224636
0.0121321
0.000207378
0.0121027
0.000189694
0.0120756
0.000171642
0.0120509
0.000153277
0.0120286
0.000134647
0.0120087
0.000115794
0.0119913
9.67588e-05
0.0119763
7.75764e-05
0.0119639
5.8279e-05
0.0119538
3.88962e-05
0.0119463
1.94583e-05
0.0119413
0.0119389
0.000227762
0.0119478
-0.000167232
0.000268251
0.0124385
0.000290644
0.0126474
0.000301477
0.0127051
0.000305946
0.012694
0.000306681
0.012655
0.000304852
0.012606
0.00030103
0.0125544
0.000295557
0.0125034
0.000288664
0.0124546
0.00028051
0.0124083
0.000271214
0.0123644
0.000260876
0.0123228
0.000249587
0.0122834
0.00023744
0.012246
0.000224521
0.0122106
0.000210915
0.0121774
0.000196699
0.0121463
0.000181948
0.0121174
0.000166729
0.0120908
0.000151101
0.0120665
0.000135122
0.0120446
0.000118842
0.012025
0.000102308
0.0120078
8.5564e-05
0.0119931
6.86493e-05
0.0119808
5.16006e-05
0.0119709
3.44522e-05
0.0119635
1.72394e-05
0.0119586
0.0119561
0.000158364
0.0118887
-9.92864e-05
0.000199737
0.0123971
0.000224154
0.012623
0.000237607
0.0126917
0.000244837
0.0126867
0.000248279
0.0126516
0.000249124
0.0126052
0.000247969
0.0125555
0.000245164
0.0125062
0.00024093
0.0124588
0.000235423
0.0124138
0.000228757
0.0123711
0.000221029
0.0123306
0.000212326
0.0122921
0.000202735
0.0122555
0.000192342
0.012221
0.000181227
0.0121885
0.000169468
0.012158
0.000157138
0.0121297
0.000144303
0.0121037
0.000131027
0.0120798
0.000117366
0.0120582
0.000103375
0.012039
8.9104e-05
0.0120221
7.45982e-05
0.0120076
5.99016e-05
0.0119955
4.50544e-05
0.0119857
3.00953e-05
0.0119784
1.50634e-05
0.0119736
0.0119712
9.2153e-05
0.0118323
-3.58016e-05
0.000134393
0.0123548
0.000160346
0.0125971
0.000176377
0.0126756
0.0001862
0.0126769
0.000192158
0.0126456
0.000195504
0.0126018
0.000196867
0.0125541
0.000196584
0.0125065
0.00019487
0.0124605
0.000191873
0.0124168
0.000187706
0.0123753
0.000182461
0.0123358
0.000176224
0.0122983
0.000169078
0.0122627
0.000161103
0.012229
0.00015238
0.0121972
0.000142984
0.0121674
0.000132988
0.0121397
0.000122458
0.0121142
0.000111458
0.0120908
0.000100047
0.0120697
8.82803e-05
0.0120508
7.62102e-05
0.0120342
6.38856e-05
0.0120199
5.13528e-05
0.012008
3.86554e-05
0.0119984
2.58354e-05
0.0119913
1.29356e-05
0.0119865
0.0119841
3.15406e-05
0.0117768
2.3961e-05
7.2111e-05
0.0123143
9.95042e-05
0.0125697
0.000117913
0.0126572
0.000130028
0.0126648
0.000138284
0.0126374
0.000143975
0.0125961
0.000147713
0.0125504
0.000149815
0.0125044
0.000150485
0.0124598
0.000149869
0.0124174
0.000148075
0.012377
0.000145194
0.0123387
0.000141307
0.0123022
0.000136495
0.0122675
0.000130836
0.0122346
0.000124407
0.0122036
0.000117282
0.0121746
0.000109533
0.0121475
0.000101227
0.0121225
9.24271e-05
0.0120996
8.31939e-05
0.0120789
7.3584e-05
0.0120604
6.36515e-05
0.0120441
5.34473e-05
0.0120301
4.30202e-05
0.0120184
3.24166e-05
0.012009
2.16814e-05
0.012002
1.08605e-05
0.0119973
0.011995
-2.70393e-05
0.0117252
7.86284e-05
1.21304e-05
0.0122751
4.19791e-05
0.0125398
6.2122e-05
0.0126371
7.62063e-05
0.0126507
8.66062e-05
0.012627
9.45184e-05
0.0125882
0.000100499
0.0125444
0.000104852
0.0125
0.000107776
0.0124569
0.000109415
0.0124157
0.000109875
0.0123766
0.000109243
0.0123393
0.000107596
0.0123038
0.000105012
0.0122701
0.000101568
0.0122381
9.73364e-05
0.0122079
9.23917e-05
0.0121795
8.68037e-05
0.0121531
8.06392e-05
0.0121287
7.39621e-05
0.0121063
6.68332e-05
0.012086
5.93103e-05
0.0120679
5.14487e-05
0.012052
4.33012e-05
0.0120383
3.49186e-05
0.0120268
2.63494e-05
0.0120176
1.76411e-05
0.0120107
8.8418e-06
0.0120061
0.0120038
-8.41137e-05
0.0116771
0.00013225
-4.34135e-05
0.0122344
-1.28747e-05
0.0125093
8.64207e-06
0.0126156
2.46423e-05
0.0126347
3.71096e-05
0.0126145
4.71154e-05
0.0125782
5.5206e-05
0.0125363
6.16805e-05
0.0124936
6.67373e-05
0.0124519
7.05144e-05
0.012412
7.3114e-05
0.012374
7.46193e-05
0.0123378
7.5106e-05
0.0123034
7.4648e-05
0.0122705
7.33188e-05
0.0122394
7.1191e-05
0.01221
6.83361e-05
0.0121824
6.48231e-05
0.0121566
6.07184e-05
0.0121328
5.60858e-05
0.0121109
5.09864e-05
0.0120911
4.54789e-05
0.0120734
3.96196e-05
0.0120578
3.34627e-05
0.0120444
2.70604e-05
0.0120332
2.04632e-05
0.0120242
1.37207e-05
0.0120174
6.88291e-06
0.0120129
0.0120107
-0.000137475
0.0116313
0.000183301
-9.71755e-05
0.0121941
-6.61638e-05
0.0124783
-4.27022e-05
0.0125921
-2.47062e-05
0.0126167
-1.02547e-05
0.0126001
1.72823e-06
0.0125662
1.18012e-05
0.0125263
2.02819e-05
0.0124851
2.73587e-05
0.0124448
3.31632e-05
0.0124062
3.77934e-05
0.0123694
4.13301e-05
0.0123343
4.38468e-05
0.0123008
4.54146e-05
0.012269
4.61047e-05
0.0122387
4.59879e-05
0.0122101
4.51337e-05
0.0121832
4.36101e-05
0.0121581
4.14831e-05
0.0121349
3.88162e-05
0.0121136
3.56707e-05
0.0120943
3.21058e-05
0.012077
2.81784e-05
0.0120618
2.39439e-05
0.0120487
1.94557e-05
0.0120377
1.47659e-05
0.0120289
9.92556e-06
0.0120223
4.98642e-06
0.0120179
0.0120157
-0.000188185
0.0115878
0.000231642
-0.000148577
0.0121545
-0.000116567
0.0124463
-9.1674e-05
0.0125672
-7.19112e-05
0.012597
-5.56078e-05
0.0125838
-4.17395e-05
0.0125524
-2.97586e-05
0.0125143
-1.93673e-05
0.0124747
-1.03744e-05
0.0124358
-2.64844e-06
0.0123984
3.90879e-06
0.0123628
9.37584e-06
0.0123288
1.38232e-05
0.0122964
1.73201e-05
0.0122655
1.99355e-05
0.0122361
2.17388e-05
0.0122083
2.27976e-05
0.0121822
2.31785e-05
0.0121577
2.29474e-05
0.0121351
2.21674e-05
0.0121144
2.08996e-05
0.0120955
1.92034e-05
0.0120787
1.71364e-05
0.0120638
1.47547e-05
0.012051
1.21127e-05
0.0120403
9.26361e-06
0.0120317
6.25989e-06
0.0120253
3.15446e-06
0.012021
0.0120188
-0.000236369
0.0115467
0.0002775
-0.000197272
0.0121154
-0.000164567
0.0124136
-0.00013833
0.012541
-0.000116942
0.0125756
-9.89016e-05
0.0125657
-8.32579e-05
0.0125367
-6.94852e-05
0.0125005
-5.72865e-05
0.0124625
-4.64765e-05
0.012425
-3.69267e-05
0.0123889
-2.85416e-05
0.0123544
-2.12435e-05
0.0123215
-1.49623e-05
0.0122901
-9.63118e-06
0.0122601
-5.18305e-06
0.0122317
-1.55083e-06
0.0122047
1.3337e-06
0.0121793
3.53678e-06
0.0121555
5.12103e-06
0.0121335
6.14928e-06
0.0121133
6.68278e-06
0.012095
6.78107e-06
0.0120786
6.50217e-06
0.0120641
5.90263e-06
0.0120516
5.03764e-06
0.0120412
3.96123e-06
0.0120328
2.72698e-06
0.0120265
1.38871e-06
0.0120223
0.0120202
-0.000282028
0.0115077
0.000321018
-0.000243458
0.0120768
-0.000210215
0.0123803
-0.000182748
0.0125135
-0.00015984
0.0125527
-0.000140174
0.0125461
-0.000122861
0.0125194
-0.000107396
0.012485
-9.34906e-05
0.0124486
-8.09627e-05
0.0124125
-6.96873e-05
0.0123776
-5.95701e-05
0.0123443
-5.05345e-05
0.0123125
-4.25122e-05
0.0122821
-3.54373e-05
0.0122531
-2.92442e-05
0.0122255
-2.38672e-05
0.0121993
-1.92413e-05
0.0121746
-1.5302e-05
0.0121516
-1.1985e-05
0.0121302
-9.22807e-06
0.0121106
-6.9705e-06
0.0120927
-5.15288e-06
0.0120768
-3.71708e-06
0.0120627
-2.60622e-06
0.0120505
-1.76462e-06
0.0120404
-1.13756e-06
0.0120322
-6.70698e-07
0.0120261
-3.09513e-07
0.012022
0.0120199
-0.000325244
0.0114707
0.000362281
-0.000287263
0.0120389
-0.000253548
0.0123466
-0.000224965
0.0124849
-0.000200646
0.0125283
-0.000179454
0.0125249
-0.000160571
0.0125005
-0.000143512
0.012468
-0.000127995
0.0124331
-0.000113845
0.0123983
-0.000100939
0.0123647
-8.91835e-05
0.0123325
-7.8503e-05
0.0123018
-6.88305e-05
0.0122724
-6.01016e-05
0.0122443
-5.22524e-05
0.0122176
-4.52184e-05
0.0121923
-3.89356e-05
0.0121684
-3.33402e-05
0.012146
-2.83693e-05
0.0121252
-2.39614e-05
0.0121062
-2.00558e-05
0.0120888
-1.65934e-05
0.0120733
-1.3516e-05
0.0120596
-1.07666e-05
0.0120478
-8.28924e-06
0.0120379
-6.02879e-06
0.0120299
-3.9304e-06
0.012024
-1.93902e-06
0.01202
0.012018
-0.000366115
0.0114354
0.000401362
-0.000328738
0.0120015
-0.000294615
0.0123125
-0.000265018
0.0124553
-0.000239392
0.0125027
-0.000216773
0.0125022
-0.000196412
0.0124802
-0.000177851
0.0124494
-0.000160818
0.012416
-0.000145139
0.0123826
-0.000130694
0.0123503
-0.000117391
0.0123192
-0.000105156
0.0122896
-9.39225e-05
0.0122612
-8.36274e-05
0.012234
-7.4208e-05
0.0122082
-6.56014e-05
0.0121837
-5.77445e-05
0.0121605
-5.05744e-05
0.0121388
-4.40293e-05
0.0121187
-3.80482e-05
0.0121002
-3.25709e-05
0.0120834
-2.75386e-05
0.0120683
-2.28931e-05
0.012055
-1.85775e-05
0.0120435
-1.45356e-05
0.0120338
-1.07122e-05
0.0120261
-7.05187e-06
0.0120203
-3.49944e-06
0.0120164
0.0120145
-0.000404717
0.0114018
0.00043833
-0.000367926
0.0119647
-0.000333459
0.012278
-0.000302943
0.0124248
-0.000276108
0.0124759
-0.000252155
0.0124783
-0.000230409
0.0124584
-0.000210437
0.0124294
-0.000191977
0.0123976
-0.00017486
0.0123655
-0.000158966
0.0123344
-0.000144205
0.0123045
-0.000130503
0.0122759
-0.000117795
0.0122485
-0.00010602
0.0122223
-9.51148e-05
0.0121973
-8.50186e-05
0.0121736
-7.56692e-05
0.0121512
-6.70048e-05
0.0121302
-5.89643e-05
0.0121107
-5.14872e-05
0.0120927
-4.45141e-05
0.0120764
-3.79864e-05
0.0120617
-3.18462e-05
0.0120488
-2.60367e-05
0.0120377
-2.05018e-05
0.0120283
-1.5186e-05
0.0120208
-1.0034e-05
0.0120151
-4.9903e-06
0.0120114
0.0120095
-0.000441109
0.0113697
0.000473243
-0.000404873
0.0119284
-0.000370118
0.0122433
-0.00033877
0.0123935
-0.00031082
0.0124479
-0.000285625
0.0124531
-0.000262584
0.0124354
-0.00024129
0.0124082
-0.000221492
0.0123778
-0.000203023
0.012347
-0.000185768
0.0123171
-0.000169636
0.0122883
-0.000154554
0.0122608
-0.000140457
0.0122344
-0.000127286
0.0122091
-0.000114978
0.012185
-0.000103475
0.0121621
-9.27132e-05
0.0121404
-8.26337e-05
0.0121201
-7.31756e-05
0.0121012
-6.42792e-05
0.0120838
-5.58856e-05
0.012068
-4.79367e-05
0.0120538
-4.0375e-05
0.0120412
-3.31438e-05
0.0120304
-2.61873e-05
0.0120214
-1.94499e-05
0.0120141
-1.28764e-05
0.0120086
-6.41143e-06
0.0120049
0.0120031
-0.000475335
0.0113389
0.000506147
-0.000439622
0.0118927
-0.000404625
0.0122083
-0.000372527
0.0123614
-0.000343552
0.012419
-0.000317206
0.0124267
-0.000292957
0.0124111
-0.000270429
0.0123856
-0.000249379
0.0123567
-0.000229647
0.0123273
-0.000211116
0.0122986
-0.000193698
0.0122709
-0.00017732
0.0122444
-0.000161919
0.012219
-0.000147434
0.0121946
-0.000133806
0.0121713
-0.000120975
0.0121492
-0.000108881
0.0121283
-9.7465e-05
0.0121087
-8.66663e-05
0.0120904
-7.64265e-05
0.0120736
-6.66872e-05
0.0120582
-5.73908e-05
0.0120445
-4.84803e-05
0.0120323
-3.98994e-05
0.0120218
-3.15924e-05
0.012013
-2.35041e-05
0.012006
-1.55793e-05
0.0120006
-7.76285e-06
0.0119971
0.0119953
-0.000507436
0.0113092
0.000537075
-0.000472208
0.0118575
-0.000437011
0.0121731
-0.00040424
0.0123286
-0.000374327
0.012389
-0.000346918
0.0123993
-0.000321549
0.0123858
-0.000297874
0.012362
-0.000275659
0.0123345
-0.000254747
0.0123064
-0.000235025
0.0122789
-0.000216405
0.0122523
-0.000198815
0.0122268
-0.000182192
0.0122024
-0.000166475
0.0121789
-0.000151607
0.0121565
-0.000137528
0.0121351
-0.00012418
0.012115
-0.000111504
0.012096
-9.94411e-05
0.0120783
-8.79328e-05
0.0120621
-7.69219e-05
0.0120472
-6.63511e-05
0.0120339
-5.6164e-05
0.0120222
-4.63048e-05
0.012012
-3.67182e-05
0.0120035
-2.73493e-05
0.0119966
-1.81431e-05
0.0119914
-9.04481e-06
0.011988
0.0119863
-0.000537445
0.0112806
0.00056605
-0.000502664
0.0118227
-0.000467303
0.0121377
-0.000433931
0.0122952
-0.000403167
0.0123583
-0.000374781
0.012371
-0.00034838
0.0123594
-0.000323642
0.0123372
-0.000300347
0.0123112
-0.000278341
0.0122844
-0.000257512
0.012258
-0.000237773
0.0122326
-0.000219053
0.0122081
-0.000201288
0.0121846
-0.00018442
0.012162
-0.000168391
0.0121405
-0.000153143
0.0121199
-0.000138618
0.0121004
-0.000124758
0.0120821
-0.000111506
0.0120651
-9.88033e-05
0.0120494
-8.65939e-05
0.012035
-7.48211e-05
0.0120221
-6.34291e-05
0.0120108
-5.23625e-05
0.0120009
-4.15666e-05
0.0119927
-3.09868e-05
0.011986
-2.05687e-05
0.011981
-1.02577e-05
0.0119777
0.011976
-0.000565386
0.0112529
0.000593089
-0.000531017
0.0117884
-0.000495526
0.0121022
-0.000461625
0.0122613
-0.000430091
0.0123267
-0.000400817
0.0123417
-0.000373469
0.012332
-0.000347755
0.0123115
-0.000323464
0.0122869
-0.000300447
0.0122614
-0.000278593
0.0122362
-0.000257817
0.0122118
-0.000238047
0.0121883
-0.000219221
0.0121658
-0.000201281
0.0121441
-0.000184169
0.0121233
-0.000167829
0.0121036
-0.000152203
0.0120848
-0.000137235
0.0120672
-0.000122867
0.0120507
-0.000109044
0.0120355
-9.57086e-05
0.0120217
-8.28054e-05
0.0120092
-7.02793e-05
0.0119982
-5.80755e-05
0.0119887
-4.61399e-05
0.0119807
-3.44184e-05
0.0119743
-2.28571e-05
0.0119695
-1.14022e-05
0.0119662
0.0119646
-0.00059128
0.011226
0.0006182
-0.00055729
0.0117544
-0.000521704
0.0120666
-0.000487341
0.012227
-0.000455123
0.0122945
-0.000425045
0.0123116
-0.000396837
0.0123038
-0.000370231
0.0122849
-0.000345028
0.0122617
-0.000321083
0.0122374
-0.000298287
0.0122134
-0.000276555
0.0121901
-0.000255815
0.0121676
-0.000236007
0.012146
-0.000217072
0.0121252
-0.000198954
0.0121052
-0.000181598
0.0120862
-0.000164946
0.0120681
-0.000148944
0.0120512
-0.000133535
0.0120353
-0.000118662
0.0120207
-0.000104272
0.0120073
-9.03094e-05
0.0119953
-7.67191e-05
0.0119846
-6.34474e-05
0.0119754
-5.0441e-05
0.0119677
-3.76462e-05
0.0119615
-2.501e-05
0.0119568
-1.24788e-05
0.0119537
0.0119521
-0.000615146
0.0111997
0.000641389
-0.000581507
0.0117207
-0.000545859
0.012031
-0.000511103
0.0121922
-0.000478281
0.0122617
-0.000447487
0.0122808
-0.000418504
0.0122748
-0.000391092
0.0122575
-0.000365061
0.0122357
-0.00034027
0.0122126
-0.000316612
0.0121897
-0.000294003
0.0121675
-0.000272373
0.012146
-0.00025166
0.0121252
-0.000231808
0.0121053
-0.00021276
0.0120862
-0.000194463
0.0120679
-0.000176859
0.0120505
-0.000159896
0.0120342
-0.000143516
0.0120189
-0.000127667
0.0120048
-0.000112292
0.0119919
-9.73392e-05
0.0119803
-8.27538e-05
0.0119701
-6.84827e-05
0.0119612
-5.44733e-05
0.0119537
-4.06729e-05
0.0119477
-2.70288e-05
0.0119432
-1.34886e-05
0.0119402
0.0119386
-0.000637
0.0111741
0.000662659
-0.000603689
0.0116874
-0.000568014
0.0119953
-0.000532933
0.0121571
-0.000499591
0.0122284
-0.000468166
0.0122494
-0.000438494
0.0122451
-0.000410359
0.0122293
-0.000383583
0.0122089
-0.000358028
0.0121871
-0.000333589
0.0121653
-0.000310183
0.012144
-0.00028774
0.0121235
-0.0002662
0.0121037
-0.000245506
0.0120846
-0.000225603
0.0120663
-0.000206437
0.0120487
-0.000187955
0.0120321
-0.000170102
0.0120163
-0.000152823
0.0120017
-0.000136066
0.0119881
-0.000119777
0.0119756
-0.000103902
0.0119645
-8.83894e-05
0.0119545
-7.31863e-05
0.011946
-5.82408e-05
0.0119388
-4.35012e-05
0.011933
-2.89156e-05
0.0119286
-1.44323e-05
0.0119257
0.0119242
-0.000656856
0.0111489
0.000682014
-0.000623858
0.0116544
-0.000588194
0.0119596
-0.000552856
0.0121218
-0.000519074
0.0121946
-0.000487105
0.0122174
-0.00045683
0.0122149
-0.000428057
0.0122006
-0.000400618
0.0121815
-0.00037438
0.0121608
-0.00034924
0.0121401
-0.000325115
0.0121199
-0.000301936
0.0121003
-0.000279644
0.0120814
-0.000258182
0.0120631
-0.000237498
0.0120456
-0.000217537
0.0120288
-0.000198247
0.0120128
-0.000179575
0.0119977
-0.000161467
0.0119835
-0.000143871
0.0119705
-0.000126735
0.0119585
-0.000110006
0.0119477
-9.36326e-05
0.0119382
-7.75637e-05
0.0119299
-6.1748e-05
0.011923
-4.61346e-05
0.0119174
-3.06726e-05
0.0119131
-1.53112e-05
0.0119103
0.0119089
-0.000674734
0.0111242
0.000699456
-0.000642039
0.0116217
-0.000606423
0.011924
-0.000570897
0.0120863
-0.000536758
0.0121604
-0.00050433
0.012185
-0.000473538
0.0121841
-0.000444211
0.0121712
-0.000416192
0.0121534
-0.000389351
0.012134
-0.000363588
0.0121144
-0.000338821
0.0120952
-0.000314983
0.0120765
-0.000292013
0.0120584
-0.000269858
0.012041
-0.000248463
0.0120242
-0.000227779
0.0120081
-0.000207751
0.0119927
-0.000188328
0.0119782
-0.00016946
0.0119647
-0.000151093
0.0119521
-0.000133176
0.0119406
-0.000115659
0.0119302
-9.84907e-05
0.011921
-8.1621e-05
0.011913
-6.49996e-05
0.0119063
-4.85766e-05
0.0119009
-3.23022e-05
0.0118969
-1.61265e-05
0.0118941
0.0118928
-0.000690651
0.0110999
0.000714993
-0.000658257
0.0115893
-0.000622732
0.0118885
-0.000587086
0.0120506
-0.000552673
0.012126
-0.000519871
0.0121522
-0.000488647
0.0121529
-0.00045885
0.0121415
-0.000430331
0.0121249
-0.000402968
0.0121066
-0.000376659
0.0120881
-0.000351327
0.0120698
-0.000326903
0.0120521
-0.000303329
0.0120349
-0.000280552
0.0120182
-0.000258519
0.0120022
-0.000237179
0.0119867
-0.000216483
0.011972
-0.000196378
0.0119581
-0.000176815
0.0119451
-0.000157743
0.011933
-0.000139111
0.011922
-0.000120871
0.011912
-0.000102972
0.0119031
-8.53648e-05
0.0118954
-6.80009e-05
0.011889
-5.08312e-05
0.0118838
-3.3807e-05
0.0118798
-1.68794e-05
0.0118772
0.0118759
-0.000704633
0.0110759
0.000728635
-0.000672543
0.0115572
-0.000637153
0.0118531
-0.000601457
0.0120149
-0.00056685
0.0120914
-0.00053376
0.0121191
-0.000502188
0.0121213
-0.000472003
0.0121113
-0.000443066
0.012096
-0.000415258
0.0120788
-0.000388481
0.0120613
-0.000362658
0.012044
-0.000337722
0.0120271
-0.000313616
0.0120108
-0.000290287
0.0119949
-0.000267684
0.0119796
-0.000245759
0.0119648
-0.00022446
0.0119508
-0.00020374
0.0119374
-0.000183548
0.0119249
-0.000163835
0.0119133
-0.000144552
0.0119027
-0.000125652
0.0118931
-0.000107084
0.0118845
-8.88022e-05
0.0118771
-7.07576e-05
0.0118709
-5.29027e-05
0.0118659
-3.51898e-05
0.0118621
-1.75713e-05
0.0118596
0.0118583
-0.000716707
0.0110522
0.000740401
-0.000684931
0.0115255
-0.000649723
0.0118179
-0.000614047
0.0119792
-0.000579327
0.0120567
-0.000546033
0.0120858
-0.000514196
0.0120894
-0.000483705
0.0120808
-0.000454429
0.0120667
-0.000426253
0.0120507
-0.000399083
0.0120341
-0.000372842
0.0120178
-0.000347466
0.0120018
-0.000322898
0.0119862
-0.000299086
0.0119711
-0.000275982
0.0119565
-0.000253537
0.0119424
-0.000231702
0.0119289
-0.00021043
0.0119162
-0.000189673
0.0119042
-0.000169383
0.011893
-0.000149511
0.0118828
-0.000130012
0.0118736
-0.000110837
0.0118654
-9.19409e-05
0.0118582
-7.32758e-05
0.0118523
-5.47955e-05
0.0118474
-3.64537e-05
0.0118438
-1.82038e-05
0.0118413
0.0118401
-0.000726907
0.0110288
0.000750313
-0.000695463
0.011494
-0.000660484
0.0117829
-0.000624897
0.0119437
-0.000590143
0.0120219
-0.000556728
0.0120524
-0.000524709
0.0120574
-0.000493992
0.0120501
-0.000464455
0.0120372
-0.000435987
0.0120222
-0.000408498
0.0120066
-0.000381911
0.0119912
-0.000356164
0.011976
-0.000331203
0.0119612
-0.000306976
0.0119468
-0.000283436
0.0119329
-0.000260536
0.0119195
-0.000238229
0.0119066
-0.000216468
0.0118944
-0.000195208
0.0118829
-0.000174401
0.0118722
-0.000154001
0.0118624
-0.000133963
0.0118535
-0.000114241
0.0118456
-9.4789e-05
0.0118388
-7.55619e-05
0.011833
-5.65145e-05
0.0118284
-3.76018e-05
0.0118249
-1.87785e-05
0.0118225
0.0118213
-0.000735276
0.0110056
0.000758402
-0.000704183
0.0114629
-0.000669484
0.0117482
-0.000634054
0.0119082
-0.000599346
0.0119872
-0.000565889
0.0120189
-0.000533769
0.0120253
-0.000502904
0.0120192
-0.000473182
0.0120075
-0.000444496
0.0119935
-0.000416759
0.0119789
-0.000389896
0.0119643
-0.000363848
0.01195
-0.000338559
0.0119359
-0.000313982
0.0119223
-0.00029007
0.011909
-0.000266778
0.0118962
-0.000244061
0.0118839
-0.000221873
0.0118722
-0.000200169
0.0118612
-0.000178905
0.011851
-0.000158036
0.0118415
-0.000137518
0.011833
-0.000117305
0.0118254
-9.7355e-05
0.0118188
-7.76228e-05
0.0118133
-5.80649e-05
0.0118088
-3.86376e-05
0.0118054
-1.92971e-05
0.0118032
0.011802
-0.000741859
0.0109828
0.000764707
-0.000711144
0.0114322
-0.000676775
0.0117139
-0.000641571
0.011873
-0.000606983
0.0119526
-0.000573565
0.0119855
-0.000541421
0.0119932
-0.000510485
0.0119883
-0.000480651
0.0119776
-0.000451819
0.0119647
-0.000423904
0.011951
-0.000396833
0.0119372
-0.000370548
0.0119237
-0.000344997
0.0119104
-0.000320133
0.0118974
-0.000295912
0.0118848
-0.000272289
0.0118726
-0.000249221
0.0118608
-0.000226664
0.0118496
-0.000204576
0.0118391
-0.000182913
0.0118293
-0.000161631
0.0118203
-0.000140688
0.0118121
-0.000120041
0.0118048
-9.9648e-05
0.0117985
-7.94657e-05
0.0117931
-5.9452e-05
0.0117888
-3.95647e-05
0.0117856
-1.97613e-05
0.0117834
0.0117823
-0.000746713
0.0109602
0.000769275
-0.000716404
0.0114019
-0.000682415
0.0116799
-0.000647503
0.0118381
-0.00061311
0.0119183
-0.000579807
0.0119522
-0.000547715
0.0119611
-0.000516781
0.0119573
-0.000486907
0.0119478
-0.000457998
0.0119358
-0.000429971
0.011923
-0.000402758
0.01191
-0.0003763
0.0118972
-0.00035055
0.0118846
-0.00032546
0.0118723
-0.000300988
0.0118603
-0.000277093
0.0118487
-0.000253732
0.0118375
-0.000230864
0.0118268
-0.000208447
0.0118167
-0.00018644
0.0118073
-0.0001648
0.0117986
-0.000143487
0.0117908
-0.00012246
0.0117838
-0.000101677
0.0117777
-8.10981e-05
0.0117725
-6.06815e-05
0.0117684
-4.03868e-05
0.0117653
-2.01731e-05
0.0117632
0.0117621
-0.0007499
0.010938
0.000772164
-0.000720028
0.011372
-0.000686471
0.0116463
-0.000651913
0.0118036
-0.000617787
0.0118841
-0.000584671
0.0119191
-0.000552702
0.0119291
-0.000521841
0.0119265
-0.000491996
0.0119179
-0.000463077
0.0119068
-0.000435003
0.0118949
-0.000407709
0.0118827
-0.000381141
0.0118707
-0.00035525
0.0118587
-0.000329993
0.0118471
-0.000305329
0.0118356
-0.000281218
0.0118246
-0.00025762
0.0118139
-0.000234495
0.0118037
-0.000211803
0.011794
-0.000189505
0.011785
-0.00016756
0.0117767
-0.00014593
0.0117691
-0.000124574
0.0117624
-0.000103453
0.0117565
-8.25279e-05
0.0117516
-6.17593e-05
0.0117476
-4.11078e-05
0.0117446
-2.05344e-05
0.0117426
0.0117416
-0.00075149
0.010916
0.000773439
-0.000722088
0.0113426
-0.00068901
0.0116132
-0.000654869
0.0117694
-0.000621076
0.0118503
-0.000588216
0.0118862
-0.000556441
0.0118973
-0.00052572
0.0118957
-0.000495969
0.0118882
-0.000467102
0.011878
-0.000439043
0.0118668
-0.000411729
0.0118554
-0.000385108
0.011844
-0.000359134
0.0118328
-0.000333766
0.0118217
-0.000308964
0.0118108
-0.000284692
0.0118003
-0.000260909
0.0117901
-0.00023758
0.0117803
-0.000214665
0.0117711
-0.000192127
0.0117624
-0.000169928
0.0117545
-0.00014803
0.0117472
-0.000126395
0.0117408
-0.000104985
0.0117351
-8.37632e-05
0.0117304
-6.26913e-05
0.0117265
-4.17319e-05
0.0117236
-2.08472e-05
0.0117217
0.0117207
-0.000751559
0.0108944
0.000773172
-0.00072266
0.0113137
-0.00069011
0.0115807
-0.000656442
0.0117357
-0.000623045
0.0118169
-0.000590507
0.0118537
-0.00055899
0.0118658
-0.000528473
0.0118652
-0.000498877
0.0118586
-0.000470123
0.0118492
-0.000442137
0.0118388
-0.00041486
0.0118281
-0.000388242
0.0118174
-0.000362239
0.0118068
-0.000336813
0.0117963
-0.000311926
0.011786
-0.000287543
0.0117759
-0.000263627
0.0117662
-0.000240143
0.0117568
-0.000217055
0.011748
-0.000194326
0.0117397
-0.00017192
0.0117321
-0.000149802
0.0117251
-0.000127936
0.0117189
-0.000106284
0.0117135
-8.48126e-05
0.0117089
-6.34841e-05
0.0117052
-4.22631e-05
0.0117024
-2.11136e-05
0.0117006
0.0116996
-0.000750191
0.0108731
0.000771446
-0.000721828
0.0112854
-0.000689849
0.0115487
-0.000656708
0.0117026
-0.000623766
0.011784
-0.000591612
0.0118215
-0.000560413
0.0118346
-0.000530158
0.011835
-0.000500776
0.0118292
-0.000472191
0.0118206
-0.000444334
0.011811
-0.000417147
0.011801
-0.000390584
0.0117908
-0.000364604
0.0117808
-0.00033917
0.0117708
-0.000314247
0.011761
-0.000289802
0.0117515
-0.000265801
0.0117422
-0.00024221
0.0117332
-0.000218994
0.0117248
-0.000196121
0.0117168
-0.000173555
0.0117095
-0.000151263
0.0117028
-0.00012921
0.0116968
-0.000107362
0.0116916
-8.56846e-05
0.0116872
-6.41441e-05
0.0116837
-4.27059e-05
0.011681
-2.13358e-05
0.0116792
0.0116783
-0.000747475
0.0108523
0.000768346
-0.000719679
0.0112576
-0.000688312
0.0115173
-0.000655748
0.01167
-0.000623315
0.0117516
-0.000591599
0.0117898
-0.000560775
0.0118038
-0.000530838
0.011805
-0.000501723
0.0118001
-0.00047336
0.0117923
-0.000445682
0.0117833
-0.000418636
0.0117739
-0.000392177
0.0117644
-0.000366268
0.0117549
-0.000340873
0.0117454
-0.000315961
0.0117361
-0.0002915
0.011727
-0.000267459
0.0117181
-0.000243805
0.0117096
-0.000220507
0.0117015
-0.000197533
0.0116939
-0.000174851
0.0116868
-0.000152427
0.0116804
-0.00013023
0.0116746
-0.000108228
0.0116696
-8.63883e-05
0.0116654
-6.46779e-05
0.011662
-4.30647e-05
0.0116594
-2.15161e-05
0.0116576
0.0116568
-0.000743504
0.0108318
0.000763967
-0.000716304
0.0112304
-0.000685586
0.0114866
-0.000653643
0.0116381
-0.000621768
0.0117197
-0.000590541
0.0117586
-0.000560143
0.0117734
-0.000530575
0.0117755
-0.000501777
0.0117713
-0.000473684
0.0117642
-0.000446233
0.0117559
-0.000419374
0.011747
-0.000393065
0.0117381
-0.000367271
0.0117291
-0.00034196
0.0117201
-0.000317103
0.0117113
-0.000292669
0.0117026
-0.00026863
0.0116941
-0.000244956
0.0116859
-0.000221617
0.0116781
-0.000198584
0.0116708
-0.000175825
0.0116641
-0.000153311
0.0116579
-0.000131012
0.0116523
-0.000108896
0.0116475
-8.69327e-05
0.0116434
-6.50924e-05
0.0116401
-4.33439e-05
0.0116376
-2.16566e-05
0.011636
0.0116351
-0.000738375
0.0108118
0.000758407
-0.000711797
0.0112038
-0.000681763
0.0114566
-0.000650479
0.0116068
-0.000619206
0.0116884
-0.000588515
0.0117279
-0.000558588
0.0117435
-0.000529434
0.0117463
-0.000500999
0.0117428
-0.000473219
0.0117364
-0.000446039
0.0117287
-0.000419409
0.0117204
-0.000393293
0.011712
-0.000367656
0.0117034
-0.000342471
0.0116949
-0.000317708
0.0116865
-0.000293342
0.0116782
-0.000269344
0.0116701
-0.000245689
0.0116623
-0.000222349
0.0116548
-0.000199294
0.0116478
-0.000176498
0.0116413
-0.000153932
0.0116353
-0.000131567
0.01163
-0.000109375
0.0116253
-8.73272e-05
0.0116214
-6.53945e-05
0.0116182
-4.35483e-05
0.0116158
-2.17597e-05
0.0116142
0.0116133
-0.000732189
0.0107922
0.000751767
-0.000706257
0.0111779
-0.000676934
0.0114273
-0.000646345
0.0115762
-0.000615712
0.0116578
-0.000585595
0.0116978
-0.000556181
0.011714
-0.000527481
0.0117176
-0.000499449
0.0117148
-0.000472024
0.011709
-0.000445153
0.0117018
-0.000418793
0.0116941
-0.000392907
0.0116861
-0.000367466
0.011678
-0.000342443
0.0116699
-0.000317812
0.0116619
-0.00029355
0.0116539
-0.000269632
0.0116462
-0.000246032
0.0116387
-0.000222726
0.0116315
-0.000199687
0.0116247
-0.000176889
0.0116185
-0.000154306
0.0116127
-0.000131912
0.0116076
-0.000109679
0.0116031
-8.75811e-05
0.0115993
-6.55913e-05
0.0115962
-4.36825e-05
0.0115939
-2.18277e-05
0.0115923
0.0115915
-0.000725047
0.0107731
0.000744152
-0.000699782
0.0111526
-0.000671194
0.0113987
-0.000641328
0.0115464
-0.000611366
0.0116278
-0.000581859
0.0116683
-0.000552993
0.0116852
-0.000524785
0.0116894
-0.000497191
0.0116872
-0.000470156
0.0116819
-0.00044363
0.0116753
-0.000417574
0.011668
-0.000391954
0.0116605
-0.000366742
0.0116528
-0.000341916
0.0116451
-0.000317452
0.0116374
-0.000293328
0.0116298
-0.000269522
0.0116224
-0.000246012
0.0116152
-0.000222773
0.0116083
-0.000199783
0.0116018
-0.000177017
0.0115957
-0.00015445
0.0115902
-0.000132059
0.0115852
-0.000109819
0.0115809
-8.77039e-05
0.0115772
-6.56898e-05
0.0115742
-4.37513e-05
0.0115719
-2.1863e-05
0.0115704
0.0115697
-0.000717054
0.0107545
0.000735668
-0.000692471
0.011128
-0.000664638
0.0113708
-0.000635517
0.0115172
-0.000606254
0.0115986
-0.000577386
0.0116394
-0.000549098
0.0116569
-0.000521411
0.0116617
-0.000494287
0.0116601
-0.000467673
0.0116553
-0.000441524
0.0116491
-0.000415803
0.0116423