/*--------------------------------*- C++ -*----------------------------------*\
  =========                 |
  \\      /  F ield         | OpenFOAM: The Open Source CFD Toolbox
   \\    /   O peration     | Website:  https://openfoam.org
    \\  /    A nd           | Version:  7
     \\/     M anipulation  |
\*---------------------------------------------------------------------------*/
FoamFile
{
    version     2.0;
    format      ascii;
    class       volVectorField;
    location    "50";
    object      U;
}
// * * * * * * * * * * * * * * * * * * * * * * * * * * * * * * * * * * * * * //

dimensions      [0 1 -1 0 0 0 0];

internalField   nonuniform List<vector> 
6000
(
(-0.000821231 0.000703823 5.47187e-22)
(-0.00521988 0.0016626 -2.45555e-21)
(-0.0133952 0.00229896 -2.71231e-22)
(-0.0231006 0.00270558 1.68461e-21)
(-0.0337913 0.00294157 -1.18798e-21)
(-0.0448957 0.00305472 3.89444e-21)
(-0.0560322 0.00308099 1.21618e-21)
(-0.0669559 0.00304705 -1.26756e-21)
(-0.0775104 0.0029722 4.91181e-22)
(-0.0876017 0.00286986 -3.99869e-21)
(-0.0971768 0.00274887 8.53719e-22)
(-0.106208 0.00261464 -7.58558e-23)
(-0.114681 0.00247014 -1.04753e-21)
(-0.122591 0.0023168 2.42545e-21)
(-0.129933 0.00215526 5.51068e-23)
(-0.136704 0.00198614 -2.13545e-21)
(-0.142904 0.00181079 -8.47943e-22)
(-0.148537 0.001632 -1.27357e-22)
(-0.153619 0.00145475 -1.54876e-21)
(-0.158181 0.00128673 -7.24692e-22)
(-0.000886359 0.00207141 -2.36664e-22)
(-0.00535091 0.0049034 -5.03431e-21)
(-0.0135347 0.0067922 -3.63415e-21)
(-0.023216 0.00800766 -6.69372e-21)
(-0.0338583 0.00872139 5.63306e-21)
(-0.0448967 0.00907261 -3.61887e-21)
(-0.055954 0.00916661 6.90402e-22)
(-0.0667881 0.00908195 -1.06343e-21)
(-0.0772441 0.00887593 -5.70734e-21)
(-0.0872291 0.00858877 -7.98087e-22)
(-0.0966904 0.00824729 -1.02442e-21)
(-0.105601 0.00786817 -1.21883e-21)
(-0.113947 0.00746081 6.56524e-21)
(-0.121721 0.00702983 3.15576e-21)
(-0.128921 0.00657746 -2.96619e-21)
(-0.135542 0.00610565 6.55574e-21)
(-0.141583 0.00561832 4.58037e-22)
(-0.147046 0.00512363 3.47846e-21)
(-0.151943 0.00463611 5.11914e-21)
(-0.156303 0.00417838 -3.74689e-22)
(-0.00101507 0.00341788 6.17579e-21)
(-0.00561015 0.00809903 1.49173e-22)
(-0.0138108 0.0112278 -1.53804e-20)
(-0.0234444 0.0132461 1.30418e-20)
(-0.0339904 0.0144356 1.52267e-21)
(-0.0448975 0.0150251 -9.23199e-21)
(-0.0557969 0.0151882 -5.14167e-21)
(-0.0664519 0.0150548 -4.98856e-21)
(-0.0767109 0.0147198 -1.18133e-22)
(-0.086483 0.0142503 -2.25252e-21)
(-0.0957167 0.0136909 -2.6106e-21)
(-0.104385 0.0130697 3.28335e-21)
(-0.112474 0.0124024 -1.33192e-20)
(-0.119978 0.011697 -1.25784e-20)
(-0.126892 0.0109569 1.0183e-20)
(-0.133211 0.0101851 -1.66441e-20)
(-0.138932 0.00938746 -3.44632e-21)
(-0.144053 0.00857645 1.61819e-20)
(-0.148581 0.00777505 1.87221e-21)
(-0.152535 0.00701981 -3.59449e-21)
(-0.00120514 0.0047297 -4.86963e-21)
(-0.0059937 0.0112203 1.81551e-20)
(-0.0142198 0.0155684 2.51217e-20)
(-0.023783 0.0183795 -1.07164e-20)
(-0.0341862 0.020041 -1.57852e-21)
(-0.0448976 0.0208688 2.48836e-20)
(-0.0555612 0.0211031 1.51512e-21)
(-0.0659483 0.0209241 1.95124e-21)
(-0.0759123 0.0204639 1.07419e-20)
(-0.0853651 0.0198158 -2.05068e-20)
(-0.0942567 0.0190427 -5.87398e-21)
(-0.102561 0.0181838 3.38642e-21)
(-0.110264 0.0172615 -3.48384e-21)
(-0.11736 0.0162867 1.09304e-20)
(-0.123843 0.0152642 -4.84584e-21)
(-0.129706 0.0141971 2.34785e-20)
(-0.134944 0.0130923 6.15121e-21)
(-0.139549 0.011965 -7.24063e-22)
(-0.143521 0.0108447 9.22318e-21)
(-0.146868 0.00977998 -8.70756e-21)
(-0.149618 0.0088423 -4.90873e-21)
(-0.00145334 0.00599406 1.03233e-20)
(-0.00649588 0.0142394 -1.5946e-20)
(-0.0147566 0.0197778 7.0263e-21)
(-0.024228 0.0233673 9.83651e-21)
(-0.0344433 0.0254954 -3.41409e-20)
(-0.0448963 0.0265613 -7.87707e-21)
(-0.0552476 0.0268693 1.01793e-20)
(-0.065279 0.0266486 -1.04626e-21)
(-0.0748504 0.0260677 1.95148e-20)
(-0.0838773 0.0252463 1.44805e-21)
(-0.092312 0.0242649 1.27017e-20)
(-0.100129 0.0231743 1.24235e-20)
(-0.107315 0.0220035 2.42997e-20)
(-0.113863 0.0207665 -1.18187e-20)
(-0.119766 0.0194689 3.53321e-21)
(-0.125017 0.0181135 -4.60748e-21)
(-0.129605 0.0167068 -1.29637e-20)
(-0.133518 0.0152647 -5.1247e-21)
(-0.136745 0.0138207 2.44283e-21)
(-0.139282 0.0124324 -1.19873e-20)
(-0.141138 0.0111887 8.41566e-21)
(-0.00175551 0.00719919 -1.85407e-20)
(-0.00710939 0.0171304 -2.77994e-21)
(-0.0154143 0.0238221 -1.78958e-20)
(-0.0247742 0.0281709 -7.63952e-21)
(-0.0347587 0.030758 2.86009e-20)
(-0.0448926 0.0320607 -1.97539e-21)
(-0.0548568 0.0324449 -2.3831e-20)
(-0.0644457 0.032187 2.02031e-20)
(-0.0735275 0.0314911 -9.39602e-21)
(-0.0820222 0.0305024 3.34216e-20)
(-0.0898845 0.0293193 -1.7205e-20)
(-0.0970898 0.0280043 -2.95708e-20)
(-0.103625 0.0265929 5.69559e-21)
(-0.109482 0.0251025 -2.06508e-21)
(-0.114653 0.0235393 -1.25559e-20)
(-0.119129 0.0219052 -1.41189e-20)
(-0.122895 0.0202046 -1.06405e-20)
(-0.125934 0.0184523 1.02832e-20)
(-0.128224 0.0166819 9.28697e-23)
(-0.129747 0.0149563 5.74327e-21)
(-0.130489 0.013378 -1.45577e-20)
(-0.00210674 0.00833459 5.56666e-20)
(-0.00782548 0.0198696 -1.40521e-20)
(-0.0161847 0.0276697 -1.67717e-20)
(-0.0254154 0.032754 -7.7695e-21)
(-0.0351287 0.0357895 -2.23196e-20)
(-0.0448851 0.0373267 1.11939e-20)
(-0.0543892 0.0377892 1.74784e-20)
(-0.0634503 0.0374986 -1.85423e-20)
(-0.0719461 0.0366935 1.32402e-20)
(-0.0798022 0.0355442 -2.60228e-20)
(-0.0869756 0.0341668 -2.89851e-21)
(-0.093443 0.0326354 -1.09533e-20)
(-0.0991909 0.0309927 -2.27092e-20)
(-0.10421 0.0292593 -2.54948e-20)
(-0.108492 0.027442 -7.95221e-21)
(-0.112024 0.0255412 1.52088e-20)
(-0.114788 0.0235585 -9.03304e-21)
(-0.116762 0.0215046 -2.19579e-20)
(-0.117914 0.0194101 -2.30052e-20)
(-0.11821 0.0173375 2.25018e-20)
(-0.117614 0.0153971 -1.92194e-20)
(-0.0025015 0.00939124 -5.87627e-21)
(-0.00863427 0.0224362 3.98364e-20)
(-0.0170584 0.0312917 2.08352e-20)
(-0.0261442 0.0370827 1.38848e-20)
(-0.0355485 0.040553 3.0651e-20)
(-0.0448718 0.0423201 -1.79668e-20)
(-0.0538448 0.0428619 -1.56616e-21)
(-0.0622942 0.0425429 -2.58445e-20)
(-0.0701083 0.0416344 -2.67073e-20)
(-0.0772188 0.0403314 1.65916e-20)
(-0.0835859 0.0387675 2.46175e-20)
(-0.0891867 0.0370285 -2.1002e-20)
(-0.0940072 0.0351643 -1.31632e-20)
(-0.098037 0.0331993 7.03925e-20)
(-0.101265 0.0311411 3.08979e-21)
(-0.103675 0.0289885 7.70454e-21)
(-0.105247 0.0267389 6.26178e-21)
(-0.105952 0.0243977 7.96913e-21)
(-0.105751 0.0219883 -1.03581e-20)
(-0.104595 0.0195674 3.3445e-21)
(-0.102428 0.0172446 -5.34597e-21)
(-0.00293382 0.0103618 -4.80691e-20)
(-0.00952495 0.0248122 -2.90489e-20)
(-0.0180249 0.0346628 -4.52217e-20)
(-0.0269523 0.041126 1.43746e-20)
(-0.0360128 0.0450136 -5.15122e-20)
(-0.0448496 0.0470038 3.83875e-21)
(-0.0532228 0.0476244 3.93287e-20)
(-0.0609778 0.04728 -9.06297e-21)
(-0.068015 0.0462735 3.6583e-21)
(-0.0742727 0.0448235 -3.04432e-20)
(-0.0797141 0.0430808 -1.80707e-20)
(-0.0843166 0.041143 3.88093e-20)
(-0.0880653 0.0390676 2.14934e-20)
(-0.0909469 0.0368833 -3.4152e-20)
(-0.0929473 0.0345986 8.88225e-21)
(-0.0940478 0.032211 -2.17159e-20)
(-0.0942233 0.0297138 -4.81249e-21)
(-0.0934393 0.0271054 -1.72392e-20)
(-0.0916495 0.0243994 3.88174e-20)
(-0.0887953 0.0216409 5.93398e-21)
(-0.0848027 0.0189296 -1.47901e-20)
(-0.0033975 0.0112405 1.97496e-20)
(-0.0104861 0.0269831 3.21624e-21)
(-0.0190731 0.0377611 3.4571e-20)
(-0.0278306 0.0448563 1.56099e-20)
(-0.0365148 0.0491396 5.40654e-20)
(-0.0448145 0.0513427 -4.43889e-20)
(-0.0525209 0.0520392 -1.32751e-20)
(-0.0595001 0.0516712 3.06559e-20)
(-0.0656651 0.050571 -3.19933e-20)
(-0.0709616 0.04898 -3.51651e-21)
(-0.0753556 0.0470657 -8.15411e-21)
(-0.0788245 0.0449377 -1.46006e-20)
(-0.0813511 0.0426614 1.82215e-20)
(-0.0829186 0.0402699 -1.43619e-20)
(-0.0835085 0.0377739 -7.36681e-21)
(-0.0830971 0.0351697 3.69306e-21)
(-0.0816542 0.0324473 9.89653e-21)
(-0.0791398 0.0295975 3.52051e-20)
(-0.0755009 0.026623 -3.21752e-20)
(-0.0706701 0.0235529 -6.95381e-21)
(-0.0645638 0.0204674 3.94826e-20)
(-0.00388633 0.0120238 -1.74725e-20)
(-0.0115062 0.0289378 8.26885e-21)
(-0.0201911 0.0405686 -1.01206e-21)
(-0.0287689 0.0482498 2.48354e-20)
(-0.0370466 0.0529019 -5.84159e-20)
(-0.0447607 0.0553041 9.27171e-20)
(-0.0517351 0.0560709 2.38454e-20)
(-0.0578574 0.0556788 6.68367e-22)
(-0.0630546 0.0544878 5.83781e-20)
(-0.0672797 0.0527608 9.21267e-21)
(-0.0705014 0.0506814 1.79404e-20)
(-0.0726962 0.0483711 -5.41063e-20)
(-0.0738434 0.0459035 -1.85444e-20)
(-0.0739213 0.043317 6.07771e-20)
(-0.0729049 0.0406248 -8.46518e-21)
(-0.0707638 0.0378234 9.66554e-21)
(-0.0674606 0.0349001 -2.8122e-21)
(-0.0629484 0.0318397 -7.83517e-20)
(-0.0571673 0.0286337 2.36862e-20)
(-0.0500422 0.0252934 1.7783e-20)
(-0.0414848 0.0218727 1.17319e-20)
(-0.00439425 0.0127097 2.24939e-20)
(-0.0125734 0.0306686 1.55451e-20)
(-0.0213669 0.0430712 -5.14666e-20)
(-0.029756 0.0512861 -3.18859e-20)
(-0.037599 0.0562752 -3.04683e-21)
(-0.0446805 0.0588581 -3.69305e-20)
(-0.0508582 0.0596862 -4.40736e-20)
(-0.0560426 0.0592671 -1.98109e-21)
(-0.0601749 0.0579862 -6.46467e-20)
(-0.0632155 0.0561266 5.07648e-21)
(-0.0651352 0.0538876 2.32472e-20)
(-0.0659087 0.0514021 4.68089e-20)
(-0.0655103 0.0487523 -1.371e-20)
(-0.0639113 0.0459821 -4.2343e-20)
(-0.0610779 0.0431085 -2.19854e-20)
(-0.0569703 0.0401294 -2.94964e-20)
(-0.051541 0.0370309 -4.19644e-20)
(-0.0447338 0.0337936 7.88921e-20)
(-0.0364803 0.0304001 -9.35506e-21)
(-0.0266976 0.0268449 -4.87518e-20)
(-0.015291 0.0231531 9.31326e-21)
(-0.00211553 0.0194369 -3.10774e-20)
(-0.00491554 0.0132982 7.54686e-21)
(-0.0136765 0.0321717 1.17248e-20)
(-0.0225879 0.0452589 4.0328e-20)
(-0.03078 0.0539492 7.26849e-20)
(-0.0381607 0.0592376 4.59713e-20)
(-0.044563 0.0619782 9.67365e-21)
(-0.0498794 0.0628547 2.09406e-20)
(-0.0540436 0.0624024 6.58569e-21)
(-0.057011 0.0610304 5.19776e-20)
(-0.0587495 0.0590402 -2.54762e-21)
(-0.059231 0.0566457 1.48343e-20)
(-0.0584271 0.0539913 3.47029e-20)
(-0.0563053 0.0511676 -1.65954e-20)
(-0.0528271 0.0482248 5.78065e-20)
(-0.0479475 0.0451843 3.40476e-20)
(-0.0416137 0.0420467 3.49118e-20)
(-0.0337651 0.0387991 8.33303e-20)
(-0.0243321 0.0354205 -3.50167e-20)
(-0.013235 0.0318878 -4.49065e-20)
(-0.000381916 0.0281829 2.53887e-21)
(0.0143299 0.0243047 4.641e-20)
(0.0310255 0.0203251 -3.37152e-20)
(-0.00544504 0.0137908 -3.27858e-20)
(-0.0148044 0.0334463 -6.00001e-20)
(-0.0238415 0.0471259 8.93634e-21)
(-0.0318274 0.0562271 -6.6774e-20)
(-0.038718 0.0617711 8.23763e-21)
(-0.0443942 0.0646412 1.79418e-21)
(-0.048783 0.0655488 -8.44274e-20)
(-0.0518415 0.0650543 1.66336e-20)
(-0.0535397 0.0635873 3.74476e-20)
(-0.0538516 0.0614667 -3.22459e-21)
(-0.0527497 0.05892 -3.70486e-20)
(-0.0502002 0.0561023 -1.85348e-20)
(-0.0461616 0.0531127 2.0875e-20)
(-0.0405832 0.0500084 3.67376e-21)
(-0.033405 0.0468158 3.60581e-20)
(-0.024558 0.0435397 -5.11241e-20)
(-0.0139641 0.0401701 -4.14779e-20)
(-0.00153692 0.036687 -8.61875e-21)
(0.0128188 0.033066 8.56399e-21)
(0.0292056 0.0292826 -7.93922e-21)
(0.0477413 0.0253182 -3.32347e-20)
(0.068488 0.0212086 2.00001e-20)
(-0.00597823 0.0141909 6.94532e-21)
(-0.0159469 0.0344952 1.06911e-19)
(-0.0251147 0.0486701 -6.71698e-20)
(-0.0328834 0.0581117 -3.44996e-20)
(-0.0392544 0.0638619 -4.09255e-20)
(-0.044155 0.0668279 -3.48933e-20)
(-0.0475465 0.0677451 5.4893e-20)
(-0.0494092 0.0671956 -3.73351e-21)
(-0.0497264 0.0656276 -2.27224e-20)
(-0.048478 0.0633753 2.97229e-20)
(-0.0456345 0.0606788 3.5908e-21)
(-0.0411552 0.0577034 3.41943e-21)
(-0.0349866 0.0545568 -8.99217e-21)
(-0.0270624 0.0513032 -5.46794e-20)
(-0.0173044 0.0479751 -4.52132e-20)
(-0.00562334 0.0445828 3.51285e-20)
(0.0080799 0.0411207 -3.34802e-20)
(0.0239124 0.0375731 4.02628e-21)
(0.0419883 0.033918 2.8755e-20)
(0.0624209 0.030131 -1.20965e-20)
(0.0853562 0.026185 2.00631e-20)
(0.11072 0.0220934 -8.99591e-21)
(-0.00651138 0.0145032 -6.00111e-20)
(-0.0170947 0.0353237 -2.79022e-20)
(-0.0263944 0.0498932 8.51081e-20)
(-0.0339315 0.0595992 3.03574e-20)
(-0.0397496 0.0655002 1.37036e-20)
(-0.0438207 0.0685233 2.10524e-20)
(-0.0461395 0.0694243 2.33991e-20)
(-0.0467083 0.0688039 -6.1358e-20)
(-0.0455229 0.0671267 2.24445e-20)
(-0.0425668 0.0647403 -7.06084e-20)
(-0.0378068 0.0618965 4.03665e-21)
(-0.0311922 0.0587702 -4.45895e-20)
(-0.0226542 0.0554775 6.26672e-20)
(-0.0121078 0.05209 1.47443e-20)
(0.000547397 0.0486473 -7.58181e-21)
(0.0154243 0.045166 -9.26195e-21)
(0.0326462 0.0416473 3.70524e-20)
(0.0523428 0.0380818 -9.54766e-21)
(0.0746485 0.0344536 5.12182e-20)
(0.0996804 0.0307435 1.80238e-20)
(0.127639 0.0269273 -2.70834e-20)
(0.158192 0.0229986 -2.38305e-20)
(0.193463 0.0190504 -3.34164e-21)
(-0.00704156 0.0147335 7.17163e-20)
(-0.0182389 0.0359399 1.30139e-20)
(-0.0276669 0.0508 3.94159e-20)
(-0.0349527 0.0606897 5.18634e-20)
(-0.0401788 0.0666808 -1.48405e-22)
(-0.0433596 0.0697172 -4.82368e-20)
(-0.0445215 0.0705721 -1.67598e-20)
(-0.0436873 0.0698622 2.759e-20)
(-0.0408635 0.0680659 3.5099e-21)
(-0.0360345 0.0655429 5.59285e-20)
(-0.0291605 0.0625554 3.87658e-20)
(-0.0201775 0.0592877 4.41986e-20)
(-0.00899798 0.0558639 -3.04968e-20)
(0.00448599 0.052364 5.71862e-20)
(0.0204 0.048835 -1.99762e-20)
(0.0388833 0.0453017 1.8822e-20)
(0.0600845 0.0417733 4.62303e-20)
(0.084155 0.0382489 -4.18088e-20)
(0.111248 0.0347221 -1.57792e-20)
(0.141466 0.0311809 -1.08187e-20)
(0.175097 0.0276218 -7.30901e-21)
(0.211378 0.0239808 3.65389e-20)
(0.253695 0.0206091 -4.03523e-20)
(-0.00756672 0.0148885 -5.52496e-21)
(-0.0193715 0.0363538 -5.66956e-21)
(-0.0289176 0.0513987 -1.01732e-19)
(-0.035925 0.0613869 1.44348e-20)
(-0.0405116 0.0674028 1.75847e-20)
(-0.0427313 0.0704046 2.85641e-20)
(-0.04264 0.0711801 7.2806e-21)
(-0.0402788 0.0703599 -3.35286e-20)
(-0.0356616 0.0684341 7.45772e-20)
(-0.028771 0.0657731 -7.01199e-20)
(-0.0195569 0.0626484 -9.94056e-20)
(-0.00793776 0.0592533 -1.36345e-21)
(0.00619653 0.0557207 1.31086e-21)
(0.0229802 0.0521389 9.32217e-21)
(0.0425666 0.048564 4.0996e-20)
(0.0651221 0.0450301 -1.48509e-20)
(0.0908188 0.041556 -6.31071e-20)
(0.119824 0.0381514 5.41084e-20)
(0.1523 0.0348217 2.24758e-20)
(0.188305 0.0315598 -2.39808e-20)
(0.228251 0.0284108 -4.05739e-20)
(0.270718 0.0251602 -3.64993e-20)
(0.320816 0.0227251 -9.60461e-22)
(-0.00808556 0.0149756 -2.67819e-20)
(-0.020485 0.0365771 -3.59064e-20)
(-0.0301309 0.0516998 5.49691e-20)
(-0.036823 0.0616983 -1.09252e-19)
(-0.0407111 0.0676697 -1.77814e-20)
(-0.0418854 0.0705854 -2.86364e-20)
(-0.0404283 0.0712461 5.48471e-21)
(-0.0363959 0.0702939 -1.66814e-20)
(-0.0298063 0.068229 -1.67493e-19)
(-0.0206357 0.0654312 4.48863e-20)
(-0.00881938 0.062181 9.22711e-20)
(0.0057461 0.0586803 1.32597e-20)
(0.0231972 0.0550713 3.3671e-20)
(0.0436971 0.0514519 -1.55504e-20)
(0.0674275 0.0478883 -7.446e-20)
(0.0945792 0.0444253 -5.43329e-20)
(0.125341 0.0410933 6.49655e-20)
(0.159879 0.037913 1.14984e-21)
(0.198354 0.0349049 -6.01164e-20)
(0.240725 0.0320558 4.33432e-20)
(0.287559 0.0295076 -4.81627e-20)
(0.336541 0.0267346 -1.07197e-20)
(0.394873 0.0256034 -1.54099e-20)
(0.440631 0.0209589 2.91737e-20)
(-0.00859748 0.0150022 2.4494e-20)
(-0.021572 0.0366221 7.13421e-20)
(-0.0312892 0.0517156 -7.72856e-20)
(-0.0376165 0.0616342 9.02668e-20)
(-0.0407323 0.0674895 8.59142e-20)
(-0.0407594 0.0702657 3.77476e-20)
(-0.0378032 0.0707753 -3.86818e-20)
(-0.0319304 0.0696699 4.89896e-20)
(-0.0231586 0.067459 1.11612e-19)
(-0.011453 0.0645308 -5.71657e-20)
(0.00327107 0.0611743 1.33557e-20)
(0.021143 0.0576007 -6.47843e-20)
(0.0423288 0.0539622 -1.08305e-20)
(0.067021 0.0503675 -7.93363e-20)
(0.0954267 0.0468945 8.41182e-20)
(0.127752 0.0436 -9.20148e-21)
(0.164187 0.0405269 -1.36986e-20)
(0.204874 0.0377067 -1.26896e-20)
(0.249938 0.0351779 2.41353e-20)
(0.299176 0.0328995 -4.03726e-20)
(0.353304 0.0311771 3.31384e-20)
(0.408942 0.0289726 7.53919e-21)
(0.475472 0.0294716 -8.1644e-21)
(0.525174 0.025008 -3.14496e-20)
(-0.00910238 0.0149758 5.8578e-21)
(-0.0226248 0.0365018 -1.02439e-19)
(-0.0323726 0.0514603 1.03242e-20)
(-0.0382702 0.0612079 -7.82965e-20)
(-0.0405214 0.0668743 -3.94451e-20)
(-0.0392778 0.0694574 3.11179e-20)
(-0.0346629 0.0697802 -1.17669e-20)
(-0.0267495 0.0685034 -1.11873e-20)
(-0.0155487 0.0661446 -4.14436e-20)
(-0.00100927 0.0631 4.15998e-20)
(0.0169784 0.0596676 -1.06381e-19)
(0.0385734 0.0560687 5.3797e-20)
(0.0639719 0.0524664 8.73478e-20)
(0.0933926 0.0489819 2.5626e-21)
(0.127058 0.0457058 2.00688e-20)
(0.165174 0.0427078 3.19167e-20)
(0.207902 0.0400432 1.21981e-20)
(0.255321 0.0377516 3.0351e-20)
(0.307471 0.0358913 -2.26819e-20)
(0.363919 0.0343624 1.09811e-19)
(0.425457 0.033701 1.21638e-19)
(0.487624 0.032184 8.09917e-20)
(0.561623 0.0345198 4.68348e-20)
(0.614745 0.0303288 7.56176e-20)
(-0.00960042 0.0149034 7.92133e-21)
(-0.023635 0.0362288 5.49029e-20)
(-0.0333581 0.0509483 1.03026e-19)
(-0.0387422 0.0604349 1.97305e-20)
(-0.0400143 0.0658409 6.40491e-20)
(-0.0373498 0.0681785 -9.50735e-20)
(-0.0308854 0.0682819 5.65426e-20)
(-0.0206938 0.0668206 -1.89109e-20)
(-0.00677375 0.0643198 1.43276e-19)
(0.0109488 0.0611842 -9.23953e-20)
(0.0326123 0.0577213 2.40624e-20)
(0.0584069 0.0541635 -4.25697e-20)
(0.088556 0.0506867 -1.154e-19)
(0.123295 0.0474252 -7.25344e-20)
(0.162842 0.0444834 -2.98216e-20)
(0.207372 0.041943 1.02322e-20)
(0.256976 0.0398693 1.15575e-20)
(0.31161 0.0383037 -1.63809e-20)
(0.37116 0.0373224 -3.09724e-20)
(0.434897 0.0367352 -9.92713e-20)
(0.503531 0.0373339 -7.7885e-20)
(0.571734 0.0366663 -5.28689e-20)
(0.65166 0.0408457 -2.86724e-20)
(0.707498 0.0371014 6.60364e-20)
(0.818218 0.0467037 -1.05691e-20)
(-0.0100917 0.0147912 5.14693e-20)
(-0.0245928 0.0358147 2.06132e-20)
(-0.0342183 0.0501945 -3.25914e-20)
(-0.0389838 0.0593336 -2.6934e-20)
(-0.0391353 0.0644099 -4.05975e-20)
(-0.0348685 0.0664534 3.73209e-20)
(-0.026327 0.0663107 -1.08282e-21)
(-0.0135765 0.0646598 4.70262e-20)
(0.00340312 0.0620342 -9.22125e-20)
(0.0247135 0.0588477 9.76266e-20)
(0.0505246 0.0554186 1.2346e-20)
(0.081055 0.0519917 1.36973e-21)
(0.116545 0.0487569 7.06889e-20)
(0.157227 0.0458624 4.71939e-20)
(0.203284 0.043425 1.51017e-20)
(0.25481 0.0415354 2.7158e-20)
(0.311766 0.0402626 -5.97672e-20)
(0.37391 0.0396392 1.3281e-20)
(0.440877 0.0397485 -7.76486e-20)
(0.511604 0.040293 1.15858e-19)
(0.586479 0.0422639 1.4448e-21)
(0.659753 0.042633 -2.13506e-21)
(0.743274 0.0484233 -2.35118e-20)
(0.800862 0.045349 -7.92658e-20)
(0.911664 0.0569388 -4.2614e-20)
(-0.0105762 0.0146444 -1.20601e-19)
(-0.0254863 0.0352695 -2.12553e-20)
(-0.0349217 0.0492147 9.92949e-21)
(-0.0389373 0.0579232 3.01942e-20)
(-0.0377967 0.0626051 2.02275e-20)
(-0.0317099 0.0643129 -1.63664e-20)
(-0.0208211 0.0639058 -9.25313e-21)
(-0.00518247 0.0620717 7.58989e-20)
(0.0152514 0.0593533 -1.81406e-20)
(0.0406131 0.0561748 -1.60636e-20)
(0.0711024 0.0528667 2.90981e-20)
(0.106957 0.049688 2.24337e-20)
(0.148415 0.0468425 -2.78281e-20)
(0.19567 0.0444911 -9.84295e-20)
(0.248822 0.0427594 1.70206e-20)
(0.307818 0.0417397 -2.0623e-21)
(0.372406 0.0414936 -1.05362e-20)
(0.442059 0.0420296 1.52816e-20)
(0.516057 0.0434128 1.22536e-19)
(0.592985 0.0452499 -2.44071e-20)
(0.672666 0.0485812 -4.95972e-20)
(0.749486 0.0501416 -6.56703e-21)
(0.833691 0.0570951 5.67566e-20)
(0.891725 0.054877 4.75316e-20)
(0.99766 0.0676342 1.25628e-20)
(-0.0110529 0.0144667 4.71403e-20)
(-0.0262999 0.0346014 -5.47074e-20)
(-0.0354319 0.0480245 3.78674e-21)
(-0.0385366 0.0562235 3.20063e-20)
(-0.0358974 0.0604545 5.52667e-20)
(-0.0277322 0.0617943 2.57912e-20)
(-0.0141793 0.0611164 -2.86784e-20)
(0.00472983 0.0591204 8.51772e-21)
(0.0290699 0.0563597 5.33317e-20)
(0.0590043 0.0532708 -6.3353e-20)
(0.0947544 0.050198 1.70544e-20)
(0.136558 0.0474146 -5.65328e-20)
(0.184617 0.0451373 7.89693e-20)
(0.239036 0.0435357 4.63656e-20)
(0.299761 0.0427358 -3.11294e-20)
(0.366509 0.0428192 -3.1105e-21)
(0.438715 0.0438221 -3.69487e-20)
(0.515477 0.0457094 3.13101e-20)
(0.595628 0.0484895 1.64846e-20)
(0.677406 0.05171 2.70008e-20)
(0.759923 0.0562562 -9.95898e-20)
(0.83821 0.0590533 7.63046e-20)
(0.919961 0.0665761 -1.10511e-19)
(0.976821 0.0652811 5.3908e-20)
(1.07336 0.0782147 3.02753e-20)
(-0.0115205 0.0142601 -5.4593e-20)
(-0.027016 0.0338183 1.17681e-19)
(-0.0357038 0.0466361 -2.4847e-20)
(-0.0377066 0.0542557 -1.18297e-19)
(-0.0333233 0.0579897 5.0573e-20)
(-0.0227766 0.0589411 -4.9127e-20)
(-0.00619174 0.0580012 -3.98877e-20)
(0.0164254 0.0558829 -4.31201e-20)
(0.0451804 0.053153 4.85043e-20)
(0.080261 0.0502616 6.06176e-20)
(0.121893 0.0475679 -5.02215e-20)
(0.170281 0.0453583 4.12407e-20)
(0.22554 0.0438582 4.50522e-21)
(0.287615 0.0432373 -1.8687e-20)
(0.356206 0.0436085 5.50967e-20)
(0.430699 0.0450232 -8.12931e-20)
(0.510119 0.0474673 4.71939e-20)
(0.593108 0.0508408 -3.31851e-20)
(0.678001 0.0550505 -1.15278e-20)
(0.762729 0.0596309 1.22495e-19)
(0.845712 0.0651269 1.25674e-19)
(0.92298 0.0690416 2.41044e-20)
(0.999309 0.0764733 -5.77175e-20)
(1.05324 0.0760228 -3.31515e-20)
(1.13695 0.0881217 1.48932e-20)
(-0.0119754 0.0140261 6.64698e-20)
(-0.0276141 0.0329256 -1.24205e-19)
(-0.0356865 0.0450598 4.42013e-20)
(-0.0363612 0.0520418 9.02809e-20)
(-0.0299469 0.0552451 -7.31448e-20)
(-0.0166677 0.0558032 5.49337e-20)
(0.00336964 0.0546283 -6.52735e-20)
(0.0301876 0.0524497 5.71168e-21)
(0.0639184 0.0498493 -3.2105e-20)
(0.104759 0.0472927 -3.75451e-20)
(0.15291 0.0451528 8.87543e-21)
(0.208491 0.0437252 -7.42942e-20)
(0.271459 0.0432357 5.10512e-20)
(0.341507 0.0438396 -1.35218e-21)
(0.417987 0.0456157 -1.03922e-20)
(0.499845 0.0485595 -3.86522e-21)
(0.58561 0.0525774 6.4804e-21)
(0.673425 0.0574811 9.20504e-20)
(0.761151 0.0630418 -1.37461e-19)
(0.846489 0.0688135 6.08626e-20)
(0.927387 0.074905 -1.35962e-19)
(1.00101 0.0796471 -4.73444e-21)
(1.06949 0.0863305 5.76991e-21)
(1.1189 0.0865548 4.15515e-20)
(1.18775 0.0968956 3.02158e-20)
(-0.0124125 0.0137639 3.16074e-20)
(-0.0280668 0.0319239 2.40607e-20)
(-0.035323 0.0433069 -1.2892e-19)
(-0.0344044 0.0496048 -1.1982e-20)
(-0.0256283 0.0522583 -3.44594e-20)
(-0.00921591 0.0524363 -1.30359e-20)
(0.0147474 0.0510753 1.92157e-19)
(0.0463106 0.0489237 -6.79971e-20)
(0.0856205 0.0465804 -1.30713e-20)
(0.132857 0.0445263 4.10823e-20)
(0.188145 0.0431449 -1.08102e-20)
(0.251454 0.042733 2.73801e-20)
(0.322485 0.0435018 -1.88328e-20)
(0.400573 0.0455704 -1.37619e-21)
(0.484608 0.0489562 -3.22115e-20)
(0.573008 0.0535677 1.05303e-20)
(0.663754 0.0592016 2.50212e-20)
(0.754513 0.0655621 -2.71869e-20)
(0.842779 0.0722742 4.37134e-20)
(0.926165 0.0789226 -4.6142e-20)
(1.00251 0.085209 2.67018e-20)
(1.07004 0.0903539 3.83533e-20)
(1.12909 0.095709 3.16649e-21)
(1.17277 0.0964664 -6.99208e-21)
(1.22606 0.104218 -5.27921e-20)
(-0.0128247 0.0134707 -1.21315e-20)
(-0.0283425 0.0308122 3.7534e-20)
(-0.0345482 0.0413873 9.17841e-20)
(-0.0317312 0.0469678 1.85096e-20)
(-0.0202165 0.0490699 1.16129e-20)
(-0.000220162 0.0489022 -2.14759e-21)
(0.0281931 0.0474286 -9.05142e-20)
(0.0650901 0.0454193 -1.97586e-20)
(0.110609 0.0434911 2.13601e-20)
(0.16487 0.0421378 -1.22415e-20)
(0.227856 0.041746 1.0533e-19)
(0.299292 0.0425998 -1.03882e-20)
(0.378515 0.0448736 4.86939e-20)
(0.464382 0.0486213 8.2232e-20)
(0.555221 0.0537649 -4.47118e-20)
(0.648866 0.060094 1.72911e-20)
(0.74277 0.0672724 4.17551e-20)
(0.83422 0.0748865 -1.39414e-20)
(0.920547 0.082437 -1.0415e-19)
(0.999479 0.0895356 2.08531e-21)
(1.06914 0.0956185 3.84985e-20)
(1.12868 0.100663 -3.48344e-20)
(1.17766 0.104299 3.81908e-20)
(1.2148 0.105577 -3.1418e-20)
(1.2529 0.109852 -3.55654e-20)
(-0.013201 0.0131412 -5.40745e-20)
(-0.0284051 0.0295898 1.95227e-20)
(-0.0332896 0.0393096 -9.57292e-21)
(-0.0282273 0.0441546 -7.38497e-20)
(-0.0135507 0.0457234 5.49917e-20)
(0.0105285 0.045268 2.02209e-20)
(0.0439606 0.0437828 -5.08072e-20)
(0.0868116 0.0420613 6.53116e-20)
(0.139175 0.040737 -3.16307e-20)
(0.201046 0.0403107 -5.68939e-20)
(0.272182 0.0411592 -1.58047e-19)
(0.351947 0.0435318 5.9198e-20)
(0.439194 0.0475365 -1.04944e-19)
(0.532189 0.0531259 -3.93979e-21)
(0.628634 0.0600915 -1.13368e-20)
(0.725784 0.0680766 1.41211e-20)
(0.820666 0.0766027 -3.29803e-20)
(0.910376 0.0851474 -1.3206e-20)
(0.992343 0.093135 4.45362e-20)
(1.06466 0.100208 -4.97259e-20)
(1.12608 0.105732 -5.74594e-20)
(1.17646 0.11016 8.17146e-20)
(1.21565 0.112024 -5.32778e-20)
(1.24571 0.113806 -5.81598e-21)
(1.26973 0.113449 -1.27577e-20)
(-0.0135283 0.012772 -3.15177e-20)
(-0.0282108 0.0282537 -3.49267e-20)
(-0.0314677 0.0370811 5.58964e-20)
(-0.0237704 0.0411901 3.824e-21)
(-0.00546324 0.0422657 -9.82501e-20)
(0.0232423 0.0416067 -1.36826e-19)
(0.0622975 0.0402403 4.22649e-20)
(0.111737 0.038983 -5.17867e-20)
(0.171555 0.0384809 4.8153e-20)
(0.241541 0.0392304 -4.48318e-20)
(0.321111 0.0415783 1.03734e-19)
(0.409147 0.045709 -1.45783e-20)
(0.503891 0.0516262 4.77575e-20)
(0.602943 0.0591426 6.73604e-20)
(0.703367 0.0678873 -7.13156e-20)
(0.801931 0.0773438 -7.3577e-20)
(0.895425 0.0869026 4.84822e-21)
(0.981015 0.0959651 1.54062e-20)
(1.05651 0.103944 -1.5179e-20)
(1.12063 0.110537 7.04744e-20)
(1.17289 0.115207 8.46378e-20)
(1.21383 0.118589 -9.42349e-20)
(1.24419 0.119014 1.30619e-20)
(1.26674 0.120715 2.36248e-20)
(1.27855 0.114622 -3.50852e-20)
(-0.0137938 0.0123586 9.02492e-20)
(-0.0277102 0.0267978 5.69534e-20)
(-0.028995 0.03471 -8.37668e-20)
(-0.0182315 0.038101 5.34354e-20)
(0.00421781 0.0387473 3.3376e-20)
(0.0381311 0.037997 1.57588e-19)
(0.0834367 0.0369103 1.01706e-19)
(0.140092 0.0363243 -4.95767e-22)
(0.207916 0.0368887 -3.60324e-20)
(0.286388 0.0390771 9.79541e-20)
(0.374454 0.0431772 -1.01786e-19)
(0.470381 0.04927 4.04134e-20)
(0.571707 0.0572127 3.05365e-20)
(0.675331 0.066641 -9.30413e-20)
(0.777755 0.0770027 6.95054e-21)
(0.875442 0.0876284 1.0391e-19)
(0.965209 0.0978131 1.22138e-20)
(1.04459 0.106937 1.36969e-20)
(1.11202 0.114469 6.29853e-20)
(1.16702 0.120209 -4.13564e-20)
(1.20993 0.123799 -7.6318e-20)
(1.24189 0.125913 6.16921e-20)
(1.26453 0.125306 -1.49102e-19)
(1.27946 0.125523 6.68587e-20)
(1.28823 0.119393 -1.98927e-20)
(-0.0139799 0.011894 -1.00622e-19)
(-0.0268506 0.0252181 -1.01982e-19)
(-0.0257786 0.0322055 2.07028e-20)
(-0.0114767 0.0349166 2.91992e-20)
(0.0156653 0.0352234 -3.65695e-20)
(0.0553966 0.0345234 -1.5437e-19)
(0.107586 0.0339083 -4.18819e-20)
(0.172049 0.0342293 1.00583e-19)
(0.248331 0.0361241 1.42358e-21)
(0.335475 0.0400167 -4.51242e-20)
(0.431822 0.0460976 8.36032e-20)
(0.534905 0.054299 -1.24111e-20)
(0.641501 0.0642888 1.36816e-19)
(0.747859 0.0754996 2.67635e-20)
(0.850085 0.0871992 -3.14374e-20)
(0.944595 0.0985971 -3.90961e-20)
(1.02854 0.108951 5.78254e-21)
(1.10008 0.117687 2.59882e-20)
(1.15849 0.124396 4.95747e-20)
(1.20413 0.129021 6.29824e-21)
(1.23808 0.131391 -6.496e-21)
(1.26206 0.132254 -2.36582e-20)
(1.27795 0.130622 7.15704e-20)
(1.28749 0.129754 1.05774e-20)
(1.29281 0.123359 6.08073e-20)
(-0.0140666 0.0113719 -3.887e-21)
(-0.0255735 0.0235113 3.5195e-20)
(-0.0217203 0.0295789 4.87832e-20)
(-0.00336896 0.0316699 -7.23903e-20)
(0.029049 0.0317539 9.84432e-21)
(0.0752257 0.0312763 3.13698e-20)
(0.134917 0.0313553 -2.13128e-20)
(0.207711 0.0328436 -1.00196e-20)
(0.292762 0.0363434 1.9076e-20)
(0.388534 0.0421928 -4.59681e-20)
(0.492625 0.0504379 -7.92579e-20)
(0.601755 0.0608143 -3.99235e-20)
(0.711955 0.0727656 -2.84964e-20)
(0.818963 0.0855135 -8.54046e-20)
(0.918739 0.0981729 2.90493e-20)
(1.00796 0.109889 -9.29722e-23)
(1.08441 0.119955 -5.22605e-20)
(1.14707 0.127911 7.97007e-21)
(1.19614 0.133516 2.25798e-20)
(1.23275 0.136875 1.67249e-23)
(1.2586 0.138003 6.58302e-21)
(1.27575 0.13769 6.07989e-20)
(1.28623 0.135172 -6.7084e-20)
(1.29166 0.133421 -7.33894e-20)
(1.29419 0.1268 -1.51806e-20)
(-0.0140316 0.0107866 1.18587e-19)
(-0.0238159 0.0216757 1.00308e-19)
(-0.0167179 0.0268446 -6.92966e-20)
(0.0062294 0.0283987 5.12171e-20)
(0.0445319 0.0284053 -3.73583e-20)
(0.0977833 0.028353 5.30031e-20)
(0.165555 0.0293764 -1.47319e-20)
(0.247101 0.0323105 -3.67877e-20)
(0.341044 0.0376887 -2.45619e-20)
(0.445122 0.0457167 9.83162e-20)
(0.556081 0.0562434 3.98696e-20)
(0.669798 0.0687632 3.81979e-20)
(0.781663 0.0824768 -5.36976e-20)
(0.887136 0.0964135 1.09348e-19)
(0.982341 0.109589 -1.05758e-19)
(1.06453 0.121159 -2.24262e-20)
(1.13233 0.130525 1.9151e-20)
(1.18569 0.137396 -3.76828e-20)
(1.22564 0.141725 -1.27573e-19)
(1.25399 0.143777 3.94952e-20)
(1.27284 0.143721 1.66696e-20)
(1.28443 0.142367 -3.98965e-20)
(1.2907 0.13911 2.97894e-20)
(1.29312 0.136654 3.84439e-21)
(1.29381 0.129886 -2.42934e-20)
(-0.0138503 0.0101336 -1.72977e-19)
(-0.0215109 0.0197127 -3.31937e-20)
(-0.0106665 0.0240218 -5.72636e-21)
(0.0174543 0.0251469 2.338e-20)
(0.0622649 0.0252509 5.93448e-20)
(0.123205 0.0258566 -5.25751e-20)
(0.199569 0.0280992 -6.77707e-20)
(0.290147 0.0327672 -6.58998e-21)
(0.392878 0.0402811 5.07788e-20)
(0.504635 0.0506589 -1.43075e-19)
(0.621242 0.063499 -1.49466e-20)
(0.737793 0.0780226 4.35867e-22)
(0.849234 0.0931929 -8.60995e-23)
(0.951049 0.107894 -5.4377e-20)
(1.03985 0.121116 9.45052e-20)
(1.11374 0.132108 3.8857e-20)
(1.17232 0.140442 1.06749e-20)
(1.21646 0.146028 -2.24652e-20)
(1.24796 0.149015 6.69717e-20)
(1.26908 0.149803 -9.26636e-21)
(1.28214 0.148678 2.62101e-20)
(1.28934 0.146438 1.06267e-20)
(1.29245 0.142586 9.16053e-22)
(1.29277 0.139585 3.01107e-21)
(1.29211 0.132697 -9.12823e-21)
(-0.0134967 0.00940964 1.44686e-19)
(-0.0185887 0.0176273 -6.7258e-20)
(-0.00345981 0.0211351 7.91691e-20)
(0.0304368 0.0219658 -1.89015e-20)
(0.0823825 0.0223719 -2.61787e-20)
(0.151589 0.0238966 5.09168e-20)
(0.236961 0.0276516 7.19609e-20)
(0.336673 0.0343394 3.63374e-20)
(0.447824 0.0442129 -5.28442e-20)
(0.566313 0.0570419 9.10794e-20)
(0.687043 0.0721279 -1.77586e-20)
(0.804475 0.0884076 -1.53216e-20)
(0.913393 0.104642 2.47127e-20)
(1.00965 0.119642 1.77287e-21)
(1.09064 0.132461 -3.68123e-20)
(1.15547 0.14251 1.34879e-20)
(1.20477 0.149577 -5.42966e-21)
(1.24024 0.153781 4.61643e-20)
(1.26422 0.155446 -2.84428e-20)
(1.27924 0.155073 -9.11575e-21)
(1.28765 0.153023 3.20965e-21)
(1.2915 0.150051 -2.73985e-20)
(1.29233 0.145736 2.5428e-20)
(1.2912 0.142304 3.5134e-20)