/*--------------------------------*- C++ -*----------------------------------*\
  =========                 |
  \\      /  F ield         | OpenFOAM: The Open Source CFD Toolbox
   \\    /   O peration     | Website:  https://openfoam.org
    \\  /    A nd           | Version:  7
     \\/     M anipulation  |
\*---------------------------------------------------------------------------*/
FoamFile
{
    version     2.0;
    format      ascii;
    class       surfaceScalarField;
    location    "20";
    object      phi;
}
// * * * * * * * * * * * * * * * * * * * * * * * * * * * * * * * * * * * * * //

dimensions      [0 3 -1 0 0 0 0];

internalField   nonuniform List<scalar> 
24025
(
-4.3699e-06
4.3699e-06
-4.6409e-13
-1.47468e-05
1.03769e-05
-1.02855e-12
-2.92652e-05
1.45185e-05
-1.63194e-12
-4.62824e-05
1.70172e-05
-2.23495e-12
-6.43299e-05
1.80475e-05
-2.85261e-12
-8.2102e-05
1.77721e-05
-3.50613e-12
-9.84498e-05
1.63478e-05
-4.15435e-12
-0.00011239
1.39406e-05
-4.85449e-12
-0.000123137
1.07471e-05
-5.58441e-12
-0.000130154
7.0169e-06
-6.32188e-12
-0.000133234
3.07956e-06
-7.06276e-12
-0.000132602
-6.32145e-07
-7.81427e-12
-0.000129011
-3.59074e-06
-8.5624e-12
-0.000123761
-5.25007e-06
-9.27315e-12
-4.72694e-06
-9.91309e-12
-0.000119034
-4.22931e-06
8.59921e-06
-1.42109e-05
2.03585e-05
-2.80802e-05
2.83877e-05
-4.4188e-05
3.3125e-05
-6.10534e-05
3.4913e-05
-7.73511e-05
3.40698e-05
-9.19042e-05
3.09008e-05
-0.000103692
2.57287e-05
-0.00011188
1.89345e-05
-0.000115869
1.10062e-05
-0.000115381
2.592e-06
-0.000110567
-5.44645e-06
-0.000102123
-1.20345e-05
-9.13626e-05
-1.60108e-05
-1.60367e-05
-8.00528e-05
-3.95084e-06
1.25501e-05
-1.31482e-05
2.95559e-05
-2.57283e-05
4.09678e-05
-4.00294e-05
4.74261e-05
-5.45459e-05
4.94295e-05
-6.79138e-05
4.74376e-05
-7.89016e-05
4.18887e-05
-8.64154e-05
3.32425e-05
-8.95235e-05
2.20426e-05
-8.75073e-05
8.99e-06
-7.99458e-05
-4.96951e-06
-6.68292e-05
-1.85631e-05
-4.86847e-05
-3.0179e-05
-2.68097e-05
-3.78858e-05
-3.84895e-05
-4.35696e-06
-3.53962e-06
1.60897e-05
-1.15758e-05
3.7592e-05
-2.22442e-05
5.16362e-05
-3.38644e-05
5.90463e-05
-4.4894e-05
6.0459e-05
-5.39129e-05
5.64565e-05
-5.96113e-05
4.7587e-05
-6.0789e-05
3.44203e-05
-5.63757e-05
1.76293e-05
-4.54758e-05
-1.90992e-06
-2.74545e-05
-2.29908e-05
-2.06958e-06
-4.3948e-05
3.03881e-05
-6.26367e-05
6.88269e-05
-7.63245e-05
-8.06594e-05
0.000110997
-3.00267e-06
1.90924e-05
-9.51717e-06
4.41065e-05
-1.76761e-05
5.97951e-05
-2.57729e-05
6.71431e-05
-3.22176e-05
6.69037e-05
-3.55187e-05
5.97577e-05
-3.42675e-05
4.63358e-05
-2.7131e-05
2.72838e-05
-1.28644e-05
3.36273e-06
9.65053e-06
-2.44249e-05
4.13269e-05
-5.46672e-05
8.27309e-05
-8.5352e-05
0.000133851
-0.000113757
0.000193829
-0.000136302
-0.000147251
0.000260421
-2.3482e-06
2.14405e-05
-7.00018e-06
4.87585e-05
-1.20807e-05
6.48756e-05
-1.58498e-05
7.09123e-05
-1.66597e-05
6.77136e-05
-1.29339e-05
5.60319e-05
-3.14887e-06
3.65508e-05
1.41792e-05
9.95568e-06
4.04945e-05
-2.29525e-05
7.71734e-05
-6.11038e-05
0.000125455
-0.000102949
0.000186287
-0.000146185
0.000260065
-0.000187535
0.00034623
-0.000222467
-0.00024345
0.000442429
-1.58485e-06
2.30254e-05
-4.05469e-06
5.12283e-05
-5.51951e-06
6.63404e-05
-4.1985e-06
6.95913e-05
1.62463e-06
6.18905e-05
1.362e-05
4.40365e-05
3.34389e-05
1.67319e-05
6.27291e-05
-1.93345e-05
0.000103144
-6.33679e-05
0.000156335
-0.000114294
0.000223892
-0.000170506
0.000307205
-0.000229498
0.000407157
-0.000287487
0.000523598
-0.000338908
-0.000374013
0.00065416
-7.21628e-07
2.3747e-05
-7.0754e-07
5.12143e-05
1.94513e-06
6.36878e-05
9.07397e-06
6.24624e-05
2.24722e-05
4.84922e-05
4.39154e-05
2.25932e-05
7.51862e-05
-1.45389e-05
0.000118099
-6.2247e-05
0.000174516
-0.000119785
0.000246356
-0.000186134
0.000335563
-0.000259713
0.000443991
-0.000337925
0.000573093
-0.000416589
0.00072328
-0.000489095
-0.000543087
0.000892355
2.36601e-07
2.35104e-05
3.00278e-06
4.84481e-05
1.02484e-05
5.64422e-05
2.38624e-05
4.88484e-05
4.57245e-05
2.66301e-05
7.77232e-05
-9.40543e-06
0.000121779
-5.85942e-05
0.000179867
-0.000120336
0.000254045
-0.000193963
0.000346469
-0.000278558
0.000459396
-0.00037264
0.000595122
-0.000473651
0.000755714
-0.000577181
0.000942319
-0.0006757
-0.000754028
0.00115326
1.2773e-06
2.22331e-05
7.06108e-06
4.26643e-05
1.9335e-05
4.41682e-05
4.00617e-05
2.81218e-05
7.12159e-05
-4.52414e-06
0.000114806
-5.29954e-05
0.000172891
-0.000116679
0.000247602
-0.000195047
0.000341161
-0.000287522
0.00045591
-0.000393306
0.000594339
-0.000511069
0.000759089
-0.000638401
0.000952794
-0.000770886
0.00117747
-0.000900374
-0.00100895
0.00143239
2.39914e-06
1.9834e-05
1.14361e-05
3.36273e-05
2.91428e-05
2.64615e-05
5.75615e-05
-2.96986e-07
9.87692e-05
-4.57318e-05
0.000154903
-0.000109129
0.000228161
-0.000189938
0.000320819
-0.000287704
0.000435235
-0.000401939
0.00057387
-0.000531941
0.000739325
-0.000676524
0.00093441
-0.000833487
0.00116215
-0.000998625
0.0014254
-0.00116362
-0.00130853
0.00172498
3.59486e-06
1.62391e-05
1.61024e-05
2.11198e-05
3.96091e-05
2.95479e-06
7.62369e-05
-3.69248e-05
0.00012818
-9.76752e-05
0.000197702
-0.00017865
0.000287142
-0.000279378
0.000398914
-0.000399476
0.000535484
-0.000538509
0.000699368
-0.000695825
0.000893143
-0.0008703
0.00111954
-0.00105989
0.00138163
-0.00126071
0.00168278
-0.00146476
-0.00165155
0.0020258
4.85843e-06
1.13807e-05
2.10312e-05
4.94704e-06
5.06579e-05
-2.66718e-05
9.5947e-05
-8.22139e-05
0.0001592
-0.000160928
0.000242809
-0.00026226
0.000349254
-0.000385823
0.000481074
-0.000531296
0.000640834
-0.000698269
0.000831069
-0.00088606
0.00105423
-0.00109346
0.0013127
-0.00131836
0.00160905
-0.00155706
0.00194637
-0.00180208
-0.00203588
0.00233069
6.18341e-06
5.19728e-06
2.61897e-05
-1.50593e-05
6.22056e-05
-6.26877e-05
0.000116515
-0.000136523
0.000191516
-0.000235929
0.000289717
-0.000360461
0.000413718
-0.000509824
0.000566179
-0.000683756
0.000749765
-0.000881855
0.000967059
-0.00110335
0.00122043
-0.00134683
0.0015119
-0.00160983
0.00184294
-0.0018881
0.0022144
-0.00217354
-0.00245596
0.00263448
7.56218e-06
-2.36489e-06
3.15405e-05
-3.90376e-05
7.41506e-05
-0.000105298
0.00013773
-0.000200102
0.000224745
-0.000322945
0.000337783
-0.000473498
0.000479522
-0.000651563
0.000652704
-0.000856938
0.000860092
-0.00108924
0.00110443
-0.00134769
0.00138836
-0.00163076
0.00171442
-0.00193589
0.00208424
-0.00225792
0.00249363
-0.00258293
-0.0029017
0.00293937
8.98601e-06
-1.13509e-05
3.70398e-05
-6.70914e-05
8.63754e-05
-0.000154633
0.000159345
-0.000273072
0.000258435
-0.000422035
0.000386237
-0.0006013
0.000545417
-0.000810743
0.000738688
-0.00105021
0.000968795
-0.00131935
0.00123857
-0.00161746
0.00155114
-0.00194333
0.0019104
-0.00229515
0.00232283
-0.00267034
0.00280751
-0.00306761
-0.00350948
0.00341529
1.04455e-05
-2.17964e-05
4.26387e-05
-9.92847e-05
9.87492e-05
-0.000210744
0.000181088
-0.000355411
0.000292083
-0.000533029
0.000434226
-0.000743444
0.000610026
-0.000986543
0.000821953
-0.00126214
0.00107242
-0.00156982
0.00136382
-0.00190886
0.00169871
-0.00227822
0.00208016
-0.0026766
0.00251269
-0.00310287
0.00300402
-0.00355895
-0.00405893
0.00355347
1.19296e-05
-3.3726e-05
4.82835e-05
-0.000135639
0.00011113
-0.00027359
0.000202667
-0.000446948
0.000325166
-0.000655528
0.000480891
-0.000899169
0.00067201
-0.00117766
0.000900506
-0.00149063
0.0011681
-0.00183741
0.00147623
-0.00221699
0.00182603
-0.00262802
0.00221834
-0.00306891
0.00265363
-0.00353817
0.00313074
-0.00403605
-0.0045655
0.0036373
1.34262e-05
-4.71522e-05
5.39154e-05
-0.000176128
0.000123366
-0.000343041
0.000223777
-0.000547359
0.000357154
-0.000788905
0.000525388
-0.0010674
0.000730129
-0.0013824
0.000972646
-0.00173315
0.0012537
-0.00211847
0.00157344
-0.00253673
0.00193125
-0.00298583
0.0023256
-0.00346326
0.00275356
-0.00396613
0.00320924
-0.00449173
-0.00503455
0.00367829
1.49211e-05
-6.20734e-05
5.94686e-05
-0.000220675
0.000135292
-0.000418864
0.000244097
-0.000656164
0.000387505
-0.000932312
0.000566893
-0.00124679
0.000783226
-0.00159874
0.00103688
-0.0019868
0.00132748
-0.00240907
0.00165375
-0.002863
0.00201336
-0.00334544
0.00240273
-0.00385264
0.00281664
-0.00438004
0.00324714
-0.00492223
-0.00546833
0.00368093
1.63975e-05
-7.84708e-05
6.48685e-05
-0.000269146
0.000146728
-0.000500724
0.000263285
-0.000772722
0.000415659
-0.00108469
0.00060458
-0.00143571
0.000830184
-0.00182434
0.00109183
-0.00224845
0.00138792
-0.00270516
0.00171577
-0.00319085
0.00207152
-0.0037012
0.00245004
-0.00423115
0.00284473
-0.00477474
0.00324713
-0.00532462
-0.00586713
0.00364592
1.78349e-05
-9.63058e-05
7.00303e-05
-0.000321342
0.000157474
-0.000588167
0.000280976
-0.000896224
0.000441037
-0.00124475
0.000637617
-0.00163229
0.000869919
-0.00205664
0.0011362
-0.00251473
0.00143363
-0.00300259
0.00175825
-0.00351547
0.00210493
-0.00404787
0.00246745
-0.00459367
0.00283865
-0.00514593
0.00321034
-0.00569632
-0.00623028
0.00357349
1.92095e-05
-0.000115515
7.48582e-05
-0.00037699
0.000167314
-0.000680623
0.000296784
-0.00102569
0.000463042
-0.00141101
0.000665179
-0.00183443
0.000901384
-0.00229285
0.00116879
-0.00278213
0.00146341
-0.00329721
0.00178014
-0.0038322
0.00211292
-0.00438065
0.00245494
-0.00493569
0.00279899
-0.00548998
0.00313772
-0.00603505
-0.00655691
0.00346434
2.04936e-05
-0.000136009
7.92474e-05
-0.000435744
0.000176016
-0.000777391
0.000310308
-0.00115999
0.000481077
-0.00158177
0.000686465
-0.00203982
0.000923612
-0.00252999
0.00118855
-0.00304708
0.00147624
-0.0035849
0.00178068
-0.00413664
0.00209519
-0.00469516
0.00241279
-0.0052533
0.00272667
-0.00580386
0.00303064
-0.00633901
-0.0068463
0.00332004
2.16572e-05
-0.000157666
8.30863e-05
-0.000497173
0.000183343
-0.000877648
0.000321151
-0.0012978
0.000494567
-0.00175519
0.000700739
-0.00224599
0.000935759
-0.00276501
0.00119464
-0.00330596
0.00147144
-0.00386169
0.00175951
-0.0044247
0.00205189
-0.00498755
0.00234182
-0.00554322
0.0026232
-0.00608524
0.00289116
-0.00660698
-0.00709817
0.00314303
2.26681e-05
-0.000180334
8.62606e-05
-0.000560766
0.000189059
-0.000980446
0.000328931
-0.00143767
0.000502986
-0.00192924
0.000707364
-0.00245037
0.000937156
-0.00299481
0.00118647
-0.00355527
0.00144866
-0.00412389
0.00171672
-0.00469276
0.00198373
-0.00525456
0.00224341
-0.00580291
0.00249065
-0.00633248
0.002722
-0.00683832
-0.00731264
0.00293647
2.34939e-05
-0.000203828
8.86585e-05
-0.00062593
0.000192941
-0.00108473
0.000333303
-0.00157803
0.000505883
-0.00210182
0.000705839
-0.00265032
0.000927347
-0.00321631
0.00116377
-0.00379169
0.00140799
-0.00436811
0.00165291
-0.00493767
0.00189192
-0.00549357
0.00211951
-0.00603049
0.00233167
-0.00654464
0.00252633
-0.00703298
-0.00749032
0.00270401
2.41028e-05
-0.000227931
9.01745e-05
-0.000692002
0.000194787
-0.00118934
0.00033397
-0.00171721
0.000502904
-0.00227076
0.000695826
-0.00284324
0.00090612
-0.00342661
0.00112659
-0.00401217
0.00134991
-0.00459143
0.0015691
-0.00515687
0.00177816
-0.00570263
0.00197248
-0.00622481
0.00214924
-0.00672141
0.00230766
-0.0071914
-0.00763212
0.00244946
2.44654e-05
-0.000252396
9.07152e-05
-0.000758252
0.000194427
-0.00129305
0.000330706
-0.00185349
0.000493814
-0.00243387
0.000677167
-0.0030266
0.000873516
-0.00362296
0.00107532
-0.00421397
0.00127525
-0.00479136
0.00146674
-0.00534837
0.00164453
-0.00588041
0.00180502
-0.0063853
0.00194658
-0.00686296
0.00206957
-0.0073144
-0.00773919
0.00217665
2.45554e-05
-0.000276952
9.02022e-05
-0.000823898
0.000191733
-0.00139458
0.000323358
-0.00198512
0.000478504
-0.00258901
0.000649893
-0.00319799
0.000829827
-0.00380289
0.00101063
-0.00439478
0.00118521
-0.00496593
0.00134758
-0.00551073
0.00149334
-0.00602618
0.00161998
-0.00651194
0.00172694
-0.00696992
0.00181559
-0.00740305
-0.00781286
0.00188925
2.43512e-05
-0.000301303
8.85761e-05
-0.000888123
0.000186617
-0.00149262
0.000311858
-0.00211036
0.000456996
-0.00273415
0.00061422
-0.00335521
0.000775573
-0.00396424
0.000933462
-0.00455266
0.00108121
-0.00511368
0.00121357
-0.0056431
0.00132709
-0.00613969
0.00142027
-0.00660512
0.00149354
-0.00704319
0.00154908
-0.00745859
-0.00785447
0.00159069
2.38362e-05
-0.000325139
8.57985e-05
-0.000950086
0.000179044
-0.00158587
0.000296223
-0.00222753
0.000429443
-0.00286737
0.000570532
-0.0034963
0.000711478
-0.00410519
0.000844962
-0.00468615
0.000964895
-0.00523361
0.00106685
-0.00574505
0.00114832
-0.00622116
0.00120875
-0.00666556
0.00124943
-0.00708387
0.00127315
-0.00748231
-0.00786535
0.00128404
2.29997e-05
-0.000348139
8.18535e-05
-0.00100894
0.000169024
-0.00167304
0.000276553
-0.00233506
0.000396115
-0.00298693
0.000519366
-0.00361955
0.000638431
-0.00422425
0.000746438
-0.00479416
0.000838004
-0.00532518
0.000909569
-0.00581662
0.000959534
-0.00627113
0.000988187
-0.00669421
0.000997457
-0.00709314
0.000990625
-0.00747548
-0.00784671
0.000971985
2.18372e-05
-0.000369976
7.6748e-05
-0.00106385
0.000156619
-0.00175291
0.000253027
-0.00243147
0.00035739
-0.0030913
0.000461382
-0.00372354
0.000557444
-0.00432032
0.000639296
-0.00487601
0.000702343
-0.00538823
0.000743894
-0.00585817
0.000763175
-0.00629041
0.000761154
-0.00669219
0.000740238
-0.00707222
0.000703992
-0.00743924
-0.00779964
0.000656915
2.03504e-05
-0.000390326
7.05111e-05
-0.00111401
0.000141932
-0.00182433
0.000225892
-0.00251543
0.000313734
-0.00317914
0.000397334
-0.00380714
0.000469613
-0.0043926
0.000524996
-0.00493139
0.000559718
-0.00542295
0.000571923
-0.00587037
0.000561562
-0.00628005
0.000530118
-0.00666075
0.000480253
-0.00702236
0.000415463
-0.00737445
-0.00772507
0.000340902
1.85472e-05
-0.000408874
6.3193e-05
-0.00115866
0.00012511
-0.00188625
0.000195455
-0.00258578
0.000265682
-0.00324937
0.000328044
-0.0038695
0.000376079
-0.00444063
0.000404997
-0.00496031
0.000411877
-0.00542983
0.000395648
-0.00585414
0.000356876
-0.00624128
0.000297437
-0.00660131
0.000220159
-0.00694508
0.000128192
-0.00728248
-0.00761946
2.25759e-05
1.64414e-05
-0.000425315
5.48631e-05
-0.00119708
0.000106334
-0.00193772
0.000162071
-0.00264151
0.000213822
-0.00330112
0.000254371
-0.00391005
0.000277986
-0.00446425
0.000280714
-0.00496304
0.000260466
-0.00540958
0.000216884
-0.00581056
0.000151049
-0.00617544
6.51224e-05
-0.00651538
-3.7954e-05
-0.006842
-0.000154796
-0.00716564
-0.00749266
-0.000281597
1.40522e-05
-0.000439367
4.56079e-05
-0.00122863
8.58135e-05
-0.00197793
0.000126131
-0.00268183
0.000158772
-0.00333376
0.000177187
-0.00392847
0.000176457
-0.00446352
0.00015349
-0.00494007
0.000106993
-0.00536308
3.72364e-05
-0.0057408
-5.43051e-05
-0.0060839
-0.000165324
-0.00640436
-0.000292976
-0.00671435
-0.00043397
-0.00702464
-0.00734265
-0.00058398
1.1404e-05
-0.000450771
3.55291e-05
-0.00125276
6.37838e-05
-0.00200618
8.8055e-05
-0.0027061
0.00010117
-0.00334687
9.73585e-05
-0.00392466
7.25774e-05
-0.00443873
2.45874e-05
-0.00489208
-4.71667e-05
-0.00529133
-0.000141862
-0.00564611
-0.000257745
-0.00596802
-0.000392508
-0.0062696
-0.000543511
-0.00656335
-0.000707635
-0.00686052
-0.00716938
-0.000880903
8.52586e-06
-0.000459297
2.47415e-05
-0.00126897
4.04995e-05
-0.00202194
4.82772e-05
-0.00271388
4.16662e-05
-0.00334026
1.57573e-05
-0.00389875
-3.26266e-05
-0.00439035
-0.000104858
-0.00481985
-0.000200791
-0.0051954
-0.000319161
-0.00552774
-0.000458027
-0.00582915
-0.000615182
-0.00611244
-0.000788325
-0.0063902
-0.000974745
-0.0066741
-0.00697356
-0.00117057
5.45363e-06
-0.000464751
1.33722e-05
-0.00127689
1.62311e-05
-0.0020248
7.27624e-06
-0.00270493
-1.9103e-05
-0.00331388
-6.68595e-05
-0.00385099
-0.000138214
-0.004319
-0.000233775
-0.00472429
-0.000352788
-0.00507638
-0.000493589
-0.00538694
-0.000654114
-0.00566863
-0.000832318
-0.00593424
-0.00102637
-0.00619615
-0.00123417
-0.0064663
-0.00675592
-0.00145181
2.27095e-06
-0.000467022
1.54793e-06
-0.00127617
-8.7551e-06
-0.0020145
-3.4591e-05
-0.00267909
-8.05503e-05
-0.00326792
-0.000149652
-0.00378189
-0.000243252
-0.0042254
-0.000361201
-0.00460634
-0.000502197
-0.00493539
-0.000664246
-0.00522489
-0.000845185
-0.00548769
-0.00104315
-0.00573628
-0.00125684
-0.00598245
-0.00148507
-0.00623807
-0.00651698
-0.00172401
-1.18718e-06
-0.000465835
-1.06057e-05
-0.00126675
-3.41823e-05
-0.00199092
-7.67896e-05
-0.00263648
-0.000142005
-0.00320271
-0.00023187
-0.00369202
-0.000346889
-0.00411038
-0.000486241
-0.00446699
-0.000648156
-0.00477347
-0.000830374
-0.00504267
-0.00103064
-0.00528742
-0.00124719
-0.00551973
-0.00147926
-0.00575038
-0.00172684
-0.0059905
-0.00625662
-0.0019872
-4.58452e-06
-0.00046125
-2.29175e-05
-0.00124842
-5.97481e-05
-0.00195409
-0.000118897
-0.00257733
-0.000202883
-0.00311872
-0.000312784
-0.00358212
-0.000448304
-0.00397486
-0.000608038
-0.00430725
-0.00078985
-0.00459166
-0.0009913
-0.00484122
-0.00121007
-0.00506865
-0.00144443
-0.00528537
-0.00169385
-0.00550096
-0.00195942
-0.00572493
-0.00597312
-0.00224292
-8.05933e-06
-0.000453191
-3.526e-05
-0.00122122
-8.51788e-05
-0.00190417
-0.000160482
-0.00250203
-0.000262607
-0.0030166
-0.000391689
-0.00345304
-0.000546696
-0.00381985
-0.000725731
-0.00412822
-0.000926412
-0.00439098
-0.00114626
-0.00462137
-0.00138306
-0.00483185
-0.00163519
-0.00503323
-0.0019023
-0.00523385
-0.00218728
-0.00543995
-0.00566625
-0.00249415
-1.15343e-05
-0.000441656
-4.74917e-05
-0.00118526
-0.000110202
-0.00184146
-0.000201131
-0.0024111
-0.000320627
-0.0028971
-0.000467912
-0.00330575
-0.000641281
-0.00364648
-0.000838422
-0.00393108
-0.0010568
-0.0041726
-0.00129404
-0.00438413
-0.00154825
-0.00457764
-0.00181833
-0.00476315
-0.00210395
-0.00494824
-0.00240555
-0.00513835
-0.00533235
-0.00273946
-1.4964e-05
-0.000426692
-5.94746e-05
-0.00114075
-0.000134559
-0.00176638
-0.000240458
-0.0023052
-0.000376434
-0.00276112
-0.000540837
-0.00314135
-0.000731333
-0.00345599
-0.000945242
-0.00371717
-0.00117991
-0.00393793
-0.00143305
-0.004131
-0.00170299
-0.0043077
-0.00198887
-0.00447727
-0.00229052
-0.00464659
-0.00260906
-0.00481981
-0.00499476
-0.00294664
-1.83077e-05
-0.000408385
-7.10807e-05
-0.00108798
-0.000158013
-0.00167944
-0.000278113
-0.0021851
-0.000429584
-0.00260965
-0.000609938
-0.002961
-0.000816257
-0.00324967
-0.00104552
-0.0034879
-0.00129494
-0.00368851
-0.00156225
-0.00386369
-0.00184583
-0.00402411
-0.00214483
-0.00417828
-0.00245898
-0.00433243
-0.0027886
-0.00449018
-0.00465073
-0.00313263
-2.15283e-05
-0.000386856
-8.21935e-05
-0.00102731
-0.00018035
-0.00158129
-0.000313793
-0.00205166
-0.000479699
-0.00244375
-0.000674792
-0.00276591
-0.000895611
-0.00302885
-0.00113883
-0.00324469
-0.00140152
-0.00342581
-0.0016814
-0.00358382
-0.00197686
-0.00372865
-0.002287
-0.00386814
-0.00261144
-0.004008
-0.00295004
-0.00415158
-0.00429912
-0.00330165
-2.45919e-05
-0.000362265
-9.27086e-05
-0.000959195
-0.000201386
-0.00147261
-0.000347239
-0.00190581
-0.000526468
-0.00226452
-0.000735063
-0.00255731
-0.000969073
-0.00279484
-0.00122489
-0.00298887
-0.00149949
-0.00315121
-0.00179056
-0.00329275
-0.00209653
-0.00342268
-0.00241647
-0.00354819
-0.00274998
-0.0036745
-0.00309683
-0.00380472
-0.00393968
-0.00345627
-2.74682e-05
-0.000334796
-0.000102534
-0.000884129
-0.000220958
-0.00135419
-0.000378229
-0.00174853
-0.000569636
-0.00207311
-0.000790492
-0.00233645
-0.00103641
-0.00254892
-0.00130355
-0.00272173
-0.0015888
-0.00286596
-0.00188986
-0.00299169
-0.0022052
-0.00310734
-0.00253395
-0.00321944
-0.00287574
-0.00333271
-0.00323043
-0.00345003
-0.00357244
-0.00359767
-3.01302e-05
-0.000304666
-0.000111589
-0.00080267
-0.000238927
-0.00122685
-0.000406579
-0.00158088
-0.000608992
-0.0018707
-0.000840871
-0.00210457
-0.00109745
-0.00229234
-0.00137469
-0.00244449
-0.00166942
-0.00257123
-0.00197938
-0.00268174
-0.0023031
-0.00278362
-0.00263982
-0.00288272
-0.00298926
-0.00298328
-0.00335141
-0.00308787
-0.00319764
-0.00372622
-3.25544e-05
-0.000272112
-0.000119805
-0.00071542
-0.000255175
-0.00109148
-0.000432134
-0.00140392
-0.000644363
-0.00165847
-0.000886032
-0.00186291
-0.00115204
-0.00202634
-0.0014382
-0.00215833
-0.00174131
-0.00226812
-0.00205915
-0.0023639
-0.00239036
-0.00245241
-0.00273427
-0.00253882
-0.00309072
-0.00262683
-0.00345986
-0.00271873
-0.00281563
-0.00384187
-3.472e-05
-0.000237392
-0.00012712
-0.000623021
-0.000269601
-0.000948996
-0.000454761
-0.00121876
-0.000675607
-0.00143762
-0.000925837
-0.00161268
-0.00120007
-0.0017521
-0.00149401
-0.0018644
-0.00180443
-0.00195769
-0.00212918
-0.00203915
-0.00246699
-0.0021146
-0.00281731
-0.0021885
-0.0031801
-0.00226404
-0.00355565
-0.00234318
-0.00242694
-0.00394433
-3.6609e-05
-0.000200783
-0.000133483
-0.000526147
-0.000282119
-0.000800359
-0.000474352
-0.00102653
-0.000702602
-0.00120937
-0.000960168
-0.00135511
-0.00124144
-0.00147082
-0.00154203
-0.00156382
-0.00185871
-0.00164101
-0.00218941
-0.00170845
-0.00253294
-0.00177107
-0.00288886
-0.00183258
-0.00325725
-0.00189565
-0.00363852
-0.00196191
-0.00203224
-0.00403322
-3.82064e-05
-0.000162576
-0.000138851
-0.000425503
-0.000292658
-0.000646552
-0.000490814
-0.000828374
-0.000725248
-0.00097494
-0.000988929
-0.00109143
-0.00127607
-0.00118369
-0.00158218
-0.0012577
-0.0019041
-0.0013191
-0.00223977
-0.00137278
-0.00258811
-0.00142272
-0.00294879
-0.00147191
-0.00332197
-0.00152246
-0.00370819
-0.0015757
-0.00163234
-0.00410809
-3.94994e-05
-0.000123077
-0.000143188
-0.000321814
-0.000301159
-0.000488581
-0.000504073
-0.00062546
-0.000743462
-0.00073555
-0.00101204
-0.000822853
-0.00130386
-0.000891864
-0.00161441
-0.00094715
-0.00194051
-0.000992995
-0.00228018
-0.00103311
-0.00263242
-0.00107048
-0.00299695
-0.00110737
-0.00337406
-0.00114536
-0.00376434
-0.00118542
-0.00122813
-0.00416854
-4.0478e-05
-8.2599e-05
-0.000146465
-0.000215827
-0.000307575
-0.000327471
-0.000514068
-0.000418967
-0.000757181
-0.000492437
-0.00102943
-0.000550609
-0.00132476
-0.000596528
-0.00163863
-0.00063328
-0.00196788
-0.000663748
-0.00231057
-0.000690422
-0.00266575
-0.000715302
-0.00303322
-0.000739892
-0.00341332
-0.000765256
-0.00380671
-0.000792037
-0.000820624
-0.00421421
-4.11347e-05
-4.14643e-05
-0.000148662
-0.0001083
-0.000311871
-0.000164262
-0.000520756
-0.000210082
-0.000766353
-0.00024684
-0.00104105
-0.000275917
-0.00133872
-0.00029885
-0.00165481
-0.000317194
-0.00198616
-0.0003324
-0.00233086
-0.000345717
-0.00268802
-0.000358147
-0.00305747
-0.000370443
-0.00343959
-0.000383137
-0.00383508
-0.000396549
-0.000410877
-0.00424482
-4.14643e-05
-3.0686e-13
-0.000149764
-5.22623e-13
-0.000314026
-6.85265e-13
-0.000524108
-8.09333e-13
-0.000770948
-8.99492e-13
-0.00104686
-9.60743e-13
-0.00134571
-1.00248e-12
-0.00166291
-1.02933e-12
-0.00199531
-1.04684e-12
-0.00234103
-1.05877e-12
-0.00269917
-1.06996e-12
-0.00306961
-1.08209e-12
-0.00345275
-1.0953e-12
-0.0038493
-1.10849e-12
-1.12114e-12
-0.00426018
-4.14643e-05
4.14643e-05
-0.000149764
0.0001083
-0.000314026
0.000164262
-0.000524108
0.000210082
-0.000770948
0.00024684
-0.00104686
0.000275917
-0.00134571
0.00029885
-0.00166291
0.000317194
-0.00199531
0.0003324
-0.00234103
0.000345717
-0.00269917
0.000358147
-0.00306961
0.000370443
-0.00345275
0.000383137
-0.0038493
0.000396549
0.000410877
-0.00426018
-4.11347e-05
8.2599e-05
-0.000148662
0.000215827
-0.000311871
0.000327471
-0.000520756
0.000418967
-0.000766353
0.000492437
-0.00104105
0.000550609
-0.00133872
0.000596528
-0.00165481
0.00063328
-0.00198616
0.000663748
-0.00233086
0.000690422
-0.00268802
0.000715302
-0.00305747
0.000739892
-0.00343959
0.000765256
-0.00383508
0.000792037
0.000820624
-0.00424482
-4.0478e-05
0.000123077
-0.000146465
0.000321814
-0.000307575
0.000488581
-0.000514068
0.00062546
-0.000757181
0.00073555
-0.00102943
0.000822853
-0.00132476
0.000891864
-0.00163863
0.00094715
-0.00196788
0.000992995
-0.00231057
0.00103311
-0.00266575
0.00107048
-0.00303322
0.00110737
-0.00341332
0.00114536
-0.00380671
0.00118542
0.00122813
-0.00421421
-3.94994e-05
0.000162576
-0.000143188
0.000425503
-0.000301159
0.000646552
-0.000504073
0.000828374
-0.000743462
0.00097494
-0.00101204
0.00109143
-0.00130386
0.00118369
-0.00161441
0.0012577
-0.00194051
0.0013191
-0.00228018
0.00137278
-0.00263242
0.00142272
-0.00299695
0.00147191
-0.00337406
0.00152246
-0.00376434
0.0015757
0.00163234
-0.00416854
-3.82064e-05
0.000200783
-0.000138851
0.000526147
-0.000292658
0.000800359
-0.000490814
0.00102653
-0.000725248
0.00120937
-0.000988929
0.00135511
-0.00127607
0.00147082
-0.00158218
0.00156382
-0.0019041
0.00164101
-0.00223977
0.00170845
-0.00258811
0.00177107
-0.00294879
0.00183258
-0.00332197
0.00189565
-0.00370819
0.00196191
0.00203224
-0.00410809
-3.6609e-05
0.000237392
-0.000133483
0.000623021
-0.000282119
0.000948996
-0.000474352
0.00121876
-0.000702602
0.00143762
-0.000960168
0.00161268
-0.00124144
0.0017521
-0.00154203
0.0018644
-0.00185871
0.00195769
-0.00218941
0.00203915
-0.00253294
0.0021146
-0.00288886
0.0021885
-0.00325725
0.00226404
-0.00363852
0.00234318
0.00242694
-0.00403322
-3.472e-05
0.000272112
-0.00012712
0.00071542
-0.000269601
0.00109148
-0.000454761
0.00140392
-0.000675607
0.00165847
-0.000925837
0.00186291
-0.00120007
0.00202634
-0.00149401
0.00215833
-0.00180443
0.00226812
-0.00212918
0.0023639
-0.00246699
0.00245241
-0.00281731
0.00253882
-0.0031801
0.00262683
-0.00355565
0.00271873
0.00281563
-0.00394433
-3.25544e-05
0.000304666
-0.000119805
0.00080267
-0.000255175
0.00122685
-0.000432134
0.00158088
-0.000644363
0.0018707
-0.000886032
0.00210457
-0.00115204
0.00229234
-0.0014382
0.00244449
-0.00174131
0.00257123
-0.00205915
0.00268174
-0.00239036
0.00278362
-0.00273427
0.00288272
-0.00309072
0.00298328
-0.00345986
0.00308787
0.00319764
-0.00384187
-3.01302e-05
0.000334796
-0.000111589
0.000884129
-0.000238927
0.00135419
-0.000406579
0.00174853
-0.000608992
0.00207311
-0.000840871
0.00233645
-0.00109745
0.00254892
-0.00137469
0.00272173
-0.00166942
0.00286596
-0.00197938
0.00299169
-0.0023031
0.00310734
-0.00263982
0.00321944
-0.00298926
0.00333271
-0.00335141
0.00345003
0.00357244
-0.00372622
-2.74682e-05
0.000362265
-0.000102534
0.000959195
-0.000220958
0.00147261
-0.000378229
0.00190581
-0.000569636
0.00226452
-0.000790492
0.00255731
-0.00103641
0.00279484
-0.00130355
0.00298887
-0.0015888
0.00315121
-0.00188986
0.00329275
-0.0022052
0.00342268
-0.00253395
0.00354819
-0.00287574
0.0036745
-0.00323043
0.00380472
0.00393968
-0.00359767
-2.45919e-05
0.000386856
-9.27086e-05
0.00102731
-0.000201386
0.00158129
-0.000347239
0.00205166
-0.000526468
0.00244375
-0.000735063
0.00276591
-0.000969073
0.00302885
-0.00122489
0.00324469
-0.00149949
0.00342581
-0.00179056
0.00358382
-0.00209653
0.00372865
-0.00241647
0.00386814
-0.00274998
0.004008
-0.00309683
0.00415158
0.00429912
-0.00345627
-2.15283e-05
0.000408385
-8.21935e-05
0.00108798
-0.00018035
0.00167944
-0.000313793
0.0021851
-0.000479699
0.00260965
-0.000674792
0.002961
-0.000895611
0.00324967
-0.00113883
0.0034879
-0.00140152
0.00368851
-0.0016814
0.00386369
-0.00197686
0.00402411
-0.002287
0.00417828
-0.00261144
0.00433243
-0.00295004
0.00449018
0.00465073
-0.00330165
-1.83077e-05
0.000426692
-7.10807e-05
0.00114075
-0.000158013
0.00176638
-0.000278113
0.0023052
-0.000429584
0.00276112
-0.000609938
0.00314135
-0.000816257
0.00345599
-0.00104552
0.00371717
-0.00129494
0.00393793
-0.00156225
0.004131
-0.00184583
0.0043077
-0.00214483
0.00447727
-0.00245898
0.00464659
-0.0027886
0.00481981
0.00499476
-0.00313263
-1.4964e-05
0.000441656
-5.94746e-05
0.00118526
-0.000134559
0.00184146
-0.000240458
0.0024111
-0.000376434
0.0028971
-0.000540837
0.00330575
-0.000731333
0.00364648
-0.000945242
0.00393108
-0.00117991
0.0041726
-0.00143305
0.00438413
-0.00170299
0.00457764
-0.00198887
0.00476315
-0.00229052
0.00494824
-0.00260906
0.00513835
0.00533235
-0.00294664
-1.15343e-05
0.000453191
-4.74917e-05
0.00122122
-0.000110202
0.00190417
-0.000201131
0.00250203
-0.000320627
0.0030166
-0.000467912
0.00345304
-0.000641281
0.00381985
-0.000838422
0.00412822
-0.0010568
0.00439098
-0.00129404
0.00462137
-0.00154825
0.00483185
-0.00181833
0.00503323
-0.00210395
0.00523385
-0.00240555
0.00543995
0.00566625
-0.00273946
-8.05933e-06
0.00046125
-3.526e-05
0.00124842
-8.51788e-05
0.00195409
-0.000160482
0.00257733
-0.000262607
0.00311872
-0.000391689
0.00358212
-0.000546696
0.00397486
-0.000725731
0.00430725
-0.000926412
0.00459166
-0.00114626
0.00484122
-0.00138306
0.00506865
-0.00163519
0.00528537
-0.0019023
0.00550096
-0.00218728
0.00572493
0.00597312
-0.00249415
-4.58452e-06
0.000465835
-2.29175e-05
0.00126675
-5.97481e-05
0.00199092
-0.000118897
0.00263648
-0.000202883
0.00320271
-0.000312784
0.00369202
-0.000448304
0.00411038
-0.000608038
0.00446699
-0.00078985
0.00477347
-0.0009913
0.00504267
-0.00121007
0.00528742
-0.00144443
0.00551973
-0.00169385
0.00575038
-0.00195942
0.0059905
0.00625662
-0.00224292
-1.18718e-06
0.000467022
-1.06057e-05
0.00127617
-3.41823e-05
0.0020145
-7.67896e-05
0.00267909
-0.000142005
0.00326792
-0.00023187
0.00378189
-0.000346889
0.0042254
-0.000486241
0.00460634
-0.000648156
0.00493539
-0.000830374
0.00522489
-0.00103064
0.00548769
-0.00124719
0.00573628
-0.00147926
0.00598245
-0.00172684
0.00623807
0.00651698
-0.0019872
2.27095e-06
0.000464751
1.54793e-06
0.00127689
-8.7551e-06
0.0020248
-3.4591e-05
0.00270493
-8.05503e-05
0.00331388
-0.000149652
0.00385099
-0.000243252
0.004319
-0.000361201
0.00472429
-0.000502197
0.00507638
-0.000664246
0.00538694
-0.000845185
0.00566863
-0.00104315
0.00593424
-0.00125684
0.00619615
-0.00148507
0.0064663
0.00675592
-0.00172401
5.45363e-06
0.000459297
1.33722e-05
0.00126897
1.62311e-05
0.00202194
7.27623e-06
0.00271388
-1.9103e-05
0.00334026
-6.68595e-05
0.00389875
-0.000138214
0.00439035
-0.000233775
0.00481985
-0.000352788
0.0051954
-0.000493589
0.00552774
-0.000654114
0.00582915
-0.000832318
0.00611244
-0.00102637
0.0063902
-0.00123417
0.0066741
0.00697356
-0.00145181
8.52586e-06
0.000450771
2.47415e-05
0.00125276
4.04995e-05
0.00200618
4.82772e-05
0.0027061
4.16662e-05
0.00334687
1.57573e-05
0.00392466
-3.26266e-05
0.00443873
-0.000104858
0.00489208
-0.000200791
0.00529133
-0.000319161
0.00564611
-0.000458027
0.00596802
-0.000615182
0.0062696
-0.000788325
0.00656335
-0.000974745
0.00686052
0.00716938