/*--------------------------------*- C++ -*----------------------------------*\
  =========                 |
  \\      /  F ield         | OpenFOAM: The Open Source CFD Toolbox
   \\    /   O peration     | Website:  https://openfoam.org
    \\  /    A nd           | Version:  7
     \\/     M anipulation  |
\*---------------------------------------------------------------------------*/
FoamFile
{
    version     2.0;
    format      ascii;
    class       volVectorField;
    location    "20";
    object      U;
}
// * * * * * * * * * * * * * * * * * * * * * * * * * * * * * * * * * * * * * //

dimensions      [0 1 -1 0 0 0 0];

internalField   nonuniform List<vector> 
12150
(
(-0.000609145 0.000666928 -6.89207e-22)
(-0.00298446 0.00146731 6.92422e-22)
(-0.00710048 0.00187458 -3.29003e-21)
(-0.0117078 0.00199564 3.78871e-21)
(-0.0162107 0.00190435 -3.71697e-21)
(-0.0202399 0.00165952 -5.43859e-21)
(-0.0235245 0.00131013 -3.34549e-23)
(-0.0258956 0.000897737 8.85947e-22)
(-0.027275 0.000459328 -8.20432e-22)
(-0.0276618 2.97364e-05 8.31583e-23)
(-0.0271285 -0.000356505 4.62559e-21)
(-0.0258228 -0.000664291 3.94912e-21)
(-0.0239622 -0.000860239 -4.55641e-21)
(-0.0217865 -0.000918848 -4.25303e-21)
(-0.0196643 -0.0008032 -6.71485e-22)
(-0.000732515 0.00197466 1.97294e-21)
(-0.00319714 0.00433879 -1.98278e-21)
(-0.00723936 0.00553704 -3.67644e-21)
(-0.0116563 0.00588599 1.27053e-20)
(-0.0158757 0.00560505 -1.49912e-21)
(-0.0195445 0.00486891 -8.30993e-22)
(-0.0224049 0.00382301 1.16225e-20)
(-0.0242979 0.00259079 3.69249e-21)
(-0.0251523 0.00128206 1.54752e-21)
(-0.0249722 5.75647e-07 -2.02865e-21)
(-0.0238339 -0.00115039 -8.897e-21)
(-0.0218905 -0.00206529 1.13035e-20)
(-0.0193721 -0.00264277 -3.86525e-21)
(-0.0165135 -0.00280181 -2.97912e-21)
(-0.0136016 -0.00243241 5.2472e-21)
(-0.000970035 0.00320502 1.82432e-20)
(-0.00359986 0.00702313 -1.32926e-20)
(-0.00748545 0.00894249 5.82656e-21)
(-0.0115155 0.00947733 -1.71379e-20)
(-0.0151638 0.00898595 2.78577e-20)
(-0.0181095 0.00775393 -1.12453e-20)
(-0.0201207 0.00601878 -1.0903e-20)
(-0.0210577 0.00398191 7.92126e-22)
(-0.0208633 0.00182278 -1.16916e-20)
(-0.0195517 -0.000288482 1.16738e-20)
(-0.0172065 -0.00218099 -1.61748e-20)
(-0.0139905 -0.00367859 -7.9506e-21)
(-0.0101576 -0.0046097 -1.75427e-21)
(-0.00594578 -0.00481372 4.81401e-21)
(-0.0014511 -0.00403984 3.81508e-21)
(-0.0013036 0.00430964 6.61317e-21)
(-0.00414793 0.00940309 2.7534e-21)
(-0.00777615 0.0119299 2.13201e-20)
(-0.0112104 0.0125826 2.84205e-20)
(-0.0139921 0.0118477 -1.56138e-20)
(-0.0158471 0.0101135 1.64685e-21)
(-0.0165818 0.0077025 -5.84603e-21)
(-0.0160853 0.00488769 3.763e-21)
(-0.014321 0.0019127 6.39674e-21)
(-0.0113179 -0.000990359 1.00989e-20)
(-0.00717046 -0.00358567 -2.51087e-20)
(-0.00205589 -0.00562654 1.2547e-20)
(0.00375183 -0.00686816 2.80998e-20)
(0.0100502 -0.00704037 -4.19775e-20)
(0.0166773 -0.00572736 -3.45067e-21)
(-0.00170681 0.00524479 -1.69896e-20)
(-0.00477594 0.0113723 -3.21398e-22)
(-0.0080193 0.0143534 -1.91439e-20)
(-0.0106303 0.0150328 -5.58866e-20)
(-0.012237 0.0140113 3.79845e-20)
(-0.0126263 0.011769 -4.26854e-20)
(-0.0116538 0.00870364 3.31699e-20)
(-0.00924638 0.00515129 3.02932e-21)
(-0.00539461 0.00141207 2.89698e-20)
(-0.000146998 -0.00222668 -1.17688e-20)
(0.00638731 -0.00546872 7.58881e-21)
(0.0140106 -0.00799863 1.42862e-20)
(0.0224248 -0.0094917 -3.20869e-20)
(0.0314838 -0.00955006 3.93027e-20)
(0.0409551 -0.00759355 8.5085e-21)
(-0.00214589 0.00597282 2.85937e-20)
(-0.00539947 0.0128389 -4.90611e-20)
(-0.00809524 0.0160871 1.04792e-20)
(-0.0096305 0.0166834 4.8097e-20)
(-0.00973717 0.0153254 -3.92222e-20)
(-0.00827466 0.0125723 3.80807e-20)
(-0.00515895 0.00888519 2.41157e-20)
(-0.000362586 0.00465275 -3.95575e-20)
(0.00608998 0.00022169 9.12623e-21)
(0.0141257 -0.00407419 2.63478e-20)
(0.0236169 -0.00788561 -3.41967e-20)
(0.0343409 -0.0108322 5.45541e-20)
(0.0459657 -0.0125021 -9.85538e-21)
(0.0584015 -0.0123409 -2.56635e-20)
(0.0713912 -0.00955439 -1.05675e-20)
(-0.00258063 0.0064632 -4.26494e-20)
(-0.00591724 0.0137283 6.21563e-21)
(-0.00785951 0.0170298 2.51038e-20)
(-0.00803552 0.0174198 -5.14417e-20)
(-0.00629518 0.0156731 2.48362e-20)
(-0.00258107 0.0124135 3.36385e-20)
(0.0031217 0.00815192 3.40382e-20)
(0.0107867 0.0033179 -6.73044e-22)
(0.020349 -0.00170672 -3.89981e-20)
(0.0317054 -0.00655283 -5.65158e-20)
(0.0447052 -0.0108287 4.95839e-20)
(0.0590968 -0.0140962 6.24807e-21)
(0.0745043 -0.0158562 -1.11103e-20)
(0.0908921 -0.015359 2.56835e-20)
(0.108019 -0.0115048 7.07628e-20)
(-0.00296557 0.00669326 2.19341e-20)
(-0.00621356 0.0139853 9.41244e-21)
(-0.00714607 0.0171088 -3.29727e-21)
(-0.0056426 0.0171621 1.62762e-20)
(-0.00168218 0.0149773 -2.10454e-20)
(0.0047007 0.0112266 -8.51607e-20)
(0.0134438 0.00645705 -2.31609e-20)
(0.0244599 0.00112585 -9.4106e-20)
(0.0376364 -0.00436229 7.29966e-20)
(0.0528335 -0.00961631 -2.4911e-20)
(0.0698714 -0.0142158 -9.30756e-22)
(0.0884654 -0.0176785 -3.02556e-20)
(0.108186 -0.0194258 -4.24432e-20)
(0.129052 -0.0184761 -2.93912e-20)
(0.150886 -0.0133065 -3.14463e-21)
(-0.00325114 0.00664845 3.24177e-20)
(-0.00616139 0.0135769 7.16088e-21)
(-0.00577073 0.016282 6.33283e-20)
(-0.00222643 0.0158688 -1.7716e-20)
(0.00435664 0.013205 5.32224e-20)
(0.0138453 0.00899505 2.75138e-20)
(0.0260934 0.00380746 3.885e-20)
(0.040946 -0.00188564 1.35546e-21)
(0.0582359 -0.00766953 2.76657e-21)
(0.0777783 -0.0131455 1.12066e-20)
(0.0993571 -0.0178815 -1.49276e-20)
(0.122647 -0.0213724 3.84687e-20)
(0.147158 -0.0229807 9.20937e-21)
(0.17296 -0.0214702 -3.39988e-20)
(0.200008 -0.014762 1.5198e-20)
(-0.00338389 0.00632349 -3.18467e-20)
(-0.00562494 0.0124921 -3.64424e-21)
(-0.00353725 0.0145403 -4.65322e-20)
(0.00245498 0.0135398 1.23147e-20)
(0.0120952 0.0103714 -1.45256e-20)
(0.0251473 0.00575503 4.97987e-21)
(0.0413761 0.000266967 4.25912e-21)
(0.0605528 -0.00561802 -4.26522e-20)
(0.0824475 -0.011487 3.87418e-20)
(0.106821 -0.0169476 2.33718e-20)
(0.133409 -0.0215754 -5.91648e-20)
(0.161838 -0.0248699 -5.81784e-20)
(0.191542 -0.0261735 3.29324e-20)
(0.222642 -0.0240001 -1.41384e-20)
(0.255308 -0.0155842 -6.21593e-21)
(-0.00330932 0.00572137 -8.58928e-20)
(-0.00446285 0.0107421 1.50306e-20)
(-0.000240796 0.0119095 1.88596e-21)
(0.0086526 0.010219 1.23214e-20)
(0.0218167 0.00654161 3.5149e-20)
(0.0389096 0.00159757 -9.88376e-20)
(0.0596033 -0.00404282 8.2914e-20)
(0.0835895 -0.009913 -7.31707e-20)
(0.110568 -0.0156118 2.75131e-20)
(0.140233 -0.0207643 1.85004e-20)
(0.172258 -0.0249716 3.33322e-20)
(0.206205 -0.0277698 9.2566e-21)
(0.241421 -0.0285384 -1.6901e-21)
(0.278061 -0.0255903 -3.60152e-20)
(0.31662 -0.0153713 2.69751e-20)
(-0.00297167 0.00485352 2.68902e-20)
(-0.00253199 0.00836239 3.12057e-20)
(0.00432583 0.00845079 -1.33612e-19)
(0.0166188 0.00599412 4.24291e-20)
(0.0338024 0.00183202 2.2448e-20)
(0.0554286 -0.00333096 -4.85002e-20)
(0.0810736 -0.00894359 -3.51873e-20)
(0.110345 -0.014557 -6.06341e-20)
(0.142863 -0.0197884 1.27064e-20)
(0.178244 -0.0242877 -4.4712e-21)
(0.216083 -0.0276923 4.41827e-20)
(0.255855 -0.0296049 1.85039e-20)
(0.296801 -0.0295154 3.3169e-20)
(0.339088 -0.0256416 3.16564e-21)
(0.383653 -0.013618 2.27778e-20)
(-0.00231548 0.00374024 2.05308e-20)
(0.000308847 0.0054123 -7.86168e-20)
(0.0103645 0.00426091 7.5834e-20)
(0.0265966 0.00099868 -7.70597e-20)
(0.0483189 -0.00358859 4.87575e-20)
(0.0749771 -0.00882905 2.03197e-20)
(0.10605 -0.014203 3.44902e-20)
(0.141058 -0.0192878 7.60546e-20)
(0.179535 -0.0237238 -3.5771e-20)
(0.221007 -0.0271849 -3.01273e-20)
(0.264969 -0.0293449 -2.3301e-20)
(0.310782 -0.0298854 -9.22483e-21)
(0.357553 -0.0284641 2.59796e-20)
(0.405413 -0.0233238 -6.95046e-20)
(0.45587 -0.00947798 -1.82019e-20)
(-0.00128683 0.00241056 -2.46728e-20)
(0.00419508 0.00197478 -7.27679e-21)
(0.0180659 -0.000526773 -5.81159e-20)
(0.0388097 -0.00458775 3.7147e-20)
(0.0656024 -0.00950027 -4.12874e-20)
(0.0977844 -0.0146417 -1.24034e-20)
(0.134737 -0.0195381 -1.51304e-21)
(0.175888 -0.0238034 3.55834e-20)
(0.220683 -0.0271047 2.0625e-19)
(0.268552 -0.0291352 -1.46792e-19)
(0.318877 -0.0295876 9.43472e-20)
(0.370875 -0.0281917 -7.7109e-20)
(0.423464 -0.0247012 3.23843e-20)
(0.476494 -0.0173287 -1.04134e-20)
(0.53176 -0.00122513 4.76519e-20)
(0.000165237 0.000902108 5.09227e-20)
(0.00925198 -0.00184363 1.20356e-20)
(0.0276012 -0.00574374 -3.03358e-20)
(0.053451 -0.0105421 -3.97163e-20)
(0.0858443 -0.0156331 1.2865e-20)
(0.124016 -0.0204624 8.54223e-20)
(0.167248 -0.0246192 2.81778e-20)
(0.214875 -0.0277689 -4.39719e-20)
(0.266255 -0.0296163 -6.44767e-20)
(0.320732 -0.0298767 4.36612e-20)
(0.377599 -0.0282475 1.19932e-19)
(0.435998 -0.0244283 -8.63891e-20)
(0.494791 -0.0179643 -3.69271e-20)
(0.553195 -0.0067613 9.20248e-21)
(0.611476 0.0116268 9.65288e-22)
(0.00208744 -0.000739105 -5.56507e-20)
(0.0155902 -0.00591367 -1.6857e-20)
(0.0391152 -0.0111877 8.96726e-20)
(0.0706726 -0.0165988 -4.92027e-21)
(0.109177 -0.0216693 -8.87996e-20)
(0.153755 -0.0259349 4.50412e-20)
(0.203587 -0.0290699 1.247e-19)
(0.257907 -0.0308142 -3.76789e-20)
(0.315982 -0.0309372 -3.86566e-20)
(0.377088 -0.0292096 -3.30724e-20)
(0.440484 -0.0253735 -2.4221e-20)
(0.505441 -0.0190886 -1.96767e-21)
(0.571463 -0.00952106 5.36863e-20)
(0.63843 0.00499309 -4.51483e-20)
(0.704682 0.0193006 2.16824e-20)
(0.0045208 -0.00245889 3.95758e-20)
(0.0233017 -0.0100847 1.30011e-20)
(0.0527185 -0.0166249 2.10147e-20)
(0.0905751 -0.0224538 -4.76316e-20)
(0.13566 -0.0272481 -5.76152e-20)
(0.186989 -0.0306573 -4.70613e-20)
(0.243627 -0.0324661 -2.97727e-20)
(0.304695 -0.0325187 -7.94571e-20)
(0.369351 -0.0306883 8.86144e-21)
(0.436773 -0.0268619 5.15632e-20)
(0.506158 -0.0209295 3.7483e-20)
(0.576787 -0.0127437 -1.9369e-20)
(0.648348 -0.00182736 4.0768e-20)
(0.720858 0.0119076 2.70429e-20)
(0.790968 0.0207228 1.1305e-19)
(0.00749911 -0.00419561 6.65749e-20)
(0.0324554 -0.0141872 1.92421e-20)
(0.0684821 -0.0217951 1.06096e-19)
(0.113201 -0.0277712 -1.31695e-19)
(0.165275 -0.0319744 -1.08679e-21)
(0.223604 -0.0341918 -6.10617e-20)
(0.28712 -0.0343446 -6.75452e-20)
(0.35481 -0.03241 8.5841e-20)
(0.425691 -0.028399 2.04133e-20)
(0.498799 -0.0223561 5.33374e-20)
(0.573192 -0.0143661 -8.01827e-20)
(0.648001 -0.0045351 -7.83764e-20)
(0.722663 0.00719437 -1.0464e-20)
(0.796638 0.0201039 -4.75388e-20)
(0.865746 0.0272185 9.78592e-23)
(0.0110478 -0.00588112 -3.42039e-20)
(0.0430937 -0.0180357 -3.66973e-20)
(0.0864308 -0.0264167 -6.43541e-20)
(0.138526 -0.0321932 -1.67494e-20)
(0.19792 -0.0354325 2.81798e-20)
(0.263383 -0.0360841 5.47843e-20)
(0.333704 -0.0342302 1.13192e-19)
(0.40771 -0.0300057 -1.14565e-19)
(0.484249 -0.0235837 -7.44985e-20)
(0.562177 -0.015185 -2.9631e-20)
(0.640366 -0.00509171 1.02716e-19)
(0.717728 0.00636629 -2.49952e-20)
(0.79335 0.0189469 4.49854e-20)
(0.866112 0.0316653 -3.799e-20)
(0.931755 0.0390869 3.15343e-21)
(0.0151823 -0.00744168 -1.00951e-19)
(0.055228 -0.0214325 -3.1055e-20)
(0.106538 -0.0301953 1.15069e-19)
(0.166455 -0.0353516 -1.9647e-20)
(0.233401 -0.0372037 2.40261e-20)
(0.306008 -0.0358878 -3.75056e-20)
(0.382907 -0.0316698 -1.5036e-21)
(0.46275 -0.0248641 4.54641e-20)
(0.544198 -0.0158223 5.13587e-20)
(0.625919 -0.0049479 6.74807e-20)
(0.70659 0.0072923 -9.93208e-20)
(0.784922 0.0203884 1.27321e-20)
(0.859721 0.0339014 5.41711e-20)
(0.929525 0.0468152 -7.44886e-20)
(0.990426 0.0551806 2.19645e-20)
(0.0199067 -0.00879921 4.43886e-20)
(0.0688358 -0.0241728 9.41057e-20)
(0.128722 -0.0328316 -4.49776e-20)
(0.19682 -0.0368812 1.96381e-20)
(0.271434 -0.0368848 -2.33267e-20)
(0.351056 -0.0331883 2.27188e-20)
(0.434152 -0.0262638 2.64071e-20)
(0.519192 -0.0166228 -9.58914e-20)
(0.604655 -0.00480736 5.30521e-20)
(0.689029 0.0085968 -8.0184e-20)
(0.770834 0.0229564 7.44365e-20)
(0.848642 0.0376223 -3.97522e-20)
(0.921113 0.0520327 6.7215e-20)
(0.986683 0.0652402 2.49267e-20)
(1.04199 0.0745372 -3.55702e-20)
(0.0252118 -0.00987273 4.83855e-20)
(0.0838565 -0.0260491 -2.98447e-20)
(0.152841 -0.0340309 3.71875e-20)
(0.229369 -0.0364335 -3.02141e-20)
(0.311641 -0.0341056 5.26694e-20)
(0.398007 -0.0276253 -2.68967e-20)
(0.486767 -0.0176906 5.97399e-20)
(0.576222 -0.00502556 -6.67366e-20)
(0.664686 0.00963118 8.52936e-21)
(0.750508 0.0255171 9.35894e-20)
(0.832113 0.041854 -2.70727e-20)
(0.90803 0.0578909 1.01636e-20)
(0.976912 0.0729987 -4.89389e-20)
(1.0373 0.0863455 -5.05187e-20)
(1.08646 0.0962053 2.45621e-20)
(0.0310737 -0.0105801 -6.67726e-20)
(0.100189 -0.0268574 -6.59521e-21)
(0.178689 -0.0335125 -5.48885e-21)
(0.263776 -0.0336899 2.52023e-21)
(0.353557 -0.0285454 5.0032e-20)
(0.446248 -0.0189104 -7.89126e-20)
(0.540001 -0.00572529 9.1586e-20)
(0.632968 0.0100631 -6.83209e-20)
(0.723338 0.0275188 -4.35441e-20)
(0.809384 0.0457151 1.6433e-20)
(0.889516 0.0637552 -3.44962e-20)
(0.962327 0.0808242 1.30033e-20)
(1.0266 0.0962745 4.1412e-20)
(1.08113 0.10942 3.45784e-20)
(1.12384 0.119291 1.21918e-20)
(0.0374523 -0.01084 5.49164e-20)
(0.117689 -0.0264028 1.45049e-22)
(0.206 -0.0310198 -1.44535e-20)
(0.299636 -0.0283744 -3.17117e-20)
(0.396634 -0.0199477 -6.37214e-21)
(0.495093 -0.00684147 2.40622e-20)
(0.593043 0.00974948 -4.29632e-20)
(0.688527 0.0286524 -1.3187e-20)
(0.779668 0.0487419 1.37097e-20)
(0.86474 0.0689484 1.55204e-20)
(0.942234 0.0882904 1.91332e-20)
(1.01091 0.105932 7.56308e-21)
(1.06982 0.121256 -1.44101e-20)
(1.11809 0.133748 2.24394e-20)
(1.15431 0.143019 -4.85751e-21)
(0.0442902 -0.0105745 1.03605e-19)
(0.136169 -0.0245065 -3.14855e-20)
(0.234446 -0.0263299 -2.95448e-20)
(0.336476 -0.020265 -5.61674e-20)
(0.440256 -0.00813146 2.91739e-20)
(0.543797 0.00868738 1.21898e-20)
(0.645048 0.0287383 4.65263e-20)
(0.741999 0.0506284 1.8206e-20)
(0.83278 0.0730619 -3.77112e-20)
(0.915754 0.0948585 -2.34868e-20)
(0.989594 0.114995 1.71564e-20)
(1.05333 0.132663 -3.49128e-20)
(1.10635 0.147327 -1.82524e-20)
(1.14823 0.158673 7.75634e-21)
(1.17813 0.166755 -2.7029e-20)
(0.0515122 -0.00971163 -4.45801e-20)
(0.1554 -0.0210128 1.69007e-20)
(0.263642 -0.019263 3.34103e-20)
(0.373762 -0.00920478 -2.86307e-20)
(0.483752 0.00699934 2.02271e-20)
(0.591581 0.0276805 -5.17308e-20)
(0.695166 0.0511334 2.08591e-20)
(0.792518 0.0757631 6.53655e-20)
(0.881858 0.100135 -1.52531e-20)
(0.96173 0.123001 4.80023e-20)
(1.03108 0.143349 -6.97125e-20)
(1.0893 0.160453 4.86802e-20)
(1.13618 0.173906 -1.56261e-20)
(1.17175 0.183627 -1.48674e-20)
(1.19573 0.190004 2.53027e-20)
(0.0590255 -0.00818859 4.05984e-20)
(0.175111 -0.015796 4.35406e-20)
(0.293153 -0.00969171 -3.64265e-20)
(0.410911 0.00489021 2.33205e-20)
(0.526419 0.0254494 -1.01748e-20)
(0.637654 0.050039 -9.53474e-21)
(0.742573 0.0767202 -1.95772e-20)
(0.839285 0.103728 2.12827e-20)
(0.926192 0.129532 -1.30097e-20)
(1.00211 0.152875 -2.89575e-21)
(1.06635 0.172811 -2.13319e-20)
(1.11871 0.188752 7.8548e-22)
(1.15943 0.200472 -2.35171e-20)
(1.18898 0.208138 1.38293e-20)
(1.20759 0.212401 1.16952e-20)
(0.0667207 -0.00595475 3.00301e-21)
(0.194997 -0.00876731 -2.30612e-20)
(0.322506 0.0024514 4.3896e-21)
(0.447307 0.0220236 3.07047e-20)
(0.567536 0.047129 -2.72164e-20)
(0.681241 0.075563 1.54229e-20)
(0.786494 0.105186 -1.93098e-20)
(0.881589 0.13411 -2.805e-21)
(0.9652 0.160766 5.89131e-21)
(1.0365 0.183948 1.18355e-20)
(1.09522 0.202844 -5.78158e-23)
(1.14161 0.217055 1.66228e-21)
(1.17636 0.226573 -9.32045e-22)
(1.20036 0.231831 -4.96053e-21)
(1.21423 0.233685 4.87454e-21)
(0.0744735 -0.00297474 3.74587e-21)
(0.214724 0.000118856 -4.51069e-21)
(0.351196 0.0171671 -3.90623e-20)
(0.482319 0.0421147 3.85783e-21)
(0.606392 0.071854 1.42967e-21)
(0.721606 0.103957 2.46852e-21)
(0.82623 0.136134 -1.88369e-20)
(0.918831 0.16643 4.73101e-21)
(0.998437 0.193308 -8.50978e-21)
(1.06465 0.215683 7.40989e-21)
(1.11765 0.232935 -4.83898e-22)
(1.15817 0.244904 -1.98667e-21)
(1.18732 0.251832 3.21589e-21)
(1.20635 0.254417 5.78116e-21)
(1.2162 0.25368 1.17128e-21)
(0.0821474 0.000768741 5.20494e-21)
(0.233937 0.0108597 -6.71725e-22)
(0.378705 0.0343848 1.09999e-21)
(0.515318 0.0649969 -5.87531e-21)
(0.642302 0.0993486 1.01173e-20)
(0.758071 0.134841 6.08449e-21)
(0.861176 0.169093 -9.80033e-22)
(0.950534 0.200161 -2.33819e-21)
(1.0256 0.226612 4.25322e-22)
(1.08645 0.247551 2.24741e-21)
(1.13375 0.26261 -6.14397e-21)
(1.16868 0.271902 1.75238e-21)
(1.19274 0.275938 3.6576e-21)
(1.20746 0.275677 -5.27048e-21)
(1.21402 0.272269 4.75416e-22)
(0.0895969 0.00527263 -6.56734e-21)
(0.252269 0.0234003 2.47836e-21)
(0.404514 0.0539606 5.10852e-21)
(0.545692 0.0904185 -5.59508e-21)
(0.674632 0.129252 5.16722e-21)
(0.790042 0.167756 7.24321e-21)
(0.890833 0.203539 7.45814e-23)
(0.97635 0.234746 -6.52618e-21)
(1.04652 0.260128 5.61749e-21)
(1.10193 0.279047 -1.11988e-22)
(1.14371 0.291435 -4.20853e-21)
(1.17348 0.297706 -3.31535e-21)
(1.19305 0.298641 3.67465e-21)
(1.20417 0.295445 1.42588e-21)
(1.20817 0.289373 -1.04845e-21)
(0.0966717 0.0105117 -1.09226e-20)
(0.269353 0.0376312 -1.02758e-20)
(0.428117 0.0756768 -6.26738e-21)
(0.572873 0.118047 -1.8248e-20)
(0.702812 0.161126 1.04612e-20)
(0.817016 0.202185 -1.4239e-20)
(0.914823 0.238907 -7.20812e-21)
(0.996059 0.269615 1.36597e-21)
(1.06117 0.29332 2.65296e-21)
(1.11122 0.309702 1.52406e-21)
(1.14783 0.319027 7.79939e-21)
(1.17297 0.322025 -9.09512e-21)
(1.18871 0.31974 2.31561e-21)
(1.19696 0.313595 4.93907e-21)
(1.19911 0.304937 1.82113e-21)
(0.103221 0.0164376 -2.91151e-20)
(0.284829 0.0533881 -1.80634e-20)
(0.449039 0.0992448 2.6528e-20)
(0.596343 0.147476 4.14483e-21)
(0.726357 0.194468 -1.90493e-20)
(0.838597 0.237559 1.37378e-20)
(0.932885 0.274607 1.314e-20)
(1.00957 0.304196 -2.11599e-20)
(1.06961 0.325672 -1.28765e-20)
(1.11456 0.339079 3.49505e-21)
(1.14646 0.345046 1.35601e-20)
(1.16757 0.344614 6.35828e-21)
(1.18018 0.33907 4.95599e-22)
(1.18626 0.330022 -3.10297e-21)
(1.18722 0.318917 -1.03125e-20)
(0.109097 0.0229785 4.63292e-20)
(0.298361 0.0704539 -2.52094e-21)
(0.466849 0.12431 -5.84083e-21)
(0.615656 0.178234 1.10018e-21)
(0.744873 0.228721 3.59052e-20)
(0.8545 0.27328 -4.2983e-20)
(0.944882 0.310038 7.88701e-21)
(1.0169 0.33793 -2.95089e-21)
(1.07202 0.356697 -3.91972e-21)
(1.11225 0.366787 -8.26669e-21)
(1.13997 0.369196 1.76243e-20)
(1.1577 0.365266 -2.33449e-20)
(1.16786 0.356494 8.15902e-21)
(1.17246 0.344632 -8.35024e-21)
(1.17285 0.331274 2.25849e-21)
(0.114163 0.0300398 -5.56517e-20)
(0.309643 0.0885613 -2.21325e-20)
(0.481172 0.150458 6.61128e-20)
(0.630448 0.209793 1.32276e-20)
(0.75807 0.263288 -7.28962e-20)
(0.864556 0.308726 4.67823e-20)
(0.95079 0.344603 -1.09228e-20)
(1.01817 0.37028 1.3888e-20)
(1.06866 0.385946 7.06834e-21)
(1.10465 0.392473 8.59973e-21)
(1.12879 0.391221 1.29426e-20)
(1.1438 0.383811 -7.63214e-21)
(1.15216 0.371902 -4.82335e-21)
(1.15587 0.357338 2.4657e-22)
(1.15617 0.341961 2.42137e-21)
(0.118292 0.0375057 3.63333e-20)
(0.31841 0.107399 -3.88083e-21)
(0.491701 0.177228 -6.95183e-20)
(0.640445 0.241588 4.5301e-20)
(0.765765 0.297547 4.00022e-20)
(0.86871 0.343272 -3.64937e-20)
(0.950696 0.377718 3.59807e-20)
(1.01362 0.400738 -1.76214e-20)
(1.05987 0.413004 -3.52213e-21)
(1.09216 0.415822 -3.40795e-20)
(1.11336 0.410904 2.00534e-20)
(1.12629 0.400113 -1.09091e-21)
(1.13345 0.385239 4.2097e-21)
(1.13674 0.368155 -4.21509e-21)
(1.13716 0.350928 -7.26488e-21)
(0.121378 0.0452411 -4.31574e-20)
(0.324447 0.126618 3.60788e-20)
(0.498206 0.204116 1.15326e-20)
(0.645473 0.27302 2.02893e-20)
(0.767886 0.330865 -2.37841e-20)
(0.867017 0.376302 3.472e-20)
(0.944786 0.408823 -4.43605e-20)
(1.00354 0.428828 -2.8334e-20)
(1.04603 0.437494 2.43834e-20)
(1.07522 0.436556 1.50476e-20)
(1.09413 0.428049 -1.09865e-20)
(1.10561 0.41405 1.75948e-20)
(1.11214 0.396473 4.08451e-21)
(1.11546 0.377288 2.90125e-21)
(1.11638 0.358358 -1.26853e-21)
(0.123333 0.0530948 -4.42555e-20)
(0.327594 0.145839 2.6305e-20)
(0.50054 0.230594 5.15562e-21)
(0.645455 0.30348 9.69778e-21)
(0.764465 0.362612 -6.21399e-21)
(0.859634 0.407215 2.44147e-20)
(0.933338 0.437389 -4.19882e-20)
(0.988314 0.454112 9.59535e-21)
(1.02759 0.459075 -1.87406e-20)
(1.05431 0.454422 -2.29694e-21)
(1.07156 0.442476 -8.81184e-21)
(1.08219 0.425484 -4.67569e-21)
(1.0886 0.405449 9.21419e-21)
(1.09244 0.384432 9.28443e-21)
(1.09446 0.364102 -3.08438e-21)
(0.124095 0.060903 -2.67648e-20)
(0.327756 0.164664 -3.41917e-20)
(0.498646 0.256119 3.36271e-20)
(0.64042 0.332357 1.12977e-20)
(0.755643 0.392173 9.77032e-23)
(0.846816 0.435445 1.49896e-20)
(0.916707 0.462927 -1.72698e-20)
(0.968359 0.476197 3.71703e-20)
(1.005 0.477446 -2.38415e-22)
(1.02989 0.469199 3.34648e-21)
(1.0461 0.454027 1.08741e-20)
(1.05641 0.434302 -6.17207e-21)
(1.06317 0.412071 -2.73593e-21)
(1.06789 0.389429 -5.203e-21)
(1.07136 0.367965 -5.47799e-22)
(0.123628 0.0684936 1.9542e-20)
(0.3249 0.182684 7.61085e-20)
(0.492552 0.28015 -5.67237e-20)
(0.630494 0.359054 8.18456e-21)
(0.741655 0.418963 3.3992e-21)
(0.828902 0.460462 -2.59995e-21)
(0.895311 0.484991 -1.6234e-20)
(0.944152 0.494728 1.54145e-20)
(0.978776 0.492342 -3.80094e-22)
(1.00245 0.480696 -1.64901e-20)
(1.01819 0.462565 4.32625e-21)
(1.02868 0.440402 3.71713e-21)
(1.03616 0.416259 8.65975e-23)
(1.04207 0.392215 2.63027e-21)
(1.04719 0.369868 -9.14203e-22)
(0.121927 0.0756914 -2.08584e-21)
(0.319061 0.19949 -1.63659e-20)
(0.482378 0.302155 3.51538e-20)
(0.615902 0.383004 -9.52503e-21)
(0.722825 0.442434 -1.68461e-20)
(0.806302 0.481788 4.69705e-22)
(0.869626 0.503189 1.60728e-20)
(0.916201 0.509401 -6.182e-22)
(0.949414 0.503535 6.14843e-21)
(0.972478 0.488748 2.97499e-21)
(0.988295 0.46797 -1.52724e-21)
(0.999395 0.443694 1.15137e-21)
(1.00789 0.417936 2.10597e-22)
(1.0152 0.392721 -3.76402e-21)
(1.02213 0.369729 4.65611e-21)
(0.119014 0.0823269 7.4765e-21)
(0.310334 0.214684 -2.80487e-20)
(0.468328 0.321626 -2.7134e-20)
(0.596948 0.403675 1.19347e-20)
(0.699557 0.462098 2.04764e-21)
(0.779494 0.498996 6.66354e-21)
(0.840173 0.517179 -3.95204e-21)
(0.885037 0.519957 5.0433e-21)
(0.917432 0.510838 -3.91904e-21)
(0.94046 0.49322 3.81374e-21)
(0.956852 0.47014 3.59233e-22)
(0.96895 0.444098 -1.42278e-20)
(0.978718 0.417032 5.00377e-21)
(0.987533 0.390853 -6.60599e-21)
(0.996407 0.367392 7.10557e-21)
(0.114924 0.0882298 -7.95157e-21)
(0.298892 0.227899 1.44625e-20)
(0.450686 0.338095 2.82232e-21)
(0.574024 0.420589 -1.54101e-21)
(0.672328 0.477515 -1.49561e-20)
(0.749011 0.511726 -2.26758e-21)
(0.807502 0.526682 -2.89381e-21)
(0.851199 0.526191 -3.26183e-21)
(0.883342 0.5141 -3.10717e-21)
(0.906867 0.493998 1.73006e-20)
(0.924302 0.468986 -5.44621e-21)
(0.937764 0.441538 1.16067e-20)
(0.949009 0.413486 2.21457e-20)
(0.959406 0.386523 -8.92965e-21)
(0.970317 0.362644 6.20563e-21)
(0.109747 0.0932214 -1.46142e-21)
(0.284972 0.238776 -1.04504e-20)
(0.429806 0.351146 2.39418e-21)
(0.547592 0.43333 -2.30616e-21)
(0.641674 0.48832 2.25307e-21)
(0.715422 0.519685 6.64116e-21)
(0.772184 0.53148 1.74971e-20)
(0.815232 0.527949 1.81233e-20)
(0.84764 0.513214 -5.47818e-21)
(0.872146 0.490997 -2.50769e-20)
(0.891058 0.464422 -9.25388e-21)
(0.906241 0.435924 -7.105e-21)
(0.919203 0.407212 1.51472e-20)
(0.931327 0.379645 -2.20359e-20)
(0.944395 0.355369 -2.63252e-20)
(0.103595 0.0971705 6.73778e-21)
(0.268846 0.247006 -6.79209e-21)
(0.406111 0.360416 -1.81576e-20)
(0.518177 0.44155 4.44617e-21)
(0.608176 0.494219 -3.6625e-21)
(0.67933 0.52265 1.33077e-20)
(0.734806 0.531421 -4.0643e-21)
(0.777676 0.525136 1.03898e-20)
(0.810799 0.50812 -1.08261e-20)
(0.836693 0.484163 1.71939e-20)
(0.857449 0.456369 5.83642e-20)
(0.874688 0.4271 -4.17315e-20)
(0.889674 0.397917 -2.01681e-20)
(0.903827 0.369721 3.62547e-21)
(0.919077 0.344949 -1.23428e-21)
(0.0965924 0.0999511 -1.96478e-20)
(0.250847 0.252334 -1.35239e-20)
(0.38008 0.365609 -5.86825e-21)
(0.48635 0.444979 2.59142e-20)
(0.572457 0.494999 -5.09959e-20)
(0.641361 0.520477 -2.67023e-21)
(0.695963 0.526425 3.01491e-20)
(0.739066 0.517724 -2.86157e-20)
(0.77327 0.498824 4.40643e-20)
(0.800853 0.473523 -1.96812e-20)
(0.82369 0.444837 -1.2075e-20)
(0.843192 0.414998 3.03697e-22)
(0.860462 0.385314 3.30445e-20)
(0.876934 0.355714 -2.97236e-20)
(0.892427 0.32653 1.16177e-20)
(0.0888877 0.101458 4.08889e-20)
(0.231349 0.254554 -2.54653e-20)
(0.352235 0.366501 5.43859e-21)
(0.452725 0.443425 -1.65716e-20)
(0.535165 0.490527 4.86369e-22)
(0.60216 0.513095 4.06032e-21)
(0.65626 0.516482 1.00211e-20)
(0.699941 0.505753 1.27438e-20)
(0.735505 0.485414 -4.37527e-20)
(0.764964 0.459214 -1.16245e-20)
(0.78997 0.430056 2.09802e-20)
(0.811759 0.400023 -4.87517e-20)
(0.831371 0.370306 3.09894e-20)
(0.850082 0.340947 1.77747e-20)
(0.866688 0.312611 -4.13553e-21)
(0.0806484 0.101612 1.1097e-20)
(0.21076 0.253521 3.46324e-20)
(0.323133 0.362946 8.03456e-21)
(0.417941 0.436781 -2.95658e-20)
(0.49697 0.480749 4.03714e-20)
(0.562381 0.500508 -4.03204e-20)
(0.616309 0.501642 -4.83888e-20)
(0.660855 0.489315 -6.85642e-20)
(0.697989 0.468018 9.99321e-20)
(0.729445 0.44141 1.7563e-20)
(0.756637 0.412267 -1.81241e-20)
(0.780627 0.382528 -1.65202e-20)
(0.802328 0.353291 3.2312e-20)
(0.822747 0.324726 -3.73523e-21)
(0.840489 0.297695 9.03982e-20)
(0.0720549 0.100361 -1.06503e-19)
(0.189506 0.249145 8.19241e-20)
(0.293352 0.354874 1.69932e-20)
(0.382652 0.425019 -3.80468e-20)
(0.458545 0.465689 7.34399e-20)
(0.522679 0.482784 -5.48477e-20)
(0.57672 0.482009 4.48672e-20)
(0.622361 0.468536 1.79757e-20)
(0.661227 0.446776 7.20769e-21)
(0.694764 0.420261 3.99272e-20)
(0.724161 0.391622 -2.10785e-20)
(0.75032 0.362666 -7.15895e-20)
(0.774031 0.334412 -4.49359e-20)
(0.796106 0.307114 6.73799e-21)
(0.815258 0.281643 3.5296e-21)
(0.0632959 0.097681 9.35763e-21)
(0.168031 0.241405 -1.996e-20)
(0.263481 0.342293 2.69526e-20)
(0.347515 0.408193 -1.95177e-20)
(0.420559 0.445445 2.54842e-20)
(0.483697 0.460057 -3.4467e-20)
(0.538089 0.457739 4.49979e-20)
(0.585001 0.443578 -4.34875e-20)
(0.625707 0.421845 1.0902e-20)
(0.661374 0.395905 -2.44401e-22)
(0.692981 0.368225 -3.95854e-20)
(0.721289 0.340476 8.1118e-21)
(0.746985 0.313603 5.36397e-20)
(0.77075 0.2879 -7.25486e-20)
(0.79147 0.264145 2.17426e-20)
(0.0545638 0.0935764 -6.62094e-20)
(0.146778 0.230338 4.05582e-20)
(0.234104 0.32529 -3.35019e-20)
(0.313176 0.386439 5.30417e-20)
(0.383665 0.420189 -1.77211e-20)
(0.446056 0.432521 2.19016e-20)
(0.500986 0.429032 7.96063e-20)
(0.549289 0.414638 -9.53619e-20)
(0.591891 0.393403 1.05453e-20)
(0.629694 0.36849 -4.88168e-21)
(0.663485 0.342184 7.66541e-20)
(0.693902 0.316012 7.30933e-20)
(0.721547 0.290836 2.0467e-20)
(0.747007 0.266961 -1.77899e-20)
(0.769347 0.245032 1.96955e-21)
(0.04605 0.0880806 4.96841e-20)
(0.126185 0.216046 -8.20209e-20)
(0.205791 0.304027 -3.35205e-21)
(0.28026 0.359965 -3.22187e-20)
(0.348487 0.390162 -1.87039e-20)
(0.410347 0.40043 -9.71607e-20)
(0.465951 0.39614 -5.49426e-20)
(0.515706 0.381948 -2.12739e-20)
(0.560206 0.361657 5.48982e-20)
(0.600104 0.338189 -1.01251e-19)
(0.636013 0.313632 6.93989e-21)
(0.668466 0.28936 1.24227e-20)
(0.697995 0.266149 -5.83592e-20)
(0.72511 0.24429 -1.11553e-20)
(0.749062 0.22429 -1.1365e-20)
(0.0379406 0.0812542 -7.5366e-20)
(0.106674 0.198687 -6.94651e-20)
(0.179088 0.278738 -3.82255e-21)
(0.249358 0.329054 4.67445e-20)
(0.315612 0.355672 1.36644e-20)
(0.37712 0.364095 1.27879e-19)
(0.433482 0.359359 3.96268e-20)
(0.484695 0.34578 9.28541e-20)
(0.53104 0.326845 -1.51089e-21)
(0.572943 0.305204 -2.74329e-20)
(0.610863 0.282731 -1.90939e-21)
(0.645242 0.260645 8.56928e-20)
(0.67655 0.239629 5.1601e-20)
(0.705239 0.219949 -6.9627e-21)
(0.730746 0.201982 -2.79389e-20)
(0.0304125 0.0731845 6.59416e-20)
(0.0886428 0.178478 6.34772e-20)
(0.154505 0.249723 -7.33482e-20)
(0.221022 0.294056 1.38056e-20)
(0.285583 0.317086 -7.75004e-21)
(0.346881 0.32388 -7.55955e-21)
(0.404034 0.319032 5.19288e-20)
(0.456656 0.306444 -7.60673e-20)
(0.504742 0.289239 1.73933e-20)
(0.548513 0.269768 6.68253e-20)
(0.588295 0.249678 -1.61237e-20)
(0.624451 0.230027 -5.84827e-20)
(0.657399 0.211405 -1.83002e-20)
(0.687544 0.194048 -7.56695e-20)
(0.714505 0.178218 3.9425e-20)
(0.023629 0.063983 -6.87592e-20)
(0.0724559 0.155686 -4.06247e-21)
(0.132509 0.217344 -5.89752e-21)
(0.19575 0.255383 -1.45452e-20)
(0.258888 0.274829 3.48933e-20)
(0.320085 0.280196 -6.85429e-20)
(0.378013 0.275541 2.39644e-20)
(0.431945 0.264284 -7.16123e-20)
(0.48162 0.249141 8.62768e-21)
(0.527079 0.232142 -2.93135e-20)
(0.568533 0.214694 2.54282e-20)
(0.606281 0.197695 2.71924e-20)
(0.640696 0.181642 -9.11303e-20)
(0.672147 0.166734 6.65422e-20)
(0.700427 0.15314 6.22031e-21)
(0.017737 0.0537838 6.56535e-20)
(0.0584397 0.130625 -1.37393e-20)
(0.113514 0.182022 1.0639e-19)
(0.173986 0.213502 -8.81562e-21)
(0.235961 0.229378 -2.17657e-20)
(0.297128 0.2335 1.96083e-20)
(0.355775 0.229305 -1.03596e-20)
(0.410871 0.219675 2.19006e-20)
(0.461939 0.206883 -2.09448e-20)
(0.508867 0.192615 -5.99896e-20)
(0.55177 0.178032 -5.47179e-20)
(0.590894 0.163869 7.23865e-20)
(0.626575 0.150531 -2.28865e-20)
(0.659154 0.13818 -2.22604e-20)
(0.688585 0.126917 1.48165e-20)
(0.0128637 0.0427401 1.15015e-20)
(0.0468756 0.10365 -1.78957e-20)
(0.0978753 0.144221 -1.33232e-20)
(0.156107 0.168928 -2.66333e-20)
(0.217167 0.181252 1.18151e-20)
(0.278349 0.184285 -8.06139e-20)
(0.337618 0.180778 5.35201e-20)
(0.393695 0.173024 -3.8926e-20)
(0.445924 0.162822 -1.71792e-20)
(0.494068 0.151498 4.90286e-20)
(0.538166 0.139964 -3.29648e-20)
(0.578423 0.128789 -3.66695e-20)
(0.615145 0.118288 3.01817e-20)
(0.648653 0.108584 -7.29085e-21)
(0.679037 0.0997329 7.30567e-20)
(0.00911407 0.031022 4.48599e-21)
(0.0379948 0.0751491 -1.12248e-20)
(0.0858853 0.104451 -1.07676e-20)
(0.142422 0.122217 1.26086e-20)
(0.202805 0.131005 -1.0663e-20)
(0.264022 0.133077 2.14861e-20)
(0.323785 0.13044 -2.71028e-20)
(0.380628 0.124758 4.86847e-20)
(0.433753 0.117334 3.97363e-20)
(0.482834 0.109125 -8.66209e-21)
(0.52785 0.100782 5.79319e-23)
(0.568976 0.0927142 3.28135e-21)
(0.606495 0.085145 -2.41544e-21)
(0.640715 0.0781618 -9.13607e-21)
(0.671833 0.071789 -1.55814e-20)
(0.0065687 0.0188125 -6.01726e-21)
(0.0319742 0.0455388 -2.58115e-20)
(0.0777664 0.0632492 -1.59287e-21)
(0.133167 0.0739564 5.68274e-21)
(0.193103 0.0792229 1.49083e-20)
(0.254354 0.0804282 -2.02903e-20)