/*--------------------------------*- C++ -*----------------------------------*\
  =========                 |
  \\      /  F ield         | OpenFOAM: The Open Source CFD Toolbox
   \\    /   O peration     | Website:  https://openfoam.org
    \\  /    A nd           | Version:  7
     \\/     M anipulation  |
\*---------------------------------------------------------------------------*/
FoamFile
{
    version     2.0;
    format      ascii;
    class       surfaceScalarField;
    location    "15";
    object      phi;
}
// * * * * * * * * * * * * * * * * * * * * * * * * * * * * * * * * * * * * * //

dimensions      [0 3 -1 0 0 0 0];

internalField   nonuniform List<scalar> 
2638
(
-1.47378e-05
0.0179231
-1.03982e-05
0.0178757
-6.99903e-06
0.0178371
-4.28975e-06
0.0178078
-2.03286e-06
0.0177881
0.0177782
-0.000472851
0.0140635
0.000518902
-0.000412131
0.0154103
-0.000346359
0.0164716
-0.000283457
0.01724
-0.000228035
0.0177491
-0.000181691
0.018053
-0.000144123
0.0182085
-0.000114146
0.0182646
-9.03443e-05
0.0182589
-7.14087e-05
0.0182181
-5.62604e-05
0.0181598
-4.40681e-05
0.0180952
-3.42083e-05
0.0180308
-2.62112e-05
0.0179705
-1.97092e-05
0.0179166
-1.43984e-05
0.0178704
-1.00119e-05
0.0178327
-6.30413e-06
0.0178041
-3.04182e-06
0.0177848
0.0177752
-0.000476473
0.0140198
0.000520172
-0.000418267
0.0153521
-0.000354613
0.0164079
-0.000293139
0.0171785
-0.000238454
0.0176944
-0.000192309
0.0180069
-0.000154567
0.0181708
-0.000124176
0.0182342
-9.98077e-05
0.0182345
-8.02051e-05
0.0181985
-6.43212e-05
0.0181439
-5.1342e-05
0.0180822
-4.06544e-05
0.0180201
-3.17953e-05
0.0179616
-2.44032e-05
0.0179092
-1.81794e-05
0.0178642
-1.28623e-05
0.0178274
-8.21101e-06
0.0177994
-3.99731e-06
0.0177806
0.0177712
-0.000479297
0.0139783
0.000520773
-0.000423485
0.0152962
-0.000361888
0.0163463
-0.000301844
0.0171185
-0.000247942
0.0176405
-0.00020206
0.017961
-0.000164217
0.0181329
-0.000133485
0.0182034
-0.00010862
0.0182096
-8.84196e-05
0.0181783
-7.18668e-05
0.0181274
-5.81651e-05
0.0180685
-4.67119e-05
0.0180086
-3.70511e-05
0.017952
-2.8827e-05
0.017901
-2.17468e-05
0.0178571
-1.55539e-05
0.0178212
-1.00128e-05
0.0177939
-4.90026e-06
0.0177755
0.0177663
-0.000481383
0.013939
0.000520753
-0.000427854
0.0152427
-0.000368251
0.0162867
-0.000309632
0.0170599
-0.000256551
0.0175875
-0.00021099
0.0179155
-0.000173111
0.0180951
-0.000142104
0.0181724
-0.00011681
0.0181843
-9.6076e-05
0.0181575
-7.89167e-05
0.0181102
-6.45533e-05
0.0180541
-5.23935e-05
0.0179965
-4.19886e-05
0.0179416
-3.29887e-05
0.017892
-2.51064e-05
0.0178492
-1.80908e-05
0.0178142
-1.17123e-05
0.0177875
-5.75233e-06
0.0177696
0.0177605
-0.000482788
0.0139016
0.000520162
-0.000431437
0.0151914
-0.000373766
0.016229
-0.000316564
0.0170027
-0.000264332
0.0175352
-0.000219143
0.0178703
-0.000181288
0.0180572
-0.000150068
0.0181412
-0.000124405
0.0181587
-0.000103198
0.0181363
-8.54907e-05
0.0180925
-7.0523e-05
0.0180391
-5.77127e-05
0.0179837
-4.66185e-05
0.0179305
-3.68964e-05
0.0178823
-2.82645e-05
0.0178406
-2.04779e-05
0.0178064
-1.33121e-05
0.0177804
-6.55469e-06
0.0177628
0.017754
-0.000483565
0.0138661
0.000519046
-0.000434293
0.0151421
-0.000378493
0.0161732
-0.000322693
0.0169469
-0.000271335
0.0174839
-0.000226563
0.0178255
-0.000188785
0.0180194
-0.000157409
0.0181098
-0.000131433
0.0181327
-0.000109808
0.0181147
-9.16085e-05
0.0180743
-7.60905e-05
0.0180236
-6.26831e-05
0.0179703
-5.09517e-05
0.0179188
-4.05587e-05
0.0178719
-3.12275e-05
0.0178313
-2.27192e-05
0.0177979
-1.48155e-05
0.0177725
-7.30916e-06
0.0177553
0.0177467
-0.000483765
0.0138324
0.000517448
-0.000436479
0.0150948
-0.000382488
0.0161192
-0.000328075
0.0168925
-0.000277608
0.0174334
-0.000233292
0.0177812
-0.000195638
0.0179818
-0.000164157
0.0180784
-0.000137922
0.0181065
-0.000115931
0.0180927
-9.72901e-05
0.0180557
-8.12726e-05
0.0180076
-6.7318e-05
0.0179563
-5.49992e-05
0.0179064
-4.39841e-05
0.0178609
-3.40023e-05
0.0178213
-2.48204e-05
0.0177887
-1.62255e-05
0.0177639
-8.01706e-06
0.0177471
0.0177386
-0.000483437
0.0138004
0.000515411
-0.000438048
0.0150494
-0.000385807
0.016067
-0.000332759
0.0168394
-0.000283197
0.0173838
-0.000239369
0.0177373
-0.000201884
0.0179443
-0.000170345
0.0180468
-0.000143897
0.01808
-0.000121589
0.0180704
-0.000102555
0.0180366
-8.60857e-05
0.0179911
-7.16315e-05
0.0179418
-5.87723e-05
0.0178936
-4.71818e-05
0.0178493
-3.65956e-05
0.0178107
-2.67856e-05
0.0177789
-1.75453e-05
0.0177546
-8.67973e-06
0.0177382
0.01773
-0.000482624
0.0137701
0.000512973
-0.000439048
0.0150058
-0.000388499
0.0160165
-0.000336794
0.0167877
-0.000288145
0.0173352
-0.000244834
0.017694
-0.000207556
0.017907
-0.000176001
0.0180153
-0.000149386
0.0180534
-0.000126806
0.0180478
-0.000107423
0.0180172
-9.05464e-05
0.0179743
-7.56373e-05
0.0179269
-6.22823e-05
0.0178802
-5.01611e-05
0.0178372
-3.90144e-05
0.0177996
-2.86205e-05
0.0177685
-1.87784e-05
0.0177448
-9.29906e-06
0.0177287
0.0177207
-0.00048137
0.0137413
0.000510174
-0.000439528
0.014964
-0.000390613
0.0159675
-0.000340227
0.0167373
-0.000292495
0.0172875
-0.000249725
0.0176513
-0.000212687
0.01787
-0.000181157
0.0179837
-0.000154415
0.0180267
-0.000131602
0.018025
-0.000111913
0.0179976
-9.46713e-05
0.017957
-7.93493e-05
0.0179116
-6.55406e-05
0.0178664
-5.29307e-05
0.0178245
-4.1266e-05
0.0177879
-3.03299e-05
0.0177576
-1.9928e-05
0.0177344
-9.87696e-06
0.0177187
0.0177108
-0.000479714
0.013714
0.000507048
-0.000439532
0.0149238
-0.000392195
0.0159202
-0.0003431
0.0166882
-0.000296287
0.0172407
-0.000254078
0.0176091
-0.000217311
0.0178332
-0.000185839
0.0179523
-0.000159008
0.0179998
-0.000136002
0.018002
-0.000116044
0.0179776
-9.84765e-05
0.0179395
-8.2781e-05
0.0178959
-6.85586e-05
0.0178522
-5.55002e-05
0.0178115
-4.33572e-05
0.0177757
-3.19195e-05
0.0177462
-2.09976e-05
0.0177235
-1.04149e-05
0.0177081
0.0177004
-0.000477696
0.013688
0.000503629
-0.0004391
0.0148852
-0.000393287
0.0158744
-0.000345457
0.0166404
-0.00029956
0.0171948
-0.000257927
0.0175674
-0.000221458
0.0177967
-0.000190077
0.0179209
-0.000163189
0.0179729
-0.000140025
0.0179788
-0.000119835
0.0179574
-0.000101978
0.0179216
-8.59463e-05
0.0178799
-7.13475e-05
0.0178376
-5.78782e-05
0.017798
-4.52954e-05
0.0177632
-3.33939e-05
0.0177343
-2.19907e-05
0.017712
-1.09143e-05
0.017697
0.0176894
-0.00047535
0.0136634
0.000499949
-0.000438272
0.0148481
-0.00039393
0.0158301
-0.000347335
0.0165938
-0.00030235
0.0171498
-0.000261308
0.0175264
-0.000225159
0.0177606
-0.000193896
0.0178896
-0.000166984
0.017946
-0.000143694
0.0179555
-0.000123304
0.017937
-0.000105192
0.0179035
-8.88584e-05
0.0178636
-7.39185e-05
0.0178227
-6.00741e-05
0.0177842
-4.70876e-05
0.0177502
-3.47589e-05
0.0177219
-2.29105e-05
0.0177002
-1.13772e-05
0.0176855
0.0176781
-0.00047271
0.0136401
0.000496038
-0.000437085
0.0148125
-0.000394162
0.0157871
-0.000348774
0.0165484
-0.000304694
0.0171057
-0.00026425
0.0174859
-0.000228442
0.0177248
-0.000197323
0.0178585
-0.000170414
0.0179191
-0.000147028
0.0179322
-0.00012647
0.0179165
-0.000108133
0.0178852
-9.15306e-05
0.0178469
-7.62827e-05
0.0178074
-6.2097e-05
0.01777
-4.87408e-05
0.0177368
-3.60194e-05
0.0177092
-2.37607e-05
0.0176879
-1.18051e-05
0.0176735
0.0176663
-0.000469807
0.013618
0.000491923
-0.000435574
0.0147783
-0.000394018
0.0157456
-0.000349807
0.0165042
-0.000306623
0.0170625
-0.000266786
0.0174461
-0.000231335
0.0176893
-0.000200383
0.0178275
-0.000173502
0.0178922
-0.000150047
0.0179087
-0.000129349
0.0178958
-0.000110818
0.0178666
-9.39756e-05
0.0178301
-7.84508e-05
0.0177919
-6.39557e-05
0.0177555
-5.0262e-05
0.0177231
-3.71806e-05
0.0176961
-2.45445e-05
0.0176753
-1.22002e-05
0.0176612
0.0176541
-0.00046667
0.013597
0.000487631
-0.00043377
0.0147454
-0.000393534
0.0157053
-0.00035047
0.0164611
-0.000308171
0.0170202
-0.000268944
0.0174069
-0.000233865
0.0176542
-0.000203099
0.0177968
-0.00017627
0.0178654
-0.000152771
0.0178852
-0.000131958
0.0178749
-0.000113259
0.0178479
-9.62063e-05
0.0178131
-8.04336e-05
0.0177761
-6.56586e-05
0.0177407
-5.16581e-05
0.0177091
-3.82474e-05
0.0176827
-2.52653e-05
0.0176623
-1.25633e-05
0.0176485
0.0176415
-0.000463328
0.0135772
0.000483186
-0.000431704
0.0147138
-0.000392741
0.0156664
-0.000350793
0.0164192
-0.000309366
0.0169788
-0.000270753
0.0173683
-0.000236058
0.0176196
-0.000205496
0.0177662
-0.000178739
0.0178387
-0.000155218
0.0178617
-0.000134315
0.017854
-0.000115473
0.0178291
-9.82352e-05
0.0177958
-8.22415e-05
0.0177601
-6.72146e-05
0.0177257
-5.29357e-05
0.0176948
-3.92251e-05
0.017669
-2.59264e-05
0.017649
-1.28967e-05
0.0176355
0.0176286
-0.000459805
0.0135584
0.000478611
-0.000429404
0.0146834
-0.000391669
0.0156286
-0.000350806
0.0163783
-0.000310239
0.0169382
-0.000272239
0.0173303
-0.000237937
0.0175852
-0.000207595
0.0177359
-0.000180929
0.017812
-0.000157406
0.0178382
-0.000136434
0.0178331
-0.000117473
0.0178101
-0.000100074
0.0177784
-8.38846e-05
0.0177439
-6.86318e-05
0.0177104
-5.41016e-05
0.0176803
-4.01184e-05
0.017655
-2.65311e-05
0.0176354
-1.32017e-05
0.0176221
0.0176154
-0.000456127
0.0135406
0.000473928
-0.000426897
0.0146541
-0.000390345
0.0155921
-0.000350538
0.0163385
-0.000310816
0.0168985
-0.000273428
0.0172929
-0.000239528
0.0175513
-0.000209417
0.0177058
-0.000182859
0.0177854
-0.000159352
0.0178146
-0.000138332
0.017812
-0.000119272
0.0177911
-0.000101735
0.0177609
-8.5373e-05
0.0177276
-6.99188e-05
0.017695
-5.51622e-05
0.0176656
-4.09324e-05
0.0176408
-2.70826e-05
0.0176216
-1.34802e-05
0.0176085
0.0176019
-0.000452314
0.0135237
0.000469156
-0.000424208
0.014626
-0.000388797
0.0155567
-0.000350016
0.0162997
-0.000311124
0.0168596
-0.000274344
0.0172561
-0.000240851
0.0175179
-0.000210984
0.0176759
-0.000184547
0.017759
-0.000161074
0.0177912
-0.000140023
0.017791
-0.000120884
0.0177719
-0.000103229
0.0177432
-8.67161e-05
0.0177111
-7.10832e-05
0.0176794
-5.61238e-05
0.0176506
-4.16714e-05
0.0176263
-2.75839e-05
0.0176075
-1.37336e-05
0.0175947
0.0175882
-0.000448389
0.0135078
0.000464314
-0.00042136
0.014599
-0.000387049
0.0155224
-0.000349265
0.016262
-0.000311185
0.0168215
-0.00027501
0.0172199
-0.000241928
0.0174848
-0.000212315
0.0176463
-0.000186012
0.0177327
-0.000162587
0.0177678
-0.000141522
0.0177699
-0.000122321
0.0177527
-0.000104567
0.0177255
-8.79235e-05
0.0176944
-7.21329e-05
0.0176636
-5.69926e-05
0.0176355
-4.23402e-05
0.0176117
-2.80381e-05
0.0175932
-1.3963e-05
0.0175806
0.0175742
-0.00044437
0.0134927
0.000459419
-0.000418375
0.014573
-0.000385125
0.0154891
-0.000348307
0.0162251
-0.000311025
0.0167842
-0.000275448
0.0171843
-0.00024278
0.0174521
-0.000213428
0.0176169
-0.000187271
0.0177065
-0.000163908
0.0177444
-0.000142842
0.0177489
-0.000123596
0.0177335
-0.00010576
0.0177076
-8.90042e-05
0.0176777
-7.30751e-05
0.0176476
-5.77745e-05
0.0176202
-4.29432e-05
0.0175968
-2.84482e-05
0.0175787
-1.41707e-05
0.0175663
0.0175601
-0.000440276
0.0134785
0.000454486
-0.000415273
0.014548
-0.000383045
0.0154569
-0.000347166
0.0161893
-0.000310663
0.0167477
-0.000275679
0.0171494
-0.000243426
0.0174199
-0.000214342
0.0175879
-0.00018834
0.0176805
-0.000165049
0.0177211
-0.000143998
0.0177278
-0.00012472
0.0177142
-0.000106818
0.0176897
-8.99669e-05
0.0176608
-7.39176e-05
0.0176316
-5.84753e-05
0.0176047
-4.3485e-05
0.0175819
-2.8817e-05
0.017564
-1.43573e-05
0.0175519
0.0175457
-0.000436123
0.0134651
0.000449531
-0.000412073
0.0145239
-0.00038083
0.0154256
-0.000345862
0.0161543
-0.000310122
0.016712
-0.000275723
0.017115
-0.000243884
0.017388
-0.000215073
0.017559
-0.000189234
0.0176547
-0.000166027
0.0176979
-0.000145
0.0177068
-0.000125705
0.0176949
-0.000107751
0.0176718
-9.08201e-05
0.0176439
-7.4667e-05
0.0176154
-5.91006e-05
0.0175891
-4.39691e-05
0.0175667
-2.91473e-05
0.0175492
-1.45246e-05
0.0175372
0.0175312
-0.000431927
0.0134525
0.000444566
-0.000408792
0.0145008
-0.0003785
0.0153954
-0.000344415
0.0161202
-0.000309419
0.016677
-0.000275597
0.0170811
-0.000244173
0.0173566
-0.000215637
0.0175305
-0.000189969
0.017629
-0.000166854
0.0176748
-0.000145863
0.0176858
-0.000126562
0.0176756
-0.000108568
0.0176538
-9.1572e-05
0.0176269
-7.53304e-05
0.0175992
-5.96559e-05
0.0175735
-4.44004e-05
0.0175515
-2.94418e-05
0.0175343
-1.46741e-05
0.0175225
0.0175165
-0.000427703
0.0134406
0.000439604
-0.000405446
0.0144786
-0.000376072
0.015366
-0.000342844
0.016087
-0.000308575
0.0166427
-0.00027532
0.0170479
-0.000244307
0.0173256
-0.000216051
0.0175022
-0.000190558
0.0176035
-0.000167543
0.0176518
-0.000146597
0.0176649
-0.0001273
0.0176563
-0.00010928
0.0176358
-9.22304e-05
0.0176098
-7.59142e-05
0.0175829
-6.01463e-05
0.0175577
-4.47822e-05
0.0175361
-2.97032e-05
0.0175192
-1.4807e-05
0.0175076
0.0175017
-0.000423463
0.0134294
0.000434658
-0.000402052
0.0144571
-0.000373562
0.0153375
-0.000341164
0.0160546
-0.000307604
0.0166092
-0.000274908
0.0170152
-0.000244304
0.017295
-0.000216329
0.0174743
-0.000191016
0.0175782
-0.000168108
0.0176289
-0.000147215
0.017644
-0.000127931
0.017637
-0.000109893
0.0176177
-9.28029e-05
0.0175927
-7.64243e-05
0.0175665
-6.0577e-05
0.0175419
-4.51185e-05
0.0175206
-2.99339e-05
0.017504
-1.49242e-05
0.0174926
0.0174868
-0.00041922
0.0134189
0.000429737
-0.000398622
0.0144365
-0.000370985
0.0153099
-0.000339393
0.016023
-0.000306525
0.0165763
-0.000274377
0.016983
-0.000244178
0.0172648
-0.000216484
0.0174466
-0.000191355
0.0175531
-0.000168559
0.0176061
-0.000147725
0.0176231
-0.000128463
0.0176178
-0.000110418
0.0175997
-9.32967e-05
0.0175756
-7.68676e-05
0.0175501
-6.09527e-05
0.0175259
-4.5413e-05
0.0175051
-3.01363e-05
0.0174887
-1.50273e-05
0.0174775
0.0174717
-0.000414985
0.013409
0.00042485
-0.000395169
0.0144167
-0.000368357
0.015283
-0.000337545
0.0159922
-0.000305351
0.0165441
-0.000273741
0.0169514
-0.000243943
0.017235
-0.00021653
0.0174192
-0.000191588
0.0175282
-0.000168908
0.0175834
-0.00014814
0.0176024
-0.000128907
0.0175985
-0.000110862
0.0175816
-9.37188e-05
0.0175585
-7.72492e-05
0.0175336
-6.1278e-05
0.01751
-4.56691e-05
0.0174895
-3.03128e-05
0.0174734
-1.51173e-05
0.0174623
0.0174566
-0.00041077
0.0133998
0.000420008
-0.000391707
0.0143977
-0.000365691
0.015257
-0.000335635
0.0159621
-0.000304098
0.0165126
-0.000273015
0.0169203
-0.000243612
0.0172056
-0.000216479
0.017392
-0.000191726
0.0175034
-0.000169165
0.0175608
-0.000148468
0.0175817
-0.000129269
0.0175793
-0.000111233
0.0175636
-9.40758e-05
0.0175413
-7.7575e-05
0.0175171
-6.15576e-05
0.017494
-4.589e-05
0.0174738
-3.04657e-05
0.0174579
-1.51954e-05
0.017447
0.0174414
-0.000406582
0.0133911
0.000415218
-0.000388245
0.0143793
-0.000362997
0.0152318
-0.000333675
0.0159328
-0.000302777
0.0164817
-0.000272211
0.0168898
-0.000243198
0.0171766
-0.000216343
0.0173652
-0.000191779
0.0174788
-0.000169341
0.0175384
-0.000148718
0.017561
-0.00012956
0.0175602
-0.000111537
0.0175456
-9.4374e-05
0.0175242
-7.78502e-05
0.0175006
-6.17955e-05
0.0174779
-4.60791e-05
0.0174581
-3.0597e-05
0.0174425
-1.52627e-05
0.0174317
0.0174262
-0.000402432
0.0133831
0.000410488
-0.000384794
0.0143617
-0.000360289
0.0152073
-0.000331678
0.0159042
-0.000301403
0.0164514
-0.000271341
0.0168597
-0.000242713
0.0171479
-0.000216134
0.0173386
-0.000191759
0.0174545
-0.000169445
0.0175161
-0.0001489
0.0175405
-0.000129786
0.0175411
-0.000111783
0.0175276
-9.46195e-05
0.017507
-7.80796e-05
0.017484
-6.1996e-05
0.0174618
-4.62395e-05
0.0174424
-3.07088e-05
0.0174269
-1.532e-05
0.0174163
0.0174108
-0.000398327
0.0133756
0.000405824
-0.000381364
0.0143447
-0.000357577
0.0151835
-0.000329654
0.0158763
-0.000299985
0.0164217
-0.000270418
0.0168301
-0.000242167
0.0171197
-0.000215861
0.0173123
-0.000191675
0.0174303
-0.000169487
0.0174939
-0.000149022
0.01752
-0.000129955
0.017522
-0.000111976
0.0175096
-9.4818e-05
0.0174898
-7.82686e-05
0.0174675
-6.21628e-05
0.0174457
-4.63741e-05
0.0174266
-3.08031e-05
0.0174113
-1.53685e-05
0.0174008
0.0173955
-0.000394275
0.0133686
0.000401233
-0.000377964
0.0143284
-0.000354871
0.0151604
-0.000327616
0.015849
-0.000298536
0.0163926
-0.000269452
0.0168011
-0.000241571
0.0170918
-0.000215535
0.0172863
-0.000191536
0.0174063
-0.000169475
0.0174718
-0.000149092
0.0174996
-0.000130075
0.017503
-0.000112123
0.0174916
-9.49751e-05
0.0174727
-7.84215e-05
0.0174509
-6.22998e-05
0.0174296
-4.64855e-05
0.0174108
-3.08817e-05
0.0173957
-1.54092e-05
0.0173854
0.0173801
-0.000390283
0.0133622
0.000396721
-0.000374601
0.0143127
-0.000352179
0.015138
-0.000325571
0.0158224
-0.000297065
0.0163641
-0.000268452
0.0167724
-0.000240935
0.0170643
-0.000215165
0.0172605
-0.000191352
0.0173825
-0.000169417
0.0174499
-0.000149116
0.0174793
-0.000130152
0.017484
-0.00011223
0.0174737
-9.50959e-05
0.0174555
-7.85426e-05
0.0174344
-6.24104e-05
0.0174135
-4.65768e-05
0.0173949
-3.09464e-05
0.0173801
-1.54428e-05
0.0173699
0.0173646
-0.000386357
0.0133563
0.000392292
-0.000371282
0.0142977
-0.00034951
0.0151162
-0.00032353
0.0157964
-0.000295582
0.0163362
-0.000267429
0.0167443
-0.000240268
0.0170371
-0.000214759
0.017235
-0.000191131
0.0173588
-0.00016932
0.0174281
-0.000149103
0.0174591
-0.000130193
0.0174651
-0.000112303
0.0174558
-9.51853e-05
0.0174384
-7.86363e-05
0.0174178
-6.2498e-05
0.0173973
-4.665e-05
0.0173791
-3.0999e-05
0.0173645
-1.54703e-05
0.0173543
0.0173492
-0.000382502
0.0133508
0.000387951
-0.000368016
0.0142832
-0.000346872
0.0150951
-0.000321501
0.0157711
-0.000294095
0.0163088
-0.000266391
0.0167166
-0.000239578
0.0170103
-0.000214326
0.0172097
-0.000190879
0.0173354
-0.000169193
0.0174064
-0.000149059
0.017439
-0.000130203
0.0174462
-0.000112347
0.017438
-9.52482e-05
0.0174213
-7.87061e-05
0.0174013
-6.25658e-05
0.0173812
-4.67079e-05
0.0173632
-3.1041e-05
0.0173488
-1.54923e-05
0.0173388
0.0173337
-0.000378724
0.0133458
0.000383702
-0.000364807
0.0142693
-0.000344271
0.0150745
-0.000319492
0.0157463
-0.000292613
0.0162819
-0.000265346
0.0166893
-0.000238875
0.0169838
-0.000213874
0.0171847
-0.000190605
0.0173121
-0.000169042
0.0173848
-0.00014899
0.0174189
-0.000130188
0.0174274
-0.000112367
0.0174202
-9.52888e-05
0.0174043
-7.87564e-05
0.0173848
-6.26168e-05
0.017365
-4.67527e-05
0.0173474
-3.1074e-05
0.0173331
-1.55097e-05
0.0173232
0.0173182
-0.000375028
0.0133413
0.000379549
-0.000361661
0.0142559
-0.000341716
0.0150546
-0.000317509
0.0157221
-0.000291143
0.0162555
-0.000264302
0.0166625
-0.000238163
0.0169577
-0.00021341
0.01716
-0.000190316
0.017289
-0.000168872
0.0173634
-0.000148902
0.017399
-0.000130154
0.0174087
-0.000112368
0.0174024
-9.53114e-05
0.0173872
-7.87903e-05
0.0173682
-6.26538e-05
0.0173489
-4.67864e-05
0.0173315
-3.10994e-05
0.0173174
-1.55232e-05
0.0173076
0.0173026
-0.000371417
0.0133372
0.000375496
-0.000358584
0.0142431
-0.00033921
0.0150352
-0.000315559
0.0156984
-0.000289691
0.0162297
-0.000263266
0.0166361
-0.000237452
0.0169319
-0.000212939
0.0171355
-0.000190017
0.0172661
-0.000168692
0.017342
-0.000148801
0.0173791
-0.000130106
0.01739
-0.000112355
0.0173846
-9.53199e-05
0.0173702
-7.88112e-05
0.0173517
-6.26797e-05
0.0173328
-4.68111e-05
0.0173156
-3.11186e-05
0.0173017
-1.55338e-05
0.0172921
0.0172871
-0.000367895
0.0133336
0.000371545
-0.000355581
0.0142307
-0.000336761
0.0150164
-0.00031365
0.0156753
-0.000288266
0.0162043
-0.000262244
0.01661
-0.000236748
0.0169064
-0.00021247
0.0171112
-0.000189715
0.0172433
-0.000168504
0.0173208
-0.000148691
0.0173593
-0.000130048
0.0173713
-0.000112331
0.0173669
-9.5318e-05
0.0173531
-7.88225e-05
0.0173352
-6.26969e-05
0.0173166
-4.6829e-05
0.0172997
-3.11329e-05
0.017286
-1.55415e-05
0.0172765
0.0172716
-0.000364467
0.0133303
0.000367699
-0.000352655
0.0142189
-0.000334372
0.0149981
-0.000311785
0.0156527
-0.000286871
0.0161794
-0.000261243
0.0165844
-0.000236056
0.0168812
-0.000212007
0.0170871
-0.000189415
0.0172208
-0.000168316
0.0172997
-0.000148578
0.0173395
-0.000129985
0.0173528
-0.000112301
0.0173492
-9.53092e-05
0.0173362
-7.88265e-05
0.0173187
-6.27078e-05
0.0173005
-4.68416e-05
0.0172839
-3.11435e-05
0.0172703
-1.55476e-05
0.0172609
0.017256
-0.000361134
0.0133275
0.00036396
-0.00034981
0.0142076
-0.000332049
0.0149803
-0.00030997
0.0156306
-0.000285514
0.0161549
-0.000260269
0.0165592
-0.000235381
0.0168563
-0.000211556
0.0170633
-0.000189122
0.0171983
-0.000168132
0.0172787
-0.000148466
0.0173199
-0.000129921
0.0173342
-0.000112268
0.0173316
-9.52969e-05
0.0173192
-7.88268e-05
0.0173023
-6.27147e-05
0.0172844
-4.68508e-05
0.017268
-3.11515e-05
0.0172546
-1.55522e-05
0.0172453
0.0172405
-0.0003579
0.0133251
0.000360331
-0.00034705
0.0141968
-0.000329796
0.0149631
-0.00030821
0.0156091
-0.000284198
0.0161309
-0.000259325
0.0165343
-0.00023473
0.0168317
-0.000211122
0.0170397
-0.000188842
0.017176
-0.000167956
0.0172579
-0.00014836
0.0173003
-0.000129859
0.0173157
-0.000112237
0.0173139
-9.5284e-05
0.0173022
-7.88255e-05
0.0172858
-6.27197e-05
0.0172683
-4.68581e-05
0.0172522
-3.11581e-05
0.0172389
-1.55561e-05
0.0172297
0.0172249
-0.000354767
0.013323
0.000356813
-0.000344378
0.0141864
-0.000327616
0.0149463
-0.00030651
0.015588
-0.000282929
0.0161073
-0.000258418
0.0165098
-0.000234107
0.0168074
-0.00021071
0.0170163
-0.000188578
0.0171539
-0.000167793
0.0172371
-0.000148263
0.0172807
-0.000129805
0.0172973
-0.000112209
0.0172963
-9.52734e-05
0.0172853
-7.88253e-05
0.0172694
-6.27248e-05
0.0172522
-4.68652e-05
0.0172363
-3.11643e-05
0.0172232
-1.55594e-05
0.0172141
0.0172093
-0.000351737
0.0133214
0.000353408
-0.000341796
0.0141764
-0.000325512
0.01493
-0.000304872
0.0155673
-0.00028171
0.0160842
-0.00025755
0.0164856
-0.000233516
0.0167834
-0.000210324
0.0169931
-0.000188335
0.0171319
-0.000167647
0.0172164
-0.000148179
0.0172613
-0.00012976
0.0172788
-0.000112189
0.0172788
-9.52679e-05
0.0172684
-7.88281e-05
0.0172529
-6.27319e-05
0.0172361
-4.6873e-05
0.0172204
-3.11709e-05
0.0172075
-1.55634e-05
0.0171985
0.0171938
-0.000348812
0.0133201
0.000350117
-0.000339307
0.0141669
-0.000323488
0.0149142
-0.0003033
0.0155471
-0.000280546
0.0160614
-0.000256728
0.0164618
-0.000232961
0.0167596
-0.000209967
0.0169701
-0.000188117
0.0171101
-0.00016752
0.0171958
-0.000148111
0.0172419
-0.000129728
0.0172605
-0.000112178
0.0172612
-9.52698e-05
0.0172515
-7.88363e-05
0.0172365
-6.27426e-05
0.01722
-4.68836e-05
0.0172046
-3.1179e-05
0.0171918
-1.55676e-05
0.0171828
0.0171782
-0.000345994
-0.000336913
-0.000321546
-0.000301798
-0.000279439
-0.000255953
-0.000232447
-0.000209644
-0.000187927
-0.000167418
-0.000148063
-0.000129712
-0.000112181
-9.52815e-05
-7.8852e-05
-6.27587e-05
-4.68976e-05
-3.11893e-05
-1.5573e-05
0.00919956
0.000515881
0.00920268
0.000515783
0.00920775
0.000515103
0.00921463
0.000513886
0.00922321
0.000512174
0.00923337
0.000510008
0.00924498
0.000507429
0.00925796
0.000504472
0.0092722
0.000501175
0.0092876
0.00049757
0.00930408
0.00049369
0.00932156
0.000489565
0.00933997
0.000485224
0.00935923
0.000480692
0.00937927
0.000475996
0.00940003
0.000471158
0.00942146
0.0004662
0.00944351
0.000461143
0.00946611
0.000456006
0.00948924
0.000450806
0.00951283
0.00044556
0.00953687
0.000440282
0.0095613
0.000434988
0.00958609
0.000429689
0.00961123
0.000424398
0.00963667
0.000419125
0.00966239
0.000413882
0.00968837
0.000408676
0.00971459
0.000403516
0.00974103
0.000398411
0.00976767
0.000393367
0.0097945
0.000388391
0.0098215
0.000383488
0.00984866
0.000378664
0.00987597
0.000373924
0.00990342
0.000369272
0.009931
0.000364711
0.0099587
0.000360246
0.00998653
0.00035588
0.0100145
0.000351615
0.0100425
0.000347453
0.0100707
0.000343398
0.0100989
0.00033945
0.0101272
0.000335612
0.0101557
0.000331885
0.0101842
0.00032827
0.0102129
0.000324767
0.000321379
0.00850374
0.000499397
0.00852103
0.000498591
0.00853956
0.000497248
0.00855926
0.000495409
0.00858003
0.000493117
0.00860179
0.00049041
0.00862447
0.000487327
0.008648
0.000483902
0.0086723
0.000480171
0.00869731
0.000476164
0.00872297
0.000471913
0.00874921
0.000467445
0.00877599
0.000462788
0.00880325
0.000457966
0.00883094
0.000453002
0.00885902
0.000447919
0.00888744
0.000442736
0.00891616
0.000437473
0.00894516
0.000432147
0.00897439
0.000426774
0.00900383
0.000421369
0.00903344
0.000415946
0.0090632
0.000410518
0.00909309
0.000405097
0.00912309
0.000399692
0.00915317
0.000394314
0.00918333
0.000388973
0.00921353
0.000383676
0.00924378
0.000378431
0.00927405
0.000373245
0.00930434
0.000368124
0.00933463
0.000363074
0.00936492
0.000358099
0.0093952
0.000353205
0.00942547
0.000348396
0.00945572
0.000343675
0.00948595
0.000339046
0.00951614
0.000334512
0.00954632
0.000330075
0.00957646
0.000325738
0.00960657
0.000321503
0.00963665
0.000317372
0.0096667
0.000313345
0.00969673
0.000309425
0.00972673
0.000305613
0.0097567
0.000301909
0.00978666
0.000298314
0.0098166
0.000294829
0.00750077
0.000463215
0.00753781
0.000462355
0.00757543
0.000460974
0.00761356
0.000459115
0.00765215
0.00045682
0.00769114
0.000454126
0.00773048
0.000451072
0.00777011
0.000447693
0.00780999
0.00044402
0.00785008
0.000440087
0.00789032
0.000435922
0.00793068
0.000431554
0.00797112
0.000427007
0.0080116
0.000422306
0.00805209
0.000417473
0.00809256
0.00041253
0.00813299
0.000407495
0.00817334
0.000402387
0.00821359
0.000397222
0.00825372
0.000392015
0.00829371
0.000386781
0.00833355
0.000381533
0.00837321
0.000376282
0.00841269
0.000371039
0.00845198
0.000365814
0.00849105
0.000360617
0.00852991
0.000355457
0.00856854
0.000350339
0.00860695
0.000345272
0.00864512
0.000340262
0.00868305
0.000335314
0.00872074
0.000330433
0.00875819
0.000325625
0.00879539
0.000320893
0.00883236
0.000316242
0.00886908
0.000311673
0.00890556
0.000307191
0.00894181
0.000302799
0.00897782
0.000298497
0.00901361
0.000294289
0.00904917
0.000290176
0.00908452
0.00028616
0.00911965
0.000282241
0.00915457
0.000278422
0.00918929
0.000274703
0.00922382
0.000271084
0.00925816
0.000267567
0.00929232
0.000264151
0.000260838
0.00629618
0.000404459
0.00635541
0.000403986
0.00641474
0.000403019
0.00647412
0.000401596
0.00653348
0.000399756
0.00659276
0.000397533
0.00665193
0.000394964
0.00671092
0.00039208
0.0067697
0.000388915
0.00682822
0.000385497
0.00688645
0.000381855
0.00694436
0.000378015
0.00700191
0.000374001
0.00705908
0.000369838
0.00711584
0.000365546
0.00717217
0.000361144
0.00722805
0.000356652
0.00728346
0.000352086
0.00733839
0.000347462
0.00739281
0.000342794
0.00744673
0.000338096
0.00750013
0.00033338
0.00755301
0.000328657
0.00760535
0.000323937
0.00765716
0.00031923
0.00770843
0.000314544
0.00775916
0.000309887
0.00780935
0.000305266
0.00785901
0.000300687
0.00790812
0.000296157
0.0079567
0.000291679
0.00800476
0.00028726
0.00805229
0.000282904
0.0080993
0.000278613
0.0081458
0.000274392
0.0081918
0.000270244
0.0082373
0.000266171
0.00828232
0.000262175
0.00832686
0.00025826
0.00837093
0.000254426
0.00841454
0.000250675
0.00845771
0.000247009
0.00850044
0.000243428
0.00854275
0.000239934
0.00858464
0.000236528
0.00862614
0.00023321
0.00866724
0.00022998
0.00870797
0.000226839
0.00874833
0.000223788
0.000220825
0.0051142
0.000324118
0.00519446
0.00032372
0.00527456
0.000322921
0.0053544
0.000321752
0.00543392
0.00032024
0.00551304
0.000318416
0.00559169
0.000316308
0.00566983
0.000313942
0.0057474
0.000311345
0.00582436
0.000308541
0.00590066
0.000305553
0.00597627
0.000302404
0.00605116
0.000299113
0.00612529
0.0002957
0.00619866
0.000292182
0.00627123
0.000288575
0.00634298
0.000284895
0.00641391
0.000281156
0.00648401
0.00027737
0.00655325
0.000273549
0.00662164
0.000269705
0.00668917
0.000265847
0.00675585
0.000261985
0.00682166
0.000258126
0.00688661
0.000254278
0.00695071
0.000250449
0.00701395
0.000246643
0.00707635
0.000242869
0.00713791
0.000239129
0.00719863
0.000235429
0.00725854
0.000231773
0.00731763
0.000228165
0.00737593
0.000224608
0.00743344
0.000221106
0.00749017
0.00021766
0.00754614
0.000214274
0.00760136
0.000210949
0.00765585
0.000207687
0.00770962
0.000204491
0.00776268
0.00020136
0.00781506
0.000198297
0.00786677
0.000195303
0.00791782
0.000192378
0.00796823
0.000189523
0.00801802
0.000186739
0.0080672
0.000184026
0.00811579
0.000181384
0.00816382
0.000178815
0.00821129
0.000176317
0.00017389
0.00396771
0.000226322
0.00406545
0.000226374
0.00416305
0.000226124
0.00426038
0.000225591
0.00435733
0.000224794
0.00445382
0.000223754
0.00454975
0.000222491
0.00464503
0.000221025
0.0047396
0.000219374
0.00483338
0.000217557
0.00492633
0.000215591
0.0050184
0.000213492
0.00510952
0.000211278
0.00519968
0.000208961
0.00528882
0.000206555
0.00537693
0.000204074
0.00546397
0.000201529
0.00554994
0.000198931
0.0056348
0.000196289
0.00571856
0.000193614
0.00580119
0.000190914
0.0058827
0.000188196
0.00596308
0.000185468
0.00604233
0.000182736
0.00612045
0.000180007
0.00619744
0.000177285
0.00627332
0.000174575
0.00634808
0.000171882
0.00642174
0.000169211
0.0064943
0.000166564
0.00656578
0.000163945
0.0066362
0.000161357
0.00670556
0.000158803
0.00677389
0.000156285
0.00684119
0.000153805
0.00690748
0.000151365
0.00697279
0.000148966
0.00703713
0.000146611
0.00710052
0.000144301
0.00716297
0.000142036
0.00722451
0.000139818
0.00728516
0.000137647
0.00734494
0.000135524
0.00740387
0.00013345
0.00746197
0.000131426
0.00751926
0.000129451
0.00757576
0.000127526
0.00763149
0.000125651
0.00768648
0.000123827
0.00774074
0.000122053
0.00317186
0.000116315
0.00328188
0.000116357
0.00339176
0.000116243
0.00350136
0.000115984
0.00361057
0.000115587
0.00371926
0.000115064
0.00382733
0.000114425
0.00393467
0.000113679
0.00404121
0.000112836
0.00414686
0.000111906
0.00425156
0.000110898
0.00435523
0.000109821
0.00445782
0.000108682
0.00455929
0.000107489
0.0046596
0.000106249
0.0047587
0.00010497
0.00485658
0.000103656
0.00495319
0.000102315
0.00504853
0.00010095
0.00514258
9.95675e-05
0.00523532
9.81713e-05
0.00532675
9.67657e-05
0.00541687
9.53543e-05
0.00550566
9.39406e-05
0.00559314
9.25277e-05
0.00567931
9.11184e-05
0.00576417
8.97154e-05
0.00584773
8.83209e-05
0.00593
8.69371e-05
0.006011
8.5566e-05
0.00609074
8.42091e-05
0.00616923
8.28682e-05
0.00624648
8.15445e-05
0.00632253
8.02394e-05
0.00639738
7.89538e-05
0.00647106
7.76889e-05
0.00654358
7.64456e-05
0.00661496
7.52244e-05
0.00668524
7.40262e-05
0.00675442
7.28516e-05