/*--------------------------------*- C++ -*----------------------------------*\
  =========                 |
  \\      /  F ield         | OpenFOAM: The Open Source CFD Toolbox
   \\    /   O peration     | Website:  https://openfoam.org
    \\  /    A nd           | Version:  7
     \\/     M anipulation  |
\*---------------------------------------------------------------------------*/
FoamFile
{
    version     2.0;
    format      ascii;
    class       volVectorField;
    location    "15";
    object      U;
}
// * * * * * * * * * * * * * * * * * * * * * * * * * * * * * * * * * * * * * //

dimensions      [0 1 -1 0 0 0 0];

internalField   nonuniform List<vector> 
1360
(
(1.21974 0.0023051 1.00226e-27)
(1.21647 0.00165095 -1.00226e-27)
(1.21382 0.0011403 0)
(1.2118 0.000738545 0)
(1.21044 0.000412937 1.06287e-27)
(1.20976 0.00013257 -1.0696e-27)
(0.958442 0.066628 0)
(1.05057 0.0598223 0)
(1.12297 0.0509079 3.34127e-11)
(1.17517 0.0420579 -3.34127e-11)
(1.20957 0.0340247 0)
(1.22995 0.0271827 0)
(1.24024 0.0215843 1.36837e-27)
(1.2438 0.0170996 -1.36837e-27)
(1.2432 0.0135385 -1.15857e-27)
(1.24026 0.0107114 1.15857e-27)
(1.23617 0.00845613 0)
(1.23167 0.00664548 0)
(1.22721 0.00518358 -2.50188e-11)
(1.22305 0.00399897 2.50188e-11)
(1.21933 0.00303698 0)
(1.21614 0.00225367 0)
(1.21355 0.00161141 2.33464e-11)
(1.21158 0.00107623 -2.33464e-11)
(1.21025 0.000616003 0)
(1.20959 0.000200334 0)
(0.95539 0.0669836 0)
(1.04653 0.0604751 0)
(1.11857 0.0518963 0)
(1.17094 0.0432879 0)
(1.20582 0.0353957 0)
(1.2268 0.0286102 0)
(1.23767 0.0230081 0)
(1.24174 0.0184802 0)
(1.24156 0.0148509 0)
(1.23895 0.0119396 0)
(1.23511 0.00958944 0)
(1.23081 0.00767616 0)
(1.22651 0.00610562 -4.96251e-11)
(1.22247 0.00480738 4.96251e-11)
(1.21885 0.00372763 0)
(1.21575 0.00282313 0)
(1.21322 0.00205696 4.64805e-11)
(1.21129 0.00139584 -4.64805e-11)
(1.21 0.000808294 -1.45733e-27)
(1.20935 0.000264519 1.46655e-27)
(0.952495 0.0672389 0)
(1.04265 0.0610117 0)
(1.11431 0.052755 0)
(1.1668 0.0443847 0)
(1.20213 0.0366375 0)
(1.22367 0.0299167 0)
(1.2351 0.0243203 0)
(1.23966 0.0197591 0)
(1.23988 0.0160713 0)
(1.23759 0.0130852 0)
(1.23401 0.0106492 0)
(1.2299 0.00864211 0)
(1.22575 0.0069714 -2.45893e-11)
(1.22184 0.00556776 2.45893e-11)
(1.21832 0.00437818 -9.8421e-28)
(1.2153 0.00336018 9.8421e-28)
(1.21283 0.00247758 4.62284e-11)
(1.21095 0.00169779 -4.62284e-11)
(1.20968 0.000990049 0)
(1.20904 0.000325204 0)
(0.949746 0.0674014 0)
(1.03894 0.061441 0)
(1.11018 0.0534932 0)
(1.16277 0.045357 0)
(1.19849 0.0377578 0)
(1.22056 0.0311086 0)
(1.23252 0.0255266 0)
(1.23756 0.0209411 0)
(1.23818 0.0172038 0)
(1.2362 0.0141516 0)
(1.23286 0.0116384 0)
(1.22895 0.00954567 0)
(1.22495 0.00778284 0)
(1.22116 0.00628163 0)
(1.21774 0.00498984 0)
(1.21479 0.00386574 0)
(1.21238 0.00287392 2.29695e-11)
(1.21054 0.00198252 -2.29695e-11)
(1.2093 0.00116153 0)
(1.20868 0.000382473 0)
(0.947137 0.0674781 0)
(1.03537 0.0617713 0)
(1.10619 0.0541198 0)
(1.15883 0.046213 0)
(1.1949 0.038764 0)
(1.21747 0.0321924 0)
(1.22994 0.0266325 0)
(1.23544 0.0220309 0)
(1.23644 0.0182523 0)
(1.23477 0.0151423 0)
(1.23167 0.0125597 0)
(1.22795 0.0103892 0)
(1.2241 0.00854192 -2.40969e-11)
(1.22042 0.00695057 2.40969e-11)
(1.2171 0.00556384 0)
(1.21423 0.00434077 0)
(1.21187 0.00324669 9.46751e-28)
(1.21008 0.00225053 -9.46751e-28)
(1.20887 0.00132302 1.03844e-27)
(1.20826 0.00043642 -1.04501e-27)
(0.94466 0.0674758 -3.15553e-27)
(1.03195 0.0620103 0)
(1.10233 0.0546429 -6.65815e-29)
(1.15498 0.0469608 -3.15179e-27)
(1.19138 0.0396631 5.54937e-11)
(1.21441 0.0331742 5.44225e-11)
(1.22737 0.0276433 5.33054e-11)
(1.23331 0.0230331 5.21749e-11)
(1.23468 0.019221 0)
(1.23331 0.0160606 0)
(1.23045 0.0134162 0)
(1.22691 0.0111753 0)
(1.22321 0.00925062 -2.38304e-11)
(1.21965 0.00757621 7.01797e-11)
(1.21641 0.00610149 3.10309e-19)
(1.21361 0.00478627 -4.50935e-11)
(1.21132 0.00359664 -9.39344e-28)
(1.20956 0.00250232 9.39344e-28)
(1.20838 0.00147482 0)
(1.20779 0.000487142 -2.21166e-27)
(0.942308 0.0674008 3.15551e-27)
(1.02866 0.0621652 0)
(1.0986 0.0550704 0)
(1.15123 0.0476077 3.21837e-27)
(1.18791 0.0404621 -5.54937e-11)
(1.21138 0.0340602 -5.44225e-11)
(1.2248 0.0285644 -5.33054e-11)
(1.23117 0.0239525 -5.21749e-11)
(1.23291 0.0201137 2.19388e-27)
(1.23183 0.01691 -2.19388e-27)
(1.22919 0.0142106 2.43985e-11)
(1.22584 0.0119061 -2.43985e-11)
(1.22228 0.00991098 -2.3552e-11)
(1.21883 0.0081602 -2.27973e-11)
(1.21568 0.00660411 4.20156e-28)
(1.21296 0.00520327 4.50935e-11)
(1.21071 0.00392455 1.93864e-27)
(1.209 0.00273843 -1.93864e-27)
(1.20785 0.00161724 -1.41178e-27)
(1.20727 0.000534743 3.63238e-27)
(0.940076 0.0672593 0)
(1.02551 0.0622429 0)
(1.09499 0.0554096 0)
(1.14758 0.0481611 0)
(1.18451 0.0411675 -4.6162e-28)
(1.20838 0.0348561 4.6162e-28)
(1.22225 0.0294007 0)
(1.22902 0.0247933 0)
(1.23111 0.0209343 0)
(1.23032 0.0176938 0)
(1.22791 0.014946 4.80858e-11)
(1.22473 0.0125843 -4.80858e-11)
(1.22131 0.010525 -4.65256e-11)
(1.21797 0.00870421 4.65256e-11)
(1.21491 0.00707305 -3.89027e-28)
(1.21225 0.00559284 3.89027e-28)
(1.21007 0.00423119 0)
(1.20839 0.0029594 0)
(1.20727 0.0017506 0)
(1.2067 0.000579327 0)
(0.937957 0.067057 0)
(1.02249 0.0622498 0)
(1.09149 0.0556673 -9.63327e-28)
(1.14401 0.0486275 9.63327e-28)
(1.18117 0.0417854 0)
(1.20541 0.0355674 0)
(1.2197 0.0301573 0)
(1.22688 0.0255599 0)
(1.22931 0.0216867 -5.88078e-28)
(1.22879 0.0184153 5.88078e-28)
(1.2266 0.015625 2.36805e-11)
(1.22359 0.0132122 -2.36805e-11)
(1.22031 0.0110947 -4.59279e-11)
(1.21708 0.00920992 4.59279e-11)
(1.21411 0.00750967 0)
(1.21151 0.00595603 0)
(1.20938 0.00451738 0)
(1.20774 0.0031658 0)
(1.20664 0.00187523 8.55807e-28)
(1.20608 0.000621006 -8.61225e-28)
(0.935946 0.0667993 0)
(1.01958 0.0621922 0)
(1.08811 0.0558502 0)
(1.14054 0.0490136 0)
(1.17789 0.0423218 0)
(1.20248 0.0361995 0)
(1.21717 0.0308388 0)
(1.22473 0.0262565 0)
(1.22749 0.0223744 4.13324e-28)
(1.22725 0.0190778 -4.13324e-28)
(1.22527 0.0162505 0)
(1.22243 0.0137921 0)
(1.21928 0.0116222 -2.26565e-11)
(1.21615 0.00967902 2.26565e-11)
(1.21326 0.00791533 0)
(1.21074 0.00629393 0)
(1.20865 0.00478394 2.17748e-11)
(1.20705 0.0033582 -2.17748e-11)
(1.20598 0.00199147 0)
(1.20543 0.000659889 0)
(0.934037 0.0664914 -6.18988e-28)
(1.01679 0.0620755 6.198e-28)
(1.08483 0.0559643 0)
(1.13716 0.0493252 0)
(1.17467 0.0427825 0)
(1.19959 0.0367576 0)
(1.21466 0.0314499 0)
(1.22259 0.0268872 0)
(1.22567 0.0230011 0)
(1.22569 0.0196843 0)
(1.22392 0.0168253 5.50455e-28)
(1.22125 0.0143266 -5.50455e-28)
(1.21822 0.0121094 -2.23413e-11)
(1.2152 0.0101132 2.23413e-11)
(1.21239 0.00829142 5.24627e-28)
(1.20993 0.00660764 -5.24627e-28)
(1.20789 0.00503168 2.15314e-11)
(1.20633 0.00353717 -2.15314e-11)
(1.20527 0.00209966 -8.38279e-28)
(1.20474 0.000696089 8.43586e-28)
(0.932226 0.0661382 4.29789e-28)
(1.01411 0.0619053 -4.30355e-28)
(1.08167 0.0560154 0)
(1.13386 0.0495683 0)
(1.17152 0.0431728 0)
(1.19674 0.0372465 0)
(1.21217 0.031995 0)
(1.22045 0.0274559 0)
(1.22384 0.0235703 -3.98052e-28)
(1.22412 0.0202379 3.98052e-28)
(1.22256 0.017352 0)
(1.22004 0.0148178 0)
(1.21714 0.0125583 -4.40389e-11)
(1.21422 0.0105141 4.40389e-11)
(1.21149 0.0086393 0)
(1.20909 0.00689823 0)
(1.2071 0.00526144 2.12781e-11)
(1.20557 0.00370329 -2.12781e-11)
(1.20453 0.00220014 0)
(1.20401 0.00072972 0)
(0.930508 0.0657443 -1.00758e-27)
(1.01154 0.0616866 1.00891e-27)
(1.0786 0.056009 0)
(1.13065 0.0497482 0)
(1.16843 0.043498 0)
(1.19393 0.0376711 0)
(1.2097 0.0324784 0)
(1.21832 0.0279664 0)
(1.22201 0.0240854 -2.27306e-11)
(1.22253 0.0207417 2.27306e-11)
(1.22118 0.0178332 0)
(1.21882 0.0152681 0)
(1.21604 0.0129709 -4.33833e-11)
(1.21321 0.0108833 4.33833e-11)
(1.21056 0.00896031 -8.83931e-28)
(1.20821 0.0071668 8.83931e-28)
(1.20627 0.00547404 4.20313e-11)
(1.20478 0.00385714 -4.20313e-11)
(1.20377 0.00229326 0)
(1.20326 0.000760896 0)
(0.928879 0.0653139 2.03464e-27)
(1.00907 0.061424 -2.03734e-27)
(1.07563 0.0559501 2.67848e-28)
(1.12752 0.0498702 -2.67848e-28)
(1.1654 0.0437628 0)
(1.19115 0.0380359 0)
(1.20725 0.032904 0)
(1.21619 0.0284225 0)
(1.22018 0.0245497 -2.22879e-11)
(1.22095 0.0211985 2.22879e-11)
(1.21978 0.0182716 0)
(1.21758 0.0156796 0)
(1.21492 0.0133491 -2.13588e-11)
(1.21218 0.0112226 2.13588e-11)
(1.2096 0.00925581 0)
(1.20732 0.0074144 0)
(1.20542 0.00567029 4.14899e-11)
(1.20396 0.00399929 -4.14899e-11)
(1.20297 0.00237935 1.31066e-27)
(1.20247 0.000789728 -1.31895e-27)
(0.927334 0.0648511 0)
(1.00669 0.0611221 0)
(1.07276 0.0558437 0)
(1.12447 0.049939 0)
(1.16243 0.0439721 9.38509e-28)
(1.18842 0.0383451 -9.38509e-28)
(1.20483 0.033276 -1.02558e-27)
(1.21408 0.0288276 1.02558e-27)
(1.21835 0.0249663 0)
(1.21935 0.0216113 0)
(1.21838 0.0186696 0)
(1.21632 0.0160547 0)
(1.21378 0.0136948 0)
(1.21114 0.0115334 0)
(1.20863 0.0095271 8.59134e-28)
(1.2064 0.0076421 -8.59134e-28)
(1.20454 0.005851 2.04669e-11)
(1.20311 0.00413033 -2.04669e-11)
(1.20214 0.00245875 -9.37331e-28)
(1.20165 0.000816331 9.43265e-28)
(0.925869 0.0643598 0)
(1.00441 0.0607851 0)
(1.06998 0.0556941 0)
(1.1215 0.0499593 0)
(1.15952 0.0441302 -1.90484e-27)
(1.18573 0.038603 1.90484e-27)
(1.20243 0.033598 2.17644e-11)
(1.21198 0.0291852 -2.17644e-11)
(1.21652 0.0253382 0)
(1.21775 0.0219826 0)
(1.21697 0.0190296 0)
(1.21506 0.0163954 0)
(1.21263 0.0140098 -2.06808e-11)
(1.21007 0.0118174 2.06808e-11)
(1.20763 0.00977549 0)
(1.20545 0.00785094 0)
(1.20364 0.00601698 0)
(1.20224 0.0042508 0)
(1.20129 0.00253181 0)
(1.20081 0.000840816 0)
(0.924481 0.0638434 0)
(1.00221 0.0604167 0)
(1.06728 0.0555057 4.91343e-29)
(1.11861 0.0499354 -4.91343e-29)
(1.15667 0.0442413 0)
(1.18308 0.0388133 0)
(1.20005 0.0338737 2.12717e-11)
(1.20989 0.0294985 -2.12717e-11)
(1.2147 0.0256686 0)
(1.21615 0.0223153 0)
(1.21555 0.019354 -8.57067e-28)
(1.21378 0.0167037 8.57067e-28)
(1.21146 0.0142959 -4.06742e-11)
(1.20899 0.012076 4.06742e-11)
(1.20662 0.0100022 0)
(1.20449 0.00804196 0)
(1.20271 0.006169 0)
(1.20134 0.00436126 0)
(1.20041 0.00259885 0)
(1.19994 0.000863292 0)
(0.923167 0.0633054 1.44009e-27)
(1.00011 0.0600206 3.05208e-27)
(1.06467 0.0552823 2.39572e-28)
(1.11579 0.0498714 -2.39572e-28)
(1.15388 0.0443095 0)
(1.18048 0.0389799 0)
(1.1977 0.0341064 1.32157e-27)
(1.20782 0.0297707 -1.32157e-27)
(1.21288 0.0259602 0)
(1.21455 0.0226118 0)
(1.21412 0.0196451 0)
(1.21249 0.0169817 0)
(1.21028 0.0145548 -3.99822e-11)
(1.2079 0.0123108 3.99822e-11)
(1.20559 0.0102086 -1.70759e-27)
(1.20351 0.00821614 1.70759e-27)
(1.20177 0.00630786 -1.69328e-27)
(1.20043 0.00446227 1.69328e-27)
(1.19951 0.0026602 3.82229e-11)
(1.19905 0.000883867 3.84238e-11)
(0.921922 0.0627487 -5.56956e-28)
(0.998078 0.0596003 -3.9364e-27)
(1.06215 0.0550278 0)
(1.11305 0.0497711 0)
(1.15115 0.0443383 0)
(1.17791 0.0391064 0)
(1.19538 0.0342995 -9.35468e-28)
(1.20576 0.0300048 9.35468e-28)
(1.21107 0.0262156 0)
(1.21295 0.0228746 0)
(1.21269 0.019905 0)
(1.2112 0.0172314 0)
(1.20909 0.0147883 -1.96434e-11)
(1.20679 0.0125233 1.96434e-11)
(1.20454 0.0103958 0)
(1.20251 0.00837447 0)
(1.20081 0.00643428 1.92955e-11)
(1.19949 0.00455436 -1.92955e-11)
(1.1986 0.00271617 -3.82229e-11)
(1.19814 0.000902648 -3.84238e-11)
(0.920744 0.0621763 -8.15353e-28)
(0.996128 0.059159 8.16453e-28)
(1.0597 0.0547456 -1.98456e-11)
(1.11038 0.0496381 1.98456e-11)
(1.14848 0.0443315 0)
(1.17539 0.039196 0)
(1.19309 0.0344562 9.13785e-28)
(1.20372 0.0302036 -9.13785e-28)
(1.20926 0.0264377 -8.17227e-28)
(1.21135 0.023106 8.17227e-28)
(1.21126 0.020136 0)
(1.2099 0.0174546 0)
(1.2079 0.0149979 -1.92944e-11)
(1.20567 0.0127147 1.92944e-11)
(1.20348 0.010565 0)
(1.2015 0.00851792 0)
(1.19984 0.00654903 3.79825e-11)
(1.19854 0.00463805 -3.79825e-11)
(1.19766 0.00276708 -8.71702e-28)
(1.19722 0.000919739 8.77221e-28)
(0.91963 0.0615909 1.64711e-27)
(0.994253 0.0586995 -1.64934e-27)
(1.05733 0.054439 -1.92984e-11)
(1.10777 0.0494758 1.92984e-11)
(1.14586 0.0442924 0)
(1.17291 0.039252 0)
(1.19083 0.0345793 0)
(1.2017 0.03037 0)
(1.20747 0.0266288 0)
(1.20976 0.0233084 0)
(1.20983 0.02034 0)
(1.20859 0.017653 0)
(1.20669 0.0151854 -1.89448e-11)
(1.20454 0.0128866 1.89448e-11)
(1.20241 0.0107174 1.62409e-27)
(1.20048 0.0086474 -1.62409e-27)
(1.19884 0.00665281 3.73674e-11)
(1.19758 0.00471385 -3.73674e-11)
(1.19671 0.00281324 1.18414e-27)
(1.19627 0.000935241 -1.19164e-27)
(0.918577 0.0609951 0)
(0.99245 0.0582247 0)
(1.05503 0.054111 -4.27259e-29)
(1.10524 0.0492874 4.27259e-29)
(1.1433 0.044224 0)
(1.17047 0.0392775 0)
(1.18859 0.0346718 0)
(1.19969 0.0305065 0)
(1.20568 0.0267914 7.8251e-28)
(1.20817 0.0234839 -7.8251e-28)
(1.20839 0.020519 0)
(1.20729 0.0178286 0)
(1.20548 0.0153521 0)
(1.2034 0.0130401 0)
(1.20133 0.010854 -7.66655e-28)
(1.19944 0.00876383 7.66655e-28)
(1.19784 0.00674632 1.83733e-11)
(1.1966 0.00478225 -1.83733e-11)
(1.19575 0.00285494 -8.44006e-28)
(1.19532 0.000949253 8.4935e-28)
(0.917582 0.060391 0)
(0.990716 0.0577372 0)
(1.0528 0.0537645 0)
(1.10276 0.0490759 0)
(1.14079 0.0441295 0)
(1.16807 0.0392752 0)
(1.18638 0.0347363 0)
(1.19771 0.0306156 0)
(1.20391 0.0269277 -1.84396e-11)
(1.20658 0.0236347 1.84396e-11)
(1.20696 0.0206749 0)
(1.20597 0.017983 0)
(1.20426 0.0154997 0)
(1.20226 0.0131767 0)
(1.20024 0.0109759 0)
(1.1984 0.00886808 0)
(1.19683 0.00683025 1.56064e-27)
(1.1956 0.00484375 -1.56064e-27)
(1.19477 0.00289247 0)
(1.19434 0.000961871 0)
(0.916643 0.059781 0)
(0.989047 0.0572392 0)
(1.05065 0.0534021 1.77457e-11)
(1.10035 0.048844 -1.77457e-11)
(1.13833 0.0440116 0)
(1.1657 0.039248 0)
(1.1842 0.0347755 0)
(1.19574 0.0306997 0)
(1.20215 0.02704 -1.80335e-11)
(1.205 0.0237626 1.80335e-11)
(1.20553 0.0208096 0)
(1.20466 0.0181177 0)
(1.20304 0.0156295 0)
(1.20111 0.0132975 0)
(1.19915 0.0110843 0)
(1.19734 0.008961 0)
(1.1958 0.00690525 -7.36668e-28)
(1.1946 0.00489881 7.36668e-28)
(1.19378 0.00292611 8.15803e-28)
(1.19336 0.000973188 -8.20968e-28)
(0.915758 0.0591669 0)
(0.987443 0.0567331 0)
(1.04855 0.0530262 1.72565e-11)
(1.098 0.0485944 -1.72565e-11)
(1.13592 0.0438729 0)
(1.16338 0.0391983 0)
(1.18205 0.0347916 0)
(1.19379 0.0307612 0)
(1.20039 0.0271304 0)
(1.20342 0.0238697 0)
(1.2041 0.0209246 0)
(1.20335 0.0182343 0)
(1.20182 0.0157429 0)
(1.19996 0.0134037 0)
(1.19805 0.01118 0)
(1.19628 0.00904341 0)
(1.19477 0.00697195 1.74307e-11)
(1.19359 0.00494788 -1.74307e-11)
(1.19278 0.00295613 0)
(1.19237 0.000983294 0)
(0.914923 0.0585506 0)
(0.985899 0.0562209 0)
(1.04652 0.0526393 1.91562e-28)
(1.09571 0.0483296 -1.91562e-28)
(1.13357 0.043716 0)
(1.1611 0.0391286 0)
(1.17992 0.0347871 0)
(1.19185 0.030802 0)
(1.19865 0.0272007 -1.48944e-27)
(1.20185 0.0239578 1.48944e-27)
(1.20267 0.0210218 0)
(1.20204 0.0183344 0)
(1.20059 0.0158412 0)
(1.1988 0.0134964 0)
(1.19694 0.011264 1.48237e-27)
(1.19521 0.00911609 -1.48237e-27)
(1.19373 0.00703097 3.42281e-11)
(1.19256 0.00499139 -3.42281e-11)
(1.19177 0.0029828 -1.08662e-27)
(1.19136 0.000992277 1.0935e-27)
(0.914138 0.0579339 0)
(0.984414 0.0557045 0)
(1.04456 0.0522435 0)
(1.09348 0.0480517 0)
(1.13126 0.0435431 0)
(1.15886 0.0390412 0)
(1.17783 0.0347641 0)
(1.18994 0.0308244 0)
(1.19692 0.0272531 0)
(1.20029 0.0240286 0)
(1.20125 0.0211027 0)
(1.20072 0.0184193 0)
(1.19937 0.0159256 -1.68565e-11)
(1.19764 0.0135768 1.68565e-11)
(1.19583 0.0113374 -6.9848e-28)
(1.19413 0.00917981 6.9848e-28)
(1.19268 0.0070829 1.6797e-11)
(1.19153 0.00502978 -1.6797e-11)
(1.19075 0.00300636 0)
(1.19035 0.00100022 0)
(0.9134 0.0573184 -1.33787e-27)
(0.982985 0.0551857 1.3397e-27)
(1.04265 0.0518406 -1.8115e-28)
(1.09131 0.047763 1.8115e-28)
(1.129 0.0433564 0)
(1.15665 0.0389382 0)
(1.17576 0.0347247 0)
(1.18805 0.0308301 0)
(1.19521 0.0272891 0)
(1.19873 0.0240837 0)
(1.19983 0.0211687 0)
(1.19941 0.0184905 0)
(1.19814 0.0159975 -3.30265e-11)
(1.19647 0.013646 3.30265e-11)
(1.19471 0.0114009 0)
(1.19305 0.0092353 0)
(1.19162 0.0071283 0)
(1.1905 0.00506345 0)
(1.18973 0.00302706 0)
(1.18933 0.00100721 0)
(0.912707 0.0567053 6.24061e-28)
(0.981611 0.054666 -6.24916e-28)
(1.04079 0.0514327 0)
(1.08918 0.0474654 0)
(1.12679 0.043158 0)
(1.15448 0.0388216 0)
(1.17372 0.0346707 0)
(1.18617 0.0308211 0)
(1.1935 0.0273106 -1.60824e-11)
(1.19719 0.0241247 1.60824e-11)
(1.19841 0.0212214 0)
(1.1981 0.0185491 0)
(1.19691 0.0160579 -3.23443e-11)
(1.19531 0.0137048 3.23443e-11)
(1.19359 0.0114555 0)
(1.19197 0.00928326 0)
(1.19056 0.00716773 6.70928e-28)
(1.18945 0.00509278 -6.70928e-28)
(1.18869 0.00304514 0)
(1.18831 0.00101332 0)
(0.912057 0.0560962 0)
(0.980289 0.0541471 0)
(1.039 0.0510214 -3.41653e-29)
(1.08711 0.0471609 3.41653e-29)
(1.12462 0.0429498 0)
(1.15235 0.0386934 0)
(1.1717 0.0346041 -7.16701e-28)
(1.18432 0.0307991 7.16701e-28)
(1.19181 0.0273192 -1.57088e-11)
(1.19565 0.0241532 1.57088e-11)
(1.197 0.0212621 6.55612e-28)
(1.19679 0.0185965 -6.55612e-28)
(1.19568 0.0161079 -1.58334e-11)
(1.19414 0.0137543 1.58334e-11)
(1.19247 0.0115018 1.5846e-11)
(1.19088 0.00932436 -1.5846e-11)
(1.1895 0.00720171 0)
(1.18841 0.00511815 0)
(1.18766 0.00306082 0)
(1.18728 0.00101862 0)
(0.91145 0.0554923 0)
(0.979017 0.0536303 0)
(1.03725 0.0506083 0)
(1.08509 0.046851 0)
(1.12249 0.0427336 0)
(1.15025 0.0385553 0)
(1.16972 0.0345265 1.51735e-11)
(1.18248 0.0307657 -1.51735e-11)
(1.19014 0.0273163 0)
(1.19412 0.0241706 0)
(1.1956 0.0212922 0)
(1.19549 0.0186339 0)
(1.19446 0.0161486 0)
(1.19297 0.0137954 0)
(1.19134 0.0115409 1.55219e-11)
(1.18979 0.00935925 -1.55219e-11)
(1.18843 0.00723074 0)
(1.18736 0.00513993 0)
(1.18662 0.00307431 0)
(1.18624 0.00102319 0)
(0.910882 0.0548946 0)
(0.977793 0.0531168 0)
(1.03556 0.0501948 3.23074e-29)
(1.08312 0.0465375 -3.23074e-29)
(1.12041 0.042511 0)
(1.14819 0.0384089 0)
(1.16776 0.0344395 1.47958e-11)
(1.18066 0.0307224 -1.47958e-11)
(1.18847 0.0273035 -6.21771e-28)
(1.19259 0.0241781 6.21771e-28)
(1.1942 0.0213127 0)
(1.19419 0.0186623 0)
(1.19323 0.016181 0)
(1.1918 0.0138289 0)
(1.19022 0.0115733 -6.30944e-28)
(1.18869 0.00938854 6.30944e-28)
(1.18736 0.0072553 1.52158e-11)
(1.1863 0.00515845 -1.52158e-11)
(1.18557 0.00308582 0)
(1.1852 0.00102709 0)
(0.910353 0.0543042 0)
(0.976616 0.052608 0)
(1.03392 0.0497824 0)
(1.0812 0.0462217 0)
(1.11837 0.0422836 0)
(1.14616 0.0382559 0)
(1.16582 0.0343448 0)
(1.17886 0.0306707 0)
(1.18682 0.027282 1.26348e-27)
(1.19108 0.0241771 -1.26348e-27)
(1.1928 0.021325 0)
(1.19289 0.0186828 0)
(1.19201 0.0162061 0)
(1.19064 0.0138558 0)
(1.18909 0.0115997 0)
(1.1876 0.00941281 0)
(1.18629 0.00727585 1.49025e-11)
(1.18524 0.00517404 -1.49025e-11)
(1.18452 0.00309555 9.48098e-28)
(1.18416 0.0010304 -9.541e-28)
(0.909862 0.053722 0)
(0.975485 0.0521048 0)
(1.03232 0.0493723 1.34176e-11)
(1.07932 0.0459052 -1.34176e-11)
(1.11638 0.0420528 0)
(1.14417 0.0380976 0)
(1.16391 0.0342437 0)
(1.17708 0.0306119 0)
(1.18518 0.0272533 -5.92395e-28)
(1.18957 0.0241688 5.92395e-28)
(1.19141 0.0213302 -5.98327e-28)
(1.19159 0.0186964 5.98327e-28)
(1.19078 0.0162247 -1.45056e-11)
(1.18947 0.0138768 1.45056e-11)
(1.18797 0.011621 0)
(1.1865 0.00943263 0)
(1.18521 0.00729283 -6.05672e-28)
(1.18418 0.00518702 6.05672e-28)
(1.18347 0.00310369 0)
(1.18311 0.00103318 0)
(0.909406 0.0531489 -1.08986e-27)
(0.974397 0.0516082 1.09135e-27)
(1.03078 0.0489656 1.30467e-11)
(1.07749 0.0455891 -1.30467e-11)
(1.11442 0.0418201 0)
(1.1422 0.0379355 0)
(1.16203 0.0341375 0)
(1.17532 0.0305475 0)
(1.18355 0.0272184 0)
(1.18808 0.0241542 0)
(1.19003 0.0213292 0)
(1.1903 0.0187041 0)
(1.18956 0.0162377 -2.83626e-11)
(1.1883 0.0138926 2.83626e-11)
(1.18684 0.0116376 0)
(1.1854 0.00944854 0)
(1.18413 0.00730665 1.42806e-11)
(1.18312 0.00519769 -1.42806e-11)
(1.18242 0.00311042 0)
(1.18206 0.00103548 0)
(0.908986 0.0525857 5.08505e-28)
(0.973351 0.0511192 -5.09204e-28)
(1.02927 0.0485635 2.88818e-29)
(1.0757 0.0452747 -2.88818e-29)
(1.1125 0.0415866 0)
(1.14027 0.0377709 0)
(1.16017 0.0340275 -6.15308e-28)
(1.17357 0.0304784 6.15308e-28)
(1.18194 0.0271787 5.63954e-28)
(1.18659 0.0241346 -5.63954e-28)
(1.18865 0.021323 0)
(1.18901 0.0187068 0)
(1.18835 0.016246 -1.38602e-11)
(1.18714 0.013904 1.38602e-11)
(1.18572 0.0116503 5.78297e-28)
(1.18431 0.00946102 -5.78297e-28)
(1.18305 0.00731771 2.79449e-11)
(1.18205 0.00520633 -2.79449e-11)
(1.18136 0.00311591 -6.44497e-28)
(1.18101 0.00103736 6.48578e-28)
(0.908599 0.0520331 -4.93886e-28)
(0.972345 0.0506385 4.94564e-28)
(1.02781 0.0481668 0)
(1.07395 0.0449631 0)
(1.11061 0.0413535 0)
(1.13837 0.0376048 0)
(1.15833 0.0339149 5.9955e-28)
(1.17185 0.030406 -5.9955e-28)
(1.18034 0.027135 -5.50079e-28)
(1.18511 0.0241108 5.50079e-28)
(1.18728 0.0213127 0)
(1.18773 0.0187053 0)
(1.18713 0.0162502 0)
(1.18597 0.0139116 0)
(1.18459 0.0116596 -5.65391e-28)
(1.18321 0.00947057 5.65391e-28)
(1.18198 0.00732638 2.73328e-11)
(1.18099 0.00521322 -2.73328e-11)
(1.1803 0.00312032 0)
(1.17995 0.00103888 0)
(0.908244 0.0514918 9.9852e-28)
(0.971379 0.050167 -9.99891e-28)
(1.0264 0.0477766 0)
(1.07225 0.0446552 0)
(1.10877 0.0411218 0)
(1.1365 0.0374385 0)
(1.15652 0.0338008 0)
(1.17014 0.0303312 0)
(1.17875 0.0270885 1.11666e-27)
(1.18364 0.0240839 -1.11666e-27)
(1.18591 0.021299 0)
(1.18644 0.0187005 0)
(1.18592 0.0162511 -1.32283e-11)
(1.18481 0.0139161 1.32283e-11)
(1.18346 0.011666 0)
(1.18211 0.00947764 0)
(1.1809 0.00733303 1.33626e-11)
(1.17992 0.0052186 -1.33626e-11)
(1.17924 0.00312381 0)
(1.1789 0.00104008 0)
(0.907921 0.0509623 0)
(0.970451 0.0497054 0)
(1.02502 0.0473935 -2.65409e-29)
(1.07058 0.044352 2.65409e-29)
(1.10696 0.0408927 0)
(1.13466 0.0372729 0)
(1.15473 0.0336861 0)
(1.16844 0.030255 0)
(1.17717 0.02704 -5.23012e-28)
(1.18217 0.0240547 5.23012e-28)
(1.18455 0.0212829 0)
(1.18517 0.0186931 0)
(1.1847 0.0162495 -2.58352e-11)
(1.18365 0.0139181 2.58352e-11)
(1.18234 0.0116702 0)
(1.18101 0.00948266 0)
(1.17982 0.00733799 0)
(1.17886 0.00522272 0)
(1.17819 0.00312652 6.02835e-28)
(1.17784 0.00104103 -6.06652e-28)
(0.907629 0.0504451 0)
(0.96956 0.0492542 0)
(1.02368 0.0470185 0)
(1.06895 0.0440544 0)
(1.10518 0.040667 0)
(1.13285 0.037109 0)
(1.15296 0.0335719 0)
(1.16677 0.0301784 0)
(1.17561 0.0269905 0)
(1.18072 0.024024 0)
(1.18319 0.021265 1.07775e-27)
(1.18389 0.0186838 -1.07775e-27)
(1.1835 0.0162458 -2.52209e-11)
(1.18249 0.0139181 2.52209e-11)
(1.18122 0.0116724 0)
(1.17991 0.00948604 0)
(1.17874 0.00734158 -1.10279e-27)
(1.17779 0.00522581 1.10279e-27)
(1.17713 0.00312859 -8.13161e-28)
(1.17679 0.00104176 8.18309e-28)
(0.907366 0.0499408 0)
(0.968705 0.048814 0)
(1.02238 0.0466521 0)
(1.06736 0.0437631 0)
(1.10344 0.0404455 0)
(1.13107 0.0369477 0)
(1.15122 0.033459 0)
(1.16511 0.0301021 0)
(1.17405 0.0269407 0)
(1.17927 0.0239927 0)
(1.18184 0.0212462 -5.04951e-28)
(1.18262 0.0186733 5.04951e-28)
(1.18229 0.0162409 -2.46138e-11)
(1.18133 0.0139168 2.46138e-11)
(1.18009 0.0116733 5.14942e-28)
(1.17882 0.00948816 -5.14942e-28)
(1.17766 0.0073441 1.24659e-11)
(1.17672 0.00522809 -1.24659e-11)
(1.17606 0.00313016 5.75573e-28)
(1.17573 0.00104231 -5.79217e-28)
(0.907132 0.0494497 -4.26675e-28)
(0.967885 0.0483854 4.27259e-28)
(1.02112 0.0462951 2.43727e-29)
(1.06581 0.0434788 -2.43727e-29)
(1.10172 0.0402291 0)
(1.12931 0.0367898 0)
(1.14949 0.0333482 0)
(1.16347 0.0300271 0)
(1.17251 0.0268915 0)
(1.17783 0.0239614 0)
(1.18049 0.021227 0)
(1.18136 0.0186622 0)
(1.18108 0.0162351 -2.4014e-11)
(1.18017 0.0139145 2.4014e-11)
(1.17897 0.0116733 -5.02642e-28)
(1.17772 0.00948938 5.02642e-28)
(1.17658 0.00734584 2.43445e-11)
(1.17565 0.00522976 -2.43445e-11)
(1.175 0.00313134 1.11257e-27)
(1.17467 0.00104274 1.19822e-27)
(0.906926 0.0489723 8.62413e-28)
(0.967098 0.0479688 -8.6359e-28)
(1.01989 0.0459479 1.18756e-28)
(1.06429 0.0432023 -1.18756e-28)
(1.10005 0.0400184 0)
(1.12758 0.036636 0)
(1.14779 0.0332403 0)
(1.16184 0.029954 0)
(1.17098 0.0268436 -1.1359e-11)
(1.1764 0.0239309 1.1359e-11)
(1.17915 0.0212081 0)
(1.18009 0.018651 0)
(1.17988 0.0162291 -1.17108e-11)
(1.17902 0.0139118 1.17108e-11)
(1.17785 0.0116727 0)
(1.17662 0.00949003 0)
(1.1755 0.00734706 2.37627e-11)
(1.17458 0.00523102 -2.37627e-11)
(1.17394 0.00313226 -1.11257e-27)
(1.17361 0.00104307 -1.19822e-27)
(0.906748 0.0485088 0)
(0.966343 0.0475646 0)
(1.0187 0.045611 0)
(1.06281 0.042934 0)
(1.0984 0.0398141 0)
(1.12587 0.036487 0)
(1.1461 0.0331359 0)
(1.16022 0.0298836 0)
(1.16946 0.0267976 -1.10617e-11)
(1.17498 0.0239017 1.10617e-11)
(1.17782 0.0211902 0)
(1.17883 0.0186405 0)
(1.17868 0.0162233 0)
(1.17786 0.0139091 0)
(1.17673 0.011672 0)
(1.17553 0.00949045 0)
(1.17442 0.00734801 1.15933e-11)
(1.17351 0.00523205 -1.15933e-11)
(1.17288 0.00313301 -5.3555e-28)
(1.17255 0.00104334 5.38941e-28)
(0.906596 0.0480595 0)
(0.965621 0.0471732 0)
(1.01755 0.045285 0)
(1.06135 0.0426746 0)
(1.09678 0.0396169 0)
(1.12419 0.0363435 0)
(1.14444 0.0330358 0)
(1.15862 0.0298164 0)
(1.16794 0.0267541 0)
(1.17356 0.0238745 0)
(1.17649 0.0211737 0)
(1.17758 0.0186309 0)
(1.17748 0.0162182 0)
(1.17671 0.0139069 0)
(1.17561 0.0116714 9.71138e-28)
(1.17443 0.00949092 -9.71138e-28)
(1.17334 0.00734893 9.77144e-28)
(1.17245 0.00523301 -9.77144e-28)
(1.17182 0.00313371 7.2111e-28)
(1.1715 0.0010436 -7.25676e-28)
(0.906469 0.0476248 9.13052e-12)
(0.96493 0.0467948 -9.14292e-12)
(1.01642 0.0449702 2.17177e-29)
(1.05993 0.0424246 -2.17177e-29)
(1.09519 0.0394272 0)
(1.12254 0.036206 0)
(1.1428 0.0329405 0)
(1.15704 0.0297531 0)
(1.16644 0.0267137 0)
(1.17215 0.0238497 0)
(1.17516 0.0211592 0)
(1.17632 0.0186229 0)
(1.17629 0.0162142 0)
(1.17556 0.0139054 0)
(1.17449 0.0116714 0)
(1.17334 0.00949172 0)
(1.17226 0.00735005 -4.57698e-28)
(1.17138 0.00523407 4.57698e-28)
(1.17076 0.00313446 -5.09492e-28)
(1.17044 0.00104387 5.12717e-28)
(0.906368 0.0472047 8.86104e-12)
(0.964268 0.0464298 -8.87305e-12)
(1.01533 0.044667 1.05753e-28)
(1.05854 0.0421843 -1.05753e-28)
(1.09363 0.0392455 0)
(1.12091 0.0360751 0)
(1.14117 0.0328505 0)
(1.15547 0.0296942 0)
(1.16495 0.0266769 8.81306e-28)
(1.17074 0.0238279 -8.81306e-28)
(1.17384 0.0211471 8.99155e-28)
(1.17507 0.0186168 -8.99155e-28)
(1.17509 0.0162118 0)
(1.17441 0.0139051 0)
(1.17337 0.0116723 -9.22416e-28)
(1.17224 0.00949312 9.22416e-28)
(1.17118 0.00735155 1.07468e-11)
(1.17031 0.00523537 -1.07468e-11)
(1.16969 0.00313533 0)
(1.16938 0.00104417 0)
(0.906292 0.0467996 0)
(0.963636 0.0460784 0)
(1.01427 0.0443758 8.99513e-12)
(1.05719 0.0419541 -8.99513e-12)
(1.09209 0.0390723 0)
(1.1193 0.0359512 0)
(1.13956 0.0327664 0)
(1.15391 0.0296401 0)
(1.16347 0.0266442 0)
(1.16935 0.0238095 0)
(1.17252 0.0211378 0)
(1.17382 0.0186131 0)
(1.1739 0.0162113 0)
(1.17326 0.0139063 0)
(1.17225 0.0116743 0)
(1.17115 0.00949535 0)
(1.1701 0.00735364 1.04705e-11)
(1.16924 0.00523705 -1.04705e-11)
(1.16863 0.00313642 4.83957e-28)
(1.16832 0.00104455 -4.87021e-28)
(0.860206 0.0731979 -1.64461e-19)
(0.858449 0.0732513 1.30532e-19)
(0.856814 0.0732185 1.1638e-20)
(0.855293 0.0731059 -2.64008e-19)
(0.853881 0.0729197 3.69234e-19)
(0.852572 0.072666 3.7795e-19)
(0.851361 0.0723504 -1.05742e-19)
(0.850243 0.0719786 -4.66851e-19)
(0.849214 0.0715556 6.05247e-19)
(0.848268 0.0710866 -3.02005e-19)
(0.847403 0.0705762 -3.75985e-20)
(0.846614 0.0700288 9.50159e-20)
(0.845897 0.0694488 -2.59332e-19)
(0.845249 0.06884 -1.32476e-19)
(0.844666 0.0682061 2.84627e-19)
(0.844145 0.0675506 -5.95208e-21)
(0.843683 0.0668767 -6.24448e-20)
(0.843277 0.0661875 1.07019e-19)
(0.842925 0.0654858 -1.10792e-19)
(0.842623 0.0647741 2.95531e-20)
(0.84237 0.0640549 1.49889e-19)
(0.842163 0.0633304 -4.43252e-20)
(0.841999 0.0626027 -1.35016e-19)
(0.841878 0.0618736 1.28128e-19)
(0.841797 0.0611451 -5.49921e-20)
(0.841753 0.0604186 6.23794e-20)
(0.841747 0.0596956 -3.77129e-20)
(0.841775 0.0589776 -1.25454e-19)
(0.841836 0.0582657 1.63079e-19)
(0.841929 0.0575611 -2.74819e-21)
(0.842053 0.0568649 -1.04257e-19)
(0.842206 0.0561779 7.89379e-20)
(0.842387 0.0555011 6.5174e-21)
(0.842596 0.0548352 -1.37337e-20)
(0.84283 0.0541809 -4.65786e-20)
(0.84309 0.0535389 5.43081e-20)
(0.843374 0.0529097 -2.07593e-21)
(0.843682 0.0522939 1.67212e-20)
(0.844012 0.0516918 -1.65937e-20)
(0.844365 0.051104 -1.77703e-20)
(0.844739 0.0505308 -2.20358e-20)
(0.845133 0.0499724 2.88514e-20)
(0.845548 0.0494291 3.96861e-21)
(0.845983 0.0489013 -4.16713e-20)
(0.846437 0.0483891 1.30193e-20)
(0.84691 0.0478926 -4.00157e-20)
(0.847402 0.047412 -6.89741e-21)
(0.847911 0.0469474 3.29901e-20)
(0.74617 0.0738481 4.71411e-19)
(0.746319 0.0737483 6.69105e-20)
(0.74653 0.0735728 -7.27715e-19)
(0.746801 0.0733277 6.74705e-19)
(0.747128 0.0730185 -4.32478e-20)
(0.747508 0.0726507 7.91258e-20)
(0.747941 0.0722296 -5.58448e-19)
(0.748422 0.0717602 2.98018e-19)
(0.748949 0.0712471 -1.99267e-19)
(0.749521 0.0706948 -1.91495e-19)
(0.750134 0.0701076 1.71119e-19)
(0.750787 0.0694895 1.85663e-19)
(0.751477 0.0688443 -1.22168e-19)
(0.752201 0.0681754 2.41906e-19)
(0.752959 0.0674862 -2.5946e-19)
(0.753748 0.0667797 3.82357e-20)
(0.754566 0.0660589 1.04121e-19)
(0.755411 0.0653264 -1.31519e-19)
(0.756282 0.0645848 1.86218e-19)
(0.757177 0.0638362 -4.55135e-20)
(0.758094 0.063083 -6.27631e-21)
(0.759032 0.0623269 -2.70748e-20)
(0.759991 0.0615699 -6.59069e-20)
(0.760967 0.0608136 2.82801e-20)
(0.761961 0.0600596 3.47715e-20)
(0.762971 0.0593094 7.07513e-20)
(0.763997 0.058564 7.90096e-21)
(0.765036 0.0578249 -1.48996e-19)
(0.766089 0.0570931 1.55066e-19)
(0.767154 0.0563695 -1.24301e-19)
(0.768231 0.055655 -4.14442e-20)
(0.76932 0.0549505 3.01423e-20)
(0.770418 0.0542568 -1.14488e-20)
(0.771527 0.0535744 6.70675e-20)
(0.772645 0.052904 -7.43065e-20)
(0.773772 0.0522461 2.91852e-21)
(0.774907 0.0516012 -2.78672e-22)
(0.776051 0.0509698 1.10678e-19)
(0.777203 0.0503522 -8.02681e-20)
(0.778362 0.0497488 1.53831e-20)
(0.779528 0.0491598 2.22802e-20)
(0.780702 0.0485856 1.25325e-20)
(0.781883 0.0480263 -8.22593e-20)
(0.78307 0.0474822 1.09192e-19)
(0.784265 0.0469534 -6.56622e-20)
(0.785466 0.04644 -3.92896e-20)
(0.786674 0.0459421 3.27598e-21)
(0.787888 0.0454599 8.24188e-20)
(0.789109 0.0449934 -1.8025e-20)
(0.622124 0.0711055 -1.11275e-20)
(0.624345 0.0709826 7.63979e-20)
(0.626576 0.0707848 -2.55254e-19)
(0.628817 0.0705183 5.36291e-20)