/*--------------------------------*- C++ -*----------------------------------*\
  =========                 |
  \\      /  F ield         | OpenFOAM: The Open Source CFD Toolbox
   \\    /   O peration     | Website:  https://openfoam.org
    \\  /    A nd           | Version:  7
     \\/     M anipulation  |
\*---------------------------------------------------------------------------*/
FoamFile
{
    version     2.0;
    format      ascii;
    class       volScalarField;
    location    "50";
    object      p;
}
// * * * * * * * * * * * * * * * * * * * * * * * * * * * * * * * * * * * * * //

dimensions      [0 2 -2 0 0 0 0];

internalField   nonuniform List<scalar> 
3500
(
-0.231607
-0.235211
0.630222
0.594524
0.554993
0.630222
0.594524
0.554993
0.508399
0.462697
0.419681
0.380501
0.345392
0.314344
0.286998
0.613345
0.580615
0.543779
0.499293
0.455231
0.413492
0.375283
0.340915
0.310554
0.284067
0.580182
0.553217
0.521679
0.481336
0.440495
0.401272
0.364978
0.332066
0.303037
0.278182
0.531894
0.513151
0.489341
0.455028
0.418876
0.383324
0.349841
0.319057
0.291923
0.269337
0.470146
0.461637
0.447732
0.421106
0.390941
0.360106
0.330257
0.302202
0.277407
0.257569
0.39696
0.400352
0.398117
0.380519
0.357414
0.332174
0.306678
0.281873
0.259736
0.242983
0.314481
0.331468
0.341985
0.334373
0.319135
0.300192
0.279692
0.258618
0.239299
0.225753
0.225538
0.25714
0.280919
0.283913
0.277084
0.26493
0.249924
0.232975
0.216432
0.205955
0.133365
0.179579
0.216561
0.230433
0.232255
0.227108
0.217923
0.205587
0.191954
0.183902
0.0413064
0.101017
0.1506
0.175272
0.185725
0.187598
0.184396
0.177198
0.166905
0.15926
-0.0472795
0.0235616
0.084736
0.119751
0.138547
0.147211
0.149765
0.147863
0.14209
0.133458
-0.129265
-0.0511649
0.0206378
0.065115
0.0917162
0.106795
0.114725
0.117941
0.117396
0.112598
-0.201155
-0.121898
-0.0401323
0.0124704
0.0461583
0.0671564
0.0800134
0.0878345
0.0922914
0.0920372
-0.262473
-0.184984
-0.0964475
-0.0371747
0.00270756
0.0289521
0.0461969
0.0578199
0.0661955
0.0700105
-0.312676
-0.238257
-0.14758
-0.0828268
-0.037924
-0.00730411
0.0137302
0.0283595
0.0396059
0.0467755
-0.351327
-0.281831
-0.192141
-0.123808
-0.0751919
-0.0411693
-0.016974
3.97301e-05
0.01339
0.0233298
-0.378655
-0.315665
-0.22912
-0.159867
-0.108935
-0.0722452
-0.0456148
-0.0266171
-0.0117743
0.000407213
-0.395595
-0.339633
-0.258428
-0.190466
-0.138773
-0.100529
-0.072146
-0.0512851
-0.0353819
-0.0217892
-0.4035
-0.353864
-0.280298
-0.215476
-0.164438
-0.125708
-0.0963258
-0.0741252
-0.0571909
-0.043261
-0.403762
-0.35887
-0.295051
-0.235107
-0.18596
-0.147663
-0.118019
-0.0951049
-0.0774044
-0.0629317
-0.397551
-0.355712
-0.303206
-0.24972
-0.203552
-0.166496
-0.137255
-0.114178
-0.0959952
-0.0807876
-0.385846
-0.34631
-0.305634
-0.259742
-0.217479
-0.182441
-0.154193
-0.131388
-0.113056
-0.0973877
-0.369768
-0.333314
-0.303513
-0.265567
-0.228058
-0.195797
-0.169081
-0.14693
-0.128749
-0.113126
-0.350987
-0.319616
-0.297728
-0.267594
-0.235668
-0.20691
-0.182204
-0.161042
-0.143271
-0.128041
-0.331676
-0.306884
-0.289387
-0.266516
-0.24077
-0.216094
-0.193849
-0.174005
-0.156743
-0.142124
-0.313864
-0.295303
-0.280373
-0.263472
-0.243853
-0.223647
-0.204228
-0.186051
-0.169468
-0.155361
-0.298733
-0.284819
-0.272403
-0.259715
-0.24544
-0.229756
-0.213537
-0.197394
-0.181586
-0.168099
-0.286309
-0.275775
-0.265962
-0.256168
-0.246049
-0.234644
-0.221755
-0.208191
-0.193489
-0.180348
-0.276327
-0.268432
-0.260804
-0.253267
-0.246178
-0.238424
-0.228987
-0.21824
-0.205177
-0.193126
-0.268381
-0.262649
-0.256747
-0.251082
-0.246179
-0.241251
-0.235007
-0.227582
-0.216315
-0.20636
-0.262002
-0.258099
-0.253652
-0.249532
-0.24624
-0.243325
-0.239925
-0.234778
-0.227713
-0.220767
-0.256743
-0.254401
-0.251238
-0.248473
-0.246451
-0.244747
-0.244241
-0.238789
-0.238136
-0.231702
-0.252241
-0.25118
-0.249162
-0.247603
-0.246698
-0.245592
-0.24794
-0.239491
-0.247177
-0.23757
-0.248175
-0.248157
-0.247167
-0.24663
-0.246666
-0.246006
-0.250058
-0.239782
-0.253818
-0.238221
-0.244345
-0.245243
-0.245088
-0.245366
-0.246141
-0.245935
-0.250339
-0.241343
-0.255794
-0.23767
-0.24073
-0.242445
-0.242919
-0.243797
-0.244947
-0.245523
-0.249453
-0.242725
-0.253905
-0.238972
-0.237442
-0.239863
-0.24078
-0.242042
-0.243449
-0.244714
-0.247142
-0.244101
-0.250865
-0.240365
-0.234679
-0.23767
-0.238876
-0.240366
-0.241954
-0.243504
-0.245091
-0.244392
-0.247277
-0.241733
-0.232669
-0.236063
-0.23744
-0.239053
-0.240737
-0.242344
-0.24364
-0.243932
-0.244935
-0.241948
-0.231607
-0.235211
-0.236667
-0.238332
-0.240054
-0.241661
-0.242889
-0.243464
-0.24383
-0.241866
0.265854
0.249251
0.234632
0.221925
0.21069
0.200843
0.192115
0.184415
0.177567
0.171495
0.16608
0.161257
0.156937
0.153064
0.149587
0.146493
0.143739
0.141293
0.139123
0.137205
0.135518
0.134043
0.132766
0.131673
0.130752
0.129996
0.129397
0.128951
0.128658
0.128514
0.263716
0.24758
0.233247
0.220782
0.20973
0.200041
0.191435
0.183837
0.17707
0.171065
0.165702
0.160923
0.156641
0.152807
0.149365
0.146288
0.143545
0.14111
0.13895
0.137041
0.135361
0.133893
0.132621
0.131532
0.130616
0.129864
0.129267
0.128822
0.128528
0.128383
0.259377
0.244199
0.230464
0.218505
0.207826
0.198455
0.190091
0.182697
0.176089
0.170215
0.164956
0.160264
0.156059
0.152296
0.148912
0.145868
0.143155
0.140746
0.138606
0.136715
0.13505
0.133595
0.132334
0.131254
0.130346
0.1296
0.129008
0.128566
0.12827
0.128123
0.252777
0.239087
0.226292
0.215122
0.205013
0.19612
0.188117
0.181024
0.174649
0.168968
0.163862
0.159297
0.155196
0.151529
0.148233
0.145264
0.142591
0.140212
0.138101
0.136235
0.134591
0.133154
0.131908
0.130842
0.129946
0.129209
0.128625
0.128185
0.127887
0.127738
0.243871
0.232209
0.220701
0.210621
0.201284
0.193041
0.185521
0.17883
0.172763
0.167338
0.162432
0.158033
0.154066
0.150513
0.147322
0.144457
0.141852
0.139518
0.137444
0.135609
0.133992
0.132578
0.131352
0.130303
0.129421
0.128698
0.128122
0.127686
0.127386
0.127234
0.232675
0.223603
0.213753
0.205087
0.196728
0.189303
0.182377
0.176179
0.170485
0.16537
0.160706
0.156509
0.152701
0.149277
0.146194
0.143437
0.140954
0.138688
0.136642
0.134847
0.133263
0.131876
0.130673
0.129645
0.12878
0.128071
0.127507
0.127076
0.126773
0.126618
0.219221
0.213273
0.205386
0.198424
0.191237
0.184804
0.178603
0.173008
0.167771
0.163032
0.158663
0.154709
0.151095
0.147831
0.144871
0.142211
0.139822
0.137685
0.135747
0.133976
0.132413
0.131064
0.129888
0.128877
0.12803
0.127338
0.126786
0.126361
0.126057
0.125901
0.203497
0.201241
0.195731
0.190876
0.185109
0.179851
0.174476
0.169556
0.164818
0.16049
0.156435
0.152741
0.149334
0.146241
0.143418
0.140868
0.13856
0.13649
0.134639
0.132995
0.13151
0.130165
0.128979
0.127999
0.127183
0.12651
0.125969
0.12555
0.125248
0.125091
0.185839
0.187669
0.184763
0.182104
0.177875
0.173898
0.169489
0.165364
0.161241
0.157418
0.153762
0.150397
0.147254
0.14438
0.141734
0.139331
0.137142
0.135167
0.133386
0.131796
0.130381
0.129141
0.128061
0.127098
0.126272
0.125593
0.125062
0.124655
0.124357
0.124203
0.165238
0.172032
0.17234
0.172698
0.170476
0.168163
0.164815
0.161569
0.158034
0.154699
0.151386
0.148306
0.145371
0.142671
0.140158
0.137866
0.135765
0.133865
0.132145
0.130601
0.129221
0.128007
0.126949
0.126037
0.125261
0.124621
0.124098
0.123688
0.123395
0.12325
0.139118
0.15067
0.156121
0.158656
0.158797
0.15798
0.156205
0.154096
0.151631
0.149119
0.146541
0.144048
0.141626
0.139346
0.137195
0.135205
0.133363
0.131682
0.13015
0.128768
0.127526
0.126425
0.125458
0.124623
0.123918
0.123337
0.122866
0.122503
0.122253
0.122127
0.123181
0.132478
0.139563
0.143732
0.145909
0.146602
0.14631
0.145385
0.144012
0.142401
0.140628
0.138812
0.136984
0.135209
0.133498
0.131884
0.130368
0.128966
0.127676
0.126502
0.12544
0.124491
0.123652
0.122924
0.122305
0.121792
0.12138
0.121068
0.120859
0.120756
0.110019
0.118609
0.125739
0.13068
0.134048
0.135915
0.136793
0.136886
0.136464
0.13567
0.134639
0.133461
0.132202
0.130918
0.12964
0.1284
0.127212
0.126094
0.12505
0.12409
0.123213
0.122425
0.121723
0.121109
0.120584
0.120146
0.119794
0.119531
0.119356
0.119271
0.0985533
0.10689
0.113995
0.119376
0.123412
0.12612
0.127877
0.128814
0.12919
0.129117
0.128745
0.12815
0.127417
0.126593
0.125726
0.124846
0.123976
0.123134
0.122334
0.121584
0.120892
0.120262
0.119697
0.1192
0.118771
0.118411
0.118122
0.117906
0.117764
0.117694
0.0886523
0.0967464
0.103824
0.109483
0.113942
0.117236
0.119637
0.121246
0.122274
0.122819
0.12302
0.122949
0.12269
0.122293
0.121809
0.121268
0.120701
0.120126
0.119561
0.119018
0.118506
0.118032
0.117602
0.117219
0.116886
0.116605
0.116379
0.116209
0.116097
0.116042
0.0801266
0.0879491
0.0949459
0.100752
0.105493
0.109199
0.112075
0.114207
0.115762
0.116824
0.117516
0.117905
0.118071
0.118062
0.117929
0.117704
0.117421
0.1171
0.11676
0.116415
0.116078
0.115756
0.115457
0.115186
0.114947
0.114744
0.114578
0.114454
0.114372
0.114332
0.0727609
0.0803127
0.0871789
0.0930272
0.0979433
0.101936
0.105165
0.107699
0.109675
0.111165
0.112272
0.113059
0.113598
0.113936
0.114122
0.114189
0.114169
0.114084
0.113957
0.113801
0.11363
0.113455
0.113282
0.11312
0.112972
0.112844
0.112738
0.112657
0.112604
0.112577
0.0663743
0.0736646
0.0803691
0.0861898
0.0911969
0.0953797
0.0988667
0.101708
0.104018
0.105856
0.107311
0.108438
0.109302
0.109947
0.110419
0.110749
0.110971
0.111106
0.111176
0.111198
0.111185
0.111147
0.111096
0.111037
0.110977
0.110921
0.110872
0.110833
0.110807
0.110794
0.060823
0.0678587
0.0743832
0.0801321
0.0851683
0.0894676
0.0931371
0.0962095
0.0987818
0.100901
0.102645
0.10406
0.105204
0.106117
0.106842
0.10741
0.10785
0.108186
0.108439
0.108625
0.108759
0.108853
0.108915
0.108955
0.108978
0.10899
0.108996
0.108997
0.108998
0.108997
0.0559894
0.0627759
0.0691101
0.0747585
0.0797799
0.0841414
0.0879339
0.0911767
0.0939523
0.0962966
0.0982777
0.0999335
0.101317
0.102463
0.103411
0.104189
0.104826
0.105344
0.105764
0.106102
0.106372
0.106587
0.106756
0.106888
0.10699
0.107066
0.107123
0.107163
0.107188
0.1072
0.0517744
0.0583181
0.0644569
0.0699866
0.0749623
0.0793459
0.0832155
0.0865801
0.0895104
0.0920328
0.0942067
0.0960632
0.0976497
0.0989956
0.100138
0.101101
0.101914
0.102595
0.103166
0.103642
0.104038
0.104365
0.104633
0.104851
0.105025
0.105163
0.105267
0.105343
0.105391
0.105414
0.0480938
0.0544027
0.0603459
0.0657457
0.0706542
0.0750305
0.0789421
0.0823902
0.0854355
0.0880971
0.0904262
0.0924481
0.0942049
0.0957216
0.0970318
0.0981577
0.0991252
0.0999527
0.10066
0.101261
0.10177
0.1022
0.102559
0.102856
0.103098
0.103292
0.103441
0.103549
0.10362
0.103653
0.0448757
0.0509594
0.0567103
0.0619748
0.0668018
0.0711495
0.0750763
0.0785779
0.0817063
0.0844746
0.0869273
0.0890845
0.0909831
0.0926446
0.094099
0.0953661
0.0964696
0.0974263
0.0982547
0.0989682
0.0995808
0.100103
0.100545
0.100915
0.10122
0.101465
0.101655
0.101794
0.101885
0.101928
0.042059
0.0479283
0.0534933
0.0586211
0.0633577
0.0676618
0.0715836
0.0751153
0.0783013
0.08115
0.0836997
0.0859663
0.0879822
0.0897655
0.0913429
0.0927319
0.0939539
0.0950244
0.0959602
0.0967742
0.0974793
0.0980856
0.0986028
0.0990387
0.0994003
0.0996929
0.0999211
0.100088
0.100197
0.100249
0.0395917
0.0452586
0.0506458
0.0556388
0.0602804
0.0645306
0.0684328
0.0719766
0.0751999
0.0781074
0.0807322
0.0830865
0.0851985
0.0870835
0.0887651
0.0902585
0.0915833
0.0927531
0.0937837
0.0946866
0.0954742
0.0961558
0.0967407
0.0972363
0.0976493
0.097985
0.0982475
0.0984401
0.0985655
0.0986263
0.0374296
0.0429068
0.0481257
0.052988
0.0575332
0.0617232
0.0655954
0.0691377
0.0723823
0.0753314
0.078013
0.0804367
0.0826268
0.0845961
0.0863654
0.0879479
0.0893611
0.0906173
0.0917307
0.0927121
0.0935727
0.0943214
0.0949668
0.095516
0.0959754
0.0963498
0.0966434
0.0968592
0.0969999
0.0970681
0.0355352
0.0408358
0.045897
0.0506344
0.0550843
0.0592106
0.0630458
0.0665765
0.0698303
0.072807
0.0755308
0.0780086
0.0802616
0.0823002
0.0841428
0.0858007
0.0872896
0.0886203
0.0898058
0.0908559
0.0917808
0.0925888
0.0932881
0.0938851
0.0943859
0.0947951
0.0951166
0.0953533
0.0955076
0.0955825
0.0338765
0.039014
0.0439286
0.0485481
0.0529056
0.0569673
0.060761
0.0642731
0.0675267
0.0705203
0.0732742
0.0757936
0.0780966
0.0801918
0.0820952
0.0838166
0.0853698
0.0867646
0.0880125
0.0891223
0.0901036
0.0909638
0.0917105
0.0923499
0.0928875
0.0933277
0.0936741
0.0939294
0.094096
0.0941769
0.0324265
0.0374142
0.0421939
0.0467034
0.0509727
0.0549707
0.0587208
0.0622094
0.0654562
0.0684582
0.0712327
0.0737835
0.0761258
0.0782668
0.0802202
0.0819947
0.0836023
0.0850517
0.0863532
0.0875147
0.088545
0.0894508
0.0902392
0.0909159
0.091486
0.0919536
0.0923221
0.0925939
0.0927713
0.0928575
0.0311621
0.0360137
0.04067
0.045078
0.0492646
0.0532009
0.056907
0.0603694
0.0636045
0.0666086
0.0693964
0.0719701
0.0743429
0.0765206
0.078515
0.0803336
0.0819869
0.0834826
0.0848298
0.0860358
0.0871084
0.0880538
0.0888786
0.0895878
0.0901864
0.0906781
0.091066
0.0913523
0.0915394
0.0916303
0.0300638
0.0347927
0.0393375
0.0436528
0.0477628
0.0516407
0.0553037
0.0587386
0.061959
0.0649607
0.067756
0.0703461
0.0727422
0.0749489
0.0769767
0.0788316
0.080523
0.0820576
0.0834436
0.0846876
0.0857965
0.0867761
0.0876322
0.0883697
0.0889931
0.0895059
0.0899107
0.0902097
0.0904052
0.0905002
0.0291153
0.0337346
0.0381796
0.0424114
0.0464514
0.0502752
0.0538971
0.0573044
0.0605085
0.0635047
0.0663031
0.0689044
0.0713181
0.0735477
0.0756021
0.0774867
0.0792096
0.0807768
0.0821955
0.0834716
0.0846114
0.0856202
0.0865033
0.0872651
0.0879099
0.0884408
0.0888603
0.0891703
0.089373
0.0894716
0.0283028
0.0328256
0.0371823
0.0413397
0.045317
0.0490914
0.0526751
0.0560558
0.059243
0.0622317
0.0650304
0.067639
0.0700654
0.0723127
0.0743884
0.0762971
0.0780459
0.07964
0.081086
0.0823891
0.0835549
0.0845884
0.0854943
0.0862769
0.0869399
0.0874863
0.0879184
0.0882378
0.0884468
0.0885484
0.0276148
0.0320537
0.0363336
0.040426
0.0443478
0.0480783
0.0516273
0.0549833
0.0581539
0.0611342
0.063931
0.066544
0.0689797
0.0712405
0.073333
0.0752609
0.0770307
0.0786469
0.0801153
0.0814407
0.0826283
0.0836823
0.0846075
0.0854074
0.0860858
0.0866453
0.087088
0.0874155
0.0876297
0.0877339
0.0270418
0.0314093
0.0356237
0.0396604
0.0435343
0.0472264
0.0507448
0.0540785
0.0572338
0.0602055
0.0629994
0.0656146
0.0680568
0.0703278
0.0724332
0.0743764
0.0761629
0.0777969
0.0792836
0.0806272
0.0818325
0.0829035
0.0838445
0.0846588
0.08535
0.0859203
0.0863718
0.0867059
0.0869245
0.0870308
0.0265761
0.0308844
0.0350444
0.0390346
0.0428684
0.0465281
0.0500204
0.0533348
0.0564763
0.05944
0.0622304
0.0648466
0.0672932
0.0695716
0.0716869
0.0736419
0.0754415
0.0770895
0.0785907
0.0799488
0.0811684
0.082253
0.0832067
0.0840327
0.0847341
0.0853132
0.0857719
0.0861113
0.0863335
0.0864415
0.0262116
0.0304727
0.0345892
0.038542
0.0423435
0.0459769
0.0494479
0.0527464
0.0558765
0.0588331
0.0616202
0.0642364
0.0666859
0.0689697
0.0710922
0.073056
0.0748656
0.0765243
0.0780366
0.0794059
0.0806365
0.0817317
0.0826953
0.0835303
0.0842397
0.0848257
0.0852899
0.0856336
0.0858585
0.0859679
0.025944
0.0301696
0.034253
0.0381775
0.0419545
0.0455679
0.0490227
0.0523089
0.0554301
0.0583811
0.0611653
0.0637812
0.0662324
0.0685199
0.0706475
0.0726176
0.0744344
0.0761008
0.0776211
0.0789987
0.0802372
0.0813402
0.082311
0.0831527
0.083868
0.084459
0.0849273
0.0852741
0.085501
0.0856115
0.0257706
0.0299713
0.0340317
0.0379369
0.0416972
0.0452973
0.0487411
0.0520191
0.0551341
0.0580812
0.0608633
0.0634789
0.0659312
0.0682209
0.0703517
0.0723259
0.0741472
0.0758187
0.0773443
0.0787271
0.0799709
0.0810789
0.0820545
0.0829005
0.0836197
0.0842141
0.0846851
0.0850338
0.0852621
0.0853733
0.0256884
0.0298739
0.0339218
0.0378174
0.0415692
0.0451626
0.0486009
0.0518748
0.0549867
0.0579318
0.0607128
0.0633281
0.0657808
0.0680716
0.0702041
0.0721802
0.0740038
0.0756777
0.0772059
0.0785913
0.0798377
0.0809483
0.0819262
0.0827744
0.0834955
0.0840915
0.0845638
0.0849135
0.0851425
0.0852541
0.124368
0.11324
0.101709
0.0910591
0.0816387
0.0734191
0.0662766
0.0600799
0.0547069
0.0500478
0.0460055
0.0424955
0.0394448
0.0367911
0.034481
0.0324691
0.0307165
0.0291906
0.0278634
0.0267114
0.0257149
0.024857
0.024124
0.0235042
0.0229883
0.0225685
0.0222387
0.0219942
0.0218332
0.0217591
0.105173
0.0947759
0.085628
0.0770596
0.0693377
0.0624704
0.0564214
0.051129
0.0465163
0.0425039
0.0390165
0.0359859
0.0333519
0.031062
0.0290708
0.0273389
0.0258326
0.024523
0.0233853
0.0223988
0.0215456
0.0208108
0.020182
0.0196487
0.0192026
0.0188368
0.0185459
0.0183252
0.0181729
0.0180984
0.0843056
0.0728309
0.0649602
0.057993
0.0521261
0.0470438
0.0426279
0.0387864
0.0354426
0.0325305
0.0299924
0.027778
0.0258448
0.0241565
0.0226816
0.0213931
0.0202677
0.0192852
0.0184282
0.0176819
0.0170336
0.0164726
0.0159898
0.0155774
0.0152293
0.0149405
0.0147071
0.0145252
0.0143918
0.014318
0.0642473
0.0535685
0.0469188
0.0409265
0.0362748
0.0324557
0.0293014
0.0266576
0.0244167
0.0225004
0.0208492
0.0194174
0.0181699
0.0170798
0.0161251
0.0152879
0.014553
0.0139077
0.0133411
0.0128443
0.0124094
0.0120298
0.0117
0.0114151
0.0111711
0.0109649
0.0107942
0.0106566
0.0105468
0.0104728
0.0437437
0.0354738
0.0310593
0.0264542
0.0230065
0.0202037
0.0179842
0.0162033
0.014758
0.0135696
0.0125793
0.0117428
0.0110277
0.010412
0.00987855
0.0094142
0.00900779
0.00865067
0.00833604
0.00805844
0.00781337
0.0075971
0.0074065
0.0072389
0.00709199
0.00696383
0.00685332
0.0067593
0.00667533
0.00660279
0.0227436
0.0170929
0.0152977
0.0126066
0.0107688
0.00917764
0.00793682
0.0069597
0.00619582
0.00559763
0.00512656
0.00475073
0.004445
0.00419508
0.00399145
0.00382329
0.00368159
0.0035603
0.00345497
0.00336224
0.00327958
0.00320495
0.00313676
0.00307364
0.00301441
0.00295785
0.00290338
0.00285116
0.00279507
0.00272819
0.00203186
-0.00114292
-0.000645363
-0.00144722
-0.00155684
-0.00179035
-0.00192497
-0.00201579
-0.0020556
-0.00205259
-0.0020155
-0.00195459
-0.00188396
-0.00180561
-0.00171328
-0.00161765
-0.00152421
-0.00143574
-0.0013542
-0.00128089
-0.00121669
-0.00116221
-0.00111789
-0.00108407
-0.0010611
-0.00104956
-0.0010499
-0.00106087
-0.00108639
-0.00114233
-0.0178643
-0.018419
-0.0160823
-0.0152835
-0.013902
-0.0128795
-0.0119266
-0.0111099
-0.010389
-0.00974818
-0.00917282
-0.0086515
-0.00819052
-0.0077795
-0.00738451
-0.00702487
-0.00669892
-0.00640471
-0.00614087
-0.00590613
-0.00569933
-0.00551943
-0.00536558
-0.00523707
-0.00513337
-0.00505429
-0.00500013
-0.00496921
-0.00496156
-0.00500113
-0.0368071
-0.0343533
-0.0307048
-0.0283263
-0.025765
-0.0236727
-0.0217914
-0.0201638
-0.018735
-0.0174795
-0.0163723
-0.0153867
-0.0145243
-0.0137691
-0.0130609
-0.0124329
-0.0118706
-0.0113681
-0.0109203
-0.0105231
-0.0101732
-0.00986753
-0.0096039
-0.00938039
-0.00919547
-0.00904807
-0.00893799
-0.00886393
-0.00882215
-0.00883892
-0.0545806
-0.0496049
-0.0447095
-0.0407652
-0.0371449
-0.03407
-0.0313716
-0.0290152
-0.0269432
-0.0251197
-0.0235127
-0.0220882
-0.0208201
-0.0196931
-0.0186887
-0.0177991
-0.0170058
-0.0162983
-0.015669
-0.0151112
-0.0146194
-0.014189
-0.0138163
-0.0134982
-0.0132323
-0.0130165
-0.0128499
-0.012731
-0.0126576
-0.0126444
-0.0710765
-0.06437
-0.0580335
-0.0526386
-0.0479428
-0.0439759
-0.0405416
-0.0375372
-0.0348893
-0.0325537
-0.0304906
-0.028659
-0.0270209
-0.0255591
-0.0242665
-0.0231214
-0.022101
-0.0211915
-0.0203827
-0.0196658
-0.0190332
-0.0184789
-0.0179976
-0.0175853
-0.0172384
-0.0169541
-0.0167307
-0.0165663
-0.0164596
-0.0164206
-0.0866973
-0.078599
-0.0707159
-0.0640076
-0.0583085
-0.0535213
-0.0493787
-0.045745
-0.0425456
-0.0397299
-0.0372436
-0.0350349
-0.0330619
-0.0313013
-0.029739
-0.0283501
-0.0271111
-0.0260069
-0.0250247
-0.0241536
-0.0233844
-0.0227096
-0.0221227
-0.0216184
-0.0211924
-0.0208412
-0.0205622
-0.0203531
-0.0202115
-0.0201507
-0.101875
-0.0922995
-0.0827906
-0.0748049
-0.0682065
-0.0626957
-0.0579044
-0.0536784
-0.0499618
-0.0466975
-0.0438119
-0.0412452
-0.0389557
-0.0369137
-0.0350948
-0.0334723
-0.0320232
-0.030731
-0.0295811
-0.0285607
-0.027659
-0.0268672
-0.0261776
-0.025584
-0.0250813
-0.0246651
-0.0243323
-0.0240799
-0.0239043
-0.0238207
-0.116557
-0.105561
-0.0945296
-0.0853968
-0.0779902
-0.0717655
-0.0662822
-0.0614328
-0.0571983
-0.0534941
-0.0502148
-0.047296
-0.0446969
-0.0423801
-0.0403123
-0.0384647
-0.0368139
-0.0353414
-0.0340304
-0.0328663
-0.0318373
-0.030933
-0.0301449
-0.0294658
-0.0288897
-0.0284115
-0.0280277
-0.0277345
-0.0275271
-0.02742
-0.130806
-0.118423
-0.105726
-0.0954844
-0.0874243
-0.0805885
-0.0744503
-0.0690189
-0.0643077
-0.060179
-0.0565062
-0.053236
-0.0503287
-0.0477368
-0.045421
-0.0433511
-0.0415019
-0.039852
-0.0383825
-0.0370775
-0.0359236
-0.0349095
-0.0340254
-0.0332632
-0.032616
-0.0320783
-0.0316458
-0.0313144
-0.0310777
-0.0309479
-0.144379
-0.130991
-0.116836
-0.105627
-0.0969426
-0.0893749
-0.0824762
-0.0764555
-0.0712805
-0.0667199
-0.0626483
-0.0590315
-0.0558205
-0.0529557
-0.0503948
-0.0481068
-0.0460636
-0.0442404
-0.0426166
-0.0411748
-0.0399001
-0.0387799
-0.0378036
-0.036962
-0.0362475
-0.0356539
-0.0351761
-0.0348099
-0.0345474
-0.034398
-0.157488
-0.142771
-0.12703
-0.115196
-0.106152
-0.097896
-0.0903083
-0.0837924
-0.0781748
-0.0731672
-0.0686963
-0.0647383
-0.0612227
-0.0580815
-0.0552738
-0.0527669
-0.0505285
-0.0485314
-0.046753
-0.0451745
-0.0437797
-0.0425546
-0.0414874
-0.0405681
-0.0397884
-0.0391413
-0.038621
-0.0382231
-0.0379386
-0.0377728
-0.170146
-0.154542
-0.137562
-0.125199
-0.115487
-0.106284
-0.0980232
-0.0910441
-0.0849465
-0.0794733
-0.074613
-0.0703184
-0.0664945
-0.0630758
-0.0600231
-0.0572987
-0.0548664
-0.0526969
-0.0507663
-0.0490537
-0.0475415
-0.0462144
-0.0450595
-0.0440659
-0.0432246
-0.0425276
-0.0419689
-0.0415436
-0.0412419
-0.0410646
-0.181985
-0.16472
-0.14735
-0.135103
-0.124663
-0.114616
-0.105855
-0.0983931
-0.0917514
-0.0858056
-0.0805544
-0.0759031
-0.0717509
-0.0680416
-0.0647325
-0.0617795
-0.0591436
-0.0567939
-0.0547046
-0.0528528
-0.0512192
-0.0497871
-0.0485427
-0.047474
-0.046571
-0.0458253
-0.0452301
-0.0447803
-0.0444659
-0.044282
-0.195058
-0.176348
-0.158896
-0.145926
-0.13419
-0.123391
-0.114107
-0.106005
-0.0987532
-0.0923142
-0.086627
-0.0815698
-0.0770555
-0.0730297
-0.0694402
-0.0662377
-0.0633812
-0.0608377
-0.0585783
-0.0565781
-0.0548158
-0.0532733
-0.0519354
-0.0507889
-0.049823
-0.0490285
-0.048398
-0.0479263
-0.0476035
-0.0474212
-0.207772
-0.189135
-0.172392
-0.15814
-0.14519
-0.133594
-0.123442
-0.114468
-0.10648
-0.0994009
-0.0931251
-0.0875392
-0.0825604
-0.0781236
-0.0741686
-0.0706418
-0.0674991
-0.064703
-0.0622214
-0.0600264
-0.0580944
-0.0564051
-0.0549415
-0.053689
-0.0526354
-0.0517705
-0.0510865
-0.0505776
-0.0502352
-0.0500482
-0.214744
-0.198375
-0.182329
-0.167579
-0.154087
-0.141984
-0.131227
-0.121644
-0.113111
-0.105525
-0.0987727
-0.0927519
-0.0873816
-0.0825909
-0.0783162
-0.0745024
-0.0711029
-0.0680778
-0.0653924
-0.063017
-0.0609262
-0.0590981
-0.0575142
-0.056159
-0.055019
-0.0540834
-0.0533434
-0.0527937
-0.0524263
-0.052228
-0.215733
-0.201393
-0.186469
-0.172203
-0.158956
-0.146926
-0.1361
-0.126381
-0.117681
-0.109903
-0.102947
-0.0967231
-0.0911565
-0.0861781
-0.0817261
-0.0777472
-0.0741952
-0.0710304
-0.0682179
-0.0657278
-0.0635341
-0.0616149
-0.0599511
-0.0585268
-0.0573284
-0.0563446
-0.0555664
-0.0549885
-0.0546044
-0.0544004
-0.21434
-0.200845
-0.186886
-0.173466
-0.160861
-0.149261
-0.138713
-0.129169
-0.120565
-0.112826
-0.105869
-0.0996189
-0.0940084
-0.0889746
-0.0844608
-0.0804172
-0.0768003
-0.0735719
-0.0706986
-0.0681511
-0.0659045
-0.0639369
-0.0622299
-0.0607675
-0.0595365
-0.0585255
-0.0577257
-0.0571318
-0.0567384
-0.0565327
-0.213261
-0.199857
-0.186475
-0.173763
-0.161779
-0.150657
-0.140463
-0.131174
-0.122746
-0.115121
-0.108235
-0.102024
-0.0964273
-0.0913902
-0.0868611
-0.0827942
-0.0791489
-0.0758892
-0.0729834
-0.0704036
-0.0681258
-0.066129
-0.064395
-0.0629085
-0.0616565
-0.060628
-0.0598142
-0.0592097
-0.05881
-0.0586036
-0.213057
-0.199661
-0.186644
-0.174398
-0.162856
-0.152102
-0.142196
-0.133123
-0.124847
-0.117325
-0.110504
-0.104328
-0.0987463
-0.0937076
-0.0891657
-0.0850784
-0.0814079
-0.0781201
-0.0751849
-0.0725758
-0.0702695
-0.0682458
-0.066487
-0.0649783
-0.063707
-0.0626623
-0.0618355
-0.0612211
-0.0608152
-0.0606074
-0.213304
-0.200155
-0.187471
-0.175542
-0.164292
-0.153795
-0.144097
-0.135181
-0.127017
-0.119569
-0.11279
-0.106633
-0.101053
-0.0960023
-0.0914398
-0.0873259
-0.083625
-0.0803049
-0.0773369
-0.0746956
-0.0723584
-0.0703058
-0.0685206
-0.0669883
-0.0656964
-0.0646346
-0.0637941
-0.0631693
-0.0627565
-0.0625464
-0.213582
-0.200851
-0.188525
-0.176869
-0.165851
-0.155556
-0.146023
-0.137234
-0.129161
-0.121771
-0.115026
-0.108883
-0.1033
-0.098236
-0.0936517
-0.0895106
-0.085779
-0.0824267
-0.079426
-0.0767526
-0.0743848
-0.0723035
-0.0704922
-0.0689365
-0.0676242
-0.0665453
-0.0656911
-0.065056
-0.0646362
-0.0644234
-0.213722
-0.201411
-0.189443
-0.178063
-0.167274
-0.157174
-0.147802
-0.139137
-0.131156
-0.12383
-0.117124
-0.111002
-0.105424
-0.100354
-0.0957548
-0.0915931
-0.0878371
-0.0844581
-0.0814298
-0.0787288
-0.0763343
-0.0742278
-0.0723931
-0.0708165
-0.069486
-0.0683917
-0.0675251
-0.0668805
-0.0664544
-0.0662391
-0.213704
-0.201737
-0.1901
-0.178998
-0.16845
-0.158557
-0.149354
-0.140824
-0.132946
-0.125695
-0.119042
-0.112953
-0.107393
-0.102328
-0.0977253
-0.093553
-0.0897817
-0.0863841
-0.0833355
-0.0806134
-0.0781979
-0.0760711
-0.0742176
-0.0726237
-0.071278
-0.0701707
-0.0692937
-0.0686412
-0.0682096
-0.0679922
-0.213547
-0.201863
-0.190523
-0.179691
-0.169388
-0.159708
-0.150683
-0.142296
-0.134532
-0.127369
-0.120781
-0.114736
-0.109206
-0.104158
-0.0995617
-0.0953887
-0.0916109
-0.0882029
-0.0851412
-0.0824045
-0.0799736
-0.0778316
-0.0759634
-0.074356
-0.0729981
-0.0718804
-0.0709949
-0.0703359
-0.0698999
-0.0696807
-0.21327
-0.201843
-0.190781
-0.180206
-0.17014
-0.160671
-0.151824
-0.143586
-0.135942
-0.128874
-0.122358
-0.116368
-0.110876
-0.105853
-0.101273
-0.0971067
-0.0933299
-0.0899182
-0.0868496
-0.0841038
-0.0816626
-0.0795097
-0.0776307
-0.0760129
-0.0746457
-0.0735198
-0.0726276
-0.0719634
-0.0715238
-0.0713032
-0.212882
-0.201707
-0.190916
-0.180587
-0.170747
-0.161481
-0.152809
-0.144719
-0.137198
-0.130229
-0.123792
-0.117862
-0.112415
-0.107425
-0.102866
-0.0987136
-0.0949439
-0.0915342
-0.0884639
-0.0857138
-0.0832665
-0.0811064
-0.0792199
-0.0775947
-0.0762204
-0.0750883
-0.0741909
-0.0735227
-0.0730803
-0.0728585
-0.212382
-0.201459
-0.190937
-0.180848
-0.171225
-0.162155
-0.153654
-0.145711
-0.138313
-0.131446
-0.125091
-0.119226
-0.113829
-0.108877
-0.104346
-0.100213
-0.0964556
-0.093053
-0.0899857
-0.0872354
-0.0847859
-0.0826221
-0.080731
-0.079101
-0.0777219
-0.0765854
-0.0756843
-0.0750131
-0.0745685
-0.0743459
-0.211768
-0.201091
-0.190839
-0.180985
-0.171575
-0.162696
-0.154363
-0.146565
-0.139292
-0.132529
-0.126259
-0.120464
-0.115123
-0.110214
-0.105715
-0.101606
-0.0978662
-0.0944754
-0.0914153
-0.088669
-0.0862209
-0.0840567
-0.082164
-0.0805316
-0.0791499
-0.0780107
-0.0771072
-0.0764341
-0.0759881
-0.0757649
-0.211039
-0.2006
-0.190615
-0.180996
-0.171795
-0.163104
-0.154937
-0.147284
-0.140136
-0.13348
-0.1273
-0.121578
-0.116296
-0.111435
-0.106974
-0.102894
-0.0991763
-0.0958017
-0.0927532
-0.0900147
-0.0875714
-0.0854101
-0.0835185
-0.0818862
-0.0805039
-0.0793638
-0.0784593
-0.0777853
-0.0773386
-0.0771151
-0.210199
-0.199984
-0.190267
-0.18088
-0.171886
-0.16338
-0.155378
-0.147871
-0.14085
-0.134302
-0.128214
-0.12257
-0.117352
-0.112543
-0.108125
-0.104078
-0.100387
-0.0970327
-0.0939996
-0.0912726
-0.0888377
-0.0866821
-0.0847945
-0.0831646
-0.0817837
-0.0806444
-0.0797402
-0.0790663
-0.0786194
-0.0783961
-0.209253
-0.199247
-0.189798
-0.180641
-0.17185
-0.163528
-0.15569
-0.148329
-0.141436
-0.135
-0.129007
-0.123443
-0.118293
-0.11354
-0.109168
-0.10516
-0.101499
-0.0981693
-0.0951555
-0.0924435
-0.0900201
-0.0878732
-0.085992
-0.0843668
-0.0829893
-0.0818523
-0.0809497
-0.0802768
-0.0798305
-0.0796075
-0.208203
-0.19839
-0.189213
-0.180285
-0.171694
-0.163553
-0.155879
-0.148664
-0.1419
-0.135576
-0.129681
-0.124201
-0.119122
-0.11443
-0.110108
-0.106141
-0.102515
-0.099213
-0.0962219
-0.0935281
-0.0911192
-0.0889837
-0.0871113
-0.085493
-0.0841207
-0.0829875
-0.0820877
-0.0814167
-0.0809716
-0.0807492
-0.207053
-0.197415
-0.18852
-0.179819
-0.171423
-0.16346
-0.155949
-0.148881
-0.142247
-0.136037
-0.130241
-0.124847
-0.119843
-0.115214
-0.110946
-0.107024
-0.103436
-0.100165
-0.0972
-0.0945274
-0.0921357
-0.0900141
-0.088153
-0.0865434
-0.085178
-0.0840501
-0.0831542
-0.082486
-0.0820426
-0.0818211
-0.205806
-0.196323
-0.187728
-0.179247
-0.17104
-0.163254
-0.155906
-0.148984
-0.14248
-0.136385
-0.130691
-0.125385
-0.120458
-0.115895
-0.111684
-0.107811
-0.104263
-0.101027
-0.098091
-0.0954424
-0.0930705
-0.0909652
-0.0891173
-0.0875185
-0.0861615
-0.0850402
-0.0841494
-0.0834848
-0.0830437
-0.0828234
-0.204467
-0.195113
-0.186846
-0.178573
-0.170548
-0.162939
-0.155754
-0.148978
-0.142603
-0.136625
-0.131033
-0.125819
-0.12097
-0.116477
-0.112325
-0.108503
-0.104999
-0.101801
-0.0988961
-0.0962741
-0.0939245
-0.0918377
-0.090005
-0.0884186
-0.0870717
-0.0859583
-0.0850735
-0.0844133
-0.083975
-0.0837561
-0.203024
-0.193794
-0.185887
-0.177796
-0.16995
-0.162519
-0.155497
-0.148865
-0.142621
-0.136759
-0.131272
-0.12615
-0.121383
-0.116961
-0.112871
-0.109103
-0.105646
-0.102487
-0.0996166
-0.0970236
-0.0946985
-0.0926323
-0.0908167
-0.0892445
-0.087909
-0.0868047
-0.0859269
-0.0852717
-0.0848367
-0.0846195
-0.201434
-0.192395
-0.184858
-0.176915
-0.169249
-0.162
-0.155139
-0.148651
-0.142537
-0.136792
-0.131411
-0.126383
-0.121699
-0.11735
-0.113325
-0.109613
-0.106205
-0.103088
-0.100254
-0.0976921
-0.0953936
-0.0933499
-0.0915532
-0.0899966
-0.0886739
-0.0875799
-0.08671
-0.0860606
-0.0856293
-0.085414
-0.199703
-0.190969
-0.183757
-0.175929
-0.168453
-0.161387
-0.154684
-0.148337
-0.142353
-0.136727
-0.131452
-0.126519
-0.12192
-0.117646
-0.113688
-0.110035
-0.106677
-0.103605
-0.100809
-0.0982809
-0.0960109