/*--------------------------------*- C++ -*----------------------------------*\
  =========                 |
  \\      /  F ield         | OpenFOAM: The Open Source CFD Toolbox
   \\    /   O peration     | Website:  https://openfoam.org
    \\  /    A nd           | Version:  7
     \\/     M anipulation  |
\*---------------------------------------------------------------------------*/
FoamFile
{
    version     2.0;
    format      ascii;
    class       volVectorField;
    location    "45";
    object      U;
}
// * * * * * * * * * * * * * * * * * * * * * * * * * * * * * * * * * * * * * //

dimensions      [0 1 -1 0 0 0 0];

internalField   nonuniform List<vector> 
1360
(
(-0.00106242 0.00164452 -5.57283e-20)
(0.00828848 0.0136405 -1.47e-19)
(0.0375021 0.0323246 2.61825e-19)
(0.00828848 -0.0136405 1.47e-19)
(0.0375021 -0.0323246 -2.61825e-19)
(0.0134273 -0.0401622 2.28902e-19)
(0.0494083 -0.095308 -3.36668e-19)
(0.0233168 -0.064459 1.34735e-19)
(0.072397 -0.153399 -1.55534e-19)
(0.0372091 -0.0852217 -6.12248e-20)
(0.104874 -0.203681 -6.37582e-19)
(0.178455 -0.279845 5.20497e-19)
(0.0540529 -0.101389 -1.56299e-19)
(0.144577 -0.243731 -5.68653e-20)
(0.231776 -0.336754 -3.35396e-19)
(0.312231 -0.391735 3.20614e-19)
(0.0725727 -0.112222 5.11304e-19)
(0.188727 -0.271777 -1.61257e-19)
(0.291637 -0.378222 1.99595e-19)
(0.380797 -0.44297 2.62029e-21)
(0.0913662 -0.117355 1.42603e-19)
(0.234216 -0.286813 1.2631e-20)
(0.3541 -0.402749 9.82491e-20)
(0.453229 -0.475697 -3.35057e-20)
(0.534005 -0.514978 5.37151e-19)
(0.109013 -0.116816 -5.26075e-20)
(0.277819 -0.288668 -2.02343e-20)
(0.414999 -0.409828 1.6274e-19)
(0.525016 -0.489077 -3.25134e-20)
(0.611884 -0.534496 -3.06834e-19)
(0.679762 -0.55343 4.98061e-19)
(0.732533 -0.552647 -5.42515e-19)
(0.124183 -0.111023 -6.66385e-20)
(0.31643 -0.278013 9.45769e-21)
(0.470209 -0.399991 4.50849e-20)
(0.591574 -0.483325 1.04686e-19)
(0.685639 -0.534273 -9.01181e-20)
(0.757312 -0.558959 -2.03999e-19)
(0.811154 -0.563354 1.26829e-19)
(0.851244 -0.552989 -3.30809e-19)
(0.88109 -0.532667 -3.65463e-20)
(0.13577 -0.100757 -1.01822e-20)
(0.347286 -0.256306 -2.18372e-20)
(0.51593 -0.374763 -1.11982e-20)
(0.648534 -0.459703 6.25974e-20)
(0.750702 -0.515171 -2.69525e-20)
(0.827638 -0.545717 3.1668e-20)
(0.884225 -0.556166 5.79229e-20)
(0.924941 -0.551303 7.07913e-20)
(0.953732 -0.535534 -2.06338e-19)
(0.973921 -0.512648 7.13949e-20)
(0.988162 -0.485684 -2.90928e-19)
(0.142961 -0.0870011 -1.09052e-19)
(0.368238 -0.225641 7.68181e-21)
(0.548959 -0.336594 3.99875e-20)
(0.692011 -0.420477 -1.48816e-19)
(0.802842 -0.479038 1.69365e-19)
(0.88643 -0.515065 -1.82842e-19)
(0.947587 -0.531993 5.22522e-20)
(0.990874 -0.533606 3.5161e-20)
(1.02046 -0.52368 2.7896e-20)
(1.03997 -0.505678 -2.90958e-20)
(1.05241 -0.482555 -2.49235e-20)
(1.06016 -0.456654 -3.84085e-20)
(1.06495 -0.429711 1.03646e-19)
(1.06802 -0.402917 -1.74812e-19)
(0.145248 -0.0710338 -1.46215e-19)
(0.377818 -0.188718 2.12624e-19)
(0.566966 -0.288658 6.44104e-20)
(0.718912 -0.36879 -6.91853e-20)
(0.838413 -0.428636 1.11262e-19)
(0.929763 -0.469213 2.24025e-19)
(0.997273 -0.492491 -1.26734e-19)
(1.04523 -0.501079 -7.93868e-20)
(1.07775 -0.497922 -1.43058e-19)
(1.09858 -0.485971 9.51525e-20)
(1.11097 -0.467932 -1.89915e-20)
(1.11758 -0.446105 1.10667e-20)
(1.12047 -0.422307 3.94632e-20)
(1.12116 -0.397874 1.0947e-20)
(1.12068 -0.373719 -9.12759e-21)
(1.11971 -0.350392 -1.4092e-20)
(1.11861 -0.328219 -8.52361e-21)
(0.142592 -0.0541548 1.29641e-19)
(0.375445 -0.14845 8.27052e-20)
(0.56864 -0.23464 -5.69035e-20)
(0.727166 -0.308439 -6.58232e-19)
(0.854651 -0.367464 2.11613e-19)
(0.954349 -0.411151 -4.18203e-20)
(1.02971 -0.440043 -3.97495e-20)
(1.08439 -0.455522 -3.35447e-20)
(1.12213 -0.459569 2.14626e-20)
(1.14656 -0.454461 -2.18879e-19)
(1.16099 -0.442502 1.30701e-19)
(1.16827 -0.425807 -1.30708e-19)
(1.17075 -0.406176 4.22956e-20)
(1.17021 -0.385035 -3.59653e-20)
(1.16796 -0.363431 1.00999e-20)
(1.16488 -0.342071 4.09556e-20)
(1.16148 -0.321406 -1.58381e-20)
(1.15798 -0.301823 1.59209e-20)
(1.15432 -0.283586 -2.33788e-20)
(1.15084 -0.26546 1.25314e-20)
(0.135315 -0.0376115 2.21904e-19)
(0.361459 -0.107792 -3.88104e-20)
(0.553853 -0.178433 -2.83429e-19)
(0.715921 -0.243636 -3.22975e-20)
(0.849909 -0.299604 4.64218e-19)
(0.957813 -0.344514 -1.97698e-19)
(1.04195 -0.377676 1.49764e-19)
(1.10507 -0.399314 -1.81731e-19)
(1.15023 -0.41041 8.22478e-20)
(1.18066 -0.412459 -6.14708e-20)
(1.19949 -0.407218 2.65117e-19)
(1.20961 -0.396477 -1.75177e-19)
(1.21354 -0.381897 -1.01803e-20)
(1.21332 -0.364901 -1.76005e-20)
(1.21052 -0.346624 1.97104e-20)
(1.20626 -0.327905 -4.30645e-20)
(1.20129 -0.309324 4.75567e-20)
(1.19602 -0.291341 -6.69521e-21)
(1.19055 -0.274319 -5.17254e-20)
(1.18508 -0.257506 -1.18976e-21)
(0.12409 -0.0225047 -1.84997e-19)
(0.337062 -0.0694861 1.4401e-19)
(0.523674 -0.123819 5.14446e-20)
(0.685666 -0.178687 -6.36675e-20)
(0.823856 -0.229433 -1.78532e-20)
(0.938931 -0.273397 7.62989e-20)
(1.03197 -0.308965 -5.57413e-20)
(1.10462 -0.335391 2.2458e-19)
(1.15901 -0.352727 -1.56046e-19)
(1.19769 -0.361661 6.72767e-20)
(1.22337 -0.363306 -1.49804e-19)
(1.23876 -0.359 1.35934e-19)
(1.24637 -0.350134 5.15998e-20)
(1.24839 -0.338017 -1.45923e-19)
(1.24664 -0.323789 1.267e-19)
(1.2425 -0.308369 -5.67341e-20)
(1.23697 -0.292451 2.39112e-20)
(1.2307 -0.276591 1.83401e-20)
(1.22401 -0.261234 -3.02167e-22)
(1.21709 -0.246027 1.1514e-20)
(0.109858 -0.00969048 -9.29856e-20)
(0.304197 -0.0358189 1.55922e-19)
(0.480278 -0.0741591 -9.57715e-20)
(0.638237 -0.117642 7.53127e-20)
(0.777596 -0.161308 -9.60819e-20)
(0.897856 -0.202108 -1.23036e-20)
(0.998913 -0.237872 4.08418e-20)
(1.08125 -0.267166 -1.51231e-20)
(1.14595 -0.289289 -1.84903e-20)
(1.19468 -0.304186 7.97379e-20)
(1.22947 -0.312307 -1.24894e-20)
(1.25259 -0.314455 -4.01408e-20)
(1.26636 -0.311634 7.66674e-20)
(1.27293 -0.304919 -6.25356e-20)
(1.27425 -0.295344 1.51637e-20)
(1.27192 -0.283828 -1.76907e-20)
(1.26719 -0.271134 4.73609e-20)
(1.26096 -0.257889 -3.3486e-20)
(1.25381 -0.244615 -7.3508e-21)
(1.24602 -0.231359 -8.56493e-21)
(0.0937203 0.000279852 5.76017e-20)
(0.265329 -0.00844393 -1.77928e-19)
(0.426731 -0.0321063 1.07762e-19)
(0.576686 -0.0639608 -1.53022e-20)
(0.71367 -0.0992226 2.95971e-20)
(0.836253 -0.134859 -5.46233e-20)
(0.94335 -0.168521 -3.4366e-20)
(1.0344 -0.198409 6.79805e-21)
(1.10945 -0.22332 8.91153e-20)
(1.16917 -0.242619 -1.25423e-19)
(1.21477 -0.256164 1.76028e-20)
(1.24783 -0.264208 2.50754e-20)
(1.27023 -0.267301 -3.52737e-20)
(1.28388 -0.266174 1.0774e-19)
(1.29066 -0.261645 -3.8959e-20)
(1.29228 -0.254526 2.96081e-20)
(1.29016 -0.245566 -6.28451e-20)
(1.28546 -0.235413 1.19324e-20)
(1.27898 -0.224629 3.00269e-20)
(1.27118 -0.213646 1.67932e-20)
(0.0768177 0.00718088 1.20766e-19)
(0.223191 0.0117232 1.15866e-19)
(0.366687 0.000594221 -3.7192e-20)
(0.505004 -0.0202159 -1.3725e-19)
(0.635889 -0.0464558 -7.43336e-20)
(0.757306 -0.0754189 1.69363e-19)
(0.867483 -0.104893 7.55745e-20)
(0.965062 -0.133029 -1.50276e-19)
(1.04921 -0.158403 5.94888e-20)
(1.11968 -0.180028 -2.14727e-21)
(1.17677 -0.19732 2.35622e-19)
(1.22128 -0.210064 -8.56602e-20)
(1.25439 -0.218354 -2.36199e-19)
(1.27758 -0.222528 2.90681e-19)
(1.29242 -0.223093 -1.11053e-19)
(1.3005 -0.220651 1.99862e-19)
(1.3033 -0.215834 -6.73993e-20)
(1.30211 -0.209236 1.63477e-20)
(1.29794 -0.201392 -3.68271e-20)
(1.29143 -0.193013 -2.84159e-20)
(0.060214 0.0110931 -1.43063e-19)
(0.180488 0.0245154 -2.81134e-19)
(0.304 0.0231995 4.60386e-19)
(0.427728 0.0121033 2.58781e-19)
(0.54901 -0.00527513 -7.67478e-19)
(0.665519 -0.0267476 4.62106e-19)
(0.775129 -0.0504592 1.3047e-19)
(0.876003 -0.0747594 2.17483e-19)
(0.9667 -0.0982627 6.99044e-21)
(1.04624 -0.119869 -1.1518e-20)
(1.11413 -0.138764 -5.21067e-19)
(1.17037 -0.154412 3.84279e-19)
(1.21539 -0.166542 1.36961e-19)
(1.25 -0.175122 -6.57496e-20)
(1.27527 -0.180315 -2.3427e-19)
(1.29246 -0.182439 5.86303e-20)
(1.30284 -0.181914 -7.93504e-20)
(1.30769 -0.179192 -5.68737e-20)
(1.30805 -0.174689 3.88086e-19)
(1.3047 -0.169236 3.41441e-20)
(0.0447983 0.0123481 -3.78258e-19)
(0.13964 0.030435 -1.71324e-19)
(0.242336 0.0359402 -1.73691e-19)
(0.349476 0.0326624 4.40246e-19)
(0.458255 0.0232549 2.1713e-20)
(0.566321 0.00930848 -1.69777e-19)
(0.671484 -0.00779134 -3.05272e-19)
(0.771744 -0.0267457 -3.62729e-20)
(0.865361 -0.0463931 1.11591e-20)
(0.950919 -0.0657288 5.41032e-19)
(1.02737 -0.0839127 -6.18865e-19)
(1.09405 -0.100279 1.74305e-19)
(1.15069 -0.114343 -4.82416e-19)
(1.19741 -0.125802 2.28557e-19)
(1.23465 -0.134524 4.89819e-20)
(1.26312 -0.140537 -7.09276e-19)
(1.2837 -0.144001 2.07883e-19)
(1.29738 -0.145152 1.10762e-19)
(1.30501 -0.144181 -2.66425e-19)
(1.30732 -0.141843 1.96931e-19)
(0.0312229 0.0114506 1.52283e-19)
(0.102575 0.0305039 2.69051e-19)
(0.184832 0.0398792 -3.29702e-19)
(0.274472 0.0422131 4.69641e-19)
(0.368755 0.0393212 9.10812e-20)
(0.46548 0.0322064 -6.95594e-19)
(0.562606 0.0217666 7.78319e-20)
(0.658216 0.00889247 9.47526e-20)
(0.75056 -0.00557441 2.8701e-19)
(0.838081 -0.0208563 -2.68965e-19)
(0.919458 -0.0362456 3.55207e-19)
(0.993634 -0.0511158 2.83943e-19)
(1.05984 -0.0649357 2.27585e-19)
(1.11762 -0.0772797 -9.29305e-20)
(1.1668 -0.0878344 -2.43244e-19)
(1.20751 -0.0964033 1.21064e-19)
(1.2401 -0.10291 1.37589e-19)
(1.26508 -0.107346 1.60383e-20)
(1.28292 -0.109577 1.04144e-19)
(1.29395 -0.110019 5.75256e-19)
(0.0198803 0.00899348 8.21452e-19)
(0.0706218 0.026075 -5.00067e-19)
(0.133848 0.0366908 -7.18897e-20)
(0.206157 0.0424006 -5.36539e-19)
(0.285003 0.0442535 -5.60286e-19)
(0.368439 0.0427278 8.59636e-19)
(0.454686 0.0382789 -1.46645e-19)
(0.542067 0.031407 9.09071e-20)
(0.629014 0.0226197 -1.80742e-19)
(0.714072 0.0124184 -1.76651e-19)
(0.795912 0.00129516 1.56663e-19)
(0.873357 -0.0102763 -2.56538e-19)
(0.945407 -0.0218514 5.90639e-19)
(1.01126 -0.0330262 -6.93314e-19)
(1.07033 -0.0434457 2.8898e-19)
(1.12227 -0.0528152 -6.48592e-20)
(1.16692 -0.0609185 5.90269e-19)
(1.20433 -0.0675647 2.37567e-19)
(1.23442 -0.0722286 -1.16875e-18)
(1.25672 -0.0746045 4.32302e-19)
(0.0109194 0.00558341 1.48933e-19)
(0.0444826 0.018646 5.86039e-20)
(0.090858 0.0284088 6.71528e-19)
(0.146927 0.0354909 2.11043e-19)
(0.210427 0.0402798 4.50396e-19)
(0.279696 0.0428168 -1.09409e-18)
(0.35326 0.0431894 7.99168e-19)
(0.429743 0.0415683 -6.73859e-19)
(0.507854 0.0381674 4.598e-19)
(0.586375 0.0332286 7.89701e-20)
(0.664153 0.0270165 -1.19155e-18)
(0.740106 0.0198112 1.72812e-18)
(0.813243 0.0119003 -7.0205e-19)
(0.882681 0.00357091 -1.67747e-19)
(0.947667 -0.00489599 3.58676e-19)
(1.0076 -0.0132344 -3.07924e-19)
(1.06208 -0.0212248 -1.31617e-19)
(1.11089 -0.0286545 5.4465e-19)
(1.15362 -0.0346395 -1.46137e-19)
(1.18944 -0.0373228 2.39415e-19)
(0.00428942 0.00178745 -9.70514e-19)
(0.0243007 0.00970454 6.06015e-21)
(0.0564597 0.017186 -1.03546e-21)
(0.098051 0.0240679 9.2836e-19)
(0.147145 0.0301924 -3.48653e-19)
(0.202372 0.0352552 -6.10398e-19)
(0.26255 0.039058 9.09049e-19)
(0.3266 0.0415164 -6.58434e-19)
(0.393524 0.0426156 -4.4214e-19)
(0.46238 0.0423891 7.71576e-19)
(0.532263 0.0409076 -6.60415e-19)
(0.602299 0.0382688 1.03451e-18)
(0.671649 0.0345871 5.70925e-19)
(0.739519 0.0299822 -4.23099e-19)
(0.805178 0.024569 -2.42456e-19)
(0.867975 0.0184436 3.04857e-19)
(0.927385 0.0116241 -2.7019e-19)
(0.983082 0.00390804 9.28165e-20)
(1.03472 -0.00469278 5.12657e-19)
(1.08126 -0.0114662 -7.08536e-19)
(-0.000204977 -0.00189469 -3.01339e-20)
(0.00976692 0.000619727 2.60553e-19)
(0.0304906 0.00509476 -2.53972e-20)
(0.0597399 0.0107428 -3.05952e-19)
(0.0959527 0.016979 -3.13398e-19)
(0.138043 0.0232409 8.24784e-19)
(0.185095 0.0291232 -1.07315e-18)
(0.236294 0.0343608 2.36848e-19)
(0.290899 0.038781 1.53914e-19)
(0.348221 0.0422766 2.28438e-19)
(0.407595 0.0447882 -1.066e-18)
(0.468367 0.046291 1.09357e-18)
(0.529887 0.0467836 3.98209e-20)
(0.591504 0.0462761 -9.81999e-19)
(0.652568 0.0447788 6.24992e-19)
(0.712414 0.0423011 8.36331e-20)
(0.770303 0.038842 -9.87248e-20)
(0.825529 0.0340731 -8.37691e-19)
(0.878488 0.0260204 7.55323e-19)
(0.929198 0.0122674 1.71633e-19)
(-0.00285385 -0.00503916 -2.01747e-19)
(0.000244462 -0.00742493 -8.36648e-20)
(0.0121978 -0.00602967 6.90486e-19)
(0.0313341 -0.00210305 -8.13895e-21)
(0.0564889 0.00345869 3.3853e-19)
(0.0868538 0.00991794 -9.78897e-19)
(0.121755 0.016734 1.12411e-19)
(0.160604 0.0235265 4.60983e-19)
(0.202876 0.0300272 -5.74621e-19)
(0.24809 0.0360465 -1.50703e-19)
(0.295786 0.0414525 -4.07199e-19)
(0.345513 0.0461535 1.43147e-18)
(0.396816 0.0500842 -4.81616e-19)
(0.449229 0.0531917 1.66493e-19)
(0.502277 0.0554185 -1.9979e-19)
(0.555443 0.0566914 6.16574e-19)
(0.608086 0.0569036 -6.28058e-19)
(0.659593 0.0555709 6.97559e-19)
(0.71064 0.0502924 -4.17252e-19)
(0.760409 0.0371007 -4.82771e-19)
(-0.0040061 -0.00730703 4.72698e-19)
(-0.00512518 -0.0134847 -3.38207e-19)
(0.000415106 -0.0147073 -2.1626e-19)
(0.0115493 -0.0125229 -5.41164e-20)
(0.0275316 -0.00801841 -5.15819e-19)
(0.0478277 -0.00202512 5.32729e-19)
(0.0719871 0.00484644 -7.36394e-19)
(0.099616 0.0121577 4.24341e-19)
(0.130366 0.0195931 -2.63931e-19)
(0.163921 0.0269251 7.70981e-19)
(0.19998 0.0339879 -6.59853e-19)
(0.238249 0.0406574 5.92736e-19)
(0.278431 0.0468333 -9.64174e-19)
(0.320222 0.0524199 2.4592e-19)
(0.363304 0.0573013 3.75776e-19)
(0.407307 0.0613136 3.14427e-19)
(0.451729 0.064199 4.28261e-20)
(0.496111 0.0652872 -7.40093e-19)
(0.541087 0.0623647 -3.67589e-19)
(0.585093 0.0522297 5.02218e-19)
(-0.0040502 -0.0084546 3.33071e-22)
(-0.00733142 -0.0169026 -5.99937e-20)
(-0.00625569 -0.0199139 -6.06014e-20)
(-0.00125452 -0.0191579 2.5712e-19)
(0.00735445 -0.0157866 -1.55855e-19)
(0.0193035 -0.0106424 -4.01763e-19)
(0.0343483 -0.00434153 6.98678e-19)
(0.0522662 0.00266983 -3.12328e-19)
(0.0728527 0.0100697 -1.2978e-19)
(0.0959163 0.0176246 7.86756e-19)
(0.121273 0.0251616 -2.76232e-19)
(0.14874 0.0325464 3.2602e-19)
(0.178131 0.0396617 -8.31523e-19)
(0.209254 0.0463848 5.43393e-19)
(0.241898 0.0525573 1.55352e-19)
(0.2758 0.0579506 -4.04163e-19)
(0.310579 0.0622106 5.66526e-19)
(0.345925 0.0646204 -3.91114e-19)
(0.382324 0.0634276 -3.50385e-19)
(0.417986 0.0564684 8.9644e-19)
(-0.00339501 -0.00835768 9.33951e-20)
(-0.00741457 -0.0173586 -3.07229e-19)
(-0.00928982 -0.021151 3.55356e-19)
(-0.00882838 -0.0213311 -1.23369e-19)
(-0.00593569 -0.0189853 1.74704e-19)
(-0.000630625 -0.0148837 -3.22046e-20)
(0.00702808 -0.00958701 3.09328e-20)
(0.0169647 -0.00350182 -2.63616e-19)
(0.0290919 0.00307861 -7.20332e-20)
(0.0433144 0.00994095 5.21494e-19)
(0.0595313 0.0169255 7.13182e-20)
(0.0776362 0.0239043 -1.99525e-19)
(0.0975152 0.0307592 -2.56245e-19)
(0.119044 0.0373596 3.50491e-19)
(0.142081 0.0435335 -7.09115e-19)
(0.166431 0.0490355 5.23716e-19)
(0.191808 0.0535046 -6.40496e-19)
(0.217995 0.0563264 5.34517e-19)
(0.245248 0.056295 -2.51008e-19)
(0.271944 0.0520367 -1.37637e-19)
(-0.00244749 -0.00704009 8.54886e-20)
(-0.00638659 -0.0149177 -8.88521e-20)
(-0.0100967 -0.0184887 1.37851e-20)
(-0.0128286 -0.0190787 3.67788e-20)
(-0.0141263 -0.0175794 -5.85863e-20)
(-0.0137953 -0.0146098 2.66789e-21)
(-0.0117394 -0.0106185 -2.17062e-20)
(-0.00791427 -0.00593091 2.83408e-19)
(-0.0023157 -0.000781433 -9.85209e-20)
(0.00503264 0.00465908 -2.72109e-19)
(0.0140885 0.0102612 3.37685e-19)
(0.0247954 0.0159183 -1.35442e-19)
(0.037084 0.0215283 1.3254e-19)
(0.0508704 0.0269749 -3.95804e-19)
(0.0660483 0.0321053 4.96263e-19)
(0.0824658 0.0367074 4.00067e-20)
(0.0999007 0.0404858 -4.99243e-19)
(0.118162 0.0430034 4.60107e-19)
(0.137263 0.0435319 8.30301e-20)
(0.155971 0.0412236 1.75498e-19)
(-0.00157565 -0.0046891 9.21782e-20)
(-0.00513677 -0.0100401 -9.55977e-20)
(-0.00988578 -0.0125523 1.65822e-19)
(-0.0146501 -0.0131041 4.77155e-20)
(-0.0187028 -0.0122815 -1.20092e-19)
(-0.021692 -0.0104859 2.39435e-20)
(-0.0234085 -0.00800727 5.02073e-20)
(-0.0237225 -0.00505575 -9.97125e-21)
(-0.0225657 -0.00178284 2.57823e-19)
(-0.0199131 0.00170086 -3.36839e-19)
(-0.0157694 0.00531085 -5.79188e-20)
(-0.0101605 0.008976 1.23838e-19)
(-0.00313024 0.0126268 2.48743e-21)
(0.00525812 0.0161829 -1.4417e-19)
(0.0149159 0.0195401 -2.54805e-20)
(0.0257132 0.0225568 -9.5819e-20)
(0.037464 0.0250452 -7.78567e-20)
(0.0499669 0.0267547 2.25887e-19)
(0.0630453 0.027312 -5.74418e-20)
(0.0758745 0.0262424 1.38153e-19)
(-0.00106242 -0.00164452 3.07806e-20)
(-0.00433239 -0.003537 -9.28867e-20)
(-0.00954496 -0.00443852 5.997e-20)
(-0.015298 -0.00465666 -4.49508e-21)
(-0.0207188 -0.00439579 -6.29889e-20)
(-0.0253717 -0.003795 5.3509e-20)
(-0.0289877 -0.00295459 -3.28747e-20)
(-0.0313923 -0.00194719 1.26862e-20)
(-0.032484 -0.000825198 5.03202e-20)
(-0.0322134 0.000373073 -7.95558e-20)
(-0.0305662 0.00161818 3.81032e-20)
(-0.0275538 0.00288518 4.71919e-20)
(-0.0232088 0.00414933 -1.20598e-20)
(-0.0175857 0.00538204 4.05119e-20)
(-0.0107666 0.00654635 -2.08788e-20)
(-0.00287223 0.00759293 3.17435e-20)
(0.00592672 0.00845792 -1.2654e-19)
(0.0154139 0.00906081 4.20061e-20)
(0.0253102 0.00928849 1.46478e-20)
(0.0350456 0.00898566 -7.42316e-20)
(1.14818 -0.236 -2.0923e-20)
(1.14655 -0.208841 6.23475e-21)
(1.14521 -0.187453 1.44934e-20)
(1.14394 -0.168301 2.10664e-20)
(1.1422 -0.15129 -4.63963e-20)
(1.14004 -0.135995 4.70111e-20)
(1.13757 -0.122085 -5.32689e-20)
(1.13492 -0.109352 3.19102e-20)
(1.1322 -0.0976256 -9.8549e-21)
(1.12949 -0.0867542 3.84024e-21)
(1.12687 -0.0766085 -2.70093e-21)
(1.1244 -0.0670787 1.92738e-20)
(1.12213 -0.05807 2.48109e-21)
(1.12008 -0.0494992 -3.76718e-21)
(1.1183 -0.0412919 -5.94504e-21)
(1.1168 -0.0333816 -4.23216e-21)
(1.1156 -0.0257085 -4.83115e-21)
(1.11472 -0.0182154 3.33805e-21)
(1.11414 -0.0108339 1.70135e-21)
(1.11388 -0.00353925 -2.53619e-21)
(1.17878 -0.230969 1.31742e-20)
(1.17239 -0.204419 1.0796e-21)
(1.16728 -0.182942 -1.55383e-21)
(1.16305 -0.164048 1.37532e-22)
(1.15902 -0.14741 6.66408e-21)
(1.1551 -0.132504 -7.02913e-21)
(1.15121 -0.118955 6.6529e-21)
(1.14737 -0.106561 -4.97502e-21)
(1.14366 -0.0951598 1.28882e-20)
(1.14015 -0.0845907 -1.74096e-20)
(1.13686 -0.0747236 -1.43822e-21)
(1.13384 -0.0654506 7.61327e-22)
(1.13111 -0.0566791 4.11865e-21)
(1.12869 -0.0483283 -2.69736e-22)
(1.1266 -0.0403266 2.45773e-21)
(1.12485 -0.03261 -2.15071e-21)
(1.12346 -0.0251213 4.38906e-21)
(1.12242 -0.0178069 -7.62841e-22)
(1.12174 -0.0106026 -2.8855e-21)
(1.12141 -0.00347549 7.57356e-22)
(1.20795 -0.222844 -2.07938e-20)
(1.19747 -0.19789 2.0326e-20)
(1.18884 -0.177063 -9.82556e-21)
(1.18179 -0.158802 -1.14966e-21)
(1.17559 -0.142805 5.36895e-23)
(1.16992 -0.128487 1.51679e-22)
(1.16463 -0.115377 4.43661e-22)
(1.15966 -0.103387 1.27691e-22)
(1.15503 -0.0923971 -1.08569e-21)
(1.15074 -0.0821964 3.15405e-21)
(1.1468 -0.0726583 -7.00564e-22)
(1.14323 -0.0636811 2.60579e-21)
(1.14004 -0.0551777 -7.11704e-21)
(1.13724 -0.0470719 2.47482e-21)
(1.13484 -0.0392965 1.21258e-21)
(1.13283 -0.0317911 -8.26753e-22)
(1.13124 -0.0245018 2.24424e-21)
(1.13004 -0.0173789 6.65854e-22)
(1.12925 -0.0103645 1.35409e-21)
(1.12885 -0.00341538 -3.50851e-22)
(1.2349 -0.21202 1.18877e-20)
(1.22135 -0.189494 1.63615e-21)
(1.20968 -0.169963 -5.44482e-21)
(1.20003 -0.152715 4.0019e-21)
(1.19177 -0.13749 2.21878e-21)
(1.18441 -0.123842 -3.46222e-21)
(1.17776 -0.111382 1.62341e-21)
(1.17172 -0.0999581 -3.59182e-22)
(1.1662 -0.0894331 -8.03662e-22)
(1.16117 -0.0796392 4.5261e-22)
(1.1566 -0.0704614 -1.1169e-22)
(1.1525 -0.0618064 3.56998e-23)
(1.14886 -0.0535933 -1.36071e-22)
(1.14567 -0.0457512 8.61047e-22)
(1.14295 -0.0382178 -1.13743e-21)
(1.14069 -0.0309371 4.57108e-22)
(1.13888 -0.0238587 1.68682e-22)
(1.13751 -0.0169362 -6.1436e-23)
(1.1366 -0.0101174 -3.08736e-22)
(1.13613 -0.00335357 4.45082e-23)
(1.25911 -0.19865 -1.39934e-20)
(1.24354 -0.179457 -1.23508e-21)
(1.22952 -0.161797 8.44745e-21)
(1.21759 -0.145878 -6.5816e-21)
(1.20743 -0.131634 -3.45528e-21)
(1.19855 -0.118791 6.16399e-21)
(1.19066 -0.107063 -4.03186e-21)
(1.18359 -0.0962708 3.84083e-22)
(1.17719 -0.0862694 2.63291e-21)
(1.17142 -0.0769264 -1.06617e-21)
(1.16622 -0.0681431 -1.31842e-21)
(1.16159 -0.059837 -6.83357e-23)
(1.15749 -0.0519353 1.34226e-22)
(1.15392 -0.0443741 3.94479e-23)
(1.15088 -0.0370967 1.52119e-22)
(1.14834 -0.0300521 -5.55861e-23)
(1.14632 -0.0231938 -1.43505e-22)
(1.14479 -0.0164793 7.57737e-23)
(1.14375 -0.00986292 -3.13082e-23)
(1.14322 -0.00329014 5.29046e-23)
(1.27989 -0.182784 5.45138e-20)
(1.26358 -0.167786 -7.47982e-20)
(1.24805 -0.152651 3.09626e-20)
(1.23433 -0.138404 5.66935e-21)
(1.22248 -0.125344 2.87805e-20)
(1.21219 -0.113424 -3.70149e-20)
(1.20314 -0.102479 1.90375e-20)
(1.19509 -0.0923557 -8.52494e-21)
(1.18788 -0.0829223 -4.26328e-21)
(1.18139 -0.0740703 5.53772e-21)
(1.17559 -0.0657145 -7.81304e-21)
(1.17042 -0.0577829 6.93393e-21)
(1.16587 -0.0502124 -6.2163e-21)
(1.16192 -0.0429475 1.04157e-21)
(1.15855 -0.0359383 7.71228e-23)
(1.15575 -0.0291393 3.87237e-22)
(1.15351 -0.0225085 3.05419e-24)
(1.15181 -0.0160077 -1.09592e-22)
(1.15065 -0.00959908 -1.63943e-22)
(1.15006 -0.00322218 -2.03742e-22)
(1.29596 -0.164237 -1.40239e-19)
(1.28093 -0.154354 2.96191e-20)
(1.26524 -0.142501 -1.07784e-19)
(1.25044 -0.130334 4.11509e-20)
(1.23718 -0.118682 4.9467e-20)
(1.22553 -0.107818 -4.08909e-20)
(1.21532 -0.0977224 1.9783e-20)
(1.20628 -0.0882978 -1.14223e-20)
(1.19823 -0.0794542 4.63847e-21)
(1.19104 -0.0711122 -8.46231e-21)
(1.18463 -0.0632013 1.36064e-21)
(1.17895 -0.0556597 8.04504e-22)
(1.17395 -0.0484338 4.42224e-21)
(1.16962 -0.0414766 2.2502e-21)
(1.16592 -0.034745 2.13254e-21)
(1.16285 -0.0281992 -2.41822e-21)
(1.16039 -0.021802 2.14401e-21)
(1.15853 -0.0155195 -7.08589e-22)
(1.15726 -0.00932199 -5.4012e-22)
(1.1566 -0.0031459 -8.40501e-23)
(1.30471 -0.142674 -1.30959e-19)
(1.29387 -0.139113 5.12439e-20)
(1.27978 -0.131354 7.21631e-20)
(1.26483 -0.121583 6.87361e-20)
(1.25067 -0.111499 -1.45607e-19)
(1.23802 -0.101825 1.24044e-19)
(1.22688 -0.0926754 -4.24501e-20)
(1.21699 -0.0840188 -8.8578e-21)
(1.20819 -0.0758222 -1.63565e-20)
(1.20034 -0.0680355 7.57517e-21)
(1.19335 -0.060602 -2.83442e-21)
(1.18715 -0.0534726 1.87916e-20)
(1.18171 -0.0466067 5.49895e-22)
(1.17699 -0.0399677 -5.26829e-21)
(1.17296 -0.0335212 -4.64922e-21)
(1.16962 -0.0272344 -1.68121e-21)
(1.16694 -0.021075 -2.1611e-21)
(1.16491 -0.015014 2.35259e-21)
(1.16353 -0.00902957 7.98355e-22)
(1.16282 -0.00305891 -4.08545e-22)
(1.30296 -0.117053 -3.23762e-19)
(1.30199 -0.121286 -6.74308e-20)
(1.29281 -0.118744 -5.73031e-20)
(1.27911 -0.112055 1.69573e-19)
(1.26449 -0.104033 2.51131e-20)
(1.25078 -0.0958159 -1.3807e-19)
(1.23845 -0.0876683 6.73431e-20)
(1.22749 -0.0797498 -1.5467e-20)
(1.21781 -0.0721624 6.72436e-20)
(1.20923 -0.0649063 -8.36156e-20)
(1.20164 -0.0579396 2.57269e-21)
(1.19494 -0.0512228 4.52145e-21)
(1.18905 -0.0447227 1.53456e-20)
(1.18396 -0.0384096 -1.16654e-20)
(1.17962 -0.0322557 4.7505e-21)
(1.17601 -0.0262344 1.0247e-20)
(1.17312 -0.0203189 5.14769e-21)
(1.17093 -0.0144845 -5.87122e-21)
(1.16945 -0.00871681 -2.59667e-21)
(1.16869 -0.0029584 1.31988e-21)
(1.28314 -0.0877545 -1.33684e-19)
(1.29752 -0.10083 1.42048e-19)
(1.29633 -0.103838 5.61905e-20)
(1.28656 -0.100455 -3.98526e-20)
(1.27407 -0.0949372 6.87242e-21)
(1.26122 -0.0886378 -6.395e-20)
(1.24886 -0.0818882 1.62633e-20)
(1.23744 -0.0750262 -1.42489e-20)
(1.22714 -0.0682664 2.22019e-20)
(1.21794 -0.0616653 -3.12222e-20)
(1.20974 -0.0552279 -3.96167e-20)
(1.2025 -0.0489521 4.98375e-20)
(1.19614 -0.042829 -5.9185e-21)
(1.19064 -0.0368449 -1.12314e-20)
(1.18595 -0.0309832 6.54428e-21)
(1.18206 -0.0252262 1.63935e-21)
(1.17894 -0.0195532 -9.23401e-22)
(1.17659 -0.0139442 4.46183e-21)
(1.17501 -0.00839119 -2.24808e-21)
(1.1742 -0.00284618 -7.07677e-22)
(1.24733 -0.0536925 -1.29676e-19)
(1.29029 -0.0761811 -4.19664e-19)
(1.30249 -0.0868148 5.24784e-19)
(1.2979 -0.0888739 -2.9244e-19)
(1.28654 -0.0867894 1.40208e-19)
(1.27292 -0.0823352 -5.03386e-20)
(1.25929 -0.0766178 2.14458e-20)
(1.24676 -0.0704887 -3.8394e-20)
(1.2356 -0.0643398 7.53447e-20)
(1.22572 -0.0582791 -9.54424e-20)
(1.21698 -0.0523301 5.32849e-20)
(1.20929 -0.0464945 -1.79225e-20)
(1.20254 -0.0407647 6.54959e-20)
(1.1967 -0.035131 -5.42007e-20)
(1.19173 -0.0295837 1.86784e-20)
(1.1876 -0.0241122 5.32172e-21)
(1.1843 -0.0187027 -2.7294e-21)
(1.18182 -0.01334 3.0027e-21)
(1.18016 -0.00802103 -1.04501e-20)
(1.17932 -0.00271151 2.05551e-21)
(1.15934 -0.0253751 2.61492e-19)
(1.23072 -0.0452061 9.14278e-21)
(1.26951 -0.0592979 -6.00477e-19)
(1.28571 -0.0679027 5.01604e-19)
(1.28728 -0.0718865 -3.44373e-19)
(1.2802 -0.0719597 1.83725e-19)
(1.26921 -0.0693748 -8.60301e-20)
(1.25721 -0.0652917 5.92442e-20)
(1.2456 -0.0604367 -1.16236e-20)
(1.23494 -0.0552188 -3.4982e-20)
(1.22537 -0.0498605 2.73785e-21)
(1.21691 -0.0444714 1.8374e-20)
(1.2095 -0.0390996 1.92311e-20)
(1.20308 -0.0337655 -1.30091e-20)
(1.19762 -0.0284767 1.65208e-20)
(1.1931 -0.0232339 -7.60699e-21)
(1.18949 -0.0180317 1.35992e-11)
(1.18678 -0.0128604 -1.3487e-11)
(1.18498 -0.00772041 7.91739e-21)
(1.18409 -0.00259167 -4.56246e-21)
(1.13281 -0.0109303 -2.53114e-27)
(1.2206 -0.0346122 2.537e-27)
(1.26624 -0.0482343 0)
(1.28697 -0.0572361 0)
(1.29117 -0.0620584 0)
(1.28554 -0.0632141 0)
(1.27518 -0.061797 -1.47862e-27)
(1.26325 -0.0587915 1.47872e-27)
(1.25139 -0.0548684 0)
(1.24036 -0.0504496 0)
(1.23042 -0.045781 0)
(1.22161 -0.040994 0)
(1.21388 -0.0361559 0)
(1.2072 -0.031302 0)
(1.20152 -0.0264513 6.26566e-28)
(1.19682 -0.0216136 -6.26807e-28)
(1.19308 -0.0167918 1.36213e-11)
(1.19028 -0.011983 -1.36277e-11)
(1.18843 -0.0071898 0)
(1.18751 -0.00240569 0)
(1.11803 -0.000944206 5.08761e-27)
(1.21218 -0.0264486 -5.0943e-27)
(1.2614 -0.0403967 0)
(1.28462 -0.0496366 0)
(1.29072 -0.0548857 3.48624e-27)
(1.2865 -0.0567138 -3.48624e-27)
(1.27705 -0.0560735 2.0432e-27)
(1.26561 -0.0538205 -2.0432e-27)
(1.25398 -0.0505793 0)
(1.24303 -0.0467639 0)
(1.23309 -0.0426255 0)
(1.22424 -0.038306 0)
(1.21647 -0.0338843 0)
(1.20974 -0.0294056 0)
(1.20401 -0.0248969 0)
(1.19927 -0.0203746 0)
(1.19549 -0.0158475 1.39042e-11)
(1.19267 -0.0113181 -1.39042e-11)
(1.1908 -0.00679147 8.38435e-28)
(1.18987 -0.00226921 -8.43743e-28)
(1.10437 0.00701571 -2.42804e-27)
(1.20272 -0.0180635 2.43118e-27)
(1.25506 -0.0326609 0)
(1.28046 -0.0423528 0)
(1.28839 -0.0480742 -1.671e-27)
(1.28567 -0.0505298 1.671e-27)
(1.27731 -0.0505869 0)
(1.2666 -0.0490151 0)
(1.25543 -0.0464026 0)
(1.24477 -0.0431529 0)
(1.23501 -0.0395185 -9.02732e-28)
(1.22627 -0.035649 9.02732e-28)
(1.21857 -0.031632 -1.84074e-11)
(1.21189 -0.0275208 1.84074e-11)
(1.20619 -0.0233491 -6.67696e-28)
(1.20147 -0.019139 6.67696e-28)
(1.19771 -0.0149048 1.46177e-11)
(1.19489 -0.0106541 -1.46177e-11)
(1.19303 -0.00639512 -6.40531e-28)
(1.19211 -0.00213517 6.44587e-28)
(1.0912 0.0138285 4.97906e-27)
(1.19276 -0.00991936 -4.98543e-27)
(1.24843 -0.0251595 0)
(1.2761 -0.0353786 0)
(1.28584 -0.0416042 0)
(1.28457 -0.0446565 0)
(1.27727 -0.0453513 0)
(1.26729 -0.0444019 0)
(1.25661 -0.0423688 0)
(1.24625 -0.0396459 0)
(1.23669 -0.0364864 0)
(1.22809 -0.0330457 0)
(1.22048 -0.0294181 -3.80212e-11)
(1.21386 -0.0256632 3.80212e-11)
(1.20821 -0.0218204 0)
(1.20352 -0.0179168 0)
(1.19977 -0.0139713 0)
(1.19698 -0.0099961 0)
(1.19512 -0.00600306 0)
(1.1942 -0.00200361 0)
(1.0789 0.0199016 0)
(1.18283 -0.00234986 0)
(1.24176 -0.0180633 -1.09101e-28)
(1.27179 -0.0287532 1.09101e-28)
(1.28332 -0.035456 0)
(1.28343 -0.0390588 0)
(1.27715 -0.040336 -1.5073e-27)
(1.26787 -0.0399582 1.5073e-27)
(1.25766 -0.0384623 0)
(1.24761 -0.0362328 0)
(1.23824 -0.033523 0)
(1.22977 -0.0304921 0)
(1.22225 -0.0272399 -1.95763e-11)
(1.21569 -0.0238311 1.95763e-11)
(1.21009 -0.0203096 7.19415e-28)
(1.20543 -0.016707 -7.19415e-28)
(1.20171 -0.0130461 0)
(1.19893 -0.00934359 0)
(1.19708 -0.00561454 0)
(1.19617 -0.00187382 0)
(1.06763 0.0252969 0)
(1.17314 0.00455249 0)
(1.23499 -0.0114216 0)
(1.26733 -0.0224897 0)
(1.28062 -0.0296217 -5.54715e-28)
(1.28209 -0.0337228 5.54715e-28)
(1.27681 -0.0355291 4.87853e-28)
(1.26824 -0.0356761 -4.87853e-28)
(1.2585 -0.034679 0)
(1.24876 -0.0329126 0)
(1.2396 -0.0306289 0)
(1.23127 -0.0279899 0)
(1.22385 -0.0250996 0)
(1.21737 -0.0220265 0)
(1.21182 -0.0188187 0)
(1.2072 -0.0155113 0)
(1.20351 -0.0121308 1.64813e-11)
(1.20074 -0.0086975 -1.64813e-11)
(1.19891 -0.00522987 2.34694e-28)
(1.198 -0.00174563 -2.3618e-28)
(1.05733 0.0300879 0)
(1.16374 0.0108092 0)
(1.22811 -0.0052289 9.19825e-28)
(1.26266 -0.0165842 -9.19825e-28)
(1.27768 -0.0240965 -2.16607e-27)
(1.28048 -0.028646 2.16607e-27)
(1.2762 -0.030932 0)
(1.26834 -0.0315603 0)
(1.25909 -0.0310254 1.52733e-27)
(1.24968 -0.0296926 -1.52733e-27)
(1.24075 -0.0278117 0)
(1.23258 -0.0255463 0)
(1.22528 -0.0230035 -2.05614e-11)
(1.21888 -0.0202551 2.05614e-11)
(1.2134 -0.0173524 0)
(1.20882 -0.0143335 0)
(1.20517 -0.0112281 1.70158e-11)
(1.20243 -0.00805991 -1.70158e-11)
(1.2006 -0.00485021 0)
(1.1997 -0.0016193 0)
(1.04787 0.0343698 0)
(1.15466 0.0164654 0)
(1.22117 0.000526652 0)
(1.2578 -0.0110308 0)
(1.27451 -0.0188752 0)
(1.27863 -0.0238259 0)
(1.27534 -0.0265462 0)
(1.2682 -0.0276151 0)
(1.25945 -0.0275079 3.90793e-28)
(1.25039 -0.0265801 -3.90793e-28)
(1.24171 -0.0250787 0)
(1.23371 -0.0231683 0)
(1.22654 -0.020958 -2.09727e-11)
(1.22024 -0.0185225 2.09727e-11)
(1.21482 -0.0159153 2.64651e-28)
(1.21031 -0.0131774 -2.64651e-28)
(1.20669 -0.0103411 2.45636e-28)
(1.20398 -0.00743288 -2.45636e-28)
(1.20217 -0.00447671 0)
(1.20128 -0.00149511 0)
(1.03915 0.0382154 0)
(1.14593 0.0215677 0)
(1.21424 0.00585687 0)
(1.25282 -0.00582349 0)
(1.27117 -0.0139512 0)
(1.27658 -0.0192579 0)
(1.27427 -0.0223704 0)
(1.26785 -0.0238419 0)
(1.25961 -0.0241297 0)
(1.25091 -0.0235794 0)
(1.24248 -0.0224348 0)
(1.23467 -0.0208608 0)
(1.22764 -0.018968 -2.13332e-11)
(1.22144 -0.0168329 2.13332e-11)
(1.21611 -0.0145113 1.9278e-11)
(1.21165 -0.0120462 -1.9278e-11)
(1.20808 -0.00947216 9.9114e-28)
(1.2054 -0.0068181 -9.9114e-28)
(1.20362 -0.00411034 -1.39077e-28)
(1.20273 -0.00137334 1.39957e-28)
(1.03108 0.0416771 0)
(1.13757 0.0261659 0)
(1.20737 0.0107753 0)
(1.24776 -0.000956449 0)
(1.26768 -0.00931514 0)
(1.27435 -0.014936 0)
(1.27301 -0.0184015 0)
(1.2673 -0.0202404 0)