/*--------------------------------*- C++ -*----------------------------------*\
  =========                 |
  \\      /  F ield         | OpenFOAM: The Open Source CFD Toolbox
   \\    /   O peration     | Website:  https://openfoam.org
    \\  /    A nd           | Version:  7
     \\/     M anipulation  |
\*---------------------------------------------------------------------------*/
FoamFile
{
    version     2.0;
    format      ascii;
    class       volScalarField;
    location    "20";
    object      p;
}
// * * * * * * * * * * * * * * * * * * * * * * * * * * * * * * * * * * * * * //

dimensions      [0 2 -2 0 0 0 0];

internalField   nonuniform List<scalar> 
1360
(
-0.0208831
-0.0201399
-0.0194183
-0.0187174
-0.0180362
-0.0173739
-0.0167297
-0.0161028
-0.0154925
-0.0148982
-0.014319
-0.0137545
-0.013204
-0.0126669
-0.0121426
-0.0116307
-0.0111307
-0.010642
-0.0101643
-0.00969704
-0.00923988
-0.0087924
-0.00835424
-0.00792503
-0.00750443
-0.00709212
-0.00668777
-0.00629109
-0.00590179
-0.00551958
-0.0051442
-0.00477537
-0.00441284
-0.00405635
-0.00370565
-0.00336048
-0.00302058
-0.0026857
-0.00235555
-0.00202984
-0.00170826
-0.00139047
-0.00107609
-0.00076471
-0.00045575
-0.000148302
0.000157013
0.000453099
0.00076245
0.0012675
0.00164802
-0.0210206
-0.0202731
-0.0195474
-0.0188425
-0.0181575
-0.0174914
-0.0168436
-0.0162133
-0.0155997
-0.015002
-0.0144197
-0.0138522
-0.0132987
-0.0127587
-0.0122317
-0.0117171
-0.0112145
-0.0107233
-0.0102431
-0.00977352
-0.00931407
-0.00886439
-0.00842409
-0.00799281
-0.00757021
-0.00715597
-0.00674976
-0.00635129
-0.00596026
-0.00557639
-0.00519941
-0.00482906
-0.00446508
-0.00410722
-0.00375523
-0.00340886
-0.00306787
-0.002732
-0.00240098
-0.00207456
-0.00175243
-0.00143428
-0.00111978
-0.000808556
-0.000500113
-0.000193637
0.000110267
0.00040484
0.00071068
0.00120062
0.00157508
-0.0205395
-0.0198055
-0.0190926
-0.0183998
-0.0177264
-0.0170713
-0.016434
-0.0158136
-0.0152094
-0.0146208
-0.0140471
-0.0134877
-0.012942
-0.0124094
-0.0118894
-0.0113816
-0.0108853
-0.0104003
-0.00992594
-0.00946191
-0.00900778
-0.00856319
-0.00812776
-0.00770115
-0.00728302
-0.00687307
-0.00647098
-0.00607647
-0.00568926
-0.00530908
-0.00493566
-0.00456876
-0.00420813
-0.00385354
-0.00350474
-0.00316151
-0.00282361
-0.00249081
-0.00216287
-0.00183954
-0.00152056
-0.00120567
-0.000894588
-0.000586935
-0.000282091
1.93679e-05
0.00031131
0.000610934
0.00107313
0.00143623
-0.0209385
-0.0201921
-0.0194672
-0.0187628
-0.0180781
-0.0174122
-0.0167643
-0.0161337
-0.0155196
-0.0149215
-0.0143385
-0.0137701
-0.0132157
-0.0126748
-0.0121467
-0.011631
-0.0111271
-0.0106347
-0.0101532
-0.00968222
-0.0092214
-0.00877033
-0.00832863
-0.00789595
-0.00747197
-0.00705636
-0.00664881
-0.00624904
-0.00585677
-0.00547173
-0.00509366
-0.00472233
-0.00435749
-0.00399891
-0.00364638
-0.00329969
-0.00295863
-0.002623
-0.00229261
-0.00196725
-0.00164676
-0.00133093
-0.00101961
-0.000712578
-0.000409445
-0.000110768
0.000178165
0.000470322
0.000896614
0.00124451
-0.021469
-0.020706
-0.019965
-0.019245
-0.0185452
-0.0178647
-0.0172027
-0.0165584
-0.0159312
-0.0153202
-0.0147248
-0.0141444
-0.0135784
-0.0130262
-0.0124872
-0.0119609
-0.0114468
-0.0109444
-0.0104534
-0.00997314
-0.00950333
-0.00904356
-0.00859345
-0.00815263
-0.00772078
-0.00729757
-0.00688268
-0.00647584
-0.00607675
-0.00568516
-0.00530081
-0.00492346
-0.00455289
-0.00418888
-0.00383124
-0.00347976
-0.00313428
-0.00279463
-0.00246065
-0.00213222
-0.00180922
-0.00149155
-0.00117916
-0.000871993
-0.000569899
-0.00027342
1.31157e-05
0.000298364
0.000686116
0.00101704
-0.0221197
-0.0213363
-0.0205756
-0.0198365
-0.0191182
-0.0184197
-0.0177404
-0.0170793
-0.0164357
-0.015809
-0.0151983
-0.0146032
-0.0140228
-0.0134567
-0.0129043
-0.012365
-0.0118383
-0.0113237
-0.0108208
-0.0103291
-0.00984817
-0.00937764
-0.00891712
-0.00846623
-0.00802463
-0.00759199
-0.007168
-0.00675236
-0.00634479
-0.00594503
-0.00555282
-0.00516794
-0.00479017
-0.00441929
-0.00405513
-0.00369752
-0.00334629
-0.00300133
-0.00266251
-0.00232975
-0.002003
-0.00168225
-0.00136752
-0.00105889
-0.000756407
-0.0004606
-0.000174809
0.000105877
0.000457972
0.000772603
-0.0220939
-0.0213092
-0.0205469
-0.0198061
-0.0190859
-0.0183854
-0.0177039
-0.0170405
-0.0163945
-0.0157653
-0.0151521
-0.0145543
-0.0139712
-0.0134024
-0.0128472
-0.0123051
-0.0117756
-0.0112583
-0.0107526
-0.0102581
-0.00977446
-0.00930121
-0.008838
-0.00838447
-0.00794029
-0.00750513
-0.0070787
-0.00666071
-0.00625089
-0.00584899
-0.00545478
-0.00506805
-0.00468859
-0.00431624
-0.00395083
-0.00359223
-0.00324033
-0.00289505
-0.00255634
-0.00222418
-0.0018986
-0.00157969
-0.00126761
-0.000962501
-0.00066485
-0.000377041
-9.68892e-05
0.000227298
0.000529089
-0.0230189
-0.0222035
-0.0214115
-0.0206419
-0.0198938
-0.0191664
-0.0184588
-0.0177702
-0.0170999
-0.0164471
-0.015811
-0.0151911
-0.0145867
-0.0139973
-0.0134221
-0.0128607
-0.0123125
-0.011777
-0.0112538
-0.0107424
-0.0102423
-0.0097532
-0.00927464
-0.00880626
-0.00834772
-0.00789868
-0.00745882
-0.00702786
-0.00660552
-0.00619154
-0.00578568
-0.00538774
-0.0049975
-0.00461481
-0.00423949
-0.00387144
-0.00351055
-0.00315675
-0.00281
-0.00247031
-0.00213772
-0.00181233
-0.00149429
-0.00118379
-0.000881152
-0.000587832
-0.000302961
4.65755e-06
0.000299095
-0.0227956
-0.0219919
-0.0212107
-0.0204512
-0.0197125
-0.0189937
-0.018294
-0.0176127
-0.0169491
-0.0163024
-0.015672
-0.0150572
-0.0144575
-0.0138723
-0.0133009
-0.012743
-0.0121979
-0.0116652
-0.0111444
-0.0106352
-0.010137
-0.00964958
-0.00917246
-0.00870531
-0.00824782
-0.00779966
-0.00736054
-0.00693019
-0.00650836
-0.00609481
-0.00568933
-0.00529173
-0.00490185
-0.00451953
-0.00414467
-0.00377716
-0.00341696
-0.00306403
-0.00271838
-0.00238006
-0.00204916
-0.0017258
-0.00141016
-0.00110245
-0.000803343
-0.00051251
-0.00021657
6.81866e-05
-0.0234982
-0.0226826
-0.0218892
-0.0211171
-0.0203657
-0.019634
-0.0189213
-0.018227
-0.0175502
-0.0168904
-0.0162468
-0.0156189
-0.0150062
-0.0144079
-0.0138237
-0.0132529
-0.0126951
-0.0121499
-0.0116167
-0.0110952
-0.0105849
-0.0100856
-0.00959669
-0.00911798
-0.0086491
-0.00818975
-0.00773964
-0.0072985
-0.00686609
-0.00644217
-0.00602653
-0.00561899
-0.00521939
-0.00482757
-0.00444343
-0.00406687
-0.00369784
-0.0033363
-0.00298225
-0.00263573
-0.00229682
-0.00196563
-0.00164232
-0.00132707
-0.00102014
-0.000721846
-0.000433449
-0.000154751
-0.0242053
-0.0233784
-0.0225733
-0.0217893
-0.0210256
-0.0202815
-0.0195563
-0.0188492
-0.0181596
-0.0174868
-0.0168303
-0.0161895
-0.0155638
-0.0149526
-0.0143555
-0.0137719
-0.0132014
-0.0126435
-0.0120978
-0.0115638
-0.0110412
-0.0105297
-0.0100287
-0.00953809
-0.00905743
-0.00858644
-0.00812484
-0.00767236
-0.00722876
-0.00679379
-0.00636727
-0.00594898
-0.00553878
-0.0051365
-0.00474203
-0.00435527
-0.00397615
-0.00360462
-0.00324067
-0.00288431
-0.0025356
-0.00219461
-0.00186149
-0.00153639
-0.00121926
-0.000910591
-0.000621663
-0.000343958
-0.0249287
-0.0240909
-0.0232746
-0.0224789
-0.0217033
-0.0209468
-0.020209
-0.0194891
-0.0187866
-0.0181007
-0.0174311
-0.016777
-0.0161379
-0.0155134
-0.0149029
-0.014306
-0.0137222
-0.0131511
-0.0125922
-0.0120451
-0.0115095
-0.010985
-0.0104712
-0.00996786
-0.00947456
-0.00899105
-0.00851703
-0.00805224
-0.00759643
-0.00714937
-0.00671085
-0.00628066
-0.00585864
-0.00544462
-0.00503847
-0.00464007
-0.00424934
-0.00386621
-0.00349064
-0.00312261
-0.00276213
-0.00240926
-0.00206407
-0.00172667
-0.00139683
-0.00107489
-0.000778291
-0.000496594
-0.0256463
-0.0247988
-0.0239722
-0.0231657
-0.0223788
-0.0216107
-0.0208609
-0.0201288
-0.0194137
-0.0187151
-0.0180325
-0.0173654
-0.0167132
-0.0160754
-0.0154516
-0.0148414
-0.0142442
-0.0136597
-0.0130874
-0.0125271
-0.0119782
-0.0114404
-0.0109134
-0.0103969
-0.00989051
-0.00939398
-0.008907
-0.00842931
-0.00796066
-0.00750081
-0.00704954
-0.00660664
-0.00617193
-0.00574523
-0.00532638
-0.00491527
-0.00451176
-0.00411576
-0.0037272
-0.00334602
-0.00297219
-0.0026057
-0.00224658
-0.00189486
-0.00155021
-0.00121269
-0.000902893
-0.000612496
-0.0263437
-0.0254878
-0.0246521
-0.023836
-0.0230389
-0.0222601
-0.0214992
-0.0207556
-0.0200288
-0.0193181
-0.0186232
-0.0179436
-0.0172787
-0.0166281
-0.0159914
-0.0153681
-0.0147578
-0.0141601
-0.0135747
-0.0130011
-0.0124389
-0.0118879
-0.0113477
-0.0108179
-0.0102983
-0.00978855
-0.00928837
-0.00879749
-0.00831565
-0.00784261
-0.00737813
-0.00692201
-0.00647403
-0.006034
-0.00560176
-0.00517714
-0.00475999
-0.00435019
-0.00394761
-0.00355217
-0.00316378
-0.00278236
-0.00240787
-0.00204029
-0.00167919
-0.00132435
-0.00099742
-0.000694147
-0.0270089
-0.0261461
-0.0253028
-0.0244783
-0.0236722
-0.022884
-0.0221131
-0.0213591
-0.0206214
-0.0198997
-0.0191933
-0.018502
-0.0178251
-0.0171624
-0.0165134
-0.0158777
-0.0152548
-0.0146444
-0.0140462
-0.0134597
-0.0128847
-0.0123207
-0.0117674
-0.0112246
-0.0106919
-0.010169
-0.0096557
-0.00915162
-0.00865653
-0.00817019
-0.00769236
-0.00722279
-0.00676128
-0.00630761
-0.00586158
-0.00542301
-0.00499172
-0.00456755
-0.00415032
-0.00373991
-0.00333617
-0.00293897
-0.0025482
-0.00216375
-0.00178514
-0.00141192
-0.00106541
-0.000745924
-0.0276327
-0.0267645
-0.0259149
-0.0250835
-0.0242698
-0.0234734
-0.0226938
-0.0219306
-0.0211832
-0.0204514
-0.0197347
-0.0190326
-0.0183448
-0.0176708
-0.0170103
-0.0163629
-0.0157282
-0.0151059
-0.0144955
-0.0138968
-0.0133094
-0.012733
-0.0121672
-0.0116118
-0.0110664
-0.0105308
-0.0100046
-0.00948754
-0.00897943
-0.00847997
-0.00798891
-0.00750599
-0.00703099
-0.00656367
-0.00610381
-0.00565119
-0.00520562
-0.00476688
-0.00433477
-0.00390911
-0.0034897
-0.00307636
-0.0026689
-0.00226714
-0.00187058
-0.00147855
-0.00111131
-0.000773304
-0.0282087
-0.0273365
-0.0264821
-0.0256451
-0.0248252
-0.0240219
-0.0232348
-0.0224636
-0.0217079
-0.0209672
-0.0202412
-0.0195295
-0.0188317
-0.0181475
-0.0174766
-0.0168184
-0.0161728
-0.0155393
-0.0149177
-0.0143075
-0.0137086
-0.0131204
-0.0125428
-0.0119754
-0.0114179
-0.0108701
-0.0103315
-0.00980209
-0.00928143
-0.00876928
-0.00826538
-0.00776947
-0.0072813
-0.00680062
-0.00632719
-0.00586076
-0.0054011
-0.00494796
-0.00450112
-0.00406034
-0.00362538
-0.003196
-0.00277195
-0.002353
-0.00193859
-0.00152793
-0.00113989
-0.000782117
-0.0287331
-0.0278582
-0.0270003
-0.026159
-0.0253341
-0.0245252
-0.0237319
-0.022954
-0.0221909
-0.0214425
-0.0207084
-0.0199882
-0.0192816
-0.0185883
-0.0179079
-0.0172401
-0.0165845
-0.0159409
-0.015309
-0.0146883
-0.0140786
-0.0134796
-0.0128909
-0.0123124
-0.0117436
-0.0111843
-0.0106342
-0.010093
-0.00956042
-0.00903622
-0.00852011
-0.0080118
-0.00751104
-0.00701756
-0.00653108
-0.00605136
-0.00557811
-0.00511109
-0.00465
-0.0041946
-0.00374458
-0.00329968
-0.00285958
-0.00242401
-0.00199238
-0.00156381
-0.00115571
-0.000777944
-0.0292041
-0.0283276
-0.0274673
-0.026623
-0.0257942
-0.0249808
-0.0241824
-0.0233989
-0.0226297
-0.0218748
-0.0211336
-0.0204061
-0.0196918
-0.0189904
-0.0183016
-0.0176252
-0.0169607
-0.016308
-0.0156667
-0.0150365
-0.0144171
-0.0138081
-0.0132094
-0.0126206
-0.0120414
-0.0114715
-0.0109107
-0.0103586
-0.009815
-0.00927957
-0.00875203
-0.00823212
-0.00771954
-0.00721402
-0.00671527
-0.00622301
-0.00573695
-0.0052568
-0.00478226
-0.00431302
-0.00384878
-0.00338922
-0.00293399
-0.00248276
-0.00203495
-0.00158961
-0.0011628
-0.000765682
-0.0296216
-0.0287445
-0.0278827
-0.0270361
-0.0262045
-0.0253876
-0.0245852
-0.023797
-0.0230228
-0.0222623
-0.0215153
-0.0207814
-0.0200604
-0.019352
-0.018656
-0.017972
-0.0172997
-0.0166389
-0.0159893
-0.0153506
-0.0147224
-0.0141046
-0.0134968
-0.0128987
-0.0123101
-0.0117306
-0.01116
-0.010598
-0.0100443
-0.00949856
-0.00896055
-0.00842996
-0.00790651
-0.00738989
-0.00687981
-0.00637597
-0.00587806
-0.00538577
-0.00489878
-0.00441676
-0.00393939
-0.0034663
-0.00299713
-0.00253152
-0.00206887
-0.00160823
-0.00116444
-0.000749297
-0.0299864
-0.0291092
-0.0282467
-0.0273987
-0.026565
-0.0257455
-0.0249399
-0.0241481
-0.0233697
-0.0226047
-0.0218527
-0.0211135
-0.0203868
-0.0196725
-0.0189701
-0.0182796
-0.0176005
-0.0169327
-0.0162758
-0.0156296
-0.0149938
-0.0143681
-0.0137522
-0.0131459
-0.0125489
-0.0119609
-0.0113815
-0.0108106
-0.0102478
-0.00969283
-0.00914538
-0.00860517
-0.00807189
-0.00754524
-0.00702491
-0.00651059
-0.00600195
-0.00549868
-0.00500043
-0.00450686
-0.00401761
-0.00353233
-0.00305062
-0.0025721
-0.00209618
-0.0016219
-0.00116311
-0.000731747
-0.0303
-0.0294232
-0.0285605
-0.0277117
-0.0268766
-0.0260551
-0.0252471
-0.0244524
-0.0236707
-0.022902
-0.0221459
-0.0214023
-0.0206709
-0.0199515
-0.0192438
-0.0185477
-0.0178628
-0.0171889
-0.0165258
-0.0158731
-0.0152307
-0.0145981
-0.0139753
-0.0133618
-0.0127575
-0.0121619
-0.0115749
-0.0109962
-0.0104254
-0.00986226
-0.00930649
-0.00875777
-0.00821581
-0.00768028
-0.00715088
-0.00662729
-0.00610916
-0.00559616
-0.00508795
-0.00458418
-0.00408447
-0.00358845
-0.00309572
-0.0026059
-0.00211839
-0.00163226
-0.00116054
-0.000715035
-0.0305641
-0.0296881
-0.0288255
-0.0279763
-0.0271403
-0.0263175
-0.0255077
-0.0247107
-0.0239264
-0.0231547
-0.0223953
-0.0216481
-0.0209128
-0.0201892
-0.0194771
-0.0187764
-0.0180866
-0.0174076
-0.0167392
-0.0160811
-0.015433
-0.0147947
-0.0141659
-0.0135463
-0.0129357
-0.0123338
-0.0117402
-0.0111547
-0.0105771
-0.0100069
-0.00944397
-0.00888793
-0.00833847
-0.0077953
-0.00725807
-0.00672647
-0.00620015
-0.00567877
-0.00516198
-0.00464943
-0.00414072
-0.0036355
-0.00313335
-0.00263388
-0.00213652
-0.00164036
-0.00115779
-0.000700351
-0.0307808
-0.0299056
-0.0290434
-0.028194
-0.0273575
-0.0265337
-0.0257226
-0.024924
-0.0241377
-0.0233636
-0.0226016
-0.0218515
-0.0211131
-0.0203862
-0.0196705
-0.0189659
-0.0182722
-0.0175891
-0.0169164
-0.0162538
-0.0156011
-0.014958
-0.0143242
-0.0136996
-0.0130837
-0.0124764
-0.0118774
-0.0112864
-0.010703
-0.010127
-0.00955803
-0.00899586
-0.00844015
-0.00789057
-0.0073468
-0.0068085
-0.00627534
-0.00574696
-0.00522302
-0.00470314
-0.00418696
-0.00367408
-0.00316413
-0.0026567
-0.00215122
-0.00164683
-0.00115544
-0.00068826
-0.0309516
-0.0300773
-0.0292156
-0.0283663
-0.0275295
-0.0267051
-0.025893
-0.0250931
-0.0243053
-0.0235295
-0.0227655
-0.0220132
-0.0212724
-0.0205428
-0.0198244
-0.0191169
-0.01842
-0.0177337
-0.0170575
-0.0163914
-0.015735
-0.0150881
-0.0144504
-0.0138217
-0.0132018
-0.0125902
-0.0119868
-0.0113913
-0.0108033
-0.0102226
-0.0096489
-0.00908183
-0.0085211
-0.0079664
-0.00741738
-0.00687373
-0.00633509
-0.00580111
-0.00527144
-0.00474572
-0.00422357
-0.00370462
-0.00318846
-0.00267472
-0.00216284
-0.00165197
-0.00115369
-0.0006789
-0.0310783
-0.0302048
-0.0293434
-0.0284943
-0.0276573
-0.0268325
-0.0260198
-0.0252191
-0.0244303
-0.0236532
-0.0228878
-0.0221339
-0.0213912
-0.0206598
-0.0199393
-0.0192296
-0.0185305
-0.0178417
-0.017163
-0.0164942
-0.0158351
-0.0151853
-0.0145448
-0.0139131
-0.01329
-0.0126753
-0.0120686
-0.0114697
-0.0108783
-0.0102941
-0.00971681
-0.00914607
-0.00858158
-0.00802303
-0.00747008
-0.00692241
-0.00637966
-0.00584149
-0.00530754
-0.00477745
-0.00425085
-0.00372735
-0.00320658
-0.00268815
-0.00217152
-0.00165585
-0.00115252
-0.00067216
-0.0311621
-0.0302891
-0.0294281
-0.0285791
-0.0277421
-0.026917
-0.0261039
-0.0253027
-0.0245132
-0.0237353
-0.0229689
-0.022214
-0.0214702
-0.0207375
-0.0200157
-0.0193045
-0.0186039
-0.0179135
-0.0172331
-0.0165626
-0.0159016
-0.01525
-0.0146075
-0.0139738
-0.0133487
-0.0127319
-0.012123
-0.0115219
-0.0109282
-0.0103417
-0.00976198
-0.00918878
-0.00862179
-0.00806067
-0.00750511
-0.00695475
-0.00640927
-0.00586831
-0.00533152
-0.00479853
-0.00426897
-0.00374247
-0.00321865
-0.00269712
-0.00217732
-0.00165842
-0.00115165
-0.000667319
-0.0312038
-0.030331
-0.0294702
-0.0286212
-0.0277842
-0.0269591
-0.0261458
-0.0253443
-0.0245544
-0.0237762
-0.0230094
-0.0222539
-0.0215096
-0.0207762
-0.0200537
-0.0193419
-0.0186405
-0.0179493
-0.0172681
-0.0165967
-0.0159349
-0.0152823
-0.0146388
-0.0140041
-0.013378
-0.0127601
-0.0121502
-0.0115479
-0.0109531
-0.0103654
-0.00978451
-0.00921009
-0.00864184
-0.00807944
-0.00752257
-0.00697088
-0.00642404
-0.00588169
-0.00534348
-0.00480905
-0.00427803
-0.00375006
-0.00322477
-0.00270177
-0.00218056
-0.00166053
-0.00115287
-0.000661391
)
;

boundaryField
{
    inlet
    {
        type            zeroGradient;
    }
    outlet
    {
        type            fixedValue;
        value           uniform 0;
    }
    cylinder
    {
        type            zeroGradient;
    }
    top
    {
        type            symmetryPlane;
    }
    bottom
    {
        type            symmetryPlane;
    }
    defaultFaces
    {
        type            empty;
    }
    procBoundary7to3
    {
        type            processor;
        value           nonuniform List<scalar> 
51
(
-0.0208831
-0.0201399
-0.0194183
-0.0187174
-0.0180362
-0.0173739
-0.0167297
-0.0161028
-0.0154925
-0.0148982
-0.014319
-0.0137545
-0.013204
-0.0126669
-0.0121426
-0.0116307
-0.0111307
-0.010642
-0.0101643
-0.00969704
-0.00923988
-0.0087924
-0.00835423
-0.00792503
-0.00750443
-0.00709211
-0.00668777
-0.00629109
-0.00590179
-0.00551958
-0.0051442
-0.00477537
-0.00441284
-0.00405635
-0.00370565
-0.00336048
-0.00302058
-0.0026857
-0.00235555
-0.00202984
-0.00170826
-0.00139047
-0.00107609
-0.000764708
-0.000455749
-0.000148302
0.000157012
0.000453097
0.000762448
0.0012675
0.00164802
)
;
    }
    procBoundary7to6
    {
        type            processor;
        value           nonuniform List<scalar> 
31
(
-0.0216488
-0.0217907
-0.0212954
-0.0212954
-0.0217073
-0.022255
-0.0229268
-0.022902
-0.022902
-0.0238588
-0.0236229
-0.0236229
-0.024337
-0.025055
-0.0257886
-0.0265153
-0.0272204
-0.0278917
-0.02852
-0.0290991
-0.0296253
-0.0300971
-0.0305144
-0.0308785
-0.0311909
-0.0314536
-0.0316689
-0.0318385
-0.0319641
-0.0320471
-0.0320884
)
;
    }
}


// ************************************************************************* //
