/*--------------------------------*- C++ -*----------------------------------*\
  =========                 |
  \\      /  F ield         | OpenFOAM: The Open Source CFD Toolbox
   \\    /   O peration     | Website:  https://openfoam.org
    \\  /    A nd           | Version:  7
     \\/     M anipulation  |
\*---------------------------------------------------------------------------*/
FoamFile
{
    version     2.0;
    format      ascii;
    class       volScalarField;
    location    "105";
    object      p;
}
// * * * * * * * * * * * * * * * * * * * * * * * * * * * * * * * * * * * * * //

dimensions      [0 2 -2 0 0 0 0];

internalField   nonuniform List<scalar> 
3700
(
0.641346
0.613539
0.592456
0.561889
0.528742
0.494837
0.461766
0.430251
0.400705
0.373281
0.348
0.324798
0.303606
0.284341
0.266821
0.638636
0.611175
0.590495
0.560308
0.527482
0.493849
0.461007
0.429685
0.400301
0.373013
0.347844
0.324734
0.303617
0.28442
0.266978
0.63119
0.604543
0.584834
0.555537
0.523459
0.490457
0.458147
0.427273
0.398268
0.371302
0.346407
0.323524
0.302591
0.283568
0.266342
0.619089
0.59371
0.575528
0.547622
0.516713
0.484694
0.453212
0.423038
0.394627
0.368166
0.343702
0.321181
0.30054
0.281792
0.264918
0.60245
0.578776
0.562658
0.536632
0.5073
0.476607
0.446242
0.417015
0.389406
0.36363
0.339752
0.317721
0.29748
0.279106
0.262712
0.581427
0.559871
0.546331
0.522654
0.495293
0.466259
0.437292
0.409247
0.382643
0.357725
0.334583
0.313171
0.293433
0.275525
0.25973
0.55621
0.537154
0.526678
0.505798
0.480785
0.453726
0.426425
0.399791
0.374386
0.350492
0.328229
0.307559
0.288426
0.271071
0.255983
0.527024
0.510813
0.503855
0.486191
0.463883
0.439099
0.413717
0.38871
0.364688
0.341979
0.320732
0.300922
0.282489
0.265769
0.251484
0.494124
0.481065
0.478039
0.463981
0.44471
0.422482
0.399258
0.37608
0.353615
0.332237
0.312137
0.293299
0.275661
0.259647
0.246248
0.457795
0.44815
0.449428
0.439332
0.423403
0.40399
0.383143
0.361984
0.341237
0.32133
0.302497
0.284737
0.26798
0.252738
0.240293
0.418354
0.412335
0.418242
0.412424
0.400114
0.383751
0.365482
0.346512
0.327631
0.309323
0.291868
0.275285
0.25949
0.245078
0.233643
0.376139
0.373907
0.384717
0.383453
0.375006
0.361901
0.34639
0.329764
0.312882
0.296288
0.280314
0.264999
0.250241
0.236705
0.226323
0.331512
0.333175
0.349105
0.352627
0.348254
0.338589
0.325992
0.311846
0.29708
0.282303
0.267901
0.253936
0.240285
0.227662
0.21836
0.284855
0.290465
0.311676
0.320167
0.320041
0.313969
0.304419
0.292868
0.280321
0.26745
0.254701
0.242162
0.229677
0.217992
0.209784
0.236565
0.246117
0.27271
0.286302
0.29056
0.288203
0.281807
0.272948
0.262705
0.251813
0.240786
0.229744
0.21848
0.207744
0.200625
0.187054
0.200487
0.232497
0.251271
0.26001
0.261458
0.258299
0.252207
0.244334
0.235481
0.226233
0.216752
0.206763
0.196966
0.190909
0.13674
0.153938
0.191338
0.215317
0.228594
0.233906
0.234039
0.230767
0.225315
0.218545
0.211116
0.203259
0.194614
0.185731
0.180652
0.0860454
0.106845
0.149538
0.178688
0.196518
0.205719
0.209174
0.208754
0.205756
0.201098
0.195512
0.189331
0.182121
0.174119
0.169818
0.0353871
0.0595863
0.107404
0.141634
0.163991
0.177074
0.183854
0.186294
0.185766
0.183235
0.179495
0.175015
0.169384
0.162343
0.158395
-0.0148146
0.0125347
0.0652439
0.104402
0.131219
0.148146
0.158225
0.163513
0.165453
0.165054
0.163149
0.160359
0.156468
0.150702
0.146152
-0.0641438
-0.0339472
0.0233636
0.0672355
0.0984059
0.119106
0.132435
0.140536
0.144922
0.146649
0.146561
0.14538
0.143258
0.139447
0.133522
-0.112199
-0.0795073
-0.0179385
0.0303718
0.0657519
0.0901241
0.106627
0.117484
0.124277
0.128109
0.129826
0.13019
0.129709
0.128049
0.123559
-0.158589
-0.123817
-0.0583774
-0.00596453
0.0334519
0.0613665
0.080943
0.0944783
0.103618
0.109518
0.11303
0.114911
0.115921
0.116275
0.113774
-0.202856
-0.166576
-0.097702
-0.0415618
0.00169558
0.0329919
0.0555167
0.0716343
0.0830429
0.0909528
0.0962341
0.0996176
0.101975
0.10392
0.103229
-0.244749
-0.207277
-0.135743
-0.0762144
-0.0293316
0.00515212
0.0304778
0.0490632
0.0626481
0.0724918
0.0794918
0.0843524
0.0879649
0.0911752
0.0919438
-0.284007
-0.245344
-0.172497
-0.109696
-0.0594521
-0.0220103
0.00594873
0.0268701
0.042524
0.0542111
0.0628591
0.0691565
0.0739787
0.0783067
0.0803086
-0.320388
-0.280597
-0.207632
-0.141733
-0.0885045
-0.0483619
-0.0179547
0.00515387
0.0227563
0.0361861
0.0463996
0.0540797
0.0600746
0.0654512
0.0686069
-0.353695
-0.313232
-0.240471
-0.172116
-0.116347
-0.0737766
-0.0411246
-0.0159937
0.00342491
0.0184887
0.0301781
0.0391755
0.0462953
0.0526587
0.0569298
-0.383744
-0.343062
-0.270763
-0.200753
-0.142848
-0.0981365
-0.0634623
-0.0364882
-0.0153964
0.00118499
0.0142547
0.0244961
0.0326825
0.0399661
0.0453013
-0.410386
-0.369828
-0.298528
-0.227491
-0.167892
-0.121334
-0.0848796
-0.0562537
-0.0336409
-0.015665
-0.00131581
0.0100905
0.0192801
0.0274179
0.0337595
-0.433528
-0.393357
-0.323694
-0.252225
-0.191414
-0.143267
-0.1053
-0.0752218
-0.0512497
-0.0320075
-0.0164844
-0.00399616
0.00613079
0.0150603
0.0223534
-0.453131
-0.413552
-0.34615
-0.274861
-0.213305
-0.163915
-0.124657
-0.0933329
-0.0681703
-0.0477948
-0.0312073
-0.0177226
-0.00672634
0.00293157
0.011125
-0.469204
-0.430373
-0.365807
-0.295322
-0.233468
-0.183238
-0.142939
-0.110535
-0.0843568
-0.0629847
-0.0454461
-0.0310523
-0.0192549
-0.00894011
0.00010492
-0.481803
-0.44383
-0.382616
-0.313556
-0.25186
-0.20115
-0.16011
-0.126855
-0.0997559
-0.0775424
-0.0591682
-0.0439559
-0.0314191
-0.0205353
-0.0106863
-0.491029
-0.453985
-0.39657
-0.329539
-0.268466
-0.217618
-0.176107
-0.142225
-0.114408
-0.0914471
-0.0723461
-0.0564131
-0.0431841
-0.031828
-0.0212485
-0.497029
-0.460956
-0.4077
-0.343266
-0.283282
-0.23264
-0.190913
-0.156609
-0.12826
-0.104699
-0.0849898
-0.0684118
-0.0545282
-0.0427575
-0.031623
-0.499989
-0.464917
-0.416073
-0.354754
-0.296316
-0.246226
-0.204538
-0.170007
-0.141289
-0.11727
-0.0970602
-0.0799471
-0.065492
-0.0532031
-0.0418982
-0.500138
-0.466092
-0.421799
-0.364043
-0.30759
-0.258395
-0.216998
-0.182433
-0.153496
-0.129147
-0.108541
-0.090991
-0.0760489
-0.0632984
-0.0518368
-0.497737
-0.464755
-0.425026
-0.371197
-0.317144
-0.269178
-0.228316
-0.193903
-0.164895
-0.140336
-0.119432
-0.101533
-0.0861876
-0.0730352
-0.061254
-0.493081
-0.46123
-0.425926
-0.376301
-0.325034
-0.278614
-0.238524
-0.20444
-0.175502
-0.150847
-0.129742
-0.111572
-0.0958959
-0.082382
-0.0702103
-0.486487
-0.45587
-0.424703
-0.379471
-0.331332
-0.286755
-0.24766
-0.214074
-0.185339
-0.160698
-0.139482
-0.121117
-0.105171
-0.0913485
-0.0788268
-0.478289
-0.449039
-0.4216
-0.380846
-0.336122
-0.293663
-0.255774
-0.222843
-0.194434
-0.169908
-0.148665
-0.130177
-0.114026
-0.0999591
-0.0871838
-0.468827
-0.441091
-0.416901
-0.380598
-0.339505
-0.299406
-0.262919
-0.230789
-0.202818
-0.1785
-0.15731
-0.138769
-0.122475
-0.108227
-0.0952981
-0.458441
-0.432356
-0.410921
-0.37892
-0.341588
-0.304056
-0.269151
-0.237959
-0.210529
-0.186502
-0.165438
-0.14691
-0.130534
-0.116153
-0.103147
-0.447455
-0.423129
-0.403994
-0.376023
-0.342494
-0.307692
-0.27453
-0.2444
-0.217605
-0.193945
-0.173071
-0.154617
-0.138217
-0.12374
-0.110709
-0.436172
-0.413669
-0.39646
-0.372136
-0.342352
-0.310395
-0.279115
-0.25016
-0.224085
-0.20086
-0.180234
-0.161908
-0.145536
-0.130995
-0.117983
-0.424856
-0.404197
-0.388634
-0.367496
-0.341301
-0.312245
-0.282964
-0.255286
-0.230008
-0.207278
-0.186953
-0.168801
-0.15251
-0.137937
-0.124979
-0.413731
-0.3949
-0.380793
-0.362347
-0.33949
-0.313326
-0.286129
-0.259819
-0.235408
-0.213228
-0.19325
-0.175316
-0.159154
-0.144582
-0.131711
-0.402973
-0.385933
-0.373148
-0.356929
-0.337075
-0.313721
-0.288657
-0.263792
-0.240315
-0.218737
-0.199151
-0.181472
-0.165487
-0.150952
-0.138196
-0.392714
-0.377418
-0.365852
-0.351468
-0.334217
-0.313516
-0.290591
-0.267232
-0.244751
-0.223824
-0.204673
-0.187287
-0.171525
-0.157063
-0.144449
-0.383041
-0.369445
-0.358998
-0.346156
-0.331078
-0.312798
-0.291967
-0.270155
-0.248726
-0.228502
-0.209831
-0.192775
-0.177282
-0.162935
-0.150486
-0.374005
-0.362067
-0.352643
-0.341132
-0.327813
-0.311658
-0.29282
-0.272567
-0.25224
-0.232771
-0.214631
-0.197946
-0.182772
-0.168586
-0.156328
-0.365627
-0.355302
-0.346811
-0.336472
-0.324559
-0.310191
-0.293183
-0.274464
-0.255279
-0.236619
-0.219069
-0.202805
-0.188005
-0.174033
-0.161996
-0.357905
-0.349138
-0.341507
-0.332201
-0.321419
-0.308492
-0.293096
-0.27584
-0.257817
-0.240019
-0.223126
-0.207347
-0.192986
-0.179299
-0.167512
-0.350823
-0.343544
-0.33671
-0.328306
-0.318451
-0.306648
-0.292603
-0.276691
-0.25982
-0.24293
-0.226769
-0.211552
-0.197716
-0.184397
-0.172917
-0.344356
-0.338481
-0.332386
-0.324759
-0.315668
-0.304731
-0.291762
-0.277022
-0.261252
-0.245296
-0.229945
-0.215386
-0.202182
-0.189359
-0.178237
-0.338486
-0.333909
-0.328492
-0.32153
-0.313059
-0.302785
-0.290635
-0.276859
-0.262089
-0.247061
-0.232585
-0.218794
-0.206361
-0.194185
-0.183587
-0.333194
-0.3298
-0.32499
-0.318591
-0.310609
-0.300839
-0.289289
-0.276254
-0.262334
-0.248177
-0.234616
-0.221692
-0.210209
-0.198907
-0.189028
-0.328459
-0.326154
-0.321859
-0.315929
-0.30832
-0.298917
-0.28779
-0.275285
-0.262024
-0.248629
-0.235961
-0.223991
-0.213627
-0.203486
-0.194905
-0.324324
-0.322951
-0.319093
-0.31355
-0.306217
-0.297065
-0.286217
-0.274057
-0.261248
-0.248451
-0.236581
-0.225579
-0.216528
-0.207797
-0.201224
-0.320789
-0.320203
-0.316726
-0.311488
-0.304355
-0.29536
-0.284671
-0.272702
-0.260143
-0.24775
-0.236486
-0.226417
-0.218619
-0.211883
-0.207506
-0.317871
-0.317943
-0.314784
-0.309795
-0.30281
-0.293907
-0.283289
-0.271387
-0.258899
-0.246709
-0.235765
-0.226555
-0.219774
-0.215316
-0.212235
-0.315587
-0.3162
-0.313308
-0.308536
-0.301675
-0.292834
-0.282234
-0.270311
-0.257754
-0.245578
-0.234622
-0.226127
-0.219905
-0.217425
-0.215621
-0.313949
-0.314995
-0.312338
-0.307769
-0.30104
-0.292267
-0.281675
-0.269692
-0.256978
-0.244661
-0.233378
-0.225405
-0.219105
-0.218426
-0.217943
-0.312958
-0.314346
-0.311905
-0.307544
-0.300979
-0.292314
-0.281765
-0.269736
-0.256842
-0.244289
-0.232446
-0.22481
-0.217685
-0.21897
-0.219303
-0.312603
-0.314261
-0.312026
-0.307891
-0.301535
-0.293052
-0.282615
-0.270607
-0.25758
-0.24477
-0.232279
-0.224797
-0.216204
-0.219679
-0.21972
-0.312868
-0.314743
-0.312708
-0.308822
-0.302732
-0.294516
-0.284284
-0.272407
-0.259354
-0.246335
-0.233279
-0.225703
-0.215483
-0.220875
-0.219456
-0.313728
-0.315787
-0.31395
-0.310337
-0.304567
-0.296691
-0.286803
-0.275172
-0.262238
-0.249114
-0.235714
-0.227739
-0.216357
-0.222597
-0.219343
-0.31516
-0.317385
-0.315744
-0.312426
-0.30703
-0.29958
-0.290137
-0.278892
-0.26623
-0.253149
-0.239668
-0.231061
-0.219266
-0.224966
-0.220542
-0.317143
-0.31953
-0.318085
-0.315081
-0.310106
-0.303158
-0.294256
-0.283533
-0.27129
-0.258415
-0.245093
-0.235799
-0.224194
-0.228382
-0.223788
-0.319661
-0.322215
-0.320968
-0.318296
-0.313785
-0.307409
-0.299142
-0.289052
-0.277394
-0.264886
-0.251901
-0.242036
-0.23091
-0.233315
-0.229118
-0.322704
-0.325437
-0.324392
-0.322072
-0.318065
-0.312329
-0.30479
-0.295455
-0.284518
-0.27256
-0.260048
-0.249828
-0.239236
-0.239976
-0.236237
-0.326272
-0.329192
-0.328357
-0.326413
-0.322955
-0.317926
-0.311214
-0.302762
-0.292693
-0.281448
-0.26959
-0.259257
-0.249103
-0.248435
-0.244988
-0.330365
-0.333477
-0.332864
-0.331325
-0.328465
-0.324219
-0.318438
-0.31101
-0.301979
-0.291654
-0.280607
-0.270422
-0.260504
-0.258855
-0.255387
-0.334989
-0.338289
-0.337914
-0.336813
-0.334608
-0.331226
-0.326491
-0.320242
-0.312441
-0.303269
-0.293204
-0.283311
-0.273665
-0.271562
-0.267478
-0.340145
-0.343615
-0.343498
-0.342873
-0.341384
-0.338957
-0.335395
-0.330493
-0.324135
-0.316374
-0.307534
-0.298355
-0.289669
-0.285468
-0.281448
-0.345828
-0.349438
-0.349597
-0.349489
-0.34878
-0.347402
-0.345145
-0.341768
-0.337079
-0.331001
-0.323668
-0.315547
-0.307574
-0.301967
-0.297614
-0.352023
-0.355726
-0.35618
-0.356628
-0.356763
-0.356526
-0.355703
-0.354028
-0.351235
-0.347115
-0.341588
-0.334838
-0.327541
-0.320963
-0.315707
-0.358699
-0.362435
-0.363197
-0.364234
-0.365269
-0.366255
-0.366986
-0.367174
-0.366491
-0.364586
-0.361155
-0.356055
-0.349535
-0.342294
-0.335396
-0.365808
-0.369503
-0.37058
-0.372229
-0.374206
-0.37648
-0.378858
-0.381042
-0.382645
-0.383174
-0.382086
-0.378865
-0.373263
-0.365519
-0.356225
0.244308
0.222344
0.203757
0.189669
0.177484
0.168175
0.159944
0.153635
0.147991
0.14363
0.139717
0.136699
0.134007
0.131964
0.130168
0.128854
0.127747
0.127012
0.126468
0.126269
0.244577
0.222673
0.204096
0.190018
0.177828
0.168437
0.160159
0.153888
0.148223
0.143851
0.139928
0.136903
0.134202
0.132151
0.130348
0.129028
0.127916
0.127177
0.126631
0.126431
0.244256
0.222592
0.204123
0.190127
0.177968
0.16866
0.160504
0.154087
0.148395
0.14402
0.140094
0.137067
0.134361
0.132306
0.130497
0.129174
0.128058
0.127317
0.126769
0.126569
0.243368
0.222126
0.203859
0.190031
0.177949
0.168707
0.160538
0.154201
0.148496
0.144137
0.140213
0.13719
0.134483
0.132427
0.130617
0.129291
0.128174
0.127432
0.126884
0.126683
0.241907
0.221275
0.203305
0.189728
0.177767
0.168639
0.160516
0.154204
0.148531
0.144202
0.140286
0.137272
0.134568
0.132515
0.130705
0.129381
0.128264
0.127521
0.126974
0.126773
0.239875
0.22004
0.202461
0.18922
0.177424
0.168447
0.160387
0.154113
0.148514
0.144215
0.140314
0.137314
0.134617
0.13257
0.130764
0.129442
0.128327
0.127586
0.127039
0.126838
0.237272
0.218423
0.201331
0.18851
0.176921
0.168135
0.160165
0.154051
0.148336
0.144184
0.140299
0.137316
0.134631
0.132593
0.130794
0.129476
0.128365
0.127626
0.127081
0.12688
0.234101
0.21643
0.199919
0.1876
0.176263
0.167706
0.159852
0.153865
0.148467
0.144124
0.140241
0.137278
0.134609
0.132584
0.130794
0.129483
0.128377
0.127641
0.1271
0.126899
0.230364
0.214062
0.198228
0.186493
0.175452
0.167161
0.159445
0.153585
0.148203
0.143991
0.14014
0.137202
0.134553
0.132544
0.130765
0.129462
0.128364
0.127633
0.127095
0.126895
0.226069
0.211326
0.196262
0.185194
0.174492
0.166502
0.15895
0.153238
0.147948
0.143805
0.139993
0.137087
0.134464
0.132473
0.130709
0.129416
0.128326
0.1276
0.127068
0.126868
0.221221
0.208225
0.194028
0.183703
0.173387
0.165732
0.158367
0.152815
0.147616
0.143552
0.139808
0.136936
0.134342
0.132373
0.130626
0.129343
0.128265
0.127545
0.127018
0.126818
0.21583
0.204765
0.19153
0.182023
0.172143
0.164851
0.157701
0.152317
0.147218
0.143234
0.139576
0.136749
0.13419
0.132244
0.130516
0.129247
0.12818
0.127467
0.126946
0.126748
0.209907
0.200949
0.188776
0.180158
0.170763
0.163863
0.156953
0.151752
0.146764
0.14294
0.139313
0.136539
0.134008
0.132088
0.13038
0.129125
0.128072
0.127368
0.126853
0.126656
0.203466
0.196781
0.185775
0.178108
0.169253
0.162771
0.156126
0.151122
0.146265
0.142536
0.13905
0.136293
0.133795
0.131905
0.13022
0.128981
0.127942
0.127247
0.12674
0.126545
0.19652
0.192263
0.182534
0.175876
0.167617
0.161576
0.155223
0.150426
0.145717
0.142098
0.138692
0.135945
0.133549
0.1317
0.130037
0.128815
0.127792
0.127107
0.126607
0.126414
0.18909
0.187393
0.179065
0.173465
0.165861
0.160283
0.154247
0.149671
0.145121
0.141617
0.138293
0.135762
0.133305
0.13148
0.129828
0.128628
0.127621
0.126946
0.126456
0.126264
0.181183
0.182165
0.175375
0.170877
0.163987
0.158894
0.1532
0.148856
0.144479
0.141096
0.137858
0.135352
0.133037
0.131197
0.129595
0.128421
0.127431
0.126768
0.126286
0.126096
0.172839
0.176581
0.171478
0.168113
0.161994
0.157407
0.152078
0.147979
0.143787
0.140533
0.137396
0.134958
0.132686
0.13094
0.129364
0.128194
0.127223
0.126571
0.126098
0.125912
0.16404
0.170674
0.167402
0.165236
0.159929
0.155876
0.150923
0.147081
0.143077
0.139954
0.136918
0.134551
0.132332
0.130609
0.129106
0.127963
0.127002
0.126358
0.125895
0.125712
0.154307
0.163959
0.162918
0.16208
0.15769
0.154231
0.149676
0.146116
0.142306
0.139328
0.136396
0.134108
0.131953
0.130281
0.128804
0.127698
0.126768
0.126133
0.125675
0.125496
0.140174
0.152742
0.155407
0.155748
0.15311
0.150431
0.146845
0.143767
0.140511
0.137827
0.135223
0.133115
0.131163
0.129611
0.128249
0.127211
0.126353
0.125757
0.125336
0.125168
0.129473
0.14039
0.145992
0.147781
0.146995
0.145405
0.142918
0.140553
0.137963
0.135734
0.13354
0.13172
0.130025
0.128659
0.127453
0.126525
0.125755
0.125218
0.124842
0.124693
0.119731
0.130376
0.137329
0.140289
0.141011
0.140421
0.138946
0.137269
0.135327
0.133552
0.131769
0.130245
0.128813
0.127638
0.126596
0.125784
0.125109
0.124633
0.124303
0.124171
0.110781
0.121687
0.129429
0.133342
0.135269
0.135573
0.135019
0.133984
0.132665
0.131324
0.129951
0.128716
0.12755
0.126564
0.12569
0.124995
0.124419
0.124007
0.123724
0.123608
0.102817
0.113968
0.122245
0.126956
0.129827
0.130926
0.131179
0.130745
0.130006
0.129085
0.128106
0.127154
0.126251
0.125453
0.124746
0.124168
0.123692
0.123346
0.123111
0.12301
0.0958514
0.107096
0.115728
0.121095
0.124706
0.126507
0.127456
0.127582
0.127372
0.126854
0.126249
0.125575
0.124926
0.124314
0.123773
0.123312
0.122936
0.122655
0.122468
0.122382
0.0897915
0.100994
0.109839
0.115718
0.119916
0.122326
0.123873
0.124514
0.124784
0.124649
0.124394
0.123992
0.123586
0.123158
0.122778
0.122434
0.122156
0.121941
0.121801
0.121731
0.0845037
0.0955845
0.104535
0.110796
0.115457
0.11839
0.120449
0.121558
0.122259
0.122486
0.122556
0.122416
0.122242
0.121994
0.12177
0.121541
0.12136
0.121209
0.121115
0.121062
0.0798786
0.0907867
0.0997655
0.1063
0.111326
0.114699
0.117196
0.118726
0.119812
0.120378
0.120749
0.120859
0.120903
0.120831
0.120756
0.120641
0.120552
0.120466
0.120416
0.12038
0.0758317
0.08653
0.0954806
0.102202
0.107511
0.111251
0.114121
0.116025
0.117457
0.118335
0.118983
0.11933
0.11958
0.119677
0.119744
0.11974
0.11974
0.119717
0.11971
0.119691
0.0722926
0.0827543
0.0916328
0.0984744
0.103999
0.108042
0.11123
0.113463
0.115202
0.116367
0.117268
0.117839
0.118281
0.118539
0.118741
0.118844
0.11893
0.118968
0.119001
0.119
0.0691999
0.0794075
0.0881801
0.0950895
0.100776
0.105066
0.108522
0.111044
0.113055
0.11448
0.115614
0.116392
0.117013
0.117424
0.117753
0.11796
0.118126
0.118223
0.118295
0.118311
0.0664988
0.0764431
0.0850849
0.0920216
0.0978243
0.102314
0.105996
0.108768
0.111021
0.112681
0.114025
0.114996
0.115783
0.116338
0.116787
0.117092
0.117335
0.117489
0.117597
0.117631
0.0641413
0.0738194
0.0823136
0.0892465
0.0951288
0.0997781
0.103649
0.106638
0.109103
0.110974
0.11251
0.113658
0.114598
0.115288
0.115848
0.116246
0.116561
0.116769
0.116912
0.116962
0.062085
0.0714994
0.0798355
0.0867414
0.0926736
0.0974494
0.101477
0.104653
0.107303
0.109363
0.111071
0.112381
0.113462
0.114277
0.114942
0.115427
0.11581
0.116068
0.116244
0.11631
0.0602934
0.0694504
0.0776235
0.0844855
0.0904439
0.0953185
0.0994743
0.102811
0.105623
0.10785
0.109714
0.111171
0.112381
0.113312
0.114073
0.114639
0.115085
0.115391
0.115597
0.115679
0.0587342
0.0676435
0.0756531
0.0824592
0.0884255
0.0933758
0.0976366
0.10111
0.104063
0.106438
0.10844
0.110031
0.111358
0.112395
0.113245
0.113887
0.114391
0.114741
0.114976
0.115072
0.0573796
0.0660534
0.0739025
0.0806451
0.0866052
0.0916124
0.095958
0.0995473
0.102622
0.105128
0.107253
0.108964
0.110397
0.111531
0.112462
0.113174
0.113732
0.114123
0.114383
0.114494
0.0562055
0.0646579
0.0723523
0.079027
0.0849707
0.0900195
0.0944331
0.0981204
0.101299
0.103921
0.106154
0.107972
0.109501
0.110723
0.111728
0.112503
0.113111
0.11354
0.113824
0.113947
0.0551908
0.0634376
0.0709853
0.0775907
0.0835108
0.088589
0.0930563
0.096826
0.100094
0.102816
0.105145
0.107059
0.108673
0.109974
0.111045
0.111878
0.112531
0.112994
0.1133
0.113435
0.0543178
0.0623757
0.0697863
0.0763232
0.0822153
0.0873131
0.0918225
0.0956611
0.0990054
0.101813
0.104227
0.106224
0.107914
0.109286
0.110417
0.111302
0.111995
0.112489
0.112815
0.112961
0.0535708
0.0614575
0.0687421
0.0752131
0.0810749
0.086185
0.0907269
0.0946225
0.0980309
0.100913
0.103399
0.105471
0.107227
0.108661
0.109846
0.110777
0.111506
0.112028
0.112371
0.112527
0.0529368
0.0606705
0.0678411
0.0742505
0.0800814
0.0851982
0.0897649
0.0937074
0.0971694
0.100115
0.102663
0.104799
0.106613
0.108102
0.109333
0.110305
0.111065
0.111612
0.111971
0.112135
0.0524046
0.0600039
0.0670734
0.0734267
0.0792276
0.0843472
0.0889323
0.092913
0.0964194
0.0994187
0.102019
0.104209
0.106074
0.107609
0.10888
0.109887
0.110676
0.111243
0.111617
0.111788
0.051965
0.0594488
0.0664306
0.0727341
0.0785073
0.0836269
0.0882256
0.0922369
0.0957795
0.0988229
0.101468
0.103703
0.105609
0.107185
0.10849
0.109527
0.110339
0.110925
0.111309
0.111487
0.0516104
0.0589975
0.0659054
0.0721664
0.077915
0.0830332
0.0876416
0.091677
0.0952483
0.0983275
0.101008
0.103281
0.105221
0.106829
0.108163
0.109224
0.110056
0.110657
0.111051
0.111234
0.0513345
0.0586441
0.0654922
0.0717185
0.0774464
0.0825625
0.0871776
0.0912313
0.0948247
0.0979319
0.10064
0.102942
0.10491
0.106544
0.1079
0.108981
0.109828
0.110441
0.110843
0.11103
0.0511326
0.0583838
0.0651864
0.0713862
0.077098
0.0822119
0.0868315
0.0908984
0.0945079
0.0976355
0.100364
0.102688
0.104676
0.106329
0.107702
0.108798
0.109656
0.110278
0.110686
0.110876
0.0510012
0.0582131
0.0649845
0.0711666
0.076867
0.0819794
0.0866015
0.0906771
0.094297
0.0974382
0.100181
0.102519
0.10452
0.106186
0.10757
0.108675
0.109541
0.110169
0.110581
0.110773
0.050937
0.0581296
0.0648835
0.0710578
0.0767515
0.0818639
0.0864864
0.0905669
0.0941915
0.0973398
0.100088
0.102434
0.104442
0.106114
0.107503
0.108614
0.109484
0.110115
0.110528
0.110721
0.126528
0.118292
0.109643
0.101383
0.0939058
0.0872781
0.0814553
0.0763654
0.0719348
0.0680904
0.0647625
0.0618865
0.0594042
0.0572641
0.0554211
0.0538361
0.0524747
0.0513075
0.0503088
0.0494566
0.0487321
0.0481193
0.0476045
0.0471764
0.0468254
0.046544
0.0463258
0.046166
0.0460617
0.0460149
0.116948
0.108288
0.100215
0.0927379
0.0860702
0.0801813
0.0750068
0.0704856
0.066558
0.0631596
0.0602263
0.0576983
0.0555222
0.0536511
0.0520439
0.0506651
0.0494837
0.0484731
0.0476102
0.0468753
0.0462515
0.0457242
0.0452812
0.0449123
0.0446089
0.044364
0.0441721
0.0440286
0.0439312
0.0438858
0.105836
0.0959891
0.0881744
0.0814002
0.0756595
0.0707376
0.0664969
0.0628407
0.0596946
0.0569909
0.0546688
0.0526743
0.0509611
0.0494898
0.0482265
0.0471424
0.0462129
0.0454168
0.0447361
0.0441552
0.0436608
0.0432417
0.0428881
0.0425921
0.0423466
0.0421464
0.041987
0.0418645
0.0417768
0.0417319
0.0958421
0.0861174
0.0787854
0.0724788
0.0673069
0.0629906
0.0593679
0.056313
0.0537304
0.051542
0.0496837
0.0481027
0.0467553
0.0456056
0.0446237
0.0437846
0.0430675
0.0424548
0.0419316
0.0414855
0.0411056
0.040783
0.04051
0.04028
0.0400877
0.0399285
0.0397992
0.0396966
0.0396174
0.03957
0.0857613
0.0771748
0.0709915
0.0654078
0.0608122
0.0569645
0.0537606
0.0510908
0.0488634
0.047001
0.0454402
0.0441295
0.0430269
0.042098
0.0413144
0.0406527
0.0400935
0.0396208
0.0392209
0.0388827
0.0385965
0.0383545
0.0381499
0.0379771
0.0378313
0.0377087
0.0376065
0.0375221
0.0374509
0.0374
0.0751469
0.0676801
0.062796
0.0581796
0.0543868
0.0511541
0.0484437
0.0461811
0.0442996
0.042737
0.0414397
0.0403629
0.0394693
0.0387279
0.0381129
0.0376028
0.0371798
0.0368289
0.0365377
0.0362957
0.0360942
0.0359259
0.0357847
0.0356654
0.0355637
0.0354762
0.0354005
0.0353341
0.035272
0.0352187
0.0644407
0.0578993
0.0540293
0.0502877
0.0473359
0.0448161
0.0427114
0.0409552
0.0394991
0.0382975
0.0373097
0.0365007
0.0358405
0.0353037
0.0348691
0.0345185
0.0342368
0.0340112
0.0338307
0.0336864
0.0335706
0.0334769
0.0333998
0.0333348
0.0332782
0.0332269
0.0331785
0.0331315
0.0330801
0.0330261
0.0538848
0.0483213
0.0452965
0.0422768
0.0400484
0.0381868
0.0366826
0.0354557
0.0344603
0.033657
0.0330136
0.0325029
0.0321019
0.0317911
0.031554
0.0313765
0.0312466
0.0311542
0.0310908
0.0310489
0.0310225
0.0310061
0.0309955
0.0309868
0.0309769
0.0309632
0.0309437
0.0309173
0.0308785
0.0308255
0.0434427
0.0389735
0.0368259
0.0345192
0.0329479
0.0316688
0.0307018
0.0299601
0.029399
0.0289804
0.0286761
0.0284632
0.0283236
0.0282423
0.0282066
0.028206
0.0282316
0.0282756
0.0283318
0.0283946
0.0284592
0.0285218
0.028579
0.0286277
0.0286657
0.0286907
0.0287012
0.0286966
0.0286717
0.0286214
0.0330862
0.0297343
0.0285119
0.0269807
0.0260835
0.0253722
0.0249076
0.0246107
0.0244467
0.0243823
0.0243932
0.0244603
0.0245691
0.0247078
0.0248669
0.0250386
0.0252165
0.0253949
0.0255694
0.0257359
0.0258913
0.0260326
0.0261576
0.026264
0.0263502
0.0264146
0.0264557
0.0264737
0.0264638
0.026418
0.0228511
0.0205842
0.0202674
0.0195351
0.0193326
0.0192052
0.0192449
0.0193831
0.0196002
0.019872
0.0201807
0.0205125
0.0208566
0.0212047
0.0215503
0.0218879
0.022213
0.0225221
0.022812
0.0230803
0.023325
0.0235442
0.0237364
0.0239003
0.0240348
0.0241388
0.0242112
0.0242524
0.0242587
0.0242188
0.0127751
0.0115638
0.0121127
0.0121573
0.0126351
0.013092
0.0136392
0.0142146
0.0148114
0.015415
0.0160155
0.0166049
0.0171775
0.0177289
0.0182556
0.0187545
0.0192232
0.0196599
0.020063
0.0204313
0.020764
0.0210602
0.0213192
0.0215404
0.0217232
0.021867
0.0219711
0.0220363
0.0220596
0.0220272
0.00287254
0.00269704
0.00409218
0.00488433
0.00601254
0.00703449
0.00807768
0.00908415
0.0100575
0.0109908
0.0118804
0.0127245
0.0135225
0.0142742
0.0149793
0.0156371
0.0162472
0.0168097
0.0173244
0.0177917
0.0182114
0.018584
0.0189093
0.0191876
0.0194188
0.0196027
0.019739
0.0198287
0.0198699
0.0198464
-0.0068553
-0.00601276
-0.0037736
-0.00225793
-0.000501176
0.00106363
0.00258362
0.00400698
0.00534697
0.00660303
0.00777701
0.00887174
0.00989158
0.0108411
0.0117225
0.0125374
0.0132874
0.0139742
0.0145995
0.0151646
0.0156709
0.0161192
0.0165107
0.0168459
0.0171256
0.0173498
0.0175187
0.0176335
0.0176933
0.01768
-0.0164098
-0.014556
-0.0114771
-0.00926631
-0.00689181
-0.00480278
-0.00282285
-0.000998168
0.000695587
0.00226463
0.00371588
0.00505446
0.0062911
0.00743516
0.00849026
0.00945996
0.010348
0.0111578
0.0118924
0.0125545
0.0131464
0.0136701
0.0141273
0.0145193
0.0148473
0.0151121
0.0153138
0.0154541
0.0155334
0.0155312
-0.0257991
-0.0228991
-0.0190135
-0.0161377
-0.0131554
-0.0105603
-0.00813465
-0.00592251
-0.00388698
-0.00201537
-0.00029401
0.0012811
0.00272757
0.00406258
0.00528827
0.00641022
0.00743417
0.00836518
0.00920771
0.00996566
0.0106424
0.0112408
0.0117633
0.0122118
0.0125881
0.0128934
0.0131282
0.0132942
0.0133935
0.0134034
-0.035029
-0.0309919
-0.0263942
-0.0228517
-0.019289
-0.0162072
-0.0133514
-0.0107649
-0.00839828
-0.00623383
-0.00424834
-0.00244295
-0.000793991
0.000729233
0.00212207
0.00339336
0.00455081
0.00560107
0.00654996
0.00740254
0.00816315
0.00883549
0.00942271
0.00992742
0.0103518
0.0106976
0.0109656
0.0111574
0.0112772
0.0113002
-0.0441301
-0.0388988
-0.0336678
-0.0293566
-0.0252972
-0.0217377
-0.0184754
-0.0155271
-0.0128401
-0.0103915
-0.00814969
-0.00611326
-0.00426876
-0.00255893
-0.00100339
0.000414087
0.00170245
0.00286987
0.00392347
0.00486936
0.0057128
0.00645828
0.00710964
0.00767008
0.00814224
0.00852836
0.00882958
0.00904723
0.00918751
0.00922517
-0.0528377
-0.0466395
-0.0408139
-0.0358044
-0.0312457
-0.0272089
-0.0235461
-0.0202392
-0.0172366
-0.0145079
-0.012017
-0.0097455
-0.00767743
-0.00579444
-0.00408174
-0.00252237
-0.00110626
0.000175936
0.0013324
0.00237016
0.00329531
0.00411307
0.00482789
0.00544354
0.00596313
0.00638931
0.0067237
0.00696748
0.00712677
0.00718196
-0.0611521
-0.0541945
-0.0477879
-0.0421638
-0.0371038
-0.0326051
-0.028547
-0.024888
-0.0215739
-0.0185679
-0.0158309
-0.0133295
-0.0110581
-0.00899936
-0.00712762
-0.0054257
-0.00388172
-0.0024848
-0.00122561
-9.61427e-05
0.000910541
0.00180041
0.00257857
0.00324933
0.0038163
0.00428249
0.00465001
0.00492042
0.0050977
0.00517096
-0.0691865
-0.0615719
-0.0545691
-0.0483763
-0.0428301
-0.0378947
-0.0334542
-0.0294542
-0.0258366
-0.0225588
-0.0195802
-0.0168633
-0.0144007
-0.0121663
-0.0101351
-0.00829071
-0.0066191
-0.00510779
-0.00374626
-0.00252547
-0.00143762
-0.000475968
0.000365227
0.00109084
0.00170495
0.00221097
0.00261144
0.00290826
0.00310468
0.00319216
-0.0770312
-0.0687862
-0.0611605
-0.0544198
-0.0484103
-0.0430629
-0.0382563
-0.0339283
-0.0300173
-0.0264761
-0.0232622
-0.0203393
-0.0176887
-0.015281
-0.0130931
-0.0111082
-0.00931038
-0.00768588
-0.00622305
-0.00491184
-0.00374359
-0.00271084
-0.00180721
-0.00102727
-0.000366478
0.00017897
0.000611994
0.000934855
0.00115099
0.00125091
-0.0847119
-0.0758233
-0.0675774
-0.0603092
-0.0538589
-0.048118
-0.0429594
-0.0383146
-0.0341192
-0.0303225
-0.026879
-0.0237524
-0.0209148
-0.0183369
-0.0159958
-0.0138729
-0.0119507
-0.0102145
-0.00865161
-0.00725103
-0.0060033
-0.00490024
-0.00393487
-0.00310123
-0.00239431
-0.00180993
-0.00134484
-0.000996433
-0.000760834
-0.000647976
-0.092204
-0.0826802
-0.0738361
-0.0660668
-0.0591951
-0.0530742
-0.047574
-0.0426211
-0.0381482
-0.0341014
-0.0304322
-0.0271023
-0.0240794
-0.0213341
-0.0188423
-0.0165831
-0.0145381
-0.0126915
-0.0110296
-0.00954052
-0.00821408
-0.00704143
-0.00601497
-0.00512821
-0.00437572
-0.00375293
-0.00325628
-0.00288286
-0.00262828
-0.00250195
-0.0994865
-0.0893635
-0.0799506
-0.0717066
-0.0644301
-0.0579409
-0.0521081
-0.0468537
-0.0421082
-0.0378146
-0.0339224
-0.0303906
-0.0271845
-0.0242738
-0.0216326
-0.0192383
-0.0170715
-0.0151153
-0.0133552
-0.0117783
-0.0103738
-0.00913215
-0.00804515
-0.00710583
-0.00630829
-0.00564759
-0.00511988
-0.00472201
-0.00444901
-0.00430931
-0.106558
-0.0958849
-0.085931
-0.0772347
-0.0695687
-0.0627233
-0.0565659
-0.0510154
-0.0460007
-0.0414634
-0.0373504
-0.0336187
-0.0302311
-0.0271561
-0.0243661
-0.0218375
-0.0195496
-0.0174844
-0.0156265
-0.0139624
-0.0124804
-0.0111702
-0.0100231
-0.00903176
-0.00818969
-0.00749161
-0.00693336
-0.00651158
-0.00622084
-0.00606831
-0.113428
-0.102257
-0.091784
-0.0826539
-0.0746144
-0.0674256
-0.0609513
-0.0551086
-0.0498278
-0.0450493
-0.0407178
-0.0367873
-0.033219
-0.0299802
-0.0270421
-0.0243795
-0.0219708
-0.0197971
-0.0178419
-0.0160909
-0.0145317
-0.0131534
-0.0119468
-0.0109038
-0.0100177
-0.00928278
-0.00869454
-0.00824945
-0.00794168
-0.00777703
-0.120108
-0.108489
-0.0975169
-0.0879701
-0.0795736
-0.0720539
-0.0652685