/*--------------------------------*- C++ -*----------------------------------*\
  =========                 |
  \\      /  F ield         | OpenFOAM: The Open Source CFD Toolbox
   \\    /   O peration     | Website:  https://openfoam.org
    \\  /    A nd           | Version:  7
     \\/     M anipulation  |
\*---------------------------------------------------------------------------*/
FoamFile
{
    version     2.0;
    format      ascii;
    class       volVectorField;
    location    "105";
    object      U;
}
// * * * * * * * * * * * * * * * * * * * * * * * * * * * * * * * * * * * * * //

dimensions      [0 1 -1 0 0 0 0];

internalField   nonuniform List<vector> 
3700
(
(0.0325911 -0.00459475 4.03816e-20)
(0.130586 -0.00762696 -5.04249e-21)
(0.253894 -0.00711538 -2.07928e-20)
(0.352953 -0.00584847 1.0624e-20)
(0.437894 -0.0047073 3.22639e-20)
(0.509576 -0.00390903 -2.79918e-20)
(0.571039 -0.00336703 -1.0098e-21)
(0.623892 -0.00301315 -3.01754e-21)
(0.669681 -0.00279355 1.25454e-20)
(0.709518 -0.00266823 1.76503e-21)
(0.744357 -0.00260525 -7.94425e-21)
(0.774946 -0.00257886 -6.30948e-21)
(0.801875 -0.00256971 -2.25375e-20)
(0.825589 -0.00256846 2.363e-20)
(0.846561 -0.00256721 -9.29677e-21)
(0.0346394 -0.0388189 -8.46678e-20)
(0.133612 -0.0607975 4.86334e-20)
(0.256692 -0.0587669 1.66694e-20)
(0.355305 -0.0514337 -3.52787e-21)
(0.43983 -0.0443858 -2.98834e-20)
(0.511178 -0.0386268 -5.47444e-20)
(0.572371 -0.0338958 4.41723e-20)
(0.625006 -0.0299791 -7.17655e-21)
(0.670619 -0.0267051 -3.29045e-20)
(0.710312 -0.0239439 -3.21444e-20)
(0.745033 -0.0215926 3.8065e-20)
(0.775528 -0.019568 -3.88954e-20)
(0.802382 -0.017794 5.23164e-20)
(0.826028 -0.0162097 -4.72525e-20)
(0.846923 -0.0148129 -9.21456e-21)
(0.0392215 -0.0726059 -1.31332e-19)
(0.140457 -0.113429 -2.25448e-19)
(0.263152 -0.10997 -1.21937e-20)
(0.360853 -0.0966578 5.5533e-20)
(0.44451 -0.0837666 2.61519e-20)
(0.51515 -0.0730959 8.74609e-20)
(0.575763 -0.0642162 -5.766e-20)
(0.627921 -0.0567699 -6.51547e-20)
(0.673139 -0.0504691 7.05573e-20)
(0.712502 -0.0450952 2.63531e-20)
(0.746947 -0.0404748 -7.87587e-20)
(0.777215 -0.036468 2.61306e-20)
(0.803888 -0.0329424 -2.22458e-20)
(0.827369 -0.0297887 -2.34735e-20)
(0.848048 -0.0270174 -3.56102e-20)
(0.046277 -0.105672 1.14498e-19)
(0.15105 -0.165167 3.65466e-19)
(0.273219 -0.160421 -1.71444e-19)
(0.369553 -0.141273 1.36362e-20)
(0.451898 -0.122642 -5.86231e-20)
(0.521462 -0.10714 1.59773e-19)
(0.581188 -0.0941772 -4.57599e-21)
(0.632613 -0.0832561 -7.88988e-22)
(0.677221 -0.0739739 -4.80833e-20)
(0.716072 -0.0660255 5.14029e-20)
(0.750085 -0.0591683 1.32713e-19)
(0.779995 -0.0532059 4.4768e-20)
(0.806383 -0.0479505 6.39642e-21)
(0.829602 -0.0432481 -1.03439e-20)
(0.849935 -0.0391281 4.09104e-20)
(0.0557175 -0.137741 2.38544e-19)
(0.165291 -0.215662 -1.73051e-19)
(0.28681 -0.209824 -4.77022e-21)
(0.38134 -0.185035 -1.78412e-20)
(0.46194 -0.160807 1.2261e-19)
(0.530068 -0.140584 -8.93485e-20)
(0.588608 -0.123631 3.08168e-20)
(0.63905 -0.10931 -4.0729e-20)
(0.682837 -0.09711 2.37743e-20)
(0.720998 -0.08664 -1.30409e-19)
(0.754426 -0.0775908 -9.41231e-20)
(0.78385 -0.0697102 -5.77582e-20)
(0.80985 -0.0627552 8.4293e-20)
(0.832716 -0.0565333 -2.2127e-20)
(0.852577 -0.0511021 1.96587e-20)
(0.0674267 -0.168544 -2.66055e-21)
(0.183043 -0.264576 -2.78169e-19)
(0.303817 -0.257889 2.08029e-19)
(0.396128 -0.227707 -1.62347e-19)
(0.474564 -0.198064 -1.31168e-19)
(0.540908 -0.173261 6.87524e-20)
(0.597972 -0.152433 -4.59847e-20)
(0.647189 -0.134809 1.70603e-19)
(0.689951 -0.119771 -4.82619e-20)
(0.727248 -0.106846 9.98508e-20)
(0.759943 -0.0956622 -4.66606e-20)
(0.788754 -0.0859108 1.02548e-19)
(0.814265 -0.077295 2.09365e-20)
(0.836691 -0.0695899 4.40795e-20)
(0.855965 -0.062894 -5.06843e-20)
(0.0812614 -0.197825 2.11538e-20)
(0.204143 -0.311583 2.78497e-19)
(0.324107 -0.304336 -2.66591e-20)
(0.413809 -0.26906 -5.03985e-21)
(0.489684 -0.234221 -3.30281e-20)
(0.553908 -0.205008 -3.0745e-19)
(0.609218 -0.180444 2.24523e-20)
(0.656976 -0.159632 -1.35299e-19)
(0.698517 -0.141852 -1.80076e-20)
(0.734784 -0.126555 -8.26587e-21)
(0.766602 -0.113305 3.59191e-20)
(0.794679 -0.10174 -7.84817e-20)
(0.819602 -0.0915104 -1.75317e-19)
(0.841504 -0.0823647 1.8582e-19)
(0.860089 -0.0744577 6.32897e-20)
(0.0970526 -0.225343 -1.50333e-19)
(0.228393 -0.356368 -2.57936e-19)
(0.347521 -0.348897 6.82438e-20)
(0.43426 -0.308875 1.11363e-19)
(0.507197 -0.269095 1.09884e-19)
(0.568983 -0.235668 -8.13874e-21)
(0.622272 -0.20753 -8.89721e-20)
(0.66835 -0.183666 2.59045e-19)
(0.708481 -0.163256 1.32099e-21)
(0.743559 -0.14568 6.62727e-20)
(0.774364 -0.130444 1.51812e-19)
(0.801589 -0.117133 -1.4577e-19)
(0.825829 -0.105344 1.89488e-19)
(0.84713 -0.0948062 -9.33568e-20)
(0.864934 -0.0857473 -6.20298e-20)
(0.114607 -0.250873 8.79858e-20)
(0.255568 -0.398637 -7.84902e-20)
(0.373876 -0.391315 1.50787e-19)
(0.457336 -0.346944 -1.29992e-19)
(0.526983 -0.302512 -1.62908e-19)
(0.586031 -0.265094 -1.84655e-19)
(0.637049 -0.233566 7.47975e-20)
(0.681237 -0.206801 4.86545e-20)
(0.719783 -0.183889 -2.29448e-19)
(0.753521 -0.16414 -1.53606e-19)
(0.783182 -0.147009 -1.36251e-19)
(0.809444 -0.132029 1.88865e-19)
(0.832907 -0.118743 -5.43919e-20)
(0.853538 -0.106865 -4.57061e-20)
(0.870484 -0.0967174 3.02383e-21)
(0.133707 -0.274207 3.07244e-19)
(0.285414 -0.438113 4.01825e-19)
(0.402969 -0.431353 -1.64063e-19)
(0.482876 -0.383071 -1.88889e-19)
(0.548912 -0.33431 4.03025e-19)
(0.604941 -0.293148 3.02782e-20)
(0.653456 -0.258434 1.38718e-19)
(0.695557 -0.228935 -3.1504e-19)
(0.732352 -0.203661 1.35089e-19)
(0.764609 -0.181859 2.12187e-20)
(0.793006 -0.162932 -8.53136e-20)
(0.818197 -0.146369 -2.06609e-19)
(0.840797 -0.131656 -9.09167e-20)
(0.860694 -0.118495 6.3926e-20)
(0.876719 -0.107324 1.34529e-20)
(0.154117 -0.295161 -2.13466e-19)
(0.317652 -0.474541 -2.71356e-19)
(0.434573 -0.468785 1.69518e-19)
(0.5107 -0.417075 6.10873e-19)
(0.572836 -0.364338 5.64765e-20)
(0.625592 -0.319702 1.23475e-20)
(0.671388 -0.282022 -1.82735e-19)
(0.711223 -0.249974 3.75431e-19)
(0.746113 -0.222491 1.30985e-20)
(0.77676 -0.198763 1.77715e-19)
(0.803779 -0.178151 2.20091e-19)
(0.827801 -0.160099 1.37376e-19)
(0.849454 -0.144036 -1.19885e-20)
(0.86856 -0.129652 3.66021e-20)
(0.883615 -0.117523 1.19945e-19)
(0.175578 -0.313572 -9.68438e-20)
(0.351976 -0.507688 -1.5872e-19)
(0.46844 -0.503407 5.67223e-20)
(0.540617 -0.448791 4.37251e-20)
(0.598599 -0.392458 -4.548e-19)
(0.64785 -0.344639 4.59873e-19)
(0.690733 -0.304231 -1.70594e-20)
(0.728138 -0.269831 -1.04265e-19)
(0.760985 -0.240303 -6.79682e-20)
(0.789902 -0.214788 -4.58794e-20)
(0.815441 -0.192609 -7.33769e-20)
(0.8382 -0.173169 5.03557e-20)
(0.858828 -0.155841 -1.46031e-19)
(0.877097 -0.140297 -1.11616e-19)
(0.891147 -0.127276 -7.20266e-20)
(0.197817 -0.329302 -2.37491e-20)
(0.388059 -0.537348 3.07408e-19)
(0.504305 -0.535036 -4.78962e-19)
(0.572419 -0.47807 -5.99145e-19)
(0.626032 -0.418549 2.05622e-19)
(0.671575 -0.367855 -7.68124e-20)
(0.711372 -0.324971 1.73002e-19)
(0.746201 -0.288428 2.35001e-20)
(0.77688 -0.25703 2.86701e-19)
(0.803961 -0.229874 -5.98994e-20)
(0.827926 -0.206252 -2.1634e-19)
(0.849337 -0.185534 2.79708e-20)
(0.86887 -0.167034 -6.16314e-20)
(0.886261 -0.150398 2.59024e-20)
(0.899287 -0.136546 -4.76054e-21)
(0.220546 -0.342242 1.59297e-19)
(0.425552 -0.56334 1.43322e-19)
(0.541885 -0.563506 4.45015e-19)
(0.605884 -0.504781 3.40889e-19)
(0.654957 -0.442502 2.56814e-19)
(0.696617 -0.389257 -2.93169e-19)
(0.733179 -0.344163 -6.09915e-20)
(0.765304 -0.305695 -1.23987e-19)
(0.793707 -0.27261 -7.77814e-20)
(0.818859 -0.243966 1.6384e-19)
(0.841165 -0.219031 8.98661e-20)
(0.861149 -0.19715 -2.03774e-20)
(0.87952 -0.177579 2.70323e-19)
(0.896008 -0.159921 -6.13555e-20)
(0.908005 -0.145297 1.47407e-19)
(0.243464 -0.352308 -6.85893e-20)
(0.464088 -0.585514 -5.28539e-19)
(0.58088 -0.588677 -3.19632e-19)
(0.640782 -0.528811 -1.50484e-19)
(0.685188 -0.464225 -3.8361e-19)
(0.72282 -0.408768 3.2971e-19)
(0.756021 -0.361738 1.30423e-19)
(0.785335 -0.321574 1.22021e-19)
(0.811369 -0.286992 -5.74137e-19)
(0.834512 -0.25702 -1.78737e-19)
(0.855088 -0.230908 1.35375e-19)
(0.873572 -0.207987 -6.94177e-20)
(0.890719 -0.187456 8.64304e-20)
(0.906288 -0.168858 -8.84657e-20)
(0.917274 -0.15351 -4.05652e-20)
(0.266263 -0.359448 1.17617e-20)
(0.503282 -0.603747 2.35742e-19)
(0.620975 -0.610432 2.25176e-19)
(0.67687 -0.550068 8.70598e-20)
(0.716531 -0.483643 1.72638e-19)
(0.750024 -0.426324 -1.79504e-19)
(0.779763 -0.377641 -9.06553e-20)
(0.806179 -0.336015 1.10708e-19)
(0.829767 -0.30013 1.74117e-20)
(0.850836 -0.268993 9.22559e-20)
(0.869624 -0.241839 -2.01289e-20)
(0.886538 -0.217993 -2.52665e-20)
(0.902395 -0.196609 -2.32877e-20)
(0.917045 -0.177153 -5.11241e-20)
(0.927068 -0.161144 1.39101e-19)
(0.288628 -0.363642 7.67142e-20)
(0.542736 -0.617949 -9.20197e-20)
(0.661845 -0.628676 -1.05175e-19)
(0.713898 -0.568478 -2.3014e-20)
(0.748788 -0.500698 -9.36639e-20)
(0.778063 -0.441875 1.38027e-19)
(0.804266 -0.391827 -1.50508e-19)
(0.827716 -0.348978 -3.48434e-20)
(0.848798 -0.311992 1.72973e-19)
(0.867744 -0.279857 -3.9925e-21)
(0.884698 -0.251806 1.49065e-19)
(0.899979 -0.227172 -1.31841e-19)
(0.914468 -0.205086 -1.8405e-20)
(0.928214 -0.184918 -2.64015e-20)
(0.937379 -0.168297 -1.40084e-19)
(0.310245 -0.364901 -1.07613e-19)
(0.582037 -0.628059 2.1519e-20)
(0.703148 -0.643344 3.44932e-20)
(0.75161 -0.583991 5.66298e-20)
(0.781757 -0.51535 2.19448e-19)
(0.80677 -0.455387 6.13684e-20)
(0.829387 -0.404266 -1.52981e-19)
(0.849826 -0.360435 8.73872e-20)
(0.86836 -0.322547 3.84146e-19)
(0.885147 -0.289582 -1.3826e-19)
(0.900244 -0.260765 -3.44061e-20)
(0.913848 -0.235435 8.72371e-20)
(0.926865 -0.212702 -4.58701e-20)
(0.939699 -0.191845 4.51628e-20)
(0.948231 -0.174693 -5.52542e-20)
(0.330801 -0.363263 5.55233e-20)
(0.620769 -0.634051 -8.2077e-20)
(0.744538 -0.654393 -9.26444e-20)
(0.789742 -0.596574 -1.0088e-19)
(0.815233 -0.527576 -1.74046e-19)
(0.835977 -0.466839 -1.84386e-19)
(0.854984 -0.414938 1.97961e-19)
(0.872389 -0.370367 -2.91144e-19)
(0.888349 -0.331781 -2.35362e-19)
(0.902951 -0.298157 2.05374e-19)
(0.916181 -0.268723 -1.56855e-19)
(0.928078 -0.242851 4.12047e-20)
(0.939472 -0.219701 7.54916e-20)
(0.951268 -0.198576 9.92048e-20)
(0.959645 -0.181405 5.02372e-20)
(0.349979 -0.358796 1.1086e-20)
(0.658507 -0.635935 -1.21248e-20)
(0.785657 -0.661811 1.29255e-20)
(0.828028 -0.60622 1.29829e-21)
(0.84901 -0.537369 3.92984e-20)
(0.865513 -0.476227 4.40717e-21)
(0.880916 -0.423837 -1.48102e-19)
(0.895285 -0.378767 1.23065e-19)
(0.908663 -0.339684 -1.13302e-19)
(0.921066 -0.305567 -1.58686e-19)
(0.932436 -0.275645 1.01766e-19)
(0.942666 -0.249288 -7.84271e-20)
(0.952347 -0.225635 2.99175e-20)
(0.962818 -0.203884 -7.3898e-20)
(0.971898 -0.186121 -3.5491e-20)
(0.367467 -0.351605 -7.50063e-20)
(0.694828 -0.63376 4.691e-20)
(0.826146 -0.665609 7.13747e-21)
(0.866201 -0.612939 5.93057e-20)
(0.882885 -0.544742 6.92234e-20)
(0.895213 -0.48356 -3.60789e-20)
(0.90704 -0.43097 1.07345e-19)
(0.918393 -0.385638 -8.43587e-20)
(0.9292 -0.346256 4.70886e-20)
(0.939405 -0.311814 1.44107e-19)
(0.948922 -0.281541 8.40583e-20)
(0.957559 -0.254817 -1.25109e-19)
(0.965535 -0.230936 5.57243e-20)
(0.973939 -0.209801 3.29222e-20)
(0.983466 -0.193387 5.73383e-20)
(0.382957 -0.341824 2.11825e-19)
(0.729309 -0.627609 -1.82608e-19)
(0.865642 -0.665826 -6.92666e-21)
(0.903993 -0.616765 2.68001e-20)
(0.916653 -0.549721 -2.36001e-20)
(0.92491 -0.488862 8.5965e-20)
(0.933218 -0.436356 -5.2187e-20)
(0.941596 -0.390994 -1.66486e-20)
(0.949863 -0.351507 1.89726e-19)
(0.957883 -0.316906 -1.737e-19)
(0.965549 -0.286421 -5.26272e-20)
(0.972641 -0.259443 1.33849e-19)
(0.979054 -0.235423 -7.51161e-20)
(0.985408 -0.214487 -5.14967e-20)
(0.993696 -0.196609 -1.26903e-20)
(0.396121 -0.329603 -1.71605e-19)
(0.761522 -0.617599 2.4738e-19)
(0.903786 -0.66253 4.63566e-21)
(0.941139 -0.617752 -1.02918e-21)
(0.950116 -0.552348 -3.08464e-20)
(0.954446 -0.492171 3.32858e-20)
(0.959315 -0.440025 -6.76085e-21)
(0.964778 -0.394859 6.91759e-20)
(0.970553 -0.355455 -1.55642e-19)
(0.976422 -0.320853 7.25669e-20)
(0.982246 -0.290288 -2.4849e-20)
(0.987821 -0.263142 3.82814e-20)
(0.992857 -0.238975 5.68356e-21)
(0.997459 -0.218056 -3.08766e-21)
(1.00395 -0.1993 -1.27532e-20)
(0.406733 -0.315214 5.11441e-20)
(0.791012 -0.60389 -1.9597e-19)
(0.940242 -0.655822 -1.20996e-19)
(0.977378 -0.615966 3.0459e-21)
(0.983075 -0.552677 2.47017e-21)
(0.983662 -0.493537 1.20243e-20)
(0.9852 -0.442019 -1.44444e-20)
(0.987828 -0.397267 -7.77203e-20)
(0.991178 -0.358127 -1.74791e-20)
(0.994947 -0.323675 6.04825e-20)
(0.998958 -0.293159 2.0609e-20)
(1.00304 -0.265945 -7.84931e-21)
(1.00684 -0.241694 -6.51261e-20)
(1.01007 -0.220843 1.80728e-20)
(1.01482 -0.201675 1.67601e-20)
(0.414637 -0.298885 -2.90071e-20)
(0.817178 -0.586559 3.21702e-19)
(0.9747 -0.645887 7.66845e-20)
(1.01245 -0.611479 1.09885e-20)
(1.01534 -0.550772 2.28968e-20)
(1.01241 -0.493026 -1.19799e-20)
(1.01075 -0.442394 -1.49484e-20)
(1.01064 -0.398261 5.9323e-20)
(1.01164 -0.359559 5.67461e-20)
(1.01338 -0.325404 -1.02377e-19)
(1.01563 -0.295063 9.47205e-21)
(1.01825 -0.267904 7.92401e-21)
(1.02088 -0.243664 7.90496e-20)
(1.02297 -0.222926 1.10641e-20)
(1.02623 -0.203522 -8.39797e-20)
(0.419714 -0.280812 -6.88537e-20)
(0.839561 -0.565867 -4.74022e-19)
(1.00682 -0.632955 -2.40766e-20)
(1.04611 -0.604319 -4.84391e-20)
(1.04671 -0.54671 -7.73529e-20)
(1.04054 -0.490714 1.72923e-20)
(1.03584 -0.44121 4.93448e-22)
(1.03311 -0.397895 -1.80452e-20)
(1.03186 -0.359796 4.38993e-21)
(1.03166 -0.326076 4.31065e-20)
(1.03221 -0.296038 -2.84265e-20)
(1.0334 -0.269053 1.93798e-20)
(1.03488 -0.244914 -2.77781e-20)
(1.03592 -0.224305 -4.93042e-20)
(1.03785 -0.204821 1.04751e-20)
(0.421855 -0.261267 -1.00107e-20)
(0.858032 -0.54228 6.435e-20)
(1.03607 -0.617107 7.77321e-20)
(1.07805 -0.594526 -1.08513e-20)
(1.07701 -0.540593 -9.19044e-21)
(1.06791 -0.486689 -5.54303e-20)
(1.06036 -0.438542 -1.50947e-21)
(1.05514 -0.39623 1.74267e-21)
(1.05175 -0.358888 -2.81545e-22)
(1.04969 -0.325737 -1.9535e-20)
(1.04863 -0.296119 2.70802e-20)
(1.04844 -0.269419 -8.41946e-21)
(1.04879 -0.245459 -4.52655e-21)
(1.0488 -0.224997 1.48067e-20)
(1.04946 -0.205589 -7.99658e-21)
(0.420929 -0.24061 1.81159e-19)
(0.872424 -0.516115 2.99464e-19)
(1.06192 -0.598361 4.77061e-20)
(1.10798 -0.582275 -9.33029e-20)
(1.10603 -0.532544 1.17851e-19)
(1.0944 -0.481044 5.55357e-20)
(1.08421 -0.43447 -1.96596e-20)
(1.07665 -0.393334 -4.71462e-21)
(1.07123 -0.356894 5.16934e-21)
(1.06742 -0.324433 -2.20128e-21)
(1.06483 -0.295343 -5.52809e-21)
(1.06331 -0.269031 1.45974e-20)
(1.06255 -0.245323 3.7521e-20)
(1.06158 -0.225037 -2.70274e-20)
(1.06101 -0.205833 4.45725e-20)
(0.416842 -0.219181 -2.10003e-19)
(0.882385 -0.487574 -9.40594e-20)
(1.08408 -0.576926 -2.28227e-19)
(1.13561 -0.567768 2.52713e-19)
(1.13359 -0.522679 -1.80715e-19)
(1.11987 -0.473884 6.20246e-20)
(1.10728 -0.429084 1.64943e-20)
(1.09755 -0.389283 1.12495e-20)
(1.09024 -0.353877 9.42601e-21)
(1.08477 -0.322216 -1.51381e-21)
(1.08074 -0.293752 2.66667e-21)
(1.07796 -0.267921 1.32018e-20)
(1.07614 -0.244539 -1.48013e-20)
(1.07422 -0.224462 -1.48407e-20)
(1.07249 -0.205571 -4.01904e-20)
(0.409574 -0.197309 -2.02525e-19)
(0.887559 -0.456929 9.13839e-20)
(1.10233 -0.553069 6.55056e-20)
(1.16064 -0.551169 -1.41065e-19)
(1.15953 -0.511129 2.79229e-20)
(1.14419 -0.465313 -1.07345e-20)
(1.12949 -0.422481 -3.09e-20)
(1.11776 -0.384159 -2.60889e-20)
(1.1087 -0.349903 1.53232e-20)
(1.10169 -0.319144 1.0697e-20)
(1.09631 -0.291394 1.51278e-21)
(1.09234 -0.266129 -9.13853e-21)
(1.08949 -0.243141 6.40845e-21)
(1.08668 -0.223306 9.60375e-21)
(1.08388 -0.204819 1.2797e-20)
(0.399181 -0.175324 1.9673e-19)
(0.887664 -0.424521 -9.12432e-20)
(1.11635 -0.527034 4.64011e-20)
(1.18282 -0.532645 2.07677e-19)
(1.18367 -0.49802 1.62254e-19)
(1.16727 -0.455446 -1.12276e-19)
(1.15075 -0.414769 4.19477e-20)
(1.13723 -0.378048 3.71059e-20)
(1.12656 -0.345045 -4.57459e-20)
(1.11814 -0.315274 1.41943e-20)
(1.11149 -0.288318 -3.42253e-21)
(1.1064 -0.263694 -1.37005e-21)
(1.10258 -0.241164 -1.87719e-21)
(1.09894 -0.221602 -9.34062e-21)
(1.09514 -0.203591 1.32532e-20)
(0.385786 -0.153553 -1.83488e-19)
(0.882482 -0.390724 1.16356e-19)
(1.12581 -0.49907 1.42058e-19)
(1.20186 -0.512364 -3.08397e-20)
(1.2058 -0.483479 -2.23329e-19)
(1.18903 -0.444409 -7.39411e-20)
(1.17099 -0.406052 -8.90033e-20)
(1.15588 -0.37104 3.2852e-20)
(1.14377 -0.339378 -8.84225e-21)
(1.13405 -0.310671 -2.54272e-20)
(1.12625 -0.284574 -1.74283e-20)
(1.12011 -0.260657 6.30283e-22)
(1.11538 -0.238644 -4.7186e-21)
(1.11095 -0.219379 1.82284e-21)
(1.10625 -0.201898 -6.47106e-21)
(0.369574 -0.132316 7.90759e-20)
(0.871855 -0.355934 7.90977e-22)
(1.13037 -0.469439 -4.31393e-19)
(1.21746 -0.490491 -2.39985e-20)
(1.22574 -0.467642 1.76559e-19)
(1.20935 -0.432327 1.50322e-19)
(1.19019 -0.396432 8.07194e-20)
(1.17368 -0.363232 -3.09048e-21)
(1.16027 -0.332982 1.64272e-20)
(1.14939 -0.305395 -1.14968e-21)
(1.14054 -0.280217 2.19584e-20)
(1.13344 -0.257063 5.90982e-21)
(1.12784 -0.235618 4.19976e-21)
(1.12272 -0.216671 -6.88154e-21)
(1.11718 -0.19975 -4.21294e-21)
(0.350789 -0.111917 -1.36181e-20)
(0.855685 -0.320564 1.41647e-19)
(1.12973 -0.438419 2.33724e-19)
(1.22933 -0.467198 6.82797e-20)
(1.24328 -0.450641 -1.66062e-19)
(1.2281 -0.41932 -1.77266e-19)
(1.20827 -0.386024 6.61435e-20)
(1.19063 -0.354706 -2.65857e-20)
(1.17605 -0.325927 8.52919e-20)
(1.16413 -0.299524 -6.88312e-22)
(1.15434 -0.275299 -1.15506e-20)
(1.14635 -0.252955 -5.09499e-21)
(1.13995 -0.232133 1.56217e-20)
(1.1342 -0.213514 7.89747e-21)
(1.12791 -0.197168 3.86575e-21)
(0.329736 -0.0926362 2.03309e-19)
(0.833947 -0.285044 -2.1496e-19)
(1.12359 -0.406302 1.23154e-19)
(1.23716 -0.442661 1.52706e-19)
(1.25822 -0.432602 1.15168e-19)
(1.24516 -0.405502 3.80709e-20)
(1.22516 -0.374934 2.48238e-20)
(1.20666 -0.345559 -1.51837e-21)
(1.1911 -0.318296 -3.9093e-20)
(1.17826 -0.293113 1.64982e-20)
(1.16762 -0.269882 3.49036e-20)
(1.15884 -0.24838 9.85378e-21)
(1.15167 -0.228224 -9.14984e-21)
(1.1454 -0.20995 -6.7708e-21)
(1.13845 -0.194172 -5.50761e-21)
(0.306773 -0.0747247 -1.09816e-19)
(0.806701 -0.249819 7.82118e-20)
(1.1117 -0.373393 -6.14518e-21)
(1.24061 -0.417059 -1.63631e-19)
(1.27032 -0.413644 -3.44121e-20)
(1.26042 -0.39098 8.00536e-20)
(1.2408 -0.363263 -6.02374e-20)
(1.22172 -0.335887 7.44888e-21)
(1.20539 -0.31017 -3.96579e-21)
(1.19175 -0.286234 -1.26416e-20)
(1.18039 -0.264019 -2.02477e-20)
(1.17089 -0.24337 -3.02533e-20)
(1.16301 -0.22395 -1.34872e-20)
(1.15622 -0.20602 1.61631e-20)
(1.14886 -0.190805 3.11641e-21)
(0.282302 -0.0583968 -1.37055e-19)
(0.774102 -0.215341 -1.70106e-20)
(1.09381 -0.340006 -8.14529e-20)
(1.23935 -0.390571 6.96585e-20)
(1.27933 -0.393879 -7.51388e-20)
(1.27375 -0.37585 -2.94401e-20)
(1.25514 -0.351108 7.86896e-21)
(1.23581 -0.325781 -8.25053e-21)
(1.21888 -0.301628 2.12568e-20)
(1.2046 -0.278954 9.06449e-22)
(1.1926 -0.257766 1.2962e-20)
(1.18249 -0.23798 1.65261e-20)
(1.17399 -0.219304 1.61469e-20)
(1.16663 -0.201809 -5.17898e-21)
(1.15912 -0.187116 -4.36666e-21)
(0.256761 -0.0438239 7.98404e-20)
(0.736415 -0.182068 8.38485e-20)
(1.06974 -0.306462 2.76056e-20)
(1.23301 -0.363376 -4.20278e-20)
(1.28495 -0.373412 8.14121e-21)
(1.28498 -0.360198 5.82683e-20)
(1.26812 -0.338556 -3.8111e-20)
(1.24891 -0.315325 -3.11374e-20)
(1.23158 -0.292747 -7.07045e-21)
(1.21679 -0.271338 5.90703e-21)
(1.20426 -0.251182 -2.73491e-20)
(1.19362 -0.232257 6.90101e-21)
(1.18459 -0.214332 1.50349e-20)
(1.17673 -0.197378 -3.67614e-21)
(1.16902 -0.183158 -4.42313e-21)
(0.230609 -0.0311291 -5.23414e-20)
(0.694042 -0.150454 -3.55379e-20)
(1.03937 -0.273093 -6.66163e-20)
(1.22122 -0.335655 -1.04458e-20)
(1.28682 -0.35234 -6.99256e-21)
(1.2939 -0.344099 -6.48889e-20)
(1.27965 -0.325683 1.94251e-20)
(1.26099 -0.304597 1.0358e-20)
(1.24349 -0.283599 -1.73274e-20)
(1.22832 -0.263449 -1.01453e-20)
(1.21536 -0.244321 -1.18263e-21)
(1.20429 -0.226253 -8.49119e-21)
(1.19479 -0.209079 -1.30919e-20)
(1.1865 -0.192698 -1.14362e-20)
(1.17848 -0.178912 7.57288e-21)
(0.204311 -0.0203845 -2.32564e-20)
(0.647527 -0.120936 8.4122e-21)
(1.00262 -0.240235 1.12445e-20)
(1.2036 -0.307593 1.13136e-20)
(1.28457 -0.330752 1.87122e-20)
(1.30026 -0.32761 1.28307e-20)
(1.28963 -0.312553 -3.57854e-21)
(1.27203 -0.293666 1.18089e-20)
(1.25461 -0.274251 -4.10432e-22)
(1.23919 -0.255346 -1.22511e-22)
(1.22591 -0.237236 4.31521e-21)
(1.21448 -0.220015 -1.96871e-21)
(1.2046 -0.203581 1.23374e-21)
(1.19592 -0.187756 4.94234e-21)
(1.18756 -0.174377 -3.89223e-21)
(0.17832 -0.0116077 -1.39818e-20)
(0.597554 -0.0939174 -3.71974e-21)
(0.95953 -0.208227 1.64186e-20)
(1.17977 -0.279383 7.31059e-21)
(1.27775 -0.308729 2.05222e-20)
(1.30376 -0.310772 1.3941e-20)
(1.29789 -0.299212 -5.30052e-22)
(1.28197 -0.282592 1.64439e-20)
(1.26493 -0.264764 -8.00214e-21)
(1.24943 -0.247088 8.77008e-22)
(1.23591 -0.229977 5.27901e-21)
(1.2242 -0.213585 -2.37012e-21)
(1.21401 -0.197874 2.23822e-21)
(1.20501 -0.18258 7.89623e-21)
(1.19637 -0.169571 -2.99292e-21)
(0.153063 -0.00475793 -1.90192e-20)
(0.544935 -0.0697538 -5.64593e-20)
(0.910267 -0.177416 -6.51808e-20)
(1.14939 -0.251227 -2.37543e-21)
(1.26587 -0.286349 -9.50525e-21)
(1.304 -0.293611 -7.17594e-20)
(1.30423 -0.285689 3.61186e-20)
(1.29074 -0.271418 5.52685e-21)
(1.27443 -0.255193 -2.41711e-20)
(1.25903 -0.238728 -2.08381e-20)
(1.24539 -0.222591 3.69447e-21)
(1.23348 -0.207004 -1.25834e-20)
(1.22304 -0.191998 -1.30861e-20)
(1.21378 -0.17722 -1.6787e-20)
(1.20496 -0.164526 1.01753e-20)
(0.128922 0.000262715 7.36253e-20)
(0.490595 -0.048736 5.40144e-20)
(0.855158 -0.148154 2.33635e-20)
(1.11213 -0.223341 -3.54326e-20)
(1.24839 -0.263685 1.72918e-20)
(1.30053 -0.276135 3.78628e-20)
(1.30837 -0.271991 -3.13597e-20)
(1.29822 -0.260174 -6.29715e-20)
(1.2831 -0.245581 -8.94804e-21)
(1.26801 -0.230312 3.62449e-20)
(1.25436 -0.215126 -4.62803e-20)
(1.24232 -0.200316 1.76028e-20)
(1.2317 -0.185995 7.65783e-21)
(1.22225 -0.17173 -9.36855e-22)
(1.21334 -0.159279 1.49238e-21)
(0.106225 0.00360362 -8.60331e-20)
(0.435541 -0.0310728 -5.53804e-20)
(0.79473 -0.120799 -9.16944e-20)
(1.06779 -0.195951 8.56607e-20)
(1.22473 -0.240816 -9.72591e-20)
(1.29278 -0.258339 -2.57661e-20)
(1.30995 -0.258104 -2.8942e-21)
(1.30423 -0.248869 -1.56966e-21)
(1.29087 -0.235959 5.07615e-20)
(1.27635 -0.221882 -5.98042e-20)
(1.26282 -0.207622 4.45604e-20)
(1.25075 -0.19356 2.15483e-20)
(1.24001 -0.1799 5.36297e-20)
(1.23041 -0.166158 -5.81791e-21)
(1.22149 -0.153869 -1.58033e-20)
(0.0852297 0.00545452 1.42151e-20)
(0.380822 -0.0168712 1.55944e-20)
(0.729744 -0.0957153 -3.31806e-20)
(1.01624 -0.169303 -1.34696e-19)
(1.19427 -0.217826 -3.85338e-20)
(1.28009 -0.240208 1.02319e-19)
(1.30848 -0.243991 -8.62835e-20)
(1.30852 -0.237489 -4.67731e-20)
(1.29763 -0.226341 1.37247e-20)
(1.28403 -0.213469 -1.99056e-20)
(1.27079 -0.200118 -8.97427e-20)
(1.25876 -0.186775 -4.30706e-20)
(1.24799 -0.173746 2.78305e-21)
(1.23829 -0.160539 1.04177e-20)
(1.22939 -0.148329 9.15466e-21)
(0.0661203 0.00603082 1.61386e-19)
(0.327471 -0.00611816 -2.06365e-19)
(0.66121 -0.073258 1.50217e-19)
(0.957558 -0.143668 8.20794e-20)
(1.15643 -0.194819 2.68383e-19)
(1.26169 -0.221723 1.45847e-20)
(1.30335 -0.229595 7.24272e-20)
(1.31072 -0.225995 1.89819e-20)
(1.30324 -0.216723 -1.62304e-19)
(1.29101 -0.205093 5.52895e-20)
(1.27826 -0.192646 3.75666e-20)
(1.26639 -0.179997 7.10352e-20)
(1.25564 -0.167561 -7.00991e-20)
(1.24588 -0.154907 -2.24285e-20)
(1.23706 -0.142693 -5.13667e-21)
(0.0490072 0.00555783 -2.14947e-20)
(0.276451 0.00133046 2.42055e-19)
(0.59039 -0.0537617 2.06447e-19)
(0.892055 -0.119344 4.32338e-20)
(1.11067 -0.171926 -2.65844e-19)
(1.23673 -0.202872 -1.78953e-19)
(1.2938 -0.21484 6.48443e-20)
(1.31033 -0.214324 -4.86716e-20)
(1.30742 -0.20708 9.1197e-20)
(1.29718 -0.196761 2.50052e-20)
(1.28521 -0.185229 1.84017e-20)
(1.27362 -0.173258 -4.25119e-20)
(1.26298 -0.161374 2.307e-20)
(1.25321 -0.149289 9.61642e-20)
(1.2445 -0.136995 1.07289e-19)
(0.0339323 0.00425683 1.80048e-19)
(0.22859 0.00574608 -2.00065e-19)
(0.518751 -0.0375086 -3.41324e-19)
(0.820369 -0.09667 3.5058e-20)
(1.05659 -0.149318 2.3515e-19)
(1.2043 -0.183657 2.50463e-19)
(1.2789 -0.199642 1.51854e-19)
(1.30667 -0.202385 -2.6447e-21)
(1.30981 -0.197359 3.59798e-20)
(1.30238 -0.188461 1.28285e-20)
(1.29159 -0.177881 9.07045e-20)
(1.28047 -0.166587 2.42414e-20)
(1.27002 -0.15521 1.84099e-20)
(1.26031 -0.143713 -2.41699e-20)
(1.25174 -0.131269 -3.14039e-20)
(0.0208785 0.00233517 -2.32684e-19)
(0.184538 0.00750654 1.84963e-19)
(0.44789 -0.0246862 1.81352e-19)
(0.743529 -0.0760197 -1.47665e-19)
(0.994034 -0.127223 -3.62927e-19)
(1.16348 -0.164115 -7.58094e-20)
(1.25758 -0.183915 -2.12321e-19)
(1.29888 -0.190064 8.17455e-20)
(1.30986 -0.187478 -1.25003e-20)
(1.30634 -0.180158 -1.0216e-19)
(1.29729 -0.170601 -4.10169e-20)
(1.28689 -0.160007 1.11222e-21)
(1.27677 -0.149096 -2.74546e-20)
(1.26717 -0.138207 -2.68595e-20)
(1.25881 -0.125548 2.97575e-21)
(0.00978083 -1.86262e-05 3.40097e-19)
(0.144736 0.00706103 -2.2506e-19)
(0.379402 -0.0153344 1.44519e-19)
(0.663002 -0.0577912 1.62913e-19)
(0.923181 -0.105931 3.14376e-19)
(1.11344 -0.144331 -2.47169e-19)
(1.22861 -0.167588 1.06839e-19)
(1.28586 -0.17723 1.22836e-19)
(1.3068 -0.177326 -1.24371e-19)
(1.30863 -0.171792 -5.14705e-20)
(1.30212 -0.163373 -1.44474e-20)
(1.29283 -0.153532 -1.93779e-20)
(1.28322 -0.143055 -8.63485e-20)
(1.27383 -0.132795 6.76589e-20)
(1.26573 -0.119867 -1.21881e-19)
(0.000537841 -0.00263549 -1.87071e-19)
(0.109423 0.00489107 9.25767e-21)
(0.314734 -0.00930121 1.02084e-19)
(0.58066 -0.042367 -2.54469e-19)
(0.844705 -0.0858139 1.31543e-19)
(1.05355 -0.124464 -1.34969e-21)
(1.19071 -0.150624 -1.44424e-19)
(1.26629 -0.163747 -6.31978e-20)
(1.29962 -0.166763 9.21885e-21)
(1.30862 -0.163272 1.29506e-19)
(1.30576 -0.156158 1.57659e-19)
(1.29817 -0.147165 1.34956e-19)
(1.28933 -0.137109 2.19043e-20)
(1.28028 -0.127503 -1.4141e-19)
(1.27253 -0.114256 -1.75182e-20)
(-0.00697826 -0.00536372 3.90684e-20)
(0.0786478 0.00147777 -2.24613e-19)
(0.255053 -0.00623097 -3.42853e-19)
(0.498662 -0.030043 3.32927e-19)
(0.759884 -0.0673144 -2.43585e-19)
(0.983551 -0.104765 1.3122e-19)
(1.14263 -0.133046 1.43222e-19)
(1.23862 -0.149492 1.01858e-19)
(1.28702 -0.155628 9.37162e-20)
(1.30542 -0.154473 2.59299e-20)
(1.30772 -0.148887 -1.06248e-19)
(1.30266 -0.140893 -1.28059e-19)
(1.29503 -0.131271 3.04853e-20)
(1.2865 -0.12235 3.50093e-20)
(1.27923 -0.108756 1.39439e-19)
(-0.0129111 -0.008066 1.61155e-19)
(0.0523083 -0.00271995 4.463e-19)
(0.201154 -0.00559806 -1.08778e-19)
(0.419223 -0.0209358 -2.1294e-19)
(0.670659 -0.0509191 4.87877e-19)
(0.903789 -0.0856034 1.96757e-19)
(1.0833 -0.114966 4.40798e-20)
(1.20117 -0.13438 -6.71623e-20)
(1.26734 -0.143748 2.35121e-20)
(1.29781 -0.145238 -1.74419e-19)
(1.30722 -0.141462 7.99883e-20)
(1.30592 -0.134678 2.15794e-20)
(1.30015 -0.125549 -1.25142e-19)
(1.29247 -0.117357 -3.96715e-20)
(1.28583 -0.103384 -1.02253e-19)
(-0.0174108 -0.0106166 -6.92742e-20)
(0.0301898 -0.00727774 2.09473e-19)
(0.153447 -0.00677719 2.01057e-19)
(0.34434 -0.0149065 -8.74134e-20)
(0.579548 -0.0370822 -3.4236e-20)
(0.815385 -0.0674651 -2.29112e-19)
(1.01209 -0.0966257 1.04946e-19)
(1.15224 -0.118397 -1.15453e-19)
(1.23865 -0.130966 -5.61399e-20)
(1.28414 -0.135384 1.49637e-19)
(1.30316 -0.133743 -1.38431e-19)
(1.30731 -0.128458 6.80944e-20)
(1.3044 -0.119924 1.48812e-19)
(1.29802 -0.112539 -1.70924e-19)
(1.29237 -0.0981907 1.1486e-19)
(-0.0206254 -0.0129006 -1.62976e-19)
(0.0120026 -0.011814 -6.7845e-19)
(0.112002 -0.00912329 3.00645e-20)
(0.275556 -0.0115489 -1.68371e-19)
(0.489389 -0.0261116 -4.88431e-19)
(0.720383 -0.0509263 1.59902e-19)
(0.929114 -0.0784208 -2.94847e-19)
(1.09038 -0.10165 1.27737e-19)
(1.19881 -0.117171 1.19592e-19)
(1.26235 -0.124718 -1.753e-19)
(1.29397 -0.12556 6.88395e-20)
(1.30583 -0.12212 2.40649e-20)
(1.30724 -0.114384 3.27466e-21)
(1.30301 -0.107881 4.64848e-20)
(1.29865 -0.0931606 -3.38849e-20)
(-0.0226968 -0.0148146 1.02504e-20)
(-0.00258552 -0.0159978 3.86501e-19)
(0.0766308 -0.0120381 2.46255e-19)
(0.213845 -0.0102636 2.03031e-19)
(0.402949 -0.0180589 2.02199e-19)
(0.621693 -0.0365679 2.42421e-19)
(0.835533 -0.0609155 1.77426e-19)
(1.01469 -0.0844119 -2.32296e-19)
(1.14567 -0.102347 -3.11997e-19)
(1.22999 -0.11307 2.88266e-19)
(1.27753 -0.116704 3.59465e-20)
(1.30002 -0.115541 -2.49792e-20)
(1.30783 -0.108822 -1.73514e-19)
(1.30691 -0.103431 -4.97336e-20)
(1.30481 -0.0883289 1.35102e-19)
(-0.0237588 -0.0162714 1.24482e-19)
(-0.0139215 -0.0195573 -5.38246e-19)
(0.046985 -0.015015 -4.74874e-20)
(0.159641 -0.0103844 -1.8747e-19)
(0.322541 -0.0126817 -1.36437e-19)
(0.522795 -0.0248441 -1.04086e-20)
(0.733743 -0.0448032 -7.53801e-20)
(0.925307 -0.067168 2.47661e-19)
(1.07743 -0.086642 1.84916e-19)
(1.18435 -0.10033 -2.00797e-19)
(1.25118 -0.106981 1.0888e-19)
(1.28774 -0.108501 -1.45946e-19)
(1.3048 -0.10324 1.36116e-19)
(1.30911 -0.0990025 -3.12662e-20)
(1.31001 -0.0836953 -1.32445e-19)
(-0.0239361 -0.0172038 -4.45588e-19)
(-0.0223504 -0.02229 7.44399e-19)
(0.0226291 -0.0176638 8.53127e-21)
(0.112962 -0.011301 -2.06069e-19)
(0.249795 -0.00951569 2.70517e-19)
(0.427225 -0.0159579 -7.84495e-20)
(0.627325 -0.0308003 -2.09508e-19)
(0.823803 -0.0506233 -2.27253e-19)
(0.993182 -0.070431 4.22691e-19)
(1.12282 -0.0865388 -1.06583e-19)
(1.21176 -0.0962027 -3.39818e-20)
(1.26619 -0.100862 1.88721e-19)
(1.29604 -0.0973021 -1.36307e-19)
(1.30828 -0.0949777 4.69893e-20)
(1.31443 -0.0788762 -5.76322e-20)
(-0.0233357 -0.0175578 6.28768e-19)
(-0.028221 -0.0240785 -6.92662e-19)
(0.00309478 -0.0197205 -2.87189e-19)
(0.0735593 -0.0125376 1.1289e-19)
(0.18565 -0.00801921 -4.70161e-20)
(0.338066 -0.0098243 -1.65297e-19)
(0.520619 -0.0194922 2.08009e-19)
(0.713441 -0.0356395 -1.49717e-19)
(0.893572 -0.0543787 -2.40989e-19)
(1.04353 -0.0719586 2.81985e-19)
(1.15595 -0.0843367 -9.39548e-20)
(1.23174 -0.0923286 5.1822e-20)
(1.27875 -0.0911899 1.03732e-20)
(1.30223 -0.0904671 1.25672e-19)
(1.31618 -0.0749538 6.47015e-20)
(-0.0220849 -0.0173053 -2.59359e-19)