/*--------------------------------*- C++ -*----------------------------------*\
  =========                 |
  \\      /  F ield         | OpenFOAM: The Open Source CFD Toolbox
   \\    /   O peration     | Website:  https://openfoam.org
    \\  /    A nd           | Version:  7
     \\/     M anipulation  |
\*---------------------------------------------------------------------------*/
FoamFile
{
    version     2.0;
    format      ascii;
    class       surfaceScalarField;
    location    "10";
    object      phi;
}
// * * * * * * * * * * * * * * * * * * * * * * * * * * * * * * * * * * * * * //

dimensions      [0 3 -1 0 0 0 0];

internalField   nonuniform List<scalar> 
2638
(
-4.61298e-05
0.0177801
-3.55455e-05
0.01773
-2.58772e-05
0.0176892
-1.68829e-05
0.0176583
-8.33159e-06
0.0176376
0.0176272
-0.000548076
0.0142721
0.000586879
-0.000492687
0.0155632
-0.000430228
0.0165668
-0.000368621
0.0172812
-0.000312608
0.017744
-0.00026405
0.0180106
-0.000222974
0.0181375
-0.000188521
0.0181722
-0.000159553
0.0181506
-0.000134981
0.018098
-0.000113885
0.0180308
-9.55417e-05
0.0179592
-7.94016e-05
0.0178893
-6.5041e-05
0.0178247
-5.21219e-05
0.0177672
-4.03593e-05
0.0177182
-2.94983e-05
0.0176784
-1.93019e-05
0.0176481
-9.54257e-06
0.0176279
0.0176177
-0.000554531
0.0142358
0.000590836
-0.00050174
0.0155104
-0.000441431
0.0165065
-0.000381237
0.017221
-0.000325906
0.0176886
-0.000277452
0.0179622
-0.000236071
0.0180961
-0.000201042
0.0181371
-0.000171323
0.0181209
-0.000145883
0.0180726
-0.000123841
0.0180088
-0.000104497
0.0179399
-8.73138e-05
0.0178721
-7.18765e-05
0.0178092
-5.78543e-05
0.0177532
-4.49677e-05
0.0177053
-3.29672e-05
0.0176664
-2.16201e-05
0.0176368
-1.07034e-05
0.0176169
0.017607
-0.000560274
0.0142019
0.000594212
-0.000509958
0.0154601
-0.00045173
0.0164482
-0.000392945
0.0171622
-0.000338335
0.017634
-0.000290044
0.0179139
-0.000248426
0.0180545
-0.000212888
0.0181016
-0.000182484
0.0180905
-0.000156241
0.0180463
-0.000133316
0.0179858
-0.000113031
0.0179196
-9.48624e-05
0.017854
-7.84046e-05
0.0177928
-6.33335e-05
0.0177381
-4.93759e-05
0.0176914
-3.62873e-05
0.0176533
-2.38398e-05
0.0176244
-1.1815e-05
0.0176049
0.0175952
-0.000565365
0.0141702
0.000597059
-0.000517407
0.0154122
-0.000461194
0.016392
-0.000403807
0.0171048
-0.000349949
0.0175802
-0.000301872
0.0178658
-0.000260076
0.0180127
-0.000224093
0.0180656
-0.000193064
0.0180595
-0.000166079
0.0180193
-0.000142328
0.0179621
-0.000121159
0.0178984
-0.000102059
0.0178349
-8.46347e-05
0.0177753
-6.85672e-05
0.0177221
-5.35893e-05
0.0176764
-3.94623e-05
0.0176392
-2.59634e-05
0.0176109
-1.28788e-05
0.0175918
0.0175823
-0.000569863
0.0141406
0.000599427
-0.000524153
0.0153665
-0.000469885
0.0163378
-0.000413881
0.0170488
-0.000360798
0.0175271
-0.00031298
0.017818
-0.00027106
0.0179708
-0.000234687
0.0180292
-0.00020309
0.0180279
-0.000175417
0.0179917
-0.000150896
0.0179376
-0.000128895
0.0178764
-0.000108917
0.0178149
-9.05766e-05
0.017757
-7.35626e-05
0.017705
-5.76136e-05
0.0176604
-4.24965e-05
0.017624
-2.79935e-05
0.0175964
-1.38959e-05
0.0175777
0.0175684
-0.000573821
0.0141131
0.000601364
-0.000530255
0.0153229
-0.000477864
0.0162854
-0.000423222
0.0169942
-0.00037093
0.0174748
-0.00032341
0.0177705
-0.000281413
0.0179288
-0.000244701
0.0179925
-0.000212589
0.0179957
-0.000184279
0.0179634
-0.000159038
0.0179123
-0.000136255
0.0178536
-0.000115449
0.0177941
-9.62404e-05
0.0177378
-7.83277e-05
0.0176871
-6.14546e-05
0.0176436
-4.53936e-05
0.017608
-2.99328e-05
0.0175809
-1.4868e-05
0.0175627
0.0175535
-0.000577291
0.0140875
0.000602914
-0.000535768
0.0152814
-0.000485186
0.0162348
-0.000431882
0.0169409
-0.000380392
0.0174233
-0.000333201
0.0177233
-0.00029117
0.0178867
-0.000254166
0.0179555
-0.000221585
0.0179632
-0.000192687
0.0179345
-0.000166773
0.0178864
-0.000143255
0.0178301
-0.000121665
0.0177725
-0.000101636
0.0177178
-8.28701e-05
0.0176684
-6.51183e-05
0.0176258
-4.81588e-05
0.017591
-3.17841e-05
0.0175645
-1.57961e-05
0.0175467
0.0175377
-0.000580321
0.0140637
0.00060412
-0.000540744
0.0152418
-0.000491905
0.0161859
-0.00043991
0.0168889
-0.000389228
0.0173726
-0.000342392
0.0176764
-0.000300364
0.0178447
-0.00026311
0.0179183
-0.000230104
0.0179302
-0.00020066
0.017905
-0.000174117
0.0178599
-0.000149909
0.0178059
-0.000127581
0.0177502
-0.000106773
0.017697
-8.7198e-05
0.0176488
-6.8611e-05
0.0176072
-5.07955e-05
0.0175732
-3.35502e-05
0.0175473
-1.66814e-05
0.0175298
0.017521
-0.000582954
0.0140416
0.000605021
-0.000545232
0.0152041
-0.000498068
0.0161388
-0.000447352
0.0168382
-0.000397479
0.0173227
-0.00035102
0.01763
-0.000309028
0.0178027
-0.000271561
0.0178808
-0.000238169
0.0178968
-0.000208222
0.0178751
-0.00018109
0.0178327
-0.000156232
0.017781
-0.000133206
0.0177271
-0.000111663
0.0176754
-9.13197e-05
0.0176285
-7.19387e-05
0.0175879
-5.33088e-05
0.0175546
-3.5234e-05
0.0175292
-1.75257e-05
0.0175121
0.0175035
-0.000585232
0.0140212
0.000605654
-0.000549277
0.0151681
-0.000503723
0.0160932
-0.000454253
0.0167887
-0.000405184
0.0172737
-0.00035912
0.0175839
-0.000317191
0.0177608
-0.000279545
0.0178431
-0.000245805
0.017863
-0.00021539
0.0178446
-0.000187709
0.017805
-0.000162239
0.0177556
-0.000138555
0.0177035
-0.000116314
0.0176532
-9.52427e-05
0.0176074
-7.51075e-05
0.0175677
-5.5703e-05
0.0175352
-3.68384e-05
0.0175103
-1.83305e-05
0.0174936
0.0174852
-0.000587192
0.0140023
0.000606054
-0.00055292
0.0151338
-0.000508911
0.0160492
-0.000460652
0.0167404
-0.000412382
0.0172254
-0.000366725
0.0175383
-0.000324885
0.017719
-0.00028709
0.0178053
-0.000253032
0.017829
-0.000222185
0.0178138
-0.000193989
0.0177768
-0.000167944
0.0177295
-0.000143637
0.0176792
-0.000120738
0.0176303
-9.89752e-05
0.0175856
-7.81235e-05
0.0175469
-5.79826e-05
0.017515
-3.83664e-05
0.0174907
-1.90971e-05
0.0174743
0.0174661
-0.000588872
0.0139849
0.000606251
-0.0005562
0.0151012
-0.000513672
0.0160067
-0.000466588
0.0166934
-0.000419107
0.0171779
-0.000373867
0.017493
-0.000332135
0.0176772
-0.000294218
0.0177674
-0.000259874
0.0177946
-0.000228625
0.0177826
-0.000199947
0.0177482
-0.000173361
0.0177029
-0.000148467
0.0176543
-0.000124942
0.0176067
-0.000102524
0.0175632
-8.09928e-05
0.0175253
-6.01517e-05
0.0174942
-3.98208e-05
0.0174704
-1.98266e-05
0.0174543
0.0174463
-0.000590301
0.013969
0.000606274
-0.000559153
0.01507
-0.000518043
0.0159656
-0.000472096
0.0166474
-0.000425392
0.0171312
-0.000380574
0.0174482
-0.000338968
0.0176356
-0.000300953
0.0177294
-0.00026635
0.01776
-0.000234729
0.0177509
-0.000205599
0.017719
-0.000178502
0.0176758
-0.000153053
0.0176288
-0.000128937
0.0175826
-0.000105898
0.0175402
-8.3721e-05
0.0175032
-6.2215e-05
0.0174727
-4.12043e-05
0.0174494
-2.05207e-05
0.0174336
0.0174257
-0.00059151
0.0139543
0.000606149
-0.00056181
0.0150403
-0.000522058
0.0159258
-0.00047721
0.0166026
-0.000431267
0.0170853
-0.000386874
0.0174038
-0.00034541
0.0175942
-0.000307317
0.0176913
-0.000272479
0.0177252
-0.000240513
0.017719
-0.000210959
0.0176895
-0.000183381
0.0176483
-0.000157407
0.0176028
-0.000132732
0.017558
-0.000109104
0.0175165
-8.6314e-05
0.0174804
-6.41763e-05
0.0174505
-4.25197e-05
0.0174277
-2.11807e-05
0.0174123
0.0174046
-0.000592526
0.0139409
0.0006059
-0.000564202
0.015012
-0.000525746
0.0158874
-0.000481959
0.0165588
-0.000436761
0.0170401
-0.000392794
0.0173598
-0.000351482
0.0175528
-0.00031333
0.0176532
-0.000278279
0.0176901
-0.000245993
0.0176867
-0.000216041
0.0176595
-0.00018801
0.0176202
-0.00016154
0.0175764
-0.000136334
0.0175327
-0.000112148
0.0174923
-8.87772e-05
0.017457
-6.60399e-05
0.0174278
-4.37697e-05
0.0174054
-2.18083e-05
0.0173903
0.0173827
-0.000593371
0.0139288
0.000605548
-0.000566354
0.014985
-0.000529137
0.0158502
-0.000486372
0.016516
-0.0004419
0.0169956
-0.000398357
0.0173163
-0.000357207
0.0175117
-0.000319012
0.017615
-0.000283769
0.0176549
-0.000251184
0.0176541
-0.000220859
0.0176292
-0.000192401
0.0175918
-0.000165461
0.0175494
-0.000139753
0.017507
-0.000115038
0.0174676
-9.11158e-05
0.0174331
-6.78094e-05
0.0174045
-4.49569e-05
0.0173826
-2.24039e-05
0.0173678
0.0173603
-0.000594068
0.0139177
0.00060511
-0.000568291
0.0149592
-0.000532256
0.0158141
-0.000490474
0.0164742
-0.000446708
0.0169518
-0.000403586
0.0172732
-0.000362605
0.0174707
-0.000324381
0.0175768
-0.000288964
0.0176195
-0.000256101
0.0176212
-0.000225425
0.0175985
-0.000196563
0.0175629
-0.00016918
0.017522
-0.000142997
0.0174809
-0.00011778
0.0174424
-9.33349e-05
0.0174086
-6.94887e-05
0.0173806
-4.60836e-05
0.0173592
-2.29694e-05
0.0173447
0.0173374
-0.000594635
0.0139078
0.000604602
-0.000570034
0.0149346
-0.000535125
0.0157792
-0.000494287
0.0164334
-0.000451208
0.0169088
-0.000408501
0.0172305
-0.000367694
0.0174299
-0.000329454
0.0175385
-0.000293879
0.0175839
-0.000260757
0.0175881
-0.000229752
0.0175675
-0.000200508
0.0175337
-0.000172705
0.0174942
-0.000146071
0.0174542
-0.00012038
0.0174167
-9.54392e-05
0.0173837
-7.10812e-05
0.0173563
-4.71522e-05
0.0173353
-2.35057e-05
0.017321
0.0173139
-0.000595087
0.0138988
0.000604038
-0.000571601
0.0149111
-0.000537766
0.0157454
-0.000497834
0.0163935
-0.000455419
0.0168663
-0.00041312
0.0171882
-0.000372492
0.0173893
-0.000334246
0.0175003
-0.000298527
0.0175482
-0.000265164
0.0175547
-0.000233849
0.0175362
-0.000204245
0.0175041
-0.000176045
0.017466
-0.000148985
0.0174272
-0.000122843
0.0173906
-9.74332e-05
0.0173583
-7.25905e-05
0.0173314
-4.81648e-05
0.0173108
-2.40141e-05
0.0172969
0.0172899
-0.000595439
0.0138908
0.000603429
-0.00057301
0.0148887
-0.000540196
0.0157126
-0.000501131
0.0163544
-0.000459359
0.0168246
-0.000417461
0.0171463
-0.000377013
0.0173488
-0.000338771
0.017462
-0.000302922
0.0175123
-0.000269335
0.0175212
-0.000237727
0.0175046
-0.000207783
0.0174741
-0.000179207
0.0174375
-0.000151743
0.0173997
-0.000125176
0.017364
-9.93211e-05
0.0173324
-7.40193e-05
0.0173061
-4.91236e-05
0.0172859
-2.44955e-05
0.0172723
0.0172654
-0.000595702
0.0138837
0.000602782
-0.000574274
0.0148673
-0.000542431
0.0156807
-0.000504197
0.0163162
-0.000463045
0.0167834
-0.000421538
0.0171048
-0.000381273
0.0173086
-0.000343042
0.0174238
-0.000307076
0.0174764
-0.000273278
0.0174874
-0.000241395
0.0174727
-0.00021113
0.0174439
-0.000182199
0.0174085
-0.000154352
0.0173719
-0.000127382
0.017337
-0.000101107
0.0173061
-7.53707e-05
0.0172804
-5.00303e-05
0.0172606
-2.49504e-05
0.0172472
0.0172404
-0.000595886
0.0138775
0.000602107
-0.000575405
0.0148468
-0.000544486
0.0156498
-0.000507045
0.0162787
-0.000466492
0.0167429
-0.000425367
0.0170636
-0.000385283
0.0172685
-0.00034707
0.0173856
-0.000310998
0.0174403
-0.000277004
0.0174534
-0.000244862
0.0174406
-0.000214293
0.0174133
-0.000185025
0.0173793
-0.000156818
0.0173436
-0.000129466
0.0173097
-0.000102794
0.0172795
-7.66472e-05
0.0172543
-5.08868e-05
0.0172348
-2.53805e-05
0.0172217
0.017215
-0.000595997
0.0138721
0.000601406
-0.000576413
0.0148272
-0.00054637
0.0156198
-0.000509689
0.016242
-0.000469711
0.0167029
-0.000428958
0.0170229
-0.000389056
0.0172286
-0.000350866
0.0173474
-0.000314698
0.0174041
-0.000280521
0.0174192
-0.000248135
0.0174082
-0.000217279
0.0173824
-0.000187694
0.0173497
-0.000159145
0.0173151
-0.000131432
0.017282
-0.000104385
0.0172524
-7.78514e-05
0.0172277
-5.16946e-05
0.0172087
-2.57858e-05
0.0171958
0.0171892
-0.000596041
0.0138675
0.000600684
-0.000577305
0.0148085
-0.000548095
0.0155905
-0.000512139
0.0162061
-0.000472715
0.0166635
-0.000432323
0.0169825
-0.000392601
0.0171889
-0.00035444
0.0173092
-0.000318185
0.0173679
-0.000283837
0.0173848
-0.000251221
0.0173756
-0.000220095
0.0173513
-0.000190209
0.0173198
-0.000161337
0.0172862
-0.000133285
0.0172539
-0.000105884
0.017225
-7.8985e-05
0.0172008
-5.24552e-05
0.0171822
-2.61674e-05
0.0171695
0.0171631
-0.000596022
0.0138635
0.00059994
-0.000578088
0.0147905
-0.000549669
0.0155621
-0.000514404
0.0161708
-0.000475512
0.0166246
-0.00043547
0.0169424
-0.000395927
0.0171493
-0.000357799
0.0172711
-0.000321465
0.0173315
-0.000286958
0.0173503
-0.000254126
0.0173427
-0.000222745
0.0173199
-0.000192575
0.0172896
-0.000163399
0.017257
-0.000135027
0.0172256
-0.000107292
0.0171973
-8.00506e-05
0.0171736
-5.31697e-05
0.0171553
-2.65261e-05
0.0171428
0.0171365
-0.000595942
0.0138603
0.000599177
-0.000578767
0.0147734
-0.000551098
0.0155345
-0.000516492
0.0161362
-0.000478111
0.0165862
-0.000438409
0.0169027
-0.000399041
0.0171099
-0.00036095
0.017233
-0.000324546
0.0172951
-0.00028989
0.0173157
-0.000256856
0.0173097
-0.000225233
0.0172883
-0.000194797
0.0172592
-0.000165334
0.0172276
-0.000136661
0.0171969
-0.000108613
0.0171692
-8.10491e-05
0.017146
-5.38394e-05
0.0171281
-2.68622e-05
0.0171159
0.0171097
-0.000595802
0.0138577
0.000598391
-0.000579344
0.0147569
-0.000552386
0.0155075
-0.000518408
0.0161022
-0.000480518
0.0165483
-0.000441145
0.0168634
-0.00040195
0.0170707
-0.000363899
0.017195
-0.000327432
0.0172587
-0.000292639
0.0172809
-0.000259414
0.0172765
-0.000227565
0.0172565
-0.000196877
0.0172285
-0.000167145
0.0171979
-0.000138188
0.0171679
-0.000109848
0.0171409
-8.19824e-05
0.0171182
-5.4465e-05
0.0171005
-2.71759e-05
0.0170886
0.0170825
-0.000595601
0.0138557
0.000597579
-0.000579821
0.0147411
-0.000553538
0.0154812
-0.000520159
0.0160689
-0.000482738
0.0165109
-0.000443683
0.0168243
-0.000404659
0.0170317
-0.000366652
0.017157
-0.000330129
0.0172221
-0.000295208
0.017246
-0.000261804
0.0172431
-0.000229743
0.0172244
-0.000198819
0.0171976
-0.000168835
0.0171679
-0.000139613
0.0171387
-0.000110998
0.0171123
-8.28518e-05
0.01709
-5.50476e-05
0.0170727
-2.74681e-05
0.017061
0.017055
-0.000595336
0.0138543
0.000596739
-0.000580197
0.014726
-0.000554555
0.0154556
-0.000521746
0.0160361
-0.000484776
0.0164739
-0.00044603
0.0167856
-0.000407172
0.0169929
-0.000369212
0.017119
-0.00033264
0.0171856
-0.0002976
0.0172109
-0.00026403
0.0172095
-0.00023177
0.0171921
-0.000200625
0.0171664
-0.000170405
0.0171377
-0.000140936
0.0171092
-0.000112066
0.0170834
-8.36581e-05
0.0170616
-5.55876e-05
0.0170447
-2.77389e-05
0.0170331
0.0170273
-0.000595006
0.0138535
0.000595865
-0.000580474
0.0147114
-0.000555439
0.0154305
-0.000523174
0.0160038
-0.000486636
0.0164374
-0.000448187
0.0167471
-0.000409494
0.0169542
-0.000371582
0.0170811
-0.000334968
0.017149
-0.000299819
0.0171758
-0.000266094
0.0171758
-0.000233648
0.0171597
-0.000202297
0.0171351
-0.000171857
0.0171072
-0.000142159
0.0170795
-0.000113052
0.0170543
-8.44019e-05
0.017033
-5.60858e-05
0.0170164
-2.79886e-05
0.017005
0.0169993
-0.000594606
0.0138531
0.000594952
-0.000580648
0.0146975
-0.000556189
0.0154061
-0.000524442
0.015972
-0.000488319
0.0164013
-0.000450157
0.016709
-0.000411626
0.0169156
-0.000373766
0.0170432
-0.000337116
0.0171123
-0.000301867
0.0171405
-0.000267998
0.0171419
-0.000235379
0.0171271
-0.000203836
0.0171035
-0.000173192
0.0170766
-0.000143282
0.0170496
-0.000113957
0.017025
-8.50843e-05
0.0170041
-5.65424e-05
0.0169878
-2.82175e-05
0.0169767
0.0169711
-0.000594133
0.0138533
0.000593994
-0.000580717
0.0146841
-0.000556805
0.0153822
-0.000525553
0.0159408
-0.000489826
0.0163655
-0.000451944
0.0166711
-0.000413571
0.0168773
-0.000375765
0.0170054
-0.000339085
0.0170756
-0.000303746
0.0171052
-0.000269744
0.0171079
-0.000236965
0.0170943
-0.000205245
0.0170718
-0.000174412
0.0170457
-0.000144307
0.0170195
-0.000114782
0.0169955
-8.57056e-05
0.016975
-5.69579e-05
0.0169591
-2.84256e-05
0.0169482
0.0169427
-0.00059358
0.0138539
0.000592984
-0.000580679
0.0146712
-0.000557286
0.0153588
-0.000526505
0.01591
-0.00049116
0.0163302
-0.000453547
0.0166335
-0.000415331
0.0168391
-0.000377581
0.0169677
-0.000340878
0.0170389
-0.000305456
0.0170698
-0.000271333
0.0170738
-0.000238406
0.0170614
-0.000206523
0.0170399
-0.000175518
0.0170147
-0.000145234
0.0169892
-0.000115527
0.0169658
-8.62665e-05
0.0169457
-5.73327e-05
0.0169301
-2.86131e-05
0.0169195
0.0169141
-0.000592944
0.0138549
0.000591914
-0.00058053
0.0146588
-0.000557631
0.0153359
-0.000527299
0.0158797
-0.00049232
0.0162952
-0.000454968
0.0165961
-0.000416906
0.016801
-0.000379214
0.01693
-0.000342494
0.0170022
-0.000307
0.0170343
-0.000272766
0.0170396
-0.000239705
0.0170283
-0.000207672
0.0170079
-0.00017651
0.0169836
-0.000146064
0.0169588
-0.000116193
0.0169359
-8.67669e-05
0.0169163
-5.76668e-05
0.016901
-2.87804e-05
0.0168906
0.0168853
-0.000592219
0.0138563
0.00059078
-0.000580266
0.0146468
-0.000557836
0.0153134
-0.000527934
0.0158498
-0.000493307
0.0162606
-0.000456207
0.016559
-0.000418297
0.0167631
-0.000380667
0.0168923
-0.000343935
0.0169655
-0.000308377
0.0169987
-0.000274044
0.0170052
-0.00024086
0.0169951
-0.000208693
0.0169757
-0.000177389
0.0169523
-0.000146798
0.0169282
-0.000116781
0.0169059
-8.72078e-05
0.0168867
-5.79607e-05
0.0168718
-2.89273e-05
0.0168615
0.0168563
-0.000591399
0.0138582
0.000589572
-0.000579884
0.0146353
-0.0005579
0.0152915
-0.000528409
0.0158203
-0.00049412
0.0162263
-0.000457266
0.0165222
-0.000419506
0.0167253
-0.000381939
0.0168548
-0.000345203
0.0169287
-0.000309589
0.0169631
-0.000275167
0.0169708
-0.000241874
0.0169618
-0.000209586
0.0169434
-0.000178155
0.0169208
-0.000147437
0.0168975
-0.00011729
0.0168757
-8.75891e-05
0.016857
-5.82144e-05
0.0168424
-2.90542e-05
0.0168324
0.0168273
-0.000590479
0.0138604
0.000588286
-0.000579379
0.0146242
-0.000557822
0.0152699
-0.000528723
0.0157912
-0.000494759
0.0161923
-0.000458144
0.0164855
-0.000420531
0.0166877
-0.000383032
0.0168173
-0.000346297
0.016892
-0.000310637
0.0169274
-0.000276137
0.0169363
-0.000242747
0.0169284
-0.000210351
0.0169111
-0.00017881
0.0168893
-0.000147979
0.0168667
-0.000117722
0.0168455
-8.79115e-05
0.0168272
-5.84285e-05
0.0168129
-2.91609e-05
0.0168031
0.0167981
-0.000589454
0.0138629
0.000586913
-0.000578749
0.0146135
-0.000557597
0.0152488
-0.000528875
0.0157625
-0.000495225
0.0161587
-0.000458842
0.0164492
-0.000421377
0.0166502
-0.000383947
0.0167798
-0.00034722
0.0168553
-0.000311522
0.0168917
-0.000276954
0.0169017
-0.00024348
0.016895
-0.000210991
0.0168786
-0.000179354
0.0168577
-0.000148428
0.0168357
-0.000118077
0.0168151
-8.81755e-05
0.0167973
-5.86032e-05
0.0167834
-2.92478e-05
0.0167738
0.0167689
-0.000588318
0.0138658
0.000585448
-0.000577989
0.0146031
-0.000557225
0.015228
-0.000528864
0.0157341
-0.000495517
0.0161253
-0.00045936
0.016413
-0.000422041
0.0166129
-0.000384685
0.0167425
-0.000347972
0.0168186
-0.000312245
0.016856
-0.000277621
0.0168671
-0.000244074
0.0168614
-0.000211507
0.016846
-0.000179789
0.0168259
-0.000148784
0.0168047
-0.000118357
0.0167847
-8.83817e-05
0.0167674
-5.87391e-05
0.0167537
-2.93152e-05
0.0167443
0.0167396
-0.000587068
0.013869
0.000583885
-0.000577098
0.0145932
-0.000556704
0.0152076
-0.00052869
0.0157061
-0.000495636
0.0160923
-0.000459701
0.0163771
-0.000422528
0.0165758
-0.000385248
0.0167052
-0.000348555
0.0167819
-0.000312809
0.0168203
-0.000278139
0.0168324
-0.000244532
0.0168278
-0.0002119
0.0168134
-0.000180116
0.0167942
-0.000149048
0.0167737
-0.000118562
0.0167542
-8.85312e-05
0.0167373
-5.88368e-05
0.016724
-2.93636e-05
0.0167149
0.0167102
-0.000585699
0.0138724
0.000582219
-0.000576071
0.0145835
-0.000556033
0.0151876
-0.000528353
0.0156784
-0.000495584
0.0160595
-0.000459866
0.0163414
-0.000422838
0.0165387
-0.000385638
0.016668
-0.000348972
0.0167452
-0.000313215
0.0167845
-0.00027851
0.0167977
-0.000244857
0.0167942
-0.000212172
0.0167807
-0.000180338
0.0167623
-0.000149222
0.0167425
-0.000118693
0.0167237
-8.86254e-05
0.0167073
-5.88971e-05
0.0166943
-2.93928e-05
0.0166854
0.0166808
-0.000584208
0.0138762
0.000580445
-0.000574908
0.0145742
-0.000555212
0.0151679
-0.000527855
0.015651
-0.000495361
0.016027
-0.000459857
0.0163058
-0.000422974
0.0165018
-0.000385858
0.0166309
-0.000349226
0.0167086
-0.000313467
0.0167488
-0.000278739
0.016763
-0.000245049
0.0167605
-0.000212327
0.016748
-0.000180456
0.0167304
-0.000149308
0.0167114
-0.000118754
0.0166931
-8.86652e-05
0.0166772
-5.89211e-05
0.0166645
-2.94041e-05
0.0166558
0.0166514
-0.000582593
0.0138802
0.000578559
-0.000573606
0.0145653
-0.00055424
0.0151485
-0.000527195
0.015624
-0.000494971
0.0159948
-0.000459676
0.0162706
-0.00042294
0.0164651
-0.000385912
0.0165939
-0.000349321
0.016672
-0.000313569
0.016713
-0.000278827
0.0167283
-0.000245115
0.0167267
-0.000212367
0.0167152
-0.000180474
0.0166986
-0.00014931
0.0166802
-0.000118745
0.0166626
-8.86528e-05
0.0166471
-5.89098e-05
0.0166348
-2.93976e-05
0.0166263
0.016622
-0.00058085
0.0138845
0.000576559
-0.000572166
0.0145566
-0.000553117
0.0151295
-0.000526376
0.0155973
-0.000494416
0.0159628
-0.000459329
0.0162355
-0.000422741
0.0164285
-0.000385804
0.0165569
-0.000349261
0.0166354
-0.000313526
0.0166773
-0.000278781
0.0166935
-0.000245057
0.016693
-0.000212297
0.0166824
-0.000180396
0.0166667
-0.00014923
0.0166491
-0.000118671
0.016632
-8.85902e-05
0.016617
-5.88648e-05
0.0166051
-2.93742e-05
0.0165968
0.0165926
-0.000578979
0.0138891
0.00057444
-0.000570586
0.0145482
-0.000551847
0.0151107
-0.000525401
0.0155708
-0.0004937
0.0159311
-0.000458819
0.0162006
-0.00042238
0.0163921
-0.000385541
0.0165201
-0.000349052
0.0165989
-0.000313342
0.0166416
-0.000278605
0.0166588
-0.000244881
0.0166593
-0.000212122
0.0166497
-0.000180226
0.0166348
-0.000149072
0.0166179
-0.000118533
0.0166015
-8.848e-05
0.0165869
-5.87878e-05
0.0165754
-2.93344e-05
0.0165674
0.0165633
-0.000576978
0.0138938
0.000572202
-0.000568869
0.0145401
-0.000550429
0.0150923
-0.000524273
0.0155447
-0.000492827
0.0158997
-0.000458152
0.0161659
-0.000421864
0.0163558
-0.000385127
0.0164834
-0.000348701
0.0165625
-0.000313025
0.0166059
-0.000278305
0.0166241
-0.000244594
0.0166256
-0.000211846
0.0166169
-0.000179968
0.0166029
-0.000148841
0.0165868
-0.000118336
0.0165709
-8.83245e-05
0.0165569
-5.86806e-05
0.0165457
-2.92799e-05
0.016538
0.016534
-0.000574848
0.0138988
0.000569842
-0.000567014
0.0145322
-0.000548868
0.0150741
-0.000522997
0.0155188
-0.000491802
0.0158685
-0.000457333
0.0161314
-0.0004212
0.0163197
-0.000384571
0.0164467
-0.000348214
0.0165262
-0.000312581
0.0165702
-0.00027789
0.0165894
-0.000244201
0.0165919
-0.000211478
0.0165842
-0.00017963
0.016571
-0.000148541
0.0165557
-0.000118083
0.0165405
-8.81275e-05
0.016527
-5.85454e-05
0.0165162
-2.9211e-05
0.0165086
0.0165048
-0.000572589
-0.000565023
-0.000547166
-0.000521575
-0.000490631
-0.000456369
-0.000420395
-0.000383879
-0.000347599
-0.000312018
-0.000277365
-0.00024371
-0.000211022
-0.000179217
-0.000148178
-0.00011778
-8.78921e-05
-5.83845e-05
-2.91292e-05
0.00931772
0.000576257
0.00932599
0.000578613
0.00933635
0.000580474
0.00934867
0.000581887
0.00936284
0.000582896
0.00937872
0.000583545
0.00939621
0.000583873
0.0094152
0.00058392
0.0094356
0.000583722
0.00945731
0.000583311
0.00948025
0.000582719
0.00950433
0.000581974
0.00952948
0.000581102
0.00955562
0.000580127
0.0095827
0.00057907
0.00961065
0.000577948
0.00963942
0.000576779
0.00966896
0.000575576
0.00969921
0.00057435
0.00973014
0.000573111
0.0097617
0.000571867
0.00979386
0.000570622
0.00982658
0.000569381
0.00985985
0.000568144
0.00989362
0.000566914
0.00992787
0.000565687
0.00996258
0.000564462
0.00999774
0.000563236
0.0100333
0.000562003
0.0100693
0.000560759
0.0101057
0.000559497
0.0101424
0.00055821
0.0101795
0.000556892
0.010217
0.000555535
0.0102547
0.000554132
0.0102928
0.000552674
0.0103313
0.000551156
0.01037
0.00054957
0.010409
0.000547908
0.0104483
0.000546166
0.0104878
0.000544336
0.0105276
0.000542414
0.0105677
0.000540394
0.010608
0.000538273
0.0106485
0.000536048
0.0106892
0.000533715
0.0107301
0.000531272
0.000528718
0.00866335
0.00055094
0.00868729
0.000552317
0.00871266
0.000553239
0.00873939
0.00055375
0.00876738
0.000553896
0.00879656
0.000553717
0.00882685
0.000553254
0.00885818
0.000552542
0.00889048
0.000551617
0.00892369
0.00055051
0.00895775
0.000549252
0.0089926
0.00054787
0.00902819
0.000546388
0.00906446
0.00054483
0.00910138
0.000543213
0.00913889
0.000541557
0.00917696
0.000539877
0.00921555
0.000538184
0.00925464
0.000536491
0.00929418
0.000534806
0.00933416
0.000533135
0.00937454
0.000531484
0.00941531
0.000529855
0.00945644
0.00052825
0.00949792
0.000526668
0.00953972
0.000525109
0.00958184
0.00052357
0.00962426
0.000522046
0.00966696
0.000520533
0.00970994
0.000519026
0.00975318
0.000517518
0.00979667
0.000516003
0.00984041
0.000514473
0.00988438
0.00051292
0.00992858
0.000511338
0.00997299
0.000509718
0.0100176
0.000508054
0.0100624
0.000506338
0.0101074
0.000504562
0.0101526
0.00050272
0.010198
0.000500807
0.0102435
0.000498815
0.0102892
0.000496741
0.010335
0.00049458
0.0103809
0.000492326
0.010427
0.000489978
0.0104732
0.000487532
0.0105195
0.000484987
0.00768347
0.000505108
0.00772829
0.000506121
0.00777392
0.000506689
0.0078203
0.000506859
0.00786737
0.000506673
0.0079151
0.000506173
0.00796341
0.000505399
0.00801228
0.000504386
0.00806165
0.00050317
0.00811149
0.000501782
0.00816175
0.000500251
0.00821239
0.000498606
0.0082634
0.000496869
0.00831472
0.000495063
0.00836634
0.000493208
0.00841823
0.000491322
0.00847037
0.000489418
0.00852274
0.000487511
0.00857531
0.000485611
0.00862808
0.000483726
0.00868102
0.000481864
0.00873413
0.000480028
0.00878739
0.000478224
0.00884079
0.000476452
0.00889433
0.000474712
0.00894799
0.000473004
0.00900177
0.000471325
0.00905567
0.000469671
0.00910968
0.000468039
0.00916379
0.000466423
0.009218
0.000464818
0.0092723
0.000463216
0.00932669
0.000461612
0.00938116
0.000459998
0.00943572
0.000458367
0.00949034
0.000456712
0.00954503
0.000455026
0.00959979
0.000453301
0.00965459
0.00045153
0.00970945
0.000449708
0.00976434
0.000447828
0.00981926
0.000445884
0.00987421
0.000443871
0.00992916
0.000441785
0.00998412
0.00043962
0.0100391
0.000437374
0.010094
0.000435043
0.0101489
0.000432625
0.000430117
0.00648001
0.000436466
0.00654759
0.000437521
0.00661556
0.000438149
0.00668386
0.000438391
0.00675243
0.000438287
0.00682123
0.000437875
0.00689021
0.000437192
0.00695934
0.000436274
0.00702857
0.000435153
0.00709788
0.00043386
0.00716724
0.000432423
0.00723662
0.000430869
0.00730601
0.000429221
0.00737537
0.000427501
0.00744471
0.000425729
0.00751399
0.000423921
0.00758322
0.000422092
0.00765239
0.000420255
0.00772148
0.000418422
0.00779049
0.000416601
0.00785941
0.000414799
0.00792825
0.000413023
0.00799701
0.000411274
0.00806567
0.000409557
0.00813425
0.000407872
0.00820275
0.000406219
0.00827116
0.000404596
0.00833948
0.000403001
0.00840772
0.00040143
0.00847588
0.000399879
0.00854396
0.000398344
0.00861196
0.000396819
0.00867988
0.000395299
0.00874771
0.000393777
0.00881547
0.000392246
0.00888313
0.000390701
0.00895071
0.000389136
0.00901819
0.000387543
0.00908557
0.000385917
0.00915285
0.000384251
0.00922002
0.000382541
0.00928707
0.00038078
0.00935399
0.000378964
0.00942077
0.000377089
0.00948741
0.00037515
0.00955388
0.000373143
0.00962019
0.000371066
0.00968632
0.000368916
0.00975225
0.000366691
0.000364388
0.00528748
0.000347789
0.0053764
0.000348598
0.00546549
0.000349063
0.00555466
0.000349216
0.00564386
0.000349087
0.00573303
0.000348709
0.00582211
0.00034811
0.00591106
0.000347318
0.00599986
0.000346362
0.00608845
0.000345266
0.00617682
0.000344053
0.00626494
0.000342745
0.0063528
0.000341361
0.00644039
0.000339919
0.00652768
0.000338435
0.00661468
0.000336923
0.00670137
0.000335394
0.00678777
0.00033386
0.00687386
0.000332329
0.00695966
0.000330808
0.00704515
0.000329304
0.00713036
0.000327819
0.00721527
0.000326358
0.00729991
0.000324922
0.00738427
0.000323511
0.00746836
0.000322126
0.00755219
0.000320765
0.00763577
0.000319425
0.00771909
0.000318104
0.00780217
0.000316799
0.00788501
0.000315506
0.00796761
0.00031422
0.00804997
0.000312936
0.0081321
0.00031165
0.00821399
0.000310356
0.00829564
0.000309049
0.00837705
0.000307725
0.00845822
0.000306378
0.00853913
0.000305003
0.00861979
0.000303596
0.00870018
0.000302152
0.00878029
0.000300667
0.00886012
0.000299137
0.00893965
0.000297558
0.00901887
0.000295928
0.00909777
0.000294243
0.00917634
0.000292501
0.00925455
0.000290701
0.0093324
0.000288839
0.000286915
0.00410923
0.000241009
0.00421516
0.00024186
0.00432131
0.000242448
0.00442758
0.000242795
0.00453387
0.000242921
0.00464011
0.000242849
0.00474622
0.000242598
0.00485214
0.00024219
0.00495781
0.000241646
0.00506319
0.000240983
0.00516824
0.000240219
0.00527292
0.000239371
0.00537721
0.000238455
0.00548109
0.000237483
0.00558454
0.000236469
0.00568755
0.000235424
0.00579012
0.000234358
0.00589223
0.000233279
0.0059939
0.000232196
0.00609511
0.000231113
0.00619588
0.000230036
0.00629622
0.00022897
0.00639612
0.000227917
0.0064956
0.000226879
0.00659466
0.000225857
0.00669332
0.000224853
0.00679158
0.000223865
0.00688945
0.000222893
0.00698694
0.000221935
0.00708406
0.00022099
0.0071808
0.000220054
0.00727719
0.000219125
0.00737321
0.0002182
0.00746887
0.000217275
0.00756417
0.000216348
0.00765911
0.000215414
0.00775369
0.00021447
0.0078479
0.000213513
0.00794174
0.000212539
0.0080352
0.000211544
0.00812827
0.000210526
0.00822094
0.000209481
0.0083132
0.000208407
0.00840504
0.000207301
0.00849644
0.00020616
0.00858738
0.000204982
0.00867786
0.000203765
0.00876785
0.000202508
0.00885734
0.00020121
0.00894631
0.000199868
0.0032878
0.000123527
0.00340569
0.000123979
0.00352384
0.000124296
0.00364214
0.000124489
0.0037605
0.000124568
0.0038788
0.000124543
0.00399697
0.000124427
0.00411494
0.000124228
0.00423262
0.000123957
0.00434998
0.000123625
0.00446696
0.000123239
0.00458352
0.00012281
0.00469963
0.000122344
0.00481527
0.000121848
0.00493041
0.00012133
0.00504504
0.000120796
0.00515915
0.000120249
0.00527273
0.000119696
0.00538579
0.000119139
0.00549832
0.000118582
0.00561033
0.000118028
0.00572182
0.000117478
0.0058328
0.000116935
0.00594328
0.000116399
0.00605327
0.000115871
0.00616277
0.000115351
0.00627179
0.000114839
0.00638035
0.000114335
0.00648845
0.000113837
0.00659609
0.000113346
0.00670329
0.000112858
0.00681004
0.000112374
0.00691635
0.000111892
0.00702221
0.000111409
0.00712764
0.000110924
0.00723262
0.000110436
0.00733714
0.000109942
0.00744122
0.00010944
0.00754483
0.00010893
0.00764796
0.000108408
0.00775061