/*--------------------------------*- C++ -*----------------------------------*\
  =========                 |
  \\      /  F ield         | OpenFOAM: The Open Source CFD Toolbox
   \\    /   O peration     | Website:  https://openfoam.org
    \\  /    A nd           | Version:  7
     \\/     M anipulation  |
\*---------------------------------------------------------------------------*/
FoamFile
{
    version     2.0;
    format      ascii;
    class       volVectorField;
    location    "10";
    object      U;
}
// * * * * * * * * * * * * * * * * * * * * * * * * * * * * * * * * * * * * * //

dimensions      [0 1 -1 0 0 0 0];

internalField   nonuniform List<vector> 
1360
(
(1.21023 0.00693742 1.1135e-27)
(1.20677 0.00544694 -1.1135e-27)
(1.20397 0.004096 0)
(1.20185 0.00285135 0)
(1.20042 0.0016812 1.18348e-27)
(1.1997 0.000555411 -1.19097e-27)
(0.972387 0.076172 0)
(1.0608 0.0703634 0)
(1.12933 0.0620084 3.69505e-11)
(1.17793 0.0534668 -3.69505e-11)
(1.20924 0.0454754 0)
(1.22714 0.0384352 0)
(1.23552 0.0324419 1.51061e-27)
(1.23766 0.0274112 -1.51061e-27)
(1.23601 0.0231948 -1.27946e-27)
(1.23229 0.0196364 1.27946e-27)
(1.2276 0.0165992 0)
(1.22263 0.0139735 0)
(1.2178 0.0116754 -2.77007e-11)
(1.21334 0.00964088 2.77007e-11)
(1.20939 0.00782029 0)
(1.20601 0.0061727 0)
(1.20327 0.00466248 2.59194e-11)
(1.20119 0.00325698 -2.59194e-11)
(1.1998 0.00192495 0)
(1.1991 0.000636725 0)
(0.969834 0.0768978 0)
(1.05712 0.0714045 0)
(1.12516 0.0633922 0)
(1.17378 0.055093 0)
(1.20545 0.0472378 0)
(1.22384 0.040244 0)
(1.23272 0.0342317 0)
(1.2353 0.029138 0)
(1.23401 0.0248298 0)
(1.23058 0.0211611 0)
(1.22613 0.0180013 0)
(1.22135 0.0152444 0)
(1.21667 0.0128087 -5.4858e-11)
(1.21233 0.0106317 5.4858e-11)
(1.20847 0.00866455 0)
(1.20517 0.00686732 0)
(1.20249 0.00520502 5.14936e-11)
(1.20046 0.00364566 -5.14936e-11)
(1.19909 0.00215861 -1.6154e-27)
(1.19841 0.000714685 1.62563e-27)
(0.967447 0.0775351 0)
(1.05362 0.0723407 0)
(1.12113 0.0646569 0)
(1.16974 0.0565958 0)
(1.20171 0.0488799 0)
(1.22055 0.0419398 0)
(1.22989 0.0359172 0)
(1.23289 0.0307696 0)
(1.23197 0.0263788 0)
(1.22882 0.0226087 0)
(1.2246 0.0193347 0)
(1.22 0.0164548 0)
(1.21546 0.0138894 -2.71391e-11)
(1.21124 0.0115775 2.71391e-11)
(1.20748 0.00947127 -1.08723e-27)
(1.20426 0.00753157 1.08723e-27)
(1.20164 0.00572418 5.11065e-11)
(1.19965 0.00401779 -5.11065e-11)
(1.19831 0.00238238 0)
(1.19764 0.000789362 0)
(0.965216 0.0780915 0)
(1.05027 0.0731809 0)
(1.11723 0.0658118 0)
(1.16578 0.0579839 0)
(1.19802 0.0504095 0)
(1.21727 0.0435292 0)
(1.22705 0.0375041 0)
(1.23046 0.0323109 0)
(1.22988 0.0278458 0)
(1.22701 0.0239823 0)
(1.22301 0.0206021 0)
(1.21859 0.0176069 0)
(1.2142 0.0149193 0)
(1.21009 0.0124797 0)
(1.20642 0.0102415 0)
(1.20327 0.0081663 0)
(1.20071 0.00622058 2.534e-11)
(1.19876 0.00437376 -2.534e-11)
(1.19746 0.00259652 0)
(1.1968 0.000860832 0)
(0.963134 0.0785743 0)
(1.04709 0.0739334 0)
(1.11348 0.0668656 0)
(1.16193 0.0592655 0)
(1.19438 0.0518338 0)
(1.214 0.0450184 0)
(1.2242 0.0389977 0)
(1.228 0.0337665 0)
(1.22775 0.0292346 0)
(1.22515 0.0252853 0)
(1.22136 0.0218063 0)
(1.21712 0.0187029 0)
(1.21286 0.0159002 -2.65099e-11)
(1.20887 0.0133399 2.65099e-11)
(1.20529 0.0109765 0)
(1.20222 0.00877238 0)
(1.19971 0.00669485 1.04227e-27)
(1.19781 0.00471402 -1.04227e-27)
(1.19653 0.00280126 1.14348e-27)
(1.19589 0.00092918 -1.15072e-27)
(0.961193 0.0789904 -3.51623e-27)
(1.04405 0.0746061 0)
(1.10985 0.0678266 -7.38966e-29)
(1.15816 0.0604484 -3.49556e-27)
(1.19079 0.0531598 6.14244e-11)
(1.21076 0.0464134 6.01225e-11)
(1.22135 0.0404033 5.87866e-11)
(1.22551 0.0351408 5.74557e-11)
(1.22558 0.0305492 0)
(1.22325 0.026521 0)
(1.21967 0.02295 0)
(1.21559 0.0197452 0)
(1.21148 0.016834 -2.61733e-11)
(1.20759 0.0141596 7.70332e-11)
(1.2041 0.0116774 3.40831e-19)
(1.2011 0.00935074 -4.94815e-11)
(1.19865 0.00714767 -1.03193e-27)
(1.19679 0.00503902 1.03193e-27)
(1.19554 0.00299688 0)
(1.19491 0.000994491 -2.42739e-27)
(0.959386 0.0793462 3.51622e-27)
(1.04116 0.0752062 0)
(1.10635 0.0687025 0)
(1.15449 0.0615401 3.56946e-27)
(1.18726 0.0543941 -6.14244e-11)
(1.20754 0.0477201 -6.01225e-11)
(1.21849 0.0417258 -5.87866e-11)
(1.223 0.0364381 -5.74557e-11)
(1.22338 0.0317931 2.41085e-27)
(1.2213 0.0276924 -2.41085e-27)
(1.21793 0.0240357 2.6771e-11)
(1.21402 0.0207359 -2.6771e-11)
(1.21003 0.0177224 -2.58237e-11)
(1.20626 0.0149401 -2.50363e-11)
(1.20285 0.0123454 4.61029e-28)
(1.19992 0.00990228 4.94815e-11)
(1.19753 0.00757972 2.12521e-27)
(1.19571 0.00534924 -2.12521e-27)
(1.19448 0.00318366 -1.54774e-27)
(1.19386 0.00105686 3.98493e-27)
(0.957706 0.0796479 0)
(1.0384 0.0757404 0)
(1.10296 0.0695004 0)
(1.15091 0.0625475 0)
(1.18379 0.0555431 -5.10409e-28)
(1.20434 0.0489441 5.10409e-28)
(1.21563 0.0429701 0)
(1.22047 0.0376627 0)
(1.22114 0.03297 0)
(1.21931 0.0288027 0)
(1.21614 0.0250663 5.26864e-11)
(1.21239 0.0216773 -5.26864e-11)
(1.20854 0.0185675 -5.09245e-11)
(1.20487 0.0156831 5.09245e-11)
(1.20155 0.0129816 -4.25614e-28)
(1.19869 0.010428 4.25614e-28)
(1.19635 0.0079917 0)
(1.19456 0.00564517 0)
(1.19336 0.00336187 0)
(1.19276 0.00111637 0)
(0.956147 0.0799012 0)
(1.03578 0.0762151 0)
(1.0997 0.070227 -1.07027e-27)
(1.14742 0.0634771 1.07027e-27)
(1.18037 0.0566125 0)
(1.20116 0.0500904 0)
(1.21277 0.0441407 0)
(1.21793 0.0388184 0)
(1.21888 0.0340834 -6.44846e-28)
(1.21729 0.0298548 6.44846e-28)
(1.21432 0.0260442 2.59075e-11)
(1.21072 0.0225715 -2.59075e-11)
(1.20699 0.0193709 -5.01803e-11)
(1.20342 0.0163901 5.01803e-11)
(1.20019 0.0135874 0)
(1.19739 0.0109287 0)
(1.1951 0.00838433 0)
(1.19336 0.00592729 0)
(1.19218 0.0035318 9.3402e-28)
(1.19159 0.00117313 -9.39933e-28)
(0.954703 0.0801115 0)
(1.03327 0.0766361 0)
(1.09655 0.0708885 0)
(1.14401 0.0643349 0)
(1.177 0.0576082 0)
(1.19801 0.0511642 0)
(1.20991 0.0452421 0)
(1.21538 0.0399092 0)
(1.2166 0.0351366 4.52675e-28)
(1.21524 0.0308518 -4.52675e-28)
(1.21245 0.0269719 0)
(1.20901 0.0234207 0)
(1.2054 0.0201345 -2.47084e-11)
(1.20193 0.0170624 2.47084e-11)
(1.19878 0.0141639 0)
(1.19605 0.0114055 0)
(1.19381 0.0087583 2.37146e-11)
(1.1921 0.00619609 -2.37146e-11)
(1.19095 0.00369375 0)
(1.19037 0.00122723 0)
(0.953368 0.0802835 -6.90871e-28)
(1.03088 0.0770088 6.91747e-28)
(1.0935 0.0714908 0)
(1.14068 0.0651266 0)
(1.17369 0.0585353 0)
(1.19489 0.0521702 0)
(1.20706 0.0462784 0)
(1.21281 0.0409387 0)
(1.21429 0.0361327 0)
(1.21315 0.0317962 0)
(1.21055 0.0278518 6.00292e-28)
(1.20726 0.0242269 -6.00292e-28)
(1.20377 0.0208599 -2.43181e-11)
(1.2004 0.0177016 2.43181e-11)
(1.19732 0.0147122 5.70411e-28)
(1.19465 0.0118592 -5.70411e-28)
(1.19246 0.00911432 2.33967e-11)
(1.19079 0.00645205 -2.33967e-11)
(1.18967 0.003848 -9.10673e-28)
(1.1891 0.00127876 9.16438e-28)
(0.952136 0.080422 4.79733e-28)
(1.02861 0.0773382 -4.80342e-28)
(1.09056 0.0720391 0)
(1.13744 0.0658576 0)
(1.17043 0.0593987 0)
(1.1918 0.0531128 0)
(1.20422 0.0472535 0)
(1.21023 0.0419103 0)
(1.21196 0.037075 -4.34764e-28)
(1.21104 0.0326909 4.34764e-28)
(1.20861 0.0286863 0)
(1.20547 0.0249921 0)
(1.2021 0.021549 -4.78401e-11)
(1.19882 0.018309 4.78401e-11)
(1.19582 0.0152336 0)
(1.19321 0.0122907 0)
(1.19107 0.00945308 2.3068e-11)
(1.18943 0.00669567 -2.3068e-11)
(1.18833 0.00399483 0)
(1.18777 0.00132782 0)
(0.951002 0.080531 -1.12452e-27)
(1.02644 0.0776289 1.12595e-27)
(1.08771 0.0725384 0)
(1.13428 0.0665328 0)
(1.16723 0.0602032 0)
(1.18874 0.0539962 0)
(1.20138 0.0481713 0)
(1.20765 0.0428275 0)
(1.20962 0.0379662 -2.47892e-11)
(1.2089 0.0335384 2.47892e-11)
(1.20665 0.0294776 0)
(1.20364 0.0257182 0)
(1.20038 0.0222033 -4.70306e-11)
(1.1972 0.0188861 4.70306e-11)
(1.19427 0.0157291 -9.56825e-28)
(1.19172 0.012701 9.56825e-28)
(1.18963 0.00977525 4.54593e-11)
(1.18803 0.00692742 -4.54593e-11)
(1.18694 0.00413453 0)
(1.1864 0.00137449 0)
(0.949962 0.0806145 2.26998e-27)
(1.02437 0.077885 -2.27288e-27)
(1.08496 0.0729932 2.97232e-28)
(1.13119 0.0671567 -2.97232e-28)
(1.16408 0.0609529 0)
(1.1857 0.0548243 0)
(1.19856 0.0490351 0)
(1.20506 0.0436933 0)
(1.20726 0.0388092 -2.42664e-11)
(1.20674 0.0343411 2.42664e-11)
(1.20465 0.0302278 0)
(1.20178 0.0264072 0)
(1.19863 0.0228243 -2.31047e-11)
(1.19554 0.0194341 2.31047e-11)
(1.19268 0.0161998 0)
(1.19019 0.013091 0)
(1.18814 0.0100815 4.4765e-11)
(1.18657 0.00714775 -4.4765e-11)
(1.18551 0.00426737 1.41351e-27)
(1.18498 0.00141888 -1.42246e-27)
(0.94901 0.0806757 0)
(1.02239 0.0781103 0)
(1.0823 0.0734076 0)
(1.12817 0.0677334 0)
(1.16097 0.0616518 1.03309e-27)
(1.1827 0.0556008 -1.03309e-27)
(1.19574 0.0498483 -1.12099e-27)
(1.20246 0.0445107 1.12099e-27)
(1.20488 0.0396065 0)
(1.20455 0.0351013 0)
(1.20262 0.0309389 0)
(1.19989 0.0270606 0)
(1.19685 0.0234137 0)
(1.19384 0.0199544 0)
(1.19106 0.0166468 9.2561e-28)
(1.18862 0.0134613 -9.2561e-28)
(1.18661 0.0103724 2.20274e-11)
(1.18508 0.00735711 -2.20274e-11)
(1.18404 0.00439361 -1.00832e-27)
(1.18352 0.00146107 1.0147e-27)
(0.948142 0.0807179 0)
(1.02051 0.0783082 0)
(1.07973 0.0737853 0)
(1.12523 0.0682668 0)
(1.15792 0.0623037 -2.09408e-27)
(1.17972 0.0563291 2.09408e-27)
(1.19294 0.050614 2.37507e-11)
(1.19987 0.0452823 -2.37507e-11)
(1.20249 0.0403607 0)
(1.20234 0.0358212 0)
(1.20057 0.0316129 0)
(1.19796 0.0276803 0)
(1.19503 0.0239728 -2.2269e-11)
(1.19211 0.0204481 2.2269e-11)
(1.18939 0.0170711 0)
(1.18701 0.0138129 0)
(1.18505 0.0106487 0)
(1.18354 0.00755594 0)
(1.18253 0.00451351 0)
(1.18201 0.00150114 0)
(0.947353 0.0807436 0)
(1.01872 0.0784817 0)
(1.07724 0.0741298 5.43579e-29)
(1.12235 0.0687603 -5.43579e-29)
(1.15492 0.0629119 0)
(1.17677 0.0570122 0)
(1.19014 0.051335 2.31714e-11)
(1.19727 0.0460108 -2.31714e-11)
(1.20008 0.0410739 0)
(1.20012 0.0365029 0)
(1.1985 0.0322515 -9.23555e-28)
(1.19601 0.0282677 9.23555e-28)
(1.19318 0.024503 -4.36908e-11)
(1.19034 0.0209163 4.36908e-11)
(1.18769 0.0174736 0)
(1.18537 0.0141466 0)
(1.18344 0.0109109 0)
(1.18197 0.00774464 0)
(1.18097 0.00462731 0)
(1.18047 0.00153917 0)
(0.94664 0.0807554 1.60197e-27)
(1.017 0.0786335 3.38592e-27)
(1.07483 0.074444 2.64643e-28)
(1.11954 0.0692171 -2.64643e-28)
(1.15197 0.0634794 0)
(1.17385 0.0576531 0)
(1.18736 0.0520139 1.43676e-27)
(1.19467 0.0466985 -1.43676e-27)
(1.19767 0.0417483 0)
(1.19787 0.0371481 0)
(1.1964 0.0328564 0)
(1.19404 0.0288243 0)
(1.19131 0.0250056 -4.2838e-11)
(1.18854 0.0213603 4.2838e-11)
(1.18596 0.0178553 -1.82559e-27)
(1.18369 0.0144629 1.82559e-27)
(1.1818 0.0111595 -1.80796e-27)
(1.18036 0.0079236 1.80796e-27)
(1.17938 0.00473525 4.07325e-11)
(1.17889 0.00157525 4.09404e-11)
(0.945997 0.0807552 -6.23893e-28)
(1.01537 0.078766 -4.36526e-27)
(1.07249 0.0747306 0)
(1.1168 0.06964 0)
(1.14906 0.064009 0)
(1.17096 0.0582544 0)
(1.18459 0.0526531 -1.01481e-27)
(1.19206 0.0473476 1.01481e-27)
(1.19524 0.0423859 0)
(1.19561 0.0377587 0)
(1.19428 0.0334292 0)
(1.19203 0.0293516 0)
(1.1894 0.0254817 -2.09903e-11)
(1.18672 0.0217809 2.09903e-11)
(1.1842 0.0182169 0)
(1.18197 0.0147627 0)
(1.18013 0.0113951 2.05442e-11)
(1.17871 0.0080932 -2.05442e-11)
(1.17775 0.00483754 -4.07325e-11)
(1.17727 0.00160943 -4.09404e-11)
(0.945421 0.0807448 -9.02688e-28)
(1.01381 0.0788811 9.03855e-28)
(1.07022 0.074992 -2.18388e-11)
(1.11411 0.0700315 2.18388e-11)
(1.1462 0.0645033 0)
(1.16809 0.0588184 0)
(1.18183 0.0532548 9.88941e-28)
(1.18946 0.0479601 -9.88941e-28)
(1.1928 0.0429884 -8.78403e-28)
(1.19333 0.0383363 8.78403e-28)
(1.19214 0.0339713 0)
(1.19001 0.0298508 0)
(1.18747 0.0259324 -2.05601e-11)
(1.18486 0.0221791 2.05601e-11)
(1.1824 0.0185592 0)
(1.18023 0.0150465 0)
(1.17842 0.0116181 4.03228e-11)
(1.17703 0.00825377 -4.03228e-11)
(1.17609 0.00493438 -9.24809e-28)
(1.17562 0.0016418 9.30664e-28)
(0.94491 0.0807256 1.81917e-27)
(1.01232 0.0789806 -1.82153e-27)
(1.06802 0.0752302 -2.11867e-11)
(1.11148 0.0703939 2.11867e-11)
(1.14338 0.0649644 0)
(1.16526 0.0593472 0)
(1.17908 0.053821 0)
(1.18686 0.0485377 0)
(1.19036 0.0435575 0)
(1.19104 0.0388824 0)
(1.18998 0.0344841 0)
(1.18796 0.030323 0)
(1.18551 0.0263589 -2.01288e-11)
(1.18298 0.0225558 2.01288e-11)
(1.18058 0.0188831 1.72145e-27)
(1.17845 0.015315 -1.72145e-27)
(1.17669 0.0118291 3.95504e-11)
(1.17532 0.00840563 -3.95504e-11)
(1.1744 0.00502597 1.25248e-27)
(1.17394 0.00167241 -1.26041e-27)
(0.944458 0.0806988 0)
(1.01089 0.0790659 0)
(1.06589 0.075447 -4.67819e-29)
(1.10891 0.070729 4.67819e-29)
(1.1406 0.0653944 0)
(1.16245 0.0598429 0)
(1.17635 0.0543535 0)
(1.18426 0.0490822 0)
(1.18791 0.0440948 8.36378e-28)
(1.18873 0.0393983 -8.36378e-28)
(1.1878 0.0349686 0)
(1.18589 0.0307693 0)
(1.18353 0.0267619 0)
(1.18107 0.0229118 0)
(1.17873 0.0191891 -8.10107e-28)
(1.17665 0.0155686 8.10107e-28)
(1.17492 0.0120284 1.93862e-11)
(1.17358 0.00854908 -1.93862e-11)
(1.17268 0.00511249 -8.89924e-28)
(1.17222 0.00170133 8.95558e-28)
(0.944063 0.0806651 0)
(1.00953 0.0791382 0)
(1.06381 0.0756438 0)
(1.10638 0.0710386 0)
(1.13786 0.0657949 0)
(1.15966 0.060307 0)
(1.17363 0.0548538 0)
(1.18166 0.049595 0)
(1.18545 0.0446014 -1.96482e-11)
(1.18641 0.0398852 1.96482e-11)
(1.1856 0.0354261 0)
(1.1838 0.0311906 0)
(1.18153 0.0271423 0)
(1.17914 0.0232478 0)
(1.17686 0.0194778 0)
(1.17482 0.0158078 0)
(1.17313 0.0122164 1.64137e-27)
(1.17182 0.00868438 -1.64137e-27)
(1.17093 0.00519408 0)
(1.17048 0.0017286 0)
(0.943722 0.0806254 0)
(1.00823 0.0791983 0)
(1.0618 0.075822 1.93074e-11)
(1.10391 0.071324 -1.93074e-11)
(1.13516 0.0661674 0)
(1.1569 0.0607411 0)
(1.17092 0.0553233 0)
(1.17906 0.0500774 0)
(1.18299 0.0450787 -1.91523e-11)
(1.18408 0.0403441 1.91523e-11)
(1.18339 0.0358575 0)
(1.18169 0.0315879 0)
(1.1795 0.027501 0)
(1.17719 0.0235644 0)
(1.17496 0.0197499 0)
(1.17297 0.0160332 0)
(1.17131 0.0123934 -7.72197e-28)
(1.17003 0.00881176 7.72197e-28)
(1.16915 0.00527089 8.54555e-28)
(1.16871 0.00175427 -8.59966e-28)
(0.943431 0.0805798 0)
(1.00698 0.079247 0)
(1.05984 0.0759823 1.87057e-11)
(1.10149 0.0715865 -1.87057e-11)
(1.13249 0.0665133 0)
(1.15416 0.0611464 0)
(1.16822 0.0557633 0)
(1.17647 0.0505304 0)
(1.18052 0.0455276 0)
(1.18174 0.0407761 0)
(1.18116 0.0362636 0)
(1.17956 0.0319619 0)
(1.17746 0.0278385 0)
(1.17521 0.0238623 0)
(1.17304 0.0200057 0)
(1.1711 0.016245 0)
(1.16947 0.0125598 1.82084e-11)
(1.16821 0.00893145 -1.82084e-11)
(1.16735 0.00534305 0)
(1.16692 0.00177838 0)
(0.943189 0.0805287 0)
(1.00579 0.0792846 0)
(1.05793 0.0761257 2.06803e-28)
(1.09911 0.071827 -2.06803e-28)
(1.12986 0.0668337 0)
(1.15145 0.0615239 0)
(1.16554 0.0561749 0)
(1.17387 0.0509552 0)
(1.17804 0.045949 -1.57048e-27)
(1.17938 0.0411819 1.57048e-27)
(1.17892 0.0366451 0)
(1.17742 0.0323132 0)
(1.1754 0.0281554 0)
(1.17322 0.0241418 0)
(1.1711 0.0202457 1.54524e-27)
(1.1692 0.0164437 -1.54524e-27)
(1.1676 0.0127157 3.56279e-11)
(1.16637 0.00904362 -3.56279e-11)
(1.16553 0.00541067 -1.13029e-27)
(1.16511 0.00180098 1.13744e-27)
(0.942991 0.0804719 0)
(1.00464 0.0793113 0)
(1.05607 0.0762526 0)
(1.09678 0.0720462 0)
(1.12727 0.0671293 0)
(1.14876 0.0618747 0)
(1.16287 0.0565588 0)
(1.17128 0.0513524 0)
(1.17556 0.0463437 0)
(1.17702 0.0415623 0)
(1.17667 0.0370028 0)
(1.17526 0.0326424 0)
(1.17332 0.0284522 -1.75479e-11)
(1.1712 0.0244035 1.75479e-11)
(1.16914 0.0204702 -7.25398e-28)
(1.16728 0.0166295 7.25398e-28)
(1.16572 0.0128615 1.74195e-11)
(1.16451 0.00914844 -1.74195e-11)
(1.16368 0.00547385 0)
(1.16327 0.00182208 0)
(0.942837 0.0804093 -1.43638e-27)
(1.00355 0.0793273 1.43826e-27)
(1.05426 0.0763634 -1.93738e-28)
(1.09449 0.0722448 1.93738e-28)
(1.12471 0.0674008 0)
(1.14609 0.0621995 0)
(1.16021 0.0569158 0)
(1.16869 0.0517229 0)
(1.17308 0.0467124 0)
(1.17465 0.0419177 0)
(1.1744 0.037337 0)
(1.17309 0.03295 0)
(1.17122 0.0287294 -3.4246e-11)
(1.16917 0.0246477 3.4246e-11)
(1.16716 0.0206796 0)
(1.16534 0.0168026 0)
(1.16381 0.0129973 0)
(1.16262 0.00924605 0)
(1.16182 0.00553265 0)
(1.16141 0.00184173 0)
(0.942722 0.0803405 6.66054e-28)
(1.0025 0.0793324 -6.66923e-28)
(1.0525 0.0764583 0)
(1.09224 0.0724232 0)
(1.12218 0.067649 0)
(1.14345 0.0624988 0)
(1.15756 0.0572465 0)
(1.16611 0.0520671 0)
(1.17059 0.0470555 -1.6747e-11)
(1.17227 0.0422488 1.6747e-11)
(1.17212 0.0376484 0)
(1.1709 0.0332363 0)
(1.16911 0.0289873 -3.34013e-11)
(1.16712 0.0248748 3.34013e-11)
(1.16516 0.0208741 0)
(1.16338 0.0169633 0)
(1.16189 0.0131233 6.90409e-28)
(1.16072 0.00933654 -6.90409e-28)
(1.15993 0.00558716 0)
(1.15953 0.00185993 0)
(0.942646 0.0802649 0)
(1.00149 0.0793264 0)
(1.05077 0.0765374 -3.61375e-29)
(1.09003 0.0725815 3.61375e-29)
(1.11968 0.067874 0)
(1.14082 0.0627732 0)
(1.15492 0.0575515 -7.47583e-28)
(1.16353 0.0523856 7.47583e-28)
(1.1681 0.0473735 -1.62823e-11)
(1.16988 0.0425559 1.62823e-11)
(1.16983 0.0379371 6.76348e-28)
(1.16869 0.0335018 -6.76348e-28)
(1.16698 0.0292262 -1.62811e-11)
(1.16506 0.0250848 1.62811e-11)
(1.16315 0.0210539 1.62599e-11)
(1.16141 0.0171118 -1.62599e-11)
(1.15994 0.0132395 0)
(1.1588 0.00942002 0)
(1.15803 0.00563743 0)
(1.15763 0.00187672 0)
(0.942605 0.0801821 0)
(1.00052 0.079309 0)
(1.04909 0.0766005 0)
(1.08785 0.0727201 0)
(1.1172 0.0680763 0)
(1.13821 0.0630229 0)
(1.15229 0.057831 1.57451e-11)
(1.16095 0.0526787 -1.57451e-11)
(1.16561 0.0476668 0)
(1.16748 0.0428394 0)
(1.16753 0.0382036 0)
(1.16648 0.0337466 0)
(1.16484 0.0294462 0)
(1.16298 0.0252782 0)
(1.16112 0.0212191 1.58588e-11)
(1.15942 0.0172481 -1.58588e-11)
(1.15799 0.0133462 0)
(1.15687 0.00949657 0)
(1.15611 0.0056835 0)
(1.15572 0.0018921 0)
(0.942599 0.0800912 0)
(0.999588 0.0792796 0)
(1.04745 0.0766474 3.37353e-29)
(1.08571 0.0728388 -3.37353e-29)
(1.11476 0.0682559 0)
(1.13563 0.0632482 0)
(1.14967 0.0580854 1.52687e-11)
(1.15838 0.0529467 -1.52687e-11)
(1.16312 0.0479356 -6.38045e-28)
(1.16508 0.0430994 6.38045e-28)
(1.16522 0.038448 0)
(1.16426 0.0339709 0)
(1.16269 0.0296477 0)
(1.16089 0.0254549 0)
(1.15908 0.02137 -6.41774e-28)
(1.15742 0.0173724 6.41774e-28)
(1.15601 0.0134434 1.54608e-11)
(1.15492 0.00956623 -1.54608e-11)
(1.15417 0.0057254 0)
(1.15379 0.00190609 0)
(0.942624 0.0799916 0)
(0.998693 0.0792377 0)
(1.04584 0.076678 0)
(1.0836 0.0729376 0)
(1.11234 0.068413 0)
(1.13306 0.0634493 0)
(1.14707 0.0583148 0)
(1.15581 0.0531897 0)
(1.16062 0.0481801 1.28957e-27)
(1.16268 0.0433361 -1.28957e-27)
(1.16291 0.0386706 0)
(1.16202 0.034175 0)
(1.16053 0.0298306 0)
(1.15878 0.0256152 0)
(1.15702 0.0215067 0)
(1.15541 0.0174847 0)
(1.15403 0.0135311 1.50745e-11)
(1.15296 0.00962907 -1.50745e-11)
(1.15222 0.00576318 9.58645e-28)
(1.15185 0.00191869 -9.64714e-28)
(0.94268 0.0798824 0)
(0.997832 0.0791828 0)
(1.04426 0.0766918 1.38051e-11)
(1.08152 0.0730164 -1.38051e-11)
(1.10995 0.0685475 0)
(1.13051 0.0636264 0)
(1.14447 0.0585195 0)
(1.15324 0.0534081 0)
(1.15812 0.0484005 -6.01219e-28)
(1.16026 0.0435498 6.01219e-28)
(1.16058 0.0388714 -6.0515e-28)
(1.15977 0.034359 6.0515e-28)
(1.15835 0.0299953 -1.46375e-11)
(1.15667 0.0257591 1.46375e-11)
(1.15496 0.0216291 0)
(1.15338 0.0175853 0)
(1.15203 0.0136095 -6.09833e-28)
(1.15098 0.00968513 6.09833e-28)
(1.15026 0.00579684 0)
(1.1499 0.00192992 0)
(0.942764 0.0797628 -1.1095e-27)
(0.997004 0.0791143 1.11094e-27)
(1.04272 0.0766885 1.33147e-11)
(1.07947 0.073075 -1.33147e-11)
(1.10758 0.0686596 0)
(1.12797 0.0637793 0)
(1.14189 0.0586994 0)
(1.15068 0.0536018 0)
(1.15562 0.0485969 0)
(1.15785 0.0437405 0)
(1.15825 0.0390506 0)
(1.15752 0.0345229 0)
(1.15617 0.0301417 -2.8473e-11)
(1.15454 0.0258868 2.8473e-11)
(1.15288 0.0217374 0)
(1.15134 0.017674 0)
(1.15002 0.0136785 1.43102e-11)
(1.149 0.00973444 -1.43102e-11)
(1.14829 0.00582643 0)
(1.14793 0.00193978 0)
(0.942876 0.0796319 5.12528e-28)
(0.996205 0.0790315 -5.13195e-28)
(1.04121 0.0766677 2.92213e-29)
(1.07745 0.0731133 -2.92213e-29)
(1.10524 0.068749 0)
(1.12546 0.0639083 0)
(1.13931 0.0588547 -6.19112e-28)
(1.14812 0.0537709 6.19112e-28)
(1.15312 0.0487694 5.65459e-28)
(1.15542 0.0439083 -5.65459e-28)
(1.15591 0.0392082 0)
(1.15526 0.0346668 0)
(1.15397 0.0302699 -1.384e-11)
(1.15241 0.0259983 1.384e-11)
(1.15079 0.0218317 5.76923e-28)
(1.14929 0.017751 -5.76923e-28)
(1.14801 0.0137383 2.78653e-11)
(1.147 0.00977706 -2.78653e-11)
(1.14631 0.00585196 -6.42536e-28)
(1.14596 0.00194829 6.46604e-28)
(0.943013 0.079489 -4.92533e-28)
(0.995436 0.0789339 4.93174e-28)
(1.03973 0.076629 0)
(1.07545 0.0731309 0)
(1.10292 0.0688157 0)
(1.12296 0.0640133 0)
(1.13675 0.0589856 5.98951e-28)
(1.14556 0.0539157 -5.98951e-28)
(1.15062 0.0489182 -5.47989e-28)
(1.153 0.0440535 5.47989e-28)
(1.15356 0.0393445 0)
(1.15299 0.034791 0)
(1.15177 0.0303801 0)
(1.15026 0.0260937 0)
(1.1487 0.0219121 -5.61093e-28)
(1.14724 0.0178164 5.61093e-28)
(1.14598 0.0137889 2.71172e-11)
(1.145 0.00981303 -2.71172e-11)
(1.14432 0.00587348 0)
(1.14398 0.00195545 0)
(0.943174 0.0793332 9.8462e-28)
(0.994695 0.0788207 -9.85899e-28)
(1.03828 0.076572 0)
(1.07349 0.0731278 0)
(1.10062 0.0688598 0)
(1.12048 0.0640944 0)
(1.1342 0.059092 0)
(1.14301 0.0540362 0)
(1.14812 0.0490433 1.10493e-27)
(1.15057 0.044176 -1.10493e-27)
(1.15121 0.0394595 0)
(1.15072 0.0348955 0)
(1.14957 0.0304725 -1.3061e-11)
(1.14811 0.0261732 1.3061e-11)
(1.1466 0.0219787 0)
(1.14518 0.0178703 0)
(1.14395 0.0138304 1.31882e-11)
(1.14299 0.00984241 -1.31882e-11)
(1.14233 0.00589101 0)
(1.14199 0.00196128 0)
(0.943359 0.0791637 0)
(0.99398 0.0786915 0)
(1.03685 0.0764964 -2.60824e-29)
(1.07155 0.0731037 2.60824e-29)
(1.09834 0.0688811 0)
(1.11801 0.0641516 0)
(1.13165 0.0591741 0)
(1.14047 0.0541327 0)
(1.14563 0.0491451 -5.13893e-28)
(1.14814 0.0442762 5.13893e-28)
(1.14886 0.0395536 0)
(1.14843 0.0349805 0)
(1.14735 0.0305471 -2.53579e-11)
(1.14596 0.026237 2.53579e-11)
(1.14449 0.0220317 0)
(1.14311 0.0179129 0)
(1.14191 0.0138629 0)
(1.14097 0.00986531 0)
(1.14033 0.00590461 5.91845e-28)
(1.14 0.00196579 -5.95592e-28)
(0.943565 0.0789798 0)
(0.993289 0.0785458 0)
(1.03545 0.0764018 0)
(1.06963 0.0730586 0)
(1.09608 0.0688797 0)
(1.11556 0.0641851 0)
(1.12912 0.0592322 0)
(1.13793 0.0542053 0)
(1.14313 0.0492236 0)
(1.14571 0.0443543 0)
(1.1465 0.0396268 1.05116e-27)
(1.14615 0.0350464 -1.05116e-27)
(1.14513 0.0306043 -2.46042e-11)
(1.1438 0.0262853 2.46042e-11)
(1.14238 0.0220713 0)
(1.14104 0.0179442 0)
(1.13987 0.0138865 -1.07663e-27)
(1.13895 0.00988181 1.07663e-27)
(1.13832 0.00591434 -7.94041e-28)
(1.138 0.00196901 7.99068e-28)
(0.943792 0.078781 0)
(0.992623 0.078383 0)
(1.03408 0.076288 0)
(1.06773 0.0729923 0)
(1.09384 0.0688557 0)
(1.11312 0.0641951 0)
(1.12659 0.0592665 0)
(1.1354 0.0542543 0)
(1.14063 0.0492794 0)
(1.14328 0.0444106 0)
(1.14414 0.0396796 -4.89124e-28)
(1.14386 0.0350933 4.89124e-28)
(1.14291 0.0306444 -2.38611e-11)
(1.14163 0.0263183 2.38611e-11)
(1.14026 0.0220977 4.99584e-28)
(1.13896 0.0179646 -4.99584e-28)
(1.13783 0.0139015 1.21015e-11)
(1.13693 0.00989205 -1.21015e-11)
(1.13632 0.0059203 5.58937e-28)
(1.136 0.00197096 -5.62476e-28)
(0.944039 0.0785666 -3.99451e-28)
(0.991979 0.078203 3.99967e-28)
(1.03272 0.0761549 2.315e-29)
(1.06586 0.072905 -2.315e-29)
(1.09162 0.0688093 0)
(1.11069 0.0641819 0)
(1.12408 0.0592773 0)
(1.13287 0.0542802 0)
(1.13814 0.0493127 0)
(1.14084 0.0444456 0)
(1.14178 0.0397124 0)
(1.14157 0.0351218 0)
(1.14069 0.0306677 -2.31289e-11)
(1.13947 0.0263365 2.31289e-11)
(1.13814 0.0221113 -4.84697e-28)
(1.13688 0.0179742 4.84697e-28)
(1.13578 0.0139081 2.34961e-11)
(1.13491 0.00989621 -2.34961e-11)
(1.13431 0.00592257 1.07115e-27)
(1.134 0.00197168 1.15377e-27)
(0.944304 0.0783362 7.95572e-28)
(0.991357 0.0780053 -7.96599e-28)
(1.03139 0.0760024 1.11399e-28)
(1.06401 0.0727966 -1.11399e-28)
(1.08942 0.0687407 0)
(1.10829 0.0641458 0)
(1.12157 0.0592651 0)
(1.13035 0.0542834 0)
(1.13565 0.0493241 -1.08205e-11)
(1.13841 0.0444597 1.08205e-11)
(1.13942 0.0397257 0)
(1.13928 0.0351323 0)
(1.13846 0.0306748 -1.1204e-11)
(1.1373 0.0263403 1.1204e-11)
(1.13602 0.0221124 0)
(1.1348 0.0179736 0)
(1.13373 0.0139065 2.27985e-11)
(1.13288 0.00989448 -2.27985e-11)
(1.1323 0.00592129 -1.07115e-27)
(1.132 0.00197121 -1.15377e-27)
(0.944587 0.0780893 0)
(0.990756 0.0777897 0)
(1.03009 0.0758304 0)
(1.06218 0.0726674 0)
(1.08723 0.0686502 0)
(1.10589 0.0640873 0)
(1.11908 0.0592304 0)
(1.12783 0.0542645 0)
(1.13316 0.0493141 -1.04484e-11)
(1.13598 0.0444536 1.04484e-11)
(1.13705 0.0397201 0)
(1.13698 0.0351255 0)
(1.13623 0.0306662 0)
(1.13513 0.0263302 0)
(1.1339 0.0221015 0)
(1.13272 0.0179629 0)
(1.13169 0.0138971 1.10553e-11)
(1.13086 0.0098871 -1.10553e-11)
(1.13029 0.0059166 -5.11082e-28)
(1.13 0.00196961 5.14317e-28)
(0.944888 0.0778258 0)
(0.990175 0.0775563 0)
(1.0288 0.0756391 0)
(1.06037 0.0725177 0)
(1.08507 0.0685383 0)
(1.10351 0.064007 0)
(1.11659 0.0591739 0)
(1.12532 0.0542243 0)
(1.13067 0.0492837 0)
(1.13355 0.0444281 0)
(1.13469 0.0396964 0)
(1.13469 0.035102 0)
(1.134 0.0306425 0)
(1.13296 0.0263068 0)
(1.13178 0.0220792 9.18652e-28)
(1.13064 0.0179428 -9.18652e-28)
(1.12964 0.0138802 9.25997e-28)
(1.12884 0.00987436 -9.25997e-28)
(1.12829 0.00590867 6.83988e-28)
(1.12801 0.00196691 -6.88319e-28)
(0.945205 0.0775453 8.02298e-12)
(0.989614 0.0773048 -8.03328e-12)
(1.02754 0.0754286 1.95559e-29)
(1.05858 0.0723477 -1.95559e-29)
(1.08292 0.0684055 0)
(1.10115 0.0639054 0)
(1.11412 0.0590963 0)
(1.12282 0.0541635 0)
(1.12819 0.0492335 0)
(1.13112 0.0443839 0)
(1.13232 0.0396554 0)
(1.13239 0.0350627 0)
(1.13177 0.0306046 0)
(1.13079 0.0262708 0)
(1.12966 0.0220462 0)
(1.12857 0.0179138 0)
(1.1276 0.0138563 -4.30979e-28)
(1.12682 0.00985656 4.30979e-28)
(1.12628 0.00589769 -4.80267e-28)
(1.12601 0.0019632 4.83307e-28)
(0.945538 0.0772478 7.64938e-12)
(0.989072 0.0770355 -7.65918e-12)
(1.02629 0.0751992 9.38263e-29)
(1.05681 0.072158 -9.38263e-29)
(1.08079 0.0682525 0)
(1.09879 0.0637835 0)
(1.11166 0.0589985 0)
(1.12032 0.054083 0)
(1.12572 0.0491645 8.10172e-28)
(1.12869 0.0443222 -8.10172e-28)
(1.12996 0.039598 8.31788e-28)
(1.1301 0.0350084 -8.31788e-28)
(1.12954 0.0305534 0)
(1.12862 0.0262231 0)
(1.12755 0.0220031 -8.60764e-28)
(1.12649 0.0178765 8.60764e-28)
(1.12555 0.0138259 1.00535e-11)
(1.12481 0.00983407 -1.00535e-11)
(1.12429 0.00588388 0)
(1.12402 0.00195855 0)
(0.945886 0.0769332 0)
(0.988548 0.0767484 0)
(1.02507 0.0749512 7.8587e-12)
(1.05506 0.0719492 -7.8587e-12)
(1.07867 0.0680799 0)
(1.09645 0.0636419 0)
(1.1092 0.0588815 0)
(1.11783 0.053984 0)
(1.12325 0.0490779 0)
(1.12627 0.0442438 0)
(1.1276 0.0395254 0)
(1.12781 0.0349403 0)
(1.12732 0.0304897 0)
(1.12645 0.0261645 0)
(1.12543 0.0219507 0)
(1.12442 0.0178315 0)
(1.12352 0.0137895 9.73006e-12)
(1.1228 0.00980728 -9.73006e-12)
(1.12229 0.00586749 4.50377e-28)
(1.12204 0.00195303 -4.53228e-28)
(0.876426 0.0818151 -1.81806e-19)
(0.875265 0.0822129 1.43893e-19)
(0.874239 0.0825363 1.26525e-20)
(0.873341 0.082792 -2.92763e-19)
(0.872565 0.0829865 4.09105e-19)
(0.871906 0.0831261 4.19581e-19)
(0.871358 0.0832167 -1.17215e-19)
(0.870915 0.083264 -5.18951e-19)
(0.870574 0.0832731 6.73205e-19)
(0.870329 0.0832492 -3.35969e-19)
(0.870176 0.0831966 -4.1842e-20)
(0.87011 0.0831198 1.05765e-19)
(0.870126 0.0830225 -2.88634e-19)
(0.870222 0.0829083 -1.47289e-19)
(0.870393 0.0827804 3.16616e-19)
(0.870635 0.0826414 -6.61085e-21)
(0.870944 0.0824941 -6.92528e-20)
(0.871318 0.0823403 1.1863e-19)
(0.871752 0.082182 -1.22541e-19)
(0.872244 0.0820207 3.27683e-20)
(0.87279 0.0818576 1.64986e-19)
(0.873388 0.0816935 -4.89671e-20)
(0.874035 0.0815291 -1.47792e-19)
(0.874729 0.0813648 1.39779e-19)
(0.875465 0.0812008 -5.98763e-20)
(0.876243 0.0810371 6.72728e-20)
(0.87706 0.0808734 -4.08359e-20)
(0.877914 0.0807092 -1.3399e-19)
(0.878803 0.0805441 1.73507e-19)
(0.879724 0.0803773 -3.37285e-21)
(0.880677 0.0802081 -1.094e-19)
(0.881658 0.0800356 8.21384e-20)
(0.882668 0.0798587 6.35398e-21)
(0.883703 0.0796766 -1.43977e-20)
(0.884762 0.0794882 -4.72196e-20)
(0.885845 0.0792925 5.42838e-20)
(0.88695 0.0790885 -2.477e-21)
(0.888074 0.0788752 1.58418e-20)
(0.889219 0.0786517 -1.65941e-20)
(0.890381 0.078417 -1.73031e-20)
(0.891561 0.0781704 -2.08224e-20)
(0.892757 0.0779111 2.65875e-20)
(0.893967 0.0776384 3.22664e-21)
(0.895193 0.0773518 -3.75161e-20)
(0.896432 0.0770509 1.15797e-20)
(0.897683 0.0767351 -3.43379e-20)
(0.898947 0.0764043 -5.14666e-21)
(0.900222 0.0760581 2.79872e-20)
(0.763624 0.081492 5.19911e-19)
(0.764438 0.0817077 7.43193e-20)
(0.76533 0.0818593 -8.04609e-19)
(0.766298 0.0819531 7.4678e-19)
(0.76734 0.0819951 -4.76185e-20)
(0.768453 0.0819911 8.80623e-20)
(0.769635 0.0819465 -6.19953e-19)
(0.770883 0.0818665 3.31043e-19)
(0.772194 0.081756 -2.21551e-19)
(0.773566 0.0816193 -2.13079e-19)
(0.774996 0.0814608 1.90324e-19)
(0.776482 0.0812842 2.06573e-19)
(0.778022 0.081093 -1.35901e-19)
(0.779612 0.0808904 2.69005e-19)
(0.78125 0.0806793 -2.88382e-19)
(0.782935 0.0804621 4.25619e-20)
(0.784664 0.080241 1.15515e-19)
(0.786434 0.0800179 -1.456e-19)
(0.788244 0.0797943 2.05882e-19)
(0.790092 0.0795715 -5.0374e-20)
(0.791976 0.0793505 -7.02254e-21)
(0.793893 0.0791321 -2.97799e-20)
(0.795842 0.0789166 -7.19688e-20)
(0.797822 0.0787043 3.09967e-20)
(0.79983 0.0784953 3.77726e-20)
(0.801865 0.0782893 7.61551e-20)
(0.803925 0.0780861 8.00533e-21)
(0.806009 0.077885 -1.59127e-19)
(0.808115 0.0776856 1.644e-19)
(0.810243 0.0774869 -1.3116e-19)
(0.81239 0.0772882 -4.28836e-20)
(0.814555 0.0770885 3.17868e-20)
(0.816738 0.0768867 -1.12914e-20)
(0.818937 0.0766819 6.85073e-20)
(0.821151 0.0764729 -7.46085e-20)
(0.823379 0.0762587 3.60189e-21)
(0.82562 0.0760383 4.37128e-22)
(0.827873 0.0758105 1.07765e-19)
(0.830136 0.0755745 -7.72261e-20)
(0.83241 0.0753292 1.48658e-20)
(0.834692 0.0750738 2.08308e-20)
(0.836983 0.0748074 1.1297e-20)
(0.839281 0.0745294 -7.40369e-20)
(0.841586 0.0742391 9.70862e-20)
(0.843897 0.0739359 -5.75151e-20)
(0.846213 0.0736193 -3.29897e-20)
(0.848533 0.0732889 3.69904e-21)
(0.850858 0.0729445 6.78837e-20)
(0.853185 0.0725858 -1.48372e-20)
(0.639345 0.077564 -1.21401e-20)
(0.642265 0.077721 8.44e-20)
(0.645215 0.0778141 -2.81789e-19)
(0.648195 0.0778497 5.91809e-20)
(0.651204 0.0778343 -6.68957e-21)
(0.654242 0.0777737 1.81551e-19)
(0.657307 0.0776735 -7.5599e-20)
(0.6604 0.0775391 -1.58991e-19)
(0.663519 0.0773754 2.00122e-19)