/*--------------------------------*- C++ -*----------------------------------*\
  =========                 |
  \\      /  F ield         | OpenFOAM: The Open Source CFD Toolbox
   \\    /   O peration     | Website:  https://openfoam.org
    \\  /    A nd           | Version:  7
     \\/     M anipulation  |
\*---------------------------------------------------------------------------*/
FoamFile
{
    version     2.0;
    format      ascii;
    class       volScalarField;
    location    "50.001";
    object      p;
}
// * * * * * * * * * * * * * * * * * * * * * * * * * * * * * * * * * * * * * //

dimensions      [0 2 -2 0 0 0 0];

internalField   nonuniform List<scalar> 
3700
(
-0.248873
-0.247182
-0.245292
-0.243224
-0.24098
-0.238564
-0.235978
-0.233227
-0.230312
-0.227245
-0.224031
-0.220669
-0.21716
-0.213508
-0.209715
-0.205785
-0.201723
-0.197533
-0.193219
-0.188788
-0.184246
-0.179599
-0.174857
-0.170026
-0.165116
-0.160136
-0.155098
-0.150013
-0.144891
-0.139745
-0.134586
-0.129426
-0.124279
-0.119156
-0.11407
-0.109032
-0.104053
-0.099145
-0.0943176
-0.0895804
-0.0849423
-0.0804111
-0.0759942
-0.0716974
-0.0675263
-0.0634852
-0.0595777
-0.0558063
-0.052173
-0.0486787
-0.0453237
-0.0421078
-0.03903
-0.0360887
-0.033282
-0.0306075
-0.0280625
-0.025644
-0.0233488
-0.0211735
-0.0191147
-0.0171688
-0.0153322
-0.0136017
-0.0119735
-0.0104449
-0.00901201
-0.00767356
-0.00642367
-0.0052671
-0.0041869
-0.00321439
-0.00227718
-0.00153266
-0.000634368
-0.00035685
0.000988398
-0.248977
-0.247285
-0.245395
-0.243329
-0.241087
-0.238673
-0.236089
-0.233337
-0.230417
-0.227362
-0.224152
-0.220792
-0.217284
-0.213632
-0.209838
-0.205907
-0.201843
-0.19765
-0.193333
-0.188897
-0.184351
-0.179699
-0.174951
-0.170114
-0.165199
-0.160215
-0.155172
-0.150082
-0.144956
-0.139807
-0.134646
-0.129485
-0.124337
-0.119215
-0.114129
-0.109093
-0.104117
-0.0992119
-0.0943878
-0.0896542
-0.0850199
-0.0804923
-0.076079
-0.0717854
-0.0676171
-0.0635783
-0.0596724
-0.055902
-0.0522688
-0.0487739
-0.0454176
-0.0421996
-0.0391189
-0.0361741
-0.0333632
-0.0306841
-0.0281339
-0.0257098
-0.0234088
-0.0212275
-0.0191625
-0.0172105
-0.0153679
-0.0136315
-0.0119978
-0.010464
-0.00902623
-0.00768351
-0.00642975
-0.00527016
-0.00418719
-0.00321328
-0.00227458
-0.00153037
-0.000633499
-0.000353822
0.00096919
-0.249177
-0.247481
-0.24559
-0.243524
-0.241285
-0.238874
-0.236292
-0.233543
-0.230642
-0.227582
-0.224372
-0.221014
-0.217508
-0.213857
-0.210064
-0.206133
-0.202067
-0.197872
-0.193552
-0.189114
-0.184563
-0.179906
-0.175153
-0.170311
-0.16539
-0.160399
-0.155351
-0.150255
-0.145125
-0.139971
-0.134806
-0.129642
-0.124491
-0.119367
-0.11428
-0.109243
-0.104267
-0.0993617
-0.0945382
-0.0898055
-0.0851724
-0.0806446
-0.0762324
-0.0719393
-0.0677711
-0.0637318
-0.0598249
-0.0560529
-0.0524175
-0.0489197
-0.0455599
-0.0423376
-0.039252
-0.0363017
-0.0334849
-0.0307993
-0.0282423
-0.0258112
-0.0235028
-0.0213141
-0.0192417
-0.0172823
-0.0154326
-0.0136892
-0.0120488
-0.0105088
-0.0090652
-0.00771726
-0.00645857
-0.00529509
-0.00420812
-0.00323206
-0.00229024
-0.00154538
-0.00064872
-0.000360949
0.000926433
-0.249451
-0.247751
-0.24586
-0.243795
-0.241559
-0.239152
-0.236576
-0.233832
-0.230933
-0.227879
-0.224675
-0.221321
-0.217819
-0.214171
-0.210379
-0.206449
-0.202384
-0.198188
-0.193867
-0.189425
-0.184871
-0.18021
-0.175452
-0.170604
-0.165678
-0.160681
-0.155627
-0.150525
-0.145389
-0.140229
-0.135059
-0.12989
-0.124735
-0.119607
-0.114517
-0.109477
-0.104498
-0.0995901
-0.0947648
-0.0900304
-0.0853953
-0.0808667
-0.0764521
-0.0721568
-0.067986
-0.0639437
-0.0600334
-0.0562574
-0.0526174
-0.0491145
-0.045749
-0.0425204
-0.0394281
-0.0364706
-0.0336461
-0.0309524
-0.0283872
-0.0259476
-0.0236306
-0.0214333
-0.0193523
-0.0173844
-0.0155264
-0.0137751
-0.0121271
-0.0105799
-0.00912942
-0.00777536
-0.00651069
-0.00534246
-0.00425023
-0.00327116
-0.00232464
-0.00157786
-0.000680326
-0.000378657
0.000862445
-0.249776
-0.248072
-0.246182
-0.244121
-0.24189
-0.239489
-0.236913
-0.234162
-0.231286
-0.228243
-0.225046
-0.221698
-0.218201
-0.214558
-0.210769
-0.206842
-0.202778
-0.198583
-0.194261
-0.189818
-0.185261
-0.180597
-0.175834
-0.170982
-0.16605
-0.161048
-0.155987
-0.15088
-0.145737
-0.140571
-0.135395
-0.130222
-0.125058
-0.119925
-0.114831
-0.109786
-0.104803
-0.0998921
-0.0950628
-0.0903243
-0.0856851
-0.0811526
-0.0767338
-0.072434
-0.0682584
-0.0642111
-0.0602951
-0.0565131
-0.0528666
-0.0493566
-0.0459835
-0.042747
-0.0396462
-0.0366799
-0.0338462
-0.0311432
-0.0285683
-0.026119
-0.0237923
-0.0215852
-0.0194946
-0.0175173
-0.01565
-0.0138898
-0.0122332
-0.0106779
-0.00921964
-0.00785852
-0.0065868
-0.00541284
-0.00431409
-0.00333091
-0.00237817
-0.00162771
-0.000728382
-0.000407054
0.000780578
-0.248414
-0.246529
-0.244475
-0.242253
-0.239861
-0.237298
-0.234584
-0.231693
-0.228654
-0.225465
-0.222124
-0.218634
-0.214998
-0.211215
-0.207293
-0.203232
-0.199038
-0.194717
-0.190274
-0.185716
-0.18105
-0.176285
-0.171429
-0.166495
-0.161482
-0.156416
-0.151304
-0.146155
-0.140983
-0.135801
-0.130621
-0.125454
-0.120315
-0.115214
-0.110164
-0.105176
-0.100259
-0.0954241
-0.0906803
-0.0860357
-0.0814976
-0.0770728
-0.072767
-0.0685849
-0.0645307
-0.0606075
-0.0568177
-0.053163
-0.0496445
-0.0462623
-0.0430164
-0.0399058
-0.0369293
-0.0340853
-0.0313717
-0.0287861
-0.026326
-0.0239885
-0.0217707
-0.0196695
-0.0176818
-0.0158044
-0.0140344
-0.0123682
-0.0108039
-0.00933676
-0.00796758
-0.00668766
-0.00550684
-0.0044002
-0.00341153
-0.00245101
-0.00169457
-0.000792684
-0.000445844
0.000684882
-0.248745
-0.246871
-0.244829
-0.24262
-0.240241
-0.23768
-0.234982
-0.23211
-0.229087
-0.225909
-0.22258
-0.219101
-0.215479
-0.211686
-0.207776
-0.203721
-0.199533
-0.195215
-0.190774
-0.186216
-0.18155
-0.176783
-0.171925
-0.166985
-0.161973
-0.156903
-0.151785
-0.146631
-0.141454
-0.136265
-0.131079
-0.125907
-0.120762
-0.115655
-0.110599
-0.105605
-0.100682
-0.0958417
-0.0910917
-0.0864408
-0.0818961
-0.0774645
-0.0731514
-0.0689618
-0.0648996
-0.0609679
-0.0571693
-0.0535053
-0.049977
-0.0465847
-0.0433282
-0.0402068
-0.0372191
-0.0343637
-0.0316386
-0.0290413
-0.0265695
-0.0242203
-0.0219909
-0.0198782
-0.0178792
-0.0159907
-0.0142099
-0.0125333
-0.0109588
-0.00948182
-0.00810341
-0.00681404
-0.00562499
-0.00450898
-0.00351306
-0.00254318
-0.00177787
-0.000872721
-0.000494365
0.000579697
-0.249032
-0.247174
-0.245151
-0.242961
-0.2406
-0.238064
-0.235378
-0.232523
-0.229514
-0.226351
-0.223035
-0.219567
-0.215951
-0.212186
-0.208279
-0.204231
-0.200049
-0.195736
-0.191298
-0.186744
-0.182079
-0.177312
-0.172454
-0.167513
-0.162499
-0.157426
-0.152305
-0.147147
-0.141966
-0.136773
-0.131583
-0.126406
-0.121255
-0.116144
-0.111083
-0.106083
-0.101155
-0.0963081
-0.091552
-0.0868946
-0.0823431
-0.0779043
-0.0735836
-0.0693859
-0.0653151
-0.0613744
-0.0575662
-0.0538922
-0.0503534
-0.0469503
-0.0436825
-0.0405494
-0.0375499
-0.0346823
-0.0319448
-0.0293351
-0.0268508
-0.0244891
-0.0222472
-0.0201221
-0.018111
-0.0162104
-0.0144179
-0.0127296
-0.011144
-0.00965582
-0.00826686
-0.00696659
-0.00576773
-0.0046407
-0.00363537
-0.00265448
-0.00187679
-0.000967646
-0.000551717
0.000469253
-0.249237
-0.247404
-0.245408
-0.243245
-0.240909
-0.238416
-0.235732
-0.232898
-0.22991
-0.226767
-0.223468
-0.220017
-0.216416
-0.212664
-0.208769
-0.204733
-0.20056
-0.196255
-0.191825
-0.187275
-0.182615
-0.177852
-0.172996
-0.168056
-0.163044
-0.157971
-0.152848
-0.147689
-0.142506
-0.137312
-0.132118
-0.126938
-0.121785
-0.11667
-0.111605
-0.106601
-0.101668
-0.0968164
-0.0920549
-0.0873916
-0.0828339
-0.0783881
-0.07406
-0.0698543
-0.0657749
-0.0618251
-0.0580072
-0.0543229
-0.0507734
-0.047359
-0.0440795
-0.0409343
-0.0379224
-0.0350421
-0.0322917
-0.0296689
-0.0271713
-0.0247963
-0.0225411
-0.0204028
-0.0183785
-0.0164649
-0.0146595
-0.0129585
-0.0113603
-0.00985963
-0.0084586
-0.00714582
-0.00593525
-0.00479538
-0.00377809
-0.00278446
-0.0019904
-0.00107628
-0.000616903
0.000357315
-0.24932
-0.247524
-0.245563
-0.243435
-0.241128
-0.238656
-0.23601
-0.233206
-0.230245
-0.227125
-0.22385
-0.22042
-0.216838
-0.213104
-0.209225
-0.205203
-0.201044
-0.196751
-0.192331
-0.187791
-0.183139
-0.178383
-0.173533
-0.168598
-0.16359
-0.15852
-0.1534
-0.148243
-0.143061
-0.137867
-0.132674
-0.127494
-0.12234
-0.117224
-0.112157
-0.107151
-0.102215
-0.0973602
-0.0925948
-0.0879269
-0.0833639
-0.0789122
-0.0745775
-0.0703644
-0.066277
-0.0623185
-0.0584911
-0.0547968
-0.0512366
-0.0478108
-0.0445195
-0.0413621
-0.0383374
-0.035444
-0.0326801
-0.0300436
-0.0275322
-0.0251432
-0.0228739
-0.0207215
-0.018683
-0.0167553
-0.0149358
-0.0132207
-0.0116086
-0.0100938
-0.00867899
-0.00735193
-0.00612749
-0.00497282
-0.00394065
-0.00293245
-0.00211762
-0.00119717
-0.00068893
0.00024696
-0.249233
-0.247491
-0.245577
-0.243494
-0.241224
-0.238774
-0.236172
-0.233409
-0.230484
-0.227396
-0.22415
-0.220747
-0.217189
-0.213478
-0.209621
-0.205619
-0.201477
-0.197201
-0.192796
-0.18827
-0.183631
-0.178886
-0.174046
-0.169121
-0.164121
-0.159058
-0.153945
-0.148794
-0.143618
-0.138428
-0.133239
-0.128063
-0.122911
-0.117797
-0.112731
-0.107725
-0.10279
-0.0979337
-0.0931664
-0.0884959
-0.0839294
-0.0794734
-0.0751333
-0.0709141
-0.0668197
-0.0628532
-0.0590171
-0.0553132
-0.0517426
-0.0483058
-0.0450028
-0.041833
-0.0387954
-0.0358886
-0.0331109
-0.0304603
-0.0279344
-0.0255306
-0.0232464
-0.0210789
-0.0190252
-0.0170822
-0.0152473
-0.0135167
-0.0118891
-0.0103586
-0.00892801
-0.00758472
-0.00634404
-0.00517246
-0.00412221
-0.00309747
-0.00225732
-0.00132862
-0.00076686
0.000140478
-0.247253
-0.245403
-0.24338
-0.241171
-0.238766
-0.236199
-0.233476
-0.230593
-0.227546
-0.224337
-0.220967
-0.217441
-0.21376
-0.20993
-0.205953
-0.201836
-0.197582
-0.193198
-0.188691
-0.18407
-0.179342
-0.174518
-0.169607
-0.164621
-0.159571
-0.15447
-0.14933
-0.144164
-0.138984
-0.133803
-0.128634
-0.123489
-0.118381
-0.11332
-0.108318
-0.103385
-0.0985315
-0.0937651
-0.0890945
-0.0845267
-0.0800683
-0.0757248
-0.0715009
-0.0674008
-0.0634275
-0.0595837
-0.055871
-0.0522907
-0.0488433
-0.0455288
-0.0423468
-0.0392963
-0.036376
-0.0335842
-0.0309189
-0.0283779
-0.0259588
-0.0236588
-0.0214752
-0.0194052
-0.0174456
-0.0155939
-0.0138463
-0.0122015
-0.0106534
-0.00920511
-0.00784354
-0.00658406
-0.0053934
-0.00432167
-0.00327831
-0.00240832
-0.00146885
-0.000849817
3.94013e-05
-0.246746
-0.244983
-0.243031
-0.240869
-0.238437
-0.235988
-0.233351
-0.230532
-0.227538
-0.224376
-0.22105
-0.217563
-0.21392
-0.210125
-0.206182
-0.202096
-0.197871
-0.193515
-0.189035
-0.184438
-0.179734
-0.174932
-0.170042
-0.165076
-0.160045
-0.154962
-0.149839
-0.144688
-0.139523
-0.134356
-0.1292
-0.124066
-0.118968
-0.113917
-0.108923
-0.103997
-0.0991488
-0.0943865
-0.0897186
-0.0851523
-0.0806938
-0.076349
-0.0721224
-0.0680182
-0.0640396
-0.0601892
-0.0564687
-0.0528794
-0.049422
-0.0460965
-0.0429025
-0.0398392
-0.0369053
-0.0340991
-0.0314188
-0.0288622
-0.0264269
-0.0241103
-0.0219097
-0.0198222
-0.0178447
-0.0159748
-0.0142086
-0.0125449
-0.0109774
-0.00950918
-0.00812726
-0.0068463
-0.00563434
-0.0045377
-0.00347349
-0.0025694
-0.00161606
-0.000936965
-5.53792e-05
-0.245897
-0.244253
-0.242408
-0.240379
-0.238141
-0.235558
-0.23298
-0.230251
-0.227332
-0.224233
-0.220962
-0.217526
-0.213931
-0.210182
-0.206281
-0.202235
-0.198048
-0.193728
-0.189282
-0.184718
-0.180045
-0.175273
-0.170412
-0.165474
-0.160469
-0.15541
-0.150311
-0.145182
-0.140038
-0.134891
-0.129753
-0.124637
-0.119554
-0.114517
-0.109535
-0.10462
-0.0997812
-0.0950266
-0.0903647
-0.0858026
-0.0813468
-0.0770029
-0.0727758
-0.0686694
-0.064687
-0.0608313
-0.0571042
-0.0535069
-0.0500401
-0.0467041
-0.0434985
-0.0404224
-0.0374748
-0.0346541
-0.0319584
-0.0293856
-0.0269335
-0.0245994
-0.0223807
-0.0202745
-0.018278
-0.0163884
-0.0146021
-0.0129176
-0.0113289
-0.00983856
-0.00843421
-0.0071291
-0.00589363
-0.00476873
-0.00368131
-0.00273932
-0.00176852
-0.00102751
-0.000143476
-0.244636
-0.243146
-0.241429
-0.239494
-0.237314
-0.234892
-0.232375
-0.229729
-0.226897
-0.223877
-0.220676
-0.217304
-0.213768
-0.210076
-0.206229
-0.202233
-0.198094
-0.19382
-0.189418
-0.184897
-0.180264
-0.17553
-0.170706
-0.165803
-0.160833
-0.155807
-0.150738
-0.145639
-0.140523
-0.135401
-0.130288
-0.125195
-0.120133
-0.115115
-0.110151
-0.105251
-0.100425
-0.0956819
-0.0910293
-0.0864747
-0.0820243
-0.0776839
-0.0734582
-0.0693515
-0.065367
-0.0615075
-0.0577748
-0.0541704
-0.0506951
-0.047349
-0.0441321
-0.0410434
-0.0380821
-0.0352466
-0.0325351
-0.0299457
-0.027476
-0.0251236
-0.0228858
-0.0207599
-0.018743
-0.0168323
-0.0150243
-0.0133173
-0.0117055
-0.010191
-0.00876225
-0.00743043
-0.00616927
-0.00501301
-0.00389992
-0.00291679
-0.00192463
-0.00112066
-0.00022486
-0.24161
-0.24006
-0.238284
-0.236278
-0.233991
-0.23137
-0.228873
-0.226183
-0.223275
-0.220164
-0.216872
-0.213412
-0.209789
-0.206009
-0.202076
-0.197997
-0.19378
-0.189433
-0.184964
-0.180381
-0.175696
-0.170918
-0.166059
-0.161131
-0.156146
-0.151116
-0.146054
-0.140973
-0.135884
-0.130802
-0.125737
-0.120702
-0.115708
-0.110766
-0.105886
-0.101077
-0.0963492
-0.0917093
-0.087165
-0.0827227
-0.0783881
-0.0741661
-0.0700608
-0.0660758
-0.0622137
-0.0584766
-0.054866
-0.0513827
-0.0480272
-0.0447992
-0.0416981
-0.0387231
-0.0358725
-0.033145
-0.0305384
-0.0280506
-0.0256791
-0.0234214
-0.0212747
-0.0192361
-0.017303
-0.0154719
-0.0137407
-0.0121043
-0.0105637
-0.0091086
-0.0077477
-0.0064588
-0.00526844
-0.00412723
-0.00310038
-0.00208285
-0.00121561
-0.000299679
-0.239605
-0.238264
-0.236674
-0.234843
-0.232773
-0.230468
-0.227754
-0.22517
-0.222407
-0.219414
-0.21622
-0.212849
-0.209312
-0.205612
-0.201754
-0.197748
-0.1936
-0.189318
-0.184912
-0.18039
-0.175763
-0.171041
-0.166236
-0.161359
-0.156422
-0.151439
-0.146421
-0.141381
-0.136333
-0.131287
-0.126257
-0.121254
-0.116289
-0.111374
-0.106517
-0.10173
-0.0970206
-0.0923966
-0.0878656
-0.083434
-0.0791076
-0.0748914
-0.0707895
-0.0668056
-0.0629424
-0.0592022
-0.0555864
-0.0520961
-0.0487317
-0.0454932
-0.04238
-0.0393914
-0.036526
-0.0337823
-0.0311582
-0.0286519
-0.0262607
-0.0239824
-0.021814
-0.019753
-0.0177964
-0.0159409
-0.0141843
-0.0125218
-0.0109532
-0.00947021
-0.00807817
-0.00675964
-0.00553291
-0.00436119
-0.00328869
-0.00224189
-0.00131156
-0.00036813
-0.237148
-0.236043
-0.234658
-0.233012
-0.2311
-0.228901
-0.226464
-0.223887
-0.221243
-0.218393
-0.215325
-0.212066
-0.208632
-0.205029
-0.201261
-0.19734
-0.193274
-0.18907
-0.184739
-0.180288
-0.175729
-0.171073
-0.16633
-0.161513
-0.156634
-0.151705
-0.146739
-0.141749
-0.136746
-0.131744
-0.126755
-0.121789
-0.116859
-0.111975
-0.107147
-0.102385
-0.097698
-0.0930934
-0.0885788
-0.0841607
-0.079845
-0.0756367
-0.0715402
-0.067559
-0.0636962
-0.0599539
-0.0563339
-0.0528373
-0.0494646
-0.0462159
-0.0430909
-0.0400887
-0.0372082
-0.0344479
-0.031806
-0.0292805
-0.026869
-0.0245692
-0.0223782
-0.0202936
-0.0183122
-0.016431
-0.0146474
-0.0129572
-0.011359
-0.00984632
-0.00842113
-0.007071
-0.00580583
-0.00460113
-0.00348144
-0.00240152
-0.00140856
-0.000430793
-0.234375
-0.23356
-0.232429
-0.231012
-0.229325
-0.22737
-0.225085
-0.222422
-0.219912
-0.217211
-0.214281
-0.211145
-0.207827
-0.204331
-0.200666
-0.196843
-0.192871
-0.188758
-0.184513
-0.180146
-0.175667
-0.171087
-0.166417
-0.16167
-0.156858
-0.151992
-0.147085
-0.142151
-0.137201
-0.132248
-0.127303
-0.122379
-0.117487
-0.112637
-0.10784
-0.103105
-0.0984413
-0.0938567
-0.0893588
-0.0849541
-0.0806486
-0.0764475
-0.0723552
-0.0683755
-0.0645114
-0.0607655
-0.0571395
-0.0536346
-0.0502516
-0.0469907
-0.0438516
-0.0408337
-0.0379358
-0.0351567
-0.0324946
-0.0299477
-0.0275135
-0.0251899
-0.022974
-0.0208635
-0.018855
-0.016946
-0.0151329
-0.0134129
-0.0117827
-0.0102381
-0.00877741
-0.00739338
-0.00608761
-0.00484729
-0.00367903
-0.00256229
-0.00150752
-0.000488964
-0.230122
-0.229294
-0.228155
-0.226731
-0.225027
-0.223085
-0.220859
-0.218122
-0.215551
-0.212815
-0.209859
-0.206703
-0.203354
-0.199823
-0.196124
-0.192268
-0.188264
-0.184122
-0.179853
-0.175466
-0.170973
-0.166386
-0.161717
-0.156978
-0.152182
-0.147341
-0.142467
-0.137573
-0.132673
-0.127777
-0.122897
-0.118046
-0.113233
-0.108468
-0.103763
-0.0991246
-0.0945622
-0.090083
-0.0856937
-0.0814005
-0.0772086
-0.0731226
-0.0691465
-0.0652834
-0.0615359
-0.057906
-0.0543951
-0.051004
-0.047733
-0.044582
-0.0415505
-0.0386374
-0.0358416
-0.0331613
-0.030595
-0.02814
-0.0257944
-0.0235553
-0.0214205
-0.0193863
-0.0174507
-0.0156096
-0.0138607
-0.0121995
-0.0106237
-0.00912828
-0.00771063
-0.00636504
-0.00508863
-0.00387324
-0.00271771
-0.00160498
-0.00054135
-0.225427
-0.224905
-0.224049
-0.222899
-0.22147
-0.219766
-0.21776
-0.215495
-0.21294
-0.210204
-0.207335
-0.204298
-0.201072
-0.197664
-0.194087
-0.190353
-0.186469
-0.182445
-0.178292
-0.17402
-0.16964
-0.165165
-0.160605
-0.155975
-0.151285
-0.146548
-0.141777
-0.136984
-0.132182
-0.127381
-0.122594
-0.117832
-0.113105
-0.108424
-0.103797
-0.0992337
-0.094742
-0.0903293
-0.0860023
-0.0817668
-0.0776281
-0.0735909
-0.069659
-0.0658356
-0.0621234
-0.0585243
-0.0550399
-0.0516709
-0.048418
-0.0452809
-0.0422594
-0.0393525
-0.0365592
-0.0338778
-0.0313068
-0.0288437
-0.0264869
-0.0242332
-0.0220808
-0.0200258
-0.0180665
-0.0161983
-0.0144198
-0.0127251
-0.0111138
-0.00957782
-0.00811867
-0.00672416
-0.00539994
-0.00412554
-0.00291498
-0.00173009
-0.000600032
-0.216824
-0.216663
-0.216117
-0.215248
-0.214075
-0.212593
-0.21082
-0.208794
-0.20665
-0.204411
-0.20193
-0.199188
-0.196225
-0.193071
-0.189741
-0.186245
-0.182592
-0.178794
-0.174861
-0.170806
-0.166639
-0.162373
-0.158019
-0.15359
-0.149098
-0.144556
-0.139974
-0.135367
-0.130744
-0.126119
-0.121501
-0.116902
-0.112332
-0.107801
-0.103317
-0.0988903
-0.0945275
-0.0902362
-0.0860229
-0.0818935
-0.0778532
-0.0739067
-0.0700578
-0.0663099
-0.0626656
-0.0591271
-0.0556961
-0.0523735
-0.0491602
-0.046056
-0.0430611
-0.0401745
-0.0373955
-0.0347226
-0.0321545
-0.0296891
-0.0273247
-0.0250583
-0.0228884
-0.0208111
-0.0188251
-0.0169251
-0.015111
-0.0133752
-0.0117196
-0.0101328
-0.00862055
-0.00716485
-0.00577858
-0.00443121
-0.00314914
-0.00187745
-0.000664855
-0.208426
-0.208645
-0.208445
-0.207913
-0.207091
-0.205994
-0.204644
-0.203063
-0.201242
-0.19913
-0.196779
-0.194239
-0.191507
-0.188585
-0.185482
-0.182208
-0.178775
-0.175193
-0.171475
-0.16763
-0.163671
-0.15961
-0.155458
-0.151228
-0.146931
-0.142579
-0.138184
-0.133759
-0.129313
-0.124859
-0.120408
-0.115969
-0.111553
-0.107169
-0.102826
-0.0985321
-0.0942955
-0.090123
-0.0860212
-0.0819958
-0.0780521
-0.0741945
-0.0704272
-0.0667535
-0.0631761
-0.0596975
-0.0563192
-0.0530427
-0.0498686
-0.0467973
-0.0438289
-0.0409628
-0.0381985
-0.0355345
-0.0329699
-0.0305025
-0.0281311
-0.0258526
-0.0236659
-0.0215668
-0.0195547
-0.0176236
-0.0157744
-0.0139984
-0.0122989
-0.0106626
-0.00909781
-0.00758275
-0.00613522
-0.00471811
-0.00336609
-0.00201346
-0.000721714
-0.200339
-0.200907
-0.201035
-0.200819
-0.200309
-0.199521
-0.198453
-0.1971
-0.195472
-0.19361
-0.191548
-0.189273
-0.186787
-0.1841
-0.181226
-0.178177
-0.174965
-0.171602
-0.168098
-0.164464
-0.160713
-0.156856
-0.152905
-0.148872
-0.144768
-0.140605
-0.136395
-0.132149
-0.127878
-0.123593
-0.119305
-0.115024
-0.110759
-0.10652
-0.102315
-0.0981526
-0.09404
-0.0899845
-0.0859922
-0.0820691
-0.0782203
-0.0744504
-0.0707634
-0.0671628
-0.0636516
-0.060232
-0.056906
-0.0536749
-0.0505399
-0.0475013
-0.0445595
-0.0417139
-0.0389643
-0.0363095
-0.0337486
-0.0312796
-0.0289016
-0.0266115
-0.0244085
-0.0222883
-0.0202507
-0.0182894
-0.0164059
-0.0145907
-0.0128484
-0.0111639
-0.0095479
-0.0079758
-0.00646872
-0.00498546
-0.00356606
-0.002138
-0.000770877
-0.192565
-0.193448
-0.19388
-0.193954
-0.193721
-0.193196
-0.192378
-0.191275
-0.18991
-0.188311
-0.186491
-0.184447
-0.182186
-0.179721
-0.177066
-0.174233
-0.171235
-0.168081
-0.164784
-0.161355
-0.157806
-0.154147
-0.15039
-0.146548
-0.142632
-0.138652
-0.134621
-0.130549
-0.126448
-0.122328
-0.118198
-0.11407
-0.109952
-0.105853
-0.101782
-0.0977468
-0.0937548
-0.0898129
-0.0859273
-0.0821039
-0.0783477
-0.0746633
-0.0710549
-0.067526
-0.0640795
-0.060718
-0.0574434
-0.0542574
-0.0511611
-0.048155
-0.0452397
-0.0424149
-0.0396805
-0.0370353
-0.0344788
-0.032009
-0.0296253
-0.0273246
-0.0251064
-0.0229663
-0.0209045
-0.0189144
-0.0169981
-0.0151456
-0.0133622
-0.011632
-0.00996691
-0.00834081
-0.00677702
-0.00523175
-0.00374863
-0.0022508
-0.000813349
-0.18514
-0.18631
-0.187025
-0.187368
-0.187392
-0.187116
-0.186547
-0.185695
-0.184579
-0.183215
-0.181616
-0.179787
-0.177741
-0.175489
-0.173044
-0.170419
-0.167625
-0.164673
-0.161575
-0.158342
-0.154985
-0.151516
-0.147946
-0.144287
-0.14055
-0.136746
-0.132887
-0.128982
-0.125043
-0.121079
-0.117102
-0.11312
-0.109142
-0.105178
-0.101236
-0.0973233
-0.0934472
-0.0896146
-0.0858318
-0.0821043
-0.0784374
-0.0748358
-0.0713034
-0.0678438
-0.0644602
-0.0611552
-0.0579308
-0.0547888
-0.0517304
-0.0487564
-0.0458674
-0.0430633
-0.0403441
-0.0377089
-0.0351574
-0.0326876
-0.0302991
-0.0279888
-0.0257566
-0.0235979
-0.0215134
-0.0194963
-0.0175491
-0.0156613
-0.013839
-0.0120658
-0.0103543
-0.0086776
-0.00706048
-0.00545751
-0.0039149
-0.00235298
-0.000850792
-0.178094
-0.179522
-0.180497
-0.181091
-0.181357
-0.181318
-0.180983
-0.180364
-0.179474
-0.178326
-0.176936
-0.175314
-0.173474
-0.171426
-0.169182
-0.166755
-0.164155
-0.161396
-0.158487
-0.15544
-0.152267
-0.148979
-0.145587
-0.142102
-0.138536
-0.134899
-0.131202
-0.127456
-0.123671
-0.119858
-0.116025
-0.112182
-0.108339
-0.104504
-0.100684
-0.0968879
-0.0931225
-0.0893944
-0.0857098
-0.0820744
-0.0784932
-0.0749708
-0.0715115
-0.0681188
-0.0647959
-0.0615454
-0.0583696
-0.0552702
-0.0522488
-0.0493061
-0.046443
-0.0436594
-0.0409555
-0.0383306
-0.0357844
-0.0333152
-0.0309227
-0.0286039
-0.0263589
-0.0241832
-0.0220775
-0.0200352
-0.0180589
-0.0161382
-0.0142795
-0.0124659
-0.010711
-0.00898712
-0.0073203
-0.00566393
-0.00406628
-0.00244567
-0.000884275
-0.171435
-0.173092
-0.174303
-0.175129
-0.175621
-0.175802
-0.175685
-0.175279
-0.174598
-0.173654
-0.172463
-0.17104
-0.169395
-0.16754
-0.165486
-0.163247
-0.160832
-0.158255
-0.155526
-0.152656
-0.149657
-0.14654
-0.143317
-0.139997
-0.136593
-0.133115
-0.129573
-0.125978
-0.122339
-0.118668
-0.114972
-0.111262
-0.107546
-0.103833
-0.10013
-0.0964448
-0.0927847
-0.0891562
-0.0855652
-0.0820175
-0.0785182
-0.0750717
-0.0716823
-0.0683537
-0.065089
-0.061891
-0.0587621
-0.055704
-0.0527184
-0.0498061
-0.0469683
-0.0442048
-0.0415162
-0.0389017
-0.0363613
-0.0338932
-0.0314975
-0.0291712
-0.0269146
-0.0247231
-0.022598
-0.0205322
-0.018529
-0.0165775
-0.0146848
-0.0128338
-0.0110385
-0.00927082
-0.00755795
-0.00585236
-0.00420408
-0.00252984
-0.000914485
-0.165158
-0.167019
-0.168442
-0.169481
-0.170181
-0.170566
-0.170649
-0.170442
-0.169955
-0.169204
-0.168203
-0.166966
-0.165506
-0.163833
-0.16196
-0.159897
-0.157658
-0.155253
-0.152694
-0.149992
-0.147158
-0.144204
-0.14114
-0.137977
-0.134726
-0.131398
-0.128002
-0.12455
-0.12105
-0.117513
-0.113948
-0.110363
-0.106768
-0.10317
-0.0995774
-0.0959977
-0.0924376
-0.0889036
-0.0854017
-0.0819375
-0.0785161
-0.0751419
-0.0718194
-0.068552
-0.065343
-0.0621953
-0.0591114
-0.056093
-0.0531419
-0.0502592
-0.0474459
-0.0447022
-0.0420286
-0.0394245
-0.0368901
-0.0344238
-0.0320256
-0.0296928
-0.0274257
-0.0252199
-0.0230767
-0.0209893
-0.0189611
-0.0169812
-0.015057
-0.0131712
-0.0113385
-0.00953039
-0.00777505
-0.00602421
-0.00432955
-0.00260632
-0.000941915
-0.159257
-0.161299
-0.162912
-0.164144
-0.165034
-0.165607
-0.165876
-0.165852
-0.165548
-0.164977
-0.164155
-0.163094
-0.161807
-0.160305
-0.158601
-0.156706
-0.154632
-0.152391
-0.149992
-0.147449
-0.144771
-0.141971
-0.139057
-0.136043
-0.132937
-0.12975
-0.126493
-0.123175
-0.119806
-0.116396
-0.112954
-0.109488
-0.106006
-0.102518
-0.0990301
-0.0955501
-0.0920847
-0.0886403
-0.0852228
-0.0818379
-0.0784905
-0.0751851
-0.0719261
-0.0687171
-0.0655613
-0.0624617
-0.0594208
-0.0564405
-0.0535227
-0.0506684
-0.0478789
-0.0451544
-0.0424956
-0.039902
-0.0373738
-0.0349097
-0.0325097
-0.0301711
-0.0278946
-0.0256758
-0.0235162
-0.0214089
-0.0193575
-0.0173513
-0.015398
-0.0134801
-0.0116129
-0.00976758
-0.0079732
-0.00618087
-0.0044438
-0.00267588
-0.000966908
-0.153723
-0.155925
-0.157708
-0.159114
-0.160178
-0.160923
-0.161363
-0.161509
-0.161375
-0.160972
-0.160316
-0.15942
-0.158296
-0.156956
-0.155412
-0.153674
-0.151756
-0.149668
-0.147422
-0.145028
-0.142497
-0.139841
-0.13707
-0.134195
-0.131226
-0.128173
-0.125046
-0.121855
-0.11861
-0.11532
-0.111993
-0.108639
-0.105265
-0.10188
-0.0984909
-0.095105
-0.0917291
-0.0883695
-0.085032
-0.0817221
-0.0784448
-0.0752047
-0.072006
-0.0688525
-0.0657474
-0.0626936
-0.0596938
-0.0567499
-0.0538639
-0.051037
-0.0482704
-0.0455646
-0.0429202
-0.040337
-0.0378152
-0.0353535
-0.0329523
-0.0306089
-0.028324
-0.0260934
-0.0239187
-0.0217931
-0.0197206
-0.0176902
-0.01571
-0.0137626
-0.0118637
-0.00998411
-0.00815393
-0.00632361
-0.00454783
-0.00273916
-0.000989705
-0.148548
-0.15089
-0.152824
-0.154386
-0.155608
-0.156511
-0.157108
-0.157411
-0.157433
-0.157187
-0.156687
-0.155945
-0.154973
-0.153784
-0.152389
-0.1508
-0.149028
-0.147085
-0.144981
-0.142728
-0.140336
-0.137816
-0.135179
-0.132435
-0.129595
-0.126667
-0.123663
-0.120592
-0.117463
-0.114286
-0.111068
-0.107819
-0.104547
-0.101259
-0.0979627
-0.0946656
-0.0913741
-0.0880944
-0.0848323
-0.0815933
-0.0783824
-0.075204
-0.0720625
-0.0689615
-0.0659045
-0.0628943
-0.0599336
-0.0570244
-0.0541688
-0.0513681
-0.0486236
-0.0459357
-0.0433055
-0.0407324
-0.0382171
-0.0357582
-0.0333563
-0.0310087
-0.0287164
-0.0264751
-0.0242867
-0.0221445
-0.0200525
-0.0179999
-0.0159951
-0.0140205
-0.0120925
-0.0101816
-0.00831863
-0.00645358
-0.00464251
-0.00279672
-0.00101049
-0.143722
-0.146187
-0.148255
-0.149956
-0.15132
-0.152366
-0.153107
-0.153555
-0.153722
-0.153621
-0.153264
-0.152666
-0.151836
-0.150789
-0.149534
-0.148084
-0.146449
-0.144641
-0.142671
-0.14055
-0.138288
-0.135896
-0.133385
-0.130764
-0.128044
-0.125235
-0.122346
-0.119387
-0.116367
-0.113296
-0.11018
-0.10703
-0.103853
-0.100656
-0.097448
-0.0942344
-0.0910223
-0.0878179
-0.0846269
-0.0814547
-0.0783063
-0.0751862
-0.0720986
-0.0690474
-0.0660358
-0.0630668
-0.0601432
-0.0572671
-0.0544405
-0.0516648
-0.0489413
-0.0462708
-0.0436541
-0.0410911
-0.0385822
-0.0361264
-0.0337242
-0.0313732
-0.0290743
-0.0268234
-0.0246226
-0.0224651
-0.0203554
-0.0182824
-0.0162551
-0.0142557
-0.012301
-0.0103614
-0.00846856
-0.00657183
-0.00472862
-0.00284905
-0.00102942
-0.139235
-0.141807
-0.143992
-0.145818
-0.14731
-0.148486
-0.149358
-0.149938
-0.150238
-0.150271
-0.150048
-0.149582
-0.148885
-0.147969
-0.146845
-0.145524
-0.144017
-0.142336
-0.140491
-0.138494
-0.136353
-0.134081
-0.131687
-0.129182
-0.126575
-0.123877
-0.121096
-0.118242
-0.115324
-0.112351
-0.109332
-0.106275
-0.103187
-0.100076
-0.0969493
-0.0938141
-0.0906765
-0.0875427
-0.0844184
-0.081309
-0.0782194
-0.0751541
-0.0721174
-0.069113
-0.0661443
-0.0632143
-0.0603258
-0.0574809
-0.0546818
-0.0519298
-0.0492265
-0.0465726
-0.043969
-0.0414156
-0.0389132
-0.0364606
-0.0340585
-0.0317046
-0.0294
-0.0271405
-0.0249285
-0.0227572
-0.0206312
-0.0185398
-0.0164919
-0.0144698
-0.0124907
-0.010525
-0.00860487
-0.00667929
-0.00480686
-0.00289657
-0.00104663
-0.135078
-0.137742
-0.14003
-0.141966
-0.143572
-0.144865
-0.145857
-0.146557
-0.146979
-0.147134
-0.147035
-0.146692
-0.146118
-0.145324
-0.144321
-0.14312
-0.141733
-0.14017
-0.138442
-0.136559
-0.134532
-0.132372
-0.130088
-0.12769
-0.125189
-0.122593
-0.119913
-0.117157
-0.114335
-0.111455
-0.108525
-0.105554
-0.10255
-0.0995188
-0.096469
-0.0934069
-0.090339
-0.0872713
-0.0842095
-0.0811589
-0.0781244
-0.0751105
-0.0721215
-0.0691611
-0.0662327
-0.0633394
-0.0604839
-0.0576685
-0.0548953
-0.0521659
-0.0494817
-0.0468436
-0.0442526
-0.0417086
-0.0392125
-0.0367632
-0.0343616
-0.0320053
-0.0296956
-0.0274285
-0.0252064
-0.0230226
-0.020882
-0.0187737
-0.016707
-0.0146642
-0.0126631
-0.0106735
-0.00872859
-0.00677679
-0.00487782
-0.00293966
-0.00106224
-0.13124
-0.133983
-0.136361
-0.138394
-0.140102
-0.1415
-0.142599
-0.14341
-0.143943
-0.14421
-0.144223
-0.143994
-0.143533
-0.142852
-0.141961
-0.140872
-0.139596
-0.138142
-0.136522
-0.134746
-0.132825
-0.130768
-0.128586
-0.126289
-0.123886
-0.121386
-0.1188
-0.116135
-0.113402
-0.110608
-0.107761
-0.104871
-0.101944
-0.0989875
-0.0960091
-0.0930152
-0.0900123
-0.0870062
-0.0840026
-0.0810069
-0.0780238
-0.075058
-0.0721135
-0.0691943
-0.0663036
-0.0634447
-0.0606202
-0.0578325
-0.0550838
-0.0523755
-0.0497094
-0.0470863
-0.0445072
-0.0419723
-0.0394824
-0.0370365
-0.0346356
-0.0322774
-0.0299634
-0.0276895
-0.0254583
-0.0232632
-0.0211093
-0.0189857
-0.0169021
-0.0148405
-0.0128192
-0.010808
-0.00884064
-0.00686508
-0.00494206
-0.00297867
-0.00107637
-0.127711
-0.130521
-0.132977
-0.135096
-0.136894
-0.138386
-0.139582
-0.140491
-0.141126
-0.141496
-0.141612
-0.141486
-0.141129
-0.140552
-0.139765
-0.138779
-0.137604
-0.136252
-0.134732
-0.133056
-0.131232
-0.129271
-0.127184
-0.124979
-0.122667
-0.120256
-0.117756
-0.115176
-0.112525
-0.109811
-0.107042
-0.104226
-0.101371
-0.0984838
-0.0955716
-0.092641
-0.0896983
-0.0867494
-0.0838
-0.0808552
-0.07792
-0.0749988
-0.0720959
-0.0692149
-0.0663595
-0.0635326
-0.0607371
-0.0579753
-0.0552494
-0.0525611
-0.0499119
-0.0473029
-0.0447352
-0.0422089
-0.039725
-0.0372825
-0.0348825
-0.0325229
-0.030205
-0.0279251
-0.0256858
-0.0234807
-0.0213148
-0.0191774
-0.0170784
-0.0149998
-0.0129604
-0.0109296
-0.00894187
-0.00694482
-0.00500008
-0.00301388
-0.00108912
-0.124481
-0.127348
-0.129871
-0.132064
-0.133943
-0.135518
-0.136801
-0.1378
-0.138525
-0.138988
-0.139199
-0.139168
-0.138906
-0.138423
-0.137731
-0.13684
-0.135759
-0.1345
-0.133072
-0.131487
-0.129753
-0.127881
-0.12588
-0.123761
-0.121532
-0.119204
-0.116784
-0.114282
-0.111707
-0.109066
-0.106368
-0.103621