/*--------------------------------*- C++ -*----------------------------------*\
  =========                 |
  \\      /  F ield         | OpenFOAM: The Open Source CFD Toolbox
   \\    /   O peration     | Website:  https://openfoam.org
    \\  /    A nd           | Version:  7
     \\/     M anipulation  |
\*---------------------------------------------------------------------------*/
FoamFile
{
    version     2.0;
    format      ascii;
    class       surfaceScalarField;
    location    "50.001";
    object      phi;
}
// * * * * * * * * * * * * * * * * * * * * * * * * * * * * * * * * * * * * * //

dimensions      [0 3 -1 0 0 0 0];

internalField   nonuniform List<scalar> 
7273
(
-0.00123684
2.7064e-05
-0.00125867
2.31541e-05
-0.00127683
1.95531e-05
-0.0012916
1.61764e-05
-0.00130319
1.29471e-05
-0.00131174
9.79932e-06
-0.00131738
6.7061e-06
-0.00132023
3.67087e-06
-0.00132042
6.65836e-07
-0.00131818
-2.13699e-06
-0.00131356
-4.9521e-06
-0.00130655
-7.81797e-06
-0.00129719
-1.07017e-05
-0.00128549
-1.35892e-05
-0.00127148
-1.64685e-05
-0.00125518
-1.93011e-05
-0.00123662
-2.20936e-05
-0.0012158
-2.48208e-05
-0.00119274
-2.74644e-05
-0.00116745
-3.00039e-05
-0.00113996
-3.24197e-05
-0.00111029
-3.4694e-05
-0.00107846
-3.68109e-05
-0.0010445
-3.87574e-05
-0.00100845
-4.05232e-05
-0.00097035
-4.21042e-05
-0.000930266
-4.34869e-05
-0.000888256
-4.46803e-05
-0.000844383
-4.56939e-05
-0.000798719
-4.65373e-05
-0.000751343
-4.72246e-05
-0.00070234
-4.77726e-05
-0.000651795
-4.82038e-05
-0.000599821
-4.85284e-05
-0.00054652
-4.87778e-05
-0.000491998
-4.89774e-05
-0.000436366
-4.91495e-05
-0.000379733
-4.93205e-05
-0.000322223
-4.95006e-05
-0.000263952
-4.97142e-05
-0.000205037
-4.99775e-05
-0.000145587
-5.03113e-05
-8.57266e-05
-5.07042e-05
-2.55631e-05
-5.11777e-05
3.47933e-05
-5.1726e-05
9.5238e-05
-5.23484e-05
0.000155671
-5.30386e-05
0.000215996
-5.37867e-05
0.000276123
-5.45799e-05
0.000335968
-5.54033e-05
0.000395452
-5.62398e-05
0.000454504
-5.70709e-05
0.000513056
-5.78773e-05
0.000571052
-5.86382e-05
0.000628436
-5.93349e-05
0.000685163
-5.99484e-05
0.000741192
-6.04607e-05
0.00079649
-6.08556e-05
0.000851029
-6.11188e-05
0.000904785
-6.12383e-05
0.000957743
-6.12047e-05
0.00100989
-6.10106e-05
0.00106122
-6.06527e-05
0.00111174
-6.01283e-05
0.00116145
-5.9441e-05
0.00121034
-5.85908e-05
0.00125846
-5.75915e-05
0.00130579
-5.644e-05
0.00135238
-5.51669e-05
0.00139824
-5.37541e-05
0.00144343
-5.22603e-05
0.00148796
-5.0647e-05
0.00153188
-4.89645e-05
0.00157535
-4.73065e-05
0.00161809
-4.52479e-05
0.00166113
-4.41883e-05
-4.07177e-05
-0.00118054
5.17357e-05
-0.00120127
4.38878e-05
-0.00121842
3.66993e-05
-0.00123224
2.99963e-05
-0.00124293
2.3638e-05
-0.00125062
1.74975e-05
-0.00125545
1.15291e-05
-0.00125755
5.77145e-06
-0.00125691
2.79188e-08
-0.00125401
-5.03405e-06
-0.00124871
-1.02578e-05
-0.00124104
-1.54885e-05
-0.00123103
-2.07061e-05
-0.00121872
-2.59032e-05
-0.00120411
-3.10767e-05
-0.00118725
-3.61616e-05
-0.00116815
-4.11967e-05
-0.00114682
-4.61498e-05
-0.00112328
-5.10037e-05
-0.00109755
-5.5736e-05
-0.00106964
-6.03248e-05
-0.00103959
-6.47486e-05
-0.00100741
-6.89879e-05
-0.000973141
-7.30255e-05
-0.000936819
-7.6845e-05
-0.000898483
-8.04408e-05
-0.000858198
-8.37716e-05
-0.000816024
-8.6854e-05
-0.000772026
-8.96927e-05
-0.000726273
-9.22897e-05
-0.000678845
-9.46526e-05
-0.000629827
-9.67911e-05
-0.000579301
-9.87299e-05
-0.00052738
-0.000100449
-0.000474165
-0.000101992
-0.000419764
-0.000103379
-0.000364284
-0.000104629
-0.000307835
-0.00010577
-0.000250538
-0.000106797
-0.000192511
-0.000107741
-0.000133871
-0.000108618
-7.47223e-05
-0.00010946
-1.51909e-05
-0.000110236
4.46094e-05
-0.000110978
0.000104575
-0.000111692
0.000164601
-0.000112374
0.000224586
-0.000113023
0.000284434
-0.000113635
0.000344055
-0.000114201
0.000403364
-0.000114713
0.000462284
-0.00011516
0.000520742
-0.000115529
0.000578673
-0.000115808
0.000636018
-0.000115983
0.000692725
-0.000116042
0.000748749
-0.000115972
0.00080405
-0.000115762
0.000858597
-0.000115402
0.000912363
-0.000114884
0.000965327
-0.000114203
0.00101748
-0.000113353
0.0010688
-0.000112335
0.0011193
-0.000111149
0.00116897
-0.000109798
0.00121782
-0.000108292
0.00126586
-0.000106633
0.00131311
-0.000104845
0.00135959
-0.00010292
0.00140534
-0.000100909
0.00145036
-9.8775e-05
0.00149471
-9.66152e-05
0.00153843
-9.43649e-05
0.00158155
-9.20821e-05
0.00162424
-9.00008e-05
0.00166623
-8.72337e-05
0.0017085
-8.64637e-05
-8.17568e-05
-0.00106892
7.41385e-05
-0.00108755
6.25215e-05
-0.00110276
5.19026e-05
-0.00111476
4.20021e-05
-0.00112374
3.26204e-05
-0.00112982
2.35722e-05
-0.00113308
1.47885e-05
-0.00113359
6.28437e-06
-0.00113173
-1.8322e-06
-0.00112743
-9.33228e-06
-0.0011208
-1.68898e-05
-0.00111186
-2.44315e-05
-0.00110063
-3.19359e-05
-0.00108714
-3.93956e-05
-0.00107139
-4.68235e-05
-0.00105344
-5.41079e-05
-0.00103331
-6.13344e-05
-0.00101099
-6.84608e-05
-0.000986528
-7.547e-05
-0.000959926
-8.2338e-05
-0.000931212
-8.90395e-05
-0.00090041
-9.55501e-05
-0.000867552
-0.000101846
-0.00083267
-0.000107907
-0.000795806
-0.000113709
-0.000756994
-0.000119253
-0.000716306
-0.000124459
-0.000673804
-0.000129356
-0.000629553
-0.000133944
-0.000583623
-0.000138219
-0.000536096
-0.00014218
-0.000487054
-0.000145832
-0.000436579
-0.000149206
-0.000384783
-0.000152245
-0.000331769
-0.000155006
-0.000277642
-0.000157506
-0.000222511
-0.00015976
-0.000166477
-0.000161804
-0.000109665
-0.000163609
-5.21875e-05
-0.000165219
5.85059e-06
-0.000166656
6.42908e-05
-0.0001679
0.000123066
-0.000169011
0.000182057
-0.000169969
0.000241154
-0.000170788
0.000300252
-0.000171473
0.000359253
-0.000172025
0.000418064
-0.000172445
0.000476595
-0.000172732
0.000534765
-0.000172882
0.000592496
-0.000172891
0.00064972
-0.000172753
0.000706374
-0.000172461
0.000762401
-0.00017201
0.000817751
-0.000171393
0.000872383
-0.000170604
0.00092626
-0.000169639
0.000979353
-0.000168495
0.00103164
-0.00016717
0.0010831
-0.000165664
0.00113373
-0.000163981
0.00118352
-0.000162122
0.00123246
-0.000160098
0.00128058
-0.000157913
0.00132787
-0.000155585
0.00137435
-0.000153117
0.00142005
-0.000150544
0.00146499
-0.000147854
0.00150919
-0.000145115
0.0015527
-0.000142279
0.00159555
-0.000139465
0.0016378
-0.000136614
0.00167945
-0.000133733
0.00172073
-0.000131285
0.00176132
-0.000127819
0.00180216
-0.000127304
-0.000121602
-0.000903633
9.33498e-05
-0.000919345
7.82335e-05
-0.000931851
6.44085e-05
-0.000941345
5.14966e-05
-0.000947968
3.92429e-05
-0.000951796
2.74002e-05
-0.000952898
1.58913e-05
-0.000951405
4.79113e-06
-0.000947618
-5.61923e-06
-0.000941481
-1.54697e-05
-0.000933051
-2.53197e-05
-0.00092237
-3.51126e-05
-0.000909466
-4.48394e-05
-0.000894367
-5.44946e-05
-0.000877064
-6.41263e-05
-0.000857636
-7.3536e-05
-0.000836088
-8.28828e-05
-0.000812439
-9.21098e-05
-0.00078671
-0.000101199
-0.000758926
-0.000110123
-0.000729111
-0.000118854
-0.000697297
-0.000127364
-0.000663518
-0.000135626
-0.000627812
-0.000143612
-0.000590223
-0.000151299
-0.00055078
-0.000158696
-0.000509564
-0.000165675
-0.00046664
-0.000172279
-0.000422074
-0.000178511
-0.000375939
-0.000184354
-0.000328317
-0.000189802
-0.000279295
-0.000194854
-0.000228943
-0.000199558
-0.00017738
-0.000203808
-0.000124707
-0.000207678
-7.10243e-05
-0.000211189
-1.64283e-05
-0.000214356
3.89199e-05
-0.000217152
9.49485e-05
-0.000219638
0.000151548
-0.000221818
0.000208599
-0.000223707
0.000265999
-0.0002253
0.000323628
-0.00022664
0.000381382
-0.000227722
0.000439155
-0.000228562
0.000496849
-0.000229166
0.000554367
-0.000229544
0.000611621
-0.000229699
0.000668525
-0.000229636
0.000725001
-0.000229358
0.000780976
-0.000228866
0.000836384
-0.000228162
0.000891168
-0.000227245
0.000945274
-0.000226116
0.000998657
-0.000224776
0.00105128
-0.000223227
0.00110311
-0.00022147
0.00115412
-0.000219508
0.0012043
-0.000217348
0.00125363
-0.000214995
0.00130211
-0.000212457
0.00134973
-0.000209745
0.0013965
-0.000206871
0.00144244
-0.000203847
0.00148755
-0.000200697
0.00153186
-0.000197425
0.00157539
-0.000194076
0.00161817
-0.000190635
0.00166024
-0.000187183
0.00170163
-0.000183672
0.00174239
-0.000180217
0.00178259
-0.000176814
0.00182219
-0.000173337
0.00186149
-0.00017059
0.00190012
-0.000166444
0.00193894
-0.000166122
-0.00015972
-0.000686685
-0.00069893
9.04785e-05
-0.00070825
7.37283e-05
-0.000714791
5.80378e-05
-0.000718649
4.31011e-05
-0.00071987
2.86208e-05
-0.000718539
1.456e-05
-0.000714512
7.64782e-07
-0.000708602
-1.15297e-05
-0.000700327
-2.37447e-05
-0.000689814
-3.5832e-05
-0.000677124
-4.78033e-05
-0.00066229
-5.96732e-05
-0.000645345
-7.14396e-05
-0.000626252
-8.32194e-05
-0.000605121
-9.46665e-05
-0.000581956
-0.000106048
-0.000556777
-0.000117288
-0.000529611
-0.000128365
-0.000500483
-0.00013925
-0.000469426
-0.000149911
-0.000436475
-0.000160316
-0.000401668
-0.000170432
-0.000365054
-0.000180227
-0.000326678
-0.000189674
-0.000286563
-0.000198812
-0.000244798
-0.00020744
-0.000201456
-0.000215621
-0.000156602
-0.000223365
-0.000110309
-0.000230647
-6.26533e-05
-0.000237458
-1.36998e-05
-0.000243808
3.63407e-05
-0.000249598
8.74675e-05
-0.000254935
0.000139587
-0.000259798
0.000192583
-0.000264186
0.000246346
-0.000268118
0.000300776
-0.000271582
0.000355757
-0.000274619
0.000411177
-0.000277238
0.000466926
-0.000279457
0.000522904
-0.000281278
0.000579
-0.000282735
0.000635112
-0.000283834
0.000691142
-0.000284591
0.000746994
-0.000285018
0.000802577
-0.000285128
0.000857809
-0.00028493
0.000912607
-0.000284435
0.000966901
-0.000283651
0.00102062
-0.000282587
0.00107371
-0.00028125
0.00112611
-0.000279647
0.00117778
-0.000277785
0.00122868
-0.000275673
0.00127877
-0.000273318
0.00132803
-0.00027073
0.00137644
-0.000267918
0.00142399
-0.000264894
0.00147066
-0.000261671
0.00151647
-0.000258262
0.00156141
-0.000254684
0.00160549
-0.000250955
0.00164873
-0.000247091
0.00169116
-0.000243121
0.00173279
-0.000239055
0.00177365
-0.00023494
0.00181378
-0.000230769
0.00185322
-0.000226621
0.00189202
-0.000222471
0.00193019
-0.000218391
0.00196787
-0.000214492
0.00200496
-0.000210424
0.00204181
-0.000207444
0.00207803
-0.00020266
0.00211435
-0.000202446
-0.000195646
-0.000428612
9.91006e-05
-0.000434629
7.97456e-05
-0.000438123
6.15317e-05
-0.000439134
4.41117e-05
-0.000437638
2.71247e-05
-0.000433585
1.05069e-05
-0.000427607
-5.2128e-06
-0.000419284
-1.98529e-05
-0.000408785
-3.42437e-05
-0.000396151
-4.8466e-05
-0.000381424
-6.25306e-05
-0.000364642
-7.64545e-05
-0.000345831
-9.02509e-05
-0.000324945
-0.000104105
-0.000302104
-0.000117507
-0.000277322
-0.000130831
-0.000250621
-0.00014399
-0.000222029
-0.000156957
-0.00019158
-0.000169699
-0.000159309
-0.000182182
-0.000125254
-0.00019437
-8.94579e-05
-0.000206228
-5.19602e-05
-0.000217725
-1.27827e-05
-0.000228851
2.78298e-05
-0.000239424
6.99471e-05
-0.000249557
0.000113534
-0.000259208
0.0001585
-0.000268331
0.000204758
-0.000276905
0.000252218
-0.000284918
0.000300783
-0.000292373
0.000350387
-0.000299202
0.000400916
-0.000305463
0.000452265
-0.000311147
0.000504333
-0.000316255
0.000557016
-0.000320801
0.000610216
-0.000324782
0.000663823
-0.000328225
0.00071773
-0.000331145
0.000771834
-0.00033356
0.000826034
-0.000335479
0.000880229
-0.00033693
0.000934323
-0.000337927
0.00098822
-0.000338489
0.00104183
-0.000338632
0.00109508
-0.000338373
0.00114788
-0.000337729
0.00120016
-0.000336715
0.00125185
-0.000335345
0.0013029
-0.000333634
0.00135325
-0.000331596
0.00140284
-0.000329246
0.00145166
-0.000326597
0.00149965
-0.000323664
0.00154679
-0.000320462
0.00159307
-0.000317006
0.00163846
-0.000313314
0.00168297
-0.000309402
0.00172659
-0.00030529
0.00176932
-0.000300998
0.00181119
-0.000296546
0.00185219
-0.00029196
0.00189236
-0.000287259
0.00193172
-0.000282478
0.00197029
-0.000277631
0.00200812
-0.000272767
0.00204525
-0.000267893
0.00208169
-0.000263068
0.00211754
-0.000258321
0.00215278
-0.000253632
0.00218759
-0.000249298
0.00222182
-0.000244651
0.00225587
-0.000241494
0.00228935
-0.00023614
0.00232284
-0.000235937
-0.000229011
-0.000110217
0.000104486
-0.000113319
8.28482e-05
-0.000114141
6.23532e-05
-0.000112667
4.26382e-05
-0.000108843
2.33009e-05
-0.000102554
4.21743e-06
-9.44837e-05
-1.3283e-05
-8.4205e-05
-3.01316e-05
-7.17802e-05
-4.66685e-05
-5.7274e-05
-6.29723e-05
-4.07262e-05
-7.90784e-05
-2.21658e-05
-9.50149e-05
-1.52108e-06
-0.000110896
2.06757e-05
-0.000126302
4.48766e-05
-0.000141708
7.09689e-05
-0.000156923
9.89087e-05
-0.00017193
0.000128652
-0.0001867
0.000160154
-0.000201201
0.000193369
-0.000215398
0.00022825
-0.000229251
0.000264744
-0.000242722
0.000302789
-0.000255771
0.000342318
-0.00026838
0.000383306
-0.000280412
0.000425663
-0.000291915
0.000469306
-0.000302851
0.000514157
-0.000313181
0.000560135
-0.000322883
0.000607151
-0.000331935
0.000655112
-0.000340334
0.00070394
-0.000348031
0.00075353
-0.000355054
0.000803782
-0.000361398
0.000854595
-0.000367068
0.000905866
-0.000372072
0.000957499
-0.000376415
0.00100939
-0.000380116
0.00106144
-0.000383194
0.00111354
-0.000385666
0.00116561
-0.000387548
0.00121755
-0.000388867
0.00126927
-0.000389642
0.00132067
-0.000389895
0.00137169
-0.000389648
0.00142224
-0.000388923
0.00147225
-0.000387741
0.00152166
-0.000386122
0.0015704
-0.000384089
0.00161843
-0.000381663
0.0016657
-0.000378862
0.00171216
-0.000375709
0.00175779
-0.000372225
0.00180255
-0.000368429
0.00184644
-0.000364345
0.00188942
-0.000359994
0.00193151
-0.000355399
0.00197269
-0.000350583
0.00201297
-0.000345572
0.00205237
-0.000340391
0.00209089
-0.000335067
0.00212855
-0.000329628
0.0021654
-0.000324102
0.00220144
-0.000318522
0.00223673
-0.000312917
0.00227128
-0.000307323
0.00230517
-0.000301778
0.0023384
-0.000296299
0.00237108
-0.000291001
0.00240317
-0.000285724
0.00243489
-0.000281015
0.00246605
-0.000275814
0.00249707
-0.000272517
0.00252762
-0.000266684
0.00255808
-0.000266398
-0.000259561
0.000254912
0.0001077
0.000253685
8.40757e-05
0.000254569
6.1469e-05
0.000257632
3.95758e-05
0.000262992
1.79402e-05
0.000270561
-3.35135e-06
0.000279963
-2.26845e-05
0.000291549
-4.17182e-05
0.000305226
-6.03452e-05
0.000320928
-7.86745e-05
0.000338609
-9.67595e-05
0.000358223
-0.000114629
0.000379713
-0.000132385
0.000403142
-0.000149731
0.0004284
-0.000166966
0.000455443
-0.000183966
0.000484235
-0.000200721
0.000514731
-0.000217196
0.000546886
-0.000233356
0.000580649
-0.00024916
0.000615963
-0.000264566
0.000652772
-0.00027953
0.000691008
-0.000294007
0.000730598
-0.000307969
0.000771498
-0.000321312
0.000813623
-0.000334039
0.000856887
-0.000346115
0.000901209
-0.000357504
0.000946503
-0.000368176
0.000992677
-0.00037811
0.00103964
-0.000387294
0.0010873
-0.000395693
0.00113556
-0.000403318
0.00118433
-0.000410166
0.0012335
-0.00041624
0.00128298
-0.00042155
0.00133267
-0.000426103
0.00138247
-0.000429918
0.00143229
-0.000433013
0.00148204
-0.00043541
0.00153161
-0.000437128
0.00158094
-0.000438195
0.00162993
-0.000438635
0.00167851
-0.000438474
0.0017266
-0.000437739
0.00177414
-0.000436458
0.00182105
-0.000434656
0.00186729
-0.00043236
0.0019128
-0.000429599
0.00195754
-0.000426398
0.00200146
-0.000422785
0.00204454
-0.000418787
0.00208674
-0.000414431
0.00212806
-0.000409744
0.00216847
-0.000404756
0.00220797
-0.000399492
0.00224655
-0.000393985
0.00228423
-0.000388261
0.00232101
-0.000382352
0.00235691
-0.000376288
0.00239194
-0.000370102
0.00242614
-0.000363825
0.00245953
-0.000357494
0.00249214
-0.000351137
0.00252403
-0.000344802
0.00255521
-0.000338505
0.00258576
-0.000332328
0.00261568
-0.000326223
0.00264511
-0.000320424
0.00267397
-0.000314585
0.00270251
-0.000309553
0.00273053
-0.000303838
0.00275843
-0.000300418
0.00278597
-0.000294218
0.00281333
-0.000293765
-0.000287171
0.000666647
0.000110853
0.000665419
8.53035e-05
0.000666303
6.05854e-05
0.000669399
3.64791e-05
0.000674925
1.24149e-05
0.000682309
-1.07355e-05
0.000691973
-3.23487e-05
0.000703773
-5.35179e-05
0.000717678
-7.42508e-05
0.000733627
-9.46236e-05
0.000751565
-0.000114697
0.000771441
-0.000134505
0.000793183
-0.000154128
0.000816832
-0.00017338
0.000842279
-0.000192413
0.000869479
-0.000211166
0.000898379
-0.000229621
0.000928925
-0.000247742
0.000961058
-0.00026549
0.000994719
-0.000282821
0.00102984
-0.000299689
0.00106636
-0.000316047
0.0011042
-0.000331846
0.00114328
-0.000347048
0.00118354
-0.000361571
0.00122489
-0.000375391
0.00126724
-0.000388473
0.00131052
-0.000400778
0.00135462
-0.000412278
0.00139946
-0.000422947
0.00144493
-0.000432769
0.00149096
-0.000441717
0.00153743
-0.000449794
0.00158427
-0.000456998
0.00163136
-0.000463332
0.00167861
-0.000468807
0.00172594
-0.000473432
0.00177325
-0.000477228
0.00182045
-0.000480214
0.00186746
-0.000482415
0.00191419
-0.000483855
0.00196056
-0.000484565
0.00200649
-0.000484573
0.00205193
-0.000483909
0.0020968
-0.000482606
0.00214103
-0.000480695
0.00218459
-0.000478209
0.00222741
-0.000475181
0.00226945
-0.000471643
0.00231068
-0.000467629
0.00235107
-0.000463171
0.00239059
-0.000458302
0.00242921
-0.000453057
0.00246694
-0.000447468
0.00250375
-0.00044157
0.00253965
-0.000435396
0.00257465
-0.000428982
0.00260875
-0.00042236
0.00264197
-0.00041557
0.00267432
-0.000408641
0.00270584
-0.000401619
0.00273654
-0.00039453
0.00276647
-0.000387425
0.00279566
-0.000380323
0.00282416
-0.000373297
0.00285198
-0.00036633
0.00287922
-0.000359568
0.00290587
-0.00035287
0.00293206
-0.00034662
0.00295773
-0.000340255
0.00298313
-0.000334947
0.00300806
-0.000328774
0.00303288
-0.000325232
0.00305744
-0.000318783
0.00308178
-0.000318099
-0.000311839
0.00112474
0.000117179
0.00112072
8.93242e-05
0.00111912
6.21906e-05
0.00111999
3.56087e-05
0.00112347
8.93758e-06
0.00112916
-1.64305e-05
0.00113726
-4.04471e-05
0.00114771
-6.3966e-05
0.0011604
-8.69454e-05
0.00117525
-0.000109475
0.00119219
-0.00013163
0.00121113
-0.000153452
0.00123201
-0.000175008
0.00125482
-0.000196184
0.00127945
-0.000217047
0.00130585
-0.000237564
0.00133394
-0.000257714
0.00136366
-0.000277461
0.00139493
-0.000296762
0.00142768
-0.000315573
0.00146184
-0.000333844
0.00149732
-0.000351525
0.00153404
-0.000368564
0.0015719
-0.000384917
0.00161085
-0.000400513
0.00165077
-0.000415317
0.00169159
-0.000429289
0.0017332
-0.000442392
0.00177552
-0.000454594
0.00181844
-0.000465869
0.00186187
-0.0004762
0.00190572
-0.000485566
0.00194989
-0.000493964
0.00199429
-0.000501395
0.00203882
-0.000507863
0.00208339
-0.00051338
0.00212792
-0.000517961
0.00217232
-0.000521625
0.0022165
-0.000524397
0.00226039
-0.000526304
0.00230391
-0.000527375
0.00234699
-0.000527644
0.00238956
-0.000527145
0.00243156
-0.000525912
0.00247294
-0.000523983
0.00251364
-0.000521394
0.00255361
-0.000518183
0.00259282
-0.000514389
0.00263123
-0.000510051
0.00266881
-0.000505206
0.00270553
-0.000499894
0.00274138
-0.000494152
0.00277634
-0.000488022
0.00281042
-0.000481541
0.0028436
-0.000474749
0.00287588
-0.000467684
0.00290729
-0.000460389
0.00293783
-0.000452899
0.00296752
-0.00044526
0.00299638
-0.000437504
0.00302445
-0.000429684
0.00305174
-0.000421823
0.00307831
-0.00041399
0.00310417
-0.000406184
0.00312939
-0.000398517
0.00315398
-0.000390923
0.00317804
-0.000383627
0.00320155
-0.000376379
0.00322466
-0.00036973
0.00324729
-0.000362887
0.00326968
-0.000357338
0.00329169
-0.00035078
0.00331356
-0.000347104
0.0033353
-0.00034052
0.00335677
-0.000339569
-0.000333687
0.00162771
0.00161723
9.98001e-05
0.00160993
6.94951e-05
0.00160569
3.98473e-05
0.00160446
1.01655e-05
0.0016062
-1.81722e-05
0.00161067
-4.49148e-05
0.00161784
-7.11355e-05
0.00162755
-9.66518e-05
0.00163966
-0.000121584
0.00165405
-0.000146027
0.00167064
-0.00017004
0.00168931
-0.000193683
0.00171002
-0.000216889
0.00173265
-0.000239678
0.00175712
-0.000262032
0.00178333
-0.000283929
0.00181121
-0.000305334
0.00184065
-0.000326202
0.00187156
-0.000346488
0.00190386
-0.000366141
0.00193745
-0.000385111
0.00197222
-0.000403342
0.0020081
-0.000420787
0.00204497
-0.000437384
0.00208274
-0.00045309
0.00212132
-0.000467864
0.00216059
-0.00048167
0.00220047
-0.000494475
0.00224086
-0.000506254
0.00228165
-0.00051699
0.00232275
-0.000526667
0.00236407
-0.000535281
0.00240551
-0.000542836
0.00244698
-0.000549338
0.0024884
-0.000554802
0.00252969
-0.000559247
0.00257076
-0.000562695
0.00261154
-0.000565174
0.00265195
-0.000566717
0.00269193
-0.000567356
0.00273142
-0.00056713
0.00277035
-0.000566077
0.00280867
-0.000564237
0.00284634
-0.000561651
0.00288331
-0.000558363
0.00291954
-0.000554415
0.002955
-0.000549851
0.00298967
-0.000544714
0.00302351
-0.000539048
0.00305651
-0.000532898
0.00308867
-0.000526307
0.00311997
-0.00051932
0.00315041
-0.00051198
0.00317999
-0.000504334
0.00320873
-0.000496421
0.00323663
-0.000488291
0.00326371
-0.000479981
0.00329
-0.000471546
0.00331551
-0.000463015
0.00334028
-0.000454453
0.00336433
-0.000445875
0.00338771
-0.000437371
0.00341044
-0.000428918
0.00343259
-0.000420667
0.00345417
-0.000412501
0.00347527
-0.000404728
0.00349588
-0.000396983
0.00351613
-0.000389987
0.00353597
-0.000382724
0.0035556
-0.000376962
0.00357492
-0.000370101
0.00359409
-0.000366279
0.00361323
-0.000359661
0.0036321
-0.000358432
-0.000352936
0.00214949
0.000120837
0.00213291
8.60778e-05
0.00212042
5.23377e-05
0.00211173
1.88521e-05
0.00210677
-1.32117e-05
0.00210522
-4.33608e-05
0.00210697
-7.28917e-05
0.00211174
-0.000101421
0.00211931
-0.000129155
0.00212951
-0.000156224
0.00214219
-0.000182719
0.00215721
-0.000208705
0.00217447
-0.000234145
0.00219383
-0.000259039
0.00221517
-0.000283375
0.00223838
-0.000307135
0.00226333
-0.000330287
0.00228992
-0.000352789
0.00231802
-0.000374594
0.00234754
-0.000395653
0.00237834
-0.000415917
0.00241033
-0.00043533
0.00244339
-0.000453844
0.00247741
-0.000471404
0.00251228
-0.000487963
0.0025479
-0.000503483
0.00258415
-0.000517926
0.00262094
-0.000531265
0.00265817
-0.000543476
0.00269572
-0.000554543
0.00273351
-0.000564455
0.00277144
-0.000573212
0.00280942
-0.000580818
0.00284737
-0.000587286
0.0028852
-0.000592633
0.00292283
-0.000596882
0.0029602
-0.000600062
0.00299723
-0.000602203
0.00303386
-0.000603343
0.00307002
-0.000603521
0.00310567
-0.000602777
0.00314075
-0.000601155
0.00317521
-0.000598702
0.00320902
-0.000595462
0.00324214
-0.000591484
0.00327454
-0.000586816
0.0033062
-0.000581506
0.00333709
-0.000575603
0.0033672
-0.000569154
0.00339651
-0.00056221
0.00342502
-0.000554819
0.00345273
-0.00054703
0.00347964
-0.000538889
0.00350575
-0.000530449
0.00353108
-0.000521752
0.00355565
-0.000512854
0.00357946
-0.000503793
0.00360255
-0.000494631
0.00362493
-0.000485395
0.00364664
-0.000476163
0.0036677
-0.000466937
0.00368816
-0.000457833
0.00370804
-0.000448799
0.00372741
-0.000440033
0.00374626
-0.000431358
0.00376471
-0.000423173
0.00378272
-0.000414993
0.00380043
-0.0004077
0.0038178
-0.000400087
0.00383497
-0.000394138
0.00385193
-0.000387058
0.00386873
-0.000383082
0.00388559
-0.000376514
0.00390217
-0.000375017
-0.000369896
0.00270662
0.000156109
0.00267746
0.000115234
0.00265367
7.61257e-05
0.00263445
3.80797e-05
0.00262125
-2.09609e-08
0.00261129
-3.33982e-05
0.00260548
-6.70803e-05
0.00260339
-9.933e-05
0.00260469
-0.000130454
0.00260909
-0.000160629
0.00261639
-0.000190013
0.00262638
-0.000218698
0.00263891
-0.000246672
0.00265379
-0.000273926
0.00267088
-0.000300458
0.00269
-0.000326262
0.00271103
-0.000351309
0.0027338
-0.000375561
0.00275818
-0.000398975
0.00278403
-0.000421506
0.00281122
-0.000443108
0.00283962
-0.000463729
0.0028691
-0.000483323
0.00289954
-0.00050184
0.00293081
-0.000519237
0.0029628
-0.000535477
0.00299541
-0.000550528
0.0030285
-0.000564363
0.00306199
-0.000576965
0.00309577
-0.000588322
0.00312974
-0.000598427
0.00316382
-0.000607285
0.0031979
-0.000614905
0.00323192
-0.000621304
0.00326579
-0.000626505
0.00329945
-0.000630536
0.00333282
-0.00063343
0.00336584
-0.000635224
0.00339845
-0.000635958
0.00343061
-0.000635678
0.00346226
-0.000634428
0.00349336
-0.000632259
0.00352388
-0.000629219
0.00355378
-0.000625361
0.00358303
-0.000620736
0.00361161
-0.000615396
0.0036395
-0.000609395
0.00366668
-0.000602785
0.00369315
-0.00059562
0.00371889
-0.000587953
0.0037439
-0.000579834
0.0037682
-0.00057132
0.00379177
-0.000562459
0.00381463
-0.000553309
0.00383679
-0.000543912
0.00385826
-0.000534332
0.00387908
-0.000524605
0.00389925
-0.000514802
0.0039188
-0.000504946
0.00393776
-0.000495127
0.00395616
-0.000485336
0.00397404
-0.000475713
0.00399142
-0.000466176
0.00400836
-0.000456971
0.00402486
-0.00044786
0.00404101
-0.000439327
0.0040568
-0.000430786
0.00407235
-0.000423245
0.00408762
-0.000415358
0.00410273
-0.000409245
0.0041177
-0.00040203
0.00413252
-0.000397901
0.00414745
-0.000391448
0.00416214
-0.000389708
-0.000384942
0.00327052
0.000207697
0.00322677
0.000158977
0.00319006
0.000112844
0.00315959
6.85435e-05
0.00313388
2.569e-05
0.00311504
-1.45602e-05
0.0031003
-5.23339e-05
0.00308999
-8.90252e-05
0.00308374
-0.0001242
0.00308114
-0.000158032
0.00308192
-0.000190789
0.00308581
-0.000222595
0.00309261
-0.000253464
0.00310207
-0.000283391
0.003114
-0.000312385
0.00312819
-0.000340455
0.00314446
-0.000367583
0.00316264
-0.000393737
0.00318255
-0.000418883
0.00320403
-0.000442984
0.00322692
-0.000465998
0.00325107
-0.000487881
0.00327634
-0.000508593
0.00330259
-0.000528091
0.00332969
-0.000546338
0.00335751
-0.000563301
0.00338594
-0.000578956
0.00341486
-0.000593282
0.00344416
-0.000606267
0.00347375
-0.000617904
0.00350351
-0.000628194
0.00353338
-0.000637147
0.00356325
-0.000644778
0.00359306
-0.000651111
0.00362272
-0.000656174
0.00365219
-0.00066
0.00368139
-0.000662627
0.00371026
-0.000664099
0.00373876
-0.000664462
0.00376685
-0.000663763
0.00379448
-0.000662056
0.00382161
-0.000659392
0.00384822
-0.000655827
0.00387427
-0.000651416
0.00389975
-0.000646215
0.00392464
-0.000640282
0.00394892
-0.000633672
0.00397257
-0.000626443
0.0039956
-0.000618651
0.00401801
-0.000610354
0.00403978
-0.000601605
0.00406092
-0.000592465
0.00408145
-0.000582983
0.00410136
-0.000573222
0.00412067
-0.000563226
0.0041394
-0.000553064
0.00415757
-0.00054277
0.00417519
-0.000532425
0.00419229
-0.000522043
0.00420889
-0.000511732
0.00422503
-0.000501468
0.00424073
-0.000491412
0.00425601
-0.000481458
0.00427093
-0.000471892
0.0042855
-0.000462427
0.00429978
-0.000453614
0.00431378
-0.000444787
0.00432759
-0.000437048
0.00434119
-0.000428965
0.00435466
-0.000422712
0.00436807
-0.000415442
0.00438134
-0.000411168
0.00439477
-0.00040488
0.004408
-0.000402932
-0.000398495
0.003816
0.00375788
0.000217099
0.003708
0.00016272
0.00366527
0.000111277
0.00362897
6.19916e-05
0.00359956
1.48503e-05
0.0035756
-2.83769e-05
0.0035565
-6.99209e-05
0.00354213
-0.000109834
0.00353201
-0.000147912
0.00352575
-0.000184531
0.00352304
-0.000219882
0.00352359
-0.000254014
0.00352713
-0.000286929
0.0035334
-0.000318655
0.00354217
-0.000349221
0.00355321
-0.000378623
0.00356631
-0.000406841
0.00358128
-0.00043385
0.00359792
-0.000459626
0.00361606
-0.000484138
0.00363553
-0.000507352
0.00365617
-0.000529236
0.00367784
-0.000549756
0.00370039
-0.000568885
0.00372368
-0.000586598
0.00374761
-0.000602879
0.00377204
-0.000617715
0.00379687
-0.000631102
0.00382201
-0.000643041
0.00384736
-0.000653541
0.00387283
-0.000662616
0.00389834
-0.000670291
0.00392382
-0.000676594
0.00394921
-0.00068156
0.00397444
-0.00068523
0.00399946
-0.000687647
0.00402422
-0.000688858
0.00404867
-0.000688915
0.00407278
-0.000687872
0.00409651
-0.000685785
0.00411983
-0.000682712
0.00414271
-0.00067871
0.00416514
-0.000673841
0.00418709
-0.000668163
0.00420854
-0.000661738
0.0042295
-0.000654625
0.00424994
-0.000646885
0.00426986
-0.000638576
0.00428927
-0.000629761
0.00430816
-0.000620495
0.00432653
-0.00061084
0.0043444
-0.000600851
0.00436177
-0.000590591
0.00437865
-0.000580108
0.00439506
-0.000569473
0.00441101
-0.00055872
0.00442653
-0.000547937
0.00444162
-0.000537134
0.00445631
-0.000526429
0.00447063
-0.000515787
0.00448461
-0.00050539
0.00449826
-0.000495108
0.00451163
-0.000485262
0.00452473
-0.000475525
0.00453761
-0.000466497
0.00455029
-0.000457465
0.00456281
-0.000449573
0.00457522
-0.000441372
0.00458751
-0.000435005
0.00459982
-0.000427748
0.004612
-0.000423346
0.00462438
-0.000417257
0.00463658
-0.000415138
-0.000411007
0.00424397
0.000286758
0.00418317
0.00022352
0.00413034
0.000164104
0.00408449
0.000107848
0.00404481
5.45241e-05
0.00401365
2.78756e-06
0.00398651
-4.27795e-05
0.00396445
-8.77827e-05
0.00394713
-0.000130586
0.0039341
-0.000171501
0.00392497
-0.000210754
0.00391941
-0.00024845
0.00391709
-0.00028461
0.00391772
-0.000319286
0.00392103
-0.000352533
0.00392677
-0.000384365
0.0039347
-0.000414775
0.00394461
-0.000443757
0.00395628
-0.000471299
0.00396953
-0.000497384
0.00398417
-0.000521992
0.00400003
-0.000545101
0.00401697
-0.000566691
0.00403483
-0.000586745
0.00405348
-0.00060525
0.0040728
-0.000622197
0.00409267
-0.000637586
0.00411299
-0.000651419
0.00413366
-0.000663708
0.00415458
-0.000674469
0.00417569
-0.000683725
0.00419691
-0.000691506
0.00421816
-0.000697848
0.00423939
-0.000702793
0.00426055
-0.000706386
0.00428158
-0.000708677
0.00430244
-0.000709719
0.00432309
-0.000709567
0.0043435
-0.00070828
0.00436364
-0.000705919
0.00438347
-0.000702544
0.00440298
-0.000698219
0.00442214
-0.000693007
0.00444095
-0.00068697
0.00445939
-0.000680173
0.00447744
-0.000672678
0.0044951
-0.000664548
0.00451237
-0.000655846
0.00452925
-0.000646634
0.00454572
-0.000636973
0.00456181
-0.000626926
0.00457751
-0.000616548
0.00459282
-0.000605909
0.00460777
-0.000595053
0.00462235
-0.000584059
0.00463659
-0.000572957
0.0046505
-0.000561843
0.00466408
-0.000550722
0.00467738
-0.000539722
0.00469039
-0.000528797
0.00470315
-0.000518149
0.00471567
-0.000507628
0.00472798
-0.000497578
0.00474011
-0.000487652
0.00475208
-0.000478471
0.00476393
-0.00046931
0.00477566
-0.00046131
0.00478735
-0.000453062
0.00479896
-0.000446608
0.00481063
-0.000439422
0.0048222
-0.000434913
0.00483398
-0.000429044
0.00484564
-0.000426791
-0.000422942
0.00465935
0.000362697
0.00459206
0.000290807
0.00453271
0.000223451
0.00448062
0.000159936
0.00443539
9.97614e-05
0.00439543