/*--------------------------------*- C++ -*----------------------------------*\
  =========                 |
  \\      /  F ield         | OpenFOAM: The Open Source CFD Toolbox
   \\    /   O peration     | Website:  https://openfoam.org
    \\  /    A nd           | Version:  7
     \\/     M anipulation  |
\*---------------------------------------------------------------------------*/
FoamFile
{
    version     2.0;
    format      ascii;
    class       surfaceScalarField;
    location    "75";
    object      phi;
}
// * * * * * * * * * * * * * * * * * * * * * * * * * * * * * * * * * * * * * //

dimensions      [0 3 -1 0 0 0 0];

internalField   nonuniform List<scalar> 
6868
(
-0.00245846
9.62169e-07
-0.00243593
-7.76963e-07
-0.00241183
-2.63129e-06
-0.00238606
-4.84403e-06
-0.00235857
-7.38109e-06
-0.00232933
-1.02306e-05
-0.00229834
-1.33842e-05
-0.00226557
-1.68331e-05
-0.00223101
-2.0566e-05
-0.00219467
-2.45684e-05
-0.00215653
-2.88225e-05
-0.0021166
-3.3307e-05
-0.00207489
-3.79979e-05
-0.00203143
-4.28669e-05
-0.00198616
-4.78711e-05
-0.00193913
-5.2984e-05
-0.00189036
-5.81678e-05
-0.00183987
-6.33821e-05
-0.00178769
-6.85852e-05
-0.00173383
-7.37349e-05
-0.00167833
-7.8789e-05
-0.00162123
-8.37056e-05
-0.00156256
-8.8444e-05
-0.00150234
-9.29789e-05
-0.00144061
-9.72887e-05
-0.00137745
-0.000101239
-0.00131292
-0.000104857
-0.00124706
-0.000108119
-0.00117992
-0.000110994
-0.00111156
-0.000113457
-0.00104203
-0.000115487
-0.000971392
-0.000117066
-0.0008997
-0.000118182
-0.000827014
-0.000118828
-0.000753395
-0.000119001
-0.000678903
-0.000118703
-0.000603598
-0.000117938
-0.000527531
-0.000116716
-0.000450775
-0.000115045
-0.00037339
-0.000112966
-0.000295441
-0.000110497
-0.000216986
-0.000107657
-0.000138085
-0.000104475
-5.87983e-05
-0.000100983
2.08241e-05
-9.72167e-05
0.000100735
-9.32179e-05
0.000180867
-8.90143e-05
0.000261184
-8.46507e-05
0.000341611
-8.0174e-05
0.000422057
-7.56295e-05
0.000502512
-7.10448e-05
0.000582927
-6.64613e-05
0.000663255
-6.19192e-05
0.000743451
-5.74571e-05
0.000823471
-5.31117e-05
0.000903272
-4.89181e-05
0.000982814
-4.49089e-05
0.00106206
-4.11145e-05
0.00114098
-3.75629e-05
0.00121953
-3.42791e-05
0.00129768
-3.12856e-05
0.00137541
-2.86017e-05
0.00145269
-2.62438e-05
0.00152949
-2.42253e-05
0.00160579
-2.25564e-05
0.00168157
-2.12445e-05
0.00175681
-2.02939e-05
0.00183149
-1.97058e-05
0.00190559
-1.94791e-05
0.00197911
-1.96097e-05
0.00205203
-2.00911e-05
0.00212434
-2.09145e-05
0.00219603
-2.20686e-05
0.00226709
-2.35406e-05
0.00233753
-2.53156e-05
0.00240733
-2.73772e-05
0.0024765
-2.97078e-05
0.00254504
-3.2289e-05
0.00261295
-3.51014e-05
0.00268024
-3.81257e-05
0.00274692
-4.13425e-05
0.00281298
-4.47328e-05
0.00287846
-4.82794e-05
0.00294337
-5.19654e-05
0.00300773
-5.57794e-05
0.00307154
-5.97052e-05
0.00313488
-6.37478e-05
4.10203e-07
0.00319778
-6.78724e-05
4.97305e-06
0.00326033
-7.21967e-05
9.64711e-06
0.00332246
-7.65027e-05
1.4374e-05
-8.12353e-05
1.96779e-05
-0.00197179
-2.22817e-05
-0.00194689
-2.56798e-05
-0.00192018
-2.93427e-05
-0.00189173
-3.3294e-05
-0.00186156
-3.75453e-05
-0.00182969
-4.21005e-05
-0.00179612
-4.69572e-05
-0.00176085
-5.21079e-05
-0.00172387
-5.75406e-05
-0.0016852
-6.32387e-05
-0.00164484
-6.91815e-05
-0.00160281
-7.53442e-05
-0.00155911
-8.16979e-05
-0.00151376
-8.82093e-05
-0.00146679
-9.48418e-05
-0.00141822
-0.000101558
-0.00136807
-0.000108318
-0.00131637
-0.000115077
-0.00126317
-0.000121791
-0.00120849
-0.000128415
-0.00115237
-0.000134904
-0.00109487
-0.000141212
-0.00103602
-0.000147294
-0.00097589
-0.000153105
-0.00091436
-0.000158819
-0.000851682
-0.000163917
-0.000787872
-0.000168666
-0.000722967
-0.000173023
-0.000657016
-0.000176945
-0.000590069
-0.000180404
-0.000522177
-0.000183379
-0.00045339
-0.000185852
-0.00038376
-0.000187812
-0.000313337
-0.000189251
-0.000242172
-0.000190166
-0.000170314
-0.000190561
-9.78106e-05
-0.000190441
-2.4708e-05
-0.000189819
4.89658e-05
-0.000188719
0.000123155
-0.000187156
0.000197808
-0.00018515
0.000272882
-0.000182731
0.000348336
-0.000179929
0.000424131
-0.000176779
0.000500229
-0.000173314
0.000576587
-0.000169575
0.000653171
-0.000165599
0.000729946
-0.000161426
0.000806871
-0.000157099
0.000883902
-0.000152661
0.000961007
-0.000148149
0.00103815
-0.000143605
0.0011153
-0.000139067
0.00119241
-0.000134574
0.00126947
-0.000130163
0.00134642
-0.00012587
0.00142324
-0.000121727
0.00149989
-0.000117766
0.00157634
-0.000114015
0.00165256
-0.000110499
0.00172852
-0.000107242
0.00180418
-0.000104262
0.00187951
-0.000101578
0.00195449
-9.92038e-05
0.00202908
-9.71496e-05
0.00210326
-9.54238e-05
0.002177
-9.40315e-05
0.00225027
-9.29751e-05
0.00232304
-9.22541e-05
0.0023953
-9.18657e-05
0.00246701
-9.18044e-05
0.00253816
-9.20626e-05
0.00260872
-9.26304e-05
0.00267868
-9.34965e-05
0.00274801
-9.46474e-05
0.0028167
-9.60687e-05
0.00288474
-9.77446e-05
0.00295211
-9.96587e-05
0.0030188
-0.000101794
0.00308481
-0.000104133
0.00315012
-0.000106659
0.00321475
-0.000109356
0.00327868
-0.00011221
0.00334192
-0.000115203
0.00340447
-0.000118332
0.00346634
-0.000121575
0.00352755
-0.000124959
0.00358809
-0.000128413
0.00364799
-0.000132099
0.00370722
-0.000135725
-0.000139766
-0.00105719
-0.00102812
-5.47507e-05
-0.000997415
-6.00427e-05
-0.000965082
-6.56274e-05
-0.000931117
-7.15102e-05
-0.000895527
-7.76905e-05
-0.000858322
-8.41626e-05
-0.000819513
-9.09164e-05
-0.000779117
-9.79367e-05
-0.000737152
-0.000105204
-0.000693638
-0.000112695
-0.000648601
-0.000120381
-0.000602068
-0.000128231
-0.00055407
-0.000136207
-0.00050464
-0.000144273
-0.000453813
-0.000152385
-0.000401629
-0.000160501
-0.00034813
-0.000168576
-0.00029336
-0.000176562
-0.000237362
-0.000184413
-0.000180183
-0.000192083
-0.00012187
-0.000199525
-6.2455e-05
-0.000206709
-1.94427e-06
-0.000213615
5.91293e-05
-0.000219892
0.000121194
-0.000225982
0.000184163
-0.000231635
0.000247957
-0.000236818
0.000312517
-0.000241505
0.000377786
-0.000245673
0.000443709
-0.000249303
0.000510237
-0.00025238
0.000577322
-0.000254897
0.000644919
-0.000256848
0.000712986
-0.000258233
0.000781484
-0.000259059
0.000850377
-0.000259335
0.000919633
-0.000259075
0.000989215
-0.000258301
0.00105909
-0.000257033
0.00112924
-0.000255297
0.00119963
-0.000253122
0.00127024
-0.00025054
0.00134105
-0.000247586
0.00141203
-0.000244297
0.00148317
-0.000240711
0.00155444
-0.000236867
0.00162582
-0.000232807
0.00169729
-0.000228573
0.00176884
-0.000224205
0.00184043
-0.000219744
0.00191205
-0.000215229
0.00198369
-0.000210699
0.00205531
-0.000206193
0.00212689
-0.000201747
0.00219842
-0.000197394
0.00226986
-0.000193168
0.00234119
-0.000189098
0.00241238
-0.000185211
0.00248342
-0.000181533
0.00255426
-0.000178085
0.00262488
-0.000174886
0.00269526
-0.000171954
0.00276536
-0.0001693
0.00283514
-0.000166937
0.00290459
-0.000164872
0.00297367
-0.000163109
0.00304235
-0.000161651
0.00311059
-0.000160498
0.00317837
-0.000159647
0.00324566
-0.000159092
0.00331242
-0.000158829
0.00337864
-0.000158846
0.00344428
-0.000159134
0.00350931
-0.000159681
0.00357372
-0.000160474
0.00363747
-0.000161499
0.00370055
-0.000162741
0.00376294
-0.000164185
0.00382463
-0.000165816
0.00388559
-0.000167621
0.00394581
-0.000169583
0.0040053
-0.000171692
0.00406403
-0.000173932
0.004122
-0.000176304
0.0041792
-0.000178778
0.00423563
-0.000181392
0.00429128
-0.000184063
0.00434611
-0.00018692
0.00440013
-0.000189747
-0.000193027
0.000233037
-8.70821e-05
0.000267004
-9.40104e-05
0.000302588
-0.000101212
0.000339765
-0.000108687
0.000378509
-0.000116434
0.000418791
-0.000124445
0.000460582
-0.000132707
0.000503849
-0.000141204
0.000548558
-0.000149913
0.000594672
-0.000158809
0.000642149
-0.000167859
0.000690948
-0.00017703
0.000741023
-0.000186282
0.000792327
-0.000195576
0.000844807
-0.000204866
0.000898412
-0.000214106
0.000953086
-0.00022325
0.00100877
-0.000232248
0.00106541
-0.000241052
0.00112294
-0.000249614
0.00118131
-0.000257887
0.00124043
-0.00026583
0.00130021
-0.000273395
0.00136078
-0.000280471
0.00142193
-0.000287123
0.00148359
-0.000293301
0.00154573
-0.000298958
0.00160829
-0.000304067
0.00167123
-0.000308609
0.00173449
-0.000312565
0.00179803
-0.000315925
0.00186182
-0.000318682
0.00192581
-0.000320837
0.00198997
-0.000322392
0.00205427
-0.000323357
0.00211868
-0.000323745
0.00218317
-0.000323574
0.00224774
-0.000322865
0.00231235
-0.000321646
0.002377
-0.000319944
0.00244167
-0.00031779
0.00250634
-0.000315219
0.00257103
-0.000312268
0.0026357
-0.000308974
0.00270037
-0.000305378
0.00276502
-0.000301519
0.00282966
-0.00029744
0.00289426
-0.00029318
0.00295884
-0.000288781
0.00302338
-0.000284284
0.00308788
-0.000279726
0.00315232
-0.000275147
0.00321671
-0.000270582
0.00328103
-0.000266066
0.00334527
-0.000261633
0.00340941
-0.000257312
0.00347345
-0.000253131
0.00353735
-0.000249118
0.00360111
-0.000245293
0.00366471
-0.000241678
0.00372811
-0.00023829
0.0037913
-0.000235143
0.00385425
-0.000232251
0.00391693
-0.000229621
0.00397932
-0.000227261
0.00404139
-0.000225175
0.0041031
-0.000223364
0.00416443
-0.000221826
0.00422534
-0.00022056
0.00428581
-0.000219561
0.00434581
-0.00021882
0.00440529
-0.000218331
0.00446424
-0.000218083
0.00452262
-0.000218065
0.00458041
-0.000218265
0.00463759
-0.000218671
0.00469412
-0.00021927
0.00474998
-0.000220048
0.00480515
-0.000220992
0.00485963
-0.000222091
0.00491337
-0.000223331
0.00496638
-0.000224703
0.00501864
-0.000226192
0.00507014
-0.0002278
0.00512086
-0.0002295
0.00517078
-0.000231315
0.00521992
-0.000233202
0.00526818
-0.000235182
0.00531565
-0.000237208
-0.000239672
0.00173753
-0.000120122
0.00177227
-0.000128748
0.00180866
-0.000137605
0.00184667
-0.000146693
0.00188624
-0.000156005
0.00192733
-0.000165533
0.00196988
-0.000175262
0.00201385
-0.000185172
0.00205918
-0.00019524
0.00210581
-0.000205438
0.00215368
-0.000215731
0.00220273
-0.000226084
0.00225291
-0.000236456
0.00230414
-0.000246805
0.00235636
-0.000257085
0.0024095
-0.000267248
0.00246349
-0.000277246
0.00251827
-0.00028703
0.00257377
-0.00029655
0.00262992
-0.000305759
0.00268664
-0.000314609
0.00274386
-0.000323055
0.00280152
-0.000331054
0.0028596
-0.000338552
0.00291801
-0.000345532
0.00297668
-0.000351966
0.00303554
-0.000357822
0.00309455
-0.000363079
0.00315366
-0.000367718
0.00321282
-0.000371726
0.003272
-0.000375097
0.00333114
-0.000377829
0.00339023
-0.000379925
0.00344923
-0.000381393
0.00350812
-0.000382246
0.00356688
-0.000382503
0.00362549
-0.000382183
0.00368394
-0.000381315
0.00374222
-0.000379926
0.00380032
-0.000378048
0.00385825
-0.000375717
0.003916
-0.000372968
0.00397357
-0.000369841
0.00403097
-0.000366376
0.00408821
-0.000362612
0.00414528
-0.000358593
0.0042022
-0.000354358
0.00425897
-0.000349951
0.0043156
-0.00034541
0.00437209
-0.000340776
0.00442845
-0.000336086
0.00448468
-0.000331378
0.00454079
-0.000326687
0.00459677
-0.000322045
0.00465262
-0.000317483
0.00470833
-0.000313029
0.00476391
-0.000308711
0.00481934
-0.00030455
0.00487462
-0.000300568
0.00492972
-0.000296783
0.00498464
-0.000293209
0.00503936
-0.00028986
0.00509386
-0.000286746
0.00514811
-0.000283874
0.0052021
-0.000281249
0.00525579
-0.000278873
0.00530918
-0.000276746
0.00536222
-0.000274868
0.00541489
-0.000273233
0.00546717
-0.000271837
0.00551902
-0.000270673
0.00557042
-0.000269731
0.00562134
-0.000269003
0.00567175
-0.000268478
0.00572163
-0.000268146
0.00577096
-0.000267993
0.0058197
-0.00026801
0.00586783
-0.000268184
0.00591534
-0.000268503
0.00596221
-0.000268958
0.00600842
-0.000269536
0.00605394
-0.00027023
0.00609878
-0.000271031
0.00614291
-0.000271928
0.00618633
-0.000272923
0.006229
-0.000273985
0.00627097
-0.000275168
0.00631213
-0.00027634
0.00635257
-0.000277655
-0.00027931
0.00339093
0.00342194
-0.000159751
0.00345478
-0.000170449
0.00348939
-0.000181301
0.00352568
-0.000192298
0.00356358
-0.000203431
0.003603
-0.000214685
0.00364387
-0.000226041
0.0036861
-0.000237474
0.00372962
-0.000248954
0.00377434
-0.000260448
0.00382017
-0.00027192
0.00386705
-0.000283328
0.00391487
-0.000294631
0.00396357
-0.000305782
0.00401306
-0.000316734
0.00406325
-0.000327441
0.00411407
-0.000337853
0.00416545
-0.000347923
0.00421729
-0.000357604
0.00426954
-0.000366851
0.0043221
-0.000375622
0.00437492
-0.000383875
0.00442794
-0.000391572
0.0044811
-0.000398685
0.00453432
-0.000405187
0.00458755
-0.000411056
0.00464074
-0.000416272
0.00469385
-0.000420825
0.00474683
-0.000424705
0.00479964
-0.00042791
0.00485226
-0.000430444
0.00490465
-0.000432315
0.00495679
-0.000433535
0.00500867
-0.000434122
0.00506026
-0.000434099
0.00511157
-0.000433489
0.00516258
-0.000432325
0.00521329
-0.000430637
0.0052637
-0.000428461
0.00531382
-0.000425836
0.00536365
-0.000422799
0.0054132
-0.000419392
0.00546248
-0.000415657
0.00551151
-0.000411635
0.00556028
-0.000407369
0.00560883
-0.0004029
0.00565715
-0.000398271
0.00570526
-0.000393521
0.00575317
-0.000388689
0.0058009
-0.000383812
0.00584844
-0.000378927
0.00589582
-0.000374065
0.00594304
-0.00036926
0.0059901
-0.000364539
0.00603699
-0.000359929
0.00608374
-0.000355454
0.00613032
-0.000351134
0.00617674
-0.000346988
0.00622299
-0.000343033
0.00626906
-0.000339281
0.00631494
-0.000335742
0.00636062
-0.000332424
0.00640608
-0.000329334
0.00645131
-0.000326473
0.00649628
-0.000323843
0.00654097
-0.000321444
0.00658538
-0.000319271
0.00662946
-0.00031732
0.00667321
-0.000315585
0.0067166
-0.000314059
0.0067596
-0.000312733
0.00680219
-0.000311598
0.00684436
-0.000310642
0.00688607
-0.000309857
0.00692731
-0.000309232
0.00696805
-0.000308755
0.00700828
-0.000308415
0.00704799
-0.000308204
0.00708714
-0.000308111
0.00712573
-0.00030813
0.00716375
-0.000308245
0.00720118
-0.000308464
0.007238
-0.000308753
0.00727424
-0.00030916
0.00730983
-0.000309579
0.00734485
-0.00031018
0.00737919
-0.000310684
0.00741297
-0.000311432
-0.000312371
0.0051095
0.00513392
-0.00019487
0.00516036
-0.000207738
0.0051887
-0.000220636
0.00521882
-0.000233556
0.00525062
-0.000246485
0.00528398
-0.000259405
0.0053188
-0.000272292
0.00535497
-0.000285118
0.00539237
-0.000297852
0.00543091
-0.000310459
0.00547048
-0.000322899
0.00551098
-0.000335134
0.00555232
-0.000347119
0.0055944
-0.00035881
0.00563712
-0.000370163
0.0056804
-0.000381133
0.00572415
-0.000391675
0.00576829
-0.000401747
0.00581275
-0.000411307
0.00585744
-0.000420317
0.00590231
-0.000428741
0.00594728
-0.000436547
0.00599231
-0.000443708
0.00603732
-0.000450202
0.00608228
-0.000456012
0.00612713
-0.000461123
0.00617183
-0.000465529
0.00621636
-0.000469227
0.00626067
-0.00047222
0.00630474
-0.000474517
0.00634855
-0.000476129
0.00639209
-0.000477074
0.00643534
-0.000477373
0.0064783
-0.000477054
0.00652095
-0.000476144
0.0065633
-0.000474677
0.00660536
-0.000472689
0.00664711
-0.000470218
0.00668858
-0.000467303
0.00672977
-0.000463986
0.00677068
-0.000460309
0.00681134
-0.000456315
0.00685175
-0.000452047
0.00689193
-0.000447547
0.00693189
-0.000442859
0.00697164
-0.000438022
0.0070112
-0.000433077
0.00705057
-0.000428062
0.00708977
-0.000423014
0.00712881
-0.000417967
0.0071677
-0.000412952
0.00720644
-0.000408
0.00724504
-0.000403138
0.0072835
-0.00039839
0.00732182
-0.000393779
0.00736001
-0.000389323
0.00739806
-0.000385039
0.00743597
-0.000380941
0.00747373
-0.00037704
0.00751133
-0.000373344
0.00754877
-0.000369861
0.00758603
-0.000366593
0.0076231
-0.000363542
0.00765996
-0.000360709
0.00769661
-0.00035809
0.00773302
-0.000355682
0.00776918
-0.00035348
0.00780507
-0.000351476
0.00784068
-0.000349663
0.00787597
-0.000348032
0.00791095
-0.000346574
0.00794559
-0.000345279
0.00797987
-0.000344137
0.00801377
-0.000343137
0.00804729
-0.000342272
0.0080804
-0.000341528
0.0081131
-0.000340902
0.00814537
-0.000340377
0.0081772
-0.00033996
0.00820857
-0.000339619
0.0082395
-0.00033939
0.00826995
-0.000339201
0.00829995
-0.000339159
0.00832945
-0.000339081
0.00835851
-0.000339244
0.00838708
-0.000339249
0.00841523
-0.000339588
-0.000339962
0.00672105
-0.000207008
0.00673548
-0.00022217
0.00675205
-0.000237209
0.00677062
-0.000252123
0.00679104
-0.000266904
0.00681317
-0.000281539
0.00683689
-0.000296008
0.00686206
-0.000310285
0.00688855
-0.000324345
0.00691625
-0.000338156
0.00694503
-0.000351685
0.00697479
-0.000364894
0.00700542
-0.000377747
0.00703682
-0.000390205
0.00706888
-0.000402226
0.00710152
-0.000413773
0.00713465
-0.000424807
0.00716819
-0.000435289
0.00720207
-0.000445184
0.00723621
-0.000454461
0.00727056
-0.000463088
0.00730505
-0.000471041
0.00733964
-0.000478296
0.00737428
-0.000484838
0.00740892
-0.000490653
0.00744353
-0.000495734
0.00747808
-0.000500078
0.00751254
-0.000503688
0.00754689
-0.000506571
0.00758111
-0.000508738
0.00761519
-0.000510207
0.00764912
-0.000510998
0.00768288
-0.000511137
0.00771648
-0.000510652
0.00774991
-0.000509574
0.00778317
-0.00050794
0.00781627
-0.000505788
0.00784921
-0.000503156
0.00788199
-0.000500087
0.00791463
-0.000496622
0.00794713
-0.000492805
0.00797949
-0.000488679
0.00801173
-0.000484288
0.00804386
-0.000479673
0.00807588
-0.000474878
0.0081078
-0.000469942
0.00813963
-0.000464906
0.00817137
-0.000459806
0.00820303
-0.000454679
0.00823462
-0.000449557
0.00826614
-0.000444471
0.00829759
-0.000439451
0.00832898
-0.000434521
0.00836029
-0.000429706
0.00839154
-0.000425026
0.00842271
-0.000420498
0.00845381
-0.000416137
0.00848483
-0.000411957
0.00851576
-0.000407968
0.00854659
-0.000404176
0.00857732
-0.000400586
0.00860792
-0.000397202
0.00863841
-0.000394025
0.00866875
-0.000391052
0.00869894
-0.000388282
0.00872897
-0.000385709
0.00875882
-0.000383328
0.00878847
-0.000381133
0.00881792
-0.000379114
0.00884716
-0.000377264
0.00887616
-0.000375573
0.00890491
-0.000374032
0.00893341
-0.000372633
0.00896163
-0.000371363
0.00898958
-0.000370217
0.00901723
-0.000369182
0.00904458
-0.000368257
0.00907163
-0.000367421
0.00909836
-0.000366692
0.00912477
-0.000366025
0.00915085
-0.000365478
0.0091766
-0.00036495
0.00920204
-0.000364592
0.00922712
-0.000364169
0.00925191
-0.000364027
0.00927636
-0.000363699
0.00930055
-0.000363778
-0.000363768
0.00806828
0.00807003
-0.000223919
0.00807399
-0.000241173
0.00808001
-0.000258144
0.00808794
-0.00027483
0.00809762
-0.000291224
0.00810893
-0.000307313
0.00812172
-0.00032308
0.00813588
-0.000338502
0.00815128
-0.000353557
0.00816781
-0.000368216
0.00818537
-0.00038245
0.00820385
-0.000396226
0.00822316
-0.000409513
0.00824321
-0.000422277
0.00826392
-0.000434485
0.00828521
-0.000446104
0.00830703
-0.000457104
0.0083293
-0.000467454
0.00835197
-0.00047713
0.00837499
-0.000486106
0.00839831
-0.000494363
0.0084219
-0.000501884
0.00844572
-0.000508657
0.00846974
-0.000514674
0.00849394
-0.000519932
0.00851829
-0.000524432
0.00854278
-0.00052818
0.0085674
-0.000531186
0.00859212
-0.000533465
0.00861695
-0.000535035
0.00864187
-0.000535919
0.00866688
-0.000536145
0.00869197
-0.000535743
0.00871714
-0.000534745
0.00874239
-0.00053319
0.00876772
-0.000531114
0.00879312
-0.000528559
0.0088186
-0.000525567
0.00884416
-0.000522178
0.00886979
-0.000518438
0.0088955
-0.000514389
0.00892129
-0.000510073
0.00894715
-0.000505534
0.00897308
-0.000500813
0.00899909
-0.00049595
0.00902517
-0.000490983
0.00905131
-0.000485951
0.00907752
-0.000480886
0.00910379
-0.000475823
0.0091301
-0.000470791
0.00915647
-0.000465818
0.00918288
-0.000460929
0.00920932
-0.000456148
0.00923579
-0.000451493
0.00926227
-0.000446981
0.00928876
-0.000442628
0.00931525
-0.000438446
0.00934173
-0.000434443
0.00936818
-0.000430627
0.00939459
-0.000427002
0.00942096
-0.00042357
0.00944727
-0.000420334
0.00947351
-0.00041729
0.00949966
-0.000414437
0.00952572
-0.000411769
0.00955168
-0.000409281
0.00957751
-0.000406966
0.00960321
-0.000404818
0.00962878
-0.000402827
0.00965419
-0.000400985
0.00967944
-0.000399283
0.00970452
-0.000397713
0.00972942
-0.000396265
0.00975414
-0.000394934
0.00977866
-0.000393704
0.00980299
-0.000392582
0.00982711
-0.000391541
0.00985102
-0.000390608
0.00987472
-0.000389726
0.00989822
-0.000388974
0.00992149
-0.000388226
0.00994457
-0.000387666
0.00996742
-0.000387026
0.00999009
-0.000386689
0.0100125
-0.000386147
0.0100348
-0.000386061
-0.000385864
0.0090364
-0.000214854
0.00902943
-0.000234205
0.00902443
-0.000253143
0.00902127
-0.000271669
0.00901982
-0.000289781
0.00901998
-0.00030747
0.00902162
-0.000324725
0.00902465
-0.00034153
0.00902896
-0.000357867
0.00903446
-0.000373714
0.00904106
-0.000389048
0.00904867
-0.000403843
0.00905723
-0.000418073
0.00906667
-0.000431711
0.00907691
-0.00044473
0.00908791
-0.000457103
0.00909961
-0.000468805
0.00911197
-0.000479812
0.00912494
-0.000490103
0.0091385
-0.000499659
0.0091526
-0.000508464
0.00916722
-0.000516506
0.00918234
-0.000523776
0.00919793
-0.000530269
0.00921399
-0.000535986
0.00923048
-0.000540929
0.00924741
-0.000545107
0.00926476
-0.000548532
0.00928251
-0.00055122
0.00930067
-0.00055319
0.00931922
-0.000554467
0.00933815
-0.000555078
0.00935746
-0.000555054
0.00937714
-0.000554428
0.00939719
-0.000553236
0.00941759
-0.000551515
0.00943834
-0.000549305
0.00945942
-0.000546648
0.00948082
-0.000543584
0.00950254
-0.000540158
0.00952456
-0.00053641
0.00954688
-0.000532385
0.00956946
-0.000528123
0.00959232
-0.000523665
0.00961542
-0.000519052
0.00963876
-0.000514322
0.00966232
-0.00050951
0.00968608
-0.000504653
0.00971004
-0.000499781
0.00973417
-0.000494925
0.00975847
-0.000490113
0.00978291
-0.000485369
0.00980748
-0.000480717
0.00983216
-0.000476175
0.00985694
-0.000471762
0.0098818
-0.000467492
0.00990674
-0.000463377
0.00993172
-0.000459426
0.00995674
-0.000455647
0.00998178
-0.000452046
0.0100068
-0.000448624
0.0100319
-0.000445382
0.0100569
-0.000442321
0.0100819
-0.000439437
0.0101069
-0.000436727
0.0101318
-0.000434185
0.0101566
-0.000431806
0.0101814
-0.000429584
0.0102061
-0.000427509
0.0102307
-0.000425575
0.0102551
-0.000423773
0.0102795
-0.000422098
0.0103038
-0.000420536
0.010328
-0.000419088
0.010352
-0.000417736
0.0103759
-0.00041649
0.0103997
-0.00041532
0.0104233
-0.000414259
0.0104468
-0.000413246
0.0104702
-0.000412366
0.0104935
-0.000411489
0.0105166
-0.000410801
0.0105397
-0.000410041
0.0105625
-0.000409579
0.0105853
-0.000408934
0.010608
-0.000408735
-0.000408275
0.0146956
-0.000185338
0.0146675
-0.000206063
0.0146406
-0.000226277
0.0146149
-0.000245978
0.0145903
-0.000265163
0.0145666
-0.000283824
0.0145439
-0.000301952
0.0145219
-0.000319535
0.0145006
-0.000336558
0.0144799
-0.000353005
0.0144597
-0.000368858
0.0144399
-0.000384097
0.0144206
-0.000398703
0.0144015
-0.000412656
0.0143827
-0.000425936
0.0143641
-0.000438525
0.0143457
-0.000450404
0.0143275
-0.000461558
0.0143093
-0.000471973
0.0142913
-0.000481637
0.0142734
-0.000490543
0.0142556
-0.000498683
0.0142379
-0.000506056
0.0142203
-0.000512662
0.0142028
-0.000518507
0.0141854
-0.000523597
0.0141683
-0.000527944
0.0141513
-0.000531564
0.0141346
-0.000534475
0.0141181
-0.000536697
0.0141019
-0.000538257
0.014086
-0.000539181
0.0140704
-0.0005395
0.0140552
-0.000539245
0.0140404
-0.000538453
0.0140261
-0.000537158
0.0140122
-0.000535397
0.0139987
-0.00053321
0.0139858
-0.000530636
0.0139733
-0.000527713
0.0139614
-0.000524482
0.01395
-0.000520981
0.0139391
-0.000517249
0.0139288
-0.000513324
0.013919
-0.000509241
0.0139097
-0.000505037
0.0139009
-0.000500743
0.0138927
-0.000496393
0.0138849
-0.000492016
0.0138776
-0.000487639
0.0138708
-0.000483287
0.0138644
-0.000478984
0.0138585
-0.00047475
0.0138529
-0.000470604
0.0138477
-0.000466562
0.0138428
-0.000462637
0.0138383
-0.000458841
0.013834
-0.000455183
0.0138301
-0.00045167
0.0138263
-0.000448308
0.0138228
-0.000445099
0.0138195
-0.000442046
0.0138163
-0.000439147
0.0138133
-0.000436403
0.0138103
-0.000433809
0.0138075
-0.000431362
0.0138048
-0.000429058
0.0138021
-0.000426892
0.0137994
-0.000424856
0.0137968
-0.000422947
0.0137942
-0.000421156
0.0137916
-0.000419479
0.0137889
-0.000417905
0.0137863
-0.000416437
0.0137836
-0.000415057
0.0137809
-0.000413778
0.0137781
-0.00041257
0.0137754
-0.000411468
0.0137725
-0.000410414
0.0137696
-0.000409489
0.0137667
-0.000408573
0.0137638
-0.000407837
0.0137608
-0.000407047
0.0137577
-0.00040653
0.0137546
-0.000405862
0.0137515
-0.000405593
-0.000405072
0.0157399
-0.000154303
0.0157092
-0.000175381
0.0156789
-0.000195922
0.0156488
-0.00021592
0.015619
-0.00023537
0.0155895
-0.000254265
0.0155601
-0.000272595
0.0155309
-0.00029035
0.0155019
-0.000307515
0.015473
-0.000324078
0.0154441
-0.000340022
0.0154154
-0.000355333
0.0153866
-0.000369995
0.015358
-0.000383992
0.0153294
-0.000397309
0.0153008
-0.000409932
0.0152722
-0.000421848
0.0152437
-0.000433046
0.0152152
-0.000443517
0.0151869
-0.000453254
0.0151586
-0.000462252
0.0151304
-0.00047051
0.0151024
-0.000478027
0.0150745
-0.000484809
0.0150469
-0.000490861
0.0150195
-0.000496193
0.0149923
-0.000500818
0.0149655
-0.000504752
0.0149391
-0.000508014
0.014913
-0.000510623
0.0148873
-0.000512605
0.0148621
-0.000513986
0.0148374
-0.000514793
0.0148132
-0.000515058
0.0147896
-0.000514812
0.0147665
-0.000514087
0.0147441
-0.00051292
0.0147222
-0.000511344
0.014701
-0.000509395
0.0146803
-0.000507109
0.0146604
-0.000504522
0.0146411
-0.00050167
0.0146224
-0.000498586
0.0146044
-0.000495307
0.014587
-0.000491864
0.0145703
-0.000488289
0.0145541
-0.000484613
0.0145386
-0.000480865
0.0145237
-0.000477071
0.0145093
-0.000473258
0.0144954
-0.000469447
0.0144821
-0.000465662
0.0144693
-0.00046192
0.0144569
-0.000458239
0.014445
-0.000454634
0.0144335
-0.000451119
0.0144223
-0.000447705
0.0144116
-0.0004444
0.0144011
-0.000441212
0.0143909
-0.000438147
0.0143811
-0.000435209
0.0143714
-0.000432399
0.014362
-0.00042972
0.0143527
-0.000427171
0.0143437
-0.000424751
0.0143348
-0.000422457
0.014326
-0.000420286
0.0143174
-0.000418235
0.0143088
-0.000416299
0.0143003
-0.000414475
0.0142919
-0.000412757
0.0142836
-0.000411141
0.0142753
-0.000409621
0.0142671
-0.000408197
0.0142589
-0.000406856
0.0142507
-0.00040561
0.0142426
-0.000404433
0.0142344
-0.000403356
0.0142264
-0.00040233
0.0142183
-0.000401424
0.0142103
-0.000400538
0.0142022
-0.000399817
0.0141943
-0.000399062
0.0141863
-0.000398551
0.0141783
-0.000397922
0.0141704
-0.000397656
-0.000397219
0.0162132
-0.000128131
0.0161867
-0.000148844
0.0161598
-0.000169019
0.0161325
-0.000188655
0.0161049
-0.000207749
0.0160769
-0.000226291
0.0160486
-0.000244274
0.0160199
-0.000261687
0.0159909
-0.000278519
0.0159616
-0.000294757
0.015932
-0.000310388
0.015902
-0.000325401
0.0158718
-0.000339781
0.0158414
-0.000353517
0.0158106
-0.000366596
0.0157797
-0.000379009
0.0157486
-0.000390744
0.0157174
-0.000401794
0.015686
-0.000412153
0.0156546
-0.000421817
0.0156231
-0.000430782
0.0155916
-0.000439049
0.0155602
-0.00044662
0.0155289
-0.0004535
0.0154977
-0.000459697
0.0154668
-0.000465221
0.015436
-0.000470084
0.0154056
-0.0004743
0.0153755
-0.000477889
0.0153457
-0.000480869
0.0153164
-0.000483262
0.0152875
-0.000485092
0.0152591
-0.000486384
0.0152312
-0.000487167
0.0152038
-0.000487469
0.0151771
-0.000487319
0.0151509
-0.000486749
0.0151253
-0.000485789
0.0151004
-0.000484472
0.0150761
-0.000482829
0.0150525
-0.000480894
0.0150295
-0.000478696
0.0150072
-0.000476269
0.0149855
-0.000473641
0.0149645
-0.000470844
0.0149441
-0.000467906
0.0149244
-0.000464853
0.0149052
-0.000461713
0.0148867
-0.00045851
0.0148687
-0.000455267
0.0148512
-0.000452005
0.0148343
-0.000448744
0.0148179
-0.000445503
0.014802
-0.000442297
0.0147865
-0.00043914
0.0147714
-0.000436046
0.0147567
-0.000433026
0.0147424
-0.000430088
0.0147284
-0.00042724
0.0147148
-0.000424489
0.0147014
-0.000421839
0.0146883
-0.000419293
0.0146754
-0.000416854
0.0146628
-0.000414523
0.0146503
-0.000412299
0.0146381
-0.000410183
0.0146259
-0.000408172
0.014614
-0.000406264
0.0146021
-0.000404456
0.0145904
-0.000402748
0.0145788
-0.000401132
0.0145672
-0.00039961
0.0145558
-0.000398175
0.0145444
-0.000396828
0.0145331
-0.000395559
0.0145219
-0.000394378
0.0145107
-0.000393265
0.0144996
-0.000392246
0.0144886
-0.00039128
0.0144776
-0.000390426
0.0144666
-0.0003896
0.0144557
-0.000388922
0.0144449
-0.000388231
0.0144341
-0.000387754
0.0144234
-0.000387199
0.0144127
-0.000386955
-0.000386542
0.0163658
-0.000107021
0.016344
-0.000126999
0.0163214
-0.000146463
0.0162982
-0.000165407
0.0162743
-0.000183827
0.0162497
-0.000201714
0.0162245
-0.000219061
0.0161986
-0.000235859
0.0161722
-0.000252099
0.0161452
-0.000267769
0.0161177
-0.00028286
0.0160897
-0.00029736
0.0160611
-0.00031126
0.0160322
-0.00032455
0.0160028
-0.00033722
0.0159731
-0.000349261
0.015943
-0.000360667
0.0159126
-0.000371432
0.015882
-0.000381551
0.0158512
-0.000391021
0.0158203
-0.000399842
0.0157892
-0.000408015
0.0157582
-0.000415543
0.0157271
-0.00042243
0.0156961
-0.000428685
0.0156652
-0.000434317
0.0156344
-0.000439338
0.0156039
-0.000443761
0.0155736
-0.000447603
0.0155436
-0.000450881
0.015514
-0.000453614
0.0154847
-0.000455825
0.0154559
-0.000457535
0.0154275
-0.00045877
0.0153995
-0.000459554
0.0153721
-0.000459914
0.0153453
-0.000459877
0.0153189
-0.000459472
0.0152932
-0.000458725
0.015268
-0.000457665
0.0152435
-0.000456322
0.0152195
-0.000454722
0.0151961
-0.000452894
0.0151733
-0.000450866
0.0151512
-0.000448662
0.0151296
-0.000446311
0.0151085
-0.000443835
0.0150881
-0.000441258
0.0150682
-0.000438604
0.0150488
-0.000435892
0.0150299
-0.000433143
0.0150116
-0.000430374
0.0149937
-0.000427603
0.0149762
-0.000424844
0.0149592
-0.000422112
0.0149426
-0.000419418
0.0149263
-0.000416773
0.0149104
-0.000414187
0.0148948
-0.000411667
0.0148796
-0.00040922
0.0148646
-0.000406852
0.0148499
-0.000404565
0.0148354
-0.000402365
0.0148211
-0.000400252
0.014807
-0.000398228
0.0147931
-0.000396293
0.0147794
-0.000394447
0.0147658
-0.00039269
0.0147524
-0.00039102
0.0147391
-0.000389436
0.0147259
-0.000387935
0.0147128
-0.000386517
0.0146998
-0.000385177
0.0146869
-0.000383919
0.0146741
-0.000382734
0.0146613
-0.00038163
0.0146486
-0.000380592
0.014636
-0.000379641
0.0146235
-0.000378745
0.014611
-0.000377951
0.0145986
-0.000377191
0.0145863
-0.000376566
0.014574
-0.000375939
0.0145617
-0.000375503
0.0145495
-0.000375008
0.0145374
-0.000374784
-0.000374438
0.0163709
-8.95277e-05