/*--------------------------------*- C++ -*----------------------------------*\
  =========                 |
  \\      /  F ield         | OpenFOAM: The Open Source CFD Toolbox
   \\    /   O peration     | Website:  https://openfoam.org
    \\  /    A nd           | Version:  7
     \\/     M anipulation  |
\*---------------------------------------------------------------------------*/
FoamFile
{
    version     2.0;
    format      ascii;
    class       volVectorField;
    location    "75";
    object      U;
}
// * * * * * * * * * * * * * * * * * * * * * * * * * * * * * * * * * * * * * //

dimensions      [0 1 -1 0 0 0 0];

internalField   nonuniform List<vector> 
3500
(
(-0.215073 0.00182585 1.73374e-20)
(-0.213359 0.0017028 -1.80281e-20)
(-0.211499 0.00153503 7.59026e-21)
(-0.209492 0.0013247 9.31264e-21)
(-0.207333 0.00107262 -1.67169e-20)
(-0.205019 0.000779146 1.95249e-20)
(-0.202545 0.000444743 -1.90928e-20)
(-0.199913 7.01856e-05 2.27329e-20)
(-0.197118 -0.000343295 -1.03605e-20)
(-0.194162 -0.000793942 -4.00987e-21)
(-0.191043 -0.00127945 7.21663e-22)
(-0.187761 -0.00179697 6.06569e-21)
(-0.184316 -0.00234324 3.52729e-21)
(-0.18071 -0.00291468 8.14541e-23)
(-0.17694 -0.00350781 -9.33512e-21)
(-0.173007 -0.00411682 -1.05788e-21)
(-0.168913 -0.00473666 -2.98858e-21)
(-0.164659 -0.00536198 6.30371e-21)
(-0.160248 -0.00598722 -5.37553e-22)
(-0.155681 -0.00660667 6.76107e-21)
(-0.15096 -0.00721464 -1.29358e-20)
(-0.146088 -0.00780548 6.53937e-21)
(-0.141068 -0.00837358 5.04025e-22)
(-0.135903 -0.00891392 -1.10786e-20)
(-0.130593 -0.00942275 5.32671e-21)
(-0.125144 -0.00988906 2.41799e-21)
(-0.119563 -0.0103121 1.38671e-21)
(-0.113853 -0.0106878 -3.25801e-21)
(-0.108019 -0.0110121 1.91691e-22)
(-0.102064 -0.0112814 1.01716e-20)
(-0.0959933 -0.011493 -1.48399e-20)
(-0.0898113 -0.0116445 1.02225e-20)
(-0.083523 -0.0117344 1.39446e-21)
(-0.0771332 -0.0117616 -1.40576e-21)
(-0.0706471 -0.0117257 -1.06682e-21)
(-0.0640697 -0.0116269 1.16015e-21)
(-0.0574061 -0.0114661 -2.20323e-21)
(-0.0506609 -0.0112443 -2.07025e-22)
(-0.0438392 -0.0109621 -5.48051e-22)
(-0.0369467 -0.0106271 2.81912e-22)
(-0.0299891 -0.0102408 1.49071e-21)
(-0.0229714 -0.00980598 -2.79984e-21)
(-0.0158986 -0.00932676 -7.43084e-22)
(-0.00877562 -0.00880764 2.30354e-21)
(-0.00160675 -0.00825302 1.60755e-21)
(0.00560139 -0.00766892 -1.91937e-21)
(0.0128442 -0.00706095 7.89035e-22)
(0.0201195 -0.00643385 -2.09667e-21)
(0.0274217 -0.0057925 1.38066e-21)
(0.0347431 -0.00514243 1.02962e-21)
(0.0420789 -0.00449074 -7.81401e-22)
(0.0494269 -0.00384301 3.07896e-22)
(0.0567828 -0.00320465 5.2575e-22)
(0.0641424 -0.0025809 -1.6497e-21)
(0.0715015 -0.00197682 1.74344e-21)
(0.0788563 -0.00139722 -1.49828e-21)
(0.0862031 -0.000846589 1.35871e-21)
(0.0935383 -0.000329136 -1.01513e-21)
(0.100859 0.000151308 2.31361e-23)
(0.108161 0.000591288 3.06897e-22)
(0.115441 0.000987745 -1.94165e-22)
(0.122698 0.00133804 -1.3074e-22)
(0.129928 0.00163995 5.89502e-23)
(0.137129 0.0018917 -4.60229e-22)
(0.144298 0.00209193 1.23567e-22)
(0.151433 0.00223973 -1.71565e-23)
(0.158533 0.0023346 4.59304e-22)
(0.165594 0.00237646 -1.93597e-22)
(0.172617 0.00236565 -3.94715e-22)
(0.179598 0.00230287 1.43796e-22)
(0.186538 0.0021892 9.85286e-23)
(0.193434 0.00202603 -1.3768e-22)
(0.200285 0.0018151 1.22564e-22)
(0.207091 0.00155838 8.61588e-23)
(0.213852 0.00125813 -1.25159e-22)
(0.220565 0.000916801 -2.67876e-23)
(0.227232 0.00053703 9.14227e-23)
(0.233852 0.000121599 -7.09336e-23)
(0.240424 -0.000326614 3.7211e-23)
(0.24695 -0.000804671 -1.7939e-23)
(0.253429 -0.00130964 -2.71002e-24)
(0.259863 -0.00183862 8.38881e-24)
(0.266253 -0.00238889 -4.22563e-24)
(0.272599 -0.00295787 -1.06205e-23)
(0.278904 -0.00354355 4.40611e-24)
(0.285166 -0.00414404 -1.96202e-24)
(0.291399 -0.00476 -1.69476e-24)
(0.297568 -0.00538858 1.31611e-25)
(0.303868 -0.0060378 -4.26339e-25)
(0.309416 -0.00669049 1.96443e-25)
(0.318979 -0.00740817 6.45393e-25)
(-0.173401 -0.00109084 -6.65902e-21)
(-0.171392 -0.00146566 5.05419e-20)
(-0.169225 -0.0018855 2.5596e-20)
(-0.166897 -0.00234832 -2.90283e-20)
(-0.164411 -0.00285411 4.74127e-20)
(-0.161769 -0.00340276 -5.28623e-20)
(-0.15897 -0.00399381 5.15255e-20)
(-0.156016 -0.00462627 -3.73328e-20)
(-0.152905 -0.00529863 -2.80942e-20)
(-0.149639 -0.00600875 -6.06962e-21)
(-0.146218 -0.00675397 -1.82925e-21)
(-0.142642 -0.00753101 3.54058e-20)
(-0.138913 -0.00833598 1.58923e-20)
(-0.135032 -0.00916433 -3.47037e-20)
(-0.131001 -0.0100105 2.99886e-20)
(-0.126822 -0.0108701 3.07161e-21)
(-0.122498 -0.0117376 -2.67648e-20)
(-0.11803 -0.0126069 2.42112e-21)
(-0.113422 -0.013472 9.2037e-21)
(-0.108677 -0.0143266 3.80265e-21)
(-0.103798 -0.0151643 -1.23043e-22)
(-0.0987895 -0.015979 -6.64087e-21)
(-0.0936551 -0.0167645 -1.75411e-20)
(-0.088402 -0.0175175 9.89835e-21)
(-0.0830222 -0.0182519 -4.97946e-21)
(-0.0775241 -0.0189109 1.25982e-20)
(-0.0719224 -0.0195198 -3.27523e-22)
(-0.0662167 -0.0200757 6.16108e-21)
(-0.0604104 -0.0205731 -1.80924e-20)
(-0.0545081 -0.0210082 1.0367e-20)
(-0.0485139 -0.0213778 4.1002e-21)
(-0.0424322 -0.0216796 -1.5834e-20)
(-0.0362669 -0.0219118 2.5956e-20)
(-0.0300224 -0.0220733 -1.2465e-20)
(-0.0237027 -0.0221637 -8.78277e-21)
(-0.0173116 -0.0221833 1.62784e-20)
(-0.0108528 -0.0221329 -3.05789e-21)
(-0.00432868 -0.022014 -3.39811e-21)
(0.0022552 -0.0218293 -9.69821e-22)
(0.00889351 -0.0215819 5.67017e-21)
(0.0155849 -0.0212748 4.48836e-21)
(0.0223266 -0.0209118 -1.74232e-20)
(0.0291146 -0.020497 2.71493e-21)
(0.0359456 -0.0200351 9.35259e-22)
(0.0428166 -0.0195312 -1.83552e-21)
(0.0497242 -0.0189911 9.34554e-21)
(0.0566654 -0.0184193 1.36354e-21)
(0.0636376 -0.0178222 -2.83719e-21)
(0.0706376 -0.0172063 -3.59486e-21)
(0.0776618 -0.0165774 5.3432e-21)
(0.084707 -0.0159403 -2.33486e-21)
(0.0917705 -0.0153006 6.07082e-21)
(0.0988493 -0.0146641 -5.58058e-21)
(0.10594 -0.0140364 -4.15153e-23)
(0.113041 -0.0134226 1.4417e-21)
(0.120148 -0.012828 -1.07849e-21)
(0.127258 -0.012257 -1.26717e-22)
(0.134368 -0.0117142 1.02335e-21)
(0.141476 -0.0112035 7.00113e-22)
(0.148577 -0.0107285 1.19093e-22)
(0.15567 -0.0102926 -5.28151e-22)
(0.162751 -0.00989851 4.96947e-22)
(0.169817 -0.00954863 -1.36276e-21)
(0.176866 -0.00924495 -2.16096e-22)
(0.183894 -0.00898899 4.27371e-22)
(0.190898 -0.00878186 -3.25762e-22)
(0.197876 -0.00862423 1.7555e-21)
(0.204826 -0.00851639 -1.08529e-21)
(0.211743 -0.00845821 3.20111e-22)
(0.218626 -0.00844918 8.22681e-22)
(0.225473 -0.00848845 -7.94123e-22)
(0.23228 -0.00857483 8.09983e-25)
(0.239045 -0.00870681 -4.05639e-22)
(0.245767 -0.00888264 3.53509e-22)
(0.252444 -0.00910033 -7.47164e-24)
(0.259073 -0.00935765 -3.57664e-22)
(0.265652 -0.00965227 1.67859e-22)
(0.272181 -0.00998169 1.30411e-22)
(0.278658 -0.0103434 -1.21697e-22)
(0.285081 -0.0107347 1.57034e-22)
(0.291451 -0.0111531 -1.90612e-22)
(0.297766 -0.0115962 1.01835e-22)
(0.304026 -0.0120616 4.99529e-23)
(0.31023 -0.0125472 -3.3239e-23)
(0.316381 -0.0130517 3.45966e-23)
(0.322472 -0.0135725 4.76743e-24)
(0.328525 -0.014112 2.18028e-24)
(0.334468 -0.0146623 -1.57662e-24)
(0.340593 -0.0152445 -1.1765e-24)
(0.345785 -0.0158225 7.87172e-25)
(0.354975 -0.0164582 -1.813e-24)
(-0.093732 -0.00490756 4.14699e-21)
(-0.0912068 -0.00552415 -6.30135e-20)
(-0.0885307 -0.00617758 2.93704e-20)
(-0.0857029 -0.00687249 4.67914e-21)
(-0.0827232 -0.00761075 -4.62188e-20)
(-0.079592 -0.00839274 1.06717e-21)
(-0.0763099 -0.00921787 4.62395e-20)
(-0.0728782 -0.0100848 -4.65221e-20)
(-0.0692984 -0.0109914 1.96079e-20)
(-0.0655722 -0.011935 -4.38068e-20)
(-0.0617017 -0.0129125 8.49896e-20)
(-0.0576895 -0.0139198 7.6188e-21)
(-0.0535382 -0.0149527 -7.14695e-20)
(-0.0492511 -0.0160061 2.80182e-20)
(-0.0448314 -0.0170746 -4.4044e-20)
(-0.0402827 -0.0181525 3.02224e-20)
(-0.0356091 -0.0192337 -2.7929e-21)
(-0.0308145 -0.0203119 3.82425e-20)
(-0.0259035 -0.0213805 -7.04175e-20)
(-0.0208807 -0.0224329 3.00467e-20)
(-0.0157506 -0.0234626 -2.45879e-20)
(-0.0105172 -0.0244629 1.13778e-20)
(-0.00518871 -0.0254283 3.93131e-20)
(0.000190219 -0.0263571 -2.00853e-20)
(0.00570053 -0.0272309 2.2343e-20)
(0.0113384 -0.0280455 -2.27057e-20)
(0.0170103 -0.0288069 -1.41106e-20)
(0.0227506 -0.0295062 3.35196e-20)
(0.0285598 -0.0301388 -6.39849e-21)
(0.0344329 -0.0307012 4.40385e-21)
(0.0403657 -0.0311904 6.22384e-21)
(0.0463542 -0.0316044 -1.06813e-20)
(0.0523946 -0.0319416 -1.28828e-20)
(0.0584834 -0.0322012 1.56931e-20)
(0.0646173 -0.0323831 -2.07715e-20)
(0.0707934 -0.0324879 -6.17534e-22)
(0.0770089 -0.0325166 1.9816e-20)
(0.0832614 -0.0324714 7.55404e-21)
(0.0895487 -0.0323556 -6.29438e-21)
(0.0958683 -0.0321715 -1.56825e-20)
(0.102218 -0.0319224 2.31936e-20)
(0.108597 -0.0316124 -1.93326e-20)
(0.115004 -0.0312461 -4.64056e-21)
(0.121436 -0.0308284 1.81969e-20)
(0.127893 -0.0303644 -5.33096e-21)
(0.134373 -0.0298595 5.31753e-21)
(0.140875 -0.0293194 -4.85631e-21)
(0.147398 -0.0287499 -5.43878e-21)
(0.15394 -0.0281569 -2.34608e-21)
(0.1605 -0.0275463 7.79759e-21)
(0.167077 -0.0269239 -5.74032e-21)
(0.17367 -0.0262952 -3.47409e-21)
(0.180275 -0.025666 7.85579e-21)
(0.186893 -0.0250416 -6.55341e-21)
(0.193521 -0.0244272 -1.71456e-22)
(0.200158 -0.0238277 4.60157e-21)
(0.206801 -0.0232479 1.34478e-21)
(0.213448 -0.022692 4.94656e-22)
(0.220096 -0.022164 -1.73281e-21)
(0.226745 -0.0216674 5.03349e-22)
(0.233389 -0.0212055 -3.1393e-21)
(0.240028 -0.0207811 4.52839e-21)
(0.246659 -0.0203964 -3.56666e-21)
(0.253277 -0.0200534 2.6412e-22)
(0.259882 -0.0197538 4.55886e-22)
(0.266468 -0.0194984 3.22296e-21)
(0.273034 -0.0192882 -1.09273e-21)
(0.279576 -0.0191234 -2.61453e-22)
(0.28609 -0.019004 -1.95981e-21)
(0.292575 -0.0189295 5.85563e-22)
(0.299026 -0.0188993 4.94558e-22)
(0.305441 -0.0189123 -4.30732e-23)
(0.311817 -0.0189672 -1.92336e-22)
(0.31815 -0.0190624 -9.78167e-23)
(0.324437 -0.0191961 -5.47556e-22)
(0.330677 -0.0193664 3.63518e-22)
(0.336867 -0.0195713 -5.52264e-23)
(0.343003 -0.0198084 5.5284e-22)
(0.349085 -0.0200756 1.14681e-23)
(0.35511 -0.0203706 -2.79877e-22)
(0.361076 -0.0206911 -1.09395e-22)
(0.366982 -0.021035 1.8088e-22)
(0.372826 -0.0214006 -1.49911e-22)
(0.378607 -0.0217855 -2.83212e-23)
(0.384328 -0.0221894 7.43087e-23)
(0.389972 -0.0226087 -3.65099e-23)
(0.395588 -0.0230486 6.60457e-25)
(0.401026 -0.023497 -2.40151e-24)
(0.406764 -0.023976 -2.27736e-24)
(0.411316 -0.0244486 -4.15097e-25)
(0.419816 -0.0249882 -3.2347e-25)
(0.0218137 -0.0103828 1.42287e-20)
(0.0249754 -0.0112738 -1.42753e-19)
(0.0282905 -0.012206 3.9107e-21)
(0.0317567 -0.0131794 4.79345e-20)
(0.0353716 -0.0141938 5.06691e-20)
(0.0391325 -0.0152482 4.1645e-21)
(0.0430362 -0.0163409 2.62867e-20)
(0.0470794 -0.0174696 -3.79876e-20)
(0.0512584 -0.0186314 6.40958e-21)
(0.0555692 -0.0198226 1.98341e-20)
(0.0600073 -0.0210389 5.46147e-22)
(0.0645682 -0.0222755 -6.12155e-20)
(0.0692468 -0.0235271 9.28275e-21)
(0.074038 -0.0247879 1.96525e-20)
(0.0789364 -0.0260518 2.61884e-21)
(0.0839363 -0.0273123 6.22148e-21)
(0.0890318 -0.0285627 -2.07163e-20)
(0.094217 -0.0297964 5.14667e-20)
(0.0994857 -0.0310064 -8.09698e-20)
(0.104832 -0.0321859 2.02201e-20)
(0.110249 -0.0333285 -4.37566e-20)
(0.115732 -0.0344289 1.17672e-19)
(0.121269 -0.0354818 -6.80525e-20)
(0.126863 -0.0364492 -2.13974e-20)
(0.132513 -0.0373765 -3.16773e-20)
(0.138202 -0.0382406 4.15898e-20)
(0.143928 -0.0390336 -3.06915e-21)
(0.149686 -0.0397517 -1.95038e-20)
(0.155472 -0.0403918 1.64328e-20)
(0.161282 -0.0409514 1.59882e-20)
(0.167112 -0.0414287 6.37584e-21)
(0.172958 -0.0418229 -5.28481e-20)
(0.178819 -0.0421334 2.78542e-20)
(0.184691 -0.0423608 9.65058e-21)
(0.190571 -0.0425061 -2.37322e-21)
(0.19646 -0.042571 -2.8091e-20)
(0.202354 -0.0425578 2.36437e-22)
(0.208253 -0.0424696 2.32229e-20)
(0.214157 -0.0423098 -9.12167e-21)
(0.220064 -0.0420824 2.1087e-20)
(0.225974 -0.0417916 3.00096e-22)
(0.231887 -0.0414423 -6.7692e-21)
(0.237804 -0.0410395 9.67161e-21)
(0.243725 -0.0405885 -2.16664e-20)
(0.24965 -0.040095 9.38198e-21)
(0.255579 -0.0395646 4.5015e-21)
(0.261513 -0.0390032 -2.65609e-21)
(0.267452 -0.0384167 -1.23597e-20)
(0.273396 -0.0378109 1.09171e-20)
(0.279346 -0.0371915 1.03994e-20)
(0.285301 -0.0365641 -7.44049e-21)
(0.291262 -0.0359342 -3.74051e-21)
(0.297228 -0.0353071 -2.62331e-21)
(0.303198 -0.0346878 9.45941e-21)
(0.309172 -0.034081 -1.03753e-20)
(0.315149 -0.0334911 2.76131e-21)
(0.321128 -0.0329224 -2.67308e-21)
(0.327107 -0.0323784 1.08413e-21)
(0.333085 -0.0318627 1.80588e-21)
(0.33906 -0.0313781 9.00516e-22)
(0.34503 -0.0309273 -5.22362e-22)
(0.350992 -0.0305124 -1.48649e-22)
(0.356944 -0.0301352 9.93278e-22)
(0.362883 -0.0297971 1.9772e-21)
(0.368807 -0.0294992 -1.82218e-21)
(0.374712 -0.0292419 8.72392e-22)
(0.380596 -0.0290256 -1.98415e-21)
(0.386456 -0.0288502 2.35227e-21)
(0.392287 -0.0287152 -1.56997e-21)
(0.398087 -0.02862 -1.31612e-22)
(0.403853 -0.0285635 2.0623e-22)
(0.409582 -0.0285446 4.2215e-22)
(0.415269 -0.0285617 -1.59129e-21)
(0.420913 -0.0286134 6.32149e-22)
(0.42651 -0.0286977 8.959e-23)
(0.432057 -0.0288128 -5.33712e-22)
(0.437551 -0.0289569 6.66089e-22)
(0.442991 -0.0291278 -5.8443e-24)
(0.448373 -0.0293237 9.27852e-23)
(0.453696 -0.0295427 -1.12046e-22)
(0.458957 -0.0297827 -2.60007e-22)
(0.464156 -0.0300425 8.7793e-23)
(0.469286 -0.0303198 -8.73493e-23)
(0.47436 -0.030615 1.41174e-22)
(0.479339 -0.0309236 1.42912e-23)
(0.484322 -0.0312509 -3.25005e-23)
(0.489042 -0.0315865 1.18518e-24)
(0.494214 -0.0319428 2.51878e-24)
(0.497976 -0.0322964 -1.40116e-24)
(0.505518 -0.0327261 -1.09947e-24)
(0.161954 -0.0159322 7.95769e-20)
(0.165378 -0.0170505 -8.34367e-20)
(0.168959 -0.0182061 1.69637e-19)
(0.172695 -0.019399 -1.45243e-19)
(0.17658 -0.0206286 3.35964e-23)
(0.180609 -0.0218934 1.06647e-19)
(0.184778 -0.0231915 4.18766e-20)
(0.18908 -0.0245203 -8.20887e-20)
(0.19351 -0.0258762 -2.26667e-20)
(0.19806 -0.0272553 -6.19158e-22)
(0.202726 -0.0286528 -1.70215e-20)
(0.207499 -0.0300636 -8.43585e-21)
(0.212373 -0.031482 7.20574e-20)
(0.21734 -0.0329017 -7.17886e-20)
(0.222394 -0.0343163 2.21025e-21)
(0.227526 -0.0357191 4.78804e-20)
(0.232729 -0.037103 1.01916e-20)
(0.237997 -0.0384611 2.28149e-20)
(0.24332 -0.0397862 -4.58214e-20)
(0.248691 -0.0410715 -6.71455e-21)
(0.254105 -0.0423099 3.98557e-20)
(0.259552 -0.0434954 1.54897e-20)
(0.265025 -0.0446217 -5.1257e-20)
(0.27052 -0.0456792 1.34717e-20)
(0.276033 -0.0466675 -3.00072e-20)
(0.281555 -0.0475814 4.15499e-20)
(0.287081 -0.0484166 -9.87885e-20)
(0.292606 -0.0491696 5.75882e-20)
(0.298124 -0.0498377 -1.63797e-20)
(0.303634 -0.0504188 3.89042e-20)
(0.30913 -0.0509117 -2.04992e-20)
(0.31461 -0.0513157 1.65644e-20)
(0.320072 -0.0516313 -6.2831e-20)
(0.325514 -0.0518592 8.65855e-20)
(0.330935 -0.0520012 -3.3737e-20)
(0.336334 -0.0520595 2.10704e-20)
(0.34171 -0.052037 -2.29525e-20)
(0.347064 -0.0519371 1.15677e-20)
(0.352395 -0.0517639 -1.24509e-20)
(0.357704 -0.0515217 1.27038e-20)
(0.362993 -0.0512152 4.2406e-21)
(0.368263 -0.0508497 -1.88652e-20)
(0.373514 -0.0504304 -4.22215e-21)
(0.378748 -0.0499629 8.9247e-21)
(0.383968 -0.0494531 -6.99385e-21)
(0.389174 -0.0489067 -5.34968e-21)
(0.394369 -0.0483297 1.32112e-20)
(0.399554 -0.0477278 4.29372e-22)
(0.40473 -0.047107 -1.02507e-20)
(0.409899 -0.0464728 -5.35487e-21)
(0.415062 -0.0458308 1.34776e-20)
(0.42022 -0.0451861 -2.47419e-21)
(0.425374 -0.0445439 -6.82112e-21)
(0.430524 -0.043909 2.76427e-22)
(0.435672 -0.0432858 8.71106e-21)
(0.440816 -0.0426784 -1.37265e-21)
(0.445957 -0.0420907 -3.11195e-21)
(0.451093 -0.0415261 7.49306e-21)
(0.456225 -0.0409876 -3.51702e-21)
(0.461352 -0.040478 -3.28613e-21)
(0.46647 -0.0399995 -7.19125e-22)
(0.471581 -0.039554 -5.80608e-21)
(0.47668 -0.039143 6.37813e-21)
(0.481766 -0.0387677 -1.1461e-21)
(0.486837 -0.0384288 -1.1342e-22)
(0.491891 -0.0381268 9.44114e-22)
(0.496924 -0.0378617 8.1909e-22)
(0.501934 -0.0376334 -2.31231e-21)
(0.506917 -0.0374413 1.69107e-21)
(0.511872 -0.0372847 8.13348e-22)
(0.516795 -0.0371625 -2.88429e-21)
(0.521682 -0.0370737 1.44686e-23)
(0.526531 -0.0370167 1.68037e-21)
(0.53134 -0.0369901 -3.58068e-22)
(0.536104 -0.0369922 -1.31119e-22)
(0.540822 -0.0370214 3.9028e-22)
(0.54549 -0.0370759 -3.86104e-22)
(0.550107 -0.037154 3.14018e-23)
(0.554669 -0.0372539 2.16288e-22)
(0.559175 -0.0373741 -1.96331e-22)
(0.563622 -0.0375129 -1.61732e-22)
(0.568012 -0.0376691 1.48074e-23)
(0.572331 -0.0378408 3.09026e-22)
(0.57661 -0.0380279 -2.11504e-22)
(0.580771 -0.038228 -6.44236e-24)
(0.584988 -0.0384413 1.08422e-23)
(0.588859 -0.0386674 -2.90808e-23)
(0.593313 -0.0389011 -1.55998e-23)
(0.596254 -0.0391404 -1.69959e-24)
(0.60263 -0.0394505 2.52788e-24)
(0.323712 -0.0213885 -3.69255e-20)
(0.326949 -0.0227559 -4.93526e-20)
(0.33036 -0.0241521 -4.51127e-20)
(0.333939 -0.0255769 1.35834e-19)
(0.337677 -0.0270291 1.42352e-21)
(0.341566 -0.0285074 1.22912e-20)
(0.345597 -0.0300095 -7.62049e-20)
(0.349763 -0.0315327 7.54968e-20)
(0.354054 -0.0330733 -4.57657e-21)
(0.35846 -0.034627 6.91517e-21)
(0.362973 -0.036189 -1.6385e-19)
(0.367584 -0.037754 5.73479e-20)
(0.372283 -0.0393161 1.09834e-19)
(0.37706 -0.040869 -1.02609e-19)
(0.381906 -0.0424062 -7.00867e-20)
(0.386812 -0.0439207 3.65304e-20)
(0.391768 -0.0454057 2.72334e-20)
(0.396765 -0.046854 1.22234e-20)
(0.401795 -0.0482588 -3.00158e-20)
(0.406848 -0.0496132 1.18183e-19)
(0.411918 -0.0509104 -9.12081e-20)
(0.416994 -0.0521442 3.86835e-20)
(0.422071 -0.0533086 -5.96403e-20)
(0.427142 -0.0543974 2.84475e-20)
(0.4322 -0.0554067 2.32281e-20)
(0.43724 -0.0563327 1.43486e-21)
(0.442257 -0.057172 -1.33735e-20)
(0.447244 -0.0579217 -1.86778e-20)
(0.452199 -0.0585794 1.34027e-20)
(0.457118 -0.059144 -3.61013e-20)
(0.461998 -0.0596148 3.35054e-20)
(0.466837 -0.059992 2.41608e-21)
(0.471634 -0.0602764 -6.49086e-21)
(0.476387 -0.0604697 5.80812e-21)
(0.481096 -0.0605741 -3.71642e-20)
(0.485762 -0.0605926 -2.09266e-20)
(0.490384 -0.0605286 7.64148e-20)
(0.494964 -0.0603862 -7.68087e-20)
(0.499503 -0.0601699 9.41504e-20)
(0.504003 -0.0598845 -3.00646e-20)
(0.508465 -0.0595352 2.11247e-20)
(0.512892 -0.0591275 -6.14471e-20)
(0.517287 -0.0586671 -1.68411e-21)
(0.521651 -0.0581599 1.27888e-20)
(0.525988 -0.0576118 7.05941e-21)
(0.5303 -0.0570287 4.50772e-23)
(0.534588 -0.0564166 2.20424e-20)
(0.538857 -0.0557814 -2.12666e-20)
(0.543108 -0.0551288 1.30924e-20)
(0.547343 -0.0544644 1.26553e-21)
(0.551564 -0.0537934 -1.16929e-21)
(0.555773 -0.0531211 -1.57573e-20)
(0.559972 -0.0524522 8.85037e-21)
(0.564161 -0.0517912 4.28742e-21)
(0.568343 -0.0511423 5.52861e-21)
(0.572516 -0.0505093 -7.61777e-21)
(0.576683 -0.0498958 -1.29958e-20)
(0.580842 -0.0493048 3.36121e-21)
(0.584995 -0.0487389 9.01635e-21)
(0.589139 -0.0482007 -4.57085e-21)
(0.593275 -0.0476919 7.59231e-24)
(0.5974 -0.0472142 3.33175e-21)
(0.601515 -0.0467688 -1.7261e-21)
(0.605617 -0.0463566 -2.0502e-21)
(0.609705 -0.0459779 5.38721e-21)
(0.613776 -0.0456332 -4.38013e-21)
(0.617828 -0.0453221 3.06255e-21)
(0.621859 -0.0450445 -6.60805e-22)
(0.625867 -0.0447995 -2.06687e-21)
(0.629848 -0.0445864 1.75464e-22)
(0.633802 -0.0444042 -6.08032e-22)
(0.637724 -0.0442515 1.42571e-21)
(0.641612 -0.0441271 1.19211e-21)
(0.645465 -0.0440295 -2.58429e-22)
(0.649278 -0.0439571 -8.87206e-22)
(0.653051 -0.0439084 -1.59782e-21)
(0.656779 -0.0438818 1.74968e-21)
(0.660463 -0.0438758 -8.38665e-22)
(0.664098 -0.0438889 2.93879e-22)
(0.667686 -0.0439196 1.48627e-22)
(0.671219 -0.0439667 2.72042e-22)
(0.674707 -0.0440286 -4.06797e-22)
(0.678124 -0.0441052 4.74546e-23)
(0.681522 -0.0441935 7.98001e-23)
(0.684787 -0.0442967 -1.77166e-23)
(0.688156 -0.0444058 -8.28754e-24)
(0.691135 -0.044535 5.34083e-23)
(0.694748 -0.0446595 -4.46049e-23)
(0.696916 -0.0448023 5.94908e-24)
(0.701994 -0.044995 -9.51403e-25)
(0.50287 -0.0275532 -2.53045e-19)
(0.505556 -0.0292028 3.40074e-19)
(0.508432 -0.0308683 -3.35504e-19)
(0.511484 -0.0325484 1.72823e-19)
(0.514701 -0.0342418 -2.06176e-19)
(0.518071 -0.0359463 8.49575e-20)
(0.521582 -0.0376591 1.99036e-19)
(0.525221 -0.0393766 8.72252e-21)
(0.528977 -0.0410945 -3.37489e-20)
(0.532838 -0.042808 -2.59071e-19)
(0.53679 -0.0445119 8.12186e-20)
(0.540824 -0.0462003 1.50444e-19)
(0.544926 -0.047867 -1.28493e-19)
(0.549085 -0.0495056 9.6709e-20)
(0.553291 -0.0511095 -9.52187e-20)
(0.557531 -0.0526718 1.15615e-19)
(0.561797 -0.0541859 -9.35528e-20)
(0.566078 -0.0556451 -4.88241e-20)
(0.570365 -0.0570427 3.71131e-20)
(0.574648 -0.0583727 9.47429e-21)
(0.57892 -0.0596292 -7.08106e-22)
(0.583174 -0.0608067 -5.39227e-20)
(0.587402 -0.0619002 6.9424e-20)
(0.591598 -0.0629058 1.02904e-21)
(0.595757 -0.0638199 8.46398e-21)
(0.599875 -0.0646397 -9.36089e-21)
(0.603947 -0.065363 -1.31947e-20)
(0.60797 -0.0659885 2.53915e-20)
(0.611942 -0.0665156 -2.85028e-20)
(0.615861 -0.0669444 -4.88466e-21)
(0.619725 -0.0672758 7.42923e-21)
(0.623534 -0.0675114 3.00494e-20)
(0.627289 -0.0676534 8.22049e-21)
(0.63099 -0.0677047 -3.79598e-20)
(0.634638 -0.0676688 5.19373e-20)
(0.638234 -0.0675499 -1.46074e-20)
(0.641782 -0.0673523 7.36187e-21)
(0.645282 -0.0670812 -4.98648e-20)
(0.648737 -0.0667417 -5.72992e-21)
(0.652151 -0.0663394 3.77956e-20)
(0.655526 -0.0658802 1.86035e-20)
(0.658865 -0.0653699 6.63488e-21)
(0.662171 -0.0648147 -2.77828e-20)
(0.665447 -0.0642207 -1.99475e-22)
(0.668696 -0.0635937 -1.45785e-20)
(0.671922 -0.06294 -1.28802e-20)
(0.675126 -0.0622652 2.82187e-21)
(0.678312 -0.061575 4.28631e-20)
(0.681482 -0.060875 -7.12507e-21)
(0.684638 -0.0601703 -3.72197e-20)
(0.687782 -0.0594658 2.74889e-20)
(0.690917 -0.0587661 -8.64522e-21)
(0.694042 -0.0580756 1.18221e-20)
(0.69716 -0.0573979 -1.0585e-20)
(0.700271 -0.0567369 2.32502e-21)
(0.703376 -0.0560955 1.2058e-20)
(0.706475 -0.0554766 -1.61103e-20)
(0.709568 -0.0548826 6.60552e-21)
(0.712654 -0.0543155 3.95074e-21)
(0.715734 -0.053777 -6.17618e-21)
(0.718807 -0.0532682 5.64094e-22)
(0.72187 -0.0527903 -5.94816e-22)
(0.724924 -0.0523436 7.99889e-21)
(0.727966 -0.0519286 -5.13506e-21)
(0.730995 -0.0515452 -6.30524e-21)
(0.734009 -0.0511931 1.05854e-20)
(0.737006 -0.0508718 -7.19281e-21)
(0.739984 -0.0505805 -2.92513e-21)
(0.742942 -0.0503183 7.33461e-21)
(0.745877 -0.050084 -2.26444e-21)
(0.748786 -0.0498765 -7.84194e-22)
(0.751668 -0.0496943 2.34423e-21)
(0.754521 -0.0495361 -2.27419e-21)
(0.757343 -0.0494004 7.04649e-22)
(0.760132 -0.0492858 2.19426e-22)
(0.762885 -0.0491908 -2.06777e-22)
(0.765602 -0.0491139 -5.78451e-22)
(0.76828 -0.049054 5.39652e-22)
(0.770921 -0.0490094 -3.42429e-22)
(0.773514 -0.0489801 6.55709e-22)
(0.776078 -0.0489629 2.37167e-22)
(0.778575 -0.0489607 1.6048e-22)
(0.781074 -0.0489662 -3.51932e-22)
(0.783439 -0.04899 2.04856e-22)
(0.785931 -0.0490127 -5.9967e-23)
(0.788051 -0.0490637 8.28736e-23)
(0.790754 -0.0490998 6.86489e-24)
(0.792244 -0.0491695 -1.31938e-23)
(0.79598 -0.0492613 1.33618e-24)
(0.684924 -0.0321817 -1.19289e-19)
(0.686578 -0.034145 1.55504e-19)
(0.688427 -0.0361029 -3.91771e-19)
(0.690454 -0.0380543 4.47157e-19)
(0.692644 -0.0399976 -1.80339e-19)
(0.694983 -0.0419301 -8.87979e-20)
(0.697455 -0.0438487 1.63452e-19)
(0.700046 -0.0457494 -2.34087e-19)
(0.702742 -0.047628 3.87233e-19)
(0.705527 -0.0494798 -3.42297e-19)
(0.708389 -0.0512994 7.68059e-20)
(0.711315 -0.0530814 9.02329e-20)
(0.714291 -0.0548199 -1.38176e-19)
(0.717306 -0.0565089 -3.03957e-20)
(0.720348 -0.0581424 9.30502e-20)
(0.723406 -0.0597144 -1.47654e-19)
(0.72647 -0.0612188 2.49846e-19)
(0.729531 -0.0626499 -1.35049e-19)
(0.732579 -0.0640024 2.42631e-20)
(0.735608 -0.0652711 5.60903e-20)
(0.73861 -0.0664514 -7.83577e-20)
(0.741579 -0.0675394 -6.66241e-22)
(0.74451 -0.0685315 7.32139e-20)
(0.747399 -0.0694251 -3.49811e-20)
(0.750242 -0.0702181 -3.57195e-20)
(0.753037 -0.0709091 2.19666e-20)
(0.755781 -0.0714976 4.46066e-20)
(0.758473 -0.0719836 2.20354e-20)
(0.761112 -0.0723682 -2.09904e-20)
(0.763699 -0.0726527 -6.78542e-20)
(0.766234 -0.0728396 9.7041e-20)
(0.768719 -0.0729315 -6.19818e-20)
(0.771156 -0.0729321 4.68928e-20)
(0.773546 -0.0728452 -8.4831e-20)
(0.775891 -0.0726755 1.90175e-21)
(0.778195 -0.0724278 -7.93875e-21)
(0.780461 -0.0721075 9.14779e-20)
(0.782691 -0.0717202 -3.28876e-20)
(0.784889 -0.0712717 3.31742e-20)
(0.787057 -0.070768 -1.15289e-20)
(0.7892 -0.0702153 -5.79839e-20)
(0.79132 -0.0696196 3.63062e-20)
(0.793421 -0.0689871 4.46704e-21)
(0.795505 -0.0683238 -3.47353e-20)
(0.797575 -0.0676358 1.04088e-20)
(0.799633 -0.0669288 2.68639e-20)
(0.801683 -0.0662083 -3.57487e-20)
(0.803726 -0.0654798 2.44174e-20)
(0.805764 -0.0647481 1.6538e-20)
(0.807798 -0.0640181 -2.81574e-20)
(0.809831 -0.0632942 1.23686e-20)
(0.811863 -0.0625804 7.02913e-21)
(0.813895 -0.0618803 1.54891e-21)
(0.815927 -0.0611972 -7.29985e-21)
(0.817959 -0.0605342 2.62252e-21)
(0.819993 -0.0598936 -1.04924e-20)
(0.822027 -0.0592777 6.54936e-21)
(0.824061 -0.0586882 -3.63224e-21)
(0.826094 -0.0581265 6.74976e-21)
(0.828125 -0.0575936 -3.63142e-21)
(0.830154 -0.0570904 -2.30069e-21)
(0.832178 -0.056617 7.99168e-21)
(0.834197 -0.0561738 -9.00116e-21)
(0.836209 -0.0557604 3.10293e-21)
(0.838213 -0.0553765 3.3335e-21)
(0.840206 -0.0550213 -3.73535e-21)
(0.842187 -0.0546942 -4.11779e-23)
(0.844154 -0.0543939 -1.30036e-22)
(0.846106 -0.0541195 -2.68141e-21)
(0.84804 -0.0538696 5.35674e-21)
(0.849955 -0.053643 -2.19642e-21)
(0.85185 -0.0534383 6.43441e-22)
(0.853722 -0.0532541 -1.60935e-21)
(0.855571 -0.0530888 -9.71335e-22)
(0.857393 -0.0529416 1.0463e-21)
(0.859191 -0.0528105 1.01773e-21)
(0.860958 -0.0526953 -1.66405e-21)
(0.862701 -0.0525934 1.04176e-21)
(0.864407 -0.0525064 -1.11367e-21)
(0.866096 -0.0524291 7.96898e-22)
(0.86773 -0.052368 1.2469e-22)
(0.869377 -0.052311 -3.24071e-22)
(0.870911 -0.052276 2.71749e-22)
(0.87256 -0.0522345 -6.49469e-23)
(0.873913 -0.0522281 1.73847e-23)
(0.875716 -0.0522 -5.3214e-23)
(0.87664 -0.0522193 -2.21505e-23)
(0.879097 -0.0522373 1.27971e-24)
(0.855154 -0.0325996 -9.1578e-20)
(0.855312 -0.0348412 -9.54342e-21)
(0.855662 -0.037055 -9.83537e-21)
(0.856188 -0.0392416 -3.25633e-19)
(0.856874 -0.0414005 7.2553e-20)
(0.857703 -0.0435301 2.50216e-20)
(0.858662 -0.0456278 3.63969e-19)
(0.859733 -0.0476907 -4.94764e-20)
(0.860904 -0.0497152 -1.03119e-19)
(0.86216 -0.0516972 1.18183e-19)
(0.863487 -0.0536322 -8.42385e-20)
(0.864873 -0.0555153 -8.35761e-20)
(0.866305 -0.0573417 -6.94571e-20)
(0.867772 -0.059106 1.30721e-19)
(0.869264 -0.0608031 -2.76597e-19)
(0.87077 -0.0624278 2.64011e-19)
(0.872281 -0.063975 6.23862e-21)
(0.873789 -0.0654399 -1.84212e-19)
(0.875288 -0.066818 -7.40486e-20)
(0.87677 -0.068105 2.24812e-19)
(0.87823 -0.0692973 -3.71121e-20)
(0.879664 -0.0703916 -1.09203e-19)
(0.881068 -0.0713854 1.29389e-19)
(0.882439 -0.0722766 -1.59884e-20)
(0.883775 -0.073064 -1.31479e-20)
(0.885075 -0.0737468 3.31621e-20)
(0.886338 -0.0743252 -2.98479e-20)
(0.887564 -0.0747998 1.13555e-20)
(0.888755 -0.0751719 5.28647e-20)
(0.88991 -0.0754435 -5.94556e-20)
(0.891033 -0.0756173 2.5486e-20)
(0.892124 -0.0756963 -1.52508e-20)
(0.893187 -0.0756845 5.23156e-20)
(0.894223 -0.0755859 -2.79865e-21)
(0.895237 -0.0754053 -5.57277e-22)
(0.89623 -0.0751478 -7.97922e-20)
(0.897207 -0.0748188 3.7636e-21)
(0.898169 -0.0744241 1.93923e-20)
(0.89912 -0.0739695 -2.7424e-20)
(0.900064 -0.0734609 3.12512e-20)
(0.901002 -0.0729045 -1.24724e-21)
(0.901938 -0.0723064 1.62599e-20)
(0.902874 -0.0716725 1.75282e-20)
(0.903813 -0.0710088 -2.36848e-20)
(0.904757 -0.0703211 -1.89897e-20)
(0.905707 -0.0696151 -1.61141e-20)
(0.906665 -0.0688962 4.60506e-20)
(0.907632 -0.0681694 -1.84416e-20)
(0.90861 -0.0674398 1.75992e-22)
(0.9096 -0.0667117 -3.30551e-20)
(0.910601 -0.0659895 3.13188e-20)
(0.911615 -0.065277 -5.43003e-22)
(0.912641 -0.0645776 -2.53577e-20)
(0.913679 -0.0638946 4.0572e-20)
(0.914728 -0.0632305 -2.42167e-20)
(0.915789 -0.0625879 5.09573e-21)
(0.91686 -0.0619686 -5.85381e-21)
(0.91794 -0.0613742 4.9873e-21)
(0.919028 -0.0608062 5.35615e-21)
(0.920123 -0.0602653 1.99673e-21)
(0.921224 -0.0597523 -5.379e-21)
(0.922329 -0.0592673 -3.90013e-21)
(0.923436 -0.0588104 2.12005e-21)
(0.924543 -0.0583814 4.29227e-21)
(0.92565 -0.0579799 2.65103e-21)
(0.926755 -0.057605 -2.84635e-21)
(0.927855 -0.0572561 4.34192e-21)
(0.928949 -0.0569321 -1.02613e-20)
(0.930036 -0.056632 7.52415e-21)
(0.931113 -0.0563544 -5.10995e-21)
(0.93218 -0.0560983 2.14141e-21)
(0.933236 -0.0558621 1.4909e-21)
(0.934278 -0.0556449 -9.20673e-22)
(0.935305 -0.055445 6.53616e-22)
(0.936317 -0.0552619 -1.32702e-21)
(0.937313 -0.0550933 -1.20943e-21)
(0.938291 -0.0549398 1.25795e-21)
(0.939253 -0.054798 -4.47534e-22)
(0.940191 -0.0546711 8.58748e-23)
(0.941119 -0.0545521 2.40796e-22)
(0.942012 -0.0544503 -9.73726e-24)
(0.942914 -0.0543501 1.78795e-22)
(0.943744 -0.0542747 -1.67063e-22)
(0.944648 -0.0541895 1.06838e-22)
(0.945369 -0.0541439 7.78015e-23)
(0.946357 -0.0540726 8.54747e-23)
(0.946838 -0.0540583 -1.78468e-23)
(0.948169 -0.0540256 -6.9077e-24)
(1.00067 -0.0328665 1.24889e-19)
(0.999483 -0.0354302 -3.28151e-19)
(0.998448 -0.0379409 2.18653e-19)
(0.997553 -0.0403991 -1.02204e-19)
(0.996784 -0.0428045 1.88675e-19)
(0.99613 -0.0451559 -3.53914e-19)
(0.995579 -0.0474517 3.85139e-19)
(0.995117 -0.0496896 -2.85869e-19)
(0.994734 -0.0518667 2.3108e-19)
(0.994418 -0.0539797 -1.43332e-19)
(0.994159 -0.056025 -8.93919e-20)
(0.993947 -0.0579985 2.60074e-19)
(0.993773 -0.0598962 -2.50434e-19)
(0.993628 -0.0617138 -1.52589e-19)
(0.993505 -0.0634471 2.35849e-19)
(0.993397 -0.0650919 -1.0354e-21)
(0.993297 -0.0666442 8.61857e-20)
(0.993201 -0.0681005 -6.25573e-20)
(0.993104 -0.0694572 7.89519e-20)
(0.993002 -0.0707115 -1.7036e-19)
(0.992893 -0.0718609 -9.27879e-20)
(0.992775 -0.0729034 8.27899e-20)
(0.992646 -0.0738376 8.1384e-20)
(0.992505 -0.0746628 9.24377e-20)
(0.992353 -0.0753789 -6.93688e-20)
(0.99219 -0.0759864 -6.44013e-21)
(0.992016 -0.0764863 -4.47453e-20)
(0.991834 -0.0768803 -4.58053e-20)
(0.991645 -0.0771709 8.42395e-20)
(0.991451 -0.0773609 2.96429e-24)
(0.991255 -0.0774538 -4.59909e-20)
(0.991058 -0.0774535 1.59719e-20)
(0.990864 -0.0773646 -3.19365e-20)
(0.990675 -0.077192 1.2904e-20)
(0.990493 -0.0769409 3.57768e-20)
(0.990322 -0.0766168 -2.31816e-20)
(0.990164 -0.0762255 -2.65659e-20)
(0.99002 -0.0757729 2.47087e-20)
(0.989895 -0.0752652 4.05588e-20)
(0.989788 -0.0747084 -6.48888e-20)