/*--------------------------------*- C++ -*----------------------------------*\
  =========                 |
  \\      /  F ield         | OpenFOAM: The Open Source CFD Toolbox
   \\    /   O peration     | Website:  https://openfoam.org
    \\  /    A nd           | Version:  7
     \\/     M anipulation  |
\*---------------------------------------------------------------------------*/
FoamFile
{
    version     2.0;
    format      ascii;
    class       surfaceScalarField;
    location    "35";
    object      phi;
}
// * * * * * * * * * * * * * * * * * * * * * * * * * * * * * * * * * * * * * //

dimensions      [0 3 -1 0 0 0 0];

internalField   nonuniform List<scalar> 
2641
(
0.00707121
-5.4908e-05
0.00712505
-5.3839e-05
0.00717784
-5.279e-05
0.0072296
-5.17609e-05
0.00728035
-5.07514e-05
0.00733011
-4.97612e-05
0.0073789
-4.87903e-05
0.00742674
-4.78382e-05
0.00747364
-4.69048e-05
0.00751963
-4.59898e-05
0.00756473
-4.50929e-05
0.00760894
-4.42138e-05
0.00765229
-4.33523e-05
0.0076948
-4.2508e-05
0.00773648
-4.16807e-05
0.00777735
-4.087e-05
0.00781743
-4.00757e-05
0.00785672
-3.92975e-05
0.00789526
-3.8535e-05
0.00793305
-3.77879e-05
0.0079701
-3.70561e-05
0.00800644
-3.6339e-05
0.00804208
-3.56365e-05
0.00807703
-3.49481e-05
0.0081113
-3.42737e-05
0.00814491
-3.36129e-05
0.00817788
-3.29653e-05
0.00821021
-3.23306e-05
0.00824192
-3.17084e-05
0.00827302
-3.10985e-05
0.00830352
-3.05004e-05
0.00833343
-2.99137e-05
0.00836277
-2.9338e-05
0.00839154
-2.87728e-05
0.00841976
-2.82177e-05
0.00844743
-2.76721e-05
0.00847456
-2.71354e-05
0.00850117
-2.66068e-05
0.00852726
-2.60857e-05
0.00855283
-2.5571e-05
0.00857789
-2.50618e-05
0.00860245
-2.45568e-05
0.0086265
-2.40545e-05
0.00865005
-2.3553e-05
0.0086731
-2.30503e-05
0.00869565
-2.25439e-05
0.00871768
-2.20314e-05
0.00873919
-2.1511e-05
0.00876017
-2.09773e-05
0.0087806
-2.0434e-05
-2.00142e-05
0.0072527
0.00730384
-0.00010498
0.007354
-0.000102951
0.0074032
-0.000100959
0.00745145
-9.90062e-05
0.00749878
-9.70906e-05
0.0075452
-9.52119e-05
0.00759074
-9.33698e-05
0.00763539
-9.15638e-05
0.0076792
-8.97933e-05
0.00772216
-8.80578e-05
0.00776431
-8.63568e-05
0.00780564
-8.46897e-05
0.00784619
-8.3056e-05
0.00788597
-8.14551e-05
0.00792498
-7.98865e-05
0.00796326
-7.83495e-05
0.0080008
-7.68435e-05
0.00803764
-7.53681e-05
0.00807377
-7.39226e-05
0.00810922
-7.25064e-05
0.008144
-7.11189e-05
0.00817812
-6.97596e-05
0.0082116
-6.84278e-05
0.00824445
-6.71229e-05
0.00827668
-6.58443e-05
0.00830831
-6.45914e-05
0.00833934
-6.33635e-05
0.00836979
-6.216e-05
0.00839968
-6.09801e-05
0.008429
-5.98232e-05
0.00845777
-5.86885e-05
0.00848601
-5.75751e-05
0.00851372
-5.64823e-05
0.00854091
-5.54091e-05
0.00856759
-5.43543e-05
0.00859378
-5.3317e-05
0.00861946
-5.22957e-05
0.00864467
-5.1289e-05
0.00866939
-5.02952e-05
0.00869364
-4.93123e-05
0.00871742
-4.8338e-05
0.00874074
-4.73695e-05
0.00876359
-4.64035e-05
0.00878597
-4.54361e-05
0.00880789
-4.44628e-05
0.00882934
-4.34793e-05
0.00885031
-4.2482e-05
0.0088708
-4.14612e-05
0.00889078
-4.04228e-05
-3.96162e-05
0.00764122
-0.000151211
0.0076866
-0.000148328
0.00773114
-0.0001455
0.00777486
-0.000142725
0.00781777
-0.000140004
0.0078599
-0.000137335
0.00790125
-0.000134718
0.00794183
-0.000132152
0.00798168
-0.000129636
0.00802079
-0.00012717
0.00805918
-0.000124753
0.00809688
-0.000122384
0.00813389
-0.000120063
0.00817022
-0.000117788
0.00820589
-0.000115559
0.00824092
-0.000113375
0.00827531
-0.000111235
0.00830908
-0.000109139
0.00834224
-0.000107085
0.00837481
-0.000105072
0.00840679
-0.000103101
0.0084382
-0.000101169
0.00846905
-9.92773e-05
0.00849935
-9.74235e-05
0.00852911
-9.56071e-05
0.00855835
-9.38273e-05
0.00858707
-9.20833e-05
0.00861528
-9.0374e-05
0.008643
-8.86985e-05
0.00867023
-8.70558e-05
0.00869699
-8.54448e-05
0.00872328
-8.38645e-05
0.00874911
-8.23136e-05
0.00877449
-8.07908e-05
0.00879943
-7.92947e-05
0.00882394
-7.78238e-05
0.00884802
-7.63762e-05
0.00887168
-7.495e-05
0.00889493
-7.35429e-05
0.00891777
-7.21523e-05
0.0089402
-7.0775e-05
0.00896224
-6.94075e-05
0.00898388
-6.80455e-05
0.00900513
-6.66839e-05
0.00902599
-6.53167e-05
0.00904645
-6.39385e-05
0.00906651
-6.25447e-05
0.00908617
-6.11227e-05
0.00910543
-5.96787e-05
-5.85473e-05
0.00809963
-0.000191205
0.00813894
-0.000187638
0.00817758
-0.000184137
0.00821556
-0.000180702
0.00825289
-0.000177333
0.00828958
-0.000174029
0.00832565
-0.000170789
0.00836111
-0.000167611
0.00839597
-0.000164496
0.00843024
-0.000161442
0.00846394
-0.000158449
0.00849707
-0.000155515
0.00852965
-0.00015264
0.00856168
-0.000149823
0.00859319
-0.000147062
0.00862417
-0.000144357
0.00865464
-0.000141707
0.00868461
-0.00013911
0.00871409
-0.000136566
0.00874309
-0.000134074
0.00877163
-0.000131633
0.0087997
-0.000129241
0.00882732
-0.000126898
0.0088545
-0.000124603
0.00888124
-0.000122354
0.00890757
-0.000120151
0.00893348
-0.000117993
0.00895898
-0.000115878
0.00898409
-0.000113805
0.0090088
-0.000111773
0.00903314
-0.00010978
0.0090571
-0.000107826
0.0090807
-0.000105909
0.00910393
-0.000104028
0.00912682
-0.00010218
0.00914936
-0.000100365
0.00917156
-9.85787e-05
0.00919343
-9.68205e-05
0.00921498
-9.50873e-05
0.0092362
-9.33762e-05
0.00925711
-9.16837e-05
0.00927771
-9.00059e-05
0.009298
-8.8338e-05
0.00931799
-8.66747e-05
0.00933769
-8.50095e-05
0.00935708
-8.33367e-05
0.00937619
-8.16513e-05
0.00939501
-7.99403e-05
0.00941354
-7.82083e-05
-7.68364e-05
0.00862931
-0.000224768
0.00866237
-0.000220702
0.00869495
-0.000216712
0.00872704
-0.000212797
0.00875867
-0.000208956
0.00878983
-0.000205188
0.00882053
-0.000201492
0.00885079
-0.000197868
0.00888061
-0.000194315
0.00890999
-0.000190831
0.00893896
-0.000187416
0.00896751
-0.000184069
0.00899566
-0.000180788
0.00902341
-0.000177574
0.00905077
-0.000174423
0.00907775
-0.000171337
0.00910436
-0.000168313
0.0091306
-0.00016535
0.00915648
-0.000162448
0.00918201
-0.000159605
0.0092072
-0.00015682
0.00923205
-0.000154092
0.00925657
-0.00015142
0.00928077
-0.000148803
0.00930466
-0.000146239
0.00932823
-0.000143727
0.00935151
-0.000141267
0.00937449
-0.000138857
0.00939718
-0.000136496
0.00941959
-0.000134182
0.00944172
-0.000131914
0.00946358
-0.00012969
0.00948519
-0.00012751
0.00950653
-0.000125371
0.00952762
-0.000123272
0.00954847
-0.00012121
0.00956907
-0.000119184
0.00958944
-0.000117191
0.00960958
-0.000115229
0.0096295
-0.000113295
0.0096492
-0.000111385
0.00966869
-0.000109495
0.00968798
-0.000107622
0.00970706
-0.000105759
0.00972595
-0.000103901
0.00974466
-0.000102043
0.00976319
-0.000100181
0.00978155
-9.83029e-05
0.00979975
-9.64118e-05
-9.48957e-05
0.00917493
0.00920273
-0.000248508
0.00923023
-0.000244207
0.00925742
-0.000239986
0.00928431
-0.000235844
0.0093109
-0.00023178
0.0093372
-0.000227793
0.00936321
-0.000223882
0.00938895
-0.000220047
0.0094144
-0.000216288
0.00943959
-0.000212601
0.00946451
-0.000208988
0.00948916
-0.000205447
0.00951357
-0.000201976
0.00953772
-0.000198575
0.00956163
-0.000195243
0.00958529
-0.000191979
0.00960872
-0.000188781
0.00963192
-0.000185648
0.0096549
-0.00018258
0.00967765
-0.000179575
0.00970019
-0.000176632
0.00972252
-0.00017375
0.00974465
-0.000170927
0.00976657
-0.000168163
0.0097883
-0.000165456
0.00980984
-0.000162805
0.00983119
-0.000160208
0.00985236
-0.000157666
0.00987335
-0.000155175
0.00989417
-0.000152735
0.00991483
-0.000150344
0.00993532
-0.000148002
0.00995565
-0.000145705
0.00997583
-0.000143453
0.00999587
-0.000141243
0.0100158
-0.000139074
0.0100355
-0.000136943
0.0100551
-0.000134848
0.0100746
-0.000132786
0.010094
-0.000130754
0.0101132
-0.00012875
0.0101324
-0.000126768
0.0101514
-0.000124805
0.0101704
-0.000122857
0.0101893
-0.000120919
0.0102081
-0.000118989
0.0102268
-0.000117059
0.0102455
-0.00011513
-0.000113566
0.00970697
-0.000273077
0.00973138
-0.000268621
0.00975564
-0.000264246
0.00977975
-0.00025995
0.0098037
-0.000255735
0.00982751
-0.000251599
0.00985117
-0.000247541
0.00987468
-0.000243561
0.00989805
-0.000239658
0.00992128
-0.000235832
0.00994438
-0.00023208
0.00996733
-0.000228404
0.00999016
-0.0002248
0.0100129
-0.00022127
0.0100354
-0.00021781
0.0100579
-0.000214421
0.0100802
-0.000211102
0.0101024
-0.000207851
0.0101245
-0.000204667
0.0101464
-0.00020155
0.0101683
-0.000198497
0.0101901
-0.000195508
0.0102117
-0.000192583
0.0102333
-0.000189718
0.0102547
-0.000186915
0.0102761
-0.00018417
0.0102974
-0.000181483
0.0103186
-0.000178854
0.0103397
-0.000176279
0.0103607
-0.000173759
0.0103816
-0.000171292
0.0104025
-0.000168876
0.0104233
-0.00016651
0.0104441
-0.000164193
0.0104647
-0.000161921
0.0104854
-0.000159695
0.0105059
-0.000157512
0.0105265
-0.000155369
0.0105469
-0.000153265
0.0105674
-0.000151197
0.0105878
-0.000149163
0.0106082
-0.000147159
0.0106286
-0.000145183
0.0106489
-0.000143231
0.0106693
-0.000141302
0.0106897
-0.000139395
0.0107102
-0.000137506
0.0107307
-0.000135637
-0.000134104
0.0101292
0.0101533
-0.000292699
0.0101773
-0.000288285
0.0102013
-0.000283951
0.0102253
-0.000279695
0.0102492
-0.000275519
0.0102731
-0.00027142
0.0102969
-0.000267399
0.0103207
-0.000263456
0.0103445
-0.000259589
0.0103682
-0.000255798
0.0103919
-0.000252083
0.0104155
-0.000248442
0.0104391
-0.000244874
0.0104627
-0.000241379
0.0104862
-0.000237956
0.0105097
-0.000234604
0.0105332
-0.000231321
0.0105566
-0.000228107
0.0105801
-0.000224961
0.0106034
-0.000221882
0.0106268
-0.000218869
0.0106501
-0.00021592
0.0106735
-0.000213035
0.0106968
-0.000210212
0.01072
-0.000207451
0.0107433
-0.00020475
0.0107666
-0.000202108
0.0107898
-0.000199524
0.010813
-0.000196997
0.0108363
-0.000194526
0.0108595
-0.000192108
0.0108827
-0.000189744
0.010906
-0.000187431
0.0109292
-0.000185168
0.0109525
-0.000182954
0.0109758
-0.000180787
0.0109991
-0.000178665
0.0110224
-0.000176587
0.0110457
-0.000174551
0.0110691
-0.000172555
0.0110926
-0.000170598
0.0111161
-0.000168676
0.0111396
-0.000166789
0.0111632
-0.000164935
0.011187
-0.000163116
0.0112108
-0.000161328
0.0112347
-0.000159573
-0.00015811
0.0131431
-0.000287233
0.0131379
-0.000283054
0.0131329
-0.000278947
0.0131281
-0.00027491
0.0131235
-0.000270946
0.0131192
-0.000267052
0.013115
-0.000263231
0.013111
-0.00025948
0.0131072
-0.000255801
0.0131036
-0.000252192
0.0131002
-0.000248653
0.0130969
-0.000245184
0.0130939
-0.000241785
0.0130909
-0.000238453
0.0130882
-0.00023519
0.0130856
-0.000231993
0.0130831
-0.000228863
0.0130808
-0.000225799
0.0130786
-0.000222799
0.0130766
-0.000219864
0.0130747
-0.000216991
0.013073
-0.000214181
0.0130714
-0.000211432
0.0130699
-0.000208744
0.0130686
-0.000206115
0.0130674
-0.000203545
0.0130663
-0.000201032
0.0130653
-0.000198577
0.0130645
-0.000196177
0.0130638
-0.000193832
0.0130633
-0.000191542
0.0130628
-0.000189304
0.0130625
-0.000187118
0.0130623
-0.000184983
0.0130623
-0.000182898
0.0130624
-0.000180862
0.0130626
-0.000178873
0.0130629
-0.000176931
0.0130634
-0.000175036
0.013064
-0.000173184
0.0130648
-0.000171377
0.0130657
-0.000169612
0.0130668
-0.00016789
0.0130681
-0.000166209
0.0130696
-0.000164571
0.0130712
-0.000162975
0.0130731
-0.000161417
-0.000160107
0.0140124
-0.000274725
0.0140002
-0.000270868
0.0139884
-0.000267073
0.0139768
-0.00026334
0.0139655
-0.00025967
0.0139545
-0.000256062
0.0139438
-0.000252519
0.0139334
-0.000249038
0.0139232
-0.000245622
0.0139133
-0.000242269
0.0139036
-0.00023898
0.0138942
-0.000235754
0.013885
-0.000232592
0.013876
-0.000229493
0.0138673
-0.000226456
0.0138588
-0.000223481
0.0138505
-0.000220568
0.0138424
-0.000217716
0.0138345
-0.000214925
0.0138268
-0.000212194
0.0138194
-0.000209522
0.0138121
-0.00020691
0.013805
-0.000204355
0.0137981
-0.000201858
0.0137914
-0.000199418
0.0137849
-0.000197034
0.0137786
-0.000194705
0.0137725
-0.000192432
0.0137665
-0.000190213
0.0137607
-0.000188047
0.0137551
-0.000185934
0.0137497
-0.000183874
0.0137444
-0.000181865
0.0137393
-0.000179908
0.0137344
-0.000178001
0.0137297
-0.000176144
0.0137252
-0.000174336
0.0137208
-0.000172578
0.0137167
-0.000170868
0.0137127
-0.000169207
0.0137089
-0.000167594
0.0137053
-0.00016603
0.0137019
-0.000164515
0.0136988
-0.000163049
0.0136959
-0.000161635
0.0136931
-0.000160272
0.0136907
-0.000158961
-0.000157852
0.0147894
-0.00025708
0.0147721
-0.000253598
0.0147552
-0.000250166
0.0147387
-0.000246785
0.0147224
-0.000243458
0.0147066
-0.000240184
0.014691
-0.000236965
0.0146758
-0.0002338
0.0146608
-0.000230692
0.0146462
-0.000227639
0.0146319
-0.000224643
0.0146178
-0.000221703
0.014604
-0.00021882
0.0145905
-0.000215994
0.0145773
-0.000213224
0.0145643
-0.000210511
0.0145516
-0.000207853
0.0145392
-0.000205252
0.0145269
-0.000202707
0.014515
-0.000200217
0.0145032
-0.000197782
0.0144917
-0.000195402
0.0144804
-0.000193077
0.0144694
-0.000190805
0.0144586
-0.000188587
0.014448
-0.000186423
0.0144376
-0.000184311
0.0144274
-0.000182252
0.0144174
-0.000180245
0.0144077
-0.000178289
0.0143981
-0.000176386
0.0143888
-0.000174533
0.0143796
-0.000172731
0.0143707
-0.00017098
0.014362
-0.00016928
0.0143535
-0.00016763
0.0143452
-0.000166031
0.0143371
-0.000164482
0.0143292
-0.000162985
0.0143215
-0.00016154
0.0143141
-0.000160146
0.0143068
-0.000158806
0.0142998
-0.00015752
0.0142931
-0.000156291
0.0142866
-0.000155119
0.0142803
-0.000154009
0.0142743
-0.000152962
-0.000152079
0.0154565
-0.000236211
0.015436
-0.000233118
0.0154159
-0.000230065
0.0153962
-0.000227052
0.0153768
-0.000224083
0.0153578
-0.000221158
0.0153391
-0.000218279
0.0153208
-0.000215446
0.0153027
-0.000212661
0.015285
-0.000209924
0.0152676
-0.000207236
0.0152505
-0.000204598
0.0152337
-0.000202009
0.0152172
-0.000199471
0.0152009
-0.000196982
0.015185
-0.000194545
0.0151693
-0.000192158
0.0151538
-0.000189822
0.0151387
-0.000187537
0.0151238
-0.000185302
0.0151091
-0.000183118
0.0150947
-0.000180984
0.0150805
-0.000178901
0.0150666
-0.000176869
0.0150529
-0.000174886
0.0150394
-0.000172953
0.0150262
-0.000171071
0.0150131
-0.000169238
0.0150004
-0.000167455
0.0149878
-0.000165722
0.0149754
-0.000164038
0.0149633
-0.000162404
0.0149514
-0.00016082
0.0149397
-0.000159286
0.0149282
-0.000157802
0.014917
-0.000156369
0.0149059
-0.000154987
0.0148951
-0.000153657
0.0148845
-0.00015238
0.0148741
-0.000151157
0.014864
-0.000149988
0.014854
-0.000148876
0.0148443
-0.000147823
0.0148349
-0.00014683
0.0148256
-0.000145902
0.0148167
-0.000145041
0.014808
-0.000144253
-0.000143599
0.0160068
-0.000213848
0.0159848
-0.000211129
0.0159632
-0.000208439
0.0159419
-0.000205782
0.015921
-0.000203159
0.0159004
-0.000200572
0.0158802
-0.000198022
0.0158602
-0.000195511
0.0158406
-0.000193041
0.0158213
-0.000190611
0.0158023
-0.000188223
0.0157836
-0.000185878
0.0157651
-0.000183577
0.015747
-0.00018132
0.0157291
-0.000179107
0.0157115
-0.000176939
0.0156942
-0.000174817
0.0156771
-0.000172741
0.0156603
-0.00017071
0.0156437
-0.000168726
0.0156274
-0.000166787
0.0156113
-0.000164896
0.0155954
-0.00016305
0.0155798
-0.000161252
0.0155644
-0.0001595
0.0155493
-0.000157795
0.0155343
-0.000156138
0.0155196
-0.000154527
0.0155051
-0.000152963
0.0154908
-0.000151448
0.0154768
-0.000149979
0.0154629
-0.00014856
0.0154493
-0.000147188
0.0154359
-0.000145866
0.0154227
-0.000144593
0.0154097
-0.00014337
0.0153969
-0.000142199
0.0153843
-0.00014108
0.0153719
-0.000140014
0.0153598
-0.000139004
0.0153479
-0.00013805
0.0153361
-0.000137155
0.0153246
-0.000136322
0.0153134
-0.000135552
0.0153023
-0.00013485
0.0152915
-0.000134219
0.0152809
-0.000133668
-0.000133228
0.0164425
-0.000191393
0.0164204
-0.000189012
0.0163986
-0.000186652
0.0163772
-0.000184318
0.016356
-0.00018201
0.0163352
-0.000179731
0.0163146
-0.000177483
0.0162944
-0.000175267
0.0162744
-0.000173084
0.0162548
-0.000170936
0.0162354
-0.000168825
0.0162162
-0.00016675
0.0161974
-0.000164713
0.0161788
-0.000162716
0.0161604
-0.000160757
0.0161423
-0.000158839
0.0161245
-0.000156961
0.0161069
-0.000155125
0.0160895
-0.00015333
0.0160723
-0.000151577
0.0160554
-0.000149867
0.0160387
-0.000148199
0.0160222
-0.000146574
0.016006
-0.000144993
0.0159899
-0.000143455
0.0159741
-0.000141961
0.0159585
-0.000140511
0.015943
-0.000139106
0.0159278
-0.000137746
0.0159128
-0.000136431
0.015898
-0.000135162
0.0158834
-0.000133939
0.0158689
-0.000132764
0.0158547
-0.000131636
0.0158407
-0.000130557
0.0158268
-0.000129527
0.0158132
-0.000128548
0.0157997
-0.000127622
0.0157865
-0.000126749
0.0157734
-0.000125931
0.0157605
-0.000125171
0.0157478
-0.00012447
0.0157353
-0.000123832
0.015723
-0.000123259
0.0157109
-0.000122755
0.0156991
-0.000122325
0.0156874
-0.000121977
-0.000121723
0.0167731
-0.000169849
0.0167518
-0.00016776
0.0167309
-0.000165688
0.0167102
-0.000163635
0.0166898
-0.000161603
0.0166696
-0.000159593
0.0166498
-0.000157609
0.0166302
-0.000155652
0.0166108
-0.000153723
0.0165917
-0.000151824
0.0165728
-0.000149956
0.0165542
-0.00014812
0.0165358
-0.000146317
0.0165176
-0.000144549
0.0164997
-0.000142816
0.016482
-0.000141118
0.0164645
-0.000139458
0.0164472
-0.000137834
0.0164301
-0.000136249
0.0164132
-0.000134701
0.0163965
-0.000133193
0.0163801
-0.000131724
0.0163638
-0.000130295
0.0163477
-0.000128906
0.0163318
-0.000127557
0.0163161
-0.000126251
0.0163006
-0.000124985
0.0162852
-0.000123762
0.01627
-0.000122581
0.0162551
-0.000121444
0.0162403
-0.000120351
0.0162256
-0.000119302
0.0162112
-0.000118299
0.0161969
-0.000117342
0.0161827
-0.000116433
0.0161688
-0.000115572
0.016155
-0.00011476
0.0161414
-0.000114
0.0161279
-0.000113293
0.0161146
-0.000112641
0.0161015
-0.000112046
0.0160885
-0.00011151
0.0160757
-0.000111036
0.0160631
-0.000110628
0.0160506
-0.000110288
0.0160383
-0.000110022
0.0160262
-0.000109837
-0.000109735
0.0170125
-0.000149816
0.0169927
-0.000147977
0.0169731
-0.000146149
0.0169538
-0.000144335
0.0169348
-0.000142538
0.0169159
-0.00014076
0.0168973
-0.000139002
0.0168789
-0.000137267
0.0168608
-0.000135556
0.0168428
-0.000133871
0.0168251
-0.000132213
0.0168075
-0.000130583
0.0167902
-0.000128982
0.0167731
-0.000127412
0.0167561
-0.000125873
0.0167394
-0.000124367
0.0167228
-0.000122894
0.0167064
-0.000121454
0.0166902
-0.000120049
0.0166742
-0.00011868
0.0166584
-0.000117346
0.0166427
-0.000116049
0.0166272
-0.000114788
0.0166118
-0.000113565
0.0165967
-0.00011238
0.0165816
-0.000111234
0.0165668
-0.000110127
0.0165521
-0.00010906
0.0165375
-0.000108033
0.0165231
-0.000107048
0.0165089
-0.000106105
0.0164948
-0.000105204
0.0164808
-0.000104347
0.016467
-0.000103534
0.0164534
-0.000102767
0.0164398
-0.000102048
0.0164265
-0.000101376
0.0164132
-0.000100755
0.0164001
-0.000100185
0.0163871
-9.96682e-05
0.0163743
-9.92074e-05
0.0163616
-9.88045e-05
0.016349
-9.84623e-05
0.0163366
-9.81836e-05
0.0163243
-9.79718e-05
0.0163121
-9.78307e-05
0.0163
-9.77691e-05
-9.77802e-05
0.0171768
-0.00013155
0.0171588
-0.000129922
0.0171409
-0.000128302
0.0171233
-0.000126692
0.0171058
-0.000125096
0.0170886
-0.000123515
0.0170715
-0.000121951
0.0170547
-0.000120406
0.017038
-0.000118882
0.0170215
-0.00011738
0.0170052
-0.000115902
0.0169891
-0.000114449
0.0169731
-0.000113022
0.0169573
-0.000111622
0.0169417
-0.00011025
0.0169262
-0.000108908
0.0169109
-0.000107596
0.0168958
-0.000106314
0.0168808
-0.000105064
0.016866
-0.000103847
0.0168513
-0.000102662
0.0168368
-0.000101511
0.0168224
-0.000100395
0.0168081
-9.93134e-05
0.016794
-9.82676e-05
0.01678
-9.72576e-05
0.0167662
-9.62847e-05
0.0167525
-9.53491e-05
0.0167389
-9.44521e-05
0.0167254
-9.35938e-05
0.0167121
-9.27755e-05
0.0166989
-9.19976e-05
0.0166858
-9.12615e-05
0.0166729
-9.05679e-05
0.01666
-8.99182e-05
0.0166473
-8.93135e-05
0.0166346
-8.8755e-05
0.0166221
-8.82444e-05
0.0166097
-8.77835e-05
0.0165974
-8.73738e-05
0.0165853
-8.70174e-05
0.0165732
-8.67167e-05
0.0165612
-8.64741e-05
0.0165493
-8.6292e-05
0.0165375
-8.61733e-05
0.0165258
-8.6122e-05
0.0165142
-8.61451e-05
-8.62332e-05
0.0172825
-0.000115048
0.0172661
-0.000113602
0.01725
-0.000112162
0.017234
-0.000110729
0.0172183
-0.000109307
0.0172026
-0.000107898
0.0171872
-0.000106503
0.0171719
-0.000105124
0.0171568
-0.000103762
0.0171418
-0.000102421
0.017127
-0.0001011
0.0171124
-9.98006e-05
0.0170979
-9.85248e-05
0.0170835
-9.72734e-05
0.0170693
-9.60474e-05
0.0170553
-9.48477e-05
0.0170413
-9.36753e-05
0.0170276
-9.2531e-05
0.0170139
-9.14155e-05
0.0170004
-9.03296e-05
0.016987
-8.92741e-05
0.0169737
-8.82496e-05
0.0169606
-8.72568e-05
0.0169476
-8.62964e-05
0.0169347
-8.5369e-05
0.0169219
-8.44753e-05
0.0169092
-8.36159e-05
0.0168967
-8.27917e-05
0.0168842
-8.20033e-05
0.0168719
-8.12515e-05
0.0168597
-8.05371e-05
0.0168475
-7.9861e-05
0.0168355
-7.92241e-05
0.0168235
-7.86275e-05
0.0168117
-7.80723e-05
0.0167999
-7.75596e-05
0.0167883
-7.70907e-05
0.0167767
-7.66671e-05
0.0167652
-7.62903e-05
0.0167538
-7.5962e-05
0.0167425
-7.5684e-05
0.0167312
-7.54583e-05
0.01672
-7.5287e-05
0.0167089
-7.51724e-05
0.0166978
-7.5117e-05
0.0166868
-7.51237e-05
0.0166759
-7.51989e-05
-7.53322e-05
0.0173443
-0.000100139
0.0173296
-9.88565e-05
0.017315
-9.75771e-05
0.0173005
-9.63039e-05
0.0172863
-9.50386e-05
0.0172722
-9.37834e-05
0.0172582
-9.25402e-05
0.0172444
-9.13106e-05
0.0172307
-9.00963e-05
0.0172172
-8.88986e-05
0.0172038
-8.7719e-05
0.0171906
-8.65591e-05
0.0171775
-8.54194e-05
0.0171645
-8.43014e-05
0.0171517
-8.32062e-05
0.0171389
-8.21344e-05
0.0171264
-8.10875e-05
0.0171139
-8.00657e-05
0.0171015
-7.90699e-05
0.0170893
-7.81015e-05
0.0170772
-7.71601e-05
0.0170652
-7.62475e-05
0.0170533
-7.53638e-05
0.0170415
-7.45098e-05
0.0170298
-7.36861e-05
0.0170183
-7.28936e-05
0.0170068
-7.21327e-05
0.0169954
-7.14044e-05
0.0169841
-7.07089e-05
0.0169729
-7.00479e-05
0.0169618
-6.94212e-05
0.0169507
-6.88303e-05
0.0169398
-6.82758e-05
0.0169289
-6.77587e-05
0.0169181
-6.72804e-05
0.0169074
-6.68416e-05
0.0168968
-6.64433e-05
0.0168862
-6.60875e-05
0.0168757
-6.5775e-05
0.0168652
-6.55074e-05
0.0168548
-6.52864e-05
0.0168445
-6.51136e-05
0.0168342
-6.49909e-05
0.0168239
-6.49203e-05
0.0168137
-6.49036e-05
0.0168035
-6.49433e-05
0.0167934
-6.50443e-05
-6.5197e-05
0.0173751
-8.65721e-05
0.0173617
-8.54411e-05
0.0173484
-8.4312e-05
0.0173353
-8.3187e-05
0.0173223
-8.2068e-05
0.0173095
-8.09571e-05
0.0172968
-7.98559e-05
0.0172843
-7.87661e-05
0.0172718
-7.76892e-05
0.0172596
-7.66266e-05
0.0172474
-7.55796e-05
0.0172354
-7.45495e-05
0.0172235
-7.35373e-05
0.0172118
-7.25441e-05
0.0172002
-7.15709e-05
0.0171886
-7.06186e-05
0.0171772
-6.96882e-05
0.017166
-6.87803e-05
0.0171548
-6.78958e-05
0.0171437
-6.70355e-05
0.0171328
-6.61999e-05
0.0171219
-6.53899e-05
0.0171111
-6.46062e-05
0.0171005
-6.38492e-05
0.0170899
-6.31198e-05
0.0170794
-6.24186e-05
0.017069
-6.17463e-05
0.0170587
-6.11035e-05
0.0170485
-6.0491e-05
0.0170384
-5.99094e-05
0.0170283
-5.93596e-05
0.0170183
-5.88423e-05
0.0170084
-5.83583e-05
0.0169986
-5.79087e-05
0.0169888
-5.74942e-05
0.0169791
-5.7116e-05
0.0169694
-5.6775e-05
0.0169598
-5.64724e-05
0.0169502
-5.62095e-05
0.0169407
-5.59874e-05
0.0169312
-5.58075e-05
0.0169218
-5.56713e-05
0.0169124
-5.55802e-05
0.016903
-5.55357e-05
0.0168936
-5.55395e-05
0.0168843
-5.55933e-05
0.0168749
-5.57013e-05
-5.58539e-05
0.0173851
-7.40741e-05
0.0173727
-7.30888e-05
0.0173605
-7.2104e-05
0.0173485
-7.11216e-05
0.0173365
-7.0144e-05
0.0173247
-6.91724e-05
0.0173131
-6.82088e-05
0.0173016
-6.72542e-05
0.0172902
-6.63104e-05
0.017279
-6.53787e-05
0.0172678
-6.44601e-05
0.0172568
-6.35559e-05
0.017246
-6.26674e-05
0.0172352
-6.17949e-05
0.0172246
-6.09398e-05
0.0172141
-6.01031e-05
0.0172037
-5.92854e-05
0.0171934
-5.84875e-05
0.0171832
-5.771e-05
0.0171731
-5.69538e-05
0.0171631
-5.62195e-05
0.0171533
-5.55077e-05
0.0171435
-5.48193e-05
0.0171338
-5.41549e-05
0.0171242
-5.35145e-05
0.0171146
-5.28997e-05
0.0171052
-5.23101e-05
0.0170959
-5.17475e-05
0.0170866
-5.12114e-05
0.0170774
-5.07032e-05
0.0170682
-5.02234e-05
0.0170592
-4.97727e-05
0.0170502
-4.9352e-05
0.0170412
-4.89619e-05
0.0170323
-4.86034e-05
0.0170235
-4.82771e-05
0.0170147
-4.79843e-05
0.0170059
-4.77256e-05
0.0169972
-4.75025e-05
0.0169886
-4.73154e-05
0.0169799
-4.71659e-05
0.0169713
-4.7055e-05
0.0169627
-4.69837e-05
0.0169541
-4.69536e-05
0.0169456
-4.69656e-05
0.016937
-4.7021e-05
0.0169284
-4.71229e-05
-4.72631e-05
0.0173822
-6.23904e-05
0.0173707
-6.15478e-05
0.0173593
-6.07048e-05
0.017348
-5.98633e-05
0.0173369
-5.90248e-05
0.0173259
-5.81909e-05
0.0173151
-5.73631e-05
0.0173044
-5.65427e-05
0.0172938
-5.5731e-05
0.0172833
-5.49291e-05
0.017273
-5.41382e-05
0.0172628
-5.33593e-05
0.0172527
-5.25933e-05
0.0172428
-5.18412e-05
0.0172329
-5.11037e-05
0.0172232
-5.03818e-05
0.0172136
-4.9676e-05
0.0172041
-4.89872e-05
0.0171947
-4.8316e-05
0.0171854
-4.76631e-05
0.0171762
-4.70291e-05
0.0171671
-4.64145e-05
0.0171581
-4.58201e-05
0.0171492
-4.52463e-05
0.0171404
-4.46937e-05
0.0171317
-4.4163e-05
0.017123
-4.36546e-05
0.0171145
-4.31692e-05
0.0171059
-4.27074e-05
0.0170975
-4.22697e-05
0.0170891
-4.18568e-05
0.0170808
-4.14693e-05
0.0170726
-4.11079e-05
0.0170644
-4.07732e-05
0.0170563
-4.04661e-05
0.0170482
-4.01872e-05
0.0170401
-3.99372e-05
0.0170321
-3.97171e-05
0.0170242
-3.95277e-05
0.0170162
-3.93697e-05
0.0170083
-3.92441e-05
0.0170004
-3.91517e-05
0.0169925
-3.90935e-05
0.0169846
-3.90703e-05
0.0169767
-3.9083e-05
0.0169688
-3.91325e-05
0.0169609
-3.9221e-05
-3.93416e-05
0.0173723
-5.1304e-05
0.0173614
-5.06029e-05
0.0173506
-4.99009e-05
0.0173399
-4.91995e-05
0.0173294
-4.84999e-05
0.017319
-4.78039e-05
0.0173088
-4.71121e-05
0.0172986
-4.64263e-05
0.0172887
-4.57473e-05
0.0172788
-4.5076e-05
0.0172691
-4.44138e-05
0.0172595
-4.37609e-05
0.01725
-4.3119e-05
0.0172406
-4.24879e-05
0.0172314
-4.18693e-05
0.0172223
-4.12634e-05
0.0172133
-4.06707e-05
0.0172044
-4.00924e-05
0.0171956
-3.95283e-05
0.0171869
-3.89799e-05
0.0171783
-3.84471e-05
0.0171699
-3.79305e-05
0.0171615
-3.74308e-05
0.0171532
-3.69484e-05
0.017145
-3.6484e-05
0.0171368
-3.6038e-05
0.0171288
-3.56104e-05
0.0171208
-3.52027e-05
0.0171129
-3.48144e-05
0.0171051
-3.44469e-05
0.0170974
-3.41001e-05
0.0170897
-3.37749e-05
0.017082
-3.34715e-05
0.0170744
-3.31907e-05
0.0170669
-3.29334e-05
0.0170594
-3.26998e-05
0.017052
-3.24904e-05
0.0170446
-3.23065e-05
0.0170372
-3.21478e-05
0.0170298
-3.2016e-05
0.0170225
-3.19111e-05
0.0170152
-3.18338e-05
0.0170079
-3.17852e-05
0.0170006
-3.17653e-05
0.0169933
-3.17753e-05
0.0169859
-3.18154e-05
0.0169786
-3.18873e-05
-3.19852e-05
0.0173596
-4.0641e-05
0.017349
-4.00811e-05
0.0173387
-3.95198e-05
0.0173284
-3.89585e-05
0.0173183
-3.83984e-05
0.0173083
-3.78405e-05
0.0172985
-3.7286e-05
0.0172888
-3.67357e-05
0.0172793
-3.61905e-05
0.0172698
-3.56514e-05
0.0172606
-3.51191e-05
0.0172514
-3.45943e-05
0.0172423
-3.40778e-05
0.0172334
-3.35702e-05
0.0172246
-3.30721e-05
0.017216
-3.2584e-05
0.0172074
-3.21067e-05
0.0171989
-3.16405e-05
0.0171906
-3.1186e-05
0.0171824
-3.07437e-05
0.0171742
-3.0314e-05
0.0171662
-2.98974e-05
0.0171583
-2.94942e-05
0.0171504
-2.9105e-05
0.0171427
-2.87302e-05
0.017135
-2.83701e-05
0.0171274
-2.80252e-05
0.0171199
-2.76959e-05
0.0171125
-2.73826e-05
0.0171051
-2.70858e-05
0.0170978
-2.68059e-05
0.0170906
-2.65433e-05
0.0170834
-2.62986e-05
0.0170763
-2.6072e-05
0.0170692
-2.58642e-05
0.0170622
-2.56755e-05
0.0170552
-2.55066e-05
0.0170483
-2.53579e-05
0.0170413
-2.52298e-05
0.0170344
-2.51229e-05
0.0170276
-2.50377e-05
0.0170207
-2.49747e-05
0.0170139
-2.49344e-05
0.017007
-2.4917e-05
0.0170002
-2.49232e-05
0.0169933
-2.49531e-05
0.0169864
-2.50079e-05
-2.50832e-05
0.0173468
-3.02684e-05
0.0173365
-2.98488e-05
0.0173264
-2.94283e-05
0.0173165
-2.90075e-05
0.0173067
-2.8587e-05
0.017297
-2.8168e-05
0.0172875
-2.77516e-05
0.0172781
-2.73378e-05
0.0172688
-2.69278e-05
0.0172597
-2.65221e-05
0.0172507
-2.61215e-05
0.0172418
-2.57265e-05
0.0172331
-2.53372e-05
0.0172245
-2.49546e-05
0.017216
-2.45793e-05
0.0172076
-2.42112e-05
0.0171993
-2.38511e-05
0.0171912
-2.34993e-05
0.0171832
-2.31563e-05
0.0171752
-2.28224e-05
0.0171674
-2.24979e-05
0.0171597
-2.21831e-05
0.0171521
-2.18787e-05
0.0171446
-2.15847e-05
0.0171371
-2.13013e-05
0.0171298
-2.1029e-05
0.0171225
-2.07685e-05
0.0171154
-2.05193e-05
0.0171083
-2.02827e-05
0.0171012
-2.0058e-05
0.0170943
-1.98464e-05
0.0170874
-1.96479e-05
0.0170806
-1.94626e-05
0.0170738
-1.9291e-05
0.017067
-1.91339e-05
0.0170604
-1.89909e-05
0.0170537
-1.8863e-05
0.0170471
-1.87501e-05
0.0170405
-1.86527e-05
0.017034
-1.85715e-05
0.0170274
-1.85063e-05
0.0170209
-1.84578e-05
0.0170144
-1.8426e-05
0.0170079
-1.84116e-05
0.0170014
-1.84146e-05
0.0169949
-1.84351e-05
0.0169884
-1.84738e-05
-1.85282e-05
0.0173358
-2.00855e-05
0.0173258
-1.98062e-05
0.0173159
-1.9526e-05
0.0173061
-1.92454e-05
0.0172965
-1.89651e-05
0.017287
-1.86856e-05
0.0172777
-1.84075e-05
0.0172685
-1.81314e-05
0.0172594
-1.78575e-05
0.0172505
-1.75865e-05
0.0172417
-1.73187e-05
0.017233
-1.70545e-05
0.0172244
-1.67942e-05
0.017216
-1.65383e-05
0.0172077
-1.62871e-05
0.0171996
-1.60407e-05
0.0171915
-1.57997e-05
0.0171836
-1.55641e-05
0.0171758
-1.53344e-05
0.017168
-1.51106e-05
0.0171604
-1.48932e-05
0.0171529
-1.46823e-05
0.0171455
-1.44782e-05
0.0171382
-1.4281e-05
0.017131
-1.40911e-05
0.0171239
-1.39086e-05
0.0171169
-1.37337e-05
0.0171099
-1.35667e-05
0.017103
-1.34078e-05
0.0170962
-1.32571e-05
0.0170895
-1.31151e-05
0.0170828
-1.29817e-05
0.0170762
-1.28574e-05
0.0170697
-1.27422e-05
0.0170632
-1.26365e-05
0.0170567
-1.25405e-05
0.0170503
-1.24543e-05
0.017044
-1.23784e-05
0.0170376
-1.23128e-05
0.0170313
-1.22578e-05
0.017025
-1.22136e-05
0.0170187
-1.21804e-05
0.0170125
-1.21584e-05
0.0170062
-1.21478e-05
0.0169999
-1.21486e-05
0.0169937
-1.21611e-05
0.0169874
-1.21857e-05
-1.22208e-05
0.017328
-1.00163e-05
0.017318
-9.87671e-06
0.0173082
-9.73666e-06
0.0172986
-9.59628e-06
0.0172891
-9.45623e-06
0.0172797
-9.31645e-06
0.0172705
-9.17745e-06
0.0172614
-9.03912e-06
0.0172524
-8.90205e-06
0.0172436
-8.76636e-06
0.0172349
-8.63225e-06
0.0172264
-8.49992e-06
0.017218
-8.36944e-06
0.0172097
-8.24134e-06
0.0172015
-8.11542e-06
0.0171934
-7.99196e-06
0.0171855
-7.87124e-06
0.0171777
-7.75303e-06
0.01717
-7.63771e-06
0.0171624
-7.52575e-06
0.0171549
-7.41658e-06
0.0171476
-7.31079e-06
0.0171403
-7.20826e-06
0.0171331