/*--------------------------------*- C++ -*----------------------------------*\
  =========                 |
  \\      /  F ield         | OpenFOAM: The Open Source CFD Toolbox
   \\    /   O peration     | Website:  https://openfoam.org
    \\  /    A nd           | Version:  7
     \\/     M anipulation  |
\*---------------------------------------------------------------------------*/
FoamFile
{
    version     2.0;
    format      ascii;
    class       volVectorField;
    location    "45";
    object      U;
}
// * * * * * * * * * * * * * * * * * * * * * * * * * * * * * * * * * * * * * //

dimensions      [0 1 -1 0 0 0 0];

internalField   nonuniform List<vector> 
1360
(
(1.22153 0.00140134 8.72918e-28)
(1.21831 0.000907864 -8.72918e-28)
(1.21569 0.00056013 0)
(1.2137 0.000322969 0)
(1.21236 0.000163132 9.20049e-28)
(1.21169 4.92274e-05 -9.25874e-28)
(0.955875 0.0649289 0)
(1.04866 0.057936 0)
(1.12174 0.0489054 3.01146e-11)
(1.17459 0.0399823 -3.01146e-11)
(1.20955 0.0319237 0)
(1.23039 0.0251007 0)
(1.24104 0.0195592 1.22052e-27)
(1.24487 0.0151615 -1.22052e-27)
(1.24448 0.0117104 -1.0269e-27)
(1.2417 0.00901023 1.0269e-27)
(1.23774 0.00689419 0)
(1.23334 0.00523165 0)
(1.22896 0.00392444 -2.18997e-11)
(1.22487 0.00289947 2.18997e-11)
(1.2212 0.00210095 0)
(1.21807 0.00148407 0)
(1.21551 0.00101056 2.02545e-11)
(1.21356 0.000645854 -2.02545e-11)
(1.21225 0.000357302 0)
(1.2116 0.000114024 0)
(0.95273 0.065225 0)
(1.04454 0.0585246 0)
(1.11728 0.0498263 0)
(1.17033 0.0411427 0)
(1.2058 0.0332238 0)
(1.22726 0.0264573 0)
(1.23851 0.0209132 0)
(1.24287 0.0164747 0)
(1.24291 0.0129588 0)
(1.24046 0.0101785 0)
(1.23675 0.00797225 0)
(1.23256 0.00621222 0)
(1.22834 0.00480182 -4.34135e-11)
(1.22437 0.0036689 4.34135e-11)
(1.22082 0.00275842 0)
(1.21776 0.00202628 0)
(1.21526 0.00143485 4.03247e-11)
(1.21337 0.000950242 -4.03247e-11)
(1.21209 0.000540447 -1.26198e-27)
(1.21145 0.000175158 1.26997e-27)
(0.949738 0.0654195 0)
(1.04059 0.0589955 0)
(1.11297 0.0506158 0)
(1.16617 0.0421679 0)
(1.20211 0.0343928 0)
(1.22415 0.027691 0)
(1.23598 0.0221539 0)
(1.24084 0.0176844 0)
(1.24129 0.0141134 0)
(1.23917 0.0112625 0)
(1.23573 0.00897526 0)
(1.23173 0.00712667 0)
(1.22767 0.0056217 -2.1497e-11)
(1.22383 0.0043892 2.1497e-11)
(1.22037 0.00337487 -8.56569e-28)
(1.2174 0.00253531 8.56569e-28)
(1.21496 0.0018336 4.01011e-11)
(1.21311 0.00123654 -4.01011e-11)
(1.21186 0.0007128 0)
(1.21124 0.000232706 0)
(0.946891 0.0655197 0)
(1.03679 0.0593576 0)
(1.1088 0.0512831 0)
(1.16211 0.0430668 0)
(1.19846 0.0354385 0)
(1.22106 0.0288083 0)
(1.23344 0.0232867 0)
(1.23879 0.0187954 0)
(1.23965 0.0151783 0)
(1.23785 0.0122656 0)
(1.23466 0.00990606 0)
(1.23086 0.00797732 0)
(1.22695 0.00638598 0)
(1.22324 0.00506187 0)
(1.21988 0.00395147 0)
(1.21698 0.00301207 0)
(1.21461 0.00220747 1.99204e-11)
(1.2128 0.00150518 -1.99204e-11)
(1.21158 0.000874617 0)
(1.21097 0.000286751 0)
(0.94418 0.0655327 0)
(1.03315 0.0596189 0)
(1.10475 0.0518369 0)
(1.15814 0.0438477 0)
(1.19488 0.0363682 0)
(1.21799 0.0298155 0)
(1.2309 0.0243173 0)
(1.23673 0.0198123 0)
(1.23798 0.0161574 0)
(1.2365 0.0131913 0)
(1.23355 0.0107675 0)
(1.22995 0.00876653 0)
(1.22619 0.00709658 -2.10325e-11)
(1.2226 0.00568847 2.10325e-11)
(1.21933 0.00448944 0)
(1.21651 0.00345749 0)
(1.2142 0.00255714 8.208e-28)
(1.21243 0.00175665 -8.208e-28)
(1.21124 0.00102617 8.98938e-28)
(1.21065 0.000337383 -9.04629e-28)
(0.941598 0.0654652 -2.80864e-27)
(1.02964 0.0597872 0)
(1.10084 0.0522855 -5.91981e-29)
(1.15427 0.0445183 -2.79645e-27)
(1.19135 0.0371889 4.91731e-11)
(1.21495 0.0307188 4.81494e-11)
(1.22837 0.0252508 4.70792e-11)
(1.23465 0.0207398 4.59933e-11)
(1.23629 0.0170549 0)
(1.23512 0.014043 0)
(1.23241 0.0115624 0)
(1.229 0.00949668 0)
(1.22539 0.00775547 -2.07804e-11)
(1.22191 0.0062706 6.11383e-11)
(1.21874 0.00499006 2.6962e-19)
(1.216 0.00387256 -3.91362e-11)
(1.21374 0.00288335 -8.14024e-28)
(1.21202 0.00199144 8.14024e-28)
(1.21086 0.00116776 0)
(1.21028 0.000384699 -1.91321e-27)
(0.939139 0.0653234 2.80862e-27)
(1.02628 0.0598697 0)
(1.09705 0.0526366 0)
(1.15049 0.0450861 2.85564e-27)
(1.18788 0.0379074 -4.91731e-11)
(1.21194 0.0315242 -4.81494e-11)
(1.22584 0.0260926 -4.70792e-11)
(1.23257 0.0215824 -4.59933e-11)
(1.23459 0.0178745 1.92633e-27)
(1.23372 0.0148239 -1.92633e-27)
(1.23125 0.0122937 2.13367e-11)
(1.22802 0.0101702 -2.13367e-11)
(1.22456 0.00836462 -2.05168e-11)
(1.22119 0.00680986 -1.98411e-11)
(1.21812 0.00545461 3.65206e-28)
(1.21544 0.00425828 3.91362e-11)
(1.21324 0.00318684 1.67912e-27)
(1.21156 0.00221008 -1.67912e-27)
(1.21043 0.00129967 -1.22122e-27)
(1.20986 0.000428797 3.14216e-27)
(0.936796 0.0651135 0)
(1.02304 0.0598733 0)
(1.09338 0.0528974 0)
(1.1468 0.0455583 0)
(1.18448 0.0385301 -4.07112e-28)
(1.20896 0.0322374 4.07112e-28)
(1.22333 0.0268476 0)
(1.23049 0.0223444 0)
(1.23287 0.0186201 0)
(1.23229 0.0155373 0)
(1.23005 0.0129641 4.1991e-11)
(1.22701 0.0107893 -4.1991e-11)
(1.22369 0.00892604 -4.04853e-11)
(1.22044 0.00730791 4.04853e-11)
(1.21745 0.00588442 -3.37492e-28)
(1.21485 0.00461568 3.37492e-28)
(1.2127 0.0034684 0)
(1.21106 0.00241309 0)
(1.20996 0.00142224 0)
(1.2094 0.000469782 0)
(0.934563 0.0648411 0)
(1.01993 0.0598044 0)
(1.08982 0.0530748 -8.4869e-28)
(1.1432 0.0459416 8.4869e-28)
(1.18113 0.0390633 0)
(1.20602 0.0328639 0)
(1.22083 0.0275206 0)
(1.2284 0.0230301 0)
(1.23114 0.0192954 -5.14444e-28)
(1.23085 0.0161865 5.14444e-28)
(1.22884 0.0135764 2.06479e-11)
(1.22597 0.0113566 -2.06479e-11)
(1.22279 0.00944172 -3.99184e-11)
(1.21965 0.00776638 3.99184e-11)
(1.21675 0.00628083 0)
(1.21422 0.00494583 0)
(1.21213 0.00372881 0)
(1.21053 0.00260103 0)
(1.20944 0.00153578 7.3946e-28)
(1.2089 0.00050776 -7.44141e-28)
(0.932434 0.0645117 0)
(1.01693 0.0596689 0)
(1.08637 0.0531754 0)
(1.1397 0.0462423 0)
(1.17785 0.0395129 0)
(1.20311 0.033409 0)
(1.21834 0.0281165 0)
(1.22632 0.0236437 0)
(1.2294 0.019904 3.60863e-28)
(1.22939 0.0167747 -3.60863e-28)
(1.22761 0.0141334 0)
(1.22491 0.0118743 0)
(1.22187 0.00991363 -1.96674e-11)
(1.21884 0.00818694 1.96674e-11)
(1.21602 0.00664517 0)
(1.21356 0.00524977 0)
(1.21152 0.00396886 1.882e-11)
(1.20995 0.00277446 -1.882e-11)
(1.2089 0.00164062 0)
(1.20836 0.000542841 0)
(0.930405 0.0641304 -5.42032e-28)
(1.01405 0.0594725 5.42746e-28)
(1.08303 0.053205 0)
(1.13628 0.0464664 0)
(1.17462 0.0398844 0)
(1.20024 0.0338778 0)
(1.21588 0.0286396 0)
(1.22424 0.0241892 0)
(1.22765 0.0204495 0)
(1.22792 0.017305 0)
(1.22635 0.0146377 4.78414e-28)
(1.22383 0.0123448 -4.78414e-28)
(1.22092 0.0103438 -1.93683e-11)
(1.21799 0.00857122 1.93683e-11)
(1.21526 0.00697879 4.53798e-28)
(1.21286 0.00552858 -4.53798e-28)
(1.21087 0.00418937 1.85935e-11)
(1.20935 0.00293393 -1.85935e-11)
(1.20831 0.0017371 -7.23257e-28)
(1.20779 0.000575134 7.27836e-28)
(0.92847 0.0637019 3.7494e-28)
(1.01127 0.0592205 -3.75437e-28)
(1.0798 0.0531696 0)
(1.13295 0.0466196 0)
(1.17147 0.0401832 0)
(1.19741 0.0342751 0)
(1.21343 0.0290944 0)
(1.22217 0.0246704 0)
(1.22591 0.0209353 -3.46096e-28)
(1.22645 0.0177803 3.46096e-28)
(1.22509 0.0150921 0)
(1.22273 0.0127703 0)
(1.21996 0.010734 -3.81256e-11)
(1.21713 0.00892084 3.81256e-11)
(1.21448 0.00728302 0)
(1.21214 0.0057833 0)
(1.2102 0.00439114 1.83574e-11)
(1.20871 0.00308002 -1.83574e-11)
(1.2077 0.00182554 0)
(1.20719 0.000604749 0)
(0.926624 0.0632308 -8.75611e-28)
(1.0086 0.058918 8.76774e-28)
(1.07666 0.0530744 0)
(1.1297 0.0467074 0)
(1.16837 0.0404145 0)
(1.19462 0.0346057 0)
(1.21101 0.0294851 0)
(1.2201 0.0250912 0)
(1.22416 0.0213647 -1.9721e-11)
(1.22496 0.0182037 1.9721e-11)
(1.22382 0.015499 0)
(1.22162 0.0131531 0)
(1.21897 0.0110864 -3.75034e-11)
(1.21625 0.00923743 3.75034e-11)
(1.21367 0.0075592 -7.62818e-28)
(1.2114 0.00601501 7.62818e-28)
(1.2095 0.00457498 3.62251e-11)
(1.20805 0.00321328 -3.62251e-11)
(1.20706 0.00190628 0)
(1.20656 0.000631799 0)
(0.924863 0.0627214 1.76117e-27)
(1.00602 0.0585695 -1.76351e-27)
(1.07362 0.0529244 2.32005e-28)
(1.12653 0.0467349 -2.32005e-28)
(1.16533 0.040583 0)
(1.19187 0.0348739 0)
(1.20861 0.0298157 0)
(1.21805 0.0254551 0)
(1.22242 0.0217411 -1.92938e-11)
(1.22347 0.018578 1.92938e-11)
(1.22253 0.0158611 0)
(1.2205 0.0134953 0)
(1.21797 0.0114027 -1.84359e-11)
(1.21534 0.00952256 1.84359e-11)
(1.21285 0.00780862 0)
(1.21063 0.00622475 0)
(1.20878 0.00474168 3.57196e-11)
(1.20736 0.00333428 -3.57196e-11)
(1.20639 0.00197967 1.12769e-27)
(1.2059 0.000656392 -1.13483e-27)
(0.923183 0.0621776 0)
(1.00354 0.0581795 0)
(1.07068 0.0527246 0)
(1.12344 0.0467067 0)
(1.16236 0.0406934 8.10689e-28)
(1.18916 0.0350841 -8.10689e-28)
(1.20623 0.0300901 -8.86153e-28)
(1.21601 0.0257656 8.86153e-28)
(1.22067 0.0220674 0)
(1.22198 0.018906 0)
(1.22124 0.0161807 0)
(1.21936 0.0137991 0)
(1.21696 0.0116847 0)
(1.21442 0.0097778 0)
(1.212 0.00803257 7.39495e-28)
(1.20984 0.00641354 -7.39495e-28)
(1.20804 0.00489203 1.76e-11)
(1.20665 0.00344358 -1.76e-11)
(1.2057 0.00204601 -8.05616e-28)
(1.20522 0.000678639 8.10716e-28)
(0.92158 0.0616031 0)
(1.00115 0.0577521 0)
(1.06782 0.0524792 0)
(1.12043 0.0466275 0)
(1.15944 0.0407501 -1.64004e-27)
(1.1865 0.0352403 1.64004e-27)
(1.20388 0.030312 1.8753e-11)
(1.21398 0.026026 -1.8753e-11)
(1.21894 0.0223467 0)
(1.22049 0.0191903 0)
(1.21994 0.0164603 0)
(1.21822 0.0140666 0)
(1.21593 0.0119344 -1.77931e-11)
(1.21349 0.0100047 1.77931e-11)
(1.21114 0.00823233 0)
(1.20904 0.00658241 0)
(1.20727 0.00502682 0)
(1.20591 0.00354172 0)
(1.20499 0.00210566 0)
(1.20452 0.000698649 0)
(0.920049 0.0610015 0)
(0.998843 0.057291 0)
(1.06505 0.0521924 4.2085e-29)
(1.1175 0.0465015 -4.2085e-29)
(1.15658 0.0407571 0)
(1.18387 0.0353464 0)
(1.20156 0.0304848 1.82759e-11)
(1.21197 0.0262397 -1.82759e-11)
(1.21721 0.0225819 0)
(1.219 0.0194336 0)
(1.21864 0.0167021 -7.3656e-28)
(1.21707 0.0142998 7.3656e-28)
(1.2149 0.0121534 -3.49349e-11)
(1.21255 0.0102047 3.49349e-11)
(1.21027 0.00840913 0)
(1.20822 0.00673237 0)
(1.2065 0.00514681 0)
(1.20516 0.00362925 0)
(1.20426 0.00215892 0)
(1.2038 0.000716529 0)
(0.918587 0.0603761 1.22033e-27)
(0.996618 0.0568 2.59499e-27)
(1.06236 0.0518683 2.044e-28)
(1.11464 0.0463327 -2.044e-28)
(1.15379 0.0407184 0)
(1.18129 0.0354059 0)
(1.19927 0.030612 1.13212e-27)
(1.20998 0.0264095 -1.13212e-27)
(1.21549 0.0227758 0)
(1.21751 0.0196383 0)
(1.21734 0.0169083 0)
(1.21591 0.0145007 0)
(1.21386 0.0123434 -3.42798e-11)
(1.21159 0.0103792 3.42798e-11)
(1.20938 0.00856419 -1.46338e-27)
(1.20738 0.00686438 1.46338e-27)
(1.2057 0.00525276 -1.45048e-27)
(1.2044 0.00370671 1.45048e-27)
(1.20351 0.00220611 3.27131e-11)
(1.20307 0.000732384 3.2883e-11)
(0.917191 0.0597297 -4.75197e-28)
(0.994472 0.0562821 -3.34112e-27)
(1.05975 0.0515103 0)
(1.11185 0.0461249 0)
(1.15105 0.0406376 0)
(1.17875 0.0354225 0)
(1.197 0.0306969 -7.98965e-28)
(1.208 0.0265386 7.98965e-28)
(1.21378 0.022931 0)
(1.21602 0.0198069 0)
(1.21604 0.0170811 0)
(1.21475 0.0146711 0)
(1.21281 0.0125061 -1.6811e-11)
(1.21063 0.0105298 1.6811e-11)
(1.20848 0.00869869 0)
(1.20654 0.0069794 0)
(1.20489 0.00534539 1.65054e-11)
(1.20362 0.0037746 -1.65054e-11)
(1.20275 0.00224755 -3.27131e-11)
(1.20231 0.000746317 -3.2883e-11)
(0.915858 0.0590654 -6.87827e-28)
(0.9924 0.0557407 6.88762e-28)
(1.05722 0.0511219 -1.67959e-11)
(1.10913 0.0458816 1.67959e-11)
(1.14836 0.0405183 0)
(1.17625 0.0353994 0)
(1.19477 0.0307424 7.78053e-28)
(1.20604 0.0266296 -7.78053e-28)
(1.21208 0.0230502 -6.97109e-28)
(1.21454 0.0199417 6.97109e-28)
(1.21474 0.0172227 0)
(1.21359 0.0148129 0)
(1.21176 0.0126431 -1.64813e-11)
(1.20966 0.0106577 1.64813e-11)
(1.20758 0.00881377 0)
(1.20568 0.00707837 0)
(1.20408 0.00542543 3.24426e-11)
(1.20283 0.00383344 -3.24426e-11)
(1.20198 0.00228354 -7.44493e-28)
(1.20155 0.000758429 7.49207e-28)
(0.914584 0.0583856 1.38308e-27)
(0.990399 0.0551786 -1.38497e-27)
(1.05476 0.0507063 -1.6265e-11)
(1.10647 0.0456061 1.6265e-11)
(1.14573 0.0403637 0)
(1.1738 0.0353397 0)
(1.19256 0.0307515 0)
(1.2041 0.0266853 0)
(1.21039 0.0231357 0)
(1.21307 0.0200448 0)
(1.21344 0.0173348 0)
(1.21243 0.0149279 0)
(1.2107 0.0127559 -1.61513e-11)
(1.20869 0.0107643 1.61513e-11)
(1.20667 0.00891056 1.385e-27)
(1.20482 0.00716218 -1.385e-27)
(1.20325 0.00549358 3.18685e-11)
(1.20203 0.00388374 -3.18685e-11)
(1.20119 0.00231437 1.00988e-27)
(1.20077 0.00076882 -1.01627e-27)
(0.913366 0.0576928 0)
(0.988466 0.0545984 0)
(1.05237 0.0502665 -3.58575e-29)
(1.10389 0.0453015 3.58575e-29)
(1.14316 0.0401769 0)
(1.17138 0.0352464 0)
(1.19038 0.0307269 0)
(1.20218 0.0267083 0)
(1.20871 0.0231898 6.63901e-28)
(1.2116 0.0201184 -6.63901e-28)
(1.21214 0.0174196 0)
(1.21127 0.0150177 0)
(1.20965 0.0128461 0)
(1.20771 0.0108509 0)
(1.20575 0.00899012 -6.5265e-28)
(1.20395 0.00723172 6.5265e-28)
(1.20241 0.00555051 1.56448e-11)
(1.20122 0.00392596 -1.56448e-11)
(1.2004 0.00234034 -7.18722e-28)
(1.19998 0.000777584 7.23273e-28)
(0.912202 0.0569892 0)
(0.986599 0.0540027 0)
(1.05005 0.0498052 0)
(1.10136 0.0449707 0)
(1.14064 0.0399607 0)
(1.16901 0.0351223 0)
(1.18823 0.0306713 0)
(1.20028 0.0267009 0)
(1.20705 0.0232149 -1.5601e-11)
(1.21014 0.0201646 1.5601e-11)
(1.21085 0.0174788 0)
(1.21011 0.015084 0)
(1.20859 0.012915 0)
(1.20673 0.0109187 0)
(1.20483 0.00905352 0)
(1.20308 0.00728784 0)
(1.20157 0.00559688 1.3267e-27)
(1.2004 0.00396057 -1.3267e-27)
(1.1996 0.00236172 0)
(1.19919 0.000784816 0)
(0.911089 0.056277 0)
(0.984794 0.0533937 0)
(1.04779 0.049325 1.47632e-11)
(1.0989 0.0446165 -1.47632e-11)
(1.13817 0.039718 0)
(1.16667 0.03497 0)
(1.18611 0.0305872 0)
(1.1984 0.0266655 0)
(1.2054 0.0232131 -1.5214e-11)
(1.2087 0.0201852 1.5214e-11)
(1.20957 0.0175141 0)
(1.20896 0.0151284 0)
(1.20754 0.0129641 0)
(1.20576 0.0109689 0)
(1.20391 0.00910174 0)
(1.2022 0.00733136 0)
(1.20073 0.00563333 -6.25187e-28)
(1.19958 0.00398804 6.25187e-28)
(1.19879 0.00237878 6.92517e-28)
(1.19839 0.000790605 -6.96901e-28)
(0.910025 0.055558 0)
(0.983048 0.0527736 0)
(1.0456 0.0488283 1.42917e-11)
(1.09649 0.0442413 -1.42917e-11)
(1.13575 0.0394513 0)
(1.16438 0.034792 0)
(1.18402 0.0304769 0)
(1.19654 0.0266043 0)
(1.20376 0.0231863 0)
(1.20726 0.0201822 0)
(1.20829 0.0175273 0)
(1.20781 0.0151523 0)
(1.20648 0.0129946 0)
(1.20478 0.0110026 0)
(1.20299 0.00913578 0)
(1.20132 0.00736307 0)
(1.19988 0.00566048 1.47672e-11)
(1.19875 0.0040088 -1.47672e-11)
(1.19798 0.0023918 0)
(1.19758 0.000795039 0)
(0.909006 0.054834 0)
(0.981359 0.0521444 0)
(1.04347 0.0483173 1.57925e-28)
(1.09414 0.0438476 -1.57925e-28)
(1.13338 0.039163 0)
(1.16213 0.0345907 0)
(1.18196 0.0303426 0)
(1.19471 0.0265193 0)
(1.20214 0.0231365 -1.24922e-27)
(1.20583 0.0201573 1.24922e-27)
(1.20702 0.0175199 0)
(1.20666 0.0151573 0)
(1.20543 0.013008 0)
(1.2038 0.0110211 0)
(1.20207 0.00915656 1.25249e-27)
(1.20044 0.00738373 -1.25249e-27)
(1.19903 0.00567891 2.89462e-11)
(1.19792 0.00402327 -2.89462e-11)
(1.19716 0.00240101 -9.19312e-28)
(1.19677 0.000798202 9.25132e-28)
(0.908032 0.0541067 0)
(0.979725 0.0515078 0)
(1.0414 0.0477941 0)
(1.09185 0.0434375 0)
(1.13106 0.0388552 0)
(1.15991 0.0343682 0)
(1.17993 0.0301865 0)
(1.19289 0.0264126 0)
(1.20054 0.0230655 0)
(1.20441 0.0201122 0)
(1.20575 0.0174936 0)
(1.20552 0.0151446 0)
(1.20439 0.0130052 -1.41887e-11)
(1.20282 0.0110252 1.41887e-11)
(1.20115 0.00916498 -5.88984e-28)
(1.19955 0.00739409 5.88984e-28)
(1.19818 0.00568921 1.41789e-11)
(1.19709 0.00403186 -1.41789e-11)
(1.19634 0.00240668 0)
(1.19596 0.000800176 0)
(0.9071 0.0533774 -1.08477e-27)
(0.978142 0.0508656 1.08627e-27)
(1.03938 0.0472605 -1.4794e-28)
(1.08961 0.043013 1.4794e-28)
(1.12878 0.0385302 0)
(1.15773 0.0341266 0)
(1.17793 0.0300105 0)
(1.1911 0.0262859 0)
(1.19895 0.0229752 0)
(1.203 0.0200484 0)
(1.2045 0.0174496 0)
(1.20438 0.0151157 0)
(1.20334 0.0129877 -2.77357e-11)
(1.20185 0.0110161 2.77357e-11)
(1.20023 0.0091619 0)
(1.19867 0.00739485 0)
(1.19732 0.00569192 0)
(1.19626 0.00403496 0)
(1.19552 0.00240902 0)
(1.19515 0.00080104 0)
(0.906207 0.0526475 5.03292e-28)
(0.97661 0.0502192 -5.03987e-28)
(1.03742 0.0467184 0)
(1.08743 0.0425761 0)
(1.12655 0.0381899 0)
(1.15559 0.0338679 0)
(1.17596 0.0298165 0)
(1.18933 0.0261411 0)
(1.19738 0.022867 -1.33648e-11)
(1.20161 0.0199676 1.33648e-11)
(1.20325 0.0173895 0)
(1.20326 0.0150717 0)
(1.20231 0.0129564 -2.7099e-11)
(1.20089 0.0109948 2.7099e-11)
(1.19931 0.00914815 0)
(1.1978 0.00738668 0)
(1.19647 0.00568756 5.64204e-28)
(1.19542 0.00403296 -5.64204e-28)
(1.1947 0.00240827 0)
(1.19433 0.000800869 0)
(0.905353 0.0519184 0)
(0.975126 0.0495702 0)
(1.0355 0.0461693 -2.76311e-29)
(1.08529 0.0421286 2.76311e-29)
(1.12437 0.0378361 0)
(1.15349 0.0335939 0)
(1.17401 0.0296063 -5.89665e-28)
(1.18757 0.0259798 5.89665e-28)
(1.19582 0.0227426 -1.30128e-11)
(1.20023 0.0198711 1.30128e-11)
(1.20202 0.0173146 5.45927e-28)
(1.20214 0.0150138 -5.45927e-28)
(1.20128 0.0129124 -1.3234e-11)
(1.19992 0.010962 1.3234e-11)
(1.1984 0.00912451 1.32784e-11)
(1.19692 0.00737024 -1.32784e-11)
(1.19562 0.00567665 0)
(1.19459 0.0040262 0)
(1.19388 0.00240465 0)
(1.19352 0.000799735 0)
(0.904535 0.051191 0)
(0.973687 0.0489197 0)
(1.03364 0.0456147 0)
(1.08321 0.041672 0)
(1.12223 0.0374705 0)
(1.15142 0.0333062 0)
(1.1721 0.0293814 1.24369e-11)
(1.18585 0.0258036 -1.24369e-11)
(1.19428 0.0226034 0)
(1.19886 0.0197603 0)
(1.20079 0.0172261 0)
(1.20103 0.0149433 0)
(1.20025 0.0128567 0)
(1.19897 0.0109188 0)
(1.19749 0.00909175 1.29785e-11)
(1.19605 0.00734614 -1.29785e-11)
(1.19478 0.00565967 0)
(1.19377 0.00401505 0)
(1.19307 0.00239836 0)
(1.19271 0.000797709 0)
(0.903751 0.0504665 0)
(0.972292 0.048269 0)
(1.03183 0.0450561 2.58665e-29)
(1.08117 0.041208 -2.58665e-29)
(1.12013 0.0370946 0)
(1.14939 0.0330065 0)
(1.17021 0.0291435 1.20809e-11)
(1.18414 0.0256139 -1.20809e-11)
(1.19276 0.0224509 -5.11709e-28)
(1.1975 0.0196365 5.11709e-28)
(1.19958 0.0171251 0)
(1.19992 0.0148611 0)
(1.19924 0.0127903 0)
(1.19801 0.010866 0)
(1.19659 0.00905058 -5.2639e-28)
(1.19518 0.00731497 5.2639e-28)
(1.19393 0.00563707 1.27186e-11)
(1.19294 0.00399983 -1.27186e-11)
(1.19225 0.0023896 0)
(1.1919 0.000794855 0)
(0.903 0.0497458 0)
(0.97094 0.0476192 0)
(1.03006 0.0444947 0)
(1.07917 0.0407378 0)
(1.11807 0.0367101 0)
(1.14739 0.0326962 0)
(1.16835 0.028894 0)
(1.18245 0.0254122 0)
(1.19125 0.0222862 1.03636e-27)
(1.19616 0.0195009 -1.03636e-27)
(1.19837 0.0170129 0)
(1.19883 0.0147683 0)
(1.19823 0.0127141 0)
(1.19707 0.0108044 0)
(1.19569 0.00900169 0)
(1.19432 0.00727731 0)
(1.1931 0.00560931 1.24308e-11)
(1.19212 0.00398085 -1.24308e-11)
(1.19144 0.00237857 7.91639e-28)
(1.1911 0.000791238 -7.96651e-28)
(0.902281 0.0490297 0)
(0.969627 0.0469712 0)
(1.02834 0.0439316 1.06315e-11)
(1.07722 0.0402629 -1.06315e-11)
(1.11605 0.0363182 0)
(1.14543 0.0323768 0)
(1.16652 0.0286342 0)
(1.18079 0.0251997 0)
(1.18976 0.0221108 -4.84263e-28)
(1.19483 0.0193547 4.84263e-28)
(1.19718 0.0168904 -4.92567e-28)
(1.19774 0.0146658 4.92567e-28)
(1.19723 0.012629 -1.20037e-11)
(1.19613 0.0107346 1.20037e-11)
(1.1948 0.00894572 0)
(1.19346 0.00723369 0)
(1.19226 0.0055768 -5.04147e-28)
(1.1913 0.00395842 5.04147e-28)
(1.19064 0.00236544 0)
(1.19029 0.000786919 0)
(0.901591 0.0483189 -8.49487e-28)
(0.968354 0.0463259 8.50666e-28)
(1.02666 0.043368 1.02828e-11)
(1.07531 0.0397843 -1.02828e-11)
(1.11407 0.0359202 0)
(1.1435 0.0320495 0)
(1.16471 0.0283655 0)
(1.17915 0.0249778 0)
(1.18829 0.0219257 0)
(1.19351 0.0191989 0)
(1.19599 0.0167588 0)
(1.19667 0.0145546 0)
(1.19624 0.0125359 -2.34097e-11)
(1.1952 0.0106576 2.34097e-11)
(1.19392 0.00888331 0)
(1.19261 0.00718462 0)
(1.19144 0.00553994 1.18612e-11)
(1.19049 0.00393283 -1.18612e-11)
(1.18983 0.00235039 0)
(1.1895 0.000781956 0)
(0.900931 0.0476142 3.93989e-28)
(0.967117 0.0456842 -3.94536e-28)
(1.02502 0.0428047 2.2641e-29)
(1.07345 0.0393032 -2.2641e-29)
(1.11213 0.0355172 0)
(1.1416 0.0317155 0)
(1.16293 0.0280889 -4.94458e-28)
(1.17753 0.0247474 4.94458e-28)
(1.18683 0.0217319 4.5783e-28)
(1.19221 0.0190347 -4.5783e-28)
(1.19482 0.0166188 0)
(1.1956 0.0144356 0)
(1.19525 0.0124353 -1.14098e-11)
(1.19428 0.0105739 1.14098e-11)
(1.19304 0.00881504 4.78029e-28)
(1.19177 0.0071306 -4.78029e-28)
(1.19062 0.00549913 2.31599e-11)
(1.18969 0.00390435 -2.31599e-11)
(1.18904 0.00233359 -5.3481e-28)
(1.18871 0.000776403 5.38196e-28)
(0.900297 0.0469162 -3.80347e-28)
(0.965917 0.0450468 3.80874e-28)
(1.02342 0.0422428 0)
(1.07162 0.0388206 0)
(1.11023 0.0351105 0)
(1.13973 0.031376 0)
(1.16118 0.0278057 4.79811e-28)
(1.17593 0.0245097 -4.79811e-28)
(1.18539 0.0215307 -4.44991e-28)
(1.19092 0.0188628 4.44991e-28)
(1.19366 0.0164715 0)
(1.19455 0.0143095 0)
(1.19428 0.0123282 0)
(1.19337 0.0104842 0)
(1.19217 0.00874146 -4.66243e-28)
(1.19093 0.00707207 4.66243e-28)
(1.1898 0.00545471 2.26024e-11)
(1.18889 0.00387325 -2.26024e-11)
(1.18825 0.00231519 0)
(1.18792 0.000770313 0)
(0.899691 0.0462253 7.64256e-28)
(0.96475 0.0444143 -7.65316e-28)
(1.02186 0.0416829 0)
(1.06983 0.0383375 0)
(1.10836 0.0347009 0)
(1.1379 0.0310319 0)
(1.15945 0.0275168 0)
(1.17435 0.0242657 0)
(1.18397 0.0213228 9.00101e-28)
(1.18964 0.0186843 -9.00101e-28)
(1.19251 0.0163177 0)
(1.1935 0.0141772 0)
(1.19331 0.0122153 -1.08312e-11)
(1.19246 0.0103891 1.08312e-11)
(1.19131 0.00866311 0)
(1.1901 0.00700949 0)
(1.18899 0.00540704 1.10252e-11)
(1.18809 0.00383976 -1.10252e-11)
(1.18747 0.00229533 0)
(1.18714 0.000763737 0)
(0.899109 0.0455422 0)
(0.963617 0.0437873 0)
(1.02034 0.0411259 -2.04628e-29)
(1.06808 0.0378546 2.04628e-29)
(1.10652 0.0342894 0)
(1.13609 0.0306843 0)
(1.15775 0.0272233 0)
(1.17279 0.0240164 0)
(1.18256 0.0211092 -4.20059e-28)
(1.18838 0.0185 4.20059e-28)
(1.19138 0.0161581 0)
(1.19247 0.0140393 0)
(1.19236 0.0120971 -2.10959e-11)
(1.19157 0.0102892 2.10959e-11)
(1.19046 0.00858049 0)
(1.18928 0.00694326 0)
(1.18819 0.00535644 0)
(1.18731 0.00380413 0)
(1.18669 0.00227417 4.97008e-28)
(1.18637 0.000756721 -5.00154e-28)
(0.898551 0.0448671 0)
(0.962515 0.0431664 0)
(1.01885 0.0405724 0)
(1.06637 0.0373728 0)
(1.10472 0.0338768 0)
(1.13431 0.030334 0)
(1.15608 0.0269259 0)
(1.17125 0.0237625 0)
(1.18117 0.0208907 0)
(1.18714 0.0183107 0)
(1.19025 0.0159935 8.7109e-28)
(1.19144 0.0138965 -8.7109e-28)
(1.19141 0.0119742 -2.05374e-11)
(1.19068 0.0101851 2.05374e-11)
(1.18961 0.00849408 0)
(1.18847 0.00687378 0)
(1.1874 0.00530322 -9.0573e-28)
(1.18653 0.00376658 9.0573e-28)
(1.18592 0.00225184 -6.68929e-28)
(1.18561 0.00074931 6.73164e-28)
(0.898016 0.0442005 0)
(0.961444 0.0425521 0)
(1.0174 0.040023 0)
(1.06469 0.0368927 0)
(1.10296 0.033464 0)
(1.13257 0.0299818 0)
(1.15442 0.0266256 0)
(1.16973 0.023505 0)
(1.1798 0.0206682 0)
(1.1859 0.0181171 0)
(1.18914 0.0158246 -4.06825e-28)
(1.19043 0.0137495 4.06825e-28)
(1.19048 0.0118474 -1.99872e-11)
(1.1898 0.0100772 1.99872e-11)
(1.18878 0.00840431 4.20468e-28)
(1.18766 0.00680143 -4.20468e-28)
(1.18662 0.00524767 1.02145e-11)
(1.18576 0.00372732 -1.02145e-11)
(1.18516 0.00222846 4.72425e-28)
(1.18485 0.000741547 -4.75416e-28)
(0.897504 0.0435427 -3.18381e-28)
(0.960403 0.0419447 3.18821e-28)
(1.01598 0.0394783 1.8469e-29)
(1.06304 0.0364151 -1.8469e-29)
(1.10122 0.0330516 0)
(1.13085 0.0296286 0)
(1.15279 0.026323 0)
(1.16823 0.0232446 0)
(1.17844 0.0204423 0)
(1.18468 0.0179199 0)
(1.18804 0.0156521 0)
(1.18943 0.0135989 0)
(1.18955 0.0117171 -1.94452e-11)
(1.18893 0.00996606 1.94452e-11)
(1.18795 0.00831161 -4.09386e-28)
(1.18687 0.00672655 4.09386e-28)
(1.18584 0.00519007 1.99011e-11)
(1.185 0.00368655 -1.99011e-11)
(1.18441 0.00220415 9.099e-28)
(1.1841 0.000733472 9.80389e-28)
(0.897012 0.042894 6.39327e-28)
(0.959389 0.0413447 -6.40209e-28)
(1.01459 0.0389387 8.94604e-29)
(1.06143 0.0359404 -8.94604e-29)
(1.09952 0.0326404 0)
(1.12916 0.0292749 0)
(1.15119 0.026019 0)
(1.16675 0.0229819 0)
(1.1771 0.0202137 -8.98809e-12)
(1.18347 0.0177198 8.98809e-12)
(1.18695 0.0154765 0)
(1.18844 0.0134453 0)
(1.18864 0.0115838 -9.45578e-12)
(1.18808 0.00985215 9.45578e-12)
(1.18714 0.00821638 0)
(1.18608 0.00664947 0)
(1.18508 0.00513068 1.93796e-11)
(1.18425 0.00364445 -1.93796e-11)
(1.18366 0.00217903 -9.099e-28)
(1.18336 0.000725123 -9.80389e-28)
(0.896541 0.0422546 0)
(0.958404 0.0407523 0)
(1.01324 0.0384047 0)
(1.05985 0.0354693 0)
(1.09784 0.0322308 0)
(1.12749 0.0289215 0)
(1.1496 0.0257142 0)
(1.16529 0.0227177 0)
(1.17578 0.0199831 -8.71948e-12)
(1.18228 0.0175174 8.71948e-12)
(1.18587 0.0152985 0)
(1.18746 0.0132892 0)
(1.18773 0.0114481 0)
(1.18723 0.00973588 0)
(1.18633 0.008119 0)
(1.1853 0.0065705 0)
(1.18432 0.00506975 9.43235e-12)
(1.18351 0.00360121 -9.43235e-12)
(1.18293 0.00215321 -4.36584e-28)
(1.18263 0.000716537 4.39348e-28)
(0.89609 0.0416248 0)
(0.957444 0.0401678 0)
(1.01191 0.0378766 0)
(1.0583 0.0350022 0)
(1.0962 0.0318236 0)
(1.12585 0.028569 0)
(1.14804 0.0254091 0)
(1.16384 0.0224525 0)
(1.17447 0.0197511 0)
(1.1811 0.0173133 0)
(1.18481 0.0151185 0)
(1.18648 0.013131 0)
(1.18683 0.0113103 0)
(1.18639 0.00961767 0)
(1.18553 0.0080198 7.84879e-28)
(1.18453 0.00648995 -7.84879e-28)
(1.18357 0.00500751 7.93101e-28)
(1.18277 0.003557 -7.93101e-28)
(1.1822 0.00212678 5.86499e-28)
(1.18191 0.000707746 -5.90212e-28)
(0.895657 0.0410046 6.63418e-12)
(0.95651 0.0395915 -6.6433e-12)
(1.01062 0.0373548 1.60667e-29)
(1.05678 0.0345395 -1.60667e-29)
(1.09458 0.031419 0)
(1.12424 0.0282178 0)
(1.1465 0.0251044 0)
(1.16242 0.0221869 0)
(1.17317 0.0195182 0)
(1.17993 0.0171079 0)
(1.18375 0.0149371 0)
(1.18553 0.0129713 0)
(1.18595 0.011171 0)
(1.18556 0.00949788 0)
(1.18474 0.00791914 0)
(1.18377 0.00640808 0)
(1.18283 0.00494417 -3.70596e-28)
(1.18205 0.00351196 3.70596e-28)
(1.18148 0.00209984 -4.13423e-28)
(1.18119 0.000698784 4.16041e-28)
(0.895242 0.0403942 6.39455e-12)
(0.955601 0.0390237 -6.40332e-12)
(1.00935 0.0368397 7.77548e-29)
(1.0553 0.0340816 -7.77548e-29)
(1.09299 0.0310177 0)
(1.12265 0.0278685 0)
(1.14499 0.0248005 0)
(1.16101 0.0219215 0)
(1.17189 0.0192849 6.86646e-28)
(1.17878 0.0169018 -6.86646e-28)
(1.18271 0.0147547 7.10257e-28)
(1.18458 0.0128105 -7.10257e-28)
(1.18507 0.0110304 0)
(1.18474 0.00937688 0)
(1.18397 0.00781731 -7.41615e-28)
(1.18303 0.00632516 7.41615e-28)
(1.18211 0.00487995 8.6805e-12)
(1.18133 0.00346625 -8.6805e-12)
(1.18077 0.00207249 0)
(1.18049 0.000689679 0)
(0.894845 0.0397938 0)
(0.954715 0.0384644 0)
(1.00811 0.0363314 6.57263e-12)
(1.05383 0.0336289 -6.57263e-12)
(1.09143 0.03062 0)
(1.12109 0.0275215 0)
(1.14349 0.024498 0)
(1.15962 0.0216566 0)
(1.17063 0.0190516 0)
(1.17764 0.0166954 0)
(1.18168 0.0145718 0)
(1.18364 0.012649 0)
(1.18421 0.010889 0)
(1.18393 0.009255 0)
(1.1832 0.0077146 0)
(1.18229 0.00624143 0)
(1.18139 0.00481504 8.43683e-12)
(1.18062 0.00342001 -8.43683e-12)
(1.18008 0.00204481 3.90873e-28)
(1.17979 0.000680462 -3.93347e-28)
(0.857257 0.0716672 -1.48789e-19)
(0.855393 0.0716668 1.18842e-19)
(0.853648 0.071579 1.09661e-20)
(0.852013 0.0714102 -2.36831e-19)
(0.850484 0.0711666 3.32024e-19)
(0.849056 0.0708541 3.37672e-19)
(0.847721 0.0704785 -9.50712e-20)
(0.846477 0.0700452 -4.14707e-19)
(0.845318 0.0695594 5.35675e-19)
(0.844239 0.069026 -2.67056e-19)
(0.843236 0.0684498 -3.31474e-20)
(0.842305 0.0678351 8.29839e-20)
(0.841443 0.0671861 -2.26084e-19)
(0.840646 0.0665066 -1.14301e-19)
(0.839909 0.0658003 2.46724e-19)
(0.83923 0.0650707 -5.11919e-21)
(0.838606 0.0643208 -5.34239e-20)
(0.838033 0.0635537 9.14407e-20)
(0.837509 0.062772 -9.41239e-20)
(0.837031 0.0619784 2.52293e-20)
(0.836597 0.0611751 1.26108e-19)
(0.836203 0.0603644 -3.75043e-20)
(0.835849 0.0595481 -1.12605e-19)
(0.83553 0.0587282 1.06368e-19)
(0.835247 0.0579063 -4.55366e-20)
(0.834996 0.0570839 5.10974e-20)
(0.834775 0.0562625 -3.10177e-20)
(0.834584 0.0554433 -1.01809e-19)
(0.83442 0.0546275 1.31894e-19)
(0.834281 0.0538161 -2.49722e-21)
(0.834167 0.05301 -8.33815e-20)
(0.834076 0.0522101 6.27437e-20)
(0.834007 0.0514172 4.96033e-21)
(0.833958 0.050632 -1.09615e-20)
(0.833928 0.0498549 -3.63981e-20)
(0.833917 0.0490867 4.20902e-20)
(0.833922 0.0483277 -1.77827e-21)
(0.833945 0.0475783 1.26014e-20)
(0.833982 0.046839 -1.28514e-20)
(0.834034 0.0461099 -1.35776e-20)
(0.8341 0.0453915 -1.65997e-20)
(0.834178 0.0446837 2.14938e-20)
(0.83427 0.043987 2.81034e-21)
(0.834372 0.0433013 -3.07452e-20)
(0.834486 0.0426269 9.55913e-21)
(0.834611 0.0419637 -2.89844e-20)
(0.834745 0.0413118 -4.76086e-21)
(0.834889 0.0406713 2.37958e-20)
(0.743022 0.0724916 4.28407e-19)
(0.743054 0.0723436 5.98245e-20)
(0.743146 0.0721189 -6.57497e-19)
(0.743293 0.0718236 6.07929e-19)
(0.743494 0.0714631 -3.96011e-20)
(0.743745 0.071043 6.9977e-20)
(0.744044 0.0705684 -4.98251e-19)
(0.744388 0.0700443 2.65178e-19)
(0.744775 0.0694753 -1.76371e-19)
(0.745202 0.0688659 -1.68224e-19)
(0.745667 0.0682203 1.51254e-19)
(0.746167 0.0675425 1.62816e-19)
(0.7467 0.0668361 -1.06454e-19)
(0.747264 0.0661047 2.10059e-19)
(0.747856 0.0653514 -2.24542e-19)
(0.748474 0.0645794 3.32788e-20)
(0.749118 0.0637915 8.93825e-20)
(0.749783 0.0629902 -1.12178e-19)
(0.75047 0.0621781 1.58316e-19)
(0.751175 0.0613573 -3.87652e-20)
(0.751897 0.0605299 -5.44184e-21)
(0.752636 0.0596979 -2.27791e-20)
(0.753388 0.0588629 -5.48551e-20)
(0.754154 0.0580266 2.36471e-20)
(0.75493 0.0571905 2.87519e-20)
(0.755718 0.0563558 5.7918e-20)
(0.756514 0.0555239 6.09987e-21)
(0.757318 0.0546958 -1.21079e-19)
(0.758129 0.0538725 1.25214e-19)
(0.758946 0.0530549 -9.99874e-20)
(0.759768 0.0522439 -3.28568e-20)
(0.760595 0.0514401 2.42163e-20)
(0.761424 0.0506442 -8.8038e-21)
(0.762257 0.0498568 5.27431e-20)
(0.763091 0.0490784 -5.78442e-20)
(0.763927 0.0483094 2.5576e-21)
(0.764764 0.0475502 7.50046e-23)
(0.765601 0.0468012 8.47691e-20)
(0.766437 0.0460626 -6.11217e-20)
(0.767273 0.0453347 1.17352e-20)
(0.768108 0.0446176 1.6746e-20)
(0.768942 0.0439116 9.27656e-21)
(0.769774 0.0432168 -6.0863e-20)
(0.770603 0.0425333 8.04095e-20)
(0.77143 0.0418611 -4.80824e-20)
(0.772255 0.0412002 -2.83405e-20)
(0.773077 0.0405508 2.63981e-21)
(0.773895 0.0399128 5.90732e-20)
(0.774711 0.0392861 -1.29155e-20)
(0.619028 0.0699547 -1.03314e-20)
(0.621128 0.0697897 6.90245e-20)
(0.623235 0.069549 -2.30979e-19)