/*--------------------------------*- C++ -*----------------------------------*\
  =========                 |
  \\      /  F ield         | OpenFOAM: The Open Source CFD Toolbox
   \\    /   O peration     | Website:  https://openfoam.org
    \\  /    A nd           | Version:  7
     \\/     M anipulation  |
\*---------------------------------------------------------------------------*/
FoamFile
{
    version     2.0;
    format      ascii;
    class       volScalarField;
    location    "50.001";
    object      p;
}
// * * * * * * * * * * * * * * * * * * * * * * * * * * * * * * * * * * * * * //

dimensions      [0 2 -2 0 0 0 0];

internalField   nonuniform List<scalar> 
14800
(
-0.244781
-0.247742
-0.248708
-0.249753
-0.250714
-0.251656
-0.252562
-0.253388
-0.254085
-0.254602
-0.254894
-0.254922
-0.254665
-0.254121
-0.253347
-0.24504
-0.247954
-0.248906
-0.249937
-0.250887
-0.251822
-0.252722
-0.253544
-0.254239
-0.254755
-0.255045
-0.255067
-0.254793
-0.254227
-0.253346
-0.245552
-0.248375
-0.249296
-0.250299
-0.251228
-0.252146
-0.253034
-0.253849
-0.254539
-0.255052
-0.255338
-0.255349
-0.255038
-0.254445
-0.253322
-0.246304
-0.248992
-0.249868
-0.250827
-0.251722
-0.252614
-0.253483
-0.254284
-0.254967
-0.255475
-0.255754
-0.255753
-0.255375
-0.254788
-0.253224
-0.247275
-0.249792
-0.250606
-0.251504
-0.252351
-0.253205
-0.254045
-0.254825
-0.255494
-0.255993
-0.256262
-0.256255
-0.255758
-0.255281
-0.25298
-0.248443
-0.250756
-0.25149
-0.25231
-0.253092
-0.253893
-0.254691
-0.25544
-0.256087
-0.25657
-0.25682
-0.25683
-0.256115
-0.255967
-0.25248
-0.249781
-0.251864
-0.2525
-0.25322
-0.253917
-0.254647
-0.255387
-0.25609
-0.256704
-0.257163
-0.257376
-0.257459
-0.256329
-0.256893
-0.25163
-0.251263
-0.253093
-0.253613
-0.254209
-0.254799
-0.255436
-0.256098
-0.256738
-0.257303
-0.257728
-0.257856
-0.258129
-0.256303
-0.257976
-0.250785
-0.252861
-0.254426
-0.254807
-0.255254
-0.255709
-0.256227
-0.256788
-0.257343
-0.257838
-0.258219
-0.258183
-0.258761
-0.256295
-0.258653
-0.249983
-0.254553
-0.255842
-0.256062
-0.256332
-0.256621
-0.256991
-0.257424
-0.257868
-0.258266
-0.258597
-0.258443
-0.259125
-0.256054
-0.259364
-0.24887
-0.256319
-0.257329
-0.257363
-0.257424
-0.257514
-0.257704
-0.257978
-0.258286
-0.258564
-0.258805
-0.258478
-0.25937
-0.255417
-0.260009
-0.247518
-0.258149
-0.258878
-0.258699
-0.258517
-0.258373
-0.258348
-0.258432
-0.258575
-0.258703
-0.258841
-0.258265
-0.259431
-0.254447
-0.260329
-0.246167
-0.260037
-0.260484
-0.260063
-0.259604
-0.259188
-0.258913
-0.258776
-0.258726
-0.258674
-0.258691
-0.257828
-0.25919
-0.253303
-0.259961
-0.245111
-0.26199
-0.262152
-0.261459
-0.260686
-0.259961
-0.259402
-0.259013
-0.258744
-0.258485
-0.258344
-0.257206
-0.258518
-0.252171
-0.258545
-0.244396
-0.264023
-0.263893
-0.262893
-0.261771
-0.260702
-0.259827
-0.259158
-0.258644
-0.258156
-0.257799
-0.256431
-0.257315
-0.251117
-0.255963
-0.243611
-0.26616
-0.265725
-0.264382
-0.262877
-0.261431
-0.260211
-0.259237
-0.258452
-0.257711
-0.25706
-0.255492
-0.255565
-0.249965
-0.252451
-0.242128
-0.268436
-0.267659
-0.265962
-0.264029
-0.262177
-0.260587
-0.259284
-0.2582
-0.257167
-0.256135
-0.254321
-0.253314
-0.248359
-0.248361
-0.239566
-0.270896
-0.269742
-0.267652
-0.265262
-0.262978
-0.260996
-0.259341
-0.257918
-0.256533
-0.255016
-0.252819
-0.250606
-0.245983
-0.243785
-0.235919
-0.273597
-0.272005
-0.269489
-0.266613
-0.263876
-0.261482
-0.259443
-0.257628
-0.2558
-0.253675
-0.250895
-0.247446
-0.242704
-0.238496
-0.231323
-0.276597
-0.274488
-0.271516
-0.268129
-0.264918
-0.262088
-0.259624
-0.257339
-0.254946
-0.252068
-0.248492
-0.243846
-0.238565
-0.232379
-0.22589
-0.279935
-0.27725
-0.273779
-0.269855
-0.26615
-0.262852
-0.259899
-0.257041
-0.253934
-0.250148
-0.245593
-0.239829
-0.233719
-0.226063
-0.219575
-0.283679
-0.280331
-0.276324
-0.271838
-0.267613
-0.263799
-0.260272
-0.256707
-0.252718
-0.247881
-0.242223
-0.235407
-0.228322
-0.220018
-0.212639
-0.287891
-0.283774
-0.279198
-0.274124
-0.269342
-0.264944
-0.260729
-0.256301
-0.251253
-0.245246
-0.23843
-0.230614
-0.222708
-0.213824
-0.205887
-0.292627
-0.287624
-0.282448
-0.276752
-0.27136
-0.266286
-0.261243
-0.255771
-0.249499
-0.242242
-0.234265
-0.225544
-0.216907
-0.207606
-0.199439
-0.297933
-0.291926
-0.286118
-0.279757
-0.273679
-0.267815
-0.261772
-0.255061
-0.247425
-0.238878
-0.229788
-0.220248
-0.210998
-0.201367
-0.193015
-0.303853
-0.296721
-0.290251
-0.283162
-0.276303
-0.269503
-0.262251
-0.25411
-0.245011
-0.235178
-0.225041
-0.214773
-0.20499
-0.195075
-0.186613
-0.310419
-0.302047
-0.294881
-0.286983
-0.279225
-0.271299
-0.262603
-0.252861
-0.242248
-0.231163
-0.220059
-0.209138
-0.198878
-0.188725
-0.180121
-0.317656
-0.307938
-0.30003
-0.291223
-0.282419
-0.273125
-0.262741
-0.251269
-0.239134
-0.226853
-0.214858
-0.203347
-0.192651
-0.182279
-0.173529
-0.325572
-0.314416
-0.305709
-0.295876
-0.28583
-0.274874
-0.26258
-0.249298
-0.235665
-0.222254
-0.209441
-0.197387
-0.186284
-0.175715
-0.166798
-0.334165
-0.321491
-0.311907
-0.300915
-0.289359
-0.276427
-0.262043
-0.246918
-0.231838
-0.217366
-0.203797
-0.191238
-0.179754
-0.169004
-0.159907
-0.343411
-0.32915
-0.318596
-0.306282
-0.292871
-0.277662
-0.261063
-0.244103
-0.22764
-0.212175
-0.197906
-0.184875
-0.173034
-0.16212
-0.152834
-0.353259
-0.337352
-0.32573
-0.311867
-0.296208
-0.278461
-0.259578
-0.240824
-0.223051
-0.20666
-0.191742
-0.178268
-0.166098
-0.155037
-0.145559
-0.363633
-0.346024
-0.333231
-0.317506
-0.299196
-0.278713
-0.25753
-0.237048
-0.218044
-0.20079
-0.185273
-0.171388
-0.158918
-0.147732
-0.138064
-0.37442
-0.355061
-0.34098
-0.322992
-0.301662
-0.278316
-0.254864
-0.232737
-0.212585
-0.194533
-0.178465
-0.164202
-0.151471
-0.140179
-0.130332
-0.385465
-0.364327
-0.348803
-0.32809
-0.303439
-0.277173
-0.251521
-0.227849
-0.206634
-0.187852
-0.171285
-0.156682
-0.14373
-0.132356
-0.122347
-0.396571
-0.373652
-0.356465
-0.332558
-0.304366
-0.275191
-0.247444
-0.222337
-0.20015
-0.180707
-0.163696
-0.148799
-0.135672
-0.124241
-0.114094
-0.407497
-0.382838
-0.36368
-0.336152
-0.304292
-0.272283
-0.242572
-0.216153
-0.193089
-0.173061
-0.155668
-0.140528
-0.127275
-0.115814
-0.105561
-0.417964
-0.39165
-0.370125
-0.338637
-0.30308
-0.268365
-0.236845
-0.209244
-0.185407
-0.164876
-0.147169
-0.131846
-0.118523
-0.10706
-0.0967477
-0.427663
-0.399815
-0.375467
-0.339791
-0.3006
-0.263356
-0.230203
-0.201561
-0.177061
-0.156116
-0.13817
-0.122731
-0.109398
-0.0979775
-0.0876739
-0.436268
-0.407027
-0.379382
-0.33941
-0.296737
-0.257181
-0.222586
-0.193056
-0.168011
-0.14675
-0.128648
-0.113165
-0.0998851
-0.0885675
-0.0783697
-0.443443
-0.412951
-0.381571
-0.33731
-0.291386
-0.24977
-0.213942
-0.183684
-0.158222
-0.13675
-0.118578
-0.103126
-0.089968
-0.0788264
-0.0688406
-0.448854
-0.417234
-0.381768
-0.333334
-0.284456
-0.241061
-0.204221
-0.173406
-0.147664
-0.126093
-0.107945
-0.0926011
-0.0796301
-0.0687326
-0.0590325
-0.45218
-0.419523
-0.379749
-0.327354
-0.275871
-0.231
-0.193383
-0.162191
-0.136313
-0.114761
-0.0967348
-0.0815797
-0.0688648
-0.0582546
-0.0488193
-0.453118
-0.419482
-0.375325
-0.31927
-0.265569
-0.219544
-0.181393
-0.150013
-0.12415
-0.102743
-0.0849383
-0.0700598
-0.057682
-0.0473867
-0.0380394
-0.451394
-0.416814
-0.36834
-0.309007
-0.253505
-0.206663
-0.16823
-0.136854
-0.111164
-0.090029
-0.0725539
-0.0580439
-0.0460979
-0.0361618
-0.0267208
-0.446765
-0.411275
-0.358663
-0.296518
-0.239653
-0.192338
-0.153874
-0.122701
-0.0973464
-0.076621
-0.0595948
-0.0455487
-0.0341228
-0.0245372
-0.0153838
-0.439028
-0.402664
-0.346208
-0.281776
-0.224004
-0.176558
-0.138314
-0.107551
-0.082709
-0.0625367
-0.0460878
-0.0326205
-0.0217573
-0.0125082
-0.00394363
-0.428019
-0.39084
-0.330925
-0.264779
-0.206558
-0.159311
-0.12155
-0.0914371
-0.0672871
-0.047821
-0.0320341
-0.0192498
-0.00899847
-0.000170918
0.00768723
-0.413618
-0.375714
-0.312806
-0.24554
-0.187315
-0.140597
-0.10364
-0.0744251
-0.0511077
-0.032457
-0.0174609
-0.00545198
0.0041248
0.0124326
0.0195304
-0.395749
-0.357252
-0.291877
-0.224094
-0.166281
-0.12049
-0.0847154
-0.05648
-0.0341752
-0.0164834
-0.00239886
0.00874517
0.017576
0.0252796
0.0315706
-0.374384
-0.335472
-0.268209
-0.200508
-0.143527
-0.0992122
-0.0646379
-0.0376529
-0.0165316
5.93066e-05
0.0131159
0.0233057
0.0313171
0.0383443
0.0437769
-0.349542
-0.310438
-0.241917
-0.174891
-0.119306
-0.0765619
-0.0435292
-0.018001
0.00177139
0.0171247
0.0290414
0.0381888
0.0453092
0.0515907
0.0561047
-0.32129
-0.282284
-0.21312
-0.147335
-0.0935885
-0.0527013
-0.0214663
0.0024082
0.0206749
0.0346607
0.0453303
0.0533502
0.0595106
0.0649745
0.0685025
-0.289755
-0.251243
-0.181846
-0.117948
-0.0664633
-0.027741
0.00146368
0.0235007
0.0401134
0.0526091
0.0619293
0.0687423
0.0738795
0.0784525
0.0809319
-0.255118
-0.217619
-0.14802
-0.0869176
-0.0380714
-0.0017976
0.0251656
0.0451941
0.0600147
0.0709051
0.0787795
0.0843142
0.0883756
0.0919896
0.0933699
-0.217577
-0.181465
-0.112147
-0.0543115
-0.00855507
0.0250048
0.0495342
0.0673987
0.0803004
0.0894784
0.0958176
0.100014
0.102958
0.105536
0.105723
-0.177332
-0.142283
-0.0751807
-0.0204451
0.0219323
0.0525348
0.0744561
0.0900179
0.100887
0.108255
0.112982
0.115793
0.11757
0.11895
0.11769
-0.134652
-0.100894
-0.0369122
0.0144383
0.0532174
0.0806538
0.0998111
0.112948
0.121684
0.12716
0.130218
0.131617
0.132128
0.13196
0.128857
-0.0897496
-0.0578313
0.00255659
0.0501329
0.0851154
0.109213
0.125472
0.136081
0.1426
0.14612
0.147478
0.147448
0.146545
0.144377
0.139215
-0.0430584
-0.0134213
0.042994
0.0864344
0.117438
0.138056
0.151306
0.159301
0.163535
0.165055
0.1647
0.163213
0.160742
0.156439
0.149814
0.00502891
0.0320203
0.0841199
0.123124
0.149993
0.167019
0.177175
0.18249
0.184392
0.183883
0.1818
0.178783
0.174607
0.168385
0.163318
0.0541178
0.0781519
0.125637
0.159969
0.182582
0.195936
0.202936
0.205527
0.205068
0.202518
0.198681
0.194046
0.188176
0.180726
0.176427
0.1038
0.124618
0.167243
0.196729
0.215005
0.224633
0.228444
0.228289
0.225458
0.220867
0.215259
0.208985
0.201584
0.193229
0.188673
0.153662
0.171052
0.208631
0.233159
0.247054
0.252939
0.253552
0.250651
0.245456
0.238832
0.231449
0.223555
0.214761
0.205581
0.200313
0.20329
0.217079
0.249495
0.269012
0.278526
0.28068
0.278113
0.272489
0.264955
0.256319
0.247177
0.23771
0.227614
0.217566
0.211367
0.252267
0.262328
0.289531
0.30404
0.309214
0.307683
0.301981
0.293677
0.283847
0.273235
0.262369
0.251385
0.240051
0.229104
0.221884
0.300178
0.306438
0.328441
0.338002
0.338918
0.333778
0.325012
0.314094
0.302027
0.289491
0.276951
0.264509
0.251985
0.240125
0.231848
0.346617
0.349055
0.365936
0.370661
0.367438
0.358799
0.347066
0.33362
0.319391
0.304999
0.290848
0.277012
0.263349
0.250581
0.241238
0.391188
0.38984
0.401735
0.401788
0.394584
0.382584
0.368006
0.352138
0.335842
0.319674
0.303986
0.288827
0.274081
0.260426
0.250024
0.433511
0.428469
0.435572
0.431163
0.420173
0.404981
0.387703
0.369539
0.351284
0.333437
0.316296
0.299892
0.284125
0.269615
0.258177
0.473227
0.464634
0.467195
0.45858
0.444032
0.425843
0.406032
0.385717
0.365629
0.34621
0.327712
0.310146
0.29343
0.278109
0.265669
0.509998
0.498049
0.496367
0.483843
0.465997
0.445033
0.422879
0.400575
0.378793
0.357921
0.338171
0.319538
0.301949
0.285867
0.272476
0.543511
0.528449
0.522872
0.506774
0.48592
0.462426
0.438136
0.414022
0.390698
0.368506
0.347618
0.328017
0.309638
0.292856
0.278575
0.573484
0.555595
0.546513
0.52721
0.503663
0.477906
0.451707
0.425975
0.401274
0.377904
0.356
0.335538
0.316457
0.299043
0.283947
0.599661
0.579272
0.567113
0.545005
0.519104
0.49137
0.463506
0.436362
0.41046
0.386061
0.363272
0.342061
0.322371
0.3044
0.288576
0.621821
0.599294
0.584519
0.560032
0.532139
0.502731
0.473456
0.445117
0.418199
0.392931
0.369394
0.347552
0.327349
0.308902
0.292449
0.639778
0.615503
0.598601
0.572184
0.542675
0.511911
0.481494
0.452187
0.424447
0.398474
0.374333
0.35198
0.331363
0.312528
0.295558
0.65338
0.627772
0.609255
0.581375
0.550642
0.518851
0.487568
0.457529
0.429166
0.40266
0.378061
0.355323
0.334393
0.315263
0.297895
0.662512
0.636006
0.616402
0.587539
0.555984
0.523503
0.491639
0.461108
0.432327
0.405464
0.380557
0.357562
0.336422
0.317093
0.299456
0.667097
0.640139
0.619989
0.590632
0.558664
0.525837
0.493681
0.462903
0.433913
0.40687
0.381809
0.358684
0.33744
0.31801
0.300236
0.667097
0.640138
0.619989
0.590632
0.558664
0.525837
0.493681
0.462903
0.433913
0.40687
0.381809
0.358684
0.33744
0.31801
0.300236
0.662511
0.636005
0.616402
0.587539
0.555984
0.523502
0.491638
0.461108
0.432327
0.405464
0.380557
0.357561
0.336422
0.317092
0.299455
0.653379
0.627771
0.609254
0.581375
0.550641
0.51885
0.487567
0.457528
0.429165
0.40266
0.37806
0.355323
0.334393
0.315262
0.297895
0.639777
0.615502
0.5986
0.572183
0.542674
0.51191
0.481493
0.452186
0.424446
0.398474
0.374332
0.35198
0.331363
0.312528
0.295558
0.621819
0.599292
0.584517
0.56003
0.532137
0.50273
0.473454
0.445116
0.418198
0.39293
0.369393
0.347551
0.327348
0.308901
0.292449
0.599658
0.57927
0.567111
0.545003
0.519103
0.491369
0.463504
0.43636
0.410458
0.386059
0.363271
0.34206
0.32237
0.304399
0.288575
0.573481
0.555592
0.54651
0.527207
0.503661
0.477904
0.451706
0.425973
0.401273
0.377902
0.355998
0.335536
0.316456
0.299042
0.283945
0.543508
0.528446
0.52287
0.506771
0.485917
0.462423
0.438134
0.41402
0.390696
0.368504
0.347616
0.328015
0.309637
0.292855
0.278573
0.509994
0.498045
0.496364
0.48384
0.465994
0.445031
0.422876
0.400573
0.378791
0.357919
0.338169
0.319536
0.301948
0.285866
0.272475
0.473223
0.46463
0.467191
0.458576
0.444029
0.42584
0.406029
0.385715
0.365627
0.346207
0.32771
0.310144
0.293428
0.278107
0.265668
0.433506
0.428464
0.435568
0.431159
0.42017
0.404978
0.3877
0.369536
0.351282
0.333434
0.316294
0.299889
0.284123
0.269613
0.258175
0.391182
0.389835
0.40173
0.401784
0.39458
0.382581
0.368003
0.352135
0.335839
0.319671
0.303983
0.288825
0.274079
0.260423
0.250022
0.346611
0.349049
0.365931
0.370657
0.367434
0.358795
0.347062
0.333616
0.319388
0.304995
0.290845
0.27701
0.263346
0.250579
0.241235
0.300172
0.306432
0.328436
0.337997
0.338913
0.333774
0.325008
0.31409
0.302023
0.289487
0.276948
0.264506
0.251982
0.240122
0.231845
0.25226
0.262322
0.289525
0.304035
0.309209
0.307678
0.301977
0.293673
0.283843
0.273231
0.262366
0.251382
0.240048
0.229101
0.221881
0.203282
0.217072
0.249488
0.269006
0.278521
0.280675
0.278108
0.272484
0.264951
0.256315
0.247173
0.237706
0.227611
0.217562
0.211364
0.153653
0.171044
0.208624
0.233153
0.247048
0.252934
0.253547
0.250647
0.245452
0.238828
0.231445
0.223551
0.214758
0.205577
0.20031
0.103791
0.12461
0.167236
0.196723
0.214998
0.224627
0.228439
0.228284
0.225453
0.220863
0.215255
0.208981
0.20158
0.193225
0.188669
0.0541084
0.0781431
0.125629
0.159962
0.182576
0.195929
0.20293
0.205522
0.205063
0.202514
0.198677
0.194042
0.188172
0.180723
0.176424
0.00501891
0.0320109
0.0841114
0.123116
0.149986
0.167013
0.177169
0.182484
0.184387
0.183878
0.181795
0.178779
0.174603
0.168381
0.163314
-0.043069
-0.0134313
0.042985
0.0864262
0.117431
0.138049
0.1513
0.159295
0.16353
0.165049
0.164695
0.163208
0.160737
0.156435
0.149811
-0.0897609
-0.0578419
0.00254705
0.0501242
0.0851075
0.109206
0.125465
0.136074
0.142594
0.146114
0.147473
0.147444
0.146541
0.144372
0.139211
-0.134663
-0.100905
-0.0369223
0.0144291
0.053209
0.0806461
0.0998039
0.112942
0.121678
0.127155
0.130213
0.131612
0.132124
0.131955
0.128853
-0.177344
-0.142295
-0.0751914
-0.0204547
0.0219235
0.0525267
0.0744486
0.0900109
0.10088
0.108249
0.112976
0.115788
0.117565
0.118946
0.117686
-0.21759
-0.181477
-0.112158
-0.0543216
-0.00856432
0.0249963
0.0495263
0.0673914
0.0802936
0.089472
0.0958117
0.100008
0.102953
0.105531
0.105718
-0.255132
-0.217633
-0.148032
-0.0869283
-0.0380811
-0.00180652
0.0251573
0.0451864
0.0600076
0.0708985
0.0787733
0.0843084
0.0883703
0.0919847
0.0933653
-0.289769
-0.251257
-0.181859
-0.117959
-0.0664735
-0.0277503
0.00145506
0.0234927
0.040106
0.0526022
0.0619229
0.0687363
0.0738739
0.0784474
0.0809272
-0.321305
-0.282298
-0.213133
-0.147347
-0.0935991
-0.052711
-0.0214753
0.00239987
0.0206672
0.0346535
0.0453236
0.053344
0.0595049
0.0649692
0.0684976
-0.349558
-0.310453
-0.24193
-0.174903
-0.119317
-0.0765721
-0.0435386
-0.0180097
0.00176335
0.0171172
0.0290345
0.0381823
0.0453032
0.0515852
0.0560996
-0.374401
-0.335487
-0.268224
-0.20052
-0.143539
-0.0992229
-0.0646476
-0.0376619
-0.0165399
5.15536e-05
0.0131087
0.023299
0.031311
0.0383387
0.0437717
-0.395766
-0.357269
-0.291892
-0.224108
-0.166293
-0.120501
-0.0847255
-0.0564893
-0.0341839
-0.0164914
-0.0024063
0.00873828
0.0175696
0.0252737
0.0315653
-0.413635
-0.375731
-0.312821
-0.245554
-0.187327
-0.140609
-0.103651
-0.0744348
-0.0511167
-0.0324653
-0.0174686
-0.00545909
0.00411825
0.0124266
0.019525
-0.428037
-0.390858
-0.330941
-0.264793
-0.206571
-0.159323
-0.121561
-0.0914472
-0.0672964
-0.0478296
-0.032042
-0.0192572
-0.00900523
-0.000177083
0.00768161
-0.439047
-0.402682
-0.346224
-0.281791
-0.224017
-0.17657
-0.138325
-0.107561
-0.0827187
-0.0625457
-0.046096
-0.0326281
-0.0217643
-0.0125145
-0.0039494
-0.446784
-0.411293
-0.35868
-0.296533
-0.239667
-0.192351
-0.153886
-0.122712
-0.0973564
-0.0766302
-0.0596033
-0.0455565
-0.03413
-0.0245437
-0.0153897
-0.451413
-0.416833
-0.368357
-0.309023
-0.253519
-0.206677
-0.168242
-0.136866
-0.111174
-0.0900386
-0.0725626
-0.0580519
-0.0461053
-0.0361685
-0.0267269
-0.453138
-0.419501
-0.375343
-0.319286
-0.265583
-0.219558
-0.181406
-0.150025
-0.124161
-0.102752
-0.0849473
-0.0700681
-0.0576895
-0.0473936
-0.0380455
-0.4522
-0.419543
-0.379767
-0.32737
-0.275886
-0.231014
-0.193395
-0.162203
-0.136324
-0.114771
-0.0967441
-0.0815882
-0.0688725
-0.0582616
-0.0488256
-0.448874
-0.417254
-0.381786
-0.333351
-0.284472
-0.241075
-0.204235
-0.173418
-0.147675
-0.126103
-0.107955
-0.0926099
-0.0796381
-0.0687398
-0.0590389
-0.443463
-0.412971
-0.381589
-0.337327
-0.291402
-0.249784
-0.213956
-0.183696
-0.158234
-0.136761
-0.118588
-0.103136
-0.0899763
-0.0788338
-0.0688471
-0.436289
-0.407047
-0.379401
-0.339428
-0.296753
-0.257196
-0.2226
-0.193069
-0.168023
-0.146761
-0.128658
-0.113174
-0.0998936
-0.0885751
-0.0783764
-0.427684
-0.399835
-0.375486
-0.339809
-0.300616
-0.263371
-0.230217
-0.201574
-0.177074
-0.156128
-0.138181
-0.122741
-0.109406
-0.0979853
-0.0876808
-0.417984
-0.39167
-0.370144
-0.338655
-0.303097
-0.268381
-0.23686
-0.209258
-0.18542
-0.164888
-0.14718
-0.131856
-0.118532
-0.107068
-0.0967547
-0.407517
-0.382859
-0.363699
-0.33617
-0.30431
-0.2723
-0.242588
-0.216167
-0.193103
-0.173073
-0.155679
-0.140538
-0.127285
-0.115822
-0.105568
-0.396591
-0.373673
-0.356485
-0.332577
-0.304384
-0.275208
-0.24746
-0.222352
-0.200164
-0.18072
-0.163708
-0.14881
-0.135681
-0.12425
-0.114101
-0.385485
-0.364347
-0.348822
-0.328109
-0.303457
-0.27719
-0.251537
-0.227864
-0.206649
-0.187865
-0.171297
-0.156693
-0.14374
-0.132365
-0.122355
-0.37444
-0.355081
-0.341
-0.323011
-0.301681
-0.278333
-0.25488
-0.232753
-0.2126
-0.194547
-0.178478
-0.164214
-0.151481
-0.140188
-0.13034
-0.363653
-0.346044
-0.333251
-0.317525
-0.299214
-0.278731
-0.257547
-0.237064
-0.218059
-0.200805
-0.185286
-0.1714
-0.158929
-0.147741
-0.138072
-0.353279
-0.337371
-0.32575
-0.311886
-0.296226
-0.278479
-0.259595
-0.240841
-0.223067
-0.206675
-0.191756
-0.178281
-0.166109
-0.155047
-0.145568
-0.34343
-0.329169
-0.318616
-0.306301
-0.29289
-0.27768
-0.261081
-0.24412
-0.227657
-0.212191
-0.19792
-0.184889
-0.173046
-0.162131
-0.152843
-0.334184
-0.321511
-0.311926
-0.300934
-0.289377
-0.276445
-0.262062
-0.246936
-0.231855
-0.217383
-0.203812
-0.191252
-0.179767
-0.169015
-0.159916
-0.325592
-0.314436
-0.305728
-0.295894
-0.285848
-0.274892
-0.262599
-0.249316
-0.235683
-0.222272
-0.209457
-0.197402
-0.186298
-0.175727
-0.166807
-0.317675
-0.307957
-0.300049
-0.291242
-0.282438
-0.273144
-0.26276
-0.251288
-0.239152
-0.226871
-0.214875
-0.203363
-0.192666
-0.182291
-0.173539
-0.310439
-0.302066
-0.294899
-0.287002
-0.279243
-0.271318
-0.262623
-0.25288
-0.242268
-0.231183
-0.220077
-0.209156
-0.198894
-0.188738
-0.180132
-0.303872
-0.29674
-0.29027
-0.283181
-0.276322
-0.269522
-0.262271
-0.25413
-0.245032
-0.235198
-0.225061
-0.214792
-0.205007
-0.195089
-0.186624
-0.297952
-0.291945
-0.286137
-0.279775
-0.273697
-0.267834
-0.261792
-0.255083
-0.247447
-0.2389
-0.229809
-0.220268
-0.211017
-0.201383
-0.193028
-0.292646
-0.287643
-0.282466
-0.27677
-0.271378
-0.266306
-0.261264
-0.255793
-0.249522
-0.242265
-0.234289
-0.225566
-0.216927
-0.207623
-0.199452
-0.28791
-0.283792
-0.279216
-0.274142
-0.269361
-0.264964
-0.26075
-0.256323
-0.251277
-0.245271
-0.238455
-0.230637
-0.22273
-0.213842
-0.205902
-0.283698
-0.280349
-0.276342
-0.271856
-0.267632
-0.263819
-0.260293
-0.256731
-0.252743
-0.247907
-0.24225
-0.235434
-0.228347
-0.220039
-0.212655
-0.279954
-0.277269
-0.273797
-0.269873
-0.266169
-0.262872
-0.259921
-0.257065
-0.25396
-0.250176
-0.245621
-0.239858
-0.233746
-0.226086
-0.219593
-0.276616
-0.274507
-0.271535
-0.268147
-0.264937
-0.262108
-0.259646
-0.257364
-0.254973
-0.252097
-0.248523
-0.243877
-0.238595
-0.232406
-0.225912
-0.273616
-0.272023
-0.269507
-0.266632
-0.263895
-0.261503
-0.259466
-0.257654
-0.255828
-0.253706
-0.250928
-0.24748
-0.242737
-0.238526
-0.231348
-0.270915
-0.26976
-0.26767
-0.26528
-0.262997
-0.261017
-0.259364
-0.257944
-0.256562
-0.255049
-0.252854
-0.250642
-0.246019
-0.243819
-0.235948
-0.268455
-0.267677
-0.26598
-0.264048
-0.262197
-0.260609
-0.259308
-0.258226
-0.257197
-0.256168
-0.254357
-0.253352
-0.248398
-0.248398
-0.239599
-0.266179
-0.265742
-0.2644
-0.262895
-0.261451
-0.260232
-0.259261
-0.258479
-0.257741
-0.257094
-0.25553
-0.255604
-0.250007
-0.252491
-0.242164
-0.264041
-0.263911
-0.26291
-0.261789
-0.260722
-0.259848
-0.259182
-0.258671
-0.258187
-0.257833
-0.25647
-0.257357
-0.251161
-0.256006
-0.243651
-0.262008
-0.262169
-0.261476
-0.260704
-0.25998
-0.259423
-0.259037
-0.25877
-0.258516
-0.258378
-0.257245
-0.25856
-0.252215
-0.25859
-0.244439
-0.260054
-0.2605
-0.26008
-0.259622
-0.259207
-0.258934
-0.258799
-0.258752
-0.258704
-0.258725
-0.257866
-0.259232
-0.253348
-0.260007
-0.245155
-0.258165
-0.258893
-0.258715
-0.258534
-0.258391
-0.258367
-0.258455
-0.2586
-0.258732
-0.258875
-0.258303
-0.259473
-0.254492
-0.260375
-0.246211
-0.256334
-0.257344
-0.257378
-0.25744
-0.257531
-0.257723
-0.258
-0.258311
-0.258592
-0.258838
-0.258515
-0.25941
-0.255461
-0.260055
-0.247562
-0.254567
-0.255856
-0.256076
-0.256347
-0.256637
-0.257009
-0.257444
-0.257892
-0.258293
-0.258627
-0.258478
-0.259163
-0.256095
-0.259408
-0.248912
-0.252874
-0.254438
-0.25482
-0.255268
-0.255723
-0.256243
-0.256807
-0.257364
-0.257862
-0.258248
-0.258215
-0.258798
-0.256334
-0.258694
-0.250023
-0.251275
-0.253105
-0.253625
-0.254222
-0.254812
-0.255451
-0.256115
-0.256758
-0.257325
-0.257754
-0.257885
-0.258162
-0.256339
-0.258015
-0.250822
-0.249792
-0.251874
-0.252511
-0.253231
-0.253929
-0.25466
-0.255403
-0.256108
-0.256724
-0.257187
-0.257402
-0.257489
-0.256361
-0.256926
-0.251664
-0.248452
-0.250765
-0.251499
-0.252319
-0.253102
-0.253904
-0.254704
-0.255455
-0.256104
-0.25659
-0.256843
-0.256856
-0.256143
-0.255996
-0.252509
-0.247282
-0.2498
-0.250613
-0.251512
-0.25236
-0.253215
-0.254056
-0.254838
-0.255509
-0.256009
-0.256281
-0.256276
-0.255781
-0.255306
-0.253004
-0.246309
-0.248998
-0.249874
-0.250833
-0.251729
-0.252621
-0.253492
-0.254294
-0.254978
-0.255488
-0.25577
-0.25577
-0.255393
-0.254807
-0.253243
-0.245556
-0.248379
-0.2493
-0.250303
-0.251232
-0.252151
-0.253041
-0.253856
-0.254547
-0.255062
-0.255349
-0.255361
-0.255051
-0.254459
-0.253336
-0.245043
-0.247957
-0.248908
-0.249939
-0.25089
-0.251825
-0.252726
-0.253548
-0.254244
-0.254761
-0.255051
-0.255074
-0.254801
-0.254235
-0.253354
-0.244782
-0.247742
-0.248709
-0.249754
-0.250715
-0.251657
-0.252564
-0.253389
-0.254086
-0.254604
-0.254896
-0.254924
-0.254668
-0.254124
-0.25335
-0.252869
-0.251623
-0.250402
-0.248873
-0.247182
-0.245292
-0.243224
-0.24098
-0.238564
-0.235978
-0.233227
-0.230312
-0.227245
-0.224031
-0.220669
-0.21716
-0.213508
-0.209715
-0.205785
-0.201723
-0.197533
-0.193219
-0.188788
-0.184246
-0.179599
-0.174857
-0.170026
-0.165116
-0.160136
-0.155098
-0.150013
-0.144891
-0.139745
-0.134586
-0.129426
-0.124279
-0.119156
-0.11407
-0.109032
-0.104053
-0.099145
-0.0943176
-0.0895804
-0.0849423
-0.0804111
-0.0759942
-0.0716974
-0.0675263
-0.0634852
-0.0595777
-0.0558063
-0.052173
-0.0486787
-0.0453237
-0.0421078
-0.03903
-0.0360887
-0.033282
-0.0306075
-0.0280625
-0.025644
-0.0233488
-0.0211735
-0.0191147
-0.0171688
-0.0153322
-0.0136017
-0.0119735
-0.0104449
-0.00901201
-0.00767356
-0.00642367
-0.0052671
-0.0041869
-0.00321439
-0.00227718
-0.00153266
-0.000634368
-0.00035685
0.000988398
-0.253035
-0.251727
-0.250512
-0.248977
-0.247285
-0.245395
-0.243329
-0.241087
-0.238673
-0.236089
-0.233337
-0.230417
-0.227362
-0.224152
-0.220792
-0.217284
-0.213632
-0.209838
-0.205907
-0.201843
-0.19765
-0.193333
-0.188897
-0.184351
-0.179699
-0.174951
-0.170114
-0.165199
-0.160215
-0.155172
-0.150082
-0.144956
-0.139807
-0.134646
-0.129485
-0.124337
-0.119215
-0.114129
-0.109093
-0.104117
-0.0992119
-0.0943878
-0.0896542
-0.0850199
-0.0804923
-0.076079
-0.0717854
-0.0676171
-0.0635783
-0.0596724
-0.055902
-0.0522688
-0.0487739
-0.0454176
-0.0421996
-0.0391189
-0.0361741
-0.0333632
-0.0306841
-0.0281339
-0.0257098
-0.0234088
-0.0212275
-0.0191625
-0.0172105
-0.0153679
-0.0136315
-0.0119978
-0.010464
-0.00902623
-0.00768351
-0.00642975
-0.00527016
-0.00418719
-0.00321328
-0.00227458
-0.00153037
-0.000633499
-0.000353822
0.00096919
-0.253363
-0.251922
-0.250721
-0.249177
-0.247481
-0.24559
-0.243524
-0.241285
-0.238874
-0.236292
-0.233543
-0.230642
-0.227582
-0.224372
-0.221014
-0.217508
-0.213857
-0.210064
-0.206133
-0.202067
-0.197872
-0.193552
-0.189114
-0.184563
-0.179906
-0.175153
-0.170311
-0.16539
-0.160399
-0.155351
-0.150255
-0.145125
-0.139971
-0.134806
-0.129642
-0.124491
-0.119367
-0.11428
-0.109243
-0.104267
-0.0993617
-0.0945382
-0.0898055
-0.0851724
-0.0806446
-0.0762324
-0.0719393
-0.0677711
-0.0637318
-0.0598249
-0.0560529
-0.0524175
-0.0489197
-0.0455599
-0.0423376
-0.039252
-0.0363017
-0.0334849
-0.0307993
-0.0282423
-0.0258112
-0.0235028
-0.0213141
-0.0192417
-0.0172823
-0.0154326
-0.0136892
-0.0120488
-0.0105088
-0.0090652
-0.00771726
-0.00645857
-0.00529509
-0.00420812
-0.00323206
-0.00229024
-0.00154538
-0.00064872
-0.000360949
0.000926433
-0.253833
-0.252183
-0.251008
-0.249451
-0.247751
-0.24586
-0.243795
-0.241559
-0.239152
-0.236576
-0.233832
-0.230933
-0.227879
-0.224675
-0.221321
-0.217819
-0.214171
-0.210379
-0.206449
-0.202384
-0.198188
-0.193867
-0.189425
-0.184871
-0.18021
-0.175452
-0.170604
-0.165678
-0.160681
-0.155627
-0.150525
-0.145389
-0.140229
-0.135059
-0.12989
-0.124735
-0.119607
-0.114517
-0.109477
-0.104498
-0.0995901
-0.0947648
-0.0900304
-0.0853953
-0.0808667
-0.0764521
-0.0721568
-0.067986
-0.0639437
-0.0600334
-0.0562574
-0.0526174
-0.0491145
-0.045749
-0.0425204
-0.0394281
-0.0364706
-0.0336461
-0.0309524
-0.0283872
-0.0259476
-0.0236306
-0.0214333
-0.0193523
-0.0173844
-0.0155264
-0.0137751
-0.0121271
-0.0105799
-0.00912942
-0.00777536
-0.00651069
-0.00534246
-0.00425023
-0.00327116
-0.00232464
-0.00157786
-0.000680326
-0.000378657
0.000862445
-0.254434
-0.252473
-0.251342
-0.249776
-0.248072
-0.246182
-0.244121
-0.24189
-0.239489
-0.236913
-0.234162
-0.231286
-0.228243
-0.225046
-0.221698
-0.218201
-0.214558
-0.210769
-0.206842
-0.202778
-0.198583
-0.194261
-0.189818
-0.185261
-0.180597
-0.175834
-0.170982
-0.16605
-0.161048
-0.155987
-0.15088
-0.145737
-0.140571
-0.135395
-0.130222
-0.125058
-0.119925
-0.114831
-0.109786
-0.104803
-0.0998921
-0.0950628
-0.0903243
-0.0856851
-0.0811526
-0.0767338
-0.072434
-0.0682584
-0.0642111
-0.0602951
-0.0565131
-0.0528666
-0.0493566
-0.0459835
-0.042747
-0.0396462
-0.0366799
-0.0338462
-0.0311432
-0.0285683
-0.026119
-0.0237923
-0.0215852
-0.0194946
-0.0175173
-0.01565
-0.0138898
-0.0122332
-0.0106779
-0.00921964
-0.00785852
-0.0065868
-0.00541284
-0.00431409
-0.00333091
-0.00237817
-0.00162771
-0.000728382
-0.000407054
0.000780578
-0.255197
-0.252743
-0.251689
-0.250119
-0.248414
-0.246529
-0.244475
-0.242253
-0.239861
-0.237298
-0.234584
-0.231693
-0.228654
-0.225465
-0.222124
-0.218634
-0.214998
-0.211215
-0.207293
-0.203232
-0.199038
-0.194717
-0.190274
-0.185716
-0.18105
-0.176285
-0.171429
-0.166495
-0.161482
-0.156416
-0.151304
-0.146155
-0.140983
-0.135801
-0.130621
-0.125454
-0.120315
-0.115214
-0.110164
-0.105176
-0.100259
-0.0954241
-0.0906803
-0.0860357
-0.0814976
-0.0770728
-0.072767
-0.0685849
-0.0645307
-0.0606075
-0.0568177
-0.053163
-0.0496445
-0.0462623
-0.0430164
-0.0399058
-0.0369293
-0.0340853
-0.0313717
-0.0287861
-0.026326
-0.0239885
-0.0217707
-0.0196695
-0.0176818
-0.0158044
-0.0140344
-0.0123682
-0.0108039
-0.00933676
-0.00796758
-0.00668766
-0.00550684
-0.0044002
-0.00341153
-0.00245101
-0.00169457
-0.000792684
-0.000445844
0.000684882
-0.256099
-0.252891
-0.25202
-0.250444
-0.248745
-0.246871
-0.244829
-0.24262
-0.240241
-0.23768
-0.234982
-0.23211
-0.229087
-0.225909
-0.22258
-0.219101
-0.215479
-0.211686
-0.207776
-0.203721
-0.199533
-0.195215
-0.190774
-0.186216
-0.18155
-0.176783
-0.171925
-0.166985
-0.161973
-0.156903
-0.151785
-0.146631
-0.141454
-0.136265
-0.131079
-0.125907
-0.120762
-0.115655
-0.110599
-0.105605
-0.100682
-0.0958417
-0.0910917
-0.0864408
-0.0818961
-0.0774645
-0.0731514
-0.0689618
-0.0648996
-0.0609679
-0.0571693
-0.0535053
-0.049977
-0.0465847
-0.0433282
-0.0402068
-0.0372191
-0.0343637
-0.0316386
-0.0290413
-0.0265695
-0.0242203
-0.0219909
-0.0198782
-0.0178792
-0.0159907
-0.0142099
-0.0125333
-0.0109588
-0.00948182
-0.00810341
-0.00681404
-0.00562499
-0.00450898
-0.00351306
-0.00254318
-0.00177787
-0.000872721
-0.000494365
0.000579697
-0.256573
-0.253277
-0.252214
-0.25072
-0.249032
-0.247174
-0.245151
-0.242961
-0.2406
-0.238064
-0.235378
-0.232523
-0.229514