/*--------------------------------*- C++ -*----------------------------------*\
  =========                 |
  \\      /  F ield         | OpenFOAM: The Open Source CFD Toolbox
   \\    /   O peration     | Website:  https://openfoam.org
    \\  /    A nd           | Version:  7
     \\/     M anipulation  |
\*---------------------------------------------------------------------------*/
FoamFile
{
    version     2.0;
    format      ascii;
    class       surfaceScalarField;
    location    "5.001";
    object      phi;
}
// * * * * * * * * * * * * * * * * * * * * * * * * * * * * * * * * * * * * * //

dimensions      [0 3 -1 0 0 0 0];

internalField   nonuniform List<scalar> 
22580
(
-5.6022e-05
0.0053603
-5.2636e-05
0.00535504
-4.94178e-05
0.00535001
-4.6358e-05
0.00534521
-4.34473e-05
0.00534064
-4.0677e-05
0.0053363
-3.8039e-05
0.00533216
-3.55251e-05
0.00532824
-3.31279e-05
0.00532453
-3.08397e-05
0.00532101
-2.86539e-05
0.0053177
-2.65635e-05
0.00531458
-2.4562e-05
0.00531165
-2.26433e-05
0.00530891
-2.0801e-05
0.00530636
-1.90294e-05
0.00530398
-1.73228e-05
0.00530179
-1.56755e-05
0.00529977
-1.40821e-05
0.00529793
-1.25374e-05
0.00529627
-1.10362e-05
0.00529477
-9.57344e-06
0.00529344
-8.14416e-06
0.00529228
-6.74351e-06
0.00529129
-5.36668e-06
0.00529047
-4.00881e-06
0.00528981
-2.66501e-06
0.00528932
-1.33034e-06
0.00528899
0.00528883
-0.00120397
0.00622806
0.00127981
-0.00113278
0.00620402
-0.00106606
0.00617093
-0.00100359
0.00613511
-0.0009451
0.00609912
-0.000890329
0.00606398
-0.000839011
0.00603002
-0.000790901
0.00599731
-0.000745781
0.00596581
-0.000703456
0.0059355
-0.000663747
0.00590636
-0.00062649
0.00587841
-0.000591526
0.00585167
-0.0005587
0.00582614
-0.000527865
0.00580181
-0.000498883
0.00577862
-0.000471622
0.00575653
-0.000445965
0.00573546
-0.000421801
0.00571534
-0.00039903
0.0056961
-0.000377561
0.00567767
-0.00035731
0.00566001
-0.000338198
0.00564306
-0.000320155
0.00562679
-0.000303113
0.00561115
-0.000287011
0.00559613
-0.000271791
0.00558169
-0.000257399
0.00556781
-0.000243787
0.00555446
-0.000230906
0.00554162
-0.000218714
0.00552927
-0.000207169
0.0055174
-0.000196235
0.00550597
-0.000185875
0.00549498
-0.000176057
0.00548441
-0.000166748
0.00547423
-0.000157922
0.00546445
-0.000149549
0.00545504
-0.000141604
0.00544599
-0.000134064
0.00543729
-0.000126906
0.00542892
-0.000120108
0.00542088
-0.000113651
0.00541315
-0.000107515
0.00540572
-0.000101684
0.00539859
-9.61394e-05
0.00539174
-9.08666e-05
0.00538517
-8.58503e-05
0.00537886
-8.10764e-05
0.00537282
-7.65314e-05
0.00536703
-7.22027e-05
0.00536148
-6.80781e-05
0.00535618
-6.41464e-05
0.00535111
-6.03965e-05
0.00534626
-5.6818e-05
0.00534164
-5.34012e-05
0.00533723
-5.01366e-05
0.00533303
-4.70151e-05
0.00532904
-4.40281e-05
0.00532526
-4.11673e-05
0.00532167
-3.84251e-05
0.00531827
-3.57935e-05
0.00531507
-3.32652e-05
0.00531205
-3.08333e-05
0.00530922
-2.84909e-05
0.00530657
-2.62314e-05
0.0053041
-2.40484e-05
0.0053018
-2.19357e-05
0.00529968
-1.98872e-05
0.00529773
-1.78972e-05
0.00529594
-1.59598e-05
0.00529433
-1.40695e-05
0.00529288
-1.22208e-05
0.00529159
-1.04084e-05
0.00529047
-8.62683e-06
0.00528951
-6.87103e-06
0.00528871
-5.13571e-06
0.00528807
-3.41559e-06
0.0052876
-1.7054e-06
0.00528728
0.00528712
-0.00131134
0.0061452
0.0013942
-0.0012338
0.00612648
-0.00116129
0.00609843
-0.00109354
0.00606736
-0.00103023
0.0060358
-0.000971029
0.00600478
-0.000915624
0.00597462
-0.00086373
0.00594541
-0.000815095
0.00591717
-0.000769495
0.0058899
-0.000726729
0.00586359
-0.000686608
0.00583829
-0.000648955
0.00581402
-0.0006136
0.00579079
-0.000580383
0.00576859
-0.000549151
0.00574739
-0.000519765
0.00572715
-0.000492095
0.00570779
-0.000466023
0.00568927
-0.000441442
0.00567152
-0.000418251
0.00565448
-0.000396363
0.00563812
-0.000375692
0.00562239
-0.000356162
0.00560726
-0.000337701
0.00559269
-0.000320244
0.00557868
-0.000303729
0.00556518
-0.000288098
0.00555218
-0.000273299
0.00553966
-0.000259281
0.0055276
-0.000245998
0.00551599
-0.000233408
0.00550481
-0.000221469
0.00549403
-0.000210143
0.00548365
-0.000199396
0.00547366
-0.000189194
0.00546403
-0.000179506
0.00545476
-0.000170304
0.00544584
-0.000161559
0.00543725
-0.000153247
0.00542897
-0.000145342
0.00542102
-0.000137824
0.00541336
-0.000130669
0.00540599
-0.000123859
0.00539891
-0.000117373
0.0053921
-0.000111195
0.00538556
-0.000105307
0.00537928
-9.96941e-05
0.00537325
-9.43402e-05
0.00536747
-8.92313e-05
0.00536192
-8.43538e-05
0.00535661
-7.96948e-05
0.00535152
-7.52422e-05
0.00534665
-7.09842e-05
0.005342
-6.69099e-05
0.00533756
-6.30085e-05
0.00533333
-5.927e-05
0.00532929
-5.56848e-05
0.00532546
-5.22437e-05
0.00532181
-4.89378e-05
0.00531836
-4.57585e-05
0.00531509
-4.26978e-05
0.00531201
-3.97478e-05
0.0053091
-3.6901e-05
0.00530637
-3.415e-05
0.00530382
-3.14877e-05
0.00530143
-2.89074e-05
0.00529922
-2.64024e-05
0.00529717
-2.39662e-05
0.00529529
-2.15925e-05
0.00529357
-1.92752e-05
0.00529201
-1.70083e-05
0.00529061
-1.4786e-05
0.00528937
-1.26024e-05
0.00528829
-1.04519e-05
0.00528736
-8.32893e-06
0.00528659
-6.22785e-06
0.00528597
-4.14303e-06
0.00528551
-2.06891e-06
0.00528521
0.00528505
-0.00140462
0.00605687
0.00149295
-0.00132204
0.0060439
-0.00124489
0.00602127
-0.00117285
0.00599532
-0.00110559
0.00596854
-0.00104273
0.00594192
-0.000983938
0.00591583
-0.000928896
0.00589037
-0.000877325
0.0058656
-0.000828979
0.00584155
-0.000783636
0.00581825
-0.000741091
0.00579575
-0.000701152
0.00577408
-0.000663637
0.00575327
-0.000628374
0.00573333
-0.000595203
0.00571422
-0.000563976
0.00569592
-0.000534556
0.00567837
-0.000506819
0.00566153
-0.00048065
0.00564535
-0.000455946
0.00562978
-0.000432612
0.00561479
-0.000410559
0.00560034
-0.000389707
0.0055864
-0.000369981
0.00557297
-0.000351311
0.00556001
-0.000333633
0.0055475
-0.000316887
0.00553543
-0.000301015
0.00552379
-0.000285968
0.00551256
-0.000271695
0.00550172
-0.000258151
0.00549126
-0.000245294
0.00548117
-0.000233084
0.00547144
-0.000221485
0.00546206
-0.000210461
0.00545301
-0.000199979
0.00544428
-0.00019001
0.00543587
-0.000180524
0.00542776
-0.000171494
0.00541994
-0.000162896
0.00541242
-0.000154705
0.00540517
-0.000146899
0.00539819
-0.000139457
0.00539147
-0.000132359
0.005385
-0.000125586
0.00537879
-0.00011912
0.00537282
-0.000112945
0.00536708
-0.000107044
0.00536157
-0.000101402
0.00535628
-9.60051e-05
0.00535121
-9.08398e-05
0.00534635
-8.5893e-05
0.00534171
-8.11524e-05
0.00533726
-7.66063e-05
0.00533302
-7.22435e-05
0.00532896
-6.80533e-05
0.0053251
-6.40255e-05
0.00532143
-6.01504e-05
0.00531794
-5.64185e-05
0.00531463
-5.28211e-05
0.0053115
-4.93493e-05
0.00530854
-4.59949e-05
0.00530575
-4.27498e-05
0.00530313
-3.96063e-05
0.00530068
-3.6557e-05
0.00529839
-3.35946e-05
0.00529626
-3.0712e-05
0.00529429
-2.79024e-05
0.00529248
-2.51591e-05
0.00529083
-2.24756e-05
0.00528933
-1.98456e-05
0.00528798
-1.72627e-05
0.00528679
-1.4721e-05
0.00528575
-1.22144e-05
0.00528485
-9.73695e-06
0.00528411
-7.28268e-06
0.00528352
-4.84567e-06
0.00528308
-2.42004e-06
0.00528278
0.00528263
-0.00148253
0.00596477
0.00157463
-0.00139639
0.00595776
-0.00131587
0.00594076
-0.00124068
0.00592013
-0.00117046
0.00589831
-0.00110483
0.00587629
-0.00104343
0.00585443
-0.000985937
0.00583288
-0.000932059
0.00581173
-0.000881535
0.00579103
-0.000834132
0.00577085
-0.000789632
0.00575125
-0.000747835
0.00573228
-0.000708551
0.00571399
-0.000671601
0.00569638
-0.00063682
0.00567944
-0.000604053
0.00566315
-0.00057316
0.00564748
-0.000544013
0.00563239
-0.000516493
0.00561783
-0.000490493
0.00560378
-0.000465915
0.00559021
-0.000442667
0.00557709
-0.000420666
0.0055644
-0.000399835
0.00555214
-0.000380102
0.00554027
-0.000361399
0.0055288
-0.000343665
0.0055177
-0.000326843
0.00550697
-0.000310877
0.00549659
-0.000295718
0.00548656
-0.000281319
0.00547686
-0.000267636
0.00546749
-0.000254627
0.00545844
-0.000242255
0.00544969
-0.000230483
0.00544124
-0.000219278
0.00543308
-0.000208608
0.0054252
-0.000198442
0.00541759
-0.000188754
0.00541026
-0.000179517
0.00540318
-0.000170706
0.00539636
-0.000162297
0.00538978
-0.000154269
0.00538344
-0.000146602
0.00537734
-0.000139274
0.00537146
-0.000132269
0.00536581
-0.000125567
0.00536037
-0.000119154
0.00535515
-0.000113012
0.00535014
-0.000107127
0.00534533
-0.000101485
0.00534071
-9.60724e-05
0.00533629
-9.0876e-05
0.00533206
-8.58837e-05
0.00532802
-8.10838e-05
0.00532416
-7.64652e-05
0.00532048
-7.20172e-05
0.00531698
-6.77296e-05
0.00531365
-6.35925e-05
0.00531049
-5.95965e-05
0.0053075
-5.57326e-05
0.00530467
-5.1992e-05
0.00530201
-4.83664e-05
0.0052995
-4.48477e-05
0.00529716
-4.14278e-05
0.00529497
-3.80994e-05
0.00529293
-3.48548e-05
0.00529105
-3.16871e-05
0.00528931
-2.8589e-05
0.00528773
-2.55539e-05
0.00528629
-2.2575e-05
0.005285
-1.96457e-05
0.00528386
-1.67597e-05
0.00528286
-1.39105e-05
0.00528201
-1.1092e-05
0.00528129
-8.29791e-06
0.00528073
-5.52196e-06
0.0052803
-2.75802e-06
0.00528002
0.00527987
-0.00154443
0.00587064
0.00163856
-0.00145623
0.00586956
-0.0013737
0.00585822
-0.00129653
0.00584296
-0.00122439
0.00582618
-0.00115692
0.00580881
-0.00109374
0.00579125
-0.00103453
0.00577368
-0.000979008
0.0057562
-0.000926902
0.00573892
-0.000877977
0.00572192
-0.000832012
0.00570528
-0.000788803
0.00568907
-0.000748156
0.00567334
-0.00070989
0.00565811
-0.000673839
0.00564339
-0.000639845
0.00562916
-0.000607767
0.0056154
-0.000577473
0.00560209
-0.000548845
0.0055892
-0.000521774
0.00557671
-0.00049616
0.00556459
-0.000471909
0.00555284
-0.000448938
0.00554143
-0.000427168
0.00553037
-0.000406525
0.00551963
-0.000386941
0.00550921
-0.000368354
0.00549911
-0.000350703
0.00548932
-0.000333936
0.00547982
-0.000317999
0.00547062
-0.000302845
0.00546171
-0.00028843
0.00545308
-0.000274711
0.00544472
-0.000261649
0.00543662
-0.000249207
0.00542879
-0.000237351
0.00542122
-0.000226048
0.00541389
-0.000215268
0.00540681
-0.000204981
0.00539997
-0.000195161
0.00539336
-0.000185783
0.00538698
-0.000176823
0.00538082
-0.000168257
0.00537487
-0.000160064
0.00536914
-0.000152225
0.00536362
-0.00014472
0.0053583
-0.000137531
0.00535319
-0.000130641
0.00534826
-0.000124034
0.00534353
-0.000117694
0.00533899
-0.000111606
0.00533462
-0.000105756
0.00533044
-0.000100132
0.00532644
-9.47207e-05
0.00532261
-8.95094e-05
0.00531895
-8.44869e-05
0.00531546
-7.96421e-05
0.00531214
-7.49643e-05
0.00530897
-7.04436e-05
0.00530597
-6.60697e-05
0.00530313
-6.18337e-05
0.00530044
-5.77263e-05
0.0052979
-5.37387e-05
0.00529552
-4.98626e-05
0.00529328
-4.60897e-05
0.00529119
-4.24121e-05
0.00528925
-3.88221e-05
0.00528746
-3.53122e-05
0.0052858
-3.18751e-05
0.00528429
-2.85037e-05
0.00528292
-2.51909e-05
0.00528169
-2.19299e-05
0.0052806
-1.87141e-05
0.00527964
-1.55367e-05
0.00527883
-1.23914e-05
0.00527815
-9.27146e-06
0.00527761
-6.17052e-06
0.0052772
-3.08215e-06
0.00527693
0.00527679
-0.00159026
0.00577613
0.00168477
-0.00150147
0.00578076
-0.00141821
0.00577496
-0.00134024
0.00576499
-0.00126723
0.00575317
-0.00119883
0.00574041
-0.0011347
0.00572712
-0.00107452
0.0057135
-0.00101802
0.0056997
-0.00096494
0.00568584
-0.00091504
0.00567202
-0.000868107
0.00565835
-0.000823937
0.0056449
-0.00078234
0.00563174
-0.000743135
0.00561891
-0.000706158
0.00560641
-0.000671254
0.00559426
-0.000638281
0.00558243
-0.00060711
0.00557092
-0.000577622
0.00555971
-0.000549708
0.00554879
-0.000523268
0.00553815
-0.000498211
0.00552778
-0.000474451
0.00551767
-0.00045191
0.00550783
-0.000430513
0.00549823
-0.000410194
0.00548889
-0.000390889
0.00547981
-0.000372538
0.00547097
-0.000355086
0.00546237
-0.000338482
0.00545402
-0.000322677
0.0054459
-0.000307627
0.00543802
-0.000293288
0.00543038
-0.000279621
0.00542296
-0.000266588
0.00541576
-0.000254156
0.00540879
-0.00024229
0.00540203
-0.00023096
0.00539548
-0.000220137
0.00538915
-0.000209794
0.00538302
-0.000199904
0.00537709
-0.000190443
0.00537136
-0.000181388
0.00536582
-0.000172717
0.00536047
-0.000164411
0.00535532
-0.000156448
0.00535034
-0.00014881
0.00534555
-0.000141481
0.00534093
-0.000134444
0.00533649
-0.000127682
0.00533222
-0.00012118
0.00532812
-0.000114925
0.00532419
-0.000108902
0.00532042
-0.000103099
0.00531681
-9.75026e-05
0.00531336
-9.21015e-05
0.00531006
-8.68842e-05
0.00530692
-8.18398e-05
0.00530393
-7.69575e-05
0.00530109
-7.22276e-05
0.0052984
-6.76402e-05
0.00529585
-6.3186e-05
0.00529345
-5.88559e-05
0.00529119
-5.46412e-05
0.00528907
-5.05334e-05
0.00528709
-4.65243e-05
0.00528524
-4.2606e-05
0.00528354
-3.87708e-05
0.00528197
-3.50109e-05
0.00528053
-3.13191e-05
0.00527923
-2.76881e-05
0.00527806
-2.41109e-05
0.00527702
-2.05804e-05
0.00527611
-1.70899e-05
0.00527534
-1.36325e-05
0.00527469
-1.02014e-05
0.00527417
-6.79009e-06
0.00527379
-3.39181e-06
0.00527353
0.0052734
-0.00162052
0.00568267
0.00171399
-0.00153244
0.00569269
-0.00144966
0.00569218
-0.00137197
0.00568729
-0.00129906
0.00568026
-0.00123063
0.00567198
-0.00116635
0.00566284
-0.00110593
0.00565308
-0.00104911
0.00564288
-0.000995643
0.00563237
-0.000945307
0.00562169
-0.000897895
0.00561094
-0.000853211
0.00560022
-0.000811071
0.0055896
-0.000771302
0.00557914
-0.000733742
0.00556885
-0.000698242
0.00555876
-0.000664664
0.00554885
-0.000632882
0.00553914
-0.00060278
0.00552961
-0.000574251
0.00552027
-0.000547197
0.0055111
-0.000521529
0.00550211
-0.000497162
0.00549331
-0.000474019
0.00548468
-0.000452027
0.00547624
-0.000431118
0.00546799
-0.000411232
0.00545992
-0.000392307
0.00545204
-0.00037429
0.00544435
-0.00035713
0.00543686
-0.000340778
0.00542955
-0.000325189
0.00542244
-0.000310321
0.00541551
-0.000296135
0.00540877
-0.000282593
0.00540222
-0.000269659
0.00539585
-0.000257302
0.00538967
-0.00024549
0.00538367
-0.000234194
0.00537785
-0.000223386
0.00537221
-0.00021304
0.00536674
-0.000203132
0.00536145
-0.000193638
0.00535633
-0.000184537
0.00535137
-0.000175807
0.00534659
-0.000167428
0.00534196
-0.000159383
0.0053375
-0.000151653
0.0053332
-0.000144222
0.00532906
-0.000137072
0.00532507
-0.00013019
0.00532124
-0.00012356
0.00531756
-0.000117169
0.00531403
-0.000111002
0.00531064
-0.000105049
0.0053074
-9.92951e-05
0.00530431
-9.37304e-05
0.00530135
-8.83432e-05
0.00529854
-8.31229e-05
0.00529587
-7.8059e-05
0.00529333
-7.31417e-05
0.00529093
-6.83613e-05
0.00528867
-6.37086e-05
0.00528653
-5.91747e-05
0.00528453
-5.47508e-05
0.00528266
-5.04286e-05
0.00528092
-4.61998e-05
0.00527931
-4.20564e-05
0.00527782
-3.79908e-05
0.00527647
-3.39952e-05
0.00527523
-3.00623e-05
0.00527413
-2.61848e-05
0.00527314
-2.23554e-05
0.00527228
-1.85672e-05
0.00527155
-1.48131e-05
0.00527094
-1.10862e-05
0.00527045
-7.37958e-06
0.00527008
-3.68645e-06
0.00526984
0.00526971
-0.00163597
0.00559152
0.00172712
-0.00154979
0.00560651
-0.00146857
0.00561097
-0.00139215
0.00561087
-0.00132026
0.00560837
-0.00125262
0.00560433
-0.00118893
0.00559916
-0.00112895
0.0055931
-0.00107242
0.00558636
-0.00101914
0.00557908
-0.000968879
0.00557143
-0.000921458
0.00556352
-0.00087669
0.00555545
-0.000834401
0.00554732
-0.000794428
0.00553917
-0.000756618
0.00553104
-0.000720828
0.00552297
-0.000686928
0.00551495
-0.000654796
0.00550701
-0.000624321
0.00549914
-0.000595401
0.00549135
-0.000567941
0.00548364
-0.000541854
0.00547603
-0.000517059
0.00546851
-0.000493481
0.0054611
-0.000471048
0.00545381
-0.000449696
0.00544663
-0.000429363
0.00543959
-0.000409991
0.00543267
-0.000391527
0.00542589
-0.000373922
0.00541925
-0.000357126
0.00541276
-0.000341096
0.00540641
-0.000325791
0.0054002
-0.000311171
0.00539415
-0.000297199
0.00538825
-0.000283841
0.0053825
-0.000271064
0.00537689
-0.000258837
0.00537144
-0.000247131
0.00536614
-0.000235918
0.005361
-0.000225173
0.005356
-0.000214871
0.00535115
-0.000204989
0.00534644
-0.000195504
0.00534189
-0.000186396
0.00533748
-0.000177646
0.00533321
-0.000169233
0.00532909
-0.000161141
0.00532511
-0.000153352
0.00532127
-0.000145851
0.00531757
-0.000138621
0.00531401
-0.000131649
0.00531059
-0.000124919
0.0053073
-0.000118419
0.00530414
-0.000112135
0.00530112
-0.000106056
0.00529823
-0.00010017
0.00529547
-9.44644e-05
0.00529284
-8.89295e-05
0.00529033
-8.35545e-05
0.00528796
-7.83292e-05
0.00528571
-7.3244e-05
0.00528358
-6.82893e-05
0.00528158
-6.3456e-05
0.0052797
-5.87354e-05
0.00527794
-5.41187e-05
0.0052763
-4.95976e-05
0.00527479
-4.51641e-05
0.00527339
-4.08101e-05
0.00527211
-3.65278e-05
0.00527095
-3.23097e-05
0.00526991
-2.81483e-05
0.00526898
-2.40363e-05
0.00526817
-1.99664e-05
0.00526748
-1.59314e-05
0.0052669
-1.19243e-05
0.00526644
-7.93806e-06
0.00526609
-3.96559e-06
0.00526586
0.00526575
-0.00163759
0.00550385
0.00172526
-0.00155437
0.00552329
-0.00147569
0.00553229
-0.00140143
0.00553661
-0.00133136
0.00553831
-0.00126525
0.00553821
-0.00120284
0.00553675
-0.00114391
0.00553417
-0.00108825
0.0055307
-0.00103566
0.0055265
-0.000985962
0.00552173
-0.00093897
0.00551653
-0.000894522
0.005511
-0.000852455
0.00550525
-0.000812621
0.00549933
-0.000774876
0.0054933
-0.000739089
0.00548718
-0.000705136
0.005481
-0.000672905
0.00547478
-0.000642289
0.00546852
-0.000613194
0.00546225
-0.000585528
0.00545597
-0.000559209
0.00544971
-0.00053416
0.00544346
-0.000510308
0.00543725
-0.000487586
0.00543109
-0.000465931
0.00542498
-0.000445284
0.00541894
-0.000425589
0.00541298
-0.000406795
0.0054071
-0.000388852
0.00540131
-0.000371715
0.00539562
-0.00035534
0.00539003
-0.000339688
0.00538455
-0.000324719
0.00537918
-0.000310397
0.00537393
-0.000296689
0.00536879
-0.000283563
0.00536377
-0.000270988
0.00535887
-0.000258935
0.00535409
-0.000247377
0.00534944
-0.000236289
0.00534491
-0.000225647
0.0053405
-0.000215426
0.00533622
-0.000205607
0.00533207
-0.000196167
0.00532804
-0.000187087
0.00532413
-0.000178348
0.00532035
-0.000169933
0.0053167
-0.000161825
0.00531316
-0.000154007
0.00530975
-0.000146463
0.00530647
-0.00013918
0.0053033
-0.000132143
0.00530026
-0.000125338
0.00529734
-0.000118753
0.00529453
-0.000112376
0.00529185
-0.000106193
0.00528929
-0.000100195
0.00528684
-9.43698e-05
0.00528451
-8.87067e-05
0.00528229
-8.31959e-05
0.0052802
-7.78274e-05
0.00527821
-7.25916e-05
0.00527634
-6.74793e-05
0.00527459
-6.24816e-05
0.00527294
-5.75896e-05
0.00527141
-5.2795e-05
0.00526999
-4.80894e-05
0.00526868
-4.34649e-05
0.00526749
-3.89134e-05
0.0052664
-3.44272e-05
0.00526542
-2.99988e-05
0.00526455
-2.56207e-05
0.00526379
-2.12855e-05
0.00526314
-1.69859e-05
0.0052626
-1.27147e-05
0.00526217
-8.46476e-06
0.00526184
-4.22887e-06
0.00526163
0.00526152
-0.00162661
0.00542062
0.00170983
-0.00154725
0.00544393
-0.00147195
0.00545698
-0.00140061
0.00546527
-0.00133306
0.00547076
-0.00126912
0.00547427
-0.00120859
0.00547621
-0.00115127
0.00547685
-0.00109698
0.00547641
-0.00104556
0.00547508
-0.000996851
0.00547302
-0.000950689
0.00547036
-0.000906929
0.00546724
-0.000865428
0.00546375
-0.000826049
0.00545995
-0.000788663
0.00545591
-0.000753151
0.00545167
-0.000719399
0.00544725
-0.000687303
0.00544268
-0.000656767
0.00543798
-0.0006277
0.00543318
-0.000600019
0.00542829
-0.000573646
0.00542333
-0.000548508
0.00541832
-0.000524538
0.00541328
-0.000501673
0.00540822
-0.000479851
0.00540316
-0.000459017
0.00539811
-0.000439119
0.00539308
-0.000420106
0.00538808
-0.000401932
0.00538314
-0.000384553
0.00537824
-0.000367927
0.00537341
-0.000352015
0.00536864
-0.00033678
0.00536395
-0.000322187
0.00535933
-0.000308204
0.0053548
-0.000294798
0.00535036
-0.00028194
0.00534601
-0.000269602
0.00534175
-0.000257759
0.00533759
-0.000246384
0.00533353
-0.000235454
0.00532957
-0.000224946
0.00532572
-0.000214839
0.00532196
-0.000205112
0.00531831
-0.000195746
0.00531477
-0.000186722
0.00531133
-0.000178023
0.005308
-0.000169631
0.00530477
-0.000161532
0.00530165
-0.000153709
0.00529864
-0.000146147
0.00529574
-0.000138834
0.00529295
-0.000131754
0.00529026
-0.000124896
0.00528768
-0.000118247
0.0052852
-0.000111795
0.00528283
-0.000105529
0.00528057
-9.94376e-05
0.00527842
-9.35102e-05
0.00527637
-8.77364e-05
0.00527442
-8.21065e-05
0.00527258
-7.66108e-05
0.00527085
-7.12401e-05
0.00526922
-6.59852e-05
0.00526769
-6.08375e-05
0.00526626
-5.57883e-05
0.00526494
-5.08292e-05
0.00526373
-4.59522e-05
0.00526261
-4.11492e-05
0.0052616
-3.64124e-05
0.00526069
-3.17342e-05
0.00525988
-2.71069e-05
0.00525917
-2.25231e-05
0.00525856
-1.79755e-05
0.00525805
-1.34565e-05
0.00525765
-8.95908e-06
0.00525735
-4.47598e-06
0.00525714
0.00525704
-0.00160453
0.00534256
0.0016826
-0.00152972
0.00536912
-0.00145844
0.0053857
-0.00139064
0.00539747
-0.0013262
0.00540633
-0.00126498
0.00541305
-0.00120682
0.00541805
-0.00115158
0.00542161
-0.0010991
0.00542394
-0.00104926
0.00542524
-0.00100192
0.00542567
-0.000956941
0.00542539
-0.000914199
0.0054245
-0.00087357
0.00542312
-0.000834932
0.00542131
-0.000798173
0.00541915
-0.000763185
0.00541668
-0.000729866
0.00541393
-0.000698124
0.00541094
-0.000667869
0.00540773
-0.000639021
0.00540433
-0.000611502
0.00540077
-0.000585242
0.00539707
-0.000560173
0.00539326
-0.000536232
0.00538934
-0.00051336
0.00538535
-0.000491501
0.0053813
-0.000470603
0.00537721
-0.000450615
0.00537309
-0.000431492
0.00536896
-0.000413188
0.00536483
-0.000395662
0.00536071
-0.000378875
0.00535662
-0.000362789
0.00535255
-0.000347368
0.00534853
-0.00033258
0.00534455
-0.000318392
0.00534062
-0.000304774
0.00533674
-0.000291698
0.00533294
-0.000279137
0.00532919
-0.000267065
0.00532552
-0.000255458
0.00532193
-0.000244293
0.00531841
-0.000233546
0.00531497
-0.000223199
0.00531161
-0.000213229
0.00530834
-0.000203619
0.00530516
-0.000194351
0.00530206
-0.000185406
0.00529905
-0.000176769
0.00529613
-0.000168423
0.00529331
-0.000160354
0.00529058
-0.000152547
0.00528793
-0.000144987
0.00528539
-0.000137663
0.00528293
-0.00013056
0.00528057
-0.000123667
0.00527831
-0.000116972
0.00527614
-0.000110463
0.00527406
-0.00010413
0.00527208
-9.79612e-05
0.0052702
-9.19473e-05
0.00526841
-8.6078e-05
0.00526671
-8.03438e-05
0.00526511
-7.47353e-05
0.00526361
-6.92435e-05
0.0052622
-6.38595e-05
0.00526088
-5.85748e-05
0.00525966
-5.3381e-05
0.00525853
-4.82698e-05
0.0052575
-4.32333e-05
0.00525656
-3.82635e-05
0.00525572
-3.33528e-05
0.00525496
-2.84934e-05
0.00525431
-2.3678e-05
0.00525374
-1.88988e-05
0.00525328
-1.41489e-05
0.0052529
-9.42056e-06
0.00525262
-4.70668e-06
0.00525243
0.00525234
-0.00157291
0.00527018
0.00164529
-0.00150316
0.00529937
-0.00143638
0.00531892
-0.00137258
0.00533367
-0.0013117
0.00534544
-0.00125362
0.00535498
-0.00119825
0.00536268
-0.00114547
0.00536883
-0.00109517
0.00537364
-0.00104725
0.00537732
-0.0010016
0.00538002
-0.000958107
0.00538189
-0.00091667
0.00538306
-0.00087718
0.00538363
-0.000839536
0.00538367
-0.000803641
0.00538326
-0.000769399
0.00538244
-0.000736723
0.00538125
-0.000705531
0.00537974
-0.000675743
0.00537794
-0.000647287
0.00537588
-0.000620094
0.00537358
-0.0005941
0.00537108
-0.000569244
0.0053684
-0.000545469
0.00536556
-0.000522719
0.0053626
-0.000500945
0.00535952
-0.000480096
0.00535636
-0.000460127
0.00535312
-0.000440995
0.00534983
-0.000422658
0.00534649
-0.000405077
0.00534313
-0.000388214
0.00533976
-0.000372035
0.00533637
-0.000356506
0.005333
-0.000341595
0.00532963
-0.000327272
0.00532629
-0.000313508
0.00532298
-0.000300276
0.0053197
-0.00028755
0.00531647
-0.000275306
0.00531328
-0.00026352
0.00531014
-0.000252169
0.00530706
-0.000241233
0.00530403
-0.00023069
0.00530107
-0.000220523
0.00529817
-0.000210711
0.00529535
-0.000201237
0.00529259
-0.000192085
0.0052899
-0.000183238
0.00528729
-0.000174681
0.00528475
-0.000166399
0.00528229
-0.000158378
0.00527991
-0.000150603
0.00527761
-0.000143063
0.00527539
-0.000135744
0.00527325
-0.000128634
0.0052712
-0.000121721
0.00526923
-0.000114995
0.00526734
-0.000108444
0.00526553
-0.000102058
0.00526381
-9.58265e-05
0.00526218
-8.97399e-05
0.00526063
-8.37885e-05
0.00525916
-7.7963e-05
0.00525778
-7.22545e-05
0.00525649
-6.6654e-05
0.00525528
-6.11532e-05
0.00525416
-5.57433e-05
0.00525312
-5.04164e-05
0.00525217
-4.51645e-05
0.00525131
-3.99795e-05
0.00525053
-3.48537e-05
0.00524984
-2.97795e-05
0.00524923
-2.47494e-05
0.00524871
-1.97559e-05
0.00524828
-1.47915e-05
0.00524794
-9.8489e-06
0.00524768
-4.92083e-06
0.0052475
0.00524742
-0.00153329
0.00520382
0.00159965
-0.00146893
0.00523501
-0.00140699
0.00525698
-0.00134753
0.00527421
-0.00129052
0.00528843
-0.00123591
0.00530036
-0.00118363
0.0053104
-0.00113361
0.00531881
-0.00108578
0.00532581
-0.00104006
0.0053316
-0.000996364
0.00533632
-0.000954612
0.00534014
-0.000914717
0.00534317
-0.000876595
0.00534551
-0.000840162
0.00534724
-0.000805334
0.00534843
-0.000772034
0.00534914
-0.000740185
0.0053494
-0.000709716
0.00534928
-0.000680559
0.00534879
-0.000652652
0.00534797
-0.000625933
0.00534686
-0.000600345
0.00534549
-0.000575834
0.00534389
-0.000552349
0.00534208
-0.00052984
0.00534009
-0.000508261
0.00533795
-0.000487568
0.00533567
-0.000467719
0.00533327
-0.000448673
0.00533078
-0.000430393
0.00532821
-0.000412842
0.00532558
-0.000395985
0.0053229
-0.00037979
0.00532018
-0.000364225
0.00531743
-0.000349261
0.00531467
-0.000334868
0.0053119
-0.000321021
0.00530913
-0.000307693
0.00530638
-0.000294859
0.00530363
-0.000282497
0.00530092
-0.000270583
0.00529823
-0.000259096
0.00529557
-0.000248016
0.00529295
-0.000237323
0.00529038
-0.000226999
0.00528785
-0.000217026
0.00528537
-0.000207386
0.00528295
-0.000198064
0.00528058
-0.000189043
0.00527827
-0.000180309
0.00527602
-0.000171846
0.00527383
-0.000163642
0.00527171
-0.000155683
0.00526965
-0.000147955
0.00526767
-0.000140447
0.00526575
-0.000133147
0.0052639
-0.000126043
0.00526212
-0.000119125
0.00526042
-0.00011238
0.00525879
-0.0001058
0.00525723
-9.93739e-05
0.00525575
-9.30919e-05
0.00525434
-8.69446e-05
0.00525301
-8.09229e-05
0.00525176
-7.50178e-05
0.00525058
-6.92205e-05
0.00524948
-6.35226e-05
0.00524846
-5.79156e-05
0.00524751
-5.23914e-05
0.00524665
-4.69421e-05
0.00524586
-4.15597e-05
0.00524515
-3.62364e-05
0.00524452
-3.09648e-05
0.00524396
-2.57371e-05
0.00524349
-2.0546e-05
0.00524309
-1.53841e-05
0.00524277
-1.0244e-05
0.00524254
-5.11836e-06
0.00524238
0.0052423
-0.00148723
0.00514364
0.00154742
-0.00142843
0.0051762
-0.00137151
0.00520007
-0.00131658
0.00521929
-0.00126366
0.00523551
-0.00121273
0.00524943
-0.00116376
0.00526143
-0.00111672
0.00527177
-0.00107157
0.00528066
-0.00102825
0.00528828
-0.000986719
0.00529479
-0.000946904
0.00530033
-0.000908746
0.00530501
-0.000872178
0.00530894
-0.000837134
0.00531219
-0.000803546
0.00531484
-0.000771351
0.00531694
-0.000740487
0.00531854
-0.000710892
0.00531968
-0.000682511
0.0053204
-0.000655289
0.00532075
-0.000629174
0.00532075
-0.000604116
0.00532043
-0.000580069
0.00531984
-0.000556987
0.005319
-0.000534826
0.00531793
-0.000513545
0.00531666
-0.000493105
0.00531523
-0.000473467
0.00531363
-0.000454595
0.00531191
-0.000436455
0.00531007
-0.000419013
0.00530814
-0.000402238
0.00530612
-0.000386098
0.00530404
-0.000370567
0.0053019
-0.000355614
0.00529972
-0.000341215
0.0052975
-0.000327344
0.00529526
-0.000313976
0.00529301
-0.000301088
0.00529075
-0.000288658
0.00528849
-0.000276666
0.00528623
-0.00026509
0.00528399
-0.000253911
0.00528177
-0.000243111
0.00527958
-0.000232672
0.00527741
-0.000222577
0.00527528
-0.000212808
0.00527318
-0.000203352
0.00527112
-0.000194191
0.00526911
-0.000185313
0.00526714
-0.000176702
0.00526522
-0.000168345
0.00526335
-0.00016023
0.00526154
-0.000152344
0.00525978
-0.000144675
0.00525808
-0.000137211
0.00525644
-0.000129942
0.00525485
-0.000122855
0.00525333
-0.000115941
0.00525187
-0.00010919
0.00525048
-0.000102591
0.00524915
-9.61351e-05
0.00524789
-8.9813e-05
0.00524669
-8.36156e-05
0.00524556
-7.75339e-05
0.0052445
-7.15594e-05
0.00524351
-6.56834e-05
0.00524258
-5.98981e-05
0.00524173
-5.4195e-05
0.00524094
-4.85664e-05
0.00524023
-4.30043e-05
0.00523959
-3.7501e-05
0.00523901
-3.20491e-05
0.00523851
-2.66411e-05
0.00523808
-2.12694e-05
0.00523772
-1.59267e-05
0.00523743
-1.06058e-05
0.00523721
-5.29927e-06
0.00523707
0.005237
-0.00143621
0.00508959
0.00149025
-0.00138298
0.00512297
-0.00133113
0.00514822
-0.00128081
0.00516897
-0.00123208
0.00518677
-0.00118494
0.0052023
-0.00113941
0.0052159
-0.00109549
0.00522785
-0.00105316
0.00523833
-0.0010124
0.00524752
-0.000973178
0.00525556
-0.000935451
0.0052626
-0.000899177
0.00526874
-0.000864308
0.00527407
-0.000830795
0.00527868
-0.000798587
0.00528263
-0.000767633
0.00528599
-0.000737883
0.00528879
-0.000709289
0.00529109
-0.000681805
0.00529292
-0.000655386
0.00529433
-0.000629988
0.00529535
-0.000605569
0.00529602
-0.000582089
0.00529636
-0.000559509
0.00529642
-0.000537791
0.00529621
-0.0005169
0.00529577
-0.000496799
0.00529513
-0.000477456
0.00529429
-0.000458839
0.00529329
-0.000440915
0.00529215
-0.000423655
0.00529088
-0.000407031
0.0052895
-0.000391015
0.00528802
-0.000375579
0.00528647
-0.0003607
0.00528484
-0.000346352
0.00528315
-0.000332512
0.00528142
-0.000319157
0.00527965
-0.000306266
0.00527786
-0.000293818
0.00527604
-0.000281794
0.00527421
-0.000270173
0.00527237
-0.000258939
0.00527054
-0.000248072
0.00526871
-0.000237557
0.0052669
-0.000227377
0.0052651
-0.000217516
0.00526332
-0.00020796
0.00526156
-0.000198693
0.00525984
-0.000189703
0.00525815
-0.000180974
0.00525649
-0.000172495
0.00525487
-0.000164253
0.0052533
-0.000156236
0.00525176
-0.000148432
0.00525027
-0.000140831
0.00524883
-0.00013342
0.00524744
-0.000126189
0.0052461
-0.000119129
0.00524481
-0.000112229
0.00524358
-0.00010548
0.0052424
-9.88718e-05
0.00524128
-9.23958e-05
0.00524022
-8.60429e-05
0.00523921
-7.98045e-05
0.00523826
-7.36721e-05
0.00523738
-6.76373e-05
0.00523655
-6.1692e-05
0.00523578
-5.58282e-05
0.00523508
-5.00381e-05
0.00523444
-4.43139e-05
0.00523386
-3.86481e-05
0.00523335
-3.30332e-05
0.0052329
-2.74616e-05
0.00523251
-2.19262e-05
0.00523218
-1.64195e-05
0.00523192
-1.09344e-05
0.00523173
-5.46363e-06
0.0052316
0.00523153
-0.00138158
0.00504153
0.00142965
-0.00133382
0.0050752
-0.00128698
0.00510138
-0.00124124
0.00512324
-0.0011967
0.00514222
-0.00115339
0.00515899
-0.00111135
0.00517387
-0.00107062
0.00518712
-0.00103119
0.00519891
-0.000993075