/*--------------------------------*- C++ -*----------------------------------*\
  =========                 |
  \\      /  F ield         | OpenFOAM: The Open Source CFD Toolbox
   \\    /   O peration     | Website:  https://openfoam.org
    \\  /    A nd           | Version:  7
     \\/     M anipulation  |
\*---------------------------------------------------------------------------*/
FoamFile
{
    version     2.0;
    format      ascii;
    class       volVectorField;
    location    "5.001";
    object      U;
}
// * * * * * * * * * * * * * * * * * * * * * * * * * * * * * * * * * * * * * //

dimensions      [0 1 -1 0 0 0 0];

internalField   nonuniform List<vector> 
11400
(
(1.08896 0.00775409 0)
(1.08787 0.00728792 0)
(1.08683 0.00684495 0)
(1.08584 0.00642385 -9.07827e-12)
(1.0849 0.00602337 -8.92178e-12)
(1.084 0.00564232 0)
(1.08315 0.00527956 0)
(1.08234 0.00493399 -4.41185e-29)
(1.08157 0.00460458 6.03958e-28)
(1.08085 0.00429031 -6.95335e-28)
(1.08016 0.00399023 0)
(1.07952 0.00370341 0)
(1.07892 0.00342896 0)
(1.07835 0.00316602 -7.85035e-12)
(1.07782 0.00291376 -7.76527e-12)
(1.07733 0.00267137 0)
(1.07688 0.00243808 0)
(1.07647 0.00221313 0)
(1.07609 0.00199578 0)
(1.07574 0.00178531 7.43107e-12)
(1.07543 0.00158103 7.38177e-12)
(1.07516 0.00138223 0)
(1.07492 0.00118827 0)
(1.07472 0.000998467 -7.26757e-12)
(1.07455 0.000812187 -7.24054e-12)
(1.07441 0.000628784 0)
(1.07431 0.000447597 -3.73865e-29)
(1.07424 0.000267937 3.73306e-29)
(1.07421 8.91968e-05 0)
(1.273 0.163563 0)
(1.26761 0.156461 0)
(1.2604 0.147632 0)
(1.25266 0.138824 0)
(1.24491 0.130684 0)
(1.23737 0.123097 0)
(1.2301 0.115984 0)
(1.2231 0.109315 0)
(1.21638 0.103061 0)
(1.20992 0.0971965 0)
(1.20372 0.0916946 0)
(1.19778 0.0865328 0)
(1.1921 0.0816893 0)
(1.18669 0.0771432 0)
(1.18153 0.0728742 0)
(1.17662 0.0688629 0)
(1.17195 0.0650914 0)
(1.1675 0.0615427 0)
(1.16326 0.0582017 0)
(1.1592 0.0550541 0)
(1.15532 0.0520872 0)
(1.1516 0.0492892 0)
(1.14804 0.0466493 0)
(1.14462 0.0441575 0)
(1.14134 0.0418044 0)
(1.13819 0.0395816 0)
(1.13516 0.0374809 0)
(1.13225 0.0354949 0)
(1.12946 0.0336167 0)
(1.12677 0.0318398 0)
(1.12419 0.0301582 0)
(1.12171 0.0285661 0)
(1.11933 0.0270585 0)
(1.11703 0.0256302 0)
(1.11483 0.0242768 0)
(1.11271 0.022994 0)
(1.11067 0.0217776 0)
(1.10871 0.0206239 0)
(1.10683 0.0195295 0)
(1.10502 0.0184908 0)
(1.10328 0.0175049 0)
(1.1016 0.0165688 0)
(1.1 0.0156797 0)
(1.09846 0.0148351 0)
(1.09697 0.0140324 0)
(1.09555 0.0132693 0)
(1.09419 0.0125438 0)
(1.09288 0.0118536 0)
(1.09163 0.0111969 0)
(1.09043 0.0105718 0)
(1.08928 0.00997658 0)
(1.08818 0.00940956 0)
(1.08713 0.00886916 0)
(1.08613 0.00835389 0)
(1.08517 0.00786232 0)
(1.08426 0.0073931 0)
(1.08339 0.00694492 0)
(1.08256 0.00651655 0)
(1.08178 0.00610681 0)
(1.08104 0.00571457 1.76864e-28)
(1.08034 0.00533873 -1.76864e-28)
(1.07967 0.00497826 0)
(1.07905 0.00463215 0)
(1.07846 0.00429944 0)
(1.07792 0.00397919 0)
(1.07741 0.00367051 0)
(1.07693 0.00337252 0)
(1.07649 0.00308438 0)
(1.07609 0.00280527 0)
(1.07572 0.00253438 0)
(1.07539 0.00227095 0)
(1.07509 0.00201421 0)
(1.07482 0.00176341 0)
(1.07459 0.00151784 0)
(1.07439 0.00127677 0)
(1.07423 0.0010395 0)
(1.0741 0.000805344 0)
(1.074 0.000573577 0)
(1.07393 0.000343468 0)
(1.0739 0.000114366 0)
(1.2568 0.178427 0)
(1.25242 0.170478 0)
(1.24617 0.160779 0)
(1.23935 0.151229 0)
(1.23247 0.142419 0)
(1.22573 0.134213 0)
(1.21919 0.126529 0)
(1.21289 0.119333 0)
(1.20681 0.112591 0)
(1.20094 0.106272 0)
(1.1953 0.100346 0)
(1.18988 0.0947873 0)
(1.18469 0.089572 0)
(1.17973 0.0846763 0)
(1.17499 0.0800782 0)
(1.17048 0.0757565 0)
(1.16617 0.0716917 0)
(1.16206 0.0678657 0)
(1.15813 0.0642618 0)
(1.15437 0.060865 1.80344e-27)
(1.15076 0.0576613 -1.80344e-27)
(1.1473 0.0546382 0)
(1.14398 0.051784 0)
(1.14079 0.0490879 0)
(1.13772 0.0465401 0)
(1.13476 0.0441312 0)
(1.13192 0.0418528 0)
(1.12919 0.0396969 0)
(1.12656 0.037656 0)
(1.12403 0.0357232 0)
(1.12159 0.0338922 0)
(1.11925 0.0321569 0)
(1.11699 0.0305116 0)
(1.11482 0.0289512 0)
(1.11273 0.0274708 0)
(1.11072 0.0260657 0)
(1.10878 0.0247316 0)
(1.10692 0.0234646 0)
(1.10513 0.0222608 0)
(1.1034 0.0211167 0)
(1.10174 0.0200289 0)
(1.10015 0.0189944 0)
(1.09861 0.0180102 0)
(1.09714 0.0170734 -1.34816e-28)
(1.09572 0.0161816 1.34816e-28)
(1.09436 0.0153322 0)
(1.09305 0.0145228 0)
(1.0918 0.0137514 0)
(1.0906 0.0130157 0)
(1.08945 0.0123139 0)
(1.08834 0.011644 0)
(1.08729 0.0110043 0)
(1.08628 0.0103931 0)
(1.08531 0.00980881 0)
(1.08439 0.00924988 0)
(1.08351 0.00871487 0)
(1.08268 0.00820239 0)
(1.08188 0.00771112 0)
(1.08113 0.00723979 0)
(1.08041 0.0067872 -1.25914e-11)
(1.07973 0.00635217 1.25914e-11)
(1.07909 0.0059336 0)
(1.07849 0.0055304 0)
(1.07793 0.00514155 0)
(1.0774 0.00476605 0)
(1.07691 0.00440293 0)
(1.07645 0.00405126 0)
(1.07602 0.00371014 0)
(1.07563 0.00337868 0)
(1.07528 0.00305604 0)
(1.07495 0.00274137 0)
(1.07467 0.00243387 0)
(1.07441 0.00213273 0)
(1.07418 0.00183718 0)
(1.07399 0.00154645 0)
(1.07383 0.0012598 0)
(1.07371 0.000976455 0)
(1.07361 0.000695672 0)
(1.07355 0.000416672 0)
(1.07352 0.000138759 0)
(1.23933 0.191375 0)
(1.23608 0.1827 0)
(1.2309 0.172284 0)
(1.22509 0.16214 0)
(1.21914 0.152786 0)
(1.21327 0.14407 0)
(1.20755 0.135915 0)
(1.20198 0.128282 0)
(1.19659 0.121133 0)
(1.19136 0.114433 0)
(1.18632 0.108151 0)
(1.18145 0.102257 0)
(1.17678 0.0967262 0)
(1.1723 0.0915326 0)
(1.16802 0.0866527 0)
(1.16392 0.082064 0)
(1.16 0.0777459 0)
(1.15624 0.0736792 0)
(1.15265 0.0698463 0)
(1.1492 0.0662315 0)
(1.14588 0.0628199 0)
(1.1427 0.0595984 0)
(1.13963 0.0565546 0)
(1.13667 0.0536773 0)
(1.13383 0.0509559 0)
(1.13108 0.0483809 0)
(1.12844 0.0459431 0)
(1.12589 0.0436344 0)
(1.12344 0.0414468 0)
(1.12107 0.0393731 0)
(1.11879 0.0374065 0)
(1.11659 0.0355408 0)
(1.11447 0.0337701 0)
(1.11243 0.0320889 0)
(1.11046 0.0304919 0)
(1.10856 0.0289745 0)
(1.10673 0.027532 0)
(1.10497 0.0261602 0)
(1.10327 0.0248553 0)
(1.10164 0.0236134 0)
(1.10006 0.022431 0)
(1.09855 0.0213048 0)
(1.09709 0.0202318 0)
(1.09569 0.019209 2.4653e-28)
(1.09434 0.0182337 -2.4653e-28)
(1.09304 0.0173033 0)
(1.0918 0.0164152 0)
(1.0906 0.0155672 0)
(1.08945 0.0147571 0)
(1.08835 0.0139829 0)
(1.0873 0.0132424 0)
(1.08629 0.0125339 0)
(1.08532 0.0118556 0)
(1.0844 0.0112057 0)
(1.08351 0.0105828 0)
(1.08267 0.00998515 0)
(1.08187 0.0094114 0)
(1.08111 0.00886013 0)
(1.08038 0.00832999 0)
(1.07969 0.0078197 -1.25559e-11)
(1.07904 0.00732804 1.25559e-11)
(1.07843 0.00685382 0)
(1.07785 0.0063959 0)
(1.07731 0.00595319 0)
(1.0768 0.00552464 0)
(1.07632 0.00510921 0)
(1.07588 0.00470593 0)
(1.07548 0.00431383 0)
(1.0751 0.00393199 0)
(1.07476 0.00355948 0)
(1.07445 0.00319544 0)
(1.07417 0.002839 0)
(1.07392 0.00248931 0)
(1.0737 0.00214554 0)
(1.07352 0.00180689 0)
(1.07337 0.00147254 0)
(1.07324 0.00114172 0)
(1.07315 0.000813601 0)
(1.07309 0.00048738 0)
(1.07306 0.00016232 0)
(1.22093 0.202218 0)
(1.21888 0.192957 0)
(1.21483 0.18201 0)
(1.21009 0.171439 0)
(1.20514 0.161682 0)
(1.20018 0.152582 0)
(1.1953 0.144066 0)
(1.19052 0.136095 0)
(1.18585 0.128628 0)
(1.1813 0.121628 0)
(1.17687 0.115061 0)
(1.17259 0.108899 0)
(1.16846 0.103113 0)
(1.16448 0.0976762 0)
(1.16067 0.0925646 0)
(1.157 0.0877549 0)
(1.15348 0.0832257 0)
(1.15011 0.078957 0)
(1.14686 0.074931 0)
(1.14374 0.071131 -2.63194e-27)
(1.14073 0.0675419 2.63194e-27)
(1.13782 0.0641501 0)
(1.13502 0.0609427 0)
(1.13231 0.0579082 0)
(1.1297 0.0550357 0)
(1.12718 0.0523152 0)
(1.12474 0.0497374 0)
(1.12239 0.0472938 0)
(1.12011 0.0449761 0)
(1.11792 0.042777 0)
(1.1158 0.0406895 0)
(1.11375 0.038707 0)
(1.11177 0.0368235 0)
(1.10986 0.0350332 0)
(1.10802 0.0333309 0)
(1.10624 0.0317114 1.69541e-27)
(1.10452 0.0301703 -1.69541e-27)
(1.10287 0.028703 0)
(1.10127 0.0273054 0)
(1.09973 0.0259737 0)
(1.09825 0.0247042 0)
(1.09682 0.0234936 0)
(1.09544 0.0223385 0)
(1.09411 0.021236 0)
(1.09284 0.0201832 0)
(1.09161 0.0191773 0)
(1.09043 0.0182159 0)
(1.08929 0.0172964 0)
(1.0882 0.0164167 0)
(1.08715 0.0155745 0)
(1.08615 0.0147677 0)
(1.08519 0.0139945 1.21613e-27)
(1.08427 0.0132529 -1.21613e-27)
(1.08339 0.0125412 0)
(1.08254 0.0118577 0)
(1.08174 0.0112009 0)
(1.08097 0.010569 0)
(1.08024 0.00996082 0)
(1.07955 0.00937481 0)
(1.07889 0.00880965 0)
(1.07827 0.00826405 0)
(1.07768 0.00773678 0)
(1.07713 0.00722665 0)
(1.07661 0.0067325 0)
(1.07612 0.00625322 0)
(1.07567 0.00578775 0)
(1.07524 0.00533505 0)
(1.07485 0.00489411 0)
(1.07449 0.00446394 0)
(1.07416 0.0040436 0)
(1.07387 0.00363216 0)
(1.0736 0.00322871 0)
(1.07336 0.00283236 0)
(1.07315 0.00244224 0)
(1.07298 0.0020575 0)
(1.07283 0.00167729 0)
(1.07271 0.00130077 0)
(1.07262 0.000927106 0)
(1.07256 0.00055544 0)
(1.07253 0.000185 0)
(1.20193 0.210861 0)
(1.2011 0.201162 0)
(1.19821 0.189884 0)
(1.19456 0.179057 0)
(1.19063 0.169044 0)
(1.18663 0.159692 0)
(1.18262 0.150933 0)
(1.17864 0.142727 0)
(1.17471 0.135035 0)
(1.17085 0.127819 0)
(1.16707 0.121045 0)
(1.16338 0.114683 0)
(1.15981 0.108704 0)
(1.15635 0.103081 0)
(1.15301 0.0977899 0)
(1.14979 0.0928069 0)
(1.14669 0.0881101 0)
(1.1437 0.0836797 0)
(1.14081 0.0794973 0)
(1.13802 0.0755462 0)
(1.13533 0.071811 0)
(1.13272 0.0682778 0)
(1.13019 0.0649338 0)
(1.12774 0.0617669 0)
(1.12537 0.0587663 0)
(1.12307 0.0559218 0)
(1.12085 0.0532239 0)
(1.11869 0.0506638 0)
(1.11661 0.0482334 0)
(1.11459 0.045925 0)
(1.11263 0.0437315 0)
(1.11074 0.0416463 0)
(1.10891 0.039663 0)
(1.10714 0.037776 0)
(1.10543 0.0359797 0)
(1.10378 0.034269 -7.97043e-28)
(1.10218 0.0326393 7.97043e-28)
(1.10063 0.0310858 0)
(1.09914 0.0296045 0)
(1.0977 0.0281914 0)
(1.09631 0.0268428 0)
(1.09497 0.025555 0)
(1.09367 0.0243249 0)
(1.09243 0.0231492 0)
(1.09122 0.0220251 0)
(1.09007 0.0209497 0)
(1.08895 0.0199204 0)
(1.08788 0.0189347 0)
(1.08685 0.0179903 0)
(1.08586 0.0170849 0)
(1.08491 0.0162163 0)
(1.084 0.0153826 -5.78408e-28)
(1.08312 0.0145818 5.78408e-28)
(1.08229 0.0138121 0)
(1.08149 0.0130718 0)
(1.08072 0.0123592 0)
(1.07999 0.0116727 0)
(1.0793 0.0110107 0)
(1.07864 0.0103719 0)
(1.07801 0.00975483 5.15686e-28)
(1.07742 0.00915814 -5.15686e-28)
(1.07686 0.00858055 0)
(1.07633 0.00802083 0)
(1.07584 0.00747777 0)
(1.07537 0.00695023 0)
(1.07494 0.00643709 0)
(1.07453 0.00593727 0)
(1.07416 0.00544972 0)
(1.07381 0.00497342 0)
(1.0735 0.00450737 0)
(1.07321 0.0040506 0)
(1.07296 0.00360218 0)
(1.07273 0.00316117 0)
(1.07253 0.00272666 0)
(1.07236 0.00229777 0)
(1.07222 0.0018736 0)
(1.07211 0.00145329 0)
(1.07202 0.00103595 0)
(1.07197 0.000620711 0)
(1.07194 0.000206751 0)
(1.18268 0.217287 0)
(1.18304 0.207302 0)
(1.18131 0.195889 0)
(1.17874 0.184974 0)
(1.17584 0.174851 0)
(1.17278 0.165377 0)
(1.16965 0.156492 0)
(1.16648 0.148158 0)
(1.1633 0.140336 0)
(1.16014 0.132988 0)
(1.15701 0.126083 0)
(1.15393 0.119591 0)
(1.15091 0.113482 0)
(1.14798 0.107732 0)
(1.14513 0.102314 0)
(1.14236 0.0972058 0)
(1.13968 0.0923859 0)
(1.13708 0.0878345 0)
(1.13456 0.0835332 0)
(1.13211 0.0794654 0)
(1.12973 0.075616 0)
(1.12742 0.0719709 0)
(1.12517 0.0685174 0)
(1.12299 0.0652435 0)
(1.12086 0.0621383 0)
(1.1188 0.0591915 0)
(1.11679 0.0563938 0)
(1.11484 0.0537362 0)
(1.11295 0.0512106 0)
(1.11111 0.0488093 0)
(1.10932 0.0465251 0)
(1.10759 0.0443514 0)
(1.10592 0.0422818 0)
(1.10429 0.0403105 0)
(1.10271 0.038432 0)
(1.10119 0.0366412 7.78212e-28)
(1.09971 0.0349331 -7.78212e-28)
(1.09828 0.0333032 0)
(1.09689 0.0317474 0)
(1.09555 0.0302614 0)
(1.09426 0.0288416 0)
(1.09301 0.0274844 0)
(1.0918 0.0261863 0)
(1.09063 0.0249443 -7.30474e-28)
(1.08951 0.0237552 7.30474e-28)
(1.08842 0.0226164 0)
(1.08738 0.021525 0)
(1.08637 0.0204785 0)
(1.0854 0.0194745 0)
(1.08447 0.0185108 0)
(1.08358 0.017585 0)
(1.08272 0.0166953 0)
(1.08189 0.0158395 0)
(1.0811 0.0150158 0)
(1.08035 0.0142225 0)
(1.07962 0.0134578 0)
(1.07893 0.01272 0)
(1.07828 0.0120077 0)
(1.07765 0.0113193 0)
(1.07706 0.0106533 -5.11716e-28)
(1.0765 0.0100085 5.11716e-28)
(1.07596 0.00938341 0)
(1.07546 0.00877683 0)
(1.07499 0.00818752 0)
(1.07455 0.00761427 0)
(1.07413 0.00705594 0)
(1.07375 0.0065114 0)
(1.07339 0.00597958 0)
(1.07307 0.00545941 0)
(1.07277 0.00494987 0)
(1.0725 0.00444996 0)
(1.07225 0.00395869 0)
(1.07204 0.0034751 0)
(1.07185 0.00299826 0)
(1.07168 0.00252723 0)
(1.07155 0.00206111 0)
(1.07144 0.00159898 0)
(1.07136 0.00113993 0)
(1.07131 0.000683066 0)
(1.07128 0.00022753 0)
(1.16351 0.221556 0)
(1.16501 0.211431 0)
(1.16438 0.200065 0)
(1.16288 0.189216 0)
(1.16097 0.17912 0)
(1.15884 0.169649 0)
(1.15656 0.160751 0)
(1.15419 0.15239 0)
(1.15176 0.14453 0)
(1.14929 0.137135 0)
(1.1468 0.130175 0)
(1.14432 0.123621 0)
(1.14187 0.117446 0)
(1.13945 0.111624 0)
(1.13709 0.106132 0)
(1.13477 0.100947 0)
(1.13251 0.096048 0)
(1.13031 0.0914159 0)
(1.12815 0.087033 0)
(1.12605 0.0828831 2.30635e-27)
(1.12399 0.0789512 -2.30635e-27)
(1.12198 0.0752236 0)
(1.12001 0.0716879 0)
(1.11809 0.0683322 0)
(1.11621 0.0651459 0)
(1.11438 0.0621187 0)
(1.11259 0.0592415 0)
(1.11085 0.0565053 0)
(1.10915 0.0539022 0)
(1.1075 0.0514245 0)
(1.10589 0.0490651 0)
(1.10432 0.0468173 0)
(1.1028 0.0446749 0)
(1.10132 0.042632 0)
(1.09988 0.0406832 0)
(1.09848 0.0388233 -1.57816e-27)
(1.09713 0.0370474 1.57816e-27)
(1.09581 0.035351 0)
(1.09454 0.0337298 0)
(1.09331 0.0321797 0)
(1.09211 0.0306969 0)
(1.09095 0.0292779 0)
(1.08983 0.0279193 0)
(1.08875 0.0266178 9.89284e-28)
(1.0877 0.0253704 -9.89284e-28)
(1.08669 0.0241742 0)
(1.08572 0.0230266 0)
(1.08478 0.0219248 0)
(1.08387 0.0208666 0)
(1.083 0.0198495 0)
(1.08216 0.0188713 0)
(1.08136 0.01793 -1.3588e-11)
(1.08058 0.0170236 1.3588e-11)
(1.07984 0.01615 0)
(1.07913 0.0153076 0)
(1.07845 0.0144945 0)
(1.0778 0.0137091 0)
(1.07718 0.0129498 0)
(1.07659 0.0122151 0)
(1.07603 0.0115034 0)
(1.0755 0.0108135 0)
(1.075 0.0101439 0)
(1.07452 0.0094933 0)
(1.07408 0.00886045 0)
(1.07366 0.00824414 0)
(1.07327 0.00764317 0)
(1.0729 0.00705641 0)
(1.07257 0.00648273 0)
(1.07226 0.00592106 0)
(1.07197 0.00537032 0)
(1.07171 0.0048295 0)
(1.07148 0.00429759 0)
(1.07128 0.00377359 0)
(1.0711 0.00325654 0)
(1.07094 0.00274548 0)
(1.07082 0.00223947 0)
(1.07071 0.00173758 0)
(1.07064 0.00123886 0)
(1.07059 0.000742396 0)
(1.07056 0.000247303 0)
(1.14469 0.223766 0)
(1.14725 0.213645 0)
(1.14767 0.202491 0)
(1.14717 0.191846 0)
(1.14622 0.181903 0)
(1.14497 0.172551 0)
(1.14353 0.163745 0)
(1.14193 0.155453 0)
(1.14022 0.147642 0)
(1.13841 0.140278 0)
(1.13656 0.133335 0)
(1.13466 0.126786 0)
(1.13276 0.120604 0)
(1.13086 0.114767 0)
(1.12897 0.109251 0)
(1.1271 0.104035 0)
(1.12526 0.0990996 0)
(1.12344 0.0944263 0)
(1.12165 0.0899982 0)
(1.11988 0.0857997 -1.0528e-27)
(1.11814 0.0818165 1.0528e-27)
(1.11643 0.0780354 0)
(1.11475 0.0744442 0)
(1.11309 0.0710317 0)
(1.11146 0.0677874 0)
(1.10986 0.0647014 0)
(1.1083 0.0617647 0)
(1.10676 0.0589688 0)
(1.10526 0.0563058 0)
(1.10379 0.0537681 0)
(1.10235 0.0513487 0)
(1.10095 0.0490413 0)
(1.09958 0.0468395 0)
(1.09825 0.0447377 0)
(1.09695 0.0427304 0)
(1.09569 0.0408125 0)
(1.09446 0.0389793 0)
(1.09326 0.0372262 0)
(1.0921 0.0355489 0)
(1.09097 0.0339434 0)
(1.08987 0.032406 0)
(1.08881 0.0309331 0)
(1.08778 0.0295212 0)
(1.08678 0.0281672 0)
(1.08581 0.026868 0)
(1.08488 0.0256208 0)
(1.08398 0.0244228 0)
(1.0831 0.0232715 0)
(1.08226 0.0221643 0)
(1.08145 0.0210989 0)
(1.08067 0.0200732 0)
(1.07992 0.0190849 -1.33853e-11)
(1.0792 0.0181321 1.33853e-11)
(1.07851 0.0172129 0)
(1.07784 0.0163253 0)
(1.07721 0.0154677 0)
(1.0766 0.0146384 0)
(1.07602 0.0138356 0)
(1.07546 0.013058 0)
(1.07494 0.0123039 0)
(1.07444 0.0115719 0)
(1.07397 0.0108608 0)
(1.07352 0.0101691 0)
(1.0731 0.0094955 0)
(1.07271 0.00883884 0)
(1.07234 0.00819787 0)
(1.07199 0.00757143 0)
(1.07168 0.00695838 0)
(1.07138 0.00635762 0)
(1.07112 0.00576806 0)
(1.07087 0.00518865 0)
(1.07065 0.00461836 0)
(1.07046 0.00405617 0)
(1.07029 0.00350111 0)
(1.07015 0.00295217 0)
(1.07003 0.00240841 0)
(1.06993 0.00186887 0)
(1.06986 0.00133259 0)
(1.06981 0.000798607 0)
(1.06978 0.000266036 0)
(1.12647 0.22405 0)
(1.12999 0.214072 0)
(1.13138 0.203273 0)
(1.13182 0.192956 0)
(1.13176 0.183279 0)
(1.13135 0.17415 0)
(1.13069 0.165532 0)
(1.12982 0.157395 0)
(1.12879 0.149712 0)
(1.12764 0.142453 0)
(1.12638 0.135594 0)
(1.12505 0.12911 0)
(1.12368 0.122979 0)
(1.12227 0.117177 0)
(1.12085 0.111685 0)
(1.11941 0.106483 0)
(1.11798 0.101552 0)
(1.11654 0.0968751 0)
(1.1151 0.0924366 0)
(1.11367 0.0882218 0)
(1.11224 0.0842172 0)
(1.11082 0.0804104 0)
(1.10941 0.0767898 0)
(1.10802 0.0733446 0)
(1.10664 0.0700648 0)
(1.10527 0.066941 0)
(1.10392 0.0639645 0)
(1.10259 0.0611272 0)
(1.10129 0.0584213 0)
(1.1 0.0558396 0)
(1.09874 0.0533755 0)
(1.0975 0.0510225 0)
(1.09629 0.0487746 0)
(1.0951 0.0466263 0)
(1.09394 0.0445723 0)
(1.09281 0.0426075 0)
(1.0917 0.0407273 0)
(1.09062 0.0389273 0)
(1.08957 0.0372032 0)
(1.08855 0.0355511 0)
(1.08756 0.0339673 0)
(1.08659 0.0324482 0)
(1.08565 0.0309904 0)
(1.08473 0.0295909 0)
(1.08385 0.0282465 0)
(1.08299 0.0269545 0)
(1.08216 0.0257121 0)
(1.08136 0.0245168 0)
(1.08058 0.023366 0)
(1.07984 0.0222575 0)
(1.07911 0.021189 0)
(1.07842 0.0201585 -1.31649e-11)
(1.07775 0.0191638 1.31649e-11)
(1.07711 0.0182031 0)
(1.07649 0.0172745 0)
(1.0759 0.0163762 0)
(1.07533 0.0155066 0)
(1.07479 0.014664 0)
(1.07427 0.0138468 0)
(1.07378 0.0130535 1.03143e-27)
(1.07332 0.0122828 -1.03143e-27)
(1.07288 0.0115331 0)
(1.07246 0.0108032 0)
(1.07206 0.0100918 0)
(1.0717 0.00939755 0)
(1.07135 0.00871926 0)
(1.07103 0.00805576 0)
(1.07073 0.00740588 0)
(1.07045 0.0067685 0)
(1.0702 0.00614253 0)
(1.06998 0.0055269 0)
(1.06977 0.00492055 0)
(1.06959 0.00432246 0)
(1.06943 0.00373162 0)
(1.06929 0.00314703 0)
(1.06918 0.0025677 0)
(1.06909 0.00199268 0)
(1.06902 0.00142098 0)
(1.06897 0.000851621 0)
(1.06895 0.000283705 0)
(1.10906 0.222576 0)
(1.11343 0.212869 0)
(1.11569 0.202547 0)
(1.11699 0.192661 0)
(1.11774 0.183349 0)
(1.11811 0.174533 0)
(1.11817 0.166186 0)
(1.11799 0.158282 0)
(1.1176 0.150797 0)
(1.11705 0.143709 0)
(1.11636 0.136994 0)
(1.11557 0.130631 0)
(1.1147 0.124601 0)
(1.11377 0.118884 0)
(1.11279 0.11346 0)
(1.11177 0.108312 0)
(1.11072 0.103423 0)
(1.10965 0.0987778 0)
(1.10856 0.0943617 0)
(1.10745 0.0901611 0)
(1.10632 0.0861636 0)
(1.10519 0.0823575 0)
(1.10405 0.0787321 0)
(1.10291 0.0752772 0)
(1.10177 0.0719834 0)
(1.10063 0.068842 0)
(1.0995 0.0658446 0)
(1.09837 0.0629836 0)
(1.09726 0.0602514 0)
(1.09616 0.0576414 0)
(1.09507 0.055147 0)
(1.09399 0.0527622 0)
(1.09293 0.0504812 0)
(1.09189 0.0482986 0)
(1.09087 0.0462093 0)
(1.08987 0.0442084 0)
(1.08889 0.0422915 0)
(1.08793 0.0404541 0)
(1.08699 0.0386923 0)
(1.08607 0.0370021 0)
(1.08518 0.03538 0)
(1.0843 0.0338224 0)
(1.08345 0.0323261 0)
(1.08263 0.030888 0)
(1.08182 0.029505 0)
(1.08104 0.0281744 0)
(1.08029 0.0268936 0)
(1.07955 0.0256598 0)
(1.07885 0.0244709 0)
(1.07816 0.0233243 0)
(1.0775 0.022218 0)
(1.07686 0.0211498 -1.29283e-11)
(1.07624 0.0201177 1.29283e-11)
(1.07565 0.0191197 0)
(1.07508 0.0181541 0)
(1.07453 0.0172191 0)
(1.07401 0.0163129 0)
(1.07351 0.015434 0)
(1.07303 0.0145807 0)
(1.07257 0.0137516 -4.888e-28)
(1.07214 0.0129453 4.888e-28)
(1.07173 0.0121602 0)
(1.07134 0.0113951 0)
(1.07097 0.0106487 0)
(1.07063 0.00991967 0)
(1.07031 0.00920678 0)
(1.07001 0.00850886 0)
(1.06973 0.00782472 0)
(1.06947 0.00715325 0)
(1.06924 0.00649332 0)
(1.06902 0.00584387 0)
(1.06883 0.00520382 0)
(1.06866 0.00457215 0)
(1.06851 0.00394781 0)
(1.06839 0.00332982 0)
(1.06828 0.00271716 4.42997e-28)
(1.06819 0.00210886 -4.42997e-28)
(1.06813 0.00150393 0)
(1.06809 0.000901379 0)
(1.06807 0.000300289 0)
(1.09264 0.219557 0)
(1.09773 0.210222 0)
(1.10077 0.200469 0)
(1.10283 0.1911 0)
(1.10431 0.182231 0)
(1.10537 0.173805 0)
(1.10609 0.165798 0)
(1.10653 0.158192 0)
(1.10674 0.150968 0)
(1.10674 0.144106 0)
(1.10659 0.137588 0)
(1.1063 0.131396 0)
(1.1059 0.125513 0)
(1.10541 0.119922 0)
(1.10485 0.114606 0)
(1.10423 0.109549 0)
(1.10355 0.104737 0)
(1.10283 0.100156 0)
(1.10206 0.0957925 0)
(1.10126 0.0916343 8.85154e-28)
(1.10043 0.0876702 -8.85154e-28)
(1.09958 0.0838895 0)
(1.0987 0.0802823 0)
(1.09781 0.0768394 0)
(1.0969 0.0735521 0)
(1.09598 0.0704121 0)
(1.09506 0.0674117 0)
(1.09413 0.0645437 0)
(1.0932 0.0618011 0)
(1.09228 0.0591776 0)
(1.09136 0.0566671 0)
(1.09044 0.0542637 0)
(1.08954 0.0519619 0)
(1.08864 0.0497567 0)
(1.08775 0.0476432 0)
(1.08688 0.0456167 6.68684e-28)
(1.08602 0.0436729 -6.68684e-28)
(1.08518 0.0418077 0)
(1.08435 0.040017 0)
(1.08354 0.0382971 0)
(1.08274 0.0366447 0)
(1.08197 0.0350561 0)
(1.08121 0.0335284 0)
(1.08047 0.0320584 -6.52668e-28)
(1.07975 0.0306433 6.52668e-28)
(1.07904 0.0292803 0)
(1.07836 0.0279668 0)
(1.0777 0.0267003 0)
(1.07705 0.0254784 0)
(1.07643 0.0242989 0)
(1.07582 0.0231596 0)
(1.07524 0.0220583 0)
(1.07468 0.0209932 0)
(1.07414 0.0199622 0)
(1.07361 0.0189637 0)
(1.07311 0.0179957 0)
(1.07263 0.0170568 0)
(1.07217 0.0161451 0)
(1.07173 0.0152593 0)
(1.07131 0.0143977 0)
(1.07091 0.0135589 0)
(1.07053 0.0127415 0)
(1.07017 0.0119443 0)
(1.06983 0.0111658 0)
(1.06951 0.0104048 0)
(1.06922 0.00966002 0)
(1.06894 0.00893034 0)
(1.06868 0.00821455 0)
(1.06844 0.00751151 0)
(1.06822 0.00682012 0)
(1.06802 0.00613928 0)
(1.06785 0.00546792 0)
(1.06769 0.00480501 0)
(1.06755 0.0041495 0)
(1.06743 0.00350038 0)
(1.06733 0.00285664 -4.38443e-28)
(1.06725 0.0022173 4.38443e-28)
(1.06719 0.00158136 0)
(1.06715 0.000947833 0)
(1.06713 0.000315772 0)
(1.07733 0.215203 0)
(1.08302 0.206328 0)
(1.08672 0.197213 0)
(1.08944 0.188423 0)
(1.09156 0.18006 0)
(1.09323 0.172081 0)
(1.09454 0.164471 0)
(1.09554 0.157216 0)
(1.09628 0.150302 0)
(1.0968 0.143714 0)
(1.09713 0.137438 0)
(1.0973 0.131459 0)
(1.09734 0.125762 0)
(1.09726 0.120334 0)
(1.09709 0.115161 0)
(1.09684 0.110229 0)
(1.09651 0.105524 0)
(1.09611 0.101036 0)
(1.09566 0.0967523 0)
(1.09516 0.0926621 -1.7277e-27)
(1.09461 0.0887554 1.7277e-27)
(1.09401 0.0850227 0)
(1.09339 0.0814552 0)
(1.09273 0.0780443 0)
(1.09205 0.0747822 0)
(1.09134 0.0716613 0)
(1.09062 0.0686747 0)
(1.08988 0.0658155 0)
(1.08914 0.0630775 0)
(1.08839 0.0604546 0)
(1.08763 0.0579411 0)
(1.08687 0.0555316 0)
(1.08611 0.0532211 0)
(1.08536 0.0510045 0)
(1.08461 0.0488774 0)
(1.08386 0.0468354 -1.34231e-27)
(1.08312 0.0448743 1.34231e-27)
(1.0824 0.0429901 0)
(1.08168 0.0411791 0)
(1.08097 0.0394377 0)
(1.08027 0.0377626 0)
(1.07959 0.0361505 0)
(1.07892 0.0345983 0)
(1.07826 0.0331031 0)
(1.07762 0.0316622 0)
(1.077 0.0302727 0)
(1.07638 0.0289323 0)
(1.07579 0.0276385 0)
(1.07521 0.0263889 0)
(1.07465 0.0251814 0)
(1.07411 0.0240138 0)
(1.07358 0.022884 0)
(1.07307 0.0217902 0)
(1.07258 0.0207305 0)
(1.0721 0.019703 0)
(1.07165 0.018706 0)
(1.07121 0.017738 0)
(1.07079 0.0167972 0)
(1.07038 0.0158822 0)
(1.07 0.0149914 0)
(1.06963 0.0141234 0)
(1.06929 0.0132769 0)
(1.06896 0.0124504 0)
(1.06864 0.0116427 0)
(1.06835 0.0108526 0)
(1.06808 0.0100787 0)
(1.06782 0.00931997 0)
(1.06758 0.00857514 9.2992e-28)
(1.06736 0.0078431 -9.2992e-28)
(1.06716 0.00712273 0)
(1.06698 0.00641295 0)
(1.06681 0.00571269 0)
(1.06667 0.0050209 0)
(1.06654 0.00433654 0)
(1.06643 0.0036586 0)
(1.06634 0.00298607 0)
(1.06626 0.00231794 0)
(1.06621 0.00165324 0)
(1.06617 0.000990954 0)
(1.06615 0.000330146 0)
(1.06322 0.209725 0)
(1.06938 0.201384 0)
(1.07363 0.192954 0)
(1.0769 0.184786 0)
(1.07957 0.176971 0)
(1.08177 0.169484 0)
(1.08359 0.162312 0)
(1.08508 0.155449 0)
(1.0863 0.148885 0)
(1.08727 0.142609 0)
(1.08804 0.136611 0)
(1.08863 0.130879 0)
(1.08907 0.125402 0)
(1.08937 0.120169 0)
(1.08956 0.115168 0)
(1.08964 0.110388 0)
(1.08964 0.105819 0)
(1.08955 0.101449 0)
(1.08939 0.0972684 0)
(1.08916 0.0932689 0)
(1.08887 0.0894411 0)
(1.08853 0.0857768 0)
(1.08814 0.082268 0)
(1.08771 0.0789074 0)
(1.08724 0.0756878 0)
(1.08674 0.0726024 0)
(1.08621 0.0696449 0)
(1.08566 0.0668093 0)
(1.08509 0.0640896 0)
(1.08451 0.0614804 0)
(1.08391 0.0589764 0)
(1.0833 0.0565727 0)
(1.08269 0.0542644 0)
(1.08207 0.0520471 0)
(1.08145 0.0499165 0)
(1.08083 0.0478685 6.20694e-28)
(1.08021 0.045899 -6.20694e-28)
(1.07959 0.0440046 0)
(1.07898 0.0421814 0)
(1.07837 0.0404263 0)
(1.07777 0.038736 0)
(1.07718 0.0371073 0)
(1.0766 0.0355374 0)
(1.07602 0.0340235 0)
(1.07546 0.0325628 0)
(1.07491 0.0311528 0)
(1.07437 0.029791 0)
(1.07385 0.0284752 0)
(1.07333 0.027203 0)
(1.07283 0.0259724 0)
(1.07235 0.0247812 0)
(1.07188 0.0236274 0)
(1.07142 0.0225092 0)
(1.07098 0.0214248 0)
(1.07055 0.0203723 0)
(1.07014 0.0193502 0)
(1.06974 0.0183567 0)
(1.06936 0.0173903 0)
(1.069 0.0164495 0)
(1.06865 0.0155328 0)
(1.06832 0.0146388 0)
(1.068 0.0137661 0)
(1.0677 0.0129135 0)
(1.06742 0.0120795 0)
(1.06715 0.0112631 0)
(1.0669 0.0104629 0)
(1.06666 0.00967769 0)
(1.06644 0.00890643 0)
(1.06624 0.00814793 0)
(1.06606 0.00740108 0)
(1.06589 0.00666482 0)
(1.06574 0.00593806 0)
(1.06561 0.00521976 0)
(1.06549 0.00450889 0)
(1.06539 0.00380444 0)
(1.0653 0.00310539 0)
(1.06524 0.00241075 0)
(1.06519 0.00171953 0)
(1.06515 0.00103073 0)
(1.06513 0.000343404 0)
(1.05036 0.20334 0)
(1.05686 0.195589 0)
(1.06155 0.187865 0)
(1.06528 0.180343 0)
(1.06839 0.173106 0)
(1.07104 0.166137 0)
(1.07329 0.159434 0)
(1.07522 0.152992 0)
(1.07685 0.146806 0)
(1.07822 0.140871 0)
(1.07937 0.135178 0)
(1.08034 0.129721 -1.58548e-27)
(1.08113 0.12449 1.58548e-27)
(1.08177 0.119477 0)
(1.08229 0.114674 0)
(1.08269 0.11007 0)
(1.08298 0.105657 0)
(1.08317 0.101427 0)
(1.08328 0.0973709 0)
(1.08331 0.0934817 1.50473e-27)
(1.08327 0.0897517 -1.50473e-27)
(1.08316 0.0861737 0)
(1.08299 0.0827408 0)
(1.08277 0.0794467 0)
(1.08251 0.076285 0)
(1.0822 0.0732499 0)
(1.08185 0.0703356 0)
(1.08148 0.0675367 0)
(1.08108 0.0648481 0)
(1.08065 0.0622646 0)
(1.08021 0.0597817 0)
(1.07974 0.0573946 0)
(1.07927 0.0550991 0)
(1.07878 0.0528909 0)
(1.07829 0.0507662 0)
(1.07778 0.0487211 0)
(1.07728 0.046752 0)
(1.07677 0.0448554 0)
(1.07626 0.0430279 0)
(1.07576 0.0412664 0)
(1.07525 0.0395679 0)
(1.07475 0.0379295 0)
(1.07425 0.0363483 0)
(1.07376 0.0348217 0)
(1.07328 0.0333472 0)
(1.0728 0.0319222 0)
(1.07233 0.0305445 0)
(1.07187 0.0292118 0)
(1.07143 0.027922 0)
(1.07099 0.0266729 0)
(1.07056 0.0254627 0)
(1.07014 0.0242892 0)
(1.06974 0.0231509 0)
(1.06934 0.0220458 0)
(1.06896 0.0209722 0)
(1.0686 0.0199286 0)
(1.06824 0.0189132 0)
(1.0679 0.0179247 0)
(1.06757 0.0169615 0)
(1.06726 0.0160221 9.5106e-28)
(1.06696 0.0151053 -9.5106e-28)
(1.06668 0.0142095 0)
(1.0664 0.0133337 0)
(1.06615 0.0124763 0)
(1.06591 0.0116363 0)
(1.06568 0.0108125 0)
(1.06547 0.0100036 0)
(1.06527 0.00920845 -9.02574e-28)
(1.06509 0.00842604 9.02574e-28)
(1.06492 0.00765521 0)
(1.06477 0.00689489 0)
(1.06463 0.00614404 0)
(1.06451 0.0054016 0)
(1.0644 0.00466655 0)
(1.06431 0.00393789 0)
(1.06423 0.00321461 0)
(1.06417 0.00249572 0)
(1.06412 0.00178023 0)
(1.06409 0.00106715 0)
(1.06408 0.000355547 0)
(1.03876 0.196256 0)
(1.04548 0.189131 0)
(1.0505 0.182115 0)
(1.05458 0.175248 0)
(1.05806 0.168599 0)
(1.06107 0.162165 0)
(1.06369 0.155946 0)
(1.06597 0.149943 0)
(1.06795 0.144156 0)
(1.06967 0.13858 0)
(1.07117 0.133213 0)
(1.07245 0.12805 6.86548e-28)
(1.07356 0.123086 -6.86548e-28)
(1.07451 0.118313 0)
(1.07532 0.113725 0)
(1.076 0.109316 0)
(1.07656 0.105079 0)
(1.07701 0.101006 0)
(1.07737 0.097092 0)
(1.07763 0.0933299 0)
(1.07781 0.0897137 0)
(1.07792 0.0862374 0)
(1.07796 0.0828953 0)
(1.07794 0.0796819 0)
(1.07786 0.0765918 0)
(1.07774 0.07362 0)
(1.07757 0.0707614 0)
(1.07736 0.0680113 6.25543e-28)
(1.07711 0.0653651 -6.25543e-28)
(1.07684 0.0628184 0)
(1.07654 0.0603669 0)
(1.07622 0.0580065 0)
(1.07587 0.0557333 0)
(1.07551 0.0535434 0)
(1.07514 0.0514334 0)
(1.07475 0.0493996 0)
(1.07436 0.0474387 0)
(1.07395 0.0455475 0)
(1.07355 0.043723 0)
(1.07314 0.0419622 0)
(1.07272 0.0402622 0)
(1.07231 0.0386204 0)
(1.0719 0.037034 0)
(1.07148 0.0355006 0)
(1.07108 0.0340178 0)
(1.07067 0.0325833 0)
(1.07027 0.0311948 0)
(1.06988 0.0298502 0)
(1.06949 0.0285475 0)
(1.06911 0.0272846 0)
(1.06874 0.0260596 0)
(1.06838 0.0248708 -1.15606e-11)
(1.06803 0.0237163 1.15606e-11)
(1.06768 0.0225944 0)
(1.06735 0.0215036 0)
(1.06702 0.0204421 0)
(1.06671 0.0194084 0)
(1.06641 0.0184012 0)
(1.06612 0.0174188 0)
(1.06584 0.01646 -4.47852e-28)
(1.06557 0.0155233 4.47852e-28)
(1.06532 0.0146075 0)
(1.06508 0.0137113 0)
(1.06485 0.0128334 0)
(1.06463 0.0119726 0)
(1.06443 0.0111278 0)
(1.06424 0.0102978 0)
(1.06406 0.00948141 0)
(1.06389 0.00867759 0)
(1.06374 0.00788524 0)
(1.06361 0.0071033 0)
(1.06348 0.00633073 0)
(1.06337 0.0055665 0)
(1.06327 0.0048096 0)
(1.06319 0.00405902 0)
(1.06312 0.00331378 0)
(1.06307 0.00257289 0)
(1.06302 0.00183537 0)
(1.063 0.00110025 0)
(1.06298 0.00036658 0)
(1.0284 0.188668 0)
(1.03523 0.182185 0)
(1.04048 0.175864 0)
(1.04483 0.169644 0)
(1.04859 0.163582 0)
(1.05188 0.157684 0)
(1.0548 0.151956 0)
(1.05737 0.1464 0)
(1.05965 0.141021 0)
(1.06166 0.135817 0)
(1.06344 0.130788 0)
(1.06501 0.125933 0)
(1.06639 0.121248 0)
(1.06761 0.116729 0)
(1.06867 0.112372 0)
(1.0696 0.108172 0)
(1.0704 0.104124 0)
(1.07109 0.100224 0)
(1.07167 0.0964654 0)
(1.07215 0.092844 0)
(1.07254 0.0893549 0)
(1.07284 0.0859933 0)
(1.07307 0.0827545 0)
(1.07323 0.079634 0)
(1.07333 0.0766274 0)
(1.07338 0.0737302 0)
(1.07337 0.0709383 0)
(1.07331 0.0682476 -1.23019e-27)
(1.07322 0.0656541 1.23019e-27)
(1.07309 0.0631538 0)
(1.07292 0.0607432 0)
(1.07273 0.0584185 0)
(1.07251 0.0561763 0)
(1.07227 0.054013 0)
(1.07202 0.0519256 0)
(1.07174 0.0499108 -1.14041e-27)
(1.07145 0.0479655 1.14041e-27)
(1.07115 0.046087 0)
(1.07084 0.0442722 0)
(1.07052 0.0425185 0)
(1.07019 0.0408233 0)
(1.06987 0.039184 0)
(1.06953 0.0375982 0)
(1.0692 0.0360636 0)
(1.06886 0.0345779 0)
(1.06853 0.0331389 0)
(1.0682 0.0317445 0)
(1.06787 0.0303927 0)
(1.06754 0.0290816 0)
(1.06722 0.0278093 0)
(1.06691 0.0265739 0)
(1.0666 0.0253737 -2.25218e-11)
(1.06629 0.0242069 2.25218e-11)
(1.066 0.0230721 0)
(1.06571 0.0219675 0)
(1.06543 0.0208917 0)
(1.06515 0.0198432 0)
(1.06489 0.0188205 0)
(1.06464 0.0178222 0)
(1.06439 0.016847 0)
(1.06416 0.0158936 0)
(1.06393 0.0149606 0)
(1.06372 0.0140469 0)