/*--------------------------------*- C++ -*----------------------------------*\
  =========                 |
  \\      /  F ield         | OpenFOAM: The Open Source CFD Toolbox
   \\    /   O peration     | Website:  https://openfoam.org
    \\  /    A nd           | Version:  7
     \\/     M anipulation  |
\*---------------------------------------------------------------------------*/
FoamFile
{
    version     2.0;
    format      ascii;
    class       volScalarField;
    location    "9.999";
    object      p;
}
// * * * * * * * * * * * * * * * * * * * * * * * * * * * * * * * * * * * * * //

dimensions      [0 2 -2 0 0 0 0];

internalField   nonuniform List<scalar> 
3700
(
-0.408478
-0.4105
-0.408761
-0.402757
-0.392212
-0.376989
-0.357061
-0.332666
-0.304259
-0.272546
-0.238409
-0.202886
-0.167103
-0.132169
-0.099103
-0.068755
-0.0417251
-0.018337
0.00127277
0.0171855
0.0296512
0.0390266
0.0457236
0.0501689
0.0527724
0.0539083
0.0539035
0.0530367
0.0515398
0.0496006
0.047368
0.0449578
0.0424588
0.0399378
0.0374438
0.0350123
0.0326677
0.0304264
0.0282983
0.0262886
0.0243989
0.0226282
0.0209737
0.0194313
0.0179959
0.0166621
0.0154241
0.0142762
0.0132124
0.012227
0.0113146
0.0104697
0.00968726
0.00896253
0.00829105
0.00766862
0.00709138
0.00655551
0.00605766
0.00559412
0.00516195
0.0047573
0.00437792
0.00401938
0.00368095
0.0033567
0.00304907
0.0027483
0.00246381
0.00217627
0.00191087
0.00162529
0.001381
0.00108124
0.000870915
0.000523016
0.000359021
-0.409515
-0.411683
-0.4101
-0.404163
-0.393885
-0.378817
-0.359016
-0.334727
-0.306392
-0.274712
-0.240569
-0.204997
-0.169122
-0.134074
-0.100866
-0.0703925
-0.0431854
-0.0196532
9.27609e-05
0.0161319
0.028712
0.0381898
0.0449782
0.0495051
0.0521817
0.0533831
0.0534375
0.0526232
0.0511731
0.0492755
0.0470798
0.0447021
0.0422319
0.0397361
0.0372644
0.0348524
0.032525
0.0302987
0.0281838
0.0261857
0.0243063
0.0225446
0.0208981
0.0193627
0.0179336
0.0166054
0.0153724
0.0142289
0.0131691
0.0121873
0.011278
0.010436
0.00965618
0.00893377
0.00826439
0.00764383
0.00706829
0.00653398
0.00603756
0.00557535
0.00514445
0.004741
0.00436278
0.00400537
0.00366803
0.00334484
0.00303824
0.00273849
0.00245493
0.00216841
0.00190378
0.00161925
0.00137542
0.00107688
0.000866271
0.000520279
0.000354645
-0.411353
-0.413803
-0.412546
-0.407078
-0.396973
-0.382172
-0.362622
-0.338547
-0.310366
-0.278767
-0.244631
-0.208995
-0.172973
-0.137748
-0.104296
-0.073495
-0.0460412
-0.0222402
-0.00223882
0.0140372
0.0268345
0.0365094
0.0434763
0.0481643
0.0509866
0.0523196
0.0524931
0.0517855
0.0504305
0.0486175
0.0464967
0.0441854
0.0417737
0.0393294
0.0369029
0.0345306
0.032238
0.0300422
0.0279541
0.0259795
0.0241208
0.0223774
0.0207471
0.019226
0.0178095
0.0164925
0.0152694
0.0141348
0.0130829
0.0121083
0.0112055
0.0103692
0.00959455
0.0088768
0.0082116
0.0075948
0.00702266
0.00649145
0.00599787
0.00553833
0.00510993
0.00470887
0.00433294
0.00397777
0.00364256
0.00332149
0.00301688
0.00271916
0.00243743
0.00215289
0.0018898
0.00160732
0.0013644
0.00106829
0.000857139
0.000514894
0.000346122
-0.413578
-0.416416
-0.415601
-0.410572
-0.400924
-0.386537
-0.36736
-0.343611
-0.315687
-0.284243
-0.250167
-0.214522
-0.178351
-0.142876
-0.109032
-0.0779735
-0.0501637
-0.0260115
-0.00567129
0.0109271
0.0240259
0.0339802
0.0412046
0.0461292
0.0491681
0.050699
0.0510527
0.0505078
0.0492982
0.0476149
0.0456092
0.0433998
0.0410779
0.0387126
0.0363555
0.034044
0.0318046
0.0296555
0.0276083
0.0256696
0.0238424
0.0221269
0.020521
0.0190215
0.0176242
0.0163241
0.0151161
0.0139949
0.012955
0.0119911
0.0110979
0.0102702
0.00950338
0.00879262
0.0081337
0.00752254
0.0069555
0.00642892
0.0059396
0.00548401
0.00505932
0.0046618
0.00428925
0.00393734
0.00360527
0.00328728
0.00298559
0.00269083
0.00241176
0.00213012
0.00186927
0.00158981
0.00134824
0.00105567
0.000843815
0.00050703
0.000333881
-0.415705
-0.41902
-0.418737
-0.414262
-0.405165
-0.391312
-0.372626
-0.349325
-0.321822
-0.290641
-0.256722
-0.221044
-0.184677
-0.149044
-0.115011
-0.0835763
-0.0553898
-0.0308535
-0.0101278
0.0068483
0.0203106
0.0306108
0.0381614
0.0433916
0.0467148
0.0485086
0.0491037
0.0487786
0.0477663
0.046259
0.0444101
0.0423394
0.0401399
0.0378822
0.0356195
0.0333907
0.0312238
0.0291381
0.0271463
0.0252563
0.0234718
0.0217937
0.0202208
0.0187505
0.0173789
0.0161016
0.0149138
0.0138105
0.0127866
0.011837
0.0109566
0.0101405
0.00938403
0.00868258
0.00803202
0.00742839
0.00686813
0.00634771
0.00586403
0.00541365
0.00499385
0.00460094
0.00423278
0.00388511
0.00355709
0.00324308
0.00294515
0.00265419
0.00237855
0.00210065
0.0018427
0.00156712
0.00132733
0.00103934
0.000826711
0.000496924
0.000318514
-0.421154
-0.421452
-0.417615
-0.409166
-0.395966
-0.377903
-0.355206
-0.328064
-0.29726
-0.263596
-0.228094
-0.191826
-0.156041
-0.121805
-0.0900726
-0.0615401
-0.0366266
-0.0155053
0.00187419
0.0157393
0.026435
0.0343687
0.0399653
0.043635
0.045753
0.0466483
0.046599
0.0458352
0.0445504
0.0428997
0.0410047
0.0389603
0.0368391
0.0346961
0.0325721
0.0304969
0.0284914
0.0265698
0.0247412
0.0230105
0.0213798
0.0198485
0.0184148
0.0170755
0.0158268
0.0146643
0.0135835
0.0125796
0.0116478
0.0107834
0.00998172
0.0092381
0.00854824
0.00790811
0.00731386
0.00676206
0.0062493
0.00577261
0.00532868
0.00491487
0.00452761
0.00416479
0.00382223
0.0034991
0.00318987
0.00289646
0.00261005
0.00233853
0.00206511
0.00181065
0.00153973
0.00130215
0.00101964
0.000806321
0.00048486
0.000300719
-0.422412
-0.423329
-0.420175
-0.412437
-0.399956
-0.382606
-0.360542
-0.334115
-0.303862
-0.270607
-0.235356
-0.199248
-0.163479
-0.129152
-0.097225
-0.0684171
-0.0431718
-0.0216769
-0.00389418
0.0103922
0.0215167
0.0298776
0.0358917
0.0399623
0.0424596
0.043709
0.0439873
0.0435207
0.0425024
0.0410893
0.0394054
0.0375474
0.0355903
0.0335914
0.0315936
0.0296288
0.0277199
0.0258828
0.0241281
0.0224621
0.0208882
0.0194068
0.0180171
0.0167166
0.0155021
0.01437
0.013316
0.012336
0.0114255
0.0105802
0.00979558
0.00906733
0.00839128
0.00776357
0.00718051
0.0066388
0.00613518
0.00566681
0.00523051
0.00482376
0.0044431
0.0040865
0.00374989
0.0034324
0.00312866
0.00284044
0.00255926
0.00229246
0.00202416
0.00177374
0.00150815
0.00127322
0.000996976
0.00078318
0.000471145
0.000281239
-0.422543
-0.424073
-0.421633
-0.414688
-0.403013
-0.386487
-0.365216
-0.339497
-0.30992
-0.277241
-0.24244
-0.206657
-0.171069
-0.136795
-0.104801
-0.0758207
-0.0503184
-0.0284968
-0.0103323
0.00437592
0.0159476
0.0247669
0.0312383
0.0357546
0.0386778
0.0403281
0.0409787
0.0408528
0.0401406
0.039001
0.0375601
0.0359171
0.0341494
0.0323169
0.0304651
0.0286281
0.0268309
0.0250916
0.0234224
0.0218315
0.0203233
0.0188998
0.017561
0.0163053
0.0151305
0.0140334
0.0130105
0.0120581
0.0111723
0.0103489
0.009584
0.00887346
0.00821335
0.00759999
0.00702986
0.00649982
0.00600676
0.00554797
0.00512045
0.00472178
0.00434865
0.0039991
0.00366917
0.00335801
0.00306041
0.00277797
0.0025026
0.00224106
0.00197846
0.00173256
0.0014729
0.00124104
0.000971738
0.000757831
0.000456096
0.0002608
-0.42149
-0.423601
-0.421865
-0.415699
-0.404856
-0.389209
-0.36882
-0.343963
-0.315191
-0.283239
-0.249061
-0.213778
-0.178551
-0.144498
-0.112585
-0.0835566
-0.0578919
-0.0358089
-0.0173004
-0.0021846
0.00983871
0.0191351
0.0260921
0.0310882
0.034474
0.0365623
0.0376214
0.0378727
0.0375008
0.0366651
0.0354947
0.0340913
0.0325351
0.0308886
0.0292
0.0275061
0.0258343
0.0242047
0.0226317
0.0211249
0.0196907
0.0183322
0.0170506
0.0158454
0.0147152
0.0136576
0.0126697
0.0117484
0.0108902
0.0100916
0.00934886
0.00865823
0.00801606
0.00741886
0.00686331
0.00634644
0.00586529
0.00541733
0.00499967
0.00461006
0.00424532
0.00390358
0.00358105
0.00327684
0.00298597
0.00270985
0.00244081
0.00218502
0.0019286
0.00168768
0.00143445
0.00120612
0.000944312
0.000730792
0.000440012
0.000240067
-0.419223
-0.421871
-0.420783
-0.415389
-0.405389
-0.390635
-0.371175
-0.347276
-0.319435
-0.288366
-0.254987
-0.220389
-0.185712
-0.152057
-0.120385
-0.0914437
-0.0657231
-0.0434557
-0.0246529
-0.00915572
0.00331184
0.0130919
0.0205509
0.0260495
0.0299241
0.0324774
0.0339719
0.034628
0.0346234
0.0341166
0.0332389
0.0320954
0.0307688
0.0293247
0.027814
0.0262762
0.0247413
0.0232318
0.021764
0.0203497
0.0189965
0.0177094
0.0164907
0.015341
0.0142599
0.0132457
0.0122964
0.0114093
0.0105817
0.00981033
0.009092
0.00842333
0.00780092
0.00722157
0.00668214
0.00617984
0.00571189
0.0052759
0.00486915
0.00448952
0.00413401
0.00380081
0.00348632
0.00318966
0.00290606
0.00263676
0.00237452
0.00212492
0.00187513
0.00163961
0.00139325
0.00116891
0.000915052
0.000702534
0.00042317
0.000219605
-0.415786
-0.418885
-0.418371
-0.413693
-0.404521
-0.390685
-0.372201
-0.349305
-0.322485
-0.292443
-0.260041
-0.226318
-0.192382
-0.159306
-0.128037
-0.0993206
-0.0736552
-0.0512869
-0.0322475
-0.0164043
-0.00351028
0.006749
0.014715
0.0207274
0.0251062
0.0281416
0.0300895
0.0311673
0.0315503
0.0313913
0.0308237
0.0299556
0.0288729
0.0276441
0.0263232
0.0249522
0.0235638
0.022183
0.0208282
0.0195131
0.0182472
0.0170369
0.015886
0.0147963
0.0137682
0.012801
0.0118933
0.0110434
0.0102488
0.00950703
0.00881519
0.00817032
0.00756938
0.0070094
0.0064875
0.00600107
0.0055475
0.00512456
0.0047297
0.00436094
0.00401543
0.00369148
0.00338566
0.0030971
0.00282128
0.00255925
0.00230426
0.00206125
0.0018185
0.00158879
0.00134968
0.0011298
0.000884276
0.000673463
0.00040581
0.000199862
-0.414678
-0.414642
-0.410611
-0.402227
-0.389301
-0.371822
-0.350002
-0.324292
-0.295365
-0.26409
-0.231434
-0.198432
-0.166115
-0.135407
-0.107051
-0.0815508
-0.0591668
-0.0399526
-0.0238056
-0.0105117
0.000212332
0.0086797
0.0152066
0.0200945
0.0236201
0.0260303
0.0275381
0.0283208
0.0285232
0.0282781
0.0276968
0.0268688
0.0258652
0.0247431
0.0235473
0.0223132
0.021068
0.0198325
0.0186224
0.017449
0.0163203
0.0152414
0.0142153
0.0132436
0.0123265
0.0114633
0.010653
0.00989379
0.0091836
0.00852009
0.0079007
0.00732273
0.00678352
0.00628043
0.00581105
0.00537296
0.00496407
0.00458202
0.00422494
0.00389018
0.00357615
0.00327959
0.00299966
0.0027321
0.0024778
0.00223046
0.00199445
0.0017591
0.00153559
0.00130408
0.00108914
0.000852257
0.000643915
0.000388131
0.00018116
-0.409239
-0.4096
-0.406143
-0.398508
-0.386482
-0.370033
-0.349344
-0.324835
-0.297143
-0.267093
-0.235651
-0.203769
-0.172388
-0.142395
-0.114525
-0.0892948
-0.0669782
-0.0476529
-0.0312491
-0.0175888
-0.00642317
0.00253053
0.00956299
0.0149558
0.0189708
0.0218446
0.0237854
0.0249702
0.0255419
0.0256279
0.0253414
0.0247755
0.0240044
0.0230878
0.0220737
0.0209997
0.0198958
0.0187848
0.0176844
0.0166078
0.0155645
0.0145611
0.0136019
0.0126895
0.0118251
0.0110089
0.0102404
0.00951854
0.00884177
0.00820824
0.00761583
0.00706219
0.00654501
0.00606187
0.00561061
0.00518898
0.00479507
0.00442667
0.00408206
0.00375875
0.00345526
0.00316853
0.00289775
0.00263892
0.00239277
0.00215347
0.00192484
0.00169723
0.00148032
0.00125671
0.00104721
0.000819225
0.000614154
0.000370293
0.000163704
-0.402515
-0.40324
-0.400315
-0.393397
-0.382272
-0.366878
-0.347378
-0.324157
-0.297807
-0.269106
-0.238971
-0.208346
-0.178063
-0.148927
-0.121662
-0.0967964
-0.0746262
-0.055253
-0.0386424
-0.0246549
-0.0130781
-0.00366115
0.00385981
0.00974537
0.0142418
0.0175747
0.0199457
0.0215294
0.0224722
0.0228941
0.0229077
0.022609
0.0220753
0.0213694
0.0205417
0.0196326
0.0186742
0.0176918
0.016705
0.0157286
0.014774
0.0138491
0.0129596
0.012109
0.0112996
0.0105324
0.00980766
0.00912488
0.00848313
0.00788105
0.00731695
0.00678887
0.00629482
0.00583268
0.0054005
0.00499624
0.00461814
0.00426417
0.00393274
0.00362154
0.00332919
0.00305283
0.00279169
0.00254204
0.00230445
0.00207358
0.00185269
0.00163316
0.00142322
0.00120782
0.00100424
0.000785368
0.000584377
0.000352417
0.000147599
-0.394571
-0.395628
-0.3932
-0.386985
-0.37677
-0.362468
-0.344215
-0.322359
-0.297448
-0.270202
-0.241477
-0.212181
-0.183115
-0.154963
-0.128408
-0.103996
-0.0820448
-0.0626851
-0.0459188
-0.0316466
-0.0196937
-0.00984208
-0.00185527
0.00450551
0.0094704
0.0132533
0.0160482
0.0180264
0.0193349
0.020094
0.0204106
0.0203822
0.0200893
0.0195975
0.0189598
0.0182191
0.0174098
0.0165593
0.0156891
0.014816
0.0139527
0.0131089
0.0122913
0.0115047
0.0107523
0.0100359
0.00935656
0.00871443
0.00810913
0.00753979
0.00700519
0.00650377
0.00603386
0.00559364
0.0051814
0.00479531
0.00443378
0.00409495
0.00377737
0.00347889
0.00319825
0.00293279
0.00268176
0.00244172
0.0022131
0.00199102
0.00177824
0.0015671
0.00136451
0.00115757
0.000960408
0.000750838
0.000554721
0.000334588
0.00013287
-0.3869
-0.384953
-0.379442
-0.370156
-0.356982
-0.340028
-0.319606
-0.296211
-0.270504
-0.243271
-0.215362
-0.187569
-0.160493
-0.134737
-0.110853
-0.0891866
-0.0698969
-0.0530244
-0.038511
-0.0262194
-0.0159649
-0.00753861
-0.000723985
0.00469243
0.00891259
0.012122
0.0144875
0.0161544
0.0172466
0.0178661
0.0181089
0.018058
0.0177818
0.0173361
0.016766
0.0161082
0.0153921
0.014641
0.0138735
0.013104
0.0123433
0.0115996
0.0108788
0.0101851
0.00952113
0.00888867
0.00828854
0.00772095
0.00718553
0.0066815
0.00620771
0.00576285
0.00534539
0.00495388
0.0045867
0.00424244
0.0039194
0.00361628
0.00333109
0.00306269
0.00280863
0.00256817
0.00233816
0.0021189
0.00190596
0.00170166
0.0014992
0.00130435
0.00110613
0.000915849
0.000715746
0.000525272
0.000316856
0.000119481
-0.377263
-0.375802
-0.371
-0.362657
-0.350633
-0.335011
-0.316065
-0.294234
-0.270116
-0.244424
-0.217942
-0.191426
-0.165467
-0.140573
-0.117279
-0.0959555
-0.0767913
-0.0598653
-0.04516
-0.0325752
-0.0219583
-0.013128
-0.0058896
-4.66405e-05
0.00459051
0.00819871
0.010939
0.0129547
0.0143705
0.0152898
0.0158036
0.0159948
0.0159344
0.0156809
0.0152822
0.014777
0.0141965
0.013566
0.0129057
0.0122315
0.0115555
0.0108873
0.0102338
0.0096001
0.00898986
0.00840552
0.00784856
0.00731977
0.00681929
0.00634678
0.00590151
0.00548251
0.00508858
0.0047185
0.00437088
0.00404452
0.00373787
0.00344977
0.00317842
0.00292276
0.00268055
0.0024511
0.00223152
0.002022
0.00181856
0.00162307
0.00142961
0.00124284
0.00105359
0.000870659
0.000680171
0.000496076
0.000299244
0.000107356
-0.366977
-0.365995
-0.361922
-0.354539
-0.34368
-0.329405
-0.311948
-0.291694
-0.269174
-0.245036
-0.219992
-0.19476
-0.169926
-0.145937
-0.123295
-0.102375
-0.0833933
-0.0664676
-0.0516211
-0.0387897
-0.0278519
-0.0186531
-0.0110205
-0.00477478
0.000260818
0.00425395
0.00735926
0.00971666
0.0114495
0.0126656
0.0134533
0.0138917
0.014052
0.0139946
0.01377
0.0134196
0.0129767
0.0124685
0.0119169
0.0113394
0.0107495
0.010158
0.00957289
0.00900038
0.0084449
0.00790965
0.00739679
0.00690768
0.00644295
0.00600273
0.00558668
0.00519421
0.00482441
0.00447634
0.00414884
0.00384089
0.00355114
0.00327854
0.00302147
0.00277899
0.00254904
0.00233098
0.00212218
0.00192274
0.0017291
0.00154275
0.00135854
0.00118018
0.00100011
0.000824967
0.000644214
0.000467191
0.000281798
9.64282e-05
-0.356909
-0.356317
-0.35292
-0.346464
-0.336758
-0.323837
-0.307892
-0.28925
-0.26837
-0.245825
-0.222253
-0.198309
-0.174594
-0.151529
-0.129566
-0.109072
-0.0902839
-0.073357
-0.0583594
-0.0452662
-0.0339893
-0.024402
-0.0163548
-0.00968609
-0.00423257
0.000163962
0.00365167
0.00636631
0.00842905
0.00994631
0.0110108
0.0117048
0.0120971
0.0122467
0.0122058
0.012018
0.0117191
0.0113385
0.0109001
0.0104228
0.00992207
0.00940977
0.00889526
0.0083857
0.00788649
0.00740166
0.00693406
0.00648564
0.00605757
0.00565045
0.00526435
0.00489903
0.00455392
0.00422838
0.00392149
0.0036324
0.00335997
0.00310329
0.00286091
0.00263198
0.00241464
0.0022083
0.00201059
0.00182153
0.00163794
0.00146101
0.00128628
0.00111664
0.000945921
0.000778946
0.000608027
0.00043869
0.000264618
8.67525e-05
-0.34494
-0.342346
-0.336926
-0.328475
-0.317002
-0.302653
-0.285696
-0.266519
-0.245617
-0.223555
-0.200923
-0.178281
-0.1561
-0.134823
-0.114831
-0.0963479
-0.0795318
-0.0644866
-0.0512257
-0.0396942
-0.0297929
-0.0213954
-0.0143591
-0.0085348
-0.00377469
6.20154e-05
0.00310605
0.00547581
0.00727616
0.00859813
0.00952441
0.0101274
0.0104706
0.0106056
0.0105764
0.0104201
0.0101673
0.00984315
0.00946816
0.00905879
0.00862818
0.00818673
0.00774255
0.00730196
0.00686974
0.00644944
0.00604363
0.00565401
0.00528165
0.00492703
0.00459027
0.00427116
0.0039693
0.00368406
0.0034148
0.00316059
0.00292065
0.00269374
0.00247908
0.00227505
0.00208108
0.00189507
0.00171692
0.00154394
0.00137685
0.00121208
0.00105152
0.000890565
0.000732136
0.000571312
0.000410241
0.000247432
7.84069e-05
-0.332136
-0.329448
-0.32418
-0.316102
-0.305221
-0.291682
-0.275745
-0.257769
-0.238209
-0.217579
-0.19641
-0.175218
-0.154444
-0.134464
-0.115602
-0.0980973
-0.0821053
-0.0677136
-0.0549399
-0.0437426
-0.0340388
-0.0257219
-0.0186717
-0.0127598
-0.00785737
-0.00383958
-0.000589325
0.00200137
0.00403061
0.00558608
0.00674372
0.00757027
0.00812416
0.00845564
0.00860845
0.00861993
0.00852126
0.00833833
0.00809248
0.00780115
0.00747839
0.00713544
0.00678118
0.00642258
0.00606508
0.00571285
0.00536907
0.00503605
0.00471541
0.00440814
0.00411477
0.00383543
0.00357003
0.00331822
0.00307963
0.00285362
0.00263964
0.0024368
0.00224441
0.00206127
0.00188667
0.00171911
0.00155808
0.00140176
0.00125002
0.00110076
0.000954205
0.00080822
0.000662864
0.00051707
0.000368817
0.000221847
6.76214e-05
-0.309962
-0.307052
-0.301718
-0.294008
-0.283961
-0.271691
-0.257411
-0.241426
-0.224107
-0.205874
-0.187154
-0.168362
-0.149868
-0.131988
-0.114997
-0.0991093
-0.0844666
-0.0711523
-0.0591983
-0.0485916
-0.0392825
-0.0311943
-0.0242337
-0.0182995
-0.0132877
-0.0090954
-0.00562372
-0.00277971
-0.000477776
0.0013589
0.0027985
0.00390222
0.00472486
0.00531463
0.00571339
0.00595701
0.00607591
0.00609573
0.0060379
0.00592024
0.00575739
0.00556133
0.00534178
0.00510658
0.00486203
0.00461314
0.00436385
0.00411719
0.00387546
0.00364028
0.00341282
0.00319378
0.00298363
0.0027825
0.00259044
0.00240722
0.0022326
0.00206604
0.00190709
0.00175493
0.00160904
0.00146835
0.00133238
0.00119991
0.00107058
0.000943122
0.000817144
0.000691839
0.000565977
0.00044067
0.000311662
0.000186159
5.26341e-05
-0.290518
-0.287506
-0.28238
-0.275217
-0.266081
-0.255061
-0.242321
-0.228106
-0.212721
-0.196508
-0.179819
-0.162998
-0.146366
-0.1302
-0.114739
-0.100173
-0.0866394
-0.0742239
-0.0629694
-0.0528802
-0.0439268
-0.0360544
-0.0291921
-0.0232608
-0.0181765
-0.0138538
-0.0102088
-0.00716128
-0.00463656
-0.00256607
-0.000887499
0.00045569
0.00151441
0.00233369
0.00295288
0.00340614
0.00372289
0.00392829
0.00404369
0.00408708
0.0040735
0.00401544
0.00392325
0.00380541
0.00366886
0.00351926
0.00336119
0.00319829
0.00303343
0.00286883
0.00270619
0.00254673
0.00239137
0.00224068
0.00209506
0.00195465
0.00181952
0.00168945
0.00156427
0.0014435
0.0013268
0.0012135
0.00110322
0.000995159
0.00088891
0.000783816
0.000679155
0.00057501
0.000469446
0.000364963
0.000256014
0.00015209
3.95279e-05
-0.272694
-0.269736
-0.264921
-0.258323
-0.250015
-0.240081
-0.228658
-0.215948
-0.202202
-0.187707
-0.172761
-0.157655
-0.142663
-0.128026
-0.113951
-0.100606
-0.0881171
-0.0765694
-0.0660102
-0.056454
-0.0478864
-0.0402713
-0.033557
-0.0276825
-0.0225806
-0.0181813
-0.0144142
-0.0112111
-0.00850704
-0.00624141
-0.00435812
-0.00280593
-0.00153841
-0.000514045
0.00030397
0.000948014
0.00144635
0.00182343
0.00210026
0.00229475
0.0024221
0.00249509
0.00252445
0.00251914
0.00248662
0.00243306
0.00236357
0.00228232
0.00219269
0.00209739
0.00199859
0.00189797
0.00179684
0.00169618
0.00159674
0.00149901
0.00140335
0.00130988
0.00121866
0.00112953
0.00104236
0.000956803
0.00087259
0.000789328
0.000706585
0.000624212
0.000541278
0.00045859
0.000373696
0.000290197
0.000201564
0.000119007
2.71042e-05
-0.256526
-0.253706
-0.249226
-0.243165
-0.235604
-0.226631
-0.216363
-0.204968
-0.192657
-0.17967
-0.166258
-0.152666
-0.139127
-0.125848
-0.113011
-0.100764
-0.0892241
-0.0784743
-0.0685647
-0.0595177
-0.0513312
-0.0439839
-0.0374394
-0.031651
-0.0265658
-0.0221266
-0.0182751
-0.0149535
-0.0121055
-0.00967785
-0.00762082
-0.00588831
-0.00443815
-0.00323214
-0.00223596
-0.00141915
-0.000754808
-0.000219434
0.000207393
0.000543291
0.000803369
0.00100052
0.00114569
0.00124815
0.00131573
0.001355
0.00137149
0.00136979
0.00135372
0.00132641
0.00129043
0.00124787
0.00120042
0.0011494
0.00109591
0.00104075
0.000984563
0.00092776
0.000870652
0.000813367
0.000755972
0.00069842
0.000640578
0.000582401
0.000523476
0.000464099
0.000403191
0.000342181
0.00027821
0.000215807
0.000147616
8.62727e-05
1.4961e-05
-0.241876
-0.23923
-0.235092
-0.229543
-0.222669
-0.214558
-0.205311
-0.195072
-0.184016
-0.172345
-0.16027
-0.148
-0.135733
-0.123651
-0.111912
-0.10065
-0.0899717
-0.0799566
-0.0706563
-0.0620985
-0.05429
-0.0472201
-0.0408642
-0.0351878
-0.0301494
-0.0257032
-0.0218011
-0.0183944
-0.0154348
-0.0128762
-0.0106744
-0.00878842
-0.00718002
-0.00581425
-0.00465943
-0.00368711
-0.00287193
-0.0021915
-0.00162616
-0.00115877
-0.000774461
-0.000460408
-0.000205592
-5.74837e-07
0.000162709
0.00029113
0.000390528
0.000465841
0.000521237
0.000560209
0.000585681
0.00060008
0.000605429
0.00060339
0.000595335
0.000582371
0.000565396
0.000545104
0.000522033
0.000496585
0.000469013
0.000439558
0.000408214
0.000375259
0.000340314
0.000304079
0.000265359
0.000226143
0.000183219
0.000141937
9.42224e-05
5.39664e-05
3.18824e-06
-0.228581
-0.226125
-0.222328
-0.217266
-0.211027
-0.20369
-0.195348
-0.186123
-0.176164
-0.165641
-0.154734
-0.143622
-0.132475
-0.121453
-0.110694
-0.100319
-0.090426
-0.0810885
-0.0723587
-0.0642677
-0.0568285
-0.0500386
-0.0438826
-0.0383361
-0.0333673
-0.02894
-0.0250149
-0.0215511
-0.0185079
-0.0158451
-0.0135241
-0.0115084
-0.00976373
-0.00825824
-0.00696288
-0.00585129
-0.00489974
-0.00408704
-0.00339441
-0.00280531
-0.00230528
-0.00188168
-0.00152356
-0.00122142
-0.000967077
-0.000753466
-0.000574514
-0.000425021
-0.000300537
-0.000197276
-0.000112018
-4.20337e-05
1.49868e-05
6.09915e-05
9.76221e-05
0.000126253
0.000148024
0.000163887
0.000174592
0.000180795
0.000182928
0.000181499
0.000176623
0.000168883
0.000157935
0.000144856
0.00012835
0.000110922
8.90397e-05
6.88067e-05
4.15018e-05
2.21465e-05
-8.2699e-06
-0.216496
-0.214243
-0.21078
-0.206178
-0.200519
-0.193878
-0.186338
-0.178006
-0.169008
-0.159491
-0.149609
-0.139516
-0.129361
-0.11928
-0.109398
-0.0998233
-0.0906437
-0.0819291
-0.0737306
-0.0660813
-0.0589986
-0.0524861
-0.0465362
-0.0411321
-0.0362504
-0.0318626
-0.027937
-0.0244399
-0.0213369
-0.0185933
-0.0161757
-0.0140516
-0.0121905
-0.0105637
-0.00914467
-0.00790906
-0.00683482
-0.00590206
-0.00509298
-0.00439175
-0.00378438
-0.00325858
-0.00280354
-0.00240983
-0.00206922
-0.00177456
-0.00151961
-0.00129898
-0.00110801
-0.000942683
-0.000799522
-0.000675549
-0.000568203
-0.000475285
-0.000394915
-0.000325473
-0.000265603
-0.000214114
-0.000170062
-0.000132551
-0.000100987
-7.46088e-05
-5.31878e-05
-3.58552e-05
-2.2923e-05
-1.29562e-05
-7.34842e-06
-3.10695e-06
-4.06456e-06
-3.4136e-06
-1.04699e-05
-9.17844e-06
-1.9475e-05
-0.205504
-0.203458
-0.200315
-0.196141
-0.191011
-0.184994
-0.178168
-0.170624
-0.162474
-0.153843
-0.144864
-0.135671
-0.126393
-0.11715
-0.108054
-0.0991997
-0.0906685
-0.0825256
-0.0748205
-0.0675871
-0.060846
-0.0546055
-0.0488636
-0.04361
-0.038828
-0.0344959
-0.0305883
-0.0270776
-0.0239349
-0.0211308
-0.0186362
-0.0164227
-0.0144631
-0.0127317
-0.0112044
-0.00985892
-0.00867484
-0.0076336
-0.00671843
-0.0059143
-0.0052078
-0.00458703
-0.00404145
-0.00356176
-0.00313978
-0.00276832
-0.00244108
-0.00215254
-0.00189788
-0.00167288
-0.00147389
-0.00129772
-0.00114158
-0.00100306
-0.000880075
-0.000770782
-0.000673627
-0.000587204
-0.000510389
-0.000442065
-0.000381488
-0.000327661
-0.00028025
-0.000238117
-0.000201545
-0.000168761
-0.000141252
-0.000115564
-9.58141e-05
-7.45312e-05
-6.15876e-05
-3.99623e-05
-3.04402e-05
-0.195498
-0.193658
-0.190817
-0.187038
-0.182388
-0.176933
-0.170743
-0.163898
-0.156497
-0.148648
-0.140467
-0.132071
-0.123572
-0.115077
-0.106685
-0.0984802
-0.0905382
-0.0829196
-0.0756714
-0.0688282
-0.0624123
-0.0564355
-0.0509004
-0.0458017
-0.0411283
-0.0368639
-0.0329888
-0.0294806
-0.0263152
-0.0234678
-0.0209134
-0.0186272
-0.0165851
-0.0147642
-0.0131427
-0.0117004
-0.0104184
-0.00927953
-0.00826812
-0.00736996
-0.00657227
-0.00586361
-0.00523377
-0.00467367
-0.00417524
-0.00373133
-0.00333562
-0.0029825
-0.00266707
-0.00238497
-0.00213239
-0.00190596
-0.00170273
-0.00152009
-0.00135578
-0.00120775
-0.00107428
-0.000953759
-0.00084491
-0.000746409
-0.000657373
-0.000576586
-0.000503618
-0.000437077
-0.000377221
-0.000321958
-0.000272867
-0.000226053
-0.000185909
-0.00014433
-0.000111718
-7.01333e-05
-4.11607e-05
-0.186384
-0.184744
-0.182186
-0.17877
-0.174557
-0.169607
-0.163984
-0.157761
-0.151024
-0.143868
-0.136394
-0.128705
-0.120899
-0.113072
-0.10531
-0.0976922
-0.0902856
-0.0831469
-0.0763211
-0.0698424
-0.0637343
-0.0580111
-0.0526788
-0.0477364
-0.0431771
-0.0389893
-0.0351579
-0.0316651
-0.0284911
-0.0256151
-0.0230156
-0.0206712
-0.0185607
-0.0166638
-0.0149609
-0.0134336
-0.0120648
-0.0108385
-0.00974018
-0.00875641
-0.00787515
-0.00708547
-0.00637753
-0.00574253
-0.00517256
-0.00466056
-0.00420024
-0.00378599
-0.00341283
-0.00307631
-0.0027725
-0.0024979
-0.00224942
-0.00202428
-0.00182006
-0.00163455
-0.00146587
-0.00131224
-0.00117222
-0.0010443
-0.000927488
-0.000820351
-0.000722376
-0.000631932
-0.000549258
-0.000471959
-0.000401703
-0.00033418
-0.000274042
-0.000212586
-0.000160713
-9.961e-05
-5.16233e-05
-0.178084
-0.176633
-0.174339
-0.171255
-0.167437
-0.162942
-0.157827
-0.152157
-0.14601
-0.139468
-0.132622
-0.125561
-0.118373
-0.111142
-0.103948
-0.0968589
-0.0899383
-0.0832385
-0.0768022
-0.0706627
-0.0648444
-0.0593633
-0.054228
-0.0494407
-0.0449983
-0.0408931
-0.0371139
-0.0336467
-0.0304756
-0.0275831
-0.0249511
-0.0225612
-0.0203948
-0.0184339
-0.0166611
-0.0150597
-0.0136142
-0.0123099
-0.0111333
-0.010072
-0.0091144
-0.0082503
-0.00747026
-0.00676574
-0.00612908
-0.00555335
-0.00503232
-0.00456042
-0.00413263
-0.00374447
-0.0033919
-0.00307134
-0.00277956
-0.00251366
-0.00227109
-0.00204948
-0.00184683
-0.00166118
-0.00149097
-0.00133453
-0.00119073
-0.00105797
-0.000935644
-0.000821909
-0.000716985
-0.000618189
-0.000527281
-0.000439553
-0.000359907
-0.000279069
-0.000208421
-0.000128305
-6.18063e-05
-0.170526
-0.169255
-0.167204
-0.164422
-0.160963
-0.156876
-0.152215
-0.147038
-0.141415
-0.135419
-0.129131
-0.122629
-0.115992
-0.109296
-0.10261
-0.0959994
-0.08952
-0.0832209
-0.0771429
-0.0713182
-0.0657715
-0.0605199
-0.0555742
-0.0509389
-0.0466141
-0.0425951
-0.0388741
-0.0354404
-0.0322813
-0.0293824
-0.0267286
-0.0243039
-0.0220924
-0.0200782
-0.0182457
-0.0165801
-0.0150672
-0.0136937
-0.0124469
-0.0113154
-0.0102885
-0.00935628
-0.00850989
-0.00774112
-0.00704253
-0.00640738
-0.00582954
-0.0053035
-0.00482424
-0.00438727
-0.0039885
-0.00362426
-0.00329124
-0.00298643
-0.00270716
-0.00245096
-0.00221566
-0.00199921
-0.00179991
-0.00161593
-0.00144605
-0.00128849
-0.00114258
-0.00100627
-0.000879753
-0.000760094
-0.000649132
-0.000541787
-0.000443199
-0.000343551
-0.000254683
-0.000156125
-7.1683e-05
-0.163651
-0.162547
-0.160719
-0.158212
-0.155075
-0.151356
-0.1471
-0.142364
-0.137207
-0.131697
-0.125905
-0.119902
-0.113757
-0.107539
-0.10131
-0.0951303
-0.0890506
-0.083117
-0.0773677
-0.0718342
-0.0665409
-0.0615057
-0.0567409
-0.0522531
-0.0480446
-0.0441134
-0.0404546
-0.0370602
-0.0339203
-0.0310233
-0.0283564
-0.0259063
-0.023659
-0.0216007
-0.0197178
-0.0179968
-0.0164249
-0.01499
-0.0136806
-0.012486
-0.0113962
-0.010402
-0.00949481
-0.00866686
-0.007911
-0.00722066
-0.00658987
-0.00601318
-0.00548564
-0.00500274
-0.00456038
-0.00415482
-0.0037827
-0.00344091
-0.0031267
-0.00283748
-0.002571
-0.00232504
-0.00209784
-0.00188742
-0.00169246
-0.00151103
-0.00134239
-0.00118429
-0.00103694
-0.000897137
-0.000766803
-0.000640508
-0.00052362
-0.000405804
-0.000299341
-0.000182979
-8.1223e-05
-0.157404
-0.156454
-0.154829
-0.152572
-0.149726
-0.146335
-0.142442
-0.138098
-0.133357
-0.12828
-0.12293
-0.11737
-0.111665
-0.105875
-0.100057
-0.0942651
-0.0885475
-0.0829464
-0.0774981
-0.0722329
-0.067175
-0.0623428
-0.0577494
-0.0534032
-0.0493083
-0.045465
-0.0418705
-0.0385195
-0.0354042
-0.0325155
-0.0298428
-0.027375
-0.0251
-0.0230058
-0.0210804
-0.0193118
-0.0176887
-0.0161998
-0.0148347
-0.0135835
-0.012437
-0.0113864
-0.0104237
-0.00954148
-0.00873285
-0.00799147
-0.00731153
-0.00668769
-0.00611504
-0.00558912
-0.00510581
-0.00466135
-0.00425233
-0.00387557
-0.00352825
-0.00320768
-0.00291153
-0.00263748
-0.00238367
-0.00214798
-0.00192903
-0.00172473
-0.00153431
-0.00135532
-0.00118796
-0.00102881
-0.000879861
-0.000735358
-0.000600882
-0.000465608
-0.000342241
-0.000208775
-9.03947e-05
-0.151739
-0.15093
-0.149489
-0.147456
-0.144872
-0.141775
-0.138206
-0.134212
-0.129841
-0.125148
-0.120192
-0.115028
-0.109715
-0.104307
-0.0988579
-0.0934157
-0.0880252
-0.082726
-0.0775526
-0.0725339
-0.0676936
-0.0630506
-0.0586186
-0.0544072
-0.050422
-0.0466652
-0.0431358
-0.0398305
-0.0367438
-0.0338684
-0.0311959
-0.0287167
-0.0264208
-0.0242977
-0.0223369
-0.0205279
-0.0188602
-0.017324
-0.0159096
-0.0146079
-0.0134103
-0.0123088
-0.0112956
-0.0103638
-0.00950675
-0.00871837
-0.00799301
-0.00732545
-0.00671087
-0.00614483
-0.00562325
-0.00514234
-0.00469867
-0.00428901
-0.00391048
-0.0035603
-0.00323609
-0.00293542
-0.00265635
-0.00239665
-0.00215489
-0.00192882
-0.00171762
-0.0015187
-0.00133225
-0.00115462
-0.000987892
-0.000825991
-0.000674706
-0.000522751
-0.000383231
-0.000233422
-9.9166e-05
-0.146613
-0.145931
-0.144657
-0.142826
-0.140475
-0.137641
-0.134362
-0.130678
-0.126636
-0.122286
-0.117679
-0.112868
-0.107905
-0.102839
-0.0977197
-0.0925917
-0.0874963
-0.0824706
-0.0775472
-0.0727539
-0.0681141
-0.0636464
-0.0593653
-0.0552812
-0.0514009
-0.047728
-0.0442633
-0.041005
-0.0379494
-0.0350911
-0.0324232
-0.0299379
-0.0276268
-0.0254808
-0.0234908
-0.0216474
-0.0199414
-0.0183638
-0.0169059
-0.0155594
-0.0143161
-0.0131686
-0.0121098
-0.0111329
-0.0102316
-0.00940016