/*--------------------------------*- C++ -*----------------------------------*\
  =========                 |
  \\      /  F ield         | OpenFOAM: The Open Source CFD Toolbox
   \\    /   O peration     | Website:  https://openfoam.org
    \\  /    A nd           | Version:  7
     \\/     M anipulation  |
\*---------------------------------------------------------------------------*/
FoamFile
{
    version     2.0;
    format      ascii;
    class       volVectorField;
    location    "9.999";
    object      U;
}
// * * * * * * * * * * * * * * * * * * * * * * * * * * * * * * * * * * * * * //

dimensions      [0 1 -1 0 0 0 0];

internalField   nonuniform List<vector> 
3700
(
(-0.466297 0.00502768 3.41909e-22)
(-0.481412 0.00358222 -4.45336e-21)
(-0.491623 0.00199054 4.85061e-21)
(-0.495526 0.000297492 -5.94774e-21)
(-0.493354 -0.00150487 3.17959e-21)
(-0.484702 -0.00336613 -1.05192e-21)
(-0.469461 -0.00525425 4.61358e-21)
(-0.447505 -0.00713234 -2.51711e-21)
(-0.418932 -0.00896563 1.97176e-21)
(-0.38396 -0.0106939 -1.01206e-21)
(-0.343018 -0.0122782 -1.30746e-21)
(-0.296637 -0.0136772 -4.89125e-22)
(-0.245616 -0.0148187 5.53612e-22)
(-0.190819 -0.0157024 -2.64956e-22)
(-0.133265 -0.0162747 3.76566e-22)
(-0.0739762 -0.0165877 -9.76841e-23)
(-0.0139269 -0.0166116 -1.24725e-22)
(0.0458532 -0.016364 1.87015e-22)
(0.104516 -0.0159134 2.5923e-24)
(0.161392 -0.0152954 1.27051e-22)
(0.215927 -0.014552 -3.11382e-22)
(0.267724 -0.0137253 3.26295e-23)
(0.316532 -0.0128528 6.98627e-23)
(0.362225 -0.0119662 -1.26585e-22)
(0.40478 -0.0110904 5.07965e-22)
(0.444259 -0.0102446 -4.03365e-22)
(0.480777 -0.00944181 -3.39602e-23)
(0.514479 -0.00868848 1.2088e-22)
(0.545536 -0.00798792 5.23102e-22)
(0.574133 -0.00734126 -4.38249e-22)
(0.600458 -0.00674783 -2.30342e-22)
(0.624699 -0.00620568 4.11332e-22)
(0.647033 -0.00571209 9.78099e-24)
(0.667632 -0.00526388 1.27402e-22)
(0.686653 -0.00485765 -3.41897e-22)
(0.704244 -0.00448998 2.18767e-22)
(0.720538 -0.00415753 -5.82329e-23)
(0.73566 -0.00385707 1.08667e-22)
(0.749722 -0.00358556 2.55208e-23)
(0.762823 -0.00334017 -6.1025e-23)
(0.775057 -0.00311825 2.81879e-23)
(0.786504 -0.00291741 -1.34595e-23)
(0.797239 -0.00273549 2.61082e-23)
(0.807328 -0.00257057 -2.54561e-23)
(0.816832 -0.00242094 1.13561e-23)
(0.825803 -0.00228507 3.09907e-23)
(0.834291 -0.00216158 -2.23318e-24)
(0.842338 -0.00204919 7.98783e-23)
(0.849986 -0.00194675 -7.76284e-23)
(0.857267 -0.00185318 2.52493e-23)
(0.864214 -0.00176758 4.1837e-23)
(0.870856 -0.00168921 -2.50714e-23)
(0.877217 -0.00161749 2.41776e-23)
(0.883321 -0.00155205 2.60688e-24)
(0.889193 -0.00149258 1.64043e-23)
(0.894854 -0.00143885 -5.78911e-24)
(0.900325 -0.00139052 -4.32663e-24)
(0.905625 -0.00134719 8.58632e-24)
(0.910774 -0.00130822 -2.14355e-24)
(0.915784 -0.0012729 -5.86609e-25)
(0.920673 -0.00124024 2.15788e-24)
(0.925441 -0.00120945 5.1481e-24)
(0.930105 -0.00117937 -2.80409e-24)
(0.934647 -0.00114951 -4.9991e-24)
(0.939095 -0.00111855 4.69391e-25)
(0.943401 -0.00108684 8.65603e-24)
(0.947624 -0.0010524 1.54887e-24)
(0.951654 -0.00101723 -8.95694e-25)
(0.955638 -0.000977343 6.62503e-25)
(0.959326 -0.000938413 -1.08246e-24)
(0.963075 -0.000891182 -1.38042e-24)
(0.966309 -0.000850077 1.72855e-24)
(0.969883 -0.000793122 1.29843e-24)
(0.972463 -0.000754625 1.98574e-25)
(0.976067 -0.000684159 2.38026e-25)
(0.977608 -0.000657638 1.73037e-25)
(0.981791 -0.000567438 2.95174e-25)
(-0.434872 0.0146771 -2.46756e-21)
(-0.448408 0.01036 8.08969e-21)
(-0.457155 0.00563209 -7.37957e-21)
(-0.459818 0.000623776 -4.86291e-21)
(-0.456576 -0.00475058 -2.76358e-21)
(-0.44704 -0.0102754 4.53787e-21)
(-0.431113 -0.0158767 -5.75691e-21)
(-0.408691 -0.0214471 1.60467e-20)
(-0.379865 -0.0268883 -7.06786e-21)
(-0.344864 -0.0320125 -1.07289e-21)
(-0.304122 -0.0367082 1.88252e-21)
(-0.258135 -0.0408489 -2.46007e-21)
(-0.207727 -0.044223 2.38421e-21)
(-0.153723 -0.0468352 -1.34933e-21)
(-0.0971579 -0.0485242 -1.22625e-21)
(-0.0390112 -0.049473 2.8738e-22)
(0.0197828 -0.0494256 1.42341e-21)
(0.0781917 -0.0486923 4.784e-23)
(0.135376 -0.0473354 -5.45371e-23)
(0.190717 -0.0454746 5.52613e-22)
(0.243687 -0.0432427 3.46986e-22)
(0.293914 -0.0407663 -7.20577e-22)
(0.341169 -0.0381578 1.00073e-22)
(0.385345 -0.0355108 -4.11658e-22)
(0.426435 -0.0328993 1.13374e-21)
(0.46451 -0.0303791 -1.52141e-21)
(0.499693 -0.0279892 1.01733e-21)
(0.532135 -0.0257485 -5.78598e-22)
(0.562008 -0.0236664 1.73953e-22)
(0.589496 -0.0217457 -6.92906e-22)
(0.614786 -0.0199842 -7.28273e-24)
(0.638063 -0.0183757 3.81844e-22)
(0.659501 -0.016912 4.57275e-22)
(0.679267 -0.0155834 -1.12994e-21)
(0.697515 -0.0143797 5.92213e-22)
(0.714388 -0.0132906 -3.51259e-23)
(0.730017 -0.0123062 -1.62587e-22)
(0.744521 -0.0114168 4.53466e-22)
(0.758008 -0.0106133 -4.55154e-22)
(0.770576 -0.00988734 2.2874e-22)
(0.782314 -0.00923096 4.47139e-23)
(0.7933 -0.00863706 -2.2657e-22)
(0.803605 -0.00809921 -1.3642e-22)
(0.813293 -0.00761169 3.77296e-22)
(0.822422 -0.00716943 -2.71921e-22)
(0.831043 -0.00676792 2.56289e-22)
(0.839203 -0.00640305 -4.8663e-22)
(0.846944 -0.00607107 2.30651e-22)
(0.854303 -0.0057685 1.50889e-22)
(0.861314 -0.00549221 -1.5781e-22)
(0.868007 -0.00523946 5.58042e-23)
(0.874409 -0.00500806 -2.37198e-23)
(0.880545 -0.00479631 1.31304e-24)
(0.886437 -0.00460305 1.18845e-23)
(0.892107 -0.00442743 -1.14043e-22)
(0.897576 -0.00426874 4.00807e-23)
(0.902865 -0.00412603 -3.51193e-23)
(0.907991 -0.00399812 1.77937e-23)
(0.912974 -0.00388312 5.60993e-23)
(0.917825 -0.00377894 2.61087e-23)
(0.922562 -0.00368267 -5.12157e-23)
(0.927184 -0.00359193 1.35375e-23)
(0.931709 -0.00350326 3.55859e-24)
(0.936118 -0.00341523 -2.33455e-23)
(0.940438 -0.0033239 -1.03657e-24)
(0.944622 -0.00323027 -2.60106e-24)
(0.948729 -0.00312854 -4.5618e-24)
(0.95265 -0.00302457 7.65909e-24)
(0.95653 -0.00290654 -1.31651e-23)
(0.960122 -0.00279133 -6.52345e-24)
(0.963778 -0.0026514 1.43738e-23)
(0.966931 -0.00252964 -2.82192e-24)
(0.970422 -0.00236073 -8.07106e-24)
(0.972939 -0.0022466 1.06827e-24)
(0.976466 -0.00203746 -2.48647e-25)
(0.977969 -0.00195879 -3.83501e-25)
(0.98207 -0.00169097 -5.66439e-25)
(-0.375266 0.0231798 1.41586e-20)
(-0.38596 0.0160703 -2.80582e-20)
(-0.39207 0.00834689 2.08544e-20)
(-0.392563 0.000136338 -1.45456e-21)
(-0.387482 -0.00861776 -1.45272e-20)
(-0.376436 -0.0176273 1.81434e-20)
(-0.359387 -0.0267636 5.27782e-22)
(-0.336255 -0.035845 6.29166e-21)
(-0.307103 -0.0447233 -5.97346e-21)
(-0.272186 -0.0530718 -2.97852e-21)
(-0.231948 -0.0607219 1.20366e-20)
(-0.186809 -0.0674658 -1.59033e-20)
(-0.137633 -0.0729565 8.40745e-21)
(-0.0851979 -0.0772123 1.07625e-22)
(-0.0305388 -0.0799898 -8.55731e-21)
(0.0254872 -0.0812663 3.78157e-21)
(0.0819525 -0.0811503 -7.19433e-22)
(0.137753 -0.0799032 -5.13442e-22)
(0.192214 -0.0776114 -1.43687e-22)
(0.244732 -0.0744921 5.43822e-22)
(0.294831 -0.070771 -1.87917e-22)
(0.342183 -0.0666586 5.43787e-22)
(0.3866 -0.0623405 -1.29202e-21)
(0.428009 -0.0579699 5.96505e-22)
(0.466428 -0.053667 -1.43064e-21)
(0.501945 -0.0495213 1.28209e-21)
(0.534697 -0.0455956 -1.34415e-21)
(0.564845 -0.041921 1.90103e-21)
(0.592562 -0.0385114 1.06912e-21)
(0.61803 -0.0353702 -1.3536e-21)
(0.641434 -0.0324924 -5.26453e-22)
(0.662951 -0.0298673 8.97308e-22)
(0.682752 -0.0274807 3.37379e-22)
(0.700996 -0.0253161 -1.34768e-21)
(0.717829 -0.0233566 9.22205e-22)
(0.733387 -0.0215848 -2.56606e-22)
(0.747794 -0.0199844 1.10289e-21)
(0.761161 -0.0185393 -9.75325e-22)
(0.773591 -0.0172346 6.41123e-22)
(0.785176 -0.0160564 -4.97433e-22)
(0.795997 -0.0149917 2.77786e-22)
(0.806129 -0.0140288 8.19029e-23)
(0.815638 -0.0131571 1.22128e-22)
(0.824582 -0.0123673 3.91919e-22)
(0.833015 -0.011651 -6.3091e-22)
(0.840984 -0.011001 -5.3545e-23)
(0.848533 -0.0104105 2.17168e-22)
(0.8557 -0.00987344 -1.26587e-22)
(0.86252 -0.00938419 2.8607e-23)
(0.869025 -0.0089376 -5.32112e-23)
(0.875241 -0.00852918 -7.90153e-24)
(0.881193 -0.00815528 6.01214e-24)
(0.886904 -0.00781311 3.07242e-22)
(0.892395 -0.00750076 -8.25412e-23)
(0.897684 -0.00721687 4.98652e-23)
(0.902791 -0.00696033 -8.94705e-23)
(0.907735 -0.0067297 8.93054e-23)
(0.912532 -0.00652309 -3.28356e-24)
(0.9172 -0.0063375 7.24806e-23)
(0.92175 -0.00616956 -1.11702e-22)
(0.926197 -0.00601451 1.99883e-23)
(0.930541 -0.00586847 4.82076e-24)
(0.934799 -0.00572573 4.21823e-24)
(0.938954 -0.00558397 -1.10303e-23)
(0.94303 -0.00543668 -8.20755e-24)
(0.946981 -0.00528554 -2.19501e-23)
(0.950866 -0.00512098 1.21141e-23)
(0.954576 -0.00495269 1.34734e-23)
(0.958256 -0.00476124 -1.78906e-23)
(0.961663 -0.00457435 3.41557e-24)
(0.96514 -0.00434683 -1.39199e-23)
(0.968136 -0.00414896 3.66832e-24)
(0.971468 -0.00387375 -1.52607e-24)
(0.973864 -0.00368799 -1.41477e-24)
(0.977242 -0.00334675 2.99544e-24)
(0.978674 -0.0032185 -2.94787e-24)
(0.982612 -0.00278121 1.65206e-25)
(-0.293078 0.0299826 1.62209e-20)
(-0.30014 0.0202783 -2.53498e-20)
(-0.302937 0.0097843 2.8586e-20)
(-0.300731 -0.00142815 -3.43294e-21)
(-0.293424 -0.0132644 8.89414e-21)
(-0.280649 -0.0254833 8.54737e-21)
(-0.262384 -0.0378845 -1.69338e-20)
(-0.238595 -0.0502012 7.63807e-21)
(-0.209273 -0.0622739 -1.40422e-20)
(-0.174712 -0.0735904 5.88207e-22)
(-0.135397 -0.0839879 2.60483e-20)
(-0.0916437 -0.0931955 -2.00519e-20)
(-0.0442966 -0.100681 -8.61678e-22)
(0.00583091 -0.106271 9.22205e-21)
(0.0579553 -0.109919 -7.64965e-22)
(0.111021 -0.111452 -1.19218e-21)
(0.164151 -0.111274 6.79751e-22)
(0.216453 -0.109434 3.25072e-22)
(0.267253 -0.106165 -9.43883e-23)
(0.316001 -0.101774 -1.0534e-22)
(0.362287 -0.0965721 1.25182e-21)
(0.405844 -0.0908521 -5.93259e-22)
(0.446532 -0.0848693 -1.22352e-21)
(0.484318 -0.0788335 -1.33863e-21)
(0.519251 -0.0729074 4.08218e-21)
(0.55144 -0.0672101 -3.32832e-21)
(0.581035 -0.0618245 1.71536e-21)
(0.608207 -0.0567945 -1.00593e-21)
(0.63313 -0.0521362 2.0079e-21)
(0.655983 -0.0478517 -2.31918e-21)
(0.676944 -0.0439324 6.34984e-22)
(0.696184 -0.0403624 -3.94539e-22)
(0.713863 -0.0371206 -7.94649e-22)
(0.730131 -0.0341839 -6.77297e-22)
(0.745125 -0.0315281 5.00375e-22)
(0.758972 -0.0291293 -1.84123e-23)
(0.771784 -0.0269644 -2.89769e-22)
(0.783667 -0.0250115 1.01503e-21)
(0.794712 -0.0232499 1.2135e-22)
(0.805005 -0.0216604 -7.7691e-22)
(0.814621 -0.0202252 4.44474e-22)
(0.823626 -0.0189282 -7.9448e-22)
(0.832081 -0.0177549 -2.66112e-22)
(0.840039 -0.0166923 5.96033e-22)
(0.847546 -0.0157292 -4.30195e-22)
(0.854647 -0.0148556 8.07209e-23)
(0.86138 -0.0140625 -2.50609e-22)
(0.867779 -0.0133417 1.31657e-22)
(0.873875 -0.0126855 5.82288e-23)
(0.879698 -0.0120869 3.17832e-23)
(0.88527 -0.0115398 -6.22265e-23)
(0.890614 -0.011039 -2.11176e-22)
(0.895749 -0.0105807 2.95676e-22)
(0.900694 -0.0101622 -1.63513e-22)
(0.905464 -0.00978175 -7.29912e-23)
(0.910077 -0.00943796 -4.36984e-23)
(0.914549 -0.00912897 4.95486e-23)
(0.918894 -0.00885242 -1.6983e-22)
(0.923129 -0.00860433 7.54466e-23)
(0.927262 -0.00838021 9.53186e-23)
(0.931309 -0.0081736 -1.00392e-23)
(0.935269 -0.00797923 -1.17302e-22)
(0.939158 -0.00778923 -3.53434e-23)
(0.942957 -0.00760044 6.01367e-23)
(0.946694 -0.00740391 -4.15333e-24)
(0.95032 -0.00720197 6.187e-24)
(0.953893 -0.00698147 6.33625e-25)
(0.95731 -0.00675576 -1.78947e-23)
(0.960708 -0.0064982 3.45218e-23)
(0.963854 -0.00624673 -2.41305e-23)
(0.96708 -0.00593959 6.03573e-24)
(0.969855 -0.00567265 5.51923e-24)
(0.972963 -0.00530006 3.25814e-24)
(0.975187 -0.00504888 5.84867e-24)
(0.978354 -0.00458589 -3.94085e-24)
(0.979684 -0.00441213 1.71391e-24)
(0.983392 -0.0038182 -8.2713e-25)
(-0.194939 0.0347766 2.66604e-21)
(-0.198014 0.0228333 -2.25286e-20)
(-0.197256 0.00986005 4.08704e-20)
(-0.192208 -0.00401172 -4.16906e-20)
(-0.182635 -0.0186138 4.09737e-20)
(-0.168202 -0.0337007 -1.58779e-20)
(-0.148867 -0.0490302 -5.04727e-21)
(-0.124673 -0.06426 -4.03684e-20)
(-0.095492 -0.0793438 5.98236e-20)
(-0.061613 -0.0933541 -5.26418e-20)
(-0.0236683 -0.106278 3.573e-20)
(0.0181412 -0.117482 -6.74862e-21)
(0.0632492 -0.126684 -3.72912e-22)
(0.110574 -0.133484 -3.4669e-21)
(0.159378 -0.137849 -5.75691e-22)
(0.208761 -0.139752 3.49805e-21)
(0.257905 -0.139354 -2.26673e-21)
(0.306009 -0.136858 -8.82546e-22)
(0.352454 -0.132587 -3.82412e-22)
(0.396766 -0.126928 4.96539e-22)
(0.438608 -0.120275 -1.19695e-21)
(0.477779 -0.112998 2.28376e-21)
(0.514193 -0.105419 -1.78605e-21)
(0.547858 -0.0977991 -7.63825e-22)
(0.578853 -0.0903401 2.34769e-21)
(0.607305 -0.0831863 -2.38116e-21)
(0.633375 -0.0764364 1.71562e-21)
(0.657237 -0.0701465 -1.63045e-21)
(0.679065 -0.0643339 1.33434e-21)
(0.69903 -0.0589976 1.89021e-21)
(0.7173 -0.0541244 2.18146e-21)
(0.734033 -0.0496923 -3.59921e-21)
(0.749378 -0.0456735 -2.94869e-22)
(0.763473 -0.0420376 -3.31598e-22)
(0.776444 -0.0387537 2.09102e-21)
(0.788405 -0.0357911 -6.94759e-23)
(0.799459 -0.0331204 -1.22483e-21)
(0.809699 -0.0307139 1.8222e-21)
(0.819211 -0.0285456 -1.07626e-21)
(0.828069 -0.0265914 6.98165e-22)
(0.836341 -0.0248288 5.76008e-22)
(0.844088 -0.0232375 4.92349e-22)
(0.851361 -0.0217991 -1.2007e-21)
(0.85821 -0.0204976 3.27325e-22)
(0.864674 -0.0193188 3.95024e-22)
(0.870792 -0.0182504 -2.52502e-22)
(0.876598 -0.0172813 8.82684e-24)
(0.882122 -0.0164014 3.59345e-22)
(0.887391 -0.0156011 -5.41537e-22)
(0.89243 -0.0148718 5.80297e-22)
(0.897261 -0.0142057 6.99595e-23)
(0.901902 -0.0135962 -3.50293e-22)
(0.90637 -0.0130385 4.19434e-22)
(0.91068 -0.0125292 -2.26848e-22)
(0.914846 -0.0120661 -1.69021e-22)
(0.91888 -0.0116475 3.14395e-22)
(0.922798 -0.0112714 -5.97172e-23)
(0.926611 -0.0109352 8.64796e-23)
(0.930334 -0.0106341 6.17954e-23)
(0.933974 -0.0103628 -8.87408e-23)
(0.937545 -0.0101131 6.02568e-23)
(0.941046 -0.00987871 4.55237e-23)
(0.944492 -0.00964962 -4.75612e-23)
(0.947866 -0.00942192 -2.69252e-23)
(0.951193 -0.00918433 3.5701e-23)
(0.954426 -0.00893981 4.62312e-23)
(0.957624 -0.00867189 1.66517e-23)
(0.960684 -0.00839731 -1.36191e-23)
(0.96374 -0.00808279 -1.40354e-23)
(0.966569 -0.00777568 2.4102e-23)
(0.969488 -0.007399 7.24296e-24)
(0.971993 -0.00707192 -1.23868e-23)
(0.974824 -0.00661328 9.34992e-24)
(0.976837 -0.00630463 2.57821e-24)
(0.979745 -0.00573322 5.6336e-24)
(0.98095 -0.00551913 9.76513e-25)
(0.984372 -0.00478515 1.63916e-24)
(-0.086325 0.0237157 4.81637e-20)
(-0.0820614 0.008632 -5.82848e-20)
(-0.0742326 -0.00751898 7.51154e-21)
(-0.0625309 -0.0245236 2.54448e-20)
(-0.0466227 -0.0421282 -2.57731e-20)
(-0.0264287 -0.0600475 -3.76233e-20)
(-0.0021526 -0.077959 2.72855e-20)
(0.0265253 -0.0953268 3.04426e-20)
(0.0595 -0.111789 -7.37198e-21)
(0.095907 -0.126958 2.25341e-20)
(0.135471 -0.13995 -3.2271e-20)
(0.177708 -0.150636 -8.16876e-21)
(0.221689 -0.158608 2.06213e-20)
(0.266687 -0.16365 -5.98136e-21)
(0.311857 -0.165727 1.71104e-21)
(0.356456 -0.165032 -9.01869e-21)
(0.399796 -0.161851 5.79341e-21)
(0.441348 -0.15658 -2.13127e-21)
(0.480726 -0.149685 5.67588e-22)
(0.517678 -0.141641 -2.2134e-21)
(0.552075 -0.13289 1.0437e-21)
(0.583889 -0.123814 -5.21767e-22)
(0.613168 -0.11472 -6.23096e-22)
(0.640016 -0.105843 3.89908e-21)
(0.664575 -0.0973509 -9.39653e-22)
(0.687004 -0.0893515 -7.02968e-22)
(0.707478 -0.0819121 -6.03285e-22)
(0.726162 -0.075051 -1.41354e-21)
(0.743213 -0.0687633 2.57735e-22)
(0.758781 -0.0630302 -1.41082e-21)
(0.77301 -0.0578236 7.08251e-22)
(0.786032 -0.0531089 -7.79422e-22)
(0.79797 -0.0488489 2.24597e-21)
(0.808933 -0.045006 -2.37127e-21)
(0.819024 -0.0415432 1.77994e-21)
(0.828334 -0.0384252 -1.86781e-21)
(0.836945 -0.0356191 -4.19807e-22)
(0.844931 -0.033094 -1.64842e-21)
(0.852359 -0.030821 2.0929e-21)
(0.85929 -0.0287735 1.23995e-22)
(0.865775 -0.0269272 -4.14039e-22)
(0.871862 -0.0252602 -8.40063e-22)
(0.877591 -0.0237533 -1.421e-21)
(0.883 -0.0223898 7.58569e-23)
(0.888119 -0.021155 1.35307e-21)
(0.89298 -0.0200362 -7.46849e-22)
(0.897607 -0.0190216 -4.86294e-22)
(0.902025 -0.0181 5.23516e-22)
(0.906256 -0.0172613 3.94606e-24)
(0.910318 -0.0164961 -1.4624e-23)
(0.914227 -0.0157965 -3.38568e-22)
(0.917997 -0.0151565 -3.50476e-23)
(0.92164 -0.014572 1.8859e-22)
(0.925168 -0.0140402 -1.05975e-22)
(0.928591 -0.0135595 -5.97592e-23)
(0.93192 -0.0131278 2.43432e-23)
(0.935165 -0.0127423 -2.43663e-22)
(0.938339 -0.0123978 -7.81804e-23)
(0.941448 -0.0120883 1.14595e-22)
(0.944505 -0.0118043 7.5675e-23)
(0.947509 -0.0115383 -1.4113e-22)
(0.950473 -0.0112787 8.62665e-24)
(0.953381 -0.0110206 6.16639e-24)
(0.956258 -0.0107506 -7.8298e-23)
(0.95906 -0.0104724 -1.42762e-23)
(0.961842 -0.0101663 -7.13968e-24)
(0.964507 -0.00985223 -4.33057e-23)
(0.967184 -0.00949089 -4.40058e-24)
(0.96966 -0.00913805 -4.67241e-23)
(0.972235 -0.00870315 -1.9605e-24)
(0.974438 -0.00832595 -6.61026e-24)
(0.976958 -0.0077942 2.26653e-24)
(0.978734 -0.00743705 -2.31062e-23)
(0.981347 -0.00677251 -4.59843e-24)
(0.982412 -0.00652403 -2.29453e-24)
(0.985508 -0.00566914 -2.32941e-24)
(0.0293576 0.0229702 -4.14009e-20)
(0.0369642 0.0062427 5.20495e-20)
(0.0474384 -0.0117602 -3.4795e-20)
(0.0611083 -0.0307525 -7.96994e-21)
(0.0783219 -0.0504762 2.6355e-20)
(0.0991866 -0.0705975 3.31081e-20)
(0.123628 -0.0908006 -3.65095e-20)
(0.151672 -0.110132 -3.12053e-20)
(0.18331 -0.128711 5.89631e-20)
(0.217896 -0.145763 -5.04042e-20)
(0.254989 -0.160503 6.02257e-21)
(0.294094 -0.172538 3.22071e-20)
(0.334379 -0.181415 -4.98695e-21)
(0.375137 -0.186937 -1.68961e-20)
(0.415626 -0.189072 -1.85701e-21)
(0.455199 -0.188026 2.03347e-21)
(0.493297 -0.184147 2.73989e-21)
(0.529503 -0.177905 -3.00713e-21)
(0.563543 -0.169842 1.34893e-21)
(0.595261 -0.160505 1.45339e-21)
(0.624609 -0.150401 1.61584e-21)
(0.651618 -0.139962 -2.36099e-21)
(0.676376 -0.129538 5.75954e-23)
(0.699007 -0.11939 -5.45324e-21)
(0.719656 -0.109701 4.14728e-21)
(0.738477 -0.100589 3.19151e-21)
(0.755631 -0.0921255 -7.33212e-21)
(0.77127 -0.0843333 4.23704e-21)
(0.785528 -0.0772023 8.60838e-22)
(0.798533 -0.0707082 3.40239e-21)
(0.810404 -0.0648167 -5.26851e-22)
(0.821253 -0.0594873 2.23785e-22)
(0.831184 -0.0546769 8.18536e-22)
(0.840289 -0.0503415 -1.38909e-21)
(0.848655 -0.0464387 -1.4609e-22)
(0.856358 -0.0429282 2.69111e-22)
(0.863468 -0.0397722 -1.1561e-21)
(0.87005 -0.0369355 1.60604e-21)
(0.876161 -0.0343853 -1.65914e-21)
(0.881853 -0.0320912 2.34458e-21)
(0.887172 -0.0300251 -1.42709e-21)
(0.892158 -0.0281621 1.47128e-21)
(0.896847 -0.0264798 -5.88407e-22)
(0.90127 -0.0249591 -8.56458e-23)
(0.905454 -0.0235834 -2.28769e-22)
(0.909426 -0.0223383 -3.90423e-22)
(0.913206 -0.0212107 9.01735e-22)
(0.916816 -0.0201881 4.03816e-22)
(0.920275 -0.019259 -1.07962e-21)
(0.9236 -0.0184126 6.92823e-23)
(0.926803 -0.0176396 7.64542e-24)
(0.929898 -0.0169328 5.28166e-22)
(0.932893 -0.0162871 2.93579e-23)
(0.935797 -0.0156996 2.87434e-22)
(0.938619 -0.0151683 -2.86972e-22)
(0.941368 -0.0146913 -1.37831e-23)
(0.94405 -0.0142659 2.78942e-22)
(0.946678 -0.0138866 -2.61031e-22)
(0.949255 -0.0135469 2.30401e-22)
(0.951795 -0.0132365 -3.46977e-23)
(0.954295 -0.0129467 -4.50853e-24)
(0.95677 -0.0126643 1.12503e-22)
(0.959203 -0.0123838 -1.70928e-22)
(0.96162 -0.0120899 -1.54967e-25)
(0.963977 -0.0117865 2.56042e-23)
(0.966329 -0.0114514 4.71449e-23)
(0.968585 -0.0111073 1.14957e-23)
(0.970866 -0.0107094 2.13556e-24)
(0.972974 -0.0103209 3.00332e-24)
(0.975188 -0.00983947 2.65779e-24)
(0.977074 -0.0094225 2.22134e-23)
(0.979265 -0.00883118 2.47236e-24)
(0.980792 -0.00843492 1.88505e-24)
(0.98309 -0.00769349 -3.05818e-25)
(0.984007 -0.00741689 4.51202e-24)
(0.986754 -0.00646153 1.1756e-24)
(0.145143 0.0207603 5.83291e-20)
(0.155908 0.00292863 -6.24778e-20)
(0.168905 -0.0164986 5.4833e-20)
(0.184444 -0.0370874 -6.47664e-20)
(0.202875 -0.0585346 3.73739e-20)
(0.224337 -0.0804635 5.20865e-20)
(0.248785 -0.102483 -7.2662e-20)
(0.276188 -0.123843 8.03455e-20)
(0.306472 -0.144187 -5.67643e-20)
(0.339085 -0.162821 -1.91499e-20)
(0.373521 -0.178943 9.13066e-21)
(0.409242 -0.192041 3.49682e-20)
(0.445509 -0.201625 -2.77128e-20)
(0.481656 -0.207466 2.35013e-20)
(0.517054 -0.209547 -2.30919e-21)
(0.551181 -0.208101 4.33195e-22)
(0.583626 -0.203531 -4.21666e-21)
(0.614111 -0.196376 1.02531e-21)
(0.642489 -0.187245 -8.08679e-22)
(0.668717 -0.176751 -1.62121e-22)
(0.692831 -0.165452 -2.21272e-21)
(0.714923 -0.153824 2.17569e-21)
(0.735114 -0.142246 -3.9068e-21)
(0.753543 -0.131001 -1.19816e-22)
(0.770354 -0.120285 3.80434e-21)
(0.785683 -0.110218 2.53213e-21)
(0.799666 -0.100873 -3.35949e-21)
(0.812433 -0.0922775 3.18449e-21)
(0.824093 -0.0844189 3.75663e-21)
(0.834741 -0.0772668 -8.59177e-21)
(0.844469 -0.0707818 3.75101e-21)
(0.853364 -0.0649186 2.03624e-21)
(0.861504 -0.0596289 1.52075e-21)
(0.868964 -0.0548642 -6.87185e-21)
(0.875811 -0.0505773 4.00862e-21)
(0.882107 -0.0467238 3.94071e-22)
(0.887908 -0.0432621 -1.77041e-21)
(0.893267 -0.0401534 -1.19723e-21)
(0.898232 -0.0373616 2.00274e-21)
(0.902846 -0.0348533 -4.39367e-22)
(0.907149 -0.0325972 1.36837e-21)
(0.911175 -0.0305653 -1.80816e-21)
(0.914954 -0.0287325 9.50119e-22)
(0.918513 -0.0270775 -2.23107e-23)
(0.921875 -0.0255817 -9.8552e-22)
(0.925062 -0.0242295 1.55055e-21)
(0.928091 -0.0230064 -1.01182e-21)
(0.930982 -0.0218992 1.13283e-21)
(0.93375 -0.0208951 -1.16169e-21)
(0.936411 -0.019982 6.20678e-22)
(0.938976 -0.0191492 3.31938e-22)
(0.941456 -0.0183883 1.35569e-22)
(0.943858 -0.0176933 -2.55984e-22)
(0.946189 -0.0170606 1.09573e-22)
(0.948456 -0.0164882 -1.41735e-22)
(0.950665 -0.0159744 -2.99722e-22)
(0.952822 -0.0155165 1.35559e-22)
(0.954936 -0.0151091 2.58194e-23)
(0.957012 -0.0147457 6.77502e-23)
(0.95906 -0.014415 1.58967e-22)
(0.96108 -0.0141078 -1.88921e-22)
(0.963084 -0.0138091 1.17535e-22)
(0.965058 -0.0135131 2.00631e-22)
(0.967027 -0.0132025 -5.88288e-23)
(0.968951 -0.0128817 -2.02114e-23)
(0.970882 -0.0125259 4.92533e-23)
(0.972734 -0.0121603 -8.02323e-24)
(0.974623 -0.0117355 1.01466e-23)
(0.976367 -0.0113209 4.98272e-23)
(0.978222 -0.0108043 -2.36042e-23)
(0.97979 -0.0103575 3.28084e-23)
(0.98165 -0.00972001 1.11094e-23)
(0.982927 -0.00929383 1.79986e-24)
(0.984906 -0.00849173 6.81836e-24)
(0.985673 -0.00819319 -5.68026e-25)
(0.988061 -0.00715795 1.73914e-24)
(0.2591 0.0172011 -1.48085e-19)
(0.272738 -0.00131498 -2.84748e-20)
(0.288055 -0.0216965 9.86886e-20)
(0.305365 -0.0434705 -2.39305e-20)
(0.324963 -0.0662758 5.85864e-20)
(0.346987 -0.0896933 -4.54009e-20)
(0.371402 -0.113235 3.5417e-21)
(0.398119 -0.136169 3.09097e-20)
(0.426969 -0.157967 -8.90319e-21)
(0.457449 -0.177885 -2.91799e-20)
(0.48901 -0.195098 3.15296e-20)
(0.521085 -0.208991 4.88703e-22)
(0.553007 -0.219053 -6.2801e-21)
(0.584183 -0.225039 1.28004e-21)
(0.614114 -0.226958 1.59055e-20)
(0.642431 -0.225074 -9.62276e-21)
(0.668892 -0.219842 -6.58067e-21)
(0.693377 -0.21186 1.74234e-21)
(0.715878 -0.201798 3.14334e-21)
(0.736471 -0.190316 -5.51807e-22)
(0.755278 -0.178017 -1.01785e-21)
(0.772446 -0.165405 2.81311e-21)
(0.788124 -0.152882 4.57978e-22)
(0.802456 -0.14074 -6.06895e-21)
(0.815574 -0.129184 4.00971e-21)
(0.827588 -0.118337 5.14181e-22)
(0.838602 -0.108266 -6.72772e-22)
(0.848714 -0.0990045 -2.67094e-21)
(0.858002 -0.0905387 6.52693e-21)
(0.866528 -0.0828342 1.48434e-23)
(0.87435 -0.0758475 2.5479e-22)
(0.881526 -0.0695298 -4.08138e-21)
(0.88811 -0.0638296 -3.70595e-21)
(0.894152 -0.0586949 1.76103e-21)
(0.899702 -0.0540754 -1.96503e-21)
(0.904804 -0.0499235 3.92017e-21)
(0.909502 -0.0461948 -1.25538e-21)
(0.913835 -0.0428482 2.7213e-21)
(0.917841 -0.039845 -3.04903e-21)
(0.921556 -0.0371492 1.04601e-22)
(0.925012 -0.0347271 1.66126e-21)
(0.928238 -0.0325481 -5.50282e-22)
(0.931258 -0.0305847 3.09007e-22)
(0.934096 -0.0288132 -7.87067e-22)
(0.936769 -0.0272135 -4.53892e-22)
(0.939296 -0.0257687 1.55939e-21)
(0.941693 -0.0244636 -1.13275e-21)
(0.943975 -0.023284 1.87096e-22)
(0.946156 -0.0222162 1.38007e-23)
(0.948249 -0.0212472 4.21568e-22)
(0.950265 -0.0203648 2.0967e-22)
(0.952213 -0.0195594 -4.20181e-22)
(0.9541 -0.0188239 -2.60042e-22)
(0.95593 -0.018154 2.58512e-22)
(0.957709 -0.0175476 -1.43394e-22)
(0.959442 -0.0170029 5.00257e-23)
(0.961132 -0.0165179 4.35854e-22)
(0.962787 -0.0160873 -2.99497e-22)
(0.964411 -0.0157045 -1.54806e-22)
(0.966014 -0.0153579 4.3056e-23)
(0.967595 -0.0150376 -5.80478e-23)
(0.969167 -0.0147275 -1.40501e-22)
(0.970718 -0.0144211 6.72137e-23)
(0.972271 -0.0140995 1.1636e-22)
(0.973791 -0.0137675 -1.07947e-22)
(0.975326 -0.0133981 -1.46865e-24)
(0.976799 -0.0130185 -6.76786e-23)
(0.978317 -0.0125753 3.5e-23)
(0.979713 -0.0121433 -3.73279e-23)
(0.981223 -0.0116017 -3.32784e-23)
(0.982489 -0.0111343 9.4086e-24)
(0.984028 -0.010463 -6.84593e-24)
(0.985064 -0.0100154 -1.35341e-23)
(0.98673 -0.00916803 -1.74883e-25)
(0.987353 -0.00885338 -7.88338e-24)
(0.989389 -0.00775796 8.67212e-25)
(0.371159 0.0124544 -6.224e-21)
(0.387217 -0.00640403 -1.44539e-19)
(0.404546 -0.0273213 1.06805e-19)
(0.423372 -0.0498809 6.58827e-20)
(0.443941 -0.0736582 -7.3015e-20)
(0.466362 -0.0981751 -2.85362e-20)
(0.490578 -0.122873 -6.66588e-20)
(0.516424 -0.147029 1.32786e-19)
(0.543629 -0.169952 -2.58811e-20)
(0.571698 -0.190831 -3.40571e-20)
(0.600059 -0.208813 1.35797e-20)
(0.628137 -0.223218 1.48514e-22)
(0.655342 -0.233526 -1.04785e-20)
(0.681182 -0.239491 1.06936e-20)
(0.705306 -0.241154 -3.59298e-22)
(0.727522 -0.238818 -6.02055e-21)
(0.747771 -0.232983 6.69362e-21)
(0.766103 -0.224297 -4.62532e-21)
(0.782655 -0.213473 -1.4747e-21)
(0.797615 -0.20121 1.92097e-21)
(0.811183 -0.188135 -3.72807e-22)
(0.823551 -0.174771 -2.1311e-21)
(0.834885 -0.16153 3.78375e-21)
(0.845322 -0.14871 -3.47867e-21)
(0.85497 -0.136515 -2.27656e-21)
(0.863909 -0.125071 3.84611e-21)
(0.872201 -0.114437 -2.14649e-21)
(0.879905 -0.104648 6.63246e-22)
(0.887066 -0.0956954 4.99386e-21)
(0.893711 -0.0875427 -2.72705e-22)
(0.899865 -0.0801437 -3.75065e-21)
(0.905552 -0.0734478 9.42634e-22)
(0.910801 -0.0674018 1.7607e-22)
(0.915641 -0.0619524 1.1583e-21)
(0.920101 -0.0570472 -6.18981e-21)
(0.92421 -0.0526368 3.6729e-21)
(0.927995 -0.0486754 -2.60435e-22)
(0.931486 -0.0451199 -2.70343e-21)
(0.93471 -0.0419304 1.51909e-21)
(0.937694 -0.039069 -1.84024e-21)
(0.940463 -0.0365003 2.32333e-21)
(0.943042 -0.0341914 -7.50792e-22)
(0.945449 -0.0321126 1.17329e-21)
(0.947704 -0.0302384 -1.23152e-21)
(0.949821 -0.028547 -4.27552e-22)
(0.951815 -0.0270204 2.20061e-23)
(0.953699 -0.0256427 9.73791e-22)
(0.955485 -0.0243993 -2.53476e-22)
(0.957186 -0.0232757 2.64142e-22)
(0.958814 -0.022258 -2.8237e-22)
(0.960376 -0.0213331 -5.92983e-22)
(0.961883 -0.0204897 4.69751e-22)
(0.96334 -0.0197199 -4.70949e-22)
(0.964751 -0.0190183 3.16205e-22)
(0.966118 -0.0183826 8.74339e-23)
(0.967447 -0.0178111 -2.8311e-22)
(0.968738 -0.0173023 -4.25053e-22)
(0.97 -0.0168511 -9.13718e-23)
(0.971234 -0.0164514 4.425e-22)
(0.97245 -0.0160911 -8.19832e-23)
(0.973647 -0.0157603 -1.09696e-23)
(0.974838 -0.0154416 6.10342e-23)
(0.976013 -0.0151283 7.84848e-24)
(0.977194 -0.0147997 -2.14376e-22)
(0.97835 -0.0144613 1.53108e-23)
(0.979527 -0.0140838 8.57749e-23)
(0.980655 -0.0136962 -8.58656e-23)
(0.981834 -0.0132418 6.42719e-23)
(0.982912 -0.0127993 5.37519e-23)
(0.984104 -0.0122418 -1.10242e-23)
(0.985089 -0.0117615 -2.35651e-23)
(0.986329 -0.0110676 -4.83746e-24)
(0.987141 -0.0106061 -7.50631e-24)
(0.988511 -0.00972749 1.72531e-24)
(0.989 -0.00940199 6.11311e-25)
(0.990698 -0.00826444 -2.65923e-24)
(0.48285 0.0069649 4.8688e-20)
(0.500445 -0.0119613 -2.1434e-20)
(0.519095 -0.033161 9.57379e-20)
(0.538908 -0.0562057 -3.12138e-21)
(0.560012 -0.0806152 -1.12252e-19)
(0.582421 -0.105855 -7.30595e-20)
(0.606003 -0.131322 6.39682e-20)
(0.63052 -0.156277 -3.40572e-21)
(0.655634 -0.179935 4.14836e-20)
(0.680828 -0.201442 -7.37227e-20)
(0.705518 -0.219888 3.19271e-20)
(0.729153 -0.234541 7.65526e-21)
(0.751232 -0.244884 1.52825e-20)
(0.771387 -0.25069 2.25777e-20)
(0.789432 -0.252039 -1.17193e-20)
(0.805366 -0.249275 -2.27017e-21)
(0.819318 -0.242937 -6.83088e-22)
(0.831508 -0.233708 9.85984e-21)
(0.842206 -0.222329 -1.4274e-21)
(0.851702 -0.20952 -1.88638e-21)
(0.860258 -0.195918 -7.82482e-22)
(0.868091 -0.182052 -1.2056e-21)
(0.875369 -0.168331 2.91319e-21)
(0.882209 -0.155055 -3.1077e-21)
(0.888687 -0.142425 3.55195e-21)
(0.894845 -0.130563 -3.78528e-21)
(0.9007 -0.11953 3.24719e-21)
(0.906265 -0.109349 -4.18504e-21)
(0.911552 -0.100024 5.52219e-21)
(0.916555 -0.0915218 -2.56406e-21)
(0.921264 -0.0837941 3.98512e-21)
(0.925676 -0.0767905 -5.15975e-21)
(0.929793 -0.0704582 4.43146e-21)
(0.933621 -0.0647439 -1.97876e-21)
(0.937172 -0.0595949 -1.0962e-21)
(0.940458 -0.0549614 -5.81853e-22)
(0.943495 -0.0507967 3.05681e-21)
(0.9463 -0.0470573 -2.91382e-22)
(0.948891 -0.0437025 -3.25372e-21)
(0.951287 -0.0406935 3.72177e-21)
(0.953508 -0.0379936 -1.68171e-21)
(0.95557 -0.0355683 1.98477e-21)
(0.957491 -0.0333862 -2.4731e-21)
(0.959283 -0.0314198 2.83272e-21)
(0.960961 -0.0296459 -1.07334e-21)
(0.962534 -0.0280453 -9.82816e-22)
(0.964012 -0.0266018 1.20453e-21)
(0.965406 -0.0253002 -1.41722e-21)
(0.966726 -0.024126 7.41743e-22)
(0.967982 -0.0230643 2.53249e-22)
(0.969183 -0.0221011 3.68749e-22)
(0.970335 -0.0212239 -5.51181e-22)
(0.971444 -0.0204235 3.00035e-22)
(0.972514 -0.0196937 1.27732e-22)
(0.973545 -0.0190316 -1.09592e-22)
(0.974543 -0.0184356 -2.33877e-22)
(0.975506 -0.0179045 -1.47105e-22)
(0.976442 -0.0174339 3.49561e-22)
(0.97735 -0.017018 1.62021e-22)
(0.978241 -0.0166448 -3.72916e-22)
(0.979113 -0.0163043 5.35077e-23)
(0.979979 -0.0159783 5.65095e-23)
(0.980831 -0.0156598 -9.98533e-23)
(0.981691 -0.0153268 1.67331e-23)
(0.98253 -0.014985 8.17383e-23)
(0.983393 -0.0146033 -4.57485e-23)
(0.984218 -0.0142121 -4.37687e-23)
(0.985095 -0.0137521 6.35444e-23)
(0.98589 -0.013305 2.67267e-23)
(0.986797 -0.0127388 -3.63511e-23)
(0.987531 -0.0122523 -4.12101e-25)
(0.988499 -0.0115452 1.60808e-23)
(0.989109 -0.0110762 -5.72182e-24)
(0.990207 -0.0101785 -8.44344e-25)
(0.990574 -0.00984662 5.20983e-24)
(0.991959 -0.00868288 -7.11265e-25)
(0.613961 -0.0175617 -4.36383e-20)
(0.632806 -0.0388345 -5.42895e-21)
(0.652657 -0.0621037 -3.61324e-20)
(0.673473 -0.0868532 1.4912e-19)
(0.695122 -0.112499 -1.19037e-19)
(0.717358 -0.138386 -5.94875e-20)
(0.739842 -0.163735 1.6823e-20)
(0.762159 -0.187721 5.16355e-20)
(0.783808 -0.209471 2.54913e-20)
(0.804243 -0.228084 5.16463e-20)
(0.822947 -0.24277 -1.19778e-19)