/*--------------------------------*- C++ -*----------------------------------*\
  =========                 |
  \\      /  F ield         | OpenFOAM: The Open Source CFD Toolbox
   \\    /   O peration     | Website:  https://openfoam.org
    \\  /    A nd           | Version:  7
     \\/     M anipulation  |
\*---------------------------------------------------------------------------*/
FoamFile
{
    version     2.0;
    format      ascii;
    class       volScalarField;
    location    "60";
    object      p;
}
// * * * * * * * * * * * * * * * * * * * * * * * * * * * * * * * * * * * * * //

dimensions      [0 2 -2 0 0 0 0];

internalField   nonuniform List<scalar> 
3700
(
-0.24797
-0.246272
-0.244373
-0.242297
-0.240044
-0.237619
-0.235026
-0.232267
-0.229351
-0.226286
-0.22307
-0.219708
-0.216203
-0.212556
-0.208772
-0.204854
-0.200806
-0.196631
-0.192335
-0.187921
-0.183376
-0.178771
-0.17406
-0.169257
-0.164374
-0.159419
-0.154403
-0.149338
-0.144233
-0.139101
-0.133954
-0.128803
-0.123661
-0.118542
-0.113457
-0.108418
-0.103438
-0.0985269
-0.0936972
-0.0889587
-0.0843211
-0.0797926
-0.0753811
-0.0710925
-0.0669322
-0.0629047
-0.0590135
-0.0552613
-0.0516496
-0.0481792
-0.0448483
-0.0416628
-0.038615
-0.035705
-0.0329305
-0.0302888
-0.027777
-0.0253911
-0.0231236
-0.0209873
-0.0189623
-0.0170484
-0.0152425
-0.013541
-0.0119402
-0.0104369
-0.0090271
-0.00770905
-0.00647624
-0.00533433
-0.00426554
-0.00329952
-0.00236613
-0.00161728
-0.000714951
-0.000413953
0.000951228
-0.248055
-0.246344
-0.244432
-0.242344
-0.240079
-0.237643
-0.235041
-0.232276
-0.22935
-0.226281
-0.223065
-0.219708
-0.216212
-0.212578
-0.208812
-0.204915
-0.200893
-0.196749
-0.192487
-0.188115
-0.183656
-0.179045
-0.174348
-0.169564
-0.164699
-0.159758
-0.154753
-0.149693
-0.144589
-0.139451
-0.134291
-0.129123
-0.123956
-0.118807
-0.113688
-0.108611
-0.10359
-0.0986371
-0.093764
-0.088982
-0.0843019
-0.0797328
-0.0752835
-0.0709609
-0.0667713
-0.0627195
-0.0588094
-0.055044
-0.0514248
-0.0479526
-0.0446267
-0.0414488
-0.0384147
-0.0355226
-0.0327697
-0.030153
-0.0276687
-0.0253135
-0.0230873
-0.0209689
-0.0189707
-0.0170846
-0.0153054
-0.0136289
-0.0120506
-0.010567
-0.00917366
-0.00786852
-0.00664583
-0.0055081
-0.00443933
-0.00346926
-0.00252574
-0.00176191
-0.000835821
-0.000500166
0.000893865
-0.248235
-0.246508
-0.244582
-0.24248
-0.240202
-0.237756
-0.235142
-0.232368
-0.229448
-0.226379
-0.223171
-0.219822
-0.216337
-0.212719
-0.20897
-0.205095
-0.201096
-0.196977
-0.19274
-0.188392
-0.18394
-0.179374
-0.174711
-0.169955
-0.165112
-0.160189
-0.155196
-0.150142
-0.145037
-0.139891
-0.134718
-0.129529
-0.124336
-0.119157
-0.114001
-0.108885
-0.103822
-0.098824
-0.093906
-0.0890793
-0.0843555
-0.079745
-0.0752571
-0.0708997
-0.0666797
-0.0626024
-0.0586721
-0.0548919
-0.0512636
-0.0477878
-0.044464
-0.0412923
-0.0382694
-0.0353926
-0.0326587
-0.0300637
-0.0276035
-0.0252737
-0.0230706
-0.0209835
-0.019013
-0.0171531
-0.0153985
-0.0137445
-0.0121863
-0.01072
-0.00934059
-0.00804614
-0.00683029
-0.00569632
-0.004626
-0.00365076
-0.00269521
-0.00191545
-0.000965224
-0.000589905
0.000816778
-0.248493
-0.24675
-0.244811
-0.242696
-0.240409
-0.237954
-0.235335
-0.232557
-0.229632
-0.226559
-0.223351
-0.22001
-0.216537
-0.212935
-0.209205
-0.205353
-0.20138
-0.197289
-0.193083
-0.188766
-0.184341
-0.179805
-0.175168
-0.170434
-0.165612
-0.160702
-0.15572
-0.150669
-0.145562
-0.140408
-0.135219
-0.130011
-0.124789
-0.119579
-0.114387
-0.109231
-0.104126
-0.0990818
-0.0941196
-0.0892484
-0.0844812
-0.0798292
-0.0753027
-0.0709104
-0.0666597
-0.0625564
-0.0586053
-0.0548095
-0.0511708
-0.04769
-0.0443666
-0.0411994
-0.0381856
-0.0353218
-0.0326043
-0.0300285
-0.0275896
-0.0252824
-0.0231019
-0.02104
-0.0190933
-0.0172562
-0.015523
-0.0138885
-0.0123475
-0.0108956
-0.00952754
-0.00824136
-0.0070297
-0.00589687
-0.00482258
-0.00384048
-0.00287085
-0.00207399
-0.00109944
-0.000680457
0.000723928
-0.248803
-0.247046
-0.245096
-0.242972
-0.240677
-0.238213
-0.235581
-0.2328
-0.229878
-0.226816
-0.223618
-0.220286
-0.216825
-0.213238
-0.209527
-0.205696
-0.201747
-0.197683
-0.193504
-0.189214
-0.184816
-0.180307
-0.175695
-0.170983
-0.166178
-0.161282
-0.156308
-0.15126
-0.146149
-0.140985
-0.135782
-0.130558
-0.125294
-0.120058
-0.114832
-0.109637
-0.10449
-0.0994046
-0.094398
-0.0894833
-0.0846738
-0.0799818
-0.0754181
-0.070992
-0.0667115
-0.0625829
-0.0586112
-0.0547997
-0.0511504
-0.0476637
-0.0443391
-0.041175
-0.0381683
-0.0353152
-0.0326115
-0.0300519
-0.0276311
-0.0253432
-0.0231823
-0.0211411
-0.0192144
-0.0173962
-0.0156806
-0.0140618
-0.0125342
-0.0110933
-0.00973335
-0.00845231
-0.00724178
-0.00610732
-0.00502641
-0.00403542
-0.00304971
-0.00223423
-0.00123562
-0.000769733
0.000619688
-0.247367
-0.245412
-0.243284
-0.240986
-0.238524
-0.235904
-0.233131
-0.230197
-0.227132
-0.223938
-0.220617
-0.217169
-0.213599
-0.209909
-0.206101
-0.202176
-0.198137
-0.193985
-0.189721
-0.185348
-0.180865
-0.176277
-0.171585
-0.166804
-0.1619
-0.156939
-0.151893
-0.146778
-0.141605
-0.136385
-0.131134
-0.125859
-0.120587
-0.115326
-0.110094
-0.104907
-0.099781
-0.0947333
-0.0897779
-0.084929
-0.0801995
-0.0756009
-0.0711433
-0.0668349
-0.0626825
-0.0586913
-0.0548648
-0.0512048
-0.0477119
-0.0443852
-0.0412227
-0.0382212
-0.0353764
-0.0326836
-0.030137
-0.0277308
-0.0254585
-0.0233135
-0.0212886
-0.0193777
-0.0175743
-0.0158719
-0.0142647
-0.0127465
-0.0113127
-0.00995697
-0.0086775
-0.00746489
-0.00632585
-0.00523556
-0.00423337
-0.00322965
-0.00239373
-0.0013719
-0.00085633
0.000508431
-0.247682
-0.245729
-0.243602
-0.241306
-0.238837
-0.236179
-0.233436
-0.230527
-0.227479
-0.224298
-0.22099
-0.217558
-0.21401
-0.210328
-0.206544
-0.202643
-0.19863
-0.194503
-0.190265
-0.185916
-0.181456
-0.176888
-0.172213
-0.167439
-0.162564
-0.157603
-0.152556
-0.147436
-0.142253
-0.137018
-0.131747
-0.126449
-0.121148
-0.115856
-0.110589
-0.105367
-0.100204
-0.0951189
-0.0901267
-0.0852422
-0.0804789
-0.075849
-0.0713628
-0.0670292
-0.0628552
-0.0588462
-0.0550057
-0.0513356
-0.0478363
-0.0445068
-0.0413447
-0.0383466
-0.0355077
-0.0328229
-0.0302861
-0.0278908
-0.0256301
-0.023497
-0.021484
-0.0195843
-0.017791
-0.0160974
-0.0144973
-0.0129842
-0.0115532
-0.0101978
-0.00891618
-0.00769806
-0.0065513
-0.0054488
-0.00443288
-0.00340947
-0.00255094
-0.00150727
-0.000939513
0.000394176
-0.247958
-0.246013
-0.243897
-0.241613
-0.239164
-0.236587
-0.233791
-0.230877
-0.227837
-0.224668
-0.221375
-0.21796
-0.214426
-0.210776
-0.207012
-0.203134
-0.199144
-0.195041
-0.190827
-0.1865
-0.182062
-0.177514
-0.172857
-0.168095
-0.16323
-0.158273
-0.153228
-0.148104
-0.142912
-0.137665
-0.132376
-0.127058
-0.121731
-0.116411
-0.111115
-0.105861
-0.100667
-0.0955492
-0.090525
-0.0856096
-0.080817
-0.0761598
-0.0716489
-0.0672934
-0.0631006
-0.0590758
-0.0552228
-0.0515434
-0.0480378
-0.0447049
-0.041542
-0.0385454
-0.0357101
-0.0330304
-0.0304999
-0.0281117
-0.0258586
-0.0237331
-0.0217274
-0.0198343
-0.0180466
-0.0163572
-0.0147595
-0.013247
-0.0118147
-0.0104555
-0.00916785
-0.00794073
-0.00678302
-0.00566555
-0.00463324
-0.00358869
-0.00270514
-0.00164136
-0.00101917
0.00028032
-0.248156
-0.24623
-0.244133
-0.241866
-0.239419
-0.236827
-0.234081
-0.231197
-0.228177
-0.225027
-0.221752
-0.218357
-0.214845
-0.211215
-0.207473
-0.203619
-0.199653
-0.195574
-0.191383
-0.187079
-0.182662
-0.178132
-0.173491
-0.168743
-0.163887
-0.158936
-0.153893
-0.148767
-0.143569
-0.138311
-0.133008
-0.127674
-0.122327
-0.116985
-0.111664
-0.106384
-0.101163
-0.0960192
-0.0909687
-0.0860278
-0.0812111
-0.0765315
-0.0720001
-0.0676263
-0.0634176
-0.0593795
-0.0555156
-0.0518278
-0.0483161
-0.0449793
-0.0418145
-0.0388175
-0.0359833
-0.0333057
-0.0307782
-0.0283934
-0.0261438
-0.0240214
-0.0220185
-0.0201274
-0.0183404
-0.0166505
-0.0150508
-0.0135346
-0.0120966
-0.0107295
-0.00943219
-0.00819264
-0.00702077
-0.0058857
-0.00483427
-0.00376743
-0.00285626
-0.00177421
-0.00109567
0.000169483
-0.248236
-0.246343
-0.244277
-0.242041
-0.239624
-0.237061
-0.234333
-0.231468
-0.22847
-0.225343
-0.222092
-0.21872
-0.215231
-0.211625
-0.207908
-0.204078
-0.200136
-0.196081
-0.191913
-0.187631
-0.183234
-0.178723
-0.174099
-0.169363
-0.16452
-0.159575
-0.154536
-0.149411
-0.14421
-0.138946
-0.133634
-0.128288
-0.122927
-0.117568
-0.112229
-0.10693
-0.101689
-0.0965249
-0.0914544
-0.0864941
-0.0816589
-0.0769619
-0.0724146
-0.0680265
-0.0638051
-0.0597561
-0.0558831
-0.0521877
-0.0486702
-0.0453289
-0.0421608
-0.0391616
-0.036326
-0.0336477
-0.0311197
-0.0287344
-0.0264841
-0.0243607
-0.022356
-0.0204622
-0.0186716
-0.0169766
-0.0153704
-0.0138461
-0.0123983
-0.0110197
-0.00970892
-0.0084537
-0.00726454
-0.00610948
-0.0050362
-0.00394619
-0.00300469
-0.00190606
-0.00116972
6.34932e-05
-0.248149
-0.246308
-0.244287
-0.242092
-0.239709
-0.237155
-0.234471
-0.231646
-0.228682
-0.225586
-0.222364
-0.21902
-0.215558
-0.211979
-0.208288
-0.204485
-0.200568
-0.196538
-0.192394
-0.188135
-0.183759
-0.179268
-0.174661
-0.169941
-0.16511
-0.160176
-0.155144
-0.150023
-0.144824
-0.139559
-0.134243
-0.128892
-0.123523
-0.118154
-0.112805
-0.107494
-0.10224
-0.0970629
-0.0919793
-0.087006
-0.0821582
-0.0774492
-0.0728907
-0.0684922
-0.0642614
-0.0602039
-0.0563233
-0.0526213
-0.049098
-0.0457516
-0.0425789
-0.0395756
-0.0367361
-0.0340539
-0.031522
-0.0291325
-0.0268775
-0.0247488
-0.022738
-0.0208372
-0.0190383
-0.017334
-0.0157171
-0.0141806
-0.0127192
-0.0113253
-0.00999776
-0.00872385
-0.00751445
-0.00633725
-0.00523944
-0.00412559
-0.00315114
-0.00203716
-0.00124215
-3.65302e-05
-0.246072
-0.244114
-0.241979
-0.239657
-0.237136
-0.234487
-0.231702
-0.228779
-0.225723
-0.222537
-0.219226
-0.215797
-0.21225
-0.208589
-0.204814
-0.200926
-0.196923
-0.192805
-0.18857
-0.184218
-0.179748
-0.175161
-0.17046
-0.165645
-0.160724
-0.155704
-0.150593
-0.145401
-0.140142
-0.134829
-0.129479
-0.12411
-0.118739
-0.113387
-0.108072
-0.102813
-0.0976304
-0.0925407
-0.0875611
-0.0827067
-0.0779912
-0.0734261
-0.0690211
-0.064784
-0.0607203
-0.0568337
-0.0531258
-0.0495966
-0.0462443
-0.0430656
-0.0400562
-0.0372103
-0.0345213
-0.031982
-0.0295847
-0.0273211
-0.025183
-0.023162
-0.0212499
-0.0194388
-0.017721
-0.0160894
-0.014537
-0.0130584
-0.0116459
-0.0102983
-0.00900302
-0.00777061
-0.00656939
-0.00544451
-0.00430627
-0.00329644
-0.0021677
-0.00131376
-0.000130024
-0.24557
-0.2437
-0.241636
-0.239363
-0.236834
-0.234287
-0.23158
-0.228719
-0.225715
-0.222575
-0.219307
-0.215917
-0.212407
-0.208782
-0.205042
-0.201185
-0.197213
-0.193124
-0.188917
-0.184592
-0.180147
-0.175584
-0.170905
-0.166111
-0.161209
-0.156206
-0.151111
-0.145933
-0.140686
-0.135384
-0.130044
-0.124682
-0.119318
-0.113971
-0.108661
-0.103405
-0.0982244
-0.0931359
-0.0881566
-0.0833017
-0.0785849
-0.0740178
-0.0696101
-0.0653696
-0.0613019
-0.0574105
-0.0536973
-0.050162
-0.046803
-0.043617
-0.0405994
-0.0377445
-0.0350459
-0.032496
-0.0300873
-0.0278114
-0.0256602
-0.0236249
-0.0216978
-0.0198704
-0.0181355
-0.0164856
-0.0149138
-0.0134147
-0.0119806
-0.0106102
-0.009291
-0.00803303
-0.00680617
-0.00565185
-0.00448871
-0.00344138
-0.00229775
-0.0013852
-0.000216812
-0.24473
-0.242981
-0.241026
-0.238879
-0.236512
-0.233868
-0.231226
-0.228453
-0.225522
-0.222444
-0.21923
-0.215888
-0.212423
-0.208841
-0.205141
-0.201323
-0.197387
-0.193332
-0.189159
-0.184865
-0.18045
-0.175916
-0.171264
-0.166497
-0.161621
-0.156642
-0.151569
-0.146413
-0.141187
-0.135904
-0.130582
-0.125237
-0.119888
-0.114555
-0.109257
-0.104013
-0.098842
-0.0937618
-0.0887893
-0.0839398
-0.0792268
-0.074662
-0.0702552
-0.066014
-0.0619442
-0.0580493
-0.0543311
-0.0507895
-0.0474229
-0.0442279
-0.0412002
-0.038334
-0.0356229
-0.0330595
-0.0306361
-0.0283445
-0.0261765
-0.0241235
-0.0221776
-0.0203306
-0.0185751
-0.0169036
-0.0153094
-0.0137868
-0.0123284
-0.0109326
-0.00958743
-0.00830161
-0.00704771
-0.00586185
-0.0046732
-0.00358666
-0.00242727
-0.00145691
-0.000296964
-0.24348
-0.24189
-0.240066
-0.238026
-0.235746
-0.233229
-0.230637
-0.227949
-0.225108
-0.222109
-0.218963
-0.215681
-0.212272
-0.208742
-0.205091
-0.201319
-0.197426
-0.193413
-0.189279
-0.185023
-0.180645
-0.176147
-0.171529
-0.166796
-0.161953
-0.157006
-0.151964
-0.146838
-0.14164
-0.136386
-0.13109
-0.125771
-0.120447
-0.115136
-0.109859
-0.104634
-0.0994804
-0.0944154
-0.089456
-0.0846173
-0.0799129
-0.0753544
-0.0709517
-0.0667123
-0.062642
-0.0587446
-0.0550217
-0.0514735
-0.0480983
-0.044893
-0.0418533
-0.0389735
-0.0362474
-0.0336675
-0.0312264
-0.0289159
-0.026728
-0.024654
-0.0226863
-0.0208164
-0.0190373
-0.0173413
-0.015722
-0.0141733
-0.0126883
-0.0112647
-0.00989178
-0.0085761
-0.0072939
-0.0060747
-0.00485981
-0.00373278
-0.00255615
-0.00152912
-0.000370687
-0.240374
-0.238723
-0.236844
-0.234737
-0.232373
-0.229701
-0.227141
-0.224429
-0.221537
-0.21848
-0.215272
-0.211931
-0.208466
-0.204876
-0.201159
-0.197318
-0.193355
-0.189269
-0.185059
-0.180726
-0.176271
-0.171696
-0.167004
-0.162202
-0.157295
-0.152292
-0.147205
-0.142045
-0.136828
-0.131568
-0.126284
-0.120992
-0.115713
-0.110465
-0.105266
-0.100137
-0.0950931
-0.0901524
-0.0853296
-0.080638
-0.0760894
-0.0716935
-0.067458
-0.0633887
-0.0594894
-0.0557621
-0.0522068
-0.0488222
-0.0456053
-0.0425518
-0.0396564
-0.0369129
-0.0343141
-0.0318527
-0.0295205
-0.0273098
-0.025212
-0.0232196
-0.0213242
-0.0195189
-0.017796
-0.0161492
-0.0145722
-0.0130587
-0.0116054
-0.0102031
-0.00885585
-0.00754427
-0.00629026
-0.00504826
-0.00387995
-0.00268408
-0.00160181
-0.000438197
-0.238393
-0.236957
-0.235269
-0.233344
-0.231184
-0.228801
-0.226049
-0.22346
-0.22071
-0.217767
-0.214649
-0.21139
-0.208002
-0.204483
-0.200832
-0.197054
-0.193151
-0.189121
-0.184966
-0.180686
-0.176283
-0.171759
-0.167117
-0.162364
-0.157506
-0.152552
-0.147512
-0.142399
-0.137227
-0.132011
-0.126769
-0.121519
-0.116278
-0.111066
-0.105901
-0.100802
-0.0957856
-0.0908688
-0.0860663
-0.0813915
-0.076856
-0.0724696
-0.0682401
-0.0641732
-0.0602731
-0.0565416
-0.0529792
-0.0495847
-0.0463552
-0.0432867
-0.0403741
-0.0376115
-0.0349918
-0.032508
-0.030152
-0.0279163
-0.0257925
-0.0237733
-0.0218502
-0.0200166
-0.0182646
-0.0165885
-0.0149814
-0.0134378
-0.0119532
-0.0105203
-0.00914014
-0.00779822
-0.0065083
-0.00523822
-0.00402823
-0.0028108
-0.00167483
-0.000499642
-0.235961
-0.234766
-0.233291
-0.231557
-0.229569
-0.227324
-0.22486
-0.222197
-0.219572
-0.21678
-0.213783
-0.210628
-0.207336
-0.203904
-0.200333
-0.19663
-0.192796
-0.188834
-0.184744
-0.180527
-0.176184
-0.17172
-0.167138
-0.162443
-0.157642
-0.152744
-0.147761
-0.142703
-0.137584
-0.132421
-0.12723
-0.122028
-0.116833
-0.111664
-0.106539
-0.101477
-0.0964932
-0.0916052
-0.0868273
-0.082173
-0.0776537
-0.0732793
-0.0690575
-0.0649945
-0.0610943
-0.0573591
-0.0537895
-0.0503845
-0.0471415
-0.044057
-0.0411258
-0.0383424
-0.0357001
-0.0331919
-0.0308102
-0.0285475
-0.0263957
-0.0243475
-0.0223947
-0.0205309
-0.0187481
-0.0170409
-0.015402
-0.0138268
-0.0123094
-0.0108447
-0.00943021
-0.00805688
-0.00673005
-0.00543062
-0.00417867
-0.00293704
-0.0017488
-0.000555535
-0.233217
-0.232321
-0.231105
-0.229604
-0.22784
-0.22582
-0.223502
-0.220876
-0.218311
-0.215644
-0.212772
-0.20973
-0.206543
-0.203209
-0.199728
-0.19611
-0.192359
-0.188476
-0.184461
-0.180318
-0.176047
-0.171654
-0.167141
-0.162514
-0.157781
-0.152949
-0.148031
-0.143036
-0.13798
-0.132877
-0.127743
-0.122596
-0.117452
-0.112331
-0.10725
-0.102227
-0.0972781
-0.0924204
-0.087668
-0.0830342
-0.0785306
-0.0741671
-0.0699516
-0.0658903
-0.0619875
-0.0582458
-0.0546659
-0.0512471
-0.0479873
-0.0448831
-0.0419298
-0.039122
-0.0364534
-0.0339174
-0.0315064
-0.0292134
-0.0270302
-0.0249501
-0.0229647
-0.021068
-0.0192517
-0.0175111
-0.0158382
-0.0142293
-0.0126773
-0.0111789
-0.00972862
-0.00832239
-0.0069575
-0.00562706
-0.00433285
-0.00306411
-0.0018252
-0.00060712
-0.228919
-0.228013
-0.226798
-0.225304
-0.223541
-0.221538
-0.219253
-0.216585
-0.214048
-0.211347
-0.208471
-0.205435
-0.202234
-0.198874
-0.195366
-0.191716
-0.187929
-0.184005
-0.179948
-0.175762
-0.171449
-0.167014
-0.162464
-0.157805
-0.153047
-0.148199
-0.143274
-0.138285
-0.133247
-0.128175
-0.123086
-0.117998
-0.112929
-0.107895
-0.102915
-0.0980049
-0.0931809
-0.0884573
-0.0838472
-0.0793624
-0.0750126
-0.0708061
-0.0667491
-0.0628462
-0.0591002
-0.0555121
-0.0520816
-0.0488068
-0.0456845
-0.0427106
-0.0398798
-0.0371862
-0.0346235
-0.0321843
-0.0298619
-0.0276484
-0.0255371
-0.0235199
-0.021591
-0.0197421
-0.0179687
-0.0162626
-0.0146208
-0.0130349
-0.0115037
-0.0100186
-0.00858
-0.00717844
-0.00581697
-0.00448285
-0.0031853
-0.00190055
-0.000652646
-0.224249
-0.223657
-0.222731
-0.221517
-0.220035
-0.218298
-0.216293
-0.214041
-0.211504
-0.208801
-0.206006
-0.203082
-0.199996
-0.196749
-0.193351
-0.189809
-0.186126
-0.182304
-0.178348
-0.17426
-0.170045
-0.165708
-0.161256
-0.156697
-0.152039
-0.147293
-0.14247
-0.137585
-0.132652
-0.127685
-0.122702
-0.117718
-0.112752
-0.107819
-0.102937
-0.0981217
-0.0933877
-0.0887491
-0.0842184
-0.0798068
-0.0755236
-0.0713768
-0.0673723
-0.0635145
-0.0598064
-0.0562489
-0.0528419
-0.0495838
-0.0464717
-0.0435018
-0.0406694
-0.0379688
-0.0353943
-0.032939
-0.0305965
-0.0283595
-0.0262217
-0.0241754
-0.022215
-0.0203328
-0.0185244
-0.0167817
-0.0151023
-0.0134773
-0.0119068
-0.0103801
-0.00890112
-0.0074552
-0.00605293
-0.0046709
-0.00333227
-0.00199385
-0.000700047
-0.21567
-0.215453
-0.214853
-0.213937
-0.212729
-0.211225
-0.209443
-0.207421
-0.205292
-0.203104
-0.200709
-0.198073
-0.195236
-0.192225
-0.189052
-0.185724
-0.182246
-0.178622
-0.174858
-0.170959
-0.166931
-0.162781
-0.158515
-0.154142
-0.149673
-0.145116
-0.140485
-0.135791
-0.13105
-0.126275
-0.121482
-0.116687
-0.111905
-0.107152
-0.102445
-0.0977963
-0.0932213
-0.0887327
-0.084342
-0.0800596
-0.0758944
-0.0718539
-0.0679438
-0.0641685
-0.060531
-0.0570325
-0.0536733
-0.0504521
-0.0473668
-0.0444141
-0.04159
-0.0388896
-0.0363079
-0.0338387
-0.0314765
-0.0292145
-0.0270473
-0.0249676
-0.0229706
-0.0210487
-0.0191985
-0.0174115
-0.0156866
-0.0140138
-0.0123952
-0.0108175
-0.0092886
-0.00778844
-0.00633503
-0.00489481
-0.00350374
-0.00210109
-0.000751012
-0.207302
-0.207476
-0.207235
-0.206668
-0.205817
-0.204702
-0.203346
-0.201777
-0.199992
-0.197946
-0.195662
-0.193207
-0.190583
-0.187787
-0.184821
-0.181693
-0.17841
-0.174978
-0.171403
-0.167691
-0.16385
-0.159885
-0.155806
-0.151621
-0.147339
-0.142971
-0.13853
-0.134027
-0.129475
-0.12489
-0.120284
-0.115673
-0.111071
-0.106494
-0.101956
-0.0974692
-0.093048
-0.0887042
-0.0844484
-0.0802906
-0.0762391
-0.072301
-0.0684819
-0.0647863
-0.061217
-0.0577757
-0.0544629
-0.0512778
-0.0482189
-0.0452834
-0.042468
-0.0397684
-0.0371805
-0.0346986
-0.0323181
-0.0300327
-0.0278377
-0.0257263
-0.0236944
-0.0217346
-0.0198444
-0.018015
-0.0162463
-0.0145274
-0.0128623
-0.0112356
-0.00965825
-0.00810614
-0.0066025
-0.00510692
-0.00366392
-0.00220112
-0.00079573
-0.199245
-0.199778
-0.199873
-0.19963
-0.1991
-0.198302
-0.197237
-0.195902
-0.194306
-0.19249
-0.190496
-0.188303
-0.185913
-0.183336
-0.180581
-0.177658
-0.174575
-0.171339
-0.167957
-0.164437
-0.160784
-0.157008
-0.153117
-0.14912
-0.145027
-0.140848
-0.136595
-0.13228
-0.127916
-0.123516
-0.119093
-0.114662
-0.110236
-0.105829
-0.101455
-0.0971251
-0.0928529
-0.0886491
-0.084524
-0.0804867
-0.0765453
-0.0727066
-0.0689761
-0.065358
-0.0618554
-0.0584703
-0.0552034
-0.0520544
-0.0490222
-0.0461046
-0.043299
-0.0406017
-0.0380091
-0.0355164
-0.0331194
-0.0308126
-0.0285919
-0.0264508
-0.0243862
-0.0223906
-0.0204623
-0.0185925
-0.0167818
-0.015019
-0.0133091
-0.0116354
-0.0100108
-0.00840895
-0.00685616
-0.0053078
-0.00381362
-0.00229403
-0.00083383
-0.191499
-0.192355
-0.192763
-0.192816
-0.19257
-0.192041
-0.19123
-0.190147
-0.188812
-0.187258
-0.185499
-0.183529
-0.181353
-0.178983
-0.176431
-0.173706
-0.170818
-0.167774
-0.164581
-0.161247
-0.15778
-0.154189
-0.150482
-0.146669
-0.14276
-0.138765
-0.134695
-0.130562
-0.126379
-0.122158
-0.117911
-0.113653
-0.109396
-0.105152
-0.100935
-0.0967554
-0.0926257
-0.0885561
-0.0845563
-0.0806348
-0.0767994
-0.0730566
-0.0694117
-0.065869
-0.0624317
-0.0591018
-0.0558805
-0.0527678
-0.0497631
-0.0468646
-0.0440703
-0.0413771
-0.038782
-0.0362808
-0.03387
-0.0315444
-0.0293007
-0.0271328
-0.0250381
-0.0230095
-0.0210457
-0.0191381
-0.017288
-0.0154836
-0.0137312
-0.012013
-0.0103434
-0.00869428
-0.0070942
-0.00549587
-0.00395218
-0.00237921
-0.000866249
-0.184101
-0.18525
-0.185946
-0.186276
-0.186292
-0.186017
-0.185457
-0.184624
-0.183538
-0.182217
-0.180672
-0.178909
-0.176938
-0.174769
-0.172413
-0.169882
-0.167182
-0.164324
-0.161314
-0.158162
-0.154875
-0.151462
-0.147933
-0.144298
-0.140565
-0.136746
-0.132852
-0.128893
-0.124882
-0.120832
-0.116753
-0.112659
-0.108561
-0.104472
-0.100404
-0.0963667
-0.0923722
-0.0884299
-0.0845491
-0.0807378
-0.0770034
-0.0733522
-0.0697894
-0.0663194
-0.0629453
-0.0596693
-0.0564929
-0.0534164
-0.0504396
-0.0475612
-0.0447796
-0.0420924
-0.0394969
-0.0369895
-0.0345673
-0.0322257
-0.0299617
-0.0277699
-0.0256479
-0.0235891
-0.0215927
-0.0196501
-0.0177632
-0.0159201
-0.0141276
-0.0123676
-0.0106553
-0.0089617
-0.00731662
-0.00567126
-0.00408035
-0.00245753
-0.000894759
-0.177079
-0.178491
-0.179453
-0.180038
-0.180301
-0.180265
-0.179941
-0.179342
-0.178481
-0.177373
-0.176031
-0.174468
-0.172694
-0.170718
-0.168552
-0.166206
-0.163688
-0.161008
-0.158174
-0.155196
-0.152082
-0.148841
-0.145483
-0.142016
-0.138453
-0.134802
-0.131074
-0.127281
-0.123434
-0.119545
-0.115624
-0.111685
-0.107738
-0.103795
-0.0998666
-0.0959639
-0.0920969
-0.0882748
-0.0845063
-0.0807993
-0.0771608
-0.0735968
-0.0701125
-0.066712
-0.0633988
-0.0601752
-0.0570427
-0.0540021
-0.0510534
-0.0481958
-0.0454281
-0.0427483
-0.0401543
-0.037643
-0.0352118
-0.0328566
-0.0305751
-0.028362
-0.0262156
-0.0241294
-0.0221031
-0.0201283
-0.0182073
-0.0163282
-0.0144983
-0.0126992
-0.0109467
-0.00921145
-0.00752392
-0.00583446
-0.00419902
-0.00252978
-0.000920404
-0.170442
-0.172088
-0.173289
-0.17411
-0.174602
-0.174789
-0.174684
-0.174299
-0.173645
-0.172737
-0.171591
-0.170219
-0.168633
-0.166841
-0.164855
-0.162686
-0.160341
-0.157832
-0.155167
-0.152356
-0.149407
-0.14633
-0.143134
-0.13983
-0.136427
-0.132935
-0.129366
-0.12573
-0.122037
-0.1183
-0.114529
-0.110735
-0.10693
-0.103124
-0.0993274
-0.0955509
-0.0918037
-0.0880948
-0.0844323
-0.0808237
-0.0772759
-0.0737946
-0.0703849
-0.067051
-0.0637963
-0.0606231
-0.0575335
-0.0545282
-0.0516076
-0.0487712
-0.0460184
-0.0433473
-0.0407564
-0.038243
-0.035805
-0.0334386
-0.0311419
-0.0289101
-0.0267419
-0.024631
-0.0225776
-0.0205732
-0.0186208
-0.0167084
-0.0148437
-0.0130082
-0.0112182
-0.00944396
-0.00771665
-0.005986
-0.00430888
-0.00259649
-0.000943798
-0.164185
-0.166038
-0.167456
-0.168492
-0.169194
-0.169587
-0.169684
-0.169496
-0.169035
-0.168317
-0.167357
-0.166166
-0.164757
-0.16314
-0.161326
-0.159324
-0.157145
-0.154799
-0.152295
-0.149643
-0.146851
-0.14393
-0.14089
-0.137739
-0.134489
-0.131148
-0.127729
-0.12424
-0.120693
-0.117099
-0.113468
-0.109812
-0.106139
-0.102462
-0.0987896
-0.0951315
-0.0914968
-0.0878942
-0.0843314
-0.0808156
-0.0773534
-0.0739504
-0.0706115
-0.067341
-0.0641422
-0.0610178
-0.0579696
-0.0549988
-0.0521061
-0.0492913
-0.0465539
-0.0438926
-0.0413062
-0.0387923
-0.0363493
-0.0339738
-0.0316642
-0.0294161
-0.0272284
-0.0250953
-0.0230172
-0.020986
-0.0190047
-0.0170616
-0.0151646
-0.0132953
-0.0114704
-0.00965986
-0.00789546
-0.00612646
-0.00441056
-0.00265812
-0.000965344
-0.158303
-0.160339
-0.16195
-0.163182
-0.164076
-0.164657
-0.16494
-0.164935
-0.164656
-0.164116
-0.163329
-0.16231
-0.161068
-0.159616
-0.157964
-0.156122
-0.1541
-0.151909
-0.149558
-0.147057
-0.144415
-0.141643
-0.138749
-0.135744
-0.132638
-0.12944
-0.126162
-0.122813
-0.119403
-0.115944
-0.112445
-0.108917
-0.105369
-0.101813
-0.0982562
-0.0947091
-0.0911801
-0.0876772
-0.0842081
-0.0807796
-0.0773981
-0.074069
-0.0707973
-0.067587
-0.0644417
-0.0613639
-0.0583557
-0.0554186
-0.0525533
-0.0497599
-0.0470384
-0.0443876
-0.0418068
-0.0392938
-0.0368475
-0.0344646
-0.0321442
-0.0298818
-0.027677
-0.025524
-0.0234235
-0.0213678
-0.0193601
-0.0173887
-0.015462
-0.0135614
-0.0117041
-0.00985992
-0.00806106
-0.00625645
-0.00450459
-0.00271506
-0.000985285
-0.152786
-0.154984
-0.156766
-0.158174
-0.159244
-0.159998
-0.160452
-0.160617
-0.160505
-0.160131
-0.159508
-0.158649
-0.157566
-0.156269
-0.15477
-0.153079
-0.151206
-0.149162
-0.146956
-0.144598
-0.142098
-0.139466
-0.136712
-0.133845
-0.130875
-0.127812
-0.124667
-0.121448
-0.118168
-0.114835
-0.11146
-0.108052
-0.104622
-0.101178
-0.0977302
-0.0942871
-0.090857
-0.0874477
-0.0840665
-0.0807201
-0.0774145
-0.0741551
-0.0709469
-0.0677937
-0.0646992
-0.061666
-0.0586964
-0.0557918
-0.0529533
-0.0501813
-0.0474758
-0.0448361
-0.0422617
-0.0397508
-0.0373025
-0.0349139
-0.0325843
-0.0303096
-0.0280896
-0.0259188
-0.0237982
-0.0217202
-0.0196883
-0.017691
-0.0157369
-0.0138075
-0.0119203
-0.0100449
-0.00821415
-0.00637658
-0.00459146
-0.00276763
-0.00100376
-0.147625
-0.149966
-0.151901
-0.153467
-0.154695
-0.155607
-0.156218
-0.156539
-0.156583
-0.156363
-0.155893
-0.155184
-0.154248
-0.153098
-0.151743
-0.150194
-0.148462
-0.146556
-0.144488
-0.142266
-0.1399
-0.137401
-0.134778
-0.13204
-0.129199
-0.126263
-0.123243
-0.120148
-0.116988
-0.113774
-0.110514
-0.107219
-0.103899
-0.100561
-0.0972145
-0.0938686
-0.0905311
-0.0872094
-0.0839106
-0.0806411
-0.0774068
-0.0742131
-0.0710647
-0.0679656
-0.0649193
-0.0619286
-0.0589959
-0.0561226
-0.0533103
-0.0505592
-0.0478698
-0.0452416
-0.0426743
-0.0401663
-0.0377172
-0.0353242
-0.0329869
-0.0307016
-0.0284683
-0.0262816
-0.0241429
-0.0220447
-0.0199908
-0.0179698
-0.0159905
-0.0140346
-0.0121198
-0.0102156
-0.00835542
-0.00648739
-0.0046716
-0.00281612
-0.00102085
-0.142813
-0.145278
-0.147347
-0.149054
-0.150425
-0.151481
-0.152236
-0.152701
-0.152888
-0.152811
-0.152481
-0.151913
-0.151116
-0.150102
-0.148883
-0.147468
-0.145868
-0.144093
-0.142153
-0.140059
-0.13782
-0.135446
-0.132946
-0.130331
-0.12761
-0.124793
-0.12189
-0.118911
-0.115865
-0.112761
-0.10961
-0.106421
-0.103202
-0.0999628
-0.0967116
-0.0934566
-0.0902055
-0.0869657
-0.0837439
-0.0805464
-0.0773791
-0.0742471
-0.071155
-0.0681069
-0.0651062
-0.0621559
-0.0592583
-0.0564152
-0.053628
-0.0508973
-0.0482239
-0.0456073
-0.0430475
-0.0405433
-0.0380943
-0.0356982
-0.0333546
-0.0310602
-0.028815
-0.0266142
-0.0244593
-0.0223428
-0.0202689
-0.0182263
-0.016224
-0.0142437
-0.0123035
-0.0103728
-0.00848552
-0.00658942
-0.00474539
-0.00286076
-0.00103663
-0.138338
-0.140911
-0.143099
-0.144931
-0.14643
-0.147616
-0.148502
-0.149098
-0.149418
-0.149472
-0.149274
-0.148835
-0.148167
-0.147281
-0.146188
-0.144899
-0.143423
-0.14177
-0.139952
-0.137978
-0.135857
-0.1336
-0.131217
-0.128716
-0.126108
-0.123403
-0.12061
-0.117738
-0.114798
-0.111798
-0.108748
-0.105657
-0.102534
-0.0993867
-0.0962239
-0.0930536
-0.0898831
-0.0867197
-0.0835698
-0.0804397
-0.0773349
-0.0742607
-0.0712214
-0.0682213
-0.0652637
-0.0623515
-0.0594874
-0.056673
-0.05391
-0.0511992
-0.0485414
-0.0459364
-0.0433845
-0.0408846
-0.0384365
-0.0360381
-0.0336895
-0.0313872
-0.0291318
-0.0269185
-0.024749
-0.022616
-0.020524
-0.0184616
-0.0164383
-0.0144357
-0.0124723
-0.0105173
-0.00860506
-0.00668318
-0.0048132
-0.00290178
-0.00105116
-0.134191
-0.136857
-0.13915
-0.141092
-0.142706
-0.144009
-0.145013
-0.14573
-0.14617
-0.146345
-0.146268
-0.14595
-0.145401
-0.144635
-0.14366
-0.142487
-0.141126
-0.139589
-0.137884
-0.136022
-0.134012
-0.131865
-0.129589
-0.127196
-0.124694
-0.122093
-0.119402
-0.116631
-0.11379
-0.110886
-0.107931
-0.104931
-0.101896
-0.0988344
-0.0957539
-0.0926622
-0.0895668
-0.0864743
-0.0833914
-0.080324
-0.0772777
-0.0742574
-0.0712676
-0.0683124
-0.0653953
-0.0625191
-0.0596866
-0.0568995
-0.0541597
-0.051468
-0.0488254
-0.0462319
-0.043688
-0.0411927
-0.0387462
-0.0363465
-0.0339937
-0.0316848
-0.0294205
-0.0271961
-0.0250135
-0.0228657
-0.0207573
-0.018677
-0.0166346
-0.0146116
-0.0126269
-0.0106497
-0.00871462
-0.0067691
-0.00487536
-0.00293937
-0.00106449
-0.130363
-0.133109
-0.135491
-0.137531
-0.139247
-0.140656
-0.141767
-0.142592
-0.143142
-0.143429
-0.143462
-0.143255
-0.142818
-0.142161
-0.141295
-0.140231
-0.138978
-0.137547
-0.135948
-0.13419
-0.132284
-0.130239
-0.128064
-0.125771
-0.123367
-0.120863
-0.118267
-0.11559
-0.11284
-0.110026
-0.107158
-0.104243
-0.10129
-0.0983078
-0.0953035
-0.0922848
-0.0892588
-0.0862323
-0.0832116
-0.0802025
-0.0772104
-0.0742403
-0.0712967
-0.0683835
-0.0655042
-0.0626619
-0.0598591
-0.0570978
-0.05438
-0.0517066
-0.0490787
-0.0464965
-0.0439606
-0.0414703
-0.0390257
-0.0366253
-0.0342693
-0.0319548
-0.0296827
-0.0274485
-0.0252544
-0.0230932
-0.02097
-0.0188736
-0.0168137
-0.0147723
-0.0127682
-0.0107706
-0.00881474
-0.00684763
-0.00493217
-0.00297374
-0.00107669
-0.126842
-0.129656
-0.132117
-0.134242
-0.136049
-0.137551
-0.138759
-0.139683
-0.140333
-0.14072
-0.140856
-0.140751
-0.140415
-0.13986
-0.139095
-0.138131
-0.136977
-0.135645
-0.134144
-0.132483
-0.130672
-0.128722
-0.126641
-0.12444
-0.122128
-0.119713
-0.117206
-0.114615
-0.11195
-0.109219
-0.106431
-0.103594
-0.100718
-0.0978086
-0.0948747
-0.0919234
-0.0889617
-0.0859961
-0.0830329
-0.0800777
-0.0771359
-0.0742124
-0.0713116
-0.0684375
-0.0655935
-0.0627827
-0.0600078
-0.0572709
-0.0545738
-0.0519177
-0.0493039
-0.0467326
-0.0442047
-0.0417194
-0.0392772
-0.0368767
-0.0345182
-0.032199
-0.0299202
-0.0276774
-0.0254729
-0.0232999
-0.0211634
-0.0190523
-0.0169767
-0.0149185
-0.0128968
-0.0108808
-0.00890593
-0.00691916
-0.00498392
-0.00300504
-0.00108779
-0.123619
-0.126491
-0.129019
-0.131219
-0.133106
-0.134692
-0.135986
-0.136998
-0.137739
-0.138218
-0.138446
-0.138434
-0.138191
-0.137729
-0.137057
-0.136185
-0.135123
-0.133882
-0.132471
-0.130899
-0.129177
-0.127315
-0.12532
-0.123204
-0.120976
-0.118644
-0.116218
-0.113707
-0.11112
-0.108465
-0.105752
-0.102987
-0.10018
-0.0973385
-0.0944694