/*--------------------------------*- C++ -*----------------------------------*\
  =========                 |
  \\      /  F ield         | OpenFOAM: The Open Source CFD Toolbox
   \\    /   O peration     | Website:  https://openfoam.org
    \\  /    A nd           | Version:  7
     \\/     M anipulation  |
\*---------------------------------------------------------------------------*/
FoamFile
{
    version     2.0;
    format      ascii;
    class       surfaceScalarField;
    location    "60";
    object      phi;
}
// * * * * * * * * * * * * * * * * * * * * * * * * * * * * * * * * * * * * * //

dimensions      [0 3 -1 0 0 0 0];

internalField   nonuniform List<scalar> 
7273
(
-0.00123679
1.88662e-05
-0.0012586
1.4655e-05
-0.00127673
1.11161e-05
-0.00129145
8.22527e-06
-0.00130298
5.94957e-06
-0.00131147
4.23984e-06
-0.00131703
3.06999e-06
-0.0013198
2.40506e-06
-0.00131994
2.15485e-06
-0.00131764
2.34574e-06
-0.00131291
2.81011e-06
-0.0013058
3.47343e-06
-0.00129632
4.23106e-06
-0.0012845
4.97304e-06
-0.00127036
5.57923e-06
-0.00125393
5.9505e-06
-0.00123522
5.94052e-06
-0.00121426
5.4508e-06
-0.00119106
4.37628e-06
-0.00116564
2.61968e-06
-0.00113791
-3.67706e-08
-0.00110811
-3.12303e-06
-0.00107615
-7.17067e-06
-0.00104207
-1.20359e-05
-0.00100591
-1.76801e-05
-0.000967709
-2.40613e-05
-0.000927555
-3.10116e-05
-0.000885506
-3.85003e-05
-0.000841627
-4.63737e-05
-0.000795997
-5.44872e-05
-0.000748699
-6.26781e-05
-0.000699826
-7.07738e-05
-0.000649454
-7.8637e-05
-0.000597714
-8.59905e-05
-0.000544705
-9.27391e-05
-0.000490533
-9.87105e-05
-0.000435308
-0.000103763
-0.000379136
-0.000107785
-0.000322138
-0.000110665
-0.000264427
-0.000112345
-0.000206117
-0.000112781
-0.00014731
-0.000111947
-8.81217e-05
-0.000109882
-2.86528e-05
-0.000106607
3.09965e-05
-0.000102206
9.07295e-05
-9.67712e-05
0.000150453
-9.04217e-05
0.000210078
-8.32949e-05
0.000269522
-7.55427e-05
0.000328706
-6.73276e-05
0.000387557
-5.88195e-05
0.000446004
-5.01957e-05
0.000503986
-4.16197e-05
0.000561446
-3.32597e-05
0.000618334
-2.52733e-05
0.000674603
-1.78064e-05
0.000730213
-1.09918e-05
0.000785131
-4.94942e-06
0.000839354
1.94157e-07
0.000892804
4.49499e-06
0.000945499
7.74199e-06
0.000997421
9.95339e-06
0.00104856
1.11108e-05
0.00109891
1.12156e-05
0.00114848
1.02876e-05
0.00119726
8.36326e-06
0.00124526
5.49148e-06
0.00129251
1.72646e-06
0.001339
-2.80469e-06
0.00138475
-8.07798e-06
0.00142981
-1.39903e-05
0.00147418
-2.04613e-05
0.0015179
-2.73457e-05
0.0015611
-3.48084e-05
0.00160352
-4.22027e-05
0.0016461
-5.06719e-05
-5.98548e-05
-0.00118106
4.35676e-05
-0.00120181
3.54009e-05
-0.00121894
2.82541e-05
-0.00123273
2.20141e-05
-0.00124337
1.65861e-05
-0.00125099
1.18635e-05
-0.00125572
7.79702e-06
-0.00125769
4.37024e-06
-0.00125708
1.55366e-06
-0.00125393
-8.08939e-07
-0.00124844
-2.68039e-06
-0.00124058
-4.39e-06
-0.00123035
-5.99141e-06
-0.00121779
-7.58644e-06
-0.00120292
-9.29893e-06
-0.00118576
-1.12072e-05
-0.00116633
-1.34847e-05
-0.00114466
-1.6224e-05
-0.00112075
-1.95306e-05
-0.00109464
-2.34913e-05
-0.00106646
-2.82164e-05
-0.00103601
-3.35783e-05
-0.00100344
-3.97379e-05
-0.000968796
-4.66774e-05
-0.000932127
-5.435e-05
-0.000893461
-6.27267e-05
-0.000852906
-7.15666e-05
-0.000810521
-8.08859e-05
-0.000766381
-9.05129e-05
-0.000720572
-0.000100296
-0.000673185
-0.000110066
-0.000624319
-0.00011964
-0.00057404
-0.000128916
-0.000522503
-0.000137527
-0.000469803
-0.000145439
-0.000416046
-0.000152468
-0.000361342
-0.000158467
-0.000305791
-0.000163336
-0.000249512
-0.000166944
-0.000192611
-0.000169246
-0.000135191
-0.000170201
-7.73478e-05
-0.00016979
-1.91829e-05
-0.000168047
3.9219e-05
-0.000165009
9.77681e-05
-0.000160755
0.000156381
-0.000155384
0.000214979
-0.00014902
0.000273489
-0.000141805
0.000331841
-0.000133895
0.00038997
-0.000125457
0.000447815
-0.000116664
0.000505315
-0.000107696
0.000562419
-9.87236e-05
0.000619077
-8.99176e-05
0.000675243
-8.14393e-05
0.000730875
-7.34389e-05
0.000785937
-6.6053e-05
0.000840389
-5.94021e-05
0.00089418
-5.35961e-05
0.000947335
-4.86606e-05
0.000999795
-4.47179e-05
0.00105154
-4.17944e-05
0.00110256
-3.99081e-05
0.00115284
-3.90599e-05
0.00120236
-3.92347e-05
0.00125112
-4.03965e-05
0.00129911
-4.25043e-05
0.00134633
-4.54889e-05
0.0013928
-4.92749e-05
0.00143851
-5.37826e-05
0.00148347
-5.89586e-05
0.00152771
-6.47002e-05
0.00157123
-7.08617e-05
0.00161416
-7.77406e-05
0.00165621
-8.42525e-05
0.00169824
-9.26966e-05
-0.000100348
-0.00107004
6.60527e-05
-0.00108873
5.40914e-05
-0.00110396
4.34837e-05
-0.00111595
3.40113e-05
-0.00112489
2.55245e-05
-0.00113089
1.78614e-05
-0.00113405
1.09536e-05
-0.0011345
4.82258e-06
-0.00113227
-6.71149e-07
-0.00112788
-5.19974e-06
-0.00112104
-9.52755e-06
-0.00111182
-1.36026e-05
-0.00110028
-1.7533e-05
-0.00108643
-2.14327e-05
-0.0010703
-2.54364e-05
-0.00105192
-2.95867e-05
-0.00103131
-3.40959e-05
-0.00100848
-3.90467e-05
-0.00098347
-4.45444e-05
-0.00095629
-5.06717e-05
-0.000927014
-5.74922e-05
-0.000895618
-6.49745e-05
-0.000862158
-7.31973e-05
-0.000826689
-8.21469e-05
-0.000789269
-9.17696e-05
-0.000749918
-0.000102078
-0.000708779
-0.000112706
-0.000665911
-0.000123754
-0.000621396
-0.000135027
-0.000575329
-0.000146364
-0.000527808
-0.000157587
-0.000478943
-0.000168504
-0.000428784
-0.000179076
-0.000377512
-0.000188799
-0.00032522
-0.000197732
-0.000272012
-0.000205675
-0.000218001
-0.000212479
-0.000163274
-0.000218062
-0.000107955
-0.000222263
-5.21388e-05
-0.000225063
4.08057e-06
-0.000226421
6.06193e-05
-0.000226329
0.000117388
-0.000224817
0.000174312
-0.000221932
0.000231317
-0.00021776
0.000288336
-0.000212403
0.000345307
-0.000205991
0.000402171
-0.000198669
0.000458873
-0.000190597
0.000515362
-0.000181946
0.000571591
-0.000172893
0.000627512
-0.000163618
0.000683085
-0.000154296
0.000738267
-0.0001451
0.000793021
-0.000136193
0.000847309
-0.000127727
0.000901096
-0.00011984
0.000954347
-0.000112653
0.00100702
-0.000106271
0.00105911
-0.000100751
0.00111058
-9.6184e-05
0.00116139
-9.26087e-05
0.00121153
-9.00465e-05
0.00126097
-8.85001e-05
0.00130969
-8.79573e-05
0.00135768
-8.83832e-05
0.00140492
-8.97422e-05
0.00145139
-9.19604e-05
0.0014971
-9.49876e-05
0.00154204
-9.87223e-05
0.00158621
-0.000103129
0.00162963
-0.00010812
0.00167226
-0.000113489
0.00171427
-0.000119749
0.00175531
-0.00012529
0.00179613
-0.000133516
-0.000139712
-0.000905329
8.54082e-05
-0.000921153
6.99156e-05
-0.000933732
5.60625e-05
-0.000943253
4.35325e-05
-0.000949852
3.21235e-05
-0.000953605
2.1614e-05
-0.000954582
1.19307e-05
-0.00095293
3.17019e-06
-0.000949015
-4.58562e-06
-0.000942607
-1.16079e-05
-0.000933886
-1.82485e-05
-0.000922869
-2.462e-05
-0.000909575
-3.08267e-05
-0.000894026
-3.69817e-05
-0.000876225
-4.32377e-05
-0.000856237
-4.95741e-05
-0.000834074
-5.62586e-05
-0.000809759
-6.33616e-05
-0.000783319
-7.09847e-05
-0.000754786
-7.92045e-05
-0.000724207
-8.80714e-05
-0.000691598
-9.75831e-05
-0.000657019
-0.000107777
-0.000620529
-0.000118637
-0.000582198
-0.000130101
-0.000542026
-0.00014225
-0.000500193
-0.000154539
-0.000456761
-0.000167186
-0.000411819
-0.000179968
-0.000365469
-0.000192714
-0.00031782
-0.000205236
-0.000269004
-0.000217321
-0.000219012
-0.000229067
-0.000168094
-0.000239717
-0.000116324
-0.000249502
-6.3802e-05
-0.000258197
-1.06222e-05
-0.000265659
4.30403e-05
-0.000271725
9.71613e-05
-0.000276384
0.000151638
-0.000279539
0.000206378
-0.000281161
0.000261303
-0.000281254
0.000316339
-0.000279853
0.000371423
-0.000277016
0.000426496
-0.000272833
0.000481507
-0.000267413
0.000536408
-0.000260892
0.000591156
-0.000253417
0.000645714
-0.000245155
0.000700045
-0.000236277
0.000754116
-0.000226964
0.000807893
-0.000217395
0.000861347
-0.00020775
0.000914447
-0.0001982
0.000967163
-0.000188909
0.00101946
-0.000180029
0.00107132
-0.000171696
0.0011227
-0.000164035
0.00117357
-0.000157142
0.00122392
-0.000151092
0.00127369
-0.00014596
0.00132287
-0.000141789
0.00137143
-0.000138601
0.00141933
-0.000136401
0.00146655
-0.000135179
0.00151306
-0.0001349
0.00155885
-0.000135532
0.0016039
-0.000137002
0.00164818
-0.00013927
0.00169169
-0.000142236
0.00173441
-0.00014585
0.00177638
-0.000150091
0.0018175
-0.000154606
0.00185799
-0.000160236
0.00189744
-0.000164744
0.00193649
-0.000172568
-0.00017745
-0.000688918
-0.000701343
8.23411e-05
-0.000710797
6.5517e-05
-0.000717418
5.01529e-05
-0.000721295
3.60003e-05
-0.000722472
2.27913e-05
-0.000721003
1.04615e-05
-0.000716872
-9.60623e-07
-0.000710729
-1.07289e-05
-0.000702208
-2.01284e-05
-0.000691379
-2.90775e-05
-0.000678301
-3.76979e-05
-0.00066301
-4.61183e-05
-0.00064553
-5.44616e-05
-0.000625844
-6.29237e-05
-0.000604041
-7.13771e-05
-0.000580134
-8.0165e-05
-0.00055415
-8.93462e-05
-0.000526119
-9.90153e-05
-0.000496082
-0.000109242
-0.000464084
-0.000120069
-0.000430162
-0.000131505
-0.000394378
-0.000143561
-0.000356807
-0.000156207
-0.000317529
-0.000169379
-0.000276509
-0.00018327
-0.000233973
-0.000197075
-0.00018999
-0.000211169
-0.000144649
-0.000225309
-9.80535e-05
-0.00023931
-5.02963e-05
-0.000252993
-1.36966e-06
-0.000266248
4.80378e-05
-0.000278474
9.83906e-05
-0.00029007
0.000149453
-0.000300564
0.00020109
-0.000309833
0.000253184
-0.000317753
0.000305651
-0.000324192
0.000358378
-0.000329111
0.000411282
-0.000332443
0.000464286
-0.000334165
0.000517324
-0.000334292
0.000570334
-0.000332863
0.000623265
-0.000329948
0.000676074
-0.000325641
0.000728722
-0.000320062
0.00078118
-0.000313349
0.000833418
-0.000305656
0.000885416
-0.000297152
0.000937152
-0.000288013
0.000988606
-0.000278418
0.00103976
-0.00026855
0.0010906
-0.000258587
0.0011411
-0.0002487
0.00119124
-0.000239052
0.00124101
-0.000229793
0.00129037
-0.000221057
0.0013393
-0.000212966
0.00138777
-0.000205616
0.00143576
-0.000199084
0.00148324
-0.000193438
0.00153017
-0.000188721
0.00157653
-0.000184955
0.00162227
-0.000182146
0.00166738
-0.000180283
0.00171181
-0.000179334
0.00175555
-0.000179266
0.00179856
-0.000180015
0.00184082
-0.000181532
0.00188234
-0.000183749
0.00192304
-0.000186558
0.00196302
-0.000190066
0.0020021
-0.000193685
0.00204055
-0.000198688
0.00207794
-0.000202137
0.00211477
-0.000209402
-0.000213135
-0.000431557
9.12251e-05
-0.000437787
7.17469e-05
-0.000441431
5.37966e-05
-0.000442512
3.70818e-05
-0.000440982
2.12607e-05
-0.000436876
6.35619e-06
-0.000430827
-7.01022e-06
-0.000422286
-1.92699e-05
-0.000411515
-3.08993e-05
-0.000398539
-4.20533e-05
-0.000383389
-5.28485e-05
-0.000366099
-6.34077e-05
-0.000346683
-7.38781e-05
-0.000325131
-8.44756e-05
-0.000301521
-9.49865e-05
-0.000275887
-0.000105799
-0.000248255
-0.000116978
-0.000218663
-0.000128607
-0.000187155
-0.000140751
-0.000153779
-0.000153445
-0.000118581
-0.000166702
-8.16215e-05
-0.000180521
-4.29581e-05
-0.000194871
-2.53011e-06
-0.000209806
3.88779e-05
-0.000224678
8.18473e-05
-0.000240044
0.000126153
-0.000255475
0.000171668
-0.000270824
0.000218269
-0.00028591
0.000265826
-0.00030055
0.000314181
-0.000314603
0.000363347
-0.000327641
0.000413079
-0.000339801
0.000463284
-0.00035077
0.000513858
-0.000360407
0.000564696
-0.00036859
0.000615709
-0.000375205
0.0006668
-0.000380202
0.000717892
-0.000383534
0.000768916
-0.000385189
0.000819813
-0.000385189
0.000870536
-0.000383585
0.000921044
-0.000380456
0.000971306
-0.000375904
0.0010213
-0.000370056
0.00107101
-0.000363056
0.00112042
-0.000355066
0.00116952
-0.000346255
0.00121831
-0.000336803
0.00126678
-0.000326891
0.00131493
-0.000316701
0.00136276
-0.000306409
0.00141024
-0.000296187
0.00145738
-0.000286193
0.00150417
-0.000276575
0.00155057
-0.000267464
0.00159658
-0.000258978
0.00164218
-0.00025121
0.00168733
-0.000244237
0.00173201
-0.00023812
0.00177619
-0.000232902
0.00181984
-0.000228603
0.00186292
-0.000225228
0.0019054
-0.000222763
0.00194725
-0.000221184
0.00198844
-0.000220447
0.00202893
-0.00022051
0.00206869
-0.000221294
0.00210774
-0.000222793
0.00214597
-0.000224795
0.00218351
-0.000227604
0.00222013
-0.000230305
0.00225614
-0.000234693
0.0022911
-0.000237101
0.00232538
-0.000243682
-0.000246431
-0.000113586
9.69665e-05
-0.000116998
7.51583e-05
-0.000118064
5.48629e-05
-0.000116762
3.57793e-05
-0.000113089
1.75877e-05
-0.000106608
-1.24817e-07
-9.85323e-05
-1.50856e-05
-8.81182e-05
-2.96841e-05
-7.54581e-05
-4.35594e-05
-6.06176e-05
-5.68938e-05
-4.36388e-05
-6.98273e-05
-2.45492e-05
-8.24973e-05
-3.3086e-06
-9.51186e-05
1.97122e-05
-0.000107496
4.47804e-05
-0.000120055
7.18256e-05
-0.000132844
0.0001008
-0.000145953
0.000131652
-0.000159459
0.000164324
-0.000173423
0.000198757
-0.000187878
0.000234887
-0.000202832
0.000272638
-0.000218271
0.000311916
-0.000234149
0.000352596
-0.000250487
0.00039473
-0.000266812
0.000438092
-0.000283406
0.00048258
-0.000299963
0.000528082
-0.000316326
0.000574483
-0.00033231
0.000621654
-0.000347722
0.000669452
-0.000362401
0.000717829
-0.000376017
0.000766598
-0.000388571
0.000815654
-0.000399826
0.000864889
-0.000409642
0.000914199
-0.000417901
0.000963499
-0.000424504
0.0010127
-0.000429403
0.00106173
-0.000432563
0.00111052
-0.000433986
0.00115904
-0.000433704
0.00120723
-0.000431779
0.00125508
-0.0004283
0.00130255
-0.000423379
0.00134965
-0.000417151
0.00139636
-0.000409767
0.00144269
-0.000401394
0.00148864
-0.000392205
0.00153422
-0.000382382
0.00157943
-0.000372107
0.00162429
-0.000361561
0.0016688
-0.000350921
0.00171297
-0.000340352
0.00175679
-0.000330012
0.00180026
-0.000320044
0.00184337
-0.000310576
0.00188611
-0.000301719
0.00192846
-0.000293562
0.00197041
-0.000286182
0.00201192
-0.000279632
0.00205297
-0.000273953
0.00209353
-0.00026916
0.00213356
-0.000265262
0.00217303
-0.000262236
0.00221192
-0.000260069
0.00225017
-0.000258699
0.00228778
-0.000258117
0.00232468
-0.000258194
0.0023609
-0.000259019
0.00239633
-0.000260225
0.00243111
-0.00026238
0.00246497
-0.000264167
0.00249823
-0.000267954
0.00253051
-0.000269379
0.00256202
-0.000275192
-0.000277101
0.000251321
0.000100626
0.000249688
7.67904e-05
0.000250233
5.43181e-05
0.000253067
3.29455e-05
0.000258469
1.21861e-05
0.000265498
-7.15465e-06
0.000275084
-2.46708e-05
0.00028681
-4.14104e-05
0.000300701
-5.74505e-05
0.000316721
-7.29134e-05
0.000334831
-8.79375e-05
0.000354988
-0.000102655
0.000377149
-0.000117279
0.00040134
-0.000131687
0.000427489
-0.000146204
0.000455533
-0.000160889
0.000485425
-0.000175845
0.000517112
-0.000191145
0.00055053
-0.000206841
0.000585612
-0.00022296
0.000622283
-0.000239503
0.000660458
-0.000256447
0.000700042
-0.000273733
0.000740903
-0.000291348
0.00078304
-0.000308948
0.000826264
-0.00032663
0.000870465
-0.000344164
0.000915519
-0.000361381
0.000961303
-0.000378094
0.00100769
-0.000394105
0.00105453
-0.000409243
0.00110175
-0.00042324
0.0011492
-0.000436016
0.00119675
-0.000447382
0.00124431
-0.000457202
0.00129178
-0.000465365
0.00133906
-0.000471786
0.00138608
-0.000476422
0.00143277
-0.000479254
0.00147908
-0.000480295
0.00152496
-0.000479589
0.00157039
-0.00047721
0.00161535
-0.000473257
0.00165983
-0.000467854
0.00170382
-0.000461144
0.00174734
-0.000453284
0.00179039
-0.000444447
0.001833
-0.000434811
0.00187517
-0.000424559
0.00191694
-0.000413874
0.00195831
-0.000402937
0.00199931
-0.000391921
0.00203995
-0.000380991
0.00208024
-0.000370298
0.00212018
-0.000359983
0.00215977
-0.000350166
0.002199
-0.000340955
0.00223788
-0.000332433
0.00227637
-0.000324674
0.00231446
-0.000317722
0.00235213
-0.00031162
0.00238934
-0.000306372
0.00242607
-0.000301993
0.00246228
-0.000298445
0.00249794
-0.000295735
0.00253302
-0.000293771
0.00256749
-0.000292595
0.0026013
-0.000291997
0.00263448
-0.0002922
0.00266689
-0.000292635
0.00269869
-0.000294187
0.00272962
-0.000295092
0.00275996
-0.000298292
0.0027894
-0.000298825
0.00281804
-0.00030383
-0.000305019
0.000663014
0.000104307
0.000661283
7.85212e-05
0.000661711
5.38907e-05
0.000664417
3.02387e-05
0.000669678
6.92568e-06
0.000676919
-1.43954e-05
0.000686457
-3.42092e-05
0.000698277
-5.32305e-05
0.000712323
-7.14959e-05
0.000728533
-8.91238e-05
0.00074686
-0.000106264
0.000767254
-0.000123049
0.000789654
-0.000139679
0.000814077
-0.000156111
0.000840438
-0.000172565
0.000868676
-0.000189126
0.000898727
-0.000205896
0.000930524
-0.000222942
0.000963992
-0.00024031
0.000999052
-0.000258019
0.00103561
-0.000276065
0.00107359
-0.000294418
0.00111286
-0.000313008
0.0011533
-0.000331793
0.00119487
-0.000350516
0.0012374
-0.000369158
0.00128077
-0.00038753
0.00132484
-0.000405455
0.00136949
-0.000422744
0.00141459
-0.000439201
0.00145999
-0.000454647
0.0015056
-0.000468852
0.00155128
-0.000481697
0.00159692
-0.000493019
0.00164241
-0.000502688
0.00168765
-0.000510606
0.00173256
-0.000516699
0.00177707
-0.000520934
0.00182112
-0.000523304
0.00186467
-0.000523837
0.00190766
-0.000522588
0.0019501
-0.000519644
0.00199196
-0.000515117
0.00203324
-0.000509138
0.00207396
-0.00050186
0.00211412
-0.000493449
0.00215376
-0.000484081
0.00219288
-0.000473939
0.00223153
-0.000463209
0.00226973
-0.000452074
0.00230751
-0.000440714
0.00234489
-0.0004293
0.00238189
-0.000417993
0.00241853
-0.000406941
0.00245483
-0.000396279
0.00249078
-0.00038612
0.0025264
-0.00037657
0.00256167
-0.000367702
0.00259658
-0.000359588
0.00263112
-0.000352265
0.00266528
-0.000345773
0.00269901
-0.000340105
0.00273231
-0.000335287
0.00276512
-0.000331259
0.00279744
-0.000328056
0.00282921
-0.00032554
0.00286044
-0.000323822
0.00289103
-0.00032259
0.00292106
-0.000322231
0.00295036
-0.000321935
0.00297911
-0.000322934
0.00300703
-0.000323018
0.00303439
-0.000325647
0.00306096
-0.000325398
0.00308673
-0.000329594
-0.000330163
0.00112124
0.000111231
0.00111663
8.31316e-05
0.00111447
5.60533e-05
0.00111484
2.98679e-05
0.00111795
3.8139e-06
0.00112329
-1.97327e-05
0.00113121
-4.21303e-05
0.00114159
-6.36032e-05
0.00115433
-8.42385e-05
0.00116936
-0.000104157
0.00118662
-0.000123523
0.00120604
-0.000142467
0.00122754
-0.000161179
0.0012511
-0.000179676
0.00127665
-0.000198109
0.00130409
-0.000216573
0.00133336
-0.000235164
0.00136437
-0.000253948
0.00139702
-0.000272962
0.00143122
-0.000292222
0.00146687
-0.000311716
0.00150386
-0.000331409
0.00154208
-0.000351223
0.00158138
-0.000371095
0.00162169
-0.00039082
0.00166284
-0.000410316
0.00170472
-0.000429407
0.00174718
-0.000447916
0.00179009
-0.000465654
0.00183332
-0.000482425
0.00187672
-0.00049805
0.00192019
-0.000512324
0.0019636
-0.000525108
0.00200684
-0.000536257
0.0020498
-0.000545653
0.0020924
-0.000553205
0.00213456
-0.000558856
0.00217621
-0.000562581
0.00221729
-0.000564389
0.00225778
-0.000564319
0.00229763
-0.000562441
0.00233684
-0.000558853
0.0023754
-0.000553678
0.00241332
-0.000547057
0.00245061
-0.000539153
0.0024873
-0.000530138
0.00252341
-0.000520195
0.00255898
-0.000509509
0.00259404
-0.000498268
0.00262863
-0.000486657
0.00266277
-0.000474854
0.0026965
-0.000463028
0.00272984
-0.000451338
0.00276282
-0.000439924
0.00279546
-0.000428918
0.00282777
-0.000418428
0.00285975
-0.000408552
0.00289141
-0.000399359
0.00292274
-0.000390915
0.00295372
-0.000383247
0.00298435
-0.0003764
0.00301459
-0.00037035
0.00304444
-0.000365135
0.00307385
-0.000360669
0.00310281
-0.000357022
0.00313127
-0.000354
0.00315925
-0.000351799
0.00318664
-0.000349981
0.00321353
-0.000349119
0.00323974
-0.000348148
0.00326545
-0.000348645
0.00329042
-0.000347989
0.00331484
-0.000350066
0.0033386
-0.000349155
0.00336158
-0.000352577
-0.000352612
0.00162449
0.00161336
9.42584e-05
0.00160542
6.39938e-05
0.00160059
3.46988e-05
0.00159883
5.57599e-06
0.00160016
-2.1057e-05
0.00160431
-4.62889e-05
0.00161129
-7.05792e-05
0.00162094
-9.389e-05
0.00163314
-0.000116356
0.00164778
-0.000138164
0.00166477
-0.000159455
0.00168401
-0.000180416
0.00170543
-0.000201102
0.00172895
-0.000221623
0.00175445
-0.000242074
0.00178184
-0.00026255
0.001811
-0.000283113
0.00184184
-0.000303797
0.00187422
-0.00032461
0.00190804
-0.000345537
0.00194317
-0.000366537
0.00197948
-0.000387529
0.00201682
-0.000408435
0.00205508
-0.00042908
0.00209411
-0.000449347
0.00213377
-0.000469069
0.00217392
-0.000488066
0.00221442
-0.000506153
0.00225513
-0.000523137
0.00229592
-0.000538842
0.00233668
-0.000553078
0.00237727
-0.000565704
0.0024176
-0.000576587
0.00245757
-0.000585619
0.00249709
-0.000592724
0.00253609
-0.000597855
0.00257451
-0.000601001
0.0026123
-0.000602183
0.00264944
-0.000601455
0.00268589
-0.000598898
0.00272166
-0.000594623
0.00275675
-0.000588763
0.00279116
-0.00058147
0.00282492
-0.000572914
0.00285806
-0.000563274
0.0028906
-0.000552738
0.00292259
-0.000541495
0.00295405
-0.000529735
0.00298504
-0.000517642
0.00301558
-0.000505395
0.00304571
-0.000493158
0.00307546
-0.000481087
0.00310485
-0.00046932
0.00313392
-0.000457983
0.00316267
-0.000447176
0.00319111
-0.000436994
0.00321925
-0.000427497
0.00324708
-0.000418751
0.0032746
-0.000410769
0.00330181
-0.000403601
0.00332866
-0.000397206
0.00335517
-0.000391638
0.00338127
-0.000386778
0.00340699
-0.000382739
0.00343225
-0.000379259
0.00345708
-0.000376633
0.00348139
-0.000374285
0.00350525
-0.000372979
0.0035285
-0.000371403
0.0035513
-0.000371446
0.00357346
-0.000370147
0.00359509
-0.000371697
0.00361618
-0.000370246
0.00363656
-0.000372953
-0.000372533
0.00214596
0.000115975
0.0021287
8.12577e-05
0.00211555
4.78446e-05
0.00210617
1.49556e-05
0.00210075
-1.56333e-05
0.00209879
-4.43327e-05
0.00210025
-7.20377e-05
0.00210486
-9.85025e-05
0.00211243
-0.000123921
0.00212278
-0.000148519
0.00213578
-0.000172455
0.00215129
-0.000195928
0.00216921
-0.000219021
0.0021894
-0.000241816
0.00221174
-0.000264408
0.00223608
-0.000286894
0.0022623
-0.000309335
0.00229027
-0.000331759
0.00231983
-0.000354175
0.00235086
-0.000376562
0.0023832
-0.000398878
0.00241671
-0.000421039
0.00245123
-0.000442958
0.00248663
-0.00046448
0.00252275
-0.000485469
0.00255945
-0.000505765
0.00259657
-0.000525189
0.00263398
-0.000543558
0.00267153
-0.000560688
0.00270909
-0.000576406
0.00274655
-0.000590538
0.00278379
-0.000602944
0.00282071
-0.000613505
0.00285721
-0.000622124
0.00289323
-0.000628738
0.00292869
-0.000633314
0.00296354
-0.000635853
0.00299774
-0.000636389
0.00303128
-0.000634989
0.00306413
-0.000631746
0.00309629
-0.000626783
0.00312776
-0.000620241
0.00315858
-0.000612284
0.00318875
-0.000603087
0.00321831
-0.000592835
0.00324729
-0.000581721
0.00327574
-0.000569938
0.00330368
-0.000557676
0.00333116
-0.00054512
0.00335821
-0.000532447
0.00338487
-0.00051982
0.00341118
-0.00050739
0.00343715
-0.000495291
0.00346281
-0.000483645
0.00348818
-0.000472545
0.00351327
-0.000462084
0.00353808
-0.000452312
0.00356263
-0.000443294
0.00358689
-0.000435032
0.00361087
-0.000427581
0.00363454
-0.000420879
0.0036579
-0.000415002
0.00368092
-0.000409793
0.00370359
-0.000405414
0.00372587
-0.00040153
0.00374777
-0.000398536
0.0037692
-0.000395719
0.00379025
-0.000394028
0.00381077
-0.000391924
0.00383088
-0.000391558
0.00385046
-0.000389722
0.00386954
-0.000390779
0.0038882
-0.000388902
0.00390621
-0.000390971
-0.000390174
0.00270346
0.000151919
0.00267361
0.000111109
0.00264914
7.23218e-05
0.00262926
3.48334e-05
0.00261541
-1.78341e-06
0.00260501
-3.39384e-05
0.00259883
-6.5858e-05
0.00259651
-9.61798e-05
0.00259772
-0.000125131
0.00260221
-0.000153002
0.00260974
-0.00017999
0.00262015
-0.000206334
0.00263327
-0.00023214
0.00264892
-0.00025747
0.00266694
-0.000282423
0.00268714
-0.000307103
0.00270938
-0.000331572
0.00273348
-0.000355858
0.00275927
-0.000379967
0.00278659
-0.000403881
0.00281527
-0.000427557
0.00284514
-0.000450912
0.00287604
-0.000473856
0.00290781
-0.000496246
0.00294028
-0.000517944
0.00297331
-0.000538789
0.00300673
-0.00055861
0.0030404
-0.000577231
0.00307419
-0.000594475
0.00310796
-0.000610176
0.00314159
-0.000624175
0.00317499
-0.000636341
0.00320805
-0.000646564
0.00324069
-0.000654763
0.00327284
-0.000660887
0.00330444
-0.000664915
0.00333545
-0.000666864
0.00336584
-0.000666778
0.00339559
-0.000664737
0.00342469
-0.000660845
0.00345314
-0.000655234
0.00348095
-0.000648056
0.00350815
-0.000639481
0.00353476
-0.000629692
0.0035608
-0.000618878
0.00358631
-0.000607236
0.00361133
-0.00059496
0.0036359
-0.000582242
0.00366005
-0.000569267
0.00368381
-0.000556211
0.00370722
-0.000543232
0.00373031
-0.000530482
0.00375311
-0.000518087
0.00377563
-0.000506168
0.0037979
-0.00049481
0.00381992
-0.000484104
0.0038417
-0.000474091
0.00386324
-0.000464837
0.00388454
-0.000456332
0.0039056
-0.000448637
0.00392639
-0.000441671
0.00394692
-0.00043553
0.00396714
-0.000430019
0.00398708
-0.00042535
0.00400667
-0.000421117
0.00402594
-0.000417809
0.00404481
-0.000414591
0.00406335
-0.000412566
0.00408144
-0.00041002
0.00409917
-0.000409288
0.00411647
-0.000407021
0.00413332
-0.000407625
0.00414985
-0.000405428
0.00416582
-0.000406944
-0.000405847
0.00326772
0.00020414
0.00322331
0.000155519
0.00318589
0.000109739
0.00315466
6.60669e-05
0.00312854
2.43285e-05
0.00310917
-1.45629e-05
0.003094
-5.06842e-05
0.0030834
-8.55806e-05
0.00307699
-0.000118725
0.00307442
-0.000150427
0.00307537
-0.000180943
0.00307961
-0.000210577
0.00308693
-0.000239459
0.00309709
-0.000267633
0.00310988
-0.000295209
0.00312508
-0.000322306
0.0031425
-0.000348988
0.00316192
-0.000375285
0.00318316
-0.000401208
0.00320603
-0.000426744
0.00323032
-0.00045185
0.00325586
-0.000476451
0.00328246
-0.000500456
0.00330995
-0.000523735
0.00333816
-0.000546151
0.00336692
-0.00056755
0.00339608
-0.00058777
0.00342549
-0.000606644
0.00345502
-0.000624004
0.00348454
-0.000639696
0.00351394
-0.000653573
0.00354311
-0.000665517
0.00357198
-0.00067543
0.00360046
-0.000683243
0.00362849
-0.000688921
0.00365603
-0.000692455
0.00368304
-0.000693873
0.0037095
-0.000693234
0.00373539
-0.000690625
0.0037607
-0.000686163
0.00378546
-0.000679987
0.00380966
-0.000672258
0.00383333
-0.00066315
0.00385649
-0.000652853
0.00387917
-0.00064156
0.00390141
-0.00062947
0.00392322
-0.000616778
0.00394466
-0.000603678
0.00396574
-0.000590352
0.00398651
-0.000576975
0.00400698
-0.000563705
0.00402719
-0.000550689
0.00404715
-0.000538049
0.00406688
-0.000525904
0.00408641
-0.000514332
0.00410573
-0.000503424
0.00412485
-0.000493211
0.00414377
-0.000483763
0.0041625
-0.000475054
0.00418102
-0.000467158
0.00419932
-0.000459969
0.00421739
-0.000453609
0.00423522
-0.000447845
0.0042528
-0.000442934
0.00427009
-0.000438407
0.00428712
-0.000434836
0.00430381
-0.000431284
0.00432022
-0.000428974
0.00433627
-0.000426071
0.004352
-0.000425014
0.0043674
-0.000422418
0.00438239
-0.000422616
0.00439715
-0.000420194
0.00441145
-0.000421238
-0.000419919
0.00381349
0.00375476
0.000214254
0.00370425
0.00016025
0.00366089
0.000109423
0.00362403
6.11846e-05
0.00359408
1.53891e-05
0.00356978
-2.63852e-05
0.00355041
-6.62043e-05
0.00353587
-0.000104192
0.00352575
-0.000140303
0.00351963
-0.000174821
0.00351721
-0.000208161
0.00351823
-0.00024048
0.00352241
-0.000271807
0.00352947
-0.000302269
0.00353916
-0.000332004
0.00355126
-0.000361083
0.00356552
-0.000389544
0.00358172
-0.000417406
0.00359963
-0.000444661
0.00361906
-0.000471276
0.00363979
-0.000497184
0.00366164
-0.000522298
0.0036844
-0.000546503
0.00370792
-0.000569668
0.00373202
-0.000591649
0.00375654
-0.000612295
0.00378135
-0.000631449
0.0038063
-0.000648958
0.00383129
-0.00066468
0.0038562
-0.000678484
0.00388094
-0.000690262
0.00390545
-0.00069993
0.00392964
-0.000707435
0.00395347
-0.000712751
0.0039769
-0.000715886
0.0039999
-0.000716876
0.00402246
-0.000715791
0.00404456
-0.000712729
0.00406621
-0.000707813
0.00408742
-0.000701192
0.00410819
-0.00069303
0.00412855
-0.000683509
0.00414852
-0.00067282
0.00416812
-0.00066116
0.00418737
-0.000648728
0.00420632
-0.000635721
0.00422497
-0.000622333
0.00424336
-0.000608744
0.00426152
-0.000595128
0.00427945
-0.000581641
0.00429719
-0.000568427
0.00431475
-0.000555604
0.00433213
-0.00054329
0.00434936
-0.000531558
0.00436643
-0.000520496
0.00438335
-0.000510129
0.00440012
-0.00050053
0.00441672
-0.000491661
0.00443317
-0.000483605
0.00444944
-0.000476237
0.00446553
-0.0004697
0.00448141
-0.000463729
0.0044971
-0.000458622
0.00451255
-0.000453856
0.00452778
-0.000450067
0.00454274
-0.000446247
0.00455746
-0.000443694
0.00457191
-0.000440516
0.00458607
-0.000439173
0.00459999
-0.000436342
0.00461355
-0.000436179
0.00462698
-0.000433616
0.00464
-0.000434266
-0.000432798
0.00424114
0.000284447
0.00417979
0.0002216
0.0041264
0.000162814
0.0040801
0.000107487
0.00404008
5.54024e-05
0.00400833
5.3673e-06
0.00398102
-3.88896e-05
0.00395883
-8.20052e-05
0.00394154
-0.000123011
0.00392865
-0.000161929
0.0039198
-0.000199316
0.00391468
-0.00023536
0.00391295
-0.000270079
0.00391431
-0.000303629
0.00391848
-0.000336172
0.00392519
-0.000367791
0.00393418
-0.000398532
0.0039452
-0.000428427
0.00395802
-0.000457479
0.00397241
-0.000485666
0.00398815
-0.000512932
0.00400506
-0.000539202
0.00402293
-0.000564372
0.00404158
-0.000588325
0.00406086
-0.000610929
0.00408061
-0.000632045
0.0041007
-0.000651531
0.00412099
-0.00066925
0.00414138
-0.000685071
0.00416177
-0.00069888
0.00418209
-0.000710583
0.00420227
-0.000720108
0.00422225
-0.000727416
0.00424199
-0.000732493
0.00426147
-0.000735357
0.00428065
-0.000736057
0.00429952
-0.000734669
0.0043181
-0.0007313
0.00433636
-0.000726079
0.00435433
-0.00071916
0.00437201
-0.000710713
0.00438942
-0.000700921
0.00440658
-0.000689978
0.0044235
-0.000678082
0.00444021
-0.000665435
0.00445672
-0.000652231
0.00447305
-0.000638664
0.00448922
-0.000624913
0.00450524
-0.000611152
0.00452114
-0.000597531
0.0045369
-0.000584196
0.00455256
-0.00057126
0.00456811
-0.000558839
0.00458355
-0.000547002
0.0045989
-0.000535839
0.00461413
-0.000525366
0.00462926
-0.000515661
0.00464428
-0.000506674
0.00465917
-0.000498498
0.00467393
-0.000490993
0.00468855
-0.000484319
0.004703
-0.000478186
0.0047173
-0.000472921
0.00473141
-0.000467968
0.00474535
-0.000463999
0.00475907
-0.000459975
0.00477259
-0.000457214
0.00478592
-0.000453837
0.00479899
-0.000452242
0.0048119
-0.000449259
0.0048245
-0.000448779
0.00483704
-0.000446149
0.00484924
-0.00044647
-0.000444921
0.00465677
0.000360837
0.00458902
0.00028935
0.00452921
0.000222624
0.0044767
0.000159997
0.00443103
0.000101072
0.00439086
4.55426e-05
0.00435899