/*--------------------------------*- C++ -*----------------------------------*\
  =========                 |
  \\      /  F ield         | OpenFOAM: The Open Source CFD Toolbox
   \\    /   O peration     | Website:  https://openfoam.org
    \\  /    A nd           | Version:  7
     \\/     M anipulation  |
\*---------------------------------------------------------------------------*/
FoamFile
{
    version     2.0;
    format      ascii;
    class       volVectorField;
    location    "60";
    object      U;
}
// * * * * * * * * * * * * * * * * * * * * * * * * * * * * * * * * * * * * * //

dimensions      [0 1 -1 0 0 0 0];

internalField   nonuniform List<vector> 
3700
(
(-0.208966 0.000625179 2.08089e-22)
(-0.213212 0.000420195 -2.6687e-21)
(-0.2169 0.00026222 2.90682e-21)
(-0.219966 0.000152628 -3.59732e-21)
(-0.222487 9.11881e-05 1.91388e-21)
(-0.224479 7.58053e-05 -7.04792e-22)
(-0.225963 0.000104701 3.04855e-21)
(-0.226958 0.000173686 -1.70723e-21)
(-0.227491 0.000270728 1.55433e-21)
(-0.227592 0.000392788 -7.22062e-22)
(-0.227273 0.000550196 -1.19081e-21)
(-0.226538 0.000725251 -6.23354e-22)
(-0.22539 0.000907557 6.15527e-22)
(-0.223831 0.00108716 -5.15695e-22)
(-0.221862 0.00125343 7.33956e-22)
(-0.219488 0.00139651 -2.61946e-22)
(-0.216711 0.00150429 -9.12258e-22)
(-0.21353 0.00156759 1.96328e-21)
(-0.209948 0.00157725 -2.29822e-21)
(-0.205966 0.00152528 -4.12846e-22)
(-0.201577 0.00140429 2.07742e-21)
(-0.196792 0.00118513 -3.1495e-22)
(-0.191623 0.000891025 -3.30253e-22)
(-0.186063 0.00052169 3.84699e-22)
(-0.18012 7.87817e-05 -1.59091e-21)
(-0.173797 -0.000434073 1.20479e-21)
(-0.167105 -0.00100381 8.36333e-23)
(-0.160056 -0.001626 -3.47184e-22)
(-0.152659 -0.0022876 -1.46649e-21)
(-0.144927 -0.00297506 1.22872e-21)
(-0.136871 -0.00367332 6.579e-22)
(-0.128508 -0.00436664 -1.17345e-21)
(-0.119849 -0.00504117 -3.08997e-23)
(-0.110913 -0.00567393 -3.84215e-22)
(-0.101721 -0.00625403 1.03765e-21)
(-0.0922892 -0.00676573 -6.70967e-22)
(-0.0826358 -0.00719589 1.8577e-22)
(-0.072779 -0.00753369 -3.51348e-22)
(-0.0627387 -0.0077696 -8.73776e-23)
(-0.0525355 -0.00789755 2.05814e-22)
(-0.0421891 -0.00791344 -9.61363e-23)
(-0.0317177 -0.00781431 4.86401e-23)
(-0.0211407 -0.00760447 -9.29584e-23)
(-0.0104771 -0.00728484 9.44688e-23)
(0.000255852 -0.00686379 -4.00862e-23)
(0.0110403 -0.00634974 -1.1566e-22)
(0.0218595 -0.00575368 9.28948e-24)
(0.0326975 -0.0050884 -3.09511e-22)
(0.0435388 -0.00436811 3.02916e-22)
(0.0543688 -0.00360795 -9.89304e-23)
(0.0651739 -0.00282341 -1.65798e-22)
(0.0759409 -0.00203003 9.96993e-23)
(0.0866576 -0.00124448 -9.6309e-23)
(0.0973133 -0.000481889 -1.03264e-23)
(0.107898 0.000243283 -6.4954e-23)
(0.118402 0.000917644 2.32064e-23)
(0.128818 0.00152918 1.71926e-23)
(0.139138 0.0020675 -3.29502e-23)
(0.149359 0.00252309 8.65448e-24)
(0.159473 0.00288274 2.58792e-24)
(0.169473 0.00314944 -7.62157e-24)
(0.17936 0.00331883 -1.80166e-23)
(0.18913 0.00338888 1.02385e-23)
(0.198781 0.00335966 1.66499e-23)
(0.208314 0.00323323 -2.20353e-24)
(0.217725 0.00301312 -2.72742e-23)
(0.227019 0.00270453 -4.37002e-24)
(0.236189 0.00231338 2.54168e-24)
(0.245256 0.00184442 -1.56458e-24)
(0.25418 0.00130879 2.70464e-24)
(0.263057 0.000715501 2.88882e-24)
(0.271684 7.00719e-05 -3.69166e-24)
(0.28054 -0.000612777 -2.26894e-24)
(0.288557 -0.00134373 -1.92032e-25)
(0.298175 -0.00208111 -1.36476e-25)
(0.303968 -0.00287708 -1.87306e-25)
(0.318091 -0.00381818 7.11398e-25)
(-0.200003 0.00311973 -1.54933e-21)
(-0.204023 0.00254079 4.81687e-21)
(-0.2075 0.0020419 -4.40586e-21)
(-0.210369 0.00161724 -2.91909e-21)
(-0.212703 0.00126035 -1.7369e-21)
(-0.214515 0.000963594 2.80116e-21)
(-0.215826 0.000722755 -3.91308e-21)
(-0.216655 0.00053391 1.1205e-20)
(-0.217028 0.000394004 -4.99802e-21)
(-0.216964 0.000306731 -8.62989e-22)
(-0.216483 0.000232309 1.76997e-21)
(-0.215593 0.000175164 -2.62172e-21)
(-0.21429 0.000127967 3.08637e-21)
(-0.212576 8.05783e-05 -2.06515e-21)
(-0.210451 2.13939e-05 -3.27141e-21)
(-0.207921 -5.81915e-05 -1.20689e-21)
(-0.204987 -0.000172996 4.55879e-21)
(-0.201649 -0.000331707 -1.09563e-21)
(-0.197909 -0.000543479 6.96095e-21)
(-0.193769 -0.000815332 -7.32296e-21)
(-0.189242 -0.00115326 -8.92345e-22)
(-0.18432 -0.00158281 3.8823e-21)
(-0.178998 -0.00208452 -3.75565e-22)
(-0.173292 -0.00265893 1.3463e-21)
(-0.16721 -0.00330333 -3.56251e-21)
(-0.160754 -0.00401443 4.59717e-21)
(-0.15394 -0.00477379 -2.965e-21)
(-0.14678 -0.00558031 1.66362e-21)
(-0.139284 -0.00641864 -4.91023e-22)
(-0.131467 -0.00727507 1.96384e-21)
(-0.123343 -0.00813394 3.21141e-23)
(-0.11493 -0.00897856 -1.10539e-21)
(-0.10624 -0.00979685 -1.35787e-21)
(-0.0972922 -0.01056 3.37836e-21)
(-0.0881106 -0.011261 -1.79806e-21)
(-0.0787103 -0.0118832 1.0713e-22)
(-0.069111 -0.0124132 5.18594e-22)
(-0.05933 -0.0128409 -1.49012e-21)
(-0.0493865 -0.0131551 1.50383e-21)
(-0.0393005 -0.013351 -7.79822e-22)
(-0.0290894 -0.0134245 -1.66703e-22)
(-0.0187703 -0.0133735 7.96152e-22)
(-0.00836018 -0.0132016 5.0096e-22)
(0.00212463 -0.0129113 -1.38382e-21)
(0.012669 -0.0125102 1.00715e-21)
(0.0232582 -0.0120077 -9.69973e-22)
(0.0338785 -0.011415 1.86095e-21)
(0.0445166 -0.0107453 -8.86114e-22)
(0.05516 -0.0100132 -5.88933e-22)
(0.065797 -0.00923434 6.2145e-22)
(0.0764164 -0.00842486 -2.1918e-22)
(0.0870074 -0.00760156 9.47448e-23)
(0.0975601 -0.00678023 -5.2305e-24)
(0.108065 -0.00597682 -4.71154e-23)
(0.118514 -0.00520636 4.51964e-22)
(0.128898 -0.00448271 -1.59086e-22)
(0.139211 -0.00381837 1.36221e-22)
(0.149444 -0.00322412 -7.07888e-23)
(0.15959 -0.00270959 -2.14482e-22)
(0.169644 -0.00228838 -9.64197e-23)
(0.179605 -0.00195834 1.90312e-22)
(0.189463 -0.00172418 -4.78842e-23)
(0.199216 -0.00158826 -1.16927e-23)
(0.208859 -0.00155072 8.02271e-23)
(0.218391 -0.00160994 3.84423e-24)
(0.227806 -0.00176244 7.31915e-24)
(0.237108 -0.00200375 1.34854e-23)
(0.246285 -0.00232742 -2.18681e-23)
(0.255358 -0.00273055 3.56524e-23)
(0.264283 -0.00320022 1.5899e-23)
(0.27316 -0.00373113 -3.41712e-23)
(0.281768 -0.00431447 6.46159e-24)
(0.290609 -0.00493795 1.52865e-23)
(0.298573 -0.00562131 -2.01751e-24)
(0.308151 -0.00628629 9.52848e-26)
(0.313865 -0.00709167 3.78745e-25)
(0.327814 -0.00789591 -1.37087e-24)
(-0.182071 0.00541862 8.61123e-21)
(-0.18565 0.00447545 -1.66902e-20)
(-0.188716 0.00364498 1.23912e-20)
(-0.191202 0.00291254 -8.92294e-22)
(-0.193171 0.00226648 -8.97489e-21)
(-0.194636 0.00169481 1.11124e-20)
(-0.195612 0.00119344 3.62419e-22)
(-0.196113 0.000764014 4.54091e-21)
(-0.196158 0.000404958 -4.13526e-21)
(-0.195794 6.47871e-05 -2.31247e-21)
(-0.195029 -0.000249479 1.18749e-20)
(-0.193845 -0.000538299 -1.60112e-20)
(-0.192253 -0.00081302 1.08535e-20)
(-0.190254 -0.00108538 2.199e-21)
(-0.187847 -0.00136838 -1.64596e-20)
(-0.185039 -0.00166854 1.01923e-20)
(-0.181832 -0.0020043 -9.62679e-22)
(-0.178225 -0.00238417 -2.16872e-21)
(-0.174221 -0.00281826 -5.13961e-22)
(-0.169822 -0.0033142 -6.12896e-21)
(-0.165036 -0.00387855 2.88344e-21)
(-0.159863 -0.00449934 -1.91988e-21)
(-0.154306 -0.00519435 5.42026e-21)
(-0.148374 -0.00596164 -2.19355e-21)
(-0.142078 -0.00679601 4.56058e-21)
(-0.135418 -0.00769521 -4.04264e-21)
(-0.128415 -0.00863238 3.91698e-21)
(-0.121085 -0.00961173 -5.54915e-21)
(-0.113439 -0.0106158 -3.07379e-21)
(-0.105492 -0.0116299 3.89561e-21)
(-0.0972614 -0.0126376 1.54631e-21)
(-0.0887686 -0.0136208 -2.62435e-21)
(-0.0800217 -0.0145737 -1.0141e-21)
(-0.0710446 -0.0154541 4.10702e-21)
(-0.0618638 -0.0162639 -2.80784e-21)
(-0.0524927 -0.0169846 8.32645e-22)
(-0.0429524 -0.0176026 -3.54249e-21)
(-0.033259 -0.0181096 3.20795e-21)
(-0.023431 -0.0184909 -2.14311e-21)
(-0.0134882 -0.0187441 1.70848e-21)
(-0.00344587 -0.0188655 -9.62635e-22)
(0.00668054 -0.0188538 -2.97739e-22)
(0.0168764 -0.018712 -4.49296e-22)
(0.027128 -0.0184442 -1.463e-21)
(0.037423 -0.0180582 2.35104e-21)
(0.0477497 -0.0175635 2.1205e-22)
(0.0580972 -0.0169721 -8.28306e-22)
(0.0684557 -0.0162976 4.92408e-22)
(0.0788156 -0.015555 -1.11054e-22)
(0.0891682 -0.0147601 2.11769e-22)
(0.0995052 -0.0139297 3.33223e-23)
(0.109819 -0.0130805 -2.24893e-23)
(0.120101 -0.0122291 -1.22542e-21)
(0.130344 -0.0113915 3.29485e-22)
(0.140542 -0.0105831 -1.98007e-22)
(0.150687 -0.00981822 3.53578e-22)
(0.160773 -0.00910978 -3.52174e-22)
(0.170793 -0.00846922 1.27811e-23)
(0.18074 -0.00790639 -2.76623e-22)
(0.190609 -0.00742517 4.25153e-22)
(0.200395 -0.00703574 -7.48743e-23)
(0.21009 -0.00674136 -1.77642e-23)
(0.21969 -0.00654382 -1.43387e-23)
(0.22919 -0.00644318 4.06485e-23)
(0.238585 -0.00643813 2.79675e-23)
(0.247869 -0.00652525 6.98655e-23)
(0.257043 -0.00670093 -3.74561e-23)
(0.266092 -0.00695836 -3.81758e-23)
(0.275039 -0.00729175 5.25675e-23)
(0.28383 -0.00769219 -8.10712e-24)
(0.292577 -0.00815623 3.32579e-23)
(0.301033 -0.00867378 -7.95141e-24)
(0.309739 -0.00923026 3.5839e-24)
(0.317514 -0.00986063 1.55767e-24)
(0.326943 -0.0104429 -4.05961e-24)
(0.332459 -0.0112395 3.36602e-24)
(0.346061 -0.0119093 2.1829e-25)
(-0.155237 0.00741029 9.82603e-21)
(-0.158196 0.00612282 -1.49776e-20)
(-0.16068 0.00497843 1.68831e-20)
(-0.162628 0.00395258 -2.03456e-21)
(-0.164086 0.00302864 5.36356e-21)
(-0.165062 0.00218893 5.45679e-21)
(-0.165563 0.00142629 -1.07669e-20)
(-0.165604 0.000753284 5.13543e-21)
(-0.165231 0.00015497 -1.05291e-20)
(-0.164458 -0.000435554 -5.24159e-22)
(-0.163268 -0.00097786 2.3477e-20)
(-0.161676 -0.00149109 -2.01088e-20)
(-0.159686 -0.00198808 -2.60353e-21)
(-0.157297 -0.0024806 1.29657e-20)
(-0.154506 -0.00298231 -8.84101e-22)
(-0.151321 -0.00349516 -3.37663e-21)
(-0.147745 -0.00404178 1.94077e-21)
(-0.143778 -0.00462952 2.45652e-21)
(-0.139422 -0.00526832 2.00632e-21)
(-0.134681 -0.00596593 -6.97081e-22)
(-0.129562 -0.00672809 -8.10259e-21)
(-0.124068 -0.00755293 4.63101e-21)
(-0.118204 -0.00844508 5.36718e-21)
(-0.111981 -0.0094033 4.54922e-21)
(-0.105413 -0.0104217 -1.37654e-20)
(-0.0984972 -0.0115045 1.07499e-20)
(-0.0912572 -0.0126092 -5.25796e-21)
(-0.0837159 -0.0137506 3.04699e-21)
(-0.0758823 -0.0149085 -5.91807e-21)
(-0.0677757 -0.0160671 6.84985e-21)
(-0.0594133 -0.017209 -1.88988e-21)
(-0.0508241 -0.0183148 1.15e-21)
(-0.0420089 -0.0193925 2.41066e-21)
(-0.0329934 -0.0203726 2.10948e-21)
(-0.0238127 -0.0212747 -1.54855e-21)
(-0.0144759 -0.0220784 5.78595e-23)
(-0.00500584 -0.0227696 9.48947e-22)
(0.00458328 -0.0233368 -3.4116e-21)
(0.014274 -0.0237718 -4.6781e-22)
(0.0240455 -0.0240693 2.67227e-21)
(0.0338851 -0.024226 -1.59523e-21)
(0.0437793 -0.0242419 2.84669e-21)
(0.0537157 -0.02412 9.90633e-22)
(0.0636832 -0.0238654 -2.22308e-21)
(0.0736722 -0.0234864 1.62007e-21)
(0.083674 -0.0229932 -3.09625e-22)
(0.0936811 -0.0223981 9.77325e-22)
(0.103687 -0.0217153 -5.08218e-22)
(0.113684 -0.0209599 -2.28713e-22)
(0.123669 -0.0201484 -1.26452e-22)
(0.133634 -0.0192974 2.47817e-22)
(0.143576 -0.0184242 8.48403e-22)
(0.153489 -0.0175452 -1.18719e-21)
(0.163368 -0.0166769 6.57501e-22)
(0.173207 -0.0158346 2.93017e-22)
(0.183002 -0.0150327 1.7385e-22)
(0.192748 -0.0142841 -1.95873e-22)
(0.202437 -0.0136004 6.67543e-22)
(0.212064 -0.0129908 -2.96114e-22)
(0.221623 -0.0124614 -3.63555e-22)
(0.231109 -0.0120204 4.219e-23)
(0.240515 -0.0116716 4.35799e-22)
(0.249835 -0.0114169 1.23852e-22)
(0.259061 -0.0112567 -2.15127e-22)
(0.26819 -0.0111898 1.37261e-23)
(0.277213 -0.011213 -2.12939e-23)
(0.28613 -0.0113231 -1.69047e-24)
(0.294923 -0.0115129 5.42477e-23)
(0.303618 -0.0117783 -1.01366e-22)
(0.312147 -0.0121097 6.74461e-23)
(0.320643 -0.0125038 -1.66752e-23)
(0.32882 -0.0129539 -1.28198e-23)
(0.337279 -0.0134364 -7.1885e-24)
(0.344739 -0.0140109 -1.07464e-23)
(0.353912 -0.0145023 6.28529e-24)
(0.35913 -0.0152714 -2.12783e-24)
(0.372226 -0.0158166 -1.60791e-24)
(-0.119533 0.00900207 1.59417e-21)
(-0.121745 0.00740025 -1.3239e-20)
(-0.123528 0.00596528 2.39805e-20)
(-0.124828 0.00466529 -2.45179e-20)
(-0.125675 0.00347946 2.44099e-20)
(-0.126071 0.00238742 -9.42963e-21)
(-0.126011 0.00138984 -3.02657e-21)
(-0.125505 0.000503355 -2.76298e-20)
(-0.124615 -0.000379116 4.26591e-20)
(-0.123344 -0.00119019 -4.13288e-20)
(-0.121669 -0.00195532 3.03885e-20)
(-0.119599 -0.00268884 -6.0058e-21)
(-0.117139 -0.00340361 6.28796e-23)
(-0.114292 -0.00411136 -4.60771e-21)
(-0.111051 -0.00482813 -1.30524e-21)
(-0.107425 -0.00554929 9.9331e-21)
(-0.103419 -0.00630339 -4.88197e-21)
(-0.0990332 -0.00709623 -2.95488e-21)
(-0.0942707 -0.00793719 -4.49291e-21)
(-0.0891365 -0.00883314 -6.99529e-21)
(-0.0836369 -0.0097885 1.15071e-20)
(-0.0777783 -0.0108038 -1.35898e-20)
(-0.0715686 -0.0118808 8.80907e-21)
(-0.0650175 -0.0130171 2.54729e-21)
(-0.0581495 -0.0142057 -8.56593e-21)
(-0.0509524 -0.0154693 7.83693e-21)
(-0.0434513 -0.0167265 -5.62099e-21)
(-0.0356815 -0.0180152 5.00427e-21)
(-0.0276478 -0.0193123 -4.13173e-21)
(-0.0193722 -0.0206009 -5.76682e-21)
(-0.0108727 -0.0218632 -6.71749e-21)
(-0.00219066 -0.0230847 1.10873e-20)
(0.00668541 -0.0242401 9.74092e-22)
(0.0157348 -0.0253131 1.12903e-21)
(0.0249013 -0.0262931 -6.69472e-21)
(0.0341858 -0.027163 2.25405e-22)
(0.0435661 -0.0279103 4.13415e-21)
(0.0530253 -0.0285206 -6.18583e-21)
(0.0625473 -0.0289926 3.74672e-21)
(0.0721144 -0.0293182 -2.44795e-21)
(0.0817141 -0.0294949 -2.08692e-21)
(0.0913347 -0.0295239 -1.84666e-21)
(0.100966 -0.0294086 4.45717e-21)
(0.1106 -0.0291553 -1.23338e-21)
(0.120229 -0.0287727 -1.51811e-21)
(0.129847 -0.0282717 9.73711e-22)
(0.139451 -0.0276652 -3.46337e-23)
(0.149037 -0.0269678 -1.43029e-21)
(0.158601 -0.026195 2.16263e-21)
(0.168142 -0.0253634 -2.33339e-21)
(0.177656 -0.0244901 -2.87437e-22)
(0.187142 -0.0235921 1.42256e-21)
(0.196597 -0.0226862 -1.70533e-21)
(0.206018 -0.0217887 9.22814e-22)
(0.215403 -0.020915 6.85452e-22)
(0.224748 -0.0200791 -1.27436e-21)
(0.234048 -0.019294 2.41687e-22)
(0.2433 -0.018571 -3.43744e-22)
(0.252497 -0.0179193 -2.41756e-22)
(0.261635 -0.0173461 3.4926e-22)
(0.270707 -0.0168579 -2.32859e-22)
(0.279708 -0.0164588 -1.67387e-22)
(0.28863 -0.0161509 1.79572e-22)
(0.297465 -0.0159345 9.63075e-23)
(0.30621 -0.0158086 -1.27688e-22)
(0.314852 -0.0157701 -1.57396e-22)
(0.323395 -0.0158159 -5.0669e-23)
(0.331813 -0.0159395 4.45946e-23)
(0.340141 -0.0161368 4.08776e-23)
(0.348293 -0.0163994 -7.15283e-23)
(0.356429 -0.016721 -2.02989e-23)
(0.364211 -0.0171037 3.14613e-23)
(0.372322 -0.0175063 -2.35193e-23)
(0.379359 -0.0180236 -7.11458e-24)
(0.388175 -0.0184191 -9.34908e-24)
(0.393016 -0.0191432 -1.97033e-24)
(0.405459 -0.0195775 2.67195e-24)
(-0.0762915 0.00826062 2.81657e-20)
(-0.0773243 0.00656386 -3.40648e-20)
(-0.0779336 0.0050132 4.37239e-21)
(-0.0781296 0.0035836 1.51371e-20)
(-0.0779007 0.00224749 -1.53955e-20)
(-0.0772285 0.00100304 -2.41621e-20)
(-0.076181 -0.000103836 1.68514e-20)
(-0.0747729 -0.00121646 2.14125e-20)
(-0.0729573 -0.00225198 -4.8873e-21)
(-0.070759 -0.00323356 2.10265e-20)
(-0.0681824 -0.00417886 -2.95613e-20)
(-0.0652272 -0.00510168 -1.0677e-20)
(-0.0619002 -0.00601496 2.81288e-20)
(-0.0581886 -0.00694611 -7.57877e-21)
(-0.0541006 -0.00786703 7.21444e-21)
(-0.0496476 -0.00881893 -2.97607e-20)
(-0.0448263 -0.00980745 3.00669e-20)
(-0.0396428 -0.0108411 -2.20324e-20)
(-0.0341027 -0.011926 2.3267e-21)
(-0.0282136 -0.0130659 2.2514e-20)
(-0.0219839 -0.0142618 -1.12619e-20)
(-0.0154236 -0.0155137 1.85032e-21)
(-0.00854204 -0.0168187 2.00427e-21)
(-0.00138154 -0.0181775 -1.48342e-20)
(0.00608602 -0.0195661 3.88774e-21)
(0.0138462 -0.0209731 2.64536e-21)
(0.0218318 -0.0223975 2.09556e-21)
(0.0300495 -0.0238194 4.58105e-21)
(0.0384746 -0.025222 -8.0049e-22)
(0.0470861 -0.0265879 4.48002e-21)
(0.0558521 -0.0279059 -2.25592e-21)
(0.0647616 -0.0291215 2.52213e-21)
(0.0737995 -0.0302697 -7.39531e-21)
(0.0829238 -0.0313084 7.83495e-21)
(0.0921229 -0.0322251 -6.07612e-21)
(0.101377 -0.0330084 6.3398e-21)
(0.110668 -0.0336469 1.44787e-21)
(0.119981 -0.0341367 5.91389e-21)
(0.129301 -0.0344722 -7.57379e-21)
(0.138616 -0.0346521 -5.20194e-22)
(0.147916 -0.0346782 1.5007e-21)
(0.157193 -0.0345549 3.17304e-21)
(0.166442 -0.0342892 5.51627e-21)
(0.175657 -0.0338908 -2.37976e-22)
(0.184836 -0.0333712 -5.34283e-21)
(0.193978 -0.0327439 2.9847e-21)
(0.203082 -0.0320239 1.9815e-21)
(0.212148 -0.0312271 -2.12621e-21)
(0.221176 -0.0303705 -1.43934e-23)
(0.230168 -0.029471 6.04604e-23)
(0.239123 -0.0285459 1.40034e-21)
(0.248042 -0.0276118 1.47926e-22)
(0.256925 -0.026685 -7.78266e-22)
(0.26577 -0.0257805 4.39438e-22)
(0.274577 -0.0249124 2.44651e-22)
(0.283342 -0.0240931 -9.67662e-23)
(0.292063 -0.0233338 9.93873e-22)
(0.300734 -0.0226435 3.11057e-22)
(0.309352 -0.0220293 -4.59689e-22)
(0.317911 -0.0214973 -2.97254e-22)
(0.326404 -0.0210514 5.52912e-22)
(0.334825 -0.0206934 -3.04796e-23)
(0.343166 -0.020424 -1.96708e-23)
(0.351422 -0.0202419 2.88133e-22)
(0.35958 -0.0201443 5.22594e-23)
(0.367646 -0.0201277 2.65254e-23)
(0.375586 -0.0201869 1.46114e-22)
(0.383446 -0.0203162 1.73725e-23)
(0.391119 -0.0205113 1.43607e-22)
(0.398799 -0.0207587 5.25414e-24)
(0.40609 -0.0210753 1.89614e-23)
(0.413761 -0.0213939 -5.32328e-24)
(0.420286 -0.0218537 5.45197e-23)
(0.42865 -0.0221519 7.81514e-24)
(0.433062 -0.0228166 4.63523e-24)
(0.444723 -0.0231541 -3.10035e-24)
(-0.0216657 0.00870488 -2.41227e-20)
(-0.0219982 0.00677791 3.0345e-20)
(-0.0219644 0.00500185 -2.02389e-20)
(-0.0215607 0.00334932 -4.90289e-21)
(-0.0207676 0.00179607 1.55567e-20)
(-0.0195279 0.000382135 2.09559e-20)
(-0.017943 -0.00104206 -2.30857e-20)
(-0.0160313 -0.00236403 -2.23164e-20)
(-0.0137258 -0.00360661 4.44914e-20)
(-0.0110459 -0.00479686 -4.1312e-20)
(-0.00799586 -0.00594837 3.61843e-21)
(-0.00457629 -0.00707472 3.60045e-20)
(-0.000804305 -0.00819479 -1.87292e-21)
(0.00334288 -0.00930865 -2.5046e-20)
(0.00786698 -0.0104262 -5.80444e-21)
(0.0127371 -0.0115701 3.43024e-21)
(0.0179621 -0.0127469 1.35697e-20)
(0.0235349 -0.0139644 -3.11112e-20)
(0.029448 -0.0152285 2.96102e-20)
(0.0356924 -0.0165424 -2.15254e-20)
(0.0422575 -0.0179069 -5.57466e-21)
(0.0491308 -0.0193214 1.69979e-20)
(0.0562996 -0.0207823 -8.9452e-25)
(0.0637351 -0.022294 2.19819e-20)
(0.0714319 -0.0237932 -1.69002e-20)
(0.0793847 -0.0253364 -1.1451e-20)
(0.0875445 -0.0268796 2.53413e-20)
(0.0959001 -0.0284088 -1.45923e-20)
(0.104426 -0.0299068 -2.89898e-21)
(0.113101 -0.0313557 -1.13723e-20)
(0.121894 -0.0327414 1.73065e-21)
(0.130787 -0.0340277 -7.81254e-22)
(0.139763 -0.0352214 -2.85671e-21)
(0.148789 -0.0362964 4.76326e-21)
(0.157848 -0.0372396 5.30841e-22)
(0.166919 -0.0380395 -9.60718e-22)
(0.175987 -0.0386864 4.21937e-21)
(0.185036 -0.0391756 -5.86248e-21)
(0.194053 -0.0395034 6.25139e-21)
(0.203028 -0.0396695 -8.86903e-21)
(0.211952 -0.0396766 5.48843e-21)
(0.220819 -0.0395301 -5.75064e-21)
(0.229626 -0.0392382 2.29622e-21)
(0.238372 -0.0388111 3.3564e-22)
(0.247055 -0.0382614 9.25915e-22)
(0.255677 -0.037603 1.62095e-21)
(0.26424 -0.0368514 -3.71165e-21)
(0.272747 -0.0360231 -1.69232e-21)
(0.281201 -0.035135 4.51969e-21)
(0.289606 -0.0342044 -2.7717e-22)
(0.297965 -0.0332484 -2.51552e-23)
(0.30628 -0.0322836 -2.22907e-21)
(0.314554 -0.0313259 -1.21967e-22)
(0.322788 -0.0303901 -1.21358e-21)
(0.330982 -0.02949 1.21139e-21)
(0.339135 -0.0286377 5.84518e-23)
(0.347245 -0.0278438 -1.16516e-21)
(0.355309 -0.027117 1.08409e-21)
(0.363324 -0.0264643 -9.45527e-22)
(0.371285 -0.0258911 1.46322e-22)
(0.379184 -0.0254012 2.3843e-23)
(0.387018 -0.0249963 -4.34806e-22)
(0.394777 -0.0246768 6.67042e-22)
(0.402457 -0.024441 -9.65108e-25)
(0.410043 -0.0242871 -9.76723e-23)
(0.417544 -0.0242102 -1.69395e-22)
(0.42492 -0.0242075 -3.76804e-23)
(0.432228 -0.0242698 -6.51509e-24)
(0.439338 -0.0243999 -9.65317e-24)
(0.446482 -0.0245723 -7.33915e-24)
(0.453202 -0.0248255 -6.46746e-23)
(0.460356 -0.0250582 -4.24063e-24)
(0.466304 -0.0254606 -2.79537e-24)
(0.47413 -0.0256642 2.0834e-24)
(0.478079 -0.0262585 -9.14305e-24)
(0.488854 -0.0265121 1.65603e-24)
(0.0425193 0.00878938 3.42869e-20)
(0.0427033 0.0066667 -3.63197e-20)
(0.0432168 0.00468856 3.17899e-20)
(0.0440758 0.002831 -3.7941e-20)
(0.0453363 0.00107076 2.18165e-20)
(0.046958 -0.000561847 3.22983e-20)
(0.0488992 -0.0022189 -4.66411e-20)
(0.051234 -0.00375314 5.50462e-20)
(0.0539354 -0.0052059 -4.10142e-20)
(0.0569979 -0.0065999 -1.77644e-20)
(0.060422 -0.00795161 4.97027e-21)
(0.064208 -0.00927533 3.61427e-20)
(0.0683476 -0.0105929 -3.58248e-20)
(0.0728432 -0.0118822 3.45142e-20)
(0.0777028 -0.0131911 -1.8738e-21)
(0.0829065 -0.014519 4.98778e-21)
(0.0884529 -0.0158751 -1.35146e-20)
(0.0943337 -0.0172669 1.00457e-20)
(0.100539 -0.0186995 -1.32058e-21)
(0.107059 -0.0201759 -9.01878e-21)
(0.11388 -0.0216962 1.94399e-20)
(0.120987 -0.0232588 -1.91611e-20)
(0.128365 -0.0248582 1.98742e-20)
(0.135988 -0.0264951 -2.21114e-21)
(0.143838 -0.0281309 -1.71955e-20)
(0.151909 -0.0297824 -9.88386e-21)
(0.16016 -0.0314245 1.26257e-20)
(0.168572 -0.0330418 -1.15843e-20)
(0.177118 -0.0346166 -1.32729e-20)
(0.185774 -0.0361301 3.03663e-20)
(0.194512 -0.0375666 -1.32519e-20)
(0.203308 -0.0388985 -7.24326e-21)
(0.212145 -0.0401205 -5.55594e-21)
(0.220994 -0.0412137 2.47144e-20)
(0.229833 -0.0421647 -1.45911e-20)
(0.238646 -0.0429629 -1.54412e-21)
(0.247416 -0.0435998 6.59351e-21)
(0.256128 -0.0440709 4.59218e-21)
(0.264771 -0.0443741 -7.70306e-21)
(0.273337 -0.0445101 1.71355e-21)
(0.281818 -0.0444829 -5.46842e-21)
(0.29021 -0.0442989 7.28147e-21)
(0.298513 -0.0439672 -3.85768e-21)
(0.306727 -0.0434991 8.53525e-23)
(0.314853 -0.0429079 4.11604e-21)
(0.322896 -0.0422082 -6.52268e-21)
(0.33086 -0.0414162 4.29063e-21)
(0.33875 -0.0405485 -4.84358e-21)
(0.346573 -0.0396224 4.99096e-21)
(0.354334 -0.0386552 -2.67392e-21)
(0.362038 -0.037664 -1.44083e-21)
(0.369691 -0.0366651 -5.94955e-22)
(0.377296 -0.0356742 1.11208e-21)
(0.384857 -0.0347058 -4.76863e-22)
(0.392376 -0.0337731 6.16446e-22)
(0.399853 -0.0328878 1.29554e-21)
(0.407288 -0.0320602 -5.90756e-22)
(0.414679 -0.0312982 -1.1248e-22)
(0.422023 -0.0306088 -2.90679e-22)
(0.429316 -0.0299966 -6.66854e-22)
(0.436553 -0.0294654 7.80626e-22)
(0.443729 -0.029016 -4.8945e-22)
(0.450835 -0.0286493 -8.03801e-22)
(0.457869 -0.0283626 2.36289e-22)
(0.464812 -0.0281554 7.83557e-23)
(0.471679 -0.0280206 -1.84314e-22)
(0.478421 -0.0279592 2.90459e-23)
(0.48511 -0.0279561 -3.77503e-23)
(0.491591 -0.0280247 -1.70374e-22)
(0.498134 -0.0281228 7.76928e-23)
(0.504224 -0.0283161 -1.04323e-22)
(0.510796 -0.0284636 -3.0997e-23)
(0.516124 -0.0288088 -4.84209e-24)
(0.523335 -0.028924 -1.47028e-23)
(0.526811 -0.0294413 1.26684e-24)
(0.536614 -0.0296216 2.57244e-24)
(0.116863 0.00865557 -8.73177e-20)
(0.117207 0.00636248 -1.61223e-20)
(0.117885 0.00419695 5.72335e-20)
(0.118903 0.00214281 -1.40949e-20)
(0.120332 0.0001685 3.47076e-20)
(0.122136 -0.00175429 -2.76509e-20)
(0.124272 -0.0035739 1.65181e-21)
(0.126792 -0.00530357 2.07133e-20)
(0.129687 -0.00695836 -6.04512e-21)
(0.132948 -0.00855187 -2.43371e-20)
(0.136574 -0.0100994 2.69125e-20)
(0.140563 -0.0116146 1.04549e-21)
(0.144907 -0.0131179 -7.73127e-21)
(0.149604 -0.0146027 7.40783e-22)
(0.154658 -0.0160931 3.18422e-20)
(0.160054 -0.017597 -1.80153e-20)
(0.165785 -0.0191242 -2.42791e-20)
(0.171841 -0.0206816 -2.64302e-23)
(0.17821 -0.0222735 3.17094e-20)
(0.184878 -0.0239021 -2.03005e-20)
(0.19183 -0.0255671 1.8031e-20)
(0.199048 -0.0272659 -2.60336e-20)
(0.206514 -0.028992 7.66704e-22)
(0.214203 -0.0307428 3.28551e-20)
(0.222091 -0.0324906 -2.02245e-20)
(0.230165 -0.0342371 -1.9804e-21)
(0.238391 -0.0359633 2.8459e-21)
(0.246744 -0.0376526 1.03306e-20)
(0.255197 -0.0392872 -2.5007e-20)
(0.263722 -0.0408482 7.90583e-23)
(0.272294 -0.0423189 -9.12702e-22)
(0.280887 -0.0436761 1.5265e-20)
(0.289479 -0.0449098 1.40006e-20)
(0.298046 -0.0460039 -6.62216e-21)
(0.306567 -0.0469456 7.61018e-21)
(0.315024 -0.0477252 -1.50756e-20)
(0.323401 -0.0483355 4.90553e-21)
(0.331686 -0.0487728 -1.08372e-20)
(0.339868 -0.0490363 1.22333e-20)
(0.347941 -0.0491279 -3.88034e-22)
(0.3559 -0.0490527 -6.85045e-21)
(0.363743 -0.0488183 2.28582e-21)
(0.37147 -0.048435 -1.32594e-21)
(0.379083 -0.047915 3.34953e-21)
(0.386588 -0.0472723 1.97612e-21)
(0.39399 -0.0465225 -6.78007e-21)
(0.401296 -0.0456819 4.95196e-21)
(0.408513 -0.0447678 -8.21112e-22)
(0.41565 -0.0437976 -4.91801e-23)
(0.422713 -0.0427887 -1.88141e-21)
(0.429711 -0.041758 -9.47728e-22)
(0.43665 -0.0407217 1.88259e-21)
(0.443536 -0.0396952 1.16328e-21)
(0.450373 -0.0386924 -1.16296e-21)
(0.457166 -0.0377263 6.41047e-22)
(0.463916 -0.0368079 -2.30122e-22)
(0.470624 -0.0359469 -1.94445e-21)
(0.477289 -0.0351508 1.32572e-21)
(0.48391 -0.0344262 6.8168e-22)
(0.490484 -0.0337768 -1.88034e-22)
(0.497004 -0.0332065 2.50202e-22)
(0.503469 -0.0327151 5.95552e-22)
(0.509869 -0.0323042 -2.91283e-22)
(0.516203 -0.0319695 -4.82915e-22)
(0.52245 -0.0317124 4.39439e-22)
(0.528631 -0.0315225 2.3839e-24)
(0.534688 -0.0314063 2.60122e-22)
(0.540708 -0.0313403 -1.30907e-22)
(0.546512 -0.0313517 1.39027e-22)
(0.552406 -0.0313776 1.14881e-22)
(0.557825 -0.0315147 -3.48062e-23)
(0.563764 -0.0315805 2.15873e-23)
(0.568451 -0.031869 3.91334e-23)
(0.574982 -0.0319044 -1.98446e-24)
(0.577988 -0.0323423 1.91367e-23)
(0.586758 -0.0324577 -1.25309e-24)
(0.202038 0.00855242 -4.12645e-21)
(0.202001 0.0060845 -8.44024e-20)
(0.202362 0.00372741 6.21856e-20)
(0.203115 0.00147472 3.86985e-20)
(0.204319 -0.000694171 -4.28441e-20)
(0.205933 -0.00286388 -1.76113e-20)
(0.207934 -0.00491774 -4.39169e-20)
(0.210351 -0.00686544 8.79517e-20)
(0.213164 -0.00873003 -1.68057e-20)
(0.216365 -0.0105275 -2.65747e-20)
(0.219946 -0.0122743 1.10644e-20)
(0.223904 -0.0139839 -2.94798e-23)
(0.228231 -0.0156751 -1.31612e-20)
(0.232918 -0.0173476 1.41603e-20)
(0.237966 -0.0190183 4.73707e-22)
(0.24336 -0.0206963 -1.36531e-20)
(0.249088 -0.022391 2.16066e-20)
(0.255137 -0.0241087 -1.74765e-20)
(0.261493 -0.0258532 -1.82301e-20)
(0.268139 -0.0276262 3.16022e-20)
(0.275055 -0.0294266 -8.96774e-21)
(0.282222 -0.0312513 2.06437e-20)
(0.289616 -0.033093 -3.47637e-20)
(0.297214 -0.0349465 2.30491e-20)
(0.304987 -0.0367903 1.06134e-20)
(0.312916 -0.0386185 -1.9838e-20)
(0.320969 -0.0404144 9.50978e-21)
(0.329117 -0.0421607 -3.1508e-21)
(0.337334 -0.0438396 -2.06182e-20)
(0.34559 -0.0454323 1.38097e-21)
(0.353859 -0.0469219 1.51893e-20)
(0.362114 -0.0482879 -3.76698e-21)
(0.370334 -0.0495178 -6.73321e-22)
(0.378493 -0.0505974 -4.7204e-21)
(0.386574 -0.0515149 2.49959e-20)
(0.394558 -0.0522616 -1.48728e-20)
(0.402431 -0.0528314 1.04027e-21)
(0.410183 -0.0532217 1.12555e-20)
(0.417803 -0.053433 -6.3201e-21)
(0.425288 -0.0534684 7.88153e-21)
(0.432634 -0.0533343 -9.9461e-21)
(0.439842 -0.0530395 3.27593e-21)
(0.446914 -0.0525952 -5.15948e-21)
(0.453854 -0.0520146 5.44543e-21)
(0.460669 -0.0513128 1.92839e-21)
(0.467366 -0.0505057 -7.81777e-23)
(0.473954 -0.0496104 -4.42592e-21)
(0.480443 -0.0486445 1.14593e-21)
(0.486841 -0.0476255 -1.21538e-21)
(0.493158 -0.0465708 1.29429e-21)
(0.499403 -0.0454974 2.74454e-21)
(0.505584 -0.0444211 -2.17624e-21)
(0.511708 -0.043357 2.19112e-21)
(0.517781 -0.0423187 -1.47391e-21)
(0.523808 -0.0413185 -4.05277e-22)
(0.529792 -0.0403668 1.31671e-21)
(0.535735 -0.039473 1.97046e-21)
(0.541638 -0.0386437 4.12218e-22)
(0.547498 -0.0378853 -2.02735e-21)
(0.553314 -0.0372007 3.80771e-22)
(0.559082 -0.0365937 5.18863e-23)
(0.564798 -0.0360628 -2.67547e-22)
(0.570454 -0.0356108 -3.17312e-23)
(0.576052 -0.035231 9.31761e-22)
(0.581568 -0.0349277 -6.97056e-23)
(0.587028 -0.034686 -3.60287e-22)
(0.592366 -0.0345195 3.5148e-22)
(0.597682 -0.0343939 -2.57991e-22)
(0.60278 -0.0343528 -2.04161e-22)
(0.607991 -0.0343103 4.37743e-23)
(0.61272 -0.0343953 8.82103e-23)
(0.617985 -0.0343853 1.96727e-23)
(0.622029 -0.034618 2.57626e-23)
(0.62783 -0.0345837 -3.69474e-24)
(0.630383 -0.0349437 -5.22788e-25)
(0.638081 -0.0350013 -2.52571e-25)
(0.298511 0.00884163 2.89733e-20)
(0.297375 0.00614319 -1.27993e-20)
(0.296781 0.00355394 5.59422e-20)
(0.296703 0.00106812 -1.38537e-21)
(0.297153 -0.00132544 -6.62226e-20)
(0.298115 -0.00375674 -4.54208e-20)
(0.299574 -0.00605711 3.88572e-20)
(0.3015 -0.00824606 -3.36757e-21)
(0.303874 -0.0103404 2.90524e-20)
(0.30668 -0.0123571 -5.89869e-20)
(0.309905 -0.0143151 2.28217e-20)
(0.313538 -0.0162286 3.81388e-21)
(0.317569 -0.0181157 1.40957e-20)
(0.321983 -0.0199805 3.02272e-20)
(0.326775 -0.0218353 -1.76658e-20)
(0.331926 -0.0236893 -6.35905e-21)
(0.33742 -0.0255515 -5.94356e-21)
(0.343241 -0.0274278 3.77993e-20)
(0.34937 -0.0293217 2.23213e-21)
(0.355785 -0.0312341 -6.37962e-21)
(0.362464 -0.0331636 -1.83759e-20)
(0.369383 -0.0351065 2.23417e-20)
(0.376516 -0.0370548 -3.68419e-20)
(0.383835 -0.0390018 2.65047e-20)
(0.39131 -0.0409295 -2.35581e-20)
(0.398916 -0.0428279 2.1847e-20)
(0.406622 -0.0446808 -1.69294e-20)
(0.414396 -0.0464712 1.99638e-20)
(0.422211 -0.0481811 -2.55107e-20)
(0.430036 -0.0497923 1.14838e-20)
(0.437844 -0.0512876 -1.72849e-20)
(0.445609 -0.0526487 2.22422e-20)
(0.453307 -0.053862 -1.89581e-20)
(0.460918 -0.0549147 8.45771e-21)
(0.468421 -0.0557961 4.72876e-21)
(0.475802 -0.0564986 2.5516e-21)
(0.483046 -0.0570173 -1.32405e-20)
(0.490146 -0.0573508 1.21372e-21)
(0.497094 -0.0575008 1.44068e-20)
(0.503886 -0.0574717 -1.65511e-20)
(0.510522 -0.0572711 7.55818e-21)
(0.517005 -0.056909 -9.0368e-21)
(0.523338 -0.0563976 1.13373e-20)
(0.529528 -0.0557512 -1.31139e-20)
(0.535582 -0.0549853 4.95838e-21)
(0.541511 -0.0541168 4.61924e-21)
(0.547323 -0.0531632 -5.70418e-21)
(0.55303 -0.0521423 6.7556e-21)
(0.558642 -0.051072 -3.54766e-21)
(0.564169 -0.0499695 -1.21575e-21)
(0.569622 -0.0488517 -1.78476e-21)
(0.575009 -0.0477342 2.67213e-21)
(0.580339 -0.0466319 -1.45181e-21)
(0.585618 -0.0455576 -6.18596e-22)
(0.590851 -0.0445234 5.28124e-22)
(0.596043 -0.0435389 1.1385e-21)
(0.601196 -0.0426132 7.13589e-22)
(0.606311 -0.0417521 -1.68651e-21)
(0.611388 -0.0409618 -7.67584e-22)
(0.616424 -0.0402439 1.78827e-21)
(0.621417 -0.0396027 -2.52902e-22)
(0.626364 -0.0390352 -2.63444e-22)
(0.631257 -0.0385455 4.64512e-22)
(0.636099 -0.0381239 -7.59307e-23)
(0.640864 -0.0377788 -3.66896e-22)
(0.645584 -0.0374891 2.059e-22)
(0.650187 -0.037277 1.8862e-22)
(0.654782 -0.0370961 -2.70127e-22)
(0.659162 -0.0370076 -1.0707e-22)
(0.66367 -0.036902 1.46641e-22)
(0.667706 -0.0369388 1.41482e-24)
(0.672273 -0.0368611 -5.9473e-23)