/*--------------------------------*- C++ -*----------------------------------*\
  =========                 |
  \\      /  F ield         | OpenFOAM: The Open Source CFD Toolbox
   \\    /   O peration     | Website:  https://openfoam.org
    \\  /    A nd           | Version:  7
     \\/     M anipulation  |
\*---------------------------------------------------------------------------*/
FoamFile
{
    version     2.0;
    format      ascii;
    class       surfaceScalarField;
    location    "15";
    object      phi;
}
// * * * * * * * * * * * * * * * * * * * * * * * * * * * * * * * * * * * * * //

dimensions      [0 3 -1 0 0 0 0];

internalField   nonuniform List<scalar> 
6869
(
-0.00111451
0.015664
0.00119339
-0.00102268
0.0159547
-0.000932018
0.0160032
-0.000847673
0.0159448
-0.000771014
0.0158541
-0.000701672
0.0157571
-0.000638893
0.0156628
-0.00058191
0.0155736
-0.000530037
0.0154896
-0.000482686
0.0154102
-0.000439356
0.015335
-0.000399614
0.0152636
-0.000363079
0.0151959
-0.000329413
0.015132
-0.000298313
0.0150718
-0.000269507
0.0150154
-0.000242749
0.0149627
-0.000217817
0.0149139
-0.000194506
0.0148689
-0.00017263
0.0148276
-0.000152016
0.0147902
-0.000132505
0.0147566
-0.00011395
0.0147267
-9.62112e-05
0.0147006
-7.9158e-05
0.0146783
-6.26663e-05
0.0146597
-4.66176e-05
0.0146448
-3.08976e-05
0.0146337
-1.5395e-05
0.0146263
0.0146226
-0.00115208
0.015581
0.0012351
-0.00105703
0.0158597
-0.000963532
0.0159097
-0.000876666
0.0158579
-0.000797756
0.0157752
-0.000726376
0.0156857
-0.000661744
0.0155981
-0.000603066
0.0155149
-0.000549634
0.0154362
-0.00050084
0.0153614
-0.000456166
0.0152903
-0.000415165
0.0152225
-0.000377446
0.0151582
-0.000342661
0.0150972
-0.0003105
0.0150396
-0.000280684
0.0149856
-0.000252962
0.014935
-0.000227105
0.0148881
-0.000202904
0.0148447
-0.00018017
0.0148049
-0.000158727
0.0147688
-0.000138411
0.0147363
-0.000119072
0.0147074
-0.000100568
0.0146821
-8.27652e-05
0.0146605
-6.55368e-05
0.0146425
-4.87616e-05
0.014628
-3.23227e-05
0.0146172
-1.61063e-05
0.01461
0.0146064
-0.00118532
0.0154944
0.00127196
-0.00108757
0.0157619
-0.000991726
0.0158138
-0.000902782
0.015769
-0.000821994
0.0156944
-0.000748891
0.0156126
-0.000682673
0.0155319
-0.000622528
0.0154548
-0.000567733
0.0153814
-0.000517665
0.0153114
-0.000471795
0.0152444
-0.000429665
0.0151804
-0.000390877
0.0151194
-0.000355075
0.0150614
-0.000321944
0.0150065
-0.0002912
0.0149548
-0.000262587
0.0149064
-0.000235871
0.0148613
-0.000210843
0.0148196
-0.000187307
0.0147814
-0.000165085
0.0147465
-0.000144013
0.0147152
-0.000123934
0.0146873
-0.000104707
0.0146629
-8.61942e-05
0.014642
-6.82669e-05
0.0146245
-5.08016e-05
0.0146106
-3.36791e-05
0.0146001
-1.67834e-05
0.0145931
0.0145897
-0.0012141
0.0154047
0.00130377
-0.00111421
0.015662
-0.00101653
0.0157161
-0.000925959
0.0156784
-0.000843676
0.0156121
-0.000769172
0.0155381
-0.000701641
0.0154644
-0.000640263
0.0153934
-0.000584305
0.0153254
-0.000533136
0.0152602
-0.00048622
0.0151975
-0.000443095
0.0151373
-0.000403354
0.0150796
-0.00036664
0.0150247
-0.000332632
0.0149725
-0.000301043
0.0149232
-0.000271613
0.014877
-0.000244108
0.0148338
-0.000218314
0.0147939
-0.000194033
0.0147571
-0.000171086
0.0147236
-0.000149304
0.0146934
-0.000128532
0.0146665
-0.000108624
0.014643
-8.94417e-05
0.0146228
-7.08539e-05
0.0146059
-5.27354e-05
0.0145925
-3.49652e-05
0.0145823
-1.74255e-05
0.0145756
0.0145722
-0.00123836
0.0153126
0.00133046
-0.00113689
0.0155606
-0.00103789
0.0156171
-0.000946159
0.0155867
-0.000862767
0.0155287
-0.000787189
0.0154625
-0.000718622
0.0153958
-0.000656247
0.015331
-0.000599328
0.0152685
-0.000547234
0.0152081
-0.000499426
0.0151497
-0.000455439
0.0150933
-0.000414866
0.0150391
-0.000377344
0.0149871
-0.000342553
0.0149377
-0.000310203
0.0148909
-0.000280033
0.0148468
-0.000251808
0.0148056
-0.00022531
0.0147674
-0.000200342
0.0147321
-0.000176722
0.0147
-0.000154281
0.014671
-0.000132862
0.0146451
-0.000112316
0.0146224
-9.25047e-05
0.014603
-7.32955e-05
0.0145867
-5.45615e-05
0.0145737
-3.61802e-05
0.014564
-1.80322e-05
0.0145575
0.0145542
-0.00125808
0.0152187
0.00135199
-0.00115561
0.0154581
-0.00105581
0.0155173
-0.000963371
0.0154942
-0.000879255
0.0154446
-0.000802928
0.0153862
-0.000733602
0.0153265
-0.000670467
0.0152679
-0.000612792
0.0152108
-0.00055995
0.0151553
-0.000511404
0.0151012
-0.00046669
0.0150486
-0.000425402
0.0149978
-0.000387179
0.0149489
-0.0003517
0.0149022
-0.000318674
0.0148578
-0.000287841
0.014816
-0.000258964
0.0147767
-0.000231827
0.0147402
-0.00020623
0.0147065
-0.000181991
0.0146757
-0.00015894
0.0146479
-0.000136919
0.0146231
-0.00011578
0.0146013
-9.5381e-05
0.0145826
-7.55899e-05
0.0145669
-5.62784e-05
0.0145544
-3.73229e-05
0.014545
-1.8603e-05
0.0145387
0.0145356
-0.00127329
0.0151236
0.00136838
-0.00117038
0.0153552
-0.00107032
0.0154173
-0.00097761
0.0154015
-0.000893146
0.0153601
-0.000816392
0.0153094
-0.000746582
0.0152567
-0.000682923
0.0152042
-0.000624694
0.0151526
-0.000571279
0.0151019
-0.000522148
0.015052
-0.000476843
0.0150033
-0.00043496
0.0149559
-0.000396142
0.0149101
-0.000360069
0.0148661
-0.000326452
0.0148242
-0.000295033
0.0147846
-0.000265575
0.0147473
-0.000237861
0.0147125
-0.000211693
0.0146804
-0.000186889
0.0146509
-0.000163278
0.0146243
-0.000140703
0.0146005
-0.000119013
0.0145796
-9.80691e-05
0.0145616
-7.77359e-05
0.0145466
-5.78852e-05
0.0145346
-3.83928e-05
0.0145255
-1.91376e-05
0.0145195
0.0145165
-0.00128406
0.015028
0.00137971
-0.00118129
0.0152524
-0.00108145
0.0153174
-0.000988912
0.015309
-0.000904468
0.0152757
-0.0008276
0.0152325
-0.000757576
0.0151866
-0.000693622
0.0151403
-0.00063504
0.015094
-0.000581226
0.015048
-0.000531663
0.0150025
-0.0004859
0.0149575
-0.00044354
0.0149135
-0.000404232
0.0148708
-0.000367659
0.0148296
-0.000333537
0.0147901
-0.000301608
0.0147526
-0.000271637
0.0147173
-0.00024341
0.0146843
-0.00021673
0.0146537
-0.000191415
0.0146256
-0.000167295
0.0146002
-0.000144211
0.0145774
-0.000122016
0.0145574
-0.000100568
0.0145402
-7.97325e-05
0.0145258
-5.93812e-05
0.0145142
-3.93895e-05
0.0145055
-1.96357e-05
0.0144997
0.0144968
-0.00129051
0.0149324
0.00138611
-0.00118842
0.0151503
-0.00108929
0.0152183
-0.000997337
0.015217
-0.000913264
0.0151916
-0.000836586
0.0151559
-0.000766608
0.0151167
-0.000702585
0.0150763
-0.000643844
0.0150353
-0.000589801
0.014994
-0.000539955
0.0149526
-0.000493866
0.0149114
-0.000451147
0.0148708
-0.000411453
0.0148311
-0.000374473
0.0147926
-0.000339929
0.0147556
-0.000307566
0.0147203
-0.000277152
0.0146869
-0.000248476
0.0146556
-0.000221342
0.0146265
-0.000195569
0.0145998
-0.000170989
0.0145756
-0.000147444
0.0145539
-0.000124787
0.0145347
-0.000102877
0.0145183
-8.15794e-05
0.0145045
-6.07662e-05
0.0144934
-4.03127e-05
0.0144851
-2.00972e-05
0.0144795
0.0144767
-0.00129282
0.0148374
0.00138779
-0.00119192
0.0150495
-0.00109395
0.0151203
-0.00100296
0.015126
-0.000919598
0.0151082
-0.000843399
0.0150797
-0.000773716
0.015047
-0.000709841
0.0150124
-0.000651129
0.0149766
-0.000597023
0.0149399
-0.000547039
0.0149026
-0.000500752
0.0148652
-0.000457788
0.0148279
-0.00041781
0.0147911
-0.000380516
0.0147553
-0.000345633
0.0147207
-0.000312911
0.0146875
-0.000282122
0.0146561
-0.000253059
0.0146265
-0.000225528
0.014599
-0.000199351
0.0145737
-0.000174361
0.0145506
-0.000150402
0.0145299
-0.000127327
0.0145117
-0.000104996
0.0144959
-8.32766e-05
0.0144828
-6.20401e-05
0.0144722
-4.11623e-05
0.0144642
-2.05222e-05
0.0144589
0.0144562
-0.00129119
0.0147436
0.00138494
-0.00119195
0.0149502
-0.00109555
0.0150239
-0.00100589
0.0150364
-0.000923546
0.0150259
-0.000848099
0.0150042
-0.000778948
0.0149778
-0.000715427
0.0149489
-0.000656926
0.0149181
-0.000602916
0.0148859
-0.000552934
0.0148526
-0.000506576
0.0148188
-0.000463477
0.0147848
-0.000423316
0.014751
-0.000385797
0.0147178
-0.000350655
0.0146855
-0.000317648
0.0146545
-0.000286552
0.014625
-0.000257163
0.0145971
-0.000229292
0.0145711
-0.000202763
0.0145471
-0.000177412
0.0145253
-0.000153085
0.0145056
-0.000129636
0.0144882
-0.000106927
0.0144732
-8.48247e-05
0.0144607
-6.32032e-05
0.0144505
-4.19387e-05
0.0144429
-2.09106e-05
0.0144378
0.0144353
-0.00128582
0.0146516
0.00137781
-0.00118867
0.0148531
-0.00109423
0.0149295
-0.00100624
0.0149484
-0.000925201
0.0149449
-0.000850759
0.0149298
-0.000782363
0.0149094
-0.00071939
0.0148859
-0.000661272
0.01486
-0.00060751
0.0148321
-0.000557666
0.0148028
-0.000511355
0.0147725
-0.000468231
0.0147416
-0.000427982
0.0147107
-0.000390325
0.0146801
-0.000355005
0.0146502
-0.000321784
0.0146213
-0.000290446
0.0145937
-0.000260793
0.0145675
-0.000232638
0.014543
-0.00020581
0.0145203
-0.000180147
0.0144996
-0.000155497
0.0144809
-0.000131716
0.0144644
-0.000108669
0.0144502
-8.62246e-05
0.0144382
-6.42563e-05
0.0144286
-4.26423e-05
0.0144213
-2.12628e-05
0.0144165
0.014414
-0.00127694
0.0145619
0.00136671
-0.00118228
0.0147584
-0.00109015
0.0148374
-0.00100413
0.0148624
-0.000924666
0.0148654
-0.000851463
0.0148566
-0.000784027
0.014842
-0.000721786
0.0148237
-0.000664212
0.0148024
-0.000610842
0.0147787
-0.000561264
0.0147532
-0.000515116
0.0147263
-0.000472069
0.0146986
-0.000431825
0.0146705
-0.000394116
0.0146424
-0.000358693
0.0146148
-0.000325329
0.0145879
-0.000293814
0.0145621
-0.000263955
0.0145376
-0.000235571
0.0145146
-0.000208495
0.0144932
-0.000182567
0.0144737
-0.000157639
0.014456
-0.00013357
0.0144404
-0.000110226
0.0144268
-8.74776e-05
0.0144155
-6.52004e-05
0.0144063
-4.32737e-05
0.0143994
-2.15791e-05
0.0143948
0.0143925
-0.00126483
0.0144747
0.00135196
-0.00117301
0.0146666
-0.0010835
0.0147479
-0.000999713
0.0147786
-0.000922053
0.0147877
-0.000850301
0.0147848
-0.000784016
0.0147757
-0.000722674
0.0147623
-0.000665795
0.0147455
-0.000612952
0.0147259
-0.000563762
0.014704
-0.000517886
0.0146805
-0.000475014
0.0146557
-0.000434866
0.0146303
-0.000397185
0.0146047
-0.000361733
0.0145793
-0.000328294
0.0145545
-0.000296665
0.0145305
-0.000266658
0.0145076
-0.000238098
0.014486
-0.000210823
0.014466
-0.000184677
0.0144475
-0.000159516
0.0144308
-0.0001352
0.0144161
-0.000111599
0.0144032
-8.85855e-05
0.0143924
-6.60366e-05
0.0143837
-4.38337e-05
0.0143772
-2.18598e-05
0.0143728
0.0143706
-0.00124976
0.0143906
0.00133389
-0.00116107
0.0145779
-0.00107445
0.0146612
-0.000993127
0.0146973
-0.000917485
0.0147121
-0.000847374
0.0147147
-0.000782409
0.0147108
-0.000722122
0.014702
-0.000666078
0.0146895
-0.000613887
0.0146737
-0.000565198
0.0146553
-0.000519697
0.014635
-0.000477094
0.0146131
-0.000437126
0.0145903
-0.00039955
0.0145672
-0.000364142
0.0145439
-0.000330692
0.0145211
-0.000299008
0.0144988
-0.000268909
0.0144775
-0.000240226
0.0144574
-0.000212801
0.0144385
-0.000186483
0.0144212
-0.000161131
0.0144055
-0.000136611
0.0143915
-0.000112792
0.0143794
-8.95505e-05
0.0143692
-6.67667e-05
0.014361
-4.43233e-05
0.0143547
-2.21055e-05
0.0143506
0.0143485
-0.00123201
0.0143098
0.00131285
-0.0011467
0.0144926
-0.00106319
0.0145777
-0.000984532
0.0146186
-0.00091109
0.0146386
-0.000842787
0.0146464
-0.000779295
0.0146473
-0.000720201
0.0146429
-0.000665118
0.0146344
-0.000613696
0.0146223
-0.000565614
0.0146073
-0.000520583
0.0145899
-0.000478337
0.0145709
-0.00043863
0.0145506
-0.000401233
0.0145298
-0.000365935
0.0145086
-0.000332539
0.0144877
-0.000300858
0.0144672
-0.000270721
0.0144474
-0.000241965
0.0144286
-0.000214436
0.014411
-0.000187991
0.0143948
-0.000162491
0.01438
-0.000137805
0.0143669
-0.000113807
0.0143554
-9.03751e-05
0.0143458
-6.73923e-05
0.014338
-4.47438e-05
0.0143321
-2.23168e-05
0.0143282
0.0143262
-0.00121187
0.0142324
0.0012892
-0.00113014
0.0144108
-0.00104993
0.0144975
-0.000974092
0.0145428
-0.000903001
0.0145676
-0.00083665
0.0145801
-0.000774765
0.0145854
-0.000716988
0.0145852
-0.000662981
0.0145804
-0.000612432
0.0145717
-0.000565053
0.0145599
-0.000520582
0.0145455
-0.000478775
0.0145291
-0.000439404
0.0145113
-0.000402256
0.0144926
-0.000367133
0.0144735
-0.000333849
0.0144544
-0.000302227
0.0144355
-0.000272104
0.0144173
-0.000243323
0.0143998
-0.000215737
0.0143834
-0.000189207
0.0143682
-0.0001636
0.0143544
-0.000138788
0.014342
-0.000114648
0.0143313
-9.10621e-05
0.0143222
-6.79157e-05
0.0143148
-4.50965e-05
0.0143093
-2.24942e-05
0.0143056
0.0143037
-0.00118964
0.0141588
0.00126328
-0.00111164
0.0143328
-0.00103485
0.0144207
-0.000961968
0.0144699
-0.000893354
0.0144989
-0.000829076
0.0145158
-0.000768913
0.0145252
-0.000712561
0.0145288
-0.000659732
0.0145275
-0.00061015
0.0145222
-0.000563563
0.0145133
-0.000519734
0.0145016
-0.000478441
0.0144878
-0.000439476
0.0144723
-0.000402643
0.0144558
-0.000367756
0.0144386
-0.000334641
0.0144213
-0.000303131
0.014404
-0.000273071
0.0143872
-0.000244312
0.0143711
-0.000216713
0.0143558
-0.00019014
0.0143417
-0.000164465
0.0143287
-0.000139564
0.0143171
-0.000115319
0.014307
-9.16148e-05
0.0142985
-6.83391e-05
0.0142916
-4.53829e-05
0.0142863
-2.26387e-05
0.0142828
0.014281
-0.00116559
0.014089
0.00123541
-0.00109143
0.0142587
-0.00101817
0.0143475
-0.000948325
0.0144001
-0.000882287
0.0144329
-0.000820181
0.0144537
-0.000761835
0.0144669
-0.000707002
0.014474
-0.000655439
0.014476
-0.00060691
0.0144736
-0.000561193
0.0144676
-0.00051808
0.0144585
-0.000477372
0.0144471
-0.000438878
0.0144338
-0.00040242
0.0144193
-0.000367826
0.014404
-0.000334933
0.0143884
-0.000303585
0.0143727
-0.000273635
0.0143573
-0.000244943
0.0143424
-0.000217373
0.0143283
-0.000190797
0.0143151
-0.000165093
0.014303
-0.00014014
0.0142922
-0.000115825
0.0142827
-9.20365e-05
0.0142747
-6.8665e-05
0.0142682
-4.56048e-05
0.0142633
-2.2751e-05
0.01426
0.0142583
-0.00114
0.014023
0.00120594
-0.00106974
0.0141884
-0.00100006
0.0142778
-0.000933325
0.0143333
-0.000869937
0.0143695
-0.000810078
0.0143938
-0.000753628
0.0144104
-0.000700393
0.0144207
-0.000650173
0.0144258
-0.00060277
0.0144262
-0.000557994
0.0144228
-0.000515664
0.0144162
-0.000475603
0.014407
-0.000437641
0.0143959
-0.000401615
0.0143833
-0.000367366
0.0143698
-0.000334745
0.0143557
-0.000303607
0.0143415
-0.000273812
0.0143275
-0.000245228
0.0143138
-0.000217727
0.0143008
-0.000191187
0.0142885
-0.00016549
0.0142773
-0.000140522
0.0142672
-0.000116171
0.0142584
-9.23311e-05
0.0142509
-6.88963e-05
0.0142448
-4.57638e-05
0.0142401
-2.28319e-05
0.014237
0.0142355
-0.00111313
0.013961
0.00117515
-0.00104678
0.0141221
-0.000980723
0.0142117
-0.000917127
0.0142697
-0.000856438
0.0143088
-0.000798884
0.0143363
-0.000744392
0.0143559
-0.000692817
0.0143692
-0.000644004
0.014377
-0.00059779
0.01438
-0.000554018
0.014379
-0.00051253
0.0143747
-0.000473173
0.0143676
-0.000435797
0.0143585
-0.000400254
0.0143477
-0.0003664
0.0143359
-0.000334098
0.0143234
-0.000303213
0.0143107
-0.000273616
0.0142979
-0.00024518
0.0142854
-0.000217787
0.0142734
-0.00019132
0.0142621
-0.000165666
0.0142517
-0.000140715
0.0142423
-0.000116362
0.014234
-9.25025e-05
0.014227
-6.90358e-05
0.0142213
-4.58619e-05
0.014217
-2.28825e-05
0.014214
0.0142126
-0.00108522
0.0139029
0.00114333
-0.00102278
0.0140596
-0.00096033
0.0141493
-0.000899885
0.0142093
-0.000841922
0.0142509
-0.000786711
0.014281
-0.000734222
0.0143034
-0.000684358
0.0143193
-0.000637004
0.0143296
-0.000592033
0.014335
-0.000549316
0.0143363
-0.000508722
0.0143341
-0.000470121
0.014329
-0.000433379
0.0143217
-0.000398366
0.0143127
-0.000364953
0.0143025
-0.000333013
0.0142915
-0.000302423
0.0142801
-0.000273062
0.0142685
-0.000244814
0.0142571
-0.000217565
0.0142461
-0.000191205
0.0142357
-0.000165627
0.0142261
-0.000140726
0.0142174
-0.000116402
0.0142097
-9.25549e-05
0.0142031
-6.90865e-05
0.0141978
-4.59011e-05
0.0141938
-2.29037e-05
0.014191
0.0141897
-0.00105651
0.0138487
0.00111076
-0.000997933
0.0140011
-0.000939055
0.0140904
-0.000881749
0.014152
-0.000826519
0.0141956
-0.00077367
0.0142282
-0.000723213
0.014253
-0.000675096
0.0142712
-0.000629243
0.0142837
-0.000585558
0.0142914
-0.000543942
0.0142947
-0.000504288
0.0142944
-0.000466486
0.0142912
-0.000430422
0.0142857
-0.000395982
0.0142783
-0.000363051
0.0142696
-0.000331513
0.01426
-0.000301256
0.0142498
-0.000272168
0.0142394
-0.000244142
0.0142291
-0.000217071
0.014219
-0.000190852
0.0142095
-0.000165382
0.0142006
-0.000140564
0.0141925
-0.000116299
0.0141854
-9.24928e-05
0.0141793
-6.90519e-05
0.0141744
-4.58836e-05
0.0141706
-2.28966e-05
0.0141681
0.0141668
-0.0010272
0.0137982
0.00107766
-0.00097242
0.0139463
-0.00091706
0.014035
-0.000862859
0.0140978
-0.00081035
0.0141431
-0.000759867
0.0141777
-0.000711459
0.0142046
-0.000665114
0.0142248
-0.000620791
0.0142394
-0.000578427
0.014249
-0.000537948
0.0142542
-0.000499271
0.0142558
-0.000462307
0.0142543
-0.000426961
0.0142503
-0.000393132
0.0142445
-0.000360718
0.0142372
-0.000329619
0.0142289
-0.00029973
0.0142199
-0.00027095
0.0142106
-0.00024318
0.0142013
-0.000216319
0.0141922
-0.000190271
0.0141834
-0.000164941
0.0141753
-0.000140233
0.0141678
-0.000116057
0.0141612
-9.23207e-05
0.0141556
-6.89351e-05
0.014151
-4.58116e-05
0.0141475
-2.28623e-05
0.0141451
0.0141439
-0.000997501
0.0137514
0.00104427
-0.000946417
0.0138952
-0.000894499
0.0139831
-0.000843351
0.0140466
-0.000793535
0.0140933
-0.000745407
0.0141296
-0.000699049
0.0141582
-0.000654489
0.0141803
-0.000611717
0.0141966
-0.000570699
0.014208
-0.000531386
0.0142149
-0.000493718
0.0142181
-0.000457626
0.0142182
-0.000423029
0.0142157
-0.000389844
0.0142113
-0.000357982
0.0142053
-0.000327354
0.0141982
-0.000297866
0.0141904
-0.000269426
0.0141822
-0.000241942
0.0141738
-0.000215321
0.0141656
-0.000189475
0.0141576
-0.000164311
0.0141501
-0.000139743
0.0141433
-0.000115683
0.0141372
-9.20434e-05
0.014132
-6.87398e-05
0.0141277
-4.56874e-05
0.0141244
-2.2802e-05
0.0141222
0.0141211
-0.000967584
0.0137082
0.00101078
-0.000920083
0.0138477
-0.000871511
0.0139345
-0.00082335
0.0139985
-0.000776184
0.0140461
-0.000730386
0.0140838
-0.000686071
0.0141139
-0.000643299
0.0141375
-0.000602089
0.0141554
-0.000562433
0.0141683
-0.000524309
0.0141768
-0.000487675
0.0141815
-0.000452479
0.014183
-0.000418661
0.0141819
-0.00038615
0.0141788
-0.00035487
0.014174
-0.000324741
0.0141681
-0.000295683
0.0141614
-0.000267612
0.0141541
-0.000240442
0.0141467
-0.000214091
0.0141392
-0.000188473
0.014132
-0.000163504
0.0141251
-0.000139101
0.0141189
-0.000115183
0.0141133
-9.16658e-05
0.0141084
-6.84696e-05
0.0141045
-4.55134e-05
0.0141015
-2.27168e-05
0.0140994
0.0140984
-0.000937609
0.0136685
0.000977363
-0.000893563
0.0138036
-0.000848228
0.0138892
-0.000802973
0.0139532
-0.000758402
0.0140016
-0.000714899
0.0140403
-0.000672607
0.0140716
-0.000631615
0.0140965
-0.00059197
0.0141158
-0.000553687
0.01413
-0.000516765
0.0141399
-0.000481184
0.0141459
-0.000446908
0.0141487
-0.000413892
0.0141489
-0.000382079
0.014147
-0.000351406
0.0141434
-0.000321805
0.0141385
-0.000293203
0.0141328
-0.000265526
0.0141265
-0.000238698
0.0141198
-0.00021264
0.0141132
-0.000187276
0.0141066
-0.000162527
0.0141004
-0.000138315
0.0140947
-0.000114563
0.0140895
-9.11929e-05
0.0140851
-6.81281e-05
0.0140814
-4.52919e-05
0.0140786
-2.26079e-05
0.0140767
0.0140758
-0.000907722
0.013632
0.000944185
-0.000866989
0.0137629
-0.00082477
0.013847
-0.000782331
0.0139108
-0.000740288
0.0139595
-0.000699035
0.013999
-0.000658737
0.0140313
-0.00061951
0.0140573
-0.000581423
0.0140777
-0.000544516
0.0140931
-0.000508806
0.0141042
-0.00047429
0.0141114
-0.000440951
0.0141154
-0.000408756
0.0141167
-0.000377662
0.0141159
-0.000347618
0.0141133
-0.000318566
0.0141095
-0.000290445
0.0141046
-0.000263186
0.0140992
-0.000236722
0.0140934
-0.000210983
0.0140874
-0.000185897
0.0140815
-0.000161391
0.0140759
-0.000137393
0.0140707
-0.00011383
0.014066
-9.06297e-05
0.0140619
-6.7719e-05
0.0140585
-4.50255e-05
0.0140559
-2.24766e-05
0.0140542
0.0140533
-0.000878048
0.0135987
0.000911377
-0.000840477
0.0137253
-0.000801246
0.0138078
-0.000761523
0.013871
-0.000721934
0.0139199
-0.000682876
0.01396
-0.000644535
0.013993
-0.000607049
0.0140198
-0.000570509
0.0140412
-0.000534974
0.0140576
-0.000500478
0.0140697
-0.000467036
0.0140779
-0.000434644
0.014083
-0.000403285
0.0140853
-0.000372928
0.0140855
-0.000343532
0.0140839
-0.00031505
0.014081
-0.000287428
0.014077
-0.000260609
0.0140724
-0.000234532
0.0140673
-0.000209133
0.014062
-0.000184346
0.0140567
-0.000160105
0.0140517
-0.000136342
0.0140469
-0.00011299
0.0140426
-8.99812e-05
0.0140389
-6.72461e-05
0.0140358
-4.47165e-05
0.0140334
-2.2324e-05
0.0140318
0.014031
-0.000848699
0.0135683
0.000879059
-0.000814133
0.0136908
-0.000777755
0.0137714
-0.00074064
0.0138339
-0.000703423
0.0138827
-0.000666499
0.0139231
-0.000630071
0.0139565
-0.000594297
0.013984
-0.000559285
0.0140062
-0.000525111
0.0140234
-0.000491827
0.0140364
-0.000459461
0.0140456
-0.000428025
0.0140515
-0.000397513
0.0140548
-0.000367905
0.0140559
-0.000339173
0.0140552
-0.000311277
0.0140531
-0.000284174
0.0140499
-0.000257814
0.014046
-0.000232142
0.0140416
-0.000207102
0.014037
-0.000182634
0.0140323
-0.000158678
0.0140277
-0.000135171
0.0140234
-0.000112051
0.0140195
-8.92527e-05
0.0140161
-6.67132e-05
0.0140132
-4.43676e-05
0.0140111
-2.21515e-05
0.0140096
0.0140088
-0.000819769
0.0135408
0.00084733
-0.000788049
0.0136591
-0.000754384
0.0137377
-0.000719767
0.0137993
-0.000684834
0.0138478
-0.000649976
0.0138882
-0.000615412
0.013922
-0.000581314
0.0139499
-0.000547805
0.0139726
-0.000514978
0.0139906
-0.000482897
0.0140043
-0.000451607
0.0140143
-0.000421129
0.0140211
-0.000391471
0.0140252
-0.000362623
0.014027
-0.000334566
0.0140271
-0.000307271
0.0140258
-0.000280701
0.0140234
-0.000254816
0.0140201
-0.000229567
0.0140164
-0.000204904
0.0140123
-0.000180773
0.0140081
-0.000157121
0.014004
-0.000133888
0.0140002
-0.000111017
0.0139966
-8.84492e-05
0.0139935
-6.61239e-05
0.0139909
-4.39811e-05
0.0139889
-2.19601e-05
0.0139876
0.0139869
-0.000791344
0.0135158
0.000816274
-0.000762306
0.01363
-0.000731211
0.0137066
-0.000698977
0.0137671
-0.000666236
0.013815
-0.000633373
0.0138553
-0.000600617
0.0138892
-0.000568154
0.0139175
-0.00053612
0.0139406
-0.00050462
0.0139591
-0.000473731
0.0139734
-0.00044351
0.0139841
-0.000413991
0.0139915
-0.000385189
0.0139964
-0.000357108
0.013999
-0.000329735
0.0139998
-0.000303052
0.0139991
-0.00027703
0.0139973
-0.000251633
0.0139947
-0.000226821
0.0139916
-0.000202551
0.013988
-0.000178775
0.0139844
-0.000155442
0.0139807
-0.0001325
0.0139772
-0.000109896
0.013974
-8.75756e-05
0.0139712
-6.54821e-05
0.0139688
-4.35596e-05
0.013967
-2.17512e-05
0.0139658
0.0139651
-0.000763492
0.0134934
0.000785961
-0.000736973
0.0136035
-0.000708305
0.0136779
-0.000678338
0.0137371
-0.000647695
0.0137844
-0.00061675
0.0138244
-0.000585745
0.0138582
-0.000554872
0.0138866
-0.000524279
0.01391
-0.000494081
0.0139289
-0.000464369
0.0139437
-0.000435208
0.0139549
-0.000406642
0.013963
-0.000378698
0.0139684
-0.000351386
0.0139717
-0.000324705
0.0139731
-0.000298643
0.013973
-0.000273177
0.0139719
-0.000248281
0.0139698
-0.00022392
0.0139672
-0.000200057
0.0139642
-0.000176648
0.013961
-0.000153651
0.0139577
-0.000131016
0.0139546
-0.000108695
0.0139517
-8.66371e-05
0.0139491
-6.47915e-05
0.013947
-4.31054e-05
0.0139453
-2.1526e-05
0.0139442
0.0139436
-0.000736269
0.0134732
0.000756444
-0.000712109
0.0135793
-0.000685727
0.0136516
-0.00065791
0.0137093
-0.000629266
0.0137558
-0.000600163
0.0137953
-0.000570845
0.0138289
-0.000541514
0.0138573
-0.000512325
0.0138808
-0.000483403
0.0139
-0.000454848
0.0139151
-0.000426734
0.0139268
-0.000399115
0.0139354
-0.000372025
0.0139413
-0.000345484
0.0139451
-0.000319498
0.0139471
-0.000294062
0.0139476
-0.000269162
0.013947
-0.000244776
0.0139454
-0.000220878
0.0139433
-0.000197433
0.0139407
-0.000174406
0.0139379
-0.000151756
0.0139351
-0.000129442
0.0139323
-0.000107418
0.0139297
-8.56385e-05
0.0139273
-6.40556e-05
0.0139254
-4.2621e-05
0.0139239
-2.12857e-05
0.0139228
0.0139223
-0.000709722
0.0134552
0.000727767
-0.000687762
0.0135574
-0.000663527
0.0136273
-0.000637743
0.0136835
-0.000611002
0.013729
-0.00058366
0.0137679
-0.000555966
0.0138012
-0.000528126
0.0138294
-0.000500301
0.013853
-0.000472625
0.0138723
-0.000445204
0.0138877
-0.000418122
0.0138997
-0.000391439
0.0139087
-0.000365198
0.0139151
-0.000339426
0.0139193
-0.000314136
0.0139218
-0.000289331
0.0139228
-0.000265002
0.0139226
-0.000241135
0.0139216
-0.000217707
0.0139199
-0.000194692
0.0139177
-0.000172057
0.0139153
-0.000149768
0.0139128
-0.000127787
0.0139103
-0.000106073
0.0139079
-8.45848e-05
0.0139059
-6.32782e-05
0.0139041
-4.21088e-05
0.0139027
-2.10314e-05
0.0139018
0.0139013
-0.000683885
0.0134391
0.000699961
-0.000663974
0.0135375
-0.00064175
0.0136051
-0.000617883
0.0136596
-0.000592947
0.0137041
-0.000567286
0.0137423
-0.00054115
0.0137751
-0.000514748
0.013803
-0.000488245
0.0138265
-0.000461782
0.0138458
-0.000435471
0.0138614
-0.000409401
0.0138736
-0.000383642
0.0138829
-0.000358242
0.0138897
-0.000333235
0.0138943
-0.000308641
0.0138972
-0.000284468
0.0138986
-0.000260715
0.0138989
-0.000237372
0.0138982
-0.000214423
0.0138969
-0.000191845
0.0138951
-0.000169613
0.0138931
-0.000147695
0.0138909
-0.000126058
0.0138886
-0.000104666
0.0138866
-8.34807e-05
0.0138847
-6.24628e-05
0.0138831
-4.15712e-05
0.0138818
-2.07644e-05
0.013881
0.0138805
-0.000658785
0.0134248
0.000673042
-0.000640777
0.0135195
-0.000620432
0.0135848
-0.00059837
0.0136376
-0.000575143
0.0136809
-0.000551082
0.0137182
-0.000526437
0.0137504
-0.000501417
0.013778
-0.000476193
0.0138013
-0.000450907
0.0138206
-0.000425678
0.0138362
-0.000400602
0.0138485
-0.000375751
0.0138581
-0.000351181
0.0138651
-0.000326933
0.0138701
-0.000303032
0.0138733
-0.000279492
0.0138751
-0.000256317
0.0138757
-0.000233502
0.0138754
-0.000211037
0.0138745
-0.000188905
0.013873
-0.000167083
0.0138712
-0.000145545
0.0138693
-0.000124262
0.0138674
-0.000103202
0.0138655
-8.23311e-05
0.0138638
-6.16129e-05
0.0138624
-4.10105e-05
0.0138612
-2.04858e-05
0.0138604
0.01386
-0.00063444
0.0134122
0.000647023
-0.000618196
0.0135032
-0.000599604
0.0135662
-0.000579236
0.0136172
-0.000557622
0.0136592
-0.000535081
0.0136957
-0.00051186
0.0137272
-0.000488168
0.0137543
-0.000464177
0.0137773
-0.000440032
0.0137964
-0.000415857
0.013812
-0.00039175
0.0138244
-0.000367791
0.0138341
-0.00034404
0.0138414
-0.000320543
0.0138466
-0.00029733
0.0138501
-0.00027442
0.0138522
-0.000251823
0.0138531
-0.00022954
0.0138531
-0.000207564
0.0138525
-0.000185882
0.0138513
-0.000164477
0.0138498
-0.000143327
0.0138482
-0.000122407
0.0138464
-0.000101688
0.0138448
-8.11405e-05
0.0138433
-6.07321e-05
0.0138419
-4.0429e-05
0.0138409
-2.01967e-05
0.0138402
0.0138398
-0.000610866
0.0134012
0.000621911
-0.000596252
0.0134886
-0.00057929
0.0135492
-0.000560509
0.0135984
-0.000540416
0.0136391
-0.000519316
0.0136746
-0.000497452
0.0137053
-0.000475032
0.0137319
-0.000452227
0.0137545
-0.000429186
0.0137734
-0.000406033
0.0137888
-0.000382872
0.0138013
-0.000359786
0.013811
-0.00033684
0.0138184
-0.000314084
0.0138238
-0.000291552
0.0138276
-0.00026927
0.0138299
-0.000247251
0.0138311
-0.000225499
0.0138314
-0.000204014
0.013831
-0.000182787
0.0138301
-0.000161805
0.0138289
-0.000141049
0.0138274
-0.000120499
0.0138259
-0.000100129
0.0138244
-7.99137e-05
0.013823
-5.98237e-05
0.0138219
-3.9829e-05
0.0138209
-1.98984e-05
0.0138203
0.0138199
-0.000588069
0.0133916
0.000597708
-0.000574959
0.0134755
-0.000559511
0.0135338
-0.000542213
0.0135811
-0.00052355
0.0136205
-0.000503813
0.0136548
-0.00048324
0.0136848
-0.000462035
0.0137107
-0.00044037
0.0137328
-0.000418394
0.0137514
-0.000396232
0.0137667
-0.000373992
0.013779
-0.000351759
0.0137888
-0.000329603
0.0137963
-0.000307575
0.0138018
-0.000285718
0.0138057
-0.000264057
0.0138082
-0.000242613
0.0138096
-0.000221394
0.0138102
-0.000200401
0.01381
-0.000179632
0.0138093
-0.000159076
0.0138083
-0.00013872
0.0138071
-0.000118545
0.0138057
-9.85312e-05
0.0138044
-7.86549e-05
0.0138032
-5.8891e-05
0.0138021
-3.92126e-05
0.0138012
-1.95918e-05
0.0138006
0.0138003
-0.000566055
0.0133832
0.000574411
-0.000554327
0.0134638
-0.00054028
0.0135197
-0.000524366
0.0135652
-0.000507046
0.0136032
-0.000488596
0.0136364
-0.000469249
0.0136654
-0.000449204
0.0136906
-0.000428631
0.0137122
-0.00040768
0.0137304
-0.000386478
0.0137455
-0.000365132
0.0137577
-0.000343731
0.0137674
-0.000322347
0.0137749
-0.000301036
0.0137805
-0.000279843
0.0137845
-0.000258798
0.0137872
-0.000237925
0.0137888
-0.000217235
0.0137895
-0.000196736
0.0137895
-0.000176426
0.013789
-0.000156299
0.0137882
-0.000136346
0.0137871
-0.000116552
0.0137859
-9.68995e-05
0.0137847
-7.73685e-05
0.0137836
-5.79372e-05
0.0137827
-3.8582e-05
0.0137819
-1.92781e-05
0.0137813
0.0137811
-0.00054482
0.013376
0.000552011
-0.00053436
0.0134533
-0.000521609
0.013507
-0.000506984
0.0135506
-0.000490922
0.0135871
-0.000473685
0.0136192
-0.0004555
0.0136472
-0.00043656
0.0136717
-0.000417033
0.0136927
-0.000397067
0.0137105
-0.000376791
0.0137252
-0.000356312
0.0137372
-0.00033572
0.0137468
-0.000315091
0.0137543
-0.000294483
0.0137599
-0.000273943
0.013764
-0.000253507
0.0137668
-0.000233199
0.0137685
-0.000213037
0.0137693
-0.000193029
0.0137695
-0.000173178
0.0137692
-0.000153483
0.0137685
-0.000133936
0.0137676
-0.000114526
0.0137665
-9.52392e-05
0.0137655
-7.60586e-05
0.0137644
-5.69654e-05
0.0137636
-3.79391e-05
0.0137629
-1.89582e-05
0.0137624
0.0137621
-0.000524359
0.0133699
0.000530495
-0.000515062
0.013444
-0.000503505
0.0134954
-0.000490078
0.0135372
-0.000475193
0.0135722
-0.000459097
0.0136031
-0.000442011
0.0136301
-0.000424122
0.0136538
-0.000405594
0.0136742
-0.000386575
0.0136915
-0.000367191
0.0137058
-0.00034755
0.0137176
-0.000327745
0.013727
-0.000307852
0.0137344
-0.000287932
0.01374
-0.000268034
0.0137441
-0.000248197
0.0137469
-0.000228449
0.0137487
-0.000208809
0.0137497
-0.00018929
0.01375
-0.000169899
0.0137498
-0.000150635
0.0137492
-0.000131496
0.0137484
-0.000112473
0.0137475
-9.35552e-05
0.0137465
-7.4729e-05
0.0137456
-5.59784e-05
0.0137448
-3.7286e-05
0.0137442
-1.8633e-05
0.0137437
0.0137435
-0.000504666
0.0133647
0.000509847
-0.000496428
0.0134358