/*--------------------------------*- C++ -*----------------------------------*\
  =========                 |
  \\      /  F ield         | OpenFOAM: The Open Source CFD Toolbox
   \\    /   O peration     | Website:  https://openfoam.org
    \\  /    A nd           | Version:  7
     \\/     M anipulation  |
\*---------------------------------------------------------------------------*/
FoamFile
{
    version     2.0;
    format      ascii;
    class       volVectorField;
    location    "15";
    object      U;
}
// * * * * * * * * * * * * * * * * * * * * * * * * * * * * * * * * * * * * * //

dimensions      [0 1 -1 0 0 0 0];

internalField   nonuniform List<vector> 
3500
(
(1.19603 0.149174 0)
(1.21863 0.145833 0)
(1.22226 0.130474 0)
(1.21756 0.119274 0)
(1.21035 0.108449 0)
(1.20268 0.0986473 0)
(1.19524 0.0898018 0)
(1.18822 0.0817835 0)
(1.18163 0.0744939 0)
(1.17541 0.0678486 0)
(1.16952 0.0617748 0)
(1.16394 0.0562105 0)
(1.15866 0.0511009 0)
(1.15368 0.0463982 0)
(1.149 0.0420595 0)
(1.14462 0.0380463 0)
(1.14053 0.0343238 0)
(1.13674 0.0308608 0)
(1.13325 0.0276286 0)
(1.13005 0.0246011 0)
(1.12715 0.0217541 0)
(1.12455 0.0190657 0)
(1.12224 0.0165151 0)
(1.12022 0.0140831 0)
(1.11849 0.0117517 0)
(1.11705 0.00950391 0)
(1.1159 0.00732337 0)
(1.11504 0.00519443 0)
(1.11447 0.00310225 0)
(1.11418 0.00103151 0)
(1.18986 0.154387 0)
(1.21151 0.150763 0)
(1.21524 0.13481 0)
(1.21104 0.12334 0)
(1.20442 0.112175 0)
(1.19731 0.102086 0)
(1.19038 0.0929832 0)
(1.18382 0.0847286 0)
(1.17762 0.0772219 0)
(1.17174 0.0703762 0)
(1.16616 0.0641163 0)
(1.16086 0.058378 0)
(1.15583 0.0531052 0)
(1.15108 0.0482485 0)
(1.14659 0.0437638 0)
(1.14238 0.0396119 0)
(1.13845 0.0357573 0)
(1.1348 0.0321677 0)
(1.13144 0.0288139 0)
(1.12835 0.0256693 0)
(1.12555 0.0227093 0)
(1.12303 0.0199113 0)
(1.12079 0.0172542 0)
(1.11884 0.0147185 0)
(1.11716 0.0122856 0)
(1.11577 0.00993812 0)
(1.11465 0.0076595 0)
(1.11382 0.00543369 0)
(1.11326 0.00324545 0)
(1.11298 0.0010792 0)
(1.18339 0.159024 0)
(1.20416 0.155131 0)
(1.20802 0.138669 0)
(1.20433 0.126995 0)
(1.19834 0.11554 0)
(1.19181 0.105212 0)
(1.1854 0.0958901 0)
(1.17929 0.0874321 0)
(1.17349 0.0797366 0)
(1.16798 0.0727148 0)
(1.16271 0.0662899 0)
(1.1577 0.0603962 0)
(1.15292 0.0549764 0)
(1.14839 0.0499802 0)
(1.1441 0.0453626 0)
(1.14007 0.0410836 0)
(1.13631 0.0371071 0)
(1.1328 0.0334003 0)
(1.12956 0.0299336 0)
(1.12659 0.0266798 0)
(1.12389 0.0236139 0)
(1.12145 0.020713 0)
(1.11929 0.0179556 0)
(1.1174 0.0153219 0)
(1.11578 0.0127929 0)
(1.11443 0.010351 0)
(1.11335 0.00797927 0)
(1.11254 0.00566137 0)
(1.112 0.00338175 0)
(1.11173 0.00112461 0)
(1.17666 0.163065 0)
(1.19662 0.15892 0)
(1.20064 0.142042 0)
(1.19749 0.13023 0)
(1.19212 0.118537 0)
(1.18618 0.108018 0)
(1.1803 0.098517 0)
(1.17466 0.0898892 0)
(1.16927 0.0820337 0)
(1.16412 0.0748608 0)
(1.15918 0.0682926 0)
(1.15445 0.0622624 0)
(1.14993 0.0567123 0)
(1.14562 0.0515912 0)
(1.14154 0.0468539 0)
(1.1377 0.0424596 0)
(1.13409 0.0383718 0)
(1.13073 0.0345575 0)
(1.12762 0.0309865 0)
(1.12477 0.0276315 0)
(1.12216 0.024467 0)
(1.11982 0.02147 0)
(1.11773 0.0186186 0)
(1.11591 0.0158927 0)
(1.11434 0.0132732 0)
(1.11304 0.0107421 0)
(1.11199 0.00828235 0)
(1.11121 0.00587725 0)
(1.11069 0.00351103 0)
(1.11043 0.00116767 0)
(1.16973 0.1665 0)
(1.18894 0.162121 0)
(1.19314 0.144926 0)
(1.19054 0.133038 0)
(1.1858 0.121161 0)
(1.18046 0.110501 0)
(1.17511 0.10086 0)
(1.16994 0.0920965 0)
(1.16497 0.0841103 0)
(1.16018 0.0768116 0)
(1.15557 0.070122 0)
(1.15113 0.0639745 0)
(1.14687 0.058311 0)
(1.14279 0.0530801 0)
(1.13892 0.0482363 0)
(1.13526 0.0437386 0)
(1.13182 0.0395503 0)
(1.12861 0.0356381 0)
(1.12563 0.0319717 0)
(1.12289 0.0285234 0)
(1.12039 0.0252679 0)
(1.11813 0.0221815 0)
(1.11613 0.0192425 0)
(1.11437 0.0164305 0)
(1.11286 0.0137261 0)
(1.1116 0.0111112 0)
(1.11059 0.00856848 0)
(1.10983 0.00608114 0)
(1.10933 0.00363315 0)
(1.10907 0.00120836 0)
(1.16263 0.169322 0)
(1.18116 0.164733 0)
(1.18556 0.147321 0)
(1.18352 0.135419 0)
(1.17942 0.123411 0)
(1.17467 0.112658 0)
(1.16985 0.102918 0)
(1.16516 0.0940525 0)
(1.1606 0.085965 0)
(1.15618 0.0785657 0)
(1.1519 0.0717767 0)
(1.14775 0.0655313 0)
(1.14375 0.0597713 0)
(1.13991 0.0544457 0)
(1.13625 0.0495088 0)
(1.13277 0.0449197 0)
(1.1295 0.0406417 0)
(1.12644 0.0366414 0)
(1.12359 0.0328884 0)
(1.12096 0.0293551 0)
(1.11857 0.0260159 0)
(1.1164 0.0228472 0)
(1.11447 0.019827 0)
(1.11278 0.0169348 0)
(1.11132 0.0141512 0)
(1.11011 0.0114579 0)
(1.10914 0.00883745 0)
(1.10841 0.0062729 0)
(1.10792 0.00374805 0)
(1.10768 0.00124665 0)
(1.15542 0.171536 0)
(1.17333 0.16676 0)
(1.17794 0.14923 0)
(1.17646 0.137373 0)
(1.17299 0.125288 0)
(1.16883 0.11449 0)
(1.16455 0.10469 0)
(1.16032 0.095757 0)
(1.15618 0.0875974 0)
(1.15213 0.0801229 0)
(1.14817 0.0732564 0)
(1.14432 0.0669322 0)
(1.14058 0.0610928 0)
(1.13697 0.0556875 0)
(1.13352 0.0506709 0)
(1.13023 0.0460024 0)
(1.12713 0.0416455 0)
(1.12421 0.0375669 0)
(1.1215 0.0337363 0)
(1.11899 0.0301261 0)
(1.1167 0.0267107 0)
(1.11462 0.0234666 0)
(1.11277 0.0203717 0)
(1.11115 0.0174054 0)
(1.10975 0.0145483 0)
(1.10858 0.0117821 0)
(1.10765 0.00908911 0)
(1.10694 0.0064524 0)
(1.10648 0.00385564 0)
(1.10624 0.0012825 0)
(1.14814 0.173153 0)
(1.16549 0.16821 0)
(1.17032 0.150664 0)
(1.16939 0.138906 0)
(1.16655 0.126796 0)
(1.16298 0.116001 0)
(1.15922 0.10618 0)
(1.15546 0.0972116 0)
(1.15173 0.0890086 0)
(1.14805 0.0814837 0)
(1.14441 0.0745615 0)
(1.14085 0.0681776 0)
(1.13737 0.0622756 0)
(1.13399 0.0568055 0)
(1.13075 0.0517225 0)
(1.12765 0.0469866 0)
(1.12471 0.0425615 0)
(1.12195 0.0384144 0)
(1.11937 0.0345151 0)
(1.11698 0.0308362 0)
(1.11479 0.0273521 0)
(1.11281 0.0240395 0)
(1.11103 0.0208763 0)
(1.10947 0.0178421 0)
(1.10813 0.0149173 0)
(1.10701 0.0120836 0)
(1.10611 0.00932335 0)
(1.10544 0.00661959 0)
(1.10499 0.00395588 0)
(1.10476 0.00131592 0)
(1.14084 0.174191 0)
(1.15767 0.169099 0)
(1.16273 0.151635 0)
(1.16236 0.140026 0)
(1.16012 0.127944 0)
(1.15712 0.117196 0)
(1.15388 0.10739 0)
(1.15058 0.0984193 0)
(1.14726 0.0902008 0)
(1.14394 0.0826499 0)
(1.14062 0.0756933 0)
(1.13735 0.0692684 0)
(1.13412 0.0633204 0)
(1.13098 0.0578002 0)
(1.12795 0.052664 0)
(1.12504 0.0478726 0)
(1.12226 0.0433901 0)
(1.11965 0.0391841 0)
(1.1172 0.0352249 0)
(1.11493 0.0314853 0)
(1.11284 0.0279401 0)
(1.11095 0.0245659 0)
(1.10926 0.021341 0)
(1.10777 0.0182448 0)
(1.10648 0.015258 0)
(1.10541 0.0123624 0)
(1.10455 0.00954014 0)
(1.1039 0.00677441 0)
(1.10347 0.00404876 0)
(1.10325 0.00134688 0)
(1.13357 0.174673 0)
(1.14993 0.169446 0)
(1.15521 0.15216 0)
(1.15538 0.140745 0)
(1.15374 0.12874 0)
(1.15129 0.118082 0)
(1.14856 0.108327 0)
(1.14571 0.0993844 0)
(1.14278 0.0911776 0)
(1.13981 0.0836241 0)
(1.13682 0.0766538 0)
(1.13383 0.0702063 0)
(1.13086 0.0642284 0)
(1.12795 0.0586726 0)
(1.12512 0.0534963 0)
(1.12239 0.0486609 0)
(1.11978 0.0441315 0)
(1.11732 0.0398762 0)
(1.115 0.0358659 0)
(1.11285 0.0320737 0)
(1.11086 0.0284747 0)
(1.10906 0.0250459 0)
(1.10745 0.0217656 0)
(1.10602 0.0186136 0)
(1.1048 0.0155706 0)
(1.10377 0.0126184 0)
(1.10294 0.00973946 0)
(1.10232 0.00691688 0)
(1.10191 0.00413427 0)
(1.1017 0.0013754 0)
(1.12637 0.17462 0)
(1.1423 0.169275 0)
(1.1478 0.152257 0)
(1.1485 0.141078 0)
(1.14742 0.129196 0)
(1.14551 0.118669 0)
(1.14327 0.108997 0)
(1.14085 0.100113 0)
(1.13832 0.0919435 0)
(1.13569 0.0844102 0)
(1.13301 0.0774461 0)
(1.1303 0.0709937 0)
(1.12758 0.0650017 0)
(1.12489 0.0594244 0)
(1.12227 0.0542205 0)
(1.11972 0.0493525 0)
(1.11728 0.0447866 0)
(1.11496 0.0404915 0)
(1.11277 0.0364387 0)
(1.11073 0.0326018 0)
(1.10886 0.0289564 0)
(1.10714 0.0254798 0)
(1.10561 0.0221505 0)
(1.10425 0.0189486 0)
(1.10308 0.0158551 0)
(1.1021 0.0128518 0)
(1.10131 0.00992139 0)
(1.10072 0.00704703 0)
(1.10032 0.00421243 0)
(1.10012 0.00140147 0)
(1.11928 0.174053 0)
(1.13481 0.168613 0)
(1.14053 0.15195 0)
(1.14173 0.14104 0)
(1.1412 0.129328 0)
(1.1398 0.118966 0)
(1.13803 0.10941 0)
(1.13603 0.100611 0)
(1.13387 0.092504 0)
(1.13159 0.0850125 0)
(1.12921 0.0780738 0)
(1.12676 0.0716334 0)
(1.12429 0.0656426 0)
(1.12183 0.0600574 0)
(1.1194 0.0548382 0)
(1.11704 0.0499489 0)
(1.11476 0.0453565 0)
(1.11258 0.0410308 0)
(1.11052 0.0369439 0)
(1.1086 0.0330702 0)
(1.10682 0.0293856 0)
(1.1052 0.0258678 0)
(1.10374 0.0224959 0)
(1.10245 0.0192501 0)
(1.10134 0.0161117 0)
(1.1004 0.0130627 0)
(1.09965 0.010086 0)
(1.09909 0.00716493 0)
(1.09871 0.00428329 0)
(1.09852 0.00142511 0)
(1.11235 0.173003 0)
(1.12749 0.167493 0)
(1.13341 0.151261 0)
(1.13509 0.140652 0)
(1.13508 0.129149 0)
(1.13417 0.118988 0)
(1.13285 0.109574 0)
(1.13126 0.100888 0)
(1.12946 0.0928659 0)
(1.1275 0.0854364 0)
(1.12542 0.0785413 0)
(1.12324 0.0721293 0)
(1.12101 0.0661542 0)
(1.11876 0.0605742 0)
(1.11653 0.0553516 0)
(1.11434 0.0504517 0)
(1.11222 0.0458426 0)
(1.11019 0.0414953 0)
(1.10826 0.0373826 0)
(1.10645 0.0334796 0)
(1.10477 0.0297629 0)
(1.10323 0.0262106 0)
(1.10185 0.0228023 0)
(1.10063 0.0195185 0)
(1.09957 0.0163407 0)
(1.09868 0.0132514 0)
(1.09797 0.0102335 0)
(1.09743 0.0072707 0)
(1.09707 0.00434691 0)
(1.09689 0.00144635 0)
(1.1056 0.171503 0)
(1.12038 0.165949 0)
(1.12649 0.150217 0)
(1.12862 0.139932 0)
(1.12909 0.128678 0)
(1.12865 0.118746 0)
(1.12775 0.109503 0)
(1.12655 0.100953 0)
(1.1251 0.0930363 0)
(1.12346 0.085688 0)
(1.12165 0.0788536 0)
(1.11973 0.0724852 0)
(1.11774 0.0665397 0)
(1.1157 0.0609776 0)
(1.11366 0.055763 0)
(1.11164 0.0508628 0)
(1.10967 0.0462466 0)
(1.10778 0.0418863 0)
(1.10597 0.0377559 0)
(1.10428 0.033831 0)
(1.1027 0.0300891 0)
(1.10125 0.0265088 0)
(1.09994 0.0230701 0)
(1.09879 0.019754 0)
(1.09778 0.0165424 0)
(1.09694 0.013418 0)
(1.09626 0.0103641 0)
(1.09575 0.00736447 0)
(1.0954 0.00440336 0)
(1.09523 0.00146521 0)
(1.09907 0.169589 0)
(1.1135 0.164017 0)
(1.11978 0.148844 0)
(1.12233 0.138904 0)
(1.12325 0.127932 0)
(1.12324 0.118256 0)
(1.12275 0.109206 0)
(1.12191 0.100814 0)
(1.1208 0.0930236 0)
(1.11945 0.085774 0)
(1.11793 0.0790162 0)
(1.11625 0.072706 0)
(1.11448 0.0668032 0)
(1.11265 0.0612709 0)
(1.11079 0.0560751 0)
(1.10894 0.0511845 0)
(1.10713 0.0465703 0)
(1.10537 0.0422055 0)
(1.10369 0.0380651 0)
(1.1021 0.0341256 0)
(1.10061 0.0303652 0)
(1.09925 0.0267632 0)
(1.09802 0.0233001 0)
(1.09693 0.0199574 0)
(1.09598 0.0167173 0)
(1.09518 0.013563 0)
(1.09453 0.010478 0)
(1.09404 0.00744642 0)
(1.09372 0.00445277 0)
(1.09356 0.00148172 0)
(1.09278 0.167299 0)
(1.10687 0.161736 0)
(1.11329 0.147169 0)
(1.11623 0.13759 0)
(1.11756 0.126932 0)
(1.11797 0.117533 0)
(1.11786 0.108698 0)
(1.11736 0.100483 0)
(1.11656 0.0928362 0)
(1.11551 0.0857017 0)
(1.11424 0.0790352 0)
(1.1128 0.0727967 0)
(1.11125 0.0669489 0)
(1.10961 0.0614575 0)
(1.10794 0.0562908 0)
(1.10625 0.0514194 0)
(1.10458 0.0468159 0)
(1.10295 0.0424546 0)
(1.10139 0.0383117 0)
(1.09991 0.0343646 0)
(1.09852 0.0305923 0)
(1.09724 0.0269747 0)
(1.09608 0.023493 0)
(1.09505 0.0201291 0)
(1.09415 0.0168659 0)
(1.0934 0.0136867 0)
(1.09279 0.0105755 0)
(1.09233 0.00751674 0)
(1.09202 0.00449523 0)
(1.09186 0.00149592 0)
(1.08675 0.164672 0)
(1.1005 0.159144 0)
(1.10705 0.145221 0)
(1.11034 0.136015 0)
(1.11206 0.125695 0)
(1.11284 0.116593 0)
(1.11308 0.10799 0)
(1.11291 0.099971 0)
(1.11241 0.0924837 0)
(1.11162 0.0854787 0)
(1.1106 0.0789172 0)
(1.10939 0.0727627 0)
(1.10805 0.0669813 0)
(1.1066 0.0615414 0)
(1.1051 0.0564136 0)
(1.10357 0.0515703 0)
(1.10204 0.0469858 0)
(1.10054 0.0426358 0)
(1.09909 0.0384975 0)
(1.09772 0.0345495 0)
(1.09642 0.0307715 0)
(1.09522 0.0271443 0)
(1.09414 0.0236496 0)
(1.09317 0.02027 0)
(1.09232 0.0169886 0)
(1.09161 0.0137895 0)
(1.09103 0.0106569 0)
(1.0906 0.00757567 0)
(1.0903 0.00453089 0)
(1.09016 0.00150786 0)
(1.08099 0.161747 0)
(1.09441 0.156277 0)
(1.10107 0.143026 0)
(1.10468 0.134201 0)
(1.10673 0.124243 0)
(1.10786 0.115452 0)
(1.10843 0.107099 0)
(1.10856 0.0992894 0)
(1.10834 0.0919755 0)
(1.10781 0.0851133 0)
(1.10702 0.0786689 0)
(1.10603 0.0726098 0)
(1.10488 0.0669053 0)
(1.10362 0.0615267 0)
(1.10228 0.0564468 0)
(1.1009 0.0516401 0)
(1.09951 0.0470824 0)
(1.09814 0.042751 0)
(1.0968 0.0386242 0)
(1.09552 0.0346817 0)
(1.09432 0.0309042 0)
(1.0932 0.0272731 0)
(1.09218 0.0237708 0)
(1.09127 0.0203806 0)
(1.09048 0.0170862 0)
(1.08981 0.013872 0)
(1.08926 0.0107226 0)
(1.08885 0.00762347 0)
(1.08858 0.00455991 0)
(1.08844 0.00151759 0)
(1.07553 0.15856 0)
(1.08862 0.153173 0)
(1.09535 0.140614 0)
(1.09924 0.132175 0)
(1.1016 0.122596 0)
(1.10304 0.114128 0)
(1.10391 0.106036 0)
(1.10433 0.09845 0)
(1.10436 0.0913216 0)
(1.10407 0.0846137 0)
(1.1035 0.0782974 0)
(1.10272 0.0723441 0)
(1.10176 0.0667262 0)
(1.10066 0.0614179 0)
(1.09948 0.0563943 0)
(1.09825 0.0516321 0)
(1.09699 0.0471086 0)
(1.09574 0.0428027 0)
(1.09452 0.0386939 0)
(1.09334 0.0347631 0)
(1.09222 0.0309917 0)
(1.09118 0.0273622 0)
(1.09023 0.0238577 0)
(1.08937 0.0204619 0)
(1.08863 0.0171593 0)
(1.088 0.0139346 0)
(1.08749 0.0107731 0)
(1.0871 0.00766042 0)
(1.08684 0.00458243 0)
(1.08671 0.00152516 0)
(1.07035 0.15515 0)
(1.08311 0.149868 0)
(1.08991 0.13801 0)
(1.09403 0.129959 0)
(1.09667 0.120773 0)
(1.0984 0.112637 0)
(1.09954 0.104817 0)
(1.10021 0.0974647 0)
(1.10048 0.0905322 0)
(1.10041 0.0839887 0)
(1.10006 0.0778102 0)
(1.09946 0.0719717 0)
(1.09868 0.0664492 0)
(1.09775 0.0612194 0)
(1.09672 0.05626 0)
(1.09563 0.0515494 0)
(1.0945 0.0470671 0)
(1.09336 0.0427932 0)
(1.09224 0.0387087 0)
(1.09115 0.0347953 0)
(1.09012 0.0310357 0)
(1.08915 0.0274131 0)
(1.08827 0.0239113 0)
(1.08747 0.0205148 0)
(1.08677 0.0172086 0)
(1.08618 0.0139779 0)
(1.0857 0.0108087 0)
(1.08534 0.00768681 0)
(1.08509 0.00459866 0)
(1.08497 0.00153063 0)
(1.06548 0.151552 0)
(1.07791 0.146395 0)
(1.08474 0.135241 0)
(1.08907 0.127578 0)
(1.09195 0.118794 0)
(1.09392 0.110994 0)
(1.09531 0.103456 0)
(1.09622 0.0963456 0)
(1.09671 0.0896176 0)
(1.09685 0.0832471 0)
(1.09668 0.0772147 0)
(1.09627 0.0714992 0)
(1.09565 0.0660797 0)
(1.09488 0.0609359 0)
(1.094 0.0560478 0)
(1.09303 0.0513958 0)
(1.09203 0.046961 0)
(1.091 0.0427252 0)
(1.08998 0.0386706 0)
(1.08898 0.0347803 0)
(1.08803 0.0310377 0)
(1.08713 0.027427 0)
(1.08631 0.0239328 0)
(1.08557 0.0205402 0)
(1.08492 0.0172349 0)
(1.08437 0.0140026 0)
(1.08392 0.0108298 0)
(1.08358 0.00770298 0)
(1.08335 0.00460877 0)
(1.08323 0.00153407 0)
(1.0609 0.1478 0)
(1.07301 0.142786 0)
(1.07984 0.132332 0)
(1.08435 0.125053 0)
(1.08743 0.116678 0)
(1.08963 0.109218 0)
(1.09124 0.101966 0)
(1.09235 0.0951047 0)
(1.09305 0.0885879 0)
(1.09337 0.0823975 0)
(1.09339 0.0765184 0)
(1.09314 0.070933 0)
(1.09268 0.0656235 0)
(1.09206 0.0605724 0)
(1.09131 0.0557619 0)
(1.09047 0.0511746 0)
(1.08958 0.0467933 0)
(1.08866 0.0426013 0)
(1.08773 0.0385821 0)
(1.08682 0.0347199 0)
(1.08595 0.0309993 0)
(1.08512 0.0274053 0)
(1.08436 0.0239233 0)
(1.08367 0.0205391 0)
(1.08306 0.0172389 0)
(1.08255 0.0140093 0)
(1.08213 0.0108371 0)
(1.08181 0.00770926 0)
(1.08159 0.00461297 0)
(1.08149 0.00153555 0)
(1.05662 0.143927 0)
(1.0684 0.139072 0)
(1.07522 0.129306 0)
(1.07986 0.122407 0)
(1.08312 0.114442 0)
(1.08551 0.107323 0)
(1.08732 0.100362 0)
(1.08862 0.0937537 0)
(1.08949 0.0874534 0)
(1.09 0.0814488 0)
(1.09018 0.0757289 0)
(1.09009 0.0702796 0)
(1.08977 0.0650862 0)
(1.08929 0.0601336 0)
(1.08866 0.0554066 0)
(1.08794 0.0508896 0)
(1.08716 0.0465672 0)
(1.08634 0.0424242 0)
(1.08551 0.0384455 0)
(1.08468 0.0346163 0)
(1.08388 0.0309224 0)
(1.08312 0.0273495 0)
(1.08242 0.023884 0)
(1.08178 0.0205124 0)
(1.08121 0.0172216 0)
(1.08073 0.0139987 0)
(1.08034 0.010831 0)
(1.08004 0.00770601 0)
(1.07984 0.00461147 0)
(1.07974 0.00153512 0)
(1.05264 0.139962 0)
(1.06408 0.13528 0)
(1.07087 0.126186 0)
(1.07562 0.119661 0)
(1.07901 0.112106 0)
(1.08158 0.105325 0)
(1.08355 0.0986566 0)
(1.08502 0.0923042 0)
(1.08606 0.0862241 0)
(1.08672 0.0804097 0)
(1.08705 0.0748539 0)
(1.0871 0.0695457 0)
(1.08692 0.0644734 0)
(1.08657 0.0596246 0)
(1.08606 0.0549862 0)
(1.08546 0.0505445 0)
(1.08477 0.046286 0)
(1.08405 0.0421967 0)
(1.0833 0.0382631 0)
(1.08255 0.0344715 0)
(1.08182 0.0308086 0)
(1.08113 0.0272612 0)
(1.08048 0.0238164 0)
(1.07989 0.0204614 0)
(1.07937 0.0171839 0)
(1.07892 0.0139714 0)
(1.07856 0.010812 0)
(1.07828 0.00769361 0)
(1.07809 0.0046045 0)
(1.078 0.00153288 0)
(1.04894 0.135934 0)
(1.06005 0.131435 0)
(1.06679 0.122994 0)
(1.0716 0.116833 0)
(1.07512 0.109685 0)
(1.07782 0.103238 0)
(1.07994 0.0968628 0)
(1.08156 0.0907675 0)
(1.08274 0.0849098 0)
(1.08354 0.0792887 0)
(1.08401 0.0739006 0)
(1.08419 0.0687377 0)
(1.08414 0.0637909 0)
(1.0839 0.0590503 0)
(1.08351 0.0545049 0)
(1.08301 0.0501431 0)
(1.08242 0.0459528 0)
(1.08179 0.0419218 0)
(1.08112 0.0380375 0)
(1.08045 0.0342877 0)
(1.07979 0.0306599 0)
(1.07915 0.0271419 0)
(1.07856 0.0237217 0)
(1.07801 0.0203871 0)
(1.07753 0.0171265 0)
(1.07712 0.0139282 0)
(1.07678 0.0107807 0)
(1.07652 0.00767245 0)
(1.07635 0.00459228 0)
(1.07626 0.00152889 0)
(1.04551 0.131866 0)
(1.0563 0.127561 0)
(1.06296 0.119747 0)
(1.06782 0.113943 0)
(1.07142 0.107195 0)
(1.07425 0.101077 0)
(1.07649 0.0949931 0)
(1.07823 0.0891544 0)
(1.07954 0.0835201 0)
(1.08047 0.0780944 0)
(1.08106 0.0728767 0)
(1.08136 0.067862 0)
(1.08143 0.0630442 0)
(1.0813 0.0584156 0)
(1.08101 0.0539671 0)
(1.0806 0.0496891 0)
(1.08011 0.0455711 0)
(1.07956 0.0416021 0)
(1.07897 0.0377712 0)
(1.07837 0.0340669 0)
(1.07777 0.0304781 0)
(1.07719 0.0269933 0)
(1.07665 0.0236012 0)
(1.07615 0.0202907 0)
(1.0757 0.0170506 0)
(1.07532 0.0138698 0)
(1.07501 0.0107376 0)
(1.07477 0.00764292 0)
(1.07461 0.00457505 0)
(1.07453 0.00152323 0)
(1.04236 0.127784 0)
(1.05282 0.123678 0)
(1.05939 0.116465 0)
(1.06427 0.111007 0)
(1.06793 0.104651 0)
(1.07085 0.098855 0)
(1.07319 0.0930592 0)
(1.07504 0.0874754 0)
(1.07647 0.0820642 0)
(1.0775 0.0768347 0)
(1.0782 0.0717891 0)
(1.07861 0.0669251 0)
(1.07878 0.0622391 0)
(1.07875 0.0577254 0)
(1.07856 0.0533772 0)
(1.07824 0.0491864 0)
(1.07783 0.045144 0)
(1.07736 0.0412407 0)
(1.07685 0.0374666 0)
(1.07631 0.0338115 0)
(1.07577 0.030265 0)
(1.07525 0.0268168 0)
(1.07475 0.0234564 0)
(1.0743 0.0201732 0)
(1.07389 0.0169569 0)
(1.07354 0.0137971 0)
(1.07325 0.0106833 0)
(1.07302 0.00760543 0)
(1.07288 0.00455306 0)
(1.0728 0.00151598 0)
(1.03946 0.123706 0)
(1.04959 0.119805 0)
(1.05606 0.113164 0)
(1.06093 0.108041 0)
(1.06463 0.102067 0)
(1.06762 0.0965844 0)
(1.07005 0.0910724 0)
(1.07199 0.0857404 0)
(1.07351 0.0805511 0)
(1.07464 0.0755177 0)
(1.07544 0.0706449 0)
(1.07594 0.0659331 0)
(1.07621 0.0613808 0)
(1.07627 0.0569846 0)
(1.07616 0.0527393 0)
(1.07593 0.0486386 0)
(1.0756 0.044675 0)
(1.0752 0.0408405 0)
(1.07475 0.0371264 0)
(1.07428 0.0335235 0)
(1.0738 0.0300227 0)
(1.07333 0.0266142 0)
(1.07288 0.0232886 0)
(1.07246 0.0200359 0)
(1.07209 0.0168465 0)
(1.07176 0.0137107 0)
(1.0715 0.0106185 0)
(1.07129 0.0075604 0)
(1.07115 0.00452654 0)
(1.07108 0.00150723 0)
(1.0368 0.119652 0)
(1.04661 0.115957 0)
(1.05296 0.109859 0)
(1.0578 0.105058 0)
(1.06153 0.0994542 0)
(1.06456 0.094277 0)
(1.06705 0.0890431 0)
(1.06907 0.0839589 0)
(1.07066 0.0789892 0)
(1.07188 0.0741508 0)
(1.07276 0.069451 0)
(1.07336 0.0648921 0)
(1.0737 0.0604749 0)
(1.07385 0.0561979 0)
(1.07382 0.0520577 0)
(1.07367 0.0480495 0)
(1.07341 0.0441673 0)
(1.07308 0.0404042 0)
(1.07269 0.0367529 0)
(1.07228 0.0332053 0)
(1.07185 0.0297529 0)
(1.07143 0.0263872 0)
(1.07102 0.0230992 0)
(1.07064 0.01988 0)
(1.0703 0.0167204 0)
(1.07 0.0136114 0)
(1.06976 0.0105437 0)
(1.06957 0.00750824 0)
(1.06944 0.00449575 0)
(1.06938 0.00149705 0)
(1.03438 0.115637 0)
(1.04387 0.11215 0)
(1.05008 0.106563 0)
(1.05488 0.102073 0)
(1.0586 0.0968258 0)
(1.06167 0.0919437 0)
(1.06421 0.0869813 0)
(1.06628 0.08214 0)
(1.06794 0.0773866 0)
(1.06923 0.0727415 0)
(1.07018 0.0682137 0)
(1.07085 0.0638078 0)
(1.07127 0.0595265 0)
(1.07149 0.0553699 0)
(1.07154 0.0513364 0)
(1.07145 0.0474227 0)
(1.07126 0.043624 0)
(1.07099 0.0399348 0)
(1.07067 0.0363488 0)
(1.07031 0.0328589 0)
(1.06993 0.0294577 0)
(1.06955 0.0261373 0)
(1.06919 0.0228896 0)
(1.06884 0.0197065 0)
(1.06853 0.0165795 0)
(1.06826 0.0135 0)
(1.06803 0.0104595 0)
(1.06786 0.00744937 0)
(1.06774 0.00446094 0)
(1.06768 0.00148553 0)
(1.03218 0.111675 0)
(1.04135 0.108395 0)
(1.04742 0.103288 0)
(1.05215 0.0990963 0)
(1.05586 0.094192 0)
(1.05894 0.0895944 0)
(1.0615 0.0848961 0)
(1.06362 0.0802919 0)
(1.06533 0.0757509 0)
(1.06668 0.0712965 0)
(1.06769 0.0669394 0)
(1.06843 0.0626859 0)
(1.06891 0.0585405 0)
(1.0692 0.0545052 0)
(1.06931 0.0505796 0)
(1.06929 0.0467617 0)
(1.06916 0.0430484 0)
(1.06895 0.0394351 0)
(1.06868 0.0359165 0)
(1.06837 0.0324865 0)
(1.06804 0.0291387 0)
(1.0677 0.0258661 0)
(1.06737 0.0226613 0)
(1.06706 0.0195168 0)
(1.06678 0.0164247 0)
(1.06653 0.0133773 0)
(1.06632 0.0103665 0)
(1.06616 0.0073842 0)
(1.06606 0.00442235 0)
(1.066 0.00147275 0)
(1.03019 0.10778 0)
(1.03904 0.104703 0)
(1.04495 0.100045 0)
(1.04961 0.0961386 0)
(1.05328 0.0915624 0)
(1.05636 0.0872383 0)
(1.05894 0.0827961 0)
(1.06109 0.0784225 0)
(1.06284 0.0740894 0)
(1.06423 0.0698225 0)
(1.0653 0.0656339 0)
(1.06608 0.0615316 0)
(1.06663 0.0575219 0)
(1.06697 0.053608 0)
(1.06714 0.0497909 0)
(1.06718 0.0460702 0)
(1.0671 0.0424435 0)
(1.06695 0.0389077 0)
(1.06673 0.0354583 0)
(1.06646 0.0320903 0)
(1.06617 0.028798 0)
(1.06588 0.0255753 0)
(1.06558 0.0224155 0)
(1.0653 0.0193118 0)
(1.06505 0.0162571 0)
(1.06482 0.013244 0)
(1.06463 0.0102652 0)
(1.06449 0.00731316 0)
(1.06439 0.00438023 0)
(1.06434 0.0014588 0)
(1.02839 0.10396 0)
(1.03693 0.101083 0)
(1.04268 0.0968443 0)
(1.04724 0.0932091 0)
(1.05087 0.0889457 0)
(1.05393 0.084884 0)
(1.05651 0.080689 0)
(1.05867 0.0765391 0)
(1.06045 0.0724087 0)
(1.06188 0.0683256 0)
(1.06299 0.0643028 0)
(1.06382 0.0603502 0)
(1.06442 0.0564752 0)
(1.06481 0.0526825 0)
(1.06503 0.0489743 0)
(1.06512 0.0453513 0)
(1.0651 0.0418124 0)
(1.06498 0.0383552 0)
(1.06481 0.0349766 0)
(1.06459 0.0316723 0)
(1.06434 0.0284374 0)
(1.06408 0.0252664 0)
(1.06382 0.0221537 0)
(1.06357 0.0190929 0)
(1.06333 0.0160775 0)
(1.06313 0.013101 0)
(1.06296 0.0101563 0)
(1.06283 0.00723664 0)
(1.06274 0.00433483 0)
(1.06269 0.00144375 0)
(1.02676 0.100224 0)
(1.035 0.0975415 0)
(1.04059 0.0936927 0)
(1.04504 0.0903159 0)
(1.04862 0.0863498 0)
(1.05165 0.0825389 0)
(1.05422 0.0785821 0)
(1.05638 0.0746483 0)
(1.05818 0.0707151 0)
(1.05963 0.0668114 0)
(1.06077 0.0629516 0)
(1.06164 0.0591465 0)
(1.06228 0.0554049 0)
(1.06272 0.0517327 0)
(1.06298 0.0481333 0)
(1.06312 0.0446083 0)
(1.06313 0.0411578 0)
(1.06307 0.0377804 0)
(1.06293 0.0344738 0)
(1.06275 0.0312345 0)
(1.06254 0.0280585 0)
(1.06231 0.0249411 0)
(1.06208 0.0218771 0)
(1.06185 0.018861 0)
(1.06165 0.015887 0)
(1.06146 0.0129489 0)
(1.0613 0.0100404 0)
(1.06118 0.00715506 0)
(1.0611 0.00428638 0)
(1.06106 0.00142768 0)
(1.02531 0.0965789 0)
(1.03325 0.0940854 0)
(1.03866 0.0905977 0)
(1.043 0.087466 0)
(1.04651 0.0837815 0)
(1.0495 0.0802099 0)
(1.05205 0.0764817 0)
(1.05421 0.0727565 0)
(1.05601 0.0690143 0)
(1.05747 0.0652855 0)
(1.05864 0.061585 0)
(1.05954 0.057925 0)
(1.06021 0.0543151 0)
(1.06068 0.0507624 0)
(1.06099 0.0472712 0)
(1.06116 0.0438444 0)
(1.06122 0.0404827 0)
(1.06119 0.0371858 0)
(1.0611 0.033952 0)
(1.06095 0.0307789 0)
(1.06077 0.0276631 0)
(1.06057 0.0246007 0)
(1.06037 0.0215871 0)
(1.06017 0.0186174 0)
(1.05998 0.0156864 0)
(1.05981 0.0127885 0)
(1.05967 0.00991793 0)
(1.05956 0.00706883 0)
(1.05949 0.00423512 0)
(1.05945 0.00141068 0)
(1.02402 0.0930308 0)
(1.03166 0.0907191 0)
(1.0369 0.0875652 0)
(1.04112 0.0846653 0)
(1.04454 0.081247 0)
(1.04748 0.077903 0)
(1.05 0.0743938 0)
(1.05214 0.0708691 0)
(1.05394 0.0673118 0)
(1.05541 0.0637529 0)
(1.05659 0.0602079 0)
(1.05752 0.05669 0)
(1.05821 0.0532098 0)
(1.05872 0.0497752 0)
(1.05906 0.0463915 0)
(1.05926 0.0430624 0)
(1.05936 0.0397897 0)
(1.05936 0.0365736 0)
(1.0593 0.0334135 0)
(1.05918 0.0303075 0)
(1.05903 0.027253 0)
(1.05886 0.0242467 0)
(1.05868 0.0212849 0)
(1.05851 0.018363 0)
(1.05834 0.0154766 0)
(1.05819 0.0126205 0)
(1.05806 0.00978954 0)
(1.05796 0.00697833 0)
(1.05789 0.00418131 0)
(1.05786 0.00139282 0)
(1.02287 0.0895838 0)
(1.03022 0.0874462 0)
(1.03528 0.0845999 0)
(1.03937 0.0819189 0)
(1.04271 0.0787515 0)
(1.04559 0.0756236 0)
(1.04807 0.0723236 0)
(1.05019 0.0689913 0)
(1.05197 0.0656123 0)
(1.05344 0.0622181 0)
(1.05463 0.0588245 0)
(1.05557 0.0554455 0)
(1.05629 0.0520927 0)
(1.05682 0.0487745 0)
(1.05718 0.0454973 0)
(1.05742 0.0422654 0)
(1.05754 0.0390813 0)
(1.05757 0.0359463 0)
(1.05754 0.0328602 0)
(1.05745 0.029822 0)
(1.05733 0.0268297 0)
(1.05719 0.0238807 0)
(1.05703 0.0209718 0)
(1.05687 0.0180991 0)
(1.05672 0.0152585 0)
(1.05659 0.0124457 0)
(1.05647 0.00965578 0)
(1.05638 0.00688397 0)
(1.05632 0.00412516 0)
(1.05628 0.00137418 0)
(1.02185 0.086241 0)
(1.02891 0.0842693 0)
(1.0338 0.0817059 0)
(1.03776 0.0792313 0)
(1.04101 0.0762996 0)
(1.04382 0.0733765 0)
(1.04625 0.0702759 0)
(1.04833 0.0671278 0)
(1.0501 0.0639204 0)
(1.05156 0.0606853 0)
(1.05275 0.0574388 0)
(1.0537 0.0541954 0)
(1.05443 0.0509673 0)
(1.05498 0.0477637 0)
(1.05537 0.0445916 0)
(1.05562 0.041456 0)
(1.05577 0.0383603 0)
(1.05583 0.0353062 0)
(1.05582 0.0322944 0)
(1.05576 0.0293244 0)
(1.05566 0.026395 0)
(1.05554 0.0235041 0)
(1.0554 0.020649 0)
(1.05526 0.0178265 0)
(1.05513 0.0150331 0)
(1.05501 0.0122647 0)
(1.0549 0.00951719 0)
(1.05482 0.00678612 0)
(1.05476 0.00406692 0)
(1.05474 0.00135485 0)
(1.02095 0.0830048 0)
(1.02774 0.0811902 0)
(1.03245 0.0788864 0)
(1.03627 0.0766058 0)
(1.03942 0.0738952 0)
(1.04216 0.0711659 0)
(1.04453 0.0682548 0)
(1.04658 0.0652827 0)
(1.04831 0.0622402 0)
(1.04976 0.0591587 0)
(1.05095 0.0560546 0)
(1.0519 0.0529432 0)
(1.05264 0.049837 0)
(1.0532 0.0467458 0)
(1.0536 0.0436772 0)
(1.05388 0.0406369 0)
(1.05405 0.0376288 0)
(1.05413 0.0346553 0)
(1.05415 0.0317178 0)
(1.05411 0.0288164 0)
(1.05403 0.0259504 0)
(1.05393 0.0231182 0)
(1.05381 0.0203177 0)
(1.05369 0.0175464 0)
(1.05357 0.0148011 0)
(1.05346 0.0120783 0)
(1.05336 0.0093743 0)
(1.05329 0.00668518 0)
(1.05323 0.0040068 0)
(1.05321 0.00133488 0)
(1.02017 0.0798765 0)
(1.02669 0.0782098 0)
(1.03122 0.076144 0)
(1.0349 0.0740454 0)
(1.03795 0.0715418 0)
(1.0406 0.0689953 0)
(1.04292 0.0662641 0)
(1.04492 0.0634598 0)
(1.04662 0.0605753 0)
(1.04805 0.0576417 0)
(1.04922 0.0546754 0)
(1.05017 0.0516922 0)
(1.05091 0.0487048 0)
(1.05148 0.0457237 0)
(1.0519 0.0427568 0)
(1.05219 0.0398105 0)
(1.05238 0.0368892 0)
(1.05248 0.0339959 0)
(1.05251 0.0311325 0)
(1.05249 0.0282997 0)
(1.05243 0.0254973 0)
(1.05234 0.0227243 0)
(1.05224 0.0199792 0)
(1.05213 0.0172597 0)
(1.05203 0.0145633 0)
(1.05193 0.0118871 0)
(1.05184 0.00922763 0)
(1.05178 0.0065815 0)
(1.05173 0.00394503 0)
(1.0517 0.00131436 0)
(1.01948 0.0768567 0)
(1.02575 0.0753289 0)
(1.0301 0.0734805 0)
(1.03363 0.0715523 0)
(1.03658 0.0692421 0)
(1.03915 0.0668678 0)
(1.0414 0.064307 0)
(1.04335 0.0616624 0)
(1.04501 0.0589291 0)
(1.04642 0.0561376 0)
(1.04757 0.0533044 0)
(1.04851 0.0504454 0)
(1.04925 0.0475737 0)
(1.04982 0.0447001 0)
(1.05025 0.0418331 0)
(1.05055 0.0389793 0)
(1.05075 0.0361437 0)
(1.05087 0.0333299 0)
(1.05091 0.0305402 0)
(1.05091 0.0277759 0)
(1.05087 0.0250372 0)
(1.05079 0.0223238 0)
(1.05071 0.0196344 0)
(1.05061 0.0169674 0)
(1.05052 0.0143207 0)
(1.05043 0.0116917 0)
(1.05035 0.00907767 0)
(1.05029 0.00647545 0)
(1.05025 0.00388181 0)
(1.05022 0.00129336 0)
(1.01889 0.0739453 0)
(1.0249 0.0725472 0)
(1.02908 0.0708974 0)
(1.03247 0.0691283 0)
(1.03531 0.0669982 0)
(1.0378 0.0647861 0)
(1.03997 0.0623863 0)
(1.04186 0.0598935 0)
(1.04349 0.0573046 0)
(1.04486 0.0546494 0)
(1.04599 0.0519444 0)
(1.04692 0.0492056 0)
(1.04765 0.0464463 0)
(1.04822 0.0436776 0)
(1.04865 0.0409082 0)
(1.04896 0.0381453 0)
(1.04917 0.0353943 0)
(1.0493 0.0326591 0)
(1.04936 0.0299427 0)
(1.04937 0.0272466 0)
(1.04934 0.0245716 0)
(1.04928 0.0219178 0)
(1.0492 0.0192845 0)
(1.04912 0.0166704 0)
(1.04903 0.0140739 0)
(1.04895 0.0114929 0)
(1.04888 0.00892492 0)
(1.04883 0.00636735 0)
(1.04879 0.00381736 0)
(1.04877 0.00127195 0)
(1.01839 0.0711417 0)
(1.02415 0.0698641 0)
(1.02815 0.0683953 0)
(1.03141 0.0667746 0)
(1.03413 0.0648122 0)
(1.03653 0.0627522 0)
(1.03863 0.0605044 0)
(1.04046 0.0581556 0)
(1.04204 0.0557043 0)
(1.04338 0.0531797 0)
(1.04449 0.0505981 0)
(1.04539 0.0479754 0)
(1.04612 0.0453251 0)
(1.04668 0.0426584 0)
(1.04711 0.0399845 0)
(1.04742 0.0373107 0)
(1.04764 0.0346429 0)
(1.04777 0.0319854 0)
(1.04784 0.0293414 0)
(1.04786 0.0267131 0)
(1.04784 0.0241017 0)
(1.04779 0.0215075 0)
(1.04773 0.0189304 0)
(1.04766 0.0163696 0)
(1.04758 0.0138237 0)
(1.04751 0.0112911 0)
(1.04744 0.00876981 0)
(1.04739 0.00625754 0)
(1.04735 0.00375187 0)
(1.04734 0.00125018 0)
(1.01796 0.0684445 0)
(1.02349 0.0672787 0)
(1.02732 0.0659747 0)
(1.03043 0.064492 0)
(1.03304 0.0626852 0)
(1.03534 0.0607679 0)
(1.03737 0.0586634 0)
(1.03914 0.056451 0)
(1.04067 0.0541308 0)
(1.04196 0.051731 0)
(1.04304 0.0492678 0)
(1.04393 0.0467571 0)
(1.04464 0.0442123 0)
(1.04519 0.0416449 0)
(1.04562 0.039064 0)
(1.04593 0.0364775 0)
(1.04615 0.0338913 0)
(1.04629 0.0313103 0)
(1.04637 0.028738 0)
(1.04639 0.0261769 0)
(1.04638 0.0236286 0)
(1.04634 0.021094 0)
(1.04629 0.0185731 0)
(1.04622 0.0160657 0)
(1.04615 0.0135707 0)
(1.04609 0.011087 0)
(1.04603 0.00861278 0)
(1.04598 0.00614631 0)
(1.04595 0.0036855 0)
(1.04593 0.00122812 0)
(1.0176 0.0658517 0)
(1.0229 0.0647896 0)
(1.02656 0.0636353 0)
(1.02953 0.0622807 0)
(1.03203 0.0606183 0)
(1.03424 0.0588346 0)
(1.03618 0.0568649 0)
(1.03789 0.0547814 0)
(1.03936 0.0525858 0)
(1.04062 0.0503053 0)
(1.04166 0.0479557 0)
(1.04252 0.0455527 0)
(1.04321 0.04311 0)
(1.04376 0.0406388 0)
(1.04418 0.0381485 0)
(1.04449 0.0356472 0)
(1.04471 0.0331411 0)
(1.04485 0.0306354 0)
(1.04493 0.0281338 0)
(1.04496 0.0256392 0)
(1.04496 0.0231536 0)
(1.04493 0.0206782 0)
(1.04488 0.0182136 0)
(1.04482 0.0157595 0)
(1.04475 0.0133156 0)
(1.04469 0.0108809 0)
(1.04464 0.00845422 0)