/*--------------------------------*- C++ -*----------------------------------*\
  =========                 |
  \\      /  F ield         | OpenFOAM: The Open Source CFD Toolbox
   \\    /   O peration     | Website:  https://openfoam.org
    \\  /    A nd           | Version:  7
     \\/     M anipulation  |
\*---------------------------------------------------------------------------*/
FoamFile
{
    version     2.0;
    format      ascii;
    class       volScalarField;
    location    "45";
    object      p;
}
// * * * * * * * * * * * * * * * * * * * * * * * * * * * * * * * * * * * * * //

dimensions      [0 2 -2 0 0 0 0];

internalField   nonuniform List<scalar> 
1360
(
-0.0210793
-0.0217814
-0.0224915
-0.0232246
-0.0239579
-0.0246751
-0.0253628
-0.0260103
-0.0266101
-0.0271576
-0.0276502
-0.0280875
-0.0284699
-0.0287988
-0.0290761
-0.0293036
-0.0294832
-0.0296163
-0.0297044
-0.0297482
-0.0202945
-0.0209844
-0.021683
-0.0224052
-0.0231288
-0.0238377
-0.0245187
-0.025161
-0.0257571
-0.0263021
-0.0267935
-0.0272303
-0.0276129
-0.0279425
-0.0282207
-0.0284492
-0.0286297
-0.0287637
-0.0288523
-0.0288964
-0.0195327
-0.02021
-0.0208968
-0.0216077
-0.0223209
-0.0230209
-0.0236944
-0.0243307
-0.0249223
-0.0254641
-0.0259533
-0.0263889
-0.026771
-0.0271006
-0.0273791
-0.0276081
-0.0277891
-0.0279236
-0.0280126
-0.0280569
-0.0187929
-0.0194575
-0.0201321
-0.0208313
-0.0215337
-0.0222241
-0.0228894
-0.0235191
-0.0241054
-0.0246431
-0.0251294
-0.025563
-0.0259439
-0.0262729
-0.0265512
-0.0267802
-0.0269615
-0.0270961
-0.0271853
-0.0272297
-0.0180745
-0.0187261
-0.0193882
-0.0200753
-0.0207665
-0.0214468
-0.0221033
-0.0227256
-0.0233058
-0.0238389
-0.0243216
-0.0247526
-0.0251317
-0.0254594
-0.025737
-0.0259656
-0.0261466
-0.0262812
-0.0263704
-0.0264148
-0.0173764
-0.0180149
-0.0186644
-0.0193391
-0.0200186
-0.0206883
-0.0213355
-0.0219498
-0.0225234
-0.0230511
-0.0235296
-0.0239573
-0.024334
-0.02466
-0.0249363
-0.0251641
-0.0253446
-0.0254789
-0.0255679
-0.0256122
-0.0166981
-0.0173232
-0.0179599
-0.0186219
-0.0192894
-0.0199481
-0.0205855
-0.0211912
-0.0217577
-0.0222794
-0.022753
-0.0231769
-0.0235506
-0.0238743
-0.024149
-0.0243756
-0.0245552
-0.024689
-0.0247776
-0.0248218
-0.0160386
-0.0166503
-0.0172741
-0.0179232
-0.0185784
-0.0192257
-0.0198528
-0.0204496
-0.0210082
-0.0215234
-0.0219917
-0.0224112
-0.0227814
-0.0231024
-0.023375
-0.0236
-0.0237785
-0.0239114
-0.0239996
-0.0240435
-0.0153974
-0.0159956
-0.0166063
-0.0172423
-0.017885
-0.0185206
-0.019137
-0.0197243
-0.0202747
-0.0207828
-0.0212452
-0.0216599
-0.0220261
-0.022344
-0.0226141
-0.0228372
-0.0230142
-0.0231462
-0.0232337
-0.0232773
-0.0147736
-0.0153584
-0.0159559
-0.0165787
-0.0172086
-0.0178321
-0.0184376
-0.019015
-0.0195567
-0.0200574
-0.0205134
-0.0209228
-0.0212846
-0.0215989
-0.0218661
-0.022087
-0.0222624
-0.0223931
-0.0224799
-0.0225231
-0.0141667
-0.014738
-0.0153224
-0.0159318
-0.0165487
-0.01716
-0.0177541
-0.0183212
-0.0188539
-0.0193467
-0.0197959
-0.0201995
-0.0205565
-0.0208669
-0.0211309
-0.0213492
-0.0215227
-0.0216521
-0.0217379
-0.0217807
-0.0135761
-0.0141338
-0.014705
-0.015301
-0.0159048
-0.0165036
-0.0170861
-0.0176427
-0.0181659
-0.0186504
-0.0190924
-0.0194898
-0.0198417
-0.0201477
-0.0204082
-0.0206238
-0.0207951
-0.0209229
-0.0210078
-0.02105
-0.0130011
-0.0135454
-0.0141033
-0.0146859
-0.0152764
-0.0158626
-0.0164332
-0.0169789
-0.0174924
-0.0179681
-0.0184026
-0.0187936
-0.0191399
-0.0194413
-0.019698
-0.0199105
-0.0200794
-0.0202055
-0.0202892
-0.0203309
-0.0124412
-0.0129721
-0.0135169
-0.0140858
-0.0146631
-0.0152364
-0.015795
-0.0163295
-0.0168329
-0.0172997
-0.0177263
-0.0181103
-0.0184508
-0.0187473
-0.0189998
-0.019209
-0.0193754
-0.0194996
-0.0195821
-0.0196232
-0.0118958
-0.0124134
-0.012945
-0.0135005
-0.0140643
-0.0146247
-0.015171
-0.0156942
-0.0161872
-0.0166447
-0.017063
-0.0174399
-0.0177742
-0.0180654
-0.0183137
-0.0185193
-0.0186829
-0.0188051
-0.0188862
-0.0189266
-0.0113645
-0.0118689
-0.0123874
-0.0129293
-0.0134797
-0.014027
-0.0145608
-0.0150725
-0.0155549
-0.0160028
-0.0164126
-0.016782
-0.0171098
-0.0173955
-0.0176392
-0.0178411
-0.0180017
-0.0181217
-0.0182014
-0.0182411
-0.0108468
-0.0113381
-0.0118435
-0.0123719
-0.0129088
-0.0134429
-0.0139642
-0.0144641
-0.0149356
-0.0153737
-0.0157747
-0.0161364
-0.0164574
-0.0167374
-0.0169761
-0.0171741
-0.0173316
-0.0174493
-0.0175275
-0.0175665
-0.0103422
-0.0108204
-0.0113129
-0.0118278
-0.0123512
-0.012872
-0.0133807
-0.0138686
-0.0143291
-0.0147571
-0.015149
-0.0155027
-0.0158167
-0.0160906
-0.0163243
-0.0165181
-0.0166724
-0.0167876
-0.0168642
-0.0169024
-0.0098502
-0.0103156
-0.0107952
-0.0112967
-0.0118065
-0.0123141
-0.0128099
-0.0132857
-0.0137349
-0.0141526
-0.0145353
-0.0148806
-0.0151874
-0.0154551
-0.0156835
-0.015873
-0.0160238
-0.0161365
-0.0162113
-0.0162487
-0.0093705
-0.00982319
-0.01029
-0.0107781
-0.0112744
-0.0117686
-0.0122515
-0.0127151
-0.0131528
-0.01356
-0.0139331
-0.01427
-0.0145693
-0.0148305
-0.0150534
-0.0152383
-0.0153856
-0.0154956
-0.0155687
-0.0156051
-0.00890266
-0.00934278
-0.00979686
-0.0102717
-0.0107545
-0.0112353
-0.0117052
-0.0121564
-0.0125825
-0.012979
-0.0133424
-0.0136705
-0.013962
-0.0142165
-0.0144337
-0.014614
-0.0147575
-0.0148647
-0.014936
-0.0149715
-0.00844633
-0.00887403
-0.00931554
-0.00977712
-0.0102465
-0.0107139
-0.0111707
-0.0116093
-0.0120237
-0.0124092
-0.0127626
-0.0130817
-0.0133654
-0.0136129
-0.0138243
-0.0139996
-0.0141393
-0.0142436
-0.0143129
-0.0143475
-0.00800115
-0.0084166
-0.00884567
-0.00929409
-0.00975
-0.010204
-0.0106476
-0.0110736
-0.011476
-0.0118504
-0.0121936
-0.0125036
-0.012779
-0.0130194
-0.0132247
-0.013395
-0.0135307
-0.013632
-0.0136993
-0.0137329
-0.00756681
-0.00797019
-0.00838693
-0.00882228
-0.00926477
-0.00970528
-0.0101357
-0.0105489
-0.0109392
-0.0113023
-0.0116351
-0.0119356
-0.0122027
-0.0124358
-0.0126348
-0.0127999
-0.0129314
-0.0130296
-0.0130949
-0.0131275
-0.007143
-0.00753448
-0.00793903
-0.0083614
-0.0087905
-0.00921753
-0.0096346
-0.0100349
-0.0104129
-0.0107645
-0.0110867
-0.0113776
-0.0116361
-0.0118617
-0.0120542
-0.012214
-0.0123412
-0.0124362
-0.0124993
-0.0125308
-0.00672945
-0.00710921
-0.0075017
-0.00791117
-0.00832692
-0.00874044
-0.00914412
-0.00953138
-0.00989695
-0.0102368
-0.0105482
-0.0108293
-0.011079
-0.0112968
-0.0114827
-0.0116369
-0.0117597
-0.0118514
-0.0119124
-0.0119428
-0.00632589
-0.00669413
-0.0070747
-0.00747136
-0.00787379
-0.00827377
-0.00866397
-0.00903807
-0.00939101
-0.009719
-0.0100194
-0.0102904
-0.010531
-0.0107409
-0.01092
-0.0110685
-0.0111868
-0.011275
-0.0113337
-0.011363
-0.0059321
-0.00628901
-0.00665779
-0.00704173
-0.00743086
-0.00781727
-0.0081939
-0.00855469
-0.00889483
-0.00921071
-0.00949981
-0.0097605
-0.00999191
-0.0101937
-0.0103657
-0.0105084
-0.010622
-0.0107067
-0.0107631
-0.0107912
-0.00554785
-0.00589364
-0.00625077
-0.00662207
-0.00699793
-0.00737071
-0.00773366
-0.008081
-0.00840814
-0.00871169
-0.00898929
-0.00923945
-0.00946137
-0.00965476
-0.00981965
-0.00995629
-0.010065
-0.0101462
-0.0102001
-0.010227
-0.00517296
-0.00550783
-0.00585346
-0.00621219
-0.00657479
-0.0069339
-0.00728305
-0.00761675
-0.00793069
-0.00822167
-0.00848752
-0.0087269
-0.0089391
-0.0091239
-0.00928139
-0.00941184
-0.00951561
-0.00959305
-0.0096445
-0.00967015
-0.00480726
-0.00513143
-0.00546569
-0.00581193
-0.00616126
-0.00650662
-0.00684183
-0.00716172
-0.00746221
-0.00774038
-0.00799423
-0.00822256
-0.00842479
-0.00860078
-0.00875066
-0.00887476
-0.00897342
-0.00904704
-0.00909594
-0.00912031
-0.00445061
-0.00476431
-0.00508734
-0.00542115
-0.00575719
-0.0060887
-0.00640982
-0.00671567
-0.00700248
-0.00726756
-0.00750911
-0.00772612
-0.00791813
-0.00808506
-0.00822714
-0.00834469
-0.00843812
-0.00850781
-0.00855408
-0.00857714
-0.00410291
-0.00440635
-0.00471828
-0.00503971
-0.00536244
-0.00567999
-0.00598683
-0.0062784
-0.00655125
-0.00680293
-0.0070319
-0.00723729
-0.00741879
-0.00757643
-0.00771048
-0.00782131
-0.00790936
-0.007975
-0.00801858
-0.0080403
-0.00376407
-0.00405749
-0.00435845
-0.00466754
-0.00497688
-0.00528033
-0.00557267
-0.0058497
-0.00610827
-0.00634624
-0.00656229
-0.00675576
-0.00692646
-0.00707455
-0.00720034
-0.00730427
-0.00738678
-0.00744828
-0.00748909
-0.00750942
-0.00343405
-0.00371769
-0.00400779
-0.00430456
-0.00460043
-0.00488959
-0.00516719
-0.00542936
-0.00567331
-0.00589721
-0.00609999
-0.0062812
-0.00644081
-0.00657906
-0.00669637
-0.00679321
-0.00687004
-0.00692727
-0.00696524
-0.00698415
-0.00311283
-0.00338693
-0.00366629
-0.00395072
-0.00423302
-0.00450768
-0.00477022
-0.00501719
-0.00524615
-0.00545558
-0.00564471
-0.0058133
-0.00596148
-0.00608963
-0.00619821
-0.00628776
-0.00635875
-0.00641161
-0.00644666
-0.00646412
-0.00280045
-0.00306524
-0.00333396
-0.00360603
-0.00387459
-0.00413448
-0.00438164
-0.004613
-0.00482653
-0.00502108
-0.00519614
-0.00535172
-0.00548814
-0.00560587
-0.00570549
-0.00578755
-0.00585255
-0.00590091
-0.00593298
-0.00594895
-0.00249697
-0.00275271
-0.00301086
-0.0032705
-0.00352512
-0.00376994
-0.00400131
-0.00421661
-0.00441424
-0.00459341
-0.00475396
-0.00489613
-0.00502041
-0.00512743
-0.00521782
-0.00529218
-0.00535103
-0.00539479
-0.0054238
-0.00543825
-0.00220253
-0.00244945
-0.0026971
-0.0029442
-0.00318462
-0.00341399
-0.00362911
-0.00382784
-0.00400903
-0.00417231
-0.00431785
-0.00444615
-0.00455792
-0.0046539
-0.0047348
-0.00480125
-0.0048538
-0.00489285
-0.00491873
-0.00493162
-0.0019173
-0.00215563
-0.0023928
-0.00262722
-0.00285313
-0.0030666
-0.00326493
-0.0034465
-0.00361066
-0.00375747
-0.00388746
-0.00400144
-0.00410028
-0.00418488
-0.00425602
-0.00431436
-0.00436044
-0.00439468
-0.00441736
-0.00442866
-0.00164152
-0.00187149
-0.00209817
-0.00231969
-0.0025307
-0.00272775
-0.00290867
-0.00307241
-0.00321887
-0.00334858
-0.00346245
-0.00356158
-0.00364708
-0.00371995
-0.00378105
-0.00383107
-0.00387054
-0.00389985
-0.00391927
-0.00392896
-0.0013755
-0.0015973
-0.00181345
-0.00202179
-0.00221743
-0.00239743
-0.00256023
-0.0027054
-0.00283341
-0.00294531
-0.00304243
-0.00312619
-0.00319789
-0.00325867
-0.00330945
-0.00335094
-0.00338365
-0.00340794
-0.00342404
-0.00343209
-0.00111961
-0.00133343
-0.00153894
-0.00173376
-0.00191345
-0.00207567
-0.00221952
-0.00234526
-0.00245399
-0.00254732
-0.00262701
-0.00269481
-0.00275224
-0.00280057
-0.00284076
-0.00287352
-0.00289934
-0.00291851
-0.00293123
-0.00293763
-0.000874305
-0.0010803
-0.00127502
-0.00145586
-0.00161892
-0.00176251
-0.00188646
-0.00199181
-0.00208034
-0.00215425
-0.00221578
-0.00226701
-0.00230968
-0.00234518
-0.00237451
-0.00239835
-0.00241714
-0.00243111
-0.00244041
-0.00244517
-0.000640303
-0.000838243
-0.00102177
-0.001188
-0.0013336
-0.00145759
-0.00156063
-0.00164455
-0.00171189
-0.0017655
-0.00180811
-0.00184214
-0.00186957
-0.00189188
-0.00191009
-0.00192484
-0.0019365
-0.00194521
-0.00195104
-0.00195417
-0.000417864
-0.000608063
-0.000779996
-0.000930719
-0.00105769
-0.00116078
-0.00124158
-0.00130281
-0.00134784
-0.00138016
-0.00140304
-0.00141926
-0.00143097
-0.00143976
-0.00144664
-0.00145217
-0.00145663
-0.00146005
-0.00146235
-0.00146405
-0.000200926
-0.000396423
-0.000564656
-0.000703552
-0.000812477
-0.000893228
-0.000949192
-0.000984668
-0.00100428
-0.00101246
-0.00101312
-0.00100944
-0.0010038
-0.000997799
-0.000992396
-0.000988038
-0.000984832
-0.000982661
-0.000981241
-0.000981643
2.08376e-06
-0.000197706
-0.00036402
-0.000494452
-0.000589076
-0.000650691
-0.000683958
-0.000694575
-0.000688526
-0.000671463
-0.000648272
-0.000622836
-0.000597967
-0.000575482
-0.000556362
-0.000540961
-0.000529219
-0.000520855
-0.000515188
-0.000510101
-0.02131
-0.0205134
-0.0197405
-0.0189906
-0.0182627
-0.0175559
-0.0168695
-0.0162025
-0.0155544
-0.0149243
-0.0143115
-0.0137155
-0.0131355
-0.0125711
-0.0120216
-0.0114865
-0.0109653
-0.0104575
-0.00996268
-0.00948035
-0.00901014
-0.00855163
-0.00810448
-0.00766833
-0.00724285
-0.00682774
-0.00642272
-0.00602753
-0.00564193
-0.00526569
-0.00489861
-0.00454053
-0.00419129
-0.00385076
-0.00351886
-0.00319551
-0.00288068
-0.00257439
-0.00227669
-0.00198767
-0.0017075
-0.00143641
-0.00117471
-0.000922771
-0.000681126
-0.000451162
-0.000232613
-3.77189e-06
0.000208841
-0.0204067
-0.0196411
-0.0188983
-0.0181775
-0.0174778
-0.0167983
-0.0161383
-0.0154969
-0.0148735
-0.0142674
-0.0136779
-0.0131043
-0.0125461
-0.0120027
-0.0114736
-0.0109583
-0.0104562
-0.00996692
-0.00949001
-0.00902506
-0.00857165
-0.00812943
-0.00769804
-0.00727714
-0.00686643
-0.0064656
-0.00607439
-0.00569253
-0.0053198
-0.00495597
-0.00460084
-0.00425424
-0.00391601
-0.00358601
-0.00326413
-0.0029503
-0.00264444
-0.00234655
-0.00205665
-0.0017748
-0.00150112
-0.00123582
-0.000979162
-0.000731473
-0.000493378
-0.000267073
-5.11127e-05
0.000194551
0.000416477
-0.0204377
-0.0196734
-0.0189321
-0.018213
-0.0175151
-0.0168375
-0.0161796
-0.0155404
-0.0149193
-0.0143155
-0.0137284
-0.0131573
-0.0126016
-0.0120608
-0.0115342
-0.0110214
-0.0105219
-0.0100352
-0.00956083
-0.00909836
-0.00864742
-0.00820759
-0.00777854
-0.00735991
-0.00695137
-0.00655262
-0.00616338
-0.00578336
-0.00541231
-0.00505
-0.0046962
-0.0043507
-0.00401333
-0.00368389
-0.00336225
-0.00304826
-0.00274181
-0.0024428
-0.00215118
-0.00186691
-0.00158999
-0.00132046
-0.00105844
-0.000804083
-0.00055756
-0.00031948
-9.28298e-05
0.000126382
0.000400951
0.00063927
-0.0198124
-0.0190688
-0.0183477
-0.017648
-0.016969
-0.0163098
-0.0156695
-0.0150476
-0.0144431
-0.0138555
-0.013284
-0.0127281
-0.0121872
-0.0116606
-0.011148
-0.0106486
-0.0101621
-0.00968805
-0.00922592
-0.00877535
-0.00833592
-0.00790727
-0.00748904
-0.00708089
-0.00668251
-0.00629358
-0.00591383
-0.00554297
-0.00518076
-0.00482695
-0.0044813
-0.00414361
-0.00381368
-0.00349129
-0.00317629
-0.00286851
-0.00256778
-0.00227397
-0.00198696
-0.00170664
-0.00143293
-0.00116576
-0.000905104
-0.000650959
-0.000403238
-0.000162487
6.75057e-05
0.000294286
0.000605984
0.000864833
-0.0193063
-0.0185796
-0.0178749
-0.0171911
-0.0165275
-0.0158832
-0.0152575
-0.0146495
-0.0140587
-0.0134842
-0.0129255
-0.012382
-0.011853
-0.0113381
-0.0108367
-0.0103483
-0.00987238
-0.00940857
-0.00895641
-0.00851549
-0.00808542
-0.00766584
-0.00725639
-0.00685674
-0.00646658
-0.00608561
-0.00571353
-0.00535008
-0.00499499
-0.00464802
-0.00430892
-0.00397748
-0.00365347
-0.00333668
-0.0030269
-0.00272395
-0.00242761
-0.00213771
-0.00185405
-0.00157645
-0.00130473
-0.0010387
-0.000778185
-0.00052297
-0.000272677
-2.77796e-05
0.000207155
0.000443801
0.000795679
0.00107584
-0.0189283
-0.0182143
-0.0175218
-0.01685
-0.0161979
-0.0155648
-0.0149498
-0.0143523
-0.0137716
-0.013207
-0.0126579
-0.0121236
-0.0116036
-0.0110974
-0.0106044
-0.0101241
-0.00965615
-0.00920002
-0.0087553
-0.0083216
-0.00789853
-0.00748572
-0.00708284
-0.00668955
-0.00630554
-0.0059305
-0.00556416
-0.00520623
-0.00485645
-0.00451457
-0.00418034
-0.00385352
-0.00353389
-0.00322121
-0.00291525
-0.00261578
-0.00232258
-0.0020354
-0.001754
-0.00147812
-0.00120748
-0.000941783
-0.000680709
-0.00042384
-0.000170515
7.88528e-05
0.000319012
0.000565707
0.00095501
0.00125424
-0.019405
-0.0186773
-0.0179718
-0.0172875
-0.0166236
-0.0159791
-0.0153534
-0.0147457
-0.0141552
-0.0135812
-0.0130231
-0.0124803
-0.0119521
-0.0114381
-0.0109376
-0.0104502
-0.00997543
-0.00951272
-0.00906169
-0.00862192
-0.00819302
-0.00777459
-0.00736629
-0.00696777
-0.0065787
-0.00619877
-0.00582768
-0.00546514
-0.00511087
-0.00476461
-0.0044261
-0.00409509
-0.00377133
-0.00345457
-0.00314458
-0.00284111
-0.0025439
-0.0022527
-0.00196723
-0.00168721
-0.00141231
-0.00114218
-0.000876438
-0.000614648
-0.000356234
-0.000100311
0.000152744
0.000397172
0.00065199
0.00107019
0.00138368
-0.0192756
-0.0185523
-0.017851
-0.0171707
-0.0165107
-0.0158701
-0.0152481
-0.014644
-0.0140569
-0.0134863
-0.0129315
-0.0123918
-0.0118667
-0.0113557
-0.0108581
-0.0103735
-0.00990135
-0.00944126
-0.00899278
-0.00855548
-0.00812896
-0.00771286
-0.0073068
-0.00691046
-0.00652349
-0.0061456
-0.00577647
-0.00541582
-0.00506338
-0.00471887
-0.00438204
-0.00405263
-0.00373038
-0.00341506
-0.0031064
-0.00280415
-0.00250805
-0.00221783
-0.00193319
-0.0016538
-0.00137934
-0.0011094
-0.000843554
-0.0005813
-0.000321973
-6.45692e-05
0.000190554
0.000437364
0.000696706
0.00113064
0.00145174
)
;

boundaryField
{
    inlet
    {
        type            zeroGradient;
    }
    outlet
    {
        type            fixedValue;
        value           uniform 0;
    }
    cylinder
    {
        type            zeroGradient;
    }
    top
    {
        type            symmetryPlane;
    }
    bottom
    {
        type            symmetryPlane;
    }
    defaultFaces
    {
        type            empty;
    }
    procBoundary3to2
    {
        type            processor;
        value           nonuniform List<scalar> 
30
(
-0.0218882
-0.0218882
-0.0226021
-0.0233232
-0.0240667
-0.0248089
-0.0255337
-0.0262273
-0.0268792
-0.0274818
-0.0280308
-0.0285238
-0.0289607
-0.0293421
-0.0296697
-0.0299454
-0.0301714
-0.0303495
-0.0304815
-0.0305688
-0.0306121
-0.0221316
-0.0211961
-0.0211961
-0.0212261
-0.0205794
-0.0200558
-0.0196647
-0.0196647
-0.0201558
)
;
    }
    procBoundary3to6
    {
        type            processor;
        value           uniform -0.0200219;
    }
    procBoundary3to7
    {
        type            processor;
        value           nonuniform List<scalar> 
51
(
-0.0192756
-0.0185523
-0.017851
-0.0171707
-0.0165107
-0.0158701
-0.0152481
-0.014644
-0.0140569
-0.0134863
-0.0129315
-0.0123918
-0.0118667
-0.0113557
-0.0108581
-0.0103735
-0.00990135
-0.00944126
-0.00899278
-0.00855548
-0.00812896
-0.00771286
-0.0073068
-0.00691046
-0.00652349
-0.0061456
-0.00577647
-0.00541582
-0.00506338
-0.00471887
-0.00438204
-0.00405263
-0.00373038
-0.00341506
-0.0031064
-0.00280415
-0.00250805
-0.00221783
-0.00193319
-0.00165381
-0.00137934
-0.0011094
-0.000843555
-0.0005813
-0.000321973
-6.45688e-05
0.000190554
0.000437364
0.000696707
0.00113064
0.00145174
)
;
    }
}


// ************************************************************************* //
