/*--------------------------------*- C++ -*----------------------------------*\
  =========                 |
  \\      /  F ield         | OpenFOAM: The Open Source CFD Toolbox
   \\    /   O peration     | Website:  https://openfoam.org
    \\  /    A nd           | Version:  7
     \\/     M anipulation  |
\*---------------------------------------------------------------------------*/
FoamFile
{
    version     2.0;
    format      ascii;
    class       volVectorField;
    location    "70";
    object      U;
}
// * * * * * * * * * * * * * * * * * * * * * * * * * * * * * * * * * * * * * //

dimensions      [0 1 -1 0 0 0 0];

internalField   nonuniform List<vector> 
6000
(
(-0.000822501 0.000775029 5.46963e-22)
(-0.00522148 0.00163848 -2.45463e-21)
(-0.0133965 0.00202929 -2.71079e-22)
(-0.023101 0.00211077 1.68399e-21)
(-0.0337909 0.00198861 -1.18753e-21)
(-0.0448947 0.0017374 3.89308e-21)
(-0.0560311 0.00140395 1.21573e-21)
(-0.0669551 0.00101443 -1.26712e-21)
(-0.0775105 0.000580867 4.91054e-22)
(-0.087603 0.000106535 -3.99751e-21)
(-0.0971798 -0.000409955 8.53407e-22)
(-0.106213 -0.000971832 -7.58612e-23)
(-0.114689 -0.00158244 -1.04708e-21)
(-0.122602 -0.0022442 2.42467e-21)
(-0.129947 -0.00295801 5.5228e-23)
(-0.136722 -0.00372264 -2.13492e-21)
(-0.142925 -0.00453413 -8.47675e-22)
(-0.148562 -0.00538511 -1.27508e-22)
(-0.153647 -0.00626416 -1.54833e-21)
(-0.158211 -0.00715549 -7.24442e-22)
(-0.000891035 0.00214428 -2.36581e-22)
(-0.0053612 0.00488308 -5.03417e-21)
(-0.0135526 0.00652771 -3.63334e-21)
(-0.0232419 0.00741893 -6.69242e-21)
(-0.0338936 0.0077751 5.63222e-21)
(-0.0449431 0.00776237 -3.61772e-21)
(-0.0560131 0.00749703 6.90437e-22)
(-0.0668618 0.00705722 -1.06378e-21)
(-0.0773343 0.00649307 -5.70741e-21)
(-0.0873377 0.00583467 -7.98876e-22)
(-0.0968198 0.00509864 -1.02448e-21)
(-0.105753 0.004293 -1.21927e-21)
(-0.114125 0.00342078 6.56642e-21)
(-0.121928 0.00248269 3.15658e-21)
(-0.129159 0.00147931 -2.96639e-21)
(-0.135815 0.000413124 6.55604e-21)
(-0.141894 -0.000709437 4.58478e-22)
(-0.147397 -0.00187574 3.47766e-21)
(-0.152337 -0.00306483 5.1188e-21)
(-0.156741 -0.00424591 -3.74835e-22)
(-0.00102333 0.00349472 6.17604e-21)
(-0.00562933 0.00808791 1.4715e-22)
(-0.0138453 0.010976 -1.53814e-20)
(-0.0234954 0.0126724 1.30416e-20)
(-0.0340606 0.0135058 1.52452e-21)
(-0.0449897 0.0137324 -9.23363e-21)
(-0.0559143 0.0135371 -5.14283e-21)
(-0.0665976 0.0130497 -4.99067e-21)
(-0.0768883 0.012358 -1.20548e-22)
(-0.0866955 0.011519 -2.25349e-21)
(-0.0959681 0.0105673 -2.61219e-21)
(-0.10468 0.00952223 3.28367e-21)
(-0.112817 0.00839315 -1.33227e-20)
(-0.120375 0.00718383 -1.25827e-20)
(-0.127347 0.00589609 1.0187e-20)
(-0.133731 0.00453315 -1.66503e-20)
(-0.139523 0.00310318 -3.44708e-21)
(-0.14472 0.00162302 1.61878e-20)
(-0.149328 0.000121975 1.87406e-21)
(-0.153368 -0.00135515 -3.59484e-21)
(-0.00121729 0.00481267 -4.86933e-21)
(-0.00602215 0.0112235 1.81588e-20)
(-0.0142709 0.0153363 2.51259e-20)
(-0.0238584 0.0178292 -1.07191e-20)
(-0.0342898 0.0191372 -1.57594e-21)
(-0.0450336 0.019604 2.48912e-20)
(-0.055734 0.0194815 1.51445e-21)
(-0.0661624 0.0189502 1.95018e-21)
(-0.0761723 0.0181354 1.07448e-20)
(-0.0856758 0.0171207 -2.05202e-20)
(-0.0946236 0.0159588 -5.87955e-21)
(-0.10299 0.0146802 3.38812e-21)
(-0.110763 0.0133008 -3.48812e-21)
(-0.117935 0.0118274 1.09375e-20)
(-0.124502 0.0102626 -4.84819e-21)
(-0.130459 0.00860981 2.34972e-20)
(-0.135798 0.00687769 6.15642e-21)
(-0.140514 0.0050857 -7.20727e-22)
(-0.144603 0.00326947 9.23058e-21)
(-0.148076 0.00148597 -8.71143e-21)
(-0.150959 -0.000183214 -4.91089e-21)
(-0.00146979 0.00608511 1.03278e-20)
(-0.00653412 0.0142616 -1.59502e-20)
(-0.0148242 0.0195723 7.03126e-21)
(-0.024327 0.0228487 9.84105e-21)
(-0.0345786 0.0246267 -3.41582e-20)
(-0.0450733 0.0253341 -7.88034e-21)
(-0.0554719 0.0252876 1.0186e-20)
(-0.0655563 0.024717 -1.04801e-21)
(-0.0751866 0.0237846 1.95303e-20)
(-0.0842788 0.0226004 1.44447e-21)
(-0.0927855 0.021235 1.27125e-20)
(-0.100682 0.0197304 1.24373e-20)
(-0.107957 0.0181091 2.43267e-20)
(-0.114603 0.0163806 -1.18315e-20)
(-0.120614 0.0145483 3.53751e-21)
(-0.125984 0.0126147 -4.60938e-21)
(-0.130702 0.010588 -1.29778e-20)
(-0.134757 0.00848786 -5.12679e-21)
(-0.138136 0.00635358 2.449e-21)
(-0.140835 0.00425124 -1.19979e-20)
(-0.142863 0.00228028 8.42064e-21)
(-0.00177676 0.00729999 -1.85508e-20)
(-0.00715803 0.0171758 -2.7818e-21)
(-0.0154983 0.0236492 -1.79061e-20)
(-0.0248957 0.0276915 -7.64356e-21)
(-0.0349233 0.029933 2.86215e-20)
(-0.0451069 0.0308807 -1.97735e-21)
(-0.0551276 0.0309133 -2.38538e-20)
(-0.0647799 0.0303087 2.0225e-20)
(-0.0739322 0.029265 -9.40392e-21)
(-0.0825049 0.0279184 3.3461e-20)
(-0.0904532 0.0263572 -1.72273e-20)
(-0.0977537 0.0246354 -2.96093e-20)
(-0.104394 0.0227817 5.70873e-21)
(-0.110368 0.020809 -2.06874e-21)
(-0.115669 0.0187207 -1.25768e-20)
(-0.120286 0.0165182 -1.41426e-20)
(-0.124208 0.0142073 -1.06582e-20)
(-0.127416 0.0118059 1.03026e-20)
(-0.129889 0.00935324 9.68261e-23)
(-0.131606 0.00692031 5.7453e-21)
(-0.132554 0.00462049 -1.4567e-20)
(-0.00213334 0.00844647 5.57098e-20)
(-0.00788519 0.0199417 -1.40659e-20)
(-0.0162849 0.0275346 -1.67878e-20)
(-0.0255579 0.0323204 -7.77817e-21)
(-0.0353198 0.0350161 -2.23404e-20)
(-0.0451324 0.0362025 1.12065e-20)
(-0.0547004 0.0363172 1.74948e-20)
(-0.0638337 0.0356838 -1.85614e-20)
(-0.0724097 0.0345356 1.32593e-20)
(-0.0803544 0.0330341 -2.60611e-20)
(-0.0876258 0.0312859 -2.90722e-21)
(-0.0942013 0.0293562 -1.09775e-20)
(-0.100069 0.0272811 -2.27479e-20)
(-0.105221 0.0250763 -2.55495e-20)
(-0.109648 0.0227457 -7.97263e-21)
(-0.113341 0.0202888 1.52362e-20)
(-0.116282 0.0177079 -9.05447e-21)
(-0.118447 0.0150165 -2.19949e-20)
(-0.119807 0.0122501 -2.30422e-20)
(-0.120325 0.00947925 2.25331e-20)
(-0.119965 0.006825 -1.92393e-20)
(-0.002534 0.00951515 -5.87483e-21)
(-0.00870569 0.0225377 3.98768e-20)
(-0.0171745 0.0311989 2.08574e-20)
(-0.0263061 0.0367008 1.38977e-20)
(-0.0357629 0.0398382 3.06904e-20)
(-0.0451469 0.0412599 -1.79899e-20)
(-0.0541895 0.0414584 -1.57074e-21)
(-0.0627177 0.0408013 -2.58831e-20)
(-0.0706196 0.0395552 -2.67512e-20)
(-0.0778273 0.0379068 1.66161e-20)
(-0.0843015 0.0359803 2.46646e-20)
(-0.0900204 0.0338529 -2.10542e-20)
(-0.0949712 0.0315678 -1.31971e-20)
(-0.0991448 0.0291442 7.05512e-20)
(-0.102531 0.0265867 3.09142e-21)
(-0.105116 0.0238924 7.72442e-21)
(-0.10688 0.0210595 6.27218e-21)
(-0.107793 0.0180951 7.99095e-21)
(-0.107817 0.0150271 -1.03827e-20)
(-0.106903 0.0119197 3.35261e-21)
(-0.104994 0.00889308 -5.35523e-21)
(-0.00297277 0.0104982 -4.81239e-20)
(-0.00960866 0.024945 -2.90836e-20)
(-0.0181565 0.0346157 -4.52816e-20)
(-0.0271317 0.0408007 1.4395e-20)
(-0.0362466 0.0443637 -5.15866e-20)
(-0.0451468 0.0460147 3.84336e-21)
(-0.0535931 0.0462976 3.9397e-20)
(-0.0614313 0.0456207 -9.08274e-21)
(-0.0685613 0.044283 3.66415e-21)
(-0.0749219 0.0424952 -3.05137e-20)
(-0.0804766 0.0403992 -1.81101e-20)
(-0.0852037 0.0380841 3.88959e-20)
(-0.0890894 0.0356007 2.15428e-20)
(-0.0921219 0.0329722 -3.42361e-20)
(-0.0942882 0.030204 8.90122e-21)
(-0.0955708 0.0272917 -2.17768e-20)
(-0.0959455 0.0242285 -4.82981e-21)
(-0.0953783 0.0210142 -1.72818e-20)
(-0.0938232 0.0176663 3.89118e-20)
(-0.0912211 0.0142364 5.94477e-21)
(-0.0874979 0.0108343 -1.48234e-20)
(-0.00344338 0.0113897 1.97735e-20)
(-0.0105826 0.0271483 3.21783e-21)
(-0.0192195 0.0377621 3.46196e-20)
(-0.0280251 0.0445914 1.5639e-20)
(-0.0367638 0.0485595 5.41555e-20)
(-0.0451273 0.050431 -4.44737e-20)
(-0.0529081 0.0507964 -1.3295e-20)
(-0.0599722 0.0501023 3.07131e-20)
(-0.0662325 0.0486781 -3.2068e-20)
(-0.0716345 0.0467579 -3.53711e-21)
(-0.0761445 0.0445005 -8.178e-21)
(-0.0797405 0.0420075 -1.46413e-20)
(-0.0824062 0.0393372 1.82728e-20)
(-0.0841262 0.0365177 -1.44079e-20)
(-0.0848829 0.0335558 -7.39222e-21)
(-0.0846539 0.030446 3.70068e-21)
(-0.0834097 0.0271774 9.92362e-21)
(-0.081111 0.0237422 3.53241e-20)
(-0.0777052 0.0201457 -3.22648e-20)
(-0.0731247 0.0164231 -6.97103e-21)
(-0.0672867 0.0126638 3.95661e-20)
(-0.00393951 0.0121853 -1.75024e-20)
(-0.0116156 0.0291354 8.27972e-21)
(-0.0203513 0.0406189 -1.01315e-21)
(-0.0289759 0.0480479 2.4887e-20)
(-0.0373061 0.0523957 -5.85251e-20)
(-0.0450822 0.0544751 9.29039e-20)
(-0.0521295 0.0549184 2.39066e-20)
(-0.0583358 0.0542076 6.67295e-22)
(-0.0636276 0.0527006 5.8524e-20)
(-0.0679575 0.0506537 9.22802e-21)
(-0.071294 0.0482424 1.79875e-20)
(-0.073614 0.0455802 -5.42768e-20)
(-0.0748974 0.0427339 -1.86091e-20)
(-0.0751233 0.0397366 6.09848e-20)
(-0.0742677 0.0365978 -8.49582e-21)
(-0.072301 0.0333117 9.69685e-21)
(-0.0691865 0.0298645 -2.82386e-21)
(-0.0648779 0.0262419 -7.86249e-20)
(-0.0593158 0.0224374 2.37673e-20)
(-0.0524251 0.0184675 1.78401e-20)
(-0.0441191 0.0143942 1.17736e-20)
(-0.00445494 0.0128828 2.25321e-20)
(-0.0126958 0.0308979 1.55748e-20)
(-0.0215396 0.0431709 -5.15703e-20)
(-0.0299724 0.0511486 -3.19473e-20)
(-0.0378638 0.0558456 -3.05508e-21)
(-0.045003 0.0581158 -3.70107e-20)
(-0.0512496 0.0586292 -4.41712e-20)
(-0.0565142 0.0578997 -1.98934e-21)
(-0.0607371 0.0563117 -6.48275e-20)
(-0.063878 0.0541424 5.08793e-21)
(-0.0659073 0.0515833 2.3319e-20)
(-0.0667992 0.0487599 4.69635e-20)
(-0.0665285 0.0457475 -1.3764e-20)
(-0.0650665 0.0425849 -4.24998e-20)
(-0.0623801 0.0392852 -2.20773e-20)
(-0.0584299 0.0358437 -2.96206e-20)
(-0.0531691 0.0322456 -4.21394e-20)
(-0.0465416 0.0284718 7.92033e-20)
(-0.0384793 0.0245065 -9.38818e-21)
(-0.0288997 0.0203488 -4.89188e-20)
(-0.0177108 0.0160296 9.34339e-21)
(-0.00477851 0.0116702 -3.11395e-20)
(-0.0049838 0.0134816 7.5621e-21)
(-0.0138114 0.0324309 1.17537e-20)
(-0.0227714 0.045407 4.04091e-20)
(-0.0310024 0.0538762 7.28523e-20)
(-0.0384253 0.0588861 4.60834e-20)
(-0.0448787 0.0613254 9.69693e-21)
(-0.0502571 0.061897 2.10022e-20)
(-0.0544944 0.0611439 6.5999e-21)
(-0.057545 0.0594745 5.21301e-20)
(-0.0593755 0.0571854 -2.56054e-21)
(-0.0599568 0.0544834 1.48868e-20)
(-0.0592595 0.0515055 3.48356e-20)
(-0.0572507 0.0483359 -1.66704e-20)
(-0.0538918 0.0450198 5.80479e-20)
(-0.0491375 0.0415745 3.41858e-20)
(-0.042935 0.0379982 3.50608e-20)
(-0.0352236 0.0342768 8.37031e-20)
(-0.0259341 0.0303893 -3.51611e-20)
(-0.0149866 0.0263143 -4.50941e-20)
(-0.00229016 0.0220374 2.5445e-21)
(0.0122547 0.0175626 4.65612e-20)
(0.0287653 0.0129716 -3.38121e-20)
(-0.0055207 0.013983 -3.28612e-20)
(-0.0149511 0.0337328 -6.01386e-20)
(-0.0240337 0.0473202 8.95814e-21)
(-0.032052 0.0562174 -6.69301e-20)
(-0.0389765 0.0614978 8.26551e-21)
(-0.0446945 0.0640794 1.80078e-21)
(-0.0491357 0.0646933 -8.46718e-20)
(-0.0522572 0.0639083 1.66825e-20)
(-0.0540275 0.0621545 3.75789e-20)
(-0.0544191 0.0597464 -3.23507e-21)
(-0.0534025 0.0569051 -3.71915e-20)
(-0.0509425 0.0537789 -1.86061e-20)
(-0.0469963 0.0504606 2.09633e-20)
(-0.0415123 0.0470024 3.70378e-21)
(-0.0344296 0.0434268 3.62291e-20)
(-0.0256785 0.0397362 -5.13697e-20)
(-0.0151803 0.0359193 -4.16692e-20)
(-0.00284847 0.0319563 -8.66512e-21)
(0.0114122 0.0278244 8.58571e-21)
(0.0277032 0.0235022 -7.97925e-21)
(0.0461381 0.0189764 -3.33456e-20)
(0.0667724 0.0142942 2.00389e-20)
(-0.0060609 0.0143901 6.95816e-21)
(-0.0161044 0.0348056 1.07174e-19)
(-0.0253132 0.0489073 -6.73445e-20)
(-0.0331062 0.0581629 -3.45925e-20)
(-0.0395007 0.0636656 -4.10338e-20)
(-0.0444315 0.0663571 -3.49938e-20)
(-0.0478629 0.066993 5.50599e-20)
(-0.0497751 0.0661644 -3.74636e-21)
(-0.0501499 0.0643209 -2.28015e-20)
(-0.0489645 0.0617931 2.98418e-20)
(-0.0461873 0.0588154 3.5995e-21)
(-0.041775 0.0555466 3.4296e-21)
(-0.0356721 0.0520886 -9.03201e-21)
(-0.0278105 0.0485005 -5.4939e-20)
(-0.0181106 0.0448112 -4.54391e-20)
(-0.0064814 0.0410286 3.53092e-20)
(0.0071771 0.037146 -3.36578e-20)
(0.0229726 0.0331477 4.04159e-21)
(0.0410188 0.0290138 2.88858e-20)
(0.0614271 0.0247231 -1.21566e-20)
(0.0843395 0.0202543 2.01346e-20)
(0.109672 0.0156321 -9.02267e-21)
(-0.00660042 0.014707 -6.01747e-20)
(-0.0172613 0.035654 -2.79694e-20)
(-0.0265964 0.0501689 8.53335e-20)
(-0.0341482 0.0597077 3.04407e-20)
(-0.0399774 0.0653784 1.37439e-20)
(-0.0440648 0.0681422 2.11213e-20)
(-0.0464082 0.0687753 2.3482e-20)
(-0.04701 0.0678883 -6.1574e-20)
(-0.0458639 0.0659475 2.25278e-20)
(-0.0429503 0.0632982 -7.08947e-20)
(-0.0382328 0.0601866 4.05451e-21)
(-0.0316574 0.0567821 -4.48045e-20)
(-0.0231528 0.053195 6.29822e-20)
(-0.0126309 0.0494922 1.4815e-20)
(1.06662e-05 0.0457097 -7.62786e-21)
(0.014887 0.0418619 -9.30734e-21)
(0.0321227 0.0379489 3.72559e-20)
(0.0518482 0.0339616 -9.60187e-21)
(0.0741969 0.0298865 5.14849e-20)
(0.099283 0.0257079 1.81109e-20)
(0.127301 0.021409 -2.71932e-20)
(0.157906 0.0169916 -2.38975e-20)
(0.19323 0.0125773 -3.32258e-21)
(-0.00713609 0.0149396 7.19133e-20)
(-0.0184127 0.0362854 1.30568e-20)
(-0.0278692 0.0511091 3.9533e-20)
(-0.0351586 0.0608506 5.20235e-20)
(-0.0403818 0.0666295 -1.51478e-22)
(-0.0435629 0.069423 -4.83963e-20)
(-0.0447316 0.0700246 -1.6818e-20)
(-0.0439109 0.0690612 2.77003e-20)
(-0.0411046 0.067014 3.52669e-21)
(-0.0362935 0.0642409 5.61718e-20)
(-0.029434 0.0609993 3.89514e-20)
(-0.0204579 0.0574682 4.44089e-20)
(-0.00927402 0.0537667 -3.06463e-20)
(0.00422887 0.0499699 5.74999e-20)
(0.0201793 0.0461217 -2.0102e-20)
(0.0387189 0.0422447 1.89357e-20)
(0.0599977 0.0383471 4.65055e-20)
(0.0841671 0.0344287 -4.20586e-20)
(0.111378 0.0304854 -1.58643e-20)
(0.141729 0.0265099 -1.08735e-20)
(0.175498 0.022506 -7.33588e-21)
(0.211907 0.0184174 3.66798e-20)
(0.254344 0.01463 -4.04181e-20)
(-0.00766561 0.0150943 -5.5386e-21)
(-0.0195501 0.0367094 -5.68096e-21)
(-0.0291167 0.0517352 -1.02045e-19)
(-0.0361154 0.0615944 1.44909e-20)
(-0.0406836 0.0674168 1.76434e-20)
(-0.0428856 0.0701929 2.86638e-20)
(-0.042781 0.0707305 7.30465e-21)
(-0.040411 0.0696708 -3.36606e-20)
(-0.0357864 0.0675073 7.48973e-20)
(-0.0288858 0.0646092 -7.04433e-20)
(-0.0196542 0.061244 -9.98887e-20)
(-0.0080054 0.0576001 -1.36505e-21)
(0.00617504 0.0538055 1.32016e-21)
(0.0230253 0.0499445 9.38434e-21)
(0.0427019 0.0460698 4.12338e-20)
(0.0653737 0.0422134 -1.49381e-20)
(0.0912134 0.0383937 -6.3493e-20)
(0.120387 0.0346208 5.44315e-20)
(0.153053 0.0309032 2.2607e-20)
(0.189262 0.0272386 -2.41138e-20)
(0.229414 0.0236805 -4.07604e-20)
(0.272067 0.02002 -3.66171e-20)
(0.322326 0.0172197 -9.39724e-22)
(-0.00818747 0.0151784 -2.68684e-20)
(-0.0206657 0.0369372 -3.60183e-20)
(-0.030323 0.052057 5.51424e-20)
(-0.0369931 0.0619455 -1.09612e-19)
(-0.040846 0.0677426 -1.78451e-20)
(-0.0419831 0.0704505 -2.87428e-20)
(-0.0404907 0.0708894 5.50633e-21)
(-0.0364247 0.0697123 -1.67514e-20)
(-0.0298002 0.0674233 -1.68233e-19)
(-0.0205885 0.0644014 4.50915e-20)
(-0.00871963 0.0609239 9.27302e-20)
(0.00591518 0.0571884 1.33345e-20)
(0.0234572 0.0533324 3.38745e-20)
(0.0440739 0.04945 -1.56297e-20)
(0.0679499 0.0456044 -7.49172e-20)
(0.0952778 0.0418385 -5.46754e-20)
(0.126245 0.0381822 6.53709e-20)
(0.161017 0.0346572 1.16434e-21)
(0.199745 0.0312871 -6.04689e-20)
(0.242376 0.0280639 4.35834e-20)
(0.289461 0.025139 -4.83764e-20)
(0.338663 0.0219893 -1.07445e-20)
(0.397158 0.0205394 -1.54507e-20)
(0.442947 0.0154961 2.91272e-20)
(-0.00870088 0.0151994 2.45739e-20)
(-0.0217516 0.0369813 7.15822e-20)
(-0.0314704 0.0520865 -7.75519e-20)
(-0.0377617 0.0619136 9.05819e-20)
(-0.0408246 0.0676137 8.62264e-20)
(-0.0407937 0.0702003 3.78927e-20)
(-0.0377785 0.0705047 -3.88398e-20)
(-0.0318456 0.0691895 4.91948e-20)
(-0.0230091 0.0667682 1.12119e-19)
(-0.0112291 0.0636288 -5.74477e-20)
(0.00358488 0.0600579 1.34381e-20)
(0.0215678 0.0562626 -6.51461e-20)
(0.0428908 0.052391 -1.08873e-20)
(0.0677504 0.0485481 -7.98184e-20)
(0.0963559 0.0448091 8.46455e-20)
(0.128914 0.0412291 -9.2633e-21)
(0.165612 0.0378505 -1.37869e-20)
(0.206586 0.0347065 -1.27679e-20)
(0.25195 0.0318385 2.42796e-20)
(0.301484 0.0292111 -4.05943e-20)
(0.355881 0.0271407 3.3288e-20)
(0.41174 0.0245885 7.56989e-21)
(0.478386 0.0248067 -8.17033e-21)
(0.528101 0.0199743 -3.14461e-20)
(-0.00920558 0.0151649 5.8796e-21)
(-0.0228002 0.0368543 -1.02795e-19)
(-0.0325389 0.0518375 1.03534e-20)
(-0.0383859 0.0615112 -7.85747e-20)
(-0.0405659 0.0670414 -3.95903e-20)
(-0.0392426 0.0694531 3.12431e-20)
(-0.0345441 0.0695877 -1.18186e-20)
(-0.0265426 0.0681161 -1.12344e-20)
(-0.015246 0.0655605 -4.16425e-20)
(-0.000597365 0.0623175 4.18061e-20)
(0.0175188 0.0586829 -1.06952e-19)
(0.039267 0.0548744 5.41033e-20)
(0.0648486 0.0510516 8.78808e-20)
(0.0944854 0.047332 2.58317e-21)
(0.128401 0.0438039 2.01971e-20)
(0.166799 0.0405354 3.21265e-20)
(0.209837 0.0375817 1.22792e-20)
(0.257581 0.034984 3.05469e-20)
(0.310057 0.0328041 -2.2817e-20)
(0.366811 0.030948 1.10423e-19)
(0.428601 0.0299623 1.22205e-19)
(0.490957 0.0281241 8.12504e-20)
(0.564979 0.0302052 4.69342e-20)
(0.618068 0.0256804 7.56261e-20)
(-0.00970165 0.0150821 7.95157e-21)
(-0.0238027 0.0365692 5.50952e-20)
(-0.0335054 0.0513244 1.03401e-19)
(-0.0388242 0.0607535 1.98045e-20)
(-0.0400065 0.0660415 6.43009e-20)
(-0.0372403 0.0682259 -9.54574e-20)
(-0.0306671 0.0681578 5.67819e-20)
(-0.0203589 0.0665166 -1.89956e-20)
(-0.00631107 0.0638325 1.43978e-19)
(0.0115559 0.0605107 -9.28787e-20)
(0.0333863 0.056857 2.41897e-20)
(0.0593757 0.0531007 -4.28162e-20)
(0.0897515 0.0494143 -1.16108e-19)
(0.124751 0.0459291 -7.29954e-20)
(0.164592 0.0427471 -3.00158e-20)
(0.209443 0.0399489 1.0301e-20)
(0.259388 0.0375997 1.16346e-20)
(0.314367 0.0357429 -1.64909e-20)
(0.374244 0.0344584 -3.11624e-20)
(0.438267 0.0335623 -9.98159e-20)
(0.507101 0.0338555 -7.82471e-20)
(0.575427 0.0328915 -5.30514e-20)
(0.655242 0.0368303 -2.8728e-20)
(0.710978 0.0327912 6.60008e-20)
(0.821091 0.0424341 -1.05268e-20)
(-0.0101892 0.0149573 5.16666e-20)
(-0.0247493 0.0361378 2.06898e-20)
(-0.0343429 0.0505625 -3.27093e-20)
(-0.0390281 0.0596585 -2.70367e-20)
(-0.0390716 0.0646341 -4.07565e-20)
(-0.0346812 0.0665419 3.74774e-20)
(-0.0260055 0.0662439 -1.08453e-21)
(-0.0131099 0.0644278 4.72478e-20)
(0.00402922 0.0616318 -9.26658e-20)
(0.0255187 0.0582706 9.81365e-20)
(0.051534 0.0546611 1.24074e-20)
(0.0822981 0.0510456 1.37231e-21)
(0.118055 0.0476107 7.11269e-20)
(0.159035 0.0445021 4.75031e-20)
(0.205419 0.0418343 1.52052e-20)
(0.257293 0.0396971 2.73409e-20)
(0.314603 0.03816 -6.01633e-20)
(0.377089 0.0372576 1.33725e-20)
(0.444358 0.037077 -7.81015e-20)
(0.51532 0.0373281 1.16473e-19)
(0.590312 0.0390074 1.46436e-21)
(0.663608 0.0391026 -2.10938e-21)
(0.746867 0.0446587 -2.35546e-20)
(0.804259 0.0413275 -7.91982e-20)
(0.914217 0.0529351 -4.24168e-20)
(-0.0106681 0.0147961 -1.21069e-19)
(-0.025628 0.0355707 -2.13353e-20)
(-0.0350202 0.0495677 9.9699e-21)
(-0.0389407 0.0582455 3.03143e-20)
(-0.0376742 0.0628428 2.03116e-20)
(-0.0314424 0.0644314 -1.64334e-20)
(-0.0203948 0.0638845 -9.28967e-21)
(-0.00458315 0.0618991 7.62634e-20)
(0.016041 0.0590224 -1.82294e-20)
(0.041615 0.0556799 -1.61453e-20)
(0.0723432 0.0522009 2.92631e-20)
(0.108466 0.048842 2.25671e-20)
(0.150224 0.0458045 -2.80037e-20)
(0.197808 0.0432468 -9.9071e-20)
(0.251309 0.0412926 1.71318e-20)
(0.310664 0.0400337 -2.07747e-21)
(0.3756 0.0395322 -1.06032e-20)
(0.445567 0.0397989 1.5384e-20)
(0.519814 0.0409028 1.23257e-19)
(0.596897 0.0424593 -2.45576e-20)
(0.676588 0.0455099 -4.98328e-20)
(0.753305 0.0468153 -6.58725e-21)
(0.837099 0.0535387 5.68195e-20)
(0.894825 0.0510955 4.7497e-20)
(0.999731 0.0638483 1.25437e-20)
(-0.0111376 0.0146024 4.7323e-20)
(-0.026424 0.0348771 -5.49212e-20)
(-0.0355005 0.0483554 3.80337e-21)
(-0.0384966 0.0565346 3.21365e-20)
(-0.0357141 0.0606956 5.54988e-20)
(-0.0273835 0.0619312 2.59047e-20)
(-0.0136481 0.0611279 -2.88054e-20)
(0.00546055 0.0589935 8.56516e-21)
(0.0300199 0.0560859 5.36068e-20)
(0.0601972 0.0528426 -6.36942e-20)
(0.0962175 0.0496073 1.7152e-20)
(0.13832 0.046651 -5.68725e-20)
(0.186705 0.0441884 7.9469e-20)
(0.241472 0.0423868 4.66695e-20)
(0.302555 0.0413709 -3.13363e-20)
(0.369654 0.0412216 -3.13468e-21)
(0.442182 0.0419761 -3.71868e-20)
(0.519208 0.0436021 3.15057e-20)
(0.59953 0.0461114 1.65742e-20)
(0.681361 0.0490618 2.71249e-20)
(0.763765 0.0533369 -9.99804e-20)
(0.841813 0.0558935 7.64699e-20)
(0.923024 0.0631933 -1.10602e-19)
(0.979461 0.0616964 5.38355e-20)
(1.07487 0.0746119 3.01547e-20)
(-0.0115963 0.0143791 -5.48162e-20)
(-0.02712 0.0340654 1.1815e-19)
(-0.0357395 0.0469386 -2.4945e-20)
(-0.0376207 0.0545476 -1.18778e-19)
(-0.033078 0.0582241 5.07883e-20)
(-0.0223468 0.0590849 -4.93361e-20)
(-0.00555734 0.0580327 -4.00696e-20)
(0.0172841 0.0557879 -4.33299e-20)
(0.046285 0.0529212 4.87546e-20)
(0.0816361 0.0498842 6.09479e-20)
(0.123565 0.0470352 -5.05113e-20)
(0.172276 0.044659 4.14854e-20)
(0.227878 0.0429791 4.53126e-21)
(0.290308 0.0421635 -1.88053e-20)
(0.359252 0.0423237 5.54558e-20)
(0.434073 0.0435109 -8.18239e-20)
(0.513767 0.0457124 4.74908e-20)
(0.596948 0.0488311 -3.33878e-20)
(0.681916 0.0527773 -1.16104e-20)
(0.76658 0.0570962 1.23048e-19)
(0.849325 0.0623313 1.26091e-19)
(0.926221 0.0660167 2.41205e-20)
(1.00192 0.0732373 -5.776e-20)
(1.05532 0.0726016 -3.30986e-20)
(1.13789 0.0846813 1.48521e-20)
(-0.0120408 0.0141277 6.6743e-20)
(-0.0276952 0.033141 -1.24705e-19)
(-0.0356874 0.0453292 4.43816e-20)
(-0.0362276 0.0523073 9.06536e-20)
(-0.0296392 0.0554634 -7.3451e-20)
(-0.0161578 0.0559427 5.51751e-20)
(0.00410436 0.0546671 -6.55735e-20)
(0.0311691 0.0523725 5.74043e-21)
(0.0651696 0.0496445 -3.22705e-20)
(0.106305 0.0469499 -3.77473e-20)
(0.154773 0.044661 8.92855e-21)
(0.210694 0.0430724 -7.47403e-20)
(0.274014 0.042408 5.1371e-20)
(0.344414 0.0428214 -1.35787e-21)
(0.421224 0.0443907 -1.04648e-20)
(0.503368 0.0471115 -3.88558e-21)
(0.589341 0.0508915 6.522e-21)
(0.67726 0.0555459 9.25759e-20)
(0.764954 0.0608496 -1.38166e-19)
(0.850108 0.0663678 6.10746e-20)
(0.930653 0.07221 -1.36398e-19)
(1.00379 0.0767336 -4.75577e-21)
(1.07159 0.0832224 5.76969e-21)
(1.12039 0.0832776 4.14511e-20)
(1.18816 0.0936049 3.00452e-20)
(-0.0124664 0.0138479 3.174e-20)
(-0.0281228 0.0321055 2.41558e-20)
(-0.0352873 0.0435392 -1.29448e-19)
(-0.0342222 0.0498375 -1.20315e-20)
(-0.0252583 0.052452 -3.46067e-20)
(-0.00862782 0.052561 -1.30954e-20)
(0.0155787 0.0511093 1.93042e-19)
(0.0474087 0.0488509 -6.83265e-20)
(0.087009 0.046388 -1.3136e-20)
(0.134559 0.0442027 4.13052e-20)
(0.190181 0.0426782 -1.08673e-20)
(0.253838 0.0421101 2.75425e-20)
(0.32522 0.0427082 -1.89513e-20)
(0.403643 0.0445903 -1.38509e-21)
(0.487972 0.047773 -3.24165e-20)
(0.576598 0.0521652 1.05993e-20)
(0.667473 0.0575653 2.51632e-20)
(0.758235 0.0636814 -2.7347e-20)
(0.846359 0.0701434 4.3913e-20)
(0.92945 0.0765468 -4.63293e-20)
(1.00535 0.0825975 2.6809e-20)
(1.07232 0.0875374 3.83911e-20)
(1.13067 0.092718 3.13741e-21)
(1.1737 0.0933279 -7.01353e-21)
(1.22603 0.101072 -5.25706e-20)
(-0.0128661 0.0135372 -1.21808e-20)
(-0.0283718 0.0309594 3.76879e-20)
(-0.0344745 0.0415796 9.21622e-20)
(-0.0314997 0.0471623 1.85872e-20)
(-0.0197847 0.0492314 1.16612e-20)
(0.000444106 0.0490026 -2.15738e-21)
(0.0291169 0.0474468 -9.09294e-20)
(0.0662982 0.0453386 -1.98536e-20)
(0.112125 0.043298 2.14677e-20)
(0.166714 0.0418197 -1.23107e-20)
(0.230044 0.0412902 1.05918e-19)
(0.301829 0.0419923 -1.04516e-20)
(0.38139 0.0440994 4.89884e-20)
(0.467562 0.0476641 8.2734e-20)
(0.558645 0.0526079 -4.49863e-20)
(0.652444 0.058721 1.73999e-20)
(0.746387 0.0656694 4.19811e-20)
(0.837738 0.0730442 -1.40205e-20)
(0.923819 0.0803523 -1.04603e-19)
(1.00236 0.0872163 2.06035e-21)
(1.07151 0.0930796 3.85808e-20)
(1.13044 0.0979376 -3.48479e-20)
(1.17874 0.101421 3.81552e-20)
(1.21525 0.102582 -3.13648e-20)
(1.25253 0.106865 -3.54009e-20)
(-0.0132293 0.0131912 -5.43015e-20)
(-0.028406 0.0297024 1.9604e-20)
(-0.0331768 0.0394598 -9.61215e-21)
(-0.027946 0.0443069 -7.41581e-20)
(-0.0130578 0.0458466 5.52262e-20)
(0.0112669 0.0453363 2.03063e-20)
(0.0449729 0.0437758 -5.10442e-20)
(0.0881233 0.0419623 6.56232e-20)
(0.140808 0.040532 -3.17911e-20)
(0.203018 0.0399863 -5.71985e-20)
(0.274501 0.0407022 -1.5893e-19)
(0.354607 0.0429277 5.95378e-20)
(0.442168 0.0467695 -1.05562e-19)
(0.535425 0.0521793 -3.96854e-21)
(0.632051 0.0589479 -1.14095e-20)
(0.729274 0.06672 1.42047e-20)
(0.8241 0.0750199 -3.31526e-20)
(0.913614 0.0833312 -1.32448e-20)
(0.995248 0.0910857 4.47449e-20)
(1.06711 0.097937 -4.98821e-20)
(1.12798 0.103261 -5.75733e-20)
(1.17776 0.107525 8.17228e-20)
(1.21632 0.10926 -5.32396e-20)
(1.24576 0.110969 -5.78318e-21)
(1.26912 0.11061 -1.26955e-20)
(-0.0135441 0.0128066 -3.1651e-20)
(-0.0281824 0.0283316 -3.50717e-20)
(-0.0313148 0.0371885 5.61283e-20)
(-0.023439 0.0412974 3.84029e-21)
(-0.00490974 0.042346 -9.8671e-20)
(0.024053 0.0416367 -1.37429e-19)
(0.063395 0.0402005 4.24584e-20)
(0.113147 0.0388572 -5.20379e-20)
(0.173297 0.038255 4.83943e-20)
(0.243627 0.0388907 -4.50658e-20)
(0.32354 0.0411109 1.04295e-19)
(0.411899 0.0450988 -1.46635e-20)
(0.506924 0.0508569 4.80382e-20)
(0.606183 0.0581965 6.7743e-20)
(0.706715 0.0667468 -7.17297e-20)
(0.805265 0.0759931 -7.39677e-20)
(0.898612 0.0853301 4.87635e-21)
(0.983923 0.0941665 1.54991e-20)
(1.05903 0.101924 -1.5204e-20)
(1.12265 0.108312 7.06564e-20)
(1.17437 0.112804 8.47568e-20)
(1.21473 0.116049 -9.42505e-20)
(1.24451 0.11637 1.30503e-20)
(1.26652 0.118047 2.35645e-20)
(1.2778 0.111893 -3.49069e-20)
(-0.0137966 0.0123783 9.06311e-20)
(-0.0276525 0.0268428 5.71903e-20)
(-0.0288015 0.0347748 -8.41145e-20)
(-0.0178497 0.038162 5.36589e-20)
(0.00483172 0.0387819 3.35174e-20)
(0.0390131 0.0379844 1.58279e-19)
(0.0846167 0.0368324 1.02167e-19)
(0.141595 0.0361657 -4.96707e-22)
(0.209757 0.0366354 -3.6212e-20)
(0.288573 0.0387154 9.84557e-20)
(0.376971 0.0426928 -1.02332e-19)
(0.473195 0.0486471 4.06362e-20)
(0.574755 0.0564338 3.07135e-20)
(0.678522 0.0656877 -9.35618e-20)
(0.780976 0.0758572 6.98361e-21)
(0.878564 0.0862758 1.04441e-19)
(0.968103 0.0962442 1.22547e-20)
(1.04714 0.105151 1.37436e-20)
(1.11414 0.112477 6.31927e-20)
(1.16864 0.118032 -4.14652e-20)
(1.21102 0.121467 -7.64096e-20)
(1.24247 0.12347 6.16691e-20)
(1.26459 0.122787 -1.48851e-19)
(1.27907 0.123008 6.66661e-20)
(1.28738 0.116861 -1.97631e-20)
(-0.0139699 0.0119001 -1.01046e-19)
(-0.0267634 0.0252322 -1.02404e-19)
(-0.025544 0.032229 2.07892e-20)
(-0.0110439 0.0349314 2.93207e-20)
(0.0163399 0.035211 -3.6725e-20)
(0.0563496 0.0344658 -1.55044e-19)
(0.108847 0.0337894 -4.20754e-20)
(0.17364 0.0340346 1.01053e-19)
(0.250264 0.0358399 1.43176e-21)
(0.337747 0.0396294 -4.53546e-20)
(0.434405 0.0455922 8.40377e-20)
(0.537748 0.0536587 -1.24835e-20)
(0.644522 0.0634951 1.37549e-19)
(0.750953 0.0745333 2.69067e-20)
(0.853128 0.0860426 -3.16012e-20)
(0.947462 0.0972372 -3.92855e-20)
(1.03111 0.107382 5.80064e-21)
(1.10227 0.115914 2.60793e-20)
(1.16024 0.122434 4.97034e-20)
(1.20539 0.126895 6.30728e-21)
(1.23886 0.129136 -6.49273e-21)
(1.26238 0.129912 -2.36334e-20)
(1.27783 0.12823 7.14444e-20)
(1.28699 0.127385 1.0521e-20)
(1.29192 0.120989 6.05001e-20)
(-0.014044 0.011366 -3.90192e-21)
(-0.0254568 0.0234969 3.5341e-20)
(-0.0214442 0.0295632 4.89846e-20)
(-0.00288439 0.0316399 -7.26914e-20)
(0.0297854 0.0316952 9.88633e-21)
(0.0762502 0.0311737 3.1507e-20)
(0.136258 0.0311946 -2.14104e-20)
(0.209388 0.0326117 -1.00684e-20)
(0.294779 0.0360271 1.91642e-20)
(0.390876 0.0417784 -4.61965e-20)
(0.495251 0.0499095 -7.96651e-20)
(0.604594 0.0601538 -4.01327e-20)
(0.714909 0.0719532 -2.86509e-20)
(0.821915 0.0845297 -8.58357e-20)
(0.921565 0.097001 2.91845e-20)
(1.01055 0.108519 -8.76299e-23)
(1.08665 0.118386 -5.24718e-20)
(1.14892 0.126152 7.98112e-21)
(1.19755 0.131588 2.26241e-20)
(1.23371 0.134806 2.67612e-23)
(1.25913 0.135828 6.59875e-21)
(1.27589 0.135451 6.0746e-20)
(1.28599 0.132904 -6.69522e-20)
(1.2911 0.131189 -7.31167e-20)
(1.29331 0.124579 -1.50892e-20)
(-0.0139968 0.0107702 1.19081e-19)
(-0.0236698 0.0216356 1.0072e-19)
(-0.0163997 0.0267926 -6.95805e-20)
(0.0067669 0.0283264 5.14299e-20)
(0.0453313 0.0283022 -3.75139e-20)
(0.0988804 0.0282069 5.32297e-20)
(0.166976 0.0291753 -1.47992e-20)
(0.248861 0.0320425 -3.69573e-20)
(0.343138 0.0373412 -2.4681e-20)
(0.44752 0.0452753 9.87919e-20)
(0.558724 0.0556912 4.00678e-20)
(0.672599 0.0680806 3.83863e-20)
(0.784512 0.0816429 -5.39575e-20)
(0.889911 0.0954091 1.0987e-19)
(0.984923 0.108399 -1.06248e-19)
(1.06682 0.119779 -2.25142e-20)
(1.13426 0.128958 1.92335e-20)
(1.18721 0.135656 -3.78104e-20)
(1.22676 0.139837 -1.27865e-19)
(1.2547 0.141771 3.95659e-20)
(1.27319 0.141631 1.66917e-20)
(1.28443 0.140232 -3.98626e-20)
(1.29039 0.136964 2.9748e-20)
(1.29254 0.13455 3.85824e-21)
(1.29296 0.127805 -2.41625e-20)
(-0.0138039 0.0101082 -1.73691e-19)
(-0.0213355 0.0196498 -3.333e-20)
(-0.0103055 0.0239368 -5.74829e-21)
(0.0180462 0.0250359 2.34754e-20)
(0.0631294 0.0251068 5.95913e-20)
(0.124376 0.0256703 -5.27983e-20)
(0.201071 0.0278608 -6.80641e-20)
(0.291986 0.0324659 -6.61685e-21)
(0.395038 0.0399045 5.10103e-20)
(0.50707 0.0501919 -1.43752e-19)
(0.623876 0.0629231 -1.50198e-20)
(0.740524 0.0773165 4.34413e-22)
(0.851943 0.0923355 -7.46069e-23)
(0.953618 0.106867 -5.46378e-20)
(1.04218 0.119909 9.49106e-20)
(1.11575 0.130719 3.90093e-20)
(1.17395 0.138881 1.07209e-20)
(1.21772 0.144313 -2.25129e-20)
(1.24884 0.147173 6.71073e-20)
(1.26961 0.147864 -9.29965e-21)
(1.28234 0.146676 2.61965e-20)
(1.28925 0.144408 1.06155e-20)
(1.2921 0.140557 9.14233e-22)
(1.29219 0.137602 2.98713e-21)
(1.29129 0.130743 -9.09293e-21)
(-0.013439 0.00937685 1.45278e-19)
(-0.0183839 0.0175446 -6.7529e-20)
(-0.00305523 0.0210211 7.94902e-20)
(0.0310849 0.0218202 -1.89786e-20)
(0.0833144 0.0221913 -2.62866e-20)
(0.152836 0.0236745 5.11328e-20)
(0.238542 0.0273802 7.22722e-20)
(0.338585 0.0340089 3.64971e-20)
(0.450037 0.0438105 -5.30865e-20)
(0.568765 0.0565511 9.15018e-20)
(0.68964 0.0715284 -1.78388e-20)
(0.807105 0.0876771 -1.53941e-20)
(0.915936 0.10376 2.48309e-20)
(1.01199 0.118593 1.77454e-21)
(1.0927 0.131238 -3.69673e-20)
(1.15721 0.141117 1.35306e-20)
(1.20614 0.148028 -5.43915e-21)
(1.24126 0.152098 4.62797e-20)
(1.2649 0.153656 -2.84837e-20)
(1.27962 0.153206 -9.11042e-21)
(1.28775 0.15111 3.21906e-21)
(1.29136 0.148122 -2.7356e-20)