/*--------------------------------*- C++ -*----------------------------------*\
  =========                 |
  \\      /  F ield         | OpenFOAM: The Open Source CFD Toolbox
   \\    /   O peration     | Website:  https://openfoam.org
    \\  /    A nd           | Version:  7
     \\/     M anipulation  |
\*---------------------------------------------------------------------------*/
FoamFile
{
    version     2.0;
    format      ascii;
    class       volScalarField;
    location    "30";
    object      p;
}
// * * * * * * * * * * * * * * * * * * * * * * * * * * * * * * * * * * * * * //

dimensions      [0 2 -2 0 0 0 0];

internalField   nonuniform List<scalar> 
3700
(
-0.274406
-0.277371
-0.278339
-0.279387
-0.280351
-0.281298
-0.282209
-0.28304
-0.283743
-0.284268
-0.284567
-0.284604
-0.284355
-0.28382
-0.283055
-0.274666
-0.277585
-0.278538
-0.279572
-0.280526
-0.281464
-0.28237
-0.283198
-0.283899
-0.284423
-0.284721
-0.284751
-0.284486
-0.283929
-0.283057
-0.27518
-0.278007
-0.27893
-0.279935
-0.280868
-0.28179
-0.282684
-0.283505
-0.284202
-0.284723
-0.285017
-0.285037
-0.284734
-0.28415
-0.283034
-0.275934
-0.278627
-0.279504
-0.280465
-0.281364
-0.282261
-0.283136
-0.283943
-0.284632
-0.285148
-0.285436
-0.285444
-0.285074
-0.284497
-0.282937
-0.276909
-0.279429
-0.280244
-0.281145
-0.281996
-0.282854
-0.2837
-0.284486
-0.285162
-0.285669
-0.285947
-0.285949
-0.285459
-0.284994
-0.282692
-0.27808
-0.280396
-0.281131
-0.281953
-0.282739
-0.283544
-0.284348
-0.285103
-0.285757
-0.286248
-0.286507
-0.286527
-0.285817
-0.285684
-0.282189
-0.279422
-0.281506
-0.282144
-0.282865
-0.283566
-0.2843
-0.285046
-0.285756
-0.286377
-0.286844
-0.287064
-0.287159
-0.286031
-0.286615
-0.281336
-0.280907
-0.282738
-0.283259
-0.283857
-0.28445
-0.285091
-0.285759
-0.286405
-0.286977
-0.28741
-0.287543
-0.287832
-0.286001
-0.287701
-0.280496
-0.282508
-0.284073
-0.284455
-0.284904
-0.285361
-0.285883
-0.28645
-0.28701
-0.287512
-0.287902
-0.287867
-0.288466
-0.285995
-0.288375
-0.279693
-0.284203
-0.285493
-0.285713
-0.285984
-0.286275
-0.286648
-0.287086
-0.287536
-0.287939
-0.288279
-0.28813
-0.288825
-0.285751
-0.289085
-0.278579
-0.285973
-0.286982
-0.287016
-0.287077
-0.287169
-0.287362
-0.28764
-0.287953
-0.288237
-0.288485
-0.288163
-0.289068
-0.285111
-0.289728
-0.277226
-0.287805
-0.288533
-0.288353
-0.288171
-0.288028
-0.288005
-0.288093
-0.28824
-0.288373
-0.288519
-0.287947
-0.289126
-0.284137
-0.290039
-0.275877
-0.289696
-0.290141
-0.289719
-0.289259
-0.288843
-0.28857
-0.288436
-0.28839
-0.288342
-0.288365
-0.287507
-0.288879
-0.282991
-0.289658
-0.274824
-0.291652
-0.291811
-0.291116
-0.290341
-0.289617
-0.289059
-0.288672
-0.288405
-0.288151
-0.288015
-0.286881
-0.2882
-0.281858
-0.288224
-0.274106
-0.293686
-0.293554
-0.292551
-0.291427
-0.290357
-0.289482
-0.288815
-0.288304
-0.28782
-0.287466
-0.286103
-0.286988
-0.280801
-0.285623
-0.273307
-0.295826
-0.295386
-0.294042
-0.292533
-0.291086
-0.289866
-0.288892
-0.28811
-0.287371
-0.286724
-0.285159
-0.285228
-0.27964
-0.282094
-0.271797
-0.298104
-0.297323
-0.295623
-0.293686
-0.291832
-0.290241
-0.288938
-0.287856
-0.286825
-0.285795
-0.283981
-0.282967
-0.278017
-0.277988
-0.269204
-0.300566
-0.299408
-0.297314
-0.294919
-0.292632
-0.290649
-0.288994
-0.287572
-0.286188
-0.284671
-0.28247
-0.280246
-0.275619
-0.273393
-0.265523
-0.30327
-0.301673
-0.299153
-0.296272
-0.293531
-0.291135
-0.289096
-0.287281
-0.285452
-0.283323
-0.280535
-0.277071
-0.272314
-0.26808
-0.260891
-0.306273
-0.304159
-0.301182
-0.297789
-0.294574
-0.291742
-0.289276
-0.28699
-0.284593
-0.281707
-0.278118
-0.273452
-0.268149
-0.261933
-0.255417
-0.309615
-0.306924
-0.303447
-0.299518
-0.295808
-0.292507
-0.289552
-0.286689
-0.283575
-0.279777
-0.275203
-0.269415
-0.263277
-0.255585
-0.249055
-0.313363
-0.310008
-0.305995
-0.301504
-0.297274
-0.293456
-0.289924
-0.286353
-0.282352
-0.277498
-0.271817
-0.264972
-0.257855
-0.249511
-0.24209
-0.31758
-0.313455
-0.308873
-0.303793
-0.299006
-0.294602
-0.290381
-0.285942
-0.280878
-0.27485
-0.268006
-0.260157
-0.252217
-0.243292
-0.235312
-0.32232
-0.31731
-0.312127
-0.306425
-0.301026
-0.295946
-0.290894
-0.285407
-0.279114
-0.271831
-0.263824
-0.255068
-0.246395
-0.237052
-0.228843
-0.327633
-0.321617
-0.315803
-0.309434
-0.303349
-0.297476
-0.29142
-0.284691
-0.277029
-0.268452
-0.259329
-0.249753
-0.240466
-0.230793
-0.2224
-0.33356
-0.326418
-0.319941
-0.312844
-0.305976
-0.299165
-0.291896
-0.283731
-0.274603
-0.264737
-0.254565
-0.244261
-0.23444
-0.224483
-0.215981
-0.340133
-0.33175
-0.324577
-0.31667
-0.308901
-0.300961
-0.292243
-0.282473
-0.271828
-0.260708
-0.249568
-0.23861
-0.228312
-0.218118
-0.209474
-0.347377
-0.337648
-0.329733
-0.320915
-0.312099
-0.302785
-0.292375
-0.280871
-0.268701
-0.256384
-0.244352
-0.232803
-0.22207
-0.211657
-0.202868
-0.355302
-0.344134
-0.335418
-0.325573
-0.315511
-0.304532
-0.292207
-0.278889
-0.26522
-0.251772
-0.238921
-0.22683
-0.215689
-0.205081
-0.196125
-0.363903
-0.351216
-0.341622
-0.330618
-0.319041
-0.306081
-0.291662
-0.276499
-0.261381
-0.246871
-0.233264
-0.220669
-0.209147
-0.198359
-0.189223
-0.373157
-0.358883
-0.348319
-0.335989
-0.322554
-0.307311
-0.290673
-0.273673
-0.257171
-0.241668
-0.227361
-0.214294
-0.202416
-0.191464
-0.182141
-0.383014
-0.367092
-0.355459
-0.341577
-0.325888
-0.308103
-0.289179
-0.270383
-0.252571
-0.236141
-0.221186
-0.207676
-0.195469
-0.184373
-0.174857
-0.393397
-0.375772
-0.362966
-0.347218
-0.328872
-0.308348
-0.287121
-0.266596
-0.247553
-0.230261
-0.214707
-0.200785
-0.188281
-0.177058
-0.167355
-0.404192
-0.384817
-0.37072
-0.352704
-0.331334
-0.307942
-0.284444
-0.262275
-0.242083
-0.223994
-0.207889
-0.19359
-0.180824
-0.169498
-0.159616
-0.415244
-0.394089
-0.378547
-0.357801
-0.333105
-0.306789
-0.281091
-0.257377
-0.236122
-0.217302
-0.200699
-0.186062
-0.173075
-0.161669
-0.151626
-0.426356
-0.40342
-0.386212
-0.362265
-0.334023
-0.304798
-0.277004
-0.251854
-0.229628
-0.210148
-0.193102
-0.178171
-0.16501
-0.153548
-0.143368
-0.437286
-0.41261
-0.393427
-0.365854
-0.333941
-0.30188
-0.272122
-0.245659
-0.222557
-0.202493
-0.185065
-0.169892
-0.156608
-0.145114
-0.13483
-0.447756
-0.421424
-0.39987
-0.368332
-0.332718
-0.297951
-0.266384
-0.23874
-0.214865
-0.194298
-0.176558
-0.161202
-0.147849
-0.136356
-0.126013
-0.457457
-0.42959
-0.405208
-0.369477
-0.330227
-0.29293
-0.25973
-0.231047
-0.206509
-0.18553
-0.167551
-0.152081
-0.138718
-0.127269
-0.116936
-0.466061
-0.436801
-0.409116
-0.369085
-0.326352
-0.286743
-0.252103
-0.222532
-0.19745
-0.176156
-0.158021
-0.142508
-0.1292
-0.117854
-0.107629
-0.473232
-0.442721
-0.411296
-0.366973
-0.320989
-0.27932
-0.243447
-0.213149
-0.187652
-0.166147
-0.147945
-0.132464
-0.119278
-0.108109
-0.0980972
-0.478637
-0.446998
-0.411481
-0.362984
-0.314046
-0.270599
-0.233715
-0.202861
-0.177085
-0.155482
-0.137305
-0.121933
-0.108935
-0.0980112
-0.088286
-0.481954
-0.449278
-0.409449
-0.356989
-0.305447
-0.260525
-0.222865
-0.191636
-0.165724
-0.144142
-0.126087
-0.110906
-0.0981651
-0.0875294
-0.0780696
-0.482882
-0.449225
-0.405011
-0.34889
-0.29513
-0.249057
-0.210864
-0.179448
-0.153553
-0.132116
-0.114284
-0.0993803
-0.0869782
-0.076659
-0.0672884
-0.481145
-0.446544
-0.398009
-0.338611
-0.283051
-0.236163
-0.197689
-0.166279
-0.140557
-0.119395
-0.101893
-0.0873591
-0.0753906
-0.0654323
-0.0559721
-0.476502
-0.440988
-0.388314
-0.326105
-0.269184
-0.221824
-0.183322
-0.152115
-0.126731
-0.105979
-0.0889282
-0.0748588
-0.0634125
-0.0538046
-0.044634
-0.468748
-0.43236
-0.37584
-0.311345
-0.25352
-0.20603
-0.16775
-0.136955
-0.112085
-0.0918869
-0.0754154
-0.061926
-0.051043
-0.0417732
-0.0331918
-0.45772
-0.420516
-0.360537
-0.29433
-0.236058
-0.188768
-0.150973
-0.120832
-0.0966545
-0.0771638
-0.0613555
-0.0485508
-0.0382802
-0.0294336
-0.021559
-0.443298
-0.405369
-0.342397
-0.275074
-0.2168
-0.170041
-0.13305
-0.103811
-0.0804666
-0.0617928
-0.0467763
-0.0347482
-0.0251533
-0.0168277
-0.0097141
-0.425408
-0.386885
-0.321447
-0.253609
-0.195749
-0.149925
-0.114111
-0.0858543
-0.0635257
-0.0458122
-0.0317084
-0.0205465
-0.0116986
-0.00397827
0.00232757
-0.404021
-0.365081
-0.297758
-0.230003
-0.172975
-0.128637
-0.0940243
-0.0670165
-0.0458736
-0.0292627
-0.0161879
-0.00598142
0.00204609
0.00908894
0.0145352
-0.379155
-0.340024
-0.271443
-0.204366
-0.14874
-0.10597
-0.0729058
-0.0473547
-0.0275622
-0.0121905
-0.00025678
0.00890615
0.0160415
0.0223377
0.0268644
-0.350878
-0.311846
-0.242623
-0.176792
-0.123008
-0.0820938
-0.0508322
-0.026936
-0.00865054
0.00535234
0.0160375
0.024072
0.0302463
0.0357239
0.0392636
-0.319319
-0.280781
-0.211325
-0.147387
-0.0958679
-0.0571193
-0.0278912
-0.00583415
0.010796
0.0233074
0.032642
0.0394684
0.0446185
0.0492043
0.0516946
-0.284657
-0.247132
-0.177478
-0.116338
-0.067461
-0.0311625
-0.00417826
0.0158685
0.030705
0.0416098
0.0494974
0.0550445
0.0591179
0.0627437
0.064134
-0.24709
-0.210948
-0.141589
-0.0837143
-0.0379297
-0.00434728
0.0202012
0.0380822
0.0509984
0.0601894
0.0665407
0.0707481
0.0737035
0.0762922
0.0764885
-0.206819
-0.171742
-0.104602
-0.0498308
-0.00742769
0.0231952
0.0451337
0.0607102
0.0715919
0.0789722
0.0837099
0.0865318
0.0883186
0.0897089
0.0884576
-0.164114
-0.13033
-0.0663126
-0.0149307
0.0238717
0.0513264
0.0704989
0.0836492
0.0923967
0.0978836
0.100951
0.10236
0.10288
0.102721
0.0996263
-0.119187
-0.0872448
-0.0268233
0.0207805
0.0557836
0.0798975
0.0961699
0.10679
0.113319
0.116849
0.118216
0.118195
0.1173
0.11514
0.109986
-0.0724711
-0.0428129
0.0136335
0.057098
0.0881198
0.108752
0.122014
0.130018
0.134262
0.135789
0.135443
0.133963
0.131499
0.127204
0.120586
-0.0243601
0.00265008
0.054778
0.0938027
0.120688
0.137726
0.147892
0.153215
0.155125
0.154623
0.152546
0.149537
0.145367
0.139152
0.134091
0.0247516
0.0488024
0.0963132
0.130663
0.153289
0.166653
0.173661
0.17626
0.175806
0.173263
0.169432
0.164803
0.158939
0.151495
0.147202
0.0744558
0.0952882
0.137936
0.167437
0.185723
0.19536
0.199178
0.199029
0.196203
0.191617
0.186015
0.179746
0.172349
0.163999
0.159449
0.124338
0.141741
0.17934
0.203881
0.217784
0.223676
0.224294
0.221398
0.216207
0.209586
0.202208
0.194318
0.185529
0.176353
0.171091
0.173986
0.187786
0.220219
0.239745
0.249267
0.251426
0.248862
0.243241
0.235711
0.227078
0.21794
0.208476
0.198384
0.18834
0.182147
0.222982
0.233052
0.260269
0.274786
0.279965
0.278437
0.272738
0.264436
0.254608
0.243998
0.233136
0.222155
0.210823
0.199881
0.192665
0.270911
0.277178
0.299192
0.308759
0.309678
0.30454
0.295776
0.284858
0.272792
0.260258
0.24772
0.235281
0.22276
0.210903
0.20263
0.317367
0.31981
0.336699
0.341428
0.338207
0.329568
0.317835
0.304389
0.290161
0.27577
0.26162
0.247787
0.234126
0.221361
0.212021
0.361952
0.360609
0.37251
0.372565
0.365361
0.35336
0.338781
0.322913
0.306616
0.290449
0.274761
0.259604
0.24486
0.231207
0.220808
0.40429
0.39925
0.406357
0.401949
0.390957
0.375763
0.358483
0.340318
0.322063
0.304215
0.287074
0.270671
0.254906
0.240398
0.228963
0.444018
0.435426
0.437989
0.429373
0.414823
0.396631
0.376817
0.356501
0.336411
0.31699
0.298492
0.280928
0.264213
0.248893
0.236456
0.480801
0.468852
0.467171
0.454644
0.436794
0.415826
0.393668
0.371362
0.349578
0.328705
0.308954
0.290321
0.272733
0.256653
0.243264
0.514325
0.499261
0.493683
0.477581
0.456722
0.433223
0.40893
0.384812
0.361485
0.339292
0.318403
0.298801
0.280424
0.263643
0.249363
0.544306
0.526415
0.517331
0.498023
0.47447
0.448707
0.422505
0.396768
0.372064
0.348692
0.326787
0.306324
0.287244
0.269831
0.254736
0.570491
0.550099
0.537936
0.515822
0.489916
0.462176
0.434306
0.407157
0.381252
0.35685
0.33406
0.312849
0.293159
0.275189
0.259366
0.592658
0.570126
0.555347
0.530854
0.502953
0.473539
0.444258
0.415915
0.388993
0.363722
0.340184
0.31834
0.298137
0.279691
0.26324
0.61062
0.58634
0.569433
0.543009
0.513493
0.482722
0.452298
0.422987
0.395242
0.369267
0.345123
0.32277
0.302153
0.283318
0.266349
0.624226
0.598613
0.58009
0.552203
0.521462
0.489663
0.458374
0.42833
0.399962
0.373454
0.348852
0.326113
0.305183
0.286053
0.268687
0.63336
0.606849
0.58724
0.558369
0.526805
0.494317
0.462446
0.43191
0.403125
0.376258
0.351349
0.328352
0.307213
0.287883
0.270247
0.637947
0.610983
0.590827
0.561463
0.529486
0.496651
0.464489
0.433706
0.404711
0.377665
0.352601
0.329475
0.30823
0.2888
0.271028
-0.282592
-0.281359
-0.280154
-0.282761
-0.281465
-0.280265
-0.283091
-0.281662
-0.280475
-0.283564
-0.281925
-0.280762
-0.284168
-0.282216
-0.281096
-0.284935
-0.282485
-0.281443
-0.279883
-0.285841
-0.282631
-0.281774
-0.280206
-0.286305
-0.283021
-0.281965
-0.280479
-0.286506
-0.283383
-0.282046
-0.280643
-0.286447
-0.283651
-0.281992
-0.280659
-0.285926
-0.283752
-0.281775
-0.280477
-0.284785
-0.283508
-0.281346
-0.280053
-0.278658
-0.283029
-0.282674
-0.280606
-0.279331
-0.278035
-0.28079
-0.28108
-0.279409
-0.278224
-0.277035
-0.278127
-0.278713
-0.277622
-0.276624
-0.275575
-0.2749
-0.275622
-0.275174
-0.274436
-0.273588
-0.272565
-0.270937
-0.271938
-0.272073
-0.271613
-0.271031
-0.270286
-0.266454
-0.267847
-0.268403
-0.268215
-0.267955
-0.267521
-0.261788
-0.263531
-0.264279
-0.264361
-0.264461
-0.264382
-0.257196
-0.259013
-0.259465
-0.259614
-0.259978
-0.260224
-0.260121
-0.249909
-0.253244
-0.253469
-0.2536
-0.254154
-0.254745
-0.255028
-0.236877
-0.242576
-0.243453
-0.24352
-0.244155
-0.245124
-0.245891
-0.224571
-0.231525
-0.233205
-0.233588
-0.234463
-0.235786
-0.236985
-0.213182
-0.220644
-0.223139
-0.224069
-0.225285
-0.226915
-0.228457
-0.202455
-0.210211
-0.21342
-0.214959
-0.216562
-0.218472
-0.220295
-0.192507
-0.200394
-0.204174
-0.206282
-0.208277
-0.210456
-0.212525
-0.183365
-0.191245
-0.195468
-0.198073
-0.200438
-0.202875
-0.205168
-0.174973
-0.182771
-0.187328
-0.190354
-0.193053
-0.195731
-0.198226
-0.167295
-0.174958
-0.179757
-0.18313
-0.186121
-0.189016
-0.191695
-0.160283
-0.167775
-0.172745
-0.176398
-0.179637
-0.182723
-0.185563
-0.153886
-0.161187
-0.16627
-0.170146
-0.173592
-0.176841
-0.179823
-0.148055
-0.155155
-0.160307
-0.164358
-0.167973
-0.171359
-0.174462
-0.142747
-0.149643
-0.154829
-0.159014
-0.162766
-0.166266
-0.169471
-0.137922
-0.144615
-0.149809
-0.154096
-0.157956
-0.161548
-0.164837
-0.133543
-0.140037
-0.145221
-0.149581
-0.153526
-0.157192
-0.160551
-0.129575
-0.135878
-0.141037
-0.145451
-0.149461
-0.153184
-0.1566
-0.125989
-0.132111
-0.137236
-0.141685
-0.145744
-0.149512
-0.152972
-0.122757
-0.12871
-0.133793
-0.138265
-0.14236
-0.146161
-0.149656
-0.119856
-0.12565
-0.130689
-0.135174
-0.139293
-0.143119
-0.14664
-0.117263
-0.122912
-0.127905
-0.132394
-0.136531
-0.140373
-0.143915
-0.114961
-0.120477
-0.125424
-0.129913
-0.13406
-0.137914
-0.141469
-0.112931
-0.118329
-0.123232
-0.127715
-0.131869
-0.135729
-0.139295
-0.11116
-0.116452
-0.121314
-0.125791
-0.129947
-0.133811
-0.137383
-0.109636
-0.114836
-0.119659
-0.124128
-0.128284
-0.13215
-0.135727
-0.108347
-0.113468
-0.118259
-0.122719
-0.126874
-0.13074
-0.13432
-0.107284
-0.11234
-0.117103
-0.121556
-0.125709
-0.129575
-0.133155
-0.10644
-0.111445
-0.116186
-0.120632
-0.124783
-0.128648
-0.132229
-0.10581
-0.110777
-0.115502
-0.119943
-0.124093
-0.127956
-0.131538
-0.10539
-0.110333
-0.115048
-0.119486
-0.123635
-0.127498
-0.131079
-0.105166
-0.110104
-0.114817
-0.119256
-0.123405
-0.127268
-0.130849
-0.241424
-0.227609
-0.214568
-0.203678
-0.193347
-0.183757
-0.175082
-0.167144
-0.159882
-0.153272
-0.147249
-0.141761
-0.13677
-0.132236
-0.128122
-0.124395
-0.121028
-0.117995
-0.115271
-0.112837
-0.110675
-0.108769
-0.107105
-0.105671
-0.104458
-0.103457
-0.102661
-0.102064
-0.101663
-0.101434
-0.233939
-0.220821
-0.207838
-0.197429
-0.187571
-0.17826
-0.169898
-0.162277
-0.155287
-0.148928
-0.143144
-0.137873
-0.133078
-0.128724
-0.124772
-0.121191
-0.117955
-0.115037
-0.112417
-0.110073
-0.107989
-0.106151
-0.104544
-0.103158
-0.101983
-0.101011
-0.100234
-0.0996481
-0.0992487
-0.0990108
-0.227715
-0.215156
-0.201991
-0.191644
-0.182176
-0.1731
-0.164951
-0.1576
-0.150854
-0.14471
-0.139134
-0.134057
-0.129438
-0.125243
-0.121438
-0.11799
-0.114873
-0.112062
-0.109537
-0.107277
-0.105268
-0.103493
-0.101941
-0.1006
-0.0994608
-0.0985161
-0.0977586
-0.0971841
-0.0967868
-0.0965444
-0.22132
-0.209129
-0.19612
-0.185875
-0.176791
-0.168021
-0.160072
-0.152962
-0.146457
-0.140519
-0.135135
-0.130241
-0.12579
-0.121749
-0.118083
-0.114762
-0.11176
-0.109052
-0.106619
-0.10444
-0.102502
-0.100789
-0.0992898
-0.0979931
-0.0968901
-0.0959732
-0.0952356
-0.0946733
-0.0942797
-0.0940358
-0.214993
-0.203204
-0.190425
-0.180206
-0.171374
-0.162915
-0.155174
-0.148279
-0.14201
-0.136282
-0.131087
-0.126374
-0.12209
-0.1182
-0.114673
-0.111478
-0.108589
-0.105984
-0.103642
-0.101546
-0.0996791
-0.0980288
-0.0965829
-0.0953313
-0.0942653
-0.0933773
-0.092661
-0.0921126
-0.0917249
-0.091482
-0.208481
-0.196969
-0.184529
-0.174446
-0.16585
-0.157726
-0.150234
-0.143551
-0.137512
-0.131998
-0.126993
-0.122458
-0.118339
-0.1146
-0.111211
-0.108141
-0.105366
-0.102863
-0.100612
-0.0985973
-0.0968025
-0.0952149
-0.0938231
-0.0926173
-0.0915891
-0.0907312
-0.0900374
-0.0895043
-0.0891244
-0.0888848
-0.201837
-0.190635
-0.1786
-0.168693
-0.160283
-0.152461
-0.145235
-0.138767
-0.132949
-0.127652
-0.12284
-0.118482
-0.114529
-0.110941
-0.107689
-0.104745
-0.102084
-0.0996831
-0.0975247
-0.0955918
-0.0938696
-0.0923457
-0.091009
-0.0898501
-0.0888608
-0.0880343
-0.0873647
-0.0868486
-0.0864784
-0.0862439
-0.195043
-0.1841
-0.172495
-0.162832
-0.154627
-0.1471
-0.140162
-0.133925
-0.128326
-0.123245
-0.11863
-0.11445
-0.110661
-0.107226
-0.104112
-0.101293
-0.098746
-0.0964485
-0.0943825
-0.0925321
-0.0908833
-0.0894237
-0.088143
-0.0870319
-0.0860827
-0.0852888
-0.0846447
-0.084147
-0.0837883
-0.0835609
-0.188094
-0.177428
-0.166285
-0.15691
-0.148919
-0.141667
-0.135015
-0.129021
-0.123641
-0.118774
-0.114358
-0.110358
-0.106735
-0.103452
-0.100477
-0.0977847
-0.0953519
-0.093158
-0.0911853
-0.0894183
-0.0878436
-0.0864493
-0.0852255
-0.0841634
-0.0832555
-0.0824956
-0.0818783
-0.0814008
-0.0810551
-0.0808366
-0.180991
-0.170601
-0.159924
-0.150875
-0.143126
-0.13615
-0.129788
-0.124049
-0.118894
-0.114242
-0.110026
-0.106208
-0.102752
-0.0996216
-0.0967865
-0.0942213
-0.0919037
-0.0898141
-0.0879353
-0.0862524
-0.0847526
-0.0834246
-0.0822587
-0.0812466
-0.0803812
-0.0796564
-0.0790674
-0.0786113
-0.0782802
-0.0780723
-0.173724
-0.163635
-0.153439
-0.144743
-0.137262
-0.130562
-0.124487
-0.119008
-0.114085
-0.109647
-0.105633
-0.102
-0.0987116
-0.0957351
-0.0930406
-0.0906033
-0.0884019
-0.0864175
-0.0846335
-0.0830357
-0.0816118
-0.0803509
-0.079244
-0.078283
-0.0774612
-0.0767728
-0.0762133
-0.0757801
-0.0754651
-0.0752694
-0.166286
-0.156526
-0.146816
-0.138494
-0.131306
-0.124894
-0.119107
-0.113895
-0.109211
-0.104992
-0.101181
-0.0977337
-0.0946152
-0.0917938
-0.0892411
-0.0869329
-0.0848487
-0.0829703
-0.081282
-0.0797702
-0.0784231
-0.0772304
-0.0761835
-0.0752746
-0.0744975
-0.0738468
-0.0733181
-0.0729089
-0.0726114
-0.0724294
-0.15867
-0.149277
-0.140064
-0.132135
-0.125263
-0.11915
-0.113653
-0.108712
-0.104271
-0.100275
-0.0966688
-0.09341
-0.0904635
-0.0877989
-0.0853892
-0.0832114
-0.0812454
-0.0794742
-0.0778826
-0.0764578
-0.0751886
-0.0740651
-0.0730791
-0.0722235
-0.0714922
-0.0708802
-0.0703834
-0.0699996
-0.0697208
-0.0695537
-0.150871
-0.141885
-0.133178
-0.125658
-0.119123
-0.113323
-0.108123
-0.103457
-0.0992658
-0.0954963
-0.0920985
-0.0890304
-0.086258
-0.083752
-0.081487
-0.0794408
-0.0775944
-0.0759315
-0.0744378
-0.073101
-0.0719106
-0.0708573
-0.0699334
-0.069132
-0.0684475
-0.0678753
-0.0674116
-0.0670541
-0.0667953
-0.0666443
-0.142881
-0.134348
-0.12616
-0.119065
-0.112886
-0.107413
-0.102518
-0.0981316
-0.0941951
-0.0906571
-0.0874708
-0.0845961
-0.0820002
-0.0796551
-0.0775364
-0.0756234
-0.073898
-0.0723446
-0.0709499
-0.0697023
-0.0685918
-0.0676097
-0.0667487
-0.0660025
-0.0653659
-0.0648345
-0.0644048
-0.0640745
-0.0638368
-0.063703
-0.134692
-0.126661
-0.119008
-0.112355
-0.106549
-0.101418
-0.0968361
-0.0927363
-0.0890599
-0.0857585
-0.0827877
-0.0801093
-0.0776925
-0.0755103
-0.07354
-0.0717618
-0.0701588
-0.0687164
-0.0674219
-0.0662645
-0.0652349
-0.064325
-0.063528
-0.062838
-0.0622501
-0.0617603
-0.0613654
-0.0610634
-0.0608477
-0.0607321
-0.126298
-0.118816
-0.111721
-0.105529
-0.100112
-0.0953375
-0.0910785
-0.0872722
-0.0838619
-0.0808022
-0.0780509
-0.0755722
-0.0733371
-0.0713204
-0.0695004
-0.0678589
-0.0663798
-0.0650496
-0.0638566
-0.0627907
-0.061843
-0.0610063
-0.0602741
-0.0596411
-0.0591027
-0.0586554
-0.0582961
-0.058023
-0.0578303
-0.0577335
-0.117703
-0.110803
-0.104292
-0.0985871
-0.0935759
-0.0891693
-0.0852435
-0.0817389
-0.0786011
-0.0757886
-0.0732615
-0.0709861
-0.0689359
-0.0670872
-0.0654199
-0.063917
-0.0625636
-0.0613472
-0.060257
-0.0592835
-0.058419
-0.0576563
-0.0569899
-0.0564147
-0.0559266
-0.0555224
-0.0551993
-0.0549557
-0.0547868
-0.0547086
-0.108928
-0.102619
-0.0967119
-0.0915224
-0.0869362
-0.0829112
-0.0793288
-0.0761339
-0.0732751
-0.0707156
-0.068418
-0.0663505
-0.064489
-0.0628117
-0.0612999
-0.0599378
-0.0587121
-0.0576112
-0.0566253
-0.0557457
-0.0549653
-0.0542778
-0.0536779
-0.0531613
-0.0527243
-0.0523638
-0.0520774
-0.0518639
-0.0517192
-0.0516583
-0.100006
-0.0942714
-0.0889712
-0.0843209
-0.0801829
-0.0765563
-0.0733298
-0.0704528
-0.0678787
-0.0655788
-0.0635175
-0.0616642
-0.0599964
-0.0584945
-0.0571415
-0.0559232
-0.0548275
-0.0538441
-0.052964
-0.0521797
-0.0514847
-0.0508734
-0.0503411
-0.0498839
-0.0494986
-0.0491824
-0.0489332
-0.0487504
-0.0486299
-0.0485841
-0.0909242
-0.0857841
-0.0810585
-0.0769701
-0.0733034
-0.0700989
-0.0672438
-0.0646943
-0.0624111
-0.060379
-0.0585627
-0.0569304
-0.0554618
-0.0541396
-0.0529489
-0.0518773
-0.0509141
-0.0500501
-0.0492778
-0.0485902
-0.0479819
-0.0474478
-0.0469839
-0.0465869
-0.0462539
-0.0459825
-0.045771
-0.0456193
-0.045522
-0.0454921
-0.0816143
-0.0771439
-0.0729668
-0.069477
-0.0662972
-0.0635419
-0.0610743
-0.0588677
-0.0568885
-0.0551337
-0.0535694
-0.0521631
-0.0508976
-0.0497582
-0.0487324
-0.0478096
-0.0469806
-0.0462378
-0.0455744
-0.0449847
-0.0444639
-0.0440078
-0.043613
-0.0432766
-0.0429963
-0.0427701
-0.0425965
-0.0424766
-0.0424004
-0.0423926
-0.0719753
-0.0683493
-0.0647049
-0.0618703
-0.0591804
-0.0568986
-0.0548272
-0.0529906
-0.0513456
-0.0498726
-0.0485614
-0.0473816
-0.0463198
-0.0453641
-0.0445041
-0.043731
-0.043037
-0.0424159
-0.041862
-0.0413707
-0.0409378
-0.04056
-0.0402345
-0.0399589
-0.0397314
-0.0395503
-0.0394145
-0.0393267
-0.0392698
-0.0392905
-0.0619557
-0.0594582
-0.0563163
-0.0541946
-0.0519888
-0.050195
-0.0485212
-0.0470813
-0.0458022
-0.044608
-0.0435471
-0.0425929
-0.0417347
-0.040963
-0.0402691
-0.039646
-0.0390874
-0.0385883
-0.0381441
-0.0377511
-0.0374062
-0.0371067
-0.0368503
-0.0366353
-0.0364602
-0.0363238
-0.0362257
-0.0361675
-0.0361337
-0.0361767
-0.0516873
-0.0504757
-0.047881
-0.0464555
-0.0447721
-0.0434576
-0.0422072
-0.0411357
-0.0401803
-0.0392885
-0.0384889
-0.0377694
-0.0371218
-0.0365393
-0.0360158
-0.035546
-0.0351255
-0.0347504
-0.0344177
-0.0341244
-0.0338685
-0.0336479
-0.0334611
-0.0333069
-0.0331844
-0.0330926
-0.033032
-0.0330024
-0.0329935
-0.0330536
-0.041249
-0.0411623
-0.0393336
-0.0385657
-0.0374637
-0.0366367
-0.0358283
-0.035132
-0.034505
-0.0339221
-0.0333937
-0.0329164
-0.0324857
-0.0320975
-0.0317485
-0.0314354
-0.0311556
-0.0309068
-0.0306871
-0.0304948
-0.0303288
-0.0301878
-0.0300711
-0.0299779
-0.0299079
-0.0298607
-0.029837
-0.0298358
-0.0298512
-0.0299256
-0.0306984
-0.0316228
-0.0306411
-0.0305445
-0.0300487
-0.0297279
-0.0293743
-0.0290683
-0.0287849
-0.0285172
-0.0282688
-0.0280409
-0.0278329
-0.0276439
-0.0274732
-0.0273199
-0.0271832
-0.0270625
-0.0269574
-0.0268673
-0.0267919
-0.0267311
-0.0266847
-0.0266528
-0.0266352
-0.0266322
-0.0266448
-0.0266717
-0.02671
-0.0267972
-0.0200236
-0.0219262
-0.0217975
-0.0223997
-0.0225248
-0.0227328
-0.0228501
-0.0229531
-0.0230302
-0.023086
-0.0231251
-0.0231528
-0.0231724
-0.0231865
-0.0231971
-0.023206
-0.0232144
-0.0232234
-0.0232339
-0.0232468
-0.0232628
-0.0232825
-0.0233066
-0.0233357
-0.0233704
-0.0234112
-0.0234593
-0.0235136
-0.0235736
-0.0236718
-0.00920792
-0.0120948
-0.0128094
-0.0141383
-0.0149063
-0.0156689
-0.0162771
-0.016806
-0.0172568
-0.017643
-0.0179747
-0.0182619
-0.0185121
-0.0187318
-0.0189261
-0.019099
-0.019254
-0.0193939
-0.0195211
-0.0196378
-0.0197456
-0.0198461
-0.0199408
-0.0200309
-0.0201173
-0.0202014
-0.0202844
-0.0203652
-0.0204454
-0.020553
0.00175818
-0.00213507
-0.003701
-0.0057875
-0.00722862
-0.00856798
-0.00968042
-0.0106438
-0.0114735
-0.0121929
-0.0128196
-0.0133686
-0.0138522
-0.0142802
-0.0146606
-0.0149999
-0.0153036
-0.0155762
-0.0158216
-0.016043
-0.0162435
-0.0164253
-0.0165908
-0.0167417
-0.0168798
-0.0170066
-0.0171236
-0.0172301
-0.0173291
-0.017444
0.0128619
0.00792375
0.00547548
0.00260965
0.000481106
-0.00143547
-0.00304932
-0.00444582
-0.00565603
-0.00671245
-0.00763943
-0.00845669
-0.00918005
-0.00982242
-0.0103944
-0.0109048
-0.0113611
-0.0117697
-0.0121357
-0.012464
-0.0127585
-0.0130227
-0.0132595
-0.0134716
-0.0136611
-0.0138301
-0.0139804
-0.0141116
-0.0142281
-0.0143483
0.024059
0.0180395
0.0146893
0.0110687
0.00827653
0.00580177
0.00369144
0.00185473
0.000249846
-0.00116054
-0.0024047
-0.0035056
-0.00448215
-0.00535018
-0.00612304
-0.00681206
-0.00742693
-0.00797594
-0.0084662
-0.00890387
-0.00929423
-0.00964185
-0.00995066
-0.010224
-0.0104648
-0.0106756
-0.0108584
-0.0110132
-0.0111458
-0.0112691
0.0353109
0.0282348
0.0240247
0.0197161
0.0162824
0.0132405
0.0106037
0.00828899
0.00625297
0.00445727
0.00287067
0.00146647
0.000221781
-0.000883079
-0.00186501
-0.00273853
-0.00351609
-0.0042084
-0.00482464
-0.00537272
-0.00585941
-0.00629052
-0.00667101
-0.00700509
-0.00729632
-0.00754783
-0.00776183
-0.00793902
-0.00808586
-0.00820996
0.0466553
0.0386425
0.0336063
0.0286079
0.0244676
0.0207824
0.0175526
0.014711
0.0122123
0.0100131
0.00807494
0.00636424
0.00485183
0.00351265
0.00232526
0.00127134
0.000335257
-0.000496329
-0.00123479
-0.00188982
-0.00246967
-0.00298139
-0.00343092
-0.00382328
-0.0041627
-0.00445274
-0.00469588
-0.00489349
-0.00505242
-0.00517487
0.0581375
0.0492526
0.043218
0.037371
0.0323962
0.0280009
0.0241617
0.0208071
0.0178747
0.0153062
0.0130508
0.0110652
0.00931309
0.0077637
0.00639124
0.00517392
0.00409337
0.00313408
0.0022829
0.00152873
0.000862148
0.000275189
-0.000238872
-0.000685673
-0.00106994
-0.00139556
-0.0016652
-0.00188089
-0.00204925
-0.00216738
0.0695099
0.0595551
0.0522108
0.0454029
0.039619
0.0346036
0.0302649
0.0264986
0.0232178
0.0203482
0.0178287
0.0156093
0.0136486
0.0119123
0.0103721
0.00900418
0.00778847
0.0067082
0.00574919
0.00489942
0.00414876
0.00348859
0.00291165
0.00241186
0.0019841
0.00162427
0.00132945
0.00109712
0.000921663
0.000810184
0.0802902
0.0692303
0.0607206
0.0532016
0.0468492
0.0413761
0.0366297
0.0324895
0.0288636
0.0256766
0.0228666
0.0203819
0.0181798
0.0162246
0.0144865
0.0129403
0.0115647
0.0103417
0.00925595
0.00829448
0.00744615
0.0067015
0.00605251
0.00549242
0.00501556
0.00461739
0.00429454
0.00404399
0.00386175
0.00375765
0.0909316
0.0798478
0.0709026
0.0629669
0.0560812
0.0500307
0.0446877
0.0399621
0.035783
0.0320859
0.028812
0.0259096
0.0233336
0.0210454
0.019012
0.017205
0.0155999
0.0141759
0.0129149
0.0118015
0.0108223
0.00996609
0.00922308
0.00858515
0.00804547
0.00759851
0.00724
0.00696622
0.00677461
0.00667533
0.102768
0.0931008
0.0839881
0.0754074
0.0676256
0.0606265
0.0543573
0.0487655
0.0437968
0.0393908
0.0354866
0.0320272
0.0289614
0.0262441
0.0238358
0.0217023
0.0198137
0.0181443
0.0166716
0.0153765
0.0142424
0.0132551
0.0124026
0.0116746
0.0110627
0.0105599
0.0101608
0.0098608
0.0096575
0.00955814
0.113029
0.103906
0.0942265
0.0848633
0.0762693
0.0685295
0.0616091
0.0554442
0.049967
0.0451088
0.040803
0.0369879
0.0336076
0.0306128
0.0279602
0.025612
0.0235354
0.0217017
0.0200863
0.0186679
0.0174279
0.0163509
0.0154233
0.0146339
0.0139733
0.0134337
0.0130092
0.0126945
0.0124867
0.0123881
0.127753
0.11587
0.104996
0.0949135
0.0858303
0.0777749
0.0706537
0.0643349
0.058712
0.0537034
0.0492409
0.0452648
0.0417222
0.0385662
0.0357558
0.0332551
0.0310328
0.0290615
0.0273176
0.0257804
0.0244322
0.0232577
0.0222439
0.0213796
0.0206557
0.0200644
0.0195994
0.019256
0.0190303
0.018919
0.141526
0.12793
0.116776
0.10699
0.0982043
0.0902963
0.0831933
0.0768161
0.0710853
0.065932
0.0612979
0.0571319
0.0533884
0.0500266
0.0470103
0.0443072
0.041889
0.0397306
0.0378102
0.0361085
0.0346088
0.0332967
0.0321596
0.0311869
0.0303694
0.0296997
0.0291717
0.0287806
0.0285228
0.0283961
0.145141
0.134587
0.124834
0.115881
0.107678
0.100176
0.0933377
0.0871213
0.0814765
0.0763523
0.0717022
0.0674847
0.0636627
0.0602029
0.0570754
0.0542534
0.0517126
0.0494317
0.0473915
0.0455749
0.043967
0.0425546
0.0413263
0.0402721
0.0393837
0.038654
0.0380771
0.0376485
0.0373648
0.0372229
0.146177
0.137165
0.128664
0.12074
0.113409
0.106634
0.100376
0.0946041
0.089291
0.0844092
0.0799313
0.0758306
0.0720821
0.0686619
0.0655481
0.0627199
0.0601585
0.0578464
0.0557679
0.053909
0.052257
0.0508005
0.0495298
0.0484362
0.0475122
0.0467517
0.0461495
0.0457016
0.0454049
0.0452577
0.1441
0.137034
0.130122
0.123475
0.117153
0.111181
0.105569
0.100318
0.095425
0.0908799
0.0866697
0.0827796
0.079194
0.0758972
0.0728742
0.0701104
0.0675922
0.0653065
0.0632415
0.0613862
0.0597306
0.0582657
0.0569833
0.0558765
0.0549391
0.0541658
0.0535523
0.0530951
0.0527917
0.0526398
0.141834
0.135941
0.13011
0.124436
0.118985
0.113785
0.108848
0.10418
0.0997831
0.0956567
0.0917971
0.0881988
0.0848548
0.0817571
0.0788972
0.0762661
0.073855
0.0716552
0.0696583
0.0678565
0.0662424
0.0648092
0.0635508
0.0624618
0.0615372
0.0607732
0.060166
0.0597131
0.0594124
0.0592629
0.138591
0.133873
0.129123
0.124434
0.119851
0.115404
0.11112
0.107018
0.103111
0.0994085
0.095914
0.0926294
0.0895539
0.0866848
0.0840187
0.0815512
0.0792774
0.0771922
0.0752905
0.0735673
0.0720177
0.0706371
0.0694211