/*--------------------------------*- C++ -*----------------------------------*\
  =========                 |
  \\      /  F ield         | OpenFOAM: The Open Source CFD Toolbox
   \\    /   O peration     | Website:  https://openfoam.org
    \\  /    A nd           | Version:  7
     \\/     M anipulation  |
\*---------------------------------------------------------------------------*/
FoamFile
{
    version     2.0;
    format      ascii;
    class       surfaceScalarField;
    location    "20";
    object      phi;
}
// * * * * * * * * * * * * * * * * * * * * * * * * * * * * * * * * * * * * * //

dimensions      [0 3 -1 0 0 0 0];

internalField   nonuniform List<scalar> 
6502
(
0.00070345
0.00164628
0.000940848
0.000297365
0.000414338
0.00122996
0.000654662
0.000117022
0.000187063
0.000881937
0.000296031
-6.76135e-05
0.000430076
-1.70218e-05
1.66622e-05
0.000600476
8.65976e-05
-0.000165614
0.000156985
-0.000138001
0.000252652
-0.000112689
-0.000104263
0.000373578
-6.75921e-07
-0.00019547
4.48229e-05
-0.0001835
0.00010797
-0.000175837
-0.000183855
0.000187562
-8.73925e-05
-0.000211008
-7.40208e-05
-0.000208841
-4.96348e-05
-0.000207886
-1.3338e-05
-0.000212134
-0.000226381
2.91884e-05
-0.000137187
-0.000203952
-0.000138223
-0.000207805
-0.000132363
-0.000213746
-0.000119915
-0.000224581
-0.000244375
-0.000101921
-0.000164496
-0.000180271
-0.000181615
-0.000186834
-0.000195347
-0.000194072
-0.000205415
-0.000203678
-0.000212295
-0.000217701
-0.000238868
-0.000217802
-0.000194953
-0.000153445
-0.000220893
-0.000160893
-0.00024565
-0.000169316
-0.000269345
-0.000179984
-0.000292703
-0.000194343
-0.000214103
-0.000317469
-0.00022094
-0.000120648
-0.000254302
-0.000127531
-0.000288241
-0.000135378
-0.000323136
-0.000145088
-0.000359843
-0.000157635
-0.000174078
-0.000399868
-0.000241562
-8.31498e-05
-0.000280732
-8.83609e-05
-0.000321791
-9.43186e-05
-0.000365282
-0.000101598
-0.000412121
-0.000110796
-0.000122539
-0.00046366
-0.000255913
-4.24041e-05
-0.000299077
-4.51971e-05
-0.000345002
-4.83934e-05
-0.000394326
-5.2273e-05
-0.000448001
-5.71214e-05
-6.32311e-05
-0.000507309
-0.000220875
-0.000263281
-0.00030848
-0.000356875
-0.00040915
-0.000466274
-0.000529508
0.00175641
0.0302089
-0.000935472
0.00179458
0.0345717
0.00164299
0.0349183
0.00146904
0.0342968
0.00127986
0.0336835
0.00111034
0.033139
0.00096074
0.0326537
0.000830886
0.0322242
0.000719294
0.0318394
0.00062339
0.0314953
0.000541038
0.0311869
0.000470233
0.0309105
0.000409249
0.0306627
0.000356612
0.0304406
0.000311077
0.0302417
0.000271597
0.0300637
0.000237295
0.0299044
0.000207432
0.029762
0.000181387
0.0296347
0.000158644
0.029521
0.000138759
0.0294195
0.000121352
0.0293288
0.0001061
0.0292479
9.27249e-05
0.0291757
8.09877e-05
0.0291113
7.06834e-05
0.0290538
6.16347e-05
0.0290026
5.3688e-05
0.0289569
4.67097e-05
0.0289162
4.05835e-05
0.0288799
3.52075e-05
0.0288476
3.04927e-05
0.0288189
2.63605e-05
0.0287933
2.27418e-05
0.0287706
1.95753e-05
0.0287504
1.6806e-05
0.0287325
1.43858e-05
0.0287167
1.22721e-05
0.0287028
1.0427e-05
0.0286905
8.81634e-06
0.0286797
7.40945e-06
0.0286703
6.17858e-06
0.0286622
5.09842e-06
0.0286552
4.14578e-06
0.0286493
3.29927e-06
0.0286444
2.53907e-06
0.0286403
1.84644e-06
0.0286372
1.20379e-06
0.0286349
5.94052e-07
0.0286333
0.0286326
0.00161892
0.0293476
-0.000757639
0.0016237
0.0345669
0.00151615
0.0350259
0.00135881
0.0344541
0.00119518
0.0338472
0.0010419
0.0332923
0.000903767
0.0327919
0.000783336
0.0323446
0.000678984
0.0319438
0.000588912
0.0315853
0.000511306
0.0312645
0.000444427
0.0309774
0.000386736
0.0307204
0.000336885
0.0304905
0.000293727
0.0302849
0.000256292
0.0301011
0.000223757
0.0299369
0.000195432
0.0297903
0.000170732
0.0296594
0.000149166
0.0295426
0.000130313
0.0294383
0.000113816
0.0293453
9.93676e-05
0.0292624
8.67041e-05
0.0291884
7.55991e-05
0.0291224
6.58575e-05
0.0290636
5.73105e-05
0.0290111
4.98119e-05
0.0289644
4.32346e-05
0.0289228
3.74677e-05
0.0288857
3.24143e-05
0.0288527
2.79895e-05
0.0288233
2.41186e-05
0.0287972
2.07356e-05
0.0287739
1.77822e-05
0.0287534
1.52063e-05
0.0287351
1.29622e-05
0.028719
1.10094e-05
0.0287047
9.31154e-06
0.0286922
7.83627e-06
0.0286812
6.55439e-06
0.0286716
5.43951e-06
0.0286633
4.46762e-06
0.0286562
3.61668e-06
0.0286502
2.86639e-06
0.0286451
2.19794e-06
0.028641
1.5936e-06
0.0286378
1.03659e-06
0.0286354
5.10676e-07
0.0286338
0.0286331
0.00145062
0.0285744
-0.00067741
0.00149397
0.0345236
0.00139714
0.0351227
0.00125046
0.0346008
0.00110296
0.0339947
0.00096531
0.0334299
0.00084017
0.032917
0.000730088
0.0324547
0.000633945
0.0320399
0.0005505
0.0316688
0.000478313
0.0313367
0.000415915
0.0310398
0.000361964
0.0307743
0.000315263
0.0305372
0.00027478
0.0303253
0.000239633
0.0301362
0.000209069
0.0299675
0.000182448
0.0298169
0.000159229
0.0296826
0.000138956
0.0295629
0.000121236
0.0294561
0.000105732
0.0293608
9.21592e-05
0.029276
8.02688e-05
0.0292003
6.98486e-05
0.0291328
6.07148e-05
0.0290727
5.27085e-05
0.0290192
4.56918e-05
0.0289714
3.95449e-05
0.0289289
3.41631e-05
0.0288911
2.94547e-05
0.0288574
2.53397e-05
0.0288274
2.17475e-05
0.0288008
1.86156e-05
0.0287771
1.58891e-05
0.0287561
1.35188e-05
0.0287375
1.14617e-05
0.028721
9.67918e-06
0.0287065
8.13716e-06
0.0286937
6.80499e-06
0.0286825
5.65507e-06
0.0286728
4.66257e-06
0.0286643
3.80478e-06
0.0286571
3.06093e-06
0.0286509
2.41184e-06
0.0286458
1.83984e-06
0.0286416
1.32821e-06
0.0286383
8.6114e-07
0.0286359
4.23414e-07
0.0286343
0.0286335
0.00128971
0.0279185
-0.000633828
0.00136388
0.0344494
0.00127687
0.0352097
0.00114472
0.034733
0.00101076
0.0341286
0.000886498
0.0335542
0.000773983
0.0330295
0.000674188
0.0325545
0.000586462
0.0321276
0.000509914
0.0317453
0.000443423
0.0314032
0.000385768
0.0310974
0.000335787
0.0308243
0.000292436
0.0305805
0.000254801
0.030363
0.000222087
0.030169
0.000193616
0.0299959
0.000168804
0.0298417
0.000147155
0.0297042
0.00012825
0.0295818
0.000111726
0.0294726
9.72717e-05
0.0293753
8.46215e-05
0.0292886
7.35453e-05
0.0292114
6.38452e-05
0.0291425
5.535e-05
0.0290812
4.7911e-05
0.0290266
4.13996e-05
0.0289779
3.57034e-05
0.0289346
3.07244e-05
0.028896
2.63768e-05
0.0288617
2.25855e-05
0.0288312
1.92841e-05
0.0288041
1.64142e-05
0.02878
1.39243e-05
0.0287586
1.17682e-05
0.0287396
9.90551e-06
0.0287229
8.30017e-06
0.0287081
6.92014e-06
0.0286951
5.73658e-06
0.0286837
4.72366e-06
0.0286738
3.8581e-06
0.0286652
3.11861e-06
0.0286578
2.48572e-06
0.0286515
1.94144e-06
0.0286463
1.4693e-06
0.0286421
1.05363e-06
0.0286387
6.79664e-07
0.0286363
3.33103e-07
0.0286346
0.0286338
0.00114302
0.0273549
-0.000579365
0.00123096
0.0343615
0.00115637
0.0352843
0.00103906
0.0348503
0.000918536
0.0342492
0.000806748
0.033666
0.000706075
0.0331302
0.000616358
0.0326442
0.00053707
0.0322069
0.000467569
0.0318148
0.000406968
0.0314638
0.000354245
0.0311501
0.000308413
0.0308701
0.000268573
0.0306204
0.000233925
0.0303976
0.000203767
0.0301991
0.000177493
0.0300222
0.000154579
0.0298646
0.000134577
0.0297242
0.000117105
0.0295992
0.000101833
0.0294879
8.84761e-05
0.0293887
7.67904e-05
0.0293003
6.65646e-05
0.0292216
5.7616e-05
0.0291515
4.97864e-05
0.029089
4.29386e-05
0.0290334
3.69531e-05
0.0289839
3.17258e-05
0.0289398
2.71656e-05
0.0289006
2.31927e-05
0.0288657
1.97374e-05
0.0288346
1.67378e-05
0.0288071
1.41396e-05
0.0287825
1.18948e-05
0.0287608
9.96071e-06
0.0287416
8.2993e-06
0.0287245
6.87728e-06
0.0287095
5.66475e-06
0.0286963
4.6347e-06
0.0286847
3.76325e-06
0.0286746
3.02873e-06
0.0286659
2.41134e-06
0.0286584
1.89294e-06
0.028652
1.45672e-06
0.0286467
1.08752e-06
0.0286424
7.70768e-07
0.028639
4.92725e-07
0.0286365
2.40085e-07
0.0286349
0.0286341
0.00100814
0.0268621
-0.000515407
0.00109824
0.0342714
0.0010358
0.0353467
0.000932751
0.0349533
0.000825499
0.0343564
0.000726048
0.0337654
0.000636736
0.0332195
0.000556887
0.032724
0.000486021
0.0322778
0.000423678
0.0318772
0.000369117
0.0315184
0.000321484
0.0311978
0.000279952
0.0309117
0.000243762
0.0306565
0.000212225
0.0304292
0.000184731
0.0302266
0.000160747
0.0300462
0.000139812
0.0298856
0.000121526
0.0297425
0.000105548
0.0296152
9.15791e-05
0.0295018
7.93644e-05
0.0294009
6.86821e-05
0.029311
5.93404e-05
0.0292309
5.11727e-05
0.0291597
4.40345e-05
0.0290962
3.78001e-05
0.0290397
3.23602e-05
0.0289894
2.76189e-05
0.0289446
2.34925e-05
0.0289047
1.99077e-05
0.0288693
1.68e-05
0.0288378
1.41128e-05
0.0288097
1.17954e-05
0.0287849
9.80417e-06
0.0287628
8.09927e-06
0.0287433
6.64556e-06
0.028726
5.41265e-06
0.0287108
4.37287e-06
0.0286974
3.50107e-06
0.0286856
2.77536e-06
0.0286754
2.17582e-06
0.0286665
1.68413e-06
0.0286589
1.28351e-06
0.0286525
9.58368e-07
0.0286471
6.95052e-07
0.0286427
4.79985e-07
0.0286393
3.00545e-07
0.0286367
1.44496e-07
0.028635
0.0286342
0.000878807
0.0264342
-0.000450914
0.000966965
0.0341832
0.00091552
0.0353982
0.000825367
0.0350435
0.000730986
0.0344508
0.000643998
0.0338524
0.000565954
0.0332975
0.000495865
0.0327941
0.000433453
0.0323402
0.000378373
0.0319322
0.000329983
0.0315668
0.000287576
0.0312402
0.00025048
0.0309488
0.000218065
0.030689
0.00018975
0.0304575
0.000165018
0.0302513
0.000143411
0.0300678
0.00012453
0.0299045
0.000108025
0.029759
9.35963e-05
0.0296296
8.09804e-05
0.0295144
6.99502e-05
0.0294119
6.03082e-05
0.0293206
5.18827e-05
0.0292394
4.45239e-05
0.029167
3.81014e-05
0.0291026
3.25018e-05
0.0290453
2.76261e-05
0.0289942
2.33875e-05
0.0289488
1.97094e-05
0.0289084
1.65255e-05
0.0288725
1.3777e-05
0.0288405
1.1412e-05
0.0288121
9.38433e-06
0.0287869
7.65441e-06
0.0287645
6.18585e-06
0.0287447
4.94604e-06
0.0287272
3.9079e-06
0.0287118
3.04608e-06
0.0286982
2.33684e-06
0.0286863
1.76092e-06
0.028676
1.3e-06
0.028667
9.37363e-07
0.0286593
6.57808e-07
0.0286527
4.46578e-07
0.0286473
2.91958e-07
0.0286428
1.81293e-07
0.0286394
1.03081e-07
0.0286368
4.63439e-08
0.0286351
0.0286343
0.000752538
0.0260718
-0.000390064
0.000836508
0.0340992
0.000796801
0.0354379
0.000716565
0.0351237
0.000634689
0.0345327
0.000560427
0.0339267
0.000493682
0.0333643
0.000433359
0.0328544
0.000379489
0.0323941
0.000331784
0.0319799
0.000289683
0.0316089
0.000252625
0.0312772
0.000220084
0.0309813
0.000191553
0.0307175
0.000166561
0.0304825
0.00014468
0.0302732
0.000125528
0.030087
0.000108768
0.0299212
9.41035e-05
0.0297737
8.12759e-05
0.0296425
7.00576e-05
0.0295257
6.0251e-05
0.0294217
5.16836e-05
0.0293292
4.42042e-05
0.0292468
3.76806e-05
0.0291735
3.19969e-05
0.0291083
2.70522e-05
0.0290502
2.27587e-05
0.0289985
1.90383e-05
0.0289525
1.5822e-05
0.0289116
1.3051e-05
0.0288752
1.06725e-05
0.0288429
8.6391e-06
0.0288141
6.90957e-06
0.0287886
5.44857e-06
0.028766
4.22327e-06
0.028746
3.20279e-06
0.0287283
2.36459e-06
0.0287126
1.68533e-06
0.0286989
1.1428e-06
0.0286869
7.20248e-07
0.0286764
4.01008e-07
0.0286673
1.70053e-07
0.0286595
1.40016e-08
0.0286529
-7.68196e-08
0.0286474
-1.19279e-07
0.0286429
-1.22893e-07
0.0286394
-9.77232e-08
0.0286368
-5.35183e-08
0.0286351
0.0286342
0.000628199
0.0257762
-0.000332662
0.000705722
0.0340217
0.000675473
0.0354681
0.000605826
0.0351934
0.000536659
0.0346018
0.00047545
0.0339879
0.000419978
0.0334198
0.000369502
0.0329049
0.0003243
0.0324393
0.000284075
0.0320202
0.000248361
0.0316446
0.000216755
0.0313088
0.000188871
0.0310092
0.000164319
0.030742
0.000142735
0.0305041
0.00012378
0.0302922
0.00010715
0.0301036
9.25716e-05
0.0299358
7.97995e-05
0.0297865
6.86193e-05
0.0296536
5.88389e-05
0.0295354
5.02909e-05
0.0294303
4.28289e-05
0.0293366
3.63231e-05
0.0292533
3.06586e-05
0.0291792
2.57341e-05
0.0291132
2.14627e-05
0.0290545
1.77675e-05
0.0290022
1.45797e-05
0.0289557
1.18377e-05
0.0289144
9.49078e-06
0.0288776
7.49238e-06
0.0288449
5.79936e-06
0.0288158
4.37512e-06
0.02879
3.18966e-06
0.0287672
2.21365e-06
0.0287469
1.41734e-06
0.028729
7.83202e-07
0.0287133
2.8873e-07
0.0286994
-7.86025e-08
0.0286872
-3.39543e-07
0.0286766
-5.1083e-07
0.0286675
-6.04822e-07
0.0286596
-6.33203e-07
0.0286529
-6.07921e-07
0.0286473
-5.37828e-07
0.0286428
-4.33033e-07
0.0286393
-3.0268e-07
0.0286366
-1.55482e-07
0.0286349
0.028634
0.000504316
0.025548
-0.000276102
0.00057361
0.0339524
0.000551427
0.0354903
0.000492668
0.0352521
0.000437225
0.0346573
0.000389324
0.0340358
0.000345006
0.0334641
0.00030451
0.0329454
0.0002681
0.0324757
0.000235435
0.0320528
0.000206188
0.0316738
0.000180118
0.0313349
0.000156969
0.0310323
0.00013647
0.0307625
0.000118361
0.0305222
0.000102395
0.0303081
8.83433e-05
0.0301176
7.59954e-05
0.0299481
6.516e-05
0.0297973
5.56659e-05
0.0296631
4.73572e-05
0.0295437
4.00983e-05
0.0294375
3.37685e-05
0.029343
2.82597e-05
0.0292589
2.34754e-05
0.029184
1.93286e-05
0.0291174
1.57466e-05
0.0290581
1.2664e-05
0.0290053
1.00225e-05
0.0289584
7.76506e-06
0.0289166
5.85168e-06
0.0288795
4.2419e-06
0.0288465
2.89678e-06
0.0288172
1.7838e-06
0.0287912
8.77981e-07
0.0287681
1.51885e-07
0.0287477
-4.0071e-07
0.0287296
-8.19653e-07
0.0287137
-1.11865e-06
0.0286997
-1.31301e-06
0.0286874
-1.41649e-06
0.0286767
-1.4407e-06
0.0286675
-1.39748e-06
0.0286595
-1.29736e-06
0.0286528
-1.15044e-06
0.0286472
-9.64918e-07
0.0286426
-7.49358e-07
0.028639
-5.11684e-07
0.0286364
-2.59415e-07
0.0286347
0.0286338
0.000378918
0.025386
-0.000216865
0.000439539
0.0338918
0.000424346
0.0355055
0.000376055
0.0353004
0.000337251
0.0346961
0.00030216
0.0340709
0.000269011
0.0334972
0.000238656
0.0329758
0.000211125
0.0325032
0.000186068
0.0320779
0.000163345
0.0316965
0.00014287
0.0313554
0.000124512
0.0310507
0.000108119
0.0307789
9.3536e-05
0.0305368
8.06055e-05
0.0303211
6.91745e-05
0.0301291
5.90957e-05
0.0299582
5.02318e-05
0.0298062
4.2456e-05
0.0296709
3.56476e-05
0.0295506
2.97027e-05
0.0294435
2.45273e-05
0.0293482
2.00355e-05
0.0292633
1.61505e-05
0.0291879
1.2796e-05
0.0291207
9.91704e-06
0.029061
7.45881e-06
0.0290078
5.37415e-06
0.0289605
3.61028e-06
0.0289184
2.138e-06
0.028881
9.19647e-07
0.0288477
-6.85074e-08
0.0288182
-8.46252e-07
0.0287919
-1.45588e-06
0.0287687
-1.91373e-06
0.0287481
-2.24074e-06
0.0287299
-2.44983e-06
0.0287139
-2.55589e-06
0.0286998
-2.57317e-06
0.0286874
-2.51357e-06
0.0286767
-2.38716e-06
0.0286674
-2.20391e-06
0.0286594
-1.97278e-06
0.0286526
-1.70214e-06
0.0286469
-1.39915e-06
0.0286423
-1.07092e-06
0.0286387
-7.24118e-07
0.0286361
-3.6506e-07
0.0286343
0.0286334
0.000249659
0.0252873
-0.000151055
0.000303176
0.0338383
0.000293887
0.0355148
0.000259775
0.0353345
0.000237071
0.0347188
0.000213979
0.034094
0.000192288
0.0335189
0.000172225
0.0329958
0.000153605
0.0325218
0.000136178
0.0320953
0.000120013
0.0317127
0.000105167
0.0313702
9.16323e-05
0.0310642
7.93779e-05
0.0307912
6.83528e-05
0.0305478
5.84893e-05
0.0303309
4.97089e-05
0.0301379
4.19279e-05
0.029966
3.50624e-05
0.029813
2.90308e-05
0.0296769
2.37429e-05
0.0295558
1.91315e-05
0.0294481
1.51289e-05
0.0293522
1.16695e-05
0.0292668
8.69754e-06
0.0291908
6.14806e-06
0.0291233
3.9824e-06
0.0290631
2.15572e-06
0.0290096
6.26675e-07
0.028962
-6.11065e-07
0.0289196
-1.61725e-06
0.028882
-2.42055e-06
0.0288485
-3.0423e-06
0.0288188
-3.50652e-06
0.0287924
-3.82828e-06
0.028769
-4.02441e-06
0.0287483
-4.11336e-06
0.02873
-4.10632e-06
0.0287139
-4.01545e-06
0.0286997
-3.85258e-06
0.0286873
-3.62702e-06
0.0286765
-3.34753e-06
0.0286671
-3.02204e-06
0.028659
-2.65788e-06
0.0286522
-2.26174e-06
0.0286465
-1.83954e-06
0.0286419
-1.39702e-06
0.0286383
-9.39536e-07
0.0286356
-4.72188e-07
0.0286338
0.0286329
0.000114436
0.0252489
-7.59624e-05
0.000164678
0.033788
0.000159071
0.0355204
0.000143903
0.0353497
0.000135537
0.0347272
0.000124962
0.0341046
0.000115134
0.0335287
0.000105463
0.0330055
9.57427e-05
0.0325316
8.59537e-05
0.0321051
7.6361e-05
0.0317223
6.71511e-05
0.0313794
5.8449e-05
0.0310729
5.03464e-05
0.0307993
4.28957e-05
0.0305552
3.61171e-05
0.0303377
3.00065e-05
0.030144
2.45419e-05
0.0299715
1.96906e-05
0.0298179
1.54192e-05
0.0296812
1.16689e-05
0.0295596
8.40505e-06
0.0294513
5.58626e-06
0.029355
3.16777e-06
0.0292692
1.10651e-06
0.0291929
-6.00693e-07
0.029125
-2.01481e-06
0.0290645
-3.17801e-06
0.0290108
-4.1157e-06
0.0289629
-4.85433e-06
0.0289204
-5.41378e-06
0.0288825
-5.81345e-06
0.0288489
-6.07111e-06
0.028819
-6.20767e-06
0.0287925
-6.23383e-06
0.028769
-6.16363e-06
0.0287482
-6.0109e-06
0.0287299
-5.78418e-06
0.0287137
-5.49367e-06
0.0286994
-5.14794e-06
0.0286869
-4.75433e-06
0.0286761
-4.31972e-06
0.0286666
-3.85013e-06
0.0286586
-3.35122e-06
0.0286517
-2.82806e-06
0.028646
-2.2852e-06
0.0286414
-1.727e-06
0.0286377
-1.15751e-06
0.028635
-5.80579e-07
0.0286332
0.0286324
-2.80743e-05
0.0252617
1.52776e-05
2.65258e-05
0.0337334
1.74592e-05
0.0355295
2.91501e-05
0.035338
3.16681e-05
0.0347246
3.53311e-05
0.0341009
3.7669e-05
0.0335264
3.85112e-05
0.0330047
3.76634e-05
0.0325324
3.55302e-05
0.0321072
3.25083e-05
0.0317253
2.89238e-05
0.031383
2.50489e-05
0.0310768
2.10969e-05
0.0308032
1.72233e-05
0.0305591
1.35342e-05
0.0303414
1.00984e-05
0.0301474
6.95551e-06
0.0299746
4.12267e-06
0.0298207
1.60099e-06
0.0296837
-5.67183e-07
0.0295618
-2.42116e-06
0.0294532
-4.01194e-06
0.0293566
-5.34968e-06
0.0292706
-6.45437e-06
0.029194
-7.34759e-06
0.0291259
-8.04778e-06
0.0290652
-8.57035e-06
0.0290113
-8.93411e-06
0.0289633
-9.15814e-06
0.0289206
-9.25843e-06
0.0288826
-9.2458e-06
0.0288489
-9.13481e-06
0.0288189
-8.93878e-06
0.0287923
-8.66543e-06
0.0287688
-8.32578e-06
0.0287479
-7.9282e-06
0.0287295
-7.47958e-06
0.0287132
-6.98703e-06
0.0286989
-6.45637e-06
0.0286864
-5.89299e-06
0.0286755
-5.30157e-06
0.0286661
-4.68637e-06
0.028658
-4.05133e-06
0.0286511
-3.39987e-06
0.0286454
-2.73516e-06
0.0286407
-2.06015e-06
0.028637
-1.37757e-06
0.0286343
-6.90002e-07
0.0286326
0.0286317
-0.00017968
0.0253139
0.000127456
-0.000135153
0.0336889
-0.000114568
0.0355089
-9.10815e-05
0.0353145
-7.0406e-05
0.034704
-5.28981e-05
0.0340834
-3.87166e-05
0.0335122
-2.77838e-05
0.0329937
-1.99614e-05
0.0325246
-1.46076e-05
0.0321019
-1.11898e-05
0.0317219
-9.22976e-06
0.0313811
-8.31806e-06
0.0310759
-8.13498e-06
0.0308031
-8.43119e-06
0.0305594
-9.02056e-06
0.030342
-9.76457e-06
0.0301481
-1.05625e-05
0.0299754
-1.1345e-05
0.0298215
-1.2066e-05
0.0296845
-1.27005e-05
0.0295624
-1.32332e-05
0.0294537
-1.36435e-05
0.029357
-1.39353e-05
0.0292709
-1.41116e-05
0.0291942
-1.41784e-05
0.0291259
-1.41447e-05
0.0290652
-1.40148e-05
0.0290112
-1.37962e-05
0.0289631
-1.35015e-05
0.0289203
-1.31365e-05
0.0288823
-1.27077e-05
0.0288485
-1.22245e-05
0.0288184
-1.16924e-05
0.0287918
-1.11173e-05
0.0287682
-1.05053e-05
0.0287473
-9.86085e-06
0.0287288
-9.18851e-06
0.0287125
-8.49201e-06
0.0286982
-7.77494e-06
0.0286857
-7.04036e-06
0.0286748
-6.29084e-06
0.0286653
-5.52889e-06
0.0286572
-4.75662e-06
0.0286503
-3.97588e-06
0.0286446
-3.18841e-06
0.0286399
-2.39572e-06
0.0286363
-1.59921e-06
0.0286335
-8.00212e-07
0.0286318
0.0286309
-0.000340069
0.0254035
0.000250464
-0.00029647
0.0336453
-0.000252237
0.0354646
-0.000210533
0.0352728
-0.000171951
0.0346654
-0.000140211
0.0340517
-0.000114027
0.033486
-9.30242e-05
0.0329727
-7.6538e-05
0.0325081
-6.38286e-05
0.0320892
-5.41176e-05
0.0317122
-4.67576e-05
0.0313737
-4.12071e-05
0.0310704
-3.70246e-05
0.0307989
-3.38621e-05
0.0305562
-3.14495e-05
0.0303396
-2.958e-05
0.0301463
-2.80969e-05
0.0299739
-2.68857e-05
0.0298203
-2.5858e-05
0.0296834
-2.49526e-05
0.0295615
-2.41269e-05
0.0294529
-2.33413e-05
0.0293562
-2.25766e-05
0.0292701
-2.18153e-05
0.0291934
-2.10518e-05
0.0291252
-2.0279e-05
0.0290644
-1.94912e-05
0.0290104
-1.86875e-05
0.0289623
-1.78702e-05
0.0289195
-1.7037e-05
0.0288814
-1.61901e-05
0.0288476
-1.53315e-05
0.0288176
-1.44617e-05
0.0287909
-1.3583e-05
0.0287673
-1.26967e-05
0.0287464
-1.18041e-05
0.0287279
-1.09065e-05
0.0287116
-1.00049e-05
0.0286973
-9.10033e-06
0.0286848
-8.19353e-06
0.0286739
-7.28506e-06
0.0286644
-6.37555e-06
0.0286563
-5.46531e-06
0.0286494
-4.55466e-06
0.0286437
-3.64381e-06
0.028639
-2.73286e-06
0.0286353
-1.8219e-06
0.0286326
-9.10935e-07
0.0286309
0.02863
-0.000508234
0.0255166
0.000395164
-0.000457677
0.0335948
-0.000392697
0.0353997
-0.000328379
0.0352085
-0.00027308
0.0346101
-0.000226808
0.0340054
-0.000188698
0.0334479
-0.000157656
0.0329417
-0.000132687
0.0324831
-0.000112741
0.0320692
-9.68346e-05
0.0316963
-8.41544e-05
0.031361
-7.40188e-05
0.0310602
-6.58729e-05
0.0307907
-5.92747e-05
0.0305496
-5.38756e-05
0.0303342
-4.94038e-05
0.0301418
-4.56483e-05
0.0299702
-4.24468e-05
0.0298171
-3.96702e-05
0.0296807
-3.72277e-05
0.029559
-3.50448e-05
0.0294507
-3.30631e-05
0.0293542
-3.12393e-05
0.0292683
-2.95403e-05
0.0291917
-2.79449e-05
0.0291236
-2.64312e-05
0.0290629
-2.49844e-05
0.0290089
-2.35941e-05
0.0289609
-2.22519e-05
0.0289181
-2.09498e-05
0.0288801
-1.96833e-05
0.0288464
-1.84477e-05
0.0288164
-1.72395e-05
0.0287897
-1.6056e-05
0.0287661
-1.48944e-05
0.0287452
-1.37528e-05
0.0287268
-1.26292e-05
0.0287105
-1.15218e-05
0.0286962
-1.04291e-05
0.0286837
-9.34956e-06
0.0286728
-8.2817e-06
0.0286633
-7.22418e-06
0.0286552
-6.17562e-06
0.0286484
-5.13473e-06
0.0286426
-4.10019e-06
0.028638
-3.07072e-06
0.0286343
-2.04505e-06
0.0286316
-1.02189e-06
0.0286298
0.0286289
-0.000682532
0.0256387
0.000560417
-0.000620026
0.0335323
-0.000532268
0.0353119
-0.000445299
0.0351215
-0.000372763
0.0345375
-0.000312112
0.0339447
-0.000262177
0.033398
-0.000221261
0.0329008
-0.000187998
0.0324499
-0.000160987
0.0320422
-0.000139034
0.0316743
-0.000121155
0.0313431
-0.00010653
0.0310456
-9.44963e-05
0.0307787
-8.45207e-05
0.0305397
-7.61801e-05
0.0303258
-6.914e-05
0.0301348
-6.31361e-05
0.0299642
-5.79609e-05
0.0298119
-5.34503e-05
0.0296761
-4.94808e-05
0.0295551
-4.59493e-05
0.0294472
-4.27757e-05
0.029351
-3.98965e-05
0.0292654
-3.72629e-05
0.0291891
-3.48363e-05
0.0291211
-3.25832e-05
0.0290607
-3.04785e-05
0.0290068
-2.85014e-05
0.0289589
-2.66347e-05
0.0289163
-2.48639e-05
0.0288784
-2.31773e-05
0.0288447
-2.15648e-05
0.0288147
-2.00179e-05
0.0287882
-1.85293e-05
0.0287646
-1.70923e-05
0.0287438
-1.57015e-05
0.0287254
-1.43518e-05
0.0287092
-1.30385e-05
0.0286949
-1.17576e-05
0.0286824
-1.05053e-05
0.0286715
-9.27795e-06
0.0286621
-8.07242e-06
0.028654
-6.88556e-06
0.0286472
-5.71445e-06
0.0286415
-4.55629e-06
0.0286368
-3.40836e-06
0.0286332
-2.26805e-06
0.0286305
-1.13276e-06
0.0286287
0.0286278
-0.000860744
0.0257582
0.000741262
-0.000782507
0.033454
-0.000669243
0.0351986
-0.000560529
0.0350128
-0.000470294
0.0344473
-0.000395539
0.03387
-0.000334029
0.0333365
-0.000283518
0.0328503
-0.0002422
0.0324085
-0.00020834
0.0320084
-0.000180524
0.0316465
-0.000157596
0.0313202
-0.000138604
0.0310266
-0.000122779
0.0307629
-0.000109502
0.0305264
-9.82786e-05
0.0303146
-8.87151e-05
0.0301252
-8.04974e-05
0.0299559
-7.33765e-05
0.0298048
-6.71537e-05
0.0296699
-6.1673e-05
0.0295496
-5.68056e-05
0.0294423
-5.24496e-05
0.0293467
-4.8523e-05
0.0292615
-4.49599e-05
0.0291855
-4.17066e-05
0.0291179
-3.8718e-05
0.0290577
-3.59581e-05
0.0290041
-3.3396e-05
0.0289563
-3.10066e-05
0.0289139
-2.87683e-05
0.0288761
-2.66627e-05
0.0288426
-2.46743e-05
0.0288128
-2.27895e-05
0.0287863
-2.09963e-05
0.0287629
-1.92846e-05
0.0287421
-1.76452e-05
0.0287238
-1.60697e-05
0.0287076
-1.4551e-05
0.0286934
-1.30823e-05
0.0286809
-1.16576e-05
0.0286701
-1.02712e-05
0.0286607
-8.91805e-06
0.0286527
-7.59327e-06
0.0286458
-6.29233e-06
0.0286402
-5.0109e-06
0.0286355
-3.74489e-06
0.0286319
-2.4903e-06
0.0286292
-1.24327e-06
0.0286274
0.0286266
-0.00103951
0.0258659
0.000931818
-0.000942514
0.033357
-0.000802671
0.0350588
-0.000672578
0.0348827
-0.000564998
0.0343397
-0.000476512
0.0337815
-0.000403827
0.0332638
-0.000344099
0.0327905
-0.00029504
0.0323595
-0.000254594
0.0319679
-0.000221133
0.0316131
-0.000193334
0.0312924
-0.000170117
0.0310034
-0.000150615
0.0307434
-0.000134127
0.0305099
-0.000120092
0.0303006
-0.000108061
0.0301132
-9.7675e-05
0.0299456
-8.86442e-05
0.0297958
-8.07365e-05
0.029662
-7.37661e-05
0.0295426
-6.75801e-05
0.0294361
-6.20559e-05
0.0293412
-5.70929e-05
0.0292565
-5.26088e-05
0.029181
-4.8536e-05
0.0291138
-4.48178e-05
0.029054
-4.1407e-05
0.0290006
-3.8264e-05
0.0289532
-3.53553e-05
0.028911
-3.26521e-05
0.0288734
-3.01299e-05
0.02884
-2.77675e-05
0.0288104
-2.55464e-05
0.0287841
-2.34503e-05
0.0287608
-2.14651e-05
0.0287401
-1.95782e-05
0.0287219
-1.77782e-05
0.0287058
-1.6055e-05
0.0286917
-1.43995e-05
0.0286793
-1.28033e-05
0.0286685
-1.12587e-05
0.0286592
-9.75873e-06
0.0286512
-8.29678e-06
0.0286444
-6.86674e-06
0.0286387
-5.46278e-06
0.0286341
-4.07937e-06
0.0286305
-2.7112e-06
0.0286278
-1.35309e-06
0.0286261
0.0286252
-0.00121462
0.0259552
0.00112528
-0.00109684
0.0332392
-0.000931136
0.0348931
-0.000780262
0.0347319
-0.000656153
0.0342156
-0.000554508
0.0336798
-0.000471179
0.0331805
-0.000402701
0.0327221
-0.000346281
0.0323031
-0.000299559
0.0319212
-0.000260704
0.0315742
-0.000228236
0.03126
-0.000200958
0.0309761
-0.000177909
0.0307203
-0.000158313
0.0304903
-0.00014155
0.0302838
-0.000127119
0.0300987
-0.000114616
0.0299331
-0.000103717
0.0297849
-9.4158e-05
0.0296525
-8.57248e-05
0.0295342
-7.82423e-05
0.0294286
-7.15675e-05
0.0293345
-6.55822e-05
0.0292505
-6.01887e-05
0.0291757
-5.53063e-05
0.0291089
-5.08663e-05
0.0290495
-4.68113e-05
0.0289966
-4.30929e-05
0.0289495
-3.96695e-05
0.0289075
-3.65055e-05
0.0288703
-3.35701e-05
0.0288371
-3.08367e-05
0.0288077
-2.82819e-05
0.0287815
-2.58852e-05
0.0287584
-2.36286e-05
0.0287379
-2.14961e-05
0.0287197
-1.94732e-05
0.0287038
-1.75471e-05
0.0286897
-1.57062e-05
0.0286774
-1.39397e-05
0.0286667
-1.22381e-05
0.0286575
-1.05925e-05
0.0286495
-8.99445e-06
0.0286428
-7.43635e-06
0.0286372
-5.91085e-06
0.0286326
-4.41103e-06
0.028629
-2.93023e-06
0.0286264
-1.46199e-06
0.0286246
0.0286238
-0.00138144
0.0260228
0.00131384
-0.00124194
0.0330998
-0.00105282
0.034704
-0.0008826
0.0345616
-0.000742993
0.034076
-0.000628998
0.0335659
-0.000535711
0.0330872
-0.000459035
0.0326454
-0.000395693
0.0322397
-0.000343048
0.0318686
-0.000299084
0.0315302
-0.000262175
0.031223
-0.000231018
0.0309449
-0.000204567
0.0306939
-0.000181981
0.0304677
-0.000162583
0.0302644
-0.000145827
0.030082
-0.000131269
0.0299185
-0.00011855
0.0297722
-0.000107378
0.0296413
-9.75145e-05
0.0295243
-8.87616e-05
0.0294199
-8.09575e-05
0.0293267
-7.39673e-05
0.0292435
-6.76791e-05
0.0291694
-6.19989e-05
0.0291033
-5.68471e-05
0.0290444
-5.21565e-05
0.0289919
-4.78699e-05
0.0289452
-4.3938e-05
0.0289036
-4.03184e-05
0.0288666
-3.69744e-05
0.0288338
-3.38739e-05
0.0288046
-3.0989e-05
0.0287786
-2.82948e-05
0.0287557
-2.57696e-05
0.0287353
-2.33939e-05
0.0287174
-2.11504e-05
0.0287015
-1.90234e-05
0.0286876
-1.69989e-05
0.0286754
-1.5064e-05
0.0286648
-1.3207e-05
0.0286556
-1.14172e-05
0.0286477
-9.68453e-06
0.028641
-7.99973e-06
0.0286355
-6.35401e-06
0.028631
-4.73904e-06
0.0286274
-3.14684e-06
0.0286248
-1.56968e-06
0.028623
0.0286222
-0.00153558
0.0260685
0.00148991
-0.00137581
0.03294
-0.00116609
0.0344943
-0.000978558
0.0343741
-0.000824778
0.0339222
-0.000699494
0.0334406
-0.000597087
0.0329848
-0.00051285
0.0325611
-0.000443079
0.03217
-0.000384903
0.0318104
-0.00033614
0.0314815
-0.000295039
0.0311819
-0.000260202
0.0309101
-0.00023051
0.0306642
-0.000205062
0.0304423
-0.000183132
0.0302425
-0.000164133
0.030063
-0.000147586
0.029902
-0.000133103
0.0297577
-0.000120363
0.0296285
-0.000109105
0.0295131
-9.91114e-05
0.0294099
-9.02024e-05
0.0293178
-8.22279e-05
0.0292355
-7.50618e-05
0.0291622
-6.85981e-05
0.0290968
-6.27465e-05
0.0290385
-5.74305e-05
0.0289866
-5.25843e-05
0.0289403
-4.81513e-05
0.0288992
-4.40826e-05
0.0288626
-4.03355e-05
0.02883
-3.68729e-05
0.0288011
-3.36621e-05
0.0287754
-3.06742e-05
0.0287527
-2.78837e-05
0.0287325
-2.5268e-05
0.0287147
-2.28065e-05
0.0286991
-2.04811e-05
0.0286853
-1.82753e-05
0.0286732
-1.6174e-05
0.0286627
-1.41636e-05
0.0286536
-1.22314e-05
0.0286458
-1.03658e-05
0.0286392
-8.55586e-06
0.0286337
-6.79144e-06
0.0286292
-5.0628e-06
0.0286257
-3.36064e-06
0.0286231
-1.67597e-06
0.0286214
0.0286205
-0.00167329
0.0260953
0.00164643
-0.0014976
0.0327643
-0.00126964
0.0342663
-0.00106707
0.0341715
-0.000900806
0.033756
-0.000765532
0.0333053
-0.000654985
0.0328742
-0.000563904
0.0324701
-0.000488245
0.0320943
-0.000424966
0.0317471
-0.000371743
0.0314283
-0.00032672
0.0311369
-0.000288419
0.0308718
-0.000255657
0.0306314
-0.000227485
0.0304141
-0.000203136
0.0302181
-0.000181985
0.0300418
-0.000163524
0.0298835
-0.000147336
0.0297415
-0.000133077
0.0296143
-0.000120465
0.0295005
-0.000109265
0.0293987
-9.9279e-05
0.0293078
-9.03432e-05
0.0292266
-8.23188e-05
0.0291542
-7.50879e-05
0.0290896
-6.85504e-05
0.029032
-6.26207e-05
0.0289807
-5.72251e-05
0.0289349
-5.22997e-05
0.0288943
-4.77894e-05
0.0288581
-4.36458e-05
0.0288259
-3.98268e-05
0.0287973
-3.62952e-05
0.0287719
-3.3018e-05
0.0287494
-2.99663e-05
0.0287295
-2.7114e-05
0.0287119
-2.44379e-05
0.0286964
-2.1917e-05
0.0286828
-1.95325e-05
0.0286708
-1.72673e-05
0.0286604
-1.51057e-05
0.0286514
-1.30332e-05
0.0286437
-1.10366e-05
0.0286372
-9.10353e-06
0.0286317
-7.2222e-06
0.0286273
-5.38161e-06
0.0286238
-3.57118e-06
0.0286213
-1.78064e-06
0.0286196
0.0286187
-0.00179173
0.0261087
0.00177831
-0.0016047
0.0325773
-0.00136256
0.0340242
-0.00114732
0.0339563
-0.000970517
0.0335792
-0.000826763
0.0331615
-0.000709156
0.0327566
-0.000612001
0.0323729
-0.000531042
0.0320133
-0.000463118
0.0316792
-0.000405795
0.0313709
-0.000357134
0.0310883
-0.000315595
0.0308303
-0.000279946
0.0305958
-0.000249198
0.0303833
-0.000222548
0.0301915
-0.000199342
0.0300186
-0.000179045
0.0298632
-0.000161217
0.0297237
-0.000145493
0.0295986
-0.000131572
0.0294865
-0.000119201
0.0293863
-0.000108168
0.0292967
-9.82969e-05
0.0292167
-8.94354e-05
0.0291453
-8.14556e-05
0.0290816
-7.42477e-05
0.0290248
-6.77175e-05
0.0289741
-6.17837e-05
0.028929
-5.63757e-05
0.0288888
-5.14323e-05
0.0288531
-4.68996e-05
0.0288213
-4.27307e-05
0.0287931
-3.88839e-05
0.0287681
-3.53226e-05
0.0287458
-3.20141e-05
0.0287262
-2.89292e-05
0.0287088
-2.6042e-05
0.0286935
-2.33289e-05
0.02868
-2.07688e-05
0.0286683
-1.83424e-05
0.028658
-1.6032e-05
0.0286491
-1.38216e-05
0.0286415
-1.16963e-05
0.0286351
-9.642e-06
0.0286297
-7.64572e-06
0.0286253
-5.69507e-06