/*--------------------------------*- C++ -*----------------------------------*\
  =========                 |
  \\      /  F ield         | OpenFOAM: The Open Source CFD Toolbox
   \\    /   O peration     | Website:  https://openfoam.org
    \\  /    A nd           | Version:  7
     \\/     M anipulation  |
\*---------------------------------------------------------------------------*/
FoamFile
{
    version     2.0;
    format      ascii;
    class       volScalarField;
    location    "20";
    object      p;
}
// * * * * * * * * * * * * * * * * * * * * * * * * * * * * * * * * * * * * * //

dimensions      [0 2 -2 0 0 0 0];

internalField   nonuniform List<scalar> 
1360
(
-0.31306
0.846088
0.797006
0.846088
0.797006
0.817498
0.769879
0.761615
0.716862
0.680959
0.640367
0.612914
0.579145
0.543849
0.5213
0.508515
0.460682
0.431618
0.414682
0.40752
0.330732
0.308605
0.29771
0.296419
0.299744
0.194822
0.180084
0.175374
0.179855
0.189404
0.201091
0.212865
0.0585507
0.0513644
0.0527241
0.0625654
0.0777857
0.0955838
0.113749
0.130717
0.145572
-0.0726922
-0.072533
-0.065429
-0.0508824
-0.0308415
-0.00784236
0.015864
0.0385838
0.0592388
0.0772864
0.0925794
-0.194511
-0.186936
-0.174742
-0.156379
-0.132545
-0.105528
-0.0774434
-0.0500243
-0.0244699
-0.00147027
0.0186971
0.0360405
0.0507451
0.0630856
-0.302549
-0.288391
-0.271709
-0.250381
-0.224021
-0.194297
-0.163184
-0.13236
-0.103062
-0.0761144
-0.0519129
-0.0305672
-0.0119825
0.00405716
0.0178134
0.0295495
0.0396066
-0.394083
-0.374158
-0.353758
-0.330383
-0.302609
-0.271537
-0.238842
-0.206041
-0.174349
-0.144635
-0.117421
-0.0929355
-0.0711888
-0.0520463
-0.0352987
-0.0207135
-0.00799569
0.0033287
0.0134103
0.0201848
-0.467404
-0.442702
-0.419395
-0.394808
-0.366648
-0.335472
-0.302578
-0.269232
-0.236533
-0.205349
-0.176276
-0.149647
-0.125584
-0.104049
-0.0849053
-0.0679712
-0.0530097
-0.0396546
-0.0276601
-0.0183738
-0.521973
-0.493636
-0.46825
-0.443162
-0.415452
-0.385198
-0.353301
-0.320713
-0.288345
-0.25699
-0.22726
-0.199564
-0.174119
-0.150989
-0.130127
-0.111418
-0.0946929
-0.0796774
-0.0661594
-0.054907
-0.558366
-0.527631
-0.500987
-0.475979
-0.449326
-0.420736
-0.390745
-0.359977
-0.329097
-0.298761
-0.269535
-0.241849
-0.21599
-0.19211
-0.17025
-0.150375
-0.132388
-0.116114
-0.101365
-0.0884508
-0.578112
-0.546243
-0.51914
-0.494674
-0.469463
-0.442985
-0.415476
-0.387259
-0.358744
-0.330402
-0.302693
-0.276017
-0.250682
-0.2269
-0.204786
-0.184381
-0.165665
-0.14856
-0.132922
-0.118657
-0.583452
-0.551665
-0.524864
-0.501314
-0.477759
-0.453576
-0.4288
-0.403514
-0.377895
-0.352218
-0.326803
-0.301967
-0.277994
-0.25511
-0.233478
-0.213199
-0.194321
-0.176858
-0.160742
-0.145578
-0.577063
-0.546456
-0.520657
-0.498342
-0.476545
-0.454654
-0.432596
-0.410297
-0.387757
-0.365074
-0.342422
-0.320006
-0.298042
-0.276732
-0.256249
-0.236722
-0.218245
-0.200905
-0.18472
-0.169092
-0.561768
-0.533258
-0.509077
-0.488281
-0.468297
-0.448597
-0.429075
-0.409583
-0.390008
-0.370323
-0.350574
-0.330854
-0.311294
-0.29204
-0.273237
-0.255014
-0.237478
-0.220761
-0.204966
-0.189321
-0.540278
-0.514562
-0.492505
-0.473488
-0.455367
-0.437734
-0.420502
-0.403507
-0.386591
-0.369655
-0.352657
-0.335606
-0.318549
-0.301569
-0.284766
-0.268243
-0.252099
-0.236482
-0.221597
-0.206464
-0.514984
-0.492528
-0.472978
-0.455964
-0.43977
-0.424108
-0.408934
-0.394104
-0.379463
-0.364888
-0.350295
-0.33564
-0.32092
-0.306166
-0.291444
-0.276835
-0.262429
-0.248417
-0.235212
-0.221683
-0.487827
-0.468883
-0.452091
-0.437258
-0.423059
-0.409315
-0.39602
-0.383071
-0.370336
-0.357702
-0.345076
-0.332394
-0.319622
-0.306767
-0.293871
-0.28101
-0.268278
-0.255949
-0.24494
-0.2345
-0.460256
-0.444906
-0.430998
-0.418458
-0.406307
-0.394451
-0.382916
-0.371638
-0.36052
-0.349471
-0.33841
-0.327272
-0.316019
-0.304643
-0.293184
-0.281733
-0.270417
-0.259476
-0.250144
-0.244735
-0.433277
-0.421482
-0.410471
-0.400254
-0.390158
-0.380153
-0.370284
-0.36052
-0.350795
-0.341042
-0.331191
-0.321173
-0.310926
-0.300392
-0.289518
-0.278281
-0.266647
-0.254101
-0.239267
-0.227735
-0.407581
-0.399205
-0.391017
-0.38307
-0.374971
-0.366744
-0.358445
-0.350073
-0.341593
-0.332965
-0.32414
-0.315066
-0.30569
-0.295955
-0.28581
-0.275247
-0.264312
-0.252576
-0.238489
-0.227478
-0.383708
-0.378562
-0.373024
-0.367203
-0.360968
-0.354385
-0.347525
-0.340409
-0.333037
-0.325394
-0.31746
-0.309207
-0.300605
-0.291621
-0.282228
-0.272451
-0.262372
-0.25164
-0.239063
-0.229794
-0.362192
-0.360003
-0.356867
-0.352951
-0.348369
-0.343236
-0.337632
-0.331605
-0.325183
-0.318378
-0.311197
-0.303638
-0.295697
-0.287366
-0.278647
-0.269589
-0.260281
-0.250438
-0.23928
-0.231288
-0.34366
-0.34406
-0.342993
-0.340688
-0.33749
-0.33356
-0.32899
-0.323854
-0.318204
-0.312082
-0.305518
-0.298536
-0.291158
-0.283406
-0.275309
-0.266938
-0.258385
-0.249462
-0.23975
-0.23259
-0.32883
-0.331333
-0.331916
-0.330873
-0.328745
-0.325735
-0.321952
-0.317488
-0.312423
-0.306819
-0.300727
-0.294197
-0.287274
-0.280006
-0.272449
-0.264688
-0.256813
-0.248749
-0.240346
-0.233654
-0.318431
-0.322424
-0.324159
-0.323983
-0.322582
-0.320193
-0.316936
-0.312922
-0.308246
-0.302988
-0.297217
-0.291
-0.2844
-0.277486
-0.270331
-0.263028
-0.255668
-0.248272
-0.240855
-0.234377
-0.31306
-0.31783
-0.320158
-0.320423
-0.319389
-0.317311
-0.314318
-0.310528
-0.306046
-0.300961
-0.295353
-0.289295
-0.282865
-0.276138
-0.269199
-0.262142
-0.255061
-0.248031
-0.241142
-0.234736
0.0224138
0.0239117
0.0242708
0.0253075
0.0265175
0.0277273
0.0289183
0.0300642
0.031128
0.0320907
0.0329465
0.0336943
0.034336
0.0348743
0.0353123
0.0356528
0.035899
0.0360494
0.0360928
0.0360696
-0.0116316
-0.00543171
-0.000904678
0.00338465
0.00717313
0.0104135
0.0132582
0.0157951
0.0180063
0.019922
0.0215744
0.0229894
0.0241886
0.0251904
0.0260098
0.026659
0.027148
0.0274818
0.0276531
0.0276918
-0.0439944
-0.0331719
-0.0248576
-0.0176657
-0.0115105
-0.00645746
-0.00209407
0.00179782
0.00510145
0.00792719
0.0103433
0.0123995
0.0141365
0.0155872
0.0167781
0.0177299
0.0184595
0.0189783
0.0192845
0.0193941
-0.0740388
-0.0593029
-0.0475802
-0.037808
-0.0295767
-0.0226183
-0.0167005
-0.0116652
-0.00738703
-0.00373231
-0.000610908
0.0020442
0.0042879
0.00616486
0.00771085
0.00895426
0.00991771
0.0106176
0.0110588
0.0112517
-0.1012
-0.0833545
-0.0688051
-0.056738
-0.046637
-0.038102
-0.030866
-0.0247327
-0.0195155
-0.0150623
-0.0112635
-0.00803382
-0.00530367
-0.00301701
-0.00112898
0.000395975
0.00158613
0.00246313
0.00303724
0.00330751
-0.125649
-0.105306
-0.0884772
-0.0744787
-0.0627404
-0.0528209
-0.0444101
-0.0372598
-0.0311626
-0.0259566
-0.0215171
-0.0177428
-0.014551
-0.0118751
-0.00966202
-0.00786944
-0.0064639
-0.00541858
-0.00471764
-0.00437392
-0.147161
-0.125027
-0.1066
-0.0910545
-0.0778606
-0.0666804
-0.0572042
-0.0491306
-0.0422283
-0.036328
-0.0312932
-0.0270098
-0.0233845
-0.0203426
-0.0178238
-0.0157799
-0.014173
-0.0129716
-0.0121539
-0.0117412
-0.16556
-0.142646
-0.123565
-0.106798
-0.0922093
-0.0798317
-0.0693462
-0.0603826
-0.0527047
-0.0461428
-0.0405448
-0.0357815
-0.0317493
-0.028365
-0.0255614
-0.0232848
-0.0214929
-0.0201505
-0.0192297
-0.0187561
-0.180573
-0.158073
-0.139112
-0.121157
-0.105281
-0.0919562
-0.0806474
-0.0709066
-0.0625361
-0.0553735
-0.0492538
-0.0440402
-0.0396244
-0.0359176
-0.0328469
-0.0303539
-0.0283924
-0.0269238
-0.0259151
-0.0253905
-0.193624
-0.173655
-0.155188
-0.135616
-0.118301
-0.103867
-0.0915051
-0.0808433
-0.0717336
-0.0639688
-0.0573454
-0.0517092
-0.0469402
-0.0429399
-0.0396287
-0.0369432
-0.0348337
-0.0332589
-0.0321816
-0.0316194
-0.20451
-0.18703
-0.167394
-0.146681
-0.129173
-0.114374
-0.101387
-0.0901009
-0.0804135
-0.0721078
-0.0649975
-0.05894
-0.0538141
-0.049517
-0.0459642
-0.0430879
-0.0408349
-0.0391616
-0.0380274
-0.0374377
-0.228938
-0.210869
-0.186341
-0.162643
-0.142718
-0.125639
-0.111
-0.0986433
-0.0882042
-0.0793315
-0.0717805
-0.0653702
-0.0599567
-0.0554262
-0.0516877
-0.0486687
-0.0463127
-0.0445748
-0.0434136
-0.0428197
-0.221512
-0.209252
-0.190508
-0.171064
-0.152663
-0.135676
-0.120582
-0.107489
-0.0962234
-0.0865697
-0.0783291
-0.0713248
-0.0654077
-0.0604562
-0.0563724
-0.0530772
-0.0505089
-0.0486211
-0.0473722
-0.046737
-0.221444
-0.208361
-0.191136
-0.173406
-0.15598
-0.139541
-0.124692
-0.111606
-0.100219
-0.0903947
-0.0819711
-0.0747892
-0.068709
-0.0636133
-0.0594057
-0.0560076
-0.0533573
-0.0514085
-0.0501221
-0.0494708
-0.22097
-0.206032
-0.188734
-0.171734
-0.155204
-0.139659
-0.125543
-0.112997
-0.101995
-0.0924383
-0.0841973
-0.0771388
-0.0711418
-0.0661016
-0.0619305
-0.0585562
-0.0559208
-0.0539809
-0.0527017
-0.052059
-0.218206
-0.202496
-0.185683
-0.169434
-0.153763
-0.13908
-0.12571
-0.113758
-0.103211
-0.0939938
-0.0860027
-0.079127
-0.0732634
-0.0683205
-0.0642198
-0.0608962
-0.0582967
-0.056381
-0.0551179
-0.0544864
-0.213909
-0.198481
-0.182741
-0.167421
-0.152597
-0.138688
-0.125967
-0.114532
-0.104385
-0.0954702
-0.0877041
-0.0809948
-0.0752536
-0.0704002
-0.0663646
-0.0630878
-0.0605213
-0.058628
-0.0573794
-0.0567566
-0.208982
-0.194309
-0.179762
-0.165403
-0.151415
-0.138239
-0.126124
-0.115174
-0.105406
-0.0967825
-0.0892371
-0.0826938
-0.0770769
-0.0723158
-0.0683483
-0.0651211
-0.0625902
-0.0607212
-0.0594881
-0.0588739
-0.203814
-0.190021
-0.176594
-0.163154
-0.149984
-0.137525
-0.12601
-0.115547
-0.106167
-0.0978471
-0.0905373
-0.0841755
-0.0786972
-0.0740416
-0.0701534
-0.0669853
-0.0644973
-0.0626582
-0.0614441
-0.0608399
-0.198513
-0.18563
-0.173241
-0.160677
-0.148303
-0.136546
-0.125625
-0.115652
-0.106669
-0.0986661
-0.0916069
-0.0854415
-0.0801162
-0.0755788
-0.0717812
-0.0686813
-0.0662436
-0.0644399
-0.0632485
-0.0626557
-0.193146
-0.181173
-0.169759
-0.158036
-0.146433
-0.135357
-0.125017
-0.11553
-0.106947
-0.0992676
-0.0924681
-0.0865092
-0.0813471
-0.0769375
-0.073239
-0.0702148
-0.0678333
-0.0660692
-0.0649034
-0.0643233
-0.187773
-0.176689
-0.166182
-0.155275
-0.144412
-0.133993
-0.124219
-0.115211
-0.107025
-0.0996719
-0.0931374
-0.087392
-0.0824005
-0.0781261
-0.0745334
-0.0715906
-0.0692701
-0.0675495
-0.0664115
-0.0658454
-0.182442
-0.172207
-0.162541
-0.15241
-0.142257
-0.132472
-0.12325
-0.114711
-0.106919
-0.0998924
-0.0936261
-0.0880993
-0.0832842
-0.0791509
-0.0756697
-0.0728134
-0.070558
-0.068884
-0.067776
-0.0672247
-0.177176
-0.167744
-0.158856
-0.149455
-0.13999
-0.130812
-0.122124
-0.114045
-0.106641
-0.0999409
-0.0939447
-0.0886399
-0.0840057
-0.0800184
-0.0766533
-0.0738877
-0.071701
-0.0700763
-0.0690003
-0.0684647
-0.171992
-0.163311
-0.155143
-0.146433
-0.137623
-0.129026
-0.120859
-0.113227
-0.106207
-0.0998295
-0.0941037
-0.089023
-0.084573
-0.0807352
-0.0774901
-0.0748186
-0.0727036
-0.0711305
-0.070088
-0.0695689
-0.166898
-0.158918
-0.151418
-0.143361
-0.135166
-0.127141
-0.119469
-0.112273
-0.105628
-0.0995703
-0.0941138
-0.089258
-0.084994
-0.0813085
-0.078186
-0.0756114
-0.0735703
-0.0720508
-0.0710431
-0.0705411
-0.1619
-0.154575
-0.147694
-0.140253
-0.132645
-0.12516
-0.117969
-0.111196
-0.104918
-0.0991747
-0.0939851
-0.0893538
-0.0852768
-0.081745
-0.0787472
-0.0762714
-0.0743062
-0.0728417
-0.0718697
-0.0713854
-0.157002
-0.150288
-0.143982
-0.137121
-0.13007
-0.123099
-0.116372
-0.110009
-0.104088
-0.0986535
-0.0937275
-0.0893192
-0.0854289
-0.0820517
-0.0791797
-0.0768041
-0.074916
-0.0735077
-0.0725723
-0.0721061
-0.152206
-0.146063
-0.140292
-0.133976
-0.127453
-0.120972
-0.11469
-0.108723
-0.10315
-0.098017
-0.0933503
-0.0891627
-0.0854582
-0.0822353
-0.0794897
-0.0772151
-0.0754051
-0.0740536
-0.0731554
-0.0727075
-0.147514
-0.141903
-0.13663
-0.130827
-0.124805
-0.118791
-0.112934
-0.107349
-0.102114
-0.0972749
-0.0928625
-0.0888924
-0.0853719
-0.0823027
-0.0796833
-0.07751
-0.0757784
-0.0744843
-0.0736236
-0.0731943
-0.142927
-0.137813
-0.133005
-0.127684
-0.122134
-0.116564
-0.111115
-0.105898
-0.100989
-0.0964364
-0.0922727
-0.0885162
-0.0851774
-0.0822605
-0.0797666
-0.0776943
-0.0760412
-0.0748046
-0.0739817
-0.073571
-0.138447
-0.133796
-0.129422
-0.124554
-0.11945
-0.114302
-0.109243
-0.104379
-0.0997847
-0.0955103
-0.091589
-0.0880418
-0.0848816
-0.082115
-0.0797455
-0.0777737
-0.0761988
-0.0750196
-0.0742343
-0.0738423
-0.134073
-0.129856
-0.125886
-0.121444
-0.116761
-0.112014
-0.107326
-0.102801
-0.0985101
-0.0945047
-0.0908192
-0.0874765
-0.0844913
-0.0818727
-0.079626
-0.0777536
-0.0762563
-0.0751342
-0.0743864
-0.074013
-0.129806
-0.125994
-0.122403
-0.118359
-0.114073
-0.109706
-0.105373
-0.101172
-0.0971729
-0.0934275
-0.0899707
-0.0868271
-0.0840132
-0.0815397
-0.0794138
-0.0776394
-0.0762189
-0.0751533
-0.0744427
-0.0740877
-0.125647
-0.122213
-0.118975
-0.115306
-0.111394
-0.107386
-0.10339
-0.0994988
-0.0957806
-0.0922859
-0.0890506
-0.0861005
-0.0834535
-0.081122
-0.0791146
-0.0774366
-0.0760917
-0.0750819
-0.0744081
-0.0740713
-0.121596
-0.118515
-0.115606
-0.112288
-0.108728
-0.10506
-0.101385
-0.0977895
-0.0943402
-0.0910867
-0.0880655
-0.0853029
-0.0828183
-0.0806253
-0.251492
-0.247586
-0.236914
-0.229082
-0.22239
-0.215608
-0.208945
-0.202553
-0.196383
-0.190395
-0.184577
-0.178921
-0.173416
-0.168053
-0.162825
-0.157727
-0.152756
-0.147908
-0.143182
-0.138576
-0.134089
-0.129719
-0.125467
-0.252728
-0.250456
-0.23847
-0.229433
-0.222387
-0.215406
-0.208438
-0.201733
-0.195293
-0.189063
-0.183021
-0.177157
-0.171463
-0.165927
-0.160543
-0.155306
-0.150211
-0.145256
-0.140436
-0.135752
-0.1312
-0.126779
-0.25042
-0.247283
-0.23567
-0.226461
-0.219224
-0.212261
-0.205351
-0.198677
-0.192265
-0.186066
-0.18005
-0.174207
-0.168527
-0.163003
-0.157629
-0.1524
-0.147315
-0.14237
-0.137564
-0.132895
-0.128362
-0.245499
-0.241304
-0.230964
-0.222425
-0.215394
-0.208657
-0.201999
-0.195523
-0.189253
-0.183162
-0.177229
-0.171447
-0.165813
-0.160324
-0.154978
-0.149774
-0.14471
-0.139787
-0.135004
-0.130359
-0.239951
-0.234843
-0.225924
-0.218215
-0.211479
-0.204975
-0.198562
-0.192291
-0.186179
-0.180213
-0.174384
-0.168689
-0.163129
-0.157704
-0.152416
-0.147264
-0.14225
-0.137374
-0.132637
-0.128038
-0.234979
-0.229263
-0.221576
-0.214577
-0.208114
-0.201808
-0.195591
-0.189488
-0.183511
-0.177656
-0.171922
-0.166312
-0.160828
-0.155471
-0.150246
-0.145153
-0.140195
-0.135372
-0.130686
-0.231305
-0.225286
-0.218471
-0.211954
-0.205683
-0.199513
-0.193426
-0.187436
-0.181551
-0.175776
-0.170113
-0.164567
-0.159141
-0.15384
-0.148666
-0.143622
-0.13871
-0.133932
-0.129289
-0.229368
-0.22324
-0.216871
-0.21059
-0.204412
-0.198312
-0.192288
-0.186353
-0.180515
-0.17478
-0.169154
-0.163642
-0.158248
-0.152977
-0.147832
-0.142815
-0.13793
-0.133177
-0.128558
)
;

boundaryField
{
    inlet
    {
        type            zeroGradient;
    }
    outlet
    {
        type            fixedValue;
        value           nonuniform 0();
    }
    cylinder
    {
        type            zeroGradient;
    }
    top
    {
        type            symmetryPlane;
    }
    bottom
    {
        type            symmetryPlane;
    }
    defaultFaces
    {
        type            empty;
    }
    procBoundary1to0
    {
        type            processor;
        value           nonuniform List<scalar> 
50
(
0.76145
0.735738
0.685474
0.685474
0.595109
0.595109
0.499285
0.40445
0.40445
0.304764
0.304764
0.309665
0.223358
0.223358
0.231843
0.157927
0.157927
0.167753
0.105225
0.105225
0.115473
0.123626
0.0733541
0.0733541
0.0818283
0.0888832
0.0485465
0.0485465
0.0564315
0.0604575
0.0577838
0.0542178
0.0501999
0.0478461
0.0463778
0.0454442
0.0448857
0.0445776
0.0444314
0.044386
0.0444004
0.0444467
0.0445052
0.0445623
0.0446077
0.0446343
0.0446371
0.0446082
0.0445345
0.0444616
)
;
    }
    procBoundary1to2
    {
        type            processor;
        value           nonuniform List<scalar> 
34
(
-0.0787338
-0.0771504
-0.0758798
-0.0749248
-0.0742872
-0.0739684
-0.117653
-0.121332
-0.1149
-0.112299
-0.109309
-0.106081
-0.102735
-0.0993636
-0.0960501
-0.0928582
-0.0898365
-0.0870216
-0.0844405
-0.0821135
-0.0787338
-0.0800553
-0.121332
-0.122488
-0.122488
-0.123964
-0.123964
-0.125853
-0.125853
-0.123577
-0.126137
-0.126137
-0.124781
-0.124074
)
;
    }
    procBoundary1to4
    {
        type            processor;
        value           uniform 0.76145;
    }
    procBoundary1to5
    {
        type            processor;
        value           nonuniform List<scalar> 
42
(
-0.31783
-0.318431
-0.31783
-0.320158
-0.320423
-0.319389
-0.317311
-0.314318
-0.310528
-0.306046
-0.300961
-0.295353
-0.289295
-0.282865
-0.276138
-0.269199
-0.262142
-0.255061
-0.248031
-0.241142
-0.234736
0.817498
0.769879
-0.229368
-0.22324
-0.216871
-0.21059
-0.204412
-0.198312
-0.192288
-0.186353
-0.180515
-0.17478
-0.169154
-0.163642
-0.158248
-0.152977
-0.147832
-0.142815
-0.13793
-0.133177
-0.128558
)
;
    }
}


// ************************************************************************* //
