/*--------------------------------*- C++ -*----------------------------------*\
  =========                 |
  \\      /  F ield         | OpenFOAM: The Open Source CFD Toolbox
   \\    /   O peration     | Website:  https://openfoam.org
    \\  /    A nd           | Version:  7
     \\/     M anipulation  |
\*---------------------------------------------------------------------------*/
FoamFile
{
    version     2.0;
    format      ascii;
    class       surfaceScalarField;
    location    "20";
    object      phi;
}
// * * * * * * * * * * * * * * * * * * * * * * * * * * * * * * * * * * * * * //

dimensions      [0 3 -1 0 0 0 0];

internalField   nonuniform List<scalar> 
2622
(
-7.41781e-13
-9.64456e-05
-1.83072e-13
-8.17719e-13
-9.64456e-05
9.64456e-05
0.000243339
-9.37306e-05
0.000190176
0.000480599
-8.83851e-05
0.000278561
0.00070585
-8.05777e-05
0.000359139
-0.00028818
0.000913453
0.00135259
-7.05584e-05
0.000429697
-0.000255318
0.00109821
-0.000535662
0.00163293
0.00205155
-5.86561e-05
0.000488354
-0.000215976
0.00125553
-0.000459402
0.00187636
0.00236875
-4.52732e-05
0.000533627
-0.000171309
0.00138157
-0.000372113
0.00207716
-0.00064064
0.00263728
0.00307905
-3.0877e-05
0.000564504
-0.000122701
0.00147339
-0.000276177
0.00223064
-0.000489852
0.00285095
-0.000760011
0.00334921
-0.00108113
0.00374241
0.00404917
-1.59705e-05
0.000580474
-7.17426e-05
0.00152916
-0.000174401
0.00233329
-0.000328129
0.00300468
-0.000533849
0.00355493
-0.000789546
0.00399811
-0.001091
0.00435062
-0.0014327
0.00463009
0.004854
-1.32342e-06
0.000581798
-2.02619e-05
0.0015481
-7.00358e-05
0.00238307
-0.00016013
0.00309477
-0.000296084
0.00369088
-0.000479741
0.00418177
-0.000709702
0.00458059
-0.000982245
0.00490263
-0.00129232
0.00516407
-0.00163446
0.0053806
0.0055664
1.29733e-05
0.000568824
2.99642e-05
0.00153111
3.33514e-05
0.00237968
8.93893e-06
0.00311919
-5.34561e-05
0.00375328
-0.000159555
0.00428787
-0.000311188
0.00473222
-0.00050697
0.00509842
-0.000743246
0.00540034
-0.00101514
0.00565248
-0.00131741
0.00586868
-0.00164521
0.00606126
-0.00199444
0.00624049
0.00641442
2.5783e-05
0.000543041
7.68123e-05
0.00148008
0.000131844
0.00232465
0.000172955
0.00307808
0.000186153
0.00374008
0.000161715
0.0043123
9.4309e-05
0.00479962
-1.74967e-05
0.00521022
-0.000172059
0.00555491
-0.00036559
0.00584602
-0.000593215
0.0060963
-0.000849807
0.00631785
-0.00113063
0.00652131
-0.00143169
0.00671548
-0.00174991
0.00690722
-0.00208302
0.0071015
0.00730163
3.69042e-05
0.000506137
0.000118527
0.00139846
0.000221697
0.00222148
0.000326008
0.00297377
0.000414333
0.00365176
0.000473491
0.00425315
0.00049461
0.0047785
0.000473045
0.00523179
0.000407874
0.00562008
0.00030107
0.00595282
0.000156563
0.00624081
-2.07197e-05
0.00649513
-0.000225656
0.00672624
-0.00045351
0.00694334
-0.000700263
0.00715397
-0.000962731
0.00736396
-0.00123852
0.00757742
-0.00152596
0.00779689
-0.00182384
0.00802328
0.00825667
-0.00213137
4.58446e-05
0.000460293
0.000153418
0.00129089
0.000299221
0.00207568
0.000461788
0.0028112
0.000622042
0.0034915
0.000764062
0.00411113
0.000875734
0.00466683
0.000949056
0.00515847
0.000980029
0.0055891
0.000968154
0.00596469
0.000915662
0.0062933
0.000826605
0.00658419
0.000705969
0.00684688
0.000558915
0.00709039
0.000390235
0.00732265
0.000204021
0.00755018
3.52879e-06
0.00777792
-0.000208825
0.00800925
-0.00043157
0.00824602
0.00848903
-0.000663929
5.22994e-05
0.000407993
0.000180153
0.00116303
0.000361251
0.00189458
0.000574554
0.0025979
0.00080039
0.00326567
0.00102118
0.00389034
0.00122224
0.00446577
0.00139245
0.00498826
0.0015245
0.00545705
0.00161485
0.00587434
0.00166324
0.00624491
0.00167201
0.00657542
0.00164523
0.00687365
0.00158792
0.0071477
0.00150529
0.00740529
0.00140221
0.00765326
0.00128288
0.00789725
0.00115063
0.00814149
0.00100798
0.00838867
0.00864015
0.000856852
5.61265e-05
0.000351867
0.000197891
0.00102127
0.000405452
0.00168702
0.000659571
0.00234378
0.000941394
0.00298384
0.001233
0.00359873
0.00151824
0.00418054
0.00178351
0.00472299
0.00201842
0.00522214
0.0022161
0.00567666
0.00237318
0.00608784
0.00248937
0.00645923
0.00256691
0.00679611
0.00260976
0.00710484
0.00262289
0.00739216
0.0026115
0.00766464
0.00258059
0.00792817
0.0025345
0.00818758
0.00247685
0.00844632
0.00870623
0.00241077
5.73601e-05
0.000294507
0.000206381
0.000872247
0.000430613
0.00146278
0.000713708
0.00206068
0.00103892
0.00265863
0.00138941
0.00324824
0.00174887
0.00382108
0.00210238
0.00436948
0.00243719
0.00488733
0.00274336
0.00537049
0.00301412
0.00581708
0.00324592
0.00622744
0.00343815
0.00660388
0.00359267
0.00695032
0.00371312
0.00727171
0.00380425
0.00757352
0.00387122
0.0078612
0.00391911
0.00813968
0.00395259
0.00841285
0.00868283
0.00397598
5.62105e-05
0.000238296
0.000206014
0.000722443
0.00043684
0.00123196
0.00073592
0.0017616
0.00108961
0.00230493
0.00148339
0.00285447
0.00190225
0.00340221
0.00233138
0.00394035
0.00275691
0.0044618
0.00316671
0.00496069
0.003551
0.00543279
0.00390278
0.00587566
0.00421798
0.00628868
0.00449531
0.00667299
0.00473592
0.0070311
0.00494285
0.00736659
0.00512042
0.00768363
0.00527365
0.00798645
0.0054078
0.0082787
0.00856224
0.00552839
5.30402e-05
0.000185256
0.000197785
0.000577699
0.000425589
0.00100416
0.000727504
0.00145969
0.00109353
0.00193891
0.00151236
0.00243563
0.00197154
0.00294303
0.00245783
0.00345406
0.00295781
0.00396182
0.00345857
0.00445993
0.00394844
0.00494292
0.00441762
0.00540648
0.00485858
0.00584772
0.00526641
0.00626516
0.00563875
0.00665876
0.00597563
0.00702971
0.00627911
0.00738015
0.00655278
0.00771279
0.00680136
0.00803013
0.00833286
0.00703074
4.83197e-05
0.000136936
0.000183167
0.000442852
0.0003995
0.000787823
0.000691994
0.00116719
0.00105434
0.00157656
0.00147888
0.00201109
0.0019565
0.00246542
0.00247673
0.00293383
0.00302812
0.00341043
0.00359869
0.00388937
0.00417651
0.00436509
0.00475037
0.00483262
0.00531035
0.00528774
0.00584827
0.00572724
0.00635808
0.00614895
0.00683599
0.0065518
0.00728044
0.0069357
0.00769193
0.0073013
0.00807271
0.00764934
0.00797846
0.00842711
4.25654e-05
9.43708e-05
0.000163913
0.000321505
0.000362018
0.000589717
0.00063466
0.000894548
0.000978859
0.00123236
0.00139048
0.00159947
0.00186399
0.00199191
0.00239239
0.00240543
0.00296727
0.00283555
0.00357905
0.00327758
0.00421736
0.00372678
0.00487146
0.00417852
0.00553076
0.00462844
0.00618533
0.00507266
0.00682638
0.0055079
0.00744659
0.00593159
0.00804035
0.00634194
0.0086038
0.00673784
0.00913478
0.00711837
0.00747991
0.00963333
3.62689e-05
5.81019e-05
0.0001418
0.000215974
0.000316875
0.000414642
0.000561674
0.000649749
0.000875893
0.000918146
0.0012584
0.00121696
0.00170696
0.00154335
0.00221805
0.00189434
0.00278677
0.00226683
0.00340686
0.00265749
0.00407084
0.00306281
0.0047702
0.00347916
0.00549576
0.00390288
0.00623802
0.0043304
0.00698754
0.00475838
0.00773527
0.00518386
0.00847289
0.00560433
0.00919272
0.00601801
0.00988695
0.00642413
0.00682021
0.0105467
2.98316e-05
2.82703e-05
0.000118381
0.000127424
0.000267531
0.000265492
0.000479133
0.000438147
0.000754794
0.000642485
0.00109563
0.000876129
0.00150203
0.00113695
0.00197344
0.00142293
0.00250824
0.00173203
0.00310361
0.00206212
0.00375552
0.0024109
0.00445878
0.0027759
0.00520716
0.00315449
0.00599363
0.00354393
0.00681055
0.00394146
0.00765001
0.00434439
0.00850414
0.00475019
0.00936552
0.00515664
0.0102262
0.0055634
0.0059761
0.0110704
2.35223e-05
4.74796e-06
9.48116e-05
5.61347e-05
0.000216752
0.000143552
0.000392229
0.00026267
0.000624048
0.000410666
0.000914778
0.000585399
0.00126659
0.000785138
0.00168109
0.00100842
0.00215919
0.00125393
0.00270096
0.00152035
0.00330556
0.0018063
0.00397121
0.00211025
0.00469521
0.00243049
0.00547411
0.00276504
0.00630391
0.00311166
0.00718054
0.00346777
0.00810049
0.00383024
0.00906277
0.00419435
0.0100742
0.00455193
0.0048974
0.0111529
1.74753e-05
-1.27273e-05
7.17981e-05
1.81192e-06
0.000166439
4.8911e-05
0.000304838
0.000124271
0.000490424
0.00022508
0.000726535
0.000349288
0.00101633
0.000495347
0.00136266
0.000662085
0.00176802
0.000848574
0.00223436
0.00105401
0.00276302
0.00127764
0.00335466
0.00151862
0.00400915
0.001776
0.00472553
0.00204865
0.00550206
0.00233513
0.00633624
0.00263359
0.00722505
0.00294143
0.00816516
0.00325424
0.0091538
0.00356329
0.00384678
0.0102044
1.17178e-05
-2.44451e-05
4.97289e-05
-3.61992e-05
0.000117807
-1.91674e-05
0.000219675
2.24028e-05
0.000359006
8.57497e-05
0.00053942
0.000168874
0.000764455
0.000270313
0.00103751
0.000389028
0.0013618
0.000524288
0.00174025
0.000675561
0.00217546
0.000842424
0.00266959
0.00102448
0.00322431
0.00122129
0.0038407
0.00143226
0.00451931
0.00165652
0.0052602
0.0018927
0.0060633
0.00213834
0.00692893
0.00238861
0.00785927
0.00263295
0.00284511
0.00886095
6.27124e-06
-3.07163e-05
2.88348e-05
-5.87628e-05
7.17317e-05
-6.20643e-05
0.000138801
-4.46663e-05
0.000233754
-9.20391e-06
0.000360216
4.24123e-05
0.000521725
0.000108803
0.000721745
0.000189008
0.000963643
0.00028239
0.00125067
0.000388539
0.0015859
0.000507187
0.00197225
0.000638133
0.00241239
0.000781155
0.00290876
0.000935893
0.0034636
0.00110168
0.00407907
0.00127722
0.00475742
0.00145999
0.00550105
0.00164498
0.00631208
0.00182192
0.00196784
0.00718934
1.18771e-06
-3.1904e-05
9.48707e-06
-6.70621e-05
2.92171e-05
-8.17943e-05
6.43057e-05
-7.97549e-05
0.000118426
-6.33242e-05
0.000195065
-3.42272e-05
0.000297581
6.28727e-06
0.000429241
5.73482e-05
0.000593238
0.000118394
0.000792709
0.000189068
0.00103074
0.00026916
0.00131035
0.000358519
0.00163454
0.000456968
0.00200625
0.000564178
0.00242846
0.00067947
0.00290419
0.000801495
0.00343646
0.000927711
0.00402794
0.0010535
0.00467962
0.00117024
0.00126086
0.0053866
-3.37958e-06
-2.85245e-05
-7.70243e-06
-6.27393e-05
-8.3197e-06
-8.1177e-05
-1.2006e-06
-8.6874e-05
1.72774e-05
-8.18023e-05
5.04425e-05
-6.73922e-05
0.000101414
-4.46838e-05
0.000173161
-1.43994e-05
0.000268573
2.29814e-05
0.000390483
6.71582e-05
0.000541702
0.000117941
0.000725037
0.000175183
0.000943313
0.000238692
0.00119938
0.000308112
0.0014961
0.000382747
0.0018363
0.000461295
0.00222252
0.00054149
0.00265643
0.000619593
0.00313746
0.000689216
0.000739026
0.00365929
-7.18559e-06
-2.13389e-05
-2.18668e-05
-4.80581e-05
-3.90436e-05
-6.40003e-05
-5.45649e-05
-7.13527e-05
-6.48367e-05
-7.15305e-05
-6.66689e-05
-6.556e-05
-5.71628e-05
-5.41898e-05
-3.36197e-05
-3.79426e-05
6.53e-06
-1.71683e-05
6.57818e-05
7.90636e-06
0.000146599
3.7124e-05
0.000251427
7.03553e-05
0.000382702
0.000107417
0.00054283
0.000147985
0.00073411
0.000191467
0.000958583
0.000236822
0.0012177
0.000282369
0.00151176
0.000325538
0.00183875
0.000362225
0.000385736
0.00219204
-9.94277e-06
-1.13961e-05
-3.20344e-05
-2.59665e-05
-6.09735e-05
-3.50611e-05
-9.24989e-05
-3.98274e-05
-0.000123024
-4.10056e-05
-0.000149451
-3.91326e-05
-0.000169041
-3.46003e-05
-0.0001793
-2.76836e-05
-0.0001779
-1.85684e-05
-0.000162615
-7.37784e-06
-0.000131291
5.79954e-06
-8.1817e-05
2.08813e-05
-1.21564e-05
3.7756e-05
7.96005e-05
5.62282e-05
0.000195113
7.59542e-05
0.000335577
9.63578e-05
0.000501397
0.000116549
0.000691699
0.000135236
0.000903494
0.00015043
0.000159056
0.00113017
-1.13961e-05
-3.73626e-05
-7.24237e-05
-0.000112251
-0.000153257
-0.000192389
-0.000226989
-0.000254673
-0.000273241
-0.000280619
-0.00027482
-0.000253939
-0.000216182
-0.000159954
-8.40002e-05
1.23576e-05
0.000128907
0.000264142
0.000414573
0.000573629
-0.00225307
0.0148501
-0.0023111
0.0148104
-0.00232059
0.0147771
-0.00229244
0.0147471
-0.00223475
0.0147153
-0.00215373
0.0146808
-0.00205381
0.0146441
-0.00193831
0.0146062
-0.00181008
0.0145683
-0.00167144
0.0145314
-0.00152427
0.0144963
-0.0013701
0.0144635
-0.00121018
0.0144337
-0.00104556
0.0144071
-0.000877112
0.0143842
-0.000705571
0.0143652
-0.000531573
0.0143503
-0.000355654
0.0143396
-0.000178286
0.0143331
0.0143307
-0.000850171
0.0150364
-0.000976524
0.0149367
-0.00105609
0.0148567
-0.00109938
0.0147904
-0.00111415
0.0147301
-0.00110715
0.0146738
-0.00108232
0.0146193
-0.00104215
0.014566
-0.000989535
0.0145156
-0.000926601
0.0144684
-0.000855081
0.0144247
-0.000776402
0.0143848
-0.00069175
0.014349
-0.000602121
0.0143175
-0.000508358
0.0142905
-0.000411185
0.014268
-0.00031123
0.0142503
-0.000209037
0.0142374
-0.000105098
0.0142291
0.0142256
0.000609624
0.0152836
0.000409323
0.015137
0.000252733
0.0150133
0.000131524
0.0149116
3.79075e-05
0.0148237
-3.1565e-05
0.0147433
-8.18936e-05
0.0146696
-0.00011836
0.0146025
-0.000143019
0.0145403
-0.000157681
0.0144831
-0.00016386
0.0144309
-0.000162827
0.0143838
-0.000155671
0.0143419
-0.000143328
0.0143052
-0.000126611
0.0142737
-0.000106234
0.0142477
-8.28249e-05
0.0142269
-5.69568e-05
0.0142115
-2.91654e-05
0.0142013
0.0141965
0.00210668
0.0155877
0.00183776
0.0154059
0.00160572
0.0152453
0.00140715
0.0151101
0.00123593
0.0149949
0.00108564
0.0148936
0.000952479
0.0148028
0.000834233
0.0147207
0.000728373
0.0146462
0.000632965
0.0145785
0.000546434
0.0145174
0.000467471
0.0144628
0.000394968
0.0144144
0.000327967
0.0143722
0.000265634
0.0143361
0.000207225
0.0143061
0.000152077
0.0142821
9.95804e-05
0.014264
4.9131e-05
0.0142518
0.0142456
0.00361696
0.0159467
0.00328
0.0157429
0.00297243
0.0155529
0.0026942
0.0153884
0.00244162
0.0152475
0.00221022
0.015125
0.00199622
0.0150168
0.00179677
0.0149202
0.00160964
0.0148333
0.00143307
0.0147551
0.00126557
0.0146849
0.00110588
0.0146225
0.000952912
0.0145673
0.000805702
0.0145194
0.000663395
0.0144784
0.000525219
0.0144442
0.000390466
0.0144168
0.000258469
0.014396
0.00012856
0.0143817
0.0143741
0.00512884
0.0163463
0.00473102
0.0161407
0.00434973
0.0159342
0.00399119
0.0157469
0.00365621
0.0155825
0.00334221
0.015439
0.00304582
0.0153132
0.00276422
0.0152018
0.0024952
0.0151023
0.00223699
0.0150133
0.00198812
0.0149338
0.00174735
0.0148632
0.00151358
0.0148011
0.00128584
0.0147471
0.00106324
0.014701
0.000844963
0.0146625
0.000630242
0.0146315
0.00041834
0.0146079
0.00020852
0.0145915
0.0145827
0.00661575
0.0167612
0.00617105
0.0165854
0.00572217
0.0163831
0.00528544
0.0161836
0.00486852
0.0159994
0.00447154
0.0158359
0.00409212
0.0156926
0.0037279
0.015566
0.00337678
0.0154534
0.00303697
0.0153531
0.00270694
0.0152638
0.00238541
0.0151848
0.00207124
0.0151153
0.00176342
0.0150549
0.001461
0.0150034
0.00116309
0.0149604
0.000868859
0.0149258
0.000577484
0.0148993
0.000288143
0.0148809
0.0148708
0.00804215
0.0171462
0.00757466
0.0170529
0.00706854
0.0168892
0.00655856
0.0166936
0.00606232
0.0164956
0.00558374
0.0163145
0.00512237
0.0161539
0.00467668
0.0160117
0.00424467
0.0158854
0.00382444
0.0157733
0.00341444
0.0156738
0.00301336
0.0155858
0.00262004
0.0155086
0.00223339
0.0154416
0.00185243
0.0153844
0.00147618
0.0153367
0.00110373
0.0152982
0.000734159
0.0152688
0.000366549
0.0152485
0.0152374
0.00935368
0.0174259
0.00890786
0.0174987
0.00837041
0.0174267
0.00780245
0.0172616
0.00723322
0.0170649
0.00667424
0.0168735
0.00613067
0.0166975
0.00560341
0.0165389
0.00509097
0.0163979
0.00459142
0.0162729
0.00410301
0.0161623
0.00362423
0.0160646
0.00315376
0.0159791
0.0026904
0.0159049
0.00223304
0.0158417
0.00178063
0.0157891
0.00133215
0.0157467
0.000886553
0.0157144
0.000442827
0.0156922
0.0156802
0.0104687
0.0175038
0.0100942
0.0178733
0.00956044
0.0179604
0.00896057
0.0178614
0.00833654
0.0176889
0.00771089
0.0174991
0.00709528
0.0173131
0.00649336
0.0171409
0.0059052
0.016986
0.00532983
0.0168483
0.00476596
0.0167261
0.00421223
0.0166184
0.00366732
0.016524
0.00313
0.0164423
0.00259908
0.0163727
0.00207338
0.0163148
0.00155177
0.0162683
0.00103309
0.0162331
0.000516187
0.0162091
0.0161964
0.0113256
0.0172486
0.0111413
0.0180576
0.0106923
0.0184095
0.0100886
0.0184651
0.00941117
0.0183663
0.00871307
0.0181972
0.0080199
0.0180063
0.00734062
0.0178201
0.00667704
0.0176496
0.00602819
0.0174971
0.00539227
0.017362
0.00476747
0.0172432
0.0041522
0.0171392
0.00354505
0.0170494
0.00294469
0.016973
0.00234982
0.0169096
0.00175919
0.016859
0.00117152
0.0168208
0.000585501
0.0167951
0.0167819
0.0116158
0.0167857
0.0116692
0.0180042
0.0114164
0.0186623
0.0109328
0.0189487
0.0103056
0.0189935
0.00960441
0.0188984
0.00887325
0.0187374
0.00813718
0.0185562
0.00740844
0.0183784
0.00669148
0.0182141
0.00598697
0.0180666
0.00529407
0.0179361
0.00461144
0.0178219
0.00393765
0.0177232
0.00327126
0.0176394
0.00261082
0.0175701
0.00195492
0.0175149
0.0013021
0.0174736
0.000650893
0.0174463
0.0174328
0.00018261
0.0165574
4.56591e-05
0.000303943
0.0178829
0.000390706
0.0185755
0.000443104
0.0188963
0.000465299
0.0189713
0.000464602
0.0188991
0.000448358
0.0187537
0.000422629
0.0185819
0.0003916
0.0184094
0.000357797
0.0182479
0.000322624
0.0181017
0.000286823
0.0179719
0.000250778
0.0178579
0.000214692
0.0177593
0.00017867
0.0176754
0.000142758
0.017606
0.000106963
0.0175506
7.12678e-05
0.0175093
3.56403e-05
0.0174819
0.0174684
0.000109866
0.0163373
0.000110229
0.000246039
0.0177467
0.000333883
0.0184877
0.000387903
0.0188423
0.000414314
0.0189449
0.000419002
0.0188944
0.000408396
0.0187643
0.000388024
0.0186023
0.000361811
0.0184356
0.000332248
0.0182774
0.000300802
0.0181332
0.000268303
0.0180044
0.000235214
0.017891
0.000201806
0.0177927
0.000168239
0.017709
0.000134606
0.0176396
0.000100952
0.0175843
6.72983e-05
0.017543
3.36518e-05
0.0175156
0.0175021
4.27706e-05
0.0161346
0.000159915
0.00018648
0.017603
0.000278242
0.0183959
0.000335446
0.0187851
0.000365946
0.0189144
0.000375503
0.0188849
0.000369994
0.0187698
0.000354503
0.0186178
0.000332746
0.0184574
0.000307174
0.018303
0.000279289
0.0181611
0.00024998
0.0180337
0.000219774
0.0179212
0.000188995
0.0178235
0.000157851
0.0177402
0.000126476
0.017671
9.49538e-05
0.0176158
6.33395e-05
0.0175746
3.1678e-05
0.0175473
0.0175337
-1.64583e-05
0.0159473
0.000203822
0.000128694
0.0174578
0.000224365
0.0183002
0.000285375
0.0187241
0.000319989
0.0188798
0.000334095
0.0188708
0.000333256
0.0187706
0.000322238
0.0186288
0.000304604
0.018475
0.000282767
0.0183248
0.000258254
0.0181856
0.000231999
0.0180599
0.000204577
0.0179486
0.000176355
0.0178517
0.000147582
0.0177689
0.000118429
0.0177001
8.90118e-05
0.0176452
5.94187e-05
0.0176042
2.97275e-05
0.0175769
0.0175635
-6.89483e-05
0.0157753
0.000240933
7.45279e-05
0.0173144
0.000173171
0.0182016
0.000237741
0.0186595
0.000276215
0.0188413
0.000294518
0.0188525
0.000297967
0.0187672
0.000291079
0.0186357
0.000277286
0.0184888
0.000258967
0.0183432
0.000237661
0.0182069
0.000214337
0.0180832
0.000189607
0.0179734
0.000163877
0.0178774
0.000137426
0.0177954
0.000110459
0.0177271
8.31221e-05
0.0176726
5.55319e-05
0.0176318
2.77946e-05
0.0176047
0.0175913
-0.000115757
0.0156176
0.000273475
2.43986e-05
0.0171742
0.000124994
0.018101
0.000192616
0.0185919
0.000234567
0.0187994
0.000256683
0.0188303
0.000264056
0.0187598
0.000260981
0.0186388
0.000250774
0.018499
0.000235771
0.0183582
0.000217518
0.0182251
0.000197007
0.0181038
0.00017488
0.0179955
0.000151574
0.0179007
0.000127396
0.0178196
0.000102578
0.0177519
7.72924e-05
0.0176979
5.16834e-05
0.0176574
2.58813e-05
0.0176305
0.0176171
-0.000157551
0.0154727
0.00030246
-2.1783e-05
0.0170384
7.98267e-05
0.0179994
0.000149987
0.0185217
0.000195032
0.0187543
0.000220594
0.0188048
0.000231544
0.0187489
0.000231985
0.0186383
0.000225118
0.0185059
0.000213236
0.01837
0.00019788
0.0182405
0.000180059
0.0181216
0.000160442
0.0180151
0.000139486
0.0179217
0.000117524
0.0178415
9.48098e-05
0.0177746
7.15413e-05
0.0177211
4.78849e-05
0.017681
2.39927e-05
0.0176544
0.0176411
-0.000194914
0.0153392
0.000328346
-6.41747e-05
0.0169077
3.76108e-05
0.0178976
0.000109807
0.0184495
0.000157582
0.0187066
0.000186248
0.0187761
0.000200455
0.0187347
0.000204132
0.0186347
0.00020037
0.0185096
0.000191413
0.018379
0.000178798
0.0182531
0.000163544
0.0181368
0.000146335
0.0180323
0.00012765
0.0179404
0.000107842
0.0178613
8.71808e-05
0.0177953
6.58877e-05
0.0177424
4.41486e-05
0.0177028
2.21349e-05
0.0176764
0.0176633
-0.000228384
0.015216
0.000351577
-0.000102973
0.0167823
-1.65516e-06
0.0177963
7.20273e-05
0.0183758
0.000122173
0.0186564
0.000153622
0.0187447
0.000170789
0.0187175
0.000177438
0.018628
0.000176556
0.0185105
0.000170339
0.0183852
0.00016031
0.0182631
0.000147496
0.0181496
0.000132595
0.0180472
0.000116098
0.0179569
9.83736e-05
0.017879
7.9711e-05
0.017814
6.03462e-05
0.0177618
4.04842e-05
0.0177226
2.03121e-05
0.0176966
0.0176836
-0.000258413
0.0151019
0.000372519
-0.000138413
0.0166623
-3.8234e-05
0.0176961
3.6578e-05
0.018301
8.87546e-05
0.0186042
0.000122682
0.0187107
0.000142533
0.0186976
0.000151908
0.0186186
0.000153693
0.0185087
0.000150036
0.0183889
0.000142444
0.0182707
0.000131945
0.0181601
0.000119247
0.0180599
0.000104852
0.0179713
8.91417e-05
0.0178948
7.24174e-05
0.0178307
5.49303e-05
0.0177793
3.69001e-05
0.0177407
1.85288e-05
0.0177149
0.0177021
-0.000285383
0.0149959
0.000391423
-0.00017072
0.0165476
-7.20658e-05
0.0175974
3.43409e-06
0.0182255
5.72748e-05
0.0185504
9.3395e-05
0.0186746
0.000115668
0.0186754
0.000127537
0.0186068
0.000131789
0.0185045
0.00013052
0.0183901
0.000125219
0.018276
0.000116913
0.0181685
0.000106313
0.0180705
9.39339e-05
0.0179836
8.01635e-05
0.0179085
6.53146e-05
0.0178455
4.96506e-05
0.0177949
3.34038e-05
0.0177569
1.67884e-05
0.0177315
0.0177189
-0.000309619
0.014897
0.000408472
-0.000200135
0.0164381
-0.000103346
0.0175007
-2.75731e-05
0.0181497
2.76705e-05
0.0184951
6.57226e-05
0.0186366
9.01737e-05
0.0186509
0.00010432
0.0185926
0.000110849
0.0184979
0.000111803
0.0183892
0.000108651
0.0182792
0.000102416
0.0181747
9.38131e-05
0.0180791
8.33603e-05
0.0179941
7.14541e-05
0.0179204
5.84155e-05
0.0178586
4.45171e-05
0.0178088
3.00018e-05
0.0177714
1.50938e-05
0.0177465
0.017734
-0.000331394
0.0148046
0.000423816
-0.000226885
0.0163336
-0.000132199
0.017406
-5.64418e-05
0.018074
-2.53787e-08
0.0184387
3.96246e-05
0.0185969
6.60242e-05
0.0186245
8.22448e-05
0.0185764
9.08695e-05
0.0184893
9.389e-05
0.0183862
9.2751e-05
0.0182803
8.8469e-05
0.018179
8.17599e-05
0.0180858
7.31452e-05
0.0180027
6.30266e-05
0.0179306
5.17307e-05
0.0178699
3.95381e-05
0.017821
2.66999e-05
0.0177843
1.34487e-05
0.0177597
0.0177474
-0.000350942
0.014718
0.00043758
-0.000251176
0.0162339
-0.000158759
0.0173135
-8.33052e-05
0.0179985
-2.61154e-05
0.0183815
1.50407e-05
0.0185558
4.31899e-05
0.0185964
6.1294e-05
0.0185583
7.18454e-05
0.0184788
7.6782e-05
0.0183812
7.75244e-05
0.0182796
7.50802e-05
0.0181814
7.01641e-05
0.0180907
6.32995e-05
0.0180096
5.48907e-05
0.017939
4.52692e-05
0.0178795
3.47207e-05
0.0178316
2.35027e-05
0.0177955
1.1855e-05
0.0177714
0.0177593
-0.000368461
0.0146366
0.000449869
-0.000273198
0.0161386
-0.000183159
0.0172235
-0.000108234
0.0179236
-5.04293e-05
0.0183237
-8.05822e-06
0.0185134
2.16374e-05
0.0185667
4.14476e-05
0.0185385
5.37654e-05
0.0184664
6.04759e-05
0.0183745
6.29733e-05
0.0182771
6.22553e-05
0.0181821
5.90335e-05
0.018094
5.38312e-05
0.0180148
4.70546e-05
0.0179457
3.90378e-05
0.0178875
3.007e-05
0.0178405
2.04142e-05
0.0178051
1.03146e-05
0.0177815
0.0177696
-0.000384123
0.0145599
0.000460775
-0.000293123
0.0160476
-0.000205526
0.0171359
-0.000131322
0.0178494
-7.31211e-05
0.0182655
-2.97275e-05
0.01847
1.33702e-06
0.0185356
2.26825e-05
0.0185172
3.66158e-05
0.0184525
4.49648e-05
0.0183662
4.90963e-05
0.0182729
4.99963e-05
0.0181812
4.83721e-05
0.0180956
4.4746e-05
0.0180184
3.95242e-05
0.017951
3.30418e-05
0.017894
2.5591e-05
0.017848
1.74374e-05
0.0178133
8.82927e-06
0.0177901
0.0177784
-0.000398077
0.0144876
0.000470382
-0.000311108
0.0159606
-0.000225982
0.0170508
-0.00015266
0.0177761
-9.42526e-05
0.0182071
-5.0017e-05
0.0184258
-1.77604e-05
0.0185034
4.97241e-06
0.0184944
2.03801e-05
0.0184371
3.0239e-05
0.0183563
3.58888e-05
0.0182673
3.83024e-05
0.0181788
3.81818e-05
0.0180957
3.6047e-05
0.0180205
3.23031e-05
0.0179547
2.72851e-05
0.017899
2.12865e-05
0.017854
1.45746e-05
0.01782
7.40012e-06
0.0177972
0.0177858
-0.000410454
0.0144193
0.000478765
-0.000327294
0.0158775
-0.000244644
0.0169681
-0.000172337
0.0177038
-0.000113891
0.0181487
-6.89788e-05
0.0183808
-3.5682e-05
0.0184701
-1.17111e-05
0.0184704
5.03792e-06
0.0184204
1.62857e-05
0.0183451
2.33432e-05
0.0182602
2.71703e-05
0.018175
2.8462e-05
0.0180944
2.77352e-05
0.0180213
2.53931e-05
0.017957
2.17699e-05
0.0179026
1.71586e-05
0.0178586
1.18275e-05
0.0178253
6.02833e-06
0.017803
0.0177919
-0.000421372
0.0143547
0.000485995
-0.000341814
0.0157979
-0.000261621
0.0168879
-0.000190437
0.0176326
-0.000132101
0.0180903
-8.66645e-05
0.0183354
-5.24721e-05
0.0184359
-2.73972e-05
0.0184454
-9.43189e-06
0.0184024
3.09004e-06
0.0183325
1.14502e-05
0.0182519
1.65942e-05
0.0181698
1.921e-05
0.0180918
1.981e-05
0.0180207
1.87951e-05
0.0179581
1.64973e-05
0.0179049
1.32086e-05
0.0178619
9.19694e-06
0.0178293
4.71409e-06
0.0178075
0.0177966
-0.000430937
0.0142935
0.000492141
-0.000354785
0.0157218
-0.00027702
0.0168102
-0.000207043
0.0175626
-0.000148949
0.0180323
-0.000103126
0.0182896
-6.8171e-05
0.0184009
-4.21175e-05
0.0184193
-2.30526e-05
0.0183833
-9.36495e-06
0.0183189
1.98849e-07
0.0182423
6.56666e-06
0.0181635
1.04209e-05
0.0180879
1.22689e-05
0.0180188
1.25077e-05
0.0179578
1.14672e-05
0.017906
9.43687e-06
0.0178639
6.68333e-06
0.0178321
3.45787e-06
0.0178107
0.0178
-0.000439244
0.0142355
0.000497266
-0.000366318
0.0156488
-0.000290938
0.0167348
-0.000222238
0.0174939
-0.0001645
0.0179745
-0.000118415
0.0182435
-8.28199e-05
0.0183653
-5.59042e-05
0.0183924
-3.58494e-05
0.0183633
-2.10977e-05
0.0183041
-1.04268e-05
0.0182316
-2.92199e-06
0.018156
2.08863e-06
0.0180829
5.10802e-06
0.0180158
6.52911e-06
0.0179564
6.67828e-06
0.0179058
5.8427e-06
0.0178648
4.28651e-06
0.0178336
2.25916e-06
0.0178128
0.0178023
-0.000446384
0.0141804
0.000501433
-0.000376513
0.015579
-0.000303471
0.0166618
-0.000236097
0.0174265
-0.000178816
0.0179172
-0.000132583
0.0181973
-9.64603e-05
0.0183292
-6.87904e-05
0.0183647
-4.78473e-05
0.0183423
-3.21279e-05
0.0182884
-2.04389e-05
0.0182199
-1.18824e-05
0.0181474
-5.79441e-06
0.0180768
-1.67793e-06
0.0180117
8.55536e-07
0.0179539
2.12856e-06
0.0179046
2.42491e-06
0.0178645
2.00581e-06
0.0178341
1.11841e-06
0.0178137
0.0178034
-0.000452437
0.0141281
0.000504703
-0.000385466
0.015512
-0.000314705
0.016591
-0.000248697
0.0173605
-0.000191958
0.0178605
-0.000145679
0.018151
-0.000109133
0.0182926
-8.08094e-05
0.0183364
-5.90737e-05
0.0183206
-4.24765e-05
0.0182718
-2.98549e-05
0.0182073
-2.03266e-05
0.0181379
-1.3237e-05
0.0180698
-8.09531e-06
0.0180065
-4.51721e-06
-2.18497e-06
-8.18382e-07
-1.5985e-07
3.47566e-08
-0.000457481
-0.000393262
-0.000324725
-0.000260109
-0.000203988
-0.000157755
-0.00012088
-9.19949e-05
-6.95556e-05
-5.21653e-05
-3.86913e-05
-2.82678e-05
-2.02495e-05
0.0100856
0.000164448
0.0100005
0.000195392
0.00991222
0.000248157
0.0098275
0.00028855
0.00974925
0.000319178
0.00967735
0.000345381
0.00961136
0.000368446
0.00955117
0.000388532
0.00949664
0.000406107
0.00944753
0.000421635
0.00940355
0.000435401
0.00936442
0.000447597
0.00932987
0.00045837
0.00929961
0.000467839
0.00927338
0.0004761
0.00925092
0.00048323
0.00923201
0.0004893
0.0092164
0.00049437
0.0092039
0.0004985
0.00919429
0.000501745
0.0091874
0.000504157
0.00918305
0.000505789
0.00874777
0.000277618
0.00866896
0.000274208
0.00861
0.000307112
0.00856267
0.000335885
0.00852478
0.000357063
0.00849465
0.00037551
0.00847049
0.000392608
0.00845104
0.000407986
0.00843554
0.000421609
0.00842348
0.000433695
0.00841448
0.000444401
0.00840825
0.000453819
0.0084046
0.000462029
0.00840333
0.000469105
0.00840432
0.000475116
0.00840742
0.000480123
0.00841254
0.000484186
0.00841955
0.00048736
0.00842835
0.000489699
0.00843884
0.000491255
0.00845091
0.00049208
0.00713071
0.000336254
0.00708709
0.000317827
0.00706174
0.000332465
0.00704937
0.000348249
0.00704619
0.000360245
0.00705026
0.000371435
0.00706009
0.000382784
0.00707433
0.000393744
0.00709201
0.000403928
0.00711245
0.000413252
0.00713517
0.000421684
0.0071598
0.000429192
0.00718607
0.000435758
0.00721378
0.000441393
0.00724278
0.000446117
0.00727294
0.000449963
0.00730416
0.00045297
0.00733634
0.000455178
0.0073694
0.000456634
0.00740327
0.000457383
0.00538488
0.000337975
0.00538678
0.00031593
0.00540038
0.000318867
0.00542339
0.000325238
0.00545285
0.000330778
0.00548745
0.000336835
0.00552644
0.000343794
0.00556906
0.000351122
0.00561463
0.000358359
0.00566262
0.000365269
0.00571259
0.000371709
0.00576421
0.000377569
0.0058172
0.000382773
0.00587131
0.00038728
0.00592636
0.000391072
0.00598217
0.000394152
0.0060386
0.000396532
0.00609555
0.000398237
0.00615288
0.000399296
0.000399744
0.0037051
0.000292165
0.0037483
0.00027273
0.00379733
0.000269842
0.00385162
0.000270951
0.00390949
0.000272898
0.00397039
0.000275944
0.00403414
0.000280045
0.00410051
0.000284749
0.0041692
0.000289663
0.00423994
0.000294538
0.00431244
0.000299208
0.00438646
0.000303548
0.00446176
0.000307467
0.00453814
0.000310908
0.00461537
0.000313836
0.00469329
0.000316234
0.00477172
0.0003181
0.00485052
0.000319442
0.00492954
0.000320277
0.00227194
0.00021227
0.00234643
0.000198235
0.00242231
0.000193962
0.00250019
0.000193067
0.00257962
0.00019347
0.00266063
0.000194933
0.00274343
0.000197244
0.00282811
0.000200075
0.00291462
0.000203149
0.00300288
0.000206281
0.00309275
0.000209338
0.00318407
0.000212222
0.00327668
0.000214861
0.00337038
0.000217205
0.003465
0.00021922
0.00356034
0.000220888
0.00365624
0.000222202
0.00375252
0.000223161
0.000223772
0.00123128
0.000111164
0.00132569
0.000103825
0.00141864
0.000101014
0.00151158
0.000100122
0.00160495
0.000100101
0.00169918
0.000100702
0.00179467
0.000101762
0.00189163
0.000103107
0.00199018
0.000104599
0.00209033
0.000106139
0.00219201
0.000107657
0.00229513
0.000109101
0.00239956
0.000110433
0.00250514
0.000111623
0.0026117
0.000112655
0.00271908
0.000113515
0.00282708
0.000114199
0.00293554
0.000114704
0.000115033
0.000684793
0.000788618
0.000889632
0.000989754
0.00108985
0.00119056
0.00129232
0.00139543
0.00150002
0.00160616
0.00171382
0.00182292
0.00193335
0.00204498
0.00215763
0.00227115
0.00238535
0.00250005
)
;

boundaryField
{
    inlet
    {