/*--------------------------------*- C++ -*----------------------------------*\
  =========                 |
  \\      /  F ield         | OpenFOAM: The Open Source CFD Toolbox
   \\    /   O peration     | Website:  https://openfoam.org
    \\  /    A nd           | Version:  7
     \\/     M anipulation  |
\*---------------------------------------------------------------------------*/
FoamFile
{
    version     2.0;
    format      ascii;
    class       volVectorField;
    location    "20";
    object      U;
}
// * * * * * * * * * * * * * * * * * * * * * * * * * * * * * * * * * * * * * //

dimensions      [0 1 -1 0 0 0 0];

internalField   nonuniform List<vector> 
1360
(
(-0.00106271 0.00164497 -5.61547e-20)
(0.00828872 0.0136409 -1.46584e-19)
(0.0375032 0.0323254 2.61064e-19)
(0.00828872 -0.0136409 1.46584e-19)
(0.0375032 -0.0323254 -2.61064e-19)
(0.0134277 -0.0401634 2.28239e-19)
(0.0494098 -0.0953106 -3.35638e-19)
(0.0233175 -0.0644609 1.34299e-19)
(0.0723992 -0.153404 -1.55047e-19)
(0.0372103 -0.0852243 -6.09852e-20)
(0.104877 -0.203687 -6.35193e-19)
(0.17846 -0.279853 5.18551e-19)
(0.0540547 -0.101392 -1.5555e-19)
(0.144582 -0.243739 -5.65717e-20)
(0.231784 -0.336764 -3.33765e-19)
(0.312241 -0.391745 3.19192e-19)
(0.0725753 -0.112226 5.08898e-19)
(0.188734 -0.271786 -1.60519e-19)
(0.291647 -0.378234 1.98502e-19)
(0.38081 -0.442982 2.61239e-21)
(0.0913698 -0.11736 1.41872e-19)
(0.234225 -0.286823 1.23858e-20)
(0.354113 -0.402761 9.77334e-20)
(0.453246 -0.47571 -3.32309e-20)
(0.534024 -0.51499 5.32834e-19)
(0.109017 -0.116821 -5.18052e-20)
(0.277831 -0.288679 -2.02749e-20)
(0.415015 -0.409842 1.61285e-19)
(0.525037 -0.489092 -3.23039e-20)
(0.611907 -0.53451 -3.0359e-19)
(0.679786 -0.553442 4.92136e-19)
(0.732558 -0.552656 -5.36925e-19)
(0.124189 -0.111028 -6.50516e-20)
(0.316444 -0.278024 7.97334e-21)
(0.47023 -0.400005 4.38019e-20)
(0.5916 -0.48334 1.00908e-19)
(0.685667 -0.534287 -8.68663e-20)
(0.757341 -0.558971 -1.99204e-19)
(0.811183 -0.563363 1.24339e-19)
(0.851273 -0.552995 -3.25141e-19)
(0.881119 -0.53267 -3.67347e-20)
(0.135777 -0.100762 -8.95017e-21)
(0.347304 -0.256318 -2.13273e-20)
(0.515955 -0.374778 -1.24065e-20)
(0.648564 -0.459719 6.40518e-20)
(0.750736 -0.515186 -3.04894e-20)
(0.827673 -0.545729 3.92958e-20)
(0.88426 -0.556175 5.25823e-20)
(0.924975 -0.551308 6.77173e-20)
(0.953766 -0.535536 -1.98111e-19)
(0.973953 -0.512646 6.76333e-20)
(0.988192 -0.485679 -2.83964e-19)
(0.142969 -0.0870058 -1.10556e-19)
(0.368259 -0.225652 8.22217e-21)
(0.548989 -0.336609 3.98935e-20)
(0.692047 -0.420493 -1.51281e-19)
(0.802882 -0.479052 1.72804e-19)
(0.886471 -0.515077 -1.87682e-19)
(0.947629 -0.532001 5.26337e-20)
(0.990915 -0.533611 3.66428e-20)
(1.02049 -0.52368 2.56623e-20)
(1.04 -0.505675 -2.49295e-20)
(1.05245 -0.482548 -2.36762e-20)
(1.06019 -0.456644 -3.73864e-20)
(1.06498 -0.429698 9.86993e-20)
(1.06805 -0.402902 -1.6847e-19)
(0.145257 -0.0710381 -1.47594e-19)
(0.377841 -0.188728 2.14612e-19)
(0.567 -0.288671 6.4854e-20)
(0.718953 -0.368804 -6.95259e-20)
(0.838459 -0.428649 1.12351e-19)
(0.929811 -0.469224 2.26881e-19)
(0.997321 -0.492498 -1.28124e-19)
(1.04528 -0.501082 -8.04853e-20)
(1.0778 -0.49792 -1.46245e-19)
(1.09863 -0.485965 9.80987e-20)
(1.11101 -0.467923 -2.05886e-20)
(1.11762 -0.446092 1.10881e-20)
(1.12051 -0.422291 4.78338e-20)
(1.12119 -0.397856 4.96805e-21)
(1.12071 -0.373699 -6.09514e-21)
(1.11974 -0.350371 -1.37131e-20)
(1.11864 -0.328196 -7.83806e-21)
(0.142602 -0.0541583 1.30417e-19)
(0.375471 -0.148458 8.32965e-20)
(0.568678 -0.234652 -5.7151e-20)
(0.727213 -0.308451 -6.63027e-19)
(0.854703 -0.367475 2.13052e-19)
(0.954404 -0.41116 -4.22145e-20)
(1.02976 -0.440048 -3.99592e-20)
(1.08444 -0.455522 -3.38183e-20)
(1.12218 -0.459565 2.2008e-20)
(1.14661 -0.454453 -2.22913e-19)
(1.16103 -0.442489 1.32864e-19)
(1.16832 -0.425791 -1.34384e-19)
(1.17079 -0.406157 4.27413e-20)
(1.17025 -0.385013 -3.81835e-20)
(1.16799 -0.363407 9.10743e-21)
(1.1649 -0.342045 4.5641e-20)
(1.16151 -0.321379 -2.11595e-20)
(1.15801 -0.301794 1.50279e-20)
(1.15434 -0.283556 -2.03987e-20)
(1.15086 -0.26543 1.08506e-20)
(0.135326 -0.0376142 2.23055e-19)
(0.361487 -0.107799 -3.89447e-20)
(0.553895 -0.178442 -2.85019e-19)
(0.715972 -0.243646 -3.25695e-20)
(0.849967 -0.299613 4.67323e-19)
(0.957875 -0.344521 -1.98985e-19)
(1.04201 -0.377679 1.51119e-19)
(1.10513 -0.399313 -1.83314e-19)
(1.15029 -0.410403 8.2995e-20)
(1.18071 -0.412448 -6.23056e-20)
(1.19954 -0.407202 2.68921e-19)
(1.20966 -0.396457 -1.77557e-19)
(1.21359 -0.381873 -1.04741e-20)
(1.21336 -0.364874 -1.80215e-20)
(1.21055 -0.346595 2.03813e-20)
(1.20629 -0.327873 -4.41577e-20)
(1.20132 -0.309291 5.0296e-20)
(1.19605 -0.291307 -6.42634e-21)
(1.19057 -0.274284 -5.64397e-20)
(1.1851 -0.25747 -3.04306e-21)
(0.124102 -0.0225064 -1.85881e-19)
(0.337092 -0.0694904 1.44735e-19)
(0.523718 -0.123825 5.17124e-20)
(0.685721 -0.178693 -6.40221e-20)
(0.823919 -0.229438 -1.79561e-20)
(0.938999 -0.273401 7.67527e-20)
(1.03204 -0.308965 -5.61262e-20)
(1.10469 -0.335387 2.26337e-19)
(1.15908 -0.352718 -1.57287e-19)
(1.19775 -0.361647 6.79581e-20)
(1.22343 -0.363287 -1.51412e-19)
(1.23881 -0.358977 1.37537e-19)
(1.24642 -0.350106 5.23892e-20)
(1.24844 -0.337986 -1.48118e-19)
(1.24668 -0.323755 1.29088e-19)
(1.24254 -0.308332 -5.78385e-20)
(1.23701 -0.292412 2.43792e-20)
(1.23073 -0.276551 1.88375e-20)
(1.22403 -0.261192 -2.80006e-22)
(1.21711 -0.245984 1.21598e-20)
(0.109869 -0.00969113 -9.34029e-20)
(0.304226 -0.0358207 1.56638e-19)
(0.480323 -0.0741617 -9.623e-20)
(0.638295 -0.117645 7.57024e-20)
(0.777663 -0.16131 -9.66128e-20)
(0.897929 -0.202107 -1.23948e-20)
(0.998989 -0.237869 4.10953e-20)
(1.08132 -0.267159 -1.52212e-20)
(1.14603 -0.289277 -1.86257e-20)
(1.19475 -0.304169 8.03767e-20)
(1.22954 -0.312285 -1.25596e-20)
(1.25266 -0.314428 -4.05287e-20)
(1.26641 -0.311603 7.75834e-20)
(1.27298 -0.304883 -6.32744e-20)
(1.2743 -0.295304 1.53461e-20)
(1.27196 -0.283785 -1.79832e-20)
(1.26722 -0.271089 4.82329e-20)
(1.261 -0.257842 -3.41717e-20)
(1.25384 -0.244566 -7.496e-21)
(1.24605 -0.231309 -8.835e-21)
(0.0937311 0.000280204 5.78544e-20)
(0.265358 -0.00844322 -1.7872e-19)
(0.426777 -0.0321054 1.08262e-19)
(0.576745 -0.0639596 -1.53779e-20)
(0.713739 -0.0992203 2.97559e-20)
(0.836331 -0.134855 -5.49101e-20)
(0.943432 -0.168514 -3.45664e-20)
(1.03448 -0.198398 6.83678e-21)
(1.10953 -0.223305 8.97224e-20)
(1.16925 -0.2426 -1.26339e-19)
(1.21484 -0.256139 1.77085e-20)
(1.24791 -0.264178 2.52821e-20)
(1.27029 -0.267265 -3.5658e-20)
(1.28394 -0.266134 1.0885e-19)
(1.29072 -0.2616 -3.9393e-20)
(1.29232 -0.254478 3.00032e-20)
(1.2902 -0.245515 -6.37656e-20)
(1.28549 -0.235359 1.21096e-20)
(1.27901 -0.224573 3.05523e-20)
(1.27121 -0.213588 1.71669e-20)
(0.0768277 0.00718211 1.21277e-19)
(0.223218 0.0117262 1.16394e-19)
(0.366731 0.000598341 -3.73615e-20)
(0.505062 -0.0202107 -1.37926e-19)
(0.635959 -0.0464494 -7.47405e-20)
(0.757385 -0.0754107 1.70245e-19)
(0.867569 -0.104882 7.60077e-20)
(0.965153 -0.133015 -1.51206e-19)
(1.04931 -0.158386 5.98264e-20)
(1.11977 -0.180005 -2.18758e-21)
(1.17686 -0.197292 2.37382e-19)
(1.22136 -0.210031 -8.63083e-20)
(1.25447 -0.218315 -2.38304e-19)
(1.27765 -0.222484 2.93372e-19)
(1.29248 -0.223044 -1.12198e-19)
(1.30056 -0.220598 2.02077e-19)
(1.30335 -0.215777 -6.81642e-20)
(1.30215 -0.209175 1.6598e-20)
(1.29797 -0.201328 -3.73892e-20)
(1.29146 -0.192948 -2.89435e-20)
(0.0602228 0.011095 -1.43688e-19)
(0.180513 0.0245202 -2.82441e-19)
(0.304041 0.0232064 4.62531e-19)
(0.427783 0.0121118 2.60091e-19)
(0.549078 -0.00526496 -7.71426e-19)
(0.665598 -0.0267355 4.64529e-19)
(0.775217 -0.0504448 1.31188e-19)
(0.876098 -0.074742 2.18778e-19)
(0.966798 -0.0982417 7.07586e-21)
(1.04634 -0.119844 -1.15542e-20)
(1.11423 -0.138734 -5.24815e-19)
(1.17046 -0.154376 3.87056e-19)
(1.21548 -0.166501 1.38094e-19)
(1.25008 -0.175075 -6.6301e-20)
(1.27535 -0.180263 -2.36501e-19)
(1.29252 -0.182381 5.91363e-20)
(1.3029 -0.181851 -8.03271e-20)
(1.30774 -0.179125 -5.77273e-20)
(1.30809 -0.174618 3.93113e-19)
(1.30473 -0.169163 3.49322e-20)
(0.0448058 0.0123504 -3.79946e-19)
(0.139662 0.0304412 -1.72204e-19)
(0.242373 0.0359491 -1.74623e-19)
(0.349527 0.0326735 4.42397e-19)
(0.45832 0.0232681 2.18185e-20)
(0.566397 0.00932383 -1.70687e-19)
(0.671571 -0.00777358 -3.07008e-19)
(0.77184 -0.0267251 -3.65143e-20)
(0.865463 -0.0463691 1.11988e-20)
(0.951025 -0.065701 5.44637e-19)
(1.02748 -0.0838804 -6.23066e-19)
(1.09415 -0.100241 1.75631e-19)
(1.15079 -0.1143 -4.86072e-19)
(1.19751 -0.125753 2.30516e-19)
(1.23474 -0.13447 4.95913e-20)
(1.2632 -0.140476 -7.15954e-19)
(1.28378 -0.143935 2.09905e-19)
(1.29744 -0.14508 1.12005e-19)
(1.30507 -0.144105 -2.69558e-19)
(1.30736 -0.141763 1.99425e-19)
(0.031229 0.011453 1.52945e-19)
(0.102594 0.0305106 2.70347e-19)
(0.184863 0.0398892 -3.3139e-19)
(0.274517 0.0422258 4.72063e-19)
(0.368814 0.0393364 9.15564e-20)
(0.465551 0.032224 -6.99554e-19)
(0.562689 0.0217868 7.81573e-20)
(0.65831 0.00891554 9.52359e-20)
(0.750662 -0.0055481 2.88801e-19)
(0.838191 -0.0208263 -2.70742e-19)
(0.919572 -0.0362113 3.57631e-19)
(0.99375 -0.0510768 2.86051e-19)
(1.05996 -0.0648914 2.29408e-19)
(1.11773 -0.0772297 -9.36012e-20)
(1.16691 -0.0877783 -2.45361e-19)
(1.20761 -0.096341 1.22026e-19)
(1.24019 -0.102841 1.38805e-19)
(1.26516 -0.107271 1.61014e-20)
(1.28299 -0.109497 1.05272e-19)
(1.29401 -0.109933 5.82214e-19)
(0.0198848 0.00899579 8.25382e-19)
(0.0706363 0.0260816 -5.02433e-19)
(0.133874 0.0367008 -7.2273e-20)
(0.206195 0.0424136 -5.39391e-19)
(0.285054 0.0442692 -5.63426e-19)
(0.368503 0.0427464 8.64533e-19)
(0.454762 0.0383003 -1.47469e-19)
(0.542156 0.0314314 9.15169e-20)
(0.629114 0.0226474 -1.81881e-19)
(0.714181 0.0124498 -1.77808e-19)
(0.796029 0.00133062 1.57698e-19)
(0.87348 -0.0102362 -2.58472e-19)
(0.945532 -0.0218063 5.95092e-19)
(1.01139 -0.0329755 -6.98798e-19)
(1.07046 -0.043389 2.9127e-19)
(1.12239 -0.0527522 -6.54749e-20)
(1.16703 -0.0608489 5.95717e-19)
(1.20444 -0.0674883 2.40138e-19)
(1.23451 -0.0721457 -1.18064e-18)
(1.2568 -0.0745158 4.36798e-19)
(0.0109226 0.00558533 1.4969e-19)
(0.0444934 0.0186517 5.88572e-20)
(0.0908781 0.0284177 6.75085e-19)
(0.146957 0.0355029 2.1219e-19)
(0.210469 0.0402947 4.53035e-19)
(0.279751 0.0428347 -1.10063e-18)
(0.353328 0.0432104 8.04001e-19)
(0.429823 0.0415925 -6.78143e-19)
(0.507947 0.038195 4.62748e-19)
(0.586479 0.03326 7.94948e-20)
(0.664267 0.027052 -1.20001e-18)
(0.74023 0.0198512 1.74069e-18)
(0.813374 0.0119453 -7.07273e-19)
(0.882817 0.00362137 -1.69115e-19)
(0.947806 -0.00483959 3.61582e-19)
(1.00774 -0.0131716 -3.10559e-19)
(1.06222 -0.0211551 -1.32819e-19)
(1.11102 -0.0285776 5.49859e-19)
(1.15374 -0.0345554 -1.47456e-19)
(1.18955 -0.0372324 2.42105e-19)
(0.00429135 0.00178875 -9.7564e-19)
(0.024308 0.0097088 6.10058e-21)
(0.0564744 0.0171931 -1.05027e-21)
(0.0980746 0.0240777 9.33849e-19)
(0.147179 0.030205 -3.50633e-19)
(0.202417 0.0352708 -6.14154e-19)
(0.262607 0.0390768 9.14807e-19)
(0.326669 0.0415385 -6.62762e-19)
(0.393606 0.0426413 -4.45166e-19)
(0.462475 0.0424187 7.7689e-19)
(0.532371 0.0409414 -6.65208e-19)
(0.602418 0.0383072 1.04213e-18)
(0.671778 0.0346305 5.75436e-19)
(0.739658 0.030031 -4.26317e-19)
(0.805324 0.0246238 -2.44396e-19)
(0.868126 0.0185049 3.07536e-19)
(0.927539 0.0116925 -2.72548e-19)
(0.983237 0.00398414 9.36953e-20)
(1.03487 -0.00460848 5.17662e-19)
(1.08141 -0.0113744 -7.15402e-19)
(-0.000204076 -0.00189414 -3.0327e-20)
(0.00977129 0.000622135 2.62067e-19)
(0.0305005 0.0050992 -2.55927e-20)
(0.0597569 0.0107496 -3.07796e-19)
(0.0959781 0.0169883 -3.15366e-19)
(0.138078 0.023253 8.3005e-19)
(0.185141 0.0291384 -1.08019e-18)
(0.236351 0.0343793 2.38352e-19)
(0.290969 0.0388032 1.54934e-19)
(0.348304 0.0423026 2.30046e-19)
(0.407691 0.0448184 -1.07387e-18)
(0.468476 0.0463258 1.10178e-18)
(0.530008 0.0468234 4.02588e-20)
(0.591637 0.0463212 -9.89872e-19)
(0.652713 0.0448298 6.30156e-19)
(0.712569 0.0423584 8.44242e-20)
(0.770467 0.0389064 -9.95654e-20)
(0.8257 0.0341452 -8.45873e-19)
(0.878664 0.0261015 7.62663e-19)
(0.929376 0.012359 1.73379e-19)
(-0.00285373 -0.00503943 -2.03002e-19)
(0.000246475 -0.00742455 -8.41841e-20)
(0.0122036 -0.00602811 6.94727e-19)
(0.0313452 -0.00209982 -8.19033e-21)
(0.0565067 0.00346402 3.40778e-19)
(0.0868795 0.00992576 -9.85377e-19)
(0.12179 0.0167446 1.1306e-19)
(0.160649 0.0235403 4.64112e-19)
(0.202932 0.0300443 -5.78745e-19)
(0.248158 0.0360675 -1.51855e-19)
(0.295867 0.0414775 -4.10369e-19)
(0.345607 0.0461829 1.44244e-18)
(0.396922 0.0501183 -4.85357e-19)
(0.449349 0.0532309 1.67919e-19)
(0.502411 0.0554634 -2.01399e-19)
(0.55559 0.0567423 6.22089e-19)
(0.608246 0.0569611 -6.33702e-19)
(0.659765 0.0556356 7.04325e-19)
(0.710824 0.0503653 -4.21287e-19)
(0.760604 0.0371821 -4.87564e-19)
(-0.0040065 -0.00730807 4.75648e-19)
(-0.00512487 -0.0134863 -3.40346e-19)
(0.000417772 -0.0147085 -2.17664e-19)
(0.0115556 -0.012523 -5.44671e-20)
(0.0275429 -0.00801695 -5.19298e-19)
(0.047845 -0.00202161 5.36362e-19)
(0.0720115 0.00485238 -7.41553e-19)
(0.0996486 0.0121663 4.27341e-19)
(0.130408 0.0196049 -2.65896e-19)
(0.163973 0.0269403 7.76708e-19)
(0.200043 0.0340068 -6.64861e-19)
(0.238323 0.0406803 5.97397e-19)
(0.278518 0.0468605 -9.71916e-19)
(0.320323 0.0524519 2.47851e-19)
(0.363418 0.0573385 3.78944e-19)
(0.407436 0.0613565 3.17266e-19)
(0.451872 0.0642479 4.33567e-20)
(0.49627 0.0653428 -7.47162e-19)
(0.541259 0.0624273 -3.71469e-19)
(0.585281 0.0522986 5.07337e-19)
(-0.00405086 -0.00845622 3.0056e-22)
(-0.00733216 -0.0169057 -6.04098e-20)
(-0.00625528 -0.0199172 -6.10449e-20)
(-0.00125191 -0.0191607 2.58879e-19)
(0.00736023 -0.0157883 -1.5695e-19)
(0.0193134 -0.0106425 -4.04642e-19)
(0.0343633 -0.00433966 7.03656e-19)
(0.0522871 0.00267399 -3.14594e-19)
(0.0728804 0.0100765 -1.3079e-19)
(0.0959519 0.0176342 7.92727e-19)
(0.121317 0.0251745 -2.78353e-19)
(0.148794 0.0325628 3.2863e-19)
(0.178196 0.039682 -8.3835e-19)
(0.20933 0.0464093 5.47903e-19)
(0.241986 0.0525864 1.56765e-19)
(0.275902 0.0579848 -4.07761e-19)
(0.310695 0.0622503 5.71781e-19)
(0.346056 0.0646659 -3.9482e-19)
(0.38247 0.063479 -3.53973e-19)
(0.418149 0.0565243 9.0546e-19)
(-0.00339569 -0.00835957 9.40411e-20)
(-0.00741581 -0.0173624 -3.09402e-19)
(-0.00929088 -0.0211554 3.57851e-19)
(-0.00882858 -0.0213355 -1.24238e-19)
(-0.00593432 -0.0189889 1.75944e-19)
(-0.000626985 -0.0148861 -3.24407e-20)
(0.00703472 -0.00958796 3.1142e-20)
(0.0169751 -0.00350097 -2.65588e-19)
(0.0291068 0.00308153 -7.25846e-20)
(0.0433346 0.00994619 5.25561e-19)
(0.0595578 0.0169334 7.19366e-20)
(0.0776698 0.023915 -2.01071e-19)
(0.0975567 0.0307731 -2.58337e-19)
(0.119095 0.037377 3.53501e-19)
(0.142141 0.0435548 -7.15317e-19)
(0.166502 0.0490611 5.28426e-19)
(0.191891 0.0535348 -6.46474e-19)
(0.218091 0.0563613 5.39601e-19)
(0.245357 0.0563342 -2.5352e-19)
(0.272068 0.0520791 -1.39021e-19)
(-0.00244806 -0.00704186 8.61156e-20)
(-0.00638794 -0.0149213 -8.9509e-20)
(-0.0100986 -0.0184931 1.38718e-20)
(-0.0128307 -0.0190832 3.70512e-20)
(-0.0141282 -0.0175835 -5.9011e-20)
(-0.0137966 -0.0146131 2.6895e-21)
(-0.0117395 -0.0106207 -2.18749e-20)
(-0.00791262 -0.00593184 2.85557e-19)
(-0.00231167 -0.000780864 -9.92702e-20)
(0.00503967 0.00466135 -2.74247e-19)
(0.0140992 0.0102654 3.40384e-19)
(0.0248106 0.0159246 -1.36549e-19)
(0.0371044 0.021537 1.33657e-19)
(0.0508967 0.0269862 -3.99224e-19)
(0.0660815 0.0321196 5.00626e-19)
(0.0825067 0.0367249 4.04302e-20)
(0.0999503 0.0405067 -5.03892e-19)
(0.118221 0.0430277 4.64538e-19)
(0.137333 0.0435591 8.39237e-20)
(0.156053 0.0412529 1.77313e-19)
(-0.00157606 -0.00469036 9.28779e-20)
(-0.00513803 -0.0100427 -9.63171e-20)
(-0.00988813 -0.0125555 1.67052e-19)
(-0.0146535 -0.0131075 4.8068e-20)
(-0.018707 -0.0122846 -1.20993e-19)
(-0.0216968 -0.0104886 2.41231e-20)
(-0.0234134 -0.0080093 5.05914e-20)
(-0.0237272 -0.005057 -1.00472e-20)
(-0.0225697 -0.00178318 2.59854e-19)
(-0.0199159 0.00170156 -3.39507e-19)
(-0.0157705 0.00531271 -5.84002e-20)
(-0.0101593 0.00897918 1.24851e-19)
(-0.00312622 0.0126314 2.51238e-21)
(0.00526568 0.0161892 -1.4542e-19)
(0.0149278 0.0195482 -2.57233e-20)
(0.0257301 0.0225669 -9.67249e-20)
(0.0374866 0.0250574 -7.8638e-20)
(0.0499961 0.0267688 2.28032e-19)
(0.063082 0.0273279 -5.80126e-20)
(0.0759191 0.0262595 1.39563e-19)
(-0.00106271 -0.00164497 3.10163e-20)
(-0.00433355 -0.00353795 -9.35943e-20)
(-0.00954748 -0.00443969 6.04237e-20)
(-0.015302 -0.00465788 -4.52781e-21)
(-0.0207242 -0.00439695 -6.34642e-20)
(-0.0253782 -0.00379601 5.39155e-20)
(-0.0289951 -0.00295538 -3.31269e-20)
(-0.0314003 -0.00194773 1.27838e-20)
(-0.0324923 -0.000825431 5.07189e-20)
(-0.0322215 0.000373189 -8.01943e-20)
(-0.0305737 0.00161869 3.84059e-20)
(-0.0275602 0.00288614 4.75805e-20)
(-0.0232136 0.00415079 -1.21602e-20)
(-0.0175884 0.00538405 4.08688e-20)
(-0.0107665 0.00654898 -2.10619e-20)
(-0.00286882 0.00759623 3.20372e-20)
(0.0059342 0.0084619 -1.27729e-19)
(0.0154261 0.00906545 4.24011e-20)
(0.0253278 0.00929372 1.47934e-20)
(0.0350691 0.00899126 -7.49873e-20)
(1.1482 -0.235968 -1.89227e-20)
(1.14656 -0.208808 5.67048e-21)
(1.14522 -0.187418 1.32554e-20)
(1.14395 -0.168266 1.93439e-20)
(1.1422 -0.151255 -4.26214e-20)
(1.14004 -0.13596 4.33943e-20)
(1.13757 -0.12205 -4.92747e-20)
(1.13491 -0.109319 2.95905e-20)
(1.13219 -0.0975939 -9.17849e-21)
(1.12947 -0.0867243 3.58946e-21)
(1.12685 -0.0765807 -2.53091e-21)
(1.12438 -0.0670533 1.80457e-20)
(1.12211 -0.0580471 2.34797e-21)
(1.12006 -0.0494789 -3.52788e-21)
(1.11828 -0.0412745 -5.57061e-21)
(1.11678 -0.0333672 -3.96502e-21)
(1.11558 -0.0256972 -4.53246e-21)
(1.11469 -0.0182072 3.14293e-21)
(1.11412 -0.0108289 1.60324e-21)
(1.11385 -0.00353763 -2.37665e-21)
(1.17879 -0.230931 1.52472e-20)
(1.1724 -0.204379 4.51689e-22)
(1.16729 -0.182901 8.68007e-22)
(1.16305 -0.164008 -7.44671e-22)
(1.15902 -0.14737 5.06699e-21)
(1.15509 -0.132465 -5.62238e-21)
(1.15121 -0.118916 5.67868e-21)
(1.14736 -0.106524 -4.31789e-21)
(1.14365 -0.0951246 1.14478e-20)
(1.14013 -0.0845576 -1.55346e-20)
(1.13684 -0.0746929 -1.33705e-21)
(1.13382 -0.0654225 6.6859e-22)
(1.13108 -0.0566538 3.75032e-21)
(1.12866 -0.048306 -2.52622e-22)
(1.12657 -0.0403075 2.26063e-21)
(1.12482 -0.0325942 -1.98048e-21)
(1.12343 -0.0251089 4.05762e-21)
(1.12239 -0.017798 -6.87399e-22)
(1.12171 -0.0105973 -2.65171e-21)
(1.12138 -0.00347371 7.13363e-22)
(1.20797 -0.2228 -2.19804e-20)
(1.19748 -0.197844 2.18574e-20)
(1.18884 -0.177017 -1.06634e-20)
(1.18179 -0.158755 -1.29068e-21)
(1.17559 -0.142761 1.05385e-22)
(1.16991 -0.128442 3.97177e-22)
(1.16462 -0.115332 -5.60409e-22)
(1.15965 -0.103346 5.44229e-22)
(1.15501 -0.0923579 -6.8626e-22)
(1.15072 -0.0821596 2.51683e-21)
(1.14678 -0.0726242 -4.85608e-22)
(1.14321 -0.0636501 2.26391e-21)
(1.14002 -0.0551498 -6.09072e-21)
(1.13721 -0.0470474 2.15498e-21)
(1.13481 -0.0392755 1.05815e-21)
(1.1328 -0.0317737 -7.46923e-22)
(1.1312 -0.0244882 2.00034e-21)
(1.13001 -0.0173691 6.07163e-22)
(1.12921 -0.0103586 1.21644e-21)
(1.12881 -0.00341342 -3.01189e-22)
(1.23492 -0.211968 1.22442e-20)
(1.22137 -0.189441 1.71792e-21)
(1.20969 -0.16991 -5.73722e-21)
(1.20003 -0.152663 4.23475e-21)
(1.19177 -0.137439 2.44687e-21)
(1.1844 -0.123791 -3.83346e-21)
(1.17775 -0.111332 1.86575e-21)
(1.17171 -0.0999115 -3.83657e-22)
(1.16619 -0.0893892 -1.26481e-21)
(1.16114 -0.0795981 5.19196e-22)
(1.15657 -0.0704235 1.79767e-22)
(1.15247 -0.0617719 5.58371e-24)
(1.14882 -0.0535623 -1.26967e-22)
(1.14564 -0.0457241 6.3308e-22)
(1.14292 -0.0381946 -8.92655e-22)
(1.14065 -0.0309179 3.64071e-22)
(1.13884 -0.0238436 1.23306e-22)
(1.13748 -0.0169255 -4.22948e-23)
(1.13656 -0.0101109 -2.67907e-22)
(1.1361 -0.0033514 4.25419e-23)
(1.25913 -0.198591 -1.42953e-20)
(1.24356 -0.179396 -1.28222e-21)
(1.22953 -0.161736 8.75404e-21)
(1.21759 -0.145817 -6.84008e-21)
(1.20743 -0.131575 -3.66499e-21)
(1.19854 -0.118734 6.54688e-21)
(1.19064 -0.107008 -4.35009e-21)
(1.18357 -0.0962186 3.90248e-22)
(1.17717 -0.0862202 3.01679e-21)
(1.17139 -0.0768805 -1.17124e-21)
(1.16619 -0.0681009 -1.62797e-21)
(1.16155 -0.0597986 -1.1581e-22)
(1.15745 -0.0519009 1.37433e-22)
(1.15388 -0.0443439 2.31818e-22)
(1.15084 -0.037071 -1.05453e-23)
(1.1483 -0.0300309 -2.21048e-24)
(1.14628 -0.0231772 -1.87715e-23)
(1.14474 -0.0164674 1.67931e-23)
(1.14371 -0.00985573 1.11463e-23)
(1.14318 -0.00328774 1.83049e-23)
(1.27991 -0.182716 5.55592e-20)
(1.2636 -0.167716 -7.65056e-20)
(1.24806 -0.152582 3.17002e-20)
(1.23433 -0.138336 5.83664e-21)
(1.22247 -0.125278 2.99818e-20)
(1.21217 -0.113359 -3.86249e-20)
(1.20312 -0.102418 2.01122e-20)
(1.19507 -0.0922972 -8.99321e-21)
(1.18785 -0.0828672 -4.58398e-21)
(1.18136 -0.074019 6.12381e-21)
(1.17555 -0.0656674 -8.72252e-21)
(1.17038 -0.0577401 7.99703e-21)
(1.16583 -0.0501742 -7.33834e-21)
(1.16188 -0.042914 1.2493e-21)
(1.15851 -0.0359097 6.07637e-23)
(1.1557 -0.0291157 4.81657e-22)
(1.15346 -0.0224901 1.9252e-23)
(1.15176 -0.0159945 -1.01236e-22)
(1.1506 -0.0095911 -2.58381e-22)
(1.15001 -0.0032195 -3.08142e-22)
(1.29598 -0.164161 -1.42275e-19)
(1.28094 -0.154276 3.0278e-20)
(1.26525 -0.142423 -1.10226e-19)
(1.25044 -0.130257 4.20457e-20)
(1.23717 -0.118607 5.09964e-20)
(1.22551 -0.107745 -4.23157e-20)
(1.2153 -0.0976531 2.06072e-20)
(1.20626 -0.0882321 -1.19689e-20)
(1.1982 -0.0793925 4.87863e-21)
(1.19101 -0.0710549 -9.06988e-21)
(1.18459 -0.0631486 1.36775e-21)
(1.17891 -0.0556119 7.83895e-22)
(1.17391 -0.0483912 4.84341e-21)
(1.16957 -0.0414392 2.50863e-21)
(1.16587 -0.0347131 2.45234e-21)
(1.1628 -0.028173 -2.834e-21)
(1.16034 -0.0217815 2.58653e-21)
(1.15847 -0.0155048 -8.08513e-22)
(1.1572 -0.00931312 -6.31791e-22)
(1.15655 -0.00314291 -6.59222e-23)
(1.30474 -0.14259 -1.32898e-19)
(1.29388 -0.139026 5.19235e-20)
(1.27979 -0.131266 7.35116e-20)
(1.26483 -0.121495 7.04366e-20)
(1.25066 -0.111414 -1.4931e-19)
(1.23801 -0.101744 1.2775e-19)
(1.22685 -0.0925976 -4.37158e-20)
(1.21696 -0.0839452 -9.14813e-21)
(1.20816 -0.0757531 -1.71125e-20)
(1.2003 -0.0679714 7.93538e-21)
(1.1933 -0.0605431 -3.03843e-21)
(1.1871 -0.0534193 2.01191e-20)
(1.18166 -0.0465591 7.13397e-22)
(1.17693 -0.039926 -5.63466e-21)
(1.17291 -0.0334857 -5.0555e-21)
(1.16956 -0.0272051 -1.83315e-21)
(1.16688 -0.0210522 -2.4243e-21)
(1.16485 -0.0149976 2.658e-21)
(1.16347 -0.00901968 9.0217e-22)
(1.16276 -0.00305558 -4.52275e-22)
(1.30301 -0.116962 -3.27672e-19)
(1.30201 -0.121189 -6.84892e-20)
(1.29282 -0.118646 -5.8482e-20)
(1.27911 -0.111958 1.728e-19)
(1.26448 -0.103938 2.58682e-20)
(1.25076 -0.0957246 -1.41618e-19)
(1.23842 -0.0875812 6.9201e-20)
(1.22746 -0.0796674 -1.60004e-20)
(1.21777 -0.0720852 6.9919e-20)
(1.20919 -0.0648347 -8.71597e-20)
(1.20159 -0.0578739 2.55952e-21)
(1.19488 -0.0511632 4.63767e-21)
(1.189 -0.0446695 1.62064e-20)
(1.1839 -0.0383631 -1.25095e-20)
(1.17955 -0.032216 5.02133e-21)
(1.17595 -0.0262018 1.10554e-20)
(1.17305 -0.0202934 5.60432e-21)
(1.17087 -0.0144662 -6.40208e-21)
(1.16938 -0.00870578 -2.84663e-21)
(1.16863 -0.00295467 1.45132e-21)
(1.2832 -0.0876591 -1.35409e-19)
(1.29756 -0.100726 1.43902e-19)
(1.29634 -0.103731 5.71252e-20)
(1.28657 -0.100348 -4.04244e-20)
(1.27406 -0.0948324 7.11624e-21)
(1.2612 -0.0885364 -6.53475e-20)
(1.24883 -0.0817912 1.66816e-20)
(1.23741 -0.0749344 -1.46422e-20)
(1.2271 -0.0681803 2.29659e-20)
(1.21789 -0.0615853 -3.23478e-20)
(1.20969 -0.0551545 -4.13648e-20)
(1.20244 -0.0488855 5.20385e-20)
(1.19608 -0.0427696 -6.2134e-21)
(1.19057 -0.0367929 -1.18733e-20)
(1.18588 -0.0309389 6.90353e-21)
(1.18198 -0.0251897 1.73378e-21)
(1.17887 -0.0195247 -9.89588e-22)
(1.17652 -0.0139237 4.79291e-21)
(1.17493 -0.00837887 -2.40955e-21)
(1.17413 -0.00284203 -7.58627e-22)
(1.24742 -0.0535947 -1.30921e-19)
(1.29034 -0.0760727 -4.25155e-19)
(1.30252 -0.0867003 5.32143e-19)
(1.29791 -0.0887577 -2.97031e-19)
(1.28653 -0.0866742 1.42707e-19)
(1.27289 -0.082223 -5.13297e-20)
(1.25926 -0.0765102 2.19483e-20)
(1.24672 -0.0703867 -3.94272e-20)
(1.23555 -0.0642442 7.75705e-20)
(1.22567 -0.0581902 -9.85814e-20)
(1.21693 -0.0522485 5.51121e-20)
(1.20922 -0.0464205 -1.8698e-20)
(1.20247 -0.0406987 6.84256e-20)
(1.19663 -0.0350731 -5.67499e-20)
(1.19165 -0.0295344 1.96275e-20)
(1.18752 -0.0240716 5.63873e-21)
(1.18422 -0.018671 -2.85924e-21)
(1.18174 -0.0133172 3.20117e-21)
(1.18007 -0.00800731 -1.1106e-20)
(1.17923 -0.0027069 2.18795e-21)
(1.15946 -0.0252749 2.64335e-19)
(1.2308 -0.045094 9.55765e-21)
(1.26956 -0.0591786 -6.08134e-19)
(1.28574 -0.0677799 5.0874e-19)
(1.28728 -0.0717626 -3.50004e-19)
(1.28019 -0.0718374 1.87013e-19)
(1.26918 -0.0692562 -8.78816e-20)
(1.25717 -0.0651784 6.05741e-20)
(1.24555 -0.0603299 -1.19431e-20)
(1.23488 -0.0551192 -3.61047e-20)
(1.22531 -0.0497689 2.6841e-21)
(1.21684 -0.0443882 1.89276e-20)
(1.20942 -0.0390253 1.99379e-20)
(1.203 -0.0337004 -1.3601e-20)
(1.19754 -0.0284211 1.72548e-20)
(1.19301 -0.0231881 -7.99006e-21)
(1.1894 -0.0179958 1.43128e-11)
(1.18669 -0.0128347 -1.41948e-11)
(1.18489 -0.00770493 8.35651e-21)
(1.184 -0.00258648 -4.81525e-21)
(1.13296 -0.0108273 -2.55929e-27)
(1.2207 -0.0344907 2.56521e-27)
(1.26631 -0.0481062 0)
(1.28701 -0.0571047 0)
(1.29118 -0.0619262 0)
(1.28553 -0.0630838 0)
(1.27516 -0.0616708 -1.50901e-27)
(1.2632 -0.058671 1.50911e-27)
(1.25134 -0.0547548 0)
(1.2403 -0.0503438 0)
(1.23035 -0.0456837 0)
(1.22153 -0.0409057 0)
(1.2138 -0.0360769 0)
(1.20712 -0.0312328 0)
(1.20143 -0.0263922 6.53605e-28)
(1.19673 -0.0215649 -6.53856e-28)
(1.19298 -0.0167537 1.42724e-11)
(1.19018 -0.0119556 -1.42791e-11)
(1.18833 -0.00717336 0)
(1.18741 -0.0024002 0)
(1.11818 -0.000837926 5.14425e-27)
(1.21229 -0.0263216 -5.151e-27)
(1.26147 -0.0402619 0)
(1.28466 -0.0494983 0)
(1.29073 -0.0547467 3.54168e-27)
(1.28649 -0.056577 -3.54168e-27)
(1.27702 -0.0559411 2.08368e-27)
(1.26556 -0.0536942 -2.08368e-27)
(1.25392 -0.0504603 0)
(1.24296 -0.0466531 0)
(1.23302 -0.0425236 0)
(1.22416 -0.0382136 0)
(1.21638 -0.0338017 0)
(1.20965 -0.0293333 0)
(1.20392 -0.0248352 0)
(1.19917 -0.0203237 0)
(1.19539 -0.0158077 1.45303e-11)
(1.19256 -0.0112896 -1.45303e-11)
(1.19069 -0.0067743 8.78212e-28)
(1.18977 -0.00226348 -8.83772e-28)
(1.10453 0.00712672 -2.45518e-27)
(1.20283 -0.0179314 2.45836e-27)
(1.25513 -0.0325198 0)
(1.28049 -0.0422076 0)
(1.2884 -0.0479284 -1.6976e-27)
(1.28566 -0.0503863 1.6976e-27)
(1.27728 -0.0504481 0)
(1.26655 -0.0488828 0)
(1.25538 -0.046278 0)
(1.2447 -0.0430369 0)
(1.23493 -0.0394119 -9.28854e-28)
(1.22619 -0.0355523 9.28854e-28)
(1.21848 -0.0315457 -1.90347e-11)
(1.21179 -0.0274452 1.90347e-11)
(1.20609 -0.0232846 -6.93674e-28)
(1.20137 -0.0190859 6.93674e-28)
(1.1976 -0.0148633 1.52426e-11)
(1.19478 -0.0106243 -1.52426e-11)
(1.19292 -0.0063772 -6.69295e-28)
(1.19199 -0.00212918 6.73532e-28)
(1.09137 0.0139449 5.03547e-27)
(1.19288 -0.00978198 -5.04191e-27)
(1.2485 -0.0250121 0)
(1.27614 -0.0352267 0)
(1.28585 -0.0414515 0)
(1.28455 -0.0445062 0)
(1.27724 -0.045206 0)
(1.26724 -0.0442635 0)
(1.25655 -0.0422385 0)
(1.24618 -0.0395246 0)
(1.23661 -0.036375 0)
(1.228 -0.0329446 0)
(1.22038 -0.0293279 -3.92733e-11)
(1.21376 -0.0255843 3.92733e-11)
(1.2081 -0.0217531 0)
(1.20341 -0.0178613 0)
(1.19966 -0.0139279 0)
(1.19686 -0.009965 0)
(1.195 -0.00598435 0)
(1.19408 -0.00199737 0)
(1.07908 0.0200237 0)
(1.18296 -0.00220672 0)
(1.24184 -0.0179094 -1.1057e-28)
(1.27183 -0.0285944 1.1057e-28)
(1.28332 -0.0352962 0)
(1.28341 -0.0389016 0)
(1.27711 -0.040184 -1.5365e-27)
(1.26782 -0.0398134 1.5365e-27)
(1.25759 -0.038326 0)
(1.24753 -0.0361061 0)
(1.23815 -0.0334066 0)
(1.22967 -0.0303866 0)
(1.22215 -0.0271458 -2.02011e-11)
(1.21558 -0.0237487 2.02011e-11)
(1.20998 -0.0202394 7.45291e-28)
(1.20531 -0.0166491 -7.45291e-28)
(1.20159 -0.0130009 0)
(1.1988 -0.00931115 0)
(1.19696 -0.00559502 0)
(1.19604 -0.0018673 0)
(1.06782 0.025425 0)
(1.17328 0.00470168 0)
(1.23508 -0.0112613 0)
(1.26738 -0.022324 0)
(1.28063 -0.0294546 -5.6367e-28)
(1.28207 -0.0335585 5.6367e-28)
(1.27677 -0.0353703 4.97257e-28)
(1.26818 -0.0355249 -4.97257e-28)
(1.25842 -0.0345367 0)
(1.24868 -0.0327802 0)
(1.23951 -0.0305073 0)
(1.23117 -0.0278798 0)
(1.22375 -0.0250013 0)
(1.21726 -0.0219405 0)
(1.2117 -0.0187454 0)
(1.20708 -0.0154509 0)
(1.20338 -0.0120836 1.71024e-11)
(1.20061 -0.00866367 -1.71024e-11)
(1.19878 -0.00520953 2.43915e-28)
(1.19787 -0.00173884 -2.45459e-28)
(1.05753 0.0302222 0)
(1.16388 0.0109647 0)
(1.2282 -0.00506212 9.32569e-28)
(1.2627 -0.0164115 -9.32569e-28)
(1.27768 -0.023922 -2.20125e-27)
(1.28046 -0.0284744 2.20125e-27)
(1.27616 -0.0307662 0)
(1.26828 -0.0314024 0)
(1.25901 -0.0308769 1.56199e-27)
(1.24959 -0.0295545 -1.56199e-27)
(1.24066 -0.0276849 0)
(1.23248 -0.0254314 0)
(1.22517 -0.022901 -2.11838e-11)
(1.21876 -0.0201655 2.11838e-11)
(1.21327 -0.0172759 0)
(1.20869 -0.0142705 0)
(1.20503 -0.0111789 1.76355e-11)
(1.20229 -0.00802465 -1.76355e-11)
(1.20047 -0.00482901 0)
(1.19956 -0.00161222 0)
(1.04808 0.0345104 0)
(1.15481 0.0166277 0)
(1.22126 0.000699935 0)
(1.25784 -0.0108512 0)
(1.27452 -0.018693 0)
(1.27861 -0.0236468 0)
(1.2753 -0.0263733 0)
(1.26813 -0.0274503 0)
(1.25937 -0.0273529 3.99585e-28)
(1.2503 -0.026436 -3.99585e-28)
(1.24161 -0.0249464 0)
(1.2336 -0.0230485 0)
(1.22642 -0.0208512 -2.15938e-11)
(1.22011 -0.018429 2.15938e-11)
(1.21469 -0.0158357 2.73342e-28)
(1.21017 -0.0131119 -2.73342e-28)
(1.20655 -0.0102899 2.54312e-28)
(1.20383 -0.00739615 -2.54312e-28)
(1.20203 -0.00445463 0)
(1.20113 -0.00148774 0)
(1.03937 0.0383626 0)
(1.14609 0.0217372 0)
(1.21434 0.00603655 0)
(1.25287 -0.00563698 0)
(1.27118 -0.0137607 0)
(1.27655 -0.0190712 0)
(1.27422 -0.0221901 0)
(1.26777 -0.0236702 0)
(1.25952 -0.0239681 0)
(1.25081 -0.0234292 0)
(1.24237 -0.022297 0)
(1.23455 -0.020736 0)
(1.22751 -0.0188567 -2.19529e-11)
(1.22131 -0.0167356 2.19529e-11)
(1.21597 -0.0144284 1.9896e-11)
(1.21151 -0.0119779 -1.9896e-11)
(1.20793 -0.0094188 1.0252e-27)
(1.20525 -0.00677985 -1.0252e-27)
(1.20346 -0.00408734 -1.4403e-28)
(1.20257 -0.00136566 1.44942e-28)
(1.03131 0.0418308 0)
(1.13774 0.026342 0)
(1.20747 0.0109624 0)
(1.24781 -0.000762053 0)
(1.26769 -0.00911701 0)
(1.27432 -0.0147415 0)
(1.27296 -0.0182137 0)