/*--------------------------------*- C++ -*----------------------------------*\
  =========                 |
  \\      /  F ield         | OpenFOAM: The Open Source CFD Toolbox
   \\    /   O peration     | Website:  https://openfoam.org
    \\  /    A nd           | Version:  7
     \\/     M anipulation  |
\*---------------------------------------------------------------------------*/
FoamFile
{
    version     2.0;
    format      ascii;
    class       surfaceScalarField;
    location    "99.999";
    object      phi;
}
// * * * * * * * * * * * * * * * * * * * * * * * * * * * * * * * * * * * * * //

dimensions      [0 3 -1 0 0 0 0];

internalField   nonuniform List<scalar> 
7248
(
-0.000163035
0.000111654
-0.000444474
0.000196389
-0.000757171
0.000222408
-0.0010742
0.000229814
-0.00139296
0.000235728
-0.00171532
0.000243451
-0.00204311
0.000252914
-0.00237795
0.000263872
-0.00272128
0.000276164
-0.00307442
0.000289654
-0.00343863
0.000304243
-0.00381509
0.000319841
-0.00420485
0.000336319
-0.00460877
0.00035355
0.000371671
-0.00502795
-0.000162288
0.000273942
-0.000442841
0.000476942
-0.000754789
0.000534356
-0.00107116
0.000546189
-0.00138929
0.000553857
-0.00171103
0.000565187
-0.00203821
0.000580099
-0.00237245
0.000598102
-0.00271517
0.000618888
-0.00306771
0.000642194
-0.00343131
0.000667849
-0.00380717
0.000695698
-0.00419633
0.000725479
-0.00459965
0.00075687
0.000790344
-0.00501832
-0.000160858
0.0004348
-0.000439741
0.000755825
-0.000750289
0.000844904
-0.00106544
0.00086134
-0.0013824
0.000870814
-0.00170298
0.00088577
-0.00202902
0.000906143
-0.00236212
0.000931197
-0.00270371
0.000960477
-0.00305511
0.000993597
-0.00341757
0.00103031
-0.00379227
0.0010704
-0.00418027
0.00111348
-0.00458243
0.00115903
0.00120781
-0.0049999
-0.000158748
0.000593548
-0.000435174
0.00103225
-0.000743672
0.0011534
-0.00105703
0.0011747
-0.00137228
0.00118606
-0.00169117
0.00120467
-0.00201555
0.00123052
-0.00234698
0.00126263
-0.0026869
0.0013004
-0.00303663
0.00134333
-0.00339741
0.00139108
-0.0037704
0.0014434
-0.00415669
0.00149976
-0.00455714
0.00155948
0.00162353
-0.00497286
-0.00015596
0.000749507
-0.000429144
0.00130544
-0.000734939
0.0014592
-0.00104595
0.00148571
-0.00135894
0.00149905
-0.00167562
0.00152135
-0.00199779
0.00155269
-0.00232704
0.00159187
-0.00266477
0.00163813
-0.00301229
0.00169085
-0.00337084
0.00174963
-0.00374159
0.00181414
-0.0041256
0.00188378
-0.00452378
0.00195766
0.0020369
-0.00493715
-0.000152498
0.000902005
-0.000421652
0.00157459
-0.000724092
0.00176164
-0.00103218
0.0017938
-0.00134238
0.00180925
-0.00165632
0.00183528
-0.00197578
0.00187215
-0.0023023
0.0019184
-0.00263732
0.00197315
-0.0029821
0.00203564
-0.00333789
0.00210541
-0.00370583
0.00218209
-0.00408703
0.00226497
-0.00448236
0.002353
0.00244734
-0.00489281
-0.000148368
0.00105037
-0.000412705
0.00183893
-0.000711133
0.00206006
-0.00101574
0.00209841
-0.00132263
0.00211614
-0.0016333
0.00214595
-0.00194951
0.00218836
-0.0022728
0.00224169
-0.00260457
0.00230492
-0.0029461
0.00237717
-0.00329858
0.00245789
-0.00366318
0.00254669
-0.00404099
0.00264279
-0.00443292
0.00274493
0.00285426
-0.00483985
-0.000143577
0.00119395
-0.000402306
0.00209766
-0.000696068
0.00235383
-0.000996642
0.00239898
-0.00129968
0.00241917
-0.00160656
0.00245283
-0.00191901
0.00250081
-0.00223856
0.00256123
-0.00256656
0.00263292
-0.0029043
0.0027149
-0.00325294
0.00280654
-0.00361365
0.0029074
-0.00398754
0.00301667
-0.0043755
0.00313289
0.00325707
-0.0047783
-0.000138131
0.00133208
-0.000390462
0.00234999
-0.000678898
0.00264226
-0.000974879
0.00269496
-0.00127355
0.00271784
-0.00157613
0.00275541
-0.00188431
0.002809
-0.00219959
0.00287651
-0.00252332
0.00295665
-0.00285674
0.00304832
-0.00320102
0.00315082
-0.0035573
0.00326369
-0.0039267
0.00338606
-0.00431012
0.00351631
0.00365519
-0.00470824
-0.000132041
0.00146412
-0.000377182
0.00259513
-0.000659631
0.00292471
-0.000950464
0.0029858
-0.00124425
0.00301163
-0.00154202
0.00305318
-0.00184543
0.00311241
-0.00215595
0.00318703
-0.00247488
0.00327559
-0.00280347
0.00337691
-0.00314286
0.00349021
-0.00349418
0.003615
-0.00385854
0.00375043
-0.00423687
0.00389464
0.00404803
-0.00462971
-0.000125318
0.00158944
-0.000362475
0.00283228
-0.000638272
0.00320051
-0.000923405
0.00327093
-0.0012118
0.00330002
-0.00150426
0.00334565
-0.00180241
0.00341055
-0.00210765
0.00349227
-0.0024213
0.00358924
-0.00274454
0.00370015
-0.00307851
0.00382418
-0.00342432
0.00396081
-0.00378311
0.00410922
-0.0041558
0.00426733
0.00443504
-0.00454281
-0.000117974
0.00170741
-0.000346352
0.00306066
-0.000614828
0.00346898
-0.000893714
0.00354982
-0.00117621
0.00358251
-0.00146288
0.00363232
-0.00175527
0.00370294
-0.00205475
0.00379176
-0.00236261
0.00389709
-0.00268
0.00401754
-0.00300803
0.00415221
-0.00334781
0.00430059
-0.00370049
0.0044619
-0.004067
0.00463384
0.00481566
-0.00444762
-0.000110026
0.00181744
-0.000328827
0.00327946
-0.000589308
0.00372946
-0.0008614
0.00382191
-0.00113751
0.00385863
-0.00141791
0.00391272
-0.00170405
0.00398908
-0.0019973
0.004085
-0.00229887
0.00419867
-0.00260992
0.00432859
-0.00293149
0.00447378
-0.0032647
0.0046338
-0.00361074
0.00480793
-0.00397056
0.00499366
0.00518938
-0.00434428
-0.000101491
0.00191893
-0.000309918
0.00348789
-0.000561722
0.00398127
-0.000826476
0.00408666
-0.00109572
0.00412787
-0.00136937
0.00418637
-0.00164881
0.00426852
-0.00193533
0.00437153
-0.00223015
0.00449349
-0.00253436
0.0046328
-0.00284898
0.0047884
-0.00317507
0.00495989
-0.00351393
0.00514679
-0.00386657
0.00534631
0.0055557
-0.0042329
-9.23915e-05
0.00201132
-0.000289643
0.00368514
-0.000532083
0.00422371
-0.000788957
0.00434354
-0.00105086
0.00438977
-0.0013173
0.00445281
-0.00158957
0.00454079
-0.00186893
0.00465088
-0.00215651
0.00478107
-0.00245341
0.00492969
-0.00276056
0.00509555
-0.00307898
0.00527831
-0.00341008
0.00547789
-0.0037551
0.00569133
0.00591423
-0.00411363
-8.27544e-05
0.00209408
-0.000268025
0.00387041
-0.000500405
0.00445609
-0.000748857
0.00459199
-0.00100295
0.00464386
-0.00126175
0.00471161
-0.00152641
0.00480545
-0.00179814
0.00492261
-0.00207804
0.00506097
-0.00236715
0.0052188
-0.00266638
0.00539478
-0.0029766
0.00558854
-0.00329933
0.00580061
-0.00363631
0.00602831
0.00626467
-0.00398675
-7.26136e-05
0.00216669
-0.000245092
0.00404289
-0.000466704
0.0046777
-0.000706194
0.00483148
-0.000952029
0.0048897
-0.00120275
0.00496233
-0.00145937
0.00506207
-0.00172303
0.00518627
-0.00199479
0.00533273
-0.00227565
0.00549966
-0.00256648
0.00568561
-0.00286792
0.00588998
-0.0031814
0.00611408
-0.00350977
0.00635668
0.00660725
-0.00385235
-6.20087e-05
0.0022287
-0.000220873
0.00420176
-0.000431
0.00488783
-0.000660987
0.00506147
-0.000898121
0.00512683
-0.00114035
0.00520456
-0.00138851
0.00531024
-0.0016437
0.00544146
-0.00190689
0.00559592
-0.00217907
0.00577184
-0.00246113
0.00596767
-0.00275355
0.0061824
-0.00305718
0.00641771
-0.00337617
0.00667568
0.00694283
-0.00371174
-5.09303e-05
0.00227963
-0.000195399
0.00434622
-0.000393316
0.00508575
-0.000613259
0.00528141
-0.000841261
0.00535483
-0.00107459
0.00543788
-0.0013139
0.00554955
-0.0015602
0.00568775
-0.00181441
0.00585012
-0.00207743
0.00603487
-0.00235019
0.00624043
-0.002633
0.00646521
-0.00292531
0.00671002
-0.00323122
0.00698159
0.00727503
-0.00356342
-3.94119e-05
0.00231904
-0.000168712
0.00447552
-0.000353679
0.00527071
-0.000563035
0.00549076
-0.000781485
0.00557328
-0.00100553
0.00566193
-0.00123561
0.00577963
-0.00147264
0.00592478
-0.00171747
0.00609496
-0.00197095
0.00628835
-0.00223403
0.00650351
-0.00250751
0.0067387
-0.00279061
0.00699311
-0.00308147
0.00727245
0.00760999
-0.00341643
-2.74938e-05
0.00234653
-0.000140857
0.00458889
-0.00031212
0.00544198
-0.000510347
0.00568899
-0.000718832
0.00578177
-0.000933229
0.00587633
-0.0011537
0.00600011
-0.00138109
0.00615218
-0.00161619
0.00633006
-0.00185975
0.00653191
-0.00211264
0.0067564
-0.00237577
0.00700182
-0.00264956
0.0072669
-0.002935
0.00755789
0.0078854
-0.00321041
-1.51897e-05
0.00236172
-0.000111875
0.00468557
-0.000268678
0.00559878
-0.000455236
0.00587555
-0.000653346
0.00597988
-0.000857737
0.00608072
-0.00106826
0.00621063
-0.00128567
0.00636958
-0.00151068
0.00655507
-0.00174397
0.0067652
-0.00198625
0.00699868
-0.00223841
0.00725398
-0.00250092
0.00752942
-0.00277205
0.00782902
0.00816626
-0.00305291
-2.26473e-06
0.00236399
-8.17814e-05
0.00476509
-0.0002234
0.0057404
-0.000397755
0.00604991
-0.000585074
0.0061672
-0.000779117
0.00627476
-0.000979367
0.00641088
-0.00118645
0.00657666
-0.00140104
0.00676966
-0.00162374
0.0069879
-0.00185517
0.00723011
-0.00209616
0.00749497
-0.00234779
0.00778105
-0.00261035
0.00809158
0.00843548
-0.00287957
9.99369e-06
0.002354
-5.04822e-05
0.00482557
-0.000176379
0.00586629
-0.000337977
0.0062115
-0.000514067
0.00634329
-0.000697437
0.00645813
-0.0008871
0.00660054
-0.00108355
0.00677311
-0.0012874
0.00697351
-0.00149923
0.00719973
-0.0017196
0.00745047
-0.00194935
0.00772473
-0.00218972
0.00802142
-0.00244087
0.00834273
0.00869394
-0.00269933
2.24629e-05
0.00233153
-1.72454e-05
0.00486527
-0.000127838
0.00597689
-0.00027597
0.00635964
-0.00044038
0.0065077
-0.000612766
0.00663052
-0.00079155
0.00677933
-0.000977069
0.00695863
-0.00116989
0.00716633
-0.00137055
0.00740039
-0.00157961
0.00765953
-0.00179788
0.00794299
-0.0020265
0.00825004
-0.00226536
0.00858159
0.00894012
-0.00251154
3.47368e-05
0.0022968
1.49616e-05
0.00488505
-7.8237e-05
0.00607008
-0.000211791
0.00649319
-0.000364087
0.00665999
-0.000525181
0.00679161
-0.000692804
0.00694695
-0.000867117
0.00713294
-0.00104862
0.00734784
-0.00123783
0.0075896
-0.00143528
0.00785698
-0.00164173
0.00814944
-0.00185821
0.00846652
-0.00208463
0.00880801
0.00917385
-0.00231836
4.66785e-05
0.00225012
4.56939e-05
0.00488603
-2.72161e-05
0.00614299
-0.000145541
0.00661152
-0.000285286
0.00679974
-0.000434763
0.00694109
-0.000590954
0.00710314
-0.000753801
0.00729579
-0.000923726
0.00751776
-0.0011012
0.00776708
-0.00128673
0.00804251
-0.00148101
0.00834372
-0.00168496
0.00867047
-0.00189854
0.00902158
0.00939506
-0.00211975
5.84083e-05
0.00219171
7.78305e-05
0.00486661
2.52644e-05
0.00619556
-7.73838e-05
0.00671416
-0.000204056
0.00692641
-0.00034159
0.00707862
-0.000486095
0.00724765
-0.000637232
0.00744692
-0.000795322
0.00767585
-0.000960789
0.00793254
-0.00113411
0.00821583
-0.00131589
0.00852551
-0.00150693
0.0088615
-0.00170716
0.00922182
0.00960314
-0.00191524
6.97958e-05
0.00212191
0.00011032
0.00482609
7.83683e-05
0.00622751
-7.45202e-06
0.00679998
-0.000120504
0.00703946
-0.000245752
0.00720387
-0.000378328
0.00738022
-0.000517527
0.00758612
-0.000663546
0.00782187
-0.000816751
0.00808575
-0.000977566
0.00837664
-0.00114654
0.00869449
-0.00132431
0.00903927
-0.00151083
0.00940834
0.00979741
-0.0017051
8.06317e-05
0.00204128
0.000142752
0.00476397
0.000132513
0.00623775
6.42162e-05
0.00686828
-3.49321e-05
0.00713861
-0.000147357
0.0073163
-0.000267767
0.00750063
-0.000394809
0.00771316
-0.000528541
0.0079556
-0.00066924
0.00822645
-0.000817283
0.00852469
-0.000973136
0.00885034
-0.00113733
0.00920346
-0.00130983
0.00958083
0.00997743
-0.00148986
9.07263e-05
0.00195056
0.000174802
0.00467989
0.000187221
0.00622533
0.00013747
0.00691803
5.32326e-05
0.00722285
-4.66348e-05
0.00741616
-0.000154549
0.00760855
-0.000269206
0.00782782
-0.000390461
0.00807686
-0.000518426
0.00835441
-0.000653441
0.0086597
-0.000795881
0.00899278
-0.000946214
0.0093538
-0.00110443
0.00973905
0.0101429
-0.0012699
9.99032e-05
0.00185065
0.000206114
0.00457368
0.000242147
0.0061893
0.000212016
0.00694816
0.000143427
0.00729144
5.67539e-05
0.00750284
-3.89623e-05
0.00770426
-0.000140884
0.00792974
-0.000249477
0.00818545
-0.000364477
0.00846941
-0.000486242
0.00878147
-0.000614998
0.00912153
-0.000751188
0.00948999
-0.000894933
0.0098828
0.0102935
-0.00104553
0.000107988
0.00174266
0.000236299
0.00444537
0.000296908
0.00612869
0.000287531
0.00695754
0.000235314
0.00734365
0.000162504
0.00757565
7.95324e-05
0.00778724
-1.04774e-05
0.00801975
-0.000105796
0.00828077
-0.000207603
0.00857122
-0.000315908
0.00888977
-0.000430736
0.00923636
-0.000552504
0.00961176
-0.000681642
0.0100119
0.0104289
-0.000817074
0.000114813
0.00162785
0.000264941
0.00429524
0.000351051
0.00604258
0.000363669
0.00694492
0.000328748
0.00737857
0.000270178
0.00763422
0.000200343
0.00785707
0.000123546
0.00809655
4.05144e-05
0.0083638
-4.81368e-05
0.00865987
-0.000142677
0.00898431
-0.000243393
0.00933708
-0.00035041
0.00971877
-0.000464834
0.0101264
0.010549
-0.000584891
0.000120225
0.00150763
0.0002916
0.00412387
0.000404055
0.00593012
0.000440009
0.00690897
0.000423448
0.00739514
0.000379714
0.00767795
0.000323189
0.0079136
0.000259335
0.00816041
0.000189627
0.00843351
0.000114265
0.00873523
3.3203e-05
0.00906538
-5.34579e-05
0.00942374
-0.000145382
0.0098107
-0.000244486
0.0102255
0.010654
-0.000349551
0.000124097
0.00138353
0.000315806
0.00393216
0.000455325
0.00579061
0.000516035
0.00684826
0.000519058
0.00739211
0.000490882
0.00770613
0.000447979
0.0079565
0.000397222
0.00821116
0.000340727
0.00849
0.000278954
0.00879701
0.000211961
0.00913237
0.00013968
0.00949602
6.21762e-05
0.0098882
-1.9176e-05
0.0103068
0.010747
-0.000112095
0.000126336
0.00125719
0.000337072
0.00372142
0.000504181
0.0056235
0.000591133
0.0067613
0.000615141
0.0073681
0.000603397
0.00771787
0.000574525
0.00798537
0.000537045
0.00824864
0.000493839
0.00853321
0.000445693
0.00884515
0.000392763
0.0091853
0.000335074
0.00955371
0.000272754
0.00995052
0.000204799
0.0103748
0.0108207
0.000131038
0.000126893
0.0011303
0.000354889
0.00349343
0.000549857
0.00542853
0.000664571
0.00664659
0.000711153
0.00732152
0.00071691
0.00771211
0.000702593
0.00799969
0.000678594
0.00827264
0.000648776
0.00856303
0.000614315
0.00887961
0.000575517
0.0092241
0.000532449
0.00959678
0.000485185
0.00999778
0.000433539
0.0104264
0.0108766
0.000377683
0.000125767
0.00100453
0.000368683
0.00325051
0.000591505
0.00520571
0.000735491
0.0065026
0.000806425
0.00725059
0.000830979
0.00768756
0.000831893
0.00799877
0.000821645
0.00828289
0.000805316
0.00857936
0.000784595
0.00890033
0.000759983
0.00924871
0.000731633
0.00962513
0.000699694
0.0100297
0.000664216
0.0104619
0.0109159
0.000624932
0.000123021
0.000881513
0.00037801
0.00299552
0.000628218
0.0049555
0.00080289
0.00632793
0.00090014
0.00715334
0.000945047
0.00764265
0.000962069
0.00798175
0.00096594
0.00827902
0.000963226
0.00858207
0.000956292
0.00890727
0.000945906
0.0092591
0.000932334
0.0096387
0.000915771
0.0100463
0.000896132
0.0104815
0.0109388
0.000873208
0.000118769
0.000762744
0.000382513
0.00273177
0.000659038
0.00467898
0.000865615
0.00612136
0.000991297
0.00702766
0.00105841
0.00757554
0.00109267
0.00794749
0.00111118
0.00826051
0.00112225
0.008571
0.00112916
0.00890036
0.00113301
0.00925524
0.00113422
0.00963749
0.001133
0.0100475
0.00112915
0.0104854
0.0109456
0.0011223
0.000113175
0.00064957
0.000381947
0.002463
0.00068298
0.00437794
0.000922357
0.00588198
0.00107869
0.00687132
0.00117018
0.00748405
0.00122313
0.00789454
0.00125698
0.00822666
0.00128211
0.00854587
0.00130292
0.00887955
0.00132102
0.00923714
0.00133699
0.00962152
0.0013511
0.0100334
0.00136312
0.0104734
0.0109364
0.00137237
0.000106443
0.000543127
0.000376221
0.00219322
0.000699071
0.00405509
0.000971663
0.00560938
0.0011609
0.00668208
0.00127925
0.0073657
0.00135271
0.00782109
0.00140289
0.00817648
0.00144246
0.00850629
0.00147729
0.00884473
0.00150965
0.00920478
0.00154036
0.00959082
0.00156979
0.010004
0.00159782
0.0104453
0.0109108
0.0016234
9.88088e-05
0.000444318
0.000365437
0.0019266
0.000706418
0.00371411
0.00101196
0.00530385
0.00123623
0.00645781
0.00138424
0.00721769
0.00148045
0.00772488
0.0015483
0.00810864
0.00160293
0.00845166
0.00165197
0.00879568
0.00169862
0.00915812
0.00174406
0.00954538
0.0017888
0.00995922
0.00183289
0.0104013
0.0108688
0.0018749
9.05302e-05
0.000353788
0.000349912
0.00166721
0.000704297
0.00335973
0.00104159
0.00496656
0.00130274
0.00619665
0.00148344
0.00703699
0.00160513
0.00760319
0.00169243
0.00802135
0.001763
0.00838108
0.00182659
0.0087321
0.00188762
0.0090971
0.00194779
0.0094852
0.00200782
0.00989919
0.00206797
0.0103411
0.0108103
0.00212644
8.18678e-05
0.00027192
0.000330178
0.0014189
0.000692255
0.00299765
0.00105891
0.0045999
0.00135824
0.00589732
0.00157478
0.00682045
0.00172518
0.00745279
0.00183424
0.00791228
0.00192204
0.00829328
0.00200073
0.00865341
0.00207629
0.00902153
0.00215123
0.00941027
0.00222649
0.00982393
0.00230271
0.0102649
0.0107354
0.00237762
7.30699e-05
0.00019885
0.000306966
0.00118501
0.000670242
0.00263437
0.00106242
0.00420772
0.00140034
0.0055594
0.00165579
0.00656501
0.00183857
0.00727002
0.00197235
0.00777851
0.00207918
0.00818644
0.00217383
0.00855876
0.00226425
0.00893112
0.00235402
0.0093205
0.0024445
0.00973344
0.00253675
0.0101726
0.0106441
0.00262809
6.43587e-05
0.000134492
0.000281153
0.000968214
0.000638712
0.00227682
0.00105089
0.00379554
0.00142653
0.00518376
0.00172359
0.00626795
0.00194278
0.00705082
0.00210491
0.00761638
0.00223325
0.00805811
0.00234519
0.00844682
0.00245102
0.00882529
0.0025558
0.00921572
0.0026615
0.00962774
0.00276976
0.0100644
0.0105363
0.00287748
5.59216e-05
7.857e-05
0.000253702
0.000770434
0.000598686
0.00193183
0.0010236
0.00337063
0.00143436
0.004773
0.00177492
0.00592739
0.00203472
0.00679102
0.00222952
0.00742157
0.00238261
0.00790502
0.00251379
0.00831564
0.00263596
0.00870311
0.00275612
0.00909556
0.00287711
0.00950675
0.00300138
0.00994009
0.0104123
0.00312545
4.79077e-05
3.06623e-05
0.000225569
0.000592772
0.000551714
0.00160569
0.00098057
0.00294177
0.00142164
0.00433193
0.00180627
0.00554276
0.00211064
0.00648665
0.00234305
0.00718916
0.00252507
0.007723
0.00267824
0.00816247
0.00281824
0.00856311
0.00295443
0.00895937
0.00309092
0.00937027
0.00323126
0.00979975
0.0102719
0.00337166
4.04272e-05
-9.76492e-06
0.000197622
0.000435578
0.000499748
0.00130356
0.000922772
0.00251875
0.00138681
0.00386789
0.00181405
0.00511552
0.00216623
0.00613447
0.00244154
0.00691385
0.0026576
0.00750694
0.00283656
0.00798351
0.00299665
0.00840303
0.00315001
0.00880601
0.00330244
0.00921783
0.00345899
0.0096432
0.0101151
0.00361573
3.35488e-05
-4.33137e-05
0.000170566
0.000298561
0.000444923
0.0010292
0.000852219
0.00211145
0.00132933
0.00339078
0.00179496
0.00464989
0.0021967
0.00573273
0.00252012
0.00659043
0.0027762
0.00725086
0.00298592
0.00777379
0.0031694
0.00821954
0.00334179
0.00863362
0.00351102
0.00904861
0.00368411
0.0094701
0.00994192
0.00385733
2.72994e-05
-7.06131e-05
0.000144911
0.000180949
0.000389299
0.000784814
0.000771854
0.0017289
0.00125002
0.00291262
0.00174647
0.00415344
0.00219707
0.00528213
0.00257304
0.00621447
0.00287568
0.00694821
0.00312237
0.0075271
0.0033339
0.00800801
0.00352821
0.00843931
0.00371572
0.0088611
0.00390603
0.0092798
0.00975197
0.00409599
2.16655e-05
-9.22786e-05
0.000120959
8.16564e-05
0.000334631
0.000571141
0.000685215
0.00137831
0.00115139
0.00244644
0.00166749
0.00363734
0.00216276
0.00478686
0.00259383
0.00578339
0.00294952
0.00659252
0.00324056
0.00723606
0.00348633
0.00776224
0.00370686
0.00821878
0.00391515
0.00865281
0.00412393
0.00907102
0.0095446
0.0043313
1.65995e-05
-0.000108878
9.8835e-05
-5.79016e-07
0.000282222
0.000387755
0.000595935
0.0010646
0.00103752
0.00200485
0.00155894
0.00311593
0.00209028
0.00425552
0.00257585
0.00529783
0.00298996
0.00617841
0.00333338
0.00689264
0.00362122
0.00747439
0.00387408
0.00796593
0.00410713
0.00841975
0.00433646
0.00884169
0.00931867
0.00456238
1.20316e-05
-0.00012091
7.8526e-05
-6.70733e-05
0.000232893
0.000233387
0.000507252
0.00079024
0.000913637
0.00159847
0.00142425
0.00260532
0.00197829
0.00370148
0.00251305
0.00476306
0.00298832
0.00570314
0.00339185
0.00648911
0.00373098
0.00713526
0.00402434
0.00767257
0.00428806
0.00815604
0.00454182
0.00858793
0.00907235
0.00478813
7.88166e-06
-0.000128791
5.99362e-05
-0.000119128
0.000187064
0.00010626
0.000421679
0.000555625
0.00078529
0.00123486
0.00126924
0.00212137
0.00182854
0.00314218
0.00240135
0.00419025
0.00293591
0.00516858
0.00340535
0.00601967
0.00380546
0.00673515
0.00414962
0.0073284
0.00445252
0.00785314
0.00473599
0.00830446
0.00880136
0.00500699
4.08147e-06
-0.000132873
4.29355e-05
-0.000157982
0.000144873
4.32276e-06
0.000340928
0.000359569
0.000657572
0.000918214
0.00110142
0.00167753
0.00164644
0.00259715
0.00224012
0.00359658
0.00282556
0.00458313
0.00336236
0.00548288
0.00383202
0.00626549
0.00423849
0.00692193
0.00459189
0.00749974
0.0049149
0.00798145
0.00850357
0.00521268
6.14658e-07
-0.000133488
2.74031e-05
-0.00018477
0.000106314
-7.45884e-05
0.000266038
0.000199846
0.00053457
0.000649681
0.000928774
0.00128332
0.00144071
0.00208522
0.00203348
0.0030038
0.00265372
0.0039629
0.00325228
0.00488433
0.00379599
0.00572178
0.00427637
0.00644155
0.00469307
0.00708304
0.00506791
0.00760661
0.00816301
0.00540848
-2.7546e-06
-0.000130733
1.32494e-05
-0.000200774
7.13471e-05
-0.000132686
0.000197582
7.36114e-05
0.000419222
0.000428041
0.00075863
0.000943916
0.00122212
0.00162173
0.00179073
0.00243518
0.00242271
0.00333091
0.00306814
0.0042389
0.00368307
0.00510685
0.00424423
0.00588039
0.00474117
0.00658609
0.00517886
0.00716892
0.00777014
0.00557173
-5.70591e-06
-0.000125027
5.85597e-07
-0.000207066
3.99338e-05
-0.000172034
0.000135864
-2.23186e-05
0.000313463
0.000250442
0.000596888
0.000660491
0.00100172
0.0012169
0.00152521
0.0019117
0.00214201
0.00271411
0.00280998
0.00357093
0.00348267
0.00443416
0.00412331
0.00523976
0.00470931
0.00600009
0.00523713
0.0066411
0.00731591
0.00569137
-8.43463e-06
-0.000116592
-1.09479e-05
-0.000204553
1.20182e-05
-0.000195
8.10238e-05
-9.13242e-05
0.000218465
0.000113
0.000447822
0.000431135
0.000789294
0.00087543
0.00125207
0.00144892
0.00182757
0.00213862
0.0024874
0.00291109
0.00319254
0.00372902
0.00389919
0.0045331
0.00457403
0.00532525
0.00521359
0.00600154
0.00678555
0.00574394
-1.08833e-05
-0.000105709
-2.10442e-05
-0.000194392
-1.24259e-05
-0.000203619
3.3054e-05
-0.000136804
0.000134816
1.12386e-05
0.000314187
0.000251764
0.000592443
0.000597174
0.000985802
0.00105556
0.00149909
0.00162533
0.00211961
0.00229057
0.00282288
0.00302576
0.00356776
0.00378822
0.00431427
0.00457874
0.00506426
0.00525156
0.00615688
0.00569293
-1.30359e-05
-9.26732e-05
-2.98128e-05
-0.000177615
-3.3511e-05
-0.000199921
-8.22945e-06
-0.000162086
6.25922e-05
-5.95831e-05
0.000197404
0.000116953
0.000416275
0.000378302
0.000738195
0.000733638
0.00117643
0.00118709
0.00173218
0.00173483
0.00239688
0.00236105
0.0031412
0.0030439
0.00392601
0.00379393
0.00476416
0.00441341
0.00542213
0.00549891
-1.48928e-05
-7.77804e-05
-3.73184e-05
-0.000155189
-5.14484e-05
-0.000185791
-4.32148e-05
-0.000170319
1.34675e-06
-0.000104145
9.7698e-05
2.06015e-05
0.000263451
0.000212549
0.000517346
0.000479744
0.000876407
0.000828031
0.00135168
0.00125955
0.0019467
0.00176604
0.00264963
0.00234096
0.00342914
0.00301443
0.00430747
0.00353507
0.00459115
0.00513845
-1.64709e-05
-6.13095e-05
-4.36727e-05
-0.000127987
-6.65502e-05
-0.000162913
-7.25251e-05
-0.000164344
-4.98382e-05
-0.000126832
1.42173e-05
-4.3454e-05
0.000134356
9.24106e-05
0.000327366
0.000286733
0.000610667
0.00054473
0.00100034
0.000869879
0.00150659
0.00125979
0.00213518
0.00171238
0.00286582
0.00228379
0.00372254
0.00267835
0.00369761
0.00461609
-1.78023e-05
-4.35072e-05
-4.90285e-05
-9.6761e-05
-7.92172e-05
-0.000132724
-9.69655e-05
-0.000146596
-9.22878e-05
-0.000131509
-5.48267e-05
-8.09151e-05
2.74069e-05
1.0177e-05
0.000168588
0.000145552
0.000384654
0.000328665
0.000692578
0.000561955
0.00110547
0.000846893
0.00164046
0.00117739
0.00228998
0.00163426
0.00307038
0.00189795
0.00279684
0.00397115
-1.89283e-05
-2.45789e-05
-5.35609e-05
-6.21284e-05
-8.9896e-05
-9.63893e-05
-0.000117442
-0.00011905
-0.000127589
-0.000121362
-0.000111844
-9.66604e-05
-6.04704e-05
-4.11966e-05
3.81739e-05
4.69077e-05
0.000197804
0.000169034
0.000433914
0.000325845
0.000760657
0.00052015
0.00119763
0.000740415
0.001752
0.00107989
0.00242344
0.00122651
0.0019486
0.00327168
-1.98917e-05
-4.68718e-06
-5.74422e-05
-2.45779e-05
-9.90235e-05
-5.48081e-05
-0.000134854
-8.32192e-05
-0.000157373
-9.88427e-05
-0.000159484
-9.45497e-05
-0.000133215
-6.7466e-05
-6.89428e-05
-1.73643e-05
4.48999e-05
5.51915e-05
0.000221641
0.000149103
0.00047537
0.000266421
0.000822358
0.000393428
0.00128386
0.00061839
0.0018395
0.000670876
0.00119321
0.00259489
-2.07279e-05
1.60407e-05
-6.08166e-05
1.55108e-05
-0.000106971
-8.65326e-06
-0.000149986
-4.02046e-05
-0.000183106
-6.57229e-05
-0.000200277
-7.73789e-05
-0.000194819
-7.29233e-05
-0.000158645
-5.35391e-05
-8.18042e-05
-2.16488e-05
4.74134e-05
1.98858e-05
0.000241249
7.25856e-05
0.000513061
0.000121616
0.00089238
0.000239071
0.00134558
0.000217675
0.000541271
0.00199752
-2.14576e-05
3.74983e-05
-6.37794e-05
5.78327e-05
-0.000114002
4.15694e-05
-0.000163416
9.20936e-06
-0.000205918
-2.32213e-05
-0.000236256
-4.70401e-05
-0.000248716
-6.04635e-05
-0.000236327
-6.5928e-05
-0.000190446
-6.75302e-05
-0.000100963
-6.95968e-05
4.35423e-05
-7.192e-05
0.000255642
-9.04841e-05
0.000564171
-6.94575e-05
0.000936393
-0.000154547
-1.55856e-05
0.00149325
-2.20825e-05
5.95808e-05
-6.63637e-05
0.000102114
-0.000120242
9.54476e-05
-0.000175467
6.44349e-05
-0.0002265
2.78116e-05
-0.000268757
-4.78344e-06
-0.000297301
-3.19198e-05
-0.000306053
-5.71756e-05
-0.000287419
-8.61642e-05
-0.000232426
-0.00012459
-0.000129041
-0.000175305
3.3534e-05
-0.00025306
0.000277198
-0.000313122
0.000585782
-0.000463131
-0.00048744
0.00105764
-2.25837e-05
8.21645e-05
-6.85371e-05
0.000148067
-0.000125675
0.000152585
-0.000186198
0.000124958
-0.000245083
8.66964e-05
-0.000298347
4.84807e-05
-0.000341758
1.14908e-05
-0.000370049
-2.88839e-05
-0.000376561
-7.96526e-05
-0.000353149
-0.000148002
-0.000288772
-0.000239681
-0.000175951
-0.000365881
7.52173e-06
-0.000496595
0.000265556
-0.000721165
-0.000876622
0.000654738
-2.29232e-05
0.000105088
-7.02075e-05
0.000195352
-0.000130156
0.000212534
-0.000195424
0.000190226
-0.000261474
0.000152747
-0.000324895
0.000111902
-0.000382138
6.87333e-05
-0.000428756
1.77339e-05
-0.000459024
-4.9384e-05
-0.000465705
-0.000141322
-0.000439195
-0.00026619
-0.000371621
-0.000433455
-0.000237623
-0.000630593
-3.71809e-05
-0.000921607
-0.00117333
0.000259527
-2.30485e-05
0.000128136
-7.12354e-05
0.000243538
-0.000133438
0.000274736
-0.000202769
0.000259557
-0.000275152
0.00022513
-0.000347715
0.000184465
-0.000417592
0.00013861
-0.000481175
8.13176e-05
-0.000533723
3.16369e-06
-0.000569031
-0.000106014
-0.000578942
-0.000256279
-0.000555033
-0.000457364
-0.000476391
-0.000709234
-0.000348138
-0.00104986
-0.00139326
-0.000128208
-2.2899e-05
0.000151035
-7.14521e-05
0.000292092
-0.000135207
0.000338491
-0.000207733
0.000332083
-0.000285372
0.000302769
-0.000365754
0.000264847
-0.000446667
0.000219523
-0.000525354
0.000160004
-0.000598069
7.58795e-05
-0.000659736
-4.43478e-05
-0.000703552
-0.000212462
-0.000721293
-0.000439623
-0.000697239
-0.000733288
-0.000632421
-0.00111468
-0.00154002
-0.000485659
-2.24128e-05
0.000173448
-7.06803e-05
0.000340359
-0.000135123
0.000402934
-0.00020976
0.00040672
-0.000291292
0.000384301
-0.00037778
0.000351335
-0.000467618
0.000309361
-0.000558845
0.000251231
-0.000648719
0.000165753
-0.000733247
4.01802e-05
-0.000806931
-0.000138778
-0.000862388
-0.000384166
-0.000888262
-0.000707414
-0.000881387
-0.00112155
-0.00161124
-0.000810164
-2.15351e-05
0.000194983
-6.87558e-05
0.00038758
-0.000132863
0.000467041
-0.000208308
0.000482166
-0.000292074
0.000468067
-0.000382559
0.00044182
-0.000478662
0.000405463
-0.000579133
0.000351702
-0.000682117
0.000268737
-0.000784695
0.000142758
-0.000882448
-4.10249e-05
-0.000969186
-0.000297428
-0.00103654
-0.000640058
-0.00107878
-0.00107931
-0.00161567
-0.00107436
-2.0225e-05
0.000215208
-6.55471e-05
0.000432902
-0.000128154
0.000529648
-0.000202911
0.000556922
-0.000286987
0.000552143
-0.000378993
0.000533826
-0.000478196
0.000504667
-0.000583913
0.000457418
-0.000695018
0.000379842
-0.000809504
0.000257244
-0.000923821
7.32914e-05
-0.00103291
-0.000188341
-0.00113004
-0.000542923
-0.00120874
-0.00100061
-0.00156911
-0.0012553
-1.84619e-05
-6.09737e-05
-0.000120811
-0.000193228
-0.000275479
-0.000366236
-0.000464964
-0.000571343
-0.000684766
-0.000803843
-0.000925883
-0.00104624
-0.00115919
-0.00125849
-0.00133506
-0.00518548
7.92017e-05
-0.00528592
3.07468e-05
-0.00536983
2.06587e-05
-0.00542083
-8.02625e-06
-0.00546358
-1.44336e-05
-0.00548601
-3.29254e-05
-0.00550429
-3.71943e-05
-0.00550943
-4.94848e-05
-0.00551215
-5.23907e-05
-0.00550612
-6.01885e-05
-0.00549854
-6.09255e-05
-0.005485
-6.45646e-05
-0.0054703
-6.2828e-05
-0.00545141
-6.27948e-05
-0.00543158
-5.87863e-05
-0.00540873
-5.58418e-05
-0.00538499
-5.00243e-05
-0.00535898
-4.51029e-05
-0.00533207
-3.83518e-05
-3.25753e-05
-0.00517626
0.000237142
-0.00527711
0.000131589
-0.00536158
0.000105135
-0.005413
4.33914e-05
-0.00545622
2.87892e-05
-0.0054794
-9.75104e-06
-0.00549822
-1.83675e-05
-0.00550386
-4.38539e-05
-0.00550711
-4.9133e-05
-0.00550157
-6.57356e-05
-0.00549446
-6.80305e-05
-0.00548138
-7.7642e-05
-0.00546714
-7.7067e-05
-0.00544872
-8.12241e-05
-0.00542933
-7.81741e-05
-0.00540693
-7.8244e-05
-0.00538363
-7.33168e-05
-0.00535807
-7.06611e-05
-0.00533161
-6.48131e-05
-6.08879e-05
-0.00515871
0.000395943
-0.00526027
0.000233157
-0.00534572
0.000190578
-0.00539807
9.57433e-05
-0.00544232
7.30426e-05
-0.00546618
1.4103e-05
-0.00548615
1.60727e-06
-0.00549276
-3.72499e-05
-0.00549703
-4.48575e-05
-0.00549243
-7.03313e-05
-0.00548627
-7.41989e-05
-0.00547412
-8.97913e-05
-0.00546079
-9.03927e-05
-0.00544328
-9.87336e-05
-0.0054248
-9.66595e-05
-0.00540331
-9.97351e-05
-0.00538091
-9.57087e-05
-0.00535626
-9.53116e-05
-0.0053307
-9.0372e-05
-8.82914e-05
-0.00513282
0.00055591
-0.0052354
0.000335735
-0.00532223
0.000277407
-0.0053758
0.000149317
-0.00542156
0.000118798
-0.00544695
3.9495e-05
-0.00546793
2.2583e-05
-0.00547615
-2.90235e-05
-0.00548192
-3.9093e-05