4 	-3.95101 	3.46945e-18 	-0.0820273
4 	-3.85303 	3.46945e-18 	-0.0821987
4 	-3.75506 	2.08167e-18 	-0.0825428
4 	-3.65708 	2.42861e-18 	-0.0830626
4 	-3.5591 	4.16334e-18 	-0.0837622
4 	-3.46112 	2.77556e-18 	-0.0846478
4 	-3.36314 	-3.46945e-19 	-0.0857268
4 	-3.26517 	-2.08167e-18 	-0.0870088
4 	-3.16719 	-2.08167e-18 	-0.0885056
4 	-3.06921 	-2.08167e-18 	-0.0902311
4 	-2.97123 	-3.46945e-19 	-0.0922023
4 	-2.87325 	1.38778e-18 	-0.0944391
4 	-2.77528 	1.38778e-18 	-0.0969656
4 	-2.6773 	-3.46945e-19 	-0.0998098
4 	-2.57932 	-3.46945e-19 	-0.103005
4 	-2.48134 	1.38778e-18 	-0.106592
4 	-2.38336 	1.38778e-18 	-0.110617
4 	-2.28539 	1.38778e-18 	-0.115137
4 	-2.18741 	1.38778e-18 	-0.120221
4 	-2.08943 	1.38778e-18 	-0.125951
4 	-1.99145 	1.38778e-18 	-0.132427
4 	-1.89347 	1.38778e-18 	-0.139772
4 	-1.7955 	1.38778e-18 	-0.148137
4 	-1.69752 	1.38778e-18 	-0.157706
4 	-1.59954 	3.1225e-18 	-0.168701
4 	-1.50156 	4.85723e-18 	-0.181386
4 	-1.40358 	4.85723e-18 	-0.196047
4 	-1.30561 	4.85723e-18 	-0.212813
4 	-1.20763 	4.51028e-18 	-0.231488
4 	-1.10965 	1.04083e-18 	-0.253351
4 	-1.04542 	-3.46945e-18 	-0.26385
4 	-1.0147 	-7.76824e-18 	-0.271026
4 	-0.983543 	-5.2012e-18 	-0.278172
4 	-0.951948 	-1.71115e-18 	-0.284983
4 	-0.928914 	-1.94291e-18 	-0.291625
4 	-0.912798 	-9.33325e-20 	-0.287937
4 	-0.887488 	-1.73472e-18 	-0.294165
4 	-0.854642 	-3.46945e-18 	-0.300071
4 	-0.8214 	-6.40567e-18 	-0.305582
4 	-0.787774 	-9.63346e-18 	-0.310663
4 	-0.753776 	-9.18428e-18 	-0.315281
4 	-0.731907 	-8.07525e-18 	-0.319307
4 	-0.714639 	-7.32293e-18 	-0.311027
4 	-0.684714 	-3.46945e-18 	-0.314122
4 	-0.649678 	0 	-0.316485
4 	-0.614324 	5.58548e-19 	-0.318596
4 	-0.578667 	2.07135e-18 	-0.320032
4 	-0.542723 	6.39841e-18 	-0.320719
4 	-0.506508 	1.3047e-17 	-0.320544
4 	-0.470037 	1.71594e-17 	-0.319486
4 	-0.4486 	1.74349e-17 	-0.317536
4 	-0.430188 	1.74574e-17 	-0.306011
4 	-0.396401 	1.45717e-17 	-0.303399
4 	-0.35927 	9.36751e-18 	-0.299896
4 	-0.321954 	5.89806e-18 	-0.295482
4 	-0.284472 	5.89806e-18 	-0.290149
4 	-0.246843 	5.89806e-18 	-0.2839
4 	-0.209085 	3.1225e-18 	-0.276749
4 	-0.171219 	2.82508e-18 	-0.268719
4 	-0.133263 	6.32035e-18 	-0.259847
4 	-0.0952381 	1.08799e-17 	-0.250192
4 	-0.0571629 	1.10573e-17 	-0.239871
4 	-0.0190576 	7.36665e-18 	-0.228891
4 	0.0190576 	-5.41647e-19 	-0.217362
4 	0.0571629 	-1.21585e-18 	-0.205386
4 	0.0952381 	-1.35622e-19 	-0.193073
4 	0.133263 	1.18715e-19 	-0.180542
4 	0.171219 	-8.17836e-19 	-0.167916
4 	0.209085 	3.46945e-19 	-0.155323
4 	0.246843 	4.85723e-18 	-0.14289
4 	0.284472 	6.59195e-18 	-0.130741
4 	0.321954 	8.32667e-18 	-0.119001
4 	0.35927 	1.45717e-17 	-0.107785
4 	0.396401 	1.45717e-17 	-0.0971501
4 	0.430188 	1.20329e-17 	-0.0873977
4 	0.4486 	1.09695e-17 	-0.0767525
4 	0.470037 	7.79193e-18 	-0.0666759
4 	0.506508 	4.72031e-18 	-0.0576206
4 	0.542723 	2.14834e-18 	-0.0496445
4 	0.578667 	8.7873e-19 	-0.0427923
4 	0.614324 	2.22822e-18 	-0.0370884
4 	0.649678 	4.16334e-18 	-0.0325383
4 	0.684714 	4.16334e-18 	-0.0291268
4 	0.714639 	3.50654e-18 	-0.0268185
4 	0.731907 	3.10116e-18 	-0.0119375
4 	0.753776 	2.95878e-18 	-0.0102625
4 	0.787774 	1.20856e-18 	-0.0096399
4 	0.8214 	9.66901e-19 	-0.00997901
4 	0.854642 	3.81639e-18 	-0.0111766
4 	0.887488 	4.51028e-18 	-0.0131241
4 	0.912798 	4.77709e-18 	-0.0157153
4 	0.928914 	8.13168e-18 	-0.00111971
4 	0.951948 	9.39108e-18 	-0.00413668
4 	0.983543 	1.0498e-17 	-0.00757089
4 	1.0147 	8.6249e-18 	-0.0115155
4 	1.04542 	2.08167e-18 	-0.0161088
4 	1.10965 	-2.42861e-18 	-0.0179544
4 	1.20763 	-2.77556e-18 	-0.0247541
4 	1.30561 	-1.04083e-18 	-0.0309611
4 	1.40358 	-6.93889e-19 	-0.0370314
4 	1.50156 	-6.93889e-19 	-0.0426626
4 	1.59954 	-6.93889e-19 	-0.0476613
4 	1.69752 	-2.42861e-18 	-0.0520573
4 	1.7955 	-2.42861e-18 	-0.0558754
4 	1.89347 	-2.08167e-18 	-0.0591518
4 	1.99145 	-6.59195e-18 	-0.0619371
4 	2.08943 	-9.71445e-18 	-0.0642825
4 	2.18741 	-9.71445e-18 	-0.0662388
4 	2.28539 	-8.67362e-18 	-0.0678538
4 	2.38336 	-7.63278e-18 	-0.0691724
4 	2.48134 	-6.245e-18 	-0.070236
4 	2.57932 	-6.59195e-18 	-0.0710825
4 	2.6773 	-8.32667e-18 	-0.0717455
4 	2.77528 	-8.32667e-18 	-0.0722548
4 	2.87325 	-9.71445e-18 	-0.0726369
4 	2.97123 	-1.11022e-17 	-0.0729155
4 	3.06921 	-8.32667e-18 	-0.073111
4 	3.16719 	-5.55112e-18 	-0.0732414
4 	3.26517 	-5.55112e-18 	-0.073322
4 	3.36314 	-5.55112e-18 	-0.0733661
4 	3.46112 	-6.93889e-18 	-0.0733847
4 	3.5591 	-6.93889e-18 	-0.0733869
4 	3.65708 	-5.55112e-18 	-0.0733801
4 	3.75506 	-7.28584e-18 	-0.0733701
4 	3.85303 	-7.28584e-18 	-0.0733611
4 	3.95101 	-7.12062e-18 	-0.0733559
