/*--------------------------------*- C++ -*----------------------------------*\
  =========                 |
  \\      /  F ield         | OpenFOAM: The Open Source CFD Toolbox
   \\    /   O peration     | Website:  https://openfoam.org
    \\  /    A nd           | Version:  7
     \\/     M anipulation  |
\*---------------------------------------------------------------------------*/
FoamFile
{
    version     2.0;
    format      ascii;
    class       volVectorField;
    location    "10";
    object      U;
}
// * * * * * * * * * * * * * * * * * * * * * * * * * * * * * * * * * * * * * //

dimensions      [0 1 -1 0 0 0 0];

internalField   nonuniform List<vector> 
1360
(
(0.616092 -0.00779897 -1.60141e-21)
(0.623927 -0.00775113 -3.03765e-22)
(0.63172 -0.00770162 1.36132e-21)
(0.639471 -0.00765043 3.76352e-22)
(0.647176 -0.00759756 -1.11558e-21)
(0.654835 -0.00754301 -1.60037e-21)
(0.662445 -0.00748676 2.10111e-21)
(0.670005 -0.00742883 -2.06152e-22)
(0.677513 -0.00736923 -1.03475e-21)
(0.684967 -0.00730798 4.9079e-22)
(0.692365 -0.0072451 -6.33703e-22)
(0.699706 -0.00718058 1.09157e-21)
(0.706988 -0.00711447 8.95041e-23)
(0.714208 -0.00704676 -7.95246e-22)
(0.721366 -0.00697749 -1.65455e-22)
(0.728459 -0.00690665 2.54298e-22)
(0.735487 -0.00683427 1.56499e-22)
(0.742446 -0.00676036 -1.87933e-22)
(0.749336 -0.00668493 7.84483e-23)
(0.756154 -0.00660799 5.6482e-23)
(0.7629 -0.00652955 -9.57987e-23)
(0.769571 -0.0064496 8.72719e-23)
(0.776165 -0.00636816 -3.45633e-23)
(0.782682 -0.00628524 1.51778e-23)
(0.789118 -0.00620082 -5.82364e-24)
(0.795474 -0.00611492 2.70613e-24)
(0.801746 -0.00602753 3.80858e-23)
(0.807933 -0.00593866 -1.88731e-23)
(0.814034 -0.0058483 -3.18475e-23)
(0.820047 -0.00575647 6.43217e-23)
(0.825969 -0.00566317 4.20667e-23)
(0.8318 -0.00556841 -5.53076e-23)
(0.837538 -0.0054722 4.30412e-23)
(0.84318 -0.00537455 -1.91222e-22)
(0.848726 -0.00527548 1.97645e-22)
(0.854173 -0.00517501 -2.05285e-23)
(0.85952 -0.00507318 -7.2941e-23)
(0.864766 -0.00497001 -2.79461e-23)
(0.869908 -0.00486555 3.74227e-23)
(0.874945 -0.00475983 6.94921e-23)
(0.879876 -0.0046529 -1.0253e-22)
(0.884699 -0.00454481 9.52878e-23)
(0.889413 -0.00443561 -6.49417e-23)
(0.894016 -0.00432536 -1.75748e-23)
(0.898507 -0.00421411 4.27734e-23)
(0.902886 -0.0041019 -6.88691e-24)
(0.907151 -0.00398881 -1.66515e-24)
(0.911295 -0.00387499 9.10941e-24)
(0.915283 -0.00376082 1.4436e-24)
(0.919347 -0.0036479 -1.56508e-24)
(0.924586 -0.00355291 2.82271e-24)
(0.631577 -0.0230053 -6.02228e-21)
(0.639036 -0.0228655 -4.16892e-21)
(0.646457 -0.0227207 8.57719e-21)
(0.653837 -0.022571 -3.00488e-21)
(0.661176 -0.0224164 3.12233e-21)
(0.668472 -0.0222568 -8.55109e-21)
(0.675722 -0.0220922 1.01974e-20)
(0.682925 -0.0219227 -2.84248e-23)
(0.69008 -0.0217484 -2.86512e-21)
(0.697186 -0.0215692 -1.40508e-21)
(0.704239 -0.0213851 1.82198e-23)
(0.711239 -0.0211964 -6.3424e-22)
(0.718184 -0.0210029 1.49405e-21)
(0.725072 -0.0208048 -8.38367e-22)
(0.731902 -0.020602 3.38407e-22)
(0.738672 -0.0203947 -2.77411e-22)
(0.745381 -0.0201828 3.61918e-23)
(0.752026 -0.0199664 -1.32484e-22)
(0.758607 -0.0197456 -6.2051e-22)
(0.765121 -0.0195203 6.66096e-23)
(0.771568 -0.0192905 2.75326e-22)
(0.777945 -0.0190563 -3.74702e-22)
(0.78425 -0.0188176 3.05527e-22)
(0.790483 -0.0185746 -1.17933e-22)
(0.796642 -0.0183271 5.3982e-23)
(0.802724 -0.0180752 -1.40062e-23)
(0.808729 -0.0178189 -6.78868e-23)
(0.814655 -0.0175582 -1.01938e-23)
(0.820499 -0.017293 3.03681e-22)
(0.826261 -0.0170235 -3.67855e-22)
(0.831938 -0.0167495 2.01527e-22)
(0.83753 -0.0164712 5.58647e-23)
(0.843034 -0.0161885 -2.52771e-23)
(0.848448 -0.0159016 -8.24512e-23)
(0.853771 -0.0156104 1.29493e-22)
(0.859002 -0.015315 1.01308e-22)
(0.864138 -0.0150154 -4.83129e-22)
(0.869179 -0.0147119 1.83046e-22)
(0.874122 -0.0144045 1.368e-23)
(0.878966 -0.0140933 2.89592e-22)
(0.88371 -0.0137784 -2.33902e-22)
(0.888351 -0.0134601 -7.34167e-23)
(0.89289 -0.0131384 4.57529e-23)
(0.897323 -0.0128136 4.49385e-23)
(0.901651 -0.0124857 -7.52637e-23)
(0.905872 -0.012155 3.1887e-24)
(0.909985 -0.0118216 1.05527e-24)
(0.913983 -0.0114861 2.4211e-23)
(0.917834 -0.0111495 -1.71195e-23)
(0.921757 -0.0108166 5.40275e-24)
(0.926823 -0.0105362 -1.7072e-23)
(0.667688 -0.0368616 8.9145e-21)
(0.674406 -0.0366323 -7.75159e-21)
(0.681089 -0.0363951 -3.81941e-21)
(0.687736 -0.0361501 2.41621e-21)
(0.694346 -0.0358972 -1.96719e-21)
(0.700917 -0.0356364 -2.30242e-21)
(0.707449 -0.0353679 2.73964e-21)
(0.713939 -0.0350915 -4.39427e-21)
(0.720386 -0.0348075 2.81716e-22)
(0.726789 -0.0345158 3.33436e-21)
(0.733146 -0.0342165 -6.46294e-22)
(0.739456 -0.0339098 -4.09619e-22)
(0.745717 -0.0335955 -3.4961e-21)
(0.751929 -0.0332739 2.29724e-21)
(0.758089 -0.0329449 5.71652e-22)
(0.764196 -0.0326086 8.43195e-23)
(0.770249 -0.032265 -1.00087e-21)
(0.776246 -0.0319143 7.89811e-22)
(0.782186 -0.0315563 -2.10729e-22)
(0.788068 -0.0311911 6.17072e-22)
(0.793889 -0.0308187 -3.09545e-22)
(0.799649 -0.0304391 -5.06505e-22)
(0.805346 -0.0300523 2.14889e-22)
(0.810979 -0.0296583 -1.66608e-22)
(0.816545 -0.0292571 -1.42106e-22)
(0.822044 -0.0288486 4.20189e-23)
(0.827474 -0.0284328 1.88538e-23)
(0.832833 -0.0280098 -9.24839e-23)
(0.83812 -0.0275795 2.83425e-22)
(0.843333 -0.0271419 -4.24079e-22)
(0.848471 -0.0266971 8.55244e-23)
(0.853531 -0.0262451 1.32358e-22)
(0.858513 -0.025786 -2.8925e-22)
(0.863415 -0.0253198 6.35072e-22)
(0.868235 -0.0248466 -8.11097e-22)
(0.872971 -0.0243665 6.04651e-22)
(0.877622 -0.0238797 -1.08959e-22)
(0.882187 -0.0233864 -4.95392e-23)
(0.886664 -0.0228868 2.22555e-22)
(0.891051 -0.0223811 -1.00238e-22)
(0.895348 -0.0218695 1.6619e-22)
(0.899552 -0.0213523 -2.59919e-22)
(0.903663 -0.0208298 -2.28356e-22)
(0.907679 -0.0203023 3.43733e-22)
(0.911599 -0.0197701 -1.70606e-22)
(0.915423 -0.0192335 1.24106e-22)
(0.919143 -0.0186933 -3.81644e-23)
(0.92273 -0.0181513 -1.6923e-23)
(0.926385 -0.0176152 -1.43602e-23)
(0.93112 -0.0171623 3.26558e-23)
(0.707049 -0.0491389 -1.14571e-20)
(0.712809 -0.0488416 1.59626e-21)
(0.718543 -0.048534 -9.64013e-22)
(0.72425 -0.048216 5.71378e-21)
(0.729928 -0.0478879 -3.34398e-22)
(0.735576 -0.0475494 1.54793e-20)
(0.741193 -0.0472008 -1.61231e-20)
(0.746778 -0.0468419 -4.12611e-21)
(0.752329 -0.046473 1.05272e-20)
(0.757847 -0.046094 -5.14187e-21)
(0.763329 -0.0457051 4.60262e-21)
(0.768774 -0.0453062 2.39449e-21)
(0.774182 -0.0448975 -4.36708e-21)
(0.77955 -0.044479 -1.58118e-21)
(0.784879 -0.0440508 1.78856e-21)
(0.790166 -0.0436129 4.01462e-21)
(0.795411 -0.0431653 -2.42227e-21)
(0.800613 -0.0427081 -3.50941e-22)
(0.805769 -0.0422412 4.4402e-22)
(0.81088 -0.0417646 -4.80844e-22)
(0.815943 -0.0412784 1.88251e-22)
(0.820957 -0.0407824 -8.87209e-23)
(0.825921 -0.0402767 1.04884e-22)
(0.830835 -0.0397611 -4.7693e-24)
(0.835695 -0.0392357 2.7523e-22)
(0.840502 -0.0387004 -1.87695e-22)
(0.845253 -0.0381551 4.3617e-23)
(0.849947 -0.0375998 -5.34306e-24)
(0.854583 -0.0370345 1.79715e-23)
(0.859159 -0.0364592 -2.07412e-23)
(0.863674 -0.0358739 -2.34228e-22)
(0.868126 -0.0352785 6.60431e-23)
(0.872514 -0.0346732 2.24375e-22)
(0.876836 -0.0340581 2.76504e-22)
(0.881091 -0.0334331 3.93052e-23)
(0.885276 -0.0327986 6.1417e-23)
(0.889392 -0.0321547 -7.34991e-23)
(0.893436 -0.0315016 -3.036e-22)
(0.897406 -0.0308396 -1.77961e-22)
(0.901302 -0.0301689 -2.18191e-22)
(0.905122 -0.0294901 3.63835e-22)
(0.908864 -0.0288033 -9.05792e-23)
(0.912528 -0.0281091 5.28978e-23)
(0.916112 -0.0274079 1.9189e-22)
(0.919616 -0.0267 -1.68683e-22)
(0.923038 -0.0259861 1.37162e-22)
(0.926374 -0.0252674 -1.52524e-23)
(0.929594 -0.0245461 1.25427e-23)
(0.932877 -0.0238323 -1.76311e-23)
(0.937149 -0.023227 1.79695e-23)
(0.753533 -0.0592866 1.65816e-21)
(0.758178 -0.0589417 -5.84185e-21)
(0.762807 -0.0585846 1.08481e-20)
(0.767418 -0.0582154 -1.87246e-20)
(0.77201 -0.057834 1.62354e-20)
(0.776582 -0.0574404 -6.45485e-21)
(0.781134 -0.0570348 -8.14275e-21)
(0.785665 -0.0566171 1.08678e-20)
(0.790173 -0.0561874 -4.66557e-21)
(0.794658 -0.0557458 -5.82312e-22)
(0.79912 -0.0552923 -3.00161e-21)
(0.803557 -0.054827 9.71799e-21)
(0.807969 -0.05435 -2.23535e-21)
(0.812354 -0.0538613 -2.6706e-21)
(0.816712 -0.0533609 1.56769e-21)
(0.821041 -0.0528488 -3.30537e-21)
(0.825342 -0.0523251 3.45608e-22)
(0.829613 -0.0517897 2.7181e-21)
(0.833853 -0.0512426 1.72089e-21)
(0.83806 -0.0506836 -1.50235e-21)
(0.842235 -0.0501129 -9.28163e-22)
(0.846376 -0.0495302 7.5199e-22)
(0.850481 -0.0489354 -7.0141e-22)
(0.85455 -0.0483285 1.19933e-21)
(0.858582 -0.0477094 -1.73897e-22)
(0.862575 -0.047078 -4.86756e-22)
(0.866529 -0.0464341 5.89649e-22)
(0.870441 -0.0457776 -2.996e-22)
(0.87431 -0.0451086 4.45997e-24)
(0.878136 -0.0444269 -1.34655e-23)
(0.881917 -0.0437325 1.32362e-23)
(0.885651 -0.0430254 2.68441e-22)
(0.889337 -0.0423057 -2.82458e-22)
(0.892974 -0.0415733 4.61455e-22)
(0.89656 -0.0408285 -4.77451e-22)
(0.900094 -0.0400714 1.36336e-22)
(0.903575 -0.0393022 -3.43136e-22)
(0.907 -0.0385211 2.36684e-22)
(0.91037 -0.0377286 3.33724e-22)
(0.913681 -0.036925 -5.05534e-22)
(0.916934 -0.0361106 1.4427e-22)
(0.920127 -0.0352862 3.41914e-22)
(0.923258 -0.0344521 -4.90518e-22)
(0.926327 -0.0336089 8.03558e-23)
(0.929333 -0.0327574 1.09765e-22)
(0.932275 -0.0318982 4.14543e-24)
(0.935148 -0.0310328 1.57952e-23)
(0.937929 -0.0301642 -9.89337e-23)
(0.940765 -0.0293043 1.84586e-23)
(0.944479 -0.0285714 -1.59023e-23)
(0.803383 -0.0670966 2.65655e-20)
(0.806856 -0.0667266 7.22163e-21)
(0.810321 -0.0663431 -1.65059e-20)
(0.813779 -0.065946 1.24895e-20)
(0.817228 -0.0655353 7.18949e-21)
(0.820668 -0.065111 -2.07444e-20)
(0.824099 -0.0646732 -1.17397e-21)
(0.827519 -0.064222 -3.12003e-21)
(0.830928 -0.0637573 2.16101e-20)
(0.834326 -0.0632793 -9.27977e-21)
(0.837712 -0.0627881 2.04634e-21)
(0.841085 -0.0622836 -1.48408e-21)
(0.844445 -0.0617659 -5.53776e-21)
(0.847792 -0.0612351 6.41576e-21)
(0.851124 -0.0606911 -1.67788e-21)
(0.854441 -0.060134 1.1076e-21)
(0.857743 -0.0595636 2.85283e-21)
(0.861029 -0.05898 -3.86497e-22)
(0.864297 -0.0583829 -5.33437e-21)
(0.867548 -0.0577724 3.70232e-22)
(0.87078 -0.0571482 2.24733e-21)
(0.873993 -0.0565102 2.23005e-21)
(0.877186 -0.0558582 -8.65826e-22)
(0.880358 -0.0551921 -3.48886e-21)
(0.883508 -0.0545116 2.33039e-22)
(0.886634 -0.0538167 2.02206e-21)
(0.889737 -0.053107 3.88287e-22)
(0.892814 -0.0523826 -7.65758e-22)
(0.895865 -0.0516431 3.0291e-22)
(0.898889 -0.0508886 4.59324e-23)
(0.901883 -0.0501189 1.03111e-22)
(0.904848 -0.0493339 -8.73516e-23)
(0.907782 -0.0485337 6.04796e-23)
(0.910684 -0.0477183 -2.79692e-23)
(0.913551 -0.0468878 6.55937e-23)
(0.916384 -0.0460424 1.76842e-22)
(0.919181 -0.0451822 -2.37349e-22)
(0.92194 -0.0443076 1.5604e-22)
(0.92466 -0.043419 -8.99873e-23)
(0.92734 -0.0425168 -9.6799e-23)
(0.929979 -0.0416016 -3.4739e-22)
(0.932576 -0.0406739 4.47106e-22)
(0.93513 -0.0397345 -1.09148e-22)
(0.937639 -0.038784 -1.77783e-22)
(0.940102 -0.0378234 7.98834e-23)
(0.942521 -0.0368537 -6.70599e-23)
(0.94489 -0.0358765 -3.77024e-24)
(0.947189 -0.0348954 7.42712e-23)
(0.949537 -0.0339236 1.2465e-24)
(0.952634 -0.0330903 -2.68941e-24)
(0.855515 -0.0722125 1.12697e-20)
(0.857848 -0.0718246 6.4091e-22)
(0.860182 -0.0714219 -2.22484e-20)
(0.862517 -0.0710045 1.29523e-20)
(0.864853 -0.0705725 -4.75545e-21)
(0.86719 -0.0701259 -2.59343e-20)
(0.869526 -0.0696647 1.45765e-20)
(0.871862 -0.0691892 1.68626e-20)
(0.874197 -0.0686993 -1.68394e-20)
(0.876531 -0.0681952 1.5672e-20)
(0.878864 -0.0676768 -6.80897e-21)
(0.881195 -0.0671443 -1.07548e-20)
(0.883524 -0.0665976 3.31408e-22)
(0.885851 -0.0660367 8.05683e-21)
(0.888175 -0.0654615 -8.09747e-21)
(0.890496 -0.064872 3.12516e-21)
(0.892813 -0.064268 3.53627e-21)
(0.895126 -0.0636494 2.99501e-22)
(0.897435 -0.063016 2.44856e-21)
(0.899738 -0.0623675 -2.02022e-21)
(0.902036 -0.0617038 -5.0555e-22)
(0.904327 -0.0610245 -1.18385e-21)
(0.906612 -0.0603294 2.95357e-22)
(0.908888 -0.0596182 -2.45333e-21)
(0.911156 -0.0588907 2.21049e-21)
(0.913415 -0.0581466 1.29568e-21)
(0.915663 -0.0573857 -2.85952e-21)
(0.917901 -0.0566076 1.40352e-21)
(0.920125 -0.0558123 1.64694e-22)
(0.922337 -0.0549995 5.82446e-24)
(0.924535 -0.0541691 1.19e-23)
(0.926717 -0.0533212 8.70234e-23)
(0.928882 -0.0524555 2.64099e-23)
(0.93103 -0.0515724 6.66658e-24)
(0.93316 -0.0506718 1.41814e-22)
(0.935269 -0.049754 -4.43937e-23)
(0.937358 -0.0488193 -2.67304e-22)
(0.939424 -0.0478681 1.31402e-22)
(0.941468 -0.046901 9.69028e-23)
(0.943487 -0.0459184 -2.08773e-22)
(0.945481 -0.0449212 1.79446e-22)
(0.947448 -0.0439102 -7.20258e-23)
(0.949388 -0.0428863 -1.76015e-22)
(0.951301 -0.0418505 3.30855e-22)
(0.953185 -0.0408042 -2.40322e-23)
(0.955038 -0.0397493 -6.3173e-23)
(0.956845 -0.0386898 2.77543e-23)
(0.958692 -0.0376398 -1.26843e-23)
(0.961152 -0.0367331 1.27335e-23)
(0.901509 -0.0756965 2.77138e-20)
(0.902805 -0.0753193 -4.71582e-20)
(0.904112 -0.0749264 3.00608e-20)
(0.905428 -0.074518 -3.18509e-20)
(0.906754 -0.0740941 4.73407e-20)
(0.908088 -0.0736549 -1.2481e-20)
(0.909431 -0.0732005 -3.21274e-20)
(0.910783 -0.072731 4.12155e-20)
(0.912143 -0.0722465 -9.57451e-21)
(0.913511 -0.0717471 7.24577e-21)
(0.914887 -0.0712329 7.00457e-22)
(0.916271 -0.0707041 -1.10913e-20)
(0.917663 -0.0701604 -3.40258e-21)
(0.919062 -0.0696021 6.23545e-21)
(0.920468 -0.0690288 4.15574e-21)
(0.921882 -0.0684406 -8.79217e-21)
(0.923303 -0.0678373 3.8365e-21)
(0.924731 -0.0672186 -2.66012e-21)
(0.926165 -0.0665842 1.74234e-21)
(0.927606 -0.0659339 -1.26362e-21)
(0.929052 -0.0652674 1.23251e-21)
(0.930504 -0.0645842 9.59222e-22)
(0.931961 -0.063884 2.58489e-21)
(0.933422 -0.0631665 -4.01148e-21)
(0.934887 -0.0624311 1.466e-21)
(0.936356 -0.0616777 -7.57003e-22)
(0.937827 -0.0609058 -2.93213e-22)
(0.9393 -0.060115 2.13047e-21)
(0.940774 -0.0593051 -2.05726e-21)
(0.942248 -0.0584757 1.03757e-22)
(0.943722 -0.0576268 -3.89883e-22)
(0.945194 -0.0567582 -2.52516e-24)
(0.946663 -0.0558698 4.1922e-22)
(0.948129 -0.0549615 3.59126e-23)
(0.949591 -0.0540336 -1.95551e-22)
(0.951048 -0.0530861 -4.55149e-23)
(0.952498 -0.0521195 1.33892e-25)
(0.953941 -0.051134 1.58322e-26)
(0.955375 -0.0501304 1.50601e-23)
(0.956801 -0.0491091 -4.13526e-25)
(0.958216 -0.048071 2.84356e-23)
(0.959621 -0.0470171 -5.6999e-23)
(0.961013 -0.0459485 -1.07573e-22)
(0.962394 -0.0448663 1.75746e-22)
(0.963761 -0.0437722 -7.88914e-23)
(0.965114 -0.0426684 -2.99473e-23)
(0.96644 -0.0415592 6.36908e-23)
(0.967801 -0.0404593 1.18862e-24)
(0.969633 -0.039502 1.55286e-25)
(0.946249 -0.0766015 0)
(0.946627 -0.0762528 0)
(0.947019 -0.0758872 0)
(0.947425 -0.0755048 5.12929e-28)
(0.947845 -0.075106 -2.33442e-28)
(0.948279 -0.0746909 2.20888e-28)
(0.948726 -0.0742598 -4.34521e-28)
(0.949187 -0.0738128 0)
(0.949662 -0.0733502 0)
(0.95015 -0.072872 0)
(0.950653 -0.0723783 -3.9538e-12)
(0.95117 -0.0718692 -3.70844e-12)
(0.951701 -0.0713447 0)
(0.952247 -0.0708046 0)
(0.952807 -0.0702488 0)
(0.953382 -0.0696772 0)
(0.953971 -0.0690894 0)
(0.954576 -0.0684851 0)
(0.955195 -0.0678639 0)
(0.955829 -0.0672254 0)
(0.956478 -0.0665692 1.63547e-28)
(0.957141 -0.0658948 -7.18989e-29)
(0.957818 -0.0652017 0)
(0.95851 -0.0644894 0)
(0.959215 -0.0637574 0)
(0.959934 -0.0630053 0)
(0.960666 -0.0622327 0)
(0.96141 -0.061439 8.00037e-29)
(0.962166 -0.0606241 -3.38946e-29)
(0.962933 -0.0597876 6.16964e-29)
(0.963711 -0.0589294 -2.56594e-29)
(0.964498 -0.0580492 0)
(0.965295 -0.057147 0)
(0.966101 -0.056223 0)
(0.966914 -0.0552772 0)
(0.967734 -0.0543101 0)
(0.968561 -0.0533219 0)
(0.969393 -0.0523134 1.06622e-29)
(0.970229 -0.0512851 -3.1728e-30)
(0.97107 -0.050238 0)
(0.971914 -0.0491731 0)
(0.97276 -0.0480917 -2.70503e-30)
(0.973609 -0.046995 2.34497e-30)
(0.974458 -0.0458847 0)
(0.975308 -0.0447634 -7.87305e-30)
(0.97615 -0.0436351 4.17727e-30)
(0.977024 -0.0425152 -9.62856e-30)
(0.978212 -0.0415358 5.03405e-30)
(0.988042 -0.0764438 0)
(0.987554 -0.0761218 0)
(0.987084 -0.0757828 0)
(0.986631 -0.075427 -5.13578e-28)
(0.986196 -0.075055 2.33736e-28)
(0.985778 -0.074667 -7.86449e-28)
(0.985378 -0.0742634 1.00035e-27)
(0.984996 -0.0738445 0)
(0.984632 -0.0734105 0)
(0.984286 -0.0729617 0)
(0.983959 -0.0724981 3.95868e-12)
(0.983651 -0.07202 3.713e-12)
(0.983363 -0.0715272 0)
(0.983095 -0.0710196 0)
(0.982848 -0.0704972 0)
(0.982621 -0.0699595 0)
(0.982415 -0.0694064 0)
(0.982232 -0.0688374 -2.77683e-28)
(0.98207 -0.068252 2.77683e-28)
(0.98193 -0.0676496 0)
(0.981813 -0.0670299 -1.6374e-28)
(0.981719 -0.0663921 7.19831e-29)
(0.981647 -0.0657356 0)
(0.981599 -0.0650598 0)
(0.981573 -0.0643642 0)
(0.981569 -0.0636481 0)
(0.981589 -0.062911 0)
(0.981631 -0.0621523 -8.00939e-29)
(0.981695 -0.0613717 3.39326e-29)
(0.98178 -0.0605688 -6.1765e-29)
(0.981888 -0.0597432 2.56877e-29)
(0.982016 -0.0588948 0)
(0.982165 -0.0580234 0)
(0.982334 -0.0571292 0)
(0.982523 -0.0562121 0)
(0.982731 -0.0552725 0)
(0.982958 -0.0543108 0)
(0.983202 -0.0533275 -1.06733e-29)
(0.983465 -0.0523234 3.17607e-30)
(0.983744 -0.0512993 0)
(0.984039 -0.0502562 0)
(0.984351 -0.0491955 2.70774e-30)
(0.984677 -0.0481184 -2.34729e-30)
(0.985019 -0.0470268 0)
(0.985374 -0.0459228 7.88069e-30)
(0.985739 -0.0448106 -4.18128e-30)
(0.986132 -0.0437056 9.63769e-30)
(0.986687 -0.042737 -5.0365e-30)
(1.02386 -0.074685 0)
(1.02268 -0.074401 0)
(1.02151 -0.0740998 -1.55611e-29)
(1.02036 -0.0737818 0)
(1.01923 -0.0734476 1.41148e-29)
(1.01812 -0.0730977 -6.44858e-28)
(1.01704 -0.0727327 6.31434e-28)
(1.01597 -0.0723529 1.21034e-29)
(1.01492 -0.0719588 0)
(1.01389 -0.0715507 0)
(1.01288 -0.0711288 5.15269e-29)
(1.0119 -0.0706933 0)
(1.01094 -0.0702441 -1.44008e-28)
(1.01 -0.0697813 -1.01038e-28)
(1.00908 -0.0693047 0)
(1.00819 -0.0688139 -3.8228e-29)
(1.00733 -0.0683087 0)
(1.00649 -0.0677885 0)
(1.00568 -0.0672528 0)
(1.00489 -0.066701 -5.8357e-30)
(1.00413 -0.0661324 0)
(1.00341 -0.0655464 0)
(1.0027 -0.0649421 0)
(1.00203 -0.0643189 0)
(1.00139 -0.063676 3.98684e-30)
(1.00078 -0.0630126 0)
(1.00019 -0.0623283 0)
(0.999636 -0.0616222 1.53949e-29)
(0.999111 -0.0608938 1.22781e-12)
(0.998615 -0.0601427 1.11353e-12)
(0.998148 -0.0593685 0)
(0.997711 -0.0585709 2.0581e-30)
(0.997303 -0.0577497 0)
(0.996924 -0.0569049 0)
(0.996574 -0.0560364 0)
(0.996252 -0.0551446 -1.26946e-30)
(0.995958 -0.0542299 0)
(0.995692 -0.0532926 4.18888e-13)
(0.995453 -0.0523336 3.5777e-13)
(0.995241 -0.0513536 0)
(0.995056 -0.0503538 5.72478e-31)
(0.994897 -0.0493352 0)
(0.994764 -0.0482994 0)
(0.994656 -0.047248 -2.96368e-31)
(0.994573 -0.0461831 0)
(0.994515 -0.0451088 0)
(0.994481 -0.0440401 0)
(0.99447 -0.0431003 0)
(1.05333 -0.0717217 0)
(1.05162 -0.0714762 0)
(1.04992 -0.0712134 1.55611e-29)
(1.04825 -0.0709341 0)
(1.04659 -0.0706389 -1.41148e-29)
(1.04496 -0.0703286 1.34234e-29)
(1.04334 -0.0700038 0)
(1.04174 -0.0696652 -1.21034e-29)
(1.04017 -0.0693132 0)
(1.03861 -0.0689484 0)
(1.03708 -0.0685711 -5.15269e-29)
(1.03557 -0.0681816 0)
(1.03409 -0.0677798 1.44008e-28)
(1.03263 -0.0673659 1.01038e-28)
(1.03119 -0.0669397 0)
(1.02978 -0.0665009 3.8228e-29)
(1.0284 -0.0660491 0)
(1.02705 -0.0655837 0)
(1.02572 -0.0651043 0)
(1.02442 -0.0646101 5.8357e-30)
(1.02316 -0.0641003 0)
(1.02192 -0.0635741 0)
(1.02072 -0.0630307 0)
(1.01955 -0.0624693 0)
(1.01841 -0.0618889 -3.98684e-30)
(1.0173 -0.0612887 0)
(1.01623 -0.0606679 0)
(1.01519 -0.0600258 -1.53949e-29)
(1.01418 -0.0593617 -1.22781e-12)
(1.01321 -0.058675 -1.11353e-12)
(1.01228 -0.0579652 0)
(1.01138 -0.057232 -2.0581e-30)
(1.01051 -0.056475 0)
(1.00968 -0.0556942 0)
(1.00888 -0.0548895 0)
(1.00812 -0.0540611 1.26946e-30)
(1.00739 -0.0532093 0)
(1.0067 -0.0523345 -4.18888e-13)
(1.00604 -0.0514375 -3.5777e-13)
(1.00541 -0.050519 0)
(1.00482 -0.0495801 -5.72478e-31)
(1.00426 -0.0486218 0)
(1.00374 -0.0476456 0)
(1.00325 -0.0466531 2.96368e-31)
(1.00279 -0.0456463 0)
(1.00237 -0.0446292 0)
(1.00197 -0.043616 0)
(1.00147 -0.0427223 0)
(1.07658 -0.0678885 0)
(1.0745 -0.0676792 0)
(1.07243 -0.0674527 0)
(1.07039 -0.0672101 0)
(1.06836 -0.0669522 0)
(1.06635 -0.0666799 0)
(1.06436 -0.066394 0)
(1.06239 -0.0660954 0)
(1.06044 -0.0657848 0)
(1.05851 -0.0654626 0)
(1.05659 -0.0651295 0)
(1.05471 -0.0647857 0)
(1.05284 -0.0644315 0)
(1.051 -0.0640668 0)
(1.04918 -0.0636916 0)
(1.04739 -0.0633057 0)
(1.04563 -0.0629086 0)
(1.04389 -0.0624998 3.5812e-28)
(1.04218 -0.0620786 -3.5812e-28)
(1.0405 -0.0616444 0)
(1.03886 -0.0611962 0)
(1.03724 -0.0607332 0)
(1.03565 -0.0602544 0)
(1.0341 -0.0597588 0)
(1.03259 -0.0592455 0)
(1.0311 -0.0587134 0)
(1.02965 -0.0581618 0)
(1.02824 -0.0575897 0)
(1.02687 -0.0569963 0)
(1.02553 -0.0563809 0)
(1.02422 -0.055743 0)
(1.02296 -0.055082 0)
(1.02173 -0.0543976 0)
(1.02054 -0.0536896 0)
(1.01939 -0.052958 0)
(1.01827 -0.0522027 0)
(1.0172 -0.051424 0)
(1.01616 -0.0506225 0)
(1.01516 -0.0497985 0)
(1.0142 -0.0489529 0)
(1.01328 -0.0480867 0)
(1.01239 -0.0472009 0)
(1.01155 -0.0462968 0)
(1.01074 -0.0453761 0)
(1.00998 -0.0444406 0)
(1.00925 -0.043494 0)
(1.00854 -0.04255 0)
(1.00763 -0.0417147 0)
(1.09413 -0.0634817 0)
(1.09182 -0.0633038 0)
(1.08952 -0.0631093 0)
(1.08724 -0.0628991 0)
(1.08498 -0.0626745 0)
(1.08273 -0.0624364 -6.72346e-28)
(1.0805 -0.0621858 6.72346e-28)
(1.07828 -0.0619238 0)
(1.07608 -0.061651 0)
(1.0739 -0.0613684 0)
(1.07174 -0.0610763 0)
(1.0696 -0.0607754 0)
(1.06748 -0.0604659 0)
(1.06538 -0.0601479 0)
(1.06331 -0.0598213 0)
(1.06126 -0.059486 0)
(1.05923 -0.0591416 0)
(1.05723 -0.0587875 3.59562e-28)
(1.05526 -0.0584231 -3.59562e-28)
(1.05332 -0.0580475 0)
(1.0514 -0.0576599 0)
(1.04952 -0.0572592 0)
(1.04766 -0.0568446 0)
(1.04584 -0.0564148 0)
(1.04405 -0.0559688 0)
(1.0423 -0.0555056 0)
(1.04058 -0.0550241 0)
(1.03889 -0.0545234 0)
(1.03724 -0.0540025 0)
(1.03563 -0.0534607 0)
(1.03406 -0.0528972 0)
(1.03252 -0.0523116 0)
(1.03102 -0.0517033 0)
(1.02956 -0.051072 0)
(1.02814 -0.0504176 0)
(1.02676 -0.0497402 0)
(1.02541 -0.0490398 0)
(1.02411 -0.0483169 0)
(1.02285 -0.0475719 0)
(1.02163 -0.0468056 0)
(1.02045 -0.0460187 0)
(1.01931 -0.0452124 0)
(1.01821 -0.0443879 0)
(1.01715 -0.0435466 0)
(1.01614 -0.0426903 0)
(1.01517 -0.0418226 0)
(1.01421 -0.0409561 0)
(1.01297 -0.0401875 0)
(1.10676 -0.0587462 0)
(1.10433 -0.0585938 0)
(1.10191 -0.0584255 0)
(1.0995 -0.0582424 0)
(1.09711 -0.0580458 3.2655e-28)
(1.09473 -0.0578367 2.91651e-28)
(1.09236 -0.0576165 -1.91406e-28)
(1.09 -0.057386 -2.86024e-28)
(1.08767 -0.0571464 0)
(1.08534 -0.0568985 0)
(1.08304 -0.0566429 0)
(1.08075 -0.0563802 0)
(1.07848 -0.0561108 0)
(1.07623 -0.0558349 0)
(1.074 -0.0555525 0)
(1.07179 -0.0552634 0)
(1.0696 -0.0549673 0)
(1.06744 -0.0546637 0)
(1.0653 -0.0543518 0)
(1.06319 -0.0540309 0)
(1.06111 -0.0537 0)
(1.05905 -0.0533581 0)
(1.05702 -0.0530041 2.82406e-12)
(1.05502 -0.0526369 2.65394e-12)
(1.05306 -0.0522553 2.49017e-12)
(1.05112 -0.0518581 2.33267e-12)
(1.04922 -0.0514443 -1.00481e-28)
(1.04735 -0.0510128 0)
(1.04551 -0.0505626 0)
(1.04371 -0.0500928 0)
(1.04195 -0.0496026 0)
(1.04022 -0.0490914 0)
(1.03853 -0.0485587 0)
(1.03688 -0.0480041 0)
(1.03526 -0.0474273 0)
(1.03369 -0.0468283 0)
(1.03215 -0.0462072 0)
(1.03065 -0.0455643 0)
(1.0292 -0.0448999 0)
(1.02778 -0.0442148 0)
(1.02641 -0.0435098 2.96018e-29)
(1.02507 -0.0427857 0)
(1.02378 -0.0420437 0)
(1.02253 -0.0412852 -2.00363e-29)
(1.02133 -0.0405119 2.3749e-29)
(1.02017 -0.0397269 -1.4542e-29)
(1.01902 -0.0389421 0)
(1.01751 -0.0382443 0)
(1.11535 -0.0538675 0)
(1.11288 -0.0537346 0)
(1.11042 -0.0535868 0)
(1.10796 -0.0534251 0)
(1.10552 -0.053251 -3.2655e-28)
(1.10308 -0.0530657 3.12677e-28)
(1.10066 -0.0528705 -4.12922e-28)
(1.09825 -0.0526665 2.86024e-28)
(1.09585 -0.0524548 0)
(1.09347 -0.0522364 0)
(1.0911 -0.052012 0)
(1.08874 -0.0517822 0)
(1.0864 -0.0515477 0)
(1.08408 -0.0513085 0)
(1.08177 -0.0510649 0)
(1.07949 -0.0508166 0)
(1.07722 -0.0505633 0)
(1.07497 -0.0503046 3.71222e-28)
(1.07275 -0.0500397 -3.71222e-28)
(1.07055 -0.0497679 0)
(1.06837 -0.0494882 0)
(1.06622 -0.0491995 0)
(1.06409 -0.0489008 -2.82406e-12)
(1.06199 -0.0485908 -2.65394e-12)
(1.05992 -0.0482684 -2.49017e-12)
(1.05788 -0.0479323 -2.33267e-12)
(1.05586 -0.0475813 1.00481e-28)
(1.05388 -0.0472144 0)
(1.05193 -0.0468304 0)
(1.05001 -0.0464284 0)
(1.04813 -0.0460076 0)
(1.04628 -0.0455673 0)
(1.04446 -0.0451068 0)
(1.04268 -0.0446256 0)
(1.04093 -0.0441236 0)
(1.03923 -0.0436006 0)
(1.03756 -0.0430566 0)
(1.03593 -0.0424918 0)
(1.03434 -0.0419066 0)
(1.03278 -0.0413016 0)
(1.03127 -0.0406773 -2.96018e-29)
(1.0298 -0.0400348 0)
(1.02837 -0.039375 0)
(1.02697 -0.0386992 2.00363e-29)
(1.02563 -0.038009 -2.3749e-29)
(1.02433 -0.0373072 1.4542e-29)
(1.02303 -0.0366046 0)
(1.02132 -0.0359788 0)
(1.12078 -0.0489748 0)
(1.11832 -0.0488564 8.36914e-12)
(1.11587 -0.048724 1.60966e-11)
(1.11342 -0.0485789 7.73479e-12)
(1.11098 -0.0484226 0)
(1.10855 -0.0482564 -2.95966e-28)
(1.10613 -0.0480815 0)
(1.10372 -0.0478992 0)
(1.10132 -0.0477107 -6.27713e-12)
(1.09893 -0.0475169 -6.00735e-12)
(1.09655 -0.0473188 0)
(1.09419 -0.047117 -5.48922e-12)
(1.09184 -0.0469121 -5.24074e-12)
(1.0895 -0.0467044 0)
(1.08718 -0.0464939 -4.76465e-12)
(1.08487 -0.0462808 -4.53689e-12)
(1.08258 -0.0460645 0)
(1.08031 -0.0458448 -3.54417e-28)
(1.07806 -0.0456209 0)
(1.07583 -0.045392 1.53282e-28)
(1.07362 -0.0451572 -3.02242e-28)
(1.07143 -0.0449155 1.37369e-28)
(1.06926 -0.0446657 3.12694e-12)
(1.06711 -0.0444066 2.95077e-12)
(1.065 -0.0441369 -1.15426e-28)
(1.0629 -0.0438556 2.61637e-12)
(1.06083 -0.0435612 2.45794e-12)
(1.05879 -0.0432527 1.99194e-28)
(1.05678 -0.042929 2.15806e-12)
(1.0548 -0.042589 2.01639e-12)
(1.05285 -0.0422319 -7.80434e-29)
(1.05093 -0.0418569 1.74899e-12)
(1.04904 -0.0414634 7.01236e-29)
(1.04718 -0.0410507 -1.50207e-12)
(1.04536 -0.0406187 1.38597e-12)
(1.04357 -0.0401671 1.2746e-12)
(1.04182 -0.0396958 0)
(1.0401 -0.0392051 -1.06554e-12)
(1.03842 -0.0386952 -1.93513e-12)
(1.03678 -0.0381665 -8.73772e-13)
(1.03517 -0.0376198 -7.84011e-13)
(1.0336 -0.0370557 -6.98131e-13)
(1.03207 -0.0364753 -2.557e-29)
(1.03058 -0.0358796 0)
(1.02914 -0.0352701 3.99211e-29)
(1.02774 -0.0346493 -1.61721e-29)
(1.02634 -0.0340271 0)
(1.02448 -0.0334719 1.19283e-29)
(1.12385 -0.0441501 0)
(1.12144 -0.0440423 -8.36914e-12)
(1.11903 -0.0439217 -1.60966e-11)
(1.11662 -0.0437896 -7.73479e-12)
(1.11422 -0.0436475 0)
(1.11183 -0.0434967 2.95966e-28)
(1.10945 -0.0433385 0)
(1.10708 -0.0431742 0)
(1.10471 -0.0430051 6.27713e-12)
(1.10235 -0.042832 6.00735e-12)
(1.10001 -0.0426561 0)
(1.09767 -0.0424779 5.48922e-12)
(1.09535 -0.0422981 5.24074e-12)
(1.09303 -0.0421171 0)
(1.09074 -0.0419349 4.76465e-12)
(1.08845 -0.0417517 4.53689e-12)
(1.08618 -0.041567 0)
(1.08392 -0.0413806 7.30269e-28)
(1.08168 -0.0411918 -3.75852e-28)
(1.07946 -0.0409998 -1.53282e-28)
(1.07726 -0.0408037 3.02242e-28)
(1.07507 -0.0406025 -1.37369e-28)
(1.0729 -0.040395 -3.12694e-12)
(1.07075 -0.0401802 -2.95077e-12)
(1.06863 -0.0399567 1.15426e-28)
(1.06653 -0.0397232 -2.61637e-12)
(1.06445 -0.0394787 -2.45794e-12)
(1.06239 -0.0392219 -1.99194e-28)
(1.06036 -0.0389517 -2.15806e-12)
(1.05835 -0.0386671 -2.01639e-12)
(1.05637 -0.0383672 7.80434e-29)
(1.05442 -0.0380511 -1.74899e-12)
(1.0525 -0.0377181 -7.01236e-29)
(1.05061 -0.0373678 1.50207e-12)
(1.04875 -0.0369997 -1.38597e-12)
(1.04691 -0.0366137 -1.2746e-12)
(1.04512 -0.0362096 0)
(1.04335 -0.0357874 1.06554e-12)
(1.04162 -0.0353475 1.93513e-12)
(1.03992 -0.0348902 8.73772e-13)
(1.03825 -0.0344161 7.84011e-13)
(1.03663 -0.0339259 6.98131e-13)
(1.03504 -0.0334203 2.557e-29)
(1.03348 -0.0329004 0)
(1.03196 -0.0323675 -3.99211e-29)
(1.0305 -0.0318239 1.61721e-29)
(1.02902 -0.0312783 0)
(1.02706 -0.0307907 -1.19266e-29)
(1.12525 -0.0394386 3.71912e-28)
(1.12289 -0.039339 -7.4625e-28)
(1.12054 -0.0392279 3.45353e-28)
(1.1182 -0.0391065 0)
(1.11586 -0.0389763 0)
(1.11353 -0.0388386 0)
(1.11121 -0.0386947 0)
(1.10889 -0.0385459 0)
(1.10658 -0.0383934 -5.67029e-28)
(1.10427 -0.0382383 0)
(1.10198 -0.0380815 5.21052e-28)
(1.0997 -0.0379236 -2.39679e-28)
(1.09742 -0.0377654 0)
(1.09516 -0.0376072 0)
(1.09291 -0.0374493 0)
(1.09067 -0.0372915 4.16059e-28)
(1.08844 -0.0371338 -1.90586e-28)
(1.08622 -0.0369757 4.15336e-28)
(1.08402 -0.0368167 -2.42541e-28)
(1.08184 -0.0366561 -1.64284e-28)
(1.07966 -0.0364929 3.24784e-28)
(1.07751 -0.0363262 0)
(1.07537 -0.036155 0)
(1.07325 -0.035978 0)
(1.07114 -0.0357941 0)
(1.06906 -0.035602 0)
(1.06699 -0.0354006 0)
(1.06495 -0.0351887 -2.18432e-28)
(1.06292 -0.0349653 9.85461e-29)
(1.06092 -0.0347292 -1.92289e-28)
(1.05895 -0.0344796 0)
(1.05699 -0.0342156 0)
(1.05506 -0.0339366 0)
(1.05316 -0.0336421 6.97316e-29)
(1.05129 -0.0333315 0)
(1.04944 -0.0330046 -5.95642e-29)
(1.04762 -0.0326614 5.47492e-29)
(1.04584 -0.0323017 0)
(1.04408 -0.0319259 0)
(1.04235 -0.0315342 0)
(1.04066 -0.031127 0)
(1.039 -0.030705 0)
(1.03737 -0.0302689 0)
(1.03578 -0.0298196 0)
(1.03422 -0.0293583 0)
(1.03271 -0.0288869 -1.82924e-29)
(1.03119 -0.0284131 3.1988e-29)
(1.02915 -0.0279892 -1.30306e-29)
(1.12552 -0.0348595 -3.71912e-28)
(1.12323 -0.0347671 7.4625e-28)
(1.12095 -0.0346643 -3.45353e-28)
(1.11868 -0.0345526 0)
(1.1164 -0.0344332 0)
(1.11414 -0.0343075 0)
(1.11188 -0.0341767 0)
(1.10963 -0.034042 0)
(1.10738 -0.0339046 5.67029e-28)
(1.10514 -0.0337656 0)
(1.10291 -0.0336258 -5.21052e-28)
(1.10069 -0.0334861 2.39679e-28)
(1.09848 -0.0333469 0)
(1.09628 -0.0332087 0)
(1.09409 -0.0330718 0)
(1.0919 -0.0329361 -4.16059e-28)
(1.08973 -0.0328015 1.90586e-28)
(1.08757 -0.0326677 3.99565e-28)
(1.08542 -0.0325341 -5.7236e-28)
(1.08329 -0.0324001 1.64284e-28)
(1.08116 -0.0322648 -3.24784e-28)
(1.07905 -0.0321274 0)
(1.07696 -0.0319868 0)
(1.07487 -0.0318419 0)
(1.07281 -0.0316916 0)
(1.07076 -0.0315348 0)
(1.06872 -0.0313703 0)
(1.06671 -0.031197 2.18432e-28)
(1.06471 -0.0310138 -9.85461e-29)
(1.06273 -0.0308197 1.92289e-28)
(1.06078 -0.0306139 0)
(1.05884 -0.0303956 0)
(1.05693 -0.0301641 0)
(1.05503 -0.0299187 -6.97316e-29)
(1.05317 -0.0296592 0)
(1.05132 -0.0293851 5.95642e-29)
(1.04951 -0.0290964 -5.47492e-29)
(1.04772 -0.0287931 0)
(1.04595 -0.0284751 0)
(1.04422 -0.0281429 0)
(1.04251 -0.0277968 0)
(1.04084 -0.0274372 0)
(1.03919 -0.0270649 0)
(1.03758 -0.0266806 0)
(1.036 -0.0262853 0)
(1.03446 -0.0258808 1.82924e-29)