/*--------------------------------*- C++ -*----------------------------------*\
  =========                 |
  \\      /  F ield         | OpenFOAM: The Open Source CFD Toolbox
   \\    /   O peration     | Website:  https://openfoam.org
    \\  /    A nd           | Version:  7
     \\/     M anipulation  |
\*---------------------------------------------------------------------------*/
FoamFile
{
    version     2.0;
    format      ascii;
    class       volScalarField;
    location    "45";
    object      p;
}
// * * * * * * * * * * * * * * * * * * * * * * * * * * * * * * * * * * * * * //

dimensions      [0 2 -2 0 0 0 0];

internalField   nonuniform List<scalar> 
14000
(
-0.233963
-0.237569
-0.239027
-0.240694
-0.242419
-0.24403
-0.245262
-0.245842
-0.246214
-0.244254
-0.235025
-0.238421
-0.2398
-0.241415
-0.243103
-0.244713
-0.246014
-0.24631
-0.247319
-0.244335
-0.237037
-0.240029
-0.241237
-0.242729
-0.24432
-0.245874
-0.247466
-0.24677
-0.249662
-0.24412
-0.239802
-0.242223
-0.243142
-0.244406
-0.245815
-0.247084
-0.249518
-0.246476
-0.253251
-0.242756
-0.243092
-0.244807
-0.245282
-0.246162
-0.247314
-0.247892
-0.251828
-0.2451
-0.256289
-0.241359
-0.246709
-0.247606
-0.247451
-0.24773
-0.248507
-0.248303
-0.252712
-0.243714
-0.258175
-0.240058
-0.250541
-0.250521
-0.249531
-0.248994
-0.249031
-0.248372
-0.252428
-0.242153
-0.256185
-0.24061
-0.254608
-0.253545
-0.251526
-0.249966
-0.249061
-0.247956
-0.250304
-0.241863
-0.249533
-0.239944
-0.259111
-0.256767
-0.253602
-0.250836
-0.248813
-0.247109
-0.246601
-0.241153
-0.240485
-0.234054
-0.264372
-0.260466
-0.256016
-0.251894
-0.248601
-0.245684
-0.242279
-0.23713
-0.23005
-0.223094
-0.270754
-0.265018
-0.259114
-0.253445
-0.24854
-0.243607
-0.237355
-0.229919
-0.218636
-0.208661
-0.278703
-0.270804
-0.263172
-0.255631
-0.248537
-0.240775
-0.231325
-0.220563
-0.207481
-0.19541
-0.28869
-0.278151
-0.268333
-0.258533
-0.248406
-0.236988
-0.224083
-0.210501
-0.19578
-0.182618
-0.301119
-0.287199
-0.274777
-0.262081
-0.247792
-0.232092
-0.215855
-0.199693
-0.183865
-0.170358
-0.316257
-0.297686
-0.282751
-0.265837
-0.2462
-0.225975
-0.206536
-0.18834
-0.171737
-0.15761
-0.334076
-0.309271
-0.291767
-0.268878
-0.243111
-0.218413
-0.196148
-0.176285
-0.159003
-0.144365
-0.353392
-0.322007
-0.300107
-0.26995
-0.238001
-0.209221
-0.184495
-0.163314
-0.145524
-0.130276
-0.372175
-0.33571
-0.305888
-0.267916
-0.230382
-0.1981
-0.171364
-0.149195
-0.130996
-0.115356
-0.388252
-0.348707
-0.308003
-0.262083
-0.219795
-0.184736
-0.156469
-0.133646
-0.115297
-0.0996125
-0.399955
-0.358106
-0.305567
-0.252052
-0.20586
-0.168783
-0.139523
-0.116429
-0.098231
-0.0830084
-0.406161
-0.361256
-0.297403
-0.237429
-0.188259
-0.149942
-0.12028
-0.0973506
-0.0796355
-0.0651486
-0.405893
-0.35624
-0.282639
-0.217788
-0.166728
-0.127979
-0.0985803
-0.0763655
-0.0594179
-0.0454747
-0.39798
-0.341997
-0.260757
-0.192767
-0.141053
-0.102791
-0.0743942
-0.0535201
-0.0376052
-0.0240007
-0.38103
-0.318014
-0.231436
-0.162158
-0.111205
-0.0745001
-0.0478572
-0.0288469
-0.0139932
-0.00180202
-0.353689
-0.284165
-0.194443
-0.126087
-0.0774539
-0.0434166
-0.01921
-0.00218511
0.0111751
0.0211231
-0.315023
-0.240575
-0.149867
-0.0850953
-0.0401766
-0.00954396
0.0115006
0.0261396
0.0373948
0.0445715
-0.264803
-0.187285
-0.0987208
-0.0394316
0.000464099
0.0267195
0.0439733
0.0556047
0.0639879
0.0678091
-0.203466
-0.124181
-0.0423927
0.0102246
0.0439237
0.0649309
0.0777956
0.0856237
0.090087
0.089838
-0.131555
-0.0534314
0.0183903
0.0628799
0.0894902
0.104576
0.112513
0.115734
0.115195
0.110401
-0.0495498
0.0213114
0.0825012
0.117526
0.136329
0.144998
0.147557
0.145661
0.139892
0.131263
0.0390554
0.0987826
0.148377
0.173057
0.183515
0.185392
0.182193
0.174999
0.164709
0.157069
0.131132
0.177359
0.214349
0.228226
0.230052
0.224908
0.215725
0.203392
0.189761
0.181712
0.223322
0.254933
0.278718
0.281714
0.274887
0.262734
0.247729
0.230782
0.214242
0.203767
0.31228
0.329273
0.339793
0.332181
0.316944
0.298001
0.277501
0.256428
0.237111
0.223567
0.394773
0.398167
0.395933
0.378333
0.355227
0.329986
0.30449
0.279685
0.257549
0.240798
0.467969
0.459461
0.445554
0.418926
0.388759
0.357921
0.328072
0.300016
0.275222
0.255385
0.529726
0.510981
0.487168
0.452851
0.416696
0.381142
0.347657
0.316873
0.289739
0.267154
0.578021
0.551053
0.51951
0.479163
0.438319
0.399092
0.362796
0.329884
0.300854
0.275999
0.611188
0.578455
0.541613
0.497122
0.453056
0.411314
0.373102
0.338733
0.308372
0.281885
0.628067
0.592365
0.552828
0.506229
0.460523
0.417503
0.37832
0.34321
0.312162
0.284816
0.628067
0.592365
0.552828
0.506229
0.460523
0.417503
0.37832
0.34321
0.312162
0.284816
0.611188
0.578455
0.541613
0.497122
0.453056
0.411314
0.373102
0.338733
0.308372
0.281885
0.578021
0.551053
0.51951
0.479163
0.438319
0.399092
0.362796
0.329884
0.300854
0.275999
0.529726
0.510981
0.487168
0.452852
0.416696
0.381142
0.347657
0.316873
0.289739
0.267154
0.467969
0.459461
0.445554
0.418926
0.388759
0.357922
0.328072
0.300016
0.275222
0.255385
0.394773
0.398167
0.395933
0.378333
0.355227
0.329986
0.304491
0.279685
0.257549
0.240798
0.31228
0.329273
0.339793
0.332181
0.316944
0.298001
0.277501
0.256428
0.237111
0.223567
0.223322
0.254933
0.278718
0.281714
0.274887
0.262734
0.24773
0.230782
0.214242
0.203767
0.131132
0.177359
0.214349
0.228227
0.230052
0.224908
0.215725
0.203392
0.189761
0.181712
0.0390555
0.0987827
0.148377
0.173057
0.183515
0.185392
0.182193
0.174999
0.164709
0.157069
-0.0495498
0.0213115
0.0825013
0.117526
0.136329
0.144998
0.147558
0.145661
0.139892
0.131263
-0.131555
-0.0534313
0.0183904
0.06288
0.0894903
0.104576
0.112513
0.115734
0.115195
0.110401
-0.203466
-0.12418
-0.0423925
0.0102248
0.0439238
0.064931
0.0777957
0.0856238
0.0900871
0.0898381
-0.264803
-0.187284
-0.0987207
-0.0394315
0.000464237
0.0267197
0.0439734
0.0556048
0.063988
0.0678091
-0.315022
-0.240575
-0.149867
-0.0850951
-0.0401765
-0.00954382
0.0115007
0.0261397
0.0373949
0.0445715
-0.353689
-0.284165
-0.194443
-0.126087
-0.0774537
-0.0434164
-0.0192099
-0.00218502
0.0111752
0.0211232
-0.38103
-0.318014
-0.231436
-0.162157
-0.111205
-0.0745
-0.0478571
-0.0288468
-0.0139932
-0.00180199
-0.39798
-0.341996
-0.260757
-0.192767
-0.141053
-0.102791
-0.074394
-0.05352
-0.0376052
-0.0240007
-0.405893
-0.356239
-0.282639
-0.217788
-0.166727
-0.127979
-0.0985802
-0.0763654
-0.0594179
-0.0454747
-0.406161
-0.361256
-0.297403
-0.237429
-0.188259
-0.149942
-0.12028
-0.0973505
-0.0796354
-0.0651486
-0.399955
-0.358105
-0.305567
-0.252052
-0.20586
-0.168782
-0.139523
-0.116429
-0.098231
-0.0830084
-0.388252
-0.348706
-0.308002
-0.262083
-0.219795
-0.184735
-0.156469
-0.133646
-0.115297
-0.0996126
-0.372174
-0.335709
-0.305887
-0.267916
-0.230382
-0.1981
-0.171364
-0.149194
-0.130996
-0.115356
-0.353391
-0.322007
-0.300106
-0.26995
-0.238
-0.209221
-0.184495
-0.163314
-0.145524
-0.130276
-0.334075
-0.309271
-0.291766
-0.268877
-0.243111
-0.218413
-0.196148
-0.176285
-0.159004
-0.144366
-0.316256
-0.297686
-0.28275
-0.265836
-0.246199
-0.225974
-0.206536
-0.18834
-0.171738
-0.157611
-0.301118
-0.287198
-0.274777
-0.262081
-0.247792
-0.232092
-0.215855
-0.199693
-0.183866
-0.170358
-0.288689
-0.27815
-0.268332
-0.258533
-0.248405
-0.236988
-0.224083
-0.210501
-0.19578
-0.182618
-0.278702
-0.270803
-0.263172
-0.25563
-0.248536
-0.240774
-0.231324
-0.220563
-0.207481
-0.195411
-0.270753
-0.265018
-0.259113
-0.253444
-0.248539
-0.243606
-0.237354
-0.229919
-0.218636
-0.208662
-0.264372
-0.260466
-0.256016
-0.251893
-0.248601
-0.245683
-0.242278
-0.237129
-0.230051
-0.223095
-0.25911
-0.256767
-0.253602
-0.250835
-0.248812
-0.247108
-0.2466
-0.241153
-0.240486
-0.234056
-0.254608
-0.253544
-0.251525
-0.249965
-0.24906
-0.247955
-0.250303
-0.241863
-0.249533
-0.239946
-0.250541
-0.25052
-0.24953
-0.248993
-0.24903
-0.248371
-0.252427
-0.242153
-0.256186
-0.240612
-0.246709
-0.247606
-0.247451
-0.24773
-0.248506
-0.248302
-0.252711
-0.243714
-0.258175
-0.24006
-0.243092
-0.244807
-0.245282
-0.246161
-0.247313
-0.247891
-0.251827
-0.245101
-0.256289
-0.24136
-0.239802
-0.242223
-0.243141
-0.244406
-0.245815
-0.247083
-0.249518
-0.246477
-0.253252
-0.242757
-0.237037
-0.240029
-0.241237
-0.242729
-0.24432
-0.245874
-0.247466
-0.24677
-0.249663
-0.244121
-0.235025
-0.238421
-0.2398
-0.241415
-0.243103
-0.244713
-0.246014
-0.24631
-0.247319
-0.244336
-0.233963
-0.237569
-0.239027
-0.240694
-0.242419
-0.24403
-0.245262
-0.245842
-0.246214
-0.244254
-0.243435
-0.242651
-0.241766
-0.240792
-0.239734
-0.2386
-0.237397
-0.23613
-0.234803
-0.233418
-0.231978
-0.230482
-0.228933
-0.22733
-0.225674
-0.223963
-0.222199
-0.220385
-0.218524
-0.216613
-0.214651
-0.212638
-0.210574
-0.208458
-0.20629
-0.20407
-0.201797
-0.19947
-0.197091
-0.194658
-0.192171
-0.189632
-0.187039
-0.184393
-0.181695
-0.178945
-0.176144
-0.173293
-0.170394
-0.167447
-0.164454
-0.161418
-0.158339
-0.155221
-0.152064
-0.148873
-0.14565
-0.142397
-0.139119
-0.135817
-0.132496
-0.129158
-0.125809
-0.12245
-0.119088
-0.115725
-0.112365
-0.109012
-0.105671
-0.102345
-0.0990375
-0.0957532
-0.0924956
-0.0892683
-0.0860748
-0.0829188
-0.0798032
-0.0767314
-0.0737062
-0.0707303
-0.0678064
-0.0649369
-0.0621239
-0.0593695
-0.0566754
-0.0540433
-0.0514744
-0.04897
-0.0465311
-0.0441584
-0.0418526
-0.0396141
-0.0374432
-0.0353399
-0.0333044
-0.0313362
-0.0294353
-0.0276011
-0.025833
-0.0241306
-0.0224929
-0.0209193
-0.0194089
-0.0179607
-0.0165737
-0.015247
-0.0139795
-0.0127702
-0.011618
-0.0105218
-0.0094806
-0.00849337
-0.0075591
-0.00667682
-0.00584561
-0.00506461
-0.00433303
-0.00365016
-0.00301536
-0.00242814
-0.0018881
-0.00139501
-0.000948851
-0.000549704
-0.000198389
0.000105564
0.000355484
0.0005706
0.000652013
0.000933515
-0.243913
-0.243098
-0.242175
-0.241177
-0.240098
-0.238948
-0.237733
-0.236457
-0.235124
-0.233736
-0.232294
-0.230799
-0.22925
-0.227648
-0.22599
-0.224278
-0.222518
-0.220712
-0.218856
-0.21695
-0.214993
-0.212984
-0.210925
-0.208814
-0.206652
-0.204437
-0.202169
-0.199849
-0.197474
-0.195047
-0.192565
-0.19003
-0.187442
-0.1848
-0.182106
-0.17936
-0.176562
-0.173715
-0.170818
-0.167873
-0.164882
-0.161847
-0.158769
-0.155651
-0.152494
-0.149303
-0.146078
-0.142824
-0.139543
-0.136238
-0.132914
-0.129574
-0.12622
-0.122858
-0.119491
-0.116122
-0.112757
-0.109398
-0.106051
-0.102718
-0.0994047
-0.0961137
-0.0928492
-0.0896149
-0.0864148
-0.0832524
-0.0801265
-0.0770482
-0.0740162
-0.0710332
-0.0681022
-0.0652257
-0.0624058
-0.0596445
-0.0569437
-0.054305
-0.0517296
-0.0492189
-0.0467738
-0.0443951
-0.0420835
-0.0398393
-0.0376628
-0.0355543
-0.0335135
-0.0315403
-0.0296345
-0.0277956
-0.0260229
-0.024316
-0.0226741
-0.0210963
-0.0195818
-0.0181297
-0.0167389
-0.0154085
-0.0141374
-0.0129245
-0.0117688
-0.0106692
-0.00962472
-0.00863422
-0.00769671
-0.00681123
-0.00597685
-0.00519269
-0.00445793
-0.00377186
-0.00313382
-0.00254326
-0.00199977
-0.00150303
-0.001053
-0.000649502
-0.000293559
1.66783e-05
0.000271848
0.000499392
0.00058197
0.000855317
-0.244781
-0.243815
-0.242821
-0.241795
-0.240698
-0.239532
-0.238305
-0.237021
-0.235684
-0.234295
-0.232856
-0.231366
-0.229825
-0.228229
-0.226577
-0.224877
-0.223132
-0.221332
-0.219483
-0.217583
-0.215634
-0.213634
-0.211583
-0.20948
-0.207325
-0.205117
-0.202857
-0.200544
-0.198178
-0.195758
-0.193284
-0.190757
-0.188176
-0.185541
-0.182854
-0.180114
-0.177322
-0.17448
-0.171587
-0.168647
-0.165659
-0.162626
-0.15955
-0.156433
-0.153277
-0.150085
-0.146859
-0.143603
-0.140319
-0.137011
-0.133683
-0.130339
-0.126975
-0.1236
-0.120228
-0.116852
-0.113479
-0.110112
-0.106755
-0.103412
-0.100088
-0.0967863
-0.0935107
-0.0902649
-0.0870528
-0.0838777
-0.0807429
-0.0776519
-0.0746074
-0.0716123
-0.0686692
-0.0657807
-0.0629489
-0.0601759
-0.0574634
-0.0548132
-0.0522266
-0.0497048
-0.0472488
-0.0448595
-0.0425374
-0.0402829
-0.0380965
-0.0359781
-0.0339278
-0.0319453
-0.0300304
-0.0281826
-0.0264013
-0.0246859
-0.0230357
-0.0214498
-0.0199274
-0.0184675
-0.0170692
-0.0157313
-0.0144529
-0.0132329
-0.0120702
-0.0109636
-0.00991224
-0.00891494
-0.00797068
-0.00707849
-0.0062374
-0.00544651
-0.00470498
-0.00401202
-0.00336696
-0.00276917
-0.00221816
-0.00171344
-0.00125498
-0.000841949
-0.000476104
-0.000152575
0.000113605
0.00036369
0.000455436
0.000720955
-0.246891
-0.244506
-0.243579
-0.24246
-0.241324
-0.240152
-0.238925
-0.237648
-0.23632
-0.23494
-0.23351
-0.232029
-0.230497
-0.228908
-0.227262
-0.225581
-0.22384
-0.222054
-0.22022
-0.218336
-0.21641
-0.214398
-0.21237
-0.210283
-0.208144
-0.205952
-0.203707
-0.201409
-0.199057
-0.196651
-0.19419
-0.191675
-0.189105
-0.186482
-0.183804
-0.181074
-0.178291
-0.175456
-0.172571
-0.169636
-0.166654
-0.163625
-0.160553
-0.157438
-0.154284
-0.151092
-0.147866
-0.144608
-0.141322
-0.138011
-0.134678
-0.131328
-0.127962
-0.124587
-0.121205
-0.117821
-0.114438
-0.111061
-0.107694
-0.104341
-0.101006
-0.0976927
-0.0944054
-0.0911476
-0.087923
-0.0847352
-0.0815876
-0.0784834
-0.0754257
-0.0724174
-0.0694611
-0.0665592
-0.0637141
-0.0609278
-0.0582021
-0.0555387
-0.0529389
-0.0504041
-0.0479352
-0.045533
-0.0431983
-0.0409313
-0.0387325
-0.0366018
-0.0345394
-0.0325449
-0.0306182
-0.0287586
-0.0269658
-0.025239
-0.0235774
-0.0219804
-0.0204469
-0.018976
-0.0175668
-0.0162181
-0.0149289
-0.0136982
-0.0125248
-0.0114077
-0.0103457
-0.00933777
-0.00838285
-0.00747992
-0.00662799
-0.0058261
-0.00507338
-0.00436898
-0.00371213
-0.00310207
-0.00253829
-0.00201994
-0.00154713
-0.00111792
-0.000735522
-0.000390614
-0.000105703
0.000174555
0.000292099
0.000559605
-0.245675
-0.245364
-0.244114
-0.242913
-0.241781
-0.240616
-0.239402
-0.238145
-0.236842
-0.235491
-0.234093
-0.232645
-0.231147
-0.229594
-0.227981
-0.226315
-0.224599
-0.222832
-0.221013
-0.219145
-0.217226
-0.215256
-0.213234
-0.21116
-0.209033
-0.206853
-0.204621
-0.202335
-0.199995
-0.197601
-0.195152
-0.192649
-0.190092
-0.18748
-0.184814
-0.182094
-0.179322
-0.176497
-0.173621
-0.170695
-0.16772
-0.164699
-0.161633
-0.158524
-0.155374
-0.152186
-0.148963
-0.145708
-0.142424
-0.139114
-0.135781
-0.132429
-0.129062
-0.125683
-0.122298
-0.11891
-0.115523
-0.112141
-0.108769
-0.105409
-0.102068
-0.0987471
-0.0954519
-0.0921859
-0.0889526
-0.0857558
-0.0825987
-0.0794848
-0.076417
-0.0733982
-0.0704312
-0.0675184
-0.0646621
-0.0618644
-0.0591272
-0.056452
-0.0538403
-0.0512934
-0.0488123
-0.0463977
-0.0440505
-0.0417709
-0.0395593
-0.0374159
-0.0353405
-0.033333
-0.0313931
-0.0295203
-0.0277141
-0.0259739
-0.0242989
-0.0226882
-0.0211411
-0.0196564
-0.0182333
-0.0168706
-0.0155674
-0.0143224
-0.0131347
-0.012003
-0.0109263
-0.00990345
-0.0089334
-0.00801506
-0.00714742
-0.00632944
-0.0055602
-0.00483874
-0.00416423
-0.00353571
-0.00295263
-0.00241365
-0.00191924
-0.0014659
-0.0010588
-0.00068396
-0.000370115
-5.34869e-05
0.000110138
0.000394387
-0.242798
-0.243712
-0.243419
-0.24264
-0.241661
-0.240586
-0.239461
-0.238276
-0.23702
-0.235701
-0.234328
-0.232906
-0.231428
-0.22989
-0.228283
-0.22661
-0.224935
-0.22322
-0.221447
-0.219616
-0.217731
-0.215794
-0.213805
-0.211764
-0.20967
-0.207521
-0.205317
-0.203059
-0.200745
-0.198376
-0.19595
-0.193469
-0.190933
-0.188341
-0.185694
-0.182993
-0.180237
-0.177429
-0.174569
-0.171658
-0.168698
-0.16569
-0.162637
-0.15954
-0.156402
-0.153225
-0.150013
-0.146767
-0.143492
-0.14019
-0.136865
-0.13352
-0.130159
-0.126787
-0.123407
-0.120024
-0.116641
-0.113262
-0.109892
-0.106535
-0.103194
-0.0998743
-0.0965793
-0.0933128
-0.0900785
-0.08688
-0.0837207
-0.0806038
-0.0775325
-0.0745097
-0.071538
-0.0686199
-0.0657577
-0.0629535
-0.0602092
-0.0575264
-0.0549065
-0.0523508
-0.0498604
-0.047436
-0.0450783
-0.0427879
-0.0405649
-0.0384095
-0.0363217
-0.0343013
-0.032348
-0.0304615
-0.0286411
-0.0268861
-0.025196
-0.0235699
-0.0220068
-0.0205058
-0.019066
-0.0176862
-0.0163655
-0.0151026
-0.0138966
-0.0127462
-0.0116504
-0.0106079
-0.00961779
-0.00867882
-0.00778996
-0.00695011
-0.00615828
-0.00541336
-0.00471449
-0.00406042
-0.00345066
-0.00288322
-0.00235903
-0.00187308
-0.00143206
-0.00101896
-0.000664605
-0.000305628
-7.82353e-05
0.000238148
-0.239292
-0.240069
-0.240828
-0.240804
-0.240144
-0.239299
-0.238447
-0.237509
-0.236424
-0.235229
-0.23397
-0.232656
-0.231281
-0.229838
-0.228318
-0.226702
-0.22499
-0.223273
-0.221562
-0.219801
-0.21797
-0.216072
-0.214112
-0.212095
-0.210023
-0.207896
-0.205714
-0.203479
-0.201191
-0.198847
-0.196447
-0.19399
-0.191478
-0.188911
-0.186288
-0.18361
-0.180879
-0.178094
-0.175257
-0.172369
-0.169432
-0.166447
-0.163417
-0.160342
-0.157226
-0.154072
-0.150881
-0.147656
-0.144402
-0.141121
-0.137816
-0.134491
-0.13115
-0.127797
-0.124435
-0.121069
-0.117703
-0.11434
-0.110986
-0.107643
-0.104316
-0.10101
-0.0977267
-0.0944714
-0.0912473
-0.0880579
-0.0849068
-0.0817971
-0.0787319
-0.075714
-0.0727462
-0.0698308
-0.0669703
-0.0641666
-0.0614217
-0.0587371
-0.0561144
-0.0535548
-0.0510593
-0.0486287
-0.0462639
-0.0439652
-0.0417329
-0.0395673
-0.0374683
-0.0354358
-0.0334695
-0.031569
-0.0297337
-0.0279632
-0.0262566
-0.0246132
-0.0230321
-0.0215124
-0.0200531
-0.0186532
-0.0173115
-0.0160271
-0.0147987
-0.0136253
-0.0125058
-0.0114388
-0.0104234
-0.00945837
-0.00854255
-0.0076748
-0.00685404
-0.00607905
-0.00534888
-0.00466203
-0.004018
-0.0034143
-0.00285203
-0.00232535
-0.00184114
-0.00138216
-0.000976308
-0.000568775
-0.000265664
9.61758e-05
-0.236147
-0.235857
-0.237172
-0.23748
-0.236839
-0.236198
-0.235734
-0.235136
-0.234279
-0.233255
-0.232148
-0.230966
-0.229702
-0.228358
-0.226942
-0.225453
-0.223878
-0.222193
-0.22043
-0.218693
-0.217002
-0.215258
-0.213434
-0.211529
-0.209547
-0.207493
-0.205377
-0.203203
-0.200975
-0.19869
-0.196346
-0.193943
-0.191483
-0.188966
-0.186392
-0.183763
-0.181078
-0.178338
-0.175546
-0.172701
-0.169806
-0.166863
-0.163873
-0.160839
-0.157762
-0.154646
-0.151493
-0.148307
-0.14509
-0.141845
-0.138576
-0.135286
-0.13198
-0.128661
-0.125332
-0.121999
-0.118664
-0.115332
-0.112007
-0.108692
-0.105393
-0.102112
-0.0988536
-0.0956214
-0.0924192
-0.0892503
-0.0861181
-0.0830258
-0.0799764
-0.0769728
-0.0740175
-0.0711131
-0.0682619
-0.0654659
-0.062727
-0.0600468
-0.0574268
-0.0548682
-0.0523722
-0.0499396
-0.0475711
-0.0452672
-0.0430283
-0.0408545
-0.038746
-0.0367025
-0.0347239
-0.0328098
-0.0309597
-0.0291731
-0.0274493
-0.0257874
-0.0241868
-0.0226465
-0.0211655
-0.0197428
-0.0183775
-0.0170683
-0.0158142
-0.0146141
-0.0134667
-0.012371
-0.0113258
-0.0103298
-0.00938186
-0.0084808
-0.00762545
-0.00681444
-0.00604675
-0.00532068
-0.00463561
-0.00398884
-0.00338117
-0.00280688
-0.00227149
-0.00176019
-0.00129406
-0.000831705
-0.000446172
-2.84725e-05
-0.230536
-0.230615
-0.232482
-0.232474
-0.231596
-0.231265
-0.231298
-0.231121
-0.230633
-0.229977
-0.229213
-0.228332
-0.227329
-0.226216
-0.225005
-0.223698
-0.222299
-0.220806
-0.219197
-0.217431
-0.215543
-0.213719
-0.21199
-0.210217
-0.208355
-0.206399
-0.204362
-0.202263
-0.200106
-0.197888
-0.195605
-0.19326
-0.190856
-0.188396
-0.185879
-0.183305
-0.180677
-0.177994
-0.175258
-0.172471
-0.169633
-0.166748
-0.163816
-0.160839
-0.157821
-0.154762
-0.151668
-0.148539
-0.145379
-0.142191
-0.138979
-0.135745
-0.132494
-0.12923
-0.125955
-0.122675
-0.119392
-0.11611
-0.112834
-0.109568
-0.106314
-0.103078
-0.0998619
-0.0966705
-0.0935069
-0.0903746
-0.0872769
-0.0842168
-0.0811973
-0.0782212
-0.0752912
-0.0724096
-0.0695788
-0.0668008
-0.0640775
-0.0614105
-0.0588014
-0.0562514
-0.0537616
-0.051333
-0.0489662
-0.0466619
-0.0444205
-0.0422421
-0.0401269
-0.0380749
-0.0360859
-0.0341595
-0.0322954
-0.030493
-0.0287518
-0.027071
-0.0254499
-0.0238875
-0.0223831
-0.0209356
-0.0195441
-0.0182074
-0.0169244
-0.0156942
-0.0145154
-0.0133869
-0.0123076
-0.0112762
-0.0102915
-0.00935224
-0.00845713
-0.00760478
-0.00679401
-0.00602308
-0.00529108
-0.00459545
-0.00393622
-0.00330863
-0.00271574
-0.00214682
-0.00161429
-0.00109137
-0.000619729
-0.000136045
-0.222597
-0.224693
-0.226249
-0.225253
-0.224166
-0.224046
-0.224247
-0.224245
-0.224037
-0.223715
-0.223285
-0.222731
-0.222057
-0.221271
-0.220376
-0.219373
-0.218267
-0.21706
-0.21576
-0.21437
-0.212855
-0.211151
-0.209307
-0.207558
-0.205852
-0.204064
-0.202191
-0.200264
-0.198281
-0.196227
-0.194098
-0.191897
-0.189631
-0.187301
-0.184908
-0.182454
-0.179939
-0.177366
-0.174737
-0.172053
-0.169316
-0.166527
-0.16369
-0.160806
-0.157878
-0.154908
-0.151899
-0.148853
-0.145775
-0.142666
-0.139531
-0.136372
-0.133194
-0.13
-0.126793
-0.123577
-0.120356
-0.117135
-0.113916
-0.110704
-0.107502
-0.104314
-0.101144
-0.0979949
-0.094871
-0.0917755
-0.0887116
-0.0856823
-0.0826907
-0.0797394
-0.0768311
-0.0739683
-0.0711533
-0.0683883
-0.0656751
-0.0630156
-0.0604112
-0.0578633
-0.0553732
-0.0529417
-0.0505697
-0.048258
-0.0460069
-0.0438168
-0.0416879
-0.0396202
-0.0376136
-0.035668
-0.033783
-0.031958
-0.0301927
-0.0284864
-0.0268382
-0.0252476
-0.0237135
-0.022235
-0.0208113
-0.0194412
-0.0181236
-0.0168575
-0.0156417
-0.0144751
-0.0133563
-0.0122842
-0.0112575
-0.0102748
-0.0093348
-0.00843609
-0.00757725
-0.00675664
-0.00597288
-0.00522385
-0.00450845
-0.00382344
-0.00316887
-0.00253873
-0.00193669
-0.00134996
-0.000793153
-0.000237668
-0.210069
-0.217054
-0.218045
-0.21665
-0.215569
-0.215364
-0.215613
-0.215891
-0.216034
-0.216017
-0.215861
-0.215585
-0.215198
-0.214698
-0.214085
-0.213356
-0.212517
-0.21157
-0.210519
-0.209368
-0.208121
-0.206779
-0.205325
-0.203709
-0.201965
-0.200146
-0.198303
-0.196451
-0.19456
-0.192605
-0.190579
-0.188484
-0.186323
-0.184098
-0.18181
-0.17946
-0.177048
-0.174578
-0.172051
-0.169468
-0.166831
-0.164144
-0.161407
-0.158624
-0.155796
-0.152927
-0.150018
-0.147074
-0.144097
-0.141089
-0.138056
-0.134999
-0.131922
-0.128828
-0.125722
-0.122607
-0.119487
-0.116364
-0.113244
-0.110129
-0.107023
-0.10393
-0.100853
-0.0977951
-0.0947606
-0.0917522
-0.088773
-0.085826
-0.082914
-0.0800396
-0.0772054
-0.0744136
-0.0716666
-0.0689663
-0.0663145
-0.063713
-0.0611632
-0.0586664
-0.0562238
-0.0538363
-0.0515048
-0.0492299
-0.0470121
-0.0448518
-0.0427492
-0.0407043
-0.0387171
-0.0367874
-0.034915
-0.0330994
-0.0313403
-0.0296369
-0.0279887
-0.0263949
-0.0248547
-0.0233673
-0.0219318
-0.020547
-0.0192121
-0.0179259
-0.0166874
-0.0154953
-0.0143485
-0.0132458
-0.0121857
-0.0111671
-0.0101885
-0.00924852
-0.00834558
-0.00747824
-0.00664463
-0.00584326
-0.00507184
-0.00432893
-0.00361145
-0.00291829
-0.00224483
-0.00159095
-0.000948599
-0.000320153
-0.191399
-0.200652
-0.203675
-0.203125
-0.202133
-0.201935
-0.202429
-0.203126
-0.203686
-0.204012
-0.204137
-0.204116
-0.20398
-0.203729
-0.20336
-0.202866
-0.202247
-0.201506
-0.200643
-0.199661
-0.198558
-0.197337
-0.19601
-0.19461
-0.193193
-0.1918
-0.190384
-0.188874
-0.187236
-0.185488
-0.183657
-0.181755
-0.179784
-0.177745
-0.175637
-0.173464
-0.171228
-0.168931
-0.166575
-0.164163
-0.161697
-0.159179
-0.156611
-0.153996
-0.151337
-0.148637
-0.145897
-0.143122
-0.140313
-0.137475
-0.13461
-0.131721
-0.128812
-0.125886
-0.122947
-0.119998
-0.117042
-0.114083
-0.111124
-0.108169
-0.10522
-0.102282
-0.0993579
-0.0964501
-0.093562
-0.0906966
-0.0878567
-0.0850452
-0.0822645
-0.0795173
-0.0768058
-0.0741322
-0.0714986
-0.0689069
-0.0663588
-0.0638558
-0.0613994
-0.0589909
-0.0566314
-0.0543219
-0.052063
-0.0498557
-0.0477002
-0.0455972
-0.0435467
-0.0415491
-0.0396042
-0.037712
-0.0358723
-0.0340849
-0.0323492
-0.030665
-0.0290315
-0.0274483
-0.0259145
-0.0244294
-0.0229922
-0.021602
-0.0202578
-0.0189587
-0.0177036
-0.0164915
-0.0153211
-0.0141913
-0.0131009
-0.0120485
-0.0110328
-0.0100525
-0.00910584
-0.00819164
-0.00730766
-0.00645305
-0.00562453
-0.00482229
-0.00404078
-0.0032829
-0.00253785
-0.00181527
-0.00109129
-0.00039039
-0.174628
-0.184579
-0.188722
-0.189137
-0.188723
-0.188889
-0.189715
-0.190769
-0.191686
-0.192341
-0.192763
-0.193019
-0.193152
-0.19317
-0.193068
-0.192842
-0.192489
-0.192015
-0.191425
-0.190728
-0.18993
-0.189045
-0.188083
-0.187051
-0.18594
-0.184728
-0.183386
-0.181916
-0.180361
-0.178751
-0.177086
-0.175356
-0.173556
-0.171685
-0.169747
-0.167744
-0.165677
-0.16355
-0.161364
-0.159121
-0.156823
-0.154474
-0.152075
-0.149629
-0.147139
-0.144607
-0.142036
-0.139429
-0.136788
-0.134117
-0.131419
-0.128696
-0.125952
-0.123191
-0.120414
-0.117626
-0.11483
-0.112029
-0.109226
-0.106424
-0.103626
-0.100836
-0.0980562
-0.0952899
-0.09254
-0.0898091
-0.0870999
-0.0844151
-0.081757
-0.079128
-0.0765303
-0.073966
-0.071437
-0.0689452
-0.0664921
-0.0640793
-0.0617083
-0.0593801
-0.057096
-0.054857
-0.0526637
-0.050517
-0.0484174
-0.0463654
-0.0443612
-0.0424051
-0.0404972
-0.0386375
-0.0368258
-0.0350621
-0.0333459
-0.0316769
-0.0300546
-0.0284785
-0.026948
-0.0254625
-0.0240211
-0.0226231
-0.0212676
-0.0199537
-0.0186804
-0.0174467
-0.0162516
-0.0150938
-0.0139723
-0.0128857
-0.0118327
-0.0108121
-0.00982205
-0.00886166
-0.00792842
-0.00702198
-0.00613842
-0.0052791
-0.00443687
-0.00361743
-0.00280603
-0.00201872
-0.00122125
-0.000450569
-0.160353
-0.169802
-0.17443
-0.175691
-0.175984
-0.176616
-0.177758
-0.179084
-0.180276
-0.181208
-0.181899
-0.182411
-0.182788
-0.183045
-0.183179
-0.183185
-0.183064
-0.18282
-0.182459
-0.181986
-0.181408
-0.180727
-0.179941
-0.179048
-0.17805
-0.176953
-0.175773
-0.17453
-0.17323
-0.171849
-0.170383
-0.168836
-0.167214
-0.165521
-0.163759
-0.16193
-0.160037
-0.158082
-0.156068
-0.153995
-0.151868
-0.149689
-0.147459
-0.145182
-0.142859
-0.140495
-0.138091
-0.135651
-0.133176
-0.130671
-0.128137
-0.125578
-0.122997
-0.120397
-0.11778
-0.115151
-0.112511
-0.109865
-0.107214
-0.104562
-0.101912
-0.0992669
-0.0966292
-0.0940017
-0.0913873
-0.0887884
-0.0862075
-0.0836472
-0.0811097
-0.0785971
-0.0761117
-0.0736553
-0.0712297
-0.0688368
-0.0664781
-0.0641551
-0.061869
-0.0596213
-0.0574128
-0.0552446
-0.0531176
-0.0510324
-0.0489896
-0.0469897
-0.0450332
-0.0431202
-0.041251
-0.0394255
-0.0376438
-0.0359058
-0.0342111
-0.0325596
-0.0309509
-0.0293844
-0.0278597
-0.0263762
-0.0249333
-0.0235302
-0.0221661
-0.0208402
-0.0195516
-0.0182994
-0.0170825
-0.0159
-0.0147505
-0.0136331
-0.0125463
-0.011489
-0.0104595
-0.00945701
-0.00847886
-0.00752512
-0.00659151
-0.0056802
-0.0047831
-0.00390767
-0.00303676
-0.00219017
-0.00132759
-0.000493978
-0.14738
-0.156286
-0.161159
-0.16306
-0.163975
-0.165048
-0.166481
-0.168037
-0.169458
-0.17063
-0.171565
-0.172313
-0.172916
-0.17339
-0.173735
-0.17395
-0.174034
-0.173993
-0.17383
-0.173551
-0.17316
-0.172659
-0.172051
-0.17134
-0.170534
-0.169643
-0.168676
-0.167631
-0.166499
-0.165279
-0.163975
-0.162591
-0.161133
-0.159604
-0.158005
-0.156339
-0.154609
-0.152816
-0.150963
-0.149052
-0.147086
-0.145067
-0.142998
-0.140881
-0.138719
-0.136514
-0.13427
-0.131988
-0.129672
-0.127324
-0.124947
-0.122544
-0.120118
-0.117671
-0.115207
-0.112728
-0.110238
-0.107738
-0.105232
-0.102723
-0.100213
-0.0977055
-0.0952025
-0.0927068
-0.090221
-0.0877474
-0.0852884
-0.0828463
-0.0804233
-0.0780214
-0.0756426
-0.0732888
-0.0709617
-0.068663
-0.0663942
-0.0641568
-0.061952
-0.059781
-0.0576449
-0.0555447
-0.0534812
-0.0514552
-0.0494672
-0.0475177
-0.0456073
-0.0437362
-0.0419047
-0.0401127
-0.0383605
-0.0366479
-0.0349749
-0.0333411
-0.0317462
-0.03019
-0.028672
-0.0271916
-0.0257483
-0.0243415
-0.0229704
-0.0216343
-0.0203324
-0.0190637
-0.0178274
-0.0166225
-0.0154478
-0.0143025
-0.013185
-0.0120944
-0.011029
-0.00998823
-0.00896934
-0.00797269
-0.00699383
-0.00603549
-0.00508905
-0.0041631
-0.0032391
-0.00233931
-0.00141984
-0.000530574
-0.135763
-0.144162
-0.149105
-0.151437
-0.152829
-0.15427
-0.155959
-0.157716
-0.159332
-0.16071
-0.161857
-0.162815
-0.16362
-0.164289
-0.164824
-0.165225
-0.165495
-0.165636
-0.165653
-0.165552
-0.165337
-0.165013
-0.164583
-0.164054
-0.16343
-0.162716
-0.161913
-0.16102
-0.160039
-0.158973
-0.157826
-0.156601
-0.1553
-0.153927
-0.152485
-0.150975
-0.149399
-0.147761
-0.146062
-0.144305
-0.142492
-0.140626
-0.13871
-0.136746
-0.134735
-0.132682
-0.130589
-0.128458
-0.126291
-0.124092
-0.121864
-0.119608
-0.117328
-0.115026
-0.112705
-0.110368
-0.108018
-0.105656
-0.103287
-0.100912
-0.0985337
-0.0961553
-0.093779
-0.0914072
-0.0890423
-0.0866865
-0.0843422
-0.0820114
-0.0796962
-0.0773986
-0.0751204
-0.0728634
-0.0706294
-0.0684199
-0.0662363
-0.0640801
-0.0619524
-0.0598545
-0.0577875
-0.0557522
-0.0537495
-0.0517802
-0.0498449
-0.0479442
-0.0460784
-0.0442481
-0.0424533
-0.0406944
-0.0389713
-0.0372841
-0.0356328
-0.0340171
-0.0324369
-0.0308918
-0.0293815
-0.0279055
-0.0264634
-0.0250545
-0.0236783
-0.022334
-0.021021
-0.0197383
-0.0184852
-0.0172608
-0.016064
-0.0148938
-0.0137491
-0.0126289
-0.0115315
-0.0104566
-0.0094013
-0.00836635
-0.00734717
-0.00634691
-0.00535664
-0.00438578
-0.00341493
-0.00246803
-0.00149882
-0.000560526
-0.125592
-0.133384
-0.138257
-0.140868
-0.142612
-0.144341
-0.146238
-0.14816
-0.149934
-0.151481
-0.152805
-0.153941
-0.154921
-0.155759
-0.156461
-0.157028
-0.157462
-0.157766
-0.157947
-0.158008
-0.157956
-0.157793
-0.157526
-0.157157
-0.156689
-0.156127
-0.155471
-0.154725
-0.153891
-0.152975
-0.151978
-0.150902
-0.149751
-0.148526
-0.14723
-0.145867
-0.144437
-0.142945
-0.141391
-0.139779
-0.138111
-0.136389
-0.134617
-0.132796
-0.130929
-0.129018
-0.127066
-0.125076
-0.123051
-0.120992
-0.118902
-0.116784
-0.114641
-0.112474
-0.110288
-0.108084
-0.105865
-0.103633
-0.101391
-0.0991413
-0.0968866
-0.0946293
-0.0923715
-0.0901157
-0.087864
-0.0856187
-0.0833818
-0.0811554
-0.0789415
-0.0767418
-0.0745582
-0.0723924
-0.070246
-0.0681205
-0.0660173
-0.0639378
-0.0618832
-0.0598545
-0.057853
-0.0558794
-0.0539347
-0.0520196
-0.0501348
-0.0482808
-0.0464581
-0.044667
-0.042908
-0.0411812
-0.0394867
-0.0378247
-0.036195
-0.0345976
-0.0330324
-0.031499
-0.0299973
-0.0285267
-0.027087
-0.0256776
-0.0242979
-0.0229474
-0.0216253
-0.0203309
-0.0190635
-0.0178222
-0.016606
-0.0154142
-0.0142455
-0.0130992
-0.0119735
-0.0108683
-0.00978081
-0.00871191
-0.00765704
-0.00661967
-0.00559072
-0.00458023
-0.0035682
-0.00257988
-0.00156727
-0.000586179
-0.116599
-0.123782
-0.128519
-0.131303
-0.133303
-0.135246
-0.1373
-0.139348
-0.141246