/*--------------------------------*- C++ -*----------------------------------*\
  =========                 |
  \\      /  F ield         | OpenFOAM: The Open Source CFD Toolbox
   \\    /   O peration     | Website:  https://openfoam.org
    \\  /    A nd           | Version:  7
     \\/     M anipulation  |
\*---------------------------------------------------------------------------*/
FoamFile
{
    version     2.0;
    format      ascii;
    class       volScalarField;
    location    "39.999";
    object      p;
}
// * * * * * * * * * * * * * * * * * * * * * * * * * * * * * * * * * * * * * //

dimensions      [0 2 -2 0 0 0 0];

internalField   nonuniform List<scalar> 
45600
(
-0.234203
-0.236446
-0.237439
-0.238253
-0.238979
-0.23965
-0.240299
-0.240929
-0.24153
-0.242084
-0.242573
-0.242978
-0.243279
-0.243459
-0.243504
-0.243406
-0.243168
-0.242797
-0.242318
-0.241824
-0.234451
-0.236658
-0.237635
-0.238437
-0.239152
-0.239815
-0.240458
-0.241083
-0.24168
-0.242231
-0.242718
-0.243121
-0.24342
-0.243598
-0.243639
-0.243533
-0.243281
-0.242889
-0.242369
-0.241842
-0.234941
-0.237075
-0.238022
-0.2388
-0.239494
-0.240141
-0.24077
-0.241384
-0.241972
-0.242516
-0.242999
-0.243399
-0.243695
-0.243869
-0.243901
-0.243778
-0.243499
-0.243065
-0.242467
-0.24186
-0.235659
-0.237689
-0.23859
-0.23933
-0.239994
-0.240614
-0.241222
-0.241818
-0.242392
-0.242926
-0.243401
-0.243795
-0.244086
-0.244253
-0.244273
-0.244127
-0.243808
-0.243316
-0.242606
-0.241843
-0.236587
-0.238484
-0.239325
-0.240015
-0.240635
-0.241219
-0.241796
-0.242367
-0.24292
-0.243438
-0.2439
-0.244285
-0.244569
-0.244727
-0.244732
-0.244558
-0.244187
-0.243624
-0.242788
-0.241729
-0.237704
-0.239443
-0.240209
-0.240836
-0.2414
-0.241936
-0.242471
-0.243007
-0.24353
-0.244024
-0.244468
-0.244838
-0.245111
-0.245257
-0.245246
-0.245042
-0.244612
-0.243963
-0.24303
-0.241408
-0.238982
-0.240545
-0.241224
-0.241773
-0.242267
-0.242741
-0.243221
-0.243709
-0.244192
-0.244653
-0.24507
-0.245419
-0.245675
-0.245805
-0.245776
-0.245542
-0.245047
-0.244278
-0.243385
-0.240749
-0.240398
-0.24177
-0.242349
-0.242806
-0.243214
-0.243609
-0.244019
-0.244445
-0.244875
-0.24529
-0.245669
-0.245988
-0.246218
-0.246326
-0.246273
-0.24601
-0.245452
-0.24447
-0.243849
-0.240023
-0.241924
-0.243099
-0.243566
-0.243915
-0.244218
-0.244516
-0.244838
-0.245184
-0.245545
-0.2459
-0.246228
-0.246503
-0.246697
-0.246773
-0.246687
-0.246389
-0.245791
-0.24472
-0.243903
-0.239396
-0.243539
-0.244515
-0.244857
-0.24508
-0.24526
-0.24544
-0.245652
-0.2459
-0.246172
-0.24645
-0.24671
-0.246927
-0.24707
-0.247101
-0.246972
-0.246619
-0.245994
-0.244728
-0.244046
-0.238425
-0.245225
-0.246003
-0.246209
-0.246289
-0.246322
-0.246362
-0.246442
-0.246568
-0.246731
-0.246912
-0.247087
-0.247228
-0.247303
-0.247271
-0.247082
-0.24665
-0.246022
-0.244412
-0.244172
-0.237135
-0.24697
-0.247556
-0.247612
-0.247528
-0.247392
-0.247267
-0.24719
-0.247171
-0.247203
-0.247267
-0.247337
-0.247384
-0.247372
-0.247257
-0.24699
-0.246437
-0.245844
-0.243731
-0.244143
-0.235629
-0.24877
-0.24917
-0.249063
-0.248795
-0.248465
-0.248147
-0.247887
-0.2477
-0.247579
-0.247505
-0.247451
-0.247385
-0.247266
-0.247046
-0.246684
-0.245959
-0.245425
-0.242694
-0.24378
-0.234089
-0.25063
-0.25085
-0.250564
-0.250089
-0.249539
-0.249003
-0.248535
-0.248155
-0.247859
-0.247627
-0.247431
-0.247233
-0.246989
-0.246639
-0.246161
-0.245214
-0.244708
-0.241379
-0.242862
-0.232677
-0.252565
-0.252607
-0.252126
-0.251419
-0.250624
-0.249843
-0.249143
-0.248547
-0.248056
-0.247648
-0.247291
-0.246943
-0.246552
-0.246044
-0.245413
-0.244219
-0.243603
-0.239875
-0.241202
-0.23137
-0.254599
-0.254461
-0.253761
-0.252801
-0.251734
-0.250684
-0.249728
-0.248897
-0.248193
-0.247592
-0.247057
-0.246538
-0.245971
-0.245269
-0.244421
-0.242972
-0.242025
-0.238179
-0.238756
-0.229918
-0.256765
-0.256433
-0.255497
-0.254256
-0.252892
-0.251551
-0.250319
-0.249236
-0.248301
-0.247491
-0.246758
-0.246039
-0.245257
-0.244309
-0.243154
-0.241426
-0.239921
-0.236155
-0.235619
-0.22799
-0.259106
-0.258557
-0.257363
-0.255814
-0.25413
-0.252476
-0.250952
-0.2496
-0.248422
-0.247383
-0.246424
-0.245464
-0.244406
-0.243137
-0.24157
-0.239486
-0.237266
-0.233588
-0.231851
-0.225323
-0.261672
-0.260873
-0.259393
-0.257508
-0.255482
-0.253498
-0.251667
-0.250034
-0.248594
-0.2473
-0.246075
-0.244815
-0.2434
-0.241709
-0.239621
-0.237052
-0.234045
-0.230294
-0.227328
-0.221769
-0.264523
-0.263419
-0.261623
-0.259379
-0.25699
-0.254661
-0.25251
-0.25058
-0.248855
-0.247268
-0.245718
-0.244076
-0.2422
-0.239969
-0.237259
-0.234073
-0.230294
-0.226225
-0.221912
-0.217264
-0.267708
-0.266247
-0.264099
-0.261467
-0.258696
-0.256009
-0.253525
-0.251277
-0.249232
-0.247297
-0.245341
-0.243211
-0.240758
-0.23787
-0.234454
-0.230561
-0.226093
-0.221507
-0.216114
-0.211685
-0.271284
-0.269404
-0.266864
-0.263818
-0.260646
-0.257587
-0.254751
-0.252156
-0.249741
-0.24738
-0.244913
-0.242175
-0.239025
-0.235383
-0.231206
-0.226586
-0.2215
-0.216272
-0.210559
-0.205484
-0.275314
-0.272933
-0.269961
-0.266475
-0.262885
-0.259435
-0.256222
-0.253236
-0.250378
-0.247489
-0.244389
-0.240917
-0.236965
-0.232505
-0.227552
-0.222241
-0.216575
-0.210877
-0.204844
-0.199354
-0.279849
-0.276879
-0.273436
-0.269483
-0.265453
-0.26159
-0.257963
-0.25452
-0.251122
-0.247581
-0.243715
-0.239392
-0.234561
-0.229256
-0.223551
-0.217601
-0.211444
-0.205355
-0.199078
-0.193457
-0.284938
-0.281286
-0.277332
-0.272884
-0.268391
-0.264083
-0.259984
-0.255995
-0.251934
-0.247601
-0.242836
-0.237568
-0.231815
-0.225674
-0.219262
-0.212743
-0.206162
-0.199758
-0.1933
-0.187547
-0.290623
-0.286194
-0.28169
-0.276721
-0.271735
-0.266934
-0.262283
-0.257628
-0.252758
-0.247484
-0.241705
-0.235425
-0.22874
-0.221796
-0.214737
-0.207713
-0.200768
-0.194096
-0.187473
-0.181618
-0.296939
-0.291637
-0.286548
-0.281029
-0.275511
-0.270148
-0.264836
-0.259367
-0.253524
-0.247167
-0.240278
-0.232954
-0.225356
-0.217659
-0.210011
-0.202538
-0.195271
-0.188358
-0.181588
-0.175615
-0.303909
-0.297645
-0.29194
-0.28584
-0.279735
-0.273715
-0.267598
-0.261139
-0.254152
-0.246584
-0.238525
-0.230156
-0.221682
-0.213286
-0.205102
-0.197223
-0.189664
-0.182527
-0.175616
-0.16952
-0.311547
-0.304239
-0.297892
-0.291173
-0.284404
-0.277597
-0.270497
-0.262853
-0.254558
-0.245681
-0.236422
-0.227029
-0.217728
-0.208688
-0.200013
-0.19176
-0.18393
-0.176581
-0.169536
-0.163311
-0.31985
-0.311429
-0.304418
-0.297029
-0.289492
-0.281732
-0.273437
-0.264406
-0.254659
-0.244408
-0.23395
-0.223574
-0.213497
-0.20386
-0.194731
-0.186132
-0.178048
-0.170496
-0.163323
-0.156968
-0.3288
-0.319211
-0.311512
-0.303387
-0.294943
-0.286022
-0.2763
-0.265687
-0.254377
-0.242722
-0.231091
-0.21978
-0.20898
-0.198788
-0.189236
-0.180314
-0.171989
-0.164246
-0.156957
-0.150475
-0.338351
-0.32756
-0.319146
-0.310194
-0.300667
-0.290341
-0.27895
-0.266586
-0.25364
-0.240584
-0.227824
-0.215633
-0.204157
-0.19345
-0.183503
-0.174279
-0.165729
-0.157808
-0.150414
-0.143811
-0.348434
-0.336423
-0.327263
-0.317364
-0.306533
-0.294532
-0.281242
-0.266998
-0.252384
-0.237957
-0.224122
-0.211106
-0.199002
-0.187815
-0.177501
-0.167997
-0.159238
-0.151158
-0.143673
-0.136959
-0.358949
-0.345723
-0.335769
-0.324769
-0.312376
-0.298419
-0.28303
-0.266822
-0.250546
-0.2348
-0.219952
-0.206168
-0.193482
-0.18185
-0.171197
-0.161438
-0.152491
-0.144272
-0.136714
-0.129903
-0.369761
-0.355342
-0.344532
-0.332239
-0.317995
-0.301815
-0.284173
-0.265966
-0.248067
-0.231069
-0.215276
-0.200782
-0.187558
-0.175519
-0.164559
-0.154573
-0.145462
-0.137129
-0.129518
-0.122626
-0.380701
-0.365131
-0.353379
-0.339565
-0.323167
-0.304529
-0.284535
-0.264341
-0.244886
-0.226717
-0.210051
-0.194905
-0.181193
-0.168787
-0.157555
-0.147373
-0.138126
-0.129708
-0.122065
-0.115113
-0.391562
-0.374899
-0.362094
-0.346499
-0.327654
-0.306377
-0.283991
-0.261864
-0.240944
-0.221692
-0.20423
-0.188496
-0.174346
-0.161617
-0.150153
-0.139811
-0.13046
-0.12199
-0.114338
-0.107352
-0.402102
-0.384419
-0.370426
-0.352772
-0.331217
-0.30718
-0.282424
-0.258456
-0.236177
-0.215942
-0.197765
-0.181508
-0.166978
-0.153977
-0.142325
-0.131863
-0.122445
-0.113957
-0.10632
-0.0993303
-0.412051
-0.393429
-0.378089
-0.358093
-0.333618
-0.306776
-0.279724
-0.254038
-0.230526
-0.209412
-0.190608
-0.173901
-0.159053
-0.145834
-0.134045
-0.123507
-0.114064
-0.105596
-0.0980003
-0.0910421
-0.421109
-0.40164
-0.384773
-0.362174
-0.334638
-0.305016
-0.275792
-0.248539
-0.22393
-0.202051
-0.182712
-0.165634
-0.150535
-0.13716
-0.125287
-0.114724
-0.105302
-0.0968949
-0.0893747
-0.0824946
-0.428959
-0.408738
-0.390153
-0.36473
-0.334071
-0.301765
-0.270537
-0.241888
-0.21633
-0.193808
-0.174034
-0.15667
-0.141395
-0.127929
-0.116031
-0.105495
-0.0961439
-0.0878441
-0.0804448
-0.0737046
-0.435272
-0.414397
-0.393906
-0.365497
-0.331736
-0.296905
-0.263877
-0.234023
-0.207674
-0.184637
-0.164536
-0.146977
-0.131607
-0.11812
-0.10626
-0.095807
-0.086575
-0.0784294
-0.0712036
-0.064674
-0.43972
-0.418286
-0.395718
-0.364232
-0.327475
-0.290337
-0.255742
-0.224887
-0.197915
-0.174499
-0.154184
-0.136529
-0.121149
-0.107717
-0.0959614
-0.0856478
-0.0765845
-0.068636
-0.0616246
-0.055353
-0.441981
-0.42008
-0.395296
-0.360726
-0.321156
-0.281975
-0.246072
-0.214432
-0.187011
-0.16336
-0.142954
-0.125306
-0.110006
-0.0967089
-0.085126
-0.0750122
-0.0661707
-0.0584628
-0.0516772
-0.0456172
-0.441752
-0.419472
-0.392382
-0.354803
-0.312674
-0.271755
-0.234819
-0.202621
-0.174934
-0.151198
-0.130826
-0.113295
-0.0981695
-0.0850894
-0.0737516
-0.0638999
-0.0553391
-0.0479284
-0.0413715
-0.0354045
-0.438754
-0.41618
-0.386755
-0.346326
-0.301953
-0.25963
-0.22195
-0.189428
-0.161662
-0.137996
-0.117789
-0.100488
-0.0856356
-0.0728587
-0.0618436
-0.0523191
-0.0440965
-0.0370416
-0.0307347
-0.024997
-0.432745
-0.409959
-0.378241
-0.335197
-0.288943
-0.245573
-0.207448
-0.174837
-0.147183
-0.123747
-0.103839
-0.0868847
-0.0724137
-0.060026
-0.0494153
-0.0402885
-0.0324728
-0.0257832
-0.0197634
-0.0144605
-0.423524
-0.400611
-0.366713
-0.321358
-0.273623
-0.229578
-0.191307
-0.158846
-0.131496
-0.108451
-0.0889902
-0.0724997
-0.0585262
-0.0466173
-0.0364734
-0.0278163
-0.0204644
-0.0141838
-0.00851297
-0.00372413
-0.410934
-0.387989
-0.352086
-0.304787
-0.255996
-0.211653
-0.173536
-0.141461
-0.114621
-0.0921317
-0.0732772
-0.0573726
-0.0439694
-0.0326361
-0.0230422
-0.0149224
-0.00808971
-0.00226999
0.00299821
0.00723194
-0.394871
-0.372003
-0.33432
-0.285496
-0.236098
-0.191831
-0.154158
-0.122718
-0.0966096
-0.0748444
-0.0566948
-0.0415052
-0.0287831
-0.018111
-0.00914744
-0.00163217
0.00462517
0.00993382
0.0147542
0.0183964
-0.375285
-0.352614
-0.313424
-0.263531
-0.213987
-0.170163
-0.133227
-0.102706
-0.0774699
-0.0565936
-0.0392966
-0.0249356
-0.0130011
-0.00307697
0.00517932
0.0120236
0.01765
0.0224014
0.0267331
0.0297452
-0.352177
-0.329838
-0.28946
-0.238989
-0.189737
-0.146725
-0.110855
-0.0814115
-0.0572622
-0.0374329
-0.0211289
-0.0077104
0.0033357
0.0124261
0.0199005
0.026009
0.0309502
0.0351002
0.0389023
0.0412472
-0.325601
-0.30375
-0.262569
-0.212031
-0.163403
-0.1216
-0.0870635
-0.0589343
-0.0360547
-0.0174259
-0.00224772
0.010117
0.020179
0.0283531
0.0349737
0.0402836
0.0444875
0.0479919
0.0512212
0.0528628
-0.295661
-0.27448
-0.232941
-0.182791
-0.135069
-0.0948751
-0.0619596
-0.0353648
-0.0139286
0.00335399
0.0172817
0.0284865
0.0374739
0.0446534
0.0503516
0.0548036
0.0582214
0.061037
0.063647
0.0645489
-0.26252
-0.242224
-0.200664
-0.151081
-0.105159
-0.0667342
-0.0356633
-0.0108051
0.00902461
0.0248244
0.0373854
0.0473311
0.055159
0.0612703
0.0659814
0.0695201
0.0721093
0.0741999
0.0761457
0.0762765
-0.226393
-0.207277
-0.165574
-0.117521
-0.0736449
-0.0373196
-0.00830899
0.0146314
0.0327034
0.0468941
0.0579815
0.0665772
0.0731674
0.0781419
0.0818034
0.0843765
0.0861024
0.0874405
0.0886801
0.088023
-0.187485
-0.169881
-0.128012
-0.0822478
-0.0407367
-0.00679133
0.0199584
0.0408184
0.0569963
0.0694638
0.0789814
0.0861455
0.091428
0.0952021
0.0977547
0.0993127
0.100143
0.100689
0.101135
0.0996281
-0.146015
-0.129679
-0.089107
-0.0455023
-0.00664412
0.0246765
0.0489846
0.0676196
0.081783
0.0924266
0.10029
0.105952
0.109866
0.112384
0.113777
0.114282
0.114184
0.113834
0.113221
0.1106
-0.102371
-0.0874955
-0.0487204
-0.0075473
0.0284101
0.056898
0.078606
0.0948901
0.106935
0.115669
0.121807
0.125907
0.128402
0.129622
0.129824
0.129264
0.12821
0.126783
0.124638
0.120517
-0.0569944
-0.0435945
-0.00703484
0.0313593
0.0641922
0.0896751
0.10865
0.122477
0.132318
0.139071
0.143426
0.145917
0.146954
0.146844
0.145845
0.144231
0.142205
0.139544
0.135648
0.130411
-0.0101484
0.00159311
0.035651
0.0709511
0.100462
0.122801
0.138935
0.150222
0.15779
0.162508
0.165036
0.165882
0.165432
0.163976
0.161773
0.159103
0.156063
0.152128
0.146868
0.143481
0.0377784
0.0476758
0.0789982
0.110947
0.136974
0.156061
0.169275
0.177959
0.183207
0.185851
0.186522
0.185701
0.183749
0.180939
0.177529
0.173771
0.169642
0.16457
0.158693
0.156084
0.0863724
0.0942721
0.122656
0.151055
0.173477
0.189237
0.199478
0.205521
0.20842
0.208969
0.207769
0.20527
0.20181
0.19765
0.193035
0.188174
0.182977
0.176954
0.170614
0.167787
0.135216
0.140996
0.166274
0.190979
0.209716
0.222108
0.229352
0.232738
0.233278
0.231729
0.228656
0.224483
0.219523
0.21402
0.208201
0.202237
0.196013
0.189151
0.18231
0.178904
0.183888
0.187456
0.209499
0.230419
0.245436
0.254452
0.258701
0.259438
0.257631
0.253997
0.249066
0.243234
0.236791
0.229962
0.222953
0.215903
0.208693
0.201026
0.193601
0.189466
0.231967
0.233265
0.251987
0.269082
0.280382
0.286047
0.287332
0.285452
0.281329
0.275639
0.26888
0.261418
0.25352
0.24539
0.237213
0.229104
0.220946
0.212495
0.204442
0.199517
0.279039
0.278036
0.293399
0.306676
0.314305
0.316676
0.315054
0.310611
0.304222
0.296525
0.287983
0.278932
0.269616
0.260221
0.250908
0.241772
0.232698
0.223481
0.214787
0.209046
0.324696
0.321393
0.333404
0.342918
0.346961
0.346127
0.341682
0.334752
0.326168
0.316527
0.306259
0.295674
0.28499
0.274373
0.263964
0.25384
0.243888
0.233931
0.224598
0.218033
0.368543
0.362971
0.371685
0.377536
0.378113
0.374194
0.367035
0.357717
0.347026
0.335521
0.323601
0.311546
0.299553
0.287768
0.276313
0.265244
0.254455
0.243792
0.233836
0.226452
0.4102
0.402423
0.407938
0.410269
0.407537
0.400681
0.39094
0.379353
0.366662
0.353389
0.339902
0.326455
0.313223
0.300333
0.287886
0.275925
0.264345
0.253017
0.242463
0.234276
0.449309
0.439418
0.441876
0.44087
0.435018
0.425399
0.413234
0.399517
0.384949
0.370019
0.355063
0.340312
0.32592
0.311996
0.298622
0.285826
0.273509
0.261562
0.25044
0.241478
0.485531
0.473648
0.47323
0.469108
0.460358
0.448176
0.433764
0.418074
0.401769
0.385304
0.36899
0.353034
0.337571
0.322691
0.308461
0.294894
0.281899
0.269383
0.257731
0.248031
0.518557
0.504827
0.501754
0.494771
0.48337
0.46885
0.452388
0.434899
0.417011
0.399149
0.381599
0.364546
0.348108
0.332359
0.317349
0.303081
0.289473
0.276443
0.264302
0.253913
0.5481
0.532697
0.527222
0.517665
0.503888
0.487273
0.468977
0.44988
0.430576
0.411465
0.39281
0.374777
0.357468
0.340944
0.325237
0.310345
0.29619
0.282704
0.270123
0.259103
0.57391
0.557027
0.549435
0.537619
0.521762
0.503316
0.483417
0.462914
0.442374
0.422172
0.402553
0.383665
0.365597
0.348396
0.332083
0.316645
0.302016
0.288134
0.275165
0.263583
0.595763
0.577616
0.568219
0.554481
0.53686
0.516864
0.495608
0.473914
0.452327
0.431203
0.410768
0.391157
0.372447
0.354673
0.337847
0.321949
0.30692
0.292704
0.279405
0.267337
0.613474
0.594294
0.583425
0.568126
0.549074
0.52782
0.505463
0.482805
0.46037
0.438499
0.417402
0.397206
0.377976
0.359739
0.342497
0.326226
0.310875
0.296391
0.282821
0.270355
0.626891
0.606924
0.594935
0.57845
0.558313
0.536106
0.512916
0.489527
0.46645
0.444012
0.422415
0.401776
0.382152
0.363565
0.346008
0.329455
0.31386
0.299173
0.285399
0.272626
0.6359
0.615402
0.602659
0.585376
0.56451
0.541663
0.517913
0.494034
0.470525
0.447708
0.425775
0.404838
0.38495
0.366127
0.348359
0.331618
0.315859
0.301036
0.287124
0.274144
0.640424
0.619659
0.606536
0.588852
0.56762
0.544451
0.52042
0.496295
0.47257
0.449561
0.42746
0.406374
0.386354
0.367412
0.349538
0.332702
0.316861
0.301971
0.287988
0.274904
0.640424
0.619659
0.606536
0.588852
0.56762
0.544451
0.52042
0.496295
0.47257
0.449561
0.42746
0.406374
0.386354
0.367412
0.349538
0.332702
0.316861
0.301971
0.287988
0.274904
0.6359
0.615403
0.602659
0.585376
0.56451
0.541663
0.517913
0.494034
0.470525
0.447708
0.425775
0.404838
0.38495
0.366127
0.348359
0.331618
0.315859
0.301036
0.287124
0.274144
0.626892
0.606925
0.594935
0.57845
0.558313
0.536106
0.512916
0.489527
0.46645
0.444012
0.422416
0.401776
0.382152
0.363565
0.346008
0.329455
0.31386
0.299173
0.285399
0.272626
0.613474
0.594294
0.583425
0.568126
0.549074
0.52782
0.505463
0.482805
0.46037
0.438499
0.417403
0.397207
0.377976
0.359739
0.342497
0.326226
0.310875
0.296391
0.282822
0.270355
0.595764
0.577616
0.568219
0.554482
0.536861
0.516864
0.495608
0.473914
0.452327
0.431203
0.410768
0.391157
0.372447
0.354673
0.337847
0.321949
0.30692
0.292704
0.279405
0.267338
0.57391
0.557027
0.549436
0.537619
0.521762
0.503317
0.483418
0.462914
0.442374
0.422173
0.402553
0.383666
0.365598
0.348396
0.332083
0.316645
0.302016
0.288134
0.275165
0.263583
0.548101
0.532698
0.527223
0.517666
0.503888
0.487274
0.468978
0.44988
0.430576
0.411465
0.39281
0.374777
0.357469
0.340944
0.325238
0.310345
0.29619
0.282704
0.270123
0.259103
0.518557
0.504828
0.501755
0.494771
0.483371
0.46885
0.452388
0.4349
0.417011
0.39915
0.381599
0.364546
0.348108
0.332359
0.317349
0.303082
0.289473
0.276443
0.264302
0.253914
0.485532
0.473649
0.473231
0.469108
0.460358
0.448177
0.433764
0.418074
0.401769
0.385305
0.368991
0.353035
0.337571
0.322692
0.308461
0.294894
0.281899
0.269384
0.257731
0.248032
0.44931
0.439419
0.441877
0.44087
0.435019
0.4254
0.413235
0.399518
0.38495
0.370019
0.355063
0.340312
0.325921
0.311996
0.298622
0.285826
0.273509
0.261562
0.25044
0.241478
0.410201
0.402424
0.407939
0.41027
0.407538
0.400681
0.390941
0.379354
0.366662
0.35339
0.339902
0.326455
0.313223
0.300333
0.287886
0.275925
0.264345
0.253017
0.242463
0.234276
0.368544
0.362972
0.371686
0.377537
0.378114
0.374195
0.367035
0.357717
0.347026
0.335522
0.323601
0.311546
0.299554
0.287769
0.276313
0.265245
0.254455
0.243792
0.233837
0.226452
0.324697
0.321394
0.333405
0.342919
0.346962
0.346128
0.341683
0.334753
0.326169
0.316528
0.30626
0.295674
0.28499
0.274373
0.263965
0.25384
0.243888
0.233931
0.224598
0.218033
0.279041
0.278037
0.2934
0.306677
0.314306
0.316677
0.315055
0.310612
0.304223
0.296526
0.287983
0.278933
0.269617
0.260221
0.250908
0.241772
0.232699
0.223482
0.214787
0.209046
0.231969
0.233266
0.251989
0.269083
0.280383
0.286048
0.287333
0.285453
0.281329
0.275639
0.268881
0.261419
0.25352
0.245391
0.237214
0.229104
0.220947
0.212495
0.204443
0.199517
0.183889
0.187458
0.2095
0.230421
0.245437
0.254453
0.258701
0.259439
0.257632
0.253997
0.249067
0.243235
0.236791
0.229963
0.222954
0.215904
0.208694
0.201027
0.193601
0.189467
0.135217
0.140997
0.166275
0.19098
0.209717
0.222109
0.229353
0.232739
0.233279
0.23173
0.228657
0.224483
0.219523
0.21402
0.208202
0.202238
0.196014
0.189151
0.18231
0.178905
0.086374
0.0942736
0.122658
0.151056
0.173478
0.189238
0.199479
0.205522
0.208421
0.20897
0.207769
0.205271
0.201811
0.197651
0.193035
0.188175
0.182977
0.176955
0.170615
0.167787
0.03778
0.0476774
0.0789997
0.110948
0.136976
0.156062
0.169276
0.17796
0.183208
0.185852
0.186523
0.185702
0.183749
0.18094
0.17753
0.173771
0.169643
0.16457
0.158694
0.156084
-0.0101467
0.00159475
0.0356525
0.0709525
0.100464
0.122802
0.138936
0.150223
0.157791
0.162509
0.165037
0.165883
0.165433
0.163977
0.161774
0.159104
0.156064
0.152129
0.146869
0.143482
-0.0569927
-0.0435928
-0.00703329
0.0313607
0.0641935
0.0896762
0.108651
0.122478
0.132319
0.139072
0.143427
0.145918
0.146954
0.146845
0.145846
0.144232
0.142206
0.139544
0.135648
0.130412
-0.102369
-0.0874938
-0.0487188
-0.00754586
0.0284114
0.0568992
0.0786071
0.0948912
0.106936
0.11567
0.121808
0.125908
0.128403
0.129623
0.129825
0.129265
0.128211
0.126784
0.124639
0.120517
-0.146013
-0.129677
-0.0891054
-0.0455008
-0.00664277
0.0246778
0.0489858
0.0676207
0.081784
0.0924275
0.100291
0.105953
0.109867
0.112385
0.113778
0.114283
0.114185
0.113835
0.113222
0.1106
-0.187483
-0.16988
-0.12801
-0.0822463
-0.0407353
-0.00679007
0.0199595
0.0408195
0.0569973
0.0694647
0.0789823
0.0861463
0.0914288
0.0952029
0.0977555
0.0993135
0.100144
0.10069
0.101136
0.0996288
-0.226391
-0.207275
-0.165572
-0.117519
-0.0736435
-0.0373183
-0.0083078
0.0146325
0.0327044
0.0468951
0.0579824
0.0665781
0.0731683
0.0781427
0.0818042
0.0843773
0.0861031
0.0874413
0.0886808
0.0880238
-0.262518
-0.242222
-0.200662
-0.15108
-0.105157
-0.0667328
-0.0356621
-0.0108039
0.00902568
0.0248254
0.0373863
0.0473321
0.0551598
0.0612712
0.0659822
0.0695209
0.0721101
0.0742007
0.0761465
0.0762773
-0.295659
-0.274478
-0.232939
-0.182789
-0.135067
-0.0948737
-0.0619584
-0.0353637
-0.0139275
0.00335503
0.0172827
0.0284875
0.0374748
0.0446543
0.0503525
0.0548044
0.0582222
0.0610379
0.0636478
0.0645497
-0.325599
-0.303749
-0.262567
-0.212029
-0.163402
-0.121598
-0.0870622
-0.0589331
-0.0360536
-0.0174248
-0.0022467
0.010118
0.02018
0.028354
0.0349746
0.0402845
0.0444884
0.0479927
0.051222
0.0528637
-0.352175
-0.329836
-0.289459
-0.238987
-0.189735
-0.146723
-0.110854
-0.0814103
-0.057261
-0.0374318
-0.0211278
-0.00770938
0.00333668
0.0124271
0.0199015
0.0260099
0.0309511
0.0351011
0.0389032
0.041248
-0.375283
-0.352612
-0.313422
-0.263529
-0.213986
-0.170161
-0.133226
-0.102705
-0.0774687
-0.0565925
-0.0392955
-0.0249345
-0.0130001
-0.00307597
0.0051803
0.0120246
0.0176509
0.0224024
0.026734
0.0297461
-0.394869
-0.372001
-0.334319
-0.285494
-0.236096
-0.191829
-0.154156
-0.122717
-0.0966084
-0.0748432
-0.0566937
-0.0415041
-0.0287821
-0.01811
-0.00914643
-0.00163118
0.00462616
0.00993478
0.0147552
0.0183973
-0.410932
-0.387987
-0.352084
-0.304786
-0.255995
-0.211652
-0.173535
-0.14146
-0.11462
-0.0921306
-0.073276
-0.0573715
-0.0439683
-0.0326351
-0.0230412
-0.0149214
-0.00808869
-0.00226898
0.0029992
0.00723291
-0.423522
-0.400609
-0.366711
-0.321357
-0.273621
-0.229576
-0.191306
-0.158844
-0.131495
-0.10845
-0.088989
-0.0724986
-0.0585251
-0.0466162
-0.0364723
-0.0278152
-0.0204634
-0.0141827
-0.00851192
-0.00372311
-0.432744
-0.409958
-0.378239
-0.335196
-0.288942
-0.245572
-0.207446
-0.174836
-0.147182
-0.123745
-0.103838
-0.0868836
-0.0724126
-0.0600249
-0.0494142
-0.0402873
-0.0324717
-0.0257821
-0.0197623
-0.0144594
-0.438752
-0.416178
-0.386753
-0.346325
-0.301952
-0.259629
-0.221949
-0.189426
-0.161661
-0.137995
-0.117787
-0.100486
-0.0856344
-0.0728575
-0.0618424
-0.0523179
-0.0440954
-0.0370404
-0.0307335
-0.0249959
-0.44175
-0.41947
-0.39238
-0.354801
-0.312673
-0.271753
-0.234818
-0.20262
-0.174933
-0.151197
-0.130824
-0.113294
-0.0981683
-0.0850882
-0.0737503
-0.0638987
-0.0553379
-0.0479272
-0.0413703
-0.0354033
-0.44198
-0.420079
-0.395294
-0.360724
-0.321154
-0.281974
-0.246071
-0.214431
-0.18701
-0.163359
-0.142952
-0.125305
-0.110005
-0.0967076
-0.0851247
-0.0750109
-0.0661694
-0.0584615
-0.0516759
-0.0456159
-0.439719
-0.418285
-0.395716
-0.36423
-0.327473
-0.290335
-0.255741
-0.224886
-0.197913
-0.174497
-0.154183
-0.136528
-0.121147
-0.107716
-0.0959601
-0.0856465
-0.0765831
-0.0686346
-0.0616233
-0.0553516
-0.435271
-0.414396
-0.393905
-0.365495
-0.331735
-0.296904
-0.263876
-0.234022
-0.207673
-0.184636
-0.164534
-0.146976
-0.131605
-0.118119
-0.106259
-0.0958056
-0.0865736
-0.078428
-0.0712022
-0.0646726
-0.428957
-0.408737
-0.390152
-0.364729
-0.33407
-0.301764
-0.270535
-0.241887
-0.216329
-0.193806
-0.174033
-0.156669
-0.141394
-0.127928
-0.11603
-0.105494
-0.0961424
-0.0878426
-0.0804433
-0.0737031
-0.421108
-0.401639
-0.384771
-0.362173
-0.334637
-0.305015
-0.27579
-0.248538
-0.223929
-0.20205
-0.182711
-0.165633
-0.150534
-0.137159
-0.125285
-0.114722
-0.105301
-0.0968933
-0.0893731
-0.082493
-0.41205
-0.393428
-0.378088
-0.358092
-0.333617
-0.306775
-0.279722
-0.254037
-0.230525
-0.209411
-0.190607
-0.1739
-0.159051
-0.145833
-0.134043
-0.123505
-0.114063
-0.105594
-0.0979986
-0.0910403
-0.402101
-0.384418
-0.370425
-0.35277
-0.331215
-0.307179
-0.282422
-0.258454
-0.236176
-0.21594
-0.197764
-0.181507
-0.166976
-0.153976
-0.142324
-0.131861
-0.122444
-0.113956
-0.106318
-0.0993285
-0.391561
-0.374898
-0.362093
-0.346498
-0.327653
-0.306375
-0.28399
-0.261863
-0.240942
-0.22169
-0.204229
-0.188494
-0.174344
-0.161616
-0.150151
-0.139809
-0.130458
-0.121988
-0.114336
-0.10735
-0.3807
-0.36513
-0.353378
-0.339564
-0.323166
-0.304528
-0.284534
-0.26434
-0.244885
-0.226715
-0.21005
-0.194904
-0.181191
-0.168785
-0.157553
-0.147371
-0.138124
-0.129706
-0.122063
-0.115111
-0.36976
-0.355341
-0.344531
-0.332239
-0.317994
-0.301814
-0.284172
-0.265965
-0.248066
-0.231068
-0.215275
-0.20078
-0.187556
-0.175517
-0.164557
-0.154571
-0.14546
-0.137127
-0.129515
-0.122623
-0.358948
-0.345722
-0.335768
-0.324769
-0.312375
-0.298419
-0.283029
-0.266821
-0.250545
-0.234799
-0.219951
-0.206167
-0.19348
-0.181848
-0.171195
-0.161436
-0.152489
-0.144269
-0.136712
-0.1299
-0.348433
-0.336423
-0.327262
-0.317364
-0.306533
-0.294531
-0.281241
-0.266997
-0.252383
-0.237956
-0.22412
-0.211104
-0.199001
-0.187813
-0.177498
-0.167995
-0.159236
-0.151155
-0.14367
-0.136956
-0.33835
-0.327559
-0.319145
-0.310194
-0.300666
-0.29034
-0.278949
-0.266585
-0.253639
-0.240583
-0.227823
-0.215631
-0.204156
-0.193448
-0.183501
-0.174277
-0.165726
-0.157805
-0.150411
-0.143808
-0.328799
-0.319211
-0.311511
-0.303386
-0.294943
-0.286022
-0.276299
-0.265686
-0.254376
-0.242721
-0.23109
-0.219779
-0.208978
-0.198786
-0.189234
-0.180312
-0.171987
-0.164243
-0.156953
-0.150471
-0.31985
-0.311429
-0.304417
-0.297028
-0.289491
-0.281731
-0.273437
-0.264405
-0.254658
-0.244406
-0.233949
-0.223572
-0.213495
-0.203858
-0.194728
-0.186129
-0.178045
-0.170493
-0.16332
-0.156965
-0.311547
-0.304238
-0.297892
-0.291172
-0.284403
-0.277597
-0.270496
-0.262853
-0.254557
-0.24568
-0.236421
-0.227028
-0.217726
-0.208685
-0.20001
-0.191757
-0.183927
-0.176578
-0.169532
-0.163307
-0.303909
-0.297644
-0.29194
-0.28584
-0.279734
-0.273714
-0.267597
-0.261139
-0.254151
-0.246583
-0.238524
-0.230154
-0.22168
-0.213284
-0.2051
-0.197219
-0.18966
-0.182523
-0.175612
-0.169515
-0.296938
-0.291636
-0.286548
-0.281029
-0.275511
-0.270148
-0.264836
-0.259367
-0.253524
-0.247166
-0.240277
-0.232953
-0.225354
-0.217657
-0.210008
-0.202534
-0.195267
-0.188354
-0.181584
-0.175611
-0.290623
-0.286194
-0.281689
-0.276721
-0.271735
-0.266933
-0.262283
-0.257628
-0.252758
-0.247484
-0.241703
-0.235423
-0.228738
-0.221793
-0.214734
-0.20771
-0.200764
-0.194091
-0.187468
-0.181613
-0.284938
-0.281286
-0.277332
-0.272884
-0.268391
-0.264083
-0.259984
-0.255995
-0.251934
-0.2476
-0.242835
-0.237567
-0.231813
-0.225671
-0.219258
-0.212739
-0.206158
-0.199753
-0.193295
-0.187541
-0.279848
-0.276879
-0.273436
-0.269483
-0.265453
-0.26159
-0.257963
-0.25452
-0.251122
-0.247581
-0.243714
-0.239391
-0.234559
-0.229254
-0.223547
-0.217597
-0.211439
-0.205349
-0.199072
-0.19345
-0.275313
-0.272932
-0.269961
-0.266475
-0.262885
-0.259435
-0.256222
-0.253236
-0.250377
-0.247488
-0.244388
-0.240916
-0.236963
-0.232502
-0.227548
-0.222236
-0.216569
-0.210871
-0.204837
-0.199347
-0.271284
-0.269404
-0.266863
-0.263818
-0.260646
-0.257587
-0.254751
-0.252156
-0.249741
-0.247379
-0.244912
-0.242174
-0.239022
-0.23538
-0.231202
-0.226581
-0.221494
-0.216266
-0.210552
-0.205476
-0.267707
-0.266247
-0.264099
-0.261467
-0.258696
-0.256009
-0.253525
-0.251277
-0.249232
-0.247297
-0.24534
-0.24321
-0.240756
-0.237867
-0.23445
-0.230556
-0.226087
-0.221499
-0.216105
-0.211676
-0.264523
-0.263419
-0.261623
-0.259379
-0.25699
-0.254661
-0.25251
-0.25058
-0.248855
-0.247268
-0.245717
-0.244074
-0.242198
-0.239966
-0.237255
-0.234068
-0.230287
-0.226217
-0.221903
-0.217253
-0.261671
-0.260873
-0.259392
-0.257508
-0.255482
-0.253498
-0.251667
-0.250034
-0.248594
-0.2473
-0.246074
-0.244814
-0.243398
-0.241706
-0.239616
-0.237047
-0.234038
-0.230285
-0.227318
-0.221757
-0.259105
-0.258557
-0.257363
-0.255814
-0.25413
-0.252476
-0.250952
-0.2496
-0.248422
-0.247382
-0.246423
-0.245463
-0.244404
-0.243134
-0.241566
-0.23948
-0.237258
-0.233579
-0.23184
-0.22531
-0.256764
-0.256433
-0.255496
-0.254256
-0.252892
-0.25155
-0.250319
-0.249236
-0.248301
-0.247491
-0.246757
-0.246038
-0.245255
-0.244305
-0.243149
-0.24142
-0.239913
-0.236145
-0.235607
-0.227976
-0.254598
-0.25446
-0.25376
-0.2528
-0.251734
-0.250684
-0.249728
-0.248897
-0.248192
-0.247591
-0.247056
-0.246536
-0.245969
-0.245266
-0.244416
-0.242966
-0.242016
-0.238168
-0.238744
-0.229903
-0.252564
-0.252606
-0.252125
-0.251418
-0.250623
-0.249843
-0.249142
-0.248547
-0.248055
-0.247647
-0.24729
-0.246941
-0.246549
-0.246041
-0.245407
-0.244212
-0.243594
-0.239864
-0.241189
-0.231355
-0.250629
-0.250849
-0.250564
-0.250089
-0.249539
-0.249003
-0.248535
-0.248155
-0.247858
-0.247626
-0.24743
-0.247231
-0.246986
-0.246635
-0.246156
-0.245208
-0.244699
-0.241368
-0.242849
-0.232661
-0.248769
-0.249169
-0.249062
-0.248794
-0.248464
-0.248146
-0.247887
-0.2477
-0.247578
-0.247504
-0.247449
-0.247382
-0.247263
-0.247042
-0.246679
-0.245951
-0.245416
-0.242682
-0.243766
-0.234073
-0.246968
-0.247555
-0.247611
-0.247527
-0.247392
-0.247266
-0.247189
-0.24717
-0.247202
-0.247266
-0.247336
-0.247382
-0.247368
-0.247252
-0.246984
-0.24643
-0.245835
-0.24372
-0.244129
-0.235612
-0.245223
-0.246002
-0.246207
-0.246288
-0.246321
-0.246361
-0.246441
-0.246567
-0.24673
-0.246911
-0.247085
-0.247226
-0.247299
-0.247266
-0.247076
-0.246643
-0.246013
-0.244401
-0.244158
-0.237118
-0.243538
-0.244514
-0.244856
-0.245079
-0.245259
-0.245439
-0.245651
-0.245899
-0.246171
-0.246448
-0.246708
-0.246925
-0.247066
-0.247096
-0.246966
-0.246612
-0.245985
-0.244717
-0.244032
-0.238409
-0.241922
-0.243098
-0.243565