/*--------------------------------*- C++ -*----------------------------------*\
  =========                 |
  \\      /  F ield         | OpenFOAM: The Open Source CFD Toolbox
   \\    /   O peration     | Website:  https://openfoam.org
    \\  /    A nd           | Version:  7
     \\/     M anipulation  |
\*---------------------------------------------------------------------------*/
FoamFile
{
    version     2.0;
    format      ascii;
    class       volVectorField;
    location    "39.999";
    object      U;
}
// * * * * * * * * * * * * * * * * * * * * * * * * * * * * * * * * * * * * * //

dimensions      [0 1 -1 0 0 0 0];

internalField   nonuniform List<vector> 
45600
(
(-0.00142803 0.00124481 4.05881e-21)
(-0.00777804 0.00280257 -1.4685e-20)
(-0.019036 0.00373035 -1.21272e-21)
(-0.0319386 0.00424177 -2.2554e-21)
(-0.0455313 0.00446802 -1.31176e-20)
(-0.0591449 0.00450631 -1.2592e-20)
(-0.0723424 0.0044255 -2.34296e-21)
(-0.0848895 0.00427178 5.02286e-21)
(-0.0966677 0.00407432 2.12144e-21)
(-0.107623 0.00384992 3.07061e-21)
(-0.117735 0.00360697 7.90936e-21)
(-0.126994 0.00334888 1.09732e-20)
(-0.135395 0.00307722 -9.75009e-22)
(-0.142935 0.00279459 -5.23268e-21)
(-0.149616 0.00250753 1.94672e-20)
(-0.155464 0.00222934 1.74884e-21)
(-0.160546 0.00198197 -8.00845e-21)
(-0.164978 0.00179288 -8.26195e-21)
(-0.168931 0.00169407 8.28946e-22)
(-0.172799 0.00174218 2.14243e-21)
(-0.00159588 0.0037032 -3.14137e-20)
(-0.00808713 0.00834385 -2.7743e-20)
(-0.0193204 0.0111121 1.08299e-20)
(-0.0321102 0.0126401 -1.15273e-20)
(-0.045529 0.0133175 -9.22934e-21)
(-0.0589249 0.0134335 -2.64446e-20)
(-0.0718716 0.0131933 1.51053e-20)
(-0.0841405 0.0127349 -1.27937e-20)
(-0.095616 0.0121455 3.9443e-21)
(-0.106245 0.0114756 -2.16548e-20)
(-0.116008 0.0107503 -1.67408e-20)
(-0.124894 0.00997992 -7.81906e-21)
(-0.132898 0.00916852 -2.94392e-20)
(-0.140011 0.00832297 2.34054e-20)
(-0.14623 0.00746127 -2.18123e-20)
(-0.151569 0.00662148 -2.23017e-20)
(-0.156084 0.00586848 -2.50769e-21)
(-0.159873 0.00528703 2.13515e-20)
(-0.163065 0.00497659 -4.66264e-21)
(-0.166069 0.00511198 -2.60809e-20)
(-0.00192531 0.00607955 4.10887e-20)
(-0.00869562 0.0137205 -1.06991e-20)
(-0.0198818 0.0182939 -4.86212e-20)
(-0.0324493 0.0208265 2.23386e-20)
(-0.0455236 0.0219552 2.19135e-20)
(-0.0584867 0.022155 9.98085e-21)
(-0.0709334 0.0217642 -1.4403e-20)
(-0.0826465 0.0210109 4.99342e-21)
(-0.0935158 0.0200403 4.56152e-20)
(-0.103491 0.0189365 4.3994e-20)
(-0.112552 0.0177418 3.64467e-21)
(-0.120688 0.0164726 -2.03858e-21)
(-0.127889 0.0151343 6.47926e-21)
(-0.134143 0.013735 -1.48279e-20)
(-0.139433 0.0122996 -6.49319e-21)
(-0.143752 0.0108846 -2.65169e-20)
(-0.14713 0.00959384 3.99412e-20)
(-0.14964 0.00857506 -2.50465e-20)
(-0.151322 0.00800505 1.18629e-20)
(-0.152565 0.00818558 4.51082e-20)
(-0.00240439 0.00832343 2.09078e-20)
(-0.00958485 0.0188297 1.25291e-20)
(-0.0207054 0.0251491 8.5038e-20)
(-0.0329478 0.0286644 2.02064e-20)
(-0.0455131 0.0302429 4.80989e-20)
(-0.0578333 0.0305349 1.71137e-20)
(-0.0695337 0.0300065 -4.74031e-20)
(-0.0804139 0.0289736 -2.91739e-20)
(-0.0903718 0.0276385 -9.14013e-22)
(-0.0993601 0.0261193 -3.95051e-20)
(-0.107359 0.0244756 8.69137e-21)
(-0.114355 0.02273 -1.59018e-21)
(-0.120337 0.0208875 3.09563e-20)
(-0.125282 0.0189533 -9.38487e-21)
(-0.12916 0.0169516 8.67844e-20)
(-0.131937 0.0149475 7.60613e-20)
(-0.133605 0.0130734 3.80568e-20)
(-0.134205 0.0115455 -1.10994e-20)
(-0.133659 0.0106346 -2.93511e-20)
(-0.132166 0.0107607 -2.49935e-20)
(-0.00301629 0.0103906 -5.14286e-20)
(-0.0107283 0.0235785 4.90688e-20)
(-0.0217704 0.0315599 4.24571e-20)
(-0.0335933 0.0360243 8.17541e-21)
(-0.045494 0.0380466 -9.2188e-20)
(-0.0569676 0.0384394 -2.75279e-20)
(-0.0676793 0.0377887 -7.03227e-21)
(-0.0774502 0.0364949 2.39279e-20)
(-0.0861884 0.0348163 2.23483e-20)
(-0.09385 0.0329052 -3.01855e-20)
(-0.100414 0.0308395 -7.72522e-20)
(-0.105866 0.0286482 1.23075e-19)
(-0.110186 0.0263348 -5.15824e-20)
(-0.113346 0.0238974 -1.30114e-20)
(-0.1153 0.0213515 -6.42139e-20)
(-0.115985 0.0187567 -4.20379e-20)
(-0.115345 0.0162549 -1.15821e-19)
(-0.113391 0.0141268 2.36141e-20)
(-0.109962 0.0127688 -1.01515e-20)
(-0.104598 0.0126389 -6.91359e-20)
(-0.00374052 0.0122447 5.83667e-20)
(-0.0120932 0.0278873 -2.01259e-20)
(-0.02305 0.0374213 -1.31808e-19)
(-0.0343695 0.0427864 -7.16732e-20)
(-0.0454599 0.045239 6.76271e-20)
(-0.0558909 0.0457378 4.5414e-20)
(-0.0653757 0.0449797 -4.20025e-20)
(-0.0737609 0.0434448 -4.00695e-20)
(-0.0809665 0.0414456 -2.41497e-20)
(-0.0869513 0.0391692 9.40813e-20)
(-0.0916918 0.0367128 -8.45557e-21)
(-0.0951674 0.0341132 -6.29971e-20)
(-0.0973516 0.0313724 5.22218e-20)
(-0.0982048 0.0284793 8.34043e-20)
(-0.0976687 0.0254335 -2.40039e-20)
(-0.0956571 0.0222743 9.92691e-20)
(-0.0920529 0.0191235 3.86242e-20)
(-0.0868296 0.0162974 -1.84624e-20)
(-0.0799764 0.0143965 5.28292e-20)
(-0.0693709 0.0137241 3.58651e-20)
(-0.00455444 0.0138593 -1.0707e-19)
(-0.0136422 0.0316924 7.35636e-20)
(-0.0245128 0.0426435 1.27661e-20)
(-0.0352554 0.0488433 3.11171e-20)
(-0.0453999 0.0517014 2.84753e-20)
(-0.0545998 0.0523047 -4.83739e-20)
(-0.0626227 0.0514504 8.05219e-20)
(-0.0693442 0.0496923 1.96462e-21)
(-0.0746966 0.0473952 -2.27205e-20)
(-0.0786398 0.0447807 -1.4468e-20)
(-0.0811442 0.0419665 2.43772e-20)
(-0.0821791 0.0389997 5.78464e-20)
(-0.0817053 0.0358829 2.39022e-20)
(-0.0796689 0.0325969 -5.88433e-20)
(-0.0759971 0.0291224 2.54607e-20)
(-0.0705908 0.0254674 -7.05572e-20)
(-0.0632746 0.0217052 -5.99327e-20)
(-0.0538715 0.0181187 2.01777e-20)
(-0.0431144 0.0155464 3.91781e-20)
(-0.0258403 0.0143198 -6.03236e-20)
(-0.00543485 0.0152181 -2.70385e-20)
(-0.015336 0.0349475 2.4857e-21)
(-0.0261234 0.0471543 -2.16022e-20)
(-0.0362244 0.0541023 -4.89418e-21)
(-0.045296 0.057326 6.57898e-20)
(-0.0530817 0.058022 8.82803e-20)
(-0.0594082 0.0570757 6.506e-20)
(-0.0641824 0.0551082 1.18494e-19)
(-0.0673484 0.0525331 3.01261e-20)
(-0.068864 0.0496058 -4.82643e-20)
(-0.0686882 0.046466 4.35351e-20)
(-0.0667726 0.0431738 -8.17007e-20)
(-0.0630573 0.0397368 -1.26167e-19)
(-0.0574663 0.036132 1.255e-19)
(-0.0499048 0.0323251 -6.55509e-20)
(-0.0402674 0.0282936 1.01215e-19)
(-0.0283692 0.0240657 8.01612e-20)
(-0.0136672 0.0198629 9.01972e-20)
(0.00193038 0.0161205 -1.81431e-19)
(0.0269539 0.0147446 -2.18139e-21)
(-0.00635967 0.0163155 1.19565e-19)
(-0.0171344 0.037625 -3.3801e-20)
(-0.0278431 0.0509006 -1.39649e-19)
(-0.0372427 0.0584874 1.47921e-20)
(-0.0451188 0.0620185 -1.04401e-21)
(-0.0513083 0.0627817 4.29187e-20)
(-0.0556993 0.0617384 -5.85648e-20)
(-0.0582306 0.0595689 -6.19335e-20)
(-0.0588557 0.0567314 -1.4857e-20)
(-0.0575255 0.0535137 5.68999e-20)
(-0.0541799 0.0500788 -1.36252e-19)
(-0.0487432 0.0465022 6.65428e-20)
(-0.0411229 0.0428016 8.0627e-20)
(-0.0312086 0.038958 1.42622e-19)
(-0.0188691 0.0349328 3.74941e-20)
(-0.00396728 0.0306827 4.91259e-20)
(0.0136358 0.0262168 1.32237e-21)
(0.0347402 0.0215674 -3.6718e-20)
(0.0563457 0.0168082 1.87394e-19)
(0.0914383 0.0150668 -5.22669e-20)
(-0.00730934 0.0171564 6.82555e-20)
(-0.0189987 0.0397158 4.7261e-20)
(-0.0296292 0.0538491 3.94477e-20)
(-0.038267 0.0619412 4.83364e-20)
(-0.0448229 0.0657012 -6.90043e-20)
(-0.0492271 0.0664905 3.01577e-20)
(-0.0514297 0.0653336 1.50513e-19)
(-0.0513991 0.0629621 -2.02414e-19)
(-0.0490938 0.0598737 -6.41535e-20)
(-0.0444503 0.0563865 -1.40406e-19)
(-0.0373796 0.0526869 1.92757e-19)
(-0.0277661 0.0488686 -1.81174e-19)
(-0.0154703 0.0449643 2.31278e-20)
(-0.000333015 0.040967 -2.09565e-20)
(0.0178231 0.0368452 -2.63244e-19)
(0.0392057 0.0325536 -7.94332e-20)
(0.0637718 0.0280904 -1.222e-19)
(0.0931716 0.0233152 6.77358e-21)
(0.121294 0.0182897 -9.52709e-20)
(0.169872 0.015856 1.39691e-19)
(-0.00826801 0.0177544 -1.08473e-19)
(-0.0208922 0.0412273 6.45872e-20)
(-0.0314346 0.0559861 -1.22681e-19)
(-0.0392403 0.0644265 8.91337e-20)
(-0.0443385 0.0683154 -7.00305e-20)
(-0.0467501 0.069073 -4.5472e-20)
(-0.0464835 0.067775 -2.72595e-19)
(-0.0435316 0.0651954 1.84147e-19)
(-0.0378501 0.061866 1.45026e-19)
(-0.0293507 0.058133 -1.82042e-20)
(-0.0179028 0.054206 2.5561e-20)
(-0.00333716 0.0501997 8.79109e-20)
(0.014547 0.0461659 -1.41956e-19)
(0.0359705 0.0421167 -5.60037e-20)
(0.0611577 0.0380388 8.65278e-20)
(0.0904483 0.0339126 1.80037e-19)
(0.123289 0.0297112 1.31929e-20)
(0.163311 0.0253958 -1.14628e-19)
(0.19825 0.0204497 1.06582e-19)
(0.264185 0.0182544 -1.03988e-19)
(-0.00922419 0.018131 1.04507e-19)
(-0.0227802 0.042182 4.44745e-20)
(-0.033205 0.0573163 9.67754e-20)
(-0.0400867 0.0659263 -1.08851e-19)
(-0.0435634 0.0698249 -1.67152e-19)
(-0.04374 0.0704782 -1.26841e-19)
(-0.0406756 0.0690024 4.79205e-20)
(-0.0343782 0.066206 1.00755e-19)
(-0.0247888 0.0626502 -1.90569e-19)
(-0.0117804 0.0587068 8.51367e-20)
(0.00483421 0.0546096 6.40194e-21)
(0.0252915 0.0504968 -9.7585e-20)
(0.049863 0.0464444 -2.11703e-19)
(0.0788355 0.0424901 1.6954e-19)
(0.112446 0.0386423 1.14681e-19)
(0.151273 0.0349563 -1.97928e-19)
(0.19366 0.0312235 1.71422e-19)
(0.24678 0.0281731 -2.12759e-21)
(0.288414 0.0233878 -2.04299e-19)
(0.375336 0.0230676 -5.81926e-20)
(-0.0101708 0.0183123 -8.22135e-20)
(-0.0246295 0.0426136 1.04158e-19)
(-0.0348765 0.0578613 3.48097e-20)
(-0.0407054 0.066445 3.34922e-21)
(-0.042352 0.0702182 2.76498e-19)
(-0.0399941 0.0706841 1.84852e-19)
(-0.033729 0.0689904 -9.37903e-20)
(-0.0235653 0.0659736 -7.74853e-20)
(-0.00941241 0.0622205 1.27394e-19)
(0.00891231 0.0581283 1.67749e-19)
(0.0316673 0.0539566 -1.03402e-19)
(0.0591644 0.0498713 3.35773e-19)
(0.0917413 0.0459779 1.20004e-19)
(0.129734 0.0423469 -2.32276e-19)
(0.1733 0.0389938 2.47554e-20)
(0.223368 0.0361613 4.85132e-20)
(0.276425 0.0330408 -1.05928e-20)
(0.344627 0.0322303 1.4282e-19)
(0.392522 0.0275058 1.11185e-19)
(0.502156 0.0307555 1.07155e-19)
(-0.0111043 0.0183273 6.67266e-20)
(-0.0264053 0.0425635 -2.3836e-19)
(-0.03637 0.0576563 -3.12985e-19)
(-0.0409627 0.0660074 7.06143e-20)
(-0.0405033 0.0695121 -1.7057e-19)
(-0.0352271 0.0697044 -2.83569e-20)
(-0.0252518 0.0677585 1.40354e-19)
(-0.0105658 0.0645343 -2.25097e-20)
(0.00897326 0.0606432 1.78386e-19)
(0.0336208 0.0565089 -1.02586e-19)
(0.0637142 0.0524211 8.28348e-20)
(0.0996316 0.0485792 -3.16013e-19)
(0.141741 0.0451216 -9.21196e-20)
(0.190369 0.0421595 -9.52607e-20)
(0.245434 0.0396704 1.5556e-19)
(0.308176 0.0382569 -7.95984e-21)
(0.372769 0.0359546 -1.30771e-19)
(0.456413 0.0382536 -1.10401e-19)
(0.510229 0.0336399 -9.96252e-20)
(0.640262 0.0415053 -4.82141e-20)
(-0.0120235 0.018204 2.0764e-19)
(-0.0280682 0.0420755 3.5712e-20)
(-0.037586 0.0567468 7.05241e-20)
(-0.0406839 0.0646596 -2.63125e-20)
(-0.037749 0.0677532 2.32079e-20)
(-0.0290553 0.0675942 -1.08732e-19)
(-0.0147162 0.0653807 1.25425e-19)
(0.00532427 0.0619954 -1.78645e-19)
(0.0312806 0.0580754 2.12712e-19)
(0.0634896 0.0540755 -3.93401e-21)
(0.102356 0.0503211 -2.51505e-19)
(0.148278 0.047048 6.93298e-20)
(0.201561 0.044427 1.59903e-19)
(0.262375 0.0426109 1.14032e-19)
(0.330212 0.0414759 -2.02389e-19)
(0.406219 0.0420698 -1.12571e-19)
(0.482689 0.0410659 1.21907e-20)
(0.579331 0.0467487 1.14262e-19)
(0.639023 0.0427645 1.22702e-19)
(0.781658 0.0551692 -1.51925e-19)
(-0.0129273 0.0179674 -2.76642e-19)
(-0.0295693 0.0411918 1.8628e-19)
(-0.0383993 0.0551888 -1.05047e-19)
(-0.0396442 0.0624654 2.64828e-20)
(-0.0337433 0.065019 1.85816e-19)
(-0.0209831 0.0644549 1.11121e-19)
(-0.00144542 0.0619955 -1.69329e-19)
(0.0249943 0.0585489 1.23076e-19)
(0.058634 0.0547831 -3.36968e-19)
(0.0998776 0.0511899 1.88352e-20)
(0.14914 0.0481334 1.85537e-19)
(0.206731 0.0458827 -2.96463e-20)
(0.272712 0.0446275 -1.73509e-19)
(0.346838 0.0445343 -7.65111e-20)
(0.42797 0.0453525 -5.35313e-21)
(0.516369 0.0483311 1.41555e-19)
(0.603888 0.049415 4.45421e-20)
(0.707946 0.0578584 1.7911e-19)
(0.773156 0.0553488 5.10565e-20)
(0.915895 0.0709819 -6.89039e-20)
(-0.0138125 0.0176364 -1.07283e-19)
(-0.0308448 0.0399514 -2.98235e-19)
(-0.0386513 0.0530415 1.99079e-19)
(-0.0375632 0.0595037 2.34852e-20)
(-0.0280549 0.0614202 -1.50451e-20)
(-0.0103979 0.0604391 -3.03992e-20)
(0.0153851 0.0578129 -4.58013e-20)
(0.049502 0.0544819 8.20475e-20)
(0.0923205 0.0511524 -1.95201e-19)
(0.14425 0.0483559 -4.43813e-20)
(0.205588 0.0464898 -2.13801e-19)
(0.276341 0.0458382 2.26093e-19)
(0.356047 0.0465718 1.2426e-19)
(0.443672 0.0487889 -1.05774e-19)
(0.537247 0.0521591 -1.49625e-20)
(0.635342 0.0575427 -1.12757e-20)
(0.730987 0.0614318 -2.90891e-20)
(0.834834 0.0712658 -4.96612e-20)
(0.90367 0.0708963 1.59084e-19)
(1.0326 0.0874332 3.24649e-19)
(-0.0146704 0.0172233 4.93702e-20)
(-0.031813 0.0383862 2.40428e-19)
(-0.0381432 0.0503614 1.45245e-19)
(-0.0340994 0.0558702 6.76792e-20)
(-0.020166 0.0571002 -8.8493e-20)
(0.00342435 0.0557522 -4.44061e-20)
(0.0367265 0.0531186 2.28165e-21)
(0.080022 0.0501815 -9.09517e-20)
(0.133685 0.047689 -2.59851e-20)
(0.197989 0.0462063 1.73203e-19)
(0.272881 0.0461412 2.05038e-19)
(0.35774 0.0477428 -6.89649e-20)
(0.451198 0.0510912 -1.14682e-19)
(0.551055 0.0560846 2.2686e-19)
(0.65429 0.0623566 2.19568e-19)
(0.757618 0.0698397 1.25417e-19)
(0.855913 0.0765983 -1.14164e-19)
(0.951907 0.0861271 2.78738e-20)
(1.02031 0.088035 -2.13104e-20)
(1.12424 0.102604 -2.74667e-19)
(-0.0154834 0.0167313 3.38931e-19)
(-0.0323681 0.0365149 -9.74421e-20)
(-0.036636 0.047206 -1.37951e-19)
(-0.0288488 0.0516754 -1.39184e-19)
(-0.00947859 0.0522348 -1.17328e-19)
(0.0212988 0.0506526 1.90115e-19)
(0.0636103 0.0482736 8.61816e-20)
(0.117752 0.0461278 -2.11408e-19)
(0.183962 0.0450002 1.42052e-19)
(0.262129 0.0454639 -7.92041e-20)
(0.35149 0.0478791 -1.13486e-19)
(0.450377 0.0523677 4.70678e-20)
(0.556119 0.0588084 5.11511e-20)
(0.665121 0.0667694 -1.18407e-19)
(0.773227 0.0757768 -1.14708e-19)
(0.876008 0.0847983 -7.734e-20)
(0.969756 0.093537 -8.19897e-20)
(1.05212 0.101226 1.94727e-20)
(1.11467 0.105112 6.27491e-20)
(1.18789 0.114769 1.01514e-19)
(-0.0162189 0.0161502 -7.86124e-20)
(-0.0323763 0.0343482 -1.7752e-19)
(-0.0338483 0.0436348 2.10963e-19)
(-0.0213512 0.047043 -1.8413e-19)
(0.00466984 0.0470306 1.24046e-19)
(0.0440946 0.0454497 -1.67948e-19)
(0.0970724 0.0437069 -1.83561e-19)
(0.163778 0.0428781 4.42963e-19)
(0.244058 0.0437595 2.23762e-20)
(0.337037 0.046869 -1.04954e-19)
(0.440785 0.0524154 -1.97956e-19)
(0.55216 0.0602596 -5.199e-20)
(0.666934 0.069942 -2.50349e-19)
(0.780205 0.0806324 7.34044e-20)
(0.887024 0.091613 3.37446e-20)
(0.982999 0.101358 -3.06532e-20)
(1.06534 0.110442 2.26711e-19)
(1.13122 0.115481 -6.07071e-20)
(1.1827 0.12069 5.31611e-20)
(1.2252 0.122609 -1.41232e-19)
(-0.0168287 0.015468 1.03894e-19)
(-0.0316699 0.0318909 5.10485e-21)
(-0.0294574 0.0397056 3.52559e-20)
(-0.0110995 0.04211 6.70563e-20)
(0.0229805 0.0417247 8.01717e-20)
(0.0726803 0.0404991 1.23882e-19)
(0.138052 0.0399037 5.85241e-20)
(0.218903 0.041038 -1.35199e-19)
(0.3143 0.0446462 3.05078e-20)
(0.422114 0.0510777 -6.46334e-21)
(0.538774 0.0602379 1.2857e-19)
(0.659392 0.0715736 -5.35601e-20)
(0.77828 0.0841788 6.21028e-20)
(0.889756 0.0968483 -6.48137e-21)
(0.988956 0.108619 -2.08584e-19)
(1.07262 0.118038 1.50402e-20)
(1.13916 0.125738 -1.49182e-19)
(1.18854 0.12839 -1.71257e-20)
(1.22521 0.133177 -4.1008e-20)
(1.24197 0.12511 6.7276e-20)
(-0.0172562 0.0146694 -7.69296e-20)
(-0.0300488 0.0291393 1.24487e-20)
(-0.0231018 0.0354806 2.90276e-19)
(0.00244552 0.0370305 -1.46876e-19)
(0.0461579 0.0365852 7.5004e-20)
(0.107855 0.0361981 -1.2516e-19)
(0.187269 0.0373872 -1.13499e-19)
(0.283462 0.0412178 -1.04351e-19)
(0.394205 0.0482654 -2.04855e-19)
(0.515587 0.0585426 2.26833e-19)
(0.642076 0.0714731 1.88461e-19)
(0.767124 0.0859711 4.28109e-20)
(0.884173 0.10068 1.60271e-19)
(0.987722 0.114162 -1.13518e-19)
(1.07411 0.125425 2.24166e-20)
(1.14196 0.133402 1.90424e-19)
(1.19165 0.138688 -3.66579e-20)
(1.22603 0.13959 -6.88026e-20)
(1.24673 0.140685 4.68147e-20)
(1.25794 0.133616 -2.89754e-19)
(-0.0174285 0.0137329 -2.89774e-19)
(-0.0272872 0.0260928 -1.4692e-19)
(-0.0143907 0.0310332 -3.60209e-19)
(0.0198348 0.0319806 -2.79809e-20)
(0.0748672 0.0319122 -1.12727e-19)
(0.150265 0.0329769 -3.54035e-20)
(0.245092 0.0366917 7.54802e-20)
(0.357142 0.0439753 3.64061e-19)
(0.482311 0.0550547 -3.68725e-19)
(0.614498 0.0694001 1.17674e-19)
(0.746243 0.085806 -1.4263e-19)
(0.869943 0.102645 -1.11445e-19)
(0.979207 0.118261 -1.55086e-19)
(1.06987 0.131244 -3.99629e-20)
(1.14037 0.140872 1.00915e-19)
(1.19154 0.146588 -3.8912e-20)
(1.22593 0.149377 -1.61248e-20)
(1.2471 0.148076 -6.16353e-20)
(1.25811 0.147194 1.48815e-19)
(1.26377 0.139621 2.17803e-19)
(-0.0172568 0.0126381 2.14744e-20)
(-0.0231347 0.022761 2.80386e-19)
(-0.00291605 0.0264555 2.89649e-19)
(0.0416059 0.0271648 1.1108e-19)
(0.109683 0.0280396 1.32433e-19)
(0.200317 0.0312885 -1.2457e-20)
(0.311407 0.0383273 4.86696e-20)
(0.438854 0.0497464 -1.30171e-19)
(0.576162 0.0651918 2.60488e-19)
(0.714963 0.0834025 2.94362e-20)
(0.846428 0.102506 1.0773e-19)
(0.962981 0.120491 -4.64296e-20)
(1.05963 0.135688 1.17154e-19)
(1.13446 0.147031 1.26639e-20)
(1.18839 0.154276 -7.60243e-20)
(1.2243 0.157479 9.60753e-20)
(1.24598 0.157852 3.78267e-21)
(1.2576 0.15484 -9.36066e-20)
(1.262 0.152384 -1.61359e-19)
(1.26319 0.14442 -4.71513e-20)
(-0.0166398 0.0113711 -5.60009e-20)
(-0.0173211 0.0191709 -1.64636e-19)
(0.0117352 0.0218673 -6.38913e-20)
(0.0682536 0.022824 1.98833e-19)
(0.151034 0.0253356 -1.30401e-19)
(0.258085 0.0315904 1.76302e-19)
(0.38551 0.0427325 9.13831e-20)
(0.52669 0.0587717 -8.75831e-20)
(0.672483 0.0785319 2.41312e-19)
(0.812697 0.0999329 -2.48503e-19)
(0.938219 0.120575 -1.45239e-19)
(1.04281 0.13837 1.13065e-19)
(1.12387 0.151982 -1.83918e-20)
(1.18215 0.160921 2.48746e-19)
(1.22079 0.165507 -1.70429e-19)
(1.24402 0.166308 4.22358e-20)
(1.2562 0.164669 -5.43195e-20)
(1.26123 0.160356 -1.67719e-20)
(1.26142 0.156785 2.21918e-19)
(1.2606 0.148594 6.20503e-20)
(-0.0154664 0.00992804 1.72946e-19)
(-0.00956377 0.0153749 2.07965e-19)
(0.0299641 0.0174254 -1.25748e-19)
(0.100196 0.0192412 -1.59831e-19)
(0.199139 0.0241968 -9.34321e-20)
(0.323226 0.0343162 -1.35386e-19)
(0.466052 0.0502173 -1.73896e-19)
(0.618018 0.0710352 6.73155e-20)
(0.767567 0.0946052 -2.95484e-19)
(0.903693 0.118119 1.58481e-19)
(1.01838 0.138966 -8.25012e-20)
(1.10785 0.155361 -9.77365e-20)
(1.1724 0.166573 1.47488e-20)
(1.21521 0.172781 9.95667e-20)
(1.24096 0.1748 7.86748e-20)
(1.25448 0.173546 1.24623e-19)
(1.25998 0.170335 -7.92272e-20)
(1.26074 0.16511 4.26704e-20)
(1.2586 0.16074 -6.61538e-20)
(1.25637 0.152448 3.40331e-21)
(-0.0136177 0.00831792 -1.44914e-19)
(0.000422657 0.0114581 1.5928e-19)
(0.0521397 0.0133313 9.27165e-20)
(0.137734 0.0167437 -6.77326e-20)
(0.253946 0.0250347 1.26929e-19)
(0.394914 0.039835 -9.69164e-20)
(0.551065 0.0609061 1.92937e-19)
(0.709742 0.0862425 1.40305e-19)
(0.857801 0.112692 -1.32202e-19)
(0.984839 0.137014 2.27204e-19)
(1.08523 0.1568 -9.76414e-20)
(1.1583 0.170894 6.72046e-20)
(1.20708 0.179301 1.42639e-19)
(1.23659 0.182807 -9.27605e-20)
(1.25221 0.182571 -6.95333e-21)
(1.25873 0.179672 -2.031e-19)
(1.25979 0.175287 1.68384e-19)
(1.25795 0.169445 2.07433e-20)
(1.25446 0.164478 1.2626e-19)
(1.2515 0.15615 -9.52388e-20)
(-0.0109703 0.0065654 9.42271e-20)
(0.0129157 0.00754398 -1.66368e-19)
(0.0785754 0.00983498 -1.04714e-20)
(0.181012 0.0156977 -3.38013e-20)
(0.315073 0.0282497 -1.68673e-19)
(0.471825 0.0484024 2.219e-19)
(0.638102 0.0746993 -5.12783e-20)
(0.79868 0.103857 -1.65476e-19)
(0.940183 0.131962 -3.37046e-20)
(1.05428 0.155777 3.95261e-20)
(1.1386 0.17349 2.43122e-19)
(1.19558 0.184758 8.13164e-20)
(1.23044 0.190299 -7.31986e-20)
(1.2492 0.191355 -8.18475e-20)
(1.2573 0.189256 4.26074e-20)
(1.25901 0.185093 1.77389e-19)
(1.25724 0.179845 -9.26971e-20)
(1.25385 0.173578 -1.05728e-19)
(1.24965 0.168128 -5.91999e-20)
(1.24623 0.15982 2.44612e-21)
(-0.0073997 0.00471252 7.30072e-21)
(0.028172 0.00379708 1.44681e-20)
(0.109501 0.00723417 -1.32151e-19)
(0.229965 0.0164948 6.95486e-20)
(0.381768 0.0341941 1.6118e-19)
(0.552187 0.0601141 -1.97725e-19)
(0.724485 0.091274 3.61914e-20)
(0.881983 0.123195 1.38025e-19)
(1.01267 0.151623 -2.00573e-20)
(1.11144 0.173792 5.11896e-20)
(1.17944 0.188756 -2.37067e-19)
(1.22177 0.197012 -9.95059e-20)
(1.24504 0.199862 -2.7149e-20)
(1.25554 0.198819 -2.2362e-20)
(1.2583 0.195236 -4.67183e-20)
(1.25682 0.190114 -1.36435e-19)
(1.25331 0.184221 1.08662e-19)
(1.24903 0.17764 -4.67217e-20)
(1.24445 0.171772 1.18754e-19)
(1.24071 0.163492 3.30054e-20)
(-0.00278446 0.00281973 6.60413e-20)
(0.046412 0.000423598 -8.66754e-20)
(0.145035 0.00586731 1.20014e-19)
(0.284291 0.0195273 -5.37386e-20)
(0.45291 0.0431291 4.22968e-20)
(0.63391 0.0748795 9.85468e-20)
(0.807616 0.110133 -2.57152e-20)
(0.95746 0.143543 -1.31521e-19)
(1.07426 0.171039 7.96419e-20)
(1.15677 0.190704 7.62064e-20)
(1.20936 0.202567 1.17635e-19)
(1.23908 0.207876 2.67168e-20)
(1.25315 0.208334 2.01573e-19)
(1.25757 0.205555 5.54182e-20)
(1.25665 0.200805 1.46391e-20)
(1.25313 0.194943 5.39988e-20)
(1.24855 0.188544 9.08884e-20)
(1.24375 0.181702 -2.44628e-20)
(1.23897 0.175441 -8.94687e-20)
(1.23501 0.167188 1.67684e-20)
(0.00298994 0.000965713 -8.90098e-20)
(0.067804 -0.00233175 -1.38644e-19)
(0.185154 0.0061006 -6.76676e-20)
(0.343411 0.0251574 -1.7648e-21)
(0.527044 0.0551864 6.53473e-21)
(0.714787 0.0924298 -1.99445e-19)
(0.885266 0.130688 1.15648e-19)
(1.02374 0.164265 -5.5973e-20)
(1.12491 0.189777 -9.04794e-20)
(1.19141 0.206383 1.31097e-21)
(1.23024 0.215059 -1.05847e-19)
(1.24957 0.217639 -1.12192e-19)
(1.2566 0.216041 -1.72811e-19)
(1.25668 0.211847 2.12959e-20)
(1.2533 0.206171 5.24518e-20)
(1.24849 0.199713 -7.71141e-20)
(1.24328 0.192886 8.14729e-21)
(1.23818 0.185798 1.11348e-19)
(1.23327 0.179151 -6.72957e-20)
(1.22912 0.170911 6.25775e-20)
(0.0100247 -0.000752158 4.48005e-20)
(0.0924468 -0.00419098 4.32908e-20)
(0.229664 0.00830928 -1.99204e-19)
(0.40648 0.0336816 7.7746e-20)
(0.60249 0.0703459 -1.75813e-19)
(0.792717 0.112361 1.36353e-19)
(0.955768 0.15235 -1.57823e-20)
(1.08024 0.184869 1.05863e-19)
(1.16524 0.207602 1.67379e-19)
(1.21683 0.220863 -1.36684e-20)
(1.24389 0.226452 1.14293e-19)
(1.25497 0.226592 1.29912e-19)
(1.25678 0.223258 -4.5427e-20)
(1.25384 0.217906 -8.79397e-20)
(1.24885 0.21147 -7.52186e-20)
(1.24322 0.204498 9.13954e-20)
(1.23762 0.197282 -7.5903e-20)
(1.23234 0.189937 -3.43121e-20)
(1.22736 0.182905 1.55364e-20)
(1.22304 0.174658 -1.35484e-20)
(0.0184009 -0.0022199 1.06446e-19)
(0.120352 -0.00485268 1.16754e-19)
(0.278191 0.0128543 -4.00288e-20)
(0.472403 0.0452984 2.27261e-19)
(0.677476 0.0884397 5.34673e-20)
(0.865898 0.134195 -2.05207e-19)
(1.01809 0.174599 1.63056e-19)
(1.12707 0.205017 -2.94246e-20)
(1.19628 0.224438 -1.99073e-20)
(1.23459 0.234283 -6.4122e-20)
(1.25192 0.236992 1.44657e-20)
(1.25663 0.234995 2.2181e-20)
(1.25466 0.230197 -8.4279e-20)
(1.24967 0.223874 5.25662e-22)
(1.24362 0.216783 -3.02221e-20)
(1.23749 0.209337 -4.38751e-20)
(1.23166 0.201744 4.154e-20)
(1.22626 0.194117 -5.07682e-20)
(1.22123 0.186695 -6.03547e-20)
(1.21678 0.178418 4.15671e-20)
(0.0281749 -0.00330925 -2.22842e-19)
(0.151432 -0.00400338 6.99887e-20)
(0.33017 0.0200568 6.9596e-22)
(0.539906 0.060087 -1.38184e-19)
(0.750296 0.10918 1.90054e-20)
(0.932955 0.157449 -3.97868e-20)
(1.07178 0.19702 -4.78957e-20)
(1.16476 0.224517 -7.83949e-20)
(1.21926 0.240322 -3.8048e-21)
(1.24613 0.246826 -3.44796e-20)
(1.25564 0.246913 -8.66074e-20)
(1.25557 0.243056 -4.06281e-20)
(1.25093 0.237008 9.94372e-20)
(1.24455 0.229842 5.87852e-20)
(1.23783 0.222152 2.64741e-20)
(1.23137 0.214244 6.32149e-20)
(1.2254 0.206267 -9.93745e-20)
(1.21993 0.198328 3.69741e-20)
(1.21486 0.190512 2.61933e-20)
(1.2103 0.182178 -5.80781e-21)
(0.0393707 -0.00388063 1.61612e-19)
(0.185486 -0.00133152 -1.42417e-19)
(0.384858 0.0301732 -6.05729e-20)
(0.607615 0.0780025 1.49746e-19)
(0.819435 0.132204 1.41935e-20)
(0.992972 0.181675 3.7396e-21)
(1.11688 0.21931 6.8894e-20)
(1.19416 0.24329 -1.04341e-19)
(1.23542 0.255356 1.75939e-20)
(1.25271 0.258687 7.44906e-20)
(1.25611 0.256415 -2.64831e-20)
(1.25251 0.250935 -7.34797e-20)
(1.246 0.243789 -3.79684e-21)
(1.2387 0.235856 -3.55865e-20)
(1.23155 0.22759 -3.04318e-20)
(1.2249 0.219213 -8.88924e-20)
(1.21884 0.210838 5.68603e-20)
(1.21333 0.202556 -1.74489e-21)
(1.20825 0.194343 1.73224e-21)
(1.2036 0.185924 -2.79668e-20)
(0.0519751 -0.00378736 -1.48858e-19)
(0.222198 0.00345653 1.35723e-19)
(0.441367 0.0433749 -2.14568e-20)
(0.674156 0.0988863 -1.34039e-20)
(0.883665 0.157111 1.92666e-20)
(1.04547 0.206493 -2.80475e-20)
(1.15375 0.241269 -7.70271e-22)
(1.21621 0.261335 1.02717e-19)
(1.2459 0.269674 -6.89015e-21)
(1.25538 0.270044 8.12064e-21)
(1.25408 0.265658 2.58845e-21)
(1.24793 0.258737 1.12059e-20)
(1.24016 0.250598 -3.15475e-20)
(1.23226 0.241936 7.05542e-20)
(1.22483 0.233094 1.1433e-20)
(1.21807 0.224232 4.41129e-20)
(1.21197 0.215439 -1.63508e-20)
(1.20645 0.20678 8.09029e-21)
(1.20138 0.198173 -2.46767e-20)
(1.19667 0.189636 2.4198e-20)
(0.0659327 -0.00288089 6.49618e-20)
(0.261138 0.0106199 -5.82637e-20)
(0.498704 0.0597355 -2.18152e-20)
(0.738244 0.122489 -2.20476e-20)
(0.942075 0.183505 3.18349e-20)
(1.09031 0.231591 8.50098e-21)
(1.183 0.262776 4.84985e-20)
(1.23189 0.2787 -1.06067e-19)
(1.25171 0.283412 5.68515e-20)
(1.25495 0.281047 4.13782e-20)
(1.25013 0.274755 -2.83303e-20)
(1.24218 0.266527 5.79246e-20)
(1.23355 0.257455 5.09222e-22)
(1.22527 0.248078 1.46446e-20)
(1.21768 0.238647 2.12678e-20)
(1.21087 0.229278 -2.60876e-20)
(1.20477 0.220044 1.97305e-20)
(1.19928 0.210981 8.43296e-21)
(1.19423 0.201982 8.76098e-22)
(1.18949 0.193293 -9.49394e-21)
(0.0811438 -0.00101665 -3.67553e-20)
(0.301775 0.0203671 9.38764e-21)
(0.555827 0.0792265 6.57366e-20)
(0.798751 0.148499 -1.39888e-20)
(0.994067 0.211011 1.69275e-20)
(1.12765 0.256725 -1.08352e-20)
(1.2053 0.283767 1.28235e-20)
(1.2421 0.295455 -9.94505e-21)
(1.25369 0.296695 -6.11731e-20)
(1.25204 0.29181 1.63119e-21)
(1.24463 0.283779 1.86504e-21)
(1.23544 0.274336 -3.86994e-20)
(1.22626 0.264362 1.30614e-20)
(1.21775 0.254264 -3.68619e-21)
(1.2101 0.244223 -2.42624e-20)
(1.20329 0.234326 2.10309e-20)
(1.19723 0.224628 -2.88208e-20)
(1.19179 0.215135 -9.61577e-21)
(1.1868 0.205751 6.59935e-21)
(1.18205 0.196873 -1.54018e-21)
(0.0974635 0.0019395 4.09556e-20)
(0.343489 0.0328424 1.27636e-20)
(0.611698 0.101723 -1.89118e-20)
(0.854748 0.176564 -7.8846e-21)
(1.03932 0.239289 -3.24693e-20)
(1.15782 0.281708 -2.72936e-21)
(1.22138 0.304217 -7.62628e-21)
(1.24764 0.311673 1.12165e-21)
(1.25252 0.309623 -5.23326e-21)
(1.24712 0.302408 -1.13786e-20)
(1.23785 0.292767 -5.14343e-21)
(1.22784 0.282165 1.19812e-20)
(1.21832 0.271298 1.35316e-21)
(1.20971 0.260464 -1.05458e-20)
(1.20206 0.249791 4.04715e-21)
(1.1953 0.239342 2.80278e-21)
(1.18933 0.229159 1.2871e-20)
(1.18398 0.219219 -3.87495e-21)
(1.17907 0.209456 -3.81536e-21)
(1.17434 0.200348 -6.8003e-22)
(0.114703 0.00610467 -9.04094e-21)
(0.385599 0.0481156 2.16393e-20)
(0.665335 0.127015 7.37193e-21)
(0.905517 0.206315 -3.36863e-21)
(1.07773 0.268032 -8.22233e-21)
(1.18126 0.306393 1.04139e-20)
(1.23195 0.324118 8.34275e-21)
(1.2492 0.327418 -1.40639e-20)
(1.2487 0.322265 3.62162e-21)
(1.24051 0.312885 -1.59474e-21)
(1.22996 0.301725 6.28014e-22)
(1.21943 0.289997 -4.67266e-21)
(1.20976 0.278231 -5.38175e-21)
(1.20114 0.266641 1.17131e-21)
(1.19355 0.255314 4.59639e-22)
(1.1869 0.244293 -6.02418e-21)
(1.18106 0.233607 3.83546e-22)
(1.17584 0.223206 3.71076e-21)
(1.17104 0.21307 3.58507e-21)
(1.16637 0.203693 7.13778e-23)
(0.132636 0.0115726 -1.02441e-21)
(0.427389 0.0661763 1.97131e-20)
(0.715851 0.154822 2.07525e-21)
(0.950548 0.237379 3.46246e-21)
(1.10938 0.296968 -1.43646e-20)
(1.19847 0.330663 2.45397e-20)
(1.23765 0.343469 -7.44272e-21)
(1.24735 0.342737 -4.23835e-21)
(1.24265 0.334663 -1.98435e-21)
(1.23243 0.323251 -4.96363e-21)
(1.22105 0.310636 7.92363e-21)
(1.21025 0.297794 -8.76942e-21)
(1.20055 0.285118 -5.39581e-21)
(1.19201 0.272752 2.52634e-22)
(1.18456 0.26075 1.65877e-21)
(1.17807 0.24914 -6.51201e-22)
(1.1724 0.237934 -2.93716e-21)
(1.16735 0.227065 2.84314e-21)
(1.16271 0.216559 3.86114e-21)
(1.15816 0.206878 2.84647e-21)
(0.151 0.0184081 6.87284e-20)
(0.468135 0.0869332 1.78488e-20)
(0.762482 0.18481 -3.78581e-20)
(0.989514 0.269387 1.71868e-20)
(1.13446 0.325851 -5.15219e-20)
(1.20996 0.354417 -1.95834e-21)
(1.23904 0.362265 -1.68394e-20)
(1.24256 0.357653 2.03926e-20)
(1.23466 0.346826 2.28992e-21)
(1.22304 0.33349 -1.52271e-20)
(1.21119 0.319464 -1.46187e-20)
(1.20031 0.305511 5.1318e-21)
(1.19071 0.29191 4.79225e-21)
(1.18233 0.278749 -6.1491e-21)
(1.17507 0.266055 1.43132e-21)
(1.16879 0.253841 2.45025e-21)
(1.16334 0.242104 1.14431e-20)
(1.15852 0.230758 -2.51735e-21)
(1.15409 0.219877 -6.38865e-21)
(1.14972 0.209873 3.47262e-21)
(0.169508 0.0266424 -5.00989e-20)
(0.507135 0.110217 -4.32625e-21)
(0.804598 0.216605 1.00919e-19)
(1.02225 0.301977 -5.10791e-20)
(1.15326 0.354456 5.60328e-20)
(1.21623 0.377565 -1.33982e-20)
(1.23662 0.38049 -3.64102e-21)
(1.23519 0.372167 -4.68322e-21)
(1.22494 0.358739 -3.66247e-20)
(1.21244 0.343563 -1.11895e-20)
(1.20039 0.328155 1.35127e-20)
(1.18961 0.31309 -2.48806e-20)
(1.1802 0.298551 -1.37758e-20)
(1.17207 0.284581 7.37881e-21)
(1.16506 0.271184 -1.14614e-20)
(1.15906 0.258357 3.37974e-21)
(1.15388 0.246079 -1.70499e-20)
(1.14933 0.234244 6.92665e-21)
(1.14515 0.222975 -3.06367e-21)
(1.14103 0.212641 5.36864e-21)
(0.187855 0.0362701 4.12703e-20)
(0.543734 0.135788 1.42189e-21)
(0.84171 0.249805 -5.94957e-20)
(1.04872 0.334802 -2.92848e-20)
(1.16609 0.382575 4.77288e-20)
(1.21775 0.400017 -1.95121e-20)
(1.23081 0.398112 1.40672e-20)
(1.22552 0.386255 -1.50433e-21)
(1.21365 0.370362 1.54023e-21)
(1.2007 0.353416 9.73179e-21)
(1.18869 0.336646 -3.5794e-21)
(1.17815 0.320467 3.79545e-20)
(1.16904 0.304982 6.13348e-21)
(1.16122 0.290195 -1.07348e-20)
(1.15454 0.276089 9.61904e-21)
(1.14886 0.262646 7.92363e-21)
(1.144 0.249823 7.11083e-21)
(1.13977 0.237493 2.42e-21)
(1.13588 0.225818 6.06346e-21)
(1.13198 0.215139 -4.88916e-21)
(0.205732 0.0472477 -1.16999e-19)
(0.577339 0.163346 1.03298e-19)