/*--------------------------------*- C++ -*----------------------------------*\
  =========                 |
  \\      /  F ield         | OpenFOAM: The Open Source CFD Toolbox
   \\    /   O peration     | Website:  https://openfoam.org
    \\  /    A nd           | Version:  7
     \\/     M anipulation  |
\*---------------------------------------------------------------------------*/
FoamFile
{
    version     2.0;
    format      ascii;
    class       volVectorField;
    location    "75";
    object      U;
}
// * * * * * * * * * * * * * * * * * * * * * * * * * * * * * * * * * * * * * //

dimensions      [0 1 -1 0 0 0 0];

internalField   nonuniform List<vector> 
6000
(
(-0.00078948 -0.00178159 5.46226e-22)
(-0.00514603 -0.00421551 -2.45101e-21)
(-0.0132942 -0.00585966 -2.70941e-22)
(-0.0229817 -0.00688814 1.68157e-21)
(-0.0336599 -0.00747771 -1.18591e-21)
(-0.0447544 -0.00777397 3.88727e-21)
(-0.0558813 -0.00789039 1.21404e-21)
(-0.0667945 -0.00790731 -1.26525e-21)
(-0.0773367 -0.00787414 4.90109e-22)
(-0.0874135 -0.00781451 -3.99035e-21)
(-0.0969715 -0.00773268 8.52119e-22)
(-0.105983 -0.00761991 -7.56011e-23)
(-0.114434 -0.00745966 -1.0457e-21)
(-0.122318 -0.00723142 2.41991e-21)
(-0.12963 -0.00691283 5.4283e-23)
(-0.136368 -0.0064806 -2.12893e-21)
(-0.142529 -0.00591062 -8.45377e-22)
(-0.148118 -0.00517745 -1.25535e-22)
(-0.153148 -0.00425376 -1.5424e-21)
(-0.15765 -0.00310965 -7.21774e-22)
(-0.000797898 -0.000405677 -2.36131e-22)
(-0.00516763 -0.000958224 -5.01769e-21)
(-0.0133232 -0.0013476 -3.62539e-21)
(-0.02301 -0.00156824 -6.67735e-21)
(-0.0336776 -0.00168303 5.61852e-21)
(-0.0447502 -0.00174509 -3.61187e-21)
(-0.0558435 -0.00179799 6.88179e-22)
(-0.0667113 -0.00186985 -1.05899e-21)
(-0.0771965 -0.00197199 -5.68965e-21)
(-0.0872048 -0.00210132 -7.92808e-22)
(-0.0966831 -0.00224427 -1.0209e-21)
(-0.105604 -0.00238098 -1.21318e-21)
(-0.113952 -0.00248874 6.53746e-21)
(-0.121721 -0.00254396 3.14048e-21)
(-0.128906 -0.00252289 -2.95342e-21)
(-0.135503 -0.00240103 6.52556e-21)
(-0.141507 -0.0021518 4.54172e-22)
(-0.146921 -0.00174449 3.46526e-21)
(-0.151754 -0.00114225 5.08744e-21)
(-0.156033 -0.000300262 -3.69806e-22)
(-0.000871002 0.000962408 6.15157e-21)
(-0.00531947 0.00228114 1.57006e-22)
(-0.0134909 0.00313967 -1.53266e-20)
(-0.0231531 0.00372164 1.30011e-20)
(-0.0337617 0.00407763 1.51141e-21)
(-0.0447465 0.00424671 -9.19821e-21)
(-0.055727 0.00425505 -5.12216e-21)
(-0.0664595 0.00412656 -4.96629e-21)
(-0.0767888 0.00388779 -1.09644e-22)
(-0.0866218 0.0035684 -2.24216e-21)
(-0.095906 0.00319962 -2.59648e-21)
(-0.104614 0.00281222 3.27099e-21)
(-0.112731 0.00243502 -1.32589e-20)
(-0.12025 0.00209446 -1.25126e-20)
(-0.127164 0.00181545 1.01232e-20)
(-0.133467 0.00162323 -1.65375e-20)
(-0.139154 0.00154625 -3.42234e-21)
(-0.144221 0.00161952 1.60485e-20)
(-0.148673 0.00188836 1.83916e-21)
(-0.152527 0.00241158 -3.55987e-21)
(-0.00100745 0.00230888 -4.85201e-21)
(-0.00559928 0.005473 1.80793e-20)
(-0.0137954 0.00756429 2.5023e-20)
(-0.0234098 0.00893959 -1.06724e-20)
(-0.0339122 0.0097609 -1.58256e-21)
(-0.0447443 0.0101581 2.47816e-20)
(-0.0555335 0.0102262 1.51275e-21)
(-0.0660416 0.0100405 1.9488e-21)
(-0.0761166 0.0096652 1.06991e-20)
(-0.0856677 0.00915617 -2.0397e-20)
(-0.0946437 0.00856212 -5.83483e-21)
(-0.103017 0.00792465 3.36898e-21)
(-0.110774 0.00727854 -3.45387e-21)
(-0.117906 0.00665293 1.08599e-20)
(-0.124405 0.00607349 -4.81504e-21)
(-0.130264 0.00556563 2.32775e-20)
(-0.135472 0.00515855 6.08835e-21)
(-0.140022 0.00489013 -7.42155e-22)
(-0.143909 0.00481225 9.09413e-21)
(-0.147141 0.00499587 -8.59631e-21)
(-0.149743 0.00553455 -4.82767e-21)
(-0.00120485 0.00362054 1.0265e-20)
(-0.00600298 0.00858885 -1.58746e-20)
(-0.0142332 0.0118896 6.98506e-21)
(-0.0237779 0.0140448 9.78906e-21)
(-0.0341281 0.0153243 -3.39757e-20)
(-0.0447438 0.0159462 -7.84213e-21)
(-0.0552647 0.0160732 1.01263e-20)
(-0.06546 0.0158308 -1.03729e-21)
(-0.0751831 0.0153203 1.94032e-20)
(-0.0843462 0.0146234 1.45504e-21)
(-0.0928998 0.0138062 1.26229e-20)
(-0.100817 0.012921 1.23318e-20)
(-0.108084 0.0120084 2.41083e-20)
(-0.114691 0.0111002 -1.17195e-20)
(-0.12063 0.0102225 3.50162e-21)
(-0.12589 0.0093999 -4.57882e-21)
(-0.130458 0.00866124 -1.28204e-20)
(-0.134319 0.00804517 -5.08035e-21)
(-0.13746 0.00760749 2.379e-21)
(-0.139873 0.00742847 -1.17733e-20)
(-0.141566 0.00761907 8.28322e-21)
(-0.00145985 0.00488511 -1.84262e-20)
(-0.00652472 0.0116018 -2.76206e-21)
(-0.014799 0.0160806 -1.77979e-20)
(-0.0242536 0.018998 -7.60041e-21)
(-0.0344076 0.0207265 2.84424e-20)
(-0.0447453 0.0215694 -1.96288e-21)
(-0.054922 0.0217544 -2.36852e-20)
(-0.0647175 0.0214567 2.00714e-20)
(-0.0739917 0.0208132 -9.34129e-21)
(-0.0826608 0.0199314 3.31856e-20)
(-0.0906774 0.0188945 -1.70745e-20)
(-0.0980155 0.0177654 -2.93326e-20)
(-0.104661 0.0165906 5.62597e-21)
(-0.110604 0.0154045 -2.04485e-21)
(-0.115834 0.014233 -1.24135e-20)
(-0.120338 0.0130997 -1.39417e-20)
(-0.1241 0.0120312 -1.04845e-20)
(-0.127098 0.0110647 1.01122e-20)
(-0.129308 0.0102567 6.84305e-23)
(-0.130708 0.00969257 5.66492e-21)
(-0.131282 0.00949709 -1.42564e-20)
(-0.00176826 0.00609142 5.52746e-20)
(-0.00715717 0.0144872 -1.39513e-20)
(-0.015486 0.0201047 -1.66588e-20)
(-0.0248319 0.0237618 -7.71564e-21)
(-0.034748 0.0259279 -2.21805e-20)
(-0.0447479 0.0269869 1.11188e-20)
(-0.0545066 0.0272292 1.73722e-20)
(-0.0638164 0.0268775 -1.84238e-20)
(-0.0725454 0.0261041 1.31405e-20)
(-0.0806144 0.0250413 -2.58165e-20)
(-0.0879787 0.0237891 -2.86121e-21)
(-0.0946132 0.0224212 -1.0833e-20)
(-0.100503 0.0209902 -2.24817e-20)
(-0.105638 0.0195327 -2.51812e-20)
(-0.110007 0.0180748 -7.83252e-21)
(-0.113593 0.0166379 1.50076e-20)
(-0.116376 0.0152453 -8.8723e-21)
(-0.118329 0.0139306 -2.15848e-20)
(-0.119418 0.0127468 -2.25367e-20)
(-0.119606 0.0117796 2.20311e-20)
(-0.118853 0.0111616 -1.8718e-20)
(-0.00212522 0.00722965 -5.85683e-21)
(-0.00789166 0.0172226 3.95498e-20)
(-0.0162861 0.0239317 2.06872e-20)
(-0.0255066 0.0283013 1.37954e-20)
(-0.0351454 0.0308907 3.04285e-20)
(-0.0447501 0.0321594 -1.78385e-20)
(-0.0540187 0.0324575 -1.54821e-21)
(-0.0627581 0.0320534 -2.56455e-20)
(-0.0708459 0.0311533 -2.64874e-20)
(-0.0782087 0.0299138 1.64588e-20)
(-0.0848041 0.0284517 2.43804e-20)
(-0.0906082 0.0268513 -2.07561e-20)
(-0.095606 0.0251712 -1.29957e-20)
(-0.0997852 0.0234508 6.9498e-20)
(-0.103132 0.0217161 3.05485e-21)
(-0.105629 0.0199861 7.55838e-21)
(-0.107252 0.0182801 6.15071e-21)
(-0.107967 0.0166254 7.79446e-21)
(-0.107733 0.0150684 -1.00816e-20)
(-0.106499 0.013689 3.27595e-21)
(-0.104204 0.0126196 -5.14404e-21)
(-0.00252534 0.00829152 -4.76659e-20)
(-0.00871845 0.0197886 -2.88205e-20)
(-0.0171899 0.0275345 -4.48646e-20)
(-0.0262703 0.0325844 1.42625e-20)
(-0.0355947 0.0355794 -5.11154e-20)
(-0.0447493 0.0370495 3.81229e-21)
(-0.0534572 0.0374008 3.90031e-20)
(-0.0615427 0.0369451 -8.97839e-21)
(-0.0688937 0.0359214 3.62738e-21)
(-0.075443 0.0345099 -3.01334e-20)
(-0.0811513 0.0328436 -1.78842e-20)
(-0.0859952 0.0310175 3.83842e-20)
(-0.0899586 0.0290966 2.12368e-20)
(-0.0930274 0.0271231 -3.36968e-20)
(-0.0951854 0.0251234 8.75953e-21)
(-0.0964116 0.0231142 -2.13423e-20)
(-0.0966777 0.02111 -4.70824e-21)
(-0.0959464 0.0191311 -1.68989e-20)
(-0.0941682 0.0172136 3.78634e-20)
(-0.0912815 0.0154262 5.74956e-21)
(-0.0872099 0.0138916 -1.4305e-20)
(-0.00296289 0.00927039 1.95772e-20)
(-0.00962706 0.0221686 3.19525e-21)
(-0.0181872 0.0308895 3.42908e-20)
(-0.0271142 0.0365821 1.54692e-20)
(-0.0360897 0.0399613 5.3618e-20)
(-0.044741 0.0416217 -4.39997e-20)
(-0.0528196 0.0420217 -1.31722e-20)
(-0.060168 0.0415144 3.03897e-20)
(-0.0666863 0.0403696 -3.16765e-20)
(-0.0723136 0.0387904 -3.45105e-21)
(-0.0770137 0.0369257 -8.05538e-21)
(-0.0807631 0.0348811 -1.44146e-20)
(-0.0835441 0.0327282 1.79791e-20)
(-0.0853398 0.0305127 -1.41505e-20)
(-0.08613 0.0282615 -7.23523e-21)
(-0.0858895 0.0259897 3.65e-21)
(-0.084586 0.0237075 9.71321e-21)
(-0.0821769 0.0214273 3.43609e-20)
(-0.078607 0.0191737 -3.13212e-20)
(-0.0738065 0.0169991 -6.74375e-21)
(-0.0676897 0.0150077 3.82255e-20)
(-0.003432 0.0101614 -1.72989e-20)
(-0.0106065 0.0243497 8.19897e-21)
(-0.0192666 0.0339766 -1.00465e-21)
(-0.0280287 0.0402686 2.46009e-20)
(-0.0366225 0.0440062 -5.7902e-20)
(-0.0447191 0.0458427 9.18832e-20)
(-0.0521004 0.046285 2.36034e-20)
(-0.058629 0.0457242 6.67348e-22)
(-0.0642174 0.0444599 5.77779e-20)
(-0.0688118 0.0427168 9.13218e-21)
(-0.0723784 0.0406593 1.77309e-20)
(-0.0748933 0.0384034 -5.33905e-20)
(-0.0763361 0.0360278 -1.8255e-20)
(-0.076685 0.0335818 5.98067e-20)
(-0.0759149 0.031094 -8.31466e-21)
(-0.0739947 0.0285787 9.47615e-21)
(-0.0708858 0.0260423 -2.74801e-21)
(-0.0665402 0.0234905 -7.63955e-20)
(-0.0608968 0.0209363 2.30456e-20)
(-0.053879 0.0184136 1.72633e-20)
(-0.0453975 0.0160007 1.12788e-20)
(-0.00392683 0.0109613 2.22719e-20)
(-0.0116454 0.0263219 1.53974e-20)
(-0.0204164 0.0367793 -5.09729e-20)
(-0.0290026 0.0436218 -3.15961e-20)
(-0.0371831 0.0476875 -3.01456e-21)
(-0.0446747 0.0496822 -3.65865e-20)
(-0.0512912 0.0501572 -4.36589e-20)
(-0.0569162 0.0495393 -1.95532e-21)
(-0.0614755 0.0481558 -6.39464e-20)
(-0.0649222 0.0462517 5.0232e-21)
(-0.0672246 0.0440064 2.2961e-20)
(-0.0683572 0.0415465 4.61666e-20)
(-0.0682951 0.0389574 -1.35054e-20)
(-0.0670105 0.0362931 -4.16487e-20)
(-0.0644705 0.0335845 -2.15781e-20)
(-0.0606358 0.0308462 -2.88739e-20)
(-0.0554593 0.0280827 -4.0943e-20)
(-0.0488851 0.0252946 7.68251e-20)
(-0.0408451 0.022485 -9.10475e-21)
(-0.0312563 0.0196703 -4.71399e-20)
(-0.0200252 0.0168982 8.89779e-21)
(-0.00701274 0.0143004 -2.9871e-20)
(-0.00444177 0.0116688 7.46699e-21)
(-0.0127326 0.0280787 1.15984e-20)
(-0.021624 0.0392851 3.99404e-20)
(-0.0300235 0.0466234 7.19658e-20)
(-0.0377597 0.0509816 4.55151e-20)
(-0.044596 0.0531125 9.57957e-21)
(-0.0503792 0.0536076 2.07165e-20)
(-0.0550148 0.0529267 6.52451e-21)
(-0.058442 0.0514224 5.14032e-20)
(-0.0606207 0.0493593 -2.50177e-21)
(-0.0615202 0.0469307 1.46451e-20)
(-0.0611121 0.0442736 3.41979e-20)
(-0.0593652 0.0414806 -1.63031e-20)
(-0.056243 0.0386108 5.6806e-20)
(-0.0517023 0.0356981 3.34137e-20)
(-0.0456923 0.032759 3.41592e-20)
(-0.0381541 0.029798 8.12626e-20)
(-0.0290207 0.0268131 -3.40707e-20)
(-0.0182145 0.0238009 -4.34643e-20)
(-0.00564572 0.0207641 2.55005e-21)
(0.00878445 0.0177222 4.45675e-20)
(0.0252 0.0147671 -3.23306e-20)
(-0.00497158 0.0122841 -3.24201e-20)
(-0.0138571 0.0296169 -5.9372e-20)
(-0.0228763 0.0414853 8.84495e-21)
(-0.0310774 0.0492589 -6.6109e-20)
(-0.0383374 0.0538689 8.14145e-21)
(-0.0444668 0.0561095 1.77315e-21)
(-0.0493459 0.0566087 -8.35304e-20)
(-0.0529025 0.055856 1.64543e-20)
(-0.0550891 0.0542277 3.69965e-20)
(-0.0558714 0.0520063 -3.18764e-21)
(-0.0552187 0.0493987 -3.65397e-20)
(-0.0530976 0.0465514 -1.82684e-20)
(-0.0494684 0.0435646 2.0532e-20)
(-0.0442829 0.0405029 3.59008e-21)
(-0.0374843 0.0374045 3.53055e-20)
(-0.0290066 0.034289 -4.99277e-20)
(-0.0187755 0.0311628 -4.03846e-20)
(-0.00670872 0.0280244 -8.36811e-21)
(0.00728445 0.0248681 8.26056e-21)
(0.0233023 0.021689 -7.64857e-21)
(0.0414555 0.0184876 -3.19197e-20)
(0.0618085 0.0153199 1.91171e-20)
(-0.00551155 0.0128092 6.86558e-21)
(-0.0150081 0.0309363 1.05752e-19)
(-0.0241599 0.0433748 -6.6452e-20)
(-0.0321485 0.0515176 -3.41343e-20)
(-0.0388982 0.0563332 -4.05024e-20)
(-0.0442661 0.0586526 -3.45243e-20)
(-0.0481661 0.059136 5.42989e-20)
(-0.050548 0.0583003 -3.68685e-21)
(-0.0513771 0.0565431 -2.24488e-20)
(-0.0506237 0.0541634 2.93329e-20)
(-0.0482551 0.0513805 3.55502e-21)
(-0.0442306 0.0483509 3.38169e-21)
(-0.0384989 0.0451819 -8.84089e-21)
(-0.0309971 0.0419442 -5.36683e-20)
(-0.0216508 0.0386813 -4.42701e-20)
(-0.0103753 0.0354172 3.42856e-20)
(0.00292339 0.0321625 -3.25971e-20)
(0.0183463 0.0289189 3.96355e-21)
(0.0360007 0.0256828 2.78405e-20)
(0.0559932 0.0224481 -1.16644e-20)
(0.0784594 0.0192059 1.9229e-20)
(0.103334 0.0159868 -8.57764e-21)
(-0.00605758 0.013247 -5.92947e-20)
(-0.0161755 0.0320396 -2.7603e-20)
(-0.0254605 0.044952 8.41917e-20)
(-0.0332189 0.0533926 3.00369e-20)
(-0.0394201 0.0583627 1.3557e-20)
(-0.0439669 0.0607252 2.08205e-20)
(-0.0468062 0.0611696 2.31297e-20)
(-0.0479091 0.0602369 -6.06464e-20)
(-0.0472522 0.0583443 2.2172e-20)
(-0.0448087 0.0558058 -6.96837e-20)
(-0.0405416 0.0528524 3.9748e-21)
(-0.0343998 0.0496498 -4.38834e-20)
(-0.0263171 0.0463129 6.15803e-20)
(-0.0162118 0.0429192 1.44598e-20)
(-0.00398852 0.0395181 -7.44509e-21)
(0.0104602 0.0361396 -9.06803e-21)
(0.0272508 0.0328003 3.60509e-20)
(0.0465055 0.0295081 -9.23815e-21)
(0.0683495 0.0262648 4.95168e-20)
(0.092892 0.023069 1.73597e-20)
(0.120316 0.0199141 -2.59252e-20)
(0.150311 0.0168085 -2.26772e-20)
(0.184905 0.0138559 -3.13956e-21)
(-0.00660624 0.0136021 7.08567e-20)
(-0.0173497 0.0329317 1.28559e-20)
(-0.0267631 0.0462184 3.89748e-20)
(-0.0342679 0.0548809 5.12888e-20)
(-0.0398762 0.0599492 -1.45242e-22)
(-0.0435347 0.0623151 -4.77039e-20)
(-0.0452222 0.0626938 -1.65739e-20)
(-0.0449295 0.0616483 2.72545e-20)
(-0.0426428 0.0596129 3.45678e-21)
(-0.0383354 0.0569154 5.51709e-20)
(-0.0319629 0.0537979 3.81938e-20)
(-0.0234603 0.0504349 4.35097e-20)
(-0.0127425 0.0469493 -2.99582e-20)
(0.000294781 0.0434257 5.60795e-20)
(0.0157716 0.0399209 -1.94952e-20)
(0.0338206 0.0364723 1.8398e-20)
(0.0545825 0.0331046 4.49464e-20)
(0.0781993 0.029833 -4.05692e-20)
(0.104812 0.0266692 -1.52688e-20)
(0.134516 0.0236188 -1.04116e-20)
(0.167574 0.0206935 -6.95264e-21)
(0.203258 0.0178478 3.49049e-20)
(0.244818 0.0154232 -3.82332e-20)
(-0.0071548 0.0138797 -5.45942e-21)
(-0.0185211 0.0336198 -5.60902e-21)
(-0.0280517 0.0471788 -1.00588e-19)
(-0.0352719 0.055983 1.42659e-20)
(-0.0402339 0.061089 1.73906e-20)
(-0.0429264 0.0634147 2.82435e-20)
(-0.043358 0.0636986 7.19968e-21)
(-0.0415371 0.0625228 -3.31264e-20)
(-0.0374566 0.0603373 7.36449e-20)
(-0.0310867 0.0574823 -6.91663e-20)
(-0.0223714 0.0542103 -9.79604e-20)
(-0.011228 0.0507047 -1.34416e-21)
(0.00245196 0.0470968 1.3076e-21)
(0.0187986 0.0434794 9.14766e-21)
(0.0379594 0.0399176 4.01172e-20)
(0.0600931 0.0364579 -1.44651e-20)
(0.0853619 0.0331344 -6.13834e-20)
(0.113922 0.0299726 5.24395e-20)
(0.145923 0.0269957 2.16993e-20)
(0.181412 0.0242144 -2.30817e-20)
(0.220769 0.0216856 -3.88316e-20)
(0.262627 0.0192207 -3.47431e-20)
(0.311922 0.0177043 -8.40707e-22)
(-0.00770119 0.0140856 -2.64547e-20)
(-0.0196809 0.0341124 -3.54928e-20)
(-0.0293087 0.04784 5.43487e-20)
(-0.0362033 0.0567024 -1.08028e-19)
(-0.040454 0.0617823 -1.75827e-20)
(-0.0420888 0.0640216 -2.83129e-20)
(-0.0411434 0.0641796 5.42072e-21)
(-0.037641 0.0628558 -1.64849e-20)
(-0.0315773 0.0605141 -1.65379e-19)
(-0.0229152 0.0575064 4.42828e-20)
(-0.0115828 0.054095 9.09348e-20)
(0.00252534 0.0504725 1.30489e-20)
(0.0195443 0.0467793 3.30393e-20)
(0.039633 0.0431174 -1.52947e-20)
(0.0629665 0.0395621 -7.28588e-20)
(0.0897267 0.0361702 -5.29674e-20)
(0.12009 0.0329867 6.32123e-20)
(0.154211 0.0300489 1.13714e-21)
(0.192232 0.0273936 -5.79822e-20)
(0.234103 0.0250261 4.17109e-20)
(0.28035 0.0230945 -4.60286e-20)
(0.328726 0.02111 -1.01617e-20)
(0.386237 0.0208843 -1.46246e-20)
(0.431347 0.0173433 2.73937e-20)
(-0.0082439 0.0142259 2.41916e-20)
(-0.0208198 0.0344192 7.05092e-20)
(-0.0305145 0.0482109 -7.63984e-20)
(-0.03703 0.057046 8.92471e-20)
(-0.0404894 0.0620335 8.49489e-20)
(-0.040957 0.0641384 3.73191e-20)
(-0.0384925 0.064139 -3.82321e-20)
(-0.0331293 0.0626507 4.84127e-20)
(-0.0248618 0.0601499 1.10201e-19)
(-0.0136403 0.0569996 -5.64158e-20)
(0.000627816 0.0534718 1.31491e-20)
(0.0180748 0.0497691 -6.37449e-20)
(0.0388655 0.0460419 -1.06582e-20)
(0.0631878 0.0424031 -7.7777e-20)
(0.0912408 0.0389392 8.22866e-20)
(0.12322 0.0357189 -8.95007e-21)
(0.159301 0.0327995 -1.32657e-20)
(0.19961 0.0302287 -1.22827e-20)
(0.244251 0.0280601 2.32968e-20)
(0.293012 0.0262719 -3.88058e-20)
(0.346563 0.0251692 3.16871e-20)
(0.401601 0.0237603 7.18471e-21)
(0.467311 0.0251607 -7.73669e-21)
(0.516351 0.0217824 -2.97184e-20)
(-0.00878181 0.014307 5.78484e-21)
(-0.0219283 0.0345503 -1.01241e-19)
(-0.0316472 0.048302 1.02079e-20)
(-0.0377143 0.0570233 -7.74109e-20)
(-0.040284 0.061851 -3.90014e-20)
(-0.0394531 0.0637734 3.07674e-20)
(-0.0353009 0.0635865 -1.16324e-20)
(-0.0278666 0.06192 -1.10512e-20)
(-0.0171371 0.0592626 -4.09305e-20)
(-0.00304532 0.0559877 4.10309e-20)
(0.0145274 0.0523779 -1.04839e-19)
(0.0357432 0.0486464 5.29407e-20)
(0.0607972 0.044955 8.57811e-20)
(0.0899022 0.041429 2.5211e-21)
(0.123271 0.0381675 1.96848e-20)
(0.161096 0.0352519 3.11508e-20)
(0.20352 0.0327513 1.18817e-20)
(0.250604 0.0307207 2.94215e-20)
(0.302362 0.029232 -2.18774e-20)
(0.358353 0.0282056 1.05628e-19)
(0.41932 0.0281691 1.16459e-19)
(0.480882 0.0274516 7.71352e-20)
(0.554073 0.0306872 4.4402e-20)
(0.60651 0.027557 7.14198e-20)
(-0.00931404 0.0143347 7.83027e-21)
(-0.0229961 0.0345158 5.42668e-20)
(-0.0326814 0.0481249 1.01847e-19)
(-0.0382125 0.056646 1.95082e-20)
(-0.0397718 0.0612474 6.33307e-20)
(-0.0374848 0.0629408 -9.39999e-20)
(-0.0314453 0.0625393 5.58955e-20)
(-0.0216922 0.0606865 -1.86872e-20)
(-0.00819948 0.0578828 1.41483e-19)
(0.00912346 0.0545126 -9.11783e-20)
(0.0304247 0.0508697 2.37123e-20)
(0.0558977 0.0471794 -4.19096e-20)
(0.0857634 0.0436165 -1.13389e-19)
(0.120249 0.0403196 -7.11333e-20)
(0.159562 0.0374012 -2.91794e-20)
(0.203858 0.0349544 9.97958e-21)
(0.253206 0.0330574 1.12294e-20)
(0.307541 0.0317664 -1.59216e-20)
(0.366719 0.0311688 -2.99323e-20)
(0.430004 0.0310948 -9.54786e-20)
(0.498062 0.0323222 -7.4592e-20)
(0.565642 0.0324494 -5.04324e-20)
(0.644773 0.0375215 -2.72114e-20)
(0.6999 0.034807 6.24111e-20)
(0.809827 0.0455922 -1.0014e-20)
(-0.00983965 0.0143142 5.08497e-20)
(-0.0240113 0.0343253 2.03762e-20)
(-0.0335882 0.0476913 -3.22167e-20)
(-0.0384734 0.0559277 -2.66308e-20)
(-0.0388762 0.0602394 -4.01427e-20)
(-0.0349443 0.0616608 3.69008e-20)
(-0.0267814 0.061023 -1.06821e-21)
(-0.0144195 0.0589838 4.64712e-20)
(0.00218667 0.0560553 -9.10763e-20)
(0.0231557 0.0526338 9.63544e-20)
(0.048667 0.0490254 1.21825e-20)
(0.0789415 0.0454689 1.36487e-21)
(0.114216 0.0421536 6.94547e-20)
(0.154711 0.0392318 4.62373e-20)
(0.200594 0.0368282 1.47302e-20)
(0.251936 0.0350442 2.64666e-20)
(0.308673 0.0339609 -5.81118e-20)
(0.370536 0.0336242 1.29219e-20)
(0.437133 0.0341264 -7.49652e-20)
(0.507393 0.0351892 1.11465e-19)
(0.581673 0.0377876 1.44256e-21)
(0.654292 0.038936 -2.00012e-21)
(0.737032 0.0456007 -2.23389e-20)
(0.793891 0.0435209 -7.49474e-20)
(0.904018 0.0562255 -4.0066e-20)
(-0.0103574 0.0142499 -1.19148e-19)
(-0.0249602 0.0339873 -2.10065e-20)
(-0.0343339 0.0470132 9.81788e-21)
(-0.0384386 0.0548846 2.98579e-20)
(-0.037508 0.058847 2.00045e-20)
(-0.0317077 0.0599593 -1.61875e-20)
(-0.0211439 0.0590722 -9.14449e-21)
(-0.0058357 0.0568575 7.50223e-20)
(0.0142869 0.0538403 -1.7931e-20)
(0.0393733 0.0504296 -1.58567e-20)
(0.0696317 0.0469458 2.86857e-20)
(0.1053 0.0436424 2.20944e-20)
(0.14661 0.0407232 -2.73684e-20)
(0.193741 0.0383533 -9.65463e-20)
(0.24677 0.0366656 1.67089e-20)
(0.305619 0.0357622 -1.97147e-21)
(0.370005 0.0357156 -1.0214e-20)
(0.439374 0.0365461 1.48503e-20)
(0.51298 0.0383259 1.18373e-19)
(0.589404 0.040678 -2.35594e-20)
(0.668457 0.0446278 -4.7627e-20)
(0.744587 0.0469416 -6.35953e-21)
(0.828029 0.0547372 5.39554e-20)
(0.885337 0.0534753 4.50696e-20)
(0.990721 0.0672534 1.17575e-20)
(-0.0108653 0.0141453 4.65723e-20)
(-0.0258263 0.0335087 -5.40813e-20)
(-0.0348796 0.0461027 3.74592e-21)
(-0.0380411 0.0535343 3.16543e-20)
(-0.0355662 0.0570935 5.46611e-20)
(-0.027634 0.0578688 2.55073e-20)
(-0.0143464 0.0567305 -2.8356e-20)
(0.00429656 0.0543658 8.42881e-21)
(0.0283935 0.0513138 5.26851e-20)
(0.0581233 0.0479984 -6.25482e-20)
(0.0937141 0.0447552 1.68218e-20)
(0.135401 0.0418532 -5.56888e-20)
(0.183375 0.0395093 7.76161e-20)
(0.237721 0.037897 4.54664e-20)
(0.298359 0.0371492 -3.04877e-20)
(0.364974 0.0373562 -3.06053e-21)
(0.436971 0.0385637 -3.59586e-20)
(0.51342 0.040747 3.03845e-20)
(0.593136 0.0439202 1.59848e-20)
(0.674359 0.0476431 2.59445e-20)
(0.756209 0.05279 -9.56145e-20)
(0.833781 0.0563056 7.2811e-20)
(0.914793 0.0646276 -1.05139e-19)
(0.970963 0.0642443 5.11777e-20)
(1.06708 0.0780959 2.85294e-20)
(-0.0113607 0.0140022 -5.39626e-20)
(-0.0265896 0.0328947 1.16346e-19)
(-0.0351808 0.0449717 -2.45663e-20)
(-0.0372046 0.0518943 -1.16995e-19)
(-0.0329373 0.0550064 5.00263e-20)
(-0.0225663 0.0554282 -4.85936e-20)
(-0.00618309 0.0540511 -3.94456e-20)
(0.0162362 0.0515795 -4.262e-20)
(0.0448192 0.0485686 4.79368e-20)
(0.0797672 0.0454584 5.98566e-20)
(0.121309 0.0426007 -4.95335e-20)
(0.169644 0.0402785 4.06447e-20)
(0.224869 0.0387177 4.44503e-21)
(0.286906 0.0380917 -1.83699e-20)
(0.355424 0.0385195 5.39046e-20)
(0.429776 0.0400602 -7.94007e-20)
(0.508953 0.0427083 4.59226e-20)
(0.591579 0.046372 -3.22564e-20)
(0.675978 0.0509636 -1.11169e-20)
(0.760096 0.0560252 1.18023e-19)
(0.84238 0.0620965 1.20571e-19)
(0.918925 0.0666875 2.29821e-20)
(0.994554 0.0748709 -5.50694e-20)
(1.04786 0.0752785 -3.14222e-20)
(1.13126 0.0881975 1.41589e-20)
(-0.0118394 0.0138213 6.56984e-20)
(-0.0272268 0.0321496 -1.22818e-19)
(-0.0351856 0.0436304 4.37155e-20)
(-0.0358435 0.0499837 8.92995e-20)
(-0.0294952 0.0526165 -7.23522e-20)
(-0.0163324 0.0526825 5.43444e-20)
(0.00356907 0.0510967 -6.457e-20)
(0.0302589 0.0485826 5.65529e-21)
(0.0638886 0.0457136 -3.1725e-20)
(0.104666 0.0429468 -3.7082e-20)
(0.152789 0.0406494 8.74551e-21)
(0.208369 0.0391143 -7.31947e-20)
(0.271339 0.038568 5.01938e-20)
(0.341364 0.039169 -1.34611e-21)
(0.417761 0.0410018 -1.01704e-20)
(0.499444 0.0440687 -3.76802e-21)
(0.584913 0.0482834 6.3644e-21)
(0.6723 0.0534648 8.93525e-20)
(0.759469 0.0593894 -1.32959e-19)
(0.844149 0.0656145 5.86556e-20)
(0.924333 0.0722512 -1.30646e-19)
(0.997245 0.0776216 -4.56969e-21)
(1.06509 0.0850126 5.44615e-21)
(1.11396 0.086029 3.95748e-20)
(1.18259 0.0971134 2.86668e-20)
(-0.012296 0.0136023 3.12587e-20)
(-0.0277112 0.031276 2.37889e-20)
(-0.0348352 0.0420874 -1.27513e-19)
(-0.0338625 0.0478228 -1.18519e-20)
(-0.0251019 0.0499581 -3.40945e-20)
(-0.00874633 0.0496831 -1.28899e-20)
(0.0151467 0.0479392 1.90096e-19)
(0.0466499 0.0454717 -6.72481e-20)
(0.0859261 0.0428732 -1.29253e-20)
(0.133161 0.0406179 4.05805e-20)
(0.188474 0.0390847 -1.06858e-20)
(0.251818 0.0385687 2.69928e-20)
(0.322869 0.0392817 -1.84828e-20)
(0.400927 0.041346 -1.33744e-21)
(0.484846 0.044784 -3.15237e-20)
(0.573016 0.0495103 1.0332e-20)
(0.6634 0.0553286 2.43828e-20)
(0.753661 0.0619485 -2.64303e-20)
(0.841316 0.0690018 4.22628e-20)
(0.924014 0.0760722 -4.44214e-20)
(0.999652 0.0828709 2.56902e-20)
(1.06652 0.0885934 3.67035e-20)
(1.125 0.0946197 2.98264e-21)
(1.16824 0.0960895 -6.63011e-21)
(1.22138 0.104548 -5.01348e-20)
(-0.012723 0.0133435 -1.19904e-20)
(-0.0280105 0.0302735 3.71169e-20)
(-0.0340646 0.0403513 9.07914e-20)
(-0.0311571 0.0454333 1.8315e-20)
(-0.0196086 0.047069 1.14869e-20)
(0.000388827 0.0464878 -2.12017e-21)
(0.0287947 0.0446603 -8.95513e-20)
(0.0656956 0.0423554 -1.95448e-20)
(0.111242 0.0401856 2.11203e-20)
(0.165553 0.0386396 -1.20837e-20)
(0.228603 0.0381007 1.03977e-19)
(0.300094 0.0388515 -1.0227e-20)
(0.379333 0.0410675 4.79113e-20)
(0.465141 0.0448058 8.07521e-20)
(0.555814 0.049993 -4.37724e-20)
(0.649163 0.0564245 1.69622e-20)
(0.742633 0.0637706 4.06934e-20)
(0.833523 0.071623 -1.36011e-20)
(0.9192 0.0794892 -1.00879e-19)
(0.997439 0.0869776 2.02468e-21)
(1.06643 0.0935387 3.70046e-20)
(1.12536 0.0991107 -3.34296e-20)
(1.17386 0.103388 3.65647e-20)
(1.21068 0.105284 -2.99851e-20)
(1.24864 0.110285 -3.38568e-20)
(-0.0131102 0.0130412 -5.34825e-20)
(-0.0280877 0.0291404 1.93082e-20)
(-0.0328018 0.0384311 -9.47083e-21)
(-0.0276144 0.0428383 -7.30706e-20)
(-0.0128573 0.0439908 5.44196e-20)
(0.0112775 0.0431609 2.00165e-20)
(0.0447603 0.0413506 -5.0274e-20)
(0.0876726 0.0393536 6.4614e-20)
(0.140114 0.0378009 -3.12749e-20)
(0.202076 0.0371894 -5.62084e-20)
(0.273299 0.0378938 -1.55972e-19)
(0.353121 0.0401625 5.83628e-20)
(0.440361 0.0441049 -1.03265e-19)
(0.533252 0.0496768 -3.88416e-21)
(0.629468 0.0566743 -1.1105e-20)
(0.72625 0.0647466 1.38523e-20)
(0.820633 0.0734218 -3.20853e-20)
(0.909737 0.0821826 -1.27723e-20)
(0.991039 0.09046 4.31655e-20)
(1.06269 0.0978915 -4.801e-20)
(1.12348 0.103859 -5.5373e-20)
(1.17334 0.108769 7.84027e-20)
(1.21215 0.11124 -5.10092e-20)
(1.24197 0.113543 -5.57176e-21)
(1.26588 0.113986 -1.21613e-20)
(-0.0134445 0.0126906 -3.11858e-20)
(-0.0279006 0.027875 -3.45586e-20)
(-0.0309679 0.0363356 5.53071e-20)
(-0.0231137 0.0400626 3.78029e-21)
(-0.00468311 0.0407692 -9.72317e-20)
(0.0241276 0.0397732 -1.35413e-19)
(0.0632851 0.0381094 4.18225e-20)
(0.112835 0.036596 -5.12275e-20)
(0.172771 0.0358778 4.7616e-20)
(0.242875 0.0364486 -4.4298e-20)
(0.322539 0.0386538 1.0242e-19)
(0.410616 0.0426778 -1.43301e-20)
(0.505316 0.0485261 4.70029e-20)
(0.604206 0.0560148 6.61141e-20)
(0.704332 0.0647782 -6.99226e-20)
(0.802462 0.0743058 -7.1914e-20)
(0.895405 0.083995 4.78151e-21)
(0.980366 0.0932523 1.50334e-20)
(1.05521 0.101496 -1.46932e-20)
(1.11869 0.10842 6.81241e-20)
(1.17041 0.113499 8.15269e-20)
(1.2109 0.117324 -9.05952e-20)
(1.24096 0.118307 1.25776e-20)
(1.26337 0.120457 2.25932e-20)
(1.27514 0.11527 -3.35555e-20)
(-0.0137112 0.0122882 8.9297e-20)
(-0.0274006 0.0264746 5.63574e-20)
(-0.028477 0.0340739 -8.28986e-20)
(-0.0175277 0.0371335 5.28817e-20)
(0.0050833 0.0374547 3.3034e-20)
(0.0391451 0.0364022 1.55971e-19)
(0.0845968 0.0350443 1.00655e-19)
(0.141401 0.0342204 -4.93054e-22)
(0.209372 0.0345797 -3.56274e-20)
(0.287973 0.0365947 9.68066e-20)
(0.376126 0.0405524 -1.00481e-19)
(0.472065 0.0465345 3.98257e-20)
(0.573296 0.0544006 3.0019e-20)
(0.676696 0.0637903 -9.14254e-20)
(0.778757 0.0741573 6.80549e-21)
(0.875956 0.0848388 1.01581e-19)
(0.965139 0.0951367 1.18837e-20)
(1.04389 0.104436 1.32678e-20)
(1.1107 0.112212 6.1048e-20)
(1.16512 0.118257 -4.0004e-20)
(1.20755 0.122222 -7.3636e-20)
(1.23915 0.124744 5.93049e-20)
(1.26156 0.124634 -1.4314e-19)
(1.27642 0.125276 6.41035e-20)
(1.28519 0.119813 -1.90704e-20)
(-0.0138944 0.0118294 -9.95823e-20)
(-0.0265345 0.024936 -1.00932e-19)
(-0.0252372 0.0316569 2.04843e-20)
(-0.0107241 0.0340816 2.89025e-20)
(0.0166125 0.0341029 -3.61965e-20)
(0.0565287 0.0331329 -1.52796e-19)
(0.108899 0.0322707 -4.14455e-20)
(0.173539 0.0323705 9.95146e-20)
(0.249985 0.0340702 1.40255e-21)
(0.337258 0.0377937 -4.45948e-20)
(0.43367 0.0437317 8.25414e-20)
(0.536724 0.0518178 -1.21966e-20)
(0.643169 0.061723 1.34672e-19)
(0.74924 0.0728847 2.62723e-20)
(0.851047 0.0845773 -3.07911e-20)
(0.945031 0.0960177 -3.81853e-20)
(1.02838 0.10647 5.64823e-21)
(1.09931 0.115367 2.52841e-20)
(1.15715 0.1223 4.8109e-20)
(1.20227 0.127206 6.06765e-21)
(1.23582 0.129921 -6.30283e-21)
(1.25951 0.131157 -2.27787e-20)
(1.27523 0.129971 6.8749e-20)
(1.28473 0.129474 1.01669e-20)
(1.29009 0.123662 5.82227e-20)
(-0.0139746 0.011309 -3.85727e-21)
(-0.025245 0.023258 3.48297e-20)
(-0.0211513 0.0290981 4.8285e-20)
(-0.00256722 0.030942 -7.16569e-20)
(0.0300725 0.0307758 9.74389e-21)
(0.0764632 0.0300571 3.10499e-20)
(0.136362 0.0299108 -2.1091e-20)
(0.209351 0.031193 -9.91548e-21)
(0.29457 0.0345067 1.88666e-20)
(0.390458 0.0401908 -4.54104e-20)
(0.494584 0.0482923 -7.82349e-20)
(0.603637 0.0585488 -3.93486e-20)
(0.713628 0.0704081 -2.80647e-20)
(0.820293 0.0830979 -8.39108e-20)
(0.919607 0.0957401 2.85089e-20)
(1.00829 0.107488 -8.37103e-23)
(1.08414 0.117642 -5.10059e-20)
(1.14624 0.125745 7.7699e-21)
(1.19479 0.131557 2.19664e-20)
(1.23095 0.135177 2.1101e-23)
(1.25647 0.13662 6.34599e-21)
(1.2734 0.136648 5.85683e-20)
(1.28375 0.134526 -6.45447e-20)
(1.28916 0.133109 -7.04295e-20)
(1.29174 0.126986 -1.45241e-20)
(-0.0139303 0.0107223 1.17401e-19)
(-0.0234701 0.0214411 9.92998e-20)
(-0.0161184 0.0264145 -6.86008e-20)
(0.00707937 0.027755 5.07001e-20)
(0.0456251 0.0275421 -3.69832e-20)
(0.0991124 0.0272743 5.24671e-20)
(0.167109 0.0280922 -1.45773e-20)
(0.248859 0.0308339 -3.6394e-20)
(0.342965 0.0360343 -2.42921e-20)
(0.447136 0.0439004 9.71461e-20)
(0.558089 0.0542828 3.93614e-20)
(0.671678 0.066679 3.76479e-20)
(0.78328 0.0802945 -5.28603e-20)
(0.888363 0.0941658 1.0739e-19)
(0.98308 0.107317 -1.03708e-19)
(1.06473 0.118911 -2.19532e-20)
(1.13197 0.128357 1.86961e-20)
(1.1848 0.135364 -3.66737e-20)
(1.22429 0.139887 -1.23855e-19)
(1.25227 0.14218 3.83066e-20)
(1.27085 0.142412 1.61089e-20)
(1.28225 0.141367 -3.8475e-20)
(1.28844 0.138464 2.8682e-20)
(1.29085 0.136307 3.70652e-21)
(1.2916 0.129972 -2.33008e-20)
(-0.0137376 0.0100658 -1.7127e-19)
(-0.0211441 0.0194888 -3.28595e-20)
(-0.0100344 0.0236281 -5.67414e-21)
(0.0183508 0.0245676 2.31472e-20)
(0.0634207 0.0244786 5.87504e-20)
(0.124612 0.0248912 -5.20439e-20)
(0.201211 0.0269458 -6.70748e-20)
(0.291992 0.0314339 -6.52328e-21)
(0.394871 0.0387778 5.02019e-20)
(0.50669 0.0489972 -1.41371e-19)
(0.623246 0.0616928 -1.47521e-20)
(0.739617 0.0760897 4.20858e-22)
(0.850748 0.0911576 -9.89944e-23)
(0.95214 0.105788 -5.34333e-20)
(1.04045 0.118982 9.26207e-20)
(1.11381 0.129993 3.80109e-20)
(1.17186 0.138401 1.04457e-20)
(1.21554 0.144116 -2.18341e-20)
(1.24664 0.147283 6.50641e-20)
(1.26745 0.148295 -9.0114e-21)
(1.28028 0.147433 2.52856e-20)
(1.28734 0.145474 1.02571e-20)
(1.29039 0.141937 8.80271e-22)
(1.29071 0.139204 2.86457e-21)
(1.2901 0.132694 -8.7886e-21)
(-0.013371 0.00933722 1.43277e-19)
(-0.018198 0.0174082 -6.65985e-20)
(-0.00279401 0.0207663 7.8385e-20)
(0.0313777 0.0214343 -1.87135e-20)
(0.083594 0.0216699 -2.59175e-20)
(0.15306 0.0230211 5.04e-20)
(0.238669 0.0266038 7.12182e-20)
(0.338576 0.0331231 3.59545e-20)
(0.449852 0.0428339 -5.22546e-20)
(0.568367 0.055508 8.99785e-20)
(0.689 0.0704496 -1.75395e-20)
(0.806203 0.086601 -1.51377e-20)
(0.914773 0.102731 2.42881e-20)
(1.01058 0.117658 1.72083e-21)
(1.09108 0.130446 -3.60808e-20)
(1.15542 0.140513 1.32168e-20)
(1.20424 0.14765 -5.27523e-21)
(1.2393 0.151976 4.49731e-20)
(1.26294 0.153809 -2.76029e-20)
(1.2777 0.153643 -8.81912e-21)
(1.28593 0.151833 3.13222e-21)
(1.28967 0.149116 -2.64381e-20)