/*--------------------------------*- C++ -*----------------------------------*\
  =========                 |
  \\      /  F ield         | OpenFOAM: The Open Source CFD Toolbox
   \\    /   O peration     | Website:  https://openfoam.org
    \\  /    A nd           | Version:  7
     \\/     M anipulation  |
\*---------------------------------------------------------------------------*/
FoamFile
{
    version     2.0;
    format      ascii;
    class       volScalarField;
    location    "105";
    object      p;
}
// * * * * * * * * * * * * * * * * * * * * * * * * * * * * * * * * * * * * * //

dimensions      [0 2 -2 0 0 0 0];

internalField   nonuniform List<scalar> 
3700
(
-0.373283
-0.376853
-0.378242
-0.38051
-0.383452
-0.387051
-0.391132
-0.395402
-0.399402
-0.402514
-0.403938
-0.40275
-0.398153
-0.389926
-0.3776
-0.381037
-0.384391
-0.386077
-0.388952
-0.392853
-0.39778
-0.403575
-0.409946
-0.416387
-0.42213
-0.426124
-0.42701
-0.423378
-0.41459
-0.398722
-0.388968
-0.392012
-0.393964
-0.397411
-0.402237
-0.408451
-0.415914
-0.42433
-0.433153
-0.441463
-0.447945
-0.450803
-0.447922
-0.438439
-0.418579
-0.396961
-0.399603
-0.401774
-0.405734
-0.411412
-0.418829
-0.427854
-0.438184
-0.449221
-0.45991
-0.468647
-0.473222
-0.470685
-0.46037
-0.436055
-0.404895
-0.407047
-0.409376
-0.413761
-0.420186
-0.428673
-0.439095
-0.451132
-0.464124
-0.476881
-0.487488
-0.493395
-0.490604
-0.479461
-0.44992
-0.412646
-0.414233
-0.416642
-0.42134
-0.428372
-0.437755
-0.449355
-0.46282
-0.477424
-0.491859
-0.503817
-0.510608
-0.506822
-0.494763
-0.4595
-0.420099
-0.421061
-0.423458
-0.428337
-0.435805
-0.44587
-0.458386
-0.47295
-0.488751
-0.504353
-0.517176
-0.524283
-0.51939
-0.505345
-0.464491
-0.42715
-0.427442
-0.429734
-0.434637
-0.442348
-0.452855
-0.466
-0.481307
-0.497888
-0.514169
-0.527168
-0.534055
-0.527472
-0.511134
-0.465466
-0.433718
-0.433321
-0.435397
-0.440164
-0.447909
-0.458612
-0.472062
-0.487752
-0.504675
-0.521111
-0.533755
-0.539829
-0.531041
-0.512211
-0.462565
-0.439743
-0.438661
-0.440409
-0.444872
-0.452436
-0.463074
-0.476533
-0.492251
-0.509097
-0.525215
-0.536986
-0.541691
-0.530337
-0.508781
-0.45621
-0.445194
-0.443451
-0.444767
-0.448761
-0.455931
-0.466257
-0.479446
-0.494869
-0.51126
-0.526627
-0.537056
-0.539848
-0.525731
-0.501234
-0.446896
-0.450069
-0.447711
-0.448497
-0.451867
-0.458447
-0.468237
-0.480907
-0.495753
-0.511367
-0.525583
-0.534241
-0.534611
-0.517652
-0.490169
-0.435153
-0.4544
-0.451482
-0.451657
-0.454267
-0.460085
-0.469145
-0.481089
-0.495118
-0.509678
-0.52237
-0.528853
-0.526355
-0.50656
-0.476341
-0.421575
-0.458246
-0.454834
-0.45433
-0.45607
-0.460986
-0.469163
-0.480213
-0.493233
-0.506481
-0.517286
-0.521211
-0.515495
-0.492971
-0.460569
-0.406814
-0.461694
-0.457851
-0.456623
-0.457414
-0.461327
-0.468506
-0.478536
-0.490377
-0.502058
-0.510604
-0.511622
-0.502466
-0.477479
-0.443645
-0.391523
-0.464857
-0.460639
-0.458658
-0.458457
-0.461305
-0.467414
-0.476326
-0.486816
-0.49665
-0.502552
-0.500381
-0.487722
-0.460726
-0.426247
-0.376233
-0.467872
-0.463314
-0.460573
-0.459368
-0.461133
-0.46613
-0.473831
-0.482775
-0.490443
-0.493332
-0.487794
-0.471737
-0.443321
-0.4088
-0.361205
-0.470887
-0.466001
-0.462512
-0.460323
-0.461013
-0.464876
-0.471255
-0.478414
-0.483571
-0.483148
-0.4742
-0.45503
-0.425775
-0.391343
-0.346357
-0.47406
-0.46883
-0.464619
-0.461489
-0.461136
-0.463831
-0.468737
-0.473828
-0.47613
-0.472225
-0.459984
-0.438181
-0.408514
-0.373696
-0.331558
-0.477551
-0.471926
-0.467031
-0.463015
-0.461647
-0.463112
-0.466346
-0.469054
-0.468208
-0.460809
-0.445547
-0.421767
-0.391953
-0.356249
-0.317232
-0.481504
-0.475409
-0.469867
-0.465021
-0.462644
-0.462769
-0.464084
-0.464094
-0.459903
-0.449147
-0.43126
-0.406179
-0.376454
-0.340828
-0.304357
-0.48605
-0.47938
-0.473225
-0.467584
-0.464163
-0.462789
-0.461908
-0.458935
-0.451326
-0.437471
-0.417418
-0.39155
-0.362077
-0.328129
-0.294453
-0.491291
-0.48392
-0.477173
-0.470739
-0.466185
-0.463112
-0.459741
-0.453567
-0.442595
-0.425977
-0.404206
-0.377906
-0.349019
-0.316807
-0.285365
-0.4973
-0.489086
-0.481749
-0.474478
-0.468657
-0.463647
-0.457494
-0.447989
-0.433823
-0.414807
-0.391703
-0.365241
-0.337023
-0.30648
-0.277266
-0.504124
-0.494916
-0.486966
-0.478759
-0.4715
-0.464278
-0.455078
-0.442217
-0.425099
-0.40404
-0.379917
-0.35345
-0.325932
-0.296881
-0.269407
-0.511779
-0.501427
-0.49281
-0.483528
-0.474622
-0.464872
-0.452418
-0.436272
-0.416482
-0.393701
-0.368796
-0.342417
-0.315553
-0.287781
-0.261785
-0.520262
-0.508626
-0.499251
-0.488726
-0.477909
-0.465296
-0.449459
-0.430173
-0.408002
-0.38377
-0.358259
-0.332006
-0.305728
-0.279061
-0.254252
-0.52955
-0.516503
-0.506247
-0.494287
-0.481221
-0.465426
-0.446162
-0.42393
-0.399653
-0.374197
-0.348205
-0.322088
-0.296321
-0.270599
-0.246783
-0.5396
-0.52503
-0.513745
-0.500126
-0.484399
-0.465154
-0.442497
-0.417539
-0.391408
-0.364909
-0.338525
-0.312536
-0.287212
-0.262312
-0.239322
-0.550354
-0.534158
-0.521687
-0.506118
-0.487281
-0.46439
-0.438434
-0.410981
-0.383217
-0.355823
-0.329112
-0.303237
-0.2783
-0.254117
-0.23183
-0.561729
-0.543809
-0.529995
-0.51209
-0.489707
-0.463055
-0.433944
-0.404221
-0.375019
-0.346848
-0.31986
-0.294087
-0.269492
-0.245949
-0.224264
-0.573613
-0.553879
-0.538556
-0.517835
-0.491525
-0.461079
-0.428987
-0.397211
-0.36674
-0.337894
-0.310671
-0.284991
-0.260711
-0.237744
-0.216584
-0.585859
-0.564232
-0.547206
-0.523124
-0.492591
-0.458392
-0.423517
-0.389892
-0.358304
-0.328871
-0.301453
-0.275866
-0.251885
-0.229447
-0.208754
-0.598275
-0.574705
-0.555714
-0.527725
-0.49277
-0.454925
-0.417478
-0.3822
-0.34963
-0.319693
-0.29212
-0.266636
-0.242949
-0.221006
-0.20074
-0.610625
-0.585106
-0.563796
-0.531407
-0.491934
-0.450606
-0.410809
-0.374061
-0.340638
-0.310279
-0.282596
-0.257232
-0.233848
-0.212376
-0.192511
-0.622632
-0.595205
-0.571123
-0.533946
-0.489963
-0.445359
-0.403441
-0.365404
-0.331252
-0.300551
-0.272811
-0.247595
-0.224529
-0.203513
-0.184037
-0.633986
-0.604737
-0.577355
-0.53513
-0.486742
-0.439108
-0.395303
-0.356153
-0.321397
-0.290441
-0.262701
-0.237672
-0.214948
-0.194381
-0.175297
-0.644348
-0.613394
-0.582154
-0.534757
-0.482163
-0.431776
-0.386323
-0.346238
-0.311004
-0.279885
-0.25221
-0.227416
-0.205068
-0.184954
-0.166287
-0.653369
-0.620835
-0.58521
-0.532644
-0.476123
-0.423288
-0.376431
-0.33559
-0.300009
-0.268825
-0.24129
-0.216785
-0.194852
-0.175218
-0.157023
-0.660696
-0.626691
-0.586244
-0.528632
-0.468528
-0.413572
-0.36556
-0.324146
-0.288357
-0.257213
-0.229897
-0.205741
-0.184266
-0.165155
-0.147516
-0.665984
-0.630585
-0.585018
-0.522584
-0.459295
-0.40256
-0.35365
-0.311852
-0.275998
-0.245006
-0.217996
-0.194252
-0.173282
-0.154737
-0.137714
-0.668904
-0.632151
-0.58133
-0.514393
-0.44835
-0.390192
-0.340647
-0.298661
-0.262893
-0.232171
-0.205555
-0.182293
-0.161882
-0.143934
-0.127485
-0.66915
-0.631057
-0.575003
-0.503972
-0.435636
-0.376422
-0.326508
-0.284534
-0.249006
-0.218678
-0.192549
-0.169845
-0.150069
-0.132754
-0.116692
-0.666447
-0.62702
-0.565885
-0.491258
-0.421108
-0.36121
-0.311199
-0.269437
-0.234309
-0.204502
-0.178961
-0.156893
-0.137852
-0.12121
-0.105389
-0.660557
-0.619803
-0.553863
-0.476206
-0.404738
-0.344531
-0.294694
-0.253344
-0.218781
-0.189628
-0.1648
-0.143446
-0.125234
-0.10917
-0.0939609
-0.651279
-0.609224
-0.538866
-0.458796
-0.386513
-0.326362
-0.276962
-0.236245
-0.202433
-0.174065
-0.150092
-0.129569
-0.112154
-0.0966941
-0.0823232
-0.638454
-0.595155
-0.520858
-0.439028
-0.366429
-0.306681
-0.257985
-0.218174
-0.185307
-0.157875
-0.134793
-0.115214
-0.0986399
-0.0838569
-0.0704121
-0.621965
-0.577522
-0.499839
-0.416918
-0.344484
-0.2855
-0.237808
-0.199212
-0.167385
-0.141012
-0.118945
-0.100387
-0.0847186
-0.0706907
-0.0582164
-0.601742
-0.556306
-0.475846
-0.392497
-0.320682
-0.262908
-0.216611
-0.179235
-0.148676
-0.123501
-0.102572
-0.0851111
-0.0704176
-0.057213
-0.0457526
-0.577762
-0.531537
-0.448955
-0.365835
-0.29509
-0.239055
-0.194252
-0.158338
-0.129214
-0.105378
-0.0857018
-0.06942
-0.0557662
-0.0434441
-0.0330459
-0.550044
-0.503288
-0.419292
-0.337042
-0.267959
-0.21377
-0.170802
-0.136577
-0.109047
-0.0866842
-0.0683712
-0.0533501
-0.0407982
-0.0294141
-0.0201293
-0.51866
-0.471702
-0.38699
-0.306199
-0.239251
-0.187209
-0.146331
-0.114011
-0.0882303
-0.0674679
-0.0506227
-0.0369419
-0.0255521
-0.0151639
-0.0070482
-0.483742
-0.437041
-0.352049
-0.273399
-0.20905
-0.15948
-0.120926
-0.090706
-0.066825
-0.0477838
-0.0325053
-0.0202404
-0.0100708
-0.000741964
0.00614434
-0.445479
-0.399673
-0.314266
-0.238861
-0.177498
-0.130696
-0.0946826
-0.0667407
-0.0448996
-0.0276931
-0.0140742
-0.00329468
0.00560113
0.0138046
0.0194097
-0.404067
-0.359716
-0.274143
-0.202598
-0.144736
-0.10098
-0.0677032
-0.042201
-0.0225295
-0.0072636
0.00460878
0.0138417
0.0214205
0.0284386
0.0327278
-0.359674
-0.316168
-0.233138
-0.164981
-0.110913
-0.070459
-0.0401002
-0.0171816
0.000203708
0.0134314
0.0234775
0.0311136
0.0373436
0.0431084
0.0460053
-0.312589
-0.270168
-0.190722
-0.126253
-0.0761975
-0.0392696
-0.0119919
0.00821647
0.0232125
0.0343151
0.0424679
0.0484728
0.0533129
0.0576663
0.0589178
-0.263045
-0.222264
-0.146956
-0.0866186
-0.0407759
-0.00755742
0.0164966
0.0338857
0.0464043
0.0553101
0.0615256
0.0658856
0.0692481
0.0718243
0.0709786
-0.211409
-0.172875
-0.102063
-0.046272
-0.00483549
0.0245224
0.0452337
0.0597127
0.069682
0.0763388
0.0806011
0.0833177
0.0850605
0.085375
0.0821249
-0.158122
-0.122302
-0.0563262
-0.00542693
0.031432
0.0568075
0.074082
0.0855795
0.0929445
0.0973206
0.0996304
0.100687
0.100652
0.0985446
0.0935868
-0.103591
-0.0708755
-0.0100494
0.0356868
0.0678296
0.08913
0.102899
0.111364
0.116089
0.11817
0.118523
0.117848
0.115881
0.111594
0.108404
-0.0482326
-0.01895
0.0364575
0.0768281
0.104155
0.121318
0.131538
0.136942
0.139012
0.138798
0.137177
0.134676
0.130793
0.125102
0.122775
0.00752549
0.0331098
0.0828828
0.117749
0.140202
0.153197
0.159852
0.162187
0.161607
0.159109
0.155504
0.151163
0.145553
0.13882
0.1362
0.0632518
0.0849334
0.128915
0.158199
0.175762
0.184591
0.18769
0.186972
0.183763
0.179001
0.173415
0.167262
0.160088
0.152412
0.14899
0.118518
0.136146
0.174246
0.197927
0.210626
0.215323
0.214903
0.211171
0.205372
0.198378
0.190837
0.18293
0.174297
0.16564
0.161181
0.172903
0.18637
0.218571
0.236684
0.244586
0.245219
0.241343
0.234657
0.226323
0.217146
0.207695
0.198102
0.188084
0.178417
0.172825
0.225991
0.235236
0.261588
0.274226
0.27744
0.274107
0.266865
0.257305
0.246511
0.235213
0.223912
0.212702
0.201359
0.190669
0.183909
0.277371
0.28239
0.303008
0.310316
0.308987
0.30182
0.291328
0.278996
0.26583
0.252491
0.239413
0.226661
0.21405
0.202348
0.19441
0.326647
0.327491
0.342553
0.344724
0.339038
0.328196
0.314593
0.299613
0.284181
0.268894
0.254123
0.239909
0.226094
0.213404
0.204299
0.373439
0.370217
0.379954
0.377232
0.367408
0.353082
0.336531
0.319043
0.301469
0.284339
0.267971
0.252381
0.237433
0.223793
0.213547
0.417388
0.410263
0.414963
0.407634
0.393926
0.376331
0.357018
0.337183
0.317604
0.298751
0.280891
0.264018
0.248015
0.233472
0.222124
0.458159
0.447346
0.447346
0.435736
0.418429
0.397808
0.375939
0.353933
0.332501
0.312057
0.292818
0.274765
0.257791
0.242403
0.230004
0.495441
0.481204
0.476888
0.461362
0.440768
0.417387
0.393188
0.369203
0.346083
0.324189
0.303697
0.284572
0.266717
0.250549
0.237164
0.528955
0.511602
0.503395
0.484351
0.46081
0.434954
0.408668
0.382911
0.358281
0.335089
0.313474
0.293392
0.274752
0.257877
0.243585
0.55845
0.538331
0.526695
0.504559
0.478433
0.450408
0.422293
0.394984
0.36903
0.344701
0.322104
0.301185
0.28186
0.264358
0.249249
0.583709
0.561208
0.546637
0.521863
0.493534
0.463662
0.433989
0.405358
0.378278
0.352981
0.329546
0.307916
0.288009
0.269968
0.254144
0.60455
0.58008
0.563095
0.536159
0.506025
0.47464
0.443692
0.413981
0.385978
0.359888
0.335767
0.313555
0.293172
0.274684
0.25826
0.620826
0.594826
0.575969
0.547361
0.515835
0.483284
0.451353
0.420808
0.392094
0.365392
0.34074
0.318078
0.297328
0.27849
0.261588
0.632425
0.605352
0.585182
0.555407
0.522911
0.489548
0.456933
0.425808
0.396598
0.369467
0.344445
0.321467
0.300458
0.281373
0.264126
0.639277
0.611599
0.590686
0.560256
0.527219
0.493404
0.460408
0.428959
0.399471
0.3721
0.346867
0.323709
0.302553
0.283324
0.265871
-0.36391
-0.350157
-0.342189
-0.379347
-0.35689
-0.339178
-0.393818
-0.362765
-0.335351
-0.406233
-0.367091
-0.330439
-0.415715
-0.369181
-0.324241
-0.42172
-0.368546
-0.316731
-0.268573
-0.42338
-0.365693
-0.307811
-0.253081
-0.421232
-0.360436
-0.298451
-0.239428
-0.415482
-0.35355
-0.289276
-0.227232
-0.406835
-0.34552
-0.280877
-0.217278
-0.396013
-0.336729
-0.273506
-0.209941
-0.383741
-0.327534
-0.267201
-0.205105
-0.146121
-0.370682
-0.318267
-0.261849
-0.202398
-0.144792
-0.357432
-0.309239
-0.257279
-0.20129
-0.146011
-0.344532
-0.300734
-0.253338
-0.201258
-0.148942
-0.332445
-0.292996
-0.249928
-0.201896
-0.152932
-0.105267
-0.321508
-0.28622
-0.24701
-0.202918
-0.15746
-0.112494
-0.311816
-0.280444
-0.244467
-0.203989
-0.161959
-0.11981
-0.303651
-0.276103
-0.242848
-0.205586
-0.166719
-0.127365
-0.297027
-0.272703
-0.241659
-0.207498
-0.172045
-0.135618
-0.0988935
-0.27805
-0.261299
-0.229811
-0.196183
-0.162794
-0.129237
-0.095429
-0.243478
-0.231631
-0.2042
-0.174436
-0.14571
-0.117375
-0.0887516
-0.21671
-0.207745
-0.185009
-0.159241
-0.134175
-0.109628
-0.0849435
-0.193967
-0.186847
-0.167861
-0.145614
-0.123758
-0.102455
-0.0811567
-0.174268
-0.168529
-0.1526
-0.133522
-0.114597
-0.0961539
-0.0777672
-0.157239
-0.152513
-0.139121
-0.122833
-0.106517
-0.0905668
-0.0746684
-0.142353
-0.138468
-0.127208
-0.113323
-0.0992819
-0.0854886
-0.0717197
-0.129289
-0.126117
-0.11664
-0.104805
-0.0927292
-0.0808041
-0.0688701
-0.117795
-0.11521
-0.107229
-0.0971418
-0.0867621
-0.0764552
-0.0661059
-0.107702
-0.105556
-0.0988268
-0.0902295
-0.0813097
-0.0724011
-0.0634185
-0.0987061
-0.0969748
-0.0913057
-0.0839796
-0.0763158
-0.068612
-0.0608073
-0.0907245
-0.0893433
-0.0845678
-0.0783228
-0.0717353
-0.0650695
-0.0582817
-0.0836257
-0.0825302
-0.0785239
-0.0732025
-0.067535
-0.0617614
-0.0558487
-0.0773027
-0.0764428
-0.0730853
-0.0685586
-0.0636847
-0.0586778
-0.0535173
-0.071667
-0.0710023
-0.0681946
-0.0643476
-0.0601565
-0.0558107
-0.0512988
-0.0666435
-0.0661405
-0.063799
-0.0605332
-0.0569287
-0.0531521
-0.0491996
-0.062168
-0.0617987
-0.0598529
-0.057084
-0.0539834
-0.0506966
-0.047226
-0.0581861
-0.0579273
-0.0563173
-0.0539732
-0.0513047
-0.048439
-0.0453833
-0.0546515
-0.0544837
-0.0531585
-0.0511771
-0.0488791
-0.0463748
-0.0436756
-0.0515249
-0.0514318
-0.0503476
-0.0486755
-0.0466942
-0.0444995
-0.0421061
-0.0487726
-0.0487406
-0.0478599
-0.0464507
-0.0447395
-0.042809
-0.040677
-0.0463659
-0.0463837
-0.0456742
-0.0444874
-0.0430054
-0.0412995
-0.0393899
-0.0442806
-0.0443387
-0.0437722
-0.0427725
-0.0414838
-0.0399674
-0.0382456
-0.0424963
-0.0425866
-0.0421386
-0.0412948
-0.0401674
-0.0388094
-0.0372446
-0.0409959
-0.0411118
-0.0407606
-0.0400448
-0.0390501
-0.0378225
-0.0363871
-0.0397652
-0.0399012
-0.0396275
-0.0390145
-0.0381267
-0.0370041
-0.035673
-0.0387928
-0.0389442
-0.0387306
-0.0381977
-0.0373929
-0.036352
-0.035102
-0.0380704
-0.0382329
-0.0380635
-0.0375893
-0.0368455
-0.0358645
-0.0346741
-0.0375914
-0.0377615
-0.0376214
-0.0371858
-0.0364821
-0.0355404
-0.034389
-0.037349
-0.0375249
-0.0374
-0.0369839
-0.0363003
-0.0353782
-0.0342463
-0.266282
-0.232889
-0.20833
-0.187299
-0.168484
-0.152343
-0.13824
-0.125758
-0.114772
-0.105077
-0.0964369
-0.0887483
-0.0819025
-0.0757956
-0.0703443
-0.0654799
-0.061142
-0.057279
-0.0538471
-0.0508092
-0.0481332
-0.0457919
-0.0437623
-0.0420248
-0.040563
-0.0393635
-0.0384154
-0.0377106
-0.037243
-0.037003
-0.258565
-0.226142
-0.202614
-0.182904
-0.16473
-0.149076
-0.135517
-0.123434
-0.112752
-0.10333
-0.0949297
-0.0874356
-0.0807563
-0.0747928
-0.0694629
-0.0647014
-0.0604517
-0.056664
-0.0532963
-0.0503129
-0.0476833
-0.0453811
-0.0433842
-0.0416737
-0.0402339
-0.0390518
-0.0381167
-0.0374211
-0.0369582
-0.0367188
-0.253039
-0.221691
-0.198437
-0.179681
-0.16209
-0.146663
-0.133456
-0.121693
-0.111211
-0.101963
-0.093733
-0.0863745
-0.0798066
-0.0739411
-0.0686952
-0.0640049
-0.0598162
-0.0560811
-0.0527585
-0.0498138
-0.0472171
-0.0449428
-0.0429693
-0.0412782
-0.0398541
-0.0386842
-0.0377582
-0.0370686
-0.0366083
-0.0363688
-0.247565
-0.217569
-0.194422
-0.17634
-0.159473
-0.1443
-0.13135
-0.119913
-0.109649
-0.100558
-0.0924863
-0.0852646
-0.0788055
-0.0730339
-0.0678702
-0.0632499
-0.0591208
-0.0554371
-0.0521588
-0.0492519
-0.0466875
-0.0444406
-0.0424901
-0.040818
-0.0394092
-0.0382513
-0.0373341
-0.0366503
-0.0361925
-0.0359529
-0.241853
-0.213542
-0.190649
-0.17293
-0.15678
-0.141959
-0.129197
-0.118043
-0.108019
-0.0990863
-0.0911596
-0.0840737
-0.0777256
-0.0720467
-0.0669648
-0.0624153
-0.0583469
-0.0547156
-0.0514826
-0.0486148
-0.0460838
-0.0438654
-0.0419388
-0.0402866
-0.038894
-0.0377488
-0.036841
-0.0361634
-0.0357084
-0.0354691
-0.235942
-0.20921
-0.186799
-0.169298
-0.153781
-0.139439
-0.126898
-0.115992
-0.106229
-0.0974804
-0.089702
-0.0827566
-0.0765294
-0.0709508
-0.0659558
-0.0614824
-0.0574795
-0.0539047
-0.0507205
-0.0478948
-0.0454
-0.0432124
-0.0413119
-0.0396813
-0.0383064
-0.037175
-0.0362776
-0.0356069
-0.0351553
-0.034917
-0.229803
-0.204586
-0.182895
-0.165618
-0.150587
-0.136761
-0.124497
-0.11381
-0.104296
-0.0957523
-0.0881293
-0.0813241
-0.0752228
-0.0697502
-0.0648461
-0.0604524
-0.0565188
-0.0530038
-0.0498716
-0.0470908
-0.0446346
-0.0424801
-0.0406076
-0.0390004
-0.0376446
-0.0365284
-0.0356423
-0.0349795
-0.034532
-0.0342952
-0.22351
-0.199656
-0.17877
-0.161807
-0.147172
-0.133851
-0.12193
-0.111476
-0.102202
-0.0938773
-0.0864253
-0.0797659
-0.0737961
-0.068437
-0.0636299
-0.0593207
-0.0554609
-0.0520099
-0.0489332
-0.0462005
-0.0437858
-0.0416669
-0.0398245
-0.0382426
-0.0369076
-0.0358079
-0.0349345
-0.0342804
-0.033838
-0.0336034
-0.217045
-0.194451
-0.174427
-0.157879
-0.143612
-0.130753
-0.119206
-0.109009
-0.0999676
-0.0918641
-0.0845953
-0.0780882
-0.0722536
-0.0670134
-0.0623086
-0.0580882
-0.0543061
-0.0509229
-0.0479051
-0.0452235
-0.0428529
-0.0407719
-0.0389619
-0.0374071
-0.0360945
-0.0350128
-0.0341532
-0.033509
-0.0330724
-0.0328409
-0.210428
-0.188993
-0.169831
-0.153769
-0.139883
-0.127456
-0.116299
-0.106388
-0.0975863
-0.0897065
-0.0826315
-0.0762861
-0.0705924
-0.0654766
-0.0608798
-0.0567532
-0.053053
-0.0497415
-0.046786
-0.0441586
-0.041835
-0.0397944
-0.0380188
-0.0364932
-0.0352046
-0.0341424
-0.0332979
-0.0326646
-0.0322349
-0.0320073
-0.203642
-0.183293
-0.164993
-0.149474
-0.136
-0.12399
-0.113221
-0.103617
-0.0950654
-0.0874115
-0.0805365
-0.0743613
-0.0688144
-0.0638277
-0.059344
-0.0553158
-0.0517017
-0.0484655
-0.0455757
-0.0430055
-0.0407316
-0.0387338
-0.036995
-0.0355004
-0.0342377
-0.0331964
-0.0323684
-0.0317471
-0.0313252
-0.0311024
-0.196681
-0.177363
-0.159913
-0.144973
-0.131943
-0.12035
-0.109967
-0.100686
-0.0923995
-0.0849775
-0.0783087
-0.0723115
-0.0669182
-0.0620661
-0.0577005
-0.0537755
-0.0502517
-0.0470945
-0.0442739
-0.0417641
-0.0395426
-0.0375901
-0.0358902
-0.0344285
-0.0331934
-0.0321746
-0.0313643
-0.0307563
-0.0303432
-0.0301262
-0.189532
-0.171207
-0.154598
-0.140266
-0.127711
-0.116544
-0.106547
-0.0975988
-0.0895895
-0.0824073
-0.0759501
-0.0701377
-0.0649046
-0.0601925
-0.0559498
-0.0521327
-0.0487033
-0.0456289
-0.0428808
-0.0404343
-0.0382679
-0.0363633
-0.0347044
-0.0332777
-0.0320718
-0.0310771
-0.030286
-0.0296924
-0.0292892
-0.0290788
-0.182183
-0.164829
-0.149054
-0.13535
-0.123296
-0.112567
-0.102961
-0.094353
-0.0866331
-0.0796998
-0.073461
-0.0678399
-0.0627735
-0.0582071
-0.0540923
-0.0503875
-0.0470568
-0.0440689
-0.0413967
-0.0390166
-0.0369081
-0.0350537
-0.0334381
-0.0320483
-0.0308735
-0.0299044
-0.0291337
-0.0285557
-0.0281636
-0.0279607
-0.174621
-0.15823
-0.143284
-0.130226
-0.118695
-0.10842
-0.0992127
-0.0909525
-0.0835316
-0.0768563
-0.0708428
-0.0654193
-0.0605258
-0.0561107
-0.0521289
-0.0485409
-0.0453129
-0.0424153
-0.0398223
-0.0375117
-0.0354638
-0.0336621
-0.0320919
-0.030741
-0.0295989
-0.028657
-0.0279081
-0.0273469
-0.0269669
-0.0267724
-0.166835
-0.151409
-0.137294
-0.124897
-0.113907
-0.104102
-0.0953024
-0.0873985
-0.0802857
-0.0738773
-0.0680966
-0.0628772
-0.0581626
-0.0539045
-0.0500606
-0.046594
-0.0434729
-0.0406692
-0.0381589
-0.0359206
-0.0339361
-0.0321894
-0.0306668
-0.0293567
-0.0282492
-0.0273358
-0.0266102
-0.0260669
-0.0257
-0.025515
-0.158812
-0.144364
-0.131089
-0.119368
-0.108935
-0.0996136
-0.0912326
-0.0836936
-0.0768974
-0.0707642
-0.0652238
-0.060215
-0.0556855
-0.0515899
-0.0478889
-0.0445483
-0.0415381
-0.0388321
-0.0364076
-0.0342447
-0.0323262
-0.030637
-0.0291642
-0.0278968
-0.0268254
-0.0259422
-0.025241
-0.0247167
-0.024364
-0.0241891
-0.150557
-0.137091
-0.124669
-0.113643
-0.103781
-0.0949542
-0.0870019
-0.0798372
-0.0733665
-0.0675171
-0.0622249
-0.0574338
-0.0530955
-0.0491681
-0.0456153
-0.0424051
-0.0395099
-0.0369053
-0.0345701
-0.0324856
-0.0306357
-0.0290063
-0.0275854
-0.0263626
-0.025329
-0.0244774
-0.0238018
-0.0232978
-0.0229601
-0.0227957
-0.142089
-0.129582
-0.118026
-0.107716
-0.0984414
-0.0901168
-0.0826045
-0.0758254
-0.0696908
-0.0641353
-0.0590999
-0.054534
-0.0503936
-0.0466404
-0.0432409
-0.040166
-0.0373901
-0.0348906
-0.0326479
-0.0306449
-0.0288663
-0.0272992
-0.0259323
-0.0247558
-0.0237617
-0.0229431
-0.0222944
-0.0218117
-0.0214899
-0.0213359
-0.133418
-0.121826
-0.111138
-0.10157
-0.0929037
-0.085089
-0.0780316
-0.0716543
-0.0658688
-0.060618
-0.0558489
-0.0515164
-0.047581
-0.0440082
-0.0407676
-0.0378329
-0.0351806
-0.0327902
-0.0306436
-0.0287249
-0.0270204
-0.0255179
-0.0242071
-0.0230789
-0.0221258
-0.0213415
-0.020721
-0.0202605
-0.0199555
-0.0198119
-0.124487
-0.113829
-0.103976
-0.0951858
-0.0871479
-0.0798734
-0.0732884
-0.0673297
-0.0619059
-0.0569702
-0.0524765
-0.0483853
-0.0446619
-0.0412756
-0.0381995
-0.0354098
-0.0328854
-0.0306078
-0.0285605
-0.0267293
-0.0251014
-0.0236658
-0.022413
-0.0213348
-0.0204243
-0.0196756
-0.0190844
-0.0186473
-0.0183585
-0.0182289
-0.115186
-0.1056
-0.096533
-0.0885758
-0.0811713
-0.0745092
-0.0684049
-0.0628734
-0.0578186
-0.0532051
-0.0489937
-0.0451501
-0.0416445
-0.03845
-0.0355431
-0.0329026
-0.0305099
-0.0283484
-0.0264036
-0.0246623
-0.0231134
-0.0217468
-0.0205539
-0.0195272
-0.0186606
-0.0179487
-0.0173876
-0.0169751
-0.0167012
-0.0165909
-0.105473
-0.0971792
-0.0888538
-0.0817752
-0.0750076
-0.0690242
-0.0634007
-0.0582977
-0.0536168
-0.0493312
-0.0454075
-0.041817
-0.0385342
-0.0355362
-0.0328026
-0.0303152
-0.0280577
-0.0260155
-0.0241758
-0.0225271
-0.0210593
-0.0197635
-0.018632
-0.0176583
-0.0168367
-0.0161624
-0.0156324
-0.0152435
-0.0149888
-0.0148918
-0.0954732
-0.0885565
-0.0810475
-0.0748028
-0.0687202
-0.0633225
-0.0582304
-0.0535708
-0.0492799
-0.0453343
-0.0417085
-0.0383797
-0.0353271
-0.032532
-0.0299774
-0.0276479
-0.0255298
-0.0236106
-0.0218792
-0.0203258
-0.0189415
-0.0177186
-0.0166503
-0.015731
-0.0149555
-0.01432
-0.0138216
-0.0134569
-0.0132221
-0.013137
-0.0852129
-0.0795947
-0.0730396
-0.0676162
-0.0622603
-0.0574451
-0.0529006
-0.0487019
-0.0448134
-0.0412191
-0.0379009
-0.0348422
-0.0320273
-0.0294415
-0.0270714
-0.0249047
-0.0229302
-0.0211377
-0.0195178
-0.0180624
-0.0167639
-0.0156159
-0.0146125
-0.0137489
-0.0130208
-0.0124248
-0.0119585
-0.0116188
-0.0114035
-0.0113304
-0.0747337
-0.0703575
-0.0648086
-0.0602319
-0.0556159
-0.0514123
-0.0474202
-0.0436967
-0.0402224
-0.0369903
-0.0339895
-0.0312095
-0.0286396
-0.0262696
-0.0240896
-0.0220906
-0.0202638
-0.0186014
-0.0170961
-0.0157412
-0.0145308
-0.0134595
-0.0125226
-0.011716
-0.0110362
-0.0104805
-0.0100468
-0.00973243
-0.00953656
-0.00947516
-0.0640403
-0.0608955
-0.0563613
-0.0526602
-0.0487932
-0.0452258
-0.0417951
-0.0385605
-0.035513
-0.0326544
-0.029981
-0.0274881
-0.0251706
-0.0230225
-0.0210379
-0.0192109
-0.0175358
-0.0160068
-0.0146189
-0.013367
-0.0122467
-0.0112539
-0.0103848
-0.00963636
-0.00900579
-0.00849095
-0.00809031
-0.00780142
-0.00762464
-0.00757458
-0.0531333
-0.051233
-0.0477103
-0.0449034
-0.0417981
-0.0388879
-0.0360343
-0.0333034
-0.0306963
-0.0282223
-0.0258853
-0.0236872
-0.0216282
-0.0197073
-0.0179227
-0.0162717
-0.0147516
-0.0133591
-0.0120912
-0.0109445
-0.00991624
-0.00900343
-0.00820353
-0.00751425
-0.00693364
-0.00646019
-0.00609281
-0.00582946
-0.00567148
-0.00563206
-0.042013
-0.0413752
-0.038865
-0.0369671
-0.0346466
-0.0324164
-0.0301589
-0.0279459
-0.0257896
-0.0237082
-0.0217139
-0.0198158
-0.0180201
-0.0163307
-0.0147498
-0.0132784
-0.0119164
-0.0106633
-0.00951778
-0.00847855
-0.00754407
-0.0067128
-0.00598326
-0.00535407
-0.00482406
-0.00439237
-0.00405837
-0.00382044
-0.00368087
-0.00365111
-0.030683
-0.0313261
-0.0298483
-0.0288814
-0.0273762
-0.0258448
-0.0241953
-0.0225062
-0.0208045
-0.0191191
-0.0174712
-0.0158772
-0.0143491
-0.0128955
-0.0115226
-0.0102347
-0.00903446
-0.0079237
-0.00690333
-0.00597373
-0.00513491
-0.00438664
-0.00372858
-0.0031603
-0.00268142
-0.00229175
-0.00199111
-0.00177833
-0.00165664
-0.00163537
-0.0191596
-0.0211126
-0.0207108
-0.020692
-0.0200165
-0.0191828
-0.0181377
-0.0169705
-0.0157252
-0.0144406
-0.013146
-0.0118638
-0.0106109
-0.00940035
-0.00824186
-0.00714288
-0.00610901
-0.00514443
-0.00425223
-0.00343467
-0.0026934
-0.00202957
-0.00144403
-0.000937372
-0.000510042
-0.00016253
0.000104905
0.00029288
0.000397385
0.000411544
-0.00748509
-0.0107769
-0.0114792
-0.012381
-0.0125136
-0.0123611
-0.0119187
-0.0112834
-0.0105105
-0.00964506
-0.00872144
-0.00776675
-0.00680247
-0.00584574
-0.00491028
-0.00400704
-0.00314476
-0.00233039
-0.00156944
-0.000866266
-0.000224286
0.00035381
0.000865911
0.00131037
0.00168585
0.00199118
0.00222564
0.00238927
0.0024774
0.00248593
0.00430526
-0.000287021
-0.00205462
-0.00381
-0.0047362
-0.00528319
-0.00548063
-0.00541888
-0.0051563
-0.00474096
-0.00421224
-0.00360291
-0.00294021
-0.00224668
-0.00154092
-0.000838203
-0.000150989
0.000510596
0.00113835
0.00172564
0.00226716
0.00275863
0.00319664
0.00357848
0.00390192
0.00416513
0.00436692
0.0045067
0.00457935
0.00458379
0.0162576
0.010503
0.00770275
0.0050814
0.00328703
0.00195791
0.00105398
0.000496533
0.000221958
0.000173489
0.000301912
0.000565201
0.000928013
0.00136089
0.00183947
0.00234376
0.00285743
0.00336716
0.00386213
0.0043336
0.00477448
0.00517905
0.00554271
0.00586173
0.0061331
0.00635435
0.00652384
0.00664033
0.00669855
0.00670042
0.028426
0.0215703
0.0175641
0.0139113
0.011132
0.0089685
0.0073563
0.00620496
0.00542987
0.00495566
0.00471839
0.00466479
0.00475094
0.00494082
0.00520514
0.00552004
0.00586616
0.0062278
0.0065922
0.00694902
0.00728982
0.00760774
0.00789718
0.00815354
0.00837308
0.00855278
0.00869057
0.00878452
0.00882962
0.00883057
0.0405487
0.0324009
0.0268764
0.0221017
0.0183892
0.0154988
0.0132961
0.0116533
0.0104589
0.00961962
0.00906026
0.00871987
0.00854923
0.00850865
0.00856607
0.0086955
0.00887582
0.00908986
0.0093236
0.00956553
0.0098061
0.0100374
0.0102529
0.0104471
0.0106155
0.0107546
0.0108616
0.0109342
0.010968
0.0109699
0.0520951
0.0426467
0.0357555
0.0301158
0.025707
0.0222392
0.0195182
0.0173997
0.0157685
0.0145303
0.0136086
0.0129407
0.0124758
0.0121722
0.0119958
0.0119181
0.0119161
0.0119703
0.0120649
0.0121863
0.0123233
0.0124663
0.0126074
0.0127398
0.0128581
0.0129579
0.0130357
0.0130885
0.013113
0.0131174
0.0633552
0.0537062
0.0461719
0.0399453
0.0348502
0.0306494
0.027183
0.0243452
0.0220468
0.0202056
0.0187477
0.0176089
0.0167345
0.0160775
0.0155976
0.0152608
0.0150382
0.0149056
0.0148422
0.0148305
0.0148558
0.0149057
0.0149698
0.0150395
0.0151077
0.0151689
0.0152185
0.0152529
0.0152696
0.0152767
0.0756193
0.0672282
0.0593333
0.0522502
0.0460714
0.0407425
0.0361904
0.0323527
0.0291591
0.0265309
0.0243902
0.0226648
0.0212901
0.020209
0.0193716
0.0187348
0.0182611
0.0179187
0.0176802
0.0175226
0.0174266
0.0173761
0.0173579
0.0173609
0.0173764
0.0173971
0.0174175
0.0174331
0.0174416
0.0174488
0.0868991
0.0789631
0.0703933
0.0623267
0.055153
0.0489248
0.0435853
0.0390547
0.0352477
0.0320771
0.0294581
0.0273122
0.0255687
0.0241647
0.023045
0.0221619
0.0214737
0.0209445
0.0205438
0.0202459
0.0200292
0.0198757
0.0197706
0.0197015
0.0196585
0.0196336
0.0196206
0.0196146
0.0196126
0.0196168
0.105151
0.0944522
0.084568
0.0754502
0.0674668
0.0606437
0.054844
0.0499021
0.0456917
0.0421142
0.0390848
0.0365283
0.0343781
0.032576
0.031071
0.0298189
0.0287813
0.0279249
0.0272212
0.0266457
0.0261775
0.025799
0.0254954
0.0252543
0.0250654
0.0249204
0.0248127
0.0247372
0.0246902
0.0246684
0.123793
0.110405
0.0998581
0.0907686
0.0827788
0.0757752
0.0696658
0.0643443
0.0597094
0.0556756
0.0521706
0.0491304
0.046498
0.0442225
0.0422589
0.0405676
0.039114
0.0378674
0.0368015
0.0358931
0.0351223
0.0344719
0.0339272
0.0334758
0.0331073
0.032813
0.0325861
0.0324212
0.0323143
0.0322627
0.130642
0.120174
0.110772
0.102305
0.0946735
0.0878249
0.0817131
0.0762811
0.0714638
0.0671968
0.0634216
0.0600858
0.0571425
0.0545493
0.0522684
0.0502658
0.0485113
0.0469781
0.0456423
0.0444829
0.0434814
0.0426219
0.0418903
0.0412748
0.0407651
0.0403529
0.0400313
0.0397949
0.0396395
0.039562
0.134275
0.125236
0.116881
0.109236
0.102285
0.0959709
0.0902422
0.0850567
0.0803746
0.0761564
0.0723638
0.0689607
0.0659132
0.0631898
0.060761
0.0586001
0.0566822
0.0549853
0.053489
0.0521754
0.0510284
0.0500339
0.0491795
0.0484543
0.0478493
0.0473567
0.0469701
0.0466846
0.0464965
0.0464036
0.134203
0.127099
0.12027
0.113795
0.107722
0.102068
0.0968316
0.0920063
0.0875789
0.0835312
0.0798421
0.0764888
0.0734485
0.070699
0.0682187
0.0659876
0.0639867
0.0621986
0.060607
0.0591974
0.0579564
0.0568722
0.0559341
0.0551329
0.0544606
0.0539106
0.0534771
0.0531558
0.0529433
0.0528371
0.133657
0.127671
0.121845
0.116249
0.110943
0.105948
0.10127
0.0969062
0.0928517
0.0890981
0.0856351
0.0824506
0.0795312
0.0768633
0.0744328
0.0722259
0.0702293
0.0684301
0.0668161
0.0653763