/*--------------------------------*- C++ -*----------------------------------*\
  =========                 |
  \\      /  F ield         | OpenFOAM: The Open Source CFD Toolbox
   \\    /   O peration     | Website:  https://openfoam.org
    \\  /    A nd           | Version:  7
     \\/     M anipulation  |
\*---------------------------------------------------------------------------*/
FoamFile
{
    version     2.0;
    format      ascii;
    class       surfaceScalarField;
    location    "10";
    object      phi;
}
// * * * * * * * * * * * * * * * * * * * * * * * * * * * * * * * * * * * * * //

dimensions      [0 3 -1 0 0 0 0];

internalField   nonuniform List<scalar> 
24025
(
-4.45191e-06
4.45191e-06
-2.00785e-12
-1.49965e-05
1.05446e-05
-5.49272e-12
-2.97118e-05
1.47153e-05
-8.70141e-12
-4.69035e-05
1.71917e-05
-1.16388e-11
-6.5054e-05
1.81505e-05
-1.42122e-11
-8.28088e-05
1.77548e-05
-1.64303e-11
-9.89694e-05
1.61606e-05
-1.82352e-11
-0.000112502
1.35328e-05
-1.96393e-11
-0.000122569
1.00673e-05
-2.05919e-11
-0.000128585
6.01561e-06
-2.099e-11
-0.000130298
1.7133e-06
-2.07675e-11
-0.000127906
-2.39259e-06
-1.98913e-11
-0.000122154
-5.75152e-06
-1.82823e-11
-0.000114373
-7.78107e-06
-1.5855e-11
-7.58278e-06
-1.24778e-11
-0.00010679
-4.30621e-06
8.75812e-06
-1.44422e-05
2.06806e-05
-2.84873e-05
2.87604e-05
-4.47411e-05
3.34455e-05
-6.16731e-05
3.50825e-05
-7.79084e-05
3.39901e-05
-9.22195e-05
3.04717e-05
-0.000103533
2.48468e-05
-0.000110961
1.74949e-05
-0.000113852
8.90624e-06
-0.000111878
-2.60716e-07
-0.000105154
-9.11638e-06
-9.43625e-05
-1.65429e-05
-8.08759e-05
-2.12676e-05
-2.19497e-05
-6.6509e-05
-4.01777e-06
1.27759e-05
-1.33435e-05
3.00063e-05
-2.60582e-05
4.14752e-05
-4.04494e-05
4.78366e-05
-5.49611e-05
4.95942e-05
-6.81784e-05
4.72075e-05
-7.88173e-05
4.11106e-05
-8.5728e-05
3.17575e-05
-8.79206e-05
1.96875e-05
-8.46169e-05
5.60254e-06
-7.53397e-05
-9.53787e-06
-6.00301e-05
-2.4426e-05
-3.91699e-05
-3.74031e-05
-1.39757e-05
-4.64618e-05
-4.81006e-05
1.21752e-05
-3.5922e-06
1.63681e-05
-1.1719e-05
3.81331e-05
-2.24627e-05
5.22189e-05
-3.40919e-05
5.94658e-05
-4.50132e-05
6.05155e-05
-5.37541e-05
5.59484e-05
-5.89491e-05
4.63056e-05
-5.93384e-05
3.21468e-05
-5.37876e-05
1.41367e-05
-4.13344e-05
-6.85071e-06
-2.12753e-05
-2.95969e-05
6.69597e-06
-5.23973e-05
4.2316e-05
-7.30231e-05
8.44744e-05
-8.86202e-05
-9.4618e-05
0.000130992
-3.03717e-06
1.94053e-05
-9.59462e-06
4.46906e-05
-1.77533e-05
6.03776e-05
-2.57562e-05
6.74687e-05
-3.19613e-05
6.67206e-05
-3.48227e-05
5.88098e-05
-3.28731e-05
4.4356e-05
-2.47147e-05
2.39884e-05
-9.03339e-06
-1.54458e-06
1.53644e-05
-3.12485e-05
4.94713e-05
-6.37039e-05
9.39292e-05
-9.68551e-05
0.000148793
-0.000127886
0.00021323
-0.000153057
-0.000166342
0.000284954
-2.36166e-06
2.17669e-05
-7.00084e-06
4.93297e-05
-1.19926e-05
6.53693e-05
-1.55469e-05
7.1023e-05
-1.59629e-05
6.71366e-05
-1.16075e-05
5.44544e-05
-8.94703e-07
3.36432e-05
1.77253e-05
5.36832e-06
4.57745e-05
-2.95937e-05
8.47131e-05
-7.01871e-05
0.000135869
-0.00011486
0.000200284
-0.000161271
0.000278437
-0.000206039
0.000369822
-0.000244442
-0.000268588
0.000472068
-1.57517e-06
2.33421e-05
-3.97057e-06
5.17251e-05
-5.24809e-06
6.66468e-05
-3.5778e-06
6.93527e-05
2.81046e-06
6.07483e-05
1.56461e-05
4.16188e-05
3.66441e-05
1.26452e-05
6.75252e-05
-2.55128e-05
0.000110023
-7.20915e-05
0.000165877
-0.000126041
0.000236778
-0.000185761
0.000324221
-0.000248713
0.000429191
-0.00031101
0.000551612
-0.000366863
-0.000406099
0.000689124
-6.875e-07
2.40296e-05
-5.32514e-07
5.15702e-05
2.41127e-06
6.37031e-05
1.00331e-05
6.17309e-05
2.418e-05
4.66014e-05
4.66874e-05
1.91113e-05
7.94049e-05
-2.00723e-05
0.000124221
-7.03291e-05
0.000183082
-0.000130953
0.000257999
-0.000200958
0.000351018
-0.00027878
0.000464106
-0.000361801
0.000598831
-0.000445735
0.000755696
-0.000523728
-0.000582923
0.00093252
2.95269e-07
2.37343e-05
3.26901e-06
4.85964e-05
1.09148e-05
5.60572e-05
2.517e-05
4.74758e-05
4.79694e-05
2.38019e-05
8.12626e-05
-1.41818e-05
0.000127038
-6.58473e-05
0.000187346
-0.000130638
0.000264328
-0.000207934
0.00036023
-0.00029686
0.000477413
-0.000395963
0.000618282
-0.000502671
0.000785021
-0.000612473
0.000978874
-0.000717581
-0.000802244
0.00119819
1.36076e-06
2.23736e-05
7.41942e-06
4.25378e-05
2.02016e-05
4.3275e-05
4.17176e-05
2.59598e-05
7.39976e-05
-8.47814e-06
0.000119111
-5.92951e-05
0.000179184
-0.000125921
0.000256422
-0.000207876
0.000353128
-0.000304639
0.000471728
-0.000415461
0.000614808
-0.000539043
0.000785107
-0.00067297
0.000985363
-0.000812729
0.00121768
-0.000949896
-0.00106593
0.00148137
2.50632e-06
1.98672e-05
1.18837e-05
3.31604e-05
3.02046e-05
2.49541e-05
5.95563e-05
-3.39187e-06
0.000102073
-5.09947e-05
0.000159949
-0.000117171
0.00023545
-0.000201422
0.00033092
-0.000303346
0.000448793
-0.000422512
0.000591604
-0.000558272
0.000762033
-0.000709472
0.000962969
-0.000873905
0.00119751
-0.00104727
0.00146857
-0.00122096
-0.00137434
0.00177698
3.72448e-06
1.61428e-05
1.66346e-05
2.02502e-05
4.08557e-05
7.33059e-07
7.85554e-05
-4.10916e-05
0.000131978
-0.000104417
0.000203445
-0.000188638
0.000295359
-0.000293335
0.000410192
-0.00041818
0.000550479
-0.000562798
0.000718793
-0.000726587
0.00091777
-0.000908449
0.00115019
-0.00110633
0.00141916
-0.00131623
0.00172804
-0.00152985
-0.001726
0.00207971
5.00917e-06
1.11336e-05
2.16434e-05
3.61597e-06
5.20772e-05
-2.97008e-05
9.85643e-05
-8.75786e-05
0.000163452
-0.000169305
0.000249187
-0.000274373
0.0003583
-0.000402448
0.000493385
-0.000553265
0.000657053
-0.000726467
0.000851879
-0.000921413
0.00108034
-0.00113691
0.00134484
-0.00137083
0.00164794
-0.00161933
0.00199268
-0.00187458
-0.00211811
0.00238479
6.3536e-06
4.78e-06
2.68749e-05
-1.69053e-05
6.37835e-05
-6.66094e-05
0.000119403
-0.000143198
0.000196175
-0.000246077
0.000296651
-0.000374849
0.000423475
-0.000529271
0.00057934
-0.00070913
0.000766941
-0.000914067
0.00098887
-0.00114334
0.00124749
-0.00139553
0.0015448
-0.00166814
0.00188225
-0.00195678
0.00226062
-0.00225296
-0.00254569
0.0026882
7.7501e-06
-2.9701e-06
3.22919e-05
-4.14471e-05
7.58703e-05
-0.000110188
0.000140857
-0.000208185
0.000229755
-0.000334976
0.000345184
-0.000490278
0.000489849
-0.000673936
0.000666506
-0.000885788
0.000877916
-0.00112548
0.00112679
-0.00139222
0.00141573
-0.00168447
0.00174717
-0.00199959
0.00212264
-0.00233224
0.00253784
-0.00266816
-0.00299701
0.00298917
9.19011e-06
-1.21602e-05
3.78503e-05
-7.01073e-05
8.82193e-05
-0.000160557
0.000162677
-0.000282642
0.000263734
-0.000436033
0.000394004
-0.000620548
0.00055616
-0.000836092
0.000752902
-0.00108253
0.000986935
-0.00135951
0.00126102
-0.0016663
0.00157816
-0.00200161
0.00194208
-0.00236351
0.00235902
-0.00274919
0.00284772
-0.00315685
-0.00360794
0.00345865
1.06641e-05
-2.28243e-05
4.3501e-05
-0.000102944
0.000100698
-0.000217754
0.000184587
-0.00036653
0.000297607
-0.000549053
0.000442255
-0.000765196
0.000621024
-0.00101486
0.000836342
-0.00129785
0.00109054
-0.00161371
0.0013859
-0.00196166
0.0017248
-0.00234051
0.00211008
-0.00274879
0.00254596
-0.00318507
0.00303985
-0.00365074
-0.00415891
0.00359081
1.21611e-05
-3.49855e-05
4.91897e-05
-0.000139973
0.000113164
-0.000281729
0.000206292
-0.000459658
0.000330844
-0.000673605
0.000489068
-0.000923421
0.000683093
-0.00120889
0.000914829
-0.00152958
0.00118589
-0.00188477
0.00149754
-0.00227331
0.0018507
-0.00269368
0.00224597
-0.00314405
0.0026835
-0.0036226
0.00316184
-0.00412908
-0.00466555
0.00366848
1.36689e-05
-4.86543e-05
5.48569e-05
-0.000181161
0.000125464
-0.000352336
0.000227486
-0.00056168
0.000362911
-0.00080903
0.000533596
-0.00109411
0.000741122
-0.00141641
0.000986659
-0.00177512
0.00127082
-0.00216893
0.00159356
-0.00259605
0.00195404
-0.00305415
0.00235044
-0.00354046
0.00277956
-0.00405172
0.00323528
-0.00458479
-0.00513342
0.00370315
1.51729e-05
-6.38272e-05
6.0436e-05
-0.000226424
0.00013743
-0.00042933
0.000247843
-0.000672093
0.000393261
-0.000954449
0.000575006
-0.00127585
0.000793948
-0.00163535
0.00105033
-0.00203151
0.00134362
-0.00246222
0.00167231
-0.00292474
0.00203384
-0.00341568
0.00242435
-0.00393097
0.00283839
-0.00446576
0.00326781
-0.00501421
-0.00556492
0.00369931
1.66559e-05
-8.04831e-05
6.58514e-05
-0.000275619
0.000148879
-0.000512358
0.000267017
-0.000790231
0.000421331
-0.00110876
0.000612468
-0.00146699
0.000840452
-0.00186334
0.00110448
-0.00229554
0.00140277
-0.00276051
0.00173242
-0.00325439
0.00208931
-0.00377257
0.00246807
-0.00430973
0.00286192
-0.00485961
0.00326225
-0.00541455
-0.0059605
0.00365783
1.80973e-05
-9.85804e-05
7.10167e-05
-0.000328539
0.000159611
-0.000600952
0.000284642
-0.000915261
0.000446536
-0.00127066
0.000645151
-0.0016656
0.000879551
-0.00209774
0.00114782
-0.0025638
0.00144693
-0.00305961
0.00177268
-0.00358013
0.00211971
-0.00411961
0.00248163
-0.00467165
0.0028511
-0.00522908
0.00321989
-0.00578334
-0.00631967
0.00357907
1.94727e-05
-0.000118053
7.58354e-05
-0.000384901
0.000169406
-0.000694523
0.000300326
-0.00104618
0.000468279
-0.00143861
0.000672229
-0.00186955
0.00091021
-0.00233572
0.00117917
-0.00283276
0.0014749
-0.00335535
0.0017921
-0.00389733
0.0021245
-0.00445201
0.00246513
-0.00501228
0.00280669
-0.00557064
0.00314183
-0.00611849
-0.00664176
0.00346392
2.07542e-05
-0.000138807
8.02015e-05
-0.000444349
0.000178032
-0.000792354
0.000313673
-0.00118182
0.000485965
-0.0016109
0.00069291
-0.0020765
0.000931476
-0.00257429
0.00119751
-0.00309879
0.00148575
-0.00364359
0.00179
-0.00420159
0.00210344
-0.00476545
0.00241897
-0.00532781
0.00272974
-0.0058814
0.00302961
-0.00641836
-0.00692624
0.0033141
2.19114e-05
-0.000160719
8.40031e-05
-0.000506441
0.000185252
-0.000893603
0.000324283
-0.00132085
0.000499024
-0.00178564
0.000706469
-0.00228394
0.000942531
-0.00281035
0.00120203
-0.00335829
0.00147883
-0.00392038
0.00176611
-0.00448888
0.00205682
-0.00505615
0.0023441
-0.00561509
0.00262189
-0.00615919
0.00288542
-0.00668189
-0.007173
0.00313218
2.29122e-05
-0.000183631
8.71261e-05
-0.000570654
0.000190831
-0.000997307
0.000331779
-0.0014618
0.00050694
-0.0019608
0.000712288
-0.00248929
0.000942733
-0.00304079
0.0011922
-0.00360775
0.00145387
-0.00418206
0.00172061
-0.00475561
0.00198542
-0.00532096
0.00224201
-0.00587169
0.00248534
-0.00640252
0.00271205
-0.0069086
-0.00738232
0.00292138
2.3724e-05
-0.000207355
8.94588e-05
-0.000636389
0.000194546
-0.00110239
0.000335821
-0.00160308
0.000509271
-0.00213425
0.000709885
-0.0026899
0.000931659
-0.00326257
0.00116779
-0.00384388
0.00141102
-0.00442529
0.00165415
-0.00499874
0.00189055
-0.00555736
0.00211473
-0.00609587
0.00232278
-0.00661057
0.00251276
-0.00709859
-0.00755492
0.00268535
2.43154e-05
-0.00023167
9.08972e-05
-0.000702971
0.000196201
-0.0012077
0.000336121
-0.001743
0.000505679
-0.00230381
0.000698944
-0.00288317
0.000909133
-0.00347276
0.0011289
-0.00406366
0.00135081
-0.0046472
0.00156784
-0.00521577
0.00177398
-0.0057635
0.00196468
-0.00628657
0.00213725
-0.00678314
0.00229104
-0.00725238
-0.0076918
0.00242793
2.4657e-05
-0.000256327
9.1349e-05
-0.000769663
0.00019563
-0.00131198
0.000332459
-0.00187983
0.000495943
-0.00246729
0.000679332
-0.00306656
0.000875228
-0.00366865
0.00107597
-0.00426439
0.00127414
-0.00484537
0.00146316
-0.0054048
0.00163781
-0.00593814
0.00179459
-0.00644335
0.00193197
-0.00692053
0.00205048
-0.00737089
-0.0077942
0.00215287
2.47231e-05
-0.00028105
9.07378e-05
-0.000835678
0.000192706
-0.00141395
0.000324693
-0.00201181
0.000479969
-0.00262257
0.000651103
-0.00323769
0.000830265
-0.00384781
0.00100969
-0.00444381
0.00118222
-0.00501791
0.00134191
-0.00556448
0.00148441
-0.00608064
0.00160731
-0.00656625
0.0017102
-0.00702341
0.00179456
-0.00745524
-0.00786345
0.00186381
2.44925e-05
-0.000305543
8.90065e-05
-0.000900192
0.000187351
-0.00151229
0.000312765
-0.00213723
0.000457796
-0.0027676
0.000614495
-0.00339439
0.000774796
-0.00400811
0.000931038
-0.00460006
0.00107653
-0.0051634
0.00120607
-0.00569402
0.00131627
-0.00619085
0.00140577
-0.00665574
0.0014751
-0.00709275
0.00152658
-0.00750672
-0.00790096
0.00156408
2.39492e-05
-0.000329492
8.61187e-05
-0.000962361
0.000179532
-0.00160571
0.0002967
-0.00225439
0.00042959
-0.00290049
0.000569911
-0.00353471
0.000709564
-0.00414777
0.000841191
-0.00473168
0.000958714
-0.00528092
0.00105777
-0.00579307
0.00113593
-0.00626901
0.00119278
-0.00671259
0.0012297
-0.00712966
0.0012496
-0.00752663
-0.00790803
0.00125668
2.30831e-05
-0.000352575
8.20609e-05
-0.00102134
0.000169267
-0.00169291
0.000276608
-0.00236173
0.000395635
-0.00301952
0.000517903
-0.00365698
0.000635476
-0.00426534
0.000741467
-0.00483768
0.000830526
-0.00536998
0.000899166
-0.00586171
0.000945886
-0.00631573
0.000971082
-0.00673779
0.000976789
-0.00713537
0.000966381
-0.00751622
-0.00788587
0.000944222
2.18903e-05
-0.000374466
7.68425e-05
-0.00107629
0.000156619
-0.00177269
0.000252675
-0.00245779
0.000356319
-0.00312316
0.000459145
-0.00375981
0.000553558
-0.00435975
0.000633283
-0.0049174
0.000693774
-0.00543047
0.000732421
-0.00590036
0.00074855
-0.00633186
0.000743223
-0.00673246
0.000718931
-0.00711108
0.000679327
-0.00747661
-0.00783556
0.000629016
2.03732e-05
-0.000394839
7.04945e-05
-0.00112641
0.0001417
-0.00184389
0.000225156
-0.00254125
0.000312118
-0.00321012
0.000394401
-0.00384209
0.000464911
-0.00443026
0.000518098
-0.00497059
0.000550258
-0.00546263
0.000559621
-0.00590972
0.000546226
-0.00631847
0.000511639
-0.00669788
0.000458573
-0.00705801
0.000390543
-0.00740858
-0.00775809
0.000313066
1.85402e-05
-0.000413379
6.30692e-05
-0.00117094
0.000124657
-0.00190548
0.000194363
-0.00261095
0.000263572
-0.00327933
0.000324497
-0.00390302
0.000370679
-0.00447644
0.00039737
-0.00499728
0.000401718
-0.00546698
0.000382738
-0.00589074
0.000341077
-0.00627681
0.000278683
-0.00663548
0.000198432
-0.00697776
0.000103452
-0.0073136
-0.00764836
-6.27535e-06
1.64055e-05
-0.000429784
5.46377e-05
-0.00120917
0.000105675
-0.00195652
0.000160655
-0.00266593
0.000211273
-0.00332995
0.000250293
-0.00394204
0.000272005
-0.00449816
0.000272505
-0.00499778
0.000249783
-0.00544426
0.000203562
-0.00584452
0.000135004
-0.00620825
4.63327e-05
-0.00654681
-5.94638e-05
-0.00687197
-0.00017903
-0.00719404
-0.00751945
-0.000307938
1.39888e-05
-0.000443773
4.52879e-05
-0.00124047
8.49668e-05
-0.0019962
0.000124426
-0.00270539
0.000155841
-0.00336137
0.000172662
-0.00395886
0.000170005
-0.0044955
0.000144835
-0.00497261
9.59413e-05
-0.00539537
2.36699e-05
-0.00577225
-7.043e-05
-0.00611415
-0.000183993
-0.00643325
-0.000314143
-0.00674182
-0.000457523
-0.00705066
-0.00736722
-0.000609754
1.13149e-05
-0.000455088
3.51223e-05
-0.00126428
6.27687e-05
-0.00202384
8.6096e-05
-0.00272872
9.79156e-05
-0.00337319
9.24667e-05
-0.00395341
6.57592e-05
-0.00446879
1.56137e-05
-0.00492246
-5.84526e-05
-0.0053213
-0.000155535
-0.00567516
-0.000273819
-0.00599587
-0.000410952
-0.00629612
-0.000564262
-0.00658851
-0.000730599
-0.00688432
-0.00719182
-0.000905995
8.41327e-06
-0.000463501
2.42569e-05
-0.00128012
3.93366e-05
-0.00203892
4.60993e-05
-0.00273548
3.81452e-05
-0.00336523
1.05849e-05
-0.00392585
-3.97195e-05
-0.00441849
-0.000114052
-0.00484813
-0.000212196
-0.00522315
-0.000332825
-0.00555454
-0.000473942
-0.00585475
-0.000633306
-0.00613675
-0.000808595
-0.00641322
-0.000997083
-0.00669583
-0.006994
-0.0011949
5.32043e-06
-0.000468822
1.28192e-05
-0.00128762
1.49424e-05
-0.00204105
4.929e-06
-0.00272547
-2.28445e-05
-0.00333746
-7.22654e-05
-0.00387643
-0.000145498
-0.00434525
-0.00024309
-0.00475054
-0.000364213
-0.00510203
-0.000507147
-0.0054116
-0.00066978
-0.00569211
-0.000850046
-0.00595649
-0.0010461
-0.00621717
-0.00125583
-0.0064861
-0.00677449
-0.00147534
2.11693e-06
-0.000470939
9.30923e-07
-0.00128644
-1.01563e-05
-0.00202996
-3.71019e-05
-0.00269852
-8.44608e-05
-0.0032901
-0.000155215
-0.00380567
-0.000250652
-0.00424982
-0.000370557
-0.00463064
-0.00051356
-0.00495903
-0.000677618
-0.00524754
-0.000860531
-0.0055092
-0.00106041
-0.0057566
-0.00127598
-0.0060016
-0.00150601
-0.00625607
-0.0065338
-0.0017467
-1.35505e-06
-0.000469584
-1.12704e-05
-0.00127652
-3.56719e-05
-0.00200556
-7.94155e-05
-0.00265478
-0.00014604
-0.00322347
-0.000237537
-0.00371418
-0.000354342
-0.00413301
-0.000495569
-0.00448941
-0.000659389
-0.00479521
-0.000843496
-0.00506344
-0.0010456
-0.00530709
-0.00126395
-0.00553826
-0.00149776
-0.00576779
-0.00174703
-0.0060068
-0.00627181
-0.00200902
-4.76887e-06
-0.000464815
-2.36257e-05
-0.00125766
-6.13093e-05
-0.00196787
-0.000121611
-0.00259448
-0.000207004
-0.00313808
-0.000318507
-0.00360267
-0.000455756
-0.00399576
-0.000617284
-0.00432788
-0.0008009
-0.00461159
-0.00100412
-0.00486021
-0.00122462
-0.0050866
-0.00146064
-0.00530224
-0.00171167
-0.00551676
-0.00197881
-0.00573966
-0.00598678
-0.00226384
-8.25527e-06
-0.00045656
-3.60027e-05
-0.00122992
-8.67952e-05
-0.00191708
-0.00016326
-0.00251801
-0.00026678
-0.00303456
-0.000397427
-0.00347203
-0.000554103
-0.00383909
-0.000734851
-0.00414713
-0.000937238
-0.00440921
-0.00115875
-0.0046387
-0.00139715
-0.0048482
-0.00165082
-0.00504858
-0.00191939
-0.00524818
-0.00220582
-0.00545323
-0.0056785
-0.0025141
-1.17399e-05
-0.00044482
-4.82614e-05
-0.0011934
-0.000111859
-0.00185348
-0.00020395
-0.00242592
-0.000324821
-0.00291369
-0.000473631
-0.00332322
-0.000648608
-0.00366411
-0.000847384
-0.00394836
-0.00106738
-0.00418921
-0.00130618
-0.0043999
-0.00156189
-0.0045925
-0.00183338
-0.00477709
-0.00212029
-0.00496126
-0.00242304
-0.00515048
-0.00534363
-0.00275791
-1.51772e-05
-0.000429643
-6.02647e-05
-0.00114831
-0.000136244
-0.00177751
-0.000243298
-0.00231887
-0.000380628
-0.00277636
-0.000546512
-0.00315733
-0.000738555
-0.00347207
-0.000954024
-0.00373289
-0.00119022
-0.00395301
-0.00144484
-0.00414528
-0.00171618
-0.00432115
-0.00200338
-0.00448989
-0.00230626
-0.00465839
-0.00262592
-0.00483082
-0.00500502
-0.00296454
-1.85269e-05
-0.000411116
-7.18853e-05
-0.00109495
-0.000159714
-0.00168968
-0.00028096
-0.00219762
-0.000433757
-0.00262356
-0.000615549
-0.00297554
-0.000823355
-0.00326426
-0.00105411
-0.00350213
-0.00130499
-0.00370213
-0.00157368
-0.00387659
-0.0018586
-0.00403624
-0.00215884
-0.00418964
-0.00247417
-0.00434306
-0.0028049
-0.00450009
-0.00465994
-0.00314997
-2.17519e-05
-0.000389364
-8.30075e-05
-0.00103369
-0.00018206
-0.00159062
-0.000316634
-0.00206305
-0.000483837
-0.00245636
-0.000680322
-0.00277906
-0.000902573
-0.00304201
-0.00114721
-0.00325749
-0.00141129
-0.00343805
-0.00169249
-0.00359539
-0.00198922
-0.00373951
-0.00230055
-0.00387831
-0.00262611
-0.0040175
-0.00296578
-0.00416042
-0.00430732
-0.00331841
-2.48185e-05
-0.000364545
-9.35279e-05
-0.000964984
-0.000203096
-0.00148106
-0.000350063
-0.00191608
-0.000530559
-0.00227587
-0.000740505
-0.00256911
-0.000975893
-0.00280662
-0.00123308
-0.00300031
-0.001509
-0.00316213
-0.00180133
-0.00330306
-0.00210849
-0.00343235
-0.00242957
-0.00355723
-0.00276414
-0.00368293
-0.00311201
-0.00381255
-0.00394689
-0.00347244
-2.76967e-05
-0.000336849
-0.000103355
-0.000889326
-0.000222662
-0.00136175
-0.00038103
-0.00175771
-0.000573673
-0.00208322
-0.000795839
-0.00234694
-0.00104309
-0.00255937
-0.00131154
-0.00273186
-0.00159805
-0.00287562
-0.00190031
-0.0030008
-0.00221678
-0.00311587
-0.00254661
-0.0032274
-0.00288942
-0.00334012
-0.00324509
-0.00345688
-0.00357874
-0.00361324
-3.03597e-05
-0.000306489
-0.00011241
-0.000807276
-0.000240622
-0.00123354
-0.000409352
-0.00158898
-0.000612972
-0.0018796
-0.000846122
-0.00211379
-0.00110398
-0.00230151
-0.00138248
-0.00245337
-0.00167842
-0.00257968
-0.00198953
-0.00268969
-0.00231434
-0.00279106
-0.00265208
-0.00288966
-0.00300249
-0.00298972
-0.00336555
-0.00309381
-0.00320306
-0.00374123
-3.27842e-05
-0.000273705
-0.000120622
-0.000719438
-0.000256857
-0.0010973
-0.000434876
-0.00141096
-0.000648285
-0.00166619
-0.00089119
-0.00187089
-0.00115844
-0.00203426
-0.00144581
-0.002166
-0.00175008
-0.0022754
-0.00206903
-0.00237075
-0.00240127
-0.00245881
-0.00274616
-0.00254477
-0.00310353
-0.00263235
-0.00347353
-0.00272381
-0.00282024
-0.00385635
-3.49495e-05
-0.000238755
-0.000127933
-0.000626454
-0.000271269
-0.000953967
-0.000457472
-0.00122476
-0.000679472
-0.00144419
-0.000930905
-0.00161946
-0.00120635
-0.00175882
-0.00150145
-0.00187089
-0.00181299
-0.00196386
-0.0021388
-0.00204494
-0.00247761
-0.00212
-0.00282886
-0.00219352
-0.00319252
-0.00226869
-0.00356889
-0.00234744
-0.0024308
-0.00395834
-3.68379e-05
-0.000201917
-0.000134292
-0.000529
-0.000283774
-0.000804485
-0.000477033
-0.0010315
-0.000706414
-0.00121481
-0.000965156
-0.00136071
-0.0012476
-0.00147638
-0.00154932
-0.00156917
-0.00186709
-0.00164609
-0.00219881
-0.00171322
-0.0025433
-0.00177551
-0.00290011
-0.00183671
-0.00326934
-0.00189946
-0.00365139
-0.00196539
-0.00203539
-0.0040468
-3.84346e-05
-0.000163483
-0.000139655
-0.00042778
-0.000294299
-0.000649841
-0.000493467
-0.000832332
-0.000729013
-0.000979266
-0.000993845
-0.00109588
-0.00128213
-0.0011881
-0.00158935
-0.00126195
-0.00191232
-0.00132313
-0.00224898
-0.00137656
-0.00259825
-0.00142624
-0.00295979
-0.00147517
-0.00333378
-0.00152547
-0.00372073
-0.00157844
-0.00163481
-0.00412131
-3.97268e-05
-0.000123756
-0.000143988
-0.000323519
-0.000302788
-0.00049104
-0.000506702
-0.000628418
-0.000747188
-0.00073878
-0.00101689
-0.000826178
-0.00130984
-0.000895152
-0.00162147
-0.000950318
-0.0019486
-0.000995996
-0.00228924
-0.00103592
-0.00264238
-0.0010731
-0.00300775
-0.00110979
-0.00338564
-0.00114759
-0.00377662
-0.00118745
-0.00122996
-0.00418147
-4.07048e-05
-8.30511e-05
-0.000147262
-0.000216962
-0.000309195
-0.000329107
-0.000516679
-0.000420934
-0.000760875
-0.000494584
-0.00103424
-0.000552817
-0.00133068
-0.000598711
-0.00164561
-0.000635382
-0.00197587
-0.000665739
-0.00231951
-0.000692287
-0.00267557
-0.000717037
-0.00304386
-0.000741497
-0.00342472
-0.000766731
-0.00381879
-0.000793379
-0.000821827
-0.00422692
-4.13609e-05
-4.16902e-05
-0.000149456
-0.000108867
-0.000313485
-0.000165079
-0.000523354
-0.000211064
-0.000770027
-0.000247912
-0.00104583
-0.000277018
-0.0013446
-0.000299938
-0.00166174
-0.000318242
-0.00199408
-0.000333392
-0.00233973
-0.000346646
-0.00269775
-0.000359011
-0.00306801
-0.000371242
-0.00345087
-0.000383871
-0.00384703
-0.000397216
-0.000411475
-0.00425738
-4.16902e-05
-1.17318e-13
-0.000150557
-2.20413e-13
-0.000315635
-1.7967e-13
-0.000526699
-5.76077e-14
-0.000774611
8.31e-14
-0.00105163
2.11084e-13
-0.00135157
3.09631e-13
-0.00166981
3.74021e-13
-0.0020032
4.08019e-13
-0.00234985
4.16098e-13
-0.00270886
4.0276e-13
-0.0030801
3.70767e-13
-0.00346397
3.23701e-13
-0.00386119
2.62715e-13
1.90274e-13
-0.00427266
-4.16902e-05
4.16902e-05
-0.000150557
0.000108867
-0.000315635
0.000165079
-0.000526699
0.000211064
-0.000774611
0.000247912
-0.00105163
0.000277018
-0.00135157
0.000299938
-0.00166981
0.000318242
-0.0020032
0.000333392
-0.00234985
0.000346646
-0.00270886
0.000359011
-0.0030801
0.000371242
-0.00346397
0.000383871
-0.00386119
0.000397216
0.000411475
-0.00427266
-4.13609e-05
8.30511e-05
-0.000149456
0.000216962
-0.000313485
0.000329107
-0.000523354
0.000420934
-0.000770027
0.000494584
-0.00104583
0.000552817
-0.0013446
0.000598711
-0.00166174
0.000635382
-0.00199408
0.000665739
-0.00233973
0.000692287
-0.00269775
0.000717037
-0.00306801
0.000741497
-0.00345087
0.000766731
-0.00384703
0.000793379
0.000821827
-0.00425738
-4.07048e-05
0.000123756
-0.000147262
0.000323519
-0.000309195
0.00049104
-0.000516679
0.000628418
-0.000760875
0.00073878
-0.00103424
0.000826178
-0.00133068
0.000895152
-0.00164561
0.000950318
-0.00197587
0.000995996
-0.00231951
0.00103592
-0.00267557
0.0010731
-0.00304386
0.00110979
-0.00342472
0.00114759
-0.00381879
0.00118745
0.00122996
-0.00422692
-3.97268e-05
0.000163483
-0.000143988
0.00042778
-0.000302788
0.000649841
-0.000506702
0.000832332
-0.000747188
0.000979266
-0.00101689
0.00109588
-0.00130984
0.0011881
-0.00162147
0.00126195
-0.0019486
0.00132313
-0.00228924
0.00137656
-0.00264238
0.00142624
-0.00300775
0.00147517
-0.00338564
0.00152547
-0.00377662
0.00157844
0.00163481
-0.00418147
-3.84346e-05
0.000201917
-0.000139655
0.000529
-0.000294299
0.000804485
-0.000493467
0.0010315
-0.000729013
0.00121481
-0.000993845
0.00136071
-0.00128213
0.00147638
-0.00158935
0.00156917
-0.00191232
0.00164609
-0.00224898
0.00171322
-0.00259825
0.00177551
-0.00295979
0.00183671
-0.00333378
0.00189946
-0.00372073
0.00196539
0.00203539
-0.00412131
-3.68379e-05
0.000238755
-0.000134292
0.000626454
-0.000283774
0.000953967
-0.000477033
0.00122476
-0.000706414
0.00144419
-0.000965156
0.00161946
-0.0012476
0.00175882
-0.00154932
0.00187089
-0.00186709
0.00196386
-0.00219881
0.00204494
-0.0025433
0.00212
-0.00290011
0.00219352
-0.00326934
0.00226869
-0.00365139
0.00234744
0.0024308
-0.0040468
-3.49495e-05
0.000273705
-0.000127933
0.000719438
-0.000271269
0.0010973
-0.000457472
0.00141096
-0.000679472
0.00166619
-0.000930905
0.00187089
-0.00120635
0.00203426
-0.00150145
0.002166
-0.00181299
0.0022754
-0.0021388
0.00237075
-0.00247761
0.00245881
-0.00282886
0.00254477
-0.00319252
0.00263235
-0.00356889
0.00272381
0.00282024
-0.00395834
-3.27842e-05
0.000306489
-0.000120622
0.000807276
-0.000256857
0.00123354
-0.000434876
0.00158898
-0.000648285
0.0018796
-0.00089119
0.00211379
-0.00115844
0.00230151
-0.00144581
0.00245337
-0.00175008
0.00257968
-0.00206903
0.00268969
-0.00240127
0.00279106
-0.00274616
0.00288966
-0.00310353
0.00298972
-0.00347353
0.00309381
0.00320306
-0.00385635
-3.03597e-05
0.000336849
-0.00011241
0.000889326
-0.000240622
0.00136175
-0.000409352
0.00175771
-0.000612972
0.00208322
-0.000846122
0.00234694
-0.00110398
0.00255937
-0.00138248
0.00273186
-0.00167842
0.00287562
-0.00198953
0.0030008
-0.00231434
0.00311587
-0.00265208
0.0032274
-0.00300249
0.00334012
-0.00336555
0.00345688
0.00357874
-0.00374123
-2.76967e-05
0.000364545
-0.000103355
0.000964984
-0.000222662
0.00148106
-0.00038103
0.00191608
-0.000573673
0.00227587
-0.000795839
0.00256911
-0.00104309
0.00280662
-0.00131154
0.00300031
-0.00159805
0.00316213
-0.00190031
0.00330306
-0.00221678
0.00343235
-0.00254661
0.00355723
-0.00288942
0.00368293
-0.00324509
0.00381255
0.00394689
-0.00361324
-2.48185e-05
0.000389364
-9.35279e-05
0.00103369
-0.000203096
0.00159062
-0.000350063
0.00206305
-0.000530559
0.00245636
-0.000740505
0.00277906
-0.000975893
0.00304201
-0.00123308
0.00325749
-0.001509
0.00343805
-0.00180133
0.00359539
-0.00210849
0.00373951
-0.00242957
0.00387831
-0.00276414
0.0040175
-0.00311201
0.00416042
0.00430732
-0.00347244
-2.17519e-05
0.000411116
-8.30075e-05
0.00109495
-0.00018206
0.00168968
-0.000316634
0.00219762
-0.000483837
0.00262356
-0.000680322
0.00297554
-0.000902573
0.00326426
-0.00114721
0.00350213
-0.00141129
0.00370213
-0.00169249
0.00387659
-0.00198922
0.00403624
-0.00230055
0.00418964
-0.00262611
0.00434306
-0.00296578
0.00450009
0.00465994
-0.00331841
-1.85269e-05
0.000429643
-7.18853e-05
0.00114831
-0.000159714
0.00177751
-0.00028096
0.00231887
-0.000433757
0.00277636
-0.000615549
0.00315733
-0.000823355
0.00347207
-0.00105411
0.00373289
-0.00130499
0.00395301
-0.00157368
0.00414528
-0.0018586
0.00432115
-0.00215884
0.00448989
-0.00247417
0.00465839
-0.0028049
0.00483082
0.00500502
-0.00314997
-1.51772e-05
0.00044482
-6.02647e-05
0.0011934
-0.000136244
0.00185348
-0.000243298
0.00242592
-0.000380628
0.00291369
-0.000546512
0.00332322
-0.000738555
0.00366411
-0.000954024
0.00394836
-0.00119022
0.00418921
-0.00144484
0.0043999
-0.00171618
0.0045925
-0.00200338
0.00477709
-0.00230626
0.00496126
-0.00262592
0.00515048
0.00534363
-0.00296454
-1.17399e-05
0.00045656
-4.82614e-05
0.00122992
-0.000111859
0.00191708
-0.00020395
0.00251801
-0.000324821
0.00303456
-0.000473631
0.00347203
-0.000648608
0.00383909
-0.000847384
0.00414713
-0.00106738
0.00440921
-0.00130618
0.0046387
-0.00156189
0.0048482
-0.00183338
0.00504858
-0.00212029
0.00524818
-0.00242304
0.00545323
0.0056785
-0.00275791
-8.25527e-06
0.000464815
-3.60027e-05
0.00125766
-8.67952e-05
0.00196787
-0.00016326
0.00259448
-0.00026678
0.00313808
-0.000397427
0.00360267
-0.000554103
0.00399576
-0.000734851
0.00432788
-0.000937238
0.00461159
-0.00115875
0.00486021
-0.00139715
0.0050866
-0.00165082
0.00530224
-0.00191939
0.00551676
-0.00220582
0.00573966
0.00598678
-0.0025141
-4.76887e-06
0.000469584
-2.36257e-05
0.00127652
-6.13093e-05
0.00200556
-0.000121611
0.00265478
-0.000207004
0.00322347
-0.000318507
0.00371418
-0.000455756
0.00413301
-0.000617284
0.00448941
-0.0008009
0.00479521
-0.00100412
0.00506344
-0.00122462
0.00530709
-0.00146064
0.00553826
-0.00171167
0.00576779
-0.00197881
0.0060068
0.00627181
-0.00226384
-1.35505e-06
0.000470939
-1.12704e-05
0.00128644
-3.56719e-05
0.00202996
-7.94155e-05
0.00269852
-0.00014604
0.0032901
-0.000237537
0.00380567
-0.000354342
0.00424982
-0.000495569
0.00463064
-0.000659389
0.00495903
-0.000843496
0.00524754
-0.0010456
0.0055092
-0.00126395
0.0057566
-0.00149776
0.0060016
-0.00174703
0.00625607
0.0065338
-0.00200902
2.11693e-06
0.000468822
9.30923e-07
0.00128762
-1.01563e-05
0.00204105
-3.71019e-05
0.00272547
-8.44608e-05
0.00333746
-0.000155215
0.00387643
-0.000250652
0.00434525
-0.000370557
0.00475054
-0.00051356
0.00510203
-0.000677618
0.0054116
-0.000860531
0.00569211
-0.00106041
0.00595649
-0.00127598
0.00621717
-0.00150601
0.0064861
0.00677449
-0.0017467
5.32043e-06
0.000463501
1.28192e-05
0.00128012
1.49424e-05
0.00203892
4.929e-06
0.00273548
-2.28445e-05
0.00336523
-7.22654e-05
0.00392585
-0.000145498
0.00441849
-0.00024309
0.00484813
-0.000364213
0.00522315
-0.000507147
0.00555454
-0.00066978
0.00585475
-0.000850046
0.00613675
-0.0010461
0.00641322
-0.00125583
0.00669583
0.006994
-0.00147534
8.41327e-06
0.000455088
2.42569e-05
0.00126428
3.93366e-05
0.00202384
4.60993e-05
0.00272872
3.81452e-05
0.00337319
1.05849e-05
0.00395341
-3.97195e-05
0.00446879
-0.000114052
0.00492246
-0.000212196
0.0053213
-0.000332825
0.00567516
-0.000473942
0.00599587
-0.000633306
0.00629612
-0.000808595
0.00658851
-0.000997083
0.00688432
0.00719182