/*--------------------------------*- C++ -*----------------------------------*\
  =========                 |
  \\      /  F ield         | OpenFOAM: The Open Source CFD Toolbox
   \\    /   O peration     | Website:  https://openfoam.org
    \\  /    A nd           | Version:  7
     \\/     M anipulation  |
\*---------------------------------------------------------------------------*/
FoamFile
{
    version     2.0;
    format      ascii;
    class       volScalarField;
    location    "5";
    object      p;
}
// * * * * * * * * * * * * * * * * * * * * * * * * * * * * * * * * * * * * * //

dimensions      [0 2 -2 0 0 0 0];

internalField   nonuniform List<scalar> 
13250
(
-0.31531
-0.319792
-0.322871
-0.325364
-0.328059
-0.331243
-0.335088
-0.339709
-0.345165
-0.351478
-0.358647
-0.36662
-0.375297
-0.384731
-0.395327
-0.317325
-0.321501
-0.324411
-0.326815
-0.32945
-0.332594
-0.336414
-0.341021
-0.346475
-0.352798
-0.359989
-0.368003
-0.376728
-0.386192
-0.396921
-0.321108
-0.324707
-0.327293
-0.329519
-0.332031
-0.335086
-0.338841
-0.343406
-0.348836
-0.355151
-0.362356
-0.370414
-0.379193
-0.38867
-0.399584
-0.326217
-0.329031
-0.331164
-0.333126
-0.335443
-0.338343
-0.341975
-0.346438
-0.351784
-0.358032
-0.365189
-0.373231
-0.38201
-0.391415
-0.402414
-0.332092
-0.334
-0.335587
-0.337207
-0.339249
-0.341911
-0.345329
-0.349595
-0.354757
-0.360831
-0.36782
-0.375718
-0.384382
-0.393576
-0.404361
-0.338156
-0.339134
-0.340126
-0.341337
-0.34302
-0.345343
-0.348433
-0.352375
-0.357212
-0.362959
-0.369617
-0.377189
-0.385567
-0.394404
-0.404498
-0.343907
-0.344022
-0.344422
-0.345175
-0.346417
-0.348292
-0.350921
-0.354385
-0.358731
-0.363974
-0.370115
-0.377161
-0.385049
-0.393403
-0.402818
-0.348975
-0.348379
-0.348233
-0.348507
-0.34924
-0.350561
-0.352592
-0.355421
-0.359103
-0.363661
-0.369103
-0.375439
-0.382637
-0.390339
-0.399058
-0.353169
-0.352065
-0.35146
-0.351257
-0.351436
-0.352119
-0.353436
-0.35549
-0.358355
-0.362072
-0.366662
-0.372143
-0.378519
-0.385479
-0.393245
-0.356472
-0.355083
-0.354127
-0.353476
-0.353086
-0.353081
-0.353607
-0.354793
-0.356738
-0.359514
-0.363159
-0.367704
-0.373184
-0.379355
-0.38597
-0.359026
-0.357558
-0.356361
-0.355309
-0.354364
-0.353665
-0.35338
-0.353668
-0.354665
-0.356475
-0.359164
-0.36277
-0.367347
-0.372719
-0.377899
-0.361104
-0.359714
-0.358365
-0.356962
-0.355503
-0.354146
-0.353086
-0.352518
-0.352617
-0.353521
-0.355322
-0.35806
-0.361789
-0.366423
-0.369718
-0.363071
-0.361841
-0.360394
-0.358685
-0.356765
-0.354818
-0.35307
-0.351747
-0.351058
-0.351174
-0.352203
-0.354179
-0.357119
-0.360997
-0.362108
-0.365339
-0.364264
-0.362727
-0.360742
-0.358419
-0.35597
-0.353644
-0.351697
-0.350361
-0.349823
-0.350191
-0.351471
-0.353602
-0.356385
-0.35575
-0.368309
-0.367302
-0.36564
-0.363389
-0.360712
-0.357845
-0.355055
-0.352611
-0.350752
-0.349661
-0.349422
-0.349998
-0.351213
-0.352308
-0.352108
-0.372318
-0.371229
-0.369369
-0.366839
-0.363838
-0.360616
-0.357447
-0.354596
-0.352288
-0.350673
-0.349792
-0.349548
-0.34969
-0.349353
-0.352194
-0.377595
-0.376245
-0.374086
-0.371238
-0.367911
-0.364362
-0.360855
-0.357631
-0.354878
-0.352688
-0.351032
-0.349734
-0.348423
-0.34675
-0.345264
-0.384268
-0.382467
-0.379893
-0.376666
-0.372982
-0.369093
-0.365239
-0.361618
-0.358353
-0.35546
-0.352822
-0.350196
-0.347155
-0.343527
-0.338584
-0.392375
-0.389948
-0.386843
-0.383162
-0.379065
-0.37479
-0.370536
-0.366436
-0.362525
-0.35873
-0.354854
-0.350618
-0.345639
-0.339807
-0.332394
-0.401908
-0.398707
-0.394964
-0.390752
-0.386176
-0.381443
-0.376695
-0.371972
-0.367212
-0.362251
-0.356851
-0.350754
-0.343696
-0.335667
-0.326159
-0.41284
-0.408747
-0.404281
-0.399471
-0.394344
-0.389056
-0.383667
-0.37811
-0.372222
-0.36578
-0.358563
-0.35041
-0.341229
-0.331134
-0.319972
-0.425135
-0.42006
-0.414811
-0.409346
-0.403588
-0.397612
-0.391372
-0.384691
-0.377328
-0.369066
-0.359772
-0.349443
-0.33817
-0.326209
-0.313564
-0.438731
-0.432611
-0.426539
-0.420372
-0.41388
-0.407029
-0.399653
-0.391481
-0.382258
-0.37185
-0.360284
-0.347743
-0.33448
-0.320848
-0.306908
-0.453509
-0.44631
-0.439394
-0.43247
-0.425103
-0.41712
-0.408245
-0.398167
-0.386701
-0.373879
-0.359934
-0.345223
-0.330112
-0.314994
-0.299867
-0.469265
-0.460983
-0.453214
-0.445455
-0.437018
-0.427574
-0.416778
-0.404366
-0.390323
-0.374912
-0.358575
-0.341801
-0.32501
-0.308568
-0.292375
-0.48569
-0.476353
-0.467724
-0.459018
-0.449248
-0.437951
-0.424788
-0.409653
-0.392791
-0.374722
-0.356067
-0.337385
-0.31909
-0.301474
-0.284331
-0.502353
-0.492025
-0.48252
-0.472709
-0.461286
-0.447706
-0.431752
-0.413591
-0.393784
-0.373097
-0.352269
-0.331863
-0.312248
-0.293601
-0.275644
-0.518704
-0.507477
-0.497071
-0.485949
-0.472509
-0.456221
-0.437124
-0.415753
-0.393001
-0.36983
-0.347025
-0.325103
-0.30435
-0.284819
-0.266204
-0.534082
-0.522076
-0.510724
-0.498046
-0.482213
-0.462844
-0.440366
-0.41574
-0.390164
-0.36472
-0.340173
-0.316953
-0.29525
-0.274989
-0.255894
-0.547737
-0.53509
-0.522728
-0.50823
-0.489656
-0.466932
-0.440977
-0.413193
-0.385015
-0.357567
-0.331539
-0.307251
-0.284789
-0.263965
-0.244582
-0.558858
-0.545716
-0.53227
-0.515697
-0.494105
-0.467882
-0.43851
-0.407792
-0.377318
-0.34818
-0.32095
-0.295833
-0.272812
-0.251604
-0.232123
-0.56661
-0.553124
-0.538518
-0.519652
-0.494874
-0.465164
-0.432585
-0.399268
-0.366867
-0.336379
-0.30824
-0.28254
-0.259167
-0.237768
-0.218363
-0.570173
-0.556491
-0.540663
-0.51936
-0.491361
-0.458338
-0.422897
-0.387402
-0.353489
-0.322014
-0.293267
-0.267227
-0.243707
-0.2223
-0.203115
-0.568787
-0.555052
-0.537971
-0.514183
-0.483078
-0.447064
-0.409218
-0.372037
-0.337062
-0.304983
-0.275939
-0.249807
-0.226326
-0.205036
-0.186129
-0.561786
-0.548136
-0.529817
-0.503609
-0.469661
-0.431109
-0.391403
-0.353072
-0.317511
-0.28523
-0.25623
-0.230296
-0.207079
-0.185985
-0.167193
-0.548632
-0.5352
-0.515717
-0.487272
-0.450878
-0.410346
-0.369386
-0.33047
-0.29481
-0.26274
-0.234146
-0.208753
-0.186133
-0.165557
-0.146729
-0.528942
-0.515861
-0.495352
-0.464965
-0.426633
-0.384756
-0.343178
-0.304248
-0.268976
-0.237539
-0.209716
-0.1852
-0.163386
-0.143456
-0.126307
-0.502504
-0.489906
-0.468575
-0.436641
-0.396969
-0.354421
-0.312871
-0.274487
-0.240077
-0.209716
-0.183037
-0.159676
-0.138967
-0.120219
-0.104845
-0.469288
-0.457304
-0.435415
-0.402418
-0.362058
-0.319523
-0.278625
-0.241336
-0.208271
-0.17934
-0.154164
-0.132287
-0.113024
-0.0958034
-0.0822333
-0.429448
-0.418207
-0.396087
-0.362576
-0.322175
-0.280311
-0.24066
-0.204992
-0.1737
-0.146585
-0.123234
-0.103147
-0.0856246
-0.0701965
-0.0585853
-0.383304
-0.372955
-0.350989
-0.317477
-0.27761
-0.237096
-0.199316
-0.165727
-0.136599
-0.11165
-0.090431
-0.0724115
-0.056894
-0.0435405
-0.034201
-0.331312
-0.322086
-0.300613
-0.267381
-0.228916
-0.190393
-0.154954
-0.12386
-0.0972442
-0.0747679
-0.0559618
-0.0402703
-0.0270498
-0.0161819
-0.00957054
-0.274027
-0.266259
-0.245192
-0.213298
-0.17675
-0.140695
-0.108018
-0.0797565
-0.0559269
-0.0361576
-0.0199689
-0.00682139
0.00373853
0.0114911
0.0149095
-0.212137
-0.206017
-0.186091
-0.155868
-0.121723
-0.0885776
-0.0590117
-0.0338439
-0.0129882
0.00396112
0.0174973
0.0280856
0.0357958
0.0399424
0.0399189
-0.147021
-0.142203
-0.123894
-0.0958228
-0.0645365
-0.0346827
-0.00851722
0.0133479
0.0310998
0.045202
0.0561992
0.0644845
0.0697236
0.0710036
0.0687973
-0.0792793
-0.0759045
-0.0594835
-0.0339846
-0.00595285
0.0202956
0.0428238
0.0612081
0.0757286
0.0869131
0.0953636
0.101423
0.104525
0.104294
0.107241
-0.00991466
-0.00812797
0.00617967
0.0287717
0.0532371
0.0756417
0.0943574
0.109127
0.120304
0.128442
0.134104
0.13752
0.138369
0.13763
0.141613
0.0600099
0.0601248
0.0721243
0.0915542
0.112231
0.130634
0.145431
0.156515
0.164296
0.169336
0.172155
0.172952
0.171653
0.169596
0.171689
0.129438
0.127839
0.137385
0.153478
0.170234
0.184557
0.195397
0.202771
0.207129
0.209026
0.208949
0.20712
0.203637
0.199818
0.199426
0.197328
0.194009
0.201016
0.213682
0.226474
0.236725
0.243642
0.247352
0.24833
0.247116
0.244171
0.239723
0.233936
0.22804
0.225097
0.262671
0.257658
0.262103
0.271336
0.28021
0.286475
0.289574
0.289726
0.287421
0.283185
0.277456
0.270464
0.2624
0.254389
0.248934
0.324504
0.317856
0.31978
0.325656
0.330743
0.333185
0.33264
0.329401
0.32397
0.316855
0.30847
0.299043
0.288784
0.278709
0.270857
0.381925
0.37373
0.373236
0.375912
0.37742
0.376276
0.372323
0.36592
0.357572
0.347771
0.336909
0.325215
0.312906
0.300879
0.290768
0.4341
0.424479
0.421728
0.421433
0.419645
0.415213
0.408149
0.398859
0.387852
0.375602
0.362484
0.348727
0.334552
0.320726
0.308536
0.48028
0.469379
0.464587
0.461617
0.456879
0.44952
0.43969
0.427839
0.414473
0.40005
0.384933
0.369351
0.353525
0.338085
0.324032
0.519805
0.507798
0.501228
0.495936
0.488652
0.478775
0.466571
0.452523
0.437134
0.42085
0.40402
0.386879
0.369639
0.352805
0.337137
0.552116
0.539195
0.531152
0.523942
0.514562
0.502619
0.488471
0.472624
0.455581
0.437773
0.419543
0.401129
0.382735
0.364749
0.347747
0.576755
0.563133
0.553954
0.54527
0.534285
0.520762
0.505129
0.487909
0.469603
0.450633
0.431335
0.411952
0.392677
0.373806
0.355778
0.593375
0.579278
0.569328
0.559644
0.547572
0.532982
0.516346
0.4982
0.47904
0.459286
0.439269
0.419233
0.399364
0.379892
0.361167
0.601744
0.587407
0.577067
0.566878
0.554258
0.539129
0.521988
0.503375
0.483787
0.463637
0.443257
0.422892
0.402724
0.38295
0.363872
0.601744
0.587407
0.577067
0.566878
0.554258
0.539129
0.521988
0.503375
0.483787
0.463637
0.443257
0.422892
0.402724
0.38295
0.363872
0.593375
0.579278
0.569328
0.559644
0.547572
0.532982
0.516346
0.4982
0.47904
0.459286
0.439269
0.419233
0.399364
0.379892
0.361167
0.576755
0.563133
0.553954
0.545271
0.534285
0.520762
0.505129
0.487909
0.469603
0.450633
0.431335
0.411952
0.392677
0.373806
0.355778
0.552116
0.539195
0.531152
0.523942
0.514562
0.502619
0.488471
0.472624
0.455581
0.437773
0.419543
0.401129
0.382735
0.364749
0.347747
0.519805
0.507798
0.501228
0.495937
0.488652
0.478775
0.466571
0.452523
0.437134
0.42085
0.40402
0.386879
0.369639
0.352805
0.337137
0.48028
0.469379
0.464587
0.461617
0.456879
0.44952
0.43969
0.427839
0.414473
0.40005
0.384933
0.369351
0.353525
0.338085
0.324032
0.4341
0.424479
0.421728
0.421433
0.419645
0.415213
0.408149
0.398859
0.387852
0.375602
0.362484
0.348727
0.334552
0.320726
0.308536
0.381925
0.37373
0.373236
0.375912
0.377421
0.376276
0.372323
0.36592
0.357572
0.347771
0.33691
0.325215
0.312906
0.300879
0.290768
0.324504
0.317856
0.31978
0.325656
0.330743
0.333185
0.33264
0.329401
0.32397
0.316855
0.30847
0.299043
0.288784
0.278709
0.270857
0.262671
0.257658
0.262103
0.271336
0.28021
0.286475
0.289574
0.289726
0.287421
0.283185
0.277456
0.270464
0.2624
0.254389
0.248934
0.197328
0.194009
0.201016
0.213682
0.226474
0.236725
0.243642
0.247352
0.24833
0.247116
0.244171
0.239723
0.233936
0.22804
0.225097
0.129438
0.127839
0.137385
0.153478
0.170234
0.184557
0.195397
0.202771
0.207129
0.209026
0.208949
0.20712
0.203637
0.199818
0.199426
0.06001
0.0601249
0.0721243
0.0915543
0.112231
0.130634
0.145431
0.156515
0.164296
0.169336
0.172155
0.172952
0.171653
0.169596
0.171689
-0.00991461
-0.00812791
0.00617972
0.0287717
0.0532372
0.0756418
0.0943574
0.109127
0.120304
0.128442
0.134104
0.13752
0.138369
0.13763
0.141613
-0.0792792
-0.0759045
-0.0594834
-0.0339845
-0.00595281
0.0202957
0.0428238
0.0612081
0.0757286
0.0869131
0.0953636
0.101423
0.104525
0.104294
0.107241
-0.147021
-0.142203
-0.123894
-0.0958227
-0.0645364
-0.0346826
-0.00851718
0.0133479
0.0310998
0.045202
0.0561992
0.0644845
0.0697236
0.0710036
0.0687974
-0.212137
-0.206017
-0.18609
-0.155868
-0.121722
-0.0885776
-0.0590117
-0.0338439
-0.0129881
0.00396115
0.0174973
0.0280856
0.0357958
0.0399424
0.0399189
-0.274027
-0.266259
-0.245192
-0.213298
-0.17675
-0.140695
-0.108018
-0.0797565
-0.0559268
-0.0361576
-0.0199689
-0.00682136
0.00373855
0.0114912
0.0149096
-0.331312
-0.322086
-0.300613
-0.267381
-0.228916
-0.190393
-0.154954
-0.12386
-0.0972441
-0.0747679
-0.0559618
-0.0402703
-0.0270498
-0.0161819
-0.00957051
-0.383304
-0.372955
-0.350989
-0.317477
-0.27761
-0.237095
-0.199316
-0.165727
-0.136599
-0.11165
-0.090431
-0.0724115
-0.0568939
-0.0435405
-0.034201
-0.429448
-0.418207
-0.396087
-0.362576
-0.322175
-0.280311
-0.24066
-0.204992
-0.1737
-0.146584
-0.123234
-0.103147
-0.0856245
-0.0701965
-0.0585853
-0.469288
-0.457304
-0.435415
-0.402418
-0.362058
-0.319523
-0.278625
-0.241336
-0.208271
-0.17934
-0.154164
-0.132287
-0.113024
-0.0958034
-0.0822333
-0.502504
-0.489906
-0.468575
-0.436641
-0.396968
-0.354421
-0.312871
-0.274487
-0.240076
-0.209716
-0.183037
-0.159676
-0.138967
-0.120219
-0.104845
-0.528942
-0.515861
-0.495352
-0.464965
-0.426633
-0.384755
-0.343178
-0.304248
-0.268976
-0.237539
-0.209716
-0.1852
-0.163386
-0.143456
-0.126306
-0.548632
-0.5352
-0.515717
-0.487272
-0.450878
-0.410346
-0.369386
-0.33047
-0.29481
-0.26274
-0.234146
-0.208753
-0.186133
-0.165557
-0.146729
-0.561786
-0.548136
-0.529817
-0.503609
-0.469661
-0.431109
-0.391403
-0.353072
-0.317511
-0.28523
-0.25623
-0.230296
-0.207079
-0.185985
-0.167193
-0.568787
-0.555052
-0.537971
-0.514183
-0.483078
-0.447064
-0.409218
-0.372037
-0.337061
-0.304983
-0.275939
-0.249807
-0.226326
-0.205036
-0.186129
-0.570173
-0.556491
-0.540663
-0.51936
-0.491361
-0.458338
-0.422897
-0.387402
-0.353489
-0.322014
-0.293267
-0.267227
-0.243707
-0.2223
-0.203115
-0.566609
-0.553123
-0.538518
-0.519652
-0.494874
-0.465164
-0.432585
-0.399268
-0.366867
-0.336379
-0.30824
-0.28254
-0.259167
-0.237768
-0.218363
-0.558858
-0.545716
-0.53227
-0.515697
-0.494105
-0.467882
-0.43851
-0.407792
-0.377318
-0.34818
-0.32095
-0.295833
-0.272812
-0.251604
-0.232123
-0.547737
-0.53509
-0.522728
-0.50823
-0.489656
-0.466932
-0.440977
-0.413193
-0.385015
-0.357567
-0.331539
-0.307251
-0.284789
-0.263965
-0.244582
-0.534082
-0.522076
-0.510724
-0.498046
-0.482213
-0.462844
-0.440366
-0.41574
-0.390164
-0.36472
-0.340173
-0.316953
-0.29525
-0.274989
-0.255894
-0.518704
-0.507477
-0.497071
-0.485949
-0.472508
-0.456221
-0.437124
-0.415753
-0.393001
-0.36983
-0.347025
-0.325103
-0.30435
-0.284819
-0.266204
-0.502353
-0.492025
-0.48252
-0.472709
-0.461286
-0.447706
-0.431752
-0.413591
-0.393784
-0.373097
-0.352269
-0.331863
-0.312248
-0.293601
-0.275644
-0.48569
-0.476353
-0.467724
-0.459018
-0.449248
-0.437951
-0.424788
-0.409653
-0.392791
-0.374722
-0.356067
-0.337385
-0.31909
-0.301474
-0.284331
-0.469265
-0.460983
-0.453214
-0.445455
-0.437018
-0.427574
-0.416778
-0.404366
-0.390323
-0.374912
-0.358575
-0.341801
-0.32501
-0.308568
-0.292375
-0.453509
-0.44631
-0.439394
-0.43247
-0.425103
-0.41712
-0.408245
-0.398167
-0.386701
-0.373879
-0.359934
-0.345223
-0.330112
-0.314994
-0.299867
-0.438731
-0.432611
-0.426539
-0.420372
-0.41388
-0.407029
-0.399653
-0.391481
-0.382258
-0.37185
-0.360284
-0.347743
-0.33448
-0.320848
-0.306908
-0.425135
-0.42006
-0.414811
-0.409346
-0.403588
-0.397612
-0.391372
-0.384691
-0.377328
-0.369066
-0.359772
-0.349443
-0.33817
-0.326209
-0.313564
-0.41284
-0.408747
-0.404281
-0.399471
-0.394344
-0.389056
-0.383667
-0.37811
-0.372222
-0.36578
-0.358563
-0.35041
-0.341229
-0.331134
-0.319972
-0.401908
-0.398707
-0.394964
-0.390752
-0.386176
-0.381443
-0.376695
-0.371972
-0.367212
-0.362251
-0.356851
-0.350754
-0.343696
-0.335667
-0.326159
-0.392375
-0.389948
-0.386843
-0.383162
-0.379065
-0.37479
-0.370536
-0.366436
-0.362525
-0.35873
-0.354854
-0.350618
-0.345639
-0.339807
-0.332394
-0.384268
-0.382467
-0.379893
-0.376666
-0.372982
-0.369093
-0.365239
-0.361618
-0.358353
-0.35546
-0.352822
-0.350196
-0.347155
-0.343527
-0.338584
-0.377595
-0.376245
-0.374086
-0.371239
-0.367911
-0.364362
-0.360855
-0.357631
-0.354878
-0.352688
-0.351032
-0.349734
-0.348423
-0.34675
-0.345264
-0.372318
-0.371229
-0.369369
-0.366839
-0.363838
-0.360616
-0.357447
-0.354596
-0.352288
-0.350674
-0.349792
-0.349548
-0.34969
-0.349353
-0.352194
-0.368309
-0.367302
-0.36564
-0.363389
-0.360712
-0.357845
-0.355056
-0.352611
-0.350752
-0.349661
-0.349422
-0.349998
-0.351213
-0.352308
-0.352108
-0.365339
-0.364264
-0.362727
-0.360742
-0.358419
-0.35597
-0.353644
-0.351697
-0.350361
-0.349823
-0.350191
-0.351471
-0.353602
-0.356385
-0.35575
-0.363071
-0.361841
-0.360394
-0.358685
-0.356765
-0.354818
-0.35307
-0.351747
-0.351058
-0.351174
-0.352203
-0.354179
-0.357119
-0.360997
-0.362108
-0.361104
-0.359714
-0.358366
-0.356962
-0.355503
-0.354146
-0.353086
-0.352519
-0.352617
-0.353521
-0.355322
-0.35806
-0.361789
-0.366423
-0.369718
-0.359026
-0.357558
-0.356361
-0.355309
-0.354364
-0.353665
-0.35338
-0.353668
-0.354665
-0.356475
-0.359164
-0.36277
-0.367347
-0.372719
-0.377899
-0.356472
-0.355083
-0.354127
-0.353476
-0.353086
-0.353081
-0.353607
-0.354793
-0.356738
-0.359514
-0.363159
-0.367704
-0.373184
-0.379355
-0.38597
-0.353169
-0.352065
-0.35146
-0.351257
-0.351436
-0.352119
-0.353436
-0.35549
-0.358355
-0.362072
-0.366662
-0.372143
-0.378519
-0.385479
-0.393245
-0.348975
-0.348379
-0.348233
-0.348507
-0.34924
-0.350561
-0.352592
-0.355421
-0.359103
-0.363661
-0.369103
-0.375439
-0.382637
-0.390339
-0.399058
-0.343907
-0.344022
-0.344422
-0.345175
-0.346417
-0.348292
-0.350921
-0.354385
-0.358731
-0.363974
-0.370115
-0.377161
-0.385049
-0.393403
-0.402818
-0.338156
-0.339134
-0.340126
-0.341337
-0.34302
-0.345343
-0.348433
-0.352375
-0.357212
-0.362959
-0.369617
-0.377189
-0.385567
-0.394404
-0.404497
-0.332092
-0.334
-0.335586
-0.337207
-0.339249
-0.341911
-0.345329
-0.349595
-0.354757
-0.360831
-0.36782
-0.375718
-0.384382
-0.393576
-0.404361
-0.326217
-0.329031
-0.331164
-0.333126
-0.335443
-0.338343
-0.341975
-0.346438
-0.351784
-0.358032
-0.365189
-0.373231
-0.38201
-0.391415
-0.402414
-0.321108
-0.324707
-0.327293
-0.329519
-0.332031
-0.335086
-0.338841
-0.343406
-0.348836
-0.355151
-0.362356
-0.370414
-0.379193
-0.38867
-0.399584
-0.317325
-0.321501
-0.324411
-0.326815
-0.32945
-0.332594
-0.336414
-0.341021
-0.346475
-0.352798
-0.359989
-0.368003
-0.376728
-0.386192
-0.396921
-0.31531
-0.319792
-0.322871
-0.325364
-0.328059
-0.331243
-0.335088
-0.339709
-0.345165
-0.351478
-0.358647
-0.36662
-0.375297
-0.384731
-0.395327
-0.41533
-0.434304
-0.4436
-0.436559
-0.411837
-0.369016
-0.31006
-0.239636
-0.165736
-0.0963693
-0.0378185
0.00726507
0.0392186
0.0600009
0.072196
0.0782172
0.0800161
0.0790497
0.076361
0.0726729
0.0684709
0.0640697
0.0596655
0.0553726
0.0512525
0.0473336
0.0436261
0.0401307
0.0368438
0.0337604
0.0308743
0.0281795
0.0256679
0.0233319
0.0211601
0.019144
0.0172686
0.0155262
0.0138979
0.0123805
0.0109493
0.00961052
0.00832829
0.00712732
0.00595035
0.00485241
0.00373283
0.0027149
0.00160388
0.000647267
-0.417772
-0.43693
-0.446583
-0.440103
-0.416013
-0.373767
-0.315127
-0.244596
-0.1702
-0.100125
-0.0408541
0.00486328
0.0373161
0.0584839
0.0709788
0.0772361
0.0792213
0.0784019
0.075828
0.07223
0.0680994
0.0637562
0.0593997
0.0551472
0.0510615
0.0471722
0.04349
0.0400163
0.0367478
0.03368
0.030807
0.0281233
0.0256209
0.0232925
0.0211272
0.0191164
0.0172454
0.0155068
0.0138817
0.0123669
0.010938
0.00960105
0.00832047
0.00712079
0.00594473
0.004848
0.00372976
0.00271269
0.0016026
0.000646436
-0.421981
-0.441481
-0.451837
-0.446428
-0.42359
-0.382501
-0.324559
-0.253969
-0.178785
-0.107434
-0.0467199
0.000132962
0.0335295
0.0554494
0.068539
0.0752693
0.07763
0.0771072
0.0747653
0.0713489
0.067362
0.0631345
0.0588734
0.054701
0.0506834
0.0468525
0.0432204
0.0397896
0.0365575
0.0335205
0.0306735
0.0280116
0.0255274
0.0232143
0.0210616
0.0190614
0.0171994
0.0154681
0.0138492
0.0123397
0.0109153
0.00958214
0.00830488
0.00710779
0.0059336
0.00483941
0.00372367
0.00270825
0.00160005
0.000644782
-0.426775
-0.446762
-0.458153
-0.454275
-0.433252
-0.393906
-0.337144
-0.266873
-0.19084
-0.117661
-0.0551994
-0.00680356
0.0279109
0.0509104
0.0648762
0.0723145
0.0752424
0.0751698
0.0731802
0.070039
0.0662689
0.0622151
0.0580962
0.0540426
0.0501256
0.0463808
0.0428223
0.0394544
0.0362759
0.0332843
0.0304756
0.0278458
0.0253885
0.0230979
0.0209641
0.0189796
0.0171307
0.0154105
0.0138009
0.0122992
0.0108814
0.0095539
0.00828156
0.0070885
0.00591721
0.00482712
0.00371451
0.00270164
0.00159623
0.000642316
-0.430787
-0.451409
-0.46421
-0.462205
-0.443504
-0.406487
-0.351527
-0.282133
-0.205216
-0.130154
-0.0660103
-0.0157679
0.0205481
0.0449072
0.0600084
0.0683815
0.0720672
0.0725993
0.0710848
0.068314
0.0648344
0.0610119
0.057081
0.0531833
0.0493979
0.045765
0.0423023
0.0390161
0.0359071
0.0329746
0.0302157
0.0276278
0.0252057
0.0229445
0.0208354
0.0188716
0.0170399
0.0153342
0.0137369
0.0122455
0.0108365
0.00951647
0.00825063
0.00706308
0.0058963
0.00481275
0.00370165
0.00269286
0.00159121
0.000639061
-0.432862
-0.454221
-0.46878
-0.468943
-0.453012
-0.418909
-0.366488
-0.29785
-0.220721
-0.144685
-0.0786819
-0.0265127
0.0115821
0.0375206
0.0539833
0.0635006
0.0681259
0.0694138
0.0684963
0.066191
0.0630752
0.0595408
0.0558424
0.0521363
0.0485115
0.0450147
0.0416679
0.0384807
0.0354561
0.0325951
0.0298968
0.0273599
0.0249807
0.0227556
0.0206766
0.0187381
0.0169278
0.0152399
0.0136577
0.012179
0.0107809
0.00947002
0.0082122
0.00703155
0.00587114
0.00479039
0.00368468
0.00268165
0.00158508
0.000635112
-0.431866
-0.454571
-0.470937
-0.473579
-0.46067
-0.429839
-0.380242
-0.313673
-0.236996
-0.160285
-0.0927349
-0.0387309
0.00120879
0.0288766
0.0468835
0.0577267
0.0634559
0.0656401
0.0654367
0.0636895
0.0610095
0.0578185
0.0543955
0.0509148
0.0474778
0.0441394
0.0409274
0.037855
0.0349281
0.0321502
0.0295222
0.0270447
0.0247156
0.0225326
0.020489
0.0185803
0.0167949
0.0151281
0.0135636
0.0121
0.0107147
0.00941475
0.00816647
0.00699394
0.0058411
0.00476435
0.00366892
0.00266736
0.0015774
0.000630529
-0.427957
-0.452086
-0.470296
-0.475501
-0.465854
-0.43868
-0.392559
-0.32846
-0.253032
-0.176301
-0.107683
-0.05208
-0.0103388
0.0191339
0.038817
0.0511329
0.0581059
0.0613113
0.06193
0.0608293
0.0586544
0.0558605
0.0527546
0.0495317
0.0463081
0.0431489
0.0400886
0.0371453
0.0343284
0.031644
0.0290953
0.026685
0.0244125
0.0222773
0.0202739
0.018399
0.0166422
0.0149994
0.0134553
0.0120089
0.0106383
0.0093509
0.00811361
0.00695034
0.0058061
0.00473646
0.00364638
0.00265002
0.00156729
0.000624956
-0.421775
-0.446904
-0.466928
-0.474846
-0.468364
-0.444858
-0.40251
-0.341602
-0.268189
-0.192167
-0.123073
-0.0662274
-0.0228246
0.00845873
0.0299008
0.0438005
0.0521316
0.0564651
0.0580004
0.0576284
0.056025
0.0536803
0.0509319
0.0479982
0.0450125
0.042052
0.0391593
0.0363583
0.0336625
0.031081
0.0286197
0.0262835
0.0240738
0.0219915
0.0200329
0.0181956
0.0164706
0.0148546
0.0133333
0.0119061
0.0105521
0.00927874
0.00805385
0.00690099
0.0057665
0.00470517
0.00362241
0.0026322
0.00155768
0.000618235
-0.414119
-0.439671
-0.461132
-0.471669
-0.468233
-0.448238
-0.409761
-0.352578
-0.281941
-0.20741
-0.138499
-0.0808405
-0.035988
-0.00294869
0.0202871
0.0358433
0.0456157
0.0511601
0.0536873
0.0541133
0.0531399
0.0512922
0.0489391
0.0463246
0.0436003
0.0408568
0.0381466
0.0354999
0.0329353
0.0304654
0.028099
0.0258433
0.0237018
0.0216772
0.0197673
0.0179713
0.0162811
0.0146945
0.0131982
0.0117922
0.0104565
0.00919859
0.00798741
0.00684609
0.00572252
0.00467012
0.00359647
0.00261198
0.00154592
0.000611684
-0.406048
-0.431083
-0.453394
-0.466208
-0.465553
-0.448893
-0.414176
-0.360996
-0.293802
-0.221506
-0.153423
-0.0954128
-0.0493894
-0.0147313
0.0102539
0.0274699
0.0387092
0.0455017
0.0490641
0.0503341
0.0500342
0.0487204
0.0467938
0.0445239
0.0420815
0.0395716
0.0370569
0.0345755
0.0321511
0.0298005
0.0275357
0.0253663
0.023298
0.0213355
0.0194782
0.0177267
0.0160742
0.0145195
0.0130503
0.0116674
0.0103515
0.00911047
0.00791433
0.00678563
0.00567412
0.0046314
0.0035681
0.0025907
0.00153408
0.000604552
-0.398354
-0.421801
-0.444213
-0.458814
-0.460553
-0.446883
-0.41578
-0.366581
-0.303265
-0.23386
-0.167247
-0.109419
-0.0626177
-0.0265894
8.90761e-06
0.0188171
0.0314976
0.0395403
0.0441613
0.0463133
0.0467287
0.0459844
0.0445129
0.0426106
0.0404683
0.0382064
0.0358989
0.0335922
0.0313159
0.0290913
0.0269337
0.0248556
0.022865
0.0209684
0.0191671
0.0174629
0.0158506
0.0143301
0.01289
0.0115317
0.0102373
0.00901442
0.00783456
0.00671955
0.00562123
0.00458901
0.00353729
0.00256784
0.00152195
0.000597176
-0.391306
-0.412296
-0.434013
-0.449856
-0.45355
-0.442528
-0.41488
-0.369817
-0.310841
-0.24514
-0.180825
-0.123823
-0.0766334
-0.0393851
-0.0111621
0.00932715
0.0235647
0.0329779
0.0387707
0.041904
0.0431287
0.0430317
0.0420723
0.040578
0.0387647
0.0367714
0.0346862
0.0325652
0.0304454
0.0283532
0.0263079
0.024325
0.0224151
0.020587
0.0188436
0.0171885
0.0156179
0.0141326
0.0127226
0.0113899
0.0101176
0.00891367
0.00775077
0.00665007
0.0055656
0.00454446
0.00350514
0.00254398
0.00151002
0.000589437
-0.384773
-0.402742
-0.422994
-0.439021
-0.444392
-0.436004
-0.41218
-0.37206
-0.318369
-0.257413
-0.196235
-0.140485
-0.0929895
-0.0543635
-0.024197
-0.00165603
0.0144805
0.0255469
0.0327307
0.0370027
0.0391468
0.039794
0.0394258
0.0383993
0.0369582
0.0352645
0.0334235
0.031504
0.0295519
0.0276002
0.0256729
0.0237894
0.021963
0.0202051
0.0185209
0.0169155
0.0153868
0.0139367
0.0125568
0.0112495
0.00999925
0.00881395
0.00766793
0.00658133
0.0055108
0.00450048
0.00347408
0.00252065
0.00150029
0.000581646
-0.379283
-0.393223
-0.411089
-0.42621
-0.432038
-0.42543
-0.404737
-0.368992
-0.320173
-0.26348
-0.205285
-0.151059
-0.10402
-0.0650783
-0.0339697
-0.0102027
0.00716016
0.0193374
0.0274876
0.0325818
0.0354186
0.0366452
0.0367708
0.0361601
0.035065
0.0336583
0.0320563
0.0303372
0.0285547
0.0267473
0.0249435
0.0231658
0.0214303
0.0197502
0.0181327
0.0165843
0.0151045
0.0136962
0.0123524
0.0110756
0.00985256
0.00868979
0.00756507
0.00649515
0.00544274
0.00444451
0.00343568
0.00248964
0.0014895
0.000571124
-0.336583
-0.350728
-0.369251
-0.383241
-0.388194
-0.38194
-0.363531
-0.332559
-0.290319
-0.240836
-0.189656
-0.141861
-0.100694
-0.0669767
-0.0398407
-0.0186515
-0.00283938
0.00855948
0.0166144
0.0221393
0.0257008
0.0277714
0.0287599
0.0289821
0.0286624
0.0279586
0.026985
0.0258259
0.0245442
0.0231871
0.0217901
0.02038
0.0189771
0.0175966
0.0162491
0.0149419
0.0136786
0.0124616
0.0112896
0.0101625
0.00907548
0.0080285
0.00701325
0.006032
0.0050719
0.00414044
0.00321683
0.00231774
0.00140648
0.0005119
-0.264532
-0.280945
-0.284455
-0.280861
-0.272598
-0.260174
-0.243253
-0.221727
-0.196264
-0.168437
-0.14038
-0.113904
-0.090092
-0.0694855
-0.0522393
-0.0378481
-0.0259271
-0.0162623
-0.00849871
-0.00228769
0.00262407
0.00642918
0.00930722
0.0114305
0.0129469
0.0139719
0.0145954
0.0148924
0.0149271
0.0147533
0.0144144
0.0139456
0.0133755
0.0127281
0.0120232
0.0112776
0.0105039
0.00971357
0.00891392
0.00811266
0.00731248
0.00651907
0.00573068
0.00495309
0.00417941
0.00341829
0.00265541
0.00190706
0.00114702
0.000408253
-0.203957
-0.214566
-0.21554
-0.211612
-0.205439
-0.197762
-0.188325
-0.176832
-0.163003
-0.146926
-0.129285
-0.111149
-0.0935435
-0.0772104
-0.0625213
-0.0494533
-0.0378354
-0.027733
-0.0193111
-0.0124534
-0.00687756
-0.00234707
0.00126927
0.00407812
0.00621053
0.00779302
0.00892564
0.00968751
0.0101464
0.0103614
0.0103815
0.0102469
0.0099898
0.00963722
0.00921099
0.00872918
0.00820553
0.00765163
0.00707542
0.0064846
0.00588285
0.00527594
0.00466387
0.00405241
0.00343759
0.0028275
0.0022123
0.00160513
0.00098369
0.000365105
-0.155744
-0.164652
-0.166245
-0.163263
-0.158444
-0.152679
-0.145823
-0.137285
-0.126917
-0.115112
-0.102535
-0.0898743
-0.077671
-0.0662607
-0.055813
-0.0463821
-0.0379662
-0.0305578
-0.0241306
-0.018611
-0.0139144
-0.00997461
-0.00669924
-0.00398255
-0.00174191
8.75008e-05
0.0015656
0.00274306
0.00366112
0.0043558
0.00485915
0.00519915
0.00539985
0.00548245
0.00546551
0.00536554
0.0051963
0.00497009
0.00469648
0.00438478
0.0040411
0.00367289
0.00328303
0.00287839
0.00245834
0.00203087
0.00159049
0.00114887
0.000693446
0.000245705
-0.120272
-0.12723
-0.128725
-0.126921
-0.123645
-0.119645
-0.114952
-0.109385
-0.102879
-0.0955718
-0.0877445
-0.079672
-0.0715588
-0.063582
-0.0559033
-0.0486484
-0.0418898
-0.0356662
-0.030012
-0.0249509
-0.0204761
-0.0165518
-0.0131284
-0.0101583
-0.00760058
-0.00541741
-0.00357427
-0.00203595
-0.000767605
0.000263464
0.00108743
0.0017311
0.00221849
0.00257133
0.00280889
0.00294849
0.00300491
0.00299135
0.00291856
0.00279667
0.00263315
0.00243604
0.00220993
0.00196187
0.00169357
0.00141249
0.00111682
0.000816034
0.000502074
0.000185647
-0.094731
-0.100098
-0.101578
-0.100625
-0.0985331
-0.0959068
-0.0928536
-0.0892427
-0.0849691
-0.0800451
-0.0745407
-0.0686075
-0.0624771
-0.0563652
-0.0504259
-0.0447544
-0.0394097
-0.0344334
-0.0298559
-0.0256908
-0.0219333
-0.0185673
-0.0155728
-0.0129271
-0.010605
-0.00857985
-0.00682472
-0.00531381
-0.00402289
-0.00292874
-0.00200915
-0.00124312
-0.000612241
-0.000100394
0.000306763
0.00062231
0.000857737
0.00102353
0.00112862
0.0011815
0.001189
0.00115817
0.00109396
0.00100262
0.000887225
0.000753941
0.000603706
0.000443446
0.000271305
9.65599e-05
-0.0753937
-0.0796568
-0.0810486
-0.0806608
-0.0793678
-0.0777193
-0.075758
-0.0733641
-0.0704399
-0.0669719
-0.063043
-0.0588061
-0.054427
-0.0500374
-0.0457187
-0.0415205
-0.0374795
-0.0336279
-0.0299928
-0.0265941
-0.0234437
-0.0205464
-0.0179003
-0.0154987
-0.0133321
-0.0113889
-0.00965594
-0.00811963
-0.00676585
-0.00558026
-0.0045484
-0.00365613
-0.00289017
-0.00223808
-0.00168814
-0.00122929
-0.000851346
-0.000544861
-0.000301348
-0.000112837
2.76401e-05
0.000126799
0.000190234
0.00022369
0.000231558
0.00021896
0.000189225
0.000147105
9.46786e-05
3.54737e-05
-0.0608221
-0.0642161
-0.0654761
-0.0653989
-0.064666
-0.0636669
-0.0624205
-0.0608463
-0.058867
-0.0564822
-0.0537596
-0.0507936
-0.0476742
-0.0444735
-0.0412428
-0.038023
-0.0348545
-0.0317757
-0.0288191
-0.0260091
-0.023363
-0.0208911
-0.0185981
-0.0164844
-0.0145478
-0.0127835
-0.0111843
-0.00974183
-0.00844701
-0.0072902
-0.0062614
-0.00535044
-0.0045474
-0.0038428
-0.00322758
-0.00269316
-0.0022314
-0.00183474
-0.00149611
-0.00120903
-0.000967359