/*--------------------------------*- C++ -*----------------------------------*\
  =========                 |
  \\      /  F ield         | OpenFOAM: The Open Source CFD Toolbox
   \\    /   O peration     | Website:  https://openfoam.org
    \\  /    A nd           | Version:  7
     \\/     M anipulation  |
\*---------------------------------------------------------------------------*/
FoamFile
{
    version     2.0;
    format      ascii;
    class       volScalarField;
    location    "10";
    object      p;
}
// * * * * * * * * * * * * * * * * * * * * * * * * * * * * * * * * * * * * * //

dimensions      [0 2 -2 0 0 0 0];

internalField   nonuniform List<scalar> 
13250
(
-0.277003
-0.278729
-0.279941
-0.280851
-0.28168
-0.282495
-0.283346
-0.284277
-0.285325
-0.286522
-0.287902
-0.289502
-0.291358
-0.293531
-0.296213
-0.277554
-0.279205
-0.28037
-0.281248
-0.282052
-0.282845
-0.283674
-0.284584
-0.28561
-0.286783
-0.288136
-0.289708
-0.291529
-0.293655
-0.296323
-0.278615
-0.280125
-0.281198
-0.282015
-0.282767
-0.283513
-0.284298
-0.285163
-0.286142
-0.287263
-0.288559
-0.290069
-0.291817
-0.293847
-0.296477
-0.280109
-0.281425
-0.282372
-0.283099
-0.283772
-0.284445
-0.285159
-0.285952
-0.286852
-0.287887
-0.289088
-0.290496
-0.292128
-0.294007
-0.296557
-0.281937
-0.283028
-0.28382
-0.284433
-0.285001
-0.285573
-0.286184
-0.286869
-0.287653
-0.288561
-0.289621
-0.290876
-0.292343
-0.294015
-0.29641
-0.283994
-0.284848
-0.28547
-0.285948
-0.286386
-0.286825
-0.287298
-0.287836
-0.28846
-0.289192
-0.290057
-0.291099
-0.292347
-0.293759
-0.295834
-0.286182
-0.286809
-0.287257
-0.287583
-0.287866
-0.288141
-0.288439
-0.288787
-0.289205
-0.289709
-0.290322
-0.291089
-0.29206
-0.293186
-0.294636
-0.28843
-0.288855
-0.289132
-0.289295
-0.289401
-0.289482
-0.289568
-0.289685
-0.289851
-0.290079
-0.290389
-0.290824
-0.291424
-0.292121
-0.293516
-0.290699
-0.290958
-0.291073
-0.291063
-0.290972
-0.290832
-0.290674
-0.290525
-0.290402
-0.290316
-0.29028
-0.290335
-0.290507
-0.290704
-0.291739
-0.29299
-0.293119
-0.293083
-0.292892
-0.292587
-0.292203
-0.291777
-0.291337
-0.290902
-0.29048
-0.290075
-0.289717
-0.289419
-0.289022
-0.289385
-0.295348
-0.295376
-0.295194
-0.294813
-0.294278
-0.293632
-0.292919
-0.292175
-0.291421
-0.290663
-0.289893
-0.28912
-0.288337
-0.287264
-0.286566
-0.297852
-0.297795
-0.297464
-0.296879
-0.296097
-0.295173
-0.294163
-0.29311
-0.292042
-0.290964
-0.289854
-0.288695
-0.287452
-0.285687
-0.283464
-0.300616
-0.300467
-0.299968
-0.29916
-0.298111
-0.296894
-0.295576
-0.294213
-0.29284
-0.291461
-0.290043
-0.288531
-0.286853
-0.284385
-0.280254
-0.303772
-0.303498
-0.302804
-0.301743
-0.300402
-0.298872
-0.297234
-0.295557
-0.293883
-0.292217
-0.290516
-0.288693
-0.286585
-0.283242
-0.277305
-0.30746
-0.307008
-0.306073
-0.30472
-0.303056
-0.301189
-0.299216
-0.297216
-0.295238
-0.293294
-0.291348
-0.289318
-0.286983
-0.283023
-0.277925
-0.311823
-0.311115
-0.309879
-0.308188
-0.306164
-0.303932
-0.301603
-0.299263
-0.296968
-0.294736
-0.292548
-0.290372
-0.288146
-0.285392
-0.289624
-0.316992
-0.315937
-0.314329
-0.312248
-0.309821
-0.307191
-0.30448
-0.301777
-0.299135
-0.296568
-0.29406
-0.291596
-0.289186
-0.286902
-0.288308
-0.323087
-0.321582
-0.319523
-0.316995
-0.314121
-0.31106
-0.307937
-0.304838
-0.301799
-0.298818
-0.295857
-0.29289
-0.289875
-0.287157
-0.285315
-0.330215
-0.328148
-0.325559
-0.322526
-0.319161
-0.315631
-0.31206
-0.308512
-0.304996
-0.30147
-0.297862
-0.294111
-0.290119
-0.286225
-0.281942
-0.338465
-0.335723
-0.332527
-0.328936
-0.325037
-0.320998
-0.316924
-0.312843
-0.308718
-0.304457
-0.299947
-0.295102
-0.289818
-0.284357
-0.277983
-0.347903
-0.344382
-0.340507
-0.336312
-0.331838
-0.327235
-0.322575
-0.317829
-0.3129
-0.30765
-0.301948
-0.295718
-0.288912
-0.281747
-0.273737
-0.358571
-0.354172
-0.349561
-0.344722
-0.339626
-0.334383
-0.329008
-0.3234
-0.317405
-0.310863
-0.303671
-0.295817
-0.287347
-0.278511
-0.269044
-0.370462
-0.365106
-0.359715
-0.354199
-0.34842
-0.342421
-0.336138
-0.3294
-0.322018
-0.313861
-0.30491
-0.295264
-0.285084
-0.274673
-0.263922
-0.383513
-0.377142
-0.370943
-0.364712
-0.35816
-0.351233
-0.343779
-0.335576
-0.326455
-0.316379
-0.305462
-0.293939
-0.282074
-0.27021
-0.258269
-0.397577
-0.390161
-0.38314
-0.376145
-0.368686
-0.36059
-0.351632
-0.341589
-0.330384
-0.318139
-0.305136
-0.291733
-0.278264
-0.265071
-0.252037
-0.412409
-0.403954
-0.396104
-0.388271
-0.379715
-0.370142
-0.359295
-0.347032
-0.333449
-0.318874
-0.303755
-0.288538
-0.273583
-0.259185
-0.245153
-0.427655
-0.418202
-0.409519
-0.400735
-0.390833
-0.379418
-0.366284
-0.351464
-0.335298
-0.318333
-0.301153
-0.284242
-0.267942
-0.252464
-0.237549
-0.442844
-0.432469
-0.422943
-0.413053
-0.401501
-0.387857
-0.372067
-0.354438
-0.335594
-0.316282
-0.297167
-0.27872
-0.261232
-0.244803
-0.229142
-0.457396
-0.446204
-0.435812
-0.42462
-0.411085
-0.394839
-0.376101
-0.355528
-0.33403
-0.312502
-0.29163
-0.271832
-0.253322
-0.236082
-0.219832
-0.470629
-0.458751
-0.447455
-0.434736
-0.418884
-0.399725
-0.377863
-0.354343
-0.330324
-0.306787
-0.284378
-0.263433
-0.244075
-0.226173
-0.209506
-0.481791
-0.469373
-0.457121
-0.442639
-0.424178
-0.401898
-0.376876
-0.350536
-0.324228
-0.298943
-0.275248
-0.253376
-0.233355
-0.214956
-0.198055
-0.490089
-0.477284
-0.464016
-0.447556
-0.426274
-0.400798
-0.372723
-0.343811
-0.31552
-0.288792
-0.264083
-0.24152
-0.22104
-0.202337
-0.185382
-0.494724
-0.481686
-0.467348
-0.448744
-0.424541
-0.395944
-0.365063
-0.333923
-0.304013
-0.276175
-0.250735
-0.227723
-0.207004
-0.188211
-0.171383
-0.494935
-0.481816
-0.466374
-0.445538
-0.418446
-0.386952
-0.353632
-0.320689
-0.289567
-0.260969
-0.235089
-0.211863
-0.191103
-0.172388
-0.155796
-0.49004
-0.476984
-0.460439
-0.437381
-0.407574
-0.373542
-0.338252
-0.303989
-0.272093
-0.243109
-0.217097
-0.193905
-0.173263
-0.154627
-0.138122
-0.479465
-0.466613
-0.449013
-0.423852
-0.39164
-0.355543
-0.318825
-0.283767
-0.251559
-0.222583
-0.196779
-0.17392
-0.153615
-0.135072
-0.118321
-0.462779
-0.450265
-0.431718
-0.404683
-0.370491
-0.332893
-0.295337
-0.260024
-0.227974
-0.199412
-0.174181
-0.151975
-0.132324
-0.114344
-0.0988391
-0.43971
-0.427668
-0.408339
-0.379756
-0.344109
-0.305633
-0.267851
-0.232825
-0.201396
-0.17365
-0.149368
-0.128145
-0.109415
-0.0924758
-0.0785826
-0.410163
-0.398725
-0.378838
-0.349119
-0.312607
-0.273908
-0.236502
-0.202287
-0.171943
-0.145414
-0.122402
-0.102479
-0.0850181
-0.0694484
-0.0572161
-0.374225
-0.363517
-0.343354
-0.312989
-0.276242
-0.237921
-0.201477
-0.168595
-0.139753
-0.114811
-0.0934039
-0.0750755
-0.0591788
-0.0452341
-0.0347977
-0.332153
-0.322303
-0.302201
-0.271721
-0.235373
-0.197896
-0.163047
-0.131981
-0.105046
-0.0820314
-0.0625376
-0.0460776
-0.0320026
-0.019956
-0.0116248
-0.284344
-0.275519
-0.255822
-0.225641
-0.190153
-0.15449
-0.12162
-0.0927564
-0.0680737
-0.0472934
-0.0299905
-0.015653
-0.00367931
0.0060717
0.0118359
-0.231297
-0.223767
-0.204657
-0.175305
-0.141508
-0.108016
-0.0775896
-0.0512687
-0.0291156
-0.0108061
0.00409933
0.0161021
0.0256269
0.0324782
0.0352449
-0.17362
-0.167762
-0.149491
-0.121616
-0.0899342
-0.0590431
-0.0314268
-0.00792485
0.0115017
0.0272157
0.0396743
0.0493139
0.0561985
0.0596835
0.0592805
-0.112587
-0.108063
-0.0911929
-0.0652222
-0.0361018
-0.00819441
0.0163095
0.0367698
0.0533266
0.0664017
0.0765037
0.0840059
0.0885978
0.0894228
0.0870257
-0.0488602
-0.0457245
-0.0305693
-0.00690899
0.0192569
0.0438571
0.0649994
0.0822277
0.0957756
0.10613
0.113856
0.119285
0.1219
0.121346
0.123798
0.0166456
0.0182569
0.031468
0.0524814
0.0753738
0.0964158
0.114008
0.127857
0.138273
0.14577
0.150881
0.153834
0.154335
0.153301
0.156719
0.0829031
0.0829057
0.0939785
0.112083
0.131467
0.148778
0.162699
0.173084
0.180302
0.184879
0.18731
0.187794
0.186264
0.183978
0.185598
0.148882
0.147233
0.15602
0.171031
0.186759
0.200244
0.210438
0.217321
0.221304
0.222908
0.222598
0.220594
0.216987
0.213021
0.212281
0.213563
0.210256
0.216665
0.228478
0.24049
0.250138
0.256623
0.260035
0.260811
0.259463
0.25643
0.251937
0.246137
0.240193
0.23702
0.275956
0.271014
0.275014
0.283608
0.29193
0.297807
0.300671
0.300701
0.298355
0.294131
0.288448
0.281529
0.273556
0.265594
0.260024
0.335111
0.32859
0.330211
0.335645
0.340387
0.342637
0.342033
0.338833
0.333506
0.326536
0.318319
0.309075
0.299005
0.289071
0.281208
0.390136
0.38212
0.381453
0.383864
0.385213
0.38405
0.380197
0.373976
0.365863
0.356326
0.345741
0.334329
0.322298
0.310495
0.300469
0.440206
0.43081
0.428002
0.427599
0.425814
0.421517
0.414691
0.40571
0.395053
0.383172
0.370427
0.357038
0.34322
0.329694
0.317673
0.484575
0.473942
0.469194
0.466251
0.461656
0.454563
0.445091
0.433656
0.420739
0.406776
0.392114
0.376976
0.361574
0.346501
0.33269
0.522589
0.510884
0.504443
0.499292
0.492268
0.482766
0.47102
0.457479
0.442621
0.426872
0.410566
0.393932
0.377173
0.360761
0.345399
0.553689
0.541099
0.533253
0.526276
0.51725
0.50577
0.492159
0.476891
0.460445
0.443233
0.425583
0.407726
0.389857
0.372339
0.355694
0.577419
0.564149
0.55522
0.546837
0.536277
0.523282
0.508246
0.49166
0.474
0.455671
0.436995
0.418206
0.399492
0.381123
0.36349
0.593434
0.579703
0.570037
0.5607
0.5491
0.535082
0.519082
0.501606
0.483127
0.464044
0.444675
0.425258
0.405973
0.387027
0.368724
0.6015
0.587536
0.577498
0.567678
0.555553
0.541019
0.524534
0.50661
0.487717
0.468255
0.448537
0.428804
0.409231
0.389994
0.371351
0.6015
0.587536
0.577498
0.567678
0.555553
0.541019
0.524534
0.50661
0.487717
0.468255
0.448537
0.428804
0.409231
0.389994
0.371351
0.593434
0.579703
0.570037
0.5607
0.5491
0.535082
0.519082
0.501606
0.483127
0.464044
0.444675
0.425258
0.405973
0.387027
0.368724
0.577419
0.564149
0.55522
0.546837
0.536277
0.523282
0.508246
0.49166
0.474
0.455671
0.436995
0.418206
0.399492
0.381123
0.36349
0.553689
0.541099
0.533253
0.526276
0.51725
0.50577
0.492159
0.476891
0.460445
0.443233
0.425583
0.407726
0.389857
0.372339
0.355694
0.522589
0.510884
0.504443
0.499292
0.492268
0.482766
0.47102
0.457479
0.442621
0.426872
0.410567
0.393932
0.377173
0.360761
0.345399
0.484575
0.473942
0.469194
0.466251
0.461656
0.454563
0.445091
0.433656
0.420739
0.406776
0.392114
0.376976
0.361574
0.346501
0.33269
0.440206
0.43081
0.428002
0.427599
0.425814
0.421517
0.414691
0.40571
0.395053
0.383172
0.370427
0.357038
0.34322
0.329694
0.317673
0.390136
0.38212
0.381453
0.383864
0.385213
0.38405
0.380197
0.373976
0.365863
0.356326
0.345741
0.334329
0.322298
0.310495
0.300469
0.335111
0.32859
0.330211
0.335645
0.340387
0.342637
0.342033
0.338833
0.333506
0.326536
0.318319
0.309075
0.299005
0.289071
0.281208
0.275956
0.271014
0.275014
0.283608
0.29193
0.297807
0.300671
0.300701
0.298355
0.294131
0.288448
0.281529
0.273556
0.265594
0.260024
0.213563
0.210256
0.216665
0.228478
0.24049
0.250138
0.256623
0.260035
0.260811
0.259463
0.25643
0.251937
0.246137
0.240193
0.23702
0.148882
0.147234
0.15602
0.171031
0.186759
0.200244
0.210438
0.217321
0.221304
0.222908
0.222598
0.220594
0.216987
0.213021
0.212281
0.0829031
0.0829057
0.0939785
0.112083
0.131467
0.148778
0.162699
0.173084
0.180302
0.18488
0.18731
0.187794
0.186265
0.183978
0.185598
0.0166456
0.0182569
0.031468
0.0524814
0.0753738
0.0964159
0.114008
0.127857
0.138273
0.14577
0.150881
0.153834
0.154335
0.153301
0.156719
-0.0488601
-0.0457245
-0.0305692
-0.00690894
0.0192569
0.0438571
0.0649994
0.0822277
0.0957756
0.10613
0.113856
0.119285
0.1219
0.121346
0.123798
-0.112587
-0.108063
-0.0911929
-0.0652221
-0.0361017
-0.00819436
0.0163095
0.0367699
0.0533267
0.0664017
0.0765037
0.084006
0.0885978
0.0894228
0.0870258
-0.17362
-0.167762
-0.149491
-0.121616
-0.0899342
-0.0590431
-0.0314268
-0.0079248
0.0115017
0.0272157
0.0396744
0.0493139
0.0561985
0.0596835
0.0592805
-0.231297
-0.223766
-0.204657
-0.175305
-0.141507
-0.108016
-0.0775896
-0.0512687
-0.0291155
-0.0108061
0.00409938
0.0161022
0.0256269
0.0324783
0.035245
-0.284344
-0.275519
-0.255822
-0.225641
-0.190153
-0.15449
-0.12162
-0.0927563
-0.0680737
-0.0472933
-0.0299904
-0.015653
-0.00367926
0.00607175
0.0118359
-0.332153
-0.322303
-0.302201
-0.271721
-0.235373
-0.197896
-0.163047
-0.131981
-0.105045
-0.0820313
-0.0625376
-0.0460775
-0.0320025
-0.019956
-0.0116247
-0.374224
-0.363516
-0.343353
-0.312988
-0.276242
-0.237921
-0.201477
-0.168595
-0.139753
-0.114811
-0.0934038
-0.0750754
-0.0591788
-0.0452341
-0.0347977
-0.410163
-0.398725
-0.378838
-0.349119
-0.312607
-0.273908
-0.236502
-0.202287
-0.171943
-0.145414
-0.122402
-0.102479
-0.085018
-0.0694483
-0.057216
-0.43971
-0.427668
-0.408339
-0.379756
-0.344109
-0.305633
-0.267851
-0.232825
-0.201396
-0.17365
-0.149368
-0.128145
-0.109415
-0.0924757
-0.0785826
-0.462779
-0.450265
-0.431718
-0.404682
-0.370491
-0.332893
-0.295337
-0.260024
-0.227973
-0.199412
-0.17418
-0.151975
-0.132324
-0.114344
-0.098839
-0.479465
-0.466613
-0.449013
-0.423852
-0.391639
-0.355543
-0.318825
-0.283767
-0.251559
-0.222583
-0.196779
-0.17392
-0.153615
-0.135072
-0.118321
-0.49004
-0.476984
-0.460438
-0.437381
-0.407574
-0.373542
-0.338252
-0.303989
-0.272093
-0.243109
-0.217096
-0.193905
-0.173263
-0.154627
-0.138122
-0.494935
-0.481816
-0.466374
-0.445538
-0.418446
-0.386952
-0.353632
-0.320689
-0.289567
-0.260969
-0.235089
-0.211863
-0.191103
-0.172388
-0.155795
-0.494723
-0.481686
-0.467348
-0.448744
-0.424541
-0.395944
-0.365062
-0.333923
-0.304013
-0.276175
-0.250735
-0.227723
-0.207003
-0.188211
-0.171382
-0.490089
-0.477283
-0.464016
-0.447556
-0.426274
-0.400798
-0.372723
-0.34381
-0.31552
-0.288792
-0.264083
-0.24152
-0.22104
-0.202337
-0.185382
-0.481791
-0.469373
-0.457121
-0.442639
-0.424178
-0.401898
-0.376876
-0.350536
-0.324228
-0.298943
-0.275248
-0.253376
-0.233355
-0.214956
-0.198054
-0.470629
-0.458751
-0.447455
-0.434735
-0.418884
-0.399724
-0.377863
-0.354343
-0.330324
-0.306787
-0.284378
-0.263433
-0.244075
-0.226173
-0.209506
-0.457396
-0.446204
-0.435812
-0.42462
-0.411085
-0.394839
-0.376101
-0.355528
-0.33403
-0.312502
-0.29163
-0.271832
-0.253322
-0.236082
-0.219832
-0.442844
-0.432469
-0.422943
-0.413053
-0.401501
-0.387857
-0.372067
-0.354438
-0.335594
-0.316282
-0.297167
-0.27872
-0.261232
-0.244803
-0.229142
-0.427655
-0.418202
-0.409519
-0.400734
-0.390832
-0.379418
-0.366284
-0.351463
-0.335298
-0.318333
-0.301153
-0.284242
-0.267942
-0.252464
-0.237549
-0.412409
-0.403954
-0.396104
-0.388271
-0.379715
-0.370141
-0.359294
-0.347031
-0.333449
-0.318874
-0.303755
-0.288538
-0.273583
-0.259185
-0.245153
-0.397577
-0.390161
-0.383139
-0.376145
-0.368686
-0.36059
-0.351632
-0.341588
-0.330384
-0.318139
-0.305136
-0.291733
-0.278263
-0.265071
-0.252037
-0.383513
-0.377142
-0.370943
-0.364712
-0.35816
-0.351232
-0.343779
-0.335576
-0.326455
-0.316378
-0.305462
-0.293939
-0.282074
-0.27021
-0.258269
-0.370462
-0.365106
-0.359715
-0.354199
-0.348419
-0.342421
-0.336138
-0.3294
-0.322018
-0.313861
-0.30491
-0.295264
-0.285084
-0.274673
-0.263922
-0.35857
-0.354172
-0.349561
-0.344722
-0.339626
-0.334383
-0.329007
-0.3234
-0.317404
-0.310863
-0.303671
-0.295817
-0.287347
-0.278511
-0.269044
-0.347903
-0.344382
-0.340507
-0.336312
-0.331838
-0.327235
-0.322574
-0.317829
-0.312899
-0.307649
-0.301948
-0.295718
-0.288911
-0.281747
-0.273737
-0.338464
-0.335723
-0.332527
-0.328936
-0.325037
-0.320998
-0.316924
-0.312843
-0.308718
-0.304456
-0.299947
-0.295102
-0.289818
-0.284357
-0.277983
-0.330215
-0.328148
-0.325559
-0.322526
-0.319161
-0.315631
-0.31206
-0.308512
-0.304996
-0.30147
-0.297862
-0.29411
-0.290119
-0.286225
-0.281941
-0.323087
-0.321581
-0.319523
-0.316994
-0.314121
-0.311059
-0.307937
-0.304838
-0.301799
-0.298818
-0.295857
-0.29289
-0.289875
-0.287157
-0.285315
-0.316991
-0.315937
-0.314328
-0.312248
-0.309821
-0.307191
-0.30448
-0.301777
-0.299135
-0.296568
-0.29406
-0.291595
-0.289185
-0.286902
-0.288308
-0.311823
-0.311115
-0.309879
-0.308188
-0.306164
-0.303932
-0.301603
-0.299263
-0.296968
-0.294736
-0.292548
-0.290372
-0.288146
-0.285392
-0.289624
-0.30746
-0.307007
-0.306072
-0.30472
-0.303056
-0.301189
-0.299216
-0.297216
-0.295238
-0.293294
-0.291347
-0.289318
-0.286983
-0.283023
-0.277925
-0.303771
-0.303498
-0.302804
-0.301743
-0.300402
-0.298871
-0.297234
-0.295557
-0.293883
-0.292217
-0.290516
-0.288693
-0.286584
-0.283242
-0.277305
-0.300616
-0.300467
-0.299968
-0.29916
-0.298111
-0.296894
-0.295576
-0.294213
-0.29284
-0.291461
-0.290043
-0.288531
-0.286853
-0.284385
-0.280254
-0.297852
-0.297795
-0.297463
-0.296879
-0.296097
-0.295173
-0.294162
-0.29311
-0.292042
-0.290964
-0.289854
-0.288695
-0.287452
-0.285687
-0.283464
-0.295347
-0.295376
-0.295194
-0.294813
-0.294278
-0.293632
-0.292919
-0.292175
-0.291421
-0.290663
-0.289893
-0.28912
-0.288337
-0.287264
-0.286566
-0.29299
-0.293119
-0.293083
-0.292892
-0.292587
-0.292203
-0.291777
-0.291337
-0.290902
-0.29048
-0.290075
-0.289717
-0.289419
-0.289022
-0.289385
-0.290699
-0.290958
-0.291073
-0.291063
-0.290972
-0.290832
-0.290674
-0.290525
-0.290402
-0.290316
-0.29028
-0.290334
-0.290507
-0.290704
-0.291739
-0.28843
-0.288855
-0.289132
-0.289295
-0.2894
-0.289482
-0.289568
-0.289685
-0.289851
-0.290079
-0.290389
-0.290824
-0.291424
-0.292121
-0.293516
-0.286182
-0.286809
-0.287257
-0.287583
-0.287866
-0.288141
-0.288439
-0.288787
-0.289204
-0.289709
-0.290322
-0.291089
-0.29206
-0.293186
-0.294636
-0.283994
-0.284848
-0.28547
-0.285948
-0.286386
-0.286825
-0.287298
-0.287835
-0.28846
-0.289192
-0.290056
-0.291099
-0.292347
-0.293759
-0.295834
-0.281937
-0.283028
-0.28382
-0.284433
-0.285001
-0.285573
-0.286184
-0.286869
-0.287653
-0.288561
-0.289621
-0.290876
-0.292343
-0.294014
-0.29641
-0.280109
-0.281425
-0.282371
-0.283099
-0.283772
-0.284445
-0.285159
-0.285951
-0.286852
-0.287887
-0.289088
-0.290496
-0.292128
-0.294007
-0.296557
-0.278615
-0.280125
-0.281198
-0.282015
-0.282766
-0.283513
-0.284298
-0.285163
-0.286142
-0.287263
-0.288559
-0.290069
-0.291817
-0.293847
-0.296477
-0.277554
-0.279205
-0.28037
-0.281248
-0.282052
-0.282845
-0.283674
-0.284584
-0.28561
-0.286783
-0.288136
-0.289708
-0.291529
-0.293655
-0.296323
-0.277003
-0.278729
-0.279941
-0.280851
-0.28168
-0.282495
-0.283346
-0.284277
-0.285325
-0.286522
-0.287902
-0.289502
-0.291358
-0.293531
-0.296213
-0.302077
-0.311235
-0.322865
-0.335503
-0.348822
-0.361583
-0.372615
-0.380499
-0.383852
-0.381094
-0.370787
-0.352327
-0.325367
-0.290548
-0.249535
-0.204921
-0.159568
-0.116278
-0.0770618
-0.0431874
-0.0151028
0.00737143
0.0247805
0.0378285
0.0472513
0.0537333
0.0578712
0.0601655
0.061025
0.0607796
0.0596915
0.0579706
0.0557784
0.0532467
0.0504684
0.0475288
0.0444698
0.0413558
0.038183
0.035021
0.0318101
0.0286628
0.0254263
0.0223232
0.0190188
0.0159803
0.0124975
0.00956023
0.00566882
0.00286515
-0.302408
-0.311479
-0.323161
-0.335874
-0.349302
-0.362206
-0.373412
-0.381494
-0.385066
-0.382564
-0.372544
-0.354327
-0.327555
-0.292831
-0.251791
-0.207057
-0.161506
-0.117987
-0.0785373
-0.0444523
-0.0161867
0.00644004
0.0239767
0.0371326
0.0466473
0.053208
0.0574137
0.0597662
0.0606759
0.0604738
0.0594228
0.0577338
0.0555691
0.0530614
0.0503038
0.0473825
0.0443396
0.0412399
0.0380798
0.0349292
0.0317287
0.0285904
0.0253628
0.0222667
0.0189706
0.0159371
0.0124639
0.00952847
0.00565148
0.00284294
-0.302979
-0.311869
-0.323647
-0.336499
-0.350127
-0.363296
-0.374825
-0.383285
-0.38727
-0.385257
-0.37578
-0.358039
-0.331646
-0.29713
-0.256065
-0.211129
-0.165239
-0.121312
-0.0814318
-0.0469396
-0.0183336
0.00458184
0.022367
0.0357356
0.0454331
0.0521515
0.0564933
0.0589633
0.0599742
0.0598592
0.0588831
0.0572585
0.0551494
0.0526898
0.0499741
0.0470894
0.044079
0.0410079
0.0378736
0.0347456
0.0315661
0.0284457
0.0252359
0.0221539
0.0188746
0.0158512
0.012397
0.00946565
0.00561706
0.00279978
-0.303631
-0.312243
-0.324143
-0.337172
-0.351058
-0.364578
-0.376542
-0.38552
-0.390074
-0.388739
-0.380017
-0.362965
-0.337142
-0.302977
-0.261941
-0.216789
-0.170538
-0.126081
-0.0856189
-0.0505598
-0.0215165
0.00180998
0.0199529
0.0336329
0.0436017
0.0505563
0.0551031
0.0577506
0.0589148
0.0589319
0.0580694
0.0565425
0.0545177
0.0521308
0.0494786
0.0466494
0.0436879
0.0406599
0.0375644
0.0344706
0.0313227
0.0282295
0.0250465
0.0219856
0.0187315
0.0157235
0.0122977
0.00937306
0.00556613
0.00273802
-0.304172
-0.312407
-0.324433
-0.337648
-0.351813
-0.365725
-0.378187
-0.387774
-0.393027
-0.392494
-0.384687
-0.368509
-0.343442
-0.309808
-0.268933
-0.223653
-0.177068
-0.132015
-0.0908669
-0.0552888
-0.0256787
-0.00184753
0.0167462
0.0308279
0.0411523
0.0484196
0.05324
0.0561253
0.0574953
0.0576901
0.0569805
0.0555851
0.0536736
0.0513847
0.0488177
0.0460629
0.0431669
0.0401969
0.0371532
0.0341053
0.0309995
0.0279427
0.0247955
0.0217632
0.0185425
0.0155556
0.0121671
0.0092526
0.00549947
0.0026608
-0.304461
-0.312167
-0.324321
-0.337698
-0.352122
-0.366424
-0.379402
-0.38964
-0.39567
-0.396022
-0.389243
-0.374094
-0.349965
-0.317083
-0.276541
-0.231358
-0.184262
-0.13881
-0.0971502
-0.0609567
-0.030741
-0.00634262
0.0127773
0.0273397
0.0380974
0.0457504
0.0509104
0.0540923
0.0557198
0.0561371
0.0556194
0.054389
0.0526197
0.0504539
0.0479938
0.0453322
0.0425185
0.0396208
0.0366421
0.0336514
0.0305984
0.0275871
0.0244847
0.0214885
0.0183093
0.0153493
0.0120067
0.0091066
0.00541815
0.00257169
-0.304436
-0.31136
-0.323673
-0.337151
-0.351775
-0.366429
-0.379901
-0.39079
-0.397625
-0.398908
-0.393236
-0.379242
-0.356228
-0.324321
-0.284085
-0.239177
-0.192132
-0.146316
-0.104189
-0.0674252
-0.0366049
-0.0116036
0.00809833
0.0232075
0.0344672
0.0425722
0.0481331
0.0516667
0.0536006
0.0542833
0.0539948
0.0529619
0.0513628
0.0493442
0.0470121
0.0444621
0.0417467
0.0389355
0.0360344
0.0331121
0.0301221
0.0271656
0.0241166
0.0211638
0.0180342
0.0151072
0.0118185
0.00893772
0.00532346
0.00247432
-0.303512
-0.310308
-0.322367
-0.33591
-0.350655
-0.365591
-0.379504
-0.391006
-0.398632
-0.400849
-0.396304
-0.383519
-0.361693
-0.330782
-0.291625
-0.247124
-0.200185
-0.154232
-0.111789
-0.0745455
-0.0431531
-0.0175395
0.00278076
0.018488
0.0303072
0.0389219
0.0449382
0.0488734
0.0511582
0.0521458
0.0521213
0.051316
0.0499136
0.0480651
0.0458808
0.0434599
0.0408579
0.0381468
0.0353352
0.032492
0.0295749
0.0266816
0.0236945
0.0207923
0.0177198
0.0148319
0.0116048
0.00874885
0.00521691
0.00237202
-0.302398
-0.308698
-0.320437
-0.333985
-0.348735
-0.363852
-0.378131
-0.390191
-0.398554
-0.40167
-0.398244
-0.386727
-0.366216
-0.336518
-0.298482
-0.25471
-0.20819
-0.162348
-0.119769
-0.0821667
-0.050263
-0.0240505
-0.00309387
0.0132484
0.0256732
0.034846
0.0413645
0.0457446
0.0484196
0.0497472
0.0500178
0.0494679
0.0482861
0.0466288
0.0446107
0.042335
0.0398607
0.037262
0.0345511
0.0317969
0.0289617
0.0261399
0.0232225
0.0203779
0.0173697
0.0145269
0.0113682
0.00854301
0.00510023
0.00226766
-0.301218
-0.306667
-0.317985
-0.331439
-0.346069
-0.36125
-0.375795
-0.388332
-0.397374
-0.401337
-0.398983
-0.388707
-0.369552
-0.341211
-0.304475
-0.261721
-0.215933
-0.170466
-0.127952
-0.0901337
-0.0577989
-0.0310191
-0.00942479
0.00757455
0.0206379
0.0304058
0.0374633
0.0423232
0.0454206
0.0471175
0.0477094
0.0474382
0.046498
0.0450503
0.0432149
0.0410986
0.0387648
0.0362898
0.0336897
0.0310335
0.0282886
0.0255457
0.0227052
0.0199246
0.0169872
0.0141955
0.0111115
0.00832304
0.00497521
0.00216349
-0.300111
-0.304423
-0.315136
-0.328385
-0.342763
-0.357874
-0.372567
-0.385478
-0.395111
-0.399844
-0.398476
-0.389397
-0.371595
-0.344699
-0.309431
-0.267951
-0.223172
-0.178342
-0.136102
-0.0982187
-0.0655516
-0.0382598
-0.0160521
0.00160101
0.015313
0.025693
0.0333093
0.0386696
0.0422099
0.044296
0.0452281
0.0452534
0.0445708
0.0433475
0.0417082
0.0397635
0.0375811
0.0352395
0.032759
0.0302087
0.0275614
0.0249042
0.022147
0.0194363
0.0165758
0.0138406
0.0108371
0.0080914
0.00484335
0.0020609
-0.2992
-0.302126
-0.312022
-0.324945
-0.338943
-0.353839
-0.368546
-0.381711
-0.391821
-0.397232
-0.396735
-0.388766
-0.372291
-0.346873
-0.313174
-0.273178
-0.229656
-0.185715
-0.143966
-0.106194
-0.0733245
-0.0456099
-0.0228455
-0.00456937
0.00977921
0.020771
0.0289527
0.0348242
0.0388209
0.0413108
0.0425984
0.0429357
0.0425251
0.0415388
0.0401069
0.0383441
0.0363222
0.0341223
0.0317689
0.0293313
0.0267879
0.0242221
0.0215538
0.0189184
0.0161397
0.0134664
0.0105482
0.00785101
0.00470654
0.00196057
-0.29841
-0.299977
-0.308825
-0.321254
-0.334731
-0.349264
-0.363845
-0.377133
-0.387597
-0.393506
-0.393805
-0.386871
-0.371712
-0.347859
-0.315894
-0.277647
-0.235699
-0.19296
-0.151962
-0.114488
-0.0815295
-0.0534444
-0.0301303
-0.011207
0.00382061
0.0154734
0.0242694
0.0306982
0.0351931
0.0381242
0.0397993
0.0404766
0.0403624
0.0396329
0.0384243
0.0368561
0.0350052
0.0329556
0.0307365
0.0284177
0.0259835
0.023514
0.0209388
0.0183827
0.0156895
0.013082
0.0102524
0.0076085
0.00457043
0.00186449
-0.297584
-0.298047
-0.305841
-0.317489
-0.330187
-0.344113
-0.358358
-0.371608
-0.382491
-0.388465
-0.389548
-0.383727
-0.37009
-0.348134
-0.318327
-0.282266
-0.242312
-0.201108
-0.16107
-0.123985
-0.0909278
-0.0623905
-0.0384049
-0.0186953
-0.00284813
0.00959599
0.0191194
0.0261991
0.0312688
0.0347024
0.0368133
0.0378672
0.0380797
0.0376324
0.0366674
0.0353099
0.0336426
0.031753
0.0296761
0.0274822
0.0251622
0.0227928
0.0203142
0.0178402
0.0152356
0.0126958
0.00995812
0.00736883
0.00444289
0.00177582
-0.295653
-0.294532
-0.302363
-0.313343
-0.32519
-0.338301
-0.35194
-0.364795
-0.375863
-0.382255
-0.383696
-0.3787
-0.366349
-0.346071
-0.318216
-0.284166
-0.246046
-0.206318
-0.167301
-0.130806
-0.097944
-0.0692898
-0.0449826
-0.0248243
-0.00845527
0.00453087
0.0145755
0.0221362
0.0276426
0.0314693
0.0339308
0.0352966
0.035787
0.0355891
0.0348475
0.0336885
0.0321992
0.0304672
0.0285339
0.0264666
0.0242662
0.0220004
0.0196266
0.0172385
0.0147331
0.0122645
0.00963238
0.00710014
0.00430489
0.00168314
-0.263316
-0.266239
-0.278205
-0.291185
-0.304039
-0.317206
-0.33067
-0.343469
-0.354043
-0.360861
-0.362087
-0.357148
-0.345421
-0.326626
-0.30119
-0.270334
-0.235909
-0.200025
-0.164675
-0.131448
-0.101418
-0.0751503
-0.0527569
-0.0339979
-0.0184774
-0.00587247
0.00412504
0.0118655
0.0177124
0.0219983
0.0250053
0.0269637
0.0280626
0.0284636
0.0283032
0.0276974
0.0267369
0.0254985
0.0240373
0.0224041
0.0206283
0.0187455
0.0167657
0.0147188
0.0125991
0.0104377
0.00821259
0.005961
0.00363992
0.00129045
-0.230485
-0.246123
-0.25624
-0.263938
-0.271049
-0.278012
-0.284378
-0.289156
-0.291412
-0.29082
-0.28706
-0.279567
-0.267887
-0.252162
-0.233007
-0.211292
-0.188002
-0.164119
-0.140543
-0.118022
-0.0971108
-0.078156
-0.0613197
-0.0466666
-0.0341704
-0.0236155
-0.0147387
-0.00733987
-0.0012816
0.00356722
0.00736736
0.010283
0.0124515
0.0139838
0.0149743
0.0155092
0.0156608
0.0154902
0.015045
0.0143698
0.0134988
0.0124663
0.0112942
0.010008
0.00862185
0.00715506
0.00561826
0.0040275
0.00240152
0.000767946
-0.19554
-0.20721
-0.213598
-0.21734
-0.22039
-0.223498
-0.226582
-0.229145
-0.230601
-0.230272
-0.227293
-0.221504
-0.213265
-0.202849
-0.190444
-0.176336
-0.161012
-0.144985
-0.128712
-0.11262
-0.0971046
-0.0824971
-0.0690318
-0.0568432
-0.0459715
-0.0363763
-0.0279805
-0.0207043
-0.0144668
-0.00918446
-0.00478083
-0.00117266
0.00173115
0.00401752
0.00576318
0.00703948
0.00791375
0.00844576
0.00868329
0.0086658
0.00842773
0.00800254
0.00741784
0.00670037
0.00587103
0.00495282
0.00396136
0.00291547
0.00181795
0.000665758
-0.15826
-0.169412
-0.175494
-0.178948
-0.181741
-0.18456
-0.187207
-0.18907
-0.189531
-0.188258
-0.1853
-0.180698
-0.174519
-0.166871
-0.157892
-0.147747
-0.1366
-0.124727
-0.112508
-0.100328
-0.0885026
-0.0772557
-0.0667297
-0.0570086
-0.048139
-0.0401392
-0.0329972
-0.0266765
-0.0211298
-0.0163112
-0.0121744
-0.00866447
-0.00571815
-0.00327381
-0.00127798
0.00031596
0.00155184
0.00247222
0.00311805
0.003527
0.00373243
0.0037619
0.00364149
0.00339188
0.00303584
0.00258814
0.0020712
0.00149379
0.000885136
0.00025639
-0.129287
-0.138904
-0.144651
-0.148103
-0.150597
-0.1527
-0.154375
-0.155328
-0.155308
-0.154194
-0.151902
-0.14845
-0.143891
-0.13829
-0.131732
-0.124329
-0.116233
-0.107658
-0.0988533
-0.0900384
-0.0813766
-0.0729913
-0.0649756
-0.057399
-0.0503148
-0.0437584
-0.0377439
-0.0322692
-0.0273246
-0.0228963
-0.0189653
-0.0155061
-0.012488
-0.00987863
-0.00764607
-0.00575879
-0.00418371
-0.00288794
-0.0018397
-0.00101181
-0.00037779
8.47059e-05
0.000400597
0.000587556
0.000669603
0.000658119
0.000579983
0.000439226
0.000272075
7.18601e-05
-0.106979
-0.114892
-0.119881
-0.122983
-0.125156
-0.126877
-0.128214
-0.129017
-0.129094
-0.128305
-0.126624
-0.124073
-0.120698
-0.116561
-0.11174
-0.106326
-0.10043
-0.0941805
-0.0877117
-0.0811391
-0.0745516
-0.0680209
-0.0616273
-0.0554597
-0.049593
-0.0440746
-0.0389291
-0.0341681
-0.0297955
-0.02581
-0.0222055
-0.0189709
-0.0160894
-0.0135403
-0.0113006
-0.00934706
-0.00765586
-0.00620446
-0.00496925
-0.00392918
-0.00306135
-0.00234765
-0.00176585
-0.00130202
-0.000933124
-0.000650528
-0.000427377
-0.000264212
-0.00012941
-4.79459e-05
-0.0891612
-0.0956756
-0.0998737
-0.10257
-0.104505
-0.10605
-0.107256
-0.108014
-0.108183
-0.107678
-0.106485
-0.104629
-0.102154
-0.0991131
-0.0955667
-0.0915781
-0.0872151
-0.0825469
-0.0776423
-0.0725772
-0.0674333
-0.0622908
-0.0572242
-0.0522978
-0.0475601
-0.0430438
-0.0387721
-0.0347632
-0.0310301
-0.0275778
-0.0244039
-0.0215013
-0.0188604
-0.01647
-0.0143166
-0.0123865
-0.0106644
-0.00913576
-0.00778335
-0.00659288
-0.00554669
-0.00463259
-0.00383152
-0.00313466
-0.00252018
-0.00198555
-0.00150292
-0.00107926
-0.000669581
-0.000284535
-0.0750321
-0.0803564
-0.0838747
-0.086214
-0.0879445
-0.0893476
-0.0904586
-0.0911925
-0.0914495
-0.0911707
-0.0903536
-0.0890272
-0.0872272
-0.084991
-0.0823589
-0.079374
-0.076081
-0.0725268
-0.0687639
-0.0648533
-0.0608609
-0.0568476
-0.0528627
-0.0489437
-0.0451214
-0.0414239
-0.0378753
-0.0344946
-0.0312942
-0.0282814
-0.0254603
-0.0228331
-0.0203989
-0.018155
-0.0160952
-0.0142125
-0.0124969
-0.010939
-0.00952658
-0.00824986
-0.00709494
-0.00605317
-0.00510849
-0.00425482
-0.00347244
-0.00276013
-0.002091
-0.00147275
-0.000867304