/*--------------------------------*- C++ -*----------------------------------*\
  =========                 |
  \\      /  F ield         | OpenFOAM: The Open Source CFD Toolbox
   \\    /   O peration     | Website:  https://openfoam.org
    \\  /    A nd           | Version:  7
     \\/     M anipulation  |
\*---------------------------------------------------------------------------*/
FoamFile
{
    version     2.0;
    format      ascii;
    class       volVectorField;
    location    "10";
    object      U;
}
// * * * * * * * * * * * * * * * * * * * * * * * * * * * * * * * * * * * * * //

dimensions      [0 1 -1 0 0 0 0];

internalField   nonuniform List<vector> 
13250
(
(-0.000855433 0.00132165 -1.57831e-21)
(-0.00447027 0.00328219 1.88933e-20)
(-0.0115212 0.00472654 -3.74685e-20)
(-0.0208045 0.00577545 -2.47491e-20)
(-0.0315847 0.00651704 1.74383e-21)
(-0.043438 0.00702307 1.517e-20)
(-0.0560301 0.00735737 -2.27399e-21)
(-0.0691111 0.0075771 -3.33113e-21)
(-0.0825239 0.00773343 -4.57076e-21)
(-0.0961964 0.0078723 -2.01346e-20)
(-0.110135 0.00803455 -4.02548e-20)
(-0.124413 0.00825509 2.17025e-20)
(-0.139137 0.00856174 -5.7593e-22)
(-0.154456 0.00897994 -2.66865e-20)
(-0.170786 0.00953555 2.77826e-20)
(-0.00108635 0.00389079 -5.46762e-20)
(-0.00494725 0.00967943 -6.82736e-20)
(-0.0120049 0.0139582 1.08201e-20)
(-0.0211316 0.0170737 2.12276e-21)
(-0.0316327 0.0192805 1.04662e-19)
(-0.0431033 0.0207873 -1.34433e-20)
(-0.0552193 0.0217809 6.66504e-21)
(-0.0677342 0.0224295 2.23072e-20)
(-0.0804884 0.0228842 -2.52886e-20)
(-0.0934022 0.0232816 2.29136e-20)
(-0.106472 0.0237441 8.89829e-20)
(-0.119761 0.0243776 -4.89426e-20)
(-0.133359 0.0252679 -2.30211e-20)
(-0.147377 0.0264945 1.84453e-20)
(-0.162272 0.0281326 1.49916e-20)
(-0.00152612 0.00624667 1.48753e-19)
(-0.00586281 0.0155937 -9.88127e-20)
(-0.0129434 0.0225469 -4.87093e-20)
(-0.0217799 0.0276347 -4.08651e-20)
(-0.0317526 0.0312506 8.62261e-21)
(-0.0424915 0.033722 8.42727e-21)
(-0.0536919 0.0353451 -3.87406e-20)
(-0.0651145 0.0363891 -1.42831e-20)
(-0.076595 0.0370984 -9.65391e-20)
(-0.08804 0.0376965 -1.84661e-19)
(-0.0994266 0.0383867 1.75668e-20)
(-0.1108 0.0393487 -1.34239e-19)
(-0.122221 0.0407344 2.49336e-19)
(-0.133733 0.0426872 -3.60876e-20)
(-0.145857 0.045328 2.48105e-21)
(-0.00213473 0.00827639 2.68661e-20)
(-0.00714671 0.0207615 7.41273e-20)
(-0.0142837 0.0301319 1.75822e-19)
(-0.0227379 0.0370341 -2.28106e-19)
(-0.0319875 0.0419602 -1.18732e-19)
(-0.0417084 0.0453293 2.24945e-19)
(-0.0516226 0.0475264 -1.08559e-19)
(-0.0615013 0.0489061 -9.41876e-20)
(-0.0711753 0.049795 1.43167e-19)
(-0.0805331 0.0504967 4.85426e-20)
(-0.0895265 0.0512933 5.51909e-20)
(-0.0981767 0.052443 -9.46242e-20)
(-0.106512 0.0541771 1.22563e-19)
(-0.11448 0.0567223 -2.61963e-20)
(-0.12268 0.0602488 1.05413e-19)
(-0.00286166 0.00990575 8.82902e-20)
(-0.00870878 0.0249984 -3.754e-20)
(-0.0159561 0.0364455 -1.21864e-20)
(-0.0239889 0.0449407 5.59097e-20)
(-0.0323911 0.0510298 -3.90833e-19)
(-0.0408898 0.0551916 2.65188e-19)
(-0.0492383 0.0578749 8.44151e-20)
(-0.0572217 0.0595002 -4.49516e-20)
(-0.0646672 0.0604611 5.6716e-20)
(-0.0714443 0.0611303 -6.90534e-20)
(-0.0774748 0.0618642 6.95162e-20)
(-0.0827524 0.0630038 -7.1186e-20)
(-0.0872808 0.0648782 -2.85472e-19)
(-0.0909033 0.0678266 1.28441e-21)
(-0.0942297 0.0720849 2.0738e-19)
(-0.00365494 0.0111056 -1.37679e-19)
(-0.0104536 0.0282131 1.35573e-19)
(-0.0178844 0.0413328 -1.91915e-20)
(-0.0255101 0.0511403 1.04717e-19)
(-0.0330144 0.0581928 -1.49843e-20)
(-0.0401742 0.0629978 8.08121e-20)
(-0.0467765 0.0660423 -6.37838e-20)
(-0.0526235 0.0677902 -1.81121e-20)
(-0.0575418 0.0686836 2.56882e-20)
(-0.0613837 0.0691492 2.39276e-20)
(-0.0640388 0.0696087 -2.99472e-19)
(-0.0654692 0.0704872 2.61169e-19)
(-0.0656757 0.0722301 -2.49457e-19)
(-0.0644406 0.0753375 3.25436e-19)
(-0.0621443 0.0801769 -1.76878e-19)
(-0.00447002 0.0118909 1.59092e-19)
(-0.012295 0.0304088 -3.47355e-19)
(-0.0199939 0.0447571 2.37427e-19)
(-0.0272693 0.0555456 4.43816e-20)
(-0.0338865 0.0633108 -2.77036e-19)
(-0.0396667 0.0685636 -7.88626e-20)
(-0.0444296 0.0718058 3.11797e-19)
(-0.0479976 0.0735232 -2.2532e-19)
(-0.0502008 0.0741845 9.44028e-21)
(-0.0508773 0.0742508 3.48581e-19)
(-0.0498843 0.074193 4.34203e-19)
(-0.0471428 0.0745121 -2.63445e-19)
(-0.0426564 0.0757757 5.55554e-19)
(-0.0362819 0.0787403 -6.23609e-19)
(-0.0280046 0.0844065 -1.82796e-19)
(-0.00527651 0.0123134 -2.80033e-19)
(-0.014166 0.0316706 3.84213e-21)
(-0.0222162 0.0467891 2.84005e-19)
(-0.0292175 0.0581908 -1.77137e-19)
(-0.0349919 0.066375 5.20442e-19)
(-0.0393953 0.0718399 2.00177e-19)
(-0.0422781 0.0750849 2.92871e-20)
(-0.043484 0.0765982 1.16903e-19)
(-0.0428504 0.076854 -6.50014e-19)
(-0.0402039 0.076323 5.27831e-19)
(-0.0353704 0.0754986 -5.21525e-19)
(-0.0282256 0.0749335 6.65067e-19)
(-0.0187098 0.0753287 -4.79059e-19)
(-0.00651626 0.0778618 4.57712e-19)
(0.00786624 0.0842067 -4.73455e-19)
(-0.00606119 0.0124489 -9.36847e-20)
(-0.0160236 0.0321415 7.05155e-19)
(-0.024487 0.0475826 1.17704e-19)
(-0.0312758 0.0592121 -1.22617e-19)
(-0.0362413 0.0674936 -7.0129e-19)
(-0.0392631 0.0729083 1.16695e-19)
(-0.0402168 0.075945 5.70665e-19)
(-0.0389665 0.077081 -3.51523e-19)
(-0.0353571 0.0767775 7.42322e-20)
(-0.0292042 0.0754894 -6.13875e-19)
(-0.0202983 0.0736977 1.70438e-19)
(-0.00845932 0.0719654 3.03031e-19)
(0.00645306 0.0710929 -1.21371e-19)
(0.0249368 0.0726578 -1.58492e-19)
(0.0462892 0.0791812 -1.02154e-20)
(-0.00682661 0.0123817 -6.28966e-19)
(-0.0178433 0.0319914 -1.1935e-19)
(-0.0267364 0.0473391 -1.04319e-18)
(-0.033317 0.0588148 7.22485e-19)
(-0.0374411 0.0668645 1.64256e-20)
(-0.0389993 0.0719615 -1.15914e-19)
(-0.0378833 0.0745851 -7.88549e-19)
(-0.0339698 0.0751985 4.54881e-19)
(-0.0271047 0.0742401 -1.03727e-19)
(-0.0170864 0.0721306 -2.72545e-19)
(-0.00366116 0.0693055 2.41205e-20)
(0.013421 0.0662807 -2.97285e-19)
(0.0343788 0.0638589 2.31237e-19)
(0.0599308 0.0639412 -2.97791e-20)
(0.0896303 0.0703938 -2.29484e-19)
(-0.00758515 0.0121893 -4.29482e-19)
(-0.0196072 0.0313846 4.63619e-19)
(-0.0288711 0.0462688 -4.35004e-20)
(-0.035143 0.0572336 2.78241e-21)
(-0.0382634 0.0647391 1.31344e-19)
(-0.0381196 0.0692693 -2.11078e-19)
(-0.0346034 0.0713068 1.00651e-19)
(-0.0275856 0.0713089 4.17259e-19)
(-0.0168941 0.0696955 -7.22645e-19)
(-0.00229167 0.0668518 1.19183e-18)
(0.0165353 0.0631537 -2.38691e-20)
(0.0399197 0.0590242 -8.28448e-19)
(0.068138 0.0551407 -3.16706e-19)
(0.102117 0.0535316 8.81992e-20)
(0.142443 0.0598324 -4.84733e-19)
(-0.00834987 0.0119294 -3.58801e-20)
(-0.0212847 0.0304514 9.50412e-19)
(-0.0307524 0.044555 -4.89574e-20)
(-0.0364622 0.0546947 2.60011e-19)
(-0.0382243 0.0613819 5.04635e-20)
(-0.0359049 0.0651387 5.60453e-20)
(-0.0293711 0.0664724 5.99743e-20)
(-0.0184572 0.0658533 -3.84682e-19)
(-0.0029393 0.0637024 1.25531e-19)
(0.0174856 0.0603904 -9.12615e-19)
(0.04321 0.0562531 -1.38358e-19)
(0.0746515 0.0516181 3.0462e-19)
(0.112088 0.0469293 -5.27505e-19)
(0.156496 0.0440267 -4.39386e-19)
(0.210605 0.0507624 3.00588e-19)
(-0.00912342 0.0116311 4.1409e-19)
(-0.0228106 0.0292685 -4.03228e-19)
(-0.0321747 0.0423284 -4.46117e-19)
(-0.0368718 0.0513841 1.74738e-22)
(-0.0366744 0.057038 -5.3655e-20)
(-0.0314056 0.0598805 2.45142e-19)
(-0.0208754 0.0604686 -3.85202e-19)
(-0.00484247 0.0593114 4.33662e-19)
(0.0170091 0.0568619 1.19382e-19)
(0.0450765 0.0535165 2.72585e-19)
(0.0798284 0.0496229 8.00841e-19)
(0.121715 0.0454684 -9.47858e-19)
(0.170894 0.0412417 2.97727e-19)
(0.228082 0.0383352 -4.03152e-19)
(0.298738 0.0475053 8.84671e-19)
(-0.00988865 0.0112934 -4.1126e-20)
(-0.0240659 0.0278541 1.24219e-19)
(-0.0328447 0.0396551 3.97728e-19)
(-0.0358488 0.0474332 2.85887e-21)
(-0.0328055 0.0519169 -2.11785e-19)
(-0.0234729 0.0537912 2.31074e-19)
(-0.00757105 0.0536884 3.24256e-19)
(0.0152544 0.0521829 -4.00848e-19)
(0.0454386 0.0497929 8.89407e-20)
(0.0834735 0.0469853 -3.37979e-19)
(0.129847 0.0441836 2.08279e-21)
(0.184883 0.0417237 2.65479e-19)
(0.24836 0.0396635 -6.08585e-19)
(0.320504 0.0392716 4.94975e-19)
(0.406417 0.0541707 -1.56346e-19)
(-0.0106001 0.0108887 2.27954e-19)
(-0.0248657 0.026172 1.06866e-19)
(-0.0323746 0.0365407 1.73625e-19)
(-0.0327498 0.0429227 -2.41234e-19)
(-0.025672 0.0461942 5.04869e-19)
(-0.0108148 0.0471572 1.49528e-19)
(0.0122152 0.0465395 9.79945e-21)
(0.0438982 0.045002 -4.2949e-19)
(0.0847747 0.0431496 -5.35237e-19)
(0.135371 0.041544 8.11478e-20)
(0.196065 0.0407145 2.85488e-19)
(0.266846 0.0411025 4.42001e-19)
(0.346832 0.0428554 -9.87227e-19)
(0.436224 0.0485285 7.03999e-19)
(0.527719 0.068869 -6.30664e-19)
(-0.0111802 0.0103699 -6.97999e-19)
(-0.0249508 0.0241498 -3.46001e-20)
(-0.03028 0.0329539 -2.93691e-19)
(-0.0268262 0.0379041 -3.95383e-19)
(-0.0142281 0.0400346 3.87556e-19)
(0.00793093 0.0402793 -2.33051e-19)
(0.0401512 0.0394752 1.25195e-20)
(0.0829976 0.0383781 -8.39067e-20)
(0.137015 0.0376775 1.81164e-19)
(0.202581 0.0380058 6.08432e-19)
(0.279698 0.0399406 -6.60046e-19)
(0.367735 0.0439651 1.04738e-18)
(0.46513 0.0504084 -7.19417e-19)
(0.573318 0.0639195 5.87282e-19)
(0.657429 0.0764553 -1.18282e-20)
(-0.0115196 0.00968575 1.13885e-19)
(-0.02399 0.0217071 -1.48021e-19)
(-0.0259885 0.0288574 -2.27589e-19)
(-0.0172449 0.0324351 4.39418e-19)
(0.00262779 0.0336296 -1.79077e-19)
(0.0341139 0.0335141 -1.53287e-19)
(0.0777603 0.0330391 8.40608e-19)
(0.134087 0.0330485 2.86219e-20)
(0.20341 0.0342864 2.03209e-19)
(0.285601 0.0373829 5.28809e-20)
(0.379806 0.0428231 3.75744e-19)
(0.484188 0.0508719 -5.52917e-19)
(0.5959 0.0615604 5.32115e-19)
(0.712282 0.0765629 -3.03996e-19)
(0.817847 0.0873308 -3.97641e-20)
(-0.0114825 0.00879008 5.48975e-19)
(-0.0215912 0.0187813 5.80216e-19)
(-0.0188569 0.0242473 2.45989e-20)
(-0.00311914 0.0266245 -3.46486e-19)
(0.025998 0.0272439 3.28739e-19)
(0.0689782 0.0273159 -6.29771e-19)
(0.126274 0.0278948 -5.62903e-19)
(0.198113 0.0298835 2.25576e-19)
(0.284203 0.0340156 -1.99537e-19)
(0.383401 0.0408052 -5.40339e-19)
(0.493419 0.0504768 -4.88986e-19)
(0.61066 0.0628422 -6.16716e-19)
(0.730674 0.0775471 7.91232e-19)
(0.847283 0.0934056 -3.78669e-19)
(0.956508 0.108294 8.20878e-19)
(-0.01091 0.00765433 -1.52734e-19)
(-0.0173146 0.0153581 1.9799e-19)
(-0.00819633 0.0191924 -4.21314e-19)
(0.0164491 0.0206777 5.03191e-20)
(0.0569149 0.02126 -1.67209e-20)
(0.113546 0.0222692 -1.98442e-19)
(0.186454 0.0248283 -3.42483e-19)
(0.275189 0.0298278 -2.7885e-19)
(0.378341 0.0378703 1.03976e-20)
(0.493181 0.049178 6.20645e-19)
(0.615509 0.0635082 7.37647e-19)
(0.739799 0.0800442 -3.3382e-19)
(0.860105 0.0978695 -8.34508e-19)
(0.969198 0.114442 2.15674e-19)
(1.06694 0.130523 7.03321e-19)
(-0.00962687 0.00627609 6.28055e-20)
(-0.0106907 0.0114934 -3.51459e-19)
(0.00669538 0.0138682 1.17194e-19)
(0.0423135 0.0149352 -1.99657e-19)
(0.0962475 0.0162118 -1.62957e-19)
(0.168472 0.0191027 1.04389e-19)
(0.258384 0.0247203 1.21532e-20)
(0.364349 0.0338098 6.39294e-19)
(0.483265 0.0466495 -4.97755e-19)
(0.610354 0.0629408 -7.23361e-20)
(0.739375 0.0817704 -1.13229e-19)
(0.863304 0.101632 -5.85237e-20)
(0.975636 0.121038 9.19974e-20)
(1.07014 0.137161 8.21127e-19)
(1.14914 0.151925 -7.06635e-19)
(-0.00744667 0.00468445 4.25012e-19)
(-0.00124141 0.0073292 -4.01234e-19)
(0.0264904 0.00857854 1.1857e-19)
(0.075208 0.00989324 8.90979e-19)
(0.144582 0.0127915 2.78944e-20)
(0.233872 0.0186652 -1.16097e-19)
(0.341269 0.0284734 -5.05223e-19)
(0.463378 0.0426068 3.61075e-19)
(0.594932 0.0607671 -2.81808e-19)
(0.728978 0.0819083 3.55994e-19)
(0.857692 0.104347 -3.72024e-19)
(0.97364 0.126012 6.04186e-20)
(1.07124 0.145137 5.34513e-20)
(1.14696 0.159416 2.08108e-19)
(1.20414 0.170991 1.97102e-19)
(-0.00417861 0.00294324 -3.20644e-20)
(0.0114926 0.00310215 4.36491e-19)
(0.0517753 0.00376341 -1.79451e-19)
(0.115654 0.00620019 -1.85443e-19)
(0.202088 0.0118203 1.82657e-19)
(0.309161 0.0218539 1.44224e-19)
(0.433295 0.036887 -2.37367e-19)
(0.56884 0.0566823 4.09847e-19)
(0.708195 0.0801093 -8.43445e-20)
(0.842669 0.105253 -4.38222e-20)
(0.963947 0.129768 3.28896e-19)
(1.06567 0.151363 4.59488e-20)
(1.14462 0.168496 -5.14448e-19)
(1.2005 0.17973 1.53913e-19)
(1.23819 0.187455 -1.30785e-19)
(0.000363827 0.00115277 -1.57497e-20)
(0.027917 -0.000856313 7.75534e-20)
(0.0829829 -1.11191e-05 -8.16641e-20)
(0.163853 0.00462461 3.56323e-19)
(0.26838 0.0141808 6.11214e-20)
(0.392934 0.0295014 -9.39203e-20)
(0.531645 0.0505103 1.99613e-19)
(0.676373 0.0760547 -7.20021e-19)
(0.817541 0.104012 2.13275e-20)
(0.945761 0.131683 2.53718e-19)
(1.05371 0.156414 4.54654e-19)
(1.13747 0.176181 -4.25302e-19)
(1.19689 0.190106 7.8282e-20)
(1.23473 0.197741 -8.42333e-20)
(1.2567 0.201781 -3.62932e-19)
(0.0063505 -0.000549538 -1.50828e-19)
(0.0483423 -0.00412663 -5.53429e-19)
(0.120319 -0.00207843 4.42266e-19)
(0.219592 0.00599902 1.25093e-19)
(0.342432 0.0207209 -5.01569e-19)
(0.482966 0.0422471 -5.22182e-19)
(0.632713 0.0695212 3.99247e-19)
(0.781266 0.100263 -1.60187e-19)
(0.918008 0.131397 3.57789e-19)
(1.03429 0.159775 -4.19969e-19)
(1.12517 0.182935 -6.15585e-19)
(1.18991 0.19957 4.84434e-19)
(1.23135 0.209696 -5.34411e-20)
(1.25433 0.213722 -7.89484e-20)
(1.26494 0.214662 -2.14548e-19)
(0.0139183 -0.00199036 6.86956e-20)
(0.072938 -0.00621581 2.13792e-20)
(0.163694 -0.00171123 -4.07717e-20)
(0.28217 0.0111461 -2.85127e-19)
(0.422562 0.0321489 4.43026e-19)
(0.576359 0.0604297 2.38429e-19)
(0.732526 0.0936801 2.50456e-19)
(0.879155 0.128459 2.82723e-19)
(1.00595 0.161027 -3.30951e-20)
(1.10643 0.188292 1.77092e-19)
(1.17885 0.208472 4.48743e-20)
(1.22567 0.221246 -9.49559e-21)
(1.25197 0.22749 -1.0503e-20)
(1.26364 0.228254 3.03239e-19)
(1.26643 0.226745 2.63007e-19)
(0.0231532 -0.00296501 1.66812e-19)
(0.101688 -0.0065815 -1.84695e-19)
(0.212669 0.00182642 -1.67902e-19)
(0.350378 0.0207972 -2.01811e-20)
(0.50652 0.0489402 -4.58635e-19)
(0.669831 0.0840311 2.57679e-19)
(0.827262 0.122381 -1.18549e-19)
(0.966627 0.159596 1.14211e-19)
(1.07939 0.191762 1.16107e-19)
(1.16222 0.216375 -4.68384e-19)
(1.21676 0.232668 2.48616e-19)
(1.24803 0.241337 -1.81076e-19)
(1.26241 0.243935 -4.97813e-20)
(1.26594 0.241908 -3.15465e-20)
(1.26365 0.238499 1.70946e-19)
(0.0340723 -0.0032457 1.05317e-19)
(0.134358 -0.00466447 -2.70943e-19)
(0.266436 0.00921921 -6.78073e-20)
(0.422549 0.0355145 2.68814e-19)
(0.591677 0.0712761 -1.5839e-19)
(0.760088 0.11269 -1.5871e-20)
(0.913723 0.154777 5.94359e-20)
(1.04153 0.192627 -5.87711e-20)
(1.13789 0.222719 3.90276e-20)
(1.20303 0.243559 5.63211e-19)
(1.24153 0.255515 -4.45615e-19)
(1.26012 0.260167 1.49094e-19)
(1.26559 0.259492 1.42586e-19)
(1.26354 0.255136 -1.61502e-20)
(1.25803 0.250203 -2.17196e-19)
(0.0466102 -0.00259396 1.36162e-19)
(0.170475 7.11596e-05 -4.90342e-20)
(0.323836 0.0210385 1.12146e-19)
(0.496662 0.055629 -1.67178e-20)
(0.67527 0.0990263 7.22924e-20)
(0.844177 0.145772 -6.51e-20)
(0.989615 0.189929 -7.40033e-20)
(1.10296 0.226647 -1.23395e-19)
(1.18218 0.253314 1.7174e-19)
(1.23085 0.26968 -1.40193e-19)
(1.25578 0.277196 -1.82306e-20)
(1.26452 0.278092 -3.88843e-20)
(1.26361 0.274532 1.09929e-19)
(1.25788 0.268222 9.63157e-20)
(1.25042 0.26198 -1.28202e-19)
(0.0606096 -0.000776636 1.13496e-19)
(0.209333 0.0080938 -1.90582e-19)
(0.383415 0.037686 2.22826e-19)
(0.570499 0.0812042 -2.30653e-20)
(0.754661 0.131775 -6.12416e-20)
(0.919742 0.18247 -5.79266e-21)
(1.05361 0.226925 -3.32827e-21)
(1.15101 0.260948 8.72676e-22)
(1.21362 0.28321 1.3072e-20)
(1.24782 0.294757 -2.45536e-20)
(1.26178 0.297945 1.45096e-19)
(1.26317 0.295406 -7.72947e-20)
(1.25787 0.289302 -1.26566e-19)
(1.24982 0.281305 -1.05646e-20)
(1.24124 0.273833 6.82704e-20)
(0.0758206 0.00241613 1.65924e-20)
(0.250019 0.0197615 5.59362e-20)
(0.443515 0.0593504 -2.92442e-20)
(0.641823 0.112029 2.39913e-20)
(0.827553 0.168878 3.31804e-20)
(0.98513 0.221904 -2.10707e-20)
(1.10522 0.264952 -3.73328e-20)
(1.18643 0.295011 5.83145e-21)
(1.23383 0.312237 -4.4913e-20)
(1.25586 0.31888 4.282e-20)
(1.26131 0.31797 -2.48207e-20)
(1.25743 0.312308 4.80051e-20)
(1.24924 0.303923 2.01688e-20)
(1.23981 0.2944 -2.24948e-20)
(1.23066 0.285689 -2.86394e-21)
(0.0919074 0.00715293 -7.25288e-20)
(0.291456 0.0352857 4.53714e-20)
(0.502383 0.0859837 6.12477e-20)
(0.708542 0.14764 -2.44793e-20)
(0.892115 0.209529 -1.90518e-21)
(1.03938 0.263188 -6.95055e-20)
(1.14462 0.303315 5.17485e-21)
(1.21033 0.328462 5.4895e-21)
(1.24442 0.340311 5.85215e-21)
(1.25661 0.342138 7.07043e-21)
(1.25571 0.337403 3.77123e-20)
(1.2482 0.328888 -1.96331e-20)
(1.23823 0.31841 3.46101e-20)
(1.22806 0.307438 -9.07475e-21)
(1.21875 0.297431 -4.18251e-20)
(0.108463 0.013545 -1.85812e-20)
(0.332471 0.0547052 1.14841e-19)
(0.558289 0.117298 -1.60176e-19)
(0.768833 0.187357 6.15843e-20)
(0.947037 0.252829 -4.37146e-20)
(1.08211 0.305477 1.9211e-20)
(1.17238 0.341422 3.32104e-20)
(1.22393 0.361011 4.39106e-20)
(1.24681 0.367372 -9.83368e-20)
(1.25135 0.364575 1.04614e-19)
(1.24589 0.356288 -8.51042e-20)
(1.23605 0.345138 -3.11446e-20)
(1.22511 0.332692 4.85173e-20)
(1.21469 0.320286 -4.14718e-20)
(1.20551 0.308923 5.79488e-20)
(0.125028 0.021634 -1.08055e-19)
(0.371857 0.0778749 1.51876e-20)
(0.609626 0.15278 -5.85125e-20)
(0.821225 0.23034 -5.70685e-20)
(0.991505 0.297836 1.07107e-19)
(1.11339 0.347979 1.87836e-19)
(1.18932 0.378766 -1.19439e-19)
(1.22843 0.392418 -1.25903e-19)
(1.2422 0.393342 1.6084e-19)
(1.24102 0.386169 -3.09033e-20)
(1.23249 0.374582 -1.05914e-19)
(1.22131 0.360964 1.03237e-19)
(1.21 0.346624 5.88694e-20)
(1.19971 0.332768 -1.24758e-19)
(1.1909 0.320038 4.20571e-20)
(0.141119 0.0313838 -1.98793e-19)
(0.408443 0.104467 3.60572e-20)
(0.654994 0.191725 2.78654e-19)
(0.864634 0.275633 1.01004e-19)
(1.02514 0.3436 5.93518e-20)
(1.13361 0.389958 -1.17819e-19)
(1.19635 0.414888 1.30452e-19)
(1.22491 0.422447 2.3194e-19)
(1.23158 0.418109 6.33221e-20)
(1.22635 0.406833 -1.21521e-19)
(1.21593 0.392173 1.18179e-19)
(1.20415 0.376211 5.29883e-20)
(1.19293 0.360003 -9.09041e-20)
(1.18304 0.344668 1.09449e-19)
(1.17477 0.330653 1.92584e-20)
(0.156247 0.0426787 -1.52637e-19)
(0.441159 0.133984 6.47871e-20)
(0.693253 0.233269 1.46558e-20)
(0.898351 0.322211 -3.4043e-19)
(1.04793 0.38919 3.26087e-19)
(1.14337 0.43073 -5.41425e-19)
(1.19441 0.449361 5.81115e-20)
(1.21435 0.450854 1.68465e-19)
(1.21572 0.44151 -2.72553e-19)
(1.20785 0.426422 7.2198e-20)
(1.19649 0.408907 -1.93323e-19)
(1.18471 0.390713 1.63004e-19)
(1.17391 0.372656 -1.42267e-19)
(1.16452 0.3558 -2.56485e-22)
(1.15674 0.340582 -8.71594e-20)
(0.169948 0.0553256 -6.85742e-20)
(0.469078 0.165785 8.16336e-20)
(0.723551 0.276442 2.92178e-20)
(0.922018 0.369023 3.12686e-19)
(1.06012 0.433706 -2.03245e-19)
(1.14339 0.469649 7.65458e-19)
(1.18439 0.48177 -2.37744e-19)
(1.19758 0.477364 -2.25392e-19)
(1.19527 0.46333 3.83434e-19)
(1.18594 0.444732 -5.08305e-20)
(1.17444 0.42458 2.09458e-19)
(1.16314 0.404309 -1.60442e-19)
(1.15303 0.384543 2.14756e-19)
(1.14415 0.366249 -9.70223e-21)
(1.13659 0.349625 -4.06595e-20)
(0.181803 0.0690609 -2.52031e-19)
(0.491454 0.199114 5.37273e-19)
(0.74533 0.3202 -3.6973e-19)
(0.935582 0.415019 -6.39793e-20)
(1.06219 0.476292 -4.18334e-20)
(1.13446 0.506105 -2.75565e-19)
(1.16716 0.511702 -3.28737e-19)
(1.17533 0.501673 -2.46107e-20)
(1.17074 0.4833 -3.56527e-19)
(1.16096 0.46149 -1.5816e-19)
(1.14998 0.438914 4.71282e-19)
(1.13962 0.416735 -4.40193e-19)
(1.13047 0.395537 6.07345e-20)
(1.12232 0.376308 1.12027e-19)
(1.11567 0.358102 5.91533e-20)
(0.191455 0.0835612 1.55343e-19)
(0.507742 0.233134 -3.22548e-21)
(0.758317 0.363476 -3.89547e-19)
(0.939248 0.459183 2.49328e-19)
(1.05476 0.516142 4.96177e-19)
(1.11739 0.539524 -1.98579e-19)
(1.1435 0.538748 -2.05586e-20)
(1.14822 0.523455 2.95968e-19)
(1.14258 0.501117 8.02967e-20)
(1.13319 0.47639 -1.98012e-19)
(1.12331 0.451598 -1.94514e-19)
(1.11427 0.42764 6.35312e-20)
(1.10641 0.40507 -8.8067e-20)
(1.09945 0.384756 -1.4127e-19)
(1.09445 0.365135 1.35917e-19)
(0.198621 0.0984573 -3.7326e-19)
(0.517604 0.266967 -1.86356e-19)
(0.762494 0.405211 3.15036e-19)
(0.933432 0.50055 -6.22898e-19)
(1.03854 0.552503 1.02669e-19)
(1.09302 0.569365 2.06838e-19)
(1.11417 0.562506 2.00046e-19)
(1.11684 0.542373 -9.30042e-20)
(1.11119 0.516463 -1.56373e-19)
(1.1029 0.489104 5.23123e-19)
(1.09461 0.462306 -7.96549e-20)
(1.08723 0.436765 5.64752e-20)
(1.08091 0.412944 -6.52708e-20)
(1.07542 0.391564 -1.04236e-19)
(1.07213 0.370698 6.11936e-20)
(0.203107 0.113351 1.14803e-19)
(0.520908 0.299723 3.49363e-19)
(0.758083 0.44439 3.37918e-19)
(0.918741 0.53823 -3.95063e-19)
(1.01438 0.584692 -5.46755e-21)
(1.06217 0.595123 3.44078e-19)
(1.07983 0.582591 1.48921e-19)
(1.0817 0.558079 -2.80086e-19)
(1.07692 0.528993 6.15682e-20)
(1.07035 0.499313 -1.02637e-19)
(1.06405 0.470722 -1.34e-19)
(1.05867 0.443751 1.62363e-19)
(1.05418 0.418781 4.51037e-20)
(1.05042 0.396388 -2.80525e-20)
(1.04898 0.374525 -1.27377e-20)
(0.204811 0.127839 4.78136e-19)
(0.517713 0.330536 -5.13845e-19)
(0.745527 0.480059 -3.40747e-19)
(0.895932 0.571423 3.27376e-19)
(0.983137 0.612129 1.11465e-19)
(1.02559 0.616334 -8.29741e-20)
(1.04116 0.598621 8.50646e-20)
(1.0433 0.570234 -1.80469e-19)
(1.04015 0.538391 4.26026e-19)
(1.03579 0.506698 -3.58934e-19)
(1.03186 0.476551 2.64206e-20)
(1.02876 0.448343 -2.4335e-20)
(1.02635 0.42236 1.11638e-19)
(1.02453 0.399042 -2.44401e-20)
(1.02517 0.376437 3.87336e-21)
(0.203717 0.141534 -1.55632e-19)
(0.50826 0.358582 -4.73814e-19)
(0.725441 0.511328 4.33752e-20)
(0.865798 0.599368 6.38376e-20)
(0.945567 0.6343 -2.31344e-19)
(0.984111 0.632671 -1.3088e-20)
(0.998879 0.610226 -6.97584e-21)
(1.00217 0.578514 9.81622e-20)
(1.00124 0.544351 -7.03385e-20)
(0.99952 0.510963 6.17393e-20)
(0.998278 0.479512 -1.63468e-20)
(0.997727 0.450276 7.10295e-21)
(0.997646 0.423425 -1.32361e-20)
(0.998123 0.399226 -1.20482e-20)
(1.00126 0.376068 6.15499e-21)
(0.199868 0.154058 -3.22516e-19)
(0.492947 0.38311 3.21871e-19)
(0.698493 0.537452 2.93995e-19)
(0.829123 0.621536 -2.08796e-19)
(0.902667 0.650679 -2.43887e-19)
(0.938671 0.64369 6.93035e-20)
(0.953599 0.617179 1.7075e-19)
(0.95877 0.582669 -1.75566e-19)
(0.960539 0.546596 -1.6145e-20)
(0.961788 0.511821 -2.11011e-20)
(0.963495 0.479308 7.66708e-21)
(0.965735 0.449262 -3.9699e-20)
(0.968326 0.421696 2.21301e-20)
(0.971657 0.396655 -2.89487e-20)
(0.977746 0.373131 2.08189e-20)
(0.193335 0.164962 3.60696e-21)
(0.472338 0.403495 -4.77023e-19)
(0.66548 0.557811 3.08613e-19)
(0.787 0.63738 -1.32879e-19)
(0.855495 0.66094 8.75255e-20)
(0.889987 0.64917 9.22187e-20)
(0.905942 0.619237 -5.83056e-20)
(0.913572 0.582479 2.42529e-20)
(0.918397 0.544908 2.90741e-20)
(0.922825 0.509029 -3.06818e-21)
(0.927616 0.47563 1.12678e-20)
(0.932799 0.444852 -8.62833e-20)
(0.938417 0.416537 1.37741e-19)
(0.945237 0.390636 -1.95543e-20)
(0.95446 0.367336 4.85305e-20)
(0.184455 0.173734 -6.15774e-20)
(0.447081 0.418953 1.613e-19)
(0.627333 0.571874 -1.86688e-19)
(0.740471 0.646539 5.21984e-20)
(0.804921 0.664837 -4.46186e-20)
(0.838863 0.648927 1.95811e-20)
(0.856551 0.616253 -2.94029e-20)
(0.867077 0.57783 -7.65814e-20)
(0.875184 0.539209 -5.01871e-21)
(0.882861 0.502547 1.30379e-19)
(0.890691 0.468432 -9.41237e-21)
(0.898741 0.436846 1.14281e-19)
(0.907462 0.407286 -3.06964e-19)
(0.917937 0.379588 2.35438e-19)
(0.929653 0.356719 -1.35763e-19)
(0.173548 0.180285 1.29896e-19)
(0.417858 0.429124 8.47577e-20)
(0.585085 0.579229 3.63168e-21)
(0.690543 0.648731 1.07966e-20)
(0.751893 0.662197 4.0752e-20)
(0.786106 0.642844 4.92264e-21)
(0.806097 0.608139 1.15208e-20)
(0.819844 0.568669 1.00834e-19)
(0.831373 0.529528 -7.63064e-20)
(0.84229 0.492559 6.87829e-20)
(0.853007 0.458164 -8.59761e-20)
(0.863654 0.426128 4.15742e-19)
(0.875107 0.395393 -3.08251e-19)
(0.888697 0.364168 2.64826e-19)
(0.899771 0.334591 -7.50038e-21)
(0.160874 0.184385 -1.39237e-20)
(0.385483 0.433715 -3.16927e-20)
(0.53976 0.579602 1.46026e-20)
(0.638262 0.643791 3.49743e-20)
(0.697357 0.652928 -1.99513e-20)
(0.732529 0.630861 1.35876e-19)
(0.755265 0.594839 -4.56517e-21)
(0.772473 0.554944 4.48855e-20)
(0.78753 0.51583 -1.09925e-19)
(0.801718 0.479095 5.39262e-20)
(0.81533 0.445052 2.03832e-19)
(0.828549 0.413498 9.57994e-20)
(0.842167 0.383717 -4.44939e-19)
(0.8563 0.355021 1.75863e-19)
(0.865407 0.329479 -3.24898e-19)
(0.146792 0.185838 1.34938e-19)
(0.350806 0.432501 1.70457e-19)
(0.492395 0.572859 -1.17145e-19)
(0.584662 0.631668 1.61266e-19)
(0.642245 0.637028 1.60229e-19)
(0.678925 0.612985 -1.40609e-19)
(0.704729 0.576352 1.51042e-19)
(0.725548 0.53663 -1.63496e-19)
(0.744199 0.498035 -1.27021e-19)
(0.761724 0.46192 -6.11794e-19)
(0.778386 0.428472 2.11734e-19)
(0.794414 0.397389 -3.94506e-19)
(0.810383 0.367951 5.14194e-19)
(0.825807 0.339764 -3.38421e-20)
(0.835954 0.315261 1.96049e-19)
(0.131705 0.184524 -1.57123e-19)
(0.314688 0.425366 -9.25383e-20)
(0.444021 0.558982 -2.11796e-19)
(0.530759 0.612416 -1.38475e-19)
(0.587462 0.614578 2.09402e-19)
(0.626071 0.589298 -1.25154e-19)
(0.655148 0.552749 -2.21333e-19)
(0.679636 0.513803 -2.13827e-19)
(0.701856 0.476255 7.25731e-19)
(0.72266 0.441265 1.21819e-19)
(0.742286 0.408956 5.5924e-19)
(0.760978 0.379054 -5.36825e-19)
(0.77917 0.350993 -6.33041e-19)
(0.796224 0.324582 -5.81354e-20)
(0.808292 0.301754 3.47943e-19)
(0.116026 0.18039 -2.32173e-19)
(0.27799 0.412314 -2.86446e-22)
(0.395646 0.538069 -2.28808e-19)
(0.477532 0.586188 1.26446e-19)
(0.533881 0.585741 1.6369e-19)
(0.574716 0.559939 -1.84672e-19)
(0.607176 0.524134 -2.53748e-19)
(0.635332 0.486519 5.31243e-19)
(0.661083 0.450483 -8.13183e-19)
(0.68513 0.417 -7.26366e-20)
(0.7077 0.386131 -8.21319e-20)
(0.729035 0.3576 -3.91404e-19)
(0.749502 0.330948 6.41596e-19)
(0.768471 0.306146 -6.09932e-19)
(0.78275 0.284856 3.58421e-19)
(0.100171 0.173444 -1.77716e-19)
(0.241553 0.393457 5.51507e-19)
(0.348241 0.510327 9.25294e-20)
(0.425913 0.553234 4.21452e-19)
(0.482325 0.550761 -5.92372e-19)
(0.525567 0.525127 1.87675e-19)
(0.561417 0.490694 8.12648e-20)
(0.593153 0.454944 3.39425e-19)
(0.622313 0.420878 -2.57117e-19)
(0.649488 0.389315 7.67246e-19)
(0.674899 0.360275 5.40042e-20)
(0.698803 0.333505 4.13475e-19)
(0.721527 0.308624 3.69947e-20)
(0.742486 0.285631 -1.01965e-19)
(0.759036 0.265834 -6.17694e-19)
(0.0845469 0.163751 -4.35598e-19)
(0.206186 0.36901 6.38044e-19)
(0.302727 0.476068 -5.41741e-19)
(0.37678 0.513894 6.00911e-19)
(0.43357 0.509959 1.97719e-19)
(0.479295 0.485141 5.07903e-19)
(0.518454 0.452664 8.13881e-20)
(0.55362 0.419271 -1.57657e-19)
(0.586022 0.38759 1.91104e-19)
(0.616165 0.3583 -5.16433e-19)
(0.644275 0.331391 -9.28466e-20)
(0.670622 0.306635 -3.34753e-19)
(0.695515 0.283714 -1.98182e-19)
(0.718438 0.262637 4.72891e-19)
(0.737231 0.244412 -1.52238e-19)
(0.0695462 0.151435 -1.06393e-20)
(0.172654 0.339285 8.6186e-20)
(0.259962 0.435702 3.76197e-19)
(0.330944 0.468593 -9.08537e-19)
(0.38833 0.463733 -3.35474e-19)
(0.436514 0.440331 -9.30332e-20)
(0.478823 0.410347 2.24726e-19)
(0.517201 0.379764 -1.79284e-19)
(0.552625 0.350854 -5.52832e-19)
(0.585532 0.324176 2.88914e-20)
(0.616158 0.2997 2.82966e-19)
(0.644782 0.27722 3.59774e-19)
(0.671699 0.256472 7.8478e-20)
(0.696482 0.237441 -1.03328e-19)
(0.717421 0.220885 -4.49271e-19)
(0.0555365 0.13667 -1.67438e-19)
(0.141662 0.304683 -6.31437e-19)
(0.220731 0.389725 5.08297e-19)
(0.289146 0.417837 1.45118e-19)
(0.347257 0.412546 -1.57798e-19)
(0.39779 0.391106 -2.01223e-19)
(0.443014 0.3641 4.84445e-19)
(0.484332 0.336734 1.61673e-19)
(0.522507 0.310943 -1.73053e-19)
(0.557929 0.287177 6.39843e-19)
(0.590844 0.265396 -5.0306e-19)
(0.621539 0.245422 5.75483e-19)
(0.650295 0.227029 -4.72922e-19)
(0.676792 0.210183 2.55321e-19)
(0.699732 0.195433 -2.87455e-19)
(0.0428552 0.11968 -2.20998e-19)
(0.113848 0.265686 3.33816e-19)
(0.185741 0.338718 -6.32155e-19)
(0.252047 0.362201 1.73869e-19)
(0.310934 0.356926 -1.97588e-19)
(0.363625 0.337933 7.26337e-20)
(0.411468 0.314334 -9.99478e-20)
(0.4554 0.290547 4.41709e-21)
(0.496015 0.268183 -3.62557e-19)
(0.533665 0.247599 2.35527e-19)
(0.568609 0.22875 6.21026e-20)
(0.601133 0.211485 -1.86026e-20)
(0.631512 0.195618 -2.37326e-19)
(0.659542 0.18109 2.80324e-20)
(0.684291 0.168291 3.46096e-20)
(0.031803 0.10073 2.10616e-19)
(0.0897762 0.222844 -2.32526e-19)
(0.15561 0.283329 3.87819e-19)
(0.220226 0.302326 -3.15899e-19)
(0.279869 0.297456 -3.40837e-19)
(0.334462 0.281329 5.74899e-19)
(0.38457 0.261506 -3.79889e-19)
(0.430749 0.24161 -3.6787e-20)
(0.473454 0.222938 -1.97317e-19)
(0.513012 0.205769 3.25089e-19)
(0.549691 0.190058 5.77726e-20)
(0.583778 0.175681 -1.20881e-20)
(0.615541 0.162485 1.43719e-19)
(0.644893 0.150403 -4.25548e-20)
(0.671219 0.139699 2.70727e-19)
(0.0226388 0.0801244 -2.95908e-20)
(0.0699267 0.176772 -1.75187e-19)
(0.130863 0.224271 2.32849e-19)
(0.194172 0.238907 4.84228e-20)
(0.254491 0.234769 -7.00306e-20)
(0.310674 0.221857 2.28034e-19)
(0.362649 0.206117 6.52764e-20)
(0.41067 0.19037 -7.03695e-19)
(0.455084 0.175612 4.10615e-19)
(0.496202 0.162052 -4.70059e-20)
(0.534299 0.149649 -6.30905e-19)
(0.56966 0.138309 2.08092e-19)
(0.602549 0.127911 2.06883e-19)
(0.632989 0.118387 1.77095e-19)
(0.660624 0.109909 -1.73809e-19)
(0.015575 0.0581973 6.41567e-22)
(0.0546907 0.128134 1.15367e-19)
(0.111924 0.162305 -2.00979e-20)
(0.17428 0.172682 -1.72881e-19)
(0.235149 0.169538 -3.66819e-20)
(0.292564 0.160116 1.77135e-19)
(0.345971 0.148699 1.32358e-19)
(0.395399 0.137304 3.90336e-20)
(0.441117 0.126636 -3.83905e-20)
(0.483425 0.116838 1.38338e-19)
(0.522603 0.107881 1.21781e-19)
(0.558932 0.0996945 2.02938e-19)
(0.592678 0.0921943 -7.93745e-20)
(0.623952 0.0853216 -3.62197e-19)
(0.652595 0.0791809 7.65896e-20)
(0.0107742 0.0353083 -8.41202e-20)
(0.0443661 0.0776334 -5.81177e-20)
(0.0991176 0.0982337 1.19547e-19)
(0.160851 0.104428 -1.07681e-19)
(0.222106 0.102465 6.66683e-20)
(0.280362 0.0967324 -7.86598e-21)
(0.334739 0.0898122 -6.58209e-20)
(0.385117 0.082916 1.0644e-19)
(0.431715 0.0764645 1.70378e-20)
(0.474825 0.0705409 -3.72405e-20)
(0.514732 0.0651266 6.89565e-20)
(0.551712 0.0601803 -2.51538e-19)
(0.586035 0.0556506 -2.24558e-20)
(0.617873 0.0514983 3.53028e-20)
(0.647204 0.0477789 -2.64414e-20)
(0.00834601 0.0118348 6.76769e-20)