/*--------------------------------*- C++ -*----------------------------------*\
  =========                 |
  \\      /  F ield         | OpenFOAM: The Open Source CFD Toolbox
   \\    /   O peration     | Website:  https://openfoam.org
    \\  /    A nd           | Version:  7
     \\/     M anipulation  |
\*---------------------------------------------------------------------------*/
FoamFile
{
    version     2.0;
    format      ascii;
    class       volScalarField;
    location    "90";
    object      p;
}
// * * * * * * * * * * * * * * * * * * * * * * * * * * * * * * * * * * * * * //

dimensions      [0 2 -2 0 0 0 0];

internalField   nonuniform List<scalar> 
6000
(
-0.327928
-0.327869
-0.327389
-0.32644
-0.325073
-0.33792
-0.338742
-0.339107
-0.338949
-0.338244
-0.347846
-0.349546
-0.350726
-0.351301
-0.35119
-0.360156
-0.362085
-0.363318
-0.363689
-0.370392
-0.373017
-0.374827
-0.375509
-0.380121
-0.383359
-0.385672
-0.386404
-0.389203
-0.392949
-0.395724
-0.396081
-0.397497
-0.401624
-0.404865
-0.404309
-0.404879
-0.409259
-0.412727
-0.411826
-0.411216
-0.415755
-0.419279
-0.417835
-0.416423
-0.420962
-0.424505
-0.422215
-0.424796
-0.428326
-0.424935
-0.427222
-0.430686
-0.426001
-0.428248
-0.431571
-0.425456
-0.427918
-0.430996
-0.423389
-0.428996
-0.419921
-0.425619
-0.415179
-0.420922
-0.409298
-0.402408
-0.394638
-0.386119
-0.322833
-0.317323
-0.311166
-0.303456
-0.295481
-0.287659
-0.281048
-0.276411
-0.274436
-0.275463
-0.279411
-0.285682
-0.293198
-0.300564
-0.306145
-0.308501
-0.30655
-0.299466
-0.287089
-0.269821
-0.248822
-0.225601
-0.201872
-0.179211
-0.158849
-0.141574
-0.127761
-0.117483
-0.11064
-0.107112
-0.106874
-0.110024
-0.11665
-0.126575
-0.139118
-0.153041
-0.16673
-0.178488
-0.186819
-0.190612
-0.189275
-0.182876
-0.171985
-0.157735
-0.14155
-0.124854
-0.108835
-0.0943157
-0.0817547
-0.0713179
-0.0629804
-0.0566164
-0.0520662
-0.0491755
-0.0478135
-0.0478834
-0.0493437
-0.0522355
-0.0566836
-0.0628322
-0.0707107
-0.0800854
-0.0903875
-0.10076
-0.110202
-0.117734
-0.122558
-0.124151
-0.122339
-0.11733
-0.109631
-0.0999603
-0.0891081
-0.077817
-0.0666944
-0.0561767
-0.0465346
-0.0379035
-0.0303211
-0.0237654
-0.0181845
-0.0135194
-0.00971318
-0.00671957
-0.00450838
-0.00308665
-0.00250118
-0.00282963
-0.00411244
-0.00628765
-0.00912643
-0.0122378
-0.0151599
-0.017362
-0.0185331
-0.0181933
-0.0165548
-0.0130672
-0.00876509
-0.00286861
-0.336629
-0.330578
-0.323637
-0.314393
-0.304348
-0.293887
-0.2842
-0.276147
-0.270551
-0.267944
-0.268439
-0.271638
-0.27663
-0.28211
-0.286533
-0.288379
-0.286578
-0.280264
-0.269224
-0.253704
-0.234804
-0.213856
-0.192431
-0.171983
-0.153663
-0.138225
-0.126048
-0.117224
-0.1117
-0.109415
-0.110416
-0.114857
-0.122831
-0.134101
-0.147877
-0.16281
-0.177209
-0.189344
-0.197714
-0.20122
-0.199315
-0.192067
-0.180136
-0.16473
-0.147359
-0.12952
-0.11245
-0.0969913
-0.0835999
-0.0724274
-0.06343
-0.0564631
-0.0513489
-0.0479172
-0.0460238
-0.0455591
-0.0464664
-0.0487674
-0.0525686
-0.0580074
-0.0651274
-0.0737311
-0.0832985
-0.093024
-0.101951
-0.109142
-0.113823
-0.115489
-0.113962
-0.109433
-0.102361
-0.0934156
-0.083336
-0.0728188
-0.0624374
-0.0526076
-0.0435909
-0.0355218
-0.0284425
-0.0223383
-0.0171665
-0.0128776
-0.00942332
-0.00676583
-0.00488427
-0.00379701
-0.00356224
-0.00426592
-0.00594758
-0.00853445
-0.011775
-0.0152516
-0.0184677
-0.0208626
-0.0220844
-0.0216285
-0.0196628
-0.0156403
-0.0105212
-0.00366717
-0.350379
-0.343682
-0.335997
-0.325194
-0.313072
-0.299953
-0.287167
-0.275654
-0.266369
-0.26003
-0.256945
-0.256911
-0.259207
-0.262658
-0.265741
-0.267011
-0.265385
-0.259854
-0.250188
-0.236453
-0.219713
-0.201091
-0.182026
-0.163845
-0.147618
-0.134064
-0.123556
-0.116214
-0.112029
-0.111011
-0.113282
-0.119044
-0.128388
-0.141002
-0.155987
-0.17189
-0.186955
-0.199431
-0.207819
-0.211025
-0.208575
-0.200519
-0.187594
-0.171087
-0.152589
-0.133669
-0.115608
-0.0992654
-0.0850927
-0.0732264
-0.0636043
-0.0560635
-0.0504094
-0.0464572
-0.0440498
-0.0430658
-0.0434342
-0.0451583
-0.0483258
-0.0530658
-0.0594343
-0.0672698
-0.0761023
-0.085179
-0.0935908
-0.100437
-0.104973
-0.106708
-0.105458
-0.1014
-0.0949459
-0.0867164
-0.0774012
-0.0676521
-0.0580091
-0.0488673
-0.0404787
-0.0329763
-0.0264061
-0.0207607
-0.0160061
-0.0121018
-0.00900828
-0.00669622
-0.00515446
-0.00441306
-0.0045418
-0.00563485
-0.00773051
-0.0107452
-0.0144045
-0.0182647
-0.0217934
-0.0243994
-0.0256875
-0.0251272
-0.022839
-0.0182781
-0.0123278
-0.00449208
-0.363841
-0.356397
-0.348013
-0.33565
-0.321471
-0.305715
-0.289857
-0.274893
-0.261911
-0.251811
-0.245077
-0.241706
-0.241164
-0.242415
-0.244027
-0.244622
-0.243176
-0.238399
-0.230106
-0.218162
-0.203613
-0.187341
-0.170664
-0.154779
-0.140673
-0.129026
-0.120208
-0.114362
-0.111533
-0.111807
-0.115378
-0.122495
-0.133226
-0.147179
-0.163343
-0.180172
-0.19586
-0.208644
-0.217036
-0.219933
-0.216981
-0.208165
-0.194305
-0.176764
-0.15721
-0.137282
-0.1183
-0.101137
-0.0862381
-0.0737247
-0.0635165
-0.0554336
-0.0492664
-0.0448163
-0.0419145
-0.0404286
-0.0402746
-0.0414383
-0.0439887
-0.0480449
-0.0536736
-0.0607479
-0.0688489
-0.0772778
-0.0851735
-0.0916735
-0.0960598
-0.0978575
-0.096875
-0.093277
-0.0874245
-0.079896
-0.071332
-0.0623403
-0.0534283
-0.0449705
-0.037209
-0.0302747
-0.024217
-0.0190352
-0.0147035
-0.0111905
-0.00846483
-0.00650593
-0.00531257
-0.00492686
-0.00543023
-0.00692494
-0.00944783
-0.0129047
-0.0169983
-0.021259
-0.025118
-0.0279533
-0.0293237
-0.0286721
-0.0260686
-0.0209691
-0.0141774
-0.00534
-0.376767
-0.368469
-0.359441
-0.345538
-0.32935
-0.311021
-0.292166
-0.27381
-0.257191
-0.243369
-0.232978
-0.226218
-0.222736
-0.221656
-0.221716
-0.221517
-0.219987
-0.216056
-0.209097
-0.198924
-0.18657
-0.17264
-0.158354
-0.144767
-0.132787
-0.123052
-0.115929
-0.111588
-0.110132
-0.111721
-0.116629
-0.125133
-0.137267
-0.152548
-0.169855
-0.187564
-0.203829
-0.216892
-0.225287
-0.228001
-0.224474
-0.214948
-0.200224
-0.181726
-0.161201
-0.140347
-0.120522
-0.102608
-0.0870438
-0.0739338
-0.0631813
-0.0545909
-0.0479392
-0.0430157
-0.0396409
-0.0376726
-0.0370147
-0.0376369
-0.0395898
-0.0429811
-0.0478855
-0.0542095
-0.0615855
-0.0693701
-0.0767509
-0.0829033
-0.0871355
-0.088987
-0.0882581
-0.0851049
-0.0798341
-0.072987
-0.0651562
-0.0569067
-0.0487141
-0.0409324
-0.0337934
-0.0274256
-0.021881
-0.0171651
-0.0132601
-0.0101429
-0.00779047
-0.00619076
-0.00535274
-0.00533083
-0.00621807
-0.00812471
-0.0110859
-0.0149971
-0.0195384
-0.0242152
-0.0284214
-0.0315036
-0.032973
-0.0322442
-0.029335
-0.0237004
-0.0160612
-0.00620703
-0.388931
-0.379647
-0.370041
-0.354639
-0.336518
-0.31572
-0.293987
-0.272351
-0.252214
-0.234781
-0.22079
-0.210651
-0.204167
-0.200656
-0.199031
-0.197945
-0.196057
-0.192973
-0.187307
-0.178848
-0.168657
-0.157031
-0.145111
-0.1338
-0.123928
-0.116093
-0.110658
-0.107826
-0.10776
-0.110697
-0.116979
-0.126902
-0.140451
-0.157042
-0.175453
-0.193991
-0.21079
-0.224103
-0.232489
-0.234957
-0.230991
-0.220824
-0.205314
-0.185949
-0.164544
-0.142857
-0.122274
-0.103685
-0.0875201
-0.0738676
-0.0626152
-0.0535536
-0.0464478
-0.0410769
-0.0372521
-0.0348224
-0.0336809
-0.0337824
-0.0351599
-0.0379083
-0.042108
-0.0476963
-0.0543568
-0.0615025
-0.0683707
-0.0741748
-0.078248
-0.080144
-0.0796554
-0.0769239
-0.0722104
-0.0660214
-0.0589016
-0.051375
-0.043886
-0.0367687
-0.0302443
-0.0244383
-0.0194047
-0.0151547
-0.0116779
-0.00895927
-0.00698347
-0.00574722
-0.00526973
-0.00561786
-0.00689617
-0.00922276
-0.0126309
-0.0170063
-0.0220069
-0.0271133
-0.0316821
-0.0350283
-0.0366134
-0.0358232
-0.0326201
-0.0264586
-0.0179694
-0.00708853
-0.400196
-0.389658
-0.379586
-0.362736
-0.342789
-0.319677
-0.295217
-0.270472
-0.246989
-0.226126
-0.208651
-0.195209
-0.185708
-0.1797
-0.176254
-0.174119
-0.171973
-0.169019
-0.164972
-0.158039
-0.149951
-0.140565
-0.13096
-0.121876
-0.114075
-0.108112
-0.104351
-0.10303
-0.104376
-0.1087
-0.116398
-0.127771
-0.142739
-0.160615
-0.180083
-0.199396
-0.216684
-0.230219
-0.238595
-0.240848
-0.236494
-0.22576
-0.209551
-0.189415
-0.167232
-0.144809
-0.12356
-0.104378
-0.0876799
-0.0735415
-0.0618355
-0.0523407
-0.0448125
-0.0390213
-0.0347706
-0.0319017
-0.0302985
-0.0299019
-0.030728
-0.0328583
-0.036376
-0.0412468
-0.0472041
-0.0537183
-0.0600773
-0.0655324
-0.0694412
-0.071373
-0.0711704
-0.0687716
-0.0645878
-0.0590302
-0.0525953
-0.0457684
-0.0389638
-0.0324958
-0.0265749
-0.021323
-0.0167957
-0.0130091
-0.00995994
-0.00764045
-0.00604291
-0.00517257
-0.00505895
-0.00578141
-0.00745581
-0.010208
-0.0140692
-0.0189161
-0.0243848
-0.0299326
-0.0348779
-0.0385044
-0.0402219
-0.0393871
-0.035904
-0.0292294
-0.019891
-0.0079791
-0.410397
-0.398281
-0.387868
-0.369652
-0.348008
-0.32277
-0.295765
-0.268154
-0.24154
-0.217497
-0.196696
-0.180095
-0.167602
-0.159076
-0.153683
-0.150331
-0.147834
-0.144731
-0.14231
-0.136615
-0.13054
-0.123304
-0.115934
-0.109006
-0.10322
-0.0990915
-0.096985
-0.0971803
-0.0999648
-0.105721
-0.114881
-0.127728
-0.14411
-0.163236
-0.183708
-0.203741
-0.221472
-0.235206
-0.243574
-0.245646
-0.240958
-0.229735
-0.21292
-0.192115
-0.16926
-0.146207
-0.124389
-0.104698
-0.0875384
-0.0729725
-0.0608604
-0.0509715
-0.0430534
-0.03687
-0.0322185
-0.0289337
-0.0268914
-0.0260207
-0.0263211
-0.0278604
-0.0307218
-0.0348961
-0.0401651
-0.0460569
-0.0519111
-0.0570167
-0.0607546
-0.0627033
-0.0626852
-0.060674
-0.0569984
-0.0520429
-0.046264
-0.0401102
-0.0339673
-0.0281303
-0.0227987
-0.0180904
-0.014062
-0.0107342
-0.00810992
-0.00618828
-0.00496871
-0.00446489
-0.00471657
-0.00581558
-0.00788879
-0.0110696
-0.0153874
-0.0207104
-0.0266535
-0.0326519
-0.0379857
-0.0419078
-0.0437743
-0.0429125
-0.0391664
-0.0319979
-0.0218118
-0.00887244
-0.418264
-0.406027
-0.394626
-0.375398
-0.352115
-0.324912
-0.29558
-0.265392
-0.235895
-0.209026
-0.185076
-0.165521
-0.150092
-0.139073
-0.131625
-0.126913
-0.123862
-0.120349
-0.119615
-0.11471
-0.110531
-0.10533
-0.100086
-0.0952223
-0.0913815
-0.0890407
-0.0885702
-0.090288
-0.0945431
-0.101778
-0.112445
-0.126785
-0.144563
-0.164895
-0.186311
-0.207006
-0.225135
-0.239045
-0.247413
-0.249338
-0.244373
-0.232741
-0.215415
-0.194049
-0.170635
-0.147062
-0.124774
-0.10466
-0.0871125
-0.0721786
-0.0597088
-0.0494654
-0.0411906
-0.0346436
-0.0296167
-0.0259399
-0.0234822
-0.0221621
-0.0219638
-0.0229408
-0.0251741
-0.0286759
-0.033274
-0.038554
-0.0439083
-0.048664
-0.0522244
-0.0541746
-0.0543251
-0.0526683
-0.0494732
-0.0450882
-0.0399331
-0.0344229
-0.0289163
-0.0236889
-0.0189297
-0.014752
-0.0112128
-0.00833683
-0.00613251
-0.00460543
-0.00376166
-0.0036231
-0.00423957
-0.00571524
-0.00818757
-0.0117975
-0.0165723
-0.022373
-0.0287941
-0.0352499
-0.0409822
-0.0452135
-0.0472453
-0.0463749
-0.0423847
-0.0347383
-0.0237179
-0.00976209
-0.424642
-0.412253
-0.399802
-0.379783
-0.355031
-0.326133
-0.29467
-0.262156
-0.230015
-0.200828
-0.173908
-0.151729
-0.133424
-0.119987
-0.110389
-0.104204
-0.10037
-0.096947
-0.0958487
-0.0924484
-0.090068
-0.0867603
-0.083501
-0.080588
-0.0786099
-0.0780056
-0.0791532
-0.0824027
-0.0881637
-0.096922
-0.109129
-0.124971
-0.144118
-0.165599
-0.187894
-0.209189
-0.227672
-0.241738
-0.250114
-0.251927
-0.246742
-0.23478
-0.217042
-0.195224
-0.171367
-0.147385
-0.124731
-0.104283
-0.0864206
-0.0711787
-0.0583998
-0.0478417
-0.0392436
-0.0323618
-0.0269855
-0.0229409
-0.0200918
-0.0183474
-0.0176783
-0.018123
-0.0197584
-0.022614
-0.0265607
-0.0312412
-0.0361012
-0.0405068
-0.0438831
-0.045821
-0.0461242
-0.0447885
-0.0420419
-0.0381926
-0.0336271
-0.0287287
-0.0238301
-0.0191886
-0.0149823
-0.0113195
-0.00825764
-0.00582433
-0.00403316
-0.00289543
-0.00242343
-0.002647
-0.00362581
-0.00547606
-0.00834537
-0.012382
-0.0176115
-0.0238886
-0.0307881
-0.0377053
-0.0438438
-0.0483967
-0.0506092
-0.0497493
-0.0455332
-0.0374209
-0.0255987
-0.0106474
-0.429442
-0.416893
-0.403402
-0.382752
-0.356724
-0.32632
-0.293095
-0.258614
-0.22446
-0.192607
-0.163122
-0.138891
-0.117808
-0.102127
-0.0902848
-0.0825353
-0.0776635
-0.073964
-0.0725666
-0.0701002
-0.0693567
-0.0677609
-0.0663078
-0.0652104
-0.0649996
-0.066077
-0.0688207
-0.0736138
-0.0809141
-0.0912318
-0.104999
-0.122332
-0.142806
-0.165372
-0.188472
-0.210305
-0.229096
-0.2433
-0.251693
-0.253429
-0.24808
-0.235865
-0.217811
-0.195654
-0.17147
-0.147195
-0.124279
-0.103586
-0.0854825
-0.0699922
-0.0569525
-0.0461193
-0.0372311
-0.0300433
-0.0243436
-0.0199556
-0.0167392
-0.0145961
-0.0134842
-0.0134278
-0.0144967
-0.0167347
-0.0200516
-0.0241461
-0.028518
-0.0325734
-0.035759
-0.0376713
-0.0381099
-0.0370641
-0.0347315
-0.0313812
-0.027369
-0.0230487
-0.0187278
-0.0146462
-0.0109709
-0.00780543
-0.00520661
-0.00320489
-0.0018181
-0.00106265
-0.00095655
-0.0015373
-0.00287404
-0.00509463
-0.0083563
-0.0128146
-0.0184933
-0.0252421
-0.0326173
-0.0399971
-0.0465468
-0.0514318
-0.0538401
-0.0530103
-0.0485899
-0.040037
-0.0274405
-0.0115213
-0.432541
-0.419903
-0.405455
-0.384241
-0.357185
-0.325576
-0.290917
-0.254816
-0.218939
-0.184956
-0.153565
-0.126617
-0.10324
-0.0857092
-0.0715686
-0.0622498
-0.0560946
-0.0518067
-0.0502569
-0.0478251
-0.0486935
-0.0485607
-0.048691
-0.0492503
-0.0506978
-0.0533941
-0.0577063
-0.0640507
-0.0729143
-0.0848124
-0.100138
-0.118931
-0.140674
-0.164249
-0.188079
-0.210383
-0.229438
-0.24376
-0.252193
-0.253873
-0.248411
-0.236019
-0.217744
-0.195359
-0.170967
-0.146514
-0.12344
-0.102592
-0.0843189
-0.0686387
-0.0553858
-0.0443165
-0.0351711
-0.0277059
-0.0217085
-0.0170015
-0.0134419
-0.0109253
-0.00939874
-0.00887257
-0.00940788
-0.0110583
-0.013769
-0.0172922
-0.0211829
-0.024888
-0.0278765
-0.0297505
-0.0303064
-0.0295193
-0.0275658
-0.0246768
-0.0211806
-0.0174031
-0.013628
-0.0100782
-0.00691014
-0.00422225
-0.00207043
-0.000487284
0.000505751
0.000887739
0.000635554
-0.000295635
-0.00198396
-0.00456848
-0.00821539
-0.0130874
-0.0192068
-0.0264196
-0.0342647
-0.0421051
-0.0490684
-0.0542941
-0.0569118
-0.0561323
-0.0515331
-0.0425665
-0.0292283
-0.0123761
-0.433865
-0.421249
-0.405962
-0.384289
-0.356496
-0.323984
-0.28824
-0.250886
-0.213599
-0.177914
-0.144856
-0.115739
-0.0904996
-0.0704848
-0.0542829
-0.043641
-0.0359936
-0.0310287
-0.0291603
-0.0256868
-0.0284809
-0.0294486
-0.030894
-0.0329268
-0.0359091
-0.0401426
-0.0459882
-0.0538786
-0.064312
-0.0777891
-0.0946489
-0.114846
-0.13778
-0.162279
-0.186757
-0.209466
-0.228737
-0.243156
-0.251677
-0.253301
-0.247769
-0.235269
-0.216869
-0.194367
-0.169886
-0.145369
-0.12224
-0.101322
-0.0829509
-0.067138
-0.0537181
-0.0424509
-0.0330805
-0.025366
-0.0190964
-0.0140943
-0.0102153
-0.00735026
-0.00543669
-0.00447189
-0.00450724
-0.00560163
-0.00773131
-0.0106995
-0.0141163
-0.017471
-0.020256
-0.022079
-0.0227327
-0.0221755
-0.0205664
-0.0181002
-0.015082
-0.011811
-0.00854838
-0.00550091
-0.00281464
-0.000582822
0.00113985
0.00231916
0.00293074
0.00294979
0.0023486
0.00107545
-0.000956255
-0.00389618
-0.00791878
-0.0131939
-0.0197424
-0.0274082
-0.0357138
-0.0440097
-0.0513863
-0.0569592
-0.0597992
-0.0590902
-0.0543388
-0.0449932
-0.0309513
-0.013205
-0.433387
-0.420914
-0.404964
-0.382991
-0.354736
-0.32164
-0.28517
-0.246938
-0.208596
-0.171613
-0.137145
-0.106263
-0.0793694
-0.0572698
-0.0393963
-0.0266002
-0.0176596
-0.0118445
-0.00963668
-0.0115086
-0.00934476
-0.0107519
-0.0132121
-0.0165147
-0.0208842
-0.0265565
-0.033882
-0.0432913
-0.0552755
-0.0703018
-0.0886421
-0.110165
-0.134195
-0.15952
-0.18456
-0.207606
-0.227049
-0.241531
-0.249968
-0.251739
-0.246193
-0.233655
-0.215221
-0.19271
-0.168257
-0.14379
-0.120704
-0.0998008
-0.0814
-0.0655094
-0.0519672
-0.0405391
-0.030975
-0.0230387
-0.0165219
-0.0112483
-0.00707318
-0.00388411
-0.00161061
-0.000237852
0.000193194
-0.000377954
-0.00195327
-0.00438401
-0.00733483
-0.0103392
-0.012914
-0.0146732
-0.0154055
-0.0150531
-0.0137519
-0.0116698
-0.00909172
-0.00629042
-0.00350612
-0.000930218
0.00130115
0.0030999
0.00441284
0.00520464
0.00544862
0.00511684
0.00417749
0.00257248
0.000207432
-0.00307732
-0.00746369
-0.0131286
-0.0200916
-0.0281963
-0.0369498
-0.0456929
-0.0534794
-0.0594036
-0.0624774
-0.0618592
-0.0569847
-0.0472998
-0.0325966
-0.0140009
-0.431128
-0.418891
-0.402547
-0.380434
-0.351998
-0.318646
-0.281813
-0.243077
-0.204047
-0.166149
-0.130578
-0.0982992
-0.0699309
-0.0460441
-0.026568
-0.0118757
-0.00142682
0.00553426
0.00862749
0.00855085
0.00917715
0.00725729
0.00402645
-0.000332347
-0.00591285
-0.0129046
-0.0216299
-0.0325015
-0.0459852
-0.0624976
-0.0822347
-0.104981
-0.129995
-0.15604
-0.181549
-0.204864
-0.224438
-0.238983
-0.247465
-0.249247
-0.243729
-0.231222
-0.212841
-0.190429
-0.166118
-0.141808
-0.118863
-0.0980533
-0.0796875
-0.0637717
-0.05015
-0.0385965
-0.0288691
-0.0207377
-0.013998
-0.00847593
-0.00402743
-0.000538056
0.00206914
0.00381998
0.00468447
0.00460295
0.00355392
0.0016418
-0.000851836
-0.00350589
-0.00586375
-0.00754625
-0.00833767
-0.0081703
-0.00713774
-0.00540177
-0.00322637
-0.000858078
0.00148263
0.00361856
0.00542301
0.00681295
0.00773691
0.0081589
0.00805062
0.00738152
0.00611632
0.0041911
0.00150446
-0.0021126
-0.00684854
-0.0128873
-0.0202473
-0.0287736
-0.0379592
-0.0471379
-0.0553281
-0.0616053
-0.064923
-0.0644159
-0.0594489
-0.0494657
-0.0341496
-0.014757
-0.427154
-0.415199
-0.398797
-0.37672
-0.348382
-0.315103
-0.278265
-0.239393
-0.200041
-0.161594
-0.125237
-0.0919015
-0.0622892
-0.03689
-0.0158913
0.000518383
0.0125164
0.0207731
0.0250408
0.0262936
0.0264294
0.0242224
0.0204683
0.0152885
0.00869099
0.000527135
-0.0094861
-0.0217288
-0.0366239
-0.054524
-0.0755438
-0.0993878
-0.12526
-0.151909
-0.177794
-0.201309
-0.220971
-0.235559
-0.244073
-0.245887
-0.240436
-0.228018
-0.209776
-0.187566
-0.163506
-0.139459
-0.116744
-0.096104
-0.0778345
-0.0619431
-0.0482825
-0.0366377
-0.026776
-0.0184753
-0.0115362
-0.00578802
-0.00108818
0.00267859
0.00559425
0.00769434
0.00895995
0.00933483
0.00878246
0.00736878
0.00532272
0.00301874
0.000884828
-0.000708089
-0.00153985
-0.00157234
-0.000732671
0.000690522
0.00249897
0.00447071
0.00640267
0.00813073
0.00953703
0.0105434
0.0111003
0.0111714
0.0107275
0.00973585
0.00815845
0.00592612
0.00293122
-0.00100377
-0.00607297
-0.0124673
-0.0202041
-0.0291316
-0.0387303
-0.0483298
-0.0569143
-0.063544
-0.067114
-0.0667379
-0.0617101
-0.0514709
-0.0355969
-0.0154668
-0.421503
-0.410005
-0.393804
-0.371959
-0.343993
-0.311105
-0.274605
-0.235953
-0.196632
-0.157982
-0.12116
-0.0870799
-0.0564735
-0.0298212
-0.00743743
0.0105313
0.0240673
0.0336987
0.0392762
0.0416948
0.0419955
0.0397889
0.0357658
0.0300171
0.0226148
0.0134544
0.00229861
-0.0111869
-0.0273677
-0.0465225
-0.0686823
-0.0934777
-0.120069
-0.1472
-0.173365
-0.197009
-0.216716
-0.23132
-0.239875
-0.24173
-0.23637
-0.224097
-0.206074
-0.184167
-0.160463
-0.136777
-0.114377
-0.0939776
-0.0758614
-0.0600409
-0.0463797
-0.0346757
-0.0247077
-0.0162622
-0.00914649
-0.00319379
0.00173615
0.00575831
0.00895828
0.0113801
0.0130155
0.0138139
0.013728
0.0127909
0.0111819
0.00922736
0.0073246
0.00583464
0.00498654
0.00485147
0.00546218
0.00659551
0.0080709
0.00968202
0.0112399
0.0125923
0.0136297
0.0142786
0.0144912
0.0142314
0.0134695
0.0121713
0.0102966
0.00777151
0.00448317
0.000246308
-0.00513788
-0.0118671
-0.0199581
-0.0292637
-0.0392532
-0.0492557
-0.0582223
-0.0652012
-0.0690304
-0.0688047
-0.0637483
-0.0532982
-0.0369261
-0.0161239
-0.414303
-0.40344
-0.387676
-0.366271
-0.338941
-0.306742
-0.2709
-0.232796
-0.193838
-0.155309
-0.11833
-0.0838001
-0.0524557
-0.0247954
-0.00119815
0.0181674
0.0331806
0.0442086
0.0511624
0.0547558
0.0555857
0.053658
0.0496169
0.0435524
0.0355721
0.0256148
0.013493
-0.0010718
-0.0183775
-0.0386225
-0.0617548
-0.0873385
-0.1145
-0.141988
-0.168332
-0.192036
-0.211743
-0.226339
-0.234935
-0.236836
-0.231591
-0.219513
-0.20179
-0.18028
-0.157032
-0.133798
-0.111794
-0.0916984
-0.0737881
-0.0580813
-0.0444554
-0.0327224
-0.0226745
-0.014108
-0.00683738
-0.000700853
0.00443875
0.00869526
0.0121566
0.0148738
0.016849
0.0180387
0.0183891
0.0179055
0.0167214
0.0151152
0.0134508
0.0120773
0.0112334
0.0110166
0.0114287
0.0123015
0.013478
0.0147634
0.0159812
0.0169901
0.0176882
0.018006
0.0178978
0.017328
0.0162667
0.0146789
0.0125228
0.00972054
0.00615488
0.00163374
-0.00404538
-0.0110869
-0.0195068
-0.0291649
-0.0395204
-0.049905
-0.0592385
-0.066561
-0.0706544
-0.0705976
-0.0655452
-0.054931
-0.0381257
-0.0167226
-0.40574
-0.395644
-0.380547
-0.359789
-0.333334
-0.302096
-0.267196
-0.229936
-0.19164
-0.15353
-0.116682
-0.0819786
-0.0501501
-0.0217181
0.00290195
0.0234955
0.0398836
0.0522823
0.0606324
0.0654512
0.0670151
0.0656114
0.0617863
0.0556488
0.0473222
0.0367846
0.0238989
0.00844801
-0.00979217
-0.0309371
-0.0548551
-0.0810513
-0.108627
-0.136342
-0.162768
-0.186462
-0.206124
-0.220685
-0.229315
-0.231269
-0.226159
-0.214326
-0.196977
-0.175957
-0.153258
-0.130561
-0.109022
-0.08929
-0.0716332
-0.0560795
-0.0425219
-0.0307886
-0.0206856
-0.0120205
-0.00461586
0.00168463
0.00701436
0.0114852
0.0151861
0.0181739
0.0204604
0.0220102
0.0227667
0.0227126
0.02194
0.02068
0.0192609
0.0180171
0.0171952
0.0169078
0.0171537
0.0177995
0.0187107
0.019704
0.0206147
0.0213119
0.0216999
0.0217134
0.0213084
0.0204501
0.0191089
0.0172493
0.0148286
0.0117658
0.00794011
0.0031536
-0.00279882
-0.0101282
-0.0188499
-0.0288323
-0.0395261
-0.0502692
-0.0599518
-0.0676098
-0.0719706
-0.0721006
-0.0670853
-0.056354
-0.0391842
-0.0172573
-0.396029
-0.386792
-0.372569
-0.352651
-0.327284
-0.297239
-0.263529
-0.227368
-0.189993
-0.152565
-0.116109
-0.0814879
-0.0494193
-0.0204442
0.00499816
0.0266434
0.0442741
0.057977
0.0677038
0.0737996
0.0762068
0.0755198
0.0721171
0.0661307
0.0576857
0.046792
0.0333611
0.0172386
-0.0017238
-0.02356
-0.0480637
-0.074689
-0.10252
-0.130334
-0.156742
-0.180357
-0.199932
-0.214429
-0.223082
-0.225089
-0.220134
-0.208593
-0.191692
-0.171249
-0.149186
-0.127102
-0.106093
-0.0867749
-0.0694143
-0.0540496
-0.0405908
-0.0288836
-0.018749
-0.0100065
-0.00248755
0.00395798
0.00945917
0.0141252
0.0180452
0.0212803
0.0238511
0.0257308
0.0268635
0.0272145
0.0268387
0.0259218
0.0247543
0.0236529
0.0228683
0.0225241
0.0226343
0.0230832
0.023761
0.0244942
0.0251299
0.0255461
0.0256534
0.0253893
0.0247118
0.0235869
0.0219857
0.0198728
0.0172052
0.0138992
0.00983183
0.00480005
-0.00140274
-0.00899403
-0.0179886
-0.0282651
-0.0392674
-0.0503427
-0.060354
-0.0683369
-0.0729665
-0.0732999
-0.0683554
-0.0575556
-0.0400925
-0.0177231
-0.38542
-0.377096
-0.363912
-0.345003
-0.320901
-0.292241
-0.259922
-0.225069
-0.188834
-0.15231
-0.116476
-0.0821666
-0.0500854
-0.0207851
0.00527646
0.0277909
0.0465104
0.0614173
0.0724666
0.0798857
0.0831785
0.0833408
0.0805345
0.0748989
0.0665503
0.055523
0.0417723
0.0252045
0.00574458
-0.0165638
-0.0414467
-0.0683151
-0.096243
-0.124027
-0.150323
-0.173791
-0.193237
-0.207644
-0.216302
-0.218358
-0.213575
-0.202375
-0.185993
-0.166209
-0.14486
-0.123457
-0.103032
-0.0841745
-0.0671478
-0.0520041
-0.0386719
-0.0270153
-0.016871
-0.00807121
-0.000456665
0.0061159
0.0117708
0.0166141
0.0207337
0.0241943
0.0270239
0.029205
0.0306845
0.0314155
0.0314209
0.0308424
0.0299322
0.0289853
0.0282525
0.0278696
0.0278696
0.0281487
0.0286229
0.0291262
0.0295172
0.0296825
0.0295374
0.0290223
0.0280967
0.0267274
0.0248867
0.0225396
0.0196433
0.0161124
0.0118223
0.00656634
0.000137231
-0.00768868
-0.0169256
-0.0274643
-0.0387432
-0.0501224
-0.0604397
-0.0687346
-0.0736329
-0.0741849
-0.0693439
-0.0585268
-0.0408451
-0.0181164
-0.37419
-0.366796
-0.354754
-0.336992
-0.314293
-0.287164
-0.25639
-0.223007
-0.188084
-0.152649
-0.11763
-0.083832
-0.0519425
-0.0225202
0.00396181
0.0271594
0.0467992
0.0627814
0.075069
0.0838465
0.0880199
0.089111
0.0870398
0.0819269
0.0738705
0.0629219
0.0490741
0.032289
0.0125594
-0.0100001
-0.0350559
-0.0619838
-0.0898533
-0.117484
-0.143574
-0.166829
-0.186105
-0.200415
-0.209044
-0.211136
-0.206542
-0.19573
-0.179939
-0.160889
-0.140324
-0.11966
-0.099867
-0.0815085
-0.0648485
-0.0499542
-0.0367738
-0.0251904
-0.0150569
-0.00621859
0.0014738
0.00815631
0.0139481
0.0189514
0.0232526
0.0269182
0.0299829
0.0324381
0.0342359
0.0353216
0.0356912
0.0354457
0.0347971
0.0340163
0.0333504
0.0329473
0.0328608
0.0329938
0.0332922
0.0335933
0.0337684
0.0337115
0.0333418
0.0326018
0.0314523
0.029861
0.0278015
0.0252396
0.0221334
0.0183963
0.0139034
0.00844495
0.00181439
-0.0062179
-0.0156657
-0.0264332
-0.0379552
-0.0496076
-0.0602064
-0.0687983
-0.0739634
-0.0747477
-0.0700433
-0.0592609
-0.041436
-0.0184337
-0.362641
-0.356147
-0.345283
-0.328762
-0.307562
-0.282062
-0.252941
-0.221146
-0.187665
-0.15346
-0.119412
-0.086293
-0.054772
-0.0254123
0.00130531
0.0250037
0.0453828
0.0622836
0.0756963
0.086035
0.0908996
0.0929331
0.0916996
0.0872516
0.0796602
0.0689861
0.055253
0.0384714
0.0186947
-0.00390046
-0.028929
-0.0557395
-0.0834021
-0.110762
-0.136555
-0.15953
-0.178598
-0.192873
-0.201377
-0.203479
-0.199093
-0.188722
-0.173588
-0.155342
-0.135621
-0.115745
-0.0966232
-0.0787958
-0.0625306
-0.0479108
-0.034905
-0.0234154
-0.0133117
-0.00445243
0.0033012
0.0100776
0.0159903
0.0211376
0.0256034
0.0294549
0.0327325
0.0354363
0.0375251
0.0389403
0.0396563
0.0397365
0.0393533
0.0387496
0.0381653
0.0377585
0.0376094
0.0376193
0.0377664
0.0378906
0.0378766
0.0376249
0.0370574
0.036118
0.0347685
0.0329774
0.0307199
0.027963
0.0246659
0.0207417
0.0160662
0.0104277
0.00362112
-0.00458861
-0.014215
-0.0251769
-0.0369073
-0.0488008
-0.0596547
-0.0685265
-0.073955
-0.0749839
-0.0704494
-0.0597522
-0.0418601
-0.0186722
-0.351074
-0.345407
-0.335679
-0.320449
-0.300799
-0.276985
-0.249581
-0.219448
-0.187496
-0.154625
-0.12167
-0.0893676
-0.058379
-0.0292412
-0.00245064
0.0215882
0.0425492
0.0601911
0.0744918
0.0873649
0.0919349
0.0949476
0.094628
0.0909603
0.083982
0.0737574
0.0603341
0.043763
0.024149
0.00172195
-0.0230909
-0.0496174
-0.0769334
-0.10391
-0.129322
-0.151947
-0.170757
-0.185188
-0.193348
-0.195432
-0.191284
-0.181409
-0.167
-0.149621
-0.130795
-0.111746
-0.0933264
-0.0760565
-0.0602094
-0.0458857
-0.0330744
-0.0216972
-0.0116404
-0.00277636
0.00502316
0.0118785
0.0178974
0.0231736
0.0277882
0.0318083
0.0352782
0.0382067
0.0405603
0.0422799
0.0433238
0.0437218
0.0436063
0.0431901
0.0427016
0.0423045
0.0420317
0.0420267
0.0420444
0.0420139
0.0418357
0.0414151
0.0406755
0.0395615
0.0380353
0.0360665
0.0336318
0.0306997
0.0272311
0.0231393
0.0183017
0.0125057
0.00554893
-0.00280887
-0.0125811
-0.0237022
-0.0356055
-0.0477065
-0.0587881
-0.067921
-0.0736081
-0.0748926
-0.0705595
-0.0599973
-0.0421155
-0.0188306
-0.334815
-0.326114
-0.312174
-0.294085
-0.271974
-0.246313
-0.217879
-0.187507
-0.156039
-0.124265
-0.0928894
-0.062556
-0.0337782
-0.00706814
0.0171507
0.038534
0.0567582
0.071487
0.0812448
0.0910023
0.0953202
0.095978
0.0931772
0.0869345
0.0773119
0.0643728
0.0482001
0.0289413
0.00686941
-0.0175543
-0.0436438
-0.0704843
-0.0969731
-0.121922
-0.14413
-0.162609
-0.177065
-0.184926
-0.187029
-0.18317
-0.173853
-0.160233
-0.143775
-0.125885
-0.107693
-0.0899975
-0.0733046
-0.0578941
-0.0438843
-0.0312848
-0.0200364
-0.0100422
-0.00118832
0.0066427
0.0135628
0.0196738
0.0250647
0.0298132
0.0339853
0.0376285
0.040759
0.0433522
0.0453517
0.0467043
0.0474107
0.0475645
0.0473452
0.0469668
0.0466022
0.0463281
0.046227
0.046126
0.0459604
0.045641
0.0450759
0.0441887
0.0429237
0.0412437
0.0391189
0.0365277
0.0334401
0.0298193
0.0255794
0.0206004
0.0146699
0.00758864
-0.000887722
-0.010773
-0.0220179
-0.0340582
-0.0463323
-0.057613
-0.0669867
-0.0729263
-0.0744755
-0.0703741
-0.0599968
-0.0422026
-0.0189079
-0.324587
-0.316743
-0.304048
-0.287494
-0.267069
-0.243146
-0.216417
-0.187646
-0.157618
-0.127082
-0.0967129
-0.0671293
-0.0388281
-0.0123276
0.0119333
0.0335965
0.0522903
0.0676983
0.0793447
0.0889671
0.0943121
0.0959483
0.0940574
0.0886406
0.0797477
0.0674458
0.0518387
0.0331071
0.011558
-0.0123209
-0.0378352
-0.0640828
-0.0899879
-0.114394
-0.136126
-0.154195
-0.167873
-0.176082
-0.178318
-0.174811
-0.166113
-0.153336
-0.13784
-0.120911
-0.103592
-0.0866343
-0.0705314
-0.0555717
-0.0418915
-0.02952
-0.0184169
-0.00850149
0.000326667
0.00817401
0.0151441
0.0213324
0.0268232
0.0316907
0.0359987
0.0397965
0.0431072
0.0459151
0.0481697
0.0498105
0.0508142
0.0512372
0.051224
0.0509699
0.0506551
0.0503843
0.0502199
0.0500124
0.0497291
0.0492896
0.0486025
0.0475904
0.0461971
0.0443851
0.0421254
0.039398
0.0361747
0.0324211
0.0280527
0.0229529
0.0169106
0.00973049
0.00116494
-0.00880109
-0.0201341
-0.0322758
-0.0446878
-0.0561388
-0.0657315
-0.0719167
-0.0737377
-0.0698977
-0.0597527
-0.0421223
-0.0189036
-0.314899
-0.307687
-0.29614
-0.281056
-0.262274
-0.24006
-0.215017
-0.187843
-0.159272
-0.130006
-0.100694
-0.0719353
-0.0442104
-0.0180351
0.00614027
0.0279549
0.0470344
0.0630953
0.0757615
0.0858493
0.0921437
0.094739
0.0937848
0.0892503
0.0811776
0.069638
0.0547416
0.0366889
0.0158114
-0.00738431
-0.0321999
-0.0577487
-0.0829818
-0.106771
-0.127972
-0.145564
-0.158673
-0.166975
-0.169407
-0.1663
-0.158268
-0.146372
-0.131859
-0.115901
-0.0994598
-0.083246
-0.0677431
-0.0532478
-0.0399129
-0.0277862
-0.0168452
-0.00702495
0.00176188
0.00961074
0.0166166
0.0228682
0.0284451
0.0334176
0.0378468
0.0417826
0.0452534
0.048253
0.050738
0.052646
0.0539343
0.0546249
0.0548259
0.0547104
0.0544618
0.054205
0.0540162
0.0537039
0.0533192
0.0527796
0.0519919
0.050876
0.0493754
0.0474522
0.0450779
0.0422342
0.0388946
0.0350271
0.0305498
0.0253494
0.019218
0.0119642
0.00333853
-0.00667661
-0.0180625
-0.0302706
-0.0427848
-0.0543775
-0.0641659
-0.0705892
-0.0726877
-0.0691378
-0.0592698
-0.0418774
-0.0188181
-0.305887
-0.299043
-0.288497
-0.274784
-0.257573
-0.237006
-0.213596
-0.187979
-0.160841
-0.132845
-0.104618
-0.0767299
-0.0496541
-0.0238997
7.16864e-05
0.0218833
0.0411502
0.0576043
0.0710292
0.08185
0.0890214
0.0925144
0.0925266
0.0889237
0.0817455
0.0710563
0.0569797
0.039728
0.0196439
-0.00275437
-0.0267684
-0.0515293
-0.0760157
-0.09912
-0.119747
-0.136801
-0.149537
-0.157664
-0.160353
-0.157722
-0.150425
-0.139466
-0.125975
-0.111015