/*--------------------------------*- C++ -*----------------------------------*\
  =========                 |
  \\      /  F ield         | OpenFOAM: The Open Source CFD Toolbox
   \\    /   O peration     | Website:  https://openfoam.org
    \\  /    A nd           | Version:  7
     \\/     M anipulation  |
\*---------------------------------------------------------------------------*/
FoamFile
{
    version     2.0;
    format      ascii;
    class       volVectorField;
    location    "40";
    object      U;
}
// * * * * * * * * * * * * * * * * * * * * * * * * * * * * * * * * * * * * * //

dimensions      [0 1 -1 0 0 0 0];

internalField   nonuniform List<vector> 
3312
(
(0.0081561 -0.0115792 3.79829e-21)
(0.0383289 -0.0254962 -4.0605e-20)
(0.0908313 -0.032309 8.06128e-20)
(0.151228 -0.0343973 5.15566e-20)
(0.211771 -0.0337954 -3.27106e-21)
(0.269669 -0.0319389 -2.98334e-20)
(0.323863 -0.0296795 4.62821e-21)
(0.374138 -0.0274214 7.26968e-21)
(0.420679 -0.0253074 8.70618e-21)
(0.463769 -0.023367 1.22624e-20)
(0.503688 -0.0215946 6.63104e-20)
(0.540708 -0.0199768 -3.48225e-20)
(0.575088 -0.0184967 1.61954e-21)
(0.607041 -0.0171405 3.81829e-20)
(0.636642 -0.0159238 -3.86935e-20)
(0.0105294 -0.0345433 1.20176e-19)
(0.0434315 -0.0761133 1.45002e-19)
(0.0971581 -0.0965034 -2.67648e-20)
(0.15786 -0.102784 -7.73667e-21)
(0.21821 -0.101017 -2.14628e-19)
(0.275691 -0.0954875 2.76195e-20)
(0.329402 -0.0887444 -1.38935e-20)
(0.379205 -0.0819997 -4.19347e-20)
(0.425309 -0.0756832 4.66829e-20)
(0.468 -0.0698845 3.32322e-21)
(0.507558 -0.0645871 -1.43953e-19)
(0.544254 -0.0597509 7.81483e-20)
(0.578349 -0.0553255 3.06134e-20)
(0.610021 -0.0512711 -3.02283e-20)
(0.639281 -0.0476387 -2.40374e-20)
(0.0152206 -0.0569279 -3.18206e-19)
(0.0535358 -0.125609 2.05684e-19)
(0.109703 -0.159431 9.76897e-20)
(0.171024 -0.169952 8.15968e-20)
(0.231 -0.167134 -1.8429e-20)
(0.287656 -0.158052 -1.86358e-20)
(0.340412 -0.14693 7.08268e-20)
(0.389278 -0.135787 2.4531e-20)
(0.434514 -0.125345 1.67023e-19)
(0.476413 -0.115755 1.29169e-19)
(0.515252 -0.106991 -3.01436e-20)
(0.551306 -0.0989885 2.05339e-19)
(0.584833 -0.0916617 -3.65747e-19)
(0.61595 -0.0849517 5.33257e-20)
(0.644536 -0.0789555 -6.75065e-21)
(0.0221202 -0.0783589 -5.3768e-20)
(0.0684414 -0.173257 -1.54836e-19)
(0.128248 -0.220267 -3.51435e-19)
(0.190516 -0.235105 4.42142e-19)
(0.249962 -0.231425 2.28038e-19)
(0.305412 -0.21899 -4.19976e-19)
(0.356758 -0.203664 1.95918e-19)
(0.404237 -0.18827 1.65969e-19)
(0.448185 -0.173826 -2.53696e-19)
(0.488911 -0.160556 -2.91944e-20)
(0.526685 -0.148425 -9.29121e-20)
(0.561784 -0.13734 1.29564e-19)
(0.594467 -0.127184 -1.78463e-19)
(0.624765 -0.117888 4.00414e-20)
(0.652358 -0.109611 -1.39126e-19)
(0.0310662 -0.0984805 -1.72389e-19)
(0.0878505 -0.218357 7.51958e-20)
(0.152471 -0.278216 1.20886e-20)
(0.216038 -0.297473 -1.08491e-19)
(0.274834 -0.293193 7.03527e-19)
(0.328728 -0.27768 -4.77606e-19)
(0.378238 -0.258391 -1.51657e-19)
(0.423901 -0.238949 8.29209e-20)
(0.466164 -0.22068 -1.01028e-19)
(0.505351 -0.203882 -1.93145e-19)
(0.541726 -0.188518 -9.20325e-20)
(0.57557 -0.174469 1.02798e-19)
(0.607144 -0.161583 3.98695e-19)
(0.636372 -0.149792 -1.83319e-21)
(0.66268 -0.139345 -2.67793e-19)
(0.0418468 -0.116962 2.45319e-19)
(0.111372 -0.260252 -2.33321e-19)
(0.181945 -0.332522 2.77859e-20)
(0.247193 -0.356324 -1.81002e-19)
(0.305267 -0.351771 1.79183e-20)
(0.357302 -0.333531 -1.34537e-19)
(0.404586 -0.310586 1.08736e-19)
(0.448036 -0.287354 3.90365e-20)
(0.488237 -0.26548 -3.75262e-20)
(0.525543 -0.245348 -4.05955e-19)
(0.560208 -0.226922 4.41938e-19)
(0.592513 -0.210056 -3.70262e-19)
(0.622724 -0.194565 3.25609e-19)
(0.650652 -0.180391 -4.1597e-19)
(0.675411 -0.167904 2.31821e-19)
(0.0542044 -0.133504 -2.51949e-19)
(0.138527 -0.298335 5.61446e-19)
(0.216147 -0.38248 -3.79439e-19)
(0.283492 -0.410968 -7.28715e-20)
(0.340831 -0.406533 4.24833e-19)
(0.390761 -0.385986 1.2336e-19)
(0.435476 -0.359755 -4.80867e-19)
(0.476352 -0.333045 3.44254e-19)
(0.514149 -0.307831 2.73277e-21)
(0.549258 -0.284596 -3.93949e-19)
(0.581926 -0.263311 2.82081e-19)
(0.612429 -0.243804 3.42942e-19)
(0.641042 -0.225856 -7.11618e-19)
(0.667463 -0.209425 7.7319e-19)
(0.690445 -0.195039 2.22232e-19)
(0.0678397 -0.147845 4.1657e-19)
(0.168752 -0.332063 5.32135e-22)
(0.254458 -0.427449 -4.09289e-19)
(0.324357 -0.460773 2.70875e-19)
(0.38102 -0.456902 -7.37884e-19)
(0.428665 -0.434535 -2.70183e-19)
(0.470523 -0.405448 -4.32141e-20)
(0.508508 -0.37562 -1.60258e-19)
(0.543595 -0.347374 9.03579e-19)
(0.576227 -0.321303 -7.10531e-19)
(0.60664 -0.297394 3.05486e-19)
(0.635105 -0.27545 -8.43594e-19)
(0.661909 -0.255211 5.92872e-19)
(0.686645 -0.236657 -5.35532e-19)
(0.707662 -0.220517 5.69504e-19)
(0.0824177 -0.159767 1.25981e-19)
(0.201412 -0.360962 -8.68491e-19)
(0.296174 -0.466857 -1.21495e-19)
(0.369127 -0.505169 1.64928e-19)
(0.425251 -0.502357 9.02059e-19)
(0.470512 -0.478717 -1.33418e-19)
(0.509289 -0.447259 -7.2243e-19)
(0.544117 -0.414722 4.55193e-19)
(0.576231 -0.383789 -7.67615e-20)
(0.606142 -0.355181 7.76889e-19)
(0.634079 -0.328909 -6.31365e-19)
(0.660304 -0.304754 -3.27901e-19)
(0.685117 -0.282406 1.2548e-19)
(0.708025 -0.261866 1.6742e-19)
(0.726936 -0.244107 5.49688e-21)
(0.0975733 -0.1691 6.69761e-19)
(0.235804 -0.38464 1.05204e-19)
(0.34051 -0.500215 1.10463e-18)
(0.417062 -0.54366 -7.8483e-19)
(0.472873 -0.54244 -2.50684e-20)
(0.515738 -0.518128 1.25527e-19)
(0.551285 -0.484839 8.99465e-19)
(0.58275 -0.450044 -5.23148e-19)
(0.611676 -0.416808 1.32109e-19)
(0.638668 -0.385999 2.90926e-19)
(0.66395 -0.357662 -1.11855e-20)
(0.687772 -0.331555 6.54613e-19)
(0.710453 -0.307308 -2.4867e-19)
(0.731434 -0.284913 2.61427e-20)
(0.748143 -0.265633 2.42579e-19)
(0.112919 -0.175728 3.57057e-19)
(0.271168 -0.402795 -4.46081e-19)
(0.386611 -0.527124 -8.96211e-21)
(0.467352 -0.575826 1.62309e-21)
(0.523173 -0.576762 -1.05391e-19)
(0.563731 -0.552427 1.83082e-19)
(0.595979 -0.51789 -1.21739e-19)
(0.623939 -0.481329 -4.25258e-19)
(0.649518 -0.446204 7.58868e-19)
(0.673436 -0.413546 -1.21614e-18)
(0.695926 -0.383443 4.02745e-20)
(0.717225 -0.355637 3.14396e-19)
(0.737688 -0.329681 -2.96493e-19)
(0.756713 -0.305537 -8.54822e-20)
(0.771196 -0.284815 4.86655e-19)
(0.128052 -0.179588 2.64582e-20)
(0.306702 -0.415221 -5.93712e-19)
(0.433561 -0.54728 4.2981e-21)
(0.519121 -0.601337 -1.65131e-19)
(0.575376 -0.605008 -3.84079e-20)
(0.613821 -0.581337 -6.47292e-20)
(0.642792 -0.546182 -4.82452e-20)
(0.66717 -0.508389 3.19072e-19)
(0.689289 -0.47183 -1.02213e-19)
(0.710022 -0.437728 8.0429e-19)
(0.729624 -0.406242 1.28359e-19)
(0.748327 -0.377115 -2.74885e-19)
(0.766555 -0.3498 -1.26378e-20)
(0.7837 -0.324104 -3.1087e-19)
(0.796018 -0.3019 -2.78139e-19)
(0.142565 -0.18068 -1.77513e-19)
(0.341573 -0.421817 1.80298e-19)
(0.480394 -0.560488 1.93985e-19)
(0.57144 -0.61995 3.8197e-20)
(0.628662 -0.626939 4.55329e-20)
(0.665306 -0.604648 -1.53496e-19)
(0.691123 -0.569536 2.53106e-19)
(0.711928 -0.531066 -3.04551e-19)
(0.730554 -0.493535 -1.00019e-19)
(0.748074 -0.458372 -2.06474e-19)
(0.764769 -0.425806 -6.11372e-19)
(0.780861 -0.395558 7.39243e-19)
(0.796906 -0.366931 -2.2864e-19)
(0.812446 -0.339533 4.20802e-19)
(0.822886 -0.315714 -7.24482e-19)
(0.15605 -0.179062 -1.03451e-20)
(0.374931 -0.422591 -4.01555e-20)
(0.526111 -0.566661 -1.00046e-19)
(0.623335 -0.631522 1.64183e-21)
(0.68216 -0.6424 9.86041e-20)
(0.717437 -0.622225 -1.2524e-19)
(0.740322 -0.587851 -2.04474e-19)
(0.757626 -0.549305 2.31569e-19)
(0.772745 -0.511327 -4.44878e-20)
(0.787 -0.475599 2.39061e-19)
(0.800709 -0.44248 8.02157e-21)
(0.814055 -0.41179 -1.82039e-19)
(0.827797 -0.382836 4.02859e-19)
(0.842058 -0.354943 -3.25033e-19)
(0.851473 -0.330123 2.1274e-19)
(0.168119 -0.174861 2.0493e-20)
(0.405927 -0.417668 2.43852e-20)
(0.56969 -0.565826 9.20831e-21)
(0.673796 -0.636006 5.73141e-20)
(0.734969 -0.651314 -7.38973e-20)
(0.769443 -0.633991 -7.50033e-20)
(0.789735 -0.601061 -2.37199e-20)
(0.803703 -0.563038 1.36307e-19)
(0.81539 -0.525103 2.63344e-19)
(0.826449 -0.489195 -2.42183e-20)
(0.837329 -0.455772 -1.32977e-19)
(0.848164 -0.424648 -2.64949e-19)
(0.859795 -0.39481 5.41849e-19)
(0.873519 -0.364514 -3.86865e-19)
(0.884847 -0.335794 8.78979e-19)
(0.178439 -0.168278 -1.2057e-19)
(0.433729 -0.407275 5.46107e-20)
(0.610107 -0.558134 -5.60201e-20)
(0.721796 -0.633463 5.14905e-21)
(0.786159 -0.653689 1.83099e-20)
(0.820529 -0.639941 4.15092e-20)
(0.838689 -0.609171 1.59824e-20)
(0.849578 -0.572293 -2.6945e-20)
(0.857951 -0.534945 -2.7459e-20)
(0.865853 -0.499391 -2.11911e-19)
(0.873911 -0.466283 2.73601e-19)
(0.882208 -0.435634 -4.72175e-19)
(0.891179 -0.406965 3.0839e-19)
(0.901876 -0.380092 -2.47512e-19)
(0.913751 -0.357934 -1.98409e-20)
(0.186726 -0.159481 2.83562e-20)
(0.457565 -0.391694 -3.79068e-20)
(0.646358 -0.543877 -1.00392e-19)
(0.766299 -0.624064 1.14615e-19)
(0.834788 -0.649616 -1.07094e-20)
(0.869888 -0.64014 4.45145e-20)
(0.886505 -0.612241 -3.74665e-20)
(0.894658 -0.577126 -2.94442e-20)
(0.899871 -0.54089 -1.67246e-20)
(0.904619 -0.506158 1.24024e-20)
(0.909714 -0.473789 -9.56696e-20)
(0.915215 -0.443957 1.69799e-19)
(0.921168 -0.416515 -1.79621e-19)
(0.92832 -0.391395 1.0901e-19)
(0.937791 -0.368873 -6.46859e-21)
(0.192647 -0.148695 2.92077e-19)
(0.47673 -0.371417 3.07293e-19)
(0.677429 -0.523449 -8.26603e-21)
(0.806361 -0.608101 -1.41364e-19)
(0.879906 -0.639272 8.12833e-20)
(0.916708 -0.63471 -1.25463e-19)
(0.932517 -0.610359 -2.38325e-20)
(0.938391 -0.577587 2.90276e-20)
(0.940686 -0.542914 -3.48886e-21)
(0.942363 -0.509324 5.4936e-20)
(0.944463 -0.477863 8.30304e-20)
(0.947103 -0.448779 1.16701e-19)
(0.950121 -0.422091 -1.73686e-19)
(0.953887 -0.397848 9.4238e-20)
(0.960323 -0.37519 -2.48393e-19)
(0.195954 -0.136378 -1.1419e-19)
(0.490614 -0.347105 1.52732e-19)
(0.702357 -0.497425 -2.85372e-19)
(0.840827 -0.5859 8.52522e-21)
(0.920698 -0.622875 -4.18815e-20)
(0.960209 -0.623865 -9.69924e-20)
(0.976081 -0.603683 -8.55607e-20)
(0.98028 -0.573797 -4.54317e-20)
(0.980027 -0.541101 -4.00783e-21)
(0.978856 -0.508938 7.65756e-21)
(0.978105 -0.478564 -3.62034e-20)
(0.97804 -0.45031 -2.10009e-22)
(0.97847 -0.424348 1.14837e-19)
(0.979471 -0.40096 -2.98948e-20)
(0.983028 -0.378719 -1.31546e-19)
(0.196573 -0.122949 4.57807e-20)
(0.49872 -0.319407 -2.82637e-19)
(0.720503 -0.46637 4.25136e-20)
(0.868674 -0.55808 -1.42202e-19)
(0.956046 -0.600923 -1.08975e-19)
(0.999652 -0.60777 4.16666e-20)
(1.01659 -0.592397 9.56111e-21)
(1.01985 -0.56596 1.5419e-19)
(1.01755 -0.535667 -9.58654e-20)
(1.01387 -0.50524 -5.20154e-21)
(1.01054 -0.476193 2.64853e-21)
(1.00801 -0.448979 -2.44877e-20)
(1.00619 -0.42389 5.40905e-21)
(1.00497 -0.40138 -5.15124e-20)
(1.0061 -0.379709 8.62763e-20)
(0.194469 -0.108784 3.85645e-19)
(0.500671 -0.289101 -3.64278e-19)
(0.731171 -0.431113 9.90208e-20)
(0.889232 -0.525208 6.83599e-19)
(0.984985 -0.573745 -3.02547e-20)
(1.03409 -0.586832 -8.49648e-20)
(1.05338 -0.576782 -2.17849e-19)
(1.05662 -0.554338 1.45788e-19)
(1.0529 -0.526882 -6.75228e-20)
(1.04716 -0.498514 4.04058e-20)
(1.04156 -0.471044 -7.28454e-20)
(1.03684 -0.44508 9.20408e-21)
(1.03303 -0.421007 3.62326e-20)
(1.02994 -0.399411 1.85391e-20)
(1.02906 -0.378474 -1.89432e-20)
(0.189669 -0.0942708 -2.6067e-20)
(0.49626 -0.257 4.00438e-19)
(0.733766 -0.392518 -1.72051e-19)
(0.901671 -0.487963 -1.59293e-19)
(1.00677 -0.541889 9.93378e-20)
(1.06272 -0.56144 7.74212e-20)
(1.08575 -0.557192 -1.47833e-19)
(1.09008 -0.539242 1.80169e-19)
(1.08572 -0.515047 -5.69458e-20)
(1.07842 -0.489052 -2.60255e-20)
(1.07095 -0.463393 6.70349e-20)
(1.06433 -0.438866 3.47685e-20)
(1.05877 -0.415937 -6.28305e-20)
(1.05406 -0.395327 2.30157e-20)
(1.05141 -0.375365 -1.16286e-20)
(0.182291 -0.079806 -1.42987e-20)
(0.485469 -0.223957 7.81484e-20)
(0.727906 -0.351528 -7.54892e-20)
(0.90527 -0.447162 3.07545e-19)
(1.02057 -0.505965 4.66821e-20)
(1.08479 -0.532043 -5.77075e-20)
(1.11305 -0.533981 1.15553e-19)
(1.11972 -0.520995 -3.77514e-19)
(1.11562 -0.500471 3.77441e-20)
(1.10741 -0.477159 1.34954e-19)
(1.09848 -0.453538 1.33515e-19)
(1.09029 -0.430619 -1.01588e-19)
(1.08326 -0.408954 -7.9828e-23)
(1.07718 -0.389407 -3.06879e-20)
(1.07291 -0.370638 -5.16398e-20)
(0.172545 -0.0657787 -1.52672e-19)
(0.468477 -0.190849 -5.49281e-19)
(0.713435 -0.309156 4.39295e-19)
(0.899481 -0.403701 1.14959e-19)
(1.02557 -0.466651 -4.17614e-19)
(1.09946 -0.499127 -3.87124e-19)
(1.13456 -0.507518 2.84494e-19)
(1.145 -0.49992 -1.08367e-19)
(1.14224 -0.483472 1.70383e-19)
(1.13385 -0.463151 -2.21147e-19)
(1.12397 -0.441784 -2.5526e-19)
(1.11456 -0.42065 1.77489e-19)
(1.10632 -0.400369 -4.2433e-20)
(1.09918 -0.381868 -3.75595e-20)
(1.09359 -0.364459 -4.25007e-20)
(0.160726 -0.0525456 7.03131e-20)
(0.445663 -0.158538 2.14375e-20)
(0.690433 -0.26645 -3.87104e-20)
(0.883948 -0.358545 -2.57464e-19)
(1.02109 -0.424692 3.99958e-19)
(1.10592 -0.463216 1.98926e-19)
(1.14952 -0.478185 1.95403e-19)
(1.16532 -0.476332 1.70191e-19)
(1.16515 -0.464348 -3.49529e-20)
(1.15746 -0.447329 8.06273e-20)
(1.14723 -0.428433 2.31377e-20)
(1.13699 -0.409234 -1.09793e-20)
(1.12783 -0.390476 -8.51805e-21)
(1.11993 -0.373148 9.8311e-20)
(1.11357 -0.357174 7.81159e-20)
(0.147198 -0.0404145 1.67766e-19)
(0.417611 -0.127834 -1.84316e-19)
(0.659243 -0.22446 -1.61145e-19)
(0.858537 -0.312702 -1.61857e-20)
(1.00655 -0.380889 -3.98408e-19)
(1.10335 -0.424875 2.26012e-19)
(1.15713 -0.446371 -9.05271e-20)
(1.18002 -0.450532 8.06434e-20)
(1.1839 -0.443376 7.09312e-20)
(1.17795 -0.429977 -2.81445e-19)
(1.16806 -0.413779 1.43403e-19)
(1.15745 -0.396682 -9.89506e-20)
(1.14765 -0.379633 -2.25079e-20)
(1.13916 -0.36371 -1.03796e-20)
(1.13229 -0.349055 7.06882e-20)
(0.132381 -0.029632 1.03072e-19)
(0.385097 -0.0994595 -2.63709e-19)
(0.62049 -0.184203 -6.17375e-20)
(0.823386 -0.267213 2.51588e-19)
(0.98155 -0.336092 -1.38694e-19)
(1.091 -0.384701 -9.73249e-21)
(1.15653 -0.412467 5.07336e-20)
(1.18834 -0.422794 -3.43846e-20)
(1.1979 -0.42079 3.45991e-20)
(1.19495 -0.411332 3.5853e-19)
(1.18623 -0.398067 -2.61982e-19)
(1.17577 -0.383221 8.50691e-20)
(1.16563 -0.367981 6.9628e-20)
(1.15665 -0.353515 -2.95155e-21)
(1.14924 -0.340159 -9.30767e-20)
(0.116736 -0.0203736 1.29358e-19)
(0.349066 -0.0740196 -4.62987e-20)
(0.575088 -0.146617 1.04762e-19)
(0.778949 -0.223112 -1.78505e-20)
(0.945924 -0.291198 5.99503e-20)
(1.06821 -0.343334 -5.63254e-20)
(1.14681 -0.37687 -5.82078e-20)
(1.18941 -0.393361 -9.3248e-20)
(1.2065 -0.396771 1.23501e-19)
(1.208 -0.391569 -9.68562e-20)
(1.20148 -0.381483 -1.38775e-20)
(1.19181 -0.369027 -2.16846e-20)
(1.18171 -0.355649 6.39123e-20)
(1.17243 -0.342633 5.85541e-20)
(1.16453 -0.330645 -7.20923e-20)
(0.10074 -0.0127382 1.02132e-19)
(0.310594 -0.0519699 -1.69221e-19)
(0.524228 -0.112522 1.99538e-19)
(0.726033 -0.181401 -2.04593e-20)
(0.899803 -0.247134 -5.29908e-20)
(1.03444 -0.301457 -5.12636e-21)
(1.12707 -0.339996 -2.22085e-21)
(1.18225 -0.362453 1.25795e-21)
(1.20883 -0.371447 1.17868e-20)
(1.21651 -0.3708 -1.90486e-20)
(1.21346 -0.364159 9.93026e-20)
(1.2054 -0.35426 -5.31e-20)
(1.19583 -0.34281 -8.40116e-20)
(1.18654 -0.331237 -3.25408e-21)
(1.17835 -0.320641 4.17756e-20)
(0.0848588 -0.00674647 1.36319e-20)
(0.270836 -0.0335972 4.87374e-20)
(0.469342 -0.0825786 -2.45648e-20)
(0.66582 -0.143006 2.03086e-20)
(0.843696 -0.204842 2.78323e-20)
(0.989437 -0.25981 -1.7994e-20)
(1.09644 -0.302297 -3.07897e-20)
(1.16572 -0.330281 4.38464e-21)
(1.20386 -0.344893 -3.52159e-20)
(1.21969 -0.349069 3.26216e-20)
(1.22167 -0.346167 -1.89799e-20)
(1.21631 -0.339037 3.53912e-20)
(1.20793 -0.329628 1.3539e-20)
(1.19903 -0.319506 -1.53807e-20)
(1.19079 -0.310271 -1.01804e-21)
(0.0695287 -0.00234443 -5.85372e-20)
(0.230962 -0.0190077 3.58957e-20)
(0.412039 -0.0572456 4.94155e-20)
(0.599861 -0.10873 -1.98642e-20)
(0.778565 -0.165256 -1.75785e-21)
(0.933269 -0.219196 -5.65122e-20)
(1.05419 -0.264291 4.14342e-21)
(1.13867 -0.297075 4.52961e-21)
(1.19032 -0.317151 4.49472e-21)
(1.21649 -0.326348 6.32479e-21)
(1.22538 -0.327499 3.08763e-20)
(1.2241 -0.323406 -1.54673e-20)
(1.21783 -0.316209 2.89368e-20)
(1.20985 -0.30759 -7.9188e-21)
(1.20189 -0.299669 -3.3926e-20)
(0.0551284 0.000587586 -1.4253e-20)
(0.192094 -0.00812924 8.77965e-20)
(0.354017 -0.0367595 -1.25359e-19)
(0.530025 -0.0792009 4.75574e-20)
(0.705865 -0.129256 -3.44828e-20)
(0.866515 -0.180472 1.58935e-20)
(0.999926 -0.226589 2.74799e-20)
(1.09992 -0.263128 3.75424e-20)
(1.16676 -0.288257 -8.47153e-20)
(1.20552 -0.302545 9.1471e-20)
(1.22353 -0.308051 -7.13357e-20)
(1.22811 -0.30732 -2.86946e-20)
(1.22517 -0.30258 4.38833e-20)
(1.21885 -0.295594 -3.9553e-20)
(1.21161 -0.288962 5.21863e-20)
(0.0419632 0.00222193 -8.10057e-20)
(0.155237 -0.000726274 1.12093e-20)
(0.296962 -0.0211209 -4.61483e-20)
(0.458406 -0.0548298 -4.48126e-20)
(0.627547 -0.0976158 8.01679e-20)
(0.79036 -0.144532 1.48706e-19)
(0.933709 -0.189921 -9.86177e-20)
(1.04854 -0.22884 -1.08578e-19)
(1.1316 -0.258289 1.42643e-19)
(1.18508 -0.277529 -2.68304e-20)
(1.21466 -0.287626 -9.5626e-20)
(1.22727 -0.29062 9.80898e-20)
(1.22931 -0.28867 6.21264e-20)
(1.22573 -0.283543 -1.30717e-19)
(1.21987 -0.278246 4.42576e-20)
(0.0302524 0.00276736 -1.42059e-19)
(0.121224 0.00357206 2.49462e-20)
(0.242432 -0.0101033 1.98269e-19)
(0.387184 -0.035771 7.35842e-20)
(0.545974 -0.0709343 4.61757e-20)
(0.70667 -0.112255 -9.09464e-20)
(0.856321 -0.155139 1.10865e-19)
(0.984025 -0.194782 2.08956e-19)
(1.08336 -0.227441 7.0579e-20)
(1.1532 -0.251191 -1.10086e-19)
(1.19683 -0.265962 1.16106e-19)
(1.22004 -0.273035 6.48599e-20)
(1.2292 -0.274282 -8.88133e-20)
(1.2299 -0.271357 1.19637e-19)
(1.22638 -0.267556 1.96188e-20)
(0.020125 0.00245128 -1.05405e-19)
(0.0906777 0.00523442 4.52283e-20)
(0.191757 -0.00328212 1.16647e-20)
(0.318462 -0.0219109 -2.44864e-19)
(0.463766 -0.0495709 2.5299e-19)
(0.617962 -0.0844216 -4.25647e-19)
(0.769416 -0.123186 4.89741e-20)
(0.906665 -0.16173 1.60089e-19)
(1.02093 -0.196112 -2.6462e-19)
(1.10785 -0.22353 8.10205e-20)
(1.16769 -0.242785 -2.22741e-19)
(1.20427 -0.25419 2.01267e-19)
(1.22321 -0.259078 -1.69135e-19)
(1.23029 -0.258813 -2.30428e-21)
(1.23058 -0.256825 -1.27044e-19)
(0.0116227 0.00150261 -4.65254e-20)
(0.0639906 0.00478448 5.59713e-20)
(0.14596 -8.12441e-05 2.12181e-20)
(0.254099 -0.0128834 2.3164e-19)
(0.383579 -0.0335969 -1.45755e-19)
(0.527248 -0.0616199 6.33554e-19)
(0.675572 -0.0950081 -2.00853e-19)
(0.817815 -0.130659 -2.1651e-19)
(0.944066 -0.164986 3.97902e-19)
(1.04732 -0.19478 -4.73121e-20)
(1.12467 -0.21792 2.48767e-19)
(1.17722 -0.233672 -2.03332e-19)
(1.20896 -0.24259 3.12384e-19)
(1.22515 -0.245513 -6.43885e-21)
(1.23141 -0.245841 -7.45037e-20)
(0.00470994 0.000136578 -1.69819e-19)
(0.0413281 0.00275782 3.66676e-19)
(0.105716 0.000169062 -2.50437e-19)
(0.195573 -0.00811336 -4.58506e-20)
(0.30785 -0.0227832 -3.03261e-20)
(0.437743 -0.0441486 -2.10713e-19)
(0.578155 -0.0714236 -2.96628e-19)
(0.720061 -0.102662 -2.31433e-20)
(0.853777 -0.135056 -4.16611e-19)
(0.970787 -0.165529 -2.28187e-19)
(1.06543 -0.191445 6.57198e-19)
(1.13576 -0.211149 -6.7131e-19)
(1.18329 -0.224276 1.08825e-19)
(1.21184 -0.230884 2.25487e-19)
(1.22707 -0.234199 1.15159e-19)
(-0.000711634 -0.00145695 1.05115e-19)
(0.0226499 -0.000336629 -2.67008e-21)
(0.0713433 -0.00182954 -2.81356e-19)
(0.143895 -0.00688364 1.75703e-19)
(0.238581 -0.0166305 3.93679e-19)
(0.35252 -0.0319655 -1.84486e-19)
(0.480961 -0.0529769 -2.59452e-20)
(0.617116 -0.0787791 3.41849e-19)
(0.752657 -0.107547 1.51238e-19)
(0.878939 -0.136791 -2.70605e-19)
(0.988591 -0.163875 -2.93088e-19)
(1.0769 -0.186572 6.30761e-20)
(1.14246 -0.203674 -1.53131e-19)
(1.18673 -0.214252 -3.26044e-19)
(1.21466 -0.221283 3.21947e-19)
(-0.0047869 -0.00312113 -2.64455e-19)
(0.00774619 -0.00404674 -1.34497e-19)
(0.042836 -0.00540003 2.287e-19)
(0.0995907 -0.00841156 -5.06583e-19)
(0.17719 -0.0144381 7.48981e-20)
(0.27417 -0.0246927 1.64898e-19)
(0.387746 -0.0398337 2.14577e-19)
(0.513396 -0.0597994 -1.301e-19)
(0.644811 -0.0837148 -2.58748e-19)
(0.774436 -0.109928 8.77585e-19)
(0.894568 -0.136264 -1.00002e-19)
(0.998719 -0.160414 6.55363e-20)
(1.08283 -0.180655 -1.71101e-19)
(1.14534 -0.19502 -3.51757e-19)
(1.19014 -0.206302 2.12856e-19)
(-0.00769007 -0.00473644 7.83759e-20)
(-0.00371941 -0.00799798 2.81891e-19)
(0.019919 -0.00993497 2.9622e-19)
(0.0627303 -0.0119218 -3.49707e-19)
(0.124456 -0.0153921 -1.52223e-20)
(0.204571 -0.02168 3.6115e-19)
(0.301742 -0.0317519 2.11358e-19)
(0.413384 -0.0460903 -3.91602e-19)
(0.535334 -0.064576 8.87146e-20)
(0.661869 -0.0864051 -1.35875e-19)
(0.78622 -0.110132 -3.4233e-19)
(0.901507 -0.133819 4.77799e-19)
(1.00203 -0.155722 8.31762e-20)
(1.08337 -0.173071 -2.15885e-19)
(1.14798 -0.188515 -4.29846e-20)
(-0.0096087 -0.00622026 3.90253e-19)
(-0.0121644 -0.0119016 -4.2149e-19)
(0.00211635 -0.0149242 -2.86769e-19)
(0.0330053 -0.0167027 2.96857e-19)
(0.0805571 -0.0186523 1.55482e-19)
(0.144789 -0.0221016 -7.41646e-20)
(0.225316 -0.0281344 1.44382e-19)
(0.320981 -0.0375282 -3.49066e-19)
(0.429478 -0.0506665 9.86001e-19)
(0.547099 -0.067431 -9.76945e-19)
(0.668778 -0.0871374 2.12083e-20)
(0.788509 -0.108492 -2.00447e-20)
(0.90038 -0.130177 8.30164e-19)
(0.998062 -0.149127 -3.09965e-19)
(1.083 -0.167614 -6.89335e-20)
(-0.0107301 -0.00752346 -1.33661e-19)
(-0.0180449 -0.0155525 -4.85463e-19)
(-0.0111764 -0.0199647 4.12206e-20)
(0.00982523 -0.0221409 6.83631e-20)
(0.0451618 -0.0234207 -3.11402e-19)
(0.0951106 -0.0250574 -4.65629e-20)
(0.159813 -0.028133 -4.84575e-20)
(0.239024 -0.033539 3.1448e-19)
(0.331799 -0.0419306 -1.06626e-19)
(0.436172 -0.053647 3.85374e-19)
(0.548963 -0.0686256 -2.06666e-19)
(0.66579 -0.0862775 3.41439e-19)
(0.781726 -0.105881 -5.7694e-21)
(0.890429 -0.125076 -4.79581e-20)
(0.99028 -0.144281 -1.16319e-20)
(-0.0112296 -0.00862401 -3.51331e-19)
(-0.0218182 -0.0188182 3.43113e-19)
(-0.0206248 -0.0247551 3.72988e-19)
(-0.00758071 -0.0277321 -2.84246e-19)
(0.0175643 -0.0289838 -4.79366e-19)
(0.0551668 -0.0296565 4.58734e-20)
(0.105594 -0.0307686 5.37166e-19)
(0.169085 -0.0332145 -7.6491e-19)
(0.245536 -0.0377538 -9.64657e-20)
(0.334232 -0.0449735 -5.6303e-19)
(0.433595 -0.0552286 -1.43282e-21)
(0.541006 -0.0685349 1.66006e-19)
(0.653057 -0.0846976 -2.3461e-19)
(0.765383 -0.103265 1.72569e-19)
(0.870815 -0.12047 -2.4435e-19)
(-0.0112616 -0.0095187 3.1157e-20)
(-0.023913 -0.021622 -7.43625e-19)
(-0.0268973 -0.0290801 5.7437e-19)
(-0.0200679 -0.033078 -2.81312e-19)
(-0.00317678 -0.0347333 1.73349e-19)
(0.0241126 -0.0350772 2.9387e-19)
(0.0622072 -0.0350397 -4.82491e-19)
(0.111528 -0.035462 1.13363e-18)
(0.172386 -0.0371071 -4.45664e-19)
(0.2448 -0.0406564 2.69082e-19)
(0.328285 -0.0466946 -9.76214e-22)
(0.421642 -0.0556544 3.65029e-19)
(0.522856 -0.0677976 -5.75256e-19)
(0.631345 -0.0858461 9.76114e-20)
(0.726945 -0.0988907 -2.57216e-19)
(-0.0109538 -0.0102148 -1.78556e-19)
(-0.0247079 -0.0239257 2.36482e-19)
(-0.0306209 -0.0327921 -4.3387e-19)
(-0.0284954 -0.0378752 1.92265e-19)
(-0.0181065 -0.040174 -3.96618e-19)
(0.000820105 -0.0406083 5.90945e-19)
(0.0286363 -0.0400148 -1.15258e-20)
(0.0657637 -0.0391585 -7.35905e-20)
(0.112635 -0.0387512 4.78847e-20)
(0.169587 -0.0394691 -4.02923e-19)
(0.236705 -0.0419732 9.23324e-20)
(0.31361 -0.0468911 -3.44705e-19)
(0.399293 -0.0549775 7.66969e-19)
(0.495966 -0.0719854 -5.5328e-19)
(0.566392 -0.0884543 2.38867e-19)
(-0.0104064 -0.0107228 5.39506e-19)
(-0.0245217 -0.0257147 3.42305e-19)
(-0.0323516 -0.0357958 -6.49097e-20)
(-0.0336654 -0.0419051 3.06772e-19)
(-0.0282648 -0.0449283 -2.96975e-19)
(-0.015944 -0.0456824 -5.30333e-20)
(0.00356144 -0.0449139 -6.95385e-21)
(0.0305917 -0.0433041 -3.36595e-19)
(0.0655414 -0.0414833 2.31557e-19)
(0.108799 -0.040052 -1.32457e-19)
(0.160641 -0.0396032 1.99092e-19)
(0.220991 -0.0406834 -8.08737e-19)
(0.289036 -0.0437999 5.52734e-19)
(0.365078 -0.0528042 -4.3885e-19)
(0.437841 -0.0771914 8.44684e-21)
(-0.0096947 -0.0110527 -8.69754e-20)
(-0.0236122 -0.0269878 1.10453e-19)
(-0.0325612 -0.0380365 -1.18372e-19)
(-0.0362881 -0.0450254 -6.05646e-20)
(-0.0346137 -0.0487381 1.37064e-19)
(-0.027388 -0.0498987 -3.44867e-19)
(-0.0144275 -0.049173 6.68036e-21)
(0.00451205 -0.0471634 -2.08683e-20)
(0.029734 -0.0444132 2.13963e-19)
(0.0615789 -0.0414251 -3.86572e-20)
(0.100365 -0.0386804 -2.87576e-19)
(0.146212 -0.0366142 -1.41177e-19)
(0.198732 -0.0356165 6.27284e-19)
(0.258255 -0.0382305 -2.40589e-19)
(-0.00887397 -0.0112118 -3.96834e-19)
(-0.0221833 -0.0277514 -4.19084e-19)
(-0.0316396 -0.0394911 2.63577e-19)
(-0.0369699 -0.0471601 -2.75925e-19)
(-0.0380022 -0.0514535 -2.424e-19)
(-0.0346221 -0.053017 2.37122e-19)
(-0.0267032 -0.0524483 -2.17631e-19)
(-0.0140773 -0.0502868 2.28238e-19)
(0.00347549 -0.0470119 1.49357e-19)
(0.0262295 -0.0430562 7.4405e-19)
(0.0544893 -0.0388357 -2.45938e-19)
(0.0884707 -0.0347694 4.7065e-19)
(0.128092 -0.0314037 -6.02869e-19)
(-0.00798504 -0.0112051 2.4901e-19)
(-0.020396 -0.0280155 1.62457e-19)
(-0.0299052 -0.0401584 2.942e-19)
(-0.0362179 -0.0482832 2.26205e-19)
(-0.0391584 -0.0530112 -2.35428e-19)
(-0.0386266 -0.0549247 1.41296e-19)
(-0.0345252 -0.0545694 2.50222e-19)
(-0.0267334 -0.0524422 2.0464e-19)
(-0.0150907 -0.0489884 -7.33014e-19)
(0.000614723 -0.0446181 -1.28158e-19)
(0.0206385 -0.039748 -5.55631e-19)
(0.0451828 -0.0348653 5.34136e-19)
(0.0742726 -0.0307585 6.36162e-19)
(-0.00705961 -0.0110357 2.41698e-19)
(-0.0183789 -0.0277921 -6.09402e-20)
(-0.027617 -0.0400513 1.89851e-19)
(-0.0344532 -0.0484011 -1.22655e-19)
(-0.0386968 -0.0534038 -1.304e-19)
(-0.040244 -0.055592 1.51119e-19)
(-0.0390035 -0.0554742 2.01442e-19)
(-0.0348746 -0.0535231 -4.63503e-19)
(-0.0277316 -0.0501744 7.25598e-19)
(-0.0174099 -0.0458487 5.35545e-20)
(-0.00371248 -0.0410022 8.47447e-20)
(0.0135064 -0.0362099 3.24423e-19)
(-0.00612352 -0.0107045 1.48981e-19)
(-0.0162371 -0.027092 -4.72592e-19)
(-0.0249882 -0.0391893 -7.94821e-20)
(-0.0320239 -0.0475377 -3.37488e-19)
(-0.0371293 -0.0526538 4.57205e-19)
(-0.0401839 -0.0550313 -1.46968e-19)
(-0.0410859 -0.055152 -6.42794e-20)
(-0.0397347 -0.0534749 -2.54466e-19)
(-0.0360198 -0.0504385 2.04075e-19)
(-0.0298092 -0.0464846 -5.94901e-19)
(-0.0209594 -0.0421092 -3.32096e-20)
(-0.0051989 -0.010211 3.00816e-19)
(-0.0140582 -0.0259242 -4.21711e-19)
(-0.0221947 -0.037593 3.8611e-19)
(-0.0292161 -0.0457237 -3.90878e-19)
(-0.034876 -0.0507959 -1.25303e-19)
(-0.0390297 -0.0532713 -3.20129e-19)
(-0.0415546 -0.0536087 -4.78698e-20)
(-0.0423385 -0.0522559 1.01615e-19)
(-0.0412742 -0.0496522 -1.23442e-19)
(-0.0382523 -0.0462511 3.61822e-19)
(-0.0331738 -0.0425635 6.52062e-20)
(-0.0043058 -0.00955343 1.12252e-20)
(-0.0119172 -0.0242961 -4.56763e-20)
(-0.0193822 -0.0352835 -2.20316e-19)
(-0.0262621 -0.0429927 5.36653e-19)
(-0.0322741 -0.0478704 1.99631e-19)
(-0.0372448 -0.0503478 6.3873e-20)
(-0.0410261 -0.0508591 -1.33901e-19)
(-0.0434891 -0.0498346 1.05129e-19)
(-0.0445233 -0.0477035 3.48995e-19)
(-0.0440343 -0.0449104 -7.97113e-21)
(-0.00346329 -0.0087305 8.74775e-20)
(-0.00987979 -0.0222167 3.26237e-19)
(-0.0166719 -0.0322854 -2.60148e-19)
(-0.0233482 -0.0393842 -7.61728e-20)
(-0.0295863 -0.0439259 7.56337e-20)
(-0.0351825 -0.0463081 1.0983e-19)
(-0.0399622 -0.0469341 -2.55826e-19)
(-0.0437779 -0.0462069 -8.76931e-20)
(-0.0465123 -0.0445301 1.06994e-19)
(-0.048079 -0.0423192 -3.72796e-19)
(-0.00269032 -0.0077432 9.79127e-20)
(-0.00800465 -0.019701 -1.52948e-19)
(-0.0141646 -0.0286322 2.91234e-19)
(-0.020621 -0.034949 -8.20416e-20)
(-0.027011 -0.0390251 8.96881e-20)
(-0.0331007 -0.0412181 -3.51906e-20)
(-0.0386902 -0.0418915 5.01922e-20)
(-0.0436135 -0.0414092 3.49377e-21)
(-0.0477455 -0.0401349 1.94716e-19)
(-0.00200603 -0.00659726 -8.84414e-20)
(-0.00634536 -0.0167745 9.98232e-20)
(-0.0119443 -0.0243721 -1.72672e-19)
(-0.0181948 -0.029756 1.35107e-19)
(-0.0246937 -0.0332522 1.51003e-19)
(-0.0311794 -0.0351702 -2.58127e-19)
(-0.0374286 -0.0358237 1.74709e-19)
(-0.0432584 -0.0355264 2.35065e-20)
(-0.0485355 -0.0345896 9.84347e-20)
(-0.00142942 -0.00530523 1.28268e-20)
(-0.00495045 -0.0134777 6.91309e-20)
(-0.0100811 -0.0195728 -9.67143e-20)
(-0.0161572 -0.0238964 -2.29775e-20)
(-0.0227386 -0.0267167 3.07092e-20)
(-0.0295391 -0.0282861 -9.83822e-20)
(-0.0363152 -0.0288596 -3.4042e-20)
(-0.0428693 -0.0286907 3.25482e-19)
(-0.0490599 -0.0280294 -1.9446e-19)
(-0.000978348 -0.00388771 2.73172e-22)
(-0.00386252 -0.00986819 -4.61846e-20)
(-0.00863187 -0.0143237 6.49684e-21)
(-0.014574 -0.0174856 6.92625e-20)
(-0.0212178 -0.0195544 1.70423e-20)
(-0.0282571 -0.0207172 -7.25632e-20)
(-0.0354318 -0.0211619 -5.71677e-20)
(-0.0425327 -0.021075 -1.80673e-20)
(-0.0494111 -0.0206385 1.79901e-20)
(-0.000668122 -0.0023734 3.05532e-20)
(-0.00311637 -0.00602047 2.26831e-20)
(-0.00764054 -0.00873518 -4.46808e-20)
(-0.0134928 -0.0106621 4.21444e-20)
(-0.0201797 -0.0119252 -2.55339e-20)
(-0.0273806 -0.0126396 3.63629e-21)
(-0.0348242 -0.0129206 2.78098e-20)
(-0.0422927 -0.012882 -4.64112e-20)
(-0.049632 -0.0126345 -8.14611e-21)
(-0.000510023 -0.000797903 -2.4205e-20)
(-0.00273684 -0.00202342 8.00326e-21)
(-0.00713724 -0.00293533 1.40007e-20)
(-0.0129446 -0.00358277 -4.27245e-20)
(-0.0196536 -0.00400769 -1.75842e-20)
(-0.0269364 -0.00424894 3.7802e-20)
(-0.0345156 -0.00434532 -3.00632e-20)
(-0.0421691 -0.00433506 -4.38003e-21)
(0.727205 -0.0125248 8.86291e-21)
(0.805532 -0.00631017 1.74116e-21)
(0.862552 -0.00518001 -8.46458e-21)
(0.898171 -0.00271511 1.73566e-21)
(0.924691 -0.00264207 -2.48848e-21)
(0.944422 -0.00135468 -1.10037e-21)
(0.958081 -0.00151119 -8.7983e-22)
(0.970557 -0.000737995 -2.53711e-21)
(0.97774 -0.000901898 2.06952e-21)
(0.986124 -0.000426323 1.21732e-21)
(0.989563 -0.0005316 -8.76506e-22)
(0.995204 -0.000221763 -8.96042e-24)
(0.996221 -0.000278574 1.30188e-21)
(0.999653 -7.00469e-05 1.57902e-21)
(0.998956 -8.16981e-05 -5.55909e-22)
(0.728569 -0.0375088 -6.02637e-21)
(0.806236 -0.0189111 -1.77552e-20)
(0.862822 -0.0155241 1.00656e-20)
(0.898379 -0.00814443 2.36564e-21)
(0.92474 -0.00792027 -1.05115e-21)
(0.944501 -0.00406643 -8.58384e-21)
(0.958079 -0.00453017 1.13112e-20)
(0.970595 -0.00221779 -6.10428e-21)
(0.977724 -0.0027034 -1.11752e-21)
(0.986144 -0.0012805 -1.51634e-21)