/*--------------------------------*- C++ -*----------------------------------*\
  =========                 |
  \\      /  F ield         | OpenFOAM: The Open Source CFD Toolbox
   \\    /   O peration     | Website:  https://openfoam.org
    \\  /    A nd           | Version:  7
     \\/     M anipulation  |
\*---------------------------------------------------------------------------*/
FoamFile
{
    version     2.0;
    format      ascii;
    class       volVectorField;
    location    "50";
    object      U;
}
// * * * * * * * * * * * * * * * * * * * * * * * * * * * * * * * * * * * * * //

dimensions      [0 1 -1 0 0 0 0];

internalField   nonuniform List<vector> 
1360
(
(0.894465 0.0392032 0)
(0.953853 0.0379137 0)
(1.0069 0.0358302 6.34045e-12)
(1.0524 0.0331816 -6.34045e-12)
(1.0899 0.0302261 0)
(1.11955 0.0271771 0)
(1.14201 0.0241971 0)
(1.15825 0.0213927 0)
(1.16938 0.0188188 -3.09553e-28)
(1.17651 0.016489 3.09553e-28)
(1.18066 0.0143887 -3.20895e-28)
(1.18271 0.012487 3.20895e-28)
(1.18335 0.0107471 -7.94272e-12)
(1.18313 0.00913247 7.94272e-12)
(1.18244 0.00761122 0)
(1.18156 0.00615706 0)
(1.18068 0.00474957 8.19663e-12)
(1.17993 0.00337334 -8.19663e-12)
(1.17939 0.00201685 -3.79829e-28)
(1.17911 0.000671151 3.82233e-28)
(0.894101 0.0386228 0)
(0.953012 0.0373719 0)
(1.00571 0.0353363 6.9802e-29)
(1.05099 0.0327402 -6.9802e-29)
(1.08839 0.0298367 0)
(1.11803 0.026836 0)
(1.14056 0.0238985 0)
(1.1569 0.0211303 0)
(1.16814 0.018587 6.23901e-28)
(1.17539 0.0162834 -6.23901e-28)
(1.17965 0.0142059 6.47444e-28)
(1.18179 0.0123252 -6.47444e-28)
(1.18251 0.010605 -1.54102e-11)
(1.18234 0.00900975 1.54102e-11)
(1.18169 0.00750757 0)
(1.18084 0.00607237 0)
(1.17997 0.0046838 7.96001e-12)
(1.17924 0.00332643 -7.96001e-12)
(1.17871 0.00198873 5.09227e-28)
(1.17843 0.000661784 -5.12451e-28)
(0.893753 0.0380525 0)
(0.952194 0.0368391 0)
(1.00455 0.03485 0)
(1.04961 0.0323047 0)
(1.08691 0.029452 0)
(1.11654 0.0264983 0)
(1.13912 0.0236024 0)
(1.15556 0.0208698 0)
(1.16692 0.0183565 -2.90086e-28)
(1.17429 0.0160786 2.90086e-28)
(1.17865 0.0140237 0)
(1.18088 0.0121637 0)
(1.18167 0.0104632 -1.49431e-11)
(1.18156 0.00888703 1.49431e-11)
(1.18095 0.0074038 3.16574e-28)
(1.18012 0.00598752 -3.16574e-28)
(1.17928 0.00461785 0)
(1.17856 0.00327936 0)
(1.17804 0.00196051 -3.58215e-28)
(1.17776 0.00065238 3.60483e-28)
(0.893419 0.0374923 0)
(0.951396 0.0363154 0)
(1.00341 0.0343713 0)
(1.04826 0.0318755 0)
(1.08545 0.0290721 0)
(1.11507 0.0261644 0)
(1.1377 0.0233091 0)
(1.15424 0.0206114 0)
(1.16571 0.0181277 0)
(1.17319 0.015875 0)
(1.17767 0.0138425 -6.07521e-28)
(1.17999 0.0120028 6.07521e-28)
(1.18085 0.0103217 -1.44841e-11)
(1.18079 0.00876456 1.44841e-11)
(1.18022 0.00730016 -6.39148e-28)
(1.17942 0.0059027 6.39148e-28)
(1.1786 0.00455187 -6.4785e-28)
(1.17789 0.00323224 6.4785e-28)
(1.17737 0.00193224 4.7983e-28)
(1.17711 0.00064296 -4.82868e-28)
(0.893101 0.0369422 0)
(0.950619 0.0358006 0)
(1.00229 0.0339003 1.24612e-29)
(1.04693 0.0314527 -1.24612e-29)
(1.08401 0.0286974 0)
(1.11362 0.0258345 0)
(1.13631 0.0230191 -2.86401e-28)
(1.15293 0.0203555 2.86401e-28)
(1.16452 0.0179008 0)
(1.17211 0.015673 0)
(1.17669 0.0136624 0)
(1.1791 0.0118429 0)
(1.18003 0.010181 -1.40332e-11)
(1.18003 0.00864259 1.40332e-11)
(1.1795 0.00719684 0)
(1.17873 0.00581807 0)
(1.17793 0.004486 7.27133e-12)
(1.17723 0.00318517 -7.27133e-12)
(1.17672 0.001904 0)
(1.17646 0.000633544 0)
(0.892797 0.0364022 -2.03482e-28)
(0.949861 0.035295 2.03755e-28)
(1.0012 0.0334372 -1.20002e-29)
(1.04562 0.0310364 1.20002e-29)
(1.0826 0.028328 0)
(1.11219 0.025509 0)
(1.13493 0.0227324 2.76539e-28)
(1.15164 0.0201024 -2.76539e-28)
(1.16334 0.0176762 -6.32081e-12)
(1.17105 0.0154728 6.32081e-12)
(1.17573 0.0134839 0)
(1.17822 0.0116842 0)
(1.17923 0.0100412 -1.35901e-11)
(1.17928 0.00852132 1.35901e-11)
(1.17879 0.00709404 2.88439e-28)
(1.17805 0.00573381 -2.88439e-28)
(1.17727 0.00442036 1.40976e-11)
(1.17658 0.00313824 -1.40976e-11)
(1.17608 0.00187583 -3.26978e-28)
(1.17582 0.000624153 3.29048e-28)
(0.892506 0.0358722 4.07179e-28)
(0.949123 0.0347984 -4.07724e-28)
(1.00013 0.032982 0)
(1.04434 0.0306269 0)
(1.08121 0.0279641 0)
(1.11078 0.0251879 0)
(1.13357 0.0224495 -3.68385e-28)
(1.15037 0.0198523 3.68385e-28)
(1.16217 0.0174541 -6.10758e-12)
(1.16999 0.0152748 6.10758e-12)
(1.17477 0.0133071 0)
(1.17735 0.011527 0)
(1.17843 0.00990259 -6.57746e-12)
(1.17854 0.00840098 6.57746e-12)
(1.17809 0.00699195 -5.8154e-28)
(1.17738 0.00565006 5.8154e-28)
(1.17661 0.00435509 6.82977e-12)
(1.17594 0.00309156 -6.82977e-12)
(1.17545 0.00184779 0)
(1.17519 0.000614804 0)
(0.892229 0.0353523 0)
(0.948403 0.034311 0)
(0.999083 0.0325348 0)
(1.04308 0.0302241 0)
(1.07984 0.027606 0)
(1.1094 0.0248716 0)
(1.13222 0.0221704 2.57482e-28)
(1.14911 0.0196054 -2.57482e-28)
(1.16102 0.0172347 0)
(1.16894 0.0150791 0)
(1.17383 0.0131323 0)
(1.1765 0.0113714 0)
(1.17764 0.00976534 0)
(1.1778 0.00828175 0)
(1.17739 0.00689073 0)
(1.17671 0.00556697 0)
(1.17597 0.0042903 2.74562e-28)
(1.17531 0.00304519 -2.74562e-28)
(1.17483 0.00181994 0)
(1.17457 0.000605515 0)
(0.891964 0.0348423 0)
(0.947702 0.0338326 0)
(0.998057 0.0320956 0)
(1.04184 0.0298283 0)
(1.0785 0.0272536 0)
(1.10803 0.0245601 0)
(1.1309 0.0218955 0)
(1.14787 0.0193621 0)
(1.15988 0.0170183 -4.92051e-28)
(1.16791 0.0148859 4.92051e-28)
(1.17289 0.0129597 0)
(1.17565 0.0112177 0)
(1.17686 0.00962967 0)
(1.17708 0.00816381 0)
(1.17671 0.00679054 0)
(1.17606 0.00548469 0)
(1.17534 0.0042261 0)
(1.17469 0.00299922 0)
(1.17421 0.00179232 4.10133e-28)
(1.17396 0.000596302 -4.12729e-28)
(0.891712 0.0343421 0)
(0.947018 0.0333633 0)
(0.997051 0.0316645 0)
(1.04062 0.0294394 0)
(1.07717 0.0269073 0)
(1.10668 0.0242537 0)
(1.12959 0.0216249 0)
(1.14664 0.0191224 0)
(1.15875 0.0168051 0)
(1.16689 0.0146955 0)
(1.17197 0.0127895 0)
(1.17481 0.011066 0)
(1.17609 0.00949575 0)
(1.17636 0.00804733 0)
(1.17604 0.00669153 0)
(1.17541 0.00540332 0)
(1.17471 0.00416258 -2.57092e-28)
(1.17408 0.00295373 2.57092e-28)
(1.17361 0.00176498 -2.87513e-28)
(1.17336 0.00058718 2.89334e-28)
(0.891473 0.0338518 -3.45949e-28)
(0.946351 0.0329031 3.46405e-28)
(0.996065 0.0312414 0)
(1.03943 0.0290576 0)
(1.07587 0.026567 0)
(1.10535 0.0239525 0)
(1.1283 0.0213587 0)
(1.14543 0.0188866 0)
(1.15763 0.0165953 -5.2981e-12)
(1.16587 0.0145081 5.2981e-12)
(1.17105 0.0126219 0)
(1.17398 0.0109166 0)
(1.17533 0.00936376 0)
(1.17566 0.00793247 0)
(1.17537 0.00659383 5.09101e-28)
(1.17478 0.00532299 -5.09101e-28)
(1.17409 0.00409984 5.988e-12)
(1.17347 0.00290878 -5.988e-12)
(1.17301 0.00173795 3.83746e-28)
(1.17277 0.000578162 -3.86175e-28)
(0.891245 0.0333711 1.59322e-28)
(0.945701 0.0324518 -1.59532e-28)
(0.9951 0.0308264 0)
(1.03826 0.0286829 0)
(1.07458 0.0262329 0)
(1.10404 0.0236567 0)
(1.12702 0.0210972 0)
(1.14423 0.0186549 0)
(1.15653 0.0163891 -1.02122e-11)
(1.16487 0.0143238 1.02122e-11)
(1.17015 0.0124571 0)
(1.17316 0.0107697 0)
(1.17458 0.00923386 -5.54621e-12)
(1.17496 0.00781937 5.54621e-12)
(1.17471 0.00649759 -2.36231e-28)
(1.17415 0.00524382 2.36231e-28)
(1.17349 0.00403798 1.15719e-11)
(1.17288 0.00286444 -1.15719e-11)
(1.17243 0.00171129 -2.68697e-28)
(1.17219 0.000569263 2.70398e-28)
(0.891029 0.0329001 2.63216e-29)
(0.945067 0.0320094 -2.6356e-29)
(0.994153 0.0304195 -1.42945e-28)
(1.0371 0.0283153 1.42945e-28)
(1.07332 0.025905 0)
(1.10275 0.0233662 0)
(1.12576 0.0208404 0)
(1.14304 0.0184273 0)
(1.15544 0.0161865 -4.91808e-12)
(1.16388 0.0141428 4.91808e-12)
(1.16925 0.0122952 0)
(1.17235 0.0106253 0)
(1.17384 0.0091062 -1.07018e-11)
(1.17427 0.00770816 1.07018e-11)
(1.17406 0.00640292 0)
(1.17353 0.0051659 0)
(1.17289 0.00397707 5.58719e-12)
(1.17229 0.00282076 -5.58719e-12)
(1.17185 0.00168501 0)
(1.17161 0.000560495 0)
(0.890824 0.0324386 1.70125e-28)
(0.944449 0.0315759 -1.70346e-28)
(0.993225 0.0300206 -1.02068e-28)
(1.03597 0.0279549 1.02068e-28)
(1.07208 0.0255834 0)
(1.10147 0.0230813 0)
(1.12452 0.0205884 0)
(1.14187 0.018204 0)
(1.15436 0.0159878 0)
(1.1629 0.0139653 0)
(1.16836 0.0121363 0)
(1.17154 0.0104836 0)
(1.1731 0.0089809 -1.03181e-11)
(1.17359 0.00759899 1.03181e-11)
(1.17342 0.00630993 0)
(1.17292 0.00508933 0)
(1.1723 0.00391719 2.60582e-28)
(1.17172 0.00277781 -2.60582e-28)
(1.17128 0.00165917 8.10438e-29)
(1.17105 0.00055187 -8.15569e-29)
(0.89063 0.0319865 0)
(0.943847 0.0311511 0)
(0.992315 0.0296297 0)
(1.03485 0.0276016 0)
(1.07085 0.0252681 0)
(1.10022 0.022802 0)
(1.12329 0.0203415 0)
(1.14071 0.0179852 0)
(1.15329 0.0157931 3.25964e-29)
(1.16193 0.0137914 -3.25964e-29)
(1.16749 0.0119807 0)
(1.17075 0.0103448 0)
(1.17238 0.00885811 -9.94133e-12)
(1.17292 0.00749195 9.94133e-12)
(1.17279 0.00621873 0)
(1.17232 0.00501421 0)
(1.17172 0.00385842 0)
(1.17115 0.00273565 0)
(1.17072 0.0016338 0)
(1.17049 0.000543399 0)
(0.890447 0.0315436 -2.7808e-28)
(0.94326 0.0307351 2.78438e-28)
(0.991424 0.0292468 0)
(1.03376 0.0272555 0)
(1.06964 0.0249593 0)
(1.09898 0.0225284 0)
(1.12208 0.0200996 0)
(1.13956 0.0177709 0)
(1.15223 0.0156025 0)
(1.16097 0.0136212 0)
(1.16662 0.0118285 0)
(1.16996 0.010209 0)
(1.17166 0.00873794 -9.57123e-12)
(1.17225 0.00738717 9.57123e-12)
(1.17217 0.00612943 0)
(1.17172 0.00494061 0)
(1.17114 0.00380083 0)
(1.17059 0.00269431 0)
(1.17017 0.00160892 0)
(1.16994 0.000535092 0)
(0.890274 0.03111 1.27559e-28)
(0.942688 0.0303277 -1.27723e-28)
(0.99055 0.0288718 7.64636e-30)
(1.03268 0.0269166 -7.64636e-30)
(1.06845 0.0246569 0)
(1.09775 0.0222605 0)
(1.12088 0.0198628 0)
(1.13843 0.0175613 0)
(1.15119 0.0154161 -4.20365e-12)
(1.16002 0.0134548 4.20365e-12)
(1.16576 0.0116797 1.83719e-28)
(1.16918 0.0100763 -1.83719e-28)
(1.17095 0.00862051 -9.20769e-12)
(1.1716 0.00728476 9.20769e-12)
(1.17155 0.00604211 0)
(1.17114 0.00486863 0)
(1.17058 0.00374448 4.82383e-12)
(1.17004 0.00265386 -4.82383e-12)
(1.16963 0.00158456 -2.24207e-28)
(1.16941 0.000526959 2.25626e-28)
(0.890112 0.0306854 -2.96449e-28)
(0.942131 0.0299288 0)
(0.989693 0.0285046 -2.66043e-28)
(1.03162 0.0265849 3.23873e-28)
(1.06728 0.0243609 -3.76618e-28)
(1.09655 0.0219985 -3.70235e-28)
(1.11969 0.0196313 3.35264e-28)
(1.13731 0.0173565 3.71769e-28)
(1.15015 0.0152341 -4.034e-12)
(1.15907 0.0132923 4.034e-12)
(1.1649 0.0115345 0)
(1.16841 0.0099468 3.88937e-28)
(1.17024 0.00850592 -4.42529e-12)
(1.17095 0.00718481 4.42529e-12)
(1.17094 0.00595687 4.09733e-28)
(1.17056 0.00479834 4.43467e-28)
(1.17002 0.00368943 9.28127e-12)
(1.1695 0.00261433 -9.28127e-12)
(1.16909 0.00156076 7.21153e-28)
(1.16887 0.000519011 -2.99637e-28)
(0.889959 0.0302698 2.96451e-28)
(0.941588 0.0295384 0)
(0.988853 0.0281453 3.0268e-28)
(1.03058 0.0262602 -3.6051e-28)
(1.06613 0.0240714 3.76618e-28)
(1.09536 0.0217423 3.70235e-28)
(1.11853 0.0194051 -3.35264e-28)
(1.1362 0.0171564 -3.71769e-28)
(1.14913 0.0150565 3.34215e-28)
(1.15814 0.013134 -3.34215e-28)
(1.16406 0.011393 0)
(1.16764 0.00982063 -3.88937e-28)
(1.16955 0.00839427 -4.24479e-28)
(1.1703 0.00708742 0)
(1.17034 0.00587379 -4.09733e-28)
(1.16999 0.00472982 -4.43467e-28)
(1.16947 0.00363576 4.46037e-12)
(1.16896 0.00257578 -4.46037e-12)
(1.16856 0.00153754 -4.23401e-28)
(1.16835 0.000511255 0)
(0.889817 0.029863 0)
(0.941058 0.0291563 0)
(0.98803 0.0277938 0)
(1.02956 0.0259428 0)
(1.06499 0.0237884 0)
(1.09418 0.0214919 0)
(1.11737 0.0191843 0)
(1.1351 0.0169613 0)
(1.14811 0.0148834 -1.53792e-28)
(1.15722 0.0129797 1.53792e-28)
(1.16323 0.0112553 0)
(1.16689 0.00969788 0)
(1.16886 0.00828568 0)
(1.16967 0.00699268 0)
(1.16975 0.00579296 0)
(1.16942 0.00466313 0)
(1.16893 0.0035835 4.28296e-12)
(1.16843 0.00253824 -4.28296e-12)
(1.16804 0.00151493 0)
(1.16784 0.000503702 0)
(0.889684 0.0294649 0)
(0.940543 0.0287824 0)
(0.987223 0.02745 0)
(1.02855 0.0256324 0)
(1.06387 0.0235119 0)
(1.09302 0.0212476 0)
(1.11623 0.0189689 0)
(1.13402 0.0167712 0)
(1.14711 0.0147149 3.0634e-28)
(1.1563 0.0128297 -3.0634e-28)
(1.1624 0.0111214 0)
(1.16614 0.00957865 0)
(1.16817 0.00818022 0)
(1.16904 0.00690068 0)
(1.16916 0.00571445 3.4812e-28)
(1.16887 0.00459835 -3.4812e-28)
(1.16839 0.00353273 4.10835e-12)
(1.16791 0.00250175 -4.10835e-12)
(1.16753 0.00149294 -2.63723e-28)
(1.16733 0.000496359 2.65392e-28)
(0.88956 0.0290753 0)
(0.940041 0.0284168 0)
(0.986432 0.0271138 0)
(1.02756 0.025329 0)
(1.06277 0.0232419 1.20673e-28)
(1.09188 0.0210091 -1.20673e-28)
(1.1151 0.018759 0)
(1.13295 0.0165862 0)
(1.14612 0.0145511 -1.40665e-28)
(1.1554 0.0126841 1.40665e-28)
(1.16158 0.0109916 -1.48792e-28)
(1.1654 0.00946304 1.48792e-28)
(1.1675 0.00807799 0)
(1.16842 0.0068115 0)
(1.16858 0.00563835 0)
(1.16832 0.00453553 0)
(1.16787 0.00348349 0)
(1.1674 0.00246636 0)
(1.16703 0.00147162 0)
(1.16683 0.000489234 0)
(0.889446 0.0286942 0)
(0.939553 0.0280591 0)
(0.985656 0.0267852 0)
(1.02659 0.0250328 0)
(1.06168 0.0229784 -2.39136e-28)
(1.09075 0.0207767 2.39136e-28)
(1.11399 0.0185547 0)
(1.13189 0.0164063 0)
(1.14513 0.014392 2.79553e-28)
(1.1545 0.0125428 -2.79553e-28)
(1.16077 0.0108658 0)
(1.16466 0.00935113 0)
(1.16683 0.00797907 0)
(1.1678 0.00672523 0)
(1.16801 0.00556473 -3.19022e-28)
(1.16777 0.00447475 3.19022e-28)
(1.16734 0.00343583 3.76723e-12)
(1.16689 0.0024321 -3.76723e-12)
(1.16653 0.00145097 2.41896e-28)
(1.16633 0.000482335 -2.43428e-28)
(0.889341 0.0283213 0)
(0.939078 0.0277094 0)
(0.984896 0.026464 0)
(1.02563 0.0247435 0)
(1.06061 0.0227213 0)
(1.08964 0.0205503 0)
(1.11289 0.0183559 -1.32148e-28)
(1.13084 0.0162316 1.32148e-28)
(1.14416 0.0142379 0)
(1.15361 0.0124061 0)
(1.15996 0.0107442 0)
(1.16393 0.00924302 0)
(1.16617 0.00788357 -1.41849e-28)
(1.16719 0.00664195 1.41849e-28)
(1.16744 0.00549365 0)
(1.16724 0.00441607 0)
(1.16683 0.00338981 7.20115e-12)
(1.16639 0.00239901 -7.20115e-12)
(1.16604 0.00143102 -1.67528e-28)
(1.16585 0.000475671 1.68589e-28)
(0.889246 0.0279567 0)
(0.938615 0.0273675 0)
(0.984152 0.0261503 2.26072e-12)
(1.02469 0.0244611 -2.26072e-12)
(1.05956 0.0224708 0)
(1.08854 0.0203299 0)
(1.1118 0.0181628 1.25663e-28)
(1.1298 0.0160621 -1.25663e-28)
(1.14319 0.0140886 -1.21923e-28)
(1.15273 0.012274 1.21923e-28)
(1.15916 0.0106268 0)
(1.16321 0.0091388 0)
(1.16551 0.00779156 0)
(1.16659 0.00656174 0)
(1.16688 0.00542521 0)
(1.16671 0.00435956 0)
(1.16632 0.00334548 3.43642e-12)
(1.1659 0.00236713 -3.43642e-12)
(1.16556 0.0014118 0)
(1.16537 0.000469248 0)
(0.889159 0.0276 0)
(0.938166 0.0270334 0)
(0.983422 0.025844 2.13762e-12)
(1.02377 0.0241857 -2.13762e-12)
(1.05852 0.0222267 0)
(1.08745 0.0201157 0)
(1.11072 0.0179754 -1.64679e-28)
(1.12877 0.0158981 1.64679e-28)
(1.14224 0.0139444 0)
(1.15185 0.0121466 0)
(1.15837 0.0105138 0)
(1.1625 0.00903856 0)
(1.16486 0.00770313 -3.10334e-12)
(1.16599 0.00648468 3.10334e-12)
(1.16633 0.00535945 2.77076e-28)
(1.16618 0.00430526 -2.77076e-28)
(1.16582 0.00330289 3.27467e-12)
(1.16541 0.00233649 -3.27467e-12)
(1.16508 0.00139333 0)
(1.16489 0.000463075 0)
(0.889081 0.0272512 0)
(0.937728 0.0267069 0)
(0.982707 0.0255449 4.59312e-30)
(1.02286 0.0239172 -4.59312e-30)
(1.0575 0.0219892 0)
(1.08638 0.0199075 0)
(1.10966 0.0177937 1.13093e-28)
(1.12776 0.0157394 -1.13093e-28)
(1.14129 0.0138053 1.1002e-28)
(1.15099 0.0120239 -1.1002e-28)
(1.15759 0.0104052 0)
(1.16179 0.0089424 0)
(1.16422 0.00761836 -5.90047e-12)
(1.1654 0.00641086 5.90047e-12)
(1.16578 0.00529647 -1.26593e-28)
(1.16567 0.00425325 1.26593e-28)
(1.16532 0.00326209 6.23054e-12)
(1.16493 0.00230713 -6.23054e-12)
(1.16461 0.00137563 1.45004e-28)
(1.16443 0.000457159 -1.45922e-28)
(0.889011 0.0269102 -1.46287e-28)
(0.937304 0.0263879 1.46462e-28)
(0.982007 0.0252531 2.16894e-29)
(1.02196 0.0236556 -2.16894e-29)
(1.05649 0.0217582 0)
(1.08533 0.0197055 0)
(1.10861 0.0176178 -1.47688e-28)
(1.12675 0.0155863 1.47688e-28)
(1.14035 0.0136713 -2.16984e-28)
(1.15013 0.0119062 2.16984e-28)
(1.15681 0.0103012 0)
(1.16108 0.00885039 0)
(1.16358 0.00753736 -5.59914e-12)
(1.16482 0.00634035 5.59914e-12)
(1.16523 0.00523633 0)
(1.16515 0.00420359 0)
(1.16483 0.00322312 2.95811e-12)
(1.16446 0.00227909 -2.95811e-12)
(1.16414 0.00135872 0)
(1.16396 0.000451506 0)
(0.888951 0.0265767 6.57928e-29)
(0.936891 0.0260763 -6.58705e-29)
(0.981321 0.0249684 0)
(1.02109 0.0234008 0)
(1.05549 0.0215336 0)
(1.08428 0.0195096 0)
(1.10757 0.0174479 1.01036e-28)
(1.12576 0.0154387 -1.01036e-28)
(1.13943 0.0135427 9.85624e-29)
(1.14928 0.0117934 -9.85624e-29)
(1.15604 0.0102018 0)
(1.16039 0.00876265 0)
(1.16294 0.0074602 -2.65125e-12)
(1.16424 0.00627323 2.65125e-12)
(1.16469 0.00517911 0)
(1.16465 0.00415634 0)
(1.16435 0.00318604 0)
(1.16399 0.00225241 0)
(1.16368 0.00134262 -1.30504e-28)
(1.16351 0.000446126 1.3133e-28)
(0.888899 0.0262507 -1.27852e-28)
(0.936491 0.025772 1.28002e-28)
(0.98065 0.0246908 0)
(1.02022 0.0231528 0)
(1.05451 0.0213156 0)
(1.08326 0.01932 0)
(1.10655 0.0172838 0)
(1.12477 0.0152968 0)
(1.13851 0.0134194 0)
(1.14844 0.0116856 0)
(1.15527 0.0101071 0)
(1.15969 0.00867927 0)
(1.16232 0.00738699 -2.50519e-12)
(1.16366 0.00620961 2.50519e-12)
(1.16416 0.00512488 0)
(1.16414 0.00411157 0)
(1.16387 0.0031509 -2.29006e-28)
(1.16352 0.00222711 2.29006e-28)
(1.16322 0.00132736 0)
(1.16306 0.000441024 0)
(0.888855 0.025932 5.71522e-29)
(0.936103 0.0254749 -5.72186e-29)
(0.979993 0.0244202 3.56106e-30)
(1.01938 0.0229116 -3.56106e-30)
(1.05355 0.0211041 0)
(1.08224 0.0191367 0)
(1.10553 0.0171258 0)
(1.1238 0.0151606 0)
(1.1376 0.0133016 -8.75244e-29)
(1.1476 0.0115831 8.75244e-29)
(1.15451 0.0100173 0)
(1.15901 0.00860036 0)
(1.16169 0.00731782 -4.72261e-12)
(1.16309 0.00614956 4.72261e-12)
(1.16363 0.00507372 0)
(1.16364 0.00406933 0)
(1.16339 0.00311774 2.49929e-12)
(1.16306 0.00220325 -2.49929e-12)
(1.16277 0.00131296 0)
(1.16261 0.000436209 0)
(0.888821 0.0256205 0)
(0.935727 0.0251849 0)
(0.97935 0.0241565 -3.31819e-30)
(1.01854 0.0226772 3.31819e-30)
(1.0526 0.0208992 0)
(1.08124 0.0189597 0)
(1.10453 0.0169739 0)
(1.12283 0.0150303 0)
(1.13669 0.0131895 0)
(1.14677 0.0114858 0)
(1.15376 0.00993244 0)
(1.15833 0.00852603 0)
(1.16107 0.00725279 -2.21951e-12)
(1.16252 0.00609317 2.21951e-12)
(1.1631 0.00502572 0)
(1.16315 0.0040297 0)
(1.16292 0.00308664 4.70052e-12)
(1.16261 0.00218085 -4.70052e-12)
(1.16233 0.00129944 1.09447e-28)
(1.16217 0.000431689 -1.1014e-28)
(0.888795 0.0253159 -1.01861e-28)
(0.935364 0.0249018 1.01977e-28)
(0.978721 0.0238998 0)
(1.01772 0.0224496 0)
(1.05167 0.0207009 0)
(1.08025 0.0187891 0)
(1.10354 0.0168282 0)
(1.12188 0.014906 0)
(1.1358 0.013083 0)
(1.14595 0.011394 0)
(1.15301 0.00985269 1.71008e-28)
(1.15765 0.0084564 -1.71008e-28)
(1.16046 0.00719202 0)
(1.16196 0.00604055 0)
(1.16258 0.00498094 0)
(1.16266 0.00399275 0)
(1.16246 0.00305762 4.40606e-12)
(1.16216 0.00215995 -4.40606e-12)
(1.16189 0.00128682 -1.41606e-28)
(1.16173 0.00042747 1.42503e-28)
(0.888777 0.0250181 4.49791e-29)
(0.935012 0.0246256 -4.50299e-29)
(0.978106 0.0236499 0)
(1.01692 0.0222287 0)
(1.05075 0.0205092 0)
(1.07928 0.018625 0)
(1.10256 0.0166888 0)
(1.12093 0.0147878 0)
(1.13491 0.0129824 0)
(1.14514 0.0113078 0)
(1.15227 0.00977816 -7.66747e-29)
(1.15698 0.0083916 7.66747e-29)
(1.15985 0.00713562 0)
(1.1614 0.00599179 0)
(1.16207 0.00493949 0)
(1.16218 0.00395854 0)
(1.16199 0.00303076 2.0575e-12)
(1.16171 0.0021406 -2.0575e-12)
(1.16145 0.00127514 9.58218e-29)
(1.1613 0.000423561 -9.64284e-29)
(0.888768 0.024727 0)
(0.934672 0.0243561 0)
(0.977505 0.0234068 0)
(1.01613 0.0220146 0)
(1.04984 0.0203243 0)
(1.07832 0.0184675 0)
(1.1016 0.0165558 0)
(1.12 0.0146758 0)
(1.13404 0.0128878 1.38665e-28)
(1.14433 0.0112273 -1.38665e-28)
(1.15154 0.009709 1.48381e-28)
(1.15631 0.00833175 -1.48381e-28)
(1.15924 0.00708371 -1.80575e-12)
(1.16085 0.005947 1.80575e-12)
(1.16155 0.00490144 1.61665e-28)
(1.16169 0.00392715 -1.61665e-28)
(1.16154 0.0030061 1.91357e-12)
(1.16127 0.00212283 -1.91357e-12)
(1.16102 0.0012644 -1.23005e-28)
(1.16087 0.000419969 1.23784e-28)
(0.888768 0.0244423 0)
(0.934344 0.0240933 0)
(0.976919 0.0231704 0)
(1.01536 0.0218072 0)
(1.04895 0.0201461 0)
(1.07737 0.0183167 0)
(1.10064 0.0164295 0)
(1.11908 0.0145703 0)
(1.13317 0.0127994 -6.16119e-29)
(1.14352 0.0111527 6.16119e-29)
(1.1508 0.00964536 0)
(1.15565 0.008277 0)
(1.15864 0.00703641 -3.34277e-12)
(1.1603 0.00590629 3.34277e-12)
(1.16104 0.00486689 0)
(1.16122 0.00389864 0)
(1.16108 0.00298371 3.54229e-12)
(1.16083 0.00210668 -3.54229e-12)
(1.16059 0.00125464 8.24838e-29)
(1.16045 0.000416703 -8.3006e-29)
(0.888777 0.0241639 0)
(0.934029 0.023837 0)
(0.976346 0.0229408 0)
(1.0146 0.0216068 0)
(1.04807 0.0199748 0)
(1.07643 0.0181728 0)
(1.0997 0.0163099 0)
(1.11816 0.0144714 0)
(1.1323 0.0127174 0)
(1.14273 0.0110841 0)
(1.15008 0.00958742 0)
(1.15499 0.0082275 0)
(1.15804 0.00699385 -3.07729e-12)
(1.15975 0.00586976 3.07729e-12)
(1.16053 0.00483593 -6.61679e-29)
(1.16074 0.00387311 6.61679e-29)
(1.16063 0.00296363 1.63011e-12)
(1.16039 0.00209219 -1.63011e-12)
(1.16016 0.00124588 0)
(1.16003 0.000413769 0)
(0.888796 0.0238916 -6.28451e-29)
(0.933726 0.0235872 6.29134e-29)
(0.975788 0.022718 0)
(1.01386 0.0214132 0)
(1.04721 0.0198105 0)
(1.07551 0.0180359 0)
(1.09877 0.0161972 0)
(1.11725 0.0143792 0)
(1.13145 0.0126419 0)
(1.14194 0.0110218 0)
(1.14936 0.00953536 0)
(1.15433 0.00818342 0)
(1.15745 0.00695619 -2.81484e-12)
(1.1592 0.00583754 2.81484e-12)
(1.16003 0.00480866 0)
(1.16027 0.00385061 0)
(1.16018 0.00294593 1.49036e-12)
(1.15996 0.0020794 -1.49036e-12)
(1.15974 0.00123814 0)
(1.15961 0.000411176 0)
(0.888823 0.0236252 2.67533e-29)
(0.933436 0.0233437 -2.6782e-29)
(0.975244 0.0225018 0)
(1.01313 0.0212267 0)
(1.04636 0.0196534 0)
(1.0746 0.0179062 0)
(1.09784 0.0160917 0)
(1.11636 0.0142941 0)
(1.1306 0.0125733 0)
(1.14115 0.010966 0)
(1.14864 0.00948937 -5.04561e-29)
(1.15368 0.00814492 5.04561e-29)
(1.15685 0.00692356 -1.2776e-12)
(1.15866 0.00580976 1.2776e-12)
(1.15953 0.00478518 0)
(1.1598 0.00383123 0)
(1.15973 0.00293066 2.70356e-12)
(1.15952 0.00206835 -2.70356e-12)
(1.15932 0.00123144 -6.29314e-29)
(1.15919 0.00040893 6.33298e-29)
(0.88886 0.0233646 0)
(0.933158 0.0231065 0)
(0.974714 0.0222924 0)
(1.01241 0.0210472 0)
(1.04552 0.0195035 0)
(1.0737 0.0177839 0)
(1.09693 0.0159937 0)
(1.11547 0.0142163 0)
(1.12976 0.0125117 8.83023e-29)
(1.14037 0.0109169 -8.83023e-29)
(1.14793 0.00944967 0)
(1.15303 0.0081122 0)
(1.15626 0.00689612 0)
(1.15812 0.00578653 0)
(1.15903 0.00476559 0)
(1.15933 0.00381505 0)
(1.15928 0.00291788 1.21426e-12)
(1.15909 0.00205908 -1.21426e-12)
(1.1589 0.00122581 0)
(1.15878 0.000407039 0)
(0.888907 0.0231094 0)
(0.932893 0.0228755 0)
(0.974199 0.0220897 0)
(1.01171 0.0208749 0)
(1.0447 0.0193612 0)
(1.07282 0.0176693 0)
(1.09604 0.0159033 0)
(1.11459 0.0141461 0)
(1.12893 0.0124574 0)
(1.1396 0.0108748 0)
(1.14722 0.00941648 0)
(1.15239 0.00808545 0)
(1.15567 0.00687404 0)
(1.15758 0.005768 0)
(1.15853 0.00475 4.38245e-29)
(1.15886 0.00380214 -4.38245e-29)
(1.15884 0.00290765 -4.47358e-29)
(1.15867 0.00205163 4.47358e-29)
(1.15848 0.00122126 5.01403e-29)
(1.15836 0.000405508 -5.04577e-29)
(0.888965 0.0228596 0)
(0.932642 0.0226507 0)
(0.9737 0.021894 5.31909e-13)
(1.01103 0.0207101 -5.31909e-13)
(1.0439 0.0192267 0)
(1.07195 0.0175627 0)
(1.09515 0.0158209 0)
(1.11372 0.0140838 0)
(1.1281 0.0124108 -6.92542e-29)
(1.13883 0.01084 6.92542e-29)
(1.14651 0.00939006 0)
(1.15174 0.00806489 0)
(1.15509 0.00685749 0)
(1.15704 0.0057543 0)
(1.15803 0.0047385 -7.98207e-29)
(1.15839 0.00379259 7.98207e-29)
(1.1584 0.00290002 8.13931e-29)
(1.15824 0.00204602 -8.13931e-29)
(1.15806 0.00121782 -6.04568e-29)
(1.15795 0.000404344 6.08396e-29)
(0.889034 0.022615 0)
(0.932405 0.022432 0)
(0.973216 0.0217052 4.53891e-13)
(1.01036 0.0205529 -4.53891e-13)
(1.04311 0.0191003 0)
(1.07109 0.0174644 0)
(1.09427 0.015747 -2.9163e-29)
(1.11286 0.0140297 2.9163e-29)
(1.12729 0.0123722 0)
(1.13807 0.0108127 0)
(1.14581 0.00937068 0)
(1.1511 0.00805072 0)
(1.1545 0.00684665 0)
(1.15651 0.00574556 0)
(1.15753 0.00473119 0)
(1.15793 0.00378645 0)
(1.15795 0.00289504 0)
(1.15781 0.0020423 0)
(1.15765 0.0012155 0)
(1.15754 0.00040355 0)
(0.889114 0.0223755 0)
(0.932182 0.0222195 0)
(0.972747 0.0215235 8.62309e-31)
(1.00971 0.0204035 -8.62309e-31)
(1.04233 0.0189823 0)
(1.07025 0.0173749 0)
(1.09341 0.0156819 0)
(1.11201 0.0139844 0)
(1.12647 0.012342 0)
(1.13731 0.0107933 0)
(1.14511 0.00935861 0)
(1.15046 0.0080432 0)
(1.15392 0.0068417 0)
(1.15597 0.00574193 0)
(1.15704 0.0047282 0)
(1.15746 0.00378382 0)
(1.15751 0.00289275 -2.79124e-29)
(1.15739 0.00204049 2.79124e-29)
(1.15723 0.00121431 0)
(1.15713 0.000403128 0)
(0.889206 0.0221411 -1.77015e-29)
(0.931974 0.0220132 1.77192e-29)
(0.972295 0.0213492 0)
(1.00907 0.0202625 0)
(1.04157 0.0188732 0)
(1.06942 0.0172946 0)
(1.09255 0.0156261 0)
(1.11117 0.0139481 0)
(1.12567 0.0123205 0)
(1.13656 0.0107822 0)
(1.14442 0.00935416 0)
(1.14983 0.00804255 0)
(1.15334 0.00684282 0)
(1.15544 0.00574353 0)
(1.15654 0.00472959 0)
(1.157 0.00378474 0)
(1.15707 0.00289321 5.38359e-13)
(1.15696 0.00204062 -5.38359e-13)
(1.15682 0.00121426 3.44357e-29)
(1.15672 0.000403075 -3.46538e-29)
(0.889309 0.0219117 5.90057e-30)
(0.931783 0.0218133 -5.90641e-30)
(0.971864 0.0211825 0)
(1.00846 0.0201301 0)
(1.04084 0.0187735 0)
(1.06861 0.0172241 0)
(1.09172 0.0155801 1.62554e-29)
(1.11034 0.0139216 -1.62554e-29)
(1.12487 0.0123083 1.57056e-29)
(1.13581 0.0107798 -1.57056e-29)
(1.14373 0.00935768 1.62485e-29)
(1.14919 0.00804904 -1.62485e-29)
(1.15276 0.00685021 -3.98145e-13)
(1.1549 0.00575052 3.98145e-13)
(1.15605 0.00473547 0)
(1.15653 0.00378927 0)
(1.15663 0.00289643 4.04516e-13)
(1.15654 0.0020427 -4.04516e-13)
(1.1564 0.00121533 -1.86959e-29)
(1.15631 0.000403368 1.88143e-29)
(0.889433 0.0216871 -7.15189e-30)
(0.931601 0.0216194 7.15889e-30)
(0.971434 0.0210236 0)
(1.00784 0.020007 0)
(1.04009 0.0186842 0)
(1.0678 0.0171646 0)
(1.09087 0.0155453 -1.70526e-29)
(1.10951 0.013906 1.70526e-29)
(1.12407 0.0123066 -2.41692e-29)
(1.13506 0.010787 2.41692e-29)
(1.14303 0.00936996 -2.4239e-29)
(1.14856 0.00806332 2.4239e-29)
(1.15217 0.00686438 -5.55205e-13)
(1.15436 0.00576325 5.55205e-13)
(1.15555 0.00474611 0)
(1.15606 0.00379761 0)
(1.15618 0.00290255 -2.3579e-29)
(1.15611 0.00204682 2.3579e-29)
(1.15598 0.00121759 0)
(1.1559 0.000404028 0)
(0.889618 0.0214988 1.1538e-30)
(0.931382 0.0214555 -1.15224e-30)
(0.970878 0.0208891 0)
(1.00703 0.0199037 0)
(1.03909 0.018611 0)
(1.06669 0.0171186 0)
(1.08972 0.0155222 8.93059e-30)
(1.10835 0.0139007 -8.92137e-30)
(1.12296 0.012314 0)
(1.13401 0.0108025 0)
(1.14205 0.00938955 0)
(1.14765 0.00808404 0)
(1.15134 0.00688411 -3.28929e-13)
(1.1536 0.00578071 3.28888e-13)
(1.15484 0.00476066 0)
(1.1554 0.00380907 0)
(1.15555 0.00291106 1.47138e-13)
(1.1555 0.00205271 -1.47138e-13)
(1.15539 0.00122147 6.61789e-30)
(1.15531 0.00040558 -6.66025e-30)
(0.835042 0.040042 -2.41365e-20)
(0.835203 0.0394242 4.18889e-20)
(0.835373 0.0388177 -2.68629e-20)
(0.835551 0.0382225 2.94417e-20)
(0.835736 0.0376384 -4.38604e-20)
(0.835928 0.0370655 1.17337e-20)
(0.836127 0.0365036 3.12471e-20)
(0.836333 0.0359526 -4.04245e-20)
(0.836545 0.0354124 9.55626e-21)
(0.836763 0.034883 -7.6739e-21)
(0.836987 0.0343641 -9.90822e-22)
(0.837217 0.0338556 1.18824e-20)
(0.837451 0.0333575 3.84497e-21)
(0.837691 0.0328696 -7.10425e-21)
(0.837937 0.0323917 -5.07866e-21)
(0.838187 0.0319237 1.07196e-20)
(0.838442 0.0314655 -4.88379e-21)
(0.838701 0.0310168 3.49867e-21)
(0.838965 0.0305776 -2.32736e-21)
(0.839233 0.0301477 1.79313e-21)
(0.839506 0.0297269 6.32749e-21)
(0.839783 0.0293151 -9.65629e-21)
(0.840064 0.0289122 -4.43616e-21)
(0.840349 0.0285178 6.81009e-21)
(0.840638 0.028132 -2.73765e-21)
(0.840931 0.0277545 1.39946e-21)
(0.841228 0.0273852 6.07306e-22)
(0.841529 0.0270238 -5.11534e-21)
(0.841834 0.0266703 4.93384e-21)
(0.842143 0.0263245 -3.56277e-22)
(0.842455 0.0259861 1.25888e-21)
(0.842772 0.0256549 1.48638e-22)
(0.843093 0.0253309 -1.89809e-21)
(0.843418 0.0250137 -5.74061e-22)
(0.843746 0.0247032 1.1654e-21)
(0.84408 0.0243991 6.14142e-22)
(0.844417 0.0241012 -5.07567e-22)
(0.84476 0.0238092 2.05248e-22)
(0.845107 0.0235229 1.20359e-22)
(0.845459 0.023242 -1.59831e-23)
(0.845817 0.0229661 6.40347e-23)
(0.84618 0.022695 -1.27059e-22)
(0.84655 0.0224283 -1.33526e-22)
(0.846927 0.0221658 2.19035e-22)
(0.847311 0.0219071 -7.06815e-23)
(0.847703 0.0216523 -2.97405e-24)
(0.848099 0.0214013 2.50929e-23)
(0.84853 0.021154 1.45893e-25)
(0.849117 0.0209495 -1.01786e-25)
(0.775522 0.0386707 -1.05391e-20)
(0.776331 0.0380666 -9.01701e-22)
(0.777135 0.0374738 2.0379e-20)
(0.777936 0.0368921 -1.23575e-20)
(0.778733 0.0363214 4.21157e-21)
(0.779527 0.0357617 2.58636e-20)
(0.780316 0.0352128 -1.45604e-20)
(0.781101 0.0346746 -1.7572e-20)
(0.781882 0.0341469 1.75855e-20)
(0.782659 0.0336298 -1.71602e-20)
(0.783432 0.0331229 7.31312e-21)
(0.7842 0.0326262 1.25906e-20)
(0.784965 0.0321396 -1.78527e-22)
(0.785726 0.0316628 -9.92298e-21)
(0.786482 0.0311957 1.05093e-20)
(0.787235 0.0307382 -3.98558e-21)
(0.787983 0.0302902 -4.89692e-21)
(0.788728 0.0298514 -5.45475e-22)
(0.789469 0.0294217 -4.04972e-21)
(0.790206 0.029001 3.04659e-21)
(0.790939 0.028589 6.59249e-22)
(0.791669 0.0281857 2.13943e-21)
(0.792395 0.0277908 -6.59459e-22)
(0.793117 0.0274043 5.35422e-21)
(0.793836 0.0270259 -4.87729e-21)
(0.794552 0.0266554 -3.40468e-21)
(0.795265 0.0262927 8.13304e-21)
(0.795974 0.0259377 -4.0857e-21)
(0.796681 0.02559 -5.20776e-22)
(0.797384 0.0252496 1.02751e-22)
(0.798085 0.0249163 1.23625e-22)
(0.798784 0.0245897 -4.42509e-22)
(0.79948 0.0242698 -1.70539e-23)
(0.800173 0.0239563 -5.67873e-22)
(0.800865 0.0236489 1.49704e-21)
(0.801554 0.0233474 -8.17148e-22)
(0.802242 0.0230515 -1.21716e-21)
(0.802929 0.0227609 5.46108e-22)
(0.803614 0.0224752 2.14402e-22)
(0.804298 0.0221941 -3.56519e-22)
(0.804982 0.0219171 2.69686e-22)
(0.805667 0.0216438 -7.10698e-23)
(0.806351 0.0213737 -1.2183e-22)
(0.807037 0.0211063 2.2183e-22)
(0.807725 0.0208412 -2.52435e-23)
(0.808414 0.0205782 -1.68719e-23)
(0.809099 0.0203167 1.85402e-24)
(0.809835 0.0200569 1.34698e-24)
(0.810811 0.019845 1.45727e-24)
(0.71366 0.0366609 -2.39143e-20)