/*--------------------------------*- C++ -*----------------------------------*\
  =========                 |
  \\      /  F ield         | OpenFOAM: The Open Source CFD Toolbox
   \\    /   O peration     | Website:  https://openfoam.org
    \\  /    A nd           | Version:  7
     \\/     M anipulation  |
\*---------------------------------------------------------------------------*/
FoamFile
{
    version     2.0;
    format      ascii;
    class       surfaceScalarField;
    location    "20";
    object      phi;
}
// * * * * * * * * * * * * * * * * * * * * * * * * * * * * * * * * * * * * * //

dimensions      [0 3 -1 0 0 0 0];

internalField   nonuniform List<scalar> 
2630
(
-0.00278785
-0.00715102
-0.00315724
-0.00735601
-0.00756963
-0.00353674
-0.00274572
-0.00620529
-0.00314419
-0.00636991
-0.00355655
-0.00654289
-0.00398199
-0.00672558
-0.00441926
-0.00691873
-0.00712215
-0.00486675
-0.00239519
-0.0053418
-0.0028061
-0.00548034
-0.00323398
-0.00561898
-0.00367744
-0.00576182
-0.00413585
-0.0059115
-0.00460908
-0.00606966
-0.005097
-0.00623767
-0.00559818
-0.00641755
-0.00660853
-0.0061118
-0.00221346
-0.0046337
-0.00264217
-0.00476861
-0.00309118
-0.0048928
-0.00355789
-0.00501362
-0.00404077
-0.00513611
-0.00453906
-0.00526353
-0.00505266
-0.0053979
-0.00558203
-0.0055403
-0.00612845
-0.00569124
-0.00669321
-0.00585279
-0.0060335
-0.00726824
-0.00184965
-0.00388536
-0.00228388
-0.00404375
-0.00274389
-0.00417369
-0.0032255
-0.004287
-0.00372581
-0.00439249
-0.00424309
-0.00449634
-0.0047766
-0.00460259
-0.00532645
-0.00471368
-0.00589343
-0.00483092
-0.00647876
-0.00495497
-0.00708356
-0.00508644
-0.00771067
-0.00522568
-0.00536827
-0.00837591
-0.00134796
-0.00304214
-0.00176961
-0.00326202
-0.00222602
-0.00342895
-0.00271064
-0.00355914
-0.00321834
-0.00366599
-0.00374549
-0.00375985
-0.00428975
-0.00384823
-0.00484989
-0.0039362
-0.00542552
-0.00402697
-0.00601684
-0.00412236
-0.0066244
-0.00422335
-0.00724896
-0.00433041
-0.00789175
-0.00444366
-0.00855497
-0.00456246
-0.0046858
-0.00923744
-0.00115555
-0.00237195
-0.00158496
-0.00261273
-0.00205484
-0.00279214
-0.00255686
-0.00292694
-0.00308448
-0.00303152
-0.00363299
-0.00311748
-0.00419926
-0.00319358
-0.0047815
-0.00326599
-0.00537893
-0.00333878
-0.00599147
-0.00341442
-0.00661951
-0.00349432
-0.00726368
-0.00357918
-0.00792475
-0.00366934
-0.0086036
-0.00376481
-0.00930088
-0.00386518
-0.00397027
-0.0100164
-0.00131645
-0.00195002
-0.00178803
-0.00214115
-0.00229814
-0.00228203
-0.00283807
-0.002387
-0.00340145
-0.00246814
-0.00398394
-0.00253499
-0.00458294
-0.00259459
-0.0051971
-0.00265182
-0.00582604
-0.00270984
-0.00646996
-0.0027705
-0.00712943
-0.00283485
-0.00780523
-0.00290338
-0.00849823
-0.00297634
-0.00920931
-0.00305373
-0.0099392
-0.00313529
-0.00322104
-0.0106884
-0.000991807
-0.00129983
-0.00144854
-0.00149329
-0.00195402
-0.00163566
-0.00249633
-0.00173972
-0.00306657
-0.00181677
-0.00365854
-0.00187617
-0.00426831
-0.00192522
-0.00489366
-0.00196923
-0.00553367
-0.00201181
-0.00618825
-0.00205526
-0.00685785
-0.00210091
-0.00754321
-0.00214949
-0.00824525
-0.00220135
-0.00896494
-0.00225665
-0.00970328
-0.00231539
-0.0104612
-0.00237739
-0.00244273
-0.0112395
-0.000647729
-0.000707725
-0.00106647
-0.000881095
-0.00154952
-0.00101024
-0.00208052
-0.00110466
-0.00264699
-0.00117325
-0.00323995
-0.00122381
-0.0038534
-0.00126273
-0.00448369
-0.00129493
-0.00512896
-0.00132396
-0.00578856
-0.00135221
-0.00646266
-0.00138116
-0.00715188
-0.00141169
-0.00785712
-0.00144425
-0.0085794
-0.00147907
-0.00931981
-0.00151624
-0.0100794
-0.00155576
-0.0108593
-0.00159752
-0.00164157
-0.0116605
-0.000680872
-0.000357844
-0.00111704
-0.00044493
-0.00161773
-0.000509546
-0.00216579
-0.000556599
-0.00274838
-0.000590657
-0.0033565
-0.000615693
-0.00398427
-0.00063495
-0.0046283
-0.000650904
-0.00528692
-0.000665332
-0.00595971
-0.000679417
-0.00664697
-0.000693897
-0.00734947
-0.000709194
-0.00806819
-0.000725531
-0.00880424
-0.000743016
-0.00955878
-0.000761698
-0.010333
-0.000781574
-0.0111279
-0.000802579
-0.00082476
-0.0119447
-0.000697629
-0.00114256
-0.0016521
-0.0022087
-0.00279936
-0.00341505
-0.00405
-0.00470091
-0.00536624
-0.00604566
-0.00673955
-0.00744875
-0.00817428
-0.00891729
-0.00967899
-0.0104606
-0.0112631
-0.0120879
-0.00359818
-0.014667
-0.00359056
-0.01476
-0.0035326
-0.0148256
-0.00343586
-0.014872
-0.00330842
-0.0149004
-0.00315646
-0.0149138
-0.00298474
-0.0149158
-0.00279698
-0.0149094
-0.00259622
-0.0148973
-0.00238493
-0.0148813
-0.00216513
-0.0148632
-0.00193845
-0.0148444
-0.00170626
-0.0148258
-0.00146965
-0.0148084
-0.00122955
-0.0147928
-0.000986735
-0.0147796
-0.000741853
-0.0147692
-0.000495456
-0.0147619
-0.000248015
-0.0147579
-0.014757
-0.00487014
-0.0146636
-0.00479814
-0.014832
-0.00467515
-0.0149486
-0.00451404
-0.0150331
-0.00432185
-0.0150926
-0.00410416
-0.0151315
-0.00386564
-0.0151543
-0.0036102
-0.0151649
-0.00334111
-0.0151663
-0.0030611
-0.0151613
-0.00277241
-0.0151519
-0.00247688
-0.0151399
-0.002176
-0.0151267
-0.00187098
-0.0151134
-0.00156284
-0.0151009
-0.00125241
-0.01509
-0.000940361
-0.0150812
-0.000627292
-0.0150749
-0.000313697
-0.0150715
-0.0150707
-0.00604675
-0.0147286
-0.00591552
-0.0149632
-0.00573726
-0.0151269
-0.0055207
-0.0152496
-0.00527103
-0.0153423
-0.00499348
-0.015409
-0.00469311
-0.0154547
-0.00437437
-0.0154836
-0.00404103
-0.0154997
-0.00369622
-0.0155061
-0.0033425
-0.0155056
-0.00298197
-0.0155004
-0.00261629
-0.0154923
-0.00224682
-0.0154828
-0.00187466
-0.0154731
-0.00150071
-0.015464
-0.00112568
-0.0154562
-0.00075022
-0.0154504
-0.000374845
-0.0154468
-0.0154456
-0.00716477
-0.0148321
-0.00699753
-0.0151304
-0.00676994
-0.0153544
-0.0064961
-0.0155235
-0.00618551
-0.0156529
-0.00584538
-0.0157491
-0.00548168
-0.0158184
-0.00509936
-0.0158659
-0.00470254
-0.0158965
-0.00429454
-0.0159141
-0.00387809
-0.0159221
-0.00345536
-0.0159232
-0.00302809
-0.0159196
-0.0025977
-0.0159132
-0.0021653
-0.0159055
-0.00173179
-0.0158975
-0.00129793
-0.0158901
-0.000864351
-0.015884
-0.000431576
-0.0158796
-0.0158771
0.00155701
-0.0146991
-0.00169004
0.00143314
-0.0150066
0.00131275
-0.0152341
0.00119957
-0.0154103
0.00109254
-0.0155458
0.000991417
-0.015648
0.000896006
-0.0157229
0.000806031
-0.015776
0.00072115
-0.0158116
0.000640968
-0.0158339
0.000565051
-0.0158462
0.000492945
-0.0158511
0.000424191
-0.0158509
0.000358333
-0.0158474
0.000294924
-0.0158421
0.000233532
-0.0158361
0.000173737
-0.0158303
0.000115128
-0.0158254
5.73139e-05
-0.0158218
-0.0158198
0.00147419
-0.0145973
-0.00157593
0.00136558
-0.014898
0.0012584
-0.0151269
0.00115512
-0.015307
0.00105606
-0.0154468
0.000961422
-0.0155534
0.000871314
-0.0156328
0.000785686
-0.0156903
0.000704382
-0.0157303
0.000627154
-0.0157567
0.00055369
-0.0157727
0.000483636
-0.015781
0.000416614
-0.0157838
0.000352236
-0.015783
0.000290111
-0.0157799
0.000229852
-0.0157758
0.000171077
-0.0157715
0.000113411
-0.0157677
5.64935e-05
-0.0157649
-0.0157633
0.00138041
-0.0145197
-0.00145807
0.00129009
-0.0148076
0.0011971
-0.0150339
0.00110477
-0.0152147
0.00101447
-0.0153565
0.000926973
-0.0154659
0.000842715
-0.0155486
0.000761916
-0.0156095
0.000684618
-0.015653
0.000610731
-0.0156828
0.000540073
-0.015702
0.000472393
-0.0157133
0.000407401
-0.0157188
0.000344777
-0.0157204
0.000284191
-0.0157194
0.000225303
-0.0157169
0.000167774
-0.015714
0.000111266
-0.0157112
5.54471e-05
-0.0157091
-0.0157079
0.00128815
-0.0144617
-0.00134608
0.00121463
-0.0147341
0.00113509
-0.0149543
0.00105342
-0.015133
0.00097176
-0.0152748
0.000891339
-0.0153855
0.000812936
-0.0154702
0.000737007
-0.0155336
0.000663782
-0.0155798
0.000593322
-0.0156124
0.000525564
-0.0156343
0.00046036
-0.0156481
0.000397499
-0.015656
0.000336732
-0.0156596
0.000277785
-0.0156604
0.000220368
-0.0156595
0.000164183
-0.0156578
0.000108927
-0.015656
5.42985e-05
-0.0156544
-0.0156536
0.00119998
-0.0144201
-0.00124167
0.00114116
-0.0146753
0.00107384
-0.014887
0.00100218
-0.0150614
0.000928767
-0.0152014
0.000855199
-0.0153119
0.000782524
-0.0153975
0.000711407
-0.0154625
0.000642244
-0.0155106
0.000575231
-0.0155453
0.000510416
-0.0155695
0.000447743
-0.0155854
0.000387078
-0.0155953
0.000328238
-0.0156008
0.000271004
-0.0156032
0.000215132
-0.0156036
0.000160364
-0.015603
0.000106434
-0.015602
5.30705e-05
-0.0156011
-0.0156005
0.00111662
-0.0143916
-0.0011451
0.00107041
-0.0146291
0.00101399
-0.0148306
0.000951554
-0.0149989
0.000885898
-0.0151357
0.000818877
-0.0152449
0.000751743
-0.0153304
0.000685333
-0.0153961
0.000620183
-0.0154455
0.000556605
-0.0154818
0.000494749
-0.0155076
0.000434639
-0.0155253
0.000376217
-0.0155369
0.000319358
-0.0155439
0.000263895
-0.0155477
0.000209631
-0.0155494
0.000156345
-0.0155498
0.000103806
-0.0155495
5.17735e-05
-0.015549
-0.0155487
0.00103827
-0.0143738
-0.00105608
0.00100274
-0.0145936
0.000955945
-0.0147838
0.000901893
-0.0149449
0.000843454
-0.0150773
0.000782627
-0.015184
0.000720807
-0.0152685
0.000658963
-0.0153342
0.000597745
-0.0153843
0.000537567
-0.0154216
0.000478662
-0.0154487
0.000421133
-0.0154678
0.000364983
-0.0154807
0.000310146
-0.0154891
0.000256503
-0.0154941
0.000203898
-0.0154968
0.000152149
-0.015498
0.000101059
-0.0154984
5.04152e-05
-0.0154984
-0.0154983
0.000964911
-0.0143645
-0.000974146
0.000938356
-0.014567
0.000899973
-0.0147454
0.000853471
-0.0148984
0.000801684
-0.0150255
0.000746666
-0.015129
0.000689902
-0.0152118
0.000632455
-0.0152768
0.000575065
-0.0153269
0.000518228
-0.0153648
0.00046225
-0.0153927
0.0004073
-0.0154129
0.000353439
-0.0154269
0.000300653
-0.0154363
0.000248866
-0.0154423
0.000197963
-0.0154459
0.000147799
-0.0154478
9.8206e-05
-0.0154488
4.90035e-05
-0.0154492
-0.0154493
0.000896391
-0.0143621
-0.000898794
0.000877341
-0.014548
0.00084625
-0.0147143
0.000806494
-0.0148586
0.000760786
-0.0149798
0.000711175
-0.0150794
0.000659188
-0.0151598
0.00060595
-0.0152235
0.000552264
-0.0152732
0.000498691
-0.0153112
0.000445599
-0.0153396
0.000393213
-0.0153605
0.000341645
-0.0153753
0.000290926
-0.0153856
0.000241022
-0.0153924
0.000191856
-0.0153967
0.000143315
-0.0153993
9.52627e-05
-0.0154007
4.75458e-05
-0.0154015
-0.0154018
0.000832508
-0.0143651
-0.000829508
0.000819688
-0.0145351
0.000794879
-0.0146895
0.000761106
-0.0148249
0.000720916
-0.0149396
0.000676306
-0.0150348
0.000628807
-0.0151123
0.000579572
-0.0151743
0.000529451
-0.0152231
0.000479051
-0.0152608
0.00042879
-0.0152894
0.000378939
-0.0153106
0.000329656
-0.015326
0.000281011
-0.0153369
0.000233009
-0.0153444
0.000185605
-0.0153493
0.000138719
-0.0153524
9.2242e-05
-0.0153543
4.60484e-05
-0.0153553
-0.0153557
0.000773018
-0.0143724
-0.000765789
0.000765331
-0.0145274
0.0007459
-0.0146701
0.000717402
-0.0147964
0.000682193
-0.0149044
0.000642183
-0.0149948
0.000598875
-0.015069
0.000553431
-0.0151289
0.000506723
-0.0151764
0.000459393
-0.0152134
0.000411896
-0.0152419
0.000364542
-0.0152633
0.000317525
-0.015279
0.000270952
-0.0152903
0.00022486
-0.0152983
0.000179237
-0.0153037
0.00013403
-0.0153072
8.91569e-05
-0.0153094
4.45183e-05
-0.0153106
-0.0153112
0.000717654
-0.0143829
-0.000707165
0.000714168
-0.014524
0.000699313
-0.0146552
0.00067544
-0.0147725
0.000644702
-0.0148737
0.0006089
-0.014959
0.00056949
-0.0150296
0.000527617
-0.015087
0.000484164
-0.0151329
0.000439791
-0.0151691
0.000394982
-0.0151971
0.000350076
-0.0152184
0.000305299
-0.0152342
0.000260788
-0.0152458
0.000216609
-0.0152541
0.000172777
-0.0152598
0.000129266
-0.0152637
8.60196e-05
-0.0152662
4.29612e-05
-0.0152676
-0.0152682
0.000666143
-0.0143958
-0.000653192
0.000666063
-0.0145239
0.00065508
-0.0146443
0.000635242
-0.0147526
0.000608499
-0.0148469
0.000576531
-0.014927
0.000540729
-0.0149938
0.000502209
-0.0150485
0.000461847
-0.0150926
0.000420313
-0.0151275
0.000378109
-0.0151549
0.000335595
-0.0151758
0.000293023
-0.0151917
0.000250555
-0.0152034
0.000208284
-0.0152118
0.000166248
-0.0152178
0.000124445
-0.0152219
8.28414e-05
-0.0152245
4.13828e-05
-0.0152261
-0.0152269
0.000618216
-0.0144106
-0.000603457
0.000620868
-0.0145265
0.000613138
-0.0146365
0.000596803
-0.0147363
0.000573615
-0.0148237
0.000545127
-0.0148985
0.000512653
-0.0149613
0.000477269
-0.0150131
0.000439833
-0.0150551
0.000401016
-0.0150887
0.000361327
-0.0151152
0.000321144
-0.0151357
0.000280737
-0.0151513
0.000240288
-0.0151629
0.000199913
-0.0151715
0.000159672
-0.0151776
0.000119582
-0.0151818
7.96328e-05
-0.0151846
3.97883e-05
-0.0151863
-0.0151871
0.000573608
-0.0144266
-0.000557577
0.00057842
-0.0145313
0.000573407
-0.0146315
0.000560098
-0.014723
0.000540061
-0.0148037
0.000514721
-0.0148732
0.000485308
-0.0149319
0.000452848
-0.0149806
0.000418174
-0.0150204
0.000381949
-0.0150525
0.000344683
-0.0150779
0.000306763
-0.0150977
0.000268475
-0.015113
0.000230016
-0.0151245
0.000191521
-0.015133
0.000153068
-0.0151391
0.000114693
-0.0151434
7.64036e-05
-0.0151463
3.81828e-05
-0.0151481
-0.0151489
0.000532065
-0.0144435
-0.000515202
0.000538557
-0.0145378
0.000535792
-0.0146287
0.000525086
-0.0147123
0.000507833
-0.0147864
0.00048533
-0.0148507
0.000458723
-0.0149053
0.000428983
-0.0149509
0.000396911
-0.0149884
0.000363152
-0.0150187
0.000328214
-0.015043
0.000292488
-0.015062
0.000256268
-0.0150768
0.000219767
-0.015088
0.00018313
-0.0150963
0.000146454
-0.0151024
0.00010979
-0.0151068
7.31625e-05
-0.0151097
3.65706e-05
-0.0151115
-0.0151123
0.000493345
-0.0144608
-0.000476009
0.000501111
-0.0145456
0.000500192
-0.0146278
0.000491713
-0.0147038
0.000476909
-0.0147716
0.000456959
-0.0148307
0.000432919
-0.0148812
0.000405704
-0.0149237
0.000376075
-0.0149587
0.000344659
-0.0149873
0.000311953
-0.0150103
0.000278349
-0.0150284
0.000244145
-0.0150425
0.000209563
-0.0150534
0.000174761
-0.0150615
0.000139846
-0.0150675
0.000104886
-0.0150718
6.99177e-05
-0.0150747
3.49556e-05
-0.0150765
-0.0150774
0.000457221
-0.0144783
-0.000439704
0.000465921
-0.0145543
0.000466499
-0.0146284
0.000459914
-0.0146972
0.00044726
-0.014759
0.000429599
-0.0148131
0.000407904
-0.0148596
0.000383027
-0.0148988
0.000355691
-0.0149314
0.000326496
-0.0149581
0.000295927
-0.0149797
0.000264372
-0.0149969
0.000232129
-0.0150103
0.000199426
-0.0150207
0.00016643
-0.0150285
0.000133259
-0.0150344
9.99912e-05
-0.0150385
6.66761e-05
-0.0150414
3.33413e-05
-0.0150432
-0.015044
0.00042348
-0.0144958
-0.00040602
0.000432829
-0.0145637
0.000434602
-0.0146302
0.000429621
-0.0146923
0.000418846
-0.0147482
0.000403234
-0.0147975
0.000383676
-0.01484
0.000360962
-0.0148761
0.000335773
-0.0149062
0.000308682
-0.014931
0.000280156
-0.0149512
0.000250576
-0.0149673
0.000220238
-0.01498
0.000189372
-0.0149898
0.000158152
-0.0149973
0.000126704
-0.0150029
9.51144e-05
-0.0150069
6.34441e-05
-0.0150097
3.17309e-05
-0.0150115
-0.0150123
0.000391922
-0.014513
-0.00037471
0.00040168
-0.0145734
0.000404393
-0.0146329
0.000400759
-0.0146886
0.000391621
-0.0147391
0.00037784
-0.0147837
0.000360227
-0.0148224
0.000339512
-0.0148554
0.000316333
-0.014883
0.000291231
-0.0149059
0.000264657
-0.0149246
0.000236978
-0.0149396
0.000208488
-0.0149515
0.000179417
-0.0149607
0.000149941
-0.0149678
0.000120192
-0.0149732
9.02642e-05
-0.014977
6.0227e-05
-0.0149797
3.01275e-05
-0.0149814
-0.0149822
0.000362362
-0.0145298
-0.000345551
0.000372329
-0.0145834
0.000375761
-0.0146363
0.000373249
-0.0146861
0.000365535
-0.0147314
0.000353387
-0.0147715
0.000337541
-0.0148065
0.000318672
-0.0148365
0.000297372
-0.0148617
0.000274151
-0.0148827
0.000249439
-0.0148999
0.000223591
-0.0149137
0.000196893
-0.0149248
0.000169572
-0.0149334
0.000141807
-0.0149401
0.000113731
-0.0149451
8.54474e-05
-0.0149487
5.70294e-05
-0.0149513
2.85327e-05
-0.0149529
-0.0149536
0.000334625
-0.0145461
-0.00031834
0.000344636
-0.0145934
0.000348598
-0.0146403
0.000347013
-0.0146845
0.000340531
-0.0147249
0.000329837
-0.0147608
0.000315599
-0.0147923
0.000298432
-0.0148193
0.000278889
-0.0148422
0.000257446
-0.0148613
0.000234511
-0.014877
0.000210423
-0.0148897
0.000185461
-0.0148998
0.000159847
-0.0149078
0.000133757
-0.014914
0.00010733
-0.0149186
8.06691e-05
-0.0149221
5.38552e-05
-0.0149245
2.69491e-05
-0.014926
-0.0149267
0.000308553
-0.0145617
-0.000292892
0.000318469
-0.0146033
0.000322801
-0.0146446
0.000321972
-0.0146837
0.000316552
-0.0147195
0.000307151
-0.0147514
0.000294373
-0.0147795
0.000278779
-0.0148037
0.000260877
-0.0148243
0.000241115
-0.0148415
0.000219875
-0.0148557
0.00019748
-0.0148673
0.000174198
-0.0148765
0.000150247
-0.0148839
0.000125799
-0.0148895
0.000100993
-0.0148938
7.59343e-05
-0.014897
5.07074e-05
-0.0148992
2.5378e-05
-0.0149006
-0.0149013
0.000283996
-0.0145767
-0.000269036
0.000293703
-0.014613
0.000298267
-0.0146492
0.000298046
-0.0146835
0.000293538
-0.0147149
0.000285287
-0.0147432
0.000273834
-0.0147681
0.000259691
-0.0147896
0.000243326
-0.0148079
0.000225152
-0.0148233
0.000205529
-0.0148361
0.000184763
-0.0148465
0.000163109
-0.0148549
0.000140777
-0.0148615
0.000117936
-0.0148667
9.47236e-05
-0.0148706
7.12458e-05
-0.0148735
4.75884e-05
-0.0148756
2.38205e-05
-0.0148769
-0.0148775
0.000260815
-0.0145909
-0.000246616
0.000270219
-0.0146224
0.000274898
-0.0146539
0.000275157
-0.0146837
0.00027143
-0.0147112
0.000264199
-0.014736
0.00025395
-0.0147578
0.000241148
-0.0147768
0.00022622
-0.014793
0.000209549
-0.0148067
0.00019147
-0.014818
0.000172271
-0.0148273
0.000152194
-0.0148348
0.000131439
-0.0148408
0.000110173
-0.0148454
8.85257e-05
-0.014849
6.66062e-05
-0.0148516
4.44999e-05
-0.0148535
2.22777e-05
-0.0148546
-0.0148552
0.000238881
-0.0146043
-0.000225491
0.000247905
-0.0146314
0.0002526
-0.0146586
0.000253227
-0.0146844
0.000250165
-0.0147082
0.00024384
-0.0147296
0.000234686
-0.0147487
0.000223124
-0.0147652
0.000209543
-0.0147794
0.000194295
-0.0147914
0.000177692
-0.0148014
0.000160001
-0.0148096
0.000141452
-0.0148163
0.000122235
-0.0148215
0.000102508
-0.0148257
8.24003e-05
-0.0148289
6.20166e-05
-0.0148312
4.14428e-05
-0.0148329
2.07499e-05
-0.0148339
-0.0148345
0.000218076
-0.0146168
-0.000205529
0.000226654
-0.01464
0.000231283
-0.0146632
0.000232182
-0.0146853
0.000229683
-0.0147057
0.000224161
-0.0147241
0.000216005
-0.0147405
0.000205591
-0.0147548
0.000193274
-0.0147671
0.000179376
-0.0147775
0.000164184
-0.0147862
0.000147947
-0.0147934
0.000130879
-0.0147992
0.000113161
-0.0148038
9.49424e-05
-0.0148075
7.63475e-05
-0.0148103
5.74779e-05
-0.0148124
3.84176e-05
-0.0148138
1.92375e-05
-0.0148148
-0.0148152
0.000198285
-0.0146285
-0.000186608
0.000206367
-0.0146481
0.000210859
-0.0146677
0.000211947
-0.0146863
0.000209922
-0.0147036
0.000205114
-0.0147193
0.000197867
-0.0147333
0.000188519
-0.0147455
0.000177391
-0.014756
0.000164775
-0.0147649
0.000150935
-0.0147724
0.000136101
-0.0147785
0.000120471
-0.0147836
0.000104215
-0.0147876
8.74742e-05
-0.0147907
7.03664e-05
-0.0147932
5.29891e-05
-0.014795
3.54241e-05
-0.0147963
1.77408e-05
-0.0147971
-0.0147975
0.000179406
-0.0146393
-0.000168618
0.000186949
-0.0146556
0.000191244
-0.014672
0.000192452
-0.0146876
0.000190823
-0.014702
0.000186648
-0.0147151
0.000180232
-0.0147268
0.000171877
-0.0147371
0.000161869
-0.014746
0.000150474
-0.0147535
0.000137931
-0.0147598
0.000124452
-0.0147651
0.00011022
-0.0147693
9.53922e-05
-0.0147727
8.01001e-05
-0.0147754
6.4455e-05
-0.0147775
4.85497e-05
-0.0147791
3.24619e-05
-0.0147802
1.62587e-05
-0.0147809
-0.0147812
0.00016134
-0.0146492
-0.000151456
0.00016831
-0.0146626
0.000172358
-0.014676
0.000173624
-0.0146888
0.000172325
-0.0147007
0.000168714
-0.0147115
0.000163061
-0.0147212
0.000155631
-0.0147297
0.000146682
-0.014737
0.000136452
-0.0147433
0.000125158
-0.0147485
0.000112991
-0.0147529
0.000100119
-0.0147565
8.66864e-05
-0.0147593
7.2816e-05
-0.0147616
5.86107e-05
-0.0147633
4.41573e-05
-0.0147646
2.95298e-05
-0.0147656
1.47917e-05
-0.0147661
-0.0147664
0.000143995
-0.0146582
-0.000135027
0.000150364
-0.014669
0.000154124
-0.0146798
0.000155397
-0.0146901
0.00015437
-0.0146997
0.000151262
-0.0147084
0.00014631
-0.0147162
0.000139748
-0.0147231
0.000131803
-0.0147291
0.000122688
-0.0147342
0.000112596
-0.0147384
0.000101702
-0.014742
9.01563e-05
-0.0147449
7.80905e-05
-0.0147472
6.56166e-05
-0.0147491
5.28295e-05
-0.0147505
3.981e-05
-0.0147516
2.66263e-05
-0.0147524
1.33385e-05
-0.0147529
-0.0147531
0.000127284
-0.0146662
-0.000119239
0.00013303
-0.0146747
0.000136468
-0.0146832
0.000137704
-0.0146913
0.000136899
-0.0146989
0.000134242
-0.0147058
0.000129938
-0.0147119
0.000124192
-0.0147174
0.000117203
-0.0147221
0.000109158
-0.0147261
0.00010023
-0.0147295
9.05727e-05
-0.0147323
8.0322e-05
-0.0147347
6.9596e-05
-0.0147365
5.84956e-05
-0.014738
4.71073e-05
-0.0147391
3.55043e-05
-0.01474
2.37496e-05
-0.0147406
1.18983e-05
-0.014741
-0.0147412
0.000111126
-0.0146733
-0.00010401
0.000116229
-0.0146798
0.000119317
-0.0146863
0.00012048
-0.0146925
0.000119855
-0.0146982
0.000117605
-0.0147035
0.000113903
-0.0147082
0.000108928
-0.0147124
0.000102852
-0.014716
9.58386e-05
-0.0147191
8.80386e-05
-0.0147217
7.95871e-05
-0.0147239
7.06041e-05
-0.0147257
6.11938e-05
-0.0147271
5.14464e-05
-0.0147283
4.14389e-05
-0.0147291
3.1237e-05
-0.0147298
2.08974e-05
-0.0147303
1.04699e-05
-0.0147306
-0.0147307
9.54414e-05
-0.0146795
-8.9261e-05
9.98878e-05
-0.0146843
0.000102602
-0.014689
0.000103662
-0.0146935
0.000103182
-0.0146978
0.000101299
-0.0147016
9.81613e-05
-0.0147051
9.39191e-05
-0.0147082
8.87202e-05
-0.0147108
8.27046e-05
-0.0147131
7.60019e-05
-0.014715
6.87288e-05
-0.0147166
6.09891e-05
-0.0147179
5.28738e-05
-0.014719
4.44611e-05
-0.0147198
3.58186e-05
-0.0147205
2.7004e-05
-0.014721
1.80673e-05
-0.0147213
9.05271e-06
-0.0147216
-0.0147217
8.01544e-05
-0.0146847
-7.49167e-05
8.39325e-05
-0.0146881
8.62552e-05
-0.0146913
8.71871e-05
-0.0146945
8.68235e-05
-0.0146974
8.52771e-05
-0.0147001
8.26705e-05
-0.0147025
7.91292e-05
-0.0147046
7.47766e-05
-0.0147065
6.97302e-05
-0.014708
6.40987e-05
-0.0147094
5.79806e-05
-0.0147105
5.14638e-05
-0.0147114
4.46252e-05
-0.0147122
3.75316e-05
-0.0147127
3.02404e-05
-0.0147132
2.28012e-05
-0.0147135
1.52565e-05
-0.0147138
7.64461e-06
-0.014714
-0.014714
6.51922e-05
-0.014689
-6.08974e-05
6.82937e-05
-0.0146912
7.02106e-05
-0.0146933
7.09955e-05
-0.0146953
7.07249e-05
-0.0146971
6.94893e-05
-0.0146988
6.73876e-05
-0.0147004
6.45211e-05
-0.0147017
6.09898e-05
-0.0147029
5.68889e-05
-0.0147039
5.23071e-05
-0.0147048
4.73247e-05
-0.0147055
4.20136e-05
-0.0147061
3.64368e-05
-0.0147066
3.06492e-05
-0.014707
2.46978e-05
-0.0147073
1.86236e-05
-0.0147075
1.24621e-05
-0.0147076
6.24454e-06
-0.0147077
-0.0147078
5.04844e-05
-0.0146924
-4.71362e-05
5.29036e-05
-0.0146936
5.44044e-05
-0.0146948
5.50273e-05
-0.0146959
5.48317e-05
-0.0146969
5.38873e-05
-0.0146979
5.22699e-05
-0.0146988
5.00576e-05
-0.0146995
4.73278e-05
-0.0147002
4.4154e-05
-0.0147008
4.06048e-05
-0.0147013
3.6743e-05
-0.0147017
3.26239e-05
-0.014702
2.82968e-05
-0.0147023
2.38044e-05
-0.0147025
1.91838e-05
-0.0147026
1.44667e-05
-0.0147028
9.68102e-06
-0.0147028
4.85137e-06
-0.0147029
-0.0147029
3.59635e-05
-0.0146948
-3.35664e-05
3.76964e-05
-0.0146953
3.87737e-05
-0.0146958
3.92239e-05
-0.0146963
3.90904e-05
-0.0146968
3.84226e-05
-0.0146972
3.72745e-05
-0.0146976
3.57015e-05
-0.014698
3.37587e-05
-0.0146983
3.14983e-05
-0.0146985
2.89695e-05
-0.0146987
2.62165e-05
-0.0146989
2.32794e-05
-0.014699
2.01931e-05
-0.0146992
1.69883e-05
-0.0146993
1.36914e-05
-0.0146993
1.03253e-05
-0.0146994
6.90985e-06
-0.0146994
3.46292e-06
-0.0146995
-0.0146995
2.15622e-05
-0.0146962
-2.01219e-05
2.26062e-05
-0.0146964
2.32551e-05
-0.0146965
2.35255e-05
-0.0146966
2.34457e-05
-0.0146967
2.30456e-05
-0.0146968
2.23575e-05
-0.0146969
2.14143e-05
-0.014697
2.02492e-05
-0.0146971
1.88937e-05
-0.0146972
1.7377e-05
-0.0146972
1.57259e-05
-0.0146973
1.39642e-05
-0.0146973
1.2113e-05
-0.0146973
1.01907e-05
-0.0146973
8.21303e-06
-0.0146974
6.19379e-06
-0.0146974
4.14514e-06
-0.0146974
2.07747e-06
-0.0146974
-0.0146974
7.20113e-06
-6.72325e-06
7.54952e-06
7.76649e-06
7.85546e-06
7.82759e-06
7.6929e-06
7.46203e-06
7.14644e-06
6.75684e-06
6.30384e-06
5.79725e-06
5.24596e-06
4.65789e-06
4.04019e-06
3.39882e-06
2.7391e-06
2.06563e-06
1.38243e-06
6.92586e-07
-0.00859949
-0.00146645
-0.00882092
-0.0013545
-0.00903642
-0.00124257
-0.00924571
-0.00113679
-0.00944823
-0.00103914
-0.00964346
-0.00094986
-0.00983111
-0.000868428
-0.0100111
-0.000794175
-0.0101834
-0.000726428
-0.0103484
-0.000664554
-0.0105062
-0.000607974
-0.0106572
-0.000556165
-0.0108018
-0.000508654
-0.0109402
-0.000465015
-0.0110729
-0.000424868
-0.0112002
-0.00038787
-0.0113225
-0.000353711
-0.0114401
-0.000322114
-0.0115533
-0.000292831
-0.0116624
-0.000265637
-0.0117676
-0.000240329
-0.0118692
-0.000216724
-0.0119675
-0.000194656
-0.0120625
-0.000173974
-0.0121546
-0.000154542
-0.0122439
-0.000136233
-0.0123305
-0.000118933
-0.0124145
-0.000102536
-0.0124962
-8.69441e-05
-0.0125756
-7.20756e-05
-0.0126528
-5.78499e-05
-0.0127278
-4.41741e-05
-0.0128008
-3.09877e-05
-0.0128719
-1.8227e-05
-0.012941
-5.84338e-06
-0.0130081
6.2907e-06
-0.0130735
1.81862e-05
-0.0131369
2.98885e-05
-0.0131985
4.14749e-05
5.30142e-05
-0.00946409
-0.0012398
-0.00968125
-0.00113734
-0.00988819
-0.00103563
-0.0100847
-0.000940325
-0.0102708
-0.00085303
-0.0104469
-0.000773743
-0.0106134
-0.000701866
-0.0107709
-0.000636676
-0.0109199
-0.000577475
-0.0110608
-0.000523628
-0.0111942
-0.000474563
-0.0113206
-0.000429775
-0.0114405
-0.000388813
-0.0115542
-0.000351279
-0.0116623
-0.000316818
-0.011765
-0.000285114
-0.0118628
-0.000255888
-0.0119561
-0.000228889
-0.012045
-0.000203893
-0.0121299
-0.000180701
-0.0122111
-0.000159134
-0.0122888
-0.000139032
-0.0123632
-0.000120248
-0.0124345
-0.000102652
-0.012503
-8.61244e-05
-0.0125686
-7.05534e-05
-0.0126317
-5.58508e-05
-0.0126923
-4.19313e-05
-0.0127506
-2.86703e-05
-0.0128066
-1.60344e-05
-0.0128605
-4.00912e-06
-0.0129123
7.65222e-06
-0.0129622
1.88527e-05
-0.01301
2.96618e-05
-0.013056
4.01586e-05
-0.0131002
5.04039e-05
-0.0131424
6.04438e-05
-0.0131828
7.03225e-05
-0.0132215
8.00894e-05
8.98027e-05
-0.0102363
-0.00101994
-0.0104435
-0.000930075
-0.010638
-0.000841199
-0.0108198
-0.000758495
-0.0109896
-0.000683247
-0.011148
-0.000615282
-0.0112959
-0.000553971
-0.011434
-0.000498604
-0.011563
-0.000448518
-0.0116835
-0.000403114
-0.0117962
-0.000361866
-0.0119016
-0.00032431
-0.0120004
-0.000290039
-0.012093
-0.000258696
-0.0121798
-0.000229967
-0.0122614
-0.000203574
-0.012338
-0.000179273
-0.01241
-0.000156846
-0.0124778
-0.000136101
-0.0125417
-0.000116867
-0.0126018
-9.89921e-05
-0.0126585
-8.23398e-05
-0.012712
-6.67863e-05
-0.0127624
-5.22208e-05
-0.01281
-3.85565e-05
-0.0128548
-2.57006e-05
-0.0128971
-1.35255e-05
-0.0129369
-2.17635e-06
-0.0129745
8.98124e-06
-0.01301
1.94507e-05
-0.0130435
2.94156e-05
-0.0130748
3.89814e-05
-0.0131041
4.81955e-05
-0.0131316
5.71026e-05
-0.0131572
6.57486e-05
-0.0131809
7.4176e-05
-0.0132029
8.24241e-05
-0.0132231
9.05306e-05
-0.0132416
9.85347e-05
0.000106487
-0.0109018
-0.00080659
-0.0111
-0.000731814
-0.0112832
-0.000658029
-0.0114519
-0.00058977
-0.0116072
-0.000528001
-0.01175
-0.000472457
-0.0118814
-0.000422537
-0.0120024
-0.000377604
-0.0121139
-0.000337071
-0.0122166
-0.000300419
-0.0123113
-0.000267194
-0.0123986
-0.000237002
-0.0124791
-0.000209498
-0.0125534
-0.000184381
-0.012622
-0.000161388
-0.0126853
-0.000140288
-0.0127437
-0.00012088
-0.0127975
-0.000102983
-0.0128472
-8.64412e-05
-0.012893
-7.11138e-05
-0.0129351
-5.68777e-05
-0.0129738
-4.36251e-05
-0.0130093
-3.12619e-05
-0.0130418
-1.97006e-05
-0.0130715
-8.85533e-06
-0.0130984
1.12216e-06
-0.013123
1.11521e-05
-0.0131455
2.03126e-05
-0.0131656
2.90078e-05
-0.0131834
3.72858e-05
-0.0131992
4.51943e-05
-0.013213
5.27786e-05
-0.0132248
6.00789e-05
-0.0132349
6.71324e-05
-0.0132431
7.3974e-05
-0.0132496
8.06369e-05
-0.0132543
8.71516e-05
-0.0132573
9.35472e-05
-0.0132586
9.98544e-05
0.000106115
-0.0114469
-0.000599148
-0.0116373
-0.000541432
-0.0118108
-0.000484536
-0.0119684
-0.00043214
-0.0121115
-0.000384919
-0.0122414
-0.000342598
-0.0123592
-0.000304669
-0.0124662
-0.000270611
-0.0125633
-0.000239953
-0.0126515
-0.000212281
-0.0127314
-0.000187238
-0.0128039
-0.000164513
-0.0128696
-0.000143837
-0.012929
-0.000124976
-0.0129827
-0.000107726
-0.013031
-9.19108e-05
-0.0130745
-7.73735e-05
-0.0131135
-6.39777e-05
-0.0131484
-5.16031e-05
-0.0131794
-4.01446e-05
-0.0132067
-2.95116e-05
-0.0132307
-1.96278e-05
-0.0132516
-1.04289e-05
-0.0132693
-1.97368e-06
-0.0132845
6.35217e-06
-0.0132974
1.40434e-05
-0.0133075
2.12796e-05
-0.0133153
2.81141e-05
-0.0133209
3.45941e-05
-0.0133244
4.07617e-05
-0.0133259
4.66529e-05
-0.0133254
5.23002e-05
-0.013323
5.77329e-05
-0.0133189
6.29786e-05
-0.013313
6.80633e-05
-0.0133053
7.30113e-05
-0.013296
7.78452e-05
-0.0132851
8.25864e-05
-0.0132725
8.72571e-05
9.18888e-05
-0.0118631
-0.000396539
-0.0120472
-0.000357314
-0.0122131
-0.000318651
-0.0123621
-0.000283159
-0.0124957
-0.000251261
-0.0126156
-0.000222739
-0.012723
-0.000197225
-0.0128193
-0.000174353
-0.0129054
-0.000153795
-0.0129825
-0.000135262
-0.0130512
-0.000118508
-0.0131124
-0.00010332
-0.0131667
-8.95137e-05
-0.0132148
-7.69287e-05
-0.0132571
-6.54267e-05
-0.0132941
-5.48871e-05
-0.0133262
-4.52044e-05
-0.0133539
-3.62866e-05
-0.0133775
-2.80533e-05
-0.0133972
-2.04353e-05
-0.0134133
-1.33729e-05
-0.0134261
-6.82393e-06
-0.0134357
-8.93387e-07
-0.0134427
5.06647e-06
-0.0134469
1.051e-05
-0.0134484
1.56014e-05
-0.0134475
2.03946e-05
-0.0134444
2.49259e-05
-0.013439
2.92245e-05
-0.0134315
3.33158e-05
-0.0134221
3.72227e-05
-0.0134108
4.09666e-05
-0.0133976
4.45669e-05
-0.0133827
4.80418e-05
-0.013366
5.14082e-05
-0.0133477
5.46824e-05
-0.0133277
5.78791e-05
-0.0133061
6.10122e-05
-0.013283
6.40962e-05
6.71524e-05
-0.0121439
-0.000197374
-0.0123237
-0.000177544
-0.0124843
-0.000157995
-0.0126274
-0.000140083
-0.0127546
-0.00012401
-0.0128677
-0.000109658
-0.0129681
-9.68341e-05
-0.0130571
-8.53493e-05
-0.0131359
-7.50346e-05
-0.0132054
-6.57433e-05
-0.0132665
-5.73493e-05
-0.0133201
-4.97441e-05
-0.0133668
-4.28341e-05
-0.0134072