/*--------------------------------*- C++ -*----------------------------------*\
  =========                 |
  \\      /  F ield         | OpenFOAM: The Open Source CFD Toolbox
   \\    /   O peration     | Website:  https://openfoam.org
    \\  /    A nd           | Version:  7
     \\/     M anipulation  |
\*---------------------------------------------------------------------------*/
FoamFile
{
    version     2.0;
    format      ascii;
    class       volVectorField;
    location    "20";
    object      U;
}
// * * * * * * * * * * * * * * * * * * * * * * * * * * * * * * * * * * * * * //

dimensions      [0 1 -1 0 0 0 0];

internalField   nonuniform List<vector> 
1360
(
(1.11747 0.307494 4.3643e-20)
(1.11609 0.28846 -1.60831e-20)
(1.11506 0.269491 -1.59609e-19)
(1.07021 0.377001 3.15601e-20)
(1.07199 0.352395 4.25934e-20)
(1.07365 0.329293 -2.18979e-19)
(1.07518 0.307958 -1.06922e-19)
(1.07641 0.288548 4.98443e-19)
(1.07825 0.269261 -1.91072e-19)
(0.998492 0.456912 1.62408e-20)
(1.0063 0.42793 2.7068e-19)
(1.01259 0.399749 8.58784e-20)
(1.01802 0.372946 -1.69763e-19)
(1.02297 0.347788 1.51263e-19)
(1.02766 0.32438 7.80577e-20)
(1.03209 0.302901 -2.98284e-19)
(1.03625 0.283491 6.14522e-20)
(1.04129 0.26453 -1.47665e-19)
(0.9036 0.506304 1.22268e-19)
(0.920962 0.476882 2.14533e-19)
(0.934865 0.446529 -5.64018e-19)
(0.946478 0.416639 -3.4906e-19)
(0.956583 0.388044 2.17801e-19)
(0.965688 0.361176 1.50885e-19)
(0.974111 0.336203 -2.03293e-19)
(0.982046 0.31314 2.03641e-19)
(0.989641 0.292007 -5.02953e-20)
(0.997185 0.273028 -4.02186e-19)
(1.00555 0.255865 5.44206e-19)
(0.773653 0.538116 5.84859e-19)
(0.805989 0.514768 -4.7143e-20)
(0.831931 0.486468 -1.86514e-19)
(0.853304 0.456025 7.89387e-19)
(0.871445 0.425342 -8.46824e-19)
(0.887292 0.395594 -4.71274e-20)
(0.901478 0.367417 7.78588e-19)
(0.914414 0.341088 -5.23219e-19)
(0.926344 0.316665 -7.04906e-20)
(0.93746 0.29402 9.07097e-20)
(0.948174 0.272756 8.07719e-19)
(0.958961 0.252521 -7.27181e-19)
(0.968037 0.234898 -1.59567e-19)
(0.599487 0.528682 1.17647e-19)
(0.652572 0.523926 1.59884e-19)
(0.695894 0.506782 -4.03362e-19)
(0.731697 0.482092 5.45482e-19)
(0.76181 0.45349 1.47769e-19)
(0.787655 0.423526 4.15237e-19)
(0.810281 0.393852 -1.42571e-18)
(0.830436 0.365436 4.97148e-19)
(0.848636 0.338759 -1.8794e-19)
(0.865225 0.313996 1.90779e-19)
(0.880425 0.291145 -6.56428e-19)
(0.894444 0.270069 6.68062e-19)
(0.90764 0.250436 -7.71683e-19)
(0.920135 0.231955 4.45491e-19)
(0.930123 0.215602 5.28406e-19)
(0.456663 0.475856 3.63313e-19)
(0.520878 0.485098 -6.04032e-19)
(0.575291 0.477767 8.78465e-19)
(0.621626 0.459675 -5.05281e-19)
(0.661434 0.435328 3.53928e-19)
(0.696035 0.408005 -9.20125e-19)
(0.726491 0.379933 7.91374e-19)
(0.753617 0.352499 -6.99497e-19)
(0.778022 0.326474 1.17245e-18)
(0.800148 0.302211 -3.05673e-19)
(0.820316 0.279804 -4.83868e-19)
(0.838752 0.25921 -3.92597e-19)
(0.855684 0.240286 -6.06734e-20)
(0.871429 0.222774 9.32359e-19)
(0.886046 0.206479 4.83806e-19)
(0.898181 0.19206 -6.5623e-19)
(0.38429 0.418206 2.06657e-19)
(0.448137 0.423944 6.00303e-19)
(0.504479 0.415481 -9.7987e-19)
(0.554154 0.398063 4.3803e-19)
(0.598061 0.375656 1.81004e-19)
(0.637061 0.351076 -1.13194e-18)
(0.671914 0.326182 4.11003e-19)
(0.703252 0.302092 -4.45798e-19)
(0.731584 0.279402 1.16459e-18)
(0.757315 0.258357 -7.72633e-19)
(0.780757 0.238999 -2.38565e-19)
(0.802162 0.221259 5.6361e-19)
(0.821772 0.205006 -7.96887e-19)
(0.839884 0.190036 5.52588e-19)
(0.856586 0.176189 5.0253e-19)
(0.870957 0.163833 -1.23598e-18)
(0.251727 0.323829 -1.74417e-19)
(0.32098 0.344036 -2.84352e-19)
(0.385024 0.347245 6.42632e-20)
(0.44349 0.339021 -3.26381e-20)
(0.496411 0.323758 4.32772e-19)
(0.544115 0.304717 1.07665e-19)
(0.58708 0.284166 -8.62079e-19)
(0.625826 0.263568 -8.84183e-20)
(0.660847 0.243781 3.23748e-19)
(0.692587 0.225241 4.04693e-19)
(0.72143 0.208111 -5.47714e-19)
(0.7477 0.192399 1.08915e-18)
(0.771669 0.178035 -8.11782e-19)
(0.793599 0.164904 9.72702e-19)
(0.813772 0.152854 -8.12987e-19)
(0.832318 0.141751 3.84441e-19)
(0.848696 0.131749 1.98133e-19)
(0.135146 0.209901 6.64955e-20)
(0.202903 0.241946 -6.6126e-20)
(0.270229 0.256134 1.21299e-19)
(0.334732 0.257703 -6.08671e-21)
(0.395147 0.250904 4.03645e-20)
(0.45085 0.239045 -5.14777e-19)
(0.501712 0.224552 1.82853e-19)
(0.547917 0.209084 4.78694e-19)
(0.589804 0.193694 -5.89694e-19)
(0.627772 0.178984 2.4192e-19)
(0.662224 0.165252 -2.28706e-19)
(0.693537 0.152598 6.56836e-19)
(0.722046 0.141015 -8.23843e-19)
(0.748048 0.130442 -6.35519e-20)
(0.771817 0.120792 8.08766e-19)
(0.793625 0.111959 -7.44313e-19)
(0.813642 0.103837 -1.33042e-19)
(0.83165 0.0964614 -2.64773e-19)
(0.104632 0.13006 -8.57778e-21)
(0.168667 0.149536 -1.0302e-19)
(0.234799 0.157937 2.50432e-19)
(0.299764 0.158575 -5.82935e-20)
(0.361655 0.154111 -1.03028e-19)
(0.419383 0.146603 2.27539e-20)
(0.472502 0.137543 -4.97892e-19)
(0.520995 0.12794 6.48233e-19)
(0.565083 0.11843 1.05895e-19)
(0.605106 0.109371 -2.26034e-19)
(0.641442 0.100932 -7.57609e-21)
(0.674466 0.0931703 2.53606e-19)
(0.704526 0.086074 4.40727e-20)
(0.731935 0.0796024 1.62135e-19)
(0.756977 0.073702 1.25854e-19)
(0.779916 0.0683094 -3.82382e-19)
(0.800953 0.0633573 9.40182e-20)
(0.820105 0.0588332 -2.23738e-19)
(0.088873 0.044052 7.603e-20)
(0.151033 0.0505846 1.11566e-20)
(0.216596 0.0533652 1.41213e-19)
(0.281842 0.0535256 -1.15702e-19)
(0.344525 0.0519725 6.99747e-20)
(0.403317 0.0494033 -2.6613e-20)
(0.457611 0.0463214 -1.00891e-19)
(0.507286 0.0430665 1.57727e-19)
(0.552508 0.0398501 -7.49542e-20)
(0.593584 0.0367908 -8.98965e-20)
(0.630885 0.0339445 2.18218e-20)
(0.664785 0.0313285 -7.24328e-20)
(0.695638 0.0289384 3.81447e-20)
(0.723767 0.0267596 -5.56711e-20)
(0.749459 0.0247741 2.18911e-19)
(0.772975 0.022961 -7.2899e-20)
(0.794533 0.0212968 -2.49753e-20)
(0.814276 0.0197717 1.22541e-19)
(1.11673 0.237963 9.90878e-20)
(1.12033 0.211136 2.30558e-20)
(1.12289 0.190371 2.24022e-20)
(1.12464 0.171343 -6.78624e-20)
(1.12522 0.154259 -1.48943e-20)
(1.12489 0.138799 6.82515e-20)
(1.1239 0.124682 -3.64675e-20)
(1.12246 0.111721 9.31282e-21)
(1.12073 0.0997559 -5.18212e-20)
(1.11884 0.088647 6.69772e-20)
(1.1169 0.0782727 4.06334e-22)
(1.11498 0.0685262 -2.37196e-21)
(1.11316 0.0593136 -1.80696e-20)
(1.11148 0.0505512 1.64576e-20)
(1.11 0.0421634 -6.62526e-21)
(1.10874 0.0340818 -1.58786e-20)
(1.10772 0.0262446 -1.03885e-20)
(1.10697 0.0185916 1.02158e-20)
(1.10649 0.0110524 3.65245e-21)
(1.10627 0.00360725 -2.64276e-21)
(1.08489 0.236811 6.75371e-20)
(1.09385 0.211226 -7.01756e-20)
(1.10006 0.191677 -2.95415e-20)
(1.10471 0.173221 1.94611e-20)
(1.10766 0.156374 -5.88682e-21)
(1.10929 0.140961 3.95384e-20)
(1.10992 0.12678 -1.10823e-20)
(1.10982 0.113693 1.10015e-20)
(1.10918 0.101568 -1.9219e-20)
(1.10818 0.0902845 2.82588e-20)
(1.10696 0.0797316 4.28691e-20)
(1.10563 0.0698089 -5.34976e-20)
(1.10428 0.0604256 7.03148e-21)
(1.10298 0.0514992 1.55859e-20)
(1.10179 0.0429543 -8.62891e-21)
(1.10076 0.034722 -2.20005e-21)
(1.09991 0.0267389 1.64905e-21)
(1.09928 0.0189429 -7.73125e-21)
(1.09888 0.0112645 3.82614e-21)
(1.0987 0.00368373 1.24213e-21)
(1.05248 0.233145 7.9333e-20)
(1.06585 0.209503 2.72894e-19)
(1.07549 0.191465 -3.43945e-19)
(1.08323 0.173835 1.97109e-19)
(1.08891 0.15741 -9.88266e-20)
(1.09285 0.142219 3.74544e-20)
(1.09539 0.128133 -1.69341e-20)
(1.09685 0.115057 3.37806e-20)
(1.09746 0.102888 -6.97217e-20)
(1.09747 0.0915248 9.5709e-20)
(1.09705 0.0808705 -5.47157e-20)
(1.09636 0.0708342 2.2135e-20)
(1.09551 0.0613311 -8.30886e-20)
(1.0946 0.0522827 7.1766e-20)
(1.09371 0.043616 -2.63288e-20)
(1.0929 0.0352632 -8.63916e-21)
(1.09222 0.0271614 3.86387e-21)
(1.09169 0.0192483 -5.305e-21)
(1.09135 0.0114586 1.77399e-20)
(1.09119 0.0037654 -3.54857e-21)
(1.02007 0.229274 -1.91006e-19)
(1.03794 0.206569 -6.29083e-21)
(1.05167 0.189431 4.37564e-19)
(1.06265 0.172716 -3.74282e-19)
(1.07102 0.156935 2.67936e-19)
(1.07717 0.142228 -1.4764e-19)
(1.08151 0.128479 7.50897e-20)
(1.08442 0.115616 -5.27674e-20)
(1.08621 0.103566 1.16563e-20)
(1.08717 0.0922534 3.83336e-20)
(1.0875 0.0816007 1.61301e-22)
(1.08741 0.0715323 -1.92055e-20)
(1.08703 0.0619745 -2.31688e-20)
(1.08649 0.0528569 1.8256e-20)
(1.08588 0.0441122 -2.28256e-20)
(1.08528 0.0356764 1.15973e-20)
(1.08473 0.0274888 -2.15086e-11)
(1.0843 0.01949 2.13312e-11)
(1.084 0.011621 -1.30331e-20)
(1.08384 0.00384413 7.54713e-21)
(1.00295 0.226975 2.43196e-27)
(1.02441 0.203214 -2.43576e-27)
(1.04009 0.186456 0)
(1.05203 0.170811 0)
(1.06117 0.155791 0)
(1.06802 0.141625 0)
(1.07299 0.128257 0)
(1.07646 0.115649 0)
(1.07874 0.10376 0)
(1.08011 0.0925404 0)
(1.08081 0.081932 1.1872e-27)
(1.08102 0.0718739 -1.18689e-27)
(1.08089 0.0623035 2.24091e-11)
(1.08055 0.0531583 -2.24051e-11)
(1.0801 0.0443767 0)
(1.07962 0.0358986 0)
(1.07917 0.0276662 -2.10341e-11)
(1.07879 0.0196226 2.10335e-11)
(1.07851 0.0117125 0)
(1.07836 0.00389145 0)
(0.996419 0.212944 -9.42677e-28)
(1.01717 0.193098 9.44855e-28)
(1.03276 0.178323 7.08754e-27)
(1.04492 0.164163 -7.23219e-27)
(1.05431 0.150339 -6.42431e-28)
(1.06143 0.137145 6.42431e-28)
(1.0667 0.124571 -3.01062e-27)
(1.07047 0.112613 -3.02747e-27)
(1.07305 0.101258 0)
(1.07472 0.0904782 0)
(1.07568 0.080234 0)
(1.07613 0.0704795 0)
(1.07623 0.0611642 2.36395e-11)
(1.07608 0.0522356 -2.36395e-11)
(1.0758 0.0436403 -4.17501e-28)
(1.07546 0.0353252 4.17501e-28)
(1.07511 0.027238 -2.21144e-11)
(1.07482 0.019327 2.21144e-11)
(1.0746 0.0115417 -2.36963e-27)
(1.07448 0.00383711 -1.98052e-27)
(0.990331 0.197851 0)
(1.01036 0.181742 0)
(1.02589 0.169169 -6.44437e-27)
(1.03821 0.156648 6.58901e-27)
(1.04782 0.144146 2.80802e-28)
(1.05519 0.13202 -2.80802e-28)
(1.06073 0.120319 3.01062e-27)
(1.06478 0.10908 3.02747e-27)
(1.06763 0.0983207 0)
(1.06955 0.0880361 0)
(1.07076 0.0782063 0)
(1.07143 0.0688011 0)
(1.07172 0.0597828 2.49312e-11)
(1.07175 0.0511095 -2.49312e-11)
(1.07162 0.0427364 -2.38922e-11)
(1.0714 0.0346178 2.38922e-11)
(1.07115 0.0267074 -2.32583e-11)
(1.07093 0.0189589 2.32583e-11)
(1.07076 0.0113263 1.24943e-27)
(1.07067 0.00376671 3.10779e-27)
(0.985733 0.183367 0)
(1.0048 0.170446 0)
(1.02003 0.159937 0)
(1.0323 0.149005 0)
(1.04197 0.137802 0)
(1.04948 0.126734 0)
(1.0552 0.115904 0)
(1.05945 0.105388 0)
(1.06251 0.0952319 0)
(1.06464 0.0854533 0)
(1.06605 0.0760505 0)
(1.06691 0.067008 0)
(1.06737 0.0583007 2.61805e-11)
(1.06755 0.0498966 -2.61805e-11)
(1.06755 0.0417597 -2.50603e-11)
(1.06744 0.0338513 2.50603e-11)
(1.06728 0.026131 -2.43731e-11)
(1.06713 0.0185579 2.43731e-11)
(1.067 0.0110907 0)
(1.06694 0.00368922 0)
(0.982387 0.169767 0)
(1.00034 0.159525 0)
(1.01506 0.150863 2.11018e-27)
(1.0271 0.141408 -2.11018e-27)
(1.03671 0.13144 0)
(1.04425 0.12139 0)
(1.05006 0.111409 0)
(1.05445 0.101604 0)
(1.05767 0.0920469 0)
(1.05997 0.0827753 0)
(1.06154 0.073804 0)
(1.06256 0.0651312 0)
(1.06317 0.0567432 2.73852e-11)
(1.06348 0.0486177 -2.73852e-11)
(1.0636 0.0407268 0)
(1.06358 0.0330385 0)
(1.06351 0.0255186 -2.54574e-11)
(1.06341 0.0181311 2.54574e-11)
(1.06333 0.0108392 9.29378e-28)
(1.06328 0.00360626 -9.35238e-28)
(0.98004 0.157091 -1.40229e-27)
(0.996797 0.149089 8.20344e-27)
(1.01087 0.142043 4.84128e-27)
(1.02255 0.133936 -5.39772e-27)
(1.03199 0.125119 0)
(1.03947 0.116037 -4.94041e-27)
(1.04531 0.106872 0)
(1.04977 0.0977603 -3.15895e-27)
(1.0531 0.0887924 -1.6527e-27)
(1.05552 0.0800241 1.6527e-27)
(1.05723 0.0714849 3.4766e-27)
(1.05838 0.0631854 -1.87629e-27)
(1.05912 0.0551223 2.85443e-11)
(1.05955 0.0472824 -2.85443e-11)
(1.05976 0.0396452 3.08136e-28)
(1.05984 0.0321854 1.03389e-27)
(1.05983 0.0248744 -2.651e-11)
(1.05979 0.0176814 2.651e-11)
(1.05974 0.0105737 -3.29056e-27)
(1.05971 0.00351853 1.98143e-27)
(0.978499 0.145322 -2.96667e-27)
(0.994044 0.139184 -3.82542e-27)
(1.00738 0.133536 -1.34961e-27)
(1.0186 0.12664 1.90605e-27)
(1.02777 0.118886 0)
(1.03513 0.110712 4.94041e-27)
(1.04093 0.102327 0)
(1.04541 0.0938832 3.15895e-27)
(1.0488 0.0854903 0)
(1.05131 0.0772179 0)
(1.05312 0.0691083 -2.7463e-27)
(1.05438 0.061183 1.14599e-27)
(1.05522 0.0534482 2.96574e-11)
(1.05575 0.0458987 -2.96574e-11)
(1.05605 0.0385214 -7.54538e-28)
(1.0562 0.031297 -5.87492e-28)
(1.05626 0.0242024 -2.753e-11)
(1.05626 0.0172114 2.753e-11)
(1.05625 0.0102958 2.32302e-27)
(1.05624 0.00342662 -1.0078e-27)
(0.977606 0.134419 0)
(0.991956 0.129828 0)
(1.0045 0.125377 -5.12656e-11)
(1.01519 0.119561 5.12656e-11)
(1.02403 0.112775 0)
(1.0312 0.105448 0)
(1.0369 0.0977989 -1.45295e-27)
(1.04135 0.0899961 1.45295e-27)
(1.04477 0.0821604 0)
(1.04733 0.0743734 0)
(1.04921 0.0666881 1.63631e-27)
(1.05056 0.0591355 -1.63631e-27)
(1.05148 0.0517302 3.07242e-11)
(1.05208 0.0444744 -3.07242e-11)
(1.05246 0.0373615 0)
(1.05268 0.0303781 0)
(1.05279 0.023506 0)
(1.05284 0.0167237 0)
(1.05285 0.0100071 1.04046e-27)
(1.05285 0.00333105 -1.04702e-27)
(0.977233 0.124334 0)
(0.990426 0.12102 0)
(1.00215 0.117589 -5.21629e-11)
(1.01227 0.112724 5.21629e-11)
(1.02073 0.106816 0)
(1.02764 0.10027 0)
(1.0332 0.0933128 2.17244e-28)
(1.03759 0.0861197 -2.17244e-28)
(1.04099 0.0788205 6.72916e-28)
(1.04358 0.0715058 -6.72916e-28)
(1.04551 0.0642372 0)
(1.0469 0.0570537 0)
(1.04789 0.0499773 0)
(1.04856 0.0430168 0)
(1.049 0.0361714 5.58391e-28)
(1.04927 0.0294331 -5.58391e-28)
(1.04943 0.0227886 -2.94692e-11)
(1.04951 0.0162206 2.94692e-11)
(1.04955 0.00970901 -1.56297e-28)
(1.04957 0.00323231 1.57282e-28)
(0.977272 0.115012 -1.25912e-10)
(0.98936 0.112748 -1.1803e-10)
(1.00027 0.110179 1.61584e-27)
(1.00978 0.106148 -1.61584e-27)
(1.01781 0.101029 0)
(1.02445 0.0952005 0)
(1.02982 0.0888884 0)
(1.03411 0.0822722 0)
(1.03746 0.0754866 0)
(1.04004 0.0686289 0)
(1.04199 0.0617674 0)
(1.04343 0.0549476 0)
(1.04446 0.0481978 0)
(1.04518 0.0415327 0)
(1.04567 0.0349567 -2.38151e-28)
(1.04599 0.0284667 2.38151e-28)
(1.04618 0.0220536 -3.03874e-11)
(1.0463 0.0157045 3.03874e-11)
(1.04636 0.00940288 5.76874e-28)
(1.04638 0.00313086 -5.80512e-28)
(0.977636 0.106401 1.25916e-10)
(0.988677 0.104995 1.1803e-10)
(0.998775 0.103149 -4.07214e-27)
(1.00767 0.0998449 4.07214e-27)
(1.01526 0.0954299 0)
(1.02157 0.0902555 0)
(1.02674 0.0845422 0)
(1.03089 0.0784688 0)
(1.03417 0.0721727 0)
(1.03672 0.0657551 0)
(1.03867 0.0592894 0)
(1.04012 0.0528264 0)
(1.04118 0.0463996 3.36475e-11)
(1.04194 0.0400285 -3.36475e-11)
(1.04247 0.0337225 5.92347e-28)
(1.04282 0.0274827 -5.92347e-28)
(1.04305 0.0213042 -5.75389e-28)
(1.04319 0.0151776 5.75389e-28)
(1.04327 0.00909006 0)
(1.0433 0.00302714 0)
(0.978251 0.098445 0)
(0.98831 0.0977364 0)
(0.997621 0.0964944 0)
(1.0059 0.0938184 0)
(1.01302 0.0900291 0)
(1.019 0.0854482 0)
(1.02393 0.0802876 0)
(1.02792 0.0747228 0)
(1.03111 0.0688908 0)
(1.0336 0.0628953 0)
(1.03553 0.0568129 -1.83272e-27)
(1.03698 0.0506985 1.83272e-27)
(1.03806 0.0445897 6.90619e-11)
(1.03884 0.0385104 -6.90619e-11)
(1.0394 0.0324739 -1.65406e-27)
(1.03978 0.0264852 1.65406e-27)
(1.04003 0.0205431 -3.21194e-11)
(1.04019 0.0146419 3.21194e-11)
(1.04028 0.00877177 -1.17209e-27)
(1.04032 0.00292156 1.17948e-27)
(0.979059 0.0910926 0)
(0.9882 0.0909457 0)
(0.996752 0.0902038 4.14371e-27)
(1.00442 0.0880688 -4.14371e-27)
(1.01107 0.0848325 -8.95623e-28)
(1.0167 0.0807876 8.95623e-28)
(1.02138 0.0761352 -2.36691e-28)
(1.02519 0.0710447 2.36691e-28)
(1.02826 0.0656514 -7.41544e-28)
(1.03068 0.0600591 7.41544e-28)
(1.03257 0.0543465 0)
(1.03401 0.0485714 0)
(1.03509 0.0427747 3.537e-11)
(1.03589 0.0369837 -3.537e-11)
(1.03646 0.0312152 0)
(1.03686 0.0254777 0)
(1.03713 0.0197733 -3.2933e-11)
(1.0373 0.0140993 3.2933e-11)
(1.03741 0.00844917 0)
(1.03745 0.00281451 0)
(0.98001 0.0842941 3.44863e-27)
(0.988297 0.0845953 -1.29596e-26)
(0.996124 0.0842643 0)
(1.0032 0.0825923 -1.31779e-27)
(1.00938 0.0798426 6.72374e-29)
(1.01465 0.07628 1.18345e-27)
(1.01906 0.0720928 -5.53166e-28)
(1.02268 0.0674434 5.53166e-28)
(1.02561 0.0624629 0)
(1.02795 0.0572546 2.8425e-28)
(1.02978 0.0518977 1.28938e-27)
(1.0312 0.0464518 9.19427e-28)
(1.03227 0.0409603 3.61655e-11)
(1.03307 0.0354533 -3.61655e-11)
(1.03365 0.0299506 -8.32961e-28)
(1.03406 0.0244636 -1.73894e-27)
(1.03434 0.0189973 -1.04955e-27)
(1.03453 0.0135518 8.09933e-28)
(1.03464 0.00812332 2.51774e-27)
(1.03469 0.00270634 2.0324e-28)
(0.981065 0.0780029 3.0102e-27)
(0.988559 0.0786568 6.48895e-27)
(0.995698 0.0786602 -7.04168e-28)
(1.0022 0.0773824 2.02196e-27)
(1.00792 0.0750591 -1.25069e-27)
(1.01282 0.0719286 0)
(1.01696 0.0681661 0)
(1.02038 0.0639253 0)
(1.02316 0.0593325 3.41344e-27)
(1.0254 0.0544887 -3.69769e-27)
(1.02717 0.0494729 -2.20881e-27)
(1.02854 0.0443456 0)
(1.02959 0.0391518 3.69184e-11)
(1.03038 0.0339239 -3.69184e-11)
(1.03096 0.0286839 -2.89284e-27)
(1.03138 0.0234459 5.46474e-27)
(1.03167 0.0182173 -3.44553e-11)
(1.03187 0.0130008 3.44553e-11)
(1.03198 0.00779523 -2.35501e-28)
(1.03204 0.00259739 -2.49987e-27)
(0.98219 0.0721753 0)
(0.98895 0.0731023 0)
(0.99544 0.0733747 -5.53099e-11)
(1.00139 0.0724303 5.53099e-11)
(1.00665 0.0704792 0)
(1.0112 0.0677347 0)
(1.01505 0.0643587 0)
(1.01826 0.0604954 0)
(1.0209 0.0562656 -7.81235e-28)
(1.02302 0.051767 7.81235e-28)
(1.02471 0.0470775 0)
(1.02604 0.0422577 0)
(1.02706 0.0373537 0)
(1.02783 0.0323992 0)
(1.02841 0.0274184 6.64829e-28)
(1.02883 0.0224273 -6.64829e-28)
(1.02912 0.0174355 -3.51645e-11)
(1.02932 0.012448 3.51645e-11)
(1.02944 0.00746579 0)
(1.0295 0.00248795 0)
(0.983358 0.066771 0)
(0.98944 0.0679045 0)
(0.995321 0.06839 -5.54713e-11)
(1.00074 0.0677259 5.54713e-11)
(1.00557 0.0660982 0)
(1.00976 0.0636974 0)
(1.01334 0.0606722 0)
(1.01633 0.0571571 0)
(1.0188 0.0532664 7.92531e-28)
(1.02081 0.049094 -7.92531e-28)
(1.02241 0.0447161 0)
(1.02368 0.0401925 0)
(1.02466 0.0355699 3.83008e-11)
(1.02541 0.0308829 -3.83008e-11)
(1.02598 0.0261572 0)
(1.02639 0.0214103 0)
(1.02668 0.0166539 0)
(1.02688 0.0118947 0)
(1.02701 0.00713582 -1.90294e-28)
(1.02706 0.00237829 1.91494e-28)
(0.984547 0.0617524 0)
(0.990005 0.0630369 -6.76056e-27)
(0.995314 0.0636883 0)
(1.00023 0.0632578 0)
(1.00464 0.0619101 5.944e-27)
(1.00849 0.0598146 0)
(1.01178 0.0571071 -8.03439e-27)
(1.01456 0.0539123 3.22352e-27)
(1.01686 0.0503378 -3.5641e-27)
(1.01875 0.0464733 3.5641e-27)
(1.02026 0.0423923 -8.36928e-11)
(1.02146 0.0381536 -8.13662e-11)
(1.0224 0.0338037 3.89325e-11)
(1.02313 0.0293779 3.86509e-11)
(1.02367 0.0249027 3.86585e-11)
(1.02407 0.020397 3.74464e-11)
(1.02436 0.015874 1.7764e-27)
(1.02456 0.0113421 -6.67464e-28)
(1.02468 0.00680604 3.63945e-27)
(1.02474 0.00226866 0)
(0.98574 0.0570852 0)
(0.990623 0.0584746 6.76056e-27)
(0.995398 0.0592513 1.43476e-27)
(0.999845 0.0590141 -1.43476e-27)
(1.00384 0.0579076 -5.944e-27)
(1.00736 0.0560826 0)
(1.01038 0.0536622 4.2244e-27)
(1.01294 0.0507618 5.86466e-28)
(1.01508 0.0474818 0)
(1.01683 0.0439073 0)
(1.01825 0.0401089 8.36928e-11)
(1.01938 0.0361439 8.13662e-11)
(1.02028 0.032058 0)
(1.02096 0.0278867 -7.75834e-11)
(1.02149 0.0236571 -1.14155e-10)
(1.02188 0.0193893 3.80503e-11)
(1.02216 0.0150974 0)
(1.02235 0.0107913 -1.10894e-27)
(1.02247 0.00647709 -3.44243e-27)
(1.02253 0.00215928 -1.98256e-28)
(0.986922 0.0527377 0)
(0.991276 0.0541935 0)
(0.995555 0.0550616 0)
(0.999556 0.0549824 0)
(1.00317 0.0540829 0)
(1.00636 0.0524967 0)
(1.00912 0.0503356 -2.57133e-28)
(1.01147 0.0477053 2.57133e-28)
(1.01344 0.0446993 0)
(1.01506 0.0413977 0)
(1.01638 0.037868 7.74271e-28)
(1.01744 0.0341655 -7.74271e-28)
(1.01827 0.0303349 0)
(1.01893 0.0264114 0)
(1.01942 0.0224225 -7.10605e-28)
(1.01979 0.0183887 7.10605e-28)
(1.02006 0.0143253 -3.76619e-11)
(1.02025 0.0102431 3.76619e-11)
(1.02037 0.00614954 -2.00113e-28)
(1.02042 0.00205032 2.01374e-28)
(0.988082 0.0486808 0)
(0.99195 0.0501713 0)
(0.995767 0.0511018 7.12576e-28)
(0.99935 0.05115 -7.12576e-28)
(1.0026 0.0504273 0)
(1.00548 0.0490517 0)
(1.00799 0.0471242 3.30491e-27)
(1.01013 0.0447415 -3.30491e-27)
(1.01193 0.0419902 3.68194e-27)
(1.01342 0.0389454 -3.68194e-27)
(1.01464 0.035671 0)
(1.01562 0.0322201 0)
(1.0164 0.0286362 4.06035e-11)
(1.01701 0.0249538 -4.06035e-11)
(1.01748 0.0212003 3.19791e-27)
(1.01783 0.0173967 -3.19791e-27)
(1.01808 0.0135588 -3.82035e-11)
(1.01826 0.00969838 3.82035e-11)
(1.01837 0.00582385 2.5904e-27)
(1.01843 0.00194194 -2.60673e-27)
(0.989209 0.0448877 5.46341e-27)
(0.992632 0.0463866 1.43631e-27)
(0.996021 0.0473552 -5.80242e-27)
(0.999213 0.0475045 4.81967e-27)
(1.00212 0.0469318 0)
(1.00471 0.0457414 5.4905e-27)
(1.00696 0.0440243 -4.62205e-27)
(1.0089 0.0418685 0)
(1.01054 0.0393538 1.40392e-27)
(1.0119 0.0365505 1.65598e-27)
(1.01302 0.0335186 0)
(1.01392 0.0303089 -1.5712e-27)
(1.01464 0.026963 8.21795e-11)
(1.01521 0.023515 -8.21795e-11)
(1.01564 0.0199916 0)
(1.01597 0.0164141 3.96259e-27)
(1.01621 0.0127987 -3.87131e-11)
(1.01638 0.00915777 3.87131e-11)
(1.01649 0.00550042 -3.60646e-27)
(1.01654 0.00183429 -3.86983e-27)
(0.990297 0.0413339 -7.99173e-27)
(0.993312 0.0428195 1.09597e-27)
(0.996305 0.0438058 5.02852e-27)
(0.999133 0.0440334 -4.04576e-27)
(1.00172 0.0435872 0)
(1.00403 0.0425594 -5.4905e-27)
(1.00605 0.0410315 4.62205e-27)
(1.00779 0.0390836 0)
(1.00927 0.0367889 -1.40392e-27)
(1.0105 0.0342125 -1.65598e-27)
(1.01151 0.031411 0)
(1.01234 0.0284323 1.5712e-27)
(1.013 0.0253163 4.15425e-11)
(1.01352 0.0220959 -4.15425e-11)
(1.01393 0.0187975 9.64054e-28)
(1.01423 0.015442 -4.92665e-27)
(1.01446 0.0120458 -3.91911e-11)
(1.01461 0.00862179 3.91911e-11)
(1.01471 0.00517957 3.60646e-27)
(1.01476 0.00172747 3.86983e-27)
(0.99134 0.0379968 0)
(0.993981 0.0394514 0)
(0.99661 0.0404381 -5.57408e-11)
(0.9991 0.0407244 5.57408e-11)
(1.00138 0.0403841 0)
(1.00343 0.0394987 0)
(1.00523 0.038141 0)
(1.00678 0.0363835 0)
(1.0081 0.0342933 -8.49963e-28)
(1.00921 0.0319306 8.49963e-28)
(1.01013 0.0293479 -8.06656e-28)
(1.01087 0.0265905 8.06656e-28)
(1.01147 0.0236964 0)
(1.01195 0.0206972 0)
(1.01232 0.0176185 7.46391e-28)
(1.0126 0.0144808 -7.46391e-28)
(1.0128 0.0113006 0)
(1.01295 0.00809081 0)
(1.01304 0.00486154 0)
(1.01309 0.00162155 0)
(0.992333 0.0348558 0)
(0.994632 0.0362647 0)
(0.996926 0.0372374 -5.5713e-11)
(0.999103 0.0375655 5.5713e-11)
(1.0011 0.0373132 0)
(1.0029 0.0365522 0)
(1.00449 0.0353476 0)
(1.00586 0.0337648 0)
(1.00704 0.0318648 3.7979e-27)
(1.00803 0.029703 -3.7979e-27)
(1.00884 0.0273284 0)
(1.00951 0.0247832 0)
(1.01005 0.0221034 4.2352e-11)
(1.01048 0.0193191 -4.2352e-11)
(1.01082 0.0164549 -3.34627e-27)
(1.01107 0.013531 3.34627e-27)
(1.01126 0.0105634 0)
(1.01139 0.00756512 0)
(1.01148 0.00454651 -2.71842e-27)
(1.01152 0.00151661 2.73556e-27)
(0.993272 0.0318917 1.08285e-27)
(0.99526 0.0332431 -1.08452e-27)
(0.997246 0.0341897 0)
(0.999135 0.0345451 0)
(1.00087 0.0343651 0)
(1.00244 0.0337127 0)
(1.00383 0.0326458 -4.70047e-27)
(1.00504 0.0312232 0)
(1.00607 0.0295004 4.67805e-11)
(1.00694 0.027528 -4.67805e-11)
(1.00767 0.0253513 -1.06975e-27)
(1.00826 0.0230097 -5.55745e-28)
(1.00874 0.020537 8.54216e-11)
(1.00912 0.0179615 -8.54216e-11)
(1.00942 0.015307 -1.53839e-27)
(1.00965 0.0125926 0)
(1.00982 0.00983434 -4.04408e-11)
(1.00994 0.00704489 4.04408e-11)
(1.01002 0.00423459 0)
(1.01005 0.00141268 0)
(0.994155 0.0290869 1.4094e-27)
(0.99586 0.0303711 -1.41154e-27)
(0.997564 0.0312815 0)
(0.999188 0.031652 0)
(1.00069 0.0315305 0)
(1.00204 0.0309726 0)
(1.00324 0.0300297 4.70047e-27)
(1.00429 0.0287544 0)
(1.00519 0.0271968 4.70335e-11)
(1.00595 0.0254032 -4.70335e-11)
(1.00658 0.0234152 0)
(1.00711 0.0212691 1.6255e-27)
(1.00753 0.0189965 4.30403e-11)
(1.00787 0.0166242 -4.30403e-11)
(1.00813 0.0141744 5.36647e-28)
(1.00834 0.0116658 1.00175e-27)
(1.00849 0.00911357 -4.07977e-11)
(1.00859 0.00653019 4.07977e-11)
(1.00866 0.00392585 -4.99317e-28)
(1.00869 0.00130978 5.02466e-28)
(0.994979 0.026425 0)
(0.996427 0.0276342 0)
(0.997876 0.0285002 0)
(0.999257 0.0288751 0)
(1.00053 0.0288003 0)
(1.00169 0.0283246 0)
(1.00272 0.0274935 0)
(1.00362 0.0263538 0)
(1.00439 0.0249507 4.72616e-11)
(1.00505 0.0233261 -4.72616e-11)
(1.0056 0.021518 0)
(1.00605 0.01956 0)
(1.00642 0.0174811 4.33413e-11)
(1.00671 0.0153065 -4.33413e-11)
(1.00694 0.0130571 0)
(1.00712 0.0107504 0)
(1.00725 0.00840099 -4.11256e-11)
(1.00735 0.00602098 4.11256e-11)
(1.00741 0.00362026 -2.79282e-27)
(1.00744 0.00120791 2.81042e-27)
(0.995744 0.023891 0)
(0.99696 0.0250188 0)
(0.998175 0.0258334 0)
(0.999336 0.0262038 0)
(1.00041 0.0261655 0)
(1.00139 0.0257613 0)
(1.00226 0.025031 0)
(1.00302 0.0240165 0)
(1.00368 0.0227581 4.74663e-11)
(1.00423 0.0212937 -4.74663e-11)
(1.0047 0.0196577 0)
(1.00509 0.0178808 0)
(1.0054 0.0159897 8.72296e-11)
(1.00566 0.0140077 -8.72296e-11)
(1.00585 0.0119543 0)
(1.00601 0.00984595 0)
(1.00612 0.00769639 -4.1425e-11)
(1.0062 0.00551716 4.1425e-11)
(1.00625 0.00331778 2.20538e-28)
(1.00628 0.00110705 -2.21929e-28)
(0.996447 0.0214707 6.31252e-27)
(0.997454 0.0225122 6.55706e-27)
(0.99846 0.0232697 -5.62214e-27)
(0.999421 0.0236279 0)
(1.00031 0.0236173 0)
(1.00112 0.023275 -1.04127e-10)
(1.00185 0.0226362 -1.01494e-10)
(1.00248 0.0217376 -9.89691e-11)
(1.00303 0.0206152 -9.65779e-11)
(1.0035 0.019303 0)
(1.00389 0.0178319 9.22715e-11)
(1.00422 0.0162297 1.8077e-10)
(1.00448 0.014521 1.32552e-10)
(1.00469 0.0127269 -4.38615e-11)
(1.00486 0.0108655 4.0191e-27)
(1.00499 0.00895208 4.24454e-27)
(1.00509 0.00699947 -1.25658e-10)
(1.00516 0.00501854 -4.16144e-11)
(1.0052 0.0030183 -8.28758e-11)
(1.00522 0.00100718 -8.31795e-11)
(0.997088 0.0191511 -6.31272e-27)
(0.997908 0.0201021 -6.55706e-27)
(0.998726 0.0207978 5.62214e-27)
(0.999508 0.0211376 0)
(1.00023 0.021147 0)
(1.0009 0.0208585 1.04127e-10)
(1.00149 0.0203027 1.01494e-10)
(1.00201 0.0195119 9.89691e-11)
(1.00246 0.0185178 9.65779e-11)
(1.00284 0.0173505 -1.14866e-27)
(1.00316 0.0160379 -9.22715e-11)
(1.00343 0.0146048 -1.8077e-10)
(1.00365 0.0130734 -8.86909e-11)
(1.00383 0.0114629 1.3208e-27)
(1.00397 0.0097898 -2.99078e-27)
(1.00407 0.00806816 -5.27287e-27)
(1.00416 0.00630982 4.2022e-11)
(1.00421 0.00452486 1.25251e-10)
(1.00425 0.00272169 8.28758e-11)
(1.00427 0.000908242 8.31795e-11)
(0.997667 0.0169196 0)
(0.99832 0.0177772 0)
(0.998972 0.0184072 0)
(0.999594 0.018723 0)
(1.00017 0.0187462 0)
(1.0007 0.0185045 0)
(1.00117 0.0180245 -3.45093e-27)
(1.00159 0.0173342 3.45093e-27)
(1.00195 0.0164615 0)
(1.00226 0.0154329 0)
(1.00252 0.0142729 3.75178e-27)
(1.00273 0.0130037 -3.75178e-27)
(1.00291 0.0116451 3.61629e-27)
(1.00305 0.0102143 -3.61629e-27)
(1.00317 0.00872624 3.51281e-27)
(1.00325 0.00719351 -3.51281e-27)
(1.00332 0.00562695 -4.21566e-11)
(1.00336 0.00403579 4.21566e-11)
(1.00339 0.00242775 0)
(1.00341 0.000810182 0)
(0.998183 0.0147648 0)
(0.99869 0.0155263 0)
(0.999194 0.0160875 6.58644e-28)
(0.999676 0.0163751 -6.58644e-28)
(1.00012 0.0164064 0)
(1.00053 0.0162055 0)
(1.0009 0.0157951 2.70932e-28)
(1.00122 0.0151992 -2.70932e-28)
(1.00151 0.014442 0)
(1.00175 0.0135465 0)
(1.00195 0.0125341 0)
(1.00212 0.0114243 0)
(1.00226 0.0102345 4.44478e-11)
(1.00237 0.00897989 -4.44478e-11)
(1.00246 0.00767373 0)
(1.00252 0.00632731 0)
(1.00258 0.00495028 -8.46924e-11)
(1.00261 0.00355095 8.46924e-11)
(1.00264 0.00213626 2.25573e-28)
(1.00265 0.000712928 -2.26995e-28)
(0.998636 0.0126756 -1.16491e-10)
(0.999015 0.0133391 1.14347e-10)
(0.999392 0.013829 1.11929e-10)
(0.999752 0.0140845 6.58254e-28)
(1.00009 0.0141196 0)
(1.00039 0.0139545 0)
(1.00067 0.0136083 0)
(1.00091 0.0131015 0)
(1.00112 0.0124547 0)
(1.0013 0.0116875 -4.46284e-27)
(1.00146 0.0108183 0)
(1.00158 0.00986391 -1.68628e-27)
(1.00169 0.0088394 8.91877e-11)
(1.00177 0.00775796 -8.91877e-11)
(1.00184 0.00663109 0)
(1.00189 0.00546868 0)
(1.00193 0.00427918 -4.25092e-11)
(1.00196 0.00306991 -4.23301e-11)
(1.00197 0.00184699 -8.44167e-11)
(1.00198 0.000616399 2.27893e-28)
(0.999024 0.0106414 1.16495e-10)
(0.999295 0.0112054 -1.14347e-10)
(0.999563 0.0116221 -1.11929e-10)
(0.99982 0.0118426 0)
(1.00006 0.0118778 0)
(1.00028 0.0117442 0)
(1.00047 0.0114579 0)
(1.00065 0.0110358 0)
(1.0008 0.010495 -2.35027e-27)
(1.00093 0.00985206 6.81311e-27)
(1.00104 0.00912235 -3.78348e-27)
(1.00113 0.00832004 5.46976e-27)
(1.0012 0.00745783 4.47161e-11)
(1.00126 0.00654691 -4.47161e-11)
(1.00131 0.00559704 0)
(1.00135 0.00461664 0)
(1.00138 0.00361293 -4.2646e-11)
(1.0014 0.0025922 1.27485e-10)
(1.00141 0.00155966 8.44167e-11)
(1.00142 0.000520508 0)
(0.999349 0.00865184 -1.05932e-27)
(0.999529 0.00911527 1.06061e-27)
(0.999708 0.00945746 0)
(0.999879 0.00964066 0)
(1.00004 0.00967289 0)
(1.00018 0.0095676 0)
(1.00031 0.00933758 0)
(1.00043 0.00899655 0)
(1.00053 0.00855833 0)
(1.00062 0.0080363 0)
(1.00069 0.00744301 0)
(1.00075 0.00678999 0)
(1.0008 0.0060876 4.4815e-11)
(1.00084 0.00534501 -4.4815e-11)
(1.00087 0.00457023 -8.02022e-28)
(1.0009 0.00377017 8.02022e-28)
(1.00092 0.0029508 -8.55139e-11)
(1.00093 0.0021173 8.55139e-11)
(1.00094 0.00127397 2.27822e-28)
(1.00094 0.000425161 -2.29258e-28)
(0.999609 0.00669746 0)
(0.999717 0.0070594 0)
(0.999824 0.00732613 0)
(0.999927 0.00747024 0)
(1.00002 0.00749729 0)
(1.00011 0.00741764 0)
(1.00019 0.00724115 0)
(1.00026 0.00697837 0)
(1.00032 0.00663996 0)
(1.00037 0.00623624 0)
(1.00041 0.00577695 8.55206e-28)
(1.00045 0.00527101 -8.55206e-28)
(1.00048 0.00472647 4.48909e-11)
(1.0005 0.00415048 -4.48909e-11)
(1.00052 0.00354925 8.03527e-28)
(1.00054 0.0029282 -8.03527e-28)
(1.00055 0.00229199 -8.56843e-11)
(1.00056 0.00164469 8.56843e-11)
(1.00056 0.00098963 -2.28289e-28)
(1.00056 0.000330263 2.29728e-28)
(0.999805 0.00476896 0)
(0.999858 0.00502859 0)
(0.999912 0.00521934 -5.52756e-11)
(0.999963 0.00532306 5.52756e-11)
(1.00001 0.00534328 0)
(1.00005 0.00528739 -6.98316e-27)
(1.00009 0.00516241 3.57746e-28)
(1.00013 0.00497582 3.70336e-27)
(1.00016 0.00473519 -2.75442e-27)
(1.00018 0.00444787 0)
(1.00021 0.00412079 2.64351e-27)
(1.00022 0.0037603 0)
(1.00024 0.00337216 0)
(1.00025 0.00296146 -2.51027e-27)
(1.00026 0.00253266 0)
(1.00027 0.00208962 3.21929e-27)
(1.00027 0.00163569 -4.29009e-11)
(1.00028 0.00117379 4.29009e-11)
(1.00028 0.000706296 3.15028e-27)
(1.00028 0.000235701 2.98755e-28)
(0.999932 0.00285723 -1.38087e-27)
(0.99995 0.00301365 1.38237e-27)