/*--------------------------------*- C++ -*----------------------------------*\
  =========                 |
  \\      /  F ield         | OpenFOAM: The Open Source CFD Toolbox
   \\    /   O peration     | Website:  https://openfoam.org
    \\  /    A nd           | Version:  7
     \\/     M anipulation  |
\*---------------------------------------------------------------------------*/
FoamFile
{
    version     2.0;
    format      ascii;
    class       surfaceScalarField;
    location    "30";
    object      phi;
}
// * * * * * * * * * * * * * * * * * * * * * * * * * * * * * * * * * * * * * //

dimensions      [0 3 -1 0 0 0 0];

internalField   nonuniform List<scalar> 
21496
(
-1.13931e-05
1.13931e-05
1.11544e-13
-3.73529e-05
2.59598e-05
1.88719e-13
-7.24052e-05
3.50523e-05
1.74461e-13
-0.000112223
3.98175e-05
1.3384e-13
-0.000153218
4.09955e-05
6.13947e-14
-0.000192341
3.91229e-05
-5.5169e-14
-0.000226933
3.45918e-05
-1.91739e-13
-0.00025461
2.7677e-05
-3.40234e-13
-0.000273174
1.85643e-05
-5.09295e-13
-0.000280551
7.37719e-06
-6.91013e-13
-0.000274755
-5.7959e-06
-8.8694e-13
-0.000253883
-2.08723e-05
-1.10402e-12
-0.000216143
-3.77404e-05
-1.34723e-12
-0.000159938
-5.62046e-05
-1.61991e-12
-8.40173e-05
-7.59209e-05
-1.92377e-12
1.22959e-05
-9.63133e-05
-2.25815e-12
0.000128788
-0.000116492
-2.62039e-12
0.000263952
-0.000135164
-3.00658e-12
0.000414297
-0.000150345
-3.41034e-12
-0.000158957
-3.82197e-12
0.000573254
-9.94042e-06
2.13335e-05
-3.2027e-05
4.80464e-05
-6.09599e-05
6.39852e-05
-9.24786e-05
7.13362e-05
-0.000122997
7.15143e-05
-0.00014942
6.55458e-05
-0.000169008
5.4179e-05
-0.000179267
3.79366e-05
-0.000177872
1.71687e-05
-0.000162597
-7.89771e-06
-0.000131287
-3.71051e-05
-8.18358e-05
-7.03239e-05
-1.22061e-05
-0.00010737
7.95098e-05
-0.00014792
0.000194969
-0.00019138
0.000335367
-0.000236711
0.000501103
-0.000282229
0.000691305
-0.000325366
0.000902981
-0.00036202
-0.0003855
0.00112952
-7.18439e-06
2.85179e-05
-2.18635e-05
6.27255e-05
-3.90384e-05
8.116e-05
-5.45589e-05
8.68568e-05
-6.48321e-05
8.17875e-05
-6.66687e-05
6.73824e-05
-5.71711e-05
4.46814e-05
-3.36413e-05
1.44068e-05
6.48895e-06
-2.29616e-05
6.57141e-05
-6.71229e-05
0.000146496
-0.000117887
0.000251279
-0.000175107
0.000382498
-0.000238589
0.000542555
-0.000307978
0.00073375
-0.000382575
0.00095812
-0.00046108
0.00121712
-0.000541227
0.00151103
-0.000619275
0.00183785
-0.000688841
-0.000738594
0.00219094
-3.37978e-06
3.18977e-05
-7.70404e-06
6.70498e-05
-8.3248e-06
8.17808e-05
-1.2122e-06
7.97442e-05
1.72554e-05
6.33199e-05
5.0405e-05
3.42328e-05
0.000101355
-6.26824e-06
0.000173074
-5.73121e-05
0.000268449
-0.000118337
0.000390312
-0.000188986
0.000541472
-0.000269047
0.000724736
-0.000358371
0.000942927
-0.00045678
0.00119889
-0.000563943
0.0014955
-0.000679179
0.00183556
-0.000801142
0.00222162
-0.000927286
0.00265534
-0.001053
0.00313615
-0.00116965
-0.00126018
0.00365774
1.18615e-06
3.07115e-05
9.48058e-06
5.87554e-05
2.92016e-05
6.20597e-05
6.42765e-05
4.46693e-05
0.000118377
9.21917e-06
0.00019499
-4.23803e-05
0.000297472
-0.00010875
0.000429089
-0.000188929
0.000593032
-0.00028228
0.000792437
-0.000388391
0.00103039
-0.000506996
0.00130991
-0.000637893
0.00163399
-0.000780858
0.00200558
-0.000935533
0.00242765
-0.00110125
0.00290321
-0.00127671
0.00343531
-0.00145938
0.00402658
-0.00164427
0.00467803
-0.00182111
-0.00196691
0.00538476
6.26854e-06
2.4443e-05
2.88242e-05
3.61997e-05
7.17074e-05
1.91765e-05
0.000138756
-2.23796e-05
0.000233683
-8.57071e-05
0.000360108
-0.000168806
0.000521573
-0.000270215
0.000721539
-0.000388894
0.000963371
-0.000524112
0.00125031
-0.000675336
0.00158546
-0.000842143
0.00197171
-0.00102414
0.00241173
-0.00122088
0.00290796
-0.00143177
0.00346266
-0.00165594
0.00407797
-0.00189202
0.00475615
-0.00213756
0.0054996
-0.00238772
0.00631043
-0.00263194
-0.00284397
0.00718749
1.17142e-05
1.27288e-05
4.97151e-05
-1.80115e-06
0.000117776
-4.88846e-05
0.000219619
-0.000124223
0.000358917
-0.000225004
0.000539289
-0.000349179
0.000764273
-0.000495198
0.00103727
-0.00066189
0.00136148
-0.000848326
0.00173985
-0.00105371
0.00217497
-0.00127726
0.002669
-0.00151817
0.0032236
-0.00177548
0.00383987
-0.00204804
0.00451836
-0.00233443
0.00525913
-0.00263279
0.00606209
-0.00294053
0.0069276
-0.00325323
0.00785782
-0.00356216
-0.00384553
0.00885938
1.74712e-05
-4.74239e-06
7.17821e-05
-5.61121e-05
0.000166404
-0.000143506
0.000304775
-0.000262594
0.000490324
-0.000410554
0.00072639
-0.000585245
0.00101613
-0.000784936
0.0013624
-0.00100817
0.00176769
-0.00125361
0.00223395
-0.00151996
0.00276253
-0.00180584
0.00335408
-0.00210972
0.00400848
-0.00242987
0.00472477
-0.00276434
0.00550122
-0.00311087
0.00633532
-0.00346689
0.00722408
-0.00382928
0.00816415
-0.0041933
0.00915279
-0.00455079
-0.00489618
0.0102034
2.35178e-05
-2.82602e-05
9.47944e-05
-0.000127389
0.000216713
-0.000265425
0.000392162
-0.000438042
0.000623944
-0.000642336
0.000914629
-0.00087593
0.00126639
-0.00113669
0.00168083
-0.00142261
0.00215887
-0.00173165
0.00270057
-0.00206167
0.00330511
-0.00241038
0.0039707
-0.00277531
0.00469464
-0.00315382
0.0054735
-0.00354319
0.00630327
-0.00394065
0.00717989
-0.00434351
0.00809986
-0.00474925
0.0090622
-0.00515564
0.0100738
-0.00556237
-0.00597504
0.0111526
2.98269e-05
-5.80871e-05
0.000118364
-0.000215925
0.000267492
-0.000414554
0.000479065
-0.000649615
0.000754691
-0.000917962
0.00109549
-0.00121672
0.00150184
-0.00154305
0.0019732
-0.00189398
0.00250796
-0.0022664
0.00310328
-0.00265699
0.00375515
-0.00306225
0.00445837
-0.00347853
0.00520675
-0.00390219
0.00599321
-0.00432966
0.00681016
-0.00475759
0.00764967
-0.00518303
0.00850389
-0.00560347
0.00936537
-0.00601713
0.0102262
-0.00642324
-0.00681932
0.0110705
3.62641e-05
-9.43513e-05
0.000141782
-0.000321443
0.000316837
-0.000589609
0.00056161
-0.000894388
0.000875797
-0.00123215
0.00125827
-0.00159919
0.00170679
-0.00199157
0.00221785
-0.00240503
0.00278654
-0.00283509
0.00340661
-0.00327706
0.00407057
-0.00372621
0.00476994
-0.0041779
0.00549552
-0.00462778
0.00623783
-0.00507196
0.00698741
-0.00550717
0.00773523
-0.00593085
0.00847297
-0.0063412
0.00919294
-0.0067371
0.00988733
-0.00711764
-0.00747921
0.0105472
4.25607e-05
-0.000136912
0.000163896
-0.000442778
0.000361983
-0.000787696
0.000634602
-0.00116701
0.000978775
-0.00157632
0.00139037
-0.00201079
0.00186386
-0.00246506
0.00239224
-0.00293341
0.0029671
-0.00340996
0.00357889
-0.00388885
0.00421722
-0.00436454
0.00487135
-0.00483203
0.0055307
-0.00528713
0.00618534
-0.00572661
0.00682648
-0.00614832
0.0074468
-0.00655117
0.00804069
-0.00693508
0.00860429
-0.00730071
0.00913542
-0.00764877
-0.00797792
0.00963413
4.83154e-05
-0.000185227
0.000183152
-0.000577614
0.000399469
-0.00100401
0.000691946
-0.00145948
0.00105428
-0.00193865
0.0014788
-0.00243531
0.00195641
-0.00294266
0.00247664
-0.00345364
0.00302804
-0.00396136
0.00359862
-0.00445943
0.00417648
-0.0049424
0.0047504
-0.00540595
0.00531045
-0.00584717
0.00584845
-0.00626462
0.00635837
-0.00665823
0.00683639
-0.00702919
0.00728096
-0.00737966
0.00769257
-0.00771232
0.00807349
-0.00802968
-0.00833245
0.00842802
5.30365e-05
-0.000238264
0.000197772
-0.00072235
0.000425564
-0.00123181
0.000727468
-0.00176139
0.00109348
-0.00230466
0.00151231
-0.00285414
0.00197149
-0.00340184
0.00245779
-0.00393994
0.00295779
-0.00446136
0.00345859
-0.00496023
0.00394852
-0.00543232
0.00441776
-0.00587519
0.0048588
-0.00628822
0.00526672
-0.00667253
0.00563916
-0.00703066
0.00597614
-0.00736618
0.00627972
-0.00768324
0.0065535
-0.00798609
0.00680218
-0.00827837
-0.00856193
0.00703167
5.62075e-05
-0.000294471
0.000206005
-0.000872148
0.000436823
-0.00146262
0.000735897
-0.00206046
0.00108959
-0.00265835
0.00148337
-0.00324793
0.00190225
-0.00382072
0.0023314
-0.0043691
0.00275697
-0.00488692
0.00316681
-0.00537008
0.00355116
-0.00581667
0.00390301
-0.00622704
0.00421828
-0.0066035
0.0044957
-0.00694995
0.00473639
-0.00727136
0.00494341
-0.00757319
0.00512106
-0.00786089
0.00527438
-0.00813941
0.0054086
-0.0084126
-0.0086826
0.00552928
5.7358e-05
-0.00035183
0.000206375
-0.00102117
0.000430605
-0.00168685
0.000713699
-0.00234356
0.00103892
-0.00298358
0.00138942
-0.00359843
0.0017489
-0.0041802
0.00210244
-0.00472264
0.0024373
-0.00522178
0.00274352
-0.0056763
0.00301434
-0.00608749
0.0032462
-0.00645889
0.0034385
-0.00679579
0.00359309
-0.00710454
0.00371361
-0.00739189
0.00380481
-0.00766439
0.00387185
-0.00792793
0.00391981
-0.00818737
0.00395334
-0.00844613
-0.00870606
0.0039768
5.61254e-05
-0.000407955
0.000197889
-0.00116293
0.000405452
-0.00189442
0.000659577
-0.00259768
0.000941412
-0.00326541
0.00123304
-0.00389005
0.0015183
-0.00446547
0.00178361
-0.00498794
0.00201856
-0.00545673
0.0022163
-0.00587404
0.00237343
-0.00624462
0.00248968
-0.00657514
0.00256727
-0.00687339
0.00261019
-0.00714746
0.00262337
-0.00740507
0.00261204
-0.00765306
0.00258118
-0.00789707
0.00253514
-0.00814133
0.00247755
-0.00838853
-0.00864003
0.00241151
5.22994e-05
-0.000460254
0.000180155
-0.00129078
0.000361258
-0.00207552
0.000574571
-0.002811
0.000800424
-0.00349126
0.00102123
-0.00411086
0.00122233
-0.00466656
0.00139257
-0.00515819
0.00152467
-0.00558883
0.00161507
-0.00596443
0.00166351
-0.00629306
0.00167232
-0.00658396
0.0016456
-0.00684667
0.00158834
-0.0070902
0.00150575
-0.00732248
0.00140271
-0.00755002
0.00128342
-0.00777778
0.00115121
-0.00800913
0.0010086
-0.00824592
-0.00848894
0.000857509
4.58455e-05
-0.0005061
0.000153423
-0.00139836
0.000299234
-0.00222133
0.000461815
-0.00297358
0.00062209
-0.00365154
0.000764136
-0.00425291
0.00087584
-0.00477826
0.0009492
-0.00523155
0.000980212
-0.00561984
0.000968379
-0.0059526
0.000915929
-0.00624061
0.000826914
-0.00649494
0.000706318
-0.00672607
0.000559302
-0.00694318
0.000390659
-0.00715384
0.000204479
-0.00736384
4.01958e-06
-0.00757732
-0.000208306
-0.0077968
-0.000431024
-0.0080232
-0.00825661
-0.000663357
3.69059e-05
-0.000543006
0.000118534
-0.00147999
0.000221716
-0.00232451
0.000326043
-0.0030779
0.00041439
-0.00373989
0.000473575
-0.0043121
0.000494726
-0.00479941
0.000473195
-0.00521002
0.00040806
-0.00555471
0.000301293
-0.00584583
0.000156821
-0.00609614
-2.04275e-05
-0.0063177
-0.000225331
-0.00652117
-0.000453155
-0.00671536
-0.000699879
-0.00690711
-0.00096232
-0.0071014
-0.00123809
-0.00730155
-0.0015255
-0.00750939
-0.00182336
-0.00772534
-0.00794909
-0.00213087
2.57854e-05
-0.000568791
7.68218e-05
-0.00153103
0.000131866
-0.00237955
0.000172995
-0.00311903
0.000186215
-0.00375311
0.000161804
-0.00428768
9.44274e-05
-0.00473204
-1.73472e-05
-0.00509824
-0.000171878
-0.00540018
-0.000365378
-0.00565233
-0.000592972
-0.00586854
-0.000849537
-0.00606113
-0.00113033
-0.00624037
-0.00143137
-0.00641432
-0.00174957
-0.00658891
-0.00208266
-0.00676831
-0.00242903
-0.00695518
-0.00278745
-0.00715097
-0.00315682
-0.00735597
-0.00756961
-0.00353631
1.29762e-05
-0.000581767
2.99752e-05
-0.00154803
3.33757e-05
-0.00238296
8.98114e-06
-0.00309464
-5.33916e-05
-0.00369073
-0.000159465
-0.00418161
-0.000311071
-0.00458043
-0.000506826
-0.00490249
-0.000743074
-0.00516393
-0.00101494
-0.00538047
-0.00131719
-0.00556629
-0.00164496
-0.00573336
-0.00199417
-0.00589116
-0.00236171
-0.00604677
-0.00274541
-0.00620522
-0.00314387
-0.00636985
-0.00355621
-0.00654284
-0.00398164
-0.00672554
-0.0044189
-0.0069187
-0.00712214
-0.00486637
-1.3204e-06
-0.000580447
-2.02501e-05
-0.0015291
-7.00103e-05
-0.0023332
-0.000160087
-0.00300456
-0.000296019
-0.0035548
-0.000479653
-0.00399798
-0.000709591
-0.0043505
-0.000982109
-0.00462997
-0.00129216
-0.00485388
-0.00163428
-0.00503835
-0.00200333
-0.00519724
-0.00239497
-0.00534172
-0.00280587
-0.00548027
-0.00323372
-0.00561892
-0.00367717
-0.00576177
-0.00413557
-0.00591145
-0.00460879
-0.00606962
-0.00509669
-0.00623764
-0.00559786
-0.00641753
-0.00660852
-0.00611148
-1.59672e-05
-0.00056448
-7.17305e-05
-0.00147333
-0.000174375
-0.00223055
-0.000328086
-0.00285085
-0.000533787
-0.0033491
-0.000789462
-0.0037423
-0.0010909
-0.00404906
-0.00143257
-0.0042883
-0.00180856
-0.00447789
-0.00221329
-0.00463362
-0.00264199
-0.00476854
-0.00309098
-0.00489273
-0.00355768
-0.00501356
-0.00404054
-0.00513605
-0.00453883
-0.00526348
-0.00505242
-0.00539786
-0.00558177
-0.00554027
-0.00612819
-0.00569122
-0.00669294
-0.00585278
-0.00603349
-0.00726797
-3.08736e-05
-0.000533606
-0.000122689
-0.00138152
-0.000276151
-0.00207709
-0.000489811
-0.00263719
-0.000759952
-0.00307896
-0.00108105
-0.00342121
-0.00144652
-0.00368359
-0.00184954
-0.00388528
-0.00228375
-0.00404368
-0.00274374
-0.00417363
-0.00322534
-0.00428694
-0.00372564
-0.00439244
-0.0042429
-0.0044963
-0.0047764
-0.00460255
-0.00532624
-0.00471364
-0.00589322
-0.00483089
-0.00647854
-0.00495495
-0.00708333
-0.00508643
-0.00771044
-0.00522567
-0.00536826
-0.00837567
-4.52699e-05
-0.000488336
-0.000171298
-0.00125549
-0.000372089
-0.0018763
-0.000640601
-0.00236868
-0.000968743
-0.00275082
-0.00134788
-0.00304206
-0.00176952
-0.00326195
-0.00222592
-0.00342888
-0.00271052
-0.00355908
-0.00321821
-0.00366593
-0.00374535
-0.0037598
-0.0042896
-0.00384819
-0.00484973
-0.00393617
-0.00542534
-0.00402693
-0.00601665
-0.00412233
-0.00662421
-0.00422333
-0.00724876
-0.00433039
-0.00789155
-0.00444365
-0.00855476
-0.00456246
-0.0046858
-0.00923723
-5.86529e-05
-0.000429683
-0.000215965
-0.00109818
-0.000459379
-0.00163288
-0.000776567
-0.00205149
-0.00115549
-0.00237189
-0.00158489
-0.00261267
-0.00205476
-0.00279208
-0.00255676
-0.00292688
-0.00308437
-0.00303147
-0.00363287
-0.00311744
-0.00419913
-0.00319354
-0.00478136
-0.00326596
-0.00537878
-0.00333875
-0.00599131
-0.0034144
-0.00661935
-0.0034943
-0.00726351
-0.00357917
-0.00792458
-0.00366932
-0.00860342
-0.0037648
-0.0093007
-0.00386518
-0.00397027
-0.0100162
-7.05553e-05
-0.000359128
-0.000255308
-0.000913426
-0.000535641
-0.00135255
-0.000894485
-0.00169265
-0.0013164
-0.00194997
-0.00178797
-0.0021411
-0.00229806
-0.00228199
-0.00283798
-0.00238696
-0.00340135
-0.00246811
-0.00398383
-0.00253495
-0.00458282
-0.00259456
-0.00519698
-0.0026518
-0.00582591
-0.00270982
-0.00646982
-0.00277049
-0.00712929
-0.00283483
-0.00780508
-0.00290337
-0.00849808
-0.00297633
-0.00920915
-0.00305372
-0.00993905
-0.00313529
-0.00322104
-0.0106883
-8.05747e-05
-0.000278553
-0.00028817
-0.00070583
-0.000598929
-0.00104179
-0.000991775
-0.0012998
-0.00144849
-0.00149325
-0.00195397
-0.00163563
-0.00249626
-0.00173969
-0.00306649
-0.00181674
-0.00365845
-0.00187614
-0.00426821
-0.00192519
-0.00489356
-0.00196921
-0.00553356
-0.00201179
-0.00618813
-0.00205524
-0.00685772
-0.0021009
-0.00754308
-0.00214948
-0.00824511
-0.00220134
-0.0089648
-0.00225664
-0.00970314
-0.00231539
-0.010461
-0.00237739
-0.00244273
-0.0112393
-8.83823e-05
-0.000190171
-0.000313626
-0.000480586
-0.00064771
-0.000707707
-0.00106644
-0.000881074
-0.00154947
-0.00101022
-0.00208047
-0.00110464
-0.00264693
-0.00117323
-0.00323988
-0.00122379
-0.00385331
-0.00126271
-0.0044836
-0.00129491
-0.00512886
-0.00132394
-0.00578846
-0.00135219
-0.00646255
-0.00138115
-0.00715177
-0.00141168
-0.007857
-0.00144424
-0.00857928
-0.00147906
-0.00931968
-0.00151623
-0.0100793
-0.00155576
-0.0108592
-0.00159752
-0.00164158
-0.0116603
-9.37279e-05
-9.6443e-05
-0.000330982
-0.000243332
-0.000680853
-0.000357835
-0.00111701
-0.000444919
-0.00161769
-0.000509535
-0.00216574
-0.000556588
-0.00274832
-0.000590646
-0.00335643
-0.000615684
-0.00398419
-0.000634941
-0.00462821
-0.000650897
-0.00528683
-0.000665325
-0.00595961
-0.000679411
-0.00664687
-0.000693892
-0.00734936
-0.00070919
-0.00806808
-0.000725528
-0.00880412
-0.000743014
-0.00955866
-0.000761696
-0.0103328
-0.000781573
-0.0111278
-0.00080258
-0.000824761
-0.0119446
-9.6443e-05
4.08555e-14
-0.000339775
4.94536e-14
-0.00069761
5.53429e-14
-0.00114253
6.13692e-14
-0.00165206
6.39558e-14
-0.00220865
7.0244e-14
-0.0027993
7.57903e-14
-0.00341498
7.63266e-14
-0.00404992
7.25729e-14
-0.00470082
6.63874e-14
-0.00536615
5.92124e-14
-0.00604556
5.20588e-14
-0.00673945
4.62311e-14
-0.00744864
4.10508e-14
-0.00817417
3.67134e-14
-0.00891718
3.32293e-14
-0.00967888
3.04707e-14
-0.0104605
2.80068e-14
-0.011263
2.53106e-14
2.28892e-14
-0.0120878
-9.6443e-05
9.6443e-05
-0.000339775
0.000243332
-0.00069761
0.000357835
-0.00114253
0.000444919
-0.00165206
0.000509535
-0.00220865
0.000556588
-0.0027993
0.000590646
-0.00341498
0.000615684
-0.00404992
0.000634941
-0.00470082
0.000650897
-0.00536615
0.000665325
-0.00604556
0.000679411
-0.00673945
0.000693892
-0.00744864
0.00070919
-0.00817417
0.000725528
-0.00891718
0.000743014
-0.00967888
0.000761696
-0.0104605
0.000781573
-0.011263
0.00080258
0.000824761
-0.0120878
-9.37279e-05
0.000190171
-0.000330982
0.000480586
-0.000680853
0.000707707
-0.00111701
0.000881074
-0.00161769
0.00101022
-0.00216574
0.00110464
-0.00274832
0.00117323
-0.00335643
0.00122379
-0.00398419
0.00126271
-0.00462821
0.00129491
-0.00528683
0.00132394
-0.00595961
0.00135219
-0.00664687
0.00138115
-0.00734936
0.00141168
-0.00806808
0.00144424
-0.00880412
0.00147906
-0.00955866
0.00151623
-0.0103328
0.00155576
-0.0111278
0.00159752
0.00164158
-0.0119446
-8.83823e-05
0.000278553
-0.000313626
0.00070583
-0.00064771
0.00104179
-0.00106644
0.0012998
-0.00154947
0.00149325
-0.00208047
0.00163563
-0.00264693
0.00173969
-0.00323988
0.00181674
-0.00385331
0.00187614
-0.0044836
0.00192519
-0.00512886
0.00196921
-0.00578846
0.00201179
-0.00646255
0.00205524
-0.00715177
0.0021009
-0.007857
0.00214948
-0.00857928
0.00220134
-0.00931968
0.00225664
-0.0100793
0.00231539
-0.0108592
0.00237739
0.00244273
-0.0116603
-8.05747e-05
0.000359128
-0.00028817
0.000913426
-0.000598929
0.00135255
-0.000991775
0.00169265
-0.00144849
0.00194997
-0.00195397
0.0021411
-0.00249626
0.00228199
-0.00306649
0.00238696
-0.00365845
0.00246811
-0.00426821
0.00253495
-0.00489356
0.00259456
-0.00553356
0.0026518
-0.00618813
0.00270982
-0.00685772
0.00277049
-0.00754308
0.00283483
-0.00824511
0.00290337
-0.0089648
0.00297633
-0.00970314
0.00305372
-0.010461
0.00313529
0.00322104
-0.0112393
-7.05553e-05
0.000429683
-0.000255308
0.00109818
-0.000535641
0.00163288
-0.000894485
0.00205149
-0.0013164
0.00237189
-0.00178797
0.00261267
-0.00229806
0.00279208
-0.00283798
0.00292688
-0.00340135
0.00303147
-0.00398383
0.00311744
-0.00458282
0.00319354
-0.00519698
0.00326596
-0.00582591
0.00333875
-0.00646982
0.0034144
-0.00712929
0.0034943
-0.00780508
0.00357917
-0.00849808
0.00366932
-0.00920915
0.0037648
-0.00993905
0.00386518
0.00397027
-0.0106883
-5.86529e-05
0.000488336
-0.000215965
0.00125549
-0.000459379
0.0018763
-0.000776567
0.00236868
-0.00115549
0.00275082
-0.00158489
0.00304206
-0.00205476
0.00326195
-0.00255676
0.00342888
-0.00308437
0.00355908
-0.00363287
0.00366593
-0.00419913
0.0037598
-0.00478136
0.00384819
-0.00537878
0.00393617
-0.00599131
0.00402693
-0.00661935
0.00412233
-0.00726351
0.00422333
-0.00792458
0.00433039
-0.00860342
0.00444365
-0.0093007
0.00456246
0.0046858
-0.0100162
-4.52699e-05
0.000533606
-0.000171298
0.00138152
-0.000372089
0.00207709
-0.000640601
0.00263719
-0.000968743
0.00307896
-0.00134788
0.00342121
-0.00176952
0.00368359
-0.00222592
0.00388528
-0.00271052
0.00404368
-0.00321821
0.00417363
-0.00374535
0.00428694
-0.0042896
0.00439244
-0.00484973
0.0044963
-0.00542534
0.00460255
-0.00601665
0.00471364
-0.00662421
0.00483089
-0.00724876
0.00495495
-0.00789155
0.00508643
-0.00855476
0.00522567
0.00536826
-0.00923723
-3.08736e-05
0.00056448
-0.000122689
0.00147333
-0.000276151
0.00223055
-0.000489811
0.00285085
-0.000759952
0.0033491
-0.00108105
0.0037423
-0.00144652
0.00404906
-0.00184954
0.0042883
-0.00228375
0.00447789
-0.00274374
0.00463362
-0.00322534
0.00476854
-0.00372564
0.00489273
-0.0042429
0.00501356
-0.0047764
0.00513605
-0.00532624
0.00526348
-0.00589322
0.00539786
-0.00647854
0.00554027
-0.00708333
0.00569122
-0.00771044
0.00585278
0.00603349
-0.00837567
-1.59672e-05
0.000580447
-7.17305e-05
0.0015291
-0.000174375
0.0023332
-0.000328086
0.00300456
-0.000533787
0.0035548
-0.000789462
0.00399798
-0.0010909
0.0043505
-0.00143257
0.00462997
-0.00180856
0.00485388
-0.00221329
0.00503835
-0.00264199
0.00519724
-0.00309098
0.00534172
-0.00355768
0.00548027
-0.00404054
0.00561892
-0.00453883
0.00576177
-0.00505242
0.00591145
-0.00558177
0.00606962
-0.00612819
0.00623764
-0.00669294
0.00641753
0.00660852
-0.00726797
-1.3204e-06
0.000581767
-2.02501e-05
0.00154803
-7.00103e-05
0.00238296
-0.000160087
0.00309464
-0.000296019
0.00369073
-0.000479653
0.00418161
-0.000709591
0.00458043
-0.000982109
0.00490249
-0.00129216
0.00516393
-0.00163428
0.00538047
-0.00200333
0.00556629
-0.00239497
0.00573336
-0.00280587
0.00589116
-0.00323372
0.00604677
-0.00367717
0.00620522
-0.00413557
0.00636985
-0.00460879
0.00654284
-0.00509669
0.00672554
-0.00559786
0.0069187
0.00712214
-0.00611148
1.29762e-05
0.000568791
2.99752e-05
0.00153103
3.33757e-05
0.00237955
8.98114e-06
0.00311903
-5.33916e-05
0.00375311
-0.000159465
0.00428768
-0.000311071
0.00473204
-0.000506826
0.00509824
-0.000743074
0.00540018
-0.00101494
0.00565233
-0.00131719
0.00586854
-0.00164496
0.00606113
-0.00199417
0.00624037
-0.00236171
0.00641432
-0.00274541
0.00658891
-0.00314387
0.00676831
-0.00355621
0.00695518
-0.00398164
0.00715097
-0.0044189
0.00735597
0.00756961
-0.00486637
2.57854e-05
0.000543006
7.68218e-05
0.00147999
0.000131866
0.00232451
0.000172995
0.0030779
0.000186215
0.00373989
0.000161804
0.0043121
9.44274e-05
0.00479941
-1.73472e-05
0.00521002
-0.000171878
0.00555471
-0.000365378
0.00584583
-0.000592972
0.00609614
-0.000849537
0.0063177
-0.00113033
0.00652117
-0.00143137
0.00671536
-0.00174957
0.00690711
-0.00208266
0.0071014
-0.00242903
0.00730155
-0.00278745
0.00750939
-0.00315682
0.00772534
0.00794909
-0.00353631
3.69059e-05
0.0005061
0.000118534
0.00139836
0.000221716
0.00222133
0.000326043
0.00297358
0.00041439
0.00365154
0.000473575
0.00425291
0.000494726
0.00477826
0.000473195
0.00523155
0.00040806
0.00561984
0.000301293
0.0059526
0.000156821
0.00624061
-2.04275e-05
0.00649494
-0.000225331
0.00672607
-0.000453155
0.00694318
-0.000699879
0.00715384
-0.00096232
0.00736384
-0.00123809
0.00757732
-0.0015255
0.0077968
-0.00182336
0.0080232
0.00825661
-0.00213087
4.58455e-05
0.000460254
0.000153423
0.00129078
0.000299234
0.00207552
0.000461815
0.002811
0.00062209
0.00349126
0.000764136
0.00411086
0.00087584
0.00466656
0.0009492
0.00515819
0.000980212
0.00558883
0.000968379
0.00596443
0.000915929
0.00629306
0.000826914
0.00658396
0.000706318
0.00684667
0.000559302
0.0070902
0.000390659
0.00732248
0.000204479
0.00755002
4.01957e-06
0.00777778
-0.000208306
0.00800913
-0.000431024
0.00824592
0.00848894
-0.000663357
5.22994e-05
0.000407955
0.000180155
0.00116293
0.000361258
0.00189442
0.000574571
0.00259768
0.000800424
0.00326541
0.00102123
0.00389005
0.00122233
0.00446547
0.00139257
0.00498794
0.00152467
0.00545673
0.00161507
0.00587404
0.00166351
0.00624462
0.00167232
0.00657514
0.0016456
0.00687339
0.00158834
0.00714746
0.00150575
0.00740507
0.00140271
0.00765306
0.00128342
0.00789707
0.00115121
0.00814133
0.0010086
0.00838853
0.00864003
0.000857509
5.61254e-05
0.00035183
0.000197889
0.00102117
0.000405452
0.00168685
0.000659577
0.00234356
0.000941412
0.00298358
0.00123304
0.00359843
0.0015183
0.0041802
0.00178361
0.00472264
0.00201856
0.00522178
0.0022163
0.0056763
0.00237343
0.00608749
0.00248968
0.00645889
0.00256727
0.00679579
0.00261019
0.00710454
0.00262337
0.00739189
0.00261204
0.00766439
0.00258118
0.00792793
0.00253514
0.00818737
0.00247755
0.00844613
0.00870606
0.00241151
5.7358e-05
0.000294471
0.000206375
0.000872148
0.000430605
0.00146262
0.000713699
0.00206046
0.00103892
0.00265835
0.00138942
0.00324793
0.0017489
0.00382072
0.00210244
0.0043691
0.0024373
0.00488692
0.00274352
0.00537008
0.00301434
0.00581667
0.0032462
0.00622704
0.0034385
0.0066035
0.00359309
0.00694995
0.00371361
0.00727136
0.00380481
0.00757319
0.00387185
0.00786089
0.00391981
0.00813941
0.00395334
0.0084126
0.0086826
0.0039768
5.62075e-05
0.000238264
0.000206005
0.00072235
0.000436823
0.00123181
0.000735897
0.00176139
0.00108959
0.00230466
0.00148337
0.00285414
0.00190225
0.00340184
0.0023314
0.00393994
0.00275697
0.00446136
0.00316681
0.00496023
0.00355116
0.00543232
0.00390301
0.00587519
0.00421828
0.00628822
0.0044957
0.00667253
0.00473639
0.00703066
0.00494341
0.00736618
0.00512106
0.00768324
0.00527438
0.00798609
0.0054086
0.00827837
0.00856193
0.00552928
5.30365e-05
0.000185227
0.000197772
0.000577614
0.000425564
0.00100401
0.000727468
0.00145948
0.00109348
0.00193865
0.00151231
0.00243531
0.00197149
0.00294266
0.00245779
0.00345364
0.00295779
0.00396136
0.00345859
0.00445943
0.00394852
0.0049424
0.00441776
0.00540595
0.0048588
0.00584717
0.00526672
0.00626462
0.00563916
0.00665823
0.00597614
0.00702919
0.00627972
0.00737966
0.0065535
0.00771232
0.00680218
0.00802968
0.00833245
0.00703167
4.83154e-05
0.000136912
0.000183152
0.000442778
0.000399469
0.000787696
0.000691946
0.00116701
0.00105428
0.00157632
0.0014788
0.00201079
0.00195641
0.00246506
0.00247664
0.00293341
0.00302804
0.00340996
0.00359862
0.00388885
0.00417648
0.00436454
0.0047504
0.00483203
0.00531045
0.00528713
0.00584845
0.00572661
0.00635837
0.00614832
0.00683639
0.00655117
0.00728096
0.00693508
0.00769257
0.00730071
0.00807349
0.00764877
0.00797792
0.00842802
4.25607e-05
9.43513e-05
0.000163896
0.000321443
0.000361983
0.000589609
0.000634602
0.000894388
0.000978775
0.00123215
0.00139037
0.00159919
0.00186386
0.00199157
0.00239224
0.00240503
0.0029671
0.00283509
0.00357889
0.00327706
0.00421722
0.00372621
0.00487135
0.0041779
0.0055307
0.00462778
0.00618534
0.00507196
0.00682648
0.00550717
0.0074468
0.00593085
0.00804069
0.0063412
0.00860429
0.0067371
0.00913542
0.00711764
0.00747921
0.00963413
3.62641e-05
5.80871e-05
0.000141782
0.000215925
0.000316837
0.000414554
0.00056161
0.000649615
0.000875797
0.000917962
0.00125827
0.00121672
0.00170679
0.00154305
0.00221785
0.00189398
0.00278654
0.0022664
0.00340661
0.00265699
0.00407057
0.00306225
0.00476994
0.00347853
0.00549552
0.00390219
0.00623783
0.00432966
0.00698741
0.00475759
0.00773523
0.00518303
0.00847297
0.00560347
0.00919294
0.00601713
0.00988733
0.00642324
0.00681932
0.0105472
2.98269e-05
2.82602e-05
0.000118364
0.000127389
0.000267492
0.000265425
0.000479065
0.000438042
0.000754691
0.000642336
0.00109549
0.00087593
0.00150184
0.00113669
0.0019732
0.00142261
0.00250796
0.00173165
0.00310328
0.00206167
0.00375515
0.00241038
0.00445837
0.00277531
0.00520675
0.00315382
0.00599321
0.00354319
0.00681016
0.00394065
0.00764967
0.00434351
0.00850389
0.00474925
0.00936537
0.00515564
0.0102262
0.00556237
0.00597504
0.0110705
2.35178e-05
4.74239e-06
9.47944e-05
5.61121e-05
0.000216713
0.000143506
0.000392162
0.000262594
0.000623944
0.000410554
0.000914629
0.000585245
0.00126639
0.000784936
0.00168083
0.00100817
0.00215887
0.00125361
0.00270057
0.00151996
0.00330511
0.00180584
0.0039707
0.00210972
0.00469464
0.00242987
0.0054735
0.00276434
0.00630327
0.00311087
0.00717989
0.00346689
0.00809986
0.00382928
0.0090622
0.0041933
0.0100738
0.00455079
0.00489618
0.0111526
1.74712e-05
-1.27288e-05
7.17821e-05
1.80115e-06
0.000166404
4.88846e-05
0.000304775
0.000124223
0.000490324
0.000225004
0.00072639
0.000349179
0.00101613
0.000495198
0.0013624
0.00066189
0.00176769
0.000848326
0.00223395
0.00105371
0.00276253
0.00127726
0.00335408
0.00151817
0.00400848
0.00177548
0.00472477
0.00204804
0.00550122
0.00233443
0.00633532
0.00263279
0.00722408
0.00294053
0.00816415
0.00325323
0.00915279
0.00356216
0.00384553
0.0102034
1.17142e-05
-2.4443e-05
4.97151e-05
-3.61997e-05
0.000117776
-1.91765e-05
0.000219619
2.23796e-05
0.000358917
8.57071e-05
0.000539289
0.000168806
0.000764273
0.000270215
0.00103727
0.000388894
0.00136148
0.000524112
0.00173985
0.000675336
0.00217497
0.000842143
0.002669
0.00102414
0.0032236
0.00122088
0.00383987
0.00143177
0.00451836
0.00165594
0.00525913
0.00189202
0.00606209
0.00213756
0.0069276
0.00238772
0.00785782
0.00263194
0.00284397
0.00885938
6.26854e-06
-3.07115e-05
2.88242e-05
-5.87554e-05
7.17074e-05
-6.20597e-05
0.000138756
-4.46693e-05
0.000233683
-9.21917e-06
0.000360108
4.23803e-05
0.000521573
0.00010875
0.000721539
0.000188929
0.000963371
0.00028228
0.00125031
0.000388391
0.00158546
0.000506996
0.00197171
0.000637893
0.00241173
0.000780858
0.00290796
0.000935533
0.00346266
0.00110125
0.00407797
0.00127671
0.00475615
0.00145938
0.0054996
0.00164427
0.00631043
0.00182111
0.00196691
0.00718749
1.18615e-06
-3.18977e-05
9.48058e-06
-6.70498e-05
2.92016e-05
-8.17808e-05
6.42765e-05
-7.97442e-05
0.000118377
-6.33199e-05
0.00019499
-3.42328e-05
0.000297472
6.26825e-06
0.000429089
5.73121e-05
0.000593032
0.000118337
0.000792437
0.000188986
0.00103039
0.000269047
0.00130991
0.000358371
0.00163399
0.00045678
0.00200558
0.000563943
0.00242765
0.000679179
0.00290321
0.000801142
0.00343531
0.000927286
0.00402658
0.001053
0.00467803
0.00116965
0.00126018
0.00538476
-3.37978e-06
-2.85179e-05
-7.70404e-06
-6.27255e-05
-8.3248e-06
-8.116e-05
-1.2122e-06
-8.68568e-05
1.72554e-05
-8.17875e-05
5.0405e-05
-6.73824e-05
0.000101355
-4.46814e-05
0.000173074
-1.44068e-05
0.000268449
2.29616e-05
0.000390312
6.71229e-05
0.000541472
0.000117887
0.000724736
0.000175107
0.000942927
0.000238589
0.00119889
0.000307978
0.0014955
0.000382575
0.00183556
0.00046108
0.00222162
0.000541227
0.00265534
0.000619275
0.00313615
0.000688841
0.000738594
0.00365774
-7.18439e-06
-2.13335e-05
-2.18635e-05
-4.80464e-05
-3.90384e-05
-6.39852e-05
-5.45589e-05
-7.13362e-05
-6.48321e-05
-7.15143e-05
-6.66687e-05
-6.55458e-05
-5.71711e-05
-5.4179e-05
-3.36413e-05
-3.79366e-05
6.48895e-06
-1.71687e-05
6.57141e-05
7.89771e-06
0.000146496
3.71051e-05
0.000251279
7.03239e-05
0.000382498
0.00010737
0.000542555
0.00014792
0.00073375
0.00019138
0.00095812
0.000236711
0.00121712
0.000282229
0.00151103
0.000325366
0.00183785
0.00036202
0.0003855
0.00219094
-9.94042e-06
-1.13931e-05
-3.2027e-05
-2.59598e-05
-6.09599e-05
-3.50523e-05
-9.24786e-05
-3.98175e-05
-0.000122997