/*--------------------------------*- C++ -*----------------------------------*\
  =========                 |
  \\      /  F ield         | OpenFOAM: The Open Source CFD Toolbox
   \\    /   O peration     | Website:  https://openfoam.org
    \\  /    A nd           | Version:  7
     \\/     M anipulation  |
\*---------------------------------------------------------------------------*/
FoamFile
{
    version     2.0;
    format      ascii;
    class       surfaceScalarField;
    location    "20";
    object      phi;
}
// * * * * * * * * * * * * * * * * * * * * * * * * * * * * * * * * * * * * * //

dimensions      [0 3 -1 0 0 0 0];

internalField   nonuniform List<scalar> 
6869
(
-0.000586759
0.0155142
0.000604617
-0.000552358
0.0161757
-0.000513667
0.0163981
-0.000475375
0.0164035
-0.000438968
0.016324
-0.000404785
0.0162191
-0.000372806
0.0161112
-0.000342921
0.0160078
-0.000315003
0.0159102
-0.000288939
0.0158183
-0.000264617
0.0157314
-0.00024193
0.0156492
-0.000220772
0.0155714
-0.000201033
0.0154979
-0.000182607
0.0154289
-0.000165388
0.0153642
-0.000149274
0.0153038
-0.000134166
0.0152479
-0.000119967
0.0151963
-0.000106587
0.015149
-9.39376e-05
0.0151062
-8.19336e-05
0.0150677
-7.04942e-05
0.0150335
-5.95417e-05
0.0150036
-4.90008e-05
0.014978
-3.87992e-05
0.0149567
-2.88664e-05
0.0149397
-1.91339e-05
0.014927
-9.53426e-06
0.0149185
0.0149142
-0.000629183
0.0154947
0.000648684
-0.000592383
0.0161389
-0.000550913
0.0163567
-0.000509814
0.0163624
-0.000470764
0.016285
-0.000434155
0.0161825
-0.000399962
0.0160771
-0.000368049
0.0159759
-0.000338266
0.0158805
-0.000310474
0.0157905
-0.000284544
0.0157055
-0.000260353
0.015625
-0.00023778
0.0155488
-0.000216705
0.0154769
-0.000197013
0.0154092
-0.000178591
0.0153457
-0.000161329
0.0152866
-0.000145122
0.0152317
-0.000129869
0.015181
-0.000115473
0.0151346
-0.000101842
0.0150925
-8.88862e-05
0.0150547
-7.65218e-05
0.0150211
-6.4667e-05
0.0149917
-5.32432e-05
0.0149666
-4.21744e-05
0.0149457
-3.13869e-05
0.0149289
-2.08091e-05
0.0149164
-1.03703e-05
0.014908
0.0149039
-0.000670944
0.0154733
0.000692377
-0.00063162
0.0160996
-0.000587336
0.0163124
-0.000543436
0.0163185
-0.000501768
0.0162433
-0.000462767
0.0161435
-0.000426397
0.0160407
-0.000392496
0.015942
-0.000360889
0.0158488
-0.000331412
0.015761
-0.000303915
0.015678
-0.00027826
0.0155993
-0.000254311
0.0155248
-0.00023194
0.0154545
-0.00021102
0.0153883
-0.00019143
0.0153262
-0.000173053
0.0152682
-0.00015578
0.0152144
-0.000139502
0.0151647
-0.00012412
0.0151193
-0.000109535
0.015078
-9.56546e-05
0.0150408
-8.2391e-05
0.0150078
-6.96585e-05
0.014979
-5.73753e-05
0.0149543
-4.54622e-05
0.0149338
-3.38425e-05
0.0149173
-2.24412e-05
0.014905
-1.11849e-05
0.0148968
0.0148927
-0.000711858
0.0154496
0.00073548
-0.000669916
0.0160576
-0.000622807
0.0162653
-0.000576135
0.0162718
-0.000531892
0.016199
-0.000490546
0.0161021
-0.000452048
0.0160022
-0.00041621
0.0159061
-0.000382828
0.0158155
-0.000351713
0.0157299
-0.000322696
0.015649
-0.000295622
0.0155722
-0.000270342
0.0154996
-0.000246715
0.0154309
-0.000224606
0.0153662
-0.000203886
0.0153054
-0.000184431
0.0152487
-0.000166125
0.0151961
-0.000148856
0.0151475
-0.000132517
0.0151029
-0.000117008
0.0150624
-0.000102231
0.015026
-8.80949e-05
0.0149937
-7.45104e-05
0.0149654
-6.13925e-05
0.0149412
-4.86591e-05
0.014921
-3.62304e-05
0.0149049
-2.40285e-05
0.0148928
-1.19771e-05
0.0148847
0.0148807
-0.000751737
0.0154236
0.000777767
-0.000707112
0.016013
-0.000657194
0.0162153
-0.000607799
0.0162224
-0.000561044
0.0161523
-0.000517417
0.0160585
-0.000476854
0.0159616
-0.000439138
0.0158684
-0.000404037
0.0157804
-0.000371339
0.0156972
-0.000340855
0.0156185
-0.000312411
0.0155438
-0.000285846
0.015473
-0.000261009
0.015406
-0.000237753
0.0153429
-0.000215943
0.0152836
-0.000195448
0.0152282
-0.000176145
0.0151768
-0.000157918
0.0151292
-0.000140656
0.0150857
-0.000124253
0.015046
-0.000108608
0.0150104
-9.36271e-05
0.0149787
-7.92172e-05
0.014951
-6.52904e-05
0.0149273
-5.17615e-05
0.0149075
-3.85479e-05
0.0148917
-2.55692e-05
0.0148798
-1.27461e-05
0.0148719
0.014868
-0.000790385
0.015395
0.000819
-0.000743047
0.0159657
-0.000690363
0.0161627
-0.00063832
0.0161704
-0.000589133
0.0161031
-0.000543305
0.0160127
-0.000500751
0.0159191
-0.000461226
0.0158289
-0.000424473
0.0157436
-0.000390254
0.015663
-0.000358359
0.0155866
-0.0003286
0.015514
-0.000300801
0.0154452
-0.0002748
0.01538
-0.000250443
0.0153185
-0.000227585
0.0152608
-0.00020609
0.0152067
-0.000185828
0.0151565
-0.000166678
0.0151101
-0.000148526
0.0150675
-0.00013126
0.0150288
-0.000114779
0.0149939
-9.89815e-05
0.0149629
-8.37739e-05
0.0149358
-6.90647e-05
0.0149126
-5.4766e-05
0.0148932
-4.07927e-05
0.0148777
-2.70616e-05
0.0148661
-1.3491e-05
0.0148583
0.0148545
-0.000827609
0.0153637
0.000858939
-0.000777561
0.0159156
-0.000722183
0.0161073
-0.00066759
0.0161158
-0.000616072
0.0160516
-0.000568136
0.0159647
-0.000523678
0.0158746
-0.000482425
0.0157876
-0.000444092
0.0157053
-0.000408419
0.0156273
-0.000375178
0.0155533
-0.000344162
0.015483
-0.000315184
0.0154162
-0.00028807
0.0153529
-0.000262659
0.0152931
-0.000238798
0.0152369
-0.000216343
0.0151843
-0.000195162
0.0151353
-0.000175126
0.0150901
-0.000156118
0.0150485
-0.000138024
0.0150107
-0.000120736
0.0149766
-0.000104153
0.0149463
-8.81756e-05
0.0149198
-7.27115e-05
0.0148971
-5.76696e-05
0.0148782
-4.29624e-05
0.014863
-2.85042e-05
0.0148516
-1.42112e-05
0.0148441
0.0148403
-0.000863215
0.0153295
0.000897343
-0.0008105
0.0158629
-0.000752528
0.0160493
-0.000695505
0.0160588
-0.000641774
0.0159978
-0.00059184
0.0159148
-0.000545577
0.0158283
-0.000502685
0.0157448
-0.000462854
0.0156654
-0.000425802
0.0155903
-0.000391281
0.0155188
-0.000359071
0.0154508
-0.000328972
0.0153861
-0.0003008
0.0153247
-0.000274384
0.0152667
-0.000249566
0.0152121
-0.000226196
0.0151609
-0.000204135
0.0151133
-0.000183253
0.0150692
-0.000163425
0.0150287
-0.000144536
0.0149918
-0.000126474
0.0149586
-0.000109135
0.014929
-9.2418e-05
0.0149031
-7.62272e-05
0.0148809
-6.04694e-05
0.0148624
-4.50548e-05
0.0148476
-2.98957e-05
0.0148365
-1.49059e-05
0.0148291
0.0148254
-0.000897018
0.0152926
0.000933977
-0.000841714
0.0158076
-0.000781276
0.0159889
-0.000721965
0.0159994
-0.000666158
0.015942
-0.000614351
0.015863
-0.000566392
0.0157804
-0.00052196
0.0157003
-0.00048072
0.0156242
-0.000442369
0.0155519
-0.000406642
0.0154831
-0.000373305
0.0154175
-0.000342146
0.015355
-0.000312972
0.0152956
-0.000285604
0.0152393
-0.000259877
0.0151864
-0.000235637
0.0151367
-0.000212739
0.0150904
-0.000191049
0.0150475
-0.000170439
0.0150081
-0.000150789
0.0149721
-0.000131986
0.0149398
-0.000113923
0.0149109
-9.64969e-05
0.0148857
-7.96084e-05
0.014864
-6.31628e-05
0.0148459
-4.70681e-05
0.0148315
-3.12347e-05
0.0148206
-1.55744e-05
0.0148134
0.0148098
-0.000928843
0.0152528
0.000968616
-0.000871063
0.0157498
-0.000808315
0.0159261
-0.00074688
0.015938
-0.000689149
0.0158843
-0.000635604
0.0158094
-0.000586072
0.0157309
-0.000540208
0.0156545
-0.000497654
0.0155816
-0.00045809
0.0155124
-0.000421234
0.0154462
-0.00038684
0.0153831
-0.000354686
0.0153228
-0.000324569
0.0152655
-0.000296304
0.0152111
-0.00026972
0.0151598
-0.000244656
0.0151116
-0.000220964
0.0150667
-0.000198506
0.015025
-0.000177152
0.0149867
-0.000156778
0.0149518
-0.000137269
0.0149203
-0.000118514
0.0148922
-0.000100409
0.0148676
-8.28521e-05
0.0148465
-6.57473e-05
0.0148288
-4.90005e-05
0.0148147
-3.25201e-05
0.0148042
-1.62162e-05
0.0147971
0.0147936
-0.000958528
0.0152103
0.00100105
-0.000898418
0.0156897
-0.000833539
0.0158612
-0.000770164
0.0158746
-0.000710679
0.0158248
-0.000655545
0.0157543
-0.00060457
0.0156799
-0.000557388
0.0156073
-0.000513623
0.0155379
-0.000472937
0.0154717
-0.000435035
0.0154083
-0.000399658
0.0153477
-0.000366576
0.0152897
-0.000335578
0.0152345
-0.000306472
0.015182
-0.000279081
0.0151324
-0.000253242
0.0150858
-0.000228802
0.0150422
-0.000205618
0.0150018
-0.000183559
0.0149646
-0.000162497
0.0149307
-0.000142316
0.0149001
-0.000122902
0.0148728
-0.00010415
0.0148488
-8.59556e-05
0.0148283
-6.82209e-05
0.0148111
-5.08503e-05
0.0147974
-3.37508e-05
0.0147871
-1.68308e-05
0.0147802
0.0147767
-0.000985927
0.0151651
0.00103108
-0.000923665
0.0156274
-0.000856859
0.0157944
-0.000791744
0.0158095
-0.000730685
0.0157638
-0.000674121
0.0156977
-0.000621843
0.0156276
-0.000573466
0.0155589
-0.000528598
0.015493
-0.000486886
0.01543
-0.000448023
0.0153695
-0.000411741
0.0153114
-0.000377801
0.0152558
-0.000345985
0.0152026
-0.000316096
0.0151521
-0.000287953
0.0151042
-0.000261388
0.0150592
-0.000236245
0.0150171
-0.000212378
0.014978
-0.000189653
0.0149419
-0.000167942
0.014909
-0.000147124
0.0148793
-0.000127085
0.0148527
-0.000107718
0.0148295
-8.89164e-05
0.0148095
-7.05816e-05
0.0147928
-5.26162e-05
0.0147794
-3.49258e-05
0.0147694
-1.74177e-05
0.0147627
0.0147593
-0.00101091
0.0151175
0.00105855
-0.000946706
0.0155632
-0.000878195
0.0157259
-0.000811555
0.0157429
-0.000749114
0.0157013
-0.00069129
0.0156399
-0.000637855
0.0155742
-0.000588412
0.0155095
-0.000542553
0.0154472
-0.000499915
0.0153873
-0.000460181
0.0153297
-0.000423073
0.0152743
-0.000388347
0.0152211
-0.000355779
0.0151701
-0.000325168
0.0151215
-0.000296327
0.0150754
-0.000269086
0.015032
-0.000243286
0.0149913
-0.000218781
0.0149535
-0.000195431
0.0149186
-0.000173108
0.0148867
-0.000151689
0.0148578
-0.00013106
0.0148321
-0.000111109
0.0148095
-9.17325e-05
0.0147901
-7.28277e-05
0.0147739
-5.42969e-05
0.0147609
-3.60444e-05
0.0147511
-1.79764e-05
0.0147446
0.0147413
-0.00103338
0.0150676
0.00108331
-0.000967459
0.0154973
-0.000897482
0.015656
-0.000829544
0.0156749
-0.000765924
0.0156377
-0.000707015
0.015581
-0.000652577
0.0155197
-0.0006022
0.0154591
-0.000555468
0.0154004
-0.000512007
0.0153439
-0.000471493
0.0152892
-0.000433642
0.0152365
-0.000398204
0.0151856
-0.000364951
0.0151368
-0.000333678
0.0150902
-0.000304195
0.0150459
-0.00027633
0.0150041
-0.000249922
0.0149649
-0.000224821
0.0149284
-0.000200888
0.0148946
-0.000177991
0.0148638
-0.000156009
0.0148359
-0.000134823
0.0148109
-0.000114323
0.014789
-9.44022e-05
0.0147702
-7.4958e-05
0.0147544
-5.58915e-05
0.0147418
-3.7106e-05
0.0147323
-1.85067e-05
0.014726
0.0147228
-0.00105325
0.0150156
0.00110523
-0.000985862
0.0154299
-0.000914671
0.0155848
-0.000845671
0.0156059
-0.000781081
0.0155731
-0.000721268
0.0155212
-0.000665983
0.0154644
-0.00061481
0.0154079
-0.000567325
0.0153529
-0.000523147
0.0152997
-0.000481947
0.015248
-0.000443437
0.015198
-0.000407362
0.0151495
-0.000373493
0.0151029
-0.00034162
0.0150583
-0.000311553
0.0150158
-0.000283116
0.0149757
-0.000256147
0.0149379
-0.000230496
0.0149027
-0.000206021
0.0148702
-0.00018259
0.0148403
-0.000160081
0.0148133
-0.000138373
0.0147892
-0.000117357
0.014768
-9.69241e-05
0.0147497
-7.69713e-05
0.0147345
-5.7399e-05
0.0147222
-3.81099e-05
0.014713
-1.90083e-05
0.0147069
0.0147038
-0.00107046
0.0149618
0.00112425
-0.00100187
0.0153613
-0.000929727
0.0155126
-0.000859908
0.0155361
-0.000794561
0.0155078
-0.000734029
0.0154607
-0.000678059
0.0154085
-0.000626229
0.0153561
-0.000578112
0.0153048
-0.000533325
0.0152549
-0.000491535
0.0152062
-0.000452451
0.0151589
-0.000415817
0.0151129
-0.0003814
0.0150685
-0.00034899
0.0150259
-0.000318396
0.0149853
-0.000289439
0.0149467
-0.000261959
0.0149104
-0.000235802
0.0148766
-0.000210827
0.0148452
-0.000186902
0.0148164
-0.000163902
0.0147903
-0.000141709
0.014767
-0.00012021
0.0147465
-9.92971e-05
0.0147288
-7.88669e-05
0.014714
-5.88191e-05
0.0147022
-3.90557e-05
0.0146933
-1.9481e-05
0.0146873
0.0146844
-0.00108498
0.0149065
0.00114031
-0.00101546
0.0152918
-0.000942631
0.0154398
-0.000872239
0.0154657
-0.00080635
0.0154419
-0.000745286
0.0153996
-0.000688792
0.015352
-0.000636447
0.0153037
-0.000587822
0.0152562
-0.000542535
0.0152096
-0.000500251
0.0151639
-0.000460679
0.0151193
-0.000423563
0.0150758
-0.000388668
0.0150336
-0.000355785
0.014993
-0.000324721
0.0149542
-0.000295299
0.0149173
-0.000267355
0.0148825
-0.000240738
0.0148499
-0.000215306
0.0148198
-0.000190926
0.014792
-0.000167473
0.0147669
-0.000144829
0.0147444
-0.000122881
0.0147245
-0.000101521
0.0147075
-8.06442e-05
0.0146932
-6.01511e-05
0.0146817
-3.99433e-05
0.0146731
-1.99246e-05
0.0146673
0.0146644
-0.00109678
0.0148499
0.00115336
-0.00102662
0.0152216
-0.000953381
0.0153666
-0.000882661
0.015395
-0.000816445
0.0153757
-0.000755036
0.0153382
-0.000698182
0.0152951
-0.000645462
0.015251
-0.000596453
0.0152072
-0.000550774
0.0151639
-0.000508093
0.0151213
-0.000468121
0.0150793
-0.000430599
0.0150383
-0.000395297
0.0149983
-0.000362004
0.0149597
-0.000330528
0.0149227
-0.000300693
0.0148875
-0.000272335
0.0148541
-0.000245303
0.0148229
-0.000219456
0.0147939
-0.000194661
0.0147672
-0.000170793
0.014743
-0.000147733
0.0147213
-0.00012537
0.0147022
-0.000103594
0.0146857
-8.23029e-05
0.0146719
-6.1395e-05
0.0146608
-4.07725e-05
0.0146524
-2.03392e-05
0.0146469
0.0146441
-0.00110588
0.0147923
0.00116342
-0.00103536
0.0151511
-0.000961988
0.0152932
-0.000891184
0.0153242
-0.000824853
0.0153093
-0.000763285
0.0152766
-0.00070623
0.0152381
-0.000653277
0.0151981
-0.000604007
0.0151579
-0.000558045
0.015118
-0.000515064
0.0150783
-0.000474776
0.015039
-0.000436926
0.0150004
-0.000401286
0.0149627
-0.000367647
0.0149261
-0.000335817
0.0148909
-0.000305622
0.0148573
-0.000276899
0.0148254
-0.000249498
0.0147955
-0.000223278
0.0147677
-0.000198108
0.0147421
-0.000173861
0.0147188
-0.000150422
0.0146979
-0.000127677
0.0146794
-0.000105518
0.0146635
-8.38431e-05
0.0146502
-6.25507e-05
0.0146395
-4.15432e-05
0.0146314
-2.07246e-05
0.0146261
0.0146234
-0.00111231
0.0147341
0.00117051
-0.00104172
0.0150805
-0.000968479
0.01522
-0.000897829
0.0152536
-0.000831592
0.0152431
-0.000770045
0.0152151
-0.000712948
0.015181
-0.0006599
0.015145
-0.00061049
0.0151085
-0.000564353
0.0150718
-0.000521167
0.0150351
-0.000480649
0.0149985
-0.000442548
0.0149623
-0.00040664
0.0149268
-0.000372716
0.0148922
-0.00034059
0.0148588
-0.000310088
0.0148268
-0.000281049
0.0147964
-0.000253324
0.0147678
-0.000226773
0.0147411
-0.000201266
0.0147166
-0.000176679
0.0146942
-0.000152895
0.0146741
-0.000129802
0.0146563
-0.000107293
0.014641
-8.5265e-05
0.0146282
-6.36185e-05
0.0146178
-4.22557e-05
0.0146101
-2.1081e-05
0.0146049
0.0146023
-0.00111612
0.0146756
0.00117467
-0.00104575
0.0150102
-0.000972894
0.0151471
-0.000902628
0.0151833
-0.000836686
0.0151772
-0.000775338
0.0151537
-0.000718354
0.015124
-0.000665345
0.015092
-0.000615915
0.0150591
-0.000569708
0.0150256
-0.00052641
0.0149918
-0.000485747
0.0149579
-0.000447471
0.014924
-0.000411362
0.0148907
-0.000377217
0.014858
-0.000344852
0.0148264
-0.000314095
0.014796
-0.000284787
0.0147671
-0.000256783
0.0147398
-0.000229943
0.0147143
-0.000204139
0.0146908
-0.000179248
0.0146693
-0.000155154
0.01465
-0.000131746
0.0146329
-0.000108919
0.0146182
-8.65693e-05
0.0146058
-6.45987e-05
0.0145959
-4.29102e-05
0.0145884
-2.14086e-05
0.0145834
0.0145809
-0.00111739
0.014617
0.00117599
-0.00104751
0.0149403
-0.000975286
0.0150749
-0.000905625
0.0151136
-0.000840172
0.0151117
-0.000779193
0.0150927
-0.00072247
0.0150673
-0.000669632
0.0150392
-0.000620298
0.0150097
-0.000574124
0.0149794
-0.000530806
0.0149485
-0.000490079
0.0149171
-0.000451702
0.0148857
-0.00041546
0.0148544
-0.000381155
0.0148237
-0.000348606
0.0147938
-0.000317646
0.014765
-0.000288118
0.0147375
-0.000259878
0.0147115
-0.000232791
0.0146872
-0.000206728
0.0146647
-0.000181569
0.0146441
-0.0001572
0.0146256
-0.000133511
0.0146092
-0.000110397
0.0145951
-8.77568e-05
0.0145832
-6.54921e-05
0.0145736
-4.35071e-05
0.0145664
-2.17074e-05
0.0145616
0.0145592
-0.00111621
0.0145586
0.00117456
-0.00104707
0.0148711
-0.000975719
0.0150035
-0.000906873
0.0150448
-0.000842094
0.0150469
-0.000781645
0.0150323
-0.000725326
0.0150109
-0.000672785
0.0149866
-0.000623658
0.0149606
-0.000577617
0.0149334
-0.000534369
0.0149052
-0.000493658
0.0148764
-0.000455253
0.0148473
-0.000418944
0.0148181
-0.000384538
0.0147893
-0.000351861
0.0147612
-0.000320747
0.0147339
-0.000291045
0.0147078
-0.000262614
0.0146831
-0.000235319
0.0146599
-0.000209036
0.0146384
-0.000183646
0.0146187
-0.000159036
0.014601
-0.000135099
0.0145853
-0.000111729
0.0145717
-8.88286e-05
0.0145603
-6.62994e-05
0.0145511
-4.40469e-05
0.0145441
-2.19778e-05
0.0145395
0.0145372
-0.00111267
0.0145008
0.00117048
-0.00104452
0.014803
-0.00097427
0.0149333
-0.000906435
0.0149769
-0.000842502
0.014983
-0.000782736
0.0149725
-0.000726958
0.0149552
-0.000674833
0.0149345
-0.000626021
0.0149118
-0.000580208
0.0148876
-0.000537116
0.0148621
-0.000496499
0.0148358
-0.000458135
0.0148089
-0.000421823
0.0147818
-0.000387375
0.0147549
-0.000354623
0.0147284
-0.000323406
0.0147027
-0.000293576
0.014678
-0.000264995
0.0146545
-0.000237534
0.0146325
-0.000211068
0.014612
-0.000185482
0.0145932
-0.000160665
0.0145762
-0.000136511
0.0145611
-0.000112917
0.0145481
-8.97861e-05
0.0145371
-6.70217e-05
0.0145283
-4.45303e-05
0.0145217
-2.22201e-05
0.0145172
0.014515
-0.0011069
0.0144438
0.00116392
-0.00103997
0.0147361
-0.000971023
0.0148643
-0.00090438
0.0149103
-0.000841454
0.0149201
-0.000782515
0.0149136
-0.000727404
0.0149001
-0.00067581
0.0148829
-0.000627414
0.0148634
-0.00058192
0.0148421
-0.000539067
0.0148193
-0.000498619
0.0147954
-0.000460364
0.0147706
-0.00042411
0.0147456
-0.000389677
0.0147204
-0.000356902
0.0146956
-0.000325629
0.0146714
-0.000295716
0.0146481
-0.000267028
0.0146258
-0.000239438
0.0146049
-0.000212827
0.0145853
-0.00018708
0.0145674
-0.000162089
0.0145512
-0.00013775
0.0145368
-0.000113963
0.0145243
-9.06309e-05
0.0145138
-6.766e-05
0.0145053
-4.49582e-05
0.014499
-2.24347e-05
0.0144947
0.0144925
-0.00109902
0.0143878
0.00115501
-0.00103353
0.0146706
-0.000966071
0.0147969
-0.000900786
0.014845
-0.000839014
0.0148583
-0.000781035
0.0148556
-0.000726709
0.0148457
-0.000675753
0.0148319
-0.000627869
0.0148155
-0.000582782
0.014797
-0.000540245
0.0147768
-0.000500036
0.0147551
-0.000461956
0.0147326
-0.00042582
0.0147094
-0.000391457
0.0146861
-0.000358708
0.0146629
-0.000327427
0.0146402
-0.000297474
0.0146181
-0.00026872
0.0145971
-0.00024104
0.0145772
-0.000214318
0.0145586
-0.000188444
0.0145415
-0.000163312
0.0145261
-0.000138819
0.0145123
-0.000114868
0.0145004
-9.13648e-05
0.0144903
-6.82159e-05
0.0144822
-4.53313e-05
0.0144761
-2.2622e-05
0.014472
0.0144699
-0.00108919
0.0143331
0.00114392
-0.00102531
0.0146067
-0.000959514
0.0147311
-0.000895735
0.0147812
-0.000835252
0.0147978
-0.000778353
0.0147987
-0.000724923
0.0147923
-0.000674703
0.0147817
-0.000627421
0.0147682
-0.000582821
0.0147524
-0.000540675
0.0147346
-0.000500774
0.0147152
-0.00046293
0.0146947
-0.000426968
0.0146735
-0.000392727
0.0146518
-0.000360055
0.0146302
-0.00032881
0.0146089
-0.000298859
0.0145882
-0.000270077
0.0145683
-0.000242344
0.0145495
-0.000215548
0.0145318
-0.00018958
0.0145156
-0.000164338
0.0145008
-0.000139722
0.0144877
-0.000115637
0.0144763
-9.199e-05
0.0144667
-6.86908e-05
0.0144589
-4.56507e-05
0.014453
-2.27825e-05
0.0144491
0.0144471
-0.00107754
0.0142798
0.00113082
-0.00101545
0.0145446
-0.000951458
0.0146671
-0.000889316
0.0147191
-0.00083024
0.0147387
-0.000774531
0.014743
-0.000722096
0.0147399
-0.000672703
0.0147323
-0.000626106
0.0147216
-0.00058207
0.0147084
-0.000540383
0.0146929
-0.000500854
0.0146757
-0.000463305
0.0146572
-0.000427572
0.0146377
-0.000393503
0.0146178
-0.000360953
0.0145977
-0.000329788
0.0145777
-0.00029988
0.0145583
-0.000271109
0.0145395
-0.000243359
0.0145217
-0.000216521
0.014505
-0.000190492
0.0144895
-0.000165171
0.0144755
-0.000140462
0.014463
-0.000116271
0.0144521
-9.25088e-05
0.0144429
-6.90864e-05
0.0144355
-4.59175e-05
0.0144299
-2.29169e-05
0.0144261
0.0144242
-0.00106423
0.0142282
0.00111589
-0.00100407
0.0144844
-0.00094201
0.014605
-0.000881619
0.0146587
-0.000824056
0.0146812
-0.000769634
0.0146886
-0.000718283
0.0146885
-0.0006698
0.0146839
-0.000623964
0.0146758
-0.000580562
0.014665
-0.000539401
0.0146518
-0.000500302
0.0146366
-0.000463103
0.01462
-0.000427651
0.0146023
-0.000393801
0.0145839
-0.000361418
0.0145653
-0.000330375
0.0145467
-0.000300548
0.0145285
-0.000271824
0.0145108
-0.000244091
0.014494
-0.000217246
0.0144781
-0.000191186
0.0144635
-0.000165816
0.0144501
-0.000141043
0.0144382
-0.000116774
0.0144278
-9.29236e-05
0.0144191
-6.94046e-05
0.014412
-4.6133e-05
0.0144066
-2.30256e-05
0.014403
0.0144012
-0.00104941
0.0141783
0.00109931
-0.000991298
0.0144263
-0.000931282
0.014545
-0.000872737
0.0146002
-0.000816778
0.0146252
-0.000763728
0.0146355
-0.000713541
0.0146383
-0.000666043
0.0146364
-0.000621037
0.0146308
-0.000578333
0.0146223
-0.000537756
0.0146112
-0.000499145
0.014598
-0.000462348
0.0145832
-0.000427224
0.0145671
-0.000393638
0.0145503
-0.000361465
0.0145331
-0.000330582
0.0145158
-0.000300874
0.0144987
-0.000272232
0.0144822
-0.000244551
0.0144663
-0.000217728
0.0144513
-0.000191669
0.0144374
-0.000166279
0.0144247
-0.000141469
0.0144134
-0.00011715
0.0144035
-9.32373e-05
0.0143951
-6.96474e-05
0.0143884
-4.62985e-05
0.0143832
-2.31094e-05
0.0143798
0.0143781
-0.00103323
0.0141302
0.00108127
-0.000977274
0.0143704
-0.000919386
0.0144871
-0.000862767
0.0145435
-0.000808487
0.0145709
-0.000756882
0.0145839
-0.000707929
0.0145894
-0.000661481
0.0145899
-0.000617368
0.0145867
-0.00057542
0.0145803
-0.000535483
0.0145712
-0.000497409
0.0145599
-0.000461062
0.0145468
-0.000426311
0.0145324
-0.000393033
0.0145171
-0.000361108
0.0145012
-0.000330424
0.0144851
-0.00030087
0.0144692
-0.000272344
0.0144536
-0.000244745
0.0144387
-0.000217977
0.0144246
-0.000191947
0.0144114
-0.000166565
0.0143994
-0.000141745
0.0143886
-0.000117402
0.0143792
-9.34526e-05
0.0143712
-6.9817e-05
0.0143647
-4.64153e-05
0.0143598
-2.31689e-05
0.0143566
0.0143549
-0.00101586
0.0140842
0.00106193
-0.000962128
0.0143166
-0.000906435
0.0144314
-0.000851804
0.0144889
-0.000799266
0.0145184
-0.000749167
0.0145338
-0.000701507
0.0145417
-0.000656167
0.0145446
-0.000613
0.0145435
-0.000571862
0.0145392
-0.000532613
0.014532
-0.000495124
0.0145224
-0.000459271
0.014511
-0.000424936
0.0144981
-0.000392004
0.0144841
-0.000360365
0.0144695
-0.000329914
0.0144547
-0.000300548
0.0144398
-0.00027217
0.0144253
-0.000244684
0.0144112
-0.000217999
0.0143979
-0.000192026
0.0143854
-0.00016668
0.014374
-0.000141876
0.0143638
-0.000117533
0.0143548
-9.35726e-05
0.0143472
-6.99155e-05
0.0143411
-4.64849e-05
0.0143364
-2.32049e-05
0.0143333
0.0143317
-0.000997441
0.0140401
0.00104147
-0.000945988
0.0142652
-0.000892539
0.014378
-0.000839943
0.0144363
-0.000789195
0.0144676
-0.000740652
0.0144853
-0.000694335
0.0144954
-0.000650151
0.0145004
-0.00060798
0.0145014
-0.000567697
0.0144989
-0.000529182
0.0144935
-0.00049232
0.0144856
-0.000457001
0.0144757
-0.00042312
0.0144642
-0.00039057
0.0144516
-0.000359253
0.0144382
-0.000329068
0.0144245
-0.000299922
0.0144107
-0.000271721
0.0143971
-0.000244378
0.0143839
-0.000217803
0.0143713
-0.000191914
0.0143595
-0.000166629
0.0143487
-0.000141866
0.014339
-0.000117549
0.0143305
-9.36007e-05
0.0143233
-6.99453e-05
0.0143174
-4.6509e-05
0.014313
-2.32182e-05
0.01431
0.0143085
-0.000978118
0.0139982
0.00102005
-0.000928982
0.0142161
-0.000877807
0.0143268
-0.000827279
0.0143858
-0.000778357
0.0144187
-0.000731408
0.0144383
-0.000686474
0.0144505
-0.000643488
0.0144574
-0.000602353
0.0144602
-0.000562965
0.0144595
-0.000525222
0.0144557
-0.000489026
0.0144494
-0.000454279
0.0144409
-0.000420886
0.0144308
-0.000388753
0.0144194
-0.000357788
0.0144073
-0.000327901
0.0143946
-0.000299004
0.0143818
-0.00027101
0.0143691
-0.000243836
0.0143567
-0.000217399
0.0143449
-0.000191619
0.0143338
-0.000166419
0.0143235
-0.000141722
0.0143143
-0.000117454
0.0143062
-9.354e-05
0.0142994
-6.9909e-05
0.0142938
-4.64891e-05
0.0142896
-2.32096e-05
0.0142867
0.0142853
-0.000958033
0.0139584
0.000997852
-0.000911232
0.0141693
-0.000862346
0.0142779
-0.000813902
0.0143373
-0.00076683
0.0143716
-0.000721504
0.014393
-0.000677984
0.0144069
-0.000636229
0.0144156
-0.000596164
0.0144202
-0.000557706
0.014421
-0.00052077
0.0144188
-0.000485273
0.0144139
-0.000451129
0.0144068
-0.000418257
0.0143979
-0.000386572
0.0143878
-0.00035599
0.0143767
-0.00032643
0.0143651
-0.000297809
0.0143532
-0.000270048
0.0143413
-0.000243069
0.0143297
-0.000216794
0.0143186
-0.000191148
0.0143081
-0.000166057
0.0142984
-0.000141448
0.0142897
-0.000117251
0.014282
-9.33942e-05
0.0142755
-6.98091e-05
0.0142702
-4.6427e-05
0.0142662
-2.31798e-05
0.0142635
0.0142621
-0.00093732
0.0139207
0.000975009
-0.000892855
0.0141248
-0.000846258
0.0142313
-0.000799903
0.014291
-0.000754694
0.0143264
-0.000711008
0.0143493
-0.000668925
0.0143649
-0.000628427
0.0143751
-0.00058946
0.0143812
-0.000551961
0.0143835
-0.000515861
0.0143827
-0.000481091
0.0143791
-0.000447581
0.0143733
-0.000415258
0.0143656
-0.000384048
0.0143565
-0.000353877
0.0143465
-0.000324669
0.0143358
-0.000296351
0.0143248
-0.000268848
0.0143138
-0.000242088
0.0143029
-0.000215998
0.0142925
-0.000190509
0.0142826
-0.000165549
0.0142735
-0.00014105
0.0142652
-0.000116945
0.0142579
-9.31667e-05
0.0142517
-6.96482e-05
0.0142467
-4.63243e-05
0.0142428
-2.31299e-05
0.0142403
0.014239
-0.000916106
0.0138851
0.000951671
-0.000873964
0.0140827
-0.000829642
0.014187
-0.000785369
0.0142467
-0.000742024
0.0142831
-0.000699988
0.0143073
-0.000659356
0.0143242
-0.000620133
0.0143359
-0.000582286
0.0143433
-0.000545769
0.014347
-0.000510529
0.0143475
-0.000476513
0.0143451
-0.000443661
0.0143404
-0.000411913
0.0143338
-0.000381203
0.0143258
-0.000351466
0.0143168
-0.000322636
0.014307
-0.000294643
0.0142969
-0.000267421
0.0142866
-0.000240903
0.0142764
-0.000215021
0.0142666
-0.000189709
0.0142573
-0.000164902
0.0142487
-0.000140534
0.0142409
-0.000116542
0.0142339
-9.28612e-05
0.0142281
-6.94291e-05
0.0142233
-4.61829e-05
0.0142196
-2.30606e-05
0.0142171
0.0142159
-0.00089451
0.0138517
0.00092797
-0.000854663
0.0140428
-0.00081259
0.0141449
-0.000770383
0.0142045
-0.000728894
0.0142416
-0.000688508
0.0142669
-0.000649335
0.0142851
-0.000611399
0.014298
-0.000574687
0.0143066
-0.000539169
0.0143115
-0.00050481
0.0143131
-0.000471568
0.0143119
-0.000439397
0.0143082
-0.000408245
0.0143027
-0.000378058
0.0142957
-0.000348778
0.0142875
-0.000320346
0.0142786
-0.000292701
0.0142692
-0.000265782
0.0142597
-0.000239526
0.0142502
-0.000213873
0.014241
-0.000188759
0.0142322
-0.000164124
0.014224
-0.000139906
0.0142166
-0.000116046
0.0142101
-9.24816e-05
0.0142045
-6.91544e-05
0.0141999
-4.60046e-05
0.0141964
-2.29728e-05
0.0141941
0.0141929
-0.000872644
0.0138203
0.000904031
-0.000835052
0.0140052
-0.000795191
0.0141051
-0.000755023
0.0141643
-0.000715375
0.014202
-0.00067663
0.0142282
-0.000638916
0.0142473
-0.000602273
0.0142613
-0.000566706
0.0142711
-0.000532202
0.014277
-0.000498739
0.0142796
-0.000466288
0.0142794
-0.000434815
0.0142768
-0.000404279
0.0142722
-0.000374634
0.014266
-0.000345831
0.0142587
-0.000317817
0.0142506
-0.00029054
0.0142419
-0.000263942
0.0142331
-0.000237969
0.0142242
-0.000212562
0.0142155
-0.000187665
0.0142073
-0.000163221
0.0141996
-0.000139172
0.0141926
-0.000115461
0.0141864
-9.20315e-05
0.0141811
-6.88272e-05
0.0141767
-4.57913e-05
0.0141734
-2.28676e-05
0.0141712
0.0141701
-0.00085061
0.0137909
0.000879969
-0.000815224
0.0139698
-0.00077753
0.0140674
-0.000739365
0.0141262
-0.000701533
0.0141641
-0.000664416
0.014191
-0.000628154
0.0142111
-0.000592804
0.014226
-0.000558386
0.0142366
-0.000524904
0.0142435
-0.000492348
0.0142471
-0.000460703
0.0142478
-0.000429943
0.014246
-0.000400039
0.0142423
-0.000370953
0.0142369
-0.000342643
0.0142304
-0.000315066
0.014223
-0.000288173
0.014215
-0.000261915
0.0142068
-0.000236241
0.0141985
-0.000211099
0.0141904
-0.000186436
0.0141826
-0.0001622
0.0141754
-0.000138336
0.0141687
-0.000114793
0.0141628
-9.15149e-05
0.0141578
-6.84501e-05
0.0141537
-4.55448e-05
0.0141505
-2.27458e-05
0.0141484
0.0141473
-0.000828503
0.0137635
0.000855886
-0.000795266
0.0139366
-0.000759684
0.0140318
-0.000723479
0.01409
-0.000687433
0.0141281
-0.000651923
0.0141555
-0.0006171
0.0141763
-0.000583038
0.0141919
-0.00054977
0.0142034
-0.000517313
0.0142111
-0.000485672
0.0142154
-0.000454842
0.0142169
-0.000424807
0.014216
-0.000395548
0.014213
-0.000367034
0.0142084
-0.000339234
0.0142026
-0.000312108
0.0141959
-0.000285616
0.0141885
-0.000259713
0.0141809
-0.000234355
0.0141732
-0.000209494
0.0141655
-0.000185082
0.0141582
-0.000161069
0.0141513
-0.000137407
0.0141451
-0.000114046
0.0141395
-9.09356e-05
0.0141347
-6.80261e-05
0.0141307
-4.52671e-05
0.0141277
-2.26084e-05
0.0141257
0.0141247
-0.00080641
0.0137381
0.000831879
-0.000775255
0.0139054
-0.000741725
0.0139982
-0.000707432
0.0140557
-0.000673135
0.0140938
-0.000639206
0.0141216
-0.000605805
0.0141429
-0.000573019
0.0141591
-0.000540897
0.0141713
-0.000509466
0.0141796
-0.000478744
0.0141847
-0.000448734
0.0141869
-0.000419434
0.0141867
-0.000390829
0.0141844
-0.000362901
0.0141805
-0.000335621
0.0141753
-0.000308961
0.0141692
-0.000282883
0.0141625
-0.00025735
0.0141554
-0.000232322
0.0141481
-0.000207756
0.014141
-0.000183609
0.0141341
-0.000159835
0.0141276
-0.00013639
0.0141216
-0.000113226
0.0141163
-9.02976e-05
0.0141117
-6.7558e-05
0.014108
-4.496e-05
0.0141052
-2.24564e-05
0.0141032
0.0141023
-0.000784409
0.0137144
0.000808031
-0.000755265
0.0138763
-0.000723721
0.0139667
-0.000691286
0.0140232
-0.000658695
0.0140612
-0.000626316
0.0140892
-0.000594315
0.0141109
-0.000562792
0.0141276
-0.000531806
0.0141403
-0.000501398
0.0141492
-0.000471593
0.0141549
-0.000442409
0.0141577
-0.000413848
0.0141581
-0.000385906
0.0141564
-0.000358572
0.0141531
-0.000331824
0.0141486
-0.00030564
0.014143
-0.000279988
0.0141368
-0.000254838
0.0141302
-0.000230153
0.0141235
-0.000205896
0.0141167
-0.000182027
0.0141102
-0.000158505
0.0141041
-0.00013529
0.0140984
-0.000112337
0.0140934
-8.96048e-05
0.014089
-6.70489e-05
0.0140854
-4.46255e-05
0.0140827
-2.22906e-05
0.0140809
0.01408
-0.00076257
0.0136926