/*--------------------------------*- C++ -*----------------------------------*\
  =========                 |
  \\      /  F ield         | OpenFOAM: The Open Source CFD Toolbox
   \\    /   O peration     | Website:  https://openfoam.org
    \\  /    A nd           | Version:  7
     \\/     M anipulation  |
\*---------------------------------------------------------------------------*/
FoamFile
{
    version     2.0;
    format      ascii;
    class       volVectorField;
    location    "30";
    object      U;
}
// * * * * * * * * * * * * * * * * * * * * * * * * * * * * * * * * * * * * * //

dimensions      [0 1 -1 0 0 0 0];

internalField   nonuniform List<vector> 
3500
(
(-0.228733 -0.000888763 2.01842e-20)
(-0.227489 -0.0010245 -2.10336e-20)
(-0.226078 -0.0011649 8.85284e-21)
(-0.224494 -0.00131015 1.08991e-20)
(-0.222731 -0.00146039 -1.96021e-20)
(-0.220782 -0.00161573 2.29214e-20)
(-0.218642 -0.00177626 -2.24582e-20)
(-0.216303 -0.001942 2.67795e-20)
(-0.21376 -0.00211299 -1.22121e-20)
(-0.211005 -0.00228919 -4.73972e-21)
(-0.208033 -0.00247052 8.50465e-22)
(-0.204836 -0.0026569 7.19169e-21)
(-0.201409 -0.00284819 4.19683e-21)
(-0.197745 -0.00304419 1.08325e-22)
(-0.193839 -0.0032447 -1.11055e-20)
(-0.189685 -0.00344946 -1.26279e-21)
(-0.185278 -0.00365821 -3.56958e-21)
(-0.180612 -0.00387059 7.5229e-21)
(-0.175683 -0.00408609 -6.42248e-22)
(-0.170487 -0.00430389 8.08354e-21)
(-0.16502 -0.00452333 -1.54668e-20)
(-0.159277 -0.00474424 7.81996e-21)
(-0.153261 -0.00496407 6.0243e-22)
(-0.146972 -0.00518443 -1.3237e-20)
(-0.140408 -0.00540495 6.36897e-21)
(-0.133571 -0.00562466 2.88925e-21)
(-0.12646 -0.00584281 1.65416e-21)
(-0.119078 -0.00605872 -3.86867e-21)
(-0.111428 -0.00627169 2.38181e-22)
(-0.103511 -0.00648107 1.20268e-20)
(-0.0953327 -0.00668618 -1.74952e-20)
(-0.0868981 -0.00688641 1.20213e-20)
(-0.0782129 -0.0070812 1.61389e-21)
(-0.0692841 -0.00727048 -1.65417e-21)
(-0.0601176 -0.00745492 -1.24636e-21)
(-0.0507207 -0.00763147 1.32078e-21)
(-0.0411048 -0.00779682 -2.52576e-21)
(-0.0312806 -0.00795387 -2.35741e-22)
(-0.0212574 -0.00810263 -6.11697e-22)
(-0.011046 -0.00824241 3.18559e-22)
(-0.000656685 -0.00837259 1.63523e-21)
(0.00989949 -0.00849312 -3.04028e-21)
(0.0206097 -0.00860387 -7.69558e-22)
(0.0314614 -0.00870446 2.4552e-21)
(0.0424426 -0.00879473 1.6606e-21)
(0.0535407 -0.00887461 -1.97898e-21)
(0.0647431 -0.00894409 7.91208e-22)
(0.0760368 -0.00900321 -2.06052e-21)
(0.0874093 -0.00905205 1.35094e-21)
(0.0988478 -0.00909075 9.61301e-22)
(0.11034 -0.00911949 -7.32409e-22)
(0.121874 -0.00913849 2.66748e-22)
(0.133436 -0.00914802 4.35471e-22)
(0.145017 -0.00914838 -1.395e-21)
(0.156604 -0.00913991 1.40417e-21)
(0.168186 -0.00912296 -1.18342e-21)
(0.179753 -0.00909793 1.00198e-21)
(0.191296 -0.00906521 -7.44114e-22)
(0.202803 -0.00902525 1.13885e-23)
(0.214267 -0.00897847 1.83224e-22)
(0.225679 -0.00892534 -1.30504e-22)
(0.23703 -0.00886632 -8.03772e-23)
(0.248314 -0.00880187 2.36307e-23)
(0.259524 -0.00873246 -2.07264e-22)
(0.270653 -0.00865856 6.13683e-23)
(0.281697 -0.00858064 2.5001e-24)
(0.292649 -0.00849917 1.29082e-22)
(0.303505 -0.00841461 -5.76436e-23)
(0.314262 -0.0083274 -5.7436e-23)
(0.324916 -0.008238 2.67184e-23)
(0.335464 -0.00814685 5.5206e-24)
(0.345904 -0.00805439 1.71876e-23)
(0.356234 -0.00796102 -1.43827e-23)
(0.366454 -0.00786719 -2.86084e-23)
(0.376562 -0.0077733 4.57644e-23)
(0.386558 -0.00767977 1.99471e-23)
(0.396444 -0.00758701 -6.09468e-23)
(0.406219 -0.00749543 5.82213e-23)
(0.415886 -0.00740547 -3.80081e-23)
(0.425446 -0.00731754 2.06768e-23)
(0.434903 -0.00723215 3.43517e-24)
(0.444257 -0.00714968 -1.94822e-23)
(0.453519 -0.00707089 5.73397e-24)
(0.46268 -0.00699593 3.0672e-23)
(0.47178 -0.00692626 -1.80884e-23)
(0.480733 -0.00686147 5.77728e-24)
(0.489787 -0.00680403 1.24482e-23)
(0.498338 -0.00675437 -3.23203e-24)
(0.507984 -0.00671046 -2.82383e-24)
(0.514784 -0.00668921 1.44301e-24)
(0.529169 -0.00665554 1.17544e-24)
(-0.181111 -0.00319245 -7.81649e-21)
(-0.179322 -0.00360128 5.88299e-20)
(-0.177364 -0.00402299 2.98757e-20)
(-0.175231 -0.00445809 -3.38856e-20)
(-0.17292 -0.00490704 5.5492e-20)
(-0.170424 -0.00537016 -6.18901e-20)
(-0.167738 -0.0058477 6.04708e-20)
(-0.164857 -0.00633978 -4.38149e-20)
(-0.161775 -0.00684644 -3.30645e-20)
(-0.158488 -0.00736757 -7.19285e-21)
(-0.15499 -0.00790298 -2.20753e-21)
(-0.151275 -0.00845233 4.18047e-20)
(-0.147339 -0.00901519 1.88186e-20)
(-0.143178 -0.009591 -4.11016e-20)
(-0.138785 -0.0101791 3.55646e-20)
(-0.134158 -0.0107788 3.66879e-21)
(-0.129293 -0.0113892 -3.18066e-20)
(-0.124184 -0.0120096 2.87216e-21)
(-0.11883 -0.0126388 1.0957e-20)
(-0.113227 -0.0132755 4.53538e-21)
(-0.107375 -0.0139201 -1.42675e-22)
(-0.101266 -0.0145775 -7.92049e-21)
(-0.0949005 -0.0152206 -2.09284e-20)
(-0.0882861 -0.0158599 1.18111e-20)
(-0.0814214 -0.0164991 -5.93366e-21)
(-0.0743065 -0.0171357 1.50242e-20)
(-0.0669433 -0.0177675 -3.88297e-22)
(-0.0593344 -0.0183926 7.3272e-21)
(-0.051483 -0.0190088 -2.14777e-20)
(-0.0433931 -0.0196141 1.23108e-20)
(-0.0350695 -0.0202066 4.85361e-21)
(-0.0265176 -0.0207845 -1.86378e-20)
(-0.0177453 -0.021346 3.05056e-20)
(-0.00876295 -0.0218894 -1.46034e-20)
(0.0004277 -0.0224114 -1.01879e-20)
(0.00982877 -0.0229098 1.88755e-20)
(0.0194216 -0.0233844 -3.54715e-21)
(0.0291885 -0.0238347 -3.88752e-21)
(0.0391244 -0.0242593 -1.07993e-21)
(0.0492202 -0.0246569 6.37432e-21)
(0.0594653 -0.0250261 4.93956e-21)
(0.0698484 -0.0253664 -1.91895e-20)
(0.0803581 -0.0256773 3.07219e-21)
(0.0909825 -0.0259581 1.10482e-21)
(0.10171 -0.0262085 -1.8309e-21)
(0.112528 -0.0264283 9.81631e-21)
(0.123426 -0.0266175 1.36595e-21)
(0.134391 -0.0267763 -2.87525e-21)
(0.145411 -0.0269049 -3.49806e-21)
(0.156474 -0.0270038 5.19281e-21)
(0.16757 -0.0270737 -2.19607e-21)
(0.178686 -0.027115 5.52194e-21)
(0.189812 -0.0271288 -5.02287e-21)
(0.200937 -0.0271158 -9.34459e-24)
(0.212051 -0.0270772 1.20878e-21)
(0.223144 -0.0270139 -8.59254e-22)
(0.234206 -0.0269273 -7.18123e-23)
(0.24523 -0.0268184 7.62155e-22)
(0.256205 -0.0266885 4.69375e-22)
(0.267124 -0.0265391 4.40339e-23)
(0.277981 -0.0263714 -3.51918e-22)
(0.288767 -0.0261868 2.57135e-22)
(0.299477 -0.0259867 -7.23161e-22)
(0.310104 -0.0257725 -7.1781e-23)
(0.320644 -0.0255455 2.11478e-22)
(0.331092 -0.0253072 -8.94684e-23)
(0.341444 -0.025059 5.35652e-22)
(0.351695 -0.0248021 -2.99923e-22)
(0.361844 -0.024538 5.14624e-23)
(0.371887 -0.0242679 4.4585e-23)
(0.381823 -0.0239932 -7.71298e-23)
(0.39165 -0.0237151 -1.95169e-23)
(0.401367 -0.0234348 5.53005e-23)
(0.410974 -0.0231536 -7.86401e-23)
(0.42047 -0.0228728 -1.19697e-23)
(0.429856 -0.0225934 1.70266e-22)
(0.439134 -0.0223168 -7.42606e-23)
(0.448304 -0.0220442 -8.99585e-23)
(0.457368 -0.0217767 1.13545e-22)
(0.46633 -0.0215157 -1.63341e-22)
(0.475193 -0.0212626 2.54321e-22)
(0.483957 -0.0210184 -1.29752e-22)
(0.492635 -0.0207854 -8.50808e-23)
(0.501212 -0.0205642 8.41791e-23)
(0.509743 -0.0203585 -8.71702e-23)
(0.518113 -0.0201681 -2.08568e-23)
(0.526624 -0.0199979 -1.72243e-23)
(0.534574 -0.019853 -5.34523e-24)
(0.543712 -0.0197213 3.53378e-23)
(0.549933 -0.0196571 -4.49221e-24)
(0.563493 -0.0195642 -5.4004e-24)
(-0.0919213 -0.00685544 4.89204e-21)
(-0.0892636 -0.00753641 -7.32798e-20)
(-0.0864325 -0.0082367 3.42196e-20)
(-0.0834249 -0.00895699 5.489e-21)
(-0.0802375 -0.00969787 -5.3963e-20)
(-0.0768669 -0.0104598 1.21801e-21)
(-0.0733097 -0.011243 5.41265e-20)
(-0.0695627 -0.0120476 -5.45187e-20)
(-0.0656226 -0.0128736 2.29923e-20)
(-0.061486 -0.0137209 -5.15052e-20)
(-0.05715 -0.0145889 9.99778e-20)
(-0.0526115 -0.0154771 9.03981e-21)
(-0.0478678 -0.0163849 -8.42759e-20)
(-0.0429164 -0.0173112 3.30715e-20)
(-0.0377548 -0.0182551 -5.21041e-20)
(-0.0323812 -0.0192152 3.57422e-20)
(-0.0267941 -0.0201903 -3.32643e-21)
(-0.0209922 -0.0211787 4.53852e-20)
(-0.0149744 -0.022179 -8.36559e-20)
(-0.00874487 -0.0231898 3.56932e-20)
(-0.00232314 -0.0242104 -2.92848e-20)
(0.00433727 -0.025228 1.35246e-20)
(0.0112488 -0.0262383 4.68366e-20)
(0.0183588 -0.0272475 -2.39419e-20)
(0.0256704 -0.0282535 2.6645e-20)
(0.0331889 -0.0292528 -2.70781e-20)
(0.040912 -0.030242 -1.68148e-20)
(0.048836 -0.0312179 3.99464e-20)
(0.0569565 -0.0321776 -7.62504e-21)
(0.0652684 -0.0331177 5.22798e-21)
(0.073766 -0.0340353 7.3658e-21)
(0.0824429 -0.0349277 -1.26771e-20)
(0.0912921 -0.0357923 -1.52113e-20)
(0.100305 -0.0366258 1.84905e-20)
(0.109475 -0.0374219 -2.43582e-20)
(0.118795 -0.0381791 -6.42007e-22)
(0.128256 -0.0389003 2.30722e-20)
(0.137847 -0.0395813 8.67048e-21)
(0.147559 -0.0402196 -7.30757e-21)
(0.157381 -0.0408136 -1.78647e-20)
(0.167304 -0.0413617 2.61934e-20)
(0.177317 -0.0418628 -2.16972e-20)
(0.18741 -0.042316 -5.05183e-21)
(0.197572 -0.0427206 1.99411e-20)
(0.207792 -0.0430762 -5.84525e-21)
(0.21806 -0.0433828 5.58034e-21)
(0.228365 -0.0436404 -5.19268e-21)
(0.238696 -0.0438494 -5.61405e-21)
(0.249044 -0.0440104 -2.30045e-21)
(0.259399 -0.0441242 7.74271e-21)
(0.269749 -0.0441918 -5.56211e-21)
(0.280087 -0.0442145 -3.17185e-21)
(0.290402 -0.0441936 7.27137e-21)
(0.300687 -0.0441307 -5.79436e-21)
(0.310932 -0.0440276 -7.03468e-24)
(0.321129 -0.043886 3.89862e-21)
(0.331271 -0.043708 1.05393e-21)
(0.341351 -0.0434954 3.26213e-22)
(0.351362 -0.0432505 -1.2891e-21)
(0.361299 -0.0429754 3.37269e-22)
(0.371155 -0.0426724 -1.98051e-21)
(0.380925 -0.0423436 2.74825e-21)
(0.390606 -0.0419913 -1.98919e-21)
(0.400192 -0.0416178 2.13445e-22)
(0.40968 -0.0412253 2.70294e-22)
(0.419067 -0.0408161 1.2632e-21)
(0.428351 -0.0403923 -4.86103e-22)
(0.437529 -0.0399563 -1.43603e-22)
(0.446599 -0.03951 -4.42692e-22)
(0.455562 -0.0390557 1.36248e-22)
(0.464415 -0.0385953 4.66431e-23)
(0.473158 -0.038131 -1.38598e-23)
(0.481792 -0.0376647 5.87195e-24)
(0.490318 -0.0371983 1.84161e-23)
(0.498736 -0.0367339 1.6723e-22)
(0.507048 -0.0362733 -8.42801e-23)
(0.515255 -0.0358184 5.27054e-23)
(0.523361 -0.0353712 -3.14732e-22)
(0.531367 -0.0349336 -4.75752e-23)
(0.539276 -0.0345076 2.10266e-22)
(0.547095 -0.0340955 1.14588e-22)
(0.554821 -0.0336991 -2.19857e-22)
(0.562473 -0.0333215 2.00392e-22)
(0.570023 -0.0329642 5.84222e-23)
(0.577553 -0.0326316 -1.51364e-22)
(0.584896 -0.0323263 8.47593e-23)
(0.592449 -0.0320496 -1.99521e-24)
(0.599351 -0.0318195 3.16337e-24)
(0.607563 -0.031603 -8.67602e-25)
(0.612819 -0.0314943 2.52323e-23)
(0.624883 -0.0313564 -1.10515e-24)
(0.0337666 -0.0130108 1.66226e-20)
(0.0374568 -0.013993 -1.66025e-19)
(0.0413279 -0.0149979 4.48391e-21)
(0.045381 -0.0160264 5.58325e-20)
(0.0496169 -0.0170788 5.9145e-20)
(0.0540365 -0.0181554 4.92439e-21)
(0.0586405 -0.0192564 3.08232e-20)
(0.0634296 -0.0203816 -4.43979e-20)
(0.0684043 -0.0215306 7.56839e-21)
(0.073565 -0.022703 2.33531e-20)
(0.0789118 -0.0238979 7.35431e-22)
(0.0844446 -0.0251144 -7.19694e-20)
(0.0901633 -0.026351 1.09449e-20)
(0.0960673 -0.0276065 2.3211e-20)
(0.102156 -0.028879 3.14164e-21)
(0.108427 -0.0301666 7.41308e-21)
(0.114881 -0.0314673 -2.44855e-20)
(0.121514 -0.0327788 6.10861e-20)
(0.128325 -0.0340999 -9.60731e-20)
(0.135307 -0.0354272 2.40299e-20)
(0.142462 -0.0367366 -5.20753e-20)
(0.149792 -0.0380462 1.4017e-19)
(0.157288 -0.0393535 -8.10699e-20)
(0.164946 -0.0406515 -2.55202e-20)
(0.172762 -0.0419361 -3.78199e-20)
(0.180729 -0.0432032 4.9653e-20)
(0.188843 -0.044449 -3.66455e-21)
(0.197098 -0.0456693 -2.3282e-20)
(0.205487 -0.0468602 1.96163e-20)
(0.214003 -0.0480179 1.90546e-20)
(0.22264 -0.0491385 7.56066e-21)
(0.231389 -0.0502187 -6.28173e-20)
(0.240243 -0.0512549 3.30921e-20)
(0.249194 -0.0522432 1.14158e-20)
(0.258233 -0.0531803 -2.81685e-21)
(0.267354 -0.054064 -3.29308e-20)
(0.276545 -0.0548916 4.26585e-22)
(0.285799 -0.055661 2.70879e-20)
(0.295106 -0.0563702 -1.04837e-20)
(0.304457 -0.0570176 2.41928e-20)
(0.313843 -0.0576018 2.39143e-22)
(0.323255 -0.058122 -7.70593e-21)
(0.332683 -0.0585773 1.06857e-20)
(0.342118 -0.0589676 -2.3923e-20)
(0.351552 -0.0592929 1.02613e-20)
(0.360977 -0.0595535 4.77136e-21)
(0.370382 -0.0597501 -2.8861e-21)
(0.379762 -0.0598837 -1.27631e-20)
(0.389106 -0.0599556 1.11825e-20)
(0.398409 -0.0599673 1.02041e-20)
(0.407662 -0.0599207 -7.43572e-21)
(0.416859 -0.0598176 -3.60768e-21)
(0.425993 -0.0596605 -2.40135e-21)
(0.435058 -0.0594516 8.37019e-21)
(0.444049 -0.0591936 -9.01577e-21)
(0.45296 -0.0588891 2.35676e-21)
(0.461786 -0.0585409 -2.06898e-21)
(0.470524 -0.058152 9.24102e-22)
(0.479169 -0.0577252 1.35378e-21)
(0.487717 -0.0572637 6.09486e-22)
(0.496167 -0.0567704 -3.51019e-22)
(0.504514 -0.0562484 -9.50113e-23)
(0.512758 -0.0557007 5.25594e-22)
(0.520896 -0.0551304 9.01383e-22)
(0.528928 -0.0545404 -9.26549e-22)
(0.536851 -0.0539336 2.73596e-22)
(0.544666 -0.0533131 -7.26502e-22)
(0.552373 -0.0526815 6.08312e-22)
(0.559971 -0.0520418 -4.38589e-22)
(0.567463 -0.0513966 -5.13562e-23)
(0.574847 -0.0507486 -1.95297e-23)
(0.582127 -0.0501004 -5.20562e-23)
(0.589303 -0.0494547 7.33893e-23)
(0.596378 -0.0488139 -6.41845e-23)
(0.603354 -0.0481805 -2.61765e-23)
(0.610233 -0.047557 1.87705e-22)
(0.617019 -0.046946 -2.62787e-22)
(0.623716 -0.0463501 -1.95007e-23)
(0.630324 -0.0457716 -8.85872e-23)
(0.636855 -0.0452136 5.42753e-23)
(0.643298 -0.0446785 2.24377e-22)
(0.649686 -0.0441697 -8.12846e-23)
(0.655969 -0.0436908 1.15722e-22)
(0.662266 -0.0432436 -1.92922e-22)
(0.668346 -0.0428379 -3.26707e-23)
(0.674707 -0.0424644 5.75312e-23)
(0.680344 -0.0421606 -7.36337e-24)
(0.687356 -0.0418669 -1.27414e-23)
(0.691516 -0.0417127 6.99608e-24)
(0.701674 -0.0415347 -2.6398e-24)
(0.181879 -0.0196302 9.23156e-20)
(0.18609 -0.0208929 -9.69551e-20)
(0.19049 -0.022178 1.97232e-19)
(0.195076 -0.0234861 -1.69001e-19)
(0.199847 -0.0248174 -2.17862e-23)
(0.2048 -0.0261723 1.24347e-19)
(0.209935 -0.0275505 4.89673e-20)
(0.215247 -0.0289518 -9.58478e-20)
(0.220736 -0.0303756 -2.65133e-20)
(0.226397 -0.0318211 -7.39136e-22)
(0.232229 -0.0332871 -1.99841e-20)
(0.238228 -0.0347723 -9.94858e-21)
(0.24439 -0.0362752 8.47088e-20)
(0.250713 -0.0377938 -8.44974e-20)
(0.257192 -0.039326 2.55307e-21)
(0.263824 -0.0408694 5.65094e-20)
(0.270603 -0.0424211 1.20886e-20)
(0.277525 -0.0439783 2.70801e-20)
(0.284586 -0.0455379 -5.42733e-20)
(0.291778 -0.0470968 -7.96716e-21)
(0.299097 -0.0486481 4.74174e-20)
(0.306539 -0.0501887 1.85145e-20)
(0.3141 -0.0517148 -6.10578e-20)
(0.321771 -0.0532225 1.6092e-20)
(0.329547 -0.0547078 -3.58454e-20)
(0.33742 -0.0561665 4.96893e-20)
(0.345383 -0.057594 -1.18212e-19)
(0.35343 -0.058986 6.89188e-20)
(0.361553 -0.0603381 -1.96107e-20)
(0.369743 -0.0616457 4.65706e-20)
(0.377995 -0.0629047 -2.4526e-20)
(0.386299 -0.0641111 1.9798e-20)
(0.394647 -0.0652608 -7.49486e-20)
(0.403033 -0.06635 1.03179e-19)
(0.411448 -0.0673753 -4.01474e-20)
(0.419884 -0.0683338 2.49209e-20)
(0.428333 -0.0692228 -2.71439e-20)
(0.436787 -0.0700399 1.35625e-20)
(0.445239 -0.0707831 -1.45826e-20)
(0.45368 -0.0714507 1.4722e-20)
(0.462104 -0.0720415 4.77218e-21)
(0.470503 -0.0725546 -2.16489e-20)
(0.47887 -0.0729896 -4.73255e-21)
(0.487197 -0.0733465 1.00455e-20)
(0.495479 -0.0736256 -7.73513e-21)
(0.503709 -0.0738276 -5.74335e-21)
(0.511881 -0.0739538 1.43128e-20)
(0.519989 -0.0740054 3.93648e-22)
(0.528029 -0.0739843 -1.06756e-20)
(0.535994 -0.0738927 -5.29776e-21)
(0.543881 -0.0737329 1.35914e-20)
(0.551685 -0.0735075 -2.45578e-21)
(0.559403 -0.0732194 -6.42412e-21)
(0.56703 -0.0728717 4.23452e-22)
(0.574564 -0.0724676 7.85339e-21)
(0.582002 -0.0720105 -1.27029e-21)
(0.589341 -0.0715038 -2.61083e-21)
(0.59658 -0.0709513 5.90691e-21)
(0.603718 -0.0703565 -2.87173e-21)
(0.610752 -0.0697232 -2.45254e-21)
(0.617682 -0.0690549 -4.85265e-22)
(0.624507 -0.0683555 -3.60972e-21)
(0.631228 -0.0676286 3.99351e-21)
(0.637843 -0.0668779 -6.19614e-22)
(0.644354 -0.066107 -1.15354e-23)
(0.650761 -0.0653193 4.5963e-22)
(0.657065 -0.0645184 3.05792e-22)
(0.663268 -0.0637077 -8.18848e-22)
(0.669371 -0.0628905 5.35058e-22)
(0.675375 -0.0620701 1.47151e-22)
(0.681282 -0.0612495 -5.26792e-22)
(0.687096 -0.060432 9.78228e-23)
(0.692818 -0.0596205 1.30588e-22)
(0.698451 -0.0588181 -2.88029e-24)
(0.703997 -0.0580277 1.97027e-23)
(0.709461 -0.0572523 -6.56367e-23)
(0.714845 -0.0564947 8.30797e-23)
(0.720154 -0.055758 -2.28252e-24)
(0.725388 -0.0550452 -1.00337e-22)
(0.73056 -0.0543592 8.82824e-23)
(0.735654 -0.0537041 1.0593e-22)
(0.740715 -0.0530816 3.05109e-24)
(0.74567 -0.052499 -2.74722e-22)
(0.750674 -0.0519532 1.93149e-22)
(0.755442 -0.0514634 2.39123e-25)
(0.760536 -0.0510063 -2.45539e-23)
(0.764896 -0.0506402 3.82659e-23)
(0.770579 -0.0502805 3.28534e-23)
(0.773703 -0.0500834 1.0253e-23)
(0.781811 -0.0498611 -1.8258e-24)
(0.349032 -0.0263755 -4.27542e-20)
(0.353177 -0.0279381 -5.72451e-20)
(0.357525 -0.029517 -5.24138e-20)
(0.36207 -0.0311128 1.57862e-19)
(0.366806 -0.032726 1.7392e-21)
(0.371729 -0.0343565 1.44037e-20)
(0.376833 -0.0360043 -8.87374e-20)
(0.382111 -0.0376688 8.81298e-20)
(0.387559 -0.0393493 -5.22828e-21)
(0.393169 -0.041045 8.20812e-21)
(0.398937 -0.0427544 -1.91752e-19)
(0.404855 -0.0444761 6.71442e-20)
(0.410917 -0.0462082 1.28952e-19)
(0.417116 -0.0479486 -1.20497e-19)
(0.423446 -0.0496949 -8.25476e-20)
(0.429899 -0.0514443 4.29518e-20)
(0.436469 -0.053194 3.21018e-20)
(0.443147 -0.0549405 1.44426e-20)
(0.449927 -0.0566802 -3.55738e-20)
(0.456801 -0.0584092 1.40242e-19)
(0.46376 -0.0601228 -1.0828e-19)
(0.470797 -0.0618165 4.60671e-20)
(0.477906 -0.0634865 -7.10697e-20)
(0.485078 -0.0651283 3.39414e-20)
(0.492304 -0.0667375 2.77918e-20)
(0.499578 -0.0683093 1.75943e-21)
(0.506891 -0.0698392 -1.59935e-20)
(0.514235 -0.0713224 -2.23904e-20)
(0.521602 -0.0727543 1.60848e-20)
(0.528983 -0.0741305 -4.33373e-20)
(0.536373 -0.0754465 4.02206e-20)
(0.543761 -0.0766982 2.89225e-21)
(0.551142 -0.0778816 -7.79427e-21)
(0.558508 -0.0789932 6.93867e-21)
(0.565851 -0.0800294 -4.44196e-20)
(0.573166 -0.0809873 -2.48516e-20)
(0.580444 -0.0818642 9.09167e-20)
(0.587681 -0.082658 -9.0983e-20)
(0.59487 -0.0833667 1.11086e-19)
(0.602005 -0.083989 -3.55059e-20)
(0.609081 -0.084524 2.44298e-20)
(0.616092 -0.0849711 -7.12581e-20)
(0.623035 -0.0853303 -1.70244e-21)
(0.629904 -0.0856018 1.47634e-20)
(0.636696 -0.0857866 8.05823e-21)
(0.643408 -0.0858857 1.15143e-22)
(0.650035 -0.0859008 2.41434e-20)
(0.656575 -0.0858338 -2.31579e-20)
(0.663025 -0.0856871 1.39278e-20)
(0.669383 -0.0854633 1.14768e-21)
(0.675648 -0.0851653 -1.39409e-21)
(0.681817 -0.0847963 -1.58696e-20)
(0.68789 -0.0843598 8.75973e-21)
(0.693865 -0.0838593 4.00402e-21)
(0.699743 -0.0832988 4.90532e-21)
(0.705521 -0.0826821 -7.10296e-21)
(0.711202 -0.0820132 -1.12661e-20)
(0.716784 -0.0812964 3.07313e-21)
(0.722269 -0.0805358 7.3399e-21)
(0.727656 -0.0797355 -3.56435e-21)
(0.732947 -0.0788999 6.13058e-23)
(0.738144 -0.078033 2.32439e-21)
(0.743246 -0.0771391 -1.17694e-21)
(0.748256 -0.0762223 -1.2327e-21)
(0.753175 -0.0752865 3.06864e-21)
(0.758006 -0.0743357 -2.38463e-21)
(0.76275 -0.0733739 1.4583e-21)
(0.767409 -0.0724048 -3.68894e-22)
(0.771985 -0.071432 -8.19822e-22)
(0.776482 -0.0704593 8.74976e-23)
(0.7809 -0.06949 -1.30016e-22)
(0.785244 -0.0685277 3.44494e-22)
(0.789516 -0.0675756 1.54886e-22)
(0.793718 -0.0666371 -1.12138e-22)
(0.797854 -0.0657155 -9.53096e-23)
(0.801927 -0.0648139 4.36599e-23)
(0.805939 -0.0639357 -1.03258e-22)
(0.809896 -0.0630837 1.12216e-22)
(0.813795 -0.0622621 -4.71918e-23)
(0.817654 -0.0614728 -3.969e-23)
(0.821449 -0.0607218 -1.13449e-22)
(0.825234 -0.0600085 1.70189e-22)
(0.828921 -0.0593447 -1.93208e-23)
(0.83268 -0.0587206 -5.22748e-23)
(0.836212 -0.0581654 9.24102e-24)
(0.840073 -0.0576425 7.22391e-24)
(0.843265 -0.057227 -6.36292e-23)
(0.847616 -0.0568143 5.50972e-23)
(0.84985 -0.0565821 -1.1401e-23)
(0.855974 -0.0563117 -3.05881e-24)
(0.531985 -0.0340574 -2.9324e-19)
(0.535607 -0.0359336 3.9446e-19)
(0.53944 -0.0378167 -3.89358e-19)
(0.543476 -0.0397072 2.00735e-19)
(0.547704 -0.0416053 -2.39743e-19)
(0.552116 -0.0435105 9.87548e-20)
(0.556702 -0.0454225 2.31887e-19)
(0.561453 -0.0473403 1.03528e-20)
(0.566359 -0.0492629 -3.92162e-20)
(0.57141 -0.0511888 -3.02779e-19)
(0.576597 -0.0531166 9.48825e-20)
(0.581911 -0.0550441 1.76295e-19)
(0.587342 -0.056969 -1.5072e-19)
(0.59288 -0.0588889 1.13657e-19)
(0.598516 -0.0608009 -1.12042e-19)
(0.60424 -0.0627019 1.36327e-19)
(0.610043 -0.0645884 -1.10404e-19)
(0.615915 -0.0664568 -5.78343e-20)
(0.621847 -0.0683032 4.38781e-20)
(0.627829 -0.0701233 1.11965e-20)
(0.633852 -0.0719127 -8.82176e-22)
(0.639907 -0.0736671 -6.43271e-20)
(0.645985 -0.075382 8.27577e-20)
(0.652078 -0.0770528 1.22078e-21)
(0.658176 -0.0786751 1.01296e-20)
(0.664272 -0.0802442 -1.1221e-20)
(0.670358 -0.0817555 -1.58502e-20)
(0.676425 -0.0832046 3.04931e-20)
(0.682466 -0.0845871 -3.42688e-20)
(0.688473 -0.0858988 -5.88371e-21)
(0.694441 -0.0871357 8.93682e-21)
(0.700362 -0.0882944 3.61349e-20)
(0.70623 -0.0893714 9.8626e-21)
(0.712041 -0.0903637 -4.55564e-20)
(0.717788 -0.0912686 6.22155e-20)
(0.723467 -0.0920838 -1.75378e-20)
(0.729074 -0.0928074 8.69178e-21)
(0.734605 -0.0934381 -5.92167e-20)
(0.740056 -0.0939748 -6.61353e-21)
(0.745424 -0.0944171 4.45406e-20)
(0.750707 -0.0947648 2.16325e-20)
(0.755903 -0.0950184 7.46218e-21)
(0.76101 -0.0951787 -3.21625e-20)
(0.766027 -0.095247 -2.58129e-22)
(0.770953 -0.0952248 -1.64056e-20)
(0.775786 -0.0951144 -1.41275e-20)
(0.780528 -0.094918 3.46552e-21)
(0.785177 -0.0946386 4.65838e-20)
(0.789735 -0.0942792 -7.92605e-21)
(0.794201 -0.0938431 -3.90153e-20)
(0.798578 -0.0933341 2.85496e-20)
(0.802865 -0.092756 -8.71145e-21)
(0.807063 -0.0921129 1.16529e-20)
(0.811176 -0.0914089 -1.02167e-20)
(0.815203 -0.0906484 2.2641e-21)
(0.819148 -0.0898358 1.08618e-20)
(0.823011 -0.0889757 -1.42398e-20)
(0.826794 -0.0880724 5.70974e-21)
(0.830501 -0.0871306 3.16089e-21)
(0.834132 -0.0861548 -4.89202e-21)
(0.83769 -0.0851494 4.85807e-22)
(0.841177 -0.0841188 -3.60073e-22)
(0.844596 -0.0830675 5.36198e-21)
(0.847949 -0.0819998 -3.41207e-21)
(0.851238 -0.0809198 -3.68744e-21)
(0.854466 -0.0798315 5.94318e-21)
(0.857634 -0.0787391 -3.77972e-21)
(0.860747 -0.0776464 -1.22593e-21)
(0.863805 -0.0765572 3.22275e-21)
(0.866811 -0.0754752 -9.17092e-22)
(0.869769 -0.074404 -2.40084e-22)
(0.87268 -0.0733471 6.73767e-22)
(0.875547 -0.072308 -5.52669e-22)
(0.878372 -0.0712902 1.69536e-22)
(0.881159 -0.0702968 4.5208e-23)
(0.883909 -0.0693316 -6.03557e-24)
(0.886627 -0.0683972 2.14288e-23)
(0.889309 -0.0674986 2.98117e-23)
(0.891973 -0.0666366 6.75492e-23)
(0.894592 -0.0658191 -6.08738e-23)
(0.897221 -0.0650428 -4.02755e-23)
(0.899772 -0.0643236 -5.02006e-23)
(0.902404 -0.063646 1.18414e-22)
(0.904847 -0.0630467 -7.83626e-23)
(0.90758 -0.0624789 3.25109e-23)
(0.909772 -0.0620299 -4.91377e-23)
(0.912881 -0.0615795 -7.89218e-24)
(0.91439 -0.0613234 1.16431e-23)
(0.918726 -0.0610092 -1.37403e-24)
(0.715025 -0.0400725 -1.38179e-19)
(0.717546 -0.0422883 1.80352e-19)
(0.720277 -0.0444931 -4.54655e-19)
(0.723204 -0.0466873 5.19253e-19)
(0.726316 -0.0488709 -2.09507e-19)
(0.729598 -0.0510437 -1.03343e-19)
(0.733038 -0.0532052 1.90345e-19)
(0.736625 -0.0553548 -2.72929e-19)
(0.740345 -0.0574913 4.51987e-19)
(0.744187 -0.0596134 -3.99873e-19)
(0.74814 -0.0617196 8.97587e-20)
(0.752191 -0.0638079 1.05746e-19)
(0.756329 -0.065876 -1.62143e-19)
(0.760542 -0.0679214 -3.589e-20)
(0.764821 -0.0699413 1.09408e-19)
(0.769153 -0.0719326 -1.74267e-19)
(0.773529 -0.073892 2.95017e-19)
(0.777939 -0.0758159 -1.59746e-19)
(0.782371 -0.0777006 2.8686e-20)
(0.786817 -0.0795421 6.66207e-20)
(0.791267 -0.0813364 -9.32303e-20)
(0.795713 -0.0830793 -8.88105e-22)
(0.800145 -0.0847669 8.73863e-20)
(0.804557 -0.0863949 -4.181e-20)
(0.808939 -0.0879591 -4.28202e-20)
(0.813285 -0.0894554 2.62948e-20)
(0.817588 -0.0908798 5.35588e-20)
(0.821842 -0.0922285 2.65175e-20)
(0.826041 -0.0934977 -2.52198e-20)
(0.830179 -0.0946841 -8.16385e-20)
(0.834252 -0.0957845 1.16756e-19)
(0.838255 -0.0967961 -7.45646e-20)
(0.842185 -0.0977164 5.63391e-20)
(0.846039 -0.0985432 -1.01816e-19)
(0.849814 -0.0992748 2.39215e-21)
(0.853508 -0.0999099 -9.33193e-21)
(0.85712 -0.100448 1.09043e-19)
(0.860648 -0.100887 -3.91529e-20)
(0.864092 -0.101229 3.90837e-20)
(0.867452 -0.101473 -1.37761e-20)
(0.870727 -0.101621 -6.77431e-20)
(0.873919 -0.101674 4.22365e-20)
(0.877028 -0.101632 5.06669e-21)
(0.880057 -0.1015 -3.95336e-20)
(0.883005 -0.101278 1.19899e-20)
(0.885876 -0.10097 2.99984e-20)
(0.88867 -0.100578 -3.93168e-20)
(0.891391 -0.100107 2.67141e-20)
(0.894041 -0.0995602 1.75376e-20)
(0.896621 -0.0989408 -2.96929e-20)
(0.899136 -0.0982533 1.28621e-20)
(0.901586 -0.0975021 7.00306e-21)
(0.903976 -0.0966914 1.31579e-21)
(0.906307 -0.0958258 -7.22014e-21)
(0.908583 -0.0949099 2.35852e-21)
(0.910806 -0.0939484 -9.63506e-21)
(0.912978 -0.0929457 5.86785e-21)
(0.915103 -0.0919067 -3.12765e-21)
(0.917183 -0.090836 5.56876e-21)
(0.91922 -0.089738 -3.0118e-21)
(0.921218 -0.0886174 -1.77395e-21)
(0.923178 -0.0874786 5.79392e-21)
(0.925102 -0.0863259 -6.40559e-21)
(0.926993 -0.0851636 2.09963e-21)
(0.928854 -0.0839958 2.01297e-21)
(0.930686 -0.0828267 -2.3084e-21)
(0.932491 -0.0816601 -4.09206e-23)
(0.934271 -0.0805 -7.72122e-23)
(0.936029 -0.0793501 -1.24643e-21)
(0.937766 -0.0782139 2.34536e-21)
(0.939485 -0.0770953 -9.51053e-22)
(0.941186 -0.0759975 1.87927e-22)
(0.942871 -0.0749243 -5.35023e-22)
(0.944544 -0.0738786 -2.33423e-22)
(0.946203 -0.0728647 2.63523e-22)
(0.947855 -0.0718846 1.70397e-22)
(0.949493 -0.070944 -2.43216e-22)
(0.951133 -0.0700428 1.07922e-22)
(0.952752 -0.0691903 -4.61377e-23)
(0.954392 -0.0683811 1.67359e-23)
(0.955984 -0.0676338 -1.50818e-23)
(0.957652 -0.0669289 2.82551e-23)
(0.959186 -0.066308 -4.04211e-23)
(0.960945 -0.0657174 8.15007e-24)
(0.962322 -0.0652518 -1.06964e-23)
(0.964349 -0.0647806 1.43121e-23)
(0.96529 -0.0645124 9.26226e-24)
(0.968105 -0.0641671 -2.33142e-24)
(0.882286 -0.0414091 -1.05903e-19)
(0.88317 -0.0439185 -1.09759e-20)
(0.884252 -0.0463982 -1.13277e-20)
(0.885518 -0.0488493 -3.7791e-19)
(0.886954 -0.0512726 8.40471e-20)
(0.888546 -0.0536684 2.89133e-20)
(0.89028 -0.0560368 4.23477e-19)
(0.892144 -0.0583775 -5.73832e-20)
(0.894125 -0.0606898 -1.20068e-19)
(0.89621 -0.0629727 1.38118e-19)
(0.898388 -0.065225 -9.82358e-20)
(0.900646 -0.0674451 -9.77135e-20)
(0.902973 -0.0696312 -8.14321e-20)
(0.905358 -0.071781 1.53438e-19)
(0.90779 -0.0738922 -3.25258e-19)
(0.910258 -0.0759622 3.10714e-19)
(0.912754 -0.0779881 7.48995e-21)
(0.915267 -0.0799669 -2.17692e-19)
(0.917788 -0.0818952 -8.79672e-20)
(0.920308 -0.0837698 2.66398e-19)
(0.922819 -0.0855871 -4.40488e-20)
(0.925314 -0.0873436 -1.30065e-19)
(0.927785 -0.0890356 1.54137e-19)
(0.930225 -0.0906596 -1.90697e-20)
(0.932629 -0.092212 -1.57302e-20)
(0.93499 -0.0936894 3.97227e-20)
(0.937304 -0.0950883 -3.57795e-20)
(0.939566 -0.0964055 1.36282e-20)
(0.941771 -0.097638 6.35331e-20)
(0.943918 -0.0987829 -7.14524e-20)
(0.946002 -0.0998377 3.06427e-20)
(0.948021 -0.1008 -1.83393e-20)
(0.949974 -0.101668 6.28336e-20)
(0.95186 -0.102439 -3.44106e-21)
(0.953677 -0.103113 -7.81099e-22)
(0.955427 -0.103688 -9.55082e-20)
(0.957108 -0.104165 4.56573e-21)
(0.958722 -0.104542 2.31139e-20)
(0.96027 -0.104821 -3.24281e-20)
(0.961754 -0.105001 3.69393e-20)
(0.963174 -0.105085 -1.48047e-21)
(0.964534 -0.105074 1.88844e-20)
(0.965836 -0.10497 2.00634e-20)
(0.967082 -0.104775 -2.7438e-20)
(0.968275 -0.104492 -2.16444e-20)
(0.969419 -0.104123 -1.79794e-20)
(0.970515 -0.103672 5.13285e-20)
(0.971567 -0.103143 -2.04954e-20)
(0.972579 -0.102539 1.2176e-22)
(0.973553 -0.101865 -3.51729e-20)
(0.974492 -0.101123 3.32089e-20)
(0.9754 -0.10032 -6.06604e-22)
(0.976279 -0.0994581 -2.55284e-20)
(0.977133 -0.0985432 4.04127e-20)
(0.977963 -0.0975794 -2.36723e-20)
(0.978774 -0.0965715 4.94407e-21)
(0.979567 -0.095524 -5.30204e-21)
(0.980344 -0.0944416 4.62456e-21)
(0.981109 -0.0933289 4.68295e-21)
(0.981864 -0.0921905 1.58902e-21)
(0.98261 -0.0910308 -4.45945e-21)
(0.983349 -0.0898544 -3.00428e-21)
(0.984084 -0.0886655 1.71822e-21)
(0.984815 -0.0874685 3.1416e-21)
(0.985545 -0.0862674 1.74802e-21)
(0.986275 -0.0850665 -1.99817e-21)
(0.987007 -0.0838696 2.62727e-21)
(0.987741 -0.0826805 -6.19327e-21)
(0.988479 -0.0815033 4.28873e-21)
(0.989222 -0.0803414 -2.74428e-21)
(0.989971 -0.0791986 1.10013e-21)
(0.990727 -0.0780782 6.65936e-22)
(0.99149 -0.0769841 -4.33335e-22)
(0.992262 -0.0759191 2.24804e-22)
(0.993043 -0.0748877 -4.97631e-22)
(0.993835 -0.0738917 -3.64735e-22)
(0.994634 -0.0729371 3.84222e-22)
(0.99545 -0.0720232 -9.85158e-23)
(0.996267 -0.0711602 3.634e-23)
(0.997112 -0.0703411 5.37287e-23)
(0.99794 -0.0695864 7.71315e-24)
(0.998828 -0.0688738 2.80032e-23)
(0.999645 -0.0682477 -5.90549e-24)
(1.00061 -0.0676502 1.15654e-23)
(1.00135 -0.0671803 3.55674e-24)
(1.00249 -0.0667004 -4.67848e-24)
(1.003 -0.0664277 4.272e-25)
(1.00458 -0.0660615 1.78273e-24)
(1.0227 -0.0426217 1.4473e-19)
(1.02207 -0.0454608 -3.8023e-19)
(1.0216 -0.0482459 2.5354e-19)
(1.02127 -0.0509789 -1.18569e-19)
(1.02107 -0.0536614 2.19214e-19)
(1.021 -0.0562944 -4.11399e-19)
(1.02103 -0.0588789 4.48132e-19)
(1.02117 -0.0614151 -3.32863e-19)
(1.02139 -0.063903 2.6947e-19)
(1.0217 -0.0663423 -1.6719e-19)
(1.02207 -0.0687323 -1.04519e-19)
(1.0225 -0.0710718 3.04419e-19)
(1.02298 -0.0733595 -2.93366e-19)
(1.0235 -0.0755937 -1.79313e-19)
(1.02405 -0.0777726 2.77001e-19)
(1.02463 -0.0798939 -1.19082e-21)
(1.02522 -0.0819554 1.01727e-19)
(1.02581 -0.0839544 -7.37422e-20)
(1.02641 -0.0858884 9.35508e-20)
(1.02701 -0.0877543 -2.01804e-19)
(1.02759 -0.0895494 -1.10327e-19)
(1.02815 -0.0912707 9.82257e-20)
(1.02869 -0.0929153 9.68661e-20)
(1.02921 -0.0944802 1.10344e-19)
(1.02969 -0.0959625 -8.27177e-20)
(1.03014 -0.0973595 -7.64755e-21)
(1.03056 -0.0986686 -5.35424e-20)
(1.03093 -0.0998873 -5.49035e-20)
(1.03126 -0.101013 1.00972e-19)
(1.03155 -0.102045 1.0546e-23)
(1.03179 -0.10298 -5.51535e-20)
(1.03199 -0.103817 1.91533e-20)
(1.03215 -0.104554 -3.82417e-20)
(1.03226 -0.105192 1.5485e-20)
(1.03233 -0.105729 4.27503e-20)
(1.03236 -0.106165 -2.76494e-20)
(1.03235 -0.106501 -3.15151e-20)
(1.0323 -0.106738 2.93778e-20)
(1.03221 -0.106875 4.78284e-20)
(1.03209 -0.106916 -7.62437e-20)
(1.03194 -0.106862 3.85998e-20)
(1.03176 -0.106714 -3.30724e-20)
(1.03156 -0.106476 5.67452e-20)