/*--------------------------------*- C++ -*----------------------------------*\
  =========                 |
  \\      /  F ield         | OpenFOAM: The Open Source CFD Toolbox
   \\    /   O peration     | Website:  https://openfoam.org
    \\  /    A nd           | Version:  7
     \\/     M anipulation  |
\*---------------------------------------------------------------------------*/
FoamFile
{
    version     2.0;
    format      ascii;
    class       volScalarField;
    location    "20.001";
    object      p;
}
// * * * * * * * * * * * * * * * * * * * * * * * * * * * * * * * * * * * * * //

dimensions      [0 2 -2 0 0 0 0];

internalField   nonuniform List<scalar> 
14800
(
-0.297787
-0.30078
-0.30176
-0.302826
-0.303815
-0.304795
-0.305749
-0.306635
-0.307405
-0.308013
-0.308416
-0.308583
-0.3085
-0.308174
-0.307678
-0.298051
-0.300996
-0.301961
-0.303013
-0.303992
-0.304964
-0.305912
-0.306794
-0.307562
-0.308167
-0.308567
-0.308726
-0.308622
-0.308268
-0.307654
-0.298572
-0.301423
-0.302358
-0.303381
-0.304338
-0.305293
-0.30623
-0.307103
-0.307865
-0.308466
-0.308859
-0.309001
-0.308852
-0.308462
-0.307582
-0.299336
-0.302049
-0.302938
-0.303916
-0.304839
-0.305768
-0.306684
-0.307543
-0.308295
-0.308887
-0.309268
-0.309391
-0.309163
-0.30877
-0.307414
-0.300322
-0.30286
-0.303685
-0.304602
-0.305476
-0.306366
-0.307252
-0.308087
-0.308822
-0.3094
-0.309764
-0.309872
-0.309509
-0.309222
-0.307083
-0.301507
-0.303836
-0.30458
-0.305417
-0.306225
-0.30706
-0.307901
-0.308702
-0.309411
-0.309968
-0.310304
-0.310422
-0.309817
-0.309863
-0.306482
-0.302863
-0.304955
-0.305601
-0.306336
-0.307057
-0.307819
-0.308599
-0.30935
-0.310021
-0.310547
-0.310835
-0.311021
-0.309967
-0.310742
-0.305528
-0.304362
-0.306197
-0.306724
-0.307333
-0.307944
-0.308609
-0.309308
-0.309992
-0.310607
-0.311093
-0.311284
-0.311658
-0.309863
-0.31176
-0.304653
-0.305977
-0.307541
-0.307927
-0.308385
-0.308857
-0.3094
-0.309993
-0.310587
-0.311125
-0.311562
-0.311577
-0.312243
-0.309834
-0.312352
-0.303788
-0.307683
-0.308968
-0.30919
-0.309467
-0.30977
-0.31016
-0.310621
-0.311099
-0.311529
-0.311917
-0.311805
-0.312567
-0.309538
-0.313012
-0.302619
-0.309463
-0.310465
-0.310497
-0.310562
-0.310661
-0.310867
-0.311164
-0.311501
-0.31181
-0.312096
-0.311804
-0.312777
-0.30885
-0.313612
-0.301227
-0.311304
-0.312021
-0.311838
-0.311656
-0.311516
-0.311502
-0.311604
-0.311771
-0.311927
-0.312104
-0.311558
-0.312805
-0.307842
-0.313882
-0.29986
-0.313202
-0.313634
-0.313206
-0.312742
-0.312326
-0.312058
-0.311934
-0.311903
-0.311875
-0.311927
-0.311092
-0.31253
-0.306676
-0.313453
-0.298805
-0.315162
-0.315308
-0.314604
-0.313822
-0.313093
-0.312536
-0.312156
-0.311902
-0.311665
-0.311556
-0.310446
-0.31182
-0.305534
-0.311965
-0.298084
-0.317201
-0.317054
-0.31604
-0.314905
-0.313828
-0.312951
-0.312287
-0.311786
-0.311317
-0.310989
-0.309651
-0.31058
-0.304472
-0.309313
-0.29726
-0.319344
-0.318889
-0.317534
-0.31601
-0.314552
-0.313326
-0.312354
-0.31158
-0.310855
-0.31023
-0.308692
-0.308792
-0.303296
-0.305749
-0.2957
-0.321627
-0.32083
-0.319116
-0.317162
-0.315294
-0.313696
-0.312392
-0.311316
-0.310297
-0.309286
-0.307498
-0.306506
-0.301643
-0.301618
-0.29304
-0.324094
-0.32292
-0.320809
-0.318396
-0.316093
-0.314101
-0.312443
-0.311025
-0.309651
-0.308147
-0.305967
-0.303758
-0.299199
-0.296993
-0.289284
-0.326805
-0.325191
-0.322652
-0.319751
-0.316993
-0.314586
-0.312543
-0.310729
-0.308906
-0.306784
-0.304008
-0.30055
-0.295837
-0.291631
-0.284568
-0.329816
-0.327683
-0.324688
-0.321273
-0.31804
-0.315196
-0.312724
-0.310435
-0.308037
-0.305149
-0.30156
-0.29689
-0.291608
-0.285413
-0.278984
-0.333168
-0.330458
-0.326961
-0.323009
-0.319281
-0.315966
-0.313001
-0.310131
-0.307008
-0.303196
-0.29861
-0.292805
-0.286667
-0.278982
-0.272474
-0.336929
-0.333554
-0.32952
-0.325005
-0.320755
-0.316922
-0.313376
-0.30979
-0.30577
-0.30089
-0.295182
-0.288309
-0.281176
-0.272815
-0.265388
-0.341162
-0.337014
-0.33241
-0.327306
-0.322498
-0.318076
-0.313835
-0.309373
-0.304278
-0.29821
-0.291327
-0.283438
-0.275466
-0.266507
-0.258502
-0.345921
-0.340885
-0.335679
-0.329953
-0.324531
-0.319428
-0.31435
-0.308828
-0.302491
-0.295156
-0.287098
-0.278292
-0.269574
-0.260183
-0.251933
-0.351255
-0.34521
-0.339372
-0.332978
-0.326867
-0.320966
-0.314874
-0.308097
-0.300379
-0.29174
-0.282555
-0.27292
-0.263578
-0.253846
-0.245401
-0.357205
-0.350031
-0.34353
-0.336406
-0.329508
-0.322662
-0.315346
-0.307119
-0.297923
-0.287985
-0.277743
-0.267372
-0.257488
-0.247462
-0.238898
-0.363805
-0.355386
-0.348186
-0.34025
-0.332447
-0.324463
-0.315684
-0.305839
-0.295115
-0.283915
-0.272698
-0.261667
-0.251298
-0.241029
-0.232315
-0.371076
-0.361308
-0.353365
-0.344514
-0.335657
-0.326287
-0.315802
-0.304212
-0.291953
-0.27955
-0.267436
-0.255809
-0.244998
-0.234504
-0.225638
-0.37903
-0.367819
-0.359074
-0.349191
-0.33908
-0.32803
-0.315616
-0.302202
-0.288437
-0.274898
-0.26196
-0.249785
-0.238563
-0.227869
-0.21883
-0.387661
-0.374929
-0.365303
-0.354255
-0.342618
-0.329571
-0.315051
-0.299782
-0.284562
-0.269957
-0.256259
-0.243577
-0.231969
-0.221092
-0.211869
-0.396948
-0.382624
-0.372025
-0.359644
-0.346133
-0.330788
-0.314037
-0.296925
-0.280317
-0.264715
-0.250314
-0.237157
-0.225189
-0.214147
-0.204732
-0.406836
-0.390863
-0.37919
-0.365248
-0.349465
-0.331563
-0.312516
-0.293603
-0.275681
-0.259149
-0.244098
-0.230496
-0.218197
-0.207008
-0.197399
-0.41725
-0.399571
-0.38672
-0.370899
-0.352442
-0.331787
-0.31043
-0.289783
-0.270627
-0.253231
-0.237579
-0.223564
-0.210966
-0.199651
-0.189852
-0.428075
-0.408642
-0.394496
-0.37639
-0.354891
-0.331358
-0.307723
-0.285428
-0.265122
-0.246927
-0.230724
-0.21633
-0.20347
-0.19205
-0.182073
-0.439155
-0.417939
-0.402341
-0.381487
-0.356644
-0.330178
-0.304339
-0.280496
-0.259126
-0.2402
-0.223498
-0.208764
-0.195684
-0.184184
-0.174046
-0.450291
-0.427292
-0.410018
-0.385943
-0.357541
-0.328157
-0.300218
-0.27494
-0.252598
-0.233011
-0.215865
-0.200838
-0.187584
-0.176029
-0.165754
-0.461241
-0.4365
-0.417239
-0.389517
-0.357432
-0.325207
-0.295302
-0.268711
-0.245492
-0.225321
-0.207794
-0.192526
-0.179149
-0.167565
-0.157187
-0.471725
-0.445327
-0.423679
-0.391975
-0.356179
-0.321244
-0.28953
-0.261757
-0.237766
-0.217094
-0.199254
-0.183805
-0.170361
-0.158778
-0.148344
-0.481433
-0.453501
-0.429006
-0.393094
-0.353654
-0.316187
-0.28284
-0.254029
-0.229376
-0.208293
-0.190217
-0.174654
-0.161202
-0.149665
-0.139244
-0.490037
-0.460712
-0.432895
-0.39267
-0.349742
-0.309962
-0.275176
-0.245478
-0.220283
-0.198886
-0.180656
-0.165052
-0.151658
-0.140227
-0.129917
-0.4972
-0.466624
-0.435047
-0.39052
-0.344339
-0.3025
-0.266483
-0.23606
-0.210452
-0.188846
-0.17055
-0.154981
-0.14171
-0.130459
-0.120365
-0.502589
-0.470884
-0.435198
-0.386489
-0.337353
-0.293737
-0.256713
-0.225736
-0.199851
-0.17815
-0.159882
-0.144424
-0.131344
-0.120339
-0.110534
-0.505882
-0.473138
-0.433124
-0.380448
-0.328709
-0.283622
-0.245823
-0.214475
-0.188457
-0.16678
-0.148637
-0.133372
-0.120552
-0.109837
-0.100299
-0.506778
-0.47305
-0.428638
-0.372298
-0.318345
-0.27211
-0.233783
-0.202251
-0.176253
-0.154724
-0.136807
-0.121823
-0.109345
-0.0989506
-0.0895044
-0.505001
-0.470325
-0.421583
-0.361966
-0.306217
-0.259171
-0.220568
-0.189046
-0.163224
-0.141974
-0.124391
-0.10978
-0.0977403
-0.0877115
-0.0781876
-0.50031
-0.464718
-0.41183
-0.349404
-0.292298
-0.244787
-0.20616
-0.174846
-0.149365
-0.128529
-0.111401
-0.0972571
-0.0857469
-0.0760676
-0.0668406
-0.492501
-0.456031
-0.399292
-0.334587
-0.276582
-0.228944
-0.190547
-0.15965
-0.134687
-0.114407
-0.0978649
-0.0843049
-0.0733591
-0.0640229
-0.0553866
-0.481412
-0.444122
-0.383923
-0.317514
-0.25907
-0.211632
-0.173725
-0.143492
-0.119226
-0.099657
-0.0837806
-0.0709104
-0.0605789
-0.0516707
-0.0437427
-0.466924
-0.428904
-0.365714
-0.298199
-0.23976
-0.19286
-0.155752
-0.126438
-0.103008
-0.0842597
-0.0691779
-0.0570888
-0.0474356
-0.0390525
-0.031888
-0.448961
-0.410345
-0.344692
-0.276669
-0.218646
-0.172715
-0.136767
-0.108443
-0.0860366
-0.0682532
-0.0540874
-0.0428682
-0.0339655
-0.0261911
-0.0198376
-0.427498
-0.388463
-0.320929
-0.252992
-0.19579
-0.1514
-0.11665
-0.0895672
-0.068354
-0.0516781
-0.038545
-0.0282849
-0.020206
-0.0131123
-0.00762177
-0.402552
-0.363326
-0.294539
-0.227288
-0.171512
-0.128672
-0.0954982
-0.0698702
-0.0500125
-0.0345807
-0.0225926
-0.0133796
-0.00619618
0.000147519
0.00471519
-0.374193
-0.335067
-0.26564
-0.199649
-0.145734
-0.104739
-0.0733871
-0.0494178
-0.0310713
-0.0170131
-0.00627757
0.00180334
0.00802255
0.0135444
0.017122
-0.342549
-0.303922
-0.234257
-0.170183
-0.118546
-0.079713
-0.0504067
-0.0282829
-0.0115961
0.000966089
0.0103471
0.0172165
0.0224082
0.0270352
0.0295604
-0.3078
-0.270185
-0.200341
-0.13907
-0.0900884
-0.0537089
-0.0266547
-0.00654756
0.00834098
0.0192922
0.0272222
0.0328088
0.0369207
0.0405846
0.0420072
-0.270145
-0.233899
-0.164397
-0.106386
-0.0605059
-0.0268484
-0.00223694
0.0156983
0.0286615
0.0378946
0.0442845
0.0485281
0.0515189
0.0541429
0.054369
-0.229787
-0.194613
-0.127338
-0.0724439
-0.0299531
0.000737836
0.0227327
0.0383576
0.0492815
0.0566997
0.0614722
0.0643271
0.0661463
0.0675691
0.0663454
-0.186996
-0.153118
-0.0889754
-0.0374855
0.00139579
0.0289114
0.048134
0.061327
0.070112
0.0756326
0.0787316
0.0801697
0.0807199
0.0805904
0.0775212
-0.14198
-0.109956
-0.0494157
-0.00171721
0.0333559
0.0575235
0.0738398
0.0844972
0.0910592
0.0946183
0.0960135
0.0960192
0.0951515
0.0930181
0.0878869
-0.0951797
-0.0654473
-0.00889142
0.0346559
0.0657388
0.0864174
0.0997171
0.107754
0.112026
0.113579
0.113257
0.111801
0.109362
0.10509
0.0984928
-0.0469862
-0.0199097
0.0323175
0.0714142
0.0983516
0.11543
0.125627
0.130978
0.132911
0.132432
0.130377
0.127388
0.123239
0.117044
0.112004
0.00220544
0.0263148
0.0739143
0.108326
0.130997
0.144393
0.151428
0.154049
0.153615
0.151091
0.147278
0.142667
0.13682
0.129394
0.125121
0.0519864
0.0728701
0.115596
0.145149
0.163472
0.173135
0.176974
0.176842
0.174033
0.169462
0.163875
0.157621
0.15024
0.141905
0.137374
0.101942
0.119389
0.157055
0.181639
0.195572
0.201484
0.202118
0.199235
0.194057
0.187448
0.180082
0.172205
0.163429
0.154267
0.149022
0.15166
0.165497
0.197987
0.217548
0.227091
0.229265
0.226713
0.221101
0.21358
0.204955
0.195827
0.186374
0.176293
0.16626
0.160083
0.200722
0.210823
0.238087
0.25263
0.257825
0.256306
0.250613
0.242317
0.232494
0.221891
0.211035
0.200062
0.18874
0.177808
0.170607
0.248713
0.255004
0.277057
0.286642
0.28757
0.282436
0.273674
0.262759
0.250695
0.238164
0.225632
0.213199
0.200684
0.188837
0.180577
0.295226
0.297688
0.314607
0.319348
0.316129
0.30749
0.295756
0.282308
0.268079
0.253689
0.239542
0.225713
0.212058
0.199301
0.189972
0.339866
0.338535
0.350457
0.350517
0.343312
0.331306
0.316722
0.300848
0.284549
0.26838
0.252693
0.237539
0.222799
0.209152
0.198764
0.382252
0.37722
0.384341
0.379932
0.368934
0.353731
0.336442
0.318269
0.300008
0.282157
0.265015
0.248613
0.232851
0.218349
0.206922
0.422026
0.413437
0.416007
0.407384
0.392823
0.374619
0.354793
0.334466
0.314369
0.294943
0.276442
0.258877
0.242164
0.226848
0.214419
0.458849
0.446898
0.445218
0.43268
0.414816
0.393832
0.371659
0.34934
0.327546
0.306666
0.286911
0.268277
0.25069
0.234613
0.22123
0.492408
0.477339
0.471757
0.45564
0.434763
0.411245
0.386934
0.362802
0.339464
0.317262
0.296367
0.276763
0.258385
0.241606
0.227333
0.522421
0.504521
0.495428
0.476101
0.452527
0.426743
0.400521
0.374768
0.350051
0.326668
0.304757
0.28429
0.265209
0.247798
0.232707
0.548633
0.528229
0.516053
0.493917
0.467987
0.440223
0.412332
0.385166
0.359246
0.334833
0.312035
0.290819
0.271128
0.253158
0.237339
0.570823
0.548276
0.533481
0.508962
0.481036
0.451596
0.422293
0.39393
0.366993
0.34171
0.318163
0.296315
0.276109
0.257663
0.241216
0.588803
0.564506
0.54758
0.521129
0.491585
0.460787
0.43034
0.401008
0.373247
0.347259
0.323106
0.300747
0.280127
0.261292
0.244326
0.602422
0.576791
0.558247
0.530331
0.499561
0.467735
0.43642
0.406355
0.377971
0.351449
0.326837
0.304093
0.283159
0.264029
0.246665
0.611566
0.585034
0.565403
0.536502
0.504909
0.472392
0.440496
0.409938
0.381135
0.354256
0.329336
0.306333
0.28519
0.26586
0.248226
0.616157
0.589172
0.568994
0.539599
0.507592
0.474728
0.44254
0.411735
0.382723
0.355663
0.330589
0.307456
0.286208
0.266777
0.249007
0.616157
0.589172
0.568994
0.539599
0.507592
0.474728
0.44254
0.411735
0.382723
0.355663
0.330589
0.307456
0.286208
0.266777
0.249007
0.611566
0.585034
0.565403
0.536502
0.504909
0.472392
0.440496
0.409938
0.381135
0.354256
0.329336
0.306333
0.28519
0.26586
0.248226
0.602422
0.576791
0.558247
0.530331
0.499561
0.467735
0.43642
0.406355
0.377971
0.351449
0.326837
0.304093
0.283159
0.264029
0.246665
0.588803
0.564506
0.54758
0.521129
0.491585
0.460787
0.43034
0.401008
0.373247
0.347259
0.323106
0.300747
0.280127
0.261292
0.244326
0.570823
0.548276
0.533481
0.508962
0.481036
0.451596
0.422293
0.39393
0.366993
0.34171
0.318163
0.296315
0.276109
0.257663
0.241216
0.548633
0.528229
0.516053
0.493917
0.467987
0.440223
0.412332
0.385166
0.359246
0.334833
0.312035
0.290819
0.271128
0.253158
0.237339
0.522421
0.504521
0.495428
0.476101
0.452527
0.426743
0.400521
0.374768
0.350051
0.326668
0.304757
0.28429
0.265209
0.247798
0.232707
0.492408
0.477339
0.471757
0.45564
0.434763
0.411245
0.386934
0.362802
0.339464
0.317262
0.296367
0.276763
0.258385
0.241606
0.227333
0.458849
0.446898
0.445218
0.43268
0.414816
0.393832
0.371659
0.34934
0.327546
0.306666
0.286911
0.268277
0.25069
0.234613
0.22123
0.422026
0.413437
0.416007
0.407384
0.392823
0.374619
0.354793
0.334466
0.314369
0.294943
0.276442
0.258877
0.242164
0.226848
0.214419
0.382252
0.37722
0.384341
0.379932
0.368934
0.353731
0.336442
0.318269
0.300008
0.282157
0.265016
0.248613
0.232851
0.218349
0.206922
0.339866
0.338535
0.350457
0.350517
0.343312
0.331306
0.316722
0.300848
0.284549
0.26838
0.252693
0.237539
0.222799
0.209152
0.198764
0.295226
0.297688
0.314607
0.319348
0.316129
0.30749
0.295756
0.282308
0.268079
0.253689
0.239542
0.225713
0.212058
0.199301
0.189972
0.248713
0.255004
0.277057
0.286642
0.28757
0.282436
0.273674
0.262759
0.250695
0.238164
0.225632
0.213199
0.200684
0.188837
0.180577
0.200722
0.210823
0.238087
0.25263
0.257825
0.256306
0.250613
0.242317
0.232494
0.221891
0.211035
0.200062
0.18874
0.177808
0.170607
0.15166
0.165497
0.197987
0.217548
0.227091
0.229265
0.226713
0.221101
0.21358
0.204955
0.195827
0.186374
0.176293
0.16626
0.160083
0.101942
0.119389
0.157055
0.181639
0.195572
0.201484
0.202118
0.199235
0.194057
0.187448
0.180082
0.172205
0.163429
0.154267
0.149022
0.0519865
0.0728701
0.115596
0.145149
0.163472
0.173135
0.176974
0.176842
0.174033
0.169462
0.163875
0.157621
0.15024
0.141905
0.137374
0.00220549
0.0263149
0.0739143
0.108326
0.130997
0.144393
0.151428
0.154049
0.153615
0.151091
0.147278
0.142667
0.13682
0.129394
0.125121
-0.0469861
-0.0199097
0.0323175
0.0714142
0.0983516
0.11543
0.125627
0.130978
0.132911
0.132432
0.130377
0.127388
0.123239
0.117044
0.112004
-0.0951796
-0.0654472
-0.00889137
0.0346559
0.0657389
0.0864174
0.0997171
0.107754
0.112026
0.113579
0.113257
0.111801
0.109362
0.10509
0.0984928
-0.14198
-0.109955
-0.0494157
-0.00171716
0.033356
0.0575236
0.0738399
0.0844972
0.0910592
0.0946183
0.0960136
0.0960192
0.0951515
0.0930181
0.0878869
-0.186996
-0.153118
-0.0889754
-0.0374855
0.00139583
0.0289114
0.048134
0.061327
0.070112
0.0756326
0.0787316
0.0801697
0.0807199
0.0805904
0.0775212
-0.229787
-0.194612
-0.127338
-0.0724439
-0.0299531
0.000737879
0.0227328
0.0383576
0.0492815
0.0566997
0.0614723
0.0643272
0.0661463
0.0675691
0.0663454
-0.270145
-0.233899
-0.164397
-0.106386
-0.0605058
-0.0268484
-0.0022369
0.0156983
0.0286615
0.0378947
0.0442846
0.0485281
0.0515189
0.0541429
0.054369
-0.3078
-0.270185
-0.20034
-0.13907
-0.0900884
-0.0537088
-0.0266546
-0.00654752
0.00834101
0.0192922
0.0272222
0.0328088
0.0369207
0.0405847
0.0420072
-0.342549
-0.303922
-0.234257
-0.170183
-0.118546
-0.0797129
-0.0504067
-0.0282828
-0.011596
0.000966128
0.0103471
0.0172165
0.0224082
0.0270352
0.0295604
-0.374193
-0.335067
-0.26564
-0.199649
-0.145734
-0.104739
-0.0733871
-0.0494178
-0.0310712
-0.0170131
-0.00627753
0.00180338
0.00802259
0.0135445
0.017122
-0.402552
-0.363326
-0.294539
-0.227288
-0.171512
-0.128672
-0.0954982
-0.0698702
-0.0500124
-0.0345807
-0.0225926
-0.0133796
-0.00619615
0.000147554
0.00471523
-0.427498
-0.388463
-0.320929
-0.252992
-0.19579
-0.1514
-0.11665
-0.0895672
-0.068354
-0.0516781
-0.038545
-0.0282849
-0.0202059
-0.0131123
-0.00762174
-0.448961
-0.410345
-0.344692
-0.276669
-0.218646
-0.172715
-0.136767
-0.108442
-0.0860366
-0.0682531
-0.0540873
-0.0428682
-0.0339654
-0.0261911
-0.0198375
-0.466924
-0.428904
-0.365714
-0.298199
-0.23976
-0.192859
-0.155752
-0.126438
-0.103008
-0.0842596
-0.0691779
-0.0570888
-0.0474356
-0.0390524
-0.031888
-0.481412
-0.444122
-0.383923
-0.317514
-0.25907
-0.211632
-0.173725
-0.143492
-0.119226
-0.0996569
-0.0837806
-0.0709104
-0.0605788
-0.0516707
-0.0437426
-0.492501
-0.456031
-0.399292
-0.334587
-0.276582
-0.228944
-0.190547
-0.15965
-0.134687
-0.114407
-0.0978649
-0.0843048
-0.073359
-0.0640229
-0.0553866
-0.50031
-0.464717
-0.41183
-0.349404
-0.292298
-0.244787
-0.20616
-0.174845
-0.149365
-0.128529
-0.111401
-0.0972571
-0.0857468
-0.0760675
-0.0668405
-0.505001
-0.470325
-0.421583
-0.361966
-0.306216
-0.259171
-0.220568
-0.189046
-0.163224
-0.141974
-0.124391
-0.10978
-0.0977402
-0.0877115
-0.0781876
-0.506778
-0.47305
-0.428638
-0.372298
-0.318345
-0.272109
-0.233783
-0.202251
-0.176253
-0.154724
-0.136807
-0.121823
-0.109345
-0.0989506
-0.0895044
-0.505882
-0.473138
-0.433124
-0.380447
-0.328709
-0.283621
-0.245823
-0.214475
-0.188457
-0.16678
-0.148637
-0.133372
-0.120552
-0.109837
-0.100298
-0.502589
-0.470884
-0.435198
-0.386489
-0.337353
-0.293737
-0.256713
-0.225736
-0.199851
-0.17815
-0.159881
-0.144424
-0.131344
-0.120339
-0.110534
-0.4972
-0.466624
-0.435047
-0.39052
-0.344339
-0.3025
-0.266483
-0.23606
-0.210451
-0.188846
-0.17055
-0.154981
-0.14171
-0.130459
-0.120365
-0.490037
-0.460712
-0.432895
-0.39267
-0.349742
-0.309962
-0.275176
-0.245478
-0.220283
-0.198886
-0.180656
-0.165052
-0.151658
-0.140227
-0.129916
-0.481433
-0.453501
-0.429006
-0.393094
-0.353654
-0.316187
-0.28284
-0.254029
-0.229376
-0.208292
-0.190217
-0.174654
-0.161202
-0.149665
-0.139244
-0.471725
-0.445327
-0.423679
-0.391975
-0.356179
-0.321244
-0.289529
-0.261757
-0.237766
-0.217094
-0.199254
-0.183805
-0.170361
-0.158778
-0.148344
-0.461241
-0.4365
-0.417239
-0.389517
-0.357432
-0.325207
-0.295302
-0.268711
-0.245492
-0.225321
-0.207794
-0.192526
-0.179149
-0.167565
-0.157187
-0.450291
-0.427292
-0.410018
-0.385943
-0.357541
-0.328157
-0.300218
-0.27494
-0.252597
-0.233011
-0.215865
-0.200838
-0.187584
-0.176029
-0.165754
-0.439155
-0.417939
-0.402341
-0.381486
-0.356644
-0.330178
-0.304339
-0.280496
-0.259126
-0.2402
-0.223498
-0.208764
-0.195684
-0.184184
-0.174045
-0.428075
-0.408642
-0.394496
-0.37639
-0.354891
-0.331358
-0.307723
-0.285428
-0.265122
-0.246927
-0.230724
-0.21633
-0.20347
-0.19205
-0.182073
-0.41725
-0.399571
-0.38672
-0.370899
-0.352442
-0.331787
-0.31043
-0.289783
-0.270627
-0.253231
-0.237579
-0.223564
-0.210966
-0.19965
-0.189852
-0.406836
-0.390863
-0.37919
-0.365247
-0.349465
-0.331563
-0.312516
-0.293603
-0.275681
-0.259149
-0.244098
-0.230496
-0.218197
-0.207008
-0.197399
-0.396948
-0.382624
-0.372025
-0.359644
-0.346133
-0.330788
-0.314037
-0.296925
-0.280317
-0.264715
-0.250314
-0.237157
-0.225189
-0.214147
-0.204732
-0.387661
-0.374929
-0.365303
-0.354255
-0.342618
-0.329571
-0.315051
-0.299782
-0.284562
-0.269957
-0.256259
-0.243577
-0.231969
-0.221092
-0.211869
-0.37903
-0.367819
-0.359074
-0.349191
-0.33908
-0.32803
-0.315616
-0.302202
-0.288437
-0.274898
-0.26196
-0.249785
-0.238563
-0.227869
-0.21883
-0.371076
-0.361308
-0.353365
-0.344514
-0.335657
-0.326287
-0.315802
-0.304212
-0.291953
-0.27955
-0.267436
-0.255809
-0.244998
-0.234504
-0.225638
-0.363804
-0.355386
-0.348186
-0.34025
-0.332447
-0.324462
-0.315684
-0.305839
-0.295114
-0.283915
-0.272698
-0.261667
-0.251298
-0.241028
-0.232315
-0.357205
-0.350031
-0.34353
-0.336406
-0.329508
-0.322662
-0.315346
-0.307119
-0.297922
-0.287985
-0.277743
-0.267372
-0.257488
-0.247462
-0.238898
-0.351255
-0.34521
-0.339372
-0.332978
-0.326867
-0.320966
-0.314874
-0.308097
-0.300379
-0.29174
-0.282555
-0.27292
-0.263578
-0.253845
-0.245401
-0.345921
-0.340885
-0.335679
-0.329952
-0.324531
-0.319428
-0.31435
-0.308828
-0.302491
-0.295156
-0.287098
-0.278292
-0.269574
-0.260183
-0.251933
-0.341162
-0.337014
-0.33241
-0.327306
-0.322498
-0.318076
-0.313835
-0.309373
-0.304278
-0.29821
-0.291327
-0.283438
-0.275466
-0.266507
-0.258502
-0.336929
-0.333554
-0.32952
-0.325005
-0.320755
-0.316922
-0.313376
-0.30979
-0.30577
-0.30089
-0.295182
-0.288309
-0.281175
-0.272815
-0.265388
-0.333168
-0.330458
-0.326961
-0.323009
-0.319281
-0.315966
-0.313001
-0.310131
-0.307008
-0.303196
-0.298609
-0.292805
-0.286667
-0.278981
-0.272474
-0.329816
-0.327683
-0.324688
-0.321273
-0.31804
-0.315196
-0.312724
-0.310435
-0.308037
-0.305149
-0.30156
-0.29689
-0.291607
-0.285412
-0.278984
-0.326805
-0.325191
-0.322652
-0.319751
-0.316993
-0.314586
-0.312543
-0.310729
-0.308905
-0.306784
-0.304007
-0.30055
-0.295837
-0.29163
-0.284568
-0.324094
-0.32292
-0.320809
-0.318396
-0.316093
-0.314101
-0.312443
-0.311025
-0.309651
-0.308147
-0.305967
-0.303758
-0.299199
-0.296993
-0.289284
-0.321626
-0.32083
-0.319116
-0.317162
-0.315294
-0.313696
-0.312392
-0.311316
-0.310297
-0.309286
-0.307498
-0.306506
-0.301643
-0.301618
-0.293039
-0.319344
-0.318889
-0.317533
-0.31601
-0.314552
-0.313326
-0.312354
-0.31158
-0.310855
-0.31023
-0.308692
-0.308792
-0.303296
-0.305749
-0.2957
-0.317201
-0.317054
-0.31604
-0.314905
-0.313828
-0.312951
-0.312287
-0.311786
-0.311317
-0.310989
-0.309651
-0.31058
-0.304472
-0.309313
-0.297259
-0.315162
-0.315308
-0.314604
-0.313822
-0.313093
-0.312536
-0.312156
-0.311902
-0.311665
-0.311556
-0.310446
-0.31182
-0.305534
-0.311964
-0.298084
-0.313202
-0.313634
-0.313206
-0.312742
-0.312326
-0.312058
-0.311934
-0.311903
-0.311875
-0.311927
-0.311092
-0.312529
-0.306675
-0.313453
-0.298805
-0.311304
-0.312021
-0.311838
-0.311655
-0.311516
-0.311502
-0.311604
-0.311771
-0.311927
-0.312104
-0.311558
-0.312805
-0.307842
-0.313882
-0.29986
-0.309463
-0.310465
-0.310497
-0.310562
-0.310661
-0.310867
-0.311164
-0.3115
-0.31181
-0.312096
-0.311804
-0.312777
-0.30885
-0.313612
-0.301227
-0.307683
-0.308968
-0.30919
-0.309467
-0.30977
-0.31016
-0.310621
-0.311099
-0.311529
-0.311917
-0.311804
-0.312566
-0.309538
-0.313012
-0.302619
-0.305976
-0.307541
-0.307926
-0.308385
-0.308856
-0.3094
-0.309993
-0.310587
-0.311125
-0.311562
-0.311577
-0.312243
-0.309834
-0.312352
-0.303788
-0.304362
-0.306197
-0.306723
-0.307333
-0.307944
-0.308609
-0.309308
-0.309992
-0.310607
-0.311092
-0.311284
-0.311657
-0.309863
-0.31176
-0.304653
-0.302863
-0.304955
-0.305601
-0.306336
-0.307057
-0.307818
-0.308599
-0.30935
-0.310021
-0.310547
-0.310835
-0.311021
-0.309967
-0.310742
-0.305528
-0.301507
-0.303836
-0.30458
-0.305417
-0.306225
-0.30706
-0.307901
-0.308702
-0.309411
-0.309967
-0.310304
-0.310422
-0.309817
-0.309863
-0.306482
-0.300322
-0.30286
-0.303685
-0.304602
-0.305476
-0.306366
-0.307252
-0.308087
-0.308822
-0.3094
-0.309764
-0.309872
-0.309509
-0.309222
-0.307083
-0.299336
-0.302049
-0.302938
-0.303916
-0.304839
-0.305768
-0.306684
-0.307543
-0.308294
-0.308887
-0.309268
-0.309391
-0.309163
-0.30877
-0.307414
-0.298572
-0.301423
-0.302358
-0.303381
-0.304338
-0.305293
-0.30623
-0.307103
-0.307865
-0.308466
-0.308859
-0.309001
-0.308852
-0.308461
-0.307582
-0.298051
-0.300996
-0.301961
-0.303013
-0.303992
-0.304964
-0.305912
-0.306794
-0.307562
-0.308167
-0.308567
-0.308726
-0.308622
-0.308268
-0.307654
-0.297787
-0.30078
-0.30176
-0.302826
-0.303815
-0.304795
-0.305749
-0.306635
-0.307405
-0.308013
-0.308416
-0.308583
-0.3085
-0.308173
-0.307678
-0.307603
-0.306876
-0.306305
-0.305562
-0.304819
-0.30405
-0.303293
-0.302556
-0.301845
-0.301156
-0.300472
-0.299767
-0.298999
-0.298112
-0.297039
-0.295696
-0.293989
-0.291815
-0.289058
-0.285608
-0.281383
-0.276286
-0.270227
-0.263141
-0.254986
-0.245748
-0.235444
-0.224125
-0.211871
-0.198793
-0.185027
-0.170736
-0.156104
-0.14132
-0.126573
-0.112069
-0.0979792
-0.0844628
-0.0716497
-0.0596587
-0.0485718
-0.0384436
-0.0293006
-0.021144
-0.0139533
-0.00769027
-0.0023031
0.00226991
0.00609656
0.0092476
0.0117941
0.0138054
0.0153477
0.0164827
0.0172672
0.0177527
0.0179851
0.0180052
0.0178487
0.0175466
0.0171252
0.0166074
0.0160116
0.0153544
0.0146474
0.013903
0.013126
0.0123281
0.0115049
0.0106733
0.00981295
0.00895853
0.00805523
0.00718584
0.00621487
0.00534583
0.0042496
0.0034258
0.00206712
0.00135549
-0.307751
-0.306953
-0.30638
-0.305624
-0.304871
-0.304095
-0.303332
-0.302593
-0.301882
-0.301197
-0.300521
-0.299827
-0.299074
-0.298207
-0.297157
-0.295842
-0.294167
-0.292026
-0.289302
-0.285871
-0.281709
-0.276655
-0.270635
-0.263585
-0.255464
-0.246257
-0.235978
-0.224682
-0.212444
-0.199376
-0.185615
-0.171322
-0.156684
-0.14189
-0.127124
-0.112601
-0.0984939
-0.0849497
-0.07211
-0.060093
-0.0489801
-0.0388264
-0.0296586
-0.0214783
-0.0142652
-0.00798104
-0.00257407
0.00201747
0.00586143
0.00902862
0.0115902
0.0136157
0.0151711
0.0163184
0.0171144
0.0176106
0.0178531
0.0178827
0.0177349
0.017441
0.0170272
0.0165166
0.0159275
0.0152765
0.0145754
0.0138365
0.0130646
0.0122715
0.0114529
0.0106256
0.00976936
0.00891874
0.00801941
0.00715325
0.00618647
0.00531964
0.0042288
0.00340446
0.00205528
0.00133566
-0.308036
-0.307092
-0.306519
-0.305739
-0.304968
-0.304177
-0.303405
-0.302659
-0.301949
-0.30127
-0.300607
-0.299934
-0.299209
-0.29838
-0.297375
-0.296112
-0.294496
-0.292419
-0.289766
-0.286452
-0.282334
-0.277349
-0.271402
-0.264423
-0.256367
-0.247219
-0.236991
-0.225737
-0.213532
-0.200487
-0.186739
-0.172445
-0.157798
-0.142988
-0.128191
-0.11364
-0.0994774
-0.0858956
-0.0730103
-0.0609448
-0.0497835
-0.0395821
-0.0303678
-0.0221426
-0.0148868
-0.00856217
-0.00311695
0.00151061
0.00538845
0.00858748
0.011179
0.0132325
0.0148143
0.0159863
0.0168055
0.0173234
0.0175862
0.0176348
0.0175048
0.0172275
0.0168293
0.0163332
0.0157576
0.0151194
0.01443
0.0137023
0.0129409
0.0121575
0.0113482
0.0105296
0.00968182
0.00883888
0.00794759
0.00708799
0.00612965
0.00526738
0.00418729
0.00336222
0.00203173
0.00129732
-0.308444
-0.307268
-0.306702
-0.30589
-0.305094
-0.304284
-0.303497
-0.302743
-0.302032
-0.30136
-0.300714
-0.300068
-0.299381
-0.2986
-0.297655
-0.296463
-0.294927
-0.292936
-0.290373
-0.28716
-0.28316
-0.278283
-0.27244
-0.26556
-0.257598
-0.248537
-0.238382
-0.227193
-0.215039
-0.20203
-0.188308
-0.174019
-0.159369
-0.144548
-0.129684
-0.115099
-0.100902
-0.0872586
-0.0743124
-0.0621838
-0.0509585
-0.040693
-0.0314156
-0.0231292
-0.0158141
-0.00943264
-0.00393313
0.000746153
0.00467314
0.0079188
0.0105545
0.0126498
0.014271
0.0154803
0.0163345
0.0168854
0.0171792
0.0172569
0.0171542
0.0169023
0.016528
0.0160541
0.0154994
0.0148806
0.0142094
0.0134987
0.0127533
0.011985
0.0111899
0.0103845
0.00954971
0.00871852
0.00783948
0.00698996
0.00604439
0.00518929
0.00412528
0.00329991
0.00199671
0.00124301
-0.308969
-0.30745
-0.306904
-0.306058
-0.305233
-0.3044
-0.303595
-0.30283
-0.302115
-0.30145
-0.30082
-0.300203
-0.299558
-0.298832
-0.297955
-0.296845
-0.295403
-0.293513
-0.291059
-0.287977
-0.284104
-0.279354
-0.273638
-0.266882
-0.259037
-0.250089
-0.24003
-0.228929
-0.216845
-0.203894
-0.190208
-0.175908
-0.161269
-0.146428
-0.131572
-0.116936
-0.102681
-0.0889785
-0.0759688
-0.0637715
-0.0524746
-0.0421362
-0.0327859
-0.024427
-0.0170409
-0.01059
-0.00502318
-0.000278768
0.00371097
0.00701691
0.0097103
0.0118607
0.0135345
0.0147936
0.015695
0.0162905
0.0166264
0.0167436
0.0166781
0.0164611
0.0161192
0.0156758
0.0151496
0.0145574
0.0139112
0.0132238
0.0125003
0.0117525
0.0109769
0.0101896
0.0093724
0.00855727
0.00769487
0.00685916
0.00593083
0.00508583
0.00404315
0.00321877
0.00195068
0.00117607
-0.309644
-0.307582
-0.307101
-0.30622
-0.305363
-0.304508
-0.303682
-0.302903
-0.302182
-0.30152
-0.300905
-0.300314
-0.299709
-0.299038
-0.29823
-0.297205
-0.295856
-0.294065
-0.291781
-0.288805
-0.285068
-0.280461
-0.274889
-0.268276
-0.260572
-0.251761
-0.241774
-0.230792
-0.2188
-0.205919
-0.192287
-0.178054
-0.163425
-0.148581
-0.133716
-0.119048
-0.104751
-0.0909968
-0.0779283
-0.0656654
-0.054298
-0.0438855
-0.0344588
-0.0260224
-0.0185581
-0.0120293
-0.00638514
-0.00156461
0.00249967
0.00587824
0.00864204
0.0108604
0.0125994
0.0139209
0.0148818
0.0155338
0.015923
0.0160907
0.0160726
0.0159
0.0155999
0.0151955
0.0147058
0.0141478
0.0135336
0.0128761
0.0121806
0.0114591
0.0107083
0.00994431
0.00914958
0.00835501
0.00751381
0.00669587
0.00578934
0.00495773
0.00394151
0.0031204
0.00189428
0.00110025
-0.310468
-0.307586
-0.307274
-0.30635
-0.305467
-0.304589
-0.303743
-0.302949
-0.302219
-0.301555
-0.300949
-0.300379
-0.299809
-0.299187
-0.298443
-0.297495
-0.296234
-0.29459
-0.29239
-0.289551
-0.285957
-0.281497
-0.276075
-0.269612
-0.262053
-0.253375
-0.243567
-0.232696
-0.220813
-0.208027
-0.194469
-0.1803
-0.165712
-0.150892
-0.136039
-0.121362
-0.107043
-0.0932531
-0.0801395
-0.0678224
-0.056393
-0.0459121
-0.0364119
-0.0278977
-0.0203527
-0.013741
-0.00801261
-0.00310735
0.00104143
0.00450358
0.00734944
0.0096478
0.0114643
0.0128605
0.013893
0.0146131
0.0150672
0.0152961
0.0153358
0.0152177
0.0149686
0.014612
0.014167
0.0136508
0.0130758
0.0124549
0.0117939
0.0111045
0.0103843
0.00964869
0.00888149
0.00811211
0.00729679
0.00650076
0.00562061
0.00480606
0.00382122
0.00300664
0.00182835
0.00101929
-0.310755
-0.307876
-0.307301
-0.30643
-0.305524
-0.304626
-0.303762
-0.302953
-0.302212
-0.301543
-0.300939
-0.300382
-0.299836
-0.299252
-0.298559
-0.297672
-0.296516
-0.294953
-0.292869
-0.290159
-0.286703
-0.28239
-0.277122
-0.270818
-0.263418
-0.254894
-0.245239
-0.234509