/*--------------------------------*- C++ -*----------------------------------*\
  =========                 |
  \\      /  F ield         | OpenFOAM: The Open Source CFD Toolbox
   \\    /   O peration     | Website:  https://openfoam.org
    \\  /    A nd           | Version:  7
     \\/     M anipulation  |
\*---------------------------------------------------------------------------*/
FoamFile
{
    version     2.0;
    format      ascii;
    class       volScalarField;
    location    "50";
    object      p;
}
// * * * * * * * * * * * * * * * * * * * * * * * * * * * * * * * * * * * * * //

dimensions      [0 2 -2 0 0 0 0];

internalField   nonuniform List<scalar> 
6000
(
-0.251516
-0.251197
-0.250816
-0.250383
-0.249975
-0.251573
-0.251245
-0.250853
-0.250405
-0.249985
-0.251677
-0.251332
-0.250921
-0.250441
-0.249994
-0.251456
-0.251014
-0.250488
-0.249993
-0.251613
-0.251131
-0.250544
-0.249966
-0.251798
-0.251265
-0.250608
-0.249891
-0.252005
-0.25141
-0.250682
-0.249742
-0.252229
-0.251559
-0.250774
-0.249483
-0.252463
-0.251699
-0.250902
-0.249055
-0.2527
-0.251812
-0.251095
-0.248407
-0.252934
-0.251886
-0.251337
-0.247725
-0.251989
-0.251276
-0.247339
-0.252072
-0.251238
-0.246764
-0.252062
-0.25124
-0.246007
-0.251931
-0.251248
-0.245081
-0.251227
-0.243992
-0.251137
-0.242759
-0.250926
-0.241424
-0.240044
-0.238688
-0.237409
-0.249614
-0.248595
-0.247734
-0.246614
-0.245439
-0.244129
-0.242719
-0.241199
-0.239576
-0.237848
-0.236019
-0.234088
-0.232057
-0.229927
-0.227699
-0.225374
-0.222958
-0.22045
-0.217849
-0.215156
-0.212373
-0.209502
-0.206543
-0.203498
-0.200369
-0.197159
-0.193868
-0.190501
-0.187059
-0.183545
-0.179962
-0.176315
-0.172605
-0.168838
-0.165017
-0.161152
-0.157242
-0.153294
-0.149311
-0.145301
-0.141267
-0.137218
-0.133158
-0.129095
-0.125033
-0.120979
-0.116941
-0.112923
-0.108931
-0.104972
-0.101053
-0.0971791
-0.0933547
-0.0895852
-0.0858756
-0.0822304
-0.0786537
-0.0751492
-0.0717203
-0.0683693
-0.0650961
-0.0619141
-0.0588155
-0.0558029
-0.0528779
-0.0500415
-0.047294
-0.0446356
-0.0420661
-0.0395851
-0.037192
-0.0348859
-0.0326657
-0.0305301
-0.0284778
-0.0265072
-0.024617
-0.0228058
-0.0210712
-0.0194114
-0.0178249
-0.0163096
-0.0148639
-0.013486
-0.012174
-0.0109263
-0.00974119
-0.00861701
-0.00755262
-0.00654585
-0.00559715
-0.0047017
-0.00386681
-0.00307331
-0.00236205
-0.00163951
-0.00111691
-0.000315808
-0.000325649
0.00131418
-0.2497
-0.248636
-0.247783
-0.246655
-0.245476
-0.244162
-0.242747
-0.241222
-0.239594
-0.237862
-0.236027
-0.234092
-0.232057
-0.229922
-0.227689
-0.225358
-0.222927
-0.220426
-0.217825
-0.215133
-0.212353
-0.209486
-0.206533
-0.203496
-0.200376
-0.197177
-0.193899
-0.190546
-0.187119
-0.183621
-0.180055
-0.176424
-0.172733
-0.168983
-0.165179
-0.161321
-0.157418
-0.153476
-0.149498
-0.145491
-0.141459
-0.137409
-0.133347
-0.129278
-0.125208
-0.121145
-0.117095
-0.113063
-0.109056
-0.105081
-0.101143
-0.0972493
-0.0934049
-0.0896152
-0.0858855
-0.0822204
-0.0786245
-0.0751018
-0.0716558
-0.0682893
-0.0650041
-0.0618077
-0.058698
-0.0556767
-0.0527452
-0.0499043
-0.0471546
-0.044496
-0.0419284
-0.0394513
-0.0370638
-0.034765
-0.0325536
-0.0304283
-0.0283875
-0.0264296
-0.0245523
-0.0227537
-0.0210325
-0.0193865
-0.0178137
-0.0163121
-0.0148796
-0.0135144
-0.0122143
-0.0109776
-0.00980251
-0.00868715
-0.00763027
-0.0066296
-0.00568548
-0.00479289
-0.00395917
-0.00316468
-0.00245056
-0.00172213
-0.00119133
-0.000378125
-0.000368571
0.00128497
-0.249866
-0.248711
-0.24788
-0.246737
-0.245555
-0.244234
-0.242814
-0.241284
-0.23965
-0.237912
-0.236072
-0.234131
-0.232091
-0.229954
-0.227719
-0.225384
-0.222984
-0.220464
-0.217863
-0.215176
-0.212401
-0.20954
-0.206595
-0.203567
-0.200457
-0.197269
-0.194002
-0.19066
-0.187245
-0.183758
-0.180204
-0.176584
-0.172902
-0.169161
-0.16537
-0.161525
-0.157633
-0.153699
-0.149728
-0.145724
-0.141694
-0.137643
-0.133576
-0.129501
-0.125424
-0.12135
-0.117287
-0.11324
-0.109217
-0.105224
-0.101268
-0.0973542
-0.0934893
-0.0896787
-0.0859282
-0.0822427
-0.0786269
-0.0750852
-0.0716213
-0.0682384
-0.0649393
-0.0617293
-0.0586082
-0.0555777
-0.0526391
-0.0497932
-0.0470405
-0.0443811
-0.0418147
-0.0393405
-0.0369579
-0.0346655
-0.0324621
-0.030346
-0.0283154
-0.0263685
-0.0245038
-0.0227185
-0.0210107
-0.0193781
-0.0178185
-0.0163299
-0.01491
-0.0135566
-0.0122677
-0.0110412
-0.00987529
-0.00876795
-0.00771785
-0.00672252
-0.00578232
-0.00489187
-0.00405874
-0.00326265
-0.00254539
-0.00181035
-0.00127095
-0.000445636
-0.000413195
0.00124374
-0.250111
-0.248814
-0.24802
-0.246857
-0.245672
-0.244345
-0.242919
-0.241384
-0.239744
-0.238002
-0.236157
-0.234212
-0.232168
-0.230026
-0.227788
-0.225467
-0.223037
-0.220526
-0.217927
-0.215242
-0.212471
-0.209616
-0.206678
-0.203658
-0.200559
-0.197382
-0.194128
-0.1908
-0.187399
-0.183928
-0.180389
-0.176784
-0.173116
-0.169389
-0.165608
-0.161774
-0.157891
-0.153964
-0.149997
-0.145997
-0.141967
-0.137915
-0.133844
-0.129763
-0.125676
-0.121591
-0.117515
-0.113454
-0.109414
-0.105402
-0.101427
-0.0974927
-0.093607
-0.089775
-0.0860034
-0.082297
-0.0786609
-0.0750998
-0.0716177
-0.0682181
-0.0649043
-0.0616804
-0.0585476
-0.0555073
-0.0525611
-0.0497096
-0.0469534
-0.0442925
-0.0417265
-0.0392548
-0.0368762
-0.0345896
-0.0323934
-0.0302858
-0.0282648
-0.0263285
-0.0244751
-0.0227017
-0.0210061
-0.0193858
-0.0178386
-0.016362
-0.0149538
-0.0136115
-0.0123329
-0.0111159
-0.00995851
-0.0088585
-0.0078145
-0.00682385
-0.00588693
-0.00499797
-0.00416492
-0.00336642
-0.00264552
-0.00190311
-0.00135465
-0.000517299
-0.000458841
0.00119152
-0.250433
-0.248936
-0.248198
-0.247009
-0.245823
-0.24449
-0.243058
-0.241518
-0.239874
-0.238126
-0.236278
-0.234328
-0.232281
-0.230138
-0.227902
-0.225569
-0.223147
-0.220636
-0.218039
-0.215357
-0.212591
-0.209742
-0.206811
-0.2038
-0.200711
-0.197544
-0.194302
-0.190987
-0.187599
-0.184142
-0.180616
-0.177025
-0.17337
-0.169656
-0.165885
-0.162061
-0.158186
-0.154266
-0.150304
-0.146306
-0.142276
-0.138221
-0.134146
-0.130058
-0.125962
-0.121866
-0.117776
-0.113699
-0.109642
-0.105612
-0.101617
-0.0976623
-0.0937558
-0.0899016
-0.0861091
-0.0823818
-0.0787254
-0.0751449
-0.0716445
-0.0682281
-0.0648992
-0.0616614
-0.0585165
-0.0554663
-0.0525121
-0.0496546
-0.0468945
-0.0442316
-0.0416655
-0.0391955
-0.0368204
-0.0345388
-0.0323491
-0.0302492
-0.028237
-0.0263105
-0.0244673
-0.0227048
-0.0210203
-0.0194114
-0.0178754
-0.0164099
-0.0150123
-0.0136801
-0.0124109
-0.0112024
-0.0100525
-0.00895888
-0.00792008
-0.00693322
-0.00599877
-0.00511048
-0.00427683
-0.00347507
-0.00274996
-0.00199941
-0.00144139
-0.000592153
-0.000504944
0.00112958
-0.250833
-0.249064
-0.248407
-0.247188
-0.246
-0.244662
-0.243226
-0.241681
-0.240033
-0.238281
-0.236429
-0.234477
-0.232426
-0.230276
-0.228032
-0.225706
-0.223286
-0.220779
-0.218185
-0.215507
-0.212746
-0.209903
-0.20698
-0.203978
-0.200899
-0.197744
-0.194514
-0.191211
-0.187836
-0.184392
-0.18088
-0.177302
-0.17366
-0.169957
-0.166197
-0.162382
-0.158515
-0.1546
-0.150642
-0.146646
-0.142616
-0.138558
-0.134478
-0.130382
-0.126277
-0.122168
-0.118065
-0.113972
-0.109899
-0.10585
-0.101835
-0.0978601
-0.0939324
-0.0900579
-0.086244
-0.0824959
-0.0788194
-0.0752196
-0.0717011
-0.068268
-0.064924
-0.0616724
-0.0585156
-0.0554553
-0.0524929
-0.0496293
-0.0468648
-0.0441996
-0.041633
-0.0391641
-0.0367918
-0.0345146
-0.0323305
-0.0302374
-0.0282332
-0.0263154
-0.0244815
-0.0227287
-0.0210544
-0.0194557
-0.0179299
-0.0164742
-0.0150861
-0.0137628
-0.0125018
-0.0113007
-0.0101572
-0.00906891
-0.00803428
-0.00705019
-0.00611727
-0.00522871
-0.00439364
-0.00358777
-0.00285782
-0.00209839
-0.0015302
-0.00066937
-0.00055105
0.00105929
-0.25131
-0.249182
-0.24864
-0.247385
-0.246198
-0.244855
-0.243415
-0.241866
-0.240215
-0.238461
-0.236606
-0.234651
-0.232598
-0.23045
-0.228218
-0.225881
-0.22346
-0.220954
-0.218363
-0.215689
-0.212934
-0.210098
-0.207183
-0.20419
-0.201121
-0.197977
-0.194758
-0.191468
-0.188106
-0.184675
-0.181175
-0.17761
-0.17398
-0.170289
-0.166538
-0.162731
-0.158872
-0.154962
-0.151007
-0.147014
-0.142981
-0.138922
-0.134836
-0.130732
-0.126618
-0.122495
-0.118378
-0.114271
-0.11018
-0.106113
-0.102079
-0.0980842
-0.0941358
-0.0902408
-0.0864061
-0.0826378
-0.0789416
-0.0753231
-0.0717869
-0.0683375
-0.0649786
-0.0617136
-0.0585451
-0.0554748
-0.0525042
-0.0496343
-0.0468654
-0.0441975
-0.0416299
-0.0391618
-0.0367917
-0.034518
-0.0323388
-0.0302517
-0.0282544
-0.0263442
-0.0245186
-0.0227745
-0.021109
-0.0195193
-0.0180024
-0.0165554
-0.0151755
-0.0138598
-0.0126058
-0.0114108
-0.0102726
-0.00918839
-0.00815679
-0.00717437
-0.00624195
-0.0053521
-0.0045147
-0.00370382
-0.00296831
-0.00219933
-0.00162028
-0.000748269
-0.000596813
0.000982153
-0.251872
-0.249277
-0.248888
-0.247591
-0.246406
-0.24506
-0.243618
-0.242068
-0.240414
-0.238659
-0.236803
-0.234847
-0.232792
-0.230636
-0.228399
-0.226073
-0.223657
-0.221155
-0.218568
-0.215899
-0.21315
-0.210321
-0.207414
-0.204431
-0.201371
-0.198238
-0.195031
-0.191753
-0.188403
-0.184985
-0.181498
-0.177944
-0.174326
-0.170645
-0.166904
-0.163105
-0.159252
-0.155348
-0.151396
-0.147408
-0.143362
-0.139304
-0.135213
-0.131102
-0.126977
-0.122845
-0.118714
-0.114591
-0.110483
-0.106399
-0.102346
-0.0983316
-0.0943634
-0.0904484
-0.0865938
-0.0828059
-0.0790909
-0.0754543
-0.0719012
-0.068436
-0.0650628
-0.0617849
-0.058605
-0.055525
-0.0525465
-0.0496704
-0.0468969
-0.0442261
-0.0416572
-0.0391893
-0.0368209
-0.0345501
-0.0323749
-0.0302929
-0.0283015
-0.026398
-0.0245794
-0.0228428
-0.021185
-0.0196029
-0.0180936
-0.0166539
-0.0152808
-0.0139714
-0.012723
-0.0115328
-0.0103985
-0.00931715
-0.00828736
-0.00730543
-0.00637241
-0.00548018
-0.00463949
-0.00382267
-0.00308081
-0.00230162
-0.00171094
-0.000828322
-0.000641977
0.000899684
-0.252536
-0.24933
-0.249145
-0.247797
-0.246616
-0.24527
-0.243826
-0.242276
-0.240623
-0.238867
-0.237011
-0.235055
-0.232998
-0.230854
-0.228618
-0.226289
-0.223875
-0.221376
-0.218794
-0.216131
-0.213388
-0.210566
-0.207667
-0.204693
-0.201644
-0.198522
-0.195327
-0.19206
-0.188723
-0.185316
-0.181842
-0.1783
-0.174694
-0.17102
-0.167286
-0.163496
-0.159649
-0.155749
-0.151799
-0.147807
-0.143771
-0.139705
-0.135608
-0.131489
-0.127354
-0.123211
-0.119066
-0.114929
-0.110805
-0.106704
-0.102633
-0.0985999
-0.0946128
-0.0906788
-0.0868054
-0.082999
-0.0792661
-0.0756125
-0.0720433
-0.0685632
-0.0651763
-0.0618861
-0.0586954
-0.0556062
-0.05262
-0.0497378
-0.0469598
-0.0442859
-0.0417155
-0.0392474
-0.03688
-0.0346115
-0.0324396
-0.0303617
-0.0283752
-0.0264772
-0.0246645
-0.0229341
-0.0212826
-0.0197069
-0.0182037
-0.0167698
-0.0154022
-0.0140977
-0.0128535
-0.0116667
-0.0105348
-0.00945504
-0.00842577
-0.00744309
-0.0065083
-0.00561259
-0.00476758
-0.00394386
-0.00319478
-0.00240483
-0.00180166
-0.000909144
-0.000686373
0.000813374
-0.253309
-0.249306
-0.249402
-0.247992
-0.246817
-0.245475
-0.244032
-0.242484
-0.240832
-0.239079
-0.237225
-0.235272
-0.233223
-0.231085
-0.228841
-0.226515
-0.224106
-0.221611
-0.219035
-0.216378
-0.213642
-0.210829
-0.207939
-0.204976
-0.201933
-0.198821
-0.195638
-0.192383
-0.189058
-0.185663
-0.182199
-0.178668
-0.175071
-0.17141
-0.167686
-0.163901
-0.160059
-0.156163
-0.152216
-0.148223
-0.144187
-0.140116
-0.136014
-0.131887
-0.127744
-0.123589
-0.119432
-0.115281
-0.111142
-0.107025
-0.102937
-0.0988868
-0.094882
-0.0909303
-0.0870392
-0.0832156
-0.079466
-0.0757965
-0.0722123
-0.0687183
-0.0653187
-0.0620171
-0.0588163
-0.0557183
-0.0527249
-0.0498368
-0.0470544
-0.0443774
-0.0418052
-0.0393365
-0.0369697
-0.0347028
-0.0325333
-0.0304587
-0.028476
-0.0265823
-0.0247743
-0.0230488
-0.0214023
-0.0198315
-0.018333
-0.0169035
-0.0155397
-0.0142386
-0.0129971
-0.0118123
-0.0106816
-0.0096019
-0.00857184
-0.00758713
-0.00664935
-0.00574901
-0.00489862
-0.00406708
-0.00330986
-0.00250865
-0.00189206
-0.000990479
-0.000729911
0.000724641
-0.253939
-0.249389
-0.249583
-0.248183
-0.246999
-0.245664
-0.244225
-0.242681
-0.241034
-0.239284
-0.237435
-0.235481
-0.23341
-0.231294
-0.229065
-0.226746
-0.224342
-0.221853
-0.219283
-0.216633
-0.213905
-0.2111
-0.208219
-0.205264
-0.202235
-0.199134
-0.195961
-0.192718
-0.189404
-0.18602
-0.182567
-0.179047
-0.17546
-0.171807
-0.168091
-0.164313
-0.160476
-0.156584
-0.152639
-0.148646
-0.144608
-0.140534
-0.136427
-0.132294
-0.128141
-0.123977
-0.119809
-0.115644
-0.111492
-0.10736
-0.103256
-0.0991901
-0.095169
-0.0912011
-0.0872939
-0.0834545
-0.0796897
-0.0760055
-0.0724077
-0.068901
-0.0654897
-0.0621776
-0.0589674
-0.0558614
-0.0528611
-0.0499675
-0.0471807
-0.0445007
-0.0419265
-0.0394569
-0.0370901
-0.0348241
-0.0326562
-0.0305839
-0.0286041
-0.0267135
-0.024909
-0.023187
-0.0215441
-0.0199767
-0.0184814
-0.0170548
-0.0156935
-0.0143942
-0.0131539
-0.0119695
-0.0108385
-0.00975759
-0.00872537
-0.00773734
-0.00679535
-0.00588922
-0.00503237
-0.00419209
-0.00342576
-0.00261289
-0.00198186
-0.00107216
-0.000772573
0.000634786
-0.254339
-0.249626
-0.249653
-0.248364
-0.247154
-0.245828
-0.244396
-0.242859
-0.241218
-0.239476
-0.237633
-0.235691
-0.233676
-0.231519
-0.229288
-0.226975
-0.224577
-0.222095
-0.219533
-0.216891
-0.214171
-0.211375
-0.208503
-0.205558
-0.20254
-0.19945
-0.196288
-0.193056
-0.189753
-0.18638
-0.182938
-0.179428
-0.175851
-0.172206
-0.168498
-0.164726
-0.160895
-0.157006
-0.153063
-0.149071
-0.145032
-0.140955
-0.136843
-0.132704
-0.128544
-0.124371
-0.120192
-0.116016
-0.111851
-0.107706
-0.103588
-0.0995079
-0.0954723
-0.0914897
-0.0875681
-0.0837146
-0.0799361
-0.0762389
-0.0726287
-0.0691106
-0.0656889
-0.0623672
-0.0591486
-0.0560352
-0.0530286
-0.0501298
-0.047339
-0.0446558
-0.0420794
-0.0396086
-0.0372413
-0.0349755
-0.0328085
-0.0307375
-0.0287594
-0.0268709
-0.0250685
-0.0233487
-0.0217079
-0.0201425
-0.018649
-0.0172237
-0.0158632
-0.0145643
-0.0133237
-0.0121383
-0.0110055
-0.00992193
-0.00888619
-0.00789355
-0.00694611
-0.00603307
-0.00516865
-0.00431876
-0.00354232
-0.00271748
-0.00207092
-0.0011541
-0.000814402
0.000544967
-0.25476
-0.249819
-0.249677
-0.248496
-0.247271
-0.245954
-0.244534
-0.243007
-0.241376
-0.239643
-0.237809
-0.235868
-0.233842
-0.231713
-0.229497
-0.227192
-0.224803
-0.22233
-0.219776
-0.217142
-0.214432
-0.211646
-0.208784
-0.20585
-0.202842
-0.199763
-0.196613
-0.193391
-0.1901
-0.186738
-0.183307
-0.179806
-0.176238
-0.172602
-0.168901
-0.165136
-0.16131
-0.157425
-0.153484
-0.149493
-0.145454
-0.141374
-0.137259
-0.133114
-0.128948
-0.124767
-0.120579
-0.116393
-0.112218
-0.108061
-0.103932
-0.0998385
-0.0957903
-0.091795
-0.0878607
-0.0839949
-0.0802045
-0.0764959
-0.072875
-0.0693468
-0.0659158
-0.0625857
-0.0593596
-0.0562396
-0.0532273
-0.0503236
-0.0475288
-0.0448426
-0.0422639
-0.0397913
-0.0374231
-0.0351568
-0.0329898
-0.0309192
-0.0289418
-0.0270541
-0.0252526
-0.0235337
-0.0218936
-0.0203288
-0.0188354
-0.0174099
-0.0160489
-0.0147487
-0.0135063
-0.0123184
-0.0111824
-0.0100947
-0.00905414
-0.00805561
-0.00710149
-0.00618042
-0.00530735
-0.004447
-0.00365946
-0.00282239
-0.00215918
-0.00123625
-0.00085549
0.000456175
-0.255171
-0.250002
-0.249641
-0.24857
-0.24734
-0.246033
-0.244627
-0.243115
-0.241497
-0.239776
-0.237955
-0.236023
-0.234014
-0.231893
-0.229685
-0.22739
-0.225011
-0.222548
-0.220004
-0.217381
-0.214681
-0.211905
-0.209055
-0.206131
-0.203135
-0.200067
-0.196928
-0.193718
-0.190437
-0.187087
-0.183666
-0.180176
-0.176617
-0.172989
-0.169296
-0.165537
-0.161716
-0.157835
-0.153898
-0.149908
-0.145869
-0.141788
-0.13767
-0.133522
-0.129351
-0.125163
-0.120969
-0.116774
-0.11259
-0.108423
-0.104284
-0.100181
-0.0961217
-0.0921157
-0.0881708
-0.0842946
-0.0804941
-0.0767759
-0.0731458
-0.069609
-0.0661701
-0.0628327
-0.0596
-0.0564741
-0.0534567
-0.0505486
-0.0477501
-0.0450607
-0.0424795
-0.040005
-0.0376352
-0.0353678
-0.0332
-0.0311288
-0.0291509
-0.0272628
-0.0254609
-0.0237415
-0.0221008
-0.020535
-0.0190404
-0.0176132
-0.01625
-0.0149471
-0.0137014
-0.0125096
-0.0113689
-0.0102758
-0.00922903
-0.00822335
-0.00726136
-0.0063312
-0.00544838
-0.00457681
-0.00377713
-0.00292766
-0.00224666
-0.00131855
-0.000895968
0.000369235
-0.255531
-0.250181
-0.24953
-0.248571
-0.247349
-0.246051
-0.244664
-0.24317
-0.241569
-0.239864
-0.238056
-0.236141
-0.234137
-0.232034
-0.229841
-0.227559
-0.225192
-0.222741
-0.220209
-0.217598
-0.21491
-0.212146
-0.209308
-0.206396
-0.203411
-0.200355
-0.197228
-0.194029
-0.19076
-0.187421
-0.18401
-0.18053
-0.176981
-0.173362
-0.169676
-0.165925
-0.16211
-0.158233
-0.154299
-0.150312
-0.146274
-0.142193
-0.138074
-0.133924
-0.129749
-0.125557
-0.121357
-0.117157
-0.112965
-0.108792
-0.104644
-0.100533
-0.0964654
-0.092451
-0.0884976
-0.084613
-0.0808043
-0.0770782
-0.0734406
-0.0698968
-0.0664513
-0.0631078
-0.0598695
-0.0567385
-0.0537166
-0.0508044
-0.0480023
-0.0453098
-0.0427258
-0.0402489
-0.0378771
-0.0356078
-0.0334383
-0.0313656
-0.0293861
-0.0274965
-0.0256929
-0.0239717
-0.0223289
-0.0207607
-0.0192633
-0.017833
-0.0164661
-0.0151591
-0.0139087
-0.0127115
-0.0115647
-0.0104649
-0.00941065
-0.00839664
-0.0074256
-0.00648532
-0.0055917
-0.00470818
-0.00389534
-0.00303338
-0.00233342
-0.00140097
-0.000935983
0.000284807
-0.255787
-0.25035
-0.249333
-0.248484
-0.247285
-0.245996
-0.244631
-0.24316
-0.24158
-0.239896
-0.23811
-0.236221
-0.234219
-0.232132
-0.229956
-0.22769
-0.225338
-0.222901
-0.220383
-0.217786
-0.215111
-0.21236
-0.209534
-0.206636
-0.203664
-0.20062
-0.197505
-0.194319
-0.191062
-0.187733
-0.184334
-0.180864
-0.177325
-0.173715
-0.170038
-0.166294
-0.162485
-0.158615
-0.154685
-0.150701
-0.146666
-0.142587
-0.138468
-0.134317
-0.13014
-0.125946
-0.121743
-0.117539
-0.113343
-0.109164
-0.105011
-0.100894
-0.0968205
-0.0927998
-0.0888402
-0.0849493
-0.0811345
-0.0774024
-0.073759
-0.0702097
-0.0667589
-0.0634105
-0.0601675
-0.0570322
-0.0540062
-0.0510904
-0.0482848
-0.0455891
-0.0430022
-0.0405225
-0.038148
-0.0358762
-0.0337042
-0.0316289
-0.0296468
-0.0277545
-0.025948
-0.0242235
-0.0225773
-0.0210053
-0.0195038
-0.0180689
-0.0166969
-0.0153843
-0.0141277
-0.0129237
-0.0117696
-0.0106618
-0.0095988
-0.0085753
-0.00759408
-0.00664272
-0.00573728
-0.00484115
-0.00401415
-0.0031396
-0.00241956
-0.00148345
-0.000975689
0.000203396
-0.255867
-0.250491
-0.249045
-0.248292
-0.247129
-0.245853
-0.244514
-0.24307
-0.241517
-0.239857
-0.238089
-0.2362
-0.234232
-0.232174
-0.230019
-0.227772
-0.225437
-0.223018
-0.220516
-0.217935
-0.215275
-0.212539
-0.209728
-0.206843
-0.203885
-0.200855
-0.197753
-0.19458
-0.191335
-0.188019
-0.184631
-0.181173
-0.177643
-0.174044
-0.170376
-0.16664
-0.162839
-0.158975
-0.155051
-0.151072
-0.147041
-0.142965
-0.138849
-0.134699
-0.130523
-0.126329
-0.122125
-0.117919
-0.113721
-0.10954
-0.105384
-0.101263
-0.097186
-0.0931615
-0.0891979
-0.0853029
-0.081484
-0.0777478
-0.0741004
-0.070547
-0.0670923
-0.06374
-0.0604934
-0.0573545
-0.054325
-0.0514058
-0.0485969
-0.045898
-0.0433079
-0.040825
-0.0384473
-0.0361721
-0.0339968
-0.0319179
-0.0299322
-0.0280359
-0.0262252
-0.0244963
-0.0228453
-0.0212681
-0.019761
-0.0183201
-0.0169416
-0.015622
-0.014358
-0.0131459
-0.0119832
-0.0108661
-0.00979322
-0.00875914
-0.00776668
-0.00680332
-0.00588507
-0.00497573
-0.00413358
-0.0032464
-0.00250519
-0.00156591
-0.00101523
0.000125378
-0.255682
-0.250564
-0.248656
-0.247972
-0.246863
-0.245605
-0.244296
-0.242885
-0.241364
-0.239735
-0.238
-0.236145
-0.234176
-0.232144
-0.230016
-0.227793
-0.225481
-0.223082
-0.220599
-0.218035
-0.215393
-0.212674
-0.209879
-0.20701
-0.204068
-0.201053
-0.197965
-0.194806
-0.191574
-0.188271
-0.184896
-0.18145
-0.177932
-0.174343
-0.170685
-0.166959
-0.163167
-0.159311
-0.155395
-0.151422
-0.147397
-0.143326
-0.139214
-0.135068
-0.130895
-0.126703
-0.1225
-0.118296
-0.114098
-0.109917
-0.105761
-0.101639
-0.0975611
-0.0935352
-0.0895699
-0.0856731
-0.0818521
-0.0781137
-0.0744639
-0.070908
-0.0674507
-0.0640958
-0.0608463
-0.0577046
-0.0546721
-0.0517498
-0.0489377
-0.0462354
-0.0436418
-0.0411553
-0.0387737
-0.0364946
-0.0343149
-0.0322316
-0.0302411
-0.0283397
-0.0265237
-0.024789
-0.0231319
-0.0215483
-0.0200342
-0.0185859
-0.0171997
-0.0158718
-0.014599
-0.0133776
-0.012205
-0.0110775
-0.00999364
-0.00894796
-0.00794323
-0.00696704
-0.00603504
-0.00511194
-0.00425369
-0.00335382
-0.00259045
-0.00164824
-0.00105473
5.10102e-05
-0.255138
-0.250502
-0.248153
-0.247505
-0.246462
-0.245232
-0.243958
-0.242587
-0.241105
-0.239513
-0.237812
-0.235994
-0.234045
-0.232039
-0.229939
-0.227743
-0.225457
-0.223082
-0.220622
-0.218079
-0.215457
-0.212757
-0.209981
-0.20713
-0.204204
-0.201206
-0.198134
-0.19499
-0.191774
-0.188485
-0.185123
-0.18169
-0.178185
-0.174609
-0.170962
-0.167247
-0.163465
-0.159619
-0.155712
-0.151748
-0.147731
-0.143667
-0.139562
-0.135422
-0.131254
-0.127067
-0.122869
-0.118668
-0.114474
-0.110295
-0.106141
-0.102022
-0.0979451
-0.0939203
-0.0899557
-0.0860592
-0.0822382
-0.0784994
-0.0748488
-0.071292
-0.0678333
-0.0644768
-0.0612253
-0.0580813
-0.0550463
-0.0521211
-0.0493059
-0.0466002
-0.0440028
-0.0415122
-0.0391262
-0.0368423
-0.0346576
-0.0325688
-0.0305725
-0.0286649
-0.0268423
-0.0251007
-0.0234362
-0.0218448
-0.0203226
-0.0188657
-0.0174704
-0.016133
-0.0148501
-0.0136183
-0.0124347
-0.0112957
-0.0101998
-0.00914152
-0.00812358
-0.00713377
-0.00618713
-0.00524976
-0.00437452
-0.00346188
-0.00267544
-0.00173031
-0.00109428
-1.95393e-05
-0.254158
-0.25021
-0.247514
-0.246869
-0.2459
-0.244712
-0.243481
-0.242158
-0.240722
-0.239174
-0.237513
-0.235725
-0.233778
-0.23182
-0.229767
-0.227608
-0.225353
-0.223008
-0.220574
-0.218056
-0.215457
-0.212779
-0.210024
-0.207193
-0.204287
-0.201307
-0.198254
-0.195127
-0.191927
-0.188654
-0.185308
-0.18189
-0.178399
-0.174837
-0.171203
-0.167501
-0.163731
-0.159897
-0.156001
-0.152048
-0.148041
-0.143987
-0.13989
-0.135759
-0.1316
-0.12742
-0.123229
-0.119035
-0.114847
-0.110674
-0.106525
-0.10241
-0.0983372
-0.0943159
-0.0903543
-0.0864602
-0.0826412
-0.0789038
-0.0752543
-0.0716978
-0.068239
-0.0648819
-0.0616293
-0.0584837
-0.0554465
-0.0525187
-0.0497003
-0.046991
-0.0443895
-0.0418943
-0.0395033
-0.037214
-0.0350233
-0.0329282
-0.030925
-0.0290102
-0.02718
-0.0254303
-0.0237572
-0.0221569
-0.0206252
-0.0191585
-0.0177529
-0.0164048
-0.0151108
-0.0138674
-0.0126717
-0.0115202
-0.0104113
-0.00933956
-0.00830751
-0.00730336
-0.00634125
-0.00538916
-0.00449608
-0.00357056
-0.00276028
-0.00181199
-0.00113396
-8.61779e-05
-0.252688
-0.249577
-0.246703
-0.246043
-0.245149
-0.244021
-0.242843
-0.241576
-0.240196
-0.238701
-0.237091
-0.235365
-0.233506
-0.231528
-0.2295
-0.227379
-0.225161
-0.222849
-0.220446
-0.217957
-0.215385
-0.212733
-0.210002
-0.207195
-0.204311
-0.201352
-0.198318
-0.195211
-0.192029
-0.188774
-0.185446
-0.182044
-0.17857
-0.175023
-0.171405
-0.167718
-0.163963
-0.160142
-0.15626
-0.152319
-0.148326
-0.144283
-0.140199
-0.136079
-0.13193
-0.127761
-0.12358
-0.119396
-0.115216
-0.111052
-0.106911
-0.102803
-0.0987365
-0.0947212
-0.0907648
-0.0868754
-0.0830603
-0.0793261
-0.075679
-0.0721243
-0.0686666
-0.0653098
-0.0620568
-0.0589101
-0.0558712
-0.0529409
-0.0501194
-0.0474063
-0.0448004
-0.0423003
-0.0399037
-0.0376081
-0.0354107
-0.0333083
-0.0312974
-0.0293744
-0.0275353
-0.0257764
-0.0240937
-0.0224833
-0.0209411
-0.0194634
-0.0180464
-0.0166866
-0.0153803
-0.0141243
-0.0129156
-0.0117506
-0.0106278
-0.0095418
-0.00849482
-0.00747567
-0.00649732
-0.00553007
-0.00461839
-0.00367982
-0.00284505
-0.00189313
-0.00117379
-0.00014887
-0.250713
-0.248496
-0.245677
-0.245004
-0.244185
-0.243134
-0.242025
-0.240825
-0.23951
-0.238078
-0.236528
-0.234854
-0.23303
-0.231029
-0.229093
-0.227036
-0.224866
-0.222596
-0.22023
-0.217774
-0.215233
-0.21261
-0.209908
-0.207127
-0.204268
-0.201333
-0.198322
-0.195237
-0.192076
-0.188842
-0.185533
-0.18215
-0.178694
-0.175166
-0.171565
-0.167895
-0.164157
-0.160353
-0.156486
-0.152562
-0.148583
-0.144556
-0.140486
-0.13638
-0.132246
-0.12809
-0.123922
-0.119749
-0.115582
-0.111428
-0.107298
-0.103199
-0.0991425
-0.0951354
-0.0911865
-0.0873037
-0.0834943
-0.079765
-0.0761219
-0.0725702
-0.0691147
-0.065759
-0.0625064
-0.0593591
-0.0563187
-0.0533861
-0.0505615
-0.0478444
-0.0452339
-0.0427282
-0.0403255
-0.0380231
-0.0358182
-0.0337077
-0.0316882
-0.0297559
-0.0279071
-0.026138
-0.0244445
-0.0228229
-0.0212691
-0.0197795
-0.0183501
-0.0169774
-0.015658
-0.0143885
-0.0131658
-0.0119865
-0.0108489
-0.00974791
-0.00868525
-0.0076505
-0.0066552
-0.00567239
-0.00474144
-0.00378957
-0.00292983
-0.00197357
-0.0012138
-0.000207624
-0.248249
-0.246889
-0.244383
-0.243724
-0.242984
-0.242032
-0.241008
-0.239888
-0.238649
-0.237291
-0.23581
-0.234207
-0.232479
-0.230632
-0.228588
-0.22657
-0.224459
-0.222239
-0.219916
-0.217499
-0.214994
-0.212405
-0.209735
-0.206984
-0.204154
-0.201246
-0.198262
-0.195201
-0.192065
-0.188853
-0.185567
-0.182206
-0.178771
-0.175263
-0.171682
-0.168032
-0.164313
-0.160528
-0.15668
-0.152774
-0.148813
-0.144804
-0.140752
-0.136663
-0.132545
-0.128406
-0.124253
-0.120096
-0.115943
-0.111803
-0.107686
-0.1036
-0.0995542
-0.0955576
-0.0916183
-0.087744
-0.0839421
-0.0802193
-0.0765815
-0.073034
-0.0695816
-0.066228
-0.0629763
-0.0598289
-0.0567873
-0.0538525
-0.0510247
-0.0483035
-0.045688
-0.0431764
-0.040767
-0.0384571
-0.0362441
-0.0341247
-0.0320956
-0.0301532
-0.0282938
-0.0265135
-0.0248084
-0.0231747
-0.0216083
-0.0201057
-0.018663
-0.0172766
-0.0159431
-0.0146592
-0.0134217
-0.0122274
-0.0110743
-0.00995758
-0.00887854
-0.00782765
-0.00681476
-0.00581602
-0.00486519
-0.00389973
-0.00301467
-0.00205317
-0.00125398
-0.000262479
-0.245341
-0.24474
-0.24277
-0.242176
-0.241529
-0.240698
-0.239778
-0.238751
-0.237602
-0.236329
-0.234929
-0.233402
-0.231735
-0.22991
-0.22794
-0.225984
-0.223934
-0.221773
-0.219499
-0.217127
-0.214663
-0.212113
-0.209479
-0.206763
-0.203965
-0.201088
-0.198133
-0.195101
-0.191992
-0.188806
-0.185545
-0.182208
-0.178797
-0.175312
-0.171755
-0.168127
-0.16443
-0.160667
-0.156841
-0.152956
-0.149016
-0.145028
-0.140996
-0.136927
-0.132828
-0.128708
-0.124574
-0.120435
-0.116299
-0.112176
-0.108074
-0.104003
-0.099971
-0.095987
-0.0920592
-0.0881952
-0.0844024
-0.0806875
-0.0770562
-0.0735142
-0.0700658
-0.0667149
-0.0634647
-0.0603176
-0.0572751
-0.0543382
-0.0515072
-0.0487817
-0.0461608
-0.043643
-0.0412264
-0.0389085
-0.0366866
-0.0345577
-0.0325183
-0.030565
-0.0286941
-0.0269017
-0.0251841
-0.0235373
-0.0219576
-0.0204411
-0.0189842
-0.0175833
-0.016235
-0.0149358
-0.0136829
-0.0124728
-0.0113034
-0.0101705
-0.00907443
-0.0080069
-0.00697586
-0.00596081
-0.0049896
-0.00401018
-0.00309961
-0.00213179
-0.00129432
-0.000313501
-0.242119
-0.240802
-0.240335
-0.239811
-0.239125
-0.238327
-0.237409
-0.236363
-0.235186
-0.233878
-0.232436
-0.23086
-0.229149
-0.227298
-0.225243
-0.223266
-0.221184
-0.218973
-0.216653
-0.214236
-0.21173
-0.209138
-0.20646
-0.2037
-0.200858
-0.197936
-0.194935
-0.191857
-0.1887
-0.185467
-0.182158
-0.178774
-0.175316
-0.171784
-0.168181
-0.164509
-0.160771
-0.156969
-0.153108
-0.149193
-0.145228
-0.141219
-0.137173
-0.133097
-0.128999
-0.124886
-0.120767
-0.116651
-0.112547
-0.108463
-0.104409
-0.100392
-0.096423
-0.0925084
-0.0886564
-0.0848742
-0.0811684
-0.0775449
-0.0740091
-0.0705656
-0.0672181
-0.0639699
-0.0608234
-0.0577802
-0.0548413
-0.052007
-0.0492771
-0.0466506
-0.0441261
-0.0417018
-0.0393754
-0.0371441
-0.0350049
-0.0329545
-0.0309896
-0.0291064
-0.0273012
-0.0255703
-0.0239097
-0.0223158
-0.0207847
-0.0193129
-0.0178967
-0.0165327
-0.0152178
-0.0139486
-0.0127221
-0.011536
-0.0103862
-0.00927262
-0.00818801
-0.00713832
-0.00610658
-0.00511462
-0.00412078
-0.00318466
-0.00220929
-0.00133482
-0.000360761
-0.239113
-0.238468
-0.238189
-0.237827
-0.23731
-0.236654
-0.235862
-0.234932
-0.233863
-0.232657
-0.231313
-0.229828
-0.228197
-0.226415
-0.224507
-0.222508
-0.220482
-0.218338
-0.216077
-0.213712
-0.211255
-0.20871
-0.206077
-0.203357
-0.200555
-0.19767
-0.194705
-0.19166
-0.188537
-0.185336
-0.182057
-0.178703
-0.175274
-0.171771
-0.168196
-0.164552
-0.160841
-0.157067
-0.153233
-0.149344
-0.145405
-0.141422
-0.137402
-0.133351
-0.129277
-0.125188
-0.121092
-0.116998
-0.112915
-0.108851
-0.104816
-0.100817
-0.096864
-0.0929643
-0.0891257
-0.0853554
-0.0816599
-0.0780451
-0.0745164
-0.0710784
-0.0677349
-0.0644892
-0.0613436
-0.0582998
-0.0553589
-0.0525213
-0.0497868
-0.0471545
-0.0446231
-0.0421907
-0.0398552
-0.037614
-0.035464
-0.0334021
-0.0314249
-0.0295288
-0.0277102
-0.0259652
-0.0242902
-0.0226814
-0.0211351
-0.0196477
-0.0182156
-0.0168355
-0.015504
-0.0142181
-0.0129748
-0.0117713
-0.0106042
-0.00947263
-0.00837055
-0.00730181
-0.00625306
-0.00524005
-0.00423131
-0.00326976
-0.0022855
-0.00137541
-0.000404305
-0.23584
-0.2358
-0.235746
-0.235582
-0.235256
-0.234761
-0.234109
-0.233307
-0.232358
-0.231264
-0.230026
-0.228644
-0.227116
-0.225442
-0.223602
-0.221566
-0.219649
-0.217591
-0.215398
-0.213092
-0.21069
-0.208196
-0.205612
-0.202938
-0.200178
-0.197335
-0.194409
-0.191402
-0.188314
-0.185148
-0.181904
-0.178582
-0.175185
-0.171714
-0.168171
-0.164557
-0.160876
-0.157132
-0.153328
-0.149468
-0.145558
-0.141603
-0.137611
-0.133587
-0.12954
-0.125477
-0.121406
-0.117337
-0.113276
-0.109235
-0.10522
-0.101241
-0.0973054
-0.093422
-0.0895982
-0.0858409
-0.0821568
-0.0785518
-0.0750312
-0.0715995
-0.0682606
-0.0650178
-0.0618735
-0.0588295
-0.0558869
-0.0530461
-0.050307
-0.0476688
-0.0451303
-0.0426898
-0.040345
-0.0380935
-0.0359324
-0.0338585
-0.0318686
-0.0299592
-0.0281266
-0.0263671
-0.0246772
-0.023053
-0.021491
-0.0199874
-0.018539
-0.0171421
-0.0157938
-0.0144907
-0.01323
-0.0120088
-0.0108241
-0.00967411
-0.00855424
-0.00746614
-0.00640005
-0.0053658
-0.00434165
-0.0033549
-0.00236036
-0.00141608
-0.000444149
-0.232444
-0.232884
-0.233071
-0.233133
-0.233013
-0.232695
-0.232194
-0.231527
-0.230701
-0.229723
-0.228594
-0.227315
-0.225884
-0.224302
-0.222578
-0.220731
-0.218705
-0.216712
-0.214605
-0.21237
-0.210031
-0.207597
-0.205067
-0.202444
-0.199732
-0.196934
-0.194052
-0.191086
-0.188039
-0.184911