/*--------------------------------*- C++ -*----------------------------------*\
  =========                 |
  \\      /  F ield         | OpenFOAM: The Open Source CFD Toolbox
   \\    /   O peration     | Website:  https://openfoam.org
    \\  /    A nd           | Version:  7
     \\/     M anipulation  |
\*---------------------------------------------------------------------------*/
FoamFile
{
    version     2.0;
    format      ascii;
    class       volVectorField;
    location    "50";
    object      U;
}
// * * * * * * * * * * * * * * * * * * * * * * * * * * * * * * * * * * * * * //

dimensions      [0 1 -1 0 0 0 0];

internalField   nonuniform List<vector> 
6000
(
(-0.16228 0.00113841 -2.1438e-21)
(-0.166012 0.00102245 2.26318e-21)
(-0.1695 0.00095023 -4.13766e-21)
(-0.172865 0.000928283 2.05155e-21)
(-0.176348 0.000969709 2.03215e-21)
(-0.160177 0.00378172 1.00931e-20)
(-0.163657 0.0034844 3.5454e-21)
(-0.166865 0.00332198 -3.5065e-21)
(-0.169914 0.00331575 -2.1829e-21)
(-0.173052 0.00350611 -2.16895e-21)
(-0.155959 0.0063625 -9.4324e-21)
(-0.158934 0.0058684 2.53719e-21)
(-0.161583 0.00560178 1.77623e-20)
(-0.164001 0.00560423 -3.00648e-21)
(-0.166439 0.00594637 3.75072e-22)
(-0.15184 0.00812547 3.10805e-21)
(-0.153653 0.00772976 -6.2946e-21)
(-0.155127 0.00772699 7.98491e-21)
(-0.156495 0.00822198 1.17357e-20)
(-0.142361 0.010213 -8.74989e-22)
(-0.143067 0.00965059 -5.13725e-21)
(-0.143292 0.00961868 -1.79226e-20)
(-0.143192 0.0102595 -4.87185e-21)
(-0.130469 0.0120985 4.22167e-21)
(-0.129798 0.0113173 1.37082e-20)
(-0.128487 0.0112182 2.27089e-20)
(-0.126485 0.0119795 -1.11165e-20)
(-0.11611 0.0137637 -1.87794e-20)
(-0.113793 0.0126964 -2.90702e-20)
(-0.110688 0.0124745 -4.50551e-20)
(-0.106298 0.013298 1.73964e-20)
(-0.0991895 0.0152085 -6.11684e-21)
(-0.0949491 0.013775 1.38589e-20)
(-0.0898365 0.0133559 7.52904e-20)
(-0.0825225 0.0141377 -1.45623e-20)
(-0.0795664 0.0164535 3.26444e-20)
(-0.0730944 0.0145692 -2.1702e-20)
(-0.0658122 0.0138585 -5.05555e-20)
(-0.0550113 0.0144919 2.76201e-21)
(-0.0570396 0.0175401 2.64762e-21)
(-0.0479744 0.0151372 -2.06815e-20)
(-0.0383503 0.0139716 -2.73005e-20)
(-0.0235979 0.0145585 2.08163e-20)
(-0.0313406 0.0185204 -3.82946e-20)
(-0.0192908 0.0155903 -6.81038e-21)
(-0.00691186 0.0136193 2.71759e-20)
(0.0120283 0.0145558 -2.2482e-20)
(0.0132475 0.0160072 3.46553e-21)
(0.0290219 0.0131404 1.17463e-21)
(0.0527279 0.0142125 1.95201e-20)
(0.0502318 0.0164677 1.32455e-20)
(0.069706 0.012894 -1.07493e-21)
(0.0991938 0.0134571 -1.94774e-20)
(0.0922331 0.0170655 -1.47992e-20)
(0.115695 0.0129238 2.93687e-20)
(0.152038 0.0127947 2.94941e-20)
(0.139799 0.0179008 -2.38727e-20)
(0.167541 0.0133362 -2.92296e-20)
(0.211938 0.0126144 -6.23392e-20)
(0.225716 0.0142493 -3.8507e-20)
(0.27945 0.0132702 7.51288e-20)
(0.290565 0.0157543 5.31117e-20)
(0.35484 0.0150809 1.04049e-20)
(0.362246 0.0179437 4.43285e-20)
(0.437908 0.0182976 -9.14458e-20)
(0.52781 0.0230799 1.63968e-20)
(0.622921 0.0294808 4.00028e-20)
(0.720782 0.0374279 -1.21058e-20)
(-0.18136 0.00108072 -5.64769e-22)
(-0.187203 0.000747017 5.85588e-22)
(-0.191843 0.000630462 -3.99968e-22)
(-0.196423 0.000459796 3.66292e-22)
(-0.200347 0.000326876 -6.97599e-22)
(-0.203949 0.000205438 7.96649e-22)
(-0.207134 0.000103254 -1.58694e-22)
(-0.209969 2.04423e-05 2.11874e-22)
(-0.212457 -4.16011e-05 1.99694e-23)
(-0.214618 -8.18707e-05 -8.48397e-23)
(-0.216461 -9.97853e-05 1.10725e-22)
(-0.217996 -9.51629e-05 -1.10141e-22)
(-0.219233 -6.8265e-05 1.65749e-22)
(-0.220177 -1.98267e-05 -1.02471e-22)
(-0.220835 4.91363e-05 1.11509e-22)
(-0.221215 0.000135652 -2.27532e-22)
(-0.221328 0.000235177 4.11568e-22)
(-0.221179 0.000354815 -4.97632e-22)
(-0.220769 0.000487012 4.88388e-22)
(-0.220098 0.000628184 -7.14107e-23)
(-0.219167 0.000774321 -4.48593e-22)
(-0.217978 0.000921176 2.09179e-22)
(-0.21653 0.0010643 -1.53486e-22)
(-0.214824 0.00119905 4.18227e-22)
(-0.21286 0.00132052 -2.68012e-22)
(-0.210639 0.00142398 3.12566e-22)
(-0.208161 0.00150448 -1.16943e-22)
(-0.205427 0.00155765 -1.80282e-22)
(-0.202436 0.0015793 -6.12723e-23)
(-0.199191 0.00156582 7.03973e-23)
(-0.19569 0.00151419 2.17282e-22)
(-0.191936 0.00142226 -6.23639e-23)
(-0.187929 0.00128876 -8.28689e-23)
(-0.18367 0.0011125 2.72503e-22)
(-0.179163 0.000883401 -9.97673e-23)
(-0.174412 0.000612147 -4.75653e-23)
(-0.16942 0.000301107 4.84318e-23)
(-0.164189 -4.76404e-05 -1.38605e-22)
(-0.158725 -0.000430864 1.76016e-22)
(-0.153031 -0.000844186 1.10708e-22)
(-0.147113 -0.00128326 -5.69971e-23)
(-0.140978 -0.00174045 4.97088e-23)
(-0.134632 -0.00221107 -1.74234e-22)
(-0.128082 -0.00268772 1.66257e-22)
(-0.121335 -0.00316349 1.18463e-22)
(-0.114401 -0.00363127 -5.57772e-23)
(-0.107286 -0.00408294 2.08759e-24)
(-0.0999997 -0.00451162 3.32497e-23)
(-0.0925509 -0.0049101 -4.51705e-23)
(-0.0849493 -0.00527327 -1.14203e-22)
(-0.0772057 -0.00559431 3.22221e-23)
(-0.0693296 -0.00586669 1.10101e-22)
(-0.0613308 -0.00608593 -1.81077e-22)
(-0.0532188 -0.00624836 6.97266e-23)
(-0.045004 -0.00635079 3.67296e-23)
(-0.0366969 -0.00639121 4.72516e-23)
(-0.028307 -0.00636821 6.778e-23)
(-0.0198444 -0.0062821 -1.4259e-23)
(-0.0113192 -0.00613313 -8.5231e-23)
(-0.0027403 -0.00592315 3.70042e-23)
(0.00588355 -0.00565432 4.30494e-24)
(0.0145416 -0.0053336 3.38565e-23)
(0.0232243 -0.00496168 -2.00551e-23)
(0.0319242 -0.00454437 -3.19604e-24)
(0.040633 -0.00408758 4.87275e-23)
(0.0493427 -0.00359756 -6.56708e-24)
(0.0580457 -0.00308097 1.26003e-23)
(0.0667345 -0.00254473 -8.22907e-24)
(0.0754024 -0.00199599 1.25576e-23)
(0.0840429 -0.00144169 -1.60302e-23)
(0.0926497 -0.000889229 -6.51839e-24)
(0.101217 -0.000345559 1.49361e-23)
(0.10974 0.000182572 1.83047e-23)
(0.118214 0.000688761 -1.41805e-23)
(0.126633 0.00116712 1.34155e-23)
(0.134996 0.00161224 5.95067e-24)
(0.143298 0.00201557 -2.28156e-23)
(0.151534 0.00237619 2.90897e-23)
(0.159703 0.00268999 -8.52323e-25)
(0.167803 0.00295342 -8.95767e-24)
(0.175832 0.00316381 -4.50717e-24)
(0.183789 0.0033192 9.01881e-24)
(0.191671 0.00341832 -2.15704e-25)
(0.199479 0.0034606 -1.38914e-24)
(0.207212 0.00344606 3.57124e-24)
(0.21487 0.00337537 -8.69373e-25)
(0.222453 0.00324973 -1.3962e-24)
(0.229962 0.00307086 3.73515e-24)
(0.237397 0.00284094 -3.17642e-24)
(0.244761 0.00256245 1.648e-24)
(0.252052 0.00223836 1.09712e-24)
(0.259283 0.00187143 3.95521e-25)
(0.266426 0.00146525 -1.90192e-25)
(0.273556 0.00102093 9.14283e-25)
(0.280513 0.00054325 9.80298e-26)
(0.287676 3.26551e-05 -1.22953e-25)
(0.294186 -0.00051125 2.55394e-26)
(0.302033 -0.00108277 4.05618e-26)
(0.306718 -0.00169984 9.18996e-27)
(0.318357 -0.00244153 -1.41978e-25)
(-0.177805 0.00393533 9.39531e-22)
(-0.183649 0.00303302 -1.1447e-22)
(-0.188143 0.00278659 -1.55497e-21)
(-0.19265 0.00236602 1.50498e-21)
(-0.196487 0.00204335 -9.93257e-22)
(-0.200012 0.00173605 -4.38725e-22)
(-0.203123 0.00146188 1.55214e-21)
(-0.205887 0.00121653 -1.60618e-21)
(-0.208306 0.0009999 1.2305e-21)
(-0.2104 0.000811495 -1.08923e-21)
(-0.212178 0.000650681 1.3573e-21)
(-0.213651 0.000516862 -1.06692e-21)
(-0.214825 0.000409428 6.5895e-22)
(-0.21571 0.000327415 -1.04665e-22)
(-0.216308 0.000269507 -9.15815e-23)
(-0.216631 0.00023355 -7.03439e-22)
(-0.216684 0.000224523 9.69069e-22)
(-0.216476 0.000223793 6.63258e-23)
(-0.216008 0.000236557 -2.68325e-22)
(-0.21528 0.000259341 9.90803e-23)
(-0.214291 0.000287941 -1.16009e-21)
(-0.213044 0.000317817 1.20305e-21)
(-0.211537 0.000344251 -1.37262e-21)
(-0.209773 0.000362418 4.70756e-22)
(-0.20775 0.000367261 5.98632e-22)
(-0.205469 0.000354216 -8.33195e-22)
(-0.202931 0.00031818 -2.0167e-22)
(-0.200136 0.000254902 1.99591e-24)
(-0.197085 0.000160327 -2.76278e-22)
(-0.193778 3.10014e-05 2.58096e-22)
(-0.190216 -0.000135924 -3.7301e-22)
(-0.1864 -0.000342462 3.4044e-22)
(-0.182332 -0.00058957 2.66475e-22)
(-0.178017 -0.00087797 -1.31439e-21)
(-0.173455 -0.00121516 3.05964e-22)
(-0.168646 -0.00159294 8.0779e-22)
(-0.163597 -0.00200897 -2.36896e-22)
(-0.158313 -0.00246071 -6.08186e-22)
(-0.152798 -0.00294463 -1.99357e-22)
(-0.147057 -0.00345598 -4.24961e-22)
(-0.141096 -0.00399074 4.04874e-22)
(-0.134922 -0.0045394 6.80308e-22)
(-0.128542 -0.00509849 -7.21963e-22)
(-0.121964 -0.00565997 2.21756e-22)
(-0.115196 -0.00621676 2.73435e-22)
(-0.108245 -0.00676174 -7.70903e-23)
(-0.101121 -0.00728622 3.80134e-23)
(-0.0938335 -0.00778342 -2.51238e-22)
(-0.0863908 -0.00824613 -7.03613e-23)
(-0.0788031 -0.00866945 3.28778e-23)
(-0.0710806 -0.00904593 -1.59614e-22)
(-0.0632331 -0.00936923 1.70425e-22)
(-0.0552706 -0.00963485 1.68167e-22)
(-0.0472024 -0.0098392 -3.22602e-22)
(-0.0390384 -0.00997877 2.53044e-22)
(-0.0307887 -0.0100519 -7.57379e-23)
(-0.0224624 -0.0100572 -1.2904e-22)
(-0.0140691 -0.00999488 6.39906e-23)
(-0.00561787 -0.00986553 -7.80716e-23)
(0.00288267 -0.00967119 3.16491e-22)
(0.0114242 -0.0094149 -1.56159e-22)
(0.0199977 -0.0091019 1.10066e-22)
(0.0285947 -0.00873446 -5.3777e-23)
(0.0372079 -0.00831811 -4.1361e-23)
(0.0458301 -0.00785883 -1.13538e-22)
(0.0544541 -0.00736307 8.46701e-23)
(0.0630731 -0.00683764 -4.73977e-23)
(0.0716807 -0.00628962 -6.33319e-23)
(0.0802707 -0.00572627 1.13804e-22)
(0.0888374 -0.00515507 -9.01213e-23)
(0.0973751 -0.00458323 -9.00139e-24)
(0.105879 -0.00401795 -5.76162e-23)
(0.114344 -0.00346618 3.65163e-23)
(0.122766 -0.00293453 -4.25389e-24)
(0.13114 -0.00242907 1.26421e-24)
(0.139463 -0.00195534 2.37446e-23)
(0.147731 -0.00152179 -5.35512e-23)
(0.155941 -0.00112986 -7.90838e-24)
(0.164092 -0.000783813 -2.87367e-23)
(0.172178 -0.000487316 -9.60588e-24)
(0.1802 -0.000243199 1.40349e-23)
(0.188154 -5.35636e-05 6.98159e-24)
(0.196039 8.01832e-05 -3.67068e-23)
(0.203854 0.000157305 3.03139e-23)
(0.211598 0.000177728 -2.36237e-23)
(0.219271 0.000141961 -9.61658e-24)
(0.22687 5.1136e-05 5.51456e-25)
(0.234398 -9.32231e-05 -8.14694e-24)
(0.241853 -0.000288923 4.45647e-24)
(0.249237 -0.000533857 -9.25227e-25)
(0.256547 -0.000824792 -7.99416e-26)
(0.263796 -0.00115986 7.95191e-25)
(0.270955 -0.00153439 -5.09459e-24)
(0.278099 -0.00194946 -1.54851e-24)
(0.285063 -0.00239789 -2.60679e-24)
(0.292233 -0.00288192 1.48882e-24)
(0.298737 -0.00340425 -5.15429e-25)
(0.306578 -0.00394155 3.49919e-25)
(0.311245 -0.00457553 -2.09693e-25)
(0.322826 -0.00523366 9.8163e-25)
(-0.170676 0.00673059 -1.64419e-21)
(-0.176523 0.00523887 -7.71891e-22)
(-0.180724 0.00487916 -7.43762e-22)
(-0.185086 0.00421229 7.30214e-22)
(-0.188747 0.00370237 1.40724e-21)
(-0.192119 0.00321165 9.08512e-22)
(-0.19508 0.00276689 -3.23563e-21)
(-0.197702 0.00236013 2.89467e-21)
(-0.199984 0.00198969 1.28168e-21)
(-0.201945 0.0016537 -2.97964e-21)
(-0.203594 0.0013504 1.55984e-21)
(-0.20494 0.00107858 -2.15337e-21)
(-0.205991 0.000837599 2.92164e-21)
(-0.206754 0.00062638 -1.79516e-21)
(-0.207234 0.000443817 2.3199e-21)
(-0.207435 0.000293611 -4.01826e-21)
(-0.207375 0.000160422 2.46206e-21)
(-0.207058 3.80296e-05 8.24311e-22)
(-0.206478 -6.91205e-05 -4.08506e-22)
(-0.205639 -0.000164987 -7.52527e-23)
(-0.20454 -0.000254123 -4.89586e-22)
(-0.203183 -0.000341344 4.29618e-22)
(-0.201568 -0.000431544 -2.37825e-22)
(-0.199696 -0.000529625 3.68114e-22)
(-0.197566 -0.00064076 1.45272e-21)
(-0.195179 -0.000769292 7.72642e-23)
(-0.192536 -0.000920615 -1.33193e-21)
(-0.189636 -0.00109895 3.81959e-23)
(-0.186481 -0.00130838 5.66682e-22)
(-0.183072 -0.00155233 -1.43631e-22)
(-0.179408 -0.00183372 -1.75872e-21)
(-0.175493 -0.00215476 1.88919e-21)
(-0.171327 -0.00251691 -4.02187e-23)
(-0.166916 -0.00292116 -3.77556e-22)
(-0.16226 -0.00336041 6.10306e-22)
(-0.157362 -0.00383947 1.45336e-21)
(-0.152228 -0.00435635 -1.47923e-21)
(-0.146863 -0.00490744 2.07632e-22)
(-0.141271 -0.00548869 -2.24975e-22)
(-0.13546 -0.00609477 5.62122e-22)
(-0.129433 -0.00672211 2.66382e-22)
(-0.1232 -0.00735909 5.01673e-22)
(-0.116769 -0.00800348 -2.97685e-22)
(-0.110147 -0.00864662 -1.47408e-22)
(-0.103344 -0.00928125 -4.44349e-22)
(-0.0963661 -0.00990034 6.42322e-22)
(-0.0892243 -0.0104945 -5.68165e-22)
(-0.0819284 -0.0110572 2.73232e-22)
(-0.0744874 -0.0115812 -3.32946e-22)
(-0.0669114 -0.0120607 -2.14472e-22)
(-0.0592102 -0.0124887 1.04898e-22)
(-0.051394 -0.0128591 9.20795e-22)
(-0.0434728 -0.0131675 -1.49565e-22)
(-0.0354554 -0.0134107 -3.3006e-22)
(-0.0273514 -0.0135844 -2.57145e-22)
(-0.0191708 -0.0136874 6.3855e-22)
(-0.0109219 -0.0137186 -1.19037e-22)
(-0.00261365 -0.0136782 -4.99928e-22)
(0.00574549 -0.0135669 3.66457e-22)
(0.0141477 -0.013387 7.24187e-24)
(0.0225853 -0.0131414 7.12961e-23)
(0.0310503 -0.0128348 -2.17061e-22)
(0.0395354 -0.0124708 9.80166e-24)
(0.0480342 -0.0120549 -9.48297e-23)
(0.0565402 -0.0115931 4.15688e-22)
(0.0650473 -0.0110919 -2.00415e-22)
(0.0735496 -0.0105584 -5.55693e-23)
(0.0820415 -0.00999975 2.1657e-22)
(0.0905177 -0.00942337 -8.41686e-23)
(0.0989733 -0.00883686 8.88583e-23)
(0.107403 -0.0082476 6.88833e-23)
(0.115803 -0.00766295 -1.94083e-23)
(0.124169 -0.00709005 3.14602e-24)
(0.132497 -0.00653571 4.53878e-23)
(0.140783 -0.00600638 -5.74387e-25)
(0.149022 -0.00550824 -5.78553e-23)
(0.157213 -0.00504525 6.21409e-23)
(0.165352 -0.00462358 -2.93997e-23)
(0.173436 -0.00424737 9.85503e-23)
(0.181462 -0.00391998 3.23253e-23)
(0.189429 -0.00364425 -3.03026e-23)
(0.197333 -0.00342236 -4.74736e-24)
(0.205173 -0.00325578 2.06275e-23)
(0.212947 -0.00314537 -1.39904e-23)
(0.220653 -0.0030913 1.86866e-24)
(0.228291 -0.00309318 1.16549e-23)
(0.235859 -0.00314996 -7.66693e-24)
(0.243357 -0.0032603 2.4083e-23)
(0.250782 -0.003422 -1.75215e-23)
(0.258139 -0.00363333 6.58225e-24)
(0.265419 -0.0038908 1.11674e-23)
(0.272639 -0.00419347 -1.02643e-24)
(0.279766 -0.00453589 2.69177e-24)
(0.286877 -0.00491969 7.02336e-24)
(0.293801 -0.00533718 1.34493e-24)
(0.300934 -0.00579209 -1.11792e-24)
(0.307383 -0.00629053 2.90059e-24)
(0.315176 -0.0067898 1.64164e-25)
(0.319782 -0.00743371 7.07913e-26)
(0.33124 -0.0080083 -3.04913e-26)
(-0.159969 0.00942795 1.50059e-21)
(-0.165825 0.00731355 -6.62228e-21)
(-0.169591 0.00686782 5.81173e-21)
(-0.173741 0.00596118 -2.78871e-21)
(-0.177145 0.00526875 -3.84729e-22)
(-0.180289 0.00459951 -4.58195e-21)
(-0.183032 0.00398757 4.82658e-21)
(-0.185444 0.00342249 -2.86305e-21)
(-0.187524 0.00290097 1.07409e-21)
(-0.18929 0.00241986 -5.77453e-22)
(-0.19075 0.0019763 5.3787e-21)
(-0.191911 0.00156835 -5.75049e-21)
(-0.192782 0.00119524 4.2791e-21)
(-0.193368 0.000856098 -3.98804e-22)
(-0.193671 0.000551092 2.72991e-22)
(-0.193706 0.000278981 -9.24622e-22)
(-0.193483 1.02371e-05 -2.60321e-21)
(-0.193 -0.000233151 -9.2122e-23)
(-0.192257 -0.000460089 1.90252e-21)
(-0.191257 -0.00067496 8.01471e-22)
(-0.19 -0.000882366 2.22231e-23)
(-0.188486 -0.0010871 -1.56996e-21)
(-0.186717 -0.00129403 1.0641e-21)
(-0.184691 -0.00150799 -1.4646e-21)
(-0.18241 -0.00173419 2.67694e-21)
(-0.179873 -0.00197658 -1.66825e-21)
(-0.177082 -0.00224089 -7.64575e-22)
(-0.174037 -0.00253132 -9.75586e-22)
(-0.170739 -0.00285192 7.67452e-22)
(-0.167188 -0.00320608 1.53096e-21)
(-0.163387 -0.00359656 3.00131e-22)
(-0.159337 -0.00402545 -6.90152e-22)
(-0.155041 -0.00449396 -3.80255e-22)
(-0.150501 -0.00500283 -3.57526e-22)
(-0.145722 -0.00554822 -1.23301e-21)
(-0.140706 -0.00613058 9.70278e-22)
(-0.13546 -0.00674797 4.59832e-22)
(-0.129988 -0.0073969 -2.40779e-22)
(-0.124297 -0.00807325 3.91499e-22)
(-0.118394 -0.00877125 -1.0456e-21)
(-0.112283 -0.00948838 1.2333e-21)
(-0.105974 -0.01021 6.57289e-22)
(-0.0994763 -0.010936 -1.78833e-21)
(-0.0927974 -0.0116569 2.06599e-21)
(-0.0859474 -0.0123651 -1.22703e-21)
(-0.0789341 -0.0130541 9.99115e-22)
(-0.0717674 -0.0137134 -2.84581e-22)
(-0.0644582 -0.0143369 -8.6075e-22)
(-0.057016 -0.0149175 -2.54277e-22)
(-0.0494507 -0.0154489 4.47005e-22)
(-0.0417722 -0.0159245 9.87453e-22)
(-0.0339904 -0.0163378 -8.05334e-22)
(-0.026116 -0.0166848 -4.84558e-22)
(-0.0181568 -0.0169627 -8.7863e-23)
(-0.0101223 -0.0171665 5.52703e-22)
(-0.00202205 -0.0172958 -2.33527e-22)
(0.00613605 -0.0173494 9.13996e-23)
(0.0143439 -0.0173275 1.97636e-22)
(0.0225936 -0.0172314 -1.85394e-22)
(0.0308783 -0.0170631 3.45915e-22)
(0.0391909 -0.0168259 3.17407e-23)
(0.0475247 -0.0165243 -3.849e-22)
(0.0558734 -0.0161625 1.91035e-22)
(0.0642312 -0.015746 -2.44641e-22)
(0.0725929 -0.0152811 1.24312e-23)
(0.0809532 -0.0147743 2.61522e-22)
(0.0893073 -0.0142327 -2.17047e-22)
(0.0976506 -0.0136639 -1.82172e-23)
(0.105979 -0.0130752 -3.01913e-23)
(0.114287 -0.0124743 9.251e-23)
(0.122572 -0.0118689 -1.48667e-22)
(0.13083 -0.0112663 7.69104e-24)
(0.139057 -0.0106738 2.7468e-23)
(0.14725 -0.0100984 3.58933e-23)
(0.155405 -0.00954645 9.15785e-23)
(0.163518 -0.00902419 -1.3599e-22)
(0.171588 -0.00853603 6.075e-23)
(0.179611 -0.00808799 4.41357e-23)
(0.187584 -0.00768422 8.10708e-23)
(0.195504 -0.00732826 -1.10645e-22)
(0.203369 -0.00702301 4.96935e-23)
(0.211176 -0.00677073 -2.01171e-23)
(0.218924 -0.00657299 1.74183e-24)
(0.226609 -0.00643072 4.6968e-23)
(0.23423 -0.00634418 -1.68704e-24)
(0.241786 -0.00631312 3.01919e-23)
(0.249273 -0.00633654 -3.26918e-23)
(0.256693 -0.00641331 2.98491e-23)
(0.264042 -0.00654122 -1.62119e-23)
(0.271322 -0.00671888 7.02839e-24)
(0.278526 -0.00694257 -7.36949e-24)
(0.28567 -0.00721212 -5.5623e-24)
(0.292717 -0.00752111 5.16704e-24)
(0.29975 -0.00787296 -7.73535e-24)
(0.306587 -0.00825845 -1.45276e-24)
(0.313639 -0.00868175 -7.38151e-25)
(0.319986 -0.0091546 2.84614e-25)
(0.327691 -0.00961214 -1.02733e-24)
(0.332197 -0.0102587 6.98666e-25)
(0.343468 -0.0107525 -5.82676e-25)
(-0.145668 0.0119906 -3.11892e-22)
(-0.15155 0.00921051 1.88647e-21)
(-0.154745 0.00871483 -6.14361e-21)
(-0.158623 0.00757758 4.85126e-21)
(-0.161696 0.00670895 -2.68807e-21)
(-0.164547 0.00586777 1.76994e-21)
(-0.167008 0.00509323 -3.87466e-23)
(-0.16915 0.0043738 1.16742e-21)
(-0.170972 0.00370453 -6.30657e-21)
(-0.172487 0.00308111 4.57999e-21)
(-0.173704 0.00249965 -1.81832e-21)
(-0.174629 0.00195756 3.37504e-21)
(-0.175268 0.00145407 -2.41925e-21)
(-0.175626 0.000987229 3.51507e-21)
(-0.175708 0.00055532 9.50969e-22)
(-0.175529 0.000159969 -4.68669e-21)
(-0.175097 -0.000223569 2.2803e-21)
(-0.174404 -0.000585884 2.67516e-21)
(-0.173455 -0.000931098 -1.75713e-21)
(-0.172251 -0.00126336 -1.73372e-21)
(-0.170793 -0.0015873 2.74222e-21)
(-0.169081 -0.00190785 -3.90242e-21)
(-0.167116 -0.00223002 -1.05732e-21)
(-0.164898 -0.00255869 7.49725e-21)
(-0.162426 -0.00289921 -1.57122e-21)
(-0.159702 -0.00325492 -5.92679e-21)
(-0.156727 -0.00363195 5.24104e-21)
(-0.153501 -0.00403435 -1.54642e-21)
(-0.150026 -0.00446606 -1.28323e-21)
(-0.146302 -0.00493029 -1.05111e-21)
(-0.142332 -0.00542965 2.29459e-21)
(-0.138117 -0.00596601 9.47691e-22)
(-0.133662 -0.00654031 -1.4011e-21)
(-0.128968 -0.00715308 1.16468e-21)
(-0.12404 -0.00780078 1.34499e-21)
(-0.118883 -0.00848295 -2.00458e-21)
(-0.113502 -0.00919764 1.61983e-21)
(-0.107904 -0.00994107 -3.76962e-22)
(-0.102094 -0.010709 -7.06994e-22)
(-0.0960831 -0.0114951 -5.87702e-23)
(-0.0898721 -0.0122985 -4.56431e-22)
(-0.0834728 -0.0131003 1.31112e-21)
(-0.0768977 -0.0139035 -6.48154e-22)
(-0.0701521 -0.0146974 -1.07387e-21)
(-0.0632479 -0.0154745 -1.55977e-22)
(-0.0561926 -0.0162289 2.12411e-22)
(-0.0489966 -0.0169482 4.81681e-22)
(-0.0416718 -0.0176273 -1.25042e-21)
(-0.0342277 -0.018259 1.36122e-21)
(-0.0266744 -0.0188373 -7.33086e-22)
(-0.0190213 -0.0193554 -3.91851e-22)
(-0.0112787 -0.0198065 5.25826e-22)
(-0.00345752 -0.0201875 6.09951e-22)
(0.00443515 -0.0204941 -5.24519e-22)
(0.0123904 -0.0207238 5.35668e-22)
(0.0203984 -0.0208749 -4.55701e-22)
(0.0284523 -0.0209466 3.5985e-23)
(0.0365445 -0.0209395 5.80004e-22)
(0.044668 -0.0208547 -6.44809e-22)
(0.0528166 -0.0206947 7.90183e-22)
(0.0609841 -0.020463 -2.81345e-22)
(0.0691648 -0.0201639 4.9288e-23)
(0.0773534 -0.0198021 -6.73309e-23)
(0.0855453 -0.0193833 1.48549e-22)
(0.093736 -0.0189138 -2.57811e-22)
(0.101921 -0.0184003 -4.04609e-23)
(0.110098 -0.0178502 -1.18107e-23)
(0.118261 -0.0172708 -1.0383e-22)
(0.126408 -0.0166699 1.88025e-22)
(0.134536 -0.0160551 -2.05339e-22)
(0.142641 -0.0154342 -1.59063e-22)
(0.15072 -0.0148147 -3.87865e-23)
(0.158771 -0.0142038 3.73745e-22)
(0.166789 -0.0136085 -2.95108e-22)
(0.174774 -0.0130355 9.13951e-23)
(0.18272 -0.0124907 -5.25897e-23)
(0.190627 -0.0119793 -6.77859e-23)
(0.198491 -0.0115068 5.67862e-23)
(0.206309 -0.0110773 2.9276e-24)
(0.214079 -0.0106945 1.0621e-22)
(0.221797 -0.0103615 -1.37068e-22)
(0.229463 -0.0100805 4.42459e-23)
(0.237072 -0.00985312 4.79283e-23)
(0.244622 -0.00968042 2.17851e-24)
(0.252112 -0.0095627 6.37596e-24)
(0.259539 -0.00949979 -1.62263e-23)
(0.266901 -0.00949077 1.98806e-23)
(0.274196 -0.00953465 -2.62439e-23)
(0.281421 -0.00962922 -7.48539e-24)
(0.28858 -0.00977341 -1.64143e-23)
(0.295662 -0.00996324 4.85418e-24)
(0.302684 -0.0101993 8.67466e-24)
(0.309607 -0.0104743 -2.96408e-24)
(0.316518 -0.0107932 -2.12529e-24)
(0.323222 -0.0111459 7.52416e-24)
(0.330153 -0.0115352 8.40074e-25)
(0.336353 -0.0119813 7.81195e-25)
(0.343929 -0.0123937 3.56259e-25)
(0.348299 -0.0130356 -1.26511e-24)
(0.359322 -0.0134536 2.18556e-24)
(-0.127739 0.0143835 -4.20006e-23)
(-0.133682 0.0108917 3.13201e-21)
(-0.136177 0.0103865 -2.34537e-21)
(-0.139734 0.0090309 -6.09209e-22)
(-0.142413 0.00799389 2.84078e-21)
(-0.144913 0.00698908 -3.87983e-21)
(-0.14704 0.00605792 -1.21845e-21)
(-0.148862 0.00518928 -2.19576e-21)
(-0.150376 0.00437662 3.26903e-21)
(-0.151596 0.00361467 -4.2788e-21)
(-0.152525 0.00289857 3.12869e-21)
(-0.15317 0.00222506 2.48663e-21)
(-0.153536 0.00159377 -3.67624e-21)
(-0.153629 0.00100589 2.09692e-21)
(-0.153446 0.000468873 -1.89177e-21)
(-0.153012 -6.82595e-05 -2.42029e-21)
(-0.152333 -0.000573996 -5.761e-22)
(-0.151395 -0.0010545 2.59985e-21)
(-0.150204 -0.00151635 2.12701e-21)
(-0.148761 -0.00196409 -3.52684e-21)
(-0.147067 -0.00240261 3.74009e-21)
(-0.145123 -0.00283701 -4.62751e-21)
(-0.14293 -0.00327241 1.04284e-21)
(-0.140487 -0.00371367 1.28616e-21)
(-0.137795 -0.00416643 -2.89923e-21)
(-0.134854 -0.00463308 1.05642e-21)
(-0.131666 -0.00512036 -1.23893e-21)
(-0.128231 -0.00563218 3.08773e-21)
(-0.124552 -0.00617234 -4.22127e-21)
(-0.120629 -0.00674393 -1.15539e-21)
(-0.116465 -0.00734936 2.49275e-21)
(-0.112063 -0.00799033 -8.6219e-22)
(-0.107427 -0.0086675 -2.18674e-21)
(-0.102558 -0.00938151 3.60067e-21)
(-0.0974626 -0.010128 -5.49839e-22)
(-0.0921463 -0.0109063 8.32937e-22)
(-0.0866152 -0.0117144 -5.94219e-22)
(-0.0808759 -0.0125483 -6.66281e-22)
(-0.0749348 -0.0134034 -3.77741e-21)
(-0.0688044 -0.0142725 4.46132e-22)
(-0.0624838 -0.0151591 2.76461e-21)
(-0.0559859 -0.0160357 -6.95355e-22)
(-0.0493262 -0.0169108 -5.8927e-22)
(-0.0425087 -0.0177725 -7.13029e-22)
(-0.0355469 -0.0186127 1.78425e-21)
(-0.0284477 -0.0194275 -5.6845e-22)
(-0.0212215 -0.0202012 1.91778e-22)
(-0.0138819 -0.0209301 -1.21407e-21)
(-0.00643838 -0.0216074 5.13478e-22)
(0.00109893 -0.0222263 -6.20877e-22)
(0.00872122 -0.0227802 1.36822e-21)
(0.0164178 -0.0232639 -1.04521e-21)
(0.0241778 -0.0236733 3.52292e-22)
(0.0319942 -0.0240032 -1.27575e-21)
(0.0398585 -0.0242536 9.31415e-22)
(0.0477619 -0.0244214 2.32376e-22)
(0.0556976 -0.0245064 5.44089e-22)
(0.0636588 -0.0245092 -7.97348e-22)
(0.0716393 -0.0244315 -5.06975e-23)
(0.0796336 -0.0242759 -3.60607e-22)
(0.0876364 -0.024046 -1.13823e-22)
(0.095643 -0.0237462 -5.08694e-22)
(0.103649 -0.0233817 3.60766e-22)
(0.111651 -0.0229581 -3.02941e-23)
(0.119646 -0.022482 -5.96911e-22)
(0.12763 -0.0219603 9.30205e-22)
(0.1356 -0.0214003 -4.17928e-22)
(0.143555 -0.0208096 1.96042e-22)
(0.151491 -0.020196 -3.97623e-23)
(0.159405 -0.0195672 -4.36115e-22)
(0.167297 -0.0189311 2.96131e-22)
(0.175163 -0.0182951 -8.62107e-24)
(0.183002 -0.0176665 -1.0623e-22)
(0.19081 -0.0170525 1.00679e-22)
(0.198586 -0.0164595 -2.45025e-22)
(0.206328 -0.0158937 5.81552e-23)
(0.214032 -0.0153603 1.00984e-22)
(0.221696 -0.0148646 -5.3731e-23)
(0.229319 -0.0144109 1.1603e-23)
(0.236897 -0.014003 -9.26081e-23)
(0.244427 -0.0136437 3.7607e-23)
(0.251907 -0.0133354 -5.63068e-24)
(0.259335 -0.0130798 -1.05309e-22)
(0.266708 -0.012878 8.2906e-23)
(0.274022 -0.0127303 -6.08976e-23)
(0.281276 -0.0126366 -1.48297e-23)
(0.288468 -0.012596 -3.59614e-23)
(0.295595 -0.0126077 5.12092e-23)
(0.302653 -0.0126694 -8.90944e-24)
(0.309647 -0.0127804 -1.17854e-23)
(0.316562 -0.0129365 -9.86375e-24)
(0.323421 -0.0131388 -6.57306e-24)
(0.330176 -0.0133797 -3.1285e-24)
(0.336924 -0.0136645 2.90713e-25)
(0.343453 -0.013984 -1.06199e-23)
(0.350224 -0.0143371 6.50955e-25)
(0.356236 -0.0147558 -3.89984e-24)
(0.363644 -0.0151205 3.43236e-25)
(0.367847 -0.0157506 -2.8909e-25)
(0.378566 -0.016099 -1.83469e-24)
(-0.106108 0.0165701 8.98163e-21)
(-0.112177 0.0123334 -4.34621e-21)
(-0.113857 0.0118542 3.97827e-21)
(-0.117057 0.0102965 -6.41095e-21)
(-0.119293 0.00910029 3.1244e-21)
(-0.121397 0.00794162 1.99566e-21)
(-0.123149 0.00686121 5.80475e-21)
(-0.124613 0.00584955 -2.87179e-21)
(-0.125784 0.00489882 -1.7272e-21)
(-0.126672 0.00400287 -6.41113e-22)
(-0.127281 0.00315604 1.48255e-21)
(-0.127614 0.00235448 -3.42605e-21)
(-0.127673 0.00159875 6.89187e-21)
(-0.127459 0.000891296 -5.56891e-21)
(-0.126997 0.000234173 4.45674e-21)
(-0.126293 -0.000428053 -7.06557e-21)
(-0.125329 -0.0010509 5.56059e-21)
(-0.124116 -0.00164764 -3.42656e-21)
(-0.122656 -0.00222422 -3.97446e-22)
(-0.120948 -0.0027856 3.95568e-21)
(-0.118994 -0.00333689 -4.74323e-21)
(-0.116794 -0.00388326 3.36192e-21)
(-0.114349 -0.00442993 -4.04206e-21)
(-0.111659 -0.00498176 5.1897e-21)
(-0.108723 -0.00554481 -2.79805e-21)
(-0.105544 -0.00612014 -2.0369e-21)
(-0.102122 -0.00671526 3.45612e-21)
(-0.0984599 -0.00733397 -1.79814e-21)
(-0.0945581 -0.00797988 1.1797e-21)
(-0.0904189 -0.00865591 1.6953e-21)
(-0.0860453 -0.00936426 -2.35563e-21)
(-0.0814402 -0.0101064 -1.23409e-21)
(-0.0766087 -0.0108828 2.21798e-21)
(-0.0715532 -0.0116947 8.71621e-22)
(-0.0662785 -0.0125363 1.51899e-21)
(-0.0607926 -0.0134064 -3.08533e-21)
(-0.055102 -0.0143036 1.06669e-21)
(-0.0492138 -0.0152233 2.83529e-21)
(-0.0431343 -0.0161603 -2.52576e-21)
(-0.0368805 -0.0171067 -1.60606e-21)
(-0.0304472 -0.0180738 4.43465e-21)
(-0.0238472 -0.019019 -1.49833e-21)
(-0.017102 -0.0199603 1.01233e-21)
(-0.0102125 -0.0208842 -3.08183e-21)
(-0.00319485 -0.0217831 1.47588e-21)
(0.00394531 -0.0226478 9.36547e-22)
(0.0111982 -0.0234702 -8.68263e-22)
(0.0185474 -0.0242435 -4.80304e-22)
(0.0259842 -0.0249604 -3.07691e-22)
(0.0334986 -0.0256137 -1.00934e-21)
(0.0410811 -0.0261972 1.44784e-21)
(0.0487215 -0.0267073 -5.48397e-22)
(0.0564097 -0.0271386 -1.26459e-22)
(0.0641381 -0.027487 3.56673e-22)
(0.0718986 -0.0277516 -8.12663e-22)
(0.0796833 -0.0279304 7.68399e-22)
(0.0874857 -0.0280233 2.60946e-22)
(0.0952998 -0.0280311 2.26075e-23)
(0.10312 -0.0279557 -9.30668e-22)
(0.110942 -0.0278 2.41666e-22)
(0.11876 -0.0275678 1.76834e-22)
(0.126573 -0.0272637 -6.34653e-23)
(0.134375 -0.0268931 2.66573e-22)
(0.142164 -0.0264618 -8.42013e-22)
(0.149939 -0.0259767 4.54441e-22)
(0.157696 -0.0254446 2.52951e-22)
(0.165435 -0.024873 -2.21433e-22)
(0.173153 -0.0242697 2.21058e-22)
(0.180849 -0.0236424 -2.87462e-22)
(0.188522 -0.022999 1.03047e-22)
(0.19617 -0.0223473 -2.00417e-22)
(0.203791 -0.0216949 -1.62689e-24)
(0.211385 -0.021049 4.49212e-22)
(0.218949 -0.0204167 -9.03679e-24)
(0.226483 -0.0198046 -6.29376e-23)
(0.233983 -0.0192187 9.96934e-23)
(0.241448 -0.0186644 -3.90252e-23)
(0.248876 -0.0181467 -6.06293e-23)
(0.256265 -0.0176701 8.85657e-23)
(0.263612 -0.0172382 -1.03186e-23)
(0.270915 -0.016854 -8.62674e-25)
(0.278171 -0.0165198 -4.21358e-23)
(0.285377 -0.0162373 3.88047e-23)
(0.292531 -0.0160075 -1.43199e-22)
(0.299629 -0.0158309 7.19008e-23)
(0.30667 -0.0157074 -3.79396e-23)
(0.31365 -0.0156361 5.98636e-23)
(0.320569 -0.0156163 1.27579e-23)
(0.327419 -0.0156458 -1.11382e-23)
(0.334207 -0.015724 2.59354e-23)
(0.340916 -0.0158466 1.15912e-23)
(0.347571 -0.016015 1.89429e-24)
(0.354119 -0.0162218 -7.40322e-24)
(0.360666 -0.0164718 -8.73135e-25)
(0.366981 -0.0167581 1.23981e-25)
(0.373556 -0.017073 1.13157e-24)
(0.379342 -0.017464 -8.71023e-25)
(0.386547 -0.017779 1.75624e-24)
(0.390556 -0.0183907 -6.45754e-25)
(0.400917 -0.0186767 9.13328e-25)
(-0.0806556 0.0184939 -8.68699e-21)
(-0.0869581 0.0135307 1.79347e-22)
(-0.0877278 0.0130933 1.19526e-20)
(-0.0905473 0.0113569 2.0962e-23)
(-0.0923112 0.0100119 -5.57822e-22)
(-0.0939894 0.00871028 5.68414e-21)
(-0.0953418 0.0074893 -1.45107e-20)
(-0.0964233 0.00634177 -3.79372e-21)
(-0.0972291 0.00525905 1.07272e-20)
(-0.0977651 0.0042343 -1.29546e-21)
(-0.0980336 0.00326115 -3.74516e-21)
(-0.0980347 0.00233471 5.18904e-21)
(-0.0977703 0.00145683 -7.76169e-21)
(-0.0972424 0.000634357 1.52421e-21)
(-0.0964752 -0.000165977 9.58472e-21)
(-0.0954716 -0.000930617 -2.71619e-21)
(-0.0942158 -0.00166566 -7.57009e-21)
(-0.0927146 -0.00237562 5.36201e-21)
(-0.09097 -0.00306449 -2.06804e-21)
(-0.0889831 -0.00373718 -1.1612e-21)
(-0.0867544 -0.00439886 5.1356e-21)
(-0.0842848 -0.00505478 6.3204e-23)
(-0.0815745 -0.00571022 -6.17264e-21)
(-0.0786254 -0.00636993 1.05314e-21)
(-0.0754351 -0.00704096 -1.12961e-21)
(-0.0720056 -0.00772227 1.67103e-21)
(-0.0683405 -0.00842233 -1.53479e-21)
(-0.0644402 -0.00914492 4.49366e-21)
(-0.0603071 -0.00989343 -2.17246e-21)
(-0.0559434 -0.0106705 8.80575e-22)
(-0.0513527 -0.0114782 -1.30591e-21)
(-0.0465383 -0.0123177 6.64168e-22)
(-0.0415068 -0.0131889 -4.54823e-22)
(-0.0362603 -0.0140955 7.16865e-22)
(-0.030803 -0.0150284 -2.22178e-22)
(-0.0251452 -0.0159856 -2.40468e-21)
(-0.019294 -0.0169671 2.0552e-21)
(-0.0132567 -0.017968 -2.59149e-21)
(-0.00703934 -0.0189828 2.38906e-21)
(-0.000665527 -0.0200077 -9.15086e-22)
(0.00587619 -0.0210311 -3.0827e-21)
(0.012576 -0.0220459 4.16734e-21)
(0.019401 -0.0230486 -1.74078e-21)
(0.0263555 -0.0240292 -2.46118e-21)
(0.0334236 -0.0249804 2.26018e-21)
(0.0405968 -0.0258887 -1.14548e-21)
(0.0478652 -0.0267535 8.31572e-22)
(0.055214 -0.0275644 1.4194e-21)
(0.0626336 -0.028314 1.5904e-22)
(0.0701134 -0.0289954 -2.42569e-21)
(0.0776438 -0.0296029 2.68573e-22)
(0.085215 -0.0301322 1.63475e-21)
(0.0928173 -0.0305789 -1.83409e-21)
(0.100443 -0.0309393 7.07981e-22)
(0.108085 -0.0312121 3.72626e-22)
(0.115735 -0.031396 9.06558e-23)
(0.123387 -0.031491 -2.10865e-22)