/*--------------------------------*- C++ -*----------------------------------*\
  =========                 |
  \\      /  F ield         | OpenFOAM: The Open Source CFD Toolbox
   \\    /   O peration     | Website:  https://openfoam.org
    \\  /    A nd           | Version:  7
     \\/     M anipulation  |
\*---------------------------------------------------------------------------*/
FoamFile
{
    version     2.0;
    format      ascii;
    class       volScalarField;
    location    "5";
    object      p;
}
// * * * * * * * * * * * * * * * * * * * * * * * * * * * * * * * * * * * * * //

dimensions      [0 2 -2 0 0 0 0];

internalField   nonuniform List<scalar> 
3313
(
-0.351478
-0.358647
-0.36662
-0.375297
-0.384731
-0.395327
-0.352798
-0.359989
-0.368003
-0.376728
-0.386192
-0.396921
-0.355151
-0.362356
-0.370414
-0.379193
-0.38867
-0.399584
-0.358032
-0.365189
-0.373231
-0.38201
-0.391415
-0.402414
-0.360831
-0.36782
-0.375718
-0.384382
-0.393576
-0.404361
-0.362959
-0.369617
-0.377189
-0.385567
-0.394404
-0.404498
-0.370115
-0.377161
-0.385049
-0.393403
-0.402818
-0.369103
-0.375439
-0.382637
-0.390339
-0.399058
-0.372143
-0.378519
-0.385479
-0.393245
-0.367704
-0.373184
-0.379355
-0.38597
-0.367347
-0.372719
-0.377899
-0.366423
-0.369718
-0.360997
-0.362108
-0.35575
-0.41533
-0.434304
-0.4436
-0.436559
-0.411837
-0.369016
-0.31006
-0.239636
-0.165736
-0.0963693
-0.0378185
0.00726507
0.0392186
0.0600009
0.072196
0.0782172
0.0800161
0.0790497
0.076361
0.0726729
0.0684709
0.0640697
0.0596655
0.0553726
0.0512525
0.0473336
0.0436261
0.0401307
0.0368438
0.0337604
0.0308743
0.0281795
0.0256679
0.0233319
0.0211601
0.019144
0.0172686
0.0155262
0.0138979
0.0123805
0.0109493
0.00961052
0.00832829
0.00712732
0.00595035
0.00485241
0.00373283
0.0027149
0.00160388
0.000647267
-0.417772
-0.43693
-0.446583
-0.440103
-0.416013
-0.373767
-0.315127
-0.244596
-0.1702
-0.100125
-0.0408541
0.00486328
0.0373161
0.0584839
0.0709788
0.0772361
0.0792213
0.0784019
0.075828
0.07223
0.0680994
0.0637562
0.0593997
0.0551472
0.0510615
0.0471722
0.04349
0.0400163
0.0367478
0.03368
0.030807
0.0281233
0.0256209
0.0232925
0.0211272
0.0191164
0.0172454
0.0155068
0.0138817
0.0123669
0.010938
0.00960105
0.00832047
0.00712079
0.00594473
0.004848
0.00372976
0.00271269
0.0016026
0.000646436
-0.421981
-0.441481
-0.451837
-0.446428
-0.42359
-0.382501
-0.324559
-0.253969
-0.178785
-0.107434
-0.0467199
0.000132962
0.0335295
0.0554494
0.068539
0.0752693
0.07763
0.0771072
0.0747653
0.0713489
0.067362
0.0631345
0.0588734
0.054701
0.0506834
0.0468525
0.0432204
0.0397896
0.0365575
0.0335205
0.0306735
0.0280116
0.0255274
0.0232143
0.0210616
0.0190614
0.0171994
0.0154681
0.0138492
0.0123397
0.0109153
0.00958214
0.00830488
0.00710779
0.0059336
0.00483941
0.00372367
0.00270825
0.00160005
0.000644782
-0.426775
-0.446762
-0.458153
-0.454275
-0.433252
-0.393906
-0.337144
-0.266873
-0.19084
-0.117661
-0.0551994
-0.00680356
0.0279109
0.0509104
0.0648762
0.0723145
0.0752424
0.0751698
0.0731802
0.070039
0.0662689
0.0622151
0.0580962
0.0540426
0.0501256
0.0463808
0.0428223
0.0394544
0.0362759
0.0332843
0.0304756
0.0278458
0.0253885
0.0230979
0.0209641
0.0189796
0.0171307
0.0154105
0.0138009
0.0122992
0.0108814
0.0095539
0.00828156
0.0070885
0.00591721
0.00482712
0.00371451
0.00270164
0.00159623
0.000642316
-0.430787
-0.451409
-0.46421
-0.462205
-0.443504
-0.406487
-0.351527
-0.282133
-0.205216
-0.130154
-0.0660103
-0.0157679
0.0205481
0.0449072
0.0600084
0.0683815
0.0720672
0.0725993
0.0710848
0.068314
0.0648344
0.0610119
0.057081
0.0531833
0.0493979
0.045765
0.0423023
0.0390161
0.0359071
0.0329746
0.0302157
0.0276278
0.0252057
0.0229445
0.0208354
0.0188716
0.0170399
0.0153342
0.0137369
0.0122455
0.0108365
0.00951647
0.00825063
0.00706308
0.0058963
0.00481275
0.00370165
0.00269286
0.00159121
0.000639061
-0.432862
-0.454221
-0.46878
-0.468943
-0.453012
-0.418909
-0.366488
-0.29785
-0.220721
-0.144685
-0.0786819
-0.0265127
0.0115821
0.0375206
0.0539833
0.0635006
0.0681259
0.0694138
0.0684963
0.066191
0.0630752
0.0595408
0.0558424
0.0521363
0.0485115
0.0450147
0.0416679
0.0384807
0.0354561
0.0325951
0.0298968
0.0273599
0.0249807
0.0227556
0.0206766
0.0187381
0.0169278
0.0152399
0.0136577
0.012179
0.0107809
0.00947002
0.0082122
0.00703155
0.00587114
0.00479039
0.00368468
0.00268165
0.00158508
0.000635112
-0.431866
-0.454571
-0.470937
-0.473579
-0.46067
-0.429839
-0.380242
-0.313673
-0.236996
-0.160285
-0.0927349
-0.0387309
0.00120879
0.0288766
0.0468835
0.0577267
0.0634559
0.0656401
0.0654367
0.0636895
0.0610095
0.0578185
0.0543955
0.0509148
0.0474778
0.0441394
0.0409274
0.037855
0.0349281
0.0321502
0.0295222
0.0270447
0.0247156
0.0225326
0.020489
0.0185803
0.0167949
0.0151281
0.0135636
0.0121
0.0107147
0.00941475
0.00816647
0.00699394
0.0058411
0.00476435
0.00366892
0.00266736
0.0015774
0.000630529
-0.427957
-0.452086
-0.470296
-0.475501
-0.465854
-0.43868
-0.392559
-0.32846
-0.253032
-0.176301
-0.107683
-0.05208
-0.0103388
0.0191339
0.038817
0.0511329
0.0581059
0.0613113
0.06193
0.0608293
0.0586544
0.0558605
0.0527546
0.0495317
0.0463081
0.0431489
0.0400886
0.0371453
0.0343284
0.031644
0.0290953
0.026685
0.0244125
0.0222773
0.0202739
0.018399
0.0166422
0.0149994
0.0134553
0.0120089
0.0106383
0.0093509
0.00811361
0.00695034
0.0058061
0.00473646
0.00364638
0.00265002
0.00156729
0.000624956
-0.421775
-0.446904
-0.466928
-0.474846
-0.468364
-0.444858
-0.40251
-0.341602
-0.268189
-0.192167
-0.123073
-0.0662274
-0.0228246
0.00845873
0.0299008
0.0438005
0.0521316
0.0564651
0.0580004
0.0576284
0.056025
0.0536803
0.0509319
0.0479982
0.0450125
0.042052
0.0391593
0.0363583
0.0336625
0.031081
0.0286197
0.0262835
0.0240738
0.0219915
0.0200329
0.0181956
0.0164706
0.0148546
0.0133333
0.0119061
0.0105521
0.00927874
0.00805385
0.00690099
0.0057665
0.00470517
0.00362241
0.0026322
0.00155768
0.000618235
-0.414119
-0.439671
-0.461132
-0.471669
-0.468233
-0.448238
-0.409761
-0.352578
-0.281941
-0.20741
-0.138499
-0.0808405
-0.035988
-0.00294869
0.0202871
0.0358433
0.0456157
0.0511601
0.0536873
0.0541133
0.0531399
0.0512922
0.0489391
0.0463246
0.0436003
0.0408568
0.0381466
0.0354999
0.0329353
0.0304654
0.028099
0.0258433
0.0237018
0.0216772
0.0197673
0.0179713
0.0162811
0.0146945
0.0131982
0.0117922
0.0104565
0.00919859
0.00798741
0.00684609
0.00572252
0.00467012
0.00359647
0.00261198
0.00154592
0.000611684
-0.406048
-0.431083
-0.453394
-0.466208
-0.465553
-0.448893
-0.414176
-0.360996
-0.293802
-0.221506
-0.153423
-0.0954128
-0.0493894
-0.0147313
0.0102539
0.0274699
0.0387092
0.0455017
0.0490641
0.0503341
0.0500342
0.0487204
0.0467938
0.0445239
0.0420815
0.0395716
0.0370569
0.0345755
0.0321511
0.0298005
0.0275357
0.0253663
0.023298
0.0213355
0.0194782
0.0177267
0.0160742
0.0145195
0.0130503
0.0116674
0.0103515
0.00911047
0.00791433
0.00678563
0.00567412
0.0046314
0.0035681
0.0025907
0.00153408
0.000604552
-0.398354
-0.421801
-0.444213
-0.458814
-0.460553
-0.446883
-0.41578
-0.366581
-0.303265
-0.23386
-0.167247
-0.109419
-0.0626177
-0.0265894
8.90761e-06
0.0188171
0.0314976
0.0395403
0.0441613
0.0463133
0.0467287
0.0459844
0.0445129
0.0426106
0.0404683
0.0382064
0.0358989
0.0335922
0.0313159
0.0290913
0.0269337
0.0248556
0.022865
0.0209684
0.0191671
0.0174629
0.0158506
0.0143301
0.01289
0.0115317
0.0102373
0.00901442
0.00783456
0.00671955
0.00562123
0.00458901
0.00353729
0.00256784
0.00152195
0.000597176
-0.391306
-0.412296
-0.434013
-0.449856
-0.45355
-0.442528
-0.41488
-0.369817
-0.310841
-0.24514
-0.180825
-0.123823
-0.0766334
-0.0393851
-0.0111621
0.00932715
0.0235647
0.0329779
0.0387707
0.041904
0.0431287
0.0430317
0.0420723
0.040578
0.0387647
0.0367714
0.0346862
0.0325652
0.0304454
0.0283532
0.0263079
0.024325
0.0224151
0.020587
0.0188436
0.0171885
0.0156179
0.0141326
0.0127226
0.0113899
0.0101176
0.00891367
0.00775077
0.00665007
0.0055656
0.00454446
0.00350514
0.00254398
0.00151002
0.000589437
-0.384773
-0.402742
-0.422994
-0.439021
-0.444392
-0.436004
-0.41218
-0.37206
-0.318369
-0.257413
-0.196235
-0.140485
-0.0929895
-0.0543635
-0.024197
-0.00165603
0.0144805
0.0255469
0.0327307
0.0370027
0.0391468
0.039794
0.0394258
0.0383993
0.0369582
0.0352645
0.0334235
0.031504
0.0295519
0.0276002
0.0256729
0.0237894
0.021963
0.0202051
0.0185209
0.0169155
0.0153868
0.0139367
0.0125568
0.0112495
0.00999925
0.00881395
0.00766793
0.00658133
0.0055108
0.00450048
0.00347408
0.00252065
0.00150029
0.000581646
-0.379283
-0.393223
-0.411089
-0.42621
-0.432038
-0.42543
-0.404737
-0.368992
-0.320173
-0.26348
-0.205285
-0.151059
-0.10402
-0.0650783
-0.0339697
-0.0102027
0.00716016
0.0193374
0.0274876
0.0325818
0.0354186
0.0366452
0.0367708
0.0361601
0.035065
0.0336583
0.0320563
0.0303372
0.0285547
0.0267473
0.0249435
0.0231658
0.0214303
0.0197502
0.0181327
0.0165843
0.0151045
0.0136962
0.0123524
0.0110756
0.00985256
0.00868979
0.00756507
0.00649515
0.00544274
0.00444451
0.00343568
0.00248964
0.0014895
0.000571124
-0.336583
-0.350728
-0.369251
-0.383241
-0.388194
-0.38194
-0.363531
-0.332559
-0.290319
-0.240836
-0.189656
-0.141861
-0.100694
-0.0669767
-0.0398407
-0.0186515
-0.00283938
0.00855948
0.0166144
0.0221393
0.0257008
0.0277714
0.0287599
0.0289821
0.0286624
0.0279586
0.026985
0.0258259
0.0245442
0.0231871
0.0217901
0.02038
0.0189771
0.0175966
0.0162491
0.0149419
0.0136786
0.0124616
0.0112896
0.0101625
0.00907548
0.0080285
0.00701325
0.006032
0.0050719
0.00414044
0.00321683
0.00231774
0.00140648
0.0005119
-0.264532
-0.280945
-0.284455
-0.280861
-0.272598
-0.260174
-0.243253
-0.221727
-0.196264
-0.168437
-0.14038
-0.113904
-0.090092
-0.0694855
-0.0522393
-0.0378481
-0.0259271
-0.0162623
-0.00849871
-0.00228769
0.00262407
0.00642918
0.00930722
0.0114305
0.0129469
0.0139719
0.0145954
0.0148924
0.0149271
0.0147533
0.0144144
0.0139456
0.0133755
0.0127281
0.0120232
0.0112776
0.0105039
0.00971357
0.00891392
0.00811266
0.00731248
0.00651907
0.00573068
0.00495309
0.00417941
0.00341829
0.00265541
0.00190706
0.00114702
0.000408253
-0.203957
-0.214566
-0.21554
-0.211612
-0.205439
-0.197762
-0.188325
-0.176832
-0.163003
-0.146926
-0.129285
-0.111149
-0.0935435
-0.0772104
-0.0625213
-0.0494533
-0.0378354
-0.027733
-0.0193111
-0.0124534
-0.00687756
-0.00234707
0.00126927
0.00407812
0.00621053
0.00779302
0.00892564
0.00968751
0.0101464
0.0103614
0.0103815
0.0102469
0.0099898
0.00963722
0.00921099
0.00872918
0.00820553
0.00765163
0.00707542
0.0064846
0.00588285
0.00527594
0.00466387
0.00405241
0.00343759
0.0028275
0.0022123
0.00160513
0.00098369
0.000365105
-0.155744
-0.164652
-0.166245
-0.163263
-0.158444
-0.152679
-0.145823
-0.137285
-0.126917
-0.115112
-0.102535
-0.0898743
-0.077671
-0.0662607
-0.055813
-0.0463821
-0.0379662
-0.0305578
-0.0241306
-0.018611
-0.0139144
-0.00997461
-0.00669924
-0.00398255
-0.00174191
8.75008e-05
0.0015656
0.00274306
0.00366112
0.0043558
0.00485915
0.00519915
0.00539985
0.00548245
0.00546551
0.00536554
0.0051963
0.00497009
0.00469648
0.00438478
0.0040411
0.00367289
0.00328303
0.00287839
0.00245834
0.00203087
0.00159049
0.00114887
0.000693446
0.000245705
-0.120272
-0.12723
-0.128725
-0.126921
-0.123645
-0.119645
-0.114952
-0.109385
-0.102879
-0.0955718
-0.0877445
-0.079672
-0.0715588
-0.063582
-0.0559033
-0.0486484
-0.0418898
-0.0356662
-0.030012
-0.0249509
-0.0204761
-0.0165518
-0.0131284
-0.0101583
-0.00760058
-0.00541741
-0.00357427
-0.00203595
-0.000767605
0.000263464
0.00108743
0.0017311
0.00221849
0.00257133
0.00280889
0.00294849
0.00300491
0.00299135
0.00291856
0.00279667
0.00263315
0.00243604
0.00220993
0.00196187
0.00169357
0.00141249
0.00111682
0.000816034
0.000502074
0.000185647
-0.094731
-0.100098
-0.101578
-0.100625
-0.0985331
-0.0959068
-0.0928536
-0.0892427
-0.0849691
-0.0800451
-0.0745407
-0.0686075
-0.0624771
-0.0563652
-0.0504259
-0.0447544
-0.0394097
-0.0344334
-0.0298559
-0.0256908
-0.0219333
-0.0185673
-0.0155728
-0.0129271
-0.010605
-0.00857985
-0.00682472
-0.00531381
-0.00402289
-0.00292874
-0.00200915
-0.00124312
-0.000612241
-0.000100394
0.000306763
0.00062231
0.000857737
0.00102353
0.00112862
0.0011815
0.001189
0.00115817
0.00109396
0.00100262
0.000887225
0.000753941
0.000603706
0.000443446
0.000271305
9.65599e-05
-0.0753937
-0.0796568
-0.0810486
-0.0806608
-0.0793678
-0.0777193
-0.075758
-0.0733641
-0.0704399
-0.0669719
-0.063043
-0.0588061
-0.054427
-0.0500374
-0.0457187
-0.0415205
-0.0374795
-0.0336279
-0.0299928
-0.0265941
-0.0234437
-0.0205464
-0.0179003
-0.0154987
-0.0133321
-0.0113889
-0.00965594
-0.00811963
-0.00676585
-0.00558026
-0.0045484
-0.00365613
-0.00289017
-0.00223808
-0.00168814
-0.00122929
-0.000851346
-0.000544861
-0.000301348
-0.000112837
2.76401e-05
0.000126799
0.000190234
0.00022369
0.000231558
0.00021896
0.000189225
0.000147105
9.46786e-05
3.54737e-05
-0.0608221
-0.0642161
-0.0654761
-0.0653989
-0.064666
-0.0636669
-0.0624205
-0.0608463
-0.058867
-0.0564822
-0.0537596
-0.0507936
-0.0476742
-0.0444735
-0.0412428
-0.038023
-0.0348545
-0.0317757
-0.0288191
-0.0260091
-0.023363
-0.0208911
-0.0185981
-0.0164844
-0.0145478
-0.0127835
-0.0111843
-0.00974183
-0.00844701
-0.0072902
-0.0062614
-0.00535044
-0.0045474
-0.0038428
-0.00322758
-0.00269316
-0.0022314
-0.00183474
-0.00149611
-0.00120903
-0.000967359
-0.000765584
-0.000598323
-0.000460968
-0.000348605
-0.00025757
-0.000182974
-0.000122395
-7.01298e-05
-2.56325e-05
-0.0495697
-0.0523195
-0.0534604
-0.0536086
-0.0532798
-0.052668
-0.0518976
-0.0508929
-0.0495801
-0.0479504
-0.0460454
-0.043924
-0.0416425
-0.039252
-0.0367992
-0.0343246
-0.0318624
-0.0294419
-0.0270872
-0.024818
-0.0226497
-0.0205934
-0.0186564
-0.0168426
-0.0151535
-0.0135886
-0.0121456
-0.0108208
-0.00960976
-0.00850705
-0.00750688
-0.00660295
-0.0057888
-0.00505798
-0.00440408
-0.00382082
-0.00330199
-0.00284177
-0.00243434
-0.00207449
-0.00175681
-0.0014768
-0.00122927
-0.00101062
-0.000815556
-0.00064167
-0.000482878
-0.000338684
-0.000200834
-7.22064e-05
-0.0407642
-0.0430183
-0.0440373
-0.044298
-0.0441947
-0.043911
-0.0434703
-0.0428496
-0.0419909
-0.0408757
-0.0395303
-0.0379993
-0.0363266
-0.0345507
-0.0327059
-0.0308216
-0.0289221
-0.0270282
-0.0251585
-0.0233296
-0.0215562
-0.0198499
-0.0182197
-0.0166713
-0.0152088
-0.0138346
-0.0125495
-0.011353
-0.0102433
-0.00921795
-0.00827379
-0.00740706
-0.00661358
-0.005889
-0.00522877
-0.00462838
-0.00408312
-0.00358861
-0.00314016
-0.00273377
-0.00236477
-0.00202972
-0.00172382
-0.00144449
-0.00118639
-0.000948326
-0.000723501
-0.000513188
-0.000307227
-0.000110971
-0.033783
-0.0356511
-0.0365613
-0.036885
-0.0369322
-0.0368389
-0.0366273
-0.0362641
-0.035719
-0.0349683
-0.0340265
-0.0329282
-0.0317083
-0.0303942
-0.0290082
-0.0275704
-0.0260993
-0.0246121
-0.0231245
-0.021651
-0.0202044
-0.0187958
-0.0174334
-0.0161239
-0.0148718
-0.0136808
-0.0125532
-0.0114899
-0.0104911
-0.00955604
-0.00868329
-0.00787096
-0.00711662
-0.00641761
-0.00577092
-0.00517351
-0.00462198
-0.00411321
-0.00364356
-0.00321006
-0.00280883
-0.00243736
-0.00209132
-0.00176905
-0.00146529
-0.00117996
-0.000905817
-0.000645594
-0.000387855
-0.000140021
-0.0281799
-0.0297448
-0.0305586
-0.0309145
-0.0310569
-0.031094
-0.0310284
-0.0308375
-0.0305079
-0.0300189
-0.0293715
-0.0285895
-0.0277008
-0.0267268
-0.0256829
-0.0245832
-0.0234426
-0.0222753
-0.0210942
-0.0199109
-0.0187357
-0.0175782
-0.016446
-0.0153451
-0.0142806
-0.0132563
-0.0122753
-0.0113395
-0.0104503
-0.0096079
-0.00881227
-0.00806274
-0.00735812
-0.00669698
-0.00607744
-0.00549758
-0.00495502
-0.00444765
-0.00397265
-0.00352798
-0.0031104
-0.00271824
-0.00234761
-0.00199769
-0.00166343
-0.00134563
-0.00103694
-0.000741249
-0.000446353
-0.000161211
-0.0236356
-0.0249592
-0.0256875
-0.0260555
-0.0262557
-0.026375
-0.0264168
-0.0263546
-0.0261632
-0.025851
-0.0254143
-0.0248633
-0.0242179
-0.0234962
-0.0227106
-0.0218711
-0.0209883
-0.0200735
-0.019137
-0.0181879
-0.0172347
-0.0162855
-0.015347
-0.0144249
-0.0135236
-0.0126473
-0.0117993
-0.0109819
-0.0101969
-0.00944539
-0.00872796
-0.00804478
-0.0073955
-0.00677953
-0.00619581
-0.00564329
-0.00512034
-0.00462564
-0.00415708
-0.00371336
-0.00329181
-0.00289145
-0.00250886
-0.0021439
-0.00179177
-0.00145407
-0.00112346
-0.00080473
-0.000485329
-0.000175305
-0.0199141
-0.0210433
-0.0216961
-0.0220621
-0.0222958
-0.0224648
-0.0225728
-0.0225949
-0.0225123
-0.0223214
-0.0220343
-0.0216538
-0.0211903
-0.0206582
-0.0200686
-0.019429
-0.0187468
-0.0180303
-0.0172878
-0.0165268
-0.0157544
-0.0149771
-0.0142008
-0.0134303
-0.0126699
-0.0119233
-0.0111936
-0.0104835
-0.0097949
-0.00912922
-0.0084875
-0.00787041
-0.00727814
-0.00671069
-0.00616758
-0.00564836
-0.00515201
-0.0046778
-0.00422418
-0.00379041
-0.00337435
-0.00297556
-0.00259103
-0.00222119
-0.00186158
-0.00151435
-0.00117235
-0.000841039
-0.00050782
-0.000183452
-0.0168406
-0.0178109
-0.0183973
-0.018753
-0.0190031
-0.0192016
-0.0193495
-0.0194281
-0.0194195
-0.0193203
-0.0191372
-0.0188812
-0.0185551
-0.0181668
-0.017726
-0.0172397
-0.0167134
-0.0161529
-0.0155647
-0.0149549
-0.0143294
-0.0136936
-0.0130523
-0.0124098
-0.0117696
-0.0111351
-0.0105094
-0.00989485
-0.00929353
-0.00870698
-0.00813645
-0.00758288
-0.0070468
-0.00652859
-0.00602816
-0.0055455
-0.00508
-0.0046314
-0.00419857
-0.00378122
-0.00337762
-0.00298778
-0.00260908
-0.00224236
-0.0018835
-0.00153509
-0.00119028
-0.000854935
-0.000516689
-0.000186671
-0.0142832
-0.0151223
-0.0156498
-0.0159904
-0.0162457
-0.0164593
-0.0166311
-0.0167452
-0.0167881
-0.0167542
-0.0166489
-0.0164806
-0.0162566
-0.0159784
-0.0156517
-0.0152832
-0.014878
-0.0144405
-0.0139752
-0.013487
-0.0129808
-0.012461
-0.0119317
-0.0113964
-0.0108581
-0.0103199
-0.00978454
-0.00925424
-0.0087309
-0.00821611
-0.00771119
-0.00721722
-0.00673492
-0.00626489
-0.00580731
-0.00536244
-0.00493001
-0.00451005
-0.00410179
-0.00370526
-0.00331908
-0.00294358
-0.00257649
-0.00221898
-0.00186726
-0.00152423
-0.00118338
-0.000850823
-0.000514596
-0.000185925
-0.0121409
-0.0128707
-0.0133459
-0.0136688
-0.013922
-0.014141
-0.0143254
-0.0144614
-0.0145379
-0.0145511
-0.0145027
-0.0143996
-0.0142487
-0.0140538
-0.0138157
-0.0135386
-0.0132277
-0.0128869
-0.0125196
-0.0121292
-0.0117197
-0.011295
-0.0108583
-0.0104126
-0.00996043
-0.00950445
-0.00904705
-0.00859031
-0.00813594
-0.00768546
-0.00724016
-0.00680117
-0.0063693
-0.00594525
-0.0055294
-0.00512218
-0.00472352
-0.0043337
-0.00395218
-0.00357925
-0.00321379
-0.00285641
-0.0025051
-0.00216128
-0.0018215
-0.00148882
-0.00115714
-0.000832643
-0.000503921
-0.000182073
-0.0103358
-0.0109737
-0.0114025
-0.0117061
-0.0119527
-0.0121707
-0.0123597
-0.0125081
-0.0126064
-0.0126514
-0.012645
-0.0125907
-0.0124942
-0.0123598
-0.0121899
-0.0119847
-0.0117476
-0.0114828
-0.0111933
-0.0108817
-0.0105508
-0.0102039
-0.00984381
-0.00947286
-0.00909327
-0.00870723
-0.00831687
-0.00792402
-0.00753022
-0.00713688
-0.00674521
-0.00635633
-0.00597105
-0.00559015
-0.00521408
-0.0048434
-0.00447817
-0.00411884
-0.00376504
-0.00341724
-0.00307454
-0.00273772
-0.00240504
-0.00207806
-0.00175364
-0.00143495
-0.0011163
-0.000803824
-0.000486744
-0.000175865
-0.00880704
-0.00936697
-0.00975432
-0.0100385
-0.0102753
-0.0104882
-0.0106764
-0.0108303
-0.0109419
-0.0110084
-0.0110313
-0.0110137
-0.0109586
-0.0108696
-0.0107498
-0.0106006
-0.0104222
-0.0102176
-0.00998999
-0.00974166
-0.00947474
-0.00919163
-0.00889473
-0.00858609
-0.00826752
-0.00794086
-0.00760793
-0.00727036
-0.0069295
-0.00658662
-0.00624284
-0.00589921
-0.00555654
-0.0052156
-0.0048769
-0.00454104
-0.00420819
-0.00387888
-0.00355289
-0.0032308
-0.00291189
-0.00259705
-0.00228476
-0.00197669
-0.00166997
-0.0013678
-0.0010649
-0.000767283
-0.000464834
-0.000167941
-0.00750635
-0.0079997
-0.00835007
-0.00861485
-0.00884018
-0.00904519
-0.0092291
-0.00938381
-0.00950262
-0.00958318
-0.00962644
-0.00963501
-0.00961145
-0.00955761
-0.00947589
-0.00936833
-0.00923622
-0.00907996
-0.00890175
-0.00870412
-0.00848905
-0.00825833
-0.00801376
-0.00775703
-0.00748972
-0.0072134
-0.00692961
-0.00663975
-0.006345
-0.0060465
-0.00574525
-0.00544224
-0.00513822
-0.00483395
-0.00452994
-0.00422683
-0.00392483
-0.00362453
-0.0033258
-0.0030293
-0.00273445
-0.00244221
-0.00215125
-0.00186327
-0.0015757
-0.00129166
-0.00100632
-0.000725456
-0.000439672
-0.000158836
-0.00639528
-0.00683141
-0.00714868
-0.00739465
-0.00760753
-0.00780303
-0.00798033
-0.00813264
-0.00825432
-0.00834334
-0.00840052
-0.00842778
-0.00842718
-0.00840039
-0.00834841
-0.00827286
-0.00817547
-0.00805769
-0.00791973
-0.00776312
-0.00759001
-0.00740216
-0.00720093
-0.00698756
-0.00676333
-0.00652965
-0.00628785
-0.0060391
-0.00578443
-0.00552484
-0.00526123
-0.0049945
-0.00472535
-0.0044545
-0.00418243
-0.00390979
-0.00363683
-0.00336415
-0.0030917
-0.00282017
-0.00254909
-0.00227946
-0.00201012
-0.00174275
-0.00147505
-0.00121004
-0.000943305
-0.000680335
-0.000412469
-0.000148988
-0.00544284
-0.00582953
-0.0061171
-0.00634507
-0.00654512
-0.00673018
-0.00689946
-0.00704721
-0.00716873
-0.00726227
-0.00732844
-0.00736881
-0.00738492
-0.00737803
-0.00734916
-0.00729905
-0.00722899
-0.0071404
-0.00703462
-0.00691171
-0.00677292
-0.0066201
-0.00645464
-0.00627748
-0.00608955
-0.00589201
-0.00568604
-0.00547269
-0.00525282
-0.00502729
-0.00479691
-0.00456248
-0.00432464
-0.00408407
-0.00384122
-0.00359673
-0.00335084
-0.00310417
-0.00285672
-0.00260919
-0.00236119
-0.00211372
-0.0018658
-0.00161903
-0.00137138
-0.00112572
-0.000878046
-0.000633518
-0.0003842
-0.00013875
-0.00462386
-0.00496761
-0.00522851
-0.00543942
-0.00562664
-0.00580086
-0.00596131
-0.00610313
-0.00622238
-0.00631757
-0.00638916
-0.00643839
-0.0064665
-0.00647444
-0.00646294
-0.00643275
-0.00638453
-0.00631927
-0.00623801
-0.00614241
-0.00603215
-0.00590829
-0.00577232
-0.00562528
-0.00546791
-0.00530108
-0.00512576
-0.00494287
-0.00475318
-0.00455743
-0.00435633
-0.00415058
-0.00394078
-0.00372754
-0.00351129
-0.00329262
-0.0030718
-0.00284941
-0.0026255
-0.00240075
-0.00217487
-0.00194881
-0.00172173
-0.00149518
-0.00126733
-0.0010409
-0.000812273
-0.000586261
-0.000355633
-0.0001284
-0.00391774
-0.00422405
-0.00446096
-0.00465581
-0.0048305
-0.00499382
-0.00514506
-0.00528012
-0.00539567
-0.00549047
-0.00556486
-0.00561983
-0.00565635
-0.00567515
-0.00567681
-0.00566182
-0.00563088
-0.00558462
-0.00552384
-0.00544906
-0.0053617
-0.005262
-0.00515065
-0.0050287
-0.00489697
-0.00475621
-0.00460714
-0.00445052
-0.00428701
-0.00411728
-0.00394194
-0.00376164
-0.00357687
-0.00338822
-0.00319608
-0.003001
-0.00280324
-0.00260337
-0.00240145
-0.00219814
-0.0019932
-0.00178758
-0.00158051
-0.0013735
-0.00116489
-0.000957257
-0.000747313
-0.000539534
-0.000327358
-0.000118152
-0.0033075
-0.00358105
-0.00379636
-0.0039762
-0.0041388
-0.00429141
-0.00443337
-0.00456123
-0.00467218
-0.00476516
-0.00484044
-0.0048988
-0.00494099
-0.00496759
-0.00497903
-0.0049757
-0.00495806
-0.00492674
-0.00488219
-0.00482482
-0.0047557
-0.00467581
-0.00458542
-0.0044848
-0.0043747
-0.004256
-0.0041294
-0.00399545
-0.00385469
-0.00370769
-0.00355502
-0.00339723
-0.0032348
-0.00306822
-0.00289787
-0.00272425
-0.00254761
-0.00236849
-0.00218697
-0.00200368
-0.00181843
-0.00163211
-0.00144407
-0.0012557
-0.00106557
-0.000876031
-0.000684157
-0.00049406
-0.000299821
-0.000108169
-0.00277908
-0.00302386
-0.0032197
-0.00338557
-0.00353664
-0.0036789
-0.00381174
-0.00393223
-0.00403802
-0.00412821
-0.004203
-0.00426302
-0.00430885
-0.00434093
-0.00435958
-0.00436509
-0.00435786
-0.00433829
-0.00430685
-0.00426393
-0.00421003
-0.00414598
-0.00407256
-0.00399003
-0.00389849
-0.00379861
-0.00369117
-0.00357675
-0.00345576
-0.00332866
-0.00319592
-0.00305806
-0.00291551
-0.00276871
-0.002618
-0.00246384
-0.00230647
-0.00214639
-0.0019837
-0.00181898
-0.00165209
-0.00148386
-0.00131373
-0.00114301
-0.000970416
-0.000798125
-0.000623523
-0.000450367
-0.000273345
-9.8568e-05
-0.0023207
-0.00254017
-0.00271845
-0.00287138
-0.00301156
-0.00314393
-0.00326793
-0.0033811
-0.00348144
-0.00356821
-0.00364155
-0.00370195
-0.00374988
-0.00378566
-0.00380955
-0.00382175
-0.00382255
-0.00381233
-0.00379141
-0.00376013
-0.00371894
-0.00366831
-0.00360882
-0.003541
-0.00346526
-0.00338168
-0.00329076
-0.00319312
-0.00308925
-0.00297954
-0.00286435
-0.00274413
-0.00261926
-0.00249015
-0.0023571
-0.00222054
-0.0020807
-0.00193802
-0.00179262
-0.00164504
-0.00149517
-0.00134379
-0.00119041
-0.00103625
-0.000880164
-0.000724158
-0.000565907
-0.000408821
-0.000248158
-8.94317e-05
-0.00192252
-0.00211965
-0.00228211
-0.00242308
-0.00255302
-0.00267604
-0.00279159
-0.00289761
-0.00299242
-0.00307538
-0.00314661
-0.00320649
-0.00325538
-0.00329353
-0.00332112
-0.00333831
-0.00334533
-0.00334247
-0.00333
-0.00330817
-0.00327733
-0.00323794
-0.00319039
-0.00313502
-0.00307222
-0.00300246
-0.0029259
-0.00284287
-0.00275386
-0.00265929
-0.00255953
-0.00245493
-0.00234578
-0.00223248
-0.00211529
-0.00199462
-0.00187066
-0.00174383
-0.00161425
-0.00148241
-0.00134825
-0.00121246
-0.00107465
-0.000935913
-0.000795268
-0.000654523
-0.000511628
-0.000369659
-0.000224404
-8.08135e-05
-0.00157622
-0.0017536
-0.00190179
-0.00203174
-0.00215214
-0.00226636
-0.00237392
-0.00247307
-0.00256239
-0.00264135
-0.00271004
-0.00276875
-0.00281776
-0.00285727
-0.00288739
-0.00290825
-0.00292003
-0.00292296
-0.00291725
-0.00290309
-0.00288078
-0.00285068
-0.00281315
-0.00276843
-0.00271668
-0.00265839
-0.00259405
-0.00252387
-0.00244796
-0.00236668
-0.00228044
-0.00218961
-0.00209444
-0.00199526
-0.0018923
-0.00178592
-0.00167632
-0.00156389
-0.00144873
-0.0013313
-0.00121156
-0.00109014
-0.000966719
-0.000842278
-0.000715974
-0.000589436
-0.000460863
-0.000333014
-0.000202168
-7.27444e-05
-0.00127475
-0.00143466
-0.00156999
-0.00168981
-0.00180135
-0.00190736
-0.00200741
-0.00210001
-0.00218399
-0.0022589
-0.00232478
-0.00238189
-0.00243042
-0.00247052
-0.00250229
-0.00252579
-0.00254118
-0.00254864
-0.00254833
-0.00254041
-0.00252511
-0.00250274
-0.00247358
-0.00243783
-0.0023957
-0.00234745
-0.00229346
-0.00223409
-0.00216963
-0.00210012
-0.00202583
-0.00194715
-0.00186436
-0.00177775
-0.00168754
-0.00159403
-0.00149739
-0.00139799
-0.00129594
-0.00119165
-0.0010851
-0.000976865
-0.000866672
-0.000755415
-0.000642362
-0.000528975
-0.000413681
-0.000298942
-0.000181486
-6.52377e-05
-0.00101212
-0.00115656
-0.00128028
-0.00139083
-0.00149417
-0.00159255
-0.00168559
-0.00177203
-0.00185089
-0.00192178
-0.00198473
-0.00203995
-0.00208757
-0.00212772
-0.00216043
-0.00218579
-0.00220389
-0.00221488
-0.00221889
-0.00221603
-0.0022065
-0.00219056
-0.00216845
-0.00214033
-0.00210636
-0.0020668
-0.00202191
-0.00197196
-0.00191719
-0.00185791
-0.00179423
-0.00172634
-0.00165453
-0.0015791
-0.00150026
-0.00141829
-0.00133334
-0.00124572
-0.00115555
-0.0010632
-0.000968671
-0.000872487
-0.000774413
-0.000675257
-0.000574389
-0.000473117
-0.000370071
-0.000267436
-0.000162357
-5.82932e-05
-0.000783226
-0.000913941
-0.00102722
-0.00112929
-0.00122507
-0.0013164
-0.00140293
-0.0014836
-0.0015576
-0.00162458
-0.00168457
-0.00173773
-0.00178416
-0.00182394
-0.0018571
-0.00188369
-0.00190379
-0.00191751
-0.00192496
-0.00192623
-0.00192146
-0.00191088
-0.00189469
-0.00187304
-0.00184604
-0.00181391
-0.00177689
-0.00173519
-0.00168897
-0.00163848
-0.001584
-0.00152575
-0.00146377
-0.00139832
-0.00132962
-0.00125797
-0.00118351
-0.00110652
-0.00102709
-0.000945569
-0.00086196
-0.000776744
-0.000689729
-0.000601634
-0.000511924
-0.000421759
-0.000329959
-0.000238449
-0.000144751
-5.19011e-05
-0.000583679
-0.000702228
-0.000806109
-0.000900449
-0.000989289
-0.00107412
-0.00115464
-0.00122995
-0.00129936
-0.0013626
-0.00141967
-0.00147069
-0.00151574
-0.00155487
-0.0015881
-0.00161546
-0.001637
-0.00165283
-0.00166301
-0.00166763
-0.00166679
-0.00166069
-0.0016495
-0.00163332
-0.00161228
-0.00158655
-0.00155632
-0.00152178
-0.0014831
-0.00144045
-0.001394
-0.00134404
-0.00129076
-0.00123426
-0.00117466
-0.00111225
-0.00104718
-0.000979734
-0.000909991
-0.000838261
-0.000764549
-0.000689289
-0.000612328
-0.000534305
-0.000454773
-0.00037475
-0.000293231
-0.000211898
-0.000128622
-4.60444e-05
-0.000409731
-0.00051749
-0.000612921
-0.000700228
-0.000782718
-0.000861596
-0.000936584
-0.00100693
-0.00107207
-0.00113176
-0.001186
-0.00123487
-0.00127844
-0.00131672
-0.00134974
-0.00137751
-0.00140007
-0.0014175
-0.00142985
-0.00143718
-0.00143959
-0.00143723
-0.00143025
-0.00141874
-0.00140279
-0.00138256
-0.0013582
-0.00132991
-0.00129779
-0.00126202
-0.00122275
-0.00118014
-0.00113438
-0.00108573
-0.0010343
-0.000980214
-0.00092359
-0.000864698
-0.000803652
-0.000740739
-0.000675967
-0.000609716
-0.000541867
-0.000472985
-0.000402699
-0.000331903
-0.000259744
-0.000187685
-0.00011391
-4.07016e-05
-0.000258148
-0.000356344
-0.00044419
-0.000525115
-0.000601813
-0.000675248
-0.000745173
-0.00081096
-0.000872129
-0.00092848
-0.00098001
-0.00102677
-0.00106881
-0.00110614
-0.00113876
-0.00116667
-0.00118991
-0.00120855
-0.00122261
-0.00123214
-0.00123723
-0.001238
-0.00123458
-0.00122703
-0.00121545
-0.00119995
-0.00118069
-0.00115781
-0.00113142
-0.00110167
-0.00106869
-0.00103264
-0.000993673
-0.000951945
-0.000907617
-0.000860901
-0.000811863
-0.000760679
-0.000707448
-0.000652447
-0.000595714
-0.000537587
-0.00047797
-0.000417357
-0.000355443
-0.000293007
-0.000229337
-0.000165695
-0.000100546
-3.58481e-05
-0.000126144
-0.00021587
-0.000296919
-0.000372072
-0.000443506
-0.000511986
-0.000577294
-0.000638904
-0.000696416
-0.000749662
-0.000798631
-0.00084336
-0.000883873
-0.000920174
-0.000952258
-0.000980124
-0.0010038
-0.00102332
-0.00103873
-0.00105004
-0.00105734
-0.00106073
-0.00106031
-0.00105615
-0.0010483
-0.00103689
-0.00102203
-0.00100386
-0.000982477
-0.000957997
-0.000930548
-0.000900272
-0.000867293
-0.000831762
-0.000793782
-0.000753524
-0.000711134
-0.000666874
-0.000620695
-0.00057282
-0.000523305
-0.000472469
-0.000420253
-0.000367089
-0.000312728
-0.00025784
-0.000201839
-0.000145804
-8.84567e-05
-3.14568e-05
-1.1314e-05
-9.3549e-05
-0.000168523
-0.00023847
-0.000305138
-0.000369126
-0.000430242
-0.000488047
-0.000542208
-0.000592583
-0.000639157
-0.000681951
-0.000720975
-0.000756227