/*--------------------------------*- C++ -*----------------------------------*\
  =========                 |
  \\      /  F ield         | OpenFOAM: The Open Source CFD Toolbox
   \\    /   O peration     | Website:  https://openfoam.org
    \\  /    A nd           | Version:  7
     \\/     M anipulation  |
\*---------------------------------------------------------------------------*/
FoamFile
{
    version     2.0;
    format      ascii;
    class       volScalarField;
    location    "24.999";
    object      p;
}
// * * * * * * * * * * * * * * * * * * * * * * * * * * * * * * * * * * * * * //

dimensions      [0 2 -2 0 0 0 0];

internalField   nonuniform List<scalar> 
45600
(
-0.264768
-0.267032
-0.268034
-0.268856
-0.269591
-0.270274
-0.270937
-0.271583
-0.272201
-0.272775
-0.273286
-0.273714
-0.27404
-0.274246
-0.274319
-0.27425
-0.274042
-0.273705
-0.273261
-0.272811
-0.265019
-0.267246
-0.268232
-0.269042
-0.269767
-0.270442
-0.271098
-0.271739
-0.272353
-0.272924
-0.273433
-0.273859
-0.274183
-0.274387
-0.274455
-0.274377
-0.274156
-0.273795
-0.273309
-0.272823
-0.265515
-0.267669
-0.268624
-0.269409
-0.270113
-0.270771
-0.271414
-0.272044
-0.272649
-0.273214
-0.273718
-0.274141
-0.274462
-0.274661
-0.27472
-0.274625
-0.274375
-0.273971
-0.273402
-0.272832
-0.266243
-0.26829
-0.269198
-0.269946
-0.270618
-0.27125
-0.271871
-0.272483
-0.273075
-0.273629
-0.274125
-0.274541
-0.274857
-0.27505
-0.275096
-0.274976
-0.274685
-0.27422
-0.273535
-0.2728
-0.267183
-0.269094
-0.269941
-0.270638
-0.271267
-0.271862
-0.272452
-0.273039
-0.273609
-0.274146
-0.27463
-0.275037
-0.275345
-0.275528
-0.275559
-0.27541
-0.275064
-0.274526
-0.273711
-0.272667
-0.268312
-0.270063
-0.270835
-0.271468
-0.27204
-0.272586
-0.273134
-0.273685
-0.274225
-0.274738
-0.275202
-0.275595
-0.275891
-0.276061
-0.276075
-0.275894
-0.275487
-0.274863
-0.27395
-0.272319
-0.269606
-0.271176
-0.271859
-0.272414
-0.272915
-0.273398
-0.273891
-0.274393
-0.274893
-0.275372
-0.275808
-0.276179
-0.276456
-0.27661
-0.276603
-0.276392
-0.275918
-0.275175
-0.2743
-0.271628
-0.271036
-0.272413
-0.272995
-0.273456
-0.27387
-0.274274
-0.274695
-0.275134
-0.275579
-0.276011
-0.276409
-0.276747
-0.276998
-0.277128
-0.277097
-0.276855
-0.276318
-0.275373
-0.274722
-0.270921
-0.272577
-0.273754
-0.274222
-0.274574
-0.274882
-0.275187
-0.275518
-0.275876
-0.27625
-0.276621
-0.276966
-0.27726
-0.277473
-0.277569
-0.277504
-0.277224
-0.276647
-0.275594
-0.274794
-0.270267
-0.274207
-0.275181
-0.275523
-0.275748
-0.27593
-0.276116
-0.276336
-0.276593
-0.276877
-0.277169
-0.277445
-0.277678
-0.277838
-0.277887
-0.277777
-0.277442
-0.276838
-0.275578
-0.274938
-0.269273
-0.275906
-0.276681
-0.276884
-0.276963
-0.276998
-0.277041
-0.277126
-0.277261
-0.277434
-0.277626
-0.277815
-0.27797
-0.27806
-0.278045
-0.277872
-0.277456
-0.276852
-0.275237
-0.275055
-0.267965
-0.277663
-0.278244
-0.278296
-0.27821
-0.278073
-0.277948
-0.277874
-0.277861
-0.277901
-0.277974
-0.278056
-0.278115
-0.278116
-0.278015
-0.277764
-0.277223
-0.276656
-0.274527
-0.275006
-0.266449
-0.279475
-0.279868
-0.279755
-0.279482
-0.279148
-0.278829
-0.27857
-0.278386
-0.27827
-0.278203
-0.278158
-0.278103
-0.277996
-0.277788
-0.27744
-0.276722
-0.276215
-0.273464
-0.274607
-0.264907
-0.281346
-0.281558
-0.281265
-0.280782
-0.280226
-0.279685
-0.279215
-0.278836
-0.278542
-0.278316
-0.278127
-0.277938
-0.277703
-0.277364
-0.276897
-0.275954
-0.275469
-0.272126
-0.273633
-0.263491
-0.283292
-0.283324
-0.282834
-0.282116
-0.281313
-0.280525
-0.279819
-0.279222
-0.278732
-0.278327
-0.277975
-0.277635
-0.277252
-0.276751
-0.276127
-0.274934
-0.274326
-0.270596
-0.271901
-0.262156
-0.285336
-0.285188
-0.284477
-0.283504
-0.282426
-0.281366
-0.280402
-0.279568
-0.278861
-0.278262
-0.277731
-0.277217
-0.276655
-0.275956
-0.27511
-0.273658
-0.2727
-0.268862
-0.269377
-0.260639
-0.287513
-0.28717
-0.286221
-0.284966
-0.283588
-0.282233
-0.280992
-0.279904
-0.278965
-0.278155
-0.277423
-0.276706
-0.275925
-0.274974
-0.273812
-0.272072
-0.270539
-0.266775
-0.266158
-0.258608
-0.289867
-0.289306
-0.288098
-0.286531
-0.28483
-0.283161
-0.281625
-0.280264
-0.279083
-0.278041
-0.277081
-0.276119
-0.275055
-0.273775
-0.272188
-0.270077
-0.267815
-0.264118
-0.262298
-0.255806
-0.292448
-0.291635
-0.290138
-0.288235
-0.286189
-0.284189
-0.282344
-0.280701
-0.279254
-0.277955
-0.276724
-0.275456
-0.274025
-0.27231
-0.270187
-0.267574
-0.264509
-0.26071
-0.257665
-0.252098
-0.295317
-0.294196
-0.292383
-0.290117
-0.287707
-0.28536
-0.283194
-0.281252
-0.279517
-0.277921
-0.276359
-0.274698
-0.272795
-0.270524
-0.267762
-0.264513
-0.26066
-0.256515
-0.252116
-0.247408
-0.298521
-0.297043
-0.294874
-0.292219
-0.289426
-0.286719
-0.284217
-0.281956
-0.279898
-0.277948
-0.27597
-0.27381
-0.271314
-0.268369
-0.264883
-0.26091
-0.256352
-0.25167
-0.246176
-0.241614
-0.302122
-0.30022
-0.297658
-0.294587
-0.291391
-0.28831
-0.285456
-0.282844
-0.28041
-0.278026
-0.275526
-0.272743
-0.269533
-0.265818
-0.261554
-0.256839
-0.25165
-0.246315
-0.240485
-0.235281
-0.306179
-0.303773
-0.300777
-0.297264
-0.293648
-0.290175
-0.286941
-0.283934
-0.28105
-0.278127
-0.27498
-0.271446
-0.267418
-0.262868
-0.257815
-0.252397
-0.246619
-0.240807
-0.23465
-0.229036
-0.310745
-0.307747
-0.304277
-0.300295
-0.296238
-0.292351
-0.288699
-0.285228
-0.281795
-0.278206
-0.274276
-0.269876
-0.264952
-0.259544
-0.253728
-0.247664
-0.241389
-0.235181
-0.228777
-0.223033
-0.315869
-0.312185
-0.308201
-0.303724
-0.299202
-0.294866
-0.290737
-0.286712
-0.282603
-0.278206
-0.273362
-0.267999
-0.26214
-0.255884
-0.249355
-0.242717
-0.236014
-0.229488
-0.222902
-0.217026
-0.321593
-0.317126
-0.31259
-0.30759
-0.302573
-0.29774
-0.293053
-0.288351
-0.283418
-0.278064
-0.272187
-0.265798
-0.258996
-0.251931
-0.244749
-0.237602
-0.230533
-0.223737
-0.216985
-0.211006
-0.32795
-0.322606
-0.317484
-0.311931
-0.306379
-0.300979
-0.295621
-0.290091
-0.284168
-0.277713
-0.270712
-0.263267
-0.255543
-0.24772
-0.239945
-0.232346
-0.224954
-0.217915
-0.211016
-0.204919
-0.334965
-0.328654
-0.322914
-0.316778
-0.310635
-0.30457
-0.298394
-0.291858
-0.284773
-0.277091
-0.268907
-0.260407
-0.251801
-0.243275
-0.234963
-0.226956
-0.21927
-0.212007
-0.204967
-0.198745
-0.342651
-0.335291
-0.328907
-0.322149
-0.315336
-0.308474
-0.3013
-0.293561
-0.28515
-0.276144
-0.266749
-0.257218
-0.247781
-0.238608
-0.229803
-0.221422
-0.213465
-0.205989
-0.198814
-0.192463
-0.351004
-0.342527
-0.335475
-0.328044
-0.320456
-0.312628
-0.304242
-0.295095
-0.285216
-0.274822
-0.26422
-0.253701
-0.243486
-0.233714
-0.224454
-0.215726
-0.207514
-0.199835
-0.192534
-0.186053
-0.360005
-0.350356
-0.342615
-0.334442
-0.325937
-0.316932
-0.307098
-0.296351
-0.284893
-0.273086
-0.261304
-0.249847
-0.238906
-0.228579
-0.218895
-0.209844
-0.201392
-0.193522
-0.186105
-0.179497
-0.369607
-0.358753
-0.350295
-0.341289
-0.331686
-0.321258
-0.309734
-0.297219
-0.284112
-0.270895
-0.25798
-0.24564
-0.234023
-0.223179
-0.2131
-0.203747
-0.19507
-0.187023
-0.179503
-0.172776
-0.379741
-0.367665
-0.358457
-0.348495
-0.337573
-0.325448
-0.312004
-0.297593
-0.282807
-0.268214
-0.25422
-0.241055
-0.228809
-0.217485
-0.207039
-0.197407
-0.188522
-0.180316
-0.172707
-0.16587
-0.390305
-0.377012
-0.367006
-0.355932
-0.343428
-0.329325
-0.313764
-0.297374
-0.280918
-0.265002
-0.249994
-0.23606
-0.22323
-0.211462
-0.200678
-0.190792
-0.18172
-0.173377
-0.165697
-0.158764
-0.401164
-0.386676
-0.375809
-0.363428
-0.349051
-0.332703
-0.31487
-0.29647
-0.278386
-0.261215
-0.245261
-0.230616
-0.21725
-0.205076
-0.193985
-0.183873
-0.174638
-0.166184
-0.158453
-0.151441
-0.412145
-0.396506
-0.384689
-0.37077
-0.354217
-0.335389
-0.31519
-0.294794
-0.27515
-0.256806
-0.239979
-0.224683
-0.210829
-0.198289
-0.186928
-0.176621
-0.167252
-0.158716
-0.150956
-0.143887
-0.42304
-0.406308
-0.39343
-0.377711
-0.358688
-0.3372
-0.314597
-0.292263
-0.271151
-0.251724
-0.234102
-0.218218
-0.203927
-0.191066
-0.179475
-0.169009
-0.159539
-0.150953
-0.143186
-0.136086
-0.433607
-0.415854
-0.401778
-0.383979
-0.362223
-0.337959
-0.312976
-0.288796
-0.266326
-0.245915
-0.227579
-0.211175
-0.196505
-0.183373
-0.171597
-0.161014
-0.151479
-0.142878
-0.135129
-0.128028
-0.443572
-0.424882
-0.409446
-0.389283
-0.364586
-0.337502
-0.310217
-0.284318
-0.260614
-0.239327
-0.220364
-0.203512
-0.188526
-0.175179
-0.163267
-0.152611
-0.143055
-0.134476
-0.126772
-0.119705
-0.452636
-0.433099
-0.416122
-0.393334
-0.365557
-0.335682
-0.306221
-0.278755
-0.253956
-0.231905
-0.21241
-0.195189
-0.179956
-0.166454
-0.154461
-0.143783
-0.134251
-0.125737
-0.118111
-0.111126
-0.460479
-0.440191
-0.421481
-0.395848
-0.364931
-0.332365
-0.300899
-0.272038
-0.246292
-0.223601
-0.203674
-0.186169
-0.170763
-0.157174
-0.145159
-0.134512
-0.125053
-0.11665
-0.109149
-0.102308
-0.466773
-0.44583
-0.425198
-0.396558
-0.362528
-0.327434
-0.294168
-0.264104
-0.23757
-0.214368
-0.194116
-0.17642
-0.160922
-0.147315
-0.135342
-0.124781
-0.115445
-0.1072
-0.0998772
-0.0932523
-0.471187
-0.449685
-0.426959
-0.395226
-0.358191
-0.320787
-0.285958
-0.254897
-0.227743
-0.204166
-0.183705
-0.165916
-0.150412
-0.136864
-0.124998
-0.114581
-0.105417
-0.0973721
-0.090268
-0.0839082
-0.4734
-0.45143
-0.426472
-0.391641
-0.351788
-0.312343
-0.276209
-0.244368
-0.216771
-0.192963
-0.172414
-0.154637
-0.139217
-0.125808
-0.114119
-0.103905
-0.0949668
-0.0871653
-0.080289
-0.0741425
-0.473108
-0.450759
-0.42348
-0.38563
-0.343216
-0.302036
-0.264875
-0.232482
-0.204623
-0.180736
-0.160226
-0.14257
-0.127329
-0.114141
-0.102701
-0.0927524
-0.0840989
-0.0765997
-0.069953
-0.0638927
-0.470034
-0.447389
-0.417763
-0.377056
-0.332398
-0.28982
-0.251922
-0.219211
-0.191279
-0.167467
-0.147127
-0.129706
-0.114744
-0.101863
-0.0907504
-0.0811322
-0.0728196
-0.0656849
-0.0592881
-0.0534692
-0.463935
-0.441076
-0.409148
-0.365822
-0.319287
-0.275669
-0.237333
-0.204541
-0.176728
-0.15315
-0.133117
-0.116048
-0.10147
-0.0889826
-0.0782818
-0.0690643
-0.061164
-0.0543951
-0.0482928
-0.0429145
-0.454611
-0.431623
-0.397509
-0.35187
-0.30386
-0.259576
-0.221104
-0.18847
-0.160967
-0.137788
-0.118207
-0.10161
-0.08753
-0.0755282
-0.0652976
-0.056556
-0.0491242
-0.0427667
-0.037019
-0.0321595
-0.441907
-0.418886
-0.382761
-0.335182
-0.286124
-0.241552
-0.203243
-0.171003
-0.14402
-0.121404
-0.102431
-0.0864251
-0.0729242
-0.0615022
-0.0518255
-0.0436265
-0.0367185
-0.0308255
-0.0254847
-0.021185
-0.425721
-0.402775
-0.364869
-0.315769
-0.266113
-0.221627
-0.183773
-0.152174
-0.125937
-0.104049
-0.0857889
-0.0705018
-0.057689
-0.046933
-0.0378909
-0.0303013
-0.023973
-0.0185952
-0.0137062
-0.0100025
-0.406001
-0.383252
-0.343841
-0.293682
-0.243886
-0.199854
-0.162753
-0.132078
-0.10672
-0.0857304
-0.0683307
-0.0538775
-0.0418583
-0.0318554
-0.0235253
-0.0166112
-0.0109183
-0.00610171
-0.00170534
0.00136415
-0.382752
-0.360336
-0.319743
-0.269016
-0.219518
-0.17631
-0.140286
-0.110704
-0.086437
-0.0665024
-0.0501032
-0.0365985
-0.0254734
-0.0163095
-0.00876608
-0.00259243
0.00241107
0.0066223
0.0104854
0.0128836
-0.356029
-0.334102
-0.292711
-0.241917
-0.193079
-0.151084
-0.116402
-0.0881458
-0.0651556
-0.0464289
-0.0311627
-0.0187181
-0.00858272
-0.000340382
0.00634434
0.0117149
0.0159769
0.0195386
0.0228251
0.0245164
-0.325938
-0.304682
-0.262936
-0.212502
-0.164663
-0.124266
-0.0912072
-0.0644952
-0.0429565
-0.0255835
-0.0115748
-0.000296353
0.00875862
0.0160011
0.0217587
0.0262669
0.0297386
0.0326078
0.0352714
0.0362191
-0.292643
-0.272276
-0.230513
-0.180678
-0.134616
-0.0960256
-0.0648214
-0.0398547
-0.0199312
-0.00404866
0.00858644
0.0185995
0.0264893
0.0326585
0.0374241
0.0410146
0.0436538
0.0457942
0.0477899
0.047963
-0.256359
-0.237179
-0.195266
-0.147006
-0.102976
-0.066509
-0.0373784
-0.0143387
0.00381853
0.0180843
0.0292389
0.0378957
0.0445423
0.0495695
0.0532809
0.0559014
0.0576733
0.0590576
0.0603437
0.0597255
-0.217293
-0.19963
-0.157559
-0.111612
-0.0699513
-0.0358795
-0.00902312
0.0119263
0.028181
0.0407159
0.0502939
0.0575129
0.0628463
0.0666681
0.0692659
0.0708673
0.0717399
0.0723284
0.0728175
0.0713463
-0.175666
-0.159271
-0.118519
-0.0747445
-0.0357473
-0.00431322
0.0200894
0.0388039
0.0530356
0.063739
0.0716564
0.077367
0.0813263
0.0838876
0.0853215
0.0858657
0.0858059
0.0854949
0.0849211
0.0823322
-0.13187
-0.116934
-0.077997
-0.0366687
-0.000585312
0.0280036
0.0497947
0.0661488
0.0782539
0.0870399
0.0932253
0.0973685
0.0999037
0.101161
0.1014
0.100875
0.0998566
0.0984645
0.0963543
0.0922605
-0.0863405
-0.0728842
-0.0361781
0.00235581
0.0353012
0.060873
0.0799198
0.093808
0.103701
0.110499
0.114894
0.117423
0.118495
0.118419
0.117452
0.11587
0.113875
0.111245
0.107379
0.102167
-0.0393452
-0.0275529
0.0066375
0.042062
0.071672
0.0940875
0.110284
0.121622
0.129235
0.13399
0.136553
0.137431
0.137011
0.135584
0.13341
0.130768
0.127756
0.123848
0.118614
0.115258
0.00872632
0.0186687
0.05011
0.0821681
0.108281
0.127433
0.140699
0.149426
0.154711
0.157386
0.158086
0.157292
0.155364
0.15258
0.149194
0.14546
0.141357
0.136308
0.130455
0.127877
0.0574599
0.0653987
0.0938885
0.122382
0.144877
0.160691
0.170975
0.177053
0.17998
0.180555
0.179377
0.1769
0.173461
0.169321
0.164727
0.159888
0.154712
0.14871
0.142392
0.139595
0.106437
0.11225
0.13762
0.162406
0.181204
0.19364
0.200917
0.20433
0.204893
0.203362
0.200307
0.19615
0.191206
0.18572
0.179919
0.173974
0.167768
0.160924
0.154103
0.150725
0.155237
0.158833
0.180955
0.201943
0.217008
0.226058
0.230332
0.231088
0.229297
0.225675
0.220757
0.214937
0.208506
0.201691
0.194696
0.187661
0.180467
0.172816
0.165409
0.161299
0.203437
0.204756
0.223546
0.240696
0.252033
0.257723
0.259024
0.257156
0.253042
0.24736
0.240609
0.233155
0.225265
0.217145
0.208979
0.200882
0.192737
0.1843
0.176264
0.17136
0.250623
0.249635
0.265054
0.278374
0.28603
0.288418
0.286805
0.282367
0.275981
0.268287
0.259747
0.2507
0.241389
0.232
0.222695
0.213569
0.204506
0.195301
0.186621
0.180899
0.296387
0.293093
0.305149
0.314696
0.318755
0.31793
0.313486
0.306556
0.297969
0.288326
0.278057
0.267471
0.256789
0.246175
0.235772
0.225654
0.215711
0.205764
0.196444
0.189896
0.340332
0.334766
0.343514
0.349387
0.349972
0.346053
0.338889
0.329565
0.318866
0.307355
0.295429
0.283371
0.271376
0.259592
0.248139
0.237075
0.226292
0.215638
0.205693
0.198324
0.382081
0.374304
0.379843
0.382186
0.379455
0.372591
0.36284
0.351241
0.338538
0.325255
0.311759
0.298305
0.285068
0.272176
0.25973
0.247771
0.236196
0.224874
0.214329
0.206156
0.421273
0.411377
0.413851
0.412848
0.40699
0.397357
0.385176
0.371442
0.356858
0.341913
0.326945
0.312185
0.297786
0.283857
0.270481
0.257686
0.245372
0.23343
0.222315
0.213365
0.45757
0.445678
0.445268
0.441141
0.432377
0.420177
0.405744
0.390033
0.373708
0.357225
0.340896
0.324928
0.309455
0.294569
0.280334
0.266766
0.253773
0.241261
0.229614
0.219925
0.490663
0.47692
0.473847
0.466853
0.455433
0.440889
0.424401
0.406888
0.388976
0.371094
0.353525
0.336458
0.320008
0.304251
0.289235
0.274965
0.261356
0.248329
0.236193
0.225813
0.520265
0.504845
0.499365
0.489791
0.475989
0.459346
0.44102
0.421894
0.402564
0.38343
0.364754
0.346705
0.329383
0.312848
0.297135
0.282238
0.268082
0.254597
0.24202
0.231008
0.546125
0.529222
0.52162
0.509781
0.493895
0.475417
0.455485
0.434951
0.414382
0.394155
0.374513
0.355607
0.337524
0.320311
0.30399
0.288547
0.273916
0.260034
0.247068
0.235492
0.56802
0.54985
0.540438
0.526674
0.50902
0.488988
0.467696
0.445969
0.424352
0.4032
0.382741
0.36311
0.344384
0.326597
0.309762
0.293858
0.278825
0.26461
0.251312
0.23925
0.585764
0.56656
0.555672
0.540343
0.521255
0.499963
0.477569
0.454875
0.432408
0.410508
0.389386
0.369169
0.349921
0.331671
0.314418
0.298141
0.282785
0.2683
0.254733
0.242271
0.599207
0.579214
0.567203
0.550686
0.530511
0.508263
0.485034
0.461608
0.438497
0.41603
0.394407
0.373746
0.354104
0.335501
0.317934
0.301374
0.285774
0.271086
0.257313
0.244544
0.608232
0.587708
0.574941
0.557624
0.536719
0.51383
0.49004
0.466122
0.44258
0.419731
0.397772
0.376812
0.356906
0.338068
0.320289
0.303539
0.287776
0.272951
0.25904
0.246063
0.612765
0.591972
0.578825
0.561107
0.539834
0.516623
0.492551
0.468387
0.444628
0.421588
0.39946
0.37835
0.358311
0.339355
0.321469
0.304625
0.28878
0.273887
0.259905
0.246824
0.612765
0.591972
0.578825
0.561107
0.539834
0.516623
0.492551
0.468387
0.444628
0.421588
0.39946
0.37835
0.358311
0.339355
0.321469
0.304625
0.28878
0.273887
0.259905
0.246824
0.608232
0.587708
0.574941
0.557624
0.536719
0.51383
0.49004
0.466122
0.44258
0.419731
0.397772
0.376812
0.356906
0.338068
0.320289
0.303539
0.287776
0.272951
0.25904
0.246063
0.599207
0.579214
0.567203
0.550686
0.530511
0.508263
0.485034
0.461608
0.438498
0.41603
0.394407
0.373746
0.354104
0.335501
0.317934
0.301374
0.285774
0.271086
0.257313
0.244544
0.585765
0.56656
0.555672
0.540343
0.521255
0.499963
0.477569
0.454875
0.432408
0.410508
0.389386
0.369169
0.349921
0.331671
0.314418
0.298141
0.282785
0.2683
0.254733
0.242271
0.56802
0.549851
0.540438
0.526674
0.50902
0.488988
0.467697
0.445969
0.424352
0.4032
0.382741
0.36311
0.344384
0.326597
0.309762
0.293858
0.278825
0.26461
0.251312
0.23925
0.546125
0.529222
0.52162
0.509781
0.493895
0.475417
0.455485
0.434951
0.414382
0.394155
0.374513
0.355607
0.337524
0.320311
0.30399
0.288547
0.273916
0.260034
0.247068
0.235492
0.520265
0.504845
0.499365
0.489791
0.475989
0.459346
0.44102
0.421894
0.402564
0.38343
0.364754
0.346705
0.329383
0.312848
0.297135
0.282238
0.268082
0.254597
0.24202
0.231008
0.490663
0.47692
0.473847
0.466853
0.455433
0.440889
0.424401
0.406888
0.388976
0.371094
0.353526
0.336458
0.320008
0.304251
0.289235
0.274965
0.261356
0.248329
0.236193
0.225813
0.457571
0.445678
0.445268
0.441141
0.432378
0.420177
0.405744
0.390033
0.373708
0.357225
0.340896
0.324928
0.309455
0.294569
0.280334
0.266766
0.253773
0.241261
0.229614
0.219925
0.421273
0.411377
0.413851
0.412848
0.40699
0.397358
0.385176
0.371442
0.356859
0.341914
0.326945
0.312185
0.297786
0.283857
0.270481
0.257686
0.245372
0.23343
0.222315
0.213365
0.382081
0.374304
0.379843
0.382186
0.379455
0.372591
0.36284
0.351241
0.338538
0.325255
0.311759
0.298305
0.285068
0.272176
0.25973
0.247771
0.236196
0.224874
0.214329
0.206156
0.340332
0.334766
0.343514
0.349387
0.349972
0.346053
0.338889
0.329565
0.318866
0.307355
0.295429
0.283371
0.271376
0.259592
0.248139
0.237076
0.226292
0.215638
0.205693
0.198324
0.296387
0.293093
0.30515
0.314696
0.318755
0.31793
0.313486
0.306556
0.297969
0.288326
0.278057
0.267472
0.256789
0.246175
0.235772
0.225655
0.215711
0.205764
0.196444
0.189896
0.250624
0.249635
0.265054
0.278374
0.286031
0.288418
0.286805
0.282367
0.275981
0.268287
0.259747
0.2507
0.241389
0.232
0.222695
0.213569
0.204506
0.195301
0.186621
0.180899
0.203438
0.204756
0.223546
0.240696
0.252033
0.257723
0.259024
0.257156
0.253042
0.24736
0.240609
0.233155
0.225265
0.217145
0.208979
0.200882
0.192737
0.1843
0.176264
0.171361
0.155237
0.158833
0.180955
0.201943
0.217008
0.226058
0.230332
0.231088
0.229297
0.225675
0.220757
0.214937
0.208506
0.201691
0.194696
0.187661
0.180467
0.172816
0.165409
0.161299
0.106437
0.11225
0.13762
0.162406
0.181204
0.19364
0.200917
0.20433
0.204893
0.203363
0.200307
0.19615
0.191207
0.18572
0.179919
0.173974
0.167768
0.160924
0.154103
0.150725
0.0574602
0.0653989
0.0938887
0.122382
0.144877
0.160691
0.170975
0.177053
0.17998
0.180555
0.179377
0.1769
0.173461
0.169321
0.164727
0.159888
0.154712
0.14871
0.142393
0.139595
0.00872656
0.018669
0.0501102
0.0821683
0.108281
0.127433
0.140699
0.149426
0.154711
0.157387
0.158086
0.157292
0.155364
0.15258
0.149194
0.145461
0.141357
0.136308
0.130455
0.127877
-0.0393449
-0.0275527
0.00663772
0.0420622
0.0716722
0.0940877
0.110284
0.121622
0.129235
0.133991
0.136553
0.137431
0.137012
0.135585
0.13341
0.130768
0.127756
0.123848
0.118614
0.115258
-0.0863402
-0.072884
-0.0361779
0.00235602
0.0353014
0.0608731
0.07992
0.0938081
0.103701
0.110499
0.114895
0.117423
0.118495
0.118419
0.117452
0.11587
0.113876
0.111245
0.107379
0.102167
-0.131869
-0.116933
-0.0779968
-0.0366685
-0.000585108
0.0280038
0.0497949
0.0661489
0.078254
0.08704
0.0932254
0.0973687
0.0999039
0.101161
0.1014
0.100875
0.0998567
0.0984646
0.0963544
0.0922606
-0.175665
-0.159271
-0.118519
-0.0747443
-0.0357471
-0.00431302
0.0200895
0.0388041
0.0530357
0.0637392
0.0716565
0.0773671
0.0813265
0.0838877
0.0853217
0.0858658
0.085806
0.085495
0.0849212
0.0823323
-0.217293
-0.19963
-0.157559
-0.111612
-0.0699511
-0.0358793
-0.00902293
0.0119265
0.0281811
0.0407161
0.0502941
0.0575131
0.0628464
0.0666682
0.0692661
0.0708674
0.07174
0.0723285
0.0728176
0.0713464
-0.256358
-0.237178
-0.195266
-0.147005
-0.102976
-0.0665088
-0.0373782
-0.0143385
0.0038187
0.0180845
0.0292391
0.0378958
0.0445425
0.0495697
0.053281
0.0559016
0.0576734
0.0590577
0.0603438
0.0597256
-0.292642
-0.272276
-0.230513
-0.180677
-0.134616
-0.0960254
-0.0648212
-0.0398545
-0.019931
-0.00404849
0.0085866
0.0185996
0.0264894
0.0326587
0.0374243
0.0410148
0.0436539
0.0457943
0.0477901
0.0479631
-0.325937
-0.304681
-0.262935
-0.212501
-0.164663
-0.124266
-0.091207
-0.064495
-0.0429563
-0.0255833
-0.0115746
-0.000296191
0.00875878
0.0160013
0.0217589
0.026267
0.0297387
0.032608
0.0352715
0.0362192
-0.356028
-0.334101
-0.29271
-0.241916
-0.193078
-0.151084
-0.116402
-0.0881456
-0.0651554
-0.0464287
-0.0311625
-0.0187179
-0.00858256
-0.000340228
0.00634449
0.0117151
0.015977
0.0195387
0.0228253
0.0245165
-0.382752
-0.360335
-0.319742
-0.269015
-0.219518
-0.17631
-0.140286
-0.110704
-0.0864368
-0.0665022
-0.050103
-0.0365983
-0.0254732
-0.0163093
-0.00876593
-0.00259229
0.00241121
0.00662244
0.0104855
0.0128837
-0.406
-0.383251
-0.343841
-0.293681
-0.243886
-0.199854
-0.162753
-0.132078
-0.10672
-0.0857302
-0.0683305
-0.0538773
-0.0418581
-0.0318553
-0.0235252
-0.0166111
-0.0109182
-0.00610157
-0.00170521
0.00136428
-0.42572
-0.402774
-0.364869
-0.315769
-0.266113
-0.221627
-0.183773
-0.152174
-0.125937
-0.104049
-0.0857887
-0.0705016
-0.0576888
-0.0469328
-0.0378908
-0.0303011
-0.0239729
-0.018595
-0.0137061
-0.0100023
-0.441907
-0.418886
-0.382761
-0.335181
-0.286124
-0.241551
-0.203243
-0.171003
-0.144019
-0.121404
-0.102431
-0.0864249
-0.072924
-0.0615021
-0.0518253
-0.0436264
-0.0367183
-0.0308253
-0.0254846
-0.0211849
-0.454611
-0.431623
-0.397508
-0.35187
-0.30386
-0.259576
-0.221104
-0.188469
-0.160967
-0.137788
-0.118206
-0.10161
-0.0875298
-0.075528
-0.0652974
-0.0565559
-0.0491241
-0.0427666
-0.0370188
-0.0321593
-0.463935
-0.441076
-0.409148
-0.365821
-0.319286
-0.275669
-0.237333
-0.204541
-0.176727
-0.15315
-0.133116
-0.116048
-0.10147
-0.0889824
-0.0782816
-0.0690641
-0.0611639
-0.054395
-0.0482927
-0.0429143
-0.470033
-0.447388
-0.417763
-0.377055
-0.332398
-0.28982
-0.251922
-0.21921
-0.191279
-0.167467
-0.147127
-0.129706
-0.114744
-0.101863
-0.0907502
-0.081132
-0.0728194
-0.0656847
-0.059288
-0.053469
-0.473107
-0.450758
-0.42348
-0.38563
-0.343216
-0.302035
-0.264874
-0.232481
-0.204623
-0.180735
-0.160225
-0.142569
-0.127329
-0.114141
-0.1027
-0.0927522
-0.0840987
-0.0765995
-0.0699529
-0.0638925
-0.4734
-0.45143
-0.426472
-0.391641
-0.351788
-0.312342
-0.276209
-0.244368
-0.216771
-0.192963
-0.172414
-0.154637
-0.139217
-0.125808
-0.114119
-0.103904
-0.0949666
-0.0871651
-0.0802889
-0.0741424
-0.471187
-0.449685
-0.426958
-0.395226
-0.35819
-0.320787
-0.285957
-0.254897
-0.227743
-0.204166
-0.183705
-0.165916
-0.150411
-0.136864
-0.124998
-0.11458
-0.105417
-0.097372
-0.0902679
-0.083908
-0.466773
-0.44583
-0.425197
-0.396558
-0.362528
-0.327433
-0.294167
-0.264104
-0.23757
-0.214367
-0.194116
-0.17642
-0.160921
-0.147315
-0.135342
-0.124781
-0.115445
-0.1072
-0.099877
-0.0932521
-0.460479
-0.44019
-0.42148
-0.395847
-0.364931
-0.332365
-0.300898
-0.272038
-0.246292
-0.223601
-0.203674
-0.186169
-0.170763
-0.157173
-0.145159
-0.134511
-0.125053
-0.116649
-0.109148
-0.102307
-0.452636
-0.433098
-0.416121
-0.393334
-0.365556
-0.335682
-0.306221
-0.278755
-0.253955
-0.231905
-0.21241
-0.195188
-0.179956
-0.166454
-0.154461
-0.143783
-0.134251
-0.125736
-0.118111
-0.111126
-0.443572
-0.424882
-0.409446
-0.389283
-0.364586
-0.337502
-0.310216
-0.284318
-0.260614
-0.239327
-0.220364
-0.203511
-0.188526
-0.175179
-0.163267
-0.152611
-0.143055
-0.134476
-0.126772
-0.119705
-0.433607
-0.415854
-0.401778
-0.383978
-0.362222
-0.337958
-0.312975
-0.288796
-0.266326
-0.245915
-0.227579
-0.211174
-0.196505
-0.183373
-0.171596
-0.161013
-0.151479
-0.142877
-0.135129
-0.128028
-0.42304
-0.406308
-0.39343
-0.377711
-0.358688
-0.337199
-0.314597
-0.292263
-0.27115
-0.251724
-0.234101
-0.218217
-0.203927
-0.191066
-0.179474
-0.169009
-0.159539
-0.150953
-0.143186
-0.136086
-0.412144
-0.396505
-0.384688
-0.370769
-0.354217
-0.335389
-0.31519
-0.294794
-0.27515
-0.256806
-0.239979
-0.224683
-0.210829
-0.198288
-0.186928
-0.176621
-0.167252
-0.158715
-0.150955
-0.143887
-0.401163
-0.386676
-0.375808
-0.363427
-0.349051
-0.332702
-0.31487
-0.29647
-0.278386
-0.261215
-0.245261
-0.230616
-0.21725
-0.205075
-0.193985
-0.183872
-0.174638
-0.166184
-0.158453
-0.151441
-0.390305
-0.377011
-0.367006
-0.355932
-0.343428
-0.329325
-0.313763
-0.297374
-0.280918
-0.265002
-0.249993
-0.236059
-0.22323
-0.211462
-0.200678
-0.190791
-0.181719
-0.173377
-0.165697
-0.158764
-0.379741
-0.367665
-0.358457
-0.348495
-0.337573
-0.325447
-0.312004
-0.297592
-0.282807
-0.268214
-0.25422
-0.241055
-0.228809
-0.217485
-0.207038
-0.197406
-0.188521
-0.180316
-0.172707
-0.16587
-0.369607
-0.358752
-0.350295
-0.341288
-0.331686
-0.321257
-0.309734
-0.297219
-0.284111
-0.270895
-0.257979
-0.24564
-0.234023
-0.223179
-0.2131
-0.203747
-0.19507
-0.187023
-0.179503
-0.172775
-0.360004
-0.350356
-0.342614
-0.334442
-0.325937
-0.316931
-0.307098
-0.296351
-0.284893
-0.273085
-0.261304
-0.249847
-0.238906
-0.228579
-0.218895
-0.209843
-0.201391
-0.193521
-0.186104
-0.179497
-0.351004
-0.342526
-0.335475
-0.328044
-0.320456
-0.312627
-0.304241
-0.295095
-0.285215
-0.274822
-0.26422
-0.253701
-0.243486
-0.233714
-0.224453
-0.215726
-0.207514
-0.199835
-0.192534
-0.186053
-0.342651
-0.33529
-0.328907
-0.322148
-0.315336
-0.308474
-0.3013
-0.293561
-0.28515
-0.276143
-0.266748
-0.257218
-0.247781
-0.238607
-0.229802
-0.221421
-0.213464
-0.205988
-0.198813
-0.192462
-0.334965
-0.328653
-0.322914
-0.316778
-0.310634
-0.304569
-0.298394
-0.291858
-0.284773
-0.277091
-0.268906
-0.260406
-0.251801
-0.243275
-0.234962
-0.226955
-0.21927
-0.212007
-0.204966
-0.198744
-0.32795
-0.322605
-0.317483
-0.311931
-0.306379
-0.300979
-0.295621
-0.290091
-0.284168
-0.277712
-0.270712
-0.263267
-0.255543
-0.247719
-0.239945
-0.232346
-0.224953
-0.217915
-0.211016
-0.204918
-0.321593
-0.317126
-0.31259
-0.30759
-0.302573
-0.29774
-0.293053
-0.288351
-0.283418
-0.278063
-0.272187
-0.265798
-0.258996
-0.25193
-0.244748
-0.237602
-0.230532
-0.223736
-0.216984
-0.211005
-0.315869
-0.312184
-0.308201
-0.303723
-0.299202
-0.294866
-0.290737
-0.286712
-0.282603
-0.278206
-0.273362
-0.267998
-0.262139
-0.255884
-0.249355
-0.242716
-0.236014
-0.229487
-0.222901
-0.217025
-0.310745
-0.307747
-0.304277
-0.300295
-0.296238
-0.29235
-0.288698
-0.285228
-0.281794
-0.278206
-0.274276
-0.269875
-0.264952
-0.259544
-0.253728
-0.247664
-0.241388
-0.235181
-0.228777
-0.223033
-0.306178
-0.303773
-0.300777
-0.297264
-0.293648
-0.290175
-0.286941
-0.283934
-0.28105
-0.278127
-0.274979
-0.271446
-0.267417
-0.262868
-0.257815
-0.252397
-0.246619
-0.240807
-0.23465
-0.229036
-0.302122
-0.30022
-0.297657
-0.294587
-0.291391
-0.28831
-0.285455
-0.282844
-0.28041
-0.278025
-0.275526
-0.272743
-0.269532
-0.265817
-0.261554
-0.256838
-0.251649
-0.246315
-0.240484
-0.235281
-0.298521
-0.297043
-0.294874
-0.292219
-0.289426
-0.286719
-0.284217
-0.281956
-0.279897
-0.277947
-0.27597
-0.27381
-0.271313
-0.268369
-0.264883
-0.260909
-0.256351
-0.251669
-0.246175
-0.241613
-0.295317
-0.294196
-0.292382
-0.290116
-0.287706
-0.28536
-0.283194
-0.281252
-0.279517
-0.277921
-0.276358
-0.274698
-0.272795
-0.270524
-0.267761
-0.264512
-0.260659
-0.256514
-0.252115
-0.247407
-0.292448
-0.291635
-0.290138
-0.288235
-0.286189
-0.284189
-0.282344
-0.280701
-0.279254
-0.277955
-0.276724
-0.275455
-0.274025
-0.272309
-0.270186
-0.267573
-0.264508
-0.260709
-0.257664
-0.252097
-0.289866
-0.289306
-0.288097
-0.286531
-0.28483
-0.283161
-0.281625
-0.280264
-0.279082
-0.278041
-0.27708
-0.276118
-0.275055
-0.273774
-0.272187
-0.270076
-0.267814
-0.264117
-0.262297
-0.255805
-0.287513
-0.28717
-0.286221
-0.284966
-0.283588
-0.282233
-0.280992
-0.279904
-0.278965
-0.278154
-0.277423
-0.276706
-0.275924
-0.274973
-0.273811
-0.272071
-0.270538
-0.266773
-0.266156
-0.258607
-0.285336
-0.285187
-0.284476
-0.283504
-0.282425
-0.281365
-0.280402
-0.279567
-0.278861
-0.278262
-0.277731
-0.277216
-0.276655
-0.275956
-0.275109
-0.273657
-0.272699
-0.26886
-0.269376
-0.260638
-0.283291
-0.283324
-0.282834
-0.282116
-0.281312
-0.280525
-0.279819
-0.279222
-0.278731
-0.278327
-0.277975
-0.277634
-0.277251
-0.27675
-0.276127
-0.274933
-0.274325
-0.270595
-0.2719
-0.262155
-0.281346
-0.281557
-0.281265
-0.280782
-0.280225
-0.279685
-0.279215
-0.278835
-0.278542
-0.278316
-0.278126
-0.277937
-0.277703
-0.277363
-0.276896
-0.275953
-0.275468
-0.272124
-0.273632
-0.263489
-0.279475
-0.279868
-0.279755
-0.279482
-0.279148
-0.278829
-0.27857
-0.278386
-0.27827
-0.278203
-0.278158
-0.278102
-0.277995
-0.277787
-0.277439
-0.276721
-0.276214
-0.273462
-0.274606
-0.264906
-0.277663
-0.278244
-0.278296
-0.27821
-0.278072
-0.277947
-0.277873
-0.277861
-0.277901
-0.277974
-0.278055
-0.278114
-0.278115
-0.278015
-0.277763
-0.277222
-0.276654
-0.274526
-0.275004
-0.266448
-0.275906
-0.276681
-0.276884
-0.276963
-0.276997
-0.27704
-0.277126
-0.27726
-0.277433
-0.277626
-0.277814
-0.27797
-0.27806
-0.278044
-0.277871
-0.277455
-0.27685
-0.275235
-0.275053
-0.267963
-0.274206
-0.275181
-0.275523
-0.275748
-0.27593
-0.276116
-0.276336
-0.276593
-0.276877
-0.277168
-0.277444
-0.277678
-0.277838
-0.277887
-0.277776
-0.277441
-0.276837
-0.275577
-0.274936
-0.269272