/*--------------------------------*- C++ -*----------------------------------*\
  =========                 |
  \\      /  F ield         | OpenFOAM: The Open Source CFD Toolbox
   \\    /   O peration     | Website:  https://openfoam.org
    \\  /    A nd           | Version:  7
     \\/     M anipulation  |
\*---------------------------------------------------------------------------*/
FoamFile
{
    version     2.0;
    format      ascii;
    class       volVectorField;
    location    "24.999";
    object      U;
}
// * * * * * * * * * * * * * * * * * * * * * * * * * * * * * * * * * * * * * //

dimensions      [0 1 -1 0 0 0 0];

internalField   nonuniform List<vector> 
45600
(
(-0.0014437 0.00125615 4.58699e-21)
(-0.00785669 0.00282609 -1.65852e-20)
(-0.0192217 0.00376039 -1.36903e-21)
(-0.0322452 0.00427535 -2.5452e-21)
(-0.0459656 0.00450362 -1.4797e-20)
(-0.0597104 0.00454333 -1.42004e-20)
(-0.0730412 0.00446392 -2.64145e-21)
(-0.0857239 0.00431187 5.66163e-21)
(-0.097641 0.0041165 2.39103e-21)
(-0.10874 0.00389468 3.45969e-21)
(-0.119001 0.0036548 8.91054e-21)
(-0.128416 0.0034003 1.23609e-20)
(-0.136981 0.00313277 -1.09826e-21)
(-0.144694 0.00285489 -5.89443e-21)
(-0.151558 0.00257329 2.19303e-20)
(-0.1576 0.00230153 1.9699e-21)
(-0.162891 0.00206198 -9.02531e-21)
(-0.167547 0.00188258 -9.31321e-21)
(-0.171742 0.00179623 9.34785e-22)
(-0.175883 0.00186229 2.41544e-21)
(-0.00161282 0.00373973 -3.55042e-20)
(-0.00816685 0.00842078 -3.13262e-20)
(-0.0195047 0.0112115 1.22218e-20)
(-0.0324117 0.0127523 -1.30058e-20)
(-0.0459538 0.0134372 -1.041e-20)
(-0.0594759 0.0135584 -2.98214e-20)
(-0.07255 0.0133232 1.70287e-20)
(-0.0849477 0.0128703 -1.44216e-20)
(-0.0965541 0.0122876 4.44413e-21)
(-0.107317 0.0116259 -2.43984e-20)
(-0.117218 0.0109102 -1.8858e-20)
(-0.126247 0.0101508 -8.8081e-21)
(-0.134399 0.00935188 -3.31587e-20)
(-0.141667 0.00852036 2.63628e-20)
(-0.148047 0.0076745 -2.4571e-20)
(-0.153555 0.00685293 -2.51282e-20)
(-0.158246 0.00612161 -2.8259e-21)
(-0.162222 0.00556666 2.40711e-20)
(-0.16561 0.00528992 -5.25471e-21)
(-0.168831 0.00547382 -2.94218e-20)
(-0.00194473 0.00613961 4.6433e-20)
(-0.00877743 0.0138478 -1.20817e-20)
(-0.0200631 0.0184592 -5.48702e-20)
(-0.0327408 0.0210135 2.51977e-20)
(-0.0459298 0.0221551 2.47112e-20)
(-0.0590092 0.0223638 1.12519e-20)
(-0.0715718 0.021981 -1.62393e-20)
(-0.0834003 0.0212367 5.62752e-21)
(-0.0943848 0.0202768 5.13943e-20)
(-0.104476 0.0191858 4.95616e-20)
(-0.113652 0.0180061 4.1075e-21)
(-0.121906 0.016754 -2.29496e-21)
(-0.129226 0.015435 7.30205e-21)
(-0.135598 0.0140572 -1.67018e-20)
(-0.141008 0.0126456 -7.31128e-21)
(-0.145446 0.0112575 -2.98718e-20)
(-0.148943 0.00999821 4.5008e-20)
(-0.151571 0.00901757 -2.82329e-20)
(-0.153364 0.00849578 1.33728e-20)
(-0.154719 0.00874588 5.08852e-20)
(-0.00242728 0.0084044 2.36191e-20)
(-0.0096696 0.0190024 1.41512e-20)
(-0.0208825 0.0253744 9.59475e-20)
(-0.0332248 0.0289201 2.27818e-20)
(-0.0458926 0.0305166 5.42247e-20)
(-0.0583145 0.0308208 1.92917e-20)
(-0.0701142 0.0303031 -5.3424e-20)
(-0.0810905 0.0292817 -3.28687e-20)
(-0.0911411 0.0279601 -1.03619e-21)
(-0.100219 0.026457 -4.45006e-20)
(-0.108302 0.024832 9.78814e-21)
(-0.11538 0.0231077 -1.78681e-21)
(-0.121438 0.0212889 3.48618e-20)
(-0.126452 0.0193807 -1.05644e-20)
(-0.130393 0.0174074 9.77343e-20)
(-0.133222 0.0154345 8.56748e-20)
(-0.134931 0.0135958 4.28757e-20)
(-0.135558 0.0121101 -1.25052e-20)
(-0.135012 0.0112518 -3.30927e-20)
(-0.133488 0.011454 -2.81959e-20)
(-0.00304333 0.010489 -5.80804e-20)
(-0.0108165 0.0237902 5.53583e-20)
(-0.0219421 0.0318376 4.78588e-20)
(-0.0338522 0.0363405 9.20246e-21)
(-0.0458398 0.0383855 -1.03929e-19)
(-0.0573969 0.0387934 -3.10204e-20)
(-0.0681868 0.0381552 -7.92607e-21)
(-0.0780294 0.0368744 2.6952e-20)
(-0.0868321 0.0352107 2.51615e-20)
(-0.0945498 0.0333172 -3.39939e-20)
(-0.101161 0.0312717 -8.69853e-20)
(-0.106649 0.0291034 1.38566e-19)
(-0.110993 0.0268152 -5.80678e-20)
(-0.114162 0.024405 -1.46397e-20)
(-0.11611 0.0218881 -7.23133e-20)
(-0.116769 0.0193238 -4.73505e-20)
(-0.116079 0.0168552 -1.3047e-19)
(-0.11405 0.0147647 2.6612e-20)
(-0.110502 0.0134503 -1.14294e-20)
(-0.104938 0.013385 -7.79751e-20)
(-0.00377207 0.0123567 6.58735e-20)
(-0.0121851 0.0281304 -2.27038e-20)
(-0.0232152 0.0377421 -1.48622e-19)
(-0.0346074 0.043153 -8.08005e-20)
(-0.0457666 0.0456326 7.62154e-20)
(-0.0562597 0.0461487 5.11829e-20)
(-0.0657981 0.045404 -4.73094e-20)
(-0.0742266 0.0438822 -4.51297e-20)
(-0.0814638 0.0418977 -2.71988e-20)
(-0.0874667 0.0396383 1.05917e-19)
(-0.0922099 0.0372012 -9.52273e-21)
(-0.0956708 0.0346233 -7.09161e-20)
(-0.0978204 0.031906 5.87817e-20)
(-0.0986165 0.0290378 9.38888e-20)
(-0.0979978 0.0260178 -2.70289e-20)
(-0.0958735 0.022884 1.11763e-19)
(-0.0921228 0.0197593 4.35079e-20)
(-0.0867196 0.0169581 -2.07993e-20)
(-0.0796344 0.0150714 5.9549e-20)
(-0.0686459 0.0144466 4.04618e-20)
(-0.0045905 0.0139806 -1.20784e-19)
(-0.0137379 0.0319583 8.29262e-20)
(-0.0246709 0.0429971 1.4385e-20)
(-0.0354702 0.049249 3.50657e-20)
(-0.0456636 0.0521375 3.20629e-20)
(-0.0549021 0.0527595 -5.44663e-20)
(-0.0629512 0.0519184 9.0673e-20)
(-0.0696847 0.0501722 2.21616e-21)
(-0.0750325 0.0478878 -2.55767e-20)
(-0.0789522 0.0452873 -1.62917e-20)
(-0.0814115 0.0424889 2.74174e-20)
(-0.0823768 0.0395394 6.5091e-20)
(-0.0818055 0.0364411 2.6891e-20)
(-0.0796408 0.0331741 -6.62049e-20)
(-0.0758063 0.0297183 2.86465e-20)
(-0.0701968 0.0260803 -7.94285e-20)
(-0.0626338 0.0223346 -6.74861e-20)
(-0.0529521 0.0187541 2.27451e-20)
(-0.0418523 0.0161418 4.41601e-20)
(-0.0240235 0.0149809 -6.80349e-20)
(-0.00547511 0.0153444 -3.04394e-20)
(-0.0154349 0.0352278 2.78336e-21)
(-0.0262738 0.0475298 -2.4368e-20)
(-0.036415 0.0545347 -5.48518e-21)
(-0.0455145 0.0577913 7.40522e-20)
(-0.0533138 0.0585063 9.93937e-20)
(-0.0596376 0.057572 7.3206e-20)
(-0.0643904 0.0556137 1.33361e-19)
(-0.0675135 0.0530472 3.38935e-20)
(-0.0689617 0.0501288 -5.4307e-20)
(-0.0686905 0.0469985 4.89592e-20)
(-0.066648 0.0437162 -9.19157e-20)
(-0.0627701 0.040289 -1.41932e-19)
(-0.0569768 0.0366936 1.41212e-19)
(-0.0491698 0.0328949 -7.37599e-20)
(-0.0392347 0.028868 1.139e-19)
(-0.026984 0.0246416 9.02577e-20)
(-0.0119095 0.0204088 1.01609e-19)
(0.00413997 0.0166426 -2.04444e-19)
(0.0298793 0.015262 -2.52642e-21)
(-0.00640357 0.016443 1.3474e-19)
(-0.017236 0.0379113 -3.8083e-20)
(-0.0279854 0.051287 -1.5723e-19)
(-0.0374088 0.0589339 1.66884e-20)
(-0.0452915 0.062499 -1.21585e-21)
(-0.0514688 0.0632804 4.82743e-20)
(-0.0558271 0.0622464 -6.59316e-20)
(-0.0583024 0.0600818 -6.9713e-20)
(-0.0588449 0.0572471 -1.67245e-20)
(-0.0574019 0.0540309 6.40016e-20)
(-0.0539092 0.0505966 -1.53269e-19)
(-0.0482866 0.0470194 7.48463e-20)
(-0.0404366 0.0433168 9.0694e-20)
(-0.0302439 0.0394692 1.60424e-19)
(-0.0175741 0.0354369 4.21666e-20)
(-0.00227983 0.0311769 5.52669e-20)
(0.0157771 0.0266936 1.48637e-21)
(0.0374109 0.0219936 -4.13525e-20)
(0.0595244 0.017234 2.112e-19)
(0.095533 0.0153718 -5.89817e-20)
(-0.00735617 0.0172814 7.68154e-20)
(-0.0191022 0.0400002 5.31643e-20)
(-0.0297633 0.0542357 4.43957e-20)
(-0.0384089 0.0623891 5.4411e-20)
(-0.04495 0.0661826 -7.76776e-20)
(-0.0493162 0.0669879 3.39021e-20)
(-0.0514556 0.0658364 1.69285e-19)
(-0.0513334 0.063464 -2.27674e-19)
(-0.0489047 0.0603707 -7.21542e-20)
(-0.0441018 0.0568757 -1.57908e-19)
(-0.0368305 0.0531654 2.16765e-19)
(-0.02697 0.0493337 -2.0374e-19)
(-0.014375 0.0454125 2.60069e-20)
(0.00111965 0.0413944 -2.35747e-20)
(0.0196966 0.0372475 -2.96091e-19)
(0.0415734 0.0329287 -8.93711e-20)
(0.0666931 0.0284316 -1.37519e-19)
(0.0967901 0.0236024 7.63279e-21)
(0.125484 0.0185403 -1.07411e-19)
(0.175215 0.0159567 1.57731e-19)
(-0.00831702 0.0178744 -1.22058e-19)
(-0.0209967 0.0415031 7.26106e-20)
(-0.0315604 0.0563631 -1.3797e-19)
(-0.0393584 0.0648635 1.00241e-19)
(-0.0444211 0.0687839 -7.87984e-20)
(-0.0467688 0.0695538 -5.11333e-20)
(-0.0464078 0.0682557 -3.06535e-19)
(-0.043328 0.0656678 2.07083e-19)
(-0.0374809 0.0623244 1.63076e-19)
(-0.0287731 0.0585725 -2.04597e-20)
(-0.0170682 0.054622 2.87236e-20)
(-0.00219057 0.0505874 9.88457e-20)
(0.0160674 0.0465199 -1.5961e-19)
(0.0379336 0.0424315 -6.29788e-20)
(0.0636378 0.0383084 9.73106e-20)
(0.0935367 0.0341336 2.02518e-19)
(0.127031 0.0298758 1.48335e-20)
(0.167935 0.025505 -1.29104e-19)
(0.203482 0.0204862 1.20154e-19)
(0.270843 0.0181451 -1.17318e-19)
(-0.00927468 0.0182438 1.17495e-19)
(-0.022885 0.0424437 4.9926e-20)
(-0.0333224 0.0576751 1.08749e-19)
(-0.0401816 0.0663415 -1.22324e-19)
(-0.0436022 0.0702673 -1.8786e-19)
(-0.0436887 0.0709276 -1.4255e-19)
(-0.040498 0.0694448 5.39058e-20)
(-0.0340347 0.0666315 1.13245e-19)
(-0.0242346 0.0630512 -2.14229e-19)
(-0.010965 0.0590768 9.57165e-20)
(0.00596854 0.0549421 7.18462e-21)
(0.0268099 0.0507852 -1.09701e-19)
(0.0518386 0.0466817 -2.38015e-19)
(0.0813493 0.0426692 1.90623e-19)
(0.115581 0.0387554 1.28964e-19)
(0.155143 0.0350009 -2.22662e-19)
(0.19828 0.0311798 1.92952e-19)
(0.252469 0.0280759 -2.35388e-21)
(0.294725 0.0231764 -2.30132e-19)
(0.383304 0.0227277 -6.59185e-20)
(-0.0102222 0.0184167 -9.23394e-20)
(-0.0247336 0.0428569 1.16869e-19)
(-0.0349851 0.0581947 3.90462e-20)
(-0.040777 0.0668285 3.79361e-21)
(-0.0423466 0.0706228 3.1064e-19)
(-0.0398715 0.0710887 2.07722e-19)
(-0.0334464 0.0693798 -1.05375e-19)
(-0.0230755 0.0663364 -8.7101e-20)
(-0.00866216 0.0625476 1.43192e-19)
(0.00998348 0.0584116 1.88558e-19)
(0.0331281 0.0541882 -1.1624e-19)
(0.0610922 0.0500434 3.77473e-19)
(0.0942218 0.0460823 1.34923e-19)
(0.132861 0.0423757 -2.6118e-19)
(0.177163 0.0389367 2.78321e-20)
(0.228094 0.0360218 5.45868e-20)
(0.281993 0.0327769 -1.19339e-20)
(0.351401 0.031914 1.60896e-19)
(0.399933 0.0270367 1.25167e-19)
(0.511282 0.0301551 1.21076e-19)
(-0.0111563 0.0184228 7.49314e-20)
(-0.0265079 0.0427855 -2.67601e-19)
(-0.0364689 0.0579586 -3.51298e-19)
(-0.0410095 0.0663511 7.9296e-20)
(-0.0404512 0.0698688 -1.91582e-19)
(-0.0350286 0.0700526 -3.18733e-20)
(-0.0248558 0.068082 1.57694e-19)
(-0.00991602 0.064821 -2.52969e-20)
(0.0099409 0.0608827 2.00469e-19)
(0.034979 0.0566922 -1.15298e-19)
(0.0655451 0.0525396 9.31093e-20)
(0.102026 0.0486243 -3.55266e-19)
(0.144797 0.0450849 -1.03592e-19)
(0.194188 0.0420333 -1.07145e-19)
(0.250104 0.0394413 1.74995e-19)
(0.31382 0.037936 -8.95227e-21)
(0.379335 0.0354834 -1.47254e-19)
(0.464195 0.0377101 -1.24499e-19)
(0.518691 0.0329333 -1.12216e-19)
(0.650177 0.040621 -5.4359e-20)
(-0.0120759 0.0182907 2.32816e-19)
(-0.0281682 0.0422745 4.01099e-20)
(-0.0376733 0.0570138 7.9202e-20)
(-0.0407028 0.0649576 -2.95263e-20)
(-0.0376444 0.0680542 2.60528e-20)
(-0.0287711 0.0678766 -1.22076e-19)
(-0.0141913 0.0656284 1.4087e-19)
(0.00615757 0.0621959 -2.00686e-19)
(0.0324999 0.0582176 2.39002e-19)
(0.0651824 0.0541504 -4.41528e-21)
(0.104618 0.0503202 -2.82704e-19)
(0.151214 0.0469631 7.79418e-20)
(0.205275 0.0442499 1.79805e-19)
(0.266969 0.0423349 1.28259e-19)
(0.335754 0.0410851 -2.27746e-19)
(0.412788 0.0415736 -1.2675e-19)
(0.490223 0.0404173 1.36341e-20)
(0.587901 0.0459684 1.28775e-19)
(0.648323 0.0418444 1.38503e-19)
(0.791783 0.0539813 -1.72057e-19)
(-0.0129802 0.0180457 -3.10098e-19)
(-0.0296655 0.041367 2.0876e-19)
(-0.0384715 0.0554183 -1.17725e-19)
(-0.0396291 0.0627136 2.9694e-20)
(-0.0335762 0.0652584 2.08424e-19)
(-0.0205971 0.0646649 1.24737e-19)
(-0.000766922 0.0621607 -1.90138e-19)
(0.0260468 0.058657 1.38246e-19)
(0.060154 0.0548232 -3.78629e-19)
(0.101968 0.0511542 2.11488e-20)
(0.151911 0.0480142 2.08564e-19)
(0.210292 0.0456729 -3.33478e-20)
(0.277163 0.0443195 -1.95166e-19)
(0.352256 0.044121 -8.61111e-20)
(0.434387 0.0448183 -6.06199e-21)
(0.523774 0.0476658 1.59398e-19)
(0.612202 0.0486107 5.01932e-20)
(0.716947 0.0568333 2.02134e-19)
(0.782851 0.0542123 5.77031e-20)
(0.925553 0.0694624 -7.81854e-20)
(-0.013866 0.0177073 -1.20042e-19)
(-0.0309354 0.0401032 -3.33966e-19)
(-0.0387037 0.0532324 2.23046e-19)
(-0.0375046 0.0596992 2.63116e-20)
(-0.0278097 0.0615945 -1.69471e-20)
(-0.0098861 0.0605731 -3.40939e-20)
(0.0162523 0.0578921 -5.14156e-20)
(0.0508232 0.0544942 9.21478e-20)
(0.0942039 0.0510909 -2.19274e-19)
(0.146813 0.0482137 -4.98549e-20)
(0.208947 0.0462607 -2.4035e-19)
(0.2806 0.0455161 2.54279e-19)
(0.361277 0.0461487 1.39803e-19)
(0.449901 0.0482537 -1.19123e-19)
(0.544435 0.0514971 -1.68846e-20)
(0.643366 0.0567144 -1.27081e-20)
(0.739706 0.0604624 -3.27047e-20)
(0.843817 0.0699879 -5.59955e-20)
(0.913116 0.0695046 1.79967e-19)
(1.04119 0.0855444 3.68323e-19)
(-0.0147246 0.0172877 5.53564e-20)
(-0.0318956 0.0385151 2.69038e-19)
(-0.0381688 0.0505133 1.62507e-19)
(-0.0339841 0.0560122 7.57741e-20)
(-0.0198214 0.0572086 -9.92082e-20)
(0.0040937 0.0558095 -4.97594e-20)
(0.0378261 0.0531123 2.5776e-21)
(0.0816692 0.0501028 -1.02099e-19)
(0.136003 0.0475336 -2.91754e-20)
(0.201102 0.0459686 1.94646e-19)
(0.276896 0.0458168 2.30536e-19)
(0.362732 0.0473253 -7.75513e-20)
(0.457184 0.0505699 -1.29042e-19)
(0.557979 0.0554398 2.55412e-19)
(0.662012 0.0615681 2.47422e-19)
(0.765914 0.0688476 1.41508e-19)
(0.864531 0.0754243 -1.28782e-19)
(0.960399 0.0845841 3.15984e-20)
(1.02883 0.0863326 -2.39518e-20)
(1.13141 0.100317 -3.11664e-19)
(-0.0155382 0.0167897 3.78769e-19)
(-0.0324389 0.0366212 -1.09025e-19)
(-0.0366253 0.0473195 -1.54388e-19)
(-0.0286596 0.0517645 -1.55798e-19)
(-0.00900713 0.0522784 -1.31388e-19)
(0.0221655 0.0506362 2.13148e-19)
(0.0649958 0.0481877 9.66622e-20)
(0.119789 0.0459678 -2.37326e-19)
(0.186784 0.0447624 1.59535e-19)
(0.265852 0.0451459 -8.90305e-20)
(0.356192 0.0474767 -1.27586e-19)
(0.456075 0.0518712 5.29813e-20)
(0.562743 0.0581995 5.76051e-20)
(0.672512 0.0660166 -1.33417e-19)
(0.781137 0.0748453 -1.29304e-19)
(0.884139 0.0836239 -8.7399e-20)
(0.977775 0.0921107 -9.27586e-20)
(1.05971 0.0994063 2.21889e-20)
(1.12179 0.103058 7.10489e-20)
(1.19364 0.112109 1.15606e-19)
(-0.0162732 0.0162027 -8.78898e-20)
(-0.0324305 0.0344326 -1.98292e-19)
(-0.0337892 0.0437107 2.35746e-19)
(-0.0210667 0.0470809 -2.05875e-19)
(0.00530091 0.0470125 1.38889e-19)
(0.0452042 0.0453645 -1.88216e-19)
(0.0988017 0.0435493 -2.05858e-19)
(0.16627 0.0426469 4.97209e-19)
(0.247441 0.0434541 2.5123e-20)
(0.341401 0.0464878 -1.17987e-19)
(0.446149 0.0519509 -2.22666e-19)
(0.558452 0.0596936 -5.85186e-20)
(0.67398 0.0692436 -2.82002e-19)
(0.78774 0.0797562 8.26973e-20)
(0.894725 0.0905096 3.82081e-20)
(0.99054 0.0999686 -3.46261e-20)
(1.0724 0.108735 2.56641e-19)
(1.13765 0.113386 -6.85835e-20)
(1.18831 0.118289 6.03373e-20)
(1.22984 0.119663 -1.60589e-19)
(-0.016881 0.0155148 1.15709e-19)
(-0.0317004 0.0319537 5.65716e-21)
(-0.0293354 0.0397448 3.93483e-20)
(-0.0106947 0.0420991 7.49275e-20)
(0.0238084 0.0416491 8.97661e-20)
(0.0740816 0.0403526 1.38756e-19)
(0.140181 0.0396852 6.5649e-20)
(0.221903 0.04075 -1.51709e-19)
(0.318276 0.04429 3.42237e-20)
(0.427098 0.0506489 -7.28518e-21)
(0.5447 0.0597204 1.44591e-19)
(0.66608 0.0709355 -6.03423e-20)
(0.785453 0.0833738 6.99485e-20)
(0.897078 0.0958197 -7.3249e-21)
(0.996086 0.107312 -2.35726e-19)
(1.07927 0.116405 1.69098e-20)
(1.14512 0.123755 -1.69127e-19)
(1.19376 0.126043 -1.91542e-20)
(1.22955 0.130493 -4.68882e-20)
(1.24589 0.12201 7.69141e-20)
(-0.0173048 0.0147104 -8.59085e-20)
(-0.0300471 0.0291798 1.37285e-20)
(-0.0228995 0.0354839 3.23708e-19)
(0.00299843 0.0369736 -1.64058e-19)
(0.0472218 0.036458 8.39883e-20)
(0.109596 0.0359995 -1.40118e-19)
(0.189847 0.0371208 -1.27127e-19)
(0.287001 0.0408886 -1.17004e-19)
(0.398761 0.0478734 -2.30052e-19)
(0.521109 0.0580752 2.54923e-19)
(0.64839 0.0709001 2.12075e-19)
(0.773948 0.0852443 4.82167e-20)
(0.891159 0.0997407 1.80757e-19)
(0.994519 0.11295 -1.28254e-19)
(1.08043 0.123895 2.52e-20)
(1.14761 0.131526 2.15836e-19)
(1.19654 0.13647 -4.17746e-20)
(1.2302 0.137037 -7.81315e-20)
(1.25024 0.137844 5.33373e-20)
(1.26104 0.130506 -3.31723e-19)
(-0.0174708 0.0137671 -3.22264e-19)
(-0.0272435 0.0261101 -1.63413e-19)
(-0.0140889 0.0310015 -4.01158e-19)
(0.0205659 0.0318812 -3.11831e-20)
(0.0762065 0.0317404 -1.25838e-19)
(0.152389 0.0327368 -3.97005e-20)
(0.248151 0.0363911 8.45117e-20)
(0.361221 0.0436194 4.08168e-19)
(0.487387 0.0546366 -4.13863e-19)
(0.620415 0.0688934 1.32257e-19)
(0.752721 0.0851627 -1.60377e-19)
(0.876625 0.101803 -1.25548e-19)
(0.985731 0.117157 -1.75119e-19)
(1.07593 0.129829 -4.53922e-20)
(1.14579 0.139122 1.14383e-19)
(1.19624 0.1445 -4.41516e-20)
(1.22993 0.146981 -1.82982e-20)
(1.2505 0.145391 -7.03254e-20)
(1.26101 0.144301 1.70303e-19)
(1.26635 0.136477 2.50386e-19)
(-0.0172894 0.0126643 2.40075e-20)
(-0.0230376 0.0227541 3.11677e-19)
(-0.00249357 0.0263898 3.2231e-19)
(0.0425459 0.0270269 1.23554e-19)
(0.111335 0.0278308 1.47832e-19)
(0.202857 0.0310183 -1.38876e-20)
(0.314956 0.038006 5.45148e-20)
(0.443432 0.0493745 -1.45842e-19)
(0.581644 0.0647494 2.92436e-19)
(0.721083 0.0828446 3.31851e-20)
(0.852827 0.101769 1.21312e-19)
(0.969281 0.119507 -5.23904e-20)
(1.06551 0.134403 1.32268e-19)
(1.13973 0.145417 1.41817e-20)
(1.19296 0.152334 -8.61772e-20)
(1.2282 0.155233 1.09189e-19)
(1.24931 0.155344 4.37374e-21)
(1.26047 0.1521 -1.07006e-19)
(1.26452 0.149478 -1.85736e-19)
(1.26548 0.141309 -5.39587e-20)
(-0.0166586 0.0113882 -6.196e-20)
(-0.0171579 0.0191388 -1.82742e-19)
(0.0123004 0.0217689 -7.13085e-20)
(0.0694323 0.0226524 2.2105e-19)
(0.15303 0.0250986 -1.45292e-19)
(0.261059 0.0313022 1.96805e-19)
(0.389531 0.0424019 1.02215e-19)
(0.531684 0.0583884 -9.8018e-20)
(0.678216 0.0780574 2.70669e-19)
(0.818812 0.0993038 -2.7923e-19)
(0.944324 0.119719 -1.63485e-19)
(1.04856 0.137227 1.276e-19)
(1.12905 0.150518 -2.08726e-20)
(1.18667 0.159134 2.81915e-19)
(1.22465 0.163422 -1.93982e-19)
(1.24732 0.163963 4.80509e-20)
(1.25905 0.162109 -6.2245e-20)
(1.26374 0.157611 -1.92704e-20)
(1.26369 0.153911 2.55494e-19)
(1.2627 0.145545 7.20971e-20)
(-0.0154667 0.00993486 1.91494e-19)
(-0.00932073 0.015317 2.30359e-19)
(0.0306942 0.0172965 -1.39721e-19)
(0.101641 0.0190419 -1.77741e-19)
(0.2015 0.0239417 -1.04031e-19)
(0.326631 0.0340216 -1.51045e-19)
(0.470493 0.0498851 -1.94338e-19)
(0.62331 0.0706378 7.54206e-20)
(0.773375 0.0940831 -3.31448e-19)
(0.909611 0.117396 1.78022e-19)
(1.02404 0.137974 -9.29715e-20)
(1.11299 0.154057 -1.10544e-19)
(1.1769 0.164951 1.66018e-20)
(1.21908 0.170862 1.13077e-19)
(1.24427 0.172623 8.95333e-20)
(1.25734 0.171155 1.42428e-19)
(1.26251 0.167771 -9.12816e-20)
(1.26303 0.162398 4.92485e-20)
(1.2607 0.15792 -7.67628e-20)
(1.25833 0.149476 4.19153e-21)
(-0.0135941 0.00831362 -1.60017e-19)
(0.000760013 0.0113747 1.75727e-19)
(0.0530565 0.0131753 1.02726e-19)
(0.139468 0.0165243 -7.50254e-20)
(0.256683 0.0247722 1.4104e-19)
(0.398724 0.0395441 -1.07869e-19)
(0.555842 0.0605746 2.15307e-19)
(0.715191 0.0858208 1.57052e-19)
(0.863515 0.112103 -1.48164e-19)
(0.990414 0.13618 2.55237e-19)
(1.09037 0.155669 -1.10121e-19)
(1.16284 0.169447 7.57661e-20)
(1.211 0.177555 1.61924e-19)
(1.23994 0.180801 -1.05466e-19)
(1.25511 0.18035 -7.88899e-21)
(1.26129 0.177277 -2.33024e-19)
(1.2621 0.172752 1.93811e-19)
(1.26008 0.166788 2.40354e-20)
(1.25644 0.161728 1.46659e-19)
(1.25336 0.153268 -1.11218e-19)
(-0.0109171 0.00654952 1.03909e-19)
(0.0133621 0.00743638 -1.84113e-19)
(0.0796991 0.00965694 -1.18287e-20)
(0.183051 0.0154674 -3.74223e-20)
(0.318181 0.027991 -1.87535e-19)
(0.475992 0.0481222 2.46847e-19)
(0.643108 0.0743648 -5.71965e-20)
(0.80414 0.103397 -1.84961e-19)
(0.945663 0.131289 -3.78388e-20)
(1.05943 0.154825 4.44958e-20)
(1.1432 0.172229 2.74202e-19)
(1.19958 0.183196 9.21185e-20)
(1.23387 0.18847 -8.2778e-20)
(1.25216 0.189305 -9.3243e-20)
(1.25991 0.187029 4.88178e-20)
(1.26136 0.182725 2.0439e-19)
(1.2594 0.177361 -1.06741e-19)
(1.25587 0.170991 -1.22642e-19)
(1.25154 0.165457 -6.90439e-20)
(1.24801 0.15703 3.05688e-21)
(-0.00731101 0.00468513 7.85141e-21)
(0.0287418 0.00366798 1.57866e-20)
(0.110849 0.00704088 -1.45878e-19)
(0.232319 0.016264 7.70575e-20)
(0.385226 0.0339495 1.78712e-19)
(0.556638 0.0598472 -2.1964e-19)
(0.729602 0.0909274 4.02967e-20)
(0.887323 0.12268 1.54074e-19)
(1.01782 0.150857 -2.25247e-20)
(1.11612 0.172728 5.76864e-20)
(1.18354 0.187387 -2.67179e-19)
(1.2253 0.195368 -1.1272e-19)
(1.24809 0.197987 -3.08795e-20)
(1.25822 0.19676 -2.55706e-20)
(1.2607 0.193033 -5.36568e-20)
(1.25903 0.187794 -1.57484e-19)
(1.25536 0.181802 1.26184e-19)
(1.25095 0.175131 -5.43188e-20)
(1.24626 0.169184 1.39053e-19)
(1.24242 0.160798 3.90919e-20)
(-0.00265431 0.00278154 7.22852e-20)
(0.0471188 0.000277213 -9.54037e-20)
(0.146621 0.00566741 1.32257e-19)
(0.286956 0.0193076 -5.92597e-20)
(0.456677 0.0429069 4.67235e-20)
(0.638559 0.074624 1.09524e-19)
(0.81273 0.109763 -2.84072e-20)
(0.96258 0.142962 -1.46747e-19)
(1.07904 0.17018 8.92419e-20)
(1.16101 0.189541 8.58495e-20)
(1.21303 0.201119 1.33041e-19)
(1.24225 0.206184 3.0422e-20)
(1.25592 0.206446 2.30124e-19)
(1.26004 0.203515 6.36981e-20)
(1.25891 0.198646 1.69581e-20)
(1.25523 0.192685 6.25645e-20)
(1.25052 0.186198 1.05955e-19)
(1.24561 0.179276 -2.86175e-20)
(1.24072 0.17294 -1.05253e-19)
(1.23664 0.164591 1.99124e-20)
(0.00316767 0.000917935 -9.75766e-20)
(0.0686599 -0.00248972 -1.52015e-19)
(0.186985 0.00590429 -7.45157e-20)
(0.346375 0.0249602 -1.87175e-21)
(0.531067 0.0549916 7.02915e-21)
(0.71954 0.0921798 -2.21059e-19)
(0.890276 0.130283 1.28503e-19)
(1.02857 0.163615 -6.22644e-20)
(1.1293 0.188832 -1.01283e-19)
(1.19524 0.205143 1.49524e-21)
(1.23355 0.21356 -1.19537e-19)
(1.25245 0.215928 -1.27327e-19)
(1.25916 0.214166 -1.97308e-19)
(1.259 0.209846 2.45034e-20)
(1.25545 0.204069 6.08998e-20)
(1.2505 0.197524 -8.96732e-20)
(1.24518 0.190619 1.00128e-20)
(1.23997 0.183456 1.31293e-19)
(1.23496 0.176738 -7.99638e-20)
(1.23069 0.168411 7.48752e-20)
(0.0102559 -0.000807522 4.8933e-20)
(0.0934617 -0.00435319 4.78192e-20)
(0.231743 0.00812789 -2.18674e-19)
(0.409715 0.033517 8.57122e-20)
(0.606702 0.0701799 -1.94004e-19)
(0.797483 0.112109 1.50842e-19)
(0.960598 0.151903 -1.75704e-20)
(1.08476 0.18415 1.17931e-19)
(1.16925 0.206586 1.87381e-19)
(1.22032 0.219571 -1.53755e-20)
(1.24691 0.224928 1.29429e-19)
(1.25763 0.224888 1.48033e-19)
(1.25918 0.221417 -5.19759e-20)
(1.25605 0.215958 -1.01615e-19)
(1.25091 0.209435 -8.74051e-20)
(1.24516 0.202385 1.06634e-19)
(1.23946 0.195096 -8.88688e-20)
(1.23407 0.187681 -4.02571e-20)
(1.22898 0.18058 1.85104e-20)
(1.22455 0.172254 -1.63728e-20)
(0.0186908 -0.00228015 1.15876e-19)
(0.121533 -0.00501055 1.2776e-19)
(0.280511 0.0126996 -4.3722e-20)
(0.475873 0.0451745 2.49592e-19)
(0.681807 0.0883008 5.89598e-20)
(0.8706 0.133934 -2.26743e-19)
(1.02269 0.174108 1.80954e-19)
(1.13127 0.204238 -3.27575e-20)
(1.19996 0.22337 -2.23939e-20)
(1.23778 0.232961 -7.24355e-20)
(1.25471 0.235468 1.63392e-20)
(1.25912 0.233318 2.53717e-20)
(1.25694 0.228404 -9.70819e-20)
(1.25179 0.221989 3.11959e-22)
(1.24562 0.21482 -3.52082e-20)
(1.23937 0.207303 -5.18256e-20)
(1.23344 0.199641 4.93668e-20)
(1.22794 0.191948 -6.06489e-20)
(1.2228 0.18446 -7.25384e-20)
(1.21823 0.17611 5.01242e-20)
(0.0285281 -0.00337113 -2.42344e-19)
(0.152782 -0.00414732 7.6358e-20)
(0.332717 0.0199402 7.48126e-22)
(0.543565 0.0600092 -1.51516e-19)
(0.754675 0.109065 2.09404e-20)
(0.937532 0.157173 -4.38319e-20)
(1.07613 0.196487 -5.31636e-20)
(1.16865 0.223691 -8.73206e-20)
(1.22264 0.239221 -4.26787e-21)
(1.24908 0.245497 -3.89188e-20)
(1.25825 0.245409 -9.8278e-20)
(1.25793 0.241422 -4.65364e-20)
(1.25311 0.235274 1.14716e-19)
(1.2466 0.228026 6.83529e-20)
(1.23976 0.220264 3.08742e-20)
(1.2332 0.212289 7.48039e-20)
(1.22713 0.204247 -1.18314e-19)
(1.22155 0.196246 4.41482e-20)
(1.21638 0.188366 3.17316e-20)
(1.2117 0.179966 -6.96745e-21)
(0.039791 -0.00394032 1.75361e-19)
(0.187005 -0.00145134 -1.54893e-19)
(0.387612 0.0301051 -6.61905e-20)
(0.611413 0.0779734 1.63769e-19)
(0.823801 0.132107 1.56343e-20)
(0.99738 0.181383 4.1896e-21)
(1.12096 0.218742 7.63232e-20)
(1.19777 0.242432 -1.16255e-19)
(1.23855 0.254242 1.98018e-20)
(1.25546 0.25737 8.42673e-20)
(1.25857 0.254947 -2.98768e-20)
(1.25477 0.249354 -8.4388e-20)
(1.24811 0.242121 -4.45946e-21)
(1.24069 0.234113 -4.15984e-20)
(1.23343 0.22578 -3.60511e-20)
(1.22668 0.217339 -1.05908e-19)
(1.22052 0.208902 6.80993e-20)
(1.21491 0.200559 -2.21737e-21)
(1.20972 0.192286 2.1272e-21)
(1.20496 0.183807 -3.45084e-20)
(0.0524648 -0.00384059 -1.6117e-19)
(0.22388 0.00337119 1.47555e-19)
(0.4443 0.043364 -2.32872e-20)
(0.67804 0.0989063 -1.47332e-20)
(0.887964 0.15703 2.11861e-20)
(1.04968 0.206185 -3.0889e-20)
(1.15758 0.240675 -8.03138e-22)
(1.21957 0.26046 1.14645e-19)
(1.24882 0.268564 -7.67945e-21)
(1.25797 0.268755 9.11934e-21)
(1.25643 0.264238 2.77204e-21)
(1.25011 0.257217 1.24954e-20)
(1.24221 0.248999 -3.69211e-20)
(1.23419 0.240268 8.26897e-20)
(1.22666 0.231362 1.33743e-20)
(1.2198 0.222438 5.26185e-20)
(1.2136 0.213586 -1.97927e-20)
(1.20798 0.204869 9.79361e-21)
(1.2028 0.196204 -3.05738e-20)
(1.19798 0.187612 3.02017e-20)
(0.066493 -0.00292305 7.02761e-20)
(0.262976 0.0105791 -6.30932e-20)
(0.501783 0.059788 -2.36444e-20)
(0.742165 0.122557 -2.40857e-20)
(0.946267 0.183437 3.48603e-20)
(1.09431 0.231271 9.38642e-21)
(1.18658 0.262166 5.38747e-20)
(1.23502 0.277823 -1.18349e-19)
(1.25446 0.282322 6.39692e-20)
(1.25741 0.279799 4.7147e-20)
(1.25239 0.273391 -3.23121e-20)
(1.24429 0.265075 6.71846e-20)
(1.23554 0.255929 6.78459e-22)
(1.22715 0.246486 1.75057e-20)
(1.21947 0.236993 2.57068e-20)
(1.21255 0.227565 -3.14663e-20)
(1.20636 0.218274 2.42344e-20)
(1.20076 0.209154 1.04067e-20)
(1.19561 0.200101 1.06337e-21)
(1.19075 0.191361 -1.21684e-20)
(0.0817744 -0.00104297 -3.95879e-20)
(0.303754 0.02038 1.02276e-20)
(0.559017 0.0793467 7.13246e-20)
(0.802664 0.148612 -1.52402e-20)
(0.998122 0.210956 1.84693e-20)
(1.13144 0.2564 -1.19908e-20)
(1.20866 0.283153 1.41822e-20)
(1.24504 0.29459 -1.11204e-20)
(1.2563 0.295638 -6.89809e-20)
(1.2544 0.290612 1.88041e-21)
(1.24681 0.282478 2.10636e-21)
(1.23749 0.272953 -4.50362e-20)
(1.2282 0.26291 1.53905e-20)
(1.21959 0.252748 -4.26444e-21)
(1.21183 0.242648 -2.92703e-20)
(1.20493 0.232692 2.56133e-20)
(1.19877 0.222939 -3.55792e-20)
(1.19323 0.213392 -1.20911e-20)
(1.18813 0.203956 8.36322e-21)
(1.18327 0.195031 -2.19944e-21)
(0.0981624 0.0019338 4.41195e-20)
(0.345593 0.0329171 1.38138e-20)
(0.614962 0.101913 -2.05004e-20)
(0.858614 0.176721 -8.59003e-21)
(1.04322 0.239247 -3.55331e-20)
(1.16141 0.281384 -3.00454e-21)
(1.22455 0.30361 -8.42883e-21)
(1.25042 0.310832 1.26068e-21)
(1.255 0.308608 -6.00104e-21)
(1.24939 0.301268 -1.30456e-20)
(1.23997 0.291532 -5.96843e-21)
(1.22983 0.280855 1.40825e-20)
(1.22021 0.26992 1.68949e-21)
(1.2115 0.259024 -1.26057e-20)
(1.20375 0.248293 4.91188e-21)
(1.1969 0.237788 3.5242e-21)
(1.19083 0.227551 1.60526e-20)
(1.18538 0.217558 -4.9875e-21)
(1.18036 0.207746 -4.95696e-21)
(1.17553 0.198594 -9.75078e-22)
(0.115467 0.00612418 -9.72511e-21)
(0.387807 0.0482584 2.33463e-20)
(0.668638 0.127275 7.97976e-21)
(0.909306 0.206514 -3.65775e-21)
(1.08146 0.268006 -8.98199e-21)
(1.18465 0.306077 1.14393e-20)
(1.23494 0.323528 9.25004e-21)
(1.25183 0.326612 -1.57596e-20)
(1.25108 0.321301 4.09748e-21)
(1.2427 0.311807 -1.79827e-21)
(1.23201 0.30056 7.22944e-22)
(1.22137 0.288759 -5.48012e-21)
(1.2116 0.276928 -6.38329e-21)
(1.20288 0.265277 1.44382e-21)
(1.1952 0.253893 5.81569e-22)
(1.18845 0.242816 -7.52722e-21)
(1.18251 0.232078 4.89012e-22)
(1.17719 0.221627 4.77678e-21)
(1.17229 0.211444 4.67847e-21)
(1.16752 0.202026 4.14416e-23)
(0.13346 0.0116216 -1.09344e-21)
(0.429679 0.0663917 2.12227e-20)
(0.719161 0.155151 2.23555e-21)
(0.954235 0.237617 3.75707e-21)
(1.11294 0.29696 -1.56966e-20)
(1.20168 0.330362 2.70598e-20)
(1.24047 0.342907 -8.26311e-21)
(1.24986 0.341974 -4.78695e-21)
(1.24493 0.333756 -2.24819e-21)
(1.23455 0.322239 -5.76312e-21)
(1.22305 0.309542 9.2837e-21)
(1.21214 0.29663 -1.0454e-20)
(1.20234 0.283889 -6.57523e-21)
(1.19371 0.271463 2.86911e-22)
(1.18616 0.259404 2.06016e-21)
(1.17958 0.247739 -8.59016e-22)
(1.17381 0.236483 -3.82207e-21)
(1.16867 0.225565 3.82226e-21)
(1.16393 0.215014 5.30974e-21)
(1.15928 0.205295 4.01303e-21)
(0.151878 0.0184903 7.36934e-20)
(0.470485 0.0872239 1.91978e-20)
(0.765768 0.185205 -4.08564e-20)
(0.993082 0.269663 1.86772e-20)
(1.13785 0.325864 -5.62953e-20)
(1.21299 0.354138 -2.13395e-21)
(1.24171 0.361738 -1.88207e-20)
(1.24496 0.35694 2.30043e-20)
(1.23686 0.34598 2.72392e-21)
(1.2251 0.332545 -1.76501e-20)
(1.21313 0.31844 -1.72251e-20)
(1.20215 0.304419 6.082e-21)
(1.19245 0.290753 5.74454e-21)
(1.18398 0.277533 -7.76176e-21)
(1.17663 0.264783 1.85504e-21)
(1.17026 0.252516 3.10721e-21)
(1.16472 0.240729 1.54056e-20)
(1.1598 0.229336 -3.36508e-21)
(1.15527 0.218412 -8.9306e-21)
(1.15081 0.208373 5.13167e-21)
(0.170432 0.0267608 -5.37024e-20)
(0.509522 0.110584 -4.68093e-21)
(0.807835 0.217063 1.08908e-19)
(1.02568 0.302291 -5.54408e-20)
(1.15648 0.354493 6.12658e-20)
(1.2191 0.377314 -1.4671e-20)
(1.23916 0.380003 -4.05065e-21)
(1.23749 0.371508 -5.30379e-21)
(1.22706 0.357957 -4.2237e-20)
(1.21444 0.342687 -1.3187e-20)
(1.20228 0.327202 1.61543e-20)
(1.1914 0.312069 -3.02923e-20)
(1.1819 0.297466 -1.7147e-20)
(1.17367 0.283438 9.15763e-21)
(1.16658 0.269985 -1.50396e-20)
(1.16048 0.257105 4.53119e-21)
(1.15521 0.244779 -2.36074e-20)
(1.15057 0.232897 9.88651e-21)
(1.1463 0.221587 -4.4646e-21)
(1.14209 0.211219 8.55013e-21)
(0.188819 0.036427 4.41701e-20)
(0.546135 0.136231 1.52202e-21)
(0.844876 0.250323 -6.41615e-20)
(1.05201 0.335151 -3.18704e-20)
(1.16915 0.38264 5.22839e-20)
(1.22047 0.3998 -2.16665e-20)
(1.23323 0.397671 1.55692e-20)
(1.22773 0.385653 -1.92841e-21)
(1.2157 0.369645 1.66358e-21)
(1.20263 0.352609 1.11875e-20)
(1.19053 0.335763 -4.62138e-21)
(1.17989 0.319515 4.66146e-20)
(1.17069 0.303967 7.6018e-21)
(1.16278 0.289122 -1.43478e-20)
(1.15602 0.274961 1.23737e-20)
(1.15025 0.261466 1.08881e-20)
(1.1453 0.248596 9.93851e-21)
(1.14098 0.236219 3.72684e-21)
(1.137 0.224502 9.5234e-21)
(1.13301 0.213788 -7.61115e-21)
(0.206725 0.0474446 -1.25318e-19)
(0.579733 0.163861 1.10975e-19)
(0.876539 0.284567 1.38734e-20)