/*--------------------------------*- C++ -*----------------------------------*\
  =========                 |
  \\      /  F ield         | OpenFOAM: The Open Source CFD Toolbox
   \\    /   O peration     | Website:  https://openfoam.org
    \\  /    A nd           | Version:  7
     \\/     M anipulation  |
\*---------------------------------------------------------------------------*/
FoamFile
{
    version     2.0;
    format      ascii;
    class       surfaceScalarField;
    location    "20";
    object      phi;
}
// * * * * * * * * * * * * * * * * * * * * * * * * * * * * * * * * * * * * * //

dimensions      [0 3 -1 0 0 0 0];

internalField   nonuniform List<scalar> 
6484
(
-5.46571e-05
5.46571e-05
-0.00018364
0.000128983
-0.000360972
0.000177332
-0.000566943
0.00020597
-0.000788847
0.000221904
-0.00101994
0.000231093
-0.00125749
0.000237546
-0.00150089
0.000243406
-0.00175046
0.000249569
-0.00200679
0.000256331
-0.00227057
0.000263778
-0.00254252
0.000271944
-0.00282335
0.000280834
-0.0031138
0.000290452
0.000301116
-0.00341492
-5.41816e-05
0.000108839
-0.000182264
0.000257065
-0.000358589
0.000353657
-0.0005636
0.000410982
-0.00078463
0.000442934
-0.00101491
0.000461376
-0.00125168
0.000474315
-0.00149432
0.000486043
-0.00174312
0.000498366
-0.00199866
0.000511878
-0.00226164
0.000526756
-0.00253277
0.000543069
-0.00281275
0.000560822
-0.00310233
0.000580027
0.000601296
-0.00340251
-5.32328e-05
0.000162071
-0.000179515
0.000383347
-0.000353825
0.000527967
-0.000556916
0.000614073
-0.000776196
0.000662214
-0.00100486
0.000690039
-0.00124007
0.000709529
-0.00148117
0.000727145
-0.00172843
0.00074562
-0.00198241
0.000765862
-0.0022438
0.000788139
-0.00251328
0.000812556
-0.00279158
0.000839123
-0.00307941
0.000867849
0.000899603
-0.00337771
-5.18153e-05
0.000213887
-0.000175401
0.000506933
-0.000346687
0.000699254
-0.000546894
0.000814279
-0.000763544
0.000878864
-0.000989777
0.000916271
-0.00122266
0.000942416
-0.00146147
0.00096595
-0.00170642
0.000990569
-0.00195807
0.00101751
-0.00221707
0.00104714
-0.00248411
0.0010796
-0.00275989
0.0011149
-0.00304508
0.00115304
0.0011951
-0.00334058
-4.99359e-05
0.000263823
-0.000169931
0.000626928
-0.000337183
0.000866505
-0.000533535
0.00101063
-0.000746675
0.001092
-0.000969667
0.00113926
-0.00119946
0.00117221
-0.00143521
0.0012017
-0.0016771
0.00123246
-0.00192565
0.00126606
-0.0021815
0.00130298
-0.0024453
0.0013434
-0.00271773
0.00138733
-0.00299944
0.00143475
0.00148686
-0.00329119
-4.76036e-05
0.000311426
-0.000163122
0.000742446
-0.000325323
0.00102871
-0.000516844
0.00120215
-0.000725585
0.00130074
-0.000944527
0.00135821
-0.00117046
0.00139813
-0.00140241
0.00143366
-0.0016405
0.00147055
-0.00188522
0.00151078
-0.00213715
0.00155492
-0.00239694
0.00160319
-0.00266523
0.00165562
-0.0029426
0.00171212
0.00177396
-0.0032297
-4.48302e-05
0.000356256
-0.00015499
0.000852606
-0.000311122
0.00118484
-0.000496824
0.00138785
-0.000700269
0.00150419
-0.000914348
0.00157228
-0.00113566
0.00161944
-0.00136309
0.00166109
-0.00159666
0.00170412
-0.00183681
0.00175093
-0.00208411
0.00180222
-0.00233915
0.00185823
-0.00260252
0.00191899
-0.00287476
0.00198436
0.00205552
-0.00315632
-4.16297e-05
0.000397886
-0.000145558
0.000956534
-0.000294597
0.00133388
-0.000473479
0.00156674
-0.000670721
0.00170143
-0.000879119
0.00178068
-0.00109505
0.00183537
-0.00131723
0.00188327
-0.00154558
0.00193247
-0.00178048
0.00198583
-0.00202246
0.0020442
-0.00227206
0.00210783
-0.00252981
0.00217675
-0.00279616
0.00225071
0.00233071
-0.00307135
-3.80193e-05
0.000435905
-0.000134855
0.00105337
-0.000275769
0.00147479
-0.000446814
0.00173778
-0.000636927
0.00189154
-0.00083882
0.00198258
-0.00104862
0.00204518
-0.00126485
0.0020995
-0.00148729
0.0021549
-0.00171627
0.00221481
-0.00195228
0.00228021
-0.00219582
0.00235137
-0.00244736
0.00242828
-0.00270717
0.00251052
0.00259877
-0.00297523
-3.40195e-05
0.000469925
-0.000122915
0.00114227
-0.000254666
0.00160654
-0.000416835
0.00189995
-0.000598872
0.00207358
-0.000793419
0.00217712
-0.000996338
0.0022481
-0.0012059
0.00230906
-0.00142176
0.00237076
-0.00164418
0.00243723
-0.00187362
0.00250964
-0.00211054
0.00258829
-0.00235534
0.00267309
-0.00260814
0.00276332
0.00285913
-0.0028685
-2.96551e-05
0.00049958
-0.00010978
0.00122239
-0.000231325
0.00172809
-0.000383556
0.00205218
-0.000556543
0.00224657
-0.000742885
0.00236347
-0.000938158
0.00244337
-0.00114036
0.00251126
-0.001349
0.0025794
-0.00156427
0.0026525
-0.0017866
0.00273197
-0.00201648
0.00281817
-0.00225432
0.00291093
-0.00249998
0.00300898
0.00311134
-0.0027522
-2.49557e-05
0.000524536
-9.55075e-05
0.00129294
-0.000205796
0.00183838
-0.000346995
0.00219338
-0.000509917
0.00240949
-0.000687156
0.0025407
-0.000873977
0.00263019
-0.00106808
0.00270536
-0.00126877
0.00278009
-0.00147618
0.00285991
-0.0016907
0.0029465
-0.00191287
0.00304034
-0.00214333
0.00314138
-0.00238198
0.00324763
0.00335583
-0.00262646
-1.99576e-05
0.000544493
-8.01679e-05
0.00135315
-0.000178153
0.00193636
-0.000307198
0.00232242
-0.000459005
0.0025613
-0.000626219
0.00270792
-0.000803794
0.00280777
-0.000989099
0.00289067
-0.00118127
0.00297226
-0.0013804
0.00305905
-0.00158696
0.00315305
-0.00180152
0.0032549
-0.00202514
0.003365
-0.00225876
0.00348125
0.00359396
-0.0024969
-1.47041e-05
0.000559197
-6.38559e-05
0.0014023
-0.000148496
0.002021
-0.000264233
0.00243816
-0.000403817
0.00270088
-0.000560011
0.00286411
-0.000727439
0.00297519
-0.000903063
0.00306629
-0.00108572
0.00315492
-0.00127536
0.00324869
-0.00147236
0.00335006
-0.001677
0.00345954
-0.00189001
0.00357801
-0.00211553
0.00370677
0.00383314
-0.00235471
-9.25468e-06
0.000568452
-4.66966e-05
0.00143975
-0.000116964
0.00209127
-0.000218216
0.00253941
-0.000344425
0.00282709
-0.000488566
0.00300825
-0.000644948
0.00313158
-0.000810111
0.00323145
-0.00098262
0.00332743
-0.00116244
0.00342851
-0.00135047
0.00353808
-0.00154816
0.00365724
-0.00175659
0.00378643
-0.00197694
0.00392713
0.00410357
-0.00224738
-3.78459e-06
0.000572237
-2.88315e-05
0.00146479
-8.37403e-05
0.00214618
-0.000169323
0.002625
-0.000280963
0.00293873
-0.000411966
0.00313926
-0.00055634
0.00327595
-0.000710131
0.00338524
-0.00087148
0.00348878
-0.00104003
0.00359706
-0.00121625
0.0037143
-0.00140092
0.00384191
-0.00159518
0.00398068
-0.00180179
0.00413375
0.00429839
-0.00199661
1.80828e-06
0.000570428
-1.02673e-05
0.00147687
-4.90411e-05
0.00218495
-0.0001178
0.00269375
-0.000213639
0.00303457
-0.000330362
0.00325598
-0.000461703
0.00340729
-0.000603125
0.00352667
-0.000752174
0.00363783
-0.000907933
0.00375282
-0.00107028
0.00387665
-0.0012393
0.00401093
-0.00141482
0.0041562
-0.00159601
0.00431494
0.00449153
-0.00178914
7.73562e-06
0.000562693
8.54616e-06
0.00147606
-1.28614e-05
0.00220636
-6.3979e-05
0.00274487
-0.000142761
0.00311335
-0.000244065
0.00335728
-0.000361389
0.00352462
-0.000489603
0.00365488
-0.000625616
0.00377384
-0.000767987
0.00389519
-0.000916215
0.00402488
-0.00107024
0.00416496
-0.00123022
0.00431618
-0.00139615
0.00448087
0.004664
-0.00156862
1.30853e-05
0.000549607
2.71181e-05
0.00146203
2.34213e-05
0.00221005
-7.83215e-06
0.00277613
-6.87756e-05
0.0031743
-0.000153515
0.00344202
-0.000255893
0.00362699
-0.000370226
0.00376921
-0.00049278
0.0038964
-0.000621636
0.00402405
-0.000756018
0.00415926
-0.000895781
0.00430472
-0.00104112
0.00446152
-0.00119196
0.0046317
0.00481965
-0.0013476
1.82217e-05
0.000531386
4.54285e-05
0.00143482
5.98214e-05
0.00219566
4.83468e-05
0.0027876
7.80781e-06
0.00321483
-5.92517e-05
0.00350908
-0.000145734
0.00371348
-0.000245507
0.00386899
-0.000354221
0.00400511
-0.000469431
0.00413926
-0.000590059
0.00427989
-0.000715819
0.00443048
-0.000846818
0.00459252
-0.000982972
0.00476785
0.00496042
-0.00112374
2.30705e-05
0.000508315
6.3199e-05
0.00139469
9.61173e-05
0.00216274
0.000105649
0.00277807
8.55692e-05
0.00323491
3.79512e-05
0.0035567
-3.14224e-05
0.00378285
-0.000115866
0.00395343
-0.000210288
0.00409953
-0.000311636
0.0042406
-0.000418468
0.00438672
-0.000530338
0.00454235
-0.000647281
0.00470946
-0.000769231
0.0048898
0.00508692
-0.000895731
2.75067e-05
0.000480808
8.00722e-05
0.00134212
0.000131572
0.00211124
0.000162896
0.00274674
0.000164976
0.00323283
0.000137751
0.00358393
8.65856e-05
0.00383401
1.83114e-05
0.0040217
-6.12959e-05
0.00417914
-0.000148502
0.00432781
-0.00024144
0.00447966
-0.000339423
0.00464033
-0.00044243
0.00481247
-0.000550326
0.0049977
0.00519908
-0.000662485
3.14017e-05
0.000449407
9.5646e-05
0.00127788
0.000165485
0.00204141
0.000219155
0.00269307
0.000244546
0.00320744
0.000239294
0.00358918
0.000207681
0.00386563
0.000156602
0.00407278
9.24428e-05
0.0042433
1.96587e-05
0.00440059
-5.92202e-05
0.00455854
-0.000143209
0.00472432
-0.000232229
0.00490149
-0.000326211
0.00509168
0.00529672
-0.000423853
3.46513e-05
0.000414755
0.000109528
0.001203
0.000197096
0.00195384
0.000273393
0.00261678
0.000323206
0.00315763
0.000341484
0.0035709
0.000330997
0.00387611
0.000298365
0.00410542
0.000250525
0.00429114
0.000192752
0.00445837
0.000128177
0.00462312
5.82902e-05
0.00479421
-1.64307e-05
0.00497621
-9.62934e-05
0.00517154
0.00538206
-0.000181636
3.71693e-05
0.000377586
0.000121342
0.00111883
0.000225606
0.00184957
0.00032444
0.00251794
0.000399616
0.00308245
0.000443034
0.00352748
0.000455448
0.0038637
0.000442796
0.00411807
0.000412364
0.00432157
0.000370243
0.00450049
0.000320404
0.00467295
0.000264898
0.00484971
0.000204387
0.00503672
0.000138495
0.00523744
0.00545545
6.51102e-05
3.88895e-05
0.000338697
0.000130738
0.00102698
0.000250194
0.00173012
0.000370993
0.00239714
0.000472176
0.00298127
0.000542321
0.00345734
0.000579616
0.00382641
0.000588799
0.00410888
0.000577208
0.00433316
0.000551708
0.00452599
0.000517217
0.00470744
0.000476574
0.00489036
0.000431107
0.00508219
0.00038135
0.00528719
0.00550824
0.000328552
3.97694e-05
0.000298927
0.000137417
0.000929334
0.000270057
0.00159748
0.000411648
0.00225555
0.000539029
0.00285389
0.000637341
0.00335903
0.000701655
0.00376209
0.00073488
0.00407566
0.000743962
0.00432408
0.000736389
0.00453356
0.000718107
0.00472573
0.000692951
0.00491551
0.000663021
0.00511212
0.000629353
0.00532086
0.00554512
0.000592482
3.97957e-05
0.000259131
0.000141158
0.000827972
0.000284461
0.00145417
0.000444963
0.00209505
0.000598094
0.00270076
0.000725683
0.00323144
0.000819202
0.00366857
0.000879013
0.00401585
0.000911056
0.00429204
0.000923115
0.0045215
0.000922127
0.00472671
0.000913032
0.00492461
0.000898798
0.00512635
0.000880999
0.00533866
0.0055656
0.000860516
3.89897e-05
0.000220142
0.000141845
0.000725117
0.00029282
0.0013032
0.000469559
0.00191831
0.000647148
0.00252317
0.000804543
0.00307404
0.000929315
0.0035438
0.00101852
0.00392664
0.00107632
0.00423424
0.00111024
0.00448758
0.00112803
0.00470892
0.0011358
0.00491684
0.00113758
0.00512457
0.00113572
0.00534053
0.00556967
0.00113164
3.74092e-05
0.000182733
0.000139499
0.000623027
0.000294772
0.00114793
0.000484259
0.00172882
0.000683964
0.00232346
0.000870806
0.0028872
0.00102846
0.00338615
0.00114999
0.00380511
0.00123683
0.0041474
0.00129553
0.00442888
0.00133421
0.00467024
0.00136012
0.00489093
0.00137854
0.00510615
0.00139278
0.00532629
0.00555752
0.00140493
3.51474e-05
0.000147585
0.000134285
0.00052389
0.000290252
0.00099196
0.000488241
0.00153084
0.000706527
0.00210518
0.00092123
0.0026725
0.00111257
0.00319481
0.00126917
0.0036485
0.00138877
0.0040278
0.0014759
0.00434175
0.00153842
0.00460772
0.00158445
0.0048449
0.00162059
0.00507
0.00165136
0.00529552
0.00552917
0.00167971
3.23286e-05
0.000115257
0.000126516
0.000429703
0.000279541
0.000838935
0.000481204
0.00132917
0.000713309
0.00187307
0.000952731
0.00243308
0.00117724
0.0029703
0.001371
0.00345474
0.00152718
0.00387162
0.00164713
0.0042218
0.00173743
0.00451743
0.00180651
0.00477582
0.00186221
0.0050143
0.00191044
0.0052473
0.00548433
0.00195528
2.90994e-05
8.61572e-05
0.000116636
0.000342166
0.000263275
0.000692297
0.000463483
0.00112896
0.000703555
0.001633
0.000962799
0.00217383
0.0012181
0.002715
0.0014498
0.00322304
0.001646
0.00367542
0.00180363
0.00406417
0.00192668
0.00439438
0.00202298
0.00467952
0.00210115
0.00493613
0.00216856
0.00517989
0.00542218
0.00223071
2.56176e-05
6.05396e-05
0.000105186
0.000262598
0.000242413
0.00055507
0.000436101
0.000935276
0.000677534
0.00139157
0.000949972
0.00190139
0.00123138
0.00243359
0.00149968
0.00295474
0.00173809
0.00343701
0.00193819
0.00386407
0.00209986
0.0042327
0.00222892
0.00455046
0.00233394
0.00483111
0.00242348
0.00509035
0.00534109
0.00250458
2.20398e-05
3.84998e-05
9.27544e-05
0.000191883
0.00021815
0.000429674
0.000400714
0.000752712
0.000636674
0.00115561
0.000914292
0.00162378
0.00121464
0.00213325
0.00151532
0.00265406
0.00179583
0.00315651
0.0020421
0.0036178
0.00224855
0.00402625
0.00241724
0.00438177
0.00255525
0.0046931
0.00267156
0.00497404
0.0052381
0.00277454
1.85099e-05
1.99899e-05
7.99323e-05
0.000130461
0.000191809
0.000317797
0.000359455
0.000585066
0.000583502
0.000931561
0.000857588
0.00134969
0.00116752
0.00182331
0.00149305
0.00232853
0.00181207
0.0028375
0.00210571
0.00332415
0.00236221
0.00376975
0.00257811
0.00416587
0.00275705
0.00451416
0.00290693
0.00482416
0.00510842
0.00303661
1.51501e-05
4.8398e-06
6.72622e-05
7.83489e-05
0.000164707
0.000220352
0.000314707
0.000435067
0.000521388
0.000724879
0.000783438
0.00108764
0.00109228
0.00151447
0.00143198
0.00198883
0.00178164
0.00248784
0.00211973
0.00298606
0.00242884
0.00346064
0.00269886
0.00389585
0.00292781
0.00428521
0.00312039
0.00463159
0.00494472
0.00328409
1.20559e-05
-7.21613e-06
5.52048e-05
3.52e-05
0.000138051
0.000137506
0.000268848
0.00030427
0.000454146
0.00053958
0.000696786
0.000845
0.000993757
0.0012175
0.00133484
0.00164775
0.00170304
0.00211963
0.00207728
0.00261182
0.00243663
0.0031013
0.00276465
0.00356783
0.00305225
0.0039976
0.00329838
0.00438546
0.0047367
0.0035064
9.29349e-06
-1.65096e-05
4.41171e-05
3.76362e-07
0.000112846
6.87778e-05
0.000224026
0.000193089
0.000385572
0.000378035
0.000603278
0.000627294
0.000878871
0.000941909
0.0012081
0.00131852
0.00157974
0.00174799
0.00197633
0.00221524
0.00237686
0.00270077
0.00276082
0.00318386
0.0031122
0.00364623
0.00342237
0.00407528
0.00447151
0.00368756
6.90236e-06
-2.3412e-05
3.42478e-05
-2.6969e-05
8.98516e-05
1.31739e-05
0.000181994
0.000100946
0.000319042
0.000240987
0.000508504
0.000437832
0.00075554
0.000694872
0.00106111
0.00101295
0.00142029
0.00138882
0.00182148
0.00181405
0.00224724
0.002275
0.00267683
0.00275428
0.00308984
0.00323322
0.0034704
0.00369472
0.00413555
0.00380637
4.89837e-06
-2.83104e-05
2.57334e-05
-4.7804e-05
6.95611e-05
-3.06539e-05
0.000144014
2.64939e-05
0.000257223
0.000127778
0.000417329
0.000277726
0.00063151
0.000480691
0.000904536
0.000739923
0.00123705
0.0010563
0.00162407
0.00142704
0.00205426
0.00184481
0.00251073
0.0022978
0.00297307
0.00277089
0.00342116
0.00324662
0.00371941
0.0038373
3.27295e-06
-3.15833e-05
1.86097e-05
-6.31408e-05
5.22038e-05
-6.4248e-05
0.000110824
-3.21258e-05
0.000201914
3.66873e-05
0.000333428
0.000146211
0.000513311
0.000300808
0.000748564
0.00050467
0.00104389
0.000760972
0.00140013
0.00107079
0.00181289
0.00143205
0.0022719
0.00183879
0.00276135
0.00228144
0.00326183
0.00274613
0.0032221
0.00375914
1.99704e-06
-3.35803e-05
1.28165e-05
-7.39603e-05
3.77647e-05
-8.91962e-05
8.26602e-05
-7.70214e-05
0.000154018
-3.46701e-05
0.000259074
4.11556e-05
0.000405602
0.00015428
0.000601428
0.000308844
0.000853565
0.000508835
0.00116701
0.000757347
0.00154339
0.00105568
0.00197972
0.00140246
0.00246787
0.00179329
0.0029947
0.0022193
0.00266012
0.00355669
1.02357e-06
-3.46039e-05
8.21471e-06
-8.11514e-05
2.6023e-05
-0.000107004
5.93251e-05
-0.000110323
0.000113622
-8.89665e-05
0.000195159
-4.03816e-05
0.000310944
3.84945e-05
0.000468579
0.000151209
0.000675834
0.00030158
0.000939921
0.00049326
0.00126651
0.000729088
0.0016587
0.00101027
0.00211669
0.0013353
0.00263714
0.00169886
0.00205467
0.00324258
2.94013e-07
-3.48979e-05
4.61158e-06
-8.5469e-05
1.66139e-05
-0.000119007
4.0302e-05
-0.000134012
8.01893e-05
-0.000128854
0.000141449
-0.000101641
0.000230021
-5.00776e-05
0.000352631
2.85997e-05
0.000516651
0.00013756
0.000729765
0.000280146
0.000999424
0.000459428
0.00133221
0.000677478
0.00173367
0.000933849
0.00221256
0.00121997
0.00143807
0.00282916
-2.54691e-07
-3.46432e-05
1.79432e-06
-8.7518e-05
9.10694e-06
-0.000126319
2.49091e-05
-0.000149814
5.28203e-05
-0.000156765
9.69858e-05
-0.000145807
0.000162204
-0.000115296
0.000254015
-6.32113e-05
0.000378701
1.28735e-05
0.00054314
0.000115707
0.000754454
0.000248114
0.00101938
0.000412548
0.00134293
0.000610308
0.00172446
0.000838434
-6.76291e-07
-3.39669e-05
-4.34862e-07
-8.77594e-05
3.0813e-06
-0.000129835
1.24426e-05
-0.000159175
3.05052e-05
-0.000174828
6.05132e-05
-0.000175815
0.000106212
-0.000160994
0.000171946
-0.000128946
0.000262716
-7.78962e-05
0.000384136
-5.71288e-06
0.000542244
9.00063e-05
0.000743149
0.000211642
0.000992742
0.000360715
-1.01784e-06
-3.29491e-05
-2.25091e-06
-8.65263e-05
-1.83094e-06
-0.000130255
2.26921e-06
-0.000163275
1.22883e-05
-0.000184847
3.0742e-05
-0.000194268
6.05076e-05
-0.00019076
0.000104919
-0.000173357
0.000167848
-0.000140825
0.000253759
-9.16243e-05
0.000367733
-2.39679e-05
0.00051553
6.38453e-05
0.000172333
-1.31077e-06
-3.16383e-05
-3.77756e-06
-8.40596e-05
-5.9264e-06
-0.000128107
-6.14693e-06
-0.000163055
-2.67487e-06
-0.000188319
6.45145e-06
-0.000203395
2.3458e-05
-0.000207767
5.09167e-05
-0.000200816
9.1845e-05
-0.000181753
0.000149823
-0.000149603
0.000229156
-0.0001033
0.000335123
-4.21222e-05
-1.57822e-06
-3.00601e-05
-5.11533e-06
-8.05225e-05
-9.43647e-06
-0.000123785
-1.32448e-05
-0.000159247
-1.51198e-05
-0.000186444
-1.34907e-05
-0.000205024
-6.58685e-06
-0.00021467
7.63743e-06
-0.00021504
3.16063e-05
-0.000205722
6.82644e-05
-0.000186261
0.000121278
-0.000156314
-1.8368e-06
-2.82233e-05
-6.33911e-06
-7.60201e-05
-1.25494e-05
-0.000117575
-1.93937e-05
-0.000152402
-2.56895e-05
-0.000180148
-3.01302e-05
-0.000200583
-3.12465e-05
-0.000213554
-2.73419e-05
-0.000218945
-1.63979e-05
-0.000216666
4.05638e-06
-0.000206715
-0.000189366
-2.09829e-06
-2.6125e-05
-7.50501e-06
-7.06134e-05
-1.54115e-05
-0.000109669
-2.48952e-05
-0.000142918
-3.49334e-05
-0.00017011
-4.43951e-05
-0.000191121
-5.20131e-05
-0.000205936
-5.63336e-05
-0.000214624
-5.56429e-05
-0.000217357
-4.78756e-05
-0.000214482
-2.36967e-06
-2.37554e-05
-8.64944e-06
-6.43336e-05
-1.81243e-05
-0.000100194
-2.99707e-05
-0.000131072
-4.32726e-05
-0.000156808
-5.70209e-05
-0.000177373
-7.00968e-05
-0.00019286
-8.12386e-05
-0.000203482
-8.89971e-05
-0.000209598
-0.000211789
-2.65197e-06
-2.11034e-05
-9.78574e-06
-5.71999e-05
-2.07372e-05
-8.92423e-05
-3.47444e-05
-0.000117065
-5.09649e-05
-0.000140587
-6.84828e-05
-0.000159855
-8.63027e-05
-0.00017504
-0.000103336
-0.000186449
-0.000118384
-0.000194551
-2.93951e-06
-1.81639e-05
-1.0902e-05
-4.92374e-05
-2.32425e-05
-7.69019e-05
-3.9235e-05
-0.000101072
-5.80912e-05
-0.000121731
-7.8972e-05
-0.000138974
-0.000100994
-0.000153018
-0.000123233
-0.00016421
-0.000173058
-3.22021e-06
-1.49437e-05
-1.1963e-05
-4.04946e-05
-2.55805e-05
-6.32844e-05
-4.33661e-05
-8.32867e-05
-6.4572e-05
-0.000100525
-8.84263e-05
-0.00011512
-0.000114149
-0.000127296
-0.000140964
-0.000137394
-0.000145896
-3.47729e-06
-1.14664e-05
-1.29164e-05
-3.10555e-05
-2.76537e-05
-4.8547e-05
-4.69913e-05
-6.39492e-05
-7.0212e-05
-7.73047e-05
-9.66011e-05
-8.87307e-05
-0.000125468
-9.84286e-05
-0.00015617
-0.000106692
-0.000113924
-3.69201e-06
-7.77436e-06
-1.37023e-05
-2.10453e-05
-2.93469e-05
-3.29023e-05
-4.99302e-05
-4.33659e-05
-7.47576e-05
-5.24773e-05
-0.00010316
-6.03287e-05
-0.000134518
-6.70703e-05
-0.000168294
-7.29162e-05
-7.81533e-05
-3.84672e-06
-3.92765e-06
-1.42637e-05
-1.06283e-05
-3.05492e-05
-1.66169e-05
-5.20068e-05
-2.19082e-05
-7.79569e-05
-2.65272e-05
-0.000107761
-3.05242e-05
-0.000140852
-3.39792e-05
-0.000176764
-3.70049e-05
-3.92778e-06
-1.45564e-05
-3.11739e-05
-5.30829e-05
-7.96111e-05
-0.000110136
-0.000144117
-0.00402213
0.000607206
-0.00430996
0.000287836
-0.00454097
0.000231005
-0.00464475
0.000103784
-0.00474599
0.000101238
-0.00478045
3.44556e-05
-0.00482388
4.34345e-05
-0.00482732
3.4356e-06
-0.00483964
1.23182e-05
-0.00482638
-1.32566e-05
-0.00481944
-6.93588e-06
-0.00479573
-2.37096e-05
-0.00477558
-2.01546e-05
-0.00474431
-3.12699e-05
-3.02651e-05
-0.00400899
0.00121369
-0.00429745
0.000576293
-0.00452907
0.000462626
-0.00463396
0.000208671
-0.00473606
0.00020334
-0.00477165
7.00499e-05
-0.00481597
8.7757e-05
-0.00482052
7.9792e-06
-0.00483372
2.55191e-05
-0.00482155
-2.54235e-05
-0.00481553
-1.29569e-05
-0.00479286
-4.63831e-05
-0.00477363
-3.93785e-05
-0.00474337
-6.1537e-05
-5.95861e-05
-0.00398269
0.00181867
-0.00427245
0.000866048
-0.00450529
0.000695469
-0.00461239
0.000315767
-0.00471622
0.00030717
-0.00475408
0.000107918
-0.00480018
0.000133853
-0.00480694
1.47366e-05
-0.0048219
4.0486e-05
-0.00481191
-3.54183e-05
-0.00480772
-1.71497e-05
-0.00478711
-6.69897e-05
-0.00476975
-5.67422e-05
-0.00474148
-8.98026e-05
-8.70211e-05
-0.00394318
0.00242127
-0.00423502
0.00115789
-0.00446967
0.000930121
-0.00458009
0.000426186
-0.00468652
0.000413594
-0.00472779
0.00014919
-0.00477654
0.000182604
-0.00478661
2.48092e-05
-0.00480423
5.81054e-05
-0.00479748
-4.21713e-05
-0.00479602
-1.86034e-05
-0.0047785
-8.45083e-05
-0.00476393
-7.13185e-05
-0.00473866
-0.000115075
-0.000111632
-0.0038904
0.00302047
-0.00418527
0.00145275
-0.00442229
0.00116715
-0.00453715
0.000541042
-0.00464703
0.000523477
-0.00469283
0.000194986
-0.00474511
0.000234891
-0.00475959
3.92881e-05
-0.00478076
7.92674e-05
-0.0047783
-4.46305e-05
-0.00478049
-1.64135e-05
-0.00476706
-9.79299e-05
-0.0047562
-8.21848e-05
-0.0047349
-0.000136374
-0.000132486
-0.00382432
0.00361509
-0.00412328
0.00175172
-0.00436325
0.00140711
-0.00448366
0.000661449
-0.00459787
0.000637693
-0.0046493
0.000246413
-0.004706
0.000291588
-0.00472596
5.92489e-05
-0.00475156
0.000104868
-0.00475442
-4.17642e-05
-0.00476116
-9.68062e-06
-0.00475281
-0.000106271
-0.00474658
-8.8423e-05
-0.00473022
-0.000152731
-0.000148661
-0.00374493
0.0042037
-0.00404906
0.00205584
-0.00429268
0.00165074
-0.00441974
0.000788505
-0.00453916
0.000757121
-0.00459731
0.00030456
-0.00465929
0.000353568
-0.00468579
8.57468e-05
-0.00471673
0.00013581
-0.0047259
-3.25986e-05
-0.0047381
2.51903e-06
-0.00473578
-0.00010859
-0.00473509
-8.91099e-05
-0.00472463
-0.000163196
-0.000159242
-0.00365229
0.00478464
-0.00396265
0.00236619
-0.00421077
0.00189887
-0.00434555
0.000923283
-0.00447108
0.000882647
-0.00453701
0.000370491
-0.00460514
0.000421702
-0.00463921
0.000119813
-0.00467637
0.000172974
-0.00469293
-1.60428e-05
-0.00471126
2.08447e-05
-0.00471603
-0.00010382
-0.00472178
-8.33572e-05
-0.00471813
-0.000166841
-0.000163331
-0.00354656
0.00535597
-0.00386417
0.00268381
-0.00411776
0.00215246
-0.00426129
0.00106682
-0.00439381
0.00101516
-0.00446856
0.000445242
-0.00454371
0.000496852
-0.00458634
0.00016244
-0.00463061
0.000217247
-0.00465536
8.70987e-06
-0.0046809
4.63854e-05
-0.0046936
-9.11237e-05
-0.00470667
-7.02917e-05
-0.00471076
-0.000162749
-0.000160044
-0.00342803
0.0059155
-0.00375378
0.00300956
-0.00401393
0.00241262
-0.00416718
0.00122006
-0.00430759
0.00115558
-0.00439217
0.000529817
-0.00447518
0.000579861
-0.0045273
0.000214561
-0.00457966
0.000269607
-0.00461333
4.23846e-05
-0.00464702
8.00769e-05
-0.00466859
-6.95631e-05
-0.0046898
-4.90755e-05
-0.00470252
-0.000150034
-0.000148515
-0.00329717
0.00646047
-0.00363171
0.0033441
-0.00389969
0.00268059
-0.00406353
0.00138391
-0.00421272
0.00130477
-0.00430809
0.000625184
-0.00439977
0.000671535
-0.0044623
0.000277097
-0.00452344
0.000330744
-0.00456719
8.614e-05
-0.00460976
0.000122645
-0.00464105
-3.82765e-05
-0.00467123
-1.88935e-05
-0.00469343
-0.000127837
-0.000127897
-0.00315485
0.00698885
-0.00349831
0.00368756
-0.00377548
0.00295777
-0.00395078
0.00155921
-0.00410953
0.00146352
-0.00421664
0.000732291
-0.00431772
0.00077262
-0.00439155
0.000350931
-0.00446226
0.000401452
-0.00451692
0.000140794
-0.00456921
0.000174935
-0.00461108
3.59186e-06
-0.00465097
2.0999e-05
-0.00468352
-9.52885e-05
-9.73679e-05
-0.0030021
0.00749406
-0.00335372
0.00403918
-0.0036416
0.00324565
-0.00382911
0.00174672
-0.00399816
0.00163257
-0.00411797
0.000852097
-0.00422922
0.000883868
-0.00431523
0.000436943
-0.0043963
0.000482525
-0.00446266
0.000207148
-0.00452558
0.000237863
-0.00457861
5.66163e-05
-0.00462911
7.15066e-05
-0.00467282
-5.15866e-05
-5.61394e-05
-0.00284332
0.00798267
-0.00319959
0.00439544
-0.00349926
0.00354533
-0.00369956
0.00194702
-0.00387933
0.00181234
-0.00401266
0.000985428
-0.00413471
0.00100591
-0.00423367
0.000535903
-0.00432582
0.00057468
-0.00440464
0.000285963
-0.00447881
0.00031204
-0.00454397
0.000121773
-0.00460575
0.000133285
-0.00466136
4.0231e-06
-3.45344e-06
-0.0026935
0.00842879
-0.00305175
0.0047537
-0.00336217
0.00385575
-0.00357237
0.00215721
-0.00376238
0.00200235
-0.00390556
0.0011286
-0.00403936
0.00113971
-0.00414895
0.000645494
-0.00425359
0.000679318
-0.00434365
0.000376029
-0.00443049
0.000398883
-0.0045072
0.000198478
-0.00458171
0.000207799
-0.00464894
7.12537e-05
6.16481e-05
-0.0265713
0.00748685
0.0275133
-0.025986
0.00416833
-0.0265256
0.0043954
-0.0266937
0.00232527
-0.0272152
0.00252393
-0.0274113
0.00132468
-0.0277847
0.00151304
-0.0279209
0.000781695
-0.0281751
0.000933587
-0.0282546
0.000455507
-0.0284228
0.000567054
-0.028458
0.000233653
-0.0285592
0.000309009
-0.0285503
6.23635e-05
9.71642e-05
-0.0275983
0.00624947
0.0288357
-0.0274229
0.00399287
-0.0272325
0.00420501
-0.0273684
0.00246118
-0.0275552
0.00271077
-0.0277261
0.00149552
-0.0279478
0.00173472
-0.0280685
0.000902398
-0.0282464
0.00111154
-0.0283198
0.000528859
-0.028447
0.000694294
-0.0284834
0.000270048
-0.0285614
0.000386965
-0.0285569
5.79156e-05
0.000126041
-0.0285453
0.00524138
0.0295534
-0.0282818
0.0037293
-0.0279334
0.0038566
-0.0279629
0.00249072
-0.0279222
0.00267011
-0.0280478
0.00162105
-0.0281123
0.00179921
-0.0282352
0.00102536
-0.028313
0.00118932
-0.0284043
0.00062017
-0.0284655
0.000755501
-0.028521
0.000325483
-0.0285546
0.000420592
-0.0285764
7.97331e-05
0.000135419
-0.02918
0.00443794
0.0299835
-0.0288417
0.00339101
-0.0284531
0.00346797
-0.0284059
0.00244351
-0.0282589
0.00252311
-0.0283199
0.00168207
-0.0282936
0.0017729
-0.0283838
0.00111561
-0.0283974
0.00120287
-0.0284766
0.000699342
-0.0284943
0.000773211
-0.0285491
0.000380288
-0.0285573
0.000428856
-0.0285891
0.00011145
0.00013215
-0.0295552
0.00379858
0.0301946
-0.0292027
0.00303847
-0.0288308
0.00309616
-0.0287104
0.00232309
-0.0285328
0.00234553
-0.0285292
0.00167839
-0.0284584
0.00170218
-0.0285026
0.0011598
-0.0284818
0.00118207
-0.0285335
0.000751038
-0.0285283
0.00076795
-0.02857
0.000421978
-0.028566
0.000424914
-0.0285945
0.000139907
0.000123462
-0.0297585
0.00327093
0.0302861
-0.0294246
0.00270456
-0.0290861
0.00275773
-0.028925
0.002162
-0.0287388
0.00215925
-0.0286868
0.00162639
-0.028594
0.00160942
-0.0285965
0.00116226
-0.0285559
0.00114152
-0.0285789
0.000773998
-0.0285606
0.000749637
-0.0285856
0.000446998
-0.0285754
0.000414754
-0.0285956
0.000160113
0.000113618
-0.0298563
0.00283011
0.0302972
-0.0295519
0.00240018
-0.0292466
0.00245242
-0.0290703
0.0019857
-0.0288847
0.00197361
-0.0288015
0.00154322
-0.0286983
0.0015062
-0.0286694
0.00113339
-0.028616
0.0010881
-0.0286151
0.000773106
-0.0285881
0.00072257
-0.0285977
0.000456676
-0.0285835
0.000400514
-0.0285952
0.000171787
0.000104236
-0.0298855
0.00245856
0.030257
-0.0296126
0.00212737
-0.0293387
0.00217847
-0.0291614
0.00180841
-0.0289818
0.00179403
-0.0288817
0.00144307
-0.0287732
0.00139777
-0.0287243
0.00108442
-0.0286621
0.00102592
-0.0286435
0.000754467
-0.0286099
0.000688999
-0.0286072
0.000454015
-0.0285898
0.000383053
-0.0285944
0.000176396
9.56546e-05
-0.0298693
0.00214285
0.0301851
-0.0296268
0.00188477
-0.0293822
0.00193392
-0.0292114
0.00163761
-0.0290412
0.00162385
-0.0289336
0.00133545
-0.0288238
0.00128801
-0.0287626
0.00102315
-0.0286956
0.000958937
-0.0286646
0.000723456
-0.0286263
0.000650683
-0.0286144
0.000442128
-0.0285944
0.00036304
-0.0285937
0.000175688
8.77842e-05
-0.0298243
0.0018728
0.0300943
-0.0296093
0.00166979
-0.0293917
0.00171631
-0.0292311
0.00147707
-0.0290722
0.00146497
-0.0289632
0.00122643
-0.0288552
0.00117999
-0.0287872
0.000955106
-0.0287181
0.000889831
-0.0286793
0.000684702
-0.0286379
0.00060923
-0.0286194
0.000423717
-0.0285976
0.000341196
-0.0285931
0.000171178
8.04773e-05
-0.0297613
0.00164047
0.0299936
-0.029571
0.00147958
-0.0293777
0.00152301
-0.0292291
0.00132846
-0.0290824
0.00131822
-0.0289758
0.00111982
-0.0288717
0.00107594
-0.0288009
0.000884243
-0.0287316
0.00082057
-0.0286884
0.000641486
-0.0286455
0.000566299
-0.0286227
0.00040096
-0.0285998
0.000318253
-0.0285926
0.000164053
7.36344e-05
-0.029688
0.00143963
0.0298889
-0.0295198
0.00131136
-0.0293483
0.00135144
-0.0292121
0.00119226
-0.0290776
0.00118375
-0.0289757
0.00101791
-0.028877
0.000977276
-0.0288061
0.000813312
-0.0287382
0.000752707
-0.0286928
0.000596089
-0.0286497
0.000523204
-0.0286244
0.000375658
-0.028601
0.000294873
-0.0285922
0.000155217
6.7209e-05
-0.0296099
0.00126532
0.0297842
-0.0294611
0.00116259
-0.0293089
0.00119924
-0.0291849
0.00106829
-0.0290624
0.00106125
-0.0289665
0.000922017
-0.0288741
0.000884835
-0.0288049
0.000744162
-0.0287396
0.000687383
-0.0286937
0.000550209
-0.0286514
0.000480839
-0.0286249
0.000349195
-0.0286017
0.000271663
-0.0285918
0.000145345
6.11858e-05
-0.0295304
0.00111355
0.0296822
-0.0293988
0.00103096
-0.0292638
0.0010642
-0.0291515
0.000955988
-0.0290404
0.000950134
-0.0289511
0.000832787
-0.0288653
0.000799011
-0.0287991
0.000677992
-0.0287371
0.000625364
-0.028692
0.000505069
-0.028651
0.000439895
-0.0286243
0.000322484
-0.0286018
0.000249097
-0.0285914
0.000135015
5.55475e-05
-0.0294522
0.000980996
0.0295847
-0.0293357
0.000914467
-0.0292159
0.000944393
-0.0291145
0.000854615
-0.0290141