/*--------------------------------*- C++ -*----------------------------------*\
  =========                 |
  \\      /  F ield         | OpenFOAM: The Open Source CFD Toolbox
   \\    /   O peration     | Website:  https://openfoam.org
    \\  /    A nd           | Version:  7
     \\/     M anipulation  |
\*---------------------------------------------------------------------------*/
FoamFile
{
    version     2.0;
    format      ascii;
    class       volScalarField;
    location    "30";
    object      p;
}
// * * * * * * * * * * * * * * * * * * * * * * * * * * * * * * * * * * * * * //

dimensions      [0 2 -2 0 0 0 0];

internalField   nonuniform List<scalar> 
1360
(
-0.0211245
-0.0218266
-0.0225366
-0.0232695
-0.0240023
-0.0247191
-0.0254062
-0.0260531
-0.0266523
-0.0271992
-0.0276913
-0.028128
-0.0285099
-0.0288385
-0.0291154
-0.0293427
-0.029522
-0.029655
-0.0297429
-0.0297866
-0.0203392
-0.0210291
-0.0217276
-0.0224496
-0.0231728
-0.0238812
-0.0245616
-0.0252033
-0.0257988
-0.0263432
-0.026834
-0.0272702
-0.0276524
-0.0279816
-0.0282595
-0.0284877
-0.028668
-0.0288018
-0.0288903
-0.0289343
-0.0195768
-0.0202542
-0.0209409
-0.0216516
-0.0223645
-0.0230639
-0.0237368
-0.0243725
-0.0249635
-0.0255046
-0.0259933
-0.0264283
-0.0268099
-0.0271391
-0.0274173
-0.027646
-0.0278268
-0.0279612
-0.0280501
-0.0280943
-0.0188366
-0.0195012
-0.0201757
-0.0208747
-0.0215767
-0.0222666
-0.0229313
-0.0235603
-0.024146
-0.0246831
-0.0251689
-0.025602
-0.0259824
-0.0263109
-0.0265889
-0.0268176
-0.0269986
-0.0271331
-0.0272222
-0.0272665
-0.0181176
-0.0187692
-0.0194314
-0.0201182
-0.020809
-0.0214887
-0.0221447
-0.0227663
-0.0233459
-0.0238784
-0.0243605
-0.024791
-0.0251696
-0.0254969
-0.0257741
-0.0260024
-0.0261832
-0.0263176
-0.0264067
-0.0264511
-0.017419
-0.0180575
-0.018707
-0.0193814
-0.0200606
-0.0207297
-0.0213763
-0.02199
-0.022563
-0.02309
-0.0235679
-0.0239951
-0.0243713
-0.0246968
-0.0249728
-0.0252003
-0.0253806
-0.0255147
-0.0256036
-0.0256478
-0.0167401
-0.0173653
-0.018002
-0.0186637
-0.0193308
-0.019989
-0.0206258
-0.0212309
-0.0217967
-0.0223177
-0.0227908
-0.0232141
-0.0235873
-0.0239106
-0.0241849
-0.0244112
-0.0245906
-0.0247242
-0.0248127
-0.0248568
-0.0160801
-0.0166919
-0.0173156
-0.0179644
-0.0186193
-0.019266
-0.0198925
-0.0204886
-0.0210466
-0.0215612
-0.0220288
-0.0224478
-0.0228175
-0.0231381
-0.0234103
-0.023635
-0.0238133
-0.023946
-0.0240341
-0.024078
-0.0154382
-0.0160366
-0.0166472
-0.017283
-0.0179253
-0.0185603
-0.0191761
-0.0197628
-0.0203125
-0.02082
-0.0212818
-0.0216959
-0.0220617
-0.0223791
-0.0226488
-0.0228716
-0.0230484
-0.0231802
-0.0232676
-0.0233111
-0.0148139
-0.0153987
-0.0159963
-0.0166188
-0.0172483
-0.0178713
-0.0184761
-0.0190529
-0.019594
-0.020094
-0.0205494
-0.0209582
-0.0213195
-0.0216334
-0.0219002
-0.0221208
-0.0222959
-0.0224265
-0.0225131
-0.0225563
-0.0142064
-0.0147777
-0.0153621
-0.0159713
-0.0165878
-0.0171986
-0.0177921
-0.0183586
-0.0188905
-0.0193826
-0.0198312
-0.0202343
-0.0205908
-0.0209007
-0.0211644
-0.0213824
-0.0215556
-0.0216848
-0.0217705
-0.0218133
-0.0136151
-0.014173
-0.0147441
-0.0153399
-0.0159433
-0.0165416
-0.0171235
-0.0176794
-0.0182019
-0.0186857
-0.0191271
-0.019524
-0.0198754
-0.020181
-0.0204411
-0.0206563
-0.0208274
-0.020955
-0.0210397
-0.0210819
-0.0130395
-0.0135839
-0.0141418
-0.0147241
-0.0153143
-0.0158999
-0.0164699
-0.017015
-0.0175278
-0.0180029
-0.0184367
-0.0188271
-0.0191729
-0.0194738
-0.0197302
-0.0199423
-0.020111
-0.0202369
-0.0203205
-0.0203622
-0.0124789
-0.0130099
-0.0135547
-0.0141235
-0.0147003
-0.0152731
-0.015831
-0.016365
-0.0168677
-0.0173338
-0.0177597
-0.0181432
-0.0184831
-0.0187791
-0.0190314
-0.0192402
-0.0194064
-0.0195303
-0.0196127
-0.0196537
-0.0119329
-0.0124506
-0.0129822
-0.0135374
-0.0141009
-0.0146607
-0.0152064
-0.015729
-0.0162213
-0.0166781
-0.0170958
-0.0174721
-0.0178059
-0.0180966
-0.0183445
-0.0185498
-0.0187132
-0.0188351
-0.0189162
-0.0189565
-0.0114008
-0.0119054
-0.0124239
-0.0129656
-0.0135156
-0.0140623
-0.0145956
-0.0151066
-0.0155883
-0.0160355
-0.0164447
-0.0168135
-0.0171408
-0.0174261
-0.0176693
-0.0178709
-0.0180313
-0.0181511
-0.0182307
-0.0182703
-0.0108824
-0.0113738
-0.0118793
-0.0124075
-0.012944
-0.0134776
-0.0139983
-0.0144975
-0.0149683
-0.0154057
-0.0158061
-0.0161672
-0.0164877
-0.0167672
-0.0170056
-0.0172032
-0.0173605
-0.017478
-0.017556
-0.017595
-0.010377
-0.0108555
-0.0113479
-0.0118627
-0.0123857
-0.012906
-0.013414
-0.0139013
-0.0143611
-0.0147884
-0.0151797
-0.0155328
-0.0158463
-0.0161198
-0.0163531
-0.0165466
-0.0167006
-0.0168156
-0.0168921
-0.0169302
-0.0098843
-0.0103499
-0.0108295
-0.0113308
-0.0118403
-0.0123474
-0.0128425
-0.0133177
-0.0137662
-0.0141832
-0.0145652
-0.01491
-0.0152163
-0.0154835
-0.0157115
-0.0159007
-0.0160512
-0.0161637
-0.0162385
-0.0162758
-0.00940382
-0.00985671
-0.0103235
-0.0108115
-0.0113075
-0.0118012
-0.0122834
-0.0127463
-0.0131834
-0.0135899
-0.0139624
-0.0142986
-0.0145974
-0.0148581
-0.0150807
-0.0152653
-0.0154123
-0.0155221
-0.0155951
-0.0156315
-0.00893518
-0.00937551
-0.00982966
-0.0103043
-0.0107868
-0.0112671
-0.0117364
-0.0121869
-0.0126123
-0.0130081
-0.0133708
-0.0136984
-0.0139894
-0.0142434
-0.0144603
-0.0146402
-0.0147835
-0.0148905
-0.0149616
-0.0149971
-0.00847803
-0.00890595
-0.00934754
-0.00980897
-0.010278
-0.0107449
-0.0112011
-0.011639
-0.0120527
-0.0124376
-0.0127903
-0.0131089
-0.013392
-0.0136391
-0.0138501
-0.0140251
-0.0141645
-0.0142686
-0.0143379
-0.0143724
-0.00803201
-0.0084477
-0.00887685
-0.00932514
-0.0097807
-0.0102342
-0.0106772
-0.0111025
-0.0115042
-0.011878
-0.0122205
-0.0125299
-0.0128049
-0.0130448
-0.0132497
-0.0134197
-0.0135551
-0.0136563
-0.0137235
-0.013757
-0.00759681
-0.00800043
-0.00841727
-0.00885249
-0.00929465
-0.00973467
-0.0101645
-0.010577
-0.0109666
-0.011329
-0.0116612
-0.0119612
-0.0122277
-0.0124604
-0.012659
-0.0128238
-0.0129551
-0.0130531
-0.0131183
-0.0131508
-0.00717212
-0.00756385
-0.00796851
-0.00839076
-0.00881953
-0.00924608
-0.00966256
-0.0100622
-0.0104395
-0.0107905
-0.011112
-0.0114024
-0.0116604
-0.0118855
-0.0120777
-0.0122371
-0.0123641
-0.0124589
-0.012522
-0.0125534
-0.00675765
-0.00713769
-0.0075303
-0.00793966
-0.00835509
-0.00876813
-0.00917122
-0.00955783
-0.00992273
-0.010262
-0.0105727
-0.0108532
-0.0111024
-0.0113198
-0.0115054
-0.0116593
-0.0117818
-0.0118734
-0.0119342
-0.0119646
-0.00635316
-0.00672169
-0.00710239
-0.00749894
-0.00790107
-0.00830058
-0.0086902
-0.00906365
-0.00941594
-0.00974328
-0.010043
-0.0103135
-0.0105536
-0.0107631
-0.0109418
-0.0110901
-0.0112081
-0.0112962
-0.0113548
-0.011384
-0.0059584
-0.00631562
-0.00668454
-0.00706839
-0.00745723
-0.00784317
-0.00821923
-0.00857939
-0.00891888
-0.00923412
-0.00952261
-0.00978276
-0.0100137
-0.010215
-0.0103868
-0.0105291
-0.0106425
-0.0107271
-0.0107833
-0.0108113
-0.00557316
-0.00591927
-0.00627656
-0.00664777
-0.00702335
-0.00739569
-0.00775808
-0.00810479
-0.00843129
-0.00873421
-0.00901122
-0.00926084
-0.00948229
-0.00967527
-0.00983982
-0.00997618
-0.0100847
-0.0101657
-0.0102195
-0.0102464
-0.00519725
-0.00553246
-0.00587825
-0.00623692
-0.00659924
-0.00695792
-0.00730652
-0.00763962
-0.00795292
-0.00824329
-0.00850857
-0.00874742
-0.00895916
-0.00914357
-0.00930072
-0.00943091
-0.00953447
-0.00961176
-0.00966311
-0.0096887
-0.0048305
-0.00515502
-0.00548946
-0.00583565
-0.00618472
-0.00652966
-0.00686434
-0.00718363
-0.00748352
-0.00776108
-0.00801437
-0.00824219
-0.00844397
-0.00861958
-0.00876915
-0.00889298
-0.00899145
-0.00906492
-0.00911372
-0.00913804
-0.00447278
-0.00478683
-0.00511005
-0.00544383
-0.00577962
-0.00611073
-0.00643134
-0.00673661
-0.00702283
-0.00728732
-0.00752833
-0.00774485
-0.00793642
-0.00810299
-0.00824476
-0.00836207
-0.0084553
-0.00852485
-0.00857103
-0.00859405
-0.00412397
-0.00442778
-0.00473992
-0.00506132
-0.00538382
-0.00570098
-0.00600733
-0.00629835
-0.00657062
-0.00682174
-0.00705018
-0.0072551
-0.00743619
-0.00759348
-0.00772723
-0.00783783
-0.00792569
-0.0079912
-0.0080347
-0.00805637
-0.00378398
-0.00407779
-0.00437896
-0.00468804
-0.00499717
-0.00530025
-0.00559213
-0.00586862
-0.00612664
-0.00636407
-0.00657962
-0.00677264
-0.00694295
-0.0070907
-0.00721622
-0.00731993
-0.00740227
-0.00746363
-0.00750437
-0.00752466
-0.00345278
-0.00373681
-0.00402715
-0.00432392
-0.00461961
-0.00490842
-0.00518557
-0.00544724
-0.00569067
-0.00591406
-0.00611636
-0.00629714
-0.00645637
-0.00659431
-0.00671137
-0.006808
-0.00688467
-0.00694178
-0.00697967
-0.00699855
-0.00313034
-0.00340484
-0.00368445
-0.00396891
-0.00425103
-0.00452538
-0.00478751
-0.005034
-0.00526246
-0.00547142
-0.0056601
-0.00582829
-0.00597612
-0.00610397
-0.00621232
-0.00630167
-0.00637252
-0.00642526
-0.00646025
-0.00647768
-0.0028167
-0.00308191
-0.00335089
-0.003623
-0.00389141
-0.00415102
-0.00439779
-0.00462871
-0.00484179
-0.00503588
-0.00521053
-0.00536574
-0.00550184
-0.0056193
-0.0057187
-0.00580058
-0.00586545
-0.00591372
-0.00594572
-0.00596166
-0.00251192
-0.00276809
-0.00302651
-0.00328622
-0.00354072
-0.00378528
-0.0040163
-0.0042312
-0.00442841
-0.00460717
-0.00476734
-0.00490917
-0.00503316
-0.00513994
-0.00523013
-0.00530433
-0.00536306
-0.00540674
-0.0054357
-0.00545012
-0.00221612
-0.00246349
-0.00271142
-0.00295861
-0.00319895
-0.0034281
-0.00364291
-0.00384128
-0.00402209
-0.00418501
-0.00433021
-0.00445821
-0.00456972
-0.00466548
-0.00474621
-0.00481252
-0.00486496
-0.00490394
-0.00492978
-0.00494264
-0.00192949
-0.00216828
-0.00240575
-0.00264028
-0.00286614
-0.00307944
-0.0032775
-0.00345876
-0.00362259
-0.00376908
-0.00389878
-0.0040125
-0.00411112
-0.00419553
-0.00426652
-0.00432475
-0.00437074
-0.00440491
-0.00442756
-0.00443884
-0.00165226
-0.00188269
-0.00210969
-0.00233135
-0.00254235
-0.00273927
-0.00291998
-0.00308347
-0.00322965
-0.00335909
-0.00347272
-0.00357164
-0.00365696
-0.00372967
-0.00379065
-0.00384057
-0.00387997
-0.00390923
-0.00392862
-0.00393829
-0.00138473
-0.001607
-0.00182348
-0.002032
-0.00222767
-0.00240759
-0.00257024
-0.00271522
-0.00284302
-0.00295471
-0.00305165
-0.00313523
-0.00320679
-0.00326746
-0.00331815
-0.00335957
-0.00339222
-0.00341647
-0.00343255
-0.00344059
-0.00112727
-0.00134156
-0.00154743
-0.00174245
-0.00192223
-0.00208443
-0.0022282
-0.00235382
-0.00246241
-0.0025556
-0.00263516
-0.00270285
-0.00276018
-0.00280843
-0.00284856
-0.00288127
-0.00290705
-0.0029262
-0.0029389
-0.0029453
-0.000880319
-0.00108679
-0.00128189
-0.00146298
-0.00162618
-0.00176982
-0.00189377
-0.00199907
-0.00208754
-0.00216139
-0.00222285
-0.00227403
-0.00231665
-0.00235211
-0.00238141
-0.00240523
-0.002424
-0.00243796
-0.00244725
-0.00245201
-0.000644601
-0.000843019
-0.00102694
-0.00119347
-0.00133928
-0.00146341
-0.00156653
-0.00165049
-0.00171787
-0.00177148
-0.0018141
-0.00184814
-0.00187558
-0.00189789
-0.0019161
-0.00193086
-0.00194252
-0.00195123
-0.00195706
-0.0019602
-0.000420359
-0.00061104
-0.0007834
-0.000934474
-0.00106173
-0.00116505
-0.00124603
-0.00130741
-0.00135256
-0.00138499
-0.00140795
-0.00142424
-0.00143601
-0.00144485
-0.00145176
-0.00145733
-0.00146181
-0.00146524
-0.00146755
-0.00146927
-0.000201336
-0.000397367
-0.000566106
-0.000705458
-0.00081479
-0.000895904
-0.000952187
-0.000987943
-0.00100779
-0.00101618
-0.00101702
-0.0010135
-0.00100797
-0.00100207
-0.000996742
-0.000992442
-0.000989278
-0.000987136
-0.000985733
-0.000986157
3.82774e-06
-0.000196534
-0.000363424
-0.000494421
-0.000589594
-0.000651731
-0.000685486
-0.00069655
-0.000690899
-0.000674184
-0.00065129
-0.000626102
-0.000601435
-0.000579109
-0.000560113
-0.000544805
-0.00053313
-0.000524812
-0.00051917
-0.000514061
-0.021355
-0.0205579
-0.0197845
-0.0190341
-0.0183057
-0.0175984
-0.0169113
-0.0162438
-0.0155951
-0.0149644
-0.014351
-0.0137544
-0.0131738
-0.0126087
-0.0120585
-0.0115227
-0.0110008
-0.0104923
-0.00999671
-0.00951362
-0.00904262
-0.00858331
-0.00813533
-0.00769833
-0.00727198
-0.00685598
-0.00645005
-0.00605391
-0.00566734
-0.00529011
-0.00492201
-0.00456288
-0.00421256
-0.00387092
-0.00353787
-0.00321335
-0.00289731
-0.00258977
-0.00229077
-0.00200042
-0.00171887
-0.00144635
-0.00118317
-0.000929681
-0.00068643
-0.000454798
-0.000234501
-3.58537e-06
0.000211177
-0.0204511
-0.019685
-0.0189417
-0.0182204
-0.0175202
-0.0168401
-0.0161795
-0.0155376
-0.0149136
-0.0143069
-0.0137167
-0.0131425
-0.0125837
-0.0120396
-0.0115098
-0.0109938
-0.010491
-0.010001
-0.0095233
-0.00905757
-0.00860337
-0.00816033
-0.0077281
-0.00730635
-0.00689475
-0.00649302
-0.00610089
-0.00571808
-0.00534437
-0.00497954
-0.00462339
-0.00427573
-0.00393641
-0.0036053
-0.00328228
-0.00296726
-0.00266019
-0.00236106
-0.00206987
-0.0017867
-0.00151166
-0.00124494
-0.000986825
-0.000737625
-0.000497963
-0.000270041
-5.23913e-05
0.000195335
0.000419352
-0.020482
-0.0197172
-0.0189754
-0.0182557
-0.0175573
-0.0168792
-0.0162207
-0.015581
-0.0149592
-0.0143549
-0.0137671
-0.0131954
-0.0126391
-0.0120976
-0.0115703
-0.0110569
-0.0105566
-0.0100692
-0.00959406
-0.00913083
-0.0086791
-0.00823847
-0.00780859
-0.00738911
-0.0069797
-0.00658006
-0.0061899
-0.00580895
-0.00543694
-0.00507365
-0.00471884
-0.00437231
-0.00403387
-0.00370334
-0.00338058
-0.00306545
-0.00275782
-0.00245761
-0.00216474
-0.0018792
-0.00160096
-0.00133009
-0.00106668
-0.0008109
-0.000562906
-0.000323308
-9.51031e-05
0.000125726
0.000402327
0.000642639
-0.0198561
-0.019112
-0.0183903
-0.0176901
-0.0170105
-0.0163507
-0.0157099
-0.0150874
-0.0144823
-0.0138941
-0.013322
-0.0127655
-0.0122239
-0.0116967
-0.0111833
-0.0106832
-0.010196
-0.0097212
-0.00925832
-0.00880697
-0.00836675
-0.00793728
-0.00751821
-0.00710921
-0.00670994
-0.00632011
-0.00593944
-0.00556764
-0.00520446
-0.00484965
-0.00450299
-0.00416426
-0.00383326
-0.00350978
-0.00319366
-0.00288473
-0.00258283
-0.00228782
-0.00199957
-0.00171799
-0.00144298
-0.00117448
-0.00091247
-0.000656932
-0.000407783
-0.000165567
6.59117e-05
0.00029423
0.000607918
0.000868646
-0.0193493
-0.0186221
-0.0179168
-0.0172326
-0.0165684
-0.0159235
-0.0152972
-0.0146887
-0.0140972
-0.0135221
-0.0129628
-0.0124186
-0.011889
-0.0113734
-0.0108713
-0.0103821
-0.00990551
-0.00944095
-0.00898802
-0.00854631
-0.00811544
-0.00769503
-0.00728473
-0.00688422
-0.00649317
-0.00611129
-0.00573828
-0.00537388
-0.00501781
-0.00466985
-0.00432973
-0.00399724
-0.00367216
-0.00335427
-0.00304338
-0.00273927
-0.00244176
-0.00215066
-0.00186578
-0.00158693
-0.00131393
-0.00104659
-0.000784739
-0.000528163
-0.000276483
-3.01722e-05
0.000206182
0.00044429
0.000798111
0.00108004
-0.0189707
-0.0182562
-0.0175632
-0.0168908
-0.0162382
-0.0156045
-0.014989
-0.0143909
-0.0138096
-0.0132443
-0.0126945
-0.0121596
-0.0116389
-0.011132
-0.0106383
-0.0101573
-0.00968862
-0.00923174
-0.00878624
-0.00835175
-0.00792786
-0.00751423
-0.00711049
-0.00671633
-0.00633142
-0.00595547
-0.00558819
-0.0052293
-0.00487854
-0.00453566
-0.0042004
-0.00387254
-0.00355183
-0.00323805
-0.00293097
-0.00263035
-0.00233598
-0.0020476
-0.00176498
-0.00148786
-0.00121595
-0.000948966
-0.000686581
-0.000428379
-0.000173701
7.70353e-05
0.000318557
0.000566647
0.000957851
0.00125875
-0.0194476
-0.0187194
-0.0180134
-0.0173285
-0.016664
-0.016019
-0.0153928
-0.0147844
-0.0141933
-0.0136187
-0.01306
-0.0125165
-0.0119877
-0.011473
-0.0109718
-0.0104837
-0.0100082
-0.00954472
-0.00909293
-0.00865238
-0.00822268
-0.00780343
-0.00739429
-0.00699492
-0.00660497
-0.00622414
-0.00585212
-0.00548864
-0.00513341
-0.00478617
-0.00444665
-0.00411461
-0.0037898
-0.00347197
-0.00316088
-0.00285628
-0.00255793
-0.00226556
-0.0019789
-0.00169766
-0.00142152
-0.00115013
-0.000883113
-0.000620027
-0.0003603
-0.000103051
0.000151341
0.00039709
0.000653254
0.00107332
0.0013884
-0.019318
-0.0185941
-0.0178923
-0.0172115
-0.016551
-0.0159098
-0.0152872
-0.0146825
-0.0140948
-0.0135236
-0.0129681
-0.0124278
-0.011902
-0.0113903
-0.010892
-0.0104067
-0.00993384
-0.00947301
-0.00902376
-0.00858568
-0.00815836
-0.00774144
-0.00733454
-0.00693733
-0.00654949
-0.00617069
-0.00580064
-0.00543905
-0.00508564
-0.00474015
-0.00440231
-0.00407187
-0.00374857
-0.00343217
-0.00312241
-0.00281904
-0.0025218
-0.0022304
-0.00194457
-0.00166397
-0.00138827
-0.00111708
-0.000849964
-0.000586421
-0.000325792
-6.70746e-05
0.000189368
0.000437476
0.000698139
0.00113393
0.00145658
)
;

boundaryField
{
    inlet
    {
        type            zeroGradient;
    }
    outlet
    {
        type            fixedValue;
        value           uniform 0;
    }
    cylinder
    {
        type            zeroGradient;
    }
    top
    {
        type            symmetryPlane;
    }
    bottom
    {
        type            symmetryPlane;
    }
    defaultFaces
    {
        type            empty;
    }
    procBoundary3to2
    {
        type            processor;
        value           nonuniform List<scalar> 
30
(
-0.0219338
-0.0219338
-0.0226477
-0.0233688
-0.024112
-0.0248539
-0.0255781
-0.0262712
-0.0269224
-0.0275245
-0.0280728
-0.0285654
-0.0290017
-0.0293827
-0.0297099
-0.0299853
-0.030211
-0.0303889
-0.0305207
-0.0306079
-0.0306511
-0.022177
-0.021241
-0.021241
-0.0212709
-0.0206236
-0.0200993
-0.0197076
-0.0197076
-0.0201989
)
;
    }
    procBoundary3to6
    {
        type            processor;
        value           uniform -0.0200648;
    }
    procBoundary3to7
    {
        type            processor;
        value           nonuniform List<scalar> 
51
(
-0.019318
-0.0185941
-0.0178923
-0.0172115
-0.016551
-0.0159098
-0.0152872
-0.0146825
-0.0140948
-0.0135236
-0.0129681
-0.0124278
-0.011902
-0.0113903
-0.010892
-0.0104067
-0.00993384
-0.00947301
-0.00902376
-0.00858568
-0.00815836
-0.00774143
-0.00733454
-0.00693733
-0.00654949
-0.00617069
-0.00580064
-0.00543905
-0.00508564
-0.00474015
-0.00440231
-0.00407187
-0.00374857
-0.00343217
-0.00312241
-0.00281904
-0.0025218
-0.0022304
-0.00194457
-0.00166397
-0.00138827
-0.00111708
-0.000849964
-0.000586421
-0.000325792
-6.70747e-05
0.000189368
0.000437477
0.00069814
0.00113393
0.00145658
)
;
    }
}


// ************************************************************************* //
