/*--------------------------------*- C++ -*----------------------------------*\
  =========                 |
  \\      /  F ield         | OpenFOAM: The Open Source CFD Toolbox
   \\    /   O peration     | Website:  https://openfoam.org
    \\  /    A nd           | Version:  7
     \\/     M anipulation  |
\*---------------------------------------------------------------------------*/
FoamFile
{
    version     2.0;
    format      ascii;
    class       volScalarField;
    location    "100";
    object      p;
}
// * * * * * * * * * * * * * * * * * * * * * * * * * * * * * * * * * * * * * //

dimensions      [0 2 -2 0 0 0 0];

internalField   nonuniform List<scalar> 
3500
(
-0.196389
-0.195102
-0.193851
-0.192568
-0.191176
-0.189594
-0.187748
-0.185615
-0.183154
-0.180338
-0.177149
-0.173574
-0.169627
-0.165355
-0.160824
-0.156117
-0.151333
-0.146589
-0.142009
-0.137725
-0.133862
-0.13054
-0.127869
-0.125923
-0.124734
-0.124369
-0.124827
-0.12605
-0.127967
-0.130396
-0.133171
-0.136084
-0.139
-0.141739
-0.144104
-0.145908
-0.14699
-0.147227
-0.146538
-0.14491
-0.142295
-0.138728
-0.134266
-0.129008
-0.12308
-0.116618
-0.10977
-0.102679
-0.0954835
-0.0883091
-0.081268
-0.0744567
-0.0679567
-0.0618369
-0.0561561
-0.0509671
-0.0463194
-0.0422624
-0.0388456
-0.0361176
-0.0341226
-0.0328944
-0.0324489
-0.0327768
-0.033837
-0.0355535
-0.0378152
-0.0404816
-0.0433909
-0.0463708
-0.0492502
-0.0518693
-0.0540882
-0.0557927
-0.0568976
-0.0573471
-0.0571128
-0.0561927
-0.0546111
-0.0524031
-0.0496181
-0.0463147
-0.0425577
-0.038408
-0.0339331
-0.0291781
-0.0242153
-0.0190487
-0.0137779
-0.00833584
-0.00281855
-0.173461
-0.170129
-0.167036
-0.164149
-0.161425
-0.158804
-0.156222
-0.153647
-0.151155
-0.148667
-0.146155
-0.143604
-0.141025
-0.138464
-0.135971
-0.133589
-0.131385
-0.129444
-0.127853
-0.126727
-0.126134
-0.126146
-0.126882
-0.12839
-0.130444
-0.133309
-0.136798
-0.140821
-0.145238
-0.149861
-0.154503
-0.158972
-0.163063
-0.166579
-0.169332
-0.171152
-0.171898
-0.171471
-0.1699
-0.167077
-0.16306
-0.157915
-0.151746
-0.144689
-0.136904
-0.128563
-0.119841
-0.110908
-0.101923
-0.093028
-0.0843425
-0.0759668
-0.0679807
-0.0604457
-0.0534089
-0.0469071
-0.0409716
-0.0356324
-0.0309213
-0.0268739
-0.0235283
-0.0209209
-0.0190818
-0.018027
-0.0177516
-0.0182233
-0.0193781
-0.0211196
-0.0233228
-0.0258412
-0.0285167
-0.0311902
-0.0337116
-0.0359483
-0.0377908
-0.0391553
-0.0399852
-0.0402509
-0.0399437
-0.0390755
-0.0376658
-0.0357494
-0.0333713
-0.0305771
-0.0274172
-0.0239267
-0.0201607
-0.0161175
-0.0118879
-0.0073592
-0.00271401
-0.152162
-0.146865
-0.141988
-0.13753
-0.133478
-0.12981
-0.126489
-0.123471
-0.120784
-0.118543
-0.116601
-0.114937
-0.113524
-0.112485
-0.111911
-0.111695
-0.111902
-0.112598
-0.113782
-0.115619
-0.118191
-0.12125
-0.125073
-0.129615
-0.134767
-0.140464
-0.146591
-0.153008
-0.159539
-0.165989
-0.172152
-0.177814
-0.182763
-0.186798
-0.189737
-0.19143
-0.191754
-0.190748
-0.188241
-0.184313
-0.179019
-0.172461
-0.164777
-0.156139
-0.146738
-0.136776
-0.126453
-0.115961
-0.105474
-0.0951424
-0.0850923
-0.0754238
-0.0662126
-0.0575131
-0.0493625
-0.0417848
-0.0347961
-0.0284086
-0.0226356
-0.0174948
-0.0130104
-0.00921298
-0.00613632
-0.00381181
-0.00226035
-0.00148453
-0.00146282
-0.00214526
-0.00345226
-0.00527684
-0.00749036
-0.00995098
-0.0125133
-0.0150378
-0.0173988
-0.0194903
-0.0212291
-0.0225548
-0.0234365
-0.0238496
-0.0237807
-0.0232492
-0.022278
-0.0208977
-0.0191428
-0.0170403
-0.0146301
-0.0119139
-0.00896542
-0.0056762
-0.00226468
-0.127124
-0.120666
-0.114803
-0.109548
-0.104906
-0.100876
-0.0974244
-0.0944052
-0.092406
-0.0909157
-0.0900313
-0.0895298
-0.0894895
-0.0910378
-0.092638
-0.094873
-0.0977881
-0.101373
-0.105665
-0.110696
-0.116445
-0.122907
-0.129997
-0.137601
-0.145595
-0.15383
-0.162133
-0.170309
-0.178152
-0.185446
-0.191975
-0.197526
-0.201892
-0.204874
-0.206363
-0.206342
-0.204657
-0.201359
-0.196485
-0.190118
-0.182389
-0.173467
-0.163554
-0.152867
-0.141633
-0.130072
-0.118389
-0.106768
-0.0953631
-0.0842997
-0.073673
-0.0635521
-0.0539832
-0.044994
-0.0365987
-0.0288023
-0.0216044
-0.0150038
-0.009002
-0.00360653
0.00116667
0.00529264
0.00873978
0.0114744
0.0134677
0.0147042
0.0151904
0.0149598
0.0140732
0.012618
0.0107029
0.00845142
0.00599325
0.00345578
0.00095616
-0.00140405
-0.00354339
-0.00540131
-0.00696869
-0.00807337
-0.00881277
-0.00918825
-0.00920789
-0.00889132
-0.00825925
-0.00734286
-0.00615498
-0.004754
-0.00307899
-0.00131901
-0.111986
-0.104261
-0.0972666
-0.0910416
-0.0856166
-0.0810275
-0.0773284
-0.0745017
-0.0722096
-0.0709275
-0.0704843
-0.0708211
-0.0720087
-0.0741727
-0.0771717
-0.0810027
-0.0856633
-0.0911363
-0.0974051
-0.104444
-0.112207
-0.120631
-0.129606
-0.138995
-0.148644
-0.158379
-0.168005
-0.177316
-0.186096
-0.194132
-0.201221
-0.20717
-0.211768
-0.214624
-0.215839
-0.215363
-0.213153
-0.209213
-0.203596
-0.196408
-0.187806
-0.177984
-0.167165
-0.155588
-0.143495
-0.131119
-0.118669
-0.106331
-0.0942542
-0.0825587
-0.0713323
-0.0606356
-0.0505063
-0.0409645
-0.0320167
-0.0236602
-0.0158875
-0.00868852
-0.00205464
0.00401913
0.00953133
0.014472
0.0188216
0.0225511
0.0256258
0.0280117
0.0296823
0.0306267
0.0308567
0.0304121
0.0293585
0.0277834
0.0257899
0.0234898
0.0209951
0.0184109
0.0158279
0.01331
0.0108823
0.00888384
0.00707616
0.00549849
0.00416846
0.00307948
0.00221366
0.00154158
0.00103481
0.000643589
0.000362211
7.65951e-05
-0.102225
-0.0935822
-0.0857436
-0.0787662
-0.0726969
-0.0675746
-0.0634277
-0.060249
-0.0580535
-0.0569309
-0.0567945
-0.0576533
-0.0595167
-0.0624
-0.0662751
-0.07112
-0.0769092
-0.0836054
-0.0911606
-0.0995093
-0.108572
-0.118252
-0.128416
-0.138912
-0.149568
-0.160191
-0.170577
-0.180509
-0.189769
-0.198149
-0.205472
-0.211656
-0.216937
-0.218952
-0.219812
-0.218998
-0.216386
-0.211983
-0.205858
-0.19814
-0.189002
-0.17866
-0.167349
-0.155319
-0.142817
-0.130073
-0.117296
-0.10466
-0.0923084
-0.0803506
-0.0688659
-0.0579071
-0.0475057
-0.0376762
-0.0284208
-0.0197333
-0.0116025
-0.00401474
0.0030436
0.00958384
0.0156132
0.0211327
0.0261361
0.0306079
0.034524
0.0378522
0.0405563
0.0426029
0.043969
0.044648
0.0446545
0.0440288
0.042835
0.0411542
0.0390776
0.0366999
0.0341168
0.0314185
0.0286864
0.0259359
0.0232655
0.0206897
0.0182142
0.0158328
0.0135252
0.0112602
0.00899346
0.00668416
0.00425227
0.00171129
-0.0882152
-0.0797971
-0.0722678
-0.0656868
-0.0601052
-0.0555694
-0.0521204
-0.0498108
-0.0487621
-0.0487472
-0.0498
-0.0519491
-0.0551898
-0.0595048
-0.0648671
-0.071238
-0.0785646
-0.0867789
-0.0957958
-0.105513
-0.115809
-0.126541
-0.137543
-0.148632
-0.159608
-0.170257
-0.180356
-0.189675
-0.19798
-0.20499
-0.210445
-0.213911
-0.217419
-0.218545
-0.217616
-0.214781
-0.210118
-0.203737
-0.195791
-0.186471
-0.175999
-0.164615
-0.152565
-0.140088
-0.127404
-0.114706
-0.102156
-0.0898834
-0.0779884
-0.0665416
-0.0555905
-0.0451633
-0.0352728
-0.0259207
-0.0171008
-0.00880193
-0.00101007
0.00628934
0.0131099
0.0194624
0.0253541
0.0307864
0.0357544
0.0402457
0.0442401
0.0477098
0.0506217
0.0529408
0.0546359
0.0556881
0.0560942
0.0558702
0.0550514
0.0536916
0.0518527
0.0496199
0.0470831
0.0443608
0.0412605
0.0380667
0.034785
0.0314131
0.0279462
0.0243627
0.0206347
0.0167048
0.0125553
0.00802508
0.00329889
-0.0798803
-0.072053
-0.0651448
-0.059212
-0.0543036
-0.050489
-0.0479253
-0.0463494
-0.046092
-0.046993
-0.0490361
-0.0522182
-0.0565125
-0.0618835
-0.0682845
-0.0756538
-0.0839141
-0.0929702
-0.10271
-0.113002
-0.123696
-0.134623
-0.145596
-0.156414
-0.166859
-0.176707
-0.185726
-0.193685
-0.200529
-0.206135
-0.21018
-0.212631
-0.21325
-0.212065
-0.209064
-0.204311
-0.197922
-0.190054
-0.180899
-0.170673
-0.159606
-0.147928
-0.135859
-0.123597
-0.111317
-0.0991641
-0.0872545
-0.0756782
-0.0645008
-0.0537676
-0.0435066
-0.0337328
-0.0244504
-0.0156563
-0.0073422
0.000503344
0.00789322
0.0148402
0.0213557
0.0274487
0.0331244
0.0383836
0.0432215
0.047627
0.0515826
0.0550644
0.0580437
0.0604886
0.0623676
0.0636541
0.0643316
0.0643993
0.0638678
0.0627111
0.0610167
0.0588313
0.0562802
0.0532694
0.0499182
0.0462499
0.042278
0.0380063
0.0334154
0.0284914
0.0231667
0.0174691
0.0111554
0.00458738
-0.0824857
-0.0745025
-0.0673758
-0.0611766
-0.0559503
-0.0516126
-0.0490439
-0.0475405
-0.0470261
-0.0475388
-0.0492294
-0.0520839
-0.0560684
-0.061144
-0.0672573
-0.0743394
-0.0823047
-0.0910511
-0.100463
-0.110407
-0.12073
-0.131263
-0.141824
-0.152213
-0.162224
-0.171634
-0.18015
-0.187575
-0.194132
-0.199039
-0.202396
-0.204312
-0.204688
-0.203366
-0.200356
-0.195732
-0.189605
-0.182125
-0.173469
-0.163836
-0.153431
-0.142456
-0.131104
-0.119547
-0.107937
-0.0964053
-0.0850554
-0.0739715
-0.063217
-0.0528382
-0.0428666
-0.0333217
-0.0242132
-0.0155432
-0.00730873
0.000497355
0.00788413
0.0148615
0.021439
0.0276248
0.0334246
0.0388411
0.0438727
0.0485136
0.0527524
0.0565721
0.0599511
0.0628636
0.0652821
0.0671786
0.0685284
0.069317
0.0696199
0.0689828
0.067843
0.0661771
0.0639536
0.0611865
0.0578945
0.0540995
0.0498117
0.0450408
0.0397674
0.0340034
0.0276715
0.020865
0.0132717
0.00540187
-0.083931
-0.0767492
-0.0703735
-0.0648414
-0.0603193
-0.056315
-0.0537052
-0.0524198
-0.0522864
-0.0531835
-0.0551672
-0.0582453
-0.0623846
-0.0675385
-0.0736449
-0.080623
-0.0883739
-0.0967812
-0.105716
-0.115036
-0.124582
-0.134181
-0.143652
-0.152803
-0.161421
-0.169303
-0.176563
-0.182542
-0.187275
-0.190387
-0.192009
-0.192212
-0.190976
-0.188265
-0.184119
-0.178627
-0.171915
-0.164129
-0.155436
-0.146007
-0.136013
-0.125618
-0.114976
-0.104221
-0.0934715
-0.0828283
-0.0723731
-0.0621711
-0.0522721
-0.0427126
-0.0335175
-0.0247022
-0.0162747
-0.0082372
-0.000587601
0.00667894
0.0135687
0.0200886
0.0262446
0.0320414
0.0374813
0.0425639
0.0472852
0.051637
0.0556066
0.0591767
0.062325
0.0650274
0.0672638
0.0690078
0.0701372
0.0706021
0.0708013
0.0702699
0.0690861
0.0672735
0.0648236
0.0617344
0.0580151
0.0536629
0.048693
0.0430821
0.0368739
0.0299812
0.0225687
0.0142849
0.00572944
-0.0867454
-0.080083
-0.0741397
-0.0689542
-0.0646882
-0.0613405
-0.058993
-0.0576177
-0.0572409
-0.0578888
-0.0595666
-0.0622583
-0.065935
-0.0705536
-0.0760544
-0.0823603
-0.0893773
-0.0969944
-0.105084
-0.113503
-0.1221
-0.130718
-0.139209
-0.147439
-0.155366
-0.161811
-0.16761
-0.172344
-0.175885
-0.178201
-0.179245
-0.17896
-0.177328
-0.17437
-0.170151
-0.164766
-0.158331
-0.150981
-0.142861
-0.134119
-0.124901
-0.115346
-0.105582
-0.0957215
-0.0858655
-0.076098
-0.0664886
-0.0570931
-0.0479546
-0.0391054
-0.0305678
-0.0223567
-0.0144804
-0.00694256
0.000256293
0.00711801
0.0136457
0.019843
0.0257128
0.0312573
0.0364766
0.0413688
0.0459294
0.0501506
0.0540213
0.0575267
0.0606418
0.0633434
0.0656396
0.0674282
0.0687866
0.0696095
0.0699166
0.0696436
0.0687609
0.067236
0.0650442
0.0621611
0.0585811
0.0542868
0.0493002
0.0435948
0.0372456
0.0301708
0.0225815
0.0141727
0.00550491
-0.0898997
-0.0844261
-0.0795342
-0.0753144
-0.0717833
-0.0690184
-0.0670595
-0.0659507
-0.0657146
-0.0663492
-0.0678438
-0.0701812
-0.0733319
-0.0772521
-0.0818834
-0.0871527
-0.0929722
-0.0992401
-0.105841
-0.112648
-0.119523
-0.126304
-0.132806
-0.138893
-0.144061
-0.149451
-0.153829
-0.157214
-0.159592
-0.160892
-0.161073
-0.160134
-0.158098
-0.155005
-0.150914
-0.145907
-0.140078
-0.133533
-0.126382
-0.118737
-0.110709
-0.102402
-0.0939126
-0.0853275
-0.0767235
-0.0681668
-0.059713
-0.0514083
-0.0432896
-0.0353862
-0.0277204
-0.0203088
-0.0131633
-0.00629217
0.000299582
0.00660876
0.0126334
0.0183719
0.023823
0.0289844
0.0338529
0.0384237
0.04269
0.0466428
0.0502712
0.053562
0.0565068
0.0591062
0.0612278
0.0629751
0.0642612
0.0650639
0.0653629
0.0651193
0.0643002
0.0628738
0.0608193
0.0581066
0.0547307
0.050662
0.0459296
0.0404954
0.0344587
0.0277402
0.0205817
0.012752
0.0047688
-0.0936685
-0.0889484
-0.084747
-0.0811303
-0.0781268
-0.0757606
-0.0740689
-0.0730752
-0.0727858
-0.0731997
-0.0743112
-0.0761054
-0.0785537
-0.0816155
-0.0852377
-0.0893553
-0.0938911
-0.098756
-0.10385
-0.109065
-0.114282
-0.119386
-0.124279
-0.12879
-0.133056
-0.136784
-0.139822
-0.142103
-0.143562
-0.144152
-0.14386
-0.142691
-0.140659
-0.137794
-0.134137
-0.129747
-0.12469
-0.119044
-0.112888
-0.106307
-0.0993834
-0.0921972
-0.084824
-0.0773339
-0.0697899
-0.0622481
-0.0547575
-0.04736
-0.040091
-0.0329797
-0.0260501
-0.0193212
-0.0128082
-0.00652257
-0.000473565
0.00533169
0.0108874
0.0161884
0.0212299
0.0260072
0.0305147
0.0347461
0.0386937
0.0423484
0.0456991
0.0487304
0.0514259
0.0537657
0.0557631
0.057346
0.0584987
0.0592038
0.0594349
0.0591604
0.0583549
0.0569877
0.0550425
0.0524898
0.0493336
0.0455445
0.0411665
0.03616
0.0306446
0.0245407
0.0181103
0.0111418
0.00414046
-0.0960906
-0.0921539
-0.0886357
-0.0855774
-0.0830143
-0.0809695
-0.0794646
-0.0785149
-0.078129
-0.078309
-0.0790481
-0.0803299
-0.0821281
-0.0844069
-0.0871211
-0.090216
-0.0936278
-0.0972849
-0.10111
-0.105016
-0.108914
-0.112721
-0.116329
-0.119669
-0.122644
-0.125168
-0.127172
-0.128589
-0.129367
-0.129472
-0.128884
-0.127595
-0.125614
-0.122958
-0.119662
-0.115767
-0.111325
-0.106395
-0.101039
-0.0953206
-0.089305
-0.083055
-0.0766304
-0.0700874
-0.0634774
-0.0568469
-0.0502372
-0.0436845
-0.0372202
-0.0308713
-0.0246605
-0.018607
-0.0127269
-0.00703362
-0.00153855
0.00374865
0.00881956
0.0136665
0.0182824
0.0226599
0.0267916
0.0306691
0.0342835
0.0376245
0.04068
0.0434379
0.0458871
0.0480032
0.0497855
0.0511908
0.0522055
0.0528088
0.0529782
0.0526876
0.0519175
0.0506416
0.0488498
0.0465168
0.0436542
0.0402346
0.0363118
0.0318435
0.0269629
0.021574
0.0159603
0.00985132
0.00378666
-0.0977756
-0.0944657
-0.0914858
-0.0888665
-0.0866395
-0.0848286
-0.0834513
-0.0825201
-0.0820409
-0.082012
-0.0824248
-0.0832636
-0.0845055
-0.0861201
-0.0880694
-0.0903085
-0.0927855
-0.0954426
-0.0982162
-0.10104
-0.103844
-0.106549
-0.109093
-0.111396
-0.113404
-0.115059
-0.116302
-0.11708
-0.117353
-0.117092
-0.116278
-0.114905
-0.11298
-0.110517
-0.10754
-0.104081
-0.100178
-0.0958731
-0.0912124
-0.0862437
-0.0810156
-0.0755762
-0.0699721
-0.0642477
-0.0584449
-0.0526024
-0.0467555
-0.0409361
-0.0351727
-0.0294906
-0.0239121
-0.0184566
-0.0131411
-0.00798034
-0.00298721
0.00182683
0.0064515
0.0108773
0.0150953
0.0190967
0.0228728
0.0264145
0.0297125
0.0327566
0.0355364
0.0380407
0.0402551
0.0421614
0.0437487
0.0449964
0.0458886
0.046407
0.0465344
0.0462508
0.0455424
0.0443891
0.0427867
0.0407149
0.0381902
0.0351874
0.0317644
0.0278727
0.0236516
0.0189766
0.0141488
0.0088098
0.00355307
-0.0985335
-0.0957293
-0.0931904
-0.0909414
-0.0890049
-0.0873993
-0.086138
-0.0852294
-0.0846764
-0.0844763
-0.0846214
-0.0850979
-0.0858863
-0.0869612
-0.0882911
-0.0898391
-0.0915633
-0.0934177
-0.0953527
-0.0973142
-0.099248
-0.101096
-0.102807
-0.104328
-0.105608
-0.106598
-0.107253
-0.107537
-0.107418
-0.106875
-0.105895
-0.104471
-0.102607
-0.100312
-0.097601
-0.0944973
-0.0910275
-0.0872227
-0.0831175
-0.0787481
-0.0741522
-0.0693676
-0.0644319
-0.0593813
-0.0542504
-0.049072
-0.0438762
-0.0386912
-0.0335424
-0.0284526
-0.0234428
-0.0185313
-0.0137347
-0.00906793
-0.00454418
-0.000175575
0.0040268
0.00805264
0.0118922
0.015536
0.0189747
0.022199
0.0251992
0.0279654
0.0304872
0.0327533
0.0347528
0.0364702
0.0378931
0.0390071
0.0398004
0.0402586
0.0403685
0.0401153
0.03949
0.0384781
0.0370797
0.0352792
0.0330958
0.0305058
0.0275674
0.0242264
0.0206212
0.0166045
0.0124819
0.00783644
0.00328866
-0.0986278
-0.0962419
-0.0940652
-0.092118
-0.0904176
-0.0889778
-0.0878086
-0.0869161
-0.0863019
-0.0859636
-0.0858938
-0.0860808
-0.0865078
-0.0871538
-0.087993
-0.0889958
-0.0901289
-0.091355
-0.0926338
-0.0939248
-0.0951846
-0.096371
-0.0974401
-0.0983491
-0.0990582
-0.0995309
-0.0997344
-0.0996404
-0.0992259
-0.0984732
-0.0973705
-0.0959122
-0.0940985
-0.0919354
-0.0894341
-0.0866108
-0.0834855
-0.0800819
-0.0764262
-0.0725465
-0.0684722
-0.0642331
-0.0598593
-0.05538
-0.0508236
-0.0462173
-0.0415868
-0.0369561
-0.0323476
-0.0277818
-0.0232778
-0.0188529
-0.0145228
-0.0103021
-0.00620413
-0.00224101
0.00157587
0.00523586
0.00872884
0.012045
0.0151749
0.0181091
0.0208381
0.0233523
0.025642
0.0276978
0.0295094
0.0310642
0.0323511
0.0333593
0.0340796
0.0345009
0.0346139
0.0344078
0.0338774
0.0330125
0.0318161
0.0302763
0.0284131
0.0262049
0.0237069
0.0208635
0.0178052
0.0143778
0.0108738
0.00686564
0.00295725
-0.0981373
-0.096103
-0.0942307
-0.0925368
-0.091035
-0.0897362
-0.0886483
-0.0877757
-0.0871194
-0.0866767
-0.0864413
-0.086403
-0.0865482
-0.0868595
-0.0873159
-0.0878927
-0.0885642
-0.0893005
-0.09007
-0.0908404
-0.0915781
-0.0922486
-0.0928179
-0.0932535
-0.093525
-0.093604
-0.0934647
-0.0930849
-0.0924461
-0.0915342
-0.0903395
-0.0888572
-0.087087
-0.0850327
-0.0827027
-0.0801085
-0.0772653
-0.0741909
-0.0709053
-0.0674302
-0.0637886
-0.0600041
-0.0561008
-0.0521024
-0.0480325
-0.0439137
-0.039768
-0.035616
-0.0314775
-0.0273707
-0.023313
-0.0193201
-0.0154069
-0.0115871
-0.00787357
-0.00427806
-0.000811766
0.0025148
0.00569163
0.00870913
0.011558
0.0142292
0.0167137
0.0190027
0.0210872
0.0229585
0.0246072
0.0260237
0.0271994
0.0281254
0.0287942
0.0291973
0.0293285
0.0291802
0.0287497
0.0280301
0.0270261
0.0257286
0.0241573
0.0222927
0.0201856
0.0177829
0.015203
0.0122986
0.00933655
0.00591467
0.00258773
-0.0972104
-0.0954691
-0.0938512
-0.09237
-0.0910364
-0.0898592
-0.0888443
-0.0879951
-0.087312
-0.0867924
-0.0864311
-0.0862195
-0.0861467
-0.0861991
-0.0863618
-0.086605
-0.0869178
-0.0872742
-0.0876491
-0.0880167
-0.0883504
-0.0886234
-0.0888095
-0.0888832
-0.0888204
-0.0885985
-0.0881976
-0.0876001
-0.0867918
-0.0857615
-0.0845016
-0.0830078
-0.0812795
-0.0793193
-0.0771329
-0.0747291
-0.0721192
-0.0693168
-0.0663373
-0.063198
-0.0599168
-0.0565129
-0.0530056
-0.0494145
-0.0457591
-0.0420584
-0.038331
-0.0345947
-0.0308667
-0.0271631
-0.0234993
-0.0198896
-0.0163478
-0.0128864
-0.0095176
-0.00625253
-0.00310185
-7.56437e-05
0.00281651
0.00556542
0.00816224
0.0105984
0.0128655
0.0149555
0.0168601
0.0185717
0.0200822
0.0213839
0.0224703
0.0233337
0.0239682
0.0243677
0.0245279
0.0244437
0.0241142
0.0235347
0.0227107
0.0216357
0.0203278
0.0187705
0.0170089
0.0149953
0.0128343
0.0103934
0.0079081
0.0050195
0.00221803
-0.0959508
-0.0944559
-0.0930529
-0.0917524
-0.0905632
-0.0894921
-0.088544
-0.0877213
-0.0870241
-0.0864504
-0.0859955
-0.0856522
-0.0854112
-0.085262
-0.0851893
-0.085187
-0.0852259
-0.0852904
-0.0853619
-0.08542
-0.0854438
-0.0854123
-0.0853048
-0.0851013
-0.0847829
-0.0843322
-0.0837335
-0.0829732
-0.0820399
-0.080925
-0.079622
-0.0781276
-0.0764409
-0.0745636
-0.0725
-0.0702568
-0.0678426
-0.0652681
-0.0625454
-0.0596881
-0.0567108
-0.0536287
-0.0504577
-0.047214
-0.0439135
-0.0405725
-0.0372066
-0.0338311
-0.0304609
-0.0271103
-0.0237927
-0.0205212
-0.0173082
-0.0141651
-0.0111032
-0.00813293
-0.00526414
-0.00250631
0.000131543
0.00264081
0.00501324
0.00724089
0.0093161
0.0112315
0.0129799
0.0145547
0.0159492
0.0171573
0.0181721
0.0189884
0.019602
0.0200084
0.0202048
0.0201878
0.0199575
0.019511
0.0188541
0.017982
0.0169114
0.0156285
0.014173
0.0125036
0.010711
0.00868021
0.00661509
0.00420435
0.00187241
-0.0944481
-0.0931622
-0.0919419
-0.0907961
-0.0897319
-0.0887549
-0.0878687
-0.0870755
-0.0863752
-0.0857658
-0.0852436
-0.084805
-0.0844413
-0.0841437
-0.0838993
-0.083697
-0.0835235
-0.0833641
-0.083203
-0.083024
-0.0828106
-0.0825464
-0.0822152
-0.0818012
-0.0812898
-0.0806671
-0.0799211
-0.0790409
-0.0780176
-0.0768443
-0.075516
-0.0740298
-0.072385
-0.070583
-0.0686269
-0.0665219
-0.0642748
-0.0618941
-0.0593894
-0.0567716
-0.0540524
-0.0512443
-0.0483603
-0.0454138
-0.0424182
-0.039387
-0.0363337
-0.0332714
-0.030213
-0.0271709
-0.0241572
-0.0211833
-0.0182603
-0.0153988
-0.0126089
-0.00990018
-0.00728172
-0.00476227
-0.00235012
-5.32138e-05
0.00212089
0.00416495
0.00607207
0.00783567
0.00944944
0.0109073
0.012204
0.0133347
0.0142937
0.0150764
0.0156798
0.0161009
0.016338
0.0163887
0.0162541
0.0159325
0.0154296
0.0147421
0.0138851
0.0128474
0.0116634
0.0102985
0.00883051
0.00716149
0.00546612
0.00347839
0.00156178
-0.0927776
-0.0916697
-0.0906061
-0.089594
-0.0886392
-0.0877463
-0.0869184
-0.0861571
-0.085462
-0.0848315
-0.0842651
-0.0837581
-0.0833046
-0.0828934
-0.0825173
-0.082168
-0.0818346
-0.0815051
-0.0811671
-0.080808
-0.0804148
-0.0799746
-0.0794745
-0.0789024
-0.0782466
-0.0774964
-0.0766422
-0.0756756
-0.0745897
-0.0733789
-0.0720394
-0.070569
-0.0689671
-0.0672346
-0.0653742
-0.06339
-0.0612875
-0.0590733
-0.0567553
-0.0543423
-0.0518439
-0.0492704
-0.0466325
-0.0439414
-0.0412084
-0.038445
-0.0356625
-0.0328723
-0.0300854
-0.0273129
-0.0245651
-0.0218524
-0.0191846
-0.0165712
-0.0140213
-0.0115435
-0.00914613
-0.00683716
-0.00462413
-0.00251424
-0.000514347
0.00136903
0.00312971
0.00476184
0.00625998
0.00761911
0.00883437
0.00990116
0.0108159
0.0115757
0.0121774
0.0126186
0.0128986
0.0130159
0.0129723
0.0127667
0.012405
0.0118848
0.0112196
0.0104006
0.00945758
0.0083617
0.00717957
0.0058286
0.00445774
0.00284125
0.00128885
-0.0910018
-0.0900466
-0.0891181
-0.0882223
-0.087364
-0.0865471
-0.0857743
-0.0850464
-0.0843632
-0.0837265
-0.0831339
-0.0825796
-0.0820573
-0.0815631
-0.0810908
-0.0806324
-0.0801793
-0.0797222
-0.0792515
-0.0787572
-0.0782291
-0.0776571
-0.0770311
-0.0763415
-0.0755793
-0.0747362
-0.0738045
-0.0727779
-0.0716508
-0.0704191
-0.0690797
-0.0676309
-0.0660724
-0.064405
-0.0626309
-0.0607534
-0.0587771
-0.0567073
-0.0545505
-0.052314
-0.0500057
-0.0476342
-0.0452084
-0.0427376
-0.0402315
-0.0376997
-0.035152
-0.0325982
-0.0300478
-0.0275104
-0.0249952
-0.0225112
-0.0200672
-0.0176716
-0.0153325
-0.0130577
-0.0108548
-0.0087308
-0.00669257
-0.00474657
-0.00289897
-0.00115558
0.000478142
0.00199705
0.00339638
0.00467166
0.00581882
0.00683459
0.00771604
0.00846102
0.00906625
0.00953054
0.00985382
0.0100354
0.010077
0.00997858
0.00974537
0.00937613
0.00888274
0.00825837
0.00752876
0.00667011
0.00573932
0.00466704
0.00357999
0.0022872
0.0010519
-0.0891721
-0.0883484
-0.0875371
-0.0867432
-0.0859707
-0.085223
-0.084502
-0.0838088
-0.0831454
-0.082511
-0.0819023
-0.0813152
-0.0807475
-0.0801955
-0.0796535
-0.0791152
-0.078574
-0.0780228
-0.077454
-0.0768596
-0.0762318
-0.0755626
-0.0748441
-0.074069
-0.0732301
-0.072321
-0.0713359
-0.0702696
-0.0691181
-0.0678781
-0.0665474
-0.0651246
-0.0636097
-0.0620035
-0.0603079
-0.0585255
-0.0566603
-0.0547168
-0.0527002
-0.0506167
-0.048473
-0.0462761
-0.0440336
-0.0417534
-0.0394436
-0.0371126
-0.0347687
-0.0324203
-0.0300757
-0.0277432
-0.025431
-0.0231468
-0.0208985
-0.0186936
-0.0165392
-0.0144423
-0.0124097
-0.0104476
-0.00856216
-0.00675919
-0.00504416
-0.00342219
-0.00189812
-0.000476411
0.000838808
0.00204383
0.00313524
0.00411009
0.00496654
0.00570163
0.00631444
0.00680365
0.00716953
0.00741192
0.00753273
0.00753227
0.00741549
0.00718181
0.00684176
0.0063901
0.00584903
0.00519902
0.00448859
0.00365969
0.00281993
0.00180807
0.000847445
-0.0873307
-0.0866209
-0.0859118
-0.0852075
-0.0845116
-0.0838268
-0.083155
-0.0824984
-0.0818569
-0.0812299
-0.0806146
-0.0800099
-0.0794136
-0.0788221
-0.0782313
-0.0776363
-0.077032
-0.0764128
-0.0757727
-0.0751058
-0.0744057
-0.0736663
-0.0728815
-0.0720456
-0.0711532
-0.0701991
-0.0691789
-0.0680889
-0.0669258
-0.0656871
-0.0643714
-0.0629778
-0.0615062
-0.0599576
-0.0583337
-0.0566367
-0.05487
-0.0530374
-0.0511434
-0.0491933
-0.0471924
-0.0451471
-0.0430635
-0.0409485
-0.0388091
-0.0366523
-0.0344853
-0.0323154
-0.0301498
-0.0279957
-0.0258603
-0.0237505
-0.021673
-0.0196345
-0.0176414
-0.0156998
-0.0138158
-0.0119949
-0.0102426
-0.00856394
-0.00696385
-0.00544682
-0.00401708
-0.00267851
-0.00143468
-0.000288763
0.000756447
0.00169851
0.00253578
0.00326634
0.0038897
0.00440463
0.00481159
0.00511091
0.00530452
0.00539308
0.00538114
0.00526868
0.00506493
0.00476599
0.00439096
0.0039239
0.00340608
0.00278908
0.00216407
0.0013952
0.000671623
-0.0855117
-0.0849008
-0.084281
-0.0836559
-0.0830287
-0.0824016
-0.0817764
-0.0811544
-0.080537
-0.0799224
-0.0793096
-0.0786977
-0.0780849
-0.0774685
-0.0768452
-0.0762115
-0.0755633
-0.0748964
-0.0742062
-0.0734879
-0.0727369
-0.0719483
-0.0711175
-0.07024
-0.0693118
-0.0683289
-0.0672879
-0.0661861
-0.0650211
-0.063791
-0.0624949
-0.0611323
-0.0597033
-0.0582089
-0.0566506
-0.0550305
-0.0533515
-0.0516169
-0.0498305
-0.0479968
-0.0461206
-0.0442071
-0.0422616
-0.0402901
-0.0382985
-0.0362929
-0.0342796
-0.0322647
-0.0302548
-0.0282559
-0.0262743
-0.0243162
-0.0223874
-0.0204939
-0.0186412
-0.0168349
-0.0150802
-0.013382
-0.0117452
-0.0101743
-0.00867356
-0.00724693
-0.00589811
-0.00463047
-0.00344706
-0.00235059
-0.00134345
-0.000427649
0.000395644
0.00112536
0.00176113
0.00230143
0.00274719
0.00309916
0.00335919
0.00352811
0.00361009
0.00360549
0.00352243
0.00335805
0.00312875
0.0028216
0.00247166
0.0020386
0.00159956
0.00104031
0.00052074
-0.0837428
-0.083218
-0.0826766
-0.0821216
-0.0815557
-0.0809812
-0.0804002
-0.0798127
-0.07922
-0.0786214
-0.0780168
-0.0774052
-0.0767852
-0.0761549
-0.0755117
-0.0748531
-0.0741759
-0.073477
-0.0727528
-0.0719998
-0.0712142
-0.0703926
-0.0695313
-0.068627
-0.0676766
-0.0666771
-0.0656262
-0.0645216
-0.0633618
-0.0621455
-0.0608721
-0.0595414
-0.0581538
-0.0567101
-0.055212
-0.0536613
-0.0520605
-0.0504126
-0.0487209
-0.0469893
-0.045222
-0.0434233
-0.041598
-0.0397512
-0.037888
-0.0360137
-0.0341338
-0.0322536
-0.0303787
-0.0285146
-0.0266667
-0.0248404
-0.0230408
-0.0212733
-0.0195426
-0.0178536
-0.0162111
-0.0146192
-0.0130824
-0.0116046
-0.0101894
-0.00884039
-0.00756075
-0.0063534
-0.00522095
-0.0041657
-0.00318958
-0.00229432
-0.00148102
-0.000749569
-0.000101594
0.000463312
0.000945445
0.00134573
0.00166594
0.001907
0.00207265
0.00216359
0.00218692
0.00214065
0.00203882
0.00187102
0.00166693
0.00139314
0.00111471
0.000735871
0.000391446
-0.082046
-0.0815963
-0.0811236
-0.0806307
-0.0801199
-0.0795931
-0.079052
-0.0784983
-0.0779315
-0.0773518
-0.0767593
-0.0761534
-0.0755332
-0.0748972
-0.0742436
-0.0735706
-0.0728758
-0.0721568
-0.0714111
-0.0706358
-0.0698284
-0.068986
-0.0681061
-0.0671861
-0.0662238
-0.0652171
-0.0641641
-0.0630635
-0.061914
-0.0607149
-0.059466
-0.0581673
-0.0568193
-0.0554231
-0.05398
-0.0524918
-0.0509609
-0.0493898
-0.0477816
-0.0461396
-0.0444674
-0.0427689
-0.0410482
-0.0393098
-0.0375582
-0.0357979
-0.0340336
-0.0322702
-0.0305125
-0.0287653
-0.0270333
-0.0253212
-0.0236337
-0.0219752
-0.0203502
-0.0187628
-0.0172173
-0.0157173
-0.0142667
-0.012869
-0.0115273
-0.0102447
-0.00902405
-0.00786779
-0.0067782
-0.00575723
-0.00480654
-0.00392755
-0.0031213
-0.00238827
-0.00172793
-0.00113857
-0.000621942
-0.000177497
0.000196811
0.00050214
0.000741907
0.000917032
0.00103374
0.00109073
0.00109999
0.00105321
0.00097547
0.000839186
0.000699095
0.000475174
0.000280804
-0.080439
-0.0800547
-0.0796424
-0.0792044
-0.078743
-0.0782598
-0.0777563
-0.0772339
-0.0766927
-0.0761332
-0.0755553
-0.074959
-0.0743435
-0.0737079
-0.073051
-0.0723714
-0.0716675
-0.0709375
-0.0701794
-0.0693915
-0.0685715
-0.0677177
-0.066828
-0.0659008
-0.0649342
-0.063927
-0.0628778
-0.0617857
-0.06065
-0.0594703
-0.0582466
-0.0569793
-0.055669
-0.0543167
-0.0529238
-0.051492
-0.0500234
-0.0485204
-0.0469857
-0.0454222
-0.0438331
-0.042222
-0.0405924
-0.0389481
-0.0372933
-0.0356317
-0.0339678
-0.0323055
-0.0306492
-0.0290031
-0.0273713
-0.025758
-0.0241673
-0.0226031
-0.0210693
-0.0195697
-0.0181077
-0.0166869
-0.0153104
-0.0139814
-0.0127026
-0.0114767
-0.0103061
-0.00919305
-0.00813933
-0.00714667
-0.00621647
-0.00534994
-0.00454845
-0.00381322
-0.00314588
-0.00252881
-0.00197986
-0.00149571
-0.00107333
-0.000711199
-0.00040622
-0.000157317
4.09438e-05
0.000187815
0.00029351
0.000351471
0.000382804
0.000364883
0.000343603
0.000252395
0.000186286
-0.0789355
-0.0786083
-0.0782488
-0.0778595
-0.077442
-0.0769981
-0.0765292
-0.0760364
-0.0755202
-0.0749811
-0.0744194
-0.0738351
-0.0732277
-0.0725968
-0.0719416
-0.0712611
-0.0705543
-0.0698198
-0.0690564
-0.0682627
-0.0674373
-0.0665789
-0.065686
-0.0647574
-0.0637922
-0.0627892
-0.0617477
-0.0606672
-0.0595474
-0.0583882
-0.0571898
-0.0559527
-0.0546776
-0.0533658
-0.0520184
-0.0506372
-0.0492241
-0.0477812
-0.0463111
-0.0448163
-0.0432999
-0.0417648
-0.0402142
-0.0386517
-0.0370806
-0.0355045
-0.0339272
-0.0323523
-0.0307835
-0.0292247
-0.0276793
-0.0261512
-0.0246439
-0.0231609
-0.0217056
-0.0202813
-0.0188912
-0.0175382
-0.0162252
-0.0149549
-0.0137298
-0.0125521
-0.011424
-0.0103472
-0.00932335
-0.00835386
-0.00743976
-0.00658173
-0.00578005
-0.00503411
-0.00434102
-0.00371826
-0.00314728
-0.00263032
-0.00216656
-0.00175499
-0.00139313
-0.00107997
-0.000810857
-0.000586105
-0.000397062
-0.000248821
-0.000123679
-4.00619e-05
4.03679e-05
6.25144e-05
0.000105729
-0.0772688
-0.0769555
-0.0766089
-0.0762305
-0.075822
-0.0753845
-0.0749192
-0.0744268
-0.0739079
-0.0733628
-0.0727918
-0.0721948
-0.0715714
-0.0709214
-0.070244
-0.0695386
-0.0688045
-0.0680406
-0.0672462
-0.0664204
-0.0655621
-0.0646706
-0.063745
-0.0627848
-0.0617893
-0.0607582
-0.0596912
-0.0585883
-0.0574497
-0.0562758
-0.0550672
-0.0538248
-0.0525498
-0.0512435
-0.0499074
-0.0485434
-0.0471535
-0.04574
-0.0443053
-0.042852
-0.0413828
-0.0399007
-0.0384088
-0.03691
-0.0354076
-0.0339049
-0.0324052
-0.0309117
-0.0294278
-0.0279567
-0.0265017
-0.0250659
-0.0236525
-0.0222645
-0.0209047
-0.019576
-0.0182809
-0.0170221
-0.0158018
-0.0146222
-0.0134854
-0.012393
-0.0113467
-0.0103479
-0.00939769
-0.00849695
-0.00764631
-0.00684614
-0.00609678
-0.00539835
-0.00475182
-0.0041543
-0.00360577
-0.00310465
-0.00264952
-0.00223801
-0.00186906
-0.00153865
-0.00124674
-0.000986011
-0.000760316
-0.000554858
-0.000384509
-0.000217366
-9.87658e-05
3.72924e-05
-0.0760454
-0.0757723
-0.075463
-0.075119
-0.074742
-0.0743329
-0.0738928
-0.0734226
-0.0729229
-0.0723944
-0.0718373
-0.0712517
-0.0706376
-0.0699948
-0.0693232
-0.0686222
-0.0678915
-0.0671307
-0.066339
-0.0655161
-0.0646613
-0.0637743
-0.0628545
-0.0619017
-0.0609157
-0.0598962
-0.0588435
-0.0577577
-0.0566392
-0.0554885
-0.0543065
-0.053094
-0.0518522
-0.0505825