/*--------------------------------*- C++ -*----------------------------------*\
  =========                 |
  \\      /  F ield         | OpenFOAM: The Open Source CFD Toolbox
   \\    /   O peration     | Website:  https://openfoam.org
    \\  /    A nd           | Version:  7
     \\/     M anipulation  |
\*---------------------------------------------------------------------------*/
FoamFile
{
    version     2.0;
    format      ascii;
    class       volScalarField;
    location    "50";
    object      p;
}
// * * * * * * * * * * * * * * * * * * * * * * * * * * * * * * * * * * * * * //

dimensions      [0 2 -2 0 0 0 0];

internalField   nonuniform List<scalar> 
6000
(
-0.237262
-0.238536
-0.23989
-0.250752
-0.241269
-0.250965
-0.242605
-0.251057
-0.24384
-0.25176
-0.251083
-0.244933
-0.251898
-0.251081
-0.245865
-0.251916
-0.251086
-0.246628
-0.251843
-0.251133
-0.247211
-0.252797
-0.25175
-0.251202
-0.24761
-0.252574
-0.251688
-0.250974
-0.248294
-0.252349
-0.251586
-0.250793
-0.248953
-0.252128
-0.251458
-0.250678
-0.249392
-0.251917
-0.251323
-0.250597
-0.249663
-0.251723
-0.25119
-0.250536
-0.249824
-0.251551
-0.25107
-0.250485
-0.249911
-0.251408
-0.250967
-0.250442
-0.24995
-0.251643
-0.251298
-0.250886
-0.250408
-0.249964
-0.251552
-0.251224
-0.250833
-0.250385
-0.249967
-0.251509
-0.25119
-0.250809
-0.250376
-0.249969
-0.220716
-0.209889
-0.199433
-0.189389
-0.179792
-0.170722
-0.162216
-0.154283
-0.146919
-0.140104
-0.133815
-0.128025
-0.122708
-0.117835
-0.113382
-0.109323
-0.105635
-0.102295
-0.0992851
-0.0965858
-0.0941811
-0.0920563
-0.0901984
-0.0885962
-0.08724
-0.0861215
-0.0852341
-0.0845721
-0.0841336
-0.0839114
-0.221311
-0.21043
-0.200276
-0.190664
-0.181501
-0.172824
-0.164661
-0.15702
-0.149897
-0.143278
-0.137144
-0.131475
-0.12625
-0.121447
-0.117044
-0.113019
-0.109353
-0.106027
-0.103022
-0.100323
-0.0979146
-0.0957834
-0.0939178
-0.0923072
-0.0909428
-0.0898168
-0.0889231
-0.0882565
-0.0878149
-0.0875921
-0.222044
-0.211314
-0.201464
-0.192174
-0.183325
-0.174944
-0.16705
-0.159646
-0.152725
-0.146273
-0.140276
-0.134718
-0.129579
-0.124843
-0.12049
-0.116502
-0.112862
-0.109552
-0.106557
-0.103862
-0.101454
-0.0993208
-0.0974511
-0.0958356
-0.0944659
-0.0933349
-0.0924369
-0.0917669
-0.0913229
-0.0910997
-0.222714
-0.212384
-0.202909
-0.193909
-0.185309
-0.177158
-0.169474
-0.162257
-0.155497
-0.149181
-0.143297
-0.137829
-0.132764
-0.128084
-0.123774
-0.119818
-0.116199
-0.112904
-0.109917
-0.107226
-0.104819
-0.102683
-0.10081
-0.0991899
-0.0978154
-0.0966798
-0.0957778
-0.0951046
-0.0946583
-0.0944344
-0.22316
-0.213307
-0.204236
-0.195534
-0.187179
-0.179244
-0.171755
-0.164707
-0.158094
-0.151903
-0.146123
-0.140742
-0.135747
-0.131123
-0.126856
-0.122933
-0.119339
-0.116061
-0.113085
-0.110401
-0.107997
-0.105862
-0.103988
-0.102366
-0.100988
-0.0998498
-0.0989451
-0.0982698
-0.0978217
-0.0975973
-0.223345
-0.213925
-0.205234
-0.196832
-0.188734
-0.181028
-0.173739
-0.166866
-0.160403
-0.154342
-0.148673
-0.143386
-0.138468
-0.133908
-0.129693
-0.125811
-0.122249
-0.118996
-0.11604
-0.113369
-0.110974
-0.108846
-0.106976
-0.105356
-0.103979
-0.102841
-0.101936
-0.101261
-0.100812
-0.100588
-0.223298
-0.214243
-0.20589
-0.197776
-0.189936
-0.182465
-0.175385
-0.168696
-0.162394
-0.156472
-0.150924
-0.14574
-0.14091
-0.136424
-0.132271
-0.12844
-0.12492
-0.121701
-0.118772
-0.116123
-0.113745
-0.111629
-0.109769
-0.108156
-0.106786
-0.105651
-0.104749
-0.104075
-0.103628
-0.103404
-0.223056
-0.214319
-0.206273
-0.198425
-0.190836
-0.183597
-0.176727
-0.170224
-0.164087
-0.158312
-0.152891
-0.147818
-0.143085
-0.138681
-0.134598
-0.130827
-0.127357
-0.12418
-0.121285
-0.118664
-0.11631
-0.114213
-0.112368
-0.110768
-0.109406
-0.108279
-0.107382
-0.106712
-0.106267
-0.106045
-0.222639
-0.214195
-0.206439
-0.198843
-0.191491
-0.184475
-0.177809
-0.17149
-0.165519
-0.159891
-0.154602
-0.149645
-0.145012
-0.140697
-0.13669
-0.132984
-0.129571
-0.126441
-0.123587
-0.121
-0.118674
-0.116601
-0.114775
-0.113191
-0.111842
-0.110725
-0.109836
-0.109171
-0.10873
-0.108509
-0.222057
-0.213885
-0.206411
-0.199057
-0.191933
-0.18513
-0.178661
-0.172522
-0.166714
-0.161234
-0.156077
-0.151237
-0.146709
-0.142485
-0.138559
-0.134923
-0.13157
-0.128493
-0.125684
-0.123135
-0.120842
-0.118797
-0.116994
-0.115428
-0.114094
-0.11299
-0.11211
-0.111452
-0.111015
-0.110797
-0.221311
-0.213387
-0.206193
-0.199073
-0.19217
-0.185574
-0.179296
-0.173333
-0.167686
-0.162352
-0.157327
-0.152606
-0.148184
-0.144055
-0.140212
-0.13665
-0.133361
-0.13034
-0.12758
-0.125074
-0.122817
-0.120802
-0.119025
-0.117481
-0.116165
-0.115075
-0.114206
-0.113557
-0.113125
-0.11291
-0.220403
-0.212696
-0.205785
-0.198892
-0.192202
-0.185808
-0.179718
-0.173929
-0.168441
-0.163253
-0.15836
-0.153759
-0.149445
-0.145412
-0.141656
-0.13817
-0.134949
-0.131988
-0.12928
-0.126819
-0.124601
-0.12262
-0.120872
-0.119352
-0.118057
-0.116982
-0.116126
-0.115486
-0.115061
-0.114848
-0.219337
-0.211808
-0.205192
-0.198513
-0.192031
-0.185837
-0.179933
-0.174315
-0.168986
-0.163942
-0.159182
-0.154702
-0.150497
-0.146563
-0.142895
-0.139489
-0.136339
-0.13344
-0.130787
-0.128374
-0.126199
-0.124254
-0.122537
-0.121044
-0.11977
-0.118714
-0.117872
-0.117242
-0.116823
-0.116614
-0.218113
-0.210723
-0.204427
-0.197943
-0.191664
-0.185667
-0.179947
-0.174499
-0.169326
-0.164427
-0.1598
-0.155441
-0.151347
-0.147513
-0.143936
-0.140611
-0.137534
-0.1347
-0.132105
-0.129744
-0.127613
-0.125707
-0.124024
-0.122559
-0.121309
-0.120272
-0.119445
-0.118826
-0.118415
-0.118209
-0.216725
-0.209447
-0.203501
-0.197184
-0.191107
-0.185309
-0.17977
-0.174489
-0.169471
-0.164715
-0.160221
-0.155984
-0.152001
-0.14827
-0.144785
-0.141544
-0.138542
-0.135775
-0.13324
-0.130932
-0.128848
-0.126983
-0.125335
-0.1239
-0.122675
-0.121659
-0.120848
-0.120241
-0.119838
-0.119636
-0.215149
-0.208007
-0.202421
-0.19624
-0.190373
-0.184774
-0.179411
-0.174293
-0.169428
-0.164815
-0.160454
-0.156339
-0.152468
-0.148839
-0.145448
-0.142292
-0.139367
-0.136669
-0.134196
-0.131943
-0.129907
-0.128085
-0.126474
-0.125071
-0.123873
-0.122878
-0.122084
-0.12149
-0.121095
-0.120898
-0.213361
-0.206456
-0.201178
-0.195113
-0.18948
-0.18407
-0.178875
-0.173918
-0.169205
-0.164735
-0.160505
-0.156512
-0.152754
-0.149228
-0.145932
-0.142862
-0.140015
-0.137388
-0.134978
-0.132782
-0.130796
-0.129018
-0.127445
-0.126075
-0.124904
-0.123932
-0.123157
-0.122576
-0.12219
-0.121997
-0.21139
-0.204856
-0.19975
-0.193826
-0.188439
-0.1832
-0.178168
-0.173371
-0.168809
-0.164481
-0.160382
-0.156511
-0.152865
-0.149443
-0.146242
-0.143259
-0.140491
-0.137936
-0.135591
-0.133452
-0.131518
-0.129786
-0.128252
-0.126916
-0.125774
-0.124826
-0.124069
-0.123502
-0.123125
-0.122936
-0.209295
-0.203179
-0.198107
-0.192413
-0.187248
-0.182162
-0.177296
-0.17266
-0.168248
-0.164059
-0.160091
-0.156341
-0.152808
-0.14949
-0.146385
-0.143489
-0.140802
-0.138319
-0.13604
-0.13396
-0.132078
-0.130392
-0.128899
-0.127598
-0.126486
-0.125561
-0.124824
-0.124271
-0.123904
-0.12372
-0.207099
-0.201331
-0.196287
-0.190901
-0.185889
-0.180965
-0.176269
-0.171791
-0.167528
-0.163477
-0.159638
-0.156009
-0.152589
-0.149375
-0.146366
-0.143559
-0.140952
-0.138543
-0.13633
-0.13431
-0.132481
-0.130842
-0.129391
-0.128125
-0.127043
-0.126144
-0.125426
-0.124888
-0.12453
-0.124351
-0.204786
-0.199293
-0.194354
-0.189239
-0.184368
-0.179624
-0.175094
-0.170771
-0.166653
-0.16274
-0.15903
-0.155522
-0.152214
-0.149104
-0.146191
-0.143473
-0.140947
-0.138612
-0.136465
-0.134506
-0.132732
-0.131141
-0.129731
-0.128502
-0.12745
-0.126576
-0.125879
-0.125356
-0.125008
-0.124834
-0.202347
-0.197093
-0.192313
-0.187416
-0.182705
-0.17814
-0.173774
-0.169605
-0.165632
-0.161855
-0.158273
-0.154885
-0.151689
-0.148683
-0.145866
-0.143236
-0.140792
-0.138531
-0.136453
-0.134554
-0.132834
-0.131292
-0.129925
-0.128732
-0.127712
-0.126864
-0.126186
-0.125679
-0.125341
-0.125172
-0.199782
-0.194754
-0.19015
-0.185448
-0.180909
-0.176517
-0.172314
-0.168297
-0.164468
-0.160827
-0.157373
-0.154105
-0.15102
-0.148118
-0.145397
-0.142856
-0.140493
-0.138307
-0.136296
-0.134459
-0.132794
-0.1313
-0.129976
-0.12882
-0.127832
-0.12701
-0.126353
-0.125861
-0.125533
-0.12537
-0.197098
-0.19229
-0.187861
-0.183348
-0.178983
-0.174763
-0.170719
-0.166854
-0.163169
-0.159663
-0.156336
-0.153187
-0.150213
-0.147415
-0.144789
-0.142337
-0.140055
-0.137944
-0.136001
-0.134225
-0.132615
-0.131171
-0.12989
-0.128771
-0.127815
-0.127019
-0.126383
-0.125907
-0.12559
-0.125431
-0.1943
-0.189704
-0.18545
-0.181125
-0.176934
-0.172882
-0.168998
-0.165284
-0.161741
-0.158369
-0.155169
-0.152137
-0.149274
-0.146578
-0.144049
-0.141684
-0.139484
-0.137447
-0.135572
-0.133858
-0.132304
-0.130908
-0.129671
-0.12859
-0.127665
-0.126896
-0.126281
-0.12582
-0.125514
-0.12536
-0.191392
-0.187002
-0.182923
-0.178784
-0.174767
-0.170882
-0.167155
-0.163591
-0.160189
-0.156951
-0.153876
-0.150962
-0.148209
-0.145615
-0.143181
-0.140904
-0.138785
-0.136823
-0.135015
-0.133363
-0.131864
-0.130518
-0.129323
-0.12828
-0.127388
-0.126645
-0.126051
-0.125606
-0.12531
-0.125162
-0.188379
-0.184191
-0.180288
-0.176333
-0.172487
-0.168768
-0.165198
-0.161782
-0.158521
-0.155415
-0.152464
-0.149667
-0.147022
-0.144531
-0.142191
-0.140002
-0.137964
-0.136075
-0.134335
-0.132744
-0.1313
-0.130003
-0.128853
-0.127847
-0.126987
-0.12627
-0.125698
-0.125269
-0.124983
-0.12484
-0.185267
-0.181277
-0.17755
-0.173777
-0.170102
-0.166547
-0.163133
-0.159864
-0.156742
-0.153767
-0.150939
-0.148257
-0.145721
-0.143331
-0.141084
-0.138983
-0.137025
-0.13521
-0.133538
-0.132007
-0.130619
-0.129371
-0.128263
-0.127295
-0.126467
-0.125777
-0.125226
-0.124813
-0.124537
-0.1244
-0.182062
-0.178268
-0.174716
-0.171123
-0.167617
-0.164225
-0.160966
-0.157843
-0.154858
-0.152013
-0.149307
-0.14674
-0.144311
-0.142021
-0.139868
-0.137852
-0.135974
-0.134232
-0.132627
-0.131158
-0.129824
-0.128625
-0.12756
-0.12663
-0.125833
-0.12517
-0.12464
-0.124242
-0.123977
-0.123845
-0.178772
-0.17517
-0.171793
-0.168377
-0.16504
-0.161809
-0.158702
-0.155724
-0.152876
-0.150159
-0.147574
-0.145121
-0.142798
-0.140606
-0.138546
-0.136616
-0.134816
-0.133147
-0.131609
-0.1302
-0.12892
-0.12777
-0.126748
-0.125855
-0.12509
-0.124453
-0.123944
-0.123562
-0.123308
-0.123181
-0.175404
-0.171991
-0.168787
-0.165546
-0.162376
-0.159305
-0.15635
-0.153514
-0.150801
-0.148211
-0.145746
-0.143404
-0.141187
-0.139093
-0.137124
-0.135279
-0.133558
-0.131961
-0.130488
-0.129138
-0.127913
-0.126811
-0.125832
-0.124976
-0.124242
-0.123632
-0.123143
-0.122777
-0.122533
-0.122411
-0.171965
-0.168738
-0.165706
-0.162638
-0.159633
-0.15672
-0.153914
-0.151219
-0.148639
-0.146175
-0.143828
-0.141597
-0.139483
-0.137487
-0.135608
-0.133846
-0.132203
-0.130677
-0.129269
-0.127979
-0.126807
-0.125753
-0.124816
-0.123996
-0.123294
-0.12271
-0.122242
-0.121891
-0.121658
-0.121541
-0.168462
-0.16542
-0.162557
-0.15966
-0.156818
-0.15406
-0.151401
-0.148845
-0.146397
-0.144057
-0.141826
-0.139704
-0.137693
-0.135792
-0.134002
-0.132324
-0.130757
-0.129301
-0.127958
-0.126727
-0.125607
-0.1246
-0.123705
-0.122922
-0.122251
-0.121692
-0.121245
-0.12091
-0.120686
-0.120574
-0.164904
-0.162042
-0.159347
-0.156617
-0.153936
-0.151331
-0.148817
-0.146399
-0.14408
-0.141862
-0.139746
-0.137732
-0.135822
-0.134015
-0.132313
-0.130716
-0.129225
-0.127839
-0.126559
-0.125386
-0.124319
-0.123358
-0.122504
-0.121757
-0.121117
-0.120583
-0.120157
-0.119836
-0.119623
-0.119516
-0.161299
-0.158614
-0.156083
-0.153518
-0.150995
-0.148541
-0.146169
-0.143886
-0.141695
-0.139597
-0.137593
-0.135686
-0.133875
-0.132161
-0.130546
-0.129029
-0.127612
-0.126294
-0.125077
-0.123961
-0.122946
-0.122031
-0.121218
-0.120507
-0.119897
-0.119388
-0.118981
-0.118676
-0.118473
-0.118371
-0.157653
-0.155142
-0.152772
-0.150369
-0.148001
-0.145695
-0.143463
-0.141313
-0.139246
-0.137266
-0.135374
-0.13357
-0.131857
-0.130235
-0.128704
-0.127267
-0.125923
-0.124673
-0.123518
-0.122458
-0.121493
-0.120624
-0.119851
-0.119175
-0.118594
-0.118111
-0.117724
-0.117433
-0.11724
-0.117143
-0.153975
-0.151633
-0.149422
-0.147177
-0.14496
-0.142799
-0.140705
-0.138684
-0.13674
-0.134876
-0.133092
-0.131391
-0.129774
-0.128241
-0.126795
-0.125435
-0.124163
-0.122979
-0.121885
-0.12088
-0.119965
-0.119141
-0.118408
-0.117766
-0.117215
-0.116756
-0.116388
-0.116112
-0.115928
-0.115836
-0.150272
-0.148095
-0.146039
-0.143948
-0.14188
-0.13986
-0.1379
-0.136007
-0.134183
-0.132432
-0.130755
-0.129154
-0.127631
-0.126186
-0.124822
-0.123538
-0.122337
-0.121218
-0.120184
-0.119233
-0.118367
-0.117587
-0.116893
-0.116284
-0.115762
-0.115327
-0.114979
-0.114717
-0.114543
-0.114456
-0.146551
-0.144535
-0.14263
-0.140689
-0.138765
-0.136883
-0.135055
-0.133285
-0.131579
-0.129939
-0.128366
-0.126863
-0.125432
-0.124074
-0.12279
-0.121581
-0.120449
-0.119394
-0.118418
-0.117521
-0.116703
-0.115966
-0.11531
-0.114735
-0.114241
-0.11383
-0.1135
-0.113253
-0.113088
-0.113005
-0.142819
-0.14096
-0.1392
-0.137405
-0.135622
-0.133875
-0.132174
-0.130526
-0.128934
-0.127402
-0.125931
-0.124525
-0.123183
-0.121909
-0.120704
-0.119568
-0.118504
-0.117512
-0.116593
-0.115748
-0.114978
-0.114283
-0.113664
-0.113122
-0.112656
-0.112267
-0.111956
-0.111722
-0.111567
-0.111489
-0.139082
-0.137374
-0.135757
-0.134103
-0.132457
-0.130841
-0.129264
-0.127734
-0.126253
-0.124827
-0.123455
-0.122142
-0.120889
-0.119697
-0.118569
-0.117505
-0.116507
-0.115576
-0.114713
-0.113919
-0.113195
-0.112541
-0.111959
-0.111449
-0.11101
-0.110644
-0.110351
-0.110131
-0.109984
-0.109911
-0.135347
-0.133785
-0.132305
-0.130789
-0.129275
-0.127785
-0.126329
-0.124913
-0.123542
-0.122217
-0.120943
-0.119721
-0.118554
-0.117442
-0.116389
-0.115394
-0.114461
-0.11359
-0.112782
-0.112038
-0.111359
-0.110746
-0.110199
-0.10972
-0.109308
-0.108964
-0.108689
-0.108482
-0.108344
-0.108275
-0.131619
-0.130198
-0.128851
-0.127466
-0.12608
-0.124714
-0.123375
-0.12207
-0.120804
-0.119579
-0.118399
-0.117266
-0.116182
-0.115148
-0.114168
-0.113242
-0.112371
-0.111558
-0.110804
-0.110108
-0.109474
-0.1089
-0.108389
-0.10794
-0.107554
-0.107232
-0.106974
-0.10678
-0.106651
-0.106586
-0.127903
-0.126618
-0.125398
-0.124141
-0.122879
-0.121631
-0.120405
-0.119208
-0.118044
-0.116916
-0.115827
-0.11478
-0.113777
-0.11282
-0.111911
-0.111051
-0.110242
-0.109486
-0.108783
-0.108135
-0.107544
-0.107009
-0.106531
-0.106112
-0.105752
-0.105451
-0.10521
-0.105028
-0.104907
-0.104847
-0.124205
-0.123049
-0.121952
-0.120818
-0.119675
-0.118541
-0.117425
-0.116332
-0.115267
-0.114233
-0.113233
-0.112269
-0.111345
-0.110461
-0.109621
-0.108826
-0.108076
-0.107375
-0.106723
-0.106122
-0.105572
-0.105075
-0.104631
-0.10424
-0.103905
-0.103625
-0.1034
-0.103231
-0.103118
-0.103062
-0.120528
-0.119496
-0.118518
-0.117501
-0.116473
-0.115449
-0.114438
-0.113446
-0.112476
-0.111533
-0.110619
-0.109736
-0.108888
-0.108077
-0.107303
-0.10657
-0.105879
-0.105232
-0.104629
-0.104073
-0.103563
-0.103102
-0.102691
-0.102329
-0.102017
-0.101757
-0.101548
-0.101391
-0.101286
-0.101234
-0.116876
-0.115963
-0.115098
-0.114194
-0.113276
-0.112359
-0.111449
-0.110554
-0.109677
-0.108821
-0.10799
-0.107186
-0.106411
-0.105669
-0.104961
-0.104288
-0.103654
-0.103058
-0.102503
-0.10199
-0.101521
-0.101095
-0.100715
-0.10038
-0.100092
-0.0998514
-0.0996582
-0.0995129
-0.0994159
-0.0993674
-0.113252
-0.112454
-0.111697
-0.110902
-0.110089
-0.109273
-0.108462
-0.10766
-0.106871
-0.1061
-0.105349
-0.104621
-0.103918
-0.103243
-0.102597
-0.101983
-0.101403
-0.100858
-0.10035
-0.0998792
-0.0994479
-0.0990567
-0.0987068
-0.0983988
-0.0981336
-0.0979116
-0.0977335
-0.0975995
-0.0975101
-0.0974653
-0.109661
-0.108971
-0.108317
-0.107626
-0.106914
-0.106196
-0.105479
-0.104767
-0.104064
-0.103374
-0.102701
-0.102045
-0.101411
-0.100801
-0.100216
-0.0996593
-0.0991318
-0.0986355
-0.0981719
-0.0977423
-0.0973481
-0.0969903
-0.0966699
-0.0963877
-0.0961444
-0.0959408
-0.0957773
-0.0956543
-0.0955722
-0.095531
-0.106104
-0.105518
-0.104963
-0.10437
-0.103756
-0.103132
-0.102504
-0.101878
-0.101258
-0.100647
-0.100047
-0.0994627
-0.0988952
-0.0983474
-0.0978213
-0.097319
-0.0968425
-0.0963933
-0.095973
-0.0955831
-0.0952248
-0.0948991
-0.0946073
-0.09435
-0.0941281
-0.0939422
-0.0937929
-0.0936805
-0.0936054
-0.0935678
-0.102584
-0.102096
-0.101636
-0.101138
-0.100616
-0.100082
-0.0995407
-0.0989978
-0.0984567
-0.0979207
-0.0973929
-0.096876
-0.0963725
-0.0958849
-0.0954154
-0.0949659
-0.0945385
-0.0941348
-0.0937563
-0.0934047
-0.093081
-0.0927865
-0.0925222
-0.092289
-0.0920877
-0.091919
-0.0917833
-0.0916812
-0.091613
-0.0915788
-0.0991028
-0.0987093
-0.0983388
-0.097931
-0.0974976
-0.0970494
-0.0965913
-0.0961278
-0.0956626
-0.095199
-0.09474
-0.0942882
-0.0938463
-0.0934167
-0.0930016
-0.092603
-0.0922229
-0.091863
-0.0915249
-0.0912101
-0.0909198
-0.0906554
-0.0904177
-0.0902077
-0.0900263
-0.0898741
-0.0897517
-0.0896595
-0.0895978
-0.0895669
-0.0956628
-0.0953587
-0.095074
-0.0947523
-0.0944036
-0.0940375
-0.0936587
-0.0932713
-0.0928789
-0.0924847
-0.0920916
-0.0917024
-0.0913197
-0.0909458
-0.090583
-0.0902333
-0.0898987
-0.089581
-0.0892817
-0.0890023
-0.0887442
-0.0885087
-0.0882966
-0.088109
-0.0879468
-0.0878105
-0.0877008
-0.0876181
-0.0875628
-0.0875351
-0.0922655
-0.0920465
-0.0918435
-0.091604
-0.0913361
-0.0910484
-0.0907454
-0.0904308
-0.090108
-0.0897803
-0.0894505
-0.0891213
-0.0887953
-0.0884748
-0.0881622
-0.0878595
-0.0875686
-0.0872914
-0.0870294
-0.0867841
-0.086557
-0.0863492
-0.0861618
-0.0859957
-0.0858519
-0.0857309
-0.0856335
-0.08556
-0.0855108
-0.0854861
-0.0889123
-0.0887743
-0.0886492
-0.088488
-0.0882972
-0.0880845
-0.0878538
-0.0876088
-0.0873526
-0.0870885
-0.0868192
-0.0865475
-0.0862758
-0.0860066
-0.0857421
-0.0854844
-0.0852354
-0.084997
-0.0847708
-0.0845582
-0.0843608
-0.0841796
-0.0840159
-0.0838705
-0.0837443
-0.0836381
-0.0835524
-0.0834877
-0.0834444
-0.0834227
-0.0856046
-0.0855437
-0.0854928
-0.0854063
-0.0852889
-0.0851477
-0.0849862
-0.0848075
-0.0846151
-0.0844117
-0.0842003
-0.0839834
-0.0837637
-0.0835435
-0.083325
-0.0831104
-0.0829016
-0.0827003
-0.0825083
-0.0823272
-0.0821581
-0.0820025
-0.0818614
-0.0817358
-0.0816266
-0.0815345
-0.0814601
-0.0814038
-0.0813661
-0.0813472
-0.0823438
-0.0823562
-0.0823761
-0.0823606
-0.0823133
-0.0822403
-0.0821446
-0.0820293
-0.0818976
-0.0817522
-0.081596
-0.0814315
-0.0812614
-0.081088
-0.0809135
-0.08074
-0.0805695
-0.0804038
-0.0802446
-0.0800933
-0.0799515
-0.0798203
-0.0797009
-0.0795942
-0.0795012
-0.0794226
-0.079359
-0.0793108
-0.0792785
-0.0792623
-0.0791311
-0.0792133
-0.0793005
-0.0793527
-0.0793721
-0.079364
-0.079331
-0.0792761
-0.0792022
-0.0791121
-0.0790085
-0.078894
-0.0787712
-0.0786423
-0.0785098
-0.0783755
-0.0782416
-0.0781098
-0.0779818
-0.0778591
-0.0777432
-0.0776353
-0.0775366
-0.077448
-0.0773705
-0.0773047
-0.0772514
-0.0772109
-0.0771838
-0.0771701
-0.0759678
-0.0761163
-0.0762676
-0.0763842
-0.0764671
-0.0765207
-0.0765474
-0.0765499
-0.076531
-0.0764934
-0.0764399
-0.0763729
-0.0762951
-0.0762087
-0.076116
-0.0760191
-0.07592
-0.0758204
-0.0757221
-0.0756267
-0.0755354
-0.0754497
-0.0753707
-0.0752993
-0.0752365
-0.0751831
-0.0751395
-0.0751064
-0.0750842
-0.075073
-0.0728549
-0.0730666
-0.0732788
-0.0734566
-0.0735998
-0.0737121
-0.0737955
-0.0738526
-0.0738859
-0.0738982
-0.0738922
-0.0738703
-0.0738352
-0.0737891
-0.0737342
-0.0736728
-0.0736067
-0.0735378
-0.0734677
-0.0733981
-0.0733303
-0.0732657
-0.0732053
-0.0731503
-0.0731015
-0.0730597
-0.0730255
-0.0729994
-0.0729818
-0.0729729
-0.0697938
-0.0700654
-0.0703355
-0.0705714
-0.0707719
-0.0709399
-0.071077
-0.0711858
-0.0712686
-0.0713282
-0.0713671
-0.071388
-0.0713933
-0.0713854
-0.0713664
-0.0713385
-0.0713037
-0.0712638
-0.0712205
-0.0711753
-0.0711297
-0.0710851
-0.0710425
-0.071003
-0.0709674
-0.0709366
-0.0709112
-0.0708918
-0.0708785
-0.0708719
-0.0667856
-0.0671141
-0.0674391
-0.0677302
-0.0679849
-0.0682055
-0.0683936
-0.0685512
-0.0686808
-0.0687851
-0.0688666
-0.0689278
-0.0689713
-0.0689994
-0.0690143
-0.0690181
-0.0690128
-0.0690003
-0.0689822
-0.0689602
-0.0689356
-0.0689098
-0.068884
-0.0688591
-0.0688361
-0.0688157
-0.0687987
-0.0687854
-0.0687764
-0.0687718
-0.0638315
-0.0642139
-0.064591
-0.0649342
-0.0652402
-0.0655106
-0.0657467
-0.0659504
-0.0661242
-0.0662705
-0.0663921
-0.0664913
-0.0665708
-0.0666328
-0.0666796
-0.0667133
-0.0667358
-0.0667491
-0.0667548
-0.0667545
-0.0667497
-0.0667416
-0.0667315
-0.0667204
-0.0667092
-0.0666987
-0.0666895
-0.0666821
-0.066677
-0.0666744
-0.0609329
-0.0613662
-0.0617925
-0.0621849
-0.0625392
-0.0628565
-0.0631378
-0.0633849
-0.0636002
-0.0637861
-0.0639452
-0.0640802
-0.0641934
-0.0642872
-0.0643639
-0.0644256
-0.0644742
-0.0645117
-0.0645397
-0.0645598
-0.0645735
-0.0645821
-0.0645868
-0.0645886
-0.0645885
-0.0645872
-0.0645854
-0.0645835
-0.0645821
-0.0645813
-0.058091
-0.0585723
-0.0590449
-0.0594836
-0.0598833
-0.0602447
-0.0605683
-0.0608561
-0.0611101
-0.0613331
-0.0615274
-0.0616957
-0.0618405
-0.0619641
-0.0620687
-0.0621565
-0.0622295
-0.0622896
-0.0623384
-0.0623776
-0.0624086
-0.0624328
-0.0624513
-0.0624652
-0.0624754
-0.0624827
-0.0624878
-0.0624911
-0.0624931
-0.0624941
-0.0553071
-0.0558334
-0.0563496
-0.0568316
-0.0572738
-0.0576763
-0.0580396
-0.0583652
-0.0586555
-0.0589129
-0.05914
-0.0593394
-0.0595135
-0.0596647
-0.0597953
-0.0599075
-0.0600032
-0.0600842
-0.0601524
-0.0602093
-0.0602565
-0.0602951
-0.0603264
-0.0603516
-0.0603714
-0.0603867
-0.0603982
-0.0604063
-0.0604116
-0.0604141
-0.0525824
-0.0531509
-0.0537077
-0.0542301
-0.054712
-0.0551527
-0.0555527
-0.0559136
-0.0562374
-0.0565268
-0.0567842
-0.0570123
-0.0572136
-0.0573904
-0.0575451
-0.0576797
-0.0577964
-0.0578968
-0.0579829
-0.0580563
-0.0581183
-0.0581703
-0.0582135
-0.058249
-0.0582778
-0.0583005
-0.0583179
-0.0583305
-0.0583387
-0.0583427
-0.0499184
-0.050526
-0.0511205
-0.0516804
-0.0521989
-0.052675
-0.053109
-0.0535023
-0.053857
-0.0541758
-0.0544612
-0.0547157
-0.054942
-0.0551423
-0.0553191
-0.0554744
-0.0556103
-0.0557286
-0.0558312
-0.0559195
-0.0559952
-0.0560595
-0.0561137
-0.0561588
-0.0561957
-0.0562253
-0.0562481
-0.0562648
-0.0562757
-0.0562811
-0.0473161
-0.0479599
-0.0485891
-0.0491836
-0.0497357
-0.0502443
-0.0507094
-0.0511323
-0.0515154
-0.0518611
-0.0521719
-0.0524506
-0.0526996
-0.0529214
-0.0531183
-0.0532925
-0.0534459
-0.0535805
-0.0536981
-0.0538002
-0.0538884
-0.0539639
-0.0540281
-0.0540819
-0.0541263
-0.054162
-0.0541899
-0.0542103
-0.0542237
-0.0542303
-0.0447769
-0.0454538
-0.0461148
-0.0467407
-0.0473235
-0.0478616
-0.0483549
-0.0488048
-0.0492135
-0.0495835
-0.0499174
-0.0502179
-0.0504875
-0.0507287
-0.0509438
-0.051135
-0.0513043
-0.0514536
-0.0515847
-0.0516993
-0.0517987
-0.0518844
-0.0519576
-0.0520193
-0.0520705
-0.0521119
-0.0521442
-0.052168
-0.0521836
-0.0521914
-0.042302
-0.0430088
-0.0436985
-0.0443528
-0.0449631
-0.0455277
-0.0460464
-0.0465204
-0.0469521
-0.0473438
-0.0476984
-0.0480184
-0.0483064
-0.0485649
-0.0487963
-0.0490027
-0.0491862
-0.0493486
-0.0494919
-0.0496176
-0.0497271
-0.0498219
-0.0499032
-0.0499719
-0.0500291
-0.0500756
-0.050112
-0.0501388
-0.0501564
-0.0501652
-0.0398924
-0.0406259
-0.0413412
-0.0420207
-0.0426555
-0.0432436
-0.0437847
-0.0442801
-0.0447319
-0.0451429
-0.0455156
-0.0458528
-0.046157
-0.0464308
-0.0466765
-0.0468963
-0.0470923
-0.0472664
-0.0474203
-0.0475558
-0.0476743
-0.0477771
-0.0478655
-0.0479405
-0.0480031
-0.048054
-0.048094
-0.0481235
-0.0481429
-0.0481526
-0.0375491
-0.0383061
-0.0390438
-0.0397453
-0.0404014
-0.0410099
-0.0415704
-0.0420843
-0.0425537
-0.0429813
-0.0433697
-0.0437217
-0.0440399
-0.0443269
-0.044585
-0.0448164
-0.0450232
-0.0452074
-0.0453706
-0.0455146
-0.0456408
-0.0457506
-0.0458452
-0.0459257
-0.0459929
-0.0460477
-0.0460908
-0.0461227
-0.0461437
-0.0461541
-0.0352731
-0.0360503
-0.0368071
-0.0375272
-0.0382015
-0.0388273
-0.0394042
-0.0399337
-0.0404179
-0.0408595
-0.0412611
-0.0416256
-0.0419557
-0.0422538
-0.0425224
-0.0427636
-0.0429795
-0.0431722
-0.0433433
-0.0434945
-0.0436273
-0.0437431
-0.043843
-0.043928
-0.0439993
-0.0440574
-0.0441032
-0.044137
-0.0441593
-0.0441705
-0.0330652
-0.0338591
-0.0346316
-0.0353671
-0.0360562
-0.0366961
-0.0372865
-0.0378287
-0.0383249
-0.0387778
-0.0391902
-0.0395649
-0.0399046
-0.0402118
-0.0404889
-0.0407381
-0.0409616
-0.0411612
-0.0413388
-0.0414959
-0.0416342
-0.0417548
-0.0418591
-0.041948
-0.0420225
-0.0420835
-0.0421314
-0.0421669
-0.0421904
-0.042202
-0.030926
-0.0317331
-0.032518
-0.0332655
-0.0339661
-0.0346169
-0.0352176
-0.0357696
-0.036275
-0.0367367
-0.0371574
-0.0375399
-0.037887
-0.0382011
-0.0384848
-0.0387403
-0.0389696
-0.0391747
-0.0393573
-0.0395192
-0.0396617
-0.0397863
-0.039894
-0.039986
-0.0400632
-0.0401263
-0.040176
-0.0402129
-0.0402372
-0.0402493
-0.0288561
-0.0296729
-0.0304666
-0.0312226
-0.0319313
-0.0325898
-0.0331977
-0.0337565
-0.0342683
-0.0347361
-0.0351625
-0.0355505
-0.0359028
-0.0362219
-0.0365103
-0.0367702
-0.0370038
-0.0372128
-0.0373992
-0.0375644
-0.0377101
-0.0378376
-0.0379479
-0.0380422
-0.0381213
-0.0381861
-0.0382372
-0.038275
-0.0383
-0.0383125
-0.0268558
-0.0276787
-0.0284778
-0.0292387
-0.029952
-0.0306149
-0.0312269
-0.0317895
-0.032305
-0.0327761
-0.0332058
-0.033597
-0.0339523
-0.0342743
-0.0345655
-0.0348281
-0.0350642
-0.0352757
-0.0354644
-0.0356319
-0.0357796
-0.0359089
-0.036021
-0.0361168
-0.0361973
-0.0362632
-0.0363151
-0.0363537
-0.0363792
-0.0363918
-0.0249254
-0.0257507
-0.0265514
-0.0273137
-0.0280283
-0.0286922
-0.0293051
-0.0298685
-0.0303847
-0.0308566
-0.0312871
-0.031679
-0.0320351
-0.032358
-0.0326501
-0.0329137
-0.0331507
-0.0333632
-0.0335529
-0.0337214
-0.0338701
-0.0340003
-0.0341132
-0.0342098
-0.0342909
-0.0343574
-0.0344099
-0.0344488
-0.0344746
-0.0344874
-0.023065
-0.023889
-0.0246877
-0.0254477
-0.0261599
-0.0268215
-0.0274321
-0.0279932
-0.0285074
-0.0289774
-0.0294061
-0.0297965
-0.0301512
-0.030473
-0.0307641
-0.0310269
-0.0312634
-0.0314754
-0.0316648
-0.031833
-0.0319816
-0.0321118
-0.0322247
-0.0323213
-0.0324025
-0.0324691
-0.0325217
-0.0325607
-0.0325865
-0.0325993
-0.0212744
-0.0220932
-0.0228862
-0.0236402
-0.0243466
-0.0250023
-0.0256074
-0.0261633
-0.0266725
-0.0271378
-0.0275623
-0.0279488
-0.0283
-0.0286186
-0.028907
-0.0291673
-0.0294016
-0.0296117
-0.0297995
-0.0299663
-0.0301137
-0.0302429
-0.030355
-0.030451
-0.0305317
-0.0305979
-0.0306501
-0.0306889
-0.0307145
-0.0307273
-0.0195535
-0.0203633
-0.0211467
-0.0218911
-0.0225879
-0.0232344
-0.0238307
-0.0243783
-0.0248797
-0.0253377
-0.0257555
-0.0261358
-0.0264814
-0.0267949
-0.0270786
-0.0273347
-0.0275653
-0.0277722
-0.027957
-0.0281214
-0.0282666
-0.0283939
-0.0285044
-0.028599
-0.0286786
-0.0287438
-0.0287954
-0.0288336
-0.0288589
-0.0288715
-0.0179016
-0.0186985
-0.0194684
-0.0201992
-0.0208829
-0.0215168
-0.0221009
-0.0226371
-0.0231278
-0.023576
-0.0239845
-0.0243563
-0.0246942
-0.0250006
-0.0252779
-0.0255282
-0.0257536
-0.0259558
-0.0261365
-0.0262972
-0.0264393
-0.0265638
-0.0266719
-0.0267645
-0.0268424
-0.0269063
-0.0269567
-0.0269942
-0.0270189
-0.0270313
-0.0163183
-0.0170984
-0.0178509
-0.0185645
-0.0192313
-0.019849
-0.0204178
-0.0209395
-0.0214167
-0.0218523
-0.0222492
-0.0226103
-0.0229383
-0.0232357
-0.0235048
-0.0237478
-0.0239665
-0.0241628
-0.0243382
-0.0244942
-0.024632
-0.0247529
-0.0248579
-0.0249478
-0.0250235
-0.0250856
-0.0251346
-0.025171
-0.025195
-0.025207
-0.0148026
-0.0155617
-0.0162928
-0.0169851
-0.0176313
-0.0182293
-0.0187795
-0.0192836
-0.0197445
-0.0201648
-0.0205477
-0.0208958
-0.0212119
-0.0214985
-0.0217577
-0.0219918
-0.0222024
-0.0223914
-0.0225603
-0.0227106
-0.0228433
-0.0229598
-0.0230609
-0.0231475
-0.0232205
-0.0232803
-0.0233275
-0.0233626
-0.0233858
-0.0233973
-0.0133538
-0.0140879
-0.0147936
-0.0154608
-0.0160827
-0.0166575
-0.0171858
-0.0176694
-0.0181111
-0.0185137
-0.0188801
-0.0192131
-0.0195154
-0.0197893
-0.020037
-0.0202606
-0.0204618
-0.0206424
-0.0208037
-0.0209472
-0.021074
-0.0211852
-0.0212818
-0.0213646
-0.0214342
-0.0214914
-0.0215365
-0.02157
-0.0215922
-0.0216032
-0.0119702
-0.0126749
-0.0133509
-0.0139888
-0.0145826
-0.0151306
-0.0156336
-0.0160937
-0.0165134
-0.0168956
-0.0172433
-0.0175591
-0.0178456
-0.0181051
-0.0183397
-0.0185514
-0.0187419
-0.0189128
-0.0190654
-0.0192012
-0.0193212
-0.0194265
-0.0195179
-0.0195962
-0.0196621
-0.0197162
-0.0197589
-0.0197906
-0.0198116
-0.0198221
-0.0106511
-0.0113224
-0.0119647
-0.0125695
-0.0131314
-0.0136492
-0.0141238
-0.0145573
-0.0149524
-0.0153119
-0.0156386
-0.0159351
-0.016204
-0.0164474
-0.0166674
-0.0168659
-0.0170444
-0.0172045
-0.0173476
-0.0174748
-0.0175872
-0.0176858
-0.0177714
-0.0178448
-0.0179066
-0.0179572
-0.0179972
-0.0180269
-0.0180466
-0.0180564
-0.0093939
-0.0100268
-0.0106308
-0.0111981
-0.0117242
-0.0122081
-0.012651
-0.013055
-0.0134227
-0.013757
-0.0140605
-0.0143358
-0.0145853
-0.014811
-0.0150149
-0.0151988
-0.0153642
-0.0155125
-0.0156449
-0.0157627
-0.0158668
-0.0159581
-0.0160374
-0.0161053
-0.0161624
-0.0162093
-0.0162464
-0.0162739
-0.0162921
-0.0163012
-0.00819796
-0.00878866
-0.00935039
-0.00987649
-0.0103631
-0.0108099
-0.011218
-0.0115897
-0.0119276
-0.0122344
-0.0125127
-0.012765
-0.0129934
-0.0132
-0.0133865
-0.0135547
-0.0137059
-0.0138414
-0.0139625
-0.0140701
-0.0141652
-0.0142486
-0.014321
-0.014383
-0.0144353
-0.0144781
-0.0145119
-0.0145371
-0.0145537
-0.0145619
-0.00705935
-0.00760201
-0.00811629
-0.00859652
-0.00903959
-0.00944544
-0.0098155
-0.010152
-0.0104575
-0.0107345
-0.0109856
-0.011213
-0.0114187
-0.0116047
-0.0117726
-0.0119238
-0.0120598
-0.0121817
-0.0122905
-0.0123872
-0.0124727
-0.0125476
-0.0126127
-0.0126684
-0.0127153
-0.0127538
-0.0127842
-0.0128068
-0.0128217
-0.0128293
-0.00597808
-0.00646931
-0.00693254
-0.00736332
-0.00775947
-0.00812136
-0.00845061
-0.00874947
-0.00902037
-0.00926577
-0.00948794
-0.00968899
-0.00987079
-0.010035
-0.0101832
-0.0103167
-0.0104366
-0.0105441
-0.01064
-0.0107253
-0.0108006
-0.0108666
-0.010924
-0.0109731
-0.0110144
-0.0110483