/*--------------------------------*- C++ -*----------------------------------*\
  =========                 |
  \\      /  F ield         | OpenFOAM: The Open Source CFD Toolbox
   \\    /   O peration     | Website:  https://openfoam.org
    \\  /    A nd           | Version:  7
     \\/     M anipulation  |
\*---------------------------------------------------------------------------*/
FoamFile
{
    version     2.0;
    format      ascii;
    class       volVectorField;
    location    "50";
    object      U;
}
// * * * * * * * * * * * * * * * * * * * * * * * * * * * * * * * * * * * * * //

dimensions      [0 1 -1 0 0 0 0];

internalField   nonuniform List<vector> 
6000
(
(0.720502 -0.0376275 -5.30129e-20)
(0.622642 -0.0296927 6.56004e-20)
(0.527547 -0.0233081 -4.1743e-20)
(0.362036 -0.018174 -5.02674e-20)
(0.437676 -0.0185467 -2.15099e-21)
(0.2904 -0.0160053 5.88504e-20)
(0.354652 -0.0153554 -3.38678e-20)
(0.2256 -0.0145245 -3.31014e-20)
(0.279315 -0.0135736 7.26418e-20)
(0.139737 -0.0181624 4.44034e-20)
(0.167477 -0.0136381 -6.61499e-20)
(0.21186 -0.0129494 -2.23695e-20)
(0.0922169 -0.0173526 -2.45901e-20)
(0.115682 -0.0132543 3.41298e-20)
(0.152019 -0.0131625 4.36793e-20)
(0.0502572 -0.016781 1.73327e-20)
(0.0697395 -0.0132537 -2.09629e-21)
(0.0992277 -0.0138572 -2.02216e-20)
(0.0133077 -0.0163471 2.22801e-20)
(0.0290954 -0.0135286 -6.03526e-21)
(0.052808 -0.0146431 3.36673e-21)
(-0.0312635 -0.0188377 -1.38647e-20)
(-0.0192031 -0.0159552 6.10896e-21)
(-0.00680546 -0.0140332 2.87351e-20)
(0.0121431 -0.0150217 -1.5984e-20)
(-0.0569456 -0.017879 3.82646e-20)
(-0.0478664 -0.0155252 -1.53592e-20)
(-0.0382254 -0.0144094 -1.78892e-20)
(-0.0234593 -0.0150552 1.55678e-21)
(-0.0794626 -0.0168124 -5.61407e-21)
(-0.0729752 -0.0149791 -1.72783e-20)
(-0.0656764 -0.0143209 -5.52877e-21)
(-0.0548569 -0.0150102 -2.78964e-20)
(-0.0990827 -0.0155855 -4.03756e-21)
(-0.0948265 -0.0142047 5.1633e-20)
(-0.089697 -0.0138402 2.67807e-20)
(-0.0823628 -0.0146782 6.29959e-21)
(-0.116006 -0.0141568 -1.14599e-20)
(-0.113674 -0.0131437 -3.15279e-20)
(-0.110552 -0.0129781 -3.08611e-20)
(-0.106143 -0.0138596 4.14224e-20)
(-0.130373 -0.0125056 -8.82743e-21)
(-0.129688 -0.0117798 3.0701e-20)
(-0.128362 -0.0117385 1.81654e-20)
(-0.126341 -0.0125596 -1.02322e-20)
(-0.142277 -0.0106318 1.03196e-20)
(-0.14297 -0.0101259 -4.22662e-21)
(-0.143182 -0.010153 -1.42745e-20)
(-0.143066 -0.0108552 -1.07425e-20)
(-0.151771 -0.00855375 -2.66322e-22)
(-0.153575 -0.00821536 -1.25289e-20)
(-0.155037 -0.00827263 1.36575e-20)
(-0.156392 -0.00883033 8.93446e-22)
(-0.155915 -0.0067429 -1.14618e-21)
(-0.158883 -0.00630381 1.0643e-21)
(-0.161525 -0.00609518 1.39927e-20)
(-0.163935 -0.00615847 -1.51331e-21)
(-0.166364 -0.00656427 -4.68335e-21)
(-0.16015 -0.0041665 6.21081e-21)
(-0.163626 -0.00392459 6.13825e-21)
(-0.166829 -0.00382062 -4.82473e-21)
(-0.169874 -0.00387575 -1.50771e-21)
(-0.173006 -0.00413041 2.27117e-22)
(-0.162271 -0.00152539 -3.58195e-21)
(-0.166002 -0.00146504 1.37445e-21)
(-0.169488 -0.00145149 -2.18383e-21)
(-0.172851 -0.00149119 5.74907e-22)
(-0.176332 -0.00159728 1.74301e-21)
(1.28798 -0.0982512 0)
(1.29917 -0.0978611 0)
(1.29708 -0.0963243 0)
(1.29115 -0.0941309 0)
(1.284 -0.0913968 0)
(1.27643 -0.0883399 0)
(1.26888 -0.085048 0)
(1.26165 -0.0815769 0)
(1.2549 -0.0779864 0)
(1.24864 -0.074317 0)
(1.24284 -0.0705942 0)
(1.23744 -0.0668373 0)
(1.2324 -0.0630619 0)
(1.2277 -0.059281 0)
(1.22332 -0.0555059 0)
(1.21926 -0.051745 0)
(1.21549 -0.0480051 0)
(1.21202 -0.0442905 0)
(1.20885 -0.0406044 0)
(1.20595 -0.036948 0)
(1.20334 -0.0333218 0)
(1.201 -0.0297251 0)
(1.19892 -0.0261564 0)
(1.19712 -0.0226136 0)
(1.19558 -0.0190941 0)
(1.1943 -0.015595 0)
(1.19327 -0.0121117 0)
(1.19251 -0.00864589 0)
(1.19199 -0.00517439 0)
(1.19175 -0.0017415 0)
(1.28352 -0.0902934 0)
(1.29827 -0.0903908 0)
(1.29769 -0.0893347 0)
(1.29245 -0.0874976 0)
(1.28574 -0.0850995 0)
(1.27852 -0.0823883 0)
(1.27124 -0.079454 0)
(1.26423 -0.0763444 0)
(1.25763 -0.0731099 0)
(1.2515 -0.0697861 0)
(1.2458 -0.0663963 0)
(1.24047 -0.0629585 0)
(1.23549 -0.0594874 0)
(1.23083 -0.055996 0)
(1.22648 -0.0524955 0)
(1.22243 -0.0489951 0)
(1.21867 -0.045502 0)
(1.21521 -0.0420217 0)
(1.21202 -0.0385581 0)
(1.20912 -0.0351138 0)
(1.2065 -0.03169 0)
(1.20415 -0.028287 0)
(1.20206 -0.0249046 0)
(1.20025 -0.0215414 0)
(1.1987 -0.0181959 0)
(1.1974 -0.014866 0)
(1.19637 -0.0115485 0)
(1.1956 -0.00824462 0)
(1.19508 -0.00493612 0)
(1.19484 -0.0016577 0)
(1.27898 -0.0823751 0)
(1.29739 -0.0829842 0)
(1.29843 -0.082519 0)
(1.29387 -0.0810853 0)
(1.28753 -0.079026 0)
(1.28058 -0.0766443 0)
(1.27352 -0.0740435 1.61499e-28)
(1.26668 -0.0712683 -3.50982e-29)
(1.26023 -0.068363 0)
(1.2542 -0.0653599 0)
(1.24858 -0.0622812 0)
(1.24333 -0.0591435 0)
(1.2384 -0.0559608 0)
(1.23378 -0.0527457 0)
(1.22945 -0.049509 0)
(1.22542 -0.0462603 0)
(1.22168 -0.0430072 0)
(1.21821 -0.0397559 0)
(1.21503 -0.036511 0)
(1.21212 -0.0332758 0)
(1.20949 -0.0300525 0)
(1.20713 -0.0268423 0)
(1.20504 -0.0236456 0)
(1.20321 -0.0204621 0)
(1.20165 -0.0172911 0)
(1.20036 -0.0141314 0)
(1.19932 -0.0109807 0)
(1.19854 -0.00784023 0)
(1.19802 -0.0046957 0)
(1.19778 -0.00157435 0)
(1.27425 -0.0747324 0)
(1.29638 -0.0757906 0)
(1.2992 -0.0758853 0)
(1.29536 -0.0748387 0)
(1.28937 -0.0731091 0)
(1.28265 -0.071048 0)
(1.27578 -0.0687671 -1.61499e-28)
(1.26908 -0.0663089 3.50982e-29)
(1.26274 -0.0637143 0)
(1.2568 -0.0610143 0)
(1.25125 -0.0582304 0)
(1.24605 -0.0553786 0)
(1.24116 -0.0524719 0)
(1.23658 -0.0495225 0)
(1.23228 -0.0465409 0)
(1.22826 -0.0435368 0)
(1.22452 -0.0405181 0)
(1.22106 -0.0374914 0)
(1.21788 -0.0344619 0)
(1.21497 -0.0314335 0)
(1.21233 -0.0284091 0)
(1.20996 -0.0253907 0)
(1.20786 -0.0223794 0)
(1.20603 -0.0193759 0)
(1.20446 -0.01638 0)
(1.20316 -0.0133912 0)
(1.20211 -0.0104084 0)
(1.20133 -0.00743267 0)
(1.20081 -0.0044531 0)
(1.20056 -0.00149115 0)
(1.26927 -0.0674491 0)
(1.29504 -0.0688893 0)
(1.29972 -0.0694646 0)
(1.29667 -0.0687583 0)
(1.29105 -0.0673347 0)
(1.28457 -0.0655792 0)
(1.27787 -0.063604 0)
(1.27131 -0.0614477 0)
(1.26507 -0.0591488 0)
(1.25921 -0.0567378 0)
(1.25372 -0.0542357 0)
(1.24858 -0.0516578 0)
(1.24374 -0.0490168 0)
(1.23919 -0.0463241 0)
(1.23491 -0.0435901 0)
(1.23091 -0.0408244 0)
(1.22719 -0.038035 0)
(1.22373 -0.0352289 0)
(1.22055 -0.0324117 0)
(1.21764 -0.0295879 0)
(1.215 -0.026761 0)
(1.21263 -0.0239335 0)
(1.21052 -0.0211074 0)
(1.20869 -0.0182837 0)
(1.20711 -0.0154633 0)
(1.2058 -0.0126462 0)
(1.20475 -0.00983209 0)
(1.20397 -0.00702228 0)
(1.20345 -0.00420854 0)
(1.2032 -0.00140792 0)
(1.26407 -0.0605047 0)
(1.2933 -0.0622739 0)
(1.29985 -0.0632644 0)
(1.29765 -0.0628576 0)
(1.29244 -0.061714 0)
(1.2862 -0.060245 0)
(1.27969 -0.0585576 0)
(1.27327 -0.0566869 0)
(1.26714 -0.0546689 0)
(1.26137 -0.0525334 0)
(1.25596 -0.0503008 0)
(1.25087 -0.0479859 0)
(1.24608 -0.0456006 0)
(1.24157 -0.043156 0)
(1.23733 -0.0406622 0)
(1.23336 -0.0381286 0)
(1.22965 -0.0355634 0)
(1.22621 -0.0329737 0)
(1.22304 -0.0303656 0)
(1.22014 -0.0277438 0)
(1.2175 -0.0251124 0)
(1.21513 -0.0224746 0)
(1.21302 -0.0198327 0)
(1.21118 -0.0171886 0)
(1.20961 -0.0145436 0)
(1.2083 -0.0118984 0)
(1.20725 -0.00925341 0)
(1.20646 -0.00661017 0)
(1.20593 -0.00396269 0)
(1.20568 -0.00132472 0)
(1.25874 -0.0538564 0)
(1.29121 -0.0559066 0)
(1.2996 -0.0572704 0)
(1.29828 -0.0571387 0)
(1.2935 -0.0562567 0)
(1.28753 -0.0550556 0)
(1.28121 -0.0536379 0)
(1.27494 -0.0520357 0)
(1.26893 -0.0502835 0)
(1.26326 -0.0484099 0)
(1.25793 -0.0464346 0)
(1.25291 -0.0443715 0)
(1.24819 -0.0422321 0)
(1.24373 -0.0400269 0)
(1.23953 -0.0377656 0)
(1.23559 -0.0354576 0)
(1.23191 -0.033111 0)
(1.22849 -0.0307332 0)
(1.22534 -0.0283302 0)
(1.22245 -0.0259074 0)
(1.21982 -0.0234691 0)
(1.21746 -0.021019 0)
(1.21535 -0.01856 0)
(1.21352 -0.0160944 0)
(1.21194 -0.0136241 0)
(1.21063 -0.0111505 0)
(1.20958 -0.0086744 0)
(1.2088 -0.00619778 0)
(1.20827 -0.00371645 0)
(1.20802 -0.00124173 0)
(1.25336 -0.0474772 0)
(1.28883 -0.0497586 0)
(1.29905 -0.0514656 0)
(1.29862 -0.0515944 0)
(1.29428 -0.0509621 0)
(1.28858 -0.0500143 0)
(1.28246 -0.0488498 0)
(1.27635 -0.0475005 0)
(1.27046 -0.0459997 0)
(1.26489 -0.044375 0)
(1.25965 -0.042645 0)
(1.25472 -0.0408228 0)
(1.25006 -0.0389194 0)
(1.24566 -0.0369447 0)
(1.24151 -0.0349082 0)
(1.23761 -0.032819 0)
(1.23397 -0.0306851 0)
(1.23058 -0.028514 0)
(1.22745 -0.0263119 0)
(1.22458 -0.0240844 0)
(1.22196 -0.0218363 0)
(1.21961 -0.0195715 0)
(1.21752 -0.0172934 0)
(1.21569 -0.0150047 0)
(1.21412 -0.0127079 0)
(1.21281 -0.0104049 0)
(1.21177 -0.00809702 0)
(1.21098 -0.00578649 0)
(1.21046 -0.00347071 0)
(1.21021 -0.00115916 0)
(1.24797 -0.0413529 0)
(1.28625 -0.0438151 0)
(1.29825 -0.0458386 0)
(1.29872 -0.0462153 0)
(1.29484 -0.0458239 0)
(1.28941 -0.0451176 0)
(1.28348 -0.0441929 0)
(1.27752 -0.0430829 0)
(1.27176 -0.0418208 0)
(1.2663 -0.0404328 0)
(1.26116 -0.0389367 0)
(1.2563 -0.0373449 0)
(1.25172 -0.0356679 0)
(1.24738 -0.0339151 0)
(1.24329 -0.0320957 0)
(1.23944 -0.0302184 0)
(1.23584 -0.0282912 0)
(1.23248 -0.0263215 0)
(1.22938 -0.0243158 0)
(1.22653 -0.0222797 0)
(1.22394 -0.0202184 0)
(1.2216 -0.018136 0)
(1.21952 -0.0160364 0)
(1.2177 -0.0139227 0)
(1.21614 -0.0117977 0)
(1.21484 -0.00966383 0)
(1.2138 -0.00752293 0)
(1.21302 -0.00537749 0)
(1.2125 -0.0032262 0)
(1.21224 -0.00107718 0)
(1.24263 -0.0354776 0)
(1.28349 -0.0380718 0)
(1.29722 -0.0403855 0)
(1.29861 -0.040995 0)
(1.29519 -0.0408354 0)
(1.29003 -0.0403603 0)
(1.2843 -0.0396641 0)
(1.27849 -0.0387819 0)
(1.27286 -0.037747 0)
(1.26751 -0.0365848 0)
(1.26246 -0.0353121 0)
(1.25769 -0.033941 0)
(1.25318 -0.0324813 0)
(1.24891 -0.0309421 0)
(1.24488 -0.0293322 0)
(1.24108 -0.02766 0)
(1.23752 -0.0259335 0)
(1.23421 -0.0241599 0)
(1.23114 -0.0223458 0)
(1.22831 -0.020497 0)
(1.22574 -0.0186188 0)
(1.22343 -0.0167158 0)
(1.22136 -0.0147919 0)
(1.21956 -0.0128508 0)
(1.21801 -0.0108956 0)
(1.21672 -0.00892904 0)
(1.21568 -0.00695352 0)
(1.2149 -0.00497176 0)
(1.21439 -0.00298353 0)
(1.21413 -0.000995948 0)
(1.23737 -0.0298392 0)
(1.28057 -0.0325218 0)
(1.29599 -0.0351039 0)
(1.29829 -0.0359299 0)
(1.29534 -0.0359924 0)
(1.29045 -0.0357386 0)
(1.28491 -0.0352606 0)
(1.27926 -0.034596 0)
(1.27376 -0.0337781 0)
(1.26852 -0.0328316 0)
(1.26356 -0.0317727 0)
(1.25888 -0.0306131 0)
(1.25445 -0.0293622 0)
(1.25025 -0.0280287 0)
(1.24628 -0.026621 0)
(1.24254 -0.0251474 0)
(1.23903 -0.0236155 0)
(1.23576 -0.0220326 0)
(1.23272 -0.0204053 0)
(1.22993 -0.0187395 0)
(1.22739 -0.0170407 0)
(1.22509 -0.0153135 0)
(1.22305 -0.0135624 0)
(1.22126 -0.0117912 0)
(1.21972 -0.0100034 0)
(1.21844 -0.00820209 0)
(1.21741 -0.00639 0)
(1.21664 -0.00457017 0)
(1.21613 -0.00274323 0)
(1.21588 -0.000915612 0)
(1.23221 -0.0244322 0)
(1.27754 -0.027161 0)
(1.29456 -0.0299942 0)
(1.29777 -0.031017 0)
(1.29529 -0.0312918 0)
(1.29069 -0.0312504 0)
(1.28534 -0.0309812 0)
(1.27984 -0.0305244 0)
(1.27447 -0.0299138 0)
(1.26934 -0.0291737 0)
(1.26448 -0.0283197 0)
(1.25989 -0.027363 0)
(1.25554 -0.0263128 0)
(1.25141 -0.0251774 0)
(1.24751 -0.023965 0)
(1.24382 -0.0226834 0)
(1.24036 -0.0213402 0)
(1.23714 -0.0199426 0)
(1.23414 -0.0184972 0)
(1.23139 -0.01701 0)
(1.22887 -0.0154866 0)
(1.2266 -0.0139318 0)
(1.22458 -0.0123502 0)
(1.22281 -0.010746 0)
(1.22128 -0.00912292 0)
(1.22001 -0.00748439 0)
(1.21899 -0.00583349 0)
(1.21823 -0.0041735 0)
(1.21772 -0.0025058 0)
(1.21747 -0.000836303 0)
(1.22717 -0.0192371 0)
(1.27439 -0.02198 0)
(1.29295 -0.0250557 0)
(1.29705 -0.0262532 0)
(1.29506 -0.0267317 0)
(1.29073 -0.0268945 0)
(1.28558 -0.0268252 0)
(1.28024 -0.0265668 0)
(1.27499 -0.0261544 0)
(1.26997 -0.0256118 0)
(1.26522 -0.0249542 0)
(1.26071 -0.0241924 0)
(1.25644 -0.0233352 0)
(1.25239 -0.0223906 0)
(1.24856 -0.0213665 0)
(1.24494 -0.0202706 0)
(1.24153 -0.0191103 0)
(1.23835 -0.0178927 0)
(1.2354 -0.0166243 0)
(1.23268 -0.0153111 0)
(1.2302 -0.0139589 0)
(1.22796 -0.0125727 0)
(1.22596 -0.0111572 0)
(1.2242 -0.00971688 0)
(1.2227 -0.00825565 0)
(1.22144 -0.00677722 0)
(1.22043 -0.005285 0)
(1.21968 -0.00378248 0)
(1.21917 -0.00227168 0)
(1.21893 -0.000758149 0)
(1.22226 -0.0142623 0)
(1.27115 -0.0169781 0)
(1.29118 -0.0202917 0)
(1.29615 -0.0216331 0)
(1.29464 -0.0223096 0)
(1.2906 -0.0226706 0)
(1.28564 -0.0227923 0)
(1.28045 -0.0227231 0)
(1.27534 -0.0225001 0)
(1.27043 -0.0221467 0)
(1.26578 -0.0216775 0)
(1.26136 -0.0211027 0)
(1.25718 -0.020431 0)
(1.25321 -0.0196702 0)
(1.24944 -0.0188279 0)
(1.24588 -0.0179115 0)
(1.24253 -0.0169282 0)
(1.2394 -0.0158851 0)
(1.2365 -0.0147887 0)
(1.23382 -0.0136451 0)
(1.23137 -0.0124598 0)
(1.22916 -0.0112383 0)
(1.22719 -0.00998536 0)
(1.22545 -0.00870551 0)
(1.22397 -0.007403 0)
(1.22272 -0.00608176 0)
(1.22173 -0.00474545 0)
(1.22098 -0.00339777 0)
(1.22048 -0.00204127 0)
(1.22024 -0.000681273 0)
(1.21748 -0.00947946 0)
(1.26785 -0.0121527 0)
(1.28928 -0.0157024 0)
(1.29508 -0.0171508 0)
(1.29405 -0.0180266 0)
(1.2903 -0.0185787 0)
(1.28554 -0.018882 0)
(1.2805 -0.0189927 0)
(1.27551 -0.0189509 0)
(1.27072 -0.018779 0)
(1.26617 -0.0184904 0)
(1.26185 -0.0180953 0)
(1.25775 -0.0176019 0)
(1.25386 -0.017018 0)
(1.25016 -0.0163509 0)
(1.24667 -0.0156079 0)
(1.24338 -0.014796 0)
(1.2403 -0.0139221 0)
(1.23744 -0.0129927 0)
(1.2348 -0.0120138 0)
(1.23239 -0.0109913 0)
(1.23021 -0.00993039 0)
(1.22827 -0.00883618 0)
(1.22656 -0.00771331 0)
(1.22509 -0.00656621 0)
(1.22387 -0.00539903 0)
(1.22288 -0.00421564 0)
(1.22214 -0.00301994 0)
(1.22165 -0.00181495 0)
(1.22141 -0.000605783 0)
(1.21281 -0.00493569 0)
(1.26451 -0.00751687 0)
(1.28724 -0.0112873 0)
(1.29383 -0.0127988 0)
(1.29329 -0.0138824 0)
(1.28983 -0.0146191 0)
(1.28527 -0.0150924 0)
(1.28038 -0.0153746 0)
(1.27553 -0.0155067 0)
(1.27085 -0.0155089 0)
(1.2664 -0.0153936 0)
(1.26217 -0.0151709 0)
(1.25816 -0.014849 0)
(1.25435 -0.0144354 0)
(1.25073 -0.0139373 0)
(1.2473 -0.0133616 0)
(1.24407 -0.0127154 0)
(1.24105 -0.0120053 0)
(1.23824 -0.0112379 0)
(1.23564 -0.0104191 0)
(1.23327 -0.00955485 0)
(1.23113 -0.00865047 0)
(1.22921 -0.0077111 0)
(1.22753 -0.00674154 0)
(1.22608 -0.00574638 0)
(1.22487 -0.00472994 0)
(1.2239 -0.0036963 0)
(1.22317 -0.00264953 0)
(1.22269 -0.00159301 0)
(1.22245 -0.000531777 0)
(1.20826 -0.000570091 0)
(1.26119 -0.0030912 0)
(1.28508 -0.00702946 0)
(1.29243 -0.00857895 0)
(1.29239 -0.00988465 0)
(1.28922 -0.0107884 0)
(1.28485 -0.0114209 0)
(1.28011 -0.011868 0)
(1.27539 -0.0121676 0)
(1.27082 -0.0123367 0)
(1.26648 -0.0123876 0)
(1.26235 -0.0123303 0)
(1.25842 -0.0121732 0)
(1.25469 -0.0119235 0)
(1.25114 -0.0115881 0)
(1.24778 -0.011174 0)
(1.24462 -0.0106878 0)
(1.24165 -0.0101363 0)
(1.23889 -0.0095258 0)
(1.23634 -0.00886243 0)
(1.23401 -0.00815196 0)
(1.2319 -0.00739986 0)
(1.23001 -0.00661132 0)
(1.22835 -0.00579129 0)
(1.22693 -0.00494445 0)
(1.22574 -0.00407528 0)
(1.22478 -0.00318805 0)
(1.22406 -0.00228698 0)
(1.22359 -0.00137575 0)
(1.22335 -0.000459342 0)
(1.20386 0.00365503 0)
(1.25793 0.00111714 0)
(1.28279 -0.0028992 0)
(1.29089 -0.00449949 0)
(1.29135 -0.00603218 0)
(1.28845 -0.00708002 0)
(1.28427 -0.00786499 0)
(1.27969 -0.00847294 0)
(1.2751 -0.00893343 0)
(1.27065 -0.00926242 0)
(1.2664 -0.00947251 0)
(1.26237 -0.00957406 0)
(1.25853 -0.00957527 0)
(1.25488 -0.00948319 0)
(1.25141 -0.00930456 0)
(1.24812 -0.0090461 0)
(1.24502 -0.00871448 0)
(1.24211 -0.00831625 0)
(1.2394 -0.00785774 0)
(1.2369 -0.00734499 0)
(1.23461 -0.0067838 0)
(1.23253 -0.00617968 0)
(1.23068 -0.0055379 0)
(1.22905 -0.00486348 0)
(1.22765 -0.00416123 0)
(1.22647 -0.00343575 0)
(1.22553 -0.00269144 0)
(1.22483 -0.00193268 0)
(1.22436 -0.0011634 0)
(1.22412 -0.000388554 0)
(1.19965 0.00769319 0)
(1.25469 0.00514191 0)
(1.28037 0.00113921 0)
(1.28925 -0.00058213 0)
(1.29017 -0.00232051 0)
(1.28754 -0.00348803 0)
(1.28356 -0.00442591 0)
(1.27913 -0.00518968 0)
(1.27467 -0.00580396 0)
(1.27033 -0.00628573 0)
(1.26619 -0.00664843 0)
(1.26225 -0.00690242 0)
(1.2585 -0.00705571 0)
(1.25493 -0.00711517 0)
(1.25154 -0.00708738 0)
(1.24832 -0.00697894 0)
(1.24528 -0.00679642 0)
(1.24243 -0.00654626 0)
(1.23978 -0.00623472 0)
(1.23732 -0.00586783 0)
(1.23507 -0.00545138 0)
(1.23303 -0.0049909 0)
(1.23121 -0.00449172 0)
(1.22961 -0.00395893 0)
(1.22823 -0.00339742 0)
(1.22708 -0.00281192 0)
(1.22615 -0.00220694 0)
(1.22546 -0.00158697 0)
(1.225 -0.000956173 0)
(1.22477 -0.000319477 0)
(1.19564 0.0115484 0)
(1.25142 0.00902668 0)
(1.27785 0.00505109 0)
(1.28751 0.00316039 0)
(1.28885 0.0012783 0)
(1.2865 -1.46345e-05 0)
(1.28271 -0.00110613 0)
(1.27844 -0.00201791 0)
(1.2741 -0.00277847 0)
(1.26988 -0.00340641 0)
(1.26584 -0.00391544 0)
(1.262 -0.0043157 0)
(1.25834 -0.00461496 0)
(1.25485 -0.00481997 0)
(1.25153 -0.00493723 0)
(1.24839 -0.00497323 0)
(1.24541 -0.00493442 0)
(1.24262 -0.00482715 0)
(1.24002 -0.00465762 0)
(1.23761 -0.00443183 0)
(1.23541 -0.00415554 0)
(1.23341 -0.00383433 0)
(1.23162 -0.00347354 0)
(1.23005 -0.00307831 0)
(1.22869 -0.00265363 0)
(1.22756 -0.0022043 0)
(1.22665 -0.00173494 0)
(1.22597 -0.00125014 0)
(1.22551 -0.000754243 0)
(1.22529 -0.000252171 0)
(1.1918 0.0152425 0)
(1.24811 0.0127712 0)
(1.2753 0.00881237 0)
(1.28565 0.0067509 0)
(1.28739 0.00476213 0)
(1.28532 0.00333242 0)
(1.28173 0.00209684 0)
(1.27761 0.00104401 0)
(1.2734 0.000143662 0)
(1.26929 -0.000624315 0)
(1.26536 -0.00127359 0)
(1.26161 -0.00181403 0)
(1.25804 -0.00225326 0)
(1.25464 -0.00259798 0)
(1.2514 -0.0028546 0)
(1.24832 -0.00302953 0)
(1.24542 -0.00312912 0)
(1.24269 -0.00315962 0)
(1.24014 -0.00312716 0)
(1.23778 -0.00303769 0)
(1.23562 -0.00289699 0)
(1.23366 -0.00271063 0)
(1.2319 -0.00248397 0)
(1.23036 -0.0022222 0)
(1.22903 -0.00193036 0)
(1.22792 -0.00161331 0)
(1.22702 -0.00127578 0)
(1.22635 -0.000922437 0)
(1.22591 -0.00055776 0)
(1.22569 -0.000186683 0)
(1.1881 0.0187856 0)
(1.2448 0.0163649 0)
(1.2727 0.0124203 0)
(1.28366 0.0102046 0)
(1.28581 0.00812094 0)
(1.28402 0.00655353 0)
(1.28062 0.00518358 0)
(1.27666 0.00399685 0)
(1.27258 0.00296279 0)
(1.26858 0.00206071 0)
(1.26476 0.00127717 0)
(1.2611 0.000602529 0)
(1.25762 2.91938e-05 0)
(1.2543 -0.000449464 0)
(1.25114 -0.000839843 0)
(1.24814 -0.00114828 0)
(1.2453 -0.001381 0)
(1.24262 -0.00154417 0)
(1.24013 -0.00164386 0)
(1.23782 -0.00168599 0)
(1.23571 -0.00167629 0)
(1.23378 -0.00162035 0)
(1.23207 -0.00152353 0)
(1.23055 -0.00139106 0)
(1.22925 -0.00122802 0)
(1.22816 -0.00103932 0)
(1.22728 -0.000829753 0)
(1.22662 -0.000604066 0)
(1.22618 -0.000366853 0)
(1.22597 -0.000123052 0)
(1.18454 0.0221793 -1.10486e-11)
(1.24151 0.0198041 -1.07792e-11)
(1.27004 0.0158782 0)
(1.28156 0.0135255 -1.0271e-11)
(1.28412 0.0113498 -1.0023e-11)
(1.28261 0.0096509 -2.81992e-28)
(1.2794 0.00815443 9.55353e-12)
(1.27558 0.00684066 9.33402e-12)
(1.27163 0.00567897 0)
(1.26776 0.00464876 0)
(1.26403 0.00373696 0)
(1.26047 0.00293404 0)
(1.25708 0.00223242 0)
(1.25385 0.00162547 0)
(1.25076 0.00110682 0)
(1.24783 0.000670251 0)
(1.24506 0.000309593 0)
(1.24245 1.87635e-05 0)
(1.24001 -0.000208176 0)
(1.23775 -0.000377132 0)
(1.23568 -0.000493871 7.3917e-12)
(1.2338 -0.000563911 1.46197e-11)
(1.23211 -0.000592631 7.2373e-12)
(1.23063 -0.00058527 0)
(1.22935 -0.000546932 -7.1198e-12)
(1.22828 -0.000482586 -7.07473e-12)
(1.22742 -0.000397074 0)
(1.22678 -0.000295187 -7.01178e-12)
(1.22635 -0.000181619 -6.99382e-12)
(1.22613 -6.1316e-05 -2.01395e-28)
(1.18112 0.0254239 1.10487e-11)
(1.23825 0.023091 1.07792e-11)
(1.26734 0.0191884 0)
(1.27937 0.0167136 1.0271e-11)
(1.28232 0.0144484 1.0023e-11)
(1.28108 0.012626 2.81992e-28)
(1.27806 0.0110099 -9.55353e-12)
(1.2744 0.0095755 -9.33402e-12)
(1.27057 0.00829229 0)
(1.26681 0.00714004 0)
(1.26319 0.00610596 0)
(1.25973 0.00518065 0)
(1.25643 0.00435647 0)
(1.25328 0.00362678 0)
(1.25027 0.0029853 0)
(1.24741 0.00242588 0)
(1.2447 0.00194245 0)
(1.24215 0.001529 0)
(1.23977 0.00117965 0)
(1.23756 0.000888537 0)
(1.23554 0.00064994 -7.3917e-12)
(1.23369 0.000458361 -1.46197e-11)
(1.23205 0.000308426 -7.2373e-12)
(1.23059 0.00019489 0)
(1.22934 0.000112631 7.1198e-12)
(1.22829 5.6654e-05 7.07473e-12)
(1.22745 2.20764e-05 0)
(1.22682 4.05598e-06 7.01178e-12)
(1.2264 -2.14674e-06 6.99382e-12)
(1.22619 -1.4897e-06 2.01395e-28)
(1.17782 0.0285202 0)
(1.23501 0.0262283 0)
(1.26458 0.0223522 0)
(1.2771 0.0197682 0)
(1.28042 0.0174175 0)
(1.27944 0.0154798 0)
(1.27662 0.0137506 0)
(1.2731 0.0122017 0)
(1.26941 0.0108031 0)
(1.26576 0.00953488 0)
(1.26224 0.0083845 0)
(1.25888 0.00734259 0)
(1.25567 0.00640149 0)
(1.2526 0.00555457 0)
(1.24967 0.00479562 0)
(1.24688 0.00411859 0)
(1.24424 0.0035175 0)
(1.24175 0.00298639 0)
(1.23942 0.00251943 0)
(1.23727 0.00211083 0)
(1.23528 0.00175493 0)
(1.23348 0.00144624 0)
(1.23187 0.00117942 0)
(1.23045 0.00094921 0)
(1.22923 0.000750489 0)
(1.2282 0.000578244 0)
(1.22737 0.000427569 0)
(1.22676 0.000293588 0)
(1.22634 0.000171515 0)
(1.22614 5.63948e-05 0)
(1.17463 0.0314698 0)
(1.2318 0.0292179 0)
(1.26178 0.0253702 0)
(1.27475 0.0226894 0)
(1.27843 0.0202582 0)
(1.27771 0.0182129 0)
(1.27507 0.016377 0)
(1.27171 0.0147199 0)
(1.26814 0.0132119 0)
(1.26461 0.0118338 0)
(1.26119 0.010573 0)
(1.25792 0.00942019 0)
(1.2548 0.00836774 0)
(1.25181 0.00740903 0)
(1.24896 0.00653793 0)
(1.24624 0.00574847 0)
(1.24367 0.00503474 0)
(1.24124 0.00439087 0)
(1.23897 0.00381109 0)
(1.23686 0.00328965 0)
(1.23493 0.00282098 0)
(1.23317 0.00239961 0)
(1.23159 0.00202022 0)
(1.2302 0.00167756 0)
(1.229 0.00136651 0)
(1.228 0.00108207 0)
(1.22719 0.00081931 0)
(1.22659 0.000573337 0)
(1.22618 0.000339324 0)
(1.22598 0.000112325 0)
(1.17156 0.0342742 0)
(1.22862 0.0320613 0)
(1.25895 0.0282435 0)
(1.27232 0.0254777 0)
(1.27635 0.0229712 0)
(1.27588 0.0208259 0)
(1.27343 0.0188897 0)
(1.27021 0.0171306 0)
(1.26677 0.0155195 0)
(1.26335 0.0140374 0)
(1.26004 0.012672 0)
(1.25687 0.0114139 0)
(1.25383 0.0102556 0)
(1.25093 0.0091905 0)
(1.24815 0.00821249 0)
(1.24551 0.0073157 0)
(1.243 0.00649432 0)
(1.24063 0.00574254 0)
(1.23842 0.00505466 0)
(1.23636 0.00442501 0)
(1.23447 0.00384807 0)
(1.23275 0.00331842 0)
(1.23121 0.00283075 0)
(1.22985 0.00237986 0)
(1.22868 0.00196064 0)
(1.2277 0.00156807 0)
(1.22691 0.00119724 0)
(1.22632 0.000843254 0)
(1.22592 0.000501247 0)
(1.22572 0.000166295 0)
(1.16859 0.0369353 0)
(1.22548 0.0347598 0)
(1.25609 0.0309734 0)
(1.26984 0.0281338 0)
(1.27419 0.0255574 0)
(1.27396 0.0233196 0)
(1.2717 0.0212896 0)
(1.26863 0.0194348 0)
(1.26532 0.0177266 0)
(1.26201 0.0161464 0)
(1.2588 0.0146821 0)
(1.25572 0.0133244 0)
(1.25277 0.0120657 0)
(1.24995 0.0108994 0)
(1.24725 0.00981966 0)
(1.24468 0.00882059 0)
(1.24223 0.00789646 0)
(1.23993 0.00704157 0)
(1.23777 0.00625028 0)
(1.23576 0.005517 0)
(1.23392 0.00483626 0)
(1.23224 0.00420269 0)
(1.23074 0.00361104 0)
(1.22941 0.00305611 0)
(1.22826 0.00253284 0)
(1.2273 0.00203623 0)
(1.22653 0.00156135 0)
(1.22595 0.00110332 0)
(1.22556 0.000657271 0)
(1.22537 0.000218301 0)
(1.16572 0.0394546 0)
(1.22237 0.037315 0)
(1.25321 0.0335615 0)
(1.2673 0.0306586 0)
(1.27196 0.0280178 0)
(1.27197 0.0256948 0)
(1.26988 0.0235777 0)
(1.26696 0.0216333 0)
(1.26377 0.019834 0)
(1.26057 0.0181616 0)
(1.25747 0.0166041 0)
(1.25448 0.0151522 0)
(1.25162 0.0137984 0)
(1.24888 0.0125363 0)
(1.24625 0.0113599 0)
(1.24375 0.0102635 0)
(1.24138 0.00924152 0)
(1.23913 0.00828825 0)
(1.23703 0.00739817 0)
(1.23507 0.00656578 0)
(1.23327 0.00578567 0)
(1.23164 0.00505253 0)
(1.23017 0.00436114 0)
(1.22887 0.00370637 0)
(1.22775 0.00308316 0)
(1.22681 0.00248655 0)
(1.22606 0.00191164 0)
(1.22549 0.00135354 0)
(1.22511 0.000807401 0)
(1.22493 0.000268344 0)
(1.16294 0.041834 0)
(1.2193 0.0397287 0)
(1.25031 0.0360097 0)
(1.2647 0.0330531 0)
(1.26966 0.0303537 0)
(1.2699 0.0279528 0)
(1.26799 0.0257549 0)
(1.26521 0.0237273 0)
(1.26215 0.0218429 0)
(1.25906 0.0200841 0)
(1.25605 0.0184389 0)
(1.25316 0.0168983 0)
(1.25038 0.0154547 0)
(1.24772 0.0141018 0)
(1.24517 0.0128338 0)
(1.24274 0.011645 0)
(1.24043 0.0105299 0)
(1.23825 0.00948293 0)
(1.2362 0.00849865 0)
(1.23429 0.00757162 0)
(1.23254 0.00669652 0)
(1.23094 0.00586811 0)
(1.22951 0.00508121 0)
(1.22824 0.00433073 0)
(1.22715 0.00361168 0)
(1.22623 0.00291911 0)
(1.2255 0.00224815 0)
(1.22494 0.00159395 0)
(1.22457 0.000951654 0)
(1.22439 0.000316429 0)
(1.16025 0.0440757 0)
(1.21626 0.042003 0)
(1.2474 0.0383204 0)
(1.26207 0.0353188 0)
(1.2673 0.0325668 0)
(1.26776 0.030095 0)
(1.26603 0.0278228 0)
(1.26339 0.025718 0)
(1.26045 0.0237545 0)
(1.25747 0.0219149 0)
(1.25456 0.0201876 0)
(1.25176 0.0185635 0)
(1.24907 0.0170353 0)
(1.24649 0.0155968 0)
(1.24401 0.0142421 0)
(1.24165 0.0129657 0)
(1.2394 0.0117621 0)
(1.23728 0.0106261 0)
(1.23528 0.00955209 0)
(1.23343 0.00853484 0)
(1.23172 0.00756909 0)
(1.23016 0.00664965 0)
(1.22876 0.00577141 0)
(1.22753 0.00492936 0)
(1.22646 0.00411852 0)
(1.22557 0.003334 0)
(1.22485 0.00257096 0)
(1.22431 0.00182459 0)
(1.22395 0.00109006 0)
(1.22377 0.000362567 0)
(1.15764 0.0461818 0)
(1.21326 0.0441403 0)
(1.24447 0.0404958 0)
(1.25939 0.0374576 0)
(1.26488 0.0346587 0)
(1.26555 0.0321231 0)
(1.26399 0.0297829 0)
(1.2615 0.0276069 0)
(1.25868 0.02557 0)
(1.25581 0.0236552 0)
(1.25299 0.0218511 0)
(1.25028 0.0201489 0)
(1.24768 0.0185412 0)
(1.24517 0.017022 0)
(1.24277 0.0155854 0)
(1.24048 0.0142261 0)
(1.2383 0.0129389 0)
(1.23623 0.0117182 0)
(1.23429 0.010559 0)
(1.23248 0.00945585 0)
(1.23082 0.00840371 0)
(1.2293 0.00739744 0)
(1.22794 0.00643201 0)
(1.22673 0.00550244 0)
(1.22569 0.00460384 0)
(1.22482 0.00373134 0)
(1.22412 0.00288017 0)
(1.22359 0.00204553 0)
(1.22324 0.00122265 0)
(1.22306 0.00040677 0)
(1.1551 0.0481551 0)
(1.2103 0.0461433 0)
(1.24155 0.0425387 0)
(1.25668 0.0394715 0)
(1.26242 0.0366316 0)
(1.2633 0.0340389 0)
(1.2619 0.0316368 0)
(1.25954 0.0293957 0)
(1.25684 0.027291 0)
(1.25408 0.0253065 0)
(1.25136 0.023431 0)
(1.24874 0.0216557 0)
(1.24621 0.0199735 0)
(1.24379 0.0183783 0)
(1.24146 0.0168647 0)
(1.23924 0.0154272 0)
(1.23711 0.0140607 0)
(1.23511 0.01276 0)
(1.23322 0.0115198 0)
(1.23146 0.0103351 0)
(1.22984 0.0092008 0)
(1.22836 0.00811184 0)
(1.22704 0.00706329 0)
(1.22586 0.00605023 0)
(1.22485 0.00506783 0)
(1.224 0.0041113 0)
(1.22331 0.00317589 0)
(1.2228 0.00225686 0)
(1.22245 0.00134949 0)
(1.22228 0.000449054 0)
(1.15264 0.0499984 0)
(1.20738 0.048015 0)
(1.23863 0.0444521 0)
(1.25395 0.041363 0)
(1.25991 0.0384879 0)
(1.26099 0.0358445 0)
(1.25976 0.0333867 0)
(1.25753 0.031086 0)
(1.25495 0.0289191 0)
(1.25228 0.0268702 0)
(1.24966 0.0249284 0)
(1.24713 0.0230851 0)
(1.24468 0.0213333 0)
(1.24234 0.019667 0)
(1.24008 0.0180809 0)
(1.23792 0.0165697 0)
(1.23586 0.0151285 0)
(1.23391 0.013752 0)
(1.23208 0.0124352 0)
(1.23037 0.0111731 0)
(1.22879 0.00996079 0)
(1.22735 0.00879323 0)
(1.22606 0.00766558 0)
(1.22491 0.00657301 0)
(1.22393 0.00551074 0)
(1.2231 0.00447405 0)
(1.22243 0.00345826 0)
(1.22193 0.00245868 0)
(1.22159 0.00147062 0)
(1.22142 0.000489439 0)
(1.15026 0.0517152 0)
(1.2045 0.049759 0)
(1.23571 0.0462395 0)
(1.2512 0.043135 0)
(1.25737 0.0402301 0)
(1.25863 0.0375423 0)
(1.25756 0.0350346 0)
(1.25547 0.03268 0)
(1.25299 0.0304562 0)
(1.25043 0.0283481 0)
(1.24791 0.026345 0)
(1.24546 0.0244385 0)
(1.24309 0.0226218 0)
(1.24082 0.0208891 0)
(1.23864 0.019235 0)
(1.23654 0.0176547 0)
(1.23454 0.016143 0)
(1.23265 0.014695 0)
(1.23087 0.0133058 0)
(1.2292 0.0119705 0)
(1.22767 0.0106842 0)
(1.22627 0.00944206 0)
(1.22501 0.00823926 0)
(1.2239 0.00707109 0)
(1.22293 0.00593282 0)
(1.22212 0.00481982 0)
(1.22147 0.00372745 0)
(1.22098 0.00265109 0)
(1.22066 0.00158612 0)
(1.22049 0.000527947 0)
(1.14793 0.053309 0)
(1.20166 0.0513789 0)
(1.2328 0.0479045 0)
(1.24843 0.0447904 0)
(1.25479 0.0418611 0)
(1.25624 0.039135 0)
(1.25532 0.0365828 0)
(1.25335 0.0341797 0)
(1.25099 0.0319043 0)
(1.24853 0.029742 0)
(1.2461 0.0276824 0)
(1.24373 0.0257175 0)
(1.24145 0.0238405 0)
(1.23925 0.0220458 0)
(1.23713 0.0203283 0)
(1.2351 0.018683 0)
(1.23316 0.0171051 0)
(1.23132 0.0155899 0)
(1.22959 0.0141324 0)
(1.22798 0.0127279 0)
(1.22648 0.0113716 0)
(1.22512 0.0100588 0)
(1.22389 0.00878475 0)
(1.22281 0.00754482 0)
(1.22187 0.00633437 0)
(1.22108 0.00514882 0)
(1.22045 0.00398363 0)
(1.21997 0.00283423 0)
(1.21965 0.00169606 0)
(1.21949 0.000564603 0)
(1.14568 0.0547839 0)
(1.19886 0.0528789 0)
(1.22991 0.0494509 0)
(1.24565 0.0463327 0)
(1.25219 0.043384 0)
(1.25381 0.0406252 0)
(1.25303 0.038034 0)
(1.2512 0.0355874 0)
(1.24894 0.0332653 0)
(1.24658 0.0310536 0)
(1.24423 0.0289423 0)
(1.24195 0.0269235 0)
(1.23974 0.0249907 0)
(1.23762 0.0231384 0)
(1.23557 0.0213617 0)
(1.2336 0.0196558 0)
(1.23172 0.0180159 0)
(1.22994 0.0164374 0)
(1.22826 0.0149157 0)
(1.22668 0.0134459 0)
(1.22523 0.0120236 0)
(1.22391 0.010644 0)
(1.22272 0.0093025 0)
(1.22166 0.00799458 0)
(1.22075 0.00671569 0)
(1.21998 0.00546132 0)
(1.21936 0.00422699 0)
(1.2189 0.00300823 0)
(1.21859 0.00180052 0)
(1.21843 0.000599434 0)
(1.14348 0.0561442 0)
(1.19611 0.0542632 0)
(1.22702 0.050883 0)
(1.24286 0.0477655 0)
(1.24957 0.0448022 0)
(1.25135 0.0420159 0)
(1.25072 0.0393907 0)
(1.249 0.0369057 0)
(1.24685 0.0345416 0)
(1.24459 0.0322851 0)
(1.24233 0.0301266 0)
(1.24012 0.0280583 0)
(1.23799 0.026074 0)
(1.23593 0.0241684 0)
(1.23395 0.0223366 0)
(1.23205 0.0205741 0)
(1.23022 0.0188763 0)
(1.22849 0.0172386 0)
(1.22686 0.0156564 0)
(1.22534 0.0141254 0)
(1.22393 0.0126408 0)
(1.22264 0.0111981 0)
(1.22148 0.00979298 0)
(1.22045 0.00842079 0)
(1.21956 0.00707714 0)
(1.21881 0.0057576 0)
(1.21821 0.00445776 0)
(1.21776 0.00317324 0)
(1.21746 0.0018996 0)
(1.2173 0.000632471 0)
(1.14135 0.0573943 0)
(1.1934 0.0555366 0)
(1.22416 0.052205 0)
(1.24007 0.0490925 0)
(1.24693 0.0461191 0)
(1.24887 0.0433102 0)
(1.24837 0.0406558 0)
(1.24677 0.0381369 0)
(1.24473 0.0357354 0)
(1.24255 0.0334386 0)
(1.24038 0.0312372 0)
(1.23825 0.0291236 0)
(1.23619 0.027092 0)
(1.23421 0.0251372 0)
(1.23229 0.0232544 0)
(1.23044 0.0214392 0)
(1.22868 0.0196873 0)
(1.227 0.0179942 0)
(1.22541 0.0163556 0)
(1.22393 0.0147669 0)
(1.22256 0.0132238 0)
(1.22131 0.0117219 0)
(1.22018 0.0102567 0)
(1.21918 0.00882387 0)
(1.21832 0.00741906 0)