/*--------------------------------*- C++ -*----------------------------------*\
  =========                 |
  \\      /  F ield         | OpenFOAM: The Open Source CFD Toolbox
   \\    /   O peration     | Website:  https://openfoam.org
    \\  /    A nd           | Version:  7
     \\/     M anipulation  |
\*---------------------------------------------------------------------------*/
FoamFile
{
    version     2.0;
    format      ascii;
    class       surfaceScalarField;
    location    "40";
    object      phi;
}
// * * * * * * * * * * * * * * * * * * * * * * * * * * * * * * * * * * * * * //

dimensions      [0 3 -1 0 0 0 0];

internalField   nonuniform List<scalar> 
26215
(
-3.72235e-06
3.72308e-06
-7.31466e-10
-1.38208e-05
1.00998e-05
-1.35552e-09
-2.9632e-05
1.58124e-05
-1.2858e-09
-5.04963e-05
2.08649e-05
-6.1088e-10
-7.57704e-05
2.52736e-05
5.70593e-10
-0.000104853
2.90804e-05
2.16498e-09
-0.000137214
3.23568e-05
4.09386e-09
-0.000172426
3.52059e-05
6.30666e-09
-0.000210201
3.77659e-05
8.78812e-09
-0.000250425
4.02126e-05
1.15517e-08
-0.000293199
4.27594e-05
1.46627e-08
-0.000338866
4.56486e-05
1.82176e-08
-0.000388021
4.91329e-05
2.2348e-08
-0.000441511
5.34624e-05
2.72249e-08
5.88786e-05
3.30715e-08
-0.000500422
-3.65415e-06
7.37723e-06
-1.35727e-05
2.00184e-05
-2.90996e-05
3.13393e-05
-4.95748e-05
4.13401e-05
-7.43479e-05
5.00467e-05
-0.000102803
5.75358e-05
-0.000134389
6.39421e-05
-0.000168646
6.94629e-05
-0.000205246
7.43661e-05
-0.00024403
7.89965e-05
-0.000285049
8.37785e-05
-0.000328604
8.92039e-05
-0.000375267
9.5796e-05
-0.000425891
0.000104086
0.000114601
-0.000481613
-3.52363e-06
1.09009e-05
-1.30955e-05
2.95903e-05
-2.80718e-05
4.63156e-05
-4.77906e-05
6.10589e-05
-7.15869e-05
7.3843e-05
-9.88169e-05
8.47658e-05
-0.000128884
9.40094e-05
-0.000161269
0.000101848
-0.000195563
0.00010866
-0.00023151
0.000114943
-0.000269058
0.000121327
-0.000308416
0.000128562
-0.000350101
0.00013748
-0.000394973
0.000148959
0.00016392
-0.000444292
-3.34166e-06
1.42425e-05
-1.24243e-05
3.86729e-05
-2.66168e-05
6.05081e-05
-4.52517e-05
7.96938e-05
-6.76417e-05
9.6233e-05
-9.31015e-05
0.000110226
-0.00012097
0.000121878
-0.000150638
0.000131515
-0.000181573
0.000139595
-0.000213371
0.000146741
-0.000245811
0.000153767
-0.000278942
0.000161694
-0.000313171
0.000171709
-0.000349356
0.000185143
0.000203534
-0.00038897
-3.12236e-06
1.73649e-05
-1.16041e-05
4.71547e-05
-2.48218e-05
7.37258e-05
-4.20956e-05
9.69676e-05
-6.27069e-05
0.000116844
-8.59171e-05
0.000133436
-0.000110984
0.000146945
-0.000137178
0.000157709
-0.000163809
0.000166226
-0.000190262
0.000173194
-0.000216071
0.000179576
-0.00024103
0.000186652
-0.000265345
0.000196024
-0.000289804
0.000209603
0.000229921
-0.000316191
-2.8807e-06
2.02456e-05
-1.06824e-05
5.49564e-05
-2.27768e-05
8.58202e-05
-3.8461e-05
0.000112652
-5.69753e-05
0.000135359
-7.75167e-05
0.000153977
-9.92466e-05
0.000168675
-0.000121297
0.00017976
-0.000142781
0.00018771
-0.000162819
0.000193232
-0.000180607
0.000197364
-0.00019556
0.000201605
-0.000207549
0.000208013
-0.000217154
0.000219208
0.000239084
-0.000226317
-2.63001e-06
2.28756e-05
-9.69969e-06
6.20261e-05
-2.05559e-05
9.66764e-05
-3.44565e-05
0.000126552
-5.05876e-05
0.00015149
-6.80706e-05
0.00017146
-8.59597e-05
0.000186564
-0.000103232
0.000197032
-0.000118778
0.000203256
-0.000131405
0.000205859
-0.000139886
0.000205845
-0.000143112
0.000204831
-0.000140445
0.000205345
-0.000132261
0.000211024
0.000226228
-0.000119405
-2.3796e-06
2.52552e-05
-8.68198e-06
6.83285e-05
-1.82001e-05
0.000106195
-3.01293e-05
0.000138482
-4.35818e-05
0.000164942
-5.7588e-05
0.000185466
-7.10812e-05
0.000200057
-8.2871e-05
0.000208822
-9.16064e-05
0.000211991
-9.57453e-05
0.000209998
-9.35656e-05
0.000203666
-8.32803e-05
0.000194546
-6.33834e-05
0.000185448
-3.38358e-05
0.000181477
0.000193016
-6.23468e-07
-2.13333e-06
2.73885e-05
-7.63494e-06
7.38301e-05
-1.5705e-05
0.000114265
-2.54419e-05
0.000148218
-3.58534e-05
0.000175354
-4.58507e-05
0.000195464
-5.42222e-05
0.000208429
-5.95878e-05
0.000214188
-6.0334e-05
0.000212737
-5.45354e-05
0.0002042
-3.98918e-05
0.000189022
-1.37575e-05
0.000168412
2.6554e-05
0.000145137
8.2715e-05
0.000125316
0.00012267
0.000153061
-1.88931e-06
2.92778e-05
-6.54242e-06
7.84832e-05
-1.30163e-05
0.000120739
-2.02634e-05
0.000155466
-2.71384e-05
0.000182229
-3.23838e-05
0.000200709
-3.45932e-05
0.000210638
-3.21512e-05
0.000211746
-2.31452e-05
0.000203731
-5.24496e-06
0.000186299
2.44371e-05
0.00015934
6.9442e-05
0.000123407
0.000133808
8.07713e-05
0.000221234
3.7889e-05
1.29149e-05
0.000330989
-1.64059e-06
3.09184e-05
-5.36828e-06
8.22109e-05
-1.00333e-05
0.000125404
-1.43759e-05
0.000159808
-1.70241e-05
0.000184877
-1.64698e-05
0.000200155
-1.10215e-05
0.00020519
1.26725e-06
0.000199457
2.26973e-05
0.000182301
5.60577e-05
0.000152939
0.000104813
0.000110584
0.000173319
5.49008e-05
0.000266908
-1.28176e-05
0.000391387
-8.65899e-05
-0.00014435
0.000548652
-1.37631e-06
3.22947e-05
-4.05982e-06
8.48944e-05
-6.61701e-06
0.000127961
-7.49044e-06
0.000160681
-4.98065e-06
0.000182367
2.79e-06
0.000192384
1.79425e-05
0.000190037
4.29184e-05
0.000174481
8.05752e-05
0.000144644
0.000134304
9.92098e-05
0.000208189
3.66996e-05
0.000307247
-4.41571e-05
0.000437711
-0.000143282
0.000606848
-0.000255727
-0.000356563
0.000819062
-1.08183e-06
3.33766e-05
-2.5489e-06
8.63614e-05
-2.59344e-06
0.000128005
7.41852e-07
0.000157346
9.60398e-06
0.000173505
2.64006e-05
0.000175587
5.3871e-05
0.000162567
9.51774e-05
0.000133175
0.000153984
8.58379e-05
0.000234522
1.86715e-05
0.000341618
-7.03957e-05
0.000480783
-0.000183322
0.000658526
-0.000321024
0.000882355
-0.000479556
-0.000629019
0.00115481
-7.37268e-07
3.41138e-05
-7.46922e-07
8.63711e-05
2.24817e-06
0.00012501
1.07207e-05
0.000148874
2.7415e-05
0.000156811
5.54336e-05
0.000147569
9.83487e-05
0.000119652
0.000160297
7.12266e-05
0.000246021
1.13903e-07
0.000360886
-9.61942e-05
0.000510661
-0.00022017
0.000701259
-0.000373921
0.000938487
-0.000558252
0.001228
-0.000769073
-0.000961405
0.00156039
-3.14751e-07
3.44286e-05
1.4595e-06
8.45968e-05
8.17562e-06
0.000118294
2.29413e-05
0.000134108
4.92338e-05
0.000130518
9.10273e-05
0.000105775
0.000152915
5.77638e-05
0.000240202
-1.60596e-05
0.000358928
-0.000118612
0.000515714
-0.000252981
0.000717526
-0.000421982
0.000971082
-0.000627477
0.0012816
-0.000868774
0.00164884
-0.00113631
-0.00133159
0.00201902
2.2771e-07
3.42009e-05
4.22674e-06
8.05978e-05
1.55281e-05
0.000106993
3.79875e-05
0.000111648
7.59486e-05
9.25573e-05
0.000134386
4.73383e-05
0.000219015
-2.68656e-05
0.000336329
-0.000133373
0.000493494
-0.000275777
0.000698068
-0.000457556
0.000957567
-0.000681481
0.00127895
-0.000948855
0.00166858
-0.00125841
0.00213762
-0.00160535
-0.0019419
0.00274793
9.40462e-07
3.32604e-05
7.74273e-06
7.37955e-05
2.47028e-05
9.00327e-05
5.65266e-05
7.98247e-05
0.000108519
4.05644e-05
0.00018671
-3.08527e-05
0.000297883
-0.000138038
0.000449445
-0.000284935
0.000649064
-0.000475396
0.000904028
-0.00071252
0.00122037
-0.000997825
0.00160195
-0.00133043
0.00205023
-0.00170669
0.00256388
-0.002119
-0.00254491
0.00316689
1.8848e-06
3.13756e-05
1.22142e-05
6.34662e-05
3.61202e-05
6.61267e-05
7.92288e-05
3.67161e-05
0.000147842
-2.80486e-05
0.000248978
-0.000131989
0.000390221
-0.000279282
0.000579297
-0.000474011
0.000823296
-0.000719395
0.00112757
-0.0010168
0.00149445
-0.00136471
0.00192208
-0.00175806
0.00240376
-0.00218836
0.0029279
-0.00264314
-0.00311017
0.00349315
3.11944e-06
2.82562e-05
1.78353e-05
4.87503e-05
5.01513e-05
3.38107e-05
0.000106629
-1.97612e-05
0.000194499
-0.000115919
0.000321524
-0.000259014
0.000495546
-0.000453303
0.000723626
-0.000702091
0.0010108
-0.00100657
0.00135859
-0.00136459
0.00176363
-0.00176975
0.00221695
-0.00221137
0.00270403
-0.00267544
0.00320641
-0.00314552
-0.00361505
0.00371129
4.69343e-06
2.35627e-05
2.47533e-05
2.86904e-05
6.70375e-05
-8.47356e-06
0.00013897
-9.16939e-05
0.000248493
-0.000225441
0.000403627
-0.000414148
0.000611586
-0.000661263
0.000877435
-0.00096794
0.00120245
-0.00133158
0.00158259
-0.00174473
0.00200775
-0.00219491
0.00246219
-0.00266581
0.0029263
-0.00313955
0.00338007
-0.00359929
-0.00404093
0.00380595
6.63874e-06
1.6924e-05
3.30399e-05
2.28925e-06
8.68239e-05
-6.22576e-05
0.000176081
-0.000180951
0.000309044
-0.000358404
0.000493222
-0.000598326
0.000734011
-0.000902052
0.00103293
-0.00126686
0.00138594
-0.00168459
0.00178257
-0.00214136
0.00220646
-0.0026188
0.00263758
-0.00309693
0.00305561
-0.00355758
0.00344403
-0.00398772
-0.00438674
0.00378984
8.96652e-06
7.95748e-06
4.26738e-05
-3.1418e-05
0.000109316
-0.0001289
0.000217295
-0.00028893
0.000374484
-0.000515593
0.000586847
-0.00081069
0.000856579
-0.00117178
0.00118024
-0.00159051
0.00154763
-0.00205199
0.00194232
-0.00253606
0.002344
-0.00302048
0.00273225
-0.00348518
0.00309048
-0.0039158
0.00340899
-0.00430623
-0.00466062
0.00368287
1.16647e-05
-3.70719e-06
5.35306e-05
-7.32839e-05
0.000134057
-0.000209426
0.000261423
-0.000416297
0.000442276
-0.000696446
0.000679821
-0.00104823
0.000971745
-0.00146371
0.00130879
-0.00192756
0.00167495
-0.00241815
0.00204984
-0.00291095
0.00241269
-0.00338333
0.00274658
-0.00381906
0.00304148
-0.0042107
0.00329525
-0.00456
-0.00487574
0.00351037
1.4696e-05
-1.84032e-05
6.53771e-05
-0.000123965
0.000160324
-0.000304372
0.000306787
-0.00056276
0.000509152
-0.000898811
0.000766676
-0.00130576
0.00107164
-0.00176867
0.00140908
-0.00226499
0.00175883
-0.0027679
0.00209961
-0.00325173
0.00241364
-0.00369736
0.00269
-0.00409542
0.00292576
-0.00444646
0.00312478
-0.00475902
-0.00504505
0.00329408
1.79981e-05
-3.64014e-05
7.78708e-05
-0.000183838
0.000187146
-0.000413647
0.000351297
-0.000726911
0.000571389
-0.0011189
0.000841797
-0.00157617
0.00114925
-0.00207612
0.00147427
-0.00259002
0.00179514
-0.00308877
0.00209278
-0.00354938
0.00235474
-0.00395932
0.0025767
-0.00431738
0.0027615
-0.00463126
0.0029166
-0.00491412
-0.00517913
0.00305068
2.1479e-05
-5.78804e-05
9.05651e-05
-0.000252924
0.000213349
-0.000536431
0.000392616
-0.000906179
0.000625193
-0.00135148
0.000900172
-0.00185115
0.00119946
-0.0023754
0.00150116
-0.00289172
0.00178475
-0.00337235
0.00203563
-0.00380026
0.00224744
-0.00417113
0.00242149
-0.00449143
0.00256437
-0.00477414
0.00268486
-0.00503461
-0.00528568
0.00279141
2.502e-05
-8.29003e-05
0.000102929
-0.000330833
0.000237633
-0.000671134
0.000428376
-0.00109692
0.000667157
-0.00159026
0.000938065
-0.00212205
0.0012197
-0.00265704
0.00149017
-0.00316219
0.00173235
-0.00361453
0.00193714
-0.00400505
0.00210371
-0.0043377
0.00223734
-0.00462506
0.00234635
-0.00488316
0.0024393
-0.00512756
-0.00536978
0.0025234
2.84804e-05
-0.000111381
0.000114383
-0.000416736
0.000258685
-0.000815437
0.000456423
-0.00129466
0.000694661
-0.0018285
0.00095344
-0.00238083
0.00121002
-0.00291363
0.00144463
-0.0033968
0.00164484
-0.00381473
0.00180691
-0.00416712
0.00193426
-0.00446505
0.00203439
-0.00472519
0.00211587
-0.00496464
0.00218617
-0.00519786
-0.00543457
0.00225096
3.17059e-05
-0.000143087
0.000124338
-0.000509368
0.000275301
-0.0009664
0.000475054
-0.00149441
0.000706154
-0.0020596
0.000946037
-0.00262072
0.00117259
-0.00314018
0.00136964
-0.00359385
0.00152978
-0.00397486
0.00165375
-0.00429109
0.00174774
-0.00455905
0.00182006
-0.00479752
0.00187858
-0.00502316
0.00192935
-0.00524862
-0.00548183
0.00197661
3.45396e-05
-0.000177626
0.000132253
-0.000607081
0.000286502
-0.00112065
0.000483178
-0.00169109
0.00070123
-0.00227765
0.000917132
-0.00283662
0.001111
-0.00333405
0.00127101
-0.00375386
0.00139431
-0.00409817
0.00148501
-0.00438178
0.00155071
-0.00462475
0.00159953
-0.00484633
0.00163816
-0.00506179
0.00167125
-0.00528172
-0.00551247
0.00170189
3.68348e-05
-0.000214461
0.000137676
-0.000707922
0.000291617
-0.00127459
0.000480383
-0.00187985
0.000680521
-0.00247779
0.000869104
-0.0030252
0.00102954
-0.00349449
0.00115441
-0.00387873
0.00124465
-0.00418841
0.00130648
-0.00444361
0.00134793
-0.0046662
0.0013763
-0.00487469
0.00139698
-0.00508247
0.00141341
-0.00529815
-0.00552684
0.00142778
3.84653e-05
-0.000252926
0.000140281
-0.000809737
0.000290328
-0.00142464
0.000466895
-0.00205642
0.000645457
-0.00265635
0.000804952
-0.00318469
0.000932594
-0.00362213
0.00102497
-0.0039711
0.00108583
-0.00424927
0.00112252
-0.00448031
0.00114276
-0.00468645
0.00115276
-0.00488468
0.00115666
-0.00508637
0.00115691
-0.0052984
-0.00552495
0.00115502
3.93352e-05
-0.000292262
0.000139886
-0.000910288
0.000282661
-0.00156741
0.000443472
-0.00221723
0.000597988
-0.00281087
0.000727886
-0.00331459
0.000824245
-0.00371849
0.000887001
-0.00403386
0.000921808
-0.00428408
0.00093634
-0.00449484
0.000937572
-0.00468768
0.000930545
-0.00487766
0.000918333
-0.00507416
0.000902592
-0.00528266
-0.00550663
0.000884275
3.93833e-05
-0.000331645
0.000136458
-0.00100736
0.000268944
-0.0016999
0.000411246
-0.00235953
0.000540304
-0.00293993
0.000641021
-0.00341531
0.000708074
-0.00378554
0.000744018
-0.0040698
0.000755599
-0.00429566
0.000750267
-0.00448951
0.00073404
-0.00467145
0.000710853
-0.00485447
0.00068289
-0.00504619
0.000651233
-0.005251
-0.00547184
0.000616448
3.85847e-05
-0.00037023
0.000130096
-0.00109887
0.000249734
-0.00181954
0.000371566
-0.00248137
0.000474619
-0.00304298
0.000547183
-0.00348787
0.000587079
-0.00382544
0.000598766
-0.00408149
0.000589452
-0.00428634
0.000566015
-0.00446607
0.000533455
-0.00463889
0.000494709
-0.00481572
0.000451188
-0.00500267
0.000403482
-0.00520329
-0.00542093
0.000352572
3.69489e-05
-0.000407178
0.000121008
-0.00118293
0.000225744
-0.00192427
0.000325858
-0.00258148
0.000403019
-0.00312014
0.000448816
-0.00353367
0.000463682
-0.0038403
0.00045334
-0.00407115
0.000425004
-0.00425801
0.000384806
-0.00442587
0.000336795
-0.00459088
0.000283097
-0.00476202
0.000224436
-0.00494401
0.000160594
-0.00513945
-0.00535067
9.03289e-05
3.45153e-05
-0.000441694
0.000109485
-0.0012579
0.000197768
-0.00201256
0.000275524
-0.00265924
0.000327377
-0.00317199
0.000347964
-0.00355426
0.000339781
-0.00383212
0.000309292
-0.00404066
0.000263403
-0.00421212
0.000207441
-0.00436991
0.000144626
-0.00452807
7.64937e-05
-0.00469389
3.57485e-06
-0.00487109
-7.44879e-05
-0.00506139
-0.0052664
-0.000158753
3.13475e-05
-0.000473041
9.58683e-05
-0.00132242
0.00016662
-0.00208331
0.000221871
-0.00271449
0.000249315
-0.00319944
0.000246286
-0.00355123
0.000216839
-0.00380267
0.000167763
-0.00399158
0.000105448
-0.0041498
3.44062e-05
-0.00429887
-4.28028e-05
-0.00445086
-0.000125095
-0.0046116
-0.000212393
-0.0047838
-0.000304679
-0.0049691
-0.00517048
-0.000400599
2.75282e-05
-0.00050057
8.05289e-05
-0.00137542
0.000133096
-0.00213587
0.000166083
-0.00274747
0.000170199
-0.00320355
0.000145106
-0.00352614
9.59807e-05
-0.00375355
2.95952e-05
-0.0039252
-4.82665e-05
-0.00407194
-0.000133807
-0.00421333
-0.000225092
-0.00435957
-0.000321427
-0.00451526
-0.000422773
-0.00468245
-0.00052899
-0.00486289
-0.0050601
-0.000639377
2.316e-05
-0.000523729
6.3856e-05
-0.00141612
9.79523e-05
-0.00216997
0.000109192
-0.00275871
9.11396e-05
-0.0031855
4.55341e-05
-0.00348053
-2.1903e-05
-0.00368611
-0.000104553
-0.00384255
-0.00019729
-0.00397921
-0.000297014
-0.0041136
-0.000402234
-0.00425435
-0.000512479
-0.00440502
-0.000627778
-0.00456715
-0.000748052
-0.00474261
-0.00493532
-0.000872832
1.83728e-05
-0.000542102
4.62655e-05
-0.00144401
6.19181e-05
-0.00218562
5.20482e-05
-0.00274884
1.34458e-05
-0.0031469
-5.15498e-05
-0.00341554
-0.000136161
-0.0036015
-0.000234216
-0.00374449
-0.000341304
-0.00387212
-0.000454929
-0.00399998
-0.000573977
-0.00413531
-0.000698144
-0.00428085
-0.000827529
-0.00443777
-0.000962045
-0.00460809
-0.00479621
-0.00110115
1.32969e-05
-0.000555399
2.81195e-05
-0.00145884
2.57742e-05
-0.00218328
-3.50068e-06
-0.00271957
-6.27043e-05
-0.00308769
-0.000145684
-0.00333256
-0.000246319
-0.00350087
-0.000359004
-0.0036318
-0.000479981
-0.00375114
-0.000607285
-0.00387268
-0.000740114
-0.00400248
-0.000878309
-0.00414266
-0.00102207
-0.00429401
-0.0011713
-0.00445886
-0.00464218
-0.00132534
7.98424e-06
-0.000563383
9.6588e-06
-0.00146051
-1.03083e-05
-0.00216331
-5.98346e-05
-0.00267004
-0.000136711
-0.00301082
-0.000236233
-0.00323303
-0.000351883
-0.00338522
-0.000478502
-0.00350518
-0.000612971
-0.00361667
-0.000753815
-0.00373183
-0.000900509
-0.00385578
-0.00105299
-0.00399018
-0.00121141
-0.00413558
-0.0013758
-0.00429447
-0.00447131
-0.00154666
2.16901e-06
-0.000565552
-9.02952e-06
-0.00144931
-4.64415e-05
-0.0021259
-0.000113524
-0.00260296
-0.000207585
-0.00291676
-0.000322578
-0.00311804
-0.000452296
-0.0032555
-0.000592171
-0.00336531
-0.000739708
-0.00346914
-0.000893958
-0.00357758
-0.00105478
-0.00369496
-0.00122227
-0.0038227
-0.00139623
-0.00396162
-0.00157588
-0.00411482
-0.00427976
-0.00176743
-3.46768e-06
-0.000562085
-2.75437e-05
-0.00142524
-8.10522e-05
-0.00207239
-0.000164987
-0.00251903
-0.000274918
-0.00280683
-0.000404266
-0.00298869
-0.00054707
-0.00311269
-0.000699355
-0.00321302
-0.000859224
-0.00330927
-0.00102628
-0.00341052
-0.001201
-0.00352024
-0.00138412
-0.00363957
-0.00157678
-0.00376897
-0.0017817
-0.0039099
-0.00408609
-0.00197538
-8.88908e-06
-0.000553196
-4.53542e-05
-0.00138877
-0.00011422
-0.00200352
-0.000213861
-0.00241938
-0.000338424
-0.00268226
-0.000480974
-0.00284614
-0.00063584
-0.00295783
-0.00079954
-0.00304932
-0.000970607
-0.0031382
-0.00114898
-0.00323215
-0.00133553
-0.00333369
-0.00153171
-0.00344339
-0.00173859
-0.00356209
-0.00195739
-0.0036911
-0.00381792
-0.00222555
-1.4314e-05
-0.000538882
-6.2472e-05
-0.00134061
-0.000145722
-0.00192027
-0.000259891
-0.00230522
-0.000397885
-0.00254427
-0.000552546
-0.00269148
-0.000718509
-0.00279187
-0.000892713
-0.00287512
-0.00107397
-0.00295694
-0.00126221
-0.00304391
-0.0014578
-0.0031381
-0.00166102
-0.00324016
-0.00187261
-0.00335051
-0.00209663
-0.00346707
-0.00358033
-0.00233422
-1.95499e-05
-0.000519332
-7.87569e-05
-0.00128141
-0.00017537
-0.00182366
-0.00030289
-0.0021777
-0.000453162
-0.002394
-0.000618897
-0.00252575
-0.000795054
-0.00261571
-0.000978979
-0.00269119
-0.00116978
-0.00276614
-0.00136755
-0.00284614
-0.00157273
-0.00293292
-0.0017859
-0.00302699
-0.00200811
-0.0031283
-0.0022403
-0.00323489
-0.00334355
-0.00247708
-2.45354e-05
-0.000494796
-9.40813e-05
-0.00121186
-0.000203021
-0.00171472
-0.000342736
-0.00203798
-0.000504176
-0.00223256
-0.000679986
-0.00234994
-0.000865434
-0.00243026
-0.00105819
-0.00249843
-0.00125756
-0.00256677
-0.00146365
-0.00264005
-0.00167686
-0.00271972
-0.00189771
-0.00280614
-0.00212684
-0.00289917
-0.00236417
-0.00299756
-0.00310034
-0.00260738
-2.9226e-05
-0.00046557
-0.000108348
-0.00113274
-0.000228568
-0.0015945
-0.000379358
-0.00188719
-0.000550911
-0.002061
-0.000735871
-0.00216498
-0.000929812
-0.00223632
-0.00113072
-0.00229753
-0.00133807
-0.00235942
-0.00155205
-0.00242606
-0.00177311
-0.00249866
-0.00200172
-0.00257753
-0.00223829
-0.00266259
-0.00248271
-0.00275314
-0.00284932
-0.00273372
-3.35848e-05
-0.000431986
-0.000121484
-0.00104484
-0.000251937
-0.00146405
-0.000412705
-0.00172642
-0.000593352
-0.00188036
-0.000786559
-0.00197177
-0.000988186
-0.00203469
-0.00119648
-0.00208923
-0.00141109
-0.00214481
-0.00163228
-0.00220488
-0.00186048
-0.00227046
-0.00209618
-0.00234183
-0.00233978
-0.00241899
-0.00259139
-0.00250153
-0.00259011
-0.0028506
-3.75816e-05
-0.000394404
-0.00013343
-0.00094899
-0.000273072
-0.00132441
-0.000442754
-0.00155674
-0.000631518
-0.00169159
-0.00083211
-0.00177118
-0.00104066
-0.00182615
-0.00125565
-0.00187424
-0.00147687
-0.00192359
-0.00170465
-0.0019771
-0.00193947
-0.00203564
-0.00218184
-0.00209947
-0.00243222
-0.00216862
-0.0026909
-0.00224285
-0.00232315
-0.00295786
-4.11908e-05
-0.000353213
-0.000144143
-0.000846038
-0.000291935
-0.00117661
-0.000469488
-0.00137919
-0.000665418
-0.00149566
-0.00087255
-0.00156404
-0.00108726
-0.00161144
-0.00130824
-0.00165326
-0.0015354
-0.00169642
-0.00176913
-0.00174337
-0.00200996
-0.00179482
-0.00225842
-0.001851
-0.00251506
-0.00191197
-0.00278033
-0.00197759
-0.00204902
-0.00305446
-4.43915e-05
-0.000308822
-0.000153586
-0.000736843
-0.000308495
-0.00102171
-0.000492899
-0.00119478
-0.000695065
-0.0012935
-0.000907909
-0.0013512
-0.00112802
-0.00139133
-0.00135428
-0.001427
-0.00158669
-0.00146401
-0.00182571
-0.00150436
-0.00207189
-0.00154864
-0.00232583
-0.00159706
-0.00258813
-0.00164967
-0.00285932
-0.0017064
-0.00176847
-0.00313987
-4.7166e-05
-0.000261656
-0.00016173
-0.000622279
-0.00032273
-0.000860705
-0.00051298
-0.00100453
-0.000720469
-0.00108601
-0.000938203
-0.00113347
-0.00116296
-0.00116657
-0.00139377
-0.00119619
-0.00163073
-0.00122705
-0.00187433
-0.00126076
-0.00212517
-0.00129779
-0.00238389
-0.00133834
-0.00265114
-0.00138243
-0.0029275
-0.00143003
-0.00148233
-0.00321363
-4.94997e-05
-0.000212156
-0.000168552
-0.000503227
-0.00033462
-0.000694637
-0.000529724
-0.00080943
-0.000741636
-0.000874097
-0.000963442
-0.00091166
-0.00119208
-0.000937935
-0.00142671
-0.000961564
-0.00166749
-0.000986265
-0.00191495
-0.00101329
-0.00216973
-0.00104302
-0.00243248
-0.00107559
-0.0027039
-0.00111102
-0.00298463
-0.00114931
-0.00119152
-0.00327544
-5.13808e-05
-0.000160775
-0.000174031
-0.000380576
-0.00034415
-0.000524519
-0.000543127
-0.000610453
-0.000758569
-0.000658655
-0.000983633
-0.000686596
-0.00121538
-0.000706184
-0.00145308
-0.000723871
-0.00169694
-0.000742408
-0.00194751
-0.000762715
-0.00220547
-0.000785065
-0.00247148
-0.000809566
-0.00274627
-0.00083623
-0.00303051
-0.000865066
-0.000896939
-0.00332509
-5.27997e-05
-0.000107975
-0.000178154
-0.000255222
-0.000351308
-0.000351365
-0.000553184
-0.000408577
-0.000771269
-0.00044057
-0.000998776
-0.000459089
-0.00123287
-0.000472092
-0.00147287
-0.000483868
-0.00171905
-0.000496232
-0.00197197
-0.000509788
-0.00223232
-0.000524715
-0.00250081
-0.000541085
-0.00277813
-0.000558903
-0.00306502
-0.000578183
-0.000599531
-0.00336242
-5.37495e-05
-5.42259e-05
-0.000180909
-0.000128063
-0.000356085
-0.000176188
-0.000559891
-0.000204771
-0.000779736
-0.000220725
-0.00100887
-0.000229952
-0.00124453
-0.000236437
-0.00148607
-0.000242321
-0.0017338
-0.000248505
-0.0019883
-0.000255288
-0.00225026
-0.00026276
-0.00252038
-0.000270955
-0.00279941
-0.000279877
-0.00308806
-0.000289533
-0.000300237
-0.00338735
-5.42256e-05
-2.60242e-10
-0.000182288
-5.49815e-10
-0.000358475
-6.86627e-10
-0.000563245
-7.2815e-10
-0.00078397
-7.2195e-10
-0.00101392
-6.97435e-10
-0.00125036
-6.67727e-10
-0.00149268
-6.36272e-10
-0.00174118
-6.03175e-10
-0.00199647
-5.68184e-10
-0.00225923
-5.31303e-10
-0.00253018
-4.92786e-10
-0.00281006
-4.52715e-10
-0.00309959
-4.10828e-10
-3.67991e-10
-0.00339983
-5.42256e-05
5.42253e-05
-0.000182288
0.000128062
-0.000358475
0.000176187
-0.000563245
0.000204769
-0.00078397
0.000220724
-0.00101392
0.000229951
-0.00125036
0.000236436
-0.00149268
0.00024232
-0.00174118
0.000248504
-0.00199647
0.000255287
-0.00225923
0.000262759
-0.00253018
0.000270954
-0.00281006
0.000279876
-0.00309959
0.000289533
0.000300236
-0.00339983
-5.37495e-05
0.000107975
-0.000180909
0.000255221
-0.000356085
0.000351363
-0.000559891
0.000408575
-0.000779736
0.000440569
-0.00100887
0.000459087
-0.00124453
0.00047209
-0.00148607
0.000483866
-0.0017338
0.000496231
-0.0019883
0.000509787
-0.00225026
0.000524714
-0.00252038
0.000541084
-0.00279941
0.000558902
-0.00308806
0.000578182
0.00059953
-0.00338735
-5.27997e-05
0.000160775
-0.000178154
0.000380575
-0.000351308
0.000524517
-0.000553184
0.000610451
-0.000771269
0.000658654
-0.000998776
0.000686594
-0.00123287
0.000706182
-0.00147287
0.00072387
-0.00171905
0.000742407
-0.00197197
0.000762714
-0.00223232
0.000785064
-0.0025008
0.000809565
-0.00277813
0.000836229
-0.00306501
0.000865065
0.000896938
-0.00336242
-5.13807e-05
0.000212155
-0.000174031
0.000503226
-0.00034415
0.000694636
-0.000543127
0.000809429
-0.000758569
0.000874095
-0.000983633
0.000911658
-0.00121538
0.000937934
-0.00145308
0.000961563
-0.00169693
0.000986264
-0.00194751
0.00101329
-0.00220546
0.00104302
-0.00247148
0.00107558
-0.00274627
0.00111101
-0.00303051
0.0011493
0.00119152
-0.00332509
-4.94997e-05
0.000261655
-0.000168552
0.000622277
-0.00033462
0.000860704
-0.000529724
0.00100453
-0.000741636
0.00108601
-0.000963442
0.00113346
-0.00119208
0.00116657
-0.00142671
0.00119619
-0.00166749
0.00122705
-0.00191495
0.00126075
-0.00216973
0.00129779
-0.00243248
0.00133834
-0.0027039
0.00138243
-0.00298463
0.00143003
0.00148233
-0.00327544
-4.7166e-05
0.000308821
-0.00016173
0.000736842
-0.00032273
0.0010217
-0.00051298
0.00119478
-0.000720469
0.0012935
-0.000938202
0.0013512
-0.00116296
0.00139133
-0.00139377
0.001427
-0.00163073
0.00146401
-0.00187433
0.00150436
-0.00212517
0.00154863
-0.00238389
0.00159706
-0.00265114
0.00164967
-0.0029275
0.0017064
0.00176846
-0.00321363
-4.43915e-05
0.000353212
-0.000153586
0.000846036
-0.000308495
0.00117661
-0.000492899
0.00137919
-0.000695065
0.00149566
-0.000907908
0.00156404
-0.00112802
0.00161144
-0.00135428
0.00165326
-0.00158669
0.00169642
-0.00182571
0.00174337
-0.00207189
0.00179481
-0.00232583
0.001851
-0.00258812
0.00191197
-0.00285931
0.00197758
0.00204902
-0.00313987
-4.11908e-05
0.000394403
-0.000144143
0.000948988
-0.000291935
0.0013244
-0.000469488
0.00155674
-0.000665417
0.00169159
-0.00087255
0.00177117
-0.00108726
0.00182614
-0.00130824
0.00187424
-0.0015354
0.00192359
-0.00176913
0.0019771
-0.00200995
0.00203564
-0.00225842
0.00209947
-0.00251506
0.00216862
-0.00278033
0.00224285
0.00232315
-0.00305446
-3.75815e-05
0.000431985
-0.00013343
0.00104484
-0.000273072
0.00146405
-0.000442753
0.00172642
-0.000631517
0.00188036
-0.000832109
0.00197177
-0.00104066
0.00203469
-0.00125565
0.00208923
-0.00147687
0.00214481
-0.00170465
0.00220488
-0.00193947
0.00227046
-0.00218184
0.00234183
-0.00243221
0.00241899
-0.0026909
0.00250153
0.00259011
-0.00295786
-3.35848e-05
0.00046557
-0.000121484
0.00113274
-0.000251936
0.0015945
-0.000412704
0.00188719
-0.000593351
0.002061
-0.000786559
0.00216497
-0.000988185
0.00223632
-0.00119648
0.00229753
-0.00141109
0.00235942
-0.00163227
0.00242606
-0.00186048
0.00249866
-0.00209618
0.00257753
-0.00233978
0.00266259
-0.00259139
0.00275314
0.00284932
-0.0028506
-2.9226e-05
0.000494796
-0.000108348
0.00121186
-0.000228568
0.00171472
-0.000379357
0.00203798
-0.00055091
0.00223255
-0.00073587
0.00234993
-0.000929811
0.00243026
-0.00113071
0.00249843
-0.00133807
0.00256677
-0.00155205
0.00264005
-0.00177311
0.00271971
-0.00200172
0.00280614
-0.00223829
0.00289917
-0.00248271
0.00299756
0.00310033
-0.00273372
-2.45353e-05
0.000519331
-9.40811e-05
0.0012814
-0.00020302
0.00182366
-0.000342736
0.00217769
-0.000504175
0.00239399
-0.000679985
0.00252574
-0.000865433
0.00261571
-0.00105819
0.00269119
-0.00125756
0.00276614
-0.00146365
0.00284614
-0.00167686
0.00293292
-0.00189771
0.00302699
-0.00212684
0.00312829
-0.00236417
0.00323489
0.00334355
-0.00260738
-1.95499e-05
0.000538881
-7.87567e-05
0.00134061
-0.00017537
0.00192027
-0.000302889
0.00230521
-0.000453161
0.00254427
-0.000618896
0.00269148
-0.000795053
0.00279186
-0.000978978
0.00287512
-0.00116978
0.00295694
-0.00136755
0.00304391
-0.00157273
0.0031381
-0.0017859
0.00324016
-0.00200811
0.0033505
-0.0022403
0.00346707
0.00358033
-0.00247708
-1.43139e-05
0.000553195
-6.24718e-05
0.00138877
-0.000145722
0.00200352
-0.00025989
0.00241938
-0.000397884
0.00268226
-0.000552545
0.00284614
-0.000718508
0.00295783
-0.000892712
0.00304932
-0.00107397
0.0031382
-0.00126221
0.00323215
-0.00145779
0.00333369
-0.00166102
0.00344339
-0.0018726
0.00356209
-0.00209663
0.0036911
0.00381792
-0.00233422
-8.88902e-06
0.000562084
-4.5354e-05
0.00142523
-0.00011422
0.00207239
-0.000213861
0.00251902
-0.000338423
0.00280682
-0.000480973
0.00298869
-0.000635838
0.00311269
-0.000799539
0.00321302
-0.000970605
0.00330926
-0.00114898
0.00341052
-0.00133553
0.00352024
-0.00153171
0.00363957
-0.00173859
0.00376897
-0.00195738
0.00390989
0.00408609
-0.00222555
-3.46762e-06
0.000565551
-2.75435e-05
0.00144931
-8.10518e-05
0.0021259
-0.000164986
0.00260296
-0.000274918
0.00291675
-0.000404265
0.00311804
-0.000547069
0.0032555
-0.000699354
0.00336531
-0.000859222
0.00346913
-0.00102628
0.00357758
-0.00120099
0.00369495
-0.00138412
0.00382269
-0.00157677
0.00396162
-0.0017817
0.00411482
0.00427976
-0.00197537
2.16908e-06
0.000563382
-9.02928e-06
0.00146051
-4.64411e-05
0.00216331
-0.000113523
0.00267004
-0.000207584
0.00301081
-0.000322577
0.00323303
-0.000452294
0.00338521
-0.000592169
0.00350518
-0.000739706
0.00361667
-0.000893957
0.00373183
-0.00105478
0.00385578
-0.00122226
0.00399018
-0.00139623
0.00413558
-0.00157588
0.00429447
0.00447131
-0.00176743
7.9843e-06
0.000555398
9.65904e-06
0.00145883
-1.03078e-05
0.00218327
-5.98338e-05
0.00271957
-0.00013671
0.00308769
-0.000236232
0.00333255
-0.000351881
0.00350086
-0.000478501
0.0036318
-0.000612969
0.00375114
-0.000753812
0.00387267
-0.000900507
0.00400247
-0.00105299
0.00414265
-0.00121141
0.00429401
-0.00137579
0.00445886
0.00464218
-0.00154666
1.32969e-05
0.000542101
2.81197e-05
0.00144401
2.57747e-05
0.00218562
-3.49978e-06
0.00274884
-6.27032e-05
0.00314689
-0.000145683
0.00341553
-0.000246317
0.0036015
-0.000359002
0.00374449
-0.000479979
0.00387211
-0.000607283
0.00399998
-0.000740112
0.0041353
-0.000878307
0.00428085
-0.00102206
0.00443776
-0.0011713
0.00460809
0.00479621
-0.00132533
1.83729e-05
0.000523728
4.62657e-05
0.00141612
6.19186e-05
0.00216997
5.2049e-05
0.00275871
1.3447e-05
0.0031855
-5.15483e-05
0.00348053
-0.000136159
0.00368611
-0.000234214
0.00384254
-0.000341302
0.0039792
-0.000454926
0.0041136
-0.000573974
0.00425435
-0.000698141
0.00440502
-0.000827526
0.00456715
-0.000962042
0.00474261
0.00493532
-0.00110115
2.316e-05
0.000500568
6.38562e-05
0.00137542
9.79528e-05
0.00213587
0.000109193
0.00274747
9.11408e-05
0.00320355
4.55357e-05
0.00352613
-2.19011e-05
0.00375354
-0.000104551
0.00392519
-0.000197288
0.00407194
-0.000297012
0.00421333
-0.000402231
0.00435957
-0.000512476
0.00451526
-0.000627775