/*--------------------------------*- C++ -*----------------------------------*\
  =========                 |
  \\      /  F ield         | OpenFOAM: The Open Source CFD Toolbox
   \\    /   O peration     | Website:  https://openfoam.org
    \\  /    A nd           | Version:  7
     \\/     M anipulation  |
\*---------------------------------------------------------------------------*/
FoamFile
{
    version     2.0;
    format      ascii;
    class       volScalarField;
    location    "75";
    object      p;
}
// * * * * * * * * * * * * * * * * * * * * * * * * * * * * * * * * * * * * * //

dimensions      [0 2 -2 0 0 0 0];

internalField   nonuniform List<scalar> 
6000
(
-0.250807
-0.250435
-0.249996
-0.2495
-0.249027
-0.249918
-0.249434
-0.248875
-0.248248
-0.247648
-0.249089
-0.248484
-0.247799
-0.247027
-0.246288
-0.247594
-0.246774
-0.245848
-0.24495
-0.246766
-0.245806
-0.244717
-0.24363
-0.246003
-0.244898
-0.243645
-0.242319
-0.245308
-0.244053
-0.242641
-0.241002
-0.244683
-0.24327
-0.241722
-0.239651
-0.244127
-0.242544
-0.240911
-0.238222
-0.243639
-0.241865
-0.240255
-0.236654
-0.243222
-0.241229
-0.239783
-0.235057
-0.240681
-0.23902
-0.234012
-0.24024
-0.238385
-0.232855
-0.239796
-0.237904
-0.231616
-0.239326
-0.237541
-0.230317
-0.237262
-0.228967
-0.237022
-0.227585
-0.236763
-0.22621
-0.224897
-0.223708
-0.222688
-0.248604
-0.247523
-0.246611
-0.245441
-0.244241
-0.242929
-0.241557
-0.24013
-0.238671
-0.2372
-0.235738
-0.234303
-0.23291
-0.231565
-0.230269
-0.229009
-0.227767
-0.226506
-0.225182
-0.22374
-0.222115
-0.220235
-0.218007
-0.21541
-0.212375
-0.208866
-0.204871
-0.200401
-0.195497
-0.190232
-0.184707
-0.17905
-0.173405
-0.167929
-0.162774
-0.158085
-0.153984
-0.150561
-0.147866
-0.145902
-0.144618
-0.143905
-0.14362
-0.143562
-0.143514
-0.143276
-0.142625
-0.141366
-0.139359
-0.136495
-0.132773
-0.128171
-0.122798
-0.116764
-0.110231
-0.10338
-0.0964034
-0.0894988
-0.0828605
-0.0766771
-0.0711286
-0.0663832
-0.0625898
-0.0598671
-0.0582906
-0.0578761
-0.0585666
-0.0602259
-0.0626419
-0.0655426
-0.0686192
-0.0715558
-0.0740568
-0.0758708
-0.0768063
-0.0767418
-0.0756259
-0.0734737
-0.070354
-0.0663772
-0.0616826
-0.0564247
-0.0507612
-0.044844
-0.0388124
-0.0327899
-0.0268837
-0.0211867
-0.0157809
-0.010743
-0.00615033
-0.0020829
0.00136499
0.00411295
0.00603872
0.00714353
0.00721994
0.00662537
0.0045994
0.00279027
-0.247196
-0.246016
-0.245083
-0.243925
-0.242795
-0.241609
-0.240429
-0.23926
-0.238127
-0.23705
-0.236047
-0.23513
-0.234307
-0.233575
-0.232922
-0.232321
-0.23174
-0.231123
-0.23041
-0.229527
-0.228393
-0.226917
-0.224993
-0.222592
-0.219615
-0.216025
-0.211803
-0.206959
-0.201538
-0.195615
-0.189301
-0.182732
-0.176071
-0.169488
-0.163155
-0.157233
-0.151866
-0.147174
-0.143236
-0.140081
-0.137685
-0.135971
-0.134817
-0.13405
-0.133468
-0.132877
-0.132057
-0.130834
-0.129052
-0.126554
-0.12336
-0.1194
-0.114781
-0.109577
-0.103934
-0.0980111
-0.0919881
-0.0860522
-0.0803925
-0.0751958
-0.0706426
-0.0669015
-0.0641178
-0.0624005
-0.0618077
-0.0623311
-0.0638846
-0.0663016
-0.069343
-0.0727162
-0.0761012
-0.0791803
-0.0816651
-0.0833178
-0.0839647
-0.0835049
-0.0819121
-0.0792221
-0.0755253
-0.0709519
-0.0656586
-0.0598144
-0.0535883
-0.0471403
-0.040615
-0.0341387
-0.0278187
-0.021747
-0.0160026
-0.0106591
-0.00578824
-0.00146824
0.00221316
0.00516458
0.00727189
0.00847846
0.00861989
0.00784724
0.00565711
0.00299854
-0.245889
-0.244564
-0.243626
-0.242471
-0.241409
-0.240347
-0.239352
-0.238435
-0.23762
-0.236927
-0.23637
-0.23596
-0.235693
-0.235559
-0.235534
-0.235576
-0.235639
-0.23565
-0.235533
-0.235193
-0.234534
-0.233452
-0.231836
-0.229607
-0.226677
-0.222997
-0.218545
-0.213328
-0.207391
-0.200817
-0.193721
-0.186255
-0.178592
-0.170922
-0.163429
-0.15629
-0.149672
-0.143722
-0.138546
-0.134198
-0.130678
-0.127941
-0.125891
-0.124376
-0.123217
-0.122226
-0.121194
-0.119934
-0.118329
-0.116171
-0.113467
-0.110115
-0.106229
-0.101843
-0.0970855
-0.0920984
-0.0870465
-0.082107
-0.0774629
-0.0732978
-0.0697899
-0.0671051
-0.0653811
-0.0647122
-0.0651352
-0.0666146
-0.0690345
-0.0721991
-0.075845
-0.0796631
-0.083326
-0.086518
-0.0889602
-0.0904304
-0.0907729
-0.0899061
-0.0878331
-0.0846066
-0.0803388
-0.0751794
-0.0693021
-0.0628897
-0.0561223
-0.0491672
-0.0421737
-0.0352701
-0.0285638
-0.0221455
-0.0160914
-0.0104723
-0.00535467
-0.000815573
0.00306462
0.00618381
0.00843983
0.00971962
0.00990939
0.00895363
0.00661799
0.0031433
-0.244692
-0.243175
-0.242246
-0.241086
-0.24009
-0.239144
-0.238329
-0.237653
-0.237145
-0.236821
-0.236697
-0.236775
-0.237046
-0.23749
-0.238073
-0.238736
-0.239422
-0.24004
-0.240496
-0.240679
-0.240476
-0.239772
-0.238447
-0.236381
-0.233487
-0.229712
-0.225026
-0.219437
-0.212991
-0.205775
-0.197914
-0.189569
-0.180928
-0.172199
-0.163576
-0.15525
-0.147407
-0.140222
-0.133826
-0.128298
-0.123655
-0.119885
-0.116922
-0.114632
-0.112855
-0.111419
-0.110128
-0.108793
-0.107278
-0.105411
-0.103182
-0.100394
-0.0972126
-0.0936249
-0.0897456
-0.0856965
-0.0816292
-0.0777101
-0.0741151
-0.0710223
-0.0686047
-0.0670212
-0.0663986
-0.0668115
-0.0682719
-0.0707155
-0.0739965
-0.077892
-0.0821176
-0.0863514
-0.0902627
-0.0935404
-0.0959174
-0.097188
-0.0972145
-0.0959365
-0.0933817
-0.0896239
-0.0847951
-0.079064
-0.072621
-0.0656623
-0.058378
-0.0509425
-0.0435087
-0.0362065
-0.0291429
-0.0224072
-0.0160725
-0.0102073
-0.00487321
-0.000146612
0.00390004
0.00715354
0.00952747
0.0108529
0.011075
0.0099318
0.00746969
0.0032227
-0.243617
-0.241849
-0.240949
-0.239773
-0.23884
-0.238004
-0.237357
-0.236911
-0.236697
-0.236726
-0.237015
-0.23756
-0.238347
-0.239344
-0.240509
-0.241765
-0.243048
-0.244246
-0.24525
-0.245931
-0.246157
-0.245809
-0.244757
-0.242847
-0.239977
-0.236099
-0.23118
-0.225223
-0.218276
-0.210434
-0.201828
-0.192631
-0.183045
-0.173293
-0.163578
-0.154107
-0.145079
-0.136691
-0.12911
-0.122428
-0.116677
-0.111877
-0.107994
-0.104909
-0.102485
-0.100564
-0.0989662
-0.0975068
-0.0960579
-0.0943547
-0.0926052
-0.0903367
-0.0878225
-0.0850093
-0.081994
-0.0788805
-0.0758063
-0.0729267
-0.0704089
-0.0684229
-0.0671329
-0.0666866
-0.0671962
-0.0687126
-0.0712204
-0.0746257
-0.0787537
-0.083357
-0.0881338
-0.0927531
-0.0968841
-0.100223
-0.102515
-0.103572
-0.103274
-0.101588
-0.098552
-0.0942711
-0.0888947
-0.08261
-0.0756232
-0.0681433
-0.0603698
-0.0524831
-0.0446393
-0.0369691
-0.0295788
-0.0225557
-0.0159699
-0.009888
-0.00436646
0.000517735
0.00470084
0.00805766
0.0105212
0.0118662
0.0121061
0.0107721
0.00820354
0.00323703
-0.242674
-0.240586
-0.239739
-0.238536
-0.237662
-0.236926
-0.236438
-0.236207
-0.236271
-0.236633
-0.237312
-0.2383
-0.239575
-0.241095
-0.242812
-0.244629
-0.246478
-0.248224
-0.249747
-0.250899
-0.251525
-0.251503
-0.250713
-0.248944
-0.246084
-0.242099
-0.236946
-0.230628
-0.223194
-0.214744
-0.20542
-0.195403
-0.18491
-0.174184
-0.163423
-0.15286
-0.1427
-0.133148
-0.124432
-0.116638
-0.109807
-0.103987
-0.0991937
-0.0953061
-0.0922122
-0.089775
-0.0878284
-0.0861958
-0.0847607
-0.0832493
-0.081787
-0.0800566
-0.0781674
-0.0761002
-0.07393
-0.0717438
-0.0696655
-0.067838
-0.0664178
-0.0655646
-0.0654296
-0.0661448
-0.0678043
-0.0704329
-0.0739856
-0.0783392
-0.0832916
-0.0885738
-0.0938701
-0.0988438
-0.103166
-0.106543
-0.108734
-0.109566
-0.108933
-0.106844
-0.103337
-0.0985455
-0.0926387
-0.0858218
-0.0783164
-0.0703437
-0.0621114
-0.0538054
-0.0455838
-0.0375781
-0.0298925
-0.0226129
-0.0158058
-0.00953608
-0.0038553
0.00115818
0.00545
0.00888171
0.0114093
0.0127503
0.0129951
0.0114687
0.0088155
0.00318814
-0.241875
-0.239381
-0.23862
-0.237376
-0.236557
-0.235912
-0.235568
-0.235537
-0.235864
-0.236536
-0.237579
-0.238981
-0.240712
-0.242722
-0.244956
-0.247299
-0.249679
-0.251937
-0.253946
-0.255536
-0.256532
-0.256808
-0.256264
-0.254616
-0.251753
-0.247657
-0.242274
-0.235603
-0.227698
-0.218665
-0.208653
-0.197855
-0.186502
-0.174853
-0.163101
-0.151508
-0.140278
-0.129616
-0.119833
-0.110981
-0.103109
-0.0962846
-0.0906076
-0.0859189
-0.0821443
-0.0791667
-0.0768363
-0.0749877
-0.0735102
-0.0721511
-0.0709373
-0.0696762
-0.0683718
-0.0670175
-0.0656678
-0.0643947
-0.0633078
-0.0625368
-0.0622256
-0.0625198
-0.0635545
-0.0654422
-0.0682553
-0.0719908
-0.0765734
-0.0818512
-0.0875973
-0.0935243
-0.0993054
-0.104602
-0.109089
-0.112483
-0.114558
-0.115156
-0.114177
-0.111696
-0.107731
-0.102445
-0.0960279
-0.0887036
-0.0807082
-0.0722739
-0.063616
-0.0549247
-0.0463596
-0.0380518
-0.0301036
-0.0225987
-0.0156
-0.00917116
-0.00335836
0.00175763
0.00613262
0.00961342
0.0121824
0.0134986
0.0137377
0.0120203
0.00930504
0.00308033
-0.241235
-0.23823
-0.237592
-0.236296
-0.235526
-0.234962
-0.234749
-0.234899
-0.235472
-0.236427
-0.237807
-0.239591
-0.241745
-0.244207
-0.246925
-0.249744
-0.252619
-0.255351
-0.257808
-0.259805
-0.261143
-0.261669
-0.261358
-0.259795
-0.256923
-0.252718
-0.247112
-0.240105
-0.231756
-0.222173
-0.211516
-0.199986
-0.187828
-0.1753
-0.162614
-0.150054
-0.137827
-0.126115
-0.115353
-0.105497
-0.0966358
-0.0888357
-0.082325
-0.0768444
-0.0723872
-0.0688533
-0.0661105
-0.0640095
-0.0624285
-0.0611776
-0.0602056
-0.0593277
-0.0585703
-0.0578911
-0.0573324
-0.0569514
-0.0568434
-0.0571234
-0.0579204
-0.0593637
-0.0615689
-0.0646256
-0.0685814
-0.0734044
-0.0789896
-0.0851576
-0.0916595
-0.0981921
-0.104421
-0.110007
-0.114632
-0.118023
-0.11997
-0.120331
-0.119052
-0.11614
-0.111729
-0.105967
-0.0990637
-0.0912602
-0.0828062
-0.0739443
-0.0648964
-0.0558557
-0.0469827
-0.0384075
-0.0302298
-0.0225311
-0.0153704
-0.00881033
-0.0028917
0.00230158
0.0067363
0.010243
0.0128338
0.0141076
0.0143327
0.0124295
0.00967367
0.0029224
-0.240784
-0.237123
-0.236659
-0.235296
-0.23457
-0.234075
-0.233979
-0.234285
-0.235097
-0.236303
-0.237989
-0.240122
-0.242661
-0.245538
-0.248711
-0.251924
-0.255259
-0.258421
-0.261283
-0.263645
-0.265306
-0.266127
-0.265929
-0.264464
-0.261594
-0.257277
-0.251454
-0.244127
-0.235354
-0.225254
-0.213991
-0.20178
-0.188874
-0.175523
-0.161979
-0.148519
-0.135366
-0.122758
-0.111005
-0.100201
-0.090416
-0.0816842
-0.0744266
-0.0681667
-0.0630356
-0.0589413
-0.0557689
-0.0533875
-0.0516473
-0.050529
-0.0496795
-0.0491583
-0.0489013
-0.048856
-0.0490531
-0.0495361
-0.0503849
-0.0516992
-0.0535911
-0.056171
-0.0595324
-0.0637395
-0.0688125
-0.0746904
-0.0812392
-0.0882545
-0.0954675
-0.102563
-0.109201
-0.115044
-0.11978
-0.12315
-0.124956
-0.125071
-0.123462
-0.12017
-0.115328
-0.109111
-0.101748
-0.0934964
-0.0846184
-0.0753655
-0.065965
-0.0566125
-0.0474683
-0.0386609
-0.030287
-0.0224258
-0.0151322
-0.00846815
-0.00246868
0.00277824
0.00725133
0.0107635
0.0133592
0.0145769
0.014782
0.0127025
0.00992571
0.00272635
-0.240535
-0.236037
-0.235818
-0.234377
-0.233687
-0.233252
-0.233258
-0.233689
-0.234747
-0.236158
-0.238116
-0.240558
-0.243439
-0.246682
-0.25022
-0.253891
-0.257606
-0.261158
-0.264384
-0.267075
-0.26903
-0.270109
-0.269996
-0.268599
-0.265724
-0.261298
-0.25527
-0.247642
-0.238476
-0.227895
-0.216074
-0.203236
-0.189637
-0.175535
-0.161205
-0.146925
-0.132936
-0.119498
-0.106865
-0.095186
-0.0845447
-0.0750366
-0.0669049
-0.0599337
-0.0541599
-0.0495231
-0.0459276
-0.043259
-0.0413801
-0.0401905
-0.0395126
-0.0393088
-0.039502
-0.040046
-0.040958
-0.0422683
-0.044042
-0.0463623
-0.0493227
-0.0530123
-0.0575007
-0.0628245
-0.068975
-0.0758625
-0.0833258
-0.0911374
-0.0990118
-0.106623
-0.113629
-0.119695
-0.124518
-0.127848
-0.129504
-0.129365
-0.127442
-0.123779
-0.118524
-0.111876
-0.104084
-0.0954181
-0.086153
-0.076548
-0.0668342
-0.0572087
-0.0478307
-0.0388265
-0.0302896
-0.0222968
-0.0148986
-0.00815665
-0.0021
0.0031786
0.00767077
0.0111706
0.0137573
0.0149085
0.0150901
0.0128483
0.0100683
0.00250604
-0.240306
-0.235157
-0.235004
-0.233564
-0.232874
-0.232496
-0.23259
-0.23317
-0.234337
-0.235982
-0.238183
-0.240901
-0.244086
-0.247659
-0.251536
-0.255568
-0.259632
-0.263529
-0.267078
-0.270059
-0.27226
-0.273458
-0.273525
-0.272187
-0.269298
-0.264769
-0.25855
-0.250644
-0.241118
-0.2301
-0.217771
-0.204363
-0.190134
-0.175358
-0.16032
-0.145304
-0.130566
-0.11637
-0.102951
-0.0904798
-0.0790641
-0.0688292
-0.0599257
-0.0522752
-0.045885
-0.0407151
-0.0366869
-0.0337025
-0.0316447
-0.0304035
-0.0298506
-0.0299071
-0.0305009
-0.0315863
-0.0331663
-0.03526
-0.0379171
-0.0412035
-0.0451928
-0.0499512
-0.0555226
-0.0619153
-0.0690911
-0.076932
-0.0852517
-0.093802
-0.102283
-0.110362
-0.117694
-0.123949
-0.128832
-0.132106
-0.133603
-0.13321
-0.130983
-0.126961
-0.121314
-0.114264
-0.106075
-0.0970318
-0.0874192
-0.0775026
-0.0675162
-0.0576573
-0.0480831
-0.0389176
-0.0302504
-0.0221559
-0.0146805
-0.00788547
-0.00179382
0.00349634
0.0079903
0.0114625
0.0140288
0.0151071
0.0152638
0.0128781
0.0101109
0.00227596
-0.239962
-0.234553
-0.234204
-0.232843
-0.23213
-0.231802
-0.23197
-0.232665
-0.233952
-0.235784
-0.238194
-0.241149
-0.244596
-0.248454
-0.252627
-0.256964
-0.261331
-0.265527
-0.269354
-0.272585
-0.274992
-0.276348
-0.276519
-0.275222
-0.272311
-0.267684
-0.26129
-0.253134
-0.243285
-0.231876
-0.219095
-0.205178
-0.190389
-0.175018
-0.159355
-0.143689
-0.128289
-0.113417
-0.0993018
-0.0861259
-0.0740165
-0.0631102
-0.0535195
-0.0452366
-0.0382678
-0.0325893
-0.0281395
-0.0248366
-0.0225807
-0.0212715
-0.0207963
-0.0210653
-0.0220123
-0.0235881
-0.025785
-0.0286111
-0.0321011
-0.0363029
-0.0412691
-0.0470423
-0.0536396
-0.0610408
-0.0691781
-0.0779067
-0.0870172
-0.0962434
-0.105273
-0.113768
-0.121383
-0.127793
-0.132712
-0.135914
-0.137243
-0.136624
-0.13408
-0.129713
-0.123699
-0.116277
-0.107726
-0.0983452
-0.0884265
-0.0782406
-0.0680232
-0.0579708
-0.0482381
-0.0389461
-0.0301805
-0.0220134
-0.0144866
-0.00766198
-0.0015559
0.00372757
0.00820808
0.0116401
0.014177
0.0151796
0.0153118
0.0128044
0.0100646
0.00205009
-0.23974
-0.234035
-0.233475
-0.232202
-0.231464
-0.231171
-0.231398
-0.232186
-0.233579
-0.235562
-0.238146
-0.241299
-0.244967
-0.249063
-0.253484
-0.258079
-0.262701
-0.267147
-0.27121
-0.274654
-0.277229
-0.278723
-0.27897
-0.277701
-0.274763
-0.270046
-0.263496
-0.25512
-0.244989
-0.233239
-0.220064
-0.205704
-0.190433
-0.174547
-0.158343
-0.142116
-0.12614
-0.110678
-0.095957
-0.0821643
-0.069442
-0.0579294
-0.0477276
-0.038867
-0.0313628
-0.025206
-0.0203519
-0.0167351
-0.0142716
-0.0128705
-0.0124389
-0.0128781
-0.0141317
-0.016146
-0.018905
-0.0224066
-0.0266707
-0.0317273
-0.0376076
-0.0443298
-0.0518844
-0.0602228
-0.0692486
-0.0787915
-0.0886216
-0.0984566
-0.107975
-0.116833
-0.124688
-0.131218
-0.136148
-0.139261
-0.140415
-0.139563
-0.136728
-0.132036
-0.12568
-0.117919
-0.109045
-0.0993672
-0.0891855
-0.0787736
-0.0683673
-0.0581614
-0.0483074
-0.038923
-0.0300898
-0.0218776
-0.0143241
-0.00749153
-0.00138984
0.00387065
0.00832442
0.0117061
0.0142069
0.015134
0.0152439
0.0126405
0.00994105
0.00184075
-0.239651
-0.233635
-0.232816
-0.231634
-0.230874
-0.230603
-0.230875
-0.231733
-0.233214
-0.235315
-0.238039
-0.241352
-0.245197
-0.249486
-0.254108
-0.258912
-0.26374
-0.268389
-0.272642
-0.276268
-0.279024
-0.280585
-0.280879
-0.279626
-0.276659
-0.271863
-0.26518
-0.256617
-0.246247
-0.23421
-0.220703
-0.205972
-0.190297
-0.173978
-0.157321
-0.14062
-0.124157
-0.108192
-0.0929527
-0.0786298
-0.0653749
-0.053327
-0.0425868
-0.0332067
-0.025214
-0.0186131
-0.0133759
-0.00945352
-0.00677756
-0.00526868
-0.00485147
-0.00542193
-0.00693574
-0.00933582
-0.0125991
-0.0167144
-0.021687
-0.0275295
-0.0342517
-0.0418475
-0.0502812
-0.0594769
-0.0693105
-0.0795886
-0.0900626
-0.100437
-0.11038
-0.119548
-0.127599
-0.134217
-0.139133
-0.142144
-0.143114
-0.142035
-0.138924
-0.133928
-0.127262
-0.119196
-0.110039
-0.100108
-0.0897077
-0.0791136
-0.0685606
-0.0582408
-0.0483019
-0.0388579
-0.0299865
-0.0217554
-0.014198
-0.00737756
-0.00129733
0.0039259
0.00834155
0.0116652
0.0141249
0.0149799
0.015071
0.0123995
0.00975231
0.00165772
-0.239653
-0.233368
-0.232219
-0.231132
-0.230356
-0.230094
-0.230398
-0.231306
-0.232853
-0.235044
-0.237873
-0.241309
-0.245289
-0.249725
-0.254502
-0.259466
-0.264452
-0.269256
-0.273655
-0.277419
-0.280319
-0.281925
-0.282252
-0.281005
-0.278012
-0.273149
-0.266357
-0.257642
-0.24708
-0.234812
-0.22104
-0.206012
-0.190014
-0.173348
-0.156322
-0.139237
-0.122374
-0.105993
-0.0903218
-0.0755527
-0.0618434
-0.0493326
-0.0381241
-0.028284
-0.0198516
-0.012844
-0.00724887
-0.00303302
-0.000143608
0.00148498
0.00191342
0.00124726
-0.000481221
-0.00321389
-0.00692164
-0.0115846
-0.0171948
-0.0237477
-0.0312321
-0.0396185
-0.0488458
-0.0588121
-0.0693675
-0.0802975
-0.091337
-0.102178
-0.112485
-0.121909
-0.130113
-0.136784
-0.141663
-0.14456
-0.145363
-0.144043
-0.14067
-0.135395
-0.128449
-0.120117
-0.110719
-0.100579
-0.0900052
-0.0792731
-0.0686152
-0.0582202
-0.0482314
-0.0387594
-0.0298777
-0.0216521
-0.0141121
-0.00732186
-0.00127834
0.0038953
0.00826327
0.0115234
0.0139388
0.0147275
0.0148042
0.012094
0.00950967
0.00150759
-0.239692
-0.233231
-0.231682
-0.230684
-0.229901
-0.229638
-0.229961
-0.230903
-0.232494
-0.234745
-0.237648
-0.241168
-0.245243
-0.249783
-0.254668
-0.259745
-0.264842
-0.269754
-0.274256
-0.278117
-0.281
-0.282741
-0.283097
-0.281853
-0.278837
-0.273921
-0.267046
-0.258217
-0.247513
-0.235074
-0.221105
-0.205857
-0.189616
-0.172688
-0.155382
-0.137999
-0.120823
-0.104111
-0.0880916
-0.0729572
-0.0588693
-0.0459668
-0.0343569
-0.0241157
-0.0152931
-0.00791769
-0.00199202
0.00250218
0.00560289
0.007361
0.00782353
0.00709424
0.00519496
0.00218279
-0.00190812
-0.0070502
-0.0132231
-0.0204058
-0.0285675
-0.037656
-0.0475862
-0.0582321
-0.0694198
-0.080916
-0.092441
-0.103677
-0.114282
-0.12391
-0.132223
-0.138916
-0.143735
-0.146505
-0.147127
-0.145589
-0.141971
-0.136443
-0.12925
-0.120692
-0.111097
-0.100793
-0.0900913
-0.0792648
-0.068543
-0.0581103
-0.0481054
-0.0386352
-0.0297692
-0.0215717
-0.0140684
-0.00732472
-0.00133139
0.00378225
0.00809467
0.0112878
0.0136571
0.0143871
0.0144547
0.0117356
0.00922338
0.00139353
-0.239694
-0.233212
-0.231199
-0.230274
-0.229497
-0.229225
-0.229555
-0.230514
-0.23213
-0.234414
-0.237359
-0.240928
-0.245059
-0.249659
-0.254609
-0.259752
-0.264914
-0.269889
-0.274457
-0.278402
-0.281275
-0.283061
-0.283432
-0.282187
-0.279151
-0.274199
-0.26727
-0.258369
-0.247572
-0.235024
-0.220928
-0.205535
-0.189133
-0.172028
-0.154528
-0.136935
-0.11953
-0.102571
-0.086283
-0.0708606
-0.0564666
-0.0432405
-0.0312929
-0.0207074
-0.0115432
-0.00383906
0.0023886
0.00714426
0.010452
0.0123469
0.0128653
0.0121026
0.0100746
0.00683553
0.00242325
-0.00312788
-0.00978616
-0.0175152
-0.0262657
-0.0359642
-0.0465036
-0.0577354
-0.069464
-0.0814397
-0.0933699
-0.104928
-0.11577
-0.125548
-0.133929
-0.140613
-0.145348
-0.147982
-0.148426
-0.146677
-0.142833
-0.13708
-0.129678
-0.120935
-0.111186
-0.100765
-0.0899799
-0.0791019
-0.0683558
-0.0579212
-0.047932
-0.0384915
-0.0296655
-0.0215169
-0.0140678
-0.00738514
-0.00145378
0.00359128
0.00784183
0.0109662
0.0132889
0.0139693
0.0140332
0.0113345
0.0089024
0.00131534
-0.239562
-0.23327
-0.230761
-0.22988
-0.229124
-0.228839
-0.229167
-0.23013
-0.23175
-0.234043
-0.237
-0.240585
-0.244734
-0.249355
-0.254326
-0.259493
-0.264676
-0.269666
-0.274253
-0.278388
-0.281123
-0.282908
-0.283275
-0.282025
-0.278979
-0.27401
-0.267056
-0.258123
-0.247287
-0.23469
-0.220536
-0.205076
-0.188594
-0.171395
-0.153786
-0.136066
-0.118515
-0.101388
-0.0849086
-0.0692713
-0.0546401
-0.0411548
-0.0289295
-0.0180536
-0.00859432
-0.000599745
0.00590128
0.0109005
0.0144103
0.0164481
0.0170427
0.0162733
0.0141567
0.0107423
0.00607017
0.000180522
-0.00688474
-0.0150753
-0.0243244
-0.0345396
-0.0455931
-0.0573164
-0.0694945
-0.0818633
-0.0941191
-0.105929
-0.116944
-0.126821
-0.135231
-0.141876
-0.146505
-0.148992
-0.149262
-0.147315
-0.143267
-0.13732
-0.129744
-0.120859
-0.111003
-0.100509
-0.0896854
-0.0787976
-0.0680651
-0.0576626
-0.0477189
-0.038334
-0.0295701
-0.0214891
-0.01411
-0.00750105
-0.00164179
0.0033278
0.00751157
0.0105672
0.0128436
0.0134844
0.0135503
0.0108999
0.0085542
0.00126994
-0.23919
-0.233337
-0.230351
-0.229478
-0.228755
-0.228458
-0.228778
-0.229731
-0.23134
-0.23362
-0.236562
-0.24013
-0.244262
-0.248866
-0.253819
-0.258968
-0.264132
-0.269096
-0.273621
-0.277372
-0.280493
-0.282297
-0.282649
-0.281395
-0.278347
-0.27338
-0.266433
-0.25751
-0.246685
-0.234101
-0.219958
-0.204503
-0.18802
-0.170809
-0.153173
-0.135407
-0.117789
-0.10057
-0.083972
-0.0681888
-0.0533849
-0.0397008
-0.0272536
-0.0161378
-0.00642751
0.00182102
0.00856748
0.0137919
0.0174987
0.0196939
0.0203751
0.0196224
0.0174554
0.0139158
0.0090444
0.00288614
-0.00450806
-0.0130752
-0.0227331
-0.0333716
-0.0448447
-0.0569658
-0.0695032
-0.0821802
-0.0946837
-0.106675
-0.117804
-0.12773
-0.13613
-0.142712
-0.147215
-0.149548
-0.149646
-0.147513
-0.143286
-0.137177
-0.129467
-0.120482
-0.110564
-0.100043
-0.0892231
-0.0783651
-0.0676822
-0.0573433
-0.0474728
-0.0381671
-0.0294855
-0.021489
-0.0141937
-0.00766945
-0.00189089
0.00299791
0.00711122
0.0100994
0.0123305
0.0129424
0.0130156
0.0104394
0.00818493
0.001252
-0.238486
-0.233313
-0.229937
-0.22904
-0.228357
-0.228054
-0.228361
-0.229296
-0.230879
-0.233126
-0.236029
-0.239553
-0.243636
-0.248188
-0.253086
-0.25818
-0.26329
-0.2682
-0.272642
-0.276461
-0.279464
-0.281246
-0.281579
-0.28032
-0.277282
-0.272338
-0.265429
-0.256557
-0.245796
-0.233284
-0.219217
-0.203841
-0.187432
-0.170286
-0.1527
-0.134966
-0.117355
-0.100116
-0.0834677
-0.0676029
-0.0526864
-0.0388596
-0.0262421
-0.0149332
-0.00501286
0.00345536
0.0104206
0.0158513
0.019749
0.0221416
0.0228935
0.0221786
0.0199976
0.0163814
0.0113697
0.0050112
-0.00263534
-0.0114958
-0.021474
-0.0324441
-0.0442442
-0.0566716
-0.0694804
-0.0823832
-0.0950587
-0.107164
-0.118349
-0.128275
-0.13663
-0.143129
-0.147496
-0.149669
-0.149589
-0.147287
-0.142905
-0.136668
-0.128865
-0.119824
-0.109887
-0.099383
-0.0886084
-0.0778178
-0.0672178
-0.0569719
-0.0471996
-0.0379946
-0.0294134
-0.0215161
-0.0143169
-0.00788664
-0.00219594
0.00260813
0.00664839
0.00957131
0.0117589
0.0123527
0.0124381
0.00995959
0.00779954
0.0012548
-0.237383
-0.233073
-0.229473
-0.228533
-0.227891
-0.227593
-0.22789
-0.228798
-0.230343
-0.232541
-0.235384
-0.238838
-0.242845
-0.247313
-0.252125
-0.257131
-0.262153
-0.266987
-0.271448
-0.275149
-0.278043
-0.279777
-0.280091
-0.278831
-0.275813
-0.270915
-0.264075
-0.255296
-0.244647
-0.232264
-0.218338
-0.203108
-0.186845
-0.169836
-0.152374
-0.134743
-0.117209
-0.100016
-0.0833808
-0.0674941
-0.0525205
-0.0386026
-0.0258624
-0.0144033
-0.00431076
0.0043454
0.0115048
0.017123
0.0211964
0.0238083
0.0246303
0.0239803
0.0218214
0.0181754
0.01308
0.00658723
-0.00123756
-0.0103105
-0.0205232
-0.0317364
-0.0437739
-0.0564193
-0.069415
-0.0824644
-0.0952397
-0.107395
-0.118579
-0.12846
-0.136736
-0.143134
-0.147369
-0.149361
-0.149108
-0.146653
-0.142145
-0.135815
-0.127958
-0.118905
-0.108994
-0.0985477
-0.087857
-0.0771686
-0.0666823
-0.0565559
-0.0469047
-0.0378195
-0.0293545
-0.0215696
-0.0144769
-0.00814835
-0.00255138
0.00216529
0.00613084
0.00899165
0.0111377
0.0117241
0.0118261
0.00946587
0.00740208
0.00127101
-0.235847
-0.232492
-0.228897
-0.227922
-0.227318
-0.227039
-0.22733
-0.228208
-0.229706
-0.231842
-0.234608
-0.237972
-0.241876
-0.246235
-0.250932
-0.255821
-0.260724
-0.265435
-0.269846
-0.273463
-0.276252
-0.277918
-0.278212
-0.276956
-0.273973
-0.269143
-0.262403
-0.253756
-0.243267
-0.231067
-0.217342
-0.202322
-0.18627
-0.169466
-0.152195
-0.134732
-0.117339
-0.100253
-0.0836883
-0.0678339
-0.0528542
-0.0388924
-0.026073
-0.0145031
-0.00427311
0.00454177
0.0118728
0.0176617
0.0218889
0.0245107
0.0256195
0.0250754
0.0229745
0.0193426
0.0142174
0.00765315
-0.00027912
-0.00948731
-0.0198527
-0.0312241
-0.0434134
-0.056193
-0.0692951
-0.0824157
-0.0952222
-0.107366
-0.118497
-0.128287
-0.136453
-0.142744
-0.146789
-0.148632
-0.148218
-0.145631
-0.141028
-0.134642
-0.126772
-0.117748
-0.107904
-0.0975554
-0.0869847
-0.0764305
-0.0660856
-0.0561025
-0.0465924
-0.0376438
-0.0293091
-0.0216476
-0.0146704
-0.00844995
-0.00295137
0.00167629
0.00556627
0.0083687
0.0104756
0.0110647
0.0111871
0.00896279
0.00699599
0.00129348
-0.23388
-0.231468
-0.228142
-0.227162
-0.226597
-0.226353
-0.226648
-0.227496
-0.228942
-0.231006
-0.233681
-0.236938
-0.240721
-0.244948
-0.249505
-0.254253
-0.259017
-0.26361
-0.267866
-0.271412
-0.274108
-0.275701
-0.275974
-0.274729
-0.271795
-0.267056
-0.260448
-0.25197
-0.241685
-0.229719
-0.216248
-0.201496
-0.185715
-0.169177
-0.152157
-0.134922
-0.117726
-0.100802
-0.0843598
-0.0685867
-0.0536468
-0.0396842
-0.0268253
-0.0151804
-0.00484471
0.00410201
0.0115844
0.0175321
0.0219027
0.0246834
0.0259416
0.0255229
0.0235117
0.0199347
0.01483
0.00825353
0.00028053
-0.00898999
-0.0194305
-0.0308801
-0.0431407
-0.0559753
-0.0691081
-0.0822293
-0.0950026
-0.107077
-0.118106
-0.127763
-0.135791
-0.142006
-0.145803
-0.147489
-0.146938
-0.144247
-0.139578
-0.133173
-0.125331
-0.116377
-0.106639
-0.0964251
-0.086007
-0.0756157
-0.065437
-0.0556182
-0.0462669
-0.0374695
-0.0292769
-0.0217484
-0.0148941
-0.00878664
-0.00339004
0.00114797
0.00496218
0.0077104
0.00978056
0.0103822
0.0105279
0.00845413
0.00658429
0.00131585
-0.231512
-0.229947
-0.227135
-0.226205
-0.22569
-0.225501
-0.225812
-0.226635
-0.228027
-0.230013
-0.232588
-0.235725
-0.239371
-0.243448
-0.247847
-0.252433
-0.257039
-0.261482
-0.26555
-0.26902
-0.27164
-0.27316
-0.273412
-0.272186
-0.269318
-0.264691
-0.258242
-0.249969
-0.239929
-0.228242
-0.215075
-0.200642
-0.185186
-0.168967
-0.15225
-0.135294
-0.118346
-0.101632
-0.0853589
-0.0697114
-0.0548528
-0.0409278
-0.028065
-0.0163778
-0.00596532
0.0030885
0.0107034
0.0168026
0.0213183
0.0242738
0.0256665
0.0253869
0.0234928
0.0200084
0.0149709
0.00843719
0.000485742
-0.00877904
-0.0192225
-0.0306758
-0.0429326
-0.0557483
-0.0688413
-0.0818974
-0.0945778
-0.106531
-0.117412
-0.126893
-0.134748
-0.140982
-0.144434
-0.145959
-0.145295
-0.142527
-0.137826
-0.131439
-0.123662
-0.114817
-0.105222
-0.0951755
-0.0849395
-0.0747365
-0.0647455
-0.0551091
-0.0459316
-0.0372977
-0.0292574
-0.0218696
-0.0151442
-0.0091536
-0.00386154
0.000586947
0.00432577
0.0070242
0.00906007
0.00968312
0.00985477
0.00794306
0.00616975
0.00133299
-0.227958
-0.225821
-0.225005
-0.224566
-0.224453
-0.224792
-0.225605
-0.226945
-0.22885
-0.231319
-0.234327
-0.237824
-0.241738
-0.245965
-0.250374
-0.254806
-0.259089
-0.26301
-0.266345
-0.268868
-0.270328
-0.270564
-0.269366
-0.266578
-0.262085
-0.255823
-0.247787
-0.238029
-0.22666
-0.213841
-0.199773
-0.184687
-0.168833
-0.152464
-0.135832
-0.119174
-0.102712
-0.0866478
-0.0711636
-0.0564222
-0.042569
-0.0297344
-0.0180342
-0.00757127
0.0015667
0.00929526
0.0155373
0.0203032
0.0233481
0.0248618
0.0247319
0.0229802
0.0196227
0.0146954
0.00825507
0.000382496
-0.00881381
-0.0191936
-0.0305817
-0.0427653
-0.0554943
-0.0684824
-0.0814129
-0.0939461
-0.105731
-0.116422
-0.125687
-0.133304
-0.139743
-0.142685
-0.144074
-0.143318
-0.140501
-0.135801
-0.129467
-0.121794
-0.113093
-0.103674
-0.0938246
-0.0837962
-0.0738032
-0.0640183
-0.0545796
-0.0455887
-0.0371287
-0.029249
-0.0220081
-0.0154165
-0.00954553
-0.0043598
-8.93368e-08
0.0036641
0.00631725
0.00832116
0.00897381
0.00917319
0.00743231
0.00575496
0.00134124
-0.225586
-0.224164
-0.223525
-0.223202
-0.223187
-0.22357
-0.224389
-0.225682
-0.227505
-0.229865
-0.23274
-0.236083
-0.239826
-0.243871
-0.248093
-0.252341
-0.256459
-0.260228
-0.263423
-0.26583
-0.267241
-0.267466
-0.266308
-0.263616
-0.259277
-0.253227
-0.245456
-0.236012
-0.224998
-0.212563
-0.198897
-0.18422
-0.168768
-0.152786
-0.136514
-0.120183
-0.104007
-0.0881859
-0.0728974
-0.0583048
-0.0445536
-0.0317756
-0.0200889
-0.00959929
-0.00039806
0.00742583
0.0137901
0.0187848
0.0219426
0.0235896
0.0236223
0.0220356
0.0188364
0.0140584
0.00775776
1.65654e-05
-0.00905377
-0.0193089
-0.0305686
-0.0426156
-0.0551957
-0.0680197
-0.0807698
-0.0931068
-0.104681
-0.115148
-0.124163
-0.131421
-0.136384
-0.14051
-0.141862
-0.14104
-0.138202
-0.133535
-0.127289
-0.119752
-0.111228
-0.102014
-0.0923865
-0.0825873
-0.0728227
-0.0632593
-0.0540312
-0.0452375
-0.03696
-0.0292479
-0.0221593
-0.0157054
-0.00995618
-0.00487807
-0.000606125
0.00298434
0.00559648
0.00757057
0.00825989
0.00848834
0.00692428
0.00534236
0.00133838
-0.222928
-0.222168
-0.221752
-0.221587
-0.221695
-0.222143
-0.222983
-0.224245
-0.225989
-0.228238
-0.230975
-0.234159
-0.237725
-0.241582
-0.245609
-0.249665
-0.253611
-0.257222
-0.260301
-0.262586
-0.263947
-0.264164
-0.263055
-0.260471
-0.256302
-0.250483
-0.243
-0.233895
-0.223262
-0.211238
-0.198004
-0.183764
-0.168744
-0.153177
-0.137294
-0.121318
-0.105458
-0.0899086
-0.0748451
-0.0604301
-0.0468093
-0.0341158
-0.022469
-0.0119771
-0.00273549
0.00516512
0.011648
0.0167209
0.0201036
0.0219124
0.0221253
0.0207219
0.0177073
0.0131127
0.00699283
-0.000570004
-0.00946264
-0.0195379
-0.0306124
-0.0424656
-0.0548409
-0.0674475
-0.0799684
-0.0920657
-0.103392
-0.113607
-0.12236
-0.12932
-0.134405
-0.13811
-0.13937
-0.138501
-0.135667
-0.131064
-0.124937
-0.117567
-0.109247
-0.100263
-0.0908785
-0.0813267
-0.0718056
-0.0624764
-0.0534693
-0.0448814
-0.0367934
-0.0292543
-0.0223218
-0.0160083
-0.010382
-0.00541188
-0.00122616
0.00229208
0.00486736
0.00681403
0.00754597
0.00780501
0.00642105
0.00493459
0.00132386
-0.220114
-0.219898
-0.219727
-0.219751
-0.22
-0.220526
-0.221391
-0.222646
-0.224326
-0.226469
-0.22907
-0.232095
-0.235483
-0.239152
-0.242982
-0.246837
-0.250585
-0.254062
-0.256991
-0.25919
-0.260511
-0.26073
-0.259678
-0.257214
-0.253229
-0.247655
-0.240477
-0.231729
-0.221495
-0.209903
-0.197118
-0.183335
-0.168766
-0.153633
-0.138158
-0.122557
-0.107034
-0.0917764
-0.0769581
-0.0627409
-0.0492707
-0.0366819
-0.0250951
-0.0146197
-0.00535664
0.00260072
0.00917732
0.0142978
0.0179028
0.0198829
0.0202983
0.0190998
0.0162948
0.011914
0.00601096
-0.00133232
-0.0100018
-0.0198488
-0.0306878
-0.0422967
-0.0544176
-0.06676
-0.0790089
-0.0908292
-0.101877
-0.111819
-0.120314
-0.127005
-0.132068
-0.135462
-0.136626
-0.135733
-0.132936