/*--------------------------------*- C++ -*----------------------------------*\
  =========                 |
  \\      /  F ield         | OpenFOAM: The Open Source CFD Toolbox
   \\    /   O peration     | Website:  https://openfoam.org
    \\  /    A nd           | Version:  7
     \\/     M anipulation  |
\*---------------------------------------------------------------------------*/
FoamFile
{
    version     2.0;
    format      ascii;
    class       surfaceScalarField;
    location    "75";
    object      phi;
}
// * * * * * * * * * * * * * * * * * * * * * * * * * * * * * * * * * * * * * //

dimensions      [0 3 -1 0 0 0 0];

internalField   nonuniform List<scalar> 
11835
(
-0.000551132
1.85844e-05
-0.00058513
2.76552e-05
-0.00062005
3.9131e-05
-0.000656454
5.34341e-05
7.12112e-05
-0.000695133
-0.000543734
5.0825e-05
-0.000576206
6.01276e-05
-0.000609313
7.22379e-05
-0.000643589
8.77102e-05
0.000107417
-0.000679795
-0.000528049
-0.000557768
8.98468e-05
-0.000587634
0.000102104
-0.000618153
0.000118229
0.000139323
-0.00065006
-0.000530037
0.000115635
-0.000555285
0.000127352
-0.000580469
0.000143413
0.000165127
-0.000606273
-0.000493257
0.000136378
-0.000512575
0.00014667
-0.000530904
0.000161741
0.000183034
-0.000548811
-0.00044766
0.000151029
-0.000459808
0.000158819
-0.00046984
0.000171773
0.000191247
-0.000478052
-0.000393411
0.00015861
-0.000397222
0.00016263
-0.000397608
0.000172159
0.000187979
-0.000394341
-0.000330545
0.000158188
-0.000324914
0.000157
-0.000314403
0.000161648
0.000171528
-0.000297953
-0.000258894
0.000148831
-0.000242739
0.000140844
-0.000220132
0.000139042
0.000140505
-0.000189109
-0.000178023
0.000129542
-0.00015023
0.000113051
-0.000114047
0.000102858
9.47987e-05
-6.83401e-05
-8.71555e-05
-4.68914e-05
7.27873e-05
6.77798e-06
4.91884e-05
3.40975e-05
6.74792e-05
6.92582e-05
1.84738e-05
0.000137186
-1.87397e-05
-4.99405e-05
0.000221224
0.000199817
-5.23385e-05
0.000285225
-0.000104148
-0.000156755
0.000392039
0.000346117
-0.000141651
0.000451448
-0.000209479
-0.000288052
0.000582745
0.000510006
0.000637782
-0.000337255
-0.000445908
0.000795637
0.000845794
-0.00049023
-0.000632439
0.00103232
0.00107613
-0.000671084
-0.000849395
0.00129309
0.00132805
-0.00109756
0.00157622
-0.00137604
0.00187752
-0.00168155
0.00219002
0.00250414
-0.000717848
0.000105339
-0.00073554
0.000148073
-0.000751934
0.000198389
-0.000765878
0.000252714
-0.000777934
0.000310785
-0.000788059
0.000371046
-0.000796376
0.000431911
-0.000802957
0.000491605
-0.000807888
0.000548171
-0.000811252
0.000599557
-0.000813128
0.000643631
-0.000813595
0.00067825
-0.000812719
0.000701329
-0.000810558
0.000710907
-0.000807153
0.00070521
-0.00080252
0.000682692
-0.000796685
0.0006422
-0.00078964
0.000582826
-0.000781376
0.000504138
-0.000771879
0.000406137
-0.000761147
0.000289318
-0.000749181
0.000154671
-0.000735882
3.51738e-06
-0.000721619
-0.000161474
-0.000706385
-0.000338399
-0.000690324
-0.000524014
-0.000673589
-0.000714969
-0.00065634
-0.000907658
-0.000638724
-0.00109829
-0.000620849
-0.00128297
-0.000602741
-0.00145781
-0.000584327
-0.00161896
-0.000565395
-0.0017627
-0.000545577
-0.00188548
-0.000524354
-0.00198396
-0.000501089
-0.00205492
-0.000475053
-0.0020954
-0.000445477
-0.00210284
-0.000411606
-0.00207516
-0.000372773
-0.00201084
-0.000328518
-0.00190915
-0.000278503
-0.0017701
-0.000222775
-0.00159493
-0.000161605
-0.00138575
-9.55015e-05
-0.00114563
-2.53703e-05
-0.000878869
4.80012e-05
-0.000590584
0.000123139
-0.000285924
0.00019852
2.88962e-05
0.000272731
0.000347536
0.000343984
0.000664595
0.000410968
0.00097314
0.000472052
0.00126915
0.000525784
0.00154849
0.000570857
0.00180831
0.000606253
0.00204668
0.000631357
0.00226258
0.000646097
0.0024556
0.000651079
0.00262558
0.0006477
0.00277204
0.000638191
0.00289376
0.00062556
0.00298834
0.000613395
0.00305208
0.000605531
0.00308022
0.000605618
0.00306756
0.000616688
0.0030093
0.00064081
0.002902
0.000678907
0.00274435
0.000730762
0.00253759
0.000795185
0.00228551
0.000870277
0.00199413
0.000953728
0.00167109
0.00104308
0.00132497
0.00113593
0.000964727
0.00123002
0.000599144
0.00132335
0.000236511
0.00141406
-0.000115608
0.00150055
-0.000450742
0.00158135
-0.000763385
0.00165514
-0.00104929
0.00172074
-0.00130552
0.00177713
-0.00153045
0.00182341
-0.00172372
0.00185881
-0.00188618
0.00188268
-0.00201969
0.00189445
-0.00212696
0.00189362
-0.00221139
0.0018798
-0.00227685
0.00185286
-0.00232741
0.00181309
-0.00236679
0.00176159
-0.00239782
0.00170049
-0.00242112
0.00163328
-0.0024348
0.00156457
-0.00243206
0.00149985
-0.00240469
0.00144447
-0.00233584
0.00140328
-0.00222129
0.00137883
-0.00202036
0.00137273
-0.00180322
-0.00131069
-0.000701005
0.00012655
-0.000717038
0.000164106
-0.000731703
0.000213054
-0.000743838
0.000264849
-0.000754002
0.000320949
-0.000762176
0.00037922
-0.000768492
0.000438227
-0.00077304
0.000496153
-0.000775917
0.000551049
-0.000777223
0.000600863
-0.000777052
0.00064346
-0.000775494
0.000676692
-0.000772631
0.000698466
-0.000768531
0.000706808
-0.000763255
0.000699934
-0.000756826
0.000676264
-0.000749302
0.000634675
-0.000740693
0.000574217
-0.000731019
0.000494464
-0.000720298
0.000395416
-0.000708557
0.000277577
-0.000695806
0.00014192
-0.000682173
-1.01148e-05
-0.000667759
-0.000175889
-0.000652793
-0.000353365
-0.000637439
-0.000539367
-0.000621906
-0.000730503
-0.00060641
-0.000923154
-0.000591158
-0.00111354
-0.000576312
-0.00129782
-0.000561951
-0.00147217
-0.00054804
-0.00163287
-0.000534391
-0.00177635
-0.000520639
-0.00189924
-0.000506231
-0.00199837
-0.000490476
-0.00207067
-0.000472561
-0.00211331
-0.000451602
-0.00212379
-0.000426691
-0.00210007
-0.000396993
-0.00204054
-0.000361852
-0.00194429
-0.000320786
-0.00181117
-0.000273622
-0.00164209
-0.00022048
-0.00143889
-0.000161751
-0.00120436
-9.81941e-05
-0.000942426
-3.09036e-05
-0.000657874
3.94124e-05
-0.00035624
0.00011107
-4.27616e-05
0.000182233
0.000276373
0.000251118
0.00059571
0.000316499
0.000907759
0.000376737
0.00120891
0.000430396
0.00149483
0.000476225
0.00176248
0.000513313
0.00200959
0.000541202
0.00223469
0.000560018
0.00243679
0.00057059
0.00261501
0.000574521
0.00276811
0.000574179
0.0028941
0.000572573
0.00298995
0.000573126
0.00305153
0.000579316
0.00307403
0.00059427
0.0030526
0.000620395
0.00298317
0.000659116
0.00286328
0.000710784
0.00269268
0.000774744
0.00247363
0.000849537
0.00221072
0.000933168
0.0019105
0.00102338
0.00158088
0.00111787
0.00123048
0.00121446
0.000868135
0.00131116
0.000502444
0.00140617
0.000141504
0.00149785
-0.000207291
0.00158477
-0.000537657
0.00166558
-0.000844201
0.00173909
-0.0011228
0.00180422
-0.00137065
0.00186003
-0.00158625
0.00190572
-0.00176941
0.00194063
-0.00192109
0.0019642
-0.00204326
0.00197593
-0.00213869
0.00197538
-0.00221084
0.00196212
-0.00226359
0.00193585
-0.00230115
0.00189659
-0.00232753
0.00184498
-0.00234621
0.0017826
-0.00235874
0.00171238
-0.00236459
0.00163855
-0.00235822
0.00156655
-0.00233269
0.00150203
-0.00227131
0.00145073
-0.00216999
0.00141597
-0.0019856
0.00140108
-0.00178833
-0.00131558
-0.000669499
0.000145989
-0.000683486
0.000178093
-0.000696132
0.0002257
-0.000706181
0.000274898
-0.000714196
0.000328964
-0.000720175
0.000385199
-0.000724256
0.000442308
-0.000726542
0.000498438
-0.000727143
0.00055165
-0.000726169
0.000599889
-0.000723729
0.00064102
-0.000719925
0.000672888
-0.000714851
0.000693393
-0.00070859
0.000700547
-0.00070122
0.000692564
-0.000692771
0.000667814
-0.000683337
0.000625241
-0.000672946
0.000563826
-0.000661649
0.000483167
-0.000649493
0.000383259
-0.000636538
0.000264623
-0.000622852
0.000128233
-0.000608567
-2.44001e-05
-0.000593836
-0.00019062
-0.000578922
-0.000368279
-0.000564048
-0.00055424
-0.000549477
-0.000745074
-0.000535485
-0.000937146
-0.000522336
-0.00112669
-0.000510254
-0.0013099
-0.000499376
-0.00148305
-0.000489715
-0.00164253
-0.000481124
-0.00178494
-0.00047325
-0.00190711
-0.000465533
-0.00200609
-0.000457244
-0.00207896
-0.0004475
-0.00212306
-0.000435315
-0.00213598
-0.000419628
-0.00211576
-0.000399442
-0.00206073
-0.00037391
-0.00196983
-0.000342385
-0.00184269
-0.000304485
-0.00167999
-0.000260153
-0.00148322
-0.000209636
-0.00125488
-0.000153549
-0.000998513
-9.28146e-05
-0.000718608
-2.87342e-05
-0.000420321
3.8049e-05
-0.000109545
0.000105646
0.000208776
0.00017163
0.000529726
0.000234995
0.000844394
0.000294143
0.00114976
0.000347659
0.00144132
0.000394367
0.00171577
0.000433469
0.00197049
0.000464657
0.0022035
0.000488231
0.00241321
0.000505188
0.00259805
0.000517256
0.00275604
0.000526833
0.00288453
0.000536825
0.00297995
0.000550376
0.00303798
0.000570528
0.00305388
0.000599853
0.00302328
0.000640152
0.00294287
0.000692268
0.00281116
0.000756074
0.00262888
0.000830583
0.00239912
0.000914171
0.00212713
0.00100483
0.00181984
0.00110043
0.00148528
0.00119885
0.00113206
0.00129816
0.000768825
0.0013966
0.000404002
0.00149258
4.55268e-05
0.00158464
-0.000299345
0.00167147
-0.000624489
0.00175185
-0.000924587
0.00182468
-0.00119563
0.00188895
-0.00143492
0.00194382
-0.00164113
0.00198859
-0.00181419
0.00202271
-0.00195521
0.00204572
-0.00206626
0.00205721
-0.00215019
0.00205682
-0.00221044
0.00204413
-0.00225091
0.00201878
-0.0022758
0.00198054
-0.00228929
0.00192965
-0.00229532
0.00186715
-0.00229624
0.00179537
-0.0022928
0.00171796
-0.00228082
0.00164017
-0.0022549
0.00156768
-0.00219882
0.001507
-0.00210931
0.00146216
-0.00194076
0.00143814
-0.00176431
-0.00131397
-0.000623722
0.000163439
-0.000635321
0.000189692
-0.000645687
0.000236065
-0.00065341
0.000282621
-0.000659047
0.000334602
-0.000662612
0.000388764
-0.000664245
0.000443941
-0.00066406
0.000498253
-0.000662178
0.000549768
-0.000658721
0.000596431
-0.000653808
0.000636107
-0.000647553
0.000666633
-0.000640064
0.000685904
-0.000631439
0.000691921
-0.000621775
0.0006829
-0.000611102
0.000657141
-0.000599561
0.000613699
-0.000587195
0.000551461
-0.000574082
0.000470054
-0.000560299
0.000369476
-0.000545943
0.000250266
-0.000531131
0.000113422
-0.000515985
-3.95462e-05
-0.000500727
-0.000205878
-0.000485646
-0.00038336
-0.000471016
-0.00056887
-0.000457152
-0.000758939
-0.000444384
-0.000949915
-0.000433038
-0.00113803
-0.000423399
-0.00131954
-0.00041567
-0.00149078
-0.000409921
-0.00164828
-0.000406055
-0.0017888
-0.000403757
-0.00190941
-0.000402474
-0.00200737
-0.000401467
-0.00207997
-0.000399787
-0.00212474
-0.000396371
-0.0021394
-0.000390002
-0.00212213
-0.000379528
-0.0020712
-0.000363916
-0.00198544
-0.000342355
-0.00186426
-0.000314247
-0.0017081
-0.000279348
-0.00151812
-0.000237738
-0.00129649
-0.000189876
-0.00104637
-0.000136552
-0.000771932
-7.88642e-05
-0.000478008
-1.83285e-05
-0.000170081
4.48175e-05
0.000145631
0.000107452
0.000467092
0.000168416
0.00078343
0.000226257
0.00109192
0.000279573
0.001388
0.000327278
0.00166807
0.000368684
0.00192908
0.000403613
0.00216857
0.000432497
0.00238433
0.000456439
0.00257411
0.000477201
0.00273528
0.000497118
0.00286461
0.000518891
0.00295818
0.00054531
0.00301156
0.000578938
0.00302025
0.00062179
0.00298042
0.000675102
0.00288956
0.000739217
0.00274705
0.000813623
0.00255447
0.000897104
0.00231564
0.000987959
0.00203627
0.00108424
0.00172355
0.00118397
0.00138555
0.00128526
0.00103077
0.0013864
0.00066769
0.00148587
0.000304533
0.00158217
-5.07773e-05
0.00167409
-0.000391268
0.00176039
-0.000710788
0.00183994
-0.00100413
0.00191169
-0.00126739
0.00197475
-0.00149798
0.00202834
-0.00169472
0.00207187
-0.00185772
0.00210488
-0.00198822
0.00212704
-0.00208841
0.00213804
-0.0021612
0.00213762
-0.00221002
0.00212543
-0.00223871
0.00210107
-0.00225144
0.00206417
-0.00225239
0.00201466
-0.00224581
0.00195305
-0.00223463
0.00188103
-0.00222078
0.00180161
-0.0022014
0.00171961
-0.00217291
0.00164058
-0.00211979
0.00157154
-0.00204027
0.00151712
-0.00188634
0.00148385
-0.00173104
-0.00130542
-0.000564093
0.000178721
-0.000573034
0.000198633
-0.000580906
0.000243937
-0.000586108
0.000287824
-0.000589181
0.000337674
-0.00059015
0.000389733
-0.000589155
0.000442947
-0.000586322
0.00049542
-0.000581784
0.00054523
-0.000575668
0.000590315
-0.000568106
0.000628545
-0.000559224
0.000657751
-0.000549145
0.000675825
-0.000537979
0.000680755
-0.00052585
0.000670772
-0.000512777
0.000644068
-0.000498957
0.000599879
-0.000484448
0.000536952
-0.000469356
0.000454962
-0.000453781
0.000353902
-0.00043785
0.000234335
-0.000421749
9.73197e-05
-0.000405541
-5.57534e-05
-0.000389559
-0.000221861
-0.0003741
-0.000398819
-0.000359481
-0.000583489
-0.000346063
-0.000772357
-0.000334227
-0.00096175
-0.000324359
-0.0011479
-0.000316806
-0.00132709
-0.000311838
-0.00149575
-0.000309592
-0.00165053
-0.00031003
-0.00178837
-0.000312889
-0.00190655
-0.000317665
-0.00200259
-0.000323615
-0.00207402
-0.000329735
-0.00211862
-0.000334921
-0.00213421
-0.000337794
-0.00211925
-0.00033706
-0.00207193
-0.000331498
-0.001991
-0.000320141
-0.00187561
-0.000302173
-0.00172607
-0.000277154
-0.00154314
-0.00024498
-0.00132866
-0.000205941
-0.00108541
-0.000160674
-0.000817199
-0.000110148
-0.000528535
-5.55841e-05
-0.000224644
8.47606e-07
8.91988e-05
6.03767e-05
0.000407563
0.000118599
0.000725207
0.000174919
0.0010356
0.000227964
0.00133496
0.000276741
0.00161929
0.000320659
0.00188516
0.000359642
0.00212959
0.000394205
0.00234977
0.000425484
0.00254283
0.000455199
0.00270557
0.000485525
0.00283428
0.000518889
0.00292482
0.00055768
0.00297277
0.000603964
0.00297397
0.000659227
0.00292516
0.000724197
0.00282459
0.000798802
0.00267244
0.00088224
0.00247103
0.000973154
0.00222472
0.00106984
0.00193959
0.00117046
0.00162293
0.00127322
0.00128279
0.00137645
0.00092754
0.00147865
0.000565494
0.00157851
0.000204674
0.00167464
-0.000146911
0.00176597
-0.000482591
0.00185132
-0.000796147
0.00192965
-0.00108246
0.00199998
-0.00133771
0.00206147
-0.00155947
0.00211344
-0.00174669
0.0021554
-0.00189967
0.00218699
-0.00201981
0.00220799
-0.00210942
0.00221824
-0.00217145
0.00221757
-0.00220934
0.0022057
-0.00222685
0.0021823
-0.00222803
0.00214691
-0.002217
0.00209921
-0.00219811
0.00203929
-0.00217471
0.00196821
-0.0021497
0.00188827
-0.00212146
0.00180372
-0.00208836
0.00171971
-0.00203578
0.00164359
-0.00196415
0.0015804
-0.00182315
0.00153798
-0.00168862
-0.00128961
-0.000490999
0.000191668
-0.000497138
0.000204772
-0.000502356
0.000249155
-0.000504912
0.000290379
-0.000505289
0.000338051
-0.000503533
0.000387977
-0.000499781
0.000439195
-0.000494167
0.000489806
-0.000486844
0.000537906
-0.000477936
0.000581407
-0.000467589
0.000618199
-0.000455941
0.000646103
-0.000443129
0.000663012
-0.00042928
0.000666906
-0.00041455
0.000656042
-0.000398931
0.000628449
-0.000382691
0.000583639
-0.0003659
0.000520161
-0.000348687
0.000437749
-0.000331182
0.000336396
-0.000313534
0.000216688
-0.000296001
7.97861e-05
-0.000278546
-7.32078e-05
-0.000261664
-0.000238743
-0.000245627
-0.000414855
-0.000230798
-0.000598318
-0.000217574
-0.000785581
-0.000206384
-0.00097294
-0.000197666
-0.00115662
-0.000191829
-0.00133293
-0.000189209
-0.00149837
-0.000190013
-0.00164972
-0.000194264
-0.00178412
-0.000201769
-0.00189904
-0.000212114
-0.00199225
-0.000224567
-0.00206157
-0.000238067
-0.00210512
-0.000251531
-0.00212075
-0.0002634
-0.00210739
-0.000272259
-0.00206308
-0.000276698
-0.00198656
-0.000275601
-0.00187671
-0.000267941
-0.00173373
-0.000253066
-0.00155802
-0.000230682
-0.00135104
-0.000200895
-0.0011152
-0.00016417
-0.000853923
-0.00012133
-0.000571375
-7.34276e-05
-0.000272547
-2.19895e-05
3.77607e-05
3.1966e-05
0.000353607
8.71598e-05
0.000670013
0.000141713
0.00098105
0.000194371
0.0012823
0.000244216
0.00156945
0.000290735
0.00183864
0.000333917
0.0020864
0.000374306
0.00230938
0.000413007
0.00250413
0.000451617
0.00266696
0.000492092
0.00279381
0.000536524
0.00288038
0.00058688
0.00292241
0.000644742
0.0029161
0.000711106
0.0028588
0.000786265
0.00274943
0.000869813
0.00258889
0.000960746
0.0023801
0.00105764
0.00212783
0.00115884
0.00183838
0.00126267
0.0015191
0.0013675
0.00117796
0.00147188
0.000823159
0.0015745
0.00046288
0.00167421
0.000104963
0.00176971
-0.000242415
0.00186003
-0.000572909
0.00194407
-0.000880185
0.00202081
-0.00115921
0.00208936
-0.00140626
0.00214894
-0.00161904
0.00219896
-0.00179671
0.00223902
-0.00193973
0.00226888
-0.00204968
0.00228845
-0.00212898
0.00229767
-0.00218066
0.00229648
-0.00220816
0.00228474
-0.00221511
0.00226216
-0.00220545
0.00222829
-0.00218313
0.00218267
-0.00215249
0.00212502
-0.00211706
0.00205587
-0.00208055
0.00197676
-0.00204235
0.00189127
-0.00200287
0.00180397
-0.00194848
0.00172224
-0.00188243
0.00165139
-0.00175229
0.0016002
-0.00163743
-0.00126637
-0.000404728
0.000202055
-0.000408121
0.000208165
-0.000410588
0.000251622
-0.000410456
0.000290248
-0.000408084
0.000335679
-0.000403545
0.000383438
-0.00039697
0.00043262
-0.000388507
0.000481344
-0.000378328
0.000527727
-0.000366548
0.000569627
-0.000353329
0.00060498
-0.000338819
0.000631593
-0.000323173
0.000647366
-0.00030654
0.000650274
-0.000289108
0.00063861
-0.000270834
0.000610175
-0.000252057
0.000564861
-0.000232869
0.000500973
-0.000213415
0.000418296
-0.000193853
0.000316834
-0.000174359
0.000197194
-0.00015529
6.07173e-05
-0.000136396
-9.21013e-05
-0.000118433
-0.000256707
-0.000101622
-0.000431666
-8.63616e-05
-0.000613578
-7.30793e-05
-0.000798863
-6.22515e-05
-0.000983768
-5.43703e-05
-0.0011645
-4.99081e-05
-0.00133739
-4.92686e-05
-0.00149901
-5.27282e-05
-0.00164626
-6.03317e-05
-0.00177651
-7.19278e-05
-0.00188745
-8.72832e-05
-0.00197689
-0.000105665
-0.00204318
-0.00012596
-0.00208482
-0.00014722
-0.00209949
-0.000167653
-0.00208695
-0.000185769
-0.00204496
-0.000199983
-0.00197235
-0.00020902
-0.00186767
-0.000211663
-0.00173108
-0.000207017
-0.00156266
-0.000194596
-0.00136347
-0.000174318
-0.00113548
-0.000146465
-0.000881775
-0.000111691
-0.00060615
-7.08873e-05
-0.00031335
-2.54242e-05
-7.70241e-06
2.35165e-05
0.000304666
7.5336e-05
0.000618194
0.000127857
0.00092853
0.000179948
0.00123021
0.000230755
0.00151864
0.000279819
0.00178958
0.000327154
0.00203907
0.000373282
0.00226325
0.000419215
0.00245819
0.000466373
0.0026198
0.000516436
0.00274375
0.000571135
0.00282569
0.000632011
0.00286154
0.000700189
0.00284793
0.00077623
0.00278276
0.000860066
0.0026656
0.000951035
0.00249793
0.00104801
0.00228313
0.00114955
0.00202629
0.0012541
0.00173383
0.00136013
0.00141307
0.00146621
0.00107187
0.00157108
0.000718294
0.00167357
0.000360389
0.00177264
5.89504e-06
0.00186711
-0.000336888
0.00195605
-0.000661846
0.00203841
-0.000962543
0.00211322
-0.00123402
0.00217963
-0.00147267
0.00223696
-0.00167637
0.0022847
-0.00184445
0.00232256
-0.00197759
0.0023504
-0.00207753
0.00236825
-0.00214683
0.00237617
-0.00218858
0.00237422
-0.0022062
0.00236236
-0.00220325
0.00234042
-0.00218351
0.00230799
-0.00215069
0.00226454
-0.00210905
0.00220955
-0.00206206
0.00214308
-0.00201408
0.00206596
-0.00196523
0.00198105
-0.00191796
0.00189215
-0.00185958
0.00180645
-0.00179672
0.00172928
-0.00167513
0.00166996
-0.00157811
-0.00123574
-0.00030538
0.000209483
-0.000306398
0.000209182
-0.000306069
0.000251293
-0.000303321
0.0002875
-0.000298241
0.000330599
-0.000290952
0.000376149
-0.000281575
0.000423244
-0.00027027
0.000470038
-0.000257242
0.000514699
-0.000242575
0.00055496
-0.000226453
0.000588858
-0.000209036
0.000614176
-0.000190494
0.000628824
-0.000171009
0.000630789
-0.000150818
0.000618419
-0.000129779
0.000589136
-0.000108345
0.000543427
-8.66292e-05
0.000479258
-6.47677e-05
0.000396434
-4.29216e-05
0.000294988
-2.12795e-05
0.000175552
3.76563e-07
3.90613e-05
1.96595e-05
-0.000111384
3.83148e-05
-0.000275362
5.56173e-05
-0.000448969
7.11488e-05
-0.00062911
8.44528e-05
-0.000812167
9.50278e-05
-0.000994343
0.000102352
-0.00117183
0.000105906
-0.00134095
0.000105215
-0.00149831
9.98992e-05
-0.00164095
8.97735e-05
-0.00176639
7.47762e-05
-0.00187245
5.50658e-05
-0.00195718
3.12195e-05
-0.00201934
4.0459e-06
-0.00205765
-2.3777e-05
-0.00207166
-5.2017e-05
-0.00205871
-7.87698e-05
-0.00201821
-0.000102306
-0.00194881
-0.000121146
-0.00184883
-0.000133913
-0.00171832
-0.000139397
-0.00155718
-0.000136943
-0.00136592
-0.000126265
-0.00114616
-0.000107461
-0.000900579
-8.09937e-05
-0.000632617
-4.75564e-05
-0.000346787
-8.78257e-06
-4.64762e-05
3.59235e-05
0.00025996
8.39098e-05
0.000570208
0.0001341
0.000878339
0.000185373
0.00117893
0.000236929
0.00146708
0.000288332
0.00173818
0.000339585
0.00198782
0.000391139
0.00221169
0.000443869
0.00240547
0.000498971
0.00256469
0.000557819
0.0026849
0.000621771
0.00276173
0.000691954
0.00279135
0.000769079
0.0027708
0.000853331
0.00269851
0.00094435
0.00257458
0.00104129
0.00240098
0.00114295
0.00218147
0.00124794
0.0019213
0.00135481
0.00162696
0.0014622
0.00130569
0.00156884
0.000965232
0.00167362
0.000613516
0.00177557
0.000258438
0.00187345
-9.19904e-05
0.00196657
-0.00043001
0.00205378
-0.000749048
0.0021341
-0.00104287
0.00220663
-0.00130655
0.00227057
-0.00153661
0.00232531
-0.00173111
0.00237045
-0.0018896
0.00240581
-0.00201294
0.00243136
-0.00210308
0.00244723
-0.0021627
0.0024536
-0.00219495
0.00245065
-0.00220325
0.00243845
-0.00219106
0.00241694
-0.002162
0.00238577
-0.00211953
0.00234446
-0.00206773
0.00229231
-0.00200992
0.00222905
-0.00195082
0.00215487
-0.00189105
0.00207188
-0.00183497
0.00198304
-0.00177074
0.00189504
-0.00170873
0.00181312
-0.00159321
0.00174659
-0.00151158
-0.00119797
-0.000192755
0.000213129
-0.000192243
0.000208671
-0.000189124
0.000248173
-0.000183968
0.000282344
-0.000176339
0.00032297
-0.00016645
0.00036626
-0.0001544
0.000411194
-0.000140344
0.000455982
-0.000124565
0.000498919
-0.000107067
0.000537463
-8.80597e-05
0.00056985
-6.77095e-05
0.000593826
-4.61812e-05
0.000607296
-2.36788e-05
0.000608286
2.01837e-08
0.00059472
2.29798e-05
0.000566176
4.66236e-05
0.000519783
7.03898e-05
0.000455492
9.41189e-05
0.000372705
0.000117587
0.00027152
0.000140587
0.000152552
0.00016276
1.68882e-05
0.000184313
-0.000132937
0.000204388
-0.000295437
0.000222804
-0.000467385
0.000239148
-0.000645453
0.000252965
-0.000825985
0.000263751
-0.00100513
0.000270968
-0.00117904
0.000274071
-0.00134405
0.000272544
-0.00149679
0.00026597
-0.00163438
0.000254038
-0.00175445
0.000236513
-0.00185493
0.000213603
-0.00193427
0.000185818
-0.00199155
0.00015411
-0.00202594
0.000119356
-0.00203691
8.34051e-05
-0.00202276
4.79242e-05
-0.00198273
1.45603e-05
-0.00191545
-1.37725e-05
-0.0018205
-3.59825e-05
-0.00169611
-5.12198e-05
-0.00154194
-5.85259e-05
-0.00135861
-5.73708e-05
-0.00114731
-4.76619e-05
-0.000910288
-2.96528e-05
-0.000650626
-4.25246e-06
-0.000372188
2.98735e-05
-8.06021e-05
6.92018e-05
0.000220632
0.000113102
0.000526307
0.000160651
0.00083079
0.000210804
0.00112878
0.000262799
0.00141509
0.000316202
0.00168477
0.000370967
0.00193305
0.000427443
0.00215522
0.000486327
0.00234658
0.000548565
0.00250246
0.000615213
0.00261825
0.000687258
0.00268969
0.000765441
0.00271317
0.000850102
0.00268614
0.000941113
0.00260749
0.00103789
0.00247781
0.00113945
0.00229942
0.0012446
0.00207632
0.00135198
0.00181392
0.00146029
0.00151865
0.00156829
0.00119769
0.00167489
0.000858632
0.00177909
0.000509322
0.00188
0.000157528
0.00197649
-0.000188485
0.00206782
-0.000521342
0.00215293
-0.000834157
0.00223087
-0.0011208
0.00230076
-0.00137644
0.00236189
-0.00159774
0.00241372
-0.00178295
0.00245597
-0.00193184
0.00248854
-0.00204552
0.00251154
-0.00212608
0.0025252
-0.00217636
0.00252981
-0.00219956
0.00252564
-0.00219909
0.00251289
-0.0021783
0.00249158
-0.00214069
0.00246149
-0.00208944
0.00242218
-0.00202842
0.00237291
-0.00196065
0.00231317
-0.00189108
0.00224262
-0.00182051
0.00216269
-0.00175503
0.00207541
-0.00168346
0.0019868
-0.00162012
0.00190183
-0.00150823
0.00182927
-0.00143902
-0.00115354
-6.59152e-05
0.000210704
-6.59197e-05
0.000208676
-5.98322e-05
0.000242086
-5.2787e-05
0.000275299
-4.28919e-05
0.000313075
-3.07409e-05
0.000354109
-1.63077e-05
0.000396761
1.39886e-07
0.000439535
1.88111e-05
0.000480248
3.8965e-05
0.000517309
6.06134e-05
0.000548202
8.35445e-05
0.000570895
0.000107549
0.000583291
0.000132381
0.000583454
0.000157783
0.000569318
0.000183813
0.000540146
0.000209999
0.000493597
0.000236171
0.000429319
0.000262135
0.000346742
0.000287662
0.000245992
0.000312524
0.000127689
0.000336507
-7.09434e-06
0.000359443
-0.000155873
0.000380752
-0.000316746
0.000400165
-0.000486798
0.000417273
-0.000662561
0.000431615
-0.000840327
0.000442683
-0.0010162
0.000449931
-0.00118629
0.000452796
-0.00134691
0.00045074
-0.00149473
0.000443281
-0.00162692
0.000429977
-0.00174115
0.000410568
-0.00183552
0.000385164
-0.00190887
0.000354152
-0.00196054
0.000318304
-0.00199009
0.000278581
-0.00199719
0.000236655
-0.00198083
0.00019427
-0.00194034
0.000153423
-0.0018746
0.0001159
-0.00178298
8.35677e-05
-0.00166378
5.81274e-05
-0.0015165
4.07713e-05
-0.00134126
3.23466e-05
-0.00113889
3.32657e-05
-0.000911207
4.34954e-05
-0.000660856
6.25767e-05
-0.000391269
8.93978e-05
-0.000107423
0.000122977
0.000187053
0.000162553
0.000486731
0.000207177
0.000786167
0.000255884
0.00108007
0.000307939
0.00136303
0.000362893
0.00162982
0.000420632
0.00187531
0.000481372
0.00209448
0.000545611
0.00228234
0.000614034
0.00243403
0.000687376
0.00254491
0.000766273
0.00261079
0.000851113
0.00262833
0.000941916
0.00259534
0.0010383
0.00251111
0.0011395
0.00237661
0.00124447
0.00219444
0.00135202
0.00196878
0.00146088
0.00170506
0.00156987
0.00140967
0.00167787
0.00108968
0.00178392
0.000752583
0.00188711
0.000406136
0.00198658
5.80571e-05
0.00208132
-0.000283226
0.00217052
-0.000610547
0.00225319
-0.000916823
0.00232839
-0.001196
0.00239531
-0.00144336
0.00245328
-0.00165572
0.00250189
-0.00183156
0.00254095
-0.0019709
0.00257048
-0.00207505
0.00259071
-0.0021463
0.00260195
-0.00218761
0.00260461
-0.00220221
0.00259905
-0.00219353
0.00258555
-0.0021648
0.00256424
-0.00211939
0.00253502
-0.00206021
0.00249752
-0.00199093
0.00245104
-0.00191417
0.00239494
-0.00183498
0.0023285
-0.00175406
0.00225249
-0.00167902
0.0021681
-0.00159907
0.00208048
-0.0015325
0.0019942
-0.00142195
0.00191704
-0.00136187
-0.00110314
7.37558e-05
0.000204427
7.44926e-05
0.000207939
8.22692e-05
0.000234309
9.1098e-05
0.00026647
0.000102658
0.000301514
0.0001167
0.000340068
0.000133109
0.000380351
0.00015172
0.000420924
0.000172227
0.000459741
0.000194583
0.000494953
0.000218525
0.00052426
0.000243822
0.000545597
0.000270235
0.000556879
0.000297512
0.000556177
0.000325366
0.000541464
0.00035373
0.000511783
0.000382204
0.000465123
0.00041058
0.000400943
0.000438619
0.000318703
0.000466075
0.000218536
0.00049268
0.000101084
0.000518342
-3.27566e-05
0.000542599
-0.00018013
0.000565072
-0.000339219
0.000585427
-0.000507153
0.000603265
-0.000680399
0.000618126
-0.000855188
0.000629508
-0.00102758
0.000636869
-0.00119365
0.000639647
-0.00134969
0.000637288
-0.00149237
0.000629258
-0.00161889
0.000615039
-0.00172693
0.000594367
-0.00181485
0.000567225
-0.00188173
0.000533864
-0.00192718
0.000494883
-0.00195111
0.000451195
-0.0019535
0.000404288
-0.00193393
0.000355901
-0.00189195
0.000308071
-0.00182677
0.000262733
-0.00173764
0.000221985
-0.00162303
0.000187669
-0.00148218
0.000161236
-0.00131482
0.000143722
-0.00112137
0.00013571
-0.000903195
0.000137383
-0.000662529
0.000148556
-0.000402442
0.000168481
-0.000127348
0.000196343
0.000159191
0.000231436
0.000451638
0.000272884
0.000744719
0.000319806
0.00103315
0.000371494
0.00131134
0.000427475
0.00157384
0.00048755
0.00181524
0.000551789
0.00203024
0.000620483
0.00221365
0.000694051
0.00236047
0.000772922
0.00246604
0.000857408
0.00252631
0.000947582
0.00253816
0.00104319
0.00249973
0.00114365
0.00241066
0.00124807
0.00227218
0.00135537
0.00208713
0.00146439
0.00185976
0.00157394
0.0015955
0.00168295
0.00130066
0.00179042
0.000982204
0.00189548
0.00064753
0.0019973
0.000304315
0.00209492
-3.95602e-05
0.00218758
-0.000375887
0.00227432
-0.000697287
0.00235419
-0.000996698
0.00242631
-0.00126812
0.0024899
-0.00150695
0.0025444
-0.00171022
0.00258949
-0.00187665
0.00262509
-0.0020065
0.00265135
-0.00210131
0.00266859
-0.00216355
0.00267726
-0.00219627
0.00267781
-0.00220277
0.00267071
-0.00218643
0.00265631
-0.00215039
0.00263483
-0.00209791
0.00260627
-0.00203164
0.00257038
-0.00195505
0.00252652
-0.00187031
0.00247403
-0.00178249
0.00241192
-0.00169194
0.00234047
-0.00160758
0.00226006
-0.00151866
0.00217487
-0.0014473
0.00208898
-0.00133606
0.00200883
-0.00128171
-0.00104767
0.000226789
0.000198862
0.000229824
0.000204904
0.000237774
0.000226359
0.000247631
0.000256613
0.000260054
0.000289092
0.000275203
0.000324918
0.000292893
0.000362661
0.000312956
0.000400861
0.000335145
0.000437552
0.000359306
0.000470792
0.000385177
0.000498389
0.000412503
0.000518271
0.000441017
0.000528365
0.00047045
0.000526744
0.000500477
0.000511436
0.000530966
0.000481294
0.000561524
0.000434565
0.000591909
0.000370559
0.000621847
0.000288764
0.000651077
0.000189306
0.000679286
7.28758e-05
0.000706446
-5.9917e-05
0.000731928
-0.000205612
0.000755443
-0.000362734
0.000776637
-0.000528346
0.000795112
-0.000698874
0.000810421
-0.000870497
0.000822075
-0.00103923
0.000829549
-0.00120113
0.000832296
-0.00135244
0.000829761
-0.00148984
0.000821369
-0.0016105
0.000806619
-0.00171218
0.000785211
-0.00179344
0.000757022
-0.00185354
0.000722169
-0.00189233
0.000681082
-0.00191002
0.000634548
-0.00190696
0.000583858
-0.00188324
0.000530662
-0.00183876
0.000476953
-0.00177306
0.000424777
-0.00168546
0.000376375
-0.00157462
0.00033378
-0.00143959
0.000298708
-0.00127975
0.000272456
-0.00109512
0.000255861
-0.000886601
0.000249327
-0.000655995
0.000252875
-0.00040599
0.00026602
-0.000140494
0.000288129
0.000137083
0.000318599
0.000421168
0.000356626
0.000706691
0.000401413
0.000988364
0.000452275
0.00126048
0.000508707
0.00151741
0.00057042
0.00175353
0.000637331
0.00196333
0.000709523
0.00214146
0.000787161
0.00228283
0.000870389
0.00238281
0.000959224
0.00243747
0.00105347
0.00244391
0.00115264
0.00240056
0.00125598
0.00230731
0.00136255
0.00216562
0.00147123
0.00197845
0.00158091
0.00175009
0.00169048
0.00148593
0.00179896
0.00119218
0.00190544
0.000875723