/*--------------------------------*- C++ -*----------------------------------*\
  =========                 |
  \\      /  F ield         | OpenFOAM: The Open Source CFD Toolbox
   \\    /   O peration     | Website:  https://openfoam.org
    \\  /    A nd           | Version:  7
     \\/     M anipulation  |
\*---------------------------------------------------------------------------*/
FoamFile
{
    version     2.0;
    format      ascii;
    class       surfaceScalarField;
    location    "65";
    object      phi;
}
// * * * * * * * * * * * * * * * * * * * * * * * * * * * * * * * * * * * * * //

dimensions      [0 3 -1 0 0 0 0];

internalField   nonuniform List<scalar> 
11835
(
0.00169273
0.00252788
0.00138629
0.00221651
0.00110671
0.00190619
0.0013568
0.000671973
0.000857398
0.00160612
0.00110492
0.000489888
0.000639416
0.00132291
0.000873337
0.000335918
0.000452143
0.00106061
0.000534462
0.000133816
0.000662834
0.000207545
0.000293976
0.000821002
0.000367596
4.41543e-05
0.000473009
0.000102132
0.000162906
0.000604078
0.00021773
-2.64954e-05
0.00030265
1.72119e-05
5.69178e-05
0.000408639
8.33945e-05
-8.02368e-05
0.000150224
-4.96177e-05
-2.57055e-05
0.000232847
-7.56767e-05
-0.000141725
-3.66817e-05
-0.000119232
1.51948e-05
-0.000101494
-8.48812e-05
7.43706e-05
-0.000169623
-0.000159907
-0.000143359
-0.000145495
-0.000109046
-0.000135808
-0.000127982
-6.59452e-05
-0.000253204
-0.000167911
-0.000238843
-0.000159856
-0.000218509
-0.000156142
-0.000156156
-0.000190335
-0.000327128
-0.000166834
-0.000323449
-0.000163535
-0.000315395
-0.000164196
-0.000169547
-0.000302004
-0.000391804
-0.000157707
-0.0003976
-0.00015774
-0.000400475
-0.000161321
-0.000169702
-0.00040032
-0.000447421
-0.000141557
-0.000461475
-0.000143686
-0.00047389
-0.000148906
-0.000158498
-0.000485094
-0.000493997
-0.000119442
-0.000515047
-0.000122635
-0.000535537
-0.000128416
-0.000137874
-0.000556161
-0.000531443
-9.24697e-05
-0.000558176
-9.59021e-05
-0.000585204
-0.000101389
-0.000109754
-0.000613324
-0.000528949
-5.99198e-05
-0.000559621
-6.17983e-05
-0.000590669
-6.48536e-05
-0.000622648
-6.94098e-05
-7.6026e-05
-0.000656376
-0.000545212
-2.71174e-05
-0.000578381
-2.86297e-05
-0.000612339
-3.08955e-05
-0.000647651
-3.40982e-05
-3.85496e-05
-0.000685127
-0.000553173
-0.000587606
-0.000623039
-0.000660043
-0.000699425
0.00087904
0.0125843
-0.000843076
0.000876323
0.0127118
0.000859486
0.0127002
0.000836867
0.0126473
0.000810662
0.0125813
0.00078184
0.0125106
0.000751079
0.0124394
0.000718953
0.0123709
0.000685922
0.0123066
0.000652306
0.0122468
0.000618325
0.0121911
0.000584145
0.0121392
0.000549897
0.0120906
0.000515693
0.0120451
0.000481621
0.0120026
0.000447749
0.011963
0.000414124
0.0119263
0.000380777
0.0118924
0.000347726
0.0118613
0.000314976
0.011833
0.000282521
0.0118073
0.00025035
0.0117843
0.000218442
0.011764
0.000186775
0.0117462
0.000155318
0.0117311
0.000124041
0.0117185
9.29094e-05
0.0117084
6.18824e-05
0.0117008
3.09202e-05
0.0116957
0.0116934
0.000811761
0.0125421
-0.000769619
0.000814445
0.0127091
0.000800709
0.0127139
0.000780509
0.0126675
0.000756964
0.0126048
0.000731049
0.0125365
0.000703312
0.0124672
0.000674231
0.0124
0.000644204
0.0123366
0.000613515
0.0122774
0.000582366
0.0122223
0.000550905
0.0121706
0.00051926
0.0121222
0.000487537
0.0120768
0.000455826
0.0120343
0.000424199
0.0119946
0.000392709
0.0119578
0.000361395
0.0119237
0.000330282
0.0118924
0.000299384
0.0118639
0.000268702
0.011838
0.000238235
0.0118148
0.00020797
0.0117942
0.000177893
0.0117763
0.000147981
0.011761
0.000118213
0.0117482
8.85602e-05
0.011738
5.89936e-05
0.0117304
2.94751e-05
0.0117253
0.0117229
0.00074545
0.0124961
-0.000699392
0.000753233
0.0127013
0.000743286
0.0127239
0.000726042
0.0126848
0.000705214
0.0126257
0.000682029
0.0125597
0.000657064
0.0124921
0.000630769
0.0124263
0.000603504
0.0123639
0.000575527
0.0123054
0.000547021
0.0122508
0.000518123
0.0121995
0.000488948
0.0121514
0.0004596
0.0121061
0.000430165
0.0120637
0.000400715
0.0120241
0.00037131
0.0119872
0.00034199
0.0119531
0.000312788
0.0119216
0.000283723
0.0118929
0.000254805
0.0118669
0.000226037
0.0118436
0.000197417
0.0118229
0.000168935
0.0118048
0.000140578
0.0117893
0.000112329
0.0117765
8.41694e-05
0.0117662
5.60759e-05
0.0117585
2.80191e-05
0.0117533
0.0117509
0.000681843
0.0124477
-0.000633459
0.00069364
0.0126895
0.0006872
0.0127303
0.000672901
0.0126991
0.00065478
0.0126438
0.000634232
0.0125802
0.000611894
0.0125145
0.000588219
0.01245
0.000563551
0.0123885
0.000538133
0.0123308
0.000512134
0.0122768
0.000485678
0.012226
0.000458873
0.0121782
0.000431815
0.0121332
0.000404588
0.0120909
0.000377263
0.0120514
0.0003499
0.0120146
0.000322545
0.0119804
0.000295232
0.011949
0.000267986
0.0119202
0.000240825
0.0118941
0.000213755
0.0118706
0.000186782
0.0118498
0.000159901
0.0118317
0.000133107
0.0118161
0.00010639
0.0118032
7.97363e-05
0.0117928
5.31298e-05
0.0117851
2.655e-05
0.0117799
0.0117774
0.000621409
0.0123979
-0.000571568
0.000636292
0.0126746
0.000632784
0.0127338
0.000621115
0.0127107
0.000605498
0.0126594
0.000587432
0.0125983
0.000567584
0.0125343
0.000546397
0.0124712
0.0005242
0.0124107
0.000501222
0.0123538
0.00047762
0.0123004
0.000453511
0.0122501
0.000428994
0.0122027
0.000404157
0.012158
0.000379081
0.012116
0.000353836
0.0120766
0.00032848
0.0120399
0.000303063
0.0120058
0.00027762
0.0119744
0.000252183
0.0119456
0.000226771
0.0119195
0.000201398
0.011896
0.000176073
0.0118752
0.0001508
0.011857
0.000125577
0.0118414
0.000100401
0.0118284
7.52647e-05
0.011818
5.01579e-05
0.0118102
2.50676e-05
0.011805
0.0118025
0.000563827
0.0123472
-0.000513192
0.000581189
0.0126573
0.000580179
0.0127348
0.000570807
0.0127201
0.00055743
0.0126728
0.000541647
0.0126141
0.00052413
0.0125518
0.000505295
0.01249
0.000485448
0.0124306
0.000464801
0.0123745
0.000443499
0.0123217
0.000421651
0.0122719
0.000399345
0.012225
0.000376666
0.0121807
0.000353687
0.012139
0.000330477
0.0120999
0.000307093
0.0120633
0.000283586
0.0120293
0.000259993
0.011998
0.000236349
0.0119693
0.000212677
0.0119432
0.000188996
0.0119197
0.000165318
0.0118988
0.000141654
0.0118806
0.000118006
0.011865
9.43777e-05
0.011852
7.07662e-05
0.0118416
4.71677e-05
0.0118338
2.35757e-05
0.0118286
0.0118261
0.000508601
0.0122965
-0.000457833
0.000528019
0.0126379
0.000529254
0.0127336
0.000521956
0.0127274
0.000510615
0.0126841
0.00049693
0.0126278
0.000481584
0.0125672
0.000464965
0.0125066
0.000447348
0.0124482
0.000428926
0.0123929
0.00040983
0.0123408
0.000390159
0.0122916
0.000369992
0.0122452
0.000349406
0.0122013
0.000328471
0.0121599
0.00030725
0.0121211
0.000285801
0.0120847
0.000264172
0.012051
0.000242406
0.0120198
0.000220536
0.0119911
0.00019859
0.0119651
0.00017659
0.0119417
0.000154554
0.0119209
0.000132494
0.0119027
0.000110421
0.0118871
8.83404e-05
0.0118741
6.62563e-05
0.0118637
4.41694e-05
0.0118559
2.20796e-05
0.0118507
0.0118482
0.000455395
0.0122462
-0.000405115
0.000476482
0.0126168
0.00047977
0.0127303
0.00047442
0.0127328
0.000464986
0.0126936
0.000453265
0.0126395
0.00043996
0.0125805
0.000425436
0.0125211
0.00040994
0.0124637
0.000393643
0.0124092
0.000376666
0.0123577
0.000359092
0.0123092
0.000340994
0.0122633
0.00032244
0.0122198
0.000303494
0.0121789
0.000284216
0.0121404
0.000264661
0.0121043
0.000244879
0.0120707
0.00022491
0.0120397
0.000204791
0.0120113
0.000184553
0.0119854
0.00016422
0.011962
0.000143813
0.0119413
0.000123351
0.0119231
0.000102846
0.0119076
8.23095e-05
0.0118946
6.17499e-05
0.0118842
4.11731e-05
0.0118764
2.05845e-05
0.0118713
0.0118687
0.000403957
0.0121969
-0.000354702
0.000426352
0.0125944
0.000431521
0.0127251
0.000428028
0.0127363
0.000420422
0.0127012
0.000410577
0.0126493
0.000399218
0.0125919
0.000386693
0.0125337
0.000373226
0.0124772
0.000358971
0.0124234
0.000344032
0.0123727
0.000328485
0.0123247
0.000312391
0.0122794
0.00029581
0.0122364
0.000278801
0.0121959
0.00026142
0.0121577
0.00024372
0.012122
0.000225748
0.0120887
0.000207548
0.0120579
0.000189155
0.0120297
0.000170603
0.0120039
0.000151919
0.0119807
0.000133128
0.0119601
0.00011425
0.011942
9.53026e-05
0.0119265
7.6302e-05
0.0119136
5.726e-05
0.0119033
3.81874e-05
0.0118955
1.90945e-05
0.0118904
0.0118878
0.000354097
0.0121491
-0.000306286
0.000377473
0.012571
0.000384349
0.0127182
0.000382629
0.012738
0.000376796
0.012707
0.000368769
0.0126573
0.00035929
0.0126013
0.000348695
0.0125442
0.000337186
0.0124887
0.000324904
0.0124357
0.000311938
0.0123856
0.000298354
0.0123383
0.000284206
0.0122935
0.000269544
0.0122511
0.000254424
0.012211
0.000238896
0.0121733
0.000223012
0.0121379
0.000206817
0.0121049
0.000190353
0.0120744
0.00017366
0.0120463
0.00015677
0.0120208
0.000139715
0.0119978
0.000122521
0.0119773
0.000105212
0.0119593
8.78094e-05
0.0119439
7.03326e-05
0.0119311
5.27978e-05
0.0119208
3.52197e-05
0.0119131
1.76132e-05
0.011908
0.0119054
0.000305592
0.0121031
-0.000259557
0.000329691
0.0125469
0.000338128
0.0127098
0.000338107
0.012738
0.000334004
0.0127111
0.000327758
0.0126636
0.000320115
0.012609
0.000311398
0.012553
0.000301795
0.0124983
0.00029143
0.0124461
0.000280383
0.0123967
0.00026871
0.01235
0.000256456
0.0123058
0.000243666
0.0122639
0.00023039
0.0122243
0.000216674
0.012187
0.000202567
0.012152
0.000188113
0.0121194
0.000173356
0.0120891
0.000158333
0.0120614
0.000143081
0.012036
0.000127631
0.0120132
0.000112014
0.0119929
9.62565e-05
0.0119751
8.03824e-05
0.0119598
6.44145e-05
0.0119471
4.83729e-05
0.0119368
3.22764e-05
0.0119292
1.6144e-05
0.0119241
0.0119216
0.000258193
0.0120591
-0.000214176
0.000282844
0.0125222
0.000292713
0.0126999
0.000294343
0.0127364
0.00029196
0.0127135
0.000287479
0.0126681
0.000281642
0.0126148
0.000274767
0.0125598
0.000267029
0.012506
0.00025854
0.0124546
0.000249369
0.0124059
0.000239562
0.0123598
0.000229157
0.0123162
0.000218196
0.0122748
0.000206721
0.0122358
0.000194778
0.0121989
0.000182411
0.0121644
0.000169665
0.0121321
0.000156582
0.0121022
0.000143201
0.0120747
0.00012956
0.0120497
0.000115692
0.0120271
0.000101629
0.012007
8.74018e-05
0.0119893
7.30368e-05
0.0119742
5.85599e-05
0.0119615
4.39949e-05
0.0119514
2.93639e-05
0.0119438
1.469e-05
0.0119388
0.0119363
0.000211663
0.0120172
-0.000169837
0.000236782
0.0124971
0.00024797
0.0126888
0.000251247
0.0127331
0.000250598
0.0127141
0.000247879
0.0126708
0.000243831
0.0126189
0.000238774
0.0125649
0.000232876
0.0125119
0.000226231
0.0124612
0.000218899
0.0124132
0.000210919
0.0123678
0.000202326
0.0123248
0.000193154
0.012284
0.000183443
0.0122455
0.000173234
0.0122091
0.000162572
0.012175
0.000151499
0.0121432
0.000140058
0.0121137
0.000128289
0.0120865
0.00011623
0.0120617
0.000103917
0.0120394
9.13849e-05
0.0120195
7.86646e-05
0.012002
6.57869e-05
0.011987
5.27806e-05
0.0119745
3.96724e-05
0.0119645
2.64881e-05
0.011957
1.32541e-05
0.011952
0.0119495
0.000165798
0.0119777
-0.000126265
0.000191376
0.0124715
0.000203768
0.0126764
0.000208731
0.0127281
0.000209865
0.012713
0.000208914
0.0126717
0.000206648
0.0126211
0.000203402
0.0125681
0.000199327
0.012516
0.000194504
0.012466
0.000188982
0.0124187
0.000182797
0.012374
0.00017598
0.0123316
0.000168561
0.0122914
0.000160577
0.0122535
0.000152067
0.0122176
0.000143074
0.012184
0.000133641
0.0121526
0.000123809
0.0121235
0.000113621
0.0120967
0.000103115
0.0120723
9.23287e-05
0.0120502
8.12993e-05
0.0120305
7.00609e-05
0.0120133
5.86465e-05
0.0119985
4.70875e-05
0.0119861
3.54139e-05
0.0119762
2.36546e-05
0.0119688
1.18393e-05
0.0119638
0.0119614
0.000120476
0.0119402
-8.30274e-05
0.000146454
0.0124456
0.000160019
0.0126628
0.000166767
0.0127214
0.00016972
0.01271
0.000170536
0.0126709
0.000170067
0.0126216
0.000168641
0.0125696
0.000166383
0.0125182
0.000163363
0.0124691
0.000159627
0.0124225
0.00015521
0.0123784
0.000150138
0.0123366
0.000144439
0.0122971
0.000138147
0.0122597
0.000131301
0.0122245
0.000123942
0.0121914
0.000116114
0.0121604
0.000107858
0.0121318
9.9218e-05
0.0121053
9.02335e-05
0.0120812
8.09447e-05
0.0120595
7.13899e-05
0.0120401
6.16059e-05
0.0120231
5.16282e-05
0.0120084
4.14911e-05
0.0119962
3.12272e-05
0.0119865
2.08686e-05
0.0119791
1.04481e-05
0.0119742
0.0119718
7.5624e-05
0.0119042
-3.95584e-05
0.000101855
0.0124193
0.000116724
0.0126479
0.000125411
0.0127127
0.000130105
0.0127054
0.000132707
0.0126683
0.000134082
0.0126202
0.000134493
0.0125692
0.000134048
0.0125187
0.000132818
0.0124703
0.000130851
0.0124244
0.000128177
0.012381
0.000124821
0.01234
0.00012081
0.0123011
0.000116177
0.0122644
0.00011096
0.0122297
0.0001052
0.0121971
9.8942e-05
0.0121667
9.22283e-05
0.0121385
8.51024e-05
0.0121125
7.76071e-05
0.0120887
6.97838e-05
0.0120673
6.1673e-05
0.0120482
5.33138e-05
0.0120314
4.47442e-05
0.012017
3.6001e-05
0.012005
2.71197e-05
0.0119953
1.81352e-05
0.0119881
9.08298e-06
0.0119833
0.0119809
3.20293e-05
0.0118682
3.93938e-06
5.73914e-05
0.012394
7.3943e-05
0.0126314
8.4519e-05
0.0127021
9.09342e-05
0.0126989
9.54355e-05
0.0126638
9.87071e-05
0.0126169
0.000100965
0.0125669
0.000102331
0.0125173
0.000102885
0.0124697
0.000102671
0.0124246
0.000101719
0.012382
0.000100052
0.0123417
9.76976e-05
0.0123035
9.46899e-05
0.0122674
9.10673e-05
0.0122333
8.6872e-05
0.0122013
8.21482e-05
0.0121714
7.69407e-05
0.0121437
7.12946e-05
0.0121181
6.52543e-05
0.0120948
5.88632e-05
0.0120737
5.21639e-05
0.0120549
4.51979e-05
0.0120384
3.80057e-05
0.0120242
3.06264e-05
0.0120124
2.30983e-05
0.0120029
1.54589e-05
0.0119957
7.74636e-06
0.011991
0.0119886
-1.16271e-05
0.0118347
4.51014e-05
1.29327e-05
0.0123694
3.18159e-05
0.0126125
4.38679e-05
0.0126901
5.22081e-05
0.0126906
5.87706e-05
0.0126573
6.39589e-05
0.0126118
6.80693e-05
0.0125628
7.12534e-05
0.0125141
7.35877e-05
0.0124674
7.51143e-05
0.0124231
7.58615e-05
0.0123813
7.58562e-05
0.0123417
7.51281e-05
0.0123042
7.37124e-05
0.0122688
7.1649e-05
0.0122354
6.89813e-05
0.012204
6.57551e-05
0.0121747
6.20172e-05
0.0121474
5.78145e-05
0.0121223
5.31934e-05
0.0120994
4.81994e-05
0.0120787
4.28774e-05
0.0120602
3.72712e-05
0.012044
3.14235e-05
0.01203
2.53761e-05
0.0120184
1.91695e-05
0.0120091
1.2844e-05
0.0120021
6.44039e-06
0.0119974
0.0119951
-5.6628e-05
0.0118034
8.79355e-05
-3.02208e-05
0.012343
-1.00173e-05
0.0125923
3.42235e-06
0.0126766
1.42328e-05
0.0126798
2.27375e-05
0.0126488
2.9839e-05
0.0126047
3.58326e-05
0.0125568
4.08471e-05
0.0125091
4.49588e-05
0.0124633
4.82103e-05
0.0124199
5.06348e-05
0.0123788
5.2263e-05
0.01234
5.31291e-05
0.0123034
5.32708e-05
0.0122687
5.27298e-05
0.0122359
5.15521e-05
0.0122052
4.97854e-05
0.0121764
4.74789e-05
0.0121497
4.46816e-05
0.0121251
4.14422e-05
0.0121026
3.78086e-05
0.0120823
3.38277e-05
0.0120642
2.95457e-05
0.0120483
2.50078e-05
0.0120346
2.0258e-05
0.0120232
1.53395e-05
0.012014
1.02948e-05
0.0120071
5.16714e-06
0.0120025
0.0120003
-0.000100717
0.0117732
0.000131
-7.33647e-05
0.0123157
-5.2081e-05
0.012571
-3.58987e-05
0.0126604
-2.32415e-05
0.0126671
-1.26806e-05
0.0126382
-3.60561e-06
0.0125956
4.29277e-06
0.0125489
1.11515e-05
0.0125023
1.70335e-05
0.0124574
2.19931e-05
0.0124149
2.6072e-05
0.0123747
2.93038e-05
0.0123368
3.1731e-05
0.0123009
3.33937e-05
0.012267
3.43372e-05
0.012235
3.46093e-05
0.0122049
3.42618e-05
0.0121768
3.33466e-05
0.0121506
3.1915e-05
0.0121265
3.0018e-05
0.0121045
2.77058e-05
0.0120846
2.50281e-05
0.0120669
2.20331e-05
0.0120513
1.87683e-05
0.0120378
1.52802e-05
0.0120266
1.16141e-05
0.0120177
7.81512e-06
0.0120109
3.92856e-06
0.0120064
0.0120042
-0.000144497
0.0117436
0.000174074
-0.00011634
0.0122875
-9.31946e-05
0.0125479
-7.49168e-05
0.0126422
-6.00416e-05
0.0126523
-4.73535e-05
0.0126255
-3.62488e-05
0.0125845
-2.64326e-05
0.0125391
-1.77584e-05
0.0124936
-1.01333e-05
0.0124498
-3.49747e-06
0.0124083
2.20116e-06
0.012369
7.01094e-06
0.012332
1.09644e-05
0.012297
1.41092e-05
0.0122639
1.64974e-05
0.0122326
1.81772e-05
0.0122032
1.92072e-05
0.0121757
1.96412e-05
0.0121502
1.95333e-05
0.0121267
1.89375e-05
0.0121051
1.79064e-05
0.0120857
1.64917e-05
0.0120683
1.47443e-05
0.012053
1.27141e-05
0.0120399
1.04498e-05
0.0120289
7.99887e-06
0.0120201
5.4086e-06
0.0120135
2.72647e-06
0.0120091
0.0120069
-0.000187902
0.0117144
0.000217089
-0.000158654
0.0122583
-0.000133634
0.0125228
-0.000113189
0.0126217
-9.6035e-05
0.0126351
-8.11991e-05
0.0126107
-6.80673e-05
0.0125713
-5.63319e-05
0.0125273
-4.58338e-05
0.0124831
-3.64741e-05
0.0124404
-2.81786e-05
0.0124
-2.08892e-05
0.0123618
-1.45572e-05
0.0123257
-9.12789e-06
0.0122915
-4.55022e-06
0.0122593
-7.7053e-07
0.0122288
2.27725e-06
0.0122002
4.64209e-06
0.0121734
6.38174e-06
0.0121485
7.55413e-06
0.0121255
8.2162e-06
0.0121045
8.42382e-06
0.0120855
8.23048e-06
0.0120685
7.68966e-06
0.0120535
6.85393e-06
0.0120407
5.77374e-06
0.01203
4.49888e-06
0.0120214
3.07868e-06
0.0120149
1.5626e-06
0.0120106
0.0120085
-0.000230696
0.0116852
0.000259882
-0.000200166
0.0122277
-0.000173245
0.0124959
-0.000150515
0.012599
-0.000131104
0.0126157
-0.00011411
0.0125937
-9.8949e-05
0.0125562
-8.5307e-05
0.0125137
-7.30106e-05
0.0124708
-6.19482e-05
0.0124294
-5.20331e-05
0.01239
-4.31952e-05
0.0123529
-3.53726e-05
0.0123179
-2.85062e-05
0.0122847
-2.25363e-05
0.0122533
-1.74016e-05
0.0122237
-1.30449e-05
0.0121958
-9.40016e-06
0.0121697
-6.40632e-06
0.0121455
-4.00297e-06
0.0121231
-2.13088e-06
0.0121026
-7.31926e-07
0.0120841
2.52341e-07
0.0120675
8.77178e-07
0.0120529
1.19457e-06
0.0120404
1.25768e-06
0.0120299
1.11846e-06
0.0120215
8.28248e-07
0.0120152
4.3843e-07
0.012011
0.0120089
-0.000272643
0.0116556
0.000302207
-0.000240725
0.0121958
-0.000211802
0.012467
-0.000186773
0.012574
-0.000165099
0.012594
-0.000145955
0.0125745
-0.000128784
0.012539
-0.000113264
0.0124982
-9.92062e-05
0.0124567
-8.64832e-05
0.0124166
-7.49938e-05
0.0123786
-6.46554e-05
0.0123426
-5.53944e-05
0.0123086
-4.71434e-05
0.0122764
-3.98356e-05
0.012246
-3.34043e-05
0.0122173
-2.77826e-05
0.0121902
-2.29042e-05
0.0121649
-1.87032e-05
0.0121413
-1.51156e-05
0.0121195
-1.20787e-05
0.0120996
-9.53187e-06
0.0120815
-7.41676e-06
0.0120654
-5.67531e-06
0.0120512
-4.25095e-06
0.012039
-3.08896e-06
0.0120288
-2.13581e-06
0.0120206
-1.33851e-06
0.0120144
-6.44078e-07
0.0120103
0.0120083
-0.000313501
0.0116254
0.000343767
-0.000280086
0.0121624
-0.000249095
0.012436
-0.000221786
0.0125466
-0.000197863
0.0125701
-0.000176599
0.0125533
-0.000157456
0.0125199
-0.000140103
0.0124808
-0.000124336
0.012441
-0.000110006
0.0124023
-9.69985e-05
0.0123655
-8.52165e-05
0.0123308
-7.45758e-05
0.012298
-6.49986e-05
0.0122669
-5.64104e-05
0.0122374
-4.87379e-05
0.0122096
-4.19081e-05
0.0121834
-3.58506e-05
0.0121588
-3.04956e-05
0.0121359
-2.57756e-05
0.0121148
-2.16252e-05
0.0120954
-1.79811e-05
0.0120779
-1.47817e-05
0.0120622
-1.19675e-05
0.0120484
-9.48024e-06
0.0120365
-7.26322e-06
0.0120265
-5.26121e-06
0.0120186
-3.41956e-06
0.0120126
-1.6838e-06
0.0120086
0.0120066
-0.000352985
0.0115941
0.000384226
-0.000317972
0.0121274
-0.000284898
0.0124029
-0.000255349
0.0125171
-0.000229226
0.012544
-0.000205898
0.0125299
-0.000184845
0.0124988
-0.000165724
0.0124617
-0.000148312
0.0124236
-0.000132443
0.0123864
-0.000117984
0.0123511
-0.000104826
0.0123176
-9.28712e-05
0.012286
-8.20325e-05
0.012256
-7.22268e-05
0.0122276
-6.33741e-05
0.0122007
-5.53961e-05
0.0121754
-4.82173e-05
0.0121516
-4.17642e-05
0.0121295
-3.5966e-05
0.012109
-3.07544e-05
0.0120902
-2.60635e-05
0.0120732
-2.18292e-05
0.0120579
-1.79904e-05
0.0120445
-1.44869e-05
0.012033
-1.12606e-05
0.0120233
-8.25467e-06
0.0120156
-5.413e-06
0.0120097
-2.67982e-06
0.0120058
0.0120039
-0.000390773
0.0115617
0.000423216
-0.000354092
0.0120907
-0.000318967
0.0123678
-0.000287248
0.0124854
-0.000259009
0.0125157
-0.000233703
0.0125046
-0.000210825
0.0124759
-0.000190021
0.0124409
-0.000171048
0.0124046
-0.00015372
0.0123691
-0.00013789
0.0123353
-0.000123431
0.0123032
-0.000110237
0.0122728
-9.82077e-05
0.012244
-8.72532e-05
0.0122166
-7.72863e-05
0.0121908
-6.82236e-05
0.0121663
-5.99847e-05
0.0121434
-5.24923e-05
0.012122
-4.56724e-05
0.0121022
-3.9454e-05
0.012084
-3.37686e-05
0.0120675
-2.85506e-05
0.0120527
-2.37365e-05
0.0120397
-1.9265e-05
0.0120285
-1.50765e-05
0.0120191
-1.11128e-05
0.0120116
-7.31657e-06
0.0120059
-3.63102e-06
0.0120022
0.0120003
-0.000426522
0.0115279
0.000460344
-0.000388152
0.0120523
-0.000351049
0.0123307
-0.000317268
0.0124516
-0.000287031
0.0124855
-0.000259864
0.0124775
-0.000235272
0.0124513
-0.000212891
0.0124185
-0.000192456
0.0123842
-0.000173766
0.0123504
-0.000156655
0.0123181
-0.000140983
0.0122875
-0.00012663
0.0122584
-0.000113489
0.0122308
-0.00010146
0.0122046
-9.04501e-05
0.0121797
-8.03701e-05
0.0121562
-7.11355e-05
0.0121341
-6.26653e-05
0.0121135
-5.48825e-05
0.0120944
-4.77136e-05
0.0120768
-4.1088e-05
0.0120609
-3.49386e-05
0.0120466
-2.92001e-05
0.012034
-2.38099e-05
0.0120231
-1.87072e-05
0.012014
-1.38328e-05
0.0120067
-9.12849e-06
0.0120012
-4.53653e-06
0.0119976
0.0119957
-0.000459888
0.0114926
0.000495204
-0.000419861
0.0120123
-0.000380895
0.0122917
-0.0003452
0.0124159
-0.000313118
0.0124534
-0.000284234
0.0124486
-0.000258064
0.0124252
-0.000234232
0.0123947
-0.000212455
0.0123624
-0.000192513
0.0123305
-0.000174223
0.0122999
-0.000157434
0.0122707
-0.000142014
0.012243
-0.000127845
0.0122167
-0.000114822
0.0121916
-0.000102844
0.0121678
-9.18175e-05
0.0121452
-8.16545e-05
0.012124
-7.22705e-05
0.0121041
-6.35858e-05
0.0120857
-5.55247e-05
0.0120687
-4.80149e-05
0.0120533
-4.09876e-05
0.0120395
-3.43765e-05
0.0120274
-2.81178e-05
0.0120169
-2.21499e-05
0.0120081
-1.64127e-05
0.012001
-1.08474e-05
0.0119957
-5.39567e-06
0.0119921
0.0119903
-0.000490535
0.0114557
0.000527388
-0.000448934
0.0119707
-0.000408266
0.0122511
-0.000370844
0.0123785
-0.000337102
0.0124197
-0.000306675
0.0124182
-0.000279089
0.0123976
-0.000253953
0.0123696
-0.000230968
0.0123394
-0.000209897
0.0123094
-0.000190543
0.0122805
-0.000172743
0.0122529
-0.000156353
0.0122266
-0.000141248
0.0122016
-0.000127315
0.0121777
-0.000114449
0.0121549
-0.000102551
0.0121333
-9.15297e-05
0.012113
-8.12982e-05
0.0120939
-7.17744e-05
0.0120762
-6.28808e-05
0.0120599
-5.45439e-05
0.012045
-4.66934e-05
0.0120317
-3.92623e-05
0.0120199
-3.21861e-05
0.0120098
-2.54025e-05
0.0120013
-1.88511e-05
0.0119944
-1.24725e-05
0.0119893
-6.208e-06
0.0119859
0.0119841
-0.000518144
0.0114173
0.000556509
-0.000475108
0.0119277
-0.000432941
0.0122089
-0.000394016
0.0123396
-0.000358832
0.0123845
-0.000327064
0.0123864
-0.000298243
0.0123688
-0.000271969
0.0123433
-0.000247927
0.0123153
-0.000225865
0.0122873
-0.000205572
0.0122602
-0.000186874
0.0122342
-0.000169619
0.0122094
-0.000153675
0.0121856
-0.000138922
0.0121629
-0.00012525
0.0121412
-0.000112559
0.0121206
-0.000100752
0.0121012
-8.97414e-05
0.0120829
-7.94429e-05
0.0120659
-6.97779e-05
0.0120502
-6.06717e-05
0.0120359
-5.20535e-05
0.0120231
-4.38557e-05
0.0120117
-3.60134e-05
0.0120019
-2.84642e-05
0.0119937
-2.11472e-05
0.0119871
-1.40032e-05
0.0119821
-6.97331e-06
0.0119788
0.0119772
-0.000542426
0.0113776
0.000582206
-0.000498145
0.0118834
-0.000454725
0.0121655
-0.000414555
0.0122994
-0.000378176
0.0123481
-0.000345292
0.0123535
-0.000315441
0.0123389
-0.000288213
0.0123161
-0.000263278
0.0122904
-0.000240371
0.0122644
-0.000219274
0.0122391
-0.0001998
0.0122148
-0.000181792
0.0121914
-0.00016511
0.0121689
-0.00014963
0.0121474
-0.00013524
0.0121268
-0.000121834
0.0121072
-0.000109317
0.0120886
-9.75964e-05
0.0120712
-8.65887e-05
0.0120549
-7.62139e-05
0.0120398
-6.63971e-05
0.0120261
-5.70672e-05
0.0120137
-4.81563e-05
0.0120028
-3.95996e-05
0.0119934
-3.13347e-05
0.0119855
-2.33011e-05
0.0119791
-1.54395e-05
0.0119743
-7.6916e-06
0.0119711
0.0119695
-0.00056313
0.0113365
0.000604164
-0.000517844
0.0118381
-0.000473455
0.0121211
-0.000432327
0.0122583
-0.000395026
0.0123108
-0.000361275
0.0123198
-0.000330615
0.0123083
-0.000302629
0.0122881
-0.000276977
0.0122648
-0.000253385
0.0122408
-0.000231624
0.0122174
-0.000211503
0.0121946
-0.000192856
0.0121727
-0.000175542
0.0121516
-0.000159433
0.0121313
-0.000144412
0.0121118
-0.000130375
0.0120932
-0.000117222
0.0120755
-0.000104863
0.0120588
-9.32121e-05
0.0120432
-8.21899e-05
0.0120288
-7.17214e-05
0.0120156
-6.17357e-05
0.0120038
-5.21653e-05
0.0119933
-4.29457e-05
0.0119842
-3.40152e-05
0.0119765
-2.53135e-05
0.0119704
-1.67821e-05
0.0119657
-8.36315e-06
0.0119627
0.0119611
-0.000580058
0.0112945
0.000622121
-0.000534049
0.0117921
-0.000489005
0.012076
-0.000447234
0.0122165
-0.000409303
0.0122729
-0.000374949
0.0122854
-0.000343716
0.012277
-0.000315181
0.0122595
-0.000288998
0.0122386
-0.000264886
0.0122167
-0.000242609
0.0121951
-0.000221973
0.012174
-0.000202808
0.0121536
-0.000184971
0.0121338
-0.00016833
0.0121147
-0.000152769
0.0120963
-0.000138183
0.0120786
-0.000124471
0.0120618
-0.000111544
0.0120459
-9.93167e-05
0.012031
-8.77094e-05
0.0120172
-7.66479e-05
0.0120046
-6.60622e-05
0.0119932
-5.58855e-05
0.0119831
-4.60543e-05
0.0119743
-3.65075e-05
0.011967
-2.71859e-05
0.0119611
-1.80319e-05
0.0119566
-8.98848e-06
0.0119536
0.0119521
-0.000593064
0.0112516
0.000635881
-0.000546653
0.0117457
-0.000501294
0.0120307
-0.000459214
0.0121744
-0.000420961
0.0122346
-0.00038628
0.0122507
-0.00035472
0.0122455
-0.000325854
0.0122307
-0.000299332
0.0122121
-0.000274869
0.0121923
-0.000252229
0.0121724
-0.000231213
0.012153
-0.000211652
0.012134
-0.0001934
0.0121155
-0.000176328
0.0120976
-0.000160318
0.0120803
-0.000145266
0.0120635
-0.000131072
0.0120476
-0.000117648
0.0120324
-0.00010491
0.0120182
-9.2779e-05
0.0120051
-8.11827e-05
0.011993
-7.0052e-05
0.011982
-5.93216e-05
0.0119723
-4.89291e-05
0.0119639
-3.88148e-05
0.0119569
-2.89208e-05
0.0119512
-1.91905e-05
0.0119469
-9.56837e-06
0.011944
0.0119425
-0.000602071
0.0112084
0.000645321
-0.000555604
0.0116992
-0.000510289
0.0119854
-0.000468244
0.0121324
-0.000429987
0.0121964
-0.000395265
0.012216
-0.000363628
0.0122138
-0.000334652
0.0122017
-0.000307987
0.0121854
-0.000283347
0.0121676
-0.000260496
0.0121496
-0.000239237
0.0121317
-0.000219402
0.0121142
-0.000200846
0.012097
-0.000183442
0.0120802
-0.000167073
0.0120639
-0.000151637
0.0120481
-0.000137037
0.012033
-0.000123186
0.0120186
-0.000110002
0.0120051
-9.74082e-05
0.0119925
-8.53342e-05
0.0119809
-7.37126e-05
0.0119704
-6.248e-05
0.0119611
-5.15756e-05
0.011953
-4.09414e-05
0.0119462
-3.05212e-05
0.0119407
-2.026e-05
0.0119366
-1.01039e-05
0.0119338
0.0119324
-0.000607063
0.0111651
0.000650391
-0.000560908
0.0116531
-0.000516006
0.0119405
-0.000474346
0.0120907
-0.000436405
0.0121584
-0.000401927
0.0121815
-0.000370467
0.0121824
-0.000341604
0.0121728
-0.000314991
0.0121588
-0.000290346
0.012143
-0.000267438
0.0121267
-0.000246071
0.0121104
-0.000226083
0.0120942
-0.000207332
0.0120782
-0.000189693
0.0120626
-0.000173054
0.0120472
-0.000157315
0.0120324
-0.000142383
0.012018
-0.000128173
0.0120044
-0.000114607
0.0119915
-0.00010161
0.0119795
-8.91135e-05
0.0119684
-7.70536e-05
0.0119584
-6.53687e-05
0.0119494
-5.40004e-05
0.0119417
-4.28926e-05
0.0119351
-3.19912e-05
0.0119298
-2.12431e-05
0.0119259
-1.05963e-05
0.0119232
0.0119218
-0.000608094
0.011122
0.000651123
-0.000562629
0.0116076
-0.000518511
0.0118964
-0.000477585
0.0120498
-0.000440277
0.0121211
-0.000406326
0.0121476
-0.000375292
0.0121513
-0.00034676
0.0121443
-0.000320391
0.0121324
-0.000295911
0.0121185
-0.000273094
0.0121039
-0.000251754
0.012089
-0.000231731
0.0120742
-0.00021289
0.0120594
-0.000195111
0.0120448
-0.000178288
0.0120304
-0.000162325
0.0120164
-0.000147133
0.0120029
-0.00013263
0.0119899
-0.000118742
0.0119776
-0.000105399
0.0119661
-9.25342e-05
0.0119555
-8.00866e-05
0.0119459
-6.79977e-05
0.0119373
-5.62116e-05
0.0119299
-4.46748e-05
0.0119236
-3.33355e-05
0.0119185
-2.21429e-05
0.0119147
-1.10473e-05
0.0119121
0.0119108
-0.000605285
0.0110797
0.000647625
-0.000560888
0.0115632
-0.000517919
0.0118534
-0.000478067
0.0120099
-0.000441701
0.0120847
-0.000408551
0.0121144
-0.000378183
0.012121
-0.000350194
0.0121163
-0.000324256
0.0121065
-0.000300103
0.0120944
-0.000277522
0.0120813
-0.000256334
0.0120678
-0.00023639
0.0120542
-0.000217561
0.0120406
-0.000199734
0.012027
-0.00018281
0.0120135
-0.000166697
0.0120003
-0.000151313
0.0119875
-0.000136581
0.0119751
-0.00012243
0.0119635
-0.000108794
0.0119525
-9.56124e-05
0.0119423
-8.28255e-05
0.0119331
-7.03786e-05
0.0119249
-5.82188e-05
0.0119177
-4.62956e-05
0.0119117
-3.45597e-05
0.0119068
-2.29631e-05
0.0119031
-1.14586e-05
0.0119006
0.0118993
-0.000598819
0.0110384
0.000640078
-0.000555864
0.0115202
-0.000514395
0.0118119
-0.000475941
0.0119715
-0.000440809
0.0120496
-0.00040872
0.0120823
-0.000379248
0.0120915
-0.000352003
0.0120891
-0.00032667
0.0120811
-0.000303
0.0120707
-0.00028079
0.0120591
-0.000259876
0.0120469
-0.000240117
0.0120345
-0.000221395
0.0120218
-0.000203606
0.0120092
-0.000186658
0.0119966
-0.000170466
0.0119841
-0.000154955
0.011972
-0.000140052
0.0119602
-0.000125694
0.0119491
-0.000111818
0.0119386
-9.83664e-05
0.0119289
-8.52859e-05
0.01192
-7.25244e-05
0.0119121
-6.00327e-05
0.0119052
-4.77633e-05
0.0118994
-3.567e-05
0.0118947
-2.37078e-05
0.0118911
-1.18323e-05
0.0118887
0.0118875
-0.000588942
0.0109986
0.000628733
-0.000547786
0.0114791
-0.000508148
0.0117723
-0.000471395
0.0119347
-0.00043777
0.012016
-0.000406983
0.0120515
-0.000378618
0.0120631
-0.000352303
0.0120627
-0.000327739
0.0120566
-0.000304694
0.0120476
-0.000282982
0.0120374
-0.000262451
0.0120264
-0.000242977
0.012015
-0.000224451
0.0120033
-0.000206779
0.0119915
-0.000189878
0.0119796
-0.000173673
0.0119679
-0.000158094
0.0119564
-0.000143077
0.0119452
-0.000128561
0.0119346
-0.000114492
0.0119245
-0.000100817
0.0119152
-8.74853e-05
0.0119067
-7.44499e-05
0.0118991
-6.16652e-05
0.0118924
-4.90873e-05
0.0118868
-3.66735e-05
0.0118823
-2.43817e-05
0.0118788
-1.21707e-05
0.0118765
0.0118753
-0.000575956
0.0109607
0.000613908
-0.000536933
0.0114401
-0.000499432
0.0117348
-0.000464655
0.0118999
-0.000432784
0.0119841
-0.000403517
0.0120223
-0.000376451
0.0120361
-0.000351232
0.0120375
-0.000327583
0.0120329
-0.000305292
0.0120253
-0.000284191
0.0120163
-0.000264145
0.0120063