/*--------------------------------*- C++ -*----------------------------------*\
  =========                 |
  \\      /  F ield         | OpenFOAM: The Open Source CFD Toolbox
   \\    /   O peration     | Website:  https://openfoam.org
    \\  /    A nd           | Version:  7
     \\/     M anipulation  |
\*---------------------------------------------------------------------------*/
FoamFile
{
    version     2.0;
    format      ascii;
    class       volVectorField;
    location    "35";
    object      U;
}
// * * * * * * * * * * * * * * * * * * * * * * * * * * * * * * * * * * * * * //

dimensions      [0 1 -1 0 0 0 0];

internalField   nonuniform List<vector> 
1360
(
(0.894473 0.039208 0)
(0.953859 0.037919 0)
(1.0069 0.0358358 6.34254e-12)
(1.0524 0.0331875 -6.34254e-12)
(1.0899 0.0302321 0)
(1.11955 0.0271831 0)
(1.14201 0.024203 0)
(1.15825 0.0213984 0)
(1.16937 0.0188243 -3.09634e-28)
(1.1765 0.0164942 3.09634e-28)
(1.18065 0.0143935 -3.20974e-28)
(1.1827 0.0124914 3.20974e-28)
(1.18335 0.010751 -7.94458e-12)
(1.18312 0.00913591 7.94458e-12)
(1.18243 0.00761415 0)
(1.18155 0.00615946 0)
(1.18067 0.00475145 8.19844e-12)
(1.17992 0.00337469 -8.19844e-12)
(1.17938 0.00201766 -3.79911e-28)
(1.1791 0.000671421 3.82317e-28)
(0.894109 0.0386277 0)
(0.953019 0.0373774 0)
(1.00571 0.0353421 6.98256e-29)
(1.051 0.0327462 -6.98256e-29)
(1.08839 0.0298429 0)
(1.11803 0.0268422 0)
(1.14055 0.0239046 0)
(1.15689 0.0211362 0)
(1.16814 0.0185927 6.24067e-28)
(1.17538 0.0162887 -6.24067e-28)
(1.17965 0.0142109 6.47606e-28)
(1.18178 0.0123297 -6.47606e-28)
(1.1825 0.0106091 -1.54138e-11)
(1.18233 0.00901328 1.54138e-11)
(1.18168 0.00751058 0)
(1.18083 0.00607485 0)
(1.17997 0.00468574 7.96179e-12)
(1.17923 0.00332782 -7.96179e-12)
(1.1787 0.00198957 5.09339e-28)
(1.17842 0.000662063 -5.12564e-28)
(0.893761 0.0380576 0)
(0.952201 0.0368447 0)
(1.00455 0.0348559 0)
(1.04962 0.0323109 0)
(1.08691 0.0294583 0)
(1.11654 0.0265047 0)
(1.13912 0.0236086 0)
(1.15555 0.0208759 0)
(1.16691 0.0183624 -2.90165e-28)
(1.17428 0.016084 2.90165e-28)
(1.17865 0.0140288 0)
(1.18088 0.0121683 0)
(1.18167 0.0104673 -1.49467e-11)
(1.18155 0.00889066 1.49467e-11)
(1.18094 0.0074069 3.16648e-28)
(1.18012 0.00599008 -3.16648e-28)
(1.17927 0.00461984 0)
(1.17855 0.00328079 0)
(1.17803 0.00196137 -3.58296e-28)
(1.17775 0.000652666 3.60564e-28)
(0.893428 0.0374975 0)
(0.951403 0.0363211 0)
(1.00341 0.0343773 0)
(1.04826 0.0318819 0)
(1.08545 0.0290786 0)
(1.11507 0.0261709 0)
(1.1377 0.0233156 0)
(1.15423 0.0206177 0)
(1.16571 0.0181337 0)
(1.17319 0.0158806 0)
(1.17766 0.0138477 -6.07679e-28)
(1.17998 0.0120076 6.07679e-28)
(1.18084 0.010326 -1.44877e-11)
(1.18078 0.0087683 1.44877e-11)
(1.18021 0.00730335 -6.39299e-28)
(1.17941 0.00590532 6.39299e-28)
(1.17859 0.00455392 -6.48e-28)
(1.17788 0.00323371 6.48e-28)
(1.17737 0.00193313 4.7994e-28)
(1.1771 0.000643254 -4.82978e-28)
(0.89311 0.0369476 0)
(0.950626 0.0358065 0)
(1.0023 0.0339065 1.24658e-29)
(1.04693 0.0314592 -1.24658e-29)
(1.08401 0.028704 0)
(1.11362 0.0258412 0)
(1.1363 0.0230257 -2.86489e-28)
(1.15293 0.0203619 2.86489e-28)
(1.16451 0.017907 0)
(1.17211 0.0156788 0)
(1.17668 0.0136678 0)
(1.17909 0.0118478 0)
(1.18002 0.0101854 -1.40367e-11)
(1.18002 0.00864643 1.40367e-11)
(1.17949 0.00720012 0)
(1.17872 0.00582077 0)
(1.17792 0.00448811 7.27303e-12)
(1.17722 0.00318668 -7.27303e-12)
(1.17671 0.00190491 0)
(1.17645 0.000633847 0)
(0.892806 0.0364077 -2.03564e-28)
(0.949869 0.035301 2.03837e-28)
(1.00121 0.0334436 -1.20047e-29)
(1.04562 0.0310431 1.20047e-29)
(1.0826 0.0283348 0)
(1.11219 0.0255158 0)
(1.13492 0.0227392 2.76626e-28)
(1.15164 0.020109 -2.76626e-28)
(1.16333 0.0176825 -6.32264e-12)
(1.17104 0.0154788 6.32264e-12)
(1.17572 0.0134894 0)
(1.17821 0.0116893 0)
(1.17922 0.0100457 -1.35936e-11)
(1.17927 0.00852528 1.35936e-11)
(1.17878 0.00709742 2.8851e-28)
(1.17804 0.00573658 -2.8851e-28)
(1.17726 0.00442253 1.4101e-11)
(1.17657 0.0031398 -1.4101e-11)
(1.17607 0.00187676 -3.27054e-28)
(1.17581 0.000624465 3.29125e-28)
(0.892516 0.0358779 4.07347e-28)
(0.949131 0.0348046 -4.07893e-28)
(1.00014 0.0329886 0)
(1.04434 0.0306337 0)
(1.08121 0.0279712 0)
(1.11078 0.025195 0)
(1.13356 0.0224565 -3.68503e-28)
(1.15037 0.0198591 3.68503e-28)
(1.16217 0.0174606 -6.10938e-12)
(1.16998 0.0152809 6.10938e-12)
(1.17476 0.0133128 0)
(1.17735 0.0115321 0)
(1.17842 0.00990723 -6.57916e-12)
(1.17853 0.00840505 6.57916e-12)
(1.17808 0.00699542 -5.81684e-28)
(1.17737 0.00565292 5.81684e-28)
(1.1766 0.00435733 6.83142e-12)
(1.17593 0.00309315 -6.83142e-12)
(1.17544 0.00184875 0)
(1.17518 0.000615125 0)
(0.892239 0.0353581 0)
(0.948411 0.0343173 0)
(0.999089 0.0325415 0)
(1.04308 0.0302312 0)
(1.07984 0.0276132 0)
(1.1094 0.0248788 0)
(1.13222 0.0221776 2.57566e-28)
(1.14911 0.0196124 -2.57566e-28)
(1.16101 0.0172414 0)
(1.16894 0.0150853 0)
(1.17382 0.0131381 0)
(1.17649 0.0113767 0)
(1.17763 0.00977011 0)
(1.17779 0.00828593 0)
(1.17738 0.00689429 0)
(1.1767 0.00556991 0)
(1.17596 0.0042926 2.74629e-28)
(1.1753 0.00304683 -2.74629e-28)
(1.17482 0.00182093 0)
(1.17456 0.000605845 0)
(0.891975 0.0348482 0)
(0.94771 0.0338391 0)
(0.998063 0.0321025 0)
(1.04184 0.0298355 0)
(1.0785 0.0272611 0)
(1.10803 0.0245676 0)
(1.13089 0.0219029 0)
(1.14786 0.0193693 0)
(1.15987 0.0170252 -4.92202e-28)
(1.1679 0.0148924 4.92202e-28)
(1.17288 0.0129657 0)
(1.17564 0.0112231 0)
(1.17685 0.00963457 0)
(1.17707 0.00816811 0)
(1.1767 0.0067942 0)
(1.17605 0.00548771 0)
(1.17533 0.00422846 0)
(1.17468 0.00300091 0)
(1.1742 0.00179334 4.10233e-28)
(1.17395 0.000596641 -4.1283e-28)
(0.891723 0.0343482 0)
(0.947026 0.03337 0)
(0.997057 0.0316716 0)
(1.04063 0.0294468 0)
(1.07717 0.0269149 0)
(1.10668 0.0242614 0)
(1.12959 0.0216324 0)
(1.14663 0.0191298 0)
(1.15874 0.0168122 0)
(1.16688 0.0147022 0)
(1.17196 0.0127956 0)
(1.1748 0.0110716 0)
(1.17608 0.00950079 0)
(1.17635 0.00805175 0)
(1.17603 0.0066953 0)
(1.1754 0.00540643 0)
(1.1747 0.00416501 -2.57157e-28)
(1.17407 0.00295547 2.57157e-28)
(1.1736 0.00176602 -2.87585e-28)
(1.17335 0.000587528 2.89405e-28)
(0.891484 0.033858 -3.46107e-28)
(0.94636 0.0329099 3.46564e-28)
(0.996072 0.0312487 0)
(1.03943 0.0290652 0)
(1.07587 0.0265748 0)
(1.10535 0.0239604 0)
(1.12829 0.0213665 0)
(1.14542 0.0188942 0)
(1.15763 0.0166026 -5.29979e-12)
(1.16587 0.0145149 5.29979e-12)
(1.17104 0.0126282 0)
(1.17397 0.0109224 0)
(1.17532 0.00936894 0)
(1.17565 0.00793701 0)
(1.17536 0.00659771 5.09235e-28)
(1.17477 0.00532619 -5.09235e-28)
(1.17408 0.00410234 5.98953e-12)
(1.17346 0.00291057 -5.98953e-12)
(1.173 0.00173903 3.83842e-28)
(1.17276 0.000578521 -3.86272e-28)
(0.891256 0.0333776 1.59397e-28)
(0.94571 0.0324588 -1.59607e-28)
(0.995106 0.0308339 0)
(1.03826 0.0286907 0)
(1.07459 0.0262409 0)
(1.10404 0.0236647 0)
(1.12702 0.0211051 0)
(1.14422 0.0186626 0)
(1.15652 0.0163965 -1.02155e-11)
(1.16486 0.0143308 1.02155e-11)
(1.17014 0.0124636 0)
(1.17315 0.0107756 0)
(1.17457 0.00923919 -5.54777e-12)
(1.17495 0.00782404 5.54777e-12)
(1.1747 0.00650158 -2.36294e-28)
(1.17414 0.0052471 2.36294e-28)
(1.17348 0.00404054 1.15749e-11)
(1.17287 0.00286627 -1.15749e-11)
(1.17241 0.00171239 -2.68766e-28)
(1.17217 0.000569632 2.70467e-28)
(0.891041 0.0329067 2.63343e-29)
(0.945076 0.0320166 -2.63687e-29)
(0.99416 0.0304272 -1.43008e-28)
(1.03711 0.0283233 1.43008e-28)
(1.07332 0.0259132 0)
(1.10275 0.0233745 0)
(1.12576 0.0208485 0)
(1.14303 0.0184353 0)
(1.15543 0.0161941 -4.91971e-12)
(1.16387 0.0141501 4.91971e-12)
(1.16924 0.0123018 0)
(1.17233 0.0106314 0)
(1.17383 0.00911167 -1.07048e-11)
(1.17426 0.00771296 1.07048e-11)
(1.17405 0.00640702 0)
(1.17352 0.00516927 0)
(1.17288 0.0039797 5.58866e-12)
(1.17228 0.00282265 -5.58866e-12)
(1.17184 0.00168615 0)
(1.1716 0.000560874 0)
(0.890836 0.0324454 1.70209e-28)
(0.944459 0.0315833 -1.70431e-28)
(0.993232 0.0300285 -1.02115e-28)
(1.03597 0.0279631 1.02115e-28)
(1.07208 0.0255918 0)
(1.10147 0.0230898 0)
(1.12451 0.0205968 0)
(1.14186 0.0182122 0)
(1.15435 0.0159957 0)
(1.16289 0.0139727 0)
(1.16835 0.0121432 0)
(1.17153 0.0104899 0)
(1.17309 0.00898652 -1.03211e-11)
(1.17358 0.00760392 1.03211e-11)
(1.17341 0.00631414 0)
(1.17291 0.0050928 0)
(1.17229 0.0039199 2.60651e-28)
(1.17171 0.00277976 -2.60651e-28)
(1.17127 0.00166034 8.10651e-29)
(1.17104 0.00055226 -8.15783e-29)
(0.890642 0.0319934 0)
(0.943857 0.0311587 0)
(0.992323 0.0296378 0)
(1.03486 0.0276101 0)
(1.07085 0.0252768 0)
(1.10022 0.0228107 0)
(1.12329 0.0203501 0)
(1.1407 0.0179936 0)
(1.15328 0.0158012 3.26076e-29)
(1.16192 0.013799 -3.26076e-29)
(1.16748 0.0119878 0)
(1.17073 0.0103513 0)
(1.17236 0.00886388 -9.94425e-12)
(1.17291 0.00749702 9.94425e-12)
(1.17278 0.00622306 0)
(1.1723 0.00501777 0)
(1.1717 0.0038612 0)
(1.17114 0.00273764 0)
(1.17071 0.001635 0)
(1.17048 0.000543799 0)
(0.89046 0.0315508 -2.78226e-28)
(0.94327 0.0307429 2.78584e-28)
(0.991431 0.0292551 0)
(1.03376 0.0272642 0)
(1.06964 0.0249682 0)
(1.09898 0.0225374 0)
(1.12207 0.0201084 0)
(1.13956 0.0177796 0)
(1.15223 0.0156108 0)
(1.16096 0.013629 0)
(1.16661 0.0118357 0)
(1.16995 0.0102156 0)
(1.17164 0.00874387 -9.57409e-12)
(1.17224 0.00739238 9.57409e-12)
(1.17216 0.00613387 0)
(1.17171 0.00494428 0)
(1.17113 0.00380369 0)
(1.17058 0.00269636 0)
(1.17016 0.00161015 0)
(1.16993 0.000535503 0)
(0.890287 0.0311173 1.27628e-28)
(0.942699 0.0303357 -1.27791e-28)
(0.990557 0.0288803 7.65012e-30)
(1.03268 0.0269255 -7.65012e-30)
(1.06846 0.024666 0)
(1.09775 0.0222697 0)
(1.12087 0.0198719 0)
(1.13842 0.0175702 0)
(1.15118 0.0154246 -4.20515e-12)
(1.16001 0.0134628 4.20515e-12)
(1.16575 0.0116871 1.83779e-28)
(1.16917 0.0100831 -1.83779e-28)
(1.17093 0.0086266 -9.21048e-12)
(1.17158 0.00729011 9.21048e-12)
(1.17154 0.00604667 0)
(1.17112 0.0048724 0)
(1.17056 0.00374742 4.82517e-12)
(1.17003 0.00265597 -4.82517e-12)
(1.16961 0.00158583 -2.24268e-28)
(1.16939 0.000527382 2.25688e-28)
(0.890125 0.030693 -2.96618e-28)
(0.942141 0.029937 0)
(0.989701 0.0285134 -2.66183e-28)
(1.03163 0.026594 3.24034e-28)
(1.06728 0.0243703 -3.76795e-28)
(1.09655 0.0220079 -3.704e-28)
(1.11969 0.0196407 3.35405e-28)
(1.1373 0.0173656 3.71917e-28)
(1.15014 0.0152428 -4.03547e-12)
(1.15906 0.0133006 4.03547e-12)
(1.16489 0.0115421 0)
(1.1684 0.00995378 3.89064e-28)
(1.17023 0.00851217 -4.42665e-12)
(1.17093 0.0071903 4.42665e-12)
(1.17093 0.00596156 4.09855e-28)
(1.17054 0.00480221 4.43596e-28)
(1.17001 0.00369245 9.28388e-12)
(1.16948 0.0026165 -9.28388e-12)
(1.16908 0.00156206 7.21353e-28)
(1.16886 0.000519445 -2.9972e-28)
(0.889973 0.0302775 2.9662e-28)
(0.941599 0.0295468 0)
(0.988861 0.0281543 3.02839e-28)
(1.03058 0.0262696 -3.60689e-28)
(1.06613 0.024081 3.76795e-28)
(1.09536 0.0217519 3.704e-28)
(1.11852 0.0194147 -3.35405e-28)
(1.13619 0.0171658 -3.71917e-28)
(1.14912 0.0150654 3.34339e-28)
(1.15813 0.0131424 -3.34339e-28)
(1.16405 0.0114008 0)
(1.16763 0.00982779 -3.89064e-28)
(1.16953 0.0084007 -4.24613e-28)
(1.17029 0.00709306 0)
(1.17033 0.00587861 -4.09855e-28)
(1.16997 0.00473379 -4.43596e-28)
(1.16946 0.00363886 4.46164e-12)
(1.16895 0.002578 -4.46164e-12)
(1.16855 0.00153888 -4.23519e-28)
(1.16834 0.000511701 0)
(0.889831 0.0298709 0)
(0.94107 0.0291649 0)
(0.988038 0.027803 0)
(1.02956 0.0259524 0)
(1.06499 0.0237983 0)
(1.09418 0.0215019 0)
(1.11737 0.0191942 0)
(1.1351 0.0169709 0)
(1.14811 0.0148925 -1.5385e-28)
(1.15721 0.0129884 1.5385e-28)
(1.16321 0.0112633 0)
(1.16688 0.00970523 0)
(1.16884 0.00829227 0)
(1.16965 0.00699847 0)
(1.16973 0.0057979 0)
(1.16941 0.00466721 0)
(1.16891 0.00358669 4.2842e-12)
(1.16842 0.00254052 -4.2842e-12)
(1.16803 0.0015163 0)
(1.16782 0.00050416 0)
(0.889698 0.029473 0)
(0.940555 0.0287913 0)
(0.987231 0.0274594 0)
(1.02856 0.0256422 0)
(1.06388 0.023522 0)
(1.09302 0.0212577 0)
(1.11622 0.018979 0)
(1.13401 0.016781 0)
(1.1471 0.0147243 3.06457e-28)
(1.15629 0.0128386 -3.06457e-28)
(1.16239 0.0111297 0)
(1.16613 0.0095862 0)
(1.16816 0.00818699 0)
(1.16903 0.00690662 0)
(1.16915 0.00571953 3.48226e-28)
(1.16885 0.00460253 -3.48226e-28)
(1.16838 0.003536 4.10956e-12)
(1.1679 0.00250409 -4.10956e-12)
(1.16752 0.00149435 -2.63798e-28)
(1.16731 0.000496829 2.65468e-28)
(0.889575 0.0290836 0)
(0.940054 0.0284259 0)
(0.98644 0.0271235 0)
(1.02757 0.0253392 0)
(1.06277 0.0232523 1.20733e-28)
(1.09188 0.0210196 -1.20733e-28)
(1.1151 0.0187694 0)
(1.13294 0.0165962 0)
(1.14611 0.0145607 -1.4072e-28)
(1.15539 0.0126932 1.4072e-28)
(1.16157 0.011 -1.48844e-28)
(1.16538 0.00947079 1.48844e-28)
(1.16748 0.00808494 0)
(1.1684 0.0068176 0)
(1.16857 0.00564356 0)
(1.1683 0.00453983 0)
(1.16785 0.00348684 0)
(1.16738 0.00246876 0)
(1.16701 0.00147306 0)
(1.16681 0.000489716 0)
(0.889462 0.0287027 0)
(0.939565 0.0280684 0)
(0.985665 0.0267951 0)
(1.02659 0.0250431 0)
(1.06169 0.022989 -2.39257e-28)
(1.09075 0.0207874 2.39257e-28)
(1.11398 0.0185653 0)
(1.13188 0.0164166 0)
(1.14512 0.0144019 2.79664e-28)
(1.15449 0.0125522 -2.79664e-28)
(1.16075 0.0108745 0)
(1.16465 0.00935909 0)
(1.16682 0.00798621 0)
(1.16779 0.00673149 0)
(1.16799 0.00557008 -3.19122e-28)
(1.16776 0.00447916 3.19122e-28)
(1.16733 0.00343928 3.76837e-12)
(1.16688 0.00243457 -3.76837e-12)
(1.16651 0.00145245 2.41968e-28)
(1.16632 0.000482831 -2.435e-28)
(0.889357 0.0283301 0)
(0.93909 0.027719 0)
(0.984906 0.0264742 0)
(1.02564 0.0247541 0)
(1.06062 0.0227322 0)
(1.08964 0.0205613 0)
(1.11288 0.0183668 -1.32209e-28)
(1.13083 0.0162422 1.32209e-28)
(1.14415 0.014248 0)
(1.1536 0.0124157 0)
(1.15995 0.0107531 0)
(1.16392 0.00925119 0)
(1.16615 0.00789089 -1.41897e-28)
(1.16718 0.00664838 1.41897e-28)
(1.16743 0.00549914 0)
(1.16722 0.0044206 0)
(1.16681 0.00339335 7.20334e-12)
(1.16637 0.00240154 -7.20334e-12)
(1.16602 0.00143255 -1.67578e-28)
(1.16583 0.00047618 1.68639e-28)
(0.889262 0.0279657 0)
(0.938628 0.0273774 0)
(0.984161 0.0261608 2.26208e-12)
(1.0247 0.0244721 -2.26208e-12)
(1.05956 0.022482 0)
(1.08854 0.0203412 0)
(1.11179 0.018174 1.25722e-28)
(1.12979 0.016073 -1.25722e-28)
(1.14318 0.0140991 -1.21973e-28)
(1.15272 0.0122839 1.21973e-28)
(1.15915 0.010636 0)
(1.1632 0.00914718 0)
(1.1655 0.00779907 0)
(1.16658 0.00656834 0)
(1.16686 0.00543084 0)
(1.16669 0.0043642 0)
(1.16631 0.00334911 3.43748e-12)
(1.16588 0.00236973 -3.43748e-12)
(1.16554 0.00141337 0)
(1.16535 0.00046977 0)
(0.889175 0.0276092 0)
(0.938179 0.0270435 0)
(0.983432 0.0258547 2.13894e-12)
(1.02377 0.0241969 -2.13894e-12)
(1.05852 0.0222382 0)
(1.08745 0.0201272 0)
(1.11072 0.0179868 -1.64758e-28)
(1.12876 0.0159092 1.64758e-28)
(1.14223 0.0139551 0)
(1.15184 0.0121567 0)
(1.15836 0.0105232 0)
(1.16248 0.00904716 0)
(1.16485 0.00771083 -3.10441e-12)
(1.16598 0.00649145 3.10441e-12)
(1.16631 0.00536523 2.77166e-28)
(1.16617 0.00431002 -2.77166e-28)
(1.1658 0.00330661 3.2757e-12)
(1.16539 0.00233916 -3.2757e-12)
(1.16506 0.00139493 0)
(1.16488 0.00046361 0)
(0.889098 0.0272607 0)
(0.937742 0.0267172 0)
(0.982717 0.0255559 4.59602e-30)
(1.02286 0.0239287 -4.59602e-30)
(1.0575 0.022001 0)
(1.08638 0.0199193 0)
(1.10966 0.0178054 1.13149e-28)
(1.12775 0.0157509 -1.13149e-28)
(1.14128 0.0138163 1.10068e-28)
(1.15098 0.0120343 -1.10068e-28)
(1.15757 0.0104148 0)
(1.16177 0.00895121 0)
(1.1642 0.00762627 -5.90255e-12)
(1.16539 0.0064178 5.90255e-12)
(1.16576 0.0053024 -1.26635e-28)
(1.16565 0.00425814 1.26635e-28)
(1.16531 0.00326591 6.2325e-12)
(1.16491 0.00230987 -6.2325e-12)
(1.16459 0.00137727 1.45049e-28)
(1.16441 0.000457708 -1.45967e-28)
(0.889029 0.0269199 -1.46393e-28)
(0.937318 0.0263985 1.46567e-28)
(0.982017 0.0252644 2.17035e-29)
(1.02197 0.0236674 -2.17035e-29)
(1.05649 0.0217702 0)
(1.08533 0.0197176 0)
(1.10861 0.0176299 -1.47761e-28)
(1.12674 0.015598 1.47761e-28)
(1.14034 0.0136826 -2.17079e-28)
(1.15012 0.0119168 2.17079e-28)
(1.15679 0.0103111 0)
(1.16107 0.00885943 0)
(1.16356 0.00754546 -5.60113e-12)
(1.1648 0.00634746 5.60113e-12)
(1.16521 0.00524241 0)
(1.16513 0.0042086 0)
(1.16482 0.00322704 2.95906e-12)
(1.16444 0.0022819 -2.95906e-12)
(1.16412 0.0013604 0)
(1.16395 0.00045207 0)
(0.888969 0.0265867 6.58415e-29)
(0.936906 0.0260872 -6.59192e-29)
(0.981332 0.02498 0)
(1.02109 0.0234129 0)
(1.0555 0.021546 0)
(1.08428 0.0195221 0)
(1.10757 0.0174602 1.01087e-28)
(1.12575 0.0154507 -1.01087e-28)
(1.13942 0.0135542 9.86062e-29)
(1.14927 0.0118042 -9.86062e-29)
(1.15602 0.0102119 0)
(1.16037 0.00877191 0)
(1.16293 0.00746851 -2.65221e-12)
(1.16422 0.00628053 2.65221e-12)
(1.16467 0.00518535 0)
(1.16463 0.00416148 0)
(1.16433 0.00319005 0)
(1.16397 0.00225529 0)
(1.16366 0.00134435 -1.30545e-28)
(1.16349 0.000446703 1.31372e-28)
(0.888917 0.0262609 -1.27949e-28)
(0.936506 0.0257831 1.28099e-28)
(0.980661 0.0247026 0)
(1.02023 0.0231652 0)
(1.05452 0.0213283 0)
(1.08325 0.0193328 0)
(1.10654 0.0172964 0)
(1.12476 0.0153091 0)
(1.1385 0.0134312 0)
(1.14842 0.0116968 0)
(1.15526 0.0101175 0)
(1.15968 0.00868877 0)
(1.1623 0.00739551 -2.50611e-12)
(1.16364 0.00621709 2.50611e-12)
(1.16414 0.00513128 0)
(1.16412 0.00411683 0)
(1.16385 0.00315501 -2.29081e-28)
(1.1635 0.00223007 2.29081e-28)
(1.1632 0.00132913 0)
(1.16304 0.000441616 0)
(0.888875 0.0259425 5.71969e-29)
(0.936119 0.0254863 -5.72634e-29)
(0.980004 0.0244323 3.56355e-30)
(1.01938 0.0229243 -3.56355e-30)
(1.05355 0.0211171 0)
(1.08224 0.0191497 0)
(1.10553 0.0171387 0)
(1.12379 0.0151732 0)
(1.13758 0.0133138 -8.75646e-29)
(1.14759 0.0115945 8.75646e-29)
(1.1545 0.0100279 0)
(1.15899 0.0086101 0)
(1.16167 0.00732655 -4.72436e-12)
(1.16307 0.00615723 4.72436e-12)
(1.16361 0.00508028 0)
(1.16362 0.00407473 0)
(1.16337 0.00312197 2.50012e-12)
(1.16304 0.00220627 -2.50012e-12)
(1.16275 0.00131478 0)
(1.16259 0.000436816 0)
(0.88884 0.0256312 0)
(0.935743 0.0251966 0)
(0.979361 0.024169 -3.32057e-30)
(1.01855 0.0226902 3.32057e-30)
(1.0526 0.0209125 0)
(1.08124 0.0189731 0)
(1.10453 0.0169871 0)
(1.12282 0.0150432 0)
(1.13668 0.0132019 0)
(1.14676 0.0114976 0)
(1.15374 0.00994335 0)
(1.15831 0.00853601 0)
(1.16106 0.00726174 -2.22034e-12)
(1.1625 0.00610103 2.22034e-12)
(1.16308 0.00503243 0)
(1.16313 0.00403524 0)
(1.1629 0.00309096 4.7021e-12)
(1.16258 0.00218395 -4.7021e-12)
(1.16231 0.0013013 1.09483e-28)
(1.16215 0.000432311 -1.10176e-28)
(0.888815 0.0253269 -1.01945e-28)
(0.93538 0.0249138 1.02062e-28)
(0.978733 0.0239126 0)
(1.01773 0.0224629 0)
(1.05167 0.0207145 0)
(1.08025 0.0188028 0)
(1.10354 0.0168417 0)
(1.12187 0.0149192 0)
(1.13579 0.0130957 0)
(1.14594 0.0114061 0)
(1.153 0.00986386 1.7108e-28)
(1.15763 0.00846662 -1.7108e-28)
(1.16044 0.00720119 0)
(1.16194 0.0060486 0)
(1.16256 0.00498782 0)
(1.16264 0.00399842 0)
(1.16243 0.00306206 4.40756e-12)
(1.16213 0.00216313 -4.40756e-12)
(1.16187 0.00128873 -1.41654e-28)
(1.16171 0.000428108 1.42551e-28)
(0.888798 0.0250294 4.50174e-29)
(0.935029 0.0246379 -4.50683e-29)
(0.978118 0.023663 0)
(1.01693 0.0222423 0)
(1.05075 0.0205232 0)
(1.07928 0.018639 0)
(1.10256 0.0167027 0)
(1.12093 0.0148014 0)
(1.1349 0.0129954 0)
(1.14512 0.0113201 0)
(1.15225 0.0097896 -7.67075e-29)
(1.15696 0.00840206 7.67075e-29)
(1.15983 0.00714502 0)
(1.16138 0.00600004 0)
(1.16204 0.00494654 0)
(1.16215 0.00396435 0)
(1.16197 0.0030353 2.05821e-12)
(1.16169 0.00214385 -2.05821e-12)
(1.16143 0.00127709 9.58543e-29)
(1.16128 0.000424214 -9.64611e-29)
(0.888789 0.0247385 0)
(0.934689 0.0243687 0)
(0.977518 0.0234202 0)
(1.01614 0.0220285 0)
(1.04984 0.0203386 0)
(1.07831 0.0184819 0)
(1.10159 0.0165701 0)
(1.11999 0.0146897 0)
(1.13402 0.0129011 1.38734e-28)
(1.14431 0.0112399 -1.38734e-28)
(1.15152 0.00972071 1.48445e-28)
(1.15629 0.00834246 -1.48445e-28)
(1.15922 0.00709333 -1.80646e-12)
(1.16083 0.00595545 1.80646e-12)
(1.16153 0.00490866 1.61724e-28)
(1.16167 0.0039331 -1.61724e-28)
(1.16151 0.00301075 1.91425e-12)
(1.16124 0.00212616 -1.91425e-12)
(1.16099 0.00126641 -1.23047e-28)
(1.16085 0.000420638 1.23826e-28)
(0.88879 0.0244542 0)
(0.934362 0.0241062 0)
(0.976932 0.0231842 0)
(1.01537 0.0218215 0)
(1.04895 0.0201607 0)
(1.07737 0.0183314 0)
(1.10064 0.016444 0)
(1.11907 0.0145845 0)
(1.13315 0.0128131 -6.16427e-29)
(1.14351 0.0111656 6.16427e-29)
(1.15079 0.00965736 0)
(1.15563 0.00828797 0)
(1.15862 0.00704626 -3.34411e-12)
(1.16028 0.00591493 3.34411e-12)
(1.16102 0.00487428 0)
(1.16119 0.00390474 0)
(1.16106 0.00298847 3.54355e-12)
(1.1608 0.00211009 -3.54355e-12)
(1.16056 0.00125669 8.25127e-29)
(1.16042 0.000417388 -8.30351e-29)
(0.8888 0.0241761 0)
(0.934047 0.0238503 0)
(0.976359 0.0229549 0)
(1.01461 0.0216214 0)
(1.04807 0.0199898 0)
(1.07643 0.0181879 0)
(1.09969 0.0163248 0)
(1.11815 0.0144859 0)
(1.13229 0.0127314 0)
(1.14271 0.0110973 0)
(1.15006 0.0095997 0)
(1.15497 0.00823873 0)
(1.15802 0.00700393 -3.07854e-12)
(1.15973 0.00587861 3.07854e-12)
(1.16051 0.0048435 -6.6193e-29)
(1.16072 0.00387934 6.6193e-29)
(1.1606 0.00296851 1.6307e-12)
(1.16036 0.00209568 -1.6307e-12)
(1.16014 0.00124798 0)
(1.16 0.000414471 0)
(0.888818 0.0239041 -6.29052e-29)
(0.933745 0.0236008 6.29735e-29)
(0.975801 0.0227324 0)
(1.01386 0.0214282 0)
(1.04721 0.0198259 0)
(1.07551 0.0180513 0)
(1.09876 0.0162125 0)
(1.11724 0.0143941 0)
(1.13144 0.0126562 0)
(1.14192 0.0110353 0)
(1.14934 0.00954792 0)
(1.15431 0.00819491 0)
(1.15742 0.0069665 -2.816e-12)
(1.15918 0.00584661 2.816e-12)
(1.16001 0.00481641 0)
(1.16024 0.003857 0)
(1.16015 0.00295092 1.49091e-12)
(1.15993 0.00208298 -1.49091e-12)
(1.15971 0.00124029 0)
(1.15958 0.000411894 0)
(0.888847 0.023638 2.67795e-29)
(0.933455 0.0233576 -2.68083e-29)
(0.975258 0.0225165 0)
(1.01313 0.021242 0)
(1.04636 0.0196691 0)
(1.0746 0.017922 0)
(1.09784 0.0161074 0)
(1.11635 0.0143094 0)
(1.13059 0.0125879 0)
(1.14114 0.0109798 0)
(1.14862 0.00950222 -5.04794e-29)
(1.15366 0.00815668 5.04794e-29)
(1.15683 0.00693411 -1.27814e-12)
(1.15864 0.00581903 1.27814e-12)
(1.1595 0.00479311 0)
(1.15977 0.00383777 0)
(1.1597 0.00293577 2.70458e-12)
(1.1595 0.00207201 -2.70458e-12)
(1.15929 0.00123364 -6.29549e-29)
(1.15916 0.000409665 6.33534e-29)
(0.888884 0.0233777 0)
(0.933178 0.0231208 0)
(0.974729 0.0223075 0)
(1.01242 0.0210629 0)
(1.04553 0.0195196 0)
(1.0737 0.0178001 0)
(1.09693 0.0160096 0)
(1.11546 0.0142319 0)
(1.12975 0.0125266 8.8349e-29)
(1.14036 0.0109311 -8.8349e-29)
(1.14791 0.00946281 0)
(1.15301 0.00812423 0)
(1.15624 0.00690692 0)
(1.15809 0.00579602 0)
(1.159 0.0047737 0)
(1.1593 0.00382174 0)
(1.15926 0.00292311 1.21473e-12)
(1.15907 0.00206283 -1.21473e-12)
(1.15887 0.00122806 0)
(1.15875 0.000407791 0)
(0.888932 0.0231229 0)
(0.932913 0.0228901 0)
(0.974214 0.0221052 0)
(1.01172 0.020891 0)
(1.04471 0.0193777 0)
(1.07282 0.0176858 0)
(1.09603 0.0159196 0)
(1.11458 0.014162 0)
(1.12891 0.0124727 0)
(1.13958 0.0108893 0)
(1.1472 0.00942993 0)
(1.15236 0.00809775 0)
(1.15565 0.00688509 0)
(1.15756 0.0057777 0)
(1.1585 0.00475829 4.38428e-29)
(1.15883 0.00380898 -4.38428e-29)
(1.15881 0.002913 -4.47537e-29)
(1.15864 0.00205546 4.47537e-29)
(1.15845 0.00122357 5.01601e-29)
(1.15833 0.000406278 -5.04777e-29)
(0.88899 0.0228735 0)
(0.932663 0.0226657 0)
(0.973715 0.0219098 5.32372e-13)
(1.01104 0.0207266 -5.32372e-13)
(1.0439 0.0192436 0)
(1.07195 0.0175796 0)
(1.09514 0.0158377 0)
(1.11371 0.0141001 0)
(1.12809 0.0124264 -6.92919e-29)
(1.13881 0.0108547 6.92919e-29)
(1.14649 0.0094038 0)
(1.15172 0.00807746 0)
(1.15506 0.00686878 0)
(1.15702 0.00576422 0)
(1.158 0.00474698 -7.98552e-29)
(1.15837 0.00379958 7.98552e-29)
(1.15837 0.00290549 8.14271e-29)
(1.15821 0.00204994 -8.14271e-29)
(1.15803 0.00122018 -6.04817e-29)
(1.15792 0.000405132 6.08646e-29)
(0.88906 0.0226292 0)
(0.932426 0.0224474 0)
(0.973231 0.0217214 4.54284e-13)
(1.01037 0.0205697 -4.54284e-13)
(1.04311 0.0191175 0)
(1.07109 0.0174817 0)
(1.09427 0.0157641 -2.91812e-29)
(1.11285 0.0140464 2.91812e-29)
(1.12727 0.0123882 0)
(1.13805 0.0108278 0)
(1.14579 0.00938472 0)
(1.15108 0.00806357 0)
(1.15448 0.00685819 0)
(1.15648 0.0057557 0)
(1.15751 0.00473987 0)
(1.1579 0.0037936 0)
(1.15792 0.00290063 0)
(1.15778 0.00204631 0)
(1.15762 0.00121791 0)
(1.15751 0.000404355 0)
(0.88914 0.02239 0)
(0.932204 0.0222352 0)
(0.972763 0.0215401 8.63037e-31)
(1.00972 0.0204208 -8.63037e-31)
(1.04234 0.0189999 0)
(1.07025 0.0173926 0)
(1.0934 0.0156993 0)
(1.112 0.0140014 0)
(1.12646 0.0123583 0)
(1.13729 0.0108087 0)
(1.14509 0.00937296 0)
(1.15044 0.00805632 0)
(1.15389 0.00685349 0)
(1.15594 0.00575229 0)
(1.15701 0.00473706 0)
(1.15743 0.00379113 0)
(1.15748 0.00289847 -2.79254e-29)
(1.15736 0.00204459 2.79254e-29)
(1.1572 0.00121677 0)
(1.1571 0.000403951 0)
(0.889233 0.022156 -1.77194e-29)
(0.931996 0.0220293 1.77371e-29)
(0.972312 0.0213662 0)
(1.00908 0.0202801 0)
(1.04158 0.0188912 0)
(1.06942 0.0173126 0)
(1.09255 0.0156439 0)
(1.11116 0.0139655 0)
(1.12565 0.0123372 0)
(1.13654 0.010798 0)
(1.14439 0.00936881 0)
(1.1498 0.00805595 0)
(1.15331 0.00685486 0)
(1.15541 0.00575412 0)
(1.15651 0.00473865 0)
(1.15697 0.00379221 0)
(1.15704 0.00289905 5.38635e-13)
(1.15693 0.00204481 -5.38635e-13)
(1.15678 0.00121678 3.44533e-29)
(1.15669 0.000403916 -3.46714e-29)
(0.889337 0.021927 5.90575e-30)
(0.931806 0.0218298 -5.9116e-30)
(0.971881 0.0211999 0)
(1.00847 0.0201481 0)
(1.04084 0.0187919 0)
(1.06861 0.0172425 0)
(1.09171 0.0155983 1.62649e-29)
(1.11033 0.0139394 -1.62649e-29)
(1.12486 0.0123253 1.57146e-29)
(1.13579 0.0107959 -1.57146e-29)
(1.1437 0.00937263 1.62579e-29)
(1.14917 0.00806273 -1.62579e-29)
(1.15273 0.00686251 -3.98377e-13)
(1.15487 0.00576133 3.98377e-13)
(1.15602 0.00474472 0)
(1.1565 0.0037969 0)
(1.1566 0.0029024 4.04753e-13)
(1.15651 0.00204699 -4.04753e-13)
(1.15637 0.00121791 -1.87069e-29)
(1.15628 0.000404227 1.88253e-29)
(0.889461 0.0217028 -7.15457e-30)
(0.931625 0.0216362 7.16157e-30)
(0.971452 0.0210414 0)
(1.00785 0.0200254 0)
(1.0401 0.0187029 0)
(1.06779 0.0171834 0)
(1.09087 0.0155639 -1.70617e-29)
(1.1095 0.0139241 1.70617e-29)
(1.12406 0.0123239 -2.41835e-29)
(1.13504 0.0108034 2.41835e-29)
(1.14301 0.00938522 -2.42547e-29)
(1.14853 0.00807729 2.42547e-29)
(1.15214 0.00687693 -5.55591e-13)
(1.15433 0.00577429 5.55591e-13)
(1.15552 0.00475556 0)
(1.15603 0.0038054 0)
(1.15615 0.00290865 -2.35966e-29)
(1.15608 0.0020512 2.35966e-29)
(1.15595 0.00122022 0)
(1.15587 0.000404906 0)
(0.889647 0.0215148 1.15098e-30)
(0.931406 0.0214727 -1.14943e-30)
(0.970896 0.0209072 0)
(1.00704 0.0199224 0)
(1.0391 0.0186301 0)
(1.06668 0.0171378 0)
(1.08971 0.0155411 8.93432e-30)
(1.10834 0.0139191 -8.92509e-30)
(1.12294 0.0123316 0)
(1.13398 0.0108192 0)
(1.14203 0.00940509 0)
(1.14762 0.00809826 0)
(1.15131 0.0068969 -3.29256e-13)
(1.15357 0.00579196 3.29215e-13)
(1.1548 0.00477028 0)
(1.15536 0.00381702 0)
(1.15552 0.00291728 1.47319e-13)
(1.15547 0.00205717 -1.47319e-13)
(1.15536 0.00122416 6.62629e-30)
(1.15528 0.000406476 -6.66871e-30)
(0.835051 0.0400463 -2.41451e-20)
(0.835213 0.0394286 4.19042e-20)
(0.835383 0.0388222 -2.68728e-20)
(0.835561 0.0382271 2.94532e-20)
(0.835747 0.0376432 -4.38777e-20)
(0.835939 0.0370704 1.17383e-20)
(0.836139 0.0365086 3.12602e-20)
(0.836345 0.0359577 -4.04416e-20)
(0.836557 0.0354177 9.56037e-21)
(0.836775 0.0348884 -7.67743e-21)
(0.836999 0.0343696 -9.91404e-22)
(0.837229 0.0338614 1.1888e-20)
(0.837464 0.0333634 3.84688e-21)
(0.837705 0.0328756 -7.10778e-21)
(0.83795 0.0323979 -5.08132e-21)
(0.838201 0.0319301 1.07252e-20)
(0.838456 0.031472 -4.88641e-21)
(0.838716 0.0310235 3.50062e-21)
(0.83898 0.0305845 -2.32867e-21)
(0.839249 0.0301547 1.79419e-21)
(0.839522 0.0297341 6.33138e-21)
(0.8398 0.0293225 -9.6622e-21)
(0.840081 0.0289197 -4.43904e-21)
(0.840367 0.0285256 6.81448e-21)
(0.840656 0.02814 -2.73949e-21)
(0.84095 0.0277627 1.4004e-21)
(0.841247 0.0273936 6.0773e-22)
(0.841549 0.0270324 -5.11912e-21)
(0.841854 0.0266792 4.93748e-21)
(0.842163 0.0263335 -3.56559e-22)
(0.842477 0.0259953 1.25989e-21)
(0.842794 0.0256645 1.48779e-22)
(0.843115 0.0253406 -1.8997e-21)
(0.843441 0.0250237 -5.74594e-22)
(0.84377 0.0247135 1.16641e-21)
(0.844104 0.0244096 6.14708e-22)
(0.844442 0.024112 -5.08053e-22)
(0.844785 0.0238203 2.05445e-22)
(0.845133 0.0235343 1.20482e-22)
(0.845486 0.0232536 -1.59988e-23)
(0.845844 0.0229781 6.41075e-23)
(0.846208 0.0227073 -1.27203e-22)
(0.846579 0.0224409 -1.33689e-22)
(0.846956 0.0221787 2.19302e-22)
(0.847342 0.0219204 -7.07715e-23)
(0.847734 0.021666 -2.97867e-24)
(0.848131 0.0214153 2.51264e-23)
(0.848563 0.0211684 1.46024e-25)
(0.849151 0.0209642 -1.01951e-25)
(0.775533 0.0386746 -1.05431e-20)
(0.776341 0.0380706 -9.02225e-22)
(0.777146 0.0374779 2.03867e-20)
(0.777948 0.0368963 -1.23624e-20)
(0.778745 0.0363257 4.21319e-21)
(0.779538 0.0357661 2.58744e-20)
(0.780328 0.0352173 -1.45665e-20)
(0.781113 0.0346792 -1.75798e-20)
(0.781895 0.0341517 1.75934e-20)
(0.782672 0.0336347 -1.71682e-20)
(0.783445 0.0331279 7.31649e-21)
(0.784214 0.0326314 1.25968e-20)
(0.784979 0.0321448 -1.78519e-22)
(0.78574 0.0316682 -9.92805e-21)
(0.786497 0.0312013 1.05149e-20)
(0.78725 0.0307439 -3.98765e-21)
(0.787999 0.030296 -4.89962e-21)
(0.788744 0.0298574 -5.45804e-22)
(0.789486 0.0294278 -4.05215e-21)
(0.790223 0.0290073 3.04836e-21)
(0.790957 0.0285955 6.59623e-22)
(0.791687 0.0281923 2.14078e-21)
(0.792414 0.0277976 -6.59885e-22)
(0.793137 0.0274113 5.35785e-21)
(0.793856 0.027033 -4.88059e-21)
(0.794573 0.0266627 -3.40711e-21)
(0.795286 0.0263002 8.13897e-21)
(0.795996 0.0259454 -4.08868e-21)
(0.796703 0.0255979 -5.21158e-22)
(0.797407 0.0252577 1.02847e-22)
(0.798109 0.0249246 1.23744e-22)
(0.798808 0.0245982 -4.42865e-22)
(0.799504 0.0242786 -1.70579e-23)
(0.800198 0.0239653 -5.68378e-22)
(0.80089 0.0236581 1.49844e-21)
(0.801581 0.0233568 -8.17898e-22)
(0.802269 0.0230612 -1.21837e-21)
(0.802957 0.0227708 5.46651e-22)
(0.803643 0.0224853 2.14629e-22)
(0.804328 0.0222045 -3.56919e-22)
(0.805013 0.0219278 2.69992e-22)
(0.805697 0.0216548 -7.11586e-23)
(0.806383 0.021385 -1.21998e-22)
(0.807069 0.0211179 2.22131e-22)
(0.807758 0.0208531 -2.5278e-23)
(0.808448 0.0205905 -1.69008e-23)
(0.809134 0.0203293 1.85765e-24)
(0.809871 0.0200698 1.34786e-24)
(0.810848 0.0198582 1.45868e-24)
(0.71367 0.0366642 -2.39229e-20)
(0.715214 0.03608 -6.87705e-21)