/*--------------------------------*- C++ -*----------------------------------*\
  =========                 |
  \\      /  F ield         | OpenFOAM: The Open Source CFD Toolbox
   \\    /   O peration     | Website:  https://openfoam.org
    \\  /    A nd           | Version:  7
     \\/     M anipulation  |
\*---------------------------------------------------------------------------*/
FoamFile
{
    version     2.0;
    format      ascii;
    class       volScalarField;
    location    "90";
    object      p;
}
// * * * * * * * * * * * * * * * * * * * * * * * * * * * * * * * * * * * * * //

dimensions      [0 2 -2 0 0 0 0];

internalField   nonuniform List<scalar> 
3700
(
-0.170192
-0.166903
-0.16366
-0.159968
-0.155854
-0.151486
-0.146976
-0.142403
-0.137835
-0.133326
-0.128921
-0.124656
-0.120559
-0.116651
-0.112951
-0.10947
-0.106216
-0.103196
-0.100412
-0.0978658
-0.0955582
-0.0934883
-0.0916548
-0.0900558
-0.0886897
-0.0875545
-0.0866485
-0.0859703
-0.085519
-0.0852931
-0.16218
-0.160704
-0.158846
-0.156298
-0.153141
-0.14956
-0.145694
-0.141651
-0.137517
-0.133366
-0.129256
-0.125234
-0.121338
-0.117596
-0.114032
-0.110663
-0.107501
-0.104555
-0.101832
-0.0993356
-0.0970679
-0.09503
-0.0932219
-0.0916431
-0.0902927
-0.0891696
-0.0882727
-0.0876009
-0.0871537
-0.0869299
-0.155673
-0.155651
-0.154908
-0.153292
-0.150905
-0.147955
-0.144609
-0.140994
-0.137214
-0.133355
-0.129486
-0.125664
-0.121934
-0.118331
-0.114882
-0.111608
-0.108525
-0.105645
-0.102977
-0.100525
-0.0982944
-0.0962868
-0.0945035
-0.0929447
-0.0916103
-0.0904997
-0.0896123
-0.0889475
-0.0885047
-0.0882831
-0.151123
-0.152125
-0.152216
-0.15127
-0.14941
-0.14689
-0.143901
-0.140582
-0.137047
-0.133391
-0.129692
-0.126013
-0.122403
-0.118901
-0.115537
-0.112336
-0.109314
-0.106486
-0.103862
-0.101447
-0.0992481
-0.097267
-0.0955057
-0.0939652
-0.0926456
-0.091547
-0.0906688
-0.0900106
-0.0895722
-0.089353
-0.148795
-0.150412
-0.151033
-0.150433
-0.148824
-0.146513
-0.143696
-0.140518
-0.1371
-0.133544
-0.129932
-0.126328
-0.122783
-0.119338
-0.116025
-0.112868
-0.109886
-0.107094
-0.1045
-0.102113
-0.0999375
-0.0979772
-0.0962339
-0.0947087
-0.0934021
-0.0923139
-0.091444
-0.090792
-0.0903576
-0.0901404
-0.148762
-0.15073
-0.151502
-0.150882
-0.149237
-0.146897
-0.144053
-0.140849
-0.137413
-0.133847
-0.130232
-0.126631
-0.123093
-0.119658
-0.116358
-0.113216
-0.110251
-0.107474
-0.104898
-0.102527
-0.100367
-0.0984214
-0.0966914
-0.0951782
-0.093882
-0.0928027
-0.0919399
-0.0912933
-0.0908625
-0.0906472
-0.151356
-0.153232
-0.153682
-0.15266
-0.15068
-0.148059
-0.144977
-0.141578
-0.137987
-0.1343
-0.130591
-0.126919
-0.12333
-0.119859
-0.116535
-0.113379
-0.110406
-0.107629
-0.105055
-0.10269
-0.100538
-0.0986005
-0.0968794
-0.0953749
-0.0940868
-0.0930148
-0.0921581
-0.0915162
-0.0910886
-0.0908749
-0.156699
-0.157929
-0.157556
-0.155749
-0.153121
-0.149962
-0.146432
-0.142671
-0.13879
-0.134874
-0.130985
-0.127174
-0.123478
-0.119928
-0.116545
-0.113348
-0.110347
-0.107552
-0.104968
-0.102599
-0.100447
-0.0985134
-0.0967975
-0.095299
-0.0940172
-0.0929511
-0.0920996
-0.091462
-0.0910373
-0.0908251
-0.164659
-0.164684
-0.163007
-0.160041
-0.156459
-0.152511
-0.148336
-0.144056
-0.139762
-0.135519
-0.131372
-0.127359
-0.123508
-0.119839
-0.116369
-0.113106
-0.11006
-0.107234
-0.10463
-0.102249
-0.100092
-0.0981576
-0.096444
-0.0949497
-0.093673
-0.0926122
-0.0917656
-0.0911319
-0.0907101
-0.0904993
-0.174959
-0.173249
-0.169803
-0.165329
-0.160516
-0.155556
-0.15056
-0.145626
-0.140813
-0.136157
-0.131687
-0.127422
-0.123377
-0.11956
-0.115978
-0.112634
-0.109528
-0.10666
-0.104029
-0.101633
-0.0994669
-0.0975294
-0.0958168
-0.0943261
-0.0930543
-0.0919987
-0.0911571
-0.0905276
-0.0901088
-0.0898996
-0.187174
-0.183219
-0.17757
-0.171311
-0.165046
-0.158887
-0.152927
-0.147238
-0.141823
-0.136693
-0.131852
-0.1273
-0.123034
-0.119049
-0.11534
-0.111903
-0.10873
-0.105817
-0.103155
-0.10074
-0.098565
-0.0966246
-0.0949135
-0.093427
-0.0921609
-0.0911115
-0.0902757
-0.0896511
-0.0892357
-0.0890283
-0.200683
-0.193985
-0.185827
-0.177621
-0.169729
-0.162235
-0.15523
-0.148713
-0.142649
-0.137011
-0.131776
-0.126918
-0.122418
-0.118256
-0.114416
-0.110883
-0.107643
-0.104683
-0.101993
-0.0995614
-0.0973793
-0.0954383
-0.0937312
-0.0922512
-0.090993
-0.0899516
-0.0891232
-0.0885047
-0.0880936
-0.0878884
-0.214676
-0.204803
-0.194093
-0.18381
-0.174166
-0.165294
-0.157221
-0.14986
-0.143136
-0.136986
-0.131355
-0.126194
-0.121464
-0.11713
-0.113165
-0.109542
-0.106241
-0.103242
-0.100529
-0.0980865
-0.0959027
-0.0939662
-0.0922675
-0.0907982
-0.0895513
-0.088521
-0.0877024
-0.0870916
-0.086686
-0.0864837
-0.228444
-0.214845
-0.201716
-0.18931
-0.177936
-0.167748
-0.158642
-0.150469
-0.143117
-0.136484
-0.130483
-0.125043
-0.120104
-0.115618
-0.111545
-0.107848
-0.1045
-0.101474
-0.0987484
-0.0963055
-0.0941288
-0.0922046
-0.0905212
-0.0890684
-0.0878378
-0.0868226
-0.0860169
-0.0854165
-0.085018
-0.0848193
-0.240246
-0.223699
-0.208049
-0.193583
-0.180659
-0.16928
-0.159234
-0.150337
-0.142432
-0.135378
-0.12906
-0.123384
-0.118275
-0.11367
-0.109516
-0.105771
-0.102396
-0.0993613
-0.0966404
-0.0942108
-0.0920534
-0.0901519
-0.0884926
-0.0870638
-0.0858559
-0.0848609
-0.0840723
-0.0834851
-0.0830957
-0.0829016
-0.249576
-0.230336
-0.212376
-0.196172
-0.181969
-0.169584
-0.158761
-0.149279
-0.140934
-0.133551
-0.126992
-0.121146
-0.115921
-0.111242
-0.107047
-0.103284
-0.0999115
-0.0968923
-0.0941962
-0.0917975
-0.0896743
-0.0878084
-0.0861841
-0.0847885
-0.0836108
-0.0826422
-0.0818754
-0.081305
-0.0809269
-0.0807386
-0.255486
-0.233913
-0.214141
-0.196683
-0.18153
-0.168404
-0.157031
-0.147144
-0.138501
-0.130907
-0.124206
-0.11827
-0.112996
-0.108299
-0.10411
-0.100371
-0.0970334
-0.0940582
-0.0914113
-0.0890641
-0.0869928
-0.0851773
-0.0836006
-0.0822487
-0.0811099
-0.0801745
-0.079435
-0.0788853
-0.0785213
-0.07834
-0.257345
-0.233925
-0.213017
-0.194826
-0.179105
-0.165563
-0.153903
-0.143819
-0.135048
-0.127381
-0.12065
-0.114717
-0.10947
-0.10482
-0.10069
-0.097019
-0.0937556
-0.0908566
-0.088286
-0.0860135
-0.0840137
-0.0822651
-0.0807499
-0.0794533
-0.0783627
-0.0774683
-0.0767619
-0.0762374
-0.0758902
-0.0757173
-0.254623
-0.230123
-0.208835
-0.190435
-0.17457
-0.160968
-0.149303
-0.139246
-0.130528
-0.122936
-0.116296
-0.110466
-0.10533
-0.100795
-0.0967824
-0.0932285
-0.0900797
-0.0872915
-0.0848265
-0.0826534
-0.0807459
-0.0790819
-0.0776429
-0.0764137
-0.0753816
-0.0745361
-0.0738692
-0.0733743
-0.0730469
-0.072884
-0.247158
-0.2225
-0.20157
-0.183488
-0.167921
-0.154616
-0.143225
-0.133419
-0.124938
-0.117572
-0.111146
-0.105521
-0.10058
-0.096231
-0.092395
-0.0890078
-0.0860157
-0.0833738
-0.0810445
-0.0789963
-0.0772026
-0.0756413
-0.0742937
-0.0731446
-0.0721811
-0.071393
-0.0707718
-0.0703113
-0.0700069
-0.0698554
-0.235263
-0.21133
-0.191403
-0.174128
-0.159269
-0.146588
-0.13573
-0.126388
-0.118318
-0.11132
-0.105228
-0.0999052
-0.0952426
-0.0911485
-0.0875472
-0.0843759
-0.0815821
-0.0791217
-0.0769579
-0.0750598
-0.0734013
-0.0719607
-0.0707197
-0.0696632
-0.0687787
-0.0680561
-0.0674871
-0.0670657
-0.0667872
-0.0666487
-0.21956
-0.197106
-0.178694
-0.16263
-0.148826
-0.137044
-0.126944
-0.118251
-0.110747
-0.104246
-0.0985938
-0.0936652
-0.0893566
-0.0855822
-0.0822703
-0.0793612
-0.0768051
-0.0745598
-0.0725902
-0.0708665
-0.0693638
-0.0680613
-0.0669414
-0.0659896
-0.065194
-0.0645448
-0.0640343
-0.0636564
-0.0634069
-0.0632828
-0.200867
-0.180457
-0.163914
-0.149361
-0.136875
-0.126202
-0.117036
-0.109145
-0.102335
-0.0964387
-0.0913194
-0.0868634
-0.0829761
-0.0795788
-0.0766055
-0.0740009
-0.0717184
-0.0697191
-0.0679699
-0.0664431
-0.0651154
-0.0639671
-0.0629819
-0.0621463
-0.0614489
-0.0608806
-0.0604343
-0.0601042
-0.0598864
-0.0597782
-0.180083
-0.162066
-0.147586
-0.134737
-0.123738
-0.114315
-0.10621
-0.0992323
-0.0932131
-0.0880075
-0.0834954
-0.0795766
-0.0761668
-0.0731953
-0.0706028
-0.068339
-0.0663619
-0.0646357
-0.0631304
-0.0618205
-0.0606848
-0.0597054
-0.0588672
-0.0581578
-0.0575671
-0.0570865
-0.0567096
-0.0564312
-0.0562477
-0.0561565
-0.15808
-0.142601
-0.130234
-0.119179
-0.109747
-0.101649
-0.0946817
-0.0886894
-0.0835277
-0.0790735
-0.0752236
-0.0718913
-0.0690028
-0.0664961
-0.0643186
-0.0624258
-0.0607803
-0.0593501
-0.0581084
-0.0570326
-0.0561037
-0.0553056
-0.054625
-0.0540509
-0.053574
-0.0531871
-0.0528842
-0.0526608
-0.0525137
-0.0524406
-0.135622
-0.122653
-0.112342
-0.103082
-0.095221
-0.0884664
-0.0826677
-0.0776959
-0.0734288
-0.0697631
-0.0666116
-0.0638996
-0.0615639
-0.0595506
-0.057814
-0.0563154
-0.0550219
-0.0539058
-0.0529438
-0.0521159
-0.0514057
-0.0507992
-0.050285
-0.0498533
-0.0494964
-0.0492079
-0.0489828
-0.0488172
-0.0487083
-0.0486543
-0.113326
-0.102713
-0.0943235
-0.0867901
-0.0804464
-0.0750098
-0.0703726
-0.0664249
-0.0630637
-0.0602026
-0.0577677
-0.0556956
-0.053932
-0.0524307
-0.0511525
-0.0500642
-0.0491375
-0.0483489
-0.0476781
-0.0471085
-0.046626
-0.046219
-0.0458776
-0.0455941
-0.0453617
-0.0451754
-0.045031
-0.0449253
-0.0448561
-0.0448218
-0.0916505
-0.0831651
-0.0765183
-0.0705924
-0.0656714
-0.0614942
-0.0579817
-0.0550365
-0.0525712
-0.0505126
-0.0487976
-0.0473717
-0.0461885
-0.0452086
-0.0443985
-0.0437299
-0.0431791
-0.0427261
-0.0423543
-0.0420497
-0.0418009
-0.0415984
-0.0414344
-0.0413027
-0.041198
-0.0411164
-0.0410546
-0.0410103
-0.0409816
-0.0409676
-0.0709047
-0.0642861
-0.0591832
-0.0547157
-0.0511006
-0.0481024
-0.0456567
-0.0436741
-0.0420785
-0.040806
-0.0398013
-0.039017
-0.038413
-0.0379555
-0.0376158
-0.0373701
-0.0371986
-0.0370849
-0.0370154
-0.036979
-0.0369668
-0.0369714
-0.0369871
-0.037009
-0.0370336
-0.0370579
-0.0370797
-0.0370974
-0.0371099
-0.0371162
-0.0512771
-0.0462644
-0.0425018
-0.0393317
-0.0368962
-0.0349841
-0.0335346
-0.0324626
-0.0316989
-0.0311851
-0.0308713
-0.0307151
-0.0306811
-0.0307397
-0.0308664
-0.031041
-0.0312473
-0.0314719
-0.0317043
-0.0319359
-0.0321602
-0.032372
-0.0325672
-0.0327428
-0.0328966
-0.0330268
-0.0331322
-0.0332119
-0.0332654
-0.0332922
-0.032874
-0.0292114
-0.0265959
-0.0245643
-0.0231819
-0.0222584
-0.0217288
-0.0215087
-0.0215316
-0.0217419
-0.0220924
-0.0225438
-0.023064
-0.0236264
-0.0242099
-0.0247972
-0.0253751
-0.0259331
-0.0264631
-0.0269592
-0.027417
-0.0278333
-0.0282059
-0.0285334
-0.0288148
-0.0290496
-0.0292375
-0.0293784
-0.0294724
-0.0295194
-0.0157381
-0.0131875
-0.0115438
-0.0104998
-0.0100499
-0.0100192
-0.0103321
-0.0109024
-0.0116629
-0.012558
-0.0135411
-0.0145746
-0.015628
-0.0166771
-0.017703
-0.018691
-0.0196303
-0.0205128
-0.0213329
-0.0220869
-0.0227724
-0.0233882
-0.0239339
-0.0244095
-0.0248153
-0.0251521
-0.0254205
-0.0256212
-0.0257546
-0.0258213
0.000130859
0.00178098
0.0026088
0.00280381
0.002432
0.00166051
0.000579656
-0.000719841
-0.00216775
-0.00370587
-0.0052869
-0.00687317
-0.00843508
-0.00994965
-0.0113996
-0.0127723
-0.014059
-0.0152538
-0.0163532
-0.0173555
-0.0182604
-0.0190684
-0.0197807
-0.0203989
-0.0209246
-0.0213596
-0.0217055
-0.0219636
-0.022135
-0.0222206
0.014753
0.0156875
0.0158374
0.0153077
0.0142129
0.0127225
0.0109439
0.00897363
0.00688803
0.00474936
0.00260703
0.000499676
-0.00154287
-0.00349835
-0.00535066
-0.00708871
-0.00870554
-0.0101971
-0.0115621
-0.0128005
-0.0139138
-0.0149044
-0.015775
-0.0165286
-0.0171681
-0.0176962
-0.0181156
-0.0184282
-0.0186357
-0.0187391
0.0281463
0.0285319
0.0281284
0.0269838
0.0252528
0.0231189
0.0207064
0.0181202
0.0154449
0.0127479
0.0100819
0.00748719
0.00499427
0.00262525
0.000395325
-0.00168558
-0.00361213
-0.00538215
-0.00699594
-0.00845548
-0.00976401
-0.0109255
-0.0119441
-0.0128243
-0.01357
-0.0141851
-0.014673
-0.0150365
-0.0152776
-0.0153978
0.0403139
0.0403115
0.0394713
0.0378071
0.0355155
0.0328052
0.0298169
0.0266661
0.023447
0.0202335
0.017082
0.0140351
0.0111245
0.00837202
0.00579213
0.00339375
0.00118101
-0.000846182
-0.00268963
-0.0043529
-0.00584091
-0.00715944
-0.00831409
-0.00931026
-0.0101534
-0.0108482
-0.0113989
-0.0118089
-0.0120808
-0.0122162
0.0512414
0.0510145
0.049851
0.0477487
0.0449644
0.0417382
0.0382262
0.0345587
0.0308404
0.0271519
0.0235533
0.0200912
0.0167977
0.0136944
0.0107954
0.00810809
0.00563515
0.003375
0.00132411
-0.000523026
-0.00217289
-0.00363262
-0.00490922
-0.00600948
-0.00693992
-0.0077061
-0.00831297
-0.00876451
-0.0090638
-0.00921293
0.0608944
0.0606128
0.0592384
0.0567844
0.0535646
0.049872
0.0458816
0.0417421
0.0375676
0.0334453
0.0294411
0.0256027
0.0219634
0.0185452
0.0153613
0.012417
0.00971319
0.0072474
0.00501403
0.0030055
0.00121377
-0.000369291
-0.00175214
-0.00294304
-0.00394931
-0.00477746
-0.00543302
-0.00592054
-0.00624361
-0.00640457
0.0691986
0.0690808
0.0675998
0.0648983
0.0612625
0.0571352
0.0527111
0.0481455
0.0435606
0.0390503
0.0346854
0.0305147
0.026572
0.0228791
0.0194478
0.0162819
0.0133805
0.0107392
0.00835071
0.00620579
0.00429478
0.00260816
0.0011362
-0.000130387
-0.00119982
-0.00207949
-0.0027755
-0.00329297
-0.00363581
-0.00380659
0.0760231
0.0763691
0.0748807
0.0718807
0.067964
0.0634683
0.0586524
0.0537025
0.0487528
0.0439032
0.0392262
0.0347718
0.0305731
0.0266505
0.0230141
0.0196662
0.0166039
0.0138207
0.0113075
0.00905359
0.00704795
0.00527943
0.00373723
0.00241122
0.0012923
0.000372436
-0.000355156
-0.000895972
-0.0012542
-0.00143261
0.0813789
0.0820677
0.0808076
0.077701
0.0735356
0.0687342
0.063592
0.0583189
0.0530641
0.0479335
0.0430017
0.0383191
0.0339177
0.0298159
0.0260219
0.022536
0.0193532
0.016465
0.0138605
0.0115276
0.00945385
0.00762686
0.00603486
0.00466691
0.0035132
0.00256515
0.0018155
0.00125842
0.000889486
0.000705758
0.0848658
0.086267
0.0852849
0.0821861
0.0778547
0.0728185
0.0674206
0.0618963
0.0564075
0.0510655
0.0459463
0.0410998
0.0365567
0.0323331
0.0284348
0.0248598
0.0216012
0.0186484
0.015989
0.0136096
0.0114964
0.00963603
0.00801598
0.00662468
0.00545176
0.00448825
0.00372658
0.00316068
0.00278595
0.00259936
0.085954
0.0885501
0.0880817
0.0851453
0.0807559
0.0755739
0.0700077
0.0643208
0.0586857
0.0532171
0.0479913
0.0430571
0.038443
0.0341628
0.03022
0.0266104
0.0233251
0.0203518
0.0176769
0.0152856
0.0131634
0.0112963
0.0096711
0.00827592
0.00710009
0.00613441
0.00537116
0.00480415
0.00442872
0.00424178
0.0847051
0.0887452
0.0889959
0.0863752
0.0820482
0.0768291
0.0712046
0.0654666
0.0597946
0.0543035
0.0490683
0.0441359
0.0395326
0.0352702
0.0313499
0.0277658
0.0245072
0.021561
0.0189124
0.0165461
0.014447
0.0126009
0.0109945
0.00961558
0.00845364
0.00749944
0.00674529
0.00618506
0.00581412
0.00562943
0.0812238
0.0867571
0.087853
0.0856782
0.0815352
0.0764026
0.0708528
0.0652021
0.0596288
0.0542424
0.0491139
0.044288
0.0397894
0.0356283
0.0318046
0.0283114
0.0251373
0.0222687
0.0196906
0.0173876
0.015345
0.0135485
0.011985
0.010643
0.00951196
0.00858301
0.00784873
0.0073032
0.00694197
0.0067621
0.0756741
0.082556
0.0845093
0.0828669
0.0790226
0.0741122
0.0687942
0.0633985
0.0580884
0.0529588
0.0480736
0.0434749
0.039187
0.0352199
0.0315736
0.0282415
0.025213
0.0224749
0.0200131
0.017813
0.0158605
0.0141425
0.0126466
0.0113619
0.0102786
0.00938859
0.00868482
0.00816181
0.00781542
0.00764292
0.0682339
0.0761515
0.0788467
0.0777613
0.0743212
0.0697842
0.0648823
0.0599413
0.0550895
0.0503952
0.0459107
0.0416754
0.0377153
0.0340427
0.0306599
0.0275629
0.0247431
0.0221897
0.0198904
0.0178326
0.016004
0.0143929
0.0129885
0.0117811
0.0107621
0.00992422
0.00926122
0.00876824
0.00844161
0.00827893
0.0590115
0.0675444
0.0707613
0.0701965
0.0672616
0.0632717
0.0590014
0.0547472
0.050578
0.0465218
0.0426131
0.0388903
0.0353838
0.0321116
0.0290817
0.0262951
0.0237478
0.0214329
0.0193416
0.0174647
0.0157925
0.0143157
0.0130257
0.0119146
0.0109754
0.010202
0.00958942
0.00913352
0.00883127
0.00868068
0.0479837
0.0566723
0.0601435
0.0600311
0.0577104
0.054474
0.0510877
0.0477842
0.0445478
0.0413507
0.0382059
0.0351523
0.0322291
0.0294647
0.0268767
0.0244745
0.0222614
0.0202366
0.0183966
0.0167367
0.0152511
0.0139339
0.0127793
0.0117819
0.0109365
0.010239
0.00968547
0.00927299
0.00899928
0.00886282
0.034981
0.0433954
0.0468824
0.0471787
0.0456124
0.0433761
0.0411619
0.0390972
0.0370582
0.034949
0.0327585
0.0305301
0.0283174
0.0261641
0.0241025
0.0221539
0.0203319
0.0186442
0.0170945
0.0156839
0.0144118
0.0132765
0.0122758
0.0114071
0.0106679
0.0100559
0.00956901
0.00920542
0.0089638
0.00884325
0.0197225
0.0275307
0.0308973
0.031643
0.0310289
0.0300836
0.029358
0.0288319
0.0282538
0.0274527
0.026396
0.0251371
0.0237502
0.0223006
0.0208396
0.0194048
0.0180228
0.0167121
0.0154854
0.0143511
0.0133146
0.0123795
0.0115475
0.0108198
0.0101967
0.00967807
0.00926378
0.00895346
0.00874678
0.00864353
0.00192724
0.00896125
0.0122328
0.013595
0.014202
0.0148727
0.0159581
0.0172562
0.0183753
0.0190726
0.0193007
0.0191305
0.0186629
0.0179908
0.017189
0.0163146
0.0154101
0.0145067
0.0136275
0.0127894
0.0120049
0.0112832
0.010631
0.0100531
0.00955314
0.00913358
0.00879622
0.00854228
0.00837257
0.00828764
-0.018538
-0.0122401
-0.00885426
-0.00657605
-0.00441512
-0.0017934
0.0014022
0.00476472
0.00776284
0.0100957
0.0117129
0.012711
0.0132243
0.0133772
0.0132717
0.0129867
0.0125825
0.0121045
0.0115873
0.0110571
0.010534
0.0100333
0.00956696
0.00914388
0.00877101
0.00845362
0.00819558
0.00799973
0.00786813
0.00780206
-0.0414673
-0.0356606
-0.0317888
-0.0282015
-0.0241302
-0.019254
-0.0137138
-0.00813168
-0.00315867
0.000870446
0.00391758
0.00611257
0.00762725
0.00862022
0.00922185
0.00953431
0.00963614
0.00958785
0.00943572
0.00921577
0.00895583
0.0086776
0.0083981
0.0081306
0.00788549
0.00767073
0.00749234
0.00735488
0.00726155
0.00721442
-0.0662425
-0.0605227
-0.0556938
-0.0503739
-0.0440646
-0.0367005
-0.0286861
-0.0208452
-0.0139081
-0.00821376
-0.00377111
-0.00041003
0.0020799
0.003891
0.00518166
0.00607642
0.0066718
0.00704238
0.00724637
0.00732919
0.00732616
0.00726512
0.00716819
0.0070528
0.00693256
0.0068181
0.00671767
0.00663734
0.00658145
0.00655285
-0.0917938
-0.0856778
-0.0794062
-0.07198
-0.0631954
-0.0532304
-0.0427571
-0.0327569
-0.0239887
-0.0167596
-0.011035
-0.00660018
-0.00320895
-0.000639011
0.00129291
0.00273154
0.00378902
0.00455298
0.00509219
0.00546033
0.00569996
0.00584445
0.00592058
0.00594945
0.00594784
0.00592882
0.00590256
0.00587661
0.0058564
0.00584547
-0.116769
-0.10976
-0.101621
-0.0918336
-0.0804632
-0.0679435
-0.0551952
-0.0432862
-0.032939
-0.024401
-0.0175795
-0.0122199
-0.00804614
-0.00481119
-0.00231256
-0.000390612
0.00108008
0.002198
0.00304033
0.00366755
0.00412785
0.0044602
0.00469506
0.0048565
0.00496415
0.00503323
0.00507545
0.00509984
0.00511267
0.00511807
-0.13958
-0.131222
-0.120939
-0.108716
-0.0948266
-0.0800217
-0.0653759
-0.0519516
-0.0403779
-0.0308289
-0.0231518
-0.0170628
-0.0122616
-0.00848399
-0.00551708
-0.0031908
-0.00136993
5.02414e-05
0.0011534
0.00200532
0.00265804
0.0031552
0.00353001
0.0038089
0.00401336
0.00416088
0.00426438
0.00433377
0.00437616
0.00439627
-0.158625
-0.14854
-0.136072
-0.121582
-0.10544
-0.088847
-0.0728528
-0.0584054
-0.046033
-0.0358262
-0.0275796
-0.0209831
-0.0157314
-0.0115563
-0.00823682
-0.00559747
-0.00350047
-0.00183758
-0.000522614
0.000513727
0.001327
0.00196175
0.00245371
0.00283209
0.00311948
0.00333403
0.00349002
0.00359817
0.00366622
0.00369912
-0.172273
-0.160362
-0.145974
-0.129794
-0.111675
-0.093998
-0.0772941
-0.0624106
-0.0497271
-0.0392538
-0.0307463
-0.0238891
-0.0183796
-0.0139582
-0.010407
-0.00755311
-0.00526073
-0.003421
-0.00194781
-0.000771063
0.000166677
0.000909368
0.00149442
0.0019524
0.00230676
0.00257585
0.00277466
0.00291461
0.00300372
0.00304704
-0.179308
-0.165897
-0.150008
-0.132342
-0.113761
-0.0955823
-0.0787822
-0.0640077
-0.0514843
-0.0411173
-0.0326446
-0.025761
-0.0201825
-0.0156643
-0.0120029
-0.00903453
-0.0066288
-0.00467997
-0.00310408
-0.00183236
-0.000808706
1.12053e-05
0.000664483
0.00118134
0.00158567
0.00189611
0.00212779
0.00229218
0.00239745
0.00244885
-0.179357
-0.164792
-0.148104
-0.129965
-0.111457
-0.0936793
-0.0774938
-0.0633718
-0.0514153
-0.0414781
-0.0333012
-0.0266055
-0.0211323
-0.0166606
-0.0130067
-0.010021
-0.00758194
-0.00559094
-0.00396791
-0.00264754
-0.00157644
-0.000711059
-1.57376e-05
0.000538646
0.000975493
0.00131354
0.00156751
0.00174865
0.00186505
0.00192193
-0.172615
-0.157651
-0.140941
-0.123243
-0.105583
-0.0889212
-0.0739093
-0.060857
-0.0497844
-0.0405305
-0.032859
-0.0265254
-0.0213047
-0.0170042
-0.0134626
-0.010547
-0.00814798
-0.00617599
-0.00455736
-0.00323158
-0.00214886
-0.00126817
-0.000555892
1.55595e-05
0.000468516
0.000820979
0.00108708
0.00127762
0.00140044
0.00146069
-0.160223
-0.145541
-0.129629
-0.11314
-0.0969925
-0.0819561
-0.0684923
-0.0567903
-0.0468233
-0.038437
-0.0314295
-0.0255958
-0.0207478
-0.0167231
-0.0133842
-0.0106161
-0.0083234
-0.00642684
-0.00486063
-0.0035702
-0.00251029
-0.00164336
-0.000938434
-0.000370017
8.26818e-05
0.000436446
0.000704522
0.000897071
0.00102145
0.00108234
-0.143759
-0.13006
-0.115594
-0.100864
-0.0866589
-0.0735459
-0.061834
-0.051633
-0.0428952
-0.0354874
-0.0292465
-0.0240073
-0.0196186
-0.0159474
-0.0128801
-0.0103203
-0.00818684
-0.00641146
-0.00493703
-0.00371564
-0.00270722
-0.00187832
-0.00120115
-0.000652692
-0.000214102
0.000129891
0.000391399
0.000579721
0.00070162
0.000761672
-0.124755
-0.112576
-0.0999907
-0.0873418
-0.0752862
-0.0642082
-0.0543118
-0.0456583
-0.0381968
-0.0318217
-0.0264069
-0.0218247
-0.0179569
-0.0146984
-0.0119578
-0.00965646
-0.00772731
-0.00611329
-0.00476602
-0.00364458
-0.00271445
-0.00194662
-0.0013168
-0.000804788
-0.000393949
-7.07519e-05
0.000175567
0.000353307
0.00046849
0.000524841
-0.104908
-0.0945473
-0.0840334
-0.0735708
-0.0636796
-0.0546012
-0.046473
-0.039328
-0.0331229
-0.0277795
-0.0232043
-0.0193024
-0.0159845
-0.0131701
-0.0107877
-0.00877524
-0.00707877
-0.00565196
-0.00445508
-0.00345417
-0.00262037
-0.00192922
-0.00136012
-0.000895819
-0.00052206
-0.000227188
-1.89401e-06
0.000161007
0.000266788
0.000319208
-0.0851131
-0.0767028
-0.0682721
-0.0599395
-0.0521026
-0.0449022
-0.0384345
-0.0327161
-0.0277152
-0.0233768
-0.0196346
-0.0164202
-0.0136687
-0.0113201
-0.0093205
-0.00762226
-0.00618352
-0.00496784
-0.00394361
-0.00308361
-0.00236448
-0.00176627
-0.00127209
-0.000867726
-0.000541343
-0.000283255
-8.57005e-05
5.73352e-05
0.000150197
0.000195336
-0.0665101
-0.0599897
-0.0535176
-0.0471539
-0.0411838
-0.0356836
-0.0307226
-0.0263088
-0.0224216
-0.0190245
-0.016073
-0.0135201
-0.0113202
-0.00943079
-0.00781274
-0.00643099
-0.00525433
-0.00425525
-0.00340966
-0.00269659
-0.00209789
-0.00159797
-0.00118352
-0.000843295
-0.000567873
-0.000349507
-0.000181965
-6.04203e-05
1.87485e-05
5.8484e-05
-0.0490254
-0.0442853
-0.0395948
-0.0349983
-0.0306913
-0.0267116
-0.023108
-0.0198834
-0.0170261
-0.0145133
-0.0123162
-0.0104045
-0.00874786
-0.00731738
-0.00608626
-0.00503005
-0.00412672
-0.00335661
-0.00270236
-0.00214869
-0.00168232
-0.00129171
-0.000966994
-0.000699755
-0.000482934
-0.0003107
-0.00017836
-8.2271e-05
-1.99288e-05
9.59274e-06
-0.0335402
-0.0303702
-0.0272548
-0.0242088
-0.0213513
-0.0186974
-0.0162805
-0.0141023
-0.0121578
-0.0104351
-0.00891776
-0.00758818
-0.00642816
-0.00542003
-0.00454702
-0.0037936
-0.00314558
-0.00259013
-0.00211578
-0.00171236
-0.00137094
-0.0010837
-0.000843917
-0.000645812
-0.000484514
-0.000355971
-0.000256891
-0.00018472
-0.00013739
-0.000112584
-0.0190605
-0.0173121
-0.0155812
-0.0138918
-0.0123076
-0.010829
-0.00947683
-0.00825049
-0.0071491
-0.0061671
-0.00529686
-0.00452976
-0.0038567
-0.00326863
-0.00275679
-0.00231295
-0.00192947
-0.00159935
-0.0013163
-0.00107466
-0.000869422
-0.000696181
-0.000551111
-0.00043092
-0.000332815
-0.000254465
-0.000193949
-0.000149787
-0.000121351
-0.000109421
-0.00677513
-0.00624217
-0.00573782
-0.00523206
-0.00474202
-0.00426481
-0.00381542
-0.00339503
-0.00300776
-0.00265427
-0.00233433
-0.00204677
-0.00178983
-0.00156145
-0.00135938
-0.00118137
-0.00102519
-0.000888734
-0.000770037
-0.000667287
-0.000578839
-0.000503223
-0.000439137
-0.000385444
-0.00034117
-0.000305496
-0.000277731
-0.000257173
-0.000242673
-0.000232484
-0.170854
-0.16193
-0.15468
-0.149597
-0.147119
-0.147315
-0.150357
-0.15638
-0.16524
-0.176652
-0.19017
-0.205107
-0.220562
-0.235925
-0.249676
-0.261622
-0.268962
-0.271831
-0.269923
-0.262861
-0.25088
-0.234612
-0.214947
-0.192895
-0.169445
-0.145474
-0.121693
-0.0986315
-0.0766521
-0.0559758
-0.0367154
-0.0189053
-0.00253224
0.0124385
0.0260411
0.0382917
0.0491701
0.0585988
0.0664304
0.0725077
0.0766808
0.0784621
0.078302
0.0755153
0.0707088
0.0641707
0.0561445
0.0467677
0.0360107
0.023671
0.00940093
-0.00718604
-0.0263714
-0.0481109
-0.0719395
-0.0968819
-0.121633
-0.144583
-0.164099
-0.178455
-0.186352
-0.187144
-0.181134
-0.168956
-0.152298
-0.132637
-0.11188
-0.0909082
-0.0711621
-0.0524106
-0.0359179
-0.0202823
-0.00727381
-0.178557
-0.168031
-0.158854
-0.151685
-0.146979
-0.144966
-0.145832
-0.149909
-0.1572
-0.167511
-0.18054
-0.195768
-0.21248
-0.229731
-0.246503
-0.26136
-0.27338
-0.28114
-0.284417
-0.282175
-0.274217
-0.260913
-0.243051
-0.221693
-0.197999
-0.173068
-0.147834
-0.123025
-0.0991643
-0.076592
-0.0555023
-0.035979
-0.0180311
-0.00162464
0.0132899
0.0267546
0.0387784
0.0493096
0.0582181
0.0653121
0.0704161
0.0733811
0.073979
0.0726104
0.0686401
0.0629623
0.0558499
0.0475345
0.038131
0.0275841
0.0156622
0.00197786
-0.0139145
-0.0323758
-0.0534481
-0.0767394
-0.101314
-0.125875
-0.148796
-0.168422
-0.183029
-0.191311
-0.192437
-0.186491
-0.174248
-0.157352
-0.137253
-0.115942
-0.0942959
-0.0738862
-0.0544104
-0.0373141
-0.0210016
-0.00753057
-0.176483
-0.165564
-0.156096
-0.148909
-0.144454
-0.142942
-0.144631
-0.149702
-0.158119
-0.169671
-0.184031
-0.200634
-0.218708
-0.237241
-0.255073
-0.27093
-0.284508
-0.293088
-0.296313
-0.29356
-0.284616
-0.269903
-0.250343
-0.22718
-0.201753
-0.175293
-0.148804
-0.123035
-0.0984913
-0.0754787
-0.0541497
-0.034549
-0.0166533
-0.000404827
0.0142609
0.0273872
0.0389661
0.0489118
0.057056
0.0631843
0.0671124
0.0687104
0.068017
0.0656157
0.0603772
0.0539514
0.0464245
0.0379822
0.028703
0.0185035
0.00713179
-0.00582407
-0.0208571
-0.0384046
-0.0586054
-0.0811577
-0.105185
-0.12941
-0.152194
-0.171862
-0.18667
-0.195242
-0.196561
-0.190798
-0.178566
-0.161492
-0.141049
-0.119284
-0.0971118
-0.0761463
-0.056109
-0.0384717
-0.0216426
-0.00769684
-0.174728
-0.163008
-0.15336
-0.146284
-0.142171
-0.141197
-0.143625
-0.149594
-0.159053
-0.17178
-0.187414
-0.205357
-0.224797
-0.244704
-0.26395
-0.282381
-0.295111
-0.304293
-0.307596
-0.30457
-0.294918
-0.279063
-0.258039
-0.233257
-0.206232
-0.178334
-0.15065
-0.123955
-0.0987466
-0.0753016
-0.0537364
-0.0340614
-0.0162245
-0.000146937
0.0142458
0.0269919
0.0380586
0.047322
0.0545772
0.0595953
0.0622106
0.0623863
0.0603608
0.0568891
0.0506871
0.043806
0.0361268
0.0277859
0.0188167
0.0091071
-0.00160742
-0.01375
-0.0278446
-0.0443896
-0.0636121
-0.0852969
-0.108632
-0.132364
-0.154852
-0.174407
-0.18927
-0.198028
-0.199517
-0.194074
-0.181976
-0.164875
-0.144245
-0.122166
-0.0995902
-0.0781659
-0.0576548
-0.0395297
-0.0222517
-0.00782893
-0.171845
-0.161139
-0.151013
-0.144045
-0.140301
-0.139851
-0.142959
-0.14975
-0.160155
-0.173939
-0.190716
-0.209859
-0.230517
-0.251655
-0.272048
-0.290598
-0.304744
-0.314769
-0.318319
-0.315145
-0.30492
-0.288068
-0.265712
-0.23942
-0.210884
-0.181619
-0.1528
-0.125238
-0.0994225
-0.0756007
-0.0538537
-0.0341584
-0.0164356
-0.000589158
0.0134598
0.0257347
0.0361696
0.0445987
0.0507882
0.0545193
0.0556968
0.0544351
0.0510441
0.0456978
0.0398301
0.0328552
0.0252864
0.0172577
0.00875606
-0.000352984
-0.0103345
-0.0216051
-0.0347006
-0.0501646
-0.0683059
-0.0889994
-0.111507
-0.134613
-0.15668
-0.176008
-0.190828
-0.199712
-0.201495
-0.196315
-0.184425
-0.167433
-0.146772
-0.124534
-0.101687
-0.0799167
-0.059022
-0.040477
-0.0228076
-0.00793301
-0.184862
-0.170817
-0.157943
-0.149276
-0.142508
-0.139101
-0.139138
-0.142842
-0.150329
-0.161526
-0.176201
-0.193946
-0.214116
-0.235834
-0.25803
-0.2794
-0.298457
-0.31355
-0.324353
-0.328179
-0.324922
-0.314243
-0.296545
-0.273014
-0.245353
-0.21542
-0.184881
-0.155013
-0.126665
-0.100324
-0.0762091
-0.0543664
-0.0347385
-0.0172208
-0.00170253
0.0118926
0.0235646
0.0332084
0.0406207
0.0455588
0.047855
0.0475457
0.0449083
0.0403928
0.0342971
0.028248
0.0214121
0.0141948
0.0066702
-0.00122341
-0.00963745
-0.0188274
-0.0291892
-0.0412523
-0.0555878
-0.0725753
-0.092178
-0.113741
-0.136094
-0.157619
-0.176614
-0.191303
-0.200265
-0.202339
-0.197442
-0.185834
-0.169076
-0.148532
-0.126288
-0.103314
-0.0813232
-0.0601532
-0.0412717
-0.0232845
-0.00800528
-0.18387
-0.169787
-0.157739
-0.14865
-0.141944
-0.138843
-0.139287
-0.143462
-0.151484
-0.16329
-0.178651
-0.197151
-0.218137
-0.240715
-0.263778
-0.285975
-0.305835
-0.321533
-0.332835
-0.336916
-0.333633
-0.322628
-0.304268
-0.27977
-0.250942
-0.219792
-0.188131
-0.157339
-0.128315
-0.101548
-0.0772353
-0.0553893
-0.0359217
-0.0187046
-0.00361799
0.00940365
0.0203295
0.0290148
0.0352309
0.0387589
0.0395367
0.037779
0.0339362
0.0286306
0.0223021
0.0162126
0.0097534
0.00310672
-0.00374261
-0.0109043
-0.0185421
-0.0268947
-0.0363257
-0.0473415
-0.0605222
-0.0763045
-0.0947369
-0.115254
-0.136743
-0.157617
-0.176181
-0.19066
-0.199644
-0.201962
-0.197398
-0.186157
-0.169752
-0.149469
-0.127374
-0.104421
-0.0823437
-0.0610165
-0.0418919
-0.0236709
-0.0080465
-0.184044
-0.169967
-0.157997
-0.148952
-0.142551
-0.139758
-0.140503
-0.144993
-0.153358
-0.16555
-0.181353
-0.200358
-0.221912
-0.245113
-0.268826
-0.291689
-0.312279
-0.329872
-0.34003
-0.344305
-0.341051
-0.329839
-0.311007
-0.28578
-0.256035
-0.223901
-0.19132
-0.159774
-0.130216
-0.103147
-0.0787472
-0.0570013
-0.0377942
-0.0209801
-0.0064373
0.00588062
0.0159073
0.0234635
0.028318
0.030322
0.0295784
0.0264915
0.0217206
0.0159885
0.00976099
0.0039486
-0.0018984
-0.00778079
-0.0138044
-0.0201233
-0.0269102
-0.0343839
-0.0428684
-0.0528331
-0.0648496
-0.0793954
-0.096598
-0.115986
-0.136514
-0.156638
-0.174681
-0.18888
-0.197833
-0.20036
-0.196177
-0.185372
-0.169437