/*--------------------------------*- C++ -*----------------------------------*\
  =========                 |
  \\      /  F ield         | OpenFOAM: The Open Source CFD Toolbox
   \\    /   O peration     | Website:  https://openfoam.org
    \\  /    A nd           | Version:  7
     \\/     M anipulation  |
\*---------------------------------------------------------------------------*/
FoamFile
{
    version     2.0;
    format      ascii;
    class       volVectorField;
    location    "90";
    object      U;
}
// * * * * * * * * * * * * * * * * * * * * * * * * * * * * * * * * * * * * * //

dimensions      [0 1 -1 0 0 0 0];

internalField   nonuniform List<vector> 
3700
(
(1.20195 -0.0407458 0)
(1.24134 -0.0454688 0)
(1.25709 -0.0485568 0)
(1.26199 -0.0495337 0)
(1.26222 -0.0492293 0)
(1.2603 -0.0482547 0)
(1.25726 -0.0468618 0)
(1.25365 -0.0451765 0)
(1.24978 -0.0432904 0)
(1.24581 -0.0412723 0)
(1.24181 -0.0391709 0)
(1.23783 -0.0370204 0)
(1.23389 -0.0348448 0)
(1.23 -0.0326622 0)
(1.22622 -0.0304863 0)
(1.22255 -0.028327 0)
(1.21904 -0.0261915 0)
(1.21572 -0.0240846 0)
(1.21259 -0.0220087 0)
(1.20968 -0.019965 0)
(1.207 -0.0179534 0)
(1.20456 -0.0159725 0)
(1.20238 -0.0140206 0)
(1.20045 -0.0120952 0)
(1.19879 -0.0101933 0)
(1.1974 -0.00831171 0)
(1.19629 -0.00644729 0)
(1.19545 -0.00459563 0)
(1.19489 -0.0027522 0)
(1.19462 -0.000919478 0)
(1.19198 -0.0430279 0)
(1.2365 -0.0470965 0)
(1.25548 -0.049059 0)
(1.26214 -0.0490157 0)
(1.26332 -0.0478685 0)
(1.26195 -0.0462209 0)
(1.25925 -0.0443112 0)
(1.25586 -0.0422468 0)
(1.25213 -0.0400966 0)
(1.24823 -0.0379101 0)
(1.24427 -0.0357201 0)
(1.2403 -0.0335471 0)
(1.23635 -0.0314033 0)
(1.23244 -0.0292966 0)
(1.22862 -0.0272322 0)
(1.22492 -0.0252131 0)
(1.22137 -0.0232405 0)
(1.218 -0.021314 0)
(1.21483 -0.0194324 0)
(1.21187 -0.0175934 0)
(1.20915 -0.0157944 0)
(1.20668 -0.0140319 0)
(1.20446 -0.0123026 0)
(1.20251 -0.0106027 0)
(1.20082 -0.00892825 0)
(1.19941 -0.00727548 0)
(1.19828 -0.00564064 0)
(1.19743 -0.00401915 0)
(1.19686 -0.00240651 0)
(1.19658 -0.000803424 0)
(1.1838 -0.0465962 0)
(1.23312 -0.0496803 0)
(1.25514 -0.050277 0)
(1.26338 -0.0490466 0)
(1.26531 -0.0469064 0)
(1.26428 -0.0444617 0)
(1.26176 -0.0419426 0)
(1.25844 -0.0394283 0)
(1.25471 -0.03696 0)
(1.25079 -0.0345655 0)
(1.24679 -0.0322589 0)
(1.24275 -0.0300437 0)
(1.23873 -0.0279182 0)
(1.23476 -0.0258789 0)
(1.23087 -0.0239213 0)
(1.22711 -0.0220403 0)
(1.22349 -0.0202305 0)
(1.22006 -0.0184862 0)
(1.21683 -0.0168015 0)
(1.21383 -0.0151708 0)
(1.21106 -0.0135884 0)
(1.20855 -0.0120488 0)
(1.20629 -0.0105468 0)
(1.2043 -0.0090773 0)
(1.20259 -0.00763541 0)
(1.20116 -0.00621652 0)
(1.20001 -0.00481634 0)
(1.19914 -0.0034301 0)
(1.19856 -0.00205321 0)
(1.19828 -0.000685074 0)
(1.17773 -0.0508942 0)
(1.23152 -0.0526174 0)
(1.25635 -0.0517818 0)
(1.26594 -0.049257 0)
(1.26836 -0.0460209 0)
(1.26744 -0.0427151 0)
(1.26488 -0.0395427 0)
(1.26146 -0.0365454 0)
(1.2576 -0.0337369 0)
(1.25353 -0.0311217 0)
(1.24938 -0.028692 0)
(1.24521 -0.0264328 0)
(1.24107 -0.0243272 0)
(1.23697 -0.0223591 0)
(1.23298 -0.0205138 0)
(1.22911 -0.0187774 0)
(1.22541 -0.0171374 0)
(1.2219 -0.0155824 0)
(1.2186 -0.0141019 0)
(1.21553 -0.0126866 0)
(1.21271 -0.0113279 0)
(1.21015 -0.0100179 0)
(1.20785 -0.00874964 0)
(1.20583 -0.0075167 0)
(1.20409 -0.00631325 0)
(1.20263 -0.00513391 0)
(1.20146 -0.0039739 0)
(1.20058 -0.00282822 0)
(1.19999 -0.00169222 0)
(1.1997 -0.000564341 0)
(1.17375 -0.0552137 0)
(1.23182 -0.0554182 0)
(1.25925 -0.0531305 0)
(1.26991 -0.0492256 0)
(1.27255 -0.044862 0)
(1.2715 -0.040695 0)
(1.26868 -0.0368732 0)
(1.26496 -0.0334012 0)
(1.26081 -0.0302667 0)
(1.25647 -0.0274482 0)
(1.25207 -0.0249139 0)
(1.24768 -0.0226292 0)
(1.24334 -0.0205619 0)
(1.23908 -0.0186831 0)
(1.23493 -0.0169668 0)
(1.23094 -0.0153907 0)
(1.22712 -0.0139351 0)
(1.22351 -0.0125826 0)
(1.22013 -0.0113186 0)
(1.21698 -0.0101297 0)
(1.2141 -0.00900458 0)
(1.21148 -0.00793326 0)
(1.20914 -0.00690701 0)
(1.20708 -0.00591819 0)
(1.20531 -0.00496005 0)
(1.20383 -0.00402664 0)
(1.20264 -0.00311272 0)
(1.20174 -0.0022132 0)
(1.20115 -0.00132341 0)
(1.20085 -0.000441138 0)
(1.17216 -0.0590927 0)
(1.2342 -0.0577261 0)
(1.26386 -0.0538561 0)
(1.27527 -0.048529 0)
(1.27785 -0.0430831 0)
(1.27641 -0.0381094 0)
(1.2731 -0.0336888 0)
(1.2689 -0.0297938 0)
(1.26431 -0.026385 0)
(1.25957 -0.0234117 0)
(1.25483 -0.020817 0)
(1.25013 -0.0185471 0)
(1.24553 -0.0165542 0)
(1.24105 -0.0147966 0)
(1.23671 -0.0132381 0)
(1.23255 -0.0118474 0)
(1.2286 -0.0105982 0)
(1.22487 -0.00946795 0)
(1.22139 -0.00843723 0)
(1.21817 -0.00748965 0)
(1.21521 -0.0066112 0)
(1.21254 -0.0057899 0)
(1.21015 -0.00501561 0)
(1.20805 -0.00427964 0)
(1.20624 -0.00357459 0)
(1.20474 -0.00289405 0)
(1.20353 -0.00223253 0)
(1.20262 -0.00158494 0)
(1.20202 -0.000946771 0)
(1.20172 -0.000315423 0)
(1.17345 -0.0620109 0)
(1.23879 -0.0589496 0)
(1.27017 -0.0534219 0)
(1.28196 -0.0467371 0)
(1.28419 -0.0403303 0)
(1.28209 -0.0346614 0)
(1.27808 -0.0297454 0)
(1.27321 -0.0255259 0)
(1.26802 -0.0219328 0)
(1.26277 -0.0188843 0)
(1.25758 -0.0162993 0)
(1.25251 -0.0141054 0)
(1.24759 -0.0122405 0)
(1.24284 -0.0106505 0)
(1.23828 -0.00928941 0)
(1.23393 -0.00811855 0)
(1.22982 -0.00710539 0)
(1.22597 -0.00622229 0)
(1.22237 -0.0054465 0)
(1.21906 -0.00475863 0)
(1.21603 -0.00414245 0)
(1.2133 -0.00358455 0)
(1.21086 -0.00307362 0)
(1.20872 -0.00260031 0)
(1.20689 -0.00215673 0)
(1.20536 -0.00173638 0)
(1.20413 -0.00133371 0)
(1.20321 -0.000943826 0)
(1.2026 -0.000562566 0)
(1.20229 -0.00018729 0)
(1.17783 -0.0632729 0)
(1.24559 -0.058387 0)
(1.27807 -0.051258 0)
(1.28984 -0.0434057 0)
(1.29139 -0.0362418 0)
(1.28838 -0.0300574 0)
(1.28344 -0.024809 0)
(1.27774 -0.0204116 0)
(1.27182 -0.016763 0)
(1.26595 -0.0137505 0)
(1.26024 -0.0112702 0)
(1.25473 -0.00923413 0)
(1.24945 -0.0075668 0)
(1.24439 -0.00620369 0)
(1.23958 -0.00509046 0)
(1.23503 -0.00418188 0)
(1.23075 -0.0034404 0)
(1.22676 -0.00283487 0)
(1.22305 -0.00233936 0)
(1.21965 -0.0019324 0)
(1.21655 -0.00159635 0)
(1.21375 -0.00131669 0)
(1.21127 -0.00108153 0)
(1.20909 -0.000881193 0)
(1.20723 -0.000707862 0)
(1.20568 -0.00055504 0)
(1.20443 -0.000417528 0)
(1.2035 -0.000290885 0)
(1.20288 -0.000171442 0)
(1.20257 -5.68956e-05 0)
(1.18539 -0.0621831 0)
(1.25446 -0.0554041 0)
(1.28734 -0.0468443 0)
(1.29863 -0.0381217 0)
(1.2992 -0.0304817 0)
(1.29504 -0.0240318 0)
(1.28899 -0.0186719 0)
(1.28231 -0.0142908 0)
(1.27557 -0.0107522 0)
(1.269 -0.00791483 0)
(1.2627 -0.00565743 0)
(1.25671 -0.00387903 0)
(1.25103 -0.00249311 0)
(1.24565 -0.00142717 0)
(1.24057 -0.000620884 0)
(1.23581 -2.36866e-05 0)
(1.23135 0.000405182 0)
(1.22722 0.000698954 0)
(1.2234 0.000885974 0)
(1.21991 0.000988708 0)
(1.21674 0.00102543 0)
(1.21389 0.0010111 0)
(1.21136 0.000957586 0)
(1.20915 0.000874381 0)
(1.20726 0.000768885 0)
(1.20569 0.000647139 0)
(1.20443 0.000513659 0)
(1.20349 0.000372148 0)
(1.20287 0.00022549 0)
(1.20256 7.53534e-05 0)
(1.19606 -0.0581312 0)
(1.26519 -0.0494599 0)
(1.29767 -0.0397496 0)
(1.30801 -0.0305342 0)
(1.30729 -0.0227749 0)
(1.30177 -0.0163687 0)
(1.29447 -0.0111706 0)
(1.28671 -0.00704169 0)
(1.27906 -0.00380898 0)
(1.27174 -0.00130977 0)
(1.26482 0.000588055 0)
(1.25833 0.00199422 0)
(1.25223 0.00300334 0)
(1.24652 0.00369323 0)
(1.24118 0.00412746 0)
(1.2362 0.00435897 0)
(1.23157 0.0044304 0)
(1.2273 0.00437607 0)
(1.22338 0.00422471 0)
(1.21981 0.00399884 0)
(1.21657 0.00371653 0)
(1.21368 0.00339232 0)
(1.21111 0.0030374 0)
(1.20888 0.00266053 0)
(1.20697 0.00226828 0)
(1.20539 0.00186569 0)
(1.20412 0.00145627 0)
(1.20317 0.00104267 0)
(1.20255 0.000626646 0)
(1.20223 0.000208927 0)
(1.2096 -0.0504438 0)
(1.2775 -0.0400228 0)
(1.30862 -0.0295577 0)
(1.31752 -0.020354 0)
(1.31524 -0.0129125 0)
(1.3082 -0.00691316 0)
(1.29956 -0.00219853 0)
(1.29067 0.00141056 0)
(1.28208 0.00412043 0)
(1.27399 0.00609811 0)
(1.26646 0.00748383 0)
(1.25946 0.0083935 0)
(1.25296 0.00892386 0)
(1.24693 0.00915357 0)
(1.24133 0.00914683 0)
(1.23615 0.00895631 0)
(1.23137 0.0086243 0)
(1.22698 0.00818457 0)
(1.22297 0.00766467 0)
(1.21933 0.007086 0)
(1.21605 0.00646546 0)
(1.21311 0.00581623 0)
(1.21053 0.00514817 0)
(1.20828 0.00446864 0)
(1.20636 0.00378286 0)
(1.20476 0.00309441 0)
(1.2035 0.00240544 0)
(1.20255 0.00171717 0)
(1.20192 0.00102992 0)
(1.2016 0.000343145 0)
(1.22563 -0.0384013 0)
(1.29065 -0.0266403 0)
(1.31955 -0.0159473 0)
(1.32662 -0.00744505 0)
(1.32257 -0.000780637 0)
(1.31392 0.00440699 0)
(1.30391 0.00828241 0)
(1.2939 0.0110831 0)
(1.2844 0.0130328 0)
(1.27557 0.0142968 0)
(1.26744 0.0150136 0)
(1.25997 0.015299 0)
(1.2531 0.015246 0)
(1.24678 0.0149304 0)
(1.24096 0.0144134 0)
(1.23561 0.0137449 0)
(1.2307 0.0129644 0)
(1.22621 0.0121031 0)
(1.22213 0.0111859 0)
(1.21844 0.0102318 0)
(1.21513 0.00925543 0)
(1.21218 0.00826777 0)
(1.20958 0.00727656 0)
(1.20733 0.00628715 0)
(1.20541 0.00530283 0)
(1.20382 0.0043253 0)
(1.20255 0.00335495 0)
(1.20161 0.0023912 0)
(1.20098 0.00143264 0)
(1.20067 0.000477127 0)
(1.24341 -0.0217268 -2.94127e-11)
(1.30374 -0.00900525 -2.78861e-11)
(1.3299 0.000950435 0)
(1.33472 0.00815347 -2.47943e-11)
(1.32871 0.0136201 -2.33976e-11)
(1.31847 0.0175477 -6.37907e-28)
(1.30717 0.0202119 2.09894e-11)
(1.2961 0.0219185 1.99572e-11)
(1.28576 0.0228728 0)
(1.27627 0.0232304 0)
(1.26762 0.0231239 0)
(1.25974 0.0226596 0)
(1.25255 0.0219219 0)
(1.24599 0.0209791 0)
(1.23999 0.0198862 0)
(1.23451 0.0186872 0)
(1.22951 0.0174163 0)
(1.22496 0.0161005 0)
(1.22084 0.0147603 0)
(1.21713 0.0134111 0)
(1.21381 0.0120642 1.26278e-11)
(1.21086 0.0107273 2.47425e-11)
(1.20827 0.00940554 1.21465e-11)
(1.20603 0.0081015 0)
(1.20412 0.00681603 -1.17877e-11)
(1.20255 0.00554853 -1.16518e-11)
(1.20129 0.00429721 0)
(1.20036 0.00305937 -1.14634e-11)
(1.19974 0.00183159 -1.14099e-11)
(1.19943 0.000609803 -3.2842e-28)
(1.26164 -0.000649942 2.94164e-11)
(1.31633 0.0126906 2.78861e-11)
(1.33897 0.0208811 0)
(1.34109 0.0264401 2.47943e-11)
(1.33312 0.0301385 2.33976e-11)
(1.32141 0.0323289 6.37907e-28)
(1.30895 0.0334483 -2.09894e-11)
(1.29698 0.0337881 -1.99572e-11)
(1.28593 0.0335221 0)
(1.27589 0.0327942 0)
(1.26682 0.0317213 0)
(1.25863 0.0303921 0)
(1.25121 0.0288773 0)
(1.24447 0.0272338 0)
(1.23836 0.0255066 0)
(1.2328 0.0237309 0)
(1.22776 0.0219339 0)
(1.22319 0.0201358 0)
(1.21908 0.0183518 0)
(1.21538 0.0165922 0)
(1.21208 0.014864 -1.26278e-11)
(1.20915 0.0131709 -2.47425e-11)
(1.20659 0.0115145 -1.21465e-11)
(1.20438 0.00989427 0)
(1.2025 0.00830804 1.17877e-11)
(1.20095 0.0067525 1.16518e-11)
(1.19972 0.00522331 0)
(1.1988 0.00371541 1.14634e-11)
(1.19819 0.00222302 1.14099e-11)
(1.19789 0.000739929 3.2842e-28)
(1.27895 0.0257498 0)
(1.32745 0.0380521 0)
(1.34574 0.0438757 0)
(1.34504 0.0470906 0)
(1.33528 0.0484229 0)
(1.32231 0.048485 0)
(1.30892 0.0477633 0)
(1.29625 0.0464864 0)
(1.28469 0.0448032 0)
(1.27427 0.0428362 0)
(1.26492 0.0406739 0)
(1.25653 0.038382 0)
(1.24898 0.0360129 0)
(1.24217 0.033608 0)
(1.23601 0.0311993 0)
(1.23045 0.0288106 0)
(1.22542 0.0264599 0)
(1.22089 0.0241593 0)
(1.21681 0.0219171 0)
(1.21316 0.0197375 0)
(1.20992 0.0176223 0)
(1.20705 0.0155706 0)
(1.20454 0.0135797 0)
(1.20238 0.0116454 0)
(1.20055 0.00976234 0)
(1.19903 0.00792398 0)
(1.19784 0.00612318 0)
(1.19694 0.00435218 0)
(1.19635 0.0026027 0)
(1.19606 0.000866101 0)
(1.29396 0.0569226 0)
(1.33555 0.0664974 0)
(1.34926 0.0693219 0)
(1.34596 0.0694868 0)
(1.33471 0.0679955 0)
(1.32079 0.0656404 0)
(1.30677 0.0628291 0)
(1.29369 0.059736 0)
(1.28185 0.0564852 0)
(1.27125 0.0531608 0)
(1.2618 0.0498152 0)
(1.25336 0.0464873 0)
(1.2458 0.0432073 0)
(1.23901 0.0399976 0)
(1.23291 0.0368744 0)
(1.22742 0.0338487 0)
(1.22247 0.0309273 0)
(1.21803 0.028113 0)
(1.21405 0.0254061 0)
(1.21049 0.0228039 0)
(1.20733 0.0203021 0)
(1.20455 0.0178947 0)
(1.20212 0.0155744 0)
(1.20003 0.0133327 0)
(1.19826 0.0111607 0)
(1.19681 0.00904842 0)
(1.19565 0.00698571 0)
(1.19479 0.0049619 0)
(1.19422 0.00296599 0)
(1.19394 0.000986784 0)
(1.30534 0.0905651 0)
(1.33954 0.0971399 0)
(1.34889 0.0962581 0)
(1.34337 0.0928439 0)
(1.33101 0.0882779 0)
(1.31655 0.08331 0)
(1.3023 0.0782381 0)
(1.28913 0.0732047 0)
(1.27729 0.068293 0)
(1.26674 0.063537 0)
(1.25737 0.0589508 0)
(1.24905 0.0545438 0)
(1.24162 0.0503209 0)
(1.23498 0.0462834 0)
(1.22903 0.0424303 0)
(1.22369 0.0387581 0)
(1.2189 0.0352614 0)
(1.21461 0.0319328 0)
(1.21077 0.0287637 0)
(1.20736 0.0257441 0)
(1.20433 0.0228631 0)
(1.20167 0.0201091 0)
(1.19935 0.0174696 0)
(1.19735 0.0149321 0)
(1.19567 0.0124834 0)
(1.19428 0.0101102 0)
(1.19318 0.00779903 0)
(1.19236 0.00553622 0)
(1.19182 0.00330795 0)
(1.19155 0.00110034 0)
(1.3117 0.125693 0)
(1.33866 0.12893 0)
(1.34417 0.123618 0)
(1.33694 0.116361 0)
(1.32396 0.108624 0)
(1.30945 0.100943 0)
(1.29538 0.0935406 0)
(1.28248 0.0865255 0)
(1.27093 0.0799213 0)
(1.26068 0.0737097 0)
(1.25161 0.0678672 0)
(1.24357 0.0623718 0)
(1.23642 0.0572017 0)
(1.23005 0.0523366 0)
(1.22436 0.0477572 0)
(1.21927 0.043445 0)
(1.21471 0.039382 0)
(1.21064 0.03555 0)
(1.207 0.0319314 0)
(1.20377 0.0285081 0)
(1.20092 0.0252627 0)
(1.19841 0.0221775 0)
(1.19623 0.0192351 0)
(1.19435 0.0164183 0)
(1.19277 0.0137099 0)
(1.19147 0.011093 0)
(1.19044 0.00855075 0)
(1.18968 0.00606646 0)
(1.18917 0.00362344 0)
(1.18892 0.00120506 0)
(1.31171 0.160969 0)
(1.33234 0.160463 0)
(1.33481 0.15028 0)
(1.3265 0.139208 0)
(1.3135 0.128338 0)
(1.29946 0.117965 0)
(1.28601 0.108272 0)
(1.27373 0.0993153 0)
(1.26278 0.0910514 0)
(1.25308 0.0834135 0)
(1.24451 0.0763422 0)
(1.23694 0.0697842 0)
(1.23022 0.0636917 0)
(1.22425 0.0580229 0)
(1.21892 0.0527409 0)
(1.21416 0.0478122 0)
(1.20992 0.0432062 0)
(1.20613 0.0388939 0)
(1.20276 0.0348485 0)
(1.19976 0.0310444 0)
(1.19712 0.027457 0)
(1.1948 0.024063 0)
(1.19279 0.0208398 0)
(1.19106 0.0177656 0)
(1.1896 0.0148193 0)
(1.1884 0.0119802 0)
(1.18745 0.0092283 0)
(1.18675 0.00654382 0)
(1.18628 0.00390723 0)
(1.18605 0.00129923 0)
(1.30481 0.194693 0)
(1.32039 0.190251 0)
(1.32077 0.175147 0)
(1.31212 0.160545 0)
(1.29975 0.146724 0)
(1.28669 0.133812 0)
(1.27427 0.121975 0)
(1.26297 0.111196 0)
(1.25289 0.101368 0)
(1.24399 0.0923856 0)
(1.23613 0.0841551 0)
(1.2292 0.0765948 0)
(1.22305 0.0696332 0)
(1.2176 0.0632087 0)
(1.21274 0.0572677 0)
(1.20842 0.0517628 0)
(1.20456 0.0466511 0)
(1.20112 0.0418938 0)
(1.19807 0.037455 0)
(1.19536 0.0333015 0)
(1.19297 0.0294025 0)
(1.19087 0.0257288 0)
(1.18905 0.0222529 0)
(1.18749 0.0189486 0)
(1.18618 0.0157907 0)
(1.1851 0.0127554 0)
(1.18425 0.00981923 0)
(1.18361 0.00695957 0)
(1.18319 0.00415416 0)
(1.18298 0.00138112 0)
(1.29117 0.225284 0)
(1.30306 0.216968 0)
(1.30235 0.197262 0)
(1.29412 0.179612 0)
(1.28297 0.163153 0)
(1.27137 0.147978 0)
(1.26035 0.134231 0)
(1.25034 0.121817 0)
(1.24141 0.110579 0)
(1.23352 0.100379 0)
(1.22656 0.0910971 0)
(1.22043 0.0826266 0)
(1.215 0.0748757 0)
(1.21018 0.0677657 0)
(1.20589 0.0612282 0)
(1.20208 0.0552032 0)
(1.19868 0.049637 0)
(1.19566 0.0444813 0)
(1.19297 0.0396923 0)
(1.19059 0.03523 0)
(1.18849 0.0310571 0)
(1.18666 0.0271394 0)
(1.18506 0.0234446 0)
(1.18369 0.0199425 0)
(1.18254 0.0166043 0)
(1.1816 0.0134028 0)
(1.18085 0.0103116 0)
(1.18029 0.00730535 0)
(1.17993 0.00435929 0)
(1.17974 0.00144911 0)
(1.27155 0.251489 0)
(1.28099 0.23955 0)
(1.28011 0.215888 0)
(1.273 0.195797 0)
(1.2636 0.177109 0)
(1.25384 0.160038 0)
(1.24454 0.144683 0)
(1.23607 0.130874 0)
(1.22852 0.118424 0)
(1.22183 0.107173 0)
(1.21594 0.0969802 0)
(1.21074 0.0877188 0)
(1.20614 0.0792816 0)
(1.20207 0.071576 0)
(1.19844 0.0645213 0)
(1.19522 0.0580467 0)
(1.19235 0.0520894 0)
(1.1898 0.0465929 0)
(1.18753 0.0415063 0)
(1.18552 0.0367833 0)
(1.18375 0.0323814 0)
(1.1822 0.0282615 0)
(1.18085 0.0243872 0)
(1.1797 0.0207244 0)
(1.17873 0.0172413 0)
(1.17793 0.0139076 0)
(1.1773 0.0106942 0)
(1.17683 0.00757335 0)
(1.17652 0.004518 0)
(1.17636 0.00150167 0)
(1.24701 0.272474 0)
(1.25501 0.257278 0)
(1.2548 0.230545 0)
(1.24939 0.208661 0)
(1.24215 0.188216 0)
(1.2345 0.169672 0)
(1.22717 0.153048 0)
(1.22045 0.138121 0)
(1.21444 0.12469 0)
(1.20912 0.112584 0)
(1.20442 0.101644 0)
(1.20028 0.0917327 0)
(1.19661 0.0827309 0)
(1.19337 0.0745358 0)
(1.19049 0.0670573 0)
(1.18792 0.0602162 0)
(1.18564 0.0539419 0)
(1.1836 0.0481714 0)
(1.1818 0.0428479 0)
(1.1802 0.0379198 0)
(1.17878 0.0333399 0)
(1.17755 0.0290652 0)
(1.17647 0.0250555 0)
(1.17555 0.0212737 0)
(1.17477 0.0176849 0)
(1.17413 0.0142565 0)
(1.17363 0.010957 0)
(1.17325 0.00775655 0)
(1.173 0.00462612 0)
(1.17288 0.00153741 0)
(1.21878 0.287816 0)
(1.22613 0.2698 0)
(1.22724 0.240998 0)
(1.22398 0.217941 0)
(1.21915 0.196239 0)
(1.21382 0.176665 0)
(1.2086 0.159128 0)
(1.20377 0.143378 0)
(1.19943 0.129217 0)
(1.19559 0.116466 0)
(1.19219 0.10496 0)
(1.1892 0.094555 0)
(1.18655 0.0851242 0)
(1.18421 0.0765583 0)
(1.18213 0.0687607 0)
(1.18028 0.0616458 0)
(1.17863 0.0551376 0)
(1.17715 0.0491679 0)
(1.17585 0.0436751 0)
(1.17468 0.0386034 0)
(1.17366 0.0339021 0)
(1.17276 0.0295246 0)
(1.17197 0.0254279 0)
(1.1713 0.0215723 0)
(1.17073 0.0179207 0)
(1.17026 0.0144381 0)
(1.16989 0.0110914 0)
(1.16961 0.00784891 0)
(1.16943 0.0046801 0)
(1.16934 0.00155517 0)
(1.18801 0.297443 0)
(1.19534 0.277092 0)
(1.19827 0.247224 0)
(1.19743 0.22354 0)
(1.19515 0.201079 0)
(1.19223 0.180906 0)
(1.18921 0.162803 0)
(1.18636 0.146527 0)
(1.18378 0.131892 0)
(1.18148 0.118716 0)
(1.17945 0.106834 0)
(1.17767 0.0961001 0)
(1.17611 0.0863849 0)
(1.17472 0.0775755 0)
(1.17349 0.0695714 0)
(1.17239 0.0622832 0)
(1.17141 0.0556309 0)
(1.17054 0.0495427 0)
(1.16975 0.0439537 0)
(1.16906 0.038805 0)
(1.16843 0.034043 0)
(1.16789 0.0296187 0)
(1.16741 0.0254869 0)
(1.16699 0.0216059 0)
(1.16664 0.0179368 0)
(1.16635 0.0144431 0)
(1.16612 0.0110904 0)
(1.16594 0.00784559 0)
(1.16583 0.00467708 0)
(1.16577 0.00155399 0)
(1.15574 0.301554 0)
(1.16358 0.279388 0)
(1.16864 0.249355 0)
(1.17037 0.225496 0)
(1.17067 0.202745 0)
(1.17017 0.182365 0)
(1.16939 0.164025 0)
(1.16854 0.147512 0)
(1.16773 0.132653 0)
(1.16702 0.119271 0)
(1.16641 0.107204 0)
(1.16589 0.0963099 0)
(1.16544 0.0864594 0)
(1.16505 0.0775387 0)
(1.1647 0.0694459 0)
(1.16439 0.0620896 0)
(1.1641 0.0553878 0)
(1.16384 0.0492663 0)
(1.16361 0.0436582 0)
(1.16339 0.0385026 0)
(1.16318 0.0337441 0)
(1.163 0.0293319 0)
(1.16284 0.0252195 0)
(1.16269 0.0213638 0)
(1.16256 0.0177247 0)
(1.16245 0.0142649 0)
(1.16236 0.0109489 0)
(1.1623 0.00774305 0)
(1.16225 0.00461497 0)
(1.16223 0.00153319 0)
(1.12284 0.300533 0)
(1.13166 0.277086 0)
(1.13902 0.247617 0)
(1.14332 0.223948 0)
(1.14615 0.201329 0)
(1.14804 0.181083 0)
(1.14945 0.162805 0)
(1.15059 0.146324 0)
(1.15157 0.131479 0)
(1.15246 0.118102 0)
(1.15327 0.106039 0)
(1.15402 0.0951526 0)
(1.15471 0.0853165 0)
(1.15533 0.0764186 0)
(1.15588 0.0683571 0)
(1.15637 0.0610408 0)
(1.1568 0.0543867 0)
(1.15717 0.0483199 0)
(1.15748 0.0427724 0)
(1.15775 0.0376825 0)
(1.15798 0.0329937 0)
(1.15817 0.0286545 0)
(1.15832 0.0246176 0)
(1.15845 0.0208393 0)
(1.15854 0.0172792 0)
(1.15862 0.0138993 0)
(1.15868 0.0106639 0)
(1.15872 0.00753921 0)
(1.15875 0.00449256 0)
(1.15876 0.00149237 0)
(1.09002 0.294871 0)
(1.10023 0.270657 0)
(1.10992 0.242283 0)
(1.11672 0.2191 0)
(1.12198 0.19697 0)
(1.12619 0.177147 0)
(1.12973 0.159198 0)
(1.13281 0.142995 0)
(1.13555 0.128385 0)
(1.13801 0.115214 0)
(1.14024 0.103336 0)
(1.14226 0.09262 0)
(1.14408 0.0829459 0)
(1.14571 0.0742038 0)
(1.14717 0.0662941 0)
(1.14846 0.0591263 0)
(1.1496 0.0526183 0)
(1.1506 0.0466952 0)
(1.15148 0.0412893 0)
(1.15224 0.0363387 0)
(1.15289 0.031787 0)
(1.15345 0.0275826 0)
(1.15392 0.0236783 0)
(1.15432 0.0200304 0)
(1.15465 0.0165986 0)
(1.15491 0.0133451 0)
(1.15511 0.0102347 0)
(1.15526 0.00723356 0)
(1.15536 0.00430955 0)
(1.15541 0.00143143 0)
(1.05782 0.285089 0)
(1.0698 0.260572 0)
(1.08174 0.233647 0)
(1.09092 0.211191 0)
(1.0985 0.189837 0)
(1.10491 0.170676 0)
(1.1105 0.153291 0)
(1.11545 0.137584 0)
(1.11989 0.123413 0)
(1.12389 0.110634 0)
(1.12751 0.0991125 0)
(1.13077 0.088725 0)
(1.13371 0.0793563 0)
(1.13634 0.0709006 0)
(1.13869 0.0632611 0)
(1.14077 0.0563496 0)
(1.14262 0.0500854 0)
(1.14425 0.044395 0)
(1.14567 0.0392116 0)
(1.14692 0.034474 0)
(1.14799 0.0301268 0)
(1.14892 0.026119 0)
(1.14971 0.0224041 0)
(1.15037 0.0189394 0)
(1.15092 0.015685 0)
(1.15136 0.0126043 0)
(1.15171 0.00966264 0)
(1.15196 0.00682719 0)
(1.15213 0.00406662 0)
(1.15221 0.0013506 0)
(1.02664 0.271681 0)
(1.04068 0.247255 0)
(1.05474 0.221992 0)
(1.06619 0.200459 0)
(1.07596 0.180105 0)
(1.08446 0.161807 0)
(1.092 0.14519 0)
(1.09874 0.130173 0)
(1.10481 0.116625 0)
(1.1103 0.104411 0)
(1.11526 0.0934081 0)
(1.11973 0.0834986 0)
(1.12375 0.074573 0)
(1.12736 0.06653 0)
(1.13057 0.0592764 0)
(1.13343 0.0527267 0)
(1.13597 0.0468025 0)
(1.1382 0.0414323 0)
(1.14016 0.036551 0)
(1.14188 0.0320992 0)
(1.14336 0.0280228 0)
(1.14464 0.0242724 0)
(1.14574 0.020803 0)
(1.14666 0.0175731 0)
(1.14742 0.0145445 0)
(1.14804 0.0116817 0)
(1.14852 0.00895165 0)
(1.14888 0.00632287 0)
(1.14911 0.00376544 0)
(1.14923 0.00125044 0)
(0.996768 0.255085 0)
(1.01308 0.231068 0)
(1.02914 0.207571 0)
(1.04274 0.187124 0)
(1.05458 0.167945 0)
(1.06506 0.150678 0)
(1.07443 0.135006 0)
(1.08288 0.120855 0)
(1.09051 0.108097 0)
(1.09742 0.0966094 0)
(1.10366 0.0862766 0)
(1.10929 0.076987 0)
(1.11436 0.0686363 0)
(1.1189 0.0611278 0)
(1.12295 0.0543718 0)
(1.12655 0.048286 0)
(1.12974 0.0427952 0)
(1.13256 0.0378303 0)
(1.13503 0.0333287 0)
(1.13719 0.0292333 0)
(1.13907 0.0254922 0)
(1.14068 0.0220582 0)
(1.14207 0.0188884 0)
(1.14323 0.0159433 0)
(1.1442 0.0131868 0)
(1.14498 0.0105854 0)
(1.14559 0.00810797 0)
(1.14605 0.00572506 0)
(1.14634 0.00340867 0)
(1.14649 0.00113184 0)
(0.968345 0.235672 0)
(0.987091 0.212305 0)
(1.00508 0.1906 0)
(1.02073 0.17138 0)
(1.03453 0.153512 0)
(1.04688 0.137424 0)
(1.058 0.122855 0)
(1.06806 0.109726 0)
(1.07717 0.0979137 0)
(1.08542 0.0873035 0)
(1.09289 0.0777841 0)
(1.09962 0.0692493 0)
(1.10567 0.0615994 0)
(1.11109 0.0547418 0)
(1.11593 0.0485907 0)
(1.12023 0.0430675 0)
(1.12404 0.0380998 0)
(1.1274 0.0336221 0)
(1.13036 0.0295746 0)
(1.13294 0.0259032 0)
(1.13518 0.0225591 0)
(1.13711 0.0194978 0)
(1.13876 0.016679 0)
(1.14015 0.0140661 0)
(1.14131 0.0116255 0)
(1.14224 0.00932643 0)
(1.14298 0.00714021 0)
(1.14351 0.00503991 0)
(1.14387 0.00300002 0)
(1.14404 0.000996035 0)
(0.941428 0.213739 0)
(0.962777 0.19119 0)
(0.982668 0.171258 0)
(1.00028 0.153393 0)
(1.01597 0.136945 0)
(1.0301 0.122171 0)
(1.04287 0.108849 0)
(1.05445 0.0968879 0)
(1.06495 0.086168 0)
(1.07447 0.0765772 0)
(1.08308 0.0680075 0)
(1.09084 0.0603562 0)
(1.09782 0.0535275 0)
(1.10406 0.0474325 0)
(1.10963 0.041989 0)
(1.11458 0.037122 0)
(1.11897 0.0327631 0)
(1.12283 0.0288503 0)
(1.12622 0.0253275 0)
(1.12919 0.0221442 0)
(1.13176 0.019255 0)
(1.13398 0.0166189 0)
(1.13587 0.0141991 0)
(1.13747 0.0119623 0)
(1.13879 0.00987824 0)
(1.13986 0.00791912 0)
(1.1407 0.0060594 0)
(1.14132 0.00427524 0)
(1.14173 0.00254415 0)
(1.14193 0.000844567 0)
(0.915988 0.189519 0)
(0.940129 0.167887 0)
(0.961977 0.14969 0)
(0.981511 0.133291 0)
(0.999028 0.118364 0)
(1.01486 0.105031 0)
(1.0292 0.0930931 0)
(1.04221 0.0824418 0)
(1.05402 0.0729554 0)
(1.06472 0.0645213 0)
(1.0744 0.0570327 0)
(1.08311 0.0503888 0)
(1.09093 0.0444967 0)
(1.09793 0.0392708 0)
(1.10417 0.0346326 0)
(1.10971 0.0305111 0)
(1.11461 0.0268418 0)
(1.11892 0.0235669 0)
(1.12271 0.0206346 0)
(1.12601 0.0179987 0)
(1.12887 0.0156178 0)
(1.13134 0.0134553 0)
(1.13345 0.0114783 0)
(1.13522 0.0096574 0)
(1.13669 0.00796611 0)
(1.13789 0.00638057 0)
(1.13882 0.00487881 0)
(1.1395 0.00344053 0)
(1.13995 0.00204673 0)
(1.14018 0.000679323 0)
(0.891962 0.163172 0)
(0.919108 0.142536 0)
(0.943065 0.126011 0)
(0.964529 0.111178 0)
(0.983844 0.0978701 0)
(1.00131 0.0861077 0)
(1.01714 0.0756921 0)
(1.03151 0.0664903 0)
(1.04454 0.0583768 0)
(1.05633 0.051235 0)
(1.06697 0.0449555 0)
(1.07655 0.0394392 0)
(1.08514 0.034595 0)
(1.09282 0.0303399 0)
(1.09965 0.0265998 0)
(1.1057 0.0233073 0)
(1.11105 0.0204028 0)
(1.11575 0.0178332 0)
(1.11987 0.0155517 0)
(1.12346 0.0135171 0)
(1.12657 0.0116928 0)
(1.12925 0.0100468 0)
(1.13153 0.00855104 0)
(1.13346 0.00718079 0)
(1.13505 0.00591413 0)
(1.13634 0.00473109 0)
(1.13735 0.00361404 0)
(1.13809 0.00254681 0)
(1.13857 0.00151436 0)
(1.13882 0.000502516 0)
(0.869255 0.134836 0)
(0.899668 0.115269 0)
(0.925961 0.10034 0)
(0.949435 0.0871477 0)
(0.970547 0.0755557 0)
(0.989608 0.0654986 0)
(1.00686 0.0567434 0)
(1.0225 0.0491366 0)
(1.03665 0.0425388 0)
(1.04944 0.0368243 0)
(1.06096 0.0318816 0)
(1.0713 0.0276101 0)
(1.08056 0.0239209 0)
(1.08882 0.020734 0)
(1.09615 0.0179789 0)
(1.10264 0.0155935 0)
(1.10836 0.0135228 0)
(1.11339 0.0117198 0)
(1.11778 0.0101431 0)
(1.1216 0.00875716 0)
(1.12491 0.00753114 0)
(1.12775 0.00643871 0)
(1.13017 0.00545704 0)
(1.13221 0.00456669 0)
(1.1339 0.0037504 0)
(1.13526 0.00299343 0)
(1.13632 0.00228275 0)
(1.1371 0.00160659 0)
(1.13762 0.000954521 0)
(1.13787 0.00031662 0)
(0.847486 0.104895 0)
(0.881736 0.0862494 0)
(0.910669 0.072792 0)
(0.936327 0.0612857 0)
(0.959273 0.0515096 0)
(0.979909 0.0432975 0)
(0.998529 0.0363523 0)
(1.01535 0.0304901 0)
(1.03052 0.0255554 0)
(1.0442 0.0214083 0)
(1.05648 0.017929 0)
(1.06749 0.0150185 0)
(1.07731 0.0125878 0)
(1.08604 0.0105604 0)
(1.09378 0.00887117 0)
(1.10062 0.00746467 0)
(1.10663 0.0062898 0)
(1.11189 0.00530599 0)
(1.11649 0.00448089 0)
(1.12048 0.00378448 0)
(1.12393 0.00319157 0)
(1.12688 0.00268194 0)
(1.12939 0.00224056 0)
(1.13151 0.00185262 0)
(1.13325 0.00150672 0)
(1.13466 0.00119341 0)
(1.13576 0.000904445 0)
(1.13657 0.000633858 0)
(1.1371 0.00037556 0)
(1.13736 0.000124394 0)
(0.825458 0.0743783 0)
(0.86497 0.0558211 0)
(0.897154 0.0435119 0)
(0.925283 0.033664 0)
(0.950151 0.0258314 0)
(0.97237 0.019603 0)
(0.992306 0.014626 0)
(1.01022 0.0106727 0)
(1.02632 0.00755693 0)
(1.04076 0.00511631 0)
(1.05368 0.0032297 0)
(1.06522 0.00179525 0)
(1.07548 0.00072189 0)
(1.08458 -5.94482e-05 0)
(1.09262 -0.000608787 0)
(1.09969 -0.000974654 0)
(1.1059 -0.00120008 0)
(1.11132 -0.00131806 0)
(1.11604 -0.00135385 0)
(1.12013 -0.00132974 0)
(1.12365 -0.00126288 0)
(1.12666 -0.0011666 0)
(1.12922 -0.00104957 0)
(1.13137 -0.000919864 0)
(1.13314 -0.000782666 0)
(1.13457 -0.000641525 0)
(1.13568 -0.00049908 0)
(1.1365 -0.000356111 0)
(1.13703 -0.000213449 0)
(1.1373 -7.11188e-05 0)
(0.800925 0.0450874 0)
(0.848266 0.0247909 0)
(0.885163 0.0128633 0)
(0.916269 0.00442948 0)
(0.943292 -0.00136836 0)
(0.967164 -0.00546946 0)
(0.988389 -0.0083072 0)
(1.00731 -0.010178 0)
(1.02421 -0.0113146 0)
(1.03928 -0.0118982 0)
(1.05271 -0.0120627 0)
(1.06463 -0.0119126 0)
(1.0752 -0.0115332 0)
(1.08453 -0.0109893 0)
(1.09274 -0.0103329 0)
(1.09994 -0.0096047 0)
(1.10623 -0.00883706 0)
(1.11171 -0.00805381 0)
(1.11647 -0.00727223 0)
(1.12058 -0.00650539 0)
(1.12411 -0.00576149 0)
(1.12712 -0.00504588 0)
(1.12967 -0.00436044 0)
(1.1318 -0.00370568 0)
(1.13356 -0.00308015 0)
(1.13498 -0.00248106 0)
(1.13608 -0.0019049 0)
(1.13689 -0.0013471 0)
(1.13742 -0.000802812 0)
(1.13768 -0.0002667 0)
(0.771382 0.018953 0)
(0.829432 -0.00545257 0)
(0.8737 -0.0183275 0)
(0.909113 -0.0259775 0)
(0.938836 -0.0299576 0)
(0.96451 -0.0318153 0)
(0.987002 -0.0323137 0)
(1.00684 -0.0319048 0)
(1.02439 -0.0308838 0)
(1.03993 -0.0294574 0)
(1.05369 -0.0277709 0)
(1.06584 -0.0259296 0)
(1.07654 -0.0240117 0)
(1.08595 -0.0220739 0)
(1.0942 -0.0201579 0)
(1.1014 -0.0182934 0)
(1.10766 -0.0165009 0)
(1.1131 -0.0147934 0)
(1.1178 -0.0131777 0)
(1.12184 -0.0116565 0)
(1.12531 -0.0102286 0)
(1.12825 -0.00889038 0)
(1.13074 -0.00763567 0)
(1.13282 -0.00645712 0)
(1.13453 -0.00534617 0)
(1.1359 -0.00429335 0)
(1.13697 -0.00328876 0)
(1.13775 -0.00232196 0)
(1.13826 -0.00138231 0)
(1.13851 -0.000458963 0)
(0.735366 -0.00315835 0)
(0.806374 -0.0331482 0)
(0.861198 -0.0490741 0)
(0.903239 -0.0569878 0)
(0.93675 -0.0595518 0)
(0.964585 -0.0591643 0)
(0.988371 -0.0571695 0)
(1.00901 -0.0542894 0)
(1.02704 -0.0509318 0)
(1.04286 -0.0473446 0)
(1.05675 -0.0436848 0)
(1.06893 -0.0400557 0)
(1.0796 -0.0365257 0)
(1.08892 -0.0331392 0)
(1.09705 -0.029924 0)
(1.1041 -0.0268958 0)
(1.11022 -0.0240611 0)
(1.1155 -0.0214196 0)
(1.12004 -0.0189661 0)
(1.12393 -0.0166915 0)
(1.12725 -0.0145842 0)
(1.13007 -0.0126306 0)
(1.13244 -0.0108158 0)
(1.13441 -0.00912417 0)
(1.13602 -0.0075395 0)
(1.13732 -0.00604538 0)
(1.13832 -0.00462534 0)
(1.13906 -0.00326283 0)
(1.13954 -0.00194134 0)
(1.13977 -0.000644395 0)
(0.694189 -0.023334 0)
(0.778141 -0.057895 0)
(0.84601 -0.0780196 0)
(0.897474 -0.087528 0)
(0.936573 -0.0894687 0)
(0.967377 -0.0870947 0)
(0.992659 -0.0825589 0)
(1.01402 -0.077052 0)
(1.03235 -0.0711925 0)
(1.04822 -0.0653034 0)
(1.06201 -0.0595604 0)
(1.07401 -0.054062 0)
(1.08443 -0.048863 0)
(1.09348 -0.0439908 0)
(1.10131 -0.0394549 0)
(1.10808 -0.0352534 0)
(1.1139 -0.031376 0)
(1.1189 -0.0278071 0)
(1.12318 -0.024527 0)
(1.12683 -0.0215139 0)
(1.12993 -0.0187445 0)
(1.13254 -0.0161944 0)
(1.13473 -0.0138395 0)
(1.13655 -0.0116552 0)
(1.13803 -0.00961773 0)
(1.13922 -0.0077033 0)
(1.14013 -0.00588881 0)
(1.1408 -0.00415154 0)
(1.14124 -0.0024691 0)
(1.14145 -0.000819406 0)
(0.652134 -0.0452108 0)
(0.745588 -0.0808281 0)
(0.827096 -0.104613 0)
(0.890512 -0.11658 0)
(0.937527 -0.118829 0)
(0.972647 -0.114978 0)
(0.999926 -0.108023 0)
(1.02203 -0.0998167 0)
(1.04048 -0.0913299 0)
(1.05615 -0.083024 0)
(1.06958 -0.0751111 0)
(1.08114 -0.0676862 0)
(1.09109 -0.0607857 0)
(1.09965 -0.0544144 0)
(1.107 -0.0485593 0)
(1.11331 -0.0431965 0)
(1.1187 -0.0382961 0)
(1.1233 -0.0338244 0)
(1.12721 -0.0297458 0)
(1.13052 -0.0260242 0)
(1.13331 -0.0226235 0)
(1.13565 -0.0195084 0)
(1.13761 -0.0166445 0)
(1.13922 -0.0139985 0)
(1.14052 -0.0115384 0)
(1.14157 -0.0092333 0)
(1.14237 -0.00705347 0)
(1.14295 -0.00497005 0)
(1.14333 -0.0029549 0)
(1.14352 -0.000980461 0)
(0.614593 -0.0723698 0)
(0.712004 -0.104522 0)
(0.805084 -0.129548 0)
(0.881613 -0.143656 0)
(0.93876 -0.146794 0)
(0.97992 -0.142043 0)