/*--------------------------------*- C++ -*----------------------------------*\
  =========                 |
  \\      /  F ield         | OpenFOAM: The Open Source CFD Toolbox
   \\    /   O peration     | Website:  https://openfoam.org
    \\  /    A nd           | Version:  7
     \\/     M anipulation  |
\*---------------------------------------------------------------------------*/
FoamFile
{
    version     2.0;
    format      ascii;
    class       volScalarField;
    location    "65.001";
    object      p;
}
// * * * * * * * * * * * * * * * * * * * * * * * * * * * * * * * * * * * * * //

dimensions      [0 2 -2 0 0 0 0];

internalField   nonuniform List<scalar> 
3700
(
-0.247785
-0.246095
-0.244206
-0.242142
-0.239905
-0.2375
-0.234931
-0.232203
-0.229319
-0.22628
-0.22309
-0.219749
-0.216259
-0.212617
-0.208851
-0.204937
-0.200899
-0.196726
-0.19242
-0.187986
-0.183441
-0.178786
-0.174026
-0.169167
-0.164227
-0.159217
-0.154148
-0.149031
-0.14388
-0.138706
-0.133518
-0.128344
-0.123189
-0.118067
-0.112989
-0.107954
-0.102994
-0.0981114
-0.0933166
-0.0886169
-0.0840209
-0.079534
-0.0751741
-0.0709358
-0.0668244
-0.0628417
-0.0589987
-0.0552948
-0.0517307
-0.0483067
-0.0450227
-0.0418776
-0.0388695
-0.035996
-0.033253
-0.0306321
-0.02814
-0.025768
-0.0235109
-0.0213656
-0.0193296
-0.0173987
-0.0155657
-0.0138316
-0.0121927
-0.010647
-0.00919173
-0.00782643
-0.00654738
-0.00536008
-0.00425036
-0.0032484
-0.00228851
-0.00152014
-0.000617345
-0.000324746
0.000985715
-0.247782
-0.24609
-0.244207
-0.242156
-0.239939
-0.237563
-0.235029
-0.232341
-0.2295
-0.226509
-0.223368
-0.220075
-0.216627
-0.212996
-0.209303
-0.20545
-0.201427
-0.197262
-0.192954
-0.188508
-0.183934
-0.179237
-0.174424
-0.169503
-0.16449
-0.159396
-0.154238
-0.149027
-0.14378
-0.138512
-0.133237
-0.127978
-0.122749
-0.117562
-0.11243
-0.107361
-0.102376
-0.0974857
-0.0926989
-0.0880233
-0.0834674
-0.079038
-0.0747297
-0.0705575
-0.0665237
-0.0626302
-0.0588854
-0.055278
-0.0518085
-0.0484759
-0.0452784
-0.0422132
-0.0392768
-0.0364655
-0.0337754
-0.0311942
-0.028738
-0.0263878
-0.0241415
-0.0219937
-0.0199428
-0.0179876
-0.0161233
-0.0143495
-0.0126643
-0.0110669
-0.00955583
-0.00813231
-0.00679371
-0.00554701
-0.00437992
-0.00332382
-0.00231698
-0.00150702
-0.000583436
-0.000269044
0.000986409
-0.247878
-0.246181
-0.244303
-0.242265
-0.24007
-0.237722
-0.235223
-0.232575
-0.229777
-0.226833
-0.22374
-0.220494
-0.217086
-0.213613
-0.209893
-0.206045
-0.202045
-0.197891
-0.193583
-0.189126
-0.184526
-0.179789
-0.174925
-0.169942
-0.164857
-0.159681
-0.154435
-0.149132
-0.143791
-0.13843
-0.133067
-0.127724
-0.122418
-0.117165
-0.111979
-0.106874
-0.101866
-0.0969655
-0.0921849
-0.0875284
-0.0830058
-0.0786288
-0.0743892
-0.0702938
-0.0663443
-0.0625369
-0.0588655
-0.0553392
-0.0519536
-0.0487044
-0.0455874
-0.0425974
-0.0397291
-0.0369773
-0.0343357
-0.0318058
-0.0293656
-0.0270252
-0.0247798
-0.0226269
-0.0205609
-0.0185804
-0.0166831
-0.0148689
-0.0131372
-0.0114884
-0.00992244
-0.0084418
-0.00704503
-0.00574079
-0.00451811
-0.00341019
-0.00235811
-0.00150881
-0.000566012
-0.000227202
0.000961824
-0.248053
-0.246352
-0.244478
-0.242452
-0.240278
-0.237958
-0.235494
-0.232884
-0.230129
-0.227229
-0.22418
-0.220972
-0.21768
-0.214184
-0.210526
-0.206711
-0.202733
-0.19859
-0.194283
-0.189815
-0.185191
-0.180418
-0.175504
-0.170463
-0.165308
-0.160054
-0.154723
-0.149332
-0.143901
-0.138451
-0.133003
-0.12758
-0.122201
-0.116885
-0.111648
-0.106505
-0.101473
-0.0965607
-0.0917911
-0.0871509
-0.0826603
-0.078323
-0.0741366
-0.0701023
-0.0662203
-0.0624953
-0.0589146
-0.0554756
-0.0521738
-0.0490034
-0.0459583
-0.0430323
-0.0402192
-0.0375131
-0.0349088
-0.0324078
-0.0299929
-0.0276642
-0.0254194
-0.0232568
-0.0211723
-0.0191648
-0.0172333
-0.0153784
-0.0136006
-0.0119016
-0.0102823
-0.00874673
-0.0072944
-0.0059357
-0.00466062
-0.00350448
-0.00241037
-0.00152511
-0.000565929
-0.000201492
0.000913409
-0.248286
-0.24658
-0.244711
-0.242698
-0.240545
-0.238253
-0.235823
-0.233251
-0.230535
-0.22768
-0.224665
-0.22157
-0.218275
-0.214827
-0.211208
-0.207424
-0.203468
-0.199337
-0.195032
-0.190554
-0.185908
-0.181101
-0.176142
-0.171045
-0.165825
-0.160498
-0.155089
-0.149615
-0.1441
-0.138568
-0.13304
-0.127542
-0.122095
-0.116722
-0.111437
-0.10626
-0.101205
-0.0962862
-0.0915145
-0.0868939
-0.0824333
-0.0781351
-0.0739987
-0.0700232
-0.0662071
-0.0625488
-0.0590393
-0.0556726
-0.0524422
-0.0493406
-0.0463601
-0.043493
-0.0407316
-0.0380689
-0.0354993
-0.0330201
-0.0306206
-0.0282977
-0.0260493
-0.0238732
-0.0217674
-0.0197313
-0.0177649
-0.0158695
-0.0140467
-0.0122992
-0.010629
-0.00904159
-0.00753727
-0.00612808
-0.00480481
-0.00360488
-0.00247303
-0.00155576
-0.000583732
-0.00019311
0.000844156
-0.246837
-0.244976
-0.242978
-0.240847
-0.238584
-0.236187
-0.233655
-0.230981
-0.228146
-0.225246
-0.222145
-0.218902
-0.215495
-0.211916
-0.208162
-0.204227
-0.200109
-0.195806
-0.19132
-0.186655
-0.181817
-0.176818
-0.171671
-0.166396
-0.160991
-0.155514
-0.149968
-0.144377
-0.13877
-0.133171
-0.127605
-0.122098
-0.116671
-0.111344
-0.106136
-0.101062
-0.0961357
-0.0913676
-0.0867631
-0.0823288
-0.0780665
-0.0739751
-0.0700521
-0.066294
-0.0626954
-0.0592484
-0.0559449
-0.0527761
-0.0497332
-0.0468069
-0.0439883
-0.0412688
-0.0386406
-0.0360972
-0.0336335
-0.031242
-0.0289191
-0.0266622
-0.0244696
-0.0223403
-0.0202744
-0.0182727
-0.0163374
-0.014471
-0.0126774
-0.0109595
-0.00932387
-0.00777171
-0.00631659
-0.00494994
-0.00371105
-0.00254623
-0.00160092
-0.000619682
-0.000202145
0.000758232
-0.247093
-0.245245
-0.243265
-0.241158
-0.238926
-0.236565
-0.234065
-0.231381
-0.2287
-0.225784
-0.22274
-0.219543
-0.216164
-0.212615
-0.208892
-0.20498
-0.200877
-0.196578
-0.192087
-0.187406
-0.182543
-0.177508
-0.172317
-0.166987
-0.161535
-0.155992
-0.150378
-0.144721
-0.139047
-0.133385
-0.127761
-0.122202
-0.11673
-0.111367
-0.106133
-0.101043
-0.0961107
-0.0913471
-0.0867574
-0.0823469
-0.0781166
-0.0740645
-0.0701869
-0.0664784
-0.062932
-0.0595385
-0.0562882
-0.0531709
-0.0501762
-0.0472937
-0.0445134
-0.0418259
-0.0392228
-0.0366969
-0.0342423
-0.0318527
-0.0295244
-0.0272549
-0.0250429
-0.0228882
-0.0207915
-0.0187547
-0.0167807
-0.0148728
-0.0130359
-0.0112737
-0.00959386
-0.00799838
-0.00650207
-0.00509704
-0.00382398
-0.00263093
-0.00166103
-0.000673801
-0.000227813
0.00066043
-0.247316
-0.245486
-0.243529
-0.24145
-0.23925
-0.236922
-0.234464
-0.231936
-0.229171
-0.226307
-0.223302
-0.220141
-0.21681
-0.213301
-0.209604
-0.205713
-0.201623
-0.197331
-0.192836
-0.188143
-0.18326
-0.178197
-0.172969
-0.167595
-0.162095
-0.156499
-0.15083
-0.145117
-0.139388
-0.133674
-0.128002
-0.122399
-0.116891
-0.111499
-0.106244
-0.101142
-0.0962069
-0.0914486
-0.0868729
-0.0824838
-0.0782816
-0.0742634
-0.0704244
-0.0667576
-0.0632545
-0.0599049
-0.0566978
-0.0536216
-0.0506648
-0.0478158
-0.0450639
-0.0423991
-0.0398123
-0.0372962
-0.0348441
-0.0324507
-0.0301122
-0.0278265
-0.0255926
-0.0234111
-0.0212835
-0.0192122
-0.017201
-0.015254
-0.0133769
-0.0115741
-0.00985427
-0.00822004
-0.0066872
-0.00524862
-0.00394573
-0.00272874
-0.00173677
-0.0007459
-0.00026883
0.000555554
-0.247471
-0.245666
-0.243738
-0.241691
-0.239527
-0.237235
-0.234822
-0.232276
-0.229601
-0.226787
-0.223823
-0.2207
-0.217405
-0.213927
-0.210259
-0.206391
-0.202318
-0.198034
-0.193541
-0.188842
-0.183945
-0.17886
-0.173605
-0.168197
-0.162661
-0.157023
-0.151311
-0.145553
-0.139782
-0.134026
-0.128316
-0.12268
-0.117145
-0.111732
-0.106462
-0.101353
-0.0964174
-0.0916657
-0.0871033
-0.0827332
-0.0785552
-0.0745656
-0.0707583
-0.0671254
-0.0636571
-0.060342
-0.0571682
-0.0541231
-0.051194
-0.0483689
-0.0456361
-0.0429852
-0.0404068
-0.0378932
-0.0354377
-0.0330354
-0.0306827
-0.0283779
-0.0261205
-0.0239115
-0.0217532
-0.0196486
-0.0176022
-0.0156188
-0.0137048
-0.0118653
-0.0101095
-0.00844095
-0.0068759
-0.00540812
-0.00407907
-0.00284166
-0.00182895
-0.000835599
-0.000323771
0.000447858
-0.24752
-0.245749
-0.243859
-0.24185
-0.239725
-0.237471
-0.235114
-0.232603
-0.229964
-0.227189
-0.224265
-0.221181
-0.217922
-0.214478
-0.210839
-0.206995
-0.202939
-0.198668
-0.194181
-0.189482
-0.184578
-0.179481
-0.174208
-0.168778
-0.163216
-0.157549
-0.151806
-0.146018
-0.140216
-0.134431
-0.128695
-0.123037
-0.117483
-0.112056
-0.106779
-0.101667
-0.0967339
-0.0919898
-0.08744
-0.0830868
-0.0789292
-0.0749627
-0.0711807
-0.0675741
-0.0641322
-0.0608427
-0.0576929
-0.0546694
-0.0517588
-0.0489484
-0.0462262
-0.0435812
-0.0410041
-0.0384868
-0.036023
-0.0336076
-0.0312377
-0.0289117
-0.0266297
-0.0243932
-0.022205
-0.0200688
-0.0179896
-0.0159728
-0.0140252
-0.0121528
-0.010365
-0.0086661
-0.00707267
-0.0055794
-0.00422697
-0.00297171
-0.00193833
-0.000942298
-0.000391299
0.000340688
-0.247413
-0.245695
-0.243851
-0.241889
-0.239807
-0.237587
-0.235264
-0.232806
-0.230216
-0.227485
-0.224603
-0.221558
-0.218336
-0.214925
-0.211317
-0.207499
-0.203465
-0.199211
-0.194736
-0.190044
-0.185142
-0.180043
-0.174763
-0.169323
-0.163747
-0.158065
-0.152305
-0.146499
-0.14068
-0.134879
-0.129129
-0.123459
-0.117896
-0.112464
-0.107184
-0.102074
-0.0971468
-0.0924115
-0.0878737
-0.083535
-0.079394
-0.0754457
-0.0716826
-0.0680951
-0.0646716
-0.0613994
-0.058265
-0.0552543
-0.0523537
-0.0495499
-0.0468306
-0.0441848
-0.0416028
-0.0390768
-0.0366003
-0.0341688
-0.0317794
-0.0294311
-0.0271243
-0.024861
-0.0226442
-0.0204785
-0.018369
-0.0163218
-0.0143441
-0.0124423
-0.0106261
-0.0089005
-0.00728187
-0.00576612
-0.00439213
-0.0031206
-0.00206548
-0.00106515
-0.000470235
0.000236353
-0.24545
-0.243669
-0.241765
-0.23974
-0.237574
-0.235263
-0.23286
-0.230325
-0.227643
-0.224805
-0.221801
-0.218617
-0.215243
-0.211668
-0.20788
-0.203873
-0.199642
-0.195187
-0.19051
-0.18562
-0.180529
-0.175254
-0.169817
-0.164242
-0.158558
-0.152795
-0.146986
-0.141163
-0.135359
-0.129607
-0.123936
-0.118373
-0.112944
-0.107669
-0.102565
-0.0976459
-0.0929205
-0.0883939
-0.0840676
-0.0799395
-0.0760045
-0.0722545
-0.0686793
-0.0652669
-0.0620043
-0.0588773
-0.0558717
-0.0529734
-0.0501691
-0.0474463
-0.0447938
-0.042202
-0.0396631
-0.0371708
-0.034721
-0.0323109
-0.0299398
-0.0276086
-0.0253194
-0.023076
-0.020883
-0.0187461
-0.0166716
-0.0146669
-0.0127391
-0.0108978
-0.00914852
-0.00750724
-0.00597121
-0.0045766
-0.00328939
-0.00221053
-0.00120304
-0.0005595
0.00013621
-0.244951
-0.243254
-0.241424
-0.239465
-0.237359
-0.235089
-0.232737
-0.230256
-0.227628
-0.224839
-0.221881
-0.21874
-0.215406
-0.211868
-0.208117
-0.204143
-0.199942
-0.195515
-0.190863
-0.185996
-0.180926
-0.17567
-0.170249
-0.164688
-0.159017
-0.153266
-0.147468
-0.141656
-0.135862
-0.13012
-0.124458
-0.118906
-0.113487
-0.108222
-0.103129
-0.0982207
-0.093506
-0.0889901
-0.084674
-0.0805555
-0.0766292
-0.0728867
-0.0693176
-0.0659098
-0.0626497
-0.0595231
-0.0565157
-0.0536133
-0.0508024
-0.0480705
-0.0454065
-0.042801
-0.0402461
-0.0377358
-0.0352662
-0.0328348
-0.0304412
-0.0280864
-0.0257731
-0.0235051
-0.0212873
-0.0191257
-0.0170269
-0.0149983
-0.0130475
-0.0111838
-0.00941346
-0.0077514
-0.0061966
-0.00478149
-0.00347831
-0.00237313
-0.00135453
-0.000658014
4.08864e-05
-0.244125
-0.242541
-0.240806
-0.238927
-0.236881
-0.234616
-0.232357
-0.229961
-0.227403
-0.224674
-0.221768
-0.218675
-0.215388
-0.211895
-0.208187
-0.204254
-0.200093
-0.195704
-0.19109
-0.186258
-0.181221
-0.175997
-0.170608
-0.165077
-0.159434
-0.15371
-0.147937
-0.142149
-0.136379
-0.130658
-0.125017
-0.119484
-0.114082
-0.108834
-0.103756
-0.0988605
-0.0941575
-0.0896515
-0.0853437
-0.0812316
-0.0773098
-0.07357
-0.0700016
-0.0665922
-0.0633286
-0.0601964
-0.0571813
-0.0542692
-0.0514466
-0.0487012
-0.0460219
-0.0433996
-0.0408264
-0.0382967
-0.0358066
-0.033354
-0.0309386
-0.0285616
-0.0262259
-0.0239354
-0.0216954
-0.0195117
-0.0173914
-0.0153418
-0.0133705
-0.0114867
-0.0096973
-0.00801573
-0.006443
-0.0050069
-0.0036867
-0.00255229
-0.00151794
-0.000764608
-4.94653e-05
-0.242897
-0.241463
-0.239852
-0.238087
-0.236176
-0.23408
-0.231704
-0.229383
-0.226923
-0.224273
-0.221433
-0.218399
-0.215167
-0.211729
-0.208074
-0.204193
-0.200083
-0.195743
-0.191178
-0.186395
-0.181406
-0.176229
-0.170886
-0.1654
-0.159801
-0.154118
-0.148386
-0.142636
-0.136901
-0.131214
-0.125603
-0.120097
-0.114721
-0.109494
-0.104435
-0.099555
-0.0948645
-0.090368
-0.0860667
-0.0819584
-0.0780375
-0.0742959
-0.0707233
-0.0673074
-0.0640349
-0.0608919
-0.0578642
-0.0549377
-0.0520993
-0.0493368
-0.0466394
-0.043998
-0.0414051
-0.0388551
-0.0363444
-0.0338709
-0.0314346
-0.0290369
-0.0266807
-0.0243699
-0.02211
-0.0199069
-0.0177676
-0.0156992
-0.0137097
-0.0118077
-0.0100006
-0.00830026
-0.00670987
-0.00525184
-0.00391299
-0.00274644
-0.00169128
-0.000877965
-0.000134937
-0.239965
-0.238514
-0.236884
-0.235081
-0.23307
-0.230861
-0.228548
-0.22617
-0.223613
-0.220856
-0.217892
-0.214728
-0.211357
-0.207766
-0.203949
-0.199901
-0.195625
-0.191123
-0.186402
-0.181476
-0.176361
-0.171079
-0.165653
-0.160113
-0.154487
-0.148808
-0.143109
-0.137422
-0.131779
-0.126209
-0.120739
-0.115393
-0.110193
-0.105156
-0.100294
-0.0956172
-0.0911298
-0.0868336
-0.0827265
-0.0788034
-0.0750563
-0.0714753
-0.0680485
-0.0647629
-0.0616047
-0.0585602
-0.0556157
-0.0527582
-0.0499758
-0.0472581
-0.044596
-0.0419824
-0.0394117
-0.0368805
-0.034387
-0.031931
-0.029514
-0.0271391
-0.0248102
-0.0225326
-0.0203121
-0.018156
-0.0160708
-0.014065
-0.012146
-0.0103223
-0.00860356
-0.00699533
-0.00551422
-0.00415471
-0.00295334
-0.00187227
-0.00099654
-0.000215639
-0.238003
-0.23675
-0.235294
-0.233654
-0.231817
-0.229735
-0.22737
-0.225113
-0.22268
-0.220027
-0.217149
-0.214063
-0.210771
-0.207258
-0.203517
-0.199546
-0.195346
-0.19092
-0.186277
-0.181428
-0.17639
-0.171183
-0.165832
-0.160363
-0.154808
-0.149196
-0.14356
-0.137932
-0.132342
-0.126821
-0.121394
-0.116086
-0.110917
-0.105906
-0.101064
-0.0964008
-0.0919225
-0.0876305
-0.083523
-0.0795953
-0.0758401
-0.0722476
-0.0688066
-0.0655045
-0.062328
-0.0592638
-0.0562985
-0.0534196
-0.0506155
-0.047876
-0.0451924
-0.0425576
-0.0399663
-0.0374152
-0.0349025
-0.0324281
-0.0299934
-0.0276016
-0.0252563
-0.022963
-0.0207272
-0.018556
-0.0164557
-0.0144349
-0.0125001
-0.0106605
-0.00892328
-0.0072967
-0.00579129
-0.0044089
-0.00317038
-0.00205856
-0.00111868
-0.000291554
-0.235594
-0.234568
-0.233306
-0.231833
-0.230152
-0.228264
-0.226153
-0.223717
-0.221402
-0.218903
-0.216142
-0.213159
-0.209966
-0.206547
-0.202897
-0.199016
-0.194907
-0.190572
-0.186019
-0.181261
-0.176313
-0.171196
-0.165932
-0.16055
-0.155077
-0.149544
-0.143982
-0.138423
-0.132896
-0.127431
-0.122055
-0.11679
-0.111658
-0.106675
-0.101856
-0.0972093
-0.0927408
-0.0884528
-0.0843442
-0.0804107
-0.0766455
-0.0730396
-0.0695822
-0.0662613
-0.0630643
-0.0599782
-0.0569903
-0.0540884
-0.0512613
-0.0484992
-0.0457934
-0.0431373
-0.0405256
-0.0379551
-0.0354239
-0.0329321
-0.030481
-0.0280735
-0.0257133
-0.0234057
-0.0211557
-0.0189707
-0.0168563
-0.0148212
-0.0128707
-0.0110151
-0.00925898
-0.00761294
-0.00608169
-0.00467386
-0.00339599
-0.00224876
-0.00124345
-0.000362866
-0.232862
-0.232115
-0.231092
-0.22983
-0.228343
-0.226625
-0.224632
-0.222381
-0.220041
-0.217632
-0.214983
-0.21211
-0.209025
-0.205711
-0.202164
-0.198387
-0.194383
-0.190154
-0.185707
-0.181055
-0.176212
-0.171199
-0.166038
-0.160754
-0.155376
-0.149933
-0.144456
-0.138974
-0.133518
-0.128116
-0.122794
-0.117575
-0.112481
-0.107528
-0.102731
-0.0980984
-0.0936372
-0.08935
-0.0852365
-0.081293
-0.0775134
-0.0738894
-0.0704111
-0.067067
-0.0638452
-0.0607334
-0.0577193
-0.0547912
-0.0519383
-0.0491511
-0.0464213
-0.0437423
-0.041109
-0.0385182
-0.035968
-0.0334584
-0.0309905
-0.0285673
-0.026192
-0.02387
-0.0216058
-0.0194067
-0.0172776
-0.0152277
-0.0132608
-0.0113881
-0.00961156
-0.00794418
-0.00638504
-0.00494879
-0.00362939
-0.00244227
-0.00137097
-0.000430324
-0.228721
-0.227986
-0.226982
-0.225734
-0.224248
-0.222529
-0.220501
-0.218146
-0.215869
-0.213379
-0.21067
-0.20774
-0.204569
-0.201158
-0.197513
-0.193637
-0.189535
-0.185213
-0.180685
-0.175964
-0.17107
-0.166024
-0.160851
-0.155579
-0.150236
-0.144851
-0.139455
-0.134076
-0.128742
-0.123479
-0.118311
-0.113258
-0.108338
-0.103565
-0.0989481
-0.0944954
-0.0902099
-0.0860917
-0.0821383
-0.0783442
-0.0747019
-0.0712022
-0.0678346
-0.0645876
-0.0614497
-0.0584091
-0.0554548
-0.0525763
-0.0497644
-0.0470112
-0.0443101
-0.0416563
-0.0390465
-0.0364788
-0.0339532
-0.0314707
-0.029034
-0.026646
-0.0243121
-0.0220362
-0.0198256
-0.0176845
-0.015622
-0.0136411
-0.011753
-0.00995804
-0.00827032
-0.00668471
-0.00521974
-0.00386025
-0.00263109
-0.00149711
-0.000492192
-0.224082
-0.223646
-0.222913
-0.221926
-0.220699
-0.219237
-0.217519
-0.215524
-0.213196
-0.210678
-0.208034
-0.205201
-0.202136
-0.198833
-0.1953
-0.191539
-0.187557
-0.183359
-0.178959
-0.17437
-0.169613
-0.164707
-0.159677
-0.15455
-0.149352
-0.144113
-0.138859
-0.133619
-0.12842
-0.123285
-0.118237
-0.113296
-0.108478
-0.103796
-0.0992606
-0.0948781
-0.0906521
-0.0865829
-0.0826683
-0.0789036
-0.0752821
-0.0717955
-0.0684342
-0.065188
-0.0620462
-0.0589982
-0.0560339
-0.0531438
-0.0503195
-0.0475538
-0.0448407
-0.0421759
-0.0395563
-0.0369804
-0.0344481
-0.0319603
-0.0295196
-0.0271286
-0.0247923
-0.0225143
-0.0203012
-0.0181566
-0.016089
-0.0141005
-0.0122017
-0.0103913
-0.00868327
-0.00706951
-0.0055692
-0.00416155
-0.00287447
-0.00166178
-0.000565109
-0.2156
-0.215527
-0.215101
-0.214384
-0.213393
-0.212116
-0.210551
-0.20873
-0.206782
-0.20475
-0.202464
-0.199884
-0.197044
-0.193966
-0.190657
-0.187122
-0.183368
-0.179405
-0.175245
-0.170904
-0.166399
-0.161752
-0.156984
-0.152121
-0.147186
-0.142208
-0.13721
-0.132218
-0.127257
-0.122348
-0.117513
-0.112768
-0.10813
-0.103611
-0.0992199
-0.0949636
-0.0908461
-0.0868682
-0.0830287
-0.0793241
-0.0757492
-0.072297
-0.0689599
-0.065729
-0.0625957
-0.0595507
-0.0565856
-0.0536923
-0.0508636
-0.0480932
-0.0453762
-0.0427085
-0.0400877
-0.0375123
-0.0349823
-0.0324983
-0.0300628
-0.0276777
-0.0253474
-0.0230748
-0.020866
-0.0187233
-0.0166547
-0.0146606
-0.0127514
-0.0109232
-0.00919034
-0.00754048
-0.00599491
-0.00452514
-0.00316493
-0.00185459
-0.000648958
-0.207291
-0.207594
-0.207502
-0.2071
-0.206427
-0.205495
-0.204319
-0.202918
-0.201279
-0.199346
-0.197147
-0.194733
-0.192095
-0.189227
-0.18613
-0.182812
-0.179281
-0.175547
-0.171624
-0.167525
-0.163269
-0.158874
-0.154362
-0.149754
-0.145075
-0.140347
-0.135595
-0.130841
-0.126107
-0.121415
-0.116781
-0.112224
-0.107757
-0.103392
-0.0991381
-0.0950023
-0.0909886
-0.0870985
-0.0833318
-0.0796861
-0.0761574
-0.0727404
-0.0694288
-0.0662155
-0.0630931
-0.0600543
-0.0570918
-0.0541987
-0.0513691
-0.0485974
-0.0458796
-0.043212
-0.0405927
-0.0380202
-0.0354945
-0.033016
-0.0305867
-0.0282082
-0.0258844
-0.0236172
-0.0214123
-0.0192706
-0.0172
-0.0151989
-0.0132777
-0.0114301
-0.00967074
-0.00798363
-0.00639188
-0.00486098
-0.00342969
-0.00202817
-0.000721941
-0.199273
-0.199916
-0.200139
-0.200036
-0.199654
-0.199008
-0.198092
-0.196894
-0.195417
-0.193694
-0.191756
-0.189581
-0.187168
-0.184518
-0.181641
-0.178545
-0.175241
-0.171738
-0.168051
-0.164194
-0.160182
-0.156035
-0.151772
-0.147414
-0.142981
-0.138497
-0.133981
-0.129456
-0.124941
-0.120455
-0.116016
-0.111639
-0.107337
-0.103121
-0.0990012
-0.0949832
-0.0910716
-0.0872688
-0.0835753
-0.0799897
-0.0765094
-0.0731302
-0.0698474
-0.0666553
-0.0635479
-0.0605191
-0.0575631
-0.054674
-0.0518468
-0.0490771
-0.0463611
-0.043696
-0.0410799
-0.0385115
-0.0359908
-0.0335179
-0.0310947
-0.0287221
-0.0264037
-0.0241404
-0.0219376
-0.0197952
-0.0177203
-0.0157101
-0.0137748
-0.0119059
-0.0101185
-0.00839354
-0.00675559
-0.00516583
-0.00366671
-0.00218157
-0.000783524
-0.19155
-0.192503
-0.193019
-0.193191
-0.19307
-0.192666
-0.191977
-0.191004
-0.189762
-0.188277
-0.186557
-0.184593
-0.182386
-0.179945
-0.177279
-0.174399
-0.171314
-0.168036
-0.164577
-0.160951
-0.157174
-0.153264
-0.149239
-0.145117
-0.140919
-0.136665
-0.132373
-0.128065
-0.123758
-0.119469
-0.115215
-0.111009
-0.106865
-0.102794
-0.0988028
-0.0948993
-0.091088
-0.0873718
-0.0837519
-0.0802279
-0.0767981
-0.0734597
-0.0702091
-0.0670419
-0.0639533
-0.0609386
-0.0579929
-0.0551115
-0.0522902
-0.0495253
-0.0468138
-0.0441531
-0.0415417
-0.0389783
-0.0364631
-0.0339959
-0.0315783
-0.0292108
-0.0268965
-0.0246359
-0.0224335
-0.0202885
-0.0182076
-0.0161868
-0.0142358
-0.0123447
-0.0105286
-0.00876638
-0.00708356
-0.00543836
-0.00387598
-0.00231535
-0.000835131
-0.184166
-0.185399
-0.186189
-0.186618
-0.186739
-0.186566
-0.186105
-0.18536
-0.184346
-0.183076
-0.181556
-0.179791
-0.177785
-0.175547
-0.173086
-0.170414
-0.167541
-0.164477
-0.161235
-0.15783
-0.154275
-0.150589
-0.146788
-0.142889
-0.138911
-0.134873
-0.130792
-0.126687
-0.122575
-0.118471
-0.114392
-0.110349
-0.106355
-0.10242
-0.0985528
-0.0947599
-0.0910463
-0.0874152
-0.0838685
-0.0804067
-0.077029
-0.0737336
-0.0705179
-0.0673786
-0.0643123
-0.061315
-0.0583829
-0.0555123
-0.0526998
-0.0499422
-0.0472372
-0.0445825
-0.0419769
-0.0394193
-0.0369098
-0.0344479
-0.0320353
-0.0296719
-0.0273606
-0.025101
-0.0228976
-0.0207485
-0.01866
-0.0166272
-0.0146595
-0.0127457
-0.0109011
-0.00910277
-0.0073772
-0.00568043
-0.00405995
-0.00243179
-0.000878842
-0.177152
-0.178636
-0.179677
-0.180347
-0.180696
-0.180744
-0.1805
-0.17997
-0.179165
-0.178094
-0.176768
-0.175195
-0.173383
-0.171342
-0.169079
-0.166606
-0.163934
-0.161074
-0.158038
-0.154841
-0.151497
-0.148021
-0.144429
-0.140739
-0.136967
-0.133131
-0.129247
-0.125332
-0.121402
-0.117472
-0.113556
-0.109666
-0.105814
-0.102009
-0.0982604
-0.0945737
-0.0909545
-0.0874066
-0.0839323
-0.0805328
-0.077208
-0.0739571
-0.0707784
-0.0676696
-0.0646281
-0.0616509
-0.0587352
-0.055878
-0.0530766
-0.0503284
-0.0476315
-0.0449841
-0.0423852
-0.0398337
-0.0373299
-0.0348731
-0.0324647
-0.0301044
-0.0277949
-0.0255351
-0.0233292
-0.0211747
-0.0190775
-0.0170318
-0.0150468
-0.0131103
-0.0112378
-0.00940497
-0.0076392
-0.00589492
-0.0042216
-0.00253325
-0.000916233
-0.170516
-0.172224
-0.173493
-0.174386
-0.174948
-0.175204
-0.175164
-0.174833
-0.174221
-0.17334
-0.172201
-0.170814
-0.169189
-0.167335
-0.165261
-0.162978
-0.160497
-0.15783
-0.154989
-0.151988
-0.148841
-0.145562
-0.142167
-0.138671
-0.135092
-0.131444
-0.127744
-0.124006
-0.120247
-0.116479
-0.112716
-0.10897
-0.105252
-0.10157
-0.0979335
-0.0943485
-0.0908204
-0.0873534
-0.0839501
-0.0806124
-0.0773409
-0.0741354
-0.070995
-0.0679185
-0.0649038
-0.061949
-0.0590519
-0.05621
-0.0534216
-0.0506844
-0.047997
-0.0453578
-0.0427662
-0.0402212
-0.0377229
-0.0352708
-0.0328661
-0.0305081
-0.0281993
-0.0259383
-0.0237289
-0.0215679
-0.0194611
-0.0174019
-0.0153996
-0.0134408
-0.0115413
-0.00967592
-0.00787271
-0.00608492
-0.00436382
-0.00262192
-0.00094854
-0.164256
-0.166164
-0.167638
-0.168735
-0.169496
-0.169945
-0.170093
-0.169947
-0.169518
-0.168818
-0.167858
-0.166649
-0.165203
-0.163527
-0.161632
-0.159529
-0.157229
-0.154744
-0.152086
-0.149269
-0.146307
-0.143212
-0.140001
-0.136688
-0.133288
-0.129815
-0.126286
-0.122714
-0.119114
-0.115498
-0.111879
-0.108268
-0.104675
-0.10111
-0.0975798
-0.0940919
-0.0906513
-0.0872625
-0.0839285
-0.0806516
-0.0774331
-0.0742734
-0.0711723
-0.0681291
-0.0651428
-0.0622119
-0.0593348
-0.05651
-0.0537359
-0.0510109
-0.048334
-0.0457039
-0.0431201
-0.0405817
-0.038089
-0.0356412
-0.0332396
-0.0308833
-0.0285745
-0.0263114
-0.0240976
-0.0219295
-0.0198127
-0.0177398
-0.0157202
-0.0137398
-0.0118147
-0.00991876
-0.00808092
-0.00625345
-0.00448931
-0.00269973
-0.000976728
-0.158368
-0.160451
-0.162111
-0.163392
-0.164336
-0.164963
-0.165286
-0.165314
-0.165058
-0.164528
-0.163738
-0.162698
-0.16142
-0.159913
-0.158187
-0.156254
-0.154125
-0.151812
-0.149327
-0.146684
-0.143894
-0.140973
-0.137933
-0.13479
-0.131556
-0.128248
-0.124878
-0.121461
-0.118008
-0.114534
-0.111049
-0.107565
-0.10409
-0.100635
-0.0972063
-0.0938107
-0.0904539
-0.0871404
-0.0838737
-0.0806563
-0.07749
-0.0743759
-0.0713144
-0.0683053
-0.0653482
-0.0624422
-0.0595864
-0.0567797
-0.054021
-0.0513092
-0.0486435
-0.046023
-0.0434473
-0.0409157
-0.0384285
-0.0359849
-0.033586
-0.0312309
-0.0289214
-0.0266556
-0.024437
-0.0222613
-0.0201342
-0.0180478
-0.0160113
-0.0140103
-0.0120609
-0.0101365
-0.00826682
-0.00640324
-0.00460039
-0.00276831
-0.00100151
-0.152844
-0.155082
-0.156906
-0.158356
-0.159465
-0.160257
-0.160743
-0.160933
-0.160837
-0.160468
-0.159838
-0.158957
-0.157838
-0.15649
-0.154924
-0.153152
-0.151184
-0.149033
-0.14671
-0.144229
-0.141602
-0.138842
-0.135962
-0.132977
-0.1299
-0.126744
-0.123522
-0.120248
-0.116935
-0.113592
-0.110233
-0.106867
-0.103504
-0.100152
-0.096819
-0.0935112
-0.0902343
-0.086993
-0.0837912
-0.0806316
-0.0775166
-0.0744475
-0.0714254
-0.0684506
-0.0655231
-0.0626427
-0.0598089
-0.057021
-0.0542785
-0.0515805
-0.0489266
-0.0463161
-0.0437488
-0.041224
-0.0387422
-0.0363026
-0.0339061
-0.0315517
-0.0292412
-0.0269724
-0.0247485
-0.0225652
-0.0204278
-0.0183281
-0.0162755
-0.0142547
-0.0122827
-0.0103319
-0.00843304
-0.00653669
-0.00469901
-0.00282901
-0.00102343
-0.147675
-0.15005
-0.15202
-0.15362
-0.154882
-0.155824
-0.15646
-0.1568
-0.156854
-0.156635
-0.156155
-0.155424
-0.154454
-0.153256
-0.151841
-0.150219
-0.148403
-0.146403
-0.144233
-0.141903
-0.139428
-0.136818
-0.134088
-0.131251
-0.128318
-0.125304
-0.122221
-0.119081
-0.115896
-0.112677
-0.109435
-0.10618
-0.102921
-0.0996667
-0.0964237
-0.0931989
-0.089998
-0.0868258
-0.0836862
-0.0805826
-0.0775173
-0.0744924
-0.0715092
-0.0685684
-0.0656707
-0.0628161
-0.0600046
-0.057236
-0.0545101
-0.0518263
-0.0491846
-0.0465843
-0.0440255
-0.0415076
-0.0390311
-0.0365952
-0.034201
-0.0318471
-0.0295353
-0.0272632
-0.025034
-0.022843
-0.0206955
-0.018583
-0.0165149
-0.0144757
-0.0124825
-0.0105074
-0.00858188
-0.0066558
-0.00478682
-0.0028829
-0.00104289
-0.142853
-0.145348
-0.147447
-0.149182
-0.15058
-0.15166
-0.152434
-0.152913
-0.153106
-0.153027
-0.152686
-0.152095
-0.151265
-0.150208
-0.148934
-0.147454
-0.145779
-0.143922
-0.141893
-0.139706
-0.137372
-0.134903
-0.132312
-0.129611
-0.126814
-0.123932
-0.120977
-0.117961
-0.114896
-0.111792
-0.10866
-0.105508
-0.102347
-0.0991835
-0.0960253
-0.092879
-0.08975
-0.0866435
-0.0835636
-0.0805136
-0.0774965
-0.0745145
-0.0715693
-0.068662
-0.0657937
-0.0629649
-0.0601758
-0.0574267
-0.0547175
-0.0520482
-0.0494187
-0.0468287
-0.0442784
-0.0417674
-0.0392962
-0.036864
-0.0344718
-0.0321182
-0.029805
-0.0275296
-0.025295
-0.0230964
-0.0209392
-0.0188145
-0.0167319
-0.0146754
-0.0126626
-0.0106652
-0.00871528
-0.00676231
-0.00486515
-0.00293088
-0.00106021
-0.138369
-0.140967
-0.14318
-0.145036
-0.146557
-0.147762
-0.148662
-0.149268
-0.14959
-0.14964
-0.149429
-0.148969
-0.14827
-0.147344
-0.146201
-0.144853
-0.143311
-0.141587
-0.139691
-0.137635
-0.135432
-0.133094
-0.130633
-0.12806
-0.125387
-0.122628
-0.119792
-0.116892
-0.113938
-0.110941
-0.10791
-0.104855
-0.101785
-0.098707
-0.0956285
-0.0925559
-0.089495
-0.0864507
-0.0834275
-0.0804289
-0.077458
-0.0745174
-0.071609
-0.0687345
-0.0658951
-0.0630916
-0.0603248
-0.0575949
-0.0549025
-0.0522475
-0.0496303
-0.0470506
-0.0445089
-0.0420047
-0.0395387
-0.03711
-0.0347197
-0.0323663
-0.0300517
-0.0277729
-0.0255332
-0.0233273
-0.0211608
-0.0190245
-0.0169283
-0.0148557
-0.0128249
-0.010807
-0.00883493
-0.00685763
-0.00493513
-0.00297368
-0.00107564
-0.134213
-0.1369
-0.139214
-0.141175
-0.142807
-0.144125
-0.14514
-0.145863
-0.146303
-0.146472
-0.146381
-0.146042
-0.145465
-0.144661
-0.143641
-0.142416
-0.140997
-0.139396
-0.137623
-0.13569
-0.13361
-0.131393
-0.129051
-0.126596
-0.124039
-0.121393
-0.118668
-0.115875
-0.113024
-0.110126
-0.10719
-0.104225
-0.101239
-0.0982412
-0.0952372
-0.0922338
-0.0892368
-0.0862514
-0.0832818
-0.080332
-0.0774053
-0.0745044
-0.0716316
-0.0687887
-0.0659774
-0.0631986
-0.0604535
-0.0577427
-0.0550668
-0.052426
-0.0498209
-0.0472515
-0.0447182
-0.0422207
-0.0397597
-0.0373344
-0.034946
-0.0325928
-0.0302766
-0.0279946
-0.0257499
-0.0235371
-0.0213619
-0.0192148
-0.0171058
-0.0150184
-0.012971
-0.0109344
-0.00894226
-0.00694297
-0.00499769
-0.00301189
-0.00108941
-0.130375
-0.133139
-0.135539
-0.137595
-0.139326
-0.140745
-0.141865
-0.142693
-0.143242
-0.14352
-0.14354
-0.143313
-0.142848
-0.142157
-0.141251
-0.14014
-0.138835
-0.137348
-0.135689
-0.13387
-0.131903
-0.129798
-0.127567
-0.125221
-0.122772
-0.12023
-0.117607
-0.114912
-0.112157
-0.109351
-0.106502
-0.103621
-0.100714
-0.0977897
-0.0948551
-0.0919164
-0.0889794
-0.0860491
-0.0831301
-0.0802265
-0.0773417
-0.0744786
-0.0716397
-0.0688273
-0.0660429
-0.0632882
-0.0605642
-0.0578718
-0.055212
-0.0525851
-0.0499919
-0.0474324
-0.0449073
-0.0424164
-0.0399603
-0.0375384
-0.0351517
-0.0327987
-0.0304811
-0.028196
-0.0259465
-0.0237273
-0.0215438
-0.0193867
-0.017266
-0.015165
-0.0131024
-0.0110488
-0.00903846
-0.00701937
-0.00505361
-0.003046
-0.00110168
-0.126846
-0.129675
-0.132151
-0.134289
-0.136107
-0.137618
-0.138831
-0.139756
-0.140403
-0.140782
-0.140904
-0.140779
-0.140418
-0.139831
-0.13903
-0.138024
-0.136824
-0.135443
-0.133889
-0.132175
-0.130311
-0.12831
-0.12618
-0.123935
-0.121584
-0.119139
-0.11661
-0.114007
-0.111339
-0.108617
-0.10585
-0.103045
-0.100211
-0.0973557
-0.0944856
-0.0916071
-0.0887259
-0.0858472
-0.0829757
-0.0801154
-0.0772701
-0.0744427
-0.0716361
-0.0688526
-0.0660941
-0.0633623
-0.0606586
-0.0579841
-0.0553398
-0.0527264
-0.0501446
-0.0475948
-0.0450777
-0.0425931
-0.0401418
-0.037723
-0.0353381
-0.0329852
-0.0306664
-0.0283784
-0.0261245
-0.0238992
-0.0217082
-0.0195417
-0.0174102
-0.0152968
-0.0132203
-0.0111514
-0.0091246
-0.00708769
-0.00510357
-0.00307645
-0.00111262
-0.123614
-0.126499
-0.12904
-0.131251
-0.133146
-0.134738
-0.136035
-0.137047
-0.137784
-0.138254
-0.138468
-0.138437
-0.138171
-0.13768
-0.136975
-0.136066
-0.134963
-0.133678
-0.132221
-0.130603
-0.128835
-0.126928
-0.124892
-0.122739
-0.120479
-0.118122
-0.115679
-0.113159
-0.110572
-0.107928
-0.105235
-0.102501
-0.0997342