/*--------------------------------*- C++ -*----------------------------------*\
  =========                 |
  \\      /  F ield         | OpenFOAM: The Open Source CFD Toolbox
   \\    /   O peration     | Website:  https://openfoam.org
    \\  /    A nd           | Version:  7
     \\/     M anipulation  |
\*---------------------------------------------------------------------------*/
FoamFile
{
    version     2.0;
    format      ascii;
    class       volVectorField;
    location    "65.001";
    object      U;
}
// * * * * * * * * * * * * * * * * * * * * * * * * * * * * * * * * * * * * * //

dimensions      [0 1 -1 0 0 0 0];

internalField   nonuniform List<vector> 
3700
(
(-0.208925 0.00216208 2.07966e-22)
(-0.213159 0.00233714 -2.6668e-21)
(-0.216828 0.00255538 2.90483e-21)
(-0.219873 0.00279067 -3.59507e-21)
(-0.222371 0.00302852 1.91267e-21)
(-0.224336 0.00323593 -7.04526e-22)
(-0.225804 0.00338636 3.04735e-21)
(-0.226797 0.00346984 -1.7067e-21)
(-0.227333 0.00346996 1.55425e-21)
(-0.227427 0.00337313 -7.2193e-22)
(-0.227091 0.00316536 -1.19098e-21)
(-0.226333 0.0028352 -6.23506e-22)
(-0.22516 0.00237611 6.15529e-22)
(-0.223574 0.00178591 -5.15896e-22)
(-0.221579 0.0010912 7.34063e-22)
(-0.219188 0.000246973 -2.61925e-22)
(-0.216403 -0.000716959 -9.12723e-22)
(-0.213222 -0.00177517 1.96405e-21)
(-0.20964 -0.00290399 -2.29938e-21)
(-0.205665 -0.00408506 -4.13058e-22)
(-0.201304 -0.00528207 2.07803e-21)
(-0.196556 -0.00646055 -3.15227e-22)
(-0.191422 -0.00758872 -3.3029e-22)
(-0.185907 -0.00864418 3.84319e-22)
(-0.180023 -0.00958139 -1.58945e-21)
(-0.173772 -0.0103698 1.20333e-21)
(-0.167161 -0.0109813 8.33664e-23)
(-0.160201 -0.0113907 -3.46645e-22)
(-0.152899 -0.0115786 -1.46261e-21)
(-0.145263 -0.0115305 1.2254e-21)
(-0.137302 -0.0112409 6.55788e-22)
(-0.129032 -0.0107146 -1.16916e-21)
(-0.120465 -0.00994653 -3.07032e-23)
(-0.111616 -0.00895206 -3.82364e-22)
(-0.102492 -0.00774489 1.03341e-21)
(-0.0931161 -0.00637166 -6.68057e-22)
(-0.0835124 -0.00484041 1.85032e-22)
(-0.0736865 -0.00318938 -3.49606e-22)
(-0.0636622 -0.00145707 -8.68008e-23)
(-0.0534606 0.000311826 2.05062e-22)
(-0.0430905 0.00207855 -9.55823e-23)
(-0.0325788 0.00378116 4.84292e-23)
(-0.0219534 0.00539614 -9.25527e-23)
(-0.0112237 0.00689436 9.43248e-23)
(-0.000401628 0.00822753 -3.98879e-23)
(0.0104837 0.0093837 -1.15484e-22)
(0.0214105 0.0103217 9.3048e-24)
(0.032368 0.0110191 -3.09817e-22)
(0.0433412 0.0114625 3.03409e-22)
(0.0543145 0.0116431 -9.92557e-23)
(0.0652734 0.0115579 -1.66758e-22)
(0.0762038 0.0112096 1.00006e-22)
(0.0870922 0.0106065 -9.69667e-23)
(0.0979264 0.0097618 -1.06886e-23)
(0.108697 0.00869339 -6.58973e-23)
(0.119386 0.00743391 2.35124e-23)
(0.12998 0.00600191 1.71099e-23)
(0.140471 0.0044271 -3.35296e-23)
(0.150852 0.00274206 8.67098e-24)
(0.161109 0.000968667 2.56197e-24)
(0.171227 -0.000840888 -8.01118e-24)
(0.181204 -0.00265658 -1.85218e-23)
(0.191034 -0.00444466 1.04119e-23)
(0.200709 -0.00617113 1.68449e-23)
(0.210227 -0.00780538 -2.28626e-24)
(0.219584 -0.0093165 -2.79362e-23)
(0.228784 -0.0106771 -4.4537e-24)
(0.237822 -0.011862 2.53204e-24)
(0.246721 -0.0128456 -1.53883e-24)
(0.255446 -0.0136069 2.72475e-24)
(0.264098 -0.01412 2.84825e-24)
(0.272484 -0.0143751 -3.65011e-24)
(0.281082 -0.0143145 -2.14348e-24)
(0.288854 -0.0139956 -1.55436e-25)
(0.298209 -0.0131388 -5.07554e-26)
(0.303823 -0.0123285 -1.51321e-25)
(0.317718 -0.00969455 7.63299e-25)
(-0.199905 0.00463174 -1.54762e-21)
(-0.20389 0.0044289 4.81235e-21)
(-0.207325 0.0043009 -4.40129e-21)
(-0.210149 0.00421691 -2.91679e-21)
(-0.212435 0.00415456 -1.73637e-21)
(-0.214196 0.00408031 2.79985e-21)
(-0.215463 0.00396525 -3.91353e-21)
(-0.216256 0.00379461 1.12084e-20)
(-0.216592 0.0035513 -4.99991e-21)
(-0.216487 0.00322042 -8.63313e-22)
(-0.215953 0.00278566 1.77236e-21)
(-0.215 0.00223752 -2.62663e-21)
(-0.213635 0.00157078 3.09271e-21)
(-0.211849 0.000798877 -2.06938e-21)
(-0.209675 -0.000148594 -3.27979e-21)
(-0.207128 -0.00122404 -1.20986e-21)
(-0.204179 -0.00241148 4.56994e-21)
(-0.200839 -0.00368798 -1.09834e-21)
(-0.197115 -0.00503369 6.9779e-21)
(-0.193014 -0.00642711 -7.3389e-21)
(-0.188542 -0.00783458 -8.92e-22)
(-0.183703 -0.00922122 3.88715e-21)
(-0.178502 -0.0105538 -3.75624e-22)
(-0.172946 -0.0118031 1.34509e-21)
(-0.167045 -0.012932 -3.55749e-21)
(-0.160803 -0.0139091 4.58718e-21)
(-0.154229 -0.0147035 -2.95522e-21)
(-0.147332 -0.0152908 1.65638e-21)
(-0.140119 -0.0156512 -4.87627e-22)
(-0.132597 -0.0157696 1.95068e-21)
(-0.124774 -0.0156386 2.99959e-23)
(-0.116659 -0.0152592 -1.09423e-21)
(-0.108263 -0.014633 -1.34394e-21)
(-0.0995952 -0.0137726 3.34194e-21)
(-0.090663 -0.0126981 -1.77694e-21)
(-0.081479 -0.0114415 1.05747e-22)
(-0.0720587 -0.0100214 5.11323e-22)
(-0.0624078 -0.00847238 -1.47124e-21)
(-0.0525446 -0.00683205 1.48663e-21)
(-0.0424836 -0.00514721 -7.71116e-22)
(-0.0322412 -0.00345274 -1.65683e-22)
(-0.0218304 -0.0018051 7.89791e-22)
(-0.0112608 -0.000232979 4.97618e-22)
(-0.0005546 0.00123257 -1.37632e-21)
(0.0102787 0.0025495 1.00318e-21)
(0.0212106 0.00365716 -9.69251e-22)
(0.0322152 0.00456052 1.86345e-21)
(0.0432836 0.00524093 -8.88564e-22)
(0.0543988 0.00568039 -5.93631e-22)
(0.0655413 0.00586826 6.28471e-22)
(0.076692 0.00580055 -2.21407e-22)
(0.0878319 0.00547954 9.77463e-23)
(0.0989417 0.0049135 -5.42365e-24)
(0.110003 0.00411622 -4.84193e-23)
(0.121003 0.00310527 4.67275e-22)
(0.131917 0.00188656 -1.64001e-22)
(0.142723 0.000506179 1.42026e-22)
(0.153408 -0.00100417 -7.34808e-23)
(0.163951 -0.00261514 -2.24052e-22)
(0.174344 -0.00430768 -1.02761e-22)
(0.184575 -0.00603134 2.00486e-22)
(0.194625 -0.00775506 -5.03548e-23)
(0.204486 -0.00944693 -1.33157e-23)
(0.214151 -0.0110754 8.51694e-23)
(0.223614 -0.0126103 4.17049e-24)
(0.232871 -0.0140218 6.9693e-24)
(0.241927 -0.0152843 1.43438e-23)
(0.250777 -0.0163724 -2.26668e-23)
(0.259446 -0.0172641 3.6448e-23)
(0.267901 -0.0179375 1.57545e-23)
(0.27625 -0.0183705 -3.36665e-23)
(0.284297 -0.0185526 6.2726e-24)
(0.292537 -0.0184263 1.38501e-23)
(0.299931 -0.0180662 -1.67841e-24)
(0.308892 -0.0171454 4.91687e-26)
(0.314178 -0.0163859 3.21628e-25)
(0.327589 -0.0136726 -1.52246e-24)
(-0.181929 0.00689336 8.59861e-21)
(-0.185451 0.00632443 -1.66693e-20)
(-0.188451 0.00586308 1.23753e-20)
(-0.190868 0.00547262 -8.92252e-22)
(-0.192764 0.00512188 -8.97283e-21)
(-0.194153 0.00477388 1.11082e-20)
(-0.195056 0.00439885 3.62877e-22)
(-0.195492 0.0039797 4.54687e-21)
(-0.195476 0.00349836 -4.13941e-21)
(-0.195025 0.00293932 -2.31626e-21)
(-0.194151 0.00228737 1.19083e-20)
(-0.19286 0.00153254 -1.60582e-20)
(-0.191154 0.000674142 1.0894e-20)
(-0.189074 -0.000351419 2.21184e-21)
(-0.186618 -0.00154099 -1.65321e-20)
(-0.183757 -0.00282938 1.02402e-20)
(-0.180519 -0.00422054 -9.68235e-22)
(-0.176907 -0.00570129 -2.17941e-21)
(-0.172929 -0.00724977 -5.1593e-22)
(-0.168592 -0.0088407 -6.15279e-21)
(-0.163906 -0.0104425 2.89559e-21)
(-0.158878 -0.0120215 -1.92127e-21)
(-0.153515 -0.0135437 5.42769e-21)
(-0.147828 -0.0149768 -2.19408e-21)
(-0.141825 -0.016285 4.55072e-21)
(-0.135514 -0.017438 -4.03361e-21)
(-0.128902 -0.0184016 3.89398e-21)
(-0.122002 -0.0191537 -5.51644e-21)
(-0.114817 -0.0196742 -3.04413e-21)
(-0.107355 -0.0199483 3.85763e-21)
(-0.099622 -0.0199685 1.52353e-21)
(-0.0916241 -0.0197339 -2.58753e-21)
(-0.0833669 -0.0192476 -9.97947e-22)
(-0.074858 -0.0185205 4.03701e-21)
(-0.0661008 -0.0175762 -2.75852e-21)
(-0.0571014 -0.0164385 8.17508e-22)
(-0.0478693 -0.0151337 -3.47725e-21)
(-0.0384054 -0.013696 3.14908e-21)
(-0.0287262 -0.0121551 -2.10385e-21)
(-0.0188398 -0.0105711 1.67893e-21)
(-0.00875075 -0.0089709 -9.46713e-22)
(0.00152543 -0.00738753 -2.92428e-22)
(0.0119788 -0.00587225 -4.45786e-22)
(0.0225944 -0.00446189 -1.45383e-21)
(0.033344 -0.00319295 2.33717e-21)
(0.0442194 -0.00211962 2.14631e-22)
(0.0552162 -0.00124242 -8.28903e-22)
(0.0663027 -0.000580612 4.9673e-22)
(0.0774567 -0.00015198 -1.1224e-22)
(0.0886575 3.29841e-05 2.17501e-22)
(0.0998829 -2.93779e-05 3.70177e-23)
(0.11111 -0.000336078 -1.88435e-23)
(0.122315 -0.000877904 -1.27302e-21)
(0.133475 -0.00164007 3.42259e-22)
(0.144559 -0.00260428 -2.08739e-22)
(0.15555 -0.0037647 3.73876e-22)
(0.166431 -0.00507825 -3.74734e-22)
(0.177172 -0.0065142 1.32904e-23)
(0.18775 -0.00804398 -2.97256e-22)
(0.198147 -0.00962846 4.57156e-22)
(0.208348 -0.0112448 -8.05619e-23)
(0.218335 -0.0128573 -1.87518e-23)
(0.228095 -0.0144339 -1.62895e-23)
(0.237618 -0.0159436 4.55386e-23)
(0.2469 -0.017358 3.03585e-23)
(0.255934 -0.0186487 7.42843e-23)
(0.264726 -0.019792 -3.94042e-23)
(0.27327 -0.0207635 -3.95261e-23)
(0.281598 -0.0215439 5.50257e-23)
(0.289671 -0.0221122 -7.99296e-24)
(0.297613 -0.0224485 3.23236e-23)
(0.305214 -0.0225461 -7.73739e-24)
(0.313001 -0.0223412 2.8131e-24)
(0.319907 -0.0219392 5.81333e-25)
(0.328384 -0.0209492 -2.79965e-24)
(0.333244 -0.0202508 1.24142e-24)
(0.345997 -0.0175056 2.6884e-25)
(-0.155074 0.00882922 9.80834e-21)
(-0.157955 0.00791332 -1.49554e-20)
(-0.160352 0.00713627 1.68583e-20)
(-0.162204 0.00645245 -2.03261e-21)
(-0.163563 0.00582526 5.36127e-21)
(-0.164438 0.00521407 5.46041e-21)
(-0.164844 0.00458693 -1.07728e-20)
(-0.164793 0.00392597 5.14247e-21)
(-0.1643 0.00321318 -1.05549e-20)
(-0.163381 0.00243781 -5.3314e-22)
(-0.162045 0.00157989 2.35639e-20)
(-0.1603 0.000633527 -2.01956e-20)
(-0.158187 -0.000484008 -2.6225e-21)
(-0.155701 -0.00176742 1.30392e-20)
(-0.152817 -0.00313657 -8.88701e-22)
(-0.14956 -0.00462061 -3.39801e-21)
(-0.145938 -0.00620968 1.9533e-21)
(-0.141961 -0.00788462 2.47273e-21)
(-0.137637 -0.00962377 2.01819e-21)
(-0.132978 -0.011401 -7.02341e-22)
(-0.127995 -0.0131848 -8.13525e-21)
(-0.122698 -0.0149418 4.65324e-21)
(-0.117098 -0.0166379 5.37823e-21)
(-0.111206 -0.0182391 4.54256e-21)
(-0.105035 -0.0197105 -1.37378e-20)
(-0.0985894 -0.0210246 1.07124e-20)
(-0.0918811 -0.022141 -5.22311e-21)
(-0.0849223 -0.0230416 3.02406e-21)
(-0.0777176 -0.0237066 -5.84179e-21)
(-0.0702723 -0.0241214 6.76264e-21)
(-0.0625911 -0.0242785 -1.85651e-21)
(-0.054678 -0.0241766 1.13456e-21)
(-0.0465344 -0.023819 2.36097e-21)
(-0.0381668 -0.0232151 2.06157e-21)
(-0.0295749 -0.0223933 -1.51385e-21)
(-0.020758 -0.0213722 5.65649e-23)
(-0.0117215 -0.02018 9.25243e-22)
(-0.00245852 -0.0188493 -3.325e-21)
(0.00701331 -0.0174207 -4.58558e-22)
(0.0166895 -0.0159324 2.60608e-21)
(0.0265786 -0.0144239 -1.56458e-21)
(0.0366638 -0.012935 2.79143e-21)
(0.0469372 -0.011507 9.77955e-22)
(0.0573867 -0.0101792 -2.19783e-21)
(0.0679932 -0.00898773 1.60657e-21)
(0.0787446 -0.00794388 -3.08865e-22)
(0.0896285 -0.00709106 9.86005e-22)
(0.10062 -0.00645175 -5.092e-22)
(0.111695 -0.00603906 -2.32185e-22)
(0.122832 -0.00586127 -1.30817e-22)
(0.134005 -0.00592089 2.55316e-22)
(0.145187 -0.00621438 8.898e-22)
(0.156353 -0.0067325 -1.25053e-21)
(0.167472 -0.00746102 6.95017e-22)
(0.178513 -0.00838161 3.12897e-22)
(0.189452 -0.00946196 1.87556e-22)
(0.200265 -0.0106865 -2.13272e-22)
(0.21092 -0.0120273 7.31354e-22)
(0.22139 -0.0134521 -3.24497e-22)
(0.231655 -0.0149261 -4.01057e-22)
(0.241694 -0.0164218 4.54588e-23)
(0.251488 -0.0179066 4.8463e-22)
(0.261021 -0.01935 1.37807e-22)
(0.270283 -0.0207225 -2.37825e-22)
(0.279267 -0.0219974 1.52855e-23)
(0.287967 -0.0231484 -2.34907e-23)
(0.29639 -0.0241538 -1.64938e-24)
(0.304527 -0.0249909 5.71443e-23)
(0.312418 -0.0256425 -1.05479e-22)
(0.320017 -0.0260907 6.80019e-23)
(0.327467 -0.0263149 -1.6809e-23)
(0.334534 -0.0263187 -1.2215e-23)
(0.341794 -0.0260225 -5.9014e-24)
(0.348125 -0.0255788 -7.7441e-24)
(0.356045 -0.0245149 3.75323e-24)
(0.36041 -0.0238794 -5.95527e-25)
(0.372348 -0.0211515 -2.17213e-24)
(-0.119385 0.0103481 1.5905e-21)
(-0.121499 0.00911369 -1.32162e-20)
(-0.123171 0.00804377 2.39433e-20)
(-0.124351 0.00708578 -2.44912e-20)
(-0.12507 0.00619844 2.43974e-20)
(-0.125334 0.00533762 -9.42473e-21)
(-0.125149 0.00446869 -3.02675e-21)
(-0.124523 0.00357659 -2.76929e-20)
(-0.123465 0.00264443 4.27786e-20)
(-0.121992 0.00166143 -4.14864e-20)
(-0.120114 0.000620815 3.05256e-20)
(-0.117876 -0.000585345 -6.03512e-21)
(-0.115277 -0.00194557 6.49056e-23)
(-0.112283 -0.00340507 -4.64107e-21)
(-0.108916 -0.00497314 -1.31581e-21)
(-0.105193 -0.00664722 1.00173e-20)
(-0.101124 -0.00842269 -4.92368e-21)
(-0.0967192 -0.01028 -2.98029e-21)
(-0.0919916 -0.0121971 -4.52968e-21)
(-0.0869541 -0.0141471 -7.04078e-21)
(-0.0816202 -0.0160986 1.15747e-20)
(-0.0760034 -0.0180183 -1.36481e-20)
(-0.0701169 -0.0198716 8.83556e-21)
(-0.0639741 -0.021624 2.53921e-21)
(-0.0575919 -0.0232405 -8.55156e-21)
(-0.0509728 -0.0247013 7.79191e-21)
(-0.0441293 -0.0259516 -5.58804e-21)
(-0.0370788 -0.0269823 4.93797e-21)
(-0.0298239 -0.027774 -4.08886e-21)
(-0.0223694 -0.0283121 -5.66943e-21)
(-0.0147187 -0.028589 -6.56641e-21)
(-0.00687374 -0.0286032 1.08386e-20)
(0.00116845 -0.0283594 9.4013e-22)
(0.00940123 -0.0278725 1.08819e-21)
(0.0178268 -0.0271606 -6.50216e-21)
(0.0264545 -0.026247 2.18175e-22)
(0.0352817 -0.0251601 4.0065e-21)
(0.0443151 -0.0239317 -5.99105e-21)
(0.0535499 -0.0226122 3.63392e-21)
(0.0629836 -0.0212183 -2.37538e-21)
(0.0726227 -0.0198018 -2.03428e-21)
(0.0824592 -0.0184013 -1.81436e-21)
(0.0924874 -0.0170556 4.36796e-21)
(0.102697 -0.0158021 -1.21189e-21)
(0.113075 -0.0146747 -1.50848e-21)
(0.123608 -0.0136956 9.69911e-22)
(0.13428 -0.012896 -3.46143e-23)
(0.14507 -0.012296 -1.45816e-21)
(0.155955 -0.0119089 2.21707e-21)
(0.166909 -0.0117421 -2.41194e-21)
(0.177904 -0.0117978 -3.10412e-22)
(0.188913 -0.0120723 1.50034e-21)
(0.199904 -0.0125568 -1.82303e-21)
(0.210846 -0.0132373 9.87963e-22)
(0.221706 -0.0140951 7.49535e-22)
(0.232454 -0.0151031 -1.40029e-21)
(0.24306 -0.0162406 2.66524e-22)
(0.253493 -0.01748 -3.842e-22)
(0.263723 -0.0187912 -2.74868e-22)
(0.273725 -0.0201422 3.93423e-22)
(0.283476 -0.0215043 -2.65483e-22)
(0.292955 -0.0228472 -1.88672e-22)
(0.302147 -0.0241423 2.04042e-22)
(0.311038 -0.0253619 1.08433e-22)
(0.319622 -0.0264815 -1.43552e-22)
(0.32789 -0.0274768 -1.74074e-22)
(0.335854 -0.0283284 -5.29883e-23)
(0.343501 -0.0290162 4.89099e-23)
(0.350879 -0.0295243 4.13575e-23)
(0.357931 -0.02984 -7.31788e-23)
(0.364825 -0.0299388 -1.94799e-23)
(0.371293 -0.0298416 2.71494e-23)
(0.377972 -0.0294429 -2.0016e-23)
(0.383671 -0.0289578 -4.94785e-24)
(0.390976 -0.0278172 -5.40252e-24)
(0.39481 -0.0272381 -9.41656e-25)
(0.405803 -0.0245721 3.86727e-24)
(-0.0760874 0.00988002 2.81105e-20)
(-0.0769884 0.00854452 -3.40004e-20)
(-0.0774527 0.00733492 4.36524e-21)
(-0.0774935 0.00620639 1.51339e-20)
(-0.0771109 0.0051121 -1.53944e-20)
(-0.0762979 0.0040144 -2.42063e-20)
(-0.0750597 0.00289982 1.68687e-20)
(-0.0734049 0.00174634 2.14844e-20)
(-0.0713394 0.000612155 -4.89986e-21)
(-0.0689263 -0.000694072 2.1167e-20)
(-0.0661627 -0.00213992 -2.97529e-20)
(-0.0630151 -0.003668 -1.07708e-20)
(-0.0595006 -0.00532573 2.8376e-20)
(-0.0556252 -0.007083 -7.64573e-21)
(-0.0514112 -0.00893447 7.28903e-21)
(-0.0468719 -0.0108833 -3.00598e-20)
(-0.0420185 -0.0129094 3.03629e-20)
(-0.0368664 -0.0149901 -2.224e-20)
(-0.0314312 -0.0170978 2.35342e-21)
(-0.0257292 -0.0192014 2.26616e-20)
(-0.0197764 -0.0212672 -1.13403e-20)
(-0.0135889 -0.0232607 1.84661e-21)
(-0.00718179 -0.0251473 1.99158e-21)
(-0.00057926 -0.0268945 -1.47896e-20)
(0.00622206 -0.0284667 3.89458e-21)
(0.0132114 -0.0298361 2.64222e-21)
(0.02036 -0.0309816 2.08544e-21)
(0.027669 -0.0318828 4.51332e-21)
(0.0351348 -0.032526 -7.81051e-22)
(0.0427546 -0.0329045 4.37764e-21)
(0.0505277 -0.0330179 -2.1961e-21)
(0.0584574 -0.0328722 2.44731e-21)
(0.0665442 -0.0324871 -7.14931e-21)
(0.0747909 -0.0318713 7.57082e-21)
(0.0832078 -0.0310539 -5.85544e-21)
(0.0917985 -0.0300634 6.11106e-21)
(0.100571 -0.0289319 1.39433e-21)
(0.109528 -0.0277025 5.70743e-21)
(0.118671 -0.0264027 -7.3206e-21)
(0.128006 -0.0250765 -5.18588e-22)
(0.137532 -0.0237622 1.44279e-21)
(0.147245 -0.022498 3.0963e-21)
(0.157138 -0.0213195 5.44801e-21)
(0.1672 -0.0202589 -2.03361e-22)
(0.177418 -0.0193413 -5.33574e-21)
(0.187779 -0.0185924 3.00873e-21)
(0.198261 -0.0180311 2.0383e-21)
(0.20884 -0.01767 -2.17953e-21)
(0.21949 -0.0175158 -1.6569e-23)
(0.230184 -0.0175696 5.83631e-23)
(0.24089 -0.0178273 1.49606e-21)
(0.251576 -0.0182792 1.69244e-22)
(0.262208 -0.0189113 -8.47565e-22)
(0.272752 -0.0197046 4.82549e-22)
(0.283174 -0.020635 2.69888e-22)
(0.293442 -0.0216792 -1.10372e-22)
(0.303522 -0.0228104 1.12959e-21)
(0.313385 -0.0239997 3.58634e-22)
(0.323002 -0.0252174 -5.26251e-22)
(0.332349 -0.0264354 -3.44661e-22)
(0.341404 -0.0276252 6.38839e-22)
(0.35015 -0.0287602 -3.40991e-23)
(0.358573 -0.0298149 -2.13667e-23)
(0.366667 -0.0307668 3.28088e-22)
(0.374423 -0.0315944 5.88814e-23)
(0.381855 -0.0322799 3.02167e-23)
(0.388944 -0.0328072 1.5834e-22)
(0.395751 -0.0331601 2.03434e-23)
(0.402203 -0.0333344 1.44014e-22)
(0.408497 -0.0332973 3.30317e-24)
(0.414326 -0.0330944 1.598e-23)
(0.420388 -0.032584 -3.90782e-24)
(0.425428 -0.0320571 3.73344e-23)
(0.432075 -0.0308404 3.22896e-24)
(0.435373 -0.0303042 1.38561e-24)
(0.445322 -0.0277349 -5.22228e-24)
(-0.0215593 0.0102149 -2.4071e-20)
(-0.0217434 0.0086426 3.02815e-20)
(-0.0215417 0.00720409 -2.02148e-20)
(-0.0209504 0.00585311 -4.91404e-21)
(-0.0199634 0.00454013 1.55537e-20)
(-0.0185619 0.00322296 2.10017e-20)
(-0.0167531 0.00190505 -2.31359e-20)
(-0.0145048 0.000626641 -2.2417e-20)
(-0.0119186 -0.00080646 4.47283e-20)
(-0.00901211 -0.00236561 -4.15797e-20)
(-0.00570662 -0.0039753 3.62887e-21)
(-0.00205483 -0.0056921 3.63347e-20)
(0.00194953 -0.00751692 -1.87249e-21)
(0.00631111 -0.00944017 -2.53104e-20)
(0.0109941 -0.0114619 -5.87157e-21)
(0.0159794 -0.0135742 3.46901e-21)
(0.0212573 -0.0157576 1.37203e-20)
(0.0268097 -0.0179888 -3.14354e-20)
(0.0326183 -0.0202403 2.99005e-20)
(0.038664 -0.0224808 -2.16872e-20)
(0.0449279 -0.0246769 -5.56911e-21)
(0.0513912 -0.0267938 1.70827e-20)
(0.0580363 -0.0287973 2.51401e-24)
(0.0648422 -0.030656 2.18876e-20)
(0.0718001 -0.0323214 -1.68384e-20)
(0.0789001 -0.0337916 -1.13283e-20)
(0.0861217 -0.0350323 2.49539e-20)
(0.09346 -0.0360232 -1.43765e-20)
(0.100911 -0.0367524 -2.85338e-21)
(0.108472 -0.0372142 -1.10657e-20)
(0.116144 -0.0374097 1.69751e-21)
(0.123932 -0.0373454 -7.43006e-22)
(0.131839 -0.0370392 -2.73912e-21)
(0.139871 -0.0365053 4.58415e-21)
(0.148039 -0.0357705 5.07561e-22)
(0.15635 -0.0348638 -9.20985e-22)
(0.164816 -0.0338173 4.04959e-21)
(0.173444 -0.0326705 -5.62867e-21)
(0.182238 -0.0314557 6.02347e-21)
(0.191208 -0.0302129 -8.56815e-21)
(0.200354 -0.0289797 5.32419e-21)
(0.209676 -0.027793 -5.62302e-21)
(0.219169 -0.0266868 2.23709e-21)
(0.228826 -0.0256915 3.23491e-22)
(0.238635 -0.0248321 9.28885e-22)
(0.248583 -0.0241317 1.65942e-21)
(0.258648 -0.0236078 -3.78777e-21)
(0.268809 -0.0232716 -1.77548e-21)
(0.279039 -0.023129 4.73732e-21)
(0.289309 -0.02318 -2.65264e-22)
(0.299587 -0.0234194 6.72464e-26)
(0.309841 -0.0238371 -2.41653e-21)
(0.320035 -0.0244184 -1.34087e-22)
(0.330134 -0.0251443 -1.36268e-21)
(0.340103 -0.0259918 1.36381e-21)
(0.349907 -0.0269372 7.08409e-23)
(0.359514 -0.0279544 -1.34172e-21)
(0.368891 -0.0290157 1.25854e-21)
(0.378011 -0.0300931 -1.09971e-21)
(0.386847 -0.0311596 1.7097e-22)
(0.395377 -0.0321887 2.90648e-23)
(0.403586 -0.0331557 -5.03511e-22)
(0.411456 -0.0340376 7.74107e-22)
(0.418985 -0.0348137 -2.64129e-24)
(0.42616 -0.0354658 -1.13361e-22)
(0.433001 -0.0359771 -1.89221e-22)
(0.439482 -0.036337 -4.03981e-23)
(0.445677 -0.0365269 -7.60697e-24)
(0.451494 -0.0365546 -1.07761e-23)
(0.457161 -0.036374 -8.54243e-24)
(0.462332 -0.0360632 -5.69211e-23)
(0.467759 -0.0354353 -1.74712e-24)
(0.472136 -0.0348649 1.34668e-26)
(0.478097 -0.0335767 1.38483e-24)
(0.480881 -0.0330658 -2.60643e-24)
(0.489727 -0.0306159 2.70132e-24)
(0.0424706 0.0101801 3.41999e-20)
(0.0428118 0.00840159 -3.6244e-20)
(0.0435094 0.00675401 3.17406e-20)
(0.0445761 0.00519628 -3.79247e-20)
(0.046022 0.00367721 2.18061e-20)
(0.0478878 0.00215493 3.23575e-20)
(0.0501951 0.000662778 -4.67776e-20)
(0.0528351 -0.000865149 5.52969e-20)
(0.0558072 -0.00256766 -4.1244e-20)
(0.0591844 -0.00427098 -1.79231e-20)
(0.0629199 -0.00606286 4.97861e-21)
(0.0669999 -0.00795735 3.64957e-20)
(0.071418 -0.00993803 -3.62276e-20)
(0.0761702 -0.0120191 3.49192e-20)
(0.0812349 -0.0142015 -1.8932e-21)
(0.0865898 -0.0164657 5.04949e-21)
(0.0922177 -0.0187936 -1.36848e-20)
(0.0980978 -0.021162 1.01572e-20)
(0.104209 -0.0235429 -1.34695e-21)
(0.110528 -0.0259052 -9.10658e-21)
(0.117035 -0.0282152 1.95417e-20)
(0.123707 -0.0304384 -1.92607e-20)
(0.130525 -0.0325402 1.98499e-20)
(0.137467 -0.0344886 -2.28174e-21)
(0.14452 -0.0362448 -1.7122e-20)
(0.151671 -0.0377926 -9.76415e-21)
(0.158905 -0.0391057 1.24314e-20)
(0.166212 -0.0401656 -1.13505e-20)
(0.173589 -0.040961 -1.28927e-20)
(0.181034 -0.0414871 2.95047e-20)
(0.188549 -0.0417458 -1.2833e-20)
(0.196138 -0.0417449 -6.95938e-21)
(0.203809 -0.0415015 -5.30026e-21)
(0.211568 -0.041033 2.36842e-20)
(0.219429 -0.0403653 -1.39578e-20)
(0.227402 -0.0395277 -1.47338e-21)
(0.235499 -0.0385528 6.30094e-21)
(0.243733 -0.037478 4.40184e-21)
(0.25211 -0.0363371 -7.39021e-21)
(0.260641 -0.0351682 1.64912e-21)
(0.269331 -0.034008 -5.30912e-21)
(0.278181 -0.0328915 7.09701e-21)
(0.28719 -0.0318515 -3.78026e-21)
(0.29635 -0.0309166 8.02201e-23)
(0.305654 -0.0301109 4.14215e-21)
(0.315087 -0.0294554 -6.609e-21)
(0.32463 -0.0289657 4.40202e-21)
(0.334263 -0.0286517 -5.04508e-21)
(0.343958 -0.0285178 5.25843e-21)
(0.353687 -0.0285632 -2.84369e-21)
(0.363419 -0.0287816 -1.57536e-21)
(0.37312 -0.0291622 -6.8076e-22)
(0.382755 -0.0296898 1.22003e-21)
(0.392288 -0.0303454 -5.52606e-22)
(0.401685 -0.0311066 6.92149e-22)
(0.41091 -0.0319498 1.49528e-21)
(0.419931 -0.0328495 -6.85409e-22)
(0.428715 -0.0337792 -1.30708e-22)
(0.437233 -0.0347125 -3.41797e-22)
(0.445463 -0.0356238 -7.86539e-22)
(0.453379 -0.0364885 9.19294e-22)
(0.460968 -0.0372838 -5.77616e-22)
(0.468213 -0.0379893 -9.34495e-22)
(0.475113 -0.0385859 2.76585e-22)
(0.481651 -0.0390593 9.0503e-23)
(0.487855 -0.0393929 -2.02333e-22)
(0.493692 -0.0395829 3.20043e-23)
(0.499245 -0.0396062 -4.04391e-23)
(0.504409 -0.0394862 -1.66864e-22)
(0.509436 -0.0391585 7.27577e-23)
(0.513946 -0.03874 -8.98339e-23)
(0.518732 -0.0379928 -2.21604e-23)
(0.522467 -0.0373762 -2.29946e-24)
(0.527725 -0.0360245 -6.1147e-24)
(0.530033 -0.0355205 7.76256e-25)
(0.537756 -0.0332 4.30651e-24)
(0.116609 0.00992414 -8.70816e-20)
(0.117111 0.00796038 -1.61168e-20)
(0.117981 0.00611422 5.71171e-20)
(0.119234 0.00435632 -1.40986e-20)
(0.120874 0.00263592 3.47219e-20)
(0.12297 0.000909875 -2.76976e-20)
(0.125484 -0.000795801 1.63932e-21)
(0.128345 -0.00263316 2.08076e-20)
(0.131586 -0.00445747 -6.07537e-21)
(0.135213 -0.00634149 -2.45434e-20)
(0.139206 -0.00830835 2.71482e-20)
(0.143549 -0.0103692 1.06161e-21)
(0.148228 -0.0125207 -7.82337e-21)
(0.153233 -0.0147635 7.45576e-22)
(0.158543 -0.0170942 3.22705e-20)
(0.164134 -0.0194986 -1.82588e-20)
(0.169983 -0.0219591 -2.45976e-20)
(0.176066 -0.0244517 -8.84808e-24)
(0.182359 -0.0269484 3.20656e-20)
(0.188836 -0.0294179 -2.04961e-20)
(0.195472 -0.0318265 1.8151e-20)
(0.202243 -0.0341399 -2.61304e-20)
(0.209127 -0.0363237 8.21403e-22)
(0.216101 -0.0383456 3.27397e-20)
(0.223147 -0.0401714 -2.01097e-20)
(0.230253 -0.0417798 -1.94334e-21)
(0.237402 -0.0431481 2.81172e-21)
(0.244586 -0.0442593 1.00857e-20)
(0.2518 -0.0451029 -2.43354e-20)
(0.259042 -0.0456753 1.48313e-22)
(0.266314 -0.0459797 -8.15242e-22)
(0.273623 -0.0460249 1.47013e-20)
(0.280976 -0.0458282 1.33915e-20)
(0.288383 -0.0454089 -6.34567e-21)
(0.295858 -0.0447929 7.24589e-21)
(0.303415 -0.0440101 -1.43688e-20)
(0.311067 -0.0430929 4.67785e-21)
(0.318827 -0.0420777 -1.03533e-20)
(0.326708 -0.0409989 1.17116e-20)
(0.33472 -0.0398932 -3.51779e-22)
(0.34287 -0.038796 -6.62294e-21)
(0.351162 -0.0377409 2.21475e-21)
(0.359596 -0.0367591 -1.31583e-21)
(0.368168 -0.0358776 3.32481e-21)
(0.37687 -0.0351192 2.01792e-21)
(0.385689 -0.0345028 -6.88599e-21)
(0.394608 -0.0340422 5.08974e-21)
(0.403607 -0.0337459 -8.33727e-22)
(0.41266 -0.033617 -3.37664e-23)
(0.421738 -0.0336531 -2.02323e-21)
(0.430812 -0.0338473 -1.0553e-21)
(0.439848 -0.034188 2.06985e-21)
(0.448813 -0.0346595 1.31228e-21)
(0.45767 -0.0352427 -1.31458e-21)
(0.466386 -0.0359157 7.41864e-22)
(0.474926 -0.036655 -2.61118e-22)
(0.483257 -0.037436 -2.28465e-21)
(0.491351 -0.0382333 1.55943e-21)
(0.499177 -0.0390219 8.08854e-22)
(0.506714 -0.0397777 -2.23096e-22)
(0.513939 -0.0404782 2.96547e-22)
(0.520838 -0.0411022 7.00304e-22)
(0.527395 -0.0416322 -3.44617e-22)
(0.533612 -0.0420502 -5.55969e-22)
(0.53947 -0.0423464 5.00519e-22)
(0.545002 -0.0425034 1.87586e-24)
(0.550167 -0.0425255 2.76043e-22)
(0.555062 -0.0423833 -1.35645e-22)
(0.559564 -0.0421182 1.40416e-22)
(0.563948 -0.0416444 1.05808e-22)
(0.56781 -0.0411204 -3.16866e-23)
(0.571958 -0.0402568 1.69827e-23)
(0.575083 -0.0395908 2.5391e-23)
(0.579637 -0.0381861 -2.33018e-24)
(0.581517 -0.0376732 5.91305e-24)
(0.58813 -0.0354811 1.54795e-25)
(0.201551 0.00970207 -4.10524e-21)
(0.201659 0.00754403 -8.42138e-20)
(0.20221 0.00548899 6.20609e-20)
(0.203208 0.0035198 3.86961e-20)
(0.20464 0.00158664 -4.28359e-20)
(0.206598 -0.000353953 -1.7654e-20)
(0.208991 -0.00233159 -4.4121e-20)
(0.211777 -0.00435442 8.83632e-20)
(0.214992 -0.00638508 -1.6879e-20)
(0.218615 -0.00846137 -2.67906e-20)
(0.222622 -0.0106073 1.11623e-20)
(0.226996 -0.0128373 -3.14489e-23)
(0.231717 -0.0151523 -1.33315e-20)
(0.236769 -0.0175505 1.43463e-20)
(0.242127 -0.0200264 4.81844e-22)
(0.247765 -0.0225664 -1.38465e-20)
(0.253654 -0.0251526 2.1904e-20)
(0.259767 -0.0277611 -1.77121e-20)
(0.266075 -0.0303637 -1.8425e-20)
(0.272547 -0.0329292 3.19176e-20)
(0.279157 -0.0354243 -9.05527e-21)
(0.285876 -0.0378148 2.0684e-20)
(0.29268 -0.0400667 -3.48052e-20)
(0.299544 -0.042148 2.29717e-20)
(0.306448 -0.0440272 1.04625e-20)
(0.313376 -0.0456813 -1.96332e-20)
(0.320314 -0.0470894 9.32147e-21)
(0.327251 -0.0482361 -3.10825e-21)
(0.334182 -0.0491121 -2.00169e-20)
(0.341106 -0.0497152 1.41416e-21)
(0.348026 -0.0500496 1.46692e-20)
(0.354947 -0.0501256 -3.59743e-21)
(0.361881 -0.0499607 -6.2367e-22)
(0.368837 -0.0495759 -4.47807e-21)
(0.375831 -0.0489975 2.3789e-20)
(0.382877 -0.0482558 -1.41464e-20)
(0.389992 -0.0473833 9.87071e-22)
(0.39719 -0.0464154 1.07371e-20)
(0.404485 -0.0453869 -6.02573e-21)
(0.411889 -0.0443332 7.60145e-21)
(0.419411 -0.0432886 -9.59216e-21)
(0.427055 -0.0422853 3.19294e-21)
(0.434825 -0.0413528 -5.08059e-21)
(0.442717 -0.0405166 5.39598e-21)
(0.450723 -0.039798 1.96106e-21)
(0.458833 -0.0392139 -4.57018e-23)
(0.467032 -0.0387765 -4.56851e-21)
(0.475298 -0.0384926 1.16917e-21)
(0.483608 -0.0383638 -1.32693e-21)
(0.491935 -0.0383869 1.36168e-21)
(0.50025 -0.0385536 3.00064e-21)
(0.508521 -0.0388518 -2.42537e-21)
(0.516714 -0.0392654 2.465e-21)
(0.524797 -0.0397751 -1.68981e-21)
(0.532735 -0.0403593 -4.86432e-22)
(0.540497 -0.040995 1.52647e-21)
(0.548051 -0.0416584 2.32498e-21)
(0.555369 -0.042325 4.96098e-22)
(0.562424 -0.0429716 -2.41149e-21)
(0.569195 -0.0435751 4.54096e-22)
(0.575661 -0.0441153 6.20367e-23)
(0.581812 -0.0445724 -3.14549e-22)
(0.58763 -0.044932 -3.20888e-23)
(0.593121 -0.0451767 1.07491e-21)
(0.598264 -0.0453017 -8.69816e-23)
(0.603097 -0.0452876 -3.99607e-22)
(0.607575 -0.0451485 3.71783e-22)
(0.611801 -0.0448461 -2.72922e-22)
(0.615645 -0.0444424 -1.9793e-22)
(0.619389 -0.0438279 4.67837e-23)
(0.622624 -0.043203 7.94556e-23)
(0.626143 -0.0422303 1.74916e-23)
(0.628703 -0.0415126 1.76539e-23)
(0.632561 -0.0400663 -8.76845e-25)
(0.634062 -0.0395332 7.16927e-25)
(0.639607 -0.0374608 -3.70467e-24)
(0.297792 0.00988261 2.88914e-20)
(0.296779 0.00747102 -1.27595e-20)
(0.29636 0.00516201 5.58745e-20)
(0.296525 0.00294327 -1.31746e-21)
(0.297227 0.000767102 -6.62169e-20)
(0.298552 -0.00139139 -4.55509e-20)
(0.300393 -0.00367912 3.89326e-20)
(0.302728 -0.00593226 -3.41557e-21)
(0.305551 -0.00817868 2.92372e-20)
(0.308828 -0.0104583 -5.95185e-20)
(0.312532 -0.0127954 2.29871e-20)
(0.316639 -0.0152044 3.82006e-21)
(0.321122 -0.0176891 1.42541e-20)
(0.325957 -0.0202466 3.06452e-20)
(0.331114 -0.0228696 -1.79182e-20)
(0.33656 -0.0255446 -6.45166e-21)
(0.342262 -0.028254 -6.02092e-21)
(0.348187 -0.030974 3.83065e-20)
(0.3543 -0.0336765 2.22347e-21)
(0.360568 -0.0363307 -6.48419e-21)
(0.366959 -0.0389036 -1.85284e-20)
(0.373441 -0.0413615 2.24068e-20)
(0.379985 -0.0436709 -3.68681e-20)
(0.386566 -0.0458006 2.64144e-20)
(0.393161 -0.0477208 -2.33635e-20)
(0.399752 -0.0494084 2.15621e-20)
(0.406324 -0.050844 -1.66295e-20)
(0.412866 -0.0520135 1.94743e-20)
(0.419372 -0.0529092 -2.47961e-20)
(0.425842 -0.0535301 1.11179e-20)
(0.432278 -0.0538817 -1.66042e-20)
(0.438689 -0.0539758 2.1319e-20)
(0.445083 -0.0538304 -1.80992e-20)
(0.451474 -0.0534679 8.06324e-21)
(0.457877 -0.0529152 4.4921e-21)
(0.464309 -0.0522027 2.4236e-21)
(0.470786 -0.0513633 -1.25843e-20)
(0.477324 -0.0504319 1.14408e-21)
(0.483939 -0.0494429 1.37823e-20)
(0.490643 -0.0484309 -1.58821e-20)
(0.497446 -0.0474289 7.29371e-21)
(0.504354 -0.046468 -8.82537e-21)
(0.511371 -0.045576 1.11409e-20)
(0.518494 -0.0447768 -1.30603e-20)
(0.525718 -0.0440903 4.92096e-21)
(0.533031 -0.0435315 4.70808e-21)
(0.54042 -0.0431109 -5.91113e-21)
(0.547866 -0.0428339 7.09229e-21)
(0.555345 -0.0427007 -3.75079e-21)
(0.562833 -0.0427067 -1.31971e-21)
(0.570301 -0.0428431 -1.98989e-21)
(0.577719 -0.0430968 2.96484e-21)
(0.585056 -0.0434515 -1.64944e-21)
(0.59228 -0.0438877 -7.29929e-22)
(0.59936 -0.0443843 5.95198e-22)
(0.606266 -0.0449186 1.331e-21)
(0.612968 -0.0454677 8.48832e-22)
(0.619442 -0.0460081 -2.00289e-21)
(0.625661 -0.0465179 -9.17015e-22)
(0.631608 -0.0469755 2.13282e-21)
(0.637263 -0.0473629 -3.01768e-22)
(0.642619 -0.0476611 -3.1057e-22)
(0.647659 -0.0478592 5.41504e-22)
(0.652392 -0.0479398 -9.25805e-23)
(0.656797 -0.0479036 -4.142e-22)
(0.660915 -0.0477282 2.28161e-22)
(0.664697 -0.0474383 1.95904e-22)
(0.668253 -0.0469855 -2.78985e-22)
(0.671446 -0.046453 -9.94469e-23)
(0.67456 -0.0457076 1.35907e-22)
(0.677196 -0.0449885 -1.48056e-24)
(0.680102 -0.043918 -4.63777e-23)
(0.682142 -0.0431479 1.27104e-23)
(0.685324 -0.0416715 -1.49247e-24)
(0.686493 -0.0411121 -5.654e-24)