/*--------------------------------*- C++ -*----------------------------------*\
  =========                 |
  \\      /  F ield         | OpenFOAM: The Open Source CFD Toolbox
   \\    /   O peration     | Website:  https://openfoam.org
    \\  /    A nd           | Version:  7
     \\/     M anipulation  |
\*---------------------------------------------------------------------------*/
FoamFile
{
    version     2.0;
    format      ascii;
    class       volVectorField;
    location    "20.001";
    object      U;
}
// * * * * * * * * * * * * * * * * * * * * * * * * * * * * * * * * * * * * * //

dimensions      [0 1 -1 0 0 0 0];

internalField   nonuniform List<vector> 
3700
(
(1.2566 -0.0442707 0)
(1.29278 -0.0465478 0)
(1.30358 -0.0472874 0)
(1.30316 -0.0469711 0)
(1.29842 -0.046026 0)
(1.29214 -0.0447657 0)
(1.28538 -0.0433348 0)
(1.27861 -0.0417826 0)
(1.27209 -0.0401391 0)
(1.26589 -0.0384283 0)
(1.26004 -0.0366655 0)
(1.25451 -0.0348615 0)
(1.24927 -0.0330243 0)
(1.24432 -0.0311609 0)
(1.23964 -0.0292778 0)
(1.23524 -0.0273808 0)
(1.23112 -0.0254752 0)
(1.22729 -0.0235652 0)
(1.22374 -0.0216543 0)
(1.22049 -0.0197451 0)
(1.21753 -0.0178397 0)
(1.21486 -0.0159393 0)
(1.21249 -0.0140448 0)
(1.21042 -0.0121565 0)
(1.20864 -0.0102743 0)
(1.20716 -0.00839767 0)
(1.20598 -0.00652637 0)
(1.20509 -0.00465865 0)
(1.2045 -0.00279241 0)
(1.20421 -0.000933599 0)
(1.2512 -0.0363162 0)
(1.29033 -0.0385793 0)
(1.30316 -0.0395892 0)
(1.30379 -0.0395315 0)
(1.29956 -0.0388393 0)
(1.29355 -0.0378494 0)
(1.28695 -0.0367052 0)
(1.2803 -0.0354515 0)
(1.27386 -0.0341139 0)
(1.26773 -0.032713 0)
(1.26192 -0.0312622 0)
(1.25643 -0.0297704 0)
(1.25123 -0.0282443 0)
(1.2463 -0.0266896 0)
(1.24164 -0.0251119 0)
(1.23725 -0.0235163 0)
(1.23314 -0.0219071 0)
(1.22931 -0.0202885 0)
(1.22577 -0.0186637 0)
(1.22251 -0.0170353 0)
(1.21955 -0.0154055 0)
(1.21688 -0.0137758 0)
(1.21451 -0.0121474 0)
(1.21243 -0.0105209 0)
(1.21064 -0.0088968 0)
(1.20916 -0.00727512 0)
(1.20797 -0.00565597 0)
(1.20707 -0.00403841 0)
(1.20648 -0.0024212 0)
(1.20619 -0.000809053 0)
(1.24604 -0.0286418 0)
(1.28773 -0.0308195 0)
(1.30242 -0.0320747 0)
(1.30407 -0.0322537 0)
(1.30034 -0.0317996 0)
(1.29458 -0.0310631 0)
(1.28814 -0.0301879 0)
(1.28161 -0.0292161 0)
(1.27525 -0.0281695 0)
(1.26918 -0.0270653 0)
(1.26343 -0.0259149 0)
(1.25798 -0.0247251 0)
(1.25281 -0.0235013 0)
(1.24791 -0.0222476 0)
(1.24328 -0.0209685 0)
(1.23891 -0.0196683 0)
(1.23481 -0.0183507 0)
(1.231 -0.0170194 0)
(1.22746 -0.0156774 0)
(1.22421 -0.0143272 0)
(1.22126 -0.0129711 0)
(1.21859 -0.0116107 0)
(1.21621 -0.0102474 0)
(1.21413 -0.00888238 0)
(1.21235 -0.00751629 0)
(1.21086 -0.0061497 0)
(1.20967 -0.00478315 0)
(1.20878 -0.00341633 0)
(1.20818 -0.00204876 0)
(1.20789 -0.000684365 0)
(1.24121 -0.0212118 0)
(1.28506 -0.02322 0)
(1.30146 -0.0246939 0)
(1.30408 -0.0251049 0)
(1.30082 -0.0248759 0)
(1.2953 -0.0243828 0)
(1.28901 -0.0237674 0)
(1.28258 -0.0230674 0)
(1.27629 -0.0223013 0)
(1.27028 -0.0214841 0)
(1.26458 -0.0206248 0)
(1.25918 -0.0197289 0)
(1.25405 -0.0187996 0)
(1.24918 -0.0178402 0)
(1.24457 -0.0168537 0)
(1.24023 -0.0158436 0)
(1.23616 -0.014813 0)
(1.23236 -0.013765 0)
(1.22884 -0.0127024 0)
(1.2256 -0.0116277 0)
(1.22265 -0.0105429 0)
(1.21999 -0.00944998 0)
(1.21762 -0.00835048 0)
(1.21555 -0.00724576 0)
(1.21376 -0.00613692 0)
(1.21228 -0.0050249 0)
(1.21109 -0.00391062 0)
(1.2102 -0.00279437 0)
(1.2096 -0.00167632 0)
(1.20931 -0.000559858 0)
(1.23674 -0.0139713 0)
(1.2824 -0.0157326 0)
(1.30035 -0.0174494 0)
(1.30387 -0.018056 0)
(1.30105 -0.0180372 0)
(1.29575 -0.017783 0)
(1.28959 -0.0174239 0)
(1.28324 -0.0169904 0)
(1.27702 -0.016499 0)
(1.27106 -0.0159625 0)
(1.26541 -0.0153885 0)
(1.26004 -0.0147803 0)
(1.25495 -0.0141401 0)
(1.25012 -0.0134695 0)
(1.24554 -0.0127707 0)
(1.24123 -0.0120462 0)
(1.23718 -0.0112985 0)
(1.2334 -0.0105303 0)
(1.2299 -0.00974393 0)
(1.22668 -0.00894179 0)
(1.22374 -0.00812598 0)
(1.22109 -0.00729842 0)
(1.21873 -0.00646089 0)
(1.21666 -0.00561496 0)
(1.21489 -0.00476209 0)
(1.21341 -0.00390355 0)
(1.21222 -0.00304064 0)
(1.21133 -0.00217415 0)
(1.21074 -0.00130484 0)
(1.21044 -0.000435806 0)
(1.23267 -0.0068783 0)
(1.27974 -0.00834116 0)
(1.29912 -0.0103016 0)
(1.30345 -0.0110703 0)
(1.30104 -0.01125 0)
(1.29594 -0.0112405 0)
(1.28988 -0.0111385 0)
(1.2836 -0.0109697 0)
(1.27744 -0.0107504 0)
(1.27153 -0.0104922 0)
(1.26591 -0.0102004 0)
(1.26059 -0.0098767 0)
(1.25553 -0.00952173 0)
(1.25073 -0.00913623 0)
(1.24619 -0.00872142 0)
(1.24191 -0.00827895 0)
(1.23788 -0.0078108 0)
(1.23413 -0.00731911 0)
(1.23065 -0.00680605 0)
(1.22744 -0.00627379 0)
(1.22452 -0.00572442 0)
(1.22189 -0.00515996 0)
(1.21954 -0.00458233 0)
(1.21748 -0.00399334 0)
(1.21572 -0.00339473 0)
(1.21424 -0.00278811 0)
(1.21306 -0.00217514 0)
(1.21218 -0.00155707 0)
(1.21159 -0.000935172 0)
(1.2113 -0.000312448 0)
(1.22888 6.45969e-05 0)
(1.2772 -0.00104122 0)
(1.29777 -0.00327556 0)
(1.3028 -0.00409979 0)
(1.30076 -0.00449884 0)
(1.29584 -0.00474078 0)
(1.28988 -0.0048957 0)
(1.28367 -0.00499182 0)
(1.27755 -0.00504557 0)
(1.27168 -0.00506597 0)
(1.2661 -0.00505597 0)
(1.26081 -0.00501535 0)
(1.25579 -0.00494365 0)
(1.25103 -0.00484095 0)
(1.24652 -0.00470757 0)
(1.24227 -0.00454448 0)
(1.23827 -0.00435311 0)
(1.23455 -0.00413519 0)
(1.23109 -0.00389269 0)
(1.22791 -0.00362766 0)
(1.22501 -0.0033422 0)
(1.22239 -0.00303839 0)
(1.22006 -0.00271833 0)
(1.21802 -0.00238407 0)
(1.21626 -0.00203762 0)
(1.2148 -0.00168093 0)
(1.21363 -0.00131597 0)
(1.21275 -0.000944453 0)
(1.21216 -0.000568139 0)
(1.21187 -0.000190027 0)
(1.22546 0.00702106 0)
(1.27487 0.00608819 0)
(1.29626 0.0037915 0)
(1.30192 0.00287339 0)
(1.30022 0.00222958 0)
(1.29547 0.00173398 0)
(1.28959 0.00131927 0)
(1.28343 0.000953733 0)
(1.27735 0.000622869 0)
(1.27152 0.000321224 0)
(1.26597 4.76408e-05 0)
(1.26071 -0.000195431 0)
(1.25573 -0.000406218 0)
(1.251 -0.000585131 0)
(1.24653 -0.000731519 0)
(1.24231 -0.000845754 0)
(1.23835 -0.000928832 0)
(1.23465 -0.000982232 0)
(1.23123 -0.00100774 0)
(1.22807 -0.00100733 0)
(1.2252 -0.000983142 0)
(1.2226 -0.000937391 0)
(1.22029 -0.00087233 0)
(1.21826 -0.000790261 0)
(1.21652 -0.000693483 0)
(1.21507 -0.000584273 0)
(1.21391 -0.000464941 0)
(1.21303 -0.000337629 0)
(1.21245 -0.000204539 0)
(1.21216 -6.87907e-05 0)
(1.22259 0.0139942 0)
(1.2726 0.0131799 0)
(1.29462 0.0109453 0)
(1.30082 0.00984869 0)
(1.29942 0.00896103 0)
(1.2948 0.00820473 0)
(1.28899 0.00751956 0)
(1.28287 0.00687489 0)
(1.27683 0.00625954 0)
(1.27103 0.00567161 0)
(1.26552 0.00511249 0)
(1.26029 0.00458437 0)
(1.25534 0.0040894 0)
(1.25066 0.00362889 0)
(1.24622 0.00320359 0)
(1.24204 0.00281351 0)
(1.23812 0.00245793 0)
(1.23446 0.00213552 0)
(1.23106 0.00184455 0)
(1.22794 0.00158302 0)
(1.22509 0.00134872 0)
(1.22252 0.00113927 0)
(1.22023 0.000952219 0)
(1.21822 0.000784986 0)
(1.2165 0.00063498 0)
(1.21506 0.000499588 0)
(1.21391 0.00037615 0)
(1.21304 0.000262111 0)
(1.21247 0.000154834 0)
(1.21218 5.10066e-05 0)
(1.22022 0.021058 0)
(1.27034 0.0203582 0)
(1.29285 0.018167 0)
(1.29947 0.0168535 0)
(1.29831 0.015713 0)
(1.29381 0.0146829 0)
(1.28806 0.0137126 0)
(1.28198 0.0127762 0)
(1.27597 0.0118672 0)
(1.27021 0.0109867 0)
(1.26473 0.0101372 0)
(1.25955 0.00932105 0)
(1.25464 0.0085407 0)
(1.24999 0.00779807 0)
(1.2456 0.00709424 0)
(1.24146 0.00642941 0)
(1.23758 0.00580298 0)
(1.23396 0.00521368 0)
(1.2306 0.00465974 0)
(1.22751 0.00413905 0)
(1.22469 0.00364924 0)
(1.22215 0.00318773 0)
(1.21989 0.00275178 0)
(1.2179 0.00233852 0)
(1.2162 0.00194505 0)
(1.21478 0.00156839 0)
(1.21364 0.00120552 0)
(1.21278 0.000853482 0)
(1.21221 0.000509191 0)
(1.21193 0.000169103 0)
(1.21819 0.0282605 0)
(1.2681 0.0276702 0)
(1.29091 0.0254624 0)
(1.29786 0.0239096 0)
(1.2969 0.0224971 0)
(1.29249 0.0211738 0)
(1.28679 0.0199005 0)
(1.28075 0.0186584 0)
(1.27478 0.0174455 0)
(1.26905 0.0162649 0)
(1.26362 0.0151192 0)
(1.25847 0.0140111 0)
(1.25361 0.0129432 0)
(1.24901 0.0119176 0)
(1.24466 0.0109355 0)
(1.24057 0.00999696 0)
(1.23673 0.00910139 0)
(1.23315 0.00824742 0)
(1.22984 0.00743317 0)
(1.22679 0.0066563 0)
(1.22401 0.00591422 0)
(1.2215 0.00520406 0)
(1.21926 0.00452277 0)
(1.2173 0.00386717 0)
(1.21562 0.00323398 0)
(1.21422 0.00261985 0)
(1.2131 0.00202139 0)
(1.21225 0.00143519 0)
(1.21169 0.000857753 0)
(1.21141 0.000285251 0)
(1.21643 0.0356212 0)
(1.26586 0.0351245 0)
(1.28879 0.0328451 0)
(1.29595 0.0310279 0)
(1.29514 0.0293176 0)
(1.29082 0.0276775 0)
(1.28517 0.0260816 0)
(1.27917 0.0245189 0)
(1.27324 0.0229912 0)
(1.26755 0.0215018 0)
(1.26216 0.0200536 0)
(1.25707 0.0186493 0)
(1.25225 0.0172914 0)
(1.2477 0.0159818 0)
(1.24341 0.0147214 0)
(1.23937 0.0135102 0)
(1.23558 0.0123474 0)
(1.23206 0.0112312 0)
(1.22879 0.0101596 0)
(1.22578 0.00912987 0)
(1.22304 0.00813913 0)
(1.22057 0.00718415 0)
(1.21836 0.00626153 0)
(1.21643 0.0053677 0)
(1.21478 0.004499 0)
(1.2134 0.00365168 0)
(1.21229 0.00282194 0)
(1.21146 0.00200594 0)
(1.21091 0.00119974 0)
(1.21063 0.000399197 0)
(1.21488 0.043154 -3.59253e-11)
(1.26357 0.0427239 -3.48709e-11)
(1.28643 0.0403192 0)
(1.29371 0.0382073 -3.27911e-11)
(1.29301 0.03617 -3.1813e-11)
(1.28877 0.0341879 -8.90327e-28)
(1.28318 0.0322494 3.00182e-11)
(1.27723 0.030351 2.92011e-11)
(1.27134 0.0284967 0)
(1.26571 0.0266896 0)
(1.26036 0.0249326 0)
(1.25532 0.0232279 0)
(1.25057 0.0215777 0)
(1.24608 0.0199832 0)
(1.24184 0.0184449 0)
(1.23786 0.0169625 0)
(1.23414 0.0155345 0)
(1.23066 0.014159 0)
(1.22744 0.0128333 0)
(1.22449 0.0115545 0)
(1.22179 0.0103191 2.25241e-11)
(1.21936 0.00912361 4.45245e-11)
(1.21719 0.00796413 2.20313e-11)
(1.2153 0.00683671 0)
(1.21367 0.00573722 -2.16596e-11)
(1.21231 0.0046615 -2.15178e-11)
(1.21122 0.00360533 0)
(1.2104 0.00256441 -2.13204e-11)
(1.20986 0.00153437 -2.12642e-11)
(1.20959 0.000510679 -6.12686e-28)
(1.21344 0.0508653 3.59268e-11)
(1.26116 0.0504644 3.48709e-11)
(1.28379 0.0478769 0)
(1.2911 0.0454358 3.27911e-11)
(1.29049 0.0430411 3.1813e-11)
(1.28632 0.0406923 8.90327e-28)
(1.28079 0.0383919 -3.00182e-11)
(1.2749 0.0361429 -2.92011e-11)
(1.26907 0.0339504 0)
(1.26349 0.0318173 0)
(1.25822 0.0297456 0)
(1.25324 0.027737 0)
(1.24855 0.0257926 0)
(1.24413 0.0239129 0)
(1.23997 0.0220977 0)
(1.23605 0.0203459 0)
(1.23239 0.0186555 0)
(1.22898 0.0170239 0)
(1.22582 0.015448 0)
(1.22291 0.0139244 0)
(1.22027 0.012449 -2.25241e-11)
(1.21788 0.0110178 -4.45245e-11)
(1.21576 0.00962651 -2.20313e-11)
(1.2139 0.00827064 0)
(1.2123 0.00694563 2.16596e-11)
(1.21097 0.00564686 2.15178e-11)
(1.2099 0.00436964 0)
(1.2091 0.00310924 2.13204e-11)
(1.20857 0.0018608 2.12642e-11)
(1.2083 0.000619424 6.12686e-28)
(1.21204 0.0587455 0)
(1.25857 0.0583284 0)
(1.28082 0.0554977 0)
(1.28809 0.0526912 0)
(1.28754 0.0499098 0)
(1.28345 0.0471712 0)
(1.27799 0.0444909 0)
(1.27217 0.0418776 0)
(1.26642 0.0393366 0)
(1.26092 0.0368701 0)
(1.25572 0.0344791 0)
(1.25082 0.032164 0)
(1.24621 0.0299246 0)
(1.24187 0.0277603 0)
(1.23778 0.02567 0)
(1.23394 0.0236515 0)
(1.23035 0.0217021 0)
(1.22701 0.0198186 0)
(1.22391 0.0179971 0)
(1.22107 0.0162335 0)
(1.21848 0.0145233 0)
(1.21614 0.0128619 0)
(1.21406 0.0112444 0)
(1.21224 0.00966583 0)
(1.21068 0.00812114 0)
(1.20937 0.00660522 0)
(1.20833 0.00511292 0)
(1.20755 0.00363901 0)
(1.20702 0.0021782 0)
(1.20676 0.000725155 0)
(1.21056 0.0667669 0)
(1.25573 0.0662824 0)
(1.27747 0.0631483 0)
(1.28464 0.0599413 0)
(1.28413 0.0567465 0)
(1.28012 0.0535975 0)
(1.27475 0.050522 0)
(1.26902 0.0475329 0)
(1.26337 0.0446352 0)
(1.25796 0.0418301 0)
(1.25286 0.0391169 0)
(1.24806 0.0364942 0)
(1.24354 0.0339603 0)
(1.23929 0.0315134 0)
(1.23529 0.0291507 0)
(1.23153 0.0268693 0)
(1.22802 0.0246654 0)
(1.22475 0.0225348 0)
(1.22173 0.0204731 0)
(1.21896 0.0184753 0)
(1.21643 0.0165363 0)
(1.21415 0.0146508 0)
(1.21212 0.0128133 0)
(1.21034 0.0110185 0)
(1.20881 0.00926057 0)
(1.20754 0.00753401 0)
(1.20652 0.00583316 0)
(1.20575 0.00415233 0)
(1.20524 0.00248571 0)
(1.20499 0.000827589 0)
(1.20892 0.0748843 0)
(1.25257 0.0742772 0)
(1.27371 0.0707831 0)
(1.28072 0.0671442 0)
(1.28025 0.0635134 0)
(1.27633 0.0599376 0)
(1.27107 0.056455 0)
(1.26546 0.0530818 0)
(1.25992 0.0498225 0)
(1.25463 0.0466761 0)
(1.24964 0.0436399 0)
(1.24495 0.0407107 0)
(1.24054 0.0378848 0)
(1.23639 0.0351585 0)
(1.23249 0.0325278 0)
(1.22883 0.0299884 0)
(1.22541 0.0275356 0)
(1.22223 0.025164 0)
(1.21929 0.0228684 0)
(1.21658 0.0206429 0)
(1.21412 0.0184818 0)
(1.2119 0.0163791 0)
(1.20992 0.0143288 0)
(1.20819 0.0123247 0)
(1.20671 0.0103606 0)
(1.20547 0.00843059 0)
(1.20447 0.00652834 0)
(1.20373 0.00464773 0)
(1.20323 0.00278249 0)
(1.20299 0.000926441 0)
(1.20702 0.0830358 0)
(1.24903 0.0822497 0)
(1.26947 0.0783444 0)
(1.2763 0.0742485 0)
(1.27586 0.070165 0)
(1.27206 0.0661514 0)
(1.26694 0.0622548 0)
(1.26147 0.0584937 0)
(1.25607 0.0548711 0)
(1.25092 0.051384 0)
(1.24606 0.0480271 0)
(1.2415 0.0447948 0)
(1.23721 0.0416812 0)
(1.23318 0.0386809 0)
(1.2294 0.0357882 0)
(1.22584 0.0329974 0)
(1.22252 0.0303024 0)
(1.21944 0.027697 0)
(1.21658 0.0251748 0)
(1.21396 0.0227293 0)
(1.21157 0.0203537 0)
(1.20941 0.0180415 0)
(1.20749 0.015786 0)
(1.20581 0.0135804 0)
(1.20437 0.0114181 0)
(1.20317 0.00929228 0)
(1.20221 0.0071964 0)
(1.20148 0.00512378 0)
(1.201 0.00306765 0)
(1.20076 0.00102142 0)
(1.20476 0.091145 0)
(1.24505 0.0901241 0)
(1.26474 0.085765 0)
(1.27136 0.0811952 0)
(1.27097 0.0766498 0)
(1.2673 0.0721939 0)
(1.26235 0.067882 0)
(1.25705 0.0637341 0)
(1.25183 0.0597513 0)
(1.24684 0.0559278 0)
(1.24214 0.0522556 0)
(1.23772 0.0487263 0)
(1.23357 0.0453321 0)
(1.22967 0.0420652 0)
(1.22601 0.0389183 0)
(1.22258 0.0358841 0)
(1.21937 0.0329552 0)
(1.21638 0.0301244 0)
(1.21362 0.0273842 0)
(1.21109 0.0247271 0)
(1.20878 0.0221456 0)
(1.20669 0.0196325 0)
(1.20484 0.0171803 0)
(1.20321 0.0147817 0)
(1.20182 0.0124295 0)
(1.20065 0.0101164 0)
(1.19972 0.0078353 0)
(1.19902 0.00557901 0)
(1.19856 0.00334035 0)
(1.19833 0.00111225 0)
(1.20207 0.0991226 0)
(1.24059 0.097815 0)
(1.25949 0.0929701 0)
(1.26589 0.0879194 0)
(1.26555 0.0829114 0)
(1.26205 0.0780162 0)
(1.2573 0.0732943 0)
(1.25221 0.0687664 0)
(1.24718 0.0644312 0)
(1.24239 0.0602798 0)
(1.23786 0.0563011 0)
(1.23361 0.0524843 0)
(1.22962 0.0488188 0)
(1.22587 0.045295 0)
(1.22235 0.0419037 0)
(1.21905 0.0386359 0)
(1.21596 0.0354831 0)
(1.21309 0.0324366 0)
(1.21043 0.029488 0)
(1.20798 0.026629 0)
(1.20576 0.0238512 0)
(1.20375 0.0211466 0)
(1.20196 0.018507 0)
(1.2004 0.0159247 0)
(1.19905 0.0133917 0)
(1.19793 0.0109004 0)
(1.19703 0.00844304 0)
(1.19636 0.00601203 0)
(1.19591 0.00359972 0)
(1.19569 0.00119863 0)
(1.19889 0.10687 0)
(1.2356 0.10523 0)
(1.25369 0.0998801 0)
(1.25989 0.0943527 0)
(1.25963 0.0888907 0)
(1.25633 0.0835671 0)
(1.25181 0.0784477 0)
(1.24696 0.0735527 0)
(1.24216 0.068878 0)
(1.23758 0.0644115 0)
(1.23326 0.0601392 0)
(1.2292 0.0560473 0)
(1.22538 0.0521229 0)
(1.22179 0.0483543 0)
(1.21842 0.0447303 0)
(1.21526 0.0412406 0)
(1.2123 0.0378752 0)
(1.20955 0.0346242 0)
(1.207 0.0314781 0)
(1.20466 0.0284278 0)
(1.20253 0.0254642 0)
(1.2006 0.0225783 0)
(1.19889 0.0197616 0)
(1.19738 0.0170055 0)
(1.19609 0.0143016 0)
(1.19501 0.0116417 0)
(1.19415 0.00901767 0)
(1.1935 0.00642145 0)
(1.19307 0.00384496 0)
(1.19285 0.00128031 0)
(1.19515 0.114281 0)
(1.23007 0.112271 0)
(1.24736 0.106414 0)
(1.25336 0.100425 0)
(1.25321 0.0945277 0)
(1.25014 0.0887953 0)
(1.24589 0.083298 0)
(1.24131 0.078055 0)
(1.23677 0.073059 0)
(1.23243 0.0682948 0)
(1.22833 0.0637453 0)
(1.22448 0.059394 0)
(1.22086 0.0552259 0)
(1.21745 0.0512269 0)
(1.21424 0.0473843 0)
(1.21123 0.043686 0)
(1.20842 0.0401208 0)
(1.20579 0.0366778 0)
(1.20336 0.0333465 0)
(1.20113 0.0301167 0)
(1.19909 0.0269786 0)
(1.19725 0.0239226 0)
(1.19561 0.0209396 0)
(1.19417 0.0180203 0)
(1.19294 0.015156 0)
(1.19191 0.0123379 0)
(1.19108 0.00955734 0)
(1.19046 0.00680598 0)
(1.19005 0.0040753 0)
(1.18984 0.00135703 0)
(1.19085 0.12125 0)
(1.22401 0.118844 0)
(1.24051 0.112491 0)
(1.24633 0.106069 0)
(1.24632 0.0997639 0)
(1.24352 0.0936505 0)
(1.23957 0.0878022 0)
(1.23529 0.0822364 0)
(1.23104 0.0769426 0)
(1.22697 0.0719023 0)
(1.22311 0.0670958 0)
(1.21949 0.0625043 0)
(1.21607 0.0581101 0)
(1.21286 0.0538976 0)
(1.20983 0.0498522 0)
(1.20698 0.0459606 0)
(1.20432 0.0422101 0)
(1.20183 0.0385889 0)
(1.19952 0.0350855 0)
(1.1974 0.031689 0)
(1.19546 0.0283888 0)
(1.19372 0.0251747 0)
(1.19216 0.022037 0)
(1.19079 0.0189659 0)
(1.18961 0.0159522 0)
(1.18863 0.0129867 0)
(1.18784 0.0100604 0)
(1.18725 0.00716441 0)
(1.18686 0.00429002 0)
(1.18666 0.00142855 0)
(1.18597 0.127674 0)
(1.21741 0.124857 0)
(1.23317 0.118036 0)
(1.23884 0.111221 0)
(1.239 0.104545 0)
(1.23649 0.098086 0)
(1.23289 0.0919204 0)
(1.22894 0.0860627 0)
(1.225 0.0804991 0)
(1.22121 0.0752086 0)
(1.21762 0.070169 0)
(1.21424 0.065359 0)
(1.21105 0.0607592 0)
(1.20804 0.0563521 0)
(1.2052 0.0521218 0)
(1.20252 0.0480536 0)
(1.20001 0.0441337 0)
(1.19767 0.0403494 0)
(1.1955 0.0366883 0)
(1.19349 0.0331387 0)
(1.19166 0.0296896 0)
(1.19001 0.0263302 0)
(1.18853 0.02305 0)
(1.18724 0.019839 0)
(1.18612 0.0166876 0)
(1.18519 0.013586 0)
(1.18444 0.0105251 0)
(1.18388 0.00749565 0)
(1.18351 0.00448846 0)
(1.18332 0.00149465 0)
(1.18054 0.133457 0)
(1.21033 0.130227 0)
(1.22537 0.122983 0)
(1.23094 0.115822 0)
(1.23129 0.108821 0)
(1.22912 0.10206 0)
(1.22587 0.0956169 0)
(1.22228 0.0895031 0)
(1.21867 0.0837024 0)
(1.21519 0.0781911 0)
(1.21189 0.0729451 0)
(1.20876 0.0679413 0)
(1.20581 0.0631586 0)
(1.20301 0.058578 0)
(1.20037 0.0541822 0)
(1.19788 0.0499556 0)
(1.19553 0.0458835 0)
(1.19334 0.0419521 0)
(1.1913 0.0381486 0)
(1.18942 0.0344607 0)
(1.1877 0.0308766 0)
(1.18614 0.0273851 0)
(1.18475 0.0239754 0)
(1.18353 0.020637 0)
(1.18248 0.0173599 0)
(1.1816 0.0141343 0)
(1.1809 0.0109503 0)
(1.18037 0.00779875 0)
(1.18001 0.00467007 0)
(1.17984 0.00155514 0)
(1.17458 0.138518 0)
(1.20281 0.134883 0)
(1.21719 0.127274 0)
(1.22267 0.119825 0)
(1.22325 0.112551 0)
(1.22143 0.105537 0)
(1.21857 0.0988612 0)
(1.21536 0.0925317 0)
(1.2121 0.0865299 0)
(1.20895 0.0808305 0)
(1.20594 0.0754077 0)
(1.20308 0.0702369 0)
(1.20037 0.0652959 0)
(1.1978 0.0605643 0)
(1.19537 0.0560241 0)
(1.19306 0.0516586 0)
(1.19089 0.0474524 0)
(1.18885 0.0433912 0)
(1.18695 0.0394615 0)
(1.1852 0.0356504 0)
(1.18359 0.0319459 0)
(1.18214 0.0283363 0)
(1.18084 0.0248104 0)
(1.17969 0.0213576 0)
(1.1787 0.0179674 0)
(1.17788 0.0146298 0)
(1.17722 0.0113348 0)
(1.17672 0.0080729 0)
(1.17639 0.00483437 0)
(1.17622 0.00160988 0)
(1.16816 0.142788 0)
(1.1949 0.138771 0)
(1.20867 0.130866 0)
(1.21411 0.123192 0)
(1.21495 0.115703 0)
(1.2135 0.10849 0)
(1.21104 0.10163 0)
(1.20822 0.0951281 0)
(1.20533 0.088964 0)
(1.20251 0.0831115 0)
(1.19981 0.0775435 0)
(1.19723 0.0722345 0)
(1.19478 0.0671612 0)
(1.19244 0.0623027 0)
(1.19021 0.0576401 0)
(1.1881 0.0531562 0)
(1.1861 0.0488351 0)
(1.18423 0.0446618 0)
(1.18247 0.0406226 0)
(1.18085 0.0367043 0)
(1.17936 0.0328944 0)
(1.17801 0.0291811 0)
(1.1768 0.0255529 0)
(1.17573 0.0219989 0)
(1.17481 0.0185085 0)
(1.17404 0.0150715 0)
(1.17342 0.0116777 0)
(1.17295 0.00831749 0)
(1.17264 0.00498099 0)
(1.17249 0.00165873 0)
(1.16135 0.146219 0)
(1.1867 0.141851 0)
(1.19991 0.133729 0)
(1.20534 0.125898 0)
(1.20644 0.118255 0)
(1.20538 0.1109 0)
(1.20333 0.103907 0)
(1.20091 0.0972779 0)
(1.1984 0.0909925 0)
(1.19593 0.0850234 0)
(1.19354 0.0793431 0)
(1.19124 0.0739258 0)
(1.18905 0.0687476 0)
(1.18695 0.0637871 0)
(1.18494 0.0590251 0)
(1.18302 0.054444 0)
(1.1812 0.0500275 0)
(1.17949 0.0457607 0)
(1.17788 0.0416293 0)
(1.17639 0.03762 0)
(1.17501 0.0337202 0)
(1.17377 0.0299179 0)
(1.17265 0.0262014 0)
(1.17166 0.0225598 0)
(1.1708 0.0189823 0)
(1.17009 0.0154585 0)
(1.16951 0.0119784 0)
(1.16908 0.0085321 0)
(1.16879 0.00510968 0)
(1.16865 0.00170161 0)
(1.15422 0.148781 0)
(1.17827 0.144104 0)
(1.19097 0.135848 0)
(1.19641 0.127928 0)
(1.1978 0.120196 0)
(1.19713 0.112756 0)
(1.19551 0.105682 0)
(1.19349 0.0989735 0)
(1.19136 0.0926084 0)
(1.18923 0.0865602 0)
(1.18715 0.0808015 0)
(1.18515 0.0753064 0)
(1.18322 0.0700511 0)
(1.18135 0.065014 0)
(1.17956 0.060176 0)
(1.17784 0.0555193 0)
(1.1762 0.0510276 0)
(1.17465 0.0466859 0)
(1.17319 0.0424798 0)
(1.17183 0.0383961 0)
(1.17058 0.0344221 0)
(1.16943 0.0305455 0)
(1.1684 0.0267551 0)
(1.16749 0.0230395 0)
(1.16671 0.0193881 0)
(1.16605 0.0157905 0)
(1.16552 0.0122366 0)
(1.16512 0.00871649 0)
(1.16485 0.00522031 0)
(1.16472 0.00173849 0)
(1.14687 0.150465 0)
(1.16971 0.145529 0)
(1.18195 0.137223 0)
(1.18742 0.129284 0)
(1.1891 0.121525 0)
(1.18882 0.114059 0)
(1.18761 0.106956 0)
(1.186 0.100214 0)
(1.18424 0.0938106 0)
(1.18246 0.0877209 0)
(1.1807 0.0819177 0)
(1.17898 0.0763755 0)
(1.17731 0.0710709 0)
(1.17568 0.0659829 0)
(1.17411 0.0610923 0)
(1.17259 0.0563817 0)
(1.17113 0.051835 0)
(1.16974 0.0474371 0)
(1.16842 0.043174 0)
(1.1672 0.0390325 0)
(1.16606 0.0349998 0)
(1.16502 0.0310641 0)
(1.16408 0.0272138 0)
(1.16325 0.023438 0)
(1.16254 0.019726 0)
(1.16193 0.0160674 0)
(1.16145 0.0124523 0)
(1.16108 0.00887068 0)
(1.16083 0.00531288 0)
(1.16071 0.00176936 0)
(1.13938 0.151278 0)
(1.1611 0.146138 0)
(1.17292 0.137866 0)
(1.17844 0.129975 0)
(1.18041 0.122251 0)
(1.18051 0.114817 0)
(1.17971 0.107735 0)
(1.17849 0.101004 0)
(1.1771 0.0946038 0)
(1.17566 0.0885092 0)
(1.17421 0.0826947 0)
(1.17278 0.0771356 0)
(1.17136 0.0718094 0)
(1.16997 0.0666957 0)
(1.16861 0.0617758 0)
(1.16728 0.0570328 0)
(1.166 0.052451 0)
(1.16477 0.0480156 0)
(1.1636 0.043713 0)
(1.16251 0.03953 0)
(1.16149 0.0354543 0)
(1.16055 0.0314742 0)
(1.15971 0.0275784 0)
(1.15895 0.0237559 0)
(1.1583 0.0199964 0)
(1.15775 0.0162896 0)
(1.15731 0.0126257 0)
(1.15698 0.00899486 0)
(1.15675 0.00538751 0)
(1.15664 0.00179426 0)
(1.13186 0.151252 0)
(1.15252 0.145964 0)
(1.16396 0.137806 0)
(1.16954 0.130024 0)
(1.17178 0.122395 0)
(1.17226 0.115045 0)
(1.17185 0.108033 0)
(1.17101 0.101357 0)
(1.16999 0.0949978 0)
(1.16887 0.0889337 0)
(1.16773 0.0831399 0)
(1.16656 0.0775932 0)
(1.1654 0.0722721 0)
(1.16424 0.0671571 0)
(1.16308 0.0622306 0)
(1.16195 0.0574762 0)
(1.16084 0.0528788 0)
(1.15977 0.0484242 0)
(1.15875 0.0440991 0)
(1.15778 0.0398909 0)
(1.15687 0.0357875 0)
(1.15604 0.0317776 0)
(1.15528 0.0278501 0)
(1.15461 0.0239944 0)
(1.15402 0.0202004 0)
(1.15353 0.0164579 0)
(1.15313 0.0127575 0)
(1.15282 0.00908947 0)
(1.15262 0.00544446 0)
(1.15252 0.00181327 0)
(1.12439 0.150428 0)
(1.14407 0.145052 0)
(1.15515 0.13708 0)
(1.16078 0.129466 0)
(1.1633 0.121985 0)
(1.16412 0.114767 0)
(1.16409 0.107869 0)
(1.16362 0.101288 0)
(1.16293 0.0950075 0)
(1.16213 0.0890071 0)
(1.16127 0.0832643 0)
(1.16038 0.0777577 0)
(1.15945 0.0724671 0)
(1.15851 0.0673745 0)
(1.15756 0.0624631 0)
(1.15661 0.0577175 0)
(1.15567 0.0531233 0)
(1.15475 0.0486671 0)
(1.15387 0.0443362 0)
(1.15303 0.0401184 0)
(1.15223 0.0360022 0)
(1.1515 0.0319766 0)
(1.15083 0.028031 0)
(1.15023 0.0241552 0)
(1.14971 0.0203393 0)
(1.14926 0.0165735 0)
(1.14891 0.0128486 0)
(1.14863 0.00915514 0)
(1.14845 0.00548411 0)
(1.14836 0.00182653 0)
(1.11706 0.148864 0)
(1.13582 0.143458 0)
(1.14657 0.135736 0)
(1.15224 0.12834 0)
(1.155 0.121055 0)
(1.15615 0.114015 0)
(1.15647 0.107271 0)
(1.15634 0.100821 0)
(1.15597 0.0946521 0)
(1.15547 0.088746 0)
(1.15489 0.0830823 0)
(1.15425 0.0776416 0)
(1.15355 0.0724055 0)
(1.15282 0.0673574 0)
(1.15207 0.0624816 0)
(1.15129 0.0577639 0)
(1.15052 0.053191 0)
(1.14975 0.04875 0)
(1.14899 0.0444291 0)
(1.14827 0.0402168 0)
(1.14758 0.0361021 0)
(1.14694 0.0320746 0)
(1.14636 0.028124 0)
(1.14583 0.0242407 0)
(1.14537 0.0204151 0)
(1.14498 0.0166379 0)
(1.14466 0.0129001 0)
(1.14442 0.0091927 0)
(1.14426 0.00550696 0)
(1.14418 0.0018342 0)
(1.10992 0.146625 0)
(1.12783 0.141247 0)
(1.13825 0.133829 0)
(1.14397 0.126694 0)
(1.14694 0.119648 0)
(1.14839 0.112823 0)
(1.14903 0.106268 0)
(1.14921 0.0999819 0)
(1.14915 0.0939546 0)
(1.14893 0.0881703 0)
(1.1486 0.0826113 0)
(1.1482 0.0772602 0)
(1.14772 0.0721006 0)
(1.14719 0.0671173 0)
(1.14662 0.0622963 0)
(1.14601 0.0576245 0)
(1.14539 0.0530896 0)
(1.14476 0.0486798 0)
(1.14413 0.0443839 0)
(1.14353 0.0401913 0)
(1.14294 0.0360918 0)
(1.1424 0.0320753 0)
(1.14189 0.0281324 0)
(1.14143 0.0242537 0)
(1.14103 0.0204301 0)
(1.14069 0.016653 0)
(1.14041 0.0129135 0)
(1.1402 0.00920318 0)
(1.14006 0.0055136 0)
(1.13999 0.00183647 0)
(1.10306 0.143788 0)
(1.12015 0.138492 0)
(1.13026 0.131421 0)
(1.136 0.124582 0)
(1.13916 0.117809 0)
(1.14088 0.111232 0)
(1.14181 0.104895 0)
(1.14228 0.0988008 0)
(1.14249 0.0929409 0)
(1.14253 0.0873028 0)
(1.14244 0.0818711 0)
(1.14225 0.0766307 0)
(1.14198 0.0715674 0)
(1.14164 0.0666676 0)
(1.14124 0.0619189 0)
(1.14079 0.0573095 0)
(1.14031 0.0528282 0)
(1.13981 0.0484643 0)
(1.13931 0.0442076 0)
(1.13881 0.0400482 0)
(1.13833 0.0359766 0)
(1.13786 0.0319835 0)
(1.13744 0.02806 0)
(1.13705 0.0241974 0)
(1.1367 0.0203872 0)
(1.13641 0.0166209 0)
(1.13617 0.0128905 0)
(1.13598 0.00918776 0)
(1.13586 0.00550476 0)
(1.1358 0.00183359 0)
(1.09651 0.140432 0)
(1.11283 0.135267 0)
(1.12264 0.128574 0)
(1.12838 0.12206 0)
(1.1317 0.115587 0)
(1.13366 0.109284 0)
(1.13484 0.10319 0)
(1.13557 0.0973097 0)
(1.13603 0.0916393 0)
(1.1363 0.0861681 0)
(1.13642 0.0808833 0)
(1.13644 0.0757723 0)
(1.13635 0.0708228 0)
(1.13618 0.0660232 0)
(1.13594 0.0613626 0)
(1.13564 0.0568305 0)
(1.1353 0.052417 0)
(1.13492 0.0481126 0)
(1.13453 0.043908 0)
(1.13414 0.0397942 0)
(1.13374 0.0357624 0)
(1.13336 0.0318043 0)
(1.13301 0.0279114 0)
(1.13268 0.0240757 0)
(1.13239 0.0202892 0)
(1.13214 0.0165442 0)
(1.13193 0.0128329 0)
(1.13178 0.00914777 0)
(1.13167 0.00548121 0)
(1.13162 0.00182582 0)
(1.09032 0.136641 0)
(1.1059 0.131647 0)
(1.11542 0.125354 0)
(1.12113 0.119184 0)
(1.12458 0.113033 0)
(1.12674 0.107021 0)
(1.12814 0.101189 0)
(1.1291 0.0955427 0)
(1.12977 0.0900796 0)
(1.13025 0.0847924 0)
(1.13058 0.0796711 0)
(1.13077 0.0747054 0)
(1.13086 0.0698849 0)
(1.13084 0.0651999 0)
(1.13075 0.0606412 0)
(1.13058 0.0561998 0)
(1.13036 0.051867 0)
(1.13011 0.0476343 0)
(1.12982 0.0434936 0)
(1.12952 0.0394367 0)
(1.12921 0.0354558 0)
(1.12891 0.0315432 0)
(1.12862 0.0276913 0)
(1.12835 0.0238926 0)
(1.12811 0.0201397 0)
(1.1279 0.0164256 0)
(1.12773 0.0127429 0)
(1.1276 0.00908467 0)
(1.12751 0.00544383 0)
(1.12746 0.00181344 0)
(1.08451 0.132494 0)
(1.09939 0.127707 0)
(1.10861 0.121825 0)
(1.11428 0.116011 0)
(1.11783 0.110195 0)
(1.12014 0.10449 0)
(1.12173 0.0989336 0)
(1.12289 0.0935341 0)
(1.12376 0.0882922 0)
(1.12442 0.0832029 0)
(1.12491 0.0782585 0)
(1.12527 0.0734511 0)
(1.12551 0.0687724 0)
(1.12563 0.0642146 0)
(1.12567 0.0597698 0)
(1.12563 0.0554307 0)
(1.12552 0.0511897 0)
(1.12537 0.0470397 0)
(1.12518 0.0429734 0)
(1.12497 0.0389837 0)
(1.12474 0.0350637 0)
(1.12451 0.0312063 0)
(1.12428 0.0274048 0)
(1.12407 0.0236523 0)
(1.12387 0.0199422 0)
(1.1237 0.0162678 0)
(1.12356 0.0126226 0)
(1.12345 0.00900003 0)
(1.12338 0.00539355 0)
(1.12334 0.00179677 0)
(1.0791 0.128068 0)
(1.09331 0.123516 0)
(1.10222 0.118047 0)
(1.10783 0.112598 0)
(1.11144 0.107124 0)
(1.11389 0.101733 0)
(1.11563 0.0964615 0)
(1.11695 0.0913188 0)
(1.11798 0.0863081 0)
(1.1188 0.0814268 0)
(1.11945 0.0766699 0)
(1.11995 0.0720312 0)
(1.12032 0.0675048 0)
(1.12057 0.0630843 0)
(1.12072 0.0587636 0)
(1.12079 0.0545367 0)
(1.12079 0.0503973 0)
(1.12073 0.0463395 0)
(1.12063 0.0423569 0)
(1.12049 0.0384436 0)
(1.12034 0.0345933 0)
(1.12017 0.0307999 0)
(1.12 0.0270574 0)
(1.11984 0.0233596 0)
(1.11969 0.0197005 0)
(1.11955 0.0160741 0)
(1.11944 0.0124744 0)
(1.11935 0.00889551 0)
(1.11929 0.00533137 0)
(1.11926 0.00177613 0)
(1.0741 0.123438 0)
(1.08766 0.11914 0)
(1.09627 0.114081 0)
(1.10179 0.108995 0)
(1.10544 0.103867 0)
(1.10798 0.0987936 0)
(1.10985 0.0938108 0)
(1.1113 0.0889304 0)
(1.11247 0.0841575 0)
(1.11342 0.0794914 0)
(1.11419 0.0749294 0)
(1.11481 0.0704675 0)
(1.1153 0.0661014 0)
(1.11566 0.0618265 0)
(1.11592 0.0576381 0)
(1.11608 0.0535317 0)
(1.11617 0.0495022 0)
(1.1162 0.0455446 0)
(1.11617 0.0416539 0)
(1.11611 0.0378249 0)
(1.11602 0.0340522 0)
(1.11591 0.0303306 0)
(1.11579 0.0266547 0)
(1.11567 0.0230191 0)
(1.11556 0.0194185 0)
(1.11546 0.0158475 0)
(1.11537 0.0123008 0)
(1.1153 0.00877282 0)
(1.11525 0.0052583 0)
(1.11523 0.00175186 0)
(1.06949 0.118669 0)
(1.08243 0.11464 0)
(1.09074 0.10998 0)
(1.09615 0.105254 0)
(1.09981 0.100467 0)
(1.10241 0.095711 0)
(1.10438 0.0910178 0)
(1.10594 0.0864019 0)
(1.10721 0.0818699 0)
(1.10827 0.0774234 0)
(1.10915 0.0730612 0)
(1.10987 0.0687815 0)
(1.11046 0.0645816 0)
(1.11091 0.0604585 0)
(1.11126 0.056409 0)
(1.11151 0.0524297 0)
(1.11168 0.0485167 0)
(1.11178 0.0446663 0)
(1.11182 0.0408742 0)
(1.11182 0.0371362 0)
(1.11179 0.0334479 0)
(1.11173 0.0298049 0)
(1.11166 0.0262023 0)
(1.11158 0.0226357 0)
(1.1115 0.0191004 0)
(1.11143 0.0155914 0)
(1.11137 0.0121041 0)
(1.11132 0.00863375 0)
(1.11128 0.00517541 0)
(1.11126 0.00172433 0)
(1.06529 0.113824 0)
(1.07763 0.110069 0)
(1.08563 0.105794 0)
(1.09092 0.10142 0)
(1.09455 0.0969681 0)
(1.09719 0.0925232 0)
(1.09923 0.0881169 0)
(1.10086 0.0837643 0)
(1.10222 0.0794737 0)
(1.10337 0.0752481 0)
(1.10433 0.0710884 0)
(1.10514 0.0669942 0)
(1.1058 0.0629644 0)
(1.10634 0.0589975 0)
(1.10676 0.0550916 0)
(1.10708 0.0512444 0)
(1.10732 0.0474533 0)
(1.10748 0.0437154 0)
(1.10758 0.0400276 0)
(1.10764 0.0363864 0)
(1.10765 0.0327883 0)
(1.10764 0.0292295 0)
(1.10761 0.0257062 0)
(1.10757 0.0222144 0)
(1.10752 0.01875 0)
(1.10748 0.015309 0)
(1.10743 0.0118871 0)
(1.1074 0.00848009 0)
(1.10737 0.00508376 0)
(1.10736 0.00169387 0)
(1.06147 0.108954 0)
(1.07324 0.105476 0)
(1.08093 0.101567 0)
(1.08607 0.0975332 0)
(1.08966 0.0934065 0)
(1.09231 0.0892652 0)
(1.09439 0.08514 0)
(1.09608 0.081047 0)
(1.0975 0.0769955 0)
(1.0987 0.0729901 0)
(1.09973 0.0690331 0)
(1.1006 0.0651257 0)
(1.10133 0.0612681 0)
(1.10193 0.0574601 0)
(1.10241 0.053701 0)
(1.1028 0.0499895 0)
(1.10309 0.0463242 0)
(1.10331 0.0427031 0)
(1.10346 0.0391239 0)
(1.10356 0.0355841 0)