/*--------------------------------*- C++ -*----------------------------------*\
  =========                 |
  \\      /  F ield         | OpenFOAM: The Open Source CFD Toolbox
   \\    /   O peration     | Website:  https://openfoam.org
    \\  /    A nd           | Version:  7
     \\/     M anipulation  |
\*---------------------------------------------------------------------------*/
FoamFile
{
    version     2.0;
    format      ascii;
    class       volScalarField;
    location    "40";
    object      p;
}
// * * * * * * * * * * * * * * * * * * * * * * * * * * * * * * * * * * * * * //

dimensions      [0 2 -2 0 0 0 0];

internalField   nonuniform List<scalar> 
1360
(
-0.310667
0.848419
0.799338
0.848419
0.799338
0.81983
0.772212
0.763948
0.719197
0.683295
0.642705
0.615253
0.581485
0.546191
0.523642
0.510857
0.463027
0.433965
0.417029
0.409867
0.333083
0.310958
0.300063
0.298771
0.302096
0.19718
0.182443
0.177734
0.182214
0.191761
0.203447
0.21522
0.060916
0.0537311
0.0550908
0.0649311
0.0801497
0.0979458
0.116109
0.133075
0.147929
-0.0703185
-0.0701583
-0.0630543
-0.048509
-0.0284703
-0.00547373
0.01823
0.0409473
0.0615999
0.0796454
0.0949365
-0.192129
-0.184553
-0.172358
-0.153997
-0.130166
-0.103152
-0.0750709
-0.047655
-0.0221036
0.000893299
0.0210582
0.0383993
0.053102
0.0654407
-0.300158
-0.285999
-0.269318
-0.247991
-0.221634
-0.191914
-0.160805
-0.129985
-0.10069
-0.0737459
-0.0495475
-0.0282046
-0.00962236
0.00641495
0.0201691
0.0319033
0.0419585
-0.391682
-0.371757
-0.351358
-0.327985
-0.300214
-0.269146
-0.236456
-0.203659
-0.171971
-0.142261
-0.115051
-0.0905687
-0.0688252
-0.0496855
-0.0329405
-0.0183578
-0.00564225
0.00568006
0.0157596
0.0225325
-0.464995
-0.440293
-0.416987
-0.392403
-0.364245
-0.333073
-0.300184
-0.266843
-0.234149
-0.20297
-0.1739
-0.147276
-0.123217
-0.101685
-0.0825444
-0.0656134
-0.0506548
-0.0373016
-0.0253098
-0.0160256
-0.519557
-0.49122
-0.465835
-0.440749
-0.413042
-0.382792
-0.3509
-0.318317
-0.285954
-0.254604
-0.22488
-0.197188
-0.171747
-0.148621
-0.127763
-0.109058
-0.0923358
-0.0773233
-0.0638083
-0.0525586
-0.555943
-0.525209
-0.498566
-0.47356
-0.44691
-0.418324
-0.388338
-0.357575
-0.326701
-0.29637
-0.267149
-0.239468
-0.213614
-0.189738
-0.167883
-0.148012
-0.130029
-0.113758
-0.0990126
-0.0861014
-0.575684
-0.543816
-0.516715
-0.492251
-0.467043
-0.440568
-0.413064
-0.384852
-0.356342
-0.328005
-0.300302
-0.273631
-0.248302
-0.224524
-0.202416
-0.182015
-0.163303
-0.146202
-0.130568
-0.116306
-0.581021
-0.549236
-0.522437
-0.498888
-0.475336
-0.451156
-0.426383
-0.401102
-0.375488
-0.349816
-0.324407
-0.299577
-0.275608
-0.25273
-0.231104
-0.21083
-0.191956
-0.174498
-0.158386
-0.143226
-0.57463
-0.544025
-0.518228
-0.495914
-0.47412
-0.452232
-0.430177
-0.407882
-0.385346
-0.362668
-0.340021
-0.31761
-0.295652
-0.274348
-0.25387
-0.234348
-0.215876
-0.198541
-0.182362
-0.166739
-0.559335
-0.530827
-0.506648
-0.485854
-0.465872
-0.446174
-0.426655
-0.407166
-0.387595
-0.367915
-0.348169
-0.328455
-0.3089
-0.289652
-0.270854
-0.252636
-0.235106
-0.218394
-0.202604
-0.186964
-0.537846
-0.512133
-0.490078
-0.471062
-0.452943
-0.435312
-0.418083
-0.40109
-0.384177
-0.367245
-0.350251
-0.333203
-0.316151
-0.299176
-0.282378
-0.265861
-0.249722
-0.234112
-0.219233
-0.204105
-0.512554
-0.4901
-0.470552
-0.453541
-0.437348
-0.421689
-0.406516
-0.391688
-0.37705
-0.362477
-0.347887
-0.333236
-0.318519
-0.30377
-0.289053
-0.274449
-0.260049
-0.246042
-0.232843
-0.219321
-0.485399
-0.466459
-0.449668
-0.434838
-0.420641
-0.406898
-0.393605
-0.380657
-0.367925
-0.355293
-0.342669
-0.329989
-0.317221
-0.304369
-0.291477
-0.278621
-0.265894
-0.25357
-0.242567
-0.232134
-0.457832
-0.442485
-0.428579
-0.41604
-0.403891
-0.392037
-0.380504
-0.369227
-0.358111
-0.347064
-0.336004
-0.324869
-0.313618
-0.302245
-0.290789
-0.279342
-0.26803
-0.257094
-0.247767
-0.242366
-0.430857
-0.419064
-0.408055
-0.39784
-0.387746
-0.377742
-0.367875
-0.358112
-0.348389
-0.338638
-0.328787
-0.318771
-0.308526
-0.297994
-0.287123
-0.275889
-0.264258
-0.251716
-0.236886
-0.225358
-0.405164
-0.396791
-0.388605
-0.380659
-0.372562
-0.364336
-0.356039
-0.347668
-0.33919
-0.330563
-0.321739
-0.312667
-0.303292
-0.29356
-0.283417
-0.272856
-0.261924
-0.250191
-0.236107
-0.225099
-0.381296
-0.376152
-0.370615
-0.364796
-0.358562
-0.351981
-0.345121
-0.338007
-0.330636
-0.322995
-0.315062
-0.306811
-0.298211
-0.289229
-0.279838
-0.270063
-0.259987
-0.249258
-0.236684
-0.22742
-0.359785
-0.357597
-0.354462
-0.350547
-0.345966
-0.340834
-0.335232
-0.329206
-0.322785
-0.315982
-0.308802
-0.301245
-0.293306
-0.284978
-0.276261
-0.267206
-0.2579
-0.248061
-0.236907
-0.228919
-0.341257
-0.341658
-0.340591
-0.338287
-0.33509
-0.33116
-0.326592
-0.321457
-0.315809
-0.309689
-0.303126
-0.296146
-0.28877
-0.28102
-0.272926
-0.264559
-0.256009
-0.247089
-0.237382
-0.230226
-0.326432
-0.328934
-0.329517
-0.328474
-0.326347
-0.323338
-0.319556
-0.315094
-0.31003
-0.304428
-0.298338
-0.29181
-0.28489
-0.277624
-0.27007
-0.262312
-0.254441
-0.246381
-0.237982
-0.231294
-0.316035
-0.320028
-0.321763
-0.321587
-0.320186
-0.317798
-0.314542
-0.310529
-0.305855
-0.300598
-0.29483
-0.288614
-0.282018
-0.275106
-0.267955
-0.260655
-0.253299
-0.245906
-0.238494
-0.23202
-0.310667
-0.315435
-0.317763
-0.318028
-0.316994
-0.314917
-0.311925
-0.308136
-0.303656
-0.298573
-0.292966
-0.286912
-0.280483
-0.27376
-0.266825
-0.259771
-0.252693
-0.245667
-0.238782
-0.23238
0.0247599
0.0262545
0.0266106
0.0276444
0.0288517
0.0300592
0.0312475
0.0323909
0.0334526
0.0344134
0.0352673
0.0360136
0.0366539
0.0371909
0.0376278
0.0379675
0.0382129
0.0383627
0.0384058
0.0383824
-0.00928564
-0.00308969
0.00143396
0.00571995
0.00950535
0.0127443
0.015585
0.0181195
0.0203285
0.0222422
0.0238927
0.025306
0.0265037
0.0275043
0.0283226
0.0289708
0.0294591
0.0297924
0.0299633
0.0300017
-0.0416491
-0.0308307
-0.0225201
-0.015332
-0.00918137
-0.00412604
0.000229144
0.00411952
0.00742093
0.0102445
0.0126587
0.0147132
0.0164487
0.0178981
0.0190878
0.0200387
0.0207675
0.0212858
0.0215916
0.021701
-0.0716933
-0.0569622
-0.0452439
-0.0354757
-0.0272488
-0.0202934
-0.0143791
-0.00934601
-0.00507034
-0.00141795
0.0017014
0.0043547
0.0065968
0.00847238
0.0100172
0.0112596
0.0122223
0.0129216
0.0133624
0.0135551
-0.0988544
-0.0810146
-0.0664703
-0.0544077
-0.0443112
-0.0357802
-0.0285473
-0.0224166
-0.0172021
-0.0127514
-0.00895471
-0.00572689
-0.0029984
-0.000713161
0.00117366
0.00269762
0.00388699
0.00476341
0.00533713
0.0056072
-0.123304
-0.102967
-0.0861438
-0.0721506
-0.0604169
-0.0505016
-0.0420943
-0.0349471
-0.0288528
-0.0236493
-0.0192121
-0.0154397
-0.0122497
-0.00957528
-0.00736343
-0.00557187
-0.00416714
-0.00312241
-0.00242185
-0.00207831
-0.144814
-0.122688
-0.104268
-0.0887284
-0.0755396
-0.0643638
-0.0548915
-0.0468214
-0.0399222
-0.0340247
-0.0289923
-0.0247109
-0.0210874
-0.0180471
-0.0155296
-0.0134868
-0.0118807
-0.0106799
-0.00986254
-0.00945005
-0.163211
-0.140306
-0.121234
-0.104474
-0.0898907
-0.077518
-0.0670369
-0.0580771
-0.0504026
-0.0438435
-0.0382482
-0.0334871
-0.0294568
-0.0260741
-0.0232719
-0.0209964
-0.0192054
-0.0178635
-0.0169431
-0.0164697
-0.178222
-0.155732
-0.136782
-0.118835
-0.102965
-0.0896452
-0.0783413
-0.0686047
-0.0602379
-0.0530785
-0.0469616
-0.0417504
-0.0373366
-0.0336316
-0.0305624
-0.0280706
-0.02611
-0.024642
-0.0236337
-0.0231093
-0.191269
-0.171314
-0.152858
-0.133295
-0.115987
-0.101559
-0.0892025
-0.0785453
-0.0694395
-0.0616782
-0.0550578
-0.0494243
-0.0446575
-0.0406591
-0.0373495
-0.0346653
-0.0325567
-0.0309827
-0.0299058
-0.0293437
-0.202151
-0.184686
-0.165064
-0.14436
-0.126859
-0.112068
-0.0990865
-0.0878061
-0.0781232
-0.0698215
-0.0627146
-0.05666
-0.0515366
-0.0472416
-0.0436906
-0.0408157
-0.0385637
-0.0368913
-0.0357576
-0.035168
-0.226575
-0.208526
-0.184012
-0.160323
-0.140407
-0.123335
-0.108703
-0.0963522
-0.085918
-0.0770496
-0.0695023
-0.0630952
-0.0576846
-0.0531563
-0.0494198
-0.0464025
-0.0440476
-0.0423107
-0.04115
-0.0405565
-0.219133
-0.206897
-0.188168
-0.168736
-0.150347
-0.13337
-0.118284
-0.105197
-0.0939381
-0.0842896
-0.0760534
-0.0690529
-0.0631391
-0.0581905
-0.0541089
-0.0508156
-0.0482488
-0.0463621
-0.045114
-0.0444791
-0.219072
-0.206005
-0.188794
-0.171077
-0.153663
-0.137235
-0.122395
-0.109316
-0.0979354
-0.0881169
-0.0796981
-0.0725203
-0.0664437
-0.061351
-0.0571459
-0.0537499
-0.0511012
-0.0491536
-0.047868
-0.047217
-0.218604
-0.20368
-0.186395
-0.169408
-0.15289
-0.137355
-0.123249
-0.110711
-0.0997149
-0.090164
-0.0819279
-0.0748738
-0.0688804
-0.0638434
-0.0596749
-0.0563026
-0.053669
-0.0517303
-0.0504518
-0.0498095
-0.215845
-0.200148
-0.183348
-0.167111
-0.151452
-0.13678
-0.123419
-0.111475
-0.100934
-0.0917234
-0.0837373
-0.076866
-0.0710062
-0.0660665
-0.0619685
-0.058647
-0.0560492
-0.0541348
-0.0528725
-0.0522414
-0.21155
-0.196136
-0.18041
-0.165102
-0.150289
-0.136391
-0.123679
-0.112252
-0.102112
-0.0932036
-0.0854428
-0.078738
-0.0730007
-0.0681506
-0.0641177
-0.0608431
-0.0582784
-0.0563863
-0.0551386
-0.0545162
-0.206626
-0.191967
-0.177433
-0.163086
-0.14911
-0.135945
-0.12384
-0.112898
-0.103137
-0.0945199
-0.0869799
-0.0804413
-0.0748283
-0.0700706
-0.0661059
-0.062881
-0.0603519
-0.0584843
-0.057252
-0.0566382
-0.201461
-0.187683
-0.174269
-0.160839
-0.147682
-0.135235
-0.123729
-0.113275
-0.103902
-0.0955886
-0.0882844
-0.0819273
-0.0764532
-0.071801
-0.0679158
-0.06475
-0.0622638
-0.0604261
-0.059213
-0.0586091
-0.196165
-0.183295
-0.170921
-0.158365
-0.146005
-0.134259
-0.123348
-0.113384
-0.104408
-0.0964119
-0.0893584
-0.083198
-0.0778769
-0.073343
-0.0695484
-0.066451
-0.0640152
-0.0622128
-0.0610224
-0.0604301
-0.190801
-0.178841
-0.167444
-0.155724
-0.144139
-0.133074
-0.122744
-0.113266
-0.10469
-0.0970178
-0.0902241
-0.0842704
-0.0791126
-0.0747067
-0.0710113
-0.0679895
-0.06561
-0.0638474
-0.0626825
-0.0621029
-0.185432
-0.174361
-0.163866
-0.152971
-0.142122
-0.131714
-0.12195
-0.112951
-0.104773
-0.0974267
-0.0908982
-0.085158
-0.080171
-0.0759003
-0.0723109
-0.0693706
-0.0670521
-0.065333
-0.064196
-0.0636304
-0.180105
-0.169883
-0.160228
-0.15011
-0.139971
-0.130198
-0.120985
-0.112455
-0.104671
-0.0976519
-0.0913918
-0.0858703
-0.0810598
-0.0769304
-0.0734525
-0.0705988
-0.0683455
-0.066673
-0.0655661
-0.0650153
-0.174844
-0.165423
-0.156547
-0.147159
-0.137705
-0.128543
-0.119864
-0.111794
-0.104399
-0.0977053
-0.0917154
-0.0864161
-0.0817867
-0.0778033
-0.0744417
-0.0716787
-0.0694942
-0.0678711
-0.0667961
-0.066261
-0.169664
-0.160995
-0.152839
-0.144142
-0.13534
-0.126764
-0.118603
-0.110981
-0.103969
-0.0975989
-0.0918796
-0.0868046
-0.0823594
-0.0785258
-0.0752841
-0.0726154
-0.0705026
-0.0689312
-0.0678897
-0.0673711
-0.164575
-0.156607
-0.149119
-0.141074
-0.132891
-0.124879
-0.117217
-0.110032
-0.103395
-0.0973448
-0.091895
-0.087045
-0.0827861
-0.0791047
-0.0759858
-0.0734141
-0.0713753
-0.0698575
-0.0688508
-0.0683494
-0.159582
-0.152269
-0.145399
-0.13797
-0.130375
-0.122902
-0.115722
-0.108959
-0.10269
-0.0969545
-0.0917718
-0.0871465
-0.0830746
-0.0795471
-0.076553
-0.0740802
-0.0721173
-0.0706545
-0.0696837
-0.0692
-0.154688
-0.147986
-0.141692
-0.134843
-0.127805
-0.120846
-0.11413
-0.107777
-0.101865
-0.0964388
-0.0915198
-0.0871177
-0.0832327
-0.0798599
-0.0769917
-0.0746191
-0.0727335
-0.0713269
-0.0703927
-0.0699271
-0.149898
-0.143765
-0.138006
-0.131702
-0.125193
-0.118724
-0.112452
-0.106496
-0.100933
-0.0958079
-0.0911484
-0.0869671
-0.083268
-0.0800498
-0.077308
-0.0750366
-0.073229
-0.0718794
-0.0709824
-0.0705351
-0.145211
-0.139611
-0.134349
-0.128559
-0.122549
-0.116547
-0.110702
-0.105128
-0.0999018
-0.0950715
-0.0906666
-0.086703
-0.083188
-0.0801236
-0.0775081
-0.075338
-0.073609
-0.0723168
-0.0714574
-0.0710287
-0.14063
-0.135526
-0.130729
-0.12542
-0.119883
-0.114326
-0.108889
-0.103683
-0.0987827
-0.094239
-0.0900829
-0.0863331
-0.0829999
-0.0800879
-0.0775981
-0.0755291
-0.0738787
-0.072644
-0.0718223
-0.0714123
-0.136154
-0.131515
-0.127151
-0.122296
-0.117204
-0.112069
-0.107022
-0.102169
-0.0975846
-0.0933189
-0.0894054
-0.0858651
-0.0827107
-0.0799492
-0.0775839
-0.0756154
-0.0740433
-0.0728661
-0.0720821
-0.0716908
-0.131786
-0.12758
-0.123621
-0.119191
-0.114521
-0.109786
-0.105111
-0.100597
-0.096316
-0.0923196
-0.0886421
-0.0853064
-0.0823272
-0.0797138
-0.0774714
-0.0756025
-0.074108
-0.0729879
-0.0722415
-0.0718687
-0.127526
-0.123724
-0.120142
-0.116111
-0.111838
-0.107484
-0.103163
-0.0989734
-0.094985
-0.0912488
-0.0878002
-0.0846638
-0.081856
-0.0793879
-0.0772664
-0.0754956
-0.074078
-0.0730145
-0.0723053
-0.071951
-0.123373
-0.119949
-0.11672
-0.113063
-0.109165
-0.10517
-0.101187
-0.0973068
-0.0935991
-0.0901138
-0.0868869
-0.0839441
-0.0813034
-0.0789774
-0.0769745
-0.0753003
-0.0739583
-0.0729507
-0.0722783
-0.0719422
-0.119328
-0.116256
-0.113357
-0.110051
-0.106505
-0.10285
-0.0991875
-0.0956037
-0.0921652
-0.0889214
-0.0859087
-0.0831536
-0.0806755
-0.0784881
-0.249131
-0.245222
-0.23455
-0.226721
-0.220032
-0.213254
-0.206594
-0.200206
-0.194041
-0.188057
-0.182243
-0.176592
-0.171092
-0.165733
-0.160511
-0.155418
-0.150453
-0.145611
-0.14089
-0.13629
-0.131809
-0.127446
-0.123201
-0.250355
-0.248084
-0.236102
-0.227069
-0.220027
-0.21305
-0.206087
-0.199386
-0.192951
-0.186726
-0.180689
-0.17483
-0.169141
-0.163611
-0.158232
-0.153001
-0.147912
-0.142962
-0.138149
-0.133471
-0.128926
-0.124512
-0.248049
-0.244914
-0.233305
-0.2241
-0.216868
-0.209909
-0.203004
-0.196335
-0.189927
-0.183733
-0.177723
-0.171885
-0.16621
-0.160692
-0.155324
-0.150101
-0.145022
-0.140083
-0.135284
-0.130622
-0.126096
-0.243131
-0.238938
-0.228602
-0.220069
-0.213042
-0.20631
-0.199656
-0.193186
-0.186921
-0.180836
-0.174908
-0.169132
-0.163504
-0.158021
-0.152681
-0.147483
-0.142426
-0.137509
-0.132733
-0.128095
-0.237588
-0.232482
-0.223569
-0.215864
-0.209133
-0.202634
-0.196226
-0.189961
-0.183854
-0.177893
-0.17207
-0.166381
-0.160827
-0.155409
-0.150127
-0.144982
-0.139975
-0.135106
-0.130376
-0.125784
-0.232621
-0.226908
-0.219226
-0.212232
-0.205774
-0.199473
-0.193261
-0.187164
-0.181192
-0.175343
-0.169616
-0.164012
-0.158533
-0.153184
-0.147965
-0.142879
-0.137928
-0.133113
-0.128434
-0.228951
-0.222935
-0.216126
-0.209614
-0.203347
-0.197183
-0.191101
-0.185117
-0.179238
-0.173468
-0.167812
-0.162272
-0.156853
-0.151558
-0.146391
-0.141354
-0.13645
-0.131679
-0.127043
-0.227016
-0.220893
-0.214529
-0.208252
-0.202079
-0.195984
-0.189966
-0.184036
-0.178204
-0.172476
-0.166856
-0.16135
-0.155963
-0.150699
-0.14556
-0.140551
-0.135673
-0.130928
-0.126316
)
;

boundaryField
{
    inlet
    {
        type            zeroGradient;
    }
    outlet
    {
        type            fixedValue;
        value           nonuniform 0();
    }
    cylinder
    {
        type            zeroGradient;
    }
    top
    {
        type            symmetryPlane;
    }
    bottom
    {
        type            symmetryPlane;
    }
    defaultFaces
    {
        type            empty;
    }
    procBoundary1to0
    {
        type            processor;
        value           nonuniform List<scalar> 
50
(
0.763783
0.738072
0.68781
0.68781
0.597448
0.597448
0.501627
0.406796
0.406796
0.307115
0.307115
0.312015
0.225712
0.225712
0.234195
0.160282
0.160282
0.170106
0.107581
0.107581
0.117827
0.125979
0.0757075
0.0757075
0.0841802
0.0912337
0.0508967
0.0508967
0.05878
0.0628048
0.06013
0.0565611
0.0525406
0.0501843
0.0487136
0.0477776
0.0472167
0.0469065
0.0467582
0.046711
0.0467237
0.0467683
0.0468255
0.0468813
0.0469257
0.0469514
0.0469535
0.0469241
0.04685
0.0467768
)
;
    }
    procBoundary1to2
    {
        type            processor;
        value           nonuniform List<scalar> 
34
(
-0.0766013
-0.0750217
-0.0737541
-0.0728014
-0.0721652
-0.0718472
-0.115391
-0.119072
-0.112648
-0.110056
-0.107079
-0.103864
-0.100531
-0.0971723
-0.0938708
-0.0906899
-0.087678
-0.0848719
-0.0822985
-0.0799781
-0.0766013
-0.0779257
-0.119072
-0.120227
-0.120227
-0.121704
-0.121704
-0.123596
-0.123596
-0.12133
-0.123892
-0.123892
-0.122543
-0.12184
)
;
    }
    procBoundary1to4
    {
        type            processor;
        value           uniform 0.763783;
    }
    procBoundary1to5
    {
        type            processor;
        value           nonuniform List<scalar> 
42
(
-0.315435
-0.316035
-0.315435
-0.317763
-0.318028
-0.316994
-0.314917
-0.311925
-0.308136
-0.303656
-0.298573
-0.292966
-0.286912
-0.280483
-0.27376
-0.266825
-0.259771
-0.252693
-0.245667
-0.238782
-0.23238
0.81983
0.772212
-0.227016
-0.220893
-0.214529
-0.208252
-0.202079
-0.195984
-0.189966
-0.184036
-0.178204
-0.172476
-0.166856
-0.16135
-0.155963
-0.150699
-0.14556
-0.140551
-0.135673
-0.130928
-0.126316
)
;
    }
}


// ************************************************************************* //
