/*--------------------------------*- C++ -*----------------------------------*\
  =========                 |
  \\      /  F ield         | OpenFOAM: The Open Source CFD Toolbox
   \\    /   O peration     | Website:  https://openfoam.org
    \\  /    A nd           | Version:  7
     \\/     M anipulation  |
\*---------------------------------------------------------------------------*/
FoamFile
{
    version     2.0;
    format      ascii;
    class       volVectorField;
    location    "40";
    object      U;
}
// * * * * * * * * * * * * * * * * * * * * * * * * * * * * * * * * * * * * * //

dimensions      [0 1 -1 0 0 0 0];

internalField   nonuniform List<vector> 
1360
(
(-0.00106242 0.00164452 -5.57286e-20)
(0.00828848 0.0136405 -1.46999e-19)
(0.0375021 0.0323246 2.61824e-19)
(0.00828848 -0.0136405 1.46999e-19)
(0.0375021 -0.0323246 -2.61824e-19)
(0.0134273 -0.0401622 2.28901e-19)
(0.0494083 -0.095308 -3.36667e-19)
(0.0233168 -0.064459 1.34735e-19)
(0.072397 -0.153399 -1.55533e-19)
(0.0372091 -0.0852217 -6.12247e-20)
(0.104874 -0.203681 -6.37581e-19)
(0.178455 -0.279845 5.20496e-19)
(0.0540529 -0.101389 -1.56298e-19)
(0.144577 -0.243731 -5.68651e-20)
(0.231776 -0.336754 -3.35395e-19)
(0.312231 -0.391735 3.20613e-19)
(0.0725727 -0.112222 5.11302e-19)
(0.188727 -0.271777 -1.61257e-19)
(0.291637 -0.378222 1.99595e-19)
(0.380797 -0.44297 2.62029e-21)
(0.0913662 -0.117355 1.42603e-19)
(0.234216 -0.286813 1.26308e-20)
(0.3541 -0.402749 9.82488e-20)
(0.453229 -0.475697 -3.35055e-20)
(0.534005 -0.514978 5.37148e-19)
(0.109013 -0.116816 -5.2607e-20)
(0.277819 -0.288668 -2.02343e-20)
(0.414999 -0.409828 1.62739e-19)
(0.525016 -0.489077 -3.25133e-20)
(0.611884 -0.534496 -3.06832e-19)
(0.679762 -0.55343 4.98057e-19)
(0.732533 -0.552647 -5.42511e-19)
(0.124183 -0.111023 -6.66374e-20)
(0.31643 -0.278013 9.45671e-21)
(0.470209 -0.399991 4.5084e-20)
(0.591574 -0.483325 1.04684e-19)
(0.685639 -0.534273 -9.0116e-20)
(0.757312 -0.558959 -2.03996e-19)
(0.811154 -0.563354 1.26827e-19)
(0.851244 -0.552989 -3.30805e-19)
(0.88109 -0.532667 -3.65464e-20)
(0.13577 -0.100757 -1.01814e-20)
(0.347286 -0.256306 -2.18369e-20)
(0.51593 -0.374763 -1.1199e-20)
(0.648534 -0.459703 6.25984e-20)
(0.750702 -0.515171 -2.69549e-20)
(0.827638 -0.545717 3.1673e-20)
(0.884225 -0.556166 5.79193e-20)
(0.924941 -0.551303 7.07892e-20)
(0.953732 -0.535534 -2.06332e-19)
(0.973921 -0.512648 7.13924e-20)
(0.988162 -0.485684 -2.90923e-19)
(0.142961 -0.0870011 -1.09053e-19)
(0.368238 -0.225641 7.68217e-21)
(0.548959 -0.336594 3.99875e-20)
(0.692011 -0.420477 -1.48818e-19)
(0.802843 -0.479038 1.69367e-19)
(0.88643 -0.515065 -1.82846e-19)
(0.947587 -0.531993 5.22525e-20)
(0.990875 -0.533606 3.5162e-20)
(1.02046 -0.52368 2.78945e-20)
(1.03997 -0.505678 -2.9093e-20)
(1.05241 -0.482555 -2.49226e-20)
(1.06016 -0.456654 -3.84078e-20)
(1.06495 -0.429711 1.03643e-19)
(1.06802 -0.402917 -1.74807e-19)
(0.145248 -0.0710338 -1.46216e-19)
(0.377818 -0.188718 2.12626e-19)
(0.566966 -0.288658 6.44107e-20)
(0.718912 -0.36879 -6.91856e-20)
(0.838413 -0.428636 1.11263e-19)
(0.929763 -0.469213 2.24026e-19)
(0.997273 -0.492491 -1.26735e-19)
(1.04523 -0.501079 -7.93876e-20)
(1.07775 -0.497922 -1.4306e-19)
(1.09858 -0.485971 9.51544e-20)
(1.11097 -0.467932 -1.89925e-20)
(1.11758 -0.446105 1.10667e-20)
(1.12047 -0.422307 3.94688e-20)
(1.12116 -0.397874 1.09431e-20)
(1.12068 -0.373719 -9.12558e-21)
(1.11971 -0.350392 -1.40917e-20)
(1.11861 -0.328218 -8.52315e-21)
(0.142592 -0.0541548 1.29642e-19)
(0.375445 -0.14845 8.27056e-20)
(0.56864 -0.23464 -5.69036e-20)
(0.727166 -0.308439 -6.58235e-19)
(0.854651 -0.367464 2.11614e-19)
(0.954349 -0.411151 -4.18205e-20)
(1.02971 -0.440043 -3.97497e-20)
(1.08439 -0.455522 -3.35449e-20)
(1.12213 -0.459569 2.1463e-20)
(1.14656 -0.454461 -2.18882e-19)
(1.16099 -0.442502 1.30703e-19)
(1.16827 -0.425807 -1.30711e-19)
(1.17075 -0.406176 4.22959e-20)
(1.17021 -0.385035 -3.59668e-20)
(1.16796 -0.363431 1.00993e-20)
(1.16488 -0.342071 4.09587e-20)
(1.16148 -0.321406 -1.58417e-20)
(1.15798 -0.301823 1.59203e-20)
(1.15432 -0.283586 -2.33768e-20)
(1.15084 -0.26546 1.25303e-20)
(0.135315 -0.0376115 2.21905e-19)
(0.361459 -0.107792 -3.88105e-20)
(0.553853 -0.178433 -2.8343e-19)
(0.715921 -0.243636 -3.22977e-20)
(0.849909 -0.299604 4.6422e-19)
(0.957813 -0.344514 -1.97699e-19)
(1.04195 -0.377676 1.49765e-19)
(1.10507 -0.399314 -1.81732e-19)
(1.15023 -0.41041 8.22483e-20)
(1.18066 -0.412459 -6.14713e-20)
(1.19949 -0.407218 2.6512e-19)
(1.20961 -0.396477 -1.75179e-19)
(1.21354 -0.381897 -1.01805e-20)
(1.21332 -0.364901 -1.76008e-20)
(1.21052 -0.346624 1.97109e-20)
(1.20626 -0.327905 -4.30653e-20)
(1.20129 -0.309323 4.75585e-20)
(1.19602 -0.291341 -6.69503e-21)
(1.19055 -0.274319 -5.17285e-20)
(1.18508 -0.257506 -1.19098e-21)
(0.12409 -0.0225047 -1.84998e-19)
(0.337063 -0.0694861 1.44011e-19)
(0.523674 -0.123819 5.14448e-20)
(0.685666 -0.178687 -6.36677e-20)
(0.823856 -0.229433 -1.78533e-20)
(0.938931 -0.273397 7.62992e-20)
(1.03197 -0.308965 -5.57416e-20)
(1.10462 -0.335391 2.24581e-19)
(1.15901 -0.352727 -1.56047e-19)
(1.19769 -0.361661 6.72772e-20)
(1.22337 -0.363306 -1.49805e-19)
(1.23876 -0.359 1.35935e-19)
(1.24637 -0.350134 5.16003e-20)
(1.24839 -0.338017 -1.45924e-19)
(1.24664 -0.323789 1.26702e-19)
(1.2425 -0.308369 -5.67349e-20)
(1.23697 -0.292451 2.39115e-20)
(1.2307 -0.276591 1.83404e-20)
(1.22401 -0.261234 -3.02152e-22)
(1.21709 -0.246026 1.15144e-20)
(0.109858 -0.00969048 -9.29859e-20)
(0.304197 -0.0358189 1.55923e-19)
(0.480278 -0.0741591 -9.57718e-20)
(0.638237 -0.117642 7.5313e-20)
(0.777596 -0.161308 -9.60823e-20)
(0.897856 -0.202108 -1.23037e-20)
(0.998913 -0.237872 4.08419e-20)
(1.08125 -0.267166 -1.51232e-20)
(1.14595 -0.289289 -1.84904e-20)
(1.19468 -0.304186 7.97384e-20)
(1.22947 -0.312307 -1.24895e-20)
(1.25259 -0.314455 -4.01411e-20)
(1.26636 -0.311634 7.6668e-20)
(1.27293 -0.304919 -6.25361e-20)
(1.27425 -0.295344 1.51638e-20)
(1.27192 -0.283828 -1.76909e-20)
(1.26719 -0.271134 4.73615e-20)
(1.26096 -0.257889 -3.34865e-20)
(1.25381 -0.244615 -7.35089e-21)
(1.24602 -0.231359 -8.56511e-21)
(0.0937203 0.000279852 5.76019e-20)
(0.265329 -0.00844393 -1.77929e-19)
(0.426731 -0.0321063 1.07762e-19)
(0.576686 -0.0639608 -1.53022e-20)
(0.71367 -0.0992226 2.95972e-20)
(0.836254 -0.134859 -5.46235e-20)
(0.94335 -0.168521 -3.43662e-20)
(1.0344 -0.198409 6.79808e-21)
(1.10945 -0.22332 8.91157e-20)
(1.16917 -0.242619 -1.25423e-19)
(1.21477 -0.256164 1.76028e-20)
(1.24783 -0.264208 2.50756e-20)
(1.27023 -0.267301 -3.5274e-20)
(1.28388 -0.266174 1.07741e-19)
(1.29066 -0.261645 -3.89593e-20)
(1.29228 -0.254526 2.96084e-20)
(1.29016 -0.245566 -6.28457e-20)
(1.28546 -0.235413 1.19326e-20)
(1.27898 -0.224629 3.00273e-20)
(1.27118 -0.213646 1.67934e-20)
(0.0768177 0.00718089 1.20766e-19)
(0.223191 0.0117232 1.15866e-19)
(0.366687 0.000594224 -3.71921e-20)
(0.505004 -0.0202158 -1.3725e-19)
(0.635889 -0.0464558 -7.43338e-20)
(0.757306 -0.0754189 1.69363e-19)
(0.867483 -0.104893 7.55748e-20)
(0.965062 -0.133029 -1.50277e-19)
(1.04921 -0.158403 5.9489e-20)
(1.11968 -0.180028 -2.1473e-21)
(1.17677 -0.19732 2.35623e-19)
(1.22128 -0.210063 -8.56606e-20)
(1.25439 -0.218354 -2.36201e-19)
(1.27758 -0.222528 2.90683e-19)
(1.29242 -0.223093 -1.11054e-19)
(1.3005 -0.220651 1.99863e-19)
(1.3033 -0.215834 -6.73998e-20)
(1.30211 -0.209236 1.63479e-20)
(1.29794 -0.201392 -3.68274e-20)
(1.29143 -0.193013 -2.84163e-20)
(0.060214 0.0110931 -1.43064e-19)
(0.180488 0.0245154 -2.81135e-19)
(0.304 0.0231995 4.60388e-19)
(0.427728 0.0121033 2.58782e-19)
(0.54901 -0.00527512 -7.6748e-19)
(0.665519 -0.0267475 4.62108e-19)
(0.775129 -0.0504592 1.3047e-19)
(0.876003 -0.0747594 2.17484e-19)
(0.9667 -0.0982627 6.9905e-21)
(1.04624 -0.119869 -1.15181e-20)
(1.11413 -0.138764 -5.21069e-19)
(1.17037 -0.154411 3.84281e-19)
(1.21539 -0.166542 1.36962e-19)
(1.25 -0.175122 -6.575e-20)
(1.27527 -0.180315 -2.34271e-19)
(1.29246 -0.182439 5.86307e-20)
(1.30284 -0.181914 -7.9351e-20)
(1.30769 -0.179192 -5.68743e-20)
(1.30805 -0.174689 3.88089e-19)
(1.3047 -0.169236 3.41446e-20)
(0.0447983 0.0123481 -3.78259e-19)
(0.13964 0.0304351 -1.71325e-19)
(0.242336 0.0359402 -1.73691e-19)
(0.349476 0.0326624 4.40247e-19)
(0.458255 0.0232549 2.17131e-20)
(0.566321 0.00930849 -1.69778e-19)
(0.671484 -0.00779133 -3.05273e-19)
(0.771744 -0.0267457 -3.6273e-20)
(0.865361 -0.0463931 1.11591e-20)
(0.95092 -0.0657288 5.41035e-19)
(1.02737 -0.0839127 -6.18868e-19)
(1.09405 -0.100279 1.74306e-19)
(1.15069 -0.114343 -4.82419e-19)
(1.19741 -0.125802 2.28558e-19)
(1.23465 -0.134524 4.89823e-20)
(1.26312 -0.140537 -7.0928e-19)
(1.2837 -0.144001 2.07884e-19)
(1.29738 -0.145152 1.10763e-19)
(1.30501 -0.144181 -2.66427e-19)
(1.30732 -0.141843 1.96933e-19)
(0.0312229 0.0114506 1.52284e-19)
(0.102575 0.0305039 2.69052e-19)
(0.184832 0.0398792 -3.29703e-19)
(0.274472 0.0422131 4.69643e-19)
(0.368755 0.0393212 9.10816e-20)
(0.46548 0.0322064 -6.95596e-19)
(0.562606 0.0217666 7.78321e-20)
(0.658216 0.00889248 9.47529e-20)
(0.75056 -0.00557439 2.87011e-19)
(0.838081 -0.0208563 -2.68966e-19)
(0.919458 -0.0362456 3.55208e-19)
(0.993634 -0.0511158 2.83944e-19)
(1.05984 -0.0649357 2.27586e-19)
(1.11762 -0.0772796 -9.29309e-20)
(1.1668 -0.0878343 -2.43245e-19)
(1.20751 -0.0964032 1.21064e-19)
(1.2401 -0.10291 1.3759e-19)
(1.26508 -0.107346 1.60384e-20)
(1.28292 -0.109577 1.04145e-19)
(1.29395 -0.110019 5.7526e-19)
(0.0198803 0.00899348 8.21454e-19)
(0.0706218 0.026075 -5.00068e-19)
(0.133848 0.0366908 -7.18899e-20)
(0.206157 0.0424006 -5.36541e-19)
(0.285004 0.0442535 -5.60288e-19)
(0.368439 0.0427278 8.59639e-19)
(0.454686 0.0382789 -1.46646e-19)
(0.542067 0.0314071 9.09075e-20)
(0.629014 0.0226197 -1.80742e-19)
(0.714072 0.0124184 -1.76652e-19)
(0.795912 0.00129518 1.56664e-19)
(0.873357 -0.0102762 -2.56539e-19)
(0.945407 -0.0218514 5.90642e-19)
(1.01126 -0.0330262 -6.93317e-19)
(1.07033 -0.0434456 2.88981e-19)
(1.12227 -0.0528152 -6.48596e-20)
(1.16692 -0.0609185 5.90272e-19)
(1.20433 -0.0675647 2.37569e-19)
(1.23442 -0.0722286 -1.16875e-18)
(1.25672 -0.0746044 4.32305e-19)
(0.0109194 0.00558341 1.48933e-19)
(0.0444826 0.018646 5.86041e-20)
(0.090858 0.0284088 6.7153e-19)
(0.146927 0.035491 2.11044e-19)
(0.210427 0.0402798 4.50398e-19)
(0.279696 0.0428168 -1.0941e-18)
(0.35326 0.0431895 7.99172e-19)
(0.429743 0.0415683 -6.73861e-19)
(0.507854 0.0381674 4.59802e-19)
(0.586375 0.0332286 7.89704e-20)
(0.664153 0.0270165 -1.19155e-18)
(0.740106 0.0198112 1.72813e-18)
(0.813244 0.0119003 -7.02053e-19)
(0.882681 0.00357094 -1.67748e-19)
(0.947668 -0.00489596 3.58678e-19)
(1.0076 -0.0132344 -3.07926e-19)
(1.06208 -0.0212248 -1.31617e-19)
(1.11089 -0.0286544 5.44654e-19)
(1.15362 -0.0346395 -1.46138e-19)
(1.18944 -0.0373228 2.39417e-19)
(0.00428943 0.00178745 -9.70518e-19)
(0.0243007 0.00970454 6.06018e-21)
(0.0564597 0.017186 -1.03547e-21)
(0.0980511 0.0240679 9.28364e-19)
(0.147145 0.0301924 -3.48654e-19)
(0.202372 0.0352552 -6.104e-19)
(0.26255 0.039058 9.09052e-19)
(0.3266 0.0415164 -6.58437e-19)
(0.393524 0.0426156 -4.42142e-19)
(0.46238 0.0423891 7.7158e-19)
(0.532263 0.0409076 -6.60418e-19)
(0.602299 0.0382688 1.03451e-18)
(0.671649 0.0345871 5.70928e-19)
(0.739519 0.0299822 -4.23101e-19)
(0.805178 0.024569 -2.42457e-19)
(0.867975 0.0184436 3.04859e-19)
(0.927385 0.0116242 -2.70191e-19)
(0.983082 0.00390809 9.28171e-20)
(1.03472 -0.00469272 5.1266e-19)
(1.08126 -0.0114661 -7.08541e-19)
(-0.000204976 -0.00189469 -3.01341e-20)
(0.00976693 0.000619728 2.60554e-19)
(0.0304907 0.00509476 -2.53973e-20)
(0.0597399 0.0107429 -3.05953e-19)
(0.0959527 0.016979 -3.13399e-19)
(0.138043 0.0232409 8.24787e-19)
(0.185095 0.0291232 -1.07316e-18)
(0.236294 0.0343608 2.36849e-19)
(0.290899 0.0387811 1.53915e-19)
(0.348221 0.0422766 2.28439e-19)
(0.407595 0.0447882 -1.066e-18)
(0.468367 0.046291 1.09357e-18)
(0.529887 0.0467837 3.98212e-20)
(0.591504 0.0462761 -9.82004e-19)
(0.652568 0.0447789 6.24995e-19)
(0.712414 0.0423011 8.36336e-20)
(0.770303 0.0388421 -9.87253e-20)
(0.825529 0.0340732 -8.37696e-19)
(0.878488 0.0260204 7.55328e-19)
(0.929198 0.0122675 1.71635e-19)
(-0.00285385 -0.00503916 -2.01748e-19)
(0.000244463 -0.00742493 -8.36652e-20)
(0.0121978 -0.00602967 6.90489e-19)
(0.0313341 -0.00210305 -8.13898e-21)
(0.0564889 0.00345869 3.38532e-19)
(0.0868538 0.00991795 -9.78901e-19)
(0.121755 0.016734 1.12411e-19)
(0.160604 0.0235265 4.60986e-19)
(0.202876 0.0300272 -5.74624e-19)
(0.24809 0.0360465 -1.50704e-19)
(0.295786 0.0414526 -4.07201e-19)
(0.345513 0.0461535 1.43148e-18)
(0.396816 0.0500842 -4.81618e-19)
(0.449229 0.0531917 1.66494e-19)
(0.502277 0.0554185 -1.99792e-19)
(0.555443 0.0566914 6.16578e-19)
(0.608086 0.0569037 -6.28062e-19)
(0.659593 0.0555709 6.97563e-19)
(0.71064 0.0502925 -4.17255e-19)
(0.760409 0.0371007 -4.82774e-19)
(-0.0040061 -0.00730703 4.727e-19)
(-0.00512518 -0.0134847 -3.38208e-19)
(0.000415107 -0.0147073 -2.16261e-19)
(0.0115493 -0.0125229 -5.41166e-20)
(0.0275316 -0.00801841 -5.15821e-19)
(0.0478277 -0.00202512 5.32731e-19)
(0.0719871 0.00484645 -7.36397e-19)
(0.099616 0.0121577 4.24343e-19)
(0.130367 0.0195931 -2.63932e-19)
(0.163921 0.0269251 7.70984e-19)
(0.19998 0.0339879 -6.59856e-19)
(0.238249 0.0406574 5.92739e-19)
(0.278431 0.0468333 -9.64179e-19)
(0.320222 0.0524199 2.45921e-19)
(0.363304 0.0573013 3.75778e-19)
(0.407307 0.0613137 3.14429e-19)
(0.451729 0.064199 4.28264e-20)
(0.496111 0.0652872 -7.40098e-19)
(0.541087 0.0623647 -3.67592e-19)
(0.585093 0.0522297 5.02221e-19)
(-0.00405021 -0.0084546 3.3305e-22)
(-0.00733142 -0.0169026 -5.99939e-20)
(-0.00625569 -0.0199139 -6.06017e-20)
(-0.00125452 -0.0191579 2.57122e-19)
(0.00735445 -0.0157866 -1.55856e-19)
(0.0193035 -0.0106424 -4.01765e-19)
(0.0343483 -0.00434153 6.98682e-19)
(0.0522662 0.00266983 -3.1233e-19)
(0.0728527 0.0100697 -1.2978e-19)
(0.0959163 0.0176246 7.8676e-19)
(0.121273 0.0251616 -2.76233e-19)
(0.14874 0.0325464 3.26021e-19)
(0.178131 0.0396617 -8.31527e-19)
(0.209254 0.0463848 5.43396e-19)
(0.241898 0.0525573 1.55353e-19)
(0.2758 0.0579506 -4.04166e-19)
(0.310579 0.0622106 5.66529e-19)
(0.345925 0.0646204 -3.91116e-19)
(0.382324 0.0634277 -3.50387e-19)
(0.417987 0.0564685 8.96446e-19)
(-0.00339501 -0.00835768 9.33955e-20)
(-0.00741457 -0.0173586 -3.0723e-19)
(-0.00928982 -0.021151 3.55358e-19)
(-0.00882838 -0.0213311 -1.2337e-19)
(-0.00593569 -0.0189853 1.74705e-19)
(-0.000630623 -0.0148837 -3.22048e-20)
(0.00702808 -0.00958701 3.09329e-20)
(0.0169647 -0.00350182 -2.63617e-19)
(0.0290919 0.00307861 -7.20336e-20)
(0.0433144 0.00994095 5.21496e-19)
(0.0595313 0.0169256 7.13186e-20)
(0.0776362 0.0239043 -1.99526e-19)
(0.0975152 0.0307592 -2.56247e-19)
(0.119044 0.0373596 3.50493e-19)
(0.142081 0.0435335 -7.09119e-19)
(0.166431 0.0490355 5.23719e-19)
(0.191808 0.0535046 -6.405e-19)
(0.217995 0.0563265 5.34521e-19)
(0.245248 0.056295 -2.5101e-19)
(0.271944 0.0520367 -1.37637e-19)
(-0.00244749 -0.0070401 8.5489e-20)
(-0.00638659 -0.0149177 -8.88525e-20)
(-0.0100967 -0.0184887 1.37851e-20)
(-0.0128286 -0.0190787 3.6779e-20)
(-0.0141263 -0.0175794 -5.85866e-20)
(-0.0137953 -0.0146098 2.66791e-21)
(-0.0117394 -0.0106185 -2.17063e-20)
(-0.00791427 -0.00593091 2.8341e-19)
(-0.00231569 -0.000781433 -9.85214e-20)
(0.00503265 0.00465908 -2.7211e-19)
(0.0140885 0.0102612 3.37687e-19)
(0.0247954 0.0159183 -1.35443e-19)
(0.0370841 0.0215283 1.32541e-19)
(0.0508704 0.0269749 -3.95806e-19)
(0.0660483 0.0321053 4.96265e-19)
(0.0824658 0.0367074 4.0007e-20)
(0.0999007 0.0404858 -4.99246e-19)
(0.118162 0.0430034 4.6011e-19)
(0.137263 0.0435319 8.30307e-20)
(0.155971 0.0412236 1.75499e-19)
(-0.00157565 -0.0046891 9.21786e-20)
(-0.00513677 -0.0100401 -9.55982e-20)
(-0.00988578 -0.0125523 1.65823e-19)
(-0.0146501 -0.0131041 4.77157e-20)
(-0.0187028 -0.0122815 -1.20093e-19)
(-0.021692 -0.0104859 2.39436e-20)
(-0.0234085 -0.00800727 5.02075e-20)
(-0.0237225 -0.00505575 -9.9713e-21)
(-0.0225657 -0.00178284 2.57825e-19)
(-0.0199131 0.00170086 -3.36841e-19)
(-0.0157694 0.00531085 -5.79192e-20)
(-0.0101605 0.008976 1.23838e-19)
(-0.00313024 0.0126268 2.48744e-21)
(0.00525812 0.0161829 -1.44171e-19)
(0.014916 0.0195401 -2.54806e-20)
(0.0257132 0.0225568 -9.58196e-20)
(0.037464 0.0250452 -7.78572e-20)
(0.049967 0.0267547 2.25888e-19)
(0.0630454 0.027312 -5.74422e-20)
(0.0758745 0.0262424 1.38154e-19)
(-0.00106242 -0.00164452 3.07808e-20)
(-0.00433239 -0.00353701 -9.28872e-20)
(-0.00954497 -0.00443853 5.99703e-20)
(-0.015298 -0.00465666 -4.4951e-21)
(-0.0207188 -0.00439579 -6.29892e-20)
(-0.0253717 -0.00379501 5.35092e-20)
(-0.0289877 -0.00295459 -3.28748e-20)
(-0.0313923 -0.00194719 1.26862e-20)
(-0.032484 -0.000825198 5.03204e-20)
(-0.0322134 0.000373073 -7.95562e-20)
(-0.0305662 0.00161818 3.81034e-20)
(-0.0275538 0.00288518 4.71921e-20)
(-0.0232088 0.00414933 -1.20599e-20)
(-0.0175857 0.00538204 4.05121e-20)
(-0.0107666 0.00654635 -2.0879e-20)
(-0.00287222 0.00759293 3.17437e-20)
(0.00592673 0.00845792 -1.2654e-19)
(0.0154139 0.00906081 4.20064e-20)
(0.0253102 0.0092885 1.46479e-20)
(0.0350456 0.00898566 -7.42321e-20)
(1.14818 -0.235999 -2.09216e-20)
(1.14655 -0.208841 6.23438e-21)
(1.14521 -0.187452 1.44926e-20)
(1.14394 -0.168301 2.10653e-20)
(1.1422 -0.15129 -4.63938e-20)
(1.14004 -0.135995 4.70087e-20)
(1.13757 -0.122085 -5.32662e-20)
(1.13492 -0.109352 3.19087e-20)
(1.1322 -0.0976255 -9.85445e-21)
(1.12949 -0.0867541 3.84008e-21)
(1.12687 -0.0766084 -2.70082e-21)
(1.1244 -0.0670787 1.9273e-20)
(1.12213 -0.05807 2.481e-21)
(1.12008 -0.0494991 -3.76702e-21)
(1.1183 -0.0412919 -5.94479e-21)
(1.1168 -0.0333816 -4.23198e-21)
(1.1156 -0.0257085 -4.83096e-21)
(1.11472 -0.0182154 3.33792e-21)
(1.11414 -0.0108339 1.70129e-21)
(1.11388 -0.00353925 -2.53608e-21)
(1.17878 -0.230969 1.31755e-20)
(1.17239 -0.204419 1.07918e-21)
(1.16728 -0.182942 -1.55223e-21)
(1.16305 -0.164048 1.36949e-22)
(1.15902 -0.14741 6.66303e-21)
(1.1551 -0.132504 -7.0282e-21)
(1.15121 -0.118955 6.65226e-21)
(1.14737 -0.106561 -4.97459e-21)
(1.14366 -0.0951598 1.28872e-20)
(1.14015 -0.0845907 -1.74084e-20)
(1.13686 -0.0747236 -1.43815e-21)
(1.13384 -0.0654506 7.61265e-22)
(1.13111 -0.0566791 4.11841e-21)
(1.12869 -0.0483283 -2.69725e-22)
(1.1266 -0.0403266 2.4576e-21)
(1.12485 -0.03261 -2.1506e-21)
(1.12346 -0.0251213 4.38884e-21)
(1.12242 -0.0178069 -7.62792e-22)
(1.12174 -0.0106026 -2.88535e-21)
(1.12141 -0.00347549 7.57327e-22)
(1.20795 -0.222844 -2.07946e-20)
(1.19747 -0.19789 2.0327e-20)
(1.18884 -0.177063 -9.82611e-21)
(1.18179 -0.158802 -1.14975e-21)
(1.17559 -0.142805 5.37235e-23)
(1.16992 -0.128487 1.51841e-22)
(1.16463 -0.115377 4.43e-22)
(1.15966 -0.103387 1.27965e-22)
(1.15503 -0.0923971 -1.08543e-21)
(1.15074 -0.0821964 3.15363e-21)
(1.1468 -0.0726582 -7.00422e-22)
(1.14323 -0.0636811 2.60557e-21)
(1.14004 -0.0551777 -7.11636e-21)
(1.13724 -0.0470719 2.47461e-21)
(1.13484 -0.0392965 1.21248e-21)
(1.13283 -0.0317911 -8.26701e-22)
(1.13124 -0.0245018 2.24408e-21)
(1.13004 -0.0173789 6.65816e-22)
(1.12925 -0.0103645 1.354e-21)
(1.12885 -0.00341538 -3.50819e-22)
(1.2349 -0.21202 1.1888e-20)
(1.22135 -0.189494 1.63621e-21)
(1.20968 -0.169963 -5.44502e-21)
(1.20003 -0.152715 4.00206e-21)
(1.19177 -0.13749 2.21893e-21)
(1.18441 -0.123842 -3.46246e-21)
(1.17776 -0.111382 1.62357e-21)
(1.17172 -0.0999581 -3.59198e-22)
(1.1662 -0.0894331 -8.03965e-22)
(1.16117 -0.0796392 4.52653e-22)
(1.1566 -0.0704613 -1.11499e-22)
(1.1525 -0.0618064 3.568e-23)
(1.14886 -0.0535932 -1.36065e-22)
(1.14567 -0.0457512 8.60898e-22)
(1.14295 -0.0382178 -1.13727e-21)
(1.14069 -0.0309371 4.57047e-22)
(1.13888 -0.0238587 1.68652e-22)
(1.13751 -0.0169362 -6.14235e-23)
(1.1366 -0.0101174 -3.08709e-22)
(1.13613 -0.00335357 4.45069e-23)
(1.25911 -0.19865 -1.39936e-20)
(1.24354 -0.179457 -1.23511e-21)
(1.22952 -0.161797 8.44765e-21)
(1.21759 -0.145877 -6.58177e-21)
(1.20743 -0.131634 -3.45542e-21)
(1.19855 -0.118791 6.16424e-21)
(1.19066 -0.107063 -4.03207e-21)
(1.18359 -0.0962708 3.84087e-22)
(1.17719 -0.0862694 2.63316e-21)
(1.17142 -0.0769263 -1.06623e-21)
(1.16622 -0.0681431 -1.31862e-21)
(1.16159 -0.059837 -6.83667e-23)
(1.15749 -0.0519352 1.34228e-22)
(1.15392 -0.044374 3.95736e-23)
(1.15088 -0.0370967 1.52013e-22)
(1.14834 -0.0300521 -5.55512e-23)
(1.14632 -0.0231938 -1.43423e-22)
(1.14479 -0.0164793 7.57352e-23)
(1.14375 -0.00986291 -3.12806e-23)
(1.14322 -0.00329014 5.2882e-23)
(1.27989 -0.182784 5.45145e-20)
(1.26358 -0.167786 -7.47993e-20)
(1.24805 -0.152651 3.09631e-20)
(1.23433 -0.138404 5.66946e-21)
(1.22248 -0.125344 2.87813e-20)
(1.21219 -0.113424 -3.7016e-20)
(1.20314 -0.102479 1.90382e-20)
(1.19509 -0.0923557 -8.52525e-21)
(1.18788 -0.0829222 -4.26349e-21)
(1.18139 -0.0740702 5.5381e-21)
(1.17559 -0.0657145 -7.81364e-21)
(1.17042 -0.0577829 6.93462e-21)
(1.16587 -0.0502124 -6.21703e-21)
(1.16192 -0.0429475 1.0417e-21)
(1.15855 -0.0359383 7.71122e-23)
(1.15575 -0.0291393 3.87299e-22)
(1.15351 -0.0225085 3.06478e-24)
(1.15181 -0.0160077 -1.09587e-22)
(1.15065 -0.00959908 -1.64005e-22)
(1.15006 -0.00322217 -2.0381e-22)
(1.29596 -0.164237 -1.4024e-19)
(1.28093 -0.154354 2.96195e-20)
(1.26524 -0.142501 -1.07785e-19)
(1.25044 -0.130334 4.11515e-20)
(1.23718 -0.118682 4.9468e-20)
(1.22553 -0.107818 -4.08919e-20)
(1.21532 -0.0977224 1.97835e-20)
(1.20628 -0.0882978 -1.14226e-20)
(1.19823 -0.0794542 4.63862e-21)
(1.19104 -0.0711122 -8.46271e-21)
(1.18463 -0.0632013 1.36064e-21)
(1.17895 -0.0556597 8.04491e-22)
(1.17395 -0.0484338 4.42252e-21)
(1.16962 -0.0414765 2.25037e-21)
(1.16592 -0.0347449 2.13275e-21)
(1.16285 -0.0281992 -2.41849e-21)
(1.16039 -0.021802 2.1443e-21)
(1.15853 -0.0155195 -7.08654e-22)
(1.15726 -0.00932198 -5.4018e-22)
(1.1566 -0.0031459 -8.40382e-23)
(1.30471 -0.142674 -1.3096e-19)
(1.29387 -0.139113 5.12444e-20)
(1.27978 -0.131354 7.21639e-20)
(1.26483 -0.121582 6.87373e-20)
(1.25067 -0.111499 -1.45609e-19)
(1.23802 -0.101825 1.24047e-19)
(1.22688 -0.0926753 -4.24509e-20)
(1.21699 -0.0840187 -8.85799e-21)
(1.20819 -0.0758221 -1.6357e-20)
(1.20034 -0.0680355 7.57541e-21)
(1.19335 -0.060602 -2.83455e-21)
(1.18715 -0.0534726 1.87924e-20)
(1.18171 -0.0466067 5.50001e-22)
(1.17699 -0.0399677 -5.26853e-21)
(1.17296 -0.0335212 -4.64948e-21)
(1.16962 -0.0272344 -1.68131e-21)
(1.16694 -0.021075 -2.16127e-21)
(1.16491 -0.015014 2.35279e-21)
(1.16353 -0.00902956 7.98422e-22)
(1.16282 -0.00305891 -4.08573e-22)
(1.30296 -0.117053 -3.23764e-19)
(1.30199 -0.121286 -6.74315e-20)
(1.29281 -0.118744 -5.73039e-20)
(1.27911 -0.112055 1.69575e-19)
(1.26449 -0.104033 2.51136e-20)
(1.25078 -0.0958158 -1.38072e-19)
(1.23845 -0.0876683 6.73443e-20)
(1.22749 -0.0797497 -1.54674e-20)
(1.21781 -0.0721624 6.72453e-20)
(1.20923 -0.0649063 -8.36179e-20)
(1.20164 -0.0579396 2.57268e-21)
(1.19494 -0.0512227 4.52153e-21)
(1.18905 -0.0447227 1.53462e-20)
(1.18396 -0.0384095 -1.16659e-20)
(1.17962 -0.0322556 4.75067e-21)
(1.17601 -0.0262344 1.02475e-20)
(1.17312 -0.0203189 5.14799e-21)
(1.17093 -0.0144845 -5.87156e-21)
(1.16945 -0.0087168 -2.59683e-21)
(1.16869 -0.00295839 1.31997e-21)
(1.28314 -0.0877544 -1.33685e-19)
(1.29752 -0.10083 1.4205e-19)
(1.29633 -0.103838 5.61911e-20)
(1.28656 -0.100455 -3.98529e-20)
(1.27407 -0.0949372 6.87258e-21)
(1.26122 -0.0886378 -6.39509e-20)
(1.24886 -0.0818881 1.62636e-20)
(1.23744 -0.0750261 -1.42491e-20)
(1.22714 -0.0682664 2.22024e-20)
(1.21794 -0.0616653 -3.1223e-20)
(1.20974 -0.0552279 -3.96178e-20)
(1.2025 -0.048952 4.98389e-20)
(1.19614 -0.042829 -5.91869e-21)
(1.19064 -0.0368449 -1.12318e-20)
(1.18595 -0.0309832 6.54451e-21)
(1.18206 -0.0252261 1.63941e-21)
(1.17894 -0.0195532 -9.23444e-22)
(1.17659 -0.0139442 4.46204e-21)
(1.17501 -0.00839118 -2.24819e-21)
(1.1742 -0.00284618 -7.0771e-22)
(1.24733 -0.0536924 -1.29677e-19)
(1.29029 -0.076181 -4.19667e-19)
(1.30249 -0.0868148 5.24789e-19)
(1.2979 -0.0888739 -2.92443e-19)
(1.28654 -0.0867893 1.4021e-19)
(1.27292 -0.0823351 -5.03392e-20)
(1.25929 -0.0766178 2.14461e-20)
(1.24676 -0.0704886 -3.83947e-20)
(1.2356 -0.0643397 7.53462e-20)
(1.22572 -0.058279 -9.54445e-20)
(1.21698 -0.0523301 5.3286e-20)
(1.20929 -0.0464945 -1.7923e-20)
(1.20254 -0.0407647 6.54978e-20)
(1.1967 -0.0351309 -5.42024e-20)
(1.19173 -0.0295837 1.8679e-20)
(1.1876 -0.0241122 5.32192e-21)
(1.1843 -0.0187027 -2.72948e-21)
(1.18182 -0.01334 3.00283e-21)
(1.18016 -0.00802102 -1.04505e-20)
(1.17932 -0.00271151 2.05559e-21)
(1.15934 -0.025375 2.61494e-19)
(1.23072 -0.045206 9.14305e-21)
(1.26951 -0.0592978 -6.00482e-19)
(1.28571 -0.0679026 5.01609e-19)
(1.28728 -0.0718864 -3.44377e-19)
(1.2802 -0.0719597 1.83727e-19)
(1.26921 -0.0693747 -8.60313e-20)
(1.25721 -0.0652916 5.92451e-20)
(1.2456 -0.0604367 -1.16238e-20)
(1.23494 -0.0552187 -3.49827e-20)
(1.22537 -0.0498605 2.73782e-21)
(1.21691 -0.0444713 1.83743e-20)
(1.2095 -0.0390996 1.92316e-20)
(1.20308 -0.0337654 -1.30095e-20)
(1.19762 -0.0284767 1.65213e-20)
(1.1931 -0.0232339 -7.60724e-21)
(1.18949 -0.0180316 1.35996e-11)
(1.18678 -0.0128604 -1.34874e-11)
(1.18498 -0.0077204 7.91767e-21)
(1.18409 -0.00259166 -4.56263e-21)
(1.13281 -0.0109303 -2.53116e-27)
(1.2206 -0.0346122 2.53702e-27)
(1.26624 -0.0482342 0)
(1.28697 -0.057236 0)
(1.29117 -0.0620583 0)
(1.28554 -0.063214 0)
(1.27518 -0.0617969 -1.47864e-27)
(1.26325 -0.0587914 1.47874e-27)
(1.25139 -0.0548684 0)
(1.24036 -0.0504495 0)
(1.23042 -0.045781 0)
(1.22161 -0.040994 0)
(1.21388 -0.0361558 0)
(1.2072 -0.0313019 0)
(1.20152 -0.0264512 6.26584e-28)
(1.19682 -0.0216136 -6.26825e-28)
(1.19308 -0.0167917 1.36218e-11)
(1.19028 -0.0119829 -1.36282e-11)
(1.18843 -0.00718979 0)
(1.18751 -0.00240569 0)
(1.11803 -0.000944138 5.08765e-27)
(1.21218 -0.0264485 -5.09433e-27)
(1.2614 -0.0403966 0)
(1.28462 -0.0496365 0)
(1.29072 -0.0548856 3.48628e-27)
(1.2865 -0.0567138 -3.48628e-27)
(1.27705 -0.0560734 2.04323e-27)
(1.26561 -0.0538204 -2.04323e-27)
(1.25398 -0.0505792 0)
(1.24303 -0.0467639 0)
(1.23309 -0.0426255 0)
(1.22424 -0.038306 0)
(1.21647 -0.0338842 0)
(1.20974 -0.0294055 0)
(1.20401 -0.0248969 0)
(1.19927 -0.0203746 0)
(1.19549 -0.0158475 1.39046e-11)
(1.19267 -0.0113181 -1.39046e-11)
(1.1908 -0.00679146 8.38461e-28)
(1.18987 -0.00226921 -8.43769e-28)
(1.10437 0.00701578 -2.42806e-27)
(1.20272 -0.0180634 2.4312e-27)
(1.25506 -0.0326609 0)
(1.28046 -0.0423527 0)
(1.28839 -0.0480741 -1.67102e-27)
(1.28567 -0.0505297 1.67102e-27)
(1.27731 -0.0505868 0)
(1.2666 -0.049015 0)
(1.25543 -0.0464025 0)
(1.24477 -0.0431528 0)
(1.23501 -0.0395184 -9.02749e-28)
(1.22627 -0.0356489 9.02749e-28)
(1.21857 -0.0316319 -1.84078e-11)
(1.21189 -0.0275207 1.84078e-11)
(1.20619 -0.023349 -6.67713e-28)
(1.20147 -0.019139 6.67713e-28)
(1.19771 -0.0149048 1.46181e-11)
(1.19489 -0.0106541 -1.46181e-11)
(1.19303 -0.00639511 -6.4055e-28)
(1.19211 -0.00213516 6.44605e-28)
(1.0912 0.0138286 4.9791e-27)
(1.19276 -0.00991927 -4.98547e-27)
(1.24843 -0.0251594 0)
(1.2761 -0.0353785 0)
(1.28584 -0.0416041 0)
(1.28457 -0.0446564 0)
(1.27727 -0.0453512 0)
(1.26729 -0.0444018 0)
(1.25661 -0.0423688 0)
(1.24625 -0.0396458 0)
(1.23669 -0.0364864 0)
(1.22809 -0.0330456 0)
(1.22048 -0.0294181 -3.8022e-11)
(1.21386 -0.0256632 3.8022e-11)
(1.20821 -0.0218204 0)
(1.20352 -0.0179168 0)
(1.19977 -0.0139712 0)
(1.19698 -0.00999608 0)
(1.19512 -0.00600305 0)
(1.1942 -0.00200361 0)
(1.0789 0.0199016 0)
(1.18283 -0.00234977 0)
(1.24176 -0.0180632 -1.09102e-28)
(1.27179 -0.0287531 1.09102e-28)
(1.28332 -0.0354559 0)
(1.28343 -0.0390587 0)
(1.27715 -0.0403359 -1.50732e-27)
(1.26787 -0.0399581 1.50732e-27)
(1.25766 -0.0384622 0)
(1.24761 -0.0362327 0)
(1.23824 -0.0335229 0)
(1.22977 -0.030492 0)
(1.22225 -0.0272399 -1.95767e-11)
(1.21569 -0.0238311 1.95767e-11)
(1.21009 -0.0203096 7.19432e-28)
(1.20543 -0.016707 -7.19432e-28)
(1.20171 -0.0130461 0)
(1.19893 -0.00934357 0)
(1.19708 -0.00561453 0)
(1.19616 -0.00187381 0)
(1.06763 0.0252969 0)
(1.17314 0.00455258 0)
(1.23499 -0.0114215 0)
(1.26733 -0.0224896 0)
(1.28062 -0.0296215 -5.54721e-28)
(1.28209 -0.0337227 5.54721e-28)
(1.27681 -0.035529 4.8786e-28)
(1.26824 -0.035676 -4.8786e-28)
(1.2585 -0.0346789 0)
(1.24876 -0.0329125 0)
(1.2396 -0.0306288 0)
(1.23127 -0.0279899 0)
(1.22385 -0.0250995 0)
(1.21737 -0.0220264 0)
(1.21182 -0.0188186 0)
(1.2072 -0.0155112 0)
(1.20351 -0.0121307 1.64817e-11)
(1.20074 -0.00869748 -1.64817e-11)
(1.19891 -0.00522986 2.347e-28)
(1.198 -0.00174563 -2.36186e-28)
(1.05733 0.030088 0)
(1.16374 0.0108093 0)
(1.22811 -0.00522879 9.19833e-28)
(1.26266 -0.0165841 -9.19833e-28)
(1.27768 -0.0240964 -2.16609e-27)
(1.28048 -0.0286458 2.16609e-27)
(1.2762 -0.0309319 0)
(1.26834 -0.0315602 0)
(1.25909 -0.0310253 1.52736e-27)
(1.24968 -0.0296925 -1.52736e-27)
(1.24075 -0.0278116 0)
(1.23258 -0.0255463 0)
(1.22528 -0.0230034 -2.05618e-11)
(1.21888 -0.020255 2.05618e-11)
(1.2134 -0.0173523 0)
(1.20882 -0.0143334 0)
(1.20517 -0.0112281 1.70162e-11)
(1.20243 -0.00805989 -1.70162e-11)
(1.2006 -0.0048502 0)
(1.1997 -0.00161929 0)
(1.04788 0.0343698 0)
(1.15466 0.0164655 0)
(1.22117 0.000526762 0)
(1.2578 -0.0110307 0)
(1.27451 -0.0188751 0)
(1.27863 -0.0238258 0)
(1.27534 -0.0265461 0)
(1.2682 -0.027615 0)
(1.25945 -0.0275078 3.90798e-28)
(1.25039 -0.02658 -3.90798e-28)
(1.24171 -0.0250786 0)
(1.23371 -0.0231682 0)
(1.22654 -0.020958 -2.09731e-11)
(1.22024 -0.0185224 2.09731e-11)
(1.21482 -0.0159153 2.64657e-28)
(1.21031 -0.0131774 -2.64657e-28)
(1.20669 -0.0103411 2.45642e-28)
(1.20398 -0.00743286 -2.45642e-28)
(1.20217 -0.0044767 0)
(1.20128 -0.00149511 0)
(1.03915 0.0382155 0)
(1.14593 0.0215679 0)
(1.21424 0.00585698 0)
(1.25282 -0.00582337 0)
(1.27117 -0.0139511 0)
(1.27658 -0.0192578 0)
(1.27427 -0.0223703 0)
(1.26785 -0.0238418 0)
(1.25961 -0.0241296 0)
(1.25091 -0.0235793 0)
(1.24248 -0.0224347 0)
(1.23467 -0.0208607 0)
(1.22764 -0.0189679 -2.13336e-11)
(1.22144 -0.0168328 2.13336e-11)
(1.21611 -0.0145113 1.92784e-11)
(1.21165 -0.0120462 -1.92784e-11)
(1.20808 -0.00947213 9.91162e-28)
(1.2054 -0.00681807 -9.91162e-28)
(1.20362 -0.00411033 -1.3908e-28)
(1.20273 -0.00137333 1.3996e-28)
(1.03109 0.0416772 0)
(1.13757 0.026166 0)
(1.20737 0.0107754 0)
(1.24776 -0.000956326 0)
(1.26768 -0.00931501 0)
(1.27435 -0.0149358 0)
(1.27301 -0.0184014 0)