/*--------------------------------*- C++ -*----------------------------------*\
  =========                 |
  \\      /  F ield         | OpenFOAM: The Open Source CFD Toolbox
   \\    /   O peration     | Website:  https://openfoam.org
    \\  /    A nd           | Version:  7
     \\/     M anipulation  |
\*---------------------------------------------------------------------------*/
FoamFile
{
    version     2.0;
    format      ascii;
    class       surfaceScalarField;
    location    "5";
    object      phi;
}
// * * * * * * * * * * * * * * * * * * * * * * * * * * * * * * * * * * * * * //

dimensions      [0 3 -1 0 0 0 0];

internalField   nonuniform List<scalar> 
2641
(
0.0131903
-3.60285e-05
0.013223
-3.27286e-05
0.0132526
-2.96371e-05
0.0132794
-2.67457e-05
0.0133034
-2.40457e-05
0.013325
-2.15279e-05
0.0133441
-1.9183e-05
0.0133611
-1.70015e-05
0.0133761
-1.4974e-05
0.0133892
-1.30913e-05
0.0134006
-1.13442e-05
0.0134103
-9.72382e-06
0.0134185
-8.22173e-06
0.0134253
-6.82973e-06
0.0134309
-5.54006e-06
0.0134352
-4.34533e-06
0.0134385
-3.23861e-06
0.0134407
-2.21324e-06
0.0134419
-1.26266e-06
0.0134423
-3.76448e-07
0.0134419
4.35293e-07
0.0134407
1.19122e-06
0.0134388
1.89295e-06
0.0134362
2.54424e-06
0.0134331
3.14897e-06
0.0134294
3.71069e-06
0.0134251
4.23274e-06
0.0134204
4.71816e-06
0.0134153
5.16975e-06
0.0134097
5.59011e-06
0.0134037
5.9816e-06
0.0133973
6.34639e-06
0.0133907
6.68646e-06
0.0133837
7.00366e-06
0.0133764
7.29963e-06
0.0133688
7.57593e-06
0.0133609
7.83396e-06
0.0133529
8.07501e-06
0.0133446
8.30026e-06
0.0133361
8.5108e-06
0.0133273
8.70762e-06
0.0133185
8.89165e-06
0.0133094
9.06372e-06
0.0133002
9.2246e-06
0.0132908
9.37502e-06
0.0132813
9.51563e-06
0.0132716
9.64705e-06
0.0132619
9.76978e-06
0.013252
9.88413e-06
0.013242
9.98928e-06
1.00747e-05
0.0131449
0.0131775
-6.53135e-05
0.0132071
-5.92672e-05
0.013234
-5.3608e-05
0.0132583
-4.83193e-05
0.0132801
-4.33838e-05
0.0132997
-3.87838e-05
0.0133172
-3.45012e-05
0.0133328
-3.05182e-05
0.0133465
-2.68168e-05
0.0133585
-2.33797e-05
0.013369
-2.01899e-05
0.013378
-1.72309e-05
0.0133857
-1.4487e-05
0.0133921
-1.19433e-05
0.0133973
-9.58543e-06
0.0134015
-7.39996e-06
0.0134046
-5.37415e-06
0.0134069
-3.49583e-06
0.0134082
-1.75261e-06
0.0134088
-1.26773e-07
0.0134086
1.36016e-06
0.0134078
2.74928e-06
0.0134063
4.03998e-06
0.0134042
5.23873e-06
0.0134015
6.35243e-06
0.0133984
7.38787e-06
0.0133948
8.35088e-06
0.0133907
9.24699e-06
0.0133862
1.00814e-05
0.0133813
1.08586e-05
0.0133761
1.1583e-05
0.0133705
1.22585e-05
0.0133646
1.28886e-05
0.0133584
1.34767e-05
0.013352
1.40257e-05
0.0133453
1.45385e-05
0.0133383
1.50176e-05
0.0133312
1.54653e-05
0.0133238
1.58838e-05
0.0133162
1.6275e-05
0.0133085
1.66409e-05
0.0133006
1.69829e-05
0.0132925
1.73027e-05
0.0132843
1.76018e-05
0.0132759
1.78813e-05
0.0132674
1.81425e-05
0.0132588
1.83864e-05
0.0132501
1.86137e-05
0.0132412
1.88227e-05
1.89926e-05
0.0130856
-9.78009e-05
0.0131154
-8.90494e-05
0.0131426
-8.0848e-05
0.0131675
-7.31742e-05
0.0131901
-6.60042e-05
0.0132106
-5.93137e-05
0.0132292
-5.30777e-05
0.013246
-4.72712e-05
0.013261
-4.18693e-05
0.0132745
-3.68476e-05
0.0132865
-3.2182e-05
0.0132971
-2.78497e-05
0.0133064
-2.38282e-05
0.0133146
-2.00964e-05
0.0133216
-1.66341e-05
0.0133277
-1.3422e-05
0.0133327
-1.04421e-05
0.0133369
-7.67744e-06
0.0133403
-5.11174e-06
0.0133429
-2.72823e-06
0.0133447
-4.99047e-07
0.0133459
1.53217e-06
0.0133465
3.44224e-06
0.0133466
5.21207e-06
0.0133461
6.85938e-06
0.0133451
8.39216e-06
0.0133436
9.81797e-06
0.0133417
1.11452e-05
0.0133394
1.23816e-05
0.0133367
1.35338e-05
0.0133337
1.4608e-05
0.0133303
1.56098e-05
0.0133267
1.65446e-05
0.0133227
1.74173e-05
0.0133185
1.82322e-05
0.0133141
1.89934e-05
0.0133094
1.97047e-05
0.0133045
2.03695e-05
0.0132994
2.09909e-05
0.0132941
2.1572e-05
0.0132886
2.21153e-05
0.013283
2.26233e-05
0.0132772
2.30982e-05
0.0132712
2.35423e-05
0.0132652
2.39573e-05
0.013259
2.43452e-05
0.0132526
2.47073e-05
0.0132462
2.50447e-05
0.0132397
2.53549e-05
2.56075e-05
0.0129459
-0.000130563
0.0129763
-0.000119428
0.0130044
-0.000108975
0.0130304
-9.91799e-05
0.0130544
-9.0013e-05
0.0130766
-8.14459e-05
0.0130969
-7.34485e-05
0.0131157
-6.59907e-05
0.0131328
-5.90425e-05
0.0131486
-5.2574e-05
0.0131629
-4.6556e-05
0.013176
-4.09601e-05
0.013188
-3.5759e-05
0.0131988
-3.09265e-05
0.0132086
-2.64373e-05
0.0132175
-2.22677e-05
0.0132254
-1.83951e-05
0.0132325
-1.47984e-05
0.0132389
-1.14574e-05
0.0132445
-8.35345e-06
0.0132495
-5.46894e-06
0.0132538
-2.78934e-06
0.0132575
-2.72454e-07
0.0132607
2.01558e-06
0.0132634
4.17456e-06
0.0132656
6.18393e-06
0.0132674
8.05005e-06
0.0132687
9.79005e-06
0.0132697
1.1412e-05
0.0132703
1.29242e-05
0.0132706
1.43346e-05
0.0132705
1.56502e-05
0.0132702
1.68782e-05
0.0132696
1.80249e-05
0.0132687
1.90959e-05
0.0132676
2.00967e-05
0.0132663
2.10319e-05
0.0132648
2.19062e-05
0.013263
2.27235e-05
0.0132611
2.34877e-05
0.013259
2.42023e-05
0.0132568
2.48704e-05
0.0132544
2.54951e-05
0.0132518
2.60791e-05
0.0132492
2.66248e-05
0.0132464
2.71347e-05
0.0132435
2.76107e-05
0.0132405
2.80541e-05
0.0132374
2.84618e-05
2.87945e-05
0.0127569
-0.000164346
0.0127887
-0.000151175
0.0128185
-0.000138787
0.0128465
-0.000127156
0.0128727
-0.000116251
0.0128973
-0.00010604
0.0129204
-9.64919e-05
0.0129419
-8.75719e-05
0.0129621
-7.92471e-05
0.0129811
-7.14841e-05
0.0129987
-6.42499e-05
0.0130153
-5.75127e-05
0.0130308
-5.12412e-05
0.0130453
-4.54054e-05
0.0130588
-3.99767e-05
0.0130715
-3.49276e-05
0.0130833
-3.02322e-05
0.0130944
-2.58658e-05
0.0131047
-2.18052e-05
0.0131144
-1.80288e-05
0.0131234
-1.45161e-05
0.0131319
-1.12479e-05
0.0131398
-8.20607e-06
0.0131472
-5.37962e-06
0.0131541
-2.74394e-06
0.0131606
-2.65642e-07
0.0131666
1.99304e-06
0.0131723
4.12638e-06
0.0131776
6.11468e-06
0.0131826
7.96932e-06
0.0131872
9.69993e-06
0.0131915
1.13134e-05
0.0131956
1.28207e-05
0.0131994
1.42287e-05
0.0132029
1.55442e-05
0.0132063
1.67736e-05
0.0132094
1.79227e-05
0.0132123
1.8997e-05
0.013215
2.00014e-05
0.0132176
2.09406e-05
0.0132199
2.18188e-05
0.0132222
2.26398e-05
0.0132243
2.34075e-05
0.0132262
2.41249e-05
0.013228
2.47954e-05
0.0132298
2.54216e-05
0.0132314
2.6006e-05
0.0132329
2.65503e-05
0.0132343
2.70508e-05
2.74601e-05
0.0125178
0.012552
-0.000185356
0.0125845
-0.000171336
0.0126155
-0.000158145
0.012645
-0.000145751
0.0126731
-0.000134123
0.0126998
-0.000123228
0.0127253
-0.00011303
0.0127495
-0.000103495
0.0127726
-9.45876e-05
0.0127947
-8.62721e-05
0.0128157
-7.85145e-05
0.0128357
-7.12813e-05
0.0128548
-6.45401e-05
0.0128731
-5.82596e-05
0.0128906
-5.24098e-05
0.0129073
-4.69623e-05
0.0129234
-4.189e-05
0.0129387
-3.71671e-05
0.0129535
-3.27697e-05
0.0129676
-2.86749e-05
0.0129812
-2.48615e-05
0.0129943
-2.13096e-05
0.013007
-1.80009e-05
0.0130191
-1.49172e-05
0.0130309
-1.20417e-05
0.0130423
-9.36546e-06
0.0130533
-6.86765e-06
0.0130639
-4.53662e-06
0.0130742
-2.35981e-06
0.0130843
-3.20239e-07
0.013094
1.56551e-06
0.0131035
3.33741e-06
0.0131127
4.99269e-06
0.0131217
6.53957e-06
0.0131305
7.98542e-06
0.0131391
9.33707e-06
0.0131475
1.06008e-05
0.0131557
1.17824e-05
0.0131638
1.28873e-05
0.0131717
1.39204e-05
0.0131794
1.48862e-05
0.013187
1.5789e-05
0.0131945
1.66327e-05
0.0132019
1.74209e-05
0.0132092
1.81568e-05
0.0132163
1.88434e-05
0.0132234
1.94826e-05
0.0132304
2.00703e-05
2.05523e-05
0.0122662
-0.000223253
0.0123027
-0.000207866
0.012338
-0.000193355
0.0123719
-0.000179691
0.0124046
-0.000166846
0.0124362
-0.000154784
0.0124666
-0.000143472
0.012496
-0.000132875
0.0125244
-0.000122956
0.0125518
-0.00011368
0.0125783
-0.000105012
0.0126039
-9.69155e-05
0.0126287
-8.93579e-05
0.0126528
-8.23061e-05
0.0126761
-7.57284e-05
0.0126987
-6.95945e-05
0.0127207
-6.38756e-05
0.0127421
-5.85442e-05
0.0127629
-5.35745e-05
0.0127832
-4.89418e-05
0.0128029
-4.46231e-05
0.0128222
-4.05969e-05
0.012841
-3.68429e-05
0.0128595
-3.33419e-05
0.0128775
-3.00762e-05
0.0128952
-2.703e-05
0.0129125
-2.41874e-05
0.0129295
-2.15337e-05
0.0129462
-1.90556e-05
0.0129626
-1.67411e-05
0.0129788
-1.45808e-05
0.0129946
-1.25616e-05
0.0130103
-1.06743e-05
0.0130258
-8.91008e-06
0.013041
-7.26081e-06
0.0130561
-5.71876e-06
0.0130709
-4.27685e-06
0.0130857
-2.92859e-06
0.0131002
-1.66787e-06
0.0131146
-4.89001e-07
0.0131289
6.12653e-07
0.013143
1.64243e-06
0.0131571
2.6045e-06
0.013171
3.50297e-06
0.0131848
4.34154e-06
0.0131985
5.12351e-06
0.0132122
5.85102e-06
0.0132257
6.51978e-06
7.07016e-06
0.0119324
0.0119742
-0.000249732
0.012015
-0.000234093
0.0120546
-0.000219335
0.0120932
-0.000205431
0.0121308
-0.000192348
0.0121674
-0.000180054
0.012203
-0.000168514
0.0122377
-0.000157693
0.0122716
-0.000147556
0.0123047
-0.000138066
0.0123369
-0.000129188
0.0123685
-0.000120889
0.0123993
-0.000113133
0.0124295
-0.000105888
0.012459
-9.91238e-05
0.0124879
-9.28091e-05
0.0125163
-8.69156e-05
0.0125441
-8.14158e-05
0.0125715
-7.6284e-05
0.0125983
-7.14955e-05
0.0126248
-6.70274e-05
0.0126508
-6.2858e-05
0.0126764
-5.89668e-05
0.0127017
-5.5335e-05
0.0127266
-5.19448e-05
0.0127512
-4.87795e-05
0.0127755
-4.58234e-05
0.0127995
-4.30623e-05
0.0128232
-4.04827e-05
0.0128467
-3.80725e-05
0.01287
-3.58201e-05
0.012893
-3.37146e-05
0.0129158
-3.17462e-05
0.0129385
-2.99058e-05
0.012961
-2.8185e-05
0.0129833
-2.65758e-05
0.0130054
-2.50712e-05
0.0130274
-2.36645e-05
0.0130493
-2.23493e-05
0.013071
-2.11202e-05
0.0130926
-1.99717e-05
0.0131141
-1.88991e-05
0.0131355
-1.78977e-05
0.0131568
-1.69636e-05
0.013178
-1.6093e-05
0.0131992
-1.52837e-05
0.0132202
-1.45405e-05
-1.39264e-05
0.0144673
-0.00025925
0.0144767
-0.0002435
0.014486
-0.0002286
0.0144951
-0.000214526
0.014504
-0.000201249
0.0145127
-0.000188741
0.0145211
-0.00017697
0.0145294
-0.000165904
0.0145373
-0.00015551
0.014545
-0.000145756
0.0145524
-0.000136608
0.0145596
-0.000128035
0.0145664
-0.000120004
0.014573
-0.000112485
0.0145794
-0.000105448
0.0145854
-9.88643e-05
0.0145912
-9.27064e-05
0.0145967
-8.69478e-05
0.014602
-8.15635e-05
0.0146071
-7.65296e-05
0.0146118
-7.18235e-05
0.0146164
-6.74244e-05
0.0146208
-6.33116e-05
0.0146249
-5.94665e-05
0.0146288
-5.58714e-05
0.0146325
-5.25098e-05
0.0146361
-4.9366e-05
0.0146395
-4.64255e-05
0.0146426
-4.36752e-05
0.0146457
-4.11019e-05
0.0146485
-3.86946e-05
0.0146513
-3.64418e-05
0.0146539
-3.43336e-05
0.0146563
-3.23608e-05
0.0146586
-3.05144e-05
0.0146609
-2.87866e-05
0.014663
-2.71698e-05
0.0146649
-2.5657e-05
0.0146668
-2.42421e-05
0.0146686
-2.29186e-05
0.0146704
-2.16815e-05
0.014672
-2.05254e-05
0.0146735
-1.9446e-05
0.014675
-1.84385e-05
0.0146764
-1.74992e-05
0.0146777
-1.66261e-05
0.014679
-1.58239e-05
-1.51626e-05
0.0145268
-0.00026438
0.0145321
-0.000248826
0.0145376
-0.000234071
0.0145431
-0.000220095
0.0145488
-0.000206876
0.0145544
-0.000194387
0.01456
-0.000182602
0.0145656
-0.000171493
0.0145712
-0.000161031
0.0145766
-0.000151186
0.0145819
-0.00014193
0.0145871
-0.000133233
0.0145922
-0.000125066
0.0145971
-0.000117402
0.0146019
-0.000110211
0.0146065
-0.000103468
0.0146109
-9.71473e-05
0.0146152
-9.12236e-05
0.0146193
-8.56735e-05
0.0146232
-8.04744e-05
0.014627
-7.56046e-05
0.0146306
-7.10438e-05
0.0146341
-6.67727e-05
0.0146374
-6.27729e-05
0.0146405
-5.90272e-05
0.0146436
-5.55195e-05
0.0146464
-5.22344e-05
0.0146492
-4.91577e-05
0.0146518
-4.62761e-05
0.0146542
-4.35771e-05
0.0146566
-4.10489e-05
0.0146588
-3.86807e-05
0.014661
-3.64624e-05
0.014663
-3.43846e-05
0.0146649
-3.24383e-05
0.0146667
-3.06155e-05
0.0146685
-2.89085e-05
0.0146701
-2.73103e-05
0.0146717
-2.58144e-05
0.0146732
-2.44146e-05
0.0146746
-2.31053e-05
0.014676
-2.18813e-05
0.0146773
-2.07376e-05
0.0146785
-1.967e-05
0.0146797
-1.86743e-05
0.0146808
-1.77482e-05
0.0146819
-1.68972e-05
-1.61954e-05
0.014585
-0.000265461
0.0145866
-0.000250362
0.0145885
-0.000235996
0.0145907
-0.00022235
0.0145933
-0.000209405
0.014596
-0.00019714
0.014599
-0.000185533
0.014602
-0.000174562
0.0146052
-0.0001642
0.0146084
-0.000154424
0.0146117
-0.000145207
0.014615
-0.000136525
0.0146183
-0.00012835
0.0146215
-0.000120659
0.0146248
-0.000113427
0.0146279
-0.000106628
0.014631
-0.000100241
0.014634
-9.42421e-05
0.014637
-8.86096e-05
0.0146398
-8.33225e-05
0.0146426
-7.8361e-05
0.0146452
-7.37056e-05
0.0146478
-6.93381e-05
0.0146503
-6.52412e-05
0.0146526
-6.13986e-05
0.0146549
-5.77944e-05
0.0146571
-5.44142e-05
0.0146592
-5.12441e-05
0.0146612
-4.82715e-05
0.0146631
-4.54835e-05
0.0146649
-4.28693e-05
0.0146666
-4.0418e-05
0.0146683
-3.81193e-05
0.0146699
-3.59642e-05
0.0146714
-3.39439e-05
0.0146728
-3.20501e-05
0.0146742
-3.02756e-05
0.0146755
-2.86129e-05
0.0146767
-2.70555e-05
0.0146779
-2.55974e-05
0.014679
-2.42329e-05
0.0146801
-2.29564e-05
0.0146811
-2.17633e-05
0.0146821
-2.06488e-05
0.0146831
-1.96093e-05
0.014684
-1.86419e-05
0.0146848
-1.77527e-05
-1.70192e-05
0.0146417
-0.000262893
0.0146398
-0.000248452
0.0146385
-0.000234673
0.0146377
-0.000221543
0.0146374
-0.000209052
0.0146374
-0.000197182
0.0146378
-0.000185917
0.0146385
-0.000175237
0.0146394
-0.000165123
0.0146405
-0.000155554
0.0146418
-0.000146507
0.0146432
-0.000137962
0.0146448
-0.000129896
0.0146464
-0.000122288
0.0146481
-0.000115116
0.0146498
-0.000108359
0.0146516
-0.000101995
0.0146534
-9.60056e-05
0.0146551
-9.03698e-05
0.0146569
-8.5069e-05
0.0146586
-8.00847e-05
0.0146603
-7.53993e-05
0.0146619
-7.09958e-05
0.0146636
-6.68582e-05
0.0146651
-6.2971e-05
0.0146667
-5.93197e-05
0.0146681
-5.58903e-05
0.0146696
-5.26697e-05
0.0146709
-4.96456e-05
0.0146723
-4.68062e-05
0.0146735
-4.41405e-05
0.0146747
-4.16382e-05
0.0146759
-3.92896e-05
0.014677
-3.70856e-05
0.0146781
-3.50176e-05
0.0146791
-3.30776e-05
0.0146801
-3.12582e-05
0.0146811
-2.95523e-05
0.014682
-2.79535e-05
0.0146828
-2.64556e-05
0.0146836
-2.5053e-05
0.0146844
-2.37403e-05
0.0146852
-2.25127e-05
0.0146859
-2.13656e-05
0.0146866
-2.0295e-05
0.0146872
-1.92982e-05
0.0146879
-1.83817e-05
-1.76253e-05
0.0146964
-0.000257113
0.0146915
-0.000243479
0.0146872
-0.000230431
0.0146837
-0.000217963
0.0146807
-0.000206065
0.0146782
-0.000194726
0.0146762
-0.000183933
0.0146747
-0.000173672
0.0146735
-0.000163927
0.0146726
-0.000154681
0.014672
-0.000145917
0.0146717
-0.000137616
0.0146715
-0.000129761
0.0146716
-0.000122333
0.0146718
-0.000115314
0.0146721
-0.000108685
0.0146725
-0.000102428
0.014673
-9.65261e-05
0.0146736
-9.09609e-05
0.0146743
-8.57159e-05
0.014675
-8.07744e-05
0.0146757
-7.61207e-05
0.0146764
-7.17392e-05
0.0146772
-6.76153e-05
0.014678
-6.37348e-05
0.0146787
-6.00842e-05
0.0146795
-5.66505e-05
0.0146802
-5.34216e-05
0.014681
-5.03856e-05
0.0146817
-4.75317e-05
0.0146824
-4.48493e-05
0.0146831
-4.23287e-05
0.0146838
-3.99605e-05
0.0146844
-3.77359e-05
0.0146851
-3.56468e-05
0.0146857
-3.36854e-05
0.0146862
-3.18445e-05
0.0146868
-3.01173e-05
0.0146874
-2.84973e-05
0.0146879
-2.69787e-05
0.0146884
-2.55558e-05
0.0146889
-2.42235e-05
0.0146893
-2.29768e-05
0.0146898
-2.18113e-05
0.0146902
-2.07229e-05
0.0146906
-1.97092e-05
0.014691
-1.87767e-05
-1.80067e-05
0.0147486
-0.000248562
0.014741
-0.000235836
0.0147342
-0.000223621
0.0147281
-0.000211914
0.0147228
-0.000200711
0.014718
-0.000190005
0.0147139
-0.000179785
0.0147103
-0.000170042
0.0147071
-0.000160763
0.0147044
-0.000151936
0.014702
-0.000143547
0.0147
-0.000135581
0.0146982
-0.000128024
0.0146967
-0.00012086
0.0146955
-0.000114074
0.0146945
-0.000107651
0.0146936
-0.000101575
0.0146929
-9.58311e-05
0.0146924
-9.04039e-05
0.0146919
-8.52787e-05
0.0146916
-8.0441e-05
0.0146914
-7.58766e-05
0.0146912
-7.15719e-05
0.0146911
-6.75134e-05
0.014691
-6.36885e-05
0.014691
-6.00847e-05
0.0146911
-5.66903e-05
0.0146911
-5.34939e-05
0.0146912
-5.04848e-05
0.0146914
-4.76527e-05
0.0146915
-4.49878e-05
0.0146917
-4.24809e-05
0.0146918
-4.01232e-05
0.014692
-3.79065e-05
0.0146922
-3.58229e-05
0.0146923
-3.38651e-05
0.0146925
-3.20261e-05
0.0146927
-3.02994e-05
0.0146929
-2.86789e-05
0.0146931
-2.71587e-05
0.0146933
-2.57336e-05
0.0146934
-2.43983e-05
0.0146936
-2.31483e-05
0.0146938
-2.1979e-05
0.0146939
-2.08866e-05
0.0146941
-1.98686e-05
0.0146942
-1.89317e-05
-1.81578e-05
0.0147978
-0.000237665
0.0147879
-0.000225903
0.0147788
-0.000214584
0.0147706
-0.000203706
0.0147632
-0.000193267
0.0147564
-0.000183264
0.0147503
-0.000173691
0.0147448
-0.00016454
0.0147399
-0.000155802
0.0147354
-0.000147469
0.0147314
-0.000139528
0.0147278
-0.000131971
0.0147245
-0.000124783
0.0147216
-0.000117954
0.014719
-0.00011147
0.0147167
-0.000105319
0.0147146
-9.94889e-05
0.0147127
-9.39655e-05
0.0147111
-8.87364e-05
0.0147096
-8.37889e-05
0.0147082
-7.91103e-05
0.0147071
-7.46883e-05
0.014706
-7.05108e-05
0.014705
-6.6566e-05
0.0147042
-6.28423e-05
0.0147034
-5.9329e-05
0.0147028
-5.6015e-05
0.0147022
-5.28905e-05
0.0147016
-4.99452e-05
0.0147011
-4.71699e-05
0.0147007
-4.45556e-05
0.0147003
-4.20937e-05
0.0147
-3.9776e-05
0.0146997
-3.75949e-05
0.0146994
-3.5543e-05
0.0146991
-3.36134e-05
0.0146989
-3.17995e-05
0.0146987
-3.00951e-05
0.0146985
-2.84944e-05
0.0146984
-2.69919e-05
0.0146982
-2.55825e-05
0.0146981
-2.42612e-05
0.0146979
-2.30235e-05
0.0146978
-2.18652e-05
0.0146977
-2.07827e-05
0.0146976
-1.97731e-05
0.0146975
-1.88438e-05
-1.80757e-05
0.0148436
-0.000224803
0.0148317
-0.000214034
0.0148207
-0.000203642
0.0148107
-0.000193631
0.0148014
-0.000184001
0.0147929
-0.000174748
0.0147851
-0.000165871
0.0147779
-0.000157365
0.0147713
-0.000149223
0.0147653
-0.000141439
0.0147598
-0.000134005
0.0147547
-0.000126912
0.0147501
-0.000120153
0.0147458
-0.000113716
0.0147419
-0.000107591
0.0147384
-0.00010177
0.0147351
-9.62396e-05
0.0147322
-9.09909e-05
0.0147295
-8.60125e-05
0.014727
-8.12936e-05
0.0147247
-7.68234e-05
0.0147226
-7.25914e-05
0.0147206
-6.85869e-05
0.0147189
-6.47996e-05
0.0147173
-6.12195e-05
0.0147158
-5.78368e-05
0.0147144
-5.46418e-05
0.0147131
-5.16256e-05
0.014712
-4.8779e-05
0.0147109
-4.60937e-05
0.0147099
-4.35614e-05
0.014709
-4.11743e-05
0.0147081
-3.89249e-05
0.0147073
-3.68061e-05
0.0147066
-3.48112e-05
0.0147059
-3.29336e-05
0.0147053
-3.11672e-05
0.0147047
-2.95064e-05
0.0147042
-2.79455e-05
0.0147036
-2.64795e-05
0.0147032
-2.51034e-05
0.0147027
-2.38127e-05
0.0147023
-2.26031e-05
0.0147019
-2.14704e-05
0.0147015
-2.04112e-05
0.0147012
-1.94232e-05
0.0147008
-1.8513e-05
-1.77605e-05
0.0148857
-0.000210312
0.0148722
-0.00020054
0.0148596
-0.000191088
0.014848
-0.000181962
0.0148371
-0.000173161
0.0148271
-0.000164687
0.0148177
-0.000156538
0.0148091
-0.000148712
0.0148011
-0.000141204
0.0147936
-0.000134011
0.0147868
-0.000127126
0.0147804
-0.000120544
0.0147745
-0.000114257
0.014769
-0.000108258
0.014764
-0.00010254
0.0147593
-9.70933e-05
0.014755
-9.19103e-05
0.014751
-8.6982e-05
0.0147473
-8.22992e-05
0.0147438
-7.7853e-05
0.0147406
-7.36346e-05
0.0147377
-6.96342e-05
0.0147349
-6.58435e-05
0.0147324
-6.22531e-05
0.01473
-5.88546e-05
0.0147278
-5.56389e-05
0.0147258
-5.25982e-05
0.0147239
-4.97238e-05
0.0147221
-4.70084e-05
0.0147204
-4.44437e-05
0.0147189
-4.20229e-05
0.0147175
-3.97384e-05
0.0147161
-3.75839e-05
0.0147149
-3.55527e-05
0.0147137
-3.36387e-05
0.0147126
-3.18358e-05
0.0147116
-3.01385e-05
0.0147106
-2.85414e-05
0.0147097
-2.70396e-05
0.0147089
-2.56282e-05
0.0147081
-2.43025e-05
0.0147073
-2.30585e-05
0.0147066
-2.18921e-05
0.0147059
-2.07992e-05
0.0147053
-1.97766e-05
0.0147047
-1.88227e-05
0.0147041
-1.79432e-05
-1.72156e-05
0.0149241
-0.000194476
0.0149092
-0.000185691
0.0148953
-0.000177177
0.0148823
-0.000168938
0.0148701
-0.000160977
0.0148587
-0.000153295
0.014848
-0.000145892
0.0148381
-0.000138768
0.0148288
-0.00013192
0.0148202
-0.000125346
0.0148121
-0.000119042
0.0148045
-0.000113002
0.0147975
-0.000107224
0.0147909
-0.0001017
0.0147848
-9.64241e-05
0.0147791
-9.13908e-05
0.0147738
-8.65927e-05
0.0147688
-8.20228e-05
0.0147642
-7.76736e-05
0.0147599
-7.35379e-05
0.0147559
-6.96078e-05
0.0147521
-6.58759e-05
0.0147486
-6.23343e-05
0.0147453
-5.89756e-05
0.0147423
-5.57921e-05
0.0147394
-5.27764e-05
0.0147367
-4.99212e-05
0.0147342
-4.72194e-05
0.0147319
-4.46639e-05
0.0147297
-4.22482e-05
0.0147276
-3.99655e-05
0.0147257
-3.78097e-05
0.0147239
-3.57746e-05
0.0147222
-3.38544e-05
0.0147206
-3.20435e-05
0.0147191
-3.03366e-05
0.0147177
-2.87285e-05
0.0147164
-2.72144e-05
0.0147151
-2.57897e-05
0.0147139
-2.445e-05
0.0147128
-2.3191e-05
0.0147118
-2.20089e-05
0.0147108
-2.08998e-05
0.0147098
-1.98604e-05
0.0147089
-1.88874e-05
0.0147081
-1.79791e-05
0.0147073
-1.71416e-05
-1.64485e-05
0.0149586
-0.000177535
0.0149426
-0.00016972
0.0149276
-0.000162131
0.0149134
-0.000154773
0.0149001
-0.00014765
0.0148876
-0.000140764
0.0148758
-0.000134116
0.0148647
-0.000127707
0.0148544
-0.000121535
0.0148446
-0.000115599
0.0148355
-0.000109897
0.0148269
-0.000104426
0.0148188
-9.91811e-05
0.0148113
-9.41594e-05
0.0148042
-8.9356e-05
0.0147976
-8.47656e-05
0.0147914
-8.03834e-05
0.0147856
-7.62031e-05
0.0147801
-7.22189e-05
0.014775
-6.84252e-05
0.0147702
-6.48148e-05
0.0147657
-6.13823e-05
0.0147615
-5.81206e-05
0.0147576
-5.50235e-05
0.0147539
-5.20845e-05
0.0147504
-4.92973e-05
0.0147471
-4.66556e-05
0.014744
-4.41533e-05
0.0147412
-4.1784e-05
0.0147385
-3.95425e-05
0.0147359
-3.74223e-05
0.0147335
-3.54182e-05
0.0147313
-3.35249e-05
0.0147292
-3.1737e-05
0.0147272
-3.00498e-05
0.0147253
-2.84584e-05
0.0147235
-2.69579e-05
0.0147218
-2.55446e-05
0.0147203
-2.42137e-05
0.0147188
-2.29616e-05
0.0147174
-2.17843e-05
0.014716
-2.06784e-05
0.0147148
-1.96403e-05
0.0147136
-1.86669e-05
0.0147125
-1.77555e-05
0.0147114
-1.69043e-05
0.0147104
-1.61188e-05
-1.5469e-05
0.0149894
-0.000159689
0.0149725
-0.00015282
0.0149565
-0.000146139
0.0149414
-0.000139651
0.0149271
-0.00013336
0.0149136
-0.000127268
0.0149009
-0.000121377
0.0148888
-0.000115688
0.0148775
-0.000110201
0.0148668
-0.000104916
0.0148568
-9.9831e-05
0.0148473
-9.49443e-05
0.0148384
-9.02532e-05
0.0148299
-8.57549e-05
0.014822
-8.1446e-05
0.0148146
-7.73226e-05
0.0148076
-7.33804e-05
0.014801
-6.96152e-05
0.0147948
-6.6022e-05
0.014789
-6.25959e-05
0.0147835
-5.93319e-05
0.0147783
-5.62246e-05
0.0147735
-5.32687e-05
0.0147689
-5.0459e-05
0.0147646
-4.77898e-05
0.0147606
-4.52559e-05
0.0147568
-4.2852e-05
0.0147532
-4.05727e-05
0.0147498
-3.84128e-05
0.0147467
-3.63674e-05
0.0147437
-3.44313e-05
0.0147408
-3.25998e-05
0.0147382
-3.08682e-05
0.0147357
-2.92319e-05
0.0147333
-2.76867e-05
0.0147311
-2.62282e-05
0.014729
-2.48525e-05
0.014727
-2.35557e-05
0.0147251
-2.2334e-05
0.0147233
-2.1184e-05
0.0147217
-2.01023e-05
0.0147201
-1.90855e-05
0.0147186
-1.81308e-05
0.0147171
-1.72353e-05
0.0147158
-1.63963e-05
0.0147145
-1.56125e-05
0.0147132
-1.48892e-05
-1.42902e-05
0.0150165
-0.000141105
0.0149988
-0.000135159
0.014982
-0.000129366
0.0149661
-0.000123733
0.014951
-0.000118263
0.0149367
-0.000112959
0.0149232
-0.000107823
0.0149103
-0.000102855
0.0148982
-9.80582e-05
0.0148867
-9.34307e-05
0.0148758
-8.89725e-05
0.0148656
-8.46824e-05
0.0148559
-8.0559e-05
0.0148467
-7.65997e-05
0.0148381
-7.28023e-05
0.0148299
-6.91642e-05
0.0148222
-6.56817e-05
0.014815
-6.23517e-05
0.0148081
-5.91701e-05
0.0148016
-5.61332e-05
0.0147956
-5.32368e-05
0.0147898
-5.04766e-05
0.0147844
-4.78484e-05
0.0147793
-4.53477e-05
0.0147745
-4.29697e-05
0.0147699
-4.07105e-05
0.0147656
-3.85648e-05
0.0147616
-3.65292e-05
0.0147578
-3.45984e-05
0.0147542
-3.27685e-05
0.0147508
-3.10352e-05
0.0147476
-2.93943e-05
0.0147445
-2.78421e-05
0.0147417
-2.63744e-05
0.014739
-2.49875e-05
0.0147364
-2.36776e-05
0.014734
-2.24415e-05
0.0147317
-2.12755e-05
0.0147296
-2.01769e-05
0.0147275
-1.91419e-05
0.0147256
-1.8168e-05
0.0147238
-1.72523e-05
0.014722
-1.6392e-05
0.0147204
-1.55849e-05
0.0147188
-1.48285e-05
0.0147173
-1.41216e-05
0.0147159
-1.34689e-05
-1.29283e-05
0.0150399
-0.000121924
0.0150216
-0.000116876
0.0150042
-0.000111953
0.0149876
-0.00010716
0.0149719
-0.0001025
0.0149569
-9.7975e-05
0.0149426
-9.35882e-05
0.0149291
-8.93409e-05
0.0149163
-8.52341e-05
0.0149041
-8.12679e-05
0.0148926
-7.74425e-05
0.0148817
-7.37572e-05
0.0148713
-7.02109e-05
0.0148615
-6.68023e-05
0.0148523
-6.35295e-05
0.0148435
-6.03905e-05
0.0148352
-5.73829e-05
0.0148273
-5.45039e-05
0.0148199
-5.17507e-05
0.0148129
-4.91201e-05
0.0148063
-4.6609e-05
0.0148
-4.42138e-05
0.0147941
-4.1931e-05
0.0147885
-3.97571e-05
0.0147832
-3.76884e-05
0.0147782
-3.57212e-05
0.0147735
-3.38519e-05
0.0147691
-3.20767e-05
0.0147649
-3.03921e-05
0.0147609
-2.87943e-05
0.0147571
-2.728e-05
0.0147536
-2.58456e-05
0.0147502
-2.44877e-05
0.0147471
-2.32031e-05
0.0147441
-2.19885e-05
0.0147412
-2.0841e-05
0.0147386
-1.97574e-05
0.014736
-1.8735e-05
0.0147336
-1.7771e-05
0.0147313
-1.68627e-05
0.0147292
-1.60076e-05
0.0147271
-1.52033e-05
0.0147252
-1.44476e-05
0.0147233
-1.37381e-05
0.0147216
-1.3073e-05
0.0147199
-1.24512e-05
0.0147183
-1.18772e-05
-1.14015e-05
0.0150598
-0.000102264
0.015041
-9.80937e-05
0.0150231
-9.40223e-05
0.015006
-9.00538e-05
0.0149896
-8.61913e-05
0.0149741
-8.24377e-05
0.0149593
-7.87945e-05
0.0149452
-7.52638e-05
0.0149319
-7.18464e-05
0.0149191
-6.85428e-05
0.014907
-6.53536e-05
0.0148956
-6.22779e-05
0.0148847
-5.93158e-05
0.0148743
-5.64658e-05
0.0148645
-5.37272e-05
0.0148552
-5.10982e-05
0.0148464
-4.85768e-05
0.0148381
-4.61614e-05
0.0148302
-4.38494e-05
0.0148227
-4.16389e-05
0.0148156
-3.95271e-05
0.0148089
-3.75111e-05
0.0148026
-3.55884e-05
0.0147966
-3.3756e-05
0.0147909
-3.20112e-05
0.0147855
-3.0351e-05
0.0147804
-2.8772e-05
0.0147756
-2.72721e-05
0.0147711
-2.58474e-05
0.0147668
-2.44958e-05
0.0147627
-2.32138e-05
0.0147589
-2.19989e-05
0.0147552
-2.08483e-05
0.0147518
-1.97591e-05
0.0147485
-1.87291e-05
0.0147455
-1.77554e-05
0.0147425
-1.68354e-05
0.0147398
-1.59674e-05
0.0147371
-1.51482e-05
0.0147347
-1.43765e-05
0.0147323
-1.36496e-05
0.0147301
-1.29656e-05
0.0147279
-1.23228e-05
0.0147259
-1.1719e-05
0.014724
-1.11531e-05
0.0147222
-1.06237e-05
0.0147204
-1.01349e-05
-9.7296e-06
0.0150762
-8.22296e-05
0.015057
-7.89173e-05
0.0150387
-7.56809e-05
0.0150211
-7.25237e-05
0.0150044
-6.94482e-05
0.0149884
-6.64569e-05
0.0149732
-6.35514e-05
0.0149586
-6.07332e-05
0.0149448
-5.80032e-05
0.0149316
-5.53622e-05
0.0149191
-5.28104e-05
0.0149072
-5.03478e-05
0.0148958
-4.79742e-05
0.014885
-4.56889e-05
0.0148748
-4.34911e-05
0.0148651
-4.13797e-05
0.0148559
-3.93536e-05
0.0148471
-3.74111e-05
0.0148388
-3.55508e-05
0.0148309
-3.37707e-05
0.0148235
-3.2069e-05
0.0148164
-3.04436e-05
0.0148097
-2.88925e-05
0.0148034
-2.74135e-05
0.0147974
-2.60042e-05
0.0147917
-2.46625e-05
0.0147863
-2.3386e-05
0.0147812
-2.21725e-05
0.0147764
-2.10196e-05
0.0147718
-1.9925e-05
0.0147675
-1.88866e-05
0.0147634
-1.7902e-05
0.0147595
-1.69691e-05
0.0147558
-1.60858e-05
0.0147523
-1.525e-05
0.014749
-1.44597e-05
0.0147459
-1.37128e-05
0.014743
-1.30077e-05
0.0147402
-1.23423e-05
0.0147375
-1.1715e-05
0.014735
-1.11241e-05
0.0147326
-1.0568e-05
0.0147303
-1.00451e-05
0.0147281
-9.55401e-06
0.0147261
-9.09341e-06
0.0147241
-8.6626e-06
0.0147222
-8.26468e-06
-7.93483e-06
0.0150892
-6.19096e-05
0.0150697
-5.94395e-05
0.0150511
-5.70246e-05
0.0150332
-5.46673e-05
0.0150162
-5.23694e-05
0.0149998
-5.01329e-05
0.0149842
-4.79595e-05
0.0149694
-4.58498e-05
0.0149552
-4.3805e-05
0.0149416
-4.18255e-05
0.0149287
-3.99119e-05
0.0149164
-3.80642e-05
0.0149047
-3.62819e-05
0.0148936
-3.45649e-05
0.014883
-3.29131e-05
0.014873
-3.13251e-05
0.0148634
-2.98004e-05
0.0148544
-2.8338e-05
0.0148458
-2.69366e-05
0.0148376
-2.5595e-05
0.0148298
-2.43118e-05
0.0148225
-2.30855e-05
0.0148155
-2.19149e-05
0.0148089
-2.07982e-05
0.0148026
-1.97335e-05
0.0147967
-1.87194e-05
0.014791
-1.77545e-05
0.0147857
-1.68365e-05
0.0147806
-1.59643e-05
0.0147758
-1.51356e-05
0.0147713
-1.43495e-05
0.014767
-1.36038e-05
0.0147629
-1.28969e-05
0.0147591
-1.22273e-05
0.0147554
-1.15938e-05
0.014752
-1.09944e-05
0.0147487
-1.0428e-05
0.0147456
-9.89288e-06
0.0147426
-9.38782e-06
0.0147398
-8.91184e-06
0.0147371
-8.46309e-06
0.0147346
-8.04075e-06
0.0147322
-7.64354e-06
0.0147299
-7.27049e-06
0.0147278
-6.92056e-06
0.0147257
-6.5931e-06
0.0147237
-6.29055e-06
-6.04007e-06
0.0150989
-4.13837e-05
0.0150792
-3.97439e-05
0.0150604
-3.81399e-05
0.0150423
-3.65734e-05
0.0150249
-3.50458e-05
0.0150084
-3.35584e-05
0.0149925
-3.21121e-05
0.0149774
-3.07077e-05
0.0149629
-2.93459e-05
0.0149491
-2.80271e-05
0.014936
-2.67515e-05
0.0149234
-2.55192e-05
0.0149115
-2.43303e-05
0.0149001
-2.31845e-05
0.0148893
-2.20815e-05
0.014879
-2.10209e-05
0.0148692
-2.00021e-05
0.0148598
-1.90245e-05
0.014851
-1.80875e-05
0.0148426
-1.719e-05
0.0148346
-1.63314e-05
0.014827
-1.55106e-05
0.0148198
-1.47267e-05
0.014813
-1.39786e-05
0.0148066
-1.32653e-05
0.0148004
-1.25857e-05
0.0147946
-1.19386e-05
0.0147891
-1.13231e-05
0.0147839
-1.07379e-05
0.0147789
-1.0182e-05
0.0147742
-9.65432e-06
0.0147698
-9.1537e-06
0.0147655
-8.67909e-06
0.0147615
-8.22947e-06
0.0147578
-7.80381e-06
0.0147542
-7.40112e-06
0.0147508
-7.02042e-06
0.0147475
-6.6608e-06
0.0147445
-6.32134e-06
0.0147415
-6.00117e-06
0.0147388
-5.69945e-06
0.0147362
-5.41539e-06
0.0147337
-5.14821e-06
0.0147313
-4.89719e-06
0.014729
-4.66168e-06
0.0147269
-4.44133e-06
0.0147248
-4.23782e-06
-4.06927e-06
0.0151054
-2.07247e-05
0.0150856
-1.99068e-05
0.0150665
-1.91066e-05
0.0150483
-1.83248e-05
0.0150308
-1.75624e-05
0.015014
-1.68197e-05
0.014998
-1.60975e-05
0.0149827
-1.53959e-05
0.0149681
-1.47154e-05
0.0149541
-1.40562e-05
0.0149408
-1.34185e-05
0.0149281
-1.28023e-05
0.0149159
-1.22075e-05
0.0149044
-1.16344e-05
0.0148934
-1.10824e-05
0.0148829
-1.05515e-05
0.014873
-1.00416e-05
0.0148635
-9.55192e-06
0.0148545
-9.08245e-06
0.0148459
-8.63305e-06
0.0148378
-8.20268e-06
0.0148301
-7.79131e-06
0.0148228
-7.39822e-06
0.0148158
-7.02323e-06
0.0148092
-6.66561e-06
0.0148029
-6.32463e-06
0.014797
-6.00003e-06
0.0147914
-5.69108e-06
0.014786
-5.39762e-06
0.014781
-5.11851e-06
0.0147762
-4.8536e-06
0.0147716
-4.60215e-06
0.0147673
-4.36394e-06
0.0147632
-4.13813e-06
0.0147593
-3.92444e-06
0.0147557
-3.72206e-06
0.0147522
-3.5307e-06
0.0147489
-3.35011e-06
0.0147457
-3.17963e-06
0.0147427
-3.01863e-06
0.0147399
-2.86698e-06
0.0147372
-2.72408e-06
0.0147346