/*--------------------------------*- C++ -*----------------------------------*\
  =========                 |
  \\      /  F ield         | OpenFOAM: The Open Source CFD Toolbox
   \\    /   O peration     | Website:  https://openfoam.org
    \\  /    A nd           | Version:  7
     \\/     M anipulation  |
\*---------------------------------------------------------------------------*/
FoamFile
{
    version     2.0;
    format      ascii;
    class       volVectorField;
    location    "5";
    object      U;
}
// * * * * * * * * * * * * * * * * * * * * * * * * * * * * * * * * * * * * * //

dimensions      [0 1 -1 0 0 0 0];

internalField   nonuniform List<vector> 
1360
(
(0.950098 -0.00336916 6.97781e-22)
(0.953395 -0.00313681 1.35808e-22)
(0.956467 -0.00291922 -6.19007e-22)
(0.959329 -0.00271579 -1.83926e-22)
(0.961994 -0.0025259 5.1447e-22)
(0.964475 -0.00234889 7.7196e-22)
(0.966785 -0.00218411 -1.02974e-21)
(0.968936 -0.00203087 9.35729e-23)
(0.970937 -0.00188851 5.36676e-22)
(0.972801 -0.00175637 -2.61488e-22)
(0.974536 -0.0016338 3.60629e-22)
(0.976153 -0.00152017 -6.37855e-22)
(0.977658 -0.00141487 -7.32298e-23)
(0.979061 -0.00131733 5.08997e-22)
(0.980369 -0.00122701 1.27252e-22)
(0.981589 -0.00114336 -1.77815e-22)
(0.982727 -0.00106591 -1.2771e-22)
(0.98379 -0.0009942 1.7026e-22)
(0.984782 -0.000927788 -7.12336e-23)
(0.985709 -0.000866253 -6.60096e-23)
(0.986575 -0.000809058 1.40735e-22)
(0.987385 -0.000756161 -1.45351e-22)
(0.988144 -0.000707154 8.30662e-23)
(0.988854 -0.000661679 -5.99595e-23)
(0.989519 -0.000619462 -4.92434e-23)
(0.990143 -0.000580258 8.47093e-23)
(0.990728 -0.000543835 9.15797e-23)
(0.991277 -0.000509979 -6.35874e-23)
(0.991792 -0.00047849 -4.75525e-23)
(0.992276 -0.000449187 6.37603e-23)
(0.992731 -0.000421903 2.33571e-23)
(0.993159 -0.000396485 -4.75853e-23)
(0.993562 -0.000372793 2.04607e-23)
(0.99394 -0.000350701 -9.81833e-23)
(0.994297 -0.000330089 9.01615e-23)
(0.994634 -0.000310851 -1.161e-23)
(0.994951 -0.000292888 -2.6837e-23)
(0.99525 -0.00027611 -7.92412e-24)
(0.995532 -0.000260434 1.13397e-23)
(0.995798 -0.000245784 1.70625e-23)
(0.99605 -0.000232091 -2.39634e-23)
(0.996288 -0.00021929 1.9809e-23)
(0.996514 -0.000207324 -1.26301e-23)
(0.996727 -0.000196137 -2.62508e-24)
(0.996929 -0.000185679 6.62482e-24)
(0.99712 -0.000175906 -1.0091e-24)
(0.997302 -0.000166773 -1.90029e-25)
(0.997474 -0.000158247 8.87036e-25)
(0.997636 -0.000150307 -3.2483e-26)
(0.997796 -0.000143017 -2.04494e-25)
(0.998001 -0.0001371 1.27078e-25)
(0.951508 -0.00999043 2.52969e-21)
(0.954672 -0.00930505 1.80167e-21)
(0.957624 -0.00866285 -3.71276e-21)
(0.960377 -0.00806214 1.31513e-21)
(0.962944 -0.00750113 -1.41627e-21)
(0.965337 -0.00697792 3.93235e-21)
(0.967568 -0.00649059 -4.78143e-21)
(0.969647 -0.00603718 -4.81703e-23)
(0.971584 -0.00561576 1.37072e-21)
(0.97339 -0.00522439 6.99318e-22)
(0.975073 -0.00486119 -1.77582e-23)
(0.976642 -0.00452433 3.46098e-22)
(0.978105 -0.00421204 -8.83211e-22)
(0.979471 -0.00392264 4.81214e-22)
(0.980744 -0.0036545 -2.46834e-22)
(0.981933 -0.00340611 1.5897e-22)
(0.983043 -0.00317603 -6.00682e-23)
(0.98408 -0.00296289 7.05587e-23)
(0.98505 -0.00276542 5.57177e-22)
(0.985956 -0.00258242 -4.426e-23)
(0.986804 -0.00241265 -3.40242e-22)
(0.987597 -0.00225497 5.76566e-22)
(0.98834 -0.002109 -5.52861e-22)
(0.989036 -0.00197359 3.41598e-22)
(0.989688 -0.00184789 -2.10883e-22)
(0.9903 -0.00173112 -1.28187e-22)
(0.990874 -0.00162259 -1.37025e-22)
(0.991413 -0.00152169 9.57114e-23)
(0.991919 -0.00142782 4.8044e-22)
(0.992395 -0.00134045 -4.6474e-22)
(0.992842 -0.00125909 2.05736e-22)
(0.993262 -0.00118328 3.19278e-23)
(0.993658 -0.00111261 -2.68976e-23)
(0.994031 -0.0010467 -4.84211e-23)
(0.994382 -0.000985206 5.82023e-23)
(0.994713 -0.000927802 3.26678e-23)
(0.995025 -0.000874199 -1.7912e-22)
(0.995319 -0.000824128 6.57481e-23)
(0.995597 -0.000777343 5.20958e-24)
(0.99586 -0.000733619 7.34738e-23)
(0.996108 -0.000692749 -5.96097e-23)
(0.996342 -0.000654542 -1.60193e-23)
(0.996564 -0.000618824 8.80036e-24)
(0.996774 -0.000585432 7.0891e-24)
(0.996973 -0.000554218 -1.20388e-23)
(0.997162 -0.000525045 7.00771e-25)
(0.997341 -0.000497788 4.96235e-25)
(0.997511 -0.00047234 2.6783e-24)
(0.99767 -0.000448643 -1.43244e-24)
(0.997828 -0.000426883 4.09975e-25)
(0.99803 -0.000409211 -8.53515e-25)
(0.957104 -0.0151725 -3.57148e-21)
(0.95983 -0.0141356 3.04985e-21)
(0.96238 -0.0131647 1.52947e-21)
(0.964763 -0.0122571 -1.02374e-21)
(0.966989 -0.0114098 7.99979e-22)
(0.96907 -0.0106198 9.79079e-22)
(0.971013 -0.00988417 -1.22379e-21)
(0.972829 -0.00919974 1.9783e-21)
(0.974524 -0.00856353 -1.12897e-22)
(0.976109 -0.00797258 -1.61107e-21)
(0.977588 -0.007424 2.84947e-22)
(0.978971 -0.006915 1.82233e-22)
(0.980264 -0.00644289 1.91683e-21)
(0.981472 -0.00600512 -1.28022e-21)
(0.982602 -0.00559926 -3.57212e-22)
(0.983658 -0.00522301 -8.34162e-23)
(0.984647 -0.00487422 6.92016e-22)
(0.985572 -0.00455086 -6.13483e-22)
(0.986439 -0.00425103 1.45237e-22)
(0.987251 -0.003973 -6.73946e-22)
(0.988011 -0.00371488 2.16104e-22)
(0.988723 -0.00347494 6.0687e-22)
(0.989391 -0.00325208 -4.61953e-22)
(0.990019 -0.00304554 2.21997e-22)
(0.990608 -0.00285358 6.45742e-22)
(0.991161 -0.00267508 -3.25647e-22)
(0.99168 -0.00250908 7.25623e-23)
(0.992168 -0.0023546 -2.25363e-22)
(0.992627 -0.00221074 4.45238e-22)
(0.993059 -0.00207673 -5.23097e-22)
(0.993466 -0.00195183 1.16423e-22)
(0.993849 -0.00183537 1.10423e-22)
(0.994209 -0.00172673 -1.68745e-22)
(0.994549 -0.00162534 3.38408e-22)
(0.994869 -0.00153068 -3.74392e-22)
(0.995172 -0.00144228 2.54413e-22)
(0.995457 -0.00135969 -4.21471e-23)
(0.995726 -0.00128251 -1.53721e-23)
(0.995981 -0.00121038 6.08682e-23)
(0.996221 -0.00114295 -2.90509e-23)
(0.996449 -0.00107991 3.39848e-23)
(0.996664 -0.00102098 -5.52686e-23)
(0.996868 -0.00096588 -3.8524e-23)
(0.997061 -0.000914379 5.74316e-23)
(0.997244 -0.000866248 -2.44943e-23)
(0.997418 -0.00082128 1.58025e-23)
(0.997583 -0.000779299 -4.80086e-24)
(0.997738 -0.000740208 -1.58568e-24)
(0.997892 -0.000704306 -6.94403e-25)
(0.998088 -0.000675117 1.79452e-24)
(0.960473 -0.0205859 4.07671e-21)
(0.962895 -0.0191986 -5.22362e-22)
(0.965168 -0.0178978 4.02935e-22)
(0.9673 -0.01668 -2.05983e-21)
(0.969301 -0.0155415 1.60292e-22)
(0.971176 -0.0144786 -5.92543e-21)
(0.972935 -0.0134874 6.26093e-21)
(0.974583 -0.012564 1.71783e-21)
(0.976128 -0.0117045 -4.24809e-21)
(0.977575 -0.0109052 2.18295e-21)
(0.978932 -0.0101622 -1.95927e-21)
(0.980203 -0.00947196 -1.09416e-21)
(0.981394 -0.00883101 2.0291e-21)
(0.982511 -0.00823599 8.27202e-22)
(0.983558 -0.00768372 -8.46661e-22)
(0.98454 -0.0071712 -2.17845e-21)
(0.98546 -0.00669557 1.34729e-21)
(0.986323 -0.00625417 2.24736e-22)
(0.987133 -0.0058445 -2.89231e-22)
(0.987894 -0.00546425 3.63892e-22)
(0.988608 -0.00511133 -1.29783e-22)
(0.989279 -0.00478322 1.12781e-22)
(0.989907 -0.00447848 -7.67262e-23)
(0.990498 -0.00419476 4.75487e-23)
(0.991054 -0.00393087 -5.11942e-22)
(0.991577 -0.00368542 4.62867e-22)
(0.992068 -0.0034574 -2.91709e-22)
(0.992531 -0.00324506 1.99741e-22)
(0.992966 -0.00304721 3.0857e-23)
(0.993376 -0.0028628 -5.09973e-23)
(0.993762 -0.00269088 -2.73609e-22)
(0.994126 -0.00253053 1.29159e-22)
(0.994469 -0.00238089 1.96927e-22)
(0.994793 -0.0022412 1.6314e-22)
(0.995098 -0.00211075 -7.36597e-24)
(0.995386 -0.00198889 3.18763e-24)
(0.995658 -0.00187503 -5.05986e-23)
(0.995915 -0.00176861 -1.17174e-22)
(0.996157 -0.00166913 -5.30634e-23)
(0.996387 -0.00157613 -5.14963e-23)
(0.996604 -0.00148919 9.74015e-23)
(0.99681 -0.0014079 -1.75153e-23)
(0.997005 -0.00133191 1.33604e-23)
(0.99719 -0.00126088 3.37392e-23)
(0.997365 -0.0011945 -2.57554e-23)
(0.997531 -0.00113249 1.89199e-23)
(0.997689 -0.00107461 -2.28238e-24)
(0.997838 -0.00102072 8.90182e-25)
(0.997984 -0.000971213 -1.43679e-24)
(0.998173 -0.000930894 1.05155e-24)
(0.964509 -0.0254544 -5.23481e-22)
(0.966577 -0.0237684 1.81403e-21)
(0.968529 -0.0221846 -3.43376e-21)
(0.970371 -0.0206993 5.98431e-21)
(0.972106 -0.0193083 -5.25155e-21)
(0.973742 -0.0180074 2.10866e-21)
(0.975282 -0.0167923 2.75383e-21)
(0.976732 -0.0156584 -3.68969e-21)
(0.978098 -0.0146013 1.62578e-21)
(0.979383 -0.0136165 2.33092e-22)
(0.980592 -0.0126998 1.14457e-21)
(0.98173 -0.011847 -3.64884e-21)
(0.9828 -0.0110538 8.37113e-22)
(0.983806 -0.0103165 1.07698e-21)
(0.984753 -0.00963119 -6.48314e-22)
(0.985643 -0.00899437 1.48048e-21)
(0.986481 -0.00840266 -8.74807e-23)
(0.987268 -0.00785285 -1.27949e-21)
(0.988009 -0.00734194 -9.18003e-22)
(0.988706 -0.00686713 8.03232e-22)
(0.989362 -0.00642582 5.83212e-22)
(0.989979 -0.00601591 -4.6457e-22)
(0.990561 -0.00563466 5.68556e-22)
(0.991108 -0.00527951 -9.96232e-22)
(0.991623 -0.00494919 1.32746e-22)
(0.992107 -0.00464186 6.22449e-22)
(0.992563 -0.00435519 -9.54956e-22)
(0.992993 -0.00408808 6.22707e-22)
(0.993399 -0.0038392 2.61471e-22)
(0.993781 -0.00360717 -7.16139e-22)
(0.994141 -0.00339074 2.4072e-22)
(0.994481 -0.00318895 4.5772e-22)
(0.994802 -0.00300058 -4.23271e-22)
(0.995104 -0.00282465 3.96704e-22)
(0.99539 -0.00266031 -3.95254e-22)
(0.99566 -0.00250675 8.22328e-23)
(0.995915 -0.00236324 -1.69778e-22)
(0.996156 -0.00222909 1.12657e-22)
(0.996384 -0.00210368 1.17215e-22)
(0.9966 -0.00198642 -1.69181e-22)
(0.996804 -0.00187679 4.50538e-23)
(0.996997 -0.0017743 8.19828e-23)
(0.99718 -0.00167849 -1.11199e-22)
(0.997354 -0.00158894 1.91027e-23)
(0.997519 -0.00150526 1.93973e-23)
(0.997676 -0.00142711 -3.33566e-25)
(0.997824 -0.00135417 7.93647e-25)
(0.997965 -0.00128626 -1.05656e-23)
(0.998103 -0.00122387 1.95039e-24)
(0.998281 -0.00117295 -8.11562e-25)
(0.968936 -0.0297295 -6.89322e-21)
(0.970634 -0.0277987 -1.92228e-21)
(0.972247 -0.0259813 4.39924e-21)
(0.973779 -0.0242733 -3.37226e-21)
(0.975233 -0.0226707 -2.01103e-21)
(0.976611 -0.0211689 5.76219e-21)
(0.977918 -0.0197633 3.66485e-22)
(0.979155 -0.0184493 9.50613e-22)
(0.980326 -0.0172221 -6.31455e-21)
(0.981434 -0.0160768 2.74194e-21)
(0.982483 -0.0150088 -6.31905e-22)
(0.983473 -0.0140135 4.55629e-22)
(0.98441 -0.0130863 1.79309e-21)
(0.985294 -0.0122231 -2.09341e-21)
(0.986129 -0.0114195 5.66477e-22)
(0.986918 -0.0106717 -3.88853e-22)
(0.987662 -0.00997595 -1.07502e-21)
(0.988365 -0.00932859 9.68407e-23)
(0.989028 -0.00872628 2.13953e-21)
(0.989653 -0.00816584 -9.75016e-23)
(0.990243 -0.00764432 -9.82666e-22)
(0.9908 -0.00715894 -1.11689e-21)
(0.991325 -0.00670706 3.73547e-22)
(0.991821 -0.00628677 2.02883e-21)
(0.992288 -0.00589533 7.50541e-24)
(0.992729 -0.00553052 -1.37231e-21)
(0.993146 -0.00519006 -3.59223e-22)
(0.993539 -0.0048728 7.74072e-22)
(0.993909 -0.004577 -3.18765e-22)
(0.994259 -0.00430108 -5.34264e-23)
(0.994589 -0.00404362 -4.3686e-22)
(0.9949 -0.00380308 1.11983e-22)
(0.995195 -0.00357844 4.04969e-22)
(0.995473 -0.00336865 -1.20819e-22)
(0.995736 -0.00317264 6.53278e-23)
(0.995984 -0.00298947 1.2331e-22)
(0.99622 -0.00281826 -2.04608e-22)
(0.996442 -0.0026582 7.90223e-23)
(0.996652 -0.00250855 -5.83709e-23)
(0.996851 -0.00236863 -4.50333e-23)
(0.99704 -0.00223781 -1.14895e-22)
(0.997219 -0.0021155 1.39226e-22)
(0.997389 -0.00200118 -3.23447e-23)
(0.997549 -0.00189434 -3.9408e-23)
(0.997702 -0.00179453 1.78518e-23)
(0.997847 -0.00170132 -9.86357e-24)
(0.997985 -0.00161436 1.72974e-24)
(0.998116 -0.00153342 9.86166e-24)
(0.998244 -0.00145903 3.0206e-26)
(0.99841 -0.00139815 -3.18495e-25)
(0.974842 -0.0312952 -2.49429e-21)
(0.97612 -0.02929 -2.025e-22)
(0.977345 -0.0274014 4.94789e-21)
(0.978517 -0.0256255 -2.95215e-21)
(0.979638 -0.0239578 1.06448e-21)
(0.980709 -0.0223939 6.06412e-21)
(0.98173 -0.0209289 -3.40316e-21)
(0.982704 -0.019558 -4.07245e-21)
(0.983631 -0.0182762 4.10429e-21)
(0.984514 -0.0170787 -3.9216e-21)
(0.985353 -0.0159608 1.69114e-21)
(0.986151 -0.0149176 2.80027e-21)
(0.986908 -0.0139447 -4.61274e-23)
(0.987627 -0.0130377 -2.18501e-21)
(0.988309 -0.0121924 2.292e-21)
(0.988955 -0.0114047 -8.63733e-22)
(0.989567 -0.0106708 -1.04549e-21)
(0.990147 -0.00998715 -1.02033e-22)
(0.990696 -0.00935024 -8.24667e-22)
(0.991215 -0.00875686 6.4832e-22)
(0.991707 -0.00820401 1.60235e-22)
(0.992172 -0.00768884 4.41348e-22)
(0.992612 -0.00720873 -1.15166e-22)
(0.993028 -0.00676112 1.10926e-21)
(0.993421 -0.00634367 -9.92677e-22)
(0.993793 -0.00595475 -7.01599e-22)
(0.994144 -0.00559188 1.6909e-21)
(0.994477 -0.0052532 -8.37631e-22)
(0.994791 -0.00493706 -9.546e-23)
(0.995088 -0.00464182 2.90716e-23)
(0.995369 -0.00436589 3.96401e-23)
(0.995634 -0.00410816 -9.44694e-23)
(0.995886 -0.00386736 -5.28656e-24)
(0.996123 -0.00364231 -1.22841e-22)
(0.996348 -0.00343194 3.40313e-22)
(0.996561 -0.00323526 -1.83709e-22)
(0.996762 -0.00305136 -2.77677e-22)
(0.996953 -0.0028794 1.29792e-22)
(0.997134 -0.00271862 5.93581e-23)
(0.997305 -0.00256829 -9.56583e-23)
(0.997468 -0.00242775 7.79388e-23)
(0.997622 -0.00229639 -2.22731e-23)
(0.997768 -0.00217366 -4.26307e-23)
(0.997908 -0.00205902 8.31538e-23)
(0.99804 -0.00195201 -7.33797e-24)
(0.998166 -0.0018522 -1.12455e-23)
(0.998285 -0.00175934 3.90567e-24)
(0.998402 -0.00167399 -1.36347e-24)
(0.998553 -0.00160389 9.92088e-25)
(0.97903 -0.0345703 -4.58205e-21)
(0.979992 -0.0323968 7.94261e-21)
(0.980925 -0.030345 -5.09308e-21)
(0.981829 -0.0284113 5.58533e-21)
(0.982702 -0.0265914 -8.3462e-21)
(0.983545 -0.0248812 2.2168e-21)
(0.984357 -0.0232758 5.91748e-21)
(0.985138 -0.0217707 -7.63898e-21)
(0.985888 -0.0203608 1.78883e-21)
(0.986608 -0.0190413 -1.4173e-21)
(0.987297 -0.0178073 -1.75283e-22)
(0.987957 -0.0166541 2.20702e-21)
(0.988587 -0.0155769 7.1065e-22)
(0.989189 -0.0145712 -1.30148e-21)
(0.989762 -0.0136327 -9.14478e-22)
(0.990309 -0.012757 1.9316e-21)
(0.990829 -0.0119402 -8.64404e-22)
(0.991324 -0.0111785 6.26195e-22)
(0.991795 -0.0104681 -4.15685e-22)
(0.992242 -0.0098057 3.23696e-22)
(0.992666 -0.00918801 -3.16427e-22)
(0.993069 -0.00861199 -2.69428e-22)
(0.993451 -0.00807476 -7.76618e-22)
(0.993813 -0.00757364 1.18895e-21)
(0.994157 -0.00710615 -4.78054e-22)
(0.994482 -0.00666997 2.44277e-22)
(0.994791 -0.00626287 1.04354e-22)
(0.995083 -0.00588281 -8.96992e-22)
(0.995359 -0.0055279 8.63424e-22)
(0.995621 -0.00519641 -5.77698e-23)
(0.99587 -0.00488691 2.23291e-22)
(0.996105 -0.00459771 2.75749e-23)
(0.996327 -0.00432742 -3.39325e-22)
(0.996538 -0.00407476 -1.08457e-22)
(0.996737 -0.00383857 2.13263e-22)
(0.996927 -0.00361774 1.19251e-22)
(0.997106 -0.00341128 -9.85341e-23)
(0.997276 -0.00321825 3.91316e-23)
(0.997437 -0.00303778 2.39276e-23)
(0.99759 -0.00286908 -3.10675e-24)
(0.997735 -0.00271141 1.50708e-23)
(0.997873 -0.00256408 -3.03839e-23)
(0.998004 -0.00242648 -3.72613e-23)
(0.998128 -0.00229802 6.06514e-23)
(0.998247 -0.00217817 -2.17132e-23)
(0.998359 -0.00206646 -4.32108e-24)
(0.998466 -0.0019626 1.2418e-23)
(0.998571 -0.0018672 1.12095e-25)
(0.998707 -0.00178852 2.30943e-26)
(0.984071 -0.0345415 0)
(0.984716 -0.0324066 0)
(0.985351 -0.0303896 0)
(0.985977 -0.0284868 -7.09038e-29)
(0.986589 -0.0266943 3.27378e-29)
(0.987188 -0.0250078 -3.14105e-29)
(0.987771 -0.0234229 6.26348e-29)
(0.988339 -0.0219351 0)
(0.988889 -0.0205396 0)
(0.989421 -0.0192317 0)
(0.989935 -0.018007 6.02243e-13)
(0.990431 -0.0168606 5.73337e-13)
(0.990908 -0.0157884 0)
(0.991366 -0.0147857 0)
(0.991805 -0.0138486 0)
(0.992226 -0.012973 0)
(0.992629 -0.0121551 0)
(0.993014 -0.0113911 0)
(0.993382 -0.0106776 0)
(0.993733 -0.0100114 0)
(0.994067 -0.00938924 -3.05713e-29)
(0.994386 -0.00880825 1.38609e-29)
(0.994689 -0.00826568 0)
(0.994977 -0.00775893 0)
(0.995251 -0.00728559 0)
(0.995511 -0.0068434 0)
(0.995759 -0.00643022 0)
(0.995993 -0.0060441 -1.9957e-29)
(0.996216 -0.00568321 8.97641e-30)
(0.996428 -0.00534587 -1.74673e-29)
(0.996629 -0.00503046 7.83005e-30)
(0.996819 -0.00473552 0)
(0.997 -0.0044597 0)
(0.997171 -0.00420173 0)
(0.997334 -0.00396046 0)
(0.997488 -0.00373479 0)
(0.997635 -0.00352373 0)
(0.997774 -0.00332635 -9.2977e-30)
(0.997906 -0.00314179 4.05053e-30)
(0.998031 -0.00296928 0)
(0.99815 -0.00280807 0)
(0.998264 -0.00265749 -5.97615e-30)
(0.998372 -0.0025169 2.49635e-30)
(0.998475 -0.00238575 0)
(0.998572 -0.00226352 -3.6787e-30)
(0.998665 -0.0021499 1.40976e-30)
(0.998757 -0.00204554 -2.25994e-30)
(0.998875 -0.00195937 7.88782e-31)
(0.988259 -0.0352499 0)
(0.988616 -0.0331423 0)
(0.988984 -0.0311457 0)
(0.989361 -0.0292572 7.10015e-29)
(0.989742 -0.0274733 -3.27828e-29)
(0.990126 -0.0257904 9.87466e-29)
(0.990511 -0.0242045 -1.30014e-28)
(0.990893 -0.0227117 0)
(0.991271 -0.0213077 0)
(0.991644 -0.0199883 0)
(0.99201 -0.0187494 -6.0306e-13)
(0.992368 -0.0175868 -5.74112e-13)
(0.992718 -0.0164965 0)
(0.993057 -0.0154744 0)
(0.993387 -0.0145167 0)
(0.993706 -0.0136196 0)
(0.994013 -0.0127796 0)
(0.99431 -0.0119932 4.06792e-29)
(0.994595 -0.0112572 -4.06792e-29)
(0.994869 -0.0105684 0)
(0.995132 -0.00992389 3.06108e-29)
(0.995384 -0.00932079 -1.38787e-29)
(0.995625 -0.00875647 0)
(0.995855 -0.00822845 0)
(0.996075 -0.00773435 0)
(0.996284 -0.00727199 0)
(0.996484 -0.00683928 0)
(0.996675 -0.00643429 1.99815e-29)
(0.996856 -0.00605521 -8.98736e-30)
(0.997029 -0.00570035 1.74884e-29)
(0.997193 -0.00536815 -7.83944e-30)
(0.997349 -0.00505713 0)
(0.997498 -0.00476593 0)
(0.997639 -0.00449329 0)
(0.997773 -0.00423802 0)
(0.997901 -0.00399904 0)
(0.998022 -0.00377533 0)
(0.998137 -0.00356594 9.30813e-30)
(0.998247 -0.00337001 -4.05502e-30)
(0.998351 -0.00318672 0)
(0.99845 -0.00301533 0)
(0.998545 -0.00285513 5.98256e-30)
(0.998635 -0.0027055 -2.49899e-30)
(0.998721 -0.00256582 0)
(0.998802 -0.0024356 3.68251e-30)
(0.99888 -0.00231448 -1.4112e-30)
(0.998956 -0.00220323 2.26221e-30)
(0.999056 -0.00211147 -7.89572e-31)
(0.992357 -0.035694 0)
(0.992447 -0.0336286 0)
(0.992566 -0.0316666 8.83192e-31)
(0.992709 -0.0298054 0)
(0.992873 -0.0280424 -8.63392e-31)
(0.993053 -0.0263745 5.24169e-29)
(0.993247 -0.0247984 -5.15691e-29)
(0.993452 -0.0233106 -8.08305e-31)
(0.993665 -0.0219075 0)
(0.993883 -0.0205855 0)
(0.994106 -0.0193409 -3.69018e-30)
(0.994329 -0.0181699 0)
(0.994554 -0.0170689 1.07457e-29)
(0.994776 -0.0160343 7.68892e-30)
(0.994997 -0.0150626 0)
(0.995214 -0.0141503 3.02343e-30)
(0.995427 -0.0132941 0)
(0.995635 -0.0124909 0)
(0.995838 -0.0117376 0)
(0.996035 -0.0110312 4.99528e-31)
(0.996225 -0.0103689 0)
(0.99641 -0.00974811 0)
(0.996588 -0.00916621 0)
(0.996759 -0.00862083 0)
(0.996923 -0.00810969 -3.82932e-31)
(0.997081 -0.00763067 0)
(0.997233 -0.00718175 0)
(0.997378 -0.00676102 -1.60929e-30)
(0.997517 -0.00636672 -1.32483e-13)
(0.99765 -0.00599718 -1.24273e-13)
(0.997776 -0.00565085 0)
(0.997897 -0.00532627 -2.47394e-31)
(0.998013 -0.00502208 0)
(0.998123 -0.00473702 0)
(0.998228 -0.0044699 0)
(0.998328 -0.00421963 1.82942e-31)
(0.998423 -0.00398517 0)
(0.998514 -0.00376559 -6.74487e-14)
(0.9986 -0.00355999 -6.126e-14)
(0.998683 -0.00336754 0)
(0.998761 -0.00318749 -1.12322e-31)
(0.998836 -0.00301912 0)
(0.998908 -0.00286178 0)
(0.998976 -0.00271486 7.36568e-32)
(0.999041 -0.00257782 0)
(0.999102 -0.00245032 0)
(0.999163 -0.00233317 0)
(0.999243 -0.00223653 0)
(0.996336 -0.0355799 0)
(0.996185 -0.0335913 0)
(0.996076 -0.0316964 -8.83192e-31)
(0.996005 -0.0298936 0)
(0.995967 -0.0281808 8.63392e-31)
(0.995957 -0.0265557 -8.4777e-31)
(0.995972 -0.0250155 0)
(0.996009 -0.0235575 8.08305e-31)
(0.996064 -0.0221786 0)
(0.996135 -0.0208758 0)
(0.996218 -0.0196458 3.69018e-30)
(0.996312 -0.0184855 0)
(0.996414 -0.0173917 -1.07457e-29)
(0.996522 -0.0163613 -7.68892e-30)
(0.996635 -0.0153911 0)
(0.996752 -0.0144782 -3.02343e-30)
(0.996871 -0.0136194 0)
(0.996991 -0.0128119 0)
(0.997111 -0.012053 0)
(0.99723 -0.0113399 -4.99528e-31)
(0.997348 -0.01067 0)
(0.997465 -0.0100409 0)
(0.997579 -0.00945016 0)
(0.99769 -0.00889556 0)
(0.997799 -0.00837496 3.82932e-31)
(0.997904 -0.00788632 0)
(0.998007 -0.00742771 0)
(0.998105 -0.00699733 1.60929e-30)
(0.998201 -0.00659346 1.32483e-13)
(0.998292 -0.00621449 1.24273e-13)
(0.998381 -0.00585892 0)
(0.998465 -0.00552532 2.47394e-31)
(0.998547 -0.00521237 0)
(0.998625 -0.00491882 0)
(0.998699 -0.00464351 0)
(0.998771 -0.00438535 -1.82942e-31)
(0.998839 -0.00414333 0)
(0.998904 -0.00391649 6.74487e-14)
(0.998967 -0.00370396 6.126e-14)
(0.999027 -0.00350492 0)
(0.999084 -0.00331858 1.12322e-31)
(0.999138 -0.00314425 0)
(0.99919 -0.00298125 0)
(0.99924 -0.00282898 -7.36568e-32)
(0.999288 -0.00268689 0)
(0.999333 -0.00255464 0)
(0.999378 -0.00243306 0)
(0.999436 -0.00233275 0)
(1.00017 -0.0350029 0)
(0.999801 -0.0331145 0)
(0.999488 -0.0313098 0)
(0.999223 -0.0295876 0)
(0.999001 -0.0279466 0)
(0.998817 -0.0263849 0)
(0.998667 -0.0249005 0)
(0.998547 -0.0234912 0)
(0.998454 -0.0221546 0)
(0.998384 -0.0208882 0)
(0.998335 -0.0196893 0)
(0.998304 -0.0185553 0)
(0.998288 -0.0174835 0)
(0.998286 -0.0164713 0)
(0.998294 -0.0155158 0)
(0.998312 -0.0146146 0)
(0.998339 -0.0137649 0)
(0.998371 -0.0129642 -1.18162e-29)
(0.99841 -0.01221 1.18162e-29)
(0.998452 -0.0114999 0)
(0.998498 -0.0108316 0)
(0.998546 -0.0102027 0)
(0.998596 -0.00961116 0)
(0.998647 -0.00905486 0)
(0.998699 -0.0085318 0)
(0.998751 -0.00804011 0)
(0.998803 -0.00757796 0)
(0.998854 -0.00714367 0)
(0.998905 -0.00673559 0)
(0.998955 -0.00635222 0)
(0.999004 -0.0059921 0)
(0.999052 -0.00565387 0)
(0.999098 -0.00533625 0)
(0.999143 -0.00503804 0)
(0.999186 -0.00475812 0)
(0.999228 -0.00449542 0)
(0.999269 -0.00424895 0)
(0.999308 -0.00401778 0)
(0.999346 -0.00380104 0)
(0.999382 -0.00359793 0)
(0.999417 -0.00340767 0)
(0.999451 -0.00322958 0)
(0.999483 -0.00306297 0)
(0.999514 -0.00290726 0)
(0.999544 -0.00276189 0)
(0.999572 -0.00262652 0)
(0.9996 -0.00250202 0)
(0.999637 -0.00239925 0)
(1.00381 -0.0340266 0)
(1.00326 -0.0322548 0)
(1.00277 -0.0305565 0)
(1.00233 -0.0289311 0)
(1.00194 -0.0273777 0)
(1.0016 -0.0258952 -8.47203e-30)
(1.0013 -0.024482 8.47203e-30)
(1.00104 -0.0231364 0)
(1.00081 -0.0218567 0)
(1.00061 -0.0206408 0)
(1.00043 -0.0194866 0)
(1.00029 -0.0183921 0)
(1.00016 -0.017355 0)
(1.00005 -0.016373 0)
(0.999957 -0.0154439 0)
(0.99988 -0.0145654 0)
(0.999817 -0.0137353 0)
(0.999764 -0.0129513 -1.83135e-30)
(0.999722 -0.0122114 1.83135e-30)
(0.999688 -0.0115133 0)
(0.999662 -0.0108549 0)
(0.999643 -0.0102343 0)
(0.999629 -0.00964953 0)
(0.99962 -0.00909865 0)
(0.999615 -0.00857986 0)
(0.999614 -0.00809143 0)
(0.999615 -0.00763169 0)
(0.999619 -0.00719906 0)
(0.999625 -0.00679204 0)
(0.999633 -0.00640918 0)
(0.999642 -0.00604914 0)
(0.999652 -0.00571062 0)
(0.999663 -0.00539241 0)
(0.999674 -0.00509336 0)
(0.999686 -0.00481239 0)
(0.999698 -0.0045485 0)
(0.99971 -0.00430071 0)
(0.999723 -0.00406814 0)
(0.999735 -0.00384995 0)
(0.999747 -0.00364533 0)
(0.999759 -0.00345356 0)
(0.999771 -0.00327394 0)
(0.999783 -0.00310583 0)
(0.999795 -0.00294861 0)
(0.999806 -0.00280177 0)
(0.999817 -0.00266497 0)
(0.999828 -0.0025391 0)
(0.999842 -0.00243514 0)
(1.00723 -0.0327075 0)
(1.00652 -0.0310626 0)
(1.00588 -0.0294814 0)
(1.00529 -0.0279639 0)
(1.00476 -0.0265095 1.76898e-29)
(1.00428 -0.0251175 7.12576e-30)
(1.00385 -0.023787 -2.98043e-30)
(1.00345 -0.0225167 -1.33724e-29)
(1.0031 -0.0213053 0)
(1.00278 -0.0201514 0)
(1.00249 -0.0190531 0)
(1.00223 -0.018009 0)
(1.002 -0.0170172 0)
(1.00179 -0.0160758 0)
(1.0016 -0.015183 0)
(1.00143 -0.014337 0)
(1.00128 -0.0135358 0)
(1.00115 -0.0127776 0)
(1.00103 -0.0120605 0)
(1.00092 -0.0113826 0)
(1.00083 -0.0107421 0)
(1.00074 -0.0101372 0)
(1.00067 -0.00956625 7.52321e-14)
(1.0006 -0.00902752 6.8935e-14)
(1.00054 -0.00851938 6.31712e-14)
(1.00048 -0.00804026 5.789e-14)
(1.00043 -0.00758865 -2.44351e-30)
(1.00039 -0.00716311 0)
(1.00035 -0.00676223 0)
(1.00032 -0.00638471 0)
(1.00029 -0.00602928 0)
(1.00026 -0.00569474 0)
(1.00023 -0.00537996 0)
(1.00021 -0.00508385 0)
(1.00019 -0.00480541 0)
(1.00017 -0.00454366 0)
(1.00016 -0.0042977 0)
(1.00014 -0.00406668 0)
(1.00013 -0.00384978 0)
(1.00012 -0.00364626 0)
(1.00011 -0.0034554 6.18785e-31)
(1.0001 -0.00327652 0)
(1.00009 -0.00310902 0)
(1.00008 -0.00295229 -3.97422e-31)
(1.00007 -0.00280584 4.54311e-31)
(1.00007 -0.00266933 -2.62873e-31)
(1.00006 -0.00254366 0)
(1.00005 -0.00243982 0)
(1.01041 -0.0311006 0)
(1.00957 -0.029588 0)
(1.0088 -0.02813 0)
(1.00808 -0.0267271 0)
(1.00743 -0.025379 -1.76898e-29)
(1.00682 -0.0240854 1.61103e-29)
(1.00627 -0.0228457 -2.02557e-29)
(1.00576 -0.0216591 1.33724e-29)
(1.00529 -0.0205246 0)
(1.00486 -0.0194412 0)
(1.00447 -0.0184076 0)
(1.00411 -0.0174226 0)
(1.00378 -0.0164848 0)
(1.00348 -0.0155926 0)
(1.0032 -0.0147446 0)
(1.00295 -0.0139393 0)
(1.00272 -0.0131751 0)
(1.00251 -0.0124504 1.52327e-29)
(1.00232 -0.0117636 -1.52327e-29)
(1.00214 -0.0111132 0)
(1.00198 -0.0104976 0)
(1.00183 -0.00991526 0)
(1.00169 -0.00936462 -7.52321e-14)
(1.00157 -0.00884424 -6.8935e-14)
(1.00145 -0.00835267 -6.31712e-14)
(1.00135 -0.00788851 -5.789e-14)
(1.00125 -0.0074504 2.44351e-30)
(1.00116 -0.00703703 0)
(1.00108 -0.00664715 0)
(1.001 -0.00627956 0)
(1.00093 -0.00593309 0)
(1.00087 -0.00560665 0)
(1.00081 -0.00529918 0)
(1.00075 -0.00500969 0)
(1.0007 -0.00473724 0)
(1.00065 -0.00448091 0)
(1.00061 -0.00423985 0)
(1.00056 -0.00401327 0)
(1.00053 -0.00380041 0)
(1.00049 -0.00360054 0)
(1.00046 -0.00341298 -6.18785e-31)
(1.00042 -0.00323711 0)
(1.00039 -0.00307233 0)
(1.00037 -0.00291808 3.97422e-31)
(1.00034 -0.00277385 -4.54311e-31)
(1.00032 -0.00263936 2.62873e-31)
(1.00029 -0.00251549 0)
(1.00026 -0.00241309 0)
(1.01333 -0.0292543 0)
(1.01238 -0.0278757 8.9711e-13)
(1.0115 -0.0265438 1.66718e-12)
(1.01067 -0.025259 7.74728e-13)
(1.00991 -0.0240214 0)
(1.0092 -0.022831 -2.77974e-29)
(1.00854 -0.0216874 0)
(1.00793 -0.0205902 0)
(1.00736 -0.0195388 -5.39101e-13)
(1.00684 -0.0185324 -5.01757e-13)
(1.00635 -0.0175701 0)
(1.0059 -0.016651 -4.34955e-13)
(1.00549 -0.0157739 -4.05099e-13)
(1.0051 -0.0149379 0)
(1.00474 -0.0141416 -3.51594e-13)
(1.00441 -0.0133839 -3.2763e-13)
(1.00411 -0.0126634 0)
(1.00382 -0.011979 -2.45905e-29)
(1.00356 -0.0113291 0)
(1.00332 -0.0107126 1.02622e-29)
(1.00309 -0.0101281 -1.99091e-29)
(1.00288 -0.0095742 8.91251e-30)
(1.00269 -0.0090497 2.00033e-13)
(1.00251 -0.00855327 1.86314e-13)
(1.00234 -0.00808365 -7.20093e-30)
(1.00219 -0.00763961 1.61436e-13)
(1.00205 -0.00721994 1.50146e-13)
(1.00191 -0.00682349 1.20579e-29)
(1.00179 -0.00644912 1.29572e-13)
(1.00167 -0.00609576 1.20184e-13)
(1.00156 -0.00576235 -4.6215e-30)
(1.00146 -0.0054479 1.02973e-13)
(1.00137 -0.00515144 4.10733e-30)
(1.00128 -0.00487207 -8.75731e-14)
(1.0012 -0.00460891 8.046e-14)
(1.00112 -0.00436114 7.36933e-14)
(1.00105 -0.00412796 0)
(1.00098 -0.00390862 -6.10773e-14)
(1.00092 -0.00370242 -1.10343e-13)
(1.00086 -0.00350869 -4.94983e-14)
(1.0008 -0.00332679 -4.40333e-14)
(1.00075 -0.00315613 -3.87528e-14)
(1.0007 -0.00299614 -1.3962e-30)
(1.00065 -0.00284629 0)
(1.00061 -0.00270612 2.05563e-30)
(1.00056 -0.00257535 -7.89336e-31)
(1.00052 -0.00245486 0)
(1.00047 -0.0023552 4.49991e-31)
(1.01599 -0.02721 0)
(1.01495 -0.025965 -8.9711e-13)
(1.01397 -0.0247594 -1.66718e-12)
(1.01305 -0.0235939 -7.74728e-13)
(1.0122 -0.0224688 0)
(1.0114 -0.0213842 2.77974e-29)
(1.01065 -0.0203399 0)
(1.00995 -0.0193359 0)
(1.00929 -0.0183717 5.39101e-13)
(1.00868 -0.0174469 5.01757e-13)
(1.00812 -0.0165607 0)
(1.00758 -0.0157126 4.34955e-13)
(1.00709 -0.0149018 4.05099e-13)
(1.00663 -0.0141273 0)
(1.0062 -0.0133883 3.51594e-13)
(1.0058 -0.0126838 3.2763e-13)
(1.00542 -0.0120127 0)
(1.00507 -0.0113741 5.35537e-29)
(1.00475 -0.0107667 -2.89632e-29)
(1.00444 -0.0101895 -1.02622e-29)
(1.00416 -0.00964143 1.99091e-29)
(1.00389 -0.00912132 -8.91251e-30)
(1.00365 -0.00862806 -2.00033e-13)
(1.00342 -0.00816056 -1.86314e-13)
(1.0032 -0.0077177 7.20093e-30)
(1.003 -0.00729843 -1.61436e-13)
(1.00281 -0.0069017 -1.50146e-13)
(1.00264 -0.00652646 -1.20579e-29)
(1.00247 -0.00617174 -1.29572e-13)
(1.00232 -0.00583656 -1.20184e-13)
(1.00217 -0.00552 4.6215e-30)
(1.00204 -0.00522115 -1.02973e-13)
(1.00191 -0.00493915 -4.10733e-30)
(1.00179 -0.00467317 8.75731e-14)
(1.00168 -0.00442243 -8.046e-14)
(1.00157 -0.00418617 -7.36933e-14)
(1.00147 -0.00396366 0)
(1.00138 -0.00375422 6.10773e-14)
(1.00129 -0.0035572 1.10343e-13)
(1.00121 -0.00337198 4.94983e-14)
(1.00113 -0.00319797 4.40333e-14)
(1.00106 -0.00303463 3.87528e-14)
(1.00099 -0.00288142 1.3962e-30)
(1.00093 -0.00273786 0)
(1.00086 -0.0026035 -2.05563e-30)
(1.0008 -0.0024781 7.89336e-31)
(1.00075 -0.0023625 0)
(1.00067 -0.00226685 -4.49986e-31)
(1.01838 -0.0250027 5.44769e-29)
(1.01726 -0.0238892 -1.06233e-28)
(1.01621 -0.0228089 4.78091e-29)
(1.01521 -0.0217624 0)
(1.01428 -0.0207501 0)
(1.0134 -0.0197723 0)
(1.01257 -0.0188291 0)
(1.0118 -0.0179205 0)
(1.01107 -0.0170462 -6.73462e-29)
(1.01039 -0.016206 0)
(1.00974 -0.0153996 5.91486e-29)
(1.00914 -0.0146263 -2.66301e-29)
(1.00858 -0.0138857 0)
(1.00805 -0.013177 0)
(1.00755 -0.0124997 0)
(1.00708 -0.0118529 4.27601e-29)
(1.00665 -0.0112357 -1.92478e-29)
(1.00624 -0.0106475 3.81892e-29)
(1.00586 -0.0100872 -2.12969e-29)
(1.0055 -0.00955401 -1.58202e-29)
(1.00516 -0.00904696 3.08336e-29)
(1.00484 -0.00856511 0)
(1.00455 -0.00810753 0)
(1.00427 -0.00767328 0)
(1.00401 -0.00726142 0)
(1.00377 -0.00687104 0)
(1.00354 -0.00650121 0)
(1.00332 -0.00615106 -1.91833e-29)
(1.00312 -0.0058197 8.58376e-30)
(1.00293 -0.00550628 -1.66225e-29)
(1.00275 -0.00521 0)
(1.00258 -0.00493005 0)
(1.00243 -0.00466566 0)
(1.00228 -0.00441609 5.87786e-30)
(1.00214 -0.00418064 0)
(1.00201 -0.00395863 -4.9667e-30)
(1.00188 -0.0037494 4.54023e-30)
(1.00177 -0.00355233 0)
(1.00166 -0.00336684 0)
(1.00155 -0.00319235 0)
(1.00145 -0.00302835 0)
(1.00136 -0.00287431 0)
(1.00127 -0.00272976 0)
(1.00119 -0.00259424 0)
(1.00111 -0.00246737 0)
(1.00104 -0.0023489 -1.29671e-30)
(1.00096 -0.00223964 2.0921e-30)
(1.00087 -0.0021492 -7.39792e-31)
(1.02051 -0.0226617 -5.44769e-29)
(1.01933 -0.0216769 1.06233e-28)
(1.01821 -0.0207197 -4.78091e-29)
(1.01715 -0.0197908 0)
(1.01615 -0.0188908 0)
(1.0152 -0.0180199 0)
(1.01431 -0.0171783 0)
(1.01347 -0.0163662 0)
(1.01268 -0.0155835 6.73462e-29)
(1.01193 -0.0148301 0)
(1.01122 -0.0141056 -5.91486e-29)
(1.01056 -0.0134099 2.66301e-29)
(1.00993 -0.0127425 0)
(1.00934 -0.0121029 0)
(1.00879 -0.0114906 0)
(1.00827 -0.0109051 -4.27601e-29)
(1.00778 -0.0103456 1.92478e-29)