/*--------------------------------*- C++ -*----------------------------------*\
  =========                 |
  \\      /  F ield         | OpenFOAM: The Open Source CFD Toolbox
   \\    /   O peration     | Website:  https://openfoam.org
    \\  /    A nd           | Version:  7
     \\/     M anipulation  |
\*---------------------------------------------------------------------------*/
FoamFile
{
    version     2.0;
    format      ascii;
    class       volScalarField;
    location    "70";
    object      p;
}
// * * * * * * * * * * * * * * * * * * * * * * * * * * * * * * * * * * * * * //

dimensions      [0 2 -2 0 0 0 0];

internalField   nonuniform List<scalar> 
14000
(
-0.228426
-0.232026
-0.233481
-0.235143
-0.236861
-0.238465
-0.239689
-0.240261
-0.240625
-0.238662
-0.22949
-0.232881
-0.234257
-0.235867
-0.237549
-0.239155
-0.240451
-0.240746
-0.241754
-0.23878
-0.231502
-0.234489
-0.235694
-0.237182
-0.238769
-0.24032
-0.24191
-0.241222
-0.244116
-0.238595
-0.234265
-0.236682
-0.237597
-0.238859
-0.240265
-0.241533
-0.243966
-0.240943
-0.247717
-0.237249
-0.237551
-0.239263
-0.239736
-0.240613
-0.241763
-0.242344
-0.246279
-0.239577
-0.250767
-0.235872
-0.241164
-0.242059
-0.241903
-0.242181
-0.242957
-0.242757
-0.247166
-0.238199
-0.252661
-0.234571
-0.244991
-0.244971
-0.24398
-0.243443
-0.243481
-0.242827
-0.246887
-0.236634
-0.250701
-0.235118
-0.249054
-0.247991
-0.245973
-0.244415
-0.243512
-0.242413
-0.244773
-0.236339
-0.244069
-0.234474
-0.253551
-0.251211
-0.248048
-0.245283
-0.243264
-0.241568
-0.241078
-0.235641
-0.23503
-0.228621
-0.258807
-0.254905
-0.250459
-0.246341
-0.243053
-0.240147
-0.236766
-0.231643
-0.224613
-0.217702
-0.265181
-0.259452
-0.253552
-0.247889
-0.242993
-0.238078
-0.231856
-0.22446
-0.213227
-0.20331
-0.273122
-0.265231
-0.257607
-0.250074
-0.242994
-0.235258
-0.225846
-0.21513
-0.202101
-0.190084
-0.283099
-0.27257
-0.262762
-0.252975
-0.24287
-0.231487
-0.218626
-0.205093
-0.190423
-0.177313
-0.295516
-0.28161
-0.269201
-0.256524
-0.242267
-0.226609
-0.21042
-0.194307
-0.178529
-0.165071
-0.31064
-0.29209
-0.277168
-0.260283
-0.240688
-0.220511
-0.201121
-0.182974
-0.166419
-0.152339
-0.328444
-0.303667
-0.28618
-0.263332
-0.237616
-0.212969
-0.190752
-0.170936
-0.1537
-0.139108
-0.347749
-0.316395
-0.294524
-0.264418
-0.232523
-0.203795
-0.179118
-0.157981
-0.140235
-0.12503
-0.366528
-0.330089
-0.300315
-0.262401
-0.224924
-0.192693
-0.166003
-0.143877
-0.12572
-0.11012
-0.382608
-0.343084
-0.302444
-0.256587
-0.214356
-0.179346
-0.151124
-0.128342
-0.110032
-0.0943848
-0.394318
-0.352492
-0.300026
-0.246577
-0.200441
-0.163411
-0.134194
-0.111139
-0.0929766
-0.0777883
-0.400536
-0.35566
-0.291884
-0.231976
-0.18286
-0.144588
-0.114966
-0.0920724
-0.0743908
-0.0599359
-0.400282
-0.350667
-0.277145
-0.212358
-0.161349
-0.122643
-0.0932812
-0.0710987
-0.0541814
-0.0402683
-0.392388
-0.336453
-0.25529
-0.187362
-0.135696
-0.0974729
-0.0691087
-0.0482645
-0.0323761
-0.0187983
-0.375462
-0.312503
-0.225998
-0.156777
-0.105869
-0.0691991
-0.0425843
-0.0236025
-0.00877325
0.00339611
-0.348151
-0.278688
-0.189037
-0.120732
-0.0721368
-0.0381326
-0.0139512
0.00304867
0.0163866
0.0263162
-0.309519
-0.235135
-0.144495
-0.0797642
-0.0348805
-0.00427623
0.0167455
0.0313629
0.0425984
0.049759
-0.259338
-0.181884
-0.0933796
-0.0341262
0.00573984
0.0319713
0.049205
0.0608179
0.0691841
0.0729913
-0.198043
-0.118821
-0.0370805
0.0155052
0.0491797
0.070167
0.0830147
0.0908273
0.0952763
0.0950156
-0.12618
-0.0481067
0.0236737
0.0681368
0.0947273
0.109797
0.11772
0.120929
0.120378
0.115575
-0.0442182
0.0265998
0.0877566
0.12276
0.141548
0.150205
0.152754
0.150847
0.145069
0.136432
0.0443441
0.104036
0.153606
0.17827
0.188718
0.190585
0.187379
0.180177
0.16988
0.162231
0.13638
0.18258
0.219553
0.233421
0.235239
0.23009
0.220902
0.208563
0.194927
0.186869
0.228533
0.260126
0.283899
0.286891
0.28006
0.267905
0.252898
0.235947
0.219402
0.208921
0.317459
0.33444
0.344955
0.337342
0.322105
0.303163
0.282662
0.261588
0.242267
0.228718
0.399922
0.403312
0.401078
0.383481
0.360378
0.33514
0.309645
0.28484
0.262702
0.245947
0.473095
0.464587
0.450685
0.424063
0.393902
0.363069
0.333222
0.305167
0.280371
0.260532
0.534834
0.516093
0.492288
0.45798
0.421832
0.386284
0.352803
0.32202
0.294887
0.272299
0.583115
0.556154
0.524622
0.484285
0.44345
0.40423
0.367939
0.335029
0.306
0.281144
0.616274
0.583549
0.546719
0.502241
0.458184
0.41645
0.378244
0.343877
0.313516
0.287029
0.63315
0.597457
0.557932
0.511346
0.46565
0.422638
0.383461
0.348354
0.317306
0.28996
0.633151
0.597458
0.557934
0.511347
0.465651
0.422639
0.383461
0.348355
0.317307
0.28996
0.616278
0.583553
0.546723
0.502243
0.458186
0.416452
0.378246
0.343878
0.313518
0.28703
0.583123
0.556161
0.524627
0.48429
0.443454
0.404234
0.367943
0.335032
0.306003
0.281146
0.534846
0.516103
0.492296
0.457986
0.421838
0.386289
0.352808
0.322025
0.294891
0.272303
0.47311
0.4646
0.450695
0.424071
0.393909
0.363075
0.333228
0.305173
0.280377
0.260536
0.39994
0.403327
0.40109
0.383491
0.360387
0.335148
0.309653
0.284847
0.262708
0.245953
0.317479
0.334457
0.344969
0.337354
0.322116
0.303172
0.282671
0.261596
0.242274
0.228725
0.228557
0.260145
0.283915
0.286904
0.280072
0.267916
0.252908
0.235956
0.219411
0.208929
0.136407
0.182602
0.219571
0.233436
0.235253
0.230102
0.220913
0.208574
0.194937
0.186879
0.0443728
0.10406
0.153625
0.178287
0.188733
0.190599
0.187391
0.180189
0.169891
0.162241
-0.0441874
0.0266253
0.0877779
0.122779
0.141564
0.15022
0.152767
0.150859
0.145081
0.136443
-0.126147
-0.0480795
0.0236966
0.0681564
0.0947448
0.109813
0.117735
0.120943
0.120391
0.115587
-0.19801
-0.118792
-0.0370563
0.0155261
0.0491984
0.0701841
0.0830306
0.0908422
0.0952906
0.0950293
-0.259303
-0.181854
-0.0933543
-0.0341042
0.00575969
0.0319895
0.0492221
0.0608341
0.0691995
0.0730061
-0.309484
-0.235104
-0.144468
-0.0797411
-0.0348595
-0.00425682
0.0167638
0.0313804
0.0426151
0.0497751
-0.348117
-0.278657
-0.18901
-0.120708
-0.0721149
-0.038112
-0.0139316
0.00306753
0.0164047
0.0263336
-0.375429
-0.312472
-0.225971
-0.156753
-0.105846
-0.0691775
-0.0425634
-0.0235822
-0.00875353
0.00341513
-0.392356
-0.336422
-0.255263
-0.187337
-0.135672
-0.0974501
-0.0690865
-0.0482426
-0.0323547
-0.0187775
-0.400251
-0.350637
-0.277118
-0.212333
-0.161325
-0.122619
-0.0932576
-0.0710752
-0.054158
-0.0402454
-0.400506
-0.355631
-0.291857
-0.231951
-0.182835
-0.144563
-0.114941
-0.0920469
-0.0743651
-0.0599106
-0.39429
-0.352464
-0.3
-0.246552
-0.200415
-0.163385
-0.134167
-0.111111
-0.0929483
-0.0777601
-0.382582
-0.343059
-0.302419
-0.256563
-0.214331
-0.179319
-0.151095
-0.128312
-0.110001
-0.0943531
-0.366504
-0.330066
-0.300292
-0.262377
-0.224898
-0.192665
-0.165972
-0.143843
-0.125684
-0.110084
-0.347727
-0.316374
-0.294503
-0.264395
-0.232498
-0.203767
-0.179084
-0.157944
-0.140195
-0.124988
-0.328424
-0.303649
-0.286161
-0.263312
-0.237592
-0.212939
-0.190716
-0.170895
-0.153654
-0.139059
-0.310622
-0.292073
-0.277152
-0.260265
-0.240666
-0.220481
-0.201082
-0.182926
-0.166365
-0.152281
-0.295499
-0.281594
-0.269187
-0.256509
-0.242247
-0.22658
-0.210378
-0.194253
-0.178466
-0.165001
-0.283084
-0.272557
-0.262751
-0.252964
-0.242853
-0.231458
-0.21858
-0.20503
-0.190347
-0.177228
-0.273107
-0.265218
-0.257598
-0.250065
-0.24298
-0.23523
-0.225797
-0.215058
-0.202009
-0.189978
-0.265165
-0.259439
-0.253544
-0.247883
-0.242981
-0.238051
-0.231805
-0.224377
-0.213116
-0.203176
-0.258788
-0.254891
-0.25045
-0.246333
-0.243041
-0.24012
-0.23671
-0.231548
-0.224481
-0.21753
-0.253529
-0.251194
-0.248036
-0.245273
-0.243249
-0.241537
-0.241018
-0.235536
-0.234878
-0.228415
-0.249028
-0.247972
-0.245957
-0.2444
-0.243491
-0.242377
-0.244708
-0.236224
-0.243905
-0.234237
-0.244963
-0.244948
-0.243961
-0.243423
-0.243455
-0.242784
-0.246816
-0.236512
-0.250526
-0.234859
-0.241134
-0.242035
-0.241881
-0.242156
-0.242925
-0.242706
-0.24709
-0.23807
-0.252483
-0.234305
-0.237522
-0.239239
-0.239712
-0.240587
-0.241729
-0.242293
-0.246205
-0.239446
-0.250594
-0.235613
-0.234238
-0.23666
-0.237575
-0.238833
-0.240232
-0.241485
-0.243894
-0.240833
-0.24756
-0.237011
-0.231481
-0.234471
-0.235676
-0.237161
-0.238742
-0.240281
-0.241852
-0.241134
-0.24399
-0.238416
-0.229477
-0.23287
-0.234245
-0.235854
-0.237531
-0.239129
-0.240413
-0.24069
-0.241673
-0.238666
-0.228421
-0.232022
-0.233477
-0.235139
-0.236855
-0.238456
-0.239676
-0.240242
-0.240597
-0.238623
-0.237839
-0.237053
-0.236165
-0.235188
-0.234127
-0.23299
-0.231784
-0.230513
-0.229181
-0.227791
-0.226346
-0.224845
-0.223288
-0.221676
-0.220018
-0.21831
-0.216551
-0.214742
-0.212883
-0.210974
-0.209014
-0.207005
-0.204946
-0.202838
-0.200681
-0.198474
-0.196218
-0.193912
-0.191557
-0.189152
-0.186699
-0.184196
-0.181645
-0.179047
-0.176401
-0.173708
-0.170971
-0.168189
-0.165364
-0.162497
-0.159589
-0.156644
-0.153662
-0.150645
-0.147596
-0.144517
-0.14141
-0.138279
-0.135125
-0.131953
-0.128764
-0.125562
-0.12235
-0.119131
-0.11591
-0.112689
-0.109472
-0.106263
-0.103065
-0.0998809
-0.0967148
-0.09357
-0.0904499
-0.0873577
-0.0842967
-0.0812702
-0.0782806
-0.0753305
-0.0724235
-0.0695615
-0.0667473
-0.0639832
-0.0612712
-0.0586131
-0.0560109
-0.0534661
-0.05098
-0.0485539
-0.0461888
-0.0438856
-0.041645
-0.0394676
-0.0373537
-0.0353036
-0.0333174
-0.0313951
-0.0295364
-0.0277411
-0.0260088
-0.024339
-0.0227312
-0.0211845
-0.0196983
-0.0182718
-0.0169041
-0.0155943
-0.0143415
-0.0131447
-0.0120028
-0.0109148
-0.00987972
-0.00889605
-0.00796175
-0.00708237
-0.00625104
-0.00546751
-0.0047313
-0.00404175
-0.00339823
-0.00280015
-0.00224703
-0.00173847
-0.00127424
-0.000854207
-0.000478648
-0.000147303
0.000136287
0.000384095
0.000527027
0.000852804
-0.23836
-0.237547
-0.236625
-0.235626
-0.234547
-0.233394
-0.232176
-0.230895
-0.229556
-0.22816
-0.226709
-0.225202
-0.223641
-0.222022
-0.220342
-0.218619
-0.216847
-0.215027
-0.213157
-0.211238
-0.209269
-0.20725
-0.205182
-0.203065
-0.200899
-0.198684
-0.196421
-0.19411
-0.19175
-0.189342
-0.186886
-0.184384
-0.181834
-0.179239
-0.176599
-0.173914
-0.171186
-0.168415
-0.165604
-0.162752
-0.159862
-0.156936
-0.153974
-0.150979
-0.147952
-0.144897
-0.141814
-0.138707
-0.135577
-0.132428
-0.129262
-0.126082
-0.122892
-0.119694
-0.116491
-0.113286
-0.110083
-0.106884
-0.103695
-0.100517
-0.0973537
-0.0942092
-0.0910865
-0.0879889
-0.0849197
-0.081883
-0.0788824
-0.0759071
-0.0729847
-0.0701033
-0.0672665
-0.0644778
-0.0617395
-0.0590537
-0.0564225
-0.0538478
-0.051331
-0.0488738
-0.0464773
-0.0441428
-0.0418712
-0.0396632
-0.0375195
-0.0354405
-0.0334264
-0.0314774
-0.0295935
-0.0277745
-0.0260201
-0.02433
-0.0227036
-0.0211404
-0.0196395
-0.0182003
-0.0168218
-0.0155033
-0.0142436
-0.0130417
-0.0118967
-0.0108075
-0.00977288
-0.00879178
-0.00786317
-0.00698679
-0.00616097
-0.00538461
-0.00465678
-0.0039766
-0.00334326
-0.002756
-0.00221415
-0.00171712
-0.00126447
-0.000855703
-0.000490997
-0.00016888
0.000105421
0.000351312
0.000481157
0.000789753
-0.239263
-0.238301
-0.237313
-0.236289
-0.235194
-0.234026
-0.232795
-0.231506
-0.23016
-0.22876
-0.227306
-0.225799
-0.224236
-0.222616
-0.220944
-0.219219
-0.217445
-0.215619
-0.213744
-0.211818
-0.209842
-0.207817
-0.205743
-0.20362
-0.201448
-0.199227
-0.196959
-0.194643
-0.19228
-0.189871
-0.187415
-0.184914
-0.182368
-0.179777
-0.177144
-0.174467
-0.171748
-0.168989
-0.166191
-0.163354
-0.16048
-0.15757
-0.154626
-0.15165
-0.148644
-0.145608
-0.142546
-0.139459
-0.13635
-0.13322
-0.130073
-0.126912
-0.123741
-0.120543
-0.117353
-0.11416
-0.110965
-0.107773
-0.104586
-0.101409
-0.098244
-0.0950947
-0.0919643
-0.0888562
-0.0857737
-0.08272
-0.0796985
-0.0767118
-0.0737638
-0.0708566
-0.0679931
-0.0651762
-0.0624084
-0.059692
-0.0570293
-0.0544223
-0.0518729
-0.0493828
-0.0469535
-0.0445863
-0.0422825
-0.0400429
-0.0378683
-0.0357594
-0.0337165
-0.0317401
-0.02983
-0.0279864
-0.0262091
-0.0244976
-0.0228515
-0.0212704
-0.0197534
-0.0182998
-0.0169088
-0.0155794
-0.0143107
-0.0131016
-0.0119509
-0.0108576
-0.00982043
-0.00883835
-0.0079102
-0.00703495
-0.00621138
-0.00543831
-0.00471464
-0.00403932
-0.00341137
-0.00282984
-0.00229387
-0.00180258
-0.00135537
-0.000951119
-0.000590284
-0.000268916
3.33478e-06
0.000258686
0.000382269
0.000672303
-0.241431
-0.239005
-0.238126
-0.236981
-0.235862
-0.234687
-0.233457
-0.232173
-0.230835
-0.229442
-0.227994
-0.226491
-0.224929
-0.223303
-0.221635
-0.219911
-0.218138
-0.216317
-0.214446
-0.212524
-0.210553
-0.208536
-0.20645
-0.204331
-0.202163
-0.199948
-0.197684
-0.195374
-0.193016
-0.190613
-0.188164
-0.18567
-0.183131
-0.18055
-0.177926
-0.17526
-0.172553
-0.169807
-0.167022
-0.1642
-0.161341
-0.158447
-0.15552
-0.152561
-0.149571
-0.146552
-0.143506
-0.140435
-0.137341
-0.134226
-0.131092
-0.127942
-0.124777
-0.121602
-0.118418
-0.115228
-0.112036
-0.108844
-0.105656
-0.102474
-0.099303
-0.096145
-0.0930037
-0.0898823
-0.0867844
-0.0837131
-0.0806716
-0.0776633
-0.0746916
-0.0717595
-0.0688699
-0.0660256
-0.0632293
-0.0604836
-0.057791
-0.0551536
-0.0525735
-0.0500527
-0.0475927
-0.0451953
-0.0428616
-0.0405927
-0.0383896
-0.0362531
-0.0341837
-0.0321817
-0.0302474
-0.0283808
-0.0265817
-0.0248498
-0.0231849
-0.0215862
-0.0200531
-0.0185849
-0.0171807
-0.0158395
-0.0145603
-0.0133419
-0.0121833
-0.0110832
-0.0100405
-0.0090538
-0.00812196
-0.00724371
-0.0064178
-0.00564295
-0.00491793
-0.00424155
-0.00361263
-0.00303002
-0.00249269
-0.00199937
-0.00154942
-0.00114073
-0.000774752
-0.000443688
-0.000163915
0.000110826
0.000245004
0.000525818
-0.240216
-0.239909
-0.238667
-0.237471
-0.236344
-0.23518
-0.233964
-0.232701
-0.231388
-0.230023
-0.228605
-0.227133
-0.225605
-0.224013
-0.222355
-0.220652
-0.218896
-0.217086
-0.215222
-0.213308
-0.211343
-0.209327
-0.207262
-0.205146
-0.202982
-0.200769
-0.19851
-0.196203
-0.193851
-0.191454
-0.189012
-0.186525
-0.183996
-0.181424
-0.17881
-0.176156
-0.173462
-0.170728
-0.167957
-0.165149
-0.162305
-0.159426
-0.156514
-0.153571
-0.150596
-0.147593
-0.144562
-0.141505
-0.138425
-0.135322
-0.1322
-0.12906
-0.125904
-0.122736
-0.119557
-0.116371
-0.113181
-0.10999
-0.106801
-0.103616
-0.100439
-0.0972737
-0.094123
-0.0909905
-0.0878795
-0.0847935
-0.0817358
-0.0787098
-0.0757188
-0.0727662
-0.069855
-0.066988
-0.0641683
-0.0613986
-0.0586814
-0.056019
-0.0534138
-0.0508678
-0.0483827
-0.0459602
-0.0436018
-0.0413087
-0.0390819
-0.0369221
-0.0348302
-0.0328064
-0.0308511
-0.0289643
-0.027146
-0.0253958
-0.0237134
-0.0220982
-0.0205495
-0.0190666
-0.0176486
-0.0162944
-0.015003
-0.0137733
-0.0126041
-0.011494
-0.0104418
-0.00944616
-0.00850576
-0.00761923
-0.0067852
-0.0060023
-0.00526917
-0.00458444
-0.0039468
-0.00335483
-0.00280739
-0.00230273
-0.00184037
-0.00141684
-0.00103523
-0.000683394
-0.000384193
-8.16249e-05
8.506e-05
0.000372043
-0.237359
-0.238282
-0.237992
-0.237216
-0.236242
-0.235169
-0.234041
-0.232851
-0.231585
-0.230251
-0.228858
-0.227409
-0.225899
-0.22432
-0.222663
-0.220957
-0.219241
-0.217478
-0.215656
-0.213774
-0.211838
-0.209851
-0.207813
-0.205726
-0.203588
-0.201401
-0.199165
-0.196881
-0.19455
-0.192172
-0.18975
-0.187282
-0.184771
-0.182216
-0.179621
-0.176984
-0.174307
-0.171592
-0.168838
-0.166048
-0.163222
-0.160361
-0.157466
-0.15454
-0.151582
-0.148596
-0.145581
-0.14254
-0.139474
-0.136386
-0.133277
-0.130149
-0.127005
-0.123847
-0.120677
-0.117499
-0.114315
-0.111128
-0.107941
-0.104757
-0.10158
-0.0984134
-0.0952596
-0.0921225
-0.0890055
-0.0859121
-0.0828457
-0.0798099
-0.0768079
-0.0738432
-0.0709188
-0.0680379
-0.0652035
-0.0624183
-0.059685
-0.0570062
-0.054384
-0.0518207
-0.0493181
-0.046878
-0.0445018
-0.0421908
-0.0399462
-0.0377688
-0.0356593
-0.0336182
-0.0316458
-0.0297421
-0.0279071
-0.0261405
-0.024442
-0.022811
-0.0212469
-0.0197488
-0.0183158
-0.0169469
-0.015641
-0.0143969
-0.0132134
-0.0120892
-0.0110228
-0.010013
-0.00905821
-0.00815708
-0.00730813
-0.00650986
-0.0057608
-0.00505943
-0.00440432
-0.00379376
-0.00322659
-0.00270046
-0.00221525
-0.00176608
-0.00135759
-0.000974432
-0.000642642
-0.000304532
-8.5237e-05
0.000224614
-0.233854
-0.234649
-0.235412
-0.235392
-0.234736
-0.233895
-0.233042
-0.232098
-0.231004
-0.229796
-0.228518
-0.22718
-0.225776
-0.224296
-0.222731
-0.221064
-0.219307
-0.217543
-0.215783
-0.213971
-0.21209
-0.21014
-0.208129
-0.206063
-0.203946
-0.201778
-0.199562
-0.197299
-0.19499
-0.192636
-0.190237
-0.187792
-0.185303
-0.182772
-0.180199
-0.177585
-0.174931
-0.172238
-0.169507
-0.166739
-0.163936
-0.161098
-0.158227
-0.155323
-0.152388
-0.149424
-0.146431
-0.143412
-0.140367
-0.1373
-0.134211
-0.131103
-0.127977
-0.124837
-0.121684
-0.118522
-0.115353
-0.11218
-0.109006
-0.105834
-0.102667
-0.099509
-0.0963631
-0.0932326
-0.0901211
-0.087032
-0.0839687
-0.0809348
-0.0779335
-0.0749684
-0.0720425
-0.069159
-0.066321
-0.0635312
-0.0607924
-0.0581072
-0.0554777
-0.0529063
-0.0503949
-0.0479452
-0.0455587
-0.0432369
-0.0409807
-0.0387912
-0.0366691
-0.0346148
-0.0326287
-0.0307109
-0.0288613
-0.0270798
-0.0253659
-0.0237192
-0.0221389
-0.0206242
-0.0191743
-0.017788
-0.0164644
-0.0152022
-0.014
-0.0128567
-0.0117707
-0.0107406
-0.00976505
-0.00884238
-0.0079711
-0.00714963
-0.00637642
-0.00564975
-0.00496814
-0.00432962
-0.00373301
-0.00317545
-0.00265709
-0.00217209
-0.00172569
-0.00130175
-0.00092482
-0.000543619
-0.000257388
9.01994e-05
-0.230715
-0.230447
-0.231766
-0.232077
-0.231443
-0.230806
-0.230342
-0.229739
-0.228874
-0.227838
-0.226714
-0.225511
-0.22422
-0.222845
-0.221394
-0.219866
-0.218249
-0.216517
-0.214698
-0.212896
-0.211158
-0.20937
-0.207502
-0.205553
-0.203529
-0.201437
-0.199285
-0.197081
-0.19483
-0.192534
-0.190189
-0.187796
-0.185356
-0.182873
-0.180347
-0.177778
-0.175167
-0.172516
-0.169826
-0.167098
-0.164333
-0.161533
-0.158697
-0.155829
-0.152929
-0.149999
-0.14704
-0.144053
-0.141041
-0.138004
-0.134946
-0.131868
-0.128772
-0.12566
-0.122536
-0.119401
-0.116258
-0.11311
-0.109961
-0.106812
-0.103668
-0.100532
-0.0974062
-0.0942949
-0.0912014
-0.0881291
-0.0850814
-0.0820618
-0.0790737
-0.0761202
-0.0732047
-0.0703302
-0.0674998
-0.0647164
-0.0619825
-0.0593007
-0.0566735
-0.0541029
-0.0515909
-0.0491393
-0.0467497
-0.0444233
-0.0421614
-0.0399649
-0.0378345
-0.0357708
-0.0337741
-0.0318445
-0.0299821
-0.0281866
-0.0264577
-0.0247948
-0.0231974
-0.0216647
-0.0201957
-0.0187894
-0.0174448
-0.0161606
-0.0149355
-0.0137682
-0.0126574
-0.0116014
-0.0105988
-0.00964804
-0.00874752
-0.00789558
-0.00709058
-0.00633071
-0.00561439
-0.00493949
-0.00430473
-0.00370703
-0.0031464
-0.00261695
-0.00212308
-0.0016504
-0.00121805
-0.000786371
-0.000424625
-2.74548e-05
-0.225137
-0.225227
-0.227092
-0.227089
-0.226218
-0.225892
-0.225924
-0.225744
-0.225251
-0.224584
-0.223807
-0.222908
-0.221882
-0.220741
-0.219498
-0.218155
-0.216718
-0.215188
-0.213546
-0.211743
-0.20978
-0.207868
-0.206094
-0.204288
-0.202398
-0.200417
-0.198351
-0.196223
-0.194045
-0.191818
-0.189535
-0.1872
-0.184816
-0.182386
-0.179913
-0.177397
-0.174839
-0.17224
-0.169602
-0.166925
-0.164212
-0.161462
-0.158677
-0.155859
-0.153009
-0.150129
-0.147219
-0.144281
-0.141318
-0.13833
-0.135319
-0.132289
-0.12924
-0.126175
-0.123096
-0.120006
-0.116908
-0.113804
-0.110698
-0.107591
-0.104488
-0.101391
-0.0983041
-0.0952301
-0.0921723
-0.0891343
-0.0861194
-0.0831309
-0.080172
-0.0772461
-0.0743562
-0.0715053
-0.0686966
-0.0659327
-0.0632164
-0.0605501
-0.0579362
-0.0553768
-0.0528739
-0.0504293
-0.0480446
-0.045721
-0.0434598
-0.041262
-0.0391282
-0.0370592
-0.0350552
-0.0331165
-0.031243
-0.0294348
-0.0276913
-0.0260122
-0.024397
-0.0228447
-0.0213546
-0.0199258
-0.0185571
-0.0172473
-0.0159953
-0.0147996
-0.0136589
-0.0125718
-0.0115365
-0.0105517
-0.00961569
-0.00872672
-0.00788315
-0.0070831
-0.00632489
-0.00560634
-0.00492598
-0.00428083
-0.00367033
-0.00308939
-0.00254041
-0.00201254
-0.00151739
-0.0010285
-0.000586233
-0.000128299
-0.217227
-0.219326
-0.220881
-0.219893
-0.218814
-0.218698
-0.2189
-0.218896
-0.218684
-0.218355
-0.217916
-0.217348
-0.216657
-0.21585
-0.214931
-0.213902
-0.212765
-0.211526
-0.210194
-0.208778
-0.207253
-0.205538
-0.203603
-0.20175
-0.200016
-0.198216
-0.196313
-0.194353
-0.192351
-0.190292
-0.188165
-0.185974
-0.183725
-0.181422
-0.179069
-0.176666
-0.174214
-0.171717
-0.169175
-0.166591
-0.163966
-0.161301
-0.158599
-0.15586
-0.153087
-0.15028
-0.147443
-0.144575
-0.14168
-0.138758
-0.135812
-0.132844
-0.129857
-0.126851
-0.123831
-0.120797
-0.117754
-0.114703
-0.111647
-0.10859
-0.105535
-0.102484
-0.0994407
-0.0964084
-0.0933904
-0.0903899
-0.0874103
-0.0844548
-0.0815267
-0.078629
-0.0757649
-0.0729374
-0.0701493
-0.0674035
-0.0647027
-0.0620493
-0.0594458
-0.0568942
-0.0543965
-0.0519546
-0.0495701
-0.0472444
-0.0449787
-0.042774
-0.0406312
-0.0385509
-0.0365335
-0.0345793
-0.0326885
-0.0308609
-0.0290962
-0.0273942
-0.0257543
-0.0241757
-0.0226577
-0.0211993
-0.0197997
-0.0184575
-0.0171715
-0.0159406
-0.0147632
-0.013638
-0.0125634
-0.0115377
-0.0105595
-0.00962684
-0.00873809
-0.00789137
-0.00708485
-0.00631641
-0.00558426
-0.0048858
-0.00421955
-0.00358181
-0.00297234
-0.00238463
-0.00182235
-0.00127202
-0.000748886
-0.000223241
-0.20474
-0.211706
-0.212698
-0.211313
-0.210242
-0.210043
-0.210293
-0.210572
-0.210711
-0.210689
-0.210525
-0.210239
-0.209837
-0.20932
-0.208686
-0.207933
-0.207065
-0.206087
-0.205002
-0.203814
-0.202529
-0.201154
-0.199682
-0.198072
-0.196312
-0.194472
-0.192584
-0.190694
-0.188784
-0.186824
-0.184802
-0.182719
-0.180578
-0.178383
-0.176135
-0.173836
-0.171487
-0.169091
-0.166648
-0.164162
-0.161633
-0.159063
-0.156454
-0.153809
-0.151127
-0.148411
-0.145664
-0.142886
-0.14008
-0.137247
-0.13439
-0.13151
-0.128611
-0.125693
-0.122761
-0.119815
-0.116859
-0.113895
-0.110927
-0.107957
-0.104987
-0.102022
-0.099064
-0.096116
-0.0931813
-0.090263
-0.0873643
-0.0844883
-0.081638
-0.0788164
-0.0760264
-0.0732709
-0.0705527
-0.0678743
-0.0652382
-0.0626468
-0.0601024
-0.0576068
-0.0551621
-0.0527699
-0.0504317
-0.0481488
-0.0459225
-0.0437536
-0.041643
-0.0395912
-0.0375988
-0.0356659
-0.0337927
-0.0319791
-0.030225
-0.0285299
-0.0268933
-0.0253146
-0.0237932
-0.022328
-0.0209182
-0.0195627
-0.0182603
-0.0170097
-0.0158097
-0.0146588
-0.0135556
-0.0124984
-0.0114857
-0.0105159
-0.00958712
-0.00869762
-0.00784546
-0.00702877
-0.00624537
-0.00549332
-0.0047701
-0.00407374
-0.0034012
-0.00275061
-0.00211798
-0.00150179
-0.000896151
-0.000300643
-0.186127
-0.195359
-0.198379
-0.197837
-0.196855
-0.196663
-0.197159
-0.197855
-0.198413
-0.198734
-0.198853
-0.198824
-0.198677
-0.198414
-0.198029
-0.197518
-0.196881
-0.19612
-0.195239
-0.19424
-0.193123
-0.191889
-0.190541
-0.189107
-0.187636
-0.18618
-0.184745
-0.18326
-0.181648
-0.179917
-0.178099
-0.176215
-0.174273
-0.17227
-0.170209
-0.168092
-0.16592
-0.163697
-0.161425
-0.159105
-0.156741
-0.154334
-0.151885
-0.149397
-0.146872
-0.144312
-0.141718
-0.139093
-0.136439
-0.133757
-0.13105
-0.128321
-0.12557
-0.122802
-0.120017
-0.11722
-0.114411
-0.111594
-0.108772
-0.105947
-0.103122
-0.1003
-0.0974835
-0.094676
-0.0918801
-0.0890986
-0.0863346
-0.0835909
-0.0808702
-0.0781753
-0.0755089
-0.0728736
-0.070272
-0.0677063
-0.0651789
-0.0626919
-0.0602474
-0.0578472
-0.055493
-0.0531864
-0.0509288
-0.0487214
-0.0465654
-0.0444616
-0.0424108
-0.0404136
-0.0384705
-0.0365816
-0.0347472
-0.0329673
-0.0312416
-0.02957
-0.027952
-0.026387
-0.0248744
-0.0234135
-0.0220034
-0.0206432
-0.0193317
-0.0180679
-0.0168505
-0.0156783
-0.0145498
-0.0134637
-0.0124183
-0.0114123
-0.0104437
-0.00951108
-0.00861239
-0.00774609
-0.00690969
-0.00610196
-0.00531952
-0.00456201
-0.00382415
-0.00310792
-0.00240362
-0.00171898
-0.00103339
-0.000367166
-0.169406
-0.179336
-0.183475
-0.183896
-0.183491
-0.183662
-0.18449
-0.185543
-0.186459
-0.187111
-0.187529
-0.18778
-0.187905
-0.187915
-0.187804
-0.187566
-0.187202
-0.186715
-0.186112
-0.1854
-0.184586
-0.183682
-0.182698
-0.181648
-0.180531
-0.179331
-0.178017
-0.176558
-0.174998
-0.173388
-0.171735
-0.170029
-0.168261
-0.166432
-0.164541
-0.162593
-0.16059
-0.158534
-0.156427
-0.154271
-0.152069
-0.149822
-0.147532
-0.145202
-0.142833
-0.140428
-0.137988
-0.135516
-0.133014
-0.130484
-0.127927
-0.125347
-0.122746
-0.120126
-0.117488
-0.114837
-0.112174
-0.109501
-0.106822
-0.104139
-0.101454
-0.0987713
-0.0960922
-0.0934198
-0.090757
-0.0881063
-0.0854705
-0.0828522
-0.080254
-0.0776784
-0.075128
-0.0726051
-0.070112
-0.067651
-0.0652242
-0.0628335
-0.0604808
-0.0581679
-0.0558964
-0.0536677
-0.0514831
-0.0493439
-0.0472511
-0.0452056
-0.043208
-0.0412591
-0.0393592
-0.0375086
-0.0357077
-0.0339563
-0.0322544
-0.0306018
-0.0289981
-0.027443
-0.0259359
-0.024476
-0.0230627
-0.021695
-0.0203722
-0.019093
-0.0178564
-0.0166613
-0.0155063
-0.0143902
-0.0133114
-0.0122686
-0.0112601
-0.0102845
-0.00933967
-0.00842448
-0.00753624
-0.00667426
-0.0058346
-0.00501811
-0.00421805
-0.00343909
-0.00266789
-0.00191818
-0.00115985
-0.000424628
-0.155175
-0.164606
-0.169229
-0.170495
-0.170796
-0.171433
-0.172578
-0.173905
-0.175097
-0.176028
-0.176718
-0.177228
-0.177602
-0.177855
-0.177983
-0.177984
-0.177856
-0.177605
-0.177236
-0.176756
-0.17617
-0.175483
-0.174695
-0.173805
-0.172812
-0.171719
-0.170537
-0.169288
-0.167997
-0.166644
-0.16521
-0.163696
-0.162111
-0.16046
-0.158747
-0.156974
-0.155144
-0.153258
-0.151319
-0.149329
-0.14729
-0.145206
-0.143077
-0.140905
-0.138694
-0.136445
-0.134161
-0.131843
-0.129493
-0.127114
-0.124709
-0.122278
-0.119826
-0.117353
-0.114862
-0.112356
-0.109838
-0.107308
-0.104771
-0.102228
-0.0996827
-0.0971367
-0.0945929
-0.0920538
-0.089522
-0.087
-0.0844903
-0.0819954
-0.0795176
-0.0770594
-0.074623
-0.0722106
-0.0698245
-0.0674665
-0.0651388
-0.0628431
-0.0605812
-0.0583547
-0.0561652
-0.0540138
-0.0519021
-0.0498309
-0.0478014
-0.0458144
-0.0438706
-0.0419707
-0.040115
-0.0383039
-0.0365376
-0.0348162
-0.0331397
-0.0315079
-0.0299206
-0.0283775
-0.0268779
-0.0254215
-0.0240074
-0.022635
-0.0213034
-0.0200118
-0.018759
-0.017544
-0.0163657
-0.0152229
-0.0141141
-0.0130382
-0.0119934
-0.0109787
-0.00999188
-0.00903206
-0.0080965
-0.00718492
-0.00629311
-0.00542273
-0.00456621
-0.00372989
-0.00289826
-0.00208853
-0.00126503
-0.000466813
-0.142246
-0.151134
-0.156002
-0.157909
-0.158832
-0.159911
-0.161348
-0.162907
-0.164329
-0.165503
-0.166439
-0.167187
-0.16779
-0.168263
-0.168608
-0.168821
-0.168904
-0.168861
-0.168697
-0.168418
-0.168027
-0.167529
-0.166925
-0.166219
-0.165419
-0.164533
-0.163574
-0.162544
-0.161437
-0.160244
-0.158969
-0.15762
-0.156201
-0.154715
-0.153166
-0.151555
-0.149885
-0.148159
-0.146378
-0.144545
-0.142661
-0.140731
-0.138755
-0.136735
-0.134675
-0.132576
-0.13044
-0.128269
-0.126067
-0.123834
-0.121573
-0.119287
-0.116977
-0.114646
-0.112296
-0.10993
-0.10755
-0.105158
-0.102756
-0.100348
-0.0979349
-0.0955198
-0.0931051
-0.0906931
-0.0882861
-0.0858865
-0.0834968
-0.0811191
-0.0787557
-0.0764089
-0.0740807
-0.0717732
-0.0694884
-0.0672282
-0.0649945
-0.0627889
-0.0606131
-0.0584686
-0.0563568
-0.054279
-0.0522364
-0.0502301
-0.0482609
-0.0463298
-0.0444374
-0.0425844
-0.0407711
-0.038998
-0.0372654
-0.0355732
-0.0339216
-0.0323105
-0.0307397
-0.0292088
-0.0277175
-0.0262654
-0.0248518
-0.023476
-0.0221374
-0.0208352
-0.0195683
-0.0183359
-0.0171369
-0.0159702
-0.0148345
-0.0137287
-0.0126512
-0.0116011
-0.0105763
-0.00957606
-0.00859768
-0.0076412
-0.0067023
-0.00578317
-0.0048758
-0.00398762
-0.00310185
-0.00223799
-0.00135709
-0.000502723
-0.130669
-0.139052
-0.143992
-0.14633
-0.14773
-0.149178
-0.150872
-0.152633
-0.154252
-0.155635
-0.156785
-0.157746
-0.158554
-0.159226
-0.159763
-0.160168
-0.16044
-0.160584
-0.160606
-0.16051
-0.160301
-0.159983
-0.159562
-0.159041
-0.158429
-0.157728
-0.156943
-0.156073
-0.155117
-0.154079
-0.152963
-0.151774
-0.150514
-0.149187
-0.147794
-0.146338
-0.144822
-0.143248
-0.141618
-0.139935
-0.1382
-0.136417
-0.134587
-0.132713
-0.130797
-0.128841
-0.126847
-0.124818
-0.122755
-0.120661
-0.118538
-0.116389
-0.114215
-0.112019
-0.109803
-0.10757
-0.105321
-0.103059
-0.100786
-0.0985046
-0.0962171
-0.0939257
-0.0916327
-0.0893404
-0.0870511
-0.0847668
-0.08249
-0.0802226
-0.0779668
-0.0757247
-0.0734982
-0.0712893
-0.0690998
-0.0669316
-0.0647863
-0.0626656
-0.0605709
-0.0585037
-0.0564654
-0.0544571
-0.05248
-0.0505351
-0.0486233
-0.0467454
-0.0449022
-0.0430941
-0.0413218
-0.0395854
-0.0378854
-0.0362219
-0.034595
-0.0330045
-0.0314505
-0.0299325
-0.0284505
-0.0270038
-0.0255921
-0.0242148
-0.0228712
-0.0215606
-0.0202821
-0.019035
-0.0178181
-0.0166307
-0.0154714
-0.0143394
-0.0132331
-0.0121516
-0.0110931
-0.0100569
-0.00904045
-0.00804399
-0.00706318
-0.00610063
-0.00514807
-0.00421373
-0.00328004
-0.00236809
-0.00143673
-0.000532625
-0.120536
-0.128314
-0.133186
-0.135802
-0.137556
-0.139293
-0.141196
-0.143124
-0.144903
-0.146456
-0.147786
-0.148928
-0.149913
-0.150757
-0.151466
-0.152039
-0.152479
-0.152791
-0.15298
-0.15305
-0.153007
-0.152856
-0.152601
-0.152246
-0.151795
-0.151252
-0.150618
-0.149897
-0.149091
-0.148205
-0.147242
-0.146204
-0.145095
-0.143916
-0.14267
-0.141361
-0.139989
-0.138559
-0.137071
-0.135529
-0.133935
-0.132291
-0.130599
-0.128862
-0.127082
-0.125261
-0.123402
-0.121506
-0.119576
-0.117613
-0.115621
-0.113601
-0.111556
-0.109487
-0.107397
-0.105289
-0.103163
-0.101024
-0.098872
-0.0967102
-0.0945405
-0.0923653
-0.0901866
-0.0880067
-0.0858276
-0.0836515
-0.0814804
-0.0793163
-0.0771613
-0.0750173
-0.0728861
-0.0707696
-0.0686695
-0.0665875
-0.0645251
-0.062484
-0.0604655
-0.058471
-0.0565018
-0.054559
-0.0526437
-0.0507568
-0.0488993
-0.047072
-0.0452755
-0.0435104
-0.0417771
-0.0400761
-0.0384077
-0.0367721
-0.0351693
-0.0335993
-0.0320622
-0.0305577
-0.0290855
-0.0276454
-0.0262368
-0.0248594
-0.0235125
-0.0221955
-0.0209077
-0.0196484
-0.0184165
-0.0172113
-0.0160317
-0.0148768
-0.0137452
-0.0126362
-0.011548
-0.0104802
-0.0094301
-0.00839831
-0.00738046
-0.00637953
-0.00538709
-0.00441199
-0.00343611
-0.00248178
-0.00150619
-0.000558505
-0.11158
-0.11875
-0.123486
-0.126278
-0.128288
-0.13024
-0.132302
-0.134357