/*--------------------------------*- C++ -*----------------------------------*\
  =========                 |
  \\      /  F ield         | OpenFOAM: The Open Source CFD Toolbox
   \\    /   O peration     | Website:  https://openfoam.org
    \\  /    A nd           | Version:  7
     \\/     M anipulation  |
\*---------------------------------------------------------------------------*/
FoamFile
{
    version     2.0;
    format      ascii;
    class       volVectorField;
    location    "70";
    object      U;
}
// * * * * * * * * * * * * * * * * * * * * * * * * * * * * * * * * * * * * * //

dimensions      [0 1 -1 0 0 0 0];

internalField   nonuniform List<vector> 
14000
(
(-0.00750702 0.00526403 -4.84151e-22)
(-0.0296252 0.00921977 9.6818e-22)
(-0.0612332 0.0101704 6.21778e-20)
(-0.09051 0.00991673 1.08421e-20)
(-0.116805 0.00919083 2.10995e-20)
(-0.139938 0.00830992 -1.22079e-20)
(-0.159645 0.00727302 -2.26358e-20)
(-0.175034 0.00573138 2.19717e-20)
(-0.188827 0.00530072 2.15203e-20)
(-0.19409 0.00217961 1.67994e-20)
(-0.00859216 0.015248 -7.88087e-20)
(-0.0305678 0.0268145 5.21697e-20)
(-0.0605404 0.0296313 -7.10073e-20)
(-0.0875778 0.0288941 3.80889e-21)
(-0.111098 0.0267475 -5.06653e-20)
(-0.130955 0.0241444 6.22719e-21)
(-0.147208 0.0212494 3.25243e-20)
(-0.157108 0.0163308 -1.43033e-19)
(-0.168006 0.0159102 3.52972e-20)
(-0.164981 0.00543082 1.4996e-22)
(-0.0106385 0.024011 1.46722e-19)
(-0.0324 0.0425765 -1.2986e-20)
(-0.0592532 0.047244 9.86711e-20)
(-0.0819181 0.0461233 -9.24048e-21)
(-0.0999418 0.042674 -1.08032e-19)
(-0.113013 0.0384356 7.97749e-20)
(-0.122685 0.0342992 -3.43065e-20)
(-0.120089 0.0253788 3.44076e-20)
(-0.126001 0.0271011 -1.0447e-19)
(-0.104522 0.00691959 1.48281e-19)
(-0.0134388 0.0309598 1.73243e-20)
(-0.0350228 0.0554807 -2.3348e-19)
(-0.0575236 0.0618584 -1.3895e-19)
(-0.0738477 0.0604245 7.31058e-20)
(-0.0838028 0.0558174 8.68405e-20)
(-0.0860893 0.0500367 -1.44559e-19)
(-0.0864868 0.0450267 6.19353e-20)
(-0.0622599 0.0325248 4.11871e-20)
(-0.061193 0.0371821 1.6547e-19)
(-0.00591193 0.010859 -2.13729e-19)
(-0.0167604 0.0357825 -7.38477e-20)
(-0.0382871 0.064776 1.15e-19)
(-0.0554589 0.0724736 3.36552e-19)
(-0.0635718 0.0706605 -1.67866e-19)
(-0.0629604 0.0649384 1.55803e-19)
(-0.050082 0.0580456 2.62766e-19)
(-0.0374349 0.0502164 -7.29949e-21)
(0.017458 0.0388517 7.47398e-21)
(0.0280256 0.0426196 -2.44187e-19)
(0.139682 0.0214748 1.15178e-19)
(-0.0204072 0.0384748 -1.7509e-19)
(-0.0419594 0.0700545 1.03693e-19)
(-0.0529257 0.0783448 -4.69723e-19)
(-0.050816 0.0758902 2.28713e-19)
(-0.0364371 0.0688528 3.20984e-20)
(-0.00421925 0.0618123 -2.96387e-19)
(0.0292979 0.0487526 -8.70159e-20)
(0.127522 0.0452486 8.69672e-20)
(0.143456 0.0377894 1.65188e-19)
(0.348553 0.0344002 -9.18365e-20)
(-0.0242567 0.0392955 -1.91874e-20)
(-0.0456234 0.0712621 -3.2618e-19)
(-0.049192 0.0791021 3.22238e-19)
(-0.0341922 0.0755501 -2.31667e-19)
(-0.000954852 0.0672286 5.74835e-20)
(0.0573403 0.0611836 1.92606e-19)
(0.122647 0.0427227 -3.5311e-19)
(0.273428 0.0520382 -1.47886e-19)
(0.30412 0.0311676 1.25655e-19)
(0.60796 0.046872 7.32637e-20)
(-0.0282532 0.03866 1.92081e-19)
(-0.0485211 0.068654 5.62887e-19)
(-0.042452 0.0748592 -5.43246e-19)
(-0.00998303 0.069814 1.32867e-19)
(0.050131 0.0608496 3.32593e-19)
(0.144827 0.0567003 -1.69332e-19)
(0.260506 0.0402528 -5.38456e-20)
(0.453003 0.0569911 -2.00119e-19)
(0.535589 0.0402204 2.38445e-19)
(0.869121 0.0682511 -1.67345e-19)
(-0.0323048 0.0369548 -3.52213e-19)
(-0.0493825 0.0627491 9.7365e-20)
(-0.029309 0.0662638 2.03173e-19)
(0.0285837 0.0599312 -1.01059e-19)
(0.128018 0.052472 -3.41492e-19)
(0.271961 0.0517158 4.04486e-19)
(0.450332 0.0511512 2.56773e-19)
(0.659988 0.064903 2.31469e-19)
(0.813998 0.0700582 -1.886e-19)
(1.07753 0.0959469 1.42736e-19)
(-0.0360664 0.0344115 -8.74732e-20)
(-0.0461869 0.0541714 -2.84608e-19)
(-0.0045174 0.0545378 -1.68878e-19)
(0.0913659 0.0487191 1.98322e-19)
(0.245297 0.0476165 3.80797e-20)
(0.447671 0.0556063 -2.38312e-19)
(0.672074 0.0743236 2.77759e-19)
(0.879761 0.0873886 -3.8999e-19)
(1.05266 0.111581 -2.19219e-19)
(1.19648 0.11648 7.63524e-20)
(-0.038876 0.0311258 2.13699e-19)
(-0.035908 0.0435012 2.99924e-19)
(0.0389736 0.0416209 1.24601e-19)
(0.189331 0.0409329 1.73634e-19)
(0.407862 0.0530692 -1.00665e-19)
(0.657702 0.0766007 -2.57451e-19)
(0.887893 0.10557 1.02636e-19)
(1.0681 0.122391 1.25904e-19)
(1.18819 0.144706 4.19061e-19)
(1.23264 0.120197 -2.46205e-19)
(-0.03977 0.0270466 3.1863e-19)
(-0.0145627 0.0312987 -3.88639e-20)
(0.109313 0.0306209 2.87243e-19)
(0.329065 0.0431414 -1.2765e-19)
(0.603773 0.0738912 3.89987e-19)
(0.863512 0.110709 1.54507e-19)
(1.05936 0.140175 1.91127e-19)
(1.18264 0.15461 -3.12714e-19)
(1.2353 0.157751 -1.27682e-19)
(1.26009 0.143321 1.22429e-19)
(-0.0374158 0.0220012 2.28741e-20)
(0.0226823 0.0184673 -2.80719e-19)
(0.213678 0.026603 -2.66455e-19)
(0.503985 0.060801 -6.72413e-20)
(0.80089 0.108129 -1.06204e-19)
(1.028 0.147865 1.15698e-19)
(1.16632 0.17029 -4.78803e-19)
(1.23128 0.173795 3.19957e-19)
(1.2548 0.171848 -3.15355e-21)
(1.25877 0.153361 -3.76752e-19)
(-0.0300935 0.0158719 -4.54489e-19)
(0.0812519 0.00713971 -9.27134e-20)
(0.353338 0.0357714 -9.83339e-21)
(0.69036 0.0933752 2.86288e-20)
(0.966176 0.147299 1.49987e-19)
(1.13729 0.180599 -4.67875e-19)
(1.22019 0.19175 4.57582e-19)
(1.25082 0.189554 -1.00724e-19)
(1.25384 0.180105 5.90365e-20)
(1.24788 0.162747 9.69136e-20)
(-0.0156943 0.00883092 1.21351e-20)
(0.165803 0.00194084 3.72605e-19)
(0.517094 0.061345 9.45655e-20)
(0.859435 0.134277 -5.07582e-20)
(1.08594 0.184365 -4.25132e-20)
(1.20061 0.206809 2.72419e-19)
(1.24423 0.209236 -1.20394e-21)
(1.25191 0.201218 1.9873e-19)
(1.24598 0.188419 -6.19532e-20)
(1.23945 0.172736 -2.89489e-21)
(0.0085569 0.00166721 7.42557e-20)
(0.277057 0.00955419 -1.35235e-19)
(0.682834 0.100408 1.06331e-19)
(0.994717 0.176981 1.40359e-19)
(1.16436 0.217185 -9.20766e-20)
(1.23321 0.228822 -1.52353e-20)
(1.2496 0.223679 -2.65877e-19)
(1.24549 0.212094 -1.74057e-19)
(1.23605 0.19651 2.12649e-19)
(1.22591 0.181352 -1.33614e-19)
(0.0455228 -0.00343988 9.61013e-20)
(0.408305 0.0347395 1.71359e-19)
(0.830726 0.147147 1.20278e-19)
(1.0938 0.218467 -1.81459e-19)
(1.21102 0.246431 2.14131e-19)
(1.24546 0.247927 -1.13453e-19)
(1.24542 0.237143 -2.83756e-20)
(1.23498 0.222305 -1.01886e-20)
(1.22333 0.204715 -6.02261e-20)
(1.21376 0.190548 1.92103e-20)
(0.0965644 -0.00296316 2.43959e-19)
(0.546119 0.0765568 -1.35435e-19)
(0.951634 0.19726 8.47639e-20)
(1.16084 0.257828 9.89053e-20)
(1.23445 0.272868 -7.05241e-20)
(1.2452 0.265601 1.06805e-19)
(1.23538 0.25004 3.88621e-20)
(1.22193 0.232476 5.16344e-20)
(1.21024 0.213376 3.28623e-20)
(1.19947 0.19892 5.24671e-20)
(0.160466 0.00665887 -8.98934e-20)
(0.676166 0.13029 -1.31681e-19)
(1.04411 0.248416 -1.03062e-19)
(1.20161 0.294785 -9.76542e-20)
(1.24145 0.297325 -4.29036e-20)
(1.23671 0.282455 4.70864e-20)
(1.22176 0.26284 -2.31885e-20)
(1.20725 0.242616 -2.21985e-22)
(1.19527 0.221959 -2.13207e-20)
(1.18489 0.206858 3.8626e-21)
(0.233346 0.0274632 2.40633e-20)
(0.788329 0.191098 -5.23537e-21)
(1.1098 0.299232 2.32586e-20)
(1.22161 0.329478 1.81851e-20)
(1.23667 0.320319 1.36104e-20)
(1.22265 0.298877 -3.64447e-20)
(1.20533 0.275457 1.68295e-20)
(1.19066 0.252551 -1.64043e-20)
(1.17938 0.230353 -5.23326e-21)
(1.16926 0.213888 -8.53508e-21)
(0.309615 0.0594073 1.24893e-21)
(0.878004 0.25529 -7.31277e-22)
(1.15135 0.348685 -5.04077e-21)
(1.22528 0.362092 6.05411e-20)
(1.22322 0.342152 -1.63938e-20)
(1.20424 0.314804 -1.53451e-20)
(1.18638 0.287712 1.99159e-21)
(1.17238 0.262045 -1.63577e-21)
(1.16179 0.238016 -6.05605e-21)
(1.15259 0.219954 -1.25895e-20)
(0.383203 0.10087 -1.03549e-19)
(0.944251 0.32029 1.95891e-20)
(1.17179 0.395942 -1.6685e-19)
(1.21593 0.392578 -5.839e-20)
(1.20301 0.362786 -1.78123e-20)
(1.18214 0.329992 -2.24613e-21)
(1.16499 0.299248 -1.17078e-20)
(1.15218 0.270755 -6.29073e-21)
(1.14285 0.244831 5.93269e-21)
(1.13435 0.224941 8.65056e-21)
(0.448562 0.149536 1.78671e-19)
(0.987499 0.384025 -9.10962e-20)
(1.17396 0.440099 1.2672e-19)
(1.19594 0.420679 5.03597e-20)
(1.17717 0.381944 -1.75425e-20)
(1.15663 0.343999 5.8235e-20)
(1.14119 0.309621 -1.47471e-20)
(1.13027 0.278386 1.66846e-20)
(1.12228 0.250745 3.31109e-21)
(1.11442 0.228769 5.48948e-21)
(0.501412 0.202815 -1.09453e-19)
(1.00905 0.444712 4.14362e-19)
(1.16039 0.480315 -7.62104e-20)
(1.16704 0.445951 -4.2369e-20)
(1.14645 0.399104 8.88931e-20)
(1.12804 0.356292 -3.68975e-20)
(1.11515 0.318352 -1.27734e-20)
(1.10661 0.284589 -8.13586e-21)
(1.10006 0.255682 1.09776e-21)
(1.09359 0.231408 -1.05928e-20)
(0.539058 0.257937 -1.98519e-19)
(1.01062 0.500701 -2.21327e-19)
(1.13314 0.51567 1.35051e-19)
(1.13063 0.467744 3.7228e-20)
(1.11157 0.413589 -4.37433e-20)
(1.09674 0.366318 -5.50063e-21)
(1.0871 0.325069 1.90812e-20)
(1.08113 0.289132 6.59602e-21)
(1.07624 0.259015 -2.08541e-20)
(1.07214 0.232693 -2.48501e-21)
(0.56036 0.312013 6.85143e-20)
(0.99412 0.550434 2.84506e-19)
(1.09401 0.545136 -5.71557e-20)
(1.0881 0.485238 4.44825e-21)
(1.07319 0.424684 -3.30306e-21)
(1.06288 0.373466 1.36576e-21)
(1.0571 0.329473 1.513e-20)
(1.05394 0.291686 -1.18835e-20)
(1.05133 0.260469 1.98238e-20)
(1.0501 0.232532 -1.95669e-20)
(0.565516 0.36226 -5.06382e-19)
(0.961327 0.59228 2.53879e-20)
(1.04505 0.567715 -1.05345e-19)
(1.04058 0.497401 1.27689e-20)
(1.03164 0.431741 -1.90632e-21)
(1.02674 0.377229 5.88977e-20)
(1.02542 0.331068 -4.7993e-20)
(1.02559 0.291923 2.79324e-20)
(1.02593 0.259754 -2.66496e-20)
(1.0282 0.230854 -8.9398e-20)
(0.555601 0.406394 2.56835e-19)
(0.913795 0.62416 -2.39888e-19)
(0.988575 0.58254 -1.68633e-20)
(0.989017 0.503438 -3.28731e-21)
(0.987518 0.433991 9.15478e-20)
(0.988857 0.377066 -8.67508e-21)
(0.992472 0.329442 7.18221e-20)
(0.996627 0.289446 8.35379e-21)
(1.0009 0.256693 5.72458e-21)
(1.00727 0.227753 1.2517e-19)
(0.531737 0.442723 1.42026e-19)
(0.854012 0.644495 -1.98162e-20)
(0.926602 0.588364 -7.92144e-21)
(0.934505 0.502891 7.19599e-20)
(0.941571 0.430893 -3.06731e-20)
(0.949708 0.372486 -1.09794e-19)
(0.958758 0.324065 -7.06985e-20)
(0.967654 0.283663 7.04222e-21)
(0.976928 0.250764 9.73867e-20)
(0.987686 0.223582 -7.95323e-20)
(0.495106 0.468691 -1.17865e-20)
(0.786021 0.652953 -2.59965e-20)
(0.861003 0.584274 -1.00201e-19)
(0.878189 0.495204 4.65244e-21)
(0.894586 0.422016 1.50418e-19)
(0.909939 0.363141 -4.80047e-20)
(0.924824 0.314604 1.79903e-19)
(0.939082 0.274005 -2.48517e-19)
(0.953926 0.2407 -1.67507e-19)
(0.968291 0.21716 -3.6053e-20)
(0.448042 0.481036 3.61554e-20)
(0.712359 0.647991 5.38481e-20)
(0.793314 0.570167 3.45589e-20)
(0.821264 0.479935 -5.34742e-20)
(0.847444 0.407078 -2.2708e-19)
(0.870279 0.348847 2.14423e-19)
(0.891318 0.301074 8.31276e-20)
(0.911138 0.260877 1.07831e-19)
(0.931223 0.226046 3.08863e-19)
(0.946447 0.199855 -7.50085e-20)
(0.394715 0.479407 1.31053e-19)
(0.636027 0.62918 -2.32483e-20)
(0.72542 0.545845 -5.78615e-20)
(0.764988 0.456828 1.12364e-19)
(0.801111 0.385888 2.01061e-19)
(0.831567 0.329461 -4.77061e-19)
(0.858951 0.283462 -7.43703e-20)
(0.884045 0.245261 -1.94009e-19)
(0.90723 0.212995 3.929e-20)
(0.92198 0.18814 -1.40957e-19)
(0.33828 0.46342 -2.65955e-19)
(0.559683 0.59618 -1.20295e-19)
(0.659113 0.511374 4.0057e-19)
(0.710652 0.425885 -2.29888e-19)
(0.756587 0.358451 -3.31779e-19)
(0.794599 0.304934 3.11383e-19)
(0.828285 0.261281 -2.8575e-19)
(0.858497 0.22479 1.42051e-19)
(0.885021 0.193875 -1.76749e-19)
(0.901913 0.170299 2.79715e-19)
(0.281871 0.433501 -1.08366e-19)
(0.486124 0.549367 5.94558e-19)
(0.596201 0.467021 -6.19682e-19)
(0.659545 0.387324 2.5912e-20)
(0.71488 0.325016 2.02483e-19)
(0.760078 0.27577 -1.25469e-20)
(0.799481 0.23585 4.36933e-19)
(0.833851 0.202702 -3.8111e-19)
(0.863112 0.174603 2.77781e-19)
(0.883113 0.152538 -1.87871e-19)
(0.228307 0.390671 -1.77314e-19)
(0.417862 0.489473 9.69652e-20)
(0.53841 0.4133 2.67003e-19)
(0.612935 0.341543 3.0715e-19)
(0.677031 0.285798 -7.05392e-20)
(0.728957 0.241787 2.91499e-19)
(0.773682 0.206123 2.45106e-20)
(0.811877 0.17656 3.14896e-20)
(0.843828 0.151692 -1.11926e-19)
(0.866884 0.132271 -6.07086e-21)
(0.179994 0.336499 5.35084e-19)
(0.357155 0.417699 -3.71481e-19)
(0.4874 0.350997 -4.96472e-19)
(0.571983 0.289251 2.78813e-20)
(0.643844 0.241538 -1.46088e-19)
(0.701649 0.20398 1.22053e-19)
(0.750909 0.173629 -4.46396e-19)
(0.79236 0.14847 1.31679e-19)
(0.826902 0.127212 3.74851e-19)
(0.853064 0.110436 -1.81335e-19)
(0.13881 0.272661 7.26985e-20)
(0.306027 0.335801 4.6195e-19)
(0.444755 0.281183 3.3373e-19)
(0.537834 0.231237 -3.12224e-19)
(0.616272 0.192734 1.94856e-19)
(0.679029 0.162465 -8.82925e-20)
(0.732049 0.138052 -5.75217e-20)
(0.776174 0.117869 -2.73593e-20)
(0.812951 0.100815 -1.15929e-19)
(0.841894 0.0872302 2.14068e-19)
(0.106314 0.200797 -3.58354e-19)
(0.26614 0.245815 -4.17806e-19)
(0.411683 0.205314 -6.75922e-21)
(0.511369 0.168616 2.97587e-19)
(0.594924 0.140366 -5.45944e-20)
(0.66152 0.118184 -5.90342e-20)
(0.717425 0.100308 8.57962e-20)
(0.763609 0.08553 -4.63604e-20)
(0.802192 0.0730122 -3.69964e-20)
(0.833448 0.0629596 3.84699e-20)
(0.083852 0.122944 5.21009e-20)
(0.238804 0.149909 -6.85347e-20)
(0.389116 0.124999 2.95742e-19)
(0.493324 0.102567 -7.25492e-20)
(0.580382 0.08531 1.36892e-19)
(0.649598 0.0717691 -3.67779e-20)
(0.707457 0.0608683 -5.73769e-20)
(0.755036 0.0518607 9.19113e-20)
(0.79488 0.0442115 1.27948e-20)
(0.827803 0.0380227 -3.31044e-20)
(0.0723765 0.0414026 -1.40989e-21)
(0.22491 0.0503842 1.85432e-21)
(0.377676 0.0419772 1.37476e-19)
(0.484178 0.0344302 -6.87146e-20)
(0.573014 0.0286256 3.1525e-20)
(0.643558 0.024072 -1.67033e-20)
(0.702402 0.0204076 1.99175e-20)
(0.750684 0.0173801 -2.61649e-20)
(0.791175 0.014805 -1.59448e-20)
(0.824975 0.0127127 5.63431e-24)
(0.0723759 -0.041384 1.40995e-21)
(0.224909 -0.0503597 -1.85433e-21)
(0.377675 -0.0419549 -1.37477e-19)
(0.484177 -0.0344107 -2.45128e-20)
(0.573013 -0.0286084 -4.15763e-20)
(0.643557 -0.0240569 2.22554e-20)
(0.702401 -0.0203943 3.53087e-20)
(0.750683 -0.0173684 -3.24548e-20)
(0.791174 -0.0147947 -2.846e-20)
(0.824975 -0.0127037 -1.9544e-20)
(0.08385 -0.122926 1.6669e-19)
(0.238801 -0.149885 -1.18499e-19)
(0.389113 -0.124977 1.68767e-19)
(0.493321 -0.102548 -2.34467e-21)
(0.580379 -0.0852929 9.8462e-20)
(0.649596 -0.071754 -8.09963e-21)
(0.707455 -0.0608551 -4.98361e-20)
(0.755034 -0.0518491 2.01467e-19)
(0.794878 -0.0442013 -4.72704e-20)
(0.827802 -0.0380138 -1.24802e-21)
(0.106311 -0.200779 -3.57777e-19)
(0.266135 -0.245791 4.16443e-20)
(0.411678 -0.205292 -2.27341e-19)
(0.511365 -0.168596 2.10547e-20)
(0.59492 -0.14035 1.96119e-19)
(0.661516 -0.118169 -1.32591e-19)
(0.717421 -0.100295 5.26541e-20)
(0.763606 -0.0855186 -4.91312e-20)
(0.802189 -0.0730022 1.30475e-19)
(0.833446 -0.0629508 -1.73558e-19)
(0.138805 -0.272643 -5.73733e-21)
(0.30602 -0.335777 5.12572e-19)
(0.444749 -0.281162 2.79497e-19)
(0.537828 -0.231218 -1.36066e-19)
(0.616266 -0.192717 -1.60109e-19)
(0.679024 -0.16245 2.39942e-19)
(0.732045 -0.138039 -9.2072e-20)
(0.77617 -0.117858 -5.7583e-20)
(0.812947 -0.100805 -1.92087e-19)
(0.84189 -0.0872217 2.45044e-19)
(0.179988 -0.336481 1.57101e-19)
(0.357146 -0.417676 -2.2736e-19)
(0.487392 -0.350976 -6.27547e-19)
(0.571975 -0.289233 2.98463e-19)
(0.643837 -0.241522 -2.65992e-19)
(0.701642 -0.203966 -3.76103e-19)
(0.750903 -0.173616 2.9016e-20)
(0.792354 -0.148459 -1.21627e-20)
(0.826897 -0.127202 2.73834e-19)
(0.853059 -0.110428 -1.27678e-19)
(0.228299 -0.390653 2.66276e-19)
(0.417851 -0.48945 -1.52425e-19)
(0.5384 -0.41328 7.74841e-19)
(0.612925 -0.341525 -3.624e-19)
(0.677022 -0.285782 -3.54908e-20)
(0.728949 -0.241773 4.12756e-19)
(0.773675 -0.206111 1.26984e-19)
(0.81187 -0.176549 -1.05768e-19)
(0.843821 -0.151683 -1.76881e-19)
(0.866878 -0.132264 9.50225e-20)
(0.281862 -0.433484 -4.74263e-21)
(0.486111 -0.549344 4.06566e-19)
(0.596189 -0.467001 -4.45421e-19)
(0.659534 -0.387306 3.05828e-19)
(0.71487 -0.325001 -7.53434e-20)
(0.760068 -0.275757 -2.47276e-19)
(0.799472 -0.235839 4.06616e-19)
(0.833843 -0.202692 1.56684e-19)
(0.863104 -0.174594 -1.36058e-19)
(0.883106 -0.152531 -6.86028e-20)
(0.33827 -0.463403 -1.36789e-19)
(0.559669 -0.596158 -6.40595e-19)
(0.659099 -0.511355 6.22235e-19)
(0.710639 -0.425868 -1.65402e-19)
(0.756575 -0.358437 -3.6145e-19)
(0.794588 -0.304921 1.73907e-19)
(0.828275 -0.26127 3.55382e-20)
(0.858488 -0.224781 1.90596e-19)
(0.885012 -0.193867 -2.19913e-19)
(0.901905 -0.170292 1.46833e-19)
(0.394703 -0.479391 2.36629e-19)
(0.636011 -0.62916 -4.94402e-20)
(0.725405 -0.545827 -2.20614e-19)
(0.764974 -0.456812 8.95436e-20)
(0.801098 -0.385874 3.44792e-19)
(0.831554 -0.329449 -3.81804e-19)
(0.85894 -0.283452 -2.45871e-19)
(0.884034 -0.245252 -1.99943e-19)
(0.90722 -0.212988 1.61069e-19)
(0.921971 -0.188134 -1.20413e-19)
(0.44803 -0.481021 -5.31595e-20)
(0.712341 -0.647971 9.3479e-20)
(0.793297 -0.570149 5.63068e-20)
(0.821248 -0.47992 -1.46241e-19)
(0.847429 -0.407065 -2.40302e-20)
(0.870265 -0.348836 2.12298e-19)
(0.891306 -0.301065 -2.1913e-19)
(0.911126 -0.260869 3.09824e-19)
(0.931212 -0.22604 1.54129e-19)
(0.946437 -0.19985 -5.29994e-20)
(0.495092 -0.468677 -4.54954e-21)
(0.786002 -0.652935 -2.9263e-20)
(0.860985 -0.584258 -9.01306e-20)
(0.878172 -0.49519 -6.17568e-20)
(0.89457 -0.422004 6.00057e-20)
(0.909924 -0.363131 1.56555e-19)
(0.92481 -0.314595 -6.73802e-20)
(0.939069 -0.273998 -8.14094e-20)
(0.953914 -0.240694 -2.98675e-19)
(0.96828 -0.217155 1.68878e-19)
(0.531723 -0.442711 1.85476e-19)
(0.853992 -0.644478 1.82824e-20)
(0.926581 -0.588349 -2.9541e-20)
(0.934486 -0.502877 4.90028e-20)
(0.941554 -0.430881 -1.47255e-19)
(0.949692 -0.372477 -7.6064e-20)
(0.958743 -0.324057 -9.7386e-20)
(0.96764 -0.283657 1.77547e-19)
(0.976915 -0.250759 7.23747e-20)
(0.987674 -0.223578 -6.89259e-20)
(0.555586 -0.406383 9.9036e-20)
(0.913773 -0.624144 -1.43022e-19)
(0.988553 -0.582526 -1.97848e-20)
(0.988996 -0.503425 6.50444e-21)
(0.987499 -0.43398 3.61294e-20)
(0.98884 -0.377057 -9.53283e-21)
(0.992455 -0.329435 1.7721e-19)
(0.996611 -0.28944 -1.45325e-19)
(1.00089 -0.256689 -1.08071e-20)
(1.00726 -0.22775 1.97823e-19)
(0.565501 -0.36225 -3.70481e-19)
(0.961304 -0.592265 -1.0785e-19)
(1.04503 -0.567702 -1.02773e-20)
(1.04056 -0.497389 -9.45858e-22)
(1.03162 -0.431732 5.90272e-21)
(1.02672 -0.377221 7.95028e-20)
(1.0254 -0.331061 -1.15561e-19)
(1.02558 -0.291919 2.68871e-20)
(1.02592 -0.259751 -3.27551e-20)
(1.02819 -0.230852 -5.35202e-20)
(0.560345 -0.312004 8.94883e-21)
(0.994096 -0.550421 2.92833e-19)
(1.09398 -0.545124 3.06651e-20)
(1.08808 -0.485228 -1.67756e-20)
(1.07316 -0.424675 -1.69763e-22)
(1.06286 -0.373459 2.75531e-21)
(1.05708 -0.329468 1.937e-20)
(1.05393 -0.291682 -2.84229e-20)
(1.05132 -0.260466 4.03308e-21)
(1.05009 -0.232532 -1.83878e-21)
(0.539045 -0.25793 7.34036e-20)
(1.0106 -0.500689 -1.37143e-19)
(1.13311 -0.515659 4.83332e-20)
(1.13061 -0.467735 6.26201e-20)
(1.11155 -0.413581 -4.52278e-20)
(1.09671 -0.366312 -3.37557e-21)
(1.08708 -0.325065 -1.17745e-20)
(1.08111 -0.289129 1.51548e-20)
(1.07622 -0.259014 -2.15878e-20)
(1.07212 -0.232694 2.11461e-20)
(0.501399 -0.202809 1.00972e-19)
(1.00903 -0.4447 1.73749e-19)
(1.16036 -0.480305 9.89163e-20)
(1.16702 -0.445943 -1.06588e-19)
(1.14643 -0.399097 9.73506e-20)
(1.12802 -0.356286 -4.17264e-20)
(1.11513 -0.318349 -5.79354e-21)
(1.10659 -0.284588 -5.29263e-21)
(1.10004 -0.255682 1.78889e-21)
(1.09357 -0.231409 -1.18755e-20)
(0.448551 -0.149531 2.59884e-19)
(0.987474 -0.384015 -1.36705e-19)
(1.17393 -0.440089 7.81441e-20)
(1.19592 -0.420671 7.20147e-20)
(1.17714 -0.381937 -3.1734e-20)
(1.15661 -0.343995 4.87949e-20)
(1.14116 -0.309618 1.4929e-20)
(1.13025 -0.278385 1.56255e-20)
(1.12226 -0.250746 8.68288e-21)
(1.1144 -0.228772 3.65691e-21)
(0.383194 -0.100867 -9.50815e-20)
(0.944227 -0.32028 -1.32222e-19)
(1.17176 -0.395933 -8.7319e-20)
(1.21591 -0.392571 -7.99866e-20)
(1.20298 -0.36278 -2.7929e-20)
(1.18211 -0.329988 3.6391e-20)
(1.16496 -0.299246 -1.46448e-20)
(1.15216 -0.270755 2.96952e-21)
(1.14283 -0.244833 -7.89566e-21)
(1.13433 -0.224945 4.77435e-21)
(0.309609 -0.0594048 2.46082e-20)
(0.877981 -0.255281 -5.37596e-21)
(1.15132 -0.348676 2.20827e-20)
(1.22525 -0.362084 1.45157e-20)
(1.2232 -0.342146 1.26566e-20)
(1.20421 -0.3148 -2.93157e-20)
(1.18636 -0.28771 1.30686e-20)
(1.17235 -0.262045 -1.21479e-20)
(1.16177 -0.23802 -2.97428e-21)
(1.15257 -0.21996 -3.93852e-21)
(0.233344 -0.0274616 1.02451e-21)
(0.788308 -0.191089 -7.79017e-22)
(1.10977 -0.299223 -5.21451e-21)
(1.22158 -0.329471 6.67887e-20)
(1.23664 -0.320313 -1.81088e-20)
(1.22262 -0.298874 -2.08296e-20)
(1.2053 -0.275455 3.80372e-21)
(1.19063 -0.252552 -3.82568e-21)
(1.17936 -0.230358 -9.02193e-21)
(1.16923 -0.213896 -1.98612e-20)
(0.160467 -0.00665781 -9.84838e-20)
(0.676148 -0.130283 2.13621e-20)
(1.04408 -0.248407 -1.83318e-19)
(1.20158 -0.294777 -6.94637e-20)
(1.24142 -0.297319 -2.57247e-20)
(1.23668 -0.282451 -7.59655e-21)
(1.22173 -0.262838 -1.94715e-20)
(1.20722 -0.242617 -1.85454e-20)
(1.19524 -0.221964 5.63047e-21)
(1.18486 -0.206867 1.37926e-20)
(0.096568 0.00296413 1.66595e-19)
(0.546104 -0.0765505 -9.34318e-20)
(0.951607 -0.197251 1.43671e-19)
(1.16081 -0.25782 7.35621e-20)
(1.23442 -0.272861 -4.32139e-20)
(1.24517 -0.265596 1.33383e-19)
(1.23534 -0.250038 -2.79227e-20)
(1.2219 -0.232478 5.11485e-20)
(1.21021 -0.213382 3.52149e-21)
(1.19944 -0.198931 5.07009e-20)
(0.0455286 0.00344117 -1.02884e-19)
(0.408296 -0.0347345 4.27116e-19)
(0.830701 -0.147138 -9.37786e-20)
(1.09376 -0.218457 -7.96249e-20)
(1.21099 -0.246422 2.03367e-19)
(1.24542 -0.24792 -9.0358e-20)
(1.24538 -0.237139 -4.6824e-20)
(1.23494 -0.222306 -2.51952e-20)
(1.22329 -0.204721 -9.5706e-20)
(1.21372 -0.19056 3.43122e-20)
(0.00856406 -0.00166552 -1.86231e-19)
(0.277055 -0.00955044 -2.53611e-19)
(0.682814 -0.100399 2.00389e-19)
(0.994687 -0.176969 5.63271e-20)
(1.16433 -0.217173 -1.45241e-19)
(1.23318 -0.228813 -1.47055e-19)
(1.24956 -0.223673 7.83454e-21)
(1.24545 -0.212093 -9.56996e-20)
(1.23601 -0.196517 1.45623e-19)
(1.22586 -0.181367 -2.09339e-20)
(-0.0156868 -0.00882923 8.28184e-20)
(0.165807 -0.00193805 3.96258e-19)
(0.517081 -0.0613365 -4.97585e-20)
(0.859409 -0.134264 1.40022e-20)
(1.08591 -0.184351 -3.30487e-20)
(1.20057 -0.206795 1.92769e-19)
(1.24419 -0.209227 6.52858e-20)
(1.25186 -0.201215 1.11095e-19)
(1.24593 -0.188425 -1.01544e-19)
(1.2394 -0.172752 6.10582e-20)
(-0.0300866 -0.0158709 -6.13033e-19)
(0.0812604 -0.00713751 1.55851e-19)
(0.353335 -0.0357638 -1.99011e-19)
(0.690341 -0.0933608 2.39935e-19)
(0.966144 -0.14728 -5.92529e-20)
(1.13725 -0.18058 -3.38217e-19)
(1.22014 -0.191735 1.8106e-19)
(1.25076 -0.189546 -6.76955e-20)
(1.25378 -0.18011 6.15531e-20)
(1.24782 -0.162765 1.84134e-19)
(-0.0374102 -0.0220016 2.87055e-19)
(0.0226934 -0.0184653 -4.31583e-19)
(0.213684 -0.0265951 -5.34135e-20)
(0.503977 -0.0607849 -2.66511e-19)
(0.800864 -0.108106 -3.2917e-19)
(1.02796 -0.147838 1.62144e-19)
(1.16626 -0.170265 -2.01555e-19)
(1.23121 -0.173782 -2.42505e-20)
(1.25473 -0.171845 -1.88937e-20)
(1.2587 -0.153385 -2.3529e-19)
(-0.0397664 -0.0270486 2.66604e-19)
(-0.0145513 -0.0312956 -1.02084e-19)
(0.109324 -0.0306094 9.73664e-20)
(0.329068 -0.0431206 -1.44402e-19)
(0.603759 -0.0738611 1.4208e-19)
(0.863475 -0.110672 2.63282e-19)
(1.0593 -0.140139 1.56044e-19)
(1.18256 -0.154583 -7.73749e-21)
(1.23521 -0.157746 -1.7385e-19)
(1.25999 -0.14334 1.3945e-19)
(-0.0388743 -0.0311285 3.1017e-19)
(-0.0358983 -0.0434935 9.94539e-20)
(0.0389845 -0.0416001 1.66757e-19)
(0.189338 -0.0409008 4.8994e-20)
(0.407858 -0.053027 -2.38324e-19)
(0.657675 -0.0765516 7.14636e-20)
(0.887834 -0.105517 -2.71627e-19)
(1.068 -0.122351 3.75926e-19)
(1.18808 -0.144678 2.25502e-19)
(1.2325 -0.120233 6.02055e-20)
(-0.0360661 -0.0344124 -4.38851e-19)
(-0.0461805 -0.0541539 -1.09236e-19)
(-0.00451351 -0.0545001 -1.27315e-19)
(0.0913659 -0.0486666 7.40833e-20)
(0.24529 -0.0475528 3.01079e-19)
(0.447647 -0.0555362 -2.42367e-19)
(0.672022 -0.0742464 -1.05196e-19)
(0.87966 -0.0873293 -1.32728e-19)
(1.05252 -0.111527 -4.23859e-19)
(1.19631 -0.11649 1.07656e-19)
(-0.0323045 -0.0369503 -1.79073e-19)
(-0.04938 -0.0627154 3.9185e-20)
(-0.0293162 -0.0662017 1.95651e-20)
(0.0285661 -0.05985 -1.19854e-19)
(0.127992 -0.0523772 -1.91887e-19)
(0.271921 -0.0516127 5.06974e-19)
(0.450275 -0.0510375 7.12559e-20)
(0.659882 -0.0648116 2.215e-19)
(0.813831 -0.0699707 -4.36433e-20)
(1.07732 -0.0959218 1.6681e-19)
(-0.0282517 -0.0386458 3.19466e-19)
(-0.0485217 -0.068598 7.1466e-20)
(-0.0424704 -0.0747665 -3.37771e-19)
(-0.0100216 -0.0696981 1.88223e-19)
(0.0500747 -0.0607169 3.06377e-19)
(0.144751 -0.0565558 -2.98559e-19)
(0.260424 -0.0400941 2.54684e-19)
(0.452866 -0.0568518 -1.38394e-19)
(0.535411 -0.0400838 2.01372e-19)
(0.868873 -0.0681804 -3.1626e-19)
(-0.024253 -0.0392677 6.14217e-20)
(-0.0456249 -0.0711791 -4.60565e-19)
(-0.0492182 -0.0789761 4.47676e-19)
(-0.0342471 -0.0753974 -2.56371e-20)
(-0.00103812 -0.0670558 -1.4897e-19)
(0.0572283 -0.0609966 -5.13845e-21)
(0.122524 -0.042516 -3.92196e-19)
(0.273242 -0.0518433 3.52522e-19)
(0.303922 -0.030976 -2.81987e-19)
(0.607664 -0.0467452 1.96538e-19)
(-0.0204008 -0.0384303 9.21063e-20)
(-0.0419602 -0.0699419 -4.62423e-20)
(-0.0529554 -0.0781859 -1.58454e-19)
(-0.0508786 -0.0757032 -1.9456e-19)
(-0.0365355 -0.0686444 4.41031e-20)
(-0.00434907 -0.0615841 -2.16525e-19)
(0.0291396 -0.0485007 -7.21228e-21)
(0.127306 -0.0450085 -3.27901e-20)
(0.143228 -0.0375562 9.73477e-20)
(0.348224 -0.0342182 4.53954e-21)
(-0.0167517 -0.0357199 -2.64146e-19)
(-0.0382866 -0.0646344 1.89102e-19)
(-0.0554876 -0.0722844 2.66097e-19)
(-0.0636334 -0.0704438 -1.14779e-20)
(-0.0630558 -0.064701 8.78859e-20)
(-0.0502082 -0.0577869 -8.26211e-20)
(-0.0376083 -0.0499379 3.30402e-19)
(0.0172517 -0.0385667 -1.06407e-19)
(0.0277879 -0.0423609 -3.38177e-19)
(0.139379 -0.0212623 1.5992e-19)
(-0.0134294 -0.0308797 -1.86301e-20)
(-0.035021 -0.0553129 -2.12829e-19)
(-0.0575481 -0.0616435 -1.68339e-19)
(-0.0739005 -0.0601837 1.64045e-19)
(-0.0838843 -0.0555568 -1.20986e-19)
(-0.0861996 -0.0497577 5.51116e-20)
(-0.0866301 -0.0447351 4.12983e-20)
(-0.0624231 -0.0322167 1.9293e-20)
(-0.0613991 -0.0369116 1.0027e-19)
(-0.00609932 -0.0106437 -1.89113e-19)
(-0.01063 -0.0239158 1.45668e-19)
(-0.0323977 -0.0423876 1.83933e-19)
(-0.0592714 -0.0470093 5.73833e-21)
(-0.0819576 -0.0458648 -1.47507e-19)
(-0.100002 -0.0423974 2.40896e-20)
(-0.113095 -0.0381428 3.78494e-20)
(-0.122786 -0.0339965 -5.74421e-20)
(-0.120203 -0.0250781 2.99607e-20)
(-0.126134 -0.0268371 3.07376e-20)
(-0.104649 -0.00671166 -3.16046e-20)
(-0.0085863 -0.0151417 -2.07722e-20)
(-0.0305659 -0.0266106 2.86642e-20)
(-0.0605513 -0.0293833 -1.27988e-19)
(-0.0876019 -0.0286243 3.32654e-20)
(-0.111134 -0.0264612 -7.3347e-20)
(-0.131004 -0.0238444 1.98709e-20)
(-0.147267 -0.0209436 3.57948e-20)
(-0.157173 -0.0160363 -6.40608e-20)
(-0.168077 -0.0156589 -7.4302e-21)
(-0.165046 -0.00525123 2.86115e-20)
(-0.00750492 -0.00515199 -1.43063e-20)
(-0.0296245 -0.00900823 3.05518e-21)
(-0.0612369 -0.0099157 6.82147e-20)
(-0.090518 -0.0096414 2.70858e-20)
(-0.116817 -0.00890017 -1.59444e-20)
(-0.139954 -0.00800696 9.05157e-21)
(-0.159664 -0.00696682 -1.21276e-20)
(-0.175055 -0.00544022 1.87042e-20)
(-0.188849 -0.00505662 1.23884e-20)
(-0.194108 -0.00201688 5.41154e-24)
(-0.197801 0.00318399 -4.92716e-20)
(-0.201552 0.00288889 3.52573e-20)
(-0.204791 0.00251261 4.79045e-22)
(-0.207644 0.0021671 -6.10585e-21)
(-0.210178 0.00185374 -1.21847e-20)
(-0.212428 0.00156828 -1.40026e-20)
(-0.214426 0.00130622 -2.39422e-20)
(-0.2162 0.00106264 4.25723e-20)
(-0.217771 0.000833082 -2.41286e-20)
(-0.219154 0.000614002 4.94637e-20)
(-0.220362 0.000403014 -3.11463e-20)
(-0.221402 0.00019891 -4.49202e-21)
(-0.222273 1.47044e-06 -1.0983e-20)
(-0.222975 -0.000188528 2.84721e-20)
(-0.223527 -0.000367501 -1.87486e-20)
(-0.223943 -0.000526067 1.91074e-20)
(-0.224221 -0.000669802 -1.32866e-20)
(-0.224362 -0.000801601 -1.11794e-20)
(-0.224366 -0.000922871 7.20012e-21)
(-0.224234 -0.00103378 -4.77818e-21)
(-0.223965 -0.00113544 1.78141e-20)
(-0.223561 -0.00123048 -8.11514e-21)
(-0.223023 -0.00131489 -1.20039e-20)
(-0.222348 -0.00138657 7.44254e-21)
(-0.221538 -0.0014453 -1.00901e-20)
(-0.220589 -0.00149124 1.18745e-20)
(-0.219501 -0.00152471 3.29089e-21)
(-0.218271 -0.00154619 -9.48052e-21)
(-0.216896 -0.00155635 1.6997e-20)
(-0.215376 -0.00155596 1.73414e-20)
(-0.213707 -0.00154595 -1.80298e-20)
(-0.211887 -0.00152733 7.59126e-21)
(-0.209914 -0.00150137 9.3107e-21)
(-0.207786 -0.00146949 -1.67106e-20)
(-0.205502 -0.00143323 1.95154e-20)
(-0.203058 -0.00139422 -1.90804e-20)
(-0.200453 -0.00135419 2.27152e-20)
(-0.197686 -0.00131497 -1.03516e-20)
(-0.194755 -0.00127843 -4.00528e-21)
(-0.191659 -0.00124649 7.21359e-22)
(-0.188396 -0.00122105 6.05794e-21)
(-0.184967 -0.00120401 3.52261e-21)
(-0.181371 -0.00119722 8.08182e-23)
(-0.177607 -0.00120247 -9.32262e-21)
(-0.173676 -0.00122144 -1.05626e-21)
(-0.169579 -0.00125571 -2.98553e-21)
(-0.165316 -0.00130672 6.29622e-21)
(-0.160889 -0.00137575 -5.37236e-22)
(-0.156299 -0.00146391 6.75599e-21)
(-0.151549 -0.00157207 -1.29265e-20)
(-0.146639 -0.00170079 6.53575e-21)
(-0.141574 -0.00185014 5.04319e-22)
(-0.136355 -0.00202008 -1.10806e-20)
(-0.130985 -0.00221065 5.3264e-21)
(-0.125469 -0.00241875 2.41861e-21)
(-0.119813 -0.00264601 1.38775e-21)
(-0.11402 -0.00289178 -3.26374e-21)
(-0.108096 -0.00315457 1.90645e-22)
(-0.102046 -0.00343284 1.01959e-20)
(-0.0958733 -0.00372489 -1.48816e-20)
(-0.0895848 -0.00402881 1.02541e-20)
(-0.0831856 -0.00434253 1.40081e-21)
(-0.0766817 -0.00466384 -1.40986e-21)
(-0.070079 -0.00499049 -1.07096e-21)
(-0.0633843 -0.0053202 1.16731e-21)
(-0.0566027 -0.00565098 -2.21546e-21)
(-0.0497408 -0.00598112 -2.08678e-22)
(-0.0428015 -0.00631342 -5.51279e-22)
(-0.0357923 -0.0066294 2.83641e-22)
(-0.0287237 -0.0069356 1.50216e-21)
(-0.0215999 -0.00723095 -2.82162e-21)
(-0.0144266 -0.00751253 -7.49999e-22)
(-0.00720993 -0.00777791 2.32189e-21)
(4.4406e-05 -0.008025 1.62064e-21)
(0.00733083 -0.00825189 -1.93514e-21)
(0.0146435 -0.00845688 7.95387e-22)