/*--------------------------------*- C++ -*----------------------------------*\
  =========                 |
  \\      /  F ield         | OpenFOAM: The Open Source CFD Toolbox
   \\    /   O peration     | Website:  https://openfoam.org
    \\  /    A nd           | Version:  7
     \\/     M anipulation  |
\*---------------------------------------------------------------------------*/
FoamFile
{
    version     2.0;
    format      ascii;
    class       surfaceScalarField;
    location    "90";
    object      phi;
}
// * * * * * * * * * * * * * * * * * * * * * * * * * * * * * * * * * * * * * //

dimensions      [0 3 -1 0 0 0 0];

internalField   nonuniform List<scalar> 
11835
(
0.00183971
0.00265915
0.0015005
0.00234166
0.00118352
0.00202344
0.00142863
0.000719665
0.000893207
0.00171894
0.00117625
0.000501372
0.000630862
0.00143859
0.000952118
0.000309015
0.000395608
0.00118737
0.000585082
0.000110462
0.000754851
0.000139247
0.000185546
0.000964913
0.000430013
-1.69137e-05
0.000580101
-1.08408e-05
-1.26793e-06
0.000766915
0.000289905
-0.000127156
0.000422226
-0.000143162
-0.000166243
0.000587201
0.000160428
-0.000221583
0.000275875
-0.00025861
-0.000310024
0.000419656
-4.08298e-05
-0.000253568
3.80098e-05
-0.000300423
0.00013716
-0.00035776
-0.00043241
0.000259547
-0.000142474
-0.000302093
-7.82841e-05
-0.000364613
5.75789e-06
-0.000441802
-0.000530472
0.00010382
-0.000239049
-0.000337383
-0.000189895
-0.000413767
-0.00012595
-0.000505747
-0.000609399
-4.70236e-05
-0.000330202
-0.000359649
-0.000296192
-0.000447777
-0.0002499
-0.000552038
-0.000670713
-0.000188586
-0.000414895
-0.000369265
-0.000395693
-0.000466979
-0.000366341
-0.00058139
-0.000712722
-0.000324333
-0.00049165
-0.000366888
-0.000486525
-0.000472104
-0.000473322
-0.000594593
-0.000735871
-0.000450173
-0.000558735
-0.000353528
-0.000566516
-0.000464324
-0.000568215
-0.000592893
-0.000741515
-0.00056257
-0.000614342
-0.000330552
-0.000633433
-0.000445233
-0.000648275
-0.00057805
-0.000731653
-0.000658138
-0.000625828
-0.000199253
-0.000656714
-0.000299665
-0.000685127
-0.00041682
-0.00071088
-0.000552297
-0.000708812
-0.000733722
-0.00064745
-0.000161148
-0.000684242
-0.000262874
-0.000719642
-0.00038142
-0.000753655
-0.000518284
-0.000675979
-0.000786489
-0.000655086
-0.000695535
-0.000735295
-0.000774556
-0.000813982
0.000648711
0.0126789
-0.000664233
0.000611045
0.0127494
0.00056897
0.0127158
0.000527508
0.0126473
0.000487697
0.0125636
0.000449895
0.0124725
0.000414278
0.0123792
0.000380942
0.0122874
0.000349903
0.0121992
0.000321082
0.0121152
0.000294343
0.0120356
0.000269528
0.0119604
0.000246478
0.0118895
0.000225035
0.0118229
0.000205049
0.0117608
0.000186372
0.011703
0.000168868
0.0116495
0.000152405
0.0116004
0.000136864
0.0115554
0.000122132
0.0115146
0.000108105
0.0114778
9.46881e-05
0.011445
8.17937e-05
0.0114161
6.93408e-05
0.011391
5.72543e-05
0.0113696
4.54644e-05
0.0113518
3.39057e-05
0.0113377
2.25138e-05
0.0113271
1.12274e-05
0.0113201
0.0113166
0.000598387
0.0127052
-0.000624702
0.000552988
0.0127948
0.000504942
0.0127639
0.000459698
0.0126926
0.000418324
0.012605
0.00038067
0.0125102
0.000346431
0.0124135
0.000315344
0.0123185
0.000287153
0.0122274
0.000261572
0.0121408
0.000238309
0.0120589
0.000217093
0.0119816
0.000197681
0.0119089
0.000179855
0.0118408
0.000163422
0.0117772
0.000148209
0.0117182
0.000134061
0.0116637
0.000120838
0.0116136
0.000108418
0.0115678
9.66885e-05
0.0115263
8.55519e-05
0.011489
7.492e-05
0.0114557
6.47139e-05
0.0114263
5.48631e-05
0.0114008
4.53039e-05
0.0113791
3.59786e-05
0.0113612
2.68338e-05
0.0113468
1.78193e-05
0.0113361
8.88416e-06
0.011329
0.0113255
0.000543249
0.0127447
-0.000582766
0.000489951
0.0128481
0.000436723
0.0128171
0.000388495
0.0127408
0.000346107
0.0126474
0.00030899
0.0125473
0.000276434
0.012446
0.000247859
0.0123471
0.000222746
0.0122525
0.000200602
0.0121629
0.000180989
0.0120785
0.000163529
0.0119991
0.000147898
0.0119245
0.000133817
0.0118548
0.000121052
0.01179
0.000109405
0.0117298
9.87037e-05
0.0116744
8.88013e-05
0.0116235
7.9572e-05
0.0115771
7.0908e-05
0.011535
6.27162e-05
0.0114972
5.49168e-05
0.0114635
4.7441e-05
0.0114338
4.02293e-05
0.011408
3.32304e-05
0.0113861
2.63991e-05
0.011368
1.96949e-05
0.0113535
1.30815e-05
0.0113427
6.52146e-06
0.0113356
0.011332
0.000480973
0.0127999
-0.000536216
0.000419732
0.0129093
0.000361967
0.0128749
0.000311759
0.012791
0.000269272
0.0126899
0.000233422
0.0125831
0.000203164
0.0124763
0.000177627
0.0123726
0.000156022
0.0122741
0.000137672
0.0121813
0.000122014
0.0120942
0.000108567
0.0120125
9.69325e-05
0.0119362
8.67814e-05
0.011865
7.78434e-05
0.0117989
6.98964e-05
0.0117378
6.27568e-05
0.0116815
5.62722e-05
0.01163
5.03179e-05
0.011583
4.479e-05
0.0115405
3.96033e-05
0.0115023
3.46878e-05
0.0114684
2.99861e-05
0.0114385
2.54511e-05
0.0114126
2.10445e-05
0.0113905
1.6735e-05
0.0113723
1.24958e-05
0.0113578
8.30522e-06
0.0113469
4.14056e-06
0.0113397
0.0113362
0.000408453
0.0128706
-0.000479136
0.000340269
0.0129775
0.000278865
0.0129363
0.000227902
0.012842
0.000186463
0.0127313
0.000152877
0.0126167
0.000125803
0.0125033
0.000104024
0.0123944
8.65174e-05
0.0122916
7.24586e-05
0.0121954
6.1157e-05
0.0121055
5.20557e-05
0.0120216
4.46932e-05
0.0119435
3.8699e-05
0.011871
3.37762e-05
0.0118038
2.96858e-05
0.0117419
2.62372e-05
0.011685
2.3279e-05
0.0116329
2.06887e-05
0.0115856
1.83709e-05
0.0115428
1.62503e-05
0.0115045
1.42691e-05
0.0114704
1.23829e-05
0.0114404
1.05585e-05
0.0114144
8.77215e-06
0.0113923
7.00728e-06
0.0113741
5.25302e-06
0.0113595
3.50057e-06
0.0113487
1.74744e-06
0.0113415
0.0113379
0.000322115
0.0129546
-0.00040609
0.000248695
0.0130509
0.000185541
0.0129994
0.0001356
0.0128919
9.66285e-05
0.0127703
6.66546e-05
0.0126467
4.3859e-05
0.0125261
2.67123e-05
0.0124116
1.40244e-05
0.0123043
4.84754e-06
0.0122045
-1.58685e-06
0.0121119
-5.93839e-06
0.012026
-8.70633e-06
0.0119463
-1.02859e-05
0.0118726
-1.09887e-05
0.0118045
-1.10583e-05
0.0117419
-1.06847e-05
0.0116846
-1.0015e-05
0.0116323
-9.16073e-06
0.0115847
-8.20592e-06
0.0115419
-7.21221e-06
0.0115035
-6.22311e-06
0.0114694
-5.26743e-06
0.0114394
-4.36229e-06
0.0114135
-3.51536e-06
0.0113915
-2.72713e-06
0.0113733
-1.99233e-06
0.0113588
-1.30324e-06
0.011348
-6.46511e-07
0.0113408
0.0113373
0.000216738
0.0130499
-0.000311982
0.00014152
0.0131262
7.99562e-05
0.013061
3.34176e-05
0.0129385
-1.00049e-06
0.0128047
-2.57086e-05
0.0126714
-4.29e-05
0.0125433
-5.43264e-05
0.012423
-6.13213e-05
0.0123113
-6.49368e-05
0.0122081
-6.60194e-05
0.012113
-6.52255e-05
0.0120252
-6.308e-05
0.0119441
-5.99913e-05
0.0118695
-5.62731e-05
0.0118008
-5.21651e-05
0.0117378
-4.78481e-05
0.0116803
-4.34561e-05
0.0116279
-3.90866e-05
0.0115804
-3.48074e-05
0.0115376
-3.06631e-05
0.0114993
-2.66794e-05
0.0114654
-2.28674e-05
0.0114356
-1.92265e-05
0.0114099
-1.57467e-05
0.011388
-1.24107e-05
0.0113699
-9.19637e-06
0.0113556
-6.07757e-06
0.0113449
-3.02558e-06
0.0113378
0.0113343
9.11806e-05
0.01315
-0.000191354
1.54935e-05
0.0132018
-3.94256e-05
0.0131159
-7.95036e-05
0.0129786
-0.000106929
0.0128321
-0.000124495
0.012689
-0.000134623
0.0125535
-0.000139183
0.0124276
-0.000139583
0.0123117
-0.000136923
0.0122055
-0.000132064
0.0121081
-0.000125673
0.0120188
-0.000118268
0.0119367
-0.000110245
0.0118614
-0.000101902
0.0117925
-9.34627e-05
0.0117294
-8.50876e-05
0.0116719
-7.68903e-05
0.0116197
-6.89473e-05
0.0115724
-6.13051e-05
0.01153
-5.39871e-05
0.011492
-4.69984e-05
0.0114584
-4.03298e-05
0.0114289
-3.39605e-05
0.0114035
-2.78612e-05
0.0113819
-2.19959e-05
0.0113641
-1.63233e-05
0.0113499
-1.07998e-05
0.0113394
-5.37736e-06
0.0113323
0.0113289
-5.61705e-05
0.013242
-3.57666e-05
-0.000126567
0.0132722
-0.000173278
0.0131626
-0.000203555
0.0130088
-0.000221331
0.0128499
-0.00022968
0.0126973
-0.00023114
0.0125549
-0.00022759
0.012424
-0.000220437
0.0123046
-0.000210762
0.0121958
-0.000199395
0.0120967
-0.00018697
0.0120063
-0.000173972
0.0119237
-0.000160763
0.0118482
-0.00014761
0.0117793
-0.000134703
0.0117165
-0.000122175
0.0116594
-0.000110108
0.0116076
-9.85525e-05
0.0115609
-8.75277e-05
0.0115189
-7.7032e-05
0.0114815
-6.70464e-05
0.0114484
-5.75385e-05
0.0114194
-4.84657e-05
0.0113944
-3.97776e-05
0.0113732
-3.14176e-05
0.0113557
-2.33252e-05
0.0113418
-1.5437e-05
0.0113315
-7.6866e-06
0.0113246
0.0113212
-0.000234165
0.0133297
0.0001464
-0.000289312
0.0133274
-0.000321534
0.0131948
-0.000338421
0.0130257
-0.000343791
0.0128553
-0.000340824
0.0126943
-0.000332001
0.0125461
-0.000319104
0.0124111
-0.000303453
0.0122889
-0.000286043
0.0121784
-0.000267621
0.0120783
-0.000248751
0.0119875
-0.000229853
0.0119048
-0.000211234
0.0118296
-0.00019311
0.0117612
-0.000175626
0.011699
-0.000158873
0.0116426
-0.000142896
0.0115916
-0.00012771
0.0115457
-0.000113304
0.0115045
-9.9647e-05
0.0114679
-8.66915e-05
0.0114355
-7.43802e-05
0.0114071
-6.26464e-05
0.0113827
-5.14169e-05
0.011362
-4.06137e-05
0.0113449
-3.01556e-05
0.0113314
-1.99589e-05
0.0113213
-9.93783e-06
0.0113146
0.0113113
-0.000435015
0.0134012
0.000363563
-0.00046988
0.0133623
-0.000483339
0.0132083
-0.000483181
0.0130256
-0.000473399
0.0128455
-0.000457083
0.012678
-0.000436441
0.0125255
-0.000413036
0.0123877
-0.000388013
0.0122639
-0.000362211
0.0121526
-0.000336245
0.0120524
-0.000310569
0.0119618
-0.000285511
0.0118798
-0.000261298
0.0118054
-0.00023808
0.011738
-0.000215942
0.0116769
-0.000194922
0.0116216
-0.000175023
0.0115717
-0.000156216
0.0115269
-0.000138455
0.0114868
-0.000121674
0.0114511
-0.000105797
0.0114196
-9.07377e-05
0.0113921
-7.64041e-05
0.0113683
-6.26986e-05
0.0113483
-4.95206e-05
0.0113317
-3.67673e-05
0.0113186
-2.43342e-05
0.0113088
-1.21155e-05
0.0113024
0.0112991
-0.000656848
0.0134478
0.00061023
-0.000665671
0.0133711
-0.000656272
0.0131989
-0.000635906
0.0130052
-0.000608612
0.0128182
-0.000577167
0.0126466
-0.000543364
0.0124917
-0.000508449
0.0123528
-0.000473309
0.0122287
-0.000438565
0.0121179
-0.000404655
0.0120185
-0.000371889
0.011929
-0.000340475
0.0118484
-0.000310542
0.0117755
-0.000282155
0.0117096
-0.000255329
0.01165
-0.000230041
0.0115963
-0.00020624
0.0115479
-0.000183852
0.0115045
-0.000162788
0.0114657
-0.000142947
0.0114312
-0.000124219
0.0114008
-0.000106489
0.0113743
-8.96365e-05
0.0113515
-7.35391e-05
0.0113322
-5.80725e-05
0.0113163
-4.31116e-05
0.0113037
-2.85309e-05
0.0112943
-1.42038e-05
0.011288
0.0112849
-0.000895365
0.0134602
0.000882932
-0.000873334
0.013349
-0.000837348
0.0131629
-0.000794089
0.0129619
-0.000747379
0.0127715
-0.000699389
0.0125986
-0.000651373
0.0124436
-0.000604178
0.0123056
-0.00055836
0.0121829
-0.000514272
0.0120738
-0.000472139
0.0119763
-0.000432098
0.011889
-0.000394216
0.0118105
-0.000358506
0.0117398
-0.000324935
0.011676
-0.000293438
0.0116185
-0.000263923
0.0115668
-0.00023628
0.0115203
-0.000210384
0.0114786
-0.000186101
0.0114414
-0.000163291
0.0114084
-0.000141809
0.0113794
-0.000121508
0.011354
-0.000102238
0.0113322
-8.38527e-05
0.0113138
-6.62021e-05
0.0112986
-4.91389e-05
0.0112866
-3.2516e-05
0.0112776
-1.61863e-05
0.0112717
0.0112688
-0.0011449
0.013431
0.00117417
-0.0010881
0.0132922
-0.00102274
0.0130975
-0.000954686
0.0128939
-0.000887243
0.012704
-0.000821747
0.0125331
-0.000758831
0.0123807
-0.00069887
0.0122456
-0.00064204
0.0121261
-0.000588388
0.0120201
-0.0005379
0.0119258
-0.000490519
0.0118416
-0.000446154
0.0117661
-0.00040469
0.0116983
-0.000365989
0.0116373
-0.000329896
0.0115824
-0.000296246
0.0115331
-0.000264864
0.0114889
-0.000235572
0.0114493
-0.000208187
0.011414
-0.000182528
0.0113828
-0.000158414
0.0113553
-0.000135665
0.0113313
-0.000114103
0.0113107
-9.35525e-05
0.0112932
-7.38414e-05
0.0112789
-5.4799e-05
0.0112675
-3.62566e-05
0.0112591
-1.80466e-05
0.0112535
0.0112507
-0.00139816
0.0133554
0.00147372
-0.00130417
0.0131983
-0.00120791
0.0130013
-0.00111417
0.0128001
-0.00102541
0.0126153
-0.000941999
0.0124497
-0.000863921
0.0123026
-0.000791042
0.0121728
-0.000723123
0.0120582
-0.000659893
0.0119569
-0.000601082
0.011867
-0.000546427
0.011787
-0.000495674
0.0117154
-0.000448571
0.0116512
-0.000404868
0.0115936
-0.000364319
0.0115419
-0.000326679
0.0114955
-0.000291707
0.0114539
-0.000259169
0.0114168
-0.000228833
0.0113837
-0.000200477
0.0113544
-0.00017388
0.0113287
-0.000148831
0.0113062
-0.000125122
0.0112869
-0.000102552
0.0112707
-8.09227e-05
0.0112573
-6.0042e-05
0.0112467
-3.97198e-05
0.0112388
-1.97685e-05
0.0112335
0.0112309
-0.00164697
0.0132323
0.00177011
-0.0015153
0.0130666
-0.00138805
0.012874
-0.0012688
0.0126809
-0.00115891
0.0125054
-0.00105777
0.0123485
-0.000964733
0.0122096
-0.000879133
0.0120872
-0.000800327
0.0119794
-0.000727723
0.0118843
-0.000660796
0.0118001
-0.000599077
0.0117252
-0.000542146
0.0116584
-0.000489612
0.0115987
-0.000441116
0.0115451
-0.000396314
0.0114971
-0.000354885
0.0114541
-0.00031652
0.0114156
-0.000280928
0.0113812
-0.000247829
0.0113506
-0.000216957
0.0113235
-0.000188055
0.0112998
-0.000160878
0.0112791
-0.000135191
0.0112613
-0.000110765
0.0112462
-8.73796e-05
0.0112339
-6.4819e-05
0.0112241
-4.28736e-05
0.0112168
-2.13361e-05
0.011212
0.0112096
-0.00188307
0.0130636
0.00205167
-0.00171521
0.0128987
-0.00155835
0.0127172
-0.00141482
0.0125374
-0.00128478
0.0123753
-0.0011667
0.0122305
-0.00105935
0.0121022
-0.000961581
0.0119894
-0.000872366
0.0118902
-0.000790813
0.0118027
-0.000716152
0.0117254
-0.000647721
0.0116568
-0.000584937
0.0115956
-0.000527279
0.011541
-0.000474275
0.0114921
-0.000425493
0.0114483
-0.000380532
0.0114091
-0.000339019
0.011374
-0.000300606
0.0113428
-0.000264967
0.011315
-0.000231792
0.0112904
-0.00020079
0.0112688
-0.000171683
0.0112499
-0.000144208
0.0112338
-0.000118111
0.0112201
-9.31477e-05
0.0112089
-6.9083e-05
0.0112
-4.5687e-05
0.0111934
-2.27339e-05
0.0111891
0.0111869
-0.00209891
0.0128545
0.00230804
-0.00189818
0.012698
-0.00171437
0.0125334
-0.00154876
0.0123718
-0.00140023
0.0122268
-0.00126653
0.0120968
-0.00114594
0.0119817
-0.00103688
0.0118803
-0.000937999
0.0117913
-0.000848128
0.0117129
-0.000766287
0.0116436
-0.000691633
0.0115821
-0.000623435
0.0115275
-0.00056105
0.0114786
-0.000503905
0.011435
-0.000451478
0.0113959
-0.000403298
0.0113609
-0.000358929
0.0113297
-0.00031797
0.0113018
-0.000280047
0.011277
-0.000244813
0.0112551
-0.000211942
0.0112359
-0.000181126
0.0112191
-0.000152074
0.0112047
-0.000124509
0.0111926
-9.81662e-05
0.0111826
-7.27892e-05
0.0111747
-4.81306e-05
0.0111688
-2.39475e-05
0.0111649
0.0111629
-0.00228836
0.0126117
0.00253119
-0.00205936
0.012469
-0.00185234
0.0123263
-0.00166757
0.012187
-0.00150278
0.012062
-0.00135525
0.0119492
-0.00122284
0.0118492
-0.00110366
0.0117612
-0.000996074
0.0116837
-0.000898707
0.0116155
-0.00081039
0.0115553
-0.000730127
0.0115019
-0.000657059
0.0114544
-0.000590434
0.011412
-0.000529585
0.0113741
-0.000473913
0.0113402
-0.000422879
0.0113099
-0.000375991
0.0112828
-0.000332797
0.0112586
-0.000292882
0.0112371
-0.000255862
0.0112181
-0.000221379
0.0112014
-0.000189096
0.0111868
-0.000158699
0.0111743
-0.000129888
0.0111638
-0.000102378
0.0111551
-7.58961e-05
0.0111482
-5.01773e-05
0.0111431
-2.49635e-05
0.0111397
0.011138
-0.00244692
0.0123426
0.00271597
-0.0021951
0.0122172
-0.00196929
0.0121005
-0.00176878
0.0119865
-0.00159039
0.0118836
-0.00143112
0.01179
-0.0012886
0.0117067
-0.00116069
0.0116332
-0.00104557
0.0115686
-0.000941683
0.0115116
-0.000847727
0.0114613
-0.000762581
0.0114167
-0.00068528
0.0113771
-0.000614978
0.0113417
-0.00055093
0.0113101
-0.000492469
0.0112818
-0.000438995
0.0112564
-0.000389965
0.0112338
-0.000344885
0.0112135
-0.0003033
0.0111955
-0.000264793
0.0111796
-0.000228978
0.0111656
-0.000195492
0.0111534
-0.000164
0.0111428
-0.00013418
0.011134
-0.000105732
0.0111266
-7.83659e-05
0.0111208
-5.18024e-05
0.0111165
-2.57696e-05
0.0111136
0.0111122
-0.00257187
0.0120547
0.00285984
-0.00230305
0.0119484
-0.00206319
0.0118607
-0.0018506
0.0117739
-0.00166147
0.0116945
-0.0014928
0.0116213
-0.00134206
0.011556
-0.00120698
0.0114982
-0.00108561
0.0114472
-0.000976311
0.0114023
-0.000877659
0.0113627
-0.000788447
0.0113275
-0.000707628
0.0112963
-0.000634281
0.0112684
-0.000567597
0.0112434
-0.000506851
0.011221
-0.000451394
0.011201
-0.000400638
0.011183
-0.000354051
0.0111669
-0.000311146
0.0111526
-0.000271476
0.0111399
-0.00023463
0.0111287
-0.000200224
0.011119
-0.000167902
0.0111105
-0.000137327
0.0111034
-0.000108183
0.0110975
-8.01657e-05
0.0110928
-5.29842e-05
0.0110893
-2.63551e-05
0.011087
0.0110858
-0.00266212
0.0117544
0.00296241
-0.00238209
0.0116683
-0.0021329
0.0116115
-0.00191188
0.0115528
-0.00171497
0.0114976
-0.0015393
0.0114456
-0.00138233
0.011399
-0.00124173
0.0113576
-0.00111552
0.011321
-0.00100198
0.0112888
-0.000899656
0.0112603
-0.000807265
0.0112351
-0.000723704
0.0112127
-0.000648
0.0111926
-0.00057929
0.0111747
-0.000516807
0.0111585
-0.000459859
0.011144
-0.000407825
0.011131
-0.000360139
0.0111193
-0.000316288
0.0111088
-0.000275801
0.0110994
-0.000238243
0.0110912
-0.000203216
0.0110839
-0.000170344
0.0110777
-0.00013928
0.0110723
-0.000109692
0.0110679
-8.12674e-05
0.0110644
-5.37047e-05
0.0110617
-2.67111e-05
0.01106
0.0110591
-0.00271795
0.0114475
0.00302484
-0.00243219
0.0113826
-0.0021781
0.0113574
-0.00195211
0.0113269
-0.00175028
0.0112958
-0.00157002
0.0112654
-0.00140881
0.0112378
-0.00126438
0.0112131
-0.00113476
0.0111914
-0.00101823
0.0111722
-0.000913303
0.0111554
-0.000818668
0.0111405
-0.000733188
0.0111272
-0.000655854
0.0111153
-0.000585768
0.0111046
-0.000522128
0.0110949
-0.000464214
0.0110861
-0.000411375
0.0110781
-0.000363022
0.0110709
-0.000318619
0.0110644
-0.000277675
0.0110585
-0.000239742
0.0110532
-0.000204404
0.0110486
-0.000171276
0.0110445
-0.000139997
0.011041
-0.000110229
0.0110381
-8.16493e-05
0.0110358
-5.39494e-05
0.011034
-2.68305e-05
0.0110329
0.0110323
-0.00274067
0.0111388
0.0030494
-0.00245416
0.0110961
-0.00219911
0.0111023
-0.00197129
0.011099
-0.00176724
0.0110917
-0.00158467
0.0110828
-0.00142118
0.0110743
-0.00127459
0.0110665
-0.00114301
0.0110598
-0.00102474
0.011054
-0.0009183
0.011049
-0.000822386
0.0110446
-0.00073584
0.0110407
-0.000657633
0.0110371
-0.000586847
0.0110338
-0.000522657
0.0110307
-0.000464323
0.0110278
-0.000411173
0.011025
-0.000362601
0.0110223
-0.000318056
0.0110198
-0.000277033
0.0110175
-0.000239072
0.0110153
-0.000203746
0.0110133
-0.000170662
0.0110114
-0.000139453
0.0110098
-0.000109773
0.0110084
-8.12957e-05
0.0110073
-5.37084e-05
0.0110065
-2.67084e-05
0.0110059
0.0110056
-0.0027323
0.010832
0.0030391
-0.00244948
0.0108133
-0.00219672
0.0108496
-0.00196984
0.0108722
-0.00176601
0.0108879
-0.00158326
0.0109001
-0.00141933
0.0109104
-0.0012722
0.0109194
-0.00114007
0.0109276
-0.00102131
0.0109352
-0.000914461
0.0109421
-0.000818243
0.0109484
-0.000731498
0.0109539
-0.000653193
0.0109588
-0.000582401
0.010963
-0.000518285
0.0109666
-0.000460092
0.0109696
-0.000407141
0.010972
-0.000358813
0.010974
-0.000314547
0.0109756
-0.000273831
0.0109768
-0.000236196
0.0109776
-0.000201212
0.0109783
-0.00016848
0.0109787
-0.000137629
0.010979
-0.000108311
0.0109791
-8.0198e-05
0.0109792
-5.29761e-05
0.0109792
-2.63421e-05
0.0109792
0.0109792
-0.00269582
0.0105304
0.00299739
-0.00242008
0.0105375
-0.00217212
0.0106016
-0.00194852
0.0106486
-0.00174707
0.0106864
-0.00156604
0.010719
-0.00140338
0.0107477
-0.00125723
0.0107733
-0.00112591
0.0107963
-0.00100787
0.0108172
-0.000901707
0.010836
-0.000806156
0.0108528
-0.000720082
0.0108679
-0.00064246
0.0108812
-0.000572364
0.0108929
-0.000508955
0.0109032
-0.000451475
0.0109121
-0.00039924
0.0109198
-0.000351626
0.0109264
-0.000308068
0.010932
-0.000268051
0.0109367
-0.000231104
0.0109407
-0.000196794
0.010944
-0.000164724
0.0109466
-0.000134521
0.0109488
-0.000105841
0.0109504
-7.83547e-05
0.0109517
-5.17519e-05
0.0109526
-2.57314e-05
0.0109532
0.0109535
-0.00263442
0.010237
0.00292783
-0.00236795
0.010271
-0.00212666
0.0103603
-0.00190826
0.0104302
-0.00171103
0.0104892
-0.00153342
0.0105414
-0.00137358
0.0105879
-0.00122984
0.0106295
-0.00110063
0.0106671
-0.000984481
0.010701
-0.000880053
0.0107315
-0.000786125
0.0107589
-0.000701585
0.0107833
-0.000625425
0.010805
-0.000556728
0.0108242
-0.000494661
0.0108411
-0.00043847
0.0108559
-0.000387471
0.0108688
-0.000341044
0.01088
-0.000298625
0.0108896
-0.000259701
0.0108978
-0.000223803
0.0109048
-0.000190502
0.0109107
-0.000159403
0.0109155
-0.00013014
0.0109195
-0.00010237
0.0109227
-7.57722e-05
0.0109251
-5.004e-05
0.0109269
-2.48783e-05
0.0109281
0.0109286
-0.00255047
0.00995372
0.00283373
-0.00229484
0.0100154
-0.00206167
0.0101272
-0.00185007
0.0102186
-0.00165862
0.0102978
-0.00148592
0.0103687
-0.00133031
0.0104323
-0.0011903
0.0104895
-0.00106441
0.0105412
-0.000951271
0.0105879
-0.000849602
0.0106299
-0.000758229
0.0106675
-0.000676071
0.0107012
-0.000602142
0.0107311
-0.000535541
0.0107576
-0.000475448
0.010781
-0.000421118
0.0108016
-0.000371876
0.0108196
-0.000327108
0.0108352
-0.000286257
0.0108487
-0.000248817
0.0108604
-0.000214327
0.0108703
-0.000182365
0.0108787
-0.000152544
0.0108857
-0.000124506
0.0108915
-9.79174e-05
0.0108961
-7.24645e-05
0.0108997
-4.785e-05
0.0109023
-2.37878e-05
0.010904
0.0109048
-0.00244619
0.00968191
0.002718
-0.00220231
0.00977153
-0.00197842
0.00990326
-0.00177494
0.0100151
-0.00159061
0.0101134
-0.00142411
0.0102022
-0.00127402
0.0102822
-0.00113894
0.0103544
-0.00101752
0.0104198
-0.000908457
0.0104788
-0.000810532
0.0105319
-0.000722618
0.0105796
-0.000643669
0.0106222
-0.000572725
0.0106601
-0.000508907
0.0106938
-0.000451411
0.0107235
-0.000399508
0.0107497
-0.000352534
0.0107726
-0.00030989
0.0107926
-0.00027103
0.0108099
-0.000235461
0.0108248
-0.000202732
0.0108376
-0.000172434
0.0108484
-0.000144191
0.0108575
-0.000117658
0.0108649
-9.25122e-05
0.0108709
-6.84537e-05
0.0108756
-4.51966e-05
0.010879
-2.24673e-05
0.0108813
0.0108824
-0.00232344
0.00942228
0.00258307
-0.00209175
0.00953984
-0.00187812
0.00968964
-0.00168383
0.0098208
-0.00150774
0.00993732
-0.00134862
0.0100431
-0.0012052
0.0101388
-0.00107619
0.0102254
-0.000960305
0.0103039
-0.000856324
0.0103748
-0.000763087
0.0104387
-0.000679505
0.010496
-0.000604569
0.0105473
-0.000537346
0.0105929
-0.000476981
0.0106334
-0.000422692
0.0106692
-0.000373769
0.0107007
-0.000329566
0.0107284
-0.000289502
0.0107525
-0.000253046
0.0107734
-0.000219723
0.0107915
-0.000189098
0.010807
-0.000160778
0.0108201
-0.000134403
0.0108311
-0.000109644
0.0108402
-8.61948e-05
0.0108475
-6.377e-05
0.0108532
-4.21e-05
0.0108574
-2.09267e-05
0.0108601
0.0108614
-0.00218372
0.00917511
0.00243089
-0.00196444
0.00932055
-0.00176186
0.00948705
-0.00157762
0.00963657
-0.00141075
0.00977044
-0.00126006
0.00989242
-0.00112437
0.0100031
-0.00100247
0.0101035
-0.000893139
0.0101946
-0.000795209
0.0102769
-0.000707566
0.0103511
-0.000629161
0.0104176
-0.000559016
0.0104771
-0.000496228
0.0105301
-0.000439969
0.0105772
-0.00038948
0.0106187
-0.000344075
0.0106553
-0.000303131
0.0106874
-0.000266087
0.0107154
-0.000232435
0.0107398
-0.00020172
0.0107608
-0.000173528
0.0107788
-0.000147487
0.010794
-0.000123258
0.0108069
-0.00010053
0.0108175
-7.90163e-05
0.010826
-5.84519e-05
0.0108326
-3.85859e-05
0.0108375
-1.9179e-05
0.0108407
0.0108423
-0.00202825
0.00894041
0.00226295
-0.0018214
0.0091137
-0.0016305
0.00929616
-0.00145708
0.00946315
-0.00130031
0.00961368
-0.00115902
0.00975112
-0.00103206
0.00987611
-0.00091826
0.00998974
-0.00081645
0.0100928
-0.000725497
0.0101859
-0.000644323
0.0102699
-0.000571909
0.0103452
-0.000507309
0.0104125
-0.000449648
0.0104725
-0.000398125
0.0105256
-0.00035201
0.0105726
-0.000310642
0.010614
-0.000273425
0.0106502
-0.000239824
0.0106818
-0.000209358
0.0107093
-0.000181596
0.010733
-0.000156151
0.0107533
-0.000132674
0.0107706
-0.00011085
0.010785
-9.03926e-05
0.010797
-7.1039e-05
0.0108066
-5.25459e-05
0.0108141
-3.4685e-05
0.0108196
-1.72395e-05
0.0108232
0.010825
-0.00185797
0.00871808
0.0020803
-0.00166342
0.00891915
-0.00148477
0.00911751
-0.00132288
0.00930126
-0.00117706
0.00946785
-0.00104606
0.00962013
-0.000928784
0.00975883
-0.000824047
0.009885
-0.000730693
0.00999943
-0.000647615
0.0101029
-0.000573755
0.010196
-0.000508122
0.0102796
-0.000449796
0.0103542
-0.00039793
0.0104206
-0.000351752
0.0104795
-0.000310562
0.0105314
-0.000273727
0.0105771
-0.000240684
0.0106172
-0.000210928
0.0106521
-0.000184008
0.0106824
-0.000159523
0.0107085
-0.000137116
0.0107309
-0.000116468
0.0107499
-9.729e-05
0.0107659
-7.93248e-05
0.010779
-6.2336e-05
0.0107896
-4.61064e-05
0.0107979
-3.04337e-05
0.010804
-1.51263e-05
0.0108079
0.0108099
-0.00167356
0.0085081
0.00188354
-0.00149116
0.00873675
-0.00132523
0.00895158
-0.00117559
0.00915161
-0.00104152
0.00933379
-0.000921733
0.00950034
-0.000815074
0.00965217
-0.000720334
0.00979026
-0.000636352
0.00991545
-0.000562026
0.0100285
-0.000496307
0.0101303
-0.000438223
0.0102215
-0.000386878
0.0103029
-0.000341451
0.0103752
-0.000301201
0.0104392
-0.000265458
0.0104957
-0.000233629
0.0105453
-0.000205181
0.0105887
-0.000179645
0.0106266
-0.000156607
0.0106593
-0.000135699
0.0106876
-0.000116598
0.0107118
-9.90187e-05
0.0107323
-8.27059e-05
0.0107496
-6.74318e-05
0.0107638
-5.29908e-05
0.0107752
-3.91958e-05
0.0107841
-2.58732e-05
0.0107906
-1.286e-05
0.0107949
0.010797
-0.00147545
0.00831016
0.00167338
-0.00130513
0.00856644
-0.00115231
0.00879875
-0.00101566
0.00901497
-0.000894199
0.00921232
-0.000786533
0.00939267
-0.000691439
0.00955708
-0.000607639
0.00970646
-0.000533947
0.00984176
-0.00046924
0.00996384
-0.000412473
0.0100735
-0.000362686
0.0101717
-0.000319004
0.0102592
-0.000280635
0.0103368
-0.000246868
0.0104054
-0.000217071
0.0104659
-0.000190687
0.0105189
-0.000167226
0.0105653
-0.000146256
0.0106056
-0.000127406
0.0106405
-0.000110346
0.0106706
-9.47928e-05
0.0106963
-8.04971e-05
0.010718
-6.72408e-05
0.0107363
-5.48313e-05
0.0107513
-4.30974e-05
0.0107635
-3.18839e-05
0.0107729
-2.10499e-05
0.0107798
-1.04636e-05
0.0107843
0.0107866
-0.00126416
0.00812218
0.00145214
-0.00110585
0.00840813
-0.000966418
0.00865932
-0.000843539
0.00889209
-0.000735535
0.00910432
-0.000640959
0.0092981
-0.000558405
0.00947452
-0.000486508
0.00963456
-0.000424031
0.00977928
-0.000369809
0.00990961
-0.000322793
0.0100265
-0.000282036
0.0101309
-0.000246679
0.0102238
-0.000215957
0.0103061
-0.000189198
0.0103787
-0.000165812
0.0104425
-0.000145283
0.0104984
-0.000127166
0.0105471
-0.000111078
0.0105895
-9.66869e-05
0.0106261
-8.37152e-05
0.0106576
-7.19177e-05
0.0106845
-6.10905e-05
0.0107072
-5.10542e-05
0.0107263
-4.16551e-05
0.0107419
-3.2759e-05
0.0107546
-2.42478e-05
0.0107644
-1.60148e-05
0.0107716
-7.96268e-06
0.0107763
0.0107786
-0.0010414
0.00793778
0.00122581
-0.000893981
0.0082607
-0.000767966
0.0085333
-0.000659635
0.00878376
-0.000565969
0.00901065
-0.000485514
0.00921764
-0.000416517
0.00940553
-0.000357529
0.00957558
-0.000307198
0.00972895
-0.000264334
0.00986675
-0.000227867
0.00999005
-0.000196857
0.0100999
-0.000170461
0.0101974
-0.00014795
0.0102836
-0.000128691
0.0103594
-0.000112143
0.010426
-9.78385e-05
0.0104841
-8.53859e-05
0.0105347
-7.44503e-05
0.0105786
-6.47613e-05
0.0106164
-5.6077e-05
0.0106489
-4.82134e-05
0.0106766
-4.10048e-05
0.0107
-3.4319e-05
0.0107196
-2.80451e-05
0.0107357
-2.20884e-05
0.0107486
-1.63703e-05
0.0107587
-1.08233e-05
0.010766
-5.38458e-06
0.0107708
0.0107732
-0.000811748
0.00774482
0.0010047
-0.000670957
0.00811991
-0.00055753
0.00841988
-0.000464312
0.00869054
-0.000385973
0.00893231
-0.000320721
0.00915239
-0.000266353
0.00935116
-0.000221308
0.00953053
-0.000184109
0.00969175
-0.000153494
0.00983614
-0.000128369
0.00996493
-0.000107797
0.0100794
-9.09733e-05
0.0101806
-7.72023e-05
0.0102698
-6.58987e-05
0.0103481
-5.65721e-05
0.0104166
-4.88217e-05
0.0104763
-4.23066e-05
0.0105282
-3.67618e-05
0.010573
-3.19608e-05
0.0106116
-2.77358e-05
0.0106447
-2.39382e-05
0.0106728
-2.04619e-05
0.0106965
-1.7222e-05
0.0107163
-1.41527e-05
0.0107326
-1.12056e-05
0.0107457
-8.34316e-06
0.0107558
-5.53408e-06
0.0107632
-2.75883e-06
0.0107681
0.0107705
-0.000583629
0.00752804
0.000800406
-0.000440062
0.00797635
-0.000336447
0.00831626
-0.000257958
0.00861205
-0.000196054
0.00887041
-0.000147072
0.00910341
-0.000108582
0.00931267
-7.85816e-05
0.00950053
-5.55164e-05
0.00966868
-3.80417e-05
0.00981866
-2.50563e-05
0.00995194
-1.55967e-05
0.0100699
-8.90815e-06
0.0101739
-4.36237e-06
0.0102653
-1.42671e-06
0.0103452
3.27974e-07
0.0104149
1.24332e-06
0.0104754
1.58382e-06
0.0105278
1.55678e-06
0.010573
1.31546e-06
0.0106119
9.75529e-07
0.010645
6.15026e-07
0.0106732
2.88314e-07
0.0106969
2.84723e-08
0.0107166
-1.4877e-07
0.0107328
-2.41909e-07
0.0107458
-2.57065e-07
0.0107558
-2.09443e-07
0.0107632
-1.16863e-07
0.010768
0.0107704
-0.000367726
0.00727668
0.00061909
-0.000207324
0.00781595
-0.000108038
0.00821698
-4.14721e-05
0.00854548
3.4885e-06
0.00882545
3.51087e-05
0.00907179
5.65463e-05
0.00929123
7.02603e-05
0.00948682
7.80745e-05
0.00966087
8.14228e-05
0.00981531
8.14547e-05
0.00995191
7.90741e-05
0.0100723
7.50171e-05
0.010178
6.98655e-05
0.0102704
6.40668e-05
0.010351
5.7965e-05
0.010421
5.18186e-05
0.0104816
4.58146e-05
0.0105338
4.00815e-05
0.0105788
3.47013e-05
0.0106172
2.97189e-05
0.01065
2.51498e-05
0.0106777
2.09876e-05
0.010701
1.72085e-05
0.0107204
1.37759e-05
0.0107362
1.06446e-05
0.0107489
7.76092e-06
0.0107587
5.06717e-06
0.0107659
2.5018e-06
0.0107705
0.0107729
-0.000171907
0.006993
0.000455584
1.85093e-05
0.00762553
0.000125102
0.00811038
0.000182856
0.00848773
0.000211979
0.00879633
0.000224891
0.00905888
0.000227776
0.00928834
0.00022389
0.0094907
0.000215334
0.00966942
0.000203637
0.00982701
0.000189952
0.0099656
0.000175151
0.0100871
0.000159895
0.0101932
0.000144677
0.0102856
0.000129856
0.0103658
0.000115681
0.0104352
0.000102317
0.0104949
8.98599e-05
0.0105463
7.83516e-05
0.0105903
6.7793e-05
0.0106278
5.81536e-05
0.0106596
4.93792e-05
0.0106865
4.13988e-05
0.010709
3.41293e-05
0.0107276
2.74788e-05
0.0107429
2.13502e-05
0.010755
1.56424e-05
0.0107644
1.02516e-05
0.0107713
5.07305e-06
0.0107757
0.0107779
1.59639e-06