/*--------------------------------*- C++ -*----------------------------------*\
  =========                 |
  \\      /  F ield         | OpenFOAM: The Open Source CFD Toolbox
   \\    /   O peration     | Website:  https://openfoam.org
    \\  /    A nd           | Version:  7
     \\/     M anipulation  |
\*---------------------------------------------------------------------------*/
FoamFile
{
    version     2.0;
    format      ascii;
    class       volScalarField;
    location    "84.999";
    object      p;
}
// * * * * * * * * * * * * * * * * * * * * * * * * * * * * * * * * * * * * * //

dimensions      [0 2 -2 0 0 0 0];

internalField   nonuniform List<scalar> 
3700
(
0.672175
0.645176
0.624986
0.595572
0.563548
0.53067
0.498474
0.467666
0.438657
0.411606
0.386546
0.363431
0.342205
0.322799
0.305058
0.667428
0.640893
0.621264
0.592357
0.560756
0.528233
0.496335
0.46578
0.436986
0.410119
0.385218
0.362237
0.341119
0.321817
0.304217
0.658122
0.632498
0.613973
0.586062
0.555295
0.523471
0.492162
0.462106
0.433735
0.407232
0.382643
0.359924
0.339019
0.319921
0.302596
0.644333
0.620055
0.603164
0.576733
0.547202
0.516416
0.485981
0.456665
0.428924
0.402959
0.378834
0.356505
0.335917
0.317119
0.300198
0.626176
0.603662
0.588918
0.564434
0.536532
0.507114
0.477831
0.449491
0.42258
0.397326
0.373811
0.351998
0.33183
0.313424
0.297026
0.603802
0.583443
0.571339
0.549252
0.523358
0.495626
0.467764
0.440628
0.41474
0.390363
0.367603
0.346427
0.326777
0.308852
0.293089
0.577398
0.559558
0.550555
0.531293
0.507769
0.482027
0.455844
0.430129
0.405451
0.38211
0.360242
0.339821
0.320786
0.303424
0.288395
0.547185
0.532191
0.52672
0.510685
0.489871
0.466407
0.442145
0.418059
0.394767
0.372613
0.351769
0.332216
0.313889
0.297164
0.282957
0.513416
0.501556
0.50001
0.487572
0.469786
0.448868
0.426754
0.404491
0.382751
0.361926
0.342228
0.323651
0.30612
0.290102
0.276792
0.476377
0.467894
0.470621
0.462118
0.447651
0.429525
0.409769
0.389507
0.369472
0.350109
0.331672
0.314171
0.29752
0.282268
0.269918
0.436378
0.431469
0.438771
0.434502
0.423614
0.408503
0.391296
0.373198
0.355009
0.337228
0.320157
0.303826
0.288132
0.273699
0.262357
0.393757
0.392567
0.404696
0.404917
0.39784
0.385941
0.37145
0.355662
0.339443
0.323354
0.307746
0.292669
0.278004
0.264432
0.254134
0.348875
0.351495
0.368648
0.373572
0.3705
0.361982
0.350355
0.337003
0.322866
0.308563
0.294503
0.28076
0.267186
0.254509
0.245278
0.302111
0.308578
0.330893
0.340685
0.341778
0.336782
0.32814
0.317333
0.305371
0.292938
0.2805
0.26816
0.255735
0.243974
0.235817
0.25386
0.264155
0.291711
0.306485
0.311866
0.310501
0.304943
0.296768
0.287058
0.276561
0.26581
0.254938
0.243712
0.232873
0.225782
0.204529
0.21858
0.251392
0.27121
0.28096
0.283306
0.280903
0.275426
0.268028
0.259521
0.250506
0.241163
0.231186
0.221253
0.215192
0.154536
0.172214
0.210235
0.235102
0.249264
0.255366
0.256165
0.25343
0.248388
0.241907
0.234664
0.226907
0.218243
0.209186
0.204063
0.104295
0.12543
0.168543
0.198407
0.216982
0.226855
0.230875
0.230906
0.228244
0.223812
0.218359
0.212235
0.204975
0.196751
0.192347
0.0542228
0.0786033
0.126622
0.161373
0.18432
0.197946
0.20518
0.207977
0.207705
0.205331
0.201662
0.19719
0.191475
0.184167
0.180024
0.00473313
0.0321007
0.0847794
0.124245
0.151484
0.168813
0.179227
0.18477
0.186878
0.186561
0.18466
0.181821
0.177815
0.171746
0.166829
-0.043764
-0.0137204
0.0433177
0.0872657
0.118676
0.139627
0.153161
0.161406
0.165866
0.167594
0.167437
0.166141
0.163856
0.159725
0.153236
-0.0908734
-0.0585163
0.00253391
0.0506664
0.0860936
0.110556
0.127126
0.138007
0.144772
0.148519
0.15009
0.150265
0.149562
0.147585
0.142577
-0.136204
-0.10197
-0.0372922
0.0146676
0.0539302
0.081763
0.101259
0.114693
0.123695
0.129417
0.132704
0.134321
0.135046
0.135088
0.132163
-0.179303
-0.143767
-0.0759267
-0.0205248
0.0223742
0.0534061
0.075694
0.0915767
0.102733
0.110366
0.115339
0.118385
0.120389
0.121995
0.120931
-0.219971
-0.183355
-0.113256
-0.0547043
-0.00838942
0.025634
0.0505588
0.0687688
0.0819802
0.0914421
0.0980457
0.102491
0.105679
0.108497
0.108895
-0.257938
-0.219982
-0.149434
-0.0876294
-0.0381864
-0.00141386
0.0259738
0.0463726
0.0615248
0.0727191
0.0808762
0.0866774
0.0909972
0.0948667
0.0964729
-0.292993
-0.254025
-0.183622
-0.118994
-0.0668616
-0.0276061
0.00205285
0.0244848
0.041451
0.0542711
0.0638928
0.0709895
0.0764012
0.0812455
0.0839667
-0.324937
-0.285464
-0.215304
-0.148701
-0.0942726
-0.0528191
-0.0210976
0.00319524
0.0218372
0.0361685
0.0471588
0.0554801
0.0619316
0.067683
0.0714694
-0.35359
-0.314016
-0.24449
-0.176586
-0.120281
-0.0769374
-0.0433802
-0.0174144
0.00275563
0.0184762
0.0307333
0.0402
0.0476285
0.0542142
0.0590042
-0.378822
-0.339443
-0.271157
-0.202533
-0.144794
-0.0998517
-0.0647053
-0.037272
-0.0157281
0.00125285
0.0146691
0.0251966
0.0335338
0.0408824
0.0466094
-0.400561
-0.361609
-0.295191
-0.226448
-0.16783
-0.121403
-0.0849964
-0.0563126
-0.0335541
-0.0154493
-0.000986526
0.010514
0.0196886
0.0277314
0.0343362
-0.418785
-0.380441
-0.316481
-0.24822
-0.189148
-0.141743
-0.104167
-0.0744768
-0.0506695
-0.0315839
-0.0161924
-0.00380697
0.00613175
0.0147975
0.0222281
-0.433521
-0.395921
-0.334953
-0.26778
-0.208679
-0.160709
-0.122334
-0.0916795
-0.0670331
-0.0471103
-0.0309131
-0.0177297
-0.00710012
0.00210656
0.0103148
-0.444839
-0.408076
-0.350577
-0.285094
-0.226414
-0.178217
-0.139336
-0.107995
-0.0826372
-0.0619928
-0.0451182
-0.0312251
-0.0199719
-0.0103188
-0.00138878
-0.452858
-0.416991
-0.363358
-0.300144
-0.242347
-0.194254
-0.155126
-0.123355
-0.0974664
-0.0762542
-0.0587703
-0.0442795
-0.0324536
-0.0224386
-0.012902
-0.457739
-0.422806
-0.373342
-0.312933
-0.256477
-0.208832
-0.16971
-0.137722
-0.11148
-0.0898392
-0.0718834
-0.0569136
-0.0445321
-0.0341643
-0.0243019
-0.459683
-0.425714
-0.380613
-0.323483
-0.268812
-0.221963
-0.183103
-0.151095
-0.124663
-0.102731
-0.0844281
-0.0690715
-0.0562292
-0.0454743
-0.0356606
-0.458931
-0.42596
-0.385297
-0.331842
-0.279378
-0.233665
-0.195323
-0.163487
-0.137024
-0.114931
-0.0963892
-0.080737
-0.0675355
-0.05644
-0.0465217
-0.455755
-0.423835
-0.38755
-0.338081
-0.288219
-0.24397
-0.206391
-0.174918
-0.148578
-0.126449
-0.10777
-0.0919102
-0.0784341
-0.0670329
-0.0568349
-0.450458
-0.419675
-0.387558
-0.342299
-0.295395
-0.252918
-0.216341
-0.185414
-0.159342
-0.137299
-0.11858
-0.102595
-0.0889138
-0.0772498
-0.0667434
-0.443361
-0.413833
-0.385542
-0.344619
-0.300981
-0.260562
-0.225212
-0.195006
-0.169342
-0.147499
-0.128835
-0.112803
-0.0989807
-0.087119
-0.0763723
-0.434797
-0.406666
-0.381763
-0.345198
-0.305066
-0.266966
-0.233056
-0.203734
-0.178608
-0.157072
-0.138553
-0.122548
-0.108652
-0.0966645
-0.0857823
-0.425105
-0.398511
-0.376518
-0.344214
-0.307754
-0.272197
-0.239924
-0.211643
-0.187177
-0.166047
-0.147756
-0.131853
-0.117948
-0.105894
-0.0949736
-0.414613
-0.38968
-0.37013
-0.341871
-0.309159
-0.27633
-0.245876
-0.218781
-0.195089
-0.174459
-0.156474
-0.14074
-0.126886
-0.114809
-0.103919
-0.403635
-0.38045
-0.362934
-0.338389
-0.309406
-0.279444
-0.250971
-0.225199
-0.202388
-0.182343
-0.164735
-0.149231
-0.135484
-0.123415
-0.112601
-0.392453
-0.371059
-0.355256
-0.334
-0.308631
-0.281622
-0.25527
-0.230949
-0.20912
-0.189739
-0.172572
-0.157354
-0.143764
-0.131728
-0.121022
-0.381313
-0.36171
-0.347387
-0.328948
-0.306984
-0.28295
-0.258832
-0.23608
-0.215329
-0.196688
-0.180021
-0.165135
-0.15175
-0.13977
-0.129196
-0.370416
-0.352576
-0.33957
-0.323476
-0.304621
-0.283518
-0.261716
-0.240639
-0.22106
-0.20323
-0.187119
-0.172607
-0.159469
-0.147569
-0.137143
-0.359923
-0.343797
-0.331985
-0.31782
-0.301709
-0.28342
-0.263976
-0.24467
-0.226352
-0.209405
-0.193904
-0.179803
-0.166951
-0.155151
-0.144882
-0.349951
-0.335481
-0.324757
-0.312191
-0.298419
-0.282756
-0.265666
-0.248209
-0.231242
-0.215251
-0.200414
-0.186759
-0.174226
-0.162545
-0.152436
-0.340579
-0.327705
-0.317965
-0.30676
-0.294925
-0.281634
-0.266843
-0.251289
-0.235758
-0.220798
-0.206684
-0.19351
-0.181326
-0.169782
-0.159828
-0.331863
-0.320514
-0.311661
-0.301643
-0.291387
-0.280168
-0.267564
-0.253936
-0.239919
-0.226071
-0.212746
-0.200091
-0.188285
-0.176894
-0.167082
-0.323829
-0.313924
-0.305876
-0.296905
-0.287946
-0.278482
-0.267894
-0.256175
-0.243739
-0.231085
-0.218624
-0.206534
-0.195137
-0.183913
-0.174231
-0.316484
-0.307929
-0.300623
-0.292577
-0.284706
-0.276696
-0.267906
-0.258031
-0.24722
-0.235845
-0.224334
-0.212868
-0.201915
-0.190881
-0.181302
-0.309821
-0.302508
-0.295896
-0.28867
-0.281732
-0.27492
-0.267685
-0.259537
-0.250362
-0.240342
-0.229877
-0.219111
-0.208653
-0.197829
-0.188343
-0.30382
-0.297631
-0.291676
-0.285184
-0.279056
-0.273241
-0.267318
-0.260734
-0.253161
-0.244555
-0.235239
-0.225268
-0.215376
-0.204811
-0.195379
-0.298449
-0.293261
-0.287932
-0.28211
-0.276691
-0.271718
-0.266888
-0.261675
-0.25562
-0.248455
-0.240386
-0.231325
-0.222101
-0.211849
-0.202537
-0.293669
-0.289359
-0.284629
-0.279429
-0.274639
-0.270386
-0.266465
-0.26242
-0.257751
-0.25201
-0.245266
-0.237235
-0.228831
-0.219002
-0.209846
-0.289429
-0.285878
-0.281716
-0.27711
-0.272895
-0.269264
-0.266099
-0.263031
-0.259579
-0.255195
-0.249807
-0.242943
-0.235497
-0.226287
-0.217661
-0.285673
-0.282774
-0.279151
-0.275114
-0.271438
-0.268357
-0.265826
-0.263561
-0.26114
-0.258
-0.253938
-0.248333
-0.242063
-0.23363
-0.225877
-0.282339
-0.279995
-0.276882
-0.273395
-0.270234
-0.267654
-0.265661
-0.264052
-0.262478
-0.260431
-0.257587
-0.253345
-0.248154
-0.241476
-0.234027
-0.27936
-0.277493
-0.274858
-0.271901
-0.26924
-0.267128
-0.265605
-0.264535
-0.263636
-0.262515
-0.2607
-0.257928
-0.253589
-0.249228
-0.241343
-0.276661
-0.275224
-0.273028
-0.270579
-0.268402
-0.266737
-0.265638
-0.265017
-0.264653
-0.264287
-0.263272
-0.262004
-0.258152
-0.256042
-0.247779
-0.274192
-0.27313
-0.271344
-0.269377
-0.267666
-0.266429
-0.265721
-0.265488
-0.265548
-0.265788
-0.265343
-0.265518
-0.26173
-0.26197
-0.253235
-0.271896
-0.271166
-0.26976
-0.268246
-0.266976
-0.266146
-0.265805
-0.265915
-0.266323
-0.267041
-0.26699
-0.268454
-0.26438
-0.267262
-0.257565
-0.269719
-0.269297
-0.268237
-0.267144
-0.266285
-0.265835
-0.265834
-0.266252
-0.266959
-0.268044
-0.2683
-0.270773
-0.266346
-0.271865
-0.260674
-0.267619
-0.267493
-0.266746
-0.266036
-0.265553
-0.26545
-0.265759
-0.26645
-0.26742
-0.268778
-0.269331
-0.272417
-0.26795
-0.275421
-0.262732
-0.265563
-0.265722
-0.265269
-0.264896
-0.264748
-0.264955
-0.265537
-0.266467
-0.267666
-0.269216
-0.270086
-0.273368
-0.269391
-0.277609
-0.264248
-0.263532
-0.263979
-0.263786
-0.263711
-0.263854
-0.264326
-0.265142
-0.266272
-0.267658
-0.269339
-0.270519
-0.273688
-0.270628
-0.278435
-0.265675
-0.261517
-0.262255
-0.26229
-0.262473
-0.262863
-0.263556
-0.26456
-0.265848
-0.267372
-0.269137
-0.270573
-0.273478
-0.271477
-0.278181
-0.267044
-0.25952
-0.260553
-0.260784
-0.261186
-0.261779
-0.262647
-0.263795
-0.265194
-0.266808
-0.268615
-0.270207
-0.272832
-0.271753
-0.277184
-0.268073
-0.257553
-0.258879
-0.25928
-0.259863
-0.260616
-0.261616
-0.262862
-0.264328
-0.265982
-0.267784
-0.269433
-0.271822
-0.271353
-0.275713
-0.268482
-0.255634
-0.257247
-0.257791
-0.258522
-0.259396
-0.260486
-0.261791
-0.263281
-0.264925
-0.266671
-0.268351
-0.270414
-0.270348
-0.273943
-0.268169
-0.253789
-0.255677
-0.25634
-0.257186
-0.258147
-0.259292
-0.260617
-0.262093
-0.263686
-0.265342
-0.266962
-0.26866
-0.269139
-0.271526
-0.267338
-0.252046
-0.254191
-0.254951
-0.255885
-0.256902
-0.25807
-0.259383
-0.260811
-0.262319
-0.263853
-0.265339
-0.26675
-0.267474
-0.268876
-0.266473
-0.250438
-0.252814
-0.25365
-0.254647
-0.255694
-0.256859
-0.258134
-0.259488
-0.260883
-0.262266
-0.263575
-0.264737
-0.26546
-0.266253
-0.264938
-0.248995
-0.25157
-0.252464
-0.253502
-0.254557
-0.255697
-0.256914
-0.258173
-0.259433
-0.260644
-0.261748
-0.262669
-0.263258
-0.263663
-0.262902
-0.247746
-0.250484
-0.251418
-0.252477
-0.253522
-0.254622
-0.255764
-0.256912
-0.258022
-0.259045
-0.259927
-0.260601
-0.260985
-0.261097
-0.26055
-0.246718
-0.249576
-0.250533
-0.251597
-0.252618
-0.253663
-0.254718
-0.255744
-0.256695
-0.25752
-0.258169
-0.258586
-0.258724
-0.258569
-0.258011
-0.245931
-0.248863
-0.249828
-0.250881
-0.251866
-0.252846
-0.253806
-0.254703
-0.255487
-0.25611
-0.25652
-0.256672
-0.256536
-0.256101
-0.25539
0.282163
0.259634
0.2404
0.225712
0.21293
0.203066
0.194359
0.187584
0.18153
0.176796
0.172566
0.169293
0.16638
0.16415
0.162199
0.160758
0.159553
0.158744
0.158153
0.15793
0.281546
0.259204
0.240069
0.225469
0.212735
0.202916
0.194234
0.187484
0.181446
0.176727
0.172505
0.169238
0.16633
0.164105
0.162157
0.160719
0.159516
0.158709
0.158118
0.157896
0.280361
0.258388
0.239443
0.225015
0.212372
0.202641
0.194005
0.187302
0.181295
0.1766
0.172392
0.16914
0.166242
0.164024
0.162083
0.16065
0.15945
0.158646
0.158058
0.157835
0.278608
0.257186
0.238524
0.224351
0.211842
0.202239
0.193672
0.187039
0.181076
0.176419
0.17223
0.168998
0.166114
0.163909
0.161976
0.16055
0.159357
0.158556
0.157971
0.157749
0.276284
0.2556
0.237313
0.223478
0.211146
0.201714
0.193237
0.186695
0.180788
0.176179
0.17202
0.168814
0.165948
0.163758
0.161838
0.160421
0.159235
0.15844
0.157858
0.157637
0.27339
0.253631
0.235812
0.2224
0.210288
0.201065
0.192702
0.18627
0.180435
0.175891
0.171763
0.168588
0.165745
0.163573
0.161668
0.160262
0.159086
0.158297
0.157719
0.157499
0.269925
0.251283
0.234025
0.221118
0.20927
0.200295
0.192068
0.185766
0.18001
0.175527
0.171456
0.168321
0.165505
0.163355
0.161467
0.160075
0.158909
0.158128
0.157556
0.157337
0.265892
0.248558
0.231954
0.219637
0.208094
0.199407
0.191338
0.185182
0.179516
0.17515
0.171124
0.168014
0.16523
0.163104
0.161236
0.159859
0.158706
0.157933
0.157368
0.15715
0.261294
0.24546
0.229604
0.217957
0.206766
0.1984
0.190515
0.184521
0.178955
0.174684
0.170711
0.167668
0.16492
0.162822
0.160976
0.159616
0.158477
0.157714
0.157155
0.156939
0.256137
0.241993
0.226979
0.216083
0.205289
0.197279
0.189602
0.183787
0.178334
0.174161
0.170327
0.167299
0.164576
0.162508
0.160688
0.159346
0.158224
0.157471
0.15692
0.156705
0.250428
0.238162
0.224085
0.214015
0.203667
0.196044
0.188601
0.18298
0.177657
0.173584
0.169821
0.166877
0.164199
0.162164
0.160372
0.15905
0.157945
0.157204
0.156662
0.156448
0.244177
0.23397
0.220928
0.211757
0.201906
0.194698
0.187516
0.182102
0.176924
0.172967
0.169301
0.166416
0.163792
0.161792
0.16003
0.15873
0.157644
0.156915
0.156381
0.15617
0.237395
0.229421
0.217516
0.209309
0.200009
0.193243
0.186349
0.181156
0.176137
0.172297
0.168721
0.165915
0.163349
0.161393
0.159663
0.158386
0.15732
0.156604
0.15608
0.155871
0.230097
0.224516
0.213857
0.206674
0.197983
0.191682
0.185104
0.180143
0.175297
0.171581
0.168098
0.165404
0.162903
0.160973
0.159272
0.158019
0.156975
0.156273
0.155759
0.155552
0.222299
0.219255
0.209962
0.203854
0.195831
0.190018
0.183782
0.179066
0.174407
0.170822
0.167439
0.164812
0.162416
0.160521
0.15886
0.15763
0.156609
0.155921
0.155418
0.155214
0.214021
0.213637
0.205839
0.200851
0.193558
0.188255
0.182388
0.177928
0.173468
0.170023
0.16675
0.164205
0.161871
0.160057
0.158408
0.157223
0.156224
0.155551
0.155059
0.154858
0.205275
0.207652
0.201497
0.197668
0.191167
0.186395
0.180921
0.17673
0.17248
0.169182
0.166028
0.163568
0.161302
0.159549
0.158003
0.156799
0.155821
0.155164
0.154683
0.154485
0.196101
0.201306
0.196951
0.194308
0.188657
0.184438
0.179381
0.175473
0.171444
0.168301
0.165272
0.162903
0.160711
0.159008
0.157498
0.156369
0.155403
0.15476
0.15429
0.154096
0.186474
0.194618
0.192226
0.190833
0.186073
0.182436
0.177809
0.174195
0.17039
0.167407
0.164502
0.162227
0.160109
0.158463
0.156996
0.1559
0.15498
0.154345
0.153881
0.153693
0.175956
0.187114
0.187054
0.187037
0.183284
0.180293
0.176122
0.17283
0.16926
0.16645
0.163678
0.161502
0.159465
0.157882
0.156467
0.155406
0.154516
0.153908
0.15346
0.153276
0.160731
0.174855
0.178697
0.17992
0.177984
0.17584
0.172695
0.169945
0.166972
0.1645
0.162086
0.160124
0.158307
0.156861
0.155582
0.154605
0.153794
0.15323
0.152827
0.152663
0.148941
0.161288
0.168167
0.170924
0.170932
0.169955
0.167983
0.166016
0.163768
0.161807
0.159848
0.158215
0.156686
0.155452
0.154354
0.153508
0.152801
0.152307
0.151956
0.151818
0.138154
0.150194
0.158457
0.16245
0.164042
0.164141
0.163245
0.162032
0.160486
0.159032
0.157528
0.156231
0.154996
0.153981
0.153069
0.152359
0.151763
0.151342
0.151045
0.150929
0.12816
0.140476
0.149557
0.154563
0.157424
0.158488
0.158572
0.158065
0.157192
0.156226
0.15517
0.154201
0.153261
0.152464
0.151742
0.151169
0.150686
0.150341
0.150099
0.150004
0.119175
0.131767
0.141413
0.147277
0.151137
0.153063
0.154009
0.154164
0.153918
0.15342
0.152796
0.152149
0.1515
0.150918
0.150385
0.149947
0.149579
0.14931
0.149124
0.149049
0.111229
0.123944
0.133977
0.140553
0.145204
0.147893
0.149587
0.150358
0.150685
0.150637
0.150422
0.150091
0.149723
0.149353
0.149006
0.148705
0.148449
0.148257
0.148126
0.14807
0.104224
0.116933
0.127211
0.134351
0.139636
0.14299
0.145329
0.146668
0.147516
0.147896
0.148066
0.14804
0.147942
0.147782
0.147615
0.147449
0.147304
0.147189
0.147111
0.147074
0.0980278
0.110653
0.121071
0.12864
0.134433
0.13836
0.141257
0.14311
0.144431
0.145213
0.145742
0.14601
0.146169
0.146214
0.146222
0.146188
0.146152
0.146111
0.146086
0.146069
0.0925315
0.105024
0.115507
0.123391
0.129591
0.134003
0.137382
0.139699
0.141445
0.142602
0.143464
0.144012
0.144416
0.144658
0.144833
0.144929
0.144998
0.145031
0.145056
0.14506
0.0876521
0.099975
0.110466
0.118576
0.125099
0.12992
0.133713
0.136443
0.138571
0.140075
0.141244
0.142058
0.142691
0.143124
0.143459
0.143681
0.143851
0.143956
0.144029
0.144053
0.0833204
0.0954466
0.1059
0.114167
0.120944
0.126104
0.130253
0.133349
0.13582
0.137641
0.139094
0.140157
0.141005
0.141619
0.142106
0.14245
0.142716
0.142891
0.14301
0.143054
0.0794753
0.0913867
0.101768
0.110136
0.11711
0.122551
0.127005
0.130421
0.133198
0.135309
0.137022
0.138317
0.139366
0.140152
0.140782
0.141242
0.1416
0.141842
0.142006
0.142069
0.0760626
0.0877487
0.0980318
0.106457
0.11358
0.119253
0.123966
0.127664
0.130712
0.133085
0.135036
0.136545
0.137782
0.138728
0.139494
0.140065
0.14051
0.140816
0.141021
0.141104
0.0730344
0.084491
0.0946567
0.103107
0.11034
0.116202
0.121135
0.125077
0.128366
0.130974
0.133141
0.134848
0.136258
0.137356
0.138248
0.138923
0.13945
0.139817
0.140061
0.140163
0.0703485
0.0815763
0.0916123
0.100061
0.107373
0.113387
0.118506
0.12266
0.126162
0.128982
0.131344
0.133232
0.134802
0.136039
0.13705
0.137823
0.138427
0.13885
0.139132
0.139252
0.0679683
0.0789716
0.0888711
0.0973001
0.104664
0.110801
0.116075
0.120412
0.124102
0.12711
0.129649
0.131701
0.133417
0.134784
0.135905
0.136768
0.137444
0.137921
0.138238
0.138375
0.0658614
0.076648
0.0864083
0.0948033
0.102199
0.108434
0.113837
0.118332
0.122185
0.125361
0.128058
0.13026
0.13211
0.133596
0.134817
0.135765
0.136508
0.137035
0.137383
0.137537
0.0639998
0.0745797
0.0842019
0.0925532
0.0999646
0.106277
0.111786
0.116417
0.120412
0.123736
0.126575
0.128912
0.130883
0.132477
0.133791
0.134817
0.135621
0.136194
0.136573
0.136742
0.0623593
0.0727444
0.0822323
0.0905337
0.0979484
0.10432
0.109918
0.114664
0.118783
0.122238
0.125202
0.12766
0.12974
0.131433
0.132831
0.133929
0.134789
0.135404
0.13581
0.135993
0.0609185
0.0711222
0.0804818
0.0887301
0.096139
0.102556
0.108226
0.113071
0.117296
0.120865
0.12394
0.126506
0.128683
0.130466
0.13194
0.133102
0.134014
0.134668
0.135099
0.135294
0.0596593
0.0696961
0.0789353
0.0871295
0.0945262
0.100978
0.106706
0.111634
0.11595
0.119619
0.122791
0.125453
0.127717
0.129579
0.131121
0.132342
0.133299
0.133988
0.134442
0.134649
0.0585659
0.0684511
0.0775791
0.0857202
0.0931006
0.0995774
0.105352
0.11035
0.114744
0.118499
0.121756
0.124501
0.126842
0.128774
0.130377
0.13165
0.132648
0.133368
0.133842
0.13406
0.0576249
0.0673745
0.0764014
0.0844921
0.091854
0.0983488
0.104161
0.109217
0.113676
0.117505
0.120835
0.123653
0.12606
0.128054
0.12971
0.131028
0.132063
0.132811
0.133303
0.13353
0.056825
0.0664552
0.0753922
0.0834363
0.0907788
0.0972862
0.103127
0.108231
0.112745
0.116637
0.120029
0.122908
0.125373
0.12742
0.129122
0.13048
0.131547
0.132319
0.132826
0.133061
0.0561566
0.0656839
0.0745426
0.0825452
0.0898689
0.0963847
0.102249
0.107392
0.11195
0.115894
0.119337
0.122269
0.124782
0.126874
0.128615
0.130007
0.1311
0.131893
0.132413
0.132656
0.0556118
0.065053
0.0738456
0.0818123
0.0891188
0.09564
0.101521
0.106695
0.11129
0.115275
0.118761
0.121736
0.124288
0.126417
0.128191
0.129611
0.130726
0.131535
0.132067
0.132315
0.0551843
0.0645562
0.0732951
0.0812324
0.0885241
0.0950486
0.100943
0.10614
0.110763
0.114781
0.1183
0.121309
0.123892
0.126051
0.12785
0.129292
0.130425
0.131248
0.131788
0.132041
0.054869
0.0641886
0.0728864
0.0808013
0.0880811
0.0946075
0.100511
0.105725
0.110368
0.114411
0.117954
0.120988
0.123595
0.125775
0.127593
0.129052
0.130198
0.131031
0.131578
0.131834
0.0546621
0.0639465
0.0726159
0.0805158
0.0877871
0.0943148
0.100223
0.105449
0.110106
0.114165
0.117723
0.120774
0.123396
0.125591
0.127422
0.128892
0.130047
0.130886
0.131438
0.131696
0.0545601
0.0638277
0.0724807
0.0803743
0.0876399
0.0941692
0.100079
0.105312
0.109974
0.114042
0.117608
0.120667
0.123297
0.125499
0.127336
0.128812
0.129971
0.130814
0.131367
0.131627
0.145751
0.136723
0.127138
0.117883
0.109408
0.101796
0.0950105
0.0889867
0.0836553
0.0789462
0.0747914
0.0711275
0.0678975
0.0650507
0.0625426
0.0603343
0.0583919
0.0566859
0.0551908
0.0538846
0.0527483
0.0517657
0.0509229
0.0502084
0.0496124
0.049127
0.048746
0.0484641
0.0482782
0.0481905
0.13542
0.125856
0.116845
0.108386
0.100735
0.0938753
0.0877513
0.0823098
0.0774953
0.0732459
0.0694993
0.0661971
0.0632869
0.0607222
0.0584625
0.0564725
0.0547213
0.0531824
0.0518326
0.0506521
0.0496237
0.0487327
0.0479667
0.0473151
0.0467692
0.0463218
0.0459674
0.0457011
0.0455205
0.0454326
0.123556
0.112587
0.103758
0.0959589
0.0892188
0.0833212
0.078136
0.0735716
0.069556
0.0660229
0.0629125
0.0601714
0.0577536
0.0556194
0.0537349
0.0520708
0.050602
0.0493069
0.0481668
0.0471658
0.0462902
0.0455282
0.0448698
0.0443067
0.0438316
0.0434389
0.0431242
0.0428837
0.0427146
0.0426269
0.112871
0.101938
0.0935588
0.0861885
0.0799932
0.0746846
0.0701076
0.0661396
0.0626871
0.0596729
0.0570336
0.0547164
0.0526774
0.0508799
0.0492934
0.0478918
0.0466534
0.0455596
0.0445947
0.0437453
0.0429998
0.0423487
0.0417835
0.0412974
0.0408845
0.0405401
0.0402607
0.0400432
0.0398835
0.0397913
0.102037
0.0922212
0.0850208
0.0783724
0.0727548
0.0679127
0.0637519
0.0601664
0.0570673
0.0543784
0.0520371
0.0499918
0.0482001
0.0466269
0.0452429
0.0440236
0.0429485
0.0420003
0.0411644
0.0404286
0.0397824
0.039217
0.038725
0.0383
0.0379369
0.0376314
0.0373806
0.0371817
0.0370292
0.0369303
0.0906099
0.0818793
0.0760033
0.0703282
0.0655298
0.0613163
0.0576626
0.0544955
0.0517512
0.0493694
0.047298
0.0454922
0.0439145
0.0425332
0.0413215
0.0402571
0.0393211
0.0384973
0.0377725
0.037135
0.0365753
0.0360852
0.0356579
0.0352875
0.0349692
0.0346991
0.0344743
0.0342929
0.0341481
0.0340432
0.0790755
0.0712322
0.0663699
0.0615573
0.0576056
0.054113
0.0510777
0.0484315
0.0461274
0.0441208
0.0423719
0.0408458
0.0395123
0.0383453
0.0373226
0.0364252
0.0356369
0.0349438
0.0343344
0.0337985
0.0333277
0.0329148
0.0325537
0.0322392
0.0319671
0.0317336
0.0315363
0.0313737
0.031239
0.0311304
0.0676805
0.0607899
0.0567675
0.0526581
0.0494257
0.0465885
0.0441569
0.042047
0.0402138
0.0386179
0.0372267
0.0360124
0.0349511
0.0340225
0.0332087
0.0324949
0.0318679
0.0313166
0.0308316
0.0304046
0.0300288
0.029698
0.0294073
0.0291523
0.0289293
0.0287353
0.0285679
0.0284263
0.0283041
0.0281944
0.0563787
0.0505626
0.0474138
0.0440053
0.0414266
0.0391681
0.0372737
0.0356518
0.0342589
0.0330564
0.0320148
0.0311099
0.030322
0.0296345
0.0290337
0.0285075
0.028046
0.0276404
0.0272834
0.0269687
0.0266907
0.0264448
0.0262269
0.0260336
0.0258619
0.0257093
0.0255738
0.025455
0.0253475
0.0252391
0.0451332
0.0404176
0.0381854
0.0355453
0.0336431
0.0319539
0.0305661
0.0293939
0.0284046
0.0275642
0.0268469
0.0262319
0.0257026
0.0252456
0.0248497
0.0245056
0.0242056
0.0239431
0.0237125
0.0235089
0.0233284
0.0231673
0.0230225
0.0228915
0.0227719
0.0226617
0.0225592
0.0224645
0.0223733
0.0222684
0.0339847
0.030332
0.0289987
0.0271524
0.0259503
0.0248494
0.0239727
0.0232427
0.0226426
0.0221474
0.0217375
0.0213969
0.0211129
0.0208751
0.0206749
0.0205056
0.0203614
0.0202375
0.02013
0.0200352
0.0199504
0.019873
0.0198008
0.0197318
0.0196645
0.0195972
0.0195284
0.0194589
0.0193853
0.019286
0.0229761
0.0203496
0.0198827
0.0188089
0.0182926
0.0177798
0.0174168
0.0171307
0.016919
0.0167654
0.0166576
0.0165853
0.0165401
0.0165154
0.0165057
0.0165065
0.0165142
0.0165258
0.0165388
0.0165509
0.0165605
0.0165658
0.0165655
0.0165584
0.0165435
0.0165195
0.0164852
0.0164417
0.0163871
0.0162955
0.0121193
0.0104985
0.010888
0.0105563
0.0106959
0.0107498
0.0108867
0.0110361
0.0112093
0.0113952
0.0115875
0.011781
0.0119722
0.0121581
0.0123363
0.0125049
0.0126625
0.0128078
0.0129399
0.0130578
0.0131609
0.0132485
0.0133199
0.0133747
0.0134124
0.0134322
0.0134332
0.0134165
0.0133822
0.0133001
0.00140608
0.000783007
0.00203767
0.00242143
0.00319533
0.00379141
0.00440742
0.00497445
0.00552299
0.00604184
0.00652917
0.00698494
0.00740951
0.00780345
0.00816742
0.00850208
0.00880804
0.00908585
0.00933602
0.00955897
0.00975505
0.00992454
0.0100676
0.0101844
0.0102749
0.010339
0.0103759
0.010387
0.0103743
0.0103032
-0.00917813
-0.00877763
-0.006662
-0.00558959
-0.00419496
-0.00307712
-0.0020001
-0.00103604
-0.000122146
0.000719817
0.0014946
0.00220658
0.00285982
0.00345814
0.00400498
0.00450332
0.00495577
0.00536459
0.00573172
0.00605881
0.00634728
0.00659831
0.00681283
0.0069916
0.00713519
0.00724402
0.00731748
0.00735682
0.007367
0.00730846
-0.0196475
-0.0181214
-0.0152165
-0.0134708
-0.0114773
-0.00985378
-0.00832993
-0.00698651
-0.00571388
-0.00455905
-0.00350531
-0.0025442
-0.00166806
-0.000869968
-0.000143969
0.000515104
0.0011117
0.00164967
0.0021323
0.00256244
0.00294248
0.00327447
0.00356011
0.00380074
0.00399746
0.00415125
0.00426183
0.00432968
0.00436414
0.00431944
-0.0299691
-0.0271541
-0.0236589
-0.0212058
-0.0186672
-0.0165457
-0.0145879
-0.012869
-0.0112448
-0.00978817
-0.00846392
-0.0072609
-0.00616776
-0.00517474
-0.0042735
-0.00345687
-0.00271868
-0.00205361
-0.0014571
-0.000925194
-0.000454542
-4.22815e-05
0.000313994
0.000616248
0.000866045
0.00106487
0.00121309
0.00130952
0.00136907
0.00134039
-0.040054
-0.0360791
-0.0320606
-0.0288724
-0.0258343
-0.0232102
-0.0208037
-0.0186555
-0.0167081
-0.0149613
-0.0133768
-0.0119395
-0.0106354
-0.00945217
-0.00837951
-0.0074084
-0.00653112
-0.00574096
-0.00503217
-0.00439976
-0.00383948
-0.00334767
-0.00292126
-0.00255769
-0.00225492
-0.00201109
-0.0018249
-0.00169919
-0.00161582
-0.00162379
-0.0497574
-0.0449004
-0.0403309
-0.0364636
-0.0329175
-0.0298034
-0.0269751
-0.0244342
-0.0221601
-0.0201202
-0.0182743
-0.0166026
-0.0150877
-0.0137148
-0.0124712
-0.0113461
-0.0103302
-0.00941535
-0.00859458
-0.00786188
-0.00721207
-0.00664074
-0.00614412
-0.00571906
-0.00536302
-0.00507378
-0.00484967
-0.00469173
-0.00458951
-0.00456813
-0.0591291
-0.0535688
-0.0484279
-0.0439383
-0.0398842
-0.0363039
-0.0330789
-0.0301822
-0.0275866
-0.0252549
-0.0231484
-0.0212432
-0.0195187
-0.0179572
-0.0165438
-0.0152658
-0.0141121
-0.0130733
-0.0121412
-0.0113088
-0.0105699
-0.00991948
-0.00935296
-0.00886666
-0.00845752
-0.00812296
-0.00786092
-0.00767123
-0.00754832
-0.00750454
-0.0682742
-0.0620885
-0.0563463
-0.0512707
-0.0467232
-0.0427033
-0.039097
-0.0358609
-0.0329547
-0.0303398
-0.0279784
-0.0258442
-0.0239137
-0.0221666
-0.0205859
-0.0191571
-0.0178675
-0.0167064
-0.0156643
-0.0147333
-0.0139064
-0.0131777
-0.012542
-0.011995
-0.0115333
-0.0111538
-0.0108541
-0.0106335
-0.0104878
-0.0104284
-0.0772646
-0.070473
-0.0640952
-0.0584551
-0.0534364
-0.0489988
-0.045022
-0.0414537
-0.0382462
-0.0353578
-0.0327495
-0.0303926
-0.0282611
-0.0263325
-0.0245879
-0.0230111
-0.021588
-0.0203065
-0.0191562
-0.0181282
-0.0172145
-0.0164085
-0.0157046
-0.0150978
-0.0145841
-0.0141603
-0.0138236
-0.0135726
-0.0134031
-0.0133292
-0.0861171
-0.0787004
-0.071687
-0.0655047
-0.0600367
-0.0551959
-0.0508573
-0.046963
-0.0434614
-0.0403072
-0.0374589
-0.034885
-0.0325571
-0.0304508
-0.0285455
-0.0268234
-0.0252691
-0.0238693
-0.0226125
-0.0214888
-0.0204897
-0.0196076
-0.0188364
-0.0181706
-0.0176057
-0.0171382
-0.016765
-0.0164842
-0.016291
-0.0162005
-0.0948028
-0.0867642
-0.0791331
-0.0724339
-0.066534
-0.0613013
-0.0566094
-0.0523961
-0.0486065
-0.045192
-0.0421089
-0.0393223
-0.0368016
-0.0345207
-0.0324574
-0.0305923
-0.0289087
-0.0273923
-0.0260305
-0.0248126
-0.0237291
-0.022772
-0.0219344
-0.0212105
-0.0205952
-0.0200846
-0.0196755
-0.0193655
-0.0191491
-0.0190406
-0.1033
-0.09467
-0.0864434
-0.0792495
-0.0729318
-0.0673182
-0.0622818
-0.0577564
-0.0536845
-0.0500147
-0.0467006
-0.0437047
-0.0409942
-0.0385413
-0.0363221
-0.0343159
-0.0325048
-0.0308733
-0.0294079
-0.0280968
-0.0269302
-0.0258991
-0.0249961
-0.0242149
-0.02355
-0.0229971
-0.0225526
-0.0222141
-0.0219752
-0.0218488
-0.111609
-0.102429
-0.0936246
-0.0859532
-0.0792312
-0.0732486
-0.0678759
-0.0630446
-0.0586953
-0.0547745
-0.0512332
-0.0480309
-0.045133
-0.0425103
-0.0401373
-0.0379918
-0.0360548
-0.0343096
-0.0327418
-0.0313389
-0.0300901
-0.028986
-0.0280186
-0.027181
-0.0264674
-0.025873
-0.025394
-0.0250277
-0.0247673
-0.0246235
-0.119738
-0.11005
-0.10068
-0.0925436
-0.0854318
-0.0790927
-0.0733916
-0.0682594
-0.0636374
-0.05947
-0.0557048
-0.0522987
-0.0492159
-0.0464255
-0.0439005
-0.0416173
-0.0395558
-0.0376982
-0.0360293
-0.0345358
-0.033206
-0.03203
-0.0309992
-0.0301063
-0.0293449
-0.0287099
-0.0281972
-0.0278041
-0.0275231
-0.0273629
-0.127698
-0.117542
-0.107612
-0.0990225
-0.0915374
-0.0848543
-0.0788301
-0.0734004
-0.0685099
-0.0640998
-0.0601137
-0.0565062
-0.0532405
-0.0502844
-0.047609
-0.0451897
-0.0430051
-0.0410365
-0.0392678