/*--------------------------------*- C++ -*----------------------------------*\
  =========                 |
  \\      /  F ield         | OpenFOAM: The Open Source CFD Toolbox
   \\    /   O peration     | Website:  https://openfoam.org
    \\  /    A nd           | Version:  7
     \\/     M anipulation  |
\*---------------------------------------------------------------------------*/
FoamFile
{
    version     2.0;
    format      ascii;
    class       surfaceScalarField;
    location    "5";
    object      phi;
}
// * * * * * * * * * * * * * * * * * * * * * * * * * * * * * * * * * * * * * //

dimensions      [0 3 -1 0 0 0 0];

internalField   nonuniform List<scalar> 
6868
(
0.00814555
-0.000217787
0.00834924
-0.000203697
0.00853998
-0.000190735
0.00871877
-0.000178791
0.00888653
-0.000167758
0.00904406
-0.000157533
0.00919208
-0.000148017
0.0093312
-0.000139119
0.00946195
-0.000130755
0.0095848
-0.000122853
0.00970016
-0.000115351
0.00980835
-0.000108194
0.00990969
-0.000101343
0.0100045
-9.47622e-05
0.0100929
-8.84275e-05
0.0101752
-8.2319e-05
0.0102516
-7.64216e-05
0.0103223
-7.07238e-05
0.0103876
-6.52175e-05
0.0104475
-5.98976e-05
0.0105022
-5.47633e-05
0.010552
-4.98186e-05
0.0105971
-4.50725e-05
0.0106377
-4.05389e-05
0.0106739
-3.62359e-05
0.0107061
-3.21833e-05
0.0107345
-2.8401e-05
0.0107594
-2.49059e-05
0.0107811
-2.17096e-05
0.0107999
-1.88169e-05
0.0108161
-1.62246e-05
0.0108301
-1.39214e-05
0.0108419
-1.18891e-05
0.010852
-1.01039e-05
0.0108606
-8.53818e-06
0.0108677
-7.1631e-06
0.0108737
-5.94993e-06
0.0108786
-4.87189e-06
0.0108825
-3.90511e-06
0.0108855
-3.02922e-06
0.0108877
-2.22746e-06
0.0108892
-1.48578e-06
0.01089
-7.92916e-07
0.0108901
-1.26092e-07
0.0108897
4.44607e-07
0.0108887
9.91315e-07
0.0108872
1.50545e-06
0.0108852
1.98866e-06
0.0108828
2.44203e-06
0.0108799
2.86638e-06
0.0108766
3.26296e-06
0.010873
3.63308e-06
0.010869
3.97825e-06
0.0108647
4.3001e-06
0.0108601
4.60017e-06
0.0108552
4.87996e-06
0.0108501
5.14098e-06
0.0108447
5.3847e-06
0.0108391
5.61241e-06
0.0108333
5.82536e-06
0.0108273
6.02463e-06
0.010821
6.21128e-06
0.0108147
6.38622e-06
0.0108081
6.55038e-06
0.0108014
6.70453e-06
0.0107946
6.8494e-06
0.0107876
6.98564e-06
0.0107805
7.11382e-06
0.0107732
7.2345e-06
0.0107659
7.34817e-06
0.0107584
7.45527e-06
0.0107509
7.55619e-06
0.0107432
7.65132e-06
0.0107355
7.741e-06
0.0107276
7.82556e-06
0.0107197
7.90528e-06
0.0107118
7.98044e-06
0.0107037
8.05129e-06
0.0106956
8.1181e-06
0.0106874
8.18101e-06
0.0106792
8.24035e-06
0.0106709
8.29605e-06
0.0106625
8.34877e-06
0.0106541
8.3978e-06
0.0106457
8.44481e-06
0.0106372
8.48728e-06
0.0106287
8.52991e-06
2.24309e-13
0.0106201
8.56497e-06
1.58965e-13
0.0106115
8.60611e-06
1.89634e-13
0.0106029
8.63003e-06
2.63693e-13
8.6782e-06
2.91023e-13
0.00847603
-0.000403884
0.00864979
-0.000377461
0.00881227
-0.000353211
0.0089644
-0.000330923
0.00910703
-0.000310391
0.00924091
-0.000291413
0.0093667
-0.000273803
0.00948496
-0.000257384
0.00959621
-0.000241998
0.00970086
-0.000227503
0.00979928
-0.000213778
0.00989181
-0.00020072
0.00997871
-0.000188244
0.0100602
-0.000176283
0.0101366
-0.000164784
0.010208
-0.000153705
0.0102746
-0.000143012
0.0103365
-0.000132676
0.010394
-0.000122676
0.0104471
-0.000112997
0.0104959
-0.00010363
0.0105407
-9.45781e-05
0.0105815
-8.58546e-05
0.0106184
-7.74846e-05
0.0106517
-6.95028e-05
0.0106815
-6.19497e-05
0.0107079
-5.48676e-05
0.0107313
-4.82942e-05
0.0107519
-4.22584e-05
0.0107698
-3.67758e-05
0.0107854
-3.18463e-05
0.010799
-2.74538e-05
0.0108107
-2.35677e-05
0.0108207
-2.01457e-05
0.0108293
-1.71374e-05
0.0108366
-1.4489e-05
0.0108428
-1.21465e-05
0.010848
-1.00591e-05
0.0108523
-8.18178e-06
0.0108557
-6.47586e-06
0.0108584
-4.90977e-06
0.0108604
-3.45784e-06
0.0108617
-2.09789e-06
0.0108624
-8.07502e-07
0.0108625
3.64992e-07
0.010862
1.43797e-06
0.0108611
2.45783e-06
0.0108596
3.41661e-06
0.0108577
4.31643e-06
0.0108555
5.15936e-06
0.0108528
5.94812e-06
0.0108497
6.68484e-06
0.0108463
7.37229e-06
0.0108426
8.01373e-06
0.0108386
8.61195e-06
0.0108343
9.16975e-06
0.0108298
9.69022e-06
0.010825
1.01763e-05
0.01082
1.06305e-05
0.0108147
1.10554e-05
0.0108093
1.14531e-05
0.0108037
1.18256e-05
0.0107979
1.21748e-05
0.0107919
1.25026e-05
0.0107858
1.28104e-05
0.0107796
1.30997e-05
0.0107732
1.33718e-05
0.0107667
1.36279e-05
0.01076
1.3869e-05
0.0107533
1.40962e-05
0.0107464
1.43102e-05
0.0107395
1.45119e-05
0.0107324
1.4702e-05
0.0107253
1.48813e-05
0.0107181
1.50503e-05
0.0107108
1.52096e-05
0.0107034
1.53598e-05
0.0106959
1.55014e-05
0.0106884
1.56349e-05
0.0106808
1.57606e-05
0.0106732
1.58792e-05
0.0106655
1.59905e-05
0.0106578
1.60959e-05
0.01065
1.61938e-05
0.0106421
1.62878e-05
0.0106342
1.63726e-05
0.0106263
1.64578e-05
0.0106183
1.65278e-05
0.0106103
1.661e-05
0.0106023
1.66578e-05
1.6754e-05
0.00893555
0.00906685
-0.000508765
0.00918929
-0.000475648
0.00930365
-0.000445291
0.00941067
-0.000417404
0.00951096
-0.00039171
0.00960511
-0.000367948
0.0096936
-0.000345877
0.00977688
-0.000325277
0.00985533
-0.000305954
0.00992929
-0.000287735
0.00999904
-0.000270473
0.0100648
-0.000254047
0.0101269
-0.000238356
0.0101855
-0.000223318
0.0102406
-0.000208863
0.0102925
-0.000194934
0.0103413
-0.000181478
0.0103871
-0.000168451
0.0104299
-0.000155816
0.0104698
-0.00014355
0.0105069
-0.000131642
0.0105412
-0.000120103
0.0105726
-0.00010896
0.0106014
-9.82609e-05
0.0106275
-8.80653e-05
0.0106511
-7.8439e-05
0.0106722
-6.94455e-05
0.0106911
-6.1137e-05
0.0107079
-5.35482e-05
0.0107227
-4.66912e-05
0.0107358
-4.05542e-05
0.0107474
-3.5103e-05
0.0107575
-3.0285e-05
0.0107664
-2.60342e-05
0.0107742
-2.22781e-05
0.010781
-1.89427e-05
0.0107869
-1.59583e-05
0.010792
-1.32622e-05
0.0107963
-1.08014e-05
0.0107999
-8.53284e-06
0.0108029
-6.42294e-06
0.0108052
-4.44593e-06
0.010807
-2.57885e-06
0.0108082
-7.88683e-07
0.0108088
8.01976e-07
0.0108089
2.29869e-06
0.0108086
3.71899e-06
0.0108079
5.05663e-06
0.0108068
6.3107e-06
0.0108052
7.48476e-06
0.0108033
8.58065e-06
0.0108011
9.60373e-06
0.0107985
1.05595e-05
0.0107957
1.14515e-05
0.0107926
1.22835e-05
0.0107892
1.30601e-05
0.0107856
1.37858e-05
0.0107818
1.44643e-05
0.0107777
1.50992e-05
0.0107735
1.56935e-05
0.0107691
1.62504e-05
0.0107645
1.67726e-05
0.0107597
1.72627e-05
0.0107548
1.77231e-05
0.0107497
1.81561e-05
0.0107445
1.85634e-05
0.0107392
1.89467e-05
0.0107338
1.93078e-05
0.0107282
1.96479e-05
0.0107226
1.99685e-05
0.0107168
2.02706e-05
0.010711
2.05555e-05
0.010705
2.0824e-05
0.010699
2.10772e-05
0.0106929
2.13159e-05
0.0106867
2.15409e-05
0.0106805
2.1753e-05
0.0106741
2.1953e-05
0.0106678
2.21414e-05
0.0106613
2.2319e-05
0.0106548
2.24858e-05
0.0106483
2.26436e-05
0.0106417
2.27903e-05
0.010635
2.29309e-05
0.0106284
2.3058e-05
0.0106216
2.31856e-05
0.0106149
2.32903e-05
0.0106081
2.34134e-05
0.0106012
2.34848e-05
2.36286e-05
0.00938523
-0.000603115
0.00947315
-0.000563561
0.0095552
-0.000527345
0.00963191
-0.000494119
0.00970376
-0.000463552
0.00977115
-0.000435338
0.00983446
-0.000409195
0.00989406
-0.000384868
0.00995023
-0.00036213
0.0100033
-0.00034078
0.0100534
-0.000320645
0.010101
-0.000301578
0.0101461
-0.000283453
0.0101889
-0.000266163
0.0102297
-0.000249614
0.0102685
-0.000233722
0.0103054
-0.000218406
0.0103405
-0.000203595
0.0103739
-0.000189221
0.0104056
-0.000175234
0.0104356
-0.000161601
0.0104638
-0.000148317
0.0104902
-0.000135404
0.0105149
-0.000122911
0.0105377
-0.000110913
0.0105588
-9.94944e-05
0.0105781
-8.87453e-05
0.0105957
-7.87439e-05
0.0106117
-6.9549e-05
0.0106262
-6.11914e-05
0.0106393
-5.36714e-05
0.0106512
-4.69591e-05
0.0106619
-4.0999e-05
0.0106716
-3.5717e-05
0.0106803
-3.10281e-05
0.0106882
-2.68443e-05
0.0106953
-2.30813e-05
0.0107017
-1.96637e-05
0.0107075
-1.65274e-05
0.0107126
-1.36215e-05
0.010717
-1.09068e-05
0.010721
-8.35466e-06
0.0107243
-5.9449e-06
0.0107272
-3.66243e-06
0.0107295
-1.48276e-06
0.0107313
5.25587e-07
0.0107326
2.35139e-06
0.0107336
4.10309e-06
0.0107341
5.75164e-06
0.0107343
7.30548e-06
0.0107341
8.7533e-06
0.0107336
1.01043e-05
0.0107328
1.13682e-05
0.0107317
1.25478e-05
0.0107304
1.3647e-05
0.0107288
1.46736e-05
0.0107269
1.56342e-05
0.0107248
1.65332e-05
0.0107226
1.73748e-05
0.0107201
1.81632e-05
0.0107174
1.89018e-05
0.0107146
1.95946e-05
0.0107116
2.02452e-05
0.0107085
2.08569e-05
0.0107052
2.14321e-05
0.0107018
2.19734e-05
0.0106983
2.24831e-05
0.0106946
2.29633e-05
0.0106909
2.34158e-05
0.010687
2.38422e-05
0.010683
2.42443e-05
0.0106789
2.46233e-05
0.0106748
2.49806e-05
0.0106705
2.53176e-05
0.0106662
2.56352e-05
0.0106618
2.59346e-05
0.0106574
2.62169e-05
0.0106528
2.64831e-05
0.0106482
2.67337e-05
0.0106436
2.69701e-05
0.0106389
2.71919e-05
0.0106341
2.74019e-05
0.0106293
2.7597e-05
0.0106245
2.77842e-05
0.0106196
2.79531e-05
0.0106146
2.81228e-05
0.0106097
2.8262e-05
0.0106047
2.84256e-05
0.0105996
2.85204e-05
2.87113e-05
0.00950179
-0.000672776
0.00956722
-0.000628998
0.00962874
-0.000588861
0.00968662
-0.000551998
0.00974112
-0.000518056
0.00979249
-0.000486705
0.00984094
-0.000457648
0.00988669
-0.000430617
0.00992994
-0.000405377
0.00997088
-0.000381723
0.0100097
-0.000359478
0.0100466
-0.000338487
0.0100818
-0.000318619
0.0101154
-0.000299755
0.0101476
-0.000281785
0.0101784
-0.000264606
0.0102081
-0.000248115
0.0102368
-0.000232213
0.0102643
-0.000216803
0.0102909
-0.000201804
0.0103165
-0.000187156
0.010341
-0.000172827
0.0103644
-0.000158825
0.0103867
-0.000145193
0.0104078
-0.000132006
0.0104276
-0.000119365
0.0104463
-0.000107376
0.0104637
-9.61412e-05
0.0104799
-8.57429e-05
0.0104949
-7.62324e-05
0.0105089
-6.76253e-05
0.0105218
-5.99009e-05
0.0105338
-5.30065e-05
0.010545
-4.68651e-05
0.0105553
-4.13849e-05
0.0105649
-3.64687e-05
0.0105739
-3.20224e-05
0.0105822
-2.79614e-05
0.0105899
-2.42141e-05
0.010597
-2.07239e-05
0.0106035
-1.74486e-05
0.0106095
-1.43585e-05
0.010615
-1.14338e-05
0.01062
-8.66362e-06
0.0106246
-6.0448e-06
0.0106287
-3.5584e-06
0.0106322
-1.17779e-06
0.0106353
9.63952e-07
0.0106381
2.96385e-06
0.0106405
4.87002e-06
0.0106427
6.63898e-06
0.0106445
8.30669e-06
0.0106459
9.87397e-06
0.0106472
1.13383e-05
0.0106481
1.26985e-05
0.0106488
1.39684e-05
0.0106493
1.51579e-05
0.0106495
1.6272e-05
0.0106496
1.73162e-05
0.0106495
1.8295e-05
0.0106492
1.92116e-05
0.0106487
2.00711e-05
0.0106481
2.0879e-05
0.0106473
2.16392e-05
0.0106464
2.23546e-05
0.0106453
2.30282e-05
0.0106441
2.36627e-05
0.0106428
2.42607e-05
0.0106414
2.48244e-05
0.0106399
2.53559e-05
0.0106383
2.58572e-05
0.0106366
2.63297e-05
0.0106348
2.67752e-05
0.0106329
2.7195e-05
0.010631
2.75907e-05
0.0106289
2.79639e-05
0.0106268
2.83157e-05
0.0106247
2.86475e-05
0.0106224
2.89599e-05
0.0106201
2.92546e-05
0.0106178
2.9531e-05
0.0106154
2.97927e-05
0.010613
3.00358e-05
0.0106105
3.0269e-05
0.010608
3.04793e-05
0.0106054
3.06907e-05
0.0106028
3.08638e-05
0.0106002
3.10677e-05
0.0105975
3.11853e-05
3.14226e-05
0.00942823
0.00948202
-0.000682791
0.0095334
-0.000640245
0.00958244
-0.00060103
0.00962919
-0.000564811
0.00967375
-0.000531265
0.0097162
-0.000500095
0.00975662
-0.000471037
0.0097951
-0.000443862
0.00983175
-0.000418372
0.00986667
-0.000394402
0.0099
-0.000371809
0.00993185
-0.000350469
0.00996236
-0.000330267
0.00999167
-0.000311092
0.0100199
-0.000292834
0.0100472
-0.00027538
0.0100736
-0.000258611
0.0100992
-0.000242412
0.010124
-0.000226675
0.0101482
-0.000211312
0.0101716
-0.000196268
0.0101943
-0.000181528
0.0102163
-0.000167119
0.0102374
-0.000153111
0.0102576
-0.000139604
0.0102769
-0.000126715
0.0102954
-0.000114559
0.0103129
-0.000103238
0.0103294
-9.28184e-05
0.0103452
-8.33321e-05
0.01036
-7.47691e-05
0.0103741
-6.70828e-05
0.0103874
-6.01976e-05
0.0104001
-5.40194e-05
0.010412
-4.84465e-05
0.0104234
-4.33789e-05
0.0104342
-3.87261e-05
0.0104444
-3.44118e-05
0.010454
-3.03757e-05
0.0104631
-2.65737e-05
0.0104718
-2.29754e-05
0.0104799
-1.95619e-05
0.0104875
-1.63219e-05
0.0104947
-1.32495e-05
0.0105015
-1.03487e-05
0.010508
-7.61808e-06
0.010514
-5.04438e-06
0.0105196
-2.61102e-06
0.0105247
-2.34498e-07
0.0105296
1.74631e-06
0.0105342
3.70417e-06
0.0105385
5.54811e-06
0.0105425
7.28231e-06
0.0105464
8.87962e-06
0.0105499
1.03857e-05
0.0105533
1.18008e-05
0.0105564
1.31264e-05
0.0105594
1.4369e-05
0.0105622
1.55354e-05
0.0105647
1.66272e-05
0.0105672
1.76497e-05
0.0105694
1.86116e-05
0.0105715
1.95171e-05
0.0105735
2.03695e-05
0.0105754
2.11727e-05
0.0105771
2.19297e-05
0.0105787
2.26435e-05
0.0105802
2.33165e-05
0.0105817
2.39514e-05
0.010583
2.45502e-05
0.0105842
2.51153e-05
0.0105853
2.56482e-05
0.0105863
2.615e-05
0.0105873
2.66225e-05
0.0105882
2.70682e-05
0.010589
2.74885e-05
0.0105898
2.78851e-05
0.0105905
2.82584e-05
0.0105911
2.86107e-05
0.0105917
2.8941e-05
0.0105923
2.92538e-05
0.0105928
2.95442e-05
0.0105932
2.98227e-05
0.0105936
3.00737e-05
0.010594
3.03263e-05
0.0105943
3.05326e-05
0.0105946
3.0776e-05
0.0105949
3.09159e-05
3.11984e-05
0.00927064
0.00931885
-0.000688451
0.0093655
-0.000647679
0.00941052
-0.000609838
0.0094539
-0.000574644
0.00949563
-0.000541825
0.00953572
-0.000511129
0.0095742
-0.000482338
0.0096111
-0.000455269
0.00964647
-0.00042977
0.00968037
-0.000405717
0.0097129
-0.000382996
0.00974414
-0.000361505
0.00977419
-0.000341143
0.00980316
-0.000321805
0.00983116
-0.000303375
0.00985828
-0.000285733
0.00988462
-0.000268751
0.00991025
-0.000252309
0.00993524
-0.000236299
0.00995961
-0.000220644
0.00998339
-0.000205307
0.0100066
-0.000190295
0.0100291
-0.000175663
0.010051
-0.0001615
0.0100722
-0.000147922
0.0100927
-0.000135049
0.0101125
-0.00012299
0.0101315
-0.000111824
0.0101497
-0.000101596
0.0101673
-9.2307e-05
0.0101841
-8.39176e-05
0.0102003
-7.63578e-05
0.0102158
-6.95357e-05
0.0102307
-6.33489e-05
0.010245
-5.76956e-05
0.0102588
-5.24824e-05
0.010272
-4.76305e-05
0.0102847
-4.30774e-05
0.0102969
-3.87775e-05
0.0103086
-3.46999e-05
0.0103199
-3.08255e-05
0.0103307
-2.7144e-05
0.0103411
-2.36503e-05
0.0103511
-2.03421e-05
0.0103607
-1.72155e-05
0.0103699
-1.42747e-05
0.0103788
-1.15182e-05
0.0103875
-8.92753e-06
0.0103958
-6.52093e-06
0.0104037
-4.25263e-06
0.0104114
-2.10795e-06
0.0104187
-1.5273e-08
0.0104259
1.70544e-06
0.0104328
3.42523e-06
0.0104396
5.04536e-06
0.0104461
6.57164e-06
0.0104525
8.00733e-06
0.0104587
9.35287e-06
0.0104647
1.0608e-05
0.0104706
1.17874e-05
0.0104763
1.29015e-05
0.0104818
1.39506e-05
0.0104873
1.49385e-05
0.0104926
1.58694e-05
0.0104978
1.67469e-05
0.0105028
1.75746e-05
0.0105078
1.83553e-05
0.0105126
1.90919e-05
0.0105174
1.97865e-05
0.0105221
2.04415e-05
0.0105267
2.10597e-05
0.0105312
2.16423e-05
0.0105356
2.21902e-05
0.01054
2.27072e-05
0.0105443
2.31948e-05
0.0105485
2.36548e-05
0.0105527
2.40878e-05
0.0105568
2.44965e-05
0.0105608
2.48797e-05
0.0105649
2.52425e-05
0.0105688
2.55792e-05
0.0105727
2.59022e-05
0.0105766
2.61929e-05
0.0105805
2.64857e-05
0.0105843
2.67242e-05
0.010588
2.70064e-05
0.0105918
2.71676e-05
2.74938e-05
0.00903133
-0.000736838
0.00907859
-0.000694941
0.00912458
-0.000655826
0.00916921
-0.000619276
0.00921244
-0.000585059
0.00925426
-0.000552945
0.00929464
-0.000522721
0.00933359
-0.00049422
0.00937113
-0.000467312
0.0094073
-0.000441884
0.00944214
-0.000417838
0.00947572
-0.000395085
0.00950812
-0.000373535
0.0095394
-0.000353092
0.00956968
-0.000333648
0.00959903
-0.000315088
0.00962756
-0.000297285
0.00965537
-0.000280113
0.00968252
-0.000263455
0.0097091
-0.00024722
0.00973514
-0.000231348
0.00976067
-0.000215827
0.0097857
-0.000200688
0.0098102
-0.000186005
0.00983416
-0.000171879
0.00985754
-0.000158427
0.00988031
-0.000145758
0.00990244
-0.000133958
0.00992392
-0.00012308
0.00994475
-0.000113137
0.00996493
-0.000104099
0.00998448
-9.59061e-05
0.0100034
-8.84711e-05
0.0100218
-8.16957e-05
0.0100395
-7.54793e-05
0.0100568
-6.97285e-05
0.0100735
-6.43633e-05
0.0100898
-5.93199e-05
0.0101055
-5.45511e-05
0.0101209
-5.00248e-05
0.0101358
-4.57212e-05
0.0101502
-4.1629e-05
0.0101643
-3.77431e-05
0.0101781
-3.40611e-05
0.0101914
-3.05812e-05
0.0102045
-2.7301e-05
0.0102171
-2.42132e-05
0.0102295
-2.13112e-05
0.0102416
-1.8597e-05
0.0102534
-1.60582e-05
0.010265
-1.36813e-05
0.0102764
-1.14499e-05
0.0102875
-9.38734e-06
0.0102984
-7.44319e-06
0.010309
-5.61323e-06
0.0103195
-3.89094e-06
0.0103298
-2.26278e-06
0.0103398
-7.03474e-07
0.0103497
6.90977e-07
0.0103595
1.99957e-06
0.0103692
3.24861e-06
0.0103787
4.43024e-06
0.0103881
5.54731e-06
0.0103974
6.60176e-06
0.0104065
7.59654e-06
0.0104156
8.5352e-06
0.0104245
9.42115e-06
0.0104333
1.02579e-05
0.0104421
1.10484e-05
0.0104507
1.17944e-05
0.0104593
1.24959e-05
0.0104678
1.31536e-05
0.0104762
1.37724e-05
0.0104845
1.43594e-05
0.0104928
1.49135e-05
0.010501
1.54361e-05
0.0105092
1.59279e-05
0.0105173
1.6392e-05
0.0105253
1.68268e-05
0.0105333
1.72386e-05
0.0105413
1.76202e-05
0.0105492
1.79866e-05
0.0105571
1.83157e-05
0.0105649
1.86474e-05
0.0105727
1.89168e-05
0.0105805
1.92364e-05
0.0105883
1.94183e-05
1.97857e-05
0.00869055
0.00873926
-0.000743652
0.00878698
-0.000703547
0.00883359
-0.000665884
0.00887904
-0.000630506
0.00892332
-0.000597229
0.0089664
-0.000565799
0.00900823
-0.000536048
0.00904879
-0.000507872
0.00908808
-0.000481176
0.00912612
-0.000455881
0.00916295
-0.000431913
0.00919861
-0.000409196
0.00923316
-0.000387646
0.00926669
-0.00036717
0.00929926
-0.000347662
0.00933098
-0.000329006
0.00936195
-0.000311078
0.00939225
-0.000293762
0.00942199
-0.000276955
0.00945122
-0.000260582
0.00948
-0.000244607
0.00950835
-0.000229039
0.00953627
-0.000213926
0.00956375
-0.000199351
0.00959074
-0.000185417
0.0096172
-0.000172226
0.00964311
-0.000159866
0.00966843
-0.000148399
0.00969314
-0.000137845
0.00971723
-0.000128191
0.00974071
-0.000119386
0.0097636
-0.000111355
0.0097859
-0.000104005
0.00980767
-9.72409e-05
0.00982891
-9.09713e-05
0.00984966
-8.51159e-05
0.00986995
-7.96093e-05
0.0098898
-7.44021e-05
0.00990924
-6.946e-05
0.00992828
-6.47607e-05
0.00994694
-6.02915e-05
0.00996524
-5.60453e-05
0.0099832
-5.20186e-05
0.0100008
-4.82083e-05
0.0100181
-4.46118e-05
0.0100351
-4.12248e-05
0.0100519
-3.80414e-05
0.0100683
-3.5055e-05
0.0100845
-3.22549e-05
0.0101005
-2.96268e-05
0.0101162
-2.71617e-05
0.0101317
-2.48586e-05
0.0101469
-2.27009e-05
0.010162
-2.06736e-05
0.0101769
-1.87677e-05
0.0101916
-1.6977e-05
0.0102062
-1.52954e-05
0.0102206
-1.37214e-05
0.0102348
-1.22412e-05
0.0102489
-1.0843e-05
0.0102629
-9.52416e-06
0.0102767
-8.28049e-06
0.0102904
-7.10732e-06
0.010304
-6.00034e-06
0.0103175
-4.95564e-06
0.0103309
-3.96949e-06
0.0103442
-3.03827e-06
0.0103574
-2.15813e-06
0.0103705
-1.32389e-06
0.0103835
-5.27152e-07
0.0103965
2.08139e-07
0.0104094
8.83386e-07
0.0104222
1.53388e-06
0.0104349
2.14964e-06
0.0104476
2.73227e-06
0.0104603
3.28114e-06
0.0104729
3.79919e-06
0.0104854
4.28447e-06
0.0104979
4.7439e-06
0.0105104
5.16937e-06
0.0105228
5.57785e-06
0.0105352
5.944e-06
0.0105475
6.31342e-06
0.0105598
6.61221e-06
0.0105721
6.96729e-06
0.0105843
7.16786e-06
7.5766e-06
0.00834233
-0.000795613
0.00839345
-0.000754663
0.00844354
-0.000715973
0.00849248
-0.000679443
0.00854018
-0.000644933
0.00858667
-0.00061229
0.008632
-0.000581378
0.0086762
-0.000552074
0.0087193
-0.000524272
0.0087613
-0.000497884
0.00880223
-0.000472836
0.00884209
-0.000449058
0.00888092
-0.000426478
0.00891877
-0.000405017
0.00895569
-0.000384584
0.00899176
-0.000365078
0.00902707
-0.000346389
0.00906171
-0.000328403
0.00909578
-0.000311016
0.00912934
-0.000294143
0.00916246
-0.000277729
0.00919518
-0.000261757
0.0092275
-0.000246251
0.00925942
-0.000231269
0.0092909
-0.000216895
0.0093219
-0.000203223
0.00935237
-0.000190337
0.00938227
-0.000178303
0.00941158
-0.000167155
0.00944028
-0.000156892
0.00946837
-0.000147478
0.00949587
-0.000138849
0.00952279
-0.000130926
0.00954917
-0.000123618
0.00957503
-0.000116838
0.00960042
-0.000110504
0.00962536
-0.000104551
0.00964989
-9.89258e-05
0.00967402
-9.35907e-05
0.00969778
-8.852e-05
0.00972118
-8.36979e-05
0.00974425
-7.9115e-05
0.009767
-7.47659e-05
0.00978944
-7.06467e-05
0.00981158
-6.67537e-05
0.00983344
-6.30814e-05
0.00985502
-5.96231e-05
0.00987633
-5.63714e-05
0.0098974
-5.33178e-05
0.00991822
-5.04519e-05
0.00993882
-4.77641e-05
0.00995921
-4.52445e-05
0.00997939
-4.28804e-05
0.00999938
-4.066e-05
0.0100192
-3.85736e-05
0.0100388
-3.66108e-05
0.0100583
-3.47609e-05
0.0100776
-3.30219e-05
0.0100967
-3.13904e-05
0.0101157
-2.98543e-05
0.0101346
-2.84056e-05
0.0101534
-2.7039e-05
0.010172
-2.57494e-05
0.0101906
-2.45321e-05
0.010209
-2.33828e-05
0.0102273
-2.22973e-05
0.0102455
-2.12716e-05
0.0102637
-2.03028e-05
0.0102818
-1.93898e-05
0.0102998
-1.85316e-05
0.0103177
-1.77251e-05
0.0103355
-1.69639e-05
0.0103533
-1.62423e-05
0.010371
-1.55617e-05
0.0103887
-1.49199e-05
0.0104063
-1.43162e-05
0.0104238
-1.37466e-05
0.0104413
-1.32134e-05
0.0104588
-1.27085e-05
0.0104762
-1.22415e-05
0.0104936
-1.17929e-05
0.0105109
-1.13915e-05
0.0105282
-1.09861e-05
0.0105455
-1.06597e-05
0.0105627
-1.02703e-05
0.0105799
-1.00533e-05
-9.61226e-06
0.0129857
-0.000768462
0.0129626
-0.000731571
0.0129431
-0.000696436
0.0129267
-0.000663029
0.012913
-0.000631283
0.0129019
-0.000601098
0.0128928
-0.000572367
0.0128858
-0.000544986
0.0128804
-0.000518872
0.0128764
-0.000493954
0.0128738
-0.000470173
0.0128722
-0.000447475
0.0128715
-0.000425808
0.0128716
-0.000405114
0.0128723
-0.000385326
0.0128736
-0.000366372
0.0128754
-0.000348168
0.0128776
-0.00033063
0.0128803
-0.000313679
0.0128834
-0.000297248
0.012887
-0.000281291
0.012891
-0.000265793
0.0128955
-0.000250768
0.0129005
-0.000236261
0.012906
-0.000222336
0.0129118
-0.000209067
0.012918
-0.000196523
0.0129244
-0.000184757
0.0129311
-0.000173798
0.0129378
-0.000163643
0.0129446
-0.000154264
0.0129514
-0.000145607
0.0129581
-0.000137603
0.0129646
-0.000130175
0.012971
-0.000123248
0.0129773
-0.000116751
0.0129833
-0.000110626
0.0129892
-0.000104826
0.012995
-9.93159e-05
0.0130005
-9.40732e-05
0.0130059
-8.90821e-05
0.0130111
-8.43332e-05
0.0130162
-7.98201e-05
0.0130211
-7.55385e-05
0.0130258
-7.14837e-05
0.0130304
-6.76507e-05
0.0130348
-6.40332e-05
0.013039
-6.0624e-05
0.0130431
-5.74142e-05
0.0130471
-5.43938e-05
0.0130509
-5.15525e-05
0.0130545
-4.88803e-05
0.013058
-4.63669e-05
0.0130613
-4.40017e-05
0.0130645
-4.1775e-05
0.0130676
-3.96781e-05
0.0130705
-3.77034e-05
0.0130734
-3.58444e-05
0.0130761
-3.40933e-05
0.0130787
-3.24414e-05
0.0130811
-3.08821e-05
0.0130835
-2.94101e-05
0.0130858
-2.80201e-05
0.0130879
-2.67073e-05
0.01309
-2.54674e-05
0.013092
-2.42963e-05
0.0130939
-2.31906e-05
0.0130958
-2.21469e-05
0.0130976
-2.11612e-05
0.0130993
-2.02288e-05
0.0131009
-1.93481e-05
0.0131024
-1.85189e-05
0.0131039
-1.77368e-05
0.0131054
-1.69995e-05
0.0131068
-1.63039e-05
0.0131081
-1.56492e-05
0.0131094
-1.50313e-05
0.0131106
-1.44526e-05
0.0131118
-1.39045e-05
0.013113
-1.33973e-05
0.0131141
-1.291e-05
0.0131152
-1.24741e-05
0.0131162
-1.20338e-05
0.0131172
-1.16794e-05
0.0131182
-1.12571e-05
0.0131192
-1.10226e-05
-1.0549e-05
0.0130863
-0.00073802
0.0130598
-0.00070513
0.0130369
-0.000673516
0.0130171
-0.000643202
0.013
-0.000614174
0.0129853
-0.000586387
0.0129727
-0.000559783
0.012962
-0.000534302
0.012953
-0.00050989
0.0129455
-0.000486496
0.0129394
-0.000464074
0.0129346
-0.000442579
0.0129307
-0.000421971
0.0129278
-0.000402202
0.0129257
-0.000383221
0.0129243
-0.000364974
0.0129235
-0.000347399
0.0129233
-0.000330436
0.0129237
-0.000314024
0.0129246
-0.000298119
0.0129259
-0.000282687
0.0129279
-0.000267719
0.0129303
-0.00025323
0.0129333
-0.000239255
0.0129368
-0.000225842
0.0129408
-0.00021305
0.0129452
-0.000200929
0.01295
-0.000189518
0.012955
-0.000178838
0.0129603
-0.000168884
0.0129656
-0.00015963
0.0129711
-0.00015103
0.0129765
-0.000143027
0.0129819
-0.000135556
0.0129872
-0.000128554
0.0129924
-0.000121963
0.0129975
-0.000115731
0.0130025
-0.000109818
0.0130074
-0.000104194
0.0130121
-9.88372e-05
0.0130168
-9.37326e-05
0.0130213
-8.88704e-05
0.0130257
-8.42436e-05
0.01303
-7.98468e-05
0.0130342
-7.5675e-05
0.0130383
-7.17226e-05
0.0130423
-6.79831e-05
0.0130461
-6.44492e-05
0.0130498
-6.11126e-05
0.0130533
-5.79643e-05
0.0130568
-5.49952e-05
0.0130601
-5.21958e-05
0.0130633
-4.95566e-05
0.0130664
-4.70682e-05
0.0130693
-4.47218e-05
0.0130721
-4.25086e-05
0.0130749
-4.04204e-05
0.0130775
-3.84498e-05
0.01308
-3.65897e-05
0.0130823
-3.48334e-05
0.0130846
-3.31745e-05
0.0130868
-3.16072e-05
0.0130889
-3.01263e-05
0.013091
-2.87268e-05
0.0130929
-2.7404e-05
0.0130948
-2.61538e-05
0.0130965
-2.49718e-05
0.0130982
-2.38545e-05
0.0130999
-2.27984e-05
0.0131015
-2.18008e-05
0.013103
-2.08593e-05
0.0131044
-1.99712e-05
0.0131058
-1.91326e-05
0.0131072
-1.83414e-05
0.0131084
-1.75946e-05
0.0131097
-1.68917e-05
0.0131109
-1.62281e-05
0.013112
-1.56065e-05
0.0131132
-1.50178e-05
0.0131142
-1.44728e-05
0.0131153
-1.39494e-05
0.0131163
-1.3481e-05
0.0131172
-1.30081e-05
0.0131182
-1.26274e-05
0.0131191
-1.21742e-05
0.01312
-1.1922e-05
-1.14078e-05
0.0131798
-0.000704581
0.0131502
-0.000675529
0.013124
-0.000647332
0.0131009
-0.000620054
0.0130804
-0.000593724
0.0130624
-0.000568347
0.0130465
-0.000543909
0.0130326
-0.000520386
0.0130204
-0.00049775
0.0130099
-0.000475966
0.0130008
-0.000455001
0.0129931
-0.00043482
0.0129865
-0.00041539
0.012981
-0.000396674
0.0129764
-0.000378633
0.0129726
-0.000361228
0.0129697
-0.000344414
0.0129674
-0.000328149
0.0129657
-0.000312394
0.0129647
-0.000297116
0.0129643
-0.000282296
0.0129646
-0.000267932
0.0129654
-0.000254036
0.0129667
-0.000240638
0.0129687
-0.000227777
0.0129711
-0.000215495
0.012974
-0.000203831
0.0129773
-0.000192814
0.0129809
-0.000182454
0.0129848
-0.000172746
0.0129888
-0.000163666
0.012993
-0.000155176
0.0129972
-0.000147229
0.0130014
-0.000139771
0.0130056
-0.000132751
0.0130098
-0.00012612
0.0130139
-0.000119835
0.0130179
-0.000113863
0.0130219
-0.000108175
0.0130258
-0.000102753
0.0130296
-9.75824e-05
0.0130334
-9.26524e-05
0.0130371
-8.79556e-05
0.0130408
-8.34858e-05
0.0130443
-7.9237e-05
0.0130478
-7.52033e-05
0.0130512
-7.13782e-05
0.0130545
-6.77547e-05
0.0130577
-6.4325e-05
0.0130609
-6.1081e-05
0.0130639
-5.8014e-05
0.0130668
-5.51155e-05
0.0130696
-5.23765e-05
0.0130723
-4.97884e-05
0.013075
-4.73428e-05
0.0130775
-4.50317e-05
0.0130799
-4.28474e-05
0.0130822
-4.0783e-05
0.0130845
-3.88317e-05
0.0130866
-3.69869e-05
0.0130887
-3.52424e-05
0.0130907
-3.35926e-05
0.0130926
-3.20321e-05
0.0130944
-3.0556e-05
0.0130962
-2.91596e-05
0.0130979
-2.78388e-05
0.0130995
-2.65894e-05
0.013101
-2.54081e-05
0.0131025
-2.42913e-05
0.013104
-2.32358e-05
0.0131053
-2.22382e-05
0.0131067
-2.12959e-05
0.0131079
-2.04058e-05
0.0131092
-1.95659e-05
0.0131103
-1.8773e-05
0.0131115
-1.80266e-05
0.0131126
-1.73218e-05
0.0131136
-1.66614e-05
0.0131146
-1.60358e-05
0.0131156
-1.54566e-05
0.0131166
-1.49002e-05
0.0131175
-1.44022e-05
0.0131184
-1.38992e-05
0.0131193
-1.34944e-05
0.0131201
-1.30115e-05
0.0131209
-1.27429e-05
-1.21968e-05
0.0132695
-0.000668771
0.0132372
-0.000643305
0.0132083
-0.00061836
0.0131822
-0.000594018
0.0131588
-0.00057034
0.0131379
-0.000547363
0.0131191
-0.000525103
0.0131022
-0.000503565
0.0130872
-0.00048274
0.0130739
-0.000462615
0.013062
-0.000443167
0.0130516
-0.000424373
0.0130424
-0.000406207
0.0130344
-0.000388643
0.0130274
-0.000371651
0.0130214
-0.000355203
0.0130162
-0.000339271
0.0130119
-0.000323824
0.0130083
-0.000308838
0.0130055
-0.000294293
0.0130034
-0.000280177
0.013002
-0.000266493
0.0130012
-0.000253253
0.013001
-0.000240482
0.0130015
-0.000228211
0.0130024
-0.000216473
0.0130039
-0.000205297
0.0130058
-0.000194704
0.013008
-0.000184699
0.0130106
-0.000175278
0.0130133
-0.000166417
0.0130162
-0.000158087
0.0130193
-0.000150248
0.0130223
-0.000142857
0.0130255
-0.000135872
0.0130286
-0.000129252
0.0130317
-0.000122962
0.0130348
-0.000116975
0.0130379
-0.000111267
0.013041
-0.00010582
0.013044
-0.000100622
0.013047
-9.56608e-05
0.01305
-9.09297e-05
0.0130529
-8.64215e-05
0.0130558
-8.213e-05
0.0130587
-7.80488e-05
0.0130615
-7.41714e-05
0.0130642
-7.04907e-05
0.0130669
-6.69994e-05
0.0130695
-6.36897e-05
0.013072
-6.05537e-05
0.0130745
-5.75834e-05
0.0130769
-5.47707e-05
0.0130792
-5.21077e-05
0.0130815
-4.95866e-05
0.0130836
-4.72002e-05
0.0130857
-4.49411e-05
0.0130877
-4.28026e-05
0.0130897
-4.07783e-05
0.0130916
-3.88618e-05
0.0130934
-3.70473e-05
0.0130951
-3.53293e-05
0.0130968
-3.37028e-05
0.0130984
-3.21628e-05
0.0130999
-3.07049e-05
0.0131014
-2.93249e-05
0.0131028
-2.80187e-05
0.0131042
-2.67826e-05
0.0131055
-2.5613e-05
0.0131068
-2.45067e-05
0.013108
-2.34605e-05
0.0131092
-2.24718e-05
0.0131103
-2.15376e-05
0.0131114
-2.06557e-05
0.0131125
-1.98229e-05
0.0131135
-1.90385e-05
0.0131145
-1.82977e-05
0.0131154
-1.76033e-05
0.0131163
-1.69453e-05
0.0131172
-1.63359e-05
0.0131181
-1.57503e-05
0.0131189
-1.52261e-05
0.0131197
-1.46963e-05
0.0131204
-1.42699e-05
0.0131212
-1.37609e-05
0.0131219
-1.34782e-05
-1.29018e-05
0.0133454
-0.0006318
0.0133117
-0.000609656
0.0132811
-0.000587762
0.0132533
-0.000566213
0.0132281
-0.000545088
0.0132052
-0.000524441
0.0131844
-0.000504314
0.0131655
-0.000484729
0.0131485
-0.000465699
0.0131331
-0.000447223
0.0131192
-0.000429295
0.0131068
-0.0004119
0.0130956
-0.000395024
0.0130856
-0.000378646
0.0130767
-0.000362749
0.0130688
-0.000347315
0.0130618
-0.000332325
0.0130558
-0.000317761
0.0130506
-0.000303608
0.0130461
-0.000289855
0.0130424
-0.000276499
0.0130395
-0.000263541
0.0130372
-0.000250996
0.0130356
-0.000238883
0.0130346
-0.000227227
0.0130342
-0.000216055
0.0130343
-0.000205388
0.0130349
-0.000195242
0.0130358
-0.000185621
0.013037
-0.000176518
0.0130385
-0.000167917
0.0130402
-0.00015979
0.0130421
-0.000152106
0.013044
-0.000144831
0.0130461
-0.000137929
0.0130482
-0.000131369
0.0130504
-0.000125123
0.0130526
-0.000119165
0.0130548
-0.000113478
0.013057
-0.000108045
0.0130592
-0.000102855
0.0130615
-9.78979e-05
0.0130637
-9.31655e-05
0.0130659
-8.8651e-05
0.0130682
-8.43478e-05
0.0130704
-8.02495e-05
0.0130725
-7.63494e-05
0.0130747
-7.26407e-05
0.0130768
-6.91163e-05
0.0130789
-6.57689e-05
0.0130809
-6.25912e-05
0.0130829
-5.95756e-05
0.0130849
-5.67147e-05
0.0130868
-5.40013e-05
0.0130886
-5.14281e-05