/*--------------------------------*- C++ -*----------------------------------*\
  =========                 |
  \\      /  F ield         | OpenFOAM: The Open Source CFD Toolbox
   \\    /   O peration     | Website:  https://openfoam.org
    \\  /    A nd           | Version:  7
     \\/     M anipulation  |
\*---------------------------------------------------------------------------*/
FoamFile
{
    version     2.0;
    format      ascii;
    class       volScalarField;
    location    "120";
    object      p;
}
// * * * * * * * * * * * * * * * * * * * * * * * * * * * * * * * * * * * * * //

dimensions      [0 2 -2 0 0 0 0];

internalField   nonuniform List<scalar> 
3700
(
-0.366974
-0.371049
-0.372078
-0.373758
-0.376096
-0.379259
-0.383283
-0.388291
-0.394532
-0.402364
-0.412172
-0.424185
-0.438141
-0.453133
-0.465998
-0.370225
-0.375104
-0.376606
-0.378837
-0.381663
-0.385142
-0.389136
-0.393528
-0.398269
-0.403399
-0.409036
-0.415298
-0.422155
-0.428867
-0.433427
-0.374132
-0.3797
-0.381682
-0.384487
-0.387842
-0.391687
-0.395703
-0.399509
-0.402728
-0.405038
-0.406235
-0.406277
-0.405249
-0.402759
-0.397558
-0.378757
-0.384872
-0.387337
-0.390735
-0.394662
-0.398935
-0.403045
-0.406336
-0.40808
-0.407564
-0.404225
-0.3978
-0.388406
-0.376151
-0.359995
-0.384122
-0.390625
-0.393566
-0.397568
-0.402102
-0.406862
-0.411144
-0.414014
-0.414382
-0.411126
-0.403308
-0.390406
-0.372485
-0.350405
-0.32243
-0.39021
-0.396928
-0.400324
-0.404925
-0.410087
-0.415376
-0.419899
-0.422442
-0.421555
-0.415705
-0.403583
-0.384425
-0.358119
-0.326729
-0.286558
-0.396961
-0.403713
-0.407525
-0.412701
-0.418486
-0.424321
-0.429125
-0.431413
-0.429382
-0.421104
-0.404926
-0.379938
-0.345627
-0.305978
-0.253802
-0.404275
-0.410877
-0.415049
-0.420745
-0.427117
-0.433476
-0.43856
-0.440621
-0.43752
-0.426962
-0.407003
-0.37677
-0.334997
-0.28862
-0.224907
-0.41202
-0.418292
-0.422744
-0.428876
-0.435764
-0.44258
-0.447887
-0.449686
-0.44553
-0.4328
-0.409328
-0.374555
-0.325858
-0.274844
-0.200295
-0.420042
-0.425813
-0.430444
-0.436909
-0.444189
-0.451344
-0.456759
-0.458194
-0.452931
-0.438095
-0.411339
-0.372771
-0.318021
-0.263774
-0.182311
-0.428175
-0.43329
-0.437978
-0.444623
-0.45215
-0.45948
-0.464834
-0.465739
-0.459267
-0.442354
-0.412472
-0.370291
-0.311598
-0.255055
-0.171213
-0.436256
-0.440582
-0.445187
-0.451841
-0.45943
-0.466725
-0.471813
-0.471971
-0.464159
-0.445089
-0.412486
-0.367345
-0.306332
-0.248083
-0.165847
-0.444135
-0.447564
-0.451934
-0.458407
-0.465852
-0.472872
-0.477482
-0.476694
-0.467281
-0.446112
-0.411105
-0.363772
-0.301891
-0.242811
-0.164822
-0.451693
-0.454142
-0.458116
-0.464201
-0.471283
-0.477827
-0.481649
-0.479688
-0.468557
-0.445315
-0.408285
-0.359484
-0.298057
-0.239084
-0.166702
-0.458847
-0.460254
-0.463681
-0.46918
-0.475656
-0.481485
-0.484297
-0.480932
-0.467968
-0.442719
-0.404089
-0.354514
-0.294583
-0.236689
-0.170254
-0.465544
-0.465887
-0.468615
-0.473329
-0.478993
-0.483883
-0.485468
-0.480492
-0.465598
-0.438455
-0.398661
-0.348969
-0.29123
-0.235301
-0.174503
-0.471785
-0.471058
-0.472954
-0.476709
-0.481374
-0.485126
-0.48528
-0.478507
-0.461619
-0.432735
-0.392202
-0.342974
-0.287838
-0.23448
-0.178684
-0.477614
-0.475826
-0.47678
-0.479432
-0.48294
-0.485374
-0.483902
-0.475169
-0.456255
-0.425824
-0.384952
-0.33666
-0.284335
-0.233736
-0.182157
-0.483111
-0.480281
-0.480213
-0.481653
-0.483869
-0.484819
-0.481533
-0.470694
-0.44976
-0.418012
-0.377162
-0.330179
-0.280733
-0.232668
-0.184626
-0.488391
-0.484536
-0.483399
-0.48355
-0.484361
-0.483662
-0.478375
-0.465307
-0.442398
-0.409588
-0.369072
-0.32369
-0.277076
-0.231183
-0.186824
-0.49359
-0.488722
-0.48649
-0.485307
-0.484608
-0.482092
-0.474618
-0.459223
-0.434424
-0.400814
-0.360885
-0.317313
-0.273405
-0.22982
-0.189399
-0.498861
-0.492976
-0.489656
-0.4871
-0.484781
-0.480266
-0.470421
-0.452632
-0.426071
-0.391909
-0.352758
-0.311075
-0.26967
-0.228991
-0.19203
-0.504352
-0.497429
-0.493037
-0.489075
-0.485006
-0.478301
-0.465909
-0.4457
-0.417537
-0.383042
-0.344789
-0.304956
-0.265913
-0.227939
-0.193612
-0.510203
-0.502199
-0.496757
-0.491335
-0.485369
-0.47627
-0.461171
-0.438563
-0.408976
-0.374327
-0.337022
-0.29894
-0.262024
-0.226412
-0.194394
-0.516531
-0.507392
-0.500905
-0.49394
-0.48591
-0.474199
-0.456262
-0.431325
-0.400495
-0.365823
-0.329461
-0.292984
-0.257947
-0.22437
-0.194229
-0.523427
-0.513078
-0.50553
-0.496908
-0.486628
-0.472072
-0.451212
-0.424059
-0.392157
-0.357547
-0.322082
-0.287043
-0.253637
-0.221791
-0.193259
-0.530946
-0.519305
-0.510645
-0.50023
-0.487473
-0.469844
-0.446034
-0.416804
-0.383982
-0.349481
-0.314838
-0.281067
-0.249063
-0.218711
-0.191533
-0.539112
-0.52609
-0.516231
-0.503863
-0.488357
-0.467453
-0.440722
-0.409571
-0.375955
-0.341582
-0.307675
-0.275007
-0.244208
-0.215144
-0.189122
-0.547916
-0.533419
-0.522244
-0.507732
-0.489159
-0.464827
-0.435254
-0.402342
-0.368036
-0.33379
-0.30053
-0.268815
-0.239051
-0.211112
-0.186075
-0.557315
-0.541246
-0.52862
-0.511719
-0.489743
-0.461891
-0.429594
-0.395079
-0.360168
-0.326035
-0.293337
-0.262445
-0.233578
-0.20663
-0.182443
-0.567234
-0.549492
-0.535276
-0.515661
-0.489968
-0.458568
-0.423694
-0.387725
-0.352279
-0.318242
-0.286031
-0.255853
-0.227774
-0.20171
-0.178266
-0.577562
-0.558052
-0.542092
-0.519364
-0.48969
-0.454779
-0.417494
-0.380213
-0.344291
-0.310333
-0.278548
-0.248996
-0.22162
-0.196357
-0.173573
-0.588151
-0.566791
-0.548903
-0.522615
-0.488771
-0.45044
-0.410923
-0.372464
-0.336121
-0.302235
-0.270828
-0.241833
-0.215098
-0.190572
-0.168386
-0.598812
-0.575548
-0.555488
-0.525196
-0.487075
-0.445466
-0.403905
-0.364397
-0.327688
-0.293871
-0.262812
-0.234327
-0.208191
-0.184351
-0.162717
-0.609316
-0.584133
-0.561578
-0.526893
-0.484473
-0.439769
-0.396357
-0.355928
-0.318909
-0.285174
-0.254445
-0.226442
-0.200877
-0.177687
-0.156574
-0.619394
-0.592326
-0.566872
-0.527493
-0.480839
-0.433258
-0.388196
-0.346972
-0.309709
-0.276078
-0.245679
-0.218143
-0.193139
-0.170571
-0.14996
-0.628748
-0.599871
-0.571052
-0.526795
-0.476055
-0.425844
-0.379336
-0.337449
-0.300013
-0.266523
-0.236468
-0.209403
-0.184959
-0.162993
-0.142882
-0.637058
-0.606475
-0.573808
-0.524608
-0.470008
-0.417439
-0.369695
-0.327281
-0.289755
-0.256453
-0.226771
-0.200194
-0.176321
-0.154954
-0.135357
-0.643992
-0.611815
-0.574851
-0.520758
-0.462591
-0.407958
-0.359194
-0.316397
-0.278872
-0.245821
-0.216552
-0.190492
-0.167213
-0.146458
-0.127421
-0.649216
-0.615549
-0.573923
-0.515092
-0.453707
-0.397321
-0.347762
-0.304731
-0.267313
-0.234584
-0.20578
-0.180276
-0.157618
-0.137506
-0.119101
-0.652403
-0.617323
-0.570799
-0.507479
-0.44327
-0.385457
-0.335332
-0.292228
-0.25503
-0.222708
-0.194432
-0.169525
-0.14752
-0.128085
-0.110366
-0.653242
-0.616797
-0.56529
-0.497815
-0.431205
-0.372301
-0.321849
-0.278841
-0.241986
-0.210165
-0.182484
-0.158227
-0.136918
-0.118181
-0.101111
-0.651447
-0.613669
-0.557227
-0.486016
-0.417451
-0.357803
-0.307268
-0.264531
-0.228151
-0.196929
-0.16992
-0.146374
-0.125823
-0.107816
-0.0912179
-0.646759
-0.607673
-0.546469
-0.472018
-0.401963
-0.341921
-0.291554
-0.24927
-0.213497
-0.182985
-0.156732
-0.133967
-0.114252
-0.0970179
-0.0807496
-0.638955
-0.598592
-0.532912
-0.455778
-0.384711
-0.324626
-0.274676
-0.233029
-0.198013
-0.168329
-0.142931
-0.121023
-0.102214
-0.0856422
-0.0700828
-0.627847
-0.586257
-0.516491
-0.437276
-0.365677
-0.305897
-0.256608
-0.215785
-0.181723
-0.152984
-0.128545
-0.107581
-0.089675
-0.0737887
-0.0591292
-0.61329
-0.570551
-0.497175
-0.416512
-0.34486
-0.285721
-0.237348
-0.197554
-0.164674
-0.136972
-0.113557
-0.0936271
-0.0766604
-0.06153
-0.0478442
-0.595177
-0.551409
-0.474969
-0.393502
-0.322261
-0.264116
-0.216954
-0.178478
-0.146769
-0.120278
-0.0979973
-0.0791754
-0.0632015
-0.0489006
-0.0362281
-0.573449
-0.52882
-0.449913
-0.368287
-0.297903
-0.241159
-0.195499
-0.158448
-0.128094
-0.102931
-0.081895
-0.0642543
-0.0493319
-0.0359223
-0.0243052
-0.548088
-0.502815
-0.422088
-0.340933
-0.271867
-0.216925
-0.17294
-0.137515
-0.108688
-0.0849709
-0.065283
-0.048899
-0.0350863
-0.0226215
-0.0121059
-0.519124
-0.473477
-0.391608
-0.311538
-0.244297
-0.191369
-0.14934
-0.115734
-0.0885961
-0.0664434
-0.048202
-0.0331498
-0.0205028
-0.009033
0.000332376
-0.486636
-0.440953
-0.358564
-0.280197
-0.215226
-0.164599
-0.124765
-0.0931711
-0.0678709
-0.0473993
-0.0306988
-0.0170509
-0.00562414
0.00479804
0.0129615
-0.450758
-0.405497
-0.322942
-0.247029
-0.18475
-0.136715
-0.0993002
-0.0698954
-0.0465742
-0.0278953
-0.0128256
-0.000650757
0.009503
0.0188193
0.0257255
-0.411675
-0.367388
-0.28479
-0.21215
-0.152997
-0.107829
-0.073037
-0.045987
-0.0247756
-0.00799422
0.0053597
0.0159985
0.0248304
0.0329801
0.0385819
-0.369581
-0.326584
-0.244665
-0.175682
-0.120099
-0.0780629
-0.046079
-0.0215338
-0.00255201
0.0122344
0.0237934
0.0328408
0.0403118
0.0472396
0.051507
-0.324688
-0.28271
-0.203385
-0.13794
-0.0862075
-0.0475437
-0.0185379
0.00336899
0.0200135
0.0327156
0.0424071
0.0498182
0.0559008
0.0615451
0.0644091
-0.27726
-0.236518
-0.16078
-0.099166
-0.0514936
-0.0164075
0.00946802
0.0286194
0.0428323
0.0533708
0.0611342
0.0668788
0.0715365
0.0757512
0.0769771
-0.227477
-0.188602
-0.116942
-0.0595597
-0.01614
0.0151993
0.0378133
0.0541093
0.0658107
0.0741211
0.0799172
0.0839841
0.087135
0.0895741
0.0887396
-0.175786
-0.139296
-0.0720962
-0.0193196
0.0196675
0.0471217
0.0663663
0.0797251
0.0888507
0.0948872
0.0987039
0.101097
0.102607
0.102806
0.0996211
-0.122591
-0.0889065
-0.0265184
0.02134
0.0557386
0.0791979
0.0949893
0.105348
0.11185
0.115587
0.117429
0.118137
0.117859
0.115668
0.110801
-0.0682919
-0.037771
0.0194957
0.0621904
0.0918774
0.111261
0.12354
0.130856
0.134707
0.136134
0.136001
0.13496
0.132756
0.128421
0.125255
-0.0132998
0.0137568
0.065643
0.102993
0.127883
0.143139
0.151872
0.156124
0.157314
0.156437
0.154317
0.151443
0.147332
0.141606
0.139224
0.0419632
0.0653136
0.111617
0.143501
0.163551
0.17466
0.179839
0.181027
0.179566
0.176401
0.17229
0.167572
0.161741
0.154967
0.152232
0.0970723
0.116531
0.157112
0.183468
0.198674
0.205647
0.20729
0.205438
0.201353
0.195924
0.18983
0.183301
0.175909
0.168176
0.164595
0.151608
0.167035
0.201822
0.222646
0.233045
0.235927
0.234078
0.229229
0.222566
0.214911
0.206864
0.198584
0.189734
0.181003
0.176355
0.205153
0.216451
0.245446
0.260788
0.266458
0.265324
0.260055
0.252276
0.243094
0.233265
0.223314
0.213354
0.203122
0.193366
0.187563
0.257294
0.264417
0.287687
0.297652
0.298712
0.29367
0.285077
0.274454
0.262832
0.250897
0.239106
0.227538
0.215982
0.205192
0.198207
0.307626
0.310583
0.328258
0.333004
0.32961
0.320799
0.309002
0.295644
0.281676
0.267717
0.254163
0.241063
0.228245
0.216434
0.208264
0.355756
0.354615
0.366883
0.366618
0.358963
0.346549
0.331696
0.315729
0.299526
0.283641
0.268411
0.253862
0.239847
0.227044
0.217706
0.401309
0.396193
0.403301
0.398276
0.386589
0.37077
0.353029
0.3346
0.316289
0.298587
0.281779
0.26587
0.250732
0.236977
0.2265
0.443931
0.435016
0.437263
0.427776
0.412317
0.393315
0.372878
0.352151
0.331873
0.312478
0.294201
0.277028
0.260846
0.246191
0.23462
0.483291
0.470805
0.468539
0.454926
0.435988
0.414052
0.39113
0.368286
0.346197
0.325243
0.305614
0.287281
0.270142
0.254647
0.242038
0.519082
0.503302
0.496918
0.479552
0.457454
0.432855
0.407678
0.382915
0.359184
0.336815
0.315961
0.29658
0.278575
0.262309
0.248732
0.551029
0.532274
0.522206
0.501495
0.476583
0.449613
0.422429
0.395956
0.370764
0.347137
0.325192
0.304878
0.286106
0.269144
0.254683
0.578885
0.557514
0.544235
0.520613
0.493257
0.464226
0.435297
0.407338
0.380875
0.356153
0.33326
0.312137
0.292698
0.275124
0.259873
0.602436
0.578844
0.562857
0.536784
0.507371
0.476606
0.446208
0.416999
0.389465
0.363819
0.340125
0.31832
0.298319
0.280222
0.26429
0.621503
0.596113
0.577948
0.549907
0.518841
0.486682
0.455102
0.424886
0.396488
0.370097
0.345756
0.323399
0.302944
0.284419
0.267924
0.635941
0.6092
0.589408
0.559897
0.527597
0.494394
0.461929
0.430956
0.401909
0.374956
0.350126
0.327351
0.306551
0.287701
0.270771
0.645643
0.618017
0.597164
0.566695
0.533588
0.499701
0.466653
0.435179
0.405701
0.378373
0.353215
0.330159
0.309126
0.290054
0.272831
0.65054
0.622503
0.601167
0.57026
0.53678
0.502573
0.469249
0.437535
0.407846
0.380333
0.35501
0.331809
0.310653
0.291465
0.274068
-0.4781
-0.48229
-0.468348
-0.438775
-0.440013
-0.424752
-0.395659
-0.393233
-0.375224
-0.350545
-0.344247
-0.334455
-0.30523
-0.292988
-0.279878
-0.261809
-0.242429
-0.226325
-0.207308
-0.222255
-0.194951
-0.175383
-0.159934
-0.188313
-0.152704
-0.128453
-0.111065
-0.161344
-0.117533
-0.0881654
-0.0674687
-0.140696
-0.089668
-0.0559461
-0.0322901
-0.127255
-0.0721957
-0.0332304
-0.00621866
-0.120176
-0.0635019
-0.0201733
0.0106179
0.0299241
-0.118538
-0.0625592
-0.0157931
0.0186632
0.0417939
-0.121027
-0.0669263
-0.0188413
0.0184514
0.0451784
-0.126415
-0.0750038
-0.0269064
0.0120209
0.0434992
-0.133259
-0.0851884
-0.0384624
0.000651721
0.0301572
0.0513733
-0.140417
-0.0960129
-0.0513822
-0.0123971
0.0189514
0.0413325
-0.147201
-0.106804
-0.0650144
-0.0271115
0.00406226
0.0286599
-0.152704
-0.116119
-0.0767283
-0.0394843
-0.00703059
0.0166539
-0.159406
-0.127077
-0.0916297
-0.0570799
-0.0273191
0.000258116
0.0194718
-0.152761
-0.127125
-0.0929956
-0.0598593
-0.031495
-0.00765847
0.00977867
-0.140065
-0.117791
-0.0884189
-0.0608649
-0.0374879
-0.0180459
-0.00320329
-0.127629
-0.110019
-0.0856458
-0.0624662
-0.0424819
-0.0260751
-0.0133118
-0.115185
-0.101377
-0.0818159
-0.0623375
-0.045517
-0.0316572
-0.0207012
-0.10477
-0.093994
-0.0777708
-0.0614041
-0.0471784
-0.0353867
-0.0259103
-0.0951554
-0.0867363
-0.0734322
-0.0597316
-0.0476888
-0.0376153
-0.029386
-0.086293
-0.0797859
-0.0689249
-0.0574834
-0.0472896
-0.0386654
-0.031502
-0.078217
-0.073214
-0.0643647
-0.0548247
-0.046199
-0.0388056
-0.0325565
-0.0708609
-0.0670365
-0.0598401
-0.0518958
-0.0445999
-0.0382562
-0.0327968
-0.0641503
-0.0612631
-0.0554227
-0.0488141
-0.0426454
-0.0371998
-0.0324261
-0.0580413
-0.0558963
-0.0511661
-0.045674
-0.0404604
-0.0357841
-0.0316071
-0.0524891
-0.050927
-0.0471064
-0.0425477
-0.0381434
-0.0341266
-0.0304694
-0.0474443
-0.0463409
-0.043267
-0.0394895
-0.0357713
-0.0323202
-0.0291162
-0.0428643
-0.0421226
-0.0396628
-0.0365398
-0.0334037
-0.0304381
-0.0276294
-0.0387133
-0.0382556
-0.0363015
-0.0337276
-0.0310856
-0.0285367
-0.0260726
-0.0349575
-0.0347222
-0.0331854
-0.0310728
-0.0288506
-0.0266596
-0.0244958
-0.0315666
-0.0315053
-0.0303133
-0.0285888
-0.0267234
-0.0248397
-0.0229371
-0.0285137
-0.0285882
-0.0276816
-0.0262838
-0.0247218
-0.0231013
-0.0214253
-0.0257755
-0.0259554
-0.0252851
-0.0241625
-0.0228584
-0.0214633
-0.0199817
-0.0233308
-0.0235923
-0.0231178
-0.022227
-0.0211419
-0.01994
-0.0186284
-0.0211614
-0.0214857
-0.0211732
-0.0204772
-0.0195779
-0.0185413
-0.0173768
-0.019251
-0.0196233
-0.0194446
-0.0189121
-0.0181697
-0.0172737
-0.0162354
-0.0175856
-0.0179944
-0.0179257
-0.0175294
-0.0169189
-0.0161416
-0.0152106
-0.016153
-0.0165894
-0.0166104
-0.0163269
-0.015826
-0.015148
-0.0143072
-0.0149429
-0.0153999
-0.0154934
-0.0153019
-0.014891
-0.0142948
-0.0135287
-0.0139467
-0.0144188
-0.0145697
-0.0144519
-0.0141133
-0.013583
-0.0128774
-0.0131572
-0.0136403
-0.0138354
-0.0137746
-0.0134922
-0.0130132
-0.0123549
-0.012569
-0.01306
-0.0132874
-0.0132685
-0.0130273
-0.0125859
-0.0119623
-0.0121782
-0.0126744
-0.0129233
-0.0129319
-0.0127178
-0.0123011
-0.0117003
-0.011979
-0.0124801
-0.0127403
-0.012763
-0.0125626
-0.0121583
-0.011569
-0.157106
-0.142386
-0.130027
-0.116504
-0.105081
-0.0950797
-0.0858213
-0.0774588
-0.0699619
-0.0631615
-0.0569925
-0.0514206
-0.0463843
-0.0418275
-0.03771
-0.0339956
-0.0306503
-0.0276445
-0.024953
-0.0225537
-0.0204271
-0.0185562
-0.0169266
-0.0155257
-0.0143429
-0.0133693
-0.0125976
-0.0120227
-0.0116402
-0.0114413
-0.159277
-0.14177
-0.129918
-0.116344
-0.10439
-0.0943445
-0.0850706
-0.076621
-0.0691069
-0.0623333
-0.056186
-0.0506395
-0.0456393
-0.0411207
-0.0370398
-0.0333611
-0.0300502
-0.0270767
-0.024415
-0.0220427
-0.0199405
-0.0180912
-0.0164804
-0.0150954
-0.0139259
-0.0129629
-0.012199
-0.0116294
-0.0112488
-0.011049
-0.16267
-0.142801
-0.130543
-0.117109
-0.104494
-0.0941128
-0.0847842
-0.0761986
-0.068566
-0.061757
-0.0555934
-0.0500293
-0.0450252
-0.0405143
-0.0364444
-0.0327789
-0.0294834
-0.0265262
-0.0238807
-0.0215242
-0.0194368
-0.0176011
-0.0160023
-0.0146278
-0.013467
-0.0125108
-0.011752
-0.0111854
-0.0108054
-0.0106044
-0.165161
-0.143745
-0.130475
-0.117311
-0.1044
-0.0936404
-0.084284
-0.0756678
-0.0679405
-0.0610939
-0.0549332
-0.0493671
-0.0443625
-0.0398613
-0.0358052
-0.032154
-0.0288736
-0.0259322
-0.0233022
-0.0209604
-0.0188866
-0.0170633
-0.0154756
-0.0141106
-0.0129577
-0.0120077
-0.0112533
-0.0106892
-0.0103096
-0.0101077
-0.166593
-0.14459
-0.130197
-0.117148
-0.104204
-0.0930756
-0.0836111
-0.075013
-0.067232
-0.0603388
-0.0541804
-0.048624
-0.0436244
-0.0391341
-0.0350944
-0.0314603
-0.0281972
-0.0252733
-0.0226604
-0.0203347
-0.0182758
-0.0164661
-0.0148904
-0.0135358
-0.0123915
-0.0114483
-0.0106988
-0.0101378
-0.00975897
-0.00955662
-0.167017
-0.144864
-0.12945
-0.116351
-0.10358
-0.0922572
-0.0826663
-0.0741178
-0.0663569
-0.0594441
-0.0532946
-0.0477646
-0.0427857
-0.038315
-0.0342983
-0.0306877
-0.0274468
-0.024544
-0.0219512
-0.0196441
-0.0176022
-0.0158077
-0.0142454
-0.0129023
-0.0117675
-0.0108319
-0.010088
-0.00953059
-0.00915309
-0.00895083
-0.166518
-0.144584
-0.128422
-0.11517
-0.102625
-0.0912662
-0.0815527
-0.0730306
-0.065327
-0.0584257
-0.0522895
-0.0467921
-0.0418456
-0.0374027
-0.0334142
-0.029832
-0.0266178
-0.02374
-0.0211704
-0.0188847
-0.0168621
-0.0150848
-0.0135376
-0.0122075
-0.0110835
-0.0101565
-0.00941918
-0.0088661
-0.00849063
-0.00828912
-0.165206
-0.143697
-0.127024
-0.113571
-0.10125
-0.0900018
-0.080241
-0.0717378
-0.0641123
-0.0572611
-0.0511559
-0.0456993
-0.0407968
-0.0363922
-0.032439
-0.0288909
-0.0257085
-0.0228598
-0.0203169
-0.0180554
-0.0160545
-0.0142965
-0.0127662
-0.0114505
-0.0103386
-0.00942143
-0.00869159
-0.00814368
-0.00777099
-0.00757088
-0.163124
-0.14222
-0.125314
-0.111683
-0.0995471
-0.0884831
-0.0787547
-0.0702755
-0.0627286
-0.0559519
-0.0498976
-0.0444899
-0.0396392
-0.0352819
-0.0313711
-0.0278624
-0.0247166
-0.0219012
-0.0193884
-0.0171541
-0.0151776
-0.0134411
-0.0119295
-0.01063
-0.00953167
-0.0086255
-0.00790422
-0.00736241
-0.00699331
-0.00679535
-0.160354
-0.140126
-0.12325
-0.109515
-0.0975203
-0.0866746
-0.0770567
-0.0686355
-0.0611734
-0.0544891
-0.0485072
-0.0431612
-0.0383706
-0.0340694
-0.0302085
-0.0267452
-0.0236408
-0.0208629
-0.0183839
-0.0161799
-0.0142304
-0.0125177
-0.0110269
-0.00974522
-0.00866192
-0.00776806
-0.00705647
-0.00652172
-0.00615709
-0.00596205
-0.156955
-0.137435
-0.120806
-0.107092
-0.0952272
-0.0846033
-0.0751477
-0.0668239
-0.0594577
-0.0528764
-0.0469838
-0.0417127
-0.0369909
-0.0327535
-0.0289498
-0.0255377
-0.0224798
-0.0197437
-0.0173022
-0.0151316
-0.0132118
-0.0115253
-0.0100573
-0.00879532
-0.00772862
-0.00684845
-0.00614774
-0.00562109
-0.00526184
-0.00507054
-0.152987
-0.134195
-0.11795
-0.104381
-0.0926732
-0.0822735
-0.0730152
-0.0648296
-0.0575797
-0.051113
-0.0453245
-0.0401421
-0.0354989
-0.031333
-0.0275937
-0.024239
-0.0212326
-0.0185427
-0.0161424
-0.0140085
-0.0121212
-0.0104634
-0.00902036
-0.00777983
-0.00673136
-0.00586628
-0.00517768
-0.0046602
-0.00430729
-0.00412055
-0.14849
-0.130449
-0.114682
-0.101371
-0.0898701
-0.0797054
-0.0706664
-0.0626516
-0.0555407
-0.0492017
-0.0435295
-0.0384483
-0.0338938
-0.0298074
-0.0261394
-0.0228482
-0.0198983
-0.017259
-0.0149038
-0.01281
-0.0109581
-0.0093314
-0.00791555
-0.00669843
-0.00566986
-0.00482133
-0.00414612
-0.00363889
-0.00329329
-0.00311195
-0.143498
-0.126231
-0.111013
-0.0980472
-0.0868107
-0.0769033
-0.0681029
-0.0602861
-0.0533378
-0.0471419
-0.0415983
-0.0366303
-0.0321748
-0.0281761
-0.0245863
-0.0213647
-0.0184767
-0.0158925
-0.0135863
-0.0115359
-0.00972233
-0.0081293
-0.00674283
-0.00555108
-0.0045441
-0.00371362
-0.00305307
-0.00255722
-0.00221992
-0.00204481
-0.138036
-0.121574
-0.106959
-0.0944106
-0.0834941
-0.0738738
-0.0653314
-0.0577349
-0.0509709
-0.0449343
-0.0395319
-0.0346881
-0.0303415
-0.026439
-0.0229344
-0.0197884
-0.0169676
-0.014443
-0.0121897
-0.0101861
-0.00841392
-0.00685719
-0.00550237
-0.00433797
-0.00335432
-0.00254339
-0.0018988
-0.00141544
-0.00108743
-0.000919391
-0.132125
-0.116502
-0.102538
-0.0904653
-0.0799181
-0.0706174
-0.0623548
-0.0549991
-0.0484397
-0.0425792
-0.0373306
-0.0326222
-0.0283942
-0.0245961
-0.0211838
-0.0181196
-0.0153712
-0.0129109
-0.0107144
-0.00876118
-0.00703332
-0.00551551
-0.00419464
-0.00305959
-0.002101
-0.00131111
-0.00068378
-0.000214003
0.000103704
0.000263873
-0.12578
-0.111035
-0.0977679
-0.0862213
-0.0760863
-0.0671371
-0.0591773
-0.0520822
-0.0457458
-0.040077
-0.0349953
-0.0304329
-0.0263332
-0.0226478
-0.0193349
-0.0163586
-0.0136881
-0.0112966
-0.00916105
-0.00726163
-0.00558117
-0.00410494
-0.00282033
-0.00171663
-0.000784834
-1.74918e-05
0.000591323
0.00104642
0.00135286
0.00150447
-0.119026
-0.105188
-0.092661
-0.0816872
-0.0720021
-0.0634344
-0.0558009
-0.048985
-0.0428888
-0.0374272
-0.0325253
-0.0281203
-0.0241586
-0.0205943
-0.0173882
-0.0145061
-0.0119188
-0.00960085
-0.00753032
-0.00568826
-0.0040583
-0.00262633
-0.0013803
-0.000309969
0.000593282
0.0013366
0.00192564
0.00236497
0.00265925
0.00280194
-0.1119
-0.0989706
-0.0872206
-0.076864
-0.0676658
-0.0595094
-0.0522237
-0.0457042
-0.039866
-0.0346277
-0.0299198
-0.0256841
-0.0218704
-0.018436
-0.0153441
-0.0125626
-0.0100641
-0.0078245
-0.00582315
-0.00404208
-0.00246574
-0.00108076
0.000124326
0.00115926
0.00203223
0.00275004
0.00331806
0.00374053
0.00402183
0.0041557
-0.104433
-0.0923889
-0.081437
-0.0717402
-0.0630704
-0.0553573
-0.0484362
-0.0422347
-0.0366753
-0.0316781
-0.027179
-0.0231248
-0.0194696
-0.0161739
-0.0132037
-0.0105294
-0.00812531
-0.005969
-0.00404106
-0.00232463
-0.000805092
0.000530163
0.00169195
0.00268946
0.00353044
0.00422129
0.00476705
0.00517162
0.00543926
0.00556428
-0.0965908
-0.0854596
-0.0752945
-0.0663068
-0.0582046
-0.0509728
-0.0444361
-0.0385826
-0.0333241
-0.0285847
-0.0243082
-0.0204469
-0.01696
-0.0138115
-0.0109705
-0.00840973
-0.00610555
-0.00403728
-0.00218688
-0.000538667
0.00092099
0.00220387
0.00332008
0.00427823
0.00508556
0.0057481
0.00627043
0.00665618
0.00691019
0.00702427
-0.0882896
-0.0782063
-0.0688007
-0.0605866
-0.0530704
-0.0463647
-0.0402553
-0.0347731
-0.0298306
-0.025361
-0.0213177
-0.0176592
-0.0143492
-0.0113555
-0.00865025
-0.0062088
-0.00400959
-0.00203373
-0.000264665
0.00131204
0.00270898
0.00393703
0.00500557
0.00592259
0.00669479
0.00732779
0.00782568
0.00819178
0.00843266
0.0085322
-0.0794948
-0.0706772
-0.0620019
-0.0546196
-0.0476889
-0.0415671
-0.0359207
-0.0308205
-0.0262029
-0.0220135
-0.0182135
-0.0147668
-0.0116416
-0.0088098
-0.00624653
-0.00392984
-0.00184039
3.88881e-05
0.00172298
0.00322504
0.00455654
0.00572744
0.00674634
0.00762056
0.00835627
0.0089586
0.00943116
0.00977752
0.0100032
0.01009
-0.0703271
-0.0628639
-0.0549944
-0.0484182
-0.04213
-0.036536
-0.0313944
-0.0266958
-0.0224195
-0.0185278
-0.0149853
-0.0117623
-0.00883223
-0.00617104
-0.00375728
-0.00157183
0.000402308
0.00218022
0.00377526
0.00519916
0.00646223
0.00757345
0.00854057
0.00937022
0.010068
0.0106385
0.0110849
0.011411
0.0116204
0.0116959
-0.0608319
-0.0546582
-0.0477258
-0.0419523
-0.0363486
-0.0313231
-0.0266703
-0.0224016
-0.0184883
-0.014909
-0.0116372
-0.00864964
-0.0059247
-0.00344277
-0.00118599
0.000861802
0.00271511
0.00438694
0.00588887
0.00723116
0.00842288
0.00947195
0.0103852
0.0111686
0.0118271
0.0123647
0.0127843
0.0130894
0.0132822
0.013347
-0.0510545
-0.0461245
-0.0401846
-0.0352426
-0.0303481
-0.0259177
-0.0217726
-0.0179473
-0.014414
-0.0111621
-0.00817428
-0.00543347
-0.00292361
-0.000629498
0.00146298
0.00336684
0.00509395
0.0066551
0.00806001
0.00931737
0.0104349
0.0114195
0.012277
0.0130125
0.0136304
0.0141341
0.0145262
0.0148099
0.0149861
0.0150407
-0.0410068
-0.0373163
-0.0323823
-0.0283041
-0.0241366
-0.0203236
-0.016708
-0.0133403
-0.0102034
-0.00729408
-0.0046031
-0.00212029
0.000164942
0.00226309
0.00418431
0.0059383
0.00753415
0.0089803
0.0102845
0.0114538
0.0124945
0.0134123
0.0142122
0.0148984
0.0154746
0.0159436
0.0163077
0.0165696
0.0167294
0.0167742
-0.0306971
-0.0282627
-0.0243361
-0.0211442
-0.017722
-0.0145478
-0.0114838
-0.00859252
-0.00586826
-0.0033157
-0.000933625
0.00128116
0.00333328
0.00522824
0.00697202
0.0085708
0.0100308
0.0113579
0.012558
0.0136362
0.0145977
0.0154467
0.0161872
0.0168227
0.0173561
0.0177897
0.0181253
0.0183654
0.0185089
0.0185445
-0.0201334
-0.0189749
-0.0160594
-0.0137724
-0.0111214
-0.00861068
-0.00612153
-0.00372431
-0.00142629
0.000758612
0.00282278
0.00476183
0.00657407
0.0082598
0.00982071
0.0112594
0.0125792
0.0137836
0.0148762
0.0158606
0.0167403
0.0175185
0.0181981
0.0187816
0.0192713
0.0196689
0.0199757
0.0201938
0.0203213
0.0203487
-0.00932558
-0.00946171
-0.00757814
-0.00622059
-0.00437306
-0.0025469
-0.000647667
0.00124588
0.00311071
0.00492175
0.00666179
0.00831876
0.00988483
0.0113553
0.0127276
0.0140011
0.0151761
0.0162537
0.0172354
0.018123
0.0189186
0.019624
0.0202411
0.0207714
0.0212166
0.0215776
0.0218554
0.0220516
0.0221635
0.0221836
0.0017056
0.000246513
0.00105625
0.00146547
0.00249273
0.00363248
0.00494178
0.00633019
0.00775723
0.00918706
0.010594
0.0119594
0.01327
0.0145165
0.0156928
0.0167945
0.0178191
0.0187651
0.019632
0.0204198
0.0211287
0.0217593
0.0223122
0.0227883
0.0231881
0.0235121
0.0237607
0.0239352
0.0240321
0.0240461
0.0129155
0.0101055
0.00981474
0.00930001
0.00952436
0.00999068
0.0107088
0.01158
0.0125514
0.0135803
0.0146352
0.015692
0.0167328
0.0177435
0.0187138
0.0196358
0.0205038
0.0213134
0.0220616
0.0227464
0.0233662
0.0239201
0.0244076
0.0248283
0.0251821
0.0254688
0.0256883
0.0258413
0.0259237
0.0259329
0.0242662
0.0201415
0.0187871
0.0174109
0.0168433
0.0166165
0.0167059
0.017018
0.0174956
0.0180921
0.0187701
0.0194996
0.0202562
0.0210206
0.0217772
0.0225136
0.0232205
0.0238902
0.024517
0.0250966
0.0256256
0.0261015
0.0265225
0.0268872
0.0271946
0.0274437
0.0276343
0.0277661
0.0278349
0.0278406
0.0357967
0.0304889
0.0281011
0.0258517
0.0244186
0.0234186
0.0228141
0.0225218
0.022478
0.0226268
0.0229207
0.0233201
0.0237924
0.0243111
0.0248549
0.0254067
0.0259529
0.0264828
0.0269881
0.0274622
0.0278999
0.0282974
0.0286515
0.0289599
0.0292206
0.0294324
0.0295941
0.0297053
0.0297614
0.029765
0.0475533
0.0411199
0.0375325
0.0342546
0.0318442
0.0300209
0.0287196
0.0278453
0.0273127
0.0270476
0.0269879
0.0270827
0.0272909
0.0275792
0.0279212
0.0282959
0.0286865
0.0290798
0.0294654
0.0298349
0.0301818
0.0305009
0.0307882
0.0310403
0.0312547
0.0314292
0.0315627
0.0316539
0.0316984
0.0317013
0.0592822
0.0515376
0.0464532
0.0420668
0.0387302
0.0361859
0.034299
0.0329384
0.0319923
0.031369
0.0309952
0.0308123
0.0307737
0.0308424
0.0309887
0.0311893
0.0314255
0.0316822
0.0319475
0.0322118
0.0324672
0.0327076
0.0329277
0.0331236
0.0332918
0.0334297
0.0335356
0.0336075
0.033642
0.0336458
0.0704804
0.0614148
0.0549791
0.0497344
0.0456976
0.042572
0.0401654
0.0383315
0.036954
0.0359395
0.0352129
0.0347136
0.0343926
0.0342105
0.0341352
0.0341407
0.0342059
0.0343134
0.0344491
0.0346015
0.0347609
0.0349195
0.0350709
0.0352096
0.0353315
0.0354332
0.035512
0.0355657
0.0355916
0.0355978
0.0814374
0.072108
0.0650069
0.059164
0.0544284
0.0505653
0.0474178
0.0448764
0.0428481
0.0412494
0.0400067
0.0390566
0.0383453
0.0378274
0.0374647
0.0372252
0.037082
0.0370129
0.0369993
0.0370257
0.0370794
0.0371497
0.037228
0.0373071
0.0373813
0.0374461
0.0374979
0.0375338
0.037552
0.0375603
0.0933832
0.0852072
0.077684
0.0709706
0.0651507
0.0601705
0.0559567
0.0524407
0.0495456
0.0471892
0.0452921
0.043782
0.0425946
0.041674
0.040972
0.0404475
0.0400654
0.0397964
0.0396156
0.0395024
0.0394398
0.0394138
0.0394128
0.0394276
0.0394507
0.0394762
0.0394995
0.0395168
0.0395266
0.0395345
0.104341
0.0965888
0.0883365
0.0806365
0.0738354
0.0679723
0.0629852
0.0587897
0.055295
0.0524101
0.0500482
0.0481305
0.0465863
0.045354
0.04438
0.0436185
0.0430303
0.0425823
0.0422464
0.0419994
0.041822
0.0416982
0.0416149
0.0415615
0.0415294
0.0415119
0.0415036
0.0415004
0.0415
0.0415046
0.122013
0.111579
0.101975
0.0932192
0.0856182
0.0791642
0.073706
0.0690811
0.0651647
0.0618568
0.0590717
0.0567343
0.0547786
0.0531476
0.0517917
0.0506683
0.0497407
0.0489775
0.0483521
0.0478418
0.0474274
0.0470929
0.0468247
0.0466118
0.0464449
0.0463169
0.0462217
0.0461549
0.0461133
0.0460939
0.139398
0.126553
0.116416
0.107704
0.100083
0.0934327
0.0876542
0.0826392
0.0782883
0.0745168
0.0712524
0.0684312
0.0659968
0.0638993
0.0620947
0.0605445
0.0592153
0.0580779
0.0571069
0.0562808
0.0555805
0.0549902
0.0544962
0.054087
0.0537531
0.0534864
0.0532809
0.0531315
0.0530347
0.0529881
0.145593
0.135575
0.126561
0.118452
0.111169
0.104659
0.0988688
0.0937387
0.0892028
0.0851972
0.0816635
0.07855
0.0758101
0.0734023
0.0712895
0.0694386
0.0678203
0.0664087
0.0651809
0.0641167
0.0631987
0.0624116
0.0617423
0.0611795
0.0607138
0.0603373
0.0600436
0.0598278
0.059686
0.0596152
0.148551
0.139959
0.132019
0.124755
0.118156
0.112171
0.106751
0.101855
0.0974431
0.0934765
0.0899179
0.0867317
0.0838844
0.0813449
0.0790847
0.0770774
0.0752989
0.0737277
0.0723443
0.0711314
0.0700735
0.0691572
0.0683707
0.0677037
0.0671475
0.0666949
0.0663398
0.0660777
0.0659051
0.0658199
0.148073
0.141354
0.134887
0.128756
0.123009
0.117664
0.112722
0.108175
0.10401
0.100209
0.09675
0.0936114
0.0907706
0.0882055
0.0858953
0.0838202
0.0819619
0.0803033
0.078829
0.0775246
0.0763774
0.075376
0.0745103
0.0737714
0.0731519
0.0726451
0.072246
0.0719502
0.0717547
0.0716569
0.147117
0.141496
0.136021
0.130761
0.125773
0.121077
0.11668
0.112581
0.108776
0.105256
0.102013
0.0990343
0.0963068
0.0938174
0.0915523
0.0894982
0.0876419
0.0859709
0.0844737
0.0831392
0.0819575
0.0809195