/*--------------------------------*- C++ -*----------------------------------*\
  =========                 |
  \\      /  F ield         | OpenFOAM: The Open Source CFD Toolbox
   \\    /   O peration     | Website:  https://openfoam.org
    \\  /    A nd           | Version:  7
     \\/     M anipulation  |
\*---------------------------------------------------------------------------*/
FoamFile
{
    version     2.0;
    format      ascii;
    class       volScalarField;
    location    "95.001";
    object      p;
}
// * * * * * * * * * * * * * * * * * * * * * * * * * * * * * * * * * * * * * //

dimensions      [0 2 -2 0 0 0 0];

internalField   nonuniform List<scalar> 
3700
(
-0.29738
-0.300157
-0.301059
-0.302192
-0.303448
-0.304914
-0.306594
-0.308483
-0.310581
-0.312886
-0.315381
-0.318023
-0.320734
-0.323401
-0.325758
-0.299327
-0.30181
-0.302667
-0.303817
-0.305192
-0.306898
-0.308967
-0.311428
-0.314326
-0.317706
-0.321601
-0.325999
-0.330819
-0.336008
-0.340973
-0.301443
-0.303592
-0.304386
-0.305529
-0.307
-0.30892
-0.311345
-0.314339
-0.317987
-0.32238
-0.327594
-0.333652
-0.340422
-0.347998
-0.355136
-0.303676
-0.305458
-0.306167
-0.307277
-0.308811
-0.310906
-0.313642
-0.317112
-0.321438
-0.326752
-0.333168
-0.340753
-0.349219
-0.35907
-0.367682
-0.305972
-0.307365
-0.307965
-0.309007
-0.310563
-0.312785
-0.315772
-0.319645
-0.324556
-0.33067
-0.338129
-0.347096
-0.356868
-0.368967
-0.378156
-0.308281
-0.309272
-0.309735
-0.310671
-0.312199
-0.314489
-0.317656
-0.321841
-0.327224
-0.333997
-0.342296
-0.352522
-0.3631
-0.377222
-0.386934
-0.310556
-0.311143
-0.311441
-0.312225
-0.313668
-0.315956
-0.319219
-0.323616
-0.329343
-0.336618
-0.345528
-0.356636
-0.36798
-0.383644
-0.39326
-0.31276
-0.312949
-0.313052
-0.313635
-0.314929
-0.317138
-0.320407
-0.324907
-0.330841
-0.338452
-0.347739
-0.359566
-0.371066
-0.388208
-0.396905
-0.31486
-0.314669
-0.314551
-0.314878
-0.315954
-0.318001
-0.321182
-0.325673
-0.331679
-0.339469
-0.348883
-0.361278
-0.372347
-0.390835
-0.397908
-0.316839
-0.316299
-0.315924
-0.315943
-0.316729
-0.318532
-0.321531
-0.325907
-0.331854
-0.339683
-0.348992
-0.361799
-0.371959
-0.391467
-0.396119
-0.318693
-0.317838
-0.317173
-0.316833
-0.31726
-0.318738
-0.321467
-0.325633
-0.331408
-0.339157
-0.348178
-0.361198
-0.370214
-0.390185
-0.392808
-0.320432
-0.319299
-0.318313
-0.317564
-0.317568
-0.31865
-0.321032
-0.324907
-0.330421
-0.337986
-0.346598
-0.359556
-0.367445
-0.38691
-0.388043
-0.322079
-0.320704
-0.31937
-0.318168
-0.317695
-0.31832
-0.320293
-0.323818
-0.329007
-0.336291
-0.344456
-0.35695
-0.363931
-0.381601
-0.381834
-0.323676
-0.322087
-0.32038
-0.318689
-0.317695
-0.317819
-0.319342
-0.322476
-0.327299
-0.334212
-0.341906
-0.353464
-0.359748
-0.374409
-0.37389
-0.325277
-0.323492
-0.321391
-0.319185
-0.317641
-0.317238
-0.318288
-0.321005
-0.325442
-0.331874
-0.339033
-0.349187
-0.354732
-0.365689
-0.363946
-0.326951
-0.324971
-0.322459
-0.319721
-0.317617
-0.316679
-0.31725
-0.319536
-0.323549
-0.329366
-0.335829
-0.344162
-0.348633
-0.355839
-0.352304
-0.328779
-0.326585
-0.323649
-0.320374
-0.317712
-0.316247
-0.316343
-0.318177
-0.321694
-0.326717
-0.332212
-0.338349
-0.34131
-0.345083
-0.339592
-0.330849
-0.328398
-0.325029
-0.321221
-0.318018
-0.316042
-0.315665
-0.317002
-0.319897
-0.323886
-0.32806
-0.33168
-0.332767
-0.33333
-0.326418
-0.333252
-0.330479
-0.326671
-0.32234
-0.318619
-0.316149
-0.315281
-0.316036
-0.318119
-0.320794
-0.323271
-0.324194
-0.323155
-0.32026
-0.312377
-0.336072
-0.332898
-0.328641
-0.323801
-0.319583
-0.316623
-0.315213
-0.31525
-0.316277
-0.317357
-0.317812
-0.316084
-0.312773
-0.306085
-0.297569
-0.339385
-0.335724
-0.331
-0.325661
-0.320957
-0.317484
-0.315439
-0.31457
-0.31427
-0.31351
-0.311737
-0.307587
-0.302032
-0.29238
-0.282092
-0.343269
-0.339006
-0.333798
-0.32796
-0.322762
-0.318717
-0.315899
-0.313902
-0.312002
-0.309224
-0.305176
-0.298865
-0.291187
-0.28005
-0.268473
-0.347787
-0.342788
-0.337075
-0.330725
-0.324992
-0.320279
-0.316512
-0.313139
-0.309401
-0.304509
-0.298274
-0.290053
-0.280726
-0.268552
-0.256195
-0.352988
-0.347106
-0.340861
-0.333963
-0.327623
-0.32211
-0.317181
-0.312176
-0.306421
-0.299412
-0.291155
-0.281317
-0.270668
-0.257818
-0.245307
-0.358904
-0.351991
-0.34518
-0.337672
-0.330619
-0.324139
-0.317798
-0.310922
-0.303049
-0.293992
-0.283924
-0.27272
-0.261042
-0.247745
-0.235133
-0.365554
-0.357468
-0.350049
-0.341839
-0.333942
-0.326282
-0.318251
-0.309307
-0.299292
-0.288312
-0.276646
-0.264299
-0.251793
-0.238167
-0.225542
-0.372952
-0.36356
-0.355479
-0.346449
-0.337544
-0.328436
-0.318434
-0.307286
-0.295172
-0.28242
-0.269355
-0.256042
-0.242853
-0.22899
-0.216311
-0.381096
-0.370285
-0.361471
-0.351483
-0.341361
-0.330478
-0.318254
-0.304835
-0.29071
-0.276345
-0.262056
-0.247916
-0.234149
-0.220095
-0.207357
-0.389979
-0.377653
-0.368013
-0.356917
-0.345293
-0.332282
-0.317637
-0.301943
-0.285923
-0.270099
-0.254733
-0.239875
-0.225609
-0.211404
-0.198585
-0.399577
-0.385656
-0.375082
-0.362701
-0.349204
-0.333724
-0.316526
-0.298602
-0.280817
-0.263675
-0.247358
-0.231867
-0.217165
-0.202837
-0.189929
-0.40985
-0.394263
-0.382638
-0.368738
-0.352937
-0.334692
-0.314876
-0.294802
-0.275385
-0.257052
-0.239888
-0.223836
-0.208753
-0.194329
-0.181326
-0.420729
-0.403413
-0.390617
-0.374879
-0.356321
-0.335082
-0.312644
-0.290528
-0.269608
-0.250198
-0.23228
-0.215727
-0.200315
-0.185821
-0.172724
-0.432117
-0.41301
-0.398921
-0.380923
-0.359186
-0.334804
-0.309791
-0.285754
-0.263458
-0.243075
-0.224485
-0.207488
-0.191799
-0.177259
-0.164077
-0.443874
-0.422929
-0.407393
-0.386636
-0.361368
-0.333773
-0.306273
-0.280448
-0.256897
-0.235639
-0.216453
-0.19907
-0.183157
-0.168597
-0.155344
-0.455819
-0.43301
-0.415817
-0.391775
-0.362711
-0.331907
-0.302044
-0.274568
-0.249881
-0.227843
-0.208136
-0.190424
-0.174343
-0.15979
-0.146487
-0.467721
-0.443065
-0.42391
-0.396094
-0.363067
-0.329127
-0.297049
-0.268069
-0.242364
-0.21964
-0.199489
-0.18151
-0.165316
-0.150797
-0.137472
-0.479311
-0.452867
-0.431351
-0.399353
-0.362301
-0.325354
-0.291235
-0.260901
-0.234297
-0.210984
-0.190467
-0.172288
-0.15604
-0.141584
-0.128273
-0.490281
-0.462155
-0.437794
-0.401323
-0.360285
-0.320513
-0.284541
-0.253011
-0.225633
-0.201831
-0.181032
-0.162725
-0.146485
-0.132125
-0.118878
-0.500299
-0.470625
-0.442898
-0.401793
-0.356902
-0.314528
-0.27691
-0.244347
-0.216323
-0.192138
-0.171146
-0.152787
-0.136622
-0.122407
-0.109299
-0.509021
-0.477942
-0.446344
-0.400568
-0.352047
-0.307331
-0.268285
-0.23486
-0.206326
-0.181869
-0.160778
-0.142447
-0.126424
-0.112417
-0.0995533
-0.516097
-0.483742
-0.447846
-0.397479
-0.345622
-0.298853
-0.258613
-0.224505
-0.195603
-0.170992
-0.149898
-0.131675
-0.115862
-0.102133
-0.0896151
-0.52119
-0.487656
-0.447157
-0.392386
-0.337545
-0.289038
-0.247845
-0.21324
-0.184121
-0.159479
-0.138485
-0.120453
-0.104914
-0.0915191
-0.0793875
-0.523974
-0.489321
-0.444072
-0.385176
-0.327746
-0.277835
-0.235941
-0.201035
-0.171854
-0.14731
-0.12652
-0.108765
-0.0935778
-0.0805569
-0.0687291
-0.524151
-0.488408
-0.438416
-0.375764
-0.316172
-0.265203
-0.222871
-0.187865
-0.158782
-0.134467
-0.11399
-0.0966053
-0.081861
-0.0692782
-0.0575536
-0.521453
-0.484637
-0.430039
-0.364086
-0.302784
-0.251115
-0.208612
-0.173711
-0.144887
-0.120939
-0.100888
-0.0839762
-0.0697704
-0.0576898
-0.0460345
-0.515648
-0.47778
-0.41883
-0.350105
-0.287561
-0.235552
-0.193144
-0.158556
-0.130167
-0.106733
-0.0872286
-0.0708991
-0.0573209
-0.0456134
-0.0344831
-0.506545
-0.467658
-0.404721
-0.333803
-0.270496
-0.218503
-0.176455
-0.14239
-0.114648
-0.0918758
-0.073041
-0.0573894
-0.0444664
-0.0331836
-0.0227831
-0.493992
-0.454152
-0.387682
-0.315186
-0.251594
-0.199971
-0.158558
-0.125241
-0.098382
-0.0763784
-0.0583142
-0.0434446
-0.0312251
-0.02047
-0.010877
-0.477886
-0.437198
-0.36772
-0.294282
-0.230872
-0.179985
-0.139516
-0.107227
-0.0812949
-0.0602423
-0.0430758
-0.0290802
-0.0176297
-0.00749761
0.00124225
-0.458167
-0.416784
-0.344882
-0.271138
-0.208368
-0.158629
-0.11939
-0.0882783
-0.0634636
-0.0435001
-0.027355
-0.0143238
-0.00371411
0.0057178
0.0135568
-0.434823
-0.392951
-0.319258
-0.245833
-0.184174
-0.135969
-0.098168
-0.0684478
-0.0449333
-0.026194
-0.0111871
0.000789964
0.0104871
0.0191516
0.0260374
-0.407892
-0.365791
-0.290961
-0.218467
-0.158423
-0.111996
-0.0759178
-0.0477958
-0.0257542
-0.00837145
0.0053862
0.0162217
0.0249367
0.0327677
0.0386423
-0.377464
-0.335474
-0.260075
-0.189148
-0.131168
-0.0868211
-0.0527155
-0.0263914
-0.00598295
0.00991495
0.0223175
0.0319279
0.0395941
0.0465218
0.0513221
-0.343685
-0.302257
-0.226597
-0.158015
-0.102522
-0.060552
-0.0286497
-0.00431016
0.0143152
0.0286065
0.0395535
0.0478615
0.0544176
0.0603709
0.0640394
-0.306742
-0.266364
-0.190715
-0.125179
-0.0726175
-0.0333073
-0.00381911
0.0183639
0.0350678
0.0476382
0.057035
0.0639714
0.0693675
0.0742806
0.0767722
-0.266838
-0.227669
-0.153049
-0.0908215
-0.0415975
-0.00521373
0.021668
0.0415394
0.0561955
0.066939
0.0746983
0.0802054
0.0844027
0.0882012
0.089427
-0.224222
-0.186146
-0.1141
-0.0552338
-0.00962348
0.0235945
0.0476959
0.0651178
0.0776135
0.0864348
0.0924815
0.0965168
0.0994673
0.10199
0.101696
-0.179169
-0.142409
-0.0738216
-0.0186512
0.0231256
0.0529748
0.0741417
0.0889943
0.0992316
0.10605
0.110331
0.112871
0.11448
0.115369
0.113143
-0.13182
-0.0970987
-0.0323702
0.0187195
0.0564625
0.0827749
0.100876
0.113058
0.120955
0.12571
0.128199
0.129232
0.129351
0.128145
0.123741
-0.0827249
-0.0504697
0.0100072
0.0566676
0.0901967
0.112835
0.127764
0.137192
0.142685
0.145334
0.146022
0.145523
0.143994
0.140548
0.134599
-0.0322684
-0.00284026
0.0530263
0.0949682
0.124133
0.14299
0.154665
0.161278
0.164321
0.164842
0.163715
0.16161
0.158289
0.152822
0.148492
0.0191497
0.045436
0.0963877
0.133385
0.15807
0.17307
0.181435
0.185193
0.185761
0.184144
0.18118
0.177378
0.172278
0.165514
0.161973
0.0711115
0.0939945
0.139785
0.171675
0.191804
0.202902
0.207927
0.208811
0.206899
0.203147
0.198331
0.192813
0.186107
0.178383
0.174568
0.123193
0.142464
0.18291
0.209588
0.225128
0.23231
0.233992
0.232008
0.227628
0.221752
0.215082
0.20787
0.199707
0.191112
0.186553
0.174974
0.190465
0.225454
0.246875
0.257834
0.261119
0.259483
0.254658
0.247838
0.239865
0.231359
0.222505
0.21298
0.203475
0.197949
0.226034
0.237622
0.267111
0.283289
0.289715
0.289156
0.284252
0.276634
0.267423
0.257391
0.247089
0.236653
0.225834
0.21539
0.208804
0.275953
0.283566
0.307581
0.318585
0.320568
0.316248
0.308154
0.297815
0.286275
0.274241
0.262195
0.25024
0.23818
0.226784
0.219101
0.324322
0.327943
0.346572
0.352525
0.350193
0.342229
0.331047
0.318078
0.304291
0.290326
0.276603
0.263198
0.24995
0.237608
0.228819
0.370742
0.37041
0.383802
0.384877
0.378399
0.366937
0.352795
0.337309
0.321371
0.305561
0.29024
0.275457
0.26108
0.247815
0.237928
0.41483
0.41064
0.419004
0.415423
0.405
0.390217
0.373267
0.355394
0.337421
0.319865
0.303034
0.286954
0.271515
0.25736
0.2464
0.456224
0.448327
0.451925
0.443954
0.429825
0.411923
0.392339
0.37223
0.352351
0.33316
0.314918
0.29763
0.281203
0.266203
0.254205
0.494585
0.483182
0.482327
0.470274
0.452708
0.431916
0.409894
0.387716
0.366076
0.345376
0.325831
0.307432
0.290095
0.274304
0.261318
0.5296
0.51494
0.509993
0.494204
0.473499
0.450071
0.425825
0.401763
0.378519
0.356444
0.335715
0.316308
0.298148
0.281628
0.267717
0.560983
0.54336
0.534725
0.515581
0.492062
0.466272
0.440036
0.414287
0.389608
0.366305
0.344518
0.324213
0.30532
0.288142
0.273383
0.588478
0.568229
0.556347
0.534259
0.508274
0.480416
0.452438
0.425214
0.399282
0.374906
0.352194
0.331107
0.311578
0.293818
0.2783
0.611865
0.589359
0.574706
0.55011
0.522029
0.492414
0.462956
0.434481
0.407484
0.382198
0.358703
0.336955
0.316888
0.29863
0.282455
0.630956
0.606593
0.58967
0.563027
0.533237
0.502189
0.471526
0.442032
0.414169
0.388142
0.364011
0.341726
0.321224
0.302558
0.285838
0.645597
0.619803
0.601136
0.572923
0.541824
0.50968
0.478096
0.447823
0.4193
0.392707
0.368091
0.345398
0.324564
0.305585
0.288442
0.655674
0.628893
0.609024
0.579733
0.547735
0.514841
0.482627
0.451821
0.422847
0.395869
0.370921
0.34795
0.326891
0.307698
0.290262
0.661109
0.633798
0.613281
0.583411
0.550934
0.517639
0.485091
0.454004
0.424791
0.397609
0.372487
0.34937
0.328195
0.30889
0.291299
-0.328366
-0.328269
-0.326438
-0.346668
-0.348263
-0.347818
-0.364094
-0.367104
-0.367998
-0.379965
-0.384099
-0.38621
-0.393977
-0.398697
-0.401713
-0.404337
-0.410617
-0.414098
-0.409765
-0.41227
-0.419447
-0.423046
-0.418715
-0.417131
-0.425049
-0.42845
-0.424028
-0.419718
-0.427323
-0.430324
-0.425686
-0.414514
-0.425556
-0.428658
-0.423826
-0.409918
-0.420626
-0.423725
-0.418728
-0.401875
-0.412525
-0.415733
-0.410684
-0.396683
-0.39165
-0.401525
-0.404986
-0.400069
-0.386624
-0.379719
-0.388169
-0.39195
-0.387344
-0.374758
-0.36581
-0.373197
-0.377206
-0.373067
-0.361611
-0.351066
-0.357403
-0.36145
-0.357874
-0.347741
-0.330816
-0.33578
-0.341472
-0.345374
-0.342387
-0.33366
-0.318777
-0.323034
-0.326404
-0.329674
-0.327138
-0.319772
-0.306898
-0.309809
-0.313154
-0.315428
-0.313137
-0.307026
-0.296082
-0.298904
-0.300124
-0.300587
-0.298006
-0.292883
-0.283814
-0.269876
-0.284178
-0.2906
-0.286867
-0.281728
-0.275748
-0.266919
-0.253831
-0.253129
-0.261488
-0.259279
-0.253703
-0.246967
-0.238335
-0.226473
-0.2301
-0.239184
-0.236953
-0.230713
-0.223672
-0.215464
-0.204804
-0.209243
-0.217299
-0.215486
-0.209722
-0.202992
-0.195341
-0.185752
-0.190062
-0.19748
-0.196153
-0.191022
-0.184819
-0.177779
-0.169148
-0.172952
-0.179747
-0.178784
-0.174288
-0.168694
-0.162316
-0.154587
-0.157664
-0.163812
-0.163167
-0.15928
-0.154325
-0.148625
-0.141739
-0.143906
-0.149491
-0.149118
-0.145823
-0.141493
-0.136447
-0.130343
-0.131554
-0.136642
-0.13651
-0.133749
-0.130002
-0.125571
-0.120187
-0.120469
-0.12511
-0.125188
-0.122904
-0.11969
-0.115829
-0.111102
-0.110504
-0.114752
-0.115012
-0.11316
-0.11043
-0.107087
-0.102951
-0.101546
-0.105446
-0.105864
-0.104396
-0.102103
-0.0992257
-0.0956209
-0.0934956
-0.0970867
-0.0976424
-0.0965147
-0.0946092
-0.0921486
-0.0890204
-0.0862613
-0.0895783
-0.0902519
-0.0894223
-0.087867
-0.0857785
-0.0830726
-0.0797638
-0.0828379
-0.0836126
-0.083046
-0.0818022
-0.0800442
-0.0777115
-0.0739346
-0.0767932
-0.0776546
-0.0773189
-0.0763484
-0.0748876
-0.0728832
-0.0687132
-0.0713807
-0.0723159
-0.0721818
-0.0714516
-0.0702519
-0.0685394
-0.0640463
-0.0665447
-0.0675426
-0.0675843
-0.0670647
-0.0660937
-0.0646404
-0.0598877
-0.0622368
-0.0632876
-0.0634822
-0.0631464
-0.0623755
-0.0611488
-0.056197
-0.0584146
-0.05951
-0.0598369
-0.0596612
-0.0590645
-0.0580343
-0.0529393
-0.0550415
-0.0561744
-0.0566153
-0.0565782
-0.0561324
-0.0552724
-0.0500841
-0.052086
-0.05325
-0.0537886
-0.0538707
-0.0535549
-0.0528415
-0.0476056
-0.0495207
-0.0507105
-0.0513322
-0.0515159
-0.0513112
-0.050723
-0.0454813
-0.0473225
-0.0485335
-0.049225
-0.0494946
-0.0493836
-0.0489011
-0.0436926
-0.0454719
-0.0467001
-0.0474495
-0.0477904
-0.0477572
-0.0473625
-0.0422238
-0.0439526
-0.0451946
-0.045991
-0.0463898
-0.0464198
-0.0460962
-0.0410621
-0.0427515
-0.0440043
-0.0448376
-0.0452818
-0.0453613
-0.0450934
-0.040198
-0.0418585
-0.0431197
-0.0439804
-0.0444581
-0.044574
-0.0443472
-0.0396245
-0.0412666
-0.0425339
-0.0434129
-0.0439126
-0.0440526
-0.0438527
-0.0393309
-0.040968
-0.0422398
-0.0431287
-0.04364
-0.0437921
-0.0436058
-0.265909
-0.236673
-0.213932
-0.195608
-0.177941
-0.162064
-0.148082
-0.135427
-0.124007
-0.11376
-0.104533
-0.096213
-0.0887228
-0.0819818
-0.0759167
-0.0704662
-0.0655766
-0.0612001
-0.0572948
-0.0538245
-0.0507576
-0.0480667
-0.0457282
-0.0437221
-0.0420312
-0.0406414
-0.0395409
-0.0387214
-0.0381761
-0.0378896
-0.252872
-0.226618
-0.204199
-0.187256
-0.170801
-0.155598
-0.142345
-0.130377
-0.1195
-0.109732
-0.10094
-0.0929972
-0.0858345
-0.0793817
-0.073569
-0.0683385
-0.0636407
-0.0594312
-0.0556709
-0.0523261
-0.0493671
-0.0467685
-0.0445081
-0.0425671
-0.0409294
-0.0395818
-0.0385131
-0.0377156
-0.0371817
-0.0368969
-0.242061
-0.218357
-0.196192
-0.179844
-0.164556
-0.149975
-0.137231
-0.125853
-0.115458
-0.106085
-0.0976561
-0.0900358
-0.0831503
-0.0769405
-0.071342
-0.0662988
-0.0617645
-0.0576977
-0.0540617
-0.0508245
-0.0479584
-0.0454393
-0.0432462
-0.0413614
-0.0397697
-0.0384585
-0.0374171
-0.0366382
-0.0361138
-0.0358309
-0.231852
-0.210151
-0.188839
-0.172861
-0.158556
-0.14469
-0.132375
-0.121489
-0.111555
-0.102545
-0.0944395
-0.0871158
-0.0804885
-0.0745037
-0.0691043
-0.0642364
-0.0598555
-0.055923
-0.0524042
-0.049269
-0.046491
-0.0440475
-0.0419187
-0.0400876
-0.0385399
-0.0372635
-0.0362484
-0.0354875
-0.0349726
-0.0346924
-0.222189
-0.202154
-0.181878
-0.166186
-0.152584
-0.139466
-0.127596
-0.117134
-0.107641
-0.0989946
-0.0911972
-0.0841565
-0.0777805
-0.0720143
-0.0668078
-0.0621105
-0.0578796
-0.0540786
-0.050675
-0.0476401
-0.0449492
-0.0425805
-0.0405154
-0.0387378
-0.037234
-0.0359926
-0.0350039
-0.0342614
-0.0337565
-0.0334798
-0.212819
-0.194083
-0.174947
-0.15968
-0.146628
-0.13423
-0.122852
-0.112778
-0.103693
-0.0954085
-0.0879121
-0.0811425
-0.0750114
-0.0694602
-0.0644428
-0.0599132
-0.0558303
-0.0521594
-0.0488699
-0.0459348
-0.0433305
-0.0410366
-0.0390353
-0.0373114
-0.0358518
-0.0346458
-0.0336841
-0.0329604
-0.0324664
-0.0321942
-0.203706
-0.186095
-0.168082
-0.153316
-0.140712
-0.128949
-0.118091
-0.1084
-0.099693
-0.0917642
-0.0845688
-0.0780636
-0.0721721
-0.0668334
-0.0620031
-0.0576394
-0.0537033
-0.0501618
-0.0469861
-0.0441506
-0.0416332
-0.0394142
-0.0374771
-0.0358074
-0.0343926
-0.0332226
-0.0322886
-0.0315846
-0.0311023
-0.0308355
-0.194801
-0.178125
-0.16117
-0.146987
-0.13482
-0.123625
-0.11329
-0.103995
-0.095645
-0.0880591
-0.0811636
-0.0749187
-0.0692616
-0.0641328
-0.0594881
-0.0552887
-0.0514985
-0.0480859
-0.0450237
-0.0422879
-0.0398574
-0.0377139
-0.0358414
-0.0342264
-0.0328571
-0.0317237
-0.0308182
-0.0301347
-0.029665
-0.0294047
-0.186046
-0.170207
-0.154247
-0.140681
-0.128955
-0.118268
-0.108436
-0.0995458
-0.0915448
-0.0842889
-0.0776903
-0.0717043
-0.0662781
-0.0613566
-0.0568962
-0.0528602
-0.0492151
-0.0459312
-0.0429825
-0.0403465
-0.0380033
-0.0359356
-0.0341283
-0.0325687
-0.0312456
-0.0301497
-0.0292734
-0.0286112
-0.0281551
-0.0279024
-0.177405
-0.16232
-0.147278
-0.134346
-0.123082
-0.112875
-0.103526
-0.0950438
-0.0873901
-0.0804542
-0.0741475
-0.0684189
-0.0632212
-0.0585047
-0.0542273
-0.0503541
-0.0468536
-0.0436981
-0.040863
-0.0383271
-0.0360716
-0.0340802
-0.0323388
-0.0308352
-0.029559
-0.0285013
-0.0276552
-0.0270153
-0.0265737
-0.0263296
-0.168828
-0.154453
-0.140276
-0.127978
-0.117193
-0.107449
-0.0985572
-0.0904812
-0.0831753
-0.0765534
-0.0705334
-0.0650606
-0.06009
-0.0555768
-0.0514814
-0.0477705
-0.0444144
-0.0413873
-0.038666
-0.0362304
-0.0340631
-0.0321486
-0.0304737
-0.0290268
-0.0277983
-0.0267798
-0.0259646
-0.0253479
-0.0249219
-0.0246874
-0.16028
-0.146589
-0.133225
-0.121554
-0.111263
-0.101978
-0.0935292
-0.0858535
-0.0788961
-0.0725851
-0.0668477
-0.0616286
-0.0568841
-0.0525731
-0.048659
-0.0451099
-0.0418982
-0.0389996
-0.0363923
-0.0340576
-0.031979
-0.0301421
-0.0285343
-0.027145
-0.0259649
-0.0249864
-0.0242031
-0.0236104
-0.0232009
-0.0229772
-0.151724
-0.138709
-0.126122
-0.115071
-0.105284
-0.0964575
-0.0884404
-0.0811583
-0.0745488
-0.0685473
-0.0630896
-0.0581225
-0.0536033
-0.0494939
-0.0457605
-0.0423733
-0.0393061
-0.0365362
-0.0340434
-0.03181
-0.0298207
-0.028062
-0.0265221
-0.0251911
-0.0240603
-0.0231226
-0.022372
-0.0218044
-0.0214124
-0.0212005
-0.14313
-0.130795
-0.118957
-0.108519
-0.0992416
-0.0908775
-0.0832867
-0.0763932
-0.0701307
-0.0644384
-0.0592588
-0.0545424
-0.0502481
-0.0463399
-0.0427871
-0.0395618
-0.0366393
-0.0339986
-0.0316207
-0.0294893
-0.02759
-0.0259101
-0.0244389
-0.023167
-0.0220863
-0.0211902
-0.0204733
-0.0199315
-0.019558
-0.0193589
-0.13447
-0.12283
-0.111721
-0.101892
-0.0931301
-0.0852319
-0.0780653
-0.071557
-0.0656402
-0.0602571
-0.0553551
-0.0508887
-0.046819
-0.0431121
-0.0397401
-0.0366771
-0.0338997
-0.0313887
-0.0291264
-0.0270975
-0.0252888
-0.0236887
-0.0222869
-0.0210748
-0.020045
-0.0191914
-0.018509
-0.0179939
-0.0176397
-0.0174543
-0.125717
-0.114794
-0.104408
-0.0951841
-0.0869422
-0.0795145
-0.0727725
-0.0666482
-0.0610766
-0.056003
-0.0513787
-0.0471624
-0.0433175
-0.0398123
-0.0366215
-0.0337212
-0.0310895
-0.0287087
-0.0265626
-0.024637
-0.0229197
-0.0213999
-0.0200682
-0.0189168
-0.0179387
-0.0171283
-0.0164811
-0.0159935
-0.0156597
-0.0154889
-0.116848
-0.106668
-0.0970065
-0.0883937
-0.0806753
-0.0737221
-0.0674063
-0.0616662
-0.0564399
-0.0516762
-0.0473303
-0.0433645
-0.0397449
-0.036442
-0.0334331
-0.0306962
-0.0282107
-0.0259609
-0.0239317
-0.0221102
-0.020485
-0.0190464
-0.0177856
-0.0166956
-0.0157699
-0.0150036
-0.0143923
-0.0139329
-0.0136202
-0.0134647
-0.107854
-0.0984327
-0.089505
-0.0815144
-0.0743246
-0.0678498
-0.0619628
-0.0566087
-0.051729
-0.0472766
-0.0432104
-0.0394962
-0.0361024
-0.0330022
-0.030176
-0.0276035
-0.0252654
-0.0231475
-0.0212362
-0.0195197
-0.0179875
-0.0166307
-0.0154417
-0.0144138
-0.0135413
-0.0128196
-0.012245
-0.0118144
-0.0115236
-0.0113836
-0.0987495
-0.0900737
-0.0818864
-0.0745317
-0.0678791
-0.0618879
-0.0564344
-0.0514702
-0.0469404
-0.0428022
-0.0390184
-0.0355578
-0.0323904
-0.029493
-0.0268504
-0.024444
-0.0222551
-0.0202705
-0.0184783
-0.0168677
-0.0154295
-0.0141556
-0.0130391
-0.0120741
-0.0112555
-0.0105792
-0.0100418
-0.00964085
-0.00937245
-0.00924731
-0.0895535
-0.0815898
-0.0741312
-0.0674205
-0.0613175
-0.0558204
-0.0508093
-0.0462425
-0.0420684
-0.0382495
-0.0347525
-0.0315486
-0.0286091
-0.0259153
-0.0234581
-0.0212201
-0.0191823
-0.0173327
-0.015661
-0.0141576
-0.0128143
-0.0116242
-0.0105811
-0.00967977
-0.00891578
-0.00828544
-0.00778587
-0.00741517
-0.00716953
-0.00705855
-0.0802292
-0.0729951
-0.0662198
-0.0601612
-0.0546215
-0.0496385
-0.0450818
-0.0409222
-0.0371114
-0.0336177
-0.0304124
-0.0274695
-0.0247619
-0.022276
-0.0200069
-0.017939
-0.0160537
-0.0143403
-0.0127899
-0.0113945
-0.0101471
-0.00904146
-0.00807238
-0.00723531
-0.00652644
-0.00594256
-0.00548133
-0.00514129
-0.00491778
-0.00482272
-0.0706692
-0.0642684
-0.0581382
-0.0527743
-0.0478055
-0.04336
-0.0392661
-0.035522
-0.0320799
-0.0289157
-0.0260051
-0.0233259
-0.020857
-0.0185925
-0.016512
-0.0146135
-0.01288
-0.0113024
-0.00987343
-0.00858618
-0.0074347
-0.0064138
-0.00551898
-0.00474641
-0.00409288
-0.00355564
-0.00313293
-0.00282386
-0.00262116
-0.00254646
-0.0607445
-0.0553933
-0.0498811
-0.0453267
-0.0409182
-0.0370223
-0.0333908
-0.0300647
-0.0269925
-0.0241589
-0.0215433
-0.0191272
-0.016903
-0.0148764
-0.0129811
-0.01125
-0.00966696
-0.00822466
-0.00691672
-0.00573748
-0.00468193
-0.00374575
-0.00292522
-0.00221718
-0.00161901
-0.00112842
-0.000744278
-0.000465765
-0.000284513
-0.000230753
-0.0504448
-0.046387
-0.0414876
-0.0378584
-0.0339957
-0.0306425
-0.0274741
-0.0245645
-0.0218632
-0.019361
-0.017042
-0.0148929
-0.0129097
-0.0110911
-0.00939386
-0.00783436
-0.00640544
-0.00510096
-0.00391605
-0.0028463
-0.00188785
-0.0010373
-0.000291774
0.000351182
0.000893616
0.00133724
0.00168265
0.00193119
0.00208897
0.00212524
-0.0400376
-0.0372153
-0.033092
-0.0301698
-0.0269619
-0.0241514
-0.0214696
-0.0189863
-0.0166649
-0.014501
-0.0124842
-0.0106067
-0.00886594
-0.00725699
-0.0057584
-0.00437416
-0.00310168
-0.00193697
-0.000876624
8.23739e-05
0.000942748
0.00170688
0.00237682
0.00295428
0.00344069
0.00383719
0.00414395
0.00436258
0.00449657
0.00451742
-0.0295052
-0.0278047
-0.0245699
-0.0223394
-0.0198086
-0.0175574
-0.0153754
-0.0133292
-0.0113967
-0.00957846
-0.00787028
-0.00626918
-0.00477423
-0.00338132
-0.00208181
-0.000875323
0.000238632
0.00126191
0.0021963
0.00304346
0.00380489
0.00448197
0.00507585
0.0055875
0.00601774
0.00636709
0.00663541
0.0068242
0.0069349
0.00694158
-0.0188406
-0.0182123
-0.0158919
-0.0143914
-0.0125386
-0.0108628
-0.00919204
-0.00759493
-0.00606127
-0.00459754
-0.00320508
-0.00188561
-0.000640847
0.000530077
0.00162903
0.00265583
0.00360953
0.00448996
0.00529727
0.00603168
0.00669349
0.00728301
0.0078005
0.00824617
0.0086202
0.00892253
0.00915269
0.00931195
0.00940011
0.00939369
-0.00802926
-0.00847391
-0.00706047
-0.00632607
-0.00515563
-0.00407205
-0.00292689
-0.00179266
-0.000669047
0.00043156
0.00150184
0.00253508
0.00352582
0.00447078
0.00536733
0.006213
0.00700511
0.00774159
0.0084209
0.00904185
0.0096035
0.0101051
0.010546
0.0109256
0.0112435
0.0114991
0.0116915
0.0118217
0.0118881
0.0118698
0.002936
0.00140296
0.00191558
0.00185699
0.00232622
0.00279708
0.00339925
0.0040579
0.00476301
0.00549496
0.00623936
0.00698374
0.00771808
0.00843472
0.00912735
0.00979072
0.0104201
0.0110117
0.0115622
0.012069
0.01253
0.0129434
0.0133075
0.0136211
0.0138831
0.0140922
0.0142474
0.0143492
0.0143949
0.0143661
0.0140583
0.0114184
0.0110145
0.0101329
0.0098719
0.00971221
0.0097614
0.00994035
0.0102255
0.0105878
0.0110052
0.0114591
0.0119349
0.0124208
0.0129074
0.0133866
0.0138516
0.0142968
0.0147174
0.0151092
0.0154689
0.0157935
0.0160807
0.0163283
0.0165345
0.0166976
0.0168161
0.0168903
0.0169162
0.0168786
0.0253265
0.0215511
0.0201897
0.0184636
0.0174584
0.0166707
0.0161725
0.0158757
0.0157411
0.015731
0.0158164
0.015974
0.0161852
0.0164349
0.0167105
0.0170014
0.0172989
0.0175951
0.0178836
0.0181589
0.0184162
0.0186515
0.0188614
0.0190429
0.0191936
0.0193111
0.0193936
0.0194409
0.0194481
0.0194034
0.0367041
0.0317604
0.0294192
0.0268752
0.0251493
0.0237524
0.0227108
0.02193
0.0213608
0.0209609
0.0206975
0.0205439
0.020478
0.0204811
0.0205376
0.0206342
0.0207592
0.020903
0.0210569
0.0212139
0.0213677
0.021513
0.0216453
0.0217607
0.021856
0.0219284
0.0219757
0.021997
0.0219868
0.0219369
0.0481549
0.0420675
0.0387968
0.0355042
0.033078
0.0310581
0.0294379
0.028132
0.0270904
0.0262697
0.0256337
0.025151
0.0247948
0.024542
0.024373
0.0242706
0.0242204
0.0242098
0.0242282
0.0242663
0.0243163
0.0243716
0.0244265
0.0244763
0.0245169
0.0245449
0.0245578
0.0245542
0.0245278
0.0244747
0.0597105
0.0526061
0.0484423
0.0443951
0.0412008
0.0384783
0.0362131
0.0343359
0.0327948
0.0315395
0.0305255
0.0297135
0.0290697
0.0285651
0.028175
0.0278782
0.0276568
0.0274954
0.0273811
0.0273028
0.0272512
0.0272182
0.0271973
0.0271828
0.02717
0.0271549
0.0271348
0.0271075
0.0270667
0.0270122
0.0714164
0.0633619
0.0581252
0.0531602
0.0490721
0.0455882
0.0426728
0.0402491
0.0382455
0.0365953
0.0352406
0.0341321
0.0332285
0.032495
0.0319022
0.0314256
0.0310443
0.030741
0.0305008
0.0303112
0.0301619
0.0300439
0.0299497
0.0298731
0.0298088
0.0297524
0.0297009
0.0296516
0.0295982
0.0295447
0.083025
0.0738244
0.0672036
0.0612153
0.0562715
0.0521296
0.0486826
0.0458171
0.043436
0.0414568
0.0398113
0.0384435
0.0373071
0.0363638
0.0355818
0.0349345
0.0343996
0.0339583
0.033595
0.0332962
0.0330507
0.0328489
0.0326827
0.0325451
0.0324305
0.0323341
0.0322525
0.0321826
0.0321189
0.0320683
0.0940417
0.0836725
0.0758193
0.0690654
0.0635113
0.0588701
0.0549738
0.0516931
0.0489276
0.0465942
0.0446241
0.04296
0.0415545
0.0403677
0.0393662
0.0385221
0.0378116
0.0372145
0.0367137
0.0362944
0.0359442
0.0356522
0.0354093
0.0352078
0.035041
0.0349037
0.0347917
0.0347014
0.0346287
0.0345824
0.104867
0.0944167
0.0860581
0.0788242
0.0726816
0.0674061
0.0628559
0.0589348
0.0555663
0.0526792
0.0502087
0.0480971
0.0462944
0.0447576
0.0434495
0.0423379
0.0413953
0.0405976
0.0399242
0.0393573
0.0388816
0.0384837
0.0381526
0.0378785
0.0376535
0.0374711
0.0373262
0.0372143
0.0371325
0.0370895
0.116812
0.107711
0.0991203
0.091163
0.0840532
0.0777597
0.0722194
0.0673761
0.0631707
0.059537
0.0564075
0.0537192
0.0514149
0.0494441
0.0477621
0.0463297
0.0451126
0.044081
0.043209
0.042474
0.0418568
0.0413407
0.0409117
0.040558
0.0402696
0.0400385
0.0398582
0.0397234
0.0396314
0.0395883
0.127384
0.118783
0.1096
0.100797
0.0928117
0.0857192
0.0794771
0.0740154
0.0692609
0.0651387
0.0615758
0.0585039
0.0558609
0.0535916
0.0516471
0.0499842
0.0485653
0.0473573
0.0463318
0.0454638
0.0447322
0.0441185
0.0436074
0.0431857
0.0428427
0.0425694
0.0423588
0.0422052
0.0421051
0.0420606
0.143279
0.13194
0.121551
0.111936
0.103359
0.095854
0.0893215
0.0836167
0.0786252
0.0742589
0.0704439
0.0671144
0.0642116
0.0616837
0.0594849
0.0575749
0.0559187
0.0544853
0.053248
0.0521834
0.0512713
0.0504944
0.0498379
0.0492891
0.0488376
0.0484746
0.0481932
0.0479878
0.0478544
0.0477895
0.158833
0.145408
0.13458
0.125159
0.116773
0.109301
0.102667
0.0967834
0.0915634
0.0869314
0.0828237
0.0791843
0.075963
0.0731146
0.0705989
0.0683801
0.0664267
0.0647106
0.0632074
0.0618956
0.0607562
0.0597731
0.058932
0.0582211
0.05763
0.0571502
0.056775
0.056499
0.0563181
0.0562298
0.16355
0.153145
0.143635
0.134974
0.127091
0.119935
0.113467
0.107641
0.102403
0.0976956
0.093469
0.0896772
0.0862793
0.0832382
0.0805207
0.0780967
0.0759392
0.0740241
0.0723299
0.0708374
0.0695297
0.0683921
0.0674115
0.0665768
0.0658785
0.0653085
0.0648603
0.0645288
0.06431
0.0642007
0.165547
0.156628
0.14828
0.140557
0.133464
0.126957
0.12099
0.115529
0.110544
0.106001
0.101869
0.0981172
0.094718
0.0916441
0.0888703
0.0863732
0.0841314
0.0821252
0.0803367
0.07875
0.0773505
0.0761256
0.075064
0.0741558
0.0733927
0.0727675
0.0722744
0.0719087
0.071667
0.0715474
0.164177
0.157198
0.150416
0.143929
0.137795
0.132034
0.126652
0.121648
0.117014
0.112739
0.108806
0.105197
0.101894
0.0988787
0.0961332
0.0936408
0.0913854
0.0893522
0.0875273
0.0858979
0.0844525
0.0831806
0.0820731
0.0811215
0.0803189
0.0796592
0.0791374
0.0787494
0.0784923
0.0783637
0.162558
0.156719
0.150977
0.145417
0.140104
0.135063
0.130304
0.12583
0.121641
0.117732
0.114096
0.110727
0.107614
0.104748
0.102116
0.0997094
0.0975161
0.0955258
0.0937286
0.092115
0.0906764
0.0894046
0.0882925
0.0873336
0.0865222
0.0858534
0.0853233
0.0849286
0.0846668
0.0845368
0.15983
0.155153
0.150473
0.145875
0.1414
0.137079
0.132934
0.128985
0.125241
0.121709
0.118393
0.115291
0.112401
0.109718
0.107236
0.104951
0.102854
0.10094
0.099202