/*--------------------------------*- C++ -*----------------------------------*\
  =========                 |
  \\      /  F ield         | OpenFOAM: The Open Source CFD Toolbox
   \\    /   O peration     | Website:  https://openfoam.org
    \\  /    A nd           | Version:  7
     \\/     M anipulation  |
\*---------------------------------------------------------------------------*/
FoamFile
{
    version     2.0;
    format      ascii;
    class       volVectorField;
    location    "25";
    object      U;
}
// * * * * * * * * * * * * * * * * * * * * * * * * * * * * * * * * * * * * * //

dimensions      [0 1 -1 0 0 0 0];

internalField   nonuniform List<vector> 
1360
(
(0.894775 0.0393841 0)
(0.954098 0.0381118 0)
(1.00707 0.0360412 6.41782e-12)
(1.0525 0.0334017 -6.41782e-12)
(1.08993 0.0304512 0)
(1.11951 0.0274031 0)
(1.14192 0.0244201 0)
(1.1581 0.0216092 0)
(1.16919 0.0190257 -3.1254e-28)
(1.17629 0.0166838 3.1254e-28)
(1.18042 0.0145692 -3.23802e-28)
(1.18245 0.0126515 3.23802e-28)
(1.18308 0.0108943 -8.01119e-12)
(1.18284 0.00926147 8.01119e-12)
(1.18214 0.00772127 0)
(1.18125 0.00624766 0)
(1.18037 0.00482035 8.26317e-12)
(1.17962 0.00342406 -8.26317e-12)
(1.17907 0.00204734 -3.82876e-28)
(1.17879 0.000681324 3.853e-28)
(0.89442 0.0388086 0)
(0.953266 0.0375755 0)
(1.00589 0.0355531 7.06758e-29)
(1.0511 0.0329663 -7.06758e-29)
(1.08842 0.0300681 0)
(1.118 0.0270683 0)
(1.14046 0.0241277 0)
(1.15675 0.0213529 0)
(1.16795 0.0187998 6.30044e-28)
(1.17516 0.0164837 -6.30044e-28)
(1.1794 0.0143916 6.5342e-28)
(1.18152 0.0124944 -6.5342e-28)
(1.18222 0.0107565 -1.55453e-11)
(1.18204 0.00914251 1.55453e-11)
(1.18138 0.00762084 0)
(1.18052 0.00616563 0)
(1.17966 0.00475666 8.0256e-12)
(1.17892 0.00337864 -8.0256e-12)
(1.17838 0.00202012 5.13373e-28)
(1.17811 0.000672257 -5.16623e-28)
(0.894082 0.0382434 0)
(0.952455 0.0370482 0)
(1.00473 0.0350727 0)
(1.04972 0.0325371 0)
(1.08694 0.0296897 0)
(1.1165 0.026737 0)
(1.13902 0.023838 0)
(1.1554 0.0210987 0)
(1.16672 0.0185754 -2.93e-28)
(1.17405 0.0162846 2.93e-28)
(1.17839 0.0142147 0)
(1.1806 0.0123378 0)
(1.18138 0.0106191 -1.50764e-11)
(1.18125 0.00902366 1.50764e-11)
(1.18063 0.00752039 3.1929e-28)
(1.1798 0.00608351 -3.1929e-28)
(1.17896 0.00469284 0)
(1.17823 0.0033331 0)
(1.1777 0.00199282 -3.61175e-28)
(1.17743 0.000663159 3.63462e-28)
(0.893758 0.0376884 0)
(0.951665 0.0365301 0)
(1.0036 0.0346 0)
(1.04837 0.0321142 0)
(1.08548 0.0293163 0)
(1.11503 0.0264097 0)
(1.1376 0.0235514 0)
(1.15408 0.0208467 0)
(1.16551 0.0183527 0)
(1.17295 0.0160869 0)
(1.1774 0.0140389 -6.13338e-28)
(1.1797 0.012182 6.13338e-28)
(1.18054 0.0104822 -1.46155e-11)
(1.18047 0.00890515 1.46155e-11)
(1.17989 0.00742012 -6.44719e-28)
(1.17909 0.00600147 6.44719e-28)
(1.17826 0.00462905 -6.53352e-28)
(1.17755 0.00328754 6.53352e-28)
(1.17703 0.00196549 4.83854e-28)
(1.17676 0.000654053 -4.86917e-28)
(0.89345 0.0371436 0)
(0.950896 0.0360212 0)
(1.00249 0.0341353 1.26296e-29)
(1.04704 0.0316979 -1.26296e-29)
(1.08404 0.0289482 0)
(1.11358 0.0260866 0)
(1.1362 0.023268 -2.89651e-28)
(1.15277 0.0205974 2.89651e-28)
(1.16431 0.0181322 0)
(1.17187 0.0158909 0)
(1.17642 0.0138645 0)
(1.1788 0.0120272 0)
(1.17972 0.010346 -1.41626e-11)
(1.1797 0.00878723 1.41626e-11)
(1.17916 0.00732028 0)
(1.17839 0.00591971 0)
(1.17758 0.00456541 7.33401e-12)
(1.17688 0.00324207 -7.33401e-12)
(1.17637 0.00193821 0)
(1.1761 0.000644959 0)
(0.893156 0.0366091 -2.06519e-28)
(0.950147 0.0355215 2.06796e-28)
(1.0014 0.0336785 -1.21664e-29)
(1.04574 0.0312882 1.21664e-29)
(1.08263 0.0285857 0)
(1.11215 0.0257679 0)
(1.13482 0.0229882 2.79747e-28)
(1.15148 0.020351 -2.79747e-28)
(1.16312 0.017914 -6.38825e-12)
(1.17079 0.0156969 6.38825e-12)
(1.17544 0.0136917 0)
(1.17791 0.0118738 0)
(1.1789 0.010211 -1.37176e-11)
(1.17894 0.00867012 1.37176e-11)
(1.17844 0.00722104 2.91034e-28)
(1.17769 0.00583838 -2.91034e-28)
(1.17691 0.00450207 1.4221e-11)
(1.17622 0.00319679 -1.4221e-11)
(1.17571 0.00191103 -3.298e-28)
(1.17545 0.000635898 3.31888e-28)
(0.892876 0.0360847 4.13419e-28)
(0.949417 0.035031 -4.13973e-28)
(1.00034 0.0332298 0)
(1.04446 0.0308855 0)
(1.08125 0.0282288 0)
(1.11074 0.025454 0)
(1.13345 0.0227123 -3.72753e-28)
(1.1502 0.0201078 3.72753e-28)
(1.16195 0.0176986 -6.17405e-12)
(1.16973 0.0155052 6.17405e-12)
(1.17448 0.0135208 0)
(1.17704 0.0117219 0)
(1.17809 0.0100772 -6.6402e-12)
(1.17819 0.00855404 6.6402e-12)
(1.17773 0.00712259 -5.86852e-28)
(1.17701 0.00575764 5.86852e-28)
(1.17624 0.00443916 6.89043e-12)
(1.17556 0.00315179 -6.89043e-12)
(1.17507 0.00188401 0)
(1.17481 0.000626888 0)
(0.892609 0.0355705 0)
(0.948706 0.0345498 0)
(0.9993 0.0327893 0)
(1.04321 0.0304897 0)
(1.07988 0.0278779 0)
(1.10935 0.0251449 0)
(1.13211 0.0224405 2.60602e-28)
(1.14893 0.019868 -2.60602e-28)
(1.16079 0.017486 0)
(1.16867 0.0153159 0)
(1.17352 0.013352 0)
(1.17617 0.0115718 0)
(1.17729 0.00994491 0)
(1.17744 0.00843918 0)
(1.17702 0.0070251 0)
(1.17633 0.00567764 0)
(1.17559 0.00437678 2.77037e-28)
(1.17492 0.00310716 -2.77037e-28)
(1.17443 0.0018572 0)
(1.17418 0.000617946 0)
(0.892356 0.0350663 0)
(0.948014 0.0340778 0)
(0.998281 0.0323569 0)
(1.04197 0.030101 0)
(1.07854 0.0275329 0)
(1.10799 0.0248409 0)
(1.13078 0.022173 0)
(1.14769 0.0196319 0)
(1.15964 0.0172766 -4.97623e-28)
(1.16763 0.0151294 4.97623e-28)
(1.17258 0.0131856 0)
(1.17531 0.0114238 0)
(1.17651 0.00981432 0)
(1.17671 0.00832572 0)
(1.17633 0.00692874 0)
(1.17567 0.00559851 0)
(1.17494 0.00431504 0)
(1.17429 0.00306296 0)
(1.17381 0.00183064 4.1383e-28)
(1.17356 0.000609089 -4.1645e-28)
(0.892115 0.0345722 0)
(0.947339 0.0336151 0)
(0.997282 0.0319328 0)
(1.04076 0.0297195 0)
(1.07722 0.0271941 0)
(1.10664 0.0245421 0)
(1.12947 0.0219099 0)
(1.14645 0.0193997 0)
(1.15851 0.0170706 0)
(1.1666 0.0149458 0)
(1.17165 0.0130217 0)
(1.17446 0.0112779 0)
(1.17572 0.00968562 0)
(1.17598 0.00821383 0)
(1.17564 0.00683366 0)
(1.17501 0.00552038 0)
(1.1743 0.00425406 -2.59478e-28)
(1.17366 0.00301929 2.59478e-28)
(1.17319 0.00180439 -2.90142e-28)
(1.17294 0.000600331 2.91979e-28)
(0.891887 0.034088 -3.51839e-28)
(0.946682 0.0331616 3.52303e-28)
(0.996304 0.0315169 0)
(1.03957 0.0293451 0)
(1.07591 0.0268615 0)
(1.10531 0.0242487 0)
(1.12817 0.0216515 0)
(1.14523 0.0191715 0)
(1.15739 0.0168681 -5.36051e-12)
(1.16558 0.0147653 5.36051e-12)
(1.17072 0.0128606 0)
(1.17362 0.0111345 0)
(1.17495 0.00955898 0)
(1.17526 0.00810367 0)
(1.17496 0.00673999 5.14047e-28)
(1.17436 0.00544337 -5.14047e-28)
(1.17367 0.00419392 6.04438e-12)
(1.17305 0.0029762 -6.04438e-12)
(1.17258 0.00177849 3.87304e-28)
(1.17234 0.000591687 -3.89756e-28)
(0.891672 0.0336137 1.62107e-28)
(0.946042 0.0327171 -1.6232e-28)
(0.995345 0.0311092 0)
(1.0384 0.0289781 0)
(1.07463 0.0265352 0)
(1.104 0.0239608 0)
(1.12689 0.0213979 0)
(1.14403 0.0189475 0)
(1.15628 0.0166693 -1.03349e-11)
(1.16457 0.0145881 1.03349e-11)
(1.16981 0.0127024 0)
(1.17279 0.0109936 0)
(1.17419 0.00943455 -5.60365e-12)
(1.17455 0.00799538 5.60365e-12)
(1.17429 0.00664786 -2.38561e-28)
(1.17372 0.00536759 2.38561e-28)
(1.17305 0.00413471 1.16825e-11)
(1.17244 0.00293376 -1.16825e-11)
(1.17198 0.00175297 -2.71224e-28)
(1.17174 0.000583171 2.72941e-28)
(0.891468 0.0331492 2.67939e-29)
(0.945418 0.0322818 -2.68289e-29)
(0.994406 0.0307098 -1.45307e-28)
(1.03725 0.0286184 1.45307e-28)
(1.07337 0.0262154 0)
(1.1027 0.0236785 0)
(1.12563 0.0211492 0)
(1.14284 0.0187279 0)
(1.15518 0.0164745 -4.97832e-12)
(1.16357 0.0144144 4.97832e-12)
(1.1689 0.0125473 0)
(1.17196 0.0108555 0)
(1.17343 0.00931249 -1.08144e-11)
(1.17385 0.0078891 1.08144e-11)
(1.17363 0.00655741 0)
(1.17308 0.00529315 0)
(1.17244 0.00407652 5.64134e-12)
(1.17184 0.00289204 -5.64134e-12)
(1.17139 0.00172787 0)
(1.17115 0.000574795 0)
(0.891275 0.0326943 1.73259e-28)
(0.944811 0.0318555 -1.73484e-28)
(0.993486 0.0303186 -1.03798e-28)
(1.03612 0.028266 1.03798e-28)
(1.07213 0.0259021 0)
(1.10143 0.023402 0)
(1.12439 0.0209056 0)
(1.14166 0.0185128 0)
(1.15409 0.0162836 0)
(1.16258 0.0142443 0)
(1.168 0.0123954 0)
(1.17115 0.0107202 0)
(1.17268 0.00919293 -1.04285e-11)
(1.17315 0.00778497 1.04285e-11)
(1.17298 0.00646874 0)
(1.17246 0.00522014 0)
(1.17183 0.00401943 2.63143e-28)
(1.17125 0.00285109 -2.63143e-28)
(1.17081 0.00170323 8.18273e-29)
(1.17057 0.000566571 -8.23454e-29)
(0.891094 0.032249 0)
(0.94422 0.0314382 0)
(0.992585 0.0299356 0)
(1.03501 0.027921 0)
(1.07091 0.0255954 0)
(1.10017 0.0231313 0)
(1.12315 0.0206672 0)
(1.14049 0.0183023 0)
(1.15301 0.0160969 3.30115e-29)
(1.1616 0.014078 -3.30115e-29)
(1.16711 0.0122469 0)
(1.17034 0.0105879 0)
(1.17194 0.00907601 -1.00494e-11)
(1.17247 0.0076831 1.00494e-11)
(1.17233 0.00638196 0)
(1.17184 0.00514867 0)
(1.17124 0.00396351 0)
(1.17066 0.00281097 0)
(1.17023 0.00167909 0)
(1.17 0.00055851 0)
(0.890924 0.0318131 -2.8348e-28)
(0.943644 0.0310297 2.83845e-28)
(0.991702 0.0295607 0)
(1.03392 0.0275834 0)
(1.0697 0.0252952 0)
(1.09893 0.0228664 0)
(1.12194 0.020434 0)
(1.13934 0.0180966 0)
(1.15195 0.0159146 0)
(1.16063 0.0139156 0)
(1.16623 0.012102 0)
(1.16954 0.0104588 0)
(1.17121 0.00896185 -9.67691e-12)
(1.17179 0.00758361 9.67691e-12)
(1.17169 0.00629718 0)
(1.17123 0.0050788 0)
(1.17065 0.00390884 0)
(1.17009 0.00277173 0)
(1.16967 0.00165547 0)
(1.16944 0.000550623 0)
(0.890765 0.0313867 1.30102e-28)
(0.943083 0.0306301 -1.30269e-28)
(0.990836 0.029194 7.78609e-30)
(1.03285 0.0272531 -7.78609e-30)
(1.06851 0.0250016 0)
(1.09771 0.0226075 0)
(1.12074 0.0202062 0)
(1.1382 0.0178957 0)
(1.15089 0.0157366 -4.25928e-12)
(1.15967 0.0137572 4.25928e-12)
(1.16536 0.0119606 1.85937e-28)
(1.16875 0.0103329 -1.85937e-28)
(1.17049 0.00885056 -9.31097e-12)
(1.17112 0.0074866 9.31097e-12)
(1.17106 0.00621448 0)
(1.17063 0.00501064 0)
(1.17007 0.00385547 4.87327e-12)
(1.16952 0.00273341 -4.87327e-12)
(1.16911 0.0016324 -2.26464e-28)
(1.16888 0.00054292 2.27898e-28)
(0.890617 0.0309694 -3.02724e-28)
(0.942537 0.0302391 0)
(0.989988 0.0288353 -2.71247e-28)
(1.0318 0.0269302 3.29859e-28)
(1.06735 0.0247148 -3.83219e-28)
(1.0965 0.0223546 -3.76364e-28)
(1.11955 0.0199838 3.40503e-28)
(1.13708 0.0176997 3.77256e-28)
(1.14985 0.0155632 -4.08842e-12)
(1.15871 0.0136029 4.08842e-12)
(1.1645 0.011823 0)
(1.16796 0.0102104 3.93653e-28)
(1.16977 0.00874226 -4.4757e-12)
(1.17045 0.00739218 4.4757e-12)
(1.17044 0.00613398 4.14231e-28)
(1.17004 0.00494426 4.48224e-28)
(1.16949 0.00380349 9.3777e-12)
(1.16896 0.00269608 -9.3777e-12)
(1.16855 0.00160991 7.28549e-28)
(1.16834 0.000535412 -3.02695e-28)
(0.890479 0.0305613 3.02727e-28)
(0.942006 0.0298568 0)
(0.989157 0.0284847 3.0857e-28)
(1.03076 0.0266146 -3.67182e-28)
(1.0662 0.0244346 3.83219e-28)
(1.09531 0.0221078 3.76364e-28)
(1.11838 0.019767 -3.40503e-28)
(1.13596 0.0175088 -3.77256e-28)
(1.14882 0.0153943 3.3881e-28)
(1.15777 0.0134529 -3.3881e-28)
(1.16364 0.0116893 0)
(1.16719 0.0100913 -3.93653e-28)
(1.16906 0.00863704 -4.29433e-28)
(1.1698 0.00730045 0)
(1.16982 0.00605574 -4.14231e-28)
(1.16945 0.00487972 -4.48224e-28)
(1.16893 0.00375293 4.50734e-12)
(1.16841 0.00265976 -4.50734e-12)
(1.16801 0.00158804 -4.27759e-28)
(1.1678 0.000528106 0)
(0.890351 0.0301621 0)
(0.941489 0.0294831 0)
(0.988343 0.028142 0)
(1.02975 0.0263064 0)
(1.06506 0.0241611 0)
(1.09414 0.0218671 0)
(1.11722 0.0195557 0)
(1.13486 0.0173231 0)
(1.14779 0.0152302 -1.55946e-28)
(1.15683 0.0133072 1.55946e-28)
(1.16279 0.0115595 0)
(1.16642 0.0099759 0)
(1.16835 0.00853502 0)
(1.16914 0.00721149 0)
(1.16921 0.00597985 0)
(1.16887 0.00481712 0)
(1.16837 0.00370387 4.32868e-12)
(1.16787 0.00262451 -4.32868e-12)
(1.16747 0.0015668 0)
(1.16726 0.000521012 0)
(0.890233 0.0297719 0)
(0.940986 0.0291178 0)
(0.987546 0.0278073 0)
(1.02875 0.0260055 0)
(1.06394 0.0238943 0)
(1.09298 0.0216325 0)
(1.11607 0.0193501 0)
(1.13377 0.0171425 0)
(1.14678 0.0150709 3.10713e-28)
(1.15591 0.0131659 -3.10713e-28)
(1.16195 0.0114338 0)
(1.16565 0.00986414 0)
(1.16766 0.00843627 0)
(1.1685 0.00712539 0)
(1.16861 0.00590641 3.52034e-28)
(1.1683 0.0047565 -3.52034e-28)
(1.16782 0.00365636 4.15279e-12)
(1.16733 0.00259037 -4.15279e-12)
(1.16694 0.00154623 -2.66521e-28)
(1.16674 0.000514139 2.68209e-28)
(0.890125 0.0293904 0)
(0.940497 0.0287608 0)
(0.986764 0.0274804 0)
(1.02776 0.0257119 0)
(1.06285 0.0236342 1.22903e-28)
(1.09183 0.0214042 -1.22903e-28)
(1.11494 0.0191502 0)
(1.13269 0.0169672 0)
(1.14578 0.0149165 -1.42712e-28)
(1.15499 0.0130292 1.42712e-28)
(1.16112 0.0113123 -1.50747e-28)
(1.1649 0.00975615 1.50747e-28)
(1.16697 0.00834091 0)
(1.16786 0.00704225 0)
(1.16801 0.00583547 0)
(1.16773 0.00469795 0)
(1.16727 0.00361045 0)
(1.1668 0.00255736 0)
(1.16642 0.00152634 0)
(1.16622 0.000507494 0)
(0.890026 0.0290175 0)
(0.940021 0.0284121 0)
(0.985999 0.0271612 0)
(1.0268 0.0254255 0)
(1.06176 0.0233809 -2.4366e-28)
(1.0907 0.021182 2.4366e-28)
(1.11383 0.018956 0)
(1.13162 0.0167973 0)
(1.14479 0.0147671 2.83696e-28)
(1.15408 0.0128971 -2.83696e-28)
(1.16029 0.011195 0)
(1.16415 0.00965204 0)
(1.16628 0.008249 0)
(1.16723 0.00696215 0)
(1.16742 0.00576712 -3.2271e-28)
(1.16717 0.00464153 3.2271e-28)
(1.16673 0.00356621 3.80907e-12)
(1.16627 0.00252555 -3.80907e-12)
(1.16591 0.00150716 2.4453e-28)
(1.16571 0.000501086 -2.46078e-28)
(0.889938 0.0286532 0)
(0.93956 0.0280716 0)
(0.985249 0.0268498 0)
(1.02585 0.0251464 0)
(1.06069 0.0231342 0)
(1.08959 0.0209661 0)
(1.11272 0.0187676 -1.34401e-28)
(1.13057 0.0166328 1.34401e-28)
(1.1438 0.0146227 0)
(1.15318 0.0127696 0)
(1.15947 0.0110821 0)
(1.1634 0.00955189 0)
(1.1656 0.00816065 -1.43619e-28)
(1.1666 0.00688516 1.43619e-28)
(1.16683 0.00570143 0)
(1.16662 0.00458729 0)
(1.1662 0.00352367 7.28217e-12)
(1.16575 0.00249495 -7.28217e-12)
(1.1654 0.00148871 -1.69376e-28)
(1.1652 0.000494922 1.70448e-28)
(0.889858 0.0282972 0)
(0.939111 0.0277391 0)
(0.984515 0.0265461 2.31132e-12)
(1.02491 0.0248744 -2.31132e-12)
(1.05964 0.0228943 0)
(1.08849 0.0207564 0)
(1.11163 0.0185852 1.2785e-28)
(1.12952 0.0164738 -1.2785e-28)
(1.14283 0.0144835 -1.23797e-28)
(1.15229 0.012647 1.23797e-28)
(1.15866 0.0109736 0)
(1.16267 0.00945579 0)
(1.16493 0.00807595 0)
(1.16598 0.00681138 0)
(1.16625 0.00563849 0)
(1.16607 0.00453531 0)
(1.16567 0.00348288 3.47558e-12)
(1.16524 0.00246562 -3.47558e-12)
(1.16489 0.00147103 0)
(1.1647 0.00048901 0)
(0.889788 0.0279494 0)
(0.938675 0.0274146 0)
(0.983796 0.02625 2.1867e-12)
(1.024 0.0246096 -2.1867e-12)
(1.05861 0.0226612 0)
(1.0874 0.0205531 0)
(1.11055 0.0184086 -1.67605e-28)
(1.12849 0.0163203 1.67605e-28)
(1.14186 0.0143495 0)
(1.1514 0.0125293 0)
(1.15786 0.0108696 0)
(1.16194 0.00936383 0)
(1.16426 0.00799497 -3.14321e-12)
(1.16537 0.00674088 3.14321e-12)
(1.16568 0.00557834 2.80412e-28)
(1.16552 0.00448564 -2.80412e-28)
(1.16515 0.00344391 3.31248e-12)
(1.16473 0.00243758 -3.31248e-12)
(1.16439 0.00145412 0)
(1.16421 0.000483358 0)
(0.889727 0.0276098 0)
(0.938252 0.0270979 0)
(0.983092 0.0259613 4.70132e-30)
(1.0231 0.024352 -4.70132e-30)
(1.05759 0.0224347 0)
(1.08633 0.0203561 0)
(1.10948 0.018238 1.15145e-28)
(1.12747 0.0161725 -1.15145e-28)
(1.14091 0.0142208 1.11775e-28)
(1.15052 0.0124165 -1.11775e-28)
(1.15706 0.0107702 0)
(1.16121 0.00927612 0)
(1.1636 0.0079178 -5.97739e-12)
(1.16476 0.00667374 5.97739e-12)
(1.16511 0.00552108 -1.28138e-28)
(1.16498 0.00443835 1.28138e-28)
(1.16463 0.0034068 6.3034e-12)
(1.16423 0.00241087 -6.3034e-12)
(1.1639 0.00143801 1.46664e-28)
(1.16372 0.000477974 -1.47593e-28)
(0.889676 0.0272781 -1.50214e-28)
(0.937842 0.026789 1.50393e-28)
(0.982403 0.0256802 2.22136e-29)
(1.02221 0.0241014 -2.22136e-29)
(1.05658 0.022215 0)
(1.08528 0.0201655 0)
(1.10843 0.0180735 -1.50421e-28)
(1.12645 0.0160304 1.50421e-28)
(1.13996 0.0140975 -2.20506e-28)
(1.14965 0.0123088 2.20506e-28)
(1.15627 0.0106756 0)
(1.16049 0.00919273 0)
(1.16294 0.00784455 -5.67318e-12)
(1.16415 0.00661005 5.67318e-12)
(1.16455 0.00546678 0)
(1.16445 0.00439351 0)
(1.16412 0.0033716 2.99316e-12)
(1.16373 0.00238553 -2.99316e-12)
(1.16341 0.00142272 0)
(1.16324 0.000472864 0)
(0.889633 0.0269542 6.76091e-29)
(0.937445 0.0264877 -6.76889e-29)
(0.981729 0.0254064 0)
(1.02134 0.023858 0)
(1.05559 0.0220021 0)
(1.08424 0.0199813 0)
(1.10739 0.0179151 1.02944e-28)
(1.12545 0.0158941 -1.02944e-28)
(1.13902 0.0139797 1.00191e-28)
(1.14879 0.0122063 -1.00191e-28)
(1.15548 0.0105858 0)
(1.15977 0.00911377 0)
(1.16229 0.00777529 -2.68681e-12)
(1.16355 0.00654988 2.68681e-12)
(1.16399 0.0054155 0)
(1.16392 0.00435116 0)
(1.16361 0.00333836 0)
(1.16324 0.0023616 0)
(1.16293 0.00140828 -1.32037e-28)
(1.16276 0.000468036 1.32873e-28)
(0.8896 0.0266381 -1.31483e-28)
(0.93706 0.026194 1.31637e-28)
(0.981069 0.02514 0)
(1.02048 0.0236216 0)
(1.05462 0.0217959 0)
(1.08321 0.0198036 0)
(1.10636 0.0177628 0)
(1.12446 0.0157637 0)
(1.13809 0.0138675 0)
(1.14793 0.012109 0)
(1.1547 0.0105009 0)
(1.15906 0.00903934 0)
(1.16164 0.00771013 -2.53928e-12)
(1.16296 0.00649333 2.53928e-12)
(1.16343 0.00536733 0)
(1.1634 0.00431139 0)
(1.16311 0.00330713 -2.31791e-28)
(1.16276 0.00233911 2.31791e-28)
(1.16245 0.00139471 0)
(1.16229 0.000463497 0)
(0.889576 0.0263294 5.88223e-29)
(0.936688 0.0259077 -5.88905e-29)
(0.980424 0.0248808 3.65403e-30)
(1.01964 0.0233923 -3.65403e-30)
(1.05366 0.0215965 0)
(1.08219 0.0196324 0)
(1.10534 0.0176168 0)
(1.12348 0.0156392 0)
(1.13717 0.013761 -8.90221e-29)
(1.14708 0.0120172 8.90221e-29)
(1.15392 0.010421 0)
(1.15836 0.00896954 0)
(1.161 0.00764915 -4.78781e-12)
(1.16237 0.00644049 4.78781e-12)
(1.16288 0.00532234 0)
(1.16288 0.00427424 0)
(1.16261 0.00327796 2.53009e-12)
(1.16227 0.0023181 -2.53009e-12)
(1.16198 0.00138202 0)
(1.16182 0.000459256 0)
(0.88956 0.0260282 0)
(0.936328 0.0256288 0)
(0.979793 0.0246288 -3.40707e-30)
(1.01882 0.0231699 3.40707e-30)
(1.05271 0.0214039 0)
(1.08119 0.0194678 0)
(1.10433 0.0174771 0)
(1.1225 0.0155209 0)
(1.13625 0.0136603 0)
(1.14624 0.0119308 0)
(1.15315 0.0103463 0)
(1.15766 0.00890448 0)
(1.16036 0.00759246 -2.2506e-12)
(1.16178 0.00639144 2.2506e-12)
(1.16233 0.00528061 0)
(1.16236 0.00423979 0)
(1.16212 0.0032509 4.75924e-12)
(1.16179 0.00229861 -4.75924e-12)
(1.16151 0.00137025 1.10785e-28)
(1.16135 0.000455319 -1.11486e-28)
(0.889554 0.0257342 -1.05015e-28)
(0.935981 0.0253571 1.05134e-28)
(0.979177 0.024384 0)
(1.01801 0.0229547 0)
(1.05178 0.0212182 0)
(1.0802 0.0193099 0)
(1.10334 0.0173439 0)
(1.12154 0.0154087 0)
(1.13535 0.0135655 0)
(1.1454 0.01185 0)
(1.15239 0.0102768 1.73685e-28)
(1.15696 0.00884428 -1.73685e-28)
(1.15973 0.00754018 0)
(1.16119 0.00634628 0)
(1.16179 0.00524223 0)
(1.16185 0.00420811 0)
(1.16163 0.00322602 4.46188e-12)
(1.16132 0.00228067 -4.46188e-12)
(1.16105 0.00135942 -1.43362e-28)
(1.16089 0.000451695 1.4427e-28)
(0.889557 0.0254473 4.64127e-29)
(0.935646 0.0250925 -4.64652e-29)
(0.978575 0.0241464 0)
(1.01721 0.0227464 0)
(1.05086 0.0210394 0)
(1.07923 0.0191587 0)
(1.10236 0.0172172 0)
(1.12059 0.0153029 0)
(1.13445 0.0134768 0)
(1.14457 0.011775 0)
(1.15163 0.0102127 -7.78942e-29)
(1.15627 0.00878906 7.78942e-29)
(1.1591 0.0074924 0)
(1.16061 0.00630511 0)
(1.16125 0.00520727 0)
(1.16134 0.00417926 0)
(1.16114 0.00320335 2.08396e-12)
(1.16085 0.00226433 -2.08396e-12)
(1.16059 0.00134954 9.70274e-29)
(1.16043 0.00044839 -9.76417e-29)
(0.889569 0.0251674 0)
(0.935323 0.024835 0)
(0.977987 0.0239158 0)
(1.01644 0.0225452 0)
(1.04996 0.0208675 0)
(1.07826 0.0190143 0)
(1.10138 0.0170972 0)
(1.11965 0.0152035 0)
(1.13356 0.0133943 1.41204e-28)
(1.14375 0.0117059 -1.41204e-28)
(1.15088 0.0101542 1.50778e-28)
(1.15559 0.00873896 -1.50778e-28)
(1.15847 0.00744925 -1.8322e-12)
(1.16004 0.00626803 1.8322e-12)
(1.16071 0.00517582 1.63872e-28)
(1.16083 0.00415332 -1.63872e-28)
(1.16066 0.00318296 1.93856e-12)
(1.16038 0.00224962 -1.93856e-12)
(1.16013 0.00134065 -1.24577e-28)
(1.15998 0.000445414 1.25366e-28)
(0.88959 0.0248942 0)
(0.935013 0.0245844 0)
(0.977414 0.0236922 0)
(1.01567 0.0223511 0)
(1.04907 0.0207027 0)
(1.07731 0.0188768 0)
(1.10042 0.016984 0)
(1.11871 0.0151108 0)
(1.13268 0.0133181 -6.27583e-29)
(1.14293 0.0116429 6.27583e-29)
(1.15013 0.0101014 0)
(1.1549 0.0086941 0)
(1.15784 0.00741084 -3.39252e-12)
(1.15946 0.00623514 3.39252e-12)
(1.16018 0.00514798 0)
(1.16033 0.00413035 0)
(1.16018 0.0031649 3.58933e-12)
(1.15991 0.00223658 -3.58933e-12)
(1.15967 0.00133276 8.35563e-29)
(1.15953 0.000442772 -8.40853e-29)
(0.88962 0.0246276 0)
(0.934715 0.0243406 0)
(0.976855 0.0234757 0)
(1.01492 0.022164 0)
(1.0482 0.020545 0)
(1.07638 0.0187465 0)
(1.09948 0.0168778 0)
(1.11779 0.0150248 0)
(1.1318 0.0132485 0)
(1.14212 0.0115861 0)
(1.14938 0.0100544 0)
(1.15422 0.00865464 0)
(1.15722 0.00737732 -3.12386e-12)
(1.15889 0.00620657 3.12386e-12)
(1.15964 0.00512383 -6.71026e-29)
(1.15983 0.00411044 6.71026e-29)
(1.1597 0.00314923 1.65216e-12)
(1.15945 0.00222525 -1.65216e-12)
(1.15922 0.0013259 0)
(1.15908 0.000440473 0)
(0.88966 0.0243675 -6.50961e-29)
(0.93443 0.0241036 6.51667e-29)
(0.97631 0.0232662 0)
(1.01418 0.0219842 0)
(1.04734 0.0203946 0)
(1.07546 0.0186234 0)
(1.09854 0.0167787 0)
(1.11687 0.0149459 0)
(1.13093 0.0131857 0)
(1.14131 0.0115357 0)
(1.14864 0.0100134 0)
(1.15354 0.00862074 0)
(1.1566 0.00734882 -2.8582e-12)
(1.15832 0.00618242 2.8582e-12)
(1.15911 0.00510347 0)
(1.15933 0.00409365 0)
(1.15922 0.003136 1.51093e-12)
(1.15899 0.00221567 -1.51093e-12)
(1.15877 0.00132009 0)
(1.15863 0.000438525 0)
(0.88971 0.0241136 2.77387e-29)
(0.934158 0.0238733 -2.77685e-29)
(0.97578 0.0230637 0)
(1.01346 0.0218116 0)
(1.0465 0.0202515 0)
(1.07455 0.0185077 0)
(1.09761 0.016687 0)
(1.11597 0.0148741 0)
(1.13007 0.0131299 0)
(1.14051 0.011492 0)
(1.1479 0.0099787 -5.13264e-29)
(1.15287 0.00859256 5.13264e-29)
(1.15599 0.00732547 -1.29767e-12)
(1.15775 0.00616281 1.29767e-12)
(1.15859 0.005087 0)
(1.15883 0.00408007 0)
(1.15875 0.00312527 2.74175e-12)
(1.15853 0.00220788 -2.74175e-12)
(1.15832 0.00131536 -6.38034e-29)
(1.15819 0.000436934 6.42074e-29)
(0.88977 0.0238658 0)
(0.933899 0.0236497 0)
(0.975265 0.0228683 0)
(1.01276 0.0216464 0)
(1.04567 0.020116 0)
(1.07365 0.0183996 0)
(1.0967 0.0166028 0)
(1.11507 0.0148098 0)
(1.12922 0.0130812 9.00506e-29)
(1.13971 0.0114552 -9.00506e-29)
(1.14717 0.00995039 0)
(1.1522 0.00857029 0)
(1.15537 0.00730745 0)
(1.15718 0.00614788 0)
(1.15806 0.00507452 0)
(1.15833 0.00406976 0)
(1.15827 0.0031171 1.23188e-12)
(1.15807 0.00220192 -1.23188e-12)
(1.15787 0.00131172 0)
(1.15774 0.000435708 0)
(0.889841 0.0236239 0)
(0.933654 0.0234325 0)
(0.974764 0.0226799 0)
(1.01207 0.0214886 0)
(1.04485 0.0199883 0)
(1.07277 0.0182995 0)
(1.09579 0.0165266 0)
(1.11418 0.0147533 0)
(1.12837 0.01304 0)
(1.13892 0.0114254 0)
(1.14644 0.00992873 0)
(1.15153 0.00855411 0)
(1.15476 0.00729489 0)
(1.15662 0.00613774 0)
(1.15753 0.00506612 4.45054e-29)
(1.15784 0.00406281 -4.45054e-29)
(1.1578 0.00311154 -4.54063e-29)
(1.15762 0.00219782 4.54063e-29)
(1.15742 0.00130919 5.08791e-29)
(1.1573 0.000434853 -5.12013e-29)
(0.889922 0.0233877 0)
(0.933422 0.0232219 0)
(0.974279 0.0224987 5.49318e-13)
(1.0114 0.0213386 -5.49318e-13)
(1.04405 0.0198686 0)
(1.07189 0.0182075 0)
(1.0949 0.0164586 0)
(1.1133 0.0147048 0)
(1.12753 0.0130067 -7.06665e-29)
(1.13814 0.0114031 7.06665e-29)
(1.14571 0.00991396 0)
(1.15086 0.00854423 0)
(1.15415 0.00728797 0)
(1.15605 0.00613254 0)
(1.15701 0.00506192 -8.11061e-29)
(1.15734 0.00405929 8.11061e-29)
(1.15733 0.00310864 8.26623e-29)
(1.15716 0.00219563 -8.26623e-29)
(1.15697 0.0013078 -6.13853e-29)
(1.15686 0.000434373 6.1774e-29)
(0.890014 0.0231571 0)
(0.933204 0.0230178 0)
(0.97381 0.0223248 4.68666e-13)
(1.01074 0.0211963 -4.68666e-13)
(1.04326 0.0197571 0)
(1.07104 0.018124 0)
(1.09402 0.0163991 -2.98458e-29)
(1.11243 0.0146647 2.98458e-29)
(1.1267 0.0129814 0)
(1.13736 0.0113884 0)
(1.14499 0.00990633 0)
(1.1502 0.00854086 0)
(1.15354 0.00728687 0)
(1.15549 0.0061324 0)
(1.15648 0.00506201 0)
(1.15685 0.00405928 0)
(1.15686 0.00310846 0)
(1.1567 0.00219536 0)
(1.15653 0.00130756 0)
(1.15642 0.000434274 0)
(0.890119 0.0229321 0)
(0.933001 0.0228201 0)
(0.973356 0.0221583 8.89691e-31)
(1.01009 0.0210623 -8.89691e-31)
(1.04249 0.0196543 0)
(1.07019 0.0180494 0)
(1.09315 0.0163485 0)
(1.11157 0.0146334 0)
(1.12587 0.0129646 0)
(1.13658 0.0113817 0)
(1.14427 0.00990611 0)
(1.14954 0.00854423 0)
(1.15293 0.00729176 0)
(1.15493 0.00613746 0)
(1.15596 0.00506648 0)
(1.15635 0.00406284 0)
(1.15638 0.00311105 -2.84016e-29)
(1.15625 0.00219705 2.84016e-29)
(1.15608 0.00130848 0)
(1.15598 0.000434556 0)
(0.890235 0.0227127 -1.83744e-29)
(0.932813 0.0226292 1.83928e-29)
(0.972919 0.0219995 0)
(1.00947 0.0209366 0)
(1.04174 0.0195604 0)
(1.06936 0.0179841 0)
(1.09229 0.0163073 0)
(1.11072 0.0146113 0)
(1.12505 0.0129566 0)
(1.13581 0.0113834 0)
(1.14355 0.0099136 0)
(1.14888 0.00855457 0)
(1.15232 0.00730281 0)
(1.15436 0.00614785 0)
(1.15543 0.00507545 0)
(1.15586 0.00407004 0)
(1.15591 0.00311644 5.4871e-13)
(1.15579 0.00220073 -5.4871e-13)
(1.15563 0.00131057 3.50944e-29)
(1.15554 0.000435217 -3.53165e-29)
(0.890363 0.0224986 6.0953e-30)
(0.932641 0.0224448 -6.10133e-30)
(0.972502 0.0218484 0)
(1.00886 0.0208199 0)
(1.041 0.0194761 0)
(1.06855 0.0179287 0)
(1.09144 0.0162761 1.66144e-29)
(1.10988 0.014599 -1.66144e-29)
(1.12424 0.012958 1.60468e-29)
(1.13504 0.0113938 -1.60468e-29)
(1.14284 0.00992912 1.66019e-29)
(1.14822 0.00857212 -1.66019e-29)
(1.15171 0.00732022 -4.06862e-13)
(1.1538 0.00616371 4.06862e-13)
(1.15491 0.00508898 0)
(1.15536 0.00408093 0)
(1.15544 0.00312466 4.13441e-13)
(1.15533 0.00220642 -4.13441e-13)
(1.15519 0.00131381 -1.91088e-29)
(1.1551 0.000436229 1.92298e-29)
(0.890513 0.0222889 -7.25121e-30)
(0.932481 0.0222662 7.2583e-30)
(0.972088 0.0217049 0)
(1.00826 0.0207121 0)
(1.04026 0.019402 0)
(1.06773 0.017884 0)
(1.09059 0.0162557 -1.73964e-29)
(1.10903 0.0145974 1.73964e-29)
(1.12342 0.0129697 -2.47092e-29)
(1.13427 0.0114138 2.47092e-29)
(1.14212 0.00995336 -2.4832e-29)
(1.14755 0.00859745 2.4832e-29)
(1.15109 0.00734441 -5.69769e-13)
(1.15323 0.00618535 5.69769e-13)
(1.15437 0.00510731 0)
(1.15486 0.00409566 0)
(1.15496 0.00313582 -2.42438e-29)
(1.15487 0.00221417 2.42438e-29)
(1.15474 0.00131825 0)
(1.15465 0.000437615 0)
(0.890733 0.0221132 1.04633e-30)
(0.93229 0.0221153 -1.04492e-30)
(0.971553 0.0215837 0)
(1.00745 0.0206222 0)
(1.03927 0.0193422 0)
(1.06662 0.0178513 0)
(1.08942 0.0162457 9.0725e-30)
(1.10786 0.0146048 -9.06323e-30)
(1.12228 0.0129893 0)
(1.13318 0.011441 0)
(1.14111 0.00998397 0)
(1.14661 0.00862838 0)
(1.15022 0.00737345 -3.41347e-13)
(1.15242 0.0062111 3.41305e-13)
(1.15362 0.00512903 0)
(1.15415 0.00411311 0)
(1.15428 0.00314905 1.54019e-13)
(1.15421 0.00222347 -1.5402e-13)
(1.15409 0.00132425 6.93782e-30)
(1.15401 0.000439895 -6.98224e-30)
(0.835391 0.040203 -2.44533e-20)
(0.835563 0.0395896 4.24545e-20)
(0.835743 0.0389875 -2.72289e-20)
(0.835931 0.0383969 2.98653e-20)
(0.836128 0.0378175 -4.44968e-20)
(0.836331 0.0372494 1.1906e-20)
(0.836542 0.0366924 3.17331e-20)
(0.83676 0.0361464 -4.10594e-20)
(0.836984 0.0356115 9.70832e-21)
(0.837215 0.0350873 -7.80437e-21)
(0.837451 0.0345738 -1.01242e-21)
(0.837694 0.034071 1.20889e-20)
(0.837942 0.0335786 3.91583e-21)
(0.838196 0.0330965 -7.23514e-21)
(0.838456 0.0326246 -5.17761e-21)
(0.83872 0.0321628 1.09281e-20)
(0.83899 0.0317108 -4.98119e-21)
(0.839265 0.0312686 3.57104e-21)
(0.839545 0.030836 -2.37602e-21)
(0.839829 0.0304129 1.83259e-21)
(0.840119 0.029999 6.47181e-21)
(0.840412 0.0295943 -9.87597e-21)
(0.840711 0.0291986 -4.5433e-21)
(0.841014 0.0288118 6.97346e-21)
(0.841321 0.0284336 -2.80632e-21)
(0.841633 0.0280639 1.43441e-21)
(0.841949 0.0277026 6.23106e-22)
(0.84227 0.0273496 -5.25607e-21)
(0.842594 0.0270045 5.06946e-21)
(0.842924 0.0266673 -3.66804e-22)
(0.843258 0.0263378 1.29626e-21)
(0.843596 0.0260159 1.53934e-22)
(0.843938 0.0257012 -1.95784e-21)
(0.844286 0.0253937 -5.93983e-22)
(0.844638 0.0250931 1.20337e-21)
(0.844994 0.0247992 6.35286e-22)
(0.845356 0.0245118 -5.25748e-22)
(0.845723 0.0242306 2.12614e-22)
(0.846095 0.0239555 1.24949e-22)
(0.846473 0.0236861 -1.65683e-23)
(0.846857 0.0234221 6.67635e-23)
(0.847247 0.0231633 -1.32454e-22)
(0.847644 0.0229093 -1.39647e-22)
(0.848049 0.0226599 2.29054e-22)
(0.848461 0.0224149 -7.40582e-23)
(0.848881 0.0221743 -3.14505e-24)
(0.849306 0.0219378 2.63438e-23)
(0.849768 0.0217047 1.51356e-25)
(0.850396 0.0215119 -1.0813e-25)
(0.775905 0.0388159 -1.0686e-20)
(0.776725 0.0382158 -9.21113e-22)
(0.777541 0.0376269 2.06657e-20)
(0.778354 0.0370493 -1.254e-20)
(0.779163 0.0364827 4.2713e-21)
(0.779968 0.0359273 2.6265e-20)
(0.78077 0.0353827 -1.4786e-20)
(0.781568 0.034849 -1.78595e-20)
(0.782362 0.034326 1.78773e-20)
(0.783153 0.0338135 -1.74561e-20)
(0.78394 0.0333115 7.43779e-21)
(0.784723 0.0328197 1.28188e-20)
(0.785502 0.0323381 -1.78213e-22)
(0.786278 0.0318665 -1.01108e-20)
(0.78705 0.0314047 1.07162e-20)
(0.787818 0.0309527 -4.06242e-21)
(0.788583 0.0305102 -4.99704e-21)
(0.789344 0.0300771 -5.57673e-22)
(0.790102 0.0296533 -4.13973e-21)
(0.790857 0.0292386 3.11229e-21)
(0.791608 0.0288327 6.73133e-22)
(0.792356 0.0284357 2.18947e-21)
(0.793101 0.0280473 -6.75299e-22)
(0.793843 0.0276674 5.48915e-21)
(0.794582 0.0272957 -4.99999e-21)
(0.795318 0.0269322 -3.49512e-21)
(0.796051 0.0265767 8.35372e-21)
(0.796782 0.0262289 -4.19684e-21)
(0.79751 0.0258888 -5.34986e-22)
(0.798236 0.0255561 1.06337e-22)
(0.79896 0.0252306 1.28092e-22)
(0.799682 0.0249122 -4.5574e-22)
(0.800402 0.0246007 -1.71971e-23)
(0.80112 0.0242957 -5.86677e-22)
(0.801837 0.0239972 1.54925e-21)
(0.802552 0.0237048 -8.45124e-22)
(0.803266 0.0234183 -1.2622e-21)
(0.80398 0.0231373 5.6641e-22)
(0.804693 0.0228616 2.22885e-22)
(0.805406 0.0225909 -3.71488e-22)
(0.806118 0.0223246 2.81115e-22)
(0.806832 0.0220625 -7.4391e-23)
(0.807546 0.021804 -1.28119e-22)
(0.808263 0.0215487 2.33083e-22)
(0.808982 0.0212961 -2.65338e-23)
(0.809703 0.0210462 -1.79467e-23)
(0.81042 0.0207982 1.98874e-24)
(0.811191 0.0205515 1.38163e-24)
(0.812213 0.0203503 1.5112e-24)
(0.714051 0.0367845 -2.4232e-20)
(0.715607 0.0362036 -6.97146e-21)
(0.717145 0.0356336 1.60761e-20)