/*--------------------------------*- C++ -*----------------------------------*\
  =========                 |
  \\      /  F ield         | OpenFOAM: The Open Source CFD Toolbox
   \\    /   O peration     | Website:  https://openfoam.org
    \\  /    A nd           | Version:  7
     \\/     M anipulation  |
\*---------------------------------------------------------------------------*/
FoamFile
{
    version     2.0;
    format      ascii;
    class       volScalarField;
    location    "50.001";
    object      p;
}
// * * * * * * * * * * * * * * * * * * * * * * * * * * * * * * * * * * * * * //

dimensions      [0 2 -2 0 0 0 0];

internalField   nonuniform List<scalar> 
11400
(
-0.0761799
-0.075264
-0.074389
-0.0735541
-0.0727583
-0.0720008
-0.0712807
-0.0705972
-0.0699496
-0.0693372
-0.0687593
-0.0682153
-0.0677047
-0.0672268
-0.0667811
-0.0663672
-0.0659847
-0.0656331
-0.065312
-0.0650212
-0.0647603
-0.064529
-0.0643272
-0.0641545
-0.0640109
-0.0638962
-0.0638102
-0.0637529
-0.0637243
-0.212637
-0.208333
-0.203767
-0.199209
-0.194698
-0.190242
-0.185858
-0.181561
-0.177356
-0.173247
-0.169237
-0.165328
-0.161519
-0.157812
-0.154207
-0.150703
-0.1473
-0.143996
-0.14079
-0.137682
-0.134668
-0.131747
-0.128918
-0.126179
-0.123527
-0.120961
-0.118479
-0.116078
-0.113758
-0.111515
-0.109349
-0.107256
-0.105235
-0.103284
-0.101402
-0.0995855
-0.0978339
-0.096145
-0.0945171
-0.0929485
-0.0914378
-0.0899831
-0.0885831
-0.0872363
-0.0859412
-0.0846965
-0.0835008
-0.0823529
-0.0812515
-0.0801955
-0.0791838
-0.0782153
-0.0772889
-0.0764038
-0.0755588
-0.0747532
-0.0739861
-0.0732567
-0.0725642
-0.0719079
-0.0712871
-0.0707012
-0.0701495
-0.0696315
-0.0691467
-0.0686945
-0.0682745
-0.0678862
-0.0675293
-0.0672034
-0.0669081
-0.0666432
-0.0664084
-0.0662034
-0.0660281
-0.0658823
-0.0657657
-0.0656785
-0.0656203
-0.0655913
-0.212772
-0.208611
-0.204182
-0.199755
-0.195363
-0.19102
-0.186743
-0.182547
-0.178438
-0.174421
-0.170497
-0.166668
-0.162936
-0.159299
-0.155759
-0.152316
-0.148968
-0.145715
-0.142555
-0.139488
-0.136512
-0.133625
-0.130826
-0.128113
-0.125484
-0.122938
-0.120473
-0.118087
-0.115779
-0.113546
-0.111387
-0.109299
-0.107282
-0.105334
-0.103452
-0.101635
-0.099882
-0.0981903
-0.0965587
-0.0949856
-0.0934696
-0.092009
-0.0906025
-0.0892487
-0.0879463
-0.0866939
-0.0854903
-0.0843342
-0.0832246
-0.0821602
-0.0811401
-0.0801631
-0.0792283
-0.0783348
-0.0774816
-0.0766679
-0.0758928
-0.0751556
-0.0744555
-0.0737919
-0.073164
-0.0725713
-0.0720131
-0.0714889
-0.0709981
-0.0705403
-0.070115
-0.0697218
-0.0693603
-0.0690302
-0.0687311
-0.0684627
-0.0682248
-0.0680171
-0.0678394
-0.0676916
-0.0675736
-0.0674851
-0.0674262
-0.0673968
-0.212773
-0.208752
-0.204461
-0.200162
-0.195888
-0.191653
-0.187479
-0.18338
-0.179364
-0.175435
-0.171594
-0.167844
-0.164185
-0.160618
-0.157143
-0.153759
-0.150467
-0.147266
-0.144153
-0.141129
-0.138192
-0.135341
-0.132574
-0.129889
-0.127286
-0.124763
-0.122318
-0.119949
-0.117655
-0.115435
-0.113286
-0.111208
-0.109197
-0.107254
-0.105376
-0.103562
-0.10181
-0.100118
-0.0984853
-0.0969103
-0.0953916
-0.0939276
-0.0925172
-0.0911588
-0.0898514
-0.0885935
-0.0873842
-0.0862221
-0.0851061
-0.0840353
-0.0830086
-0.082025
-0.0810835
-0.0801833
-0.0793234
-0.078503
-0.0777214
-0.0769778
-0.0762715
-0.0756017
-0.0749679
-0.0743694
-0.0738057
-0.0732762
-0.0727804
-0.0723178
-0.071888
-0.0714906
-0.0711252
-0.0707914
-0.070489
-0.0702176
-0.069977
-0.069767
-0.0695873
-0.0694379
-0.0693185
-0.069229
-0.0691694
-0.0691396
-0.212652
-0.208766
-0.20461
-0.200436
-0.196278
-0.19215
-0.188076
-0.184071
-0.180145
-0.1763
-0.17254
-0.168866
-0.16528
-0.161781
-0.158369
-0.155046
-0.151809
-0.148659
-0.145594
-0.142614
-0.139718
-0.136903
-0.13417
-0.131516
-0.12894
-0.126442
-0.124019
-0.12167
-0.119393
-0.117188
-0.115052
-0.112985
-0.110984
-0.109049
-0.107177
-0.105368
-0.103619
-0.10193
-0.100299
-0.0987245
-0.0972055
-0.0957405
-0.0943283
-0.0929676
-0.0916573
-0.0903961
-0.089183
-0.0880168
-0.0868965
-0.0858211
-0.0847896
-0.083801
-0.0828544
-0.081949
-0.0810839
-0.0802584
-0.0794716
-0.0787228
-0.0780114
-0.0773367
-0.076698
-0.0760949
-0.0755266
-0.0749927
-0.0744927
-0.0740262
-0.0735926
-0.0731917
-0.072823
-0.0724862
-0.0721809
-0.071907
-0.0716642
-0.0714521
-0.0712708
-0.0711199
-0.0709993
-0.070909
-0.0708488
-0.0708188
-0.212413
-0.208656
-0.204629
-0.200577
-0.19653
-0.192506
-0.18853
-0.184618
-0.180778
-0.177017
-0.173336
-0.169737
-0.166221
-0.162789
-0.159441
-0.156177
-0.152996
-0.149897
-0.146881
-0.143946
-0.141091
-0.138315
-0.135617
-0.132995
-0.130449
-0.127977
-0.125578
-0.123251
-0.120994
-0.118806
-0.116686
-0.114633
-0.112644
-0.110719
-0.108856
-0.107054
-0.105311
-0.103627
-0.102
-0.100428
-0.0989115
-0.0974477
-0.0960359
-0.0946751
-0.0933639
-0.0921015
-0.0908865
-0.0897182
-0.0885953
-0.087517
-0.0864824
-0.0854904
-0.0845403
-0.0836313
-0.0827625
-0.0819331
-0.0811424
-0.0803898
-0.0796745
-0.078996
-0.0783536
-0.0777467
-0.0771749
-0.0766375
-0.0761342
-0.0756644
-0.0752279
-0.0748241
-0.0744527
-0.0741134
-0.0738059
-0.0735299
-0.0732852
-0.0730715
-0.0728887
-0.0727367
-0.0726151
-0.0725241
-0.0724635
-0.0724332
-0.212064
-0.208427
-0.204522
-0.200587
-0.196648
-0.192725
-0.188843
-0.185021
-0.181267
-0.177587
-0.173984
-0.170459
-0.167013
-0.163647
-0.160362
-0.157157
-0.154031
-0.150985
-0.148018
-0.145129
-0.142316
-0.13958
-0.136918
-0.13433
-0.131815
-0.129372
-0.127
-0.124696
-0.122461
-0.120293
-0.118191
-0.116153
-0.114178
-0.112266
-0.110414
-0.108621
-0.106887
-0.105211
-0.103589
-0.102023
-0.10051
-0.0990497
-0.0976405
-0.0962815
-0.0949715
-0.0937097
-0.0924948
-0.091326
-0.0902024
-0.0891229
-0.0880868
-0.0870931
-0.086141
-0.0852298
-0.0843586
-0.0835267
-0.0827335
-0.0819782
-0.0812603
-0.080579
-0.0799339
-0.0793243
-0.0787498
-0.0782099
-0.077704
-0.0772319
-0.076793
-0.076387
-0.0760135
-0.0756723
-0.075363
-0.0750854
-0.0748392
-0.0746243
-0.0744404
-0.0742874
-0.0741651
-0.0740735
-0.0740125
-0.073982
-0.211608
-0.208084
-0.204296
-0.200472
-0.196637
-0.192812
-0.189023
-0.185288
-0.181618
-0.178018
-0.17449
-0.171037
-0.167661
-0.164361
-0.161138
-0.157992
-0.154922
-0.151929
-0.149011
-0.146168
-0.143399
-0.140703
-0.138079
-0.135527
-0.133045
-0.130632
-0.128287
-0.126009
-0.123798
-0.121651
-0.119569
-0.117549
-0.11559
-0.113692
-0.111854
-0.110073
-0.10835
-0.106682
-0.105069
-0.10351
-0.102003
-0.100548
-0.0991432
-0.0977879
-0.096481
-0.0952215
-0.0940085
-0.092841
-0.0917182
-0.0906392
-0.0896031
-0.0886091
-0.0876565
-0.0867445
-0.0858722
-0.0850392
-0.0842446
-0.0834878
-0.0827683
-0.0820853
-0.0814385
-0.0808272
-0.0802509
-0.0797093
-0.0792017
-0.0787279
-0.0782873
-0.0778798
-0.0775049
-0.0771622
-0.0768517
-0.0765729
-0.0763256
-0.0761097
-0.075925
-0.0757713
-0.0756485
-0.0755564
-0.0754951
-0.0754645
-0.211051
-0.207633
-0.203956
-0.200239
-0.196505
-0.192774
-0.189075
-0.185426
-0.181837
-0.178314
-0.174861
-0.17148
-0.168172
-0.164937
-0.161775
-0.158688
-0.155674
-0.152733
-0.149865
-0.147069
-0.144345
-0.14169
-0.139106
-0.13659
-0.134141
-0.13176
-0.129445
-0.127195
-0.125008
-0.122885
-0.120824
-0.118824
-0.116883
-0.115002
-0.113178
-0.111412
-0.1097
-0.108044
-0.106441
-0.104891
-0.103392
-0.101944
-0.100545
-0.0991955
-0.0978933
-0.0966379
-0.0954283
-0.0942638
-0.0931433
-0.0920663
-0.0910317
-0.0900389
-0.089087
-0.0881755
-0.0873035
-0.0864704
-0.0856756
-0.0849185
-0.0841984
-0.0835148
-0.0828672
-0.0822551
-0.0816779
-0.0811353
-0.0806268
-0.080152
-0.0797105
-0.079302
-0.0789261
-0.0785826
-0.0782712
-0.0779917
-0.0777437
-0.0775272
-0.0773419
-0.0771877
-0.0770645
-0.0769722
-0.0769107
-0.07688
-0.210395
-0.207076
-0.203505
-0.199891
-0.196254
-0.192616
-0.189004
-0.185439
-0.181929
-0.178483
-0.175103
-0.171792
-0.168551
-0.16538
-0.16228
-0.159251
-0.156293
-0.153405
-0.150587
-0.147839
-0.145159
-0.142547
-0.140002
-0.137523
-0.13511
-0.132762
-0.130477
-0.128256
-0.126096
-0.123998
-0.12196
-0.119981
-0.11806
-0.116197
-0.11439
-0.112639
-0.110942
-0.109298
-0.107707
-0.106167
-0.104678
-0.103239
-0.101848
-0.100505
-0.0992096
-0.0979598
-0.0967552
-0.095595
-0.0944785
-0.0934047
-0.092373
-0.0913827
-0.0904329
-0.0895231
-0.0886525
-0.0878206
-0.0870267
-0.0862702
-0.0855506
-0.0848674
-0.0842199
-0.0836078
-0.0830306
-0.0824878
-0.081979
-0.0815039
-0.0810621
-0.0806532
-0.080277
-0.0799331
-0.0796213
-0.0793414
-0.0790931
-0.0788762
-0.0786907
-0.0785363
-0.0784129
-0.0783204
-0.0782588
-0.078228
-0.209644
-0.206417
-0.202947
-0.199432
-0.19589
-0.192341
-0.188815
-0.185331
-0.1819
-0.178529
-0.175221
-0.171979
-0.168804
-0.165697
-0.162658
-0.159687
-0.156784
-0.153949
-0.151182
-0.148481
-0.145846
-0.143277
-0.140772
-0.138332
-0.135955
-0.133641
-0.131388
-0.129196
-0.127065
-0.124993
-0.122979
-0.121023
-0.119124
-0.11728
-0.115492
-0.113757
-0.112076
-0.110447
-0.108869
-0.107341
-0.105864
-0.104435
-0.103053
-0.101719
-0.100431
-0.0991883
-0.0979901
-0.0968357
-0.0957243
-0.0946552
-0.0936277
-0.0926411
-0.0916946
-0.0907877
-0.0899197
-0.08909
-0.088298
-0.0875432
-0.086825
-0.0861429
-0.0854965
-0.0848853
-0.0843087
-0.0837665
-0.0832582
-0.0827834
-0.0823419
-0.0819332
-0.0815571
-0.0812133
-0.0809016
-0.0806217
-0.0803734
-0.0801565
-0.0799709
-0.0798165
-0.0796931
-0.0796006
-0.0795389
-0.0795082
-0.208798
-0.205657
-0.202284
-0.198865
-0.195414
-0.191953
-0.188511
-0.185107
-0.181753
-0.178455
-0.175219
-0.172045
-0.168936
-0.165891
-0.162913
-0.16
-0.157152
-0.15437
-0.151653
-0.149
-0.146411
-0.143885
-0.141422
-0.13902
-0.13668
-0.134401
-0.132181
-0.13002
-0.127918
-0.125873
-0.123885
-0.121953
-0.120076
-0.118254
-0.116485
-0.114769
-0.113105
-0.111492
-0.109928
-0.108415
-0.10695
-0.105532
-0.104162
-0.102838
-0.101559
-0.100324
-0.099134
-0.0979867
-0.0968818
-0.0958186
-0.0947964
-0.0938146
-0.0928726
-0.0919697
-0.0911053
-0.0902788
-0.0894897
-0.0887375
-0.0880217
-0.0873417
-0.0866971
-0.0860875
-0.0855124
-0.0849715
-0.0844643
-0.0839905
-0.0835498
-0.0831418
-0.0827664
-0.0824231
-0.0821118
-0.0818323
-0.0815843
-0.0813677
-0.0811824
-0.0810281
-0.0809048
-0.0808124
-0.0807509
-0.0807201
-0.207861
-0.204798
-0.201518
-0.198192
-0.194831
-0.191456
-0.188096
-0.18477
-0.181492
-0.178267
-0.1751
-0.171994
-0.16895
-0.165968
-0.163049
-0.160194
-0.157401
-0.154672
-0.152005
-0.1494
-0.146857
-0.144375
-0.141953
-0.139592
-0.137289
-0.135045
-0.132859
-0.13073
-0.128658
-0.126642
-0.124681
-0.122774
-0.120921
-0.119121
-0.117373
-0.115677
-0.114031
-0.112435
-0.110888
-0.109389
-0.107938
-0.106534
-0.105176
-0.103863
-0.102594
-0.10137
-0.100188
-0.099049
-0.0979517
-0.0968956
-0.0958799
-0.0949041
-0.0939675
-0.0930696
-0.0922098
-0.0913876
-0.0906024
-0.0898537
-0.089141
-0.0884639
-0.087822
-0.0872147
-0.0866418
-0.0861028
-0.0855973
-0.0851251
-0.0846858
-0.0842791
-0.0839047
-0.0835624
-0.083252
-0.0829732
-0.0827258
-0.0825098
-0.0823249
-0.082171
-0.082048
-0.0819558
-0.0818944
-0.0818637
-0.206833
-0.203841
-0.20065
-0.197415
-0.194142
-0.190851
-0.187572
-0.184325
-0.181121
-0.177968
-0.174871
-0.171831
-0.168851
-0.165931
-0.163072
-0.160273
-0.157536
-0.154859
-0.152242
-0.149686
-0.147189
-0.144751
-0.142371
-0.14005
-0.137785
-0.135578
-0.133426
-0.13133
-0.129289
-0.127303
-0.125369
-0.123489
-0.121661
-0.119884
-0.118159
-0.116483
-0.114857
-0.113279
-0.111749
-0.110267
-0.108831
-0.107441
-0.106096
-0.104795
-0.103539
-0.102325
-0.101153
-0.100024
-0.0989352
-0.0978872
-0.0968791
-0.0959103
-0.0949802
-0.0940883
-0.093234
-0.0924169
-0.0916364
-0.090892
-0.0901834
-0.08951
-0.0888714
-0.0882672
-0.087697
-0.0871606
-0.0866575
-0.0861873
-0.0857499
-0.0853449
-0.0849721
-0.0846312
-0.084322
-0.0840443
-0.0837979
-0.0835826
-0.0833984
-0.083245
-0.0831225
-0.0830306
-0.0829694
-0.0829389
-0.205718
-0.202786
-0.199682
-0.196537
-0.19335
-0.190143
-0.186945
-0.183774
-0.180644
-0.177562
-0.174533
-0.171559
-0.168643
-0.165784
-0.162984
-0.160242
-0.15756
-0.154935
-0.152369
-0.149861
-0.14741
-0.145017
-0.14268
-0.140399
-0.138173
-0.136002
-0.133886
-0.131824
-0.129814
-0.127858
-0.125953
-0.1241
-0.122298
-0.120546
-0.118843
-0.11719
-0.115584
-0.114026
-0.112515
-0.11105
-0.10963
-0.108255
-0.106925
-0.105638
-0.104393
-0.103192
-0.102031
-0.100912
-0.0998334
-0.0987945
-0.0977949
-0.096834
-0.0959113
-0.0950263
-0.0941785
-0.0933673
-0.0925923
-0.0918531
-0.0911492
-0.0904802
-0.0898456
-0.0892452
-0.0886785
-0.0881452
-0.087645
-0.0871775
-0.0867425
-0.0863397
-0.0859688
-0.0856296
-0.085322
-0.0850457
-0.0848005
-0.0845863
-0.084403
-0.0842503
-0.0841284
-0.0840369
-0.083976
-0.0839456
-0.20452
-0.201631
-0.198611
-0.195558
-0.19246
-0.189336
-0.186216
-0.183122
-0.180065
-0.177053
-0.174092
-0.171183
-0.16833
-0.165532
-0.16279
-0.160105
-0.157477
-0.154905
-0.152389
-0.149929
-0.147525
-0.145176
-0.142881
-0.140641
-0.138455
-0.136322
-0.134241
-0.132213
-0.130236
-0.128311
-0.126436
-0.124611
-0.122835
-0.121108
-0.11943
-0.117799
-0.116215
-0.114677
-0.113186
-0.111739
-0.110337
-0.108978
-0.107663
-0.106391
-0.10516
-0.103971
-0.102823
-0.101715
-0.100647
-0.0996184
-0.0986283
-0.0976762
-0.0967618
-0.0958846
-0.095044
-0.0942396
-0.0934709
-0.0927375
-0.0920391
-0.0913751
-0.0907453
-0.0901492
-0.0895866
-0.089057
-0.0885602
-0.0880958
-0.0876637
-0.0872635
-0.086895
-0.086558
-0.0862522
-0.0859776
-0.0857339
-0.085521
-0.0853387
-0.085187
-0.0850658
-0.0849749
-0.0849143
-0.0848841
-0.203245
-0.200369
-0.19744
-0.194485
-0.191475
-0.188433
-0.185392
-0.182372
-0.179388
-0.176445
-0.173551
-0.170707
-0.167915
-0.165177
-0.162494
-0.159865
-0.157291
-0.154771
-0.152305
-0.149894
-0.147536
-0.145232
-0.14298
-0.140781
-0.138634
-0.136539
-0.134495
-0.132501
-0.130558
-0.128664
-0.126819
-0.125023
-0.123275
-0.121574
-0.119921
-0.118314
-0.116752
-0.115236
-0.113764
-0.112337
-0.110953
-0.109612
-0.108313
-0.107056
-0.10584
-0.104665
-0.10353
-0.102435
-0.101378
-0.10036
-0.0993803
-0.098438
-0.0975327
-0.096664
-0.0958314
-0.0950344
-0.0942728
-0.093546
-0.0928537
-0.0921955
-0.0915709
-0.0909798
-0.0904217
-0.0898964
-0.0894035
-0.0889427
-0.0885139
-0.0881167
-0.087751
-0.0874164
-0.0871129
-0.0868403
-0.0865983
-0.0863869
-0.0862059
-0.0860553
-0.0859349
-0.0858446
-0.0857845
-0.0857544
-0.201884
-0.198983
-0.196176
-0.193328
-0.190403
-0.187439
-0.184475
-0.18153
-0.178616
-0.175742
-0.172914
-0.170133
-0.167403
-0.164725
-0.162099
-0.159526
-0.157005
-0.154537
-0.152121
-0.149758
-0.147447
-0.145188
-0.142979
-0.140822
-0.138715
-0.136657
-0.13465
-0.132691
-0.130782
-0.12892
-0.127106
-0.12534
-0.12362
-0.121946
-0.120318
-0.118736
-0.117198
-0.115704
-0.114253
-0.112846
-0.111481
-0.110158
-0.108876
-0.107636
-0.106435
-0.105275
-0.104154
-0.103071
-0.102027
-0.101021
-0.100052
-0.0991204
-0.0982249
-0.0973654
-0.0965416
-0.0957528
-0.0949989
-0.0942793
-0.0935937
-0.0929418
-0.0923232
-0.0917376
-0.0911846
-0.090664
-0.0901755
-0.0897188
-0.0892937
-0.0888999
-0.0885372
-0.0882055
-0.0879045
-0.0876341
-0.0873941
-0.0871845
-0.0870049
-0.0868555
-0.086736
-0.0866465
-0.0865868
-0.086557
-0.200351
-0.197513
-0.194861
-0.192099
-0.189247
-0.18636
-0.183471
-0.180599
-0.177755
-0.174948
-0.172184
-0.169467
-0.166797
-0.164178
-0.161609
-0.159091
-0.156623
-0.154207
-0.151841
-0.149526
-0.147261
-0.145047
-0.142881
-0.140766
-0.138699
-0.13668
-0.134709
-0.132787
-0.130911
-0.129082
-0.1273
-0.125563
-0.123872
-0.122226
-0.120625
-0.119067
-0.117553
-0.116082
-0.114654
-0.113267
-0.111922
-0.110618
-0.109354
-0.108131
-0.106947
-0.105802
-0.104695
-0.103627
-0.102596
-0.101602
-0.100645
-0.0997245
-0.0988396
-0.09799
-0.0971755
-0.0963957
-0.09565
-0.0949383
-0.09426
-0.093615
-0.0930028
-0.0924232
-0.0918758
-0.0913604
-0.0908767
-0.0904245
-0.0900035
-0.0896135
-0.0892543
-0.0889256
-0.0886275
-0.0883596
-0.0881218
-0.087914
-0.0877361
-0.087588
-0.0874696
-0.0873809
-0.0873218
-0.0872922
-0.198695
-0.196102
-0.193506
-0.190799
-0.188014
-0.185202
-0.182386
-0.179584
-0.176808
-0.174067
-0.171366
-0.16871
-0.166101
-0.163539
-0.161027
-0.158563
-0.156149
-0.153783
-0.151467
-0.1492
-0.146982
-0.144812
-0.14269
-0.140616
-0.138589
-0.136609
-0.134676
-0.132789
-0.130948
-0.129153
-0.127402
-0.125697
-0.124035
-0.122417
-0.120842
-0.119311
-0.117821
-0.116374
-0.114968
-0.113603
-0.112278
-0.110994
-0.109749
-0.108543
-0.107376
-0.106248
-0.105156
-0.104103
-0.103086
-0.102105
-0.10116
-0.100252
-0.0993778
-0.0985389
-0.0977344
-0.0969639
-0.0962272
-0.0955238
-0.0948535
-0.0942158
-0.0936106
-0.0930374
-0.0924961
-0.0919863
-0.0915079
-0.0910605
-0.090644
-0.0902581
-0.0899026
-0.0895774
-0.0892823
-0.0890171
-0.0887817
-0.088576
-0.0883999
-0.0882533
-0.0881361
-0.0880483
-0.0879897
-0.0879605
-0.197081
-0.194628
-0.192072
-0.189426
-0.186709
-0.18397
-0.181224
-0.178488
-0.175778
-0.1731
-0.170462
-0.167867
-0.165317
-0.162812
-0.160355
-0.157946
-0.155584
-0.15327
-0.151003
-0.148784
-0.146612
-0.144487
-0.142408
-0.140376
-0.138389
-0.136449
-0.134553
-0.132703
-0.130896
-0.129135
-0.127416
-0.125742
-0.12411
-0.122521
-0.120973
-0.119468
-0.118004
-0.116581
-0.115198
-0.113855
-0.112552
-0.111288
-0.110062
-0.108875
-0.107726
-0.106614
-0.105538
-0.1045
-0.103497
-0.102531
-0.101599
-0.100703
-0.0998408
-0.099013
-0.0982191
-0.0974587
-0.0967314
-0.0960369
-0.0953749
-0.0947452
-0.0941473
-0.0935811
-0.0930463
-0.0925426
-0.0920697
-0.0916275
-0.0912158
-0.0908343
-0.0904829
-0.0901614
-0.0898696
-0.0896073
-0.0893746
-0.0891712
-0.088997
-0.088852
-0.0887361
-0.0886492
-0.0885913
-0.0885624
-0.195441
-0.193068
-0.190559
-0.187977
-0.185336
-0.182665
-0.179984
-0.177314
-0.174667
-0.172053
-0.169476
-0.16694
-0.164448
-0.162
-0.159598
-0.157242
-0.154932
-0.152669
-0.150451
-0.148279
-0.146154
-0.144073
-0.142038
-0.140048
-0.138102
-0.1362
-0.134343
-0.132528
-0.130758
-0.12903
-0.127344
-0.125701
-0.124099
-0.122539
-0.12102
-0.119542
-0.118104
-0.116705
-0.115346
-0.114026
-0.112745
-0.111501
-0.110296
-0.109128
-0.107996
-0.106902
-0.105843
-0.10482
-0.103833
-0.102881
-0.101963
-0.101079
-0.10023
-0.0994137
-0.0986309
-0.097881
-0.0971636
-0.0964785
-0.0958254
-0.095204
-0.094614
-0.0940551
-0.0935272
-0.0930299
-0.092563
-0.0921264
-0.0917198
-0.091343
-0.0909959
-0.0906783
-0.09039
-0.090131
-0.089901
-0.0897
-0.089528
-0.0893847
-0.0892701
-0.0891843
-0.089127
-0.0890985
-0.193732
-0.19143
-0.188977
-0.186459
-0.183886
-0.181281
-0.178667
-0.176062
-0.173478
-0.170925
-0.168408
-0.165931
-0.163496
-0.161105
-0.158757
-0.156454
-0.154196
-0.151983
-0.149814
-0.14769
-0.14561
-0.143575
-0.141583
-0.139634
-0.137729
-0.135867
-0.134047
-0.13227
-0.130534
-0.128841
-0.127188
-0.125577
-0.124006
-0.122475
-0.120985
-0.119534
-0.118122
-0.116749
-0.115414
-0.114117
-0.112858
-0.111636
-0.110451
-0.109302
-0.10819
-0.107113
-0.106072
-0.105066
-0.104094
-0.103156
-0.102253
-0.101383
-0.100546
-0.0997422
-0.0989709
-0.098232
-0.097525
-0.0968498
-0.096206
-0.0955933
-0.0950115
-0.0944604
-0.0939397
-0.0934492
-0.0929887
-0.0925579
-0.0921567
-0.0917849
-0.0914424
-0.0911289
-0.0908444
-0.0905887
-0.0903617
-0.0901633
-0.0899935
-0.089852
-0.0897389
-0.0896542
-0.0895977
-0.0895695
-0.19195
-0.189719
-0.187325
-0.184871
-0.182364
-0.179824
-0.177274
-0.174733
-0.172212
-0.169719
-0.167262
-0.164843
-0.162465
-0.160129
-0.157835
-0.155585
-0.153378
-0.151215
-0.149095
-0.147018
-0.144984
-0.142993
-0.141045
-0.139138
-0.137274
-0.135451
-0.133669
-0.131929
-0.130229
-0.12857
-0.126951
-0.125372
-0.123832
-0.122331
-0.120869
-0.119446
-0.118061
-0.116713
-0.115403
-0.11413
-0.112894
-0.111694
-0.11053
-0.109402
-0.108308
-0.10725
-0.106226
-0.105237
-0.104281
-0.103359
-0.10247
-0.101614
-0.100791
-0.0999996
-0.0992405
-0.0985129
-0.0978168
-0.0971518
-0.0965177
-0.0959142
-0.095341
-0.094798
-0.0942849
-0.0938015
-0.0933475
-0.0929229
-0.0925274
-0.0921609
-0.0918232
-0.0915141
-0.0912335
-0.0909814
-0.0907575
-0.0905619
-0.0903943
-0.0902548
-0.0901433
-0.0900596
-0.0900039
-0.0899761
-0.190102
-0.187939
-0.185605
-0.183213
-0.18077
-0.178294
-0.175808
-0.173329
-0.17087
-0.168438
-0.166039
-0.163678
-0.161356
-0.159075
-0.156835
-0.154637
-0.152481
-0.150368
-0.148296
-0.146266
-0.144278
-0.142332
-0.140426
-0.138562
-0.136738
-0.134955
-0.133212
-0.131508
-0.129844
-0.12822
-0.126634
-0.125088
-0.123579
-0.122109
-0.120676
-0.119281
-0.117923
-0.116601
-0.115317
-0.114068
-0.112855
-0.111677
-0.110534
-0.109426
-0.108353
-0.107314
-0.106308
-0.105336
-0.104397
-0.103491
-0.102617
-0.101775
-0.100966
-0.100187
-0.0994407
-0.098725
-0.0980402
-0.0973858
-0.0967617
-0.0961677
-0.0956035
-0.0950689
-0.0945637
-0.0940877
-0.0936407
-0.0932225
-0.0928329
-0.0924719
-0.0921392
-0.0918347
-0.0915583
-0.0913098
-0.0910892
-0.0908964
-0.0907313
-0.0905938
-0.0904839
-0.0904015
-0.0903466
-0.0903192
-0.18819
-0.186091
-0.183816
-0.181487
-0.179107
-0.176694
-0.174271
-0.171854
-0.169455
-0.167082
-0.164742
-0.162438
-0.160172
-0.157945
-0.155758
-0.153612
-0.151507
-0.149443
-0.14742
-0.145437
-0.143494
-0.141592
-0.13973
-0.137908
-0.136125
-0.134381
-0.132676
-0.13101
-0.129382
-0.127793
-0.126241
-0.124727
-0.12325
-0.12181
-0.120407
-0.11904
-0.11771
-0.116415
-0.115155
-0.113931
-0.112742
-0.111587
-0.110466
-0.109379
-0.108326
-0.107306
-0.106319
-0.105364
-0.104442
-0.103552
-0.102694
-0.101867
-0.101072
-0.100307
-0.0995731
-0.0988696
-0.0981963
-0.0975529
-0.0969392
-0.096355
-0.0958001
-0.0952743
-0.0947772
-0.0943089
-0.0938691
-0.0934575
-0.0930742
-0.0927188
-0.0923913
-0.0920916
-0.0918195
-0.0915749
-0.0913577
-0.0911679
-0.0910054
-0.09087
-0.0907618
-0.0906806
-0.0906265
-0.0905995
-0.186216
-0.184179
-0.181961
-0.179693
-0.177375
-0.175025
-0.172663
-0.170307
-0.167969
-0.165655
-0.163373
-0.161125
-0.158914
-0.156741
-0.154608
-0.152513
-0.150459
-0.148444
-0.146468
-0.144532
-0.142635
-0.140778
-0.138959
-0.137178
-0.135436
-0.133732
-0.132066
-0.130437
-0.128846
-0.127291
-0.125773
-0.124292
-0.122847
-0.121438
-0.120065
-0.118727
-0.117424
-0.116156
-0.114922
-0.113722
-0.112557
-0.111425
-0.110326
-0.109261
-0.108228
-0.107228
-0.10626
-0.105323
-0.104419
-0.103545
-0.102703
-0.101891
-0.10111
-0.100359
-0.0996388
-0.0989478
-0.0982864
-0.0976544
-0.0970514
-0.0964774
-0.095932
-0.0954152
-0.0949266
-0.0944662
-0.0940338
-0.0936291
-0.0932522
-0.0929027
-0.0925807
-0.0922859
-0.0920182
-0.0917776
-0.091564
-0.0913773
-0.0912174
-0.0910842
-0.0909777
-0.0908979
-0.0908447
-0.0908181
-0.18418
-0.182202
-0.180042
-0.177833
-0.175577
-0.173288
-0.170988
-0.168692
-0.166413
-0.164158
-0.161933
-0.159741
-0.157585
-0.155466
-0.153385
-0.151342
-0.149338
-0.147372
-0.145444
-0.143555
-0.141703
-0.13989
-0.138114
-0.136376
-0.134674
-0.13301
-0.131382
-0.129791
-0.128236
-0.126717
-0.125233
-0.123785
-0.122372
-0.120994
-0.11965
-0.118341
-0.117066
-0.115825
-0.114618
-0.113444
-0.112302
-0.111194
-0.110118
-0.109074
-0.108062
-0.107082
-0.106133
-0.105215
-0.104328
-0.103471
-0.102645
-0.101849
-0.101083
-0.100346
-0.0996392
-0.0989611
-0.098312
-0.0976915
-0.0970996
-0.0965359
-0.0960004
-0.0954928
-0.095013
-0.0945607
-0.0941359
-0.0937384
-0.093368
-0.0930247
-0.0927082
-0.0924185
-0.0921555
-0.091919
-0.0917091
-0.0915255
-0.0913683
-0.0912374
-0.0911328
-0.0910543
-0.091002
-0.0909759
-0.182084
-0.180163
-0.17806
-0.175909
-0.173713
-0.171485
-0.169246
-0.16701
-0.16479
-0.162593
-0.160425
-0.158289
-0.156187
-0.154122
-0.152093
-0.150101
-0.148147
-0.146229
-0.14435
-0.142507
-0.140701
-0.138932
-0.137199
-0.135502
-0.133842
-0.132217
-0.130628
-0.129074
-0.127556
-0.126072
-0.124622
-0.123208
-0.121827
-0.12048
-0.119167
-0.117887
-0.11664
-0.115426
-0.114245
-0.113097
-0.11198
-0.110895
-0.109842
-0.10882
-0.107829
-0.106869
-0.10594
-0.105041
-0.104171
-0.103332
-0.102523
-0.101743
-0.100991
-0.100269
-0.0995758
-0.0989109
-0.0982742
-0.0976656
-0.0970849
-0.0965319
-0.0960065
-0.0955084
-0.0950375
-0.0945936
-0.0941767
-0.0937864
-0.0934228
-0.0930857
-0.092775
-0.0924906
-0.0922323
-0.0920001
-0.0917939
-0.0916137
-0.0914593
-0.0913307
-0.0912279
-0.0911508
-0.0910995
-0.0910738
-0.179929
-0.178064
-0.176016
-0.173923
-0.171786
-0.169619
-0.167439
-0.165263
-0.163101
-0.160962
-0.15885
-0.156769
-0.154722
-0.15271
-0.150733
-0.148792
-0.146888
-0.145019
-0.143187
-0.14139
-0.13963
-0.137905
-0.136215
-0.13456
-0.132941
-0.131356
-0.129805
-0.128289
-0.126807
-0.125359
-0.123944
-0.122562
-0.121214
-0.119898
-0.118616
-0.117365
-0.116147
-0.114961
-0.113806
-0.112683
-0.111591
-0.11053
-0.1095
-0.1085
-0.107531
-0.106592
-0.105682
-0.104802
-0.103951
-0.103129
-0.102337
-0.101573
-0.100837
-0.100129
-0.09945
-0.0987984
-0.0981745
-0.097578
-0.0970088
-0.0964667
-0.0959516
-0.0954632
-0.0950014
-0.0945661
-0.0941572
-0.0937744
-0.0934178
-0.0930871
-0.0927823
-0.0925032
-0.0922498
-0.0920219
-0.0918196
-0.0916428
-0.0914912
-0.0913651
-0.0912642
-0.0911886
-0.0911381
-0.091113
-0.177715
-0.175904
-0.173912
-0.171876
-0.169798
-0.167689
-0.165569
-0.163452
-0.161348
-0.159266
-0.157211
-0.155185
-0.153192
-0.151233
-0.149308
-0.147418
-0.145563
-0.143743
-0.141958
-0.140208
-0.138492
-0.136811
-0.135165
-0.133552
-0.131973
-0.130428
-0.128916
-0.127438
-0.125992
-0.124579
-0.123199
-0.121851
-0.120535
-0.119251
-0.117999
-0.116778
-0.115588
-0.11443
-0.113302
-0.112205
-0.111138
-0.110101
-0.109094
-0.108117
-0.107169
-0.106251
-0.105361
-0.104501
-0.103668
-0.102864
-0.102089
-0.101341
-0.100621
-0.0999284
-0.0992632
-0.0986252
-0.0980143
-0.0974301
-0.0968726
-0.0963416
-0.0958369
-0.0953585
-0.094906
-0.0944795
-0.0940787
-0.0937036
-0.093354
-0.0930299
-0.0927311
-0.0924575
-0.0922091
-0.0919857
-0.0917873
-0.0916139
-0.0914654
-0.0913417
-0.0912427
-0.0911686
-0.0911191
-0.0910944
-0.175445
-0.173687
-0.171748
-0.169769
-0.167749
-0.165699
-0.163638
-0.161579
-0.159533
-0.157508
-0.155509
-0.153538
-0.151599
-0.149692
-0.147819
-0.14598
-0.144174
-0.142403
-0.140665
-0.138961
-0.137291
-0.135654
-0.13405
-0.132479
-0.130942
-0.129436
-0.127963
-0.126522
-0.125113
-0.123736
-0.12239
-0.121076
-0.119793
-0.11854
-0.117319
-0.116128
-0.114967
-0.113836
-0.112735
-0.111664
-0.110623
-0.10961
-0.108627
-0.107672
-0.106746
-0.105849
-0.10498
-0.104138
-0.103325
-0.102539
-0.10178
-0.101049
-0.100345
-0.0996675
-0.0990169
-0.0983927
-0.0977949
-0.0972233
-0.0966777
-0.0961579
-0.0956639
-0.0951955
-0.0947525
-0.0943349
-0.0939425
-0.0935752
-0.0932328
-0.0929154
-0.0926227
-0.0923547
-0.0921114
-0.0918925
-0.0916982
-0.0915283
-0.0913828
-0.0912616
-0.0911646
-0.091092
-0.0910435
-0.0910193
-0.173119
-0.171412
-0.169528
-0.167604
-0.165642
-0.16365
-0.161647
-0.159647
-0.157658
-0.15569
-0.153746
-0.15183
-0.149945
-0.148091
-0.146269
-0.14448
-0.142724
-0.141001
-0.13931
-0.137652
-0.136027
-0.134434
-0.132874
-0.131345
-0.129848
-0.128382
-0.126948
-0.125544
-0.124172
-0.122831
-0.12152
-0.120239
-0.118988
-0.117768
-0.116577
-0.115416
-0.114284
-0.113181
-0.112108
-0.111063
-0.110047
-0.109059
-0.108099
-0.107167
-0.106263
-0.105387
-0.104538
-0.103717
-0.102922
-0.102154
-0.101413
-0.100699
-0.10001
-0.0993485
-0.0987124
-0.0981023
-0.0975178
-0.0969589
-0.0964253
-0.095917
-0.0954339
-0.0949757
-0.0945424
-0.0941338
-0.0937498
-0.0933904
-0.0930554
-0.0927447
-0.0924583
-0.092196
-0.0919578
-0.0917437
-0.0915534
-0.0913871
-0.0912446
-0.091126
-0.0910311
-0.09096
-0.0909125
-0.0908888
-0.170737
-0.169082
-0.167251
-0.165382
-0.163477
-0.161544
-0.159599
-0.157656
-0.155725
-0.153813
-0.151925
-0.150063
-0.148231
-0.14643
-0.14466
-0.142921
-0.141214
-0.139539
-0.137896
-0.136284
-0.134704
-0.133155
-0.131637
-0.13015
-0.128694
-0.127268
-0.125872
-0.124507
-0.123171
-0.121865
-0.120589
-0.119342
-0.118125
-0.116936
-0.115776
-0.114645
-0.113542
-0.112467
-0.111421
-0.110402
-0.109412
-0.108448
-0.107513
-0.106604
-0.105722
-0.104867
-0.104039
-0.103237
-0.102462
-0.101712
-0.100989
-0.100291
-0.0996192
-0.0989727
-0.0983515
-0.0977554
-0.0971845
-0.0966384
-0.096117
-0.0956203
-0.0951481
-0.0947003
-0.0942767
-0.0938773
-0.093502
-0.0931506
-0.092823
-0.0925192
-0.0922391
-0.0919827
-0.0917497
-0.0915402
-0.0913542
-0.0911915
-0.0910522
-0.0909361
-0.0908433
-0.0907737
-0.0907273
-0.0907041
-0.168302
-0.166698
-0.164919
-0.163106
-0.161257
-0.159381
-0.157494
-0.155609
-0.153735
-0.151879
-0.150047
-0.14824
-0.146461
-0.144712
-0.142993
-0.141305
-0.139647
-0.13802
-0.136424
-0.134858
-0.133323
-0.131818
-0.130343
-0.128898
-0.127482
-0.126096
-0.124739
-0.123411
-0.122113
-0.120843
-0.119601
-0.118388
-0.117203
-0.116046
-0.114917
-0.113816
-0.112742
-0.111696
-0.110677
-0.109685
-0.10872
-0.107781
-0.106869
-0.105984
-0.105124
-0.104291
-0.103483
-0.102702
-0.101945
-0.101214
-0.100509
-0.0998282
-0.0991725
-0.0985417
-0.0979354
-0.0973537
-0.0967963
-0.0962632
-0.0957542
-0.0952692
-0.0948081
-0.0943708
-0.0939571
-0.093567
-0.0932003
-0.092857
-0.092537
-0.0922402
-0.0919665
-0.0917159
-0.0914883
-0.0912836
-0.0911017
-0.0909428
-0.0908066
-0.0906931
-0.0906024
-0.0905344
-0.090489
-0.0904664
-0.165815
-0.164261
-0.162534
-0.160776
-0.158983
-0.157165
-0.155335
-0.153508
-0.151691
-0.149891
-0.148113
-0.146361
-0.144636
-0.142939
-0.141271
-0.139633
-0.138024
-0.136445
-0.134896
-0.133377
-0.131886
-0.130425
-0.128993
-0.127589
-0.126215
-0.124868
-0.12355
-0.12226
-0.120998
-0.119764
-0.118557
-0.117378
-0.116226
-0.115101
-0.114003
-0.112932
-0.111887
-0.110869
-0.109878
-0.108912
-0.107973
-0.107059
-0.106171
-0.105309
-0.104472
-0.10366
-0.102874
-0.102112
-0.101375
-0.100663
-0.0999748
-0.0993113
-0.0986721
-0.098057
-0.0974658
-0.0968985
-0.0963549
-0.0958349
-0.0953383
-0.0948652
-0.0944152
-0.0939885
-0.0935848
-0.093204
-0.0928461
-0.092511
-0.0921987
-0.0919089
-0.0916417
-0.091397
-0.0911748
-0.0909749
-0.0907974
-0.0906421
-0.0905091
-0.0903983
-0.0903097
-0.0902433
-0.090199
-0.0901769
-0.163277
-0.161772
-0.160098
-0.158393
-0.156657
-0.154896
-0.153124
-0.151354
-0.149593
-0.14785
-0.146128
-0.144429
-0.142757
-0.141113
-0.139496
-0.137908
-0.136348
-0.134818
-0.133315
-0.131842
-0.130396
-0.128979