/*--------------------------------*- C++ -*----------------------------------*\
  =========                 |
  \\      /  F ield         | OpenFOAM: The Open Source CFD Toolbox
   \\    /   O peration     | Website:  https://openfoam.org
    \\  /    A nd           | Version:  7
     \\/     M anipulation  |
\*---------------------------------------------------------------------------*/
FoamFile
{
    version     2.0;
    format      ascii;
    class       volVectorField;
    location    "50.001";
    object      U;
}
// * * * * * * * * * * * * * * * * * * * * * * * * * * * * * * * * * * * * * //

dimensions      [0 1 -1 0 0 0 0];

internalField   nonuniform List<vector> 
11400
(
(1.15639 -0.0326155 0)
(1.15514 -0.0313951 0)
(1.15394 -0.0301824 0)
(1.15278 -0.0289772 -1.41433e-11)
(1.15167 -0.0277792 -1.39892e-11)
(1.15061 -0.0265883 0)
(1.1496 -0.0254043 0)
(1.14863 -0.024227 -7.04403e-29)
(1.1477 -0.023056 9.87736e-28)
(1.14682 -0.0218912 -1.13445e-27)
(1.14599 -0.0207322 0)
(1.1452 -0.019579 0)
(1.14446 -0.018431 0)
(1.14376 -0.0172882 -1.29189e-11)
(1.14311 -0.0161501 -1.28327e-11)
(1.1425 -0.0150166 0)
(1.14193 -0.0138873 0)
(1.14141 -0.0127618 0)
(1.14093 -0.01164 0)
(1.1405 -0.0105215 1.24924e-11)
(1.14011 -0.00940599 1.2442e-11)
(1.13976 -0.00829315 0)
(1.13946 -0.00718265 0)
(1.1392 -0.00607417 -1.23248e-11)
(1.13898 -0.00496736 -1.22971e-11)
(1.13881 -0.00386191 0)
(1.13868 -0.00275753 -6.3627e-29)
(1.1386 -0.00165408 6.35695e-29)
(1.13856 -0.000551305 0)
(1.20732 -0.0765087 0)
(1.23752 -0.0802932 0)
(1.25581 -0.0826235 0)
(1.26533 -0.0839673 0)
(1.26917 -0.0845054 0)
(1.26963 -0.0844768 0)
(1.26823 -0.0840975 0)
(1.26582 -0.0835064 0)
(1.26289 -0.0827813 0)
(1.2597 -0.0819647 0)
(1.25635 -0.0810802 0)
(1.25293 -0.08014 0)
(1.24945 -0.0791511 0)
(1.24595 -0.0781181 0)
(1.24246 -0.0770456 0)
(1.23901 -0.0759381 0)
(1.23562 -0.0748007 0)
(1.23231 -0.0736382 0)
(1.22909 -0.0724548 0)
(1.22596 -0.071254 0)
(1.22293 -0.0700385 0)
(1.21997 -0.0688103 0)
(1.21709 -0.0675712 0)
(1.21429 -0.0663224 0)
(1.21155 -0.0650654 0)
(1.20887 -0.0638013 0)
(1.20624 -0.0625314 0)
(1.20368 -0.061257 0)
(1.20117 -0.0599794 0)
(1.19872 -0.0586996 0)
(1.19633 -0.0574187 0)
(1.19398 -0.0561379 0)
(1.1917 -0.054858 0)
(1.18946 -0.0535799 0)
(1.18729 -0.0523043 0)
(1.18516 -0.051032 0)
(1.18309 -0.0497635 0)
(1.18107 -0.0484993 0)
(1.17911 -0.0472401 0)
(1.17719 -0.0459861 0)
(1.17533 -0.0447377 0)
(1.17352 -0.0434953 0)
(1.17177 -0.042259 0)
(1.17006 -0.0410291 0)
(1.16841 -0.0398058 0)
(1.1668 -0.0385891 0)
(1.16525 -0.0373792 0)
(1.16374 -0.0361761 0)
(1.16228 -0.0349798 0)
(1.16088 -0.0337903 0)
(1.15952 -0.0326077 0)
(1.15821 -0.0314318 0)
(1.15695 -0.0302625 0)
(1.15573 -0.0290998 0)
(1.15457 -0.0279435 0)
(1.15345 -0.0267935 0)
(1.15237 -0.0256496 0)
(1.15135 -0.0245117 0)
(1.15037 -0.0233797 0)
(1.14944 -0.0222532 2.96436e-28)
(1.14855 -0.0211321 -2.96436e-28)
(1.14771 -0.0200162 0)
(1.14691 -0.0189053 0)
(1.14616 -0.0177991 0)
(1.14545 -0.0166974 0)
(1.14479 -0.0155999 0)
(1.14418 -0.0145064 0)
(1.14361 -0.0134167 0)
(1.14308 -0.0123305 0)
(1.1426 -0.0112475 0)
(1.14216 -0.0101674 0)
(1.14177 -0.00908996 0)
(1.14142 -0.00801494 0)
(1.14111 -0.00694202 0)
(1.14085 -0.0058709 0)
(1.14063 -0.00480128 0)
(1.14045 -0.00373289 0)
(1.14032 -0.00266547 0)
(1.14024 -0.0015989 0)
(1.1402 -0.000532913 0)
(1.20067 -0.0705439 0)
(1.23268 -0.074356 0)
(1.25272 -0.0768183 0)
(1.26372 -0.0783499 0)
(1.26863 -0.0790779 0)
(1.2698 -0.079218 0)
(1.26883 -0.0789845 0)
(1.2667 -0.0785226 0)
(1.26395 -0.0779166 0)
(1.26088 -0.0772138 0)
(1.25763 -0.0764407 0)
(1.25429 -0.0756112 0)
(1.25088 -0.074733 0)
(1.24745 -0.0738109 0)
(1.24402 -0.0728493 0)
(1.24061 -0.0718524 0)
(1.23727 -0.0708248 0)
(1.23399 -0.0697709 0)
(1.2308 -0.0686949 0)
(1.2277 -0.0676 2.24794e-27)
(1.22469 -0.0664888 -2.24794e-27)
(1.22175 -0.0653634 0)
(1.21889 -0.0642253 0)
(1.2161 -0.063076 0)
(1.21337 -0.0619165 0)
(1.2107 -0.0607483 0)
(1.20809 -0.0595724 0)
(1.20554 -0.0583901 0)
(1.20304 -0.0572026 0)
(1.20059 -0.056011 0)
(1.19819 -0.0548163 0)
(1.19585 -0.0536197 0)
(1.19357 -0.0524221 0)
(1.19133 -0.0512243 0)
(1.18915 -0.0500271 0)
(1.18702 -0.0488313 0)
(1.18495 -0.0476374 0)
(1.18292 -0.0464461 0)
(1.18095 -0.0452579 0)
(1.17903 -0.0440733 0)
(1.17717 -0.0428926 0)
(1.17535 -0.0417161 0)
(1.17358 -0.0405443 0)
(1.17187 -0.0393773 -2.10092e-28)
(1.1702 -0.0382153 2.10092e-28)
(1.16859 -0.0370586 0)
(1.16703 -0.0359073 0)
(1.16551 -0.0347614 0)
(1.16405 -0.0336211 0)
(1.16263 -0.0324863 0)
(1.16126 -0.0313572 0)
(1.15994 -0.0302337 0)
(1.15867 -0.0291157 0)
(1.15745 -0.0280032 0)
(1.15627 -0.0268962 0)
(1.15514 -0.0257945 0)
(1.15406 -0.024698 0)
(1.15303 -0.0236066 0)
(1.15204 -0.0225203 0)
(1.1511 -0.0214387 -2.1682e-11)
(1.15021 -0.0203618 2.1682e-11)
(1.14936 -0.0192894 0)
(1.14856 -0.0182214 0)
(1.1478 -0.0171574 0)
(1.14709 -0.0160974 0)
(1.14642 -0.015041 0)
(1.1458 -0.0139882 0)
(1.14522 -0.0129387 0)
(1.14469 -0.0118922 0)
(1.1442 -0.0108486 0)
(1.14376 -0.00980749 0)
(1.14336 -0.00876879 0)
(1.14301 -0.0077322 0)
(1.1427 -0.00669745 0)
(1.14244 -0.0056643 0)
(1.14222 -0.00463248 0)
(1.14204 -0.00360175 0)
(1.14191 -0.00257191 0)
(1.14182 -0.00154282 0)
(1.14178 -0.000514226 0)
(1.19404 -0.0647919 0)
(1.22773 -0.0686069 0)
(1.24943 -0.0711731 0)
(1.26186 -0.0728659 0)
(1.26784 -0.0737671 0)
(1.26974 -0.0740677 0)
(1.26924 -0.073976 0)
(1.26741 -0.0736401 0)
(1.26485 -0.0731496 0)
(1.26191 -0.0725564 0)
(1.25876 -0.0718899 0)
(1.25549 -0.0711659 0)
(1.25215 -0.0703929 0)
(1.24878 -0.0695761 0)
(1.24541 -0.0687198 0)
(1.24206 -0.067828 0)
(1.23876 -0.0669049 0)
(1.23552 -0.0659547 0)
(1.23236 -0.0649811 0)
(1.22929 -0.0639874 0)
(1.2263 -0.0629761 0)
(1.22339 -0.0619491 0)
(1.22055 -0.0609081 0)
(1.21777 -0.0598543 0)
(1.21506 -0.058789 0)
(1.2124 -0.0577132 0)
(1.20981 -0.0566282 0)
(1.20726 -0.0555351 0)
(1.20477 -0.054435 0)
(1.20233 -0.0533291 0)
(1.19994 -0.0522184 0)
(1.1976 -0.0511039 0)
(1.19532 -0.0499866 0)
(1.19308 -0.0488674 0)
(1.1909 -0.0477471 0)
(1.18877 -0.0466264 0)
(1.18669 -0.0455059 0)
(1.18467 -0.0443864 0)
(1.18269 -0.0432682 0)
(1.18077 -0.042152 0)
(1.1789 -0.0410382 0)
(1.17707 -0.0399271 0)
(1.1753 -0.0388192 0)
(1.17358 -0.0377146 3.96814e-28)
(1.17191 -0.0366137 -3.96814e-28)
(1.17029 -0.0355166 0)
(1.16872 -0.0344236 0)
(1.1672 -0.0333349 0)
(1.16572 -0.0322504 0)
(1.1643 -0.0311703 0)
(1.16292 -0.0300947 0)
(1.1616 -0.0290236 0)
(1.16032 -0.027957 0)
(1.15909 -0.026895 0)
(1.15791 -0.0258374 0)
(1.15677 -0.0247842 0)
(1.15568 -0.0237354 0)
(1.15464 -0.0226909 0)
(1.15365 -0.0216505 0)
(1.1527 -0.0206143 -2.22151e-11)
(1.1518 -0.0195819 2.22151e-11)
(1.15094 -0.0185535 0)
(1.15014 -0.0175286 0)
(1.14937 -0.0165074 0)
(1.14866 -0.0154894 0)
(1.14798 -0.0144747 0)
(1.14736 -0.013463 0)
(1.14678 -0.0124541 0)
(1.14624 -0.0114479 0)
(1.14575 -0.0104441 0)
(1.14531 -0.00944258 0)
(1.14491 -0.0084431 0)
(1.14455 -0.00744546 0)
(1.14424 -0.00644942 0)
(1.14397 -0.00545477 0)
(1.14375 -0.00446128 0)
(1.14357 -0.00346875 0)
(1.14344 -0.00247701 0)
(1.14335 -0.00148593 0)
(1.14331 -0.000495271 0)
(1.18748 -0.0592518 0)
(1.22271 -0.0630463 0)
(1.24597 -0.0656905 0)
(1.25977 -0.0675188 0)
(1.26682 -0.0685747 0)
(1.26947 -0.0690255 0)
(1.26946 -0.0690699 0)
(1.26794 -0.0688559 0)
(1.26558 -0.0684772 0)
(1.26278 -0.0679896 0)
(1.25973 -0.0674254 0)
(1.25654 -0.0668021 0)
(1.25328 -0.0661295 0)
(1.24997 -0.0654131 0)
(1.24665 -0.0646571 0)
(1.24335 -0.0638654 0)
(1.24009 -0.063042 0)
(1.2369 -0.0621907 0)
(1.23378 -0.0613151 0)
(1.23073 -0.0604182 -3.59946e-27)
(1.22777 -0.0595026 3.59946e-27)
(1.22488 -0.0585702 0)
(1.22206 -0.0576225 0)
(1.2193 -0.0566607 0)
(1.21661 -0.055686 0)
(1.21397 -0.0546995 0)
(1.21139 -0.0537023 0)
(1.20885 -0.0526956 0)
(1.20637 -0.0516803 0)
(1.20394 -0.0506576 0)
(1.20156 -0.0496286 0)
(1.19923 -0.0485942 0)
(1.19695 -0.0475554 0)
(1.19472 -0.046513 0)
(1.19254 -0.045468 0)
(1.19041 -0.0444209 2.66438e-27)
(1.18833 -0.0433725 -2.66438e-27)
(1.18631 -0.0423235 0)
(1.18433 -0.0412744 0)
(1.18241 -0.0402257 0)
(1.18053 -0.039178 0)
(1.1787 -0.0381315 0)
(1.17693 -0.0370868 0)
(1.1752 -0.0360441 0)
(1.17353 -0.0350037 0)
(1.1719 -0.033966 0)
(1.17033 -0.032931 0)
(1.1688 -0.031899 0)
(1.16732 -0.0308702 0)
(1.16589 -0.0298447 0)
(1.16451 -0.0288226 0)
(1.16318 -0.0278039 2.1247e-27)
(1.16189 -0.0267888 -2.1247e-27)
(1.16065 -0.0257772 0)
(1.15947 -0.0247691 0)
(1.15832 -0.0237646 0)
(1.15723 -0.0227636 0)
(1.15618 -0.0217662 0)
(1.15518 -0.0207721 0)
(1.15423 -0.0197814 0)
(1.15332 -0.0187939 0)
(1.15246 -0.0178096 0)
(1.15165 -0.0168284 0)
(1.15088 -0.0158501 0)
(1.15016 -0.0148747 0)
(1.14949 -0.0139019 0)
(1.14886 -0.0129317 0)
(1.14827 -0.0119639 0)
(1.14773 -0.0109984 0)
(1.14724 -0.0100349 0)
(1.14679 -0.00907331 0)
(1.14639 -0.00811349 0)
(1.14603 -0.00715524 0)
(1.14571 -0.00619837 0)
(1.14544 -0.00524268 0)
(1.14522 -0.00428799 0)
(1.14504 -0.00333412 0)
(1.14491 -0.00238094 0)
(1.14482 -0.00142833 0)
(1.14478 -0.00047608 0)
(1.18102 -0.0539169 0)
(1.21767 -0.0576695 0)
(1.24237 -0.0603682 0)
(1.25748 -0.0623088 0)
(1.26557 -0.0635015 0)
(1.26899 -0.0640913 0)
(1.26949 -0.0642651 0)
(1.2683 -0.0641686 0)
(1.26616 -0.0638977 0)
(1.2635 -0.0635117 0)
(1.26055 -0.0630456 0)
(1.25745 -0.0625188 0)
(1.25426 -0.0619421 0)
(1.25101 -0.0613214 0)
(1.24775 -0.0606612 0)
(1.2445 -0.0599652 0)
(1.24129 -0.059237 0)
(1.23813 -0.0584803 0)
(1.23504 -0.0576985 0)
(1.23203 -0.0568945 0)
(1.22909 -0.0560707 0)
(1.22623 -0.0552291 0)
(1.22343 -0.0543711 0)
(1.2207 -0.0534979 0)
(1.21803 -0.0526106 0)
(1.21541 -0.0517103 0)
(1.21284 -0.0507981 0)
(1.21032 -0.049875 0)
(1.20785 -0.048942 0)
(1.20543 -0.0480002 0)
(1.20306 -0.0470506 0)
(1.20074 -0.0460942 0)
(1.19847 -0.045132 0)
(1.19624 -0.0441647 0)
(1.19407 -0.0431932 0)
(1.19194 -0.0422183 -1.30064e-27)
(1.18987 -0.0412407 1.30064e-27)
(1.18784 -0.040261 0)
(1.18587 -0.0392798 0)
(1.18394 -0.0382976 0)
(1.18207 -0.037315 0)
(1.18024 -0.0363324 0)
(1.17846 -0.0353501 0)
(1.17673 -0.0343687 0)
(1.17506 -0.0333883 0)
(1.17343 -0.0324094 0)
(1.17185 -0.031432 0)
(1.17031 -0.0304566 0)
(1.16883 -0.0294832 0)
(1.1674 -0.028512 0)
(1.16601 -0.0275432 0)
(1.16468 -0.0265768 -1.04136e-27)
(1.16339 -0.025613 1.04136e-27)
(1.16214 -0.0246519 0)
(1.16095 -0.0236934 0)
(1.15981 -0.0227376 0)
(1.15871 -0.0217845 0)
(1.15765 -0.0208342 0)
(1.15665 -0.0198865 0)
(1.15569 -0.0189415 9.63695e-28)
(1.15478 -0.0179991 -9.63695e-28)
(1.15392 -0.0170593 0)
(1.1531 -0.0161219 0)
(1.15233 -0.0151869 0)
(1.1516 -0.0142542 0)
(1.15092 -0.0133238 0)
(1.15029 -0.0123954 0)
(1.1497 -0.011469 0)
(1.14916 -0.0105444 0)
(1.14866 -0.00962157 0)
(1.14821 -0.00870034 0)
(1.14781 -0.00778056 0)
(1.14745 -0.00686208 0)
(1.14713 -0.00594475 0)
(1.14686 -0.00502841 0)
(1.14664 -0.0041129 0)
(1.14646 -0.00319809 0)
(1.14632 -0.00228386 0)
(1.14623 -0.00137013 0)
(1.14619 -0.000456688 0)
(1.17468 -0.0487779 0)
(1.21262 -0.052469 0)
(1.23866 -0.0552018 0)
(1.25501 -0.0572339 0)
(1.26413 -0.0585468 0)
(1.26831 -0.0592643 0)
(1.26934 -0.0595605 0)
(1.26849 -0.0595766 0)
(1.26658 -0.0594097 0)
(1.26407 -0.0591216 0)
(1.26123 -0.0587498 0)
(1.25822 -0.0583154 0)
(1.25509 -0.0578304 0)
(1.25191 -0.0573013 0)
(1.24871 -0.0567325 0)
(1.24551 -0.0561279 0)
(1.24234 -0.0554908 0)
(1.23923 -0.0548248 0)
(1.23618 -0.0541329 0)
(1.23319 -0.053418 0)
(1.23029 -0.0526825 0)
(1.22745 -0.0519281 0)
(1.22468 -0.0511565 0)
(1.22197 -0.0503686 0)
(1.21931 -0.0495657 0)
(1.21671 -0.0487487 0)
(1.21416 -0.0479187 0)
(1.21166 -0.0470765 0)
(1.20921 -0.0462233 0)
(1.2068 -0.04536 0)
(1.20444 -0.0444877 0)
(1.20213 -0.0436073 0)
(1.19987 -0.0427197 0)
(1.19765 -0.0418257 0)
(1.19549 -0.0409262 0)
(1.19337 -0.040022 1.31989e-27)
(1.1913 -0.0391137 -1.31989e-27)
(1.18928 -0.038202 0)
(1.1873 -0.0372875 0)
(1.18538 -0.0363708 0)
(1.1835 -0.0354523 0)
(1.18168 -0.0345326 0)
(1.1799 -0.0336121 0)
(1.17817 -0.0326912 -1.29983e-27)
(1.17649 -0.0317703 1.29983e-27)
(1.17486 -0.0308495 0)
(1.17328 -0.0299293 0)
(1.17175 -0.0290099 0)
(1.17026 -0.0280916 0)
(1.16883 -0.0271744 0)
(1.16744 -0.0262586 0)
(1.1661 -0.0253444 0)
(1.1648 -0.0244318 0)
(1.16356 -0.023521 0)
(1.16236 -0.022612 0)
(1.16121 -0.0217049 0)
(1.16011 -0.0207998 0)
(1.15906 -0.0198966 0)
(1.15805 -0.0189954 0)
(1.15709 -0.0180963 -9.83069e-28)
(1.15617 -0.017199 9.83069e-28)
(1.1553 -0.0163038 0)
(1.15448 -0.0154104 0)
(1.15371 -0.0145189 0)
(1.15298 -0.0136292 0)
(1.1523 -0.0127412 0)
(1.15166 -0.0118549 0)
(1.15107 -0.0109701 0)
(1.15053 -0.0100868 0)
(1.15003 -0.00920495 0)
(1.14957 -0.00832433 0)
(1.14917 -0.00744488 0)
(1.1488 -0.00656648 0)
(1.14849 -0.00568901 0)
(1.14822 -0.00481234 0)
(1.14799 -0.00393634 0)
(1.14781 -0.00306091 0)
(1.14768 -0.00218596 0)
(1.14759 -0.00131142 0)
(1.14754 -0.000437127 0)
(1.1685 -0.0438254 0)
(1.20759 -0.0474379 0)
(1.23488 -0.0501865 0)
(1.2524 -0.0522916 0)
(1.26251 -0.0537092 0)
(1.26744 -0.0545433 0)
(1.26901 -0.0549547 0)
(1.26852 -0.0550787 0)
(1.26684 -0.0550119 0)
(1.2645 -0.0548181 0)
(1.26177 -0.054537 0)
(1.25884 -0.0541913 0)
(1.25579 -0.0537941 0)
(1.25267 -0.0533526 0)
(1.24953 -0.0528715 0)
(1.24638 -0.0523544 0)
(1.24326 -0.0518046 0)
(1.24019 -0.0512254 0)
(1.23717 -0.0506198 0)
(1.23423 -0.0499905 3.6917e-27)
(1.23135 -0.0493398 -3.6917e-27)
(1.22854 -0.0486694 0)
(1.22579 -0.0479809 0)
(1.22311 -0.0472754 0)
(1.22048 -0.0465539 0)
(1.2179 -0.0458173 0)
(1.21537 -0.0450667 0)
(1.21288 -0.044303 0)
(1.21045 -0.0435272 0)
(1.20806 -0.0427402 0)
(1.20571 -0.041943 0)
(1.20341 -0.0411365 0)
(1.20116 -0.0403216 0)
(1.19896 -0.0394991 0)
(1.1968 -0.03867 0)
(1.19469 -0.0378349 -2.78469e-27)
(1.19262 -0.0369945 2.78469e-27)
(1.19061 -0.0361495 0)
(1.18864 -0.0353005 0)
(1.18672 -0.0344481 0)
(1.18485 -0.0335928 0)
(1.18302 -0.0327351 0)
(1.18125 -0.0318755 0)
(1.17952 -0.0310143 1.82235e-27)
(1.17784 -0.030152 -1.82235e-27)
(1.17621 -0.0292889 0)
(1.17463 -0.0284253 0)
(1.1731 -0.0275615 0)
(1.17161 -0.0266977 0)
(1.17017 -0.0258342 0)
(1.16878 -0.0249711 0)
(1.16744 -0.0241087 -2.60063e-11)
(1.16614 -0.0232471 2.60063e-11)
(1.1649 -0.0223865 0)
(1.1637 -0.0215268 0)
(1.16255 -0.0206683 0)
(1.16144 -0.019811 0)
(1.16038 -0.018955 0)
(1.15937 -0.0181003 0)
(1.15841 -0.017247 0)
(1.15749 -0.016395 0)
(1.15662 -0.0155444 0)
(1.1558 -0.0146951 0)
(1.15502 -0.0138472 0)
(1.15429 -0.0130006 0)
(1.15361 -0.0121553 0)
(1.15297 -0.0113112 0)
(1.15238 -0.0104683 0)
(1.15183 -0.00962645 0)
(1.15133 -0.0087857 0)
(1.15088 -0.00794591 0)
(1.15047 -0.00710702 0)
(1.1501 -0.00626894 0)
(1.14978 -0.00543157 0)
(1.14951 -0.00459482 0)
(1.14929 -0.00375859 0)
(1.1491 -0.0029228 0)
(1.14897 -0.00208739 0)
(1.14888 -0.00125232 0)
(1.14883 -0.000417432 0)
(1.1625 -0.0390503 0)
(1.20262 -0.0425691 0)
(1.23105 -0.0453177 0)
(1.24967 -0.0474794 0)
(1.26073 -0.0489871 0)
(1.26641 -0.0499271 0)
(1.26851 -0.0504463 0)
(1.2684 -0.0506732 0)
(1.26697 -0.0507028 0)
(1.26478 -0.0506 0)
(1.26218 -0.0504062 0)
(1.25934 -0.0501458 0)
(1.25636 -0.049833 0)
(1.25331 -0.0494755 0)
(1.25022 -0.0490783 0)
(1.24712 -0.048645 0)
(1.24405 -0.0481789 0)
(1.24102 -0.047683 0)
(1.23804 -0.0471603 0)
(1.23513 -0.0466133 -1.78478e-27)
(1.23229 -0.0460442 1.78478e-27)
(1.2295 -0.0454547 0)
(1.22679 -0.0448463 0)
(1.22413 -0.0442202 0)
(1.22152 -0.0435773 0)
(1.21896 -0.0429185 0)
(1.21645 -0.0422448 0)
(1.21399 -0.041557 0)
(1.21157 -0.0408562 0)
(1.2092 -0.0401432 0)
(1.20687 -0.039419 0)
(1.20458 -0.0386845 0)
(1.20235 -0.0379404 0)
(1.20015 -0.0371878 0)
(1.198 -0.0364273 0)
(1.1959 -0.0356597 0)
(1.19385 -0.0348858 0)
(1.19184 -0.0341061 0)
(1.18988 -0.0333214 0)
(1.18796 -0.0325322 0)
(1.1861 -0.031739 0)
(1.18428 -0.0309423 0)
(1.1825 -0.0301427 0)
(1.18078 -0.0293404 0)
(1.1791 -0.028536 0)
(1.17747 -0.0277299 0)
(1.17589 -0.0269222 0)
(1.17436 -0.0261134 0)
(1.17288 -0.0253037 0)
(1.17144 -0.0244934 0)
(1.17005 -0.0236827 0)
(1.1687 -0.0228718 -2.64283e-11)
(1.16741 -0.0220609 2.64283e-11)
(1.16616 -0.0212501 0)
(1.16496 -0.0204396 0)
(1.16381 -0.0196295 0)
(1.1627 -0.0188199 0)
(1.16164 -0.0180109 0)
(1.16063 -0.0172027 0)
(1.15967 -0.0163951 0)
(1.15875 -0.0155883 0)
(1.15788 -0.0147824 0)
(1.15705 -0.0139772 0)
(1.15627 -0.0131729 0)
(1.15554 -0.0123695 0)
(1.15485 -0.0115669 0)
(1.15421 -0.0107652 0)
(1.15362 -0.00996418 0)
(1.15307 -0.00916398 0)
(1.15257 -0.0083645 0)
(1.15211 -0.00756571 0)
(1.1517 -0.00676754 0)
(1.15134 -0.00596995 0)
(1.15102 -0.00517286 0)
(1.15075 -0.00437621 0)
(1.15052 -0.00357994 0)
(1.15034 -0.00278398 0)
(1.1502 -0.00198831 0)
(1.15011 -0.00119291 0)
(1.15007 -0.000397634 0)
(1.15668 -0.0344439 0)
(1.19772 -0.0378561 0)
(1.22719 -0.040591 0)
(1.24685 -0.0427945 0)
(1.25882 -0.044379 0)
(1.26522 -0.0454145 0)
(1.26787 -0.0460342 0)
(1.26813 -0.0463589 0)
(1.26695 -0.0464811 0)
(1.26494 -0.046466 0)
(1.26246 -0.0463564 0)
(1.25971 -0.0461782 0)
(1.2568 -0.0459464 0)
(1.25381 -0.0456695 0)
(1.25078 -0.0453529 0)
(1.24774 -0.0450001 0)
(1.24472 -0.0446143 0)
(1.24173 -0.0441985 0)
(1.23879 -0.0437555 0)
(1.23591 -0.0432876 0)
(1.2331 -0.042797 0)
(1.23035 -0.0422855 0)
(1.22766 -0.0417544 0)
(1.22503 -0.0412049 0)
(1.22245 -0.0406378 0)
(1.21991 -0.0400542 0)
(1.21743 -0.0394549 0)
(1.21498 -0.0388408 0)
(1.21259 -0.0382127 0)
(1.21023 -0.0375716 0)
(1.20792 -0.0369183 0)
(1.20565 -0.0362537 0)
(1.20342 -0.0355787 0)
(1.20124 -0.0348941 0)
(1.19911 -0.0342007 0)
(1.19702 -0.0334991 0)
(1.19497 -0.0327902 0)
(1.19297 -0.0320745 0)
(1.19102 -0.0313528 0)
(1.18911 -0.0306255 0)
(1.18725 -0.0298933 0)
(1.18544 -0.0291566 0)
(1.18367 -0.028416 0)
(1.18195 -0.0276718 0)
(1.18028 -0.0269246 0)
(1.17865 -0.0261746 0)
(1.17707 -0.0254222 0)
(1.17554 -0.0246678 0)
(1.17406 -0.0239116 0)
(1.17262 -0.023154 0)
(1.17123 -0.0223952 0)
(1.16989 -0.0216354 -2.68252e-11)
(1.1686 -0.0208747 2.68252e-11)
(1.16735 -0.0201135 0)
(1.16615 -0.0193519 0)
(1.165 -0.01859 0)
(1.16389 -0.0178279 0)
(1.16283 -0.0170658 0)
(1.16182 -0.0163037 0)
(1.16085 -0.0155419 2.1557e-27)
(1.15993 -0.0147802 -2.1557e-27)
(1.15906 -0.0140188 0)
(1.15824 -0.0132578 0)
(1.15746 -0.0124971 0)
(1.15672 -0.0117369 0)
(1.15604 -0.010977 0)
(1.15539 -0.0102176 0)
(1.1548 -0.00945866 0)
(1.15425 -0.00870013 0)
(1.15375 -0.00794201 0)
(1.15329 -0.0071843 0)
(1.15288 -0.00642696 0)
(1.15252 -0.00566997 0)
(1.1522 -0.00491328 0)
(1.15192 -0.00415686 0)
(1.15169 -0.00340067 0)
(1.15151 -0.00264468 0)
(1.15138 -0.00188889 0)
(1.15129 -0.00113328 0)
(1.15124 -0.000377764 0)
(1.15107 -0.0299975 0)
(1.19291 -0.0332921 0)
(1.22333 -0.0360018 0)
(1.24394 -0.0382343 0)
(1.25678 -0.0398834 0)
(1.26389 -0.0410044 0)
(1.26707 -0.0417174 0)
(1.26771 -0.0421349 0)
(1.2668 -0.0423458 0)
(1.26497 -0.0424152 0)
(1.26261 -0.0423868 0)
(1.25996 -0.0422878 0)
(1.25713 -0.042134 0)
(1.2542 -0.0419346 0)
(1.25123 -0.0416953 0)
(1.24824 -0.0414198 0)
(1.24526 -0.0411112 0)
(1.24232 -0.0407724 0)
(1.23942 -0.040406 0)
(1.23658 -0.0400143 0)
(1.2338 -0.0395995 0)
(1.23108 -0.0391631 0)
(1.22842 -0.0387065 0)
(1.22582 -0.0382309 0)
(1.22326 -0.0377373 0)
(1.22075 -0.0372264 0)
(1.21829 -0.0366991 0)
(1.21587 -0.0361563 0)
(1.21349 -0.0355987 0)
(1.21116 -0.0350274 0)
(1.20886 -0.034443 0)
(1.20661 -0.0338465 0)
(1.2044 -0.0332387 0)
(1.20224 -0.0326204 0)
(1.20011 -0.0319923 0)
(1.19804 -0.0313553 0)
(1.196 -0.0307099 0)
(1.19401 -0.0300569 0)
(1.19207 -0.0293968 0)
(1.19017 -0.0287304 0)
(1.18832 -0.028058 0)
(1.18651 -0.0273803 0)
(1.18475 -0.0266977 0)
(1.18304 -0.0260106 0)
(1.18137 -0.0253196 0)
(1.17975 -0.0246251 0)
(1.17817 -0.0239273 0)
(1.17665 -0.0232266 0)
(1.17517 -0.0225233 0)
(1.17373 -0.0218179 0)
(1.17234 -0.0211104 0)
(1.171 -0.0204012 -2.7197e-11)
(1.16971 -0.0196904 2.7197e-11)
(1.16847 -0.0189784 0)
(1.16727 -0.0182653 0)
(1.16611 -0.0175512 0)
(1.16501 -0.0168364 0)
(1.16395 -0.0161209 0)
(1.16294 -0.0154049 0)
(1.16197 -0.0146885 -1.05121e-27)
(1.16105 -0.0139718 1.05121e-27)
(1.16018 -0.0132549 0)
(1.15935 -0.0125379 0)
(1.15857 -0.0118208 0)
(1.15784 -0.0111036 0)
(1.15715 -0.0103865 0)
(1.15651 -0.00966943 0)
(1.15592 -0.00895246 0)
(1.15537 -0.0082356 0)
(1.15486 -0.00751886 0)
(1.15441 -0.00680225 0)
(1.154 -0.00608578 0)
(1.15363 -0.00536944 0)
(1.15331 -0.00465321 0)
(1.15304 -0.00393708 0)
(1.15281 -0.00322104 9.76924e-28)
(1.15263 -0.0025051 -9.76924e-28)
(1.15249 -0.00178925 0)
(1.1524 -0.00107353 0)
(1.15235 -0.000357853 0)
(1.14567 -0.0257037 0)
(1.18821 -0.0288712 0)
(1.21948 -0.0315461 0)
(1.24098 -0.0337962 0)
(1.25464 -0.0354988 0)
(1.26243 -0.0366959 0)
(1.26614 -0.0374951 0)
(1.26717 -0.0380001 0)
(1.26652 -0.038296 0)
(1.26488 -0.0384468 0)
(1.26265 -0.0384967 0)
(1.26009 -0.0384739 0)
(1.25734 -0.0383953 0)
(1.25448 -0.0382705 0)
(1.25156 -0.0381055 0)
(1.24862 -0.0379044 0)
(1.24569 -0.03767 0)
(1.24279 -0.0374053 0)
(1.23994 -0.0371127 0)
(1.23713 -0.0367944 1.80926e-27)
(1.23439 -0.0364525 -1.80926e-27)
(1.2317 -0.0360886 0)
(1.22907 -0.035704 0)
(1.22649 -0.0352999 0)
(1.22397 -0.0348771 0)
(1.22148 -0.0344365 0)
(1.21905 -0.033979 0)
(1.21665 -0.0335052 0)
(1.21429 -0.0330161 0)
(1.21198 -0.0325124 0)
(1.2097 -0.0319951 0)
(1.20747 -0.0314648 0)
(1.20528 -0.0309224 0)
(1.20313 -0.0303687 0)
(1.20102 -0.0298045 0)
(1.19896 -0.0292303 1.39562e-27)
(1.19694 -0.0286471 -1.39562e-27)
(1.19496 -0.0280553 0)
(1.19303 -0.0274557 0)
(1.19114 -0.0268488 0)
(1.18929 -0.0262351 0)
(1.1875 -0.0256152 0)
(1.18574 -0.0249897 0)
(1.18404 -0.0243589 -1.38915e-27)
(1.18237 -0.0237232 1.38915e-27)
(1.18076 -0.0230832 0)
(1.17919 -0.0224392 0)
(1.17767 -0.0217916 0)
(1.17619 -0.0211406 0)
(1.17476 -0.0204866 0)
(1.17338 -0.01983 0)
(1.17204 -0.0191708 0)
(1.17075 -0.0185095 0)
(1.16951 -0.0178463 0)
(1.16831 -0.0171813 0)
(1.16716 -0.0165147 0)
(1.16605 -0.0158468 0)
(1.165 -0.0151776 0)
(1.16399 -0.0145074 0)
(1.16302 -0.0138363 0)
(1.1621 -0.0131644 0)
(1.16123 -0.0124917 0)
(1.16041 -0.0118185 0)
(1.15963 -0.0111448 0)
(1.15889 -0.0104706 0)
(1.15821 -0.00979613 0)
(1.15756 -0.00912132 0)
(1.15697 -0.00844628 0)
(1.15642 -0.00777104 0)
(1.15592 -0.00709564 0)
(1.15546 -0.00642012 0)
(1.15505 -0.00574449 0)
(1.15468 -0.00506879 0)
(1.15436 -0.00439301 0)
(1.15409 -0.00371718 0)
(1.15386 -0.00304131 -9.91766e-28)
(1.15368 -0.00236543 9.91766e-28)
(1.15354 -0.00168956 0)
(1.15345 -0.00101374 0)
(1.15341 -0.000337928 0)
(1.14049 -0.0215539 0)
(1.18362 -0.024586 0)
(1.21565 -0.0272192 0)
(1.23797 -0.0294775 0)
(1.2524 -0.0312235 0)
(1.26086 -0.0324881 0)
(1.26509 -0.0333667 0)
(1.2665 -0.0339541 0)
(1.26612 -0.034331 0)
(1.26466 -0.03456 0)
(1.26257 -0.0346855 0)
(1.26011 -0.0347362 0)
(1.25744 -0.0347299 0)
(1.25464 -0.0346769 0)
(1.25178 -0.0345836 0)
(1.2489 -0.0344539 0)
(1.24602 -0.034291 0)
(1.24316 -0.0340975 0)
(1.24034 -0.033876 0)
(1.23758 -0.0336285 -3.777e-27)
(1.23487 -0.0333569 3.777e-27)
(1.23221 -0.033063 0)
(1.22961 -0.0327479 0)
(1.22707 -0.0324128 0)
(1.22457 -0.0320586 0)
(1.22211 -0.0316861 0)
(1.2197 -0.031296 0)
(1.21733 -0.0308892 0)
(1.21499 -0.0304665 0)
(1.2127 -0.0300286 0)
(1.21045 -0.0295763 0)
(1.20823 -0.0291104 0)
(1.20606 -0.0286317 0)
(1.20393 -0.0281409 0)
(1.20184 -0.0276389 0)
(1.19979 -0.0271262 -2.92856e-27)
(1.19778 -0.0266036 2.92856e-27)
(1.19581 -0.0260718 0)
(1.19389 -0.0255312 0)
(1.19202 -0.0249826 0)
(1.19018 -0.0244265 0)
(1.18839 -0.0238634 0)
(1.18665 -0.0232939 0)
(1.18495 -0.0227183 0)
(1.1833 -0.0221371 0)
(1.18169 -0.0215509 0)
(1.18013 -0.0209599 0)
(1.17861 -0.0203645 0)
(1.17714 -0.0197651 0)
(1.17571 -0.019162 0)
(1.17434 -0.0185555 0)
(1.173 -0.0179459 0)
(1.17172 -0.0173335 0)
(1.17048 -0.0167185 0)
(1.16928 -0.0161012 0)
(1.16813 -0.0154817 0)
(1.16703 -0.0148603 0)
(1.16598 -0.0142371 0)
(1.16497 -0.0136124 0)
(1.164 -0.0129862 0)
(1.16309 -0.0123588 0)
(1.16222 -0.0117302 0)
(1.16139 -0.0111006 0)
(1.16061 -0.0104701 0)
(1.15988 -0.00983878 0)
(1.15919 -0.00920673 0)
(1.15855 -0.00857405 0)
(1.15796 -0.00794081 2.14418e-27)
(1.15741 -0.00730708 -2.14418e-27)
(1.15691 -0.00667293 0)
(1.15645 -0.00603841 0)
(1.15604 -0.00540356 0)
(1.15567 -0.00476843 0)
(1.15535 -0.00413306 0)
(1.15508 -0.00349748 0)
(1.15485 -0.00286173 0)
(1.15467 -0.00222587 0)
(1.15453 -0.00158993 0)
(1.15444 -0.000953996 0)
(1.1544 -0.000318017 0)
(1.13552 -0.0175441 0)
(1.17915 -0.020432 0)
(1.21187 -0.0230178 0)
(1.23494 -0.025276 0)
(1.25009 -0.0270566 0)
(1.25918 -0.0283804 0)
(1.26391 -0.0293315 0)
(1.2657 -0.0299963 0)
(1.2656 -0.0304503 0)
(1.26434 -0.0307543 0)
(1.26238 -0.0309525 0)
(1.26002 -0.0310741 0)
(1.25743 -0.0311375 0)
(1.2547 -0.0311537 0)
(1.2519 -0.0311292 0)
(1.24907 -0.0310684 0)
(1.24623 -0.0309742 0)
(1.24342 -0.0308495 0)
(1.24065 -0.0306964 0)
(1.23792 -0.0305171 0)
(1.23524 -0.0303135 0)
(1.23262 -0.0300871 0)
(1.23005 -0.0298391 0)
(1.22754 -0.0295708 0)
(1.22507 -0.0292829 0)
(1.22264 -0.0289763 0)
(1.22025 -0.0286516 0)
(1.2179 -0.0283098 0)
(1.2156 -0.0279514 0)
(1.21333 -0.0275773 0)
(1.21109 -0.0271882 0)
(1.2089 -0.0267849 0)
(1.20675 -0.0263682 0)
(1.20463 -0.0259388 0)
(1.20256 -0.0254974 0)
(1.20052 -0.0250446 1.41685e-27)
(1.19853 -0.0245813 -1.41685e-27)
(1.19658 -0.0241079 0)
(1.19467 -0.0236252 0)
(1.19281 -0.0231337 0)
(1.19099 -0.022634 0)
(1.18921 -0.0221266 0)
(1.18748 -0.021612 0)
(1.18579 -0.0210906 0)
(1.18414 -0.020563 0)
(1.18254 -0.0200296 0)
(1.18099 -0.0194907 0)
(1.17948 -0.0189469 0)
(1.17801 -0.0183983 0)
(1.17659 -0.0178454 0)
(1.17522 -0.0172884 0)
(1.17389 -0.0167278 0)
(1.17261 -0.0161637 0)
(1.17137 -0.0155965 0)
(1.17018 -0.0150263 0)
(1.16904 -0.0144535 0)
(1.16794 -0.0138782 0)
(1.16689 -0.0133006 0)
(1.16588 -0.012721 0)
(1.16492 -0.0121395 0)
(1.164 -0.0115562 0)
(1.16313 -0.0109714 0)
(1.16231 -0.0103851 0)
(1.16153 -0.00979759 0)
(1.1608 -0.00920886 0)
(1.16012 -0.00861906 0)
(1.15948 -0.00802831 0)
(1.15889 -0.00743671 0)
(1.15834 -0.00684433 0)
(1.15784 -0.00625128 0)
(1.15738 -0.00565761 0)
(1.15697 -0.00506342 0)
(1.1566 -0.00446875 0)
(1.15629 -0.00387367 0)
(1.15601 -0.00327825 0)
(1.15578 -0.00268253 0)
(1.1556 -0.0020866 0)
(1.15547 -0.00149052 0)
(1.15538 -0.000894369 0)
(1.15533 -0.000298145 0)
(1.13078 -0.0136642 0)
(1.17482 -0.0164 0)
(1.20813 -0.0189375 0)
(1.23189 -0.0211903 0)
(1.24772 -0.0229976 0)
(1.25741 -0.0243728 0)
(1.26263 -0.0253898 0)
(1.2648 -0.0261265 0)
(1.26497 -0.0266535 0)
(1.2639 -0.0270292 0)
(1.26209 -0.0272973 0)
(1.25983 -0.0274872 -4.33725e-27)
(1.25731 -0.0276178 4.33725e-27)
(1.25465 -0.0277005 0)
(1.25191 -0.0277424 0)
(1.24913 -0.0277478 0)
(1.24635 -0.02772 0)
(1.24358 -0.0276614 0)
(1.24085 -0.0275743 0)
(1.23816 -0.0274609 3.78993e-27)
(1.23552 -0.0273228 -3.78993e-27)
(1.23293 -0.0271616 0)
(1.2304 -0.0269786 0)
(1.22791 -0.0267748 0)
(1.22547 -0.0265511 0)
(1.22307 -0.0263082 0)
(1.22071 -0.0260469 0)
(1.21839 -0.025768 0)
(1.2161 -0.0254721 0)
(1.21386 -0.02516 0)
(1.21165 -0.0248323 0)
(1.20947 -0.0244899 0)
(1.20734 -0.0241335 0)
(1.20524 -0.0237638 0)
(1.20319 -0.0233814 0)
(1.20117 -0.0229872 0)
(1.1992 -0.0225817 0)
(1.19726 -0.0221655 0)
(1.19537 -0.0217393 0)
(1.19352 -0.0213037 0)
(1.19171 -0.0208592 0)
(1.18994 -0.0204063 0)
(1.18822 -0.0199456 0)
(1.18654 -0.0194775 0)
(1.1849 -0.0190025 0)
(1.18331 -0.018521 0)
(1.18177 -0.0180334 0)
(1.18026 -0.0175402 0)
(1.17881 -0.0170417 0)
(1.17739 -0.0165382 0)
(1.17603 -0.0160302 0)
(1.1747 -0.0155178 0)
(1.17343 -0.0150015 0)
(1.1722 -0.0144814 0)
(1.17101 -0.0139579 0)
(1.16987 -0.0134312 0)
(1.16878 -0.0129016 0)
(1.16773 -0.0123692 0)
(1.16672 -0.0118342 0)
(1.16577 -0.011297 2.29898e-27)
(1.16485 -0.0107575 -2.29898e-27)
(1.16399 -0.0102161 0)
(1.16317 -0.00967292 0)
(1.16239 -0.00912803 0)
(1.16166 -0.00858163 0)
(1.16098 -0.00803383 0)
(1.16034 -0.00748478 0)
(1.15975 -0.00693458 -2.19677e-27)
(1.1592 -0.00638335 2.19677e-27)
(1.1587 -0.00583119 0)
(1.15825 -0.00527821 0)
(1.15784 -0.00472449 0)
(1.15747 -0.00417012 0)
(1.15716 -0.00361518 0)
(1.15688 -0.00305976 0)
(1.15666 -0.00250393 0)
(1.15647 -0.00194779 0)
(1.15634 -0.00139142 0)
(1.15625 -0.000834937 0)
(1.1562 -0.000278339 0)
(1.12625 -0.00992184 0)
(1.17061 -0.0124864 0)
(1.20445 -0.0149761 0)
(1.22883 -0.0172196 0)
(1.24529 -0.0190462 0)
(1.25555 -0.0204648 0)
(1.26125 -0.0215409 0)
(1.26378 -0.0223442 0)
(1.26423 -0.0229402 0)
(1.26336 -0.0233844 0)
(1.26169 -0.0237194 0)
(1.25954 -0.0239749 2.07936e-27)
(1.2571 -0.0241702 -2.07936e-27)
(1.25451 -0.0243171 0)
(1.25183 -0.0244229 0)
(1.2491 -0.0244922 0)
(1.24636 -0.0245282 0)
(1.24364 -0.0245334 0)
(1.24095 -0.02451 0)
(1.2383 -0.0244601 0)
(1.2357 -0.0243853 0)
(1.23314 -0.0242872 0)
(1.23064 -0.0241669 0)
(1.22818 -0.0240256 0)
(1.22577 -0.0238639 0)
(1.2234 -0.0236829 0)
(1.22107 -0.023483 0)
(1.21877 -0.0232651 1.60738e-27)
(1.21652 -0.0230298 -1.60738e-27)
(1.21429 -0.0227778 0)
(1.21211 -0.0225098 0)
(1.20996 -0.0222266 0)
(1.20784 -0.0219289 0)
(1.20577 -0.0216173 0)
(1.20373 -0.0212926 0)
(1.20173 -0.0209553 0)
(1.19977 -0.0206062 0)
(1.19786 -0.0202459 0)
(1.19598 -0.019875 0)
(1.19414 -0.019494 0)
(1.19234 -0.0191035 0)
(1.19059 -0.0187041 0)
(1.18888 -0.0182961 0)
(1.18721 -0.0178803 0)
(1.18559 -0.0174569 0)
(1.18401 -0.0170264 0)
(1.18247 -0.0165893 0)
(1.18098 -0.0161459 0)
(1.17953 -0.0156967 0)
(1.17812 -0.0152419 0)
(1.17676 -0.014782 0)
(1.17545 -0.0143173 -2.86875e-11)
(1.17418 -0.013848 2.86875e-11)
(1.17295 -0.0133746 0)
(1.17177 -0.0128971 0)
(1.17063 -0.012416 0)
(1.16954 -0.0119315 0)
(1.1685 -0.0114438 0)
(1.1675 -0.0109531 0)
(1.16655 -0.0104597 -1.11541e-27)
(1.16564 -0.00996366 1.11541e-27)
(1.16478 -0.0094653 0)
(1.16396 -0.00896476 0)
(1.16319 -0.00846221 0)
(1.16246 -0.00795781 0)
(1.16178 -0.00745172 0)
(1.16114 -0.00694407 0)
(1.16055 -0.00643501 0)
(1.16001 -0.00592468 0)
(1.15951 -0.00541318 0)
(1.15905 -0.00490065 0)
(1.15865 -0.00438718 0)
(1.15828 -0.0038729 0)
(1.15797 -0.0033579 0)
(1.15769 -0.00284228 0)
(1.15747 -0.00232615 0)
(1.15729 -0.00180961 0)
(1.15715 -0.00129278 0)
(1.15706 -0.000775772 0)
(1.15701 -0.000258621 0)
(1.12194 -0.00628987 0)
(1.16654 -0.00867577 0)
(1.20083 -0.0111366 0)
(1.22578 -0.0133689 0)