/*--------------------------------*- C++ -*----------------------------------*\
  =========                 |
  \\      /  F ield         | OpenFOAM: The Open Source CFD Toolbox
   \\    /   O peration     | Website:  https://openfoam.org
    \\  /    A nd           | Version:  7
     \\/     M anipulation  |
\*---------------------------------------------------------------------------*/
FoamFile
{
    version     2.0;
    format      ascii;
    class       volScalarField;
    location    "5";
    object      p;
}
// * * * * * * * * * * * * * * * * * * * * * * * * * * * * * * * * * * * * * //

dimensions      [0 2 -2 0 0 0 0];

internalField   nonuniform List<scalar> 
10880
(
-0.352159
-0.357457
-0.360063
-0.360399
-0.359314
-0.357084
-0.353843
-0.349713
-0.344797
-0.339182
-0.332941
-0.326144
-0.318859
-0.311155
-0.303113
-0.294822
-0.286377
-0.277849
-0.269332
-0.26123
-0.358153
-0.362552
-0.364484
-0.364334
-0.362854
-0.360298
-0.356792
-0.352446
-0.347354
-0.341592
-0.335227
-0.328313
-0.32091
-0.313076
-0.304878
-0.296403
-0.28774
-0.278895
-0.269864
-0.261755
-0.369682
-0.372371
-0.373007
-0.371906
-0.369645
-0.366439
-0.362397
-0.357612
-0.35216
-0.346098
-0.33947
-0.33232
-0.324684
-0.3166
-0.308113
-0.299298
-0.290239
-0.280836
-0.270891
-0.262674
-0.385953
-0.386276
-0.385081
-0.382607
-0.379202
-0.375028
-0.370179
-0.364726
-0.358716
-0.352184
-0.345155
-0.337644
-0.329664
-0.321224
-0.312342
-0.303075
-0.293504
-0.283415
-0.272323
-0.263755
-0.40604
-0.403513
-0.400066
-0.395858
-0.390981
-0.385548
-0.379635
-0.373285
-0.36652
-0.359348
-0.351766
-0.343764
-0.335328
-0.326438
-0.31708
-0.307288
-0.297134
-0.286325
-0.274022
-0.26473
-0.429074
-0.423373
-0.41736
-0.411133
-0.404517
-0.397573
-0.390367
-0.382916
-0.37521
-0.367229
-0.35894
-0.350306
-0.341287
-0.331836
-0.32191
-0.311516
-0.300717
-0.289168
-0.275671
-0.265196
-0.454352
-0.445264
-0.436475
-0.428029
-0.419479
-0.410837
-0.40216
-0.393434
-0.384619
-0.375659
-0.366495
-0.357062
-0.34729
-0.337111
-0.326456
-0.315299
-0.303669
-0.291162
-0.276317
-0.264273
-0.481323
-0.468715
-0.457024
-0.446248
-0.435651
-0.425194
-0.414916
-0.404776
-0.394693
-0.384584
-0.374359
-0.363933
-0.353225
-0.342158
-0.330663
-0.318698
-0.306214
-0.292733
-0.27701
-0.264191
-0.509454
-0.493243
-0.478616
-0.465487
-0.452809
-0.440475
-0.428501
-0.416806
-0.405275
-0.393793
-0.382256
-0.370577
-0.358691
-0.346571
-0.33423
-0.321739
-0.309197
-0.296819
-0.285743
-0.278054
-0.538047
-0.518234
-0.50072
-0.485296
-0.470559
-0.456312
-0.442534
-0.429099
-0.415852
-0.402653
-0.389385
-0.375962
-0.362331
-0.34848
-0.33444
-0.320275
-0.306072
-0.292097
-0.279225
-0.266641
-0.566062
-0.54276
-0.522514
-0.504923
-0.488184
-0.471982
-0.456252
-0.440825
-0.425521
-0.410192
-0.394737
-0.379099
-0.363264
-0.347263
-0.331162
-0.315049
-0.299023
-0.283291
-0.268272
-0.252816
-0.591983
-0.565478
-0.542771
-0.523195
-0.504512
-0.486277
-0.468381
-0.450634
-0.43286
-0.414946
-0.396844
-0.378564
-0.360162
-0.341732
-0.323391
-0.305261
-0.28746
-0.270161
-0.253591
-0.236747
-0.613791
-0.584577
-0.559805
-0.538466
-0.517883
-0.49749
-0.47716
-0.45673
-0.43608
-0.415188
-0.394108
-0.372956
-0.351883
-0.331058
-0.31065
-0.29081
-0.271665
-0.253366
-0.236035
-0.218865
-0.62902
-0.597821
-0.571498
-0.548643
-0.526188
-0.503487
-0.480457
-0.457024
-0.433202
-0.409113
-0.384959
-0.360977
-0.337415
-0.314503
-0.292435
-0.271357
-0.251377
-0.232592
-0.215027
-0.198048
-0.634903
-0.602656
-0.5754
-0.551301
-0.527012
-0.50189
-0.475977
-0.449382
-0.422315
-0.395094
-0.368081
-0.341632
-0.316062
-0.291623
-0.268494
-0.246784
-0.226543
-0.207789
-0.190449
-0.174107
-0.628593
-0.596407
-0.568915
-0.543879
-0.517853
-0.490314
-0.461531
-0.431876
-0.401812
-0.371865
-0.342545
-0.314289
-0.287433
-0.262203
-0.238724
-0.217035
-0.197114
-0.178877
-0.162173
-0.146903
-0.607425
-0.576517
-0.549542
-0.523942
-0.496401
-0.466657
-0.435302
-0.40303
-0.370575
-0.338655
-0.307879
-0.278713
-0.251458
-0.226275
-0.203204
-0.182203
-0.16317
-0.145917
-0.130249
-0.116489
-0.569202
-0.540827
-0.515164
-0.489467
-0.460821
-0.429361
-0.396071
-0.361987
-0.328093
-0.295242
-0.264085
-0.235052
-0.20837
-0.1841
-0.162188
-0.142511
-0.124886
-0.109025
-0.0947047
-0.0827153
-0.512468
-0.487848
-0.464314
-0.439116
-0.410005
-0.377627
-0.343376
-0.308607
-0.274494
-0.241957
-0.211618
-0.183827
-0.158701
-0.136196
-0.116168
-0.0984216
-0.0827107
-0.0686387
-0.0559851
-0.0461558
-0.43674
-0.416999
-0.396419
-0.372452
-0.343756
-0.311538
-0.277578
-0.243484
-0.210536
-0.179645
-0.15135
-0.125884
-0.103252
-0.0833063
-0.0658284
-0.0505747
-0.0372377
-0.0253263
-0.0146967
-0.00749028
-0.342663
-0.328767
-0.311955
-0.29008
-0.262861
-0.232097
-0.199858
-0.167903
-0.137544
-0.109611
-0.0845191
-0.0623755
-0.0430749
-0.0263897
-0.0120471
0.000225556
0.0107811
0.0201975
0.0285291
0.0328855
-0.232054
-0.224793
-0.212531
-0.193708
-0.169048
-0.141154
-0.112121
-0.0837677
-0.0573443
-0.0335576
-0.0126879
0.00527994
0.0205421
0.0333846
0.0441093
0.0530023
0.0604489
0.0670873
0.0728495
0.0741516
-0.107744
-0.107896
-0.10078
-0.0858371
-0.0651568
-0.0414163
-0.016943
0.00651224
0.027839
0.0464847
0.0623049
0.0754162
0.0860778
0.0946046
0.101305
0.106467
0.110472
0.113903
0.116543
0.114777
0.025914
0.0183375
0.0196708
0.0298203
0.0455352
0.0639063
0.0826506
0.100161
0.115501
0.12828
0.138474
0.146273
0.151966
0.155865
0.158261
0.15942
0.159591
0.159001
0.157481
0.153027
0.164369
0.14922
0.144434
0.149124
0.159025
0.171116
0.18329
0.194145
0.202944
0.209454
0.213755
0.216097
0.216787
0.216135
0.214448
0.212008
0.208868
0.204581
0.199536
0.19951
0.302214
0.279671
0.268651
0.26747
0.271011
0.276277
0.281413
0.285265
0.287292
0.2874
0.28575
0.282619
0.278314
0.273129
0.267345
0.261201
0.25471
0.24758
0.240536
0.237961
0.433829
0.404348
0.387243
0.380099
0.377121
0.375438
0.373497
0.370401
0.365796
0.359704
0.352341
0.343994
0.334954
0.325484
0.31582
0.306148
0.296474
0.286631
0.277277
0.271538
0.553672
0.517964
0.495206
0.482361
0.473116
0.464794
0.456161
0.446564
0.435811
0.424016
0.411429
0.398333
0.384994
0.371637
0.358455
0.345585
0.333032
0.320686
0.309036
0.300237
0.656581
0.615582
0.58789
0.569958
0.555109
0.540886
0.526349
0.511062
0.494968
0.478247
0.461168
0.444004
0.426989
0.410316
0.394131
0.378538
0.363536
0.349056
0.335413
0.32397
0.738048
0.692895
0.661244
0.639169
0.619752
0.600739
0.581439
0.561589
0.541232
0.520597
0.499962
0.479582
0.459669
0.440381
0.421833
0.404095
0.38717
0.371013
0.355792
0.342239
0.794468
0.746452
0.712033
0.687032
0.664388
0.642003
0.619363
0.596326
0.573003
0.549653
0.526554
0.503952
0.482038
0.460946
0.440768
0.421552
0.403305
0.385997
0.369685
0.354664
0.823324
0.773848
0.738006
0.711491
0.687177
0.66305
0.63869
0.614015
0.589172
0.564431
0.540073
0.516336
0.4934
0.471388
0.450378
0.43041
0.411489
0.393596
0.376727
0.360952
0.823324
0.773848
0.738006
0.711491
0.687177
0.66305
0.63869
0.614015
0.589172
0.564431
0.540073
0.516336
0.4934
0.471388
0.450378
0.43041
0.411489
0.393596
0.376727
0.360952
0.794468
0.746452
0.712033
0.687032
0.664388
0.642003
0.619363
0.596326
0.573003
0.549653
0.526554
0.503952
0.482038
0.460946
0.440768
0.421552
0.403305
0.385997
0.369685
0.354664
0.738048
0.692895
0.661244
0.639169
0.619752
0.600739
0.581439
0.561589
0.541232
0.520597
0.499962
0.479582
0.459669
0.440381
0.421833
0.404095
0.38717
0.371013
0.355792
0.342239
0.656581
0.615582
0.58789
0.569958
0.555109
0.540886
0.526349
0.511062
0.494968
0.478247
0.461168
0.444004
0.426989
0.410316
0.394131
0.378538
0.363536
0.349056
0.335413
0.32397
0.553672
0.517964
0.495206
0.482361
0.473116
0.464794
0.456161
0.446564
0.435811
0.424016
0.411429
0.398333
0.384994
0.371637
0.358455
0.345585
0.333032
0.320686
0.309036
0.300237
0.433829
0.404348
0.387243
0.380099
0.377121
0.375438
0.373497
0.370401
0.365796
0.359704
0.352341
0.343994
0.334954
0.325484
0.31582
0.306148
0.296474
0.286631
0.277277
0.271538
0.302214
0.279671
0.268651
0.26747
0.271011
0.276277
0.281413
0.285265
0.287292
0.2874
0.28575
0.282619
0.278314
0.273129
0.267345
0.261201
0.25471
0.24758
0.240536
0.237961
0.164369
0.14922
0.144434
0.149124
0.159025
0.171116
0.18329
0.194145
0.202944
0.209454
0.213755
0.216097
0.216786
0.216135
0.214448
0.212008
0.208868
0.204581
0.199536
0.19951
0.0259139
0.0183375
0.0196708
0.0298203
0.0455351
0.0639062
0.0826506
0.100161
0.115501
0.12828
0.138474
0.146273
0.151966
0.155865
0.158261
0.15942
0.15959
0.159001
0.157481
0.153027
-0.107744
-0.107896
-0.10078
-0.0858371
-0.0651568
-0.0414163
-0.0169431
0.00651222
0.027839
0.0464846
0.0623048
0.0754162
0.0860778
0.0946045
0.101305
0.106467
0.110472
0.113903
0.116543
0.114777
-0.232054
-0.224793
-0.212531
-0.193708
-0.169048
-0.141154
-0.112121
-0.0837677
-0.0573443
-0.0335577
-0.012688
0.00527991
0.0205421
0.0333846
0.0441093
0.0530022
0.0604489
0.0670873
0.0728495
0.0741516
-0.342663
-0.328767
-0.311955
-0.29008
-0.262861
-0.232097
-0.199858
-0.167903
-0.137544
-0.109611
-0.0845191
-0.0623755
-0.0430749
-0.0263897
-0.0120471
0.00022553
0.0107811
0.0201974
0.0285291
0.0328855
-0.43674
-0.416999
-0.396419
-0.372452
-0.343756
-0.311538
-0.277578
-0.243484
-0.210536
-0.179645
-0.15135
-0.125884
-0.103252
-0.0833064
-0.0658284
-0.0505748
-0.0372377
-0.0253263
-0.0146967
-0.0074903
-0.512468
-0.487848
-0.464314
-0.439116
-0.410005
-0.377627
-0.343376
-0.308607
-0.274494
-0.241957
-0.211618
-0.183827
-0.158701
-0.136196
-0.116168
-0.0984216
-0.0827108
-0.0686387
-0.0559852
-0.0461558
-0.569202
-0.540827
-0.515164
-0.489467
-0.460821
-0.429362
-0.396071
-0.361987
-0.328093
-0.295242
-0.264085
-0.235052
-0.20837
-0.1841
-0.162188
-0.142511
-0.124886
-0.109025
-0.0947047
-0.0827153
-0.607425
-0.576517
-0.549542
-0.523942
-0.496401
-0.466657
-0.435302
-0.40303
-0.370575
-0.338655
-0.30788
-0.278713
-0.251458
-0.226275
-0.203204
-0.182203
-0.16317
-0.145917
-0.130249
-0.116489
-0.628593
-0.596407
-0.568915
-0.543879
-0.517853
-0.490314
-0.461531
-0.431876
-0.401812
-0.371865
-0.342545
-0.314289
-0.287433
-0.262203
-0.238724
-0.217035
-0.197114
-0.178877
-0.162173
-0.146903
-0.634903
-0.602656
-0.5754
-0.551301
-0.527012
-0.50189
-0.475977
-0.449382
-0.422315
-0.395094
-0.368081
-0.341632
-0.316062
-0.291623
-0.268494
-0.246784
-0.226543
-0.207789
-0.190449
-0.174107
-0.62902
-0.597821
-0.571498
-0.548643
-0.526189
-0.503487
-0.480457
-0.457024
-0.433202
-0.409113
-0.384959
-0.360977
-0.337415
-0.314503
-0.292435
-0.271357
-0.251377
-0.232592
-0.215027
-0.198048
-0.613792
-0.584578
-0.559806
-0.538466
-0.517883
-0.49749
-0.47716
-0.45673
-0.43608
-0.415188
-0.394108
-0.372956
-0.351883
-0.331058
-0.31065
-0.29081
-0.271665
-0.253366
-0.236035
-0.218865
-0.591984
-0.565478
-0.542771
-0.523195
-0.504512
-0.486277
-0.468381
-0.450634
-0.43286
-0.414946
-0.396844
-0.378564
-0.360162
-0.341732
-0.323391
-0.305261
-0.28746
-0.270161
-0.253591
-0.236747
-0.566062
-0.54276
-0.522514
-0.504923
-0.488184
-0.471982
-0.456252
-0.440825
-0.425521
-0.410192
-0.394738
-0.379099
-0.363264
-0.347263
-0.331162
-0.315049
-0.299023
-0.283291
-0.268272
-0.252816
-0.538047
-0.518234
-0.50072
-0.485296
-0.47056
-0.456312
-0.442534
-0.429099
-0.415852
-0.402653
-0.389385
-0.375962
-0.362331
-0.34848
-0.33444
-0.320275
-0.306072
-0.292097
-0.279225
-0.266641
-0.509454
-0.493244
-0.478616
-0.465487
-0.452809
-0.440475
-0.428501
-0.416806
-0.405275
-0.393793
-0.382256
-0.370577
-0.358692
-0.346571
-0.33423
-0.321739
-0.309197
-0.296819
-0.285743
-0.278054
-0.481323
-0.468715
-0.457024
-0.446248
-0.435651
-0.425194
-0.414916
-0.404776
-0.394693
-0.384584
-0.374359
-0.363933
-0.353225
-0.342158
-0.330663
-0.318698
-0.306214
-0.292733
-0.27701
-0.264191
-0.454352
-0.445264
-0.436476
-0.428029
-0.419479
-0.410837
-0.40216
-0.393434
-0.384619
-0.375659
-0.366495
-0.357062
-0.347291
-0.337111
-0.326456
-0.315299
-0.303669
-0.291162
-0.276317
-0.264273
-0.429074
-0.423373
-0.41736
-0.411133
-0.404517
-0.397573
-0.390367
-0.382916
-0.37521
-0.367229
-0.35894
-0.350306
-0.341287
-0.331836
-0.32191
-0.311516
-0.300717
-0.289168
-0.275671
-0.265196
-0.40604
-0.403513
-0.400066
-0.395858
-0.390981
-0.385548
-0.379635
-0.373285
-0.36652
-0.359348
-0.351766
-0.343764
-0.335328
-0.326438
-0.31708
-0.307288
-0.297134
-0.286325
-0.274022
-0.26473
-0.385953
-0.386276
-0.385081
-0.382607
-0.379202
-0.375028
-0.370179
-0.364726
-0.358716
-0.352184
-0.345155
-0.337644
-0.329664
-0.321224
-0.312342
-0.303075
-0.293504
-0.283415
-0.272323
-0.263755
-0.369682
-0.372371
-0.373007
-0.371906
-0.369645
-0.366439
-0.362397
-0.357612
-0.35216
-0.346098
-0.33947
-0.33232
-0.324684
-0.3166
-0.308113
-0.299298
-0.290239
-0.280836
-0.270891
-0.262674
-0.358153
-0.362552
-0.364484
-0.364334
-0.362854
-0.360298
-0.356792
-0.352446
-0.347354
-0.341592
-0.335227
-0.328313
-0.32091
-0.313076
-0.304878
-0.296403
-0.28774
-0.278895
-0.269864
-0.261755
-0.352159
-0.357457
-0.360063
-0.360399
-0.359314
-0.357084
-0.353843
-0.349713
-0.344797
-0.339182
-0.332941
-0.326144
-0.318859
-0.311155
-0.303113
-0.294822
-0.286377
-0.277849
-0.269332
-0.26123
-0.254228
-0.246115
-0.237514
-0.228819
-0.220046
-0.21116
-0.202162
-0.19307
-0.183904
-0.174682
-0.165427
-0.156163
-0.146918
-0.137722
-0.128605
-0.119598
-0.110735
-0.102047
-0.0935639
-0.0853157
-0.0773295
-0.06963
-0.0622393
-0.0551762
-0.0484564
-0.0420921
-0.0360923
-0.0304625
-0.0252053
-0.02032
-0.0158033
-0.0116494
-0.00785006
-0.00439522
-0.00127306
0.00152963
0.00402725
0.00623508
0.00816904
0.00984555
0.0112812
0.0124928
0.013497
0.0143101
0.0149484
0.0154275
0.0157625
0.015968
0.016058
0.0160456
0.0159434
0.0157631
0.0155156
0.015211
0.0148588
0.0144675
0.0140448
0.0135979
0.013133
0.0126558
0.0121712
0.0116835
0.0111965
0.0107134
0.010237
0.00976932
0.00931237
0.0088676
0.00843615
0.00801887
0.00761639
0.00722911
0.00685722
0.00650075
0.00615965
0.00583372
0.00552267
0.00522614
0.00494374
0.004675
0.00441945
0.00417657
0.00394584
0.00372675
0.00351875
0.00332132
0.00313396
0.00295616
0.00278747
0.00262742
0.00247597
0.00233215
0.00219564
0.00206611
0.00194314
0.00182636
0.00171537
0.00160984
0.00150941
0.00141374
0.00132254
0.00123551
0.00115236
0.00107284
0.000996686
0.000923667
0.00085355
0.000786114
0.000721148
0.000658449
0.000597823
0.000539081
0.000482041
0.000426528
0.000372377
0.000319422
0.000267349
0.0002161
0.000171488
0.000128574
-0.257533
-0.249658
-0.240635
-0.231763
-0.22298
-0.214114
-0.205137
-0.196072
-0.186936
-0.177745
-0.168516
-0.159274
-0.150043
-0.140854
-0.131735
-0.122719
-0.113838
-0.105123
-0.0966053
-0.0883148
-0.080279
-0.0725232
-0.0650701
-0.0579392
-0.0511466
-0.0447052
-0.0386247
-0.0329112
-0.0275677
-0.0225943
-0.017988
-0.0137436
-0.0098533
-0.00630747
-0.0030947
-0.000202135
0.00238425
0.00467941
0.006699
0.00845913
0.00997621
0.0112668
0.0123472
0.0132339
0.0139427
0.0144894
0.0148888
0.0151556
0.0153037
0.0153462
0.0152957
0.015164
0.014962
0.0147001
0.0143875
0.0140331
0.0136447
0.0132295
0.012794
0.0123438
0.0118842
0.0114195
0.0109536
0.0104899
0.0100312
0.00957992
0.00913793
0.00870686
0.00828796
0.00788218
0.00749024
0.0071126
0.00674955
0.00640119
0.00606752
0.0057484
0.00544361
0.00515283
0.00487572
0.00461185
0.00436078
0.00412204
0.00389513
0.00367956
0.00347482
0.00328039
0.00309572
0.00292022
0.00275311
0.00259331
0.00244607
0.00230487
0.00217015
0.00204221
0.00192081
0.00180552
0.00169597
0.00159178
0.00149261
0.00139812
0.00130801
0.001222
0.00113982
0.00106121
0.000985921
0.000913717
0.000844374
0.000777676
0.000713413
0.000651387
0.000591405
0.000533279
0.000476832
0.000421888
0.000368284
0.000315854
0.000264292
0.000213531
0.000169271
0.00012676
-0.263509
-0.25618
-0.246347
-0.237095
-0.228267
-0.219419
-0.210464
-0.201434
-0.192347
-0.18321
-0.174033
-0.164835
-0.15564
-0.146475
-0.137367
-0.128349
-0.11945
-0.110703
-0.102139
-0.0937873
-0.0856768
-0.0778334
-0.0702805
-0.0630387
-0.0561251
-0.0495539
-0.0433355
-0.0374773
-0.0319834
-0.0268548
-0.0220897
-0.0176836
-0.0136299
-0.0099196
-0.00654222
-0.00348566
-0.000736603
0.00171924
0.00389691
0.00581197
0.00748031
0.00891799
0.0101411
0.0111655
0.012007
0.0126808
0.0132019
0.0135846
0.0138428
0.0139897
0.0140378
0.0139988
0.013884
0.0137036
0.0134673
0.0131839
0.0128615
0.0125077
0.0121289
0.0117313
0.0113201
0.0109
0.0104753
0.0100495
0.00962553
0.00920613
0.00879344
0.00838925
0.00799499
0.00761181
0.00724058
0.00688193
0.00653629
0.00620392
0.00588491
0.00557925
0.00528682
0.00500741
0.00474076
0.00448651
0.00424432
0.00401377
0.00379443
0.00358588
0.00338767
0.00319935
0.00302052
0.00285085
0.0026902
0.00253884
0.00239067
0.00225118
0.00211902
0.00199454
0.00187637
0.00176407
0.00165737
0.0015559
0.00145924
0.00136708
0.00127914
0.00119517
0.0011149
0.0010381
0.000964513
0.000893928
0.000826124
0.000760892
0.00069803
0.000637342
0.000578641
0.000521745
0.000466477
0.000412668
0.000360154
0.000308775
0.000258231
0.000208446
0.000164896
0.000123189
-0.271022
-0.264603
-0.253675
-0.243853
-0.234932
-0.22608
-0.217121
-0.208114
-0.19908
-0.190012
-0.18091
-0.171787
-0.16266
-0.153553
-0.144491
-0.135503
-0.126617
-0.117865
-0.109276
-0.100882
-0.0927094
-0.0847856
-0.0771346
-0.069778
-0.0627341
-0.0560181
-0.049642
-0.0436144
-0.037941
-0.0326241
-0.0276632
-0.0230555
-0.0187955
-0.0148756
-0.0112866
-0.0080175
-0.00505608
-0.0023891
-2.48414e-06
0.00211846
0.00398884
0.00562399
0.00703933
0.00825024
0.00927192
0.0101193
0.010807
0.0113491
0.0117593
0.0120505
0.0122354
0.0123258
0.0123328
0.0122668
0.0121378
0.0119547
0.0117259
0.011459
0.0111611
0.0108384
0.0104966
0.0101408
0.00977522
0.00940392
0.00903025
0.0086571
0.00828693
0.00792181
0.00756345
0.00721324
0.00687228
0.00654142
0.00622131
0.00591237
0.00561489
0.00532902
0.00505478
0.00479212
0.00454087
0.00430082
0.00407171
0.00385324
0.00364507
0.00344684
0.00325818
0.00307871
0.00290803
0.00274572
0.00259131
0.0024442
0.0023032
0.00216777
0.00203602
0.00192203
0.00180998
0.00170204
0.00160012
0.00150283
0.00140987
0.00132112
0.00123636
0.00115537
0.00107792
0.00100377
0.000932707
0.000864519
0.000798997
0.000735942
0.00067516
0.000616464
0.000559672
0.000504608
0.000451101
0.000398984
0.000348101
0.000298292
0.000249273
0.00020095
0.000158479
0.000117974
-0.278667
-0.273402
-0.261293
-0.250838
-0.241822
-0.232947
-0.223957
-0.214959
-0.205982
-0.197003
-0.188006
-0.178996
-0.169985
-0.16099
-0.152031
-0.143132
-0.13432
-0.125622
-0.117067
-0.108684
-0.1005
-0.0925418
-0.084834
-0.0773983
-0.070254
-0.0634177
-0.0569024
-0.0507184
-0.0448729
-0.0393701
-0.0342111
-0.0293948
-0.0249175
-0.0207735
-0.0169549
-0.0134524
-0.0102554
-0.007352
-0.00472941
-0.00237415
-0.000272237
0.00159066
0.00322908
0.00465758
0.00589069
0.00694273
0.00782778
0.00855958
0.00915143
0.0096162
0.00996621
0.0102132
0.0103684
0.0104423
0.0104449
0.0103853
0.0102722
0.0101134
0.00991632
0.00968745
0.00943279
0.00915774
0.00886707
0.00856503
0.00825535
0.00794126
0.00762557
0.00731065
0.00699854
0.0066909
0.00638912
0.00609432
0.00580738
0.00552897
0.00525959
0.00499957
0.00474914
0.0045084
0.00427736
0.00405594
0.00384403
0.00364143
0.00344793
0.00326327
0.00308719
0.00291937
0.00275952
0.00260733
0.00246249
0.00232477
0.00219417
0.00207129
0.00195755
0.00183748
0.00172529
0.00161672
0.00152436
0.00143317
0.00134502
0.00126066
0.00117999
0.00110299
0.00102922
0.000958536
0.000890773
0.000825733
0.000763216
0.000703032
0.000644997
0.000588933
0.000534665
0.000482027
0.000430853
0.000380983
0.000332266
0.000284547
0.000237557
0.000191185
0.000150183
0.000111281
-0.284726
-0.280595
-0.267554
-0.256695
-0.247698
-0.238821
-0.22981
-0.220849
-0.211968
-0.203119
-0.194278
-0.185442
-0.176615
-0.167807
-0.15903
-0.150303
-0.141647
-0.133087
-0.124648
-0.116356
-0.108238
-0.100319
-0.0926219
-0.0851701
-0.077983
-0.071078
-0.0644696
-0.0581695
-0.0521866
-0.0465271
-0.0411941
-0.0361885
-0.0315088
-0.0271511
-0.0231097
-0.0193774
-0.0159451
-0.0128028
-0.0099394
-0.00734285
-0.00500058
-0.00289951
-0.00102626
0.000632748
0.00209112
0.0033624
0.00446001
0.00539711
0.00618656
0.00684085
0.00737204
0.00779172
0.00811096
0.00834028
0.00848964
0.0085684
0.00858531
0.00854849
0.00846547
0.00834313
0.00818778
0.00800512
0.00780027
0.00757785
0.00734193
0.0070961
0.00684352
0.0065869
0.00632859
0.0060706
0.00581461
0.00556201
0.00531397
0.00507142
0.00483508
0.00460552
0.00438318
0.00416834
0.0039612
0.00376185
0.00357031
0.00338655
0.00321048
0.00304196
0.00288082
0.00272687
0.00257992
0.00243973
0.00230609
0.00217881
0.00205768
0.00194254
0.001833
0.00172795
0.00162923
0.00153841
0.00144095
0.00135142
0.0012673
0.00118711
0.00111018
0.00103862
0.000969544
0.000903117
0.000839402
0.000778219
0.000719379
0.000662707
0.000608034
0.000555194
0.000504024
0.000454365
0.00040606
0.000358959
0.000312915
0.000267783
0.000223309
0.000179365
0.000140234
0.000103326
-0.287324
-0.28402
-0.270999
-0.26059
-0.251982
-0.243291
-0.234441
-0.225675
-0.217001
-0.208364
-0.199746
-0.191144
-0.18256
-0.173995
-0.165459
-0.156965
-0.14853
-0.140174
-0.131918
-0.123785
-0.115799
-0.107983
-0.100361
-0.0929528
-0.0857793
-0.078858
-0.0722045
-0.0658318
-0.0597505
-0.0539684
-0.048491
-0.0433214
-0.0384602
-0.0339059
-0.0296552
-0.0257029
-0.0220423
-0.0186653
-0.0155627
-0.0127243
-0.0101392
-0.00779569
-0.00568184
-0.00378527
-0.00209344
-0.000593739
0.000726429
0.00187954
0.00287787
0.00373345
0.00445797
0.00506277
0.00555874
0.00595631
0.0062654
0.0064954
0.00665515
0.00675294
0.00679646
0.00679286
0.00674867
0.0066699
0.006562
0.00642988
0.00627794
0.00611013
0.00592993
0.00574039
0.00554419
0.00534365
0.00514077
0.00493725
0.00473453
0.00453381
0.0043361
0.00414219
0.00395275
0.00376828
0.00358919
0.00341574
0.00324815
0.00308652
0.00293093
0.00278136
0.00263779
0.00250013
0.00236829
0.00224213
0.00212152
0.00200629
0.00189626
0.00179125
0.001691
0.00159524
0.00150384
0.00141651
0.00133197
0.00125138
0.00117465
0.00110162
0.00103237
0.000964225
0.00089967
0.00083811
0.000779074
0.000722366
0.000667821
0.000615272
0.000564557
0.00051552
0.000468009
0.000421881
0.000376984
0.000333176
0.000290321
0.000248277
0.000206813
0.000165776
0.000128943
9.43969e-05
-0.284092
-0.279497
-0.268155
-0.259208
-0.25121
-0.242986
-0.234706
-0.226518
-0.218383
-0.210266
-0.202161
-0.194065
-0.185975
-0.177894
-0.169828
-0.161786
-0.153782
-0.145832
-0.137954
-0.130169
-0.122497
-0.114958
-0.107575
-0.100368
-0.0933546
-0.0865541
-0.0799824
-0.0736535
-0.0675797
-0.0617707
-0.0562344
-0.0509762
-0.0459995
-0.0413055
-0.0368938
-0.0327618
-0.0289058
-0.0253201
-0.0219983
-0.0189324
-0.0161138
-0.0135329
-0.0111797
-0.00904354
-0.00711329
-0.00537766
-0.00382519
-0.00244435
-0.00122365
-0.00015173
0.000782596
0.00159025
0.00228182
0.00286756
0.00335726
0.00376027
0.00408545
0.00434113
0.00453512
0.00467466
0.00476645
0.00481666
0.00483091
0.0048143
0.00477143
0.00470645
0.00462304
0.00452449
0.00441368
0.00429317
0.00416516
0.00403161
0.00389418
0.00375431
0.00361323
0.00347198
0.00333145
0.00319237
0.00305535
0.0029209
0.00278942
0.00266122
0.00253655
0.0024156
0.0022985
0.00218532
0.00207611
0.00197088
0.00186962
0.00177226
0.00167876
0.00158899
0.00150286
0.0014202
0.00134088
0.00126473
0.00119156
0.00112131
0.00105396
0.000989423
0.000927555
0.000868057
0.000811033
0.000756288
0.000703641
0.000652959
0.00060411
0.000556957
0.00051137
0.000467219
0.000424374
0.000382706
0.000342094
0.000302414
0.000263538
0.000225339
0.00018761
0.0001502
0.000116356
8.45566e-05
-0.256579
-0.256035
-0.25366
-0.249286
-0.243657
-0.237362
-0.230676
-0.223704
-0.216517
-0.209172
-0.201713
-0.194165
-0.186549
-0.178881
-0.171178
-0.163459
-0.155742
-0.148046
-0.140393
-0.132804
-0.125301
-0.117907
-0.110645
-0.103534
-0.0965961
-0.0898497
-0.0833119
-0.076998
-0.070921
-0.0650921
-0.0595199
-0.0542113
-0.0491705
-0.0444002
-0.0399009
-0.0356713
-0.0317087
-0.0280087
-0.0245658
-0.0213732
-0.0184234
-0.0157079
-0.0132176
-0.0109428
-0.0088738
-0.00700018
-0.00531156
-0.00379742
-0.00244722
-0.00125047
-0.000196802
0.000723995
0.00152191
0.00220668
0.00278773
0.00327418
0.00367474
0.00399777
0.00425119
0.00444248
0.00457869
0.00466639
0.0047117
0.00472024
0.0046972
0.0046473
0.00457482
0.00448362
0.00437715
0.00425846
0.00413026
0.00399493
0.00385453
0.00371083
0.00356536
0.00341943
0.00327411
0.00313031
0.00298877
0.0028501
0.00271477
0.00258316
0.00245553
0.00233209
0.00221298
0.00209825
0.00198795
0.00188206
0.00178053
0.00168328
0.00159022
0.00150121
0.00141612
0.0013348
0.00125708
0.00118281
0.00111181
0.00104396
0.00097913
0.000917188
0.000857987
0.00080137
0.000747189
0.000695309
0.000645589
0.000597882
0.000552048
0.000507948
0.000465446
0.000424411
0.000384714
0.000346229
0.000308832
0.000272398
0.000236805
0.000201932
0.000167593
0.000133684
0.000102941
7.34241e-05
-0.237551
-0.237034
-0.233305
-0.22823
-0.222863
-0.217335
-0.211567
-0.205556
-0.199354
-0.193003
-0.186529
-0.179952
-0.173288
-0.166557
-0.159777
-0.152965
-0.146141
-0.139324
-0.132533
-0.12579
-0.119113
-0.112523
-0.106039
-0.0996791
-0.0934615
-0.0874022
-0.0815159
-0.075816
-0.0703141
-0.0650201
-0.059942
-0.0550862
-0.0504575
-0.0460588
-0.0418914
-0.0379553
-0.0342492
-0.0307703
-0.0275148
-0.0244779
-0.0216539
-0.0190364
-0.0166183
-0.0143921
-0.0123496
-0.0104826
-0.00878248
-0.00724052
-0.00584788
-0.00459569
-0.00347517
-0.00247757
-0.00159431
-0.000817005
-0.000137468
0.000452215
0.000959672
0.00139221
0.0017568
0.00206005
0.0023082
0.00250708
0.00266218
0.00277854
0.00286087
0.00291345
0.00294022
0.00294475
0.00293027
0.00289969
0.00285561
0.00280035
0.00273596
0.00266425
0.0025868
0.00250501
0.00242006
0.002333
0.00224471
0.00215594
0.00206734
0.00197942
0.00189264
0.00180736
0.00172386
0.00164238
0.00156308
0.00148611
0.00141155
0.00133945
0.00126984
0.00120273
0.00113808
0.00107585
0.00101601
0.000958475
0.000903187
0.000850076
0.00079907
0.000750092
0.00070306
0.000657882
0.000614471
0.000572739
0.000532593
0.000493935
0.000456669
0.0004207
0.000385932
0.000352269
0.000319617
0.000287883
0.000256972
0.000226793
0.000197255
0.000168265
0.000139679
0.000111431
8.58202e-05
6.1143e-05
-0.214235
-0.215424
-0.211862
-0.207355
-0.203097
-0.198817
-0.194246
-0.189368
-0.184252
-0.178943
-0.173467
-0.167845
-0.162099
-0.156252
-0.150325
-0.144338
-0.138313
-0.132269
-0.126226
-0.120204
-0.114223
-0.108301
-0.102456
-0.0967056
-0.0910667
-0.0855542
-0.0801822
-0.0749633
-0.0699087
-0.0650282
-0.06033
-0.0558207
-0.0515056
-0.0473883
-0.0434713
-0.0397556
-0.0362409
-0.0329261
-0.0298085
-0.0268851
-0.0241516
-0.0216033
-0.0192346
-0.0170395
-0.0150116
-0.013144
-0.0114298
-0.00986156
-0.00843188
-0.00713323
-0.00595808
-0.0048989
-0.00394823
-0.00309874
-0.00234324
-0.00167471
-0.00108637
-0.000571667
-0.000124319
0.000261669
0.000591989
0.000872019
0.00110681
0.00130109
0.00145926
0.00158538
0.0016832
0.00175616
0.0018074
0.00183976
0.00185582
0.0018579
0.00184808
0.0018282
0.00179993
0.0017647
0.00172381
0.00167839
0.00162941
0.00157773
0.00152409
0.00146913
0.00141338
0.00135731
0.00130131
0.00124571
0.00119076
0.0011367
0.0010837
0.00103189
0.000981378
0.000932245
0.000884541
0.000838296
0.000793526
0.000750231
0.0007084
0.000668014
0.000629047
0.000591464
0.000555226
0.000520287
0.000486595
0.000454098
0.000422736
0.00039245
0.000363176
0.000334851
0.000307409
0.000280784
0.000254909
0.000229717
0.000205141
0.000181113
0.000157567
0.000134436
0.000111609
8.90389e-05
6.85593e-05
4.88018e-05
-0.191169
-0.193768
-0.19104
-0.187409
-0.184139
-0.180862
-0.177263
-0.173333
-0.169145
-0.164747
-0.160162
-0.155411
-0.150516
-0.145498
-0.140381
-0.135184
-0.129928
-0.124633
-0.119318
-0.114001
-0.108702
-0.103438
-0.0982251
-0.0930806
-0.0880194
-0.0830557
-0.0782026
-0.0734721
-0.0688747
-0.06442
-0.060116
-0.0559695
-0.0519861
-0.04817
-0.0445242
-0.0410507
-0.0377504
-0.0346229
-0.0316673
-0.0288815
-0.0262627
-0.0238077
-0.0215123
-0.0193719
-0.0173817
-0.0155362
-0.0138297
-0.0122563
-0.0108098
-0.00948414
-0.00827286
-0.00716963
-0.00616811
-0.005262
-0.00444507
-0.00371124
-0.00305455
-0.00246924
-0.00194973
-0.00149066
-0.00108693
-0.00073366
-0.000426251
-0.000160368
6.80531e-05
0.000262801
0.000427396
0.000565089
0.000678874
0.000771494
0.000845452
0.000903024
0.00094627
0.00097705
0.000997034
0.00100772
0.00101044
0.00100639
0.000996626
0.000982069
0.000963545
0.000941772
0.000917381
0.000890919
0.000862862
0.000833619
0.000803542
0.000772933
0.000742047
0.000711098
0.000680266
0.000649698
0.000619516
0.000589817
0.000560677
0.000532157
0.000504301
0.000477141
0.000450698
0.000424985
0.000400003
0.000375748
0.000352208
0.000329368
0.000307205
0.000285694
0.000264805
0.000244505
0.00022476
0.000205533
0.000186786
0.000168479
0.000150571
0.000133021
0.000115787
9.88264e-05
8.20659e-05
6.54761e-05
5.04147e-05
3.58842e-05
-0.169736
-0.173039
-0.171272
-0.168604
-0.166236
-0.163833
-0.1611
-0.158029
-0.154689
-0.151126
-0.147361
-0.143414
-0.139307
-0.135061
-0.130698
-0.126238
-0.121701
-0.117106
-0.112471
-0.107814
-0.103153
-0.0985053
-0.0938855
-0.0893093
-0.0847909
-0.0803438
-0.0759803
-0.0717116
-0.0675481
-0.0634989
-0.059572
-0.0557743
-0.0521115
-0.0485885
-0.0452087
-0.041975
-0.0388889
-0.0359512
-0.0331619
-0.0305201
-0.0280242
-0.025672
-0.0234608
-0.0213872
-0.0194475
-0.0176376
-0.015953
-0.014389
-0.0129406
-0.0116028
-0.0103703
-0.00923778
-0.00819993
-0.00725139
-0.00638683
-0.00560101
-0.00488876
-0.00424505
-0.00366497
-0.00314378
-0.00267693
-0.00226006
-0.00188901
-0.00155983
-0.00126882
-0.00101248
-0.000787548
-0.000590974
-0.000419939
-0.000271837
-0.000144267
-3.50293e-05
5.78875e-05
0.000136315
0.000201918
0.000256201
0.000300526
0.000336114
0.000364065
0.000385362
0.000400884
0.000411414
0.000417646
0.000420197
0.000419612
0.000416371
0.000410896
0.000403557
0.000394678
0.000384539
0.000373387
0.000361431
0.000348854
0.000335812
0.000322439
0.000308848
0.000295136
0.000281382
0.000267654
0.000254007
0.000240485
0.000227125
0.000213951
0.000200986
0.000188241
0.000175725
0.00016344
0.000151386
0.000139557
0.000127945
0.000116541