/*--------------------------------*- C++ -*----------------------------------*\
  =========                 |
  \\      /  F ield         | OpenFOAM: The Open Source CFD Toolbox
   \\    /   O peration     | Website:  https://openfoam.org
    \\  /    A nd           | Version:  7
     \\/     M anipulation  |
\*---------------------------------------------------------------------------*/
FoamFile
{
    version     2.0;
    format      ascii;
    class       volScalarField;
    location    "80.001";
    object      p;
}
// * * * * * * * * * * * * * * * * * * * * * * * * * * * * * * * * * * * * * //

dimensions      [0 2 -2 0 0 0 0];

internalField   nonuniform List<scalar> 
3700
(
-0.245135
-0.248101
-0.24907
-0.250118
-0.251081
-0.252026
-0.252932
-0.253756
-0.254447
-0.254953
-0.255225
-0.255222
-0.254921
-0.254313
-0.253453
-0.245451
-0.248385
-0.249347
-0.25039
-0.251353
-0.252299
-0.253208
-0.254031
-0.254715
-0.255202
-0.255436
-0.255364
-0.254947
-0.254171
-0.253001
-0.246022
-0.248878
-0.249818
-0.250842
-0.251794
-0.252734
-0.253639
-0.254459
-0.255135
-0.255604
-0.2558
-0.255656
-0.255107
-0.254163
-0.252555
-0.246835
-0.249571
-0.250472
-0.251463
-0.252392
-0.253317
-0.254211
-0.255023
-0.255689
-0.25614
-0.2563
-0.256088
-0.255385
-0.254314
-0.252081
-0.247874
-0.25045
-0.251296
-0.252237
-0.253129
-0.254026
-0.254902
-0.2557
-0.256353
-0.256785
-0.25691
-0.256643
-0.255745
-0.254658
-0.251524
-0.249115
-0.251496
-0.25227
-0.253142
-0.25398
-0.254837
-0.255683
-0.256458
-0.257093
-0.257503
-0.257591
-0.257299
-0.256118
-0.255243
-0.250798
-0.250532
-0.252688
-0.253372
-0.254154
-0.25492
-0.255719
-0.256519
-0.257259
-0.257868
-0.258252
-0.258291
-0.258034
-0.256397
-0.256138
-0.249805
-0.252098
-0.254006
-0.25458
-0.255248
-0.255919
-0.256639
-0.257375
-0.258064
-0.258632
-0.258983
-0.258938
-0.258833
-0.256475
-0.25734
-0.248657
-0.253786
-0.255429
-0.25587
-0.256399
-0.256947
-0.257562
-0.258212
-0.258829
-0.259338
-0.259647
-0.259456
-0.259624
-0.256493
-0.25808
-0.247839
-0.255571
-0.256938
-0.257222
-0.257583
-0.257978
-0.258459
-0.258994
-0.259514
-0.259939
-0.2602
-0.259859
-0.260156
-0.256411
-0.258862
-0.246745
-0.257434
-0.258516
-0.258619
-0.258779
-0.258986
-0.2593
-0.259691
-0.260086
-0.260399
-0.260579
-0.260058
-0.26056
-0.255903
-0.259571
-0.24543
-0.259361
-0.260154
-0.260047
-0.259972
-0.259955
-0.260065
-0.260278
-0.260519
-0.260687
-0.260766
-0.259994
-0.260731
-0.255038
-0.259927
-0.244127
-0.261345
-0.261847
-0.2615
-0.261152
-0.260872
-0.260742
-0.260743
-0.260798
-0.26079
-0.260741
-0.259673
-0.260566
-0.253964
-0.259552
-0.24311
-0.263391
-0.263596
-0.262978
-0.262319
-0.261736
-0.261329
-0.261083
-0.260922
-0.260706
-0.260487
-0.259127
-0.259927
-0.25285
-0.258084
-0.242393
-0.265511
-0.265412
-0.264485
-0.263478
-0.262554
-0.261835
-0.261311
-0.260904
-0.26045
-0.259996
-0.25838
-0.25871
-0.251754
-0.255419
-0.241545
-0.267728
-0.26731
-0.266041
-0.264647
-0.263346
-0.262281
-0.26145
-0.260765
-0.260042
-0.259271
-0.257416
-0.256901
-0.250501
-0.25181
-0.239982
-0.270076
-0.269305
-0.267674
-0.265849
-0.264138
-0.2627
-0.261533
-0.260536
-0.2595
-0.258317
-0.256171
-0.254551
-0.248752
-0.247618
-0.23738
-0.272599
-0.271437
-0.269407
-0.267118
-0.264968
-0.263131
-0.2616
-0.260247
-0.258832
-0.257129
-0.254554
-0.251709
-0.246217
-0.24294
-0.233722
-0.275353
-0.27374
-0.271277
-0.268494
-0.265881
-0.26362
-0.261691
-0.259922
-0.258032
-0.255684
-0.252486
-0.248392
-0.242784
-0.237556
-0.229123
-0.278392
-0.276256
-0.273327
-0.270022
-0.266923
-0.264212
-0.261838
-0.259573
-0.257083
-0.253945
-0.24992
-0.244627
-0.238512
-0.231365
-0.223715
-0.281758
-0.279043
-0.275605
-0.27175
-0.268144
-0.264947
-0.262062
-0.259193
-0.255953
-0.251875
-0.246851
-0.240452
-0.233559
-0.225008
-0.217509
-0.285524
-0.28214
-0.278157
-0.273729
-0.269587
-0.265855
-0.262369
-0.258762
-0.254604
-0.249447
-0.243314
-0.235888
-0.228082
-0.218974
-0.210752
-0.289752
-0.285594
-0.281034
-0.276004
-0.271289
-0.266951
-0.26275
-0.258245
-0.252996
-0.246651
-0.239365
-0.230972
-0.22241
-0.212819
-0.204161
-0.294496
-0.289451
-0.284283
-0.27862
-0.273277
-0.268239
-0.263179
-0.257597
-0.251096
-0.24349
-0.235057
-0.2258
-0.21657
-0.206646
-0.197856
-0.299809
-0.293758
-0.287951
-0.281611
-0.275563
-0.26971
-0.263617
-0.256764
-0.248878
-0.23998
-0.230454
-0.220419
-0.210635
-0.200454
-0.191557
-0.305732
-0.298556
-0.292082
-0.285002
-0.278153
-0.271336
-0.264002
-0.255689
-0.246326
-0.236146
-0.225598
-0.214875
-0.20461
-0.194205
-0.18526
-0.3123
-0.303885
-0.296709
-0.288807
-0.281039
-0.273067
-0.264257
-0.25432
-0.243435
-0.232013
-0.220522
-0.209184
-0.198488
-0.187896
-0.178861
-0.319537
-0.309778
-0.301856
-0.293032
-0.284196
-0.274825
-0.264298
-0.252613
-0.240202
-0.227597
-0.215241
-0.203346
-0.192254
-0.181487
-0.17235
-0.327452
-0.316258
-0.307531
-0.297667
-0.287565
-0.276503
-0.264041
-0.250533
-0.236627
-0.222906
-0.209755
-0.197348
-0.185885
-0.174959
-0.16569
-0.336041
-0.323334
-0.313724
-0.302688
-0.291049
-0.277983
-0.263411
-0.248053
-0.232704
-0.217937
-0.204053
-0.191169
-0.179355
-0.168279
-0.158864
-0.345298
-0.330993
-0.320407
-0.308031
-0.294513
-0.279143
-0.262341
-0.245145
-0.22842
-0.212675
-0.198111
-0.18478
-0.172636
-0.161425
-0.151848
-0.355139
-0.339191
-0.32753
-0.313587
-0.297794
-0.279867
-0.260771
-0.24178
-0.223754
-0.207096
-0.191904
-0.178152
-0.165702
-0.154369
-0.144625
-0.365505
-0.347857
-0.335016
-0.319191
-0.300724
-0.280044
-0.258641
-0.237925
-0.218676
-0.201171
-0.185396
-0.171252
-0.158526
-0.147088
-0.137176
-0.376282
-0.356883
-0.342744
-0.324635
-0.303128
-0.279572
-0.255897
-0.233541
-0.213154
-0.194864
-0.178555
-0.164051
-0.151081
-0.139558
-0.129486
-0.387312
-0.366133
-0.35054
-0.329685
-0.304839
-0.278355
-0.252481
-0.228585
-0.207145
-0.188137
-0.171344
-0.156516
-0.143343
-0.131755
-0.121538
-0.398397
-0.375437
-0.358168
-0.334097
-0.305697
-0.276301
-0.248333
-0.22301
-0.200607
-0.180951
-0.163728
-0.148621
-0.135288
-0.123658
-0.113319
-0.409296
-0.384595
-0.365339
-0.33763
-0.305553
-0.273322
-0.243394
-0.216765
-0.193496
-0.173266
-0.155674
-0.140337
-0.126894
-0.115247
-0.104816
-0.419729
-0.393372
-0.371733
-0.340049
-0.304268
-0.269333
-0.237602
-0.209799
-0.185767
-0.165045
-0.14715
-0.131644
-0.118143
-0.106508
-0.0960295
-0.429388
-0.401496
-0.377016
-0.341133
-0.301715
-0.264254
-0.230897
-0.202062
-0.177376
-0.156251
-0.138129
-0.122518
-0.109018
-0.097437
-0.0869796
-0.437944
-0.408659
-0.380865
-0.340677
-0.297779
-0.258011
-0.22322
-0.193505
-0.168284
-0.146853
-0.128584
-0.11294
-0.0995053
-0.0880372
-0.0776962
-0.445063
-0.414525
-0.38298
-0.3385
-0.292354
-0.250533
-0.214517
-0.184083
-0.158454
-0.136821
-0.118494
-0.102891
-0.0895867
-0.0783041
-0.0681845
-0.450411
-0.418743
-0.3831
-0.334444
-0.28535
-0.241757
-0.204739
-0.173757
-0.147856
-0.126133
-0.10784
-0.0923539
-0.0792463
-0.0682159
-0.05839
-0.453667
-0.420959
-0.380998
-0.328383
-0.276691
-0.231631
-0.193844
-0.162494
-0.136466
-0.114772
-0.0966087
-0.0813208
-0.0684776
-0.0577422
-0.0481877
-0.454529
-0.420838
-0.37649
-0.320217
-0.266316
-0.220112
-0.1818
-0.15027
-0.124267
-0.102725
-0.0847918
-0.0697889
-0.0572912
-0.0468793
-0.0374205
-0.452724
-0.418085
-0.369416
-0.309873
-0.254179
-0.207168
-0.168582
-0.137066
-0.111243
-0.0899831
-0.0723869
-0.0577604
-0.0457035
-0.0356594
-0.026121
-0.44801
-0.412456
-0.359649
-0.297302
-0.240255
-0.19278
-0.154174
-0.122868
-0.0973891
-0.0765464
-0.0594078
-0.0452519
-0.0337248
-0.0240349
-0.0147929
-0.440183
-0.403753
-0.347103
-0.282479
-0.224534
-0.176937
-0.138562
-0.107676
-0.0827161
-0.0624334
-0.0458815
-0.0323113
-0.0213519
-0.0120063
-0.00335735
-0.429081
-0.391833
-0.331729
-0.265402
-0.20702
-0.159627
-0.121744
-0.0915208
-0.0672607
-0.0476902
-0.0318067
-0.0189275
-0.00858496
0.000331758
0.00827049
-0.414584
-0.376609
-0.313518
-0.246086
-0.18771
-0.140856
-0.103777
-0.0744699
-0.0510474
-0.0322996
-0.0172127
-0.00511556
0.00454675
0.0129375
0.0201115
-0.396618
-0.358049
-0.292498
-0.22456
-0.166603
-0.120708
-0.0847968
-0.0564803
-0.0340815
-0.0162995
-0.0021299
0.00909616
0.0180068
0.025788
0.0321504
-0.375156
-0.336171
-0.268742
-0.200891
-0.143763
-0.0993884
-0.0646806
-0.0376109
-0.0164045
0.000269528
0.0134054
0.0236716
0.0317576
0.0388572
0.0443563
-0.350216
-0.311041
-0.242361
-0.175195
-0.119487
-0.0766712
-0.0435314
-0.0179193
0.00193135
0.0173611
0.0293515
0.0385698
0.0457597
0.0521089
0.0566849
-0.321867
-0.282793
-0.213474
-0.147566
-0.093713
-0.0527489
-0.0214253
0.00252779
0.020867
0.0349231
0.0456607
0.0537466
0.0599717
0.0654987
0.0690845
-0.290237
-0.251662
-0.182108
-0.118111
-0.0665314
-0.0277326
0.00154867
0.0236572
0.0403369
0.0528971
0.0622801
0.0691543
0.0743516
0.0789835
0.0815167
-0.255505
-0.217944
-0.148207
-0.0870107
-0.0380827
-0.00173745
0.0252938
0.0453869
0.0602687
0.0712184
0.0791506
0.0847418
0.0888591
0.0925278
0.0939582
-0.21787
-0.181682
-0.112277
-0.0543406
-0.00851057
0.0251141
0.0497043
0.0676269
0.0805842
0.0898163
0.0962087
0.100457
0.103453
0.106082
0.106315
-0.177536
-0.142417
-0.0752368
-0.0204127
0.0220308
0.0526912
0.0746667
0.0902804
0.101199
0.108617
0.113393
0.116252
0.118077
0.119504
0.118288
-0.13477
-0.100948
-0.0368945
0.0145304
0.0533679
0.0808554
0.100061
0.113244
0.122025
0.127546
0.130649
0.132092
0.132647
0.132523
0.12946
-0.089783
-0.0578111
0.00264417
0.0502826
0.0853157
0.109458
0.125759
0.136409
0.142968
0.146529
0.147928
0.147939
0.147077
0.144948
0.139823
-0.0430119
-0.0133296
0.043147
0.0866393
0.117686
0.138342
0.151629
0.15966
0.16393
0.165486
0.165169
0.163719
0.161285
0.157019
0.150427
0.00515089
0.0321804
0.0843341
0.123381
0.150286
0.167345
0.177532
0.182879
0.184812
0.184336
0.182286
0.179304
0.175162
0.168974
0.163941
0.0543111
0.078377
0.125909
0.160276
0.182919
0.196299
0.203326
0.205944
0.205513
0.202992
0.199186
0.194581
0.188743
0.181325
0.177059
0.10406
0.124904
0.167568
0.197083
0.215381
0.225032
0.228865
0.228734
0.225927
0.221361
0.215781
0.209535
0.202162
0.193837
0.189312
0.153984
0.171396
0.209006
0.233556
0.24747
0.253372
0.254003
0.251122
0.245948
0.239346
0.231987
0.224119
0.215352
0.206198
0.20096
0.203671
0.217476
0.249917
0.26945
0.278977
0.281145
0.278592
0.272984
0.265468
0.256852
0.247731
0.238287
0.228215
0.218192
0.212021
0.252702
0.262775
0.289996
0.304516
0.3097
0.308178
0.302487
0.294196
0.284381
0.273786
0.262939
0.251976
0.240663
0.22974
0.222544
0.300663
0.30693
0.328947
0.338514
0.339434
0.334301
0.325543
0.314635
0.30258
0.290059
0.277536
0.265112
0.252608
0.240769
0.232515
0.347147
0.349589
0.366478
0.371206
0.367984
0.359348
0.34762
0.334181
0.319963
0.305583
0.291446
0.277628
0.263982
0.251234
0.241911
0.391758
0.390412
0.402311
0.402363
0.395157
0.383158
0.368583
0.35272
0.336431
0.320274
0.304598
0.289455
0.274724
0.261086
0.250703
0.434119
0.429075
0.436179
0.431766
0.420772
0.405577
0.3883
0.370139
0.351891
0.334052
0.316922
0.30053
0.284778
0.270284
0.258863
0.473868
0.465271
0.467829
0.459207
0.444653
0.42646
0.406648
0.386335
0.366251
0.346839
0.32835
0.310796
0.294092
0.278785
0.266361
0.510669
0.498714
0.497027
0.484494
0.46664
0.44567
0.423513
0.401209
0.37943
0.358564
0.338821
0.320197
0.30262
0.286551
0.273174
0.544208
0.529139
0.523555
0.507445
0.486582
0.46308
0.438787
0.414671
0.391349
0.369161
0.348279
0.328686
0.310318
0.293547
0.279279
0.574203
0.556306
0.547215
0.5279
0.504342
0.478577
0.452373
0.426638
0.401938
0.37857
0.356672
0.336216
0.317145
0.299741
0.284656
0.600399
0.580001
0.567832
0.545711
0.5198
0.492057
0.464186
0.437038
0.411135
0.386738
0.363954
0.342749
0.323067
0.305105
0.289291
0.622576
0.600039
0.585253
0.560753
0.532848
0.50343
0.474148
0.445805
0.418886
0.393619
0.370085
0.348248
0.328052
0.309613
0.29317
0.640546
0.616261
0.599348
0.572918
0.543397
0.512623
0.482198
0.452887
0.425144
0.399172
0.375033
0.352685
0.332074
0.313246
0.296285
0.654158
0.628541
0.610013
0.58212
0.551375
0.519573
0.488283
0.458238
0.429873
0.403367
0.378769
0.356035
0.33511
0.315986
0.298627
0.663298
0.636782
0.617169
0.588293
0.556727
0.524235
0.492363
0.461827
0.433043
0.406179
0.381274
0.358281
0.337146
0.317822
0.300192
0.667889
0.640921
0.620763
0.591394
0.559415
0.526578
0.494414
0.463631
0.434637
0.407593
0.382533
0.35941
0.33817
0.318745
0.300978
-0.252873
-0.251513
-0.250178
-0.252318
-0.250597
-0.248938
-0.251959
-0.249814
-0.247848
-0.251794
-0.249167
-0.246924
-0.251877
-0.248659
-0.246168
-0.252143
-0.248237
-0.245556
-0.242243
-0.252765
-0.247816
-0.245108
-0.241515
-0.253138
-0.247789
-0.244646
-0.240919
-0.253224
-0.247929
-0.244236
-0.240463
-0.253105
-0.248054
-0.24396
-0.239922
-0.252584
-0.248138
-0.243687
-0.239788
-0.251463
-0.247927
-0.243268
-0.239326
-0.2352
-0.249743
-0.247169
-0.24265
-0.238761
-0.23476
-0.247567
-0.245707
-0.241673
-0.237936
-0.234103
-0.244879
-0.243541
-0.240204
-0.236747
-0.233156
-0.241637
-0.240698
-0.238151
-0.23509
-0.231826
-0.228394
-0.237812
-0.237276
-0.235489
-0.232887
-0.230041
-0.227018
-0.233484
-0.23346
-0.232292
-0.230149
-0.227782
-0.225214
-0.228996
-0.229485
-0.228723
-0.227045
-0.225211
-0.223145
-0.224567
-0.225253
-0.224386
-0.222969
-0.221599
-0.220053
-0.218193
-0.217168
-0.219654
-0.218691
-0.217409
-0.216415
-0.215397
-0.214095
-0.204166
-0.208998
-0.208778
-0.207632
-0.206994
-0.206674
-0.206205
-0.191849
-0.197985
-0.198714
-0.198099
-0.197957
-0.198269
-0.198519
-0.180478
-0.187223
-0.188917
-0.189033
-0.18944
-0.190279
-0.191096
-0.169828
-0.176961
-0.179501
-0.180376
-0.181333
-0.182627
-0.183901
-0.15999
-0.167336
-0.170559
-0.172127
-0.173608
-0.17531
-0.17697
-0.15097
-0.158386
-0.162147
-0.164316
-0.166276
-0.168347
-0.170341
-0.142708
-0.150109
-0.154285
-0.156962
-0.159345
-0.161747
-0.164031
-0.135162
-0.142488
-0.146976
-0.150071
-0.152818
-0.155509
-0.158043
-0.128281
-0.135488
-0.140204
-0.143639
-0.146693
-0.149632
-0.15238
-0.122009
-0.129072
-0.13395
-0.137657
-0.140964
-0.144112
-0.147042
-0.116299
-0.1232
-0.128187
-0.132108
-0.135623
-0.138943
-0.142026
-0.111104
-0.117835
-0.122891
-0.126978
-0.13066
-0.134121
-0.137329
-0.106384
-0.11294
-0.118033
-0.122248
-0.126062
-0.129638
-0.132948
-0.102101
-0.108484
-0.11359
-0.1179
-0.121818
-0.125484
-0.128877
-0.0982213
-0.104436
-0.109536
-0.113916
-0.117914
-0.12165
-0.125108
-0.0947154
-0.100767
-0.105848
-0.110278
-0.114337
-0.118127
-0.121635
-0.0915561
-0.0974531
-0.102506
-0.106969
-0.111073
-0.114903
-0.118451
-0.0887196
-0.0944717
-0.0994905
-0.103974
-0.10811
-0.11197
-0.115546
-0.0861847
-0.0918024
-0.0967836
-0.101279
-0.105437
-0.109317
-0.112915
-0.083933
-0.0894275
-0.0943698
-0.0988694
-0.103042
-0.106936
-0.110548
-0.0819481
-0.0873312
-0.0922348
-0.0967338
-0.100915
-0.104818
-0.10844
-0.080216
-0.0854997
-0.0903664
-0.0948614
-0.0990476
-0.102955
-0.106583
-0.0787244
-0.083921
-0.0887537
-0.0932429
-0.0974308
-0.10134
-0.104972
-0.077463
-0.0825849
-0.0873874
-0.09187
-0.0960578
-0.0999673
-0.103601
-0.0764231
-0.0814829
-0.0862597
-0.0907359
-0.0949226
-0.0988313
-0.102465
-0.0755973
-0.080608
-0.0853641
-0.089835
-0.0940202
-0.0979277
-0.101561
-0.0749806
-0.0799551
-0.0846963
-0.089163
-0.0933469
-0.0972531
-0.100886
-0.0745693
-0.0795208
-0.0842529
-0.0887172
-0.0929
-0.0968052
-0.100438
-0.0743495
-0.0792973
-0.0840275
-0.088492
-0.0926754
-0.0965806
-0.100213
-0.209059
-0.195234
-0.182251
-0.171337
-0.161057
-0.151556
-0.142971
-0.135132
-0.127975
-0.121468
-0.115545
-0.110155
-0.105255
-0.100806
-0.096772
-0.0931191
-0.0898192
-0.0868461
-0.0841772
-0.0817922
-0.0796735
-0.0778055
-0.076175
-0.0747701
-0.0735812
-0.0725998
-0.0718187
-0.0712333
-0.0708405
-0.0706151
-0.201838
-0.188628
-0.175738
-0.165296
-0.155461
-0.146229
-0.137943
-0.130403
-0.123502
-0.117233
-0.111535
-0.106348
-0.101634
-0.0973551
-0.0934737
-0.0899585
-0.0867819
-0.0839188
-0.0813473
-0.0790481
-0.077004
-0.0752003
-0.0736241
-0.0722642
-0.0711111
-0.0701568
-0.0693942
-0.068819
-0.0684266
-0.0681922
-0.1959
-0.183159
-0.170092
-0.159725
-0.150248
-0.141233
-0.133147
-0.125858
-0.119185
-0.113118
-0.107614
-0.102609
-0.0980601
-0.0939318
-0.0901884
-0.0867982
-0.0837343
-0.0809725
-0.0784913
-0.076272
-0.0742979
-0.0725548
-0.0710301
-0.0697131
-0.0685945
-0.0676664
-0.0669221
-0.0663574
-0.0659665
-0.0657274
-0.18976
-0.17734
-0.164396
-0.154145
-0.145031
-0.136298
-0.128403
-0.121342
-0.114894
-0.109019
-0.103697
-0.0988654
-0.0944744
-0.0904904
-0.0868792
-0.0836094
-0.0806542
-0.0779901
-0.0755962
-0.0734543
-0.0715483
-0.0698642
-0.06839
-0.0671151
-0.0660306
-0.065129
-0.0644035
-0.0638502
-0.0634626
-0.0632217
-0.18365
-0.171618
-0.158862
-0.148645
-0.139776
-0.13133
-0.12363
-0.116773
-0.110548
-0.104871
-0.099728
-0.0950668
-0.0908336
-0.0869931
-0.0835132
-0.0803631
-0.0775163
-0.0749498
-0.0726434
-0.0705792
-0.0687418
-0.0671174
-0.0656945
-0.0644628
-0.0634136
-0.0625396
-0.0618344
-0.0612942
-0.060912
-0.060672
-0.177326
-0.165576
-0.153118
-0.143032
-0.134399
-0.12627
-0.118804
-0.112151
-0.106144
-0.10067
-0.0957077
-0.0912154
-0.0871398
-0.0834429
-0.0800939
-0.0770633
-0.0743247
-0.0718558
-0.0696369
-0.0676508
-0.0658821
-0.064318
-0.0629469
-0.0617591
-0.0607462
-0.059901
-0.0592174
-0.0586919
-0.058317
-0.05808
-0.170843
-0.159416
-0.147334
-0.137411
-0.128965
-0.121126
-0.113912
-0.107465
-0.10167
-0.0964022
-0.0916242
-0.0873011
-0.0833836
-0.0798315
-0.0766143
-0.0737037
-0.0710741
-0.0687036
-0.066573
-0.0646657
-0.0629668
-0.0614639
-0.0601458
-0.0590031
-0.0580277
-0.0572128
-0.0565523
-0.0560431
-0.0556775
-0.0554455
-0.16419
-0.153038
-0.141364
-0.131671
-0.12343
-0.115878
-0.108939
-0.102714
-0.0971298
-0.0920698
-0.0874803
-0.0833279
-0.0795687
-0.0761624
-0.0730778
-0.0702878
-0.0677678
-0.0654962
-0.0634546
-0.0616267
-0.0599985
-0.0585576
-0.0572935
-0.0561969
-0.0552602
-0.0544767
-0.0538409
-0.0533495
-0.052995
-0.0527699
-0.157365
-0.146505
-0.135279
-0.125861
-0.117831
-0.110548
-0.103886
-0.0978943
-0.0925226
-0.0876694
-0.0832716
-0.0792927
-0.0756928
-0.0724332
-0.0694825
-0.0668142
-0.0644046
-0.0622329
-0.0602813
-0.0585339
-0.0569773
-0.0555995
-0.0543904
-0.0533412
-0.0524445
-0.0516938
-0.051084
-0.0506121
-0.0502702
-0.0500538
-0.150371
-0.139802
-0.129034
-0.119929
-0.112138
-0.105127
-0.0987469
-0.0930019
-0.0878491
-0.0832036
-0.0789998
-0.075197
-0.0717581
-0.0686463
-0.0658305
-0.063285
-0.0609868
-0.058916
-0.0570552
-0.0553893
-0.0539052
-0.0525915
-0.0514385
-0.0504378
-0.0495823
-0.0488658
-0.0482834
-0.0478324
-0.0475048
-0.0472987
-0.143199
-0.132945
-0.122653
-0.113894
-0.106364
-0.0996267
-0.0935269
-0.0880358
-0.0831081
-0.078672
-0.074664
-0.0710401
-0.0677641
-0.0648016
-0.0621222
-0.0597007
-0.0575151
-0.0555462
-0.0537773
-0.0521939
-0.0507835
-0.049535
-0.0484393
-0.0474883
-0.0466751
-0.0459941
-0.0454405
-0.0450117
-0.0446998
-0.0445058
-0.135846
-0.125933
-0.116125
-0.107734
-0.100493
-0.0940394
-0.0882231
-0.0829933
-0.0782985
-0.0740757
-0.0702657
-0.0668232
-0.0637125
-0.0609008
-0.0583592
-0.0560632
-0.0539914
-0.0521257
-0.0504498
-0.04895
-0.0476143
-0.0464322
-0.0453948
-0.0444945
-0.043725
-0.0430806
-0.042557
-0.0421518
-0.0418571
-0.0416765
-0.128305
-0.11877
-0.109458
-0.101456
-0.0945275
-0.0883695
-0.0828399
-0.0778756
-0.07342
-0.0694148
-0.0658053
-0.0625468
-0.0596038
-0.056945
-0.0545429
-0.0523738
-0.0504174
-0.048656
-0.0470744
-0.0456593
-0.0443994
-0.0432848
-0.0423069
-0.0414586
-0.0407337
-0.0401271
-0.0396349
-0.0392544
-0.0389781
-0.0388122
-0.120571
-0.111454
-0.102648
-0.0950531
-0.0884591
-0.0826115
-0.0773752
-0.0726821
-0.0684719
-0.0646895
-0.061284
-0.0582123
-0.0554397
-0.0529361
-0.0506753
-0.0486347
-0.0467951
-0.0451394
-0.0436534
-0.0423243
-0.0411414
-0.0400953
-0.039178
-0.0383826
-0.0377036
-0.037136
-0.0366761
-0.0363214
-0.0360647
-0.0359148
-0.11264
-0.103984
-0.0956992
-0.0885281
-0.0822882
-0.0767658
-0.0718308
-0.0674144
-0.0634552
-0.0599007
-0.0567031
-0.0538213
-0.0512217
-0.0488757
-0.0467583
-0.0448481
-0.0431268
-0.0415784
-0.0401892
-0.0389473
-0.0378425
-0.0368661
-0.0360104
-0.0352692
-0.034637
-0.0341093
-0.0336828
-0.033355
-0.0331189
-0.0329861
-0.104503
-0.0963564
-0.0886096
-0.0818798
-0.0760117
-0.0708297
-0.0662058
-0.062073
-0.0583708
-0.0550498
-0.0520644
-0.0493758
-0.0469523
-0.0447664
-0.0427945
-0.0410167
-0.0394154
-0.0379757
-0.0366846
-0.0355312
-0.0345058
-0.0336001
-0.0328071
-0.0321209
-0.0315365
-0.0310497
-0.0306574
-0.0303573
-0.0301431
-0.0300282
-0.0961558
-0.0885641
-0.081378
-0.0751108
-0.069631
-0.0648033
-0.0605008
-0.0566593
-0.0532205
-0.0501384
-0.04737
-0.0448783
-0.0426337
-0.0406106
-0.0387867
-0.0371431
-0.0356635
-0.0343341
-0.0331427
-0.032079
-0.031134
-0.0303001
-0.0295708
-0.0289406
-0.0284048
-0.0279598
-0.0276025
-0.0273309
-0.0271393
-0.027043
-0.0876011
-0.0805986
-0.0739993
-0.0682202
-0.0631458
-0.0586856
-0.0547149
-0.0511732
-0.0480048
-0.0451675
-0.0426208
-0.04033
-0.0382679
-0.0364104
-0.0347369
-0.0332298
-0.0318739
-0.0306564
-0.0295661
-0.0285933
-0.02773
-0.0269689
-0.0263043
-0.0257309
-0.0252446
-0.024842
-0.0245203
-0.0242778
-0.0241098
-0.024032
-0.0788629
-0.0724566
-0.0664649
-0.0612023
-0.0565531
-0.0524741
-0.0488458
-0.0456124
-0.0427211
-0.0401349
-0.0378155
-0.0357305
-0.033855
-0.0321667
-0.0306466
-0.0292785
-0.0280485
-0.0269448
-0.0259571
-0.0250768
-0.0242963
-0.0236092
-0.0230101
-0.0224944
-0.0220584
-0.0216989
-0.0214134
-0.0212006
-0.0210564
-0.0209958
-0.0699727
-0.0641466
-0.058765
-0.0540433
-0.049843
-0.0461624
-0.0428892
-0.0399726
-0.0373647
-0.0350363
-0.0329515
-0.0310786
-0.0293949
-0.0278802
-0.0265171
-0.025291
-0.0241893
-0.0232015
-0.0223183
-0.0215319
-0.0208356
-0.0202236
-0.0196911
-0.019234
-0.0188489
-0.0185331
-0.0182843
-0.0181018
-0.0179816
-0.0179359
-0.0609181
-0.0556924
-0.0508889
-0.0467311
-0.0430032
-0.0397448
-0.0368427
-0.0342526
-0.0319347
-0.0298729
-0.0280313
-0.0263778
-0.0248917
-0.023555
-0.0223525
-0.0212714
-0.0203007
-0.019431
-0.0186541
-0.0179633
-0.0173525
-0.0168167
-0.0163517
-0.015954
-0.0156205
-0.015349
-0.0151374
-0.0149857
-0.0148883
-0.0148584
-0.0516324
-0.0470817
-0.0428301
-0.0392731
-0.0360333
-0.0332247
-0.0307098
-0.0284618
-0.0264473
-0.0246619
-0.023071
-0.021642
-0.0203574
-0.0192021
-0.018163
-0.0172293
-0.0163915
-0.0156415
-0.0149724
-0.0143782
-0.0138539
-0.0133952
-0.0129985
-0.0126606
-0.0123793
-0.0121523
-0.0119782
-0.0118579
-0.0117815
-0.0117734
-0.0420143
-0.0383134
-0.0345976
-0.0316982
-0.0289497
-0.0266154
-0.0244967
-0.0226195
-0.0209372
-0.019433
-0.0180939
-0.0168903
-0.0158083
-0.0148353
-0.0139608
-0.0131755
-0.0124714
-0.011842
-0.0112813
-0.0107844
-0.0103471
-0.0099658
-0.00963752
-0.00935978
-0.00913062
-0.00894826
-0.00881153
-0.00872291
-0.00866567
-0.00868588
-0.032012
-0.0294445
-0.0262348
-0.0240507
-0.0217879
-0.0199426
-0.0182214
-0.0167453
-0.0154237
-0.0141982
-0.0131087
-0.0121298
-0.0112504
-0.0104603
-0.00975077
-0.00911433
-0.00854458
-0.00803605
-0.00758407
-0.00718465
-0.00683443
-0.00653057
-0.00627068
-0.00605286
-0.0058756
-0.00573744
-0.00563807
-0.00557877
-0.00554442
-0.00558675
-0.0217582
-0.0204791
-0.0178224
-0.0163363
-0.0145982
-0.0132332
-0.0119368
-0.010827
-0.00983135
-0.00890686
-0.00807828
-0.00733326
-0.00666346
-0.00606168
-0.00552152
-0.00503745
-0.00460475
-0.00421938
-0.00387788
-0.00357732
-0.00331525
-0.0030896
-0.00289866
-0.00274109
-0.00261583
-0.00252191
-0.00245962
-0.00242872
-0.00241894
-0.0024783
-0.0113361
-0.011183
-0.00929558
-0.0084694
-0.00731447
-0.00643816
-0.00558489
-0.00484885
-0.00418351
-0.00356726
-0.00300935
-0.00250591
-0.00205217
-0.00164394
-0.00127739
-0.000949139
-0.000656262
-0.000396258
-0.000166994
3.33305e-05
0.000206222
0.00035292
0.00047442
0.000571469
0.000644663
0.000694446
0.00072016
0.000722923
0.000708606
0.000634963
-0.000799164
-0.00165972
-0.000621643
-0.000469284
7.78815e-05
0.000446702
0.000844349
0.00119047
0.00151119
0.00181241
0.00209076
0.00234528
0.00257688
0.00278662
0.0029756
0.00314486
0.00329539
0.00342802
0.00354349
0.00364239
0.00372523
0.00379237
0.00384407
0.00388048
0.00390167
0.00390758
0.00389733
0.00387226
0.00383511
0.00374889
0.00986468
0.00802237
0.00820522
0.00765635
0.00758097
0.00741978
0.0073456
0.00728257
0.00724225
0.00721992
0.00721087
0.00721021
0.00721473
0.00722204
0.00723028
0.00723803
0.00724418
0.00724785
0.00724828
0.00724484
0.00723696
0.00722413
0.00720585
0.00718163
0.00715104
0.0071135
0.00706795
0.00701567
0.00695708
0.00685985
0.0206716
0.017841
0.0171783
0.0159004
0.0151805
0.0144633
0.0138974
0.0134079
0.0129935
0.0126406
0.0123391
0.0120792
0.0118535
0.0116556
0.0114808
0.0113251
0.0111853
0.0110586
0.0109429
0.0108363
0.0107372
0.010644
0.0105556
0.0104709
0.0103888
0.0103084
0.0102282
0.0101496
0.0100709
0.00996441
0.0316306
0.02779
0.0262733
0.0242354
0.0228407
0.0215454
0.0204744
0.0195498
0.018756
0.0180698
0.0174733
0.0169517
0.0164929
0.0160872
0.0157267
0.015405
0.015117
0.0148583
0.014625
0.014414
0.0142228
0.0140488
0.01389
0.0137447
0.0136114
0.0134885
0.0133746
0.0132705
0.0131731
0.0130593
0.0427289
0.0378399
0.0354381
0.0326186
0.0305346
0.0286608
0.0270874
0.0257289
0.0245542
0.0235305
0.0226337
0.021844
0.0211456
0.0205258
0.0199741
0.0194818
0.0190416
0.0186473
0.0182938
0.0179765
0.0176916
0.0174358
0.017206
0.017
0.0168156
0.0166507
0.0165037
0.016375
0.0162602
0.0161412
0.0539222
0.0479483
0.0446422
0.0410656
0.0383161
0.0358825
0.0338115
0.0320119
0.0304419
0.0290639
0.0278497
0.0267763
0.0258249
0.0249797
0.0242274
0.0235569
0.0229585
0.0224242
0.0219469
0.0215207
0.0211403
0.0208014
0.0205
0.020233
0.0199975
0.0197911
0.0196118
0.0194596
0.0193289
0.0192068
0.0651716
0.0581376
0.0539692
0.0497023
0.0463094
0.0433072
0.0407083
0.0384298
0.036428
0.0346642
0.0331073
0.0317306
0.0305111
0.0294292
0.0284682
0.0276135
0.0268528
0.0261755
0.0255727
0.0250364
0.02456
0.0241379
0.0237652
0.0234377
0.0231521
0.0229051
0.0226948
0.0225203
0.0223754
0.0222525
0.0765142
0.0685405
0.0635435
0.0585845
0.0544831
0.0508358
0.0476428
0.0448365
0.0423713
0.0402036
0.038295
0.0366116
0.0351245
0.0338084
0.0326421
0.0316072
0.0306883
0.0298721
0.0291473
0.0285044
0.0279352
0.0274328
0.0269913
0.0266058
0.0262721
0.0259868
0.0257475
0.0255527
0.0253958
0.0252746
0.0879956
0.0791467
0.0731488
0.067339
0.0624013
0.0580425
0.054239
0.0509188
0.0480193
0.045482
0.0432558
0.0412975
0.0395705
0.0380443
0.0366929
0.0354948
0.0344316
0.0334878
0.0326505
0.0319087
0.031253
0.0306756
0.0301698
0.02973
0.0293517
0.029031
0.0287653
0.0285525
0.0283862
0.0282693
0.0993683
0.0894466
0.0821369
0.0753643
0.0696159
0.0646358
0.0603317
0.056599
0.0533504
0.0505113
0.0480206
0.045828
0.0438922
0.0421789
0.0406598
0.039311
0.0381126
0.037048
0.036103
0.0352658
0.0345262
0.0338757
0.0333072
0.0328146
0.032393
0.0320382
0.0317474
0.0315181
0.0313447
0.0312344
0.11015
0.0991207
0.0906433
0.0831579
0.0768394
0.0714001
0.066687
0.0625792
0.0589845
0.0558272
0.0530452
0.0505869
0.0484094
0.046477
0.0447599
0.0432329
0.0418748
0.0406676
0.0395961
0.0386474
0.0378103
0.0370756
0.0364353
0.0358826
0.035412
0.035019
0.0347002
0.0344528
0.0342726
0.0341697
0.120791
0.109735
0.100819
0.0929151
0.0860614
0.0800429
0.0747317
0.0700372
0.0658884
0.0622203
0.0589742
0.056098
0.0535466
0.0512815
0.0492694
0.047482
0.0458949
0.0444871
0.0432409
0.0421406
0.0411731
0.0403271
0.0395931
0.0389629
0.0384297
0.037988
0.0376337
0.0373631
0.0371737
0.0370755
0.132624
0.122981
0.113895
0.105343
0.0975912
0.0906223
0.0843836
0.0788221
0.0738831
0.0695061
0.0656297
0.0621969
0.0591563
0.0564625
0.0540762
0.051963
0.0500931
0.0484406
0.0469833
0.0457019
0.04458
0.0436034
0.0427602
0.0420402
0.0414349
0.0409377
0.0405429
0.0402462
0.040045
0.0399468
0.142891
0.13379
0.124134
0.114798
0.106232
0.0985208
0.0916295
0.0854938
0.0800454
0.0752154
0.0709369
0.0671479
0.0637923
0.0608209
0.0581901
0.0558621
0.053804
0.0519872
0.0503871
0.0489823
0.0477546
0.0466882
0.04577
0.0449885
0.0443346
0.0438006
0.0433803
0.0430689
0.0428632
0.0427656
0.15765
0.145788
0.134936
0.124875
0.115816
0.107786
0.10069
0.0943963
0.0887984
0.0838142
0.0793754
0.0754221
0.0719011
0.0687656
0.0659743
0.0634915
0.0612856
0.0593294
0.0575992
0.0560744
0.0547373
0.0535726
0.0525674
0.0517105
0.0509928
0.0504066
0.0499457
0.0496053
0.0493816
0.0492712
0.171462
0.15788
0.146744
0.136976
0.12821
0.120322
0.113239
0.106883
0.101172
0.0960392
0.0914247
0.0872777
0.0835524
0.080208
0.0772081
0.0745203
0.0721164
0.0699712
0.0680629
0.0663722
0.0648825
0.0635793
0.06245
0.061484
0.0606723
0.0600074
0.0594831
0.0590948
0.0588389
0.0587132
0.175105
0.164562
0.154823
0.145884
0.137696
0.13021
0.123389
0.117189
0.111561
0.106454
0.10182
0.0976187
0.0938122
0.0903673
0.087254
0.0844453
0.0819171
0.0796479
0.0776185
0.0758118
0.0742129
0.0728086
0.0715874
0.0705394
0.0696563
0.068931
0.0683577
0.0679318
0.0676497
0.0675088
0.176159
0.167157
0.158667
0.150755
0.143437
0.136676
0.130432
0.124674
0.119375
0.114507
0.110043
0.105956
0.102221
0.0988131
0.0957115
0.0928949
0.0903444
0.0880425
0.0859736
0.0841235
0.0824794
0.0810301
0.0797658
0.0786778
0.0777586
0.0770021
0.0764031
0.0759576
0.0756624
0.0755161
0.174099
0.167041
0.160138
0.153501
0.147189
0.141228
0.135627
0.130388
0.125507
0.120974
0.116776
0.112897
0.109323
0.106037
0.103024
0.100271
0.097762
0.0954853
0.0934287
0.0915811
0.0899326
0.0884741
0.0871975
0.0860958
0.0851626
0.0843929
0.0837823
0.0833274
0.0830253
0.0828742
0.171845
0.165958
0.160136
0.15447
0.149028
0.143837
0.13891
0.134252
0.129865
0.125749
0.121899
0.118311
0.114976
0.111888
0.109037
0.106415
0.104012
0.10182
0.0998302
0.0980352
0.0964273
0.0949997
0.0937464
0.0926618
0.0917411
0.0909802
0.0903757
0.0899247
0.0896253
0.0894764
0.168612
0.163899
0.159156
0.154474
0.149899
0.14546
0.141185
0.137091
0.133192
0.129498
0.126012
0.122736
0.119669
0.116808
0.114149
0.111689
0.109423
0.107344
0.105449
0.103732
0.102188
0.100812
0.0996006
0.0985494
0.097655
0.0969143
0.0963248
0.0958845
0.0955917
0.0954451
0.165786
0.161859