/*--------------------------------*- C++ -*----------------------------------*\
  =========                 |
  \\      /  F ield         | OpenFOAM: The Open Source CFD Toolbox
   \\    /   O peration     | Website:  https://openfoam.org
    \\  /    A nd           | Version:  7
     \\/     M anipulation  |
\*---------------------------------------------------------------------------*/
FoamFile
{
    version     2.0;
    format      ascii;
    class       surfaceScalarField;
    location    "45";
    object      phi;
}
// * * * * * * * * * * * * * * * * * * * * * * * * * * * * * * * * * * * * * //

dimensions      [0 3 -1 0 0 0 0];

internalField   nonuniform List<scalar> 
2641
(
-0.000287197
0.013143
0.000292666
-0.000274685
0.0140123
-0.000257038
0.0147893
-0.000236168
0.0154565
-0.000213805
0.0160068
-0.00019135
0.0164426
-0.000169806
0.0167731
-0.000149775
0.0170125
-0.000131512
0.0171769
-0.000115012
0.0172826
-0.000100106
0.0173444
-8.6542e-05
0.0173752
-7.40474e-05
0.0173852
-6.23673e-05
0.0173823
-5.12845e-05
0.0173724
-4.06255e-05
0.0173597
-3.02566e-05
0.0173469
-2.00776e-05
0.0173359
-1.00124e-05
0.0173281
0.017324
-0.000283017
0.0131378
0.000288251
-0.000270828
0.0140001
-0.000253555
0.014772
-0.000233074
0.015436
-0.000211084
0.0159848
-0.000188967
0.0164204
-0.000167717
0.0167519
-0.000147934
0.0169927
-0.000129882
0.0171588
-0.000113565
0.0172662
-9.88222e-05
0.0173297
-8.54101e-05
0.0173618
-7.30613e-05
0.0173728
-6.15241e-05
0.0173708
-5.0583e-05
0.0173615
-4.0065e-05
0.0173492
-2.98369e-05
0.0173366
-1.97982e-05
0.0173259
-9.87256e-06
0.0173182
0.0173141
-0.000278908
0.0131328
0.000283916
-0.000267032
0.0139883
-0.000250122
0.0147551
-0.000230019
0.0154159
-0.000208393
0.0159632
-0.000186607
0.0163987
-0.000165643
0.0167309
-0.000146106
0.0169732
-0.000128261
0.017141
-0.000112123
0.0172501
-9.75419e-05
0.0173151
-8.42801e-05
0.0173485
-7.20757e-05
0.0173606
-6.06804e-05
0.0173594
-4.98805e-05
0.0173507
-3.95033e-05
0.0173388
-2.94159e-05
0.0173266
-1.95177e-05
0.017316
-9.73262e-06
0.0173084
0.0173044
-0.000274871
0.013128
0.000279659
-0.000263297
0.0139767
-0.00024674
0.0147386
-0.000227006
0.0153962
-0.000205735
0.0159419
-0.000184271
0.0163772
-0.000163589
0.0167102
-0.000144291
0.0169539
-0.00012665
0.0171234
-0.00011069
0.0172341
-9.62675e-05
0.0173007
-8.31542e-05
0.0173354
-7.10927e-05
0.0173486
-5.98381e-05
0.0173481
-4.91782e-05
0.01734
-3.89415e-05
0.0173285
-2.89945e-05
0.0173166
-1.92369e-05
0.0173063
-9.592e-06
0.0172987
0.0172948
-0.000270905
0.0131234
0.000275482
-0.000259626
0.0139654
-0.000243411
0.0147224
-0.000224035
0.0153768
-0.00020311
0.015921
-0.000181962
0.016356
-0.000161555
0.0166898
-0.000142493
0.0169348
-0.000125053
0.0171059
-0.000109267
0.0172184
-9.50013e-05
0.0172864
-8.20343e-05
0.0173224
-7.01141e-05
0.0173367
-5.89989e-05
0.017337
-4.84783e-05
0.0173295
-3.83809e-05
0.0173184
-2.85739e-05
0.0173068
-1.89563e-05
0.0172966
-9.45183e-06
0.0172892
0.0172853
-0.00026701
0.013119
0.000271382
-0.000256017
0.0139544
-0.000240136
0.0147065
-0.000221109
0.0153578
-0.000200522
0.0159004
-0.000179681
0.0163352
-0.000159545
0.0166697
-0.000140713
0.016916
-0.00012347
0.0170887
-0.000107856
0.0172027
-9.37451e-05
0.0172723
-8.09224e-05
0.0173096
-6.91417e-05
0.0173249
-5.81643e-05
0.017326
-4.77816e-05
0.0173191
-3.78226e-05
0.0173085
-2.81546e-05
0.0172971
-1.86766e-05
0.0172872
-9.31204e-06
0.0172799
0.017276
-0.000263188
0.0131149
0.00026736
-0.000252472
0.0139437
-0.000236916
0.0146909
-0.000218229
0.0153391
-0.000197971
0.0158802
-0.000177432
0.0163147
-0.000157559
0.0166498
-0.000138954
0.0168974
-0.000121905
0.0170716
-0.00010646
0.0171873
-9.25007e-05
0.0172583
-7.98203e-05
0.0172969
-6.81771e-05
0.0173132
-5.73357e-05
0.0173152
-4.70891e-05
0.0173089
-3.72675e-05
0.0172987
-2.77375e-05
0.0172876
-1.83982e-05
0.0172778
-9.17267e-06
0.0172706
0.0172669
-0.000259436
0.0131109
0.000263416
-0.000248991
0.0139332
-0.00023375
0.0146757
-0.000215395
0.0153207
-0.000195459
0.0158602
-0.000175214
0.0162944
-0.000155601
0.0166302
-0.000137218
0.016879
-0.000120359
0.0170548
-0.00010508
0.017172
-9.127e-05
0.0172445
-7.87295e-05
0.0172844
-6.72217e-05
0.0173017
-5.65146e-05
0.0173045
-4.64027e-05
0.0172988
-3.67167e-05
0.017289
-2.73236e-05
0.0172782
-1.81218e-05
0.0172686
-9.03432e-06
0.0172615
0.0172578
-0.000255755
0.0131071
0.000259548
-0.000245573
0.0139231
-0.00023064
0.0146608
-0.000212608
0.0153027
-0.000192987
0.0158406
-0.00017303
0.0162745
-0.00015367
0.0166108
-0.000135505
0.0168608
-0.000118834
0.0170381
-0.000103717
0.0171569
-9.00545e-05
0.0172308
-7.76515e-05
0.017272
-6.6277e-05
0.0172903
-5.5702e-05
0.0172939
-4.5723e-05
0.0172888
-3.6171e-05
0.0172794
-2.69131e-05
0.017269
-1.78477e-05
0.0172596
-8.89701e-06
0.0172526
0.0172489
-0.000252145
0.0131035
0.000255756
-0.000242219
0.0139131
-0.000227586
0.0146461
-0.00020987
0.015285
-0.000190555
0.0158213
-0.000170881
0.0162548
-0.00015177
0.0165917
-0.000133819
0.0168429
-0.000117331
0.0170216
-0.000102374
0.0171419
-8.88558e-05
0.0172173
-7.65879e-05
0.0172597
-6.53443e-05
0.0172791
-5.48994e-05
0.0172835
-4.50511e-05
0.017279
-3.56313e-05
0.01727
-2.6507e-05
0.0172598
-1.75764e-05
0.0172506
-8.76141e-06
0.0172438
0.0172402
-0.000248605
0.0131
0.00025204
-0.000238928
0.0139035
-0.000224589
0.0146318
-0.00020718
0.0152676
-0.000188166
0.0158023
-0.000168768
0.0162354
-0.0001499
0.0165729
-0.000132159
0.0168252
-0.000115851
0.0170053
-0.000101052
0.0171271
-8.76751e-05
0.0172039
-7.55398e-05
0.0172476
-6.44248e-05
0.017268
-5.41076e-05
0.0172732
-4.43881e-05
0.0172692
-3.50984e-05
0.0172607
-2.6106e-05
0.0172508
-1.73083e-05
0.0172418
-8.62692e-06
0.0172351
0.0172315
-0.000245135
0.0130968
0.000248397
-0.000235702
0.013894
-0.000221648
0.0146177
-0.00020454
0.0152505
-0.00018582
0.0157836
-0.000166692
0.0162163
-0.000148063
0.0165542
-0.000130527
0.0168076
-0.000114396
0.0169892
-9.97514e-05
0.0171125
-8.65137e-05
0.0171907
-7.45086e-05
0.0172356
-6.35196e-05
0.017257
-5.33279e-05
0.017263
-4.37345e-05
0.0172596
-3.45731e-05
0.0172516
-2.57103e-05
0.017242
-1.70438e-05
0.0172332
-8.49468e-06
0.0172266
0.017223
-0.000241734
0.0130937
0.000244829
-0.000232538
0.0138848
-0.000218763
0.014604
-0.00020195
0.0152336
-0.000183517
0.0157651
-0.000164654
0.0161974
-0.000146259
0.0165358
-0.000128925
0.0167903
-0.000112968
0.0169732
-9.84743e-05
0.017098
-8.53729e-05
0.0171776
-7.34952e-05
0.0172237
-6.26299e-05
0.0172461
-5.2561e-05
0.0172529
-4.30917e-05
0.0172502
-3.40559e-05
0.0172425
-2.53207e-05
0.0172332
-1.67832e-05
0.0172246
-8.36405e-06
0.0172181
0.0172147
-0.000238402
0.0130908
0.000241332
-0.000229437
0.0138759
-0.000215935
0.0145904
-0.00019941
0.0152171
-0.000181258
0.015747
-0.000162654
0.0161788
-0.000144489
0.0165177
-0.000127354
0.0167731
-0.000111567
0.0169574
-9.72216e-05
0.0170837
-8.42537e-05
0.0171646
-7.25009e-05
0.0172119
-6.17566e-05
0.0172354
-5.1808e-05
0.017243
-4.24602e-05
0.0172408
-3.35477e-05
0.0172336
-2.49379e-05
0.0172246
-1.6527e-05
0.0172162
-8.23556e-06
0.0172098
0.0172064
-0.000235137
0.013088
0.000237908
-0.000226399
0.0138671
-0.000213164
0.0145772
-0.00019692
0.0152009
-0.000179044
0.0157291
-0.000160694
0.0161604
-0.000142754
0.0164997
-0.000125813
0.0167562
-0.000110193
0.0169418
-9.59942e-05
0.0170695
-8.31571e-05
0.0171518
-7.15265e-05
0.0172003
-6.09005e-05
0.0172248
-5.10696e-05
0.0172331
-4.18406e-05
0.0172316
-3.3049e-05
0.0172248
-2.45618e-05
0.0172161
-1.62754e-05
0.0172079
-8.10961e-06
0.0172017
0.0171983
-0.000231939
0.0130854
0.000234554
-0.000223423
0.0138586
-0.000210449
0.0145642
-0.000194481
0.0151849
-0.000176875
0.0157115
-0.000158774
0.0161423
-0.000141055
0.016482
-0.000124306
0.0167395
-0.00010885
0.0169263
-9.47931e-05
0.0170554
-8.20842e-05
0.0171391
-7.05731e-05
0.0171888
-6.00627e-05
0.0172143
-5.03467e-05
0.0172234
-4.12339e-05
0.0172225
-3.25604e-05
0.0172161
-2.41933e-05
0.0172078
-1.60288e-05
0.0171998
-7.98599e-06
0.0171936
0.0171904
-0.000228808
0.0130829
0.00023127
-0.000220508
0.0138503
-0.00020779
0.0145515
-0.000192092
0.0151692
-0.000174751
0.0156941
-0.000156895
0.0161245
-0.000139393
0.0164645
-0.000122831
0.0167229
-0.000107536
0.0169111
-9.36192e-05
0.0170415
-8.10358e-05
0.0171265
-6.96413e-05
0.0171774
-5.92438e-05
0.0172039
-4.964e-05
0.0172138
-4.06405e-05
0.0172135
-3.20824e-05
0.0172076
-2.38327e-05
0.0171995
-1.57874e-05
0.0171917
-7.8651e-06
0.0171857
0.0171825
-0.000225742
0.0130806
0.000228055
-0.000217655
0.0138422
-0.000205187
0.0145391
-0.000189755
0.0151538
-0.000172672
0.0156771
-0.000155057
0.0161069
-0.000137767
0.0164472
-0.00012139
0.0167065
-0.000106253
0.0168959
-9.24733e-05
0.0170277
-8.00125e-05
0.0171141
-6.87322e-05
0.0171661
-5.84448e-05
0.0171936
-4.89502e-05
0.0172043
-4.00612e-05
0.0172046
-3.16155e-05
0.0171991
-2.34805e-05
0.0171914
-1.55515e-05
0.0171838
-7.74661e-06
0.0171779
0.0171747
-0.000222741
0.0130784
0.000224908
-0.000214862
0.0138343
-0.00020264
0.0145268
-0.000187467
0.0151386
-0.00017064
0.0156602
-0.00015326
0.0160895
-0.00013618
0.0164301
-0.000119983
0.0166903
-0.000105001
0.0168809
-9.13563e-05
0.0170141
-7.90155e-05
0.0171017
-6.78464e-05
0.017155
-5.76661e-05
0.0171834
-4.8278e-05
0.0171949
-3.94966e-05
0.0171958
-3.11604e-05
0.0171908
-2.3137e-05
0.0171834
-1.53214e-05
0.017176
-7.63135e-06
0.0171702
0.0171671
-0.000219803
0.0130764
0.000221828
-0.000212129
0.0138267
-0.000200148
0.0145149
-0.000185231
0.0151237
-0.000168654
0.0156437
-0.000151505
0.0160723
-0.000134631
0.0164133
-0.000118612
0.0166743
-0.000103782
0.0168661
-9.02689e-05
0.0170005
-7.80454e-05
0.0170895
-6.69848e-05
0.0171439
-5.69088e-05
0.0171733
-4.76241e-05
0.0171856
-3.89471e-05
0.0171871
-3.07173e-05
0.0171826
-2.28025e-05
0.0171755
-1.50974e-05
0.0171683
-7.51898e-06
0.0171626
0.0171596
-0.000216929
0.0130745
0.000218813
-0.000209456
0.0138192
-0.000197712
0.0145031
-0.000183045
0.015109
-0.000166714
0.0156273
-0.000149793
0.0160554
-0.000133121
0.0163966
-0.000117276
0.0166585
-0.000102596
0.0168514
-8.92118e-05
0.0169872
-7.71028e-05
0.0170774
-6.61479e-05
0.0171329
-5.61733e-05
0.0171633
-4.6989e-05
0.0171765
-3.84135e-05
0.0171786
-3.02869e-05
0.0171744
-2.24775e-05
0.0171676
-1.48796e-05
0.0171607
-7.40987e-06
0.0171552
0.0171522
-0.000214117
0.0130728
0.000215863
-0.000206841
0.0138119
-0.00019533
0.0144916
-0.00018091
0.0150946
-0.00016482
0.0156112
-0.000148123
0.0160387
-0.00013165
0.0163801
-0.000115977
0.0166428
-0.000101443
0.0168369
-8.81856e-05
0.0169739
-7.61884e-05
0.0170654
-6.53365e-05
0.0171221
-5.54604e-05
0.0171535
-4.63734e-05
0.0171674
-3.7896e-05
0.0171701
-2.98696e-05
0.0171664
-2.21623e-05
0.0171599
-1.46683e-05
0.0171532
-7.30378e-06
0.0171478
0.0171449
-0.000211367
0.0130712
0.000212976
-0.000204285
0.0138048
-0.000193003
0.0144803
-0.000178825
0.0150804
-0.000162973
0.0155954
-0.000146497
0.0160223
-0.000130219
0.0163638
-0.000114715
0.0166273
-0.000100325
0.0168225
-8.71912e-05
0.0169608
-7.53033e-05
0.0170535
-6.45513e-05
0.0171113
-5.47707e-05
0.0171437
-4.57779e-05
0.0171584
-3.73953e-05
0.0171617
-2.94657e-05
0.0171585
-2.18571e-05
0.0171523
-1.44638e-05
0.0171458
-7.20107e-06
0.0171405
0.0171377
-0.000208677
0.0130697
0.000210152
-0.000201786
0.0137979
-0.000190729
0.0144693
-0.00017679
0.0150665
-0.000161172
0.0155798
-0.000144913
0.016006
-0.000128828
0.0163478
-0.00011349
0.0166119
-9.92416e-05
0.0168083
-8.6229e-05
0.0169478
-7.44477e-05
0.0170417
-6.3793e-05
0.0171007
-5.41047e-05
0.017134
-4.5203e-05
0.0171495
-3.69121e-05
0.0171534
-2.90757e-05
0.0171507
-2.15625e-05
0.0171448
-1.42663e-05
0.0171385
-7.1022e-06
0.0171334
0.0171306
-0.000206046
0.0130683
0.000207389
-0.000199344
0.0137912
-0.00018851
0.0144584
-0.000174806
0.0150528
-0.000159419
0.0155644
-0.000143373
0.0159899
-0.000127477
0.0163319
-0.000112303
0.0165968
-9.81936e-05
0.0167941
-8.52999e-05
0.0169349
-7.36224e-05
0.01703
-6.30621e-05
0.0170901
-5.34633e-05
0.0171244
-4.46493e-05
0.0171407
-3.64467e-05
0.0171452
-2.87001e-05
0.0171429
-2.12787e-05
0.0171374
-1.4076e-05
0.0171313
-7.00657e-06
0.0171263
0.0171236
-0.000203474
0.0130671
0.000204686
-0.000196958
0.0137847
-0.000186343
0.0144478
-0.000172871
0.0150393
-0.000157712
0.0155492
-0.000141877
0.0159741
-0.000126169
0.0163161
-0.000111155
0.0165818
-9.7182e-05
0.0167802
-8.44044e-05
0.0169221
-7.28282e-05
0.0170185
-6.23594e-05
0.0170797
-5.2847e-05
0.0171149
-4.41174e-05
0.0171319
-3.59997e-05
0.0171371
-2.83393e-05
0.0171352
-2.10059e-05
0.0171301
-1.3893e-05
0.0171242
-6.91478e-06
0.0171193
0.0171167
-0.00020096
0.013066
0.000202043
-0.000194628
0.0137784
-0.000184229
0.0144374
-0.000170986
0.0150261
-0.000156052
0.0155343
-0.000140425
0.0159585
-0.000124901
0.0163006
-0.000110046
0.0165669
-9.62073e-05
0.0167663
-8.35433e-05
0.0169094
-7.20657e-05
0.017007
-6.16856e-05
0.0170693
-5.22563e-05
0.0171054
-4.36079e-05
0.0171233
-3.55712e-05
0.017129
-2.79936e-05
0.0171277
-2.07446e-05
0.0171228
-1.37178e-05
0.0171171
-6.82669e-06
0.0171124
0.0171098
-0.000198503
0.0130651
0.000199457
-0.000192352
0.0137722
-0.000182168
0.0144272
-0.000169152
0.015013
-0.000154439
0.0155196
-0.000139018
0.0159431
-0.000123676
0.0162853
-0.000108977
0.0165522
-9.52697e-05
0.0167526
-8.27172e-05
0.0168969
-7.13356e-05
0.0169956
-6.10412e-05
0.017059
-5.1692e-05
0.0170961
-4.31213e-05
0.0171147
-3.51623e-05
0.0171211
-2.76635e-05
0.0171202
-2.04951e-05
0.0171156
-1.35504e-05
0.0171102
-6.74278e-06
0.0171056
0.0171031
-0.000196102
0.0130643
0.000196929
-0.000190131
0.0137663
-0.000180159
0.0144173
-0.000167366
0.0150003
-0.000152873
0.0155051
-0.000137656
0.0159278
-0.000122493
0.0162701
-0.000107948
0.0165377
-9.43707e-05
0.0167391
-8.19269e-05
0.0168844
-7.06386e-05
0.0169843
-6.04271e-05
0.0170488
-5.11548e-05
0.0170868
-4.26582e-05
0.0171062
-3.47732e-05
0.0171132
-2.73494e-05
0.0171127
-2.02575e-05
0.0171086
-1.3391e-05
0.0171033
-6.6629e-06
0.0170989
0.0170964
-0.000193755
0.0130636
0.000194455
-0.000187963
0.0137605
-0.000178201
0.0144075
-0.000165631
0.0149877
-0.000151355
0.0154908
-0.000136338
0.0159128
-0.000121354
0.0162551
-0.00010696
0.0165233
-9.35103e-05
0.0167256
-8.11732e-05
0.0168721
-6.99755e-05
0.0169731
-5.98439e-05
0.0170386
-5.06451e-05
0.0170776
-4.22193e-05
0.0170978
-3.44045e-05
0.0171054
-2.70517e-05
0.0171054
-2.00323e-05
0.0171015
-1.324e-05
0.0170965
-6.58695e-06
0.0170922
0.0170898
-0.000191462
0.013063
0.000192036
-0.000185849
0.0137549
-0.000176295
0.0143979
-0.000163945
0.0149753
-0.000149885
0.0154767
-0.000135067
0.015898
-0.000120258
0.0162403
-0.000106015
0.016509
-9.26897e-05
0.0167123
-8.04568e-05
0.0168599
-6.93472e-05
0.016962
-5.92925e-05
0.0170286
-5.01639e-05
0.0170685
-4.18051e-05
0.0170894
-3.40567e-05
0.0170976
-2.6771e-05
0.0170981
-1.98201e-05
0.0170946
-1.30975e-05
0.0170898
-6.51539e-06
0.0170857
0.0170833
-0.000189222
0.0130625
0.000189669
-0.000183786
0.0137494
-0.000174441
0.0143886
-0.000162309
0.0149632
-0.000148463
0.0154629
-0.000133842
0.0158834
-0.000119207
0.0162257
-0.000105112
0.0164949
-9.191e-05
0.0166991
-7.97788e-05
0.0168477
-6.87544e-05
0.016951
-5.87735e-05
0.0170186
-4.97118e-05
0.0170594
-4.14164e-05
0.0170811
-3.37303e-05
0.01709
-2.65075e-05
0.0170909
-1.96208e-05
0.0170877
-1.29637e-05
0.0170832
-6.44809e-06
0.0170792
0.0170769
-0.000187034
0.0130622
0.000187355
-0.000181775
0.0137442
-0.000172636
0.0143795
-0.000160722
0.0149513
-0.000147089
0.0154493
-0.000132664
0.015869
-0.000118202
0.0162112
-0.000104252
0.016481
-9.11717e-05
0.016686
-7.91399e-05
0.0168357
-6.81982e-05
0.01694
-5.82879e-05
0.0170087
-4.92894e-05
0.0170504
-4.10536e-05
0.0170729
-3.34259e-05
0.0170823
-2.62618e-05
0.0170837
-1.94349e-05
0.0170809
-1.28389e-05
0.0170766
-6.38563e-06
0.0170727
0.0170705
-0.000184897
0.013062
0.00018509
-0.000179816
0.0137391
-0.000170883
0.0143705
-0.000159186
0.0149396
-0.000145764
0.0154358
-0.000131534
0.0158547
-0.000117242
0.0161969
-0.000103438
0.0164672
-9.0476e-05
0.016673
-7.85413e-05
0.0168238
-6.76791e-05
0.0169292
-5.78365e-05
0.0169988
-4.88978e-05
0.0170415
-4.07177e-05
0.0170647
-3.31441e-05
0.0170748
-2.60344e-05
0.0170766
-1.92629e-05
0.0170741
-1.27233e-05
0.01707
-6.32732e-06
0.0170663
0.0170642
-0.00018281
0.013062
0.000182874
-0.000177906
0.0137342
-0.00016918
0.0143618
-0.0001577
0.0149281
-0.000144489
0.0154226
-0.000130453
0.0158407
-0.00011633
0.0161828
-0.000102669
0.0164535
-8.98241e-05
0.0166602
-7.79839e-05
0.0168119
-6.7199e-05
0.0169184
-5.74204e-05
0.0169891
-4.85376e-05
0.0170326
-4.04092e-05
0.0170566
-3.28857e-05
0.0170672
-2.58257e-05
0.0170696
-1.91047e-05
0.0170674
-1.26171e-05
0.0170635
-6.27419e-06
0.01706
0.0170579
-0.000180772
0.013062
0.000180705
-0.000176047
0.0137295
-0.000167528
0.0143533
-0.000156264
0.0149168
-0.000143264
0.0154096
-0.000129421
0.0158269
-0.000115467
0.0161689
-0.000101946
0.01644
-8.92169e-05
0.0166475
-7.74692e-05
0.0168002
-6.67581e-05
0.0169077
-5.70404e-05
0.0169793
-4.82099e-05
0.0170238
-4.01289e-05
0.0170485
-3.26507e-05
0.0170598
-2.56361e-05
0.0170625
-1.89612e-05
0.0170607
-1.25206e-05
0.0170571
-6.22545e-06
0.0170537
0.0170517
-0.000178781
0.0130622
0.000178581
-0.000174237
0.0137249
-0.000165926
0.014345
-0.00015488
0.0149058
-0.00014209
0.0153968
-0.000128439
0.0158132
-0.000114653
0.0161551
-0.000101273
0.0164266
-8.86563e-05
0.0166348
-7.69982e-05
0.0167885
-6.6358e-05
0.016897
-5.66976e-05
0.0169697
-4.79155e-05
0.017015
-3.98776e-05
0.0170405
-3.24402e-05
0.0170523
-2.54662e-05
0.0170556
-1.88326e-05
0.0170541
-1.2434e-05
0.0170507
-6.182e-06
0.0170474
0.0170455
-0.000176837
0.0130626
0.000176501
-0.000172476
0.0137206
-0.000164376
0.0143369
-0.000153547
0.014895
-0.000140968
0.0153843
-0.00012751
0.0157998
-0.000113891
0.0161415
-0.000100649
0.0164134
-8.81435e-05
0.0166223
-7.65724e-05
0.0167769
-6.60001e-05
0.0168865
-5.63932e-05
0.0169601
-4.76553e-05
0.0170063
-3.96561e-05
0.0170325
-3.2255e-05
0.0170449
-2.53165e-05
0.0170486
-1.87189e-05
0.0170475
-1.23575e-05
0.0170443
-6.14351e-06
0.0170412
0.0170393
-0.000174939
0.013063
0.000174463
-0.000170764
0.0137164
-0.000162876
0.014329
-0.000152267
0.0148844
-0.0001399
0.0153719
-0.000126634
0.0157865
-0.000113181
0.016128
-0.000100076
0.0164003
-8.76802e-05
0.0166099
-7.61935e-05
0.0167655
-6.56854e-05
0.016876
-5.61284e-05
0.0169505
-4.74304e-05
0.0169976
-3.94652e-05
0.0170245
-3.20954e-05
0.0170375
-2.51875e-05
0.0170417
-1.86209e-05
0.0170409
-1.22915e-05
0.017038
-6.11032e-06
0.017035
0.0170332
-0.000173085
0.0130637
0.000172464
-0.0001691
0.0137124
-0.000161428
0.0143213
-0.000151041
0.014874
-0.000138887
0.0153597
-0.000125814
0.0157734
-0.000112526
0.0161147
-9.95573e-05
0.0163873
-8.72683e-05
0.0165977
-7.58629e-05
0.0167541
-6.5416e-05
0.0168655
-5.59045e-05
0.016941
-4.72417e-05
0.0169889
-3.93058e-05
0.0170166
-3.19622e-05
0.0170302
-2.50797e-05
0.0170348
-1.85389e-05
0.0170344
-1.2236e-05
0.0170317
-6.08218e-06
0.0170289
0.0170271
-0.000171275
0.0130644
0.000170504
-0.000167485
0.0137086
-0.000160032
0.0143139
-0.00014987
0.0148638
-0.00013793
0.0153478
-0.000125051
0.0157605
-0.000111929
0.0161016
-9.9094e-05
0.0163745
-8.69095e-05
0.0165855
-7.55827e-05
0.0167427
-6.51929e-05
0.0168551
-5.57227e-05
0.0169315
-4.70905e-05
0.0169803
-3.91787e-05
0.0170087
-3.18562e-05
0.0170229
-2.49935e-05
0.017028
-1.84728e-05
0.0170278
-1.21913e-05
0.0170254
-6.05943e-06
0.0170227
0.0170211
-0.000169508
0.0130654
0.00016858
-0.000165918
0.013705
-0.000158689
0.0143066
-0.000148755
0.0148539
-0.000137033
0.0153361
-0.000124348
0.0157478
-0.00011139
0.0160886
-9.86886e-05
0.0163618
-8.66062e-05
0.0165734
-7.53547e-05
0.0167315
-6.50181e-05
0.0168448
-5.55846e-05
0.0169221
-4.69779e-05
0.0169717
-3.90849e-05
0.0170008
-3.17775e-05
0.0170156
-2.49295e-05
0.0170211
-1.84238e-05
0.0170213
-1.21576e-05
0.0170192
-6.04249e-06
0.0170166
0.017015
-0.000167783
0.0130665
0.000166691
-0.000164401
0.0137016
-0.0001574
0.0142996
-0.000147699
0.0148442
-0.000136196
0.0153246
-0.000123707
0.0157354
-0.000110914
0.0160758
-9.83438e-05
0.0163492
-8.63612e-05
0.0165614
-7.51812e-05
0.0167203
-6.48933e-05
0.0168345
-5.54916e-05
0.0169127
-4.69051e-05
0.0169631
-3.90252e-05
0.0169929
-3.17276e-05
0.0170083
-2.48881e-05
0.0170143
-1.83912e-05
0.0170148
-1.21351e-05
0.0170129
-6.03073e-06
0.0170105
0.017009
-0.000166099
0.0130677
0.000164835
-0.000162932
0.0136985
-0.000156168
0.0142929
-0.000146704
0.0148347
-0.000135424
0.0153133
-0.000123131
0.0157231
-0.000110503
0.0160632
-9.80626e-05
0.0163367
-8.61767e-05
0.0165495
-7.50643e-05
0.0167092
-6.48205e-05
0.0168243
-5.54452e-05
0.0169033
-4.68732e-05
0.0169545
-3.90005e-05
0.016985
-3.17066e-05
0.017001
-2.48697e-05
0.0170074
-1.83759e-05
0.0170083
-1.21239e-05
0.0170066
-6.02467e-06
0.0170044
0.017003
-0.000164458
0.0130692
0.000163012
-0.000161515
0.0136955
-0.000154993
0.0142863
-0.000145772
0.0148255
-0.000134719
0.0153022
-0.000122625
0.015711
-0.00011016
0.0160507
-9.78482e-05
0.0163244
-8.60558e-05
0.0165377
-7.50066e-05
0.0166981
-6.48017e-05
0.016814
-5.54471e-05
0.016894
-4.68834e-05
0.0169459
-3.90117e-05
0.0169771
-3.17153e-05
0.0169937
-2.48748e-05
0.0170006
-1.83782e-05
0.0170019
-1.21243e-05
0.0170004
-6.02405e-06
0.0169983
0.016997
-0.000162859
0.0130708
0.000161222
-0.000160149
0.0136928
-0.00015388
0.0142801
-0.000144909
0.0148165
-0.000134086
0.0152914
-0.000122192
0.0156991
-0.000109891
0.0160384
-9.77046e-05
0.0163122
-8.60019e-05
0.016526
-7.5011e-05
0.0166871
-6.48392e-05
0.0168039
-5.54989e-05
0.0168846
-4.69369e-05
0.0169374
-3.90596e-05
0.0169693
-3.1754e-05
0.0169864
-2.49037e-05
0.0169938
-1.83979e-05
0.0169953
-1.21362e-05
0.0169941
-6.02902e-06
0.0169922
0.0169909
-0.000161299
0.0130726
0.000159464
-0.000158835
0.0136904
-0.000152831
0.0142741
-0.000144118
0.0148078
-0.000133532
0.0152808
-0.000121841
0.0156874
-0.000109704
0.0160263
-9.76404e-05
0.0163002
-8.60225e-05
0.0165144
-7.5084e-05
0.0166762
-6.49381e-05
0.0167937
-5.5605e-05
0.0168753
-4.70372e-05
0.0169288
-3.91467e-05
0.0169614
-3.18247e-05
0.0169791
-2.49575e-05
0.0169869
-1.84357e-05
0.0169888
-1.21603e-05
0.0169879
-6.03913e-06
0.0169861
0.0169849
-0.000159986
0.000157999
-0.000157724
-0.000151945
-0.000143462
-0.00013309
-0.000121585
-0.000109599
-9.76493e-05
-8.61086e-05
-7.52151e-05
-6.50887e-05
-5.57558e-05
-4.71758e-05
-3.92658e-05
-3.19215e-05
-2.50318e-05
-1.84893e-05
-1.21948e-05
-6.06327e-06
0.0101291
0.000273048
0.0101532
0.000268591
0.0101772
0.000264215
0.0102012
0.000259919
0.0102252
0.000255703
0.0102491
0.000251566
0.010273
0.000247507
0.0102968
0.000243526
0.0103206
0.000239623
0.0103444
0.000235795
0.0103681
0.000232043
0.0103917
0.000228365
0.0104154
0.000224761
0.010439
0.000221229
0.0104625
0.000217768
0.0104861
0.000214379
0.0105096
0.000211058
0.010533
0.000207806
0.0105565
0.000204621
0.0105799
0.000201502
0.0106033
0.000198448
0.0106266
0.000195458
0.0106499
0.000192531
0.0106732
0.000189666
0.0106965
0.000186861
0.0107198
0.000184115
0.0107431
0.000181427
0.0107663
0.000178796
0.0107896
0.00017622
0.0108128
0.000173698
0.010836
0.000171229
0.0108592
0.000168812
0.0108825
0.000166444
0.0109057
0.000164125
0.0109289
0.000161852
0.0109522
0.000159624
0.0109754
0.000157439
0.0109987
0.000155294
0.011022
0.000153188
0.0110454
0.000151118
0.0110688
0.000149082
0.0110922
0.000147076
0.0111157
0.000145098
0.0111392
0.000143144
0.0111629
0.000141212
0.0111866
0.000139303
0.0112104
0.000137411
0.0112343
0.00013554
0.000134005
0.00970685
0.000248482
0.00973126
0.000244181
0.00975552
0.000239959
0.00977962
0.000235816
0.00980357
0.000231751
0.00982737
0.000227764
0.00985103
0.000223853
0.00987454
0.000220017
0.0098979
0.000216256
0.00992113
0.000212569
0.00994422
0.000208955
0.00996717
0.000205413
0.00998999
0.000201942
0.0100127
0.00019854
0.0100352
0.000195207
0.0100577
0.000191942
0.01008
0.000188743
0.0101022
0.000185609
0.0101243
0.00018254
0.0101462
0.000179534
0.0101681
0.00017659
0.0101898
0.000173706
0.0102115
0.000170882
0.010233
0.000168117
0.0102545
0.000165409
0.0102759
0.000162757
0.0102971
0.000160159
0.0103183
0.000157615
0.0103394
0.000155123
0.0103604
0.000152682
0.0103814
0.00015029
0.0104022
0.000147946
0.010423
0.000145648
0.0104438
0.000143394
0.0104644
0.000141183
0.010485
0.000139012
0.0105056
0.00013688
0.0105261
0.000134783
0.0105466
0.00013272
0.010567
0.000130686
0.0105874
0.00012868
0.0106078
0.000126696
0.0106281
0.000124732
0.0106485
0.000122781
0.0106689
0.000120841
0.0106893
0.000118909
0.0107097
0.000116976
0.0107302
0.000115045
0.000113479
0.0091748
0.000224747
0.00920261
0.000220681
0.0092301
0.00021669
0.00925728
0.000212775
0.00928417
0.000208933
0.00931075
0.000205164
0.00933705
0.000201468
0.00936306
0.000197843
0.00938879
0.000194289
0.00941424
0.000190805
0.00943942
0.000187389
0.00946433
0.000184041
0.00948899
0.00018076
0.00951338
0.000177544
0.00953753
0.000174393
0.00956143
0.000171306
0.00958509
0.000168281
0.00960852
0.000165318
0.00963171
0.000162415
0.00965468
0.000159571
0.00967743
0.000156785
0.00969996
0.000154056
0.00972228
0.000151383
0.0097444
0.000148765
0.00976632
0.0001462
0.00978804
0.000143688
0.00980957
0.000141227
0.00983091
0.000138816
0.00985207
0.000136453
0.00987306
0.000134138
0.00989387
0.000131869
0.00991452
0.000129645
0.009935
0.000127463
0.00995532
0.000125323
0.0099755
0.000123222
0.00999552
0.00012116
0.0100154
0.000119132
0.0100351
0.000117138
0.0100547
0.000115175
0.0100742
0.000113239
0.0100936
0.000111328
0.0101128
0.000109436
0.010132
0.000107561
0.010151
0.000105697
0.0101699
0.000103837
0.0101888
0.000101977
0.0102076
0.000100113
0.0102263
9.82333e-05
0.0102451
9.63402e-05
9.48226e-05
0.00862918
0.000191188
0.00866224
0.00018762
0.00869481
0.000184119
0.0087269
0.000180684
0.00875852
0.000177315
0.00878967
0.00017401
0.00882037
0.000170769
0.00885062
0.000167591
0.00888044
0.000164475
0.00890982
0.000161421
0.00893878
0.000158427
0.00896733
0.000155493
0.00899547
0.000152617
0.00902322
0.000149799
0.00905057
0.000147038
0.00907755
0.000144332
0.00910415
0.000141681
0.00913038
0.000139084
0.00915626
0.000136539
0.00918178
0.000134047
0.00920696
0.000131605
0.00923181
0.000129212
0.00925632
0.000126869
0.00928051
0.000124573
0.00930439
0.000122323
0.00932796
0.00012012
0.00935122
0.00011796
0.0093742
0.000115844
0.00939688
0.000113771
0.00941928
0.000111738
0.0094414
0.000109744
0.00946326
0.00010779
0.00948485
0.000105872
0.00950618
0.000103989
0.00952727
0.000102141
0.0095481
0.000100324
0.0095687
9.85371e-05
0.00958906
9.67778e-05
0.00960919
9.50435e-05
0.0096291
9.33313e-05
0.00964879
9.16376e-05
0.00966826
8.99585e-05
0.00968754
8.82894e-05
0.00970661
8.66247e-05
0.00972549
8.4958e-05
0.00974418
8.32836e-05
0.0097627
8.15967e-05
0.00978105
7.9884e-05
0.00979924
7.81505e-05
7.67773e-05
0.0080995
0.000151198
0.0081388
0.000148315
0.00817744
0.000145486
0.00821541
0.000142711
0.00825273
0.00013999
0.00828942
0.00013732
0.00832549
0.000134703
0.00836094
0.000132136
0.0083958
0.00012962
0.00843007
0.000127154
0.00846376
0.000124737
0.00849688
0.000122368
0.00852945
0.000120046
0.00856148
0.00011777
0.00859298
0.000115541
0.00862395
0.000113356
0.00865442
0.000111216
0.00868438
0.000109119
0.00871386
0.000107064
0.00874285
0.000105052
0.00877138
0.00010308
0.00879944
0.000101148
0.00882706
9.92552e-05
0.00885423
9.74008e-05
0.00888097
9.55839e-05
0.00890729
9.38035e-05
0.00893319
9.20589e-05
0.00895868
9.0349e-05
0.00898378
8.86728e-05
0.00900849
8.70295e-05
0.00903282
8.54179e-05
0.00905677
8.38369e-05
0.00908035
8.22853e-05
0.00910358
8.07618e-05
0.00912646
7.9265e-05
0.00914899
7.77933e-05
0.00917118
7.63449e-05
0.00919304
7.49179e-05
0.00921457
7.351e-05
0.00923579
7.21185e-05
0.00925668
7.07403e-05
0.00927727
6.93719e-05
0.00929755
6.80088e-05
0.00931753
6.66461e-05
0.00933721
6.52778e-05
0.0093566
6.38985e-05
0.00937569
6.25034e-05
0.00939449
6.10801e-05
0.00941301
5.96349e-05
5.85025e-05
0.00764109
0.000104971
0.00768646
0.000102942
0.007731
0.00010095
0.00777471
9.8997e-05
0.00781762
9.70811e-05
0.00785974
9.52022e-05
0.00790108
9.33598e-05
0.00794166
9.15535e-05
0.0079815
8.97828e-05
0.00802061
8.80471e-05
0.008059
8.63458e-05
0.00809669
8.46784e-05
0.00813369
8.30445e-05
0.00817002
8.14433e-05
0.00820568
7.98743e-05
0.0082407
7.8337e-05
0.00827509
7.68308e-05
0.00830885
7.5355e-05
0.00834201
7.39092e-05
0.00837457
7.24926e-05
0.00840654
7.11048e-05
0.00843794
6.97451e-05
0.00846879
6.8413e-05
0.00849908
6.71077e-05
0.00852883
6.58288e-05
0.00855806
6.45755e-05
0.00858677
6.33472e-05
0.00861498
6.21433e-05
0.00864269
6.0963e-05
0.00866991
5.98057e-05
0.00869666
5.86705e-05
0.00872294
5.75567e-05
0.00874876
5.64634e-05
0.00877414
5.53897e-05
0.00879907
5.43344e-05
0.00882356
5.32966e-05
0.00884763
5.22747e-05
0.00887128
5.12675e-05
0.00889452
5.02731e-05
0.00891735
4.92897e-05
0.00893977
4.83147e-05
0.0089618
4.73456e-05
0.00898343
4.6379e-05
0.00900467
4.54109e-05
0.00902551
4.44368e-05
0.00904595
4.34525e-05
0.009066
4.24543e-05
0.00908565
4.14327e-05
0.00910489
4.03934e-05
3.95861e-05
0.00725257
5.49038e-05
0.0073037
5.38347e-05
0.00735386
5.27856e-05
0.00740305
5.17564e-05
0.0074513
5.07467e-05
0.00749863
4.97565e-05
0.00754505
4.87854e-05
0.00759057
4.78332e-05
0.00763523
4.68997e-05
0.00767902
4.59846e-05
0.00772198
4.50875e-05
0.00776412
4.42083e-05
0.00780545
4.33466e-05
0.007846
4.25022e-05
0.00788576
4.16747e-05
0.00792477
4.08639e-05
0.00796304
4.00695e-05
0.00800058
3.92911e-05
0.00803741
3.85284e-05
0.00807354
3.77812e-05
0.00810898
3.70492e-05
0.00814375
3.63319e-05
0.00817787
3.56292e-05
0.00821134
3.49407e-05
0.00824418
3.42661e-05
0.00827641
3.36051e-05
0.00830802
3.29573e-05
0.00833905
3.23224e-05
0.00836949
3.17e-05
0.00839937
3.10899e-05
0.00842868
3.04916e-05
0.00845745
2.99046e-05
0.00848567
2.93287e-05
0.00851337
2.87633e-05
0.00854056
2.8208e-05
0.00856723
2.76621e-05
0.0085934
2.71251e-05
0.00861908
2.65963e-05
0.00864427
2.60749e-05
0.00866898
2.556e-05
0.00869322
2.50505e-05
0.00871699
2.45452e-05
0.0087403
2.40425e-05
0.00876313
2.35407e-05
0.00878551
2.30376e-05
0.00880741
2.25308e-05
0.00882885
2.2018e-05
0.0088498