/*--------------------------------*- C++ -*----------------------------------*\
  =========                 |
  \\      /  F ield         | OpenFOAM: The Open Source CFD Toolbox
   \\    /   O peration     | Website:  https://openfoam.org
    \\  /    A nd           | Version:  7
     \\/     M anipulation  |
\*---------------------------------------------------------------------------*/
FoamFile
{
    version     2.0;
    format      ascii;
    class       volScalarField;
    location    "69.999";
    object      p;
}
// * * * * * * * * * * * * * * * * * * * * * * * * * * * * * * * * * * * * * //

dimensions      [0 2 -2 0 0 0 0];

internalField   nonuniform List<scalar> 
3700
(
-0.243719
-0.246678
-0.247644
-0.248687
-0.249647
-0.250587
-0.251492
-0.252315
-0.25301
-0.253526
-0.253818
-0.253848
-0.253595
-0.253058
-0.252295
-0.24396
-0.246871
-0.247821
-0.248848
-0.249795
-0.250725
-0.251621
-0.252438
-0.253129
-0.253642
-0.253933
-0.25396
-0.253699
-0.253156
-0.252312
-0.244454
-0.247272
-0.24819
-0.249188
-0.250111
-0.251022
-0.251903
-0.252709
-0.253393
-0.253903
-0.25419
-0.25421
-0.25392
-0.253365
-0.252301
-0.245187
-0.24787
-0.248741
-0.249693
-0.25058
-0.251462
-0.252321
-0.253111
-0.253784
-0.254287
-0.254568
-0.254579
-0.254229
-0.253695
-0.252211
-0.246139
-0.24865
-0.249458
-0.250348
-0.251184
-0.252026
-0.252852
-0.253618
-0.254275
-0.254767
-0.255037
-0.255045
-0.254582
-0.254172
-0.251966
-0.247289
-0.249594
-0.250322
-0.251131
-0.2519
-0.252686
-0.253467
-0.254199
-0.254831
-0.255305
-0.255555
-0.255583
-0.254904
-0.254837
-0.251456
-0.248608
-0.250682
-0.251311
-0.252019
-0.252701
-0.253413
-0.254133
-0.254816
-0.255412
-0.25586
-0.256069
-0.256174
-0.25508
-0.255738
-0.250592
-0.25007
-0.251893
-0.252404
-0.252987
-0.253559
-0.254175
-0.254815
-0.255431
-0.255975
-0.256386
-0.256506
-0.256806
-0.255011
-0.256783
-0.249752
-0.251649
-0.253206
-0.253578
-0.254011
-0.254445
-0.25494
-0.255476
-0.256004
-0.256475
-0.256841
-0.256787
-0.257404
-0.25498
-0.25742
-0.248936
-0.253321
-0.254604
-0.254814
-0.255068
-0.255336
-0.25568
-0.256085
-0.2565
-0.256869
-0.257184
-0.25702
-0.257723
-0.254705
-0.258104
-0.247804
-0.255069
-0.256074
-0.256098
-0.256142
-0.256209
-0.25637
-0.256614
-0.25689
-0.257139
-0.25736
-0.257025
-0.257936
-0.25404
-0.258728
-0.246436
-0.256881
-0.257606
-0.257416
-0.257217
-0.257048
-0.256994
-0.257046
-0.257155
-0.257252
-0.257369
-0.256785
-0.257975
-0.253048
-0.259036
-0.245074
-0.258753
-0.259197
-0.258766
-0.258289
-0.257847
-0.257542
-0.257371
-0.257285
-0.257202
-0.257198
-0.256328
-0.257719
-0.251892
-0.258668
-0.244014
-0.260691
-0.260852
-0.260148
-0.259357
-0.258606
-0.258016
-0.257592
-0.257287
-0.256998
-0.256837
-0.255695
-0.257042
-0.250758
-0.257262
-0.243305
-0.262709
-0.262581
-0.26157
-0.26043
-0.259336
-0.25843
-0.257726
-0.257177
-0.256659
-0.256284
-0.254917
-0.255843
-0.249714
-0.254697
-0.242536
-0.264835
-0.264402
-0.263049
-0.261527
-0.260056
-0.258805
-0.257797
-0.256979
-0.25621
-0.255546
-0.253984
-0.254104
-0.248583
-0.251208
-0.241079
-0.2671
-0.266328
-0.264621
-0.262673
-0.260797
-0.259177
-0.257841
-0.256725
-0.255668
-0.254628
-0.252827
-0.251873
-0.247006
-0.247144
-0.238543
-0.269552
-0.268403
-0.266305
-0.263901
-0.261594
-0.259584
-0.257897
-0.256446
-0.255041
-0.253522
-0.251345
-0.249191
-0.244663
-0.242596
-0.234916
-0.272246
-0.270661
-0.268138
-0.265249
-0.262491
-0.260071
-0.258004
-0.256163
-0.25432
-0.252198
-0.249447
-0.24606
-0.241417
-0.237336
-0.230336
-0.27524
-0.273141
-0.270163
-0.266764
-0.263534
-0.26068
-0.25819
-0.255884
-0.253481
-0.250612
-0.247072
-0.242491
-0.237308
-0.231244
-0.224916
-0.278576
-0.275898
-0.272424
-0.26849
-0.264768
-0.261449
-0.258474
-0.255598
-0.252487
-0.248717
-0.244201
-0.238505
-0.232487
-0.224947
-0.218598
-0.282318
-0.278977
-0.274968
-0.270474
-0.266235
-0.262402
-0.258856
-0.255279
-0.251291
-0.246475
-0.24086
-0.23411
-0.227111
-0.218911
-0.211647
-0.286529
-0.282419
-0.277842
-0.272761
-0.267967
-0.263553
-0.259324
-0.254888
-0.249847
-0.243866
-0.237095
-0.229341
-0.221514
-0.21272
-0.20488
-0.291264
-0.286268
-0.281091
-0.275391
-0.269989
-0.264902
-0.259849
-0.254375
-0.248115
-0.240885
-0.232954
-0.224292
-0.215726
-0.206504
-0.198419
-0.29657
-0.290569
-0.284762
-0.278397
-0.272312
-0.266438
-0.260389
-0.253682
-0.246061
-0.237544
-0.228498
-0.219013
-0.209827
-0.200265
-0.191984
-0.302489
-0.295364
-0.288895
-0.281804
-0.274939
-0.268133
-0.26088
-0.252746
-0.243667
-0.233864
-0.223769
-0.213552
-0.203826
-0.193971
-0.185571
-0.309056
-0.300689
-0.293524
-0.285626
-0.277864
-0.269937
-0.261244
-0.251513
-0.240922
-0.229868
-0.218803
-0.207929
-0.19772
-0.18762
-0.179071
-0.316291
-0.306579
-0.298673
-0.289867
-0.281062
-0.27177
-0.261393
-0.249936
-0.237824
-0.225573
-0.213616
-0.202147
-0.191497
-0.181172
-0.172471
-0.324208
-0.313057
-0.304351
-0.29452
-0.284477
-0.273526
-0.261243
-0.247978
-0.23437
-0.220989
-0.20821
-0.196195
-0.185134
-0.174607
-0.165732
-0.3328
-0.320131
-0.310549
-0.299561
-0.28801
-0.275087
-0.260718
-0.245612
-0.230556
-0.216113
-0.202576
-0.190053
-0.178606
-0.167894
-0.158835
-0.342045
-0.327789
-0.317239
-0.30493
-0.291527
-0.27633
-0.259748
-0.242808
-0.22637
-0.210932
-0.196693
-0.183695
-0.171888
-0.161008
-0.151756
-0.351893
-0.33599
-0.324373
-0.310517
-0.294869
-0.277137
-0.258273
-0.23954
-0.221791
-0.205426
-0.190536
-0.177093
-0.164953
-0.153924
-0.144476
-0.362267
-0.344663
-0.331875
-0.316159
-0.297862
-0.277397
-0.256234
-0.235773
-0.216793
-0.199564
-0.184073
-0.170216
-0.157775
-0.146617
-0.136977
-0.373055
-0.353701
-0.339625
-0.321648
-0.300336
-0.277008
-0.253576
-0.231471
-0.211342
-0.193314
-0.177271
-0.163034
-0.150328
-0.139062
-0.129241
-0.384101
-0.362967
-0.34745
-0.326751
-0.302119
-0.275873
-0.250242
-0.226592
-0.205399
-0.186639
-0.170095
-0.155516
-0.142588
-0.131238
-0.121252
-0.395208
-0.372295
-0.355115
-0.331224
-0.303053
-0.273899
-0.246173
-0.221088
-0.198922
-0.1795
-0.162511
-0.147636
-0.134531
-0.123122
-0.112996
-0.406137
-0.381483
-0.362334
-0.334824
-0.302986
-0.270999
-0.241309
-0.21491
-0.191867
-0.171859
-0.154487
-0.139367
-0.126135
-0.114693
-0.104459
-0.416607
-0.390297
-0.368784
-0.337316
-0.301781
-0.267088
-0.235589
-0.208008
-0.184191
-0.163679
-0.145991
-0.130687
-0.117383
-0.105939
-0.0956439
-0.42631
-0.398467
-0.374132
-0.338477
-0.299309
-0.262087
-0.228954
-0.200331
-0.17585
-0.154924
-0.136996
-0.121575
-0.108258
-0.0968552
-0.0865679
-0.43492
-0.405684
-0.378054
-0.338104
-0.295453
-0.255919
-0.221344
-0.191832
-0.166805
-0.145562
-0.127476
-0.11201
-0.0987465
-0.0874446
-0.0772619
-0.4421
-0.411613
-0.38025
-0.336012
-0.29011
-0.248515
-0.212706
-0.182466
-0.157021
-0.135565
-0.11741
-0.101973
-0.0888302
-0.0777032
-0.0677314
-0.447518
-0.415903
-0.380455
-0.332044
-0.283189
-0.239813
-0.202992
-0.172194
-0.146468
-0.124912
-0.106779
-0.09145
-0.0784931
-0.0676094
-0.0579223
-0.450851
-0.418199
-0.378444
-0.326072
-0.274611
-0.229759
-0.19216
-0.160984
-0.135121
-0.113584
-0.0955718
-0.0804304
-0.0677287
-0.0571315
-0.0477085
-0.451796
-0.418166
-0.37403
-0.317997
-0.264317
-0.218311
-0.180176
-0.148812
-0.122963
-0.101569
-0.0837781
-0.0689124
-0.0565469
-0.0462637
-0.0369277
-0.450081
-0.415507
-0.367053
-0.307743
-0.25226
-0.205437
-0.167019
-0.135658
-0.109981
-0.0888592
-0.0713965
-0.0568985
-0.0449639
-0.0350389
-0.0256078
-0.445461
-0.409977
-0.357386
-0.295262
-0.238416
-0.191119
-0.152669
-0.121509
-0.0961681
-0.0754547
-0.0584402
-0.0444054
-0.0329898
-0.0234149
-0.0142705
-0.437733
-0.401376
-0.34494
-0.280529
-0.222775
-0.175345
-0.137115
-0.106365
-0.081535
-0.0613741
-0.0449358
-0.0314791
-0.0206258
-0.0113865
-0.0028306
-0.426734
-0.389562
-0.329667
-0.26354
-0.205337
-0.158105
-0.120357
-0.0902556
-0.0661171
-0.0466618
-0.0308849
-0.0181105
-0.00786848
0.000949983
0.00879986
-0.412342
-0.374446
-0.311557
-0.24431
-0.186101
-0.139397
-0.102454
-0.0732482
-0.0499419
-0.0313013
-0.0163146
-0.0043148
0.00525321
0.0135526
0.0206426
-0.394483
-0.355995
-0.290638
-0.222873
-0.165075
-0.119295
-0.0835351
-0.0553083
-0.0330135
-0.0153311
-0.00125543
0.00988011
0.0187027
0.0263984
0.0326821
-0.373129
-0.334224
-0.26698
-0.199295
-0.142329
-0.0980229
-0.0634622
-0.0364863
-0.015374
0.00120816
0.0142565
0.0244383
0.0324421
0.0394619
0.0448876
-0.348297
-0.309201
-0.240697
-0.173686
-0.118115
-0.0753797
-0.0423584
-0.0168391
0.0029249
0.0182701
0.0301791
0.0393191
0.0464323
0.0527069
0.0572145
-0.320055
-0.281057
-0.21191
-0.146139
-0.0924039
-0.0515258
-0.0203005
0.00356548
0.0218244
0.0358027
0.0464651
0.0544781
0.0606318
0.0660892
0.0696112
-0.28853
-0.250026
-0.180646
-0.116759
-0.0652852
-0.0265718
0.00262431
0.0246534
0.0412589
0.0537477
0.0630612
0.0698678
0.0749987
0.0795657
0.0820396
-0.253903
-0.216412
-0.146828
-0.0857364
-0.0368997
-0.00063432
0.0263211
0.0463424
0.0611563
0.0720403
0.0799085
0.0854372
0.0894928
0.0931011
0.0944762
-0.216372
-0.180269
-0.110961
-0.0531374
-0.00738978
0.0261624
0.0506847
0.0685427
0.0814381
0.0906102
0.0969437
0.101134
0.104073
0.106646
0.106828
-0.176136
-0.141096
-0.074003
-0.0192779
0.0230913
0.0536868
0.0756017
0.0911575
0.10202
0.109383
0.114105
0.116911
0.118683
0.120058
0.118794
-0.133466
-0.0997153
-0.0357428
0.0155986
0.0543704
0.0818005
0.100952
0.114084
0.122814
0.128286
0.131338
0.132733
0.133239
0.133066
0.129959
-0.0885729
-0.056661
0.00371827
0.0512866
0.0862626
0.110355
0.126608
0.137212
0.143726
0.147241
0.148595
0.148561
0.147654
0.145481
0.140316
-0.0418904
-0.012259
0.0441483
0.0875817
0.11858
0.139192
0.152438
0.160428
0.164658
0.166173
0.165815
0.164323
0.161848
0.157541
0.150914
0.00618857
0.0331749
0.0852672
0.124265
0.151129
0.168151
0.178302
0.183613
0.185511
0.184998
0.182911
0.179891
0.175711
0.169485
0.164415
0.0552695
0.0792991
0.126778
0.161104
0.183713
0.197062
0.204059
0.206646
0.206183
0.20363
0.19979
0.195151
0.189277
0.181825
0.177522
0.104944
0.125758
0.168377
0.197859
0.21613
0.225755
0.229562
0.229404
0.22657
0.221976
0.216365
0.210088
0.202683
0.194325
0.189766
0.154798
0.172185
0.209759
0.234283
0.248175
0.254057
0.254666
0.251763
0.246565
0.239938
0.232552
0.224655
0.215858
0.206675
0.201405
0.20442
0.218206
0.250617
0.270131
0.279642
0.281793
0.279224
0.273597
0.266061
0.257421
0.248277
0.238807
0.228709
0.218658
0.212457
0.25339
0.263449
0.290648
0.305154
0.310326
0.308792
0.303088
0.294782
0.284949
0.274335
0.263467
0.25248
0.241143
0.230195
0.222972
0.301296
0.307553
0.329553
0.339112
0.340025
0.334883
0.326115
0.315195
0.303125
0.290587
0.278046
0.265602
0.253075
0.241213
0.232934
0.347729
0.350164
0.367042
0.371766
0.368541
0.3599
0.348165
0.334717
0.320487
0.306092
0.291939
0.278102
0.264437
0.251667
0.242322
0.392294
0.390944
0.402837
0.402888
0.395683
0.383681
0.369102
0.353232
0.336934
0.320765
0.305075
0.289915
0.275167
0.26151
0.251106
0.434612
0.429568
0.436669
0.432259
0.421268
0.406074
0.388795
0.37063
0.352374
0.334525
0.317383
0.300977
0.285209
0.270697
0.259257
0.474323
0.465729
0.468288
0.459672
0.445123
0.426933
0.407121
0.386805
0.366716
0.347295
0.328796
0.311229
0.294512
0.279189
0.266748
0.511089
0.499139
0.497456
0.484931
0.467084
0.446119
0.423964
0.40166
0.379876
0.359004
0.339253
0.320618
0.303028
0.286945
0.273553
0.544598
0.529535
0.523957
0.507858
0.487003
0.463509
0.439218
0.415103
0.391779
0.369586
0.348697
0.329094
0.310715
0.293932
0.279649
0.574566
0.556677
0.547594
0.52829
0.504743
0.478985
0.452786
0.427054
0.402352
0.378981
0.357076
0.336613
0.317532
0.300117
0.285019
0.600739
0.58035
0.56819
0.546082
0.520181
0.492447
0.464582
0.437437
0.411535
0.387135
0.364346
0.343134
0.323444
0.305472
0.289646
0.622896
0.600368
0.585592
0.561106
0.533212
0.503804
0.474529
0.446189
0.419271
0.394002
0.370465
0.348622
0.328419
0.309972
0.293518
0.640849
0.616574
0.599671
0.573255
0.543745
0.512981
0.482563
0.453257
0.425516
0.399543
0.375401
0.353049
0.332431
0.313596
0.296625
0.654447
0.62884
0.610322
0.582442
0.551709
0.519918
0.488634
0.458595
0.430232
0.403727
0.379127
0.356389
0.335459
0.316328
0.298961
0.663576
0.63707
0.617466
0.588603
0.557048
0.524567
0.492703
0.462172
0.433391
0.406528
0.381621
0.358625
0.337486
0.318156
0.300519
0.668157
0.641199
0.62105
0.591693
0.559725
0.526897
0.494742
0.463964
0.434974
0.407931
0.38287
0.359745
0.338501
0.319071
0.301298
-0.251835
-0.250606
-0.249416
-0.252055
-0.250811
-0.249677
-0.252431
-0.251099
-0.250029
-0.252942
-0.251442
-0.250446
-0.253577
-0.2518
-0.250893
-0.254365
-0.252117
-0.251334
-0.250058
-0.255285
-0.252304
-0.25174
-0.250495
-0.255725
-0.252723
-0.251982
-0.250855
-0.255922
-0.253096
-0.252098
-0.251079
-0.255859
-0.253366
-0.252066
-0.251132
-0.255339
-0.253467
-0.251858
-0.250968
-0.254207
-0.253227
-0.25143
-0.250547
-0.249606
-0.252466
-0.252404
-0.250686
-0.249815
-0.248967
-0.250247
-0.250828
-0.249484
-0.248689
-0.247934
-0.247609
-0.248477
-0.247689
-0.247063
-0.246429
-0.244436
-0.245399
-0.245231
-0.244842
-0.244383
-0.243777
-0.240518
-0.241724
-0.242118
-0.24198
-0.24176
-0.241404
-0.236061
-0.237643
-0.238434
-0.23854
-0.238614
-0.238542
-0.231416
-0.233327
-0.234282
-0.234627
-0.23503
-0.235282
-0.226847
-0.228815
-0.229456
-0.229844
-0.230481
-0.231025
-0.231234
-0.219629
-0.223065
-0.223471
-0.223824
-0.224626
-0.225483
-0.226047
-0.206693
-0.212489
-0.21354
-0.213811
-0.214662
-0.215856
-0.216855
-0.194473
-0.201523
-0.203358
-0.203917
-0.204974
-0.206484
-0.207869
-0.183158
-0.190706
-0.193336
-0.194417
-0.195787
-0.197571
-0.199264
-0.172487
-0.180322
-0.183649
-0.185318
-0.187052
-0.189091
-0.191038
-0.162585
-0.170545
-0.174429
-0.176649
-0.178756
-0.181044
-0.183216
-0.153483
-0.161429
-0.165744
-0.168448
-0.17091
-0.173439
-0.175818
-0.145124
-0.152983
-0.157622
-0.160735
-0.163519
-0.166277
-0.168846
-0.137474
-0.145194
-0.150067
-0.153519
-0.156585
-0.15955
-0.162292
-0.130489
-0.138034
-0.143071
-0.146795
-0.150102
-0.15325
-0.156147
-0.124114
-0.131466
-0.13661
-0.140552
-0.14406
-0.147366
-0.150399
-0.118305
-0.125453
-0.130662
-0.134774
-0.138446
-0.141886
-0.145037
-0.113017
-0.119959
-0.1252
-0.129441
-0.133247
-0.136798
-0.140049
-0.108211
-0.114947
-0.120194
-0.124535
-0.128447
-0.132088
-0.135424
-0.103849
-0.110386
-0.11562
-0.120034
-0.124029
-0.127743
-0.131148
-0.0998972
-0.106243
-0.111452
-0.115917
-0.119977
-0.123748
-0.12721
-0.0963265
-0.102491
-0.107665
-0.112165
-0.116273
-0.12009
-0.123597
-0.0931094
-0.0991044
-0.104236
-0.108759
-0.112903
-0.116753
-0.120296
-0.0902216
-0.0960591
-0.101146
-0.105681
-0.109851
-0.113726
-0.117297
-0.0876417
-0.0933343
-0.0983751
-0.102915
-0.107102
-0.110996
-0.114588
-0.0853506
-0.0909116
-0.0959067
-0.100446
-0.104645
-0.10855
-0.112159
-0.0833318
-0.0887743
-0.0937256
-0.0982603
-0.102466
-0.10638
-0.11
-0.0815707
-0.0869082
-0.0918185
-0.0963466
-0.100556
-0.104475
-0.108103
-0.0800546
-0.0853005
-0.0901737
-0.0946942
-0.0989041
-0.102826
-0.10646
-0.0787729
-0.0839407
-0.0887813
-0.0932939
-0.0975033
-0.101426
-0.105064
-0.0777165
-0.0828196
-0.0876327
-0.0921381
-0.0963463
-0.100269
-0.103909
-0.0768779
-0.0819298
-0.0867211
-0.0912204
-0.0954273
-0.0993497
-0.102991
-0.0762517
-0.081266
-0.0860415
-0.0905364
-0.0947421
-0.0986638
-0.102306
-0.0758342
-0.0808246
-0.0855905
-0.0900827
-0.0942875
-0.0982086
-0.101851
-0.0756112
-0.0805975
-0.0853613
-0.0898537
-0.0940591
-0.0979805
-0.101624
-0.211151
-0.197437
-0.184464
-0.173641
-0.163364
-0.153816
-0.14518
-0.137273
-0.13004
-0.123456
-0.117456
-0.111989
-0.107018
-0.102501
-0.0984043
-0.0946939
-0.0913417
-0.0883216
-0.0856107
-0.0831885
-0.081037
-0.0791406
-0.0774855
-0.0760598
-0.0748535
-0.073858
-0.0730658
-0.0724721
-0.072074
-0.0718456
-0.203664
-0.190652
-0.177729
-0.167383
-0.157578
-0.148308
-0.139983
-0.132395
-0.125432
-0.119099
-0.113337
-0.108087
-0.103312
-0.098975
-0.0950397
-0.0914747
-0.0882524
-0.0853482
-0.0827396
-0.0804073
-0.0783341
-0.076505
-0.0749067
-0.073528
-0.0723592
-0.071392
-0.0706191
-0.0700364
-0.069639
-0.0694018
-0.197431
-0.184981
-0.171874
-0.161584
-0.152169
-0.143134
-0.13502
-0.127701
-0.120984
-0.114865
-0.109312
-0.104255
-0.0996555
-0.0954788
-0.0916898
-0.0882571
-0.0851539
-0.0823563
-0.0798428
-0.0775943
-0.0755945
-0.0738287
-0.0722843
-0.0709504
-0.0698175
-0.0688778
-0.0681242
-0.0675526
-0.067157
-0.0669152
-0.191027
-0.178944
-0.165993
-0.1558
-0.146769
-0.13804
-0.130126
-0.123048
-0.11657
-0.110657
-0.105296
-0.100424
-0.0959919
-0.0919678
-0.0883185
-0.0850127
-0.082024
-0.079329
-0.0769071
-0.0747397
-0.072811
-0.0711069
-0.0696152
-0.0683252
-0.0672279
-0.0663158
-0.0655818
-0.0650222
-0.0646303
-0.0643869
-0.184695
-0.173008
-0.160288
-0.150118
-0.141336
-0.132919
-0.125212
-0.118348
-0.112108
-0.106404
-0.101232
-0.0965406
-0.0922753
-0.0884026
-0.0848915
-0.0817116
-0.0788366
-0.076244
-0.0739135
-0.0718275
-0.0699703
-0.0683284
-0.06689
-0.065645
-0.0645844
-0.0637011
-0.0629883
-0.0624424
-0.0620562
-0.0618138
-0.178179
-0.166762
-0.154382
-0.144346
-0.135797
-0.127715
-0.120257
-0.113605
-0.107594
-0.102105
-0.0971228
-0.0926082
-0.0885085
-0.0847867
-0.0814128
-0.078358
-0.0755962
-0.0731055
-0.0708664
-0.0688615
-0.067076
-0.0654967
-0.0641123
-0.0629128
-0.0618899
-0.0610364
-0.060346
-0.0598154
-0.0594369
-0.0591977
-0.171532
-0.160417
-0.148443
-0.138581
-0.130216
-0.122435
-0.115243
-0.108805
-0.103015
-0.0977429
-0.0929535
-0.0886159
-0.0846816
-0.0811112
-0.0778749
-0.0749454
-0.0722973
-0.069909
-0.0677617
-0.0658388
-0.0641258
-0.06261
-0.0612804
-0.0601276
-0.0591436
-0.0583214
-0.057655
-0.0571412
-0.0567724
-0.0565384
-0.164735
-0.153874
-0.142326
-0.132709
-0.124547
-0.11706
-0.110156
-0.103949
-0.0983767
-0.0933207
-0.0887278
-0.0845679
-0.0807984
-0.0773797
-0.0742814
-0.0714773
-0.0689431
-0.0666576
-0.0646026
-0.0627621
-0.0611222
-0.0596706
-0.0583969
-0.0572918
-0.0563477
-0.055558
-0.0549171
-0.0544218
-0.0540643
-0.0538374
-0.157785
-0.147193
-0.136106
-0.126777
-0.118827
-0.111613
-0.104995
-0.0990298
-0.0936766
-0.0888345
-0.0844406
-0.0804605
-0.0768563
-0.0735898
-0.0706304
-0.0679524
-0.0655326
-0.0633506
-0.0613887
-0.0596315
-0.0580655
-0.0566792
-0.0554622
-0.054406
-0.0535032
-0.0527473
-0.0521332
-0.0516579
-0.0513135
-0.0510954
-0.150681
-0.140359
-0.129736
-0.12073
-0.113023
-0.106083
-0.0997542
-0.0940438
-0.0889155
-0.0842872
-0.0800936
-0.0762956
-0.0728576
-0.0697438
-0.066924
-0.0643729
-0.0620682
-0.0599903
-0.0581222
-0.056449
-0.0549579
-0.0536376
-0.0524785
-0.0514722
-0.0506117
-0.049891
-0.0493051
-0.0488512
-0.0485215
-0.048314
-0.143411
-0.133386
-0.123241
-0.114588
-0.107147
-0.100482
-0.0944389
-0.0889889
-0.0840916
-0.079678
-0.0756857
-0.0720719
-0.0688017
-0.0658417
-0.0631624
-0.0607391
-0.0585505
-0.0565776
-0.0548042
-0.053216
-0.0518007
-0.0505475
-0.0494472
-0.048492
-0.047675
-0.0469907
-0.0464343
-0.0460032
-0.0456896
-0.0454943
-0.135972
-0.126271
-0.11661
-0.10833
-0.10118
-0.0948018
-0.0890461
-0.0838627
-0.0792034
-0.0750079
-0.0712184
-0.0677907
-0.0646902
-0.0618852
-0.0593475
-0.0570531
-0.0549815
-0.0531146
-0.0514368
-0.0499345
-0.0485959
-0.0474108
-0.0463704
-0.0454673
-0.044695
-0.0440482
-0.0435226
-0.0431157
-0.0428195
-0.0426379
-0.128354
-0.119016
-0.109849
-0.101961
-0.0951259
-0.0890456
-0.0835796
-0.078666
-0.0742503
-0.0702767
-0.0666919
-0.0634524
-0.0605236
-0.0578752
-0.0554805
-0.0533163
-0.0513628
-0.049603
-0.0480219
-0.0466065
-0.0453456
-0.0442296
-0.0432502
-0.0424002
-0.0416737
-0.0410656
-0.040572
-0.0401903
-0.0399129
-0.0397463
-0.120553
-0.111619
-0.102955
-0.0954745
-0.0889754
-0.0832073
-0.0780371
-0.0733981
-0.0692316
-0.0654845
-0.0621075
-0.0590584
-0.0563035
-0.0538136
-0.0515634
-0.0495307
-0.0476967
-0.0460451
-0.0445617
-0.0432343
-0.0420522
-0.0410064
-0.0400889
-0.0392931
-0.0386135
-0.0380451
-0.0375845
-0.0372292
-0.0369718
-0.0368214
-0.112561
-0.104076
-0.0959298
-0.0888725
-0.0827284
-0.0772869
-0.07242
-0.0680603
-0.0641479
-0.060632
-0.0574661
-0.0546101
-0.0520315
-0.0497022
-0.0475982
-0.0456986
-0.0439855
-0.0424434
-0.0410589
-0.0398205
-0.0387183
-0.0377436
-0.0368891
-0.0361485
-0.0355166
-0.0349891
-0.0345625
-0.0342345
-0.0339981
-0.033865
-0.10437
-0.0963843
-0.088771
-0.0821536
-0.0763813
-0.0712811
-0.0667268
-0.0626529
-0.0590001
-0.0557203
-0.0527696
-0.0501097
-0.0477099
-0.0455435
-0.0435876
-0.0418227
-0.0402319
-0.0388006
-0.0375163
-0.0363681
-0.0353467
-0.0344442
-0.0336536
-0.0329691
-0.032386
-0.0319001
-0.0315083
-0.0312085
-0.0309943
-0.0308793
-0.0959744
-0.088534
-0.0814769
-0.0753199
-0.0699354
-0.0651898
-0.0609581
-0.0571771
-0.0537898
-0.0507512
-0.0480198
-0.0455593
-0.043341
-0.0413398
-0.0395342
-0.0379058
-0.0364388
-0.0351197
-0.0339368
-0.0328799
-0.0319405
-0.0311111
-0.0303853
-0.0297578
-0.0292242
-0.0287808
-0.0284246
-0.0281537
-0.0279626
-0.0278664
-0.0873767
-0.0805166
-0.0740415
-0.0683702
-0.0633899
-0.0590117
-0.0551124
-0.0516325
-0.0485171
-0.0457253
-0.0432178
-0.0409603
-0.0389266
-0.0370933
-0.0354402
-0.0339503
-0.0326089
-0.0314035
-0.0303232
-0.0293589
-0.0285025
-0.0277471
-0.0270871
-0.0265174
-0.0260341
-0.0256338
-0.0253138
-0.0250725
-0.0249051
-0.0248277
-0.0786004
-0.072328
-0.0664557
-0.061298
-0.0567416
-0.052744
-0.0491874
-0.0460167
-0.0431797
-0.0406404
-0.038362
-0.0363122
-0.034467
-0.0328048
-0.031307
-0.0299579
-0.0287441
-0.0276541
-0.0266781
-0.0258075
-0.0250352
-0.0243549
-0.0237615
-0.0232504
-0.0228181
-0.0224616
-0.0221783
-0.0219671
-0.021824
-0.0217639
-0.0696767
-0.0639764
-0.0587092
-0.0540893
-0.04998
-0.0463799
-0.0431787
-0.0403256
-0.0377725
-0.035492
-0.0334496
-0.0316136
-0.0299619
-0.028475
-0.0271359
-0.0259304
-0.0248465
-0.0238739
-0.0230037
-0.0222284
-0.0215415
-0.0209374
-0.0204115
-0.0199598
-0.0195792
-0.019267
-0.0190209
-0.0188404
-0.0187215
-0.0186766
-0.0605928
-0.0554852
-0.0507909
-0.0467316
-0.0430924
-0.0399135
-0.0370835
-0.0345583
-0.0322947
-0.0302809
-0.0284831
-0.0268679
-0.0254153
-0.0241079
-0.022931
-0.021872
-0.0209205
-0.0200674
-0.0193048
-0.0186262
-0.0180258
-0.0174989
-0.0170414
-0.0166499
-0.0163216
-0.0160542
-0.0158459
-0.0156966
-0.0156009
-0.0155719
-0.0512817
-0.0468412
-0.042694
-0.039232
-0.0360786
-0.0333477
-0.0309052
-0.0287229
-0.0267622
-0.0250246
-0.0234787
-0.0220893
-0.0208395
-0.0197148
-0.0187026
-0.0177923
-0.016975
-0.0162428
-0.0155891
-0.0150083
-0.0144954
-0.0140465
-0.0136581
-0.0133272
-0.0130517
-0.0128294
-0.012659
-0.0125415
-0.0124669
-0.0124599
-0.0416424
-0.0380432
-0.0344277
-0.0316194
-0.0289549
-0.0266962
-0.0246503
-0.0228329
-0.0212101
-0.0197533
-0.0184603
-0.0172971
-0.0162508
-0.0153095
-0.0144629
-0.0137022
-0.0130198
-0.0124092
-0.011865
-0.0113824
-0.0109575
-0.0105868
-0.0102676
-0.00999753
-0.00977475
-0.00959759
-0.00946498
-0.00937949
-0.00932433
-0.00934588
-0.0316234
-0.0291501
-0.0260355
-0.0239387
-0.0217574
-0.0199858
-0.0183375
-0.0169054
-0.0156594
-0.0144798
-0.0134366
-0.0124984
-0.0116554
-0.0108978
-0.0102171
-0.00960624
-0.00905902
-0.00857032
-0.00813572
-0.00775149
-0.00741446
-0.00712199
-0.00687187
-0.00666233
-0.00649199
-0.00635951
-0.00626464
-0.0062088
-0.00617672
-0.00622062
-0.021356
-0.0201679
-0.0175966
-0.0161955
-0.0145348
-0.0132422
-0.0120144
-0.0109544
-0.0100266
-0.00915145
-0.00836884
-0.00766518
-0.00703247
-0.00646389
-0.00595337
-0.00549567
-0.00508636
-0.00472166
-0.00439838
-0.0041138
-0.00386567
-0.0036521
-0.00347156
-0.00332284
-0.00320501
-0.00311719
-0.00305977
-0.0030326
-0.00302531
-0.00308642
-0.010915
-0.0108529
-0.00904585
-0.00830133
-0.00722084
-0.0064152
-0.00562703
-0.00494626
-0.0043416
-0.00377626
-0.00326445
-0.00280275
-0.00238662
-0.00201222
-0.00167599
-0.00137484
-0.00110611
-0.000867545
-0.000657238
-0.000473604
-0.00031533
-0.000181351
-7.08295e-05
1.68464e-05
8.21522e-05
0.000125435
0.000145945
0.000144722
0.000127708
5.21801e-05
-0.000362212
-0.0013112
-0.000350267
-0.000275864
0.000199333
0.000499633
0.000834256
0.00112286
0.00138694
0.00163714
0.00186934
0.00208188
0.00227548
0.00245089
0.00260895
0.00275049
0.0028762
0.00298673
0.00308258
0.00316415
0.00323175
0.0032856
0.0033258
0.00335235
0.00336524
0.00336428
0.00334852
0.00331924
0.0032792
0.00319099
0.0103137
0.00838777
0.00849631
0.0078731
0.00772811
0.00750061
0.00736485
0.0072442
0.00714921
0.00707644
0.00702132
0.00697859
0.00694484
0.00691743
0.00689429
0.00687377
0.00685456
0.00683553
0.00681575
0.0067944
0.00677075
0.0067441
0.00671384
0.00667934
0.00664006
0.00659533
0.006544
0.00648729
0.00642564
0.00632634
0.0211298
0.0182211
0.0174872
0.0161384
0.0153513
0.0145699
0.0139439
0.0133974
0.0129296
0.012527
0.0121797
0.0118778
0.0116136
0.0113808
0.0111742
0.0109898
0.0108241
0.0106742
0.0105378
0.0104128
0.0102974
0.01019
0.0100892
0.00999376
0.00990265
0.00981469
0.00972856
0.00964527
0.00956341
0.00945477
0.0320958
0.0281823
0.0265982
0.0244928
0.0230333
0.021676
0.0205461
0.0195657
0.0187195
0.0179842
0.0173424
0.0167789
0.0162816
0.0158406
0.0154481
0.0150974
0.0147832
0.0145008
0.0142463
0.0140165
0.0138086
0.0136199
0.0134483
0.0132921
0.0131494
0.0130188
0.0128986
0.0127897
0.012689
0.012573
0.0431991
0.0382421
0.0357767
0.032893
0.030747
0.0288132
0.0271825
0.0257695
0.0245433
0.0234714
0.0225296
0.0216982
0.0209614
0.0203064
0.0197224
0.0192008
0.018734
0.0183158
0.0179407
0.0176042
0.0173022
0.0170313
0.0167884
0.0165711
0.016377
0.0162041
0.0160507
0.0159171
0.0157989
0.0156776
0.0543952
0.0483584
0.0449922
0.0413547
0.0385459
0.0360546
0.033928
0.0320754
0.030455
0.0290297
0.0277711
0.0266564
0.0256667
0.0247862
0.0240016
0.0233015
0.0226763
0.0221176
0.0216185
0.0211726
0.0207748
0.0204205
0.0201057
0.019827
0.0195817
0.0193671
0.0191812
0.019024
0.0188898
0.0187654
0.0656459
0.0585539
0.0543288
0.0500042
0.0465547
0.0434971
0.0408447
0.0385147
0.0364638
0.0346535
0.0330529
0.0316352
0.0303776
0.0292605
0.028267
0.0273826
0.0265948
0.0258929
0.0252679
0.0247117
0.0242176
0.0237798
0.0233934
0.0230541
0.0227583
0.022503
0.0222859
0.0221064
0.0219579
0.0218328
0.0769889
0.0689615
0.0639113
0.058898
0.0547428
0.0510425
0.0477979
0.0449416
0.0424285
0.0402151
0.0382633
0.0365394
0.0350143
0.033663
0.0324642
0.0313995
0.0304533
0.0296123
0.0288651
0.028202
0.0276149
0.0270965
0.0266411
0.0262436
0.0258997
0.0256059
0.0253597
0.0251597
0.0249992
0.0248758
0.0884695
0.0795714
0.0735238
0.0676628
0.062674
0.0582644
0.0544109
0.051042
0.0480956
0.0455133
0.0432445
0.041246
0.0394814
0.0379201
0.0365364
0.0353085
0.034218
0.0332494
0.0323896
0.0316275
0.0309537
0.0303603
0.0298404
0.0293885
0.0289998
0.0286705
0.0283978
0.0281799
0.0280099
0.0278909
0.0998401
0.0898732
0.082517
0.075696
0.0698987
0.0648696
0.0605171
0.056737
0.0534425
0.0505594
0.0480269
0.0457948
0.043822
0.0420741
0.040523
0.0391446
0.0379191
0.0368298
0.0358623
0.0350048
0.034247
0.0335805
0.0329978
0.032493
0.0320609
0.0316974
0.0313997
0.0311651
0.0309881
0.0308757
0.110618
0.0995474
0.0910267
0.0834954
0.0771302
0.071644
0.0668844
0.062731
0.059092
0.0558921
0.0530693
0.0505724
0.0483585
0.0463921
0.0446432
0.0430868
0.0417016
0.0404697
0.0393756
0.0384065
0.0375511
0.0368001
0.0361455
0.0355804
0.0350992
0.0346974
0.0343717
0.0341189
0.0339351
0.0338302
0.121258
0.110164
0.101209
0.0932623
0.0863647
0.080302
0.0749466
0.0702085
0.0660169
0.0623073
0.0590213
0.0561069
0.0535194
0.0512201
0.0491761
0.0473589
0.0457443
0.0443113
0.0430419
0.0419207
0.0409344
0.0400718
0.039323
0.03868
0.0381359
0.0376853
0.0373238
0.0370478
0.0368547
0.0367546
0.133094
0.123418
0.114297
0.105706
0.0979134
0.090903
0.0846222
0.0790186
0.074038
0.06962
0.0657039
0.0622328
0.0591555
0.0564271
0.0540081
0.0518643
0.049966
0.0482874
0.0468062
0.0455031
0.0443617
0.0433678
0.0425093
0.0417761
0.0411597
0.0406531
0.040251
0.0399487
0.0397439
0.0396437
0.143351
0.134221
0.124533
0.115161
0.106557
0.0988067
0.0918755
0.0856993
0.0802107
0.075341
0.0710238
0.0671972
0.0638058
0.0608001
0.058137
0.0557788
0.0536926
0.0518499
0.050226
0.0487997
0.0475526
0.046469
0.0455356
0.044741
0.044076
0.0435327
0.0431052
0.0427883
0.042579
0.0424796
0.158061
0.14617
0.135289
0.125198
0.116107
0.108042
0.100911
0.0945827
0.0889498
0.0839311
0.0794586
0.0754726
0.0719202
0.0687547
0.0659352
0.0634257
0.061195
0.0592159
0.0574646
0.0559206
0.0545661
0.0533859
0.052367
0.0514982
0.0507704
0.0501758
0.0497083
0.0493629
0.0491359
0.049024
0.171815
0.158215
0.147055
0.137262
0.12847
0.120555
0.113444
0.107059
0.10132
0.0961579
0.0915154
0.0873411
0.0835896
0.0802199
0.0771959
0.0744855
0.0720602
0.0698953
0.0679686
0.0662612
0.0647562
0.0634393
0.0622978
0.0613213
0.0605005
0.0598281
0.0592979
0.0589051
0.0586462
0.058519
0.175417
0.16486
0.155103
0.146145
0.137936
0.130427
0.123583
0.11736
0.111708
0.106577
0.10192
0.0976961
0.0938673
0.0904009
0.087267
0.0844387
0.0818921
0.0796056
0.07756
0.0757385
0.0741261
0.0727096
0.0714776
0.0704201
0.0695289
0.0687968
0.068218
0.067788
0.0675033
0.0673609
0.176444
0.167429
0.158925
0.150996
0.143661
0.136881
0.130618
0.12484
0.119522
0.114634
0.11015
0.106044
0.10229
0.098864
0.0957447
0.0929113
0.0903448
0.0880279
0.085945
0.0840818
0.0824259
0.0809659
0.0796919
0.0785955
0.0776691
0.0769065
0.0763027
0.0758535
0.0755559
0.0754084
0.174359
0.167291
0.160375
0.153725
0.1474
0.141423
0.135807
0.130552
0.125654
0.121104
0.116889
0.112994
0.109404
0.106102
0.103075
0.100307
0.0977841
0.0954944
0.0934255
0.0915666
0.0899077
0.0884397
0.0871547
0.0860454
0.0851059
0.0843308
0.0837159
0.0832577
0.0829535
0.0828012
0.172087
0.166192
0.160359
0.154682
0.149228
0.144024
0.139083
0.134412
0.130011
0.125881
0.122017
0.118415
0.115067
0.111965
0.109101
0.106466
0.104052
0.101848
0.0998481
0.0980432
0.0964262
0.0949904
0.0937297
0.0926386
0.0917122
0.0909466
0.0903383
0.0898844
0.0895831
0.0894333
0.16884
0.164119
0.159367
0.154675
0.150089
0.14564
0.141353
0.137248
0.133338
0.129632
0.126134
0.122846
0.119767
0.116895
0.114225
0.111754
0.109478
0.107389
0.105485
0.103759
0.102207
0.100824
0.0996063
0.0985494
0.09765
0.0969052
0.0963124
0.0958695
0.0955751