/*--------------------------------*- C++ -*----------------------------------*\
  =========                 |
  \\      /  F ield         | OpenFOAM: The Open Source CFD Toolbox
   \\    /   O peration     | Website:  https://openfoam.org
    \\  /    A nd           | Version:  7
     \\/     M anipulation  |
\*---------------------------------------------------------------------------*/
FoamFile
{
    version     2.0;
    format      ascii;
    class       volVectorField;
    location    "15";
    object      U;
}
// * * * * * * * * * * * * * * * * * * * * * * * * * * * * * * * * * * * * * //

dimensions      [0 1 -1 0 0 0 0];

internalField   nonuniform List<vector> 
1360
(
(0.186194 -0.00856953 2.36979e-20)
(0.194396 -0.00857662 -2.32683e-20)
(0.202609 -0.00857266 -5.11916e-21)
(0.210822 -0.00855827 1.49162e-20)
(0.219025 -0.00853414 1.35149e-20)
(0.22721 -0.00850097 -6.7944e-21)
(0.235367 -0.00845949 -2.80068e-21)
(0.24349 -0.0084104 -5.02191e-21)
(0.25157 -0.0083544 -2.09448e-21)
(0.259602 -0.00829216 4.9114e-21)
(0.267579 -0.00822433 -9.56869e-21)
(0.275497 -0.00815152 4.02239e-21)
(0.283351 -0.00807432 8.96607e-21)
(0.291136 -0.00799326 -2.31734e-20)
(0.298849 -0.00790885 2.69784e-20)
(0.306487 -0.00782158 -1.24223e-20)
(0.314046 -0.00773188 -7.03026e-21)
(0.321526 -0.00764016 1.37307e-20)
(0.328923 -0.0075468 -2.0641e-20)
(0.336235 -0.00745214 1.91998e-20)
(0.343463 -0.0073565 4.93732e-21)
(0.350604 -0.00726018 -2.29803e-20)
(0.357659 -0.00716344 5.98183e-21)
(0.364625 -0.00706652 1.34997e-20)
(0.371504 -0.00696965 -2.4492e-21)
(0.378295 -0.00687303 -5.26426e-22)
(0.384998 -0.00677685 -1.31834e-20)
(0.391614 -0.00668126 5.55007e-21)
(0.398143 -0.00658643 -3.67607e-21)
(0.404585 -0.00649248 1.18851e-20)
(0.410942 -0.00639954 -1.22743e-20)
(0.417214 -0.00630771 9.55681e-22)
(0.423403 -0.00621711 7.82976e-21)
(0.429508 -0.00612781 -9.39943e-21)
(0.435532 -0.00603989 9.99536e-21)
(0.441476 -0.00595342 -2.43426e-21)
(0.447341 -0.00586847 -1.18642e-22)
(0.453127 -0.00578509 -4.22362e-21)
(0.458838 -0.00570333 2.26808e-21)
(0.464474 -0.00562322 2.92256e-21)
(0.470036 -0.00554481 5.81075e-21)
(0.475527 -0.00546813 -6.23549e-21)
(0.480947 -0.0053932 1.17024e-21)
(0.486299 -0.00532004 3.23833e-21)
(0.491584 -0.00524867 -4.34711e-21)
(0.496804 -0.00517911 -7.21158e-22)
(0.50196 -0.00511136 1.44153e-21)
(0.507054 -0.00504542 1.75275e-21)
(0.512088 -0.00498131 -5.63114e-22)
(0.517063 -0.00491903 -3.11197e-21)
(0.220415 -0.0252884 -1.08898e-19)
(0.228227 -0.0253051 1.98332e-20)
(0.236042 -0.0252893 6.08963e-20)
(0.243851 -0.0252429 9.23101e-21)
(0.251645 -0.0251681 -7.79126e-20)
(0.259415 -0.0250669 3.09144e-20)
(0.267154 -0.0249416 -3.46007e-20)
(0.274856 -0.0247941 -1.52539e-20)
(0.282513 -0.0246266 -6.50937e-20)
(0.290121 -0.024441 7.56296e-20)
(0.297675 -0.0242393 1.23893e-20)
(0.305169 -0.0240231 -4.83228e-20)
(0.312599 -0.0237943 2.40385e-20)
(0.319963 -0.0235544 -1.88127e-20)
(0.327257 -0.0233048 1.05271e-19)
(0.334479 -0.0230471 -1.15567e-19)
(0.341625 -0.0227823 8.27857e-20)
(0.348695 -0.0225118 4.14493e-21)
(0.355686 -0.0222366 -5.74943e-20)
(0.362597 -0.0219577 -1.60854e-20)
(0.369427 -0.0216761 2.89135e-20)
(0.376176 -0.0213926 -2.31462e-20)
(0.382842 -0.0211079 6.34999e-20)
(0.389426 -0.0208229 -2.03731e-20)
(0.395927 -0.020538 -1.83259e-20)
(0.402346 -0.020254 -6.76923e-21)
(0.408682 -0.0199712 3.53115e-21)
(0.414936 -0.0196903 6.02149e-21)
(0.421109 -0.0194117 -5.84833e-21)
(0.427201 -0.0191357 -6.84533e-21)
(0.433213 -0.0188627 2.08119e-20)
(0.439145 -0.0185931 6.53104e-21)
(0.445 -0.018327 -2.30157e-20)
(0.450777 -0.0180648 4.36883e-21)
(0.456478 -0.0178067 -8.89692e-21)
(0.462104 -0.0175529 1.29478e-20)
(0.467656 -0.0173036 -4.80596e-21)
(0.473136 -0.0170588 5.38048e-21)
(0.478545 -0.0168189 5.95402e-21)
(0.483884 -0.0165839 4.64363e-21)
(0.489155 -0.0163538 -4.79187e-21)
(0.494359 -0.0161288 3.58991e-21)
(0.499498 -0.015909 -1.7853e-20)
(0.504574 -0.0156944 8.24591e-21)
(0.509587 -0.0154851 4.44207e-21)
(0.514539 -0.0152811 -1.04157e-20)
(0.519433 -0.0150824 4.00987e-21)
(0.524269 -0.0148891 -4.75102e-21)
(0.529049 -0.0147011 1.37911e-20)
(0.533775 -0.0145186 -1.1592e-20)
(0.286358 -0.0407414 -4.23415e-20)
(0.29338 -0.0407568 -6.46774e-20)
(0.300393 -0.0407204 2.48943e-19)
(0.30739 -0.0406354 -6.74197e-20)
(0.314365 -0.0405054 2.76815e-20)
(0.321309 -0.040334 -1.22032e-19)
(0.328218 -0.0401245 1.179e-19)
(0.335087 -0.0398805 -8.60408e-20)
(0.34191 -0.0396052 3.9383e-20)
(0.348684 -0.0393018 4.92572e-21)
(0.355405 -0.0389732 -6.60715e-20)
(0.36207 -0.0386224 6.2838e-20)
(0.368675 -0.0382519 2.97613e-20)
(0.375218 -0.0378643 1.65204e-20)
(0.381697 -0.0374619 -6.79476e-20)
(0.388111 -0.0370468 2.88202e-20)
(0.394457 -0.036621 1.64619e-20)
(0.400734 -0.0361865 -7.41693e-20)
(0.406941 -0.0357448 7.36857e-20)
(0.413077 -0.0352976 -2.324e-20)
(0.419142 -0.0348464 2.36599e-20)
(0.425136 -0.0343923 -3.40004e-20)
(0.431057 -0.0339367 -1.11355e-20)
(0.436906 -0.0334806 6.53848e-20)
(0.442683 -0.0330251 -2.70174e-20)
(0.448388 -0.032571 -3.1604e-20)
(0.454022 -0.0321193 -3.81501e-21)
(0.459584 -0.0316705 9.43071e-21)
(0.465076 -0.0312255 1.25404e-20)
(0.470499 -0.0307848 5.65051e-21)
(0.475852 -0.0303491 4.97312e-21)
(0.481136 -0.0299187 -5.20032e-20)
(0.486353 -0.0294941 -3.20647e-21)
(0.491504 -0.0290758 5.99978e-20)
(0.496589 -0.0286641 -2.4274e-20)
(0.50161 -0.0282593 2.3645e-21)
(0.506568 -0.0278617 -3.29444e-20)
(0.511464 -0.0274715 2.30005e-20)
(0.516298 -0.027089 2.98669e-21)
(0.521073 -0.0267144 2.09871e-20)
(0.52579 -0.0263477 3.01915e-22)
(0.53045 -0.0259892 -5.7669e-21)
(0.535053 -0.025639 -1.28442e-20)
(0.539603 -0.0252971 2.5685e-20)
(0.544099 -0.0249637 -2.45029e-20)
(0.548544 -0.0246389 9.75963e-21)
(0.552939 -0.0243226 -2.39689e-20)
(0.557284 -0.0240148 4.91984e-21)
(0.561582 -0.0237157 -6.34176e-21)
(0.565835 -0.0234253 3.12507e-20)
(0.570042 -0.0231434 -2.21051e-20)
(0.385065 -0.0540829 1.99114e-20)
(0.390866 -0.0540205 2.66422e-20)
(0.396644 -0.0538951 -3.03e-19)
(0.402394 -0.0537115 2.04697e-19)
(0.408112 -0.0534745 -2.10561e-19)
(0.413796 -0.0531887 8.87262e-20)
(0.419441 -0.0528588 7.27747e-20)
(0.425046 -0.0524889 -1.1362e-19)
(0.430607 -0.0520832 8.88293e-20)
(0.436123 -0.0516455 -9.86339e-20)
(0.441591 -0.0511795 1.10564e-21)
(0.447011 -0.0506886 -9.37121e-21)
(0.45238 -0.050176 -4.0946e-20)
(0.457697 -0.0496447 2.18204e-19)
(0.462961 -0.0490974 -3.26613e-20)
(0.468171 -0.0485366 -1.8459e-19)
(0.473327 -0.0479648 1.24904e-19)
(0.478428 -0.0473841 -1.03496e-19)
(0.483474 -0.0467965 1.84312e-19)
(0.488464 -0.0462039 -1.49203e-19)
(0.493398 -0.0456078 7.59905e-20)
(0.498276 -0.04501 3.68089e-20)
(0.503098 -0.0444118 -8.46823e-20)
(0.507864 -0.0438144 -2.88303e-20)
(0.512575 -0.0432191 8.82817e-20)
(0.517231 -0.0426269 1.21001e-20)
(0.521832 -0.0420389 -5.53893e-20)
(0.526378 -0.0414558 9.13956e-20)
(0.530871 -0.0408785 -1.62068e-19)
(0.535311 -0.0403076 6.8435e-20)
(0.539698 -0.0397439 -7.23114e-22)
(0.544034 -0.0391879 -6.6125e-21)
(0.548318 -0.0386402 -1.8264e-20)
(0.552553 -0.0381011 1.85425e-20)
(0.556738 -0.0375712 -2.30462e-20)
(0.560874 -0.0370507 2.54694e-20)
(0.564964 -0.03654 1.03554e-20)
(0.569006 -0.0360394 2.24841e-20)
(0.573003 -0.0355492 -2.81293e-20)
(0.576956 -0.0350695 1.13546e-20)
(0.580865 -0.0346005 -3.04369e-20)
(0.584732 -0.0341425 4.10375e-20)
(0.588557 -0.0336954 -1.44883e-20)
(0.592342 -0.0332595 4.4207e-22)
(0.596088 -0.0328349 2.21707e-20)
(0.599795 -0.0324215 -1.55612e-20)
(0.603466 -0.0320194 -8.33977e-21)
(0.607101 -0.0316288 -9.23168e-21)
(0.610701 -0.0312495 1.62872e-20)
(0.614268 -0.0308816 -5.53354e-21)
(0.496606 -0.0644742 5.56701e-20)
(0.500789 -0.0643975 1.295e-19)
(0.504954 -0.0642472 -3.10947e-19)
(0.5091 -0.0640294 2.8656e-19)
(0.513226 -0.0637497 -1.05082e-19)
(0.517328 -0.0634136 8.02934e-20)
(0.521407 -0.0630263 1.05448e-20)
(0.525461 -0.0625928 3.68064e-20)
(0.529489 -0.0621178 -1.85017e-19)
(0.53349 -0.0616058 -5.74886e-20)
(0.537462 -0.0610609 -3.96104e-20)
(0.541405 -0.0604871 1.67977e-19)
(0.545319 -0.059888 -2.85337e-20)
(0.549202 -0.059267 7.48074e-20)
(0.553053 -0.0586272 1.28024e-20)
(0.556873 -0.0579716 6.29324e-21)
(0.560661 -0.057303 -5.25257e-20)
(0.564416 -0.0566238 -2.97551e-20)
(0.568138 -0.0559364 4.54924e-20)
(0.571827 -0.0552429 -1.2323e-19)
(0.575482 -0.0545453 5.7315e-20)
(0.579103 -0.0538453 1.50905e-20)
(0.582691 -0.0531446 -3.34783e-20)
(0.586244 -0.0524448 -3.08879e-20)
(0.589764 -0.0517473 2.0319e-21)
(0.593251 -0.0510531 -1.97755e-20)
(0.596703 -0.0503637 1.0408e-19)
(0.600123 -0.0496799 -6.23624e-21)
(0.603509 -0.0490027 -3.68619e-21)
(0.606862 -0.048333 -8.61998e-20)
(0.610183 -0.0476716 1.10422e-19)
(0.613472 -0.0470191 3.21369e-20)
(0.616729 -0.0463762 -4.63253e-20)
(0.619954 -0.0457434 -1.53198e-20)
(0.623149 -0.0451212 -4.63554e-20)
(0.626314 -0.0445102 -3.73168e-20)
(0.629449 -0.0439106 7.08334e-20)
(0.632555 -0.0433228 -5.27413e-21)
(0.635633 -0.0427472 2.25847e-20)
(0.638683 -0.0421841 2.49014e-20)
(0.641705 -0.0416335 -4.4161e-22)
(0.644702 -0.0410958 -4.29366e-20)
(0.647672 -0.0405711 5.73503e-21)
(0.650617 -0.0400596 -8.95747e-21)
(0.653538 -0.0395614 2.86017e-20)
(0.656435 -0.0390765 1.07315e-20)
(0.659309 -0.038605 -1.92096e-21)
(0.662162 -0.038147 -1.41637e-22)
(0.664993 -0.0377026 -1.56032e-20)
(0.667803 -0.0372716 -1.25139e-20)
(0.622124 -0.0711054 1.15502e-20)
(0.624345 -0.0709825 -7.66529e-20)
(0.626576 -0.0707848 2.55279e-19)
(0.628817 -0.0705183 -5.26553e-20)
(0.631067 -0.070189 6.5161e-21)
(0.633324 -0.0698024 -1.63169e-19)
(0.635588 -0.069364 2.6923e-19)
(0.637858 -0.0688787 -5.62849e-20)
(0.640133 -0.0683514 -1.79558e-19)
(0.642412 -0.0677865 -1.66987e-20)
(0.644693 -0.0671883 1.81227e-20)
(0.646976 -0.0665608 -1.07583e-20)
(0.649259 -0.0659077 2.01497e-19)
(0.651542 -0.0652324 -2.16996e-20)
(0.653824 -0.0645382 -1.99109e-19)
(0.656103 -0.0638282 1.30235e-19)
(0.658379 -0.0631051 3.52823e-20)
(0.660652 -0.0623714 4.00183e-20)
(0.662919 -0.0616297 -7.07764e-20)
(0.665181 -0.0608821 3.96723e-20)
(0.667436 -0.0601307 -8.13327e-20)
(0.669685 -0.0593773 3.33076e-20)
(0.671926 -0.0586237 -2.18393e-20)
(0.67416 -0.0578714 -3.71304e-20)
(0.676385 -0.057122 -4.45407e-20)
(0.678601 -0.0563767 1.00366e-19)
(0.680808 -0.0556367 8.84837e-22)
(0.683005 -0.0549033 1.01833e-20)
(0.685193 -0.0541772 -1.2167e-19)
(0.687371 -0.0534596 5.97287e-20)
(0.689539 -0.0527511 -3.0209e-20)
(0.691697 -0.0520527 1.01156e-19)
(0.693845 -0.0513648 -4.01422e-20)
(0.695982 -0.0506881 -5.40852e-20)
(0.69811 -0.0500232 9.9989e-20)
(0.700227 -0.0493706 -2.49612e-20)
(0.702334 -0.0487307 -8.49217e-21)
(0.704431 -0.0481038 -4.679e-20)
(0.706519 -0.0474903 1.39463e-20)
(0.708597 -0.0468905 2.74639e-20)
(0.710666 -0.0463047 1.08171e-20)
(0.712725 -0.045733 -4.11811e-22)
(0.714776 -0.0451758 5.13178e-20)
(0.716819 -0.044633 -1.16558e-19)
(0.718853 -0.0441049 1.03747e-19)
(0.720879 -0.0435916 -3.70647e-20)
(0.722898 -0.0430931 -9.65019e-21)
(0.72491 -0.0426095 2.65795e-20)
(0.726915 -0.0421408 3.71026e-21)
(0.74617 -0.0738481 -4.71291e-19)
(0.746319 -0.0737482 -6.64753e-20)
(0.74653 -0.0735728 7.27328e-19)
(0.746801 -0.0733276 -6.75329e-19)
(0.747128 -0.0730184 4.33402e-20)
(0.747508 -0.0726507 3.44642e-19)
(0.747941 -0.0722296 1.34464e-19)
(0.748422 -0.0717602 -2.98827e-19)
(0.748949 -0.071247 1.98176e-19)
(0.749521 -0.0706948 1.91448e-19)
(0.750134 -0.0701076 -1.71725e-19)
(0.750787 -0.0694895 -1.85919e-19)
(0.751477 -0.0688443 1.22095e-19)
(0.752202 -0.0681754 -2.42324e-19)
(0.752959 -0.0674862 1.01331e-19)
(0.753748 -0.0667797 1.18691e-19)
(0.754566 -0.0660589 -1.0443e-19)
(0.755411 -0.0653264 1.31669e-19)
(0.756282 -0.0645848 -1.86683e-19)
(0.757177 -0.0638362 4.49711e-20)
(0.758094 -0.063083 6.41251e-21)
(0.759032 -0.0623269 2.7059e-20)
(0.759991 -0.0615699 6.64063e-20)
(0.760967 -0.0608137 -2.84367e-20)
(0.761961 -0.0600597 -3.4789e-20)
(0.762971 -0.0593094 -7.12914e-20)
(0.763997 -0.0585641 -8.06991e-21)
(0.765036 -0.057825 1.4868e-19)
(0.766089 -0.0570931 -1.55148e-19)
(0.767154 -0.0563695 1.23709e-19)
(0.768231 -0.0556551 4.21412e-20)
(0.76932 -0.0549506 -3.05318e-20)
(0.770418 -0.0542568 1.09407e-20)
(0.771527 -0.0535744 -6.69182e-20)
(0.772645 -0.052904 7.41397e-20)
(0.773772 -0.0522461 -8.46746e-20)
(0.774907 -0.0516013 8.18238e-20)
(0.776051 -0.0509699 -1.11128e-19)
(0.777203 -0.0503523 7.99578e-20)
(0.778362 -0.0497489 -1.59081e-20)
(0.779528 -0.0491599 -2.23371e-20)
(0.780702 -0.0485857 -1.29905e-20)
(0.781883 -0.0480264 8.24625e-20)
(0.78307 -0.0474823 -1.09351e-19)
(0.784265 -0.0469534 6.57292e-20)
(0.785466 -0.0464401 3.91505e-20)
(0.786674 -0.0459422 -3.18348e-21)
(0.787888 -0.04546 -8.24734e-20)
(0.789109 -0.0449934 1.81451e-20)
(0.860206 -0.0731979 1.64407e-19)
(0.858449 -0.0732513 -1.30502e-19)
(0.856814 -0.0732185 -1.1156e-20)
(0.855293 -0.0731059 2.6376e-19)
(0.853881 -0.0729197 -3.69207e-19)
(0.852572 -0.072666 -3.77995e-19)
(0.851361 -0.0723504 1.06122e-19)
(0.850243 -0.0719785 4.66875e-19)
(0.849214 -0.0715556 -6.05418e-19)
(0.848268 -0.0710866 3.0235e-19)
(0.847403 -0.0705761 4.10706e-19)
(0.846614 -0.0700288 -4.67782e-19)
(0.845897 -0.0694488 2.59644e-19)
(0.845249 -0.06884 -2.05635e-19)
(0.844666 -0.0682061 5.29629e-20)
(0.844145 -0.0675506 5.91929e-21)
(0.843683 -0.0668767 6.22993e-20)
(0.843277 -0.0661875 -1.07334e-19)
(0.842925 -0.0654858 1.10822e-19)
(0.842623 -0.0647741 -2.96851e-20)
(0.84237 -0.0640549 -1.50061e-19)
(0.842163 -0.0633304 4.38175e-20)
(0.842 -0.0626027 1.34896e-19)
(0.841878 -0.0618737 -1.28102e-19)
(0.841797 -0.0611451 5.47406e-20)
(0.841754 -0.0604186 -6.24177e-20)
(0.841747 -0.0596956 3.72799e-20)
(0.841775 -0.0589776 1.25225e-19)
(0.841836 -0.0582657 -1.63182e-19)
(0.841929 -0.0575611 2.35416e-21)
(0.842053 -0.0568649 1.04132e-19)
(0.842206 -0.0561779 -7.90281e-20)
(0.842387 -0.0555011 -6.87622e-21)
(0.842596 -0.0548352 1.39107e-20)
(0.84283 -0.054181 4.64964e-20)
(0.84309 -0.0535389 -5.42525e-20)
(0.843374 -0.0529098 2.23726e-21)
(0.843682 -0.0522939 -1.67962e-20)
(0.844012 -0.0516919 1.66098e-20)
(0.844365 -0.0511041 1.76129e-20)
(0.844739 -0.0505308 2.20142e-20)
(0.845133 -0.0499724 -2.88368e-20)
(0.845548 -0.0494292 -4.11203e-21)
(0.845983 -0.0489014 4.16069e-20)
(0.846437 -0.0483891 -1.30185e-20)
(0.84691 -0.0478926 3.99251e-20)
(0.847402 -0.047412 6.73328e-21)
(0.847911 -0.0469474 -3.31126e-20)
(0.958442 -0.066628 0)
(0.95539 -0.0669836 0)
(0.952495 -0.0672389 1.36503e-27)
(0.949746 -0.0674014 -2.7571e-27)
(0.947137 -0.0674781 0)
(0.94466 -0.0674758 3.15553e-27)
(0.942308 -0.0674008 -3.15551e-27)
(0.940076 -0.0672593 0)
(0.937957 -0.067057 0)
(0.935946 -0.0667993 0)
(0.934037 -0.0664914 6.18988e-28)
(0.932226 -0.0661382 -4.29789e-28)
(0.930508 -0.0657443 2.42727e-11)
(0.928879 -0.0653139 2.35462e-11)
(0.927334 -0.0648511 9.48207e-28)
(0.925869 -0.0643598 -1.9149e-27)
(0.924481 -0.0638434 0)
(0.923167 -0.0633054 -1.44009e-27)
(0.921922 -0.0627487 5.56956e-28)
(0.920744 -0.0621763 8.15353e-28)
(0.91963 -0.061591 -1.64711e-27)
(0.918577 -0.0609951 0)
(0.917582 -0.0603911 0)
(0.916643 -0.059781 0)
(0.915758 -0.0591669 0)
(0.914923 -0.0585507 0)
(0.914138 -0.057934 0)
(0.9134 -0.0573184 1.33787e-27)
(0.912707 -0.0567054 -6.24061e-28)
(0.912057 -0.0560963 0)
(0.91145 -0.0554923 0)
(0.910882 -0.0548946 0)
(0.910353 -0.0543042 0)
(0.909862 -0.053722 0)
(0.909406 -0.053149 1.08986e-27)
(0.908986 -0.0525858 -5.08505e-28)
(0.908599 -0.0520332 4.93886e-28)
(0.908244 -0.0514918 -9.9852e-28)
(0.907921 -0.0509623 0)
(0.907629 -0.0504452 0)
(0.907366 -0.0499408 0)
(0.907132 -0.0494498 0)
(0.906926 -0.0489723 0)
(0.906748 -0.0485088 4.02236e-28)
(0.906596 -0.0480596 -8.12837e-28)
(0.906469 -0.0476248 0)
(0.906368 -0.0472048 0)
(0.906292 -0.0467996 0)
(1.05057 -0.0598223 0)
(1.04653 -0.060475 0)
(1.04265 -0.0610117 -1.36677e-27)
(1.03894 -0.061441 2.76062e-27)
(1.03537 -0.0617713 0)
(1.03195 -0.0620102 0)
(1.02866 -0.0621651 0)
(1.02551 -0.0622429 0)
(1.02249 -0.0622498 0)
(1.01958 -0.0621922 0)
(1.01679 -0.0620755 -6.198e-28)
(1.01411 -0.0619053 4.30355e-28)
(1.01154 -0.0616866 -2.43048e-11)
(1.00907 -0.061424 -2.35774e-11)
(1.00669 -0.0611222 -9.49468e-28)
(1.00441 -0.0607851 1.91745e-27)
(1.00222 -0.0604167 0)
(1.00011 -0.0600206 -3.05208e-27)
(0.998078 -0.0596004 3.9364e-27)
(0.996128 -0.059159 -8.16453e-28)
(0.994253 -0.0586996 1.64934e-27)
(0.99245 -0.0582248 0)
(0.990716 -0.0577372 0)
(0.989047 -0.0572393 0)
(0.987443 -0.0567331 0)
(0.985899 -0.0562209 0)
(0.984414 -0.0557045 0)
(0.982985 -0.0551857 -1.3397e-27)
(0.981611 -0.0546661 6.24916e-28)
(0.980289 -0.0541471 0)
(0.979017 -0.0536303 0)
(0.977793 -0.0531169 0)
(0.976616 -0.052608 0)
(0.975485 -0.0521048 0)
(0.974397 -0.0516082 -1.09135e-27)
(0.973351 -0.0511192 5.09204e-28)
(0.972345 -0.0506386 -4.94564e-28)
(0.971379 -0.0501671 9.99891e-28)
(0.970451 -0.0497054 0)
(0.96956 -0.0492542 0)
(0.968705 -0.0488141 0)
(0.967885 -0.0483855 0)
(0.967098 -0.0479688 0)
(0.966343 -0.0475646 -4.02784e-28)
(0.965621 -0.0471732 8.13943e-28)
(0.96493 -0.0467948 0)
(0.964268 -0.0464298 0)
(0.963636 -0.0460785 0)
(1.12297 -0.0509078 -7.60723e-29)
(1.11857 -0.0518963 0)
(1.11431 -0.052755 0)
(1.11018 -0.0534932 0)
(1.10619 -0.0541198 0)
(1.10233 -0.0546429 6.65815e-29)
(1.0986 -0.0550704 0)
(1.09499 -0.0554096 -7.37014e-28)
(1.09149 -0.0556673 0)
(1.08811 -0.0558502 0)
(1.08483 -0.0559643 0)
(1.08167 -0.0560154 0)
(1.0786 -0.056009 0)
(1.07563 -0.0559501 -2.67848e-28)
(1.07276 -0.0558437 0)
(1.06998 -0.0556941 0)
(1.06728 -0.0555057 -4.91344e-29)
(1.06467 -0.0552823 0)
(1.06215 -0.0550278 0)
(1.0597 -0.0547456 0)
(1.05733 -0.054439 0)
(1.05503 -0.054111 4.27259e-29)
(1.0528 -0.0537645 0)
(1.05065 -0.0534021 0)
(1.04855 -0.0530263 0)
(1.04652 -0.0526394 0)
(1.04456 -0.0522435 0)
(1.04265 -0.0518407 1.8115e-28)
(1.04079 -0.0514328 0)
(1.039 -0.0510214 3.41653e-29)
(1.03725 -0.0506083 0)
(1.03556 -0.0501949 0)
(1.03392 -0.0497825 0)
(1.03232 -0.0493723 -3.05484e-29)
(1.03078 -0.0489657 0)
(1.02927 -0.0485635 2.88818e-29)
(1.02781 -0.0481669 -2.80811e-29)
(1.0264 -0.0477766 0)
(1.02502 -0.0473936 2.65409e-29)
(1.02368 -0.0470185 0)
(1.02238 -0.0466522 0)
(1.02112 -0.0462951 -2.43727e-29)
(1.01989 -0.0459479 0)
(1.0187 -0.045611 0)
(1.01755 -0.045285 0)
(1.01642 -0.0449702 0)
(1.01533 -0.0446671 0)
(1.01427 -0.0443758 2.04796e-29)
(1.17517 -0.0420578 7.60723e-29)
(1.17094 -0.0432879 0)
(1.1668 -0.0443847 0)
(1.16277 -0.045357 0)
(1.15883 -0.046213 0)
(1.15498 -0.0469608 -6.65815e-29)
(1.15123 -0.0476077 0)
(1.14758 -0.0481611 7.37014e-28)
(1.14401 -0.0486275 0)
(1.14054 -0.0490136 0)
(1.13716 -0.0493252 0)
(1.13386 -0.0495683 0)
(1.13065 -0.0497482 0)
(1.12752 -0.0498702 2.67848e-28)
(1.12447 -0.049939 0)
(1.1215 -0.0499593 0)
(1.11861 -0.0499354 4.91344e-29)
(1.11579 -0.0498714 0)
(1.11305 -0.0497711 0)
(1.11038 -0.0496381 0)
(1.10777 -0.0494758 0)
(1.10524 -0.0492874 -4.27259e-29)
(1.10276 -0.0490759 0)
(1.10035 -0.048844 0)
(1.098 -0.0485944 0)
(1.09571 -0.0483296 0)
(1.09348 -0.0480517 0)
(1.09131 -0.047763 -1.8115e-28)
(1.08918 -0.0474655 0)
(1.08711 -0.0471609 -3.41653e-29)
(1.08509 -0.046851 0)
(1.08312 -0.0465375 0)
(1.0812 -0.0462218 0)
(1.07932 -0.0459052 3.05484e-29)
(1.07749 -0.0455892 0)
(1.0757 -0.0452748 -2.88818e-29)
(1.07395 -0.0449631 2.80811e-29)
(1.07225 -0.0446552 0)
(1.07058 -0.044352 -2.65409e-29)
(1.06895 -0.0440544 0)
(1.06736 -0.0437631 0)
(1.06581 -0.0434788 2.43727e-29)
(1.06429 -0.0432023 0)
(1.06281 -0.0429341 0)
(1.06135 -0.0426747 0)
(1.05993 -0.0424246 0)
(1.05854 -0.0421843 0)
(1.05719 -0.0419541 -2.04796e-29)
(1.20957 -0.0340247 0)
(1.20582 -0.0353957 0)
(1.20213 -0.0366375 0)
(1.19849 -0.0377578 0)
(1.1949 -0.038764 0)
(1.19138 -0.0396631 3.16187e-27)
(1.18791 -0.0404621 -3.16187e-27)
(1.18451 -0.0411675 0)
(1.18117 -0.0417854 0)
(1.17789 -0.0423218 0)
(1.17467 -0.0427825 0)
(1.17152 -0.0431728 0)
(1.16843 -0.043498 0)
(1.1654 -0.0437629 0)
(1.16243 -0.0439721 -9.38509e-28)
(1.15952 -0.0441302 1.90484e-27)
(1.15667 -0.0442413 0)
(1.15388 -0.0443095 0)
(1.15115 -0.0443383 0)
(1.14848 -0.0443315 0)
(1.14586 -0.0442924 0)
(1.1433 -0.044224 0)
(1.14079 -0.0441295 1.84157e-11)
(1.13833 -0.0440116 1.79426e-11)
(1.13592 -0.0438729 0)
(1.13357 -0.043716 0)
(1.13126 -0.0435431 0)
(1.129 -0.0433565 0)
(1.12679 -0.0431581 0)
(1.12462 -0.0429499 0)
(1.12249 -0.0427336 0)
(1.12041 -0.042511 0)
(1.11837 -0.0422836 0)
(1.11638 -0.0420529 0)
(1.11442 -0.0418201 0)
(1.1125 -0.0415866 0)
(1.11061 -0.0413535 0)
(1.10877 -0.0411219 0)
(1.10696 -0.0408927 0)
(1.10518 -0.040667 0)
(1.10344 -0.0404455 0)
(1.10172 -0.0402291 0)
(1.10005 -0.0400184 0)
(1.0984 -0.0398142 0)
(1.09678 -0.0396169 0)
(1.09519 -0.0394272 0)
(1.09363 -0.0392455 0)
(1.09209 -0.0390723 0)
(1.22995 -0.0271827 0)
(1.2268 -0.0286102 0)
(1.22367 -0.0299167 0)
(1.22056 -0.0311086 0)
(1.21747 -0.0321924 0)
(1.21441 -0.0331742 2.92382e-27)
(1.21138 -0.0340602 -2.92382e-27)
(1.20838 -0.0348561 0)
(1.20541 -0.0355674 0)
(1.20248 -0.0361995 0)
(1.19959 -0.0367576 0)
(1.19674 -0.0372465 0)
(1.19393 -0.0376711 0)
(1.19115 -0.0380359 0)
(1.18842 -0.0383451 9.38509e-28)
(1.18573 -0.038603 -1.90484e-27)
(1.18308 -0.0388133 0)
(1.18048 -0.0389799 0)
(1.17791 -0.0391064 0)
(1.17539 -0.039196 0)
(1.17291 -0.039252 0)
(1.17047 -0.0392775 0)
(1.16807 -0.0392752 -1.84157e-11)
(1.1657 -0.039248 -1.79426e-11)
(1.16338 -0.0391983 0)
(1.1611 -0.0391286 0)
(1.15886 -0.0390412 0)
(1.15665 -0.0389382 0)
(1.15448 -0.0388217 0)
(1.15235 -0.0386934 0)
(1.15025 -0.0385553 0)
(1.14819 -0.0384089 0)
(1.14616 -0.0382559 0)
(1.14417 -0.0380976 0)
(1.1422 -0.0379355 0)
(1.14027 -0.0377709 0)
(1.13837 -0.0376048 0)
(1.1365 -0.0374385 0)
(1.13466 -0.0372729 0)
(1.13285 -0.0371091 0)
(1.13107 -0.0369477 0)
(1.12931 -0.0367898 0)
(1.12758 -0.036636 0)
(1.12587 -0.0364871 0)
(1.12419 -0.0363435 0)
(1.12254 -0.0362061 0)
(1.12091 -0.0360751 0)
(1.1193 -0.0359512 0)
(1.24024 -0.0215843 -2.97056e-11)
(1.23767 -0.0230081 -2.91698e-11)
(1.2351 -0.0243203 0)
(1.23252 -0.0255266 0)
(1.22994 -0.0266325 0)
(1.22737 -0.0276433 0)
(1.2248 -0.0285644 0)
(1.22225 -0.0294007 0)
(1.2197 -0.0301573 0)
(1.21717 -0.0308388 0)
(1.21466 -0.0314499 0)
(1.21217 -0.031995 0)
(1.2097 -0.0324784 0)
(1.20725 -0.0329041 0)
(1.20483 -0.033276 1.02558e-27)
(1.20243 -0.033598 -1.38377e-27)
(1.20005 -0.0338737 9.79867e-28)
(1.1977 -0.0341064 -1.32157e-27)
(1.19538 -0.0342995 0)
(1.19309 -0.0344562 0)
(1.19083 -0.0345793 0)
(1.18859 -0.0346718 0)
(1.18638 -0.0347364 0)
(1.1842 -0.0347755 0)
(1.18205 -0.0347916 0)
(1.17992 -0.0347871 0)
(1.17783 -0.0347641 0)
(1.17576 -0.0347247 0)
(1.17372 -0.0346707 0)
(1.1717 -0.0346041 0)
(1.16972 -0.0345265 0)
(1.16776 -0.0344396 0)
(1.16582 -0.0343448 0)
(1.16391 -0.0342437 0)
(1.16203 -0.0341375 0)
(1.16017 -0.0340275 6.15308e-28)
(1.15833 -0.0339149 -5.9955e-28)
(1.15652 -0.0338008 0)
(1.15473 -0.0336861 0)
(1.15296 -0.0335719 0)
(1.15122 -0.033459 0)
(1.14949 -0.0333482 0)
(1.14779 -0.0332403 0)
(1.1461 -0.0331359 0)
(1.14444 -0.0330358 0)
(1.1428 -0.0329405 0)
(1.14117 -0.0328505 0)
(1.13956 -0.0327664 0)
(1.2438 -0.0170996 2.97056e-11)
(1.24174 -0.0184802 2.91698e-11)
(1.23966 -0.0197591 0)
(1.23756 -0.0209411 0)
(1.23544 -0.0220309 0)
(1.23331 -0.0230331 2.61067e-27)
(1.23117 -0.0239525 -2.61067e-27)
(1.22902 -0.0247933 0)
(1.22688 -0.0255599 0)
(1.22473 -0.0262565 0)
(1.22259 -0.0268872 0)
(1.22045 -0.0274559 0)
(1.21832 -0.0279664 0)
(1.21619 -0.0284225 0)
(1.21408 -0.0288276 -1.02558e-27)
(1.21198 -0.0291852 1.38377e-27)
(1.20989 -0.0294985 -9.79867e-28)
(1.20782 -0.0297707 1.32157e-27)
(1.20576 -0.0300048 0)
(1.20372 -0.0302036 0)
(1.2017 -0.03037 0)
(1.19969 -0.0305065 0)
(1.19771 -0.0306156 0)
(1.19574 -0.0306998 0)
(1.19379 -0.0307612 0)
(1.19185 -0.0308021 0)
(1.18994 -0.0308244 0)
(1.18805 -0.0308302 0)
(1.18617 -0.0308212 0)
(1.18432 -0.0307991 0)
(1.18248 -0.0307657 0)
(1.18066 -0.0307224 0)
(1.17886 -0.0306707 0)
(1.17708 -0.030612 0)
(1.17532 -0.0305475 0)
(1.17357 -0.0304784 -6.15308e-28)
(1.17185 -0.030406 5.9955e-28)
(1.17014 -0.0303312 0)
(1.16844 -0.030255 0)
(1.16677 -0.0301784 0)
(1.16511 -0.0301021 0)
(1.16347 -0.0300271 0)
(1.16184 -0.0299541 0)
(1.16022 -0.0298836 0)
(1.15862 -0.0298165 0)
(1.15704 -0.0297531 0)
(1.15547 -0.0296942 0)
(1.15391 -0.0296401 0)
(1.2432 -0.0135385 -2.79101e-11)
(1.24156 -0.0148509 -2.75099e-11)
(1.23988 -0.0160713 0)
(1.23818 -0.0172038 0)
(1.23644 -0.0182523 -1.08992e-27)
(1.23468 -0.019221 1.84542e-27)
(1.23291 -0.0201137 -2.5389e-11)
(1.23111 -0.0209343 -2.49496e-11)
(1.22931 -0.0216867 2.45075e-11)
(1.22749 -0.0223744 2.40638e-11)
(1.22567 -0.0230011 5.66764e-28)
(1.22384 -0.0235703 0)
(1.22201 -0.0240854 0)
(1.22018 -0.0245497 0)
(1.21835 -0.0249663 -9.0689e-28)
(1.21652 -0.0253383 0)
(1.2147 -0.0256686 0)
(1.21288 -0.0259602 0)
(1.21107 -0.0262157 0)
(1.20926 -0.0264377 8.17227e-28)
(1.20747 -0.0266288 -1.92666e-11)
(1.20568 -0.0267914 -1.88507e-11)
(1.20391 -0.0269277 0)
(1.20215 -0.02704 0)
(1.20039 -0.0271304 7.31941e-28)
(1.19865 -0.0272008 0)
(1.19692 -0.0272531 0)
(1.19521 -0.0272891 -1.64617e-11)
(1.1935 -0.0273106 -3.21649e-11)
(1.19181 -0.0273192 -1.57088e-11)
(1.19014 -0.0273163 1.32561e-27)
(1.18847 -0.0273035 -6.21771e-28)
(1.18682 -0.027282 0)
(1.18518 -0.0272533 5.92395e-28)
(1.18355 -0.0272185 0)
(1.18194 -0.0271787 -5.63954e-28)
(1.18034 -0.027135 1.32514e-11)
(1.17875 -0.0270885 1.29227e-11)
(1.17717 -0.02704 0)
(1.17561 -0.0269905 0)
(1.17405 -0.0269408 1.19688e-11)
(1.17251 -0.0268916 2.33227e-11)
(1.17098 -0.0268436 2.2718e-11)
(1.16946 -0.0267976 1.10617e-11)
(1.16794 -0.0267541 1.07694e-11)
(1.16644 -0.0267137 2.09637e-11)
(1.16495 -0.0266769 1.01991e-11)
(1.16347 -0.0266442 0)
(1.24026 -0.0107114 2.79101e-11)
(1.23895 -0.0119396 2.75099e-11)
(1.23759 -0.0130852 0)
(1.2362 -0.0141516 0)
(1.23477 -0.0151423 1.08992e-27)
(1.23331 -0.0160606 -1.07201e-27)
(1.23183 -0.01691 2.5389e-11)
(1.23032 -0.0176938 2.49496e-11)
(1.22879 -0.0184153 -2.45075e-11)
(1.22725 -0.0190778 -2.40638e-11)
(1.22569 -0.0196843 -5.66764e-28)
(1.22412 -0.0202379 0)
(1.22253 -0.0207417 0)
(1.22095 -0.0211985 0)
(1.21935 -0.0216113 9.0689e-28)
(1.21775 -0.0219827 0)
(1.21615 -0.0223153 0)
(1.21455 -0.0226118 0)
(1.21295 -0.0228746 0)
(1.21135 -0.023106 -8.17227e-28)
(1.20976 -0.0233084 1.92666e-11)
(1.20817 -0.023484 1.88507e-11)
(1.20658 -0.0236347 0)
(1.205 -0.0237627 0)
(1.20342 -0.0238698 -7.31941e-28)
(1.20185 -0.0239578 0)
(1.20029 -0.0240286 0)
(1.19873 -0.0240837 1.64617e-11)
(1.19719 -0.0241247 3.21649e-11)
(1.19565 -0.0241532 1.57088e-11)
(1.19412 -0.0241706 -1.32561e-27)
(1.19259 -0.0241781 6.21771e-28)
(1.19108 -0.0241771 0)
(1.18957 -0.0241688 -5.92395e-28)
(1.18808 -0.0241543 0)
(1.18659 -0.0241346 5.63954e-28)
(1.18511 -0.0241109 -1.32514e-11)
(1.18364 -0.0240839 -1.29227e-11)
(1.18217 -0.0240547 0)
(1.18072 -0.0240241 0)
(1.17927 -0.0239927 -1.19688e-11)
(1.17783 -0.0239614 -2.33227e-11)
(1.1764 -0.0239309 -2.2718e-11)
(1.17498 -0.0239017 -1.10617e-11)
(1.17356 -0.0238745 -1.07694e-11)
(1.17215 -0.0238497 -2.09637e-11)
(1.17074 -0.0238279 -1.01991e-11)
(1.16935 -0.0238095 0)
(1.23617 -0.00845612 0)
(1.23511 -0.00958944 0)
(1.23401 -0.0106492 -1.06815e-27)
(1.23286 -0.0116384 0)
(1.23167 -0.0125597 1.04132e-27)
(1.23045 -0.0134162 -7.4154e-28)
(1.22919 -0.0142106 -2.71266e-28)
(1.22791 -0.014946 0)
(1.2266 -0.015625 0)
(1.22527 -0.0162506 4.00419e-28)
(1.22392 -0.0168253 0)
(1.22256 -0.017352 -3.87544e-28)
(1.22118 -0.0178332 0)
(1.21978 -0.0182716 1.88382e-27)
(1.21838 -0.0186696 -8.89037e-28)
(1.21697 -0.0190296 0)
(1.21555 -0.019354 8.57067e-28)
(1.21412 -0.0196451 0)
(1.21269 -0.019905 0)
(1.21126 -0.020136 0)
(1.20983 -0.02034 -1.65145e-27)
(1.20839 -0.020519 0)
(1.20696 -0.020675 1.58595e-27)
(1.20553 -0.0208096 0)
(1.2041 -0.0209247 -7.30838e-28)
(1.20267 -0.0210218 0)
(1.20125 -0.0211027 0)
(1.19983 -0.0211687 1.42645e-27)
(1.19841 -0.0212215 -6.70354e-28)
(1.197 -0.0212622 0)
(1.1956 -0.0212922 1.3344e-27)
(1.1942 -0.0213128 -6.26625e-28)
(1.1928 -0.021325 0)
(1.19141 -0.0213302 5.98327e-28)
(1.19003 -0.0213292 0)
(1.18865 -0.021323 0)
(1.18728 -0.0213127 0)
(1.18591 -0.021299 0)
(1.18455 -0.0212829 -5.3072e-28)
(1.18319 -0.021265 0)
(1.18184 -0.0212462 5.04951e-28)
(1.18049 -0.021227 0)
(1.17915 -0.0212081 -9.9899e-28)
(1.17782 -0.0211902 0)
(1.17649 -0.0211737 0)
(1.17516 -0.0211592 4.43675e-28)
(1.17384 -0.0211471 -8.99155e-28)
(1.17252 -0.0211378 0)
(1.23167 -0.00664547 0)
(1.23081 -0.00767616 0)
(1.2299 -0.00864211 1.06815e-27)
(1.22895 -0.00954567 0)
(1.22795 -0.0103892 -1.04132e-27)
(1.22691 -0.0111753 0)
(1.22584 -0.0119061 1.01281e-27)
(1.22473 -0.0125843 0)
(1.22359 -0.0132122 0)
(1.22243 -0.0137922 -4.00419e-28)
(1.22125 -0.0143266 0)
(1.22004 -0.0148178 3.87544e-28)
(1.21882 -0.0152681 0)
(1.21758 -0.0156796 -1.88382e-27)
(1.21632 -0.0160547 8.89037e-28)
(1.21506 -0.0163954 0)
(1.21378 -0.0167037 -8.57067e-28)
(1.21249 -0.0169817 0)
(1.2112 -0.0172314 0)
(1.2099 -0.0174546 0)
(1.20859 -0.0176531 1.65145e-27)
(1.20729 -0.0178286 0)
(1.20597 -0.017983 -1.58595e-27)
(1.20466 -0.0181177 0)
(1.20335 -0.0182343 7.30838e-28)
(1.20204 -0.0183344 0)
(1.20072 -0.0184193 0)
(1.19941 -0.0184905 -1.42645e-27)
(1.1981 -0.0185491 6.70354e-28)
(1.19679 -0.0185965 0)
(1.19549 -0.0186339 -1.3344e-27)
(1.19419 -0.0186623 6.26625e-28)
(1.19289 -0.0186828 0)
(1.19159 -0.0186964 -5.98327e-28)
(1.1903 -0.0187041 0)
(1.18901 -0.0187068 0)
(1.18773 -0.0187053 0)
(1.18644 -0.0187005 0)
(1.18517 -0.0186931 5.3072e-28)
(1.18389 -0.0186838 0)
(1.18262 -0.0186733 -5.04951e-28)
(1.18136 -0.0186622 0)
(1.18009 -0.018651 9.9899e-28)
(1.17883 -0.0186405 0)
(1.17758 -0.0186309 0)
(1.17632 -0.0186229 -4.43675e-28)
(1.17507 -0.0186169 8.99155e-28)
(1.17382 -0.0186131 0)
(1.22721 -0.00518358 0)
(1.22651 -0.00610561 2.14407e-27)
(1.22575 -0.0069714 0)
(1.22495 -0.00778284 -2.10412e-27)
(1.2241 -0.00854192 0)
(1.22321 -0.00925063 -2.3582e-27)
(1.22228 -0.00991098 4.39334e-27)
(1.22131 -0.010525 -2.32628e-11)
(1.22031 -0.0110947 -2.2964e-11)
(1.21928 -0.0116222 -3.89152e-28)
(1.21822 -0.0121094 -2.23413e-11)
(1.21714 -0.0125583 -2.20194e-11)