/*--------------------------------*- C++ -*----------------------------------*\
  =========                 |
  \\      /  F ield         | OpenFOAM: The Open Source CFD Toolbox
   \\    /   O peration     | Website:  https://openfoam.org
    \\  /    A nd           | Version:  7
     \\/     M anipulation  |
\*---------------------------------------------------------------------------*/
FoamFile
{
    version     2.0;
    format      ascii;
    class       surfaceScalarField;
    location    "35.001";
    object      phi;
}
// * * * * * * * * * * * * * * * * * * * * * * * * * * * * * * * * * * * * * //

dimensions      [0 3 -1 0 0 0 0];

internalField   nonuniform List<scalar> 
22553
(
-0.000290301
5.28023e-05
-0.000345371
5.50644e-05
-0.000402383
5.70073e-05
-0.000461054
5.8668e-05
-0.000521098
6.0043e-05
-0.000582208
6.11107e-05
-0.000644062
6.18589e-05
-0.000706375
6.23212e-05
-0.000768986
6.26243e-05
-0.000832005
6.30377e-05
-0.00089594
6.39616e-05
-0.000961842
6.59345e-05
7.00252e-05
-0.00103182
-8.60628e-06
1.73724e-05
-2.9363e-05
4.18678e-05
-5.92769e-05
6.03258e-05
-9.60811e-05
7.42274e-05
-0.000138093
8.47577e-05
-0.000184095
9.28621e-05
-0.000233228
9.92573e-05
-0.000284886
0.000104461
-0.000338636
0.000108814
-0.000394136
0.000112507
-0.000451082
0.000115615
-0.000509165
0.000118125
-0.000568041
0.000119987
-0.000627342
0.00012116
-0.000686704
0.000121683
-0.000745849
0.00012177
-0.000804732
0.00012192
-0.000863704
0.000122934
-0.00092364
0.00012587
0.000132924
-0.000986538
-8.2886e-06
2.5661e-05
-2.83389e-05
6.19181e-05
-5.72576e-05
8.92444e-05
-9.28232e-05
0.000109793
-0.000133363
0.000125298
-0.00017765
0.000137149
-0.000224797
0.000146404
-0.000274164
0.000153828
-0.000325277
0.000159927
-0.000377756
0.000164986
-0.000431251
0.00016911
-0.000485402
0.000172276
-0.000539803
0.000174388
-0.000593991
0.000175348
-0.00064746
0.000175152
-0.000699711
0.000174021
-0.000750392
0.000172601
-0.000799535
0.000172076
-0.000847661
0.000173997
0.000181627
-0.000896364
-7.83031e-06
3.34913e-05
-2.6855e-05
8.09428e-05
-5.43206e-05
0.00011671
-8.80688e-05
0.000143541
-0.00012644
0.00016367
-0.000168189
0.000178897
-0.000212386
0.000190601
-0.000258341
0.000199783
-0.000305519
0.000207105
-0.000353471
0.000212939
-0.000401782
0.000217421
-0.000450013
0.000220507
-0.000497666
0.000222041
-0.000544153
0.000221835
-0.000588778
0.000219777
-0.000630749
0.000215992
-0.000669265
0.000211118
-0.000703868
0.000206679
-0.000734583
0.000204713
0.000208951
-0.000761908
-7.25233e-06
4.07437e-05
-2.49713e-05
9.86617e-05
-5.05721e-05
0.000142311
-8.19708e-05
0.00017494
-0.000117522
0.00019922
-0.00015595
0.000217325
-0.000196273
0.000230924
-0.000237725
0.000241235
-0.000279687
0.000249066
-0.000321616
0.000254868
-0.000362997
0.000258801
-0.000403285
0.000260794
-0.00044186
0.000260617
-0.000477982
0.000257957
-0.000510741
0.000252536
-0.000539015
0.000244266
-0.000561458
0.000233561
-0.000576928
0.000222148
-0.000584968
0.000212753
0.00020758
-0.000583597
-6.58094e-06
4.73246e-05
-2.27635e-05
0.000114844
-4.61464e-05
0.000165694
-7.47238e-05
0.000203517
-0.000106859
0.000231356
-0.000141239
0.000251705
-0.00017681
0.000266495
-0.000212709
0.000277134
-0.000248201
0.000284558
-0.000282618
0.000289286
-0.000315307
0.00029149
-0.000345574
0.000291062
-0.000372643
0.000287685
-0.000395588
0.000280902
-0.000413271
0.000270219
-0.000424251
0.000255246
-0.000426601
0.000235911
-0.000418153
0.000213701
-0.000398596
0.000193196
0.00017041
-0.000361426
-5.84647e-06
5.31711e-05
-2.03195e-05
0.000129317
-4.11996e-05
0.000186574
-6.65544e-05
0.000228872
-9.47481e-05
0.00025955
-0.000124415
0.000281372
-0.00015441
0.00029649
-0.000183749
0.000306473
-0.00021155
0.000312358
-0.000236974
0.000314711
-0.000259182
0.000313697
-0.000277278
0.000309159
-0.000290268
0.000300675
-0.000296995
0.000287629
-0.000296058
0.000269282
-0.000285726
0.000244913
-0.000263664
0.000213849
-0.000225816
0.000175853
-0.000172631
0.00014001
9.47749e-05
-9.69954e-05
-5.08169e-06
5.82528e-05
-1.7734e-05
0.00014197
-3.59011e-05
0.000204741
-5.77092e-05
0.00025068
-8.1509e-05
0.000283349
-0.000105866
0.00030573
-0.000129523
0.000320146
-0.000151342
0.000328292
-0.000170254
0.000331271
-0.000185204
0.000329661
-0.000195102
0.000323595
-0.000198774
0.000312831
-0.000194925
0.000296826
-0.000182079
0.000274783
-0.000158498
0.000245701
-0.000122111
0.000208526
-7.05252e-05
0.000162264
-7.04805e-07
0.000106032
9.66706e-05
4.26351e-05
-2.89911e-05
0.000220437
-4.31992e-06
6.25727e-05
-1.51038e-05
0.000152753
-3.04237e-05
0.000220061
-4.84396e-05
0.000268696
-6.74683e-05
0.000302378
-8.59857e-05
0.000324247
-0.000102593
0.000336754
-0.000115967
0.000341666
-0.000124806
0.00034011
-0.000127776
0.00033263
-0.000123459
0.000319278
-0.000110313
0.000299685
-8.66247e-05
0.000273137
-5.04721e-05
0.000238631
3.21459e-07
0.000194907
6.83782e-05
0.000140469
0.000156419
7.42224e-05
0.000270342
-7.89045e-06
0.000409374
-9.63965e-05
-0.000214707
0.00059509
-3.59298e-06
6.61657e-05
-1.25208e-05
0.000161681
-2.49313e-05
0.000232471
-3.89828e-05
0.000282748
-5.29305e-05
0.000316326
-6.51324e-05
0.000336449
-7.40167e-05
0.000345638
-7.80309e-05
0.00034568
-7.55843e-05
0.000337663
-6.49914e-05
0.000322037
-4.44203e-05
0.000298707
-1.18431e-05
0.000267108
3.50047e-05
0.00022629
9.86562e-05
0.000174979
0.000181945
0.000111618
0.000288105
3.43096e-05
0.000419994
-5.76673e-05
0.000584732
-0.000172628
0.000778655
-0.00029032
-0.000469039
0.00103299
-2.92898e-06
6.90947e-05
-1.00655e-05
0.000168818
-1.95656e-05
0.000241971
-2.95404e-05
0.000292723
-3.81466e-05
0.000324932
-4.35879e-05
0.00034189
-4.40767e-05
0.000346127
-3.77764e-05
0.00033938
-2.27384e-05
0.000322625
3.1605e-06
0.000296139
4.22765e-05
0.000259591
9.72444e-05
0.00021214
0.00017102
0.000152514
0.000266897
7.91014e-05
0.000388474
-9.95822e-06
0.000539916
-0.000117133
0.000724076
-0.000241827
0.000949833
-0.000398385
0.00120895
-0.000549441
-0.000801189
0.0015411
-2.35004e-06
7.14447e-05
-7.79939e-06
0.000174267
-1.44315e-05
0.000248604
-2.0254e-05
0.000298545
-2.32778e-05
0.000327956
-2.15038e-05
0.000340116
-1.2871e-05
0.000337494
4.81192e-06
0.000321697
3.39407e-05
0.000293496
7.71822e-05
0.000252897
0.000137534
0.000199239
0.000218372
0.000131302
0.000323467
4.742e-05
0.00045698
-5.4412e-05
0.000623316
-0.000176294
0.000827516
-0.000321334
0.00107258
-0.000486892
0.0013684
-0.000694205
0.00170239
-0.000883428
-0.00121815
0.00211934
-1.87003e-06
7.33147e-05
-5.75767e-06
0.000178155
-9.58253e-06
0.000252428
-1.11808e-05
0.000300143
-8.35722e-06
0.000325132
1.15421e-06
0.000330605
1.97644e-05
0.000318884
5.01135e-05
0.000291348
9.51534e-05
0.000248456
0.00015822
0.000189831
0.000243082
0.000114377
0.000353966
2.04182e-05
0.000495522
-9.41367e-05
0.00067276
-0.00023165
0.000890772
-0.000394306
0.00115487
-0.000585428
0.0014684
-0.000800425
0.00183999
-0.0010658
0.00225467
-0.0012981
-0.00171941
0.00275593
-1.49261e-06
7.48073e-05
-3.94271e-06
0.000180605
-5.00684e-06
0.000253493
-2.26733e-06
0.000297404
6.74587e-06
0.000316119
2.4657e-05
0.000312694
5.43264e-05
0.000289214
9.89594e-05
0.000246715
0.000162196
0.00018522
0.000248172
0.000103854
0.000361534
1.01566e-06
0.000507407
-0.000125455
0.000691244
-0.000277974
0.000918622
-0.000459028
0.00119491
-0.000670597
0.0015245
-0.000915009
0.00191081
-0.00118674
0.00235784
-0.00151283
0.00285156
-0.00179182
-0.00229161
0.00342376
-1.20977e-06
7.60171e-05
-2.31848e-06
0.000181714
-6.06938e-07
0.000251781
6.65838e-06
0.000290138
2.23543e-05
0.000300423
4.95554e-05
0.000285493
9.16962e-05
0.000247073
0.000152687
0.000185724
0.000236993
0.000100913
0.000349655
-8.80778e-06
0.000496235
-0.000145564
0.000682622
-0.000311842
0.000914746
-0.000510097
0.00119808
-0.00074236
0.00153732
-0.00100984
0.00193448
-0.00131217
0.00239164
-0.00164389
0.002905
-0.00202619
0.0034654
-0.00235223
-0.00290654
0.00408033
-1.00123e-06
7.70183e-05
-8.0336e-07
0.000181516
3.75859e-06
0.000247219
1.59134e-05
0.000277984
3.90028e-05
0.000277334
7.6696e-05
0.000247799
0.00013315
0.00019062
0.000213122
0.000105752
0.000322012
-7.97691e-06
0.00046579
-0.000152585
0.000650767
-0.000330541
0.000883208
-0.000544283
0.00116875
-0.000795643
0.00151164
-0.00108524
0.00191423
-0.00141243
0.00237497
-0.00177292
0.002892
-0.00216092
0.00345243
-0.00258662
0.00405481
-0.0029546
-0.00352564
0.00467391
-8.3561e-07
7.78539e-05
7.01914e-07
0.000179978
8.36471e-06
0.000239556
2.59516e-05
0.000260397
5.74285e-05
0.000245857
0.000107205
0.000198023
0.000180308
0.000117517
0.000282458
3.60192e-06
0.000420012
-0.000145531
0.000599694
-0.000332267
0.000828124
-0.000558972
0.0011111
-0.000827262
0.00145272
-0.00113726
0.00185442
-0.00148695
0.00231419
-0.00187219
0.00282606
-0.00228478
0.00338182
-0.00271669
0.0039616
-0.0031664
0.00457084
-0.00356385
-0.00410986
0.00515506
-6.71756e-07
7.85257e-05
2.34254e-06
0.000176964
1.35276e-05
0.000228371
3.73448e-05
0.00023658
7.85417e-05
0.00020466
0.000142423
0.000134142
0.000235009
2.49306e-05
0.000363019
-0.000124408
0.000533596
-0.000316107
0.000753763
-0.000552435
0.00102957
-0.000834782
0.00136504
-0.00116273
0.00176101
-0.00153323
0.00221442
-0.00194036
0.00271734
-0.00237512
0.00325894
-0.00282638
0.00382425
-0.00328199
0.00439201
-0.00373416
0.00496973
-0.00414157
-0.00462925
0.00548912
-4.60017e-07
7.89857e-05
4.32532e-06
0.000172179
1.96307e-05
0.000213066
5.07528e-05
0.000205458
0.000103364
0.000152049
0.000183795
5.37116e-05
0.00029911
-9.03845e-05
0.000456885
-0.000282184
0.000664617
-0.000523839
0.000928751
-0.000816569
0.00125342
-0.00115945
0.00163916
-0.00154846
0.00208185
-0.00197592
0.00257255
-0.00243106
0.00309739
-0.00289996
0.0036411
-0.00337009
0.00418458
-0.00382547
0.00471152
-0.0042611
0.00522605
-0.00465611
-0.00506898
0.00566578
-9.35645e-08
7.90793e-05
6.84163e-06
0.000165243
2.7084e-05
0.000192823
6.68743e-05
0.000165667
0.000132939
8.59841e-05
0.000232706
-4.60551e-05
0.000374192
-0.000231871
0.000565444
-0.000473436
0.000813483
-0.000771878
0.00112285
-0.00112594
0.00149408
-0.00153068
0.00192248
-0.00197687
0.00239783
-0.00245127
0.0029052
-0.00293843
0.00342654
-0.0034213
0.00394416
-0.00388772
0.00444019
-0.00432149
0.00490562
-0.00472653
0.00533692
-0.0050874
-0.00543562
0.00570356
4.16907e-07
7.86624e-05
1.00832e-05
0.000155577
3.62974e-05
0.000166609
8.63868e-05
0.000115578
0.000168223
4.14811e-06
0.000290292
-0.000168124
0.000461256
-0.000402835
0.000688898
-0.000701078
0.000978511
-0.00106149
0.00133107
-0.0014785
0.00174177
-0.00194138
0.00219961
-0.00243471
0.00268838
-0.00294004
0.00318885
-0.0034389
0.00368194
-0.00391439
0.00415121
-0.00435699
0.00458542
-0.0047557
0.00498172
-0.00512284
0.00533207
-0.00543775
-0.00575
0.00564645
1.15325e-06
7.75091e-05
1.42388e-05
0.000142492
4.76475e-05
0.0001332
0.000109882
5.3343e-05
0.000209969
-9.59389e-05
0.000357239
-0.000315393
0.000560397
-0.000605993
0.000825834
-0.000966515
0.0011555
-0.00139116
0.00154509
-0.00186808
0.00198332
-0.00237961
0.00245302
-0.00290441
0.00293377
-0.0034208
0.00340536
-0.00391048
0.0038513
-0.00436034
0.0042603
-0.00476598
0.00462931
-0.00512471
0.00495764
-0.00545117
0.0052534
-0.00573351
-0.00602397
0.00552738
2.17386e-06
7.53353e-05
1.94726e-05
0.000125193
6.14483e-05
9.12247e-05
0.000137809
-2.30178e-05
0.000258614
-0.000216744
0.000433593
-0.000490372
0.000670539
-0.000842939
0.000972955
-0.00126893
0.00133773
-0.00175594
0.001754
-0.00228435
0.00220405
-0.00282966
0.0026663
-0.00336666
0.00311937
-0.00387386
0.00354579
-0.00433691
0.0039347
-0.00474924
0.00428199
-0.00511327
0.00459054
-0.00543326
0.00486555
-0.00572618
0.00511792
-0.00598588
-0.00625905
0.005353
3.51517e-06
7.18201e-05
2.59124e-05
0.000102796
7.7925e-05
3.92121e-05
0.000170415
-0.000115508
0.000314181
-0.00036051
0.000518611
-0.000694802
0.00078927
-0.0011136
0.00112508
-0.00160474
0.00151644
-0.0021473
0.00194573
-0.00271363
0.00239037
-0.0032743
0.00282748
-0.00380378
0.00323835
-0.00428474
0.00361122
-0.00470977
0.00394213
-0.00508016
0.00423338
-0.00540452
0.00449234
-0.00569222
0.00472669
-0.00596054
0.00494669
-0.00620588
-0.00647035
0.00515799
5.20606e-06
6.6614e-05
3.36438e-05
7.43579e-05
9.71966e-05
-2.43407e-05
0.00020771
-0.000226021
0.000376207
-0.000529006
0.000610663
-0.000929258
0.000912831
-0.00141577
0.00127547
-0.00196738
0.00168194
-0.00255377
0.00210905
-0.00314074
0.00253226
-0.00369751
0.00293097
-0.00420248
0.00329197
-0.00464574
0.0036104
-0.0050282
0.00388858
-0.00535833
0.00413325
-0.00564919
0.00435375
-0.00591272
0.00455789
-0.00616467
0.00475491
-0.0064029
-0.00666346
0.00494802
7.26603e-06
5.9348e-05
4.27103e-05
3.89136e-05
0.000119264
-0.000100894
0.000249435
-0.000356192
0.000443686
-0.000723258
0.000707214
-0.00119279
0.00103631
-0.00174486
0.00141658
-0.00234765
0.00182502
-0.00296221
0.00223545
-0.00355117
0.00262481
-0.00408688
0.00297765
-0.00455531
0.00328754
-0.00495563
0.00355596
-0.00529662
0.00378967
-0.00559204
0.00399758
-0.0058571
0.004189
-0.00610414
0.00437073
-0.00634641
0.00455013
-0.0065823
-0.00684153
0.0047282
9.7057e-06
4.96423e-05
5.31113e-05
-4.49195e-06
0.000144001
-0.000191785
0.000295037
-0.000507228
0.000515059
-0.00094328
0.00080491
-0.00148264
0.00115405
-0.002094
0.00154099
-0.00273459
0.00193839
-0.0033596
0.00232033
-0.00393312
0.00266824
-0.00443478
0.00297326
-0.00486034
0.00323545
-0.00521782
0.00346096
-0.00552213
0.00365889
-0.00578997
0.00383843
-0.00603664
0.00400773
-0.00627344
0.00417206
-0.00651075
0.00433691
-0.00674715
-0.0070066
0.00450198
1.25275e-05
3.71148e-05
6.48006e-05
-5.67651e-05
0.000171148
-0.000298132
0.000343658
-0.000679737
0.00058823
-0.00118785
0.000899796
-0.0017942
0.00126034
-0.00245454
0.00164253
-0.00311678
0.00201764
-0.00373471
0.00236316
-0.00427863
0.00266675
-0.00473838
0.00292619
-0.00511978
0.00314659
-0.00543822
0.00333685
-0.00571239
0.00350659
-0.00595971
0.00366414
-0.00619419
0.00381598
-0.00642528
0.00396591
-0.00666068
0.00411788
-0.00689912
-0.00715937
0.00427065
1.57257e-05
2.13891e-05
7.76844e-05
-0.000118724
0.0002003
-0.000420748
0.000394133
-0.00087357
0.000660659
-0.00145438
0.00098767
-0.00212121
0.00135003
-0.0028169
0.00171697
-0.00348372
0.00206151
-0.00407925
0.0023667
-0.00458382
0.00262691
-0.00499859
0.00284545
-0.00533832
0.00303073
-0.0056235
0.00319263
-0.00587429
0.00334013
-0.00610721
0.00348011
-0.00633416
0.0036174
-0.00656257
0.00375458
-0.00679786
0.00389439
-0.00703892
-0.00730014
0.00403515
1.92848e-05
2.1043e-06
9.16156e-05
-0.000191055
0.000230903
-0.000560036
0.000445011
-0.00108768
0.000729523
-0.00173889
0.00106453
-0.00245622
0.00141927
-0.00317164
0.00176245
-0.00382691
0.00207143
-0.00438823
0.00233581
-0.0048482
0.00255601
-0.0052188
0.00273933
-0.00552164
0.00289576
-0.00577992
0.0030349
-0.00601344
0.00316445
-0.00623676
0.00328972
-0.00645943
0.00341414
-0.006687
0.00353938
-0.00692309
0.00366731
-0.00716686
-0.00742893
0.00379611
2.31779e-05
-2.10736e-05
0.00010639
-0.000274266
0.000262253
-0.000715899
0.000494616
-0.00132004
0.000791958
-0.00203623
0.00112703
-0.0027913
0.00146578
-0.00351039
0.00177926
-0.00414038
0.00205074
-0.00465971
0.00227628
-0.00507374
0.00246108
-0.0054036
0.00261479
-0.00567535
0.00274765
-0.00591278
0.00286824
-0.00613403
0.00298273
-0.00635125
0.00309503
-0.00657173
0.00320749
-0.00679945
0.00332113
-0.00703674
0.00343722
-0.00728295
-0.0075457
0.00355399
2.73657e-05
-4.84393e-05
0.00012174
-0.000368641
0.000293506
-0.000887665
0.000541143
-0.00156768
0.000845338
-0.00234043
0.00117281
-0.00311877
0.00148896
-0.00382654
0.00176937
-0.00442079
0.00200381
-0.00489415
0.00219392
-0.00526385
0.0023482
-0.00555788
0.00247727
-0.00580442
0.00259071
-0.00602622
0.00269572
-0.00623904
0.002797
-0.00645253
0.00289733
-0.00667206
0.00299825
-0.00690037
0.00310039
-0.00713888
0.00320459
-0.00738716
-0.00765034
0.00330923
3.17919e-05
-8.02313e-05
0.000137341
-0.00047419
0.000323716
-0.00107404
0.000582802
-0.00182676
0.00088753
-0.00264515
0.00120064
-0.00343188
0.00148959
-0.00411549
0.00173582
-0.00466701
0.0019353
-0.00509363
0.00209401
-0.00542257
0.00222236
-0.00568622
0.00233087
-0.00591293
0.00242796
-0.00612331
0.00251937
-0.00633045
0.00260856
-0.00654172
0.00269743
-0.00676092
0.00278698
-0.00698992
0.00287759
-0.00722949
0.00296981
-0.00747937
-0.00774274
0.00306222
3.63838e-05
-0.000116615
0.000152808
-0.000590614
0.000351877
-0.00127311
0.000617967
-0.00209285
0.000917077
-0.00294426
0.00121042
-0.00372522
0.00146953
-0.0043746
0.00168216
-0.00487964
0.00184966
-0.00526114
0.00198104
-0.00555395
0.00208742
-0.0057926
0.00217854
-0.00600405
0.00226144
-0.00620622
0.00234053
-0.00640953
0.00241825
-0.00661944
0.0024959
-0.00683857
0.00257412
-0.00706813
0.00265313
-0.00730851
0.00273328
-0.00755952
-0.00782282
0.00281335
4.10527e-05
-0.000157668
0.000167717
-0.000717278
0.000376995
-0.00148239
0.000645315
-0.00236118
0.000933266
-0.00323222
0.00120292
-0.00399488
0.00143123
-0.0046029
0.001612
-0.00506042
0.00175088
-0.00540001
0.00185866
-0.00566173
0.00194629
-0.00588023
0.00202237
-0.00608013
0.00209255
-0.00627639
0.00216007
-0.00647706
0.00222667
-0.00668604
0.00229319
-0.00690509
0.00236004
-0.00713499
0.00242738
-0.00737585
0.00249536
-0.0076275
-0.00789047
0.00256302
4.56958e-05
-0.000203364
0.000181624
-0.000853206
0.000398159
-0.00169892
0.000663931
-0.00262695
0.00093609
-0.00350437
0.00117961
-0.0042384
0.00137741
-0.00480071
0.00152874
-0.00521174
0.00164231
-0.00551359
0.0017297
-0.00574912
0.00180113
-0.00595166
0.00186384
-0.00614284
0.00192223
-0.00633477
0.00197864
-0.00653348
0.00203426
-0.00674166
0.00208966
-0.00696049
0.0021451
-0.00719043
0.00220068
-0.00743143
0.00225645
-0.00768327
-0.00794564
0.00231161
5.01998e-05
-0.000253563
0.000194083
-0.00099709
0.000414608
-0.00191945
0.000673339
-0.00288568
0.000926125
-0.00375716
0.00114232
-0.00445459
0.00131083
-0.00496921
0.00143537
-0.00533629
0.00152671
-0.00560492
0.00159637
-0.00581879
0.00165349
-0.00600878
0.00170398
-0.00619332
0.00175115
-0.00638195
0.0017967
-0.00657902
0.0018414
-0.00678636
0.00188565
-0.00700474
0.00192963
-0.00723441
0.00197339
-0.00747519
0.00201689
-0.00772677
-0.00798827
0.00205951
5.44451e-05
-0.000308008
0.000204681
-0.00114733
0.000425782
-0.00214055
0.000673493
-0.00313339
0.00090438
-0.00398805
0.00109307
-0.00464328
0.00123403
-0.00511018
0.00133449
-0.00543675
0.00140626
-0.00567669
0.0014603
-0.00587283
0.00150448
-0.00605296
0.00154351
-0.00623235
0.00157983
-0.00641827
0.00161462
-0.0066138
0.00164841
-0.00682015
0.00168148
-0.00703781
0.00171395
-0.00726688
0.00174585
-0.00750708
0.00177706
-0.00775799
-0.00801833
0.00180712
5.83118e-05
-0.00036632
0.000213055
-0.00130207
0.000431349
-0.00235884
0.000664713
-0.00336675
0.000872137
-0.00419547
0.00103389
-0.00480503
0.00114934
-0.00522563
0.00122822
-0.00551563
0.00128266
-0.00573113
0.00132271
-0.00591288
0.00135493
-0.00608518
0.00138298
-0.0062604
0.00140865
-0.00644394
0.00143274
-0.00663789
0.00145561
-0.00684303
0.00147747
-0.00705967
0.00149841
-0.00728781
0.00151841
-0.00752708
0.00153734
-0.00777692
-0.00803583
0.00155484
6.16847e-05
-0.000428005
0.000218919
-0.0014593
0.00043121
-0.00257113
0.000647605
-0.00358315
0.00083081
-0.00437868
0.000966697
-0.00494092
0.00105873
-0.00531766
0.00111828
-0.00557518
0.00115724
-0.00577009
0.00118449
-0.00594013
0.00120543
-0.00610612
0.00122282
-0.0062778
0.00123794
-0.00645906
0.00125135
-0.00665129
0.00126329
-0.00685497
0.00127392
-0.0070703
0.0012833
-0.00729719
0.00129142
-0.0075352
0.00129809
-0.00778359
-0.00804082
0.00130308
6.44594e-05
-0.000492464
0.000222075
-0.00161692
0.000425472
-0.00277453
0.000622967
-0.00378064
0.000781844
-0.00453755
0.000893246
-0.00505232
0.000963899
-0.00538832
0.00100607
-0.00561735
0.00103098
-0.005795
0.00104633
-0.00595548
0.00105644
-0.00611622
0.00106336
-0.00628473
0.001068
-0.0064637
0.00107073
-0.00665402
0.00107173
-0.00685598
0.00107112
-0.00706969
0.00106895
-0.00729502
0.00106519
-0.00753144
0.00105968
-0.00777808
-0.00803341
0.00105226
6.65461e-05
-0.00055901
0.00022242
-0.00177279
0.000414416
-0.00296652
0.000591711
-0.00395794
0.000726634
-0.00467248
0.000815077
-0.00514076
0.000866232
-0.00543947
0.000892654
-0.00564377
0.000904654
-0.005807
0.000908748
-0.00595957
0.000908323
-0.0061158
0.000904899
-0.0062813
0.000899089
-0.00645789
0.000891151
-0.00664608
0.000881212
-0.00684604
0.000869356
-0.00705784
0.000855624
-0.00728129
0.000840013
-0.00751583
0.000822392
-0.00776045
-0.00801361
0.000802591
6.78738e-05
-0.000626884
0.000219942
-0.00192486
0.000398457
-0.00314504
0.000554793
-0.00411427
0.000666473
-0.00478416
0.000733521
-0.00520781
0.000766867
-0.00547282
0.000778888
-0.00565579
0.00077884
-0.00580695
0.000772133
-0.00595287
0.000761385
-0.00610505
0.000747691
-0.00626761
0.000731465
-0.00644167
0.000712879
-0.0066275
0.000692016
-0.00682517
0.000668926
-0.00703475
0.000643631
-0.00725599
0.00061614
-0.00748834
0.000586394
-0.00773071
-0.00798153
0.000554316
6.83924e-05
-0.000695277
0.000214713
-0.00207118
0.000378096
-0.00330842
0.00051316
-0.00424934
0.000602531
-0.00487353
0.000649704
-0.00525498
0.000666719
-0.00548983
0.000665432
-0.0056545
0.000653988
-0.00579551
0.00063681
-0.00593569
0.000615881
-0.00608412
0.000591979
-0.0062437
0.000565374
-0.00641506
0.000536172
-0.0065983
0.000504422
-0.00679342
0.000470146
-0.00700047
0.00043334
-0.00721918
0.000393966
-0.00744896
0.000351862
-0.0076886
-0.00793705
0.000307379
6.80733e-05
-0.00076335
0.000206874
-0.00220998
0.000353882
-0.00345543
0.000467717
-0.00436317
0.000535837
-0.00494165
0.000564563
-0.00528371
0.000566518
-0.00549179
0.000552799
-0.00564078
0.000530454
-0.00577317
0.000503042
-0.00590827
0.00047204
-0.00605312
0.000437986
-0.00620965
0.000401052
-0.00637813
0.000361284
-0.00655853
0.000318699
-0.00675084
0.000273302
-0.00695507
0.000225136
-0.00717102
0.000174063
-0.00739789
0.000119767
-0.00763431
-0.00787798
6.07055e-05
6.69095e-05
-0.000830259
0.00019662
-0.00233969
0.000326381
-0.00358519
0.000419298
-0.00445609
0.000467283
-0.00498963
0.000478874
-0.0052953
0.000466845
-0.00547976
0.000441392
-0.00561533
0.000408522
-0.0057403
0.000371054
-0.00587081
0.000330073
-0.00601214
0.00028593
-0.00616551
0.00023872
-0.00633092
0.000188464
-0.00650827
0.000135102
-0.00669748
7.86336e-05
-0.0068986
1.90227e-05
-0.00711141
-4.34025e-05
-0.00733546
-0.000109281
-0.00756843
-0.00780752
-0.000179745
6.49135e-05
-0.000895173
0.000184185
-0.00245896
0.000296153
-0.00369716
0.000368661
-0.0045286
0.000397631
-0.0050186
0.000393268
-0.00529094
0.000368161
-0.00545465
0.000331529
-0.0055787
0.000288428
-0.0056972
0.000241048
-0.00582343
0.000190167
-0.00596126
0.000136016
-0.00611136
7.85612e-05
-0.00627346
1.78269e-05
-0.00644754
-4.61239e-05
-0.00663353
-0.000113445
-0.00683128
-0.000184072
-0.00704078
-0.000258181
-0.00726136
-0.000336061
-0.00749055
-0.00772621
-0.000417367
6.21166e-05
-0.00095729
0.000169821
-0.00256667
0.000263731
-0.00379107
0.000316475
-0.00458134
0.000327521
-0.00502965
0.000308255
-0.00527167
0.000270829
-0.00541723
0.000223469
-0.00553134
0.000170362
-0.00564409
0.000113202
-0.00576627
5.24438e-05
-0.0059005
-1.17263e-05
-0.00604719
-7.91374e-05
-0.00620605
-0.000150059
-0.00637662
-0.000224602
-0.00655898
-0.000302742
-0.00675314
-0.000384482
-0.00695904
-0.000469937
-0.0071759
-0.000559199
-0.00740129
-0.00763329
-0.000652126
5.85686e-05
-0.00101586
0.000153821
-0.00266192
0.000229617
-0.00386687
0.00026333
-0.00461506
0.000257491
-0.00502381
0.000224249
-0.00523843
0.000175141
-0.00536812
0.000117428
-0.00547363
5.4438e-05
-0.0055811
-1.2489e-05
-0.00569934
-8.27731e-05
-0.00583021
-0.000156619
-0.00597334
-0.00023413
-0.00612854
-0.000315284
-0.00629546
-0.000400232
-0.00647404
-0.000489045
-0.00666433
-0.00058175
-0.00686634
-0.000678372
-0.00707928
-0.000778923
-0.00730074
-0.00752877
-0.000883437
5.43331e-05
-0.00107019
0.000136468
-0.00274406
0.000194274
-0.00392467
0.000209739
-0.00463052
0.000187983
-0.00500205
0.000141577
-0.00519203
8.13212e-05
-0.00530786
1.33817e-05
-0.00540569
-5.9061e-05
-0.00550866
-0.000135343
-0.00562306
-0.000215351
-0.00575021
-0.000298967
-0.00588973
-0.000386332
-0.00604117
-0.000477548
-0.00620425
-0.000572756
-0.00637883
-0.000672078
-0.00656501
-0.000775566
-0.00676285
-0.000883202
-0.00697164
-0.00099493
-0.00718901
-0.00741287
-0.00111084
4.94852e-05
-0.00111968
0.000118028
-0.0028126
0.00015812
-0.00396476
0.00015614
-0.00462854
0.000119361
-0.00496527
6.04963e-05
-0.00513316
-1.05852e-05
-0.00523678
-8.79906e-05
-0.00532828
-0.00016998
-0.00542667
-0.000255745
-0.00553729
-0.000345221
-0.00566073
-0.000438443
-0.0057965
-0.00053553
-0.00594409
-0.000636638
-0.00610314
-0.000741937
-0.00627353
-0.00085159
-0.00645535
-0.000965681
-0.00664876
-0.00108418
-0.00685314
-0.00120694
-0.00706625
-0.00728582
-0.00133399
4.41092e-05
-0.00116379
9.87652e-05
-0.00286725
0.000121536
-0.00398754
0.000102885
-0.00460989
5.19283e-05
-0.00491432
-1.87583e-05
-0.00506247
-9.98734e-05
-0.00515567
-0.000187011
-0.00524114
-0.000278328
-0.00533535
-0.000373397
-0.00544222
-0.000472212
-0.00556191
-0.000574879
-0.00569384
-0.000681536
-0.00583743
-0.000792364
-0.00599231
-0.000907565
-0.00615833
-0.00102734
-0.00633558
-0.00115183
-0.00652427
-0.00128102
-0.00672396
-0.00141463
-0.00693263
-0.00714788
-0.00155257
3.82911e-05
-0.00120208
7.89391e-05
-0.0029079
8.48764e-05
-0.00399347
5.02695e-05
-0.00457528
-1.39905e-05
-0.00485006
-9.58725e-05
-0.00498059
-0.000187009
-0.00506453
-0.000283486
-0.00514467
-0.000383957
-0.00523488
-0.000488164
-0.00533802
-0.000596173
-0.0054539
-0.000708123
-0.00558189
-0.000824179
-0.00572137
-0.000944541
-0.00587195
-0.00106944
-0.00603343
-0.00119911
-0.0062059
-0.00133377
-0.00638961
-0.00147344
-0.00658429
-0.00161772
-0.00678835
-0.0069993
-0.0017663
3.21084e-05
-0.00123419
5.8777e-05
-0.00293457
4.84613e-05
-0.00398316
-3.45287e-07
-0.00452648
-7.81525e-05
-0.00477225
-0.000170953
-0.00488779
-0.000271716
-0.00496377
-0.000377306
-0.00503908
-0.00048675
-0.00512544
-0.00059993
-0.00522484
-0.000716965
-0.00533687
-0.000838025
-0.00546083
-0.000963297
-0.0055961
-0.001093
-0.00574225
-0.00122737
-0.00589905
-0.0013667
-0.00606657
-0.00151127
-0.00624504
-0.00166118
-0.00643438
-0.00181593
-0.0066336
-0.00684038
-0.00197485
2.56659e-05
-0.00125985
3.84613e-05
-0.00294737
1.28409e-05
-0.00395754
-5.18361e-05
-0.0044618
-0.000140855
-0.00468323
-0.000243823
-0.00478483
-0.000353885
-0.0048537
-0.000468372
-0.00492459
-0.000586604
-0.0050072
-0.000708578
-0.00510286
-0.000834458
-0.00521099
-0.000964442
-0.00533084
-0.00109874
-0.00546181
-0.00123757
-0.00560342
-0.00138119
-0.00575543
-0.00152992
-0.00591785
-0.00168413
-0.00609083
-0.00184402
-0.00627448
-0.00200896
-0.00646866
-0.00667161
-0.00217774
1.91352e-05
-0.00127899
1.82473e-05
-0.00294648
-2.32154e-05
-0.00391607
-0.000101038
-0.00438398
-0.000201609
-0.00458266
-0.000314369
-0.00467206
-0.00043343
-0.00473464
-0.000556597
-0.00480142
-0.000683422
-0.00488038
-0.000813997
-0.00497229
-0.000948528
-0.00507646
-0.00108724
-0.00519213
-0.00123035
-0.0053187
-0.00137809
-0.00545568
-0.00153073
-0.00560279
-0.00168858
-0.00575999
-0.00185212
-0.00592729
-0.0020217
-0.0061049
-0.00219649
-0.00629387
-0.00649345
-0.00237464
1.24265e-05
-0.00129141
-1.74437e-07
-0.00293388
-5.83212e-05
-0.00385793
-0.000148957
-0.00429334
-0.000260354
-0.00447126
-0.000382517
-0.0045499
-0.000510284
-0.00460688
-0.000641901
-0.0046698
-0.00077711
-0.00474517
-0.00091608
-0.00483332
-0.00105905
-0.00493348
-0.00120628
-0.00504491
-0.001358
-0.00516698
-0.00151444
-0.00529923
-0.00167585
-0.00544138
-0.00184255
-0.00559329
-0.00201506
-0.00575478
-0.0021939
-0.00592607
-0.00237833
-0.00610944
-0.00630586
-0.00256593
5.14851e-06
-0.00129656
-2.24583e-05
-0.00290627
-9.25948e-05
-0.00378779
-0.000195337
-0.0041906
-0.000317011
-0.00434959
-0.000448188
-0.00441872
-0.000584377
-0.00447069
-0.000724207
-0.00452997
-0.000867578
-0.0046018
-0.00101472
-0.00468617
-0.00116592
-0.00478229
-0.00132144
-0.00488939
-0.00148155
-0.00500687
-0.00164648
-0.0051343
-0.00181647
-0.00527139
-0.0019918
-0.00541796
-0.00217296
-0.00557362
-0.00236054
-0.00573848
-0.00255432
-0.00591565
-0.00610886
-0.00275132
-2.25326e-06
-0.00129431
-4.26717e-05
-0.00286585
-0.000125847
-0.00370462
-0.000240041
-0.0040764
-0.000371487
-0.00421815
-0.000511316
-0.00427889
-0.000655647
-0.00432636
-0.000803444
-0.00438218
-0.000954739
-0.0044505
-0.00110982
-0.00453109
-0.001269
-0.0046231
-0.00143259
-0.0047258
-0.00160086
-0.0048386
-0.00177408
-0.00496108
-0.0019525
-0.00509298
-0.0021364
-0.00523406
-0.0023262
-0.00538383
-0.00252222
-0.00554246
-0.00272355
-0.00571433
-0.00590396
-0.00292845
-9.02993e-06
-0.00128528
-6.21371e-05
-0.00281274
-0.000157935
-0.00360882
-0.000283009
-0.00395133
-0.000423729
-0.00407742
-0.000571851
-0.00413077
-0.000724038
-0.00417417
-0.000879542
-0.00422667
-0.00103851
-0.00429154
-0.00120128
-0.00436832
-0.00136819
-0.00445619
-0.00153959
-0.00455441
-0.00171577
-0.00466242
-0.00189703
-0.00477981
-0.00208371
-0.00490631
-0.0022762
-0.00504157
-0.00247489
-0.00518513
-0.00268006
-0.00533729
-0.00289175
-0.00550264
-0.0056995
-0.00309621
-1.59281e-05
-0.00126935
-8.09715e-05
-0.0027477
-0.000188782
-0.00350101
-0.000324167
-0.00381594
-0.00047369
-0.0039279
-0.000629747
-0.00397472
-0.000789496
-0.00401442
-0.000952436
-0.00406373
-0.00111881
-0.00412516
-0.00128899
-0.00419814
-0.00146337
-0.00428181
-0.0016423
-0.00437548
-0.0018261
-0.00447861
-0.00201513
-0.00459079
-0.00220975
-0.00471168
-0.00241049
-0.00484083
-0.00261771
-0.00497791
-0.00283086
-0.00512415
-0.00305016
-0.00528334
-0.0054504
-0.00329926
-2.27264e-05
-0.00124662
-9.91626e-05
-0.00267127
-0.000218333
-0.00338184
-0.000363459
-0.00367082
-0.000521328
-0.00377003
-0.000684963
-0.00381108
-0.000851973
-0.00384741
-0.00102206
-0.00389364
-0.00119556
-0.00395167
-0.00137288
-0.00402082
-0.00155443
-0.00410026
-0.0017406
-0.00418932
-0.00193174
-0.00428747
-0.00212823
-0.00439431
-0.00233044
-0.00450946
-0.00253873